/*--------------------------------*- C++ -*----------------------------------*\
| =========                 |                                                 |
| \\      /  F ield         | OpenFOAM: The Open Source CFD Toolbox           |
|  \\    /   O peration     | Version:  plus.master.MPPICInterFoam            |
|   \\  /    A nd           | Web:      www.OpenFOAM.com                      |
|    \\/     M anipulation  |                                                 |
\*---------------------------------------------------------------------------*/
FoamFile
{
    version     2.0;
    format      ascii;
    class       volScalarField;
    location    "13.2";
    object      epsilon;
}
// * * * * * * * * * * * * * * * * * * * * * * * * * * * * * * * * * * * * * //

dimensions      [0 2 -3 0 0 0 0];

internalField   nonuniform List<scalar> 
11822
(
0.415557
0.444491
0.434749
0.397182
0.344339
0.287445
0.233165
0.558076
0.604835
0.581312
0.514686
0.43181
0.349777
0.277115
0.696541
0.76485
0.749531
0.647426
0.523107
0.410462
0.316868
0.704505
0.762516
0.839464
0.761867
0.599859
0.457261
0.345502
0.663579
0.698762
0.827937
0.793495
0.632313
0.475684
0.355556
0.631069
0.673103
0.779911
0.753973
0.601235
0.456143
0.342887
0.598211
0.669082
0.691299
0.632919
0.518029
0.40507
0.31007
0.406098
0.433311
0.423003
0.386301
0.335323
0.280576
0.228229
0.547357
0.591122
0.565617
0.499682
0.419355
0.340465
0.270646
0.689527
0.756145
0.734155
0.629876
0.507722
0.398903
0.309008
0.703935
0.776345
0.832693
0.747189
0.583627
0.444457
0.336783
0.666203
0.683587
0.829114
0.786092
0.618079
0.463103
0.346797
0.641769
0.670613
0.776517
0.746206
0.588582
0.44479
0.334868
0.595594
0.665901
0.688702
0.624812
0.507192
0.395569
0.303324
0.396846
0.422486
0.412511
0.377389
0.328495
0.275629
0.224697
0.531468
0.571683
0.54713
0.484776
0.408756
0.333418
0.265981
0.661331
0.723679
0.704113
0.60664
0.492423
0.389426
0.303165
0.685768
0.746721
0.802995
0.715984
0.564227
0.433004
0.330044
0.59059
0.651368
0.763438
0.750856
0.59695
0.450982
0.339834
0.598734
0.642623
0.745374
0.71624
0.571061
0.434103
0.328568
0.582255
0.628656
0.667261
0.607283
0.494378
0.387179
0.298185
0.388871
0.412979
0.403858
0.370487
0.323076
0.271194
0.220937
0.514767
0.550034
0.528654
0.472327
0.400618
0.327735
0.261593
0.63229
0.681708
0.666028
0.583327
0.479659
0.381924
0.298084
0.655806
0.697052
0.7553
0.677182
0.545249
0.423388
0.324297
0.582422
0.665818
0.721685
0.712651
0.575241
0.440295
0.333828
0.571024
0.629065
0.720248
0.686263
0.553061
0.424714
0.323092
0.559971
0.619223
0.645561
0.587921
0.482092
0.38003
0.29368
0.384023
0.407761
0.399317
0.366504
0.319547
0.268209
0.218799
0.504153
0.538673
0.520936
0.466717
0.396146
0.324034
0.25869
0.617646
0.66498
0.654148
0.574953
0.473769
0.377528
0.294665
0.650915
0.72847
0.753997
0.665479
0.53712
0.418201
0.320543
0.588478
0.668408
0.74802
0.693799
0.563631
0.434294
0.329922
0.567259
0.623254
0.709503
0.668469
0.541539
0.418791
0.319365
0.543441
0.59399
0.623614
0.572768
0.473419
0.375179
0.290535
0.379306
0.403165
0.394254
0.3612
0.314498
0.264112
0.216545
0.49859
0.534988
0.516015
0.461029
0.39035
0.318827
0.255035
0.619526
0.670243
0.65074
0.569334
0.467891
0.371892
0.290259
0.64169
0.722563
0.735393
0.659016
0.531459
0.412592
0.315857
0.581892
0.653611
0.720544
0.688128
0.557895
0.428767
0.325195
0.547001
0.617504
0.693513
0.663264
0.534111
0.412908
0.31466
0.527941
0.593347
0.616128
0.564357
0.466534
0.369632
0.286219
0.187178
0.156058
0.130329
0.109771
0.0943638
0.0849259
0.0863368
0.147428
0.217527
0.175814
0.143041
0.117549
0.098536
0.0863017
0.0850292
0.140056
0.245358
0.195129
0.156173
0.126244
0.104035
0.089456
0.0862943
0.138566
0.265547
0.20981
0.166847
0.134011
0.109709
0.0936783
0.0896985
0.143035
0.273016
0.216522
0.172908
0.139501
0.114756
0.0985359
0.0950689
0.153599
0.265709
0.21425
0.173848
0.142457
0.119076
0.104067
0.102662
0.171473
0.246762
0.205658
0.171352
0.143877
0.123304
0.110795
0.11315
0.198119
0.183771
0.153531
0.12847
0.108426
0.093419
0.0843025
0.0860207
0.147872
0.213197
0.172747
0.140854
0.115998
0.0974598
0.0855917
0.0846424
0.14038
0.240148
0.191529
0.153664
0.124497
0.102838
0.0886716
0.0858589
0.13882
0.259751
0.205843
0.164118
0.132131
0.10843
0.0928418
0.0892289
0.143241
0.26714
0.212482
0.17013
0.13759
0.113455
0.0976803
0.0945806
0.153766
0.260276
0.210441
0.171193
0.140616
0.117813
0.103227
0.102174
0.171617
0.242069
0.202232
0.168902
0.142152
0.122106
0.109982
0.11266
0.198306
0.181266
0.151608
0.127033
0.107413
0.0927771
0.0839873
0.0859916
0.147877
0.210053
0.170431
0.139145
0.114788
0.0966797
0.0851873
0.0845717
0.140452
0.236361
0.188828
0.151697
0.123095
0.101906
0.0881422
0.0856765
0.13878
0.255488
0.20287
0.161974
0.130589
0.10737
0.0921828
0.0888992
0.143001
0.262775
0.209454
0.167947
0.136001
0.112327
0.0969251
0.0941173
0.153333
0.256268
0.207606
0.169121
0.139082
0.11669
0.102429
0.101616
0.171008
0.238654
0.19971
0.16702
0.140737
0.121042
0.109184
0.112037
0.197571
0.178199
0.149017
0.124937
0.105803
0.0916105
0.0831927
0.0855648
0.149205
0.206549
0.167507
0.136783
0.112975
0.0953678
0.0842811
0.083999
0.14133
0.232482
0.185643
0.149127
0.121119
0.100479
0.0871678
0.085071
0.139586
0.251347
0.19956
0.159317
0.12854
0.105887
0.0911889
0.0883386
0.143987
0.258611
0.206195
0.165345
0.133986
0.110859
0.0959485
0.0936193
0.154505
0.252426
0.204588
0.166706
0.137196
0.115298
0.101495
0.101164
0.172223
0.235312
0.197023
0.164852
0.139026
0.119757
0.108302
0.1116
0.198649
0.177214
0.149063
0.126186
0.108414
0.0957709
0.0892515
0.0945814
0.167333
0.204735
0.166795
0.137362
0.115023
0.0990816
0.0900225
0.0928705
0.159755
0.230095
0.184327
0.149099
0.122567
0.103591
0.0922725
0.0931892
0.156753
0.248642
0.197862
0.158818
0.129417
0.108303
0.0954087
0.0952249
0.158766
0.255834
0.204353
0.164561
0.134397
0.112593
0.0992039
0.0990768
0.166389
0.249818
0.202814
0.165816
0.13728
0.116446
0.103852
0.105232
0.181144
0.233125
0.195509
0.164034
0.138961
0.120505
0.109965
0.114533
0.204882
0.177909
0.152083
0.131951
0.117458
0.109037
0.109087
0.12977
0.288599
0.20384
0.168493
0.142039
0.123157
0.111529
0.108959
0.126659
0.277366
0.228071
0.184889
0.152705
0.1297
0.115048
0.110078
0.12529
0.27003
0.245972
0.197615
0.161493
0.135494
0.118517
0.111608
0.124831
0.265835
0.252916
0.203627
0.16649
0.139425
0.121376
0.113396
0.125484
0.265581
0.246952
0.201874
0.167173
0.141322
0.123761
0.115926
0.128324
0.272492
0.230503
0.19445
0.164847
0.142008
0.126335
0.119957
0.134541
0.289102
0.490477
0.410131
0.338085
0.279112
0.23563
0.210884
0.220397
0.41191
0.567345
0.471939
0.37976
0.30567
0.250495
0.216958
0.218931
0.396413
0.612817
0.510515
0.404847
0.320096
0.257085
0.2177
0.213976
0.375515
0.622453
0.506245
0.396932
0.311706
0.248808
0.209107
0.203129
0.35072
0.56439
0.449033
0.354484
0.280414
0.226056
0.191743
0.187216
0.323123
0.455993
0.366761
0.294318
0.237804
0.196286
0.170474
0.170079
0.299042
0.346858
0.285908
0.236046
0.196708
0.167717
0.150613
0.15541
0.281189
0.486972
0.406469
0.334322
0.275696
0.232891
0.208915
0.219279
0.412944
0.566507
0.468602
0.375872
0.301769
0.247271
0.214668
0.217688
0.397745
0.614575
0.509967
0.401609
0.316086
0.25367
0.215345
0.212805
0.377166
0.622293
0.503427
0.391984
0.30711
0.245373
0.206944
0.202182
0.352423
0.558323
0.44255
0.348663
0.275981
0.223107
0.190051
0.186611
0.324771
0.447623
0.359963
0.289195
0.234312
0.194129
0.169337
0.169801
0.300588
0.339899
0.280698
0.232415
0.194337
0.166297
0.149905
0.155333
0.282605
0.478432
0.401913
0.330043
0.272113
0.230105
0.206866
0.217937
0.413573
0.544274
0.462122
0.371111
0.297705
0.244157
0.21244
0.216297
0.398979
0.579521
0.501091
0.396393
0.31181
0.250569
0.213256
0.211607
0.378887
0.60335
0.492431
0.385298
0.302626
0.242501
0.205198
0.201312
0.354187
0.543127
0.433238
0.342634
0.272234
0.220882
0.188817
0.186114
0.32637
0.437237
0.353184
0.284912
0.231713
0.192631
0.168557
0.169575
0.301935
0.333692
0.276623
0.229792
0.192693
0.165311
0.149371
0.155178
0.283531
0.466068
0.393227
0.323705
0.267522
0.226852
0.204616
0.216471
0.413809
0.519162
0.450368
0.363235
0.292321
0.240493
0.209955
0.214647
0.399114
0.55127
0.486271
0.387277
0.30616
0.247027
0.210984
0.210141
0.37913
0.577545
0.47806
0.377085
0.297839
0.239691
0.203515
0.200325
0.354799
0.525691
0.423234
0.336906
0.268981
0.219035
0.18778
0.185615
0.327362
0.427256
0.34729
0.281457
0.229692
0.191462
0.167924
0.169374
0.303206
0.328566
0.27337
0.227688
0.19132
0.164436
0.14887
0.155047
0.284809
0.450589
0.380623
0.315116
0.261793
0.223019
0.202089
0.215121
0.415799
0.506265
0.434429
0.352108
0.285132
0.235822
0.206884
0.212824
0.400301
0.537295
0.467356
0.375049
0.298822
0.242494
0.208084
0.208446
0.380237
0.558711
0.462334
0.367915
0.292483
0.236437
0.201495
0.199305
0.356596
0.513064
0.414773
0.331946
0.266039
0.217253
0.186764
0.185378
0.329932
0.420257
0.343057
0.278959
0.228202
0.190622
0.167608
0.169728
0.30613
0.325145
0.271138
0.226239
0.190432
0.164022
0.148927
0.155748
0.287469
0.436243
0.367438
0.305471
0.254523
0.217214
0.197211
0.212552
0.453403
0.498548
0.418765
0.340009
0.276392
0.229144
0.201431
0.209452
0.43354
0.534175
0.453766
0.363352
0.290506
0.236256
0.203118
0.20555
0.412733
0.554912
0.453077
0.359876
0.28638
0.231778
0.197893
0.197897
0.390794
0.507304
0.40848
0.32683
0.262112
0.214349
0.184831
0.186072
0.367749
0.414887
0.338715
0.275644
0.225846
0.189218
0.167389
0.173003
0.349619
0.321473
0.268289
0.224293
0.189463
0.164184
0.150753
0.162459
0.340032
0.327509
0.270437
0.222941
0.185263
0.157392
0.140692
0.14414
0.257927
0.342104
0.274145
0.220739
0.179468
0.148966
0.129563
0.127956
0.217486
0.33487
0.265329
0.211197
0.169708
0.13905
0.119029
0.114908
0.188078
0.308242
0.24437
0.194475
0.156125
0.127672
0.108899
0.104361
0.167989
0.270199
0.215966
0.173321
0.140311
0.115702
0.0995149
0.09612
0.155428
0.228832
0.185588
0.151336
0.124558
0.104507
0.0915754
0.0903206
0.149596
0.189152
0.157742
0.13185
0.111155
0.0956188
0.0860849
0.0875652
0.150221
0.32057
0.265387
0.219474
0.183024
0.15605
0.139999
0.144005
0.259079
0.334203
0.268681
0.217119
0.177169
0.14758
0.128808
0.127709
0.218294
0.326785
0.259879
0.207636
0.167444
0.137656
0.118228
0.11458
0.188678
0.300901
0.239443
0.19123
0.154017
0.126335
0.108098
0.103998
0.168499
0.264158
0.211858
0.170547
0.138453
0.114488
0.0987701
0.0957764
0.155921
0.224191
0.18234
0.149065
0.122986
0.103454
0.0909276
0.0900529
0.150158
0.185732
0.15522
0.130006
0.10983
0.0946983
0.0854903
0.0872879
0.150747
0.314944
0.261636
0.217035
0.181467
0.155078
0.139421
0.143734
0.259514
0.327875
0.264663
0.21455
0.175509
0.146508
0.128134
0.127343
0.218447
0.320564
0.255938
0.205078
0.165741
0.136516
0.117491
0.114159
0.188665
0.295483
0.235908
0.188843
0.152368
0.125207
0.107365
0.103582
0.16842
0.259825
0.208883
0.168442
0.136961
0.113464
0.0981253
0.095444
0.155821
0.220867
0.179928
0.147294
0.121715
0.1026
0.090427
0.0898631
0.150126
0.183221
0.153294
0.12856
0.108797
0.0940246
0.0851277
0.0871904
0.150682
0.31035
0.258599
0.214984
0.18006
0.154132
0.138843
0.143526
0.260571
0.322695
0.261351
0.212274
0.173885
0.145373
0.127418
0.127064
0.219581
0.315566
0.252573
0.202631
0.163919
0.135212
0.116661
0.113832
0.189943
0.291036
0.232635
0.186318
0.150436
0.123815
0.106479
0.103234
0.169877
0.255911
0.205772
0.165957
0.135049
0.112097
0.0972611
0.0951114
0.157406
0.2174
0.177061
0.144982
0.119944
0.10134
0.0896268
0.0895514
0.15182
0.180213
0.150761
0.126515
0.107236
0.092915
0.0844189
0.0869251
0.152423
0.30745
0.256644
0.213688
0.1793
0.153881
0.139135
0.144546
0.263411
0.319512
0.25914
0.210753
0.172993
0.145129
0.127891
0.12852
0.22376
0.31241
0.250248
0.201041
0.163101
0.13523
0.117615
0.116085
0.195903
0.288032
0.230396
0.184912
0.149972
0.124385
0.108216
0.106618
0.178067
0.253234
0.203919
0.165074
0.135267
0.113528
0.100084
0.09995
0.16823
0.215336
0.175931
0.144932
0.121107
0.103843
0.0937017
0.095972
0.165434
0.179108
0.150626
0.127504
0.109488
0.0965851
0.0897966
0.0949113
0.168448
0.303508
0.253678
0.211842
0.178778
0.154964
0.142556
0.154085
0.322365
0.315505
0.256232
0.209247
0.173161
0.147305
0.1329
0.140448
0.287401
0.30821
0.247415
0.199956
0.164087
0.138683
0.124517
0.131034
0.266466
0.283996
0.228038
0.184655
0.152177
0.129537
0.117525
0.125439
0.258116
0.24996
0.202634
0.166183
0.139163
0.120808
0.112263
0.123322
0.259721
0.213551
0.176368
0.147936
0.1271
0.11357
0.109043
0.124276
0.269203
0.179592
0.153315
0.1328
0.117905
0.109039
0.108557
0.128452
0.284994
0.258526
0.215483
0.180093
0.151837
0.130705
0.117985
0.121141
0.213542
0.332799
0.271098
0.221014
0.181557
0.152037
0.13325
0.132565
0.227124
0.417696
0.33575
0.268678
0.216101
0.177011
0.151716
0.147702
0.248319
0.501441
0.398181
0.314757
0.249692
0.20175
0.170877
0.165093
0.277554
0.556371
0.439084
0.346467
0.274208
0.221241
0.187713
0.182945
0.313718
0.554057
0.443319
0.353632
0.28319
0.231572
0.19987
0.199721
0.355284
0.50037
0.412359
0.337615
0.277302
0.233062
0.207596
0.215615
0.400358
0.253673
0.211972
0.177606
0.150107
0.129527
0.117213
0.120716
0.213918
0.325688
0.265971
0.217489
0.17922
0.150544
0.13235
0.132134
0.227683
0.409015
0.329095
0.263971
0.213013
0.175112
0.150649
0.147266
0.249066
0.493245
0.390985
0.309317
0.245991
0.199459
0.169608
0.164613
0.278634
0.55111
0.432878
0.341188
0.270327
0.218708
0.186263
0.182409
0.315179
0.55075
0.439011
0.349277
0.279635
0.229032
0.198284
0.199052
0.356848
0.497432
0.408774
0.333905
0.274063
0.230554
0.205864
0.214716
0.401578
0.250111
0.209408
0.175727
0.148712
0.128485
0.116428
0.120098
0.213323
0.320018
0.262178
0.214949
0.1775
0.149364
0.131526
0.131549
0.227491
0.400541
0.323568
0.260477
0.210825
0.173747
0.149792
0.146745
0.249183
0.482086
0.383905
0.304889
0.243299
0.197853
0.168669
0.164108
0.279164
0.538426
0.425461
0.33644
0.267318
0.216852
0.185157
0.181842
0.316157
0.538354
0.432711
0.34488
0.276533
0.226909
0.196892
0.198282
0.357986
0.492826
0.404576
0.330017
0.270873
0.228128
0.204124
0.213626
0.402374
0.246809
0.206834
0.173675
0.147089
0.127243
0.115536
0.119574
0.214067
0.31524
0.258884
0.212572
0.175728
0.14804
0.130567
0.130918
0.227819
0.39307
0.318935
0.25754
0.208883
0.17241
0.148864
0.146131
0.249345
0.47075
0.377323
0.301019
0.240975
0.196403
0.167726
0.163483
0.279221
0.524895
0.41751
0.331622
0.264417
0.215079
0.184039
0.181115
0.316251
0.527583
0.425061
0.339596
0.273018
0.224615
0.195405
0.197333
0.358233
0.481931
0.39688
0.324395
0.266854
0.22533
0.202225
0.212403
0.402605
0.244422
0.205066
0.1725
0.146532
0.127339
0.116348
0.121332
0.218087
0.311806
0.25642
0.210801
0.174555
0.147458
0.130616
0.131788
0.23077
0.387567
0.315424
0.255194
0.207274
0.17138
0.148394
0.14637
0.251598
0.461188
0.37175
0.29764
0.238811
0.194987
0.166887
0.163279
0.280852
0.509001
0.408441
0.326415
0.261266
0.213075
0.18278
0.180531
0.317442
0.510096
0.413256
0.332514
0.268661
0.221842
0.193628
0.196385
0.359389
0.465811
0.385236
0.31672
0.261847
0.222049
0.2001
0.211276
0.404051
0.241657
0.203531
0.172475
0.148289
0.1313
0.123632
0.136983
0.291782
0.307431
0.253109
0.208767
0.174034
0.148753
0.134477
0.142001
0.290388
0.382231
0.311154
0.252014
0.205352
0.170923
0.149874
0.152665
0.301329
0.454557
0.366439
0.293489
0.235843
0.193261
0.166641
0.166715
0.323593
0.500592
0.40126
0.32089
0.257176
0.210221
0.181122
0.181757
0.355798
0.49748
0.402782
0.325064
0.263243
0.217829
0.190684
0.195924
0.396073
0.448557
0.372876
0.307936
0.255319
0.216939
0.195965
0.209605
0.44215
0.0121404
0.0122508
0.0134205
0.0134229
0.0123585
0.0105898
0.00850911
0.00645244
0.0118837
0.0121358
0.0133521
0.0133898
0.0123538
0.0106037
0.0085295
0.00646826
0.0118197
0.0120565
0.013251
0.0132705
0.0122253
0.0104776
0.00841464
0.00636642
0.0121425
0.0121568
0.0132551
0.0131917
0.0120787
0.0102902
0.00822054
0.00619424
0.0128453
0.0124434
0.0133928
0.0132068
0.0119881
0.0101252
0.00802485
0.0060087
0.0139296
0.0129302
0.0137113
0.0133979
0.0120602
0.0100909
0.00791177
0.00585556
0.0153262
0.0135825
0.0142272
0.0138445
0.0124421
0.0103934
0.0081244
0.00598697
0.018763
0.019906
0.0213592
0.0207579
0.018543
0.0153769
0.0119079
0.00863808
0.0183181
0.0196987
0.0212213
0.020669
0.0184983
0.0153669
0.011916
0.00864725
0.0182152
0.0195936
0.0210892
0.0205101
0.0183234
0.0151954
0.0117653
0.00852093
0.0187446
0.0197897
0.0211502
0.0204517
0.0181568
0.0149557
0.0115081
0.00830031
0.019859
0.020252
0.0214037
0.0205377
0.018085
0.0147612
0.0112556
0.00805539
0.0215236
0.0209583
0.0218725
0.0208461
0.018234
0.0147518
0.0111144
0.00783546
0.0237178
0.0218347
0.0225545
0.0214653
0.0187987
0.015225
0.0114573
0.0080426
0.0311827
0.0338226
0.0348024
0.032552
0.0280653
0.0224097
0.0166323
0.0114598
0.0304533
0.0335133
0.0345897
0.0323905
0.0279588
0.0223578
0.0166163
0.0114592
0.0303274
0.0334006
0.0344396
0.0321933
0.027724
0.0221192
0.0164136
0.0112982
0.0312197
0.0337544
0.034609
0.0322013
0.0275612
0.021821
0.0160676
0.0110105
0.0329406
0.0344321
0.0350183
0.0324132
0.0275539
0.0216162
0.0157564
0.01069
0.0353322
0.0353274
0.0356238
0.0328689
0.0278325
0.0216825
0.0156149
0.0103921
0.0382133
0.0363042
0.0363889
0.0336381
0.0286128
0.0223961
0.0161624
0.0107137
0.0596938
0.0602962
0.0576474
0.0514122
0.0426484
0.0326393
0.0230274
0.0148679
0.0587136
0.0600107
0.0574448
0.0512098
0.0424751
0.0325297
0.0229651
0.0148284
0.0586529
0.0599513
0.0573244
0.0509967
0.0421627
0.0321705
0.0226527
0.0146008
0.0600786
0.0604632
0.0576271
0.0511255
0.0420409
0.0317934
0.0221435
0.0141722
0.0624174
0.061208
0.0581356
0.0515025
0.0421636
0.0316126
0.0217933
0.0137991
0.0652415
0.0619747
0.0587153
0.0520924
0.0426332
0.031832
0.0217046
0.0134443
0.0680534
0.0626285
0.0593273
0.052909
0.043619
0.0328538
0.0225658
0.0139845
0.142294
0.111081
0.0952304
0.0805421
0.0643461
0.0470258
0.0309949
0.018202
0.141942
0.111179
0.0952118
0.0803669
0.0641023
0.0468483
0.0308736
0.0180667
0.142253
0.111296
0.0952125
0.080202
0.0637124
0.0462717
0.0302437
0.0176624
0.143806
0.111671
0.0955358
0.0804843
0.0637086
0.0458209
0.0295052
0.0170848
0.145509
0.111779
0.0958251
0.0809907
0.0640337
0.0456755
0.0291507
0.0168318
0.146815
0.111476
0.095963
0.0816536
0.064754
0.0460613
0.0291076
0.0167261
0.147506
0.110982
0.0961059
0.0824416
0.0659449
0.0475159
0.0304891
0.0176413
0.408246
0.198371
0.150619
0.121634
0.0939573
0.065037
0.0390278
0.0216477
0.410459
0.19935
0.15085
0.121419
0.0934519
0.064757
0.038783
0.0210928
0.412161
0.199908
0.151102
0.121375
0.0929892
0.0637749
0.037558
0.0205626
0.41275
0.19941
0.151159
0.121782
0.0932332
0.0633552
0.0367401
0.0200266
0.411056
0.197401
0.150632
0.122282
0.0937505
0.0630599
0.0363749
0.0201325
0.407364
0.194257
0.149766
0.123089
0.0949144
0.0633999
0.0362916
0.0205848
0.403475
0.191199
0.149255
0.124229
0.0967538
0.0657748
0.0383628
0.0217449
0.0330355
0.0245196
0.0252244
0.0255322
0.0245204
0.0222291
0.0190521
0.0155193
0.0336772
0.0249573
0.0256887
0.0260491
0.0250804
0.0228063
0.0196124
0.0160292
0.0329214
0.0245856
0.0253458
0.0257019
0.0247309
0.0224665
0.0192944
0.0157409
0.0307842
0.0233146
0.0240563
0.0243078
0.0232592
0.0209855
0.0178854
0.0144745
0.0276072
0.0213574
0.0220056
0.0220427
0.0208275
0.0185064
0.0155037
0.0123182
0.0248722
0.0195718
0.0201329
0.0199708
0.0186063
0.0162606
0.0133808
0.0104369
0.0227183
0.0182587
0.0188085
0.0185425
0.0171111
0.0147847
0.0120146
0.00924586
0.0490687
0.0364778
0.0375159
0.0377398
0.0358562
0.03198
0.0267801
0.021168
0.0498878
0.0370214
0.0380989
0.0384017
0.0365878
0.0327457
0.027528
0.0218463
0.0488578
0.0365811
0.037696
0.0379785
0.0361543
0.0323259
0.0271453
0.021513
0.0459946
0.0349644
0.03602
0.0361213
0.0341641
0.0303146
0.025247
0.0198381
0.0415964
0.0324076
0.0332841
0.0330285
0.0307898
0.0268453
0.0219165
0.0168408
0.0379368
0.0301319
0.0308236
0.0302156
0.0277019
0.0236886
0.0189488
0.01427
0.0349344
0.0285078
0.0291417
0.0283269
0.0256732
0.021672
0.0171005
0.0127057
0.0740063
0.0550212
0.0562676
0.0560798
0.0526796
0.0462038
0.0376966
0.028755
0.0750399
0.0556205
0.0569186
0.0568528
0.0535755
0.0471774
0.0386646
0.0296315
0.0736589
0.0550878
0.056412
0.0562884
0.0529824
0.0466031
0.0381584
0.0292192
0.0697826
0.0530465
0.0542165
0.0537847
0.0502485
0.0438159
0.0355557
0.02699
0.0638993
0.0498092
0.0506162
0.0496021
0.0455924
0.0389637
0.0309025
0.0228226
0.0590182
0.0470696
0.0474832
0.0458407
0.041307
0.0344847
0.0266926
0.0192701
0.055011
0.0452893
0.0454764
0.0433966
0.0385555
0.0317087
0.0241633
0.017217
0.112145
0.0841003
0.0847908
0.0833724
0.0775198
0.0669662
0.0530629
0.0386702
0.113192
0.0845321
0.0853371
0.0841279
0.0785132
0.0681476
0.054281
0.0397467
0.111347
0.0838445
0.0845901
0.0832738
0.0776009
0.0672545
0.0535203
0.0391785
0.106321
0.0813683
0.0816851
0.0798788
0.073798
0.0632871
0.0498463
0.036209
0.09901
0.0775185
0.0770378
0.074327
0.0674567
0.0564973
0.0433389
0.0304563
0.0933379
0.0746954
0.0732902
0.0694595
0.0615746
0.050094
0.0372592
0.0254491
0.0892173
0.0733314
0.0711203
0.066351
0.0577816
0.0461957
0.0337021
0.0226788
0.171692
0.130863
0.127308
0.123069
0.113781
0.0972679
0.0745728
0.050966
0.171436
0.130624
0.127494
0.123626
0.114791
0.0987103
0.0761443
0.0522394
0.169083
0.129591
0.126225
0.12225
0.113315
0.0972114
0.0749098
0.05142
0.164409
0.126694
0.122344
0.117691
0.108015
0.0913788
0.0694748
0.0474289
0.158928
0.122418
0.116409
0.110485
0.0995504
0.081726
0.059876
0.0392587
0.158071
0.120557
0.112351
0.104483
0.0916027
0.0724879
0.0509645
0.0322297
0.161581
0.120894
0.110299
0.100531
0.0861171
0.0667501
0.0458768
0.02849
0.341906
0.204388
0.186541
0.177911
0.164977
0.140011
0.10268
0.0634913
0.33522
0.203117
0.186326
0.178287
0.166058
0.141978
0.104789
0.0648975
0.3345
0.20117
0.184321
0.176282
0.163879
0.139527
0.10287
0.0638871
0.33819
0.197248
0.179217
0.170464
0.156744
0.130854
0.0948405
0.0589203
0.347249
0.192032
0.1716
0.161302
0.145849
0.116981
0.0793826
0.0465315
0.373202
0.192642
0.167548
0.154067
0.134888
0.103218
0.06639
0.0381951
0.398731
0.195592
0.165584
0.149002
0.126491
0.0940682
0.0592431
0.0338217
0.0207285
0.0171188
0.0177013
0.0173846
0.015932
0.0136507
0.0109904
0.00837491
0.0187222
0.0159674
0.0166027
0.0162645
0.014816
0.0125906
0.0100326
0.00754924
0.0167688
0.0147765
0.0154766
0.0151526
0.0137522
0.0116251
0.00919972
0.00685805
0.0148965
0.0135749
0.0143432
0.0140537
0.0127227
0.0107137
0.0084416
0.00626254
0.0135638
0.0127447
0.0135981
0.0133751
0.0121337
0.01024
0.00809448
0.00603043
0.0127575
0.0123336
0.0132939
0.0131545
0.0119958
0.0101818
0.00810634
0.00609655
0.0123761
0.0122433
0.0133104
0.013243
0.0121337
0.0103473
0.00827744
0.00625563
0.0319372
0.0269942
0.0276451
0.0267082
0.0239908
0.0200494
0.0156502
0.011492
0.0289254
0.0253967
0.026096
0.0250909
0.0223625
0.0185084
0.0142736
0.0103137
0.0259583
0.0236628
0.0244412
0.0234364
0.0207795
0.017097
0.0130952
0.00936975
0.0230273
0.0218343
0.0227195
0.0217567
0.019199
0.015704
0.0119569
0.00849782
0.020921
0.020563
0.0215776
0.0207018
0.0182696
0.014949
0.0114071
0.00814295
0.0196899
0.0199659
0.0211322
0.0203628
0.0180397
0.0148267
0.011381
0.00819757
0.0191014
0.0198572
0.0211711
0.0204861
0.0182171
0.0150303
0.0115788
0.00836028
0.0505727
0.043426
0.0435291
0.0411609
0.0361548
0.0293856
0.0221285
0.0155568
0.0461658
0.0413282
0.0413952
0.0388356
0.0337707
0.0271407
0.0201655
0.0138989
0.0418425
0.0388896
0.0390064
0.0363833
0.0314002
0.0250623
0.0185099
0.0126504
0.0373815
0.0362225
0.0364978
0.033904
0.0290367
0.0229727
0.0168354
0.0114044
0.0341506
0.0343942
0.0348532
0.0323469
0.0276296
0.0218017
0.0159712
0.0108555
0.032351
0.0336257
0.0342774
0.0318824
0.0272981
0.0216048
0.0158829
0.0108546
0.0315451
0.0336036
0.0344315
0.0321107
0.0275735
0.0219002
0.0161534
0.0110427
0.0837278
0.0713779
0.068684
0.0632639
0.0542925
0.0427892
0.0308191
0.0204798
0.079003
0.0689383
0.0658152
0.0599096
0.0507479
0.039457
0.0279734
0.0181632
0.0733299
0.0657516
0.062491
0.0563178
0.0471629
0.036327
0.025622
0.0165386
0.0670275
0.0621955
0.0591042
0.0528676
0.0437855
0.0332926
0.023279
0.0148812
0.0625778
0.0599334
0.0570038
0.0507636
0.041813
0.0315958
0.0219892
0.0140487
0.0603689
0.0592545
0.0564569
0.0502467
0.0414354
0.0313852
0.0218447
0.0139136
0.0597016
0.059657
0.0569468
0.0507211
0.0419261
0.0318952
0.0223344
0.0142428
0.160935
0.119559
0.107317
0.0962058
0.0808708
0.0615466
0.0416836
0.0256211
0.158227
0.117135
0.103541
0.0913524
0.0755077
0.0563978
0.0372901
0.022392
0.15259
0.113643
0.0992704
0.0862656
0.07008
0.0515564
0.033837
0.0202324
0.145335
0.109815
0.0952572
0.0817989
0.0654875
0.0473541
0.0308211
0.0183138
0.141327
0.108041
0.0931255
0.0792477
0.062967
0.0451797
0.029173
0.0171975
0.140575
0.1084
0.0930728
0.0788577
0.0626791
0.0451949
0.0291627
0.0169823
0.14155
0.10992
0.0942286
0.079702
0.063464
0.0460218
0.0300467
0.0175307
0.406479
0.195199
0.161679
0.1428
0.118429
0.0860156
0.0533324
0.030381
0.408601
0.193598
0.156737
0.135682
0.110031
0.0776497
0.046517
0.0264529
0.404759
0.191475
0.151889
0.128823
0.102004
0.0702075
0.041534
0.0237018
0.398515
0.189588
0.147974
0.123106
0.0956112
0.0646142
0.0378366
0.0217167
0.40043
0.190834
0.146666
0.120105
0.0924127
0.0621832
0.036244
0.0205454
0.407157
0.194252
0.147848
0.120025
0.0923624
0.0628965
0.0368174
0.0204066
0.409769
0.19725
0.149809
0.121105
0.0932827
0.0638918
0.037992
0.0213399
0.0167401
0.0143218
0.014865
0.0144613
0.0130419
0.0109521
0.00861194
0.00637662
0.0184009
0.0153216
0.0158062
0.0154039
0.0139615
0.0118072
0.00937297
0.00702767
0.0204071
0.0166116
0.0170885
0.0167249
0.0152686
0.013025
0.0104447
0.00793539
0.0227686
0.0180951
0.0185713
0.0182636
0.0168022
0.0144618
0.0117089
0.0089979
0.0252934
0.019703
0.0202174
0.0200272
0.0186283
0.0162482
0.0133528
0.0104264
0.0281245
0.0214877
0.0220812
0.0220773
0.0208178
0.0184591
0.015442
0.0122742
0.0310194
0.02327
0.0239366
0.0241232
0.0230152
0.0206989
0.0175872
0.0142025
0.0258652
0.0227916
0.0233746
0.0222932
0.0196361
0.0160257
0.0121711
0.00863328
0.0284528
0.0241767
0.0246861
0.0236344
0.0209506
0.017229
0.0132173
0.00951186
0.0315463
0.0260411
0.0265637
0.0256033
0.0229096
0.0190314
0.0147528
0.0107567
0.0351
0.0281322
0.0286881
0.0278485
0.0251626
0.0211201
0.0165329
0.0121798
0.0386394
0.0302802
0.0309434
0.0303233
0.0277575
0.0236572
0.018836
0.0141256
0.0424208
0.0325724
0.0334063
0.0331134
0.0308023
0.0267711
0.0217806
0.0167075
0.0463406
0.0348778
0.0358515
0.0358783
0.0338308
0.0298966
0.0247824
0.0193907
0.0413391
0.0373491
0.0373136
0.0346664
0.0297221
0.023484
0.0171285
0.0115111
0.0452764
0.0391038
0.0390467
0.0365404
0.0316025
0.0251762
0.0185466
0.0126662
0.0500054
0.0416757
0.0417243
0.0394494
0.034556
0.0278889
0.0207859
0.0143926
0.0552686
0.0445539
0.0447515
0.0427512
0.0379313
0.031016
0.0233778
0.0163618
0.0602534
0.0473629
0.0478372
0.0462503
0.0416656
0.0346705
0.0266504
0.0190453
0.0652033
0.0502076
0.0510505
0.05002
0.0458862
0.0390628
0.0308087
0.0226696
0.0703613
0.0530767
0.0542019
0.053694
0.0500085
0.0433935
0.034985
0.0263794
0.0708609
0.0632666
0.0601348
0.0540857
0.0450515
0.0343168
0.023791
0.0148656
0.0755061
0.065012
0.0622081
0.0566344
0.0477683
0.0367252
0.0256921
0.0163588
0.0818607
0.0681835
0.0658264
0.0608171
0.0521888
0.0408472
0.029026
0.0187861
0.0889236
0.0719086
0.0700566
0.0656556
0.0573056
0.0456541
0.0329513
0.0216073
0.0953899
0.0754003
0.074267
0.0706366
0.0627651
0.0510152
0.0376821
0.025353
0.101351
0.0787303
0.0784292
0.0757024
0.0685981
0.0572378
0.0435597
0.0304354
0.107658
0.0820285
0.0823842
0.0804584
0.0740979
0.0631971
0.0493547
0.0355237
0.147387
0.110305
0.0965219
0.0838161
0.0678813
0.0495053
0.0319513
0.0186409
0.148312
0.110927
0.098621
0.0871751
0.0718968
0.0530695
0.0345558
0.0204376
0.151644
0.113899
0.103099
0.0929244
0.0783961
0.0593706
0.0395925
0.0236433
0.155936
0.118061
0.108743
0.0998397
0.0861258
0.066843
0.0456375
0.0275355
0.159763
0.122008
0.114412
0.106919
0.0942653
0.0749446
0.0525682
0.0326675
0.163675
0.125746
0.119864
0.113765
0.102396
0.0839682
0.061083
0.0398121
0.168371
0.129176
0.124709
0.119718
0.109527
0.0921556
0.0692818
0.0467096
0.397417
0.187829
0.149267
0.126392
0.0998222
0.0684299
0.0400717
0.022578
0.389503
0.185635
0.151095
0.130803
0.105881
0.0741001
0.0437986
0.0245362
0.384925
0.187248
0.15638
0.138508
0.115413
0.0838142
0.0511452
0.0285494
0.380668
0.191227
0.163541
0.147995
0.126979
0.0953406
0.0599087
0.033668
0.369802
0.195077
0.170899
0.157765
0.139195
0.108023
0.0700891
0.0397089
0.357703
0.199498
0.17816
0.16721
0.151081
0.121829
0.0833076
0.0487385
0.349217
0.203333
0.183965
0.17436
0.159923
0.133024
0.0952358
0.0581101
0.00221733
0.00131641
0.00225396
0.00501654
0.00401304
0.0031953
0.00255553
0.00206498
0.00172737
0.00163986
0.00271375
0.0050227
0.00401147
0.00318657
0.0025391
0.00204147
0.00169783
0.00159885
0.00260993
0.00492793
0.00391975
0.00309475
0.0024488
0.00196098
0.00162993
0.00153613
0.00250877
0.00478201
0.00379856
0.00299468
0.00236342
0.00188772
0.00156809
0.00148242
0.00242454
0.0046231
0.00366618
0.00288649
0.00227482
0.00181591
0.00150954
0.00142764
0.00231612
0.00446676
0.00352837
0.00277039
0.00217986
0.00174244
0.00145619
0.00138948
0.0022444
0.00455374
0.00359101
0.00281117
0.00221039
0.00177544
0.00149579
0.0014391
0.00235932
0.00643229
0.00494584
0.00379663
0.00295495
0.00233281
0.00193269
0.0018504
0.00303634
0.00643122
0.00493447
0.00377135
0.00291647
0.00228386
0.00187198
0.00177847
0.00286541
0.00632415
0.00483722
0.00367698
0.00282916
0.00221322
0.0018166
0.00172792
0.00277778
0.00614824
0.00470184
0.00357372
0.00274264
0.00214141
0.00176428
0.00168583
0.00272314
0.00594184
0.00453645
0.00344884
0.00264765
0.00206818
0.00170084
0.00161352
0.00257055
0.00570532
0.00433627
0.00329916
0.00254289
0.00200315
0.00167235
0.00160978
0.00259558
0.00584732
0.00445088
0.00338874
0.00261886
0.00207448
0.00173607
0.00167098
0.00274354
0.00806852
0.00591839
0.00440285
0.00338373
0.00268053
0.00225045
0.00221054
0.00381146
0.00806719
0.00589762
0.00435437
0.00332037