/*--------------------------------*- C++ -*----------------------------------*\
| =========                 |                                                 |
| \\      /  F ield         | OpenFOAM: The Open Source CFD Toolbox           |
|  \\    /   O peration     | Version:  plus.master.MPPICInterFoam            |
|   \\  /    A nd           | Web:      www.OpenFOAM.com                      |
|    \\/     M anipulation  |                                                 |
\*---------------------------------------------------------------------------*/
FoamFile
{
    version     2.0;
    format      ascii;
    class       surfaceScalarField;
    location    "13.2";
    object      phi;
}
// * * * * * * * * * * * * * * * * * * * * * * * * * * * * * * * * * * * * * //

dimensions      [0 3 -1 0 0 0 0];

internalField   nonuniform List<scalar> 
34319
(
-6.50358e-08
1.42742e-08
6.35545e-06
6.5645e-08
2.41914e-08
-5.7257e-08
2.91727e-08
6.24044e-06
8.46511e-09
-4.20655e-08
2.4832e-08
5.87045e-06
7.22475e-09
-2.09201e-08
9.4416e-09
5.3215e-06
1.27655e-08
2.26483e-09
-1.08291e-08
4.67592e-06
2.21507e-08
2.09743e-08
-2.59027e-08
4.00413e-06
2.99667e-08
-3.61188e-08
3.34378e-06
3.19698e-08
3.52139e-08
-9.56325e-08
4.8492e-08
7.71995e-06
1.00608e-07
-9.12571e-08
7.74297e-08
7.60888e-06
-7.83018e-08
6.98434e-08
7.08527e-06
-4.42444e-08
3.17852e-08
6.29262e-06
-9.28962e-09
2.37325e-09
5.43885e-06
1.77426e-08
-1.76466e-08
4.60495e-06
-3.1727e-08
3.82716e-06
3.38428e-08
-1.0696e-07
4.52385e-08
9.83715e-06
1.21793e-07
-1.26666e-07
1.39033e-07
9.9033e-06
-9.22917e-08
9.30034e-08
8.83133e-06
-4.69392e-08
4.72223e-08
7.4241e-06
-6.96464e-09
1.99252e-08
6.2095e-06
2.30801e-08
-2.45481e-09
5.17312e-06
-2.03442e-08
4.26353e-06
4.14028e-08
-1.94329e-07
-1.22303e-08
1.23603e-05
2.30027e-07
-5.00192e-08
3.14349e-08
1.26219e-05
-5.20309e-08
1.26079e-07
1.09791e-05
-2.63934e-08
7.35147e-08
8.65819e-06
5.69873e-09
4.91588e-08
6.89553e-06
3.2926e-08
2.19933e-08
5.63811e-06
-2.14573e-09
4.61312e-06
5.05683e-08
4.559e-08
4.5518e-08
1.2836e-05
2.12461e-07
-2.34475e-07
2.12684e-08
1.34918e-05
-1.01806e-07
3.13519e-09
1.18853e-05
-6.37086e-08
4.88775e-08
9.45981e-06
-7.07038e-09
5.10843e-08
7.31512e-06
2.96514e-08
3.86201e-08
5.92397e-06
1.31548e-08
4.8316e-06
5.29765e-08
-2.84485e-08
6.61915e-08
1.25477e-05
2.84157e-07
-4.64607e-08
2.58145e-09
1.33631e-05
-7.58705e-08
3.56719e-08
1.19122e-05
-5.29702e-08
5.63111e-08
9.34267e-06
-1.25233e-08
6.55735e-08
7.34347e-06
2.47551e-08
5.24289e-08
5.97118e-06
2.32464e-08
4.88946e-06
5.24712e-08
-4.70208e-08
1.09635e-05
8.25072e-08
6.50009e-09
-1.54014e-07
1.13855e-05
4.53023e-08
-1.57878e-07
1.03568e-05
2.78948e-08
-1.07833e-07
8.54026e-06
3.44029e-08
-4.08617e-08
6.99771e-06
4.83418e-08
1.24631e-08
5.79504e-06
4.52044e-08
4.78635e-06
5.38755e-08
1.57368e-08
-5.87465e-08
9.05709e-08
6.29489e-06
4.3306e-08
-1.44811e-08
-6.01978e-08
9.22599e-08
6.1754e-06
-2.56308e-08
-4.84652e-08
6.7761e-08
5.80802e-06
-1.70242e-08
-2.62373e-08
3.0851e-08
5.26834e-06
2.99706e-10
-1.14196e-09
-3.43256e-09
4.63654e-06
1.79202e-08
1.83947e-08
-2.58447e-08
3.98007e-06
3.04638e-08
-3.95511e-08
3.33435e-06
2.93239e-08
3.83449e-08
-1.06695e-07
1.98053e-07
7.64786e-06
7.13306e-08
-1.18202e-07
1.85649e-07
7.52716e-06
-1.04853e-07
1.39043e-07
7.00073e-06
-6.227e-08
6.52363e-08
6.21608e-06
-1.90726e-08
1.32368e-08
5.3795e-06
1.29921e-08
-1.82129e-08
4.56533e-06
-3.68721e-08
3.80607e-06
3.143e-08
-1.86087e-07
3.10944e-07
9.83471e-06
7.57585e-08
-1.96361e-07
2.59792e-07
9.84003e-06
-1.57841e-07
1.84537e-07
8.74749e-06
-8.94183e-08
8.89367e-08
7.332e-06
-2.85137e-08
3.01216e-08
6.13189e-06
1.39699e-08
-6.58691e-09
5.11904e-06
-2.84577e-08
4.23168e-06
3.76122e-08
-3.44034e-07
4.29576e-07
1.23862e-05
1.99705e-07
-2.08547e-07
2.33479e-07
1.25131e-05
-1.78127e-07
2.33905e-07
1.08995e-05
-1.00227e-07
1.00839e-07
8.56856e-06
-2.77565e-08
4.68731e-08
6.80632e-06
1.90422e-08
1.16108e-08
5.57331e-06
-1.45137e-08
4.57305e-06
4.52538e-08
-3.84614e-07
1.21392e-07
1.33062e-05
2.22716e-07
-3.2295e-07
1.79629e-07
1.34843e-05
-2.26706e-07
3.05965e-08
1.19925e-05
-1.32523e-07
7.78342e-08
9.38857e-06
-4.06986e-08
4.85252e-08
7.22168e-06
1.6079e-08
2.49536e-08
5.85388e-06
-1.99871e-09
4.78729e-06
4.79618e-08
-3.77344e-07
-3.07628e-08
1.28162e-05
2.61168e-07
-2.61952e-07
4.62982e-08
1.33814e-05
-2.4404e-07
-7.34347e-12
1.19254e-05
-1.48736e-07
1.75274e-08
9.30803e-06
-5.28032e-08
4.00659e-08
7.25611e-06
9.91061e-09
3.04514e-08
5.90301e-06
4.33246e-09
4.84549e-06
4.76834e-08
-1.62793e-07
1.11315e-05
7.45446e-08
-1.10336e-07
-2.82267e-07
1.16042e-05
-5.24761e-08
-2.70758e-07
1.042e-05
-7.44133e-08
-1.74923e-07
8.48776e-06
-2.55801e-08
-6.89312e-08
6.91902e-06
1.27595e-08
3.03971e-09
5.73356e-06
2.00899e-08
4.74677e-06
5.05914e-08
-3.53063e-09
-3.5351e-08
-5.21867e-08
6.25062e-06
4.85572e-08
8.32767e-08
-1.65416e-08
-4.5501e-08
6.12588e-06
7.62839e-08
1.12251e-08
-6.13134e-08
5.76281e-06
7.8722e-08
3.67128e-08
-6.9456e-08
5.23357e-06
7.87647e-08
5.64652e-08
-7.63446e-08
4.61502e-06
7.82051e-08
6.76197e-08
-7.99177e-08
3.97181e-06
7.69302e-08
-8.09943e-08
3.33844e-06
6.93671e-08
7.51586e-08
-8.26372e-08
1.49476e-08
7.57006e-06
9.32557e-08
-6.4358e-08
2.46956e-08
7.43848e-06
-1.80038e-08
-2.42149e-08
6.91731e-06
2.83886e-08
-5.23388e-08
6.15263e-06
6.00591e-08
-6.66579e-08
5.33825e-06
7.73672e-08
-7.53469e-08
4.54342e-06
-7.96236e-08
3.7999e-06
8.21213e-08
-1.82908e-07
1.12294e-07
9.7637e-06
1.56557e-07
-1.36117e-07
1.26165e-07
9.69226e-06
-3.15617e-08
1.09085e-08
8.60796e-06
3.63981e-08
-1.88158e-08
7.23029e-06
7.44645e-08
-4.02878e-08
6.06755e-06
9.40991e-08
-5.90499e-08
5.08307e-06
-6.85554e-08
4.21591e-06
9.88458e-08
-4.17348e-07
3.00637e-07
1.22504e-05
3.64776e-07
-1.99041e-07
2.39591e-07
1.21816e-05
-2.17463e-08
1.57649e-07
1.05754e-05
4.47087e-08
5.91676e-08
8.42424e-06
9.28596e-08
-1.83577e-09
6.71969e-06
1.11769e-07
-2.96626e-08
5.52513e-06
-4.80855e-08
4.54935e-06
1.15006e-07
-5.92339e-07
3.3425e-07
1.34548e-05
4.10328e-07
-2.70408e-07
3.89725e-07
1.30126e-05
-1.49211e-07
1.49343e-07
1.18796e-05
1.28286e-08
5.45793e-08
9.2309e-06
8.84059e-08
2.20116e-08
7.12211e-06
1.16286e-07
-1.91419e-09
5.79804e-06
-2.62726e-08
4.75873e-06
1.22947e-07
-5.09634e-07
1.36451e-07
1.31223e-05
4.01157e-07
-2.33874e-07
2.50131e-07
1.32458e-05
-8.66349e-08
1.42199e-07
1.17855e-05
1.16686e-08
6.11081e-08
9.20355e-06
8.42112e-08
4.39373e-08
7.16158e-06
1.14199e-07
2.23981e-08
5.84859e-06
-7.44415e-09
4.81672e-06
1.24109e-07
-2.326e-07
1.12445e-05
1.85181e-07
7.1266e-08
-1.87196e-07
1.16898e-05
1.19354e-07
-9.4413e-08
1.03899e-05
7.95907e-08
-3.40353e-09
8.39005e-06
6.7824e-08
6.61731e-08
6.84089e-06
5.242e-08
1.02465e-07
5.68665e-06
3.29528e-08
4.72206e-06
1.20309e-07
-6.29395e-10
-1.45179e-08
-2.26835e-07
6.23564e-06
6.80925e-08
1.88179e-07
2.78947e-08
-2.065e-07
6.10688e-06
1.82994e-07
6.87085e-08
-2.01832e-07
5.74744e-06
1.76358e-07
9.53716e-08
-1.78087e-07
5.22533e-06
1.59516e-07
1.08014e-07
-1.53385e-07
4.615e-06
1.40708e-07
1.09867e-07
-1.35994e-07
3.98022e-06
1.2564e-07
-1.22692e-07
3.35526e-06
1.02125e-07
1.13468e-07
-4.25683e-08
-2.52196e-07
7.50915e-06
1.28795e-07
1.2956e-08
-1.94089e-07
7.37013e-06
8.28793e-08
-2.21551e-07
6.86712e-06
1.24074e-07
-1.9301e-07
6.12627e-06
1.3735e-07
-1.55848e-07
5.32711e-06
1.36932e-07
-1.35553e-07
4.54341e-06
-1.22737e-07
3.8093e-06
1.27641e-07
-1.56779e-07
-1.53707e-07
9.56668e-06
2.55215e-07
1.16697e-08
-1.32531e-07
9.46229e-06
1.48166e-07
-2.05739e-07
8.45537e-06
1.87215e-07
-1.65566e-07
7.16388e-06
1.83205e-07
-1.25438e-07
6.04114e-06
1.71991e-07
-1.15093e-07
5.07385e-06
-1.08887e-07
4.21789e-06
1.56067e-07
-3.92654e-07
4.2419e-08
1.19526e-05
4.94265e-07
-3.47665e-08
1.26251e-07
1.1565e-05
2.11708e-07
-2.90669e-08
1.01523e-05
2.36703e-07
-4.80708e-08
8.28166e-06
2.24317e-07
-6.56811e-08
6.6724e-06
2.03107e-07
-7.545e-08
5.50658e-06
-8.19684e-08
4.5446e-06
1.80863e-07
-4.73738e-07
3.56516e-07
1.30598e-05
5.54724e-07
-2.21442e-07
3.48338e-07
1.25384e-05
7.9419e-08
2.22635e-07
1.13271e-05
2.1229e-07
2.91657e-08
9.02074e-06
2.32237e-07
-1.98543e-08
7.05617e-06
2.15828e-07
-3.31338e-08
5.77202e-06
-5.01532e-08
4.74892e-06
1.93806e-07
-3.91016e-07
3.15641e-07
1.30499e-05
5.04302e-07
-1.3979e-07
3.3849e-07
1.30042e-05
1.14833e-07
2.6315e-07
1.14905e-05
2.408e-07
1.09373e-07
8.99729e-06
2.39955e-07
5.10727e-08
7.09139e-06
2.18605e-07
1.60928e-08
5.82067e-06
-1.54646e-08
4.80474e-06
1.95923e-07
-2.15022e-07
1.1146e-05
3.20226e-07
3.08962e-07
-2.91168e-08
1.1519e-05
3.23555e-07
1.51204e-07
1.01752e-05
2.97586e-07
2.10367e-07
8.2499e-06
1.90348e-07
2.11369e-07
6.7873e-06
1.03699e-07
1.97935e-07
5.66245e-06
5.36219e-08
4.71072e-06
1.82946e-07
1.08381e-08
-1.16069e-08
-2.59173e-07
6.196e-06
8.97556e-08
2.20595e-07
4.27235e-08
-2.30721e-07
6.06448e-06
2.18591e-07
9.85983e-08
-2.36249e-07
5.70587e-06
2.22039e-07
1.46622e-07
-2.28889e-07
5.18592e-06
2.20139e-07
1.83483e-07
-2.16993e-07
4.57879e-06
2.16156e-07
2.11063e-07
-2.12636e-07
3.94947e-06
2.15753e-07
-2.12776e-07
3.33424e-06
2.27135e-07
2.17764e-07
-1.42033e-08
-3.10192e-07
7.44467e-06
1.29686e-07
4.31991e-08
-2.24162e-07
7.30599e-06
1.15275e-07
-2.5849e-07
6.81733e-06
1.70112e-07
-2.42803e-07
6.08514e-06
2.03127e-07
-2.11082e-07
5.28791e-06
2.26234e-07
-1.98684e-07
4.50639e-06
-1.95599e-07
3.77805e-06
2.4061e-07
-7.72763e-08
-2.28407e-07
9.33367e-06
2.28587e-07
9.02559e-08
-1.94036e-07
9.26447e-06
1.92336e-07
-2.50211e-07
8.34488e-06
2.34304e-07
-2.31043e-07
7.11029e-06
2.42485e-07
-1.77646e-07
5.99932e-06
2.5103e-07
-1.65677e-07
5.03233e-06
-1.64497e-07
4.17946e-06
2.58275e-07
-1.82579e-07
-1.09306e-07
1.16525e-05
3.6346e-07
1.26934e-07
-6.59484e-08
1.11272e-05
2.64857e-07
-2.06908e-07
9.97126e-06
2.90557e-07
-1.6044e-07
8.18526e-06
2.77416e-07
-1.15434e-07
6.62337e-06
2.729e-07
-1.15355e-07
5.46058e-06
-1.21007e-07
4.5004e-06
2.73544e-07
-2.49663e-07
8.30345e-08
1.27186e-05
3.98614e-07
-3.76268e-08
8.08186e-08
1.21793e-05
2.07165e-07
3.41851e-08
1.08411e-05
2.6391e-07
-5.08178e-08
8.85434e-06
2.79542e-07
-6.95071e-08
6.99455e-06
2.7824e-07
-6.31189e-08
5.72117e-06
-7.28957e-08
4.70014e-06
2.7897e-07
-2.46317e-07
2.02295e-07
1.27023e-05
4.74215e-07
1.40085e-09
1.65392e-07
1.26709e-05
2.22392e-07
1.25139e-07
1.11783e-05
3.14307e-07
6.8513e-08
8.7858e-06
2.89725e-07
2.67875e-08
7.01967e-06
2.78135e-07
4.13016e-09
5.76509e-06
-1.9043e-08
4.75286e-06
2.76215e-07
-1.7834e-07
1.07991e-05
3.80213e-07
3.47043e-07
5.60443e-08
1.1056e-05
3.936e-07
2.24787e-07
9.83474e-06
2.96929e-07
2.59306e-07
8.10198e-06
1.81844e-07
2.51762e-07
6.72052e-06
1.01165e-07
2.51769e-07
5.60601e-06
6.04924e-08
4.6588e-06
2.58211e-07
2.64399e-08
-3.96456e-08
-1.44904e-07
1.3586e-07
1.6871e-07
6.0759e-06
2.43906e-08
-1.33334e-07
1.83512e-07
5.95008e-06
9.35069e-08
-1.69585e-07
2.12487e-07
5.59389e-06
1.64784e-07
-2.1074e-07
2.48394e-07
5.07697e-06
2.33196e-07
-2.46961e-07
2.8161e-07
4.4756e-06
2.9249e-07
-2.77208e-07
3.11244e-07
3.85627e-06
-2.98611e-07
3.40419e-07
3.31616e-07
3.25347e-06
-2.51446e-08
-1.48262e-07
1.32836e-07
7.34034e-06
2.11008e-08
-8.67583e-08
7.21339e-06
8.0825e-08
-1.37566e-07
6.72558e-06
1.53632e-07
-1.8322e-07
5.98471e-06
2.25465e-07
-2.13631e-07
5.18271e-06
2.90905e-07
-2.39749e-07
4.40359e-06
-2.60029e-07
3.47207e-07
3.68336e-06
4.85992e-09
-1.43491e-07
1.39636e-07
9.18453e-06
5.68149e-08
-5.19527e-08
9.17739e-06
1.00247e-07
-1.16277e-07
8.28027e-06
1.64492e-07
-1.66843e-07
7.02982e-06
2.27767e-07
-1.74303e-07
5.89659e-06
2.90847e-07
-1.92425e-07
4.92194e-06
-2.09456e-07
3.47695e-07
4.07198e-06
2.33119e-07
-3.22583e-07
1.261e-07
1.14724e-05
1.38783e-07
-3.16155e-07
1.14855e-05
1.28772e-07
-2.85499e-07
1.01507e-05
1.82714e-07
-1.60961e-07
8.12547e-06
2.3086e-07
-1.2462e-07
6.52553e-06
2.88005e-07
-1.33605e-07
5.34451e-06
-1.48619e-07
3.4445e-07
4.3831e-06
3.06971e-08
-2.26528e-07
1.47913e-07
1.24438e-05
1.03795e-07
-2.55607e-07
1.20454e-05
1.25138e-07
-2.89727e-07
1.0824e-05
1.51884e-07
-1.29257e-07
8.79602e-06
2.08593e-07
-8.32578e-08
6.89658e-06
2.70729e-07
-7.40833e-08
5.59965e-06
-8.39856e-08
3.3098e-07
4.57531e-06
-5.37512e-08
5.87204e-08
4.14459e-07
1.20563e-05
1.44324e-07
-1.21985e-07
1.23386e-05
1.27213e-07
-9.59963e-08
1.10016e-05
1.54409e-07
-3.27847e-08
8.66183e-06
1.905e-07
-8.50449e-09
6.90882e-06
2.50065e-07
-3.11816e-09
5.63467e-06
-1.45761e-08
3.11873e-07
4.62172e-06
-1.21273e-07
3.28641e-07
1.94945e-07
1.04553e-05
-1.0037e-08
1.97744e-07
1.06248e-05
4.21063e-08
1.01216e-07
9.58538e-06
7.96236e-08
6.15747e-08
7.97006e-06
1.40578e-07
6.01439e-08
6.59102e-06
2.11836e-07
6.58439e-08
5.46594e-06
2.77954e-07
5.68292e-08
4.52137e-06
4.33514e-08
-1.38797e-08
1.71732e-06
1.87186e-09
5.10329e-08
-1.58677e-08
1.72811e-06
9.95876e-10
5.40415e-08
-1.74744e-08
1.6575e-06
6.75386e-11
5.18491e-08
-1.90362e-08
1.52586e-06
-7.30241e-10
4.44782e-08
-2.06474e-08
1.34812e-06
-1.30593e-09
3.24002e-08
-2.24328e-08
1.13029e-06
-1.6263e-09
1.66966e-08
-2.44597e-08
8.5695e-07
-1.47453e-09
-2.59014e-08
4.25769e-07
-3.05399e-10
4.77854e-08
-2.23989e-08
2.43946e-06
5.71175e-08
-2.85117e-08
2.33232e-06
6.08527e-08
-3.38866e-08
2.15307e-06
5.87086e-08
-3.89861e-08
1.92001e-06
5.08385e-08
-4.37997e-08
1.64752e-06
3.76238e-08
-4.83009e-08
1.34066e-06
1.99454e-08
-5.22573e-08
9.79309e-07
-5.39724e-08
4.38653e-07
5.71366e-08
-2.55049e-08
3.04756e-06
6.71341e-08
-3.61642e-08
2.86409e-06
7.07128e-08
-4.60308e-08
2.6112e-06
6.76346e-08
-5.52047e-08
2.30954e-06
5.812e-08
-6.35723e-08
1.97373e-06
4.27225e-08
-7.1001e-08
1.60808e-06
2.25334e-08
-7.71012e-08
1.18877e-06
-7.94537e-08
5.72638e-07
6.72979e-08
-2.39882e-08
3.42688e-06
7.75309e-08
-3.86074e-08
3.22754e-06
8.06505e-08
-5.25698e-08
2.95909e-06
7.64953e-08
-6.54761e-08
2.64285e-06
6.52725e-08
-7.70734e-08
2.29353e-06
4.78006e-08
-8.70953e-08
1.91491e-06
2.52434e-08
-9.50689e-08
1.4808e-06
-9.80723e-08
8.35744e-07
7.1929e-08
-2.25573e-08
3.47933e-06
8.32173e-08
-3.87613e-08
3.33737e-06
8.65384e-08
-5.48584e-08
3.12304e-06
8.18827e-08
-6.98527e-08
2.85688e-06
6.96867e-08
-8.32997e-08
2.55319e-06
5.08504e-08
-9.4829e-08
2.21542e-06
2.66509e-08
-1.03904e-07
1.81669e-06
-1.07691e-07
1.19734e-06
7.10788e-08
-2.27345e-08
3.16664e-06
8.24874e-08
-3.86005e-08
3.15011e-06
8.60445e-08
-5.46907e-08
3.05439e-06
8.15624e-08
-6.974e-08
2.89799e-06
6.95267e-08
-8.32967e-08
2.69499e-06
5.08869e-08
-9.50274e-08
2.44912e-06
2.71383e-08
-1.04399e-07
2.13495e-06
-1.07457e-07
1.59822e-06
6.85323e-08
2.5197e-06
-2.40055e-08
7.83312e-08
2.67807e-06
-3.87449e-08
8.09954e-08
2.74206e-06
-5.27297e-08
7.6029e-08
2.73434e-06
-6.5839e-08
6.39041e-08
2.66965e-06
-7.79865e-08
4.5665e-08
2.55225e-06
-8.90172e-08
2.31372e-08
2.35968e-06
-9.87436e-08
1.95159e-06
-1.0618e-07
4.16311e-08
-1.77916e-08
1.71839e-06
4.72009e-09
5.05996e-08
-2.00082e-08
1.7354e-06
3.96711e-09
5.47875e-08
-2.14382e-08
1.67172e-06
3.23357e-09
5.38119e-08
-2.28645e-08
1.54707e-06
2.79321e-09
4.7921e-08
-2.43481e-08
1.37585e-06
2.63413e-09
3.78225e-08
-2.5988e-08
1.16372e-06
2.7498e-09
2.34916e-08
-2.77067e-08
8.95676e-07
3.42413e-09
-2.84049e-08
4.72442e-07
5.36813e-09
4.68476e-08
-2.81301e-08
2.43446e-06
5.73154e-08
-3.40961e-08
2.33617e-06
6.19265e-08
-3.88513e-08
2.16608e-06
6.05937e-08
-4.3347e-08
1.94195e-06
5.37593e-08
-4.75596e-08
1.67761e-06
4.2124e-08
-5.14282e-08
1.37776e-06
2.56623e-08
-5.45687e-08
1.02267e-06
-5.48312e-08
4.90795e-07
5.55507e-08
-3.33063e-08
3.03493e-06
6.69389e-08
-4.3412e-08
2.86217e-06
7.15602e-08
-5.22962e-08
2.62011e-06
6.94419e-08
-6.04237e-08
2.3288e-06
6.10037e-08
-6.77551e-08
2.00237e-06
4.71572e-08
-7.41382e-08
1.6447e-06
2.82167e-08
-7.90889e-08
1.23224e-06
-7.97284e-08
6.25819e-07
6.47577e-08
-3.35949e-08
3.40777e-06
7.64987e-08
-4.71165e-08
3.21962e-06
8.07608e-08
-5.98228e-08
2.96242e-06
7.769e-08
-7.12931e-08
2.65687e-06
6.77484e-08
-8.14484e-08
2.31721e-06
5.18488e-08
-9.00811e-08
1.9468e-06
3.07099e-08
-9.667e-08
1.51963e-06
-9.79681e-08
8.84761e-07
6.89542e-08
-3.24716e-08
3.45738e-06
8.12875e-08
-4.72828e-08
3.32538e-06
8.54701e-08
-6.20329e-08
3.1212e-06
8.17548e-08
-7.53874e-08
2.86474e-06
7.08774e-08
-8.71539e-08
2.56988e-06
5.36971e-08
-9.71009e-08
2.23967e-06
3.11744e-08
-1.04665e-07
1.84736e-06
-1.06808e-07
1.23735e-06
6.75778e-08
-3.19786e-08
3.14634e-06
7.96754e-08
-4.62891e-08
3.13711e-06
8.37117e-08
-6.07897e-08
3.0492e-06
7.98873e-08
-7.39874e-08
2.90046e-06
6.89356e-08
-8.57074e-08
2.70454e-06
5.18784e-08
-9.57497e-08
2.46483e-06
2.99657e-08
-1.03597e-07
2.15592e-06
-1.05113e-07
1.6265e-06
6.44461e-08
2.50478e-06
-3.09292e-08
7.40542e-08
2.66688e-06
-4.47362e-08
7.682e-08
2.73573e-06
-5.7173e-08
7.2414e-08
2.7332e-06
-6.83548e-08
6.13885e-08
2.67355e-06
-7.85097e-08
4.48003e-08
2.56076e-06
-8.76108e-08
2.39684e-08
2.37246e-06
-9.54095e-08
1.97118e-06
-1.00547e-07
8.23247e-08
-2.63565e-08
1.72821e-06
3.59919e-09
8.92861e-08
-2.75239e-08
1.75258e-06
3.51556e-09
8.92062e-08
-2.85793e-08
1.69715e-06
3.30283e-09
8.15034e-08
-2.98226e-08
1.58136e-06
3.2294e-09
6.64018e-08
-3.13752e-08
1.41903e-06
3.26604e-09
4.51218e-08
-3.32996e-08
1.21491e-06
3.35837e-09
2.12389e-08
-3.55308e-08
9.51348e-07
3.77513e-09
-3.70381e-08
5.26452e-07
4.39696e-09
9.51388e-08
-4.49441e-08
2.4399e-06
1.01453e-07
-4.83914e-08
2.3507e-06
1.00638e-07
-5.21069e-08
2.19042e-06
9.20925e-08
-5.59594e-08
1.97659e-06
7.59277e-08
-6.00076e-08
1.72238e-06
5.31179e-08
-6.41981e-08
1.43149e-06
2.70326e-08
-6.83177e-08
1.08156e-06
-7.08065e-08
5.51629e-07
1.11422e-07
-5.66255e-08
3.03409e-06
1.16894e-07
-6.31558e-08
2.87148e-06
1.14667e-07
-6.98733e-08
2.64013e-06
1.04168e-07
-7.65793e-08
2.35984e-06
8.54498e-08
-8.31307e-08
2.04409e-06
5.95292e-08
-8.93399e-08
1.69576e-06
2.96763e-08
-9.48723e-08
1.28876e-06
-9.76e-08
6.82387e-07
1.26314e-07
-6.11893e-08
3.40103e-06
1.30158e-07
-7.04524e-08
3.2231e-06
1.26e-07
-7.97233e-08
2.97645e-06
1.13357e-07
-8.87621e-08
2.68165e-06
9.22425e-08
-9.72655e-08
2.35237e-06
6.34827e-08
-1.04911e-07
1.99107e-06
3.01603e-08
-1.11147e-07
1.56942e-06
-1.13044e-07
9.30439e-07
1.33746e-07
-6.19021e-08
3.44731e-06
1.36234e-07
-7.18498e-08
3.32433e-06
1.30479e-07
-8.21547e-08
3.12941e-06
1.16328e-07
-9.22205e-08
2.88236e-06
9.3901e-08
-1.01576e-07
2.59663e-06
6.39254e-08
-1.09801e-07
2.27454e-06
2.89812e-08
-1.16166e-07
1.88739e-06
-1.17366e-07
1.27066e-06
1.32985e-07
-6.10363e-08
3.13663e-06
1.33857e-07
-6.97626e-08
3.13412e-06
1.2691e-07
-7.9338e-08
3.05324e-06
1.12122e-07
-8.8751e-08
2.91177e-06
8.96772e-08
-9.75921e-08
2.72302e-06
6.0446e-08
-1.05471e-07
2.48973e-06
2.70121e-08
-1.11655e-07
2.18493e-06
-1.11827e-07
1.64805e-06
1.25335e-07
2.49841e-06
-5.97687e-08
1.24958e-07
2.66433e-06
-6.69208e-08
1.17407e-07
2.73767e-06
-7.37963e-08
1.02488e-07
2.74005e-06
-8.0654e-08
8.0545e-08
2.68536e-06
-8.74569e-08
5.27166e-08
2.57707e-06
-9.3957e-08
2.1792e-08
2.39153e-06
-9.96215e-08
1.98363e-06
-1.02413e-07
1.18207e-07
-3.52599e-08
1.74061e-06
6.62362e-09
1.24858e-07
-3.45207e-08
1.77244e-06
7.97741e-09
1.21631e-07
-3.51058e-08
1.72614e-06
9.31269e-09
1.08715e-07
-3.6164e-08
1.61958e-06
1.08416e-08
8.7366e-08
-3.7557e-08
1.46529e-06
1.26435e-08
5.93748e-08
-3.90397e-08
1.2672e-06
1.48166e-08
2.29905e-08
-4.01488e-08
1.00974e-06
1.82616e-08
-3.91412e-08
5.65251e-07
2.3468e-08
1.40798e-07
-6.07232e-08
2.45221e-06
1.44924e-07
-6.03958e-08
2.37235e-06
1.39195e-07
-6.21897e-08
2.22317e-06
1.22978e-07
-6.42715e-08
2.02094e-06
9.68324e-08
-6.6358e-08
1.77742e-06
6.22452e-08
-6.7918e-08
1.49507e-06
1.90448e-08
-6.79332e-08
1.15262e-06
-6.24424e-08
5.94047e-07
1.65285e-07
-7.87851e-08
3.04291e-06
1.67079e-07
-8.06532e-08
2.88994e-06
1.5915e-07
-8.40999e-08
2.67003e-06
1.40475e-07
-8.78039e-08
2.402e-06
1.11441e-07
-9.12058e-08
2.09797e-06
7.3421e-08
-9.36664e-08
1.75954e-06
2.64225e-08
-9.38769e-08
1.36193e-06
-8.6284e-08
7.32699e-07
1.85919e-07
-8.75676e-08
3.40473e-06
1.84979e-07
-9.1926e-08
3.23538e-06
1.75281e-07
-9.67866e-08
2.99895e-06
1.55761e-07
-1.01977e-07
2.71532e-06
1.26672e-07
-1.06803e-07
2.39706e-06
8.91437e-08
-1.10637e-07
2.04562e-06
4.18709e-08
-1.12169e-07
1.63526e-06
-1.05574e-07
9.91527e-07
1.96394e-07
-8.91754e-08
3.44633e-06
1.93112e-07
-9.42627e-08
3.32999e-06
1.82183e-07
-9.94405e-08
3.14301e-06
1.63085e-07
-1.0527e-07
2.90482e-06
1.35815e-07
-1.10988e-07
2.62809e-06
1.01197e-07
-1.15963e-07
2.31454e-06
5.61905e-08
-1.19056e-07
1.93918e-06
-1.15328e-07
1.33665e-06
1.96126e-07
-8.55454e-08
3.13286e-06
1.90478e-07
-8.91268e-08
3.13459e-06
1.7873e-07
-9.35008e-08
3.05897e-06
1.60529e-07
-9.87571e-08
2.92353e-06
1.35769e-07
-1.0429e-07
2.7411e-06
1.04794e-07
-1.09548e-07
2.51426e-06
6.39781e-08
-1.13554e-07
2.22013e-06
-1.12213e-07
1.70908e-06
1.83299e-07
2.49391e-06
-8.14064e-08
1.78325e-07
2.66159e-06
-8.13953e-08
1.67286e-07
2.73767e-06
-8.25078e-08
1.5029e-07
2.74335e-06
-8.50775e-08
1.27572e-07
2.6923e-06
-8.85849e-08
9.94924e-08
2.58807e-06
-9.2508e-08
6.27489e-08
2.41078e-06
-9.60076e-08
2.03004e-06
-9.58581e-08
2.83306e-07
-5.5271e-08
1.74212e-06
-2.41927e-09
3.29474e-07
-5.62709e-08
1.78408e-06
-1.68266e-09
3.62135e-07
-5.81993e-08
1.75269e-06
-1.10044e-09
3.7527e-07
-6.02932e-08
1.66735e-06
-6.44934e-10
3.63658e-07
-6.26929e-08
1.54008e-06
-4.31805e-10
3.23932e-07
-6.54611e-08
1.37332e-06
-7.5336e-10
2.4613e-07
-6.85488e-08
1.1581e-06
-1.89773e-09
-6.98363e-08
8.86916e-07
-5.77974e-09
2.95073e-07
-9.74847e-08
2.4401e-06
3.42584e-07
-1.0089e-07
2.36938e-06
3.78525e-07
-1.05679e-07
2.23462e-06
3.96851e-07
-1.10759e-07
2.05314e-06
3.91881e-07
-1.16356e-07
1.83617e-06
3.59197e-07
-1.22722e-07
1.5851e-06
2.83673e-07
-1.30292e-07
1.28993e-06
-1.36936e-07
9.44818e-07
3.07307e-07
-1.21888e-07
3.01821e-06
3.51603e-07
-1.27051e-07
2.8718e-06
3.85658e-07
-1.33473e-07
2.66386e-06
4.03468e-07
-1.40302e-07
2.41387e-06
3.99393e-07
-1.47608e-07
2.13347e-06
3.68597e-07
-1.55806e-07
1.82337e-06
2.94979e-07
-1.65655e-07
1.471e-06
-1.76398e-07
1.06713e-06
3.13995e-07
-1.29148e-07
3.37159e-06
3.51304e-07
-1.35038e-07
3.20616e-06
3.79394e-07
-1.41483e-07
2.97901e-06
3.92289e-07
-1.48553e-07
2.71072e-06
3.84389e-07
-1.56094e-07
2.41351e-06
3.51132e-07
-1.64521e-07
2.08772e-06
2.78903e-07
-1.74637e-07
1.71656e-06
-1.8661e-07
1.28051e-06
3.10581e-07
-1.24881e-07
3.4105e-06
3.39177e-07
-1.29725e-07
3.29616e-06
3.59236e-07
-1.3479e-07
3.11631e-06
3.65064e-07
-1.40904e-07
2.89139e-06
3.5076e-07
-1.47662e-07
2.63386e-06
3.12096e-07
-1.55215e-07
2.34397e-06
2.40604e-07
-1.64156e-07
2.00009e-06
-1.74494e-07
1.56522e-06
2.97914e-07
-1.14483e-07
3.10083e-06
3.16323e-07
-1.1709e-07
3.10357e-06
3.27326e-07
-1.20418e-07
3.03358e-06
3.2504e-07
-1.25002e-07
2.90989e-06
3.03608e-07
-1.30412e-07
2.74522e-06
2.59093e-07
-1.36618e-07
2.54022e-06
1.89474e-07
-1.43985e-07
2.26957e-06
-1.51551e-07
1.87569e-06
2.74429e-07
2.47103e-06
-1.07781e-07
2.85897e-07
2.63904e-06
-1.05966e-07
2.89355e-07
2.71924e-06
-1.05529e-07
2.79689e-07
2.73474e-06
-1.06879e-07
2.51772e-07
2.69931e-06
-1.09587e-07
2.02556e-07
2.61436e-06
-1.1358e-07
1.35503e-07
2.45296e-06
-1.19056e-07
2.13793e-06
-1.2392e-07
4.63359e-07
-7.08259e-08
-6.50269e-10
1.69071e-06
5.81232e-07
-7.38738e-08
2.76548e-09
1.73718e-06
6.81873e-07
-7.82803e-08
7.15673e-09
1.72305e-06
7.50997e-07
-8.31721e-08
1.28978e-08
1.66843e-06
7.66988e-07
-8.7909e-08
2.03048e-08
1.59176e-06
6.93991e-07
-9.22641e-08
2.99075e-08
1.50875e-06
4.71567e-07
-9.5165e-08
4.30008e-08
1.43261e-06
-9.1554e-08
6.22795e-08
1.38752e-06
4.73367e-07
-1.27145e-07
2.37036e-06
5.95488e-07
-1.32137e-07
2.30549e-06
7.00769e-07
-1.36783e-07
2.18781e-06
7.74175e-07
-1.40303e-07
2.0369e-06
7.92377e-07
-1.41768e-07
1.87187e-06
7.164e-07
-1.40378e-07
1.70913e-06
4.8691e-07
-1.34443e-07
1.55857e-06
-1.15466e-07
1.45557e-06
4.66225e-07
-1.57924e-07
2.93042e-06
5.83041e-07
-1.63977e-07
2.78684e-06
6.86071e-07
-1.67592e-07
2.59167e-06
7.60694e-07
-1.67927e-07
2.36704e-06
7.8361e-07
-1.64219e-07
2.13319e-06
7.14165e-07
-1.55393e-07
1.90783e-06
4.90249e-07
-1.38799e-07
1.69916e-06
-1.03982e-07
1.54591e-06
4.50547e-07
-1.63037e-07
3.27063e-06
5.57148e-07
-1.68439e-07
3.10405e-06
6.53128e-07
-1.69611e-07
2.88514e-06
7.25004e-07
-1.66053e-07
2.6371e-06
7.51142e-07
-1.57335e-07
2.38062e-06
6.91535e-07
-1.42467e-07
2.13455e-06
4.78042e-07
-1.18567e-07
1.90967e-06
-7.65103e-08
1.73115e-06
4.23367e-07
-1.49412e-07
3.3045e-06
5.1784e-07
-1.52333e-07
3.18563e-06
6.04324e-07
-1.50337e-07
3.01063e-06
6.71043e-07
-1.43535e-07
2.80223e-06
6.99123e-07
-1.31914e-07
2.58042e-06
6.5124e-07
-1.14894e-07
2.36437e-06
4.53055e-07
-9.03328e-08
2.1701e-06
-5.20513e-08
1.99392e-06
3.89556e-07
-1.25325e-07
2.99908e-06
4.70907e-07
-1.24482e-07
2.99446e-06
5.46966e-07
-1.19092e-07
2.92642e-06
6.07559e-07
-1.09684e-07
2.81549e-06
6.3675e-07
-9.66377e-08
2.68084e-06
6.01541e-07
-7.98807e-08
2.5406e-06
4.26266e-07
-5.85281e-08
2.41327e-06
-2.88679e-08
2.27861e-06
3.41199e-07
-9.97413e-08
2.38224e-06
4.09843e-07
-9.25807e-08
2.53855e-06
4.7702e-07
-8.33933e-08
2.61643e-06
5.34858e-07
-7.18501e-08
2.63903e-06
5.69613e-07
-5.73793e-08
2.62536e-06
5.51709e-07
-3.93748e-08
2.59196e-06
4.0631e-07
-1.62769e-08
2.55609e-06
1.72956e-08
2.49799e-06
7.22103e-08
2.63329e-08
6.03644e-06
-4.08324e-08
7.45538e-08
1.45183e-08
6.46769e-06
-2.81209e-08
8.68891e-08
-5.77051e-09
6.83489e-06
-1.1906e-08
9.59558e-08
-2.11447e-08
7.11457e-06
4.31254e-09
9.09091e-08
-2.60573e-08
7.31321e-06
1.69656e-08
7.07178e-08
-3.05149e-08
7.42537e-06
2.79872e-08
3.82994e-08
-3.8e-08
7.39105e-06
3.87819e-08
-5.01964e-08
6.88084e-06
5.01016e-08
2.97527e-07
2.57931e-08
8.46435e-06
2.55511e-07
1.26014e-08
8.5862e-06
2.43965e-07
-8.31649e-09
8.61536e-06
2.30141e-07
-1.81676e-08
8.68836e-06
2.03411e-07
-1.48093e-08
8.71614e-06
1.57151e-07
-9.14449e-09
8.68341e-06
8.93674e-08
-5.26467e-09
8.51504e-06
-4.09853e-09
7.82958e-06
2.64239e-07
-1.83095e-08
9.82169e-06
2.52992e-07
-3.78085e-08
9.72215e-06
2.59104e-07
-3.04415e-08
9.51935e-06
2.50782e-07
-1.69065e-08
9.4443e-06
2.23512e-07
2.18453e-09
9.34977e-06
1.73794e-07
2.04339e-08
9.21284e-06
9.92177e-08
3.81825e-08
8.94992e-06
5.45886e-08
8.15117e-06
2.61108e-07
-7.68158e-08
9.57886e-06
2.53305e-07
-5.08511e-08
9.33493e-06
2.50386e-07
-2.49492e-08
9.19647e-06
2.37651e-07
3.89986e-10
9.12119e-06
2.09862e-07
2.75483e-08
9.01492e-06
1.61935e-07
5.4453e-08
8.86193e-06
9.23644e-08
8.17694e-08
8.58421e-06
1.10631e-07
7.78503e-06
1.29769e-07
-7.99354e-08
7.67103e-06
1.40924e-07
-4.50675e-08
7.78261e-06
1.47567e-07
-1.25089e-08
7.87734e-06
1.4329e-07
1.82066e-08
7.90222e-06
1.26459e-07
4.75855e-08
7.86831e-06
9.58414e-08
7.61347e-08
7.77007e-06
5.25158e-08
1.04434e-07
7.54382e-06
1.32587e-07
6.8406e-06
8.70033e-08
-4.14868e-08
5.59594e-06
8.40089e-08
-1.72296e-08
5.9174e-06
8.11622e-08
1.05859e-08
6.12896e-06
7.47524e-08
3.68902e-08
6.25029e-06
6.23586e-08
6.22561e-08
6.29898e-06
4.41431e-08
8.63836e-08
6.27379e-06
2.19976e-08
1.09378e-07
6.1256e-06
1.29674e-07
5.56993e-06
5.55542e-08
3.74085e-06
-1.21513e-08
4.78256e-08
4.11094e-06
7.65294e-09
4.17574e-08
4.37845e-06
2.89669e-08
3.5367e-08
4.55924e-06
4.89867e-08
2.79248e-08
4.66654e-06
6.81218e-08
1.92964e-08
4.70038e-06
8.63563e-08
1.00387e-08
4.62374e-06
1.03861e-07
4.2167e-06
1.20168e-07
4.16261e-08
5.58351e-08
6.07779e-06
-6.39341e-08
6.52912e-08
9.79213e-09
6.46383e-06
-2.95642e-08
9.20397e-08
-5.85282e-09
6.82397e-06
-9.74267e-09
1.02531e-07
-8.31322e-09
7.10825e-06
4.23115e-09
9.47712e-08
-9.67834e-09
7.31616e-06
1.47289e-08
7.21985e-08
-1.59013e-08
7.43947e-06
2.4532e-08
3.89675e-08
-2.62251e-08
7.4159e-06
3.48251e-08
-4.14777e-08
6.91537e-06
4.61461e-08
1.45298e-07
-3.50856e-08
8.67162e-06
1.28722e-07
-3.0849e-08
8.6436e-06
1.58787e-07
-2.53753e-08
8.60504e-06
1.75129e-07
-1.08796e-08
8.67499e-06
1.6876e-07
1.1944e-09
8.71202e-06
1.36951e-07
6.51769e-09
8.69298e-06
8.07211e-08
7.2123e-09
8.53821e-06
3.83767e-09
7.86524e-06
7.18159e-08
-2.04087e-07
1.01422e-05
6.16249e-08
-1.16331e-07
9.81782e-06
1.11566e-07
-6.01332e-08
9.50444e-06
1.47319e-07
-2.11186e-08
9.41911e-06
1.57164e-07
7.02111e-09
9.33434e-06
1.35926e-07
2.747e-08
9.2134e-06
8.37183e-08
4.35749e-08
8.96626e-06
5.70964e-08
8.18184e-06
1.00199e-07
-2.15289e-07
9.69008e-06
8.37699e-08
-1.18048e-07
9.35341e-06
1.16697e-07
-5.31399e-08
9.15689e-06
1.42067e-07
-9.33943e-09
9.08428e-06
1.4667e-07
2.51028e-08
8.99251e-06
1.25292e-07
5.41508e-08
8.85709e-06
7.69179e-08
8.10829e-08
8.5955e-06
1.08335e-07
7.81084e-06
3.29686e-08
-1.49663e-07
7.64849e-06
4.12501e-08
-7.69344e-08
7.73344e-06
6.39748e-08
-2.6973e-08
7.82855e-06
7.97869e-08
1.14758e-08
7.86581e-06
8.17761e-08
4.3834e-08
7.84786e-06
6.80552e-08
7.29205e-08
7.76542e-06
3.99415e-08
1.00428e-07
7.55284e-06
1.26919e-07
6.86202e-06
3.68627e-08
-6.59343e-08
5.54685e-06
3.22786e-08
-2.61507e-08
5.8713e-06
3.51547e-08
6.64574e-09
6.09258e-06
3.66201e-08
3.45111e-08
6.22599e-06
3.3247e-08
5.95827e-08
6.28687e-06
2.47808e-08
8.25535e-08
6.2729e-06
1.28446e-08
1.03902e-07
6.13419e-06
1.22191e-07
5.58752e-06
2.43343e-08
3.7113e-06
-1.72887e-08
1.63684e-08
4.08542e-06
7.44719e-09
1.29968e-08
4.35954e-06
2.9136e-08
1.10816e-08
4.54771e-06
4.8107e-08
9.25684e-09
4.66238e-06
6.57813e-08
7.03107e-09
4.70298e-06
8.2384e-08
4.57051e-09
4.63208e-06
9.81649e-08
4.23089e-06
1.12558e-07
1.99901e-07
-2.63482e-09
6.08628e-06
-2.03405e-08
2.27602e-07
-1.72129e-08
6.45335e-06
5.98632e-11
2.35336e-07
-1.10793e-08
6.82156e-06
5.71716e-09
2.17953e-07
-2.72088e-09
7.11898e-06
9.45676e-09
1.8182e-07
-3.94342e-09
7.34178e-06
1.46385e-08
1.31307e-07
-1.23429e-08
7.48029e-06
2.20814e-08
6.94288e-08
-2.4181e-08
7.47118e-06
3.10302e-08
-4.08173e-08
6.98409e-06
4.16816e-08
3.20737e-07
-8.87694e-08
8.83868e-06
3.35463e-07
-3.61359e-08
8.64801e-06
3.44476e-07
-9.01518e-09
8.59397e-06
3.29212e-07
9.43222e-09
8.67833e-06
2.87262e-07
1.57239e-08
8.73455e-06
2.18532e-07
1.42863e-08
8.73528e-06
1.23257e-07
1.04898e-08
8.59905e-06
4.21274e-09
7.94349e-06
2.68844e-07
-1.48013e-07
1.03434e-05
2.91049e-07
-6.76679e-08
9.82723e-06
3.19865e-07
-1.40819e-08
9.48085e-06
3.24079e-07
1.34624e-08
9.41099e-06
2.95191e-07
3.02661e-08
9.3489e-06
2.313e-07
4.11926e-08
9.25067e-06
1.331e-07
5.08059e-08
9.02431e-06