/*--------------------------------*- C++ -*----------------------------------*\
| =========                 |                                                 |
| \\      /  F ield         | OpenFOAM: The Open Source CFD Toolbox           |
|  \\    /   O peration     | Version:  plus.master.MPPICInterFoam            |
|   \\  /    A nd           | Web:      www.OpenFOAM.com                      |
|    \\/     M anipulation  |                                                 |
\*---------------------------------------------------------------------------*/
FoamFile
{
    version     2.0;
    format      ascii;
    class       volVectorField;
    location    "13.2";
    object      U;
}
// * * * * * * * * * * * * * * * * * * * * * * * * * * * * * * * * * * * * * //

dimensions      [0 1 -1 0 0 0 0];

internalField   nonuniform List<vector> 
11822
(
(-0.00191816 -0.000211414 0.474481)
(-0.00174538 0.000218404 0.466143)
(-0.00141768 0.000194056 0.438663)
(-0.000901405 -7.64591e-05 0.397635)
(-0.000248738 -0.000476165 0.349211)
(0.000366414 -0.000790222 0.298727)
(0.000790248 -0.000998938 0.249077)
(-0.00277857 0.00101235 0.575706)
(-0.00266472 0.00147005 0.567926)
(-0.00242227 0.00128168 0.529343)
(-0.00171988 0.000568319 0.47043)
(-0.000736061 -0.000133235 0.406568)
(0.000173348 -0.000637028 0.343956)
(0.000791391 -0.000977077 0.285459)
(-0.00324642 0.00165701 0.730712)
(-0.00328734 0.00330178 0.736923)
(-0.00308032 0.00246932 0.658397)
(-0.00188758 0.00111565 0.554623)
(-0.000750875 0.000275752 0.464307)
(0.000278772 -0.000339537 0.386675)
(0.00097643 -0.000764492 0.318294)
(-0.00581633 0.000314216 0.913927)
(-0.00316272 0.00278113 0.934725)
(-0.00180095 0.00340189 0.81477)
(-0.000824908 0.00182295 0.645581)
(-0.000351688 0.00100331 0.515432)
(0.000569688 0.000265176 0.421543)
(0.00123208 -0.000318091 0.344565)
(-0.00113451 0.000298578 0.946255)
(-0.00147006 4.67716e-05 0.981448)
(-0.0059232 0.00152898 0.879654)
(-0.00181071 0.00172646 0.703925)
(-0.000958061 0.00143053 0.54657)
(0.000362384 0.000873774 0.442908)
(0.00123363 0.000180767 0.360943)
(-0.00404044 0.00136176 0.931961)
(-0.000187276 0.000139489 0.98665)
(-0.00215187 0.000111144 0.881918)
(-0.00167354 0.00137668 0.695059)
(-0.00100442 0.00165143 0.548421)
(0.000208672 0.00131998 0.446326)
(0.0011614 0.000573865 0.365218)
(-0.00149426 0.00125325 0.811154)
(-0.00249055 0.000680528 0.8407)
(-0.0046959 0.000857145 0.768157)
(-0.00375513 0.00126225 0.635836)
(-0.00209792 0.0016454 0.522571)
(-0.000337066 0.00145383 0.433035)
(0.00104317 0.000639786 0.357399)
(-0.00151298 0.00126132 0.470383)
(-0.00172879 0.00151191 0.46164)
(-0.00157065 0.00108553 0.434153)
(-0.00107556 0.000368235 0.393607)
(-0.000357634 -0.000328665 0.34608)
(0.000294949 -0.000798982 0.296708)
(0.000722664 -0.00108995 0.248202)
(-0.00257971 0.00378635 0.571824)
(-0.00325804 0.00357097 0.563183)
(-0.00318153 0.00275729 0.524016)
(-0.00237013 0.00134895 0.465154)
(-0.00109825 0.000126486 0.402129)
(1.34622e-06 -0.000638397 0.340789)
(0.000703973 -0.00109194 0.283671)
(-0.00373562 0.00685621 0.730775)
(-0.00565455 0.00603114 0.734264)
(-0.00495723 0.00447154 0.654143)
(-0.00334519 0.0020927 0.549098)
(-0.00159448 0.00058373 0.458929)
(-9.03608e-05 -0.000383115 0.382528)
(0.000823554 -0.000943505 0.3157)
(-0.00772926 0.0117919 0.919161)
(-0.00824256 0.00773457 0.937234)
(-0.0053853 0.00658679 0.815675)
(-0.00354701 0.00285947 0.641387)
(-0.00168601 0.00111627 0.50976)
(-8.3039e-06 7.38947e-05 0.416766)
(0.00100817 -0.000607047 0.341391)
(-0.00849603 0.00722942 0.959677)
(-0.0108193 0.00584414 1.01647)
(-0.00665141 0.00345049 0.88963)
(-0.00503239 0.00258649 0.702246)
(-0.00232326 0.00139532 0.541064)
(-0.000207465 0.000549419 0.437907)
(0.00101961 -0.000202992 0.357495)
(-0.00894617 0.00108478 0.931495)
(-0.00930029 0.00270813 0.99577)
(-0.00731621 0.000266502 0.886401)
(-0.00503162 0.00130368 0.693782)
(-0.00272287 0.00128975 0.543349)
(-0.000460719 0.000827274 0.441494)
(0.000938972 9.87439e-05 0.361819)
(-0.00339597 -0.00270766 0.818089)
(-0.00633704 -0.000282785 0.851536)
(-0.00802085 -0.00121645 0.770871)
(-0.00615483 -0.000188997 0.633699)
(-0.00329116 0.000749135 0.517818)
(-0.00076293 0.000778286 0.428617)
(0.000907062 9.6121e-05 0.354322)
(-0.0013258 -0.00202987 0.465921)
(-0.000759315 -0.00181104 0.456861)
(-0.000105256 -0.00203124 0.429673)
(0.000698108 -0.00212802 0.389904)
(0.00135305 -0.00220164 0.343433)
(0.00177528 -0.00222479 0.295142)
(0.00197659 -0.00221238 0.247581)
(-0.00264197 -0.000853483 0.565724)
(-0.002145 -0.000625947 0.556363)
(-0.00116745 -0.00135423 0.517192)
(0.000219286 -0.00176589 0.459329)
(0.00132295 -0.00205836 0.397894)
(0.00198807 -0.00221932 0.338119)
(0.00229354 -0.0022793 0.282287)
(-0.00514683 0.00111691 0.731913)
(-0.00477607 0.00139881 0.728727)
(-0.00212148 -0.000739735 0.646616)
(0.0003437 -0.00119297 0.541275)
(0.00166563 -0.00159598 0.453008)
(0.00244155 -0.00194563 0.378748)
(0.00275135 -0.00211416 0.313576)
(-0.0116092 0.00609208 0.924089)
(-0.00930998 0.00525417 0.923411)
(-0.00262798 0.00255643 0.804518)
(0.000931351 0.000603857 0.632712)
(0.00214641 -0.000571863 0.502474)
(0.00294411 -0.00124689 0.412097)
(0.00321288 -0.00164254 0.338674)
(-0.0152947 0.00943728 1.0216)
(-0.0132309 0.00968578 0.989192)
(-0.00469262 0.00450585 0.891157)
(-0.00132524 0.00181199 0.693251)
(0.00169207 0.000350292 0.532926)
(0.00296958 -0.000413385 0.4327)
(0.00340315 -0.00101995 0.354445)
(-0.0139797 0.00704528 0.979145)
(-0.0109239 0.00910785 0.995907)
(-0.0040298 0.0042031 0.887547)
(-0.000465013 0.00176072 0.690363)
(0.00159526 0.000952228 0.535792)
(0.00288691 0.000326057 0.436442)
(0.00340251 -0.000421264 0.358792)
(-0.00641636 0.0023161 0.838706)
(-0.00617983 0.00511302 0.87438)
(-0.00374574 0.00302015 0.779303)
(-0.00118542 0.00178248 0.628554)
(0.00107711 0.00142216 0.511257)
(0.00248109 0.000896921 0.424131)
(0.00320205 3.18519e-05 0.351622)
(-0.00130532 -0.00580181 0.464496)
(0.000257807 -0.00545298 0.454981)
(0.00136408 -0.00528191 0.428116)
(0.00236048 -0.00470925 0.389129)
(0.00289437 -0.00411562 0.343589)
(0.00306262 -0.00367924 0.29624)
(0.0030173 -0.00332988 0.249646)
(-0.00256093 -0.00680031 0.561098)
(-0.000376897 -0.00594664 0.550788)
(0.00139329 -0.0060183 0.512429)
(0.0030493 -0.00528729 0.456479)
(0.00373922 -0.00439731 0.396719)
(0.00384612 -0.00384871 0.338266)
(0.00372831 -0.00346073 0.283543)
(-0.00623625 -0.00617553 0.721595)
(-0.00207733 -0.0056074 0.71454)
(0.00261477 -0.00656157 0.634768)
(0.00496375 -0.00522007 0.534929)
(0.00529319 -0.00408022 0.450133)
(0.00495712 -0.00358553 0.377901)
(0.00456367 -0.00328395 0.314102)
(-0.013126 -0.00221686 0.903247)
(-0.00620209 3.68084e-05 0.891739)
(0.00315371 -0.00356082 0.770716)
(0.00697258 -0.00318526 0.621137)
(0.00664177 -0.00271786 0.497705)
(0.00595422 -0.00268513 0.410308)
(0.00530481 -0.00268434 0.338582)
(-0.0149827 0.00610352 0.982874)
(-0.00992232 0.00698577 0.9516)
(-0.00223648 0.00313752 0.875568)
(0.00540415 -0.000166322 0.680354)
(0.00667387 -0.00119707 0.527071)
(0.00626856 -0.00152373 0.430304)
(0.00566433 -0.00184696 0.353949)
(-0.0137113 0.0102174 0.975137)
(-0.00785647 0.0100923 0.978427)
(0.000513264 0.00700837 0.869786)
(0.00546616 0.00205443 0.679116)
(0.00696064 0.000419279 0.53014)
(0.00643021 -0.000228468 0.434089)
(0.00574677 -0.000894674 0.358229)
(-0.00829872 0.00877461 0.835091)
(-0.00366346 0.00939545 0.865932)
(0.00228805 0.00804304 0.767369)
(0.0051967 0.0042869 0.620002)
(0.00609253 0.0022938 0.506955)
(0.00571701 0.00113662 0.422298)
(0.00528988 0.000112377 0.351305)
(-0.00149251 -0.00662703 0.462459)
(0.000532887 -0.00624224 0.452812)
(0.00195406 -0.00632446 0.426212)
(0.00343154 -0.00618642 0.387488)
(0.00460951 -0.00600241 0.342114)
(0.00549344 -0.00595666 0.294844)
(0.00614641 -0.00600318 0.248241)
(-0.00196512 -0.00795936 0.555358)
(0.000570184 -0.00655955 0.544952)
(0.00226033 -0.00688263 0.508592)
(0.00404007 -0.00658076 0.454322)
(0.00521516 -0.00598435 0.395084)
(0.00596185 -0.00576094 0.336773)
(0.00651036 -0.00571243 0.28206)
(-0.00438088 -0.0072932 0.700289)
(0.000323296 -0.00578467 0.69257)
(0.00420674 -0.00710714 0.622507)
(0.00609603 -0.00664522 0.530363)
(0.00665464 -0.00548356 0.448025)
(0.00679724 -0.00512451 0.376184)
(0.00705284 -0.00504489 0.312428)
(-0.00788319 -0.00559738 0.874437)
(-0.000396342 -0.00367107 0.829985)
(0.00596426 -0.00685257 0.740421)
(0.00800317 -0.00568639 0.610492)
(0.00795031 -0.00416717 0.494433)
(0.00755719 -0.00392897 0.408223)
(0.00752619 -0.00398246 0.336638)
(-0.00919771 -0.000556665 0.958407)
(-0.00339703 -0.000251277 0.913169)
(0.00200202 -0.00245896 0.810549)
(0.00717402 -0.00302909 0.661434)
(0.00791964 -0.00263194 0.522105)
(0.00767364 -0.00251492 0.42774)
(0.00767073 -0.00270415 0.351705)
(-0.0107856 0.00449335 0.963465)
(-0.00330749 0.00361794 0.955967)
(0.00414049 0.00249999 0.839708)
(0.00747735 0.000190936 0.658741)
(0.0085349 -0.000627887 0.524378)
(0.00782128 -0.000825477 0.431197)
(0.00764127 -0.00125818 0.355725)
(-0.00857252 0.00803501 0.821002)
(-0.00149773 0.00810935 0.846541)
(0.00449218 0.00603816 0.745021)
(0.00681624 0.00359323 0.606703)
(0.00720733 0.00191511 0.502256)
(0.00689758 0.00104722 0.419405)
(0.00705324 0.000267439 0.348626)
(-0.00232709 -0.00419937 0.460457)
(-0.000126584 -0.00431482 0.450488)
(0.00158344 -0.00520235 0.423773)
(0.00353328 -0.00626357 0.385322)
(0.00549782 -0.00723663 0.340693)
(0.00727549 -0.00805082 0.294805)
(0.00874684 -0.00861818 0.250428)
(-0.00198659 -0.00391666 0.55308)
(7.02046e-05 -0.00298594 0.542935)
(0.00134918 -0.0040608 0.506527)
(0.0031654 -0.00532382 0.451867)
(0.00520185 -0.00632694 0.392773)
(0.00712945 -0.00714865 0.335272)
(0.00881944 -0.00773933 0.282195)
(-0.0014521 -0.00338689 0.689253)
(0.00128826 -0.000450762 0.686714)
(0.0022019 -0.00259965 0.620138)
(0.00356579 -0.00465979 0.528347)
(0.00530792 -0.0053444 0.445378)
(0.00710773 -0.00600364 0.373759)
(0.008828 -0.00652996 0.311185)
(0.0023271 -0.00666497 0.857783)
(0.00549676 -0.00534393 0.827492)
(0.00443894 -0.00621826 0.745021)
(0.00379542 -0.00464952 0.608369)
(0.00548526 -0.00416189 0.491731)
(0.0070538 -0.00451802 0.405234)
(0.00873422 -0.00496908 0.33452)
(-0.000800896 -0.00849115 0.934243)
(0.00265295 -0.00829273 0.898149)
(0.00327258 -0.00791093 0.804141)
(0.0035333 -0.0042711 0.657013)
(0.00482241 -0.0029496 0.519329)
(0.00648283 -0.00289953 0.424429)
(0.00831891 -0.00322718 0.349114)
(-0.00629738 -0.00235402 0.925573)
(0.00225088 -0.00601694 0.92903)
(0.00420671 -0.0060597 0.822446)
(0.00354596 -0.00249539 0.649246)
(0.0046552 -0.00135284 0.520795)
(0.0059356 -0.00109349 0.427562)
(0.00776885 -0.00137499 0.353027)
(-0.00622447 0.00424648 0.78623)
(-0.00130044 0.00141144 0.798294)
(0.000554889 -1.68997e-06 0.718415)
(0.00166572 0.000403528 0.599608)
(0.00293006 0.000701759 0.498443)
(0.00475173 0.000850724 0.415867)
(0.00680083 0.000545875 0.346322)
(0.000919633 -0.0010972 0.207258)
(0.000893479 -0.00111097 0.175087)
(0.000807713 -0.00105746 0.145498)
(0.00066191 -0.00096299 0.118668)
(0.000472088 -0.000844786 0.0944151)
(0.000251401 -0.000722113 0.0721269)
(1.08942e-05 -0.000620577 0.0501662)
(-0.000244042 -0.000585753 0.0225716)
(0.00102438 -0.00118772 0.235432)
(0.00102337 -0.00135725 0.195253)
(0.000907705 -0.00145811 0.159888)
(0.000699735 -0.00151821 0.128588)
(0.000425039 -0.00154968 0.100753)
(0.000109196 -0.00156532 0.0755394)
(-0.000217266 -0.00157514 0.0510717)
(-0.00050481 -0.0015588 0.0207491)
(0.00127133 -0.00111091 0.261564)
(0.00131746 -0.00142402 0.216264)
(0.0012109 -0.00168847 0.176773)
(0.000990867 -0.00192212 0.142198)
(0.000689388 -0.00212869 0.111742)
(0.000339166 -0.00231085 0.0844021)
(-2.15012e-05 -0.00246365 0.0581198)
(-0.000328519 -0.00252622 0.025778)
(0.00154471 -0.000829473 0.283564)
(0.0016493 -0.00127395 0.235942)
(0.00159233 -0.00170491 0.19458)
(0.00142007 -0.00211703 0.158496)
(0.00116319 -0.00250328 0.126806)
(0.000854598 -0.00285506 0.0984253)
(0.000531364 -0.00315414 0.0711766)
(0.000248511 -0.00329755 0.0375037)
(0.00165663 -0.000458635 0.29892)
(0.00185902 -0.000983791 0.252358)
(0.00190952 -0.00154053 0.211846)
(0.0018527 -0.00209515 0.176404)
(0.00171518 -0.0026276 0.145164)
(0.0015245 -0.00311835 0.117046)
(0.00130848 -0.00353977 0.0898289)
(0.00109393 -0.00376418 0.0556195)
(0.00163738 -0.000117618 0.306243)
(0.00190877 -0.000661975 0.264471)
(0.00208211 -0.00127056 0.227718)
(0.0021806 -0.00189008 0.195165)
(0.00221523 -0.00249199 0.166136)
(0.00220014 -0.00304911 0.139676)
(0.00214625 -0.00352524 0.113614)
(0.00203721 -0.0037647 0.0798921)
(0.00164744 -8.52553e-05 0.305086)
(0.00195446 -0.000621578 0.272507)
(0.00224401 -0.00120446 0.242084)
(0.00249124 -0.00178929 0.214307)
(0.00269768 -0.00236075 0.188986)
(0.00286858 -0.00289963 0.165398)
(0.00300782 -0.00337917 0.141496)
(0.00307838 -0.00367716 0.109179)
(0.000852957 -0.00122371 0.207333)
(0.000834241 -0.00125291 0.175868)
(0.00075712 -0.00120686 0.146886)
(0.000614612 -0.00112155 0.120568)
(0.000428242 -0.001015 0.0967392)
(0.000213034 -0.000906072 0.0748053)
(-2.43345e-05 -0.000812291 0.053158)
(-0.000251635 -0.000775963 0.0258815)
(0.000975908 -0.0013514 0.234816)
(0.00098908 -0.00153394 0.195539)
(0.000882337 -0.00162431 0.160918)
(0.000680964 -0.00167344 0.130227)
(0.000415954 -0.00169495 0.102887)
(0.000115292 -0.00170119 0.0780769)
(-0.000196736 -0.00169249 0.0539559)
(-0.000439966 -0.00164257 0.0240132)
(0.00120427 -0.00132995 0.260308)
(0.00128391 -0.00164084 0.216035)
(0.00119581 -0.00188334 0.177385)
(0.000989996 -0.00209318 0.143491)
(0.000703496 -0.00227569 0.113578)
(0.00037179 -0.00243274 0.086668)
(2.68398e-05 -0.0025529 0.0607361)
(-0.000241262 -0.00256143 0.0287457)
(0.00145733 -0.00112028 0.281804)
(0.00161426 -0.00154074 0.23526)
(0.00158446 -0.00193687 0.194781)
(0.00143195 -0.00230954 0.159407)
(0.00119327 -0.00265536 0.128276)
(0.000903497 -0.00296635 0.10033)
(0.000594769 -0.00322189 0.0734184)
(0.000336269 -0.00330454 0.0400464)
(0.00157722 -0.000809944 0.296865)
(0.00183313 -0.00128789 0.251348)
(0.00191049 -0.00179845 0.211698)
(0.00187145 -0.00229847 0.176946)
(0.00174876 -0.00277396 0.146247)
(0.00157253 -0.00320894 0.118545)
(0.001368 -0.00357563 0.091641)
(0.00116304 -0.0037368 0.0576872)
(0.00156483 -0.000527466 0.304128)
(0.00189558 -0.000993436 0.263287)
(0.00209451 -0.00153975 0.227313)
(0.00220289 -0.00209056 0.195386)
(0.00224156 -0.00262314 0.166849)
(0.00222936 -0.0031143 0.140765)
(0.00217788 -0.00352761 0.114984)
(0.00206443 -0.00370256 0.0814693)
(0.0015856 -0.000511614 0.303139)
(0.00193402 -0.000956308 0.271288)
(0.00224384 -0.00145287 0.241512)
(0.00248579 -0.00194836 0.21427)
(0.00267907 -0.00243281 0.189378)
(0.00283236 -0.00289003 0.166128)
(0.00294848 -0.00329223 0.142504)
(0.00298369 -0.0035089 0.110487)
(0.00184319 -0.00216565 0.207389)
(0.00161494 -0.00201371 0.176386)
(0.00134324 -0.00182812 0.147755)
(0.00102579 -0.00161566 0.121665)
(0.000666486 -0.0013865 0.0979277)
(0.000287922 -0.00116418 0.0759233)
(-7.05606e-05 -0.000993304 0.0539711)
(-0.000431706 -0.000846382 0.0258154)
(0.00219907 -0.00237177 0.234365)
(0.0019157 -0.00236883 0.195729)
(0.00157055 -0.00234144 0.161585)
(0.0011596 -0.00229424 0.13122)
(0.00069097 -0.00223723 0.104052)
(0.000194022 -0.00218457 0.0792333)
(-0.000268172 -0.00216162 0.0548511)
(-0.000718095 -0.00211618 0.0240578)
(0.00266691 -0.00231058 0.259336)
(0.00239676 -0.00245934 0.215842)
(0.00203653 -0.00260354 0.177775)
(0.00159522 -0.00274117 0.144296)
(0.00108567 -0.00287338 0.114635)
(0.000543065 -0.00300262 0.0877974)
(4.0553e-05 -0.0031344 0.0616985)
(-0.000442858 -0.00319983 0.0290056)
(0.00311726 -0.00196937 0.280385)
(0.00288281 -0.0022712 0.234695)
(0.00255309 -0.00258349 0.19486)
(0.00214662 -0.00290039 0.159955)
(0.00167582 -0.00321361 0.129136)
(0.00117218 -0.00351334 0.101337)
(0.00070323 -0.00378205 0.0743722)
(0.00024604 -0.00392187 0.0405301)
(0.00336905 -0.00145738 0.295159)
(0.00320843 -0.00186781 0.25049)
(0.00296038 -0.00231247 0.211482)
(0.0026534 -0.00277058 0.177207)
(0.00229606 -0.00322554 0.146842)
(0.00191061 -0.00365795 0.119336)
(0.00154481 -0.00403107 0.092472)
(0.00116104 -0.00422087 0.0582663)
(0.00341193 -0.000914767 0.302346)
(0.00331896 -0.00136557 0.262259)
(0.00317641 -0.00187847 0.226867)
(0.0030078 -0.00241113 0.19538)
(0.00281149 -0.00294124 0.167161)
(0.00259708 -0.00344266 0.141285)
(0.00238698 -0.00386579 0.115592)
(0.00211472 -0.00405925 0.0819564)
(0.0033056 -0.000579093 0.301502)
(0.00329576 -0.00104357 0.270224)
(0.00327889 -0.00154272 0.240927)
(0.00325536 -0.00205117 0.214059)
(0.00322087 -0.00256086 0.189447)
(0.00318009 -0.00304903 0.166396)
(0.00313851 -0.00347228 0.14289)
(0.00302092 -0.00369995 0.110877)
(0.00268068 -0.00309404 0.210372)
(0.00228713 -0.00280394 0.180187)
(0.00184433 -0.00252695 0.152429)
(0.00136009 -0.00223162 0.127266)
(0.000840055 -0.00193113 0.104522)
(0.000302612 -0.00163878 0.0836266)
(-0.000279742 -0.0013397 0.0630984)
(-0.000703819 -0.00118047 0.0374522)
(0.00332604 -0.00331557 0.236613)
(0.0028231 -0.00310595 0.19888)
(0.00228531 -0.00295121 0.165664)
(0.00168473 -0.0027844 0.136277)
(0.00103445 -0.00260537 0.110149)
(0.000359342 -0.00240688 0.0864843)
(-0.000352874 -0.00214616 0.0635821)
(-0.000779042 -0.00184914 0.0355254)
(0.00404881 -0.00323071 0.260926)
(0.00350021 -0.00318963 0.218343)
(0.00291642 -0.00320765 0.181192)
(0.00226486 -0.00322559 0.148664)
(0.00155764 -0.00323002 0.120001)
(0.000818457 -0.00320265 0.0942483)
(3.20032e-05 -0.00309265 0.0695115)
(-0.000457049 -0.00279203 0.0393531)
(0.00469128 -0.0027807 0.28143)
(0.00414411 -0.00293527 0.236621)
(0.00358 -0.00312815 0.197642)
(0.00296789 -0.00333502 0.163608)
(0.00231223 -0.00353417 0.133686)
(0.0016261 -0.00370252 0.106834)
(0.00088295 -0.00379059 0.0810113)
(0.000354156 -0.00358602 0.0492456)
(0.00506339 -0.00207716 0.295831)
(0.00457366 -0.00239065 0.251975)
(0.00408814 -0.00272191 0.213728)
(0.00358936 -0.00307895 0.18021)
(0.0030726 -0.0034373 0.15061)
(0.00253605 -0.00377403 0.123882)
(0.00193991 -0.00405096 0.0979089)
(0.00143191 -0.00402359 0.0652439)
(0.00514973 -0.00123531 0.302873)
(0.00472083 -0.00164822 0.263483)
(0.00433758 -0.00206646 0.228724)
(0.00398691 -0.00251254 0.197857)
(0.00365015 -0.00296468 0.170251)
(0.00331208 -0.00340314 0.144977)
(0.00292404 -0.00380255 0.119932)
(0.00250733 -0.00393931 0.0873273)
(0.00487982 -0.000482156 0.302109)
(0.00458308 -0.000896288 0.271349)
(0.00432051 -0.0013132 0.242537)
(0.00411642 -0.00175576 0.21614)
(0.00393944 -0.00221203 0.191984)
(0.00377789 -0.00266474 0.169364)
(0.00358444 -0.00310302 0.146286)
(0.00329469 -0.00335632 0.114856)
(0.00623455 -0.00604482 0.20886)
(0.00601742 -0.00594236 0.178439)
(0.00566013 -0.00574843 0.150237)
(0.00514028 -0.00542117 0.124245)
(0.00441942 -0.00494029 0.100044)
(0.00355108 -0.00435373 0.0766862)
(0.00276571 -0.00386658 0.0519385)
(0.00127752 -0.00280622 0.0178091)
(0.00661569 -0.00585973 0.235098)
(0.00644617 -0.0059355 0.197241)
(0.0061292 -0.00600507 0.163715)
(0.00560898 -0.00600446 0.133657)
(0.0048333 -0.00592011 0.106234)
(0.00384874 -0.0057795 0.0802385)
(0.00295797 -0.00573923 0.053147)
(0.00108087 -0.00526008 0.0162279)
(0.00709741 -0.00522138 0.259222)
(0.00699393 -0.00542303 0.216544)
(0.00675508 -0.00565246 0.179147)
(0.00631213 -0.00586071 0.146057)
(0.00560794 -0.00604271 0.116269)
(0.00468532 -0.00622026 0.0884315)
(0.00389293 -0.00649358 0.0598575)
(0.0019269 -0.00656096 0.0213924)
(0.00749157 -0.00418721 0.279454)
(0.00742074 -0.0044484 0.234527)
(0.00724773 -0.0047474 0.195312)
(0.00689326 -0.00507007 0.16079)
(0.00629642 -0.00541691 0.129913)
(0.00550097 -0.00580403 0.101303)
(0.00487951 -0.00625853 0.0722444)
(0.00302598 -0.00676992 0.0334596)
(0.00762779 -0.0029052 0.293562)
(0.00755913 -0.00317268 0.249539)
(0.00742016 -0.00347782 0.211032)
(0.00713714 -0.00384853 0.177065)
(0.00664448 -0.00429013 0.146658)
(0.00598346 -0.00480539 0.118508)
(0.00551721 -0.00533693 0.089983)
(0.00391152 -0.00615141 0.0518708)
(0.00751358 -0.00148996 0.300338)
(0.0073702 -0.00177104 0.260724)
(0.00721059 -0.00207823 0.225669)
(0.00696422 -0.00247797 0.194375)
(0.00655732 -0.00298647 0.166088)
(0.00602505 -0.00359059 0.139695)
(0.00568285 -0.00415293 0.112738)
(0.00441642 -0.00514191 0.0761912)
(0.007063 -0.000224233 0.299328)
(0.00688515 -0.000474264 0.268292)
(0.00669825 -0.000780378 0.239153)
(0.00648049 -0.00120867 0.212341)
(0.0061561 -0.00178332 0.187602)
(0.00576182 -0.00246714 0.164104)
(0.0055258 -0.0030652 0.139611)
(0.00463718 -0.00410942 0.10537)
(0.00981534 -0.00922332 0.21402)
(0.0102677 -0.00984521 0.186963)
(0.0104315 -0.0102453 0.163223)
(0.010136 -0.0103441 0.143036)
(0.00928939 -0.0100704 0.126477)
(0.00776643 -0.00935464 0.113662)
(0.00550784 -0.0082142 0.105363)
(0.00130847 -0.00568377 0.105251)
(0.0101415 -0.00819603 0.237761)
(0.0109873 -0.00875193 0.203073)
(0.0114257 -0.00918684 0.173719)
(0.0113515 -0.00941901 0.149152)
(0.0106435 -0.00935346 0.129091)
(0.00915142 -0.00889723 0.113471)
(0.00689833 -0.00802262 0.102944)
(0.00237191 -0.00577586 0.101791)
(0.0102036 -0.0069868 0.260105)
(0.011227 -0.00746714 0.220206)
(0.0118697 -0.00783951 0.186559)
(0.0120382 -0.00804933 0.158492)
(0.0115879 -0.00802966 0.135563)
(0.0103257 -0.00769871 0.117586)
(0.0082606 -0.00697545 0.105095)
(0.00354682 -0.00513087 0.1024)
(0.010129 -0.00536093 0.279186)
(0.0112402 -0.00565 0.236724)
(0.0120218 -0.00582953 0.200921)
(0.0123747 -0.00586794 0.171038)
(0.0121471 -0.00573699 0.14656)
(0.0111258 -0.00538708 0.12723)
(0.00923475 -0.00469624 0.113476)
(0.00430941 -0.00330658 0.109072)
(0.00975213 -0.0034952 0.292715)
(0.0108633 -0.00351618 0.250974)
(0.0116851 -0.00342927 0.215669)
(0.0121079 -0.00324033 0.186082)
(0.0119932 -0.00296113 0.161704)
(0.0111369 -0.00258902 0.142262)
(0.0093379 -0.00203759 0.128073)
(0.00423239 -0.00148481 0.12192)
(0.00916839 -0.0015459 0.299475)
(0.010139 -0.00130332 0.262079)
(0.0108712 -0.000952671 0.230122)
(0.011238 -0.000561009 0.203043)
(0.0111261 -0.000181036 0.180488)
(0.0103664 0.00013434 0.162239)
(0.00869213 0.000354041 0.148505)
(0.00376876 -0.000368217 0.140928)
(0.0081531 0.000583619 0.299022)
(0.00872274 0.00124767 0.270086)
(0.00918399 0.00192989 0.243924)
(0.00935177 0.00254702 0.221144)
(0.00913746 0.0030499 0.201817)
(0.00840103 0.00335706 0.185878)
(0.00686427 0.00333714 0.173451)
(0.00244283 0.00154192 0.16491)
(-0.00228262 0.000308133 0.725685)
(-0.00156434 0.00062812 0.655977)
(-0.00125131 0.00131437 0.602733)
(-0.00104291 0.00190959 0.557584)
(-0.00070626 0.00209213 0.518042)
(-0.000158616 0.00213414 0.481763)
(0.000562055 0.0021929 0.443958)
(0.00136397 0.00244495 0.386051)
(-0.00765962 0.00169705 0.811151)
(-0.00631205 0.0017781 0.715892)
(-0.00460929 0.00214624 0.641193)
(-0.0037509 0.00243958 0.585395)
(-0.00304308 0.00222913 0.538332)
(-0.00221975 0.00190156 0.496716)
(-0.00125111 0.00162921 0.455038)
(-0.000273254 0.00155749 0.393744)
(-0.00622927 0.000975267 0.83437)
(-0.00618259 0.00141529 0.729347)
(-0.00488489 0.00160986 0.644832)
(-0.00438263 0.00150975 0.584153)
(-0.00377872 0.00100616 0.533628)
(-0.00299586 0.00038437 0.489564)
(-0.0020642 -0.000236344 0.446233)
(-0.00119108 -0.00078898 0.383851)
(-0.00658433 0.00173665 0.786917)
(-0.00580206 0.00169151 0.679898)
(-0.00492329 0.00108994 0.605316)
(-0.00434457 0.00034743 0.549101)
(-0.00365325 -0.000496581 0.501556)
(-0.00280467 -0.00136393 0.459699)
(-0.00182936 -0.00224331 0.418316)
(-0.00092788 -0.00314385 0.358689)
(-0.00340454 0.00228776 0.656736)
(-0.00313336 0.00121359 0.588202)
(-0.00289424 9.91881e-05 0.535242)
(-0.0025222 -0.000916018 0.489504)
(-0.00193934 -0.0018852 0.449413)
(-0.00117924 -0.00283952 0.413076)
(-0.000295593 -0.00382428 0.376244)
(0.000538471 -0.00491244 0.322215)
(-0.00254386 0.00144114 0.540974)
(-0.00205122 0.00050882 0.497245)
(-0.00159505 -0.000530265 0.457711)
(-0.00104735 -0.00151099 0.421887)
(-0.000368422 -0.00241509 0.38944)
(0.000413943 -0.00325891 0.359125)
(0.0012577 -0.00407168 0.327532)
(0.00201709 -0.00488995 0.280253)
(-0.00161821 -0.000194869 0.453144)
(-0.00102006 -0.000881095 0.41864)
(-0.000402555 -0.00161163 0.386925)
(0.000279381 -0.00229602 0.357743)
(0.00102114 -0.00291813 0.330805)
(0.00180165 -0.00348957 0.305131)
(0.00260744 -0.00403057 0.27787)
(0.00334061 -0.00457839 0.236694)
(-0.00164956 -0.00152527 0.730744)
(-0.0010915 0.000203572 0.656917)
(-0.00129071 0.00129159 0.602395)
(-0.0013228 0.00169286 0.557319)
(-0.0009936 0.00175268 0.518262)
(-0.00040515 0.00180181 0.48259)
(0.000345862 0.00191704 0.445359)
(0.00117315 0.0022476 0.387939)
(-0.00543738 0.00139269 0.8198)
(-0.00268063 0.00125397 0.72173)
(-0.0025152 0.0015335 0.641707)
(-0.00277761 0.00143219 0.585098)
(-0.00266203 0.00122098 0.538279)
(-0.00211382 0.00109921 0.497271)
(-0.00129488 0.00106947 0.456243)
(-0.000410546 0.00123517 0.39554)
(-0.00398044 0.00486044 0.84682)
(-0.000838885 0.00286089 0.737027)
(-0.00131244 0.00185087 0.645464)
(-0.00221776 0.0010389 0.583415)
(-0.00255296 0.00034726 0.533044)
(-0.00235403 -0.000188042 0.489648)
(-0.00180411 -0.000634341 0.447047)
(-0.00119068 -0.000990826 0.385335)
(-0.00385485 0.00773039 0.791807)
(-0.00189102 0.00429391 0.682133)
(-0.00186607 0.00217069 0.604088)
(-0.00232459 0.000676115 0.547518)
(-0.00241138 -0.000494694 0.500528)
(-0.00209741 -0.00145463 0.459482)
(-0.00149816 -0.00231811 0.418879)
(-0.000872924 -0.00315021 0.359952)
(-0.00153531 0.00601859 0.656098)
(-0.000979423 0.00330455 0.585911)
(-0.001158 0.00121462 0.532667)
(-0.00128958 -0.000343688 0.487516)
(-0.00111892 -0.0015843 0.448295)
(-0.000680098 -0.0026617 0.412811)
(-5.35697e-05 -0.00368599 0.376708)
(0.000559987 -0.00475809 0.323313)
(-0.00154992 0.00350409 0.537334)
(-0.00100946 0.00166529 0.493884)
(-0.000729436 0.000147886 0.455141)
(-0.000384895 -0.00106944 0.420242)
(0.000102366 -0.00209484 0.388647)
(0.000699553 -0.00299789 0.359047)
(0.00136588 -0.00382894 0.32803)
(0.00194691 -0.00463314 0.281247)
(-0.000956585 0.000865659 0.449733)
(-0.000394119 -0.000267169 0.415998)
(0.000106445 -0.00118098 0.385161)
(0.000656781 -0.00193633 0.356762)
(0.00125661 -0.00259757 0.33047)
(0.00189035 -0.00319045 0.305309)
(0.00255238 -0.00373806 0.27845)
(0.00314087 -0.00428166 0.237613)
(-0.00484034 0.00333911 0.736827)
(-0.00412173 0.00389417 0.655992)
(-0.00389132 0.00378783 0.601421)
(-0.0032842 0.00317914 0.557105)
(-0.00238653 0.00268886 0.51892)
(-0.00134301 0.00238454 0.484067)
(-0.000233581 0.00222492 0.44754)
(0.000922688 0.00231523 0.390708)
(-0.00924176 0.00557182 0.85392)
(-0.00657066 0.00382479 0.726808)
(-0.00634434 0.0029588 0.640692)
(-0.005843 0.00223089 0.584312)
(-0.00484735 0.00178039 0.538415)
(-0.00355271 0.00153971 0.498391)
(-0.0021335 0.00138159 0.458224)
(-0.000720697 0.00139393 0.39826)
(-0.00890839 0.00615521 0.891763)
(-0.00550112 0.0031073 0.745187)
(-0.00585392 0.00159636 0.643977)
(-0.00583603 0.000712886 0.581858)
(-0.00520576 0.000142668 0.532529)
(-0.00414293 -0.000253593 0.490257)
(-0.00286403 -0.000630293 0.448624)
(-0.0016023 -0.000974652 0.387728)
(-0.00825613 0.00419185 0.808106)
(-0.00597257 0.00188174 0.683755)
(-0.00565762 0.000294767 0.601124)
(-0.00536431 -0.000728232 0.545379)
(-0.00463672 -0.00144394 0.499662)
(-0.0036031 -0.00204237 0.459782)
(-0.00238986 -0.00264891 0.420127)
(-0.00121405 -0.00329403 0.361986)
(-0.00409627 0.00128099 0.653843)
(-0.003668 -0.000184084 0.581621)
(-0.00348223 -0.00137107 0.529261)
(-0.00311918 -0.00216934 0.485507)
(-0.00246513 -0.00280896 0.447527)
(-0.00159526 -0.00342416 0.413046)
(-0.000603344 -0.00409864 0.37773)
(0.000349051 -0.00488294 0.324983)
(-0.00241994 -0.000586412 0.532069)
(-0.00197017 -0.00141138 0.48996)
(-0.00158737 -0.00207328 0.452645)
(-0.00109085 -0.00261508 0.418921)
(-0.000447352 -0.00311117 0.388236)
(0.000294456 -0.00360056 0.359345)
(0.00108698 -0.00411205 0.328882)
(0.00180043 -0.00464362 0.282562)
(-0.00122304 -0.00187324 0.446241)
(-0.000698007 -0.00228197 0.413654)
(-0.000203241 -0.0026103 0.383776)
(0.000359986 -0.00291673 0.356109)
(0.000984687 -0.00321899 0.330388)
(0.00165315 -0.00352557 0.305672)
(0.00234807 -0.003849 0.27916)
(0.00298078 -0.00419126 0.238614)
(-0.00887284 0.00800861 0.733227)
(-0.00785596 0.00699653 0.655272)
(-0.00672202 0.00580356 0.60246)
(-0.0053616 0.00463676 0.559492)
(-0.00393932 0.00378422 0.522392)
(-0.00251702 0.00311552 0.488417)
(-0.00104297 0.00259595 0.452573)
(0.000507014 0.00230893 0.396238)
(-0.0142971 0.00845682 0.850526)
(-0.013181 0.00591666 0.723016)
(-0.0118592 0.00462912 0.640664)
(-0.009883 0.00381376 0.586115)
(-0.00761793 0.00320109 0.541614)
(-0.00538046 0.00265414 0.502679)
(-0.00318409 0.00213547 0.463341)
(-0.00104752 0.00173725 0.403987)
(-0.0154086 0.00377114 0.880842)
(-0.0143016 0.00193246 0.739163)
(-0.0132941 0.00116179 0.64301)
(-0.0114657 0.00084131 0.583056)
(-0.00911021 0.000616634 0.535313)
(-0.00667838 0.00031081 0.49422)
(-0.00428916 -0.000120102 0.453455)
(-0.00203088 -0.000614716 0.393183)
(-0.0140041 -0.00288644 0.797803)
(-0.012972 -0.00234289 0.67834)
(-0.011867 -0.00233982 0.599954)
(-0.0101081 -0.00223488 0.546283)
(-0.0080326 -0.00214029 0.50204)
(-0.00587124 -0.00222316 0.463236)
(-0.00371281 -0.00251797 0.424359)
(-0.00165463 -0.00298519 0.366769)
(-0.00770663 -0.00535643 0.64773)
(-0.00777828 -0.00486835 0.578876)
(-0.00708011 -0.00448064 0.528735)
(-0.00599074 -0.00408078 0.486509)
(-0.00466277 -0.00384501 0.449639)
(-0.00318929 -0.00382603 0.415972)
(-0.0016432 -0.00404491 0.381247)
(-0.000104229 -0.00448727 0.328933)
(-0.00380328 -0.00567374 0.529515)
(-0.00364045 -0.00484356 0.489125)
(-0.00320081 -0.00433426 0.45302)
(-0.00256416 -0.00403275 0.420193)
(-0.00175821 -0.00388531 0.390198)
(-0.000819468 -0.00387421 0.361837)
(0.000206623 -0.00399501 0.331768)
(0.00124566 -0.00419637 0.285761)
(-0.0019714 -0.00489674 0.445774)
(-0.00161975 -0.00431162 0.414062)
(-0.0011846 -0.00398372 0.384811)
(-0.000640483 -0.00382329 0.357649)
(3.70821e-06 -0.00374973 0.332348)
(0.000733291 -0.00374433 0.307972)