/*--------------------------------*- C++ -*----------------------------------*\
| =========                 |                                                 |
| \\      /  F ield         | OpenFOAM: The Open Source CFD Toolbox           |
|  \\    /   O peration     | Version:  plus.master.MPPICInterFoam            |
|   \\  /    A nd           | Web:      www.OpenFOAM.com                      |
|    \\/     M anipulation  |                                                 |
\*---------------------------------------------------------------------------*/
FoamFile
{
    version     2.0;
    format      ascii;
    class       surfaceScalarField;
    location    "5.4";
    object      alphaPhi;
}
// * * * * * * * * * * * * * * * * * * * * * * * * * * * * * * * * * * * * * //

dimensions      [0 3 -1 0 0 0 0];

internalField   nonuniform List<scalar> 
34004
(
1.25211e-08
8.91588e-08
-1.66706e-06
-1.08708e-07
2.25207e-08
8.12766e-08
-2.04983e-06
-9.91723e-08
3.03339e-08
7.66194e-08
-2.36305e-06
-9.37542e-08
3.61617e-08
7.32722e-08
-2.66863e-06
-8.99475e-08
4.00028e-08
7.03326e-08
-2.97805e-06
-8.66671e-08
4.17997e-08
6.75827e-08
-3.29469e-06
-8.36253e-08
4.14875e-08
6.49804e-08
-3.61951e-06
-8.07478e-08
6.25276e-08
-3.95185e-06
-7.80562e-08
3.90445e-08
1.7276e-08
6.07853e-08
-1.68428e-06
3.04585e-08
5.55355e-08
-2.06977e-06
4.03924e-08
5.22535e-08
-2.38593e-06
4.75165e-08
4.98451e-08
-2.69444e-06
5.19733e-08
4.77035e-08
-3.00686e-06
5.38325e-08
4.56981e-08
-3.32654e-06
5.31406e-08
4.38182e-08
-3.65448e-06
4.20939e-08
-3.99004e-06
4.99023e-08
1.88662e-08
2.82517e-08
-1.69607e-06
3.30303e-08
2.58419e-08
-2.08354e-06
4.33534e-08
2.43098e-08
-2.4015e-06
5.04088e-08
2.31596e-08
-2.71173e-06
5.44664e-08
2.20935e-08
-3.02577e-06
5.57218e-08
2.10644e-08
-3.34701e-06
5.4336e-08
2.00875e-08
-3.67642e-06
1.91861e-08
-4.0134e-06
5.04399e-08
1.95929e-08
-6.43184e-09
-1.70256e-06
3.41157e-08
-5.86346e-09
-2.09113e-06
4.45949e-08
-5.53286e-09
-2.41005e-06
5.16939e-08
-5.34859e-09
-2.72118e-06
5.57393e-08
-5.26494e-09
-3.03609e-06
5.69648e-08
-5.23264e-09
-3.35815e-06
5.55543e-08
-5.20747e-09
-3.68839e-06
-5.15319e-09
-4.02621e-06
5.16275e-08
1.81851e-08
-4.02057e-08
-1.70324e-06
3.14828e-08
-3.69471e-08
-2.09203e-06
4.09252e-08
-3.49656e-08
-2.41091e-06
4.72165e-08
-3.36826e-08
-2.72192e-06
5.07212e-08
-3.27096e-08
-3.03662e-06
5.16986e-08
-3.18941e-08
-3.3584e-06
5.03384e-08
-3.11497e-08
-3.6883e-06
-3.0433e-08
-4.02576e-06
4.67641e-08
1.60451e-08
-7.1703e-08
-1.69907e-06
2.74471e-08
-6.59235e-08
-2.08708e-06
3.55343e-08
-6.2739e-08
-2.40504e-06
4.10219e-08
-6.08083e-08
-2.71507e-06
4.42649e-08
-5.93767e-08
-3.02873e-06
4.54873e-08
-5.8164e-08
-3.34942e-06
4.48155e-08
-5.70169e-08
-3.6782e-06
-5.58282e-08
-4.01455e-06
4.22471e-08
9.12741e-09
-1.68874e-06
-9.52206e-08
1.4827e-08
-2.07521e-06
-8.79967e-08
1.81963e-08
-2.39088e-06
-8.43705e-08
1.99829e-08
-2.69831e-06
-8.25712e-08
2.06275e-08
-3.00901e-06
-8.15333e-08
2.04685e-08
-3.32639e-06
-8.08804e-08
1.96986e-08
-3.65152e-06
-8.03502e-08
-3.98393e-06
-7.98127e-08
1.84176e-08
1.02154e-08
7.1518e-08
-1.66171e-06
-8.70772e-08
1.84108e-08
6.51751e-08
-2.04376e-06
-7.94154e-08
2.48329e-08
6.15752e-08
-2.35588e-06
-7.51445e-08
2.96362e-08
5.90693e-08
-2.66026e-06
-7.22176e-08
3.28173e-08
5.69195e-08
-2.96837e-06
-6.97572e-08
3.43284e-08
5.49324e-08
-3.28359e-06
-6.75174e-08
3.4112e-08
5.30571e-08
-3.60691e-06
-6.54192e-08
5.12801e-08
-3.93767e-06
-6.34618e-08
3.2143e-08
1.44862e-08
4.84926e-08
-1.67572e-06
2.56785e-08
4.42854e-08
-2.06005e-06
3.42449e-08
4.17973e-08
-2.37469e-06
4.05118e-08
4.00347e-08
-2.68165e-06
4.45601e-08
3.84978e-08
-2.99246e-06
4.64049e-08
3.70682e-08
-3.3105e-06
4.60396e-08
3.57256e-08
-3.63676e-06
3.4486e-08
-3.9706e-06
4.34265e-08
1.61695e-08
2.16949e-08
-1.68543e-06
2.85088e-08
1.98439e-08
-2.07141e-06
3.77006e-08
1.87722e-08
-2.38764e-06
4.41728e-08
1.8008e-08
-2.69615e-06
4.80932e-08
1.73084e-08
-3.00848e-06
4.95629e-08
1.6629e-08
-3.32801e-06
4.86566e-08
1.5976e-08
-3.65574e-06
1.53645e-08
-3.99103e-06
4.54341e-08
1.70382e-08
-7.14943e-09
-1.69074e-06
2.99094e-08
-6.4891e-09
-2.07765e-06
3.94359e-08
-6.04906e-09
-2.39474e-06
4.61158e-08
-5.75483e-09
-2.70408e-06
5.01555e-08
-5.55905e-09
-3.01724e-06
5.16795e-08
-5.42067e-09
-3.3376e-06
5.07746e-08
-5.3035e-09
-3.66618e-06
-5.17686e-09
-4.00236e-06
4.74859e-08
1.59288e-08
-3.52236e-08
-1.69108e-06
2.7842e-08
-3.22755e-08
-2.07814e-06
3.65485e-08
-3.04732e-08
-2.39518e-06
4.25733e-08
-2.92811e-08
-2.70439e-06
4.61538e-08
-2.83681e-08
-3.01737e-06
4.74388e-08
-2.76047e-08
-3.33748e-06
4.6526e-08
-2.69165e-08
-3.66576e-06
-2.62649e-08
-4.00159e-06
4.34735e-08
1.41225e-08
-6.12382e-08
-1.68716e-06
2.44572e-08
-5.61463e-08
-2.07352e-06
3.20346e-08
-5.3332e-08
-2.38974e-06
3.73849e-08
-5.159e-08
-2.69809e-06
4.07372e-08
-5.02904e-08
-3.01013e-06
4.22106e-08
-4.91949e-08
-3.32928e-06
4.18528e-08
-4.81751e-08
-3.65656e-06
-4.71386e-08
-3.99142e-06
3.96201e-08
8.31311e-09
-1.67801e-06
-8.02616e-08
1.38982e-08
-2.06298e-06
-7.3936e-08
1.75369e-08
-2.37716e-06
-7.06645e-08
1.97545e-08
-2.68321e-06
-6.88897e-08
2.08545e-08
-2.99262e-06
-6.77641e-08
2.10544e-08
-3.30879e-06
-6.69666e-08
2.04753e-08
-3.6328e-06
-6.62958e-08
-3.9641e-06
-6.56458e-08
1.91818e-08
8.42693e-09
5.7233e-08
-1.65747e-06
-6.98868e-08
1.51896e-08
5.20806e-08
-2.03895e-06
-6.36398e-08
2.04838e-08
4.92536e-08
-2.35021e-06
-6.02084e-08
2.44368e-08
4.73422e-08
-2.65364e-06
-5.79014e-08
2.70502e-08
4.57418e-08
-2.96071e-06
-5.60035e-08
2.82895e-08
4.42841e-08
-3.27479e-06
-5.43064e-08
2.81101e-08
4.29166e-08
-3.59689e-06
-5.27348e-08
4.16185e-08
-3.92637e-06
-5.12757e-08
2.64907e-08
1.21007e-08
3.84357e-08
-1.66901e-06
2.15235e-08
3.50427e-08
-2.05242e-06
2.8802e-08
3.31362e-08
-2.36584e-06
3.41893e-08
3.18334e-08
-2.67151e-06
3.77343e-08
3.07233e-08
-2.98097e-06
3.9428e-08
2.97011e-08
-3.29759e-06
3.9241e-08
2.87423e-08
-3.62237e-06
2.78536e-08
-3.9547e-06
3.71191e-08
1.3701e-08
1.6388e-08
-1.67707e-06
2.42684e-08
1.49645e-08
-2.06188e-06
3.22509e-08
1.42202e-08
-2.37669e-06
3.79777e-08
1.37238e-08
-2.68375e-06
4.15562e-08
1.32786e-08
-2.9946e-06
4.30346e-08
1.28441e-08
-3.31262e-06
4.24392e-08
1.24214e-08
-3.6388e-06
1.20198e-08
-3.97253e-06
3.9788e-08
1.4563e-08
-7.45583e-09
-1.68145e-06
2.57052e-08
-6.76247e-09
-2.06704e-06
3.40891e-08
-6.27111e-09
-2.38261e-06
4.00973e-08
-5.9193e-09
-2.69043e-06
4.38621e-08
-5.66047e-09
-3.00205e-06
4.54439e-08
-5.46011e-09
-3.32086e-06
4.48732e-08
-5.28841e-09
-3.64788e-06
-5.11946e-09
-3.98247e-06
4.21509e-08
1.36779e-08
-3.06201e-08
-1.68158e-06
2.40634e-08
-2.79837e-08
-2.06728e-06
3.17957e-08
-2.63625e-08
-2.3828e-06
3.72738e-08
-2.52714e-08
-2.6905e-06
4.06542e-08
-2.4429e-08
-3.00196e-06
4.20186e-08
-2.37256e-08
-3.32056e-06
4.14105e-08
-2.30976e-08
-3.64732e-06
-2.25109e-08
-3.98161e-06
3.88479e-08
1.2147e-08
-5.19264e-08
-1.67799e-06
2.12133e-08
-4.74758e-08
-2.06308e-06
2.80006e-08
-4.50012e-08
-2.37787e-06
3.29084e-08
-4.34421e-08
-2.68481e-06
3.60854e-08
-4.22722e-08
-2.99545e-06
3.7589e-08
-4.12914e-08
-3.3132e-06
3.74229e-08
-4.03918e-08
-3.63908e-06
-3.94943e-08
-3.97251e-06
3.55241e-08
7.35103e-09
-1.67001e-06
-6.72651e-08
1.25214e-08
-2.05386e-06
-6.17525e-08
1.60709e-08
-2.36688e-06
-5.88219e-08
1.83757e-08
-2.6718e-06
-5.71307e-08
1.96445e-08
-2.98015e-06
-5.59896e-08
2.0019e-08
-3.2953e-06
-5.51339e-08
1.95752e-08
-3.61832e-06
-5.44049e-08
-3.94863e-06
-5.37176e-08
1.83558e-08
7.0117e-09
4.55228e-08
-1.65405e-06
-5.59533e-08
1.26292e-08
4.12994e-08
-2.03505e-06
-5.07943e-08
1.70125e-08
3.90478e-08
-2.34563e-06
-4.79952e-08
2.02723e-08
3.75645e-08
-2.6483e-06
-4.61409e-08
2.24165e-08
3.63536e-08
-2.95454e-06
-4.46449e-08
2.34232e-08
3.52707e-08
-3.26772e-06
-4.33314e-08
2.32607e-08
3.4265e-08
-3.58884e-06
-4.21311e-08
3.33126e-08
-3.91729e-06
-4.10254e-08
2.19135e-08
1.00747e-08
3.01437e-08
-1.6637e-06
1.7959e-08
2.73874e-08
-2.04637e-06
2.4079e-08
2.5911e-08
-2.35881e-06
2.86379e-08
2.49382e-08
-2.66343e-06
3.16692e-08
2.41317e-08
-2.97177e-06
3.3156e-08
2.34002e-08
-3.28719e-06
3.30621e-08
2.27181e-08
-3.61071e-06
2.20859e-08
-3.94172e-06
3.13309e-08
1.15003e-08
1.20621e-08
-1.67048e-06
2.04326e-08
1.09635e-08
-2.05438e-06
2.72399e-08
1.04512e-08
-2.36803e-06
3.21821e-08
1.01393e-08
-2.67388e-06
3.53318e-08
9.86931e-09
-2.98347e-06
3.67091e-08
9.60549e-09
-3.30018e-06
3.63152e-08
9.34574e-09
-3.62502e-06
9.09558e-09
-3.95735e-06
3.41457e-08
1.22748e-08
-7.50888e-09
-1.67414e-06
2.17479e-08
-6.82111e-09
-2.05872e-06
2.89534e-08
-6.31601e-09
-2.37304e-06
3.41907e-08
-5.94117e-09
-2.67957e-06
3.75478e-08
-5.65197e-09
-2.98987e-06
3.90496e-08
-5.41919e-09
-3.30732e-06
3.8696e-08
-5.21808e-09
-3.63294e-06
-5.02673e-09
-3.9661e-06
3.64648e-08
1.15583e-08
-2.64655e-08
-1.67417e-06
2.04253e-08
-2.41266e-08
-2.05883e-06
2.71079e-08
-2.26798e-08
-2.3731e-06
3.19153e-08
-2.16923e-08
-2.67954e-06
3.49533e-08
-2.0925e-08
-2.98971e-06
3.62648e-08
-2.0285e-08
-3.30699e-06
3.58622e-08
-1.97181e-08
-3.63239e-06
-1.9194e-08
-3.9653e-06
3.37413e-08
1.02556e-08
-4.37565e-08
-1.67094e-06
1.80161e-08
-3.98858e-08
-2.05507e-06
2.3904e-08
-3.77177e-08
-2.36871e-06
2.82255e-08
-3.63306e-08
-2.67447e-06
3.10793e-08
-3.52849e-08
-2.98393e-06
3.24883e-08
-3.44133e-08
-3.30046e-06
3.24345e-08
-3.36249e-08
-3.6251e-06
-3.28526e-08
-3.95724e-06
3.08498e-08
6.35219e-09
-1.66404e-06
-5.60638e-08
1.09566e-08
-2.04706e-06
-5.12703e-08
1.42167e-08
-2.35917e-06
-4.86632e-08
1.64082e-08
-2.66322e-06
-4.709e-08
1.76766e-08
-2.9707e-06
-4.59845e-08
1.81154e-08
-3.285e-06
-4.513e-08
1.77728e-08
-3.60718e-06
-4.43992e-08
-3.93664e-06
-4.37233e-08
1.6678e-08
5.86457e-09
3.57742e-08
-1.65126e-06
-4.44195e-08
1.05526e-08
3.2284e-08
-2.0319e-06
-4.0114e-08
1.41951e-08
3.04704e-08
-2.34192e-06
-3.78054e-08
1.68911e-08
2.93036e-08
-2.64399e-06
-3.62951e-08
1.86537e-08
2.83771e-08
-2.94957e-06
-3.51003e-08
1.94714e-08
2.75676e-08
-3.26201e-06
-3.40723e-08
1.93231e-08
2.68276e-08
-3.58235e-06
-3.31485e-08
2.61323e-08
-3.90997e-06
-3.23072e-08
1.81981e-08
8.35452e-09
2.32174e-08
-1.65949e-06
1.49131e-08
2.09632e-08
-2.0416e-06
2.00147e-08
1.98097e-08
-2.35323e-06
2.38264e-08
1.90778e-08
-2.657e-06
2.63751e-08
1.84911e-08
-2.96441e-06
2.76436e-08
1.79711e-08
-3.27884e-06
2.75975e-08
1.74925e-08
-3.60131e-06
1.70518e-08
-3.9312e-06
2.61844e-08
9.56448e-09
8.48204e-09
-1.6653e-06
1.70276e-08
7.63082e-09
-2.04849e-06
2.27454e-08
7.2838e-09
-2.3612e-06
2.69281e-08
7.09949e-09
-2.66607e-06
2.96282e-08
6.95063e-09
-2.97461e-06
3.08526e-08
6.80655e-09
-3.29022e-06
3.05911e-08
6.66333e-09
-3.61391e-06
6.52384e-09
-3.94503e-06
2.88286e-08
1.02138e-08
-7.43145e-09
-1.66843e-06
1.81429e-08
-6.77202e-09
-2.05223e-06
2.42152e-08
-6.27571e-09
-2.36553e-06
2.86699e-08
-5.89887e-09
-2.67101e-06
3.15686e-08
-5.59966e-09
-2.9802e-06
3.29186e-08
-5.35305e-09
-3.29649e-06
3.27054e-08
-5.13834e-09
-3.62091e-06
-4.93701e-09
-3.9528e-06
3.08966e-08
9.62373e-09
-2.27812e-08
-1.66843e-06
1.70582e-08
-2.07162e-08
-2.0523e-06
2.2705e-08
-1.94316e-08
-2.36558e-06
2.68084e-08
-1.85447e-08
-2.67098e-06
2.9443e-08
-1.78523e-08
-2.98007e-06
3.06304e-08
-1.72753e-08
-3.29623e-06
3.03674e-08
-1.67676e-08
-3.62048e-06
-1.63023e-08
-3.95218e-06
2.86388e-08
8.51288e-09
-3.66506e-08
-1.66557e-06
1.50171e-08
-3.32928e-08
-2.04897e-06
1.99932e-08
-3.13971e-08
-2.3617e-06
2.36802e-08
-3.01678e-08
-2.66652e-06
2.61462e-08
-2.92384e-08
-2.97499e-06
2.73971e-08
-2.84687e-08
-3.29049e-06
2.74063e-08
-2.77821e-08
-3.61407e-06
-2.7121e-08
-3.9451e-06
2.61092e-08
5.37343e-09
-1.65962e-06
-4.64331e-08
9.34698e-09
-2.04204e-06
-4.22669e-08
1.22135e-08
-2.35346e-06
-3.9961e-08
1.41806e-08
-2.65681e-06
-3.85233e-08
1.53519e-08
-2.9636e-06
-3.74866e-08
1.57908e-08
-3.27722e-06
-3.66725e-08
1.55287e-08
-3.5987e-06
-3.59774e-08
-3.92745e-06
-3.53444e-08
1.4586e-08
4.91274e-09
2.75092e-08
-1.64902e-06
-3.46597e-08
8.83239e-09
2.46051e-08
-2.02936e-06
-3.10365e-08
1.18645e-08
2.3133e-08
-2.33895e-06
-2.91196e-08
1.40983e-08
2.2208e-08
-2.64053e-06
-2.78812e-08
1.55512e-08
2.14969e-08
-2.94557e-06
-2.69236e-08
1.62191e-08
2.0895e-08
-3.25743e-06
-2.61204e-08
1.6089e-08
2.0358e-08
-3.57714e-06
-2.54146e-08
1.98616e-08
-3.90409e-06
-2.47831e-08
1.51538e-08
6.88893e-09
1.733e-08
-1.65618e-06
1.23077e-08
1.54758e-08
-2.03786e-06
1.65231e-08
1.457e-08
-2.34886e-06
1.96753e-08
1.40184e-08
-2.65194e-06
2.17886e-08
1.35955e-08
-2.9586e-06
2.28497e-08
1.32342e-08
-3.27222e-06
2.28293e-08
1.29101e-08
-3.59382e-06
1.2617e-08
-3.92278e-06
2.16824e-08
7.87191e-09
5.4512e-09
-1.66128e-06
1.40325e-08
4.79019e-09
-2.04394e-06
1.87649e-08
4.56304e-09
-2.35591e-06
2.22425e-08
4.46835e-09
-2.65997e-06
2.45068e-08
4.4049e-09
-2.96766e-06
2.55602e-08
4.34674e-09
-3.28236e-06
2.53888e-08
4.2889e-09
-3.60509e-06
4.2324e-09
-3.93521e-06
2.39738e-08
8.3837e-09
-7.31388e-09
-1.66404e-06
1.49169e-08
-6.69399e-09
-2.04725e-06
1.99389e-08
-6.21809e-09
-2.35975e-06
2.36445e-08
-5.8508e-09
-2.66437e-06
2.60806e-08
-5.55311e-09
-2.97265e-06
2.72476e-08
-5.30325e-09
-3.28799e-06
2.71261e-08
-5.08389e-09
-3.61139e-06
-4.87935e-09
-3.94222e-06
2.56818e-08
7.88737e-09
-1.95553e-08
-1.66407e-06
1.40076e-08
-1.77361e-08
-2.04736e-06
1.86767e-08
-1.65986e-08
-2.35985e-06
2.20914e-08
-1.58056e-08
-2.66442e-06
2.43079e-08
-1.51844e-08
-2.97264e-06
2.53379e-08
-1.46678e-08
-3.28788e-06
2.5172e-08
-1.42158e-08
-3.61116e-06
-1.38046e-08
-3.94185e-06
2.37904e-08
6.94056e-09
-3.04948e-08
-1.66156e-06
1.22782e-08
-2.75828e-08
-2.04444e-06
1.63808e-08
-2.59266e-08
-2.35645e-06
1.94376e-08
-2.48399e-08
-2.66052e-06
2.14995e-08
-2.40175e-08
-2.96819e-06
2.2566e-08
-2.33419e-08
-3.28286e-06
2.26101e-08
-2.27476e-08
-3.60556e-06
-2.21853e-08
-3.93566e-06
2.15747e-08
4.44059e-09
-1.65641e-06
-3.81332e-08
7.76684e-09
-2.03842e-06
-3.45099e-08
1.0192e-08
-2.34931e-06
-3.24794e-08
1.18769e-08
-2.65213e-06
-3.11837e-08
1.28982e-08
-2.95838e-06
-3.02352e-08
1.33011e-08
-3.27145e-06
-2.94861e-08
1.31069e-08
-3.59238e-06
-2.88502e-08
-3.92055e-06
-2.82795e-08
1.23303e-08
4.10751e-09
2.03534e-08
-1.64726e-06
-2.62084e-08
7.38042e-09
1.79238e-08
-2.02739e-06
-2.31399e-08
9.90107e-09
1.67251e-08
-2.33663e-06
-2.15442e-08
1.17504e-08
1.59915e-08
-2.63782e-06
-2.05292e-08
1.29489e-08
1.5451e-08
-2.94243e-06
-1.97675e-08
1.34987e-08
1.50141e-08
-3.25382e-06
-1.91509e-08
1.33925e-08
1.46399e-08
-3.57302e-06
-1.86271e-08
1.43046e-08
-3.89942e-06
-1.81716e-08
1.26253e-08
5.63422e-09
1.22163e-08
-1.65366e-06
1.00705e-08
1.06849e-08
-2.03503e-06
1.35162e-08
9.97382e-09
-2.34553e-06
1.60906e-08
9.56177e-09
-2.64806e-06
1.78183e-08
9.26577e-09
-2.95412e-06
1.86918e-08
9.02876e-09
-3.26708e-06
1.86884e-08
8.82712e-09
-3.58797e-06
8.65284e-09
-3.91618e-06
1.77709e-08
6.39404e-09
2.80962e-09
-1.65825e-06
1.14054e-08
2.29746e-09
-2.04054e-06
1.52566e-08
2.1598e-09
-2.35192e-06
1.80924e-08
2.13011e-09
-2.65535e-06
1.99497e-08
2.12904e-09
-2.96236e-06
2.08315e-08
2.13494e-09
-3.27633e-06
2.07254e-08
2.14222e-09
-3.59827e-06
2.15059e-09
-3.92756e-06
1.96121e-08
6.76961e-09
-7.21982e-09
-1.66076e-06
1.20547e-08
-6.64266e-09
-2.04357e-06
1.61209e-08
-6.19198e-09
-2.35544e-06
1.91299e-08
-5.83939e-09
-2.65939e-06
2.11221e-08
-5.54865e-09
-2.96694e-06
2.20975e-08
-5.30068e-09
-3.2815e-06
2.20382e-08
-5.08089e-09
-3.60408e-06
-4.876e-09
-3.93404e-06
2.0912e-08
6.34117e-09
-1.67557e-08
-1.66086e-06
1.12719e-08
-1.51531e-08
-2.04375e-06
1.50379e-08
-1.41459e-08
-2.35563e-06
1.78011e-08
-1.34382e-08
-2.65956e-06
1.96086e-08
-1.28828e-08
-2.96708e-06
2.04694e-08
-1.24222e-08
-3.28159e-06
2.03735e-08
-1.20214e-08
-3.60409e-06
-1.16591e-08
-3.93396e-06
1.93014e-08
5.53641e-09
-2.51601e-08
-1.65868e-06
9.80964e-09
-2.2631e-08
-2.04121e-06
1.30977e-08
-2.11831e-08
-2.35268e-06
1.55539e-08
-2.02239e-08
-2.65617e-06
1.72205e-08
-1.94992e-08
-2.96322e-06
1.80973e-08
-1.89099e-08
-3.27722e-06
1.81616e-08
-1.83993e-08
-3.59922e-06
-1.7925e-08
-3.92857e-06
1.73658e-08
3.56309e-09
-1.65419e-06
-3.09331e-08
6.25079e-09
-2.03593e-06
-2.77776e-08
8.21793e-09
-2.34644e-06
-2.59958e-08
9.59292e-09
-2.64886e-06
-2.48407e-08
1.04361e-08
-2.95471e-06
-2.39903e-08
1.07825e-08
-3.26736e-06
-2.33204e-08
1.06481e-08
-3.58786e-06
-2.27581e-08
-3.91558e-06
-2.22614e-08
1.00437e-08
3.41692e-09
1.40096e-08
-1.64597e-06
-1.87112e-08
6.13621e-09
1.19695e-08
-2.02594e-06
-1.61012e-08
8.21925e-09
1.09955e-08
-2.3349e-06
-1.47746e-08
9.7408e-09
1.04192e-08
-2.63578e-06
-1.3949e-08
1.07251e-08
1.00199e-08
-2.94004e-06
-1.33559e-08
1.11797e-08
9.7211e-09
-3.25106e-06
-1.29018e-08
1.11027e-08
9.48418e-09
-3.56986e-06
-1.25377e-08
9.28575e-09
-3.89582e-06
-1.2238e-08
1.04896e-08
4.55412e-09
7.66049e-09
-1.65185e-06
8.13815e-09
6.39309e-09
-2.033e-06
1.09112e-08
5.83907e-09
-2.34312e-06
1.2977e-08
5.53955e-09
-2.64521e-06
1.43634e-08
5.34692e-09
-2.95079e-06
1.50698e-08
5.21234e-09
-3.26324e-06
1.50811e-08
5.11303e-09
-3.58358e-06
5.03934e-09
-3.91118e-06
1.43678e-08
5.10044e-09
4.25964e-10
-1.6561e-06
9.09459e-09
3.05982e-11
-2.03814e-06
1.21606e-08
-4.71059e-11
-2.34907e-06
1.44144e-08
-2.44548e-11
-2.65201e-06
1.58953e-08
2.46066e-11
-2.95848e-06
1.66121e-08
8.16749e-11
-3.27188e-06
1.65569e-08
1.41916e-10
-3.59321e-06
2.04565e-10
-3.92184e-06
1.57123e-08
5.34868e-09
-7.19402e-09
-1.65847e-06
9.52103e-09
-6.65759e-09
-2.04102e-06
1.27176e-08
-6.23264e-09
-2.35242e-06
1.50843e-08
-5.89543e-09
-2.65585e-06
1.66591e-08
-5.61295e-09
-2.96285e-06
1.74456e-08
-5.36829e-09
-3.2768e-06
1.74312e-08
-5.1491e-09
-3.59874e-06
-4.9441e-09
-3.92801e-06
1.65884e-08
4.96647e-09
-1.43402e-08
-1.65866e-06
8.82319e-09
-1.29252e-08
-2.04131e-06
1.17596e-08
-1.20317e-08
-2.35274e-06
1.39134e-08
-1.13996e-08
-2.65618e-06
1.53291e-08
-1.09035e-08
-2.96318e-06
1.60188e-08
-1.04936e-08
-3.27712e-06
1.59764e-08
-1.01392e-08
-3.59903e-06
-9.82085e-09
-3.92826e-06
1.51848e-08
4.28577e-09
-2.05154e-08
-1.65677e-06
7.59186e-09
-1.83124e-08
-2.0391e-06
1.01268e-08
-1.70448e-08
-2.35017e-06
1.20186e-08
-1.61986e-08
-2.65323e-06
1.33075e-08
-1.55627e-08
-2.95981e-06
1.39986e-08
-1.50524e-08
-3.27332e-06
1.40769e-08
-1.46181e-08
-3.59478e-06
-1.42229e-08
-3.92356e-06
1.35046e-08
2.7419e-09
-1.6528e-06
-2.46219e-08
4.80987e-09
-2.03441e-06
-2.18685e-08
6.31614e-09
-2.34465e-06
-2.03092e-08
7.36738e-09
-2.64679e-06
-1.92888e-08
8.01579e-09
-2.95235e-06
-1.85397e-08
8.29246e-09
-3.2647e-06
-1.79564e-08
8.21223e-09
-3.58489e-06
-1.74756e-08
-3.91228e-06
-1.70593e-08
7.78319e-09
2.81907e-09
8.23792e-09
-1.64513e-06
-1.18888e-08
5.05447e-09
6.52262e-09
-2.025e-06
-9.66315e-09
6.75153e-09
5.73806e-09
-2.33373e-06
-8.56696e-09
7.98248e-09
5.29576e-09
-2.63436e-06
-7.90633e-09
8.77734e-09
5.01888e-09
-2.93835e-06
-7.46329e-09
9.15109e-09
4.8411e-09
-3.24907e-06
-7.15638e-09
9.10759e-09
4.72553e-09
-3.56756e-06
-6.93865e-09
4.64892e-09
-3.89318e-06
-6.78282e-09
8.64332e-09
3.61871e-09
3.48546e-09
-1.65068e-06
6.4535e-09
2.4392e-09
-2.03171e-06
8.6279e-09
2.01772e-09
-2.34153e-06
1.02369e-08
1.81272e-09
-2.6433e-06
1.13142e-08
1.70821e-09
-2.94852e-06
1.1869e-08
1.66251e-09
-3.26057e-06
1.18952e-08
1.65328e-09
-3.58049e-06
1.66915e-09
-3.90763e-06
1.13709e-08
3.96751e-09
-1.80485e-09
-1.65475e-06
7.056e-09
-2.09798e-09
-2.03665e-06
9.40356e-09
-2.11098e-09
-2.34725e-06
1.11197e-08
-2.04832e-09
-2.64983e-06
1.22482e-08
-1.96006e-09
-2.95591e-06
1.28064e-08
-1.8604e-09
-3.26887e-06
1.27926e-08
-1.75297e-09
-3.58975e-06
-1.64237e-09
-3.91789e-06
1.21936e-08
4.08768e-09
-7.26406e-09
-1.65707e-06
7.25531e-09
-6.76293e-09
-2.03948e-06
9.66177e-09
-6.35948e-09
-2.35054e-06
1.14323e-08
-6.03647e-09
-2.6536e-06
1.26111e-08
-5.76191e-09
-2.96019e-06
1.32123e-08
-5.52033e-09
-3.2737e-06
1.32342e-08
-5.30127e-09
-3.59517e-06
-5.09525e-09
-3.92393e-06
1.26553e-08
3.73813e-09
-1.22611e-08
-1.65738e-06
6.61686e-09
-1.10069e-08
-2.0399e-06
8.78458e-09
-1.02114e-08
-2.35102e-06
1.03627e-08
-9.64493e-09
-2.65411e-06
1.14004e-08
-9.20138e-09
-2.96074e-06
1.19185e-08
-8.83674e-09
-3.27428e-06
1.1919e-08
-8.52371e-09
-3.59576e-06
-8.24449e-09
-3.92454e-06
1.13896e-08
3.16712e-09
-1.64357e-08
-1.65574e-06
5.58728e-09
-1.45087e-08
-2.03797e-06
7.41907e-09
-1.33964e-08
-2.34878e-06
8.77535e-09
-1.26502e-08
-2.65154e-06
9.70092e-09
-1.20946e-08
-2.95781e-06
1.02111e-08
-1.16568e-08
-3.27098e-06
1.03014e-08
-1.12925e-08
-3.59206e-06
-1.0969e-08
-3.92043e-06
9.94454e-09
1.97253e-09
-1.65218e-06
-1.90116e-08
3.43831e-09
-2.03374e-06
-1.66033e-08
4.4814e-09
-2.34381e-06
-1.52415e-08
5.19611e-09
-2.64577e-06
-1.43471e-08
5.63391e-09
-2.95114e-06
-1.36984e-08
5.82848e-09
-3.26331e-06
-1.32044e-08
5.79765e-09
-3.5833e-06
-1.28088e-08
-3.91048e-06
-1.24763e-08
5.54877e-09
2.29859e-09
2.83582e-09
-1.64473e-06
-5.51102e-09
4.09722e-09
1.39337e-09
-2.02452e-06
-3.61268e-09
5.43657e-09
7.6992e-10
-2.33307e-06
-2.71849e-09
6.39193e-09
4.41571e-10
-2.63351e-06
-2.20643e-09
7.00404e-09
2.69716e-10
-2.93729e-06
-1.90242e-09
7.29932e-09
1.98321e-10
-3.24779e-06
-1.73467e-09
7.29071e-09
1.92665e-10
-3.56603e-06
-1.65692e-09
2.29796e-10
-3.8914e-06
-1.63954e-09
6.97778e-09
2.79821e-09
-4.50966e-10
-1.65016e-06
4.95639e-09
-1.3113e-09
-2.03111e-06
6.57964e-09
-1.62231e-09
-2.34071e-06
7.75963e-09
-1.74514e-09
-2.64225e-06
8.54134e-09
-1.77075e-09
-2.94722e-06
8.94988e-09
-1.73614e-09
-3.259e-06
8.99227e-09
-1.66282e-09
-3.57863e-06
-1.56404e-09
-3.90545e-06
8.65606e-09
2.96134e-09
-3.96883e-09
-1.65417e-06
5.22264e-09
-4.17981e-09
-2.03599e-06
6.89897e-09
-4.14196e-09
-2.34636e-06
8.1022e-09
-4.04477e-09
-2.64869e-06
8.88575e-09
-3.91735e-09
-2.9545e-06
9.28161e-09
-3.77483e-09
-3.26718e-06
9.30214e-09
-3.62315e-09
-3.58776e-06
-3.46601e-09
-3.91557e-06
8.94023e-09
2.96136e-09
-7.45325e-09
-1.65652e-06
5.20325e-09
-6.9808e-09
-2.03888e-06
6.86235e-09
-6.59543e-09
-2.34971e-06
8.05618e-09
-6.28339e-09
-2.65251e-06
8.84446e-09
-6.01414e-09
-2.95883e-06
9.2583e-09
-5.77342e-09
-3.27208e-06
9.30967e-09
-5.55242e-09
-3.59325e-06
-5.34311e-09
-3.92168e-06
8.98727e-09
2.62889e-09
-1.04735e-08
-1.65696e-06
4.59676e-09
-9.35459e-09
-2.03945e-06
6.02907e-09
-8.64193e-09
-2.35036e-06
7.04349e-09
-8.13181e-09
-2.65324e-06
7.70129e-09
-7.73365e-09
-2.95963e-06
8.03962e-09
-7.40869e-09
-3.27294e-06
8.07478e-09
-7.13209e-09
-3.59418e-06
-6.88735e-09
-3.92267e-06
7.80241e-09
2.15371e-09
-1.2806e-08
-1.65553e-06
3.74263e-09
-1.11116e-08
-2.03776e-06
4.89713e-09
-1.01328e-08
-2.3484e-06
5.72624e-09
-9.47467e-09
-2.65099e-06
6.28752e-09
-8.99183e-09
-2.95707e-06
6.61326e-09
-8.62067e-09
-3.27005e-06
6.7146e-09
-8.32112e-09
-3.59093e-06
-8.0635e-09
-3.91907e-06
6.57659e-09
1.24646e-09
-1.65227e-06
-1.39345e-08
2.11465e-09
-2.03385e-06
-1.18218e-08
2.67971e-09
-2.34384e-06
-1.06342e-08
3.03262e-09
-2.64571e-06
-9.85578e-09
3.23371e-09
-2.95099e-06
-9.30373e-09
3.32735e-09
-3.26308e-06
-8.89884e-09
3.33998e-09
-3.583e-06
-8.58947e-09
-3.9101e-06
-8.34226e-09
3.28221e-09
1.84777e-09
-2.3662e-09
-1.6448e-06
6.06983e-10
3.22883e-09
-3.56433e-09
-2.02451e-06
2.22408e-09
4.21142e-09
-4.041e-09
-2.3329e-06
2.93707e-09
4.875e-09
-4.25606e-09
-2.63318e-06
3.31591e-09
5.28096e-09
-4.31921e-09
-2.93682e-06
3.49337e-09
5.47498e-09
-4.27835e-09
-3.24719e-06
3.53302e-09
5.48827e-09
-4.17182e-09
-3.56531e-06
3.4805e-09
-4.02279e-09
-3.89053e-06
3.36684e-09
5.32859e-09
2.06314e-09
-4.29681e-09
-1.65026e-06
3.57944e-09
-4.99475e-09
-2.03115e-06
4.65497e-09
-5.20292e-09
-2.34058e-06
5.39447e-09
-5.25126e-09
-2.64195e-06
5.86565e-09
-5.20489e-09
-2.94675e-06
6.11905e-09
-5.09534e-09
-3.25839e-06
6.18114e-09
-4.94405e-09
-3.57787e-06
-4.76569e-09
-3.90453e-06
6.0528e-09
2.05053e-09
-6.15173e-09
-1.65433e-06
3.51762e-09
-6.28607e-09
-2.03612e-06
4.53002e-09
-6.20225e-09
-2.34633e-06
5.20352e-09
-6.06947e-09
-2.6485e-06
5.61831e-09
-5.90718e-09
-2.95417e-06
5.83143e-09
-5.72482e-09
-3.26672e-06
5.87763e-09
-5.53017e-09
-3.58717e-06
-5.32798e-09
-3.91484e-06
5.7628e-09
1.93395e-09
-7.77971e-09
-1.6568e-06
3.28389e-09
-7.32852e-09
-2.03914e-06
4.19764e-09
-6.95509e-09
-2.34983e-06
4.79674e-09
-6.64998e-09
-2.65248e-06
5.16818e-09
-6.38299e-09
-2.95868e-06
5.37163e-09
-6.14057e-09
-3.27182e-06
5.44317e-09
-5.91505e-09
-3.59289e-06
-5.69969e-09
-3.92121e-06
5.3869e-09
1.60985e-09
-8.93499e-09
-1.65738e-06
2.68584e-09
-7.92719e-09
-2.03988e-06
3.3752e-09
-7.28279e-09
-2.35068e-06
3.79717e-09
-6.82015e-09
-2.65345e-06
4.0416e-09
-6.46045e-09
-2.95976e-06
4.17286e-09
-6.16949e-09
-3.273e-06
4.23151e-09
-5.92441e-09
-3.59418e-06
-5.7097e-09
-3.92261e-06
4.22771e-09
1.21755e-09
-9.52239e-09
-1.65613e-06
1.98375e-09
-8.02353e-09
-2.03839e-06
2.44669e-09
-7.15868e-09
-2.34895e-06
2.71852e-09
-6.57794e-09
-2.65146e-06
2.88358e-09
-6.161e-09
-2.95749e-06
3.00234e-09
-5.85144e-09
-3.27044e-06
3.11062e-09
-5.61192e-09
-3.59131e-06
-5.41544e-09
-3.91942e-06
3.21074e-09
5.54755e-10
-1.65307e-06
-9.2457e-09
7.96774e-10
-2.03469e-06
-7.38368e-09
8.34919e-10
-2.34464e-06
-6.34945e-09
7.71816e-10
-2.6465e-06
-5.67683e-09
6.84279e-10
-2.95181e-06
-5.21595e-09
6.39304e-10
-3.26395e-06
-4.89763e-09
6.85105e-10
-3.58394e-06
-4.67368e-09
-3.91111e-06
-4.51133e-09
8.40913e-10
1.43289e-09
-7.51424e-09
-1.64534e-06
6.6389e-09
2.3771e-09
-8.50349e-09
-2.02491e-06
8.00333e-09
2.94113e-09
-8.84753e-09
-2.33314e-06
8.55958e-09
3.24237e-09
-8.9643e-09
-2.63329e-06
8.814e-09
3.37319e-09
-8.92857e-09
-2.93685e-06
8.86998e-09
3.41769e-09
-8.78529e-09
-3.24718e-06
8.7839e-09
3.4377e-09
-8.57109e-09
-3.56531e-06
8.60204e-09
-8.31198e-09
-3.89055e-06
8.35655e-09
3.45964e-09
1.39129e-09
-8.15754e-09
-1.65097e-06
2.2401e-09
-8.70496e-09
-2.03175e-06
2.71534e-09
-8.82142e-09
-2.34104e-06
2.94386e-09
-8.80003e-09
-2.6423e-06
3.03614e-09
-8.68466e-09
-2.94705e-06
3.08305e-09
-8.5015e-09
-3.25868e-06
3.14861e-09
-8.27349e-09
-3.57819e-06
-8.01539e-09
-3.90488e-06
3.25517e-09
1.19799e-09
-8.41749e-09
-1.65524e-06
1.8423e-09
-8.47845e-09
-2.03695e-06
2.12367e-09
-8.34985e-09
-2.34705e-06
2.18971e-09
-8.18249e-09
-2.64914e-06
2.15813e-09
-7.98508e-09
-2.95479e-06
2.13167e-09
-7.76311e-09
-3.26739e-06
2.18416e-09
-7.5253e-09
-3.58793e-06
-7.27707e-09
-3.9157e-06
2.34588e-09
9.63742e-10
-8.2598e-09
-1.65789e-06
1.39075e-09
-7.81866e-09
-2.04018e-06
1.48371e-09
-7.45239e-09
-2.35078e-06
1.40726e-09
-7.14901e-09
-2.6534e-06
1.27953e-09
-6.8808e-09
-2.95962e-06
1.21205e-09
-6.63374e-09
-3.27284e-06
1.28316e-09
-6.401e-09
-3.59404e-06
-6.1767e-09
-3.9225e-06
1.5235e-09
6.27116e-10
-7.60432e-09
-1.65864e-06
7.74866e-10
-6.68457e-09
-2.04112e-06
6.31235e-10
-6.09513e-09
-2.35186e-06
3.73725e-10
-5.67168e-09
-2.65463e-06
1.17349e-10
-5.34351e-09
-2.961e-06
-2.2343e-11
-5.08116e-09
-3.27437e-06
3.74417e-11
-4.86298e-09
-3.59574e-06
-4.67496e-09
-3.92436e-06
3.35219e-10
3.00116e-10
-6.48495e-09
-1.65752e-06
2.0722e-10
-5.15268e-09
-2.03978e-06
-1.09448e-10
-4.38325e-09
-2.35031e-06
-4.87225e-10
-3.87045e-09
-2.65285e-06
-8.05206e-10
-3.51263e-09
-2.95897e-06
-9.5445e-10
-3.26e-09
-3.27207e-06
-8.55848e-10
-3.0769e-09
-3.59315e-06
-2.93739e-09
-3.92149e-06
-4.78737e-10
-1.55693e-10
-1.65457e-06
-4.80356e-09
-5.97082e-10
-2.0362e-06
-3.15863e-09
-1.17957e-09
-2.34615e-06
-2.25658e-09
-1.76761e-09
-2.64807e-06
-1.68375e-09
-2.24209e-09
-2.9535e-06
-1.31355e-09
-2.49437e-09
-3.26584e-06
-1.08206e-09
-2.4392e-09
-3.58609e-06
-9.46392e-10
-3.91354e-06
-8.69808e-10
-2.03509e-09
1.00891e-09
-1.27415e-08
-1.64632e-06
1.27243e-08
1.41705e-09
-1.35482e-08
-2.0256e-06
1.38691e-08
1.42653e-09
-1.37759e-08
-2.33362e-06
1.42806e-08
1.20674e-09
-1.37984e-08
-2.63366e-06
1.44201e-08
9.15216e-10
-1.36693e-08
-2.93721e-06
1.43594e-08
6.9966e-10
-1.34259e-08
-3.24766e-06
1.41501e-08
6.84827e-10
-1.31065e-08
-3.566e-06
1.38388e-08
-1.27374e-08
-3.89149e-06
1.34604e-08
9.31166e-10
7.04527e-10
-1.21334e-08
-1.65226e-06
7.96514e-10
-1.25442e-08
-2.03281e-06
5.14354e-10
-1.25763e-08
-2.34192e-06
7.16513e-11
-1.24917e-08
-2.64313e-06
-3.68412e-10
-1.23088e-08
-2.94794e-06
-6.40214e-10
-1.20534e-08
-3.25975e-06
-6.15113e-10
-1.17483e-08
-3.57954e-06
-1.14094e-08
-3.90657e-06
-2.26958e-10
3.05995e-10
-1.08244e-08
-1.65683e-06
3.68232e-11
-1.08191e-08
-2.03837e-06
-5.73112e-10
-1.06444e-08
-2.34834e-06
-1.30048e-09
-1.04451e-08
-2.65043e-06
-1.9491e-09
-1.02117e-08
-2.95621e-06
-2.33919e-09
-9.95e-09
-3.26908e-06
-2.32803e-09
-9.66855e-09
-3.58999e-06
-9.37321e-09
-3.91819e-06
-1.83875e-09
-5.70593e-11
-8.90096e-09
-1.65973e-06
-6.62906e-10
-8.46936e-09
-2.04189e-06
-1.54896e-09
-8.09954e-09
-2.3524e-06
-2.4995e-09
-7.79499e-09
-2.65507e-06
-3.30395e-09
-7.52173e-09
-2.96148e-06
-3.77251e-09
-7.2667e-09
-3.27502e-06
-3.7534e-09
-7.02363e-09
-3.59668e-06
-6.78751e-09
-3.92564e-06
-3.16429e-09
-4.00058e-10
-6.43768e-09
-1.66067e-06
-1.31781e-09
-5.59352e-09
-2.04304e-06
-2.45587e-09
-5.048e-09
-2.35374e-06
-3.60608e-09
-4.65126e-09
-2.65659e-06
-4.55211e-09
-4.34976e-09
-2.96319e-06
-5.09988e-09
-4.11024e-09
-3.27695e-06
-5.09201e-09
-3.91377e-09
-3.59883e-06
-3.74695e-09
-3.92803e-06
-4.44e-09
-6.5762e-10
-3.61395e-09
-1.65967e-06
-1.76603e-09
-2.41241e-09
-2.04182e-06
-3.03702e-09
-1.72426e-09
-2.35233e-06
-4.26527e-09
-1.26797e-09
-2.65497e-06
-5.25263e-09
-9.53745e-10
-2.96135e-06
-5.80323e-09
-7.48335e-10
-3.27486e-06
-5.76588e-09
-6.12535e-10
-3.59646e-06
-5.29145e-10
-3.92539e-06
-5.05378e-09
-9.25754e-10
-1.65673e-06
-5.06346e-10
-2.19997e-09
-2.03825e-06
9.36687e-10
-3.59417e-09
-2.34818e-06
1.72959e-09
-4.91939e-09
-2.65021e-06
2.23234e-09
-5.97291e-09
-2.95591e-06
2.53809e-09
-6.57126e-09
-3.26866e-06
2.70261e-09
-6.56042e-09
-3.58945e-06
2.77088e-09
-3.91751e-06
2.77293e-09
-5.85614e-09
5.02239e-10
-1.81947e-08
1.90194e-08
-1.64763e-06
1.7095e-10
-1.88282e-08
1.99548e-08
-2.02637e-06
-6.58294e-10
-1.89391e-08
2.02322e-08
-2.33406e-06
-1.70316e-09
-1.88773e-08
2.02659e-08
-2.63399e-06
-2.69618e-09
-1.86587e-08
2.00941e-08
-2.93764e-06
-3.37668e-09
-1.8319e-08
1.97651e-08
-3.24841e-06
-3.52494e-09
-1.7896e-08
1.93274e-08
-3.56727e-06
-1.7417e-08
1.88164e-08
-3.01781e-09
-3.89338e-06
-8.65971e-11
-1.63271e-08
-1.65402e-06
-9.85482e-10
-1.66212e-08
-2.0341e-06
-2.30594e-09
-1.65678e-08
-2.34296e-06
-3.75548e-09
-1.64189e-08