/*--------------------------------*- C++ -*----------------------------------*\
| =========                 |                                                 |
| \\      /  F ield         | OpenFOAM: The Open Source CFD Toolbox           |
|  \\    /   O peration     | Version:  plus.master.MPPICInterFoam            |
|   \\  /    A nd           | Web:      www.OpenFOAM.com                      |
|    \\/     M anipulation  |                                                 |
\*---------------------------------------------------------------------------*/
FoamFile
{
    version     2.0;
    format      ascii;
    class       volScalarField;
    location    "5.4";
    object      nut;
}
// * * * * * * * * * * * * * * * * * * * * * * * * * * * * * * * * * * * * * //

dimensions      [0 2 -1 0 0 0 0];

internalField   nonuniform List<scalar> 
11821
(
4.67242e-06
2.08e-05
3.61822e-05
4.60056e-05
5.1797e-05
5.46965e-05
5.52762e-05
5.37268e-05
4.67715e-06
2.05911e-05
3.59646e-05
4.58437e-05
5.16906e-05
5.46365e-05
5.52543e-05
5.37369e-05
4.68102e-06
2.04841e-05
3.58501e-05
4.57571e-05
5.16328e-05
5.46025e-05
5.52388e-05
5.37352e-05
4.68346e-06
2.04329e-05
3.57974e-05
4.57173e-05
5.16057e-05
5.45858e-05
5.52306e-05
5.37339e-05
4.68465e-06
2.04667e-05
3.58353e-05
4.5746e-05
5.16243e-05
5.45956e-05
5.52327e-05
5.37293e-05
4.68443e-06
2.05524e-05
3.59326e-05
4.58204e-05
5.16732e-05
5.46227e-05
5.52424e-05
5.37254e-05
4.68339e-06
2.07715e-05
3.61663e-05
4.59959e-05
5.17891e-05
5.46872e-05
5.5263e-05
5.37076e-05
4.67037e-06
2.08636e-05
3.62438e-05
4.60453e-05
5.1817e-05
5.47011e-05
5.52687e-05
5.37096e-05
4.67439e-06
2.06862e-05
3.606e-05
4.59094e-05
5.17283e-05
5.46519e-05
5.52523e-05
5.3721e-05
4.67767e-06
2.059e-05
3.5958e-05
4.58328e-05
5.16777e-05
5.46228e-05
5.52401e-05
5.37217e-05
4.67971e-06
2.05412e-05
3.59078e-05
4.57953e-05
5.16525e-05
5.46078e-05
5.52333e-05
5.37219e-05
4.68058e-06
2.0566e-05
3.59351e-05
4.58158e-05
5.16657e-05
5.46145e-05
5.52345e-05
5.37179e-05
4.68015e-06
2.06355e-05
3.60127e-05
4.58747e-05
5.17042e-05
5.46357e-05
5.52418e-05
5.37145e-05
4.67886e-06
2.08138e-05
3.62006e-05
4.60146e-05
5.1796e-05
5.46862e-05
5.5257e-05
5.36985e-05
4.66902e-06
2.09168e-05
3.62969e-05
4.60813e-05
5.18369e-05
5.47079e-05
5.52649e-05
5.36969e-05
4.67255e-06
2.07692e-05
3.61451e-05
4.59696e-05
5.17643e-05
5.46681e-05
5.52524e-05
5.37079e-05
4.67541e-06
2.06857e-05
3.60573e-05
4.59043e-05
5.17214e-05
5.46436e-05
5.52426e-05
5.37096e-05
4.67716e-06
2.06418e-05
3.60123e-05
4.58709e-05
5.16991e-05
5.46306e-05
5.52371e-05
5.37104e-05
4.67782e-06
2.06599e-05
3.60319e-05
4.58854e-05
5.17084e-05
5.46352e-05
5.52377e-05
5.37072e-05
4.67726e-06
2.07161e-05
3.60936e-05
4.59318e-05
5.17385e-05
5.46516e-05
5.52431e-05
5.37041e-05
4.67584e-06
2.08595e-05
3.62428e-05
4.60421e-05
5.18105e-05
5.46908e-05
5.52543e-05
5.36905e-05
4.66815e-06
2.09616e-05
3.63426e-05
4.61134e-05
5.18556e-05
5.47153e-05
5.5263e-05
5.36873e-05
4.67137e-06
2.08412e-05
3.62199e-05
4.60236e-05
5.17974e-05
5.46836e-05
5.52534e-05
5.36968e-05
4.67395e-06
2.07707e-05
3.61466e-05
4.59694e-05
5.1762e-05
5.46636e-05
5.52457e-05
5.36987e-05
4.6755e-06
2.07329e-05
3.61081e-05
4.5941e-05
5.17432e-05
5.46526e-05
5.52412e-05
5.36998e-05
4.67602e-06
2.07461e-05
3.61222e-05
4.59514e-05
5.17497e-05
5.46557e-05
5.52413e-05
5.36971e-05
4.6754e-06
2.07913e-05
3.61709e-05
4.59877e-05
5.17731e-05
5.46684e-05
5.52454e-05
5.36944e-05
4.67391e-06
2.09052e-05
3.62879e-05
4.60736e-05
5.18289e-05
5.46986e-05
5.52537e-05
5.36832e-05
4.66764e-06
2.09998e-05
3.63823e-05
4.61419e-05
5.18726e-05
5.47226e-05
5.52621e-05
5.36796e-05
4.67069e-06
2.09034e-05
3.62852e-05
4.60714e-05
5.18271e-05
5.46979e-05
5.52548e-05
5.36872e-05
4.6731e-06
2.08455e-05
3.62258e-05
4.6028e-05
5.17989e-05
5.46819e-05
5.52486e-05
5.36888e-05
4.67455e-06
2.0814e-05
3.61942e-05
4.60048e-05
5.17836e-05
5.4673e-05
5.52449e-05
5.36897e-05
4.67499e-06
2.08238e-05
3.62044e-05
4.60123e-05
5.17882e-05
5.46751e-05
5.52448e-05
5.36874e-05
4.67433e-06
2.08599e-05
3.62426e-05
4.60404e-05
5.18062e-05
5.46847e-05
5.52478e-05
5.36851e-05
4.67282e-06
2.09491e-05
3.63332e-05
4.61064e-05
5.18489e-05
5.47077e-05
5.52539e-05
5.36762e-05
4.66745e-06
2.10327e-05
3.6417e-05
4.61672e-05
5.18881e-05
5.47295e-05
5.52617e-05
5.36729e-05
4.67044e-06
2.09572e-05
3.63422e-05
4.61136e-05
5.18537e-05
5.47107e-05
5.5256e-05
5.36786e-05
4.67277e-06
2.0911e-05
3.62959e-05
4.60802e-05
5.1832e-05
5.46984e-05
5.52511e-05
5.36795e-05
4.67418e-06
2.08857e-05
3.6271e-05
4.60622e-05
5.18202e-05
5.46914e-05
5.52481e-05
5.36799e-05
4.67458e-06
2.08931e-05
3.62786e-05
4.60677e-05
5.18236e-05
5.46928e-05
5.52478e-05
5.36779e-05
4.67391e-06
2.09216e-05
3.63081e-05
4.60892e-05
5.18372e-05
5.47001e-05
5.52499e-05
5.36761e-05
4.67238e-06
2.09906e-05
3.6377e-05
4.61389e-05
5.18692e-05
5.47173e-05
5.52545e-05
5.36693e-05
4.66755e-06
2.10616e-05
3.64479e-05
4.61903e-05
5.19025e-05
5.4736e-05
5.52614e-05
5.36668e-05
4.67057e-06
2.1004e-05
3.63925e-05
4.61513e-05
5.18776e-05
5.47223e-05
5.52569e-05
5.36703e-05
4.67292e-06
2.09685e-05
3.63579e-05
4.61269e-05
5.18618e-05
5.47131e-05
5.52529e-05
5.36704e-05
4.67434e-06
2.0949e-05
3.63393e-05
4.61137e-05
5.18531e-05
5.47078e-05
5.52503e-05
5.36701e-05
4.67474e-06
2.09546e-05
3.63452e-05
4.6118e-05
5.18557e-05
5.47088e-05
5.52499e-05
5.36683e-05
4.67407e-06
2.09767e-05
3.63675e-05
4.6134e-05
5.18658e-05
5.47141e-05
5.52514e-05
5.36668e-05
4.6725e-06
2.10291e-05
3.64187e-05
4.61705e-05
5.18891e-05
5.47266e-05
5.52547e-05
5.36619e-05
4.66798e-06
2.10874e-05
3.64763e-05
4.62119e-05
5.19162e-05
5.47421e-05
5.52609e-05
5.36604e-05
4.67112e-06
2.10451e-05
3.64374e-05
4.61855e-05
5.18994e-05
5.47326e-05
5.52572e-05
5.36618e-05
4.67356e-06
2.1019e-05
3.64133e-05
4.61691e-05
5.18889e-05
5.47262e-05
5.52538e-05
5.36607e-05
4.67503e-06
2.10048e-05
3.64005e-05
4.61604e-05
5.18831e-05
5.47224e-05
5.52515e-05
5.36597e-05
4.67546e-06
2.10093e-05
3.64053e-05
4.6164e-05
5.18852e-05
5.47231e-05
5.52508e-05
5.36578e-05
4.6748e-06
2.1026e-05
3.64216e-05
4.61755e-05
5.18923e-05
5.47268e-05
5.52519e-05
5.36567e-05
4.67318e-06
2.10647e-05
3.64584e-05
4.62012e-05
5.19087e-05
5.47356e-05
5.52544e-05
5.36536e-05
4.66877e-06
2.1111e-05
3.65032e-05
4.62331e-05
5.19297e-05
5.4748e-05
5.52597e-05
5.36531e-05
4.67213e-06
2.10818e-05
3.64785e-05
4.62175e-05
5.192e-05
5.4742e-05
5.52564e-05
5.36522e-05
4.67473e-06
2.1064e-05
3.64638e-05
4.62083e-05
5.19141e-05
5.47379e-05
5.52533e-05
5.36497e-05
4.67632e-06
2.10545e-05
3.64562e-05
4.62037e-05
5.19109e-05
5.47354e-05
5.52511e-05
5.36477e-05
4.6768e-06
2.10582e-05
3.64603e-05
4.62069e-05
5.19127e-05
5.47358e-05
5.52503e-05
5.36457e-05
4.67613e-06
2.10704e-05
3.64718e-05
4.62146e-05
5.19175e-05
5.47382e-05
5.52509e-05
5.3645e-05
4.67443e-06
2.1098e-05
3.64967e-05
4.62315e-05
5.19281e-05
5.47441e-05
5.52529e-05
5.36434e-05
4.67002e-06
2.11335e-05
3.65302e-05
4.62553e-05
5.1944e-05
5.47537e-05
5.52573e-05
5.36435e-05
4.6737e-06
2.11154e-05
3.65178e-05
4.6249e-05
5.19403e-05
5.47506e-05
5.52541e-05
5.36402e-05
4.67654e-06
2.1105e-05
3.65114e-05
4.62463e-05
5.19385e-05
5.47484e-05
5.52509e-05
5.3636e-05
4.6783e-06
2.10997e-05
3.65086e-05
4.62454e-05
5.19377e-05
5.47469e-05
5.52486e-05
5.36329e-05
4.67885e-06
2.1103e-05
3.65124e-05
4.62484e-05
5.19394e-05
5.47472e-05
5.52475e-05
5.36306e-05
4.67817e-06
2.11113e-05
3.65197e-05
4.62531e-05
5.19421e-05
5.47486e-05
5.52479e-05
5.36303e-05
4.67635e-06
2.11295e-05
3.65348e-05
4.62626e-05
5.1948e-05
5.4752e-05
5.52496e-05
5.36303e-05
4.67187e-06
2.11563e-05
3.65596e-05
4.62803e-05
5.19601e-05
5.47594e-05
5.52526e-05
5.36297e-05
4.67598e-06
2.11479e-05
3.6558e-05
4.62824e-05
5.19617e-05
5.47586e-05
5.52491e-05
5.36236e-05
4.67916e-06
2.11438e-05
3.6559e-05
4.62855e-05
5.19635e-05
5.47578e-05
5.52454e-05
5.36173e-05
4.68115e-06
2.11423e-05
3.65606e-05
4.62881e-05
5.19649e-05
5.47572e-05
5.52428e-05
5.36129e-05
4.68181e-06
2.11454e-05
3.65645e-05
4.62912e-05
5.19666e-05
5.47573e-05
5.52414e-05
5.36101e-05
4.68109e-06
2.11505e-05
3.65681e-05
4.62932e-05
5.19676e-05
5.47578e-05
5.52416e-05
5.36103e-05
4.67911e-06
2.11607e-05
3.65748e-05
4.62964e-05
5.19695e-05
5.47594e-05
5.52432e-05
5.36119e-05
4.67451e-06
2.11821e-05
3.6595e-05
4.63113e-05
5.19799e-05
5.4765e-05
5.52438e-05
5.3608e-05
4.67921e-06
2.11818e-05
3.6603e-05
4.63211e-05
5.19861e-05
5.47659e-05
5.52392e-05
5.35986e-05
4.68286e-06
2.11834e-05
3.66107e-05
4.63296e-05
5.19912e-05
5.47661e-05
5.52346e-05
5.35896e-05
4.68518e-06
2.11851e-05
3.66164e-05
4.63354e-05
5.19945e-05
5.4766e-05
5.52312e-05
5.35833e-05
4.68597e-06
2.11883e-05
3.66205e-05
4.63388e-05
5.19962e-05
5.47658e-05
5.52292e-05
5.35799e-05
4.6852e-06
2.11907e-05
3.66212e-05
4.63385e-05
5.19957e-05
5.47656e-05
5.52294e-05
5.35806e-05
4.68301e-06
2.11938e-05
3.66203e-05
4.6336e-05
5.19941e-05
5.47656e-05
5.52312e-05
5.3584e-05
4.67828e-06
2.12149e-05
3.6642e-05
4.63531e-05
5.20054e-05
5.47695e-05
5.52265e-05
5.35712e-05
4.68375e-06
2.12218e-05
3.6659e-05
4.63701e-05
5.20158e-05
5.47712e-05
5.52197e-05
5.35572e-05
4.68805e-06
2.12285e-05
3.66732e-05
4.63836e-05
5.20237e-05
5.47718e-05
5.52132e-05
5.35445e-05
4.69081e-06
2.12328e-05
3.66823e-05
4.63924e-05
5.20286e-05
5.47718e-05
5.52086e-05
5.35358e-05
4.69181e-06
2.12352e-05
3.66866e-05
4.63962e-05
5.20305e-05
5.47715e-05
5.52061e-05
5.35315e-05
4.69094e-06
2.12349e-05
3.66846e-05
4.63941e-05
5.20291e-05
5.4771e-05
5.52066e-05
5.35329e-05
4.68835e-06
2.12331e-05
3.66781e-05
4.63873e-05
5.2025e-05
5.47705e-05
5.52096e-05
5.3539e-05
4.68361e-06
2.12618e-05
3.67099e-05
4.64123e-05
5.2039e-05
5.47693e-05
5.51911e-05
5.35043e-05
4.69009e-06
2.12753e-05
3.67355e-05
4.64365e-05
5.20532e-05
5.47712e-05
5.51809e-05
5.34838e-05
4.6952e-06
2.12861e-05
3.67564e-05
4.64558e-05
5.20642e-05
5.4772e-05
5.51719e-05
5.34663e-05
4.69849e-06
2.12935e-05
3.677e-05
4.64683e-05
5.20712e-05
5.47721e-05
5.51654e-05
5.34542e-05
4.69967e-06
2.12967e-05
3.67755e-05
4.64731e-05
5.20736e-05
5.47715e-05
5.5162e-05
5.34484e-05
4.69863e-06
2.12947e-05
3.67714e-05
4.64693e-05
5.20712e-05
5.47709e-05
5.5163e-05
5.34507e-05
4.69552e-06
2.12888e-05
3.67594e-05
4.64583e-05
5.20649e-05
5.47704e-05
5.51681e-05
5.34605e-05
4.66288e-06
2.12693e-05
3.66693e-05
4.63536e-05
5.20048e-05
5.47871e-05
5.52738e-05
5.36533e-05
4.67066e-06
2.14622e-05
3.6888e-05
4.65186e-05
5.20989e-05
5.48067e-05
5.52232e-05
5.3541e-05
4.67076e-06
2.15147e-05
3.69719e-05
4.66048e-05
5.2162e-05
4.6992e-06
2.20601e-05
4.66535e-06
4.65719e-06
2.12513e-05
3.66349e-05
4.632e-05
5.19791e-05
5.47709e-05
5.5266e-05
5.36516e-05
4.66205e-06
2.13945e-05
3.67948e-05
4.64391e-05
5.20458e-05
5.4784e-05
5.52278e-05
5.35678e-05
4.66074e-06
2.14143e-05
3.68313e-05
4.64796e-05
5.20821e-05
5.48148e-05
5.52645e-05
5.36135e-05
4.67937e-06
2.17921e-05
3.72595e-05
4.68147e-05
5.2295e-05
5.48959e-05
5.5196e-05
5.33964e-05
4.65657e-06
2.14055e-05
3.68165e-05
4.6464e-05
5.20717e-05
5.48125e-05
5.52619e-05
5.36112e-05
4.65672e-06
2.14281e-05
3.68178e-05
4.64496e-05
5.20471e-05
5.47791e-05
5.52181e-05
5.35549e-05
4.6478e-06
2.1264e-05
3.66349e-05
4.63146e-05
5.19731e-05
5.47664e-05
5.52634e-05
5.36499e-05
4.65349e-06
2.12383e-05
3.66114e-05
4.62979e-05
5.19631e-05
5.47619e-05
5.5263e-05
5.36527e-05
4.65628e-06
2.13437e-05
3.67271e-05
4.63827e-05
5.20095e-05
5.47694e-05
5.52331e-05
5.35899e-05
4.6543e-06
2.13466e-05
3.67375e-05
4.63964e-05
5.20249e-05
5.47871e-05
5.5256e-05
5.36208e-05
4.66654e-06
2.16092e-05
3.70321e-05
4.66229e-05
5.21609e-05
5.48254e-05
5.51914e-05
5.34554e-05
4.65126e-06
2.13447e-05
3.67323e-05
4.63898e-05
5.20179e-05
5.47807e-05
5.52503e-05
5.36157e-05
4.65231e-06
2.13796e-05
3.67564e-05
4.63998e-05
5.20163e-05
5.47682e-05
5.52257e-05
5.35777e-05
4.64654e-06
2.12596e-05
3.66249e-05
4.63039e-05
5.19646e-05
5.47607e-05
5.52601e-05
5.36485e-05
4.65105e-06
2.12272e-05
3.65933e-05
4.62815e-05
5.19519e-05
5.4756e-05
5.52615e-05
5.36541e-05
4.65237e-06
2.13046e-05
3.66766e-05
4.63418e-05
5.19842e-05
5.47606e-05
5.52394e-05
5.36087e-05
4.65011e-06
2.12998e-05
3.66743e-05
4.63419e-05
5.19871e-05
5.47674e-05
5.52522e-05
5.36291e-05
4.6581e-06
2.14827e-05
3.68773e-05
4.64959e-05
5.20772e-05
5.4789e-05
5.52027e-05
5.35113e-05
4.64778e-06
2.1302e-05
3.66744e-05
4.63404e-05
5.19844e-05
5.4764e-05
5.52485e-05
5.36255e-05
4.64918e-06
2.13388e-05
3.67062e-05
4.636e-05
5.19925e-05
5.47608e-05
5.52333e-05
5.35975e-05
4.6455e-06
2.12513e-05
3.66118e-05
4.62919e-05
5.19561e-05
5.47559e-05
5.52584e-05
5.36487e-05
4.64933e-06
2.12163e-05
3.65772e-05
4.62677e-05
5.19427e-05
5.47516e-05
5.52608e-05
5.36559e-05
4.6496e-06
2.12728e-05
3.66365e-05
4.63097e-05
5.19648e-05
5.47541e-05
5.52448e-05
5.36236e-05
4.64723e-06
2.12652e-05
3.66286e-05
4.6304e-05
5.19624e-05
5.47562e-05
5.52527e-05
5.36386e-05
4.65236e-06
2.13931e-05
3.6769e-05
4.64091e-05
5.20224e-05
5.47685e-05
5.52162e-05
5.35555e-05
4.6453e-06
2.1269e-05
3.66307e-05
4.6304e-05
5.1961e-05
5.47539e-05
5.52499e-05
5.36355e-05
4.64675e-06
2.13032e-05
3.6663e-05
4.63259e-05
5.19721e-05
5.47543e-05
5.52393e-05
5.36136e-05
4.64451e-06
2.12397e-05
3.65957e-05
4.62779e-05
5.19468e-05
5.47513e-05
5.52575e-05
5.36505e-05
4.64803e-06
2.1205e-05
3.65617e-05
4.62547e-05
5.19343e-05
5.47477e-05
5.52605e-05
5.3658e-05
4.64751e-06
2.12458e-05
3.66028e-05
4.62829e-05
5.19486e-05
5.47486e-05
5.52488e-05
5.36353e-05
4.6451e-06
2.12373e-05
3.65925e-05
4.62744e-05
5.19435e-05
5.47481e-05
5.52538e-05
5.36465e-05
4.64827e-06
2.13273e-05
3.66899e-05
4.63463e-05
5.19838e-05
5.47554e-05
5.52276e-05
5.35888e-05
4.64336e-06
2.12414e-05
3.65946e-05
4.62744e-05
5.19422e-05
5.47461e-05
5.52514e-05
5.36441e-05
4.64471e-06
2.12711e-05
3.66241e-05
4.62951e-05
5.19535e-05
5.4748e-05
5.52438e-05
5.36269e-05
4.64347e-06
2.12253e-05
3.65767e-05
4.62618e-05
5.19362e-05
5.47463e-05
5.5257e-05
5.36532e-05
4.64696e-06
2.11928e-05
3.65457e-05
4.62417e-05
5.19261e-05
5.47439e-05
5.52602e-05
5.36602e-05
4.6458e-06
2.12217e-05
3.6573e-05
4.62592e-05
5.19342e-05
5.47434e-05
5.52516e-05
5.36445e-05
4.64338e-06
2.1213e-05
3.65614e-05
4.62492e-05
5.19276e-05
5.47413e-05
5.52546e-05
5.36529e-05
4.64515e-06
2.12765e-05
3.66289e-05
4.62981e-05
5.19545e-05
5.47456e-05
5.52361e-05
5.36132e-05
4.64169e-06
2.12164e-05
3.65624e-05
4.62479e-05
5.19255e-05
5.47389e-05
5.52524e-05
5.36511e-05
4.64285e-06
2.12413e-05
3.65878e-05
4.62661e-05
5.19357e-05
5.47413e-05
5.52469e-05
5.36379e-05
4.64232e-06
2.12085e-05
3.65547e-05
4.62435e-05
5.19242e-05
5.47406e-05
5.52564e-05
5.36564e-05
4.646e-06
2.11795e-05
3.65291e-05
4.62284e-05
5.19178e-05
5.474e-05
5.52598e-05
5.36623e-05
4.64429e-06
2.11992e-05
3.65454e-05
4.62374e-05
5.19208e-05
5.47382e-05
5.52533e-05
5.36518e-05
4.6419e-06
2.11903e-05
3.65328e-05
4.62261e-05
5.19131e-05
5.47348e-05
5.52547e-05
5.3658e-05
4.64261e-06
2.12353e-05
3.65792e-05
4.62589e-05
5.19306e-05
5.47371e-05
5.52419e-05
5.3631e-05
4.64014e-06
2.11922e-05
3.65315e-05
4.62228e-05
5.19094e-05
5.47317e-05
5.52525e-05
5.36567e-05
4.64105e-06
2.12127e-05
3.65527e-05
4.62381e-05
5.19183e-05
5.47342e-05
5.52487e-05
5.36468e-05
4.64106e-06
2.11892e-05
3.653e-05
4.6223e-05
5.19109e-05
5.4734e-05
5.52555e-05
5.36597e-05
4.64513e-06
2.1165e-05
3.65117e-05
4.6215e-05
5.19095e-05
5.4736e-05
5.5259e-05
5.36638e-05
4.64291e-06
2.11773e-05
3.6519e-05
4.62168e-05
5.19082e-05
5.47329e-05
5.52541e-05
5.36572e-05
4.64056e-06
2.1168e-05
3.65051e-05
4.62042e-05
5.18992e-05
5.47282e-05
5.52541e-05
5.36616e-05
4.6404e-06
2.11998e-05
3.65364e-05
4.62253e-05
5.191e-05
5.47292e-05
5.52453e-05
5.36437e-05
4.63864e-06
2.11677e-05
3.65007e-05
4.6198e-05
5.18935e-05
5.4724e-05
5.52516e-05
5.36608e-05
4.63928e-06
2.11844e-05
3.6518e-05
4.62105e-05
5.19009e-05
5.47265e-05
5.52492e-05
5.36538e-05
4.63973e-06
2.11675e-05
3.65027e-05
4.62007e-05
5.18962e-05
5.47265e-05
5.52537e-05
5.36624e-05
4.6444e-06
2.11492e-05
3.64938e-05
4.62019e-05
5.19015e-05
5.47319e-05
5.52576e-05
5.36641e-05
4.64164e-06
2.11554e-05
3.64935e-05
4.61976e-05
5.18966e-05
5.47275e-05
5.52536e-05
5.36603e-05
4.63934e-06
2.11452e-05
3.64781e-05
4.61833e-05
5.1886e-05
5.47215e-05
5.52523e-05
5.36635e-05
4.63846e-06
2.11676e-05
3.64981e-05
4.61956e-05
5.18918e-05
5.47215e-05
5.52465e-05
5.36521e-05
4.6372e-06
2.1142e-05
3.64696e-05
4.61734e-05
5.18777e-05
5.47159e-05
5.52494e-05
5.36631e-05
4.63755e-06
2.11559e-05
3.64836e-05
4.61834e-05
5.18838e-05
5.47183e-05
5.52484e-05
5.36586e-05
4.63842e-06
2.11429e-05
3.6473e-05
4.61771e-05
5.18806e-05
5.4718e-05
5.52508e-05
5.36639e-05
4.64383e-06
2.11325e-05
3.64768e-05
4.61905e-05
5.18948e-05
5.47281e-05
5.5255e-05
5.3662e-05
4.64062e-06
2.11335e-05
3.64697e-05
4.61807e-05
5.18865e-05
5.47223e-05
5.52516e-05
5.36603e-05
4.6383e-06
2.1122e-05
3.64524e-05
4.61644e-05
5.18742e-05
5.47149e-05
5.5249e-05
5.36624e-05
4.6368e-06
2.11376e-05
3.64637e-05
4.61699e-05
5.18761e-05
5.47141e-05
5.52455e-05
5.36558e-05
4.63594e-06
2.11146e-05
3.64387e-05
4.61501e-05
5.18627e-05
5.47074e-05
5.52455e-05
5.36626e-05
4.63598e-06
2.11267e-05
3.64499e-05
4.61578e-05
5.18676e-05
5.47099e-05
5.52457e-05
5.36603e-05
4.63725e-06
2.11152e-05
3.6442e-05
4.61535e-05
5.18654e-05
5.47093e-05
5.52468e-05
5.36635e-05
4.64349e-06
2.11173e-05
3.64639e-05
4.61838e-05
5.18916e-05
5.47253e-05
5.52506e-05
5.36555e-05
4.63997e-06
2.11125e-05
3.645e-05
4.61685e-05
5.18796e-05
5.47177e-05
5.52471e-05
5.36551e-05
4.63747e-06
2.11001e-05
3.6431e-05
4.61504e-05
5.18658e-05
5.47092e-05
5.52437e-05
5.36566e-05
4.63554e-06
2.11095e-05
3.64345e-05
4.61497e-05
5.1864e-05
5.47072e-05
5.52415e-05
5.36534e-05
4.63482e-06
2.10886e-05
3.64117e-05
4.61312e-05
5.1851e-05
5.47e-05
5.524e-05
5.36578e-05
4.63479e-06
2.10964e-05
3.64184e-05
4.61355e-05
5.18537e-05
5.47015e-05
5.52404e-05
5.36569e-05
4.63613e-06
2.10888e-05
3.64143e-05
4.6134e-05
5.18532e-05
5.47018e-05
5.52416e-05
5.36593e-05
4.6435e-06
2.11083e-05
3.64612e-05
4.6187e-05
5.18951e-05
5.47245e-05
5.52429e-05
5.36406e-05
4.6397e-06
2.10984e-05
3.64411e-05
4.61667e-05
5.18796e-05
5.47149e-05
5.52388e-05
5.36409e-05
4.63691e-06
2.10852e-05
3.64203e-05
4.61466e-05
5.18644e-05
5.47055e-05
5.5235e-05
5.36421e-05
4.63481e-06
2.10866e-05
3.64152e-05
4.61392e-05
5.18581e-05
5.47014e-05
5.52326e-05
5.36408e-05
4.63389e-06
2.10694e-05
3.63951e-05
4.61222e-05
5.1846e-05
5.46946e-05
5.52312e-05
5.36448e-05
4.63385e-06
2.10727e-05
3.63972e-05
4.6123e-05
5.18465e-05
5.46951e-05
5.5232e-05
5.36455e-05
4.63515e-06
2.10684e-05
3.63961e-05
4.61236e-05
5.18475e-05
5.46964e-05
5.52337e-05
5.3648e-05
4.6441e-06
2.11121e-05
3.64772e-05
4.62071e-05
5.19091e-05
5.47252e-05
5.52269e-05
5.36082e-05
4.63998e-06
2.10979e-05
3.64518e-05
4.61823e-05
5.18904e-05
5.47138e-05
5.52222e-05
5.3609e-05
4.63686e-06
2.10837e-05
3.64289e-05
4.61601e-05
5.18737e-05
5.47034e-05
5.52178e-05
5.36097e-05
4.63457e-06
2.10788e-05
3.64168e-05
4.61471e-05
5.18636e-05
5.46974e-05
5.52154e-05
5.36102e-05
4.63341e-06
2.10632e-05
3.63972e-05
4.613e-05
5.18516e-05
5.46911e-05
5.52148e-05
5.36151e-05
4.6333e-06
2.10624e-05
3.63949e-05
4.61275e-05
5.18501e-05
5.46912e-05
5.52166e-05
5.36183e-05
4.6346e-06
2.10598e-05
3.63954e-05
4.61294e-05
5.18522e-05
5.46935e-05
5.52194e-05
5.3622e-05
4.65474e-06
4.67151e-06
2.16531e-05
4.66382e-06
2.14085e-05
3.6825e-05
4.64843e-05
5.2103e-05
4.66588e-06
2.13023e-05
3.67036e-05
4.63892e-05
5.20383e-05
5.48143e-05
5.52891e-05
5.36499e-05
4.6671e-06
2.10192e-05
3.64102e-05
4.61733e-05
5.19043e-05
5.47541e-05
5.52951e-05
5.37169e-05
4.64745e-06
2.12704e-05
3.66399e-05
4.63187e-05
5.1976e-05
5.47674e-05
5.52618e-05
5.36459e-05
4.65244e-06
2.13428e-05
3.67211e-05
4.63796e-05
5.20097e-05
5.47741e-05
5.52434e-05
5.36042e-05
4.65397e-06
2.13465e-05
3.67374e-05
4.63991e-05
5.20278e-05
5.47907e-05
5.52603e-05
5.36232e-05
4.66652e-06
2.15085e-05
3.69247e-05
4.65456e-05
5.21182e-05
5.48214e-05
5.52304e-05
5.35343e-05
4.66189e-06
2.13403e-05
3.67415e-05
4.64106e-05
5.20435e-05
5.48083e-05
5.52775e-05
5.36389e-05
4.66458e-06
2.12652e-05
3.66588e-05
4.63489e-05
5.20056e-05
5.47896e-05
5.52719e-05
5.36396e-05
4.66579e-06
2.10423e-05
3.64291e-05
4.61811e-05
5.19032e-05
5.47464e-05
5.52818e-05
5.36981e-05
4.64713e-06
2.12679e-05
3.6634e-05
4.63116e-05
5.19695e-05
5.47623e-05
5.52583e-05
5.36428e-05
4.65171e-06
2.13159e-05
3.66905e-05
4.63553e-05
5.19942e-05
5.4767e-05
5.52434e-05
5.36096e-05
4.65335e-06
2.13127e-05
3.6696e-05
4.63641e-05
5.20031e-05
5.47757e-05
5.52534e-05
5.36231e-05
4.66302e-06
2.14144e-05
3.68159e-05
4.64587e-05
5.20606e-05
5.47924e-05
5.52275e-05
5.35545e-05
4.66051e-06
2.12942e-05
3.66868e-05
4.63647e-05
5.201e-05
5.47863e-05
5.52655e-05
5.36347e-05
4.66348e-06
2.12375e-05
3.66263e-05
4.63211e-05
5.1985e-05
5.4776e-05
5.52647e-05
5.36381e-05
4.66495e-06
2.10616e-05
3.64463e-05
4.61904e-05
5.19058e-05
5.47437e-05
5.52744e-05
5.36862e-05
4.64671e-06
2.126e-05
3.66228e-05
4.63013e-05
5.19621e-05
5.4758e-05
5.52563e-05
5.36425e-05
4.65079e-06
2.12911e-05
3.6662e-05
4.63328e-05
5.19805e-05
5.4762e-05
5.52457e-05
5.36179e-05
4.65265e-06
2.12854e-05
3.6663e-05
4.63372e-05
5.19855e-05
5.47671e-05
5.52522e-05
5.36272e-05
4.66037e-06
2.13484e-05
3.67403e-05
4.63994e-05
5.20234e-05
5.47772e-05
5.52325e-05
5.35774e-05
4.65943e-06
2.12612e-05
3.66478e-05
4.63329e-05
5.19884e-05
5.47743e-05
5.52614e-05
5.36366e-05
4.66255e-06
2.12168e-05
3.6602e-05
4.63009e-05
5.19708e-05
5.4768e-05
5.52622e-05
5.36404e-05
4.6644e-06
2.1078e-05
3.64617e-05
4.61997e-05
5.19099e-05
5.47433e-05
5.52701e-05
5.3678e-05
4.6461e-06
2.12482e-05
3.66073e-05
4.62881e-05
5.19534e-05
5.47537e-05
5.52556e-05
5.36444e-05
4.64974e-06
2.12681e-05
3.66348e-05
4.63113e-05
5.19676e-05
5.47574e-05
5.52484e-05
5.36266e-05
4.6519e-06
2.1262e-05
3.66347e-05
4.63144e-05
5.19713e-05
5.47612e-05
5.52531e-05
5.36333e-05
4.65826e-06
2.13006e-05
3.6685e-05
4.63562e-05
5.19971e-05
5.4768e-05
5.52391e-05
5.35979e-05
4.65854e-06
2.12367e-05
3.66188e-05
4.63096e-05
5.19733e-05
5.47669e-05
5.52604e-05
5.36406e-05
4.66178e-06
2.12013e-05
3.6584e-05
4.62861e-05
5.19609e-05
5.47629e-05
5.52616e-05
5.36437e-05
4.66407e-06
2.10923e-05
3.64755e-05
4.62088e-05
5.19145e-05
5.47441e-05
5.52675e-05
5.36722e-05
4.64528e-06
2.12334e-05
3.65884e-05
4.62723e-05
5.19432e-05
5.47491e-05
5.52555e-05
5.36478e-05
4.64861e-06
2.12464e-05
3.66087e-05
4.62904e-05
5.19549e-05
5.47529e-05
5.52511e-05
5.36351e-05
4.65106e-06
2.12411e-05
3.66093e-05
4.62941e-05
5.19588e-05
5.47564e-05
5.52547e-05
5.36397e-05
4.65653e-06
2.12648e-05
3.66431e-05
4.63235e-05
5.19776e-05
5.47618e-05
5.52451e-05
5.36148e-05
4.65779e-06
2.12179e-05
3.65966e-05
4.62919e-05
5.19621e-05
5.4762e-05
5.52607e-05
5.36449e-05
4.6612e-06
2.11899e-05
3.65707e-05
4.62754e-05
5.1954e-05
5.47597e-05
5.52619e-05
5.36471e-05
4.66393e-06
2.11049e-05
3.64882e-05
4.62176e-05
5.19195e-05
5.47457e-05
5.52659e-05
5.36677e-05
4.64427e-06
2.12162e-05
3.65667e-05
4.62543e-05
5.19316e-05
5.47439e-05
5.52556e-05
5.36519e-05
4.6474e-06
2.12255e-05
3.65831e-05
4.62698e-05
5.19422e-05
5.47481e-05
5.52532e-05
5.36429e-05
4.65015e-06
2.12219e-05
3.65857e-05
4.62753e-05
5.19473e-05
5.4752e-05
5.52563e-05
5.36458e-05
4.65508e-06
2.12371e-05
3.66104e-05
4.62979e-05
5.19624e-05
5.47571e-05
5.52502e-05
5.36282e-05
4.65717e-06
2.12032e-05
3.65792e-05
4.62781e-05
5.19536e-05
5.47585e-05
5.52615e-05
5.36488e-05
4.66084e-06
2.11815e-05
3.6561e-05
4.62679e-05
5.19492e-05
5.47577e-05
5.52624e-05
5.36497e-05
4.66398e-06
2.11165e-05
3.65003e-05
4.62264e-05
5.19248e-05
5.47476e-05
5.52648e-05
5.36637e-05
4.64309e-06
2.1197e-05
3.65424e-05
4.62344e-05
5.19188e-05
5.47379e-05
5.52554e-05
5.36561e-05
4.64613e-06
2.12049e-05
3.65576e-05
4.62493e-05
5.19294e-05
5.4743e-05
5.52547e-05
5.36498e-05
4.64918e-06
2.12037e-05
3.65634e-05
4.62574e-05
5.19364e-05
5.47478e-05
5.52575e-05
5.36512e-05
4.65385e-06
2.12149e-05
3.65841e-05
4.62774e-05
5.19503e-05
5.47534e-05
5.52541e-05
5.36386e-05
4.65669e-06
2.11916e-05
3.65655e-05
4.62675e-05
5.19472e-05
5.47561e-05
5.52621e-05
5.36519e-05
4.6607e-06
2.11754e-05
3.65547e-05
4.62633e-05
5.19465e-05
5.47566e-05
5.52626e-05
5.36513e-05
4.66425e-06
2.11275e-05
3.65124e-05
4.62358e-05
5.19306e-05
5.475e-05
5.52638e-05
5.36597e-05
4.64179e-06
2.11758e-05
3.65159e-05
4.6213e-05
5.1905e-05
5.47312e-05
5.52546e-05
5.36597e-05
4.64484e-06
2.11841e-05
3.65318e-05
4.62286e-05
5.19165e-05
5.47374e-05
5.52553e-05
5.36553e-05
4.64821e-06
2.11861e-05
3.65419e-05
4.62404e-05
5.19259e-05
5.47434e-05
5.5258e-05
5.36554e-05
4.65281e-06
2.11967e-05
3.65625e-05
4.62607e-05
5.19405e-05
5.47503e-05
5.52567e-05
5.3646e-05
4.6564e-06
2.11818e-05
3.65546e-05
4.62595e-05
5.19426e-05
5.47542e-05
5.52623e-05
5.36535e-05
4.66079e-06
2.11716e-05
3.65516e-05
4.62616e-05
5.19457e-05
5.47563e-05
5.52624e-05
5.36511e-05
4.6648e-06
2.11384e-05
3.65253e-05
4.62462e-05
5.19374e-05
5.47527e-05
5.52625e-05
5.36548e-05
4.64048e-06
2.11523e-05
3.64875e-05
4.61904e-05
5.18904e-05
5.47236e-05
5.52525e-05
5.36619e-05
4.64363e-06
2.11623e-05
3.65056e-05
4.6208e-05
5.19034e-05
5.47311e-05
5.52544e-05
5.36587e-05
4.64734e-06
2.1168e-05
3.65207e-05
4.62242e-05
5.19159e-05
5.47386e-05
5.52572e-05
5.36576e-05
4.65199e-06
2.11811e-05
3.65445e-05
4.62474e-05
5.19329e-05
5.47476e-05
5.52579e-05
5.36503e-05
4.65634e-06
2.11739e-05
3.65468e-05
4.62545e-05
5.19399e-05
5.47529e-05
5.52616e-05
5.3653e-05
4.66116e-06
2.11704e-05
3.65522e-05
4.62634e-05
5.19473e-05
5.47567e-05
5.52613e-05
5.36486e-05
4.66569e-06
2.115e-05
3.654e-05
4.62588e-05
5.19457e-05
5.47558e-05
5.52604e-05
5.36479e-05
4.63937e-06
2.11251e-05
3.64574e-05
4.61678e-05
5.18759e-05
5.47156e-05
5.5249e-05
5.36618e-05
4.64267e-06
2.1138e-05
3.64789e-05
4.61882e-05
5.1891e-05
5.47244e-05
5.52517e-05
5.3659e-05
4.6467e-06
2.1149e-05
3.65006e-05
4.62098e-05
5.19072e-05
5.47339e-05
5.52549e-05
5.36569e-05
4.65154e-06
2.11667e-05
3.65299e-05
4.62377e-05
5.19275e-05
5.47451e-05
5.5257e-05
5.36505e-05
4.65655e-06
2.11685e-05
3.65434e-05
4.62538e-05
5.19402e-05
5.47525e-05
5.52596e-05
5.36491e-05
4.66189e-06
2.11723e-05
3.65579e-05
4.62699e-05
5.19521e-05
5.47581e-05
5.52587e-05
5.36423e-05
4.66702e-06
2.11635e-05
3.65585e-05
4.62753e-05
5.19565e-05
5.47594e-05
5.52567e-05
5.36374e-05
4.6384e-06
2.10992e-05
3.64308e-05
4.61494e-05
5.18646e-05
5.47085e-05
5.5244e-05
5.36578e-05
4.6419e-06
2.11152e-05
3.64561e-05
4.61729e-05
5.18818e-05
5.47186e-05
5.52472e-05
5.36549e-05
4.6463e-06
2.11321e-05
3.6485e-05
4.62004e-05
5.1902e-05
5.47301e-05
5.52506e-05
5.36514e-05
4.65152e-06
2.11555e-05
3.65216e-05
4.62343e-05
5.19264e-05
5.47435e-05
5.52534e-05
5.36445e-05
4.65717e-06
2.11673e-05
3.6547e-05
4.62598e-05
5.19449e-05
5.47532e-05
5.5255e-05
5.36392e-05
4.66313e-06
2.11795e-05
3.65713e-05
4.62838e-05
5.19615e-05
5.47604e-05
5.5253e-05
5.36292e-05
4.66899e-06
2.11807e-05
3.65837e-05
4.62983e-05
5.19715e-05
5.47636e-05
5.52493e-05
5.36197e-05
4.63763e-06
2.10796e-05
3.64139e-05
4.61402e-05
5.18596e-05
5.47036e-05
5.52363e-05
5.36466e-05
4.64142e-06
2.10985e-05
3.64432e-05
4.61672e-05
5.18792e-05
5.47148e-05
5.52395e-05
5.36426e-05
4.64627e-06
2.11217e-05
3.64799e-05
4.6201e-05
5.19035e-05
5.47281e-05
5.52426e-05
5.3637e-05
4.65203e-06
2.11517e-05
3.65248e-05
4.62417e-05
5.19322e-05
5.47432e-05
5.52449e-05
5.36279e-05
4.65837e-06
2.11741e-05
3.65627e-05
4.62769e-05
5.19565e-05
5.47549e-05
5.52449e-05
5.36181e-05
4.66513e-06
2.11953e-05
3.65976e-05
4.6309e-05
5.19777e-05
5.47631e-05
5.52408e-05
5.36034e-05
4.67189e-06
2.12057e-05
3.6621e-05
4.63323e-05
5.19927e-05
5.47672e-05
5.52344e-05
5.3588e-05
4.63729e-06
2.1072e-05
3.64147e-05
4.61472e-05
5.18653e-05
5.47013e-05
5.52222e-05
5.36205e-05
4.64144e-06
2.10944e-05
3.64487e-05
4.61781e-05
5.18871e-05
5.4713e-05
5.52245e-05
5.36145e-05
4.64685e-06
2.11243e-05
3.64936e-05
4.62186e-05
5.19154e-05
5.47275e-05
5.52261e-05
5.3605e-05
4.65332e-06
2.11617e-05
3.65479e-05
4.62666e-05
5.19481e-05
5.47433e-05
5.52261e-05
5.35912e-05
4.66052e-06
2.11951e-05
3.65985e-05
4.63113e-05
5.19775e-05
5.47556e-05
5.52227e-05
5.35746e-05
4.66827e-06
2.12255e-05
3.66443e-05
4.63517e-05
5.20028e-05
5.47634e-05
5.52143e-05
5.35523e-05
4.67614e-06
2.12448e-05
3.66788e-05
4.63836e-05
5.20221e-05
5.47671e-05
5.5203e-05
5.35284e-05
4.68225e-06
2.09912e-05
3.64057e-05
4.61754e-05
5.19045e-05
5.4748e-05
5.52803e-05
5.36913e-05
4.69012e-06
2.1352e-05
3.67931e-05
4.64598e-05
5.207e-05
5.48017e-05
5.52331e-05
5.35583e-05
4.6904e-06
2.14562e-05
3.69274e-05
4.65755e-05
5.2157e-05
5.48643e-05
5.52798e-05
5.35982e-05
4.71078e-06
2.19083e-05
3.74505e-05
4.69944e-05
5.24284e-05
5.49696e-05
5.52054e-05
5.33424e-05
4.67965e-06
2.14273e-05
3.6888e-05
4.65432e-05
5.21358e-05
5.48535e-05
5.52775e-05
5.36025e-05
4.67832e-06
2.14531e-05
3.68832e-05
4.6514e-05
5.20907e-05
5.4796e-05
5.5209e-05
5.35235e-05
4.66422e-06
2.12488e-05
3.6652e-05
4.6343e-05
5.19992e-05
5.47848e-05
5.52734e-05
5.36537e-05
4.67712e-06
2.09873e-05
3.6388e-05
4.61546e-05
5.18857e-05
5.47335e-05
5.52705e-05
5.36859e-05
4.6815e-06
2.12792e-05
3.66968e-05
4.63796e-05
5.20173e-05
5.47782e-05
5.52372e-05
5.35859e-05
4.68004e-06
2.13487e-05
3.67832e-05
4.64507e-05
5.20673e-05
5.48111e-05
5.526e-05
5.36059e-05
4.69309e-06
2.16664e-05
3.71448e-05
4.67331e-05
5.22411e-05
5.48648e-05
5.5186e-05
5.3406e-05
4.67105e-06
2.13434e-05
3.67681e-05
4.64346e-05
5.2054e-05
5.48017e-05
5.5255e-05
5.36053e-05
4.67004e-06
2.13805e-05
3.67883e-05
4.64364e-05
5.20419e-05
5.47772e-05
5.52175e-05
5.35545e-05
4.6589e-06
2.12344e-05
3.66214e-05
4.63122e-05
5.19754e-05
5.47699e-05
5.52669e-05
5.36536e-05
4.67378e-06
2.09965e-05
3.63894e-05
4.6151e-05
5.18801e-05
5.47275e-05
5.52649e-05
5.36809e-05
4.67577e-06
2.12298e-05
3.66328e-05
4.63272e-05
5.1984e-05
5.47649e-05
5.52426e-05
5.36072e-05
4.6734e-06
2.1279e-05
3.66913e-05
4.63734e-05
5.20146e-05
5.47836e-05
5.52551e-05
5.36191e-05
4.68151e-06
2.15031e-05
3.69425e-05
4.65657e-05
5.21284e-05
5.48121e-05
5.51943e-05
5.34719e-05
4.66551e-06
2.12888e-05
3.6692e-05
4.63685e-05
5.20077e-05
5.4777e-05
5.52501e-05
5.36168e-05
4.66441e-06
2.13266e-05
3.67199e-05
4.63818e-05
5.20092e-05
5.47671e-05
5.5228e-05
5.35816e-05
4.6555e-06
2.12245e-05
3.66012e-05
4.62924e-05