/*--------------------------------*- C++ -*----------------------------------*\
| =========                 |                                                 |
| \\      /  F ield         | OpenFOAM: The Open Source CFD Toolbox           |
|  \\    /   O peration     | Version:  plus.master.MPPICInterFoam            |
|   \\  /    A nd           | Web:      www.OpenFOAM.com                      |
|    \\/     M anipulation  |                                                 |
\*---------------------------------------------------------------------------*/
FoamFile
{
    version     2.0;
    format      ascii;
    class       surfaceScalarField;
    location    "5.4";
    object      phi;
}
// * * * * * * * * * * * * * * * * * * * * * * * * * * * * * * * * * * * * * //

dimensions      [0 3 -1 0 0 0 0];

internalField   nonuniform List<scalar> 
34004
(
1.25509e-08
8.90642e-08
-1.667e-06
-1.08632e-07
2.25518e-08
8.11861e-08
-2.04987e-06
-9.91025e-08
3.03741e-08
7.65332e-08
-2.36315e-06
-9.36872e-08
3.62114e-08
7.31905e-08
-2.66876e-06
-8.9883e-08
4.00613e-08
7.02553e-08
-2.97821e-06
-8.66054e-08
4.18654e-08
6.75095e-08
-3.29487e-06
-8.35666e-08
4.15581e-08
6.4911e-08
-3.61972e-06
-8.06916e-08
6.24619e-08
-3.95206e-06
-7.80026e-08
3.91172e-08
1.72963e-08
6.06625e-08
-1.6842e-06
3.04813e-08
5.54219e-08
-2.0698e-06
4.04224e-08
5.21473e-08
-2.386e-06
4.75542e-08
4.97456e-08
-2.69455e-06
5.20182e-08
4.76102e-08
-3.007e-06
5.38836e-08
4.56105e-08
-3.3267e-06
5.31964e-08
4.37358e-08
-3.65465e-06
4.20163e-08
-3.99022e-06
4.99598e-08
1.88854e-08
2.81041e-08
-1.69599e-06
3.30516e-08
2.57067e-08
-2.08355e-06
4.33814e-08
2.41841e-08
-2.40156e-06
5.04445e-08
2.30421e-08
-2.71182e-06
5.45097e-08
2.19832e-08
-3.0259e-06
5.57721e-08
2.09607e-08
-3.34715e-06
5.4392e-08
1.99896e-08
-3.67657e-06
1.90936e-08
-4.01356e-06
5.04991e-08
1.96111e-08
-6.60414e-09
-1.70246e-06
3.41348e-08
-6.02081e-09
-2.09113e-06
4.46198e-08
-5.67855e-09
-2.4101e-06
5.17257e-08
-5.48498e-09
-2.72126e-06
5.57781e-08
-5.39319e-09
-3.03619e-06
5.70103e-08
-5.35362e-09
-3.35828e-06
5.56056e-08
-5.32193e-09
-3.68852e-06
-5.26177e-09
-4.02635e-06
5.16821e-08
1.82025e-08
-4.04031e-08
-1.70313e-06
3.15e-08
-3.71272e-08
-2.09202e-06
4.09477e-08
-3.51325e-08
-2.41095e-06
4.72457e-08
-3.38395e-08
-2.72198e-06
5.07573e-08
-3.28579e-08
-3.03671e-06
5.17416e-08
-3.20348e-08
-3.35851e-06
5.03874e-08
-3.12836e-08
-3.68842e-06
-3.05607e-08
-4.02587e-06
4.68169e-08
1.60591e-08
-7.19231e-08
-1.69895e-06
2.74576e-08
-6.61238e-08
-2.08706e-06
3.55473e-08
-6.29253e-08
-2.40506e-06
4.10397e-08
-6.09848e-08
-2.71512e-06
4.42889e-08
-5.9545e-08
-3.0288e-06
4.55183e-08
-5.83252e-08
-3.3495e-06
4.48534e-08
-5.71718e-08
-3.67829e-06
-5.59773e-08
-4.01464e-06
4.22904e-08
9.13433e-09
-1.6886e-06
-9.54569e-08
1.48251e-08
-2.07517e-06
-8.82124e-08
1.81934e-08
-2.39088e-06
-8.45728e-08
1.99825e-08
-2.69834e-06
-8.2765e-08
2.06319e-08
-3.00906e-06
-8.17205e-08
2.04798e-08
-3.32644e-06
-8.10623e-08
1.97177e-08
-3.65158e-06
-8.05274e-08
-3.98398e-06
-7.99858e-08
1.84439e-08
1.02427e-08
7.14402e-08
-1.66166e-06
-8.70249e-08
1.84424e-08
6.51003e-08
-2.04383e-06
-7.93669e-08
2.48744e-08
6.15036e-08
-2.356e-06
-7.50973e-08
2.96868e-08
5.90013e-08
-2.66042e-06
-7.21717e-08
3.28758e-08
5.68549e-08
-2.96856e-06
-6.97126e-08
3.43934e-08
5.48711e-08
-3.28381e-06
-6.74743e-08
3.4182e-08
5.29989e-08
-3.60715e-06
-6.53778e-08
5.1225e-08
-3.93792e-06
-6.34221e-08
3.22149e-08
1.45057e-08
4.83844e-08
-1.67566e-06
2.57034e-08
4.41851e-08
-2.0601e-06
3.4278e-08
4.17034e-08
-2.37479e-06
4.05528e-08
3.99464e-08
-2.68179e-06
4.46079e-08
3.84147e-08
-2.99263e-06
4.64586e-08
3.699e-08
-3.31069e-06
4.60983e-08
3.56518e-08
-3.63696e-06
3.44162e-08
-3.97082e-06
4.34873e-08
1.61879e-08
2.15606e-08
-1.68536e-06
2.85319e-08
1.97206e-08
-2.07145e-06
3.77314e-08
1.86575e-08
-2.38773e-06
4.42112e-08
1.79004e-08
-2.69627e-06
4.81386e-08
1.72074e-08
-3.00863e-06
4.96145e-08
1.65338e-08
-3.32819e-06
4.87138e-08
1.58862e-08
-3.65593e-06
1.52796e-08
-3.99123e-06
4.5494e-08
1.70553e-08
-7.30916e-09
-1.69066e-06
2.99301e-08
-6.63495e-09
-2.07767e-06
3.94635e-08
-6.1843e-09
-2.39481e-06
4.61504e-08
-5.88166e-09
-2.70418e-06
5.01969e-08
-5.67854e-09
-3.01737e-06
5.17273e-08
-5.53361e-09
-3.33776e-06
5.08285e-08
-5.41056e-09
-3.66635e-06
-5.27862e-09
-4.00253e-06
4.75432e-08
1.59445e-08
-3.54077e-08
-1.69099e-06
2.78601e-08
-3.24432e-08
-2.07815e-06
3.65727e-08
-3.06287e-08
-2.39523e-06
4.26041e-08
-2.94273e-08
-2.70449e-06
4.61911e-08
-2.85064e-08
-3.01748e-06
4.74826e-08
-2.7736e-08
-3.33762e-06
4.65762e-08
-2.70415e-08
-3.6659e-06
-2.63842e-08
-4.00174e-06
4.35277e-08
1.41348e-08
-6.14433e-08
-1.68706e-06
2.44683e-08
-5.63325e-08
-2.07352e-06
3.20493e-08
-5.35051e-08
-2.38978e-06
3.74044e-08
-5.17537e-08
-2.69816e-06
4.07624e-08
-5.04463e-08
-3.01023e-06
4.22423e-08
-4.93441e-08
-3.32939e-06
4.18917e-08
-4.83183e-08
-3.65669e-06
-4.72764e-08
-3.99154e-06
3.96644e-08
8.31856e-09
-1.6779e-06
-8.04805e-08
1.38975e-08
-2.06296e-06
-7.41351e-08
1.7536e-08
-2.37719e-06
-7.08507e-08
1.9756e-08
-2.68326e-06
-6.90674e-08
2.08603e-08
-2.99269e-06
-6.79352e-08
2.10663e-08
-3.30888e-06
-6.71321e-08
2.04949e-08
-3.6329e-06
-6.64565e-08
-3.96419e-06
-6.58023e-08
1.92083e-08
8.45321e-09
5.71716e-08
-1.65744e-06
-6.98541e-08
1.52238e-08
5.20211e-08
-2.03902e-06
-6.36086e-08
2.05286e-08
4.91963e-08
-2.35034e-06
-6.01774e-08
2.44909e-08
4.72873e-08
-2.65381e-06
-5.78708e-08
2.71119e-08
4.56893e-08
-2.96092e-06
-5.59734e-08
2.83571e-08
4.4234e-08
-3.27503e-06
-5.4277e-08
2.8182e-08
4.28689e-08
-3.59715e-06
-5.27061e-08
4.15731e-08
-3.92665e-06
-5.12482e-08
2.65637e-08
1.21214e-08
3.83427e-08
-1.66897e-06
2.15523e-08
3.4956e-08
-2.05248e-06
2.88401e-08
3.30547e-08
-2.36595e-06
3.42354e-08
3.17564e-08
-2.67167e-06
3.7787e-08
3.06506e-08
-2.98116e-06
3.94859e-08
2.96324e-08
-3.2978e-06
3.93031e-08
2.86773e-08
-3.62261e-06
2.7792e-08
-3.95494e-06
3.71821e-08
1.37204e-08
1.62669e-08
-1.67702e-06
2.42951e-08
1.48531e-08
-2.06193e-06
3.22863e-08
1.41164e-08
-2.3768e-06
3.8021e-08
1.36262e-08
-2.68389e-06
4.16062e-08
1.31866e-08
-2.99477e-06
4.30903e-08
1.27573e-08
-3.31281e-06
4.24996e-08
1.23392e-08
-3.63902e-06
1.19418e-08
-3.97275e-06
3.98502e-08
1.45809e-08
-7.60316e-09
-1.68138e-06
2.57291e-08
-6.89702e-09
-2.06708e-06
3.41209e-08
-6.39604e-09
-2.3827e-06
4.01363e-08
-6.03663e-09
-2.69055e-06
4.39075e-08
-5.77115e-09
-3.0022e-06
4.54951e-08
-5.56485e-09
-3.32104e-06
4.49295e-08
-5.38781e-09
-3.64807e-06
-5.214e-09
-3.98267e-06
4.22096e-08
1.3694e-08
-3.07917e-08
-1.6815e-06
2.40841e-08
-2.81398e-08
-2.06731e-06
3.18232e-08
-2.65073e-08
-2.38288e-06
3.73081e-08
-2.54076e-08
-2.69061e-06
4.06948e-08
-2.45579e-08
-3.0021e-06
4.20651e-08
-2.38479e-08
-3.32072e-06
4.14625e-08
-2.32142e-08
-3.64749e-06
-2.26222e-08
-3.98179e-06
3.89029e-08
1.21596e-08
-5.2118e-08
-1.6779e-06
2.12271e-08
-4.76493e-08
-2.06309e-06
2.80187e-08
-4.51623e-08
-2.37793e-06
3.29316e-08
-4.35943e-08
-2.6849e-06
3.61141e-08
-4.2417e-08
-2.99557e-06
3.76236e-08
-4.14298e-08
-3.31334e-06
3.74639e-08
-4.05245e-08
-3.63923e-06
-3.9622e-08
-3.97267e-06
3.55694e-08
7.35704e-09
-1.66991e-06
-6.7469e-08
1.25237e-08
-2.05386e-06
-6.19374e-08
1.6074e-08
-2.36692e-06
-5.89944e-08
1.83813e-08
-2.67188e-06
-5.72947e-08
1.96542e-08
-2.98025e-06
-5.61469e-08
2.0034e-08
-3.29542e-06
-5.52855e-08
1.95969e-08
-3.61845e-06
-5.45517e-08
-3.94876e-06
-5.386e-08
1.83831e-08
7.0387e-09
4.54773e-08
-1.65402e-06
-5.59379e-08
1.26659e-08
4.12543e-08
-2.03514e-06
-5.07784e-08
1.70604e-08
3.90037e-08
-2.34577e-06
-4.79783e-08
2.03298e-08
3.75218e-08
-2.64849e-06
-4.61234e-08
2.24815e-08
3.63124e-08
-2.95477e-06
-4.46273e-08
2.34938e-08
3.52312e-08
-3.26797e-06
-4.33137e-08
2.3335e-08
3.42271e-08
-3.58912e-06
-4.21137e-08
3.32764e-08
-3.91758e-06
-4.10085e-08
2.19883e-08
1.00973e-08
3.0065e-08
-1.66366e-06
1.79915e-08
2.73137e-08
-2.04645e-06
2.41216e-08
2.58412e-08
-2.35893e-06
2.86889e-08
2.4872e-08
-2.6636e-06
3.1727e-08
2.40688e-08
-2.97197e-06
3.32187e-08
2.33405e-08
-3.28742e-06
3.31284e-08
2.26614e-08
-3.61097e-06
2.2032e-08
-3.94198e-06
3.13975e-08
1.15215e-08
1.19539e-08
-1.67044e-06
2.04627e-08
1.08637e-08
-2.05444e-06
2.72795e-08
1.03578e-08
-2.36814e-06
3.22299e-08
1.00513e-08
-2.67403e-06
3.53862e-08
9.78608e-09
-2.98366e-06
3.67688e-08
9.52666e-09
-3.30039e-06
3.6379e-08
9.27094e-09
-3.62525e-06
9.02452e-09
-3.95759e-06
3.42105e-08
1.22944e-08
-7.64458e-09
-1.67408e-06
2.17751e-08
-6.94511e-09
-2.05877e-06
2.89891e-08
-6.43132e-09
-2.37314e-06
3.4234e-08
-6.04964e-09
-2.67971e-06
3.75974e-08
-5.75447e-09
-2.99004e-06
3.91046e-08
-5.51634e-09
-3.30752e-06
3.87555e-08
-5.31041e-09
-3.63316e-06
-5.11467e-09
-3.96632e-06
3.65259e-08
1.15758e-08
-2.66259e-08
-1.67411e-06
2.04486e-08
-2.42723e-08
-2.05887e-06
2.71386e-08
-2.28149e-08
-2.37319e-06
3.1953e-08
-2.18195e-08
-2.67967e-06
3.49972e-08
-2.10454e-08
-2.98987e-06
3.63141e-08
-2.03993e-08
-3.30717e-06
3.59164e-08
-1.9827e-08
-3.63259e-06
-1.92981e-08
-3.9655e-06
3.37978e-08
1.02694e-08
-4.39366e-08
-1.67087e-06
1.80325e-08
-4.00487e-08
-2.05509e-06
2.39254e-08
-3.78688e-08
-2.36878e-06
2.82522e-08
-3.64731e-08
-2.67459e-06
3.11114e-08
-3.54202e-08
-2.98407e-06
3.25259e-08
-3.45425e-08
-3.30062e-06
3.24777e-08
-3.37488e-08
-3.62528e-06
-3.29716e-08
-3.95743e-06
3.08966e-08
6.35968e-09
-1.66396e-06
-5.62559e-08
1.0962e-08
-2.04708e-06
-5.14439e-08
1.42237e-08
-2.35924e-06
-4.88247e-08
1.64182e-08
-2.66332e-06
-4.72429e-08
1.76904e-08
-2.97082e-06
-4.61307e-08
1.81341e-08
-3.28515e-06
-4.52704e-08
1.77973e-08
-3.60734e-06
-4.45347e-08
-3.93681e-06
-4.38545e-08
1.67072e-08
5.8929e-09
3.57438e-08
-1.65124e-06
-4.44197e-08
1.05908e-08
3.22524e-08
-2.03199e-06
-4.01121e-08
1.42449e-08
3.04386e-08
-2.34207e-06
-3.78014e-08
1.69506e-08
2.92722e-08
-2.64419e-06
-3.62896e-08
1.8721e-08
2.83463e-08
-2.9498e-06
-3.50939e-08
1.95443e-08
2.75377e-08
-3.26228e-06
-3.40653e-08
1.93996e-08
2.67987e-08
-3.58265e-06
-3.31412e-08
2.61045e-08
-3.91028e-06
-3.23e-08
1.82752e-08
8.3789e-09
2.31522e-08
-1.65946e-06
1.49481e-08
2.09014e-08
-2.04168e-06
2.00605e-08
1.97508e-08
-2.35337e-06
2.38811e-08
1.90215e-08
-2.65718e-06
2.64367e-08
1.84372e-08
-2.96463e-06
2.77104e-08
1.79197e-08
-3.27909e-06
2.76677e-08
1.74434e-08
-3.60158e-06
1.7005e-08
-3.93148e-06
2.62549e-08
9.58751e-09
8.38564e-09
-1.66526e-06
1.70602e-08
7.54158e-09
-2.04856e-06
2.27881e-08
7.20002e-09
-2.36133e-06
2.69793e-08
7.0202e-09
-2.66623e-06
2.96863e-08
6.87541e-09
-2.97481e-06
3.0916e-08
6.73507e-09
-3.29045e-06
3.06584e-08
6.5953e-09
-3.61416e-06
6.45901e-09
-3.94529e-06
2.88967e-08
1.02352e-08
-7.5567e-09
-1.66838e-06
1.81725e-08
-6.88659e-09
-2.05229e-06
2.42538e-08
-6.3824e-09
-2.36565e-06
2.87164e-08
-5.9994e-09
-2.67116e-06
3.16216e-08
-5.69481e-09
-2.98038e-06
3.2977e-08
-5.44339e-09
-3.29671e-06
3.27679e-08
-5.22433e-09
-3.62114e-06
-5.01903e-09
-3.95305e-06
3.09604e-08
9.64269e-09
-2.2932e-08
-1.66838e-06
1.70835e-08
-2.08531e-08
-2.05235e-06
2.27381e-08
-1.95586e-08
-2.36568e-06
2.68486e-08
-1.86642e-08
-2.67113e-06
2.94894e-08
-1.79653e-08
-2.98025e-06
3.06822e-08
-1.73828e-08
-3.29643e-06
3.04238e-08
-1.68701e-08
-3.6207e-06
-1.64003e-08
-3.95241e-06
2.86971e-08
8.5281e-09
-3.68216e-08
-1.66551e-06
1.50355e-08
-3.34471e-08
-2.04902e-06
2.00171e-08
-3.15401e-08
-2.3618e-06
2.37096e-08
-3.03025e-08
-2.66665e-06
2.6181e-08
-2.93661e-08
-2.97515e-06
2.74372e-08
-2.85905e-08
-3.29068e-06
2.74517e-08
-2.78987e-08
-3.61428e-06
-2.7233e-08
-3.94531e-06
2.61579e-08
5.38264e-09
-1.65956e-06
-4.66164e-08
9.35484e-09
-2.04208e-06
-4.24322e-08
1.22235e-08
-2.35355e-06
-4.01142e-08
1.41939e-08
-2.65693e-06
-3.8668e-08
1.53691e-08
-2.96375e-06
-3.76244e-08
1.58128e-08
-3.27739e-06
-3.68045e-08
1.55561e-08
-3.59889e-06
-3.61043e-08
-3.92765e-06
-3.54669e-08
1.46177e-08
4.94267e-09
2.7493e-08
-1.64901e-06
-3.46743e-08
8.87138e-09
2.45859e-08
-2.02947e-06
-3.10476e-08
1.1915e-08
2.31125e-08
-2.33911e-06
-2.91275e-08
1.41587e-08
2.2187e-08
-2.64074e-06
-2.78869e-08
1.56196e-08
2.14758e-08
-2.94582e-06
-2.69276e-08
1.62935e-08
2.0874e-08
-3.25771e-06
-2.61232e-08
1.61674e-08
2.03374e-08
-3.57745e-06
-2.54166e-08
1.98416e-08
-3.90441e-06
-2.47846e-08
1.52333e-08
6.91501e-09
1.7277e-08
-1.65616e-06
1.23443e-08
1.54249e-08
-2.03795e-06
1.65708e-08
1.45209e-08
-2.34901e-06
1.97324e-08
1.3971e-08
-2.65214e-06
2.18531e-08
1.35498e-08
-2.95883e-06
2.29198e-08
1.31904e-08
-3.27248e-06
2.29032e-08
1.28681e-08
-3.5941e-06
1.25768e-08
-3.92308e-06
2.17569e-08
7.89668e-09
5.36538e-09
-1.66126e-06
1.40668e-08
4.71036e-09
-2.04403e-06
1.88098e-08
4.4878e-09
-2.35605e-06
2.22963e-08
4.39687e-09
-2.66016e-06
2.45679e-08
4.33684e-09
-2.96788e-06
2.56269e-08
4.28183e-09
-3.28261e-06
2.54598e-08
4.2269e-09
-3.60536e-06
4.17314e-09
-3.93549e-06
2.40457e-08
8.40686e-09
-7.43022e-09
-1.664e-06
1.49482e-08
-6.80052e-09
-2.04733e-06
1.99797e-08
-6.31746e-09
-2.35988e-06
2.36935e-08
-5.94459e-09
-2.66454e-06
2.61364e-08
-5.64204e-09
-2.97286e-06
2.73089e-08
-5.38782e-09
-3.28822e-06
2.71917e-08
-5.16453e-09
-3.61164e-06
-4.95638e-09
-3.94248e-06
2.57489e-08
7.90794e-09
-1.96983e-08
-1.66403e-06
1.40344e-08
-1.7866e-08
-2.04743e-06
1.87115e-08
-1.6719e-08
-2.35997e-06
2.21335e-08
-1.59189e-08
-2.66458e-06
2.43564e-08
-1.52917e-08
-2.97283e-06
2.53919e-08
-1.47698e-08
-3.2881e-06
2.52306e-08
-1.43131e-08
-3.6114e-06
-1.38976e-08
-3.9421e-06
2.38512e-08
6.95733e-09
-3.06592e-08
-1.66152e-06
1.22981e-08
-2.7731e-08
-2.0445e-06
1.64063e-08
-2.60636e-08
-2.35657e-06
1.94689e-08
-2.49687e-08
-2.66068e-06
2.15364e-08
-2.41395e-08
-2.96838e-06
2.26082e-08
-2.34581e-08
-3.28308e-06
2.26576e-08
-2.28587e-08
-3.60579e-06
-2.22919e-08
-3.9359e-06
2.16255e-08
4.4516e-09
-1.65636e-06
-3.8311e-08
7.77657e-09
-2.03847e-06
-3.46697e-08
1.02043e-08
-2.34942e-06
-3.26272e-08
1.18927e-08
-2.65228e-06
-3.13227e-08
1.29182e-08
-2.95856e-06
-3.03672e-08
1.33259e-08
-3.27166e-06
-2.96121e-08
1.31371e-08
-3.5926e-06
-2.89711e-08
-3.92078e-06
-2.83959e-08
1.23648e-08
4.13951e-09
2.03508e-08
-1.64727e-06
-2.62368e-08
7.41991e-09
1.79163e-08
-2.02751e-06
-2.31636e-08
9.95172e-09
1.67153e-08
-2.3368e-06
-2.15637e-08
1.18111e-08
1.59802e-08
-2.63804e-06
-2.05454e-08
1.3018e-08
1.54388e-08
-2.94269e-06
-1.97814e-08
1.35743e-08
1.50014e-08
-3.25412e-06
-1.9163e-08
1.34731e-08
1.46271e-08
-3.57335e-06
-1.86379e-08
1.42919e-08
-3.89977e-06
-1.81816e-08
1.27079e-08
5.66213e-09
1.21746e-08
-1.65366e-06
1.01084e-08
1.06437e-08
-2.03514e-06
1.35653e-08
9.93353e-09
-2.3457e-06
1.61495e-08
9.52239e-09
-2.64827e-06
1.78852e-08
9.22747e-09
-2.95436e-06
1.8765e-08
8.99171e-09
-3.26736e-06
1.87662e-08
8.7914e-09
-3.58828e-06
8.61849e-09
-3.9165e-06
1.785e-08
6.42063e-09
2.7332e-09
-1.65824e-06
1.14412e-08
2.22598e-09
-2.04064e-06
1.5303e-08
2.0921e-09
-2.35208e-06
1.81481e-08
2.06556e-09
-2.65555e-06
2.00136e-08
2.06737e-09
-2.9626e-06
2.09018e-08
2.07584e-09
-3.27659e-06
2.08006e-08
2.0855e-09
-3.59856e-06
2.09615e-09
-3.92786e-06
1.9689e-08
6.79487e-09
-7.32896e-09
-1.66074e-06
1.20877e-08
-6.74278e-09
-2.04366e-06
1.61637e-08
-6.28549e-09
-2.35559e-06
1.91813e-08
-5.92782e-09
-2.65958e-06
2.11803e-08
-5.63266e-09
-2.96717e-06
2.21617e-08
-5.38069e-09
-3.28175e-06
2.21073e-08
-5.15728e-09
-3.60435e-06
-4.94907e-09
-3.93433e-06
2.09831e-08
6.3636e-09
-1.68933e-08
-1.66083e-06
1.13e-08
-1.52779e-08
-2.04384e-06
1.50742e-08
-1.42616e-08
-2.35577e-06
1.78449e-08
-1.3547e-08
-2.65974e-06
1.9659e-08
-1.29859e-08
-2.9673e-06
2.05257e-08
-1.25201e-08
-3.28183e-06
2.0435e-08
-1.21148e-08
-3.60436e-06
-1.17485e-08
-3.93424e-06
1.93655e-08
5.55495e-09
-2.53205e-08
-1.65865e-06
9.83072e-09
-2.27754e-08
-2.04129e-06
1.31246e-08
-2.13164e-08
-2.35282e-06
1.55868e-08
-2.0349e-08
-2.65635e-06
1.72592e-08
-1.96175e-08
-2.96343e-06
1.81417e-08
-1.90224e-08
-3.27747e-06
1.82117e-08
-1.85068e-08
-3.59948e-06
-1.8028e-08
-3.92884e-06
1.74196e-08
3.57607e-09
-1.65416e-06
-3.11086e-08
6.2621e-09
-2.03601e-06
-2.7935e-08
8.23196e-09
-2.34657e-06
-2.61409e-08
9.61073e-09
-2.64904e-06
-2.49768e-08
1.04584e-08
-2.95492e-06
-2.41191e-08
1.08099e-08
-3.2676e-06
-2.3443e-08
1.06814e-08
-3.58812e-06
-2.28754e-08
-3.91585e-06
-2.23741e-08
1.00817e-08
3.45154e-09
1.40204e-08
-1.64599e-06
-1.87532e-08
6.1763e-09
1.19735e-08
-2.02608e-06
-1.61373e-08
8.27011e-09
1.09958e-08
-2.33509e-06
-1.48056e-08
9.80184e-09
1.04171e-08
-2.63602e-06
-1.39758e-08
1.0795e-08
1.00162e-08
-2.94033e-06
-1.33796e-08
1.1257e-08
9.71636e-09
-3.25138e-06
-1.29231e-08
1.1186e-08
9.47882e-09
-3.57021e-06
-1.25572e-08
9.28007e-09
-3.89619e-06
-1.22562e-08
1.05764e-08
4.58413e-09
7.62899e-09
-1.65185e-06
8.17728e-09
6.36059e-09
-2.03313e-06
1.09616e-08
5.80675e-09
-2.3433e-06
1.30377e-08
5.50718e-09
-2.64545e-06
1.44329e-08
5.31483e-09
-2.95107e-06
1.51464e-08
5.18122e-09
-3.26355e-06
1.51635e-08
5.08293e-09
-3.58391e-06
5.0103e-09
-3.91153e-06
1.44526e-08
5.12829e-09
3.5756e-10
-1.6561e-06
9.13301e-09
-3.81179e-11
-2.03825e-06
1.22075e-08
-1.07605e-10
-2.34924e-06
1.44711e-08
-8.58392e-11
-2.65223e-06
1.59638e-08
-3.93433e-11
-2.95874e-06
1.66873e-08
2.47657e-11
-3.27217e-06
1.66377e-08
8.78187e-11
-3.59353e-06
1.52797e-10
-3.92217e-06
1.57956e-08
5.37725e-09
-7.29784e-09
-1.65847e-06
9.55473e-09
-6.75326e-09
-2.04113e-06
1.27636e-08
-6.3219e-09
-2.35259e-06
1.51395e-08
-5.98017e-09
-2.65607e-06
1.67186e-08
-5.69379e-09
-2.9631e-06
1.75123e-08
-5.44519e-09
-3.27709e-06
1.75041e-08
-5.2225e-09
-3.59905e-06
-5.01435e-09
-3.92833e-06
1.66645e-08
4.99111e-09
-1.44746e-08
-1.65865e-06
8.85274e-09
-1.3047e-08
-2.04141e-06
1.17976e-08
-1.21446e-08
-2.35291e-06
1.39592e-08
-1.15057e-08
-2.65639e-06
1.53819e-08
-1.1004e-08
-2.96342e-06
1.6078e-08
-1.05891e-08
-3.2774e-06
1.60417e-08
-1.02303e-08
-3.59933e-06
-9.90801e-09
-3.92857e-06
1.52536e-08
4.30639e-09
-2.06746e-08
-1.65676e-06
7.61434e-09
-1.84555e-08
-2.0392e-06
1.01552e-08
-1.71767e-08
-2.35033e-06
1.20532e-08
-1.63222e-08
-2.65344e-06
1.33483e-08
-1.56794e-08
-2.96006e-06
1.40458e-08
-1.51632e-08
-3.2736e-06
1.41305e-08
-1.47239e-08
-3.59508e-06
-1.43241e-08
-3.92387e-06
1.35627e-08
2.75708e-09
-1.6528e-06
-2.47985e-08
4.82279e-09
-2.03451e-06
-2.20264e-08
6.33194e-09
-2.34482e-06
-2.04543e-08
7.38728e-09
-2.647e-06
-1.94244e-08
8.04056e-09
-2.95259e-06
-1.86677e-08
8.32294e-09
-3.26498e-06
-1.8078e-08
8.24931e-09
-3.58519e-06
-1.75916e-08
-3.91259e-06
-1.71706e-08
7.82567e-09
2.85669e-09
8.2623e-09
-1.64516e-06
-1.19453e-08
5.0956e-09
6.53809e-09
-2.02515e-06
-9.71247e-09
6.80318e-09
5.7486e-09
-2.33395e-06
-8.60984e-09
8.04455e-09
5.30292e-09
-2.63463e-06
-7.94413e-09
8.84878e-09
5.02366e-09
-2.93867e-06
-7.49712e-09
9.23084e-09
4.8442e-09
-3.24943e-06
-7.18713e-09
9.19469e-09
4.72746e-09
-3.56794e-06
-6.96703e-09
4.65007e-09
-3.89358e-06
-6.80943e-09
8.73525e-09
3.65116e-09
3.46419e-09
-1.65071e-06
6.49424e-09
2.41578e-09
-2.03186e-06
8.68029e-09
1.99328e-09
-2.34174e-06
1.03001e-08
1.78771e-09
-2.64356e-06
1.13868e-08
1.68307e-09
-2.94882e-06
1.19497e-08
1.63761e-09
-3.26091e-06
1.19828e-08
1.62885e-09
-3.58086e-06
1.64534e-09
-3.90802e-06
1.1462e-08
3.99897e-09
-1.86627e-09
-1.65478e-06
7.09562e-09
-2.1565e-09
-2.03679e-06
9.45435e-09
-2.16698e-09
-2.34745e-06
1.1181e-08
-2.10227e-09
-2.65008e-06
1.23191e-08
-2.01201e-09
-2.9562e-06
1.28853e-08
-1.91043e-09
-3.2692e-06
1.28785e-08
-1.80127e-09
-3.5901e-06
-1.68894e-09
-3.91826e-06
1.22831e-08
4.11777e-09
-7.3637e-09
-1.65709e-06
7.29205e-09
-6.85471e-09
-2.03962e-06
9.709e-09
-6.44547e-09
-2.35074e-06
1.1489e-08
-6.11801e-09
-2.65384e-06
1.26759e-08
-5.83959e-09
-2.96047e-06
1.32847e-08
-5.59453e-09
-3.27402e-06
1.33135e-08
-5.37232e-09
-3.59552e-06
-5.1634e-09
-3.92429e-06
1.27386e-08
3.76515e-09
-1.23943e-08
-1.65739e-06
6.64845e-09
-1.11276e-08
-2.04003e-06
8.8248e-09
-1.03232e-08
-2.35121e-06
1.04113e-08
-9.74998e-09
-2.65435e-06
1.14566e-08
-9.30075e-09
-2.96102e-06
1.19819e-08
-8.9312e-09
-3.2746e-06
1.19895e-08
-8.61383e-09
-3.59611e-06
-8.33072e-09
-3.92489e-06
1.14645e-08
3.19005e-09
-1.65964e-08
-1.65576e-06
5.61162e-09
-1.46529e-08
-2.03811e-06
7.4496e-09
-1.35291e-08
-2.34898e-06
8.81253e-09
-1.27743e-08
-2.65179e-06
9.74481e-09
-1.22116e-08
-2.95809e-06
1.02619e-08
-1.17677e-08
-3.27129e-06
1.03596e-08
-1.13983e-08
-3.59241e-06
-1.10702e-08
-3.92079e-06
1.00082e-08
1.99006e-09
-1.6522e-06
-1.91923e-08
3.45322e-09
-2.03388e-06
-1.67646e-08
4.49949e-09
-2.34401e-06
-1.53893e-08
5.2187e-09
-2.64602e-06
-1.44848e-08
5.66189e-09
-2.95143e-06
-1.38279e-08
5.86282e-09
-3.26363e-06
-1.33272e-08
5.83946e-09
-3.58365e-06
-1.29257e-08
-3.91084e-06
-1.25882e-08
5.59683e-09
2.33925e-09
2.87396e-09
-1.6448e-06
-5.58335e-09
4.14034e-09
1.42036e-09
-2.02471e-06
-3.67626e-09
5.49033e-09
7.90569e-10
-2.33332e-06
-2.77422e-09
6.45646e-09
4.57763e-10
-2.63381e-06
-2.25589e-09
7.07839e-09
2.82692e-10
-2.93764e-06
-1.94693e-09
7.38256e-09
2.08974e-10
-3.24818e-06
-1.77531e-09
7.38209e-09
2.01611e-10
-3.56646e-06
-1.69453e-09
2.37506e-10
-3.89185e-06
-1.67482e-09
7.07472e-09
2.83331e-09
-4.62618e-10
-1.65022e-06
4.99975e-09
-1.32656e-09
-2.03129e-06
6.63513e-09
-1.63952e-09
-2.34095e-06
7.82636e-09
-1.76371e-09
-2.64254e-06
8.61801e-09
-1.79012e-09
-2.94755e-06
9.03532e-09
-1.75585e-09
-3.25938e-06
9.08554e-09
-1.68256e-09
-3.57903e-06
-1.58353e-09
-3.90588e-06
8.7535e-09
2.99571e-09
-4.02456e-09
-1.65422e-06
5.26527e-09
-4.23355e-09
-2.03616e-06
6.95366e-09
-4.19385e-09
-2.3466e-06
8.16794e-09
-4.09509e-09
-2.64897e-06
8.96122e-09
-3.96618e-09
-2.95482e-06
9.3657e-09
-3.82214e-09
-3.26755e-06
9.39397e-09
-3.66895e-09
-3.58815e-06
-3.5103e-09
-3.91599e-06
9.0363e-09
2.99405e-09
-7.55048e-09
-1.65657e-06
5.24295e-09
-7.07056e-09
-2.03904e-06
6.91297e-09
-6.67963e-09
-2.34994e-06
8.11692e-09
-6.36331e-09
-2.65279e-06
8.91412e-09
-6.09036e-09
-2.95915e-06
9.33612e-09
-5.84635e-09
-3.27243e-06
9.39516e-09
-5.62236e-09
-3.59363e-06
-5.4103e-09
-3.92209e-06
9.07733e-09
2.65852e-09
-1.06077e-08
-1.657e-06
4.63118e-09
-9.47613e-09
-2.03961e-06
6.07263e-09
-8.75444e-09
-2.35059e-06
7.09584e-09
-8.23744e-09
-2.65351e-06
7.76175e-09
-7.83351e-09
-2.95995e-06
8.10784e-09
-7.50359e-09
-3.2733e-06
8.15068e-09
-7.22262e-09
-3.59456e-06
-6.97398e-09
-3.92308e-06
7.88339e-09
2.17909e-09
-1.29709e-08
-1.65558e-06
3.76964e-09
-1.12594e-08
-2.03793e-06
4.93079e-09
-1.02686e-08
-2.34863e-06
5.76691e-09
-9.60131e-09
-2.65127e-06
6.33524e-09
-9.111e-09
-2.9574e-06
6.66837e-09
-8.73355e-09
-3.27041e-06
6.77771e-09
-8.42858e-09
-3.59132e-06
-8.1662e-09
-3.91948e-06
6.64576e-09
1.26648e-09
-1.65232e-06
-1.41227e-08
2.13234e-09
-2.03402e-06
-1.19893e-08
2.70104e-09
-2.34407e-06
-1.07873e-08
3.05882e-09
-2.64599e-06
-9.99799e-09
3.26561e-09
-2.95132e-06
-9.43713e-09
3.36601e-09
-3.26345e-06
-9.02491e-09
3.38671e-09
-3.5834e-06
-8.7093e-09
-3.91052e-06
-8.4567e-09
3.33575e-09
1.89116e-09
-2.3134e-09
-1.64489e-06
5.16613e-10
3.27535e-09
-3.52487e-09
-2.02472e-06
2.14464e-09
4.26909e-09
-4.0092e-09
-2.33319e-06
2.86718e-09
4.94363e-09
-4.22983e-09
-2.63352e-06
3.25363e-09
5.35932e-09
-4.29703e-09
-2.9372e-06
3.43713e-09
5.56205e-09
-4.25924e-09
-3.24761e-06
3.48157e-09
5.58332e-09
-4.15496e-09
-3.56577e-06
3.43284e-09
-4.00765e-09
-3.89103e-06
3.32211e-09
5.42879e-09
2.10093e-09
-4.29847e-09
-1.65034e-06
3.62668e-09
-5.00147e-09
-2.03135e-06
4.71515e-09
-5.21267e-09
-2.34085e-06
5.46623e-09
-5.26315e-09
-2.64227e-06
5.94739e-09
-5.21821e-09
-2.94712e-06
6.20943e-09
-5.10953e-09
-3.2588e-06
6.27927e-09
-4.95873e-09
-3.57831e-06
-4.7805e-09
-3.905e-06
6.15478e-09
2.0878e-09
-6.20208e-09
-1.65441e-06
3.56453e-09
-6.33534e-09
-2.03632e-06
4.58978e-09
-6.25031e-09
-2.3466e-06
5.27462e-09
-6.11652e-09
-2.64881e-06
5.69905e-09
-5.95314e-09
-2.95453e-06
5.92059e-09
-5.76961e-09
-3.26712e-06
5.97443e-09
-5.57375e-09
-3.58761e-06
-5.37028e-09
-3.9153e-06
5.86353e-09
1.96956e-09
-7.8759e-09
-1.65687e-06
3.32781e-09
-7.41753e-09
-2.03933e-06
4.25314e-09
-7.03873e-09
-2.35009e-06
4.86256e-09
-6.72947e-09
-2.6528e-06
5.24283e-09
-6.45891e-09
-2.95904e-06
5.45421e-09
-6.21333e-09
-3.27221e-06
5.53328e-09
-5.98494e-09
-3.59332e-06
-5.76691e-09
-3.92166e-06
5.48132e-09
1.64224e-09
-9.07213e-09
-1.65745e-06
2.72424e-09
-8.05141e-09
-2.04008e-06
3.42324e-09
-7.3977e-09
-2.35094e-06
3.85406e-09
-6.92793e-09
-2.65376e-06
4.10634e-09
-6.56231e-09
-2.96012e-06
4.24504e-09
-6.26626e-09
-3.2734e-06
4.31121e-09
-6.01672e-09
-3.59461e-06
-5.79803e-09
-3.92307e-06
4.3123e-09
1.24552e-09
-9.69407e-09
-1.65621e-06
2.01446e-09
-8.1771e-09
-2.03859e-06
2.48457e-09
-7.29942e-09
-2.34922e-06
2.76326e-09
-6.70902e-09
-2.65178e-06
2.93502e-09
-6.28414e-09
-2.95786e-06
3.06079e-09
-5.9679e-09
-3.27085e-06
3.17692e-09
-5.72266e-09
-3.59175e-06
-5.52118e-09
-3.91988e-06
3.28296e-09
5.77574e-10
-1.65315e-06
-9.44425e-09
8.18273e-10
-2.0349e-06
-7.55996e-09
8.60426e-10
-2.34492e-06
-6.51002e-09
8.02056e-10
-2.64683e-06
-5.82556e-09
7.19906e-10
-2.95218e-06
-5.35511e-09
6.81384e-10
-3.26437e-06
-5.02882e-09
7.35071e-10
-3.5844e-06
-4.7981e-09
-3.91159e-06
-4.62994e-09
8.97527e-10
1.47849e-09
-7.44626e-09
-1.64546e-06
6.52766e-09
2.42843e-09
-8.45111e-09
-2.02514e-06
7.90606e-09
3.00453e-09
-8.80452e-09
-2.33345e-06
8.47384e-09
3.31638e-09
-8.92808e-09
-2.63366e-06
8.73751e-09
3.45592e-09
-8.89746e-09
-2.93726e-06
8.80084e-09
3.50775e-09
-8.75807e-09
-3.24764e-06
8.72061e-09
3.53429e-09
-8.54683e-09
-3.56581e-06
8.54343e-09
-8.28995e-09
-3.89108e-06
8.30163e-09
3.55972e-09
1.43198e-09
-8.14898e-09
-1.65108e-06
2.2929e-09
-8.70313e-09
-2.03197e-06
2.78184e-09
-8.82382e-09
-2.34134e-06
3.02159e-09
-8.8055e-09
-2.64265e-06
3.12274e-09
-8.69229e-09
-2.94745e-06
3.17694e-09
-8.51063e-09
-3.25912e-06
3.24891e-09
-8.28361e-09
-3.57867e-06
-8.02605e-09
-3.90539e-06
3.35804e-09
1.23841e-09
-8.46305e-09
-1.65534e-06
1.89458e-09
-8.52376e-09
-2.03717e-06
2.1898e-09
-8.39457e-09
-2.34734e-06
2.26657e-09
-8.22684e-09
-2.64948e-06
2.24335e-09
-8.02881e-09
-2.95518e-06
2.22382e-09
-7.8061e-09
-3.26782e-06
2.2826e-09
-7.56741e-09
-3.5884e-06
-7.31817e-09
-3.91619e-06
2.44715e-09
1.00293e-09
-8.35618e-09
-1.65799e-06
1.43997e-09
-7.90819e-09
-2.0404e-06
1.54505e-09
-7.53658e-09
-2.35106e-06
1.47801e-09
-7.22922e-09
-2.65374e-06
1.35773e-09
-6.95757e-09
-2.96001e-06
1.29661e-09
-6.70745e-09
-3.27327e-06
1.37386e-09
-6.47193e-09
-3.59451e-06
-6.24504e-09
-3.92299e-06
1.61745e-09
6.62777e-10
-7.74642e-09
-1.65874e-06
8.18176e-10
-6.81336e-09
-2.04134e-06
6.84661e-10
-6.21426e-09
-2.35215e-06
4.34701e-10
-5.78314e-09
-2.65497e-06
1.84476e-10
-5.44891e-09
-2.96139e-06
5.04105e-11
-5.18132e-09
-3.27481e-06
1.1637e-10
-4.95856e-09
-3.59621e-06
-4.76639e-09
-3.92487e-06
4.18033e-10
3.3138e-10
-6.6664e-09
-1.65763e-06
2.42209e-10
-5.31414e-09
-2.04001e-06
-6.80332e-11
-4.53096e-09
-2.3506e-06
-4.39549e-10
-4.00807e-09
-2.6532e-06
-7.52309e-10
-3.64171e-09
-2.95937e-06
-8.96242e-10
-3.38188e-09
-3.27252e-06
-7.91256e-10
-3.19262e-09
-3.59364e-06
-3.04777e-09
-3.922e-06
-4.09261e-10
-1.31152e-10
-1.65468e-06
-5.01546e-09
-5.71134e-10
-2.03644e-06
-3.34609e-09
-1.15064e-09
-2.34646e-06
-2.42443e-09
-1.73496e-09
-2.64843e-06
-1.84023e-09
-2.20553e-09
-2.95391e-06
-1.45985e-09
-2.45298e-09
-3.2663e-06
-1.21957e-09
-2.39134e-09
-3.58659e-06
-1.07619e-09
-3.91408e-06
-9.93088e-10
-1.98161e-09
1.05657e-09
-1.26581e-08
-1.64645e-06
1.25898e-08
1.47471e-09
-1.34823e-08
-2.02585e-06
1.37524e-08
1.49663e-09
-1.37209e-08
-2.33394e-06
1.41779e-08
1.28588e-09
-1.37516e-08
-2.63404e-06
1.43285e-08
1.00048e-09
-1.36288e-08
-2.93764e-06
1.42766e-08
7.89341e-10
-1.33903e-08
-3.24814e-06
1.40744e-08
7.78224e-10
-1.30747e-08
-3.56651e-06
1.37689e-08
-1.27084e-08
-3.89204e-06
1.33952e-08
1.02582e-09
7.49121e-10
-1.21145e-08
-1.65238e-06
8.5592e-10
-1.25335e-08
-2.03305e-06
5.87922e-10
-1.25716e-08
-2.34224e-06
1.54442e-10
-1.24909e-08
-2.64349e-06
-2.79636e-10
-1.2311e-08
-2.94835e-06
-5.47213e-10
-1.20578e-08
-3.2602e-06
-5.18277e-10
-1.17543e-08
-3.58004e-06
-1.14165e-08
-3.90709e-06
-1.2895e-10
3.51731e-10
-1.0867e-08
-1.65695e-06
9.79603e-11
-1.08608e-08
-2.03861e-06
-5.00679e-10
-1.06861e-08
-2.34864e-06
-1.21967e-09
-1.04874e-08
-2.65079e-06
-1.86305e-09
-1.0254e-08
-2.95662e-06
-2.24945e-09
-9.99202e-09
-3.26952e-06
-2.23465e-09
-9.7101e-09
-3.59048e-06
-9.41406e-09
-3.91871e-06
-1.74385e-09
-1.87152e-11
-8.99848e-09
-1.65985e-06
-6.09095e-10
-8.56105e-09
-2.04213e-06
-1.4832e-09
-8.18566e-09
-2.35271e-06
-2.42647e-09
-7.87721e-09
-2.65543e-06
-3.2268e-09
-7.60062e-09
-2.96188e-06
-3.69242e-09
-7.34267e-09
-3.27547e-06
-3.66988e-09
-7.09696e-09
-3.59717e-06
-6.85835e-09
-3.92617e-06
-3.07882e-09
-3.62454e-10
-6.58678e-09
-1.6608e-06
-1.26995e-09
-5.72891e-09
-2.04329e-06
-2.39932e-09
-5.17299e-09
-2.35405e-06
-3.54446e-09
-4.76848e-09
-2.65696e-06
-4.48789e-09
-4.4605e-09
-2.96361e-06
-5.03359e-09
-4.2155e-09
-3.27741e-06
-5.02251e-09
-4.01428e-09
-3.59933e-06
-3.84319e-09
-3.92856e-06
-4.368e-09
-6.24764e-10
-3.80741e-09
-1.6598e-06
-1.72693e-09
-2.58574e-09
-2.04208e-06
-2.99209e-09
-1.88269e-09
-2.35265e-06
-4.21781e-09
-1.41493e-09
-2.65535e-06
-5.20385e-09
-1.09185e-09
-2.96177e-06
-5.75291e-09
-8.78786e-10
-3.27533e-06
-5.71199e-09
-7.3657e-10
-3.59698e-06
-6.47116e-10
-3.92594e-06
-4.99658e-09
-8.98525e-10
-1.65687e-06
-7.34415e-10
-2.17088e-09
-2.03851e-06
7.35088e-10
-3.56258e-09
-2.34852e-06
1.54619e-09
-4.88698e-09
-2.65061e-06
2.06299e-09
-5.94064e-09
-2.95635e-06
2.38022e-09
-6.53809e-09
-3.26916e-06
2.55428e-09
-6.52386e-09
-3.59e-06
2.63062e-09
-3.9181e-06
2.63965e-09
-5.81528e-09
5.52757e-10
-1.80957e-08
1.88594e-08
-1.64777e-06
2.34704e-10
-1.8747e-08
1.98169e-08
-2.02663e-06
-5.83751e-10
-1.88713e-08
2.01109e-08
-2.33438e-06
-1.62307e-09
-1.88194e-08
2.01578e-08
-2.63436e-06
-2.61483e-09
-1.86086e-08
1.99968e-08
-2.93806e-06
-3.29605e-09
-1.82749e-08
1.96764e-08
-3.24888e-06
-3.44478e-09
-1.78565e-08
1.92458e-08
-3.56778e-06
-1.73811e-08
1.87405e-08
-2.93786e-09
-3.89393e-06
-4.23916e-11
-1.62974e-08
-1.65416e-06
-9.2059e-10
-1.66023e-08
-2.03434e-06
-2.22874e-09
-1.65555e-08
-2.34327e-06
-3.67298e-09
-1.64119e-08
-2.64448e-06
-4.94681e-09