/*--------------------------------*- C++ -*----------------------------------*\
| =========                 |                                                 |
| \\      /  F ield         | OpenFOAM: The Open Source CFD Toolbox           |
|  \\    /   O peration     | Version:  plus.master.MPPICInterFoam            |
|   \\  /    A nd           | Web:      www.OpenFOAM.com                      |
|    \\/     M anipulation  |                                                 |
\*---------------------------------------------------------------------------*/
FoamFile
{
    version     2.0;
    format      ascii;
    class       volVectorField;
    location    "5.4";
    object      U;
}
// * * * * * * * * * * * * * * * * * * * * * * * * * * * * * * * * * * * * * //

dimensions      [0 1 -1 0 0 0 0];

internalField   nonuniform List<vector> 
11821
(
(0.00128996 0.00145669 -0.034824)
(0.00122456 0.00125792 -0.0374312)
(0.0011981 0.00112241 -0.0381683)
(0.00116342 0.00103128 -0.0384898)
(0.00112066 0.000959665 -0.0386573)
(0.00106925 0.000901988 -0.0387463)
(0.00101091 0.000855501 -0.0387825)
(0.000947584 0.000818809 -0.0387683)
(0.000766083 0.00127947 -0.0352208)
(0.000794809 0.00109918 -0.0378323)
(0.000824356 0.000979402 -0.0385738)
(0.000825304 0.00089994 -0.0388968)
(0.000807446 0.000839145 -0.0390639)
(0.000774247 0.000791293 -0.0391513)
(0.000729701 0.000753617 -0.0391853)
(0.000676834 0.000724808 -0.0391687)
(0.000334387 0.000820116 -0.0354909)
(0.000431422 0.000709036 -0.0381076)
(0.000496353 0.000635506 -0.0388482)
(0.000519782 0.000585 -0.0391675)
(0.000517091 0.000544849 -0.0393292)
(0.000494868 0.000511717 -0.0394099)
(0.000458776 0.000484262 -0.0394364)
(0.000412787 0.000461961 -0.0394122)
(0.000146847 0.00021069 -0.0356395)
(0.000273724 0.000190762 -0.0382597)
(0.000352999 0.000177135 -0.0389989)
(0.000386923 0.000165952 -0.0393154)
(0.000392404 0.000154824 -0.0394735)
(0.000377169 0.000143768 -0.0395502)
(0.000347302 0.000133308 -0.0395726)
(0.000306794 0.000123979 -0.0395447)
(0.000235573 -0.000418826 -0.035658)
(0.000339617 -0.000348124 -0.0382807)
(0.000402013 -0.000302723 -0.0390169)
(0.000425826 -0.000274907 -0.0393297)
(0.00042532 -0.000256963 -0.0394836)
(0.000407303 -0.000245394 -0.0395559)
(0.000377037 -0.000237826 -0.0395742)
(0.000337901 -0.000232741 -0.0395423)
(0.000600777 -0.000957125 -0.035569)
(0.000639102 -0.000818568 -0.0381879)
(0.000666697 -0.000732236 -0.0389191)
(0.000670048 -0.000681556 -0.0392275)
(0.000658492 -0.000648783 -0.0393774)
(0.000635688 -0.000627066 -0.0394461)
(0.000604666 -0.000612181 -0.0394615)
(0.000567112 -0.00060172 -0.0394277)
(0.00107248 -0.00122048 -0.0353421)
(0.00101395 -0.00107793 -0.0379599)
(0.000979209 -0.000989983 -0.0386786)
(0.000944131 -0.000938744 -0.0389733)
(0.000908288 -0.000902341 -0.0391085)
(0.000871512 -0.000873739 -0.0391618)
(0.000834025 -0.000848532 -0.0391617)
(0.000795861 -0.000824506 -0.0391131)
(0.00103451 0.00116929 -0.0346974)
(0.000985101 0.00100678 -0.0373066)
(0.000965211 0.000899719 -0.0380384)
(0.000940032 0.000828376 -0.0383546)
(0.000908342 0.000773525 -0.0385168)
(0.000869653 0.000730226 -0.0386005)
(0.000825181 0.000695976 -0.038632)
(0.000776317 0.00066942 -0.0386136)
(0.000616282 0.00102362 -0.0350192)
(0.000645866 0.000875616 -0.0376328)
(0.000673859 0.000780497 -0.0383706)
(0.000679096 0.000718239 -0.0386909)
(0.000668357 0.000671696 -0.0388563)
(0.000644349 0.000635973 -0.0389426)
(0.00061015 0.000608623 -0.0389762)
(0.000568096 0.00058843 -0.0389599)
(0.000271775 0.000645944 -0.035241)
(0.000359198 0.000555524 -0.0378594)
(0.000417885 0.000498072 -0.0385982)
(0.000442063 0.000459551 -0.0389176)
(0.000443578 0.000429742 -0.0390808)
(0.00042773 0.000405766 -0.039164)
(0.000399072 0.000386389 -0.0391938)
(0.000360841 0.000371089 -0.0391733)
(0.000126381 0.000140633 -0.0353626)
(0.000239188 0.000127606 -0.037984)
(0.000310686 0.000120058 -0.0387231)
(0.000343629 0.00011414 -0.0390416)
(0.000351592 0.000108002 -0.0392034)
(0.000340839 0.000101617 -0.0392849)
(0.000316338 9.53768e-05 -0.039313)
(0.000281405 8.9708e-05 -0.039291)
(0.000208579 -0.000382026 -0.0353724)
(0.000301438 -0.000317114 -0.0379958)
(0.0003585 -0.000274793 -0.0387327)
(0.000382395 -0.000247966 -0.0390484)
(0.00038467 -0.000230079 -0.0392069)
(0.000370864 -0.000218198 -0.0392849)
(0.000345318 -0.00021032 -0.0393096)
(0.000310893 -0.000205124 -0.0392843)
(0.000517487 -0.000823554 -0.0352876)
(0.000554538 -0.000700295 -0.0379082)
(0.000581438 -0.000623262 -0.0386411)
(0.000587535 -0.000576821 -0.0389533)
(0.000580018 -0.000546371 -0.0391085)
(0.000561812 -0.000526194 -0.0391837)
(0.000535403 -0.000512729 -0.0392062)
(0.000502226 -0.000503876 -0.0391794)
(0.000913971 -0.00103726 -0.0350846)
(0.000867459 -0.000907937 -0.0377038)
(0.000840465 -0.00082796 -0.0384254)
(0.000812636 -0.000779557 -0.0387253)
(0.000783153 -0.000745263 -0.038867)
(0.000751766 -0.000718964 -0.038928)
(0.000718779 -0.00069699 -0.038936)
(0.00068432 -0.000677301 -0.0388952)
(0.000830286 0.000937749 -0.0345988)
(0.000792343 0.000803788 -0.037209)
(0.000777048 0.000718184 -0.0379367)
(0.000758281 0.000661707 -0.0382487)
(0.000734241 0.000619217 -0.0384064)
(0.000704554 0.000586396 -0.0384857)
(0.000670116 0.000560992 -0.038513)
(0.000631951 0.000541735 -0.0384909)
(0.000493982 0.000815028 -0.0348622)
(0.000522223 0.000693359 -0.0374771)
(0.000547483 0.000617438 -0.0382111)
(0.00055452 0.000568413 -0.0385283)
(0.00054812 0.000532602 -0.0386909)
(0.000530453 0.00050584 -0.0387749)
(0.000503933 0.000485987 -0.0388066)
(0.000470386 0.000471937 -0.0387887)
(0.000219186 0.000503696 -0.0350455)
(0.000295983 0.000430207 -0.0376648)
(0.000347485 0.000385282 -0.038401)
(0.00037044 0.000355923 -0.0387189)
(0.000374054 0.00033387 -0.0388812)
(0.000362628 0.000316665 -0.0389643)
(0.000339836 0.0003032 -0.0389946)
(0.000308311 0.000292974 -0.0389748)
(0.000107207 8.62506e-05 -0.0351451)
(0.000205186 7.82237e-05 -0.0377674)
(0.000267743 7.48504e-05 -0.0385047)
(0.000297928 7.25262e-05 -0.0388229)
(0.000306637 6.98286e-05 -0.0389852)
(0.00029896 6.67145e-05 -0.0390681)
(0.000278948 6.34791e-05 -0.0390982)
(0.000249332 6.04621e-05 -0.0390783)
(0.000182166 -0.00034479 -0.0351494)
(0.000262821 -0.000286419 -0.0377733)
(0.000313057 -0.000247967 -0.038509)
(0.000335264 -0.000222983 -0.038825)
(0.000338748 -0.000205925 -0.0389849)
(0.000328016 -0.00019433 -0.0390651)
(0.000306632 -0.000186514 -0.0390924)
(0.000276983 -0.00018134 -0.0390698)
(0.000441523 -0.000703884 -0.0350709)
(0.00047501 -0.000595949 -0.0376927)
(0.000499254 -0.000528341 -0.0384252)
(0.000506055 -0.000486703 -0.0387384)
(0.000500908 -0.000459054 -0.0388956)
(0.00048615 -0.000440646 -0.0389735)
(0.000463811 -0.000428497 -0.038999)
(0.000435087 -0.000420799 -0.0389753)
(0.000773239 -0.00087612 -0.0348927)
(0.000735439 -0.000760977 -0.0375128)
(0.000713714 -0.000689676 -0.0382355)
(0.000691163 -0.00064544 -0.0385379)
(0.000666652 -0.000614115 -0.0386832)
(0.000639936 -0.00059051 -0.0387485)
(0.000611317 -0.000571535 -0.0387612)
(0.000580968 -0.000555364 -0.0387249)
(0.000664191 0.000748301 -0.0345198)
(0.000634703 0.000637096 -0.0371307)
(0.000622765 0.000567987 -0.0378551)
(0.00060852 0.000522871 -0.0381638)
(0.000589996 0.000489679 -0.038318)
(0.000566927 0.000464655 -0.0383939)
(0.000539994 0.00044579 -0.0384178)
(0.000509972 0.000431914 -0.0383925)
(0.000393314 0.000643418 -0.0347383)
(0.000419097 0.000543186 -0.037354)
(0.000441204 0.00048234 -0.0380847)
(0.000448669 0.00044359 -0.0383988)
(0.000444922 0.000415956 -0.0385585)
(0.000431733 0.000395906 -0.0386396)
(0.000411027 0.000381581 -0.0386688)
(0.000384244 0.000371983 -0.0386486)
(0.000175003 0.000386723 -0.0348914)
(0.000241246 0.000327021 -0.0375115)
(0.000285499 0.000291894 -0.0382448)
(0.000306259 0.000269565 -0.0385605)
(0.000310722 0.000253359 -0.038721)
(0.000302401 0.000241188 -0.0388027)
(0.000284273 0.000232073 -0.0388318)
(0.000258475 0.000225544 -0.0388112)
(8.98358e-05 4.36182e-05 -0.034974)
(0.000173449 3.91613e-05 -0.0375969)
(0.000226965 3.86131e-05 -0.0383319)
(0.000253586 3.87023e-05 -0.0386484)
(0.000262041 3.83477e-05 -0.0388098)
(0.00025648 3.75054e-05 -0.0388921)
(0.0002402 3.63994e-05 -0.038922)
(0.000215435 3.52998e-05 -0.0389021)
(0.000157477 -0.000309026 -0.0349753)
(0.000226089 -0.00025733 -0.0375996)
(0.000269082 -0.000223016 -0.0383334)
(0.000288731 -0.000200289 -0.0386483)
(0.00029249 -0.000184477 -0.0388077)
(0.000284028 -0.000173518 -0.0388879)
(0.000266253 -0.000165993 -0.0389156)
(0.000241136 -0.000160932 -0.0388936)
(0.000373833 -0.000598435 -0.034904)
(0.000402661 -0.000504966 -0.0375269)
(0.000423352 -0.000446334 -0.0382581)
(0.000429707 -0.000409579 -0.0385707)
(0.000425888 -0.000384886 -0.038728)
(0.000413763 -0.000368323 -0.0388063)
(0.000394975 -0.000357398 -0.0388325)
(0.000370508 -0.000350568 -0.0388096)
(0.000649707 -0.000735632 -0.0347495)
(0.000618267 -0.000634545 -0.0373703)
(0.000600198 -0.000571971 -0.0380931)
(0.000581554 -0.000532464 -0.0383966)
(0.000561021 -0.000504489 -0.0385437)
(0.000538369 -0.000483675 -0.0386112)
(0.000513855 -0.000467408 -0.0386263)
(0.000487662 -0.000454087 -0.0385924)
(0.000526525 0.000590565 -0.0344556)
(0.000503397 0.000497764 -0.037067)
(0.000494021 0.000441621 -0.037789)
(0.000483127 0.000405388 -0.0380951)
(0.000468775 0.000379368 -0.0382467)
(0.000450787 0.000360305 -0.0383198)
(0.000429687 0.000346414 -0.038341)
(0.000406064 0.000336631 -0.0383131)
(0.000309415 0.000500313 -0.03464)
(0.00033225 0.000417608 -0.0372565)
(0.000351191 0.000368761 -0.0379842)
(0.000358377 0.000338114 -0.0382955)
(0.000356284 0.000316834 -0.0384523)
(0.000346378 0.000301929 -0.0385308)
(0.000330198 0.000291782 -0.0385573)
(0.000308891 0.000285505 -0.0385347)
(0.000137639 0.000289255 -0.0347699)
(0.000193939 0.000240797 -0.0373908)
(0.000231321 0.000213417 -0.0381214)
(0.000249499 0.000196553 -0.0384346)
(0.000254104 0.000184819 -0.0385929)
(0.000248016 0.000176452 -0.0386725)
(0.000233648 0.000170591 -0.0386999)
(0.000212731 0.000166807 -0.0386778)
(7.43891e-05 9.38343e-06 -0.0348398)
(0.000144684 7.46977e-06 -0.0374634)
(0.000189603 8.82914e-06 -0.0381957)
(0.000212417 1.05349e-05 -0.0385102)
(0.000220085 1.17797e-05 -0.0386696)
(0.000215996 1.25272e-05 -0.0387504)
(0.000202825 1.29481e-05 -0.038779)
(0.000182389 1.32559e-05 -0.038758)
(0.000135061 -0.000276056 -0.0348398)
(0.000192366 -0.000230771 -0.0374647)
(0.000228274 -0.000200535 -0.0381962)
(0.000245018 -0.000180181 -0.0385094)
(0.00024852 -0.000165789 -0.0386674)
(0.00024176 -0.000155628 -0.0387466)
(0.000227098 -0.000148505 -0.0387734)
(0.000206141 -0.0001436 -0.0387507)
(0.0003144 -0.000506562 -0.0347763)
(0.000338171 -0.00042627 -0.0374001)
(0.000355009 -0.000375887 -0.0381295)
(0.000360315 -0.000343816 -0.0384408)
(0.00035719 -0.000322038 -0.0385971)
(0.000347122 -0.000307291 -0.0386746)
(0.000331425 -0.000297498 -0.0387002)
(0.000310893 -0.000291349 -0.0386767)
(0.000541913 -0.000613746 -0.0346429)
(0.00051512 -0.000525979 -0.0372645)
(0.000499595 -0.000471782 -0.0379869)
(0.000483887 -0.000437109 -0.0382906)
(0.000466591 -0.000412554 -0.0384383)
(0.000447482 -0.000394449 -0.0385068)
(0.000426754 -0.000380583 -0.038523)
(0.000404563 -0.000369566 -0.0384903)
(0.00041008 0.000456663 -0.0344035)
(0.000391809 0.000378977 -0.0370155)
(0.000384464 0.000333265 -0.0377356)
(0.000376178 0.00030416 -0.0380397)
(0.000365141 0.000283838 -0.0381891)
(0.000351232 0.000269484 -0.03826)
(0.000334849 0.000259513 -0.0382791)
(0.000316434 0.00025296 -0.0382492)
(0.000238371 0.000378873 -0.0345623)
(0.00025812 0.000310611 -0.0371797)
(0.000274081 0.000271479 -0.0379049)
(0.000280668 0.000247361 -0.0382137)
(0.000279655 0.000231151 -0.0383679)
(0.000272264 0.000220311 -0.0384438)
(0.000259729 0.000213438 -0.0384679)
(0.000242955 0.00020974 -0.0384429)
(0.000105685 0.000206477 -0.034675)
(0.000152879 0.000167258 -0.0372967)
(0.000183959 0.000146106 -0.0380248)
(0.000199492 0.00013358 -0.0383356)
(0.000203861 0.000125353 -0.0384916)
(0.000199432 0.00011994 -0.038569)
(0.000188156 0.000116588 -0.0385944)
(0.000171422 0.000114907 -0.0385704)
(6.07892e-05 -1.91628e-05 -0.0347355)
(0.000119031 -1.92434e-05 -0.0373601)
(0.000156038 -1.65754e-05 -0.0380899)
(0.000175107 -1.37671e-05 -0.038402)
(0.000181735 -1.1404e-05 -0.0385593)
(0.000178689 -9.51117e-06 -0.0386381)
(0.00016813 -7.95928e-06 -0.0386648)
(0.000151519 -6.58134e-06 -0.0386421)
(0.000115101 -0.000246672 -0.0347356)
(0.000162067 -0.000207308 -0.0373615)
(0.000191313 -0.000180895 -0.0380907)
(0.000205095 -0.000162846 -0.0384019)
(0.000208047 -0.000149888 -0.0385581)
(0.000202587 -0.000140562 -0.0386356)
(0.000190611 -0.00013387 -0.038661)
(0.000173406 -0.000129118 -0.038637)
(0.000262651 -0.000427046 -0.0346798)
(0.000281353 -0.0003585 -0.0373047)
(0.000294355 -0.000315533 -0.0380321)
(0.00029833 -0.000287812 -0.0383418)
(0.000295518 -0.000268797 -0.0384965)
(0.000287099 -0.000255779 -0.0385727)
(0.000274104 -0.000247025 -0.038597)
(0.000257153 -0.000241427 -0.0385722)
(0.000447993 -0.000508126 -0.0345646)
(0.000424551 -0.000432635 -0.0371871)
(0.000410766 -0.000386247 -0.0379088)
(0.000397284 -0.000356254 -0.0382122)
(0.000382654 -0.000335014 -0.0383599)
(0.000366645 -0.000319446 -0.0384286)
(0.000349373 -0.000307684 -0.0384452)
(0.000330943 -0.000298532 -0.0384127)
(0.000309426 0.000340526 -0.0343621)
(0.000294914 0.000275438 -0.0369748)
(0.000289234 0.000238319 -0.0376933)
(0.000283074 0.000215097 -0.0379957)
(0.00027479 0.000199461 -0.0381434)
(0.000264294 0.00018897 -0.0382124)
(0.000251876 0.000182214 -0.0382297)
(0.000237852 0.000178319 -0.0381981)
(0.000177058 0.0002736 -0.0345022)
(0.00019378 0.000217372 -0.0371205)
(0.000207028 0.00018626 -0.0378435)
(0.0002129 0.000167538 -0.0381501)
(0.000212646 0.000155505 -0.038302)
(0.000207281 0.000148005 -0.0383755)
(0.000197784 0.000143812 -0.0383973)
(0.000184861 0.00014222 -0.0383701)
(7.79404e-05 0.000134444 -0.0346022)
(0.000116922 0.000102911 -0.0372251)
(0.000142311 8.6878e-05 -0.0379508)
(0.000155296 7.78938e-05 -0.0382593)
(0.000159241 7.25127e-05 -0.0384131)
(0.000156094 6.94841e-05 -0.0384883)
(0.000147416 6.81485e-05 -0.0385116)
(0.00013431 6.81539e-05 -0.0384856)
(4.88683e-05 -4.41484e-05 -0.0346564)
(9.63384e-05 -4.28687e-05 -0.0372822)
(0.000126172 -3.9264e-05 -0.0380095)
(0.000141696 -3.56663e-05 -0.0383193)
(0.000147183 -3.24786e-05 -0.0384744)
(0.000144892 -2.97144e-05 -0.038551)
(0.000136554 -2.72769e-05 -0.0385757)
(0.000123325 -2.50383e-05 -0.038551)
(9.75655e-05 -0.000221255 -0.0346576)
(0.000135195 -0.000187213 -0.0372846)
(0.000158287 -0.000164272 -0.0380116)
(0.000169185 -0.000148359 -0.0383207)
(0.000171431 -0.000136754 -0.038475)
(0.000166978 -0.000128223 -0.0385507)
(0.000157327 -0.000121932 -0.0385744)
(0.00014349 -0.000117298 -0.0385487)
(0.000217742 -0.000358399 -0.0346089)
(0.000231552 -0.000300187 -0.037235)
(0.000240871 -0.000263814 -0.0379605)
(0.000243402 -0.000240056 -0.0382684)
(0.000240676 -0.000223604 -0.0384213)
(0.000233612 -0.000212197 -0.0384958)
(0.000222997 -0.00020439 -0.0385185)
(0.000209293 -0.00019925 -0.0384922)
(0.000365962 -0.000416369 -0.0345089)
(0.000344855 -0.000351995 -0.0371325)
(0.000332199 -0.000312765 -0.0378533)
(0.000320402 -0.000287178 -0.0381561)
(0.000307983 -0.000269059 -0.0383034)
(0.000294695 -0.000255825 -0.0383718)
(0.000280566 -0.0002459 -0.0383882)
(0.000265635 -0.000238263 -0.0383556)
(0.000220389 0.000237387 -0.0343306)
(0.000208824 0.000182955 -0.036944)
(0.000204548 0.000153083 -0.037661)
(0.000200181 0.000134866 -0.037962)
(0.000194264 0.000123228 -0.038108)
(0.00018673 0.000116042 -0.0381755)
(0.000177765 0.000112041 -0.0381912)
(0.000167577 0.000110433 -0.0381581)
(0.000122973 0.000180058 -0.0344574)
(0.000136824 0.000133981 -0.0370767)
(0.000147632 0.000109641 -0.0377978)
(0.000152776 9.55117e-05 -0.0381023)
(0.000153095 8.70516e-05 -0.038252)
(0.000149436 8.24204e-05 -0.0383234)
(0.00014256 8.05349e-05 -0.0383432)
(0.000133002 8.07631e-05 -0.0383139)
(5.33914e-05 6.99411e-05 -0.0345488)
(8.50054e-05 4.49053e-05 -0.0371729)
(0.000105278 3.31928e-05 -0.0378964)
(0.00011587 2.72006e-05 -0.0382027)
(0.000119305 2.42251e-05 -0.0383543)
(0.000117182 2.32112e-05 -0.0384275)
(0.000110735 2.3583e-05 -0.0384488)
(0.000100829 2.50183e-05 -0.0384209)
(3.84269e-05 -6.72395e-05 -0.0345991)
(7.63135e-05 -6.4893e-05 -0.0372262)
(9.9644e-05 -6.05639e-05 -0.0379513)
(0.000111848 -5.63515e-05 -0.0382588)
(0.000116152 -5.25033e-05 -0.0384117)
(0.000114411 -4.90238e-05 -0.0384862)
(0.000107992 -4.58401e-05 -0.0385088)
(9.77805e-05 -4.2858e-05 -0.0384822)
(8.23087e-05 -0.000199909 -0.0346019)
(0.000111524 -0.000170559 -0.0372303)
(0.000128939 -0.000150708 -0.0379552)
(0.000137067 -0.000136716 -0.0382623)
(0.000138508 -0.000126335 -0.0384146)
(0.000134835 -0.000118514 -0.0384884)
(0.000127215 -0.000112559 -0.0385103)
(0.000116411 -0.000107985 -0.038483)
(0.000178729 -0.000299058 -0.0345597)
(0.000187887 -0.000249879 -0.0371872)
(0.000193698 -0.000219349 -0.0379108)
(0.000194743 -0.000199175 -0.0382168)
(0.000191946 -0.000185078 -0.038368)
(0.000186015 -0.000175159 -0.0384408)
(0.00017752 -0.00016821 -0.0384618)
(0.000166777 -0.00016345 -0.0384338)
(0.000293869 -0.000336135 -0.0344721)
(0.000274272 -0.000281733 -0.0370969)
(0.00026225 -0.00024902 -0.0378167)
(0.0002517 -0.000227528 -0.0381186)
(0.00024111 -0.000212324 -0.0382652)
(0.000230216 -0.000201226 -0.038333)
(0.00021895 -0.000192908 -0.038349)
(0.000207273 -0.000186506 -0.0383159)
(0.000139671 0.000143414 -0.0343087)
(0.00013044 9.81398e-05 -0.0369226)
(0.000127358 7.45419e-05 -0.0376381)
(0.000124531 6.07294e-05 -0.0379375)
(0.000120694 5.26436e-05 -0.0380821)
(0.0001158 4.84097e-05 -0.0381482)
(0.000109943 4.68758e-05 -0.0381625)
(0.00010323 4.73122e-05 -0.038128)
(7.4094e-05 9.46397e-05 -0.0344268)
(8.52673e-05 5.72793e-05 -0.037047)
(9.38626e-05 3.88215e-05 -0.0377661)
(9.82804e-05 2.87392e-05 -0.0380686)
(9.90406e-05 2.34656e-05 -0.0382164)
(9.68597e-05 2.1409e-05 -0.0382859)
(9.23134e-05 2.16066e-05 -0.0383037)
(8.5784e-05 2.34847e-05 -0.0382727)
(3.12257e-05 1.02354e-05 -0.0345129)
(5.62389e-05 -9.21545e-06 -0.0371381)
(7.18259e-05 -1.71618e-05 -0.0378595)
(8.0127e-05 -2.05119e-05 -0.0381637)
(8.2951e-05 -2.13399e-05 -0.0383132)
(8.16434e-05 -2.05391e-05 -0.0383844)
(7.71629e-05 -1.86286e-05 -0.0384039)
(7.01457e-05 -1.58979e-05 -0.0383742)
(2.91976e-05 -8.9792e-05 -0.0345613)
(5.84829e-05 -8.65633e-05 -0.0371897)
(7.58696e-05 -8.16241e-05 -0.0379126)
(8.49547e-05 -7.6875e-05 -0.038218)
(8.80669e-05 -7.24365e-05 -0.0383687)
(8.67274e-05 -6.83003e-05 -0.0384412)
(8.19919e-05 -6.44241e-05 -0.0384619)
(7.45301e-05 -6.07418e-05 -0.0384335)
(6.91072e-05 -0.000182517 -0.0345663)
(9.06739e-05 -0.000157234 -0.037196)
(0.000102779 -0.000140098 -0.0379188)
(0.000108215 -0.000127806 -0.0382239)
(0.00010875 -0.000118511 -0.0383743)
(0.000105665 -0.000111309 -0.0384463)
(9.98323e-05 -0.000105616 -0.0384665)
(9.18043e-05 -0.000101031 -0.0384375)
(0.00014466 -0.000247495 -0.0345298)
(0.000149383 -0.00020621 -0.0371585)
(0.000151798 -0.000180884 -0.0378803)
(0.000151303 -0.000163964 -0.0381844)
(0.000148289 -0.00015204 -0.0383338)
(0.000143303 -0.000143498 -0.0384049)
(0.000136721 -0.000137325 -0.0384243)
(0.000128722 -0.000132868 -0.0383947)
(0.000229874 -0.000265227 -0.0344518)
(0.00021108 -0.000219751 -0.0370777)
(0.000199248 -0.000192993 -0.0377964)
(0.000189551 -0.000175317 -0.0380973)
(0.000180445 -0.000162847 -0.038243)
(0.00017165 -0.000153723 -0.0383101)
(0.000163006 -0.000146823 -0.0383254)
(0.000154388 -0.000141423 -0.0382916)
(6.45565e-05 5.53986e-05 -0.0342962)
(5.71778e-05 1.81514e-05 -0.0369102)
(5.50851e-05 1.64003e-07 -0.037624)
(5.35621e-05 -9.60833e-06 -0.0379217)
(5.15518e-05 -1.43809e-05 -0.0380648)
(4.90488e-05 -1.5847e-05 -0.0381295)
(4.60616e-05 -1.50733e-05 -0.0381425)
(4.26136e-05 -1.27461e-05 -0.0381068)
(2.86887e-05 1.42751e-05 -0.0344098)
(3.73252e-05 -1.54521e-05 -0.0370305)
(4.3831e-05 -2.86314e-05 -0.0377475)
(4.74755e-05 -3.49972e-05 -0.038048)
(4.85333e-05 -3.72878e-05 -0.0381939)
(4.76453e-05 -3.69071e-05 -0.0382617)
(4.52348e-05 -3.4735e-05 -0.0382779)
(4.15555e-05 -3.13007e-05 -0.0382452)
(1.06782e-05 -4.68501e-05 -0.0344933)
(2.96713e-05 -6.1338e-05 -0.0371192)
(4.08544e-05 -6.58748e-05 -0.0378384)
(4.68897e-05 -6.6787e-05 -0.0381405)
(4.89875e-05 -6.56073e-05 -0.0382881)
(4.83086e-05 -6.30989e-05 -0.0383576)
(4.55838e-05 -5.97322e-05 -0.0383754)
(4.1264e-05 -5.57762e-05 -0.0383441)
(2.10149e-05 -0.000112885 -0.0345416)
(4.24625e-05 -0.00010884 -0.0371709)
(5.42101e-05 -0.000103316 -0.0378915)
(6.02185e-05 -9.80402e-05 -0.0381947)
(6.20137e-05 -9.30242e-05 -0.0383435)
(6.09013e-05 -8.82471e-05 -0.0384142)
(5.76737e-05 -8.36886e-05 -0.0384332)
(5.28005e-05 -7.93085e-05 -0.0384031)
(5.77299e-05 -0.000168905 -0.0345492)
(7.21969e-05 -0.000147156 -0.0371798)
(7.91576e-05 -0.000132422 -0.0379005)
(8.18553e-05 -0.00012164 -0.0382036)
(8.13079e-05 -0.000113304 -0.0383522)
(7.85994e-05 -0.00010662 -0.0384225)
(7.43577e-05 -0.000101097 -0.0384413)
(6.89458e-05 -9.64089e-05 -0.0384108)
(0.000114639 -0.000202306 -0.0345175)
(0.00011502 -0.000167976 -0.0371471)
(0.000114006 -0.00014736 -0.0378669)
(0.000111829 -0.000133443 -0.0381691)
(0.000108398 -0.000123563 -0.0383169)
(0.00010416 -0.000116313 -0.0383864)
(9.93246e-05 -0.000110836 -0.0384044)
(9.39435e-05 -0.000106592 -0.0383734)
(0.00017229 -0.000201646 -0.0344469)
(0.000153631 -0.00016421 -0.0370735)
(0.000141518 -0.000142978 -0.0377907)
(0.000132265 -0.000128929 -0.0380903)
(0.000124276 -0.000119092 -0.038235)
(0.000117296 -0.000111832 -0.0383013)
(0.000111068 -0.000106201 -0.038316)
(0.000105382 -0.000101595 -0.0382816)
(-7.27004e-06 -2.94906e-05 -0.0342934)
(-1.31863e-05 -5.94963e-05 -0.0369064)
(-1.45548e-05 -7.2232e-05 -0.0376181)
(-1.50666e-05 -7.80935e-05 -0.037914)
(-1.55566e-05 -7.95814e-05 -0.0380555)
(-1.59355e-05 -7.82855e-05 -0.038119)
(-1.6256e-05 -7.52253e-05 -0.038131)
(-1.65492e-05 -7.10777e-05 -0.0380943)
(-1.474e-05 -6.3678e-05 -0.034406)
(-8.63271e-06 -8.64951e-05 -0.0370261)
(-4.3312e-06 -9.47274e-05 -0.0377406)
(-1.68117e-06 -9.7507e-05 -0.038039)
(-5.77059e-07 -9.68672e-05 -0.0381832)
(-3.65142e-07 -9.40863e-05 -0.0382495)
(-7.44137e-07 -8.99856e-05 -0.0382644)
(-1.57333e-06 -8.50611e-05 -0.0382304)
(-8.85918e-06 -0.00010311 -0.0344895)
(4.40253e-06 -0.000113079 -0.0371152)
(1.1156e-05 -0.000114393 -0.0378318)
(1.47428e-05 -0.000112929 -0.0381318)
(1.58418e-05 -0.000109754 -0.0382776)
(1.55559e-05 -0.000105546 -0.0383456)
(1.44343e-05 -0.000100743 -0.0383622)
(1.27711e-05 -9.55998e-05 -0.0383296)
(1.36405e-05 -0.000137492 -0.0345394)
(2.76754e-05 -0.000132596 -0.0371686)
(3.37614e-05 -0.000126449 -0.0378865)
(3.65073e-05 -0.000120605 -0.0381875)
(3.67034e-05 -0.000114979 -0.0383346)
(3.55749e-05 -0.000109532 -0.0384038)
(3.3703e-05 -0.000104264 -0.0384216)
(3.13898e-05 -9.9155e-05 -0.0383902)
(4.79496e-05 -0.000158868 -0.0345499)
(5.55272e-05 -0.000140201 -0.0371805)
(5.71774e-05 -0.000127647 -0.0378987)
(5.6861e-05 -0.000118246 -0.0381997)
(5.48846e-05 -0.000110791 -0.0383466)
(5.22755e-05 -0.000104551 -0.0384157)
(4.94576e-05 -9.91104e-05 -0.0384334)
(4.66316e-05 -9.42024e-05 -0.0384019)
(8.78494e-05 -0.000162223 -0.0345223)
(8.3743e-05 -0.000134136 -0.0371518)
(7.89764e-05 -0.000117931 -0.0378692)
(7.47893e-05 -0.000106896 -0.0381695)
(7.05959e-05 -9.90202e-05 -0.0383157)
(6.68503e-05 -9.30229e-05 -0.0383841)
(6.36257e-05 -8.81689e-05 -0.0384011)
(6.08594e-05 -8.40139e-05 -0.0383689)
(0.000119589 -0.000143568 -0.0344569)
(0.000100359 -0.000113527 -0.0370831)
(8.73423e-05 -9.76396e-05 -0.0377983)
(7.8019e-05 -8.71987e-05 -0.0380964)
(7.07018e-05 -8.00203e-05 -0.0382401)
(6.52156e-05 -7.46043e-05 -0.0383058)
(6.12205e-05 -7.0133e-05 -0.03832)
(5.84259e-05 -6.61029e-05 -0.0382851)
(-7.77038e-05 -0.000113417 -0.0343004)
(-8.27248e-05 -0.00013667 -0.0369108)
(-8.39561e-05 -0.00014416 -0.0376195)
(-8.39867e-05 -0.000145949 -0.0379133)
(-8.34196e-05 -0.000143956 -0.0380535)
(-8.19882e-05 -0.000139769 -0.0381161)
(-7.97745e-05 -0.000134403 -0.0381276)
(-7.68242e-05 -0.000128563 -0.0380905)
(-5.74194e-05 -0.000141548 -0.0344151)
(-5.40795e-05 -0.000157819 -0.0370327)
(-5.24882e-05 -0.000161102 -0.0377442)
(-5.13337e-05 -0.000160179 -0.0380402)
(-5.0671e-05 -0.000156445 -0.0381829)
(-4.96945e-05 -0.000151142 -0.0382482)
(-4.81702e-05 -0.00014507 -0.0382625)
(-4.60395e-05 -0.000138707 -0.0382279)
(-2.80276e-05 -0.000160431 -0.0345013)
(-2.05949e-05 -0.000166074 -0.0371248)
(-1.88329e-05 -0.000164118 -0.0378383)
(-1.82555e-05 -0.000160193 -0.038136)
(-1.87042e-05 -0.000154921 -0.0382804)
(-1.89785e-05 -0.000148935 -0.0383475)
(-1.86338e-05 -0.000142662 -0.0383636)
(-1.75009e-05 -0.000136346 -0.0383306)
(6.85626e-06 -0.0001644 -0.0345543)
(1.34233e-05 -0.000158584 -0.0371814)
(1.32357e-05 -0.000151741 -0.0378961)
(1.21063e-05 -0.000145258 -0.0381949)
(1.01172e-05 -0.000138966 -0.0383405)
(8.57187e-06 -0.000132796 -0.038409)
(7.9093e-06 -0.000126765 -0.0384263)
(8.30404e-06 -0.000120874 -0.0383945)
(3.94772e-05 -0.000152209 -0.034568)
(3.99075e-05 -0.000136298 -0.0371967)
(3.55263e-05 -0.000125854 -0.0379117)
(3.15173e-05 -0.000117809 -0.0382107)
(2.74666e-05 -0.000111231 -0.0383563)
(2.4529e-05 -0.000105402 -0.0384248)
(2.29759e-05 -9.99605e-05 -0.0384423)
(2.28763e-05 -9.46878e-05 -0.0384105)
(6.3515e-05 -0.00012613 -0.0345438)
(5.43917e-05 -0.00010386 -0.0371713)
(4.50395e-05 -9.20553e-05 -0.0378856)
(3.81764e-05 -8.39871e-05 -0.0381839)
(3.26094e-05 -7.82142e-05 -0.0383289)
(2.89543e-05 -7.35121e-05 -0.0383967)
(2.72074e-05 -6.92226e-05 -0.0384135)
(2.72107e-05 -6.49718e-05 -0.0383811)
(7.02191e-05 -8.92744e-05 -0.0344817)
(4.96145e-05 -6.63772e-05 -0.0371055)
(3.46836e-05 -5.60223e-05 -0.037818)
(2.45538e-05 -4.94647e-05 -0.0381144)
(1.73081e-05 -4.51612e-05 -0.0382573)
(1.28898e-05 -4.1705e-05 -0.0383227)
(1.09586e-05 -3.8328e-05 -0.0383371)
(1.11636e-05 -3.46011e-05 -0.0383024)
(-0.00014893 -0.000198822 -0.034317)
(-0.000153735 -0.000215126 -0.0369218)
(-0.000155857 -0.0002168 -0.0376264)
(-0.000156311 -0.000213927 -0.0379178)
(-0.000155458 -0.000207929 -0.038057)
(-0.000152714 -0.000200501 -0.0381196)
(-0.000148122 -0.000192719 -0.0381318)
(-0.000141688 -0.000185359 -0.0380953)
(-0.000100577 -0.00022145 -0.0344367)
(-0.00010075 -0.000231045 -0.037049)
(-0.000103086 -0.000228957 -0.0377562)
(-0.000104463 -0.000223903 -0.0380499)
(-0.000105154 -0.000216658 -0.0381915)
(-0.000103978 -0.000208555 -0.0382569)
(-0.000100703 -0.000200408 -0.0382719)
(-9.52991e-05 -0.000192699 -0.038238)
(-4.7412e-05 -0.000220494 -0.0345282)
(-4.66251e-05 -0.000221675 -0.0371465)
(-5.13269e-05 -0.000216095 -0.0378557)
(-5.4915e-05 -0.000209478 -0.038151)
(-5.79245e-05 -0.000201853 -0.0382946)
(-5.88516e-05 -0.000193915 -0.038362)
(-5.72192e-05 -0.000186099 -0.0383791)
(-5.29273e-05 -0.000178645 -0.038347)
(3.70723e-07 -0.000194356 -0.0345858)
(-1.32237e-06 -0.00018761 -0.0372077)
(-9.43948e-06 -0.00017989 -0.0379182)
(-1.57172e-05 -0.000172719 -0.0382147)
(-2.09387e-05 -0.000165678 -0.0383596)
(-2.36233e-05 -0.000158717 -0.0384285)
(-2.32656e-05 -0.000151859 -0.038447)
(-1.97836e-05 -0.000145117 -0.0384163)
(3.17353e-05 -0.000148748 -0.0346034)
(2.42295e-05 -0.000135606 -0.0372268)
(1.21546e-05 -0.00012735 -0.0379377)
(3.06478e-06 -0.00012079 -0.0382345)
(-4.10837e-06 -0.000115183 -0.0383796)
(-8.12053e-06 -0.000109804 -0.0384488)
(-8.61546e-06 -0.000104294 -0.0384675)
(-5.61236e-06 -9.84686e-05 -0.038437)
(4.04818e-05 -9.32166e-05 -0.0345817)
(2.54471e-05 -7.67039e-05 -0.0372038)
(1.00596e-05 -6.96348e-05 -0.0379141)
(-8.91821e-07 -6.48808e-05 -0.0382104)
(-8.86409e-06 -6.15125e-05 -0.0383549)
(-1.31241e-05 -5.82846e-05 -0.0384234)
(-1.35972e-05 -5.45326e-05 -0.0384415)
(-1.04838e-05 -4.99229e-05 -0.0384105)
(2.25416e-05 -3.77112e-05 -0.0345208)
(-6.02383e-07 -2.20093e-05 -0.0371392)
(-1.86937e-05 -1.77632e-05 -0.0378479)
(-3.09502e-05 -1.56649e-05 -0.0381424)
(-3.91638e-05 -1.47874e-05 -0.0382849)
(-4.31721e-05 -1.36133e-05 -0.0383512)
(-4.32556e-05 -1.13382e-05 -0.0383671)
(-3.98043e-05 -7.57196e-06 -0.0383339)
(-0.000222745 -0.000287463 -0.0343419)
(-0.000228717 -0.000295996 -0.0369367)
(-0.00023353 -0.000290502 -0.0376355)
(-0.000236042 -0.00028182 -0.0379243)
(-0.00023621 -0.00027082 -0.0380633)
(-0.000233029 -0.000259476 -0.0381276)
(-0.000226283 -0.000249092 -0.0381426)
(-0.000215976 -0.000240473 -0.0381089)
(-0.000145786 -0.00030503 -0.0344696)
(-0.000150996 -0.000307559 -0.037072)
(-0.00015948 -0.000298965 -0.0377733)
(-0.000165385 -0.000288856 -0.0380645)
(-0.00016894 -0.00027739 -0.0382063)
(-0.000168595 -0.000265987 -0.0382737)
(-0.000163841 -0.000255585 -0.0382918)
(-0.000154617 -0.000246734 -0.0382612)
(-6.84462e-05 -0.000284505 -0.0345689)
(-7.58772e-05 -0.000281011 -0.037177)
(-8.9332e-05 -0.000271225 -0.0378804)
(-9.94867e-05 -0.000261266 -0.0381735)
(-0.000106881 -0.000250859 -0.0383175)
(-0.00010963 -0.000240682 -0.0383874)
(-0.000107026 -0.000231221 -0.038408)
(-9.8948e-05 -0.000222719 -0.0383798)
(-7.01537e-06 -0.000228264 -0.0346324)
(-1.88261e-05 -0.000220341 -0.0372443)
(-3.71912e-05 -0.000211696 -0.0379491)
(-5.11346e-05 -0.000203693 -0.0382435)
(-6.16022e-05 -0.000195826 -0.038389)
(-6.66687e-05 -0.000188007 -0.0384607)
(-6.56252e-05 -0.00018026 -0.0384831)
(-5.83845e-05 -0.000172603 -0.0384565)
(2.39409e-05 -0.000148715 -0.0346543)
(6.34167e-06 -0.000138351 -0.0372676)
(-1.59331e-05 -0.000132703 -0.037973)
(-3.2588e-05 -0.000128023 -0.0382677)
(-4.49362e-05 -0.000123717 -0.0384137)
(-5.12799e-05 -0.000118956 -0.0384859)
(-5.10588e-05 -0.000113346 -0.0385088)
(-4.42944e-05 -0.000106712 -0.0384827)
(1.7804e-05 -6.27711e-05 -0.0346345)
(-5.43126e-06 -5.241e-05 -0.0372464)
(-2.93367e-05 -5.09603e-05 -0.0379513)
(-4.66488e-05 -5.04302e-05 -0.0382455)
(-5.89193e-05 -5.02155e-05 -0.0383909)
(-6.49336e-05 -4.8887e-05 -0.0384623)
(-6.44292e-05 -4.57086e-05 -0.0384846)
(-5.75772e-05 -4.03532e-05 -0.0384579)
(-2.50768e-05 1.2938e-05 -0.0345728)
(-5.27547e-05 2.04646e-05 -0.0371811)