/*--------------------------------*- C++ -*----------------------------------*\
| =========                 |                                                 |
| \\      /  F ield         | OpenFOAM: The Open Source CFD Toolbox           |
|  \\    /   O peration     | Version:  plus.master.MPPICInterFoam            |
|   \\  /    A nd           | Web:      www.OpenFOAM.com                      |
|    \\/     M anipulation  |                                                 |
\*---------------------------------------------------------------------------*/
FoamFile
{
    version     2.0;
    format      ascii;
    class       scalarField;
    location    "6.8/lagrangian/kinematicCloud";
    object      age;
}
// * * * * * * * * * * * * * * * * * * * * * * * * * * * * * * * * * * * * * //


45
(
6.16694
5.98
6.17065
6.24724
5.97274
6.66532
6.58152
6.0752
5.97053
6.77079
6.04071
6.50547
6.3794
6.07774
6.08096
6.14527
5.88741
6.0426
5.91719
6.75434
5.95826
6.80004
6.22637
6.3938
6.52543
6.39136
6.00002
6.07578
6.33385
6.24204
5.92217
6.00012
5.91929
5.91027
6.59218
6.04041
6.67258
6.44762
5.89241
6.59115
6.40832
6.00726
6.03103
5.86658
6.59244
)


// ************************************************************************* //
