/*--------------------------------*- C++ -*----------------------------------*\
| =========                 |                                                 |
| \\      /  F ield         | OpenFOAM: The Open Source CFD Toolbox           |
|  \\    /   O peration     | Version:  plus.master.MPPICInterFoam            |
|   \\  /    A nd           | Web:      www.OpenFOAM.com                      |
|    \\/     M anipulation  |                                                 |
\*---------------------------------------------------------------------------*/
FoamFile
{
    version     2.0;
    format      ascii;
    class       vectorField;
    location    "5/lagrangian/kinematicCloud";
    object      U;
}
// * * * * * * * * * * * * * * * * * * * * * * * * * * * * * * * * * * * * * //


11
(
(0.00451308 0.000876591 0.326444)
(0.00461014 -0.0104592 0.352206)
(0.00411272 -0.00999978 0.350512)
(0.00485047 -0.00545347 0.367368)
(0.00523986 0.008128 0.372538)
(-0.00493513 0.00438849 0.329721)
(-0.00144442 -0.0191334 0.352702)
(0.000254955 -0.0183571 0.342587)
(-0.00109115 -0.0197105 0.347184)
(-0.00399641 -0.0288869 0.381161)
(0.101647 0.0022203 0.370471)
)


// ************************************************************************* //
