/*--------------------------------*- C++ -*----------------------------------*\
| =========                 |                                                 |
| \\      /  F ield         | OpenFOAM: The Open Source CFD Toolbox           |
|  \\    /   O peration     | Version:  plus.master.MPPICInterFoam            |
|   \\  /    A nd           | Web:      www.OpenFOAM.com                      |
|    \\/     M anipulation  |                                                 |
\*---------------------------------------------------------------------------*/
FoamFile
{
    version     2.0;
    format      ascii;
    class       scalarField;
    location    "12.2/lagrangian/kinematicCloud";
    object      age;
}
// * * * * * * * * * * * * * * * * * * * * * * * * * * * * * * * * * * * * * //


141
(
12.1473
11.7264
12.1665
12.2
11.4407
11.3416
12.028
11.332
11.6736
11.9057
11.4719
11.481
12.1786
12.1947
11.6483
12.0211
11.6035
11.3032
11.6056
11.3287
11.8963
11.5811
11.4001
11.5315
11.3
11.4703
11.3913
11.4801
11.6752
12.184
11.3945
11.412
12.0303
11.5001
11.6001
11.4645
11.651
11.7571
11.2726
11.5747
11.6142
11.3235
11.3175
11.6878
11.9901
11.4901
11.4765
11.9096
12.1095
11.4036
11.2707
11.6397
11.9849
11.5259
11.3301
11.4354
12.1138
11.6608
11.7159
11.4211
11.4807
11.5002
12.1325
11.801
11.4956
12.1289
11.3848
11.5182
11.4027
11.5207
11.3538
12.1471
11.3818
11.3304
11.6098
11.4335
11.6149
11.7155
11.4814
11.4955
11.8073
11.5129
11.2881
11.5301
11.4303
11.2759
11.666
11.3913
11.8445
11.3102
12.1385
12.0241
11.6198
11.4305
11.6594
11.838
11.5609
11.3838
11.3379
11.4912
11.3305
11.7049
11.61
11.54
11.8571
11.8809
11.8797
11.3753
11.4815
12.0243
11.8708
11.5701
11.2945
11.8218
11.9336
11.9041
11.3701
11.3763
11.806
11.3896
11.4648
11.3903
11.677
11.424
11.41
11.4248
12.1435
11.5558
11.4416
12.0932
11.7081
11.7162
11.2934
11.3806
11.6102
12.04
11.2747
11.3252
11.4411
11.3076
11.5328
)


// ************************************************************************* //
