/*--------------------------------*- C++ -*----------------------------------*\
| =========                 |                                                 |
| \\      /  F ield         | OpenFOAM: The Open Source CFD Toolbox           |
|  \\    /   O peration     | Version:  plus.master.MPPICInterFoam            |
|   \\  /    A nd           | Web:      www.OpenFOAM.com                      |
|    \\/     M anipulation  |                                                 |
\*---------------------------------------------------------------------------*/
FoamFile
{
    version     2.0;
    format      ascii;
    class       surfaceScalarField;
    location    "6.8";
    object      alphaPhi;
}
// * * * * * * * * * * * * * * * * * * * * * * * * * * * * * * * * * * * * * //

dimensions      [0 3 -1 0 0 0 0];

internalField   nonuniform List<scalar> 
34018
(
1.26385e-07
7.72456e-06
5.86881e-07
5.49814e-07
3.30139e-07
7.99915e-06
1.77994e-07
6.90706e-06
4.42231e-07
3.64751e-07
7.67383e-06
4.478e-07
3.7157e-07
6.89708e-06
2.8715e-07
5.92143e-06
3.22149e-07
1.67342e-07
-1.52345e-07
-2.68535e-07
7.53724e-06
1.97341e-07
2.22422e-07
-7.87806e-08
-3.57678e-07
8.51207e-06
3.09619e-07
3.58229e-08
-5.39424e-07
8.70839e-06
3.99219e-07
1.40388e-07
-5.24698e-07
8.83216e-06
3.86003e-07
1.46911e-07
-3.51838e-07
8.55788e-06
2.89648e-07
1.30761e-07
-2.49195e-07
8.05712e-06
2.23308e-07
-2.10301e-07
6.89261e-06
1.28855e-07
1.84292e-07
-1.63656e-07
-2.78041e-07
8.42412e-06
2.16393e-07
-1.1691e-07
-3.62402e-07
8.20141e-06
6.90029e-08
-4.46588e-07
8.68931e-06
2.30617e-07
-2.8534e-07
8.14279e-06
2.41872e-07
-3.57015e-07
8.58677e-06
1.77291e-07
-2.57959e-07
8.46803e-06
-2.21483e-07
7.71754e-06
1.48929e-07
-3.01377e-07
-1.85987e-07
8.70934e-06
2.87839e-07
-1.76466e-07
-2.08605e-07
8.0146e-06
6.30591e-08
-1.12609e-07
7.03047e-06
2.11682e-07
-1.43008e-07
5.46205e-06
4.1686e-07
-2.05607e-07
7.93053e-06
2.62008e-07
-1.95289e-07
8.48646e-06
-1.85248e-07
8.18769e-06
1.90193e-07
-3.31479e-07
-6.88365e-08
8.58833e-06
3.07065e-07
-1.07104e-07
-2.80178e-08
7.86126e-06
2.5656e-08
-4.07374e-08
5.22662e-06
1.92365e-07
-3.24275e-08
5.55289e-06
4.48151e-07
-8.77754e-08
7.57797e-06
2.95725e-07
-1.4483e-07
8.19986e-06
-1.2036e-07
8.15517e-06
2.0972e-07
-2.32922e-07
2.33964e-09
8.40576e-06
2.51981e-07
-1.72417e-07
4.07358e-08
7.84865e-06
4.71328e-08
1.72469e-07
8.00851e-06
2.39651e-07
1.6217e-07
7.19108e-06
3.33463e-07
8.18155e-10
7.80059e-06
2.52491e-07
-7.73173e-08
8.4295e-06
-6.50971e-08
7.73146e-06
1.90299e-07
-1.75805e-07
2.89818e-08
7.57032e-06
1.98691e-07
-1.10934e-07
7.72557e-08
8.47413e-06
3.50364e-08
1.62372e-07
8.66308e-06
1.94541e-07
1.56047e-07
8.8478e-06
2.15856e-07
4.10466e-08
8.55168e-06
1.81871e-07
-2.77886e-08
8.02724e-06
-3.40305e-08
6.90405e-06
1.53769e-07
-1.60173e-07
6.44586e-06
1.78165e-07
4.12854e-08
-1.0269e-07
7.31867e-06
7.58249e-08
1.04829e-08
7.8931e-06
1.26061e-07
1.21119e-07
8.00814e-06
1.18542e-07
1.55362e-07
7.63074e-06
5.30631e-08
1.43309e-07
6.87547e-06
5.91693e-09
5.9107e-06
1.32798e-07
-1.27654e-08
6.93399e-08
-1.28689e-08
7.47414e-06
4.53945e-09
2.27448e-09
8.50887e-08
3.97934e-08
8.44859e-06
-3.49299e-08
5.55229e-08
2.32417e-08
8.32976e-06
-6.05402e-08
-4.16488e-09
3.56138e-08
8.41757e-06
-9.8265e-08
-9.99954e-08
9.67061e-08
8.24181e-06
-1.09197e-07
-1.06118e-07
5.68699e-08
8.00441e-06
-4.55696e-08
-2.63493e-08
6.84228e-06
-4.29125e-08
1.35505e-08
1.84692e-07
-8.28427e-08
8.36925e-06
-8.26125e-08
1.70834e-07
-7.85245e-08
7.7089e-06
8.13751e-08
-2.86571e-07
8.00096e-06
2.47212e-08
-3.54152e-07
7.49505e-06
-1.3608e-07
-1.3614e-07
7.19424e-06
-1.90853e-07
-5.72619e-08
8.06925e-06
-8.30076e-08
7.68514e-06
-1.01727e-07
1.85491e-07
-1.54002e-07
8.6267e-06
-1.20266e-07
7.49988e-08
-1.8889e-07
7.35302e-06
3.04806e-08
-2.1095e-07
7.5335e-06
1.9231e-07
-2.10104e-07
7.78433e-06
-5.17456e-08
-1.91247e-07
6.86431e-06
-1.87932e-07
-1.59838e-07
7.5597e-06
-1.47533e-07
8.13304e-06
-1.28757e-07
1.40123e-07
-1.84382e-07
8.47299e-06
-1.05619e-07
5.46843e-08
-2.07465e-07
7.65957e-06
9.48857e-09
-1.4036e-07
5.18113e-06
2.64616e-07
-3.77653e-08
7.83801e-06
-4.35532e-09
-1.67165e-07
6.60947e-06
-1.51923e-07
-2.35526e-07
6.88553e-06
-1.87366e-07
8.08056e-06
-1.18061e-07
1.68533e-07
-2.1172e-07
8.31768e-06
-9.5315e-08
1.14818e-07
-2.83913e-07
7.40391e-06
8.04724e-08
-2.23405e-07
7.78157e-06
7.58632e-08
-2.23297e-07
6.93475e-06
-7.0377e-08
-3.11572e-07
7.33726e-06
-1.54266e-07
-3.14623e-07
8.09774e-06
-2.01761e-07
7.68488e-06
-9.34519e-08
9.49316e-08
-1.82219e-07
7.47836e-06
-3.46963e-08
8.8018e-08
-2.65544e-07
8.3757e-06
6.49005e-08
-2.93269e-07
8.42316e-06
2.86248e-08
-3.18618e-07
8.69163e-06
-6.5227e-08
-3.42727e-07
8.34907e-06
-9.22736e-08
-2.76312e-07
7.9528e-06
-1.79295e-07
6.83911e-06
-4.99233e-08
-2.22377e-09
6.36159e-06
2.56674e-08
-1.2138e-07
6.10938e-09
7.21477e-06
-1.69887e-07
1.61854e-08
7.78483e-06
-1.95004e-07
1.40033e-08
7.90771e-06
-2.16015e-07
-1.51788e-08
7.53937e-06
-2.22289e-07
-2.66273e-08
6.79435e-06
-1.83829e-07
5.84161e-06
-2.5636e-09
-1.34235e-07
1.09639e-08
-1.70405e-09
7.39967e-06
5.12466e-08
1.20496e-08
4.09106e-08
3.4828e-08
8.22058e-06
-1.02736e-08
3.73302e-08
3.0566e-08
7.84113e-06
-4.05823e-08
-4.3332e-08
7.86424e-08
7.55483e-06
-1.11631e-07
-8.17781e-08
5.38509e-08
7.75414e-06
-6.08856e-08
-6.28126e-08
3.22396e-08
7.85505e-06
-1.07972e-08
-2.81732e-08
6.7782e-06
2.39938e-09
2.73664e-08
9.29924e-08
-2.7489e-08
8.19152e-06
-6.15977e-09
8.48881e-08
-1.04584e-09
7.402e-06
1.52944e-08
-1.23894e-07
5.28146e-06
-6.83911e-10
-9.35911e-08
5.40967e-06
-7.75404e-08
-5.96988e-08
5.00219e-06
-1.02754e-07
-1.38711e-08
7.49971e-06
-4.61019e-08
7.62063e-06
-3.13001e-08
1.46411e-07
-9.59144e-08
8.30797e-06
-6.89024e-08
7.60385e-08
-9.52479e-08
6.17424e-06
6.67119e-09
-1.54673e-07
5.31009e-06
5.50949e-09
-1.35233e-07
7.96606e-06
-6.87513e-08
-7.28543e-08
5.50357e-06
-1.41129e-07
-9.60018e-08
6.64746e-06
-9.73457e-08
7.94897e-06
-7.04121e-08
1.36219e-07
-1.48524e-07
8.16351e-06
-7.82534e-08
9.59981e-08
-1.48846e-07
6.28315e-06
6.20267e-09
-9.79647e-08
5.19661e-06
4.44186e-08
-4.42709e-08
7.85204e-06
-4.70669e-08
-5.59388e-08
5.44105e-06
-1.30718e-07
-1.44092e-07
6.25407e-06
-1.41787e-07
7.87363e-06
-7.53479e-08
1.34169e-07
-1.74685e-07
8.09463e-06
-5.8472e-08
1.05992e-07
-2.25237e-07
7.17369e-06
3.58672e-08
-1.7959e-07
6.07314e-06
9.30161e-09
-2.03054e-07
5.43572e-06
-7.87679e-08
-2.05912e-07
5.31054e-06
-1.20309e-07
-2.30029e-07
7.47204e-06
-1.50848e-07
7.60158e-06
-5.62325e-08
7.1545e-08
-1.47874e-07
7.37692e-06
-1.08592e-08
8.11435e-08
-2.21845e-07
8.06934e-06
5.85813e-08
-2.71543e-07
7.85155e-06
-2.98278e-08
-2.98615e-07
7.87412e-06
-8.74537e-08
-2.85438e-07
7.78657e-06
-8.45486e-08
-2.15153e-07
7.75162e-06
-1.3385e-07
6.76486e-06
-2.74282e-08
-1.04576e-08
6.28253e-06
3.16174e-08
-8.98272e-08
3.44365e-09
7.11317e-06
-1.33892e-07
5.07648e-09
7.67775e-06
-1.65959e-07
-2.08621e-08
7.78334e-06
-1.98943e-07
-3.38026e-08
7.44421e-06
-1.77548e-07
-2.4795e-08
6.708e-06
-1.37955e-07
5.77098e-06
1.02218e-08
-9.8314e-08
-1.39775e-07
-9.14846e-08
7.35434e-06
1.67499e-07
1.02118e-07
-7.11743e-08
-1.3605e-07
8.01756e-06
1.40722e-07
2.26012e-08
-1.43733e-07
7.67755e-06
1.77471e-07
-1.59676e-08
1.08714e-08
7.24494e-06
8.26119e-08
2.08482e-08
-7.72516e-08
7.5545e-06
1.27877e-07
5.75676e-08
-8.86239e-08
7.7143e-06
1.08066e-07
-9.48578e-08
6.73095e-06
1.01199e-07
9.86267e-08
-1.67354e-07
-5.83115e-08
8.02249e-06
1.88093e-07
-4.53414e-08
-5.81923e-08
7.39844e-06
2.43088e-08
-5.70543e-08
5.27027e-06
3.38746e-08
2.5924e-08
5.44192e-06
5.76621e-08
-6.95666e-09
5.06465e-06
1.0365e-07
-3.50833e-08
7.3308e-06
-6.17207e-08
7.54235e-06
1.20295e-07
-8.3513e-08
-5.45829e-08
8.09459e-06
1.65952e-07
6.24424e-08
-3.41989e-08
6.32582e-06
6.50984e-08
-5.17233e-09
5.23802e-06
-8.58634e-09
-1.26435e-09
8.20555e-06
-2.8734e-08
-3.25506e-08
5.48926e-06
5.70887e-08
-5.27977e-08
6.6678e-06
-6.17077e-08
7.78237e-06
1.05904e-07
-7.25538e-08
-4.91109e-08
7.97532e-06
1.49856e-07
8.72954e-08
-3.17071e-08
6.30493e-06
1.00502e-07
-1.78163e-08
5.17848e-06
-1.46877e-08
-6.86899e-08
8.17243e-06
-3.44317e-08
-5.28494e-08
5.48359e-06
4.52869e-08
-6.26499e-08
6.33368e-06
-6.42084e-08
7.71694e-06
9.61572e-08
-9.7917e-08
-3.47001e-08
7.88241e-06
1.32304e-07
1.02646e-08
-2.33377e-08
7.34317e-06
3.31103e-08
-8.44484e-09
5.63741e-06
2.3614e-08
-9.17043e-08
5.46065e-06
2.93013e-08
-3.78813e-08
5.12342e-06
6.60043e-08
-6.13527e-08
7.23378e-06
-4.01764e-08
7.49601e-06
9.051e-08
-7.46827e-08
-2.12333e-08
7.30597e-06
1.09157e-07
-2.15293e-08
-2.15005e-08
7.79287e-06
3.93272e-08
-1.56127e-08
7.64141e-06
-9.51579e-09
-7.73231e-08
7.4063e-06
3.36014e-09
-4.78351e-08
7.44872e-06
2.84881e-08
-5.27558e-08
7.53607e-06
-2.73576e-08
6.71032e-06
7.00679e-08
-8.9381e-08
6.23884e-06
1.00603e-07
1.12733e-08
-5.49059e-08
7.05187e-06
5.53543e-09
-9.8717e-09
7.56858e-06
3.89985e-09
-8.56342e-09
7.61341e-06
-2.8117e-08
1.93048e-08
7.36284e-06
-1.59557e-08
4.37978e-08
6.64715e-06
-1.66004e-08
5.72208e-06
7.5735e-08
-1.05926e-08
-1.35169e-07
-7.50021e-08
7.29921e-06
1.59486e-07
9.0999e-08
-8.09378e-08
-1.11297e-07
7.77751e-06
1.06503e-07
-9.26126e-09
-1.42959e-07
7.49914e-06
1.47196e-07
-2.61483e-08
-1.6505e-08
7.07701e-06
9.79663e-08
1.23312e-09
-7.52883e-08
7.36396e-06
1.16031e-07
4.59185e-08
-7.65829e-08
7.55291e-06
1.00056e-07
-9.97115e-08
6.6657e-06
1.06485e-07
1.04256e-07
-1.96572e-07
-5.10351e-08
7.78507e-06
1.92454e-07
-8.90101e-08
-8.64001e-08
7.46193e-06
3.80623e-08
-3.00302e-08
6.44384e-06
6.12687e-09
1.95264e-08
5.44668e-06
5.26179e-08
-1.15798e-08
5.75267e-06
9.31865e-08
-4.44944e-08
7.16287e-06
-6.57373e-08
7.42065e-06
1.291e-07
-2.06033e-07
-3.94103e-08
7.83842e-06
2.03511e-07
2.75851e-08
-3.02471e-08
7.88117e-06
9.65878e-08
5.62048e-09
5.11693e-06
-4.74128e-09
2.67185e-08
6.80346e-06
2.33596e-08
-2.0653e-08
5.51079e-06
9.2953e-08
-3.94973e-08
6.69271e-06
-4.59453e-08
7.61131e-06
1.3839e-07
-2.00929e-07
-2.01991e-08
7.76517e-06
1.93153e-07
-2.31919e-09
1.73911e-08
7.48409e-06
3.54626e-08
3.24934e-09
5.12598e-06
-1.48147e-09
-3.13109e-08
5.3441e-06
3.29068e-08
-2.16707e-08
5.47273e-06
9.17304e-08
-1.87078e-08
6.5731e-06
-2.44293e-08
7.56998e-06
1.33546e-07
-1.55374e-07
-1.54436e-08
7.57173e-06
1.50879e-07
-6.86952e-08
2.1735e-08
7.46481e-06
3.88684e-08
5.91299e-08
6.26904e-06
5.04752e-09
-2.24556e-08
5.37612e-06
3.48476e-08
-8.59028e-09
5.64587e-06
7.07053e-08
-2.38084e-08
7.00981e-06
-2.47146e-09
7.35002e-06
1.10746e-07
-8.87389e-08
-5.46509e-09
7.22814e-06
1.17021e-07
-5.11544e-08
-1.05701e-08
7.43878e-06
-1.76388e-09
2.08043e-08
7.42029e-06
-1.25408e-08
-1.05252e-08
7.10386e-06
-1.31724e-08
-1.25903e-08
7.11422e-06
2.14262e-08
-2.63317e-08
7.27216e-06
4.73252e-09
6.64174e-06
8.25779e-08
-1.01982e-07
6.19052e-06
1.08189e-07
3.66763e-08
-7.82349e-08
6.99442e-06
2.31655e-08
-3.47014e-08
7.4283e-06
3.2375e-08
-1.20006e-08
7.43152e-06
2.04655e-08
2.11792e-08
7.24679e-06
1.90949e-08
5.13435e-08
6.57555e-06
1.49975e-08
5.66199e-06
9.33367e-08
2.27429e-08
-6.67076e-08
-1.27335e-08
7.18625e-06
1.12101e-07
5.42726e-08
-6.36909e-08
4.03074e-08
7.34073e-06
-1.24307e-09
-6.3397e-08
-1.07965e-08
6.78347e-06
1.10869e-08
-6.13081e-08
-2.35026e-09
6.59048e-06
2.27929e-08
-5.90289e-08
3.86292e-11
6.82667e-06
4.12298e-08
8.24564e-10
-1.24693e-08
7.30247e-06
6.39559e-08
-8.33989e-08
6.55477e-06
9.71837e-08
9.8175e-08
-6.95826e-08
-1.19978e-08
7.36367e-06
1.12472e-07
-1.34411e-07
-3.03369e-08
6.66272e-06
-6.68965e-08
-4.22247e-08
6.87032e-06
-2.47094e-08
-1.82394e-09
5.36091e-06
-2.54409e-08
-1.897e-09
5.73689e-06
-4.89803e-09
-1.25522e-08
6.547e-06
-5.9623e-08
7.246e-06
9.91912e-08
-1.36493e-07
-3.11661e-08
7.01139e-06
1.10366e-07
-1.57817e-07
-3.92541e-08
8.01001e-06
-1.90101e-08
-1.27197e-08
5.9922e-06
7.8417e-09
-1.93834e-08
5.3746e-06
1.81719e-08
-1.18397e-08
5.37832e-06
1.64313e-08
-1.94173e-08
6.25849e-06
-3.58233e-08
7.36704e-06
1.12668e-07
-1.37038e-07
-4.41307e-08
6.97188e-06
1.01586e-07
-1.4422e-07
-4.10807e-09
7.77431e-06
-6.34808e-08
1.28232e-08
5.17099e-06
2.04237e-08
-1.15436e-09
5.32173e-06
2.3838e-08
-1.23492e-08
5.29194e-06
1.43036e-08
-2.58258e-08
6.28736e-06
-1.66731e-08
7.32165e-06
1.08549e-07
-4.40105e-08
-6.12235e-08
7.02397e-06
8.18642e-08
-1.34605e-07
-9.19426e-08
6.5061e-06
-8.32619e-08
-1.98043e-08
6.81483e-06
-2.27742e-08
-5.09435e-09
5.62087e-06
-2.67935e-08
-3.17833e-08
5.65212e-06
-1.87427e-08
-6.24746e-08
6.26527e-06
-4.25767e-09
7.1466e-06
8.77388e-08
-2.79221e-08
-3.12741e-08
7.07954e-06
8.5538e-08
-3.91225e-08
-1.04501e-07
6.74924e-06
-6.41364e-08
-8.64543e-08
6.41515e-06
-5.67599e-08
-6.55011e-08
6.34826e-06
-6.88789e-08
-6.42119e-08
6.27135e-06
-1.9193e-08
-4.96658e-08
6.88153e-06
1.21703e-08
6.52249e-06
8.36465e-08
-8.36922e-08
6.09812e-06
9.98748e-08
4.50852e-08
-7.8133e-08
6.88324e-06
1.12637e-09
-6.30609e-08
7.2229e-06
-4.74323e-09
-3.50701e-08
7.23263e-06
5.42056e-09
1.05002e-09
7.06213e-06
1.46608e-08
4.75062e-08
6.45332e-06
2.62044e-08
5.56785e-06
1.08601e-07
4.52401e-08
-1.3254e-07
-8.10969e-08
7.02663e-06
2.00133e-07
1.56556e-07
-1.0462e-07
2.39119e-08
6.93478e-06
1.13297e-07
-9.03146e-08
1.07658e-08
5.99498e-06
1.06e-07
-5.80912e-08
-1.25484e-08
5.85196e-06
1.34485e-07
-9.03533e-09
-4.80325e-08
6.24927e-06
1.71947e-07
1.05165e-07
-8.84542e-08
7.0713e-06
1.85726e-07
-1.56531e-07
6.41728e-06
2.09022e-07
1.90235e-07
-7.86679e-08
-4.36274e-08
7.05507e-06
2.17924e-07
-1.27074e-07
2.86589e-08
4.83756e-06
-1.60852e-07
-2.31779e-09
5.49767e-06
-5.77675e-08
-1.76269e-08
4.8535e-06
-1.96139e-08
-3.38089e-08
4.82724e-06
9.10776e-08
-3.36113e-08
5.89139e-06
-9.88325e-08
7.05648e-06
2.31028e-07
-1.24877e-07
-3.3273e-08
6.41579e-06
2.10845e-07
-2.66258e-07
-3.87625e-08
6.08269e-06
-1.53454e-07
-3.61461e-08
5.81737e-06
-5.07737e-08
-4.35457e-09
5.21516e-06
-4.04796e-09
-7.39091e-09
4.89395e-06
9.43815e-08
-1.65074e-08
5.11535e-06
-4.05653e-08
7.13524e-06
2.53429e-07
-1.28804e-07
-2.15189e-08
6.27665e-06
2.02464e-07
-2.49443e-07
-7.5205e-08
6.47106e-06
-1.64389e-07
-1.62489e-08
5.21085e-06
-4.95208e-08
1.1555e-08
5.21122e-06
-3.2086e-09
5.96462e-09
4.89756e-06
8.92286e-08
-1.15704e-08
5.02677e-06
9.36497e-09
7.02282e-06
2.51443e-07
-6.18911e-08
1.56833e-09
6.70636e-06
2.0827e-07
-1.23663e-07
-7.01638e-08
4.28173e-06
-1.53261e-07
-3.57137e-08
5.42229e-06
-7.40412e-08
-8.65628e-09
5.26517e-06
-2.5044e-08
-7.78451e-09
4.68492e-06
7.99758e-08
-3.87963e-09
5.40217e-06
6.00542e-08
6.94206e-06
2.32005e-07
-1.16305e-07
8.10293e-08
6.89991e-06
2.02667e-07
-8.58265e-08
2.06359e-08
6.29987e-06
-8.53738e-08
2.0409e-08
5.24018e-06
-5.01474e-08
4.15307e-08
5.27004e-06
-8.53617e-09
6.79891e-08
5.50406e-06
1.10665e-07
8.41309e-08
6.62336e-06
1.09121e-07
6.36755e-06
2.16719e-07
-1.58187e-07
5.98373e-06
1.86832e-07
1.66781e-07
-1.27151e-07
6.72293e-06
1.49971e-07
-7.8203e-08
7.01877e-06
1.59396e-07
-1.34146e-08
7.03652e-06
1.72078e-07
7.06437e-08
6.86065e-06
1.75334e-07
1.47495e-07
6.2987e-06
1.6205e-07
5.4665e-06
2.10832e-07
1.47179e-07
-3.59968e-07
-3.09795e-07
6.89566e-06
4.26629e-07
3.96952e-07
-2.12614e-07
-2.12028e-07
6.76325e-06
4.65523e-07
-1.02315e-07
-2.03941e-07
5.86291e-06
4.9744e-07
5.52631e-09
-2.26642e-07
5.70674e-06
5.06131e-07
1.83187e-07
-2.6387e-07
6.07849e-06
5.38279e-07
3.66075e-07
-3.37554e-07
6.88105e-06
4.63306e-07
-3.31468e-07
6.313e-06
4.29092e-07
3.72699e-07
-3.15e-07
-1.5432e-07
6.88996e-06
5.41116e-07
-1.96112e-07
-5.32169e-08
4.57132e-06
-1.36748e-07
-8.74926e-08
4.33035e-06
-2.33156e-08
-8.95113e-08
4.38674e-06
1.32356e-07
-1.14191e-07
4.2688e-06
4.30759e-07
-1.53556e-07
5.74141e-06
-2.03376e-07
6.89739e-06
5.27297e-07
-3.23981e-07
-4.20796e-08
6.29861e-06
6.00842e-07
-3.23239e-07
-3.42591e-08
4.3936e-06
-1.9849e-07
-3.84623e-08
4.91027e-06
-6.61269e-08
-1.92299e-08
5.00698e-06
9.19728e-08
-1.8924e-08
4.70328e-06
4.08339e-07
-2.70094e-08
4.93798e-06
-5.33313e-08
6.92974e-06
5.92148e-07
-3.43014e-07
5.72201e-08
6.16698e-06
5.89289e-07
-3.26304e-07
-9.17095e-09
4.33023e-06
-2.14109e-07
1.15712e-08
4.89133e-06
-5.83027e-08
6.07828e-08
5.02018e-06
8.07909e-08
6.27797e-08
4.73819e-06
3.88189e-07
6.26707e-08
4.72804e-06
8.35112e-08
6.80887e-06
5.91855e-07
-2.93786e-07
2.14346e-07
6.54591e-06
5.57836e-07
-1.87014e-07
1.2242e-07
4.08962e-06
-1.19312e-07
1.30542e-07
4.3082e-06
-2.62445e-08
1.64664e-07
4.46693e-06
1.23392e-07
1.72355e-07
4.02299e-06
4.16293e-07
2.12293e-07
5.26278e-06
2.18625e-07
6.76315e-06
5.41007e-07
-3.71688e-07
3.33135e-07
6.74353e-06
4.56501e-07
-1.94765e-07
3.90918e-07
6.15233e-06
-8.6262e-08
3.81495e-07
5.14496e-06
1.28129e-08
3.88199e-07
5.09621e-06
1.8609e-07
4.1095e-07
5.38158e-06
3.95745e-07
3.69865e-07
6.45051e-06
2.90903e-07
6.23734e-06
4.53753e-07
-3.14716e-07
5.90342e-06
3.48418e-07
3.79598e-07
-2.20115e-07
6.5816e-06
4.42333e-07
-8.29182e-08
6.84915e-06
4.9783e-07
6.82867e-08
6.86766e-06
5.09737e-07
2.2644e-07
6.68732e-06
4.77174e-07
3.29466e-07
6.17074e-06
3.94887e-07
5.40567e-06
3.72749e-07
3.08498e-07
-5.26482e-07
-4.97349e-07
6.82545e-06
5.77717e-07
5.6735e-07
-2.90002e-07
-4.64056e-07
6.90725e-06
7.32713e-07
-9.32026e-08
-3.35198e-07
6.10993e-06
8.23576e-07
9.23613e-08
-3.48765e-07
6.03128e-06
8.17074e-07
3.53044e-07
-4.44492e-07
6.37718e-06
8.02827e-07
5.46845e-07
-5.30415e-07
6.91378e-06
6.41548e-07
-4.49271e-07
6.26067e-06
5.64025e-07
4.84384e-07
-5.27315e-07
-2.67961e-07
7.01889e-06
7.73431e-07
-2.08645e-07
-1.72195e-07
4.71814e-06
-9.99797e-08
-1.66199e-07
4.13589e-06
2.18696e-08
-2.01946e-07
4.20376e-06
3.20169e-07
-2.45887e-07
4.32973e-06
7.08591e-07
-2.72915e-07
6.22028e-06
-2.84858e-07
6.84947e-06
7.16755e-07
-4.13044e-07
-4.93073e-08
6.50042e-06
8.98808e-07
-2.23797e-07
-3.33479e-08
4.10263e-06
-1.22587e-07
-3.19674e-08
4.72724e-06
-1.19332e-08
-3.52856e-08
4.80104e-06
3.40635e-07
-4.10461e-08
4.93921e-06
7.07469e-07
-4.66216e-08
5.58357e-06
-6.5992e-08
6.94222e-06
8.1699e-07
-4.40054e-07
1.52929e-07
6.35416e-06
9.02119e-07
-2.357e-07
1.00061e-07
4.0778e-06
-1.29284e-07
9.36622e-08
4.71455e-06
-1.66821e-08
1.32642e-07
4.79379e-06
3.21323e-07
1.56723e-07
5.17629e-06
6.66849e-07
1.35735e-07
5.24002e-06
1.36938e-07
6.76792e-06
8.17313e-07
-4.86039e-07
3.8692e-07
6.78503e-06
7.94488e-07
-2.11285e-07
3.3125e-07
4.27465e-06
-1.01288e-07
2.61027e-07
4.12309e-06
2.90784e-08
2.78524e-07
4.23243e-06
3.02002e-07
3.30287e-07
3.98206e-06
6.91258e-07
3.80099e-07
5.69487e-06
3.22113e-07
6.73454e-06
7.34665e-07
-5.53614e-07
4.99105e-07
6.68717e-06
6.11882e-07
-2.82898e-07
6.57335e-07
6.52819e-06
-8.21555e-08
6.69581e-07
5.42936e-06
8.82982e-08
6.5426e-07
5.20201e-06
3.60516e-07
6.61269e-07
5.75666e-06
5.84945e-07
5.46916e-07
6.61062e-06
3.96836e-07
6.15588e-06
5.91822e-07
-4.05414e-07
5.8656e-06
4.37216e-07
5.04937e-07
-2.70123e-07
6.48018e-06
6.23218e-07
-7.03589e-08
6.8091e-06
7.1147e-07
1.41325e-07
6.82901e-06
7.18549e-07
3.365e-07
6.61095e-06
6.53017e-07
4.40162e-07
6.09051e-06
5.23543e-07
5.3881e-06
4.60165e-07
3.94377e-07
-5.45741e-07
-5.3983e-07
6.78697e-06
5.72741e-07
5.80314e-07
-3.01728e-07
-5.98962e-07
7.26281e-06
7.72452e-07
-5.96041e-08
-3.4847e-07
6.73988e-06
9.24223e-07
1.71571e-07
-3.48121e-07
6.78407e-06
9.19966e-07
4.13007e-07
-4.73174e-07
6.99656e-06
8.03369e-07
5.46344e-07
-5.64304e-07
6.9678e-06
6.24288e-07
-4.43108e-07
6.24259e-06
5.44019e-07
4.63491e-07
-6.54298e-07
-3.10329e-07
7.28829e-06
7.86773e-07
-1.92235e-07
-2.48126e-07
5.66287e-06
-5.3479e-08
-1.55586e-07
3.87105e-06
8.71809e-08
-1.61282e-07
3.93546e-06
4.51816e-07
-2.62359e-07
4.98591e-06
7.55768e-07
-3.33171e-07
6.89637e-06
-2.9973e-07
6.79691e-06
6.9531e-07
-5.83101e-07
-5.9253e-08
7.02057e-06
9.28296e-07
-1.43005e-07
-3.55289e-08
4.3911e-06
-5.74691e-08
-4.21975e-08
4.57862e-06
5.769e-08
-4.8024e-08
4.63581e-06
5.68434e-07
-6.31414e-08
5.21908e-06
8.15937e-07
-7.35437e-08
6.47553e-06
-7.8558e-08
7.00325e-06
8.02623e-07
-5.6075e-07
1.85753e-07
6.97215e-06
9.26597e-07
-1.52218e-07
1.435e-07
4.21084e-06
-5.89347e-08
1.09119e-07
4.53721e-06
6.06271e-08
1.0683e-07
4.57263e-06
5.75209e-07
1.72291e-07
5.98292e-06
7.58336e-07
1.62382e-07
6.34091e-06
1.36187e-07
6.89346e-06
8.04096e-07
-6.03917e-07
4.1581e-07
7.11475e-06
7.99538e-07
-1.88424e-07
4.39284e-07
5.15004e-06
-6.14665e-08
2.73324e-07
3.91764e-06
8.10846e-08
2.4322e-07
4.01694e-06
4.15889e-07
3.33964e-07
4.37192e-06
7.65961e-07
4.01591e-07
6.44633e-06
3.11013e-07
6.71596e-06
7.14738e-07
-5.72378e-07
4.96953e-07
6.62607e-06
5.93274e-07
-3.11153e-07
6.74923e-07
7.00678e-06
-5.26471e-08
7.59843e-07
6.12151e-06
1.50976e-07
7.16695e-07
5.82477e-06
4.26723e-07
6.72487e-07
6.43248e-06
5.7795e-07
5.16799e-07
6.73132e-06
3.7204e-07
6.10898e-06
5.63943e-07
-3.83253e-07
5.8517e-06
4.07072e-07
4.8693e-07
-2.49334e-07
6.41192e-06
6.09338e-07
-3.65672e-08
6.74376e-06
7.01883e-07
1.77198e-07
6.77653e-06
6.96093e-07
3.45626e-07
6.54383e-06
6.13767e-07
4.25272e-07
6.04243e-06
4.85252e-07
5.38917e-06
4.32046e-07
3.64156e-07
-4.98007e-07
-4.99703e-07
6.78893e-06
4.88191e-07
5.0561e-07
-3.18699e-07
-6.79732e-07
7.47804e-06
6.90588e-07
-3.58211e-08
-5.9429e-07
7.24886e-06
8.5909e-07
2.22466e-07
-3.61225e-07
7.24284e-06
8.57496e-07
4.07267e-07
-5.49657e-07
7.38304e-06
7.09877e-07
4.67098e-07
-5.33455e-07
6.95506e-06
5.3407e-07
-3.80571e-07
6.26016e-06
4.50866e-07
3.79259e-07
-7.40578e-07
-3.21289e-07
7.38966e-06
6.87336e-07
-3.45669e-07
-3.32028e-07
6.8961e-06
-1.10824e-08
-2.79567e-07
4.28975e-06
1.80076e-07
-2.76291e-07
3.71252e-06
5.3446e-07
-2.8789e-07
5.62941e-06
6.62921e-07
-3.31703e-07
7.26635e-06
-2.76089e-07
6.77797e-06
5.77405e-07
-7.33725e-07
-7.78718e-08
7.28081e-06
8.29057e-07
-2.70685e-07
-5.24753e-08
5.30988e-06
1.97816e-08
-4.61934e-08
4.11733e-06
2.7816e-07
-3.75139e-08
4.1971e-06
6.53566e-07
-6.81525e-08
4.79598e-06
7.90011e-07
-9.70442e-08
6.80606e-06
-8.98645e-08
7.01793e-06
6.73551e-07
-7.22834e-07
1.73369e-07
7.23381e-06
8.32043e-07
-2.57838e-07
1.7399e-07
4.98782e-06
3.22191e-08
1.70456e-07
4.09329e-06
2.71408e-07
1.43464e-07
4.2151e-06
7.18262e-07
1.33733e-07
5.31107e-06
7.7977e-07
1.42506e-07
6.88378e-06
1.06505e-07
6.98887e-06
6.78647e-07
-7.33752e-07
3.65417e-07
7.18731e-06
6.96522e-07
-2.41626e-07
5.01244e-07
6.4956e-06
-1.27172e-08
3.07198e-07
3.61076e-06
1.9712e-07
2.75242e-07
3.7349e-06
5.21752e-07
3.4262e-07
4.91702e-06
7.05489e-07
3.54468e-07
6.89026e-06
2.49395e-07
6.68395e-06
5.94671e-07
-5.10615e-07
4.09521e-07
6.60314e-06
4.88419e-07
-3.35076e-07
5.74976e-07
7.19174e-06
-3.37825e-08
7.42647e-07
6.81953e-06
2.19557e-07
7.19193e-07
6.64109e-06
4.22095e-07
5.85576e-07
6.87736e-06
4.86287e-07
4.13084e-07
6.73213e-06
2.88874e-07
6.10067e-06
4.55145e-07
-3.09731e-07
5.86977e-06
3.12827e-07
3.88341e-07
-2.1181e-07
6.39554e-06
4.93636e-07
-1.68483e-08
6.69196e-06
5.87617e-07
1.79957e-07
6.72388e-06
5.82436e-07
3.04473e-07
6.51044e-06
4.9252e-07
3.50616e-07
6.03389e-06
3.75497e-07
5.40886e-06
3.44153e-07
2.75612e-07
-3.17596e-07
-3.12516e-07
6.79428e-06
2.79591e-07
3.01472e-07
-2.46936e-07
-5.07574e-07
7.52341e-06
4.26476e-07
-5.19415e-08
-4.5577e-07
7.70899e-06
5.4475e-07
1.32089e-07
-3.98126e-07
7.66406e-06
5.56427e-07
2.56457e-07
-5.10865e-07
7.44887e-06
4.64146e-07
2.7802e-07
-3.69763e-07
6.96296e-06
3.3087e-07
-2.31291e-07
6.29273e-06
2.67123e-07
2.09973e-07
-5.29029e-07
-2.19387e-07
7.40646e-06
4.05389e-07
-4.08827e-07
-3.09487e-07
7.89989e-06
-5.41078e-08
-4.19039e-07
6.16198e-06
2.06186e-07
-4.24795e-07
5.0046e-06
4.10978e-07
-2.45842e-07
6.6824e-06
3.98628e-07
-2.41117e-07
7.41995e-06
-1.80101e-07
6.79505e-06
3.30459e-07
-4.84295e-07
-7.306e-08
7.34264e-06
4.82692e-07
-4.93931e-07
-5.82962e-08
6.2313e-06
6.45318e-09
-4.84814e-08
7.49385e-06
4.59691e-07
-6.3301e-08
8.01969e-06
3.27208e-07
-5.91781e-08
4.4414e-06
4.72564e-07
-1.14536e-07
7.13458e-06
-8.36404e-08
7.02919e-06
3.7255e-07
-4.45518e-07
7.22387e-08
7.24085e-06
4.70393e-07
-4.8313e-07
1.12024e-07
5.57438e-06
4.58885e-09
1.78394e-07
8.13198e-06
4.86523e-07
1.19502e-07
6.49221e-06
4.00568e-07
7.77778e-08
3.9528e-06
4.80359e-07
6.49687e-08
7.25373e-06
3.28895e-08
7.01174e-06
3.67651e-07
-4.8502e-07
1.73138e-07
7.16825e-06
3.71502e-07
-3.94774e-07
3.25354e-07
7.57447e-06
-4.986e-08
3.90801e-07
6.93454e-06
2.24836e-07
3.41211e-07
6.2464e-06
3.48222e-07
2.7737e-07
5.96543e-06
3.87175e-07
1.77454e-07
7.0613e-06
1.07967e-07
6.68271e-06
3.13297e-07
-2.89945e-07
1.93698e-07
6.58123e-06
2.40659e-07
-2.32514e-07
2.8851e-07
7.18002e-06
-4.66963e-08
3.88778e-07
7.25971e-06
1.36743e-07
3.94175e-07
7.23904e-06
2.39516e-07
3.07128e-07
7.03771e-06
2.55388e-07
1.89284e-07
6.71987e-06
1.20288e-07
6.11102e-06
2.3263e-07
-1.47637e-07
5.89452e-06
1.30116e-07
1.86868e-07
-1.08911e-07
6.41284e-06
2.32493e-07
-1.00387e-08
6.68774e-06
2.82026e-07
9.99969e-08
6.71736e-06
2.82222e-07
1.7078e-07
6.52017e-06
2.30935e-07
1.88543e-07
6.04474e-06
1.60527e-07
5.42603e-06
1.80392e-07
1.11195e-07
1.12842e-08
8.44215e-09
6.80941e-06
-4.31391e-08
-1.56891e-08
-3.94347e-08
-6.96775e-08
7.04748e-06
-3.75288e-09
-5.71115e-08
-7.57833e-08
7.81668e-06
9.85044e-10
-5.48443e-08
-8.62321e-08
7.81049e-06
8.66611e-09
-3.98806e-08
-1.54288e-07
7.31956e-06
2.3732e-08
-3.20596e-08
-4.98354e-08
6.90931e-06
-1.29771e-08
-2.9523e-09
6.30442e-06
-2.05752e-09
-3.86935e-08
-5.43728e-08
-4.46258e-09
7.01478e-06
-4.69754e-08
-1.17148e-07
-7.22401e-08
7.94294e-06
-1.10669e-07
-3.62423e-08
8.19384e-06
-4.31239e-08
-4.79242e-08
8.44248e-06
-8.13449e-09
-1.38327e-07
7.56631e-06
-4.8377e-08
-8.57074e-08
7.28948e-06
-3.09059e-08
6.81276e-06
-3.82555e-08
-1.01794e-08
-3.98217e-08
7.30673e-06
-8.55609e-08
-3.66124e-08
-7.40433e-08
7.08532e-06
-1.66382e-07
-7.34177e-08
8.11871e-06
-6.53653e-08
-6.99175e-08
8.28386e-06
-1.86695e-08
-9.56761e-08
4.49834e-06
-6.3362e-08
-6.55458e-08
7.31969e-06
-4.68027e-08
7.04009e-06
-6.3324e-08
3.08106e-08
-9.63066e-08
7.21443e-06
-1.20575e-07
4.05045e-09
-5.86532e-08
6.54445e-06
-1.35016e-07
-1.14758e-08
8.47745e-06
-3.46513e-08
-5.51647e-08
8.07072e-06
-1.05816e-07
-4.03863e-08
3.32195e-06
-1.18054e-07
-1.03731e-07
7.38592e-06
-7.6412e-08
7.0125e-06
-9.67682e-08
4.89841e-08
-1.2749e-07
6.82795e-06
-1.33266e-07
-4.505e-08
-1.21489e-07
7.52706e-06
-1.30852e-07
-1.20286e-07
6.98291e-06
-8.30083e-08
-1.09045e-07
7.54753e-06
-9.61379e-08
-9.13049e-08
6.46835e-06
-1.25525e-07
-1.39566e-07
6.99273e-06
-1.03344e-07
6.68147e-06
-9.74428e-08
7.68439e-08
-1.24984e-07
6.55822e-06
-1.22985e-07
-1.17045e-09
-1.72128e-07
6.74495e-06
-4.02253e-08
-1.82332e-07
7.25736e-06
-6.43342e-08
-1.73923e-07
7.16851e-06
-7.88928e-08
-1.58699e-07
6.99335e-06
-9.41706e-08
-1.60183e-07
6.69097e-06
-1.17193e-07
6.10328e-06
-7.26334e-08
8.70752e-08
5.88155e-06
-1.18276e-07
-8.09052e-08
4.86087e-08
6.41844e-06
-1.39558e-07
1.19646e-08
6.712e-06
-1.67769e-07
-1.37648e-08
6.73972e-06
-1.68273e-07
-2.47801e-08
6.52855e-06
-1.54508e-07
-3.60778e-08
6.03609e-06
-1.40298e-07
5.40727e-06
-3.07364e-08
-1.03924e-07
3.17044e-07
2.43764e-07
6.7839e-06
-3.33599e-07
-2.77075e-07
1.90875e-07
2.56405e-07
6.11308e-06
-3.87661e-07
2.21805e-08
2.36127e-07
6.61193e-06
-4.53012e-07
-1.61216e-07
2.27012e-07
6.44988e-06
-4.72807e-07
-2.81794e-07
2.19307e-07
6.09513e-06
-4.42561e-07
-3.1973e-07
2.66299e-07
6.77867e-06
-3.60956e-07
2.11038e-07
6.26825e-06
-2.31185e-07
-2.63486e-07
3.47015e-07
1.1995e-07
6.27248e-06
-4.39443e-07
1.39844e-07
4.62503e-08
6.57746e-06
-3.99999e-08
4.4997e-08
7.8143e-06
-1.92443e-07
6.22068e-08
8.18311e-06
-3.59303e-07
-3.71738e-08
7.44225e-06
-4.81653e-07
6.36394e-08
6.05328e-06
9.59671e-08
6.80989e-06
-3.64053e-07
2.72064e-07
-1.74177e-08
6.00671e-06
-4.74966e-07
1.75031e-07
-6.65871e-08
7.39452e-06
-6.3056e-08
-9.18575e-08
5.90399e-06
-2.12242e-07
-1.09621e-07
7.47779e-06
-2.8207e-07
-1.35172e-07
5.17212e-06
-4.88959e-07
-4.71379e-08
7.32355e-06
-2.78778e-08
7.02445e-06
-4.27718e-07
2.66998e-07
-1.43634e-07
5.82585e-06
-4.92362e-07
2.06328e-07
-9.97168e-08
7.50814e-06
1.3926e-08
-1.04406e-07
8.36048e-06
-1.71719e-07
-1.45589e-07
8.27714e-06
-3.7451e-07
-1.06579e-07
3.50036e-06
-5.44427e-07
-2.41509e-07
7.37849e-06
-1.72525e-07
6.98195e-06
-4.56323e-07
3.58809e-07
-2.94976e-07
6.14234e-06
-4.99408e-07
1.9588e-07
-3.82275e-07
5.8759e-06
6.79765e-10
-4.26298e-07
3.36655e-06
-2.32494e-07
-4.24123e-07
5.06954e-06
-3.26023e-07
-3.30314e-07
6.39357e-06
-5.07889e-07
-3.85796e-07
6.30556e-06
-2.71204e-07
6.67335e-06
-4.01237e-07
3.79493e-07
-3.46991e-07
6.48265e-06
-4.13333e-07
2.15167e-07
-5.37905e-07
5.69714e-06
3.18971e-08
-6.05469e-07
7.00564e-06
-1.63211e-07
-5.93928e-07
6.71691e-06
-2.94254e-07
-5.5332e-07
6.40022e-06
-3.61429e-07
-4.50348e-07
6.51718e-06
-2.98228e-07
6.06399e-06
-2.95128e-07
2.88419e-07
5.81634e-06
-3.0992e-07
-2.60585e-07
1.96531e-07
6.38233e-06
-4.1008e-07
5.94337e-08
6.70728e-06
-5.0165e-07
-7.38819e-08
6.73971e-06
-5.08288e-07
-1.58858e-07
6.51046e-06
-4.50283e-07
-1.97443e-07
5.99199e-06
-3.67676e-07
5.34582e-06
-1.77857e-07
-2.56435e-07
4.20737e-07
3.0538e-07
6.60386e-06
-4.14433e-07
-3.46802e-07
2.13896e-07
2.35493e-07
5.5366e-06
-4.99949e-07
5.71232e-08
3.19321e-07
4.49441e-06
-5.50795e-07
-9.49433e-08
3.23282e-07
5.62225e-06
-5.76575e-07
-2.53955e-07
2.59087e-07
4.98316e-06
-5.123e-07
-3.55358e-07
3.6829e-07
6.42062e-06
-4.70466e-07
2.9007e-07
6.1864e-06
-2.43577e-07
-3.19924e-07
3.01857e-07
1.03776e-07
5.67726e-06
-5.37497e-07
2.54677e-07
9.8818e-08
3.21176e-06
4.61075e-09
1.02683e-07
5.46734e-06
-2.51257e-07
1.61879e-07
7.01814e-06
-3.48655e-07
9.94454e-08
3.78157e-06
-4.99144e-07
1.84528e-07
4.77133e-06
1.55003e-07
6.71416e-06
-4.02046e-07
3.15621e-07
-8.2603e-09
5.41423e-06
-5.31545e-07
2.75768e-07
-2.04771e-08
7.19624e-06
2.75274e-08
-4.00514e-08
6.01031e-06
-1.9795e-07
-2.05541e-07
3.74984e-06
-2.69083e-07
-1.26111e-07
5.05359e-06
-5.5177e-07
-2.79337e-08
5.87761e-06
-1.17152e-08
6.83008e-06
-4.74771e-07
3.66693e-07
-1.00768e-07
5.39572e-06
-5.52517e-07
3.91771e-07
-1.58249e-07
7.52815e-06
7.5054e-08
-2.39951e-07
7.08673e-06
-1.34118e-07
-2.79526e-07
8.25238e-06
-2.67228e-07
-1.28209e-07
3.72569e-06
-5.62243e-07
-2.68614e-07
5.97512e-06
-1.83605e-07
6.77125e-06
-4.84483e-07
2.5854e-07
-2.67996e-07
5.47913e-06
-5.44289e-07
1.09888e-07
-2.72564e-07
3.26746e-06
1.37342e-07