/*--------------------------------*- C++ -*----------------------------------*\
| =========                 |                                                 |
| \\      /  F ield         | OpenFOAM: The Open Source CFD Toolbox           |
|  \\    /   O peration     | Version:  plus.master.MPPICInterFoam            |
|   \\  /    A nd           | Web:      www.OpenFOAM.com                      |
|    \\/     M anipulation  |                                                 |
\*---------------------------------------------------------------------------*/
FoamFile
{
    version     2.0;
    format      ascii;
    class       volScalarField;
    location    "6.8";
    object      rho;
}
// * * * * * * * * * * * * * * * * * * * * * * * * * * * * * * * * * * * * * //

dimensions      [1 -3 0 0 0 0 0];

internalField   nonuniform List<scalar> 
11821
(
1000
970.357
1000
998.554
1000
999.997
999.669
977.982
913.894
911.584
936.73
992.056
1000
987.096
806.169
765.391
695.381
815.544
915.65
999.962
948.581
712.606
454.724
375.983
651.004
850.098
997.487
930.707
676.229
374.374
374.973
609.628
822.592
992.426
979.068
755.894
626.303
555.246
710.064
902.956
999.991
998.644
965.746
896.477
900.62
927.041
985.082
999.999
999.999
999.997
999.699
999.553
999.956
999.999
999.997
999.999
975.997
889.668
886.318
913.677
989.444
1000
988.013
776.651
750.313
685.088
746.569
885.669
1000
947.372
691.071
589.046
506.196
637.814
791.67
994.895
928.794
685.128
373.815
426.497
604.547
738.26
988.817
979.66
734.29
680.124
592.17
696.692
881.468
1000
998.906
965.117
887.703
895.511
917.193
983.147
1000
1000
1000
1000
1000
1000
1000
999.998
999.86
963.277
835.131
806.934
860.538
980.256
1000
980.646
719.697
540.463
490.526
518.596
818.141
999.808
928.191
549.741
499.227
579.952
444.381
663.981
983.052
909.934
580.874
373.455
579.299
440.795
601.307
974.346
969.916
692.518
582.84
488.251
546.146
818.064
998.774
998.058
948.851
840.366
838.729
870.492
971.476
1000
1000
1000
1000
998.481
1000
1000
999.999
999.267
948.163
813.085
750.745
832.173
969.415
1000
969.635
723.968
421.362
428.074
430.293
789.121
997.564
911.867
530.943
373.525
579.916
426.569
637.989
968.335
895.58
533.924
373.356
579.974
425.376
598.265
959.238
955.653
706.618
461.464
426.976
439.753
782.218
993.852
995.897
928.518
813.45
779.147
831.227
954.117
1000
1000
1000
996.927
989.332
998.77
1000
1000
997.704
930.451
806.684
739.3
820.605
958.238
999.997
951.598
757.615
483.707
433.436
474.548
781.261
991.941
898.154
637.936
373.327
579.933
429.578
653.607
955.072
885.329
607.792
373.441
446.427
425.136
637.4
948.574
932.173
757.83
490.024
427.041
468.685
769.436
984.803
991.735
902.696
805.499
755.525
806.829
931.798
999.995
1000
1000
988.683
974.648
994.083
1000
1000
994.617
893.809
763.571
709.506
784.642
941.792
999.99
912.55
731.642
605.515
439.632
517.388
743.194
984.401
838.326
755.309
421.333
379.911
429.575
637.862
938.255
832.254
721.696
377.272
367.121
422.877
631.307
933.177
878.173
732.269
595.566
452.225
509.101
721.237
973.032
984.396
839.224
747.128
704.997
743.417
895.725
1000
1000
1000
976.307
960.479
986.339
1000
1000
990.488
844.293
669.325
634.978
718.633
926.552
1000
870.561
572.442
567.229
424.998
476.811
661.966
980.108
742.981
681.607
461.754
366.46
385.886
544.249
924.205
732.811
679.081
392.023
366.671
379.568
545.423
913.759
824.244
538.891
567.117
456.939
470.815
616.306
964.952
977.19
761.782
603.354
592.424
636.441
864.991
999.997
1000
999.627
966.398
953.257
979.892
1000
1000
989.22
832.745
639.579
605.074
700.785
926.969
1000
864.919
455.631
389.44
371.578
391.546
646.012
981.702
719.991
424.881
390.758
366.633
366.765
490.058
924.133
702.505
446.552
375.157
366.677
366.894
468.377
907.192
820.171
404.063
384.266
387.302
375.494
585.727
966.024
977.13
752.974
553.635
537.245
611.337
867.178
1000
1000
999.765
967.701
955.522
980.433
1000
1000
991.389
857.648
667.637
637.894
736.104
944.477
1000
889.613
467.576
366.641
366.339
399.565
695.492
990.847
747.878
367.971
366.837
366.475
377.631
541.24
940.969
728.501
366.828
366.77
366.44
370.518
503.295
918.704
855.22
417.118
366.388
366.597
371.392
629.008
978.116
983.85
798.59
581.448
551.347
651.405
899.98
1000
1000
1000
979.327
969.171
987.19
1000
999.999
995.3
919.829
753.07
740.04
828.227
971.554
999.999
945.027
550.662
366.557
366.196
463.118
801.321
999.261
830.322
392.14
366.65
366.3
482.094
668.675
969.434
820.338
382.174
366.54
366.374
524.496
627.794
950.172
925.354
491.583
366.165
366.292
406.459
737.191
995.603
991.261
889.215
668.058
618.726
751.897
945.648
1000
1000
999.999
992.025
985.203
994.699
1000
999.998
995.432
977.385
845.721
833.89
916.237
983.189
1000
985.637
704.373
382.372
365.918
542.509
887.238
999.999
901.083
481.23
366.29
365.96
486.117
757.729
987.13
900.108
467.303
366.169
366.021
556.664
748.661
981.755
970.686
647.784
365.813
365.987
465.584
837.186
999.999
991.271
956.435
785.345
737.041
851.021
967.598
1000
999.992
1000
994.188
990.558
996.666
1000
1000
991.851
999.574
929.067
912.282
963.19
982.875
999.956
994.108
880.529
511.528
383.323
659.8
943.248
1000
935.418
592.47
543.988
582.493
447.404
821.942
992.997
929.434
538.997
505.768
451.891
484.399
834.288
994.793
977.089
850.585
577.847
487.447
582.972
900.556
1000
987.117
979.547
892.485
871.135
916.186
972.956
1000
999.982
1000
993.095
990.388
997.971
1000
1000
987.594
982.93
981.96
970.062
962.696
975.319
999.999
972.929
955.111
792.54
660.54
832.665
954.508
1000
938.29
691.702
826.369
800.788
443.137
883.033
994.035
929.018
570.978
841.096
711.439
366.395
896.98
996.433
955.165
925.058
881.135
859.088
718.446
916.501
1000
980.113
960.198
923.627
911.157
927.341
970.92
1000
1000
1000
994.269
992.086
999.975
1000
999.984
984.601
867.454
927.233
926.526
868.365
957.297
1000
882.301
948.072
891.032
885.699
866.55
872.227
1000
856.941
782.603
731.6
830.293
507.598
883.632
991.844
843.372
784.82
840.709
787.305
346.91
894.01
993.577
873.962
834.573
646.646
754.913
729.947
873.428
1000
970.507
842.623
901.243
876.502
886.363
953.257
1000
1000
1000
995.163
993.061
1000
1000
999.973
973.03
748.209
657.952
615.03
680.887
917.381
1000
779.244
495.044
760.749
864.627
657.953
664.406
996.587
649.092
782.759
645.218
564.516
517.117
784.549
975.52
640.443
792.321
798.104
786.719
343.234
794.362
975.226
763.185
483.89
343.852
382.925
633.913
706.947
994.861
950.056
703.666
768.035
727.961
736.707
908.519
1000
1000
1000
990.454
986.872
998.822
1000
999.973
955.327
686.506
502.742
502.698
592.364
868.621
999.719
712.699
370.814
387.887
519.261
362.341
569.873
978.036
615.653
697.273
582.637
342.137
397.157
547.24
943.618
615.873
715.776
488.891
742.955
341.75
553.991
939.818
698.224
344.242
342.585
342.405
395.203
579.983
976.79
933.062
658.782
575.266
541.995
627.142
864.98
999.283
1000
995.354
975.589
970.752
989.285
1000
999.976
1000
1000
1000
1000
1000
1000
1000
1000
1000
1000
1000
1000
1000
1000
1000
1000
1000
1000
1000
1000
1000
1000
1000
1000
1000
1000
1000
1000
1000
1000
1000
1000
1000
1000
1000
1000
1000
1000
1000
1000
1000
1000
1000
999.969
999.943
999.726
999.955
999.999
1000
1000
1000
1000
1000
1000
1000
1000
1000
1000
1000
1000
1000
1000
1000
1000
1000
1000
1000
1000
1000
1000
1000
1000
1000
1000
1000
1000
1000
1000
1000
1000
1000
1000
1000
1000
1000
1000
1000
1000
1000
1000
1000
1000
1000
1000
1000
1000
1000
1000
999.999
999.986
999.954
999.639
999.958
1000
1000
1000
1000
1000
1000
1000
1000
1000
1000
1000
1000
1000
1000
1000
1000
1000
1000
1000
1000
1000
1000
1000
1000
1000
1000
1000
1000
1000
1000
1000
1000
1000
1000
1000
1000
1000
1000
1000
1000
1000
1000
1000
1000
1000
1000
1000
1000
1000
1000
1000
999.999
999.996
999.949
999.656
999.959
1000
1000
1000
1000
1000
1000
1000
1000
1000
1000
1000
1000
1000
1000
1000
1000
1000
1000
1000
1000
1000
1000
1000
1000
1000
1000
1000
1000
1000
1000
1000
1000
1000
1000
1000
1000
1000
1000
1000
1000
1000
1000
1000
1000
1000
1000
1000
1000
1000
1000
1000
999.999
1000
999.917
999.711
999.973
1000
1000
1000
1000
1000
1000
1000
999.999
1000
1000
1000
1000
1000
1000
1000
1000
1000
1000
1000
1000
1000
1000
1000
1000
1000
1000
1000
1000
1000
1000
1000
1000
1000
1000
1000
1000
1000
1000
1000
1000
1000
1000
1000
1000
1000
1000
1000
1000
1000
1000
1000
1000
1000
999.824
999.755
999.987
999.995
1000
1000
1000
1000
1000
1000
999.999
1000
1000
1000
1000
1000
1000
1000
1000
1000
1000
1000
1000
1000
1000
1000
1000
1000
1000
1000
1000
1000
1000
1000
1000
1000
1000
1000
1000
1000
1000
1000
1000
1000
1000
1000
1000
1000
1000
1000
1000
1000
1000
1000
1000
1000
999.675
999.768
999.977
999.961
1000
1000
1000
1000
1000
1000
999.999
1000
1000
1000
1000
1000
1000
1000
1000
1000
1000
1000
1000
1000
1000
1000
1000
1000
1000
1000
1000
1000
1000
1000
1000
1000
1000
1000
1000
1000
1000
1000
1000
1000
1000
1000
1000
1000
1000
1000
1000
1000
1000
1000
1000
1000
999.65
999.801
999.859
999.916
1000
1000
1000
1000
1000
1000
1000
1000
1000
1000
1000
1000
1000
1000
1000
1000
1000
1000
1000
1000
1000
1000
1000
1000
1000
1000
1000
1000
1000
1000
1000
1000
1000
1000
1000
1000
1000
1000
1000
1000
1000
1000
1000
1000
1000
1000
1000
1000
1000
1000
1000
1000
999.664
999.869
999.645
999.908
1000
1000
1000
1000
1000
1000
1000
999.999
1000
1000
1000
1000
1000
1000
1000
1000
1000
1000
1000
1000
1000
1000
1000
1000
1000
1000
1000
1000
1000
1000
1000
1000
1000
1000
1000
1000
1000
1000
1000
1000
1000
1000
1000
1000
1000
1000
1000
1000
1000
1000
1000
999.999
999.723
999.939
999.609
999.919
1000
1000
1000
1000
1000
1000
1000
999.999
999.999
1000
1000
1000
1000
1000
1000
1000
999.999
1000
1000
1000
1000
1000
1000
1000
1000
1000
1000
1000
1000
1000
1000
1000
1000
1000
1000
1000
1000
1000
1000
1000
1000
1000
1000
1000
1000
1000
1000
1000
1000
1000
1000
999.981
999.838
999.986
999.729
999.95
1000
1000
1000
1000
1000
1000
1000
1000
999.999
1000
1000
1000
1000
1000
1000
1000
999.999
1000
1000
1000
1000
1000
1000
1000
1000
1000
1000
1000
1000
1000
1000
1000
1000
1000
1000
1000
1000
1000
1000
1000
1000
1000
1000
1000
1000
1000
1000
1000
1000
1000
1000
999.929
999.923
999.997
999.881
999.982
1000
1000
1000
1000
1000
1000
1000
1000
1000
1000
1000
1000
1000
1000
1000
1000
1000
1000
1000
1000
1000
1000
1000
1000
1000
1000
1000
1000
1000
1000
1000
1000
1000
1000
1000
1000
1000
1000
1000
1000
1000
1000
1000
1000
1000
1000
1000
1000
1000
1000
999.999
999.894
999.97
999.915
999.888
999.996
1000
1000
1000
1000
1000
1000
1000
1000
1000
1000
1000
1000
1000
1000
1000
1000
1000
1000
1000
1000
1000
1000
1000
1000
1000
1000
1000
1000
1000
1000
1000
1000
1000
1000
1000
1000
1000
1000
1000
1000
1000
1000
1000
1000
1000
1000
1000
1000
1000
1000
999.997
999.898
999.993
999.693
999.848
999.999
1000
1000
1000
1000
1000
1000
1000
1000
1000
1000
1000
1000
1000
1000
1000
1000
1000
1000
1000
1000
1000
1000
1000
1000
1000
1000
1000
1000
1000
1000
1000
1000
1000
1000
1000
1000
1000
1000
1000
1000
1000
1000
1000
1000
1000
1000
1000
1000
1000
1000
999.997
999.937
999.997
999.583
999.814
1000
1000
1000
1000
1000
1000
1000
1000
1000
1000
1000
1000
1000
1000
1000
1000
1000
1000
1000
1000
1000
1000
1000
1000
1000
1000
1000
1000
1000
1000
1000
1000
1000
1000
1000
1000
1000
1000
1000
1000
1000
1000
1000
1000
1000
1000
1000
1000
1000
1000
1000
999.999
999.987
999.999
999.632
999.83
999.999
1000
1000
1000
1000
1000
1000
1000
1000
1000
1000
1000
1000
1000
1000
1000
1000
1000
1000
1000
1000
1000
1000
1000
1000
1000
1000
1000
1000
1000
1000
1000
1000
1000
1000
1000
1000
1000
1000
1000
1000
1000
1000
1000
1000
1000
1000
1000
1000
1000
1000
1000
1000
1000
999.821
999.901
999.999
1000
1000
1000
1000
1000
1000
1000
1000
1000
1000
1000
1000
1000
1000
1000
1000
1000
1000
1000
1000
1000
1000
1000
1000
1000
1000
1000
1000
1000
1000
1000
1000
1000
1000
1000
1000
1000
1000
1000
1000
1000
1000
1000
1000
1000
1000
1000
1000
1000
1000
1000
1000
1000
1000
1000
1000
1000
1000
1000
1000
1000
1000
1000
1000
1000
1000
1000
1000
999.999
999.999
1000
1000
1000
1000
1000
1000
1000
1000
1000
1000
1000
1000
1000
1000
1000
1000
1000
1000
1000
1000
1000
1000
1000
1000
1000
1000
1000
1000
1000
999.986
999.95
999.992
999.973
999.999
1000
1000
1000
1000
1000
1000
1000
1000
1000
1000
1000
1000
1000
1000
1000
1000
1000
1000
1000
1000
999.999
1000
1000
1000
1000
1000
1000
1000
1000
1000
1000
1000
1000
1000
1000
1000
1000
1000
1000
1000
1000
1000
1000
1000
1000
1000
1000
1000
1000
1000
1000
999.983
999.968
999.996
999.983
1000
1000
1000
1000
1000
1000
1000
1000
1000
1000
1000
1000
1000
1000
1000
1000
1000
1000
1000
1000
1000
999.999
1000
1000
1000
1000
1000
1000
1000
1000
1000
1000
1000
1000
1000
1000
1000
1000
1000
1000
1000
1000
1000
1000
1000
1000
1000
1000
1000
1000
1000
1000
999.984
999.988
999.995
999.99
1000
1000
1000
1000
1000
1000
1000
1000
1000
1000
1000
1000
999.999
1000
1000
1000
1000
1000
1000
1000
1000
999.999
1000
1000
1000
1000
1000
1000
1000
1000
1000
1000
1000
1000
1000
1000
1000
1000
1000
1000
1000
1000
1000
1000
1000
1000
1000
1000
1000
1000
1000
999.998
999.988
999.995
999.993
999.994
999.999
1000
1000
1000
1000
1000
1000
1000
1000
1000
1000
1000
999.999
1000
1000
1000
1000
1000
1000
1000
1000
999.999
1000
1000
1000
999.569
1000
1000
1000
1000
1000
1000
1000
999.754
1000
1000
1000
1000
1000
1000
1000
1000
1000
1000
1000
1000
1000
1000
1000
1000
1000
999.996
999.993
999.994
999.988
999.995
999.998
1000
1000
1000
1000
1000
1000
1000
1000
1000
1000
1000
999.999
1000
1000
1000
1000
1000
1000
1000
1000
999.999
1000
1000
1000
997.352
1000
1000
1000
1000
1000
1000
1000
998.184
1000
1000
1000
1000
1000
1000
1000
1000
1000
1000
1000
1000
1000
1000
1000
1000
1000
999.997
999.997
999.99
999.977
999.995
999.995
1000
1000
1000
1000
1000
1000
1000
1000
1000
1000
1000
1000
1000
1000
1000
1000
1000
1000
1000
1000
999.999
1000
1000
1000
996.04
1000
1000
1000
1000
1000
1000
1000
997.791
1000
1000
1000
1000
1000
1000
1000
1000
1000
1000
1000
1000
1000
1000
1000
1000
1000
999.999
999.999
999.979
999.971
999.996
999.992
1000
1000
1000
1000
1000
1000
1000
1000
1000
1000
1000
1000
1000
1000
1000
1000
1000
1000
1000
999.999
999.999
1000
1000
1000
998.344
1000
1000
1000
1000
1000
1000
1000
999.634
1000
1000
1000
1000
1000
1000
1000
1000
1000
1000
1000
1000
1000
1000
1000
1000
1000
1000
999.999
999.963
999.971
999.997
999.992
1000
1000
1000
1000
1000
1000
1000
1000
1000
1000
1000
1000
1000
1000
1000
1000
999.999
1000
1000
999.999
1000
1000
1000
1000
999.987
1000
1000
1000
1000
1000
1000
1000
1000
1000
1000
1000
1000
1000
1000
1000
999.999
1000
1000
1000
1000
1000
1000
1000
1000
1000
1000
999.999
999.954
999.976
999.999
999.991
1000
1000
1000
1000
1000
1000
1000
1000
1000
1000
1000
1000
1000
1000
1000
1000
999.999
1000
1000
999.999
1000
1000
1000
1000
999.994
1000
1000
1000
1000
1000
1000
1000
999.994
1000
1000
1000
1000
1000
1000
1000
999.999
1000
1000
1000
1000
1000
1000
1000
1000
1000
1000
999.998
999.955
999.986
1000
999.991
1000
1000
1000
1000
1000
1000
1000
1000
1000
1000
1000
1000
1000
1000
1000
1000
1000
1000
1000
1000
1000
1000
1000
1000
999.997
1000
1000
1000
1000
1000
1000
1000
999.997
1000
1000
1000
1000
1000
1000
1000
1000
1000
1000
1000
1000
1000
1000
1000
999.931
1000
1000
999.998
999.966
999.996
1000
999.992
1000
1000
1000
1000
1000
1000
1000
1000
999.975
1000
1000
1000
1000
1000
1000
1000
1000
1000
1000
1000
1000
1000
1000
1000
997.836
1000
1000
1000
1000
1000
1000
1000
999.173
1000
1000
1000
1000
1000
1000
1000
1000
1000
1000
1000
1000
1000
1000
1000
999.8
1000
1000
999.998
999.984
999.999
1000
999.994
999.992
1000
1000
1000
1000
1000
1000
1000
1000
1000
1000
1000
1000
1000
1000
1000
1000
1000
1000
1000
1000
1000
1000
1000
996.739
1000
1000
1000
1000
1000
1000
1000
997.818
1000
1000
1000
1000
1000
1000
1000
1000
1000
1000
1000
1000
1000
1000
1000
999.98
1000
1000
999.998
999.997
1000
1000
999.997
999.985
1000
1000
1000
1000
1000
1000
1000
1000
1000
1000
1000
1000
1000
1000
1000
1000
1000
1000
1000
1000
1000
1000
1000
996.923
1000
1000
1000
1000
1000
1000
1000
997.262
1000
1000
1000
1000
1000
1000
1000
1000
1000
1000
1000
1000
1000
1000
1000
1000
1000
1000
999.998
1000
1000
1000
999.999
999.985
1000
1000
1000
1000
1000
1000
1000
1000
1000
1000
1000
1000
1000
1000
1000
1000
1000
1000
1000
1000
1000
1000
1000
989.799
1000
1000
1000
1000
1000
1000
1000
989.765
1000
1000
1000
1000
1000
1000
1000
1000
1000
1000
1000
1000
1000
1000
1000
1000
1000
1000
999.999
1000
999.999
1000
1000
999.985
1000
1000
1000
1000
1000
1000
1000
1000
1000
1000
1000
1000
1000
1000
1000
1000
1000
1000
1000
1000
1000
1000
1000
976.997
1000
1000
1000
1000
1000
1000
1000
976.284
1000
1000
1000
1000
1000
1000
1000
1000
1000
1000
1000
1000
1000
1000
1000
1000
1000
1000
999.999
1000
1000
999.999
1000
1000
1000
999.999
999.813
998.795
999.658
998.955
999.872
1000
1000
999.961
999.604
999.794
997.02
999.429
999.984
999.995
1000
1000
999.671
999.983
997.999
998.842
999.984
1000
1000
1000
999.938
999.983
999.971
999.935
997.45
1000
1000
999.98
999.854
999.72
996.495
999.625
995.693
1000
999.997
999.986
1000
997.937
996.494
995.827
995.114
1000
999.997
1000
999.878
998.354
996.634
999.157
997.308
1000
1000
1000
999.911
998.87
998.079
999.016
999.836
1000
1000
999.957
1000
999.693
997.015
996.201
996.442
1000
1000
1000
999.722
999.997
997.02
999.052
998.292
1000
1000
1000
999.865
999.984
999.968
999.974
998.49
1000
1000
999.993
999.963
999.912
997.584
999.555
995.114
1000
999.999
1000
1000
996.967
996.492
996.389
995.114
1000
999.998
1000
999.944
998.687
996.493
999.305
997.878
1000
1000
1000
999.947
999.158
997.019
999.171
999.838
1000
1000
999.988
1000
999.24
997.055
994.785
993.912
1000
1000
1000
999.966
999.997
997.072
999.036
993.896
1000
1000
1000
999.926
999.986
999.964
999.98
999.141
1000
1000
1000
999.997
999.993
999.587
999.54
995.114
1000
1000
1000
1000
997.103
996.495
998.162
995.114
1000
1000
1000
999.999
998.851
996.498
999.602
999.139
1000
1000
1000
999.935
999.605
997.019
999.397
999.863
1000
1000
1000
1000
998.752
997.019
995.894
993.9
1000
1000
1000
1000
999.971
998.442
998.848
993.688
999.056
1000
1000
1000
999.996
999.973
999.981
998.714
1000
1000
1000
1000
1000
999.856
999.538
995.115
1000
1000
1000
1000
997.819
996.497
999.798
996.161
1000
1000
1000
1000
998.771
997.881
999.887
999.867
1000
1000
1000
999.934
999.91
997.427
999.68
999.913
1000
1000
1000
1000
998.753
997.015
999.208
997.697
999.098
1000
1000
1000
999.507
999.581
998.661
993.688
995.504
1000
1000
1000
1000
999.992
999.992
998.053
1000
1000
1000
1000
999.411
999.782
999.596
996.601
1000
1000
1000
1000
998.301
996.658
999.954
999.134
1000
1000
1000
1000
998.278
999.118
999.985
999.939
1000
1000
1000
999.976
999.908
999.017
999.874
999.964
999.976
1000
1000
1000
999.118
997.015
999.537
999.915
996.356
1000
1000
1000
999.113
999.635
998.819
993.688
988.798
1000
1000
999.999
999.995
999.994
999.349
998.1
999.763
1000
1000
1000
998.503
999.689
997.298
999.501
1000
1000
1000
1000
998.209
998.093
999.985
999.833
1000
1000
1000
1000
998.211
999.184
999.985
999.858
1000
1000
1000
1000
999.592
999.228
999.951
999.96
1000
1000
1000
1000
999.542
997.016
999.518
999.959
993.122
1000
1000
1000
999.112
999.596
999.431
994.653
982.697
1000
1000
999.998
999.967
999.994
996.606
998.661
999.357
1000
1000
1000
999.02
999.682
996.193
999.393
1000
1000
1000
1000
998.256
999.452
998.505
999.639
1000
1000
1000
1000
998.24
999.104
999.535
999.647
1000
1000
1000
1000
998.79
999.086
999.982
999.904
1000
1000
1000
1000
999.543
997.017
999.595
999.958
993.693
1000
1000
1000
999.192
999.482
999.631
998.877
983.225
1000
1000
999.999
999.955
999.993
996.193
999.249
999.501
1000
1000
1000
999.875
999.708
996.191
999.242
1000
1000
1000
1000
998.936
999.319
996.189
999.353
1000
1000
1000
1000
998.278
999.158
996.412
999.573
999.999
1000
999.998
1000
998.685
999.05
999.999
999.811
999.999
1000
1000
1000
999.44
997.02
999.748
999.697
997.639
1000
1000
1000
999.725
999.403
998.652
999.672
991.607
1000
1000
999.997
999.961
999.981
996.161
999.585
1000
1000
1000
1000
1000
999.679
996.19
999.244
1000
1000
1000
1000
999.134
998.88
996.189
999.292
1000
1000
1000
999.998
998.277
999.262
996.19
999.574
1000
1000
999.998
1000
998.684
999.203
999.796
999.776
999.998
1000
1000
1000
999.444
997.24
999.085
998.951
999.991
1000
1000
999.992
999.985
999.314
995.876
999.287
999.68
1000
1000
999.982
999.983
999.982
996.157
999.772
999.999
1000
1000
999.916
999.997
999.534
996.725
999.319
1000
1000
1000
1000
998.93
998.596
996.189
999.34
1000
1000
1000
999.938
998.54
999.604
996.531
999.696
999.901
1000
999.999
1000
998.734
999.623
998.656
999.779
999.999
1000
1000
1000
999.391
998.277
996.087
998.97
999.995
1000
1000
999.965
999.996
999.173
995.826
998.834
999.995
1000
1000
999.963
999.996
999.633
998.857
999.836
999.998
1000
999.999
999.836
999.996
999.174
996.963
999.378
1000
1000
1000
999.994
998.536
998.623
996.205
999.456
1000
1000
1000
999.496
999.235
999.94
998.647
999.849
999.78
1000
1000
1000
999.514
999.895
998.095
999.813
1000
1000
1000
1000
998.983
998.606
995.825
999.077
998.665
1000
1000
999.965
999.982
999.187
995.825
998.794
995.732
1000
999.999
999.966
999.994
998.45
999.127
999.85
1000
1000
999.995
999.836
999.996
998.928
996.341
999.435
1000
1000
1000
999.881
998.458
998.756
996.209
999.597
1000
1000
999.988
999.068
999.37
999.944
999.011
999.949
999.971
1000
1000
999.978
999.749
999.968
998.502
999.881
1000
1000
1000
999.981
998.2
998.638
995.825
999.26
994.9
1000
1000
999.98
999.941
999.291
995.825
998.861
987.789
1000
999.999
999.982
999.969
998.328
998.729
999.856
999.999
1000
999.992
999.877
999.995
998.917
996.216
999.52
1000
1000
1000
999.647
998.458
998.908
996.213
999.762
1000
1000
999.953
999.059
999.45
997.883
998.865
999.99
1000
1000
999.997
999.785
999.706
999.994
999.278
999.948
1000
1000
1000
999.933
998.163
998.906
995.824
999.522
991.462
1000
1000
999.994
999.854
999.539
995.825
999.036
982.015
1000
999.999
999.997
999.955
998.328
998.334
999.868
1000
1000
999.995
999.965
999.995
999.095
996.22
999.661
1000
1000
999.99
999.11
998.64
998.761
996.73
999.91
1000
1000
999.957
999.059
999.574
996.789
998.867
1000
1000
1000
999.994
999.587
999.683
999.999
999.68
999.988
1000
1000
1000
999.866
998.164
999.683
995.824
999.794
982.41
1000
1000
999.994
999.796
999.733
995.824
999.271
970.299
1000
1000
1000
999.953
998.328
998.394
999.888
998.203
1000
999.999
999.999
999.992
999.602
996.328
999.845
1000
1000
999.982
998.837
999.332
997.349
998.263
999.986
1000
1000
999.984
999.287
999.814
996.789
999.026
1000
1000
1000
999.998
999.577
999.73
999.579
999.761
999.999
1000
1000
1000
999.614
998.284
999.617
997.745
999.957
962.847
1000
1000
999.988
999.81
999.743
995.825
999.496
947.701
1000
1000
1000
999.927
998.328
998.762
999.919
985.163
1000
999.999
1000
999.983
999.964
999.366
999.967
1000
1000
999.986
998.837
999.683
996.524
998.993
1000
1000
1000
999.996
999.622
999.979
997.244
999.36
1000
1000
999.997
999.996
999.997
999.967
999.943
1000
1000
1000
1000
999.164
997.976
997.604
999.224
1000
1000
1000
1000
998.628
996.422
996.422
997.932
999.974
1000
1000
1000
999.925
999.096
996.422
998.079
999.849
1000
998.809
996.542
998.845
998.733
999.993
1000
999.999
1000
999.999
999.992
1000
999.999
999.934
999.964
1000
1000
1000
999.995
999.091
998.149
997.462
999.626
1000
1000
1000
999.963
996.549
996.422
996.421
998.72
1000
1000
999.998
1000
999.767
996.764
996.422
998.485
999.975
1000
999.999
999.975
996.913
996.543
999.09
999.353
1000
1000
1000
999.97
999.404
999.544
999.817
999.891
1000
1000
1000
999.998
1000
1000
1000
1000
1000
1000
999.999
999.991
1000
999.999
999.934
999.986
1000
1000
1000
999.991
999.18
998.573
997.821
999.875
1000
1000
1000
999.961
996.677
996.421
996.421
999.398
1000
1000
1000
1000
999.723
996.422
996.421
998.689
999.99
1000
1000
999.896
996.746
997.053
999.016
999.806
1000
1000
1000
999.948
999.388
999.7
999.738
999.944
1000
1000
1000
999.998
1000
1000
1000
1000
1000
1000
1000
999.993
999.999
999.99
999.943
999.996
1000
1000
1000
999.993
999.49
999.289
999.023
999.96
1000
1000
1000
999.991
998.204
996.653
997.703
999.765
1000
1000
1000
1000
999.749
997.52
997.277
999.129
999.99
1000
1000
999.834
996.747
998.859
998.916
999.838
1000
1000
1000
999.92
999.422
999.893
999.739
999.968
1000
1000
1000
999.999
1000
999.998
1000
1000
1000
1000
1000
999.996
999.997
999.969
999.967
999.999
1000
1000
1000
999.992
999.903
999.906
999.887
999.978
1000
1000
1000
1000
999.794
999.482
999.463
999.883
1000
1000
1000
1000
999.773
999.745
999.628
999.691
999.995
1000
1000
999.734
997.855
999.906
998.912
999.834
1000
1000
1000
999.864
999.574
999.997
999.775
999.979
1000
1000
1000
999.999
1000
999.997
1000
1000
1000
1000
1000
999.999
999.996
999.964
999.991
1000
1000
1000
1000
999.992
1000
999.998
999.878
999.984
1000
1000
1000
1000
1000
999.998
999.304
999.881
1000
1000
1000
1000
999.877
999.986
999.335
999.78
1000
1000
1000
999.712
999.964
999.954
998.912
999.859
1000
1000
1000
999.845
999.901
999.918
999.82
999.992
1000
1000
1000
999.997
999.998
999.998
1000
1000
1000
1000
1000
1000
999.996
999.964
999.997
1000
1000
1000
1000
999.998
1000
999.772
999.792
999.993
1000
1000
1000
1000
1000
999.952
998.899
999.873
1000
1000
1000
1000
999.999
999.98
998.9
999.753
1000
1000
1000
999.837
1000
999.829
998.975
999.93
1000
1000
1000
999.9
1000
999.598
999.85
1000
1000
1000
1000
999.997
999.994
1000
1000
1000
1000
1000
1000
1000
999.996
999.971
999.999
1000
1000
1000
1000
1000
1000
999.348
999.769
1000
1000
1000
1000
1000
1000
999.691
998.899
999.906
1000
1000
1000
1000
1000
999.887
998.899
999.766
1000
1000
1000
999.999
1000
999.22
999.44
999.992
1000
1000
1000
999.993
1000
999.534
999.882
1000
1000
1000
1000
999.997
999.993
1000
1000
1000
1000
1000
1000
1000
999.996
999.989
999.999
1000
1000
1000
1000
1000
1000
999.302
999.809
1000
1000
1000
1000
1000
1000
999.075
999.213
999.975
1000
1000
1000
1000
1000
999.492
998.9
999.841
1000
1000
1000
1000
1000
999.028
999.711
1000
1000
1000
1000
1000
1000
999.656
999.93
1000
1000
1000
1000
999.998
999.993
1000
1000
1000
1000
1000
1000
1000
999.997
999.999
999.999
1000
1000
1000
1000
1000
1000
999.474
999.886
1000
1000
1000
1000
1000
1000
998.963
999.565
1000
1000
1000
1000
1000
1000
999.002
998.998
999.953
1000
1000
1000
1000
1000
999.023
999.857
1000
1000
1000
1000
1000
999.997
999.855
999.977
1000
1000
1000
1000
1000
999.993
1000
1000
1000
1000
1000
1000
1000
999.996
1000
1000
1000
1000
1000
1000
1000
999.997
999.739
999.951
1000
1000
1000
1000
1000
999.984
998.961
999.755
1000
1000
1000
1000
1000
999.997
998.961
999.451
999.998
1000
1000
1000
1000
1000
999.449
999.948
1000
1000
1000
1000
1000
999.951
999.952
999.998
1000
1000
1000
1000
1000
999.995
1000
1000
1000
1000
1000
1000
1000
999.995
1000
1000
1000
1000
1000
1000
1000
999.962
999.901
999.988
1000
1000
1000
1000
1000
999.958
998.961
999.89
1000
1000
1000
1000
1000
999.964
998.96
999.774
1000
1000
1000
1000
1000
999.991
999.903
999.992
1000
1000
1000
1000
999.999
999.912
999.975
1000
1000
1000
1000
1000
1000
999.998
999.999
1000
1000
1000
1000
1000
1000
999.994
1000
1000
1000
1000
1000
1000
999.997
999.889
999.965
999.999
1000
1000
1000
1000
1000
999.898
999.442
999.973
1000
1000
1000
1000
1000
999.929
998.961
999.926
1000
1000
1000
1000
999.998
999.896
999.969
1000
1000
1000
1000
1000
999.997
999.911
999.985
1000
1000
1000
1000
1000
1000
1000
999.999
1000
1000
1000
1000
1000
999.999
999.995
999.999
1000
1000
1000
1000
1000
999.994
999.874
999.985
1000
1000
1000
1000
1000
999.995
999.873
999.961
999.996
1000
1000
1000
1000
999.999
999.884
999.525
999.982
999.999
1000
1000
1000
999.992
999.884
999.969
1000
1000
1000
1000
1000
999.996
999.944
999.993
1000
1000
1000
1000
1000
1000
1000
999.999
1000
1000
1000
1000
1000
999.999
999.997
999.999
1000
1000
1000
1000
1000
999.996
999.927
999.993
1000
1000
1000
1000
1000
999.992
999.873
999.989
999.997
999.999
1000
1000
1000
999.994
999.873
999.988
999.987
999.997
1000
1000
1000
999.994
999.89
999.972
1000
1000
1000
1000
1000
999.998
999.989
999.998
1000
1000
1000
1000
1000
1000
1000
1000
1000
1000
1000
1000
1000
999.998
999.997
999.999
1000
1000
1000
1000
1000
999.999
999.988
999.998
1000
1000
1000
1000
1000
999.996
999.88
999.988
999.995
999.998
1000
1000
1000
999.996
999.873
999.985
999.976
999.994
1000
1000
1000
999.998
999.957
999.985
1000
1000
1000
1000
1000
999.999
1000
1000
1000
1000
1000
1000
999.999
1000
1000
1000
1000
1000
1000
1000
1000
999.998
999.998
1000
1000
1000
1000
1000
1000
999.999
1000
1000
1000
1000
1000
1000
1000
1000
999.967
999.992
999.988
999.997
1000
1000
1000
999.999
999.917
999.974
999.97
999.992
1000
1000
1000
1000
999.998
999.998
999.999
1000
1000
1000
1000
1000
1000
1000
1000
1000
1000
1000
999.999
999.999
1000
1000
1000
1000
1000
1000
1000
1000
1000
1000
1000
1000
1000
1000
1000
1000
1000
1000
1000
1000
1000
1000
1000
1000
1000
1000
1000
1000
1000
1000
1000
1000
1000
1000
1000
1000
1000
1000
1000
1000
1000
1000
1000
1000
1000
1000
1000
1000
1000
1000
1000
1000
1000
1000
1000
1000
1000
1000
1000
1000
1000
1000
1000
1000
1000
1000
1000
1000
1000
1000
1000
1000
1000
1000
1000
1000
1000
1000
1000
1000
1000
1000
1000
1000
1000
1000
1000
1000
1000
1000
1000
1000
1000
1000
1000
1000
1000
1000
1000
1000
1000
1000
1000
1000
1000
1000
1000
1000
1000
1000
1000
1000
1000
1000
1000
1000
1000
1000
1000
1000
1000
1000
1000
1000
1000
1000
1000
1000
1000
1000
1000
1000
1000
1000
1000
1000
1000
1000
1000
1000
1000
1000
1000
1000
1000
1000
1000
1000
1000
1000
1000
1000
1000
1000
1000
1000
1000
1000
1000
1000
1000
1000
1000
1000
1000
1000
1000
1000
1000
1000
1000
1000
1000
1000
1000
1000
1000
1000
1000
1000
1000
1000
1000
1000
1000
1000
1000
1000
1000
1000
1000
1000
1000
1000
1000
1000
1000
1000
1000
1000
1000
1000
1000
1000
1000
1000
1000
1000
1000
1000
1000
1000
1000
1000
1000
1000
1000
1000
1000
1000
1000
1000
1000
1000
1000
1000
1000
1000
1000
1000
1000
1000
1000
1000
1000
1000
1000
1000
1000
1000
1000
1000
1000
1000
1000
1000
1000
1000
1000
1000
1000
1000
1000
1000
1000
1000
1000
1000
1000
1000
1000
1000
1000
1000
1000
1000
1000
1000
1000
1000
1000
1000
1000
1000
1000
1000
1000
1000
1000
1000
1000
1000
1000
1000
1000
1000
1000