/*--------------------------------*- C++ -*----------------------------------*\
| =========                 |                                                 |
| \\      /  F ield         | OpenFOAM: The Open Source CFD Toolbox           |
|  \\    /   O peration     | Version:  plus.master.MPPICInterFoam            |
|   \\  /    A nd           | Web:      www.OpenFOAM.com                      |
|    \\/     M anipulation  |                                                 |
\*---------------------------------------------------------------------------*/
FoamFile
{
    version     2.0;
    format      ascii;
    class       volVectorField;
    location    "6.8";
    object      U;
}
// * * * * * * * * * * * * * * * * * * * * * * * * * * * * * * * * * * * * * //

dimensions      [0 1 -1 0 0 0 0];

internalField   nonuniform List<vector> 
11821
(
(0.0202725 0.00185467 0.571774)
(0.0171842 0.00979363 0.605775)
(0.0148254 0.00510197 0.510524)
(0.0091535 0.0157594 0.570234)
(0.0112154 0.00974058 0.510502)
(0.0104274 0.00563896 0.437579)
(-0.00688278 -0.00885432 0.560434)
(-0.005282 -0.0126073 0.646156)
(-0.00168023 -0.017145 0.709147)
(0.0034434 -0.0168807 0.720409)
(0.0063194 -0.0125383 0.677361)
(0.00583141 -0.00881148 0.600733)
(0.00522939 -0.00686904 0.511413)
(-0.00854453 -0.00983722 0.633519)
(-0.00822162 -0.0149955 0.754756)
(-0.00225553 -0.0190726 0.844329)
(0.00642349 -0.0192295 0.866571)
(0.0110386 -0.015075 0.792348)
(0.00938164 -0.0100359 0.685309)
(0.00682861 -0.00737193 0.571358)
(-0.0120383 -0.00792092 0.682987)
(-0.0116011 -0.0117001 0.836494)
(-0.00294913 -0.0133503 1.0072)
(0.00954895 -0.0149343 1.08871)
(0.0154098 -0.0119153 0.896376)
(0.0142102 -0.00862877 0.745148)
(0.00896868 -0.00641029 0.607462)
(-0.012948 -0.00324837 0.687509)
(-0.0110764 -0.00377433 0.849744)
(-0.00409883 -0.00373716 1.05424)
(0.00757996 -0.00522992 1.10815)
(0.0151085 -0.00566038 0.916748)
(0.0154506 -0.00495504 0.750968)
(0.00968363 -0.00402043 0.608877)
(-0.0101516 0.00094315 0.639905)
(-0.0103206 0.00330122 0.771284)
(-0.00332663 0.00426404 0.880312)
(0.00683419 0.00466297 0.910476)
(0.0129619 0.00120339 0.81755)
(0.0122315 -0.00144621 0.693439)
(0.00853998 -0.00145668 0.573806)
(-0.00747903 0.00250161 0.565254)
(-0.00657691 0.0050516 0.654286)
(-0.00237344 0.00911076 0.721516)
(0.00434261 0.00870342 0.733213)
(0.00830416 0.00455111 0.686399)
(0.00800423 0.000972057 0.605199)
(0.00646448 5.96497e-05 0.513269)
(-0.00610364 0.00266821 0.480847)
(-0.00501007 0.00467356 0.546275)
(-0.00190088 0.00699028 0.589741)
(0.00238994 0.00694017 0.598076)
(0.00525326 0.00411204 0.568531)
(0.00559913 0.00172592 0.511899)
(0.00501708 0.000641213 0.440209)
(0.000359579 -0.000667663 0.558856)
(0.00164948 0.000532158 0.645924)
(0.00177556 0.00109153 0.71144)
(0.00154947 0.00210166 0.724631)
(-0.000434667 0.00334211 0.683239)
(-0.00253613 0.00128227 0.603375)
(-0.00159099 -0.00077362 0.511292)
(0.00332626 -0.00220285 0.632069)
(0.00539265 -0.0020989 0.758951)
(0.00410083 -0.00631236 0.845889)
(0.00343702 -0.00763476 0.870905)
(0.000121862 -0.00188746 0.808816)
(-0.00501641 -0.000796276 0.694434)
(-0.003651 -0.0019969 0.572939)
(0.00396978 -0.00424925 0.679106)
(0.00316192 -0.00659249 0.833974)
(0.00139794 -0.0118558 0.968337)
(0.00625957 -0.0124355 1.00601)
(0.00623325 -0.00746729 0.908249)
(-0.00376088 -0.00458833 0.7587)
(-0.00428395 -0.00369674 0.609541)
(0.00290318 -0.00494189 0.681355)
(0.00187132 -0.00804408 0.838982)
(1.17939e-05 -0.00982249 1.02228)
(0.00659591 -0.00693298 1.04023)
(0.00769049 -0.00911512 0.922561)
(-0.00212383 -0.00724074 0.765088)
(-0.00375903 -0.00473839 0.609939)
(0.00297601 -0.00496685 0.634263)
(0.00366876 -0.00777812 0.766614)
(0.00336768 -0.0063168 0.868042)
(0.0046203 -0.0044379 0.893938)
(0.00237477 -0.00957209 0.816034)
(-0.00276581 -0.00846216 0.695984)
(-0.00285047 -0.0051586 0.573046)
(0.00114893 -0.00482475 0.560409)
(0.00174078 -0.00720547 0.648111)
(0.00177506 -0.00703023 0.713522)
(0.00216182 -0.00774945 0.725495)
(0.000793863 -0.00968606 0.683412)
(-0.00155306 -0.00790997 0.603663)
(-0.00144972 -0.00489793 0.511208)
(-0.000781589 -0.00360691 0.476786)
(-0.000462166 -0.00510395 0.540678)
(0.000100818 -0.00568191 0.582959)
(0.000895102 -0.00634695 0.591615)
(0.000719788 -0.00688858 0.563934)
(-6.80066e-05 -0.00572994 0.508486)
(-2.18544e-05 -0.00394122 0.437482)
(8.19314e-05 0.000412355 0.553432)
(0.00163076 0.00174067 0.643516)
(0.00197188 0.00356958 0.71846)
(0.000271553 0.00583291 0.736843)
(-0.00240704 0.0043071 0.690171)
(-0.00300705 0.00179787 0.601731)
(-0.0014066 -0.000199692 0.506746)
(0.00253364 -6.98946e-05 0.627937)
(0.00601818 0.00146654 0.769191)
(0.00386339 -0.00132444 0.909846)
(0.00111405 -5.97896e-05 0.948024)
(-0.00247739 0.000972971 0.865533)
(-0.00550601 0.00109204 0.705195)
(-0.00294564 -0.000683441 0.569435)
(0.00486338 -0.00205655 0.677117)
(0.00798682 -0.00296082 0.869001)
(0.00312413 -0.00946329 1.02769)
(0.00176057 -0.00773906 1.03474)
(-0.00129769 -0.00469616 0.980089)
(-0.00737598 -0.00246921 0.782295)
(-0.00437731 -0.0020992 0.607642)
(0.00475234 -0.0041468 0.678535)
(0.00664718 -0.00738905 0.86564)
(0.00238517 -0.0098165 1.03292)
(0.00199822 -0.00700271 1.04179)
(0.000589567 -0.00668266 0.981842)
(-0.00650128 -0.00614517 0.78665)
(-0.00426868 -0.0037421 0.60772)
(0.00375517 -0.00521045 0.628741)
(0.00655328 -0.00904907 0.770929)
(0.00421338 -0.00769631 0.888739)
(0.00217755 -0.00761762 0.935791)
(-0.0012255 -0.00879806 0.856751)
(-0.00513723 -0.00783106 0.704791)
(-0.00341627 -0.00463665 0.568953)
(0.00173244 -0.00509932 0.553448)
(0.00291398 -0.00789598 0.64372)
(0.00261264 -0.00944087 0.716295)
(0.000805933 -0.0108533 0.731897)
(-0.00186294 -0.0101659 0.687624)
(-0.00317524 -0.00761246 0.600892)
(-0.00208751 -0.00451867 0.50587)
(-0.000233452 -0.0037575 0.470225)
(0.000142283 -0.00551622 0.532762)
(0.000398484 -0.00670102 0.574666)
(2.28337e-05 -0.00778341 0.583974)
(-0.00080842 -0.00711452 0.556942)
(-0.00108655 -0.00551341 0.502051)
(-0.00052701 -0.00366434 0.431927)
(-0.0039351 -0.00230505 0.548976)
(-0.00262709 -0.00342272 0.638377)
(0.000124134 -0.00431206 0.712842)
(0.000281956 -0.000344375 0.734585)
(-0.000666506 -0.00271722 0.686602)
(0.000698193 -0.00236102 0.597679)
(0.00189559 -0.00239458 0.502589)
(-0.00454996 -0.00173141 0.622722)
(-0.0022645 -0.0025038 0.761866)
(0.000132396 -0.0039196 0.908585)
(0.00143205 0.00172715 0.940436)
(0.00136633 -0.00164462 0.865461)
(0.00181267 -0.0015045 0.701729)
(0.00260243 -0.00189952 0.56515)
(-0.00369507 -0.00153278 0.671147)
(0.0029037 -0.00159294 0.86345)
(0.00457526 -0.00218723 1.03215)
(0.000845209 0.000663105 1.03108)
(-0.00236518 -0.00128392 0.973819)
(-0.000694728 -0.00162938 0.778792)
(0.00198857 -0.00164888 0.603985)
(-0.00298275 -0.00183814 0.671989)
(0.00287043 -0.00230681 0.860185)
(0.00685713 -0.000943747 1.03159)
(0.00164233 -0.00260286 1.00782)
(-0.00359037 -0.00241374 0.974079)
(-0.00142899 -0.00292324 0.784514)
(0.00168946 -0.00199612 0.604167)
(-0.00270545 -0.00178045 0.623026)
(0.000442794 -0.00244054 0.763091)
(0.00239096 -0.00153542 0.901634)
(0.00142686 -0.00694909 0.932603)
(-7.26489e-06 -0.00298627 0.863821)
(0.00039096 -0.00292636 0.702502)
(0.0015238 -0.00182362 0.564538)
(-0.0020404 -0.00141346 0.547815)
(-0.000734026 -0.00159402 0.637816)
(0.00116452 -0.00190993 0.710965)
(0.000514196 -0.00490435 0.731625)
(-0.000873663 -0.0027799 0.68543)
(-0.000143507 -0.00242728 0.596799)
(0.000880263 -0.00135694 0.501017)
(-0.00228702 -0.000710822 0.465459)
(-0.00169381 -0.00108855 0.526319)
(-0.000489004 -0.0011641 0.567865)
(-0.000186816 -0.00250243 0.577722)
(-0.000182507 -0.00178262 0.55076)
(0.000554056 -0.00158681 0.496452)
(0.00132741 -0.000959166 0.427488)
(-0.00419556 -0.0022924 0.54633)
(-0.00339157 -0.00349364 0.634046)
(-0.000818926 -0.0052728 0.706359)
(-0.000199029 -0.00226837 0.730011)
(-0.000613546 -0.00352253 0.682102)
(0.000760725 -0.00258839 0.593731)
(0.00210253 -0.00274795 0.498981)
(-0.00585473 -0.00185261 0.619445)
(-0.0049171 -0.0033559 0.746847)
(0.000769154 -0.00305889 0.885623)
(0.00211332 0.00264125 0.937304)
(0.000512359 -0.000844407 0.8529)
(0.002657 -0.00180235 0.696977)
(0.00300977 -0.00224472 0.561337)
(-0.00661322 -0.00134626 0.665662)
(-0.00160239 -0.00180679 0.827208)
(0.00708327 -0.00017152 1.02523)
(0.00330158 0.00319531 1.04977)
(-0.00222583 -0.000265112 0.976765)
(0.00167989 -0.00144025 0.772868)
(0.00322994 -0.00154201 0.600657)
(-0.0062881 -0.000972217 0.666616)
(-0.00209717 -0.000471152 0.833548)
(0.00503097 0.000678392 1.02633)
(0.0030133 -0.00118846 1.11359)
(-0.00176228 -0.00210712 0.98069)
(0.00146812 -0.00160174 0.773851)
(0.00315313 -0.0011319 0.600729)
(-0.00464843 -0.000507004 0.619951)
(-0.00351523 0.000561806 0.748246)
(0.00115279 0.000305443 0.888098)
(0.00195682 -0.00409534 0.940001)
(2.9766e-05 -0.00201369 0.855342)
(0.00178934 -0.00101367 0.698172)
(0.00234624 -0.000465841 0.560797)
(-0.00283379 -0.00044939 0.544751)
(-0.00221697 0.000228273 0.633737)
(-0.000294614 0.00149193 0.705328)
(0.000118944 -0.000518759 0.728397)
(-0.00057248 -0.000188272 0.681952)
(9.15829e-05 -0.000868475 0.593355)
(0.00129392 -9.92563e-05 0.496998)
(-0.00281385 0.000196786 0.462565)
(-0.00246911 -0.000207494 0.522258)
(-0.00132731 0.000161237 0.56351)
(-0.000488361 -0.000510741 0.57357)
(6.3047e-05 -0.000442115 0.546277)
(0.000922146 -0.000471344 0.4921)
(0.00187879 0.000147718 0.423934)
(-0.0022151 -0.000612152 0.542718)
(-0.00202453 0.000769778 0.632294)
(-0.00188749 -0.000864374 0.705214)
(-0.00200788 -0.000602626 0.727064)
(-0.00211813 -0.000707481 0.678905)
(-0.00108651 -0.000795651 0.588397)
(0.00114916 -0.00226672 0.492971)
(-0.00235927 -0.000362136 0.619052)
(-0.00398878 -0.000629823 0.744879)
(-0.00267454 -0.00110858 0.862488)
(-0.00118825 0.000954833 0.92906)
(-0.00151836 0.000593949 0.845323)
(-0.000451603 -0.000304774 0.694258)
(0.000958255 -0.00193635 0.555198)
(-0.00389304 -0.000822176 0.669213)
(-0.00497774 -0.0015781 0.814162)
(-0.00138367 -0.00155204 0.989668)
(0.00173526 -0.00126373 1.0912)
(0.000196248 -0.000411034 0.970828)
(0.000611296 -0.000699638 0.76853)
(0.00122239 -0.00134982 0.595181)
(-0.00381825 -0.00114766 0.669976)
(-0.00492541 -0.000423972 0.818819)
(-0.00381968 0.000200938 1.00625)
(0.000582348 -0.00140253 1.08581)
(0.00168249 -0.00136162 0.973237)
(0.000772627 -0.00116421 0.769365)
(0.0011576 -0.000807751 0.595384)
(-0.00137271 -0.00149417 0.621028)
(-0.00353441 -0.000643679 0.747906)
(-0.00334355 2.73471e-05 0.866549)
(-0.00158257 -0.000830037 0.927309)
(-0.00123373 -0.00203795 0.849434)
(-0.000652359 -0.00174251 0.697294)
(0.00053913 -0.000377717 0.555123)
(-0.00117823 -0.00167578 0.54149)
(-0.00110387 -0.00326396 0.635058)
(-0.00168367 -0.00105235 0.70746)
(-0.00190654 -0.000720764 0.729084)
(-0.00221463 -0.00170249 0.682924)
(-0.00165969 -0.00212302 0.590024)
(0.000604082 -0.000122626 0.490829)
(-0.00226379 -0.000106399 0.457963)
(-0.00217137 -0.00179951 0.517265)
(-0.00192738 -0.00191855 0.558884)
(-0.00128892 -0.00169697 0.568591)
(-0.000499139 -0.00137508 0.540496)
(0.000494416 -0.000728668 0.485729)
(0.00193831 0.000502046 0.41844)
(-0.00358305 -0.00231525 0.534932)
(-0.00283326 0.000604804 0.628251)
(-0.003536 0.000660066 0.708104)
(-0.00352794 -0.000983003 0.727582)
(-0.00211116 -0.00214949 0.674323)
(0.000469419 -0.00304449 0.577471)
(0.00370947 -0.00417777 0.483481)
(-0.00267875 -0.00100347 0.615287)
(-0.00294277 0.00263231 0.767504)
(-0.00644628 0.00122974 0.87329)
(-0.00667937 0.000245719 0.928619)
(-0.00346181 -0.000738174 0.847565)
(-0.000309804 -0.00127583 0.691484)
(0.00374196 -0.00315474 0.544149)
(-0.0025837 -0.00101755 0.672885)
(-0.00640445 4.53628e-05 0.828573)
(-0.00983267 -0.000853092 0.984666)
(-0.00719286 -0.000562542 1.0714)
(-0.00217199 -0.000491195 0.981156)
(0.000784595 -0.00073307 0.775586)
(0.0040152 -0.00181534 0.584554)
(-0.00258198 -0.00121487 0.674339)
(-0.00672266 -0.00248332 0.829152)
(-0.0107638 -0.0017292 0.998544)
(-0.0075939 0.0006593 1.07342)
(-0.00215088 6.08835e-05 0.984298)
(0.000824862 -0.000749318 0.777555)
(0.00385625 -0.000519772 0.585466)
(-0.00200981 -0.00115676 0.617782)
(-0.00257967 -0.00427188 0.778135)
(-0.00618828 -0.00207765 0.880777)
(-0.00665001 -0.000844504 0.926138)
(-0.00416178 -0.00108325 0.856268)
(-0.000780548 -0.00119217 0.699181)
(0.00350409 0.000569295 0.544095)
(-0.00331695 8.66534e-05 0.532956)
(-0.00217572 -0.00339176 0.633477)
(-0.00327674 -0.00296959 0.719644)
(-0.00354216 -0.00129825 0.737831)
(-0.00233262 -0.000893315 0.683978)
(0.000309581 -9.87526e-05 0.579592)
(0.00375398 0.00169282 0.480501)
(-0.00405607 0.00267872 0.449852)
(-0.00340711 0.00134725 0.507291)
(-0.0027784 0.00119187 0.5486)
(-0.00155712 0.0016287 0.557849)
(0.000281153 0.00226875 0.529263)
(0.00236475 0.00256066 0.475221)
(0.0044163 0.0029842 0.410626)
(-0.0101687 -0.0090909 0.52439)
(-0.00791306 -0.00929489 0.612771)
(-0.00585569 -0.00961042 0.690023)
(-0.00276479 -0.0107665 0.708455)
(0.0021207 -0.0116553 0.6544)
(0.00708087 -0.0108503 0.561862)
(0.0104507 -0.00934012 0.473815)
(-0.0119125 -0.00603922 0.601329)
(-0.0090458 -0.00368534 0.760115)
(-0.00957706 -0.00481643 0.89697)
(-0.00694617 -0.00654402 0.922853)
(0.000708864 -0.00806419 0.837729)
(0.0080424 -0.00759287 0.669404)
(0.012869 -0.00704171 0.5304)
(-0.012063 -0.0030079 0.659023)
(-0.0125816 -0.00162138 0.86741)
(-0.0140255 -0.00239829 1.01449)
(-0.0104293 -0.00294115 1.05157)
(-0.000932491 -0.0034178 0.957041)
(0.00876201 -0.00352019 0.752886)
(0.0142576 -0.00350944 0.568377)
(-0.0120228 -0.000167324 0.660852)
(-0.012936 -0.0024047 0.869942)
(-0.0137806 -0.00191872 1.01218)
(-0.0103349 0.000699389 1.05279)
(-0.00116047 0.00098349 0.961683)
(0.00859072 0.000515803 0.758286)
(0.0140646 0.000356379 0.568764)
(-0.0120994 0.00321794 0.602403)
(-0.00911763 0.000384689 0.770093)
(-0.00876571 0.00191798 0.906216)
(-0.00664146 0.00416263 0.931801)
(0.000291511 0.00490832 0.850769)
(0.00802027 0.00412322 0.676022)
(0.0130449 0.00383757 0.529375)
(-0.0108167 0.00679823 0.520606)
(-0.00813508 0.00641162 0.615417)
(-0.00573151 0.00663214 0.698967)
(-0.00249758 0.00782073 0.718652)
(0.00248996 0.00822658 0.662118)
(0.00770164 0.00753554 0.562171)
(0.011083 0.00646845 0.469352)
(-0.00881117 0.00926117 0.441908)
(-0.00695728 0.0106292 0.495751)
(-0.00417624 0.0118265 0.534461)
(-0.000531859 0.0120846 0.542882)
(0.00357165 0.0117206 0.515312)
(0.00712803 0.00984305 0.464188)
(0.00937645 0.00791761 0.403874)
(-0.0159468 -0.0153092 0.515145)
(-0.0125934 -0.019068 0.594331)
(-0.00736061 -0.0211157 0.664034)
(-0.000599303 -0.0212154 0.679204)
(0.00718976 -0.0208472 0.627485)
(0.0132958 -0.0174469 0.544891)
(0.0158417 -0.0134535 0.46709)
(-0.0207743 -0.0114689 0.583796)
(-0.0161555 -0.0136723 0.731961)
(-0.0105681 -0.0150464 0.858441)
(-0.0040262 -0.0156081 0.881744)
(0.0075972 -0.0164018 0.793023)
(0.0173554 -0.0137313 0.637256)
(0.0205018 -0.0104516 0.517136)
(-0.0231807 -0.0054429 0.635884)
(-0.0190015 -0.00623519 0.841916)
(-0.0130701 -0.00616677 0.984475)
(-0.00777287 -0.00692854 1.0082)
(0.00571856 -0.00764836 0.907893)
(0.0193564 -0.00679053 0.710322)
(0.0232132 -0.00512432 0.550259)
(-0.0229854 0.0017267 0.637077)
(-0.0191393 0.00138171 0.839066)
(-0.0134199 0.000974421 0.98419)
(-0.00818038 0.00192899 1.00931)
(0.00482514 0.00246409 0.915047)
(0.0190469 0.0019243 0.716361)
(0.0230623 0.0011516 0.55064)
(-0.0211217 0.00822949 0.582042)
(-0.0167956 0.00977452 0.737753)
(-0.0106655 0.0107624 0.864237)
(-0.00387034 0.011743 0.889613)
(0.00802133 0.0127039 0.804694)
(0.0177022 0.00958036 0.642673)
(0.0208349 0.00669454 0.514616)
(-0.0168896 0.012651 0.508663)
(-0.0133442 0.0159465 0.591896)
(-0.0076795 0.0178452 0.66954)
(-0.000421894 0.018067 0.687458)
(0.00785505 0.0173273 0.631673)
(0.0142553 0.0139123 0.541772)
(0.0166871 0.0101886 0.460595)
(-0.0122729 0.0142724 0.436971)
(-0.0096329 0.017977 0.486063)
(-0.00497035 0.0204483 0.520524)
(0.000835215 0.0205212 0.527532)
(0.00667018 0.0189582 0.502034)
(0.0109746 0.0151568 0.455651)
(0.0129086 0.0113579 0.400523)
(-0.0169882 -0.0168684 0.508401)
(-0.0134121 -0.0220394 0.574644)
(-0.00663245 -0.0246762 0.631346)
(0.00173193 -0.02399 0.641795)
(0.00950413 -0.0222098 0.599005)
(0.0146551 -0.0182982 0.532149)
(0.016232 -0.0137281 0.463983)
(-0.0230671 -0.0131219 0.565757)
(-0.0178077 -0.0171268 0.686769)
(-0.00916201 -0.01894 0.817754)
(3.6685e-05 -0.0183581 0.835132)
(0.0115575 -0.0177524 0.733328)
(0.0197727 -0.0150186 0.606069)
(0.021361 -0.0110388 0.508262)
(-0.0262414 -0.00621638 0.607899)
(-0.0190584 -0.00802395 0.789318)
(-0.00833802 -0.00761937 0.937261)
(-0.00173805 -0.00824518 0.949461)
(0.0118764 -0.0086036 0.820119)
(0.0229318 -0.00792538 0.662605)
(0.0246053 -0.00564491 0.535998)
(-0.0259501 0.00233294 0.607481)
(-0.0192425 0.00302787 0.792575)
(-0.00926303 0.00289759 0.936313)
(-0.00207067 0.00182288 0.947319)
(0.0115049 0.00236132 0.816608)
(0.0226544 0.00195336 0.665926)
(0.0245231 0.00110121 0.535211)
(-0.0231966 0.00954309 0.56167)
(-0.0178572 0.0128223 0.690082)
(-0.00992561 0.014521 0.814342)
(-0.000736205 0.0133338 0.836098)
(0.0121473 0.013372 0.743742)
(0.0203621 0.0103615 0.607338)
(0.0218717 0.00698371 0.503725)
(-0.017644 0.0137502 0.499694)
(-0.0141676 0.0183888 0.568074)
(-0.00719105 0.0203442 0.632434)
(0.00167489 0.0194276 0.647792)
(0.0100238 0.018141 0.598203)
(0.0155249 0.0145256 0.525572)
(0.0169418 0.0103133 0.455307)
(-0.0121612 0.01465 0.434702)
(-0.00955148 0.0189264 0.478996)
(-0.00437759 0.0218186 0.509134)
(0.00197806 0.0215604 0.514594)
(0.00770557 0.0191597 0.49192)
(0.0114097 0.0149984 0.45038)
(0.0128016 0.0111228 0.399784)
(-0.0154518 -0.0156531 0.505696)
(-0.013237 -0.0215959 0.561763)
(-0.00626568 -0.0260706 0.607851)
(0.00348976 -0.0253672 0.615836)
(0.0104784 -0.0214586 0.581552)
(0.0135679 -0.0166542 0.525978)
(0.0140524 -0.0119368 0.46371)
(-0.0221649 -0.012917 0.554831)
(-0.0201449 -0.0186928 0.646438)
(-0.0104235 -0.0253122 0.761597)
(0.00707643 -0.0254641 0.791936)
(0.0166782 -0.0182845 0.691285)
(0.0192969 -0.0142909 0.587943)
(0.0186858 -0.010061 0.503838)
(-0.0262038 -0.00649615 0.588518)
(-0.0246914 -0.00969635 0.725139)
(-0.0108855 -0.0124319 0.901329)
(0.0114593 -0.0117384 0.931555)
(0.0230483 -0.00917981 0.772399)
(0.0234162 -0.00791165 0.635081)
(0.0219149 -0.0054896 0.527832)
(-0.0260859 0.00198458 0.58717)
(-0.0243013 0.00353608 0.727596)
(-0.00946887 0.00525704 0.890621)
(0.0113868 0.00473521 0.902613)
(0.022693 0.00231779 0.769761)
(0.0232572 0.00137365 0.635755)
(0.0219869 0.000619731 0.526239)
(-0.0224255 0.00885872 0.549373)
(-0.0207154 0.0132173 0.646393)
(-0.0106837 0.0191891 0.781022)
(0.00731468 0.0168293 0.788632)
(0.0180041 0.0119052 0.699197)
(0.0202576 0.00890182 0.585895)
(0.019266 0.0058962 0.497865)
(-0.0156468 0.0122407 0.494886)
(-0.0138806 0.0177164 0.552344)
(-0.00664546 0.0219171 0.602742)
(0.0038242 0.0204352 0.615113)
(0.0111587 0.0169101 0.575916)
(0.0142123 0.0125462 0.516258)
(0.0143379 0.00856617 0.452949)
(-0.0100319 0.0123392 0.434641)
(-0.00830902 0.0163461 0.474997)
(-0.00364506 0.0198287 0.501772)
(0.00261411 0.0195055 0.506293)
(0.00753399 0.0163013 0.48587)
(0.0100041 0.0122302 0.447937)
(0.010686 0.00891118 0.400608)
(-0.0102103 -0.0104722 0.507783)
(-0.00993494 -0.0155014 0.558457)
(-0.00536556 -0.0196136 0.594527)
(0.00202965 -0.019513 0.602039)
(0.00741724 -0.0166333 0.575471)
(0.00916099 -0.011819 0.52544)
(0.00908766 -0.00766943 0.465918)
(-0.0154476 -0.0090396 0.552852)
(-0.0171929 -0.0143793 0.623949)
(-0.0113598 -0.0205259 0.69875)
(0.00594646 -0.0205731 0.72685)
(0.0144557 -0.0150619 0.664939)
(0.0138756 -0.0107358 0.579741)
(0.0120729 -0.0068839 0.503554)
(-0.0178992 -0.00489951 0.581088)
(-0.0219699 -0.00818556 0.68122)
(-0.0107665 -0.0103341 0.751979)
(0.0100469 -0.00952684 0.762557)
(0.0215455 -0.00863126 0.73704)
(0.0157165 -0.00651182 0.61893)
(0.0138903 -0.00416357 0.52485)
(-0.0174245 0.000587394 0.57892)
(-0.0218827 0.0021635 0.683476)
(-0.0105115 0.00315357 0.756909)
(0.0113658 0.00252689 0.793367)
(0.0232639 0.00171598 0.73893)
(0.0158995 2.29621e-05 0.617895)
(0.0139359 -0.000256692 0.522676)
(-0.0145547 0.00504131 0.545729)
(-0.0166756 0.00862286 0.616775)
(-0.00971321 0.0126673 0.67942)
(0.00589645 0.0116952 0.715118)
(0.0146288 0.00809605 0.663086)
(0.01351 0.00528873 0.574498)
(0.0116707 0.00312152 0.495999)
(-0.00925627 0.00682486 0.495235)
(-0.00955331 0.011152 0.546062)
(-0.00517916 0.0155188 0.583158)
(0.00227783 0.0149991 0.591814)
(0.00744671 0.0114355 0.564404)
(0.0087052 0.00722764 0.512888)
(0.00828937 0.00449786 0.453272)
(-0.00521393 0.00666592 0.436759)
(-0.00476722 0.0090042 0.474972)
(-0.00226351 0.0113855 0.499038)
(0.00167059 0.0114589 0.502835)
(0.0047892 0.00923891 0.48412)
(0.00608523 0.00636955 0.448285)
(0.00623236 0.00439983 0.402546)
(-0.000509655 -0.00101217 0.511418)
(-0.00201351 -0.00323066 0.56207)
(-0.00212694 -0.00426346 0.593901)
(-0.00114118 -0.00466279 0.599189)
(7.53825e-05 -0.00471236 0.575974)
(0.000414677 -0.00204278 0.528117)
(0.000625135 -0.000518346 0.468246)
(-0.00219649 -0.00122774 0.55713)
(-0.00481023 -0.00402623 0.623845)
(-0.00480892 -0.00400954 0.670369)
(-0.00180516 -0.0039406 0.683317)
(0.00138188 -0.00588233 0.650361)
(0.0014648 -0.00336354 0.579566)
(0.00027995 -0.00141106 0.505096)
(-0.00157825 -0.00119527 0.583021)
(-0.00351759 -0.00355759 0.674053)
(-0.00432491 -0.00338822 0.715129)
(-0.00137609 -0.00363634 0.745288)
(0.00183676 -0.00611053 0.731662)
(0.000587799 -0.0029441 0.613843)
(0.000108281 -0.00144409 0.525176)
(-0.000358474 -0.00159357 0.580125)
(-0.00213722 -0.00189401 0.680342)
(-0.00372623 -0.000170243 0.72286)
(-0.000833746 -0.0016999 0.744334)
(0.00101545 -0.00347933 0.737563)
(-0.00196963 -0.00218956 0.611276)
(-0.000984818 -0.0014209 0.522281)
(0.000449704 -0.00200111 0.549157)
(-0.00227153 -0.000858196 0.616896)
(-0.00406849 0.00105022 0.662148)
(-0.00202052 -0.000678436 0.672684)
(-0.000521882 -0.00191757 0.649612)
(-0.00126506 -0.00231651 0.572756)
(-0.00138517 -0.00173639 0.49614)
(0.00150611 -0.00240439 0.497896)
(-0.000579297 -0.00210677 0.548605)
(-0.00152504 -0.00200423 0.583761)
(-0.00109926 -0.00145066 0.590022)
(-0.000736004 -0.00167133 0.563679)
(-0.00104576 -0.00280262 0.513148)
(-0.00114344 -0.00214683 0.453929)
(0.00201849 -0.00190216 0.438087)
(0.000989002 -0.00302043 0.476469)
(0.00033614 -0.00328593 0.500108)
(0.000122375 -0.00308561 0.503299)
(0.000148206 -0.00286025 0.484623)
(2.71881e-06 -0.00301364 0.448996)
(-0.000202924 -0.00228449 0.403274)
(0.00933875 0.00764734 0.514107)
(0.00677079 0.00928043 0.574337)
(0.0021797 0.00914434 0.60696)
(-0.00240813 0.0090466 0.612396)
(-0.00610534 0.00857255 0.588681)
(-0.00825254 0.0087116 0.532748)
(-0.00745259 0.00656399 0.468144)
(0.0112385 0.00528997 0.567936)
(0.00616094 0.00379068 0.634221)
(0.000661658 0.00435175 0.687616)
(-0.00439558 0.00516792 0.696254)
(-0.00845701 0.00250628 0.661349)
(-0.0110076 0.00415471 0.589015)
(-0.0113726 0.00383629 0.506203)
(0.0115328 0.00148043 0.598114)
(0.00921182 -0.000869914 0.684251)
(0.00165915 -0.00112087 0.751574)
(-0.00585031 -0.000990423 0.750155)
(-0.0116351 -0.0039073 0.728659)
(-0.0124907 9.63107e-05 0.61818)
(-0.0125026 0.000823646 0.526221)
(0.0117267 -0.00263193 0.596232)
(0.00972667 -0.00294855 0.682649)
(0.00308402 -0.00286854 0.742374)
(-0.00378864 -0.00395342 0.758174)
(-0.0136896 -0.006795 0.743433)
(-0.0154952 -0.00416742 0.614217)
(-0.0136844 -0.00263121 0.522634)
(0.0131029 -0.00674428 0.560238)
(0.00965455 -0.00737377 0.635773)
(0.00303991 -0.00890857 0.701774)
(-0.00482115 -0.00919685 0.69874)
(-0.0114079 -0.00970632 0.660614)
(-0.0127117 -0.00904279 0.577884)
(-0.0121969 -0.00596809 0.495939)
(0.0114403 -0.00946602 0.500549)
(0.00861495 -0.0141558 0.561023)
(0.0035162 -0.0174403 0.594119)
(-0.00232511 -0.0168944 0.599157)
(-0.00697625 -0.0135964 0.569962)
(-0.00924754 -0.0118865 0.515413)
(-0.00899122 -0.00776779 0.452692)
(0.00841376 -0.00854597 0.435935)
(0.00643742 -0.0132131 0.476383)
(0.00331536 -0.015599 0.5012)
(-0.000371141 -0.0156385 0.504258)
(-0.00322467 -0.0136025 0.484614)
(-0.00483232 -0.0111697 0.447628)
(-0.00528917 -0.00769971 0.400739)
(0.0135632 0.0108494 0.512645)
(0.0127159 0.0157255 0.589257)
(0.00713787 0.0182508 0.642888)
(-0.00148788 0.0193803 0.642577)
(-0.00863913 0.0172881 0.613255)
(-0.0109193 0.0145463 0.53729)
(-0.0095718 0.00964932 0.464088)
(0.0178897 0.00756193 0.578654)
(0.0151126 0.00857689 0.696821)
(0.00534148 0.0086909 0.725806)
(-0.00444438 0.0104553 0.734227)
(-0.0135767 0.0102012 0.711005)
(-0.0180544 0.0110336 0.614456)
(-0.0150636 0.00661005 0.505258)
(0.0183127 0.00223836 0.620347)
(0.0156043 0.00140294 0.714027)
(0.00735823 0.000515885 0.781022)
(-0.00467001 -0.00205893 0.811072)
(-0.0155947 -0.000678635 0.764706)
(-0.017962 0.00281336 0.640073)
(-0.0168854 0.00208479 0.528211)
(0.0188521 -0.00277083 0.617752)
(0.0161913 -0.00366617 0.707066)
(0.00783538 -0.00548688 0.766769)
(-0.00155593 -0.00994086 0.797021)
(-0.0140675 -0.0101733 0.776311)
(-0.0186429 -0.00594811 0.63407)
(-0.0172129 -0.00313119 0.524402)
(0.0173086 -0.00744728 0.571787)
(0.0161945 -0.0122854 0.690878)
(0.0116685 -0.0177668 0.756134)
(0.000402924 -0.0170278 0.774037)
(-0.0105295 -0.0138528 0.693243)
(-0.0155932 -0.0130955 0.598176)
(-0.0144747 -0.00721943 0.495137)
(0.0151006 -0.010272 0.49982)
(0.0144519 -0.0184092 0.575585)
(0.00767633 -0.0226692 0.614234)
(-0.00140528 -0.0215729 0.622264)
(-0.00850421 -0.0181841 0.588773)
(-0.0111653 -0.0149564 0.519478)
(-0.0103865 -0.00894484 0.448906)
(0.0104791 -0.00915998 0.429561)
(0.00886244 -0.0148285 0.472133)
(0.00512274 -0.0184254 0.499742)
(0.000188536 -0.0184825 0.503567)
(-0.00356793 -0.0159836 0.482425)
(-0.00553669 -0.0127708 0.443345)
(-0.00593465 -0.00840017 0.395081)
(0.00903261 0.00703 0.505892)
(0.00988307 0.0112373 0.589756)
(0.00670717 0.0147208 0.657606)
(0.000259576 0.0164177 0.685296)
(-0.00392287 0.0122323 0.618254)
(-0.00426712 0.00936827 0.534596)
(-0.00294069 0.00590376 0.457392)
(0.0114751 0.00597853 0.578736)
(0.01514 0.0125084 0.71616)
(0.0083413 0.0138716 0.808003)
(-0.00305605 0.0131875 0.809238)
(-0.0100234 0.0115788 0.75575)
(-0.00963416 0.00960868 0.620899)
(-0.0056339 0.00477791 0.501012)
(0.0136193 0.00300121 0.626456)
(0.0119475 0.0050613 0.741543)
(0.00465641 0.00460935 0.826944)
(-0.00580152 0.00455365 0.877359)
(-0.0127773 0.00269033 0.826262)
(-0.0109062 0.00406522 0.674432)
(-0.00735476 0.00212716 0.527008)
(0.0141054 -0.000833036 0.62515)
(0.0138824 -0.00384767 0.740533)
(0.00840707 -0.00932656 0.845801)
(-0.000674604 -0.00813103 0.838777)
(-0.0100365 -0.00665594 0.824703)
(-0.011021 -0.00450346 0.668645)
(-0.00754351 -0.00142274 0.5238)
(0.011062 -0.00370335 0.571324)
(0.0140648 -0.011715 0.707564)
(0.0106851 -0.021596 0.797786)
(0.00219011 -0.0172905 0.809829)
(-0.00419586 -0.00924694 0.741536)
(-0.00752433 -0.00895252 0.608867)
(-0.00547355 -0.00367961 0.491547)
(0.00980148 -0.00434875 0.493476)
(0.011643 -0.0105501 0.574537)
(0.00732077 -0.0149517 0.632671)
(-0.000466726 -0.0137732 0.641918)
(-0.00432223 -0.0100935 0.595738)
(-0.00469838 -0.00798591 0.517323)
(-0.00363842 -0.00407593 0.44315)
(0.00681732 -0.00316615 0.421543)
(0.00650213 -0.00642476 0.465207)
(0.0043331 -0.00880151 0.494255)
(0.00121446 -0.0086592 0.498555)
(-0.00064048 -0.00693751 0.476742)
(-0.00129854 -0.00566985 0.436922)
(-0.00140158 -0.0033953 0.389221)
(0.00220357 0.000772332 0.141163)
(0.00150863 0.0020061 0.0984722)
(0.00861916 -0.00376104 0.335294)
(0.00627292 -0.0026534 0.271192)
(0.00443428 -0.00169761 0.217233)
(0.00292042 -0.000822633 0.172279)
(0.00169154 3.00251e-05 0.133216)
(0.000742461 0.000993465 0.0889217)
(0.0162934 -0.00288554 0.49585)
(0.0119984 -0.00242675 0.40781)
(0.00878766 -0.00208007 0.331322)
(0.0063533 -0.00178922 0.265862)
(0.00440272 -0.00156499 0.210946)
(0.00280329 -0.00134839 0.165354)
(0.00149699 -0.00106063 0.125914)
(0.000455922 -0.00052927 0.0815262)
(0.0146209 0.000871073 0.469154)
(0.0107575 8.30954e-05 0.386237)
(0.00797241 -0.00048253 0.314148)
(0.00587474 -0.00102145 0.252455)
(0.00421282 -0.00152382 0.200622)
(0.002864 -0.00193562 0.15739)
(0.00175458 -0.00218032 0.119672)
(0.000819253 -0.00206481 0.0768143)
(0.0112468 0.0030358 0.422866)
(0.00847041 0.00152454 0.350968)
(0.00659578 0.000329712 0.288207)
(0.00519158 -0.000746445 0.234198)
(0.00410458 -0.00170254 0.188461)
(0.00323727 -0.00251217 0.149816)
(0.00252436 -0.00312283 0.115414)
(0.00185926 -0.00335671 0.0753979)
(0.00844376 0.00354809 0.367472)
(0.00688028 0.00200092 0.311037)
(0.00577487 0.000639028 0.260138)
(0.00498839 -0.000606645 0.215483)
(0.00441803 -0.00172909 0.177032)
(0.00400634 -0.0026974 0.143865)
(0.0036933 -0.00347865 0.113486)
(0.00333433 -0.00394299 0.0769901)
(0.0047547 -0.00538685 0.430772)
(0.00421883 -0.00411559 0.36991)
(0.00376618 -0.0029557 0.314434)
(0.00338464 -0.00178211 0.265688)
(0.00304843 -0.000574506 0.223804)
(0.00279384 0.000659463 0.187775)
(0.00270559 0.00192146 0.154688)
(0.00278092 0.00311197 0.114287)
(0.00565177 -0.00555644 0.47454)
(0.00471838 -0.00410163 0.398084)
(0.00406306 -0.00294536 0.330952)
(0.00346157 -0.00186727 0.273107)
(0.00286581 -0.00080735 0.22417)
(0.00229038 0.000250597 0.182912)
(0.00180385 0.00128868 0.146202)
(0.00147061 0.0023043 0.103138)
(0.00685568 -0.00481789 0.499856)
(0.00547775 -0.00360116 0.4143)
(0.00448077 -0.00262972 0.339553)
(0.003613 -0.00178425 0.275643)
(0.00277241 -0.00101061 0.222042)
(0.00194885 -0.00025812 0.177378)
(0.00120537 0.000510659 0.138352)
(0.000663517 0.00138049 0.0936832)
(0.00728425 -0.00315617 0.499463)
(0.00571556 -0.00251267 0.411756)
(0.0045786 -0.00200085 0.335329)
(0.00359771 -0.00161697 0.270138)
(0.00267115 -0.00131323 0.215604)
(0.00177647 -0.0010136 0.170296)
(0.000950577 -0.000642287 0.130881)
(0.000302494 -3.18935e-05 0.0861235)
(0.00658186 -0.00139317 0.472396)
(0.00524002 -0.00135458 0.389801)
(0.00427642 -0.00137059 0.317873)
(0.00343785 -0.00149167 0.25648)
(0.00265009 -0.00166461 0.204981)