/*--------------------------------*- C++ -*----------------------------------*\
| =========                 |                                                 |
| \\      /  F ield         | OpenFOAM: The Open Source CFD Toolbox           |
|  \\    /   O peration     | Version:  plus.master.MPPICInterFoam            |
|   \\  /    A nd           | Web:      www.OpenFOAM.com                      |
|    \\/     M anipulation  |                                                 |
\*---------------------------------------------------------------------------*/
FoamFile
{
    version     2.0;
    format      ascii;
    class       Cloud<basicKinematicMPPICParcel>;
    location    "6/lagrangian/kinematicCloud";
    object      positions;
}
// * * * * * * * * * * * * * * * * * * * * * * * * * * * * * * * * * * * * * //

93576
(
(-0.0024386 -0.0157615 0.000265981) 821
(0.0239259 -0.0269702 0.000255426) 860
(0.00213548 0.078026 0.000277677) 2376
(0.00494509 -0.0464214 0.000305085) 2090
(0.028814 -0.0597959 0.000275416) 2110
(-0.0239268 -0.0467662 0.000290611) 2075
(0.0207864 -0.0464984 0.000280366) 2107
(-0.00133388 0.0188585 0.000254677) 1110
(0.0223648 0.0406435 0.000267085) 2354
(-0.00171067 0.0696082 0.000251853) 2374
(0.0300671 0.0526236 0.000281482) 2357
(0.0404802 0.0162871 0.000286717) 1546
(-0.0182616 -0.00438023 0.000272128) 558
(0.0296264 0.0179965 0.000280616) 292
(0.0592188 -0.00297493 0.000265478) 1532
(-0.00827187 0.0395889 0.000264612) 2377
(0.00178166 -0.0157776 0.000266016) 829
(-0.045667 0.0231769 0.000292175) 1795
(0.0349769 0.0179052 0.000273387) 1545
(0.0201628 0.064552 0.000289182) 2366
(-0.0235828 0.0234554 0.000296515) 531
(-0.00369623 -0.0945948 0.000281032) 3212
(-0.0439481 -0.0243147 0.000226037) 1827
(-0.0403141 -0.0236923 0.000291562) 1826
(0.024508 -0.024747 0.000280218) 860
(-0.0106006 -0.0588909 0.000246715) 2085
(-0.0229314 0.0230711 0.000326675) 1139
(0.000986354 0.101041 0.000261567) 3494
(-0.042029 -0.0251161 0.00028991) 1827
(0.0349468 -0.0235904 0.00029826) 1505
(-0.0228593 0.0240682 0.000246736) 1139
(0.0372537 -0.0161297 0.000295223) 1513
(-0.0359109 0.0172861 0.000277612) 1793
(-0.0211111 0.0210181 0.000321701) 530
(0.00828919 0.036814 0.00027564) 1472
(0.04138 0.0163944 0.000269413) 1546
(-0.000972376 0.0606354 0.000265597) 2373
(-0.000201926 0.0704554 0.000293567) 2374
(-0.0344435 0.0266277 0.000291702) 1786
(-0.0793962 -0.000258947 0.00025744) 1816
(0.0178367 -0.0512908 0.000286129) 2099
(-0.0225011 -0.0415583 0.000281148) 2074
(0.0117125 0.022561 0.000284937) 1096
(-0.0440921 0.0217592 0.000266787) 1795
(-0.0206054 0.0391608 0.000297787) 2386
(0.0335397 -0.020851 0.000280498) 1513
(-0.00312082 -0.0930368 0.0310833) 3324
(-0.00768256 0.0174969 0.000303649) 1126
(-0.0195057 -0.0429357 0.000241571) 2074
(-0.0159091 0.0325463 0.000273571) 1475
(0.0427395 -0.0152013 0.000303174) 1514
(-0.0174407 0.0340729 0.000292205) 2385
(0.0213935 -0.0217202 0.000246994) 858
(-0.00339567 -0.0606187 0.000278358) 2093
(0.0338556 -0.0122556 0.000266421) 260
(0.0210214 0.041568 0.000243207) 2354
(0.0240098 0.0240348 0.000314013) 1091
(0.00161787 0.0157673 0.000250152) 1109
(-0.0196488 0.0435622 0.000273598) 2386
(0.0131458 0.0595098 0.000278568) 2365
(0.0465964 -0.0154668 0.000328041) 1523
(0.0385389 -0.0176358 0.000280962) 1513
(0.0394107 0.0130999 0.000269005) 1537
(-0.0223931 0.0398868 0.000275433) 2386
(0.0188999 -0.00177118 0.00065655) 270
(-0.0425697 -0.0259072 0.000293814) 1827
(0.00483772 0.100697 0.000290364) 3494
(0.0177107 0.0133216 0.000289183) 295
(-0.101058 -0.00019451 0.000276956) 2934
(0.0453577 -0.0163684 0.000265918) 1514
(0.0217755 -0.0218033 0.000289075) 858
(0.0238882 0.0241226 0.000298237) 1091
(0.0197296 0.0439899 0.000291029) 2354
(0.0203271 0.0388052 0.000240234) 2354
(0.0122338 0.0220143 0.000273592) 1096
(0.0256798 -0.0259302 0.000286387) 1441
(0.0603015 -0.00105556 0.000285991) 1533
(-0.0156954 -0.00339557 0.000296884) 557
(0.017567 0.0304946 0.000285704) 1100
(0.00270325 0.020336 0.000254584) 1103
(0.00730314 0.0358593 0.000243729) 1472
(-0.0149014 -0.0493764 0.000267411) 2083
(-0.0399628 0.020558 0.000279943) 1794
(0.0253086 0.0195173 0.000272249) 299
(-0.0258688 0.0254493 0.000285475) 1400
(0.0147284 0.028188 0.000282118) 1099
(0.0248356 -0.0161916 0.000273612) 250
(0.00572846 0.0753849 0.000281138) 2375
(-0.016647 0.00765457 0.000251779) 534
(-0.0326176 0.011768 0.000269117) 540
(-0.00430233 0.01922 0.000275146) 1119
(0.0172019 0.0178303 0.0002721) 1087
(0.0199335 -0.0508278 0.000263602) 2108
(-0.0422981 -0.0210365 0.000258456) 1826
(0.0270795 -0.0159023 0.000280619) 259
(-0.0268657 -0.0271332 0.00031017) 1435
(0.0344707 0.0163187 0.000281535) 1370
(-0.0805555 0.00485277 0.000257758) 1816
(-0.0117243 0.0508661 0.000260912) 2379
(0.015756 -0.00181519 0.000265197) 269
(-0.0923878 0.00240631 0.000280626) 2931
(0.0126896 0.0301184 0.000266551) 1099
(0.055704 0.00247077 0.000268242) 1532
(-0.0269228 0.00895989 0.000271447) 546
(0.0232312 -0.00735786 0.000279121) 264
(-0.03847 0.0205511 0.000327255) 1794
(-0.00115161 0.0729428 0.000274406) 2375
(-0.0206121 0.0391804 0.000281803) 2386
(0.0368495 -0.023556 0.00031937) 1506
(-0.0543214 0.0289146 0.00028303) 1797
(-0.0269675 0.0482119 0.000290714) 2388
(0.0353014 -0.0202695 0.000290377) 1513
(0.00282785 0.0252382 0.0852529) 8744
(-0.00196399 -0.0555723 0.00030074) 2092
(0.0364197 0.0153526 0.000281879) 1545
(0.0124994 0.0306063 0.000280273) 1099
(0.0212303 -0.0408426 0.000262822) 2106
(0.017841 0.0202494 0.000302376) 1088
(-0.048606 -0.0248841 0.000274824) 1828
(0.0257256 -0.00755832 0.000267983) 265
(0.0212075 -0.0402941 0.000260232) 2106
(0.0528762 0.00323055 0.000288899) 1531
(0.00480975 -0.0479604 0.000300823) 2090
(0.0233621 -0.0236102 0.000292801) 859
(-0.0234284 -0.0465988 0.000295849) 2075
(0.0264855 0.00974594 0.000311459) 289
(-0.0316498 0.0114091 0.000283639) 540
(0.0262466 0.0227853 0.00026134) 300
(0.00485383 -0.0925483 0.000305858) 3211
(0.0195758 0.0260203 0.000279471) 1091
(0.0515648 0.00143104 0.000256667) 1531
(0.0254305 -0.0256725 0.000291074) 860
(0.0119083 0.0307634 0.000283914) 1099
(0.022838 0.0431176 0.000279992) 2355
(0.0199228 0.0480845 0.000255508) 2355
(0.0266712 0.0158695 0.000273902) 290
(-0.00118746 0.101007 0.000268918) 3494
(0.0177477 0.0362186 0.000268302) 2353
(0.00741169 -0.0192262 0.000286612) 839
(-0.00049834 0.0722744 0.000270298) 2375
(-0.0214061 0.0436194 0.000259819) 2386
(-0.0263059 0.0263807 0.000335331) 1476
(0.0280351 0.00911511 0.000268819) 282
(-0.0409251 -0.0233909 0.000282423) 1826
(0.00238755 0.0188952 0.000299003) 1110
(0.0214801 -0.0217636 0.000259988) 858
(-0.0250965 -0.0252655 0.000281068) 812
(-0.0539435 0.0101524 0.000264524) 1804
(0.00320485 0.0260732 0.000302043) 1105
(-0.0426193 -0.0245789 0.000274008) 1827
(0.0263306 -0.0318439 0.00028996) 2113
(0.0144233 -0.0192452 0.000285256) 855
(0.021302 0.0214749 0.000236663) 1090
(0.0221345 -0.00343606 0.000309022) 264
(0.0233811 0.0416918 0.000259078) 2354
(0.024777 -0.0261298 0.000287958) 860
(-0.0267427 -0.0126294 0.000264294) 570
(0.0148621 -0.047511 0.000254102) 2099
(-0.0422511 -0.0241886 0.000247311) 1826
(0.0391521 -0.000412331 0.000267705) 1529
(-0.00576944 0.0155549 0.000269525) 1117
(-0.00106235 -0.0568664 0.000248006) 2092
(0.0177245 -0.0459424 0.000260923) 2107
(-0.0179737 0.0379341 0.000266244) 2385
(0.0165543 -0.0165485 0.000258372) 247
(0.0138907 0.014714 0.000256251) 1086
(-0.0938005 -0.0037224 0.000290401) 2932
(0.00195786 0.0157628 0.000271813) 1109
(0.00811254 -0.0584086 0.000248761) 2100
(0.0163764 0.00644826 0.000433397) 278
(0.0254208 -0.0256689 0.000280999) 860
(0.00107227 0.0157672 0.000267412) 1109
(-0.0502646 0.0214886 0.000257855) 1796
(0.042297 -0.0164916 0.000290913) 1514
(-0.0156724 0.00410438 0.00025733) 541
(-0.0145605 0.0354547 0.000276553) 2385
(-0.0191947 -0.0330313 0.000293072) 1436
(0.0157528 -0.00180743 0.0002721) 269
(-0.101062 -0.00113373 0.000275256) 2934
(-0.0272826 -0.0272072 0.000311481) 1833
(0.033948 -0.00855229 0.000261472) 268
(0.0146329 0.0134709 0.000277002) 293
(-0.043019 0.0206753 0.000245111) 1794
(-0.0423685 0.0203378 0.000275796) 1794
(-0.0414323 -0.0243718 0.000283809) 1826
(-0.000552061 -0.0966093 0.000253096) 3213
(0.0341964 0.0219145 0.000290479) 1553
(0.0202748 0.0216317 0.000239818) 1090
(0.00229816 -0.0663348 0.000278829) 2094
(-0.0291114 -0.0550609 0.000291582) 2077
(0.0242123 -0.0244516 0.000280883) 860
(0.0341429 0.0223125 0.000276827) 1553
(0.019873 0.0638617 0.000280168) 2366
(0.0128409 0.025541 0.000259196) 1098
(0.0304679 0.0586549 0.000287189) 2358
(-0.0264239 -0.0263217 0.000314781) 1406
(0.00308265 -0.0164599 0.000284867) 838
(-0.000552842 -0.101361 0.000270429) 3214
(0.0274073 0.0210128 0.000257234) 300
(0.0474077 -0.011799 0.000319103) 1523
(0.0214924 0.041599 0.000258796) 2354
(0.0374271 0.0145601 0.000306541) 1545
(0.00175903 -0.0990351 0.00208488) 3213
(0.0446874 -0.0104479 0.000244255) 1522
(-0.0227602 0.022604 0.000293069) 531
(-0.0194511 -0.0371296 0.000263276) 2073
(0.0262532 -0.0164517 0.000260079) 258
(0.0284077 -0.0178062 0.000285746) 259
(-0.000591885 0.076097 0.000282235) 2375
(-0.0255297 -0.0461548 0.000291198) 2075
(-0.0650089 -0.0164993 0.000308989) 1822
(0.0228148 -0.041651 0.000281248) 2106
(0.0223507 0.0225673 0.000289101) 1090
(0.045386 -0.0146313 0.000293659) 1522
(-0.0433192 -0.0251535 0.000274963) 1827
(0.0596421 0.00118294 0.000300886) 1533
(-0.0202685 0.0202731 0.000301916) 1137
(-0.0257295 -0.0257049 0.000266039) 1406
(-0.0591094 -0.0165713 0.000257779) 1821
(0.025643 -0.0259053 0.000283364) 1441
(-0.0939947 0.00182699 0.000278696) 2932
(0.0106446 0.0498576 0.000259507) 2363
(-0.0242159 -0.0243048 0.000294205) 812
(-0.010127 -0.0255121 0.000289818) 817
(0.0225212 -0.0247573 0.000278507) 859
(-0.0357774 0.018217 0.000279651) 1793
(0.0157542 -0.00179608 0.000290819) 269
(0.0050056 -0.0944722 0.000279454) 3212
(-0.0643986 -0.018069 0.000276839) 1822
(0.0173021 0.0205837 0.000287439) 1089
(-0.0239792 0.0239162 0.000276603) 531
(0.0279585 -0.00770033 0.000272786) 266
(0.0338697 -0.0246485 0.000327305) 1505
(-0.000846937 0.0919943 0.000277193) 3491
(0.00345446 0.0156948 0.000252233) 1101
(0.0157523 0.00100575 0.000226603) 269
(0.0192222 -0.0134949 0.000262463) 247
(0.0165969 -0.0359079 0.000291963) 2105
(-0.026006 0.0260817 0.000311059) 1476
(0.0213247 -0.0215876 0.000266926) 858
(0.0474574 -0.012496 0.00029061) 1523
(-0.00937415 0.024412 0.000264542) 1129
(0.0172616 0.047852 0.000263669) 2355
(-0.0208701 -0.0400053 0.000280326) 2074
(-0.0742847 0.0284165 0.000313561) 1800
(0.000316978 0.101643 0.000269303) 3494
(-0.0193826 0.0437055 0.000275107) 2386
(0.0341074 0.0215501 0.000298481) 1553
(-0.0239601 0.0424244 0.000263115) 2386
(-0.0249959 -0.0429156 0.000291697) 2075
(0.0352028 0.0180906 0.000281029) 1545
(0.0156222 0.00450753 0.000241295) 277
(-0.00755986 -0.067229 0.000285906) 2094
(-0.0125907 -0.0300821 0.000247135) 819
(-0.0182034 0.0371344 0.000293049) 2385
(0.00109119 -0.0959363 0.000277115) 3212
(-0.0358045 0.0182208 0.000272379) 1793
(-0.0178684 0.034443 0.000299032) 2385
(0.0273265 -0.0532818 0.000311445) 2109
(0.0228627 -0.023086 0.000298835) 859
(-0.0352809 0.017445 0.000295924) 1793
(-0.0272333 -0.0275415 0.000326752) 2065
(-0.0283875 0.012247 0.000291933) 538
(-0.0413559 -0.0243518 0.000276785) 1826
(0.0575032 -0.00137394 0.000264855) 1532
(0.0214908 -0.00572631 0.000266521) 264
(0.000183515 0.0737749 0.000265422) 2375
(-0.013466 -0.0150955 0.000312823) 806
(0.034644 0.0202212 0.000283982) 1545
(-0.0242738 0.0242529 0.000328147) 532
(-0.019126 0.0229606 0.000230079) 1138
(-0.0652923 -0.0347802 0.000297566) 1831
(0.051399 0.00110225 0.000258709) 1531
(0.0176481 0.017643 0.000244833) 295
(-0.0154726 -0.00702899 0.000276296) 565
(0.0200616 0.0350112 0.000285244) 2353
(0.0183382 -0.0338868 0.000283456) 2105
(-0.0690717 -0.0182742 0.000274856) 1823
(0.0290257 -0.00202499 0.000285059) 274
(-0.0463156 0.0207423 0.000254777) 1795
(0.0112744 -0.0542488 0.000277139) 2100
(0.0214319 0.0385967 0.000301239) 2354
(0.0340648 -0.0113187 0.000252526) 268
(0.0231621 0.0404787 0.000281385) 2354
(-0.0239039 0.0431004 0.000308458) 2387
(-0.00278545 0.0384462 0.000255928) 2369
(-0.0396413 0.0207221 0.000287759) 1794
(-0.00234303 0.0157471 0.000308697) 1117
(-0.031596 0.011722 0.000282218) 540
(0.0465384 0.0158477 0.000255504) 1539
(0.0215333 0.0217627 0.000254466) 1090
(0.0227583 0.0229501 0.000272717) 1091
(-0.0118556 0.0630598 0.000254824) 2381
(0.0172424 0.0312845 0.000295117) 1100
(-0.00161062 0.0769145 0.00027528) 2376
(-0.0139323 0.0626688 0.000264951) 2381
(0.0256112 -0.0302572 0.000283468) 2113
(-0.00417787 0.0195381 0.000296312) 1119
(0.0112864 -0.0299667 0.000266686) 851
(0.00983727 -0.0250768 0.000308322) 849
(-0.0531126 -0.0277079 0.000288087) 1829
(0.0188141 -0.00221825 0.000324383) 270
(-0.0244027 -0.0238044 0.000251822) 580
(0.00382531 0.0333177 0.000305093) 1108
(-0.017612 -0.0168318 0.00026347) 575
(-0.0410096 0.0207811 0.000282997) 1794
(-0.0467051 -0.02381 0.000242646) 1827
(-0.0234192 -0.0418568 0.000265516) 2074
(0.0235995 0.020667 0.000255438) 298
(0.0231662 -0.0233922 0.000274464) 859
(-0.0480186 -0.0260825 0.000272533) 1828
(-0.0201584 -0.0453778 0.000259129) 2075
(0.00706077 -0.0942918 0.000247907) 3212
(-0.0653306 0.00924101 0.000267903) 1806
(0.0226204 0.0401879 0.00026505) 2354
(-0.0175444 -0.0348678 0.000303082) 2073
(0.0299071 -0.000538977 0.000275519) 274
(0.0212064 0.0410958 0.000235291) 2354
(-0.0165705 0.0510354 0.000261567) 2379
(-0.0254043 -0.0253795 0.000287761) 580
(0.0185892 -0.0417561 0.000280097) 2106
(-0.0405294 0.0205663 0.000273123) 1794
(0.0266055 -0.0154144 0.000281621) 258
(-0.0234393 0.0235077 0.000314375) 1139
(-0.0361503 -0.0199235 0.000294495) 1825
(-0.0174425 0.018841 0.000284164) 1136
(0.0162178 -0.0119635 0.000235526) 246
(0.0183987 0.0303695 0.000281285) 1100
(-0.0965806 0.0063194 0.000270881) 2933
(-0.0299602 -0.0131393 0.000282989) 571
(0.00545889 0.0381289 0.00028197) 2361
(-0.046428 0.0220013 0.00026724) 1795
(0.00313971 -0.092615 0.000264527) 3211
(0.0392292 0.0157013 0.000258527) 1545
(-0.0490025 0.026496 0.000256059) 1796
(-0.0265266 -0.0267731 0.000290248) 1435
(0.0165335 -0.0165704 0.000301668) 855
(-0.0134298 -0.0158118 0.000300061) 806
(-0.0171456 0.0432803 0.000259491) 2386
(-0.0116006 0.0229727 0.000283644) 1129
(0.0212257 0.0395915 0.000274269) 2354
(-0.0014038 0.0470551 0.000244122) 2370
(-0.023671 -0.0945986 0.000296799) 3205
(0.0245932 -0.0456466 0.000279532) 2107
(0.00209638 -0.0167979 0.000289764) 830
(0.0192386 -0.00456748 0.000313162) 263
(-0.0179357 -0.00758797 0.000298185) 566
(-0.0419796 0.0206061 0.000250926) 1794
(-0.0269023 -0.0268264 0.000312234) 1406
(-0.0361689 -0.0197613 0.000269489) 1825
(0.0237073 -0.0159516 0.000285717) 249
(0.0341981 -0.0105864 0.000236032) 268
(0.0461134 0.0121554 0.000282156) 1538
(-0.023445 -0.0424225 0.000268789) 2074
(-0.00172018 -0.0992651 0.001286) 3213
(0.058762 0.00099278 0.000274481) 1532
(-0.0211568 0.0427178 0.000256775) 2386
(-0.0205 -0.0359815 0.000300002) 2073
(0.00200645 -0.0915604 0.000288366) 3211
(0.0447736 0.000475574 0.000236469) 1530
(0.0278982 -0.00692658 0.000303429) 266
(0.000565167 -0.0604867 0.000277052) 2093
(0.0240094 0.0080121 0.000286686) 281
(-0.0141219 0.0342352 0.000280645) 1475
(0.0516426 -0.000814133 0.000316137) 1531
(0.0044983 -0.0910123 0.000321441) 3211
(-0.0266974 0.0267462 0.000318016) 1476
(-0.0667669 0.0042598 0.000283029) 1814
(-0.0232047 -0.0425333 0.000279961) 2074
(-0.0824704 -0.00135445 0.000297751) 2929
(-0.0232491 0.0395878 0.000275475) 2386
(0.0277471 0.00954256 0.000271454) 282
(-0.0659982 0.00841769 0.000285013) 1806
(0.0348634 -0.0237507 0.000277523) 1505
(-0.0733726 0.000568207 0.000270573) 1815
(-0.0198191 -0.0465062 0.000255718) 2075
(0.0186104 0.0395753 0.000249393) 2354
(-0.0335486 0.0134758 0.000300909) 1401
(0.0225244 0.0227528 0.000287369) 1091
(0.035606 0.0123716 0.000309465) 1369
(0.0145781 -0.0529859 0.00026229) 2100
(0.0198521 -0.0460763 0.000285077) 2107
(-0.0243481 0.0291751 0.000259812) 1476
(-0.0163108 0.0575847 0.00029037) 2381
(0.0263495 0.0219742 0.000286309) 300
(-0.0186313 -0.0358172 0.000282408) 2073
(-0.0261466 -0.0456995 0.000253352) 2075
(0.0247682 0.025017 0.000292709) 1092
(0.00560713 0.0493618 0.000273513) 2363
(0.0127927 -0.0592396 0.00025674) 2101
(-0.0195563 -0.0442476 0.000278704) 2074
(0.00212331 -0.0919088 0.000306716) 3211
(0.024392 0.022866 0.000299048) 299
(0.0183654 0.0361969 0.000289264) 2353
(-0.0240042 0.042463 0.000279263) 2386
(0.0150638 0.0102999 0.000290309) 285
(-0.043545 -0.0249697 0.000263216) 1827
(-0.0429625 0.0210312 0.000252857) 1794
(0.0398599 0.00051745 0.000298798) 1529
(-0.0426396 -0.0247487 0.000269257) 1827
(-0.0198394 -0.0360037 0.000280249) 2073
(0.0437545 -0.0123421 0.000260585) 1522
(0.0358033 0.0180478 0.000285101) 1545
(-0.0917497 0.000962978 0.000286981) 2931
(0.0179221 -0.0193534 0.000264838) 856
(0.0209271 0.0211598 0.000271648) 1090
(-0.0246076 -0.0245295 0.000309523) 580
(0.025592 0.0257727 0.000333588) 1470
(-0.0983828 -0.0042092 0.000263372) 2933
(0.00255438 -0.0163715 0.000285114) 838
(-1.78686e-05 -0.0964898 0.000272988) 3213
(-0.0255959 0.0254384 0.000286026) 532
(-0.0322028 0.0107222 0.000272515) 548
(-0.0856938 0.000938517 0.03449) 3042
(-0.044082 0.0240219 0.000277606) 1795
(-0.0117749 -0.0488871 0.000315433) 2083
(0.00116551 0.0929596 0.000264505) 3492
(-0.0406082 -0.0237053 0.000273496) 1826
(-0.0111442 0.0630748 0.000264783) 2381
(0.0259671 -0.0262167 0.000273213) 1441
(-0.102951 -0.00133251 0.000265591) 2935
(-0.0170946 0.0309713 0.000293389) 1132
(0.0378274 -0.00971162 0.000269285) 1521
(-0.0184775 -0.0355119 0.000243487) 2073
(-0.00573616 -0.0155716 0.000280335) 821
(0.00107405 -0.0586134 0.000279424) 2092
(0.0352767 0.0176505 0.000258648) 1545
(0.0208691 0.0138607 0.000271085) 296
(0.0228865 0.0228097 0.000321944) 299
(-0.0249101 -0.024903 0.000300537) 580
(-0.0508405 -0.0223693 0.00024674) 1828
(-0.0799961 0.000564158 0.000281029) 1816
(0.0182161 0.0362237 0.000268083) 2353
(0.0178794 -0.0626921 0.000312768) 2102
(-0.0246025 0.0537322 0.000308775) 2388
(-0.0264785 -0.0265466 0.000307154) 1435
(0.00309409 0.0627143 0.000257995) 2373
(0.0120817 0.0222627 0.000269771) 1096
(-0.0399148 0.0209641 0.000306247) 1794
(-0.0798879 0.000863339 0.000276803) 1816
(-0.0168327 -0.00564905 0.000294709) 558
(0.0168873 0.0928381 0.000315006) 3484
(-0.0267524 0.0252144 0.000247617) 1400
(0.0192676 -0.0426567 0.000302476) 2106
(0.0259655 -0.0262076 0.000264495) 1441
(-0.0415177 -0.0245518 0.000302043) 1826
(0.00517334 0.0155945 0.000269486) 1101
(-0.0243436 -0.024589 0.000326298) 812
(-0.0654101 0.00989299 0.000296916) 1806
(-0.0337727 0.0128755 0.000310731) 540
(0.0227148 -0.0229538 0.000292539) 859
(0.00265455 0.0157365 0.000293146) 1101
(0.0255998 0.0257607 0.000302571) 1470
(-0.0255698 0.0255177 0.000297952) 532
(0.0163665 0.0378029 0.000304372) 2353
(0.0390473 0.01179 0.000290882) 1537
(-0.019046 -0.0328928 0.00029366) 1436
(0.0122316 0.0228166 0.000264514) 1097
(0.0456314 0.0145357 0.000273819) 1538
(-0.0157001 -0.00336154 0.000295701) 557
(0.022021 0.0453424 0.000297586) 2355
(0.00843408 0.0168458 0.000254037) 1094
(0.0247145 0.0249373 0.000255762) 1092
(-0.0156046 0.0053142 0.000235661) 541
(0.0196693 -0.0336984 0.000265313) 2105
(0.0453693 -0.0130725 0.000302877) 1522
(0.0462068 -0.0144648 0.00027071) 1522
(-0.042551 -0.0254228 0.000315397) 1827
(0.0387892 0.0019265 0.000304362) 1529
(-0.100413 0.00154492 0.0224217) 2990
(-0.0425085 -0.0247156 0.000277314) 1827
(-0.0243495 -0.0437211 0.00025753) 2075
(-0.00390152 -0.0915615 0.000268116) 3211
(-0.0261734 -0.0270195 0.000257889) 1435
(-0.0369381 -0.0197632 0.000273454) 1825
(-0.0876424 -0.00823849 0.000263537) 2930
(-0.0532665 0.0321351 0.000281507) 1797
(0.0187466 0.0337179 0.000284643) 2353
(-0.00474535 0.0213793 0.000294151) 1119
(0.0615554 0.00137898 0.00025837) 1533
(-0.0640945 0.0127703 0.000273842) 1806
(0.0341804 -0.0201118 0.000282504) 1513
(-0.0260542 0.0460292 0.000311602) 2387
(-0.0445678 0.0203178 0.000251949) 1795
(0.0215319 0.00419879 0.000335061) 279
(0.0350962 -0.000438082 0.000265606) 276
(-0.0747385 0.00237561 0.000263314) 1815
(0.0141348 -0.0606288 0.000268774) 2101
(0.0516367 -0.000860814 0.000293435) 1531
(0.0348631 -0.0182558 0.000272128) 1513
(-0.024793 0.0248968 0.000261166) 1140
(0.0202255 0.0356087 0.000290389) 2353
(0.0241465 -0.00712812 0.00027681) 265
(-0.0252672 -0.00929719 0.000259483) 569
(-0.0227903 -0.0584787 0.000251632) 2077
(0.00391007 0.0301042 0.000262669) 1106
(0.000176482 -0.0592819 0.000318819) 2092
(-0.053847 -0.0253964 0.000275266) 1829
(-0.0164514 0.0412738 0.000266871) 2386
(0.0254194 -0.0256508 0.000277828) 860
(0.00682356 -0.0198487 0.000271967) 839
(0.0464331 0.0162832 0.000273294) 1547
(-0.0201418 -0.0352889 0.000315872) 2073
(0.0583035 -0.0013531 0.000278824) 1532
(-0.0468685 -0.0242963 0.00027863) 1827
(-0.00537267 -0.0155903 0.000286225) 821
(-0.025113 0.0249261 0.000300214) 532
(0.0251125 -0.0253677 0.000278795) 860
(0.0265129 -0.0267736 0.000286549) 1441
(0.0255793 -0.0258361 0.00028353) 1441
(0.0157573 0.0212535 0.000266988) 1088
(-0.025935 -0.0258286 0.00027869) 1406
(-0.0199429 -0.0201825 0.000273809) 809
(-0.0219992 0.0221176 0.000310263) 1138
(-0.0479286 0.0255491 0.000288182) 1796
(-0.0401351 -0.0231375 0.000285291) 1826
(-0.0831251 8.7226e-07 0.00028773) 2929
(0.0125491 -0.0605421 0.000272354) 2101
(0.00452492 0.101217 0.00028085) 3494
(0.0157517 -0.000928637 0.000299075) 269
(-0.0765372 0.00573417 0.000273636) 1816
(-0.0107676 0.0676029 0.000282055) 2382
(-0.0163511 -0.0352334 0.000292087) 2073
(-0.100778 0.00396864 0.000298478) 2934
(0.0451924 0.0139903 0.000292949) 1538
(0.0589523 -0.00307554 0.000279045) 1532
(0.0425238 -0.0163911 0.000273723) 1514
(0.0391229 0.0139938 0.000259705) 1545
(-0.0200597 0.0446537 0.000280651) 2387
(0.0570366 -4.99064e-05 0.000290578) 1532
(0.0172785 0.0580892 0.000288562) 2365
(-0.0774321 -0.00188636 0.000295868) 1816
(-0.0221936 -0.0411795 0.000266077) 2074
(-0.00899112 -0.0293147 0.000251092) 826
(0.0376534 0.0150126 0.000284753) 1545
(0.0254027 -0.0256483 0.000298903) 860
(-0.0372135 -0.0196915 0.000292815) 1825
(-0.0273764 0.0262728 0.000262059) 1400
(-0.0482754 0.0246382 0.000237171) 1796
(-0.024441 -0.0244501 0.000258629) 812
(-0.0204164 -0.00801387 0.00026597) 567
(-0.0206283 -0.0188522 0.000261553) 577
(0.0434774 -0.0159951 0.000264844) 1514
(-0.0181563 -0.0371916 0.000247311) 2073
(0.0271243 0.00725078 0.000271009) 282
(-0.0132449 0.0246297 0.000265024) 1129
(0.0239485 -0.015919 0.000276995) 249
(0.0221495 -0.0389949 0.000303841) 2106
(-0.00321356 -0.0962934 0.000294749) 3213
(-0.00392033 -0.101418 0.000287244) 3214
(0.00354483 -0.0431627 0.000269209) 2089
(0.00173299 0.101114 0.000266862) 3494
(-0.0171094 -0.00552185 0.000288195) 558
(-0.0374278 -0.0187671 0.000268373) 1825
(-0.0217811 0.039347 0.000300044) 2386
(-0.0262911 -0.0265283 0.000288373) 1435
(0.0194475 -0.0194407 0.000267022) 249
(0.0408439 0.0176247 0.000286091) 1546
(0.00141618 0.0720671 0.000279582) 2375
(-0.0157804 0.00203296 0.000284847) 549
(-0.000237681 -0.055766 0.000272609) 2092
(-0.0231816 -0.0230308 0.000301362) 579
(-0.0423348 -0.0257464 0.000291728) 1827
(-0.0158886 -0.032391 0.000313131) 1436
(0.0586611 -0.00216189 0.00030645) 1532
(-0.02361 -0.0514159 0.000284408) 2076
(0.0266197 -0.0470988 0.000284085) 2107
(-0.0245667 0.0245388 0.00028365) 532
(-0.0480932 -0.0243963 0.000276599) 1827
(-0.00935626 0.0388924 0.000266628) 2377
(0.00110669 0.0362249 0.000254466) 1473
(0.0217259 0.0420322 0.000281306) 2354
(-0.043245 0.0226834 0.000301632) 1795
(-0.0385674 -0.0217938 0.000289034) 1826
(-0.038679 0.0202144 0.000261022) 1794
(0.000816204 -0.101377 0.000261337) 3214
(-0.0426077 -0.025918 0.000287822) 1827
(0.0151583 0.0534819 0.000274994) 2364
(0.00298434 0.0772235 0.000292759) 2376
(-0.0157353 -0.00276685 0.000277407) 557
(-0.0520592 -0.0235582 0.000266929) 1828
(-0.0384609 0.0204667 0.000318836) 1794
(0.0237824 0.0239875 0.000271477) 1091
(-0.0209911 -0.0413187 0.000277301) 2074
(0.0019606 0.015765 0.000274904) 1109
(-0.0112611 0.0560024 0.00027178) 2380
(-0.0601746 -0.0314694 0.000266965) 1830
(0.0309853 0.0107735 0.000279983) 283
(0.000552051 0.0915704 0.000292498) 3491
(-0.0254911 0.0252719 0.000296142) 532
(-0.0258478 0.0259221 0.000292126) 1476
(-0.0273044 -0.0271954 0.000282937) 1833
(0.0242552 0.0245779 0.000314453) 1092
(0.0189921 -0.0333931 0.000259984) 2105
(0.0468148 -0.0110203 0.000261182) 1522
(0.00372789 -0.0189633 0.000303367) 839
(-0.00576115 -0.0155684 0.000285239) 821
(-0.00177434 0.100471 0.000291363) 3494
(-0.0268748 -0.0268522 0.000328232) 1406
(-0.0223385 0.0508887 0.000261147) 2388
(0.0236576 0.0405038 0.000266522) 2354
(-0.0269198 -0.0268021 0.000318818) 1406
(0.0163048 0.0163732 0.000253604) 1087
(-0.0607911 0.014712 0.000287369) 1805
(0.0471015 -0.0119095 0.000278608) 1522
(-0.00375 0.0156683 0.000291515) 1117
(0.0214793 -0.0451914 0.000262857) 2107
(-0.0250965 -0.0249643 0.000268644) 580
(-0.0266504 0.0456335 0.000312683) 2387
(0.0236153 0.0273473 0.000299756) 1470
(0.00625496 -0.0546885 0.000285574) 2100
(0.00107165 0.0735366 0.00026068) 2375
(-0.0231682 -0.0231558 0.000318093) 579
(0.0620781 -0.000987778 0.00026624) 1533
(0.0220794 -0.0391154 0.000293158) 2106
(0.0254778 -0.0469919 0.000243637) 2107
(-0.0791369 -5.54642e-05 0.000261603) 1816
(0.000196192 0.0593446 0.000290876) 2372
(-0.0233241 0.0506014 0.000258816) 2388
(-0.0182122 -0.00411073 0.000279664) 558
(0.00199605 -0.0190759 0.000274133) 831
(-0.0536267 -0.0223101 0.000285273) 1828
(0.0384003 -0.0110056 0.000272226) 1521
(-0.000417465 -0.0949819 0.000256549) 3212
(-0.0195102 -0.0406051 0.000275582) 2074
(0.0152188 0.0585194 0.000275215) 2365
(0.0401767 -0.00877872 0.000296776) 1521
(0.0343736 0.0200113 0.000266037) 1545
(0.0151161 -0.00152598 0.0100461) 269
(0.0422202 -0.0182761 0.000296496) 1514
(-0.082092 -0.000376354 0.000256814) 2929
(-0.0267629 -0.0277196 0.000266681) 2065
(-0.0643114 0.0288658 0.000288792) 1798
(-0.0501549 0.0216292 0.000269468) 1796
(0.0275781 -0.033062 0.000317729) 2113
(-0.0312401 0.0604564 0.000275083) 2390
(-0.0600223 0.012768 0.000298736) 1805
(0.0157533 -0.00178833 0.000270733) 269
(0.0230486 0.0232756 0.000309615) 1091
(0.0476271 0.0121697 0.00028442) 1539
(-0.079979 0.00306318 0.000253882) 1816
(-0.0188089 0.0341106 0.000276974) 2385
(0.0522358 0.00328759 0.00025983) 1531
(0.03479 -0.023582 0.000261998) 1505
(-0.00928452 0.0573536 0.000264686) 2380
(0.019557 0.0447032 0.000320309) 2355
(0.0165428 -0.0356417 0.000281531) 2105
(-0.0184665 0.0375038 0.000297461) 2385
(-0.00138281 -0.0593448 0.00030422) 2092
(-0.0477544 0.0236 0.000287206) 1795
(-0.023352 -0.00853453 0.000260526) 560
(0.0477342 0.0140342 0.000274078) 1539
(-0.0255474 0.0254334 0.000315261) 532
(-0.0682795 0.00413004 0.000286427) 1814
(-0.0353255 0.0177939 0.000262847) 1793
(-0.100827 0.00556965 0.000287286) 2934
(-0.0501832 0.0271486 0.000243667) 1796
(-0.0593529 0.0286245 0.000274062) 1798
(0.036701 0.0152958 0.000286255) 1545
(0.0296769 0.0226473 0.00026537) 1371
(0.0227562 0.0229581 0.000253499) 1091
(0.0313801 0.0622113 0.000286286) 2358
(-0.022791 0.0403663 0.000271341) 2386
(-0.00360753 0.0317592 0.000283975) 1115
(0.018886 -0.002163 0.000485392) 270
(-0.0407493 0.02056 0.000280006) 1794
(0.0270273 -0.0275228 0.000291852) 2113
(-0.0385861 0.0199995 0.000318214) 1793
(-0.101182 0.00119645 0.000257847) 2934
(-0.0842524 0.00605414 0.000291882) 2929
(-0.0208508 -0.035154 0.000276655) 2073
(0.0308089 -0.0214796 0.00029148) 1365
(-0.0164556 -0.00809455 0.000306631) 566
(0.0411036 -0.00947967 0.000283567) 1521
(0.000378193 0.0724972 0.000275731) 2375
(0.0235045 0.02373 0.000286593) 1091
(0.029291 0.0502793 0.000309617) 2356
(0.00029709 0.101144 0.000280122) 3494
(-0.00614146 -0.0256963 0.000247836) 825
(0.0156043 0.00476936 0.000268622) 277
(0.0226531 -0.0228957 0.000298904) 859
(0.0619628 -0.00165478 0.00025511) 1533
(0.0064501 0.03684 0.000241578) 1472
(0.0233543 -0.0235775 0.000260527) 859
(-0.00521155 -0.0591187 0.000229446) 2092
(-0.0449346 -0.0262414 0.000281178) 1827
(-0.0190515 -0.0347594 0.000274692) 2073
(0.0285461 0.00875252 0.000275212) 282
(0.0244099 0.0246892 0.000288326) 1092
(-0.000471271 -0.094536 0.0212958) 3268
(0.0458409 -0.0133185 0.000276149) 1522
(-0.0158739 0.00193207 0.145271) 7900
(0.0354892 0.019697 0.000293473) 1545
(0.0294221 0.00806131 0.000253588) 282
(-0.020186 -0.0355004 0.000268136) 2073
(-0.0483322 0.0272623 0.000262009) 1796
(-0.0667816 0.00784572 0.000314543) 1806
(-0.0173013 0.00216605 0.000284492) 550
(-0.0014846 -0.0598763 0.000238957) 2093
(0.0272746 0.00877005 0.000275681) 282
(0.00194051 0.0157642 0.00027408) 1109
(-0.0449759 0.0248682 0.000284092) 1795
(0.0385183 0.0190223 0.000281429) 1545
(0.023365 0.0228383 0.000288655) 299
(-0.0240471 0.0297943 0.00028729) 2393
(0.0438695 0.0120182 0.000260895) 1538
(-0.0657844 -0.035846 0.000298273) 1831
(-0.000373456 0.101174 0.000264726) 3494
(-0.0980436 -0.00583591 0.000262766) 2933
(0.0389144 -0.0129726 0.000281652) 1521
(0.0318532 0.018075 0.000284883) 1370
(0.0171221 -0.0419001 0.000259191) 2106
(-0.0284849 0.0111374 0.000287031) 538
(-0.0361635 -0.0197379 0.000261105) 1825
(0.000833308 0.0961803 0.000295951) 3493
(0.00671583 -0.0169093 0.000258908) 838
(0.0443299 -0.0167232 0.000283827) 1514
(-0.00563335 0.0965474 0.000293265) 3493
(0.0209747 -0.00385474 0.000312011) 263
(-0.0609237 -0.0173954 0.000263689) 1821
(-0.022786 -0.0395611 0.000299688) 2074
(-0.0232006 -0.0453467 0.000291518) 2075
(0.00448188 0.0706157 0.000243823) 2375
(0.0247763 0.0250213 0.000284895) 1092
(0.00408322 0.0559201 0.00028226) 2372
(-0.0238402 0.0423674 0.000266907) 2386
(0.0196535 0.0196433 0.00030577) 297
(0.0158488 -0.054341 0.000268394) 2100
(-0.0194308 -0.0336962 0.0002575) 2073
(0.00547857 0.0155801 0.000267379) 1101
(0.03643 -0.0213287 0.00027173) 1513
(0.0234107 -0.0418631 0.000282625) 2106
(0.0250118 0.0252555 0.000287765) 1092