/*--------------------------------*- C++ -*----------------------------------*\
| =========                 |                                                 |
| \\      /  F ield         | OpenFOAM: The Open Source CFD Toolbox           |
|  \\    /   O peration     | Version:  plus.master                           |
|   \\  /    A nd           | Web:      www.OpenFOAM.com                      |
|    \\/     M anipulation  |                                                 |
\*---------------------------------------------------------------------------*/
FoamFile
{
    version     2.0;
    format      ascii;
    class       volScalarField;
    location    "2";
    object      nut;
}
// * * * * * * * * * * * * * * * * * * * * * * * * * * * * * * * * * * * * * //

dimensions      [0 2 -1 0 0 0 0];

internalField   nonuniform List<scalar> 
47285
(
4.27593e-05
5.1125e-05
6.92353e-05
8.483e-05
6.34987e-05
4.88247e-05
4.15985e-05
5.18594e-05
4.38233e-05
6.60374e-05
8.62367e-05
5.62714e-05
4.25906e-05
4.83388e-05
7.17777e-05
7.59259e-05
7.82416e-05
9.27524e-05
7.001e-05
6.38144e-05
6.21697e-05
7.73891e-05
8.70075e-05
8.82553e-05
9.20487e-05
9.59798e-05
6.99822e-05
6.44665e-05
5.86024e-05
6.04263e-05
7.31546e-05
9.63194e-05
6.1811e-05
5.76642e-05
5.33367e-05
4.75331e-05
5.01923e-05
6.21798e-05
6.08591e-05
5.98547e-05
4.69409e-05
4.38704e-05
4.1089e-05
4.667e-05
5.74036e-05
6.06041e-05
5.26668e-05
4.3638e-05
3.97725e-05
5.61369e-05
7.00695e-05
8.29481e-05
8.37777e-05
7.18836e-05
5.45979e-05
4.38579e-05
7.37912e-05
0.000105663
0.000144114
0.000166839
0.00012419
8.39648e-05
5.30651e-05
9.19441e-05
0.000152279
0.000160871
0.00017074
0.000148811
0.000121058
6.51436e-05
9.17999e-05
0.000162082
0.00016275
0.00016513
0.000148157
0.000122008
6.50957e-05
7.60319e-05
0.000110504
0.000149699
0.000160916
0.000122543
8.54721e-05
5.55091e-05
6.15751e-05
7.55875e-05
9.25932e-05
9.10653e-05
8.04043e-05
6.25564e-05
5.27474e-05
5.58494e-05
5.91616e-05
6.23065e-05
5.93338e-05
5.79381e-05
5.4884e-05
5.53379e-05
9.03766e-05
0.000113896
0.000131461
0.000130711
0.000114122
8.34621e-05
5.59163e-05
0.000118565
0.000161819
0.000205423
0.00022338
0.000182675
0.000128305
7.75827e-05
0.000140588
0.000211429
0.000223023
0.000222819
0.000206361
0.000171178
9.71912e-05
0.000139006
0.000215483
0.00022337
0.000232921
0.000204383
0.000170919
9.68424e-05
0.00011566
0.000162273
0.000211316
0.000223343
0.000183242
0.000127378
7.75601e-05
8.81796e-05
0.000112901
0.000135536
0.000136667
0.000117057
8.45566e-05
5.9166e-05
6.78256e-05
7.90207e-05
8.65203e-05
8.28184e-05
7.34812e-05
6.00317e-05
5.26036e-05
0.000130959
0.000158732
0.000176319
0.000173489
0.000154251
0.000117735
7.90978e-05
0.000163914
0.000209366
0.000250483
0.000263381
0.000223559
0.000165971
0.000107491
0.000185176
0.000253653
0.000265544
0.000264824
0.000247229
0.000205656
0.000127718
0.000182903
0.000253289
0.000268357
0.000271291
0.000247989
0.000205089
0.000127536
0.0001575
0.000205491
0.000252686
0.000266739
0.000225131
0.000164545
0.00010675
0.000123829
0.000152671
0.000175183
0.000176192
0.000154633
0.000116797
8.05436e-05
9.2131e-05
0.000108677
0.000117481
0.000113344
0.000100882
8.02872e-05
6.10766e-05
0.000163346
0.000193954
0.000210992
0.000206242
0.000183383
0.000142704
9.72726e-05
0.000199619
0.000244481
0.000282572
0.000291662
0.000248529
0.000189724
0.000127768
0.000220126
0.000283586
0.00029176
0.000297055
0.000270201
0.000224445
0.000146999
0.000217831
0.000281254
0.00029957
0.000297725
0.000277569
0.000223113
0.000147407
0.000191792
0.000237813
0.000280565
0.000292711
0.000248545
0.000188139
0.000127799
0.000154352
0.000184814
0.000205163
0.00020394
0.000181389
0.000141437
9.91392e-05
0.000114306
0.000134659
0.000143969
0.000138995
0.000124318
9.91156e-05
7.20504e-05
3.87455e-05
3.72627e-05
3.56206e-05
3.39796e-05
3.23811e-05
3.0817e-05
2.92595e-05
2.77535e-05
4.24383e-05
3.95525e-05
3.76675e-05
3.61316e-05
3.47997e-05
3.35044e-05
3.21135e-05
3.06516e-05
4.61991e-05
4.07655e-05
3.8236e-05
3.63984e-05
3.53656e-05
3.44987e-05
3.36064e-05
3.24958e-05
4.65017e-05
4.05397e-05
3.79042e-05
3.63988e-05
3.56286e-05
3.52142e-05
3.45552e-05
3.37663e-05
4.34114e-05
4.0071e-05
3.78883e-05
3.63422e-05
3.53425e-05
3.45509e-05
3.36313e-05
3.25887e-05
4.06782e-05
3.91257e-05
3.7578e-05
3.61632e-05
3.47865e-05
3.33981e-05
3.19589e-05
3.04216e-05
3.84166e-05
3.74254e-05
3.57556e-05
3.41343e-05
3.24224e-05
3.06798e-05
2.90035e-05
2.7465e-05
4.92508e-05
5.88546e-05
6.52836e-05
6.91303e-05
7.14134e-05
7.27754e-05
7.35331e-05
7.38502e-05
4.16453e-05
4.8842e-05
5.86762e-05
6.51762e-05
6.89373e-05
7.11461e-05
7.24091e-05
7.29357e-05
3.94773e-05
4.21914e-05
5.29298e-05
6.09524e-05
6.5696e-05
6.87041e-05
7.06752e-05
7.18254e-05
4.05617e-05
4.39183e-05
5.36757e-05
6.05368e-05
6.48358e-05
6.76487e-05
6.96686e-05
7.09191e-05
4.56949e-05
5.19756e-05
5.94764e-05
6.44604e-05
6.77652e-05
7.00458e-05
7.1628e-05
7.25004e-05
5.39151e-05
6.07754e-05
6.59581e-05
6.92272e-05
7.1362e-05
7.27583e-05
7.35618e-05
7.38072e-05
6.2709e-05
6.78823e-05
7.06604e-05
7.2361e-05
7.34418e-05
7.41163e-05
7.44401e-05
7.44684e-05
4.57865e-05
4.88197e-05
5.33278e-05
5.71741e-05
6.04861e-05
6.37347e-05
6.70838e-05
7.04988e-05
4.76379e-05
4.2277e-05
4.69266e-05
5.24773e-05
5.69265e-05
6.09686e-05
6.50142e-05
6.90768e-05
5.30744e-05
3.97012e-05
4.24201e-05
4.8262e-05
5.31502e-05
5.76992e-05
6.23519e-05
6.70606e-05
5.3983e-05
4.13292e-05
4.34736e-05
4.80862e-05
5.22592e-05
5.66002e-05
6.13127e-05
6.61954e-05
5.0233e-05
4.53881e-05
4.83373e-05
5.19538e-05
5.55068e-05
5.93878e-05
6.36039e-05
6.79722e-05
4.99715e-05
5.15626e-05
5.43196e-05
5.69967e-05
5.98915e-05
6.3129e-05
6.66335e-05
7.0274e-05
5.4411e-05
5.7241e-05
5.89524e-05
6.0836e-05
6.31191e-05
6.57526e-05
6.86407e-05
7.16795e-05
5.27501e-05
4.28443e-05
3.97562e-05
3.98121e-05
4.12601e-05
4.39331e-05
4.7648e-05
5.21185e-05
6.43124e-05
4.41131e-05
3.75343e-05
3.7319e-05
3.89563e-05
4.19051e-05
4.60682e-05
5.11255e-05
7.38583e-05
4.69076e-05
3.69211e-05
3.553e-05
3.67426e-05
3.969e-05
4.41817e-05
4.97654e-05
7.48142e-05
4.84608e-05
3.82532e-05
3.59466e-05
3.6467e-05
3.91427e-05
4.36154e-05
4.93297e-05
6.62503e-05
4.71668e-05
4.00292e-05
3.80298e-05
3.85207e-05
4.10317e-05
4.516e-05
5.04669e-05
5.62886e-05
4.61691e-05
4.19146e-05
4.05011e-05
4.1167e-05
4.35079e-05
4.71944e-05
5.19173e-05
5.04315e-05
4.62245e-05
4.33631e-05
4.24294e-05
4.32116e-05
4.53683e-05
4.86549e-05
5.283e-05
6.17202e-05
4.26536e-05
3.16856e-05
2.65823e-05
2.43849e-05
2.41888e-05
2.56269e-05
2.80908e-05
7.81365e-05
4.95268e-05
3.37061e-05
2.6981e-05
2.42046e-05
2.36692e-05
2.49773e-05
2.76386e-05
8.8972e-05
5.51635e-05
3.63459e-05
2.77869e-05
2.41398e-05
2.3207e-05
2.44042e-05
2.72349e-05
9.03871e-05
5.66728e-05
3.78257e-05
2.86254e-05
2.44179e-05
2.31846e-05
2.42239e-05
2.70538e-05
8.04436e-05
5.26205e-05
3.6774e-05
2.87302e-05
2.48941e-05
2.36563e-05
2.44879e-05
2.71079e-05
6.53752e-05
4.59922e-05
3.45563e-05
2.83492e-05
2.52348e-05
2.41596e-05
2.49055e-05
2.73178e-05
5.17802e-05
4.03221e-05
3.24126e-05
2.77301e-05
2.52822e-05
2.44681e-05
2.5313e-05
2.76046e-05
3.95655e-05
3.8114e-05
3.63994e-05
3.47638e-05
3.3061e-05
3.13859e-05
2.97561e-05
2.82029e-05
4.42477e-05
4.26539e-05
4.08124e-05
3.90723e-05
3.75778e-05
3.62774e-05
3.52022e-05
3.41609e-05
4.9347e-05
4.57558e-05
4.30929e-05
4.11274e-05
3.95284e-05
3.82127e-05
3.71164e-05
3.62029e-05
5.46541e-05
4.76071e-05
4.43775e-05
4.21797e-05
4.04553e-05
3.90839e-05
3.80001e-05
3.72449e-05
5.33417e-05
4.73901e-05
4.411e-05
4.16701e-05
3.97675e-05
3.82805e-05
3.70997e-05
3.61968e-05
4.6413e-05
4.40896e-05
4.18551e-05
3.96729e-05
3.78625e-05
3.62392e-05
3.48803e-05
3.3786e-05
4.01091e-05
3.8618e-05
3.72351e-05
3.53625e-05
3.36134e-05
3.19525e-05
3.03677e-05
2.8867e-05
5.88872e-05
6.23646e-05
6.51148e-05
6.75799e-05
6.97148e-05
7.14581e-05
7.27996e-05
7.37323e-05
5.68531e-05
5.81527e-05
6.03376e-05
6.2903e-05
6.56117e-05
6.81619e-05
7.03805e-05
7.22105e-05
5.87982e-05
5.52956e-05
5.58029e-05
5.72204e-05
5.94973e-05
6.24668e-05
6.56814e-05
6.87349e-05
6.20695e-05
5.41118e-05
5.32917e-05
5.38139e-05
5.5396e-05
5.82171e-05
6.18362e-05
6.56777e-05
6.23423e-05
5.30518e-05
5.17054e-05
5.28713e-05
5.57673e-05
5.97235e-05
6.38073e-05
6.75057e-05
5.6371e-05
5.24803e-05
5.33706e-05
5.65499e-05
6.09081e-05
6.51176e-05
6.85157e-05
7.10531e-05
5.29001e-05
5.49501e-05
5.78252e-05
6.17384e-05
6.56717e-05
6.88528e-05
7.11894e-05
7.27731e-05
6.01675e-05
5.69472e-05
5.57262e-05
5.67151e-05
5.91683e-05
6.23773e-05
6.5984e-05
6.97689e-05
6.93193e-05
5.89207e-05
5.36031e-05
5.23512e-05
5.4374e-05
5.81741e-05
6.26842e-05
6.74422e-05
8.3602e-05
6.55099e-05
5.43633e-05
4.89165e-05
4.85764e-05
5.2153e-05
5.75422e-05
6.34908e-05
9.52939e-05
7.20408e-05
5.67024e-05
4.77557e-05
4.47113e-05
4.72343e-05
5.287e-05
5.95594e-05
9.64997e-05
7.2255e-05
5.58562e-05
4.67006e-05
4.48184e-05
4.87956e-05
5.5077e-05
6.17073e-05
8.56405e-05
6.57019e-05
5.25584e-05
4.70499e-05
4.86416e-05
5.39789e-05
5.98255e-05
6.54357e-05
7.02572e-05
5.79704e-05
5.07138e-05
4.96968e-05
5.33764e-05
5.83802e-05
6.3209e-05
6.77722e-05
7.32856e-05
5.88336e-05
4.81726e-05
4.29194e-05
4.21731e-05
4.41336e-05
4.77166e-05
5.22724e-05
9.48867e-05
7.24495e-05
5.43719e-05
4.32395e-05
3.98208e-05
4.14972e-05
4.55614e-05
5.08416e-05
0.000117717
8.89936e-05
6.48232e-05
4.66711e-05
3.80102e-05
3.81717e-05
4.26418e-05
4.87358e-05
0.000134153
0.000101519
7.36025e-05
5.07669e-05
3.75507e-05
3.55787e-05
4.01836e-05
4.69294e-05
0.000135846
0.000102639
7.38583e-05
5.01913e-05
3.70477e-05
3.60736e-05
4.10721e-05
4.76227e-05
0.00012312
9.30993e-05
6.63191e-05
4.58244e-05
3.72522e-05
3.88659e-05
4.38006e-05
4.96015e-05
0.000100784
7.72375e-05
5.58276e-05
4.21252e-05
3.89789e-05
4.17619e-05
4.61007e-05
5.10911e-05
8.73785e-05
6.42443e-05
4.45034e-05
3.19804e-05
2.63182e-05
2.49334e-05
2.60957e-05
2.84583e-05
0.000118253
8.69542e-05
5.90142e-05
3.81716e-05
2.77061e-05
2.48361e-05
2.57359e-05
2.82925e-05
0.000147141
0.000110424
7.67194e-05
4.83831e-05
3.07143e-05
2.50015e-05
2.54783e-05
2.81994e-05
0.000166231
0.000126087
8.91892e-05
5.67238e-05
3.39498e-05
2.53259e-05
2.54643e-05
2.83088e-05
0.000167817
0.00012753
8.99096e-05
5.64977e-05
3.32424e-05
2.5065e-05
2.55382e-05
2.83901e-05
0.000153105
0.000115474
7.9498e-05
4.85085e-05
2.97611e-05
2.492e-05
2.60012e-05
2.86665e-05
0.000125524
9.40681e-05
6.31774e-05
3.89075e-05
2.73262e-05
2.51746e-05
2.65527e-05
2.89403e-05
4.03396e-05
3.89147e-05
3.70886e-05
3.53055e-05
3.372e-05
3.21829e-05
3.06495e-05
2.91031e-05
4.52396e-05
4.23938e-05
4.01258e-05
3.86175e-05
3.73584e-05
3.61833e-05
3.50326e-05
3.37853e-05
5.06269e-05
4.42587e-05
4.20184e-05
4.0684e-05
3.95413e-05
3.84223e-05
3.73541e-05
3.63324e-05
5.48538e-05
4.47031e-05
4.1772e-05
4.06323e-05
3.98142e-05
3.90214e-05
3.82341e-05
3.74741e-05
4.82976e-05
4.28879e-05
4.04584e-05
3.92677e-05
3.84493e-05
3.77256e-05
3.69953e-05
3.62324e-05
4.38622e-05
4.0945e-05
3.86833e-05
3.71855e-05
3.61512e-05
3.5295e-05
3.45052e-05
3.36646e-05
3.92237e-05
3.7814e-05
3.62714e-05
3.46967e-05
3.32509e-05
3.18337e-05
3.04281e-05
2.90477e-05
5.29441e-05
5.56803e-05
5.85897e-05
6.2237e-05
6.58689e-05
6.8853e-05
7.1086e-05
7.26544e-05
5.3356e-05
5.24497e-05
5.55509e-05
5.90161e-05
6.26335e-05
6.60625e-05
6.90225e-05
7.14138e-05
5.24386e-05
4.90661e-05
5.46333e-05
5.8674e-05
6.11302e-05
6.34765e-05
6.61319e-05
6.88737e-05
4.73174e-05
4.51121e-05
5.45496e-05
6.05193e-05
6.29218e-05
6.43279e-05
6.60449e-05
6.82699e-05
4.65209e-05
4.76806e-05
5.62225e-05
6.18708e-05
6.48267e-05
6.68426e-05
6.87791e-05
7.075e-05
4.63388e-05
5.3366e-05
6.10065e-05
6.58846e-05
6.88467e-05
7.09071e-05
7.25327e-05
7.38355e-05
5.18027e-05
6.06946e-05
6.6105e-05
6.94812e-05
7.16429e-05
7.30847e-05
7.40425e-05
7.46167e-05
6.86279e-05
5.71538e-05
5.05888e-05
4.9898e-05
5.35192e-05
5.83695e-05
6.31077e-05
6.76258e-05
7.91816e-05
6.11908e-05
5.1163e-05
4.76118e-05
4.9458e-05
5.42895e-05
5.97752e-05
6.52267e-05
8.32927e-05
6.10873e-05
5.13502e-05
4.77226e-05
4.75266e-05
5.07627e-05
5.60385e-05
6.20973e-05
7.73322e-05
5.53752e-05
4.91737e-05
4.83228e-05
4.83817e-05
5.04576e-05
5.47774e-05
6.04931e-05
6.90843e-05
5.15161e-05
4.80913e-05
4.90377e-05
5.10094e-05
5.42898e-05
5.87935e-05
6.4065e-05
5.60858e-05
4.8935e-05
4.99221e-05
5.27701e-05
5.60097e-05
5.96122e-05
6.36484e-05
6.79916e-05
4.91487e-05
5.15525e-05
5.4488e-05
5.74112e-05
6.03456e-05
6.34952e-05
6.68833e-05
7.04035e-05
9.82321e-05
7.49773e-05
5.41613e-05
4.1363e-05
3.88207e-05
4.17153e-05
4.60451e-05
5.10221e-05
0.000114553
8.47477e-05
5.99696e-05
4.26417e-05
3.6634e-05
3.88846e-05
4.37321e-05
4.94756e-05
0.000121086
8.69259e-05
6.1462e-05
4.35631e-05
3.55681e-05
3.63522e-05
4.12255e-05
4.76122e-05
0.000113971
7.94276e-05
5.64769e-05
4.18868e-05
3.54826e-05
3.59938e-05
4.06242e-05
4.71852e-05
0.000100276
6.85204e-05
4.89945e-05
3.89882e-05
3.62144e-05
3.80451e-05
4.25138e-05
4.8494e-05
7.78353e-05
5.50595e-05
4.27963e-05
3.85916e-05
3.88176e-05
4.13236e-05
4.544e-05
5.06413e-05
5.71435e-05
4.64769e-05
4.16006e-05
4.04438e-05
4.13675e-05
4.38804e-05
4.75907e-05
5.21091e-05
0.000122507
9.09285e-05
6.03645e-05
3.7156e-05
2.67618e-05
2.5044e-05
2.65208e-05
2.89254e-05
0.000143556
0.000104884
6.93298e-05
4.1248e-05
2.70897e-05
2.442e-05
2.59074e-05
2.86365e-05
0.000151682
0.000108679
7.18017e-05
4.30941e-05
2.75018e-05
2.38978e-05
2.52947e-05
2.83117e-05
0.000143624
9.99806e-05
6.51068e-05
3.99901e-05
2.70383e-05
2.39193e-05
2.5306e-05
2.83463e-05
0.000125347
8.44025e-05
5.36557e-05
3.40423e-05
2.5603e-05
2.37248e-05
2.51154e-05
2.80513e-05
9.63656e-05
6.38086e-05
4.11132e-05
2.92846e-05
2.48609e-05
2.40183e-05
2.54556e-05
2.81278e-05
6.68302e-05
4.6838e-05
3.38353e-05
2.73508e-05
2.46315e-05
2.43399e-05
2.57942e-05
2.82397e-05
3.80148e-05
3.67977e-05
3.55873e-05
3.41632e-05
3.26281e-05
3.11078e-05
2.96003e-05
2.8149e-05
4.0848e-05
3.95431e-05
3.78782e-05
3.63706e-05
3.50763e-05
3.38962e-05
3.28025e-05
3.17429e-05
4.45415e-05
4.22174e-05
4.04783e-05
3.9006e-05
3.78812e-05
3.68889e-05
3.58721e-05
3.50031e-05
4.79974e-05
4.45039e-05
4.2449e-05
4.10531e-05
3.99744e-05
3.90062e-05
3.81268e-05
3.74501e-05
4.71237e-05
4.42173e-05
4.24091e-05
4.0943e-05
3.96411e-05
3.83914e-05
3.72426e-05
3.63937e-05
4.29739e-05
4.14525e-05
3.97803e-05
3.80831e-05
3.66001e-05
3.53075e-05
3.4139e-05
3.29875e-05
3.90317e-05
3.76963e-05
3.61111e-05
3.44527e-05
3.28539e-05
3.13233e-05
2.97996e-05
2.83117e-05
6.33169e-05
6.82563e-05
7.09295e-05
7.2581e-05
7.37124e-05
7.45035e-05
7.50004e-05
7.52283e-05
5.8236e-05
6.44583e-05
6.82869e-05
7.04406e-05
7.18979e-05
7.30728e-05
7.40454e-05
7.47979e-05
5.4653e-05
6.08534e-05
6.54864e-05
6.77591e-05
6.90893e-05
7.02603e-05
7.15396e-05
7.28533e-05
5.28023e-05
5.87543e-05
6.3697e-05
6.58719e-05
6.68587e-05
6.78651e-05
6.93256e-05
7.1143e-05
5.45827e-05
5.88935e-05
6.31206e-05
6.54116e-05
6.68291e-05
6.8184e-05
6.9713e-05
7.14323e-05
5.66357e-05
6.03994e-05
6.39393e-05
6.65411e-05
6.86103e-05
7.04118e-05
7.20341e-05
7.33446e-05
5.89645e-05
6.29583e-05
6.60777e-05
6.85562e-05
7.05456e-05
7.21323e-05
7.33322e-05
7.41374e-05
5.53705e-05
5.78113e-05
5.92481e-05
6.08904e-05
6.30318e-05
6.56194e-05
6.85381e-05
7.16562e-05
5.4141e-05
5.56294e-05
5.69469e-05
5.81312e-05
5.99687e-05
6.26295e-05
6.59491e-05
6.96926e-05
5.59995e-05
5.42951e-05
5.50828e-05
5.54084e-05
5.63655e-05
5.87347e-05
6.23697e-05
6.68099e-05
5.91069e-05
5.43484e-05
5.43109e-05
5.39467e-05
5.40494e-05
5.59003e-05
5.95446e-05
6.435e-05
6.21719e-05
5.53604e-05
5.40264e-05
5.36472e-05
5.43436e-05
5.67554e-05
6.06641e-05
6.54713e-05
6.11822e-05
5.57464e-05
5.4397e-05
5.48597e-05
5.67379e-05
5.97848e-05
6.36446e-05
6.79496e-05
5.82152e-05
5.59557e-05
5.57321e-05
5.7143e-05
5.96156e-05
6.27111e-05
6.61947e-05
6.98781e-05
5.15103e-05
4.70457e-05
4.38893e-05
4.26545e-05
4.32411e-05
4.53166e-05
4.86032e-05
5.28253e-05
5.94038e-05
5.01325e-05
4.48081e-05
4.19217e-05
4.1542e-05
4.33521e-05
4.68741e-05
5.16542e-05
6.93071e-05
5.48007e-05
4.68766e-05
4.1866e-05
3.98749e-05
4.10673e-05
4.47493e-05
5.00986e-05
7.68222e-05
5.90579e-05
4.9042e-05
4.25235e-05
3.92029e-05
3.97808e-05
4.35258e-05
4.92369e-05
8.07547e-05
6.12998e-05
4.94757e-05
4.23754e-05
3.93493e-05
4.02552e-05
4.40505e-05
4.9596e-05
7.73382e-05
5.95623e-05
4.81249e-05
4.20852e-05
4.05391e-05
4.22198e-05
4.60005e-05
5.1078e-05
6.86449e-05
5.53321e-05
4.64422e-05
4.24243e-05
4.21582e-05
4.42146e-05
4.77763e-05
5.22977e-05
5.26038e-05
4.09948e-05
3.28525e-05
2.79285e-05
2.53443e-05
2.44883e-05
2.53299e-05
2.76226e-05
6.79358e-05
4.93493e-05
3.70805e-05
2.96337e-05
2.57403e-05
2.43582e-05
2.50339e-05
2.74215e-05
8.34967e-05
5.90879e-05
4.2746e-05
3.21779e-05
2.63903e-05
2.426e-05
2.48146e-05
2.73386e-05
9.41347e-05
6.64134e-05
4.7245e-05
3.43474e-05
2.70891e-05
2.44196e-05
2.49757e-05
2.75741e-05
9.85413e-05
6.92608e-05
4.81107e-05
3.41702e-05
2.68259e-05
2.43043e-05
2.49697e-05
2.7591e-05
9.34646e-05
6.59485e-05
4.52367e-05
3.23239e-05
2.62514e-05
2.44862e-05
2.54321e-05
2.79468e-05
8.06664e-05
5.8489e-05
4.09298e-05
3.04998e-05
2.58759e-05
2.47851e-05
2.59723e-05
2.83451e-05
2.64219e-05
2.92117e-05
3.13359e-05
3.29473e-05
3.14458e-05
2.89328e-05
2.61851e-05
7.38176e-05
7.28551e-05
7.21733e-05
7.13801e-05
7.2654e-05
7.35342e-05
7.42305e-05
7.38245e-05
7.28582e-05
7.1338e-05
7.06246e-05
7.19978e-05
7.37344e-05
7.47018e-05
5.71677e-05
5.66942e-05
5.58289e-05
5.55575e-05
5.63583e-05
5.72863e-05
5.77e-05
2.99385e-05
2.99216e-05
2.99007e-05
2.98932e-05
2.98778e-05
2.98647e-05
2.986e-05
2.68239e-05
3.30237e-05
3.54371e-05
3.66988e-05
3.54732e-05
3.28294e-05
2.74594e-05
7.42185e-05
7.35098e-05
7.11567e-05
6.87804e-05
7.03643e-05
7.28776e-05
7.3718e-05
7.34715e-05
7.195e-05
6.90597e-05
6.58706e-05
6.7741e-05
7.05025e-05
7.20106e-05
5.74629e-05
5.67127e-05
5.53677e-05
5.41434e-05
5.45239e-05
5.57718e-05
5.65524e-05
3.01532e-05
3.01979e-05
3.02628e-05
3.03418e-05
3.029e-05
3.02458e-05
3.02028e-05
2.76216e-05
3.2621e-05
3.54034e-05
3.68586e-05
3.54493e-05
3.2677e-05
2.77408e-05
7.36415e-05
7.31543e-05
7.11707e-05
7.03576e-05
7.24278e-05
7.47491e-05
7.48309e-05
7.18515e-05
7.02365e-05
6.78495e-05
6.62208e-05
6.92313e-05
7.22078e-05
7.38569e-05
5.64745e-05
5.56375e-05
5.44593e-05
5.43275e-05
5.5082e-05
5.64463e-05
5.72221e-05
3.01885e-05
3.02012e-05
3.02238e-05
3.03225e-05
3.01575e-05
3.00539e-05
2.99792e-05
2.68747e-05
3.07206e-05
3.4274e-05
3.69177e-05
3.56695e-05
3.19326e-05
2.69769e-05
7.51685e-05
7.52637e-05
7.39211e-05
7.26802e-05
7.28961e-05
7.42575e-05
7.45209e-05
7.47777e-05
7.34255e-05
7.12724e-05
6.92474e-05
7.02694e-05
7.21634e-05
7.35085e-05
5.7765e-05
5.72072e-05
5.62776e-05
5.57971e-05
5.59201e-05
5.68441e-05
5.74679e-05
2.98868e-05
2.99499e-05
3.00494e-05
3.01852e-05
3.01286e-05
3.01219e-05
3.01307e-05
2.49682e-05
2.385e-05
2.33304e-05
2.30617e-05
2.29013e-05
2.28004e-05
2.27026e-05
2.25394e-05
2.67822e-05
2.45612e-05
2.34478e-05
2.30771e-05
2.28633e-05
2.27122e-05
2.25824e-05
2.24195e-05
2.9375e-05
2.71326e-05
2.5348e-05
2.41047e-05
2.33944e-05
2.2954e-05
2.26777e-05
2.24632e-05
3.15885e-05
2.98719e-05
2.81644e-05
2.69524e-05
2.58688e-05
2.46089e-05
2.345e-05
2.27378e-05
2.95502e-05
2.74789e-05
2.57548e-05
2.44409e-05
2.35185e-05
2.2979e-05
2.26765e-05
2.24556e-05
2.66016e-05
2.44721e-05
2.34928e-05
2.31262e-05
2.28919e-05
2.27241e-05
2.25864e-05
2.24188e-05
2.48392e-05
2.38088e-05
2.33221e-05
2.30609e-05
2.2896e-05
2.27832e-05
2.26755e-05
2.2508e-05
7.30559e-05
7.0685e-05
6.81916e-05
6.6634e-05
6.57918e-05
6.49844e-05
6.37135e-05
6.16865e-05
7.18386e-05
6.84281e-05
6.5416e-05
6.40018e-05
6.36304e-05
6.34375e-05
6.28033e-05
6.12866e-05
7.17052e-05
6.83932e-05
6.41735e-05
6.14283e-05
6.10645e-05
6.15e-05
6.15751e-05
6.06266e-05
7.11226e-05
6.79695e-05
6.32069e-05
5.90881e-05
5.6532e-05
5.64873e-05
5.73152e-05
5.75213e-05
7.19263e-05
6.8333e-05
6.38258e-05
6.08257e-05
6.05212e-05
6.11179e-05
6.13127e-05
6.0453e-05
7.23536e-05
6.90473e-05
6.59246e-05
6.43205e-05
6.3806e-05
6.35242e-05
6.28305e-05
6.128e-05
7.3256e-05
7.0812e-05
6.83628e-05
6.67892e-05
6.58906e-05
6.50397e-05
6.3747e-05
6.17107e-05
7.79755e-05
8.14622e-05
8.21364e-05
8.13846e-05
8.02493e-05
7.88562e-05
7.69027e-05
7.39557e-05
7.72411e-05
8.08151e-05
8.15126e-05
8.08365e-05
7.98382e-05
7.86047e-05
7.6804e-05
7.39864e-05
7.61584e-05
8.00289e-05
8.07835e-05
8.0043e-05
7.91311e-05
7.81298e-05
7.65523e-05
7.38819e-05
7.56052e-05
7.94574e-05
7.99122e-05
7.87795e-05
7.74487e-05
7.65043e-05
7.53074e-05
7.30967e-05
7.65574e-05
8.01723e-05
8.07585e-05
7.99101e-05
7.8991e-05
7.80248e-05
7.64984e-05
7.38618e-05
7.77934e-05
8.10785e-05
8.16187e-05
8.08742e-05
7.98546e-05
7.86143e-05
7.68091e-05
7.39875e-05
7.85264e-05
8.17167e-05
8.22367e-05
8.14265e-05
8.02767e-05
7.8882e-05
7.69304e-05
7.39866e-05
6.45983e-05
7.46227e-05
8.04157e-05
8.26606e-05
8.29454e-05
8.21552e-05
8.03801e-05
7.73318e-05
6.42987e-05
7.43972e-05
8.0249e-05
8.25435e-05
8.28737e-05
8.21345e-05
8.04137e-05
7.74147e-05
6.37247e-05
7.40666e-05
8.0061e-05
8.24263e-05
8.27939e-05
8.20885e-05
8.04029e-05
7.7435e-05
6.35726e-05
7.39942e-05
7.99863e-05
8.23148e-05
8.26547e-05
8.19568e-05
8.03061e-05
7.73848e-05
6.41204e-05
7.42959e-05
8.01628e-05
8.24529e-05
8.27929e-05
8.20833e-05
8.04011e-05
7.74378e-05
6.47362e-05
7.46322e-05
8.03437e-05
8.25629e-05
8.28697e-05
8.21293e-05
8.04121e-05
7.74161e-05
6.49913e-05
7.48212e-05
8.04909e-05
8.267e-05
8.29371e-05
8.21521e-05
8.03871e-05
7.73474e-05
4.18433e-05
6.22982e-05
7.30725e-05
7.85486e-05
8.09817e-05
8.1497e-05
8.04472e-05
7.77565e-05
4.18021e-05
6.21571e-05
7.29469e-05
7.84695e-05
8.09437e-05
8.14941e-05
8.0476e-05
7.78127e-05
4.16879e-05
6.2027e-05
7.28659e-05
7.84333e-05
8.09306e-05
8.1494e-05
8.04872e-05
7.78346e-05
4.17181e-05
6.20762e-05
7.29245e-05
7.84845e-05
8.09655e-05
8.15131e-05
8.04963e-05
7.78402e-05
4.17666e-05
6.20803e-05
7.28942e-05
7.84375e-05
8.09252e-05
8.14885e-05
8.04846e-05
7.78349e-05
4.18268e-05
6.21284e-05
7.29125e-05
7.84318e-05
8.09128e-05
8.14741e-05
8.04648e-05
7.78069e-05
4.18102e-05
6.21764e-05
7.29694e-05
7.84687e-05
8.09281e-05
8.14683e-05
8.04375e-05
7.77597e-05
2.53331e-05
2.41483e-05
2.35681e-05
2.32662e-05
2.30206e-05
2.28208e-05
2.26564e-05
2.24627e-05
3.07624e-05
2.82808e-05
2.64706e-05
2.50355e-05
2.40427e-05
2.33867e-05
2.30342e-05
2.27555e-05
3.41081e-05
3.25867e-05
3.13738e-05
3.03354e-05
2.9238e-05
2.79993e-05
2.66191e-05
2.53161e-05
3.58284e-05
3.50417e-05
3.44322e-05
3.38233e-05
3.33047e-05
3.28942e-05
3.24583e-05
3.20606e-05
3.42371e-05
3.28312e-05
3.16801e-05
3.08065e-05
2.99581e-05
2.89359e-05
2.76185e-05
2.61457e-05
3.07641e-05
2.85676e-05
2.69325e-05
2.5523e-05
2.44568e-05
2.36698e-05
2.31461e-05
2.28151e-05
2.57691e-05
2.43497e-05
2.36633e-05
2.3356e-05
2.31152e-05
2.28807e-05
2.26887e-05
2.249e-05
7.39478e-05
7.14216e-05
6.84225e-05
6.62108e-05
6.48129e-05
6.38051e-05
6.26006e-05
6.06537e-05
7.44335e-05
7.29197e-05
7.02814e-05
6.77203e-05
6.56597e-05
6.38948e-05
6.19889e-05
5.95344e-05
7.39424e-05
7.44097e-05
7.23288e-05
6.90272e-05
6.57172e-05
6.28356e-05
6.00919e-05
5.72779e-05
7.30706e-05
7.54144e-05
7.53274e-05
7.32288e-05
6.9699e-05
6.63393e-05
6.38473e-05
6.0825e-05
7.37741e-05
7.47506e-05
7.29135e-05
6.9479e-05
6.56704e-05
6.23973e-05
5.94451e-05
5.64275e-05
7.43896e-05
7.33399e-05
7.08828e-05
6.82481e-05
6.59922e-05
6.40771e-05
6.20894e-05
5.95945e-05
7.39527e-05
7.17621e-05
6.89421e-05
6.67401e-05
6.52342e-05
6.40877e-05
6.28001e-05
6.07875e-05
7.79984e-05
8.18811e-05
8.26936e-05
8.18496e-05
8.0507e-05
7.88883e-05
7.6736e-05
7.36371e-05
7.71682e-05
8.16171e-05
8.26522e-05
8.17789e-05
8.02964e-05
7.85165e-05
7.62167e-05
7.30067e-05
7.55464e-05
8.11034e-05
8.24998e-05
8.1437e-05
7.96115e-05
7.76218e-05
7.5293e-05
7.21709e-05
7.34689e-05
8.00069e-05
8.15156e-05
7.95972e-05
7.63096e-05
7.30221e-05
6.95523e-05
6.49984e-05
7.47508e-05
8.07671e-05
8.23619e-05
8.12806e-05
7.93221e-05
7.72324e-05
7.48968e-05
7.18252e-05
7.6299e-05
8.12513e-05
8.25453e-05
8.17627e-05
8.029e-05
7.85049e-05
7.62085e-05
7.30079e-05
7.70937e-05
8.14447e-05
8.2509e-05
8.17801e-05
8.0482e-05
7.88765e-05
7.67248e-05
7.36212e-05
6.49876e-05
7.52228e-05
8.10041e-05
8.30883e-05
8.31778e-05
8.22087e-05
8.02854e-05
7.71255e-05
6.46027e-05
7.51791e-05
8.10888e-05
8.31827e-05
8.32136e-05
8.21556e-05
8.01396e-05
7.69009e-05
6.38377e-05
7.50097e-05
8.11931e-05
8.33591e-05
8.33556e-05
8.22513e-05
8.02324e-05
7.70407e-05
6.31144e-05
7.47028e-05
8.08598e-05
8.26496e-05
8.20916e-05
8.03943e-05
7.77264e-05
7.37453e-05
6.32228e-05
7.46729e-05
8.10331e-05
8.32831e-05
8.3301e-05
8.21959e-05
8.01807e-05
7.70011e-05
6.39162e-05
7.48047e-05
8.09211e-05
8.31335e-05
8.32123e-05
8.21659e-05
8.01508e-05
7.69116e-05
6.4321e-05
7.48512e-05
8.0816e-05
8.30142e-05
8.31577e-05
8.22037e-05
8.02794e-05
7.71148e-05
4.22033e-05
6.30092e-05
7.37416e-05
7.90274e-05
8.12524e-05
8.15947e-05
8.04138e-05
7.763e-05
4.22666e-05
6.32321e-05
7.39725e-05
7.92068e-05
8.13548e-05
8.16168e-05
8.03626e-05
7.75179e-05
4.22514e-05
6.3437e-05
7.42767e-05
7.95214e-05
8.16311e-05
8.18505e-05
8.05713e-05
7.77216e-05
4.23594e-05
6.37602e-05
7.45988e-05
7.97232e-05
8.16423e-05
8.16445e-05
8.01285e-05
7.70168e-05
4.21123e-05
6.33615e-05
7.42492e-05
7.95282e-05
8.16467e-05
8.1861e-05
8.05755e-05
7.77218e-05
4.21817e-05
6.32287e-05
7.39881e-05
7.92357e-05
8.13843e-05
8.16395e-05
8.03784e-05
7.75297e-05
4.21824e-05
6.3108e-05
7.38232e-05
7.90902e-05
8.12971e-05
8.162e-05
8.04225e-05
7.76267e-05
2.58244e-05
2.43794e-05
2.36513e-05
2.32484e-05
2.30218e-05
2.28722e-05
2.27471e-05
2.25583e-05
3.06748e-05
2.84524e-05
2.65884e-05
2.5008e-05
2.39353e-05
2.34671e-05
2.32633e-05
2.30048e-05
3.40171e-05
3.2569e-05
3.12679e-05
2.99246e-05
2.85105e-05
2.71288e-05
2.58832e-05
2.48716e-05
3.60069e-05
3.51917e-05
3.4118e-05
3.31731e-05
3.25268e-05
3.17905e-05
3.10278e-05
3.04196e-05
3.41661e-05
3.28601e-05
3.17565e-05
3.05987e-05
2.93246e-05
2.7942e-05
2.65817e-05
2.53634e-05
3.08343e-05
2.89544e-05
2.73883e-05
2.58894e-05
2.44681e-05
2.35437e-05
2.31788e-05
2.29538e-05
2.60863e-05
2.45417e-05
2.37048e-05
2.32562e-05
2.29797e-05
2.28221e-05
2.27099e-05
2.25479e-05
7.40082e-05
7.21911e-05
6.93871e-05
6.72569e-05
6.60253e-05
6.5074e-05
6.36275e-05
6.14097e-05
7.46422e-05
7.36777e-05
7.128e-05
6.89349e-05
6.71397e-05
6.54828e-05
6.34602e-05
6.07184e-05
7.39605e-05
7.45859e-05
7.29695e-05
7.05782e-05
6.83239e-05
6.61699e-05
6.36319e-05
6.04828e-05
7.35048e-05
7.4935e-05
7.40187e-05
7.15553e-05
6.91686e-05
6.68793e-05
6.39285e-05
5.92869e-05
7.45167e-05
7.45461e-05
7.26058e-05
7.00629e-05
6.76933e-05
6.54647e-05
6.28022e-05
5.98367e-05
7.53547e-05
7.38653e-05
7.119e-05
6.87771e-05
6.70048e-05
6.54333e-05
6.34625e-05
6.07419e-05
7.44108e-05
7.2102e-05
6.91557e-05
6.70398e-05
6.58412e-05
6.49739e-05
6.36981e-05
6.15997e-05
7.69562e-05
8.13614e-05
8.24844e-05
8.1807e-05
8.05547e-05
7.89847e-05
7.68507e-05
7.3748e-05
7.60658e-05
8.1068e-05
8.24563e-05
8.17964e-05
8.04386e-05
7.87127e-05
7.64085e-05
7.31461e-05
7.47521e-05
8.07293e-05
8.24978e-05
8.1747e-05
8.01812e-05
7.827e-05
7.57809e-05
7.23946e-05
7.34959e-05
7.95811e-05
8.0659e-05
7.85627e-05
7.54226e-05
7.17658e-05
6.75089e-05
6.27669e-05
7.5583e-05
8.10959e-05
8.26071e-05
8.17344e-05
8.0132e-05
7.82527e-05
7.58215e-05
7.24604e-05
7.73112e-05
8.16731e-05
8.26993e-05
8.18727e-05
8.04594e-05
7.87297e-05
7.64357e-05
7.31917e-05
7.81979e-05
8.18682e-05
8.25941e-05
8.17746e-05
8.05197e-05
7.90065e-05
7.6947e-05
7.39088e-05
6.42437e-05
7.47798e-05
8.07688e-05
8.30004e-05
8.31713e-05
8.22356e-05
8.03228e-05
7.71643e-05
6.38288e-05
7.47243e-05
8.08471e-05
8.31012e-05
8.32297e-05
8.22088e-05
8.01903e-05
7.69234e-05
6.32083e-05
7.46313e-05
8.10073e-05
8.33315e-05
8.34349e-05
8.23691e-05
8.03426e-05
7.7157e-05
6.34083e-05
7.4847e-05
8.0717e-05
8.21595e-05
8.11166e-05
7.86607e-05
7.5118e-05
7.07978e-05
6.36703e-05
7.489e-05
8.11342e-05
8.33928e-05
8.34711e-05
8.23964e-05
8.03645e-05
7.7171e-05
6.44051e-05
7.49818e-05
8.09267e-05
8.31079e-05
8.32237e-05
8.22149e-05
8.02174e-05
7.69747e-05
6.47456e-05
7.49007e-05
8.07133e-05
8.29136e-05
8.31236e-05
8.22503e-05
8.03999e-05
7.72919e-05
4.2175e-05
6.30811e-05
7.38015e-05
7.90806e-05
8.13004e-05
8.16345e-05
8.04467e-05
7.76593e-05
4.22788e-05
6.33554e-05
7.40934e-05
7.9316e-05
8.1447e-05
8.16809e-05
8.03899e-05
7.75034e-05
4.22901e-05
6.35188e-05
7.43913e-05
7.96801e-05
8.18316e-05
8.20784e-05
8.08139e-05
7.79724e-05
4.2848e-05
6.43352e-05
7.50816e-05
8.00523e-05
8.18059e-05
8.15863e-05
7.9761e-05
7.63666e-05
4.23035e-05
6.34717e-05
7.43462e-05
7.96446e-05
8.1812e-05
8.20735e-05
8.08188e-05
7.79825e-05
4.22032e-05
6.31068e-05
7.38643e-05
7.91453e-05
8.13436e-05
8.16369e-05
8.03921e-05
7.75396e-05
4.19675e-05
6.25844e-05
7.33565e-05
7.87646e-05
8.11192e-05
8.15655e-05
8.04614e-05
7.77314e-05
2.54707e-05
2.41933e-05
2.35289e-05
2.31952e-05
2.29768e-05
2.28202e-05
2.2683e-05
2.25032e-05
2.91499e-05
2.74681e-05
2.61024e-05
2.49006e-05
2.40134e-05
2.34539e-05
2.31638e-05
2.28785e-05
3.31077e-05
3.19702e-05
3.09697e-05
2.99663e-05
2.88152e-05
2.75135e-05
2.62115e-05
2.50874e-05
3.60378e-05
3.52311e-05
3.44333e-05
3.36715e-05
3.30686e-05
3.24474e-05
3.18173e-05
3.12859e-05
3.44255e-05
3.31825e-05
3.20372e-05
3.0916e-05
2.9689e-05
2.82869e-05
2.68236e-05
2.54678e-05
3.01945e-05
2.8346e-05
2.66714e-05
2.51686e-05
2.4067e-05
2.34017e-05
2.30819e-05
2.28132e-05
2.5491e-05
2.42344e-05
2.36285e-05
2.32779e-05
2.30082e-05
2.28171e-05
2.26571e-05
2.24625e-05
7.44171e-05
7.19858e-05
6.93728e-05
6.73416e-05
6.60179e-05
6.49527e-05
6.35817e-05
6.14659e-05
7.5352e-05
7.34154e-05
7.0746e-05
6.83371e-05
6.64617e-05
6.47851e-05
6.28533e-05
6.02772e-05
7.52843e-05
7.46754e-05
7.2462e-05
6.96419e-05
6.69078e-05
6.44868e-05
6.19351e-05
5.89993e-05
7.50438e-05
7.59096e-05
7.51119e-05
7.25611e-05
6.93318e-05
6.68502e-05
6.45397e-05
6.14485e-05
7.48367e-05
7.46503e-05
7.25247e-05
6.95631e-05
6.6629e-05
6.39858e-05
6.1151e-05
5.83926e-05
7.48345e-05
7.31894e-05
7.05407e-05
6.81322e-05
6.62489e-05
6.45506e-05
6.25972e-05
6.00171e-05
7.41793e-05
7.17473e-05
6.87243e-05