/*--------------------------------*- C++ -*----------------------------------*\
| =========                 |                                                 |
| \\      /  F ield         | OpenFOAM: The Open Source CFD Toolbox           |
|  \\    /   O peration     | Version:  plus.master.MPPICInterFoam            |
|   \\  /    A nd           | Web:      www.OpenFOAM.com                      |
|    \\/     M anipulation  |                                                 |
\*---------------------------------------------------------------------------*/
FoamFile
{
    version     2.0;
    format      ascii;
    class       surfaceScalarField;
    location    "11.8";
    object      alphaPhi;
}
// * * * * * * * * * * * * * * * * * * * * * * * * * * * * * * * * * * * * * //

dimensions      [0 3 -1 0 0 0 0];

internalField   nonuniform List<scalar> 
34004
(
-6.09064e-09
-2.49835e-08
-1.62385e-06
6.05941e-09
-2.20152e-08
-1.38951e-08
-2.05786e-06
-5.25785e-09
-4.06017e-08
-5.3724e-09
-2.41208e-06
-1.41057e-08
-6.09976e-08
3.21898e-09
-2.75792e-06
-2.241e-08
-8.22843e-08
1.15531e-08
-3.11156e-06
-3.05341e-08
-1.02316e-07
1.93554e-08
-3.47875e-06
-3.83921e-08
-1.1918e-07
2.6615e-08
-3.85844e-06
-4.5775e-08
3.30992e-08
-4.24516e-06
-5.23674e-08
-1.31038e-07
-1.09561e-08
-3.92816e-08
-1.64165e-06
-2.90351e-08
-2.87633e-08
-2.08421e-06
-4.70335e-08
-2.11702e-08
-2.45169e-06
-6.71548e-08
-1.33842e-08
-2.79806e-06
-8.88504e-08
-6.49483e-09
-3.14772e-06
-1.09151e-07
-1.70207e-10
-3.51379e-06
-1.2608e-07
5.79989e-09
-3.8947e-06
1.12542e-08
-4.2843e-06
-1.3786e-07
-2.09136e-08
-4.24523e-08
-1.66161e-06
-3.9707e-08
-3.42764e-08
-2.13053e-06
-4.79905e-08
-2.8693e-08
-2.53804e-06
-6.64761e-08
-2.52488e-08
-2.87327e-06
-9.24433e-08
-2.21651e-08
-3.20349e-06
-1.13608e-07
-1.83765e-08
-3.55294e-06
-1.31309e-07
-1.47005e-08
-3.92787e-06
-1.12803e-08
-4.31686e-06
-1.43717e-07
-1.80764e-08
-5.05381e-08
-1.65576e-06
-4.02732e-08
-4.50113e-08
-2.10211e-06
-6.08765e-08
-4.1927e-08
-2.48048e-06
-8.29302e-08
-4.02151e-08
-2.84094e-06
-1.05602e-07
-3.89863e-08
-3.18643e-06
-1.26392e-07
-3.76091e-08
-3.55138e-06
-1.43586e-07
-3.62707e-08
-3.93555e-06
-3.50303e-08
-4.33053e-06
-1.55214e-07
-1.81226e-08
-5.90039e-08
-1.64796e-06
-4.17761e-08
-5.63122e-08
-2.08485e-06
-6.47044e-08
-5.53921e-08
-2.44824e-06
-8.8463e-08
-5.56542e-08
-2.80027e-06
-1.12138e-07
-5.63203e-08
-3.16039e-06
-1.33547e-07
-5.70807e-08
-3.53601e-06
-1.5075e-07
-5.7866e-08
-3.92589e-06
-5.86297e-08
-4.32416e-06
-1.61974e-07
-1.7918e-08
-6.63505e-08
-1.63674e-06
-4.23791e-08
-6.60873e-08
-2.06981e-06
-6.73332e-08
-6.72048e-08
-2.4278e-06
-9.27041e-08
-6.93946e-08
-2.77787e-06
-1.17052e-07
-7.19606e-08
-3.13906e-06
-1.38459e-07
-7.46207e-08
-3.51532e-06
-1.55294e-07
-7.72255e-08
-3.90494e-06
-7.96176e-08
-4.30229e-06
-1.65938e-07
-1.89304e-08
-1.621e-06
-7.06914e-08
-4.50871e-08
-2.05076e-06
-7.25221e-08
-7.25904e-08
-2.40393e-06
-7.53558e-08
-1.00043e-07
-2.75184e-06
-7.91187e-08
-1.25643e-07
-3.11077e-06
-8.32498e-08
-1.47743e-07
-3.48384e-06
-8.74887e-08
-1.64765e-07
-3.86954e-06
-9.16069e-08
-4.26222e-06
-9.53631e-08
-1.75062e-07
-7.64462e-09
-1.92034e-08
-1.5983e-06
1.28113e-09
-2.36554e-08
-6.99731e-09
-2.02371e-06
-1.11449e-08
-4.14757e-08
1.88932e-09
-2.37593e-06
-2.01947e-08
-6.09692e-08
1.02524e-08
-2.72036e-06
-2.82894e-08
-8.19882e-08
1.77825e-08
-3.07224e-06
-3.6049e-08
-1.02303e-07
2.48274e-08
-3.43979e-06
-4.34482e-08
-1.20004e-07
3.1388e-08
-3.82178e-06
-5.03263e-08
3.72737e-08
-4.21268e-06
-5.64346e-08
-1.33315e-07
-1.21357e-08
-3.24505e-08
-1.61629e-06
-2.97891e-08
-2.12498e-08
-2.0523e-06
-4.77809e-08
-1.31437e-08
-2.41864e-06
-6.8085e-08
-6.17585e-09
-2.7613e-06
-8.93018e-08
-3.98175e-10
-3.10828e-06
-1.09322e-07
5.0995e-09
-3.47401e-06
-1.26517e-07
1.03551e-08
-3.85644e-06
1.5204e-08
-4.24945e-06
-1.39258e-07
-1.90755e-08
-3.69943e-08
-1.63801e-06
-3.48403e-08
-2.94057e-08
-2.10661e-06
-4.82124e-08
-2.45815e-08
-2.51322e-06
-7.19032e-08
-2.1521e-08
-2.8339e-06
-9.68274e-08
-1.83163e-08
-3.16064e-06
-1.16866e-07
-1.47549e-08
-3.51305e-06
-1.33732e-07
-1.14173e-08
-3.88924e-06
-8.37308e-09
-4.281e-06
-1.46034e-07
-1.80526e-08
-4.51037e-08
-1.62962e-06
-3.88272e-08
-4.07799e-08
-2.06996e-06
-6.01009e-08
-3.88498e-08
-2.44516e-06
-8.36867e-08
-3.74679e-08
-2.80141e-06
-1.06366e-07
-3.6191e-08
-3.14588e-06
-1.26365e-07
-3.49507e-08
-3.5112e-06
-1.43205e-07
-3.38806e-08
-3.89628e-06
-3.29616e-08
-4.29403e-06
-1.55172e-07
-1.91115e-08
-5.30854e-08
-1.62089e-06
-4.22431e-08
-5.18299e-08
-2.05068e-06
-6.41644e-08
-5.18473e-08
-2.41333e-06
-8.71441e-08
-5.25655e-08
-2.76219e-06
-1.1031e-07
-5.35821e-08
-3.11982e-06
-1.31383e-07
-5.46569e-08
-3.49521e-06
-1.48782e-07
-5.5756e-08
-3.88656e-06
-5.68251e-08
-4.28809e-06
-1.60895e-07
-1.9005e-08
-6.00968e-08
-1.61075e-06
-4.30315e-08
-6.15293e-08
-2.03611e-06
-6.61603e-08
-6.35293e-08
-2.39301e-06
-9.07574e-08
-6.638e-08
-2.73948e-06
-1.14496e-07
-6.93972e-08
-3.09953e-06
-1.35786e-07
-7.24258e-08
-3.47629e-06
-1.53109e-07
-7.5345e-08
-3.86807e-06
-7.80144e-08
-4.26934e-06
-1.64933e-07
-1.947e-08
-1.59684e-06
-6.48078e-08
-4.48576e-08
-2.01837e-06
-6.8535e-08
-7.09834e-08
-2.36905e-06
-7.22849e-08
-9.74334e-08
-2.71513e-06
-7.66166e-08
-1.2252e-07
-3.07392e-06
-8.11301e-08
-1.44678e-07
-3.44843e-06
-8.56281e-08
-1.62456e-07
-3.83711e-06
-8.99185e-08
-4.23453e-06
-9.37911e-08
-1.74265e-07
-9.58566e-09
-1.16453e-08
-1.5718e-06
-5.26665e-09
-2.59066e-08
9.17071e-10
-1.99018e-06
-1.80334e-08
-4.29922e-08
9.87837e-09
-2.34197e-06
-2.6674e-08
-6.17562e-08
1.7075e-08
-2.68451e-06
-3.40884e-08
-8.25775e-08
2.34699e-08
-3.03377e-06
-4.10647e-08
-1.03053e-07
2.94384e-08
-3.40109e-06
-4.76133e-08
-1.21252e-07
3.49878e-08
-3.78492e-06
-5.36165e-08
3.99743e-08
-4.17952e-06
-5.88965e-08
-1.3547e-07
-1.3161e-08
-2.44177e-08
-1.59031e-06
-3.05702e-08
-1.32928e-08
-2.0206e-06
-4.8993e-08
-5.08659e-09
-2.38519e-06
-6.95147e-08
-5.99169e-11
-2.72359e-06
-9.05626e-08
4.88864e-09
-3.06862e-06
-1.10189e-07
9.46364e-09
-3.43439e-06
-1.27257e-07
1.38084e-08
-3.81819e-06
1.78157e-08
-4.21424e-06
-1.40328e-07
-1.60718e-08
-3.2027e-08
-1.61429e-06
-2.87416e-08
-2.5105e-08
-2.08206e-06
-5.41149e-08
-2.17832e-08
-2.47091e-06
-7.77214e-08
-1.80597e-08
-2.79244e-06
-1.00471e-07
-1.49354e-08
-3.11804e-06
-1.20006e-07
-1.18939e-08
-3.47214e-06
-1.36004e-07
-9.0763e-09
-3.85035e-06
-6.54784e-09
-4.24487e-06
-1.47766e-07
-1.77777e-08
-4.07726e-08
-1.60307e-06
-3.75072e-08
-3.75645e-08
-2.03773e-06
-6.00049e-08
-3.6436e-08
-2.4082e-06
-8.41553e-08
-3.52178e-08
-2.76007e-06
-1.06696e-07
-3.40291e-08
-3.10423e-06
-1.26229e-07
-3.30242e-08
-3.47052e-06
-1.42422e-07
-3.22276e-08
-3.85692e-06
-3.16156e-08
-4.25717e-06
-1.54184e-07
-1.94809e-08
-4.90286e-08
-1.59314e-06
-4.19839e-08
-4.89417e-08
-2.01678e-06
-6.36864e-08
-4.96533e-08
-2.37839e-06
-8.63162e-08
-5.06896e-08
-2.72408e-06
-1.08883e-07
-5.18541e-08
-3.07944e-06
-1.29162e-07
-5.30817e-08
-3.45489e-06
-1.46121e-07
-5.43534e-08
-3.8475e-06
-5.56102e-08
-4.25191e-06
-1.58345e-07
-1.96543e-08
-5.63819e-08
-1.58374e-06
-4.30405e-08
-5.90588e-08
-2.00259e-06
-6.5185e-08
-6.16539e-08
-2.35885e-06
-8.87255e-08
-6.47833e-08
-2.70184e-06
-1.11792e-07
-6.79661e-08
-3.06035e-06
-1.32583e-07
-7.10895e-08
-3.43749e-06
-1.49852e-07
-7.40695e-08
-3.83107e-06
-7.67902e-08
-4.23581e-06
-1.62172e-07
-1.9896e-08
-1.57141e-06
-6.1913e-08
-4.4515e-08
-1.98591e-06
-6.68755e-08
-6.91841e-08
-2.33489e-06
-7.11212e-08
-9.46386e-08
-2.67875e-06
-7.56961e-08
-1.19025e-07
-3.03721e-06
-8.02843e-08
-1.4088e-07
-3.41291e-06
-8.47589e-08
-1.58866e-07
-3.80425e-06
-8.89621e-08
-4.20603e-06
-9.27244e-08
-1.71467e-07
-1.12057e-08
-3.29706e-09
-1.5445e-06
-1.27576e-08
-2.76352e-08
8.93167e-09
-1.95751e-06
-2.50597e-08
-4.43159e-08
1.7007e-08
-2.30944e-06
-3.27769e-08
-6.28764e-08
2.29126e-08
-2.64943e-06
-3.90845e-08
-8.34411e-08
2.78822e-08
-2.99612e-06
-4.49278e-08
-1.03614e-07
3.25604e-08
-3.36317e-06
-5.02801e-08
-1.21703e-07
3.68807e-08
-3.7486e-06
-5.50902e-08
4.07357e-08
-4.14659e-06
-5.92433e-08
-1.3611e-07
-1.36191e-08
-1.61832e-08
-1.56373e-06
-3.03885e-08
-5.74748e-09
-1.98906e-06
-4.96062e-08
7.09428e-10
-2.34961e-06
-7.11334e-08
5.18826e-09
-2.68428e-06
-9.1508e-08
8.95645e-09
-3.02927e-06
-1.10415e-07
1.24658e-08
-3.39535e-06
-1.26907e-07
1.5767e-08
-3.78056e-06
1.87927e-08
-4.17947e-06
-1.39709e-07
-1.3033e-08
-2.74196e-08
-1.58997e-06
-2.87698e-08
-2.14547e-08
-2.05034e-06
-5.52716e-08
-1.81832e-08
-2.42564e-06
-8.0462e-08
-1.49101e-08
-2.7473e-06
-1.0281e-07
-1.2354e-08
-3.07433e-06
-1.21326e-07
-9.93322e-09
-3.43119e-06
-1.36325e-07
-7.74858e-09
-3.8118e-06
-5.84643e-09
-4.20925e-06
-1.47283e-07
-1.72501e-08
-3.71649e-08
-1.57603e-06
-3.64603e-08
-3.48941e-08
-2.00502e-06
-5.8642e-08
-3.41277e-08
-2.36981e-06
-8.41819e-08
-3.33656e-08
-2.71603e-06
-1.05816e-07
-3.23956e-08
-3.06252e-06
-1.2439e-07
-3.1671e-08
-3.43019e-06
-1.39707e-07
-3.11863e-08
-3.81814e-06
-3.09001e-08
-4.22095e-06
-1.50857e-07
-1.8995e-08
-4.63381e-08
-1.56494e-06
-4.04736e-08
-4.71111e-08
-1.98304e-06
-6.24962e-08
-4.82677e-08
-2.3422e-06
-8.56506e-08
-4.95235e-08
-2.68475e-06
-1.06793e-07
-5.06762e-08
-3.04e-06
-1.25831e-07
-5.1937e-08
-3.41557e-06
-1.41841e-07
-5.32606e-08
-3.80939e-06
-5.4583e-08
-4.21647e-06
-1.53559e-07
-1.9461e-08
-5.46383e-08
-1.55596e-06
-4.18454e-08
-5.80744e-08
-1.96921e-06
-6.37759e-08
-6.10226e-08
-2.32414e-06
-8.65764e-08
-6.40985e-08
-2.66445e-06
-1.08412e-07
-6.71376e-08
-3.02205e-06
-1.2815e-07
-7.00973e-08
-3.39959e-06
-1.44729e-07
-7.29052e-08
-3.79485e-06
-7.54657e-08
-4.20283e-06
-1.5683e-07
-1.98855e-08
-1.54488e-06
-6.12568e-08
-4.35852e-08
-1.95345e-06
-6.68016e-08
-6.70418e-08
-2.30129e-06
-7.11441e-08
-9.14366e-08
-2.64284e-06
-7.56035e-08
-1.14751e-07
-3.00108e-06
-7.99433e-08
-1.35798e-07
-3.37786e-06
-8.40926e-08
-1.53372e-07
-3.77165e-06
-8.79303e-08
-4.17749e-06
-9.13283e-08
-1.66037e-07
-1.21945e-08
4.80254e-09
-1.51675e-06
-2.0313e-08
-2.81463e-08
1.56963e-08
-1.92591e-06
-3.13075e-08
-4.52672e-08
2.23958e-08
-2.277e-06
-3.7684e-08
-6.37148e-08
2.69008e-08
-2.61559e-06
-4.25549e-08
-8.4194e-08
3.04566e-08
-2.95903e-06
-4.70476e-08
-1.03521e-07
3.37664e-08
-3.3266e-06
-5.09875e-08
-1.20808e-07
3.67544e-08
-3.71367e-06
-5.43772e-08
3.93424e-08
-4.1149e-06
-5.71781e-08
-1.34648e-07
-1.37252e-08
-8.7389e-09
-1.53643e-06
-2.95043e-08
1.29293e-10
-1.95767e-06
-4.96499e-08
5.51046e-09
-2.31254e-06
-7.14662e-08
8.83589e-09
-2.64436e-06
-9.11215e-08
1.14332e-08
-2.99056e-06
-1.09116e-07
1.38395e-08
-3.3574e-06
-1.24699e-07
1.60463e-08
-3.74425e-06
1.80158e-08
-4.14607e-06
-1.36759e-07
-1.09253e-08
-2.30288e-08
-1.56471e-06
-2.83656e-08
-1.81328e-08
-2.01464e-06
-5.48825e-08
-1.53402e-08
-2.37841e-06
-8.15308e-08
-1.27848e-08
-2.6988e-06
-1.02573e-07
-1.07099e-08
-3.03111e-06
-1.1993e-07
-8.93073e-09
-3.39102e-06
-1.33873e-07
-7.43653e-09
-3.77434e-06
-6.22347e-09
-4.17494e-06
-1.43898e-07
-1.65447e-08
-3.40388e-08
-1.54844e-06
-3.5353e-08
-3.25404e-08
-1.97177e-06
-5.6999e-08
-3.19931e-08
-2.33148e-06
-8.20453e-08
-3.17158e-08
-2.67202e-06
-1.02647e-07
-3.11149e-08
-3.02147e-06
-1.20199e-07
-3.07244e-08
-3.39079e-06
-1.34533e-07
-3.05662e-08
-3.78062e-06
-3.06009e-08
-4.18619e-06
-1.44854e-07
-1.78647e-08
-4.45089e-08
-1.53657e-06
-3.79433e-08
-4.57926e-08
-1.94968e-06
-6.09526e-08
-4.71745e-08
-2.30399e-06
-8.33432e-08
-4.84785e-08
-2.64558e-06
-1.03032e-07
-4.96364e-08
-3.00176e-06
-1.20666e-07
-5.08702e-08
-3.37775e-06
-1.35455e-07
-5.21536e-08
-3.77297e-06
-5.34371e-08
-4.18277e-06
-1.46279e-07
-1.84667e-08
-5.41551e-08
-1.52782e-06
-3.94671e-08
-5.78563e-08
-1.93613e-06
-6.17852e-08
-6.08369e-08
-2.28816e-06
-8.3733e-08
-6.36529e-08
-2.62732e-06
-1.0391e-07
-6.63269e-08
-2.98517e-06
-1.22177e-07
-6.89154e-08
-3.36325e-06
-1.37592e-07
-7.13482e-08
-3.76021e-06
-7.35511e-08
-4.17134e-06
-1.48933e-07
-1.92718e-08
-1.51773e-06
-6.2016e-08
-4.1731e-08
-1.92135e-06
-6.74938e-08
-6.4622e-08
-2.26761e-06
-7.16274e-08
-8.76719e-08
-2.60784e-06
-7.56088e-08
-1.09512e-07
-2.96616e-06
-7.94091e-08
-1.29258e-07
-3.34406e-06
-8.29663e-08
-1.45849e-07
-3.7402e-06
-8.61853e-08
-4.14994e-06
-8.89801e-08
-1.57939e-07
-1.25556e-08
1.17359e-08
-1.48897e-06
-2.69515e-08
-2.79048e-08
2.06749e-08
-1.8953e-06
-3.59464e-08
-4.45212e-08
2.55642e-08
-2.2453e-06
-4.06493e-08
-6.5169e-08
2.84606e-08
-2.57945e-06
-4.42298e-08
-8.43651e-08
3.09112e-08
-2.92366e-06
-4.7067e-08
-1.02396e-07
3.29208e-08
-3.292e-06
-4.94659e-08
-1.18345e-07
3.45561e-08
-3.68091e-06
-5.13399e-08
3.58272e-08
-4.08536e-06
-5.26753e-08
-1.30995e-07
-1.33994e-08
-2.65872e-09
-1.50863e-06
-2.918e-08
4.57945e-09
-1.92578e-06
-4.91808e-08
8.53103e-09
-2.27548e-06
-7.00858e-08
1.06386e-08
-2.60561e-06
-8.91592e-08
1.21793e-08
-2.95273e-06
-1.06123e-07
1.35396e-08
-3.32103e-06
-1.20557e-07
1.46822e-08
-3.70991e-06
1.55953e-08
-4.11483e-06
-1.31532e-07
-9.80106e-09
-1.90668e-08
-1.53849e-06
-2.61042e-08
-1.50699e-08
-1.97901e-06
-5.37857e-08
-1.32135e-08
-2.32879e-06
-7.94988e-08
-1.13949e-08
-2.65102e-06
-9.92938e-08
-9.90162e-09
-2.9892e-06
-1.15658e-07
-8.80591e-09
-3.35227e-06
-1.2863e-07
-8.02328e-09
-3.73862e-06
-7.50926e-09
-4.1427e-06
-1.37719e-07
-1.55313e-08
-3.15028e-08
-1.52045e-06
-3.37996e-08
-3.06609e-08
-1.9379e-06
-5.52617e-08
-3.04075e-08
-2.2928e-06
-7.80432e-08
-3.03576e-08
-2.63025e-06
-9.7484e-08
-3.01358e-08
-2.98176e-06
-1.13896e-07
-3.00621e-08
-3.35308e-06
-1.27135e-07
-3.01931e-08
-3.74516e-06
-3.05065e-08
-4.15376e-06
-1.36509e-07
-1.65286e-08
-4.31798e-08
-1.50836e-06
-3.54658e-08
-4.46904e-08
-1.91672e-06
-5.80559e-08
-4.60298e-08
-2.26577e-06
-7.87867e-08
-4.73394e-08
-2.60784e-06
-9.73692e-08
-4.84762e-08
-2.9648e-06
-1.13634e-07
-4.9604e-08
-3.34189e-06
-1.27123e-07
-5.07459e-08
-3.73887e-06
-5.18833e-08
-4.15157e-06
-1.36884e-07
-1.69493e-08
-5.42442e-08
-1.49981e-06
-3.63707e-08
-5.77297e-08
-1.90369e-06
-5.89475e-08
-6.04316e-08
-2.25119e-06
-7.92025e-08
-6.28081e-08
-2.59159e-06
-9.78816e-08
-6.50359e-08
-2.9499e-06
-1.14602e-07
-6.71177e-08
-3.32898e-06
-1.28648e-07
-6.90175e-08
-3.72784e-06
-7.06992e-08
-4.14219e-06
-1.38935e-07
-1.81126e-08
-1.49051e-06
-6.33605e-08
-3.90077e-08
-1.89003e-06
-6.81884e-08
-6.16512e-08
-2.2336e-06
-7.18184e-08
-8.3053e-08
-2.57418e-06
-7.506e-08
-1.03185e-07
-2.93295e-06
-7.80972e-08
-1.21337e-07
-3.31214e-06
-8.08532e-08
-1.36576e-07
-3.71069e-06
-8.32485e-08
-4.12427e-06
-8.52389e-08
-1.47665e-07
-1.22523e-08
1.69773e-08
-1.46186e-06
-3.18479e-08
-2.67142e-08
2.35256e-08
-1.86604e-06
-3.83181e-08
-4.48545e-08
2.64962e-08
-2.21225e-06
-4.13927e-08
-6.59294e-08
2.80982e-08
-2.54267e-06
-4.35067e-08
-8.37039e-08
2.9389e-08
-2.89043e-06
-4.48287e-08
-1.00137e-07
3.01529e-08
-3.25998e-06
-4.57268e-08
-1.14392e-07
3.04911e-08
-3.65101e-06
-4.6108e-08
3.04799e-08
-4.05876e-06
-4.59837e-08
-1.25434e-07
-1.26749e-08
1.95284e-09
-1.48093e-06
-2.82703e-08
7.20387e-09
-1.89385e-06
-4.86192e-08
9.5057e-09
-2.23813e-06
-6.83624e-08
1.05898e-08
-2.56835e-06
-8.62388e-08
1.13274e-08
-2.91677e-06
-1.01877e-07
1.17567e-08
-3.28697e-06
-1.14907e-07
1.19148e-08
-3.67827e-06
1.18367e-08
-4.0865e-06
-1.24542e-07
-8.78084e-09
-1.59486e-08
-1.5118e-06
-2.5862e-08
-1.30937e-08
-1.94141e-06
-5.1469e-08
-1.17836e-08
-2.28187e-06
-7.50388e-08
-1.07307e-08
-2.60611e-06
-9.40359e-08
-9.92569e-09
-2.94892e-06
-1.09377e-07
-9.46028e-09
-3.31568e-06
-1.21331e-07
-9.31572e-09
-3.70539e-06
-9.43638e-09
-4.11325e-06
-1.29455e-07
-1.39761e-08
-2.96561e-08
-1.49277e-06
-3.15185e-08
-2.93343e-08
-1.90411e-06
-5.31791e-08
-2.93944e-08
-2.25351e-06
-7.30664e-08
-2.93036e-08
-2.59176e-06
-9.0936e-08
-2.93383e-08
-2.94444e-06
-1.06054e-07
-2.95119e-08
-3.31786e-06
-1.18155e-07
-2.98589e-08
-3.71246e-06
-3.03749e-08
-4.12436e-06
-1.26555e-07
-1.51231e-08
-4.22167e-08
-1.48068e-06
-3.31885e-08
-4.37126e-08
-1.88428e-06
-5.36024e-08
-4.48178e-08
-2.22992e-06
-7.29444e-08
-4.60063e-08
-2.57177e-06
-9.02225e-08
-4.69924e-08
-2.92983e-06
-1.05178e-07
-4.79128e-08
-3.30849e-06
-1.17407e-07
-4.88127e-08
-3.70765e-06
-4.97015e-08
-4.12351e-06
-1.26097e-07
-1.52339e-08
-5.44344e-08
-1.47237e-06
-3.33019e-08
-5.73057e-08
-1.87204e-06
-5.44126e-08
-5.94423e-08
-2.21544e-06
-7.33126e-08
-6.13067e-08
-2.55737e-06
-9.05393e-08
-6.2965e-08
-2.91668e-06
-1.05778e-07
-6.44181e-08
-3.29721e-06
-1.18439e-07
-6.56607e-08
-3.69831e-06
-6.66948e-08
-4.11604e-06
-1.27588e-07
-1.65921e-08
-1.46378e-06
-6.45998e-08
-3.59037e-08
-1.85975e-06
-6.82828e-08
-5.75558e-08
-2.20027e-06
-7.11113e-08
-7.73514e-08
-2.54221e-06
-7.34746e-08
-9.58075e-08
-2.90184e-06
-7.56081e-08
-1.12316e-07
-3.28262e-06
-7.74176e-08
-1.26065e-07
-3.68376e-06
-7.88454e-08
-4.10119e-06
-7.98879e-08
-1.35956e-07
-1.17596e-08
2.03332e-08
-1.43595e-06
-3.44741e-08
-2.62385e-08
2.44129e-08
-1.8377e-06
-3.83009e-08
-4.62106e-08
2.55898e-08
-2.17832e-06
-3.95853e-08
-6.51685e-08
2.61204e-08
-2.50953e-06
-4.03386e-08
-8.20811e-08
2.61809e-08
-2.85923e-06
-4.0492e-08
-9.68187e-08
2.57835e-08
-3.23096e-06
-4.00579e-08
-1.092e-07
2.49547e-08
-3.62449e-06
-3.90687e-08
2.37832e-08
-4.03567e-06
-3.75962e-08
-1.18434e-07
-1.15217e-08
5.01146e-09
-1.45409e-06
-2.75632e-08
8.06213e-09
-1.86149e-06
-4.78698e-08
9.09287e-09
-2.20135e-06
-6.63621e-08
9.31033e-09
-2.53306e-06
-8.27097e-08
9.23329e-09
-2.88348e-06
-9.67881e-08
8.83698e-09
-3.25592e-06
-1.08252e-07
8.1369e-09
-3.64995e-06
7.1926e-09
-4.06168e-06
-1.16422e-07
-7.83981e-09
-1.38694e-08
-1.48508e-06
-2.52078e-08
-1.21938e-08
-1.90381e-06
-4.98054e-08
-1.15072e-08
-2.23651e-06
-7.05649e-08
-1.09261e-08
-2.56511e-06
-8.8061e-08
-1.06324e-08
-2.91154e-06
-1.02093e-07
-1.0662e-08
-3.28212e-06
-1.1288e-07
-1.10227e-08
-3.6754e-06
-1.16553e-08
-4.08722e-06
-1.19994e-07
-1.24637e-08
-2.83556e-08
-1.46582e-06
-2.91808e-08
-2.83613e-08
-1.87122e-06
-4.98751e-08
-2.84572e-08
-2.21586e-06
-6.75595e-08
-2.83984e-08
-2.55659e-06
-8.36365e-08
-2.8556e-08
-2.91041e-06
-9.74027e-08
-2.88754e-08
-3.28585e-06
-1.08372e-07
-2.93404e-08
-3.68314e-06
-2.99585e-08
-4.09855e-06
-1.15839e-07
-1.35606e-08
-4.14849e-08
-1.45399e-06
-3.02614e-08
-4.26922e-08
-1.85324e-06
-4.90271e-08
-4.35165e-08
-2.19608e-06
-6.65783e-08
-4.43385e-08
-2.53826e-06
-8.23799e-08
-4.50158e-08
-2.89755e-06
-9.60334e-08
-4.56213e-08
-3.27808e-06
-1.07065e-07
-4.61842e-08
-3.67976e-06
-4.67328e-08
-4.09904e-06
-1.14746e-07
-1.34954e-08
-5.44332e-08
-1.44593e-06
-3.0192e-08
-5.63624e-08
-1.84167e-06
-4.92258e-08
-5.77833e-08
-2.18213e-06
-6.66907e-08
-5.8968e-08
-2.52527e-06
-8.24862e-08
-5.99292e-08
-2.88597e-06
-9.63174e-08
-6.06544e-08
-3.26835e-06
-1.07655e-07
-6.11528e-08
-3.67202e-06
-6.1456e-08
-4.09329e-06
-1.15699e-07
-1.49659e-08
-1.43799e-06
-6.52573e-08
-3.289e-08
-1.83078e-06
-6.74079e-08
-5.25045e-08
-2.1693e-06
-6.91442e-08
-7.08762e-08
-2.51222e-06
-7.05919e-08
-8.77664e-08
-2.87316e-06
-7.17371e-08
-1.02684e-07
-3.25587e-06
-7.25127e-08
-1.14935e-07
-3.65979e-06
-7.28932e-08
-4.08111e-06
-7.29115e-08
-1.23581e-07
-1.11034e-08
2.18063e-08
-1.41191e-06
-3.4753e-08
-2.69773e-08
2.33594e-08
-1.80941e-06
-3.59209e-08
-4.66081e-08
2.31381e-08
-2.14626e-06
-3.56918e-08
-6.41152e-08
2.26058e-08
-2.47927e-06
-3.54567e-08
-7.94477e-08
2.16687e-08
-2.8311e-06
-3.45225e-08
-9.246e-08
2.02853e-08
-3.20532e-06
-3.29385e-08
-1.02983e-07
1.84765e-08
-3.60165e-06
-3.07824e-08
1.63376e-08
-4.01637e-06
-2.81625e-08
-1.10431e-07
-1.02779e-08
6.72953e-09
-1.42881e-06
-2.71217e-08
7.68721e-09
-1.8291e-06
-4.67332e-08
7.47328e-09
-2.16617e-06
-6.3656e-08
7.08593e-09
-2.50069e-06
-7.84724e-08
6.29526e-09
-2.85333e-06
-9.09957e-08
5.2136e-09
-3.22833e-06
-1.00917e-07
3.82569e-09
-3.62535e-06
2.1904e-09
-4.04074e-06
-1.07676e-07
-7.52936e-09
-1.29441e-08
-1.45792e-06
-2.59923e-08
-1.2164e-08
-1.86573e-06
-4.72476e-08
-1.17248e-08
-2.19628e-06
-6.62272e-08
-1.1517e-08
-2.52757e-06
-8.167e-08
-1.16086e-08
-2.87821e-06
-9.42894e-08
-1.20334e-08
-3.25224e-06
-1.03902e-07
-1.27682e-08
-3.64917e-06
-1.37666e-08
-4.06508e-06
-1.1005e-07
-1.14666e-08
-2.74733e-08
-1.43984e-06
-2.76332e-08
-2.75677e-08
-1.83968e-06
-4.55098e-08
-2.74782e-08
-2.18225e-06
-6.20788e-08
-2.75002e-08
-2.52405e-06
-7.64189e-08
-2.76439e-08
-2.88004e-06
-8.86669e-08
-2.79521e-08
-3.25768e-06
-9.8529e-08
-2.84125e-08
-3.65762e-06
-2.90195e-08
-4.07668e-06
-1.05129e-07
-1.21107e-08
-4.07259e-08
-1.42863e-06
-2.74876e-08
-4.13996e-08
-1.82405e-06
-4.43066e-08
-4.1799e-08
-2.16495e-06
-6.0223e-08
-4.21534e-08
-2.5077e-06
-7.45623e-08
-4.24122e-08
-2.86845e-06
-8.69192e-08
-4.26067e-08
-3.25108e-06
-9.67958e-08
-4.27477e-08
-3.65555e-06
-4.28789e-08
-4.07844e-06
-1.03542e-07
-1.19115e-08
-5.3921e-08
-1.42082e-06
-2.72051e-08
-5.46373e-08
-1.81315e-06
-4.40055e-08
-5.5198e-08
-2.15195e-06
-5.99484e-08
-5.56253e-08
-2.49588e-06
-7.43469e-08
-5.58213e-08
-2.85818e-06
-8.68348e-08
-5.57648e-08
-3.24273e-06
-9.69197e-08
-5.5476e-08
-3.64924e-06
-5.50113e-08
-4.07418e-06
-1.03929e-07
-1.33983e-08
-1.41352e-06
-6.49866e-08
-2.98982e-08
-1.80356e-06
-6.53678e-08
-4.74497e-08
-2.14107e-06
-6.59023e-08
-6.42735e-08
-2.48472e-06
-6.63398e-08
-7.95995e-08
-2.84725e-06
-6.64452e-08
-9.29524e-08
-3.23216e-06
-6.61548e-08
-1.03732e-07
-3.63904e-06
-6.5472e-08
-4.06425e-06
-6.44589e-08
-1.11157e-07
-1.07124e-08
2.15737e-08
-1.38973e-06
-3.30949e-08
-2.72182e-08
2.07261e-08
-1.78218e-06
-3.16685e-08
-4.59832e-08
1.94509e-08
-2.11648e-06
-3.06279e-08
-6.19005e-08
1.81183e-08
-2.45221e-06
-2.93788e-08
-7.56474e-08
1.63802e-08
-2.80632e-06
-2.74843e-08
-8.70301e-08
1.42122e-08
-3.18322e-06
-2.49652e-08
-9.58631e-08
1.16464e-08
-3.58258e-06
-2.18928e-08
8.77891e-09
-4.0009e-06
-1.83873e-08
-1.01719e-07
-9.85445e-09
7.42017e-09
-1.40493e-06
-2.61536e-08
6.67265e-09
-1.79893e-06
-4.42835e-08
5.44582e-09
-2.13418e-06
-5.99934e-08
4.34128e-09
-2.4713e-06
-7.34454e-08
2.99595e-09
-2.82655e-06
-8.45682e-08
1.38418e-09
-3.20441e-06
-9.30901e-08
-5.31317e-10
-3.60467e-06
-2.61986e-09
-4.02382e-06
-9.86146e-08
-7.40942e-09
-1.25577e-08
-1.43063e-06
-2.63815e-08
-1.24011e-08
-1.82767e-06
-4.49672e-08
-1.20576e-08
-2.16046e-06
-6.14834e-08
-1.21467e-08
-2.49463e-06
-7.51687e-08
-1.25712e-08
-2.849e-06
-8.63807e-08
-1.3213e-08
-3.22646e-06
-9.48623e-08
-1.41687e-08
-3.62706e-06
-1.53764e-08
-4.04707e-06
-1.00115e-07
-1.04996e-08
-2.67469e-08
-1.41522e-06
-2.5669e-08
-2.66874e-08
-1.81032e-06
-4.17628e-08
-2.63982e-08
-2.15189e-06
-5.7074e-08
-2.62918e-08
-2.49444e-06
-6.9094e-08
-2.62802e-08
-2.85434e-06
-8.04272e-08
-2.6528e-08
-3.23305e-06
-8.92276e-08
-2.68751e-08
-3.63613e-06
-2.73535e-08
-4.05897e-06
-9.49742e-08
-1.08116e-08
-3.96874e-08
-1.40492e-06
-2.48987e-08
-3.96441e-08
-1.79706e-06
-4.00179e-08
-3.95029e-08
-2.13677e-06
-5.44102e-08
-3.93242e-08
-2.48031e-06
-6.72847e-08
-3.90964e-08
-2.84278e-06
-7.83294e-08
-3.87924e-08
-3.22778e-06
-8.70571e-08
-3.84425e-08
-3.63527e-06
-3.80979e-08
-4.06186e-06
-9.29119e-08
-1.05288e-08
-5.2651e-08
-1.39735e-06
-2.43879e-08
-5.20176e-08
-1.78696e-06
-3.93113e-08
-5.16499e-08
-2.12491e-06
-5.36586e-08
-5.1258e-08
-2.46962e-06
-6.66293e-08
-5.06468e-08
-2.83369e-06
-7.7768e-08
-4.97846e-08
-3.22062e-06
-8.66262e-08
-4.87027e-08
-3.63012e-06
-4.74753e-08
-4.05877e-06
-9.2658e-08
-1.19893e-08
-1.39066e-06
-6.35424e-08
-2.70009e-08
-1.77855e-06
-6.20636e-08
-4.27747e-08
-2.1156e-06
-6.13861e-08
-5.79186e-08
-2.46011e-06
-6.07568e-08
-7.16491e-08
-2.82437e-06
-5.98155e-08
-8.34401e-08
-3.21168e-06
-5.84851e-08
-9.27733e-08
-3.62161e-06
-5.6785e-08
-4.05063e-06
-5.47982e-08
-9.903e-08
-1.0882e-08
1.9972e-08
-1.36892e-06
-2.99899e-08
-2.68027e-08
1.73454e-08
-1.75712e-06
-2.66461e-08
-4.36846e-08
1.52723e-08
-2.09017e-06
-2.48097e-08
-5.84035e-08
1.32036e-08
-2.42813e-06
-2.26397e-08
-7.07302e-08
1.08391e-08
-2.78491e-06
-1.99712e-08
-8.06315e-08
8.11056e-09
-3.1647e-06
-1.67543e-08
-8.79772e-08
5.03375e-09
-3.56725e-06
-1.30386e-08
1.69634e-09
-3.98917e-06
-8.93813e-09
-9.24869e-08
-9.74459e-09
6.98099e-09
-1.38232e-06
-2.48237e-08
4.93607e-09
-1.7716e-06
-4.1163e-08
3.21791e-09
-2.10589e-06
-5.56251e-08
1.53322e-09
-2.44524e-06
-6.77912e-08
-2.49708e-10
-2.80335e-06
-7.76463e-08
-2.15383e-09
-3.18433e-06
-8.4959e-08
-4.34828e-09
-3.588e-06
-6.75388e-09
-4.01093e-06
-8.94289e-08
-7.43069e-09
-1.20162e-08
-1.40431e-06
-2.43754e-08
-1.21385e-08
-1.79379e-06
-4.17998e-08
-1.21431e-08
-2.12761e-06
-5.63512e-08
-1.25078e-08
-2.46611e-06
-6.8639e-08
-1.30197e-08
-2.824e-06
-7.85404e-08
-1.38245e-08
-3.20493e-06
-8.59061e-08
-1.48813e-08
-3.60919e-06
-1.61569e-08
-4.03326e-06
-9.03417e-08
-9.38684e-09
-2.57747e-08
-1.39216e-06
-2.29504e-08
-2.53822e-08
-1.78362e-06
-3.87107e-08
-2.49646e-08
-2.12338e-06
-5.1183e-08
-2.45683e-08
-2.47016e-06
-6.31282e-08
-2.44792e-08
-2.83099e-06
-7.31444e-08
-2.448e-08
-3.21241e-06
-8.07109e-08
-2.4575e-08
-3.6189e-06
-2.48111e-08
-4.04553e-06
-8.55127e-08
-9.63872e-09
-3.81107e-08
-1.383e-06
-2.2323e-08
-3.72193e-08
-1.7726e-06
-3.62935e-08
-3.65192e-08
-2.11129e-06
-4.91185e-08
-3.57791e-08
-2.45631e-06
-6.0625e-08
-3.49939e-08
-2.82079e-06
-7.03531e-08
-3.41398e-08
-3.20842e-06
-7.79062e-08
-3.32543e-08
-3.61905e-06
-3.24012e-08
-4.0493e-06
-8.28732e-08
-9.37471e-09
-5.04283e-08
-1.3757e-06
-2.18558e-08
-4.84004e-08
-1.76333e-06
-3.51815e-08
-4.71008e-08
-2.10103e-06
-4.79646e-08
-4.58753e-08
-2.44676e-06
-5.9466e-08
-4.44587e-08
-2.81272e-06
-6.92123e-08
-4.28099e-08
-3.20219e-06
-7.68251e-08
-4.09698e-08
-3.61478e-06
-3.90258e-08
-4.04703e-06
-8.19046e-08
-1.07945e-08
-1.36955e-06
-6.07724e-08
-2.43755e-08
-1.75592e-06
-5.74875e-08
-3.84916e-08
-2.09297e-06
-5.56343e-08
-5.19478e-08
-2.43857e-06
-5.39653e-08
-6.40198e-08
-2.80471e-06
-5.20297e-08
-7.42075e-08
-3.19453e-06
-4.97384e-08
-8.20953e-08
-3.60752e-06
-4.71204e-08
-4.04018e-06
-4.42713e-08
-8.7239e-08
-1.09816e-08
1.73099e-08
-1.34949e-06
-2.58278e-08
-2.57853e-08
1.34779e-08
-1.73454e-06
-2.12798e-08
-4.07558e-08
1.0824e-08
-2.06749e-06
-1.85407e-08
-5.40258e-08
8.27069e-09
-2.40739e-06
-1.57291e-08
-6.49418e-08
5.50819e-09
-2.76697e-06
-1.25257e-08
-7.34228e-08
2.45021e-09
-3.14981e-06
-8.8624e-09
-7.9421e-08
-8.78483e-10
-3.55561e-06
-4.77875e-09
-4.44338e-09
-3.98101e-06
-3.71132e-10
-8.27999e-08
-9.54415e-09
5.73978e-09
-1.36126e-06
-2.33615e-08
2.87451e-09
-1.74721e-06
-3.7809e-08
8.73043e-10
-2.08152e-06
-5.08504e-08
-1.02306e-09
-2.42293e-06
-6.17732e-08
-2.94124e-09
-2.784e-06
-7.03676e-08
-5.06709e-09
-3.16825e-06
-7.65051e-08
-7.39482e-09
-3.57539e-06
-9.88695e-09
-4.00198e-06
-8.00528e-08
-7.67005e-09
-1.13889e-08
-1.37957e-06
-2.22617e-08
-1.16104e-08
-1.76477e-06
-3.78542e-08
-1.18303e-08
-2.09936e-06
-5.08202e-08
-1.22012e-08
-2.44201e-06
-6.18411e-08
-1.27854e-08
-2.80318e-06
-7.06602e-08
-1.36786e-08
-3.18754e-06
-7.69511e-08
-1.47087e-08
-3.59562e-06
-1.59085e-08
-4.02362e-06
-8.05993e-08
-8.43796e-09
-2.43466e-08
-1.37082e-06
-2.06037e-08
-2.35152e-08
-1.75961e-06
-3.42502e-08
-2.29126e-08
-2.0987e-06
-4.62675e-08
-2.2399e-08
-2.44819e-06
-5.77823e-08
-2.20296e-08
-2.81027e-06
-6.61803e-08
-2.16308e-08
-3.1961e-06
-7.24473e-08
-2.13835e-08
-3.60598e-06
-2.13013e-08
-4.03631e-06
-7.62914e-08
-8.70615e-09
-3.57779e-08
-1.36291e-06
-2.0208e-08
-3.39564e-08
-1.7507e-06
-3.25918e-08
-3.26457e-08
-2.08921e-06
-4.41159e-08
-3.13825e-08
-2.43583e-06
-5.42887e-08
-3.00411e-08
-2.80264e-06
-6.26492e-08
-2.86325e-08
-3.19307e-06
-6.89738e-08
-2.72097e-08
-3.60691e-06
-2.58514e-08
-4.04068e-06
-7.30361e-08
-8.44694e-09
-4.71216e-08
-1.35593e-06
-1.96578e-08
-4.37467e-08
-1.74235e-06
-3.14824e-08
-4.15538e-08
-2.08032e-06
-4.2711e-08
-3.95369e-08
-2.42739e-06
-5.2659e-08
-3.73627e-08
-2.79545e-06
-6.09111e-08
-3.49893e-08
-3.18757e-06
-6.72059e-08
-3.24652e-08
-3.6032e-06
-2.98853e-08
-4.03884e-06
-7.13232e-08
-9.78886e-09
-1.35026e-06
-5.66412e-08
-2.19963e-08
-1.73574e-06
-5.17175e-08
-3.44932e-08
-2.07323e-06
-4.87848e-08
-4.62167e-08
-2.42019e-06
-4.61669e-08
-5.65281e-08
-2.78839e-06
-4.33423e-08
-6.50202e-08
-3.18077e-06
-4.02143e-08
-7.14222e-08
-3.59672e-06
-3.68179e-08
-4.03269e-06
-3.32541e-08
-7.54908e-08
-1.08663e-08
1.39323e-08
-1.33165e-06
-2.09039e-08
-2.43066e-08
9.42438e-09
-1.71484e-06
-1.55866e-08
-3.74937e-08
6.45805e-09
-2.0484e-06
-1.2279e-08
-4.90696e-08
3.67959e-09
-2.39037e-06
-9.07588e-09
-5.84349e-08
7.54196e-10
-2.75275e-06
-5.58794e-09
-6.54422e-08
-2.40273e-09
-3.13868e-06
-1.73259e-09
-7.01173e-08
-5.77669e-09
-3.54766e-06
2.46098e-09
-9.31347e-09
-3.97625e-06
6.91169e-09
-7.25123e-08
-9.29918e-09
4.04955e-09
-1.34204e-06
-2.17443e-08
8.59126e-10
-1.72614e-06
-3.44622e-08
-1.17769e-09
-2.06112e-06
-4.59207e-08
-3.03314e-09
-2.40474e-06
-5.53774e-08
-5.0109e-09
-2.76878e-06
-6.25838e-08
-7.13676e-09
-3.15633e-06
-6.75127e-08
-9.40144e-09
-3.56686e-06
-1.17975e-08
-3.99685e-06
-7.0182e-08
-7.742e-09
-1.06682e-08
-1.3571e-06
-2.03365e-08
-1.08549e-08
-1.74044e-06
-3.35625e-08
-1.10993e-08
-2.07621e-06
-4.53818e-08
-1.13827e-08
-2.42186e-06
-5.51281e-08
-1.19762e-08
-2.78649e-06
-6.25287e-08
-1.26948e-08
-3.1746e-06
-6.7623e-08
-1.35395e-08
-3.5864e-06
-1.45389e-08
-4.01805e-06
-7.04471e-08
-7.72797e-09
-2.23649e-08
-1.3514e-06
-1.8605e-08
-2.10056e-08
-1.73859e-06
-3.00303e-08
-2.01086e-08
-2.07829e-06
-4.20786e-08
-1.94318e-08
-2.42794e-06
-5.14599e-08
-1.861e-08
-2.79429e-06
-5.86461e-08
-1.78692e-08
-3.18377e-06
-6.36534e-08
-1.72612e-08
-3.59726e-06
-1.68233e-08
-4.03109e-06
-6.65715e-08
-7.96482e-09
-3.25902e-08
-1.34474e-06
-1.82965e-08
-2.98422e-08
-1.73157e-06
-2.91543e-08
-2.79322e-08
-2.07057e-06
-3.92328e-08
-2.61282e-08
-2.4191e-06
-4.78351e-08
-2.42568e-08
-2.78842e-06
-5.4655e-08
-2.23231e-08
-3.18182e-06
-5.96279e-08
-2.03994e-08
-3.59879e-06
-1.85714e-08
-4.03579e-06
-6.27433e-08
-7.69837e-09
-4.26968e-08
-1.33815e-06
-1.76893e-08
-3.81068e-08
-1.72413e-06
-2.79952e-08
-3.51056e-08
-2.06286e-06
-3.75426e-08
-3.23718e-08
-2.41161e-06
-4.57481e-08
-2.95257e-08
-2.78198e-06
-5.23146e-08
-2.65239e-08
-3.17679e-06
-5.7157e-08
-2.34187e-08
-3.59531e-06
-2.0307e-08
-4.03394e-06
-6.02776e-08
-8.90285e-09
-1.33283e-06
-5.12305e-08
-1.97225e-08
-1.71811e-06
-4.49199e-08
-3.05235e-08
-2.05648e-06