/*--------------------------------*- C++ -*----------------------------------*\
| =========                 |                                                 |
| \\      /  F ield         | OpenFOAM: The Open Source CFD Toolbox           |
|  \\    /   O peration     | Version:  plus.master.MPPICInterFoam            |
|   \\  /    A nd           | Web:      www.OpenFOAM.com                      |
|    \\/     M anipulation  |                                                 |
\*---------------------------------------------------------------------------*/
FoamFile
{
    version     2.0;
    format      ascii;
    class       surfaceScalarField;
    location    "11.8";
    object      phi;
}
// * * * * * * * * * * * * * * * * * * * * * * * * * * * * * * * * * * * * * //

dimensions      [0 3 -1 0 0 0 0];

internalField   nonuniform List<scalar> 
34004
(
-6.06761e-09
-2.49282e-08
-1.62429e-06
5.95663e-09
-2.19472e-08
-1.38258e-08
-2.05835e-06
-5.36587e-09
-4.04901e-08
-5.29673e-09
-2.41268e-06
-1.42166e-08
-6.08565e-08
3.30278e-09
-2.75864e-06
-2.25234e-08
-8.21301e-08
1.1629e-08
-3.1124e-06
-3.06472e-08
-1.02158e-07
1.94199e-08
-3.47973e-06
-3.85026e-08
-1.19025e-07
2.6666e-08
-3.85958e-06
-4.58825e-08
3.31368e-08
-4.24648e-06
-5.24722e-08
-1.30887e-07
-1.09278e-08
-3.92402e-08
-1.64211e-06
-2.89433e-08
-2.87085e-08
-2.08475e-06
-4.69113e-08
-2.11296e-08
-2.45328e-06
-6.70133e-08
-1.33313e-08
-2.79951e-06
-8.87068e-08
-6.43707e-09
-3.14857e-06
-1.09024e-07
-1.20267e-10
-3.51476e-06
-1.25967e-07
5.8374e-09
-3.8958e-06
1.12852e-08
-4.28555e-06
-1.3776e-07
-2.08438e-08
-4.24404e-08
-1.6621e-06
-3.95985e-08
-3.42712e-08
-2.1318e-06
-4.78827e-08
-2.87272e-08
-2.54827e-06
-6.64342e-08
-2.52815e-08
-2.87797e-06
-9.23751e-08
-2.21664e-08
-3.20485e-06
-1.13513e-07
-1.83717e-08
-3.55394e-06
-1.31216e-07
-1.46915e-08
-3.92899e-06
-1.12645e-08
-4.31811e-06
-1.43635e-07
-1.80091e-08
-5.05646e-08
-1.65624e-06
-4.01443e-08
-4.50477e-08
-2.10268e-06
-6.07116e-08
-4.19956e-08
-2.48291e-06
-8.28062e-08
-4.02899e-08
-2.84315e-06
-1.05442e-07
-3.90468e-08
-3.18732e-06
-1.26194e-07
-3.76697e-08
-3.5524e-06
-1.43358e-07
-3.63359e-08
-3.93671e-06
-3.51034e-08
-4.33186e-06
-1.54962e-07
-1.80789e-08
-5.90662e-08
-1.64843e-06
-4.16853e-08
-5.63791e-08
-2.08539e-06
-6.45631e-08
-5.54605e-08
-2.4493e-06
-8.83102e-08
-5.57214e-08
-2.80102e-06
-1.11968e-07
-5.63803e-08
-3.16124e-06
-1.33368e-07
-5.71316e-08
-3.53697e-06
-1.50579e-07
-5.79071e-08
-3.92696e-06
-5.86603e-08
-4.32536e-06
-1.61834e-07
-1.78721e-08
-6.64596e-08
-1.63722e-06
-4.22858e-08
-6.61998e-08
-2.07036e-06
-6.71871e-08
-6.73169e-08
-2.42846e-06
-9.25123e-08
-6.95057e-08
-2.77863e-06
-1.16822e-07
-7.20709e-08
-3.13994e-06
-1.38199e-07
-7.47322e-08
-3.51635e-06
-1.55021e-07
-7.73409e-08
-3.90614e-06
-7.97401e-08
-4.30368e-06
-1.65672e-07
-1.88854e-08
-1.62148e-06
-7.08341e-08
-4.49996e-08
-2.05129e-06
-7.26635e-08
-7.24551e-08
-2.40457e-06
-7.54901e-08
-9.9872e-08
-2.75258e-06
-7.9245e-08
-1.25452e-07
-3.11163e-06
-8.33673e-08
-1.47554e-07
-3.48483e-06
-8.75971e-08
-1.64604e-07
-3.87067e-06
-9.17059e-08
-4.2635e-06
-9.54518e-08
-1.74954e-07
-7.59862e-09
-1.91195e-08
-1.59877e-06
1.19395e-09
-2.36252e-08
-6.90996e-09
-2.02425e-06
-1.12432e-08
-4.1449e-08
1.98668e-09
-2.3766e-06
-2.02966e-08
-6.09327e-08
1.03379e-08
-2.72115e-06
-2.83871e-08
-8.19469e-08
1.7853e-08
-3.07314e-06
-3.61376e-08
-1.02261e-07
2.48852e-08
-3.4408e-06
-4.35238e-08
-1.19963e-07
3.14338e-08
-3.82294e-06
-5.03863e-08
3.73094e-08
-4.21399e-06
-5.64782e-08
-1.33278e-07
-1.20886e-08
-3.24016e-08
-1.61676e-06
-2.97352e-08
-2.11996e-08
-2.05288e-06
-4.77464e-08
-1.31153e-08
-2.4205e-06
-6.80558e-08
-6.12828e-09
-2.76281e-06
-8.92566e-08
-3.67325e-10
-3.10918e-06
-1.09271e-07
5.12684e-09
-3.47502e-06
-1.26456e-07
1.03747e-08
-3.8576e-06
1.52177e-08
-4.25076e-06
-1.39187e-07
-1.89741e-08
-3.70112e-08
-1.63852e-06
-3.47607e-08
-2.94297e-08
-2.10871e-06
-4.83124e-08
-2.46825e-08
-2.52209e-06
-7.19537e-08
-2.15647e-08
-2.83681e-06
-9.6809e-08
-1.83402e-08
-3.1615e-06
-1.16828e-07
-1.47786e-08
-3.51406e-06
-1.33664e-07
-1.1443e-08
-3.89039e-06
-8.40245e-09
-4.2823e-06
-1.45937e-07
-1.79858e-08
-4.51603e-08
-1.6301e-06
-3.8738e-08
-4.08435e-08
-2.07055e-06
-6.00803e-08
-3.89369e-08
-2.4465e-06
-8.36292e-08
-3.754e-08
-2.80448e-06
-1.0628e-07
-3.62469e-08
-3.14694e-06
-1.26268e-07
-3.50019e-08
-3.51221e-06
-1.43093e-07
-3.39265e-08
-3.89741e-06
-3.3002e-08
-4.29529e-06
-1.55057e-07
-1.90624e-08
-5.3175e-08
-1.62137e-06
-4.21816e-08
-5.19229e-08
-2.05125e-06
-6.41009e-08
-5.19508e-08
-2.41478e-06
-8.70348e-08
-5.26551e-08
-2.76368e-06
-1.10177e-07
-5.36683e-08
-3.12072e-06
-1.31219e-07
-5.47405e-08
-3.49624e-06
-1.4859e-07
-5.58388e-08
-3.88774e-06
-5.69095e-08
-4.28943e-06
-1.6069e-07
-1.89647e-08
-6.02145e-08
-1.61124e-06
-4.29827e-08
-6.16448e-08
-2.03669e-06
-6.60721e-08
-6.36382e-08
-2.39436e-06
-9.06489e-08
-6.64839e-08
-2.74027e-06
-1.14363e-07
-6.94935e-08
-3.10044e-06
-1.35635e-07
-7.25142e-08
-3.47732e-06
-1.52954e-07
-7.54256e-08
-3.86924e-06
-7.80866e-08
-4.27066e-06
-1.64792e-07
-1.9422e-08
-1.59735e-06
-6.49622e-08
-4.47977e-08
-2.01896e-06
-6.86861e-08
-7.08935e-08
-2.36975e-06
-7.24298e-08
-9.73116e-08
-2.71595e-06
-7.67548e-08
-1.2237e-07
-3.07486e-06
-8.12621e-08
-1.44506e-07
-3.44951e-06
-8.57546e-08
-1.62269e-07
-3.83836e-06
-9.00405e-08
-4.23595e-06
-9.39098e-08
-1.74073e-07
-9.52905e-09
-1.15357e-08
-1.57237e-06
-5.36318e-09
-2.59368e-08
1.01679e-09
-1.99085e-06
-1.81483e-08
-4.30321e-08
9.97182e-09
-2.3433e-06
-2.67849e-08
-6.18001e-08
1.71495e-08
-2.68581e-06
-3.41893e-08
-8.26117e-08
2.35247e-08
-3.0348e-06
-4.11517e-08
-1.0307e-07
2.94768e-08
-3.40224e-06
-4.76841e-08
-1.21246e-07
3.50105e-08
-3.7862e-06
-5.36706e-08
3.99825e-08
-4.18095e-06
-5.8935e-08
-1.35441e-07
-1.3122e-08
-2.43691e-08
-1.59089e-06
-3.05764e-08
-1.3254e-08
-2.0213e-06
-4.90477e-08
-5.04936e-09
-2.38731e-06
-6.95683e-08
-4.50306e-11
-2.72518e-06
-9.06008e-08
4.90813e-09
-3.06962e-06
-1.10208e-07
9.47426e-09
-3.43551e-06
-1.2725e-07
1.38102e-08
-3.81944e-06
1.78092e-08
-4.21563e-06
-1.40296e-07
-1.59838e-08
-3.20677e-08
-1.61491e-06
-2.86921e-08
-2.51603e-08
-2.08465e-06
-5.4266e-08
-2.18515e-08
-2.47541e-06
-7.78266e-08
-1.81139e-08
-2.79544e-06
-1.00519e-07
-1.49696e-08
-3.11898e-06
-1.20029e-07
-1.19274e-08
-3.47323e-06
-1.35993e-07
-9.10985e-09
-3.85158e-06
-6.58195e-09
-4.24624e-06
-1.47724e-07
-1.77261e-08
-4.0857e-08
-1.60364e-06
-3.74731e-08
-3.7652e-08
-2.03841e-06
-6.00132e-08
-3.65275e-08
-2.40937e-06
-8.41999e-08
-3.53283e-08
-2.76281e-06
-1.06673e-07
-3.4107e-08
-3.10536e-06
-1.26168e-07
-3.30969e-08
-3.47162e-06
-1.42328e-07
-3.22985e-08
-3.85814e-06
-3.16864e-08
-4.25854e-06
-1.54068e-07
-1.94403e-08
-4.9144e-08
-1.59369e-06
-4.19637e-08
-4.90547e-08
-2.01744e-06
-6.36918e-08
-4.97819e-08
-2.38044e-06
-8.63139e-08
-5.08033e-08
-2.7258e-06
-1.08831e-07
-5.19464e-08
-3.08041e-06
-1.29076e-07
-5.31663e-08
-3.45598e-06
-1.46011e-07
-5.44313e-08
-3.84872e-06
-5.5682e-08
-4.25326e-06
-1.58226e-07
-1.96192e-08
-5.65263e-08
-1.58431e-06
-4.30297e-08
-5.9197e-08
-2.00326e-06
-6.5177e-08
-6.18006e-08
-2.36084e-06
-8.86757e-08
-6.49027e-08
-2.70291e-06
-1.11712e-07
-6.80754e-08
-3.06134e-06
-1.3247e-07
-7.11894e-08
-3.43861e-06
-1.49715e-07
-7.41608e-08
-3.83233e-06
-7.68732e-08
-4.23722e-06
-1.62027e-07
-1.98637e-08
-1.57199e-06
-6.20906e-08
-4.45005e-08
-1.98659e-06
-6.70433e-08
-6.91481e-08
-2.33611e-06
-7.12757e-08
-9.45817e-08
-2.67966e-06
-7.58383e-08
-1.18939e-07
-3.03823e-06
-8.04132e-08
-1.40763e-07
-3.41406e-06
-8.48745e-08
-1.58723e-07
-3.80553e-06
-8.90646e-08
-4.20745e-06
-9.28139e-08
-1.71306e-07
-1.11618e-08
-3.17643e-09
-1.5452e-06
-1.28841e-08
-2.76861e-08
9.02703e-09
-1.95835e-06
-2.51929e-08
-4.44095e-08
1.70954e-08
-2.31128e-06
-3.2902e-08
-6.29477e-08
2.29805e-08
-2.65257e-06
-3.91841e-08
-8.35036e-08
2.79231e-08
-2.9973e-06
-4.50018e-08
-1.03656e-07
3.2583e-08
-3.36446e-06
-5.03315e-08
-1.21716e-07
3.68864e-08
-3.75001e-06
-5.51195e-08
4.07259e-08
-4.14813e-06
-5.92524e-08
-1.36096e-07
-1.35982e-08
-1.61381e-08
-1.56444e-06
-3.042e-08
-5.71306e-09
-1.99014e-06
-4.96879e-08
7.37583e-10
-2.35182e-06
-7.1215e-08
5.20842e-09
-2.68566e-06
-9.1567e-08
8.96236e-09
-3.03042e-06
-1.1045e-07
1.24622e-08
-3.39661e-06
-1.26911e-07
1.57543e-08
-3.78194e-06
1.87713e-08
-4.18099e-06
-1.39686e-07
-1.29716e-08
-2.74664e-08
-1.5907e-06
-2.8828e-08
-2.15153e-08
-2.05302e-06
-5.53689e-08
-1.82455e-08
-2.43016e-06
-8.05644e-08
-1.49607e-08
-2.74978e-06
-1.02865e-07
-1.23969e-08
-3.0754e-06
-1.21348e-07
-9.97699e-09
-3.4324e-06
-1.36311e-07
-7.79416e-09
-3.81316e-06
-5.89489e-09
-4.21073e-06
-1.47238e-07
-1.72143e-08
-3.72627e-08
-1.57671e-06
-3.64595e-08
-3.49913e-08
-2.00582e-06
-5.86523e-08
-3.42382e-08
-2.37128e-06
-8.42099e-08
-3.34594e-08
-2.71727e-06
-1.05804e-07
-3.24764e-08
-3.0636e-06
-1.24345e-07
-3.17464e-08
-3.43139e-06
-1.39632e-07
-3.12581e-08
-3.81946e-06
-3.09701e-08
-4.2224e-06
-1.50761e-07
-1.89631e-08
-4.64737e-08
-1.5656e-06
-4.04767e-08
-4.72389e-08
-1.98381e-06
-6.25107e-08
-4.84155e-08
-2.34448e-06
-8.56528e-08
-4.96417e-08
-2.68587e-06
-1.06751e-07
-5.07774e-08
-3.04109e-06
-1.25754e-07
-5.20294e-08
-3.41677e-06
-1.41739e-07
-5.33455e-08
-3.81071e-06
-5.46614e-08
-4.21793e-06
-1.53447e-07
-1.9434e-08
-5.4806e-08
-1.55662e-06
-4.18448e-08
-5.82293e-08
-1.96998e-06
-6.37919e-08
-6.11889e-08
-2.32647e-06
-8.65574e-08
-6.42291e-08
-2.66563e-06
-1.08351e-07
-6.72489e-08
-3.02315e-06
-1.28055e-07
-7.01942e-08
-3.4008e-06
-1.44612e-07
-7.29879e-08
-3.79618e-06
-7.55341e-08
-4.2043e-06
-1.56705e-07
-1.98648e-08
-1.54555e-06
-6.14588e-08
-4.35849e-08
-1.95423e-06
-6.6986e-08
-6.70402e-08
-2.30284e-06
-7.13235e-08
-9.13916e-08
-2.64385e-06
-7.57518e-08
-1.14666e-07
-3.0022e-06
-8.00742e-08
-1.35672e-07
-3.3791e-06
-8.42067e-08
-1.53211e-07
-3.77302e-06
-8.80282e-08
-4.179e-06
-9.14106e-08
-1.65851e-07
-1.21645e-08
4.92182e-09
-1.51756e-06
-2.04625e-08
-2.8155e-08
1.57887e-08
-1.92688e-06
-3.14418e-08
-4.53192e-08
2.24674e-08
-2.27927e-06
-3.78036e-08
-6.38041e-08
2.69572e-08
-2.6183e-06
-4.26654e-08
-8.42221e-08
3.04786e-08
-2.96033e-06
-4.7103e-08
-1.0352e-07
3.37704e-08
-3.32801e-06
-5.10164e-08
-1.20774e-07
3.67407e-08
-3.71519e-06
-5.43819e-08
3.93124e-08
-4.11653e-06
-5.71614e-08
-1.34587e-07
-1.36998e-08
-8.69413e-09
-1.53725e-06
-2.95268e-08
1.63527e-10
-1.95885e-06
-4.96942e-08
5.52706e-09
-2.31463e-06
-7.14943e-08
8.84031e-09
-2.6455e-06
-9.11358e-08
1.14263e-08
-2.99182e-06
-1.09106e-07
1.38242e-08
-3.35878e-06
-1.24657e-07
1.60223e-08
-3.74573e-06
1.79828e-08
-4.14767e-06
-1.3669e-07
-1.08908e-08
-2.30683e-08
-1.56555e-06
-2.83987e-08
-1.81852e-08
-2.017e-06
-5.49435e-08
-1.53978e-08
-2.38208e-06
-8.1567e-08
-1.28347e-08
-2.70061e-06
-1.02559e-07
-1.07534e-08
-3.03229e-06
-1.1989e-07
-8.97519e-09
-3.39235e-06
-1.33805e-07
-7.48351e-09
-3.77579e-06
-6.27408e-09
-4.17652e-06
-1.43805e-07
-1.65214e-08
-3.41359e-08
-1.54922e-06
-3.5358e-08
-3.26344e-08
-1.97265e-06
-5.69841e-08
-3.20853e-08
-2.33386e-06
-8.19895e-08
-3.17945e-08
-2.67305e-06
-1.02573e-07
-3.1191e-08
-3.02265e-06
-1.20102e-07
-3.07973e-08
-3.39211e-06
-1.34414e-07
-3.06368e-08
-3.78206e-06
-3.06708e-08
-4.18774e-06
-1.44722e-07
-1.78353e-08
-4.46505e-08
-1.53733e-06
-3.79134e-08
-4.59228e-08
-1.95056e-06
-6.09419e-08
-4.73204e-08
-2.30544e-06
-8.32797e-08
-4.85841e-08
-2.64664e-06
-1.02944e-07
-4.97328e-08
-3.00295e-06
-1.20555e-07
-5.09574e-08
-3.37906e-06
-1.35329e-07
-5.22325e-08
-3.7744e-06
-5.35089e-08
-4.18432e-06
-1.46148e-07
-1.84405e-08
-5.43329e-08
-1.52857e-06
-3.94403e-08
-5.80152e-08
-1.93699e-06
-6.17713e-08
-6.10087e-08
-2.2901e-06
-8.36649e-08
-6.37773e-08
-2.6284e-06
-1.03809e-07
-6.64344e-08
-2.98636e-06
-1.22054e-07
-6.90066e-08
-3.36456e-06
-1.37457e-07
-7.14232e-08
-3.76164e-06
-7.36101e-08
-4.17291e-06
-1.488e-07
-1.92536e-08
-1.51847e-06
-6.22248e-08
-4.17014e-08
-1.92221e-06
-6.76771e-08
-6.45809e-08
-2.26922e-06
-7.17976e-08
-8.75879e-08
-2.60893e-06
-7.575e-08
-1.0939e-07
-2.96736e-06
-7.95307e-08
-1.29104e-07
-3.34538e-06
-8.3069e-08
-1.45669e-07
-3.74166e-06
-8.62695e-08
-4.15154e-06
-8.90463e-08
-1.57746e-07
-1.25235e-08
1.18413e-08
-1.48985e-06
-2.70921e-08
-2.7867e-08
2.07484e-08
-1.89634e-06
-3.60539e-08
-4.44697e-08
2.56229e-08
-2.24814e-06
-4.07451e-08
-6.51319e-08
2.84773e-08
-2.58053e-06
-4.42859e-08
-8.42934e-08
3.09153e-08
-2.92504e-06
-4.70926e-08
-1.02289e-07
3.2908e-08
-3.29349e-06
-4.94668e-08
-1.18205e-07
3.45264e-08
-3.6825e-06
-5.13184e-08
3.57818e-08
-4.08705e-06
-5.26343e-08
-1.30834e-07
-1.3361e-08
-2.6111e-09
-1.50952e-06
-2.91594e-08
4.60436e-09
-1.92698e-06
-4.91505e-08
8.54358e-09
-2.2778e-06
-7.00205e-08
1.06319e-08
-2.60683e-06
-8.90691e-08
1.21648e-08
-2.95407e-06
-1.06004e-07
1.35163e-08
-3.32248e-06
-1.20408e-07
1.46495e-08
-3.71146e-06
1.55532e-08
-4.11648e-06
-1.31362e-07
-9.75965e-09
-1.90954e-08
-1.53938e-06
-2.60846e-08
-1.51093e-08
-1.98087e-06
-5.37546e-08
-1.32634e-08
-2.33164e-06
-7.94028e-08
-1.14335e-08
-2.65229e-06
-9.9169e-08
-9.94176e-09
-2.99046e-06
-1.15507e-07
-8.84886e-09
-3.35367e-06
-1.28456e-07
-8.07053e-09
-3.74014e-06
-7.56177e-09
-4.14434e-06
-1.37527e-07
-1.54936e-08
-3.15913e-08
-1.5213e-06
-3.37584e-08
-3.07454e-08
-1.93883e-06
-5.5215e-08
-3.05001e-08
-2.2952e-06
-7.79143e-08
-3.0427e-08
-2.63137e-06
-9.73252e-08
-3.02024e-08
-2.98302e-06
-1.13716e-07
-3.01271e-08
-3.35447e-06
-1.26939e-07
-3.02576e-08
-3.74667e-06
-3.05718e-08
-4.15539e-06
-1.36305e-07
-1.64924e-08
-4.33118e-08
-1.50917e-06
-3.53935e-08
-4.48088e-08
-1.91765e-06
-5.79491e-08
-4.61358e-08
-2.26693e-06
-7.86445e-08
-4.7433e-08
-2.60898e-06
-9.72069e-08
-4.85612e-08
-2.96607e-06
-1.13459e-07
-4.96811e-08
-3.34329e-06
-1.26941e-07
-5.08161e-08
-3.74039e-06
-5.19477e-08
-4.15321e-06
-1.36707e-07
-1.69102e-08
-5.44116e-08
-1.5006e-06
-3.62831e-08
-5.78743e-08
-1.9046e-06
-5.88448e-08
-6.05726e-08
-2.2524e-06
-7.9064e-08
-6.29169e-08
-2.59273e-06
-9.77245e-08
-6.51287e-08
-2.95117e-06
-1.14435e-07
-6.71945e-08
-3.33037e-06
-1.28481e-07
-6.90783e-08
-3.72937e-06
-7.07441e-08
-4.14385e-06
-1.3878e-07
-1.80793e-08
-1.49128e-06
-6.35537e-08
-3.89339e-08
-1.89092e-06
-6.8351e-08
-6.15525e-08
-2.23499e-06
-7.19722e-08
-8.29127e-08
-2.57532e-06
-7.51813e-08
-1.03019e-07
-2.93422e-06
-7.81999e-08
-1.21152e-07
-3.31354e-06
-8.09372e-08
-1.36376e-07
-3.71223e-06
-8.33135e-08
-4.12594e-06
-8.52849e-08
-1.47465e-07
-1.22136e-08
1.70579e-08
-1.46278e-06
-3.1955e-08
-2.66149e-08
2.35745e-08
-1.86755e-06
-3.83872e-08
-4.47659e-08
2.6535e-08
-2.21454e-06
-4.14695e-08
-6.57514e-08
2.81063e-08
-2.54396e-06
-4.35211e-08
-8.34868e-08
2.93796e-08
-2.89185e-06
-4.48236e-08
-9.9882e-08
3.01276e-08
-3.2615e-06
-4.57023e-08
-1.14111e-07
3.04506e-08
-3.65264e-06
-4.60657e-08
3.04252e-08
-4.06049e-06
-4.59258e-08
-1.25144e-07
-1.26332e-08
1.99845e-09
-1.48184e-06
-2.81785e-08
7.2266e-09
-1.89558e-06
-4.84955e-08
9.51415e-09
-2.24042e-06
-6.81759e-08
1.05815e-08
-2.5696e-06
-8.60072e-08
1.13092e-08
-2.91815e-06
-1.0161e-07
1.17282e-08
-3.28846e-06
-1.14617e-07
1.18758e-08
-3.67987e-06
1.17877e-08
-4.0882e-06
-1.24244e-07
-8.73441e-09
-1.59587e-08
-1.51284e-06
-2.57814e-08
-1.31162e-08
-1.94418e-06
-5.13442e-08
-1.18097e-08
-2.28414e-06
-7.48231e-08
-1.07601e-08
-2.60775e-06
-9.37812e-08
-9.96082e-09
-2.95023e-06
-1.09093e-07
-9.50138e-09
-3.31713e-06
-1.21029e-07
-9.36339e-09
-3.70696e-06
-9.49089e-09
-4.11494e-06
-1.29147e-07
-1.39127e-08
-2.97225e-08
-1.49364e-06
-3.13868e-08
-2.93982e-08
-1.90508e-06
-5.30402e-08
-2.94626e-08
-2.25472e-06
-7.28501e-08
-2.93591e-08
-2.59327e-06
-9.06796e-08
-2.9393e-08
-2.94577e-06
-1.05774e-07
-2.95681e-08
-3.31931e-06
-1.17863e-07
-2.99172e-08
-3.71403e-06
-3.04356e-08
-4.12605e-06
-1.26264e-07
-1.50677e-08
-4.23242e-08
-1.48152e-06
-3.30769e-08
-4.38068e-08
-1.88523e-06
-5.34284e-08
-4.49065e-08
-2.2313e-06
-7.27318e-08
-4.6081e-08
-2.57296e-06
-8.99868e-08
-4.70609e-08
-2.93115e-06
-1.04931e-07
-4.7976e-08
-3.30994e-06
-1.17157e-07
-4.8871e-08
-3.70922e-06
-4.97556e-08
-4.1252e-06
-1.25855e-07
-1.51786e-08
-5.4573e-08
-1.47318e-06
-3.31912e-08
-5.74203e-08
-1.87297e-06
-5.42461e-08
-5.95415e-08
-2.21659e-06
-7.31198e-08
-6.13903e-08
-2.55854e-06
-9.03309e-08
-6.30354e-08
-2.91799e-06
-1.05563e-07
-6.44744e-08
-3.29865e-06
-1.18225e-07
-6.57022e-08
-3.69988e-06
-6.67211e-08
-4.11772e-06
-1.27388e-07
-1.65389e-08
-1.46456e-06
-6.47606e-08
-3.57922e-08
-1.86066e-06
-6.84121e-08
-5.74096e-08
-2.20129e-06
-7.12205e-08
-7.71747e-08
-2.54338e-06
-7.35659e-08
-9.56059e-08
-2.90314e-06
-7.5682e-08
-1.12095e-07
-3.28405e-06
-7.74733e-08
-1.2583e-07
-3.68531e-06
-7.8882e-08
-4.10286e-06
-7.99053e-08
-1.3572e-07
-1.17235e-08
2.03835e-08
-1.43688e-06
-3.45491e-08
-2.61146e-08
2.44473e-08
-1.83919e-06
-3.8349e-08
-4.60069e-08
2.56036e-08
-2.18013e-06
-3.96104e-08
-6.48652e-08
2.6113e-08
-2.51082e-06
-4.03245e-08
-8.17152e-08
2.61598e-08
-2.86065e-06
-4.04596e-08
-9.64136e-08
2.57491e-08
-3.2325e-06
-4.00112e-08
-1.08781e-07
2.49076e-08
-3.62614e-06
-3.90098e-08
2.37243e-08
-4.03744e-06
-3.7527e-08
-1.18026e-07
-1.14594e-08
5.05751e-09
-1.45502e-06
-2.74169e-08
8.08877e-09
-1.86301e-06
-4.76419e-08
9.10007e-09
-2.20312e-06
-6.6042e-08
9.30359e-09
-2.53433e-06
-8.23297e-08
9.21313e-09
-2.88488e-06
-9.63733e-08
8.8053e-09
-3.25745e-06
-1.07827e-07
8.09438e-09
-3.65159e-06
7.14046e-09
-4.06344e-06
-1.16009e-07
-7.77911e-09
-1.38644e-08
-1.48625e-06
-2.50786e-08
-1.22059e-08
-1.9065e-06
-4.95819e-08
-1.15228e-08
-2.2384e-06
-7.02496e-08
-1.09482e-08
-2.5666e-06
-8.76775e-08
-1.06605e-08
-2.91289e-06
-1.0168e-07
-1.06991e-08
-3.2836e-06
-1.12458e-07
-1.10681e-08
-3.67702e-06
-1.17081e-08
-4.08897e-06
-1.19584e-07
-1.23921e-08
-2.8389e-08
-1.4667e-06
-2.9028e-08
-2.83934e-08
-1.8722e-06
-4.96327e-08
-2.84891e-08
-2.21718e-06
-6.72585e-08
-2.84364e-08
-2.55826e-06
-8.32804e-08
-2.85953e-08
-2.91178e-06
-9.70225e-08
-2.89193e-08
-3.28734e-06
-1.07985e-07
-2.93883e-08
-3.68475e-06
-3.00094e-08
-4.10028e-06
-1.15465e-07
-1.34888e-08
-4.15569e-08
-1.45484e-06
-3.011e-08
-4.27533e-08
-1.85421e-06
-4.88125e-08
-4.35752e-08
-2.19733e-06
-6.63062e-08
-4.43889e-08
-2.53948e-06
-8.20744e-08
-4.50631e-08
-2.8989e-06
-9.571e-08
-4.56655e-08
-3.27955e-06
-1.06736e-07
-4.6225e-08
-3.68135e-06
-4.677e-08
-4.10074e-06
-1.14428e-07
-1.34318e-08
-5.45346e-08
-1.44675e-06
-3.00598e-08
-5.64421e-08
-1.84261e-06
-4.90314e-08
-5.78491e-08
-2.18318e-06
-6.64556e-08
-5.90221e-08
-2.52646e-06
-8.2224e-08
-5.99715e-08
-2.88729e-06
-9.60396e-08
-6.06839e-08
-3.26979e-06
-1.07373e-07
-6.11686e-08
-3.67358e-06
-6.14579e-08
-4.09495e-06
-1.15426e-07
-1.49122e-08
-1.43879e-06
-6.5378e-08
-3.27775e-08
-1.8317e-06
-6.74988e-08
-5.23325e-08
-2.17033e-06
-6.9215e-08
-7.06632e-08
-2.51339e-06
-7.0647e-08
-8.75162e-08
-2.87445e-06
-7.17754e-08
-1.02404e-07
-3.25728e-06
-7.2533e-08
-1.14637e-07
-3.66132e-06
-7.28949e-08
-4.08275e-06
-7.28947e-08
-1.23277e-07
-1.10748e-08
2.18262e-08
-1.4128e-06
-3.47976e-08
-2.67946e-08
2.33618e-08
-1.8104e-06
-3.59208e-08
-4.62888e-08
2.31352e-08
-2.14774e-06
-3.56683e-08
-6.36866e-08
2.25852e-08
-2.48052e-06
-3.54057e-08
-7.89556e-08
2.1637e-08
-2.8325e-06
-3.4462e-08
-9.19423e-08
2.0243e-08
-3.20686e-06
-3.28711e-08
-1.0247e-07
1.84246e-08
-3.60332e-06
-3.071e-08
1.62775e-08
-4.01818e-06
-2.80862e-08
-1.09948e-07
-1.01978e-08
6.77939e-09
-1.4297e-06
-2.69001e-08
7.71532e-09
-1.83007e-06
-4.63881e-08
7.48139e-09
-2.16743e-06
-6.32125e-08
7.07909e-09
-2.50193e-06
-7.79706e-08
6.27477e-09
-2.85471e-06
-9.04702e-08
5.18134e-09
-3.22986e-06
-1.00397e-07
3.78371e-09
-3.62702e-06
2.14074e-09
-4.04254e-06
-1.07186e-07
-7.45452e-09
-1.29208e-08
-1.45891e-06
-2.58171e-08
-1.21556e-08
-1.86724e-06
-4.69226e-08
-1.17218e-08
-2.19778e-06
-6.58064e-08
-1.15232e-08
-2.52876e-06
-8.1185e-08
-1.16254e-08
-2.87957e-06
-9.37775e-08
-1.20606e-08
-3.25375e-06
-1.03391e-07
-1.28039e-08
-3.65082e-06
-1.38086e-08
-4.06687e-06
-1.09565e-07
-1.13852e-08
-2.74732e-08
-1.44071e-06
-2.7439e-08
-2.75683e-08
-1.84065e-06
-4.51994e-08
-2.74846e-08
-2.18392e-06
-6.16986e-08
-2.75136e-08
-2.52541e-06
-7.59845e-08
-2.76628e-08
-2.88142e-06
-8.82054e-08
-2.79764e-08
-3.25918e-06
-9.80644e-08
-2.84407e-08
-3.65925e-06
-2.905e-08
-4.07843e-06
-1.04682e-07
-1.20324e-08
-4.07568e-08
-1.42948e-06
-2.73065e-08
-4.14226e-08
-1.82501e-06
-4.40386e-08
-4.18199e-08
-2.16625e-06
-5.98923e-08
-4.21729e-08
-2.50892e-06
-7.41878e-08
-4.24307e-08
-2.8698e-06
-8.65197e-08
-4.26235e-08
-3.25255e-06
-9.63885e-08
-4.27618e-08
-3.65714e-06
-4.28897e-08
-4.08014e-06
-1.03144e-07
-1.18466e-08
-5.39788e-08
-1.42164e-06
-2.70526e-08
-5.46767e-08
-1.81409e-06
-4.37749e-08
-5.52261e-08
-2.15301e-06
-5.9661e-08
-5.56438e-08
-2.49706e-06
-7.40188e-08
-5.58294e-08
-2.85949e-06
-8.64818e-08
-5.57616e-08
-3.24416e-06
-9.65579e-08
-5.54611e-08
-3.65077e-06
-5.49846e-08
-4.07582e-06
-1.03572e-07
-1.33469e-08
-1.41432e-06
-6.5062e-08
-2.97651e-08
-1.80448e-06
-6.54159e-08
-4.72429e-08
-2.1421e-06
-6.59326e-08
-6.40052e-08
-2.48587e-06
-6.63543e-08
-7.92824e-08
-2.84852e-06
-6.64437e-08
-9.26003e-08
-3.23355e-06
-6.6137e-08
-1.03361e-07
-3.64054e-06
-6.54381e-08
-4.06586e-06
-6.44096e-08
-1.10781e-07
-1.06787e-08
2.15632e-08
-1.39055e-06
-3.30955e-08
-2.69596e-08
2.07061e-08
-1.78308e-06
-3.16141e-08
-4.55871e-08
1.94227e-08
-2.1175e-06
-3.05579e-08
-6.14132e-08
1.80824e-08
-2.4534e-06
-2.93003e-08
-7.51116e-08
1.63371e-08
-2.80768e-06
-2.74035e-08
-8.64824e-08
1.4163e-08
-3.18474e-06
-2.48851e-08
-9.53311e-08
1.15927e-08
-3.58426e-06
-2.18145e-08
8.72196e-09
-4.00273e-06
-1.83107e-08
-1.01224e-07
-9.76893e-09
7.45533e-09
-1.40574e-06
-2.58733e-08
6.68848e-09
-1.79982e-06
-4.38678e-08
5.4462e-09
-2.13519e-06
-5.94912e-08
4.32851e-09
-2.47248e-06
-7.2895e-08
2.97312e-09
-2.82789e-06
-8.40024e-08
1.35312e-09
-3.20592e-06
-9.25368e-08
-5.65865e-10
-3.60633e-06
-2.6596e-09
-4.02564e-06
-9.80967e-08
-7.32795e-09
-1.25181e-08
-1.43141e-06
-2.61353e-08
-1.23701e-08
-1.82866e-06
-4.45753e-08
-1.2038e-08
-2.16171e-06
-6.09974e-08
-1.21399e-08
-2.49579e-06
-7.46319e-08
-1.25755e-08
-2.85033e-06
-8.58223e-08
-1.32255e-08
-3.22795e-06
-9.43073e-08
-1.41871e-08
-3.62871e-06
-1.53987e-08
-4.04887e-06
-9.95899e-08
-1.04045e-08
-2.67178e-08
-1.41604e-06
-2.54221e-08
-2.66591e-08
-1.81125e-06
-4.14275e-08
-2.63843e-08
-2.15325e-06
-5.66382e-08
-2.62768e-08
-2.4967e-06
-6.86043e-08
-2.62725e-08
-2.85643e-06
-7.99186e-08
-2.6526e-08
-3.23454e-06
-8.87149e-08
-2.68759e-08
-3.63776e-06
-2.7355e-08
-4.06074e-06
-9.44781e-08
-1.07222e-08
-3.96771e-08
-1.40574e-06
-2.46856e-08
-3.96274e-08
-1.798e-06
-3.97127e-08
-3.94902e-08
-2.13805e-06
-5.40302e-08
-3.93085e-08
-2.48151e-06
-6.68552e-08
-3.90809e-08
-2.84412e-06
-7.78702e-08
-3.87758e-08
-3.22926e-06
-8.65864e-08
-3.84242e-08
-3.63687e-06
-3.80774e-08
-4.06358e-06
-9.24459e-08
-1.04518e-08
-5.26607e-08
-1.39816e-06
-2.42022e-08
-5.20117e-08
-1.78788e-06
-3.90393e-08
-5.16356e-08
-2.12596e-06
-5.33197e-08
-5.12363e-08
-2.4708e-06
-6.62432e-08
-5.06175e-08
-2.83499e-06
-7.73532e-08
-4.97472e-08
-3.22205e-06
-8.62008e-08
-4.86572e-08
-3.63168e-06
-4.74223e-08
-4.06043e-06
-9.22369e-08
-1.19231e-08
-1.39145e-06
-6.35661e-08
-2.68333e-08
-1.77946e-06
-6.20637e-08
-4.25231e-08
-2.11662e-06
-6.13713e-08
-5.75989e-08
-2.46126e-06
-6.07293e-08
-7.12792e-08
-2.82564e-06
-5.97756e-08
-8.30387e-08
-3.21308e-06
-5.84334e-08
-9.23597e-08
-3.62314e-06
-5.67222e-08
-4.05228e-06
-5.47253e-08
-9.86206e-08
-1.08208e-08
1.99372e-08
-1.36968e-06
-2.99454e-08
-2.65565e-08
1.73043e-08
-1.75797e-06
-2.65656e-08
-4.33146e-08
1.52277e-08
-2.09115e-06
-2.47223e-08
-5.79638e-08
1.31558e-08
-2.42927e-06
-2.25531e-08
-7.02523e-08
1.07899e-08
-2.78623e-06
-1.98891e-08
-8.01401e-08
8.06125e-09
-3.1662e-06
-1.6678e-08
-8.74908e-08
4.9859e-09
-3.56892e-06
-1.29679e-08
1.65092e-09
-3.99099e-06
-8.87197e-09
-9.2024e-08
-9.65067e-09
6.98806e-09
-1.38306e-06
-2.45573e-08
4.93019e-09
-1.77242e-06
-4.07736e-08
3.20609e-09
-2.10685e-06
-5.51595e-08
1.51335e-09
-2.44637e-06
-6.72835e-08
-2.69878e-10
-2.80465e-06
-7.71178e-08
-2.17882e-09
-3.18581e-06
-8.44302e-08
-4.37407e-09
-3.58965e-06
-6.77924e-09
-4.01273e-06
-8.89202e-08
-7.34197e-09
-1.19822e-08
-1.40502e-06
-2.4105e-08
-1.21083e-08
-1.79457e-06
-4.14273e-08
-1.21232e-08
-2.12865e-06
-5.58899e-08
-1.24996e-08
-2.46739e-06
-6.81196e-08
-1.30159e-08
-2.82548e-06
-7.79965e-08
-1.38229e-08
-3.2064e-06
-8.5359e-08
-1.48822e-08
-3.61082e-06
-1.61586e-08
-4.03504e-06
-8.98144e-08
-9.2839e-09
-2.57326e-08
-1.39293e-06
-2.26941e-08
-2.53394e-08
-1.78449e-06
-3.83684e-08
-2.49281e-08
-2.12437e-06
-5.07892e-08
-2.45476e-08
-2.47238e-06
-6.26727e-08
-2.44587e-08
-2.83304e-06
-7.26377e-08
-2.44546e-08
-3.2139e-06
-8.01932e-08
-2.45498e-08
-3.62053e-06
-2.47849e-08
-4.04731e-06
-8.50065e-08
-9.54051e-09
-3.80696e-08
-1.3838e-06
-2.20953e-08
-3.71718e-08
-1.77352e-06
-3.5977e-08
-3.64729e-08
-2.11234e-06
-4.87275e-08
-3.57336e-08
-2.4575e-06
-6.01805e-08
-3.49483e-08
-2.82213e-06
-6.98737e-08
-3.40938e-08
-3.2099e-06
-7.74111e-08
-3.32076e-08
-3.62068e-06
-3.23538e-08
-4.05107e-06
-8.23818e-08
-9.28401e-09
-5.03938e-08
-1.3765e-06
-2.16545e-08
-4.83526e-08
-1.76426e-06
-3.48935e-08
-4.70475e-08
-2.10209e-06
-4.76082e-08
-4.5818e-08
-2.44796e-06
-5.906e-08
-4.43975e-08
-2.81406e-06
-6.87762e-08
-4.2745e-08
-3.20367e-06
-7.63781e-08
-4.09017e-08
-3.61639e-06
-3.89549e-08
-4.04877e-06
-8.1466e-08
-1.07083e-08
-1.37034e-06
-6.07451e-08
-2.41897e-08
-1.75684e-06
-5.74415e-08
-3.82246e-08
-2.09402e-06
-5.55788e-08
-5.16164e-08
-2.43976e-06
-5.39026e-08
-6.36429e-08
-2.80604e-06
-5.19606e-08
-7.38047e-08
-3.196e-06
-4.96635e-08
-8.16859e-08
-3.60913e-06
-4.70403e-08
-4.04192e-06
-4.41863e-08
-8.68419e-08
-1.09043e-08
1.72669e-08
-1.35023e-06
-2.57664e-08
-2.56011e-08
1.34293e-08
-1.73539e-06
-2.12081e-08
-4.04941e-08
1.07753e-08
-2.06848e-06
-1.84684e-08
-5.3708e-08
8.22421e-09
-2.40855e-06
-1.56619e-08
-6.45819e-08
5.46558e-09
-2.76831e-06
-1.24647e-08
-7.30289e-08
2.41287e-09
-3.15132e-06
-8.80735e-09
-7.90015e-08
-9.10316e-10
-3.55728e-06
-4.72877e-09
-4.46885e-09
-3.98281e-06
-3.2527e-10
-8.23682e-08
-9.45751e-09
5.71845e-09
-1.36197e-06
-2.31607e-08
2.84848e-09
-1.74803e-06
-3.75209e-08
8.46774e-10
-2.08248e-06
-5.04965e-08
-1.04429e-09
-2.42406e-06
-6.13675e-08
-2.96071e-09
-2.7853e-06
-6.9921e-08
-5.08353e-09
-3.16973e-06
-7.60319e-08
-7.4077e-09
-3.57702e-06
-9.89664e-09
-4.00375e-06
-7.95683e-08
-7.59044e-09
-1.13781e-08
-1.38026e-06
-2.20498e-08
-1.16003e-08
-1.76556e-06
-3.7546e-08
-1.1823e-08
-2.10029e-06
-5.04455e-08
-1.21931e-08
-2.44343e-06
-6.14125e-08
-1.27784e-08
-2.80465e-06
-7.0185e-08
-1.36703e-08
-3.189e-06
-7.64537e-08
-1.4699e-08
-3.59725e-06
-1.58975e-08
-4.02539e-06
-8.01019e-08
-8.34955e-09
-2.43149e-08
-1.37157e-06
-2.03975e-08
-2.34794e-08
-1.76047e-06
-3.39355e-08
-2.28779e-08
-2.09971e-06
-4.59049e-08
-2.2368e-08
-2.44951e-06
-5.73673e-08
-2.19958e-08
-2.81169e-06
-6.57221e-08
-2.15937e-08
-3.1976e-06
-7.19721e-08
-2.13437e-08
-3.60763e-06
-2.12588e-08
-4.03812e-06
-7.58252e-08
-8.62092e-09
-3.57286e-08
-1.3637e-06
-2.00147e-08
-3.38989e-08
-1.75162e-06
-3.23069e-08
-3.25863e-08
-2.09027e-06
-4.37605e-08
-3.13226e-08
-2.43705e-06
-5.38765e-08
-2.99802e-08
-2.804e-06
-6.21987e-08
-2.85708e-08
-3.1946e-06
-6.85073e-08
-2.71476e-08
-3.60858e-06
-2.57892e-08
-4.0425e-06
-7.25789e-08
-8.3618e-09
-4.70613e-08
-1.35675e-06
-1.94755e-08
-4.36745e-08
-1.74331e-06
-3.12184e-08
-4.1478e-08
-2.08141e-06
-4.23796e-08
-3.94596e-08
-2.42863e-06
-5.22775e-08
-3.72846e-08
-2.79685e-06
-6.04996e-08
-3.4911e-08
-3.18911e-06
-6.67857e-08
-3.23869e-08
-3.60489e-06
-2.98071e-08
-4.04067e-06
-7.09184e-08
-9.70194e-09
-1.35109e-06
-5.65783e-08
-2.18259e-08
-1.73671e-06
-5.1641e-08
-3.42504e-08
-2.07435e-06
-4.87042e-08
-4.59154e-08
-2.42145e-06
-4.60846e-08
-5.61854e-08
-2.7898e-06
-4.32589e-08
-6.46546e-08
-3.18232e-06
-4.013e-08
-7.10515e-08
-3.59842e-06
-3.67325e-08
-4.03453e-06
-3.31668e-08
-7.51348e-08
-1.07978e-08
1.38982e-08
-1.33244e-06
-2.08569e-08
-2.42105e-08
9.38564e-09
-1.71575e-06
-1.55468e-08
-3.73562e-08
6.4217e-09
-2.04946e-06
-1.22423e-08
-4.88826e-08
3.64876e-09
-2.39159e-06
-9.04339e-09
-5.8191e-08
7.30623e-10
-2.75413e-06
-5.55878e-09
-6.51361e-08
-2.41892e-09
-3.14021e-06
-1.70608e-09
-6.97511e-08
-5.78543e-09
-3.54933e-06
2.48509e-09
-9.31582e-09
-3.97806e-06
6.93336e-09
-7.20943e-08
-9.23593e-09
4.01191e-09
-1.3428e-06
-2.16331e-08
8.22307e-10
-1.72701e-06
-3.42944e-08
-1.20659e-09
-2.06214e-06
-4.56912e-08
-3.05435e-09
-2.40592e-06
-5.50837e-08
-5.02398e-09
-2.77013e-06
-6.22273e-08
-7.14321e-09
-3.15784e-06
-6.7101e-08
-9.4024e-09
-3.56852e-06
-1.1795e-08
-3.99865e-06
-6.97262e-08
-7.6856e-09
-1.06854e-08
-1.35782e-06
-2.02081e-08
-1.08691e-08
-1.74129e-06
-3.33558e-08
-1.11087e-08
-2.0772e-06
-4.51122e-08
-1.13889e-08
-2.42316e-06
-5.47977e-08
-1.1975e-08
-2.78781e-06
-6.21423e-08
-1.26867e-08
-3.1761e-06
-6.71981e-08
-1.35278e-08
-3.58806e-06
-1.45259e-08
-4.01986e-06
-7.00024e-08
-7.66985e-09
-2.23607e-08
-1.35218e-06
-1.84678e-08
-2.09929e-08
-1.73949e-06
-2.98219e-08
-2.00896e-08
-2.07933e-06
-4.18002e-08
-1.94073e-08
-2.42947e-06
-5.11206e-08
-1.85789e-08
-2.79574e-06
-5.82705e-08
-1.78325e-08
-3.18529e-06
-6.32613e-08
-1.72199e-08
-3.59896e-06
-1.6778e-08
-4.03295e-06
-6.61879e-08
-7.90795e-09
-3.25564e-08
-1.34555e-06
-1.81554e-08
-2.97968e-08
-1.73252e-06
-2.89333e-08
-2.78803e-08
-2.07166e-06
-3.89432e-08
-2.60718e-08
-2.42034e-06
-4.74917e-08
-2.4197e-08
-2.78982e-06
-5.42773e-08
-2.22608e-08
-3.18339e-06
-5.92392e-08
-2.03358e-08
-3.60052e-06
-1.85068e-08
-4.03768e-06
-6.23684e-08
-7.63559e-09
-4.26365e-08
-1.339e-06
-1.75455e-08
-3.80345e-08
-1.72512e-06
-2.77779e-08
-3.50294e-08
-2.064e-06
-3.72632e-08
-3.22944e-08
-2.4129e-06
-4.54235e-08
-2.94482e-08
-2.78343e-06
-5.19651e-08
-2.64471e-08
-3.17839e-06
-5.68041e-08
-2.33427e-08
-3.59707e-06
-2.02312e-08
-4.03586e-06
-5.99435e-08
-8.83288e-09
-1.33371e-06
-5.11578e-08
-1.95844e-08
-1.71913e-06
-4.48372e-08
-3.0323e-08
-2.05765e-06
-4.09729e-08
-4.01118e-08