/*--------------------------------*- C++ -*----------------------------------*\
| =========                 |                                                 |
| \\      /  F ield         | OpenFOAM: The Open Source CFD Toolbox           |
|  \\    /   O peration     | Version:  plus.master.MPPICInterFoam            |
|   \\  /    A nd           | Web:      www.OpenFOAM.com                      |
|    \\/     M anipulation  |                                                 |
\*---------------------------------------------------------------------------*/
FoamFile
{
    version     2.0;
    format      ascii;
    class       volVectorField;
    location    "11.8";
    object      U;
}
// * * * * * * * * * * * * * * * * * * * * * * * * * * * * * * * * * * * * * //

dimensions      [0 1 -1 0 0 0 0];

internalField   nonuniform List<vector> 
11821
(
(-0.000190613 -0.000232276 -0.0341333)
(-0.000150538 2.11521e-05 -0.0378396)
(-0.000157071 0.000244315 -0.0392012)
(-0.000157613 0.000444941 -0.0399943)
(-0.000156962 0.000633978 -0.0405834)
(-0.000146611 0.000802466 -0.0410718)
(-0.000121264 0.000942627 -0.0414662)
(-8.06566e-05 0.00104835 -0.0417286)
(-0.000332036 -0.000593355 -0.0345056)
(-0.000374702 -0.000325416 -0.038301)
(-0.000429016 -0.00012225 -0.039853)
(-0.000457721 8.12845e-05 -0.0405602)
(-0.000494322 0.000271837 -0.0410499)
(-0.000521273 0.000437284 -0.0414877)
(-0.000526319 0.00057713 -0.0418627)
(-0.000507845 0.000687183 -0.0421233)
(-0.00030866 -0.000757539 -0.034908)
(-0.000448496 -0.000522199 -0.0390919)
(-0.000476712 -0.000373574 -0.0413921)
(-0.000506198 -0.00025321 -0.0415077)
(-0.00061747 -0.000128785 -0.0417689)
(-0.000709378 -1.01694e-05 -0.0419475)
(-0.000753156 9.3686e-05 -0.0422201)
(-0.000766533 0.000181589 -0.0424485)
(-9.83572e-05 -0.000868004 -0.0348098)
(-0.000290566 -0.000726279 -0.0386285)
(-0.00044548 -0.000633969 -0.0402735)
(-0.000564358 -0.000583634 -0.0411754)
(-0.000681766 -0.000543888 -0.0415356)
(-0.000772208 -0.000493632 -0.0419292)
(-0.00083044 -0.000444863 -0.0423055)
(-0.00085428 -0.000399835 -0.0425852)
(0.000145358 -0.00107114 -0.0346533)
(-6.86376e-05 -0.00102304 -0.0383307)
(-0.000251954 -0.00101207 -0.0397883)
(-0.000389829 -0.00101315 -0.0406057)
(-0.000511983 -0.00101953 -0.041221)
(-0.000605968 -0.00102203 -0.0417546)
(-0.000665144 -0.00101875 -0.0422019)
(-0.00068749 -0.00100852 -0.0425194)
(0.00044942 -0.00114392 -0.0344065)
(0.000247582 -0.00119359 -0.0380509)
(7.10265e-05 -0.00126388 -0.0394488)
(-5.98474e-05 -0.00133617 -0.0402807)
(-0.000166728 -0.00140505 -0.0409397)
(-0.000241068 -0.00145996 -0.0415016)
(-0.000281503 -0.00149789 -0.0419654)
(-0.000288306 -0.00151697 -0.0422914)
(0.000759462 -0.00110749 -0.0340579)
(0.000591687 -0.00124144 -0.0376905)
(0.000441022 -0.00138726 -0.0390544)
(0.000334973 -0.00151976 -0.0398945)
(0.000257389 -0.00163601 -0.0405541)
(0.000211749 -0.00172701 -0.0411093)
(0.000196415 -0.0017898 -0.0415613)
(0.000209027 -0.00182185 -0.0418713)
(-0.000140982 -0.000142805 -0.0336076)
(-8.7841e-05 0.000126032 -0.0372086)
(-9.01637e-05 0.000347709 -0.038604)
(-8.80522e-05 0.000537721 -0.0394385)
(-9.02251e-05 0.0007157 -0.0400673)
(-8.71471e-05 0.000875622 -0.0406132)
(-7.15521e-05 0.00100919 -0.0410764)
(-4.22504e-05 0.00111089 -0.0414156)
(-0.000291242 -0.00046993 -0.0339795)
(-0.00031858 -0.00018894 -0.0377113)
(-0.000366021 2.33864e-05 -0.0392737)
(-0.000401168 0.000218079 -0.0400441)
(-0.000445307 0.000388237 -0.0405388)
(-0.00047743 0.000533656 -0.0410202)
(-0.000489332 0.000657779 -0.0414551)
(-0.000479665 0.000756842 -0.0417864)
(-0.000281072 -0.000637412 -0.034414)
(-0.000378208 -0.000411347 -0.0386906)
(-0.000418624 -0.000259754 -0.0404797)
(-0.000514475 -0.000142488 -0.0411559)
(-0.000633651 -2.71641e-05 -0.0412853)
(-0.000715455 7.74778e-05 -0.041485)
(-0.000753738 0.00016833 -0.0418086)
(-0.0007649 0.000245123 -0.0420997)
(-0.000108604 -0.000769191 -0.0342655)
(-0.00027978 -0.000650646 -0.0380371)
(-0.000434361 -0.000586508 -0.0397496)
(-0.000566971 -0.000538059 -0.0407017)
(-0.000689477 -0.000493297 -0.0410553)
(-0.000775336 -0.00044458 -0.041462)
(-0.000829435 -0.000399943 -0.041887)
(-0.000853015 -0.000360259 -0.042231)
(0.000106678 -0.000968122 -0.0340946)
(-9.42587e-05 -0.00094329 -0.037703)
(-0.000265612 -0.000949888 -0.0392235)
(-0.000395146 -0.000959016 -0.0400838)
(-0.000512153 -0.000968621 -0.0406955)
(-0.000602678 -0.000975553 -0.0412747)
(-0.000660776 -0.000978087 -0.0417828)
(-0.000685373 -0.000974741 -0.0421705)
(0.0003833 -0.00104146 -0.0338735)
(0.000200517 -0.0011177 -0.037434)
(4.22928e-05 -0.00119971 -0.0388977)
(-7.41948e-05 -0.00127776 -0.0397277)
(-0.000173907 -0.00135273 -0.0404247)
(-0.000244255 -0.0014137 -0.0410431)
(-0.000284156 -0.00145837 -0.0415732)
(-0.000293799 -0.00148503 -0.041973)
(0.000677866 -0.00102211 -0.0335656)
(0.000539239 -0.00117827 -0.0370996)
(0.000407487 -0.00133219 -0.0384884)
(0.000316524 -0.0014691 -0.0393634)
(0.000247734 -0.0015901 -0.0400769)
(0.000206461 -0.0016866 -0.0406962)
(0.000191526 -0.00175612 -0.0412194)
(0.000201169 -0.0017963 -0.0416073)
(-7.20717e-05 -2.44949e-05 -0.033066)
(-1.77858e-05 0.000248955 -0.036593)
(-2.19778e-05 0.000461235 -0.0380648)
(-2.32599e-05 0.000633637 -0.0389312)
(-3.34605e-05 0.000794889 -0.0395643)
(-4.14083e-05 0.00094016 -0.0401572)
(-3.8023e-05 0.00106079 -0.0406824)
(-2.13258e-05 0.00115213 -0.0410929)
(-0.000234337 -0.000315114 -0.0334456)
(-0.000251764 -3.49295e-05 -0.0371351)
(-0.000297771 0.000185982 -0.0387823)
(-0.000351392 0.000350456 -0.039499)
(-0.000406871 0.000494131 -0.0400273)
(-0.000445398 0.000616999 -0.0405542)
(-0.000464253 0.000721011 -0.0410453)
(-0.000462476 0.000803826 -0.0414421)
(-0.00024331 -0.000512961 -0.0339231)
(-0.000283942 -0.000308889 -0.0382006)
(-0.000397106 -0.000158164 -0.0403899)
(-0.000546323 -3.91816e-05 -0.0406064)
(-0.0006521 6.05748e-05 -0.0407068)
(-0.000721938 0.000148562 -0.0410072)
(-0.000757607 0.000224209 -0.0413932)
(-0.000766626 0.000286958 -0.0417461)
(-0.000114891 -0.000690881 -0.0337171)
(-0.000268529 -0.000593728 -0.0374547)
(-0.000427638 -0.000553176 -0.0391522)
(-0.000569747 -0.00049863 -0.0400511)
(-0.000695315 -0.000452489 -0.0405071)
(-0.000776358 -0.000408769 -0.040986)
(-0.000826347 -0.000370069 -0.0414654)
(-0.000847443 -0.000336887 -0.0418699)
(7.92573e-05 -0.000889 -0.0335229)
(-0.000107482 -0.00088357 -0.0370851)
(-0.000272001 -0.000903779 -0.0386706)
(-0.000399872 -0.000919777 -0.0394918)
(-0.000513583 -0.000933037 -0.0401709)
(-0.000597748 -0.000942933 -0.0407981)
(-0.000651945 -0.000949201 -0.0413624)
(-0.000675555 -0.000950556 -0.0418151)
(0.000340174 -0.000977378 -0.0333209)
(0.000174664 -0.00107251 -0.0368221)
(2.93788e-05 -0.00116254 -0.0383347)
(-7.8214e-05 -0.00124396 -0.0391878)
(-0.000171475 -0.00131884 -0.0399153)
(-0.000238155 -0.00138073 -0.0405853)
(-0.000276828 -0.00142724 -0.0411765)
(-0.000287844 -0.00145691 -0.0416454)
(0.000630929 -0.000977685 -0.0330489)
(0.000513552 -0.00114778 -0.0365096)
(0.000397109 -0.00130417 -0.0379502)
(0.000316255 -0.00143944 -0.0388384)
(0.000252829 -0.00155995 -0.0396002)
(0.00021362 -0.00165651 -0.0402792)
(0.000197766 -0.00172724 -0.0408693)
(0.000204018 -0.00177019 -0.0413309)
(9.41808e-06 0.000106268 -0.0325057)
(5.65292e-05 0.000369977 -0.0359916)
(4.47687e-05 0.000566504 -0.037508)
(3.19325e-05 0.000718351 -0.0384469)
(8.24439e-06 0.000859225 -0.0390746)
(-1.24136e-05 0.000984053 -0.0397079)
(-2.18269e-05 0.00108577 -0.0402904)
(-1.79156e-05 0.0011609 -0.0407682)
(-0.000168071 -0.00015147 -0.0328996)
(-0.000178358 0.000114452 -0.0365675)
(-0.000236412 0.000314927 -0.0381685)
(-0.000311321 0.000458504 -0.0389298)
(-0.000378632 0.000576509 -0.0395146)
(-0.00042244 0.000674131 -0.0400925)
(-0.000447099 0.000755221 -0.0406389)
(-0.000452003 0.000818383 -0.0410984)
(-0.000190849 -0.000393984 -0.0334247)
(-0.000235963 -0.000208655 -0.0377057)
(-0.000387647 -7.09111e-05 -0.0396934)
(-0.00054997 3.97565e-05 -0.0399309)
(-0.00065859 0.000125275 -0.0401348)
(-0.000722706 0.000195952 -0.0405253)
(-0.00075531 0.000254577 -0.0409783)
(-0.000762347 0.000301394 -0.0413938)
(-0.000116278 -0.000623962 -0.0331599)
(-0.000257205 -0.000546986 -0.0368645)
(-0.000416009 -0.000511123 -0.0385471)
(-0.000566881 -0.000462288 -0.0394262)
(-0.000693041 -0.000421546 -0.0399585)
(-0.000767693 -0.000384862 -0.0405083)
(-0.000812289 -0.000353745 -0.0410465)
(-0.000829943 -0.000328305 -0.0415108)
(6.28036e-05 -0.000825769 -0.0329399)
(-0.000106094 -0.000834997 -0.0364703)
(-0.000267337 -0.000863605 -0.038057)
(-0.000401257 -0.000889581 -0.0389375)
(-0.000510008 -0.00090565 -0.0396512)
(-0.000585077 -0.000917265 -0.0403296)
(-0.000632889 -0.000925874 -0.0409484)
(-0.000653191 -0.000930332 -0.0414626)
(0.000317775 -0.000940992 -0.0327494)
(0.000170476 -0.00104526 -0.0362152)
(3.25402e-05 -0.0011411 -0.0377949)
(-7.40042e-05 -0.00122307 -0.0386289)
(-0.000161645 -0.00129387 -0.0394119)
(-0.000223128 -0.00135163 -0.0401342)
(-0.000259266 -0.00139545 -0.0407835)
(-0.000270285 -0.00142396 -0.041318)
(0.000612689 -0.000962948 -0.0325068)
(0.000510792 -0.0011371 -0.0359189)
(0.000404364 -0.00129087 -0.0373972)
(0.000328181 -0.00142132 -0.0383184)
(0.000267727 -0.00153471 -0.0391277)
(0.000229087 -0.00162534 -0.0398638)
(0.000211486 -0.00169159 -0.0405176)
(0.000214049 -0.00173194 -0.0410498)
(9.28117e-05 0.000232907 -0.0319316)
(0.000128432 0.000471289 -0.0354068)
(0.000103247 0.000646403 -0.0370322)
(7.05278e-05 0.000777326 -0.0379289)
(2.97323e-05 0.000898258 -0.0385923)
(-2.82399e-06 0.0009987 -0.0392707)
(-2.40527e-05 0.00107716 -0.0399087)
(-3.19002e-05 0.00113156 -0.0404506)
(-0.000102454 2.18713e-06 -0.0323399)
(-0.00011187 0.000238159 -0.0360007)
(-0.000187198 0.000408237 -0.037647)
(-0.000279473 0.00053105 -0.0383904)
(-0.000356163 0.00062294 -0.0390107)
(-0.000405723 0.000695896 -0.0396406)
(-0.000435505 0.000753601 -0.040243)
(-0.000446052 0.000795611 -0.0407637)
(-0.000137851 -0.000285395 -0.032912)
(-0.000202853 -0.000123082 -0.0371287)
(-0.000369754 -4.83619e-06 -0.0386877)
(-0.000542067 9.21089e-05 -0.0391905)
(-0.000653102 0.000162725 -0.0395637)
(-0.000712128 0.00021568 -0.0400482)
(-0.00074209 0.000256769 -0.0405712)
(-0.000747987 0.000287002 -0.0410506)
(-0.000113934 -0.000564025 -0.0325926)
(-0.00024564 -0.000504092 -0.0362691)
(-0.000403744 -0.000470991 -0.0379601)
(-0.000553898 -0.000434073 -0.038819)
(-0.000673147 -0.000399947 -0.0394267)
(-0.000743144 -0.000371443 -0.0400406)
(-0.000783242 -0.000348952 -0.0406377)
(-0.000797629 -0.000332016 -0.0411622)
(5.46625e-05 -0.000773082 -0.0323509)
(-9.39907e-05 -0.000792391 -0.0358581)
(-0.000256905 -0.000827541 -0.0374669)
(-0.000393566 -0.000860079 -0.038392)
(-0.000493257 -0.000879137 -0.0391507)
(-0.000560071 -0.000892638 -0.0398769)
(-0.000601319 -0.000902862 -0.0405491)
(-0.000617537 -0.000909233 -0.041123)
(0.00031072 -0.000920656 -0.0321665)
(0.000181724 -0.00102437 -0.0356093)
(4.5512e-05 -0.00112136 -0.0371774)
(-6.39044e-05 -0.00120337 -0.0381102)
(-0.000144697 -0.00126697 -0.0389257)
(-0.000200421 -0.0013176 -0.0396978)
(-0.000233364 -0.00135546 -0.0404035)
(-0.000243665 -0.00137954 -0.041001)
(0.000614737 -0.000965733 -0.0319464)
(0.000524418 -0.00113289 -0.0353301)
(0.000421853 -0.00128148 -0.0368503)
(0.000344543 -0.00140338 -0.0378076)
(0.0002859 -0.00150456 -0.0386666)
(0.000246956 -0.00158411 -0.0394586)
(0.000226945 -0.00164097 -0.0401737)
(0.000225402 -0.00167406 -0.0407737)
(0.000168698 0.000341337 -0.0313526)
(0.000188042 0.000544471 -0.0348428)
(0.000146703 0.000689097 -0.0364801)
(8.71743e-05 0.000804091 -0.0373606)
(2.80375e-05 0.000905962 -0.0381165)
(-1.36505e-05 0.000979627 -0.0388517)
(-4.45094e-05 0.0010324 -0.0395457)
(-6.25716e-05 0.00106362 -0.0401495)
(-4.18722e-05 0.000128061 -0.0317648)
(-6.53259e-05 0.000321169 -0.0354136)
(-0.000156582 0.000463494 -0.0370103)
(-0.000258681 0.000559135 -0.0378064)
(-0.000339548 0.000628853 -0.0385127)
(-0.000394472 0.000679962 -0.0392036)
(-0.000428805 0.000715545 -0.0398643)
(-0.000444021 0.000736529 -0.040446)
(-0.000103345 -0.000191014 -0.0323716)
(-0.00017073 -5.99561e-05 -0.0364554)
(-0.000346919 3.78787e-05 -0.0380672)
(-0.000523071 0.00011757 -0.0385516)
(-0.000630293 0.000171486 -0.0390096)
(-0.000687795 0.000207743 -0.0395837)
(-0.000717089 0.000232113 -0.0401788)
(-0.000723171 0.000246314 -0.0407239)
(-0.000106663 -0.000510757 -0.0320119)
(-0.000231006 -0.000461883 -0.0356507)
(-0.00038998 -0.000438399 -0.0372935)
(-0.000532411 -0.000411808 -0.0381922)
(-0.000638416 -0.000385985 -0.0388992)
(-0.000704269 -0.000366457 -0.0395866)
(-0.000740725 -0.000352908 -0.0402466)
(-0.000752238 -0.000344491 -0.0408324)
(5.29133e-05 -0.000729892 -0.0317596)
(-8.07671e-05 -0.000757464 -0.0352556)
(-0.000240622 -0.00079599 -0.0368821)
(-0.00036975 -0.000829365 -0.0378332)
(-0.000461449 -0.000850633 -0.0386622)
(-0.000522496 -0.000865517 -0.0394442)
(-0.000558531 -0.000876408 -0.0401716)
(-0.000571065 -0.000883447 -0.0408046)
(0.000312968 -0.000906981 -0.0315793)
(0.000199561 -0.00100285 -0.0350111)
(6.23995e-05 -0.00109704 -0.0366231)
(-4.56142e-05 -0.00117387 -0.0375797)
(-0.000120105 -0.00122971 -0.0384575)
(-0.000171715 -0.00127208 -0.039283)
(-0.000202358 -0.00130206 -0.0400445)
(-0.000212256 -0.00131941 -0.0407033)
(0.000627823 -0.000974325 -0.0313782)
(0.000544613 -0.00112495 -0.0347515)
(0.000440689 -0.00126408 -0.0362886)
(0.000360052 -0.00137479 -0.0373128)
(0.00030204 -0.00146083 -0.0382247)
(0.000261797 -0.00152607 -0.039072)
(0.000238506 -0.00157018 -0.0398468)
(0.000232176 -0.00159259 -0.0405121)
(0.000229743 0.000420565 -0.0307777)
(0.000229971 0.000580102 -0.0343164)
(0.000162883 0.000701149 -0.0359501)
(7.73289e-05 0.000802884 -0.0369145)
(6.81478e-06 0.00087905 -0.037678)
(-4.29619e-05 0.000926622 -0.0384604)
(-8.15298e-05 0.000953836 -0.0392097)
(-0.000107893 0.000961539 -0.0398737)
(8.84411e-06 0.000218846 -0.031184)
(-3.21937e-05 0.000366319 -0.0348609)
(-0.000144015 0.000476181 -0.0364313)
(-0.000253237 0.000549872 -0.0372596)
(-0.00033367 0.00060049 -0.0380333)
(-0.000390508 0.000631287 -0.0387889)
(-0.000427527 0.000646173 -0.0395104)
(-0.000446034 0.000647238 -0.0401534)
(-7.36827e-05 -0.000119571 -0.0318314)
(-0.000155944 -1.85679e-05 -0.0357574)
(-0.000333419 5.78889e-05 -0.0371792)
(-0.000495186 0.000116195 -0.0378788)
(-0.000596374 0.000154213 -0.0384786)
(-0.000654712 0.000176049 -0.0391407)
(-0.000684243 0.000185638 -0.039809)
(-0.000690841 0.000185403 -0.0404208)
(-9.29265e-05 -0.000468353 -0.0314286)
(-0.000210591 -0.000431929 -0.035027)
(-0.000372051 -0.000414541 -0.0366519)
(-0.000504026 -0.000395448 -0.0376125)
(-0.000595374 -0.000379089 -0.0383977)
(-0.000655373 -0.00036798 -0.0391571)
(-0.000688481 -0.000362332 -0.0398811)
(-0.000697711 -0.000361371 -0.0405289)
(5.65787e-05 -0.000697245 -0.0311746)
(-6.75789e-05 -0.000730503 -0.0346571)
(-0.000216503 -0.000768284 -0.0362588)
(-0.000334726 -0.00079762 -0.0372951)
(-0.000419766 -0.000818626 -0.0381947)
(-0.000476182 -0.00083334 -0.0390369)
(-0.000508398 -0.000843576 -0.0398217)
(-0.000518264 -0.000849927 -0.0405139)
(0.000320485 -0.0008951 -0.0309982)
(0.000215725 -0.000979524 -0.0344263)
(8.28322e-05 -0.0010634 -0.0360185)
(-1.98943e-05 -0.00113135 -0.0370746)
(-9.13859e-05 -0.00117863 -0.0380133)
(-0.000140865 -0.00121174 -0.0388949)
(-0.00017062 -0.00123257 -0.039713)
(-0.000181035 -0.00124166 -0.0404319)
(0.000644291 -0.000979926 -0.0308115)
(0.000561646 -0.00110814 -0.0341881)
(0.000455664 -0.00123252 -0.0357647)
(0.000372545 -0.00132772 -0.0368391)
(0.000312471 -0.0013979 -0.0378072)
(0.000269146 -0.00144747 -0.0387108)
(0.000241362 -0.00147706 -0.0395442)
(0.000229361 -0.00148679 -0.0402725)
(0.000269058 0.0004661 -0.0302234)
(0.000242799 0.000584767 -0.0337808)
(0.000143171 0.000686091 -0.0354402)
(4.52769e-05 0.000767179 -0.0363885)
(-2.97168e-05 0.000818338 -0.0372562)
(-8.70155e-05 0.000843444 -0.0381014)
(-0.000131722 0.00084758 -0.0389073)
(-0.000164313 0.000833483 -0.0396298)
(4.87249e-05 0.000274027 -0.0306125)
(-1.44426e-05 0.000378723 -0.0342156)
(-0.000145846 0.000461699 -0.0357917)
(-0.000257307 0.000515788 -0.0367304)
(-0.00033658 0.000545828 -0.0375832)
(-0.000393232 0.000557434 -0.0384057)
(-0.00043109 0.000553649 -0.0391889)
(-0.000451444 0.000536947 -0.0398926)
(-4.92496e-05 -7.43174e-05 -0.0312818)
(-0.000146935 -4.24653e-06 -0.035124)
(-0.000327495 5.44726e-05 -0.0364593)
(-0.000472688 9.51418e-05 -0.0372168)
(-0.000564296 0.000118561 -0.0379689)
(-0.000619265 0.000127631 -0.038727)
(-0.00064778 0.000124885 -0.0394698)
(-0.000654397 0.000112671 -0.0401485)
(-7.92241e-05 -0.000438759 -0.030858)
(-0.000192337 -0.00041481 -0.0344252)
(-0.000349342 -0.000401888 -0.0360583)
(-0.00046782 -0.000387278 -0.0370574)
(-0.000548424 -0.000377556 -0.0379327)
(-0.000601368 -0.000372745 -0.0387612)
(-0.000631198 -0.00037296 -0.0395486)
(-0.000638716 -0.000377532 -0.040258)
(6.30596e-05 -0.000672457 -0.030606)
(-5.05702e-05 -0.000705534 -0.0340744)
(-0.00018919 -0.000738972 -0.0356853)
(-0.000297093 -0.000763733 -0.03679)
(-0.000374853 -0.000781458 -0.0377575)
(-0.000426779 -0.000793949 -0.0386614)
(-0.000456104 -0.000801949 -0.0395049)
(-0.000464306 -0.000806159 -0.0402562)
(0.000329133 -0.000882721 -0.0304347)
(0.000228865 -0.000951446 -0.0338578)
(0.000103553 -0.00102211 -0.035471)
(6.32801e-06 -0.00107608 -0.0365944)
(-6.37766e-05 -0.00111278 -0.0375978)
(-0.000112682 -0.00113553 -0.0385382)
(-0.000142811 -0.00114628 -0.0394138)
(-0.000154723 -0.00114619 -0.0401918)
(0.000657553 -0.000978002 -0.0302619)
(0.000568549 -0.00108021 -0.0336471)
(0.000461726 -0.00118324 -0.03524)
(0.000377578 -0.00126016 -0.0363923)
(0.000313188 -0.00131425 -0.037419)
(0.00026512 -0.00134779 -0.0383797)
(0.000231824 -0.00136222 -0.0392711)
(0.000213459 -0.00135849 -0.0400602)
(0.00028732 0.000473109 -0.0296992)
(0.000222169 0.000557887 -0.033234)
(9.82345e-05 0.000641559 -0.0348559)
(-3.05255e-06 0.000702943 -0.0359191)
(-7.98563e-05 0.000732448 -0.0368697)
(-0.00014096 0.000737335 -0.0377796)
(-0.00018963 0.000721864 -0.0386431)
(-0.000226476 0.000689407 -0.0394223)
(7.98513e-05 0.000301664 -0.0300664)
(-1.07392e-05 0.000366392 -0.0336566)
(-0.000157099 0.000424612 -0.035229)
(-0.000266649 0.000459469 -0.036242)
(-0.000343716 0.000471225 -0.0371706)
(-0.000399237 0.000466326 -0.0380607)
(-0.000436925 0.000447108 -0.0389056)
(-0.000458102 0.00041597 -0.0396685)
(-3.37358e-05 -5.13942e-05 -0.030672)
(-0.000153231 -7.55485e-06 -0.0343183)
(-0.000326136 3.43351e-05 -0.035778)
(-0.000450414 6.13699e-05 -0.0366688)
(-0.000533022 7.25748e-05 -0.0375102)
(-0.000582883 7.09505e-05 -0.0383532)
(-0.000609361 5.86192e-05 -0.0391683)
(-0.00061566 3.74617e-05 -0.0399124)
(-7.00625e-05 -0.000425096 -0.0303044)
(-0.000180915 -0.000408228 -0.0338343)
(-0.000322907 -0.000393515 -0.0354876)
(-0.000428289 -0.00038266 -0.0365727)
(-0.000501095 -0.000376593 -0.0375193)
(-0.000547497 -0.000375722 -0.0384066)
(-0.000573666 -0.000379554 -0.0392547)
(-0.000579617 -0.000387423 -0.0400242)
(6.90736e-05 -0.000651346 -0.030062)
(-3.559e-05 -0.000679618 -0.0335255)
(-0.000162728 -0.000705988 -0.035183)
(-0.000259998 -0.000724903 -0.0363294)
(-0.000331648 -0.000737449 -0.0373588)
(-0.000379592 -0.000745556 -0.0383234)
(-0.000406544 -0.000749568 -0.0392257)
(-0.000413749 -0.000750144 -0.0400351)
(0.000334037 -0.000866247 -0.0298958)
(0.000235946 -0.000915085 -0.0333191)
(0.000118383 -0.000968644 -0.0349492)
(2.6959e-05 -0.00100762 -0.03615)
(-4.22729e-05 -0.00103224 -0.0372176)
(-9.14954e-05 -0.00104371 -0.0382175)
(-0.000122813 -0.00104378 -0.0391506)
(-0.000136899 -0.00103404 -0.0399862)
(0.000661354 -0.000964912 -0.0297365)
(0.000562813 -0.00103735 -0.0331324)
(0.000454455 -0.00111659 -0.0347566)
(0.000368836 -0.0011742 -0.0359761)
(0.000300103 -0.00121144 -0.0370641)
(0.000246853 -0.00122888 -0.0380826)
(0.000207759 -0.00122825 -0.0390312)
(0.000182885 -0.00121119 -0.0398787)
(0.000280952 0.000451366 -0.0292177)
(0.000178296 0.000503078 -0.0327552)
(4.48169e-05 0.000574039 -0.0343911)
(-5.69281e-05 0.000616525 -0.0355052)
(-0.000134844 0.000628203 -0.0365261)
(-0.000197782 0.000616616 -0.0374988)
(-0.00024857 0.000585883 -0.038419)
(-0.000287871 0.000539565 -0.0392524)
(9.04248e-05 0.000310614 -0.0295537)
(-1.96343e-05 0.000336896 -0.0330866)
(-0.000167561 0.000369636 -0.0346853)
(-0.000274032 0.000386581 -0.0357958)
(-0.000350138 0.000384468 -0.0368007)
(-0.000404585 0.000366857 -0.0377577)
(-0.000441552 0.000336052 -0.0386632)
(-0.000462822 0.000294434 -0.0394832)
(-2.55526e-05 -4.20806e-05 -0.0301313)
(-0.000160748 -1.76719e-05 -0.0336881)
(-0.000323464 1.04854e-05 -0.0351072)
(-0.000429404 2.34663e-05 -0.0361549)
(-0.000501108 2.40452e-05 -0.0371053)
(-0.000545924 1.4853e-05 -0.0380261)
(-0.000569906 -4.13629e-06 -0.0389094)
(-0.000575433 -3.11641e-05 -0.0397157)
(-6.28672e-05 -0.000418265 -0.0297747)
(-0.00016718 -0.000403057 -0.0332735)
(-0.000298015 -0.000384791 -0.0349298)
(-0.000393386 -0.000375041 -0.0361616)
(-0.000455197 -0.000370879 -0.0371805)
(-0.000495747 -0.000371852 -0.0380993)
(-0.000519366 -0.000377025 -0.0390031)
(-0.000523727 -0.000385893 -0.0398302)
(7.34793e-05 -0.000629802 -0.029549)
(-2.31686e-05 -0.00064948 -0.0330109)
(-0.000140092 -0.000667509 -0.0346747)
(-0.000229068 -0.000678539 -0.0359104)
(-0.000294599 -0.000684287 -0.0370037)
(-0.000338513 -0.000686642 -0.0380276)
(-0.000363131 -0.000685027 -0.0389874)
(-0.000369553 -0.000680494 -0.0398529)
(0.000332626 -0.000841538 -0.029388)
(0.000235728 -0.000867642 -0.0328186)
(0.000124083 -0.00090349 -0.0344839)
(3.71087e-05 -0.000926719 -0.0357481)
(-3.08866e-05 -0.000938005 -0.0368778)
(-8.03844e-05 -0.00093738 -0.0379366)
(-0.000112948 -0.000926384 -0.0389262)
(-0.000129336 -0.00090688 -0.0398172)
(0.000651676 -0.000937681 -0.0292418)
(0.000542746 -0.000978495 -0.032655)
(0.000431828 -0.00103426 -0.0343215)
(0.000344107 -0.00107214 -0.0356)
(0.000271566 -0.00109207 -0.0367471)
(0.000213596 -0.00109362 -0.0378226)
(0.000169166 -0.00107854 -0.0388269)
(0.000138244 -0.00104896 -0.0397297)
(0.000250093 0.000414895 -0.028768)
(0.000125392 0.0004393 -0.032268)
(-6.74793e-06 0.000491462 -0.0339235)
(-0.000107895 0.000515646 -0.0351353)
(-0.00018745 0.00051397 -0.0362263)
(-0.000251041 0.00049029 -0.0372601)
(-0.000302167 0.000448811 -0.0382351)
(-0.000342109 0.000393308 -0.0391196)
(8.148e-05 0.000296044 -0.0290654)
(-3.69771e-05 0.000289782 -0.0325491)
(-0.000177229 0.00030491 -0.0341875)
(-0.000279275 0.00030659 -0.0353941)
(-0.000353634 0.000294054 -0.0364756)
(-0.000406364 0.000267581 -0.0374987)
(-0.000441876 0.000229233 -0.0384631)
(-0.000462372 0.000181367 -0.0393374)
(-2.92907e-05 -3.97623e-05 -0.0295691)
(-0.000157207 -3.21943e-05 -0.0330288)
(-0.000305692 -1.50492e-05 -0.0345771)
(-0.000403227 -1.24199e-05 -0.0357164)
(-0.000467216 -1.8061e-05 -0.0367563)
(-0.000507741 -3.27793e-05 -0.0377477)
(-0.000528849 -5.59765e-05 -0.0386953)
(-0.000533034 -8.61031e-05 -0.0395598)
(-5.64805e-05 -0.000403327 -0.0292753)
(-0.000148849 -0.000385335 -0.032761)
(-0.00027288 -0.000368924 -0.0344753)
(-0.000356942 -0.000359492 -0.035768)
(-0.000412821 -0.000355602 -0.0368079)
(-0.000451974 -0.000356744 -0.0378299)
(-0.000470765 -0.000361167 -0.0387957)
(-0.000472163 -0.000368947 -0.0396778)
(7.48485e-05 -0.000603577 -0.0290719)
(-1.30418e-05 -0.000611022 -0.0325406)
(-0.000122379 -0.000621261 -0.0342569)
(-0.000204662 -0.000623406 -0.0355405)
(-0.00026435 -0.000622179 -0.0366938)
(-0.00030457 -0.000616253 -0.0377769)
(-0.000326723 -0.000607221 -0.0387922)
(-0.000332281 -0.000596288 -0.0397107)
(0.00032272 -0.000804689 -0.0289164)
(0.000226288 -0.0008067 -0.0323637)
(0.000118963 -0.000825234 -0.0340725)
(3.55029e-05 -0.000832944 -0.0353941)
(-3.08066e-05 -0.000830549 -0.0365829)
(-7.99452e-05 -0.000817522 -0.0376986)
(-0.000113205 -0.000795448 -0.0387423)
(-0.000131532 -0.000766461 -0.039685)
(0.000626197 -0.000894112 -0.0287827)
(0.000507039 -0.000903783 -0.0322201)
(0.000393337 -0.000937193 -0.0339332)
(0.000303583 -0.00095585 -0.0352676)
(0.000228259 -0.000958733 -0.0364714)
(0.000166805 -0.00094497 -0.037602)
(0.000118232 -0.000916432 -0.038659)
(8.22943e-05 -0.000875659 -0.0396129)
(0.000205759 0.000365488 -0.0283468)
(7.17182e-05 0.000368398 -0.0318281)
(-5.73262e-05 0.000401192 -0.0335207)
(-0.000155346 0.00041057 -0.0348107)
(-0.000233575 0.000398424 -0.0359705)
(-0.000295607 0.000366324 -0.0370637)
(-0.000344985 0.00031819 -0.0380909)
(-0.000383644 0.000257846 -0.0390225)
(6.25342e-05 0.000260892 -0.0286079)
(-5.82266e-05 0.00023144 -0.0320727)
(-0.000187903 0.000234453 -0.0337582)
(-0.000282536 0.000226454 -0.0350443)
(-0.000352794 0.000207294 -0.0361989)
(-0.000402129 0.000175859 -0.0372858)
(-0.000434594 0.000133788 -0.0383063)
(-0.000453053 8.35035e-05 -0.0392304)
(-4.16303e-05 -4.2543e-05 -0.0290287)
(-0.000153058 -4.76913e-05 -0.0324389)
(-0.000283037 -3.89834e-05 -0.034083)
(-0.000370895 -4.04853e-05 -0.0353404)
(-0.000429598 -4.97002e-05 -0.0364623)
(-0.000466339 -6.77642e-05 -0.0375197)
(-0.000484377 -9.252e-05 -0.038527)
(-0.00048676 -0.000123059 -0.039445)
(-5.18511e-05 -0.000379553 -0.0288107)
(-0.000133424 -0.00035725 -0.0322977)
(-0.000242325 -0.000342735 -0.0340427)
(-0.000319 -0.000332768 -0.0353733)
(-0.000376639 -0.000328605 -0.0365658)
(-0.000411267 -0.000327543 -0.0376145)
(-0.000424295 -0.000329335 -0.0386344)
(-0.000422201 -0.000334243 -0.0395673)
(7.19182e-05 -0.000568918 -0.028633)
(-9.27091e-06 -0.000561799 -0.0321171)
(-0.000109961 -0.000562375 -0.0338672)
(-0.000184644 -0.000557247 -0.0352184)
(-0.000239812 -0.000547048 -0.0364335)
(-0.000276171 -0.000531954 -0.0375731)
(-0.000295466 -0.000514733 -0.0386409)
(-0.000299941 -0.000496841 -0.0396079)
(0.000302856 -0.000752602 -0.0284842)
(0.000206382 -0.000730745 -0.031957)
(0.00010266 -0.000732389 -0.033713)
(2.30183e-05 -0.000725636 -0.0350902)
(-4.06626e-05 -0.000709881 -0.0363354)
(-8.82489e-05 -0.000684736 -0.0375051)
(-0.000121142 -0.000652067 -0.0385992)
(-0.000140677 -0.000614312 -0.0395888)
(0.000584136 -0.000833169 -0.0283615)
(0.000456175 -0.000813798 -0.0318302)
(0.000340412 -0.000826447 -0.0335921)
(0.000249751 -0.000826897 -0.0349807)
(0.00017334 -0.000813479 -0.036239)
(0.000110259 -0.000785365 -0.0374215)
(5.92664e-05 -0.000744686 -0.0385272)
(1.97175e-05 -0.000694371 -0.0395267)
(0.000153153 0.000305814 -0.0279575)
(1.84699e-05 0.000291706 -0.0314413)
(-0.000104563 0.000309774 -0.0331829)
(-0.00019643 0.000307919 -0.0345388)
(-0.00026969 0.000287912 -0.0357618)
(-0.000327182 0.000250453 -0.0369108)
(-0.00037239 0.000199103 -0.0379862)
(-0.000407845 0.000137674 -0.0389596)
(3.68487e-05 0.000213482 -0.0281867)
(-7.90128e-05 0.000171066 -0.0316573)
(-0.000197031 0.000166531 -0.0333961)
(-0.000281882 0.000153632 -0.0347518)
(-0.00034502 0.000130697 -0.035974)
(-0.00038846 9.69303e-05 -0.037121)
(-0.000416087 5.40976e-05 -0.0381931)
(-0.00043134 4.38761e-06 -0.0391617)
(-5.29758e-05 -4.92034e-05 -0.0285323)
(-0.000147994 -6.07571e-05 -0.0319452)
(-0.00025856 -5.69281e-05 -0.0336587)
(-0.000335922 -5.92218e-05 -0.0349955)
(-0.000389861 -6.98588e-05 -0.0362027)
(-0.000421002 -8.77253e-05 -0.0373396)
(-0.000434074 -0.000111524 -0.038405)
(-0.000433677 -0.000140203 -0.0393709)
(-4.96696e-05 -0.000347808 -0.0283844)
(-0.000121002 -0.000320982 -0.0318849)
(-0.000214918 -0.000305797 -0.0336787)
(-0.000286614 -0.000295261 -0.0351248)
(-0.000338905 -0.000287725 -0.0363111)
(-0.000366049 -0.000282681 -0.0374459)
(-0.000374463 -0.000280315 -0.0385195)
(-0.00036946 -0.000281068 -0.0394975)
(6.43556e-05 -0.000522545 -0.0282337)
(-1.09765e-05 -0.000499268 -0.0317429)
(-0.000103199 -0.000489241 -0.0335389)
(-0.000170045 -0.000475598 -0.0349518)
(-0.000219162 -0.000455663 -0.0362239)
(-0.000250136 -0.000432016 -0.0374174)
(-0.00026568 -0.000406902 -0.0385334)
(-0.000268677 -0.000382213 -0.0395429)
(0.000272829 -0.000683872 -0.0280928)
(0.000176765 -0.000639852 -0.0315999)
(7.71946e-05 -0.000625686 -0.0334055)
(2.47325e-06 -0.000604968 -0.0348375)
(-5.6886e-05 -0.000576318 -0.0361367)
(-0.000101142 -0.000539707 -0.0373567)
(-0.000132217 -0.000497298 -0.0384962)
(-0.000152042 -0.000451854 -0.0395262)
(0.000526303 -0.000755034 -0.0279793)
(0.000392398 -0.000709685 -0.0314862)
(0.000276496 -0.000703271 -0.0332986)
(0.000187089 -0.0006866 -0.0347404)
(0.000111998 -0.000657856 -0.0360504)
(4.96614e-05 -0.000616579 -0.0372809)
(-1.70171e-06 -0.000565293 -0.0384298)
(-4.33265e-05 -0.000507319 -0.039468)
(9.65612e-05 0.000239143 -0.0276054)
(-3.22911e-05 0.000213602 -0.0311115)
(-0.000145386 0.000222017 -0.0329058)
(-0.000227708 0.000212139 -0.0343225)
(-0.000292319 0.000186559 -0.0356034)
(-0.000342032 0.000146035 -0.0368032)
(-0.000380625 9.39759e-05 -0.0379211)
(-0.000411364 3.41759e-05 -0.0389295)
(8.75191e-06 0.000160849 -0.0278084)
(-9.71951e-05 0.00011449 -0.0313059)
(-0.00020194 0.000106583 -0.0331013)
(-0.000274494 9.15223e-05 -0.0345221)
(-0.000327268 6.71095e-05 -0.0358057)
(-0.000362047 3.30986e-05 -0.0370068)
(-0.000382853 -8.49826e-06 -0.0381245)
(-0.000393766 -5.55227e-05 -0.0391305)
(-6.1604e-05 -5.56486e-05 -0.0280913)
(-0.000141036 -6.77513e-05 -0.0315426)
(-0.000233901 -6.49837e-05 -0.0333281)
(-0.000299186 -6.7271e-05 -0.0347602)
(-0.000344191 -7.59252e-05 -0.0360299)
(-0.00036713 -9.15959e-05 -0.0372169)
(-0.000373809 -0.000112671 -0.0383306)
(-0.000369911 -0.00013794 -0.0393367)
(-4.92175e-05 -0.000307441 -0.0280018)
(-0.000110358 -0.000275263 -0.0315329)
(-0.00019356 -0.000257063 -0.0333737)
(-0.000252758 -0.000243384 -0.0348552)
(-0.000294639 -0.000231493 -0.0361374)
(-0.000314478 -0.000221528 -0.0373265)
(-0.000317403 -0.000214273 -0.0384491)
(-0.000309426 -0.000210285 -0.0394663)
(5.1742e-05 -0.000462037 -0.027876)
(-1.74422e-05 -0.000422202 -0.0314206)
(-0.000100205 -0.000401132 -0.033267)
(-0.000157334 -0.000377241 -0.0347374)
(-0.000197785 -0.000348688 -0.0360663)
(-0.000221625 -0.0003169 -0.0373101)
(-0.00023225 -0.000284427 -0.0384686)
(-0.000233347 -0.00025356 -0.0395134)
(0.000233148 -0.000598007 -0.0277436)