/*--------------------------------*- C++ -*----------------------------------*\
| =========                 |                                                 |
| \\      /  F ield         | OpenFOAM: The Open Source CFD Toolbox           |
|  \\    /   O peration     | Version:  plus.master.MPPICInterFoam            |
|   \\  /    A nd           | Web:      www.OpenFOAM.com                      |
|    \\/     M anipulation  |                                                 |
\*---------------------------------------------------------------------------*/
FoamFile
{
    version     2.0;
    format      ascii;
    class       surfaceScalarField;
    location    "2.4";
    object      alphaPhi;
}
// * * * * * * * * * * * * * * * * * * * * * * * * * * * * * * * * * * * * * //

dimensions      [0 3 -1 0 0 0 0];

internalField   nonuniform List<scalar> 
34319
(
3.15681e-08
8.73909e-09
2.02958e-06
-2.63316e-08
-7.52217e-10
3.43788e-08
4.31446e-09
2.0274e-06
4.94485e-09
3.71522e-08
1.32362e-09
2.02542e-06
7.79372e-09
3.93389e-08
1.68635e-09
2.02325e-06
6.67005e-09
4.10503e-08
5.09515e-09
2.02094e-06
1.54055e-09
4.31869e-08
1.0874e-08
2.01859e-06
-7.3937e-09
1.57891e-08
2.01664e-06
4.61807e-08
-1.5689e-08
2.70377e-08
1.24878e-08
2.02865e-06
-1.78175e-08
3.3156e-08
1.06989e-08
2.02635e-06
3.78609e-08
8.91095e-09
2.02411e-06
4.134e-08
8.86892e-09
2.02179e-06
4.4156e-08
1.05015e-08
2.01945e-06
4.70024e-08
1.33229e-08
2.01719e-06
1.55431e-08
2.01533e-06
4.95893e-08
2.30594e-08
1.60328e-08
2.02793e-06
-1.26669e-08
3.12067e-08
1.59325e-08
2.02546e-06
3.77537e-08
1.54773e-08
2.02303e-06
4.27291e-08
1.54232e-08
2.02059e-06
4.66122e-08
1.5823e-08
2.01824e-06
4.98065e-08
1.64896e-08
2.0161e-06
1.68117e-08
2.01442e-06
5.18968e-08
2.2249e-08
1.91776e-08
2.02699e-06
-1.20097e-08
3.06821e-08
2.02792e-08
2.02444e-06
3.76819e-08
2.10894e-08
2.02193e-06
4.30796e-08
2.11254e-08
2.01945e-06
4.72265e-08
2.04771e-08
2.01712e-06
5.04148e-08
1.92789e-08
2.01505e-06
1.78687e-08
2.01346e-06
5.2332e-08
2.43541e-08
2.19294e-08
2.02585e-06
-1.51067e-08
3.1656e-08
2.42709e-08
2.02331e-06
3.7756e-08
2.62066e-08
2.02086e-06
4.24472e-08
2.62198e-08
2.01843e-06
4.60001e-08
2.44619e-08
2.01614e-06
4.86635e-08
2.13975e-08
2.01407e-06
1.82702e-08
2.01246e-06
5.01512e-08
2.90098e-08
2.4588e-08
2.0246e-06
-2.1713e-08
3.37897e-08
2.85338e-08
2.02218e-06
3.78173e-08
3.13096e-08
2.0199e-06
4.08319e-08
3.10037e-08
2.0176e-06
4.30737e-08
2.78831e-08
2.01534e-06
4.47968e-08
2.27085e-08
2.0132e-06
1.76939e-08
2.01149e-06
4.57463e-08
3.42156e-08
2.02377e-06
-3.12434e-08
2.93039e-08
3.5697e-08
2.02137e-06
3.371e-08
3.72953e-08
2.01929e-06
3.66053e-08
3.8518e-08
2.01713e-06
3.53577e-08
3.93966e-08
2.01493e-06
3.06227e-08
4.02116e-08
2.01274e-06
2.31175e-08
2.01099e-06
4.10211e-08
1.56829e-08
1.44958e-08
7.14658e-10
2.01805e-06
-9.0594e-09
5.17556e-09
1.76122e-08
-3.71081e-09
2.01507e-06
1.15736e-08
2.091e-08
-7.01098e-09
2.01285e-06
1.5327e-08
2.40908e-08
-7.47601e-09
2.01122e-06
1.55127e-08
2.70804e-08
-5.38498e-09
2.01023e-06
1.22812e-08
3.05857e-08
-9.9138e-10
2.00985e-06
5.40591e-09
3.37899e-09
2.01009e-06
3.48213e-08
-1.86524e-09
9.25816e-09
4.7604e-09
2.01584e-06
-1.84289e-09
1.53111e-08
2.42504e-09
2.01264e-06
2.07408e-08
4.43462e-10
2.01016e-06
2.55765e-08
3.42459e-11
2.0084e-06
3.01096e-08
1.13761e-09
2.00743e-06
3.47193e-08
3.47806e-09
2.00724e-06
5.68827e-09
2.00779e-06
3.90053e-08
5.45723e-09
8.54886e-09
2.01437e-06
3.49223e-09
1.32719e-08
8.00962e-09
2.01094e-06
2.02907e-08
7.4222e-09
2.00828e-06
2.65587e-08
7.30413e-09
2.00644e-06
3.22745e-08
7.65747e-09
2.00549e-06
3.7533e-08
8.34105e-09
2.00545e-06
8.87365e-09
2.0063e-06
4.18058e-08
4.45135e-09
1.21899e-08
2.01346e-06
4.52462e-09
1.2658e-08
1.32135e-08
2.00994e-06
2.01615e-08
1.40157e-08
2.00721e-06
2.68883e-08
1.42369e-08
2.00534e-06
3.29417e-08
1.39166e-08
2.00441e-06
3.83305e-08
1.31223e-08
2.00443e-06
1.2072e-08
2.00538e-06
4.26138e-08
6.1156e-09
1.58427e-08
2.01318e-06
2.04445e-09
1.35332e-08
1.83734e-08
2.0097e-06
2.03919e-08
2.0405e-08
2.00703e-06
2.65736e-08
2.08299e-08
2.00518e-06
3.21296e-08
1.97453e-08
2.00424e-06
3.70594e-08
1.74507e-08
2.00422e-06
1.47927e-08
2.00511e-06
4.09823e-08
1.00044e-08
1.96015e-08
2.01348e-06
-3.42731e-09
1.5597e-08
2.35251e-08
2.01021e-06
2.081e-08
2.66464e-08
2.00771e-06
2.55559e-08
2.70785e-08
2.00594e-06
2.98963e-08
2.50827e-08
2.00499e-06
3.3835e-08
2.11791e-08
2.00483e-06
1.68229e-08
2.00545e-06
3.70725e-08
1.50861e-08
2.01446e-06
-1.15083e-08
2.43231e-08
1.79607e-08
2.01146e-06
2.91272e-08
2.09908e-08
2.00922e-06
3.28243e-08
2.40019e-08
2.00759e-06
3.27699e-08
2.69037e-08
2.0066e-06
2.97216e-08
2.9679e-08
2.00623e-06
2.41637e-08
2.00653e-06
3.2198e-08
1.7838e-08
-9.00074e-09
-1.63893e-08
2.0023e-06
1.66273e-08
2.43875e-08
-5.08742e-10
-2.08742e-08
1.99695e-06
3.01944e-08
8.58693e-09
-2.40243e-08
1.99339e-06
3.43363e-08
1.78146e-08
-2.48458e-08
1.99167e-06
3.53285e-08
2.65697e-08
-2.34753e-08
1.99185e-06
3.33255e-08
3.4689e-08
-2.00471e-08
1.99385e-06
2.8219e-08
-1.59687e-08
1.99751e-06
4.15898e-08
2.19841e-08
-1.35722e-08
-7.85906e-09
1.99742e-06
2.31551e-08
-3.01953e-09
-1.03942e-08
1.99165e-06
7.96688e-09
-1.22525e-08
1.98775e-06
1.89129e-08
-1.2787e-08
1.98588e-06
2.93355e-08
-1.19898e-08
1.98614e-06
3.87918e-08
-1.00243e-08
1.98848e-06
-7.72856e-09
1.99264e-06
4.63813e-08
-1.68651e-08
1.39873e-09
1.99431e-06
2.76853e-08
-4.90616e-09
6.38531e-10
1.98822e-06
7.42433e-09
6.91891e-11
1.98411e-06
1.96682e-08
-7.51393e-11
1.98216e-06
3.12772e-08
2.12283e-10
1.98248e-06
4.16531e-08
8.20918e-10
1.98501e-06
1.49664e-09
1.98957e-06
4.98503e-08
-1.78572e-08
1.08819e-08
1.99302e-06
2.88628e-08
-5.50829e-09
1.18189e-08
1.9868e-06
7.27075e-09
1.25285e-08
1.98262e-06
1.99521e-08
1.27812e-08
1.98064e-06
3.19398e-08
1.25748e-08
1.98098e-06
4.25704e-08
1.19349e-08
1.98358e-06
1.10131e-08
1.98828e-06
5.09645e-08
-1.6643e-08
2.01617e-08
1.99361e-06
2.70579e-08
-4.78107e-09
2.26461e-08
1.9875e-06
7.51974e-09
2.45559e-08
1.98338e-06
1.97447e-08
2.51229e-08
1.98142e-06
3.12865e-08
2.43723e-08
1.98174e-06
4.15041e-08
2.24703e-08
1.98428e-06
1.99646e-08
1.98886e-06
4.95365e-08
-1.34809e-08
2.85537e-08
1.99602e-06
2.27543e-08
-2.92377e-09
3.23914e-08
1.99023e-06
8.05099e-09
3.54753e-08
1.98632e-06
1.90127e-08
3.62795e-08
1.98445e-06
2.93908e-08
3.49465e-08
1.98472e-06
3.85553e-08
3.17862e-08
1.98706e-06
2.78056e-08
1.99125e-06
4.56255e-08
-8.99747e-09
2.00013e-06
1.6202e-08
3.57095e-08
-4.63815e-10
1.99481e-06
4.06555e-08
8.61287e-09
1.99126e-06
4.47069e-08
1.78731e-08
1.98954e-06
4.54984e-08
2.67293e-08
1.98971e-06
4.35338e-08
3.46114e-08
1.9917e-06
3.90847e-08
1.99537e-06
4.05989e-08
3.35826e-08
-4.86232e-08
-5.25274e-08
1.96953e-06
6.52588e-08
6.86949e-08
-2.71959e-08
-5.6968e-08
1.95832e-06
7.47373e-08
-4.03078e-09
-6.02509e-08
1.95136e-06
7.9698e-08
1.96458e-08
-6.13708e-08
1.9487e-06
8.13774e-08
4.23062e-08
-6.02321e-08
1.95042e-06
7.97406e-08
6.26497e-08
-5.69633e-08
1.95646e-06
7.47992e-08
-5.26436e-08
1.96667e-06
7.80906e-08
6.88573e-08
-5.30701e-08
-3.13401e-08
1.9586e-06
7.1272e-08
-3.00757e-08
-3.41839e-08
1.94693e-06
-4.97071e-09
-3.61192e-08
1.93957e-06
2.06957e-08
-3.67673e-08
1.93676e-06
4.53023e-08
-3.60554e-08
1.9386e-06
6.71603e-08
-3.40672e-08
1.94504e-06
-3.12933e-08
1.95576e-06
8.39973e-08
-5.62976e-08
-8.19353e-09
1.95191e-06
7.61363e-08
-3.20128e-08
-9.14793e-09
1.93985e-06
-5.60339e-09
-9.77289e-09
1.93228e-06
2.14113e-08
-9.95127e-09
1.92939e-06
4.7351e-08
-9.68258e-09
1.93131e-06
7.04719e-08
-9.01204e-09
1.93795e-06
-8.10489e-09
1.94911e-06
8.88397e-08
-5.7402e-08
1.56131e-08
1.94951e-06
7.76783e-08
-3.26574e-08
1.66227e-08
1.93731e-06
-5.78596e-09
1.73368e-08
1.92967e-06
2.16867e-08
1.76173e-08
1.92676e-06
4.80669e-08
1.74307e-08
1.92869e-06
7.1628e-08
1.67814e-08
1.93542e-06
1.57521e-08
1.94673e-06
9.04777e-08
-5.62669e-08
3.86705e-08
1.95148e-06
7.5968e-08
-3.19487e-08
4.14926e-08
1.93942e-06
-5.51851e-09
4.35046e-08
1.93185e-06
2.14936e-08
4.42101e-08
1.92896e-06
4.74003e-08
4.35427e-08
1.93088e-06
7.04775e-08
4.15862e-08
1.93754e-06
3.86921e-08
1.94871e-06
8.87976e-08
-5.31397e-08
5.93916e-08
1.95775e-06
7.13703e-08
-3.00113e-08
6.35542e-08
1.94609e-06
-4.86575e-09
6.69156e-08
1.93873e-06
2.08196e-08
6.80767e-08
1.93593e-06
4.54191e-08
6.69369e-08
1.93778e-06
6.71945e-08
6.37163e-08
1.94423e-06
5.93896e-08
1.95499e-06
8.38725e-08
-4.86972e-08
1.96821e-06
6.56217e-08
7.49878e-08
-2.71186e-08
1.95705e-06
8.07332e-08
-3.94905e-09
1.95011e-06
8.57947e-08
1.97474e-08
1.94746e-06
8.73934e-08
4.24918e-08
1.94919e-06
8.57256e-08
6.28295e-08
1.95523e-06
8.09232e-08
1.96547e-06
7.80253e-08
7.51769e-08
-1.31715e-07
-1.33557e-07
1.88668e-06
1.7367e-07
1.74611e-07
-7.93189e-08
-1.37627e-07
1.86425e-06
1.80374e-07
-2.37314e-08
-1.41199e-07
1.85101e-06
1.86851e-07
3.28896e-08
-1.42577e-07
1.84641e-06
1.89217e-07
8.79487e-08
-1.41387e-07
1.85044e-06
1.87287e-07
1.38985e-07
-1.37913e-07
1.86315e-06
1.81225e-07
-1.33714e-07
1.88508e-06
1.79622e-07
1.75775e-07
-1.35741e-07
-8.1562e-08
1.86439e-06
1.79034e-07
-8.24572e-08
-8.46195e-08
1.84219e-06
-2.48612e-08
-8.66709e-08
1.8288e-06
3.40111e-08
-8.74038e-08
1.82413e-06
9.11849e-08
-8.66636e-08
1.82823e-06
1.43396e-07
-8.45304e-08
1.84108e-06
-8.13376e-08
1.86277e-06
1.85719e-07
-1.39146e-07
-2.60885e-08
1.85131e-06
1.85114e-07
-8.44952e-08
-2.71758e-08
1.82896e-06
-2.555e-08
-2.784e-08
1.81552e-06
3.47647e-08
-2.80331e-08
1.81082e-06
9.34048e-08
-2.77426e-08
1.81494e-06
1.47182e-07
-2.69946e-08
1.82784e-06
-2.58586e-08
1.84969e-06
1.9238e-07
-1.40415e-07
3.05821e-08
1.84686e-06
1.87184e-07
-8.51918e-08
3.17132e-08
1.82444e-06
-2.5744e-08
3.248e-08
1.81098e-06
3.50672e-08
3.27995e-08
1.80628e-06
9.42161e-08
3.26194e-08
1.81041e-06
1.48603e-07
3.19359e-08
1.82333e-06
3.07952e-08
1.84525e-06
1.94684e-07
-1.39162e-07
8.59131e-08
1.85104e-06
1.85099e-07
-8.44285e-08
8.90405e-08
1.82869e-06
-2.5443e-08
9.1215e-08
1.81525e-06
3.48766e-08
9.20433e-08
1.81056e-06
9.34991e-08
9.13678e-08
1.81468e-06
1.47281e-07
8.9272e-08
1.82759e-06
8.60505e-08
1.84945e-06
1.9248e-07
-1.35756e-07
1.37279e-07
1.86388e-06
1.79168e-07
-8.23247e-08
1.41365e-07
1.84168e-06
-2.46864e-08
1.45106e-07
1.82829e-06
3.41939e-08
1.46574e-07
1.82363e-06
9.13643e-08
1.45375e-07
1.82773e-06
1.43582e-07
1.41846e-07
1.8406e-06
1.37604e-07
1.86232e-06
1.85921e-07
-1.31623e-07
1.88592e-06
1.74247e-07
1.77839e-07
-7.90937e-08
1.8635e-06
1.83797e-07
-2.35204e-08
1.85027e-06
1.90483e-07
3.30722e-08
1.84567e-06
1.9288e-07
8.81594e-08
1.84972e-06
1.9092e-07
1.39278e-07
1.86245e-06
1.84739e-07
1.88441e-06
1.80045e-07
1.79167e-07
-2.9141e-07
-2.92167e-07
3.9186e-07
3.91819e-07
1.68679e-06
-1.76262e-07
-2.95237e-07
3.9625e-07
1.649e-06
-5.74326e-08
-2.98991e-07
4.04624e-07
1.62729e-06
6.25378e-08
-3.00548e-07
4.07674e-07
1.62013e-06
1.80977e-07
-2.99175e-07
4.05062e-07
1.62697e-06
2.95054e-07
-2.95522e-07
3.97109e-07
1.6484e-06
-2.923e-07
3.9435e-07
3.93077e-07
1.686e-06
-2.94405e-07
-1.77382e-07
3.95864e-07
1.64906e-06
-1.7926e-07
-1.80319e-07
1.61335e-06
-5.85617e-08
-1.82332e-07
1.59251e-06
6.36654e-08
-1.83082e-07
1.58556e-06
1.84078e-07
-1.82321e-07
1.59218e-06
2.98468e-07
-1.80217e-07
1.61274e-06
-1.77107e-07
3.99325e-07
1.64822e-06
-2.97972e-07
-5.8672e-08
4.03831e-07
1.62742e-06
-1.81247e-07
-5.97602e-08
1.59258e-06
-5.9226e-08
-6.04131e-08
1.5723e-06
6.44086e-08
-6.06103e-08
1.56551e-06
1.86256e-07
-6.03242e-08
1.57198e-06
3.02441e-07
-5.95808e-08
1.59196e-06
-5.83968e-08
4.07922e-07
1.62655e-06
-2.99407e-07
6.13073e-08
4.06566e-07
1.62035e-06
-1.8196e-07
6.24456e-08
1.58571e-06
-5.94201e-08
6.31953e-08
1.5656e-06
6.471e-08
6.35089e-08
1.55886e-06
1.87092e-07
6.33212e-08
1.56527e-06
3.04056e-07
6.26532e-08
1.58508e-06
6.15326e-08
4.10966e-07
1.61946e-06
-2.9799e-07
1.79924e-07
4.0382e-07
1.62726e-06
-1.81185e-07
1.82926e-07
1.59242e-06
-5.91287e-08
1.85063e-07
1.57214e-06
6.45112e-08
1.85911e-07
1.56535e-06
1.86355e-07
1.85215e-07
1.5718e-06
3.02577e-07
1.83165e-07
1.59178e-06
1.80082e-07
4.08129e-07
1.62637e-06
-2.94413e-07
2.9417e-07
3.96039e-07
1.64876e-06
-1.79119e-07
2.97322e-07
1.61305e-06
-5.83889e-08
3.01251e-07
1.5922e-06
6.38405e-08
3.02909e-07
1.58524e-06
1.84267e-07
3.01554e-07
1.59185e-06
2.98725e-07
2.97872e-07
1.6124e-06
2.94617e-07
3.99717e-07
1.64788e-06
-2.91318e-07
3.9249e-07
3.93293e-07
1.68639e-06
-1.76008e-07
3.98089e-07
1.64858e-06
-5.71998e-08
4.06755e-07
1.62685e-06
6.27411e-08
4.09894e-07
1.61968e-06
1.81221e-07
4.07285e-07
1.62651e-06
2.95418e-07
3.9926e-07
1.64794e-06
3.95078e-07
3.94962e-07
1.68555e-06
5.14605e-08
2.25958e-08
1.2433e-06
-2.73194e-08
5.6422e-08
1.90607e-08
1.47758e-06
-2.45311e-08
5.78673e-08
1.80484e-08
1.70048e-06
-2.15187e-08
5.48355e-08
1.81359e-08
1.9119e-06
-1.90812e-08
4.72857e-08
1.83874e-08
2.1102e-06
-1.71185e-08
3.51992e-08
1.83446e-08
2.29018e-06
-1.53457e-08
1.89029e-08
1.7641e-08
2.42812e-06
-1.35583e-08
1.5487e-08
2.37648e-06
-1.13206e-08
5.34465e-08
1.91677e-08
1.55505e-06
5.49187e-08
1.65865e-08
1.78865e-06
5.37045e-08
1.61167e-08
2.01106e-06
4.96046e-08
1.65155e-08
2.2221e-06
4.24007e-08
1.69103e-08
2.42018e-06
3.17102e-08
1.69219e-08
2.60033e-06
1.72375e-08
1.62825e-08
2.74064e-06
1.42929e-08
2.69712e-06
5.57783e-08
1.59953e-08
1.74909e-06
5.63276e-08
1.46184e-08
1.98397e-06
5.42453e-08
1.40345e-08
2.20768e-06
4.97269e-08
1.37218e-08
2.41997e-06
4.24854e-08
1.33588e-08
2.61925e-06
3.19287e-08
1.28151e-08
2.80073e-06
1.75007e-08
1.19646e-08
2.94337e-06
1.03911e-08
2.90432e-06
5.67347e-08
1.18265e-08
1.81436e-06
5.74697e-08
1.16862e-08
2.04983e-06
5.54743e-08
1.08174e-08
2.27412e-06
5.09522e-08
9.63513e-09
2.48695e-06
4.35924e-08
8.41083e-09
2.68675e-06
3.27795e-08
7.25876e-09
2.8688e-06
1.79415e-08
6.1807e-09
3.01236e-06
5.11421e-09
2.97492e-06
5.51797e-08
6.15813e-09
1.74731e-06
5.67333e-08
7.18402e-09
1.98178e-06
5.53822e-08
6.3097e-09
2.20509e-06
5.12214e-08
4.61381e-09
2.417e-06
4.39831e-08
2.84121e-09
2.61596e-06
3.30821e-08
1.35559e-09
2.79717e-06
1.80167e-08
2.46619e-10
2.93965e-06
-2.67088e-10
2.90071e-06
5.16118e-08
-1.18914e-09
1.55197e-06
5.4841e-08
5.40443e-10
1.78481e-06
5.49428e-08
2.46944e-10
2.00647e-06
5.15822e-08
-9.37216e-10
2.21682e-06
4.45534e-08
-2.33138e-09
2.41428e-06
3.34901e-08
-3.508e-09
2.59392e-06
1.81136e-08
-4.2552e-09
2.7339e-06
-4.1411e-09
2.69057e-06
4.83653e-08
1.23972e-06
-1.08167e-08
5.46451e-08
1.47302e-06
-9.13612e-09
5.73268e-08
1.69494e-06
-7.80416e-09
5.54081e-08
1.90543e-06
-6.80423e-09
4.85107e-08
2.10287e-06
-6.01417e-09
3.6454e-08
2.2821e-06
-5.3196e-09
1.94552e-08
2.4195e-06
-4.65491e-09
2.36793e-06
-3.87068e-09
4.24089e-08
1.16503e-08
1.23971e-06
-1.64118e-08
4.87803e-08
1.00901e-08
1.47503e-06
-1.47775e-08
5.13364e-08
1.00504e-08
1.69976e-06
-1.28889e-08
4.94818e-08
1.05787e-08
1.91343e-06
-1.13882e-08
4.32252e-08
1.11077e-08
2.11434e-06
-1.02045e-08
3.26021e-08
1.13655e-08
2.29734e-06
-9.14305e-09
1.78541e-08
1.11265e-08
2.43858e-06
-8.07488e-09
9.84594e-09
2.39016e-06
-6.71103e-09
4.45162e-08
9.805e-09
1.5505e-06
4.77795e-08
8.65519e-09
1.78573e-06
4.82393e-08
8.87423e-09
2.01056e-06
4.55886e-08
9.55051e-09
2.22448e-06
3.95981e-08
1.01404e-08
2.42578e-06
2.9991e-08
1.04222e-08
2.60952e-06
1.65422e-08
1.02316e-08
2.75364e-06
9.07324e-09
2.71372e-06
4.6969e-08
8.93208e-09
1.74399e-06
4.94102e-08
8.24754e-09
1.98095e-06
4.92201e-08
8.10898e-09
2.20751e-06
4.62522e-08
8.11734e-09
2.42314e-06
4.01673e-08
8.06371e-09
2.62612e-06
3.05268e-08
7.86821e-09
2.81159e-06
1.69313e-08
7.45035e-09
2.95839e-06
6.52052e-09
2.92315e-06
4.80856e-08
7.76608e-09
1.80929e-06
5.06147e-08
7.53168e-09
2.04704e-06
5.04494e-08
6.87291e-09
2.27439e-06
4.74375e-08
6.06287e-09
2.49077e-06
4.12091e-08
5.24838e-09
2.69447e-06
3.13056e-08
4.48429e-09
2.8807e-06
1.73209e-08
3.76847e-09
3.02857e-06
3.08206e-09
2.99502e-06
4.69896e-08
5.34159e-09
1.7429e-06
5.01287e-08
5.60515e-09
1.97958e-06
5.04117e-08
4.67049e-09
2.20588e-06
4.76343e-08
3.30804e-09
2.42125e-06
4.14692e-08
1.96372e-09
2.624e-06
3.14897e-08
8.30613e-10
2.8093e-06
1.73655e-08
-5.56042e-11
2.956e-06
-4.24101e-10
2.92086e-06
4.3935e-08
1.04042e-09
1.54861e-06
4.83571e-08
1.67505e-09
1.78334e-06
4.96779e-08
1.02419e-09
2.00766e-06
4.74407e-08
-5.16638e-11
2.22111e-06
4.14833e-08
-1.25345e-09
2.422e-06
3.15043e-08
-2.23131e-09
2.60541e-06
1.72747e-08
-2.88214e-09
2.74934e-06
-2.88908e-09
2.7096e-06
4.07645e-08
1.23743e-06
-6.14797e-09
4.76062e-08
1.4721e-06
-5.21244e-09
5.07925e-08
1.69618e-06
-4.51032e-09
4.96292e-08
1.90925e-06
-3.9778e-09
4.37913e-08
2.10962e-06
-3.5519e-09
3.32095e-08
2.29217e-06
-3.17073e-09
1.80292e-08
2.43311e-06
-2.79752e-09
2.38483e-06
-2.33087e-09
5.32795e-08
3.57116e-09
1.23381e-06
-8.98831e-09
6.22577e-08
3.74141e-09
1.47091e-06
-8.35099e-09
6.6391e-08
4.47672e-09
1.69863e-06
-7.47385e-09
6.48917e-08
5.3211e-09
1.91615e-06
-6.74185e-09
5.74853e-08
6.04484e-09
2.12149e-06
-6.13709e-09
4.41312e-08
6.53479e-09
2.30929e-06
-5.57291e-09
2.48518e-08
6.67691e-09
2.45567e-06
-4.97741e-09
6.10845e-09
2.41276e-06
-4.15708e-09
5.6541e-08
2.75041e-09
1.54168e-06
6.39077e-08
2.86388e-09
1.77946e-06
6.71436e-08
3.63251e-09
2.00816e-06
6.53191e-08
4.51865e-09
2.22692e-06
5.78672e-08
5.27485e-09
2.4337e-06
4.45337e-08
5.80311e-09
2.62323e-06
2.51648e-08
6.01547e-09
2.7733e-06
5.57574e-09
2.73941e-06
5.99833e-08
4.08186e-09
1.73306e-06
6.71169e-08
3.9225e-09
1.97309e-06
7.01915e-08
4.06961e-09
2.20414e-06
6.8215e-08
4.27227e-09
2.42535e-06
6.04607e-08
4.42146e-09
2.6346e-06
4.65621e-08
4.47634e-09
2.82662e-06
2.63378e-08
4.38946e-09
2.98002e-06
3.95967e-09
2.95117e-06
6.14552e-08
5.78383e-09
1.79773e-06
6.87617e-08
5.31769e-09
2.03877e-06
7.19135e-08
4.67801e-09
2.27086e-06
6.99007e-08
4.01814e-09
2.49311e-06
6.19519e-08
3.39596e-09
2.70342e-06
4.76823e-08
2.82802e-09
2.89651e-06
2.69366e-08
2.30534e-09
3.05122e-06
1.81778e-09
3.02419e-06
6.03023e-08
6.1264e-09
1.73242e-06
6.78928e-08
5.49292e-09
1.97229e-06
7.12273e-08
4.31759e-09
2.20318e-06
6.9322e-08
3.04686e-09
2.42422e-06
6.14654e-08
1.87892e-09
2.63334e-06
4.73182e-08
8.76253e-10
2.82525e-06
2.6728e-08
8.83347e-11
2.97857e-06
-3.50353e-10
2.94979e-06
5.6736e-08
3.72322e-09
1.54057e-06
6.48726e-08
3.10641e-09
1.77806e-06
6.86112e-08
2.04671e-09
2.00645e-06
6.70004e-08
8.88722e-10
2.22492e-06
5.94537e-08
-1.38633e-10
2.43144e-06
4.5781e-08
-1.0443e-09
2.62076e-06
2.58508e-08
-1.68054e-09
2.77072e-06
-1.86844e-09
2.73695e-06
5.30309e-08
1.23245e-06
-3.11158e-09
6.22528e-08
1.46915e-06
-2.74548e-09
6.66817e-08
1.69647e-06
-2.48016e-09
6.54404e-08
1.91362e-06
-2.27161e-09
5.81803e-08
2.11862e-06
-2.08901e-09
4.47519e-08
2.30616e-06
-1.91833e-09
2.51662e-08
2.45238e-06
-1.73679e-09
2.40959e-06
-1.47763e-09
1.02724e-07
-4.58318e-09
1.21921e-06
-4.57164e-09
1.21693e-07
-2.39859e-09
1.45966e-06
-4.53323e-09
1.32343e-07
-5.94751e-10
1.69355e-06
-4.31817e-09
1.32559e-07
8.9228e-10
1.91968e-06
-4.07963e-09
1.20817e-07
2.01262e-09
2.13553e-06
-3.83038e-09
9.60134e-08
2.92099e-09
2.33518e-06
-3.56833e-09
5.67576e-08
3.58488e-09
2.49503e-06
-3.2566e-09
3.74812e-09
2.46903e-06
-2.76078e-09
1.07634e-07
-4.72057e-09
1.5193e-06
1.27114e-07
-3.17773e-09
1.76168e-06
1.38897e-07
-1.53686e-09
1.99811e-06
1.4003e-07
-5.9393e-11
2.22744e-06
1.28194e-07
1.1699e-09
2.44702e-06
1.02045e-07
2.17753e-09
2.65074e-06
6.02882e-08
2.99424e-09
2.81627e-06
3.37932e-09
2.8006e-06
1.13241e-07
-8.25796e-11
1.70504e-06
1.334e-07
3.37424e-10
1.95034e-06
1.4589e-07
8.44157e-10
2.19012e-06
1.47383e-07
1.32154e-09
2.42327e-06
1.35149e-07
1.73795e-09
2.64703e-06
1.07535e-07
2.08531e-09
2.85508e-06
6.3358e-08
2.3513e-09
3.02557e-06
2.40216e-09
3.01604e-06
1.1542e-07
6.04503e-09
1.76774e-06
1.3603e-07
5.19784e-09
2.01429e-06
1.48844e-07
4.3361e-09
2.25546e-06
1.50428e-07
3.5559e-09
2.49016e-06
1.37955e-07
2.85613e-09
2.71562e-06
1.0971e-07
2.22465e-09
2.92544e-06
6.45395e-08
1.64416e-09
3.09788e-06
1.10474e-09
3.09058e-06
1.13635e-07
1.00216e-08
1.70468e-06
1.34094e-07
8.15893e-09
1.94989e-06
1.4672e-07
6.25918e-09
2.18957e-06
1.48199e-07
4.57168e-09
2.42261e-06
1.35849e-07
3.09181e-09
2.64629e-06
1.08047e-07
1.79408e-09
2.85428e-06
6.36194e-08
6.60836e-10
3.02473e-06
-2.10352e-10
3.01524e-06
1.08212e-07
8.68291e-09
1.51867e-06
1.28192e-07
6.36276e-09
1.76088e-06
1.40227e-07
4.46341e-09
1.99713e-06
1.41391e-07
2.86779e-09
2.22629e-06
1.29441e-07
1.51563e-09
2.44572e-06
1.0301e-07
3.61114e-10
2.64932e-06
6.08452e-08
-5.89535e-10
2.81478e-06
-1.14166e-09
2.79917e-06
1.03236e-07
1.21844e-06
-1.41284e-09
1.22436e-07
1.45866e-06
-1.40209e-09
1.33276e-07
1.69232e-06
-1.38729e-09
1.33617e-07
1.91823e-06
-1.35753e-09
1.2184e-07
2.13387e-06
-1.31309e-09
9.68487e-08
2.33335e-06
-1.25645e-09
5.72768e-08
2.49308e-06
-1.18032e-09
2.46717e-06
-1.03858e-09
2.4199e-07
-1.89612e-08
1.17928e-06
-2.2192e-09
2.94579e-07
-1.39445e-08
1.42462e-06
-2.411e-09
3.31849e-07
-1.03109e-08
1.67021e-06
-2.48725e-09
3.46809e-07
-7.38128e-09
1.91569e-06
-2.49551e-09
3.32245e-07
-4.82538e-09
2.15842e-06
-2.45562e-09
2.81847e-07
-2.46256e-09
2.39143e-06
-2.3789e-09
1.82134e-07
-9.79804e-11
2.59807e-06
-2.24433e-09
1.78445e-09
2.65222e-06
-1.94345e-09
2.46598e-07
-1.84356e-08
1.4594e-06
3.02629e-07
-1.4941e-08
1.70803e-06
3.44989e-07
-1.16152e-08
1.95836e-06
3.64687e-07
-8.74213e-09
2.21034e-06
3.52604e-07
-6.12503e-09
2.46159e-06
3.00674e-07
-3.61407e-09
2.70497e-06
1.95203e-07
-1.15066e-09
2.92392e-06
1.38918e-09
2.99693e-06
2.54995e-07
-6.19815e-09
1.63145e-06
3.13131e-07
-5.08574e-09
1.88361e-06
3.58228e-07
-3.91203e-09
2.13857e-06
3.80337e-07
-2.83153e-09
2.39648e-06
3.69129e-07
-1.80245e-09
2.65512e-06
3.15243e-07
-7.81384e-10
2.90732e-06
2.04346e-07
2.63822e-10
3.13622e-06
1.20936e-09
3.22124e-06
2.5817e-07
9.9847e-09
1.68933e-06
3.17219e-07
8.4821e-09
1.94293e-06
3.63248e-07
7.03828e-09
2.19973e-06
3.86112e-07
5.75471e-09
2.45996e-06
3.75113e-07
4.56353e-09
2.7215e-06
3.2045e-07
3.40916e-09
2.97712e-06
2.07655e-07
2.2567e-09
3.20986e-06
9.59737e-10
3.29919e-06
2.55377e-07
2.17611e-08
1.63124e-06
3.13678e-07
1.79925e-08
1.88334e-06
3.58818e-07
1.44711e-08
2.13824e-06
3.80892e-07
1.14437e-08
2.39609e-06
3.69581e-07
8.69244e-09
2.65469e-06
3.15533e-07
6.0585e-09
2.90685e-06
2.04461e-07
3.46725e-09
3.13572e-06
6.0534e-10
3.22073e-06
2.47284e-07
2.13093e-08
1.45903e-06
3.03619e-07
1.6241e-08
1.70756e-06
3.46096e-07
1.25679e-08
1.95778e-06
3.65754e-07
9.58926e-09
2.20967e-06
3.53505e-07
6.97773e-09
2.46082e-06
3.01298e-07
4.55895e-09
2.70411e-06
1.95314e-07
2.28344e-09
2.92302e-06
-2.97363e-10
2.99601e-06
2.42875e-07
1.17885e-06
-5.73087e-10
2.95623e-07
1.42407e-06
-6.99674e-10
3.32946e-07
1.66953e-06
-7.87188e-10
3.47832e-07
1.91486e-06
-8.36526e-10
3.33105e-07
2.15747e-06
-8.57526e-10
2.82506e-07
2.39036e-06
-8.62812e-10
1.82793e-07
2.59691e-06
-8.48194e-10
2.65104e-06
-7.78823e-10
5.52241e-07
-4.21776e-08
-1.01087e-09
1.06572e-06
7.02054e-07
-3.16534e-08
-1.28256e-09
1.30886e-06
8.32065e-07
-2.44812e-08
-1.43684e-09
1.56719e-06
9.24344e-07
-1.85911e-08
-1.51155e-09
1.84454e-06
9.51861e-07
-1.31665e-08
-1.53015e-09
2.14658e-06
8.70757e-07
-7.51863e-09
-1.51503e-09
2.4825e-06
6.02778e-07
-5.97224e-10
-1.46197e-09
2.86903e-06
5.72686e-09
-1.29949e-09
3.25138e-06
5.52283e-07
-4.12791e-08
1.30689e-06
7.08766e-07
-3.38612e-08
1.55502e-06
8.5086e-07
-2.72922e-08
1.82028e-06
9.57204e-07
-2.16427e-08
2.10819e-06
9.97149e-07
-1.6248e-08
2.42582e-06
9.21988e-07
-1.04423e-08
2.78411e-06
6.44986e-07
-3.3049e-09
3.20468e-06
3.89931e-09
3.64432e-06
5.62297e-07
-1.57474e-08
1.45266e-06
7.2206e-07
-1.32462e-08
1.70437e-06
8.70497e-07
-1.08479e-08
1.97481e-06
9.84662e-07
-8.67696e-09
2.27043e-06
1.03176e-06
-6.53306e-09
2.59938e-06
9.59823e-07
-4.17654e-09
2.97405e-06
6.75687e-07
-1.25299e-09
3.41937e-06
1.79103e-09
3.89959e-06
5.66276e-07
1.80456e-08
1.50132e-06
7.27483e-07
1.52046e-08
1.7544e-06
8.78056e-07
1.26295e-08
2.0268e-06
9.94789e-07
1.03422e-08
2.32532e-06
1.04425e-06
8.1118e-09
2.65848e-06
9.73345e-07
5.69431e-09
3.03923e-06
6.86599e-07
2.75699e-09
3.49366e-06
-4.85882e-10
3.98863e-06
5.62724e-07
4.32695e-08
1.45251e-06
7.22582e-07
3.56211e-08
1.7042e-06
8.71004e-07
2.89446e-08
1.97462e-06
9.85104e-07
2.32188e-08
2.27021e-06
1.03211e-06
1.77507e-08
2.59912e-06
9.60059e-07
1.18852e-08
2.97376e-06
6.75812e-07
4.74992e-09
3.41903e-06
-2.66981e-09
3.89925e-06
5.53048e-07
4.3462e-08
1.30665e-06
7.09706e-07
3.29058e-08
1.55475e-06
8.51807e-07
2.57549e-08
1.81996e-06
9.58045e-07
1.98672e-08
2.10782e-06
9.97826e-07
1.44133e-08
2.42538e-06
9.22493e-07
8.71815e-09
2.78361e-06
6.45202e-07
1.97053e-09
3.20411e-06
-4.66832e-09
3.64372e-06
5.53329e-07
-1.86461e-10
1.06545e-06
7.03162e-07
-3.15027e-10
1.30854e-06
8.33094e-07
-4.19821e-10
1.56681e-06
9.25205e-07
-4.90101e-10
1.84409e-06
9.52508e-07
-5.29958e-10
2.14605e-06
8.71181e-07
-5.52845e-10
2.4819e-06
6.03238e-07
-5.61041e-10
2.86834e-06
-5.31611e-10
3.25062e-06
-2.18348e-08
-3.18365e-08
1.24947e-06
2.66231e-08
-1.02727e-08
-3.0816e-08
1.48552e-06
2.34549e-08
-3.41849e-10
-2.71301e-08
1.71008e-06
2.10883e-08
6.40731e-09
-2.29986e-08
1.92311e-06
1.92814e-08
9.75804e-09
-1.92645e-08
2.12286e-06
1.76843e-08
9.63564e-09
-1.609e-08
2.30403e-06
1.61746e-08
6.12328e-09
-1.34151e-08
2.44275e-06
1.4589e-08
-1.09599e-08
2.3908e-06
1.24139e-08
-1.85153e-08
-2.90288e-08
1.5646e-06
-1.32397e-08
-2.87085e-08
1.80108e-06
-7.83665e-09
-2.54301e-08
2.02627e-06
-2.93666e-09
-2.171e-08
2.23999e-06
8.83306e-10
-1.83293e-08
2.44049e-06
2.97222e-09
-1.54249e-08
2.62269e-06
2.72375e-09
-1.29169e-08
2.76443e-06
-1.05552e-08
2.72075e-06
-1.48265e-08
-2.02501e-08
1.76182e-06
-1.30947e-08
-2.00278e-08
2.00059e-06
-1.01143e-08
-1.83727e-08
2.22814e-06
-6.39144e-09
-1.64355e-08
2.44407e-06
-2.69617e-09
-1.45756e-08
2.64665e-06
1.06589e-10
-1.2853e-08
2.83086e-06
1.18126e-09
-1.11763e-08
2.97539e-06
-9.28692e-09
2.93607e-06
-1.28819e-08
-8.57027e-09
1.82956e-06
-1.2675e-08
-8.08877e-09
2.06962e-06
-1.08234e-08
-8.48431e-09
2.29845e-06
-7.72942e-09
-8.81735e-09
2.51556e-06
-4.22544e-09
-8.88199e-09
2.71921e-06
-1.23352e-09
-8.66458e-09
2.90443e-06
3.94257e-10
-8.12698e-09
3.05016e-06
-7.0141e-09
3.01234e-06
-1.31413e-08
2.72732e-09
1.76371e-06
-1.25164e-08
3.55218e-09
2.00296e-06
-1.06193e-08
1.54647e-09
2.23097e-06
-7.65096e-09
-7.37091e-10
2.44732e-06
-4.29453e-09
-2.53019e-09
2.65026e-06
-1.38726e-09
-3.71379e-09
2.83476e-06
2.77285e-10
-4.29406e-09
2.97949e-06
-4.02943e-09
2.94006e-06
-1.60078e-08
1.01729e-08
1.56786e-06
-1.25689e-08
1.0803e-08
1.80519e-06
-8.76446e-09
8.24843e-09
2.03119e-06
-5.02769e-09
5.36675e-09
2.24565e-06
-1.73466e-09
2.91631e-09
2.44683e-06
4.44305e-10
1.2183e-09
2.62958e-06
1.12828e-09
-4.18577e-11
2.77169e-06
-5.40826e-10
2.72782e-06
-2.0592e-08
1.25322e-06
1.06809e-08
-1.12051e-08
1.4903e-06
9.35985e-09
-3.13382e-09
1.7159e-06
8.14237e-09
2.46422e-09
1.92992e-06
7.31627e-09
5.45676e-09
2.13058e-06
6.65188e-09
6.00077e-09
2.31253e-06
6.0364e-09
3.9971e-09
2.45178e-06
5.39168e-09
2.39958e-06
4.5495e-09
-2.10497e-09
-2.06085e-08
1.24363e-06
1.59179e-08
8.16925e-09
-2.01142e-08
1.48008e-06
1.40475e-08
1.58822e-08
-1.74148e-08
1.70585e-06
1.27853e-08
2.00667e-08
-1.44325e-08
1.92049e-06
1.17312e-08
2.0565e-08
-1.17446e-08
2.12224e-06
1.07718e-08
1.72952e-08
-9.47902e-09
2.30588e-06
9.87902e-09
1.03086e-08
-7.6401e-09
2.44748e-06
8.95503e-09
-6.09852e-09
2.39873e-06
7.64709e-09
1.48163e-09
-1.8921e-08
1.55639e-06
6.57286e-09
-1.8775e-08
1.7934e-06
1.07513e-08
-1.63992e-08
2.01994e-06
1.3453e-08
-1.37212e-08
2.23551e-06
1.42027e-08
-1.12796e-08
2.43829e-06
1.24844e-08
-9.18739e-09
2.62321e-06
7.78983e-09
-7.42355e-09
2.76808e-06
-5.90262e-09
2.72787e-06
4.72246e-09
-1.26961e-08
1.75166e-06
7.16103e-09
-1.26148e-08
1.99101e-06
9.54617e-09
-1.15094e-08
2.21999e-06
1.13901e-08
-1.02145e-08
2.43792e-06
1.20441e-08
-8.95504e-09
2.64295e-06
1.07868e-08
-7.7762e-09
2.83005e-06
6.92495e-09
-6.64718e-09
2.97787e-06
-5.43625e-09
2.94221e-06
6.23619e-09
-4.27765e-09
1.81839e-06
7.54412e-09
-4.13869e-09
2.059e-06
9.13371e-09
-4.66366e-09
2.28922e-06
1.05556e-08
-5.11588e-09
2.50834e-06
1.10974e-08
-5.35378e-09
2.71447e-06
9.97949e-09
-5.36151e-09
2.9026e-06
6.47055e-09
-5.12189e-09
3.05164e-06
-4.44647e-09
3.01754e-06
5.47925e-09
3.56839e-09
1.75279e-06
7.16144e-09
3.8843e-09
1.99248e-06
8.88052e-09
2.06101e-09
2.22176e-06
1.03101e-08
1.03129e-10
2.43997e-06
1.08418e-08
-1.47086e-09
2.64524e-06
9.74096e-09
-2.55574e-09
2.83251e-06
6.3149e-09
-3.15113e-09
2.98041e-06
-3.03101e-09
2.94464e-06
2.2736e-09
7.84953e-09
1.55839e-06
6.22163e-09
8.36165e-09
1.79598e-06
9.50874e-09
6.13598e-09
2.02307e-06
1.16633e-08
3.75398e-09
2.23913e-06
1.22884e-08
1.74732e-09
2.44233e-06
1.07385e-08
4.03191e-10
2.62757e-06
6.76233e-09
-6.71443e-10
2.77262e-06
-1.04073e-09
2.73221e-06
-2.14671e-09
1.24603e-06
6.42542e-09
6.8756e-09
1.48318e-06
5.57018e-09
1.35702e-08
1.70961e-06
4.92066e-09
1.71577e-08
1.92487e-06
4.45552e-09
1.75223e-08
2.12718e-06
4.06808e-09
1.48038e-08
2.31128e-06
3.70956e-09
8.81845e-09
2.45315e-06
3.32587e-09
2.40416e-06
2.81214e-09
2.91744e-08
-1.43425e-08
1.23619e-06
8.78754e-09
4.03643e-08
-1.33895e-08
1.47398e-06
8.09709e-09
4.73607e-08
-1.14264e-08
1.70234e-06
7.59615e-09
4.92129e-08
-9.38875e-09
1.92043e-06
7.09089e-09
4.5539e-08
-7.54252e-09
2.12627e-06
6.59561e-09
3.61695e-08
-5.94943e-09
2.31445e-06
6.12832e-09
2.09775e-08
-4.62641e-09
2.46105e-06
5.63393e-09
-3.52731e-09
2.41791e-06
4.86878e-09
3.29869e-08
-1.33337e-08
1.54519e-06
4.13818e-08
-1.27322e-08
1.78405e-06
4.66364e-08
-1.09559e-08
2.01379e-06
4.77349e-08
-9.0678e-09
2.23355e-06
4.39978e-08
-7.32781e-09
2.44123e-06
3.50075e-08
-5.79597e-09
2.63147e-06
2.03925e-08
-4.47201e-09
2.78199e-06
-3.35258e-09
2.74788e-06
3.63167e-08
-8.35817e-09
1.73759e-06
4.34056e-08
-8.07426e-09
1.97905e-06
4.78333e-08
-7.28646e-09
2.21157e-06
4.85125e-08
-6.41881e-09
2.43419e-06
4.45718e-08
-5.56935e-09
2.64471e-06
3.54387e-08
-4.76014e-09
2.83772e-06
2.06755e-08
-3.97981e-09
2.99171e-06
-3.17494e-09
2.96256e-06
3.76006e-08
-1.53397e-09
1.80308e-06
4.41074e-08
-1.59467e-09
2.04583e-06
4.81495e-08
-2.07665e-09
2.27968e-06
4.86311e-08
-2.52665e-09
2.50363e-06
4.46076e-08