/*--------------------------------*- C++ -*----------------------------------*\
| =========                 |                                                 |
| \\      /  F ield         | OpenFOAM: The Open Source CFD Toolbox           |
|  \\    /   O peration     | Version:  plus.master.MPPICInterFoam            |
|   \\  /    A nd           | Web:      www.OpenFOAM.com                      |
|    \\/     M anipulation  |                                                 |
\*---------------------------------------------------------------------------*/
FoamFile
{
    version     2.0;
    format      ascii;
    class       volScalarField;
    location    "5.2";
    object      epsilon;
}
// * * * * * * * * * * * * * * * * * * * * * * * * * * * * * * * * * * * * * //

dimensions      [0 2 -3 0 0 0 0];

internalField   nonuniform List<scalar> 
11821
(
0.478682
0.504616
0.387339
0.43391
0.372329
0.294405
0.413897
0.52236
0.608978
0.6376
0.595065
0.498021
0.383104
0.5069
0.642982
0.695408
0.720671
0.725995
0.626648
0.472812
0.567797
0.681073
0.727769
0.695644
0.747588
0.721839
0.5356
0.569536
0.678257
0.755247
0.691069
0.7386
0.740253
0.542536
0.510227
0.64446
0.703855
0.755552
0.745803
0.642435
0.483559
0.420013
0.527988
0.616814
0.649586
0.612119
0.51248
0.394794
0.324669
0.398021
0.454331
0.474125
0.446947
0.382427
0.302807
0.427709
0.545785
0.639339
0.662934
0.615252
0.511194
0.390599
0.530368
0.682834
0.747525
0.73782
0.74594
0.642913
0.483182
0.600303
0.755604
0.699271
0.70703
0.743885
0.731678
0.546637
0.60514
0.759083
0.689734
0.667402
0.757998
0.744121
0.553026
0.538118
0.691852
0.74829
0.75184
0.748023
0.658158
0.494866
0.440081
0.55905
0.657218
0.685704
0.636157
0.528786
0.405705
0.338698
0.417347
0.478459
0.497977
0.465348
0.395612
0.312495
0.43206
0.555819
0.656185
0.685013
0.630114
0.5191
0.393544
0.53971
0.703419
0.792371
0.805648
0.783903
0.659491
0.489527
0.611933
0.788478
0.760403
0.738039
0.792452
0.753996
0.555517
0.617786
0.799525
0.728239
0.676746
0.787377
0.764438
0.562535
0.552005
0.715716
0.789246
0.784831
0.777757
0.676797
0.504596
0.452584
0.577076
0.677844
0.709844
0.657152
0.542844
0.414601
0.347957
0.430384
0.494396
0.514969
0.480142
0.406415
0.319916
0.42523
0.552755
0.656263
0.683994
0.628506
0.516545
0.388505
0.537671
0.705801
0.806438
0.838168
0.801843
0.660729
0.488838
0.61057
0.792754
0.801412
0.704262
0.820451
0.764019
0.558252
0.614769
0.796134
0.781626
0.698158
0.787417
0.777664
0.566428
0.5557
0.72109
0.790631
0.793187
0.788065
0.683165
0.509206
0.457202
0.58137
0.677982
0.711821
0.661344
0.548821
0.417736
0.350539
0.436979
0.504093
0.525558
0.489402
0.411554
0.321997
0.402407
0.523624
0.629078
0.661041
0.60667
0.490245
0.369182
0.515371
0.671139
0.7604
0.771843
0.752004
0.62819
0.46866
0.597449
0.746205
0.737909
0.685035
0.751157
0.710539
0.54287
0.603285
0.764745
0.735052
0.65924
0.732199
0.714583
0.552956
0.547799
0.685354
0.729217
0.712916
0.726295
0.646275
0.496816
0.446704
0.567947
0.649159
0.671737
0.632933
0.531818
0.406381
0.343176
0.42977
0.49928
0.521733
0.482502
0.402568
0.315257
0.3666
0.468254
0.557614
0.589531
0.538173
0.438755
0.337699
0.467292
0.602815
0.689627
0.689372
0.666773
0.560873
0.425033
0.547365
0.68285
0.691095
0.647222
0.697743
0.639544
0.493275
0.563415
0.664767
0.649703
0.611679
0.674868
0.642946
0.505553
0.510407
0.629842
0.671116
0.661856
0.669421
0.59693
0.458746
0.419482
0.532403
0.613469
0.632096
0.593005
0.492497
0.380297
0.326952
0.406817
0.471075
0.490308
0.452909
0.379104
0.300829
0.32864
0.407657
0.473279
0.494769
0.455248
0.380855
0.30407
0.409678
0.518122
0.594689
0.604867
0.564589
0.475042
0.371919
0.477601
0.6002
0.625191
0.581433
0.587091
0.548941
0.425974
0.499093
0.599255
0.598719
0.561588
0.570957
0.567573
0.439826
0.456787
0.569237
0.60355
0.590241
0.591541
0.520844
0.406094
0.382931
0.481268
0.559544
0.573622
0.526119
0.438278
0.347234
0.306027
0.374048
0.427712
0.441108
0.408242
0.348222
0.28353
0.29924
0.363642
0.412967
0.425827
0.3963
0.341659
0.280246
0.366149
0.458637
0.527695
0.53786
0.49516
0.420654
0.335245
0.420186
0.533232
0.5857
0.567843
0.544068
0.480364
0.37647
0.440407
0.547915
0.520931
0.524382
0.54671
0.49914
0.389107
0.409427
0.514871
0.565962
0.557021
0.537425
0.467034
0.367772
0.352273
0.436589
0.501277
0.513091
0.47243
0.400997
0.323612
0.287574
0.345863
0.389094
0.399445
0.373421
0.325547
0.270418
0.279192
0.334408
0.374289
0.384604
0.363008
0.319354
0.266846
0.336999
0.412748
0.465309
0.474682
0.444588
0.385449
0.315537
0.382143
0.472453
0.509074
0.512044
0.495494
0.433123
0.350932
0.398878
0.4915
0.509245
0.451624
0.511245
0.449212
0.363208
0.378388
0.466774
0.512478
0.504191
0.485385
0.429226
0.348239
0.331634
0.404001
0.455314
0.467141
0.435761
0.37853
0.311569
0.27459
0.327595
0.365454
0.375789
0.355077
0.313729
0.263451
0.267403
0.319315
0.357626
0.369883
0.351818
0.311765
0.262111
0.321215
0.390896
0.440956
0.455543
0.42773
0.375838
0.310391
0.363189
0.445344
0.464584
0.461533
0.46782
0.423252
0.3466
0.378708
0.457435
0.469962
0.463184
0.469282
0.440818
0.360524
0.362773
0.441743
0.47089
0.456062
0.452074
0.42324
0.346289
0.320773
0.389867
0.43574
0.447932
0.427959
0.375592
0.310215
0.267005
0.319129
0.357281
0.369322
0.35122
0.311679
0.262253
0.26136
0.313057
0.35241
0.367019
0.350983
0.311797
0.262193
0.314117
0.383159
0.432607
0.446695
0.426865
0.377841
0.312485
0.355957
0.435824
0.448683
0.430079
0.429388
0.424941
0.351423
0.372635
0.451769
0.456682
0.425364
0.416377
0.439472
0.365994
0.357258
0.437645
0.442235
0.437674
0.445655
0.427296
0.351777
0.315872
0.38567
0.432361
0.441389
0.428324
0.37908
0.314098
0.262819
0.315862
0.355798
0.369538
0.353384
0.31447
0.264155
0.257724
0.310031
0.351154
0.367756
0.353116
0.31373
0.263328
0.310173
0.38079
0.433949
0.44763
0.433864
0.383482
0.315784
0.352464
0.43597
0.45647
0.436783
0.445823
0.429582
0.357673
0.369593
0.453037
0.42795
0.415719
0.426484
0.4371
0.373332
0.354239
0.437309
0.447539
0.440157
0.455084
0.430507
0.358522
0.312831
0.384696
0.434026
0.438776
0.427957
0.38386
0.31879
0.259778
0.314275
0.356744
0.37248
0.358252
0.318401
0.266205
0.25445
0.306558
0.34872
0.36615
0.352753
0.313541
0.263127
0.306072
0.377164
0.433495
0.447089
0.436281
0.384898
0.316148
0.348798
0.434968
0.465661
0.444762
0.459152
0.434957
0.359228
0.366577
0.452617
0.445328
0.429403
0.433761
0.439076
0.37712
0.351399
0.439073
0.460284
0.445122
0.455319
0.4304
0.362774
0.309411
0.383722
0.438727
0.443299
0.430677
0.389524
0.320534
0.25638
0.31193
0.357732
0.377087
0.362475
0.319859
0.265927
0.251802
0.302636
0.344176
0.361935
0.349434
0.31113
0.262131
0.301406
0.370418
0.426453
0.443938
0.430695
0.379774
0.313618
0.342703
0.426759
0.469898
0.457638
0.46521
0.431747
0.356555
0.36051
0.445964
0.459764
0.415682
0.44276
0.444334
0.375486
0.345438
0.430987
0.467902
0.433878
0.446176
0.430126
0.359838
0.304236
0.377372
0.433183
0.444715
0.433561
0.386365
0.31731
0.252356
0.306874
0.352708
0.373445
0.358799
0.316319
0.26316
0.251124
0.300305
0.339779
0.35646
0.344361
0.309218
0.262688
0.298087
0.363182
0.416539
0.431842
0.418713
0.372407
0.311213
0.336375
0.415962
0.449596
0.452
0.444437
0.423876
0.349712
0.352897
0.434852
0.455955
0.4129
0.434226
0.441076
0.366368
0.338456
0.420402
0.462436
0.44496
0.454781
0.424168
0.352498
0.298753
0.368018
0.423501
0.439651
0.426015
0.377678
0.312182
0.248672
0.300904
0.344756
0.364824
0.350591
0.310403
0.259959
0.254139
0.304171
0.34353
0.360863
0.349826
0.315638
0.268091
0.300286
0.366202
0.42101
0.442259
0.426209
0.379173
0.31729
0.335568
0.417366
0.459659
0.462833
0.467965
0.430752
0.354472
0.349916
0.438384
0.461989
0.437798
0.466278
0.450623
0.368641
0.334709
0.418996
0.455383
0.456078
0.456437
0.429575
0.352768
0.296354
0.364367
0.421832
0.445818
0.430204
0.378251
0.312297
0.247057
0.297812
0.339319
0.358775
0.345859
0.308553
0.259551
0.0613706
0.0910105
0.184517
0.130251
0.0938414
0.0711087
0.0611785
0.0875599
0.374592
0.264099
0.184778
0.129912
0.0934217
0.0706897
0.0606068
0.0857506
0.335351
0.238845
0.169282
0.120933
0.0884928
0.0681371
0.0593639
0.0851627
0.2741
0.19954
0.145518
0.107333
0.0811367
0.0644902
0.0580033
0.0863847
0.212069
0.161338
0.122768
0.0943311
0.0741877
0.0613214
0.0574877
0.0901058
0.274434
0.208339
0.156648
0.118084
0.0908495
0.0736402
0.0683308
0.108737
0.333065
0.242765
0.176298
0.128752
0.0960452
0.0753899
0.0674006
0.101962
0.375015
0.268018
0.190621
0.136462
0.0998742
0.07689
0.0672198
0.0982701
0.379496
0.269824
0.191053
0.136394
0.0996633
0.0765844
0.0666737
0.0963811
0.341536
0.24547
0.176172
0.127737
0.0948863
0.0740904
0.0654544
0.0958469
0.281772
0.207204
0.152991
0.114347
0.0875608
0.0704337
0.0641235
0.0972682
0.220445
0.169399
0.13034
0.101276
0.0805093
0.0672286
0.063706
0.101435
0.28012
0.213107
0.16121
0.122709
0.0955781
0.0785456
0.0739628
0.119647
0.339961
0.248272
0.181425
0.133826
0.101085
0.0804439
0.0730027
0.112548
0.382353
0.27397
0.196235
0.141977
0.105244
0.0821342
0.0728582
0.108683
0.386989
0.276133
0.197126
0.142305
0.105301
0.0819718
0.0723548
0.106751
0.349643
0.252428
0.182755
0.133983
0.100703
0.0795599
0.0711779
0.106297
0.290318
0.21472
0.159929
0.120747
0.0934172
0.075915
0.0698973
0.107949
0.22886
0.176999
0.137274
0.107593
0.0862835
0.0726941
0.0695911
0.112565
0.282049
0.214929
0.163592
0.125786
0.0992136
0.0826489
0.0789631
0.130046
0.343213
0.250826
0.184318
0.137305
0.105012
0.0846976
0.0779814
0.122665
0.386896
0.277389
0.199773
0.145947
0.109514
0.0865814
0.0778805
0.118682
0.392379
0.280346
0.201332
0.146768
0.109887
0.0865876
0.0774348
0.116735
0.35584
0.257466
0.187615
0.138874
0.105524
0.0842899
0.076319
0.116375
0.296788
0.220312
0.165243
0.125894
0.0983486
0.0806948
0.0751066
0.118249
0.235184
0.182782
0.14274
0.112784
0.0912085
0.0774939
0.0749258
0.123306
0.278803
0.213145
0.163648
0.127362
0.101802
0.0859101
0.0831529
0.139585
0.341227
0.249532
0.184669
0.139149
0.107824
0.0880838
0.0821462
0.131938
0.386866
0.277145
0.200769
0.148253
0.112648
0.0901504
0.0820864
0.12785
0.393588
0.28112
0.203102
0.149614
0.113359
0.0903361
0.0817046
0.125896
0.357736
0.259192
0.1902
0.142253
0.109289
0.0881802
0.0806647
0.125642
0.298949
0.222857
0.168522
0.129674
0.102292
0.0846625
0.0795303
0.127734
0.238045
0.186088
0.146497
0.116771
0.0952128
0.0814988
0.0794685
0.133213
0.268899
0.207802
0.161758
0.127731
0.103481
0.0883439
0.0863981
0.147225
0.329607
0.243256
0.182437
0.139501
0.109596
0.0905893
0.0853627
0.139331
0.376051
0.271072
0.198748
0.148862
0.114642
0.0927879
0.0853188
0.135096
0.384189
0.276121
0.201872
0.15076
0.115681
0.0931415
0.084992
0.133123
0.350248
0.25596
0.190182
0.144103
0.11197
0.0911513
0.0840367
0.133001
0.294098
0.221713
0.16976
0.132147
0.105234
0.0877364
0.0829829
0.135343
0.236546
0.186882
0.148689
0.11963
0.0982749
0.0846157
0.0830116
0.141194
0.25302
0.199553
0.158258
0.126978
0.104235
0.089951
0.088746
0.152334
0.307129
0.23193
0.177686
0.138331
0.110253
0.0921797
0.0876641
0.14423
0.349916
0.257964
0.193356
0.147568
0.115334
0.0944109
0.0875864
0.13978
0.359141
0.263907
0.197164
0.149932
0.116644
0.0948887
0.0872849
0.137763
0.330712
0.247028
0.187275
0.144188
0.11336
0.0930805
0.0864093
0.1378
0.281832
0.216843
0.168867
0.133133
0.106989
0.0898044
0.085435
0.14042
0.230795
0.185246
0.149241
0.121188
0.100224
0.0867445
0.0855238
0.146554
0.235534
0.190317
0.153859
0.12533
0.10416
0.090844
0.0904344
0.155702
0.280405
0.218599
0.171589
0.136023
0.109934
0.0929709
0.0892724
0.147422
0.315668
0.241354
0.186001
0.144831
0.114873
0.0951334
0.0891117
0.142719
0.325276
0.247792
0.190265
0.14751
0.11635
0.0956657
0.0887917
0.140617
0.304656
0.234997
0.182394
0.142721
0.11349
0.0940237
0.0879695
0.140778
0.265986
0.20981
0.166286
0.132676
0.107537
0.0909055
0.0870609
0.143626
0.222683
0.181803
0.148225
0.121365
0.101007
0.0879242
0.0871905
0.149934
0.221953
0.182591
0.149786
0.123485
0.103706
0.0913267
0.0917253
0.158491
0.260339
0.207849
0.166172
0.133604
0.109233
0.0933294
0.0904629
0.150055
0.289715
0.228016
0.179515
0.141975
0.113977
0.0953756
0.0901956
0.14512
0.299148
0.234686
0.184036
0.144823
0.115519
0.0958987
0.0898188
0.142897
0.284686
0.22503
0.177718
0.140762
0.11297
0.0943601
0.0890039
0.143088
0.253506
0.203555
0.163365
0.131509
0.10735
0.0913598
0.088125
0.146041
0.215573
0.17811
0.146457
0.120687
0.101009
0.088443
0.0882821
0.152435
0.213957
0.177732
0.147064
0.12219
0.103371
0.0916805
0.0927391
0.161112
0.249339
0.201589
0.162807
0.132018
0.108754
0.0935837
0.0913677
0.15251
0.276218
0.220693
0.175679
0.140158
0.113363
0.0955277
0.0909978
0.147394
0.285862
0.227684
0.18043
0.143094
0.114906
0.0960016
0.0905421
0.145034
0.274595
0.219676
0.174926
0.139417
0.112499
0.0944822
0.0896889
0.145171
0.247007
0.199985
0.161438
0.130557
0.107029
0.0915154
0.088796
0.148113
0.211477
0.175651
0.145022
0.119932
0.100755
0.0886171
0.0889683
0.15455
0.210936
0.175715
0.145878
0.121643
0.103283
0.0919471
0.0934255
0.163316
0.246126
0.199512
0.161597
0.131445
0.108627
0.0937831
0.0919446
0.15452
0.273331
0.218777
0.174532
0.13957
0.113183
0.0956545
0.0914845
0.149264
0.283726
0.226174
0.179471
0.142553
0.114684
0.0960584
0.0909463
0.146782
0.273219
0.218685
0.174235
0.138965
0.112276
0.0944891
0.0900254
0.146815
0.246067
0.199236
0.160846
0.13012
0.106779
0.0914789
0.0890904
0.149693
0.21055
0.174829
0.144336
0.119423
0.100456
0.08856
0.0892763
0.156175
0.21078
0.175427
0.145647
0.121511
0.103235
0.0919813
0.0936476
0.164689
0.246965
0.199715
0.161597
0.131402
0.108582
0.0937642
0.092064
0.155696
0.275579
0.21965
0.174783
0.139596
0.113121
0.0955803
0.0915296
0.150347
0.286741
0.227464
0.179825
0.142552
0.11456
0.0959103
0.0909215
0.147792
0.276131
0.219921
0.174548
0.138881
0.112044
0.0942481
0.0899282
0.147722
0.247996
0.199911
0.160847
0.129841
0.106418
0.0911602
0.0889522
0.150535
0.211274
0.174821
0.143968
0.118943
0.0999987
0.0882147
0.0891666
0.15709
0.211285
0.175563
0.145601
0.121337
0.102946
0.0915965
0.093243
0.164898
0.248472
0.200332
0.161763
0.131306
0.108296
0.0933392
0.0915868
0.155777
0.278494
0.220881
0.175174
0.139553
0.112816
0.0951112
0.0910039
0.150403
0.29051
0.229017
0.180281
0.14247
0.114181
0.095374
0.0903513
0.147839
0.279491
0.221176
0.17474
0.138575
0.111506
0.0936124
0.0893097
0.147727
0.249989
0.200399
0.160601
0.129269
0.105725
0.0904511
0.088318
0.150515
0.211839
0.174569
0.143334
0.118172
0.0992219
0.0874997
0.0885854
0.15718
0.211318
0.175534
0.145419
0.120929
0.102285
0.0906896
0.092091
0.163537
0.248721
0.200439
0.161678
0.130952
0.107647
0.0924195
0.0904182
0.154429
0.279231
0.221164
0.175139
0.139199
0.112148
0.0941723
0.089834
0.149123
0.291857
0.229404
0.180181
0.142006
0.113419
0.0943835
0.0891778
0.14663
0.280601
0.221224
0.174311
0.137859
0.110584
0.092546
0.0881293
0.146557
0.250105
0.199863
0.159771
0.128285
0.104655
0.0893339
0.087158
0.149387
0.211161
0.17358
0.142223
0.117032
0.0980961
0.0864012
0.0874976
0.156179
0.211328
0.175615
0.145204
0.120274
0.101206
0.0892453
0.0902187
0.160281
0.248141
0.200428
0.161544
0.130379
0.106609
0.0910003
0.0886026
0.151377
0.278074
0.220859
0.174912
0.138605
0.111105
0.0927659
0.0880738
0.14625
0.290589
0.228815
0.179707
0.14124
0.112289
0.0929595
0.0874693
0.143923
0.278935
0.220245
0.173463
0.136819
0.109299
0.0910799
0.086463
0.143969
0.248336
0.198565
0.158554
0.126972
0.103238
0.0878533
0.085553
0.146923
0.209455
0.172085
0.14078
0.115585
0.0966552
0.0849723
0.0859822
0.153828
0.212287
0.176132
0.144909
0.119205
0.0995962
0.0873048
0.0878888
0.155682
0.248507
0.201077
0.161491
0.129458
0.105058
0.0891021
0.0863793
0.14714
0.276783
0.221032
0.174791
0.137697
0.109569
0.0909058
0.0859558
0.142288
0.287971
0.228288
0.179229
0.140161
0.110691
0.0911221
0.0854564
0.140212
0.27635
0.21922
0.172487
0.135422
0.107578
0.089255
0.0845432
0.140447
0.24619
0.197188
0.157121
0.125296
0.10144
0.0860811
0.0837472
0.143596
0.207567
0.170428
0.139067
0.113797
0.0948956
0.0833137
0.0843051
0.150622
0.214949
0.176874
0.144081
0.117388
0.0973501
0.0849909
0.0855268
0.151327
0.252444
0.202811
0.161219
0.127856
0.102863
0.0868171
0.0841171
0.143184
0.28059
0.223082
0.174797
0.136226
0.107427
0.0886842
0.0838325
0.13869
0.290529
0.22978
0.178988
0.138598
0.108551
0.0889783
0.0834858
0.136952
0.277495
0.219601
0.171573
0.133569
0.105396
0.0871959
0.0827145
0.137412
0.246287
0.196469
0.15552
0.12319
0.0992803
0.0841608
0.0820859
0.140779
0.206596
0.168855
0.137049
0.111635
0.0928747
0.0815926
0.0828348
0.147979
0.241671
0.187905
0.145008
0.111832
0.0873869
0.0712433
0.065771
0.103048
0.308587
0.231792
0.173035
0.128954
0.0970745
0.0759322
0.0668974
0.0993198
0.372893
0.275609
0.201461
0.146491
0.107245
0.0813233
0.06922
0.0987354
0.413912
0.303459
0.219653
0.157863
0.114015
0.0851555
0.0713419
0.100223
0.41091
0.30213
0.219335
0.15808
0.11449
0.0858204
0.0723232
0.10283
0.366832
0.273411
0.201599
0.147742
0.109015
0.0835202
0.0723014
0.106763
0.302258
0.232649
0.176394
0.132901
0.101141
0.0803344
0.0726189
0.113208
0.25199
0.195841
0.151402
0.117292
0.0923109
0.0759635
0.0709638
0.113099
0.321463
0.240668
0.179626
0.134351
0.101858
0.080476
0.0718331
0.10875
0.388526
0.285252
0.208083
0.151684
0.111796
0.0856616
0.0739503
0.107753
0.431694
0.313476
0.226047
0.162695
0.118242
0.0892622
0.0759025
0.109011
0.427341
0.311209
0.225002
0.162367
0.118351
0.0897089
0.0767746
0.111559
0.379237
0.280471
0.206182
0.151424
0.112554
0.087262
0.0767379
0.115618
0.310221
0.237571
0.179982
0.136157
0.104525
0.0840706
0.0771878
0.122462
0.258613
0.20094
0.155721
0.121293
0.0961762
0.0798684
0.0754817
0.122546
0.329422
0.245992
0.183704
0.138014
0.105435
0.0841311
0.0760587
0.117569
0.397095
0.290494
0.211691
0.154843
0.114984
0.0890439
0.077945
0.116183
0.439304
0.317817
0.228854
0.165206
0.120978
0.0923593
0.0797074
0.117215
0.433572
0.314317
0.226879
0.164223
0.120668
0.0925649
0.0804593
0.119682
0.383209
0.282048
0.207154
0.152784
0.114602
0.0899931
0.0804149
0.123834
0.311774
0.237992
0.1805
0.137373
0.106548
0.0868499
0.0810169
0.131052
0.260376
0.202695
0.157881
0.123831
0.0989626
0.0828684
0.0791174
0.131018
0.330987
0.246902
0.185038
0.139949
0.107825
0.0868475
0.0794018
0.125437
0.398624
0.290714
0.212119
0.156042
0.116887
0.0914531
0.081048
0.12369
0.439179
0.316847
0.228227
0.165615
0.12237
0.0944616
0.0826123
0.124509
0.432074
0.311919
0.225213
0.163945
0.121636
0.0944278
0.083245
0.126892
0.37935
0.278213
0.204763
0.152134
0.11537
0.0917681
0.0832124
0.131146
0.306333
0.233728
0.178127
0.136824
0.107404
0.0887204
0.0839832
0.138739
0.257286
0.201575
0.158224
0.125083
0.100709
0.0849229
0.0817239
0.137537
0.324776
0.243535
0.183958
0.140364
0.109091
0.088603
0.0817465
0.131423
0.391055
0.285357
0.209468
0.155448
0.117564
0.0928666
0.0831452
0.129288
0.430152
0.309778
0.224179
0.164078
0.122479
0.0955492
0.0845033
0.12985
0.420027
0.303087
0.220092
0.161754
0.121361
0.0953084
0.0850349
0.132149
0.364791
0.268661
0.199436
0.149855
0.115048
0.0926421
0.0850528
0.136558
0.293312
0.225412
0.173609
0.135006
0.107339
0.0897655
0.0860087
0.144538
0.24921
0.197558
0.156637
0.124867
0.101265
0.0859803
0.0833465
0.141567
0.309962
0.235707
0.180305
0.139044
0.109052
0.0893294
0.0831417
0.135036
0.369231
0.273094
0.203263
0.152728
0.116778
0.0931917
0.0842876
0.132469
0.40362
0.294131
0.215876
0.160152
0.12103
0.095521
0.0854402
0.132724
0.390658
0.286008
0.210947
0.157324
0.11963
0.0951387
0.085909
0.134952
0.338131
0.253372
0.19124
0.145882
0.113542
0.0926033
0.086036
0.13958
0.273781
0.213907
0.167343
0.132013
0.106345
0.0900153
0.0872037
0.147933
0.237627
0.191074
0.153126
0.12311
0.100625
0.0861449
0.0842439
0.143879
0.289739
0.224648
0.174395
0.136018
0.10774
0.0891455
0.0838483
0.137077
0.338165
0.25606
0.194193
0.148046
0.114607
0.0925708
0.0847594
0.134136
0.364788
0.272567
0.20431
0.154131
0.118162
0.0945527
0.0857343
0.134112
0.350913
0.263995
0.199037
0.151069
0.116634
0.0941182
0.0861917
0.136319
0.306363
0.235407
0.181285
0.140582
0.111033
0.0918431
0.0864806
0.141192
0.25224
0.201097
0.159994
0.128059
0.104543
0.0896343
0.0878764
0.149848
0.226151
0.183884
0.148674
0.120481
0.0992931
0.0857981
0.0847608
0.145656
0.271287
0.213609
0.167819
0.132218
0.105784
0.0884861
0.084213
0.138701
0.310275
0.239856
0.184821
0.142748
0.11187
0.0915296
0.0849448
0.135537
0.329397
0.252275
0.192744
0.147676
0.114841
0.0932371
0.0857979
0.135344
0.31686
0.244024
0.187501
0.144602
0.113319
0.0928248
0.0862849
0.137577
0.27991
0.219344
0.171751
0.135167
0.108277
0.0908489
0.0867473
0.142652
0.233845
0.189434
0.152863
0.12396
0.102499
0.0890225
0.0883651
0.151543
0.217405
0.177836
0.144614
0.117939
0.0979181
0.085338
0.0851249
0.147453
0.258264
0.205043
0.162253
0.128811
0.103946
0.0877983
0.0844686
0.140406
0.291658
0.22803
0.177364
0.138283
0.10948
0.0905801
0.085088
0.137147
0.305993
0.237826
0.183843
0.142444
0.112072
0.0921229
0.08588
0.136894
0.294177
0.229771
0.178697
0.139451
0.110621
0.0917688
0.0864144
0.139167
0.261715
0.207585
0.164387
0.130846
0.106046
0.0900505
0.087028
0.144385
0.220713
0.180624
0.147239
0.120645
0.100831
0.0885358
0.0888383
0.153483
0.211675
0.173537
0.141556
0.115947
0.0967992
0.0849281
0.0853953
0.149219
0.250378
0.199307
0.158284
0.126279
0.102536
0.0872467
0.0846681
0.142098
0.281087
0.220577
0.172333
0.13514
0.107752
0.0898817
0.0852252
0.138796
0.293131
0.22905
0.178058
0.138902
0.110159
0.0913537
0.085998
0.138534
0.281471
0.221073
0.173015
0.136019
0.108801
0.0910688
0.0865804
0.140842
0.250965
0.200197
0.159578
0.127967
0.104559
0.0895436
0.0873124
0.146168
0.212588
0.17493
0.143514
0.118435
0.0997357
0.0882566
0.089276
0.15546
0.208032
0.170523
0.139305
0.114415
0.0958821
0.0845312
0.0855336
0.150756
0.245837
0.195528
0.155507
0.124429
0.101447
0.0867653
0.0847581
0.143562
0.275658
0.216021
0.169022
0.132978
0.106503
0.0893285
0.0852807
0.140217
0.287071
0.223992
0.174437
0.136588
0.108852
0.0907868
0.0860519
0.139952
0.27512
0.216049
0.16953
0.133838
0.107599
0.0905708
0.0866728
0.142274
0.245221
0.195843
0.156628
0.126163
0.103595
0.0891872
0.0874893
0.147677
0.208019
0.171542
0.141248
0.117072
0.0990401
0.0880575
0.0895584
0.157118
0.205214
0.168127
0.13745
0.113089
0.0950148
0.0840477
0.0854493
0.151888
0.242548
0.192689
0.153344
0.12292
0.100483
0.0862341
0.0846406
0.144626
0.272012
0.2128
0.166588
0.131316
0.105467
0.0887664
0.0851406
0.141234
0.283205
0.220587
0.171911
0.134901
0.107823
0.0902352
0.085909
0.140941
0.271257
0.212803
0.167181
0.132302
0.106674
0.0900765
0.0865482
0.143237
0.241651
0.193055
0.154687
0.124917
0.10285
0.0887894
0.0874073
0.148652
0.205189
0.169424
0.139795
0.116141
0.0984761
0.0877519
0.0895185
0.158133
0.202544
0.165944
0.135772
0.111845
0.0941145
0.0834102
0.0850466
0.152228
0.239463
0.190193
0.151482
0.121583
0.0995401
0.0855769
0.0842224
0.144928
0.268724
0.210071
0.164597
0.129927
0.104509
0.0880997
0.0847013
0.141488
0.279731
0.21779
0.169941
0.133561
0.106905
0.0895841
0.0854545
0.141134
0.267824
0.2102
0.1654
0.131111
0.105848
0.0894628
0.0860839
0.143359
0.238651
0.190949
0.153281
0.123962
0.102149
0.0882218
0.086932
0.148702
0.203041
0.167935
0.138773
0.115398
0.0978722
0.0872026
0.0890013
0.158054
0.199952
0.163974
0.134242
0.110633
0.0931434
0.0826173
0.0843484
0.151428
0.236267
0.187981
0.149877
0.120349
0.0985559
0.0847715
0.0835159
0.144142
0.265042
0.207692
0.16299
0.128735
0.103552
0.0872949
0.0839688
0.140641
0.275924
0.215467
0.168453
0.132473
0.106009
0.0887894
0.0846879
0.140191
0.264403
0.208232
0.164188
0.13019
0.105028
0.0886772
0.0852707
0.142283
0.236241
0.189597
0.152399
0.123214
0.101398
0.0874284
0.086047
0.147468
0.201717
0.167126
0.138139
0.114747
0.0971324
0.0863534
0.0879847
0.156493
0.197634
0.162193
0.132744
0.109336
0.0920472
0.0817201
0.0835515
0.149831
0.233365
0.186103
0.148408
0.119071
0.0974464
0.0838458
0.0826983
0.142592
0.261616
0.205809
0.161657
0.127561
0.102477
0.0863503
0.0831015
0.138993
0.272518
0.213838
0.167374
0.131473
0.105005
0.0878371
0.0837608
0.138403
0.261871
0.207167
0.163436
0.129349
0.104079
0.0877023
0.0842572
0.14031
0.235189
0.1892
0.151934
0.12248
0.100457
0.0863945
0.0849083
0.145252
0.201617
0.167029
0.137728
0.113987
0.096127
0.0852091
0.086657
0.153815
0.196093
0.160651
0.131196
0.107902
0.0908577
0.0808436
0.0829617
0.148729
0.23196
0.18483
0.147021
0.117669
0.0962096
0.0828895
0.0820192
0.141421
0.260299
0.204965
0.160591
0.126302
0.101252
0.0853364
0.0823341
0.137666
0.27197
0.213639
0.166726
0.130408
0.103822
0.0867789
0.0829013
0.136915
0.262482
0.207541
0.163051
0.128396
0.102898
0.0865745
0.0832739
0.138603
0.236734
0.18983
0.151591
0.12149
0.0992052
0.0851552
0.0837585
0.143225
0.202973
0.16734
0.13714
0.112832
0.0947423
0.0838241
0.0853063
0.151328
0.303334
0.233081
0.176407
0.132698
0.100891
0.080123
0.0724525
0.112766
0.380079
0.282208
0.206573
0.150106
0.109958
0.0838623
0.0725108
0.106965
0.442552
0.323469
0.231853
0.16443
0.117324
0.0870406
0.0730848
0.103971
0.46326
0.336269
0.238899
0.167767
0.118556
0.0871982
0.0726406
0.102293
0.430252
0.31271
0.222933
0.157564
0.112453
0.0838217
0.0709524
0.10165
0.359236
0.263897
0.191489
0.138604
0.101848
0.0785109
0.0689661
0.103029
0.27843
0.211443
0.158858
0.119472
0.091601
0.073946
0.0682857
0.107818
0.311217
0.237837
0.179884
0.135917
0.104286
0.0839
0.0770807
0.122111
0.392073
0.28845
0.210415
0.153344
0.113318
0.0876114
0.0770716
0.116068
0.458526
0.331261
0.236158
0.167812
0.120778
0.0908848
0.0777131
0.11308
0.479253
0.344173
0.243238
0.171258
0.122181
0.0912188
0.077424
0.111597
0.442324
0.319056
0.226904
0.161161
0.116312
0.0880642
0.0759371
0.111262
0.36729
0.268923
0.195425
0.142532
0.106054
0.0830273
0.0742085
0.113133
0.284188
0.216012
0.163103
0.123819
0.0961373
0.0787275
0.0738267
0.118593
0.312744
0.238136
0.180308
0.137101
0.106327
0.0867292
0.0809826
0.130828
0.395515
0.289001
0.210457
0.154145
0.115146
0.0903476
0.0808919
0.124586
0.464643
0.332625
0.236208
0.168502
0.122584
0.0936735
0.0815899
0.121643
0.48725
0.346159
0.243539
0.172143
0.124192
0.0942025
0.081471
0.120395
0.447735
0.320365
0.227388
0.162471
0.118714
0.0913445
0.080227
0.120401
0.370161
0.269914
0.196534
0.144573
0.108999
0.086671
0.0787964
0.122757
0.285982
0.2175
0.165143
0.126643
0.0996027
0.0827238
0.0787559
0.128897
0.306696
0.23359
0.177817
0.13653
0.107215
0.0886629
0.0840353
0.138674
0.388829
0.282927
0.206718
0.152835
0.115698
0.0921602
0.0838664
0.132253
0.459432
0.326218
0.231833
0.166786
0.122998
0.0954937
0.0846032
0.129361
0.48332
0.340117
0.239315
0.170589
0.124802
0.0962167
0.0846571
0.128349
0.442854
0.314639
0.223886
0.161585
0.119814
0.0936983
0.0836833
0.12872
0.364625
0.265319
0.19445
0.144768
0.110777
0.0894419
0.0825787
0.131573
0.281883
0.215102
0.164806
0.127959
0.102026
0.0858844
0.0828846
0.138377
0.293193
0.225049
0.173225
0.134726
0.107212
0.0897919
0.0861638
0.144667
0.3695
0.27061
0.199993
0.149984
0.11526
0.0931439
0.0859299
0.138076
0.437334
0.311233
0.223438
0.163126
0.122267
0.0964238
0.0866799
0.135165
0.461128
0.324699
0.23069
0.166933
0.124204
0.0973134
0.086894
0.134354
0.422624
0.300989
0.216606
0.158837
0.119795
0.0951752
0.0862148
0.135147
0.347544
0.255127
0.189617
0.143487
0.111573
0.0913849
0.0854568
0.138568
0.271243
0.209248
0.162565
0.128096
0.10356
0.0882362
0.0860885
0.146004
0.273277
0.213406
0.166952
0.131795
0.106311
0.0901449
0.0874715
0.148262
0.338315
0.25299
0.190791
0.145721
0.113814
0.0933123
0.0871852
0.141541
0.395537
0.287677
0.211336
0.157606
0.12035
0.0964604
0.0879168
0.138521
0.416037
0.299151
0.217739
0.16119
0.12233
0.0974759
0.0882698
0.13786
0.382839
0.278996
0.205742
0.154289
0.118617
0.095765
0.0878996
0.139123
0.319212
0.239954
0.182455
0.140857
0.111381
0.0925054
0.0874981
0.143166
0.254662
0.200533
0.158751
0.127143
0.1042
0.0897882
0.088423
0.151151
0.251549
0.200577
0.159675
0.127953
0.10463
0.0898802
0.088256
0.150362
0.304378
0.234005
0.180543
0.140507
0.111547
0.0928391
0.0879247
0.143591
0.347687
0.261859
0.197948
0.151029
0.117545
0.0958128
0.0886252
0.140462
0.361629
0.270513
0.203312
0.154336
0.119534
0.096929
0.0890989
0.139925
0.336515
0.254694
0.193671
0.148746
0.116567
0.0956565
0.0890209
0.141622
0.288124
0.22362
0.174427
0.137369
0.110388
0.0929517
0.0889567
0.146223
0.236587
0.190888
0.154085
0.125334
0.104041
0.0906529
0.0901264
0.154614
0.233196
0.189026
0.152689
0.124
0.102717
0.0893779
0.0888387
0.152205
0.277593
0.217963
0.17127
0.135448
0.109149
0.0921629
0.0884741
0.145451
0.311769
0.241079
0.186372
0.144917
0.114715
0.0949976
0.0891619
0.142298
0.321772
0.248136
0.191213
0.148124
0.11676
0.0962177
0.0897463
0.141894
0.302741
0.235851
0.183604
0.143715
0.114471
0.0953328
0.089912
0.143933
0.265248
0.210753
0.16758
0.134064
0.109203
0.0930994
0.0901123
0.148915
0.222599
0.182871
0.149823
0.123385
0.103545
0.0911409
0.0914662
0.157564
0.220237
0.180414
0.147253
0.120844
0.101172
0.0889831
0.0893802
0.154239
0.259711
0.206706
0.164449
0.131609
0.107309
0.0916638
0.0889915
0.147507
0.289305
0.227441
0.178341
0.140517
0.112655
0.0944458
0.0896938
0.144406
0.298364
0.234248
0.183202
0.143837
0.114836
0.0957875
0.0903803
0.144142
0.283544
0.224466
0.177125
0.140335
0.113063
0.0951899
0.0907193
0.14641
0.252072
0.202921
0.163172
0.131855
0.108423
0.0932769
0.0910897
0.151597
0.214352
0.177853
0.147004
0.122043
0.103206
0.0915284
0.0925547
0.160397
0.212324
0.17492
0.143713
0.118785
0.100183
0.0887715
0.0898569
0.156255
0.249737
0.200015
0.160265
0.129243
0.106194
0.0914079
0.0894398
0.149501
0.278177
0.220024
0.173781
0.138
0.111508
0.0942063
0.0901639
0.146448
0.288088
0.227316
0.17896
0.141563
0.113864
0.0956667
0.0909294
0.146291
0.275621
0.219111
0.173887
0.138669
0.112442
0.0952588
0.0913722
0.148682
0.246712
0.199361
0.161082
0.130855
0.108155
0.093515
0.0918237
0.153949
0.210984
0.175623
0.145726
0.121477
0.103147
0.0918536
0.0933335
0.162826
0.207998
0.171746
0.141607
0.117535
0.0995632
0.0886104
0.0901425
0.157888
0.24496
0.196497
0.157959
0.12791
0.105551
0.0912294
0.0896802
0.151042
0.27373
0.216622
0.171555
0.136738