/*--------------------------------*- C++ -*----------------------------------*\
| =========                 |                                                 |
| \\      /  F ield         | OpenFOAM: The Open Source CFD Toolbox           |
|  \\    /   O peration     | Version:  plus.master.MPPICInterFoam            |
|   \\  /    A nd           | Web:      www.OpenFOAM.com                      |
|    \\/     M anipulation  |                                                 |
\*---------------------------------------------------------------------------*/
FoamFile
{
    version     2.0;
    format      ascii;
    class       volScalarField;
    location    "5.2";
    object      k;
}
// * * * * * * * * * * * * * * * * * * * * * * * * * * * * * * * * * * * * * //

dimensions      [0 2 -2 0 0 0 0];

internalField   nonuniform List<scalar> 
11821
(
0.051855
0.053781
0.0457114
0.0491533
0.0447545
0.038772
0.0491525
0.0566493
0.0620627
0.0637488
0.0609205
0.0545469
0.0463612
0.055829
0.0643933
0.0675928
0.0691174
0.0688817
0.0628108
0.0527914
0.0598865
0.0667363
0.0714628
0.0693208
0.0708151
0.0684431
0.0569282
0.0600596
0.0667833
0.0735763
0.0691601
0.0701167
0.069416
0.0573625
0.0562775
0.0647151
0.0686087
0.0717502
0.0703193
0.0638063
0.0536308
0.0500751
0.0574436
0.0629559
0.0648195
0.0622456
0.0557961
0.0476069
0.0427713
0.0484
0.0522809
0.0534867
0.0515015
0.0468428
0.040623
0.0511376
0.0592528
0.0649644
0.0663915
0.0633777
0.0566311
0.0480251
0.058498
0.0678606
0.0712248
0.0710888
0.0711865
0.065096
0.0547602
0.0631315
0.0719996
0.0687893
0.070631
0.0715922
0.0702764
0.0590088
0.0635218
0.0722033
0.067968
0.0679269
0.072484
0.0709881
0.0594674
0.0593811
0.0687265
0.0715457
0.0719345
0.0714206
0.0661917
0.0558069
0.0526925
0.0608227
0.0667537
0.0683165
0.0651968
0.0583339
0.0496994
0.0449036
0.0510125
0.0552802
0.0565094
0.0541726
0.0491012
0.0425173
0.0523921
0.0610289
0.067287
0.0690027
0.0655831
0.0583317
0.0492828
0.060223
0.07059
0.0756482
0.0765932
0.0750596
0.0675863
0.0564052
0.065158
0.0757988
0.0738808
0.0739352
0.0759032
0.0732092
0.0609317
0.0657341
0.0765634
0.0715944
0.0693001
0.0756887
0.0738646
0.061489
0.0616024
0.0720384
0.0760768
0.0756817
0.0751391
0.069031
0.0578165
0.0546938
0.0634361
0.069736
0.0715077
0.0681859
0.0607008
0.0515438
0.0465732
0.0530804
0.0576564
0.058992
0.0564982
0.051072
0.0441344
0.0526967
0.061655
0.0681582
0.0696734
0.0662754
0.0590304
0.0497988
0.0609073
0.0717836
0.077803
0.0794621
0.0773611
0.0686488
0.0573102
0.0659501
0.0775624
0.0783306
0.0713393
0.0787402
0.0751607
0.0621563
0.0665277
0.0781999
0.0775034
0.0723275
0.0769645
0.076089
0.0628508
0.0627405
0.0738949
0.078224
0.0780635
0.0773562
0.0707006
0.05918
0.0558444
0.0645777
0.0708854
0.0728484
0.0695227
0.0620405
0.0527418
0.0475726
0.0544234
0.0592558
0.0606604
0.0581084
0.0523981
0.0451888
0.0518082
0.0604232
0.0670295
0.0688097
0.0655119
0.0580125
0.0492095
0.0601271
0.0696445
0.0747094
0.0751429
0.0740808
0.0667033
0.056751
0.0657209
0.0745356
0.0742582
0.0711738
0.0745397
0.0717231
0.0619528
0.0662672
0.076747
0.0751787
0.0703693
0.0740147
0.0721513
0.0627901
0.0626983
0.0712713
0.074124
0.0726844
0.0732072
0.0681521
0.0591591
0.055784
0.063896
0.0687453
0.069931
0.0675513
0.0614063
0.0527886
0.0477519
0.054685
0.0597038
0.0612277
0.0584744
0.0526174
0.0454938
0.0500852
0.0577938
0.0637678
0.0657159
0.0623845
0.0556219
0.0478061
0.0579233
0.0666271
0.0715672
0.0711225
0.0698159
0.0637711
0.05486
0.0635773
0.0715195
0.0723883
0.0699897
0.0726704
0.0686551
0.0599234
0.0646911
0.0701645
0.0698644
0.0681629
0.071726
0.0689881
0.0609641
0.0612507
0.0683487
0.0711041
0.0707929
0.0709146
0.0665372
0.0578195
0.0548437
0.0628003
0.0679401
0.0690432
0.0665953
0.0601516
0.0519807
0.0473395
0.0540778
0.058996
0.0604181
0.0576929
0.0519863
0.0452528
0.0481638
0.0549402
0.0600578
0.061665
0.0586819
0.052861
0.0461857
0.0551326
0.0632414
0.0683017
0.0687431
0.0659734
0.0601111
0.0522855
0.0604125
0.0686371
0.0699374
0.066815
0.066681
0.0652885
0.0567902
0.061927
0.0682814
0.0687928
0.0664155
0.0657774
0.0667524
0.0580313
0.0589919
0.0666404
0.0687083
0.0678715
0.0680632
0.0638814
0.0555073
0.0532934
0.0611054
0.0668114
0.0679334
0.0645748
0.0581105
0.0506288
0.0465102
0.0527522
0.0573179
0.0584861
0.055864
0.0507622
0.0447117
0.0465816
0.0527806
0.0572663
0.058503
0.0560098
0.0510869
0.0450681
0.0529465
0.0611713
0.0670751
0.0681568
0.0647821
0.0584498
0.0505939
0.0576794
0.0671213
0.0714952
0.0705731
0.0689388
0.063788
0.0545125
0.059341
0.0676839
0.0651869
0.0668126
0.0687885
0.0654128
0.0557333
0.0568879
0.0657617
0.0698308
0.0695308
0.0684754
0.062741
0.0538606
0.051887
0.0595334
0.0651534
0.0663424
0.0631065
0.056952
0.0497102
0.0456333
0.0514223
0.0554822
0.0565251
0.0542951
0.0498609
0.0442877
0.0453831
0.0510132
0.0548878
0.0559978
0.0541012
0.0499132
0.044466
0.0511912
0.0583633
0.0632452
0.0644579
0.0620454
0.0564815
0.0496291
0.0554347
0.0637049
0.067554
0.0683581
0.0673518
0.0611751
0.0532115
0.0570104
0.0656358
0.0679177
0.0621556
0.0688529
0.0627498
0.0544462
0.0551692
0.0634291
0.0681298
0.0673945
0.0660085
0.0606796
0.0529707
0.0507507
0.0576868
0.0625128
0.0636878
0.0610535
0.055847
0.0492955
0.0449455
0.050438
0.0541753
0.0552644
0.0534271
0.0494358
0.04415
0.0447417
0.0501688
0.0539522
0.0552316
0.0535941
0.0497071
0.044465
0.0502798
0.0569748
0.0616363
0.063239
0.0608791
0.0560553
0.049633
0.0543041
0.0619462
0.0642592
0.0647313
0.0653143
0.0606857
0.0533004
0.0557999
0.0633976
0.0657359
0.066064
0.0661459
0.0624722
0.0547184
0.0542656
0.0617269
0.0651437
0.0639643
0.0633566
0.0605948
0.0532892
0.0501974
0.0568769
0.0612309
0.0625368
0.060832
0.0560855
0.0496156
0.0446081
0.0500772
0.0538677
0.0551395
0.0535249
0.0496682
0.0444106
0.044587
0.0500485
0.0539144
0.0553548
0.0538785
0.0500982
0.0448508
0.0500772
0.0566723
0.061078
0.0624494
0.0606651
0.0564378
0.0501809
0.0540817
0.0613026
0.0627903
0.0614074
0.0606931
0.0606675
0.0540032
0.0556586
0.0630515
0.0648777
0.0622758
0.0600367
0.0621866
0.0554405
0.0541526
0.0614561
0.0621981
0.0626683
0.0628389
0.0611969
0.0540917
0.0501229
0.0567849
0.0609845
0.0621098
0.0611294
0.0566624
0.0502791
0.0445521
0.0501216
0.0540286
0.0554254
0.0540024
0.0502211
0.044889
0.0446355
0.0502165
0.0542623
0.0558615
0.0545007
0.0506709
0.0453099
0.0501545
0.0569166
0.061621
0.0628627
0.0616705
0.0572746
0.0508268
0.0542076
0.0616989
0.0637864
0.0627483
0.0629712
0.0612118
0.0548282
0.055777
0.0632386
0.0613972
0.0617062
0.0620044
0.0620121
0.0562384
0.0542819
0.0617629
0.0631301
0.063588
0.0645618
0.0617172
0.0548827
0.050219
0.0570586
0.0614927
0.0623063
0.0613719
0.0571898
0.0509252
0.0445907
0.0503235
0.0544448
0.0559719
0.0546831
0.0508156
0.0453321
0.0446761
0.0503072
0.0544856
0.0561423
0.0548834
0.0510281
0.0456077
0.0501904
0.057053
0.0620779
0.0632821
0.0623459
0.0578032
0.0512005
0.0543238
0.062088
0.0652263
0.0641753
0.0648163
0.06205
0.0552687
0.0559236
0.0636091
0.0640555
0.0638352
0.0632988
0.0622613
0.0567881
0.0544245
0.0623129
0.0648252
0.0647145
0.0648371
0.0615095
0.0554034
0.0502568
0.057305
0.0621821
0.062784
0.0614322
0.057726
0.0512987
0.0445673
0.0504342
0.0548486
0.0566261
0.05526
0.0511757
0.045538
0.0447514
0.0503514
0.0545427
0.0562529
0.0550563
0.0512006
0.045818
0.0501633
0.0569488
0.0620145
0.0635636
0.0624079
0.0578045
0.0513575
0.0542246
0.0618632
0.0661034
0.0654855
0.0658285
0.0622973
0.0555057
0.0558185
0.0633475
0.0654678
0.0622811
0.0640808
0.0632209
0.0571343
0.0542926
0.0619256
0.0656093
0.0626258
0.063381
0.0616927
0.0555338
0.0501381
0.0571265
0.0619429
0.0628754
0.0619217
0.0578028
0.0513244
0.0444781
0.0503085
0.054744
0.0566203
0.0552597
0.0511631
0.0455335
0.0450071
0.0505623
0.0546608
0.0563222
0.0551286
0.0514524
0.046166
0.0502865
0.0568717
0.0617803
0.0632006
0.0620684
0.057851
0.0515789
0.0541646
0.0615185
0.0646314
0.065409
0.0641616
0.0625106
0.0554787
0.0556671
0.0630344
0.065579
0.0618387
0.063342
0.0638037
0.0569533
0.054156
0.0615885
0.0657713
0.0645121
0.0651313
0.0620133
0.0554197
0.0500433
0.0568087
0.0616851
0.0630933
0.0618792
0.0576194
0.0512732
0.0444413
0.0501661
0.0545148
0.0563799
0.0550292
0.0510362
0.0455231
0.0455704
0.0513662
0.0556125
0.0573986
0.0562688
0.0524778
0.0469054
0.0509406
0.0580083
0.0635163
0.0655628
0.0643139
0.0594133
0.0525894
0.0546987
0.062927
0.0668084
0.0677967
0.0684243
0.0648271
0.0566357
0.0560592
0.0645719
0.0671655
0.0656368
0.0681642
0.0665847
0.0580185
0.0544169
0.0626061
0.0658141
0.0665362
0.0665172
0.0638951
0.0561503
0.0502862
0.0573371
0.0627025
0.0649043
0.063591
0.0586881
0.0517703
0.044591
0.0503552
0.0546722
0.0565845
0.0552822
0.0513474
0.0457558
0.00998141
0.00430612
0.0289263
0.0231533
0.0183559
0.0142319
0.0102398
0.00437827
0.0445481
0.0360771
0.0290184
0.0232019
0.0183948
0.0142688
0.0102714
0.00437854
0.0417705
0.0340687
0.0276178
0.0222665
0.0177911
0.0138909
0.010046
0.00429529
0.0371225
0.0306887
0.0252601
0.0206735
0.016738
0.0132078
0.00962314
0.00415338
0.0318636
0.026999
0.0226892
0.0188961
0.0155197
0.0123829
0.00908747
0.00397912
0.0378229
0.0319047
0.0265841
0.0219053
0.0177997
0.0140751
0.0102662
0.00451799
0.0426429
0.0351669
0.0288053
0.0234179
0.0188246
0.0147613
0.0107061
0.00464415
0.0458236
0.0373912
0.0303144
0.0244321
0.0195043
0.0152129
0.0109939
0.00472794
0.0461889
0.0376136
0.0304482
0.0245246
0.0195784
0.0152741
0.0110397
0.00473305
0.0434834
0.035657
0.0290881
0.0236117
0.0189849
0.0148982
0.0108122
0.00464739
0.0388736
0.0323039
0.0267432
0.0220127
0.0179143
0.0141946
0.0103723
0.00449565
0.0335725
0.0285777
0.0241316
0.02019
0.0166505
0.01333
0.00980668
0.00430648
0.0392238
0.0331275
0.0276873
0.0229155
0.0187148
0.0148711
0.0108904
0.00481498
0.0442399
0.0365314
0.0300204
0.0245204
0.0198145
0.0156149
0.0113712
0.00496034
0.0475387
0.0388597
0.0316217
0.0256131
0.0205576
0.016114
0.0116898
0.00505675
0.0479639
0.0391438
0.031817
0.0257581
0.0206708
0.0162011
0.0117506
0.00506752
0.045287
0.0372214
0.0304877
0.0248676
0.020089
0.0158286
0.0115221
0.00498023
0.04064
0.0338583
0.0281357
0.0232561
0.0190008
0.0151064
0.0110666
0.00482
0.0352341
0.0300707
0.0254741
0.021386
0.0176934
0.0142047
0.010473
0.00461704
0.0402548
0.0340342
0.028535
0.0237284
0.0194818
0.0155588
0.011442
0.00508884
0.045485
0.0375818
0.0309761
0.025421
0.0206536
0.0163591
0.0119627
0.00525268
0.0489688
0.0400466
0.0326817
0.0265955
0.0214598
0.0169043
0.0123111
0.0053623
0.0494981
0.0404229
0.0329543
0.0268005
0.0216158
0.0170192
0.0123877
0.00537909
0.0468503
0.0385432
0.0316658
0.0259398
0.0210505
0.016653
0.0121598
0.00529075
0.0421454
0.0351685
0.0293147
0.0243248
0.0199517
0.0159164
0.0116909
0.00512251
0.0366357
0.0313307
0.0266185
0.022421
0.0186102
0.0149837
0.0110731
0.00490688
0.0407644
0.0345505
0.0291076
0.0243489
0.0201091
0.0161405
0.0119169
0.00533713
0.0461854
0.0382168
0.0316361
0.0261154
0.0213442
0.0169912
0.0124726
0.00551755
0.0498903
0.0408276
0.0334437
0.0273676
0.0222103
0.0175799
0.0128488
0.00563944
0.0505468
0.0413097
0.0338002
0.0276354
0.02241
0.0177226
0.0129408
0.00566197
0.0479173
0.0394808
0.0325649
0.026813
0.0218658
0.017365
0.0127148
0.00557305
0.0431704
0.0361215
0.0302372
0.0252083
0.0207631
0.0166171
0.0122342
0.0053976
0.037641
0.0322886
0.0275386
0.0232876
0.0193957
0.0156576
0.0115948
0.00517072
0.0406909
0.0347164
0.0294614
0.0248129
0.0206056
0.0166047
0.0122919
0.00553927
0.0460986
0.0383983
0.0320284
0.0266297
0.0218906
0.0174965
0.0128759
0.00573224
0.0499515
0.0410955
0.0339052
0.0279428
0.0228066
0.0181215
0.0132739
0.00586252
0.0507398
0.0416846
0.0343452
0.0282719
0.0230479
0.0182894
0.0133789
0.00588926
0.0482032
0.0399631
0.0331924
0.0275002
0.0225295
0.0179423
0.0131562
0.00580098
0.0435806
0.0367119
0.0309297
0.0259211
0.0214282
0.017186
0.0126665
0.00562132
0.0382264
0.0329729
0.0282641
0.0239962
0.0200397
0.0162025
0.0120084
0.005386
0.0401553
0.0346126
0.0296258
0.0251121
0.0209454
0.0169231
0.012544
0.00567566
0.0452663
0.0381691
0.032165
0.0269451
0.0222596
0.0178422
0.0131471
0.00587586
0.0490126
0.0408234
0.0340492
0.0282875
0.0232061
0.0184893
0.0135565
0.00600857
0.0499203
0.0415085
0.0345644
0.0286709
0.0234823
0.0186765
0.01367
0.00603723
0.0476953
0.0399937
0.0335338
0.0279637
0.0229945
0.0183424
0.0134524
0.00595148
0.0434553
0.036974
0.0313851
0.0264288
0.0219034
0.0175838
0.0129588
0.00577216
0.0384508
0.0334049
0.0287808
0.0245106
0.0205
0.0165812
0.0122857
0.00553205
0.0394169
0.0343405
0.0296211
0.0252409
0.0211267
0.0171078
0.0126959
0.00575973
0.0440461
0.0376895
0.0320881
0.02706
0.0224478
0.0180386
0.0133085
0.00596314
0.0474223
0.040186
0.0339246
0.0283984
0.0234013
0.0186912
0.013719
0.00609368
0.048404
0.0409363
0.0344944
0.0288203
0.0237
0.0188884
0.0138348
0.00612196
0.0466385
0.039685
0.0336027
0.0281821
0.0232441
0.0185676
0.013622
0.00603908
0.0429762
0.0369629
0.0315906
0.026703
0.0221722
0.0178135
0.0131285
0.00586231
0.0383916
0.0335835
0.0290561
0.0247995
0.0207621
0.0167982
0.0124445
0.00561962
0.0388204
0.0340648
0.0295449
0.0252785
0.021224
0.0172279
0.0128063
0.00582281
0.0431188
0.0372572
0.0319475
0.0270767
0.0225424
0.0181623
0.0134232
0.00602813
0.0461922
0.0396207
0.0337333
0.0283973
0.0234888
0.0188101
0.0138291
0.00615553
0.0471933
0.0404089
0.034336
0.0288408
0.0237967
0.0190081
0.0139416
0.00618183
0.0458013
0.0393643
0.0335534
0.0282557
0.023364
0.018695
0.0137295
0.00609977
0.0425647
0.0368641
0.0316471
0.0268226
0.0223089
0.0179442
0.0132344
0.00592379
0.0382559
0.0336127
0.029161
0.0249298
0.0208939
0.0169189
0.0125412
0.00567845
0.0385279
0.0339445
0.0295378
0.0253426
0.0213287
0.0173478
0.0129151
0.00588202
0.0426709
0.0370732
0.0319173
0.0271355
0.0226484
0.018285
0.0135339
0.00608882
0.0456175
0.039392
0.0336867
0.0284477
0.0235884
0.0189268
0.0139345
0.00621421
0.0466587
0.0402205
0.0343176
0.0289017
0.0238961
0.0191194
0.0140402
0.00623784
0.0454747
0.0392853
0.0335876
0.0283409
0.0234703
0.0188041
0.0138227
0.00615405
0.0424501
0.036884
0.0317251
0.0269235
0.0224165
0.0180478
0.013321
0.00597585
0.0382501
0.0336683
0.0292428
0.0250216
0.0209884
0.0170098
0.0126181
0.00572731
0.0386054
0.0340495
0.0296622
0.0254792
0.0214671
0.0174767
0.0130197
0.00593493
0.0427803
0.0372113
0.0320668
0.0272881
0.0227958
0.0184173
0.0136382
0.00614186
0.0457832
0.0395677
0.0338578
0.028608
0.0237356
0.0190553
0.0140341
0.00626617
0.0469002
0.0404357
0.0345058
0.0290642
0.0240361
0.0192384
0.0141311
0.00628721
0.0457629
0.0395287
0.0337865
0.0285014
0.0236023
0.0189123
0.0139039
0.00620008
0.04273
0.0371116
0.0319052
0.0270655
0.0225316
0.0181416
0.0133918
0.00601817
0.0384714
0.0338433
0.0293799
0.0251317
0.0210807
0.0170882
0.0126801
0.00576713
0.0389193
0.0343009
0.0298683
0.0256496
0.0216056
0.0175848
0.0130956
0.00597138
0.0432098
0.0375366
0.0323178
0.0274832
0.022945
0.018527
0.0137105
0.00617652
0.0463301
0.0399638
0.0341422
0.0288169
0.0238875
0.019162
0.0141016
0.00629999
0.0474967
0.0408617
0.034793
0.0292654
0.0241783
0.0193349
0.0141904
0.00631933
0.0463532
0.0399364
0.0340571
0.028683
0.0237239
0.0189919
0.0139517
0.00622867
0.043212
0.03744
0.0321215
0.0272087
0.0226259
0.018203
0.0134289
0.00604353
0.0388099
0.0340726
0.0295313
0.0252329
0.0211494
0.0171359
0.012712
0.00579203
0.0392634
0.0345609
0.0300625
0.0257888
0.0216977
0.0176379
0.0131182
0.00598202
0.0436698
0.0378682
0.0325532
0.027644
0.0230452
0.0185792
0.0137274
0.00618436
0.0469038
0.0403589
0.0344087
0.0289901
0.02399
0.0192115
0.0141141
0.00630731
0.0481082
0.0412729
0.0350608
0.0294325
0.024271
0.0193753
0.0141964
0.00632619
0.0469186
0.0403016
0.0342815
0.0288134
0.02379
0.0190147
0.0139481
0.00623375
0.0436469
0.0377106
0.0322808
0.0272943
0.0226629
0.0182091
0.0134179
0.00604731
0.039094
0.0342446
0.0296277
0.0252799
0.0211653
0.0171335
0.012701
0.00579802
0.0395185
0.0347603
0.0302017
0.0258664
0.0217191
0.0176152
0.0130701
0.00595746
0.0439793
0.0381095
0.0327227
0.0277399
0.0230736
0.0185549
0.013673
0.00615707
0.0472633
0.0406311
0.0345957
0.0290948
0.0240209
0.0191858
0.0140568
0.00628004
0.0485021
0.0415482
0.0352392
0.0295246
0.0242905
0.0193419
0.0141354
0.00629999
0.0472556
0.0405206
0.0344107
0.0288687
0.0237855
0.018968
0.0138824
0.00620847
0.0438804
0.0378492
0.0323484
0.0273059
0.0226316
0.0181499
0.0133497
0.00602376
0.0392266
0.0343105
0.029644
0.025259
0.0211182
0.0170714
0.0126379
0.00577934
0.0397402
0.0349317
0.0302956
0.0258752
0.0216538
0.0174993
0.0129369
0.00588788
0.0442033
0.0383093
0.0328486
0.0277711
0.0230178
0.0184388
0.0135349
0.00608543
0.0474833
0.0408323
0.0347306
0.0291347
0.0239694
0.0190701
0.0139173
0.00620896
0.0487213
0.0417275
0.0353529
0.0295484
0.0242305
0.0192226
0.0139963
0.00623171
0.0473921
0.0406381
0.0344736
0.0288565
0.0237039
0.0188408
0.0137445
0.00614394
0.0439534
0.0379003
0.0323508
0.0272503
0.0225269
0.0180165
0.013216
0.00596493
0.0392517
0.0343047
0.0295979
0.0251732
0.0210024
0.0169411
0.0125148
0.00572792
0.040021
0.0351022
0.0303311
0.0257879
0.0214795
0.0172821
0.0127239
0.00577957
0.0445082
0.0385375
0.0329346
0.0277128
0.0228537
0.0182214
0.0133186
0.00597619
0.0477101
0.041055
0.0348318
0.0290896
0.0238111
0.0188537
0.0137007
0.00610065
0.0488523
0.0418977
0.0354273
0.0294912
0.024068
0.0190075
0.0137847
0.00612794
0.0474837
0.0407408
0.0344892
0.028762
0.0235263
0.0186263
0.0135408
0.00604662
0.0440124
0.0379287
0.032298
0.0271143
0.0223356
0.0178068
0.0130254
0.00587709
0.0392541
0.0342585
0.0294887
0.02501
0.0208087
0.0167435
0.0123412
0.0056499
0.0403886
0.0352195
0.0302442
0.0255639
0.02119
0.0169871
0.012472
0.00566861
0.0450818
0.03879
0.032923
0.0275201
0.0225704
0.0179233
0.0130634
0.00586479
0.0483661
0.0413771
0.0348667
0.0289196
0.0235358
0.0185586
0.0134486
0.00599215
0.0494407
0.0421881
0.0354495
0.029319
0.0237968
0.0187212
0.0135432
0.00602644
0.0479019
0.0409155
0.0344439
0.0285618
0.0232535
0.0183513
0.0133138
0.00595295
0.0442489
0.0379639
0.0321703
0.0268831
0.0220656
0.0175502
0.0128189
0.00579424
0.0392979
0.0341683
0.0292987
0.0247647
0.0205527
0.0165113
0.0121578
0.00557792
0.0357548
0.0305563
0.0257868
0.0214628
0.0175467
0.0139012
0.0101155
0.00436476
0.041552
0.0348479
0.0289319
0.02372
0.0191188
0.0149565
0.0107798
0.00457344
0.0465506
0.0386896
0.0317678
0.0257398
0.0205053
0.0158698
0.01134
0.00475725
0.0494915
0.0409359
0.0334258
0.0269202
0.0213153
0.0164031
0.0116691
0.00487632
0.0492075
0.0407427
0.0333026
0.0268469
0.0212748
0.0163851
0.0116655
0.00489161
0.0458497
0.0382294
0.0314917
0.0255823
0.0204232
0.015838
0.0113398
0.0048062
0.0405642
0.0344224
0.0287509
0.023642
0.0190925
0.0149626
0.0108001
0.00465597
0.0374927
0.0320142
0.0270247
0.0225272
0.0184632
0.0146705
0.0107051
0.00464362
0.043546
0.0364302
0.0302225
0.0248065
0.0200464
0.0157341
0.0113762
0.00485839
0.0487716
0.0403622
0.0330842
0.0268247
0.0214238
0.0166393
0.0119317
0.0050425
0.0518388
0.0426346
0.0347254
0.0279751
0.0222041
0.0171503
0.0122466
0.00515697
0.051416
0.042334
0.0345165
0.0278354
0.0221146
0.0170985
0.0122219
0.00516389
0.0477186
0.0396116
0.0325729
0.0264828
0.0212047
0.0165125
0.0118717
0.0050672
0.0420358
0.0355709
0.0296943
0.0244606
0.0198222
0.0156016
0.0113082
0.00490476
0.038838
0.0331464
0.0280031
0.0233945
0.0192306
0.0153285
0.0112182
0.00489817
0.0450606
0.0376285
0.0312143
0.0256681
0.0208076
0.0163901
0.0118904
0.00511672
0.0503894
0.0415928
0.0340628
0.0276583
0.0221605
0.01728
0.0124384
0.00530084
0.0534166
0.0438103
0.0356458
0.0287553
0.0228996
0.0177639
0.0127376
0.00541081
0.0528409
0.0433824
0.035339
0.0285418
0.022758
0.0176774
0.012692
0.00540936
0.0488979
0.0404817
0.0332754
0.0271119
0.0217966
0.0170564
0.0123197
0.0053017
0.0429406
0.0362777
0.0303041
0.0250351
0.0203776
0.0161188
0.0117375
0.00512832
0.0396729
0.0338988
0.0287139
0.0240679
0.0198515
0.015872
0.0116472
0.00512465
0.045925
0.0383516
0.0318832
0.0263089
0.0214101
0.0169258
0.0123172
0.00534567
0.0512835
0.0422936
0.0346798
0.02825
0.0227295
0.0177975
0.0128569
0.00552994
0.0542227
0.0444376
0.0361864
0.0292826
0.0234234
0.0182536
0.013141
0.00563603
0.053515
0.0438793
0.0357784
0.0289959
0.0232313
0.0181342
0.0130762
0.00562699
0.0493454
0.0408157
0.0336135
0.0275018
0.0222268
0.017484
0.0126857
0.00550991
0.043192
0.0365097
0.0305912
0.0253944
0.0207845
0.0165276
0.0120902
0.00532765
0.0400531
0.0343506
0.0292112
0.024572
0.0203249
0.0162836
0.011967
0.00530286
0.0461233
0.0386701
0.0322944
0.026764
0.021859
0.0173267
0.0126329
0.0055244
0.0514187
0.0424986
0.0349907
0.0286369
0.0231387
0.0181774
0.013162
0.00570633
0.0542967
0.044539
0.0363986
0.0295955
0.0237844
0.0186049
0.0134303
0.0058073
0.0533817
0.0438359
0.0358904
0.0292405
0.0235471
0.0184575
0.0133497
0.00579205
0.0489604
0.0406543
0.0336626
0.0277058
0.0225139
0.0177881
0.0129483
0.0056698
0.042807
0.0363604
0.0306483
0.0255972
0.0210652
0.016824
0.0123473
0.00548319
0.0400339
0.0345211
0.0294808
0.0248716
0.020611
0.0165302
0.0121547
0.00541502
0.045738
0.0386197
0.0324411
0.0269986
0.022112
0.0175575
0.0128133
0.00563448
0.050661
0.042185
0.0349744
0.0287774
0.0233393
0.0183792
0.013326
0.00580948
0.053282
0.0440123
0.0362358
0.0296441
0.0239299
0.0187746
0.0135762
0.00590279
0.0521537
0.043184
0.0356444
0.0292334
0.0236571
0.0186064
0.0134848
0.00588326
0.0477735
0.040046
0.0334364
0.0277023
0.022622
0.0179351
0.0130832
0.00576163
0.0419401
0.0359297
0.0305114
0.0256357
0.0211927
0.0169798
0.0124869
0.00557633
0.0396476
0.034386
0.0294799
0.0249331
0.0206976
0.0166213
0.0122328
0.00547476
0.0448898
0.0382193
0.032293
0.0269792
0.0221551
0.0176273
0.0128827
0.00569141
0.0492213
0.0414228
0.0346184
0.0286399
0.0233156
0.0184117
0.0133753
0.0058577
0.0513943
0.0429597
0.0357041
0.0294027
0.0238459
0.0187729
0.013607
0.00594281
0.0501601
0.0420707
0.0350673
0.0289604
0.023554
0.0185947
0.0135112
0.00592144
0.0461583
0.0391396
0.0329633
0.0274822
0.0225479
0.0179403
0.01312
0.0058044
0.0408456
0.0353059
0.0301898
0.0254987
0.0211644
0.0170095
0.012536
0.00562316
0.039097
0.0340556
0.0292894
0.0248348
0.0206639
0.0166312
0.0122643
0.00551407
0.0439632
0.037657
0.0319632
0.0267988
0.0220765
0.0176164
0.0129073
0.00572963
0.047767
0.0405349
0.0340939
0.0283448
0.0231716
0.0183662
0.0133838
0.0058902
0.0494825
0.041797
0.0350174
0.0290133
0.023649
0.0186996
0.0136021
0.00596985
0.0482864
0.0409041
0.0343686
0.0285626
0.0233539
0.0185214
0.0135075
0.0059484
0.0446828
0.0381999
0.0323925
0.0271595
0.0223926
0.0178929
0.0131304
0.00583571
0.0397997
0.034631
0.0297796
0.025273
0.0210653
0.0169922
0.0125606
0.00565767
0.0386337
0.033737
0.0290808
0.0247162
0.0206173
0.0166363
0.0122972
0.00555331
0.0432446
0.0371783
0.0316521
0.0266187
0.0219977
0.0176086
0.0129379
0.00576986
0.0467084
0.0398405
0.033646
0.0280819
0.0230471
0.0183369
0.0134069
0.00592907
0.0481159
0.0409192
0.0344599
0.0286875
0.0234913
0.0186551
0.0136196
0.00600677
0.0469233
0.0400205
0.0338104
0.0282408
0.0232023
0.0184825
0.0135291
0.00598567
0.0435774
0.0374723
0.0319357
0.0269037
0.0222819
0.0178774
0.013164
0.0058751
0.039007
0.0340993
0.0294496
0.025097
0.0210014
0.0170016
0.0126055
0.00569859
0.0383811
0.0335518
0.0289583
0.0246539
0.0206062
0.0166619
0.0123406
0.00559464
0.0428642
0.0369069
0.0314736
0.0265236
0.0219713
0.01763
0.0129825
0.00581307
0.0461525
0.0394573
0.0333959
0.0279445
0.0229996
0.0183507
0.0134507
0.00597312
0.0474063
0.040445
0.034156
0.0285214
0.0234313
0.0186655
0.0136639
0.00605091
0.0462119
0.0395447
0.0335124
0.0280845
0.0231521
0.0185007
0.0135783
0.00602996
0.0429867
0.037081
0.0317005
0.0267916
0.0222604
0.0179124
0.0132219
0.00592003
0.0385837
0.0338204
0.0292918
0.0250361
0.0210108
0.0170536
0.0126718
0.0057443
0.0383102
0.0334832
0.0289137
0.0246394
0.0206191
0.0166944
0.0123811
0.00563278
0.0427661
0.0368092
0.0314081
0.0264982
0.0219809
0.0176638
0.0130256
0.00585273
0.0460182
0.0393254
0.0333063
0.0279065
0.0230051
0.0183853
0.0134961
0.00601368
0.0472422
0.0402892
0.0340528
0.0284792
0.0234383
0.0187039
0.0137127
0.00609204
0.0460225
0.03939
0.0334215
0.0280561
0.0231708
0.0185472
0.0136317
0.00607081
0.0428238
0.0369632
0.0316443
0.0267908
0.0222982
0.0179708
0.0132817
0.00596093
0.0384758
0.0337556
0.0292776
0.0250646
0.0210674
0.0171229
0.0127376
0.00578562
0.0383019
0.0334608
0.028897
0.0246361
0.0206294
0.0167141
0.0124045
0.00566256
0.0427696
0.0367864
0.031391
0.0264969
0.021995
0.0176875
0.0130515
0.00588327
0.0460325
0.0393031
0.0332892
0.0279081
0.0230239
0.0184138
0.0135251
0.00604457
0.0472575
0.0402698
0.0340421
0.028489
0.0234651
0.0187384
0.0137451
0.00612279
0.0460449
0.0393862
0.0334278
0.028081
0.0232087
0.0185885
0.013667
0.00610045
0.0428448
0.0369783
0.0316735
0.0268345
0.0223488
0.0180195
0.0133207
0.00598973
0.0385128
0.0337974
0.0293303
0.025125
0.0211282
0.0171773
0.0127794
0.00581358
0.0382818
0.0334372
0.0288786
0.0246234
0.0206199
0.0167053
0.0123963
0.00567515
0.0427642
0.0367727
0.0313836
0.0264954
0.0219946
0.0176846
0.0130458
0.00589585
0.0460535
0.0393018
0.0332942
0.0279185
0.0230333
0.0184172
0.013522
0.00605659
0.0472852
0.0402811
0.0340632
0.0285136
0.0234847
0.0187476
0.0137437
0.00613355
0.0460797
0.0394145
0.0334646
0.0281187
0.0232368
0.0186017
0.0136663
0.00610922
0.0428846
0.0370279
0.0317291
0.0268843
0.0223831
0.018035
0.01332
0.00599651
0.0385791
0.0338694
0.0293991
0.0251804
0.0211638
0.0171919
0.0127769
0.00581752
0.0382569
0.0334182
0.0288549
0.0245895
0.0205753
0.0166534
0.0123447
0.00566056
0.0427404
0.0367735
0.0313838
0.0264807
0.0219621
0.0176383
0.0129953
0.00588022
0.046031
0.0393217
0.0333195
0.0279256
0.0230149
0.0183774
0.0134721
0.00603874
0.0472768
0.0403239
0.0341115
0.0285384
0.0234772
0.0187118
0.0136932
0.006113
0.0461019
0.0394851
0.0335359
0.0281568
0.0232349
0.0185666
0.0136136
0.00608568
0.0429598
0.037127
0.0318106
0.0269254
0.0223802
0.017997
0.0132636
0.00597041
0.0386988
0.0339807
0.0294771
0.0252129
0.0211519
0.0171455
0.0127133
0.00578655
0.0382527
0.0333979
0.0288048
0.0245113
0.0204799
0.016554
0.0122552
0.00562212
0.0427559
0.0367945
0.0313708
0.0264264
0.0218781
0.0175422
0.0129048
0.0058399
0.0460585
0.0393827
0.0333467
0.0278987
0.0229439
0.0182833
0.0133777
0.00599389
0.0473323
0.0404255
0.0341735
0.0285356
0.023417
0.0186188
0.0135945
0.00606375
0.0462207
0.0396278
0.0336204
0.0281631
0.0231766
0.0184707
0.0135095
0.00603246
0.0431587
0.0372955
0.0318989
0.0269269
0.0223145
0.0178934
0.0131526
0.00591387
0.0389148
0.0341302
0.0295386
0.0251912
0.0210684
0.0170279
0.0125911
0.005724
0.038287
0.0333573
0.0287064
0.0243815
0.0203463
0.0164362
0.0121649
0.00558821
0.0428908
0.0368297
0.0313173
0.0263158
0.0217473
0.0174198
0.012808
0.00580172
0.0462744
0.0395
0.0333484
0.027815
0.0228192
0.0181553
0.0132711
0.00594944
0.0476473
0.0406179
0.0342237
0.0284748
0.0232976
0.0184862
0.0134796
0.00601394
0.0466113
0.0398545
0.0336824
0.0281055
0.0230529
0.0183295
0.013385
0.005978
0.0435604
0.0375047
0.03194
0.0268501
0.0221754
0.017739
0.0130168
0.00585462
0.0392137
0.0342596
0.0295252
0.0250793
0.0209059
0.0168558
0.0124408
0.00565864
0.0406097
0.034432
0.0287299
0.0236024
0.0190481
0.0149227
0.0107704
0.00464311
0.0466036
0.0387602
0.031796
0.0257127
0.0204525
0.0158249
0.0113224
0.00481086
0.0509764
0.0420186
0.0340863
0.0272432
0.0214321
0.0164289
0.0116782
0.00492567
0.0522887
0.0429201
0.0346537
0.0275669
0.0215996
0.0165094
0.0117172
0.00494057
0.0498983
0.0410062
0.0331888
0.0265001
0.020861
0.0160254
0.0114245
0.00484753
0.0446761
0.0369648
0.0302231
0.0244266
0.0194741
0.0151384
0.0108947
0.00468318
0.0381833
0.0322134
0.0268238
0.0220686
0.017894
0.0141157
0.0102697
0.00449416
0.0420769
0.0355701
0.0296661
0.0244197
0.0197809
0.0155671
0.0112841
0.00489439
0.0484303
0.0400857
0.0328258
0.0265836
0.0212253
0.0165051
0.0118662
0.00507832
0.0531023
0.0435157
0.0352077
0.0281716
0.02225
0.0171484
0.0122531
0.00520781
0.054452
0.0444617
0.0358096
0.02853
0.0224535
0.0172624
0.0123182
0.0052344
0.05183
0.0424416
0.0343162
0.0274718
0.0217364
0.0167987
0.0120405
0.00514716
0.0463122
0.0382651
0.0313155
0.0254031
0.0203638
0.0159223
0.0115165
0.00498335
0.0395817
0.0334143
0.0278925
0.023045
0.018783
0.0148939
0.0108828
0.00478791
0.0429807
0.0362693
0.0302699
0.0249934
0.02034
0.0160905
0.0117199
0.00512123
0.0495794
0.0408912
0.0334648
0.0271742
0.0218049
0.0170548
0.0123277
0.00532044
0.0545195
0.0444571
0.0359088
0.0287994
0.0228638
0.0177322
0.0127431
0.00546444
0.0560205
0.0454829
0.0365622
0.0292003
0.0231066
0.017881
0.0128352
0.00550333
0.0532304
0.0434103
0.0350793
0.0281768
0.0224252
0.0174451
0.0125761
0.00542276
0.0474872
0.0391637
0.0320937
0.0261481
0.0210863
0.0165887
0.0120616
0.00525989
0.0405915
0.0342849
0.0287011
0.023826
0.0195268
0.0155665
0.0114258
0.00505955
0.0431906
0.0364792
0.0305481
0.0253529
0.0207524
0.0165074
0.0120807
0.00532456
0.0498472
0.0410681
0.0337028
0.0275161
0.022224
0.0174924
0.0127108
0.00553758
0.0549699
0.0446892
0.0361577
0.0291523
0.023305
0.0181979
0.0131514
0.00569502
0.0565658
0.045776
0.036855
0.0295927
0.023586
0.0183806
0.0132695
0.00574551
0.0537148
0.0437164
0.0354224
0.0286239
0.0229489
0.0179759
0.0130306
0.005672
0.0478896
0.0395066
0.0325166
0.0266662
0.0216563
0.0171447
0.0125282
0.00551075
0.0410269
0.0347393
0.0292283
0.0244135
0.0201317
0.0161344
0.0118933
0.00530661
0.0427703
0.036312
0.0306007
0.0255602
0.0210425
0.0168147
0.0123477
0.0054849
0.0491415
0.0407081
0.0336496
0.0276827
0.0225124
0.0178154
0.0129957
0.00570796
0.0542122
0.0442323
0.0360403
0.0292984
0.023602
0.0185414
0.0134556
0.00587448
0.0558713
0.0453385
0.0367558
0.029766
0.0239151
0.0187539
0.0135966
0.00593436
0.0531005
0.0433778
0.0354153
0.0288688
0.0233287
0.0183841
0.0133807
0.00586975
0.0473824
0.0393529
0.0326623
0.0270105
0.0220922
0.0175827
0.0128943
0.00571375
0.0408858
0.0348512
0.0295415
0.0248488
0.0206095
0.0165877
0.0122634
0.00550866
0.0418786
0.0358735
0.0304677
0.0256094
0.0211836
0.0169841
0.0124988
0.00558313
0.0476691
0.039946
0.0333625
0.0276733
0.0226423
0.0179934
0.0131589
0.00581142
0.0522504
0.0431656
0.0356044