/*--------------------------------*- C++ -*----------------------------------*\
| =========                 |                                                 |
| \\      /  F ield         | OpenFOAM: The Open Source CFD Toolbox           |
|  \\    /   O peration     | Version:  plus.master.MPPICInterFoam            |
|   \\  /    A nd           | Web:      www.OpenFOAM.com                      |
|    \\/     M anipulation  |                                                 |
\*---------------------------------------------------------------------------*/
FoamFile
{
    version     2.0;
    format      ascii;
    class       volScalarField;
    location    "5.2";
    object      p_rgh;
}
// * * * * * * * * * * * * * * * * * * * * * * * * * * * * * * * * * * * * * //

dimensions      [1 -1 -2 0 0 0 0];

internalField   nonuniform List<scalar> 
11821
(
5657.92
5608.2
5657.02
5657.85
5656.94
5655.93
5653.76
5587.11
5372.62
5274.58
5421.75
5627.61
5654.39
5644.35
5071.05
4154.6
4138.23
4480.89
5276.47
5654.31
5563.96
4364.58
4621.05
4073.72
3671.17
4931.52
5639.28
5528.46
4383.02
4533.16
3728
3500.84
4912.88
5611.53
5632.08
5029.75
4076.54
4263.28
4387.13
5101.36
5653.29
5652.45
5567.93
5355.14
5227.28
5344.98
5586.84
5654.05
5653.34
5653.1
5652.97
5653.3
5653.84
5653.93
5653.92
5653.74
5540.88
5244.03
5127.63
5327.27
5602.13
5654.07
5613.46
4916.89
3843.26
3885.02
4332.9
5196.18
5649.35
5473.66
4244.97
3700.87
4038.24
3498.61
4786.52
5601.12
5442.92
4109.02
3849.03
3557.42
3445.92
4746.92
5577.7
5581.04
4839.84
3776.9
3895.49
4074.78
5026.88
5635.75
5648.03
5505.47
5192.47
5068.59
5243.49
5537.65
5653.47
5653.59
5653.28
5644.24
5630.41
5645.65
5653.46
5653.69
5654.01
5488.83
5130.68
4942.21
5182.47
5561.29
5655.5
5560.69
4819.48
3858.21
3903.03
4346.78
5079.41
5632.88
5343.47
4281.81
3381.03
3908.64
3468.26
4700.08
5530.46
5323.88
4233.5
3315
3197.45
3371.51
4646.43
5517.93
5484.73
4800.22
3805.94
3738.94
4050.23
4952.76
5597.75
5636.45
5368.84
5038.32
4924.5
5105.45
5430.02
5654.38
5655.71
5655.15
5610.52
5558.59
5616.76
5655.33
5655.35
5649.02
5393.61
4912.82
4604.87
4899.64
5472.15
5654.91
5474.35
4539.13
3767.81
3800.3
4236.79
4719.51
5587.14
5133.89
4146.01
3428.44
3191.94
3406.32
4460.86
5399.98
5072.66
4301.75
3451.12
3118.48
3183.4
4435.23
5395.49
5283.75
4589.6
3895.86
3680.41
3992.54
4637.43
5509.99
5598.13
5006.18
4625.84
4538.83
4680.36
5153.77
5645.74
5655.18
5648.7
5529.42
5426.69
5544.51
5651.88
5655.06
5646.12
5298.99
4651.07
4306.74
4655.55
5372.49
5657.61
5400.45
4019.53
3347
3272.2
3627.29
4167.55
5532.98
4946.06
3605.39
3136.09
3053.99
3136.92
3768.4
5255.05
4741.51
3918.12
3345.66
3052.72
3052.97
3751.72
5231.9
5040.9
3813.1
3464.97
3240.17
3434.28
3906.46
5398.37
5543.32
4550.07
3892.63
3773.81
3956.97
4799.42
5630.07
5658.26
5638.55
5438.68
5322.77
5465.24
5646.57
5658.63
5657.91
5338.47
4710.82
4399.68
4723.21
5395.55
5667.05
5428.64
3961.05
3110.38
3009.42
3116.72
4097.71
5548.23
4965.26
3304.58
3006.06
3004.98
3004
3401.78
5259.66
4660.71
3102
3001.19
3003.39
3002.98
3311.15
5216.92
5012.97
3262.15
3016.7
3004.57
3005.75
3656.77
5402.25
5546.7
4496.57
3687.84
3552.29
3778.8
4767.46
5635.74
5669.68
5649.99
5449.32
5345.62
5477.03
5653.28
5669.89
5677.35
5526.28
5168.82
5012.95
5170.94
5540.61
5681.4
5561.24
4434.3
3532.21
3372.52
3422.62
4523.86
5623.12
5226.87
3625.85
3016.46
2966.13
2965.27
3803.09
5442.18
4883.28
2988.15
2962.86
2966.22
2965.17
3674.65
5399.91
5215.81
3448.16
2968.24
3002.33
3091.04
4046.31
5524.52
5605.71
4779.01
4040.1
3980.37
4163.64
5024.6
5662.74
5683.7
5676.47
5554.03
5494.59
5569.61
5672.3
5683.44
5690.57
5672.13
5589.89
5553.52
5596.58
5670.78
5690.27
5673.8
5148.41
4468.52
4495.32
4359
5210.3
5682.99
5533.96
4397.62
3520.29
3538.35
3953.58
4767.26
5627.58
5337.79
3391.2
2915.07
2914.92
3607.82
4683.6
5596.92
5521.12
4128.43
3434.74
3558.25
3763.26
4826.78
5644.8
5675.28
5197.93
4665.9
4688.95
4817.86
5384.41
5686.07
5691.46
5691.95
5631.99
5595.1
5638.02
5684.44
5690.97
5692.35
5692.67
5671.34
5644.21
5687.57
5692.03
5691.76
5692.67
5349.77
4713.72
4873.88
4699.72
5377.51
5689.23
5623.15
4662.6
3656.01
3952.7
4705.83
4988.16
5659.56
5538.19
4084.94
3563.22
2841.71
4627.84
4969.04
5611.59
5628.15
4466.94
3984.06
3583.47
3805.81
5029.73
5652.13
5692.52
5296.35
4690.93
4705.11
4959.82
5442.93
5687.25
5692.38
5692.93
5632.31
5581.16
5627.98
5683.61
5691.9
5691.59
5691.37
5666.27
5635
5676.82
5689.9
5691.36
5691.32
5326.07
4595.59
4729.68
4564.51
5333.74
5683.76
5624.95
4542.73
3307.49
3554.19
4167.64
4798.95
5644.37
5548.37
4267.69
4247.79
3892.15
4290.39
4771.83
5562.48
5629.03
4382.48
3736.77
3241.66
3428.05
4945.96
5620.97
5691.29
5262.77
4494.44
4446.14
4855.04
5358.1
5680.03
5691.56
5691.29
5612.57
5513.25
5577.4
5678.38
5691.36
5692.22
5690.21
5640.45
5598.5
5633.41
5678.35
5691.77
5691.96
5268.38
4406
4371.81
4345.76
5246.27
5660.53
5619.38
4343.03
2946.91
2859.93
3059.44
4391.65
5577.81
5539.97
4202.28
4139.95
4099.94
2923.04
4284.75
5391.6
5623.11
4274.86
3057.43
3125.96
3372.53
4741.48
5510.33
5692.02
5193.82
4258.02
4068.35
4586.27
5090.68
5661.01
5692.27
5690.57
5566.53
5368.95
5486.26
5672.76
5692.02
5694.71
5685.14
5594.19
5520.98
5557.46
5655.03
5694.46
5693.97
5199.11
4301.13
4003
4191.57
5144.67
5615.2
5623.62
4237.64
2808.42
2800.9
2800.44
3966.54
5436.7
5539.6
4094.61
2797.7
4034.94
2802.61
3647.03
5138.65
5624.88
4205.43
2786.43
3606.98
3621.38
4312.15
5333.45
5694.4
5117.87
4098.79
3755
4106.29
4738.36
5640.27
5694.55
5690.5
5525.99
5247.91
5425.4
5671.74
5694.54
5697.74
5677.92
5533.31
5384.96
5462.76
5635.19
5697.73
5696.22
5116.94
4187.09
3687.26
4030.4
4967.64
5582.03
5638.11
4121.25
2737.21
2737.74
2737.54
3739.45
5266.65
5531.64
3821.34
2724.36
4000.18
2738.7
3183.44
4950.91
5624.73
4042.13
2736.28
3499.92
3414.12
3611.04
5189.32
5697.01
5016.93
3847.36
3350.29
3510.27
4518.68
5630.38
5697.43
5691.29
5502.17
5191.22
5397.1
5672.33
5697.66
5702.37
5680.01
5508.14
5304.16
5432.67
5637.23
5702.6
5701.06
5085.89
4093.41
3506.19
3964.59
4805.66
5586.32
5658.01
4012.62
2676.98
2675.01
2678.06
3747.02
5228.28
5525.69
3492.82
2680.87
3486.91
2680.7
3143.88
4932.03
5629.82
3800.19
2679.18
2711.81
2698.16
3237.1
5174
5702.03
4973.8
3581.5
3021.4
3301.71
4498.19
5638.54
5702.32
5696.35
5506.03
5198.91
5408.81
5679.96
5702.68
5709.24
5690.15
5528.98
5336.28
5462.13
5657.47
5709.7
5709.08
5156.06
4237.13
3636.06
4212.57
4828.42
5622.81
5689.96
4168.71
2623.14
2620.36
2681.73
4194.05
5294.37
5566.39
3544.21
2621.23
2613.1
2627.79
3526.72
5055.22
5659.63
3856.71
2626.67
2625.28
2636.24
3339.74
5271.72
5709.87
5064.49
3652.02
3083.55
3469.27
4703.06
5671.99
5709.23
5706.46
5572.26
5336.51
5516.92
5699.53
5709.82
5714.5
5704.03
5589.65
5463.97
5548.8
5703.04
5715.04
5715.32
5367.66
4759.4
4305.15
4865.85
5012.34
5694.29
5714.85
4799.61
3180.83
2562.21
3799.91
4919.38
5477.42
5664.13
4180.59
2564.5
2550.43
3205.25
4520.81
5355.83
5707.06
4435.73
2721.21
2593.74
2630.78
3984.4
5509.99
5715.65
5364.82
4300.65
3820.21
4311.47
5223.65
5710.23
5714.49
5715.18
5686.59
5602.01
5679.15
5715.07
5714.86
5652.61
5652.54
5654.74
5653.8
5653.13
5652.69
5652.44
5652.36
5657.26
5655.81
5654.61
5653.68
5653
5652.54
5652.29
5652.2
5656.57
5655.32
5654.24
5653.4
5652.78
5652.36
5652.12
5652.03
5655.79
5654.69
5653.78
5653.07
5652.55
5652.2
5651.99
5651.91
5654.91
5654.07
5653.35
5652.79
5652.35
5652.06
5651.89
5651.82
5654.35
5654.23
5654.11
5654
5653.9
5653.84
5653.82
5653.83
5654.47
5654.35
5654.19
5654.02
5653.87
5653.78
5653.76
5653.78
5654.53
5654.39
5654.17
5653.96
5653.8
5653.69
5653.64
5653.65
5654.44
5654.3
5654.09
5653.87
5653.7
5653.58
5653.52
5653.54
5654.24
5654.12
5653.92
5653.73
5653.58
5653.47
5653.42
5653.42
5654.08
5653.93
5653.76
5653.59
5653.46
5653.37
5653.32
5653.32
5653.88
5653.72
5653.57
5653.45
5653.35
5653.28
5653.24
5653.25
5654.28
5654.44
5654.59
5654.71
5654.81
5654.9
5654.98
5655.05
5654.23
5654.46
5654.61
5654.7
5654.77
5654.84
5654.91
5654.98
5654.08
5654.36
5654.52
5654.62
5654.69
5654.75
5654.83
5654.91
5653.98
5654.27
5654.43
5654.53
5654.61
5654.67
5654.75
5654.84
5653.9
5654.19
5654.37
5654.47
5654.55
5654.62
5654.69
5654.77
5653.91
5654.16
5654.33
5654.43
5654.51
5654.58
5654.64
5654.7
5653.95
5654.08
5654.22
5654.35
5654.45
5654.52
5654.59
5654.64
5655.67
5655.85
5656.05
5656.25
5656.44
5656.6
5656.74
5656.86
5655.69
5655.88
5656.07
5656.24
5656.39
5656.54
5656.68
5656.81
5655.67
5655.83
5655.99
5656.15
5656.31
5656.46
5656.61
5656.77
5655.69
5655.8
5655.93
5656.09
5656.25
5656.4
5656.56
5656.72
5655.59
5655.74
5655.9
5656.07
5656.23
5656.38
5656.53
5656.68
5655.5
5655.71
5655.91
5656.08
5656.24
5656.39
5656.52
5656.65
5655.5
5655.65
5655.84
5656.04
5656.22
5656.37
5656.51
5656.62
5656.14
5656.96
5657.64
5658.21
5658.69
5659.07
5659.39
5659.62
5655.42
5656.53
5657.38
5658.04
5658.56
5658.98
5659.33
5659.59
5654.88
5656.14
5657.1
5657.84
5658.41
5658.87
5659.26
5659.56
5654.68
5656
5656.98
5657.74
5658.34
5658.83
5659.23
5659.54
5654.78
5656.09
5657.06
5657.8
5658.38
5658.84
5659.22
5659.52
5655.39
5656.49
5657.34
5657.99
5658.5
5658.92
5659.26
5659.52
5656.15
5656.91
5657.57
5658.13
5658.6
5658.98
5659.28
5659.51
5659.88
5661
5661.9
5662.63
5663.25
5663.78
5664.23
5664.56
5658.81
5660.27
5661.43
5662.33
5663.06
5663.65
5664.16
5664.54
5658.19
5659.74
5661.03
5662.05
5662.87
5663.53
5664.1
5664.53
5658.02
5659.59
5660.9
5661.96
5662.8
5663.49
5664.07
5664.51
5658.24
5659.79
5661.06
5662.06
5662.86
5663.53
5664.08
5664.5
5658.95
5660.35
5661.46
5662.34
5663.05
5663.64
5664.14
5664.51
5659.94
5661.01
5661.89
5662.63
5663.24
5663.75
5664.19
5664.51
5670.37
5670.62
5670.82
5671
5671.21
5671.48
5671.8
5672.09
5670.25
5670.3
5670.51
5670.76
5671.04
5671.36
5671.73
5672.06
5670.24
5670.14
5670.35
5670.63
5670.93
5671.28
5671.69
5672.06
5670.15
5670.05
5670.27
5670.56
5670.88
5671.24
5671.66
5672.04
5669.98
5670.01
5670.27
5670.57
5670.89
5671.24
5671.64
5672.01
5669.81
5670.05
5670.35
5670.64
5670.95
5671.28
5671.65
5671.98
5669.93
5670.29
5670.58
5670.83
5671.08
5671.36
5671.69
5671.97
5682.94
5681.94
5681.1
5680.47
5680.07
5679.89
5679.92
5680.06
5684.03
5682.3
5681.16
5680.42
5679.99
5679.82
5679.87
5680.03
5685.04
5682.83
5681.46
5680.58
5680.07
5679.84
5679.88
5680.05
5685.16
5682.91
5681.51
5680.6
5680.06
5679.83
5679.86
5680.04
5684.35
5682.45
5681.23
5680.43
5679.96
5679.76
5679.81
5679.99
5683.06
5681.72
5680.8
5680.18
5679.82
5679.68
5679.75
5679.92
5682.08
5681.31
5680.66
5680.15
5679.82
5679.69
5679.75
5679.9
5689.89
5688.74
5687.73
5686.93
5686.35
5686.01
5685.9
5685.92
5690.93
5689.18
5687.88
5686.96
5686.34
5685.99
5685.88
5685.92
5692
5689.88
5688.32
5687.23
5686.5
5686.07
5685.92
5685.96
5692.31
5690.09
5688.47
5687.32
5686.54
5686.09
5685.93
5685.96
5691.59
5689.64
5688.18
5687.14
5686.43
5686.02
5685.88
5685.92
5690.45
5688.9
5687.71
5686.84
5686.26
5685.92
5685.82
5685.87
5689.5
5688.44
5687.51
5686.75
5686.21
5685.91
5685.82
5685.86
5691.45
5690.91
5690.39
5689.95
5689.62
5689.42
5689.33
5689.33
5691.68
5691.01
5690.43
5689.97
5689.63
5689.42
5689.34
5689.34
5692
5691.28
5690.64
5690.12
5689.73
5689.48
5689.37
5689.38
5692.14
5691.4
5690.75
5690.19
5689.77
5689.49
5689.38
5689.39
5691.93
5691.25
5690.62
5690.1
5689.71
5689.46
5689.36
5689.37
5691.63
5691
5690.42
5689.95
5689.61
5689.4
5689.32
5689.34
5691.38
5690.85
5690.33
5689.89
5689.57
5689.39
5689.32
5689.34
5691.67
5691.62
5691.55
5691.49
5691.45
5691.43
5691.44
5691.46
5691.54
5691.6
5691.58
5691.54
5691.49
5691.46
5691.46
5691.48
5691.48
5691.61
5691.62
5691.57
5691.51
5691.48
5691.47
5691.51
5691.46
5691.61
5691.62
5691.57
5691.52
5691.48
5691.48
5691.51
5691.47
5691.61
5691.61
5691.55
5691.5
5691.47
5691.47
5691.5
5691.5
5691.58
5691.56
5691.51
5691.46
5691.44
5691.45
5691.49
5691.58
5691.55
5691.49
5691.44
5691.42
5691.41
5691.44
5691.48
5692.36
5692.64
5692.86
5693.04
5693.19
5693.3
5693.38
5693.43
5692.13
5692.62
5692.92
5693.12
5693.25
5693.34
5693.41
5693.47
5691.97
5692.55
5692.9
5693.11
5693.25
5693.35
5693.43
5693.49
5691.81
5692.49
5692.85
5693.09
5693.24
5693.34
5693.43
5693.5
5692.07
5692.62
5692.93
5693.13
5693.26
5693.35
5693.43
5693.51
5692.27
5692.71
5692.97
5693.14
5693.26
5693.35
5693.43
5693.5
5692.49
5692.72
5692.91
5693.07
5693.21
5693.33
5693.42
5693.49
5694.8
5695.05
5695.28
5695.48
5695.65
5695.79
5695.89
5695.96
5694.77
5695.12
5695.37
5695.56
5695.71
5695.83
5695.93
5696.01
5694.79
5695.12
5695.37
5695.56
5695.71
5695.83
5695.94
5696.03
5694.58
5695.01
5695.31
5695.54
5695.7
5695.83
5695.95
5696.05
5694.64
5695.06
5695.34
5695.55
5695.71
5695.85
5695.96
5696.07
5694.76
5695.13
5695.38
5695.58
5695.74
5695.87
5695.98
5696.08
5694.89
5695.12
5695.33
5695.53
5695.71
5695.86
5695.98
5696.07
5698.15
5698.43
5698.66
5698.84
5699
5699.13
5699.24
5699.32
5697.98
5698.36
5698.63
5698.84
5699
5699.13
5699.25
5699.34
5697.87
5698.24
5698.53
5698.77
5698.95
5699.11
5699.25
5699.36
5697.61
5698.07
5698.43
5698.7
5698.92
5699.09
5699.25
5699.37
5697.63
5698.1
5698.46
5698.73
5698.94
5699.11
5699.27
5699.39
5697.84
5698.24
5698.56
5698.8
5698.99
5699.16
5699.3
5699.41
5698.05
5698.35
5698.6
5698.82
5699.01
5699.17
5699.31
5699.41
5702.89
5703.07
5703.17
5703.22
5703.27
5703.32
5703.38
5703.44
5702.71
5702.91
5703.05
5703.14
5703.22
5703.29
5703.37
5703.45
5702.66
5702.81
5702.96
5703.08
5703.18
5703.26
5703.37
5703.46
5702.53
5702.71
5702.89
5703.03
5703.14
5703.25
5703.36
5703.46
5702.64
5702.76
5702.92
5703.05
5703.16
5703.26
5703.37
5703.48
5702.67
5702.83
5702.98
5703.1
5703.2
5703.29
5703.39
5703.49
5702.8
5702.98
5703.1
5703.18
5703.25
5703.32
5703.41
5703.48
5709.14
5708.76
5708.43
5708.15
5707.93
5707.79
5707.72
5707.7
5709.54
5708.9
5708.45
5708.14
5707.92
5707.77
5707.71
5707.71
5710.1
5709.19
5708.62
5708.24
5707.97
5707.81
5707.74
5707.74
5710.33
5709.29
5708.68
5708.27
5707.99
5707.82
5707.74
5707.75
5710.08
5709.15
5708.59
5708.21
5707.95
5707.79
5707.72
5707.73
5709.49
5708.84
5708.4
5708.09
5707.88
5707.75
5707.7
5707.7
5709.09
5708.73
5708.4
5708.11
5707.89
5707.75
5707.69
5707.69
5713.92
5713.15
5712.5
5711.97
5711.55
5711.25
5711.04
5710.92
5714.67
5713.56
5712.74
5712.12
5711.66
5711.32
5711.1
5710.96
5715.47
5714.11
5713.09
5712.35
5711.81
5711.43
5711.18
5711.03
5715.67
5714.29
5713.21
5712.41
5711.83
5711.42
5711.15
5711.01
5715.38
5714.05
5713.04
5712.3
5711.76
5711.38
5711.13
5710.99
5714.54
5713.44
5712.62
5712.01
5711.56
5711.25
5711.05
5710.93
5713.77
5713.03
5712.39
5711.86
5711.45
5711.16
5710.98
5710.88
5653.55
5653.55
5653.47
5653.38
5653.31
5653.27
5653.25
5653.25
5653.51
5653.63
5653.6
5653.51
5653.41
5653.34
5653.31
5653.32
5653.44
5653.67
5653.69
5653.62
5653.51
5653.43
5653.4
5653.42
5653.41
5653.73
5653.79
5653.72
5653.63
5653.56
5653.53
5653.56
5653.61
5653.87
5653.9
5653.83
5653.73
5653.65
5653.63
5653.66
5653.86
5654.04
5654.03
5653.94
5653.85
5653.78
5653.75
5653.77
5654.03
5654.07
5654.02
5653.95
5653.89
5653.86
5653.85
5653.86
5653.93
5654.12
5654.25
5654.36
5654.47
5654.56
5654.62
5654.69
5653.86
5654.18
5654.38
5654.5
5654.58
5654.65
5654.71
5654.78
5653.85
5654.23
5654.45
5654.57
5654.65
5654.72
5654.79
5654.87
5654.01
5654.34
5654.55
5654.66
5654.73
5654.8
5654.87
5654.97
5654.31
5654.56
5654.7
5654.79
5654.85
5654.91
5654.97
5655.06
5654.5
5654.71
5654.83
5654.9
5654.95
5655.01
5655.07
5655.14
5654.52
5654.65
5654.76
5654.87
5654.97
5655.06
5655.13
5655.19
5655.79
5655.87
5655.99
5656.16
5656.33
5656.48
5656.6
5656.72
5655.92
5656.06
5656.19
5656.3
5656.43
5656.55
5656.67
5656.79
5656.19
5656.24
5656.29
5656.37
5656.48
5656.59
5656.72
5656.86
5656.47
5656.39
5656.39
5656.44
5656.53
5656.64
5656.77
5656.91
5656.41
5656.4
5656.43
5656.5
5656.59
5656.7
5656.82
5656.96
5656.25
5656.34
5656.43
5656.55
5656.66
5656.77
5656.88
5657
5656.11
5656.2
5656.32
5656.48
5656.64
5656.79
5656.91
5657.02
5656.25
5656.97
5657.61
5658.17
5658.63
5659.01
5659.31
5659.53
5655.6
5656.66
5657.47
5658.1
5658.6
5658.99
5659.32
5659.57
5655.1
5656.36
5657.25
5657.94
5658.49
5658.93
5659.29
5659.58
5654.93
5656.24
5657.16
5657.87
5658.44
5658.9
5659.28
5659.58
5654.97
5656.27
5657.2
5657.92
5658.47
5658.92
5659.29
5659.59
5655.42
5656.58
5657.44
5658.1
5658.61
5659.02
5659.35
5659.61
5656.21
5657.03
5657.69
5658.24
5658.71
5659.09
5659.39
5659.62
5659.68
5660.82
5661.76
5662.51
5663.13
5663.65
5664.09
5664.41
5658.6
5660.11
5661.29
5662.22
5662.95
5663.54
5664.04
5664.41
5657.83
5659.48
5660.81
5661.88
5662.71
5663.39
5663.96
5664.38
5657.51
5659.22
5660.61
5661.72
5662.6
5663.32
5663.91
5664.35
5657.76
5659.38
5660.73
5661.81
5662.65
5663.34
5663.92
5664.35
5658.37
5659.94
5661.16
5662.1
5662.85
5663.46
5663.99
5664.37
5659.48
5660.69
5661.65
5662.42
5663.06
5663.61
5664.06
5664.39
5669.7
5670.14
5670.44
5670.69
5670.94
5671.24
5671.57
5671.85
5669.44
5669.8
5670.15
5670.47
5670.79
5671.13
5671.51
5671.84
5669.55
5669.61
5669.95
5670.31
5670.66
5671.04
5671.46
5671.83
5669.82
5669.64
5669.93
5670.29
5670.64
5671.03
5671.46
5671.85
5670.08
5669.89
5670.11
5670.4
5670.72
5671.08
5671.5
5671.88
5670.06
5670.11
5670.32
5670.56
5670.85
5671.18
5671.56
5671.9
5670.02
5670.31
5670.56
5670.78
5671.02
5671.3
5671.64
5671.93
5682.13
5681.37
5680.67
5680.12
5679.77
5679.64
5679.7
5679.85
5683.06
5681.71
5680.76
5680.12
5679.74
5679.6
5679.67
5679.84
5684.38
5682.37
5681.13
5680.33
5679.85
5679.66
5679.71
5679.89
5685.32
5682.89
5681.45
5680.54
5679.99
5679.75
5679.79
5679.97
5685.31
5682.95
5681.51
5680.58
5680.04
5679.8
5679.83
5680.01
5684.24
5682.43
5681.22
5680.42
5679.98
5679.79
5679.85
5680.01
5682.84
5681.8
5680.99
5680.39
5680
5679.83
5679.88
5680.01
5689.82
5688.68
5687.66
5686.85
5686.28
5685.95
5685.85
5685.89
5690.85
5689.16
5687.86
5686.93
5686.3
5685.95
5685.84
5685.88
5692.14
5689.96
5688.38
5687.25
5686.49
5686.05
5685.9
5685.94
5693.12
5690.52
5688.75
5687.49
5686.65
5686.16
5685.98
5686.02
5692.66
5690.31
5688.63
5687.43
5686.64
5686.17
5686.01
5686.04
5691.48
5689.57
5688.15
5687.15
5686.49
5686.11
5685.98
5686.01
5690.2
5688.95
5687.9
5687.06
5686.45
5686.1
5685.98
5686
5691.68
5691.06
5690.49
5690.03
5689.69
5689.49
5689.41
5689.43
5692.02
5691.27
5690.61
5690.08
5689.7
5689.48
5689.4
5689.42
5692.37
5691.58
5690.84
5690.24
5689.8
5689.53
5689.43
5689.45
5692.59
5691.78
5690.98
5690.35
5689.88
5689.58
5689.46
5689.48
5692.45
5691.64
5690.88
5690.29
5689.85
5689.58
5689.47
5689.47
5692.11
5691.34
5690.67
5690.15
5689.77
5689.54
5689.44
5689.44
5691.77
5691.17
5690.6
5690.12
5689.75
5689.52
5689.42
5689.42
5691.65
5691.61
5691.56
5691.52
5691.5
5691.5
5691.53
5691.57
5691.66
5691.69
5691.65
5691.59
5691.54
5691.51
5691.53
5691.58
5691.58
5691.71
5691.69
5691.62
5691.55
5691.52
5691.53
5691.59
5691.48
5691.68
5691.69
5691.63
5691.57
5691.53
5691.54
5691.59
5691.58
5691.7
5691.68
5691.62
5691.56
5691.52
5691.53
5691.57
5691.66
5691.71
5691.67
5691.6
5691.54
5691.51
5691.51
5691.54
5691.7
5691.66
5691.6
5691.54
5691.49
5691.48
5691.48
5691.5
5692.52
5692.72
5692.91
5693.08
5693.23
5693.35
5693.44
5693.52
5692.57
5692.85
5693.05
5693.2
5693.3
5693.38
5693.47
5693.54
5692.62
5692.92
5693.1
5693.22
5693.31
5693.39
5693.48
5693.56
5692.57
5692.89
5693.09
5693.22
5693.31
5693.39
5693.48
5693.56
5692.62
5692.91
5693.1
5693.22
5693.31
5693.39
5693.47
5693.54
5692.54
5692.86
5693.06
5693.2
5693.3
5693.38
5693.45
5693.51
5692.53
5692.71
5692.9
5693.07
5693.22
5693.33
5693.41
5693.46
5694.7
5694.9
5695.14
5695.36
5695.55
5695.71
5695.84
5695.94
5694.75
5695.03
5695.26
5695.44
5695.59
5695.73
5695.85
5695.95
5694.89
5695.1
5695.29
5695.46
5695.6
5695.73
5695.85
5695.96
5694.91
5695.13
5695.31
5695.47
5695.61
5695.73
5695.86
5695.97
5695.04
5695.2
5695.36
5695.5
5695.63
5695.76
5695.87
5695.97
5694.91
5695.14
5695.34
5695.51
5695.64
5695.77
5695.87
5695.96
5694.86
5695.03
5695.23
5695.43
5695.61
5695.75
5695.86
5695.93
5697.77
5698.05
5698.32
5698.55
5698.74
5698.91
5699.06
5699.17
5697.53
5697.94
5698.26
5698.5
5698.7
5698.87
5699.02
5699.15
5697.43
5697.84
5698.17
5698.43
5698.64
5698.82
5698.99
5699.13
5697.38
5697.81
5698.16
5698.42
5698.63
5698.81
5698.98
5699.12
5697.69
5698
5698.27
5698.5
5698.69
5698.85
5699.01
5699.14
5697.8
5698.12
5698.38
5698.59
5698.76
5698.91
5699.05
5699.15
5697.99
5698.23
5698.46
5698.65
5698.82
5698.96
5699.08
5699.16
5702.54
5702.7
5702.79
5702.86
5702.93
5703.02
5703.13
5703.22
5702.22
5702.43
5702.6
5702.72
5702.83
5702.94
5703.06
5703.17
5702.06
5702.28
5702.46
5702.62
5702.75
5702.88
5703.01
5703.13
5701.94
5702.2
5702.41
5702.59
5702.72
5702.85
5702.99
5703.11
5702.14
5702.34
5702.53
5702.66
5702.78
5702.89
5703.01
5703.12
5702.28
5702.49
5702.65
5702.76
5702.86
5702.95
5703.05
5703.14
5702.54
5702.72
5702.84
5702.92
5702.98
5703.04
5703.11
5703.18
5708.67
5708.33
5707.99
5707.7
5707.5
5707.39
5707.37
5707.39
5708.79
5708.26
5707.86
5707.59
5707.42
5707.33
5707.32
5707.35
5709.13
5708.4
5707.94
5707.63
5707.43
5707.32
5707.3
5707.33
5709.28
5708.49
5707.99
5707.67
5707.45
5707.33
5707.29
5707.32
5709.16
5708.45
5707.99
5707.68
5707.46
5707.34
5707.3
5707.31
5708.83
5708.3
5707.92
5707.65
5707.47
5707.35
5707.31
5707.32
5708.63
5708.33
5708.04
5707.78
5707.57
5707.43
5707.38
5707.37
5713.34
5712.59
5711.95
5711.42
5711.02
5710.75
5710.59
5710.53
5713.97
5712.84
5712.02
5711.43
5711.01
5710.73
5710.56
5710.5
5714.73
5713.33
5712.34
5711.65
5711.15
5710.82
5710.62
5710.54
5715.06
5713.55
5712.49
5711.73
5711.19
5710.83
5710.61
5710.52
5714.68
5713.35
5712.38
5711.69
5711.2
5710.85
5710.63
5710.54
5714
5712.91
5712.11
5711.53
5711.11
5710.81
5710.62
5710.52
5713.38
5712.65
5712.04
5711.53
5711.13
5710.84
5710.65
5710.53
5654.09
5654.15
5654.12
5654.04
5653.97
5653.92
5653.9
5653.92
5654.03
5654.27
5654.27
5654.17
5654.06
5653.97
5653.93
5653.94
5653.88
5654.26
5654.31
5654.22
5654.1
5653.99
5653.94
5653.96
5654.26
5654.48
5654.44
5654.29
5654.14
5654.02
5653.96
5653.98
5654.56
5654.61
5654.49
5654.31
5654.13
5654
5653.94
5653.95
5654.51
5654.53
5654.4
5654.24
5654.1
5653.99
5653.94
5653.95
5654.47
5654.38
5654.22
5654.08
5653.97
5653.9
5653.87
5653.87
5654.57
5654.72
5654.83
5654.93
5655.02
5655.1
5655.16
5655.23
5654.55
5654.82
5654.97
5655.04
5655.09
5655.13
5655.18
5655.24
5654.49
5654.79
5654.95
5655.03
5655.07
5655.11
5655.16
5655.23
5654.19
5654.78
5654.93
5655
5655.05
5655.08
5655.14
5655.22
5654.53
5654.79
5654.93
5655
5655.04
5655.07
5655.12
5655.2
5654.4
5654.7
5654.85
5654.94
5654.99
5655.04
5655.09
5655.16
5654.4
5654.55
5654.67
5654.79
5654.89
5654.97
5655.04
5655.1
5656.14
5656.23
5656.35
5656.5
5656.65
5656.8
5656.92
5657.03
5656.21
5656.35
5656.46
5656.58
5656.69
5656.8
5656.91
5657.03
5656.32
5656.4
5656.47
5656.55
5656.65
5656.76
5656.88
5657.01
5654.47
5656.29
5656.37
5656.48
5656.6
5656.71
5656.84
5656.98
5655.99
5656.22
5656.33
5656.45
5656.57
5656.7
5656.82
5656.96
5655.8
5656.06
5656.25
5656.42
5656.56
5656.69
5656.81
5656.93
5655.74
5655.89
5656.08
5656.28
5656.47
5656.63
5656.77
5656.89
5656.2
5657.01
5657.68
5658.24
5658.7
5659.09
5659.39
5659.62
5655.35
5656.56
5657.43
5658.09
5658.61
5659.02
5659.35
5659.61
5654.81
5656.18
5657.16
5657.9
5658.47
5658.92
5659.29
5659.59
5649.32
5656.05
5657.05
5657.81
5658.4
5658.88
5659.26
5659.56
5654.81
5656.19
5657.15
5657.88
5658.46
5658.91
5659.28
5659.57
5655.33
5656.52
5657.4
5658.08
5658.6
5659.01
5659.34
5659.6
5656.13
5656.92
5657.6
5658.18
5658.67
5659.06
5659.37
5659.6
5659.45
5660.65
5661.63
5662.42
5663.06
5663.61
5664.06
5664.39
5658.34
5659.94
5661.17
5662.13
5662.88
5663.49
5664
5664.38
5657.82
5659.43
5660.77
5661.84
5662.69
5663.37
5663.95
5664.37
5649.5
5659.3
5660.66
5661.75
5662.62
5663.34
5663.93
5664.37
5658.1
5659.58
5660.88
5661.91
5662.74
5663.42
5663.99
5664.41
5658.7
5660.17
5661.34
5662.26
5662.99
5663.59
5664.09
5664.46
5659.8
5660.89
5661.8
5662.56
5663.2
5663.73
5664.18
5664.51
5670.03
5670.29
5670.54
5670.78
5671.03
5671.31
5671.65
5671.93
5670.18
5670.21
5670.41
5670.64
5670.91
5671.23
5671.6
5671.93
5670.59
5670.27
5670.36
5670.58
5670.86
5671.19
5671.59
5671.95
5669.7
5670.28
5670.34
5670.56
5670.85
5671.19
5671.6
5671.96
5670.57
5670.28
5670.39
5670.62
5670.9
5671.23
5671.62
5671.98
5670.28
5670.32
5670.51
5670.74
5671.01
5671.32
5671.68
5672
5670.26
5670.51
5670.74
5670.95
5671.17
5671.44
5671.75
5672.03
5682.9
5681.82
5680.99
5680.39
5680.01
5679.84
5679.88
5680.01
5684.36
5682.5
5681.29
5680.49
5680.02
5679.82
5679.86
5680.01
5685.84
5683.35
5681.79
5680.78
5680.17
5679.9
5679.91
5680.06
5686.44
5683.67
5682
5680.91
5680.25
5679.94
5679.93
5680.08
5685.84
5683.31
5681.77
5680.78
5680.18
5679.9
5679.91
5680.06
5684.27
5682.48
5681.3
5680.51
5680.04
5679.84
5679.87
5680.01
5682.88
5681.89
5681.08
5680.46
5680.05
5679.87
5679.89
5680.02
5690.18
5688.93
5687.87
5687.04
5686.45
5686.09
5685.96
5685.98
5691.3
5689.45
5688.07
5687.1
5686.44
5686.07
5685.94
5685.96
5692.44
5690.26
5688.61
5687.42
5686.63
5686.16
5685.98
5685.99
5692.76
5690.53
5688.8
5687.55
5686.69
5686.19
5686
5686
5692.16
5690.11
5688.52
5687.37
5686.59
5686.12
5685.95
5685.96
5690.96
5689.29
5687.98
5687.03
5686.38
5686.01
5685.88
5685.89
5689.83
5688.7
5687.71
5686.92
5686.34
5686
5685.88
5685.89
5691.77
5691.18
5690.61
5690.12
5689.75
5689.52
5689.41
5689.4
5692.04
5691.29
5690.63
5690.11
5689.73
5689.5
5689.39
5689.38
5692.36
5691.54
5690.82
5690.24
5689.81
5689.53
5689.4
5689.38
5692.36
5691.55
5690.84
5690.26
5689.82
5689.53
5689.4
5689.38
5691.97
5691.32
5690.67
5690.15
5689.74
5689.47
5689.35
5689.34
5691.63
5691.02
5690.44
5689.98
5689.63
5689.41
5689.31
5689.3
5691.34
5690.83
5690.35
5689.92
5689.59
5689.39
5689.3
5689.3
5691.78
5691.74
5691.65
5691.57
5691.51
5691.48
5691.48
5691.5
5691.72
5691.74
5691.68
5691.6
5691.53
5691.49
5691.47
5691.49
5691.67
5691.74
5691.7
5691.62
5691.54
5691.49
5691.47
5691.48
5691.58
5691.68
5691.67
5691.6
5691.53
5691.47
5691.46
5691.48
5691.47
5691.6
5691.61
5691.56
5691.5
5691.45
5691.43
5691.45
5691.51
5691.59
5691.57
5691.52
5691.46
5691.42
5691.41
5691.43
5691.56
5691.55
5691.5
5691.44
5691.41
5691.39
5691.4
5691.42
5692.58
5692.78
5692.95
5693.1
5693.23
5693.33
5693.4
5693.46
5692.42
5692.77
5693.01
5693.16
5693.27
5693.35
5693.41
5693.46
5692.23
5692.7
5692.98
5693.15
5693.26
5693.34
5693.4
5693.46
5692.05
5692.6
5692.93
5693.11
5693.23
5693.32
5693.39
5693.45
5692.08
5692.61
5692.93
5693.11
5693.22
5693.31
5693.37
5693.43
5692.15
5692.62
5692.92
5693.09
5693.21
5693.3
5693.36
5693.41
5692.3
5692.57
5692.79
5692.98
5693.14
5693.26
5693.34
5693.39
5694.9
5695.08
5695.28
5695.46
5695.63
5695.76
5695.86
5695.94
5694.87
5695.13
5695.35
5695.53
5695.67
5695.79
5695.88
5695.95
5694.91
5695.15
5695.35
5695.52
5695.67
5695.78
5695.88
5695.96
5694.77
5695.09
5695.31
5695.5
5695.65
5695.77
5695.88
5695.96
5694.88
5695.16
5695.36
5695.53
5695.66
5695.78
5695.88
5695.96
5694.78
5695.09
5695.33
5695.52
5695.67
5695.79
5695.88
5695.95
5694.75
5694.96
5695.19
5695.42
5695.61
5695.76
5695.87
5695.94
5698.02
5698.28
5698.51
5698.7
5698.86
5698.99
5699.1
5699.19
5697.89
5698.21
5698.48
5698.69
5698.86
5699
5699.11
5699.2
5697.91
5698.19
5698.44
5698.67
5698.85
5698.99
5699.12
5699.22
5697.73
5698.12
5698.41
5698.65
5698.84
5699
5699.13
5699.23
5697.99
5698.27
5698.51
5698.72
5698.89
5699.03
5699.16
5699.26
5698
5698.32
5698.58
5698.78
5698.95
5699.08
5699.19
5699.28
5698.09
5698.35
5698.59
5698.8
5698.97
5699.11
5699.22
5699.3
5702.56
5702.77
5702.89
5702.96
5703.02
5703.08
5703.15
5703.21
5702.36
5702.59
5702.76
5702.89
5702.98
5703.06
5703.14
5703.21
5702.36
5702.56
5702.74
5702.87
5702.97
5703.06
5703.15
5703.23
5702.31
5702.55
5702.74
5702.89
5702.99
5703.08
5703.18
5703.26
5702.54
5702.71
5702.85
5702.97
5703.06
5703.14
5703.23
5703.31
5702.66
5702.85
5702.98
5703.07
5703.14
5703.21
5703.29
5703.35
5702.87
5703.05
5703.16
5703.22
5703.26
5703.3
5703.36
5703.41
5708.67
5708.37
5708.07
5707.81
5707.6
5707.47
5707.4
5707.39
5708.94
5708.42
5708.05
5707.78
5707.6
5707.47
5707.41
5707.41
5709.43
5708.71
5708.24
5707.91
5707.68
5707.53
5707.46
5707.45
5709.73
5708.9
5708.38
5708.02
5707.76
5707.59
5707.51
5707.5
5709.75
5708.93
5708.41
5708.05
5707.8
5707.64
5707.57
5707.56
5709.4
5708.8
5708.36
5708.04
5707.82
5707.68
5707.61
5707.6
5709.14
5708.8
5708.46
5708.16
5707.92
5707.76
5707.68
5707.66
5713.44
5712.71
5712.08
5711.58
5711.19
5710.9
5710.71
5710.59
5714.14
5713.06
5712.28
5711.7
5711.27
5710.97
5710.76
5710.64
5714.98
5713.66
5712.7
5711.99
5711.47
5711.1
5710.85
5710.7
5715.41
5713.97
5712.94
5712.18
5711.63
5711.23
5710.96
5710.8
5715.21
5713.86
5712.86
5712.14
5711.61
5711.24
5710.99
5710.84
5714.6
5713.47
5712.64
5712.01
5711.55
5711.22
5710.99
5710.86
5713.95
5713.2
5712.54
5711.99
5711.57
5711.26
5711.05
5710.93
5654.88
5654.02
5653.3
5652.73
5652.29
5651.99
5651.81
5651.73
5655.58
5654.46
5653.56
5652.87
5652.35
5651.99
5651.78
5651.69
5656.23
5654.89
5653.83
5653.02
5652.41
5651.99
5651.74
5651.64
5656.51
5655.08
5653.93
5653.09
5652.46
5652.02
5651.76
5651.66
5653.81
5652.98
5652.39
5651.99
5651.75
5651.65
5651.82
5651.71
5653.84
5653.68
5653.52
5653.39
5653.29
5653.22
5653.18
5653.18
5653.89
5653.74
5653.57
5653.42
5653.28
5653.19
5653.14
5653.13
5653.91
5653.78
5653.61
5653.43
5653.28
5653.17
5653.11
5653.1
5653.74
5653.69
5653.55
5653.39
5653.25
5653.15
5653.09
5653.09
5653.51
5653.57
5653.47
5653.34
5653.23
5653.14
5653.09
5653.09
5653.46
5653.5
5653.44
5653.34
5653.24
5653.17
5653.11
5653.11
5653.47
5653.4
5653.35
5653.29
5653.23
5653.18
5653.16
5653.16
5653.94
5654.07
5654.19
5654.31
5654.4
5654.48
5654.54
5654.6
5653.85
5654.08
5654.23
5654.33
5654.4
5654.47
5654.52
5654.57
5653.79
5654.05
5654.21
5654.31
5654.37
5654.43
5654.49
5654.55
5653.65
5653.98
5654.17
5654.28
5654.36
5654.42
5654.48
5654.55
5653.62
5653.96
5654.17
5654.29
5654.37
5654.43
5654.49
5654.55
5653.73
5654.02
5654.2
5654.32
5654.41
5654.47
5654.52
5654.58
5653.83
5653.99
5654.16
5654.31
5654.42
5654.5
5654.57
5654.62
5655.51
5655.65
5655.83
5656.02
5656.2
5656.35
5656.48
5656.59
5655.54
5655.71
5655.89
5656.05
5656.2
5656.34
5656.47
5656.58
5655.66
5655.76
5655.89
5656.03
5656.17
5656.3
5656.43
5656.56
5655.77
5655.81