/*--------------------------------*- C++ -*----------------------------------*\
| =========                 |                                                 |
| \\      /  F ield         | OpenFOAM: The Open Source CFD Toolbox           |
|  \\    /   O peration     | Version:  plus.master.MPPICInterFoam            |
|   \\  /    A nd           | Web:      www.OpenFOAM.com                      |
|    \\/     M anipulation  |                                                 |
\*---------------------------------------------------------------------------*/
FoamFile
{
    version     2.0;
    format      ascii;
    class       labelField;
    location    "9.2/lagrangian/kinematicCloud";
    object      origId;
}
// * * * * * * * * * * * * * * * * * * * * * * * * * * * * * * * * * * * * * //


344
(
20801
28788
2661
9506
3710
2134
6435
38050
39426
51254
63319
9198
88415
9692
59340
2673
17460
28107
28677
19954
24545
32426
11053
10306
16811
12636
1908
16771
4212
17182
21286
38658
17726
2204
3707
19092
14629
4383
14061
2738
4644
14252
12331
2447
12788
859
38042
13717
89139
11582
28910
47039
44311
20937
29798
358
18149
37301
20160
1254
8745
35041
802
36102
21930
2772
9301
13603
18872
325
15729
29800
22758
10859
20015
8820
14836
3870
80407
46691
9797
8911
17494
51939
8095
12237
15940
22291
9247
797
20873
3148
52842
8917
1599
3201
12335
23377
13704
26236
19886
9000
25561
13484
13676
31340
46978
1897
6412
47026
4121
14194
38571
33936
9560
3563
26615
30591
4358
73203
13979
25683
2982
28377
22252
11546
30708
10053
43871
4138
21097
20190
3925
13296
25706
12101
71936
15592
7589
8415
17615
25837
2426
38293
25137
26309
19578
47266
22380
6708
93737
23278
23033
2189
2947
5714
22919
8967
29001
17110
4183
17337
56760
31129
3414
8671
68238
15422
1896
23650
14201
8803
21056
19981
5752
6697
3597
30888
2991
8436
16974
9309
4688
28945
11321
1951
20803
8711
46864
34001
20210
2750
21372
1322
15609
14700
11066
77269
1265
6537
24100
2557
30920
21622
11089
12687
23612
13416
16108
3753
20288
2386
7853
42228
6104
7258
4596
9010
40234
21757
19763
6019
1067
15796
18386
28606
46063
12939
27908
1316
24684
9440
14234
7288
8785
6763
3196
9663
27
6867
18190
23721
5586
11496
11296
6490
5222
6684
26323
4425
33914
87889
16792
298
48166
57821
19252
21064
14940
21730
20756
80488
4877
1699
416
4942
1091
20082
6946
8667
1026
20814
6680
19399
68745
12252
125
7964
13435
12004
3911
52021
18314
4784
3985
13199
9396
1193
15845
27055
8042
7584
4969
16309
18513
25410
54654
14862
47549
30848
15122
5090
18725
18743
27247
35001
4578
7506
8168
50740
22030
41433
7110
25199
2655
20716
8891
19713
5872
22728
5225
12768
8171
549
14632
19959
5441
26119
1187
7345
49145
10751
41237
12659
11879
3046
3265
6018
34912
8808
19150
4464
6894
15128
)


// ************************************************************************* //
