/*--------------------------------*- C++ -*----------------------------------*\
| =========                 |                                                 |
| \\      /  F ield         | OpenFOAM: The Open Source CFD Toolbox           |
|  \\    /   O peration     | Version:  plus.master.MPPICInterFoam            |
|   \\  /    A nd           | Web:      www.OpenFOAM.com                      |
|    \\/     M anipulation  |                                                 |
\*---------------------------------------------------------------------------*/
FoamFile
{
    version     2.0;
    format      ascii;
    class       vectorField;
    location    "9.2/lagrangian/kinematicCloud";
    object      UCorrect;
}
// * * * * * * * * * * * * * * * * * * * * * * * * * * * * * * * * * * * * * //


344
(
(1.80678e-09 8.74748e-10 -1.26919e-06)
(1.80475e-09 8.56716e-10 -1.26919e-06)
(2.4831e-10 -5.66751e-11 -1.26919e-06)
(2.28902e-10 -5.22453e-11 -1.26919e-06)
(1.82191e-09 1.00903e-09 -1.26919e-06)
(3.05104e-09 -6.9638e-10 -1.26919e-06)
(1.77663e-09 6.07152e-10 -1.26919e-06)
(1.66539e-09 -3.80116e-10 -2.27861e-06)
(-2.52411e-07 -1.85865e-10 -1.0445e-09)
(1.66539e-09 -3.80116e-10 -2.40499e-06)
(1.94141e-14 -1.91516e-13 -6.82664e-11)
(1.66539e-09 -3.80116e-10 -2.4031e-06)
(-1.99535e-16 1.36391e-15 1.21773e-14)
(-1.0918e-09 2.49197e-10 -1.68959e-06)
(-2.2439e-16 1.55189e-15 1.21773e-14)
(1.55226e-06 -3.54293e-07 -2.06055e-06)
(-5.12207e-07 -1.85865e-10 -1.26193e-08)
(-2.52411e-07 -1.85865e-10 -5.85828e-09)
(1.55226e-06 -3.54293e-07 -2.18519e-06)
(1.55226e-06 -3.54293e-07 -1.84876e-06)
(4.07404e-06 -9.29874e-07 -2.56363e-11)
(1.55226e-06 -3.54293e-07 -1.45851e-06)
(2.71276e-06 -6.19169e-07 -3.51921e-11)
(-1.55259e-06 3.54368e-07 -4.00421e-06)
(-4.1864e-07 -1.85865e-10 -1.26193e-08)
(-1.15065e-06 2.62628e-07 -3.51921e-11)
(1.25059e-07 -2.85438e-08 -3.51921e-11)
(5.48097e-05 -8.48786e-13 -8.41197e-05)
(4.36907e-06 -9.97212e-07 -3.51921e-11)
(1.55226e-06 -3.54293e-07 -9.53524e-07)
(-1.91923e-06 4.38051e-07 -4.00421e-06)
(1.55226e-06 -3.54293e-07 -9.50261e-07)
(-1.26693e-06 2.89169e-07 -3.51921e-11)
(3.21392e-08 6.81534e-07 -4.76824e-10)
(0.000128697 -8.48786e-13 -8.41197e-05)
(0.000147921 -3.90771e-06 -8.41197e-05)
(0.000147465 -7.95688e-06 -8.41197e-05)
(0.000147351 -8.96586e-06 -8.41197e-05)
(-2.51705e-07 -6.45236e-09 -1.26193e-08)
(-2.36586e-08 5.39993e-09 -3.51921e-11)
(-1.02135e-06 2.33116e-07 -3.51921e-11)
(1.70857e-08 6.81534e-07 -3.71525e-10)
(2.86773e-08 9.05804e-07 -4.90442e-10)
(-2.37942e-07 5.43087e-08 -3.51921e-11)
(-1.72086e-12 5.18099e-12 -1.77722e-12)
(0.000147516 -7.49771e-06 -8.41197e-05)
(-2.92578e-06 6.67791e-07 -4.00421e-06)
(-1.80958e-07 -8.48786e-13 -8.41197e-05)
(-7.36242e-05 3.09898e-05 0.000662013)
(-2.56101e-06 5.81731e-07 -1.69391e-06)
(-2.9602e-08 -1.85865e-10 -1.26193e-08)
(-2.27263e-06 5.18713e-07 -4.59419e-06)
(-4.99281e-07 -1.85865e-10 -1.26193e-08)
(4.88997e-06 -8.48786e-13 -8.41197e-05)
(-0.000274976 0.00155383 0.000368566)
(-2.27263e-06 5.18713e-07 -4.74322e-06)
(2.57694e-08 9.05804e-07 -4.90442e-10)
(-4.38175e-07 -1.85865e-10 -1.26193e-08)
(-1.43415e-06 3.27336e-07 -4.00421e-06)
(-2.27263e-06 5.18713e-07 -4.86777e-06)
(1.59028e-08 6.81534e-07 -3.71525e-10)
(-4.88764e-07 -1.26278e-06 -3.72765e-10)
(-2.52411e-07 -1.85865e-10 -1.77807e-08)
(3.21392e-08 6.81534e-07 -2.7087e-10)
(-7.36242e-05 3.09898e-05 0.000123251)
(-4.19887e-07 -1.85865e-10 -1.26193e-08)
(-2.33696e-13 -2.3182e-13 -2.00469e-12)
(1.55226e-06 -3.54293e-07 1.00351e-06)
(1.49432e-08 9.05804e-07 -4.90442e-10)
(-1.9193e-10 -1.5384e-10 -3.15258e-07)
(-2.97714e-06 6.79512e-07 -4.00421e-06)
(-2.39604e-06 1.66034e-07 -4.00421e-06)
(-8.69637e-07 1.98489e-07 -3.51921e-11)
(1.66345e-08 9.05804e-07 -4.90442e-10)
(-1.70616e-11 -1.4387e-11 -2.00837e-07)
(2.01027e-08 -1.12723e-07 -2.05661e-11)
(0.000148361 -8.48786e-13 -3.21541e-05)
(1.49532e-08 9.05804e-07 -4.90442e-10)
(0.000377571 6.47327e-05 -0.000263508)
(3.21392e-08 6.81534e-07 -2.25634e-10)
(0.000563884 8.26191e-05 -0.000263508)
(-1.9193e-10 -1.5384e-10 -3.49132e-07)
(-2.27263e-06 5.18713e-07 -5.5163e-06)
(-0.000225939 -2.91491e-05 -0.000263508)
(-2.34157e-11 -1.94542e-11 -2.00837e-07)
(2.01027e-08 -1.12723e-07 -1.97341e-11)
(1.55226e-06 -3.54293e-07 1.53762e-06)
(1.73101e-08 9.05804e-07 -4.90442e-10)
(2.01027e-08 -1.12723e-07 -1.95929e-11)
(-2.16292e-06 1.49239e-06 -4.00421e-06)
(-2.94866e-06 6.73012e-07 -4.00421e-06)
(4.37154e-06 -9.97776e-07 -3.51921e-11)
(-2.7056e-11 -9.0976e-11 -5.61972e-12)
(-1.7894e-13 -2.24376e-13 -2.39842e-13)
(2.05431e-10 -3.54439e-11 -1.28713e-07)
(-2.51884e-11 -9.14023e-11 -3.16248e-12)
(-2.27263e-06 5.18713e-07 -5.38182e-06)
(-2.99915e-06 6.84536e-07 -4.00421e-06)
(-3.02844e-06 6.88419e-07 -1.69391e-06)
(-1.9193e-10 -1.5384e-10 -3.90827e-07)
(-2.27263e-06 5.18713e-07 -5.74113e-06)
(1.55226e-06 -3.54293e-07 1.93081e-06)
(0.000148361 -8.48786e-13 -1.48939e-05)
(2.71476e-08 -1.45125e-07 -2.24461e-06)
(-2.7056e-11 -9.0976e-11 -6.16085e-12)
(-6.51825e-07 -1.67733e-06 -1.04748e-11)
(2.11058e-08 1.12454e-07 -1.71324e-06)
(2.11058e-08 1.12454e-07 -1.66496e-06)
(1.55226e-06 -3.54293e-07 2.18457e-06)
(-1.71035e-12 -2.61004e-12 -6.24967e-12)
(2.38279e-12 4.42095e-12 -2.46655e-07)
(-3.00158e-08 -4.78147e-08 -2.80891e-06)
(2.11058e-08 1.12454e-07 -1.75881e-06)
(1.2793e-10 1.61852e-10 -4.42871e-08)
(3.7961e-09 -3.62587e-08 -9.08073e-11)
(1.29842e-07 -1.15458e-07 -1.52211e-10)
(-2.46503e-08 -5.1186e-08 -6.64137e-07)
(-3.57831e-06 -8.16732e-07 -2.02664e-06)
(-3.89732e-06 2.68449e-06 -1.67852e-12)
(-0.000349244 0.00197119 0.000463315)
(1.29842e-07 -1.15458e-07 -1.50932e-10)
(3.16381e-06 -7.22118e-07 -5.55846e-06)
(6.76462e-06 -1.5565e-06 2.43762e-06)
(-1.47526e-05 -5.33011e-06 -2.12671e-08)
(0.00136294 0.000176718 0.000463315)
(3.16381e-06 -7.22118e-07 -5.14424e-06)
(6.76462e-06 -1.5565e-06 2.4587e-06)
(0.000158205 0.000126164 -3.99923e-07)
(-8.74955e-08 -1.99779e-08 -2.22436e-06)
(-7.07559e-08 -6.9462e-07 -1.39225e-06)
(2.22696e-08 5.53744e-07 -1.44207e-06)
(0.000158205 0.000126164 -3.99847e-07)
(6.76462e-06 -1.5565e-06 2.29146e-06)
(-3.91497e-06 2.6564e-06 -1.83214e-07)
(3.16381e-06 -7.22118e-07 -4.50045e-06)
(-1.47526e-05 -5.33011e-06 -1.82711e-08)
(-9.34893e-05 3.68969e-05 1.20153e-05)
(9.80077e-12 2.03941e-11 1.41015e-12)
(-1.81811e-09 -2.9436e-09 -2.05954e-06)
(1.06715e-11 1.48147e-11 -2.46655e-07)
(3.16381e-06 -7.22118e-07 -3.49683e-06)
(-8.74955e-08 -1.99779e-08 -2.19058e-06)
(1.41859e-06 -5.70968e-06 8.73558e-07)
(2.22696e-08 5.53744e-07 -1.11738e-06)
(6.76462e-06 -1.5565e-06 2.17259e-06)
(1.38864e-06 -5.79527e-06 8.73558e-07)
(1.47894e-07 3.13818e-06 -6.31751e-12)
(-7.07559e-08 -6.9462e-07 -1.43453e-06)
(2.22696e-08 5.53744e-07 -1.06668e-06)
(-2.97076e-06 5.96963e-07 -1.84286e-17)
(9.48898e-10 -2.07635e-10 -5.86232e-07)
(-3.42544e-06 -1.44384e-06 -2.35826e-06)
(-0.000334091 -0.000488624 -3.0815e-06)
(3.16381e-06 -7.22118e-07 -3.33292e-06)
(2.22696e-08 5.53744e-07 -9.43972e-07)
(1.60546e-11 2.03941e-11 6.22333e-13)
(-1.19953e-12 -3.39928e-12 -5.42361e-12)
(-2.85644e-06 -6.51971e-07 -2.02664e-06)
(-1.41531e-05 -1.06501e-05 -7.11658e-12)
(1.60591e-11 2.03941e-11 6.22333e-13)
(-5.95439e-11 -5.7187e-10 -5.01422e-07)
(1.5805e-12 -1.75472e-12 -1.28203e-06)
(1.22179e-12 -5.78795e-13 -2.35332e-12)
(-2.5205e-06 -5.75295e-07 -2.02664e-06)
(2.93548e-09 1.46205e-06 -4.19132e-12)
(-4.29043e-06 9.79263e-07 8.73558e-07)
(-4.20408e-12 -1.09969e-12 -1.36992e-12)
(-9.808e-09 -2.77106e-08 -9.08073e-11)
(-2.97943e-08 -4.79539e-08 -2.80891e-06)
(-1.84384e-09 -2.92743e-09 -2.05954e-06)
(-2.15907e-05 -5.33011e-06 -7.11658e-12)
(2.24405e-07 -9.11339e-07 -2.02664e-06)
(-0.000746589 -0.000394474 -3.0815e-06)
(-6.41724e-06 1.46469e-06 8.73558e-07)
(-6.00144e-11 -5.71817e-10 -5.01422e-07)
(1.60478e-11 2.03941e-11 6.22333e-13)
(6.66761e-06 -1.83374e-06 1.26821e-06)
(-5.04209e-08 -5.14141e-07 -1.54353e-06)
(-3.90082e-06 2.67892e-06 -1.67852e-12)
(-3.90574e-06 2.6711e-06 -1.67852e-12)
(4.22381e-07 -1.47712e-06 -2.02664e-06)
(0.000158205 0.000126164 -3.97709e-07)
(-7.07559e-08 -6.9462e-07 -1.48585e-06)
(1.67254e-06 3.8174e-07 -2.02664e-06)
(2.82092e-06 6.4385e-07 -2.02664e-06)
(6.82223e-08 3.13818e-06 3.93342e-13)
(-3.89944e-06 2.68112e-06 -1.67852e-12)
(-6.58528e-09 -1.36735e-08 -2.80891e-06)
(-0.000251737 -0.000507421 -3.0815e-06)
(-3.90053e-06 2.67939e-06 -1.67852e-12)
(5.0731e-08 3.13818e-06 3.93342e-13)
(-0.000119946 5.85342e-05 -1.67852e-12)
(1.32119e-05 -3.02806e-06 1.26821e-06)
(-1.52104e-06 2.35824e-07 -1.84285e-17)
(-1.58435e-06 -6.04536e-06 -1.49759e-12)
(2.13128e-06 -3.67294e-06 8.73558e-07)
(6.91323e-06 -1.5779e-06 8.73558e-07)
(9.19168e-16 -2.12754e-14 -7.37027e-17)
(6.57509e-07 -1.77728e-06 -7.31829e-10)
(-0.000142225 -0.000532416 -3.0815e-06)
(1.68553e-06 -4.94682e-06 8.73558e-07)
(0.000305218 0.000243404 -3.96501e-07)
(1.10624e-08 4.54277e-07 -6.29398e-12)
(-0.000489429 -0.000453169 -3.0815e-06)
(-1.42876e-05 -1.20379e-06 -7.11658e-12)
(1.46732e-10 1.4305e-10 -2.46655e-07)
(4.14361e-06 9.45972e-07 -3.18955e-09)
(1.87742e-06 1.00261e-06 -1.95765e-06)
(2.00815e-06 -4.0248e-06 8.73558e-07)
(5.32205e-07 -6.9462e-07 -1.54353e-06)
(-1.41267e-05 -1.08848e-05 -7.11658e-12)
(1.52749e-11 2.03941e-11 6.22333e-13)
(-2.87963e-08 -2.7432e-07 4.42895e-07)
(-2.38261e-06 -1.20582e-06 -2.35826e-06)
(-1.17141e-06 -9.29376e-07 -2.35826e-06)
(-8.06689e-06 1.84122e-06 8.73558e-07)
(-2.12051e-06 4.83995e-07 8.73558e-07)
(-3.90322e-06 2.67509e-06 -1.67852e-12)
(-2.94195e-08 -3.27748e-07 -1.54353e-06)
(-1.83162e-06 9.76882e-07 -6.29398e-12)
(-0.00152463 -0.000216891 -3.0815e-06)
(7.61034e-05 -3.58784e-05 -1.67852e-12)
(-4.09373e-08 -4.29972e-07 -1.54353e-06)
(4.79358e-08 -6.39935e-08 -9.08073e-11)
(4.96132e-05 3.95652e-05 -3.96501e-07)
(0.000158205 0.000126164 -3.95655e-07)
(4.03174e-06 9.2021e-07 -2.02664e-06)
(2.43266e-07 -9.6524e-07 -2.02664e-06)
(-0.000242062 -0.000509629 -3.0815e-06)
(2.52633e-07 4.06777e-06 3.93342e-13)
(-1.04342e-05 -5.33011e-06 -7.11658e-12)
(3.63343e-18 -1.18473e-17 2.31556e-19)
(1.54265e-06 1.00261e-06 -2.39986e-06)
(-0.00013308 -0.000534504 -3.0815e-06)
(-1.18793e-06 2.71139e-07 8.73558e-07)
(-3.91187e-08 -4.13832e-07 -1.54353e-06)
(-8.74955e-08 -1.99779e-08 -1.968e-06)
(6.81697e-06 -1.09185e-06 1.26821e-06)
(-3.48616e-06 -5.33011e-06 -7.11658e-12)
(-1.49389e-06 3.33409e-07 -1.84285e-17)
(-1.22028e-09 -3.23815e-09 -2.05954e-06)
(4.56634e-07 -1.57501e-06 -2.02664e-06)
(1.59318e-06 1.95195e-07 -6.29398e-12)
(2.92399e-08 -2.00846e-07 -9.60896e-07)
(-2.62217e-06 1.15732e-06 -6.29398e-12)
(1.32895e-07 -1.1163e-07 -9.08073e-11)
(4.78065e-08 -6.39122e-08 -9.08073e-11)
(1.41798e-06 -1.03893e-07 -1.95765e-06)
(-0.000563944 -0.000436162 -3.0815e-06)
(7.22196e-11 6.04577e-10 -5.83276e-07)
(-1.82554e-06 9.75496e-07 -6.29398e-12)
(1.8791e-20 -6.54888e-20 1.89517e-18)
(4.19802e-08 -6.02513e-08 -9.08073e-11)
(6.71535e-07 -1.81737e-06 -7.31829e-10)
(-6.65241e-06 1.51837e-06 8.73558e-07)
(-0.000499231 -0.000450932 -3.0815e-06)
(-2.66212e-07 -2.28027e-07 -1.12397e-06)
(1.41145e-13 -1.0027e-09 -5.01422e-07)
(-8.74955e-08 -1.99779e-08 -1.91921e-06)
(1.76281e-06 -4.72595e-06 8.73558e-07)
(-1.81997e-09 -1.59531e-08 -4.88198e-11)
(-4.00255e-05 -0.000355376 -2.41238e-10)
(3.16381e-06 -7.22118e-07 3.24088e-06)
(1.9548e-07 1.04875e-06 -6.29398e-12)
(1.92736e-12 -5.19802e-12 -4.3333e-12)
(-2.74964e-07 -2.19276e-07 -1.51405e-06)
(2.79659e-06 -6.9462e-07 -1.54353e-06)
(-2.23804e-06 -5.10826e-07 -2.02664e-06)
(-0.000472838 -0.000456956 -3.0815e-06)
(3.58964e-08 1.46205e-06 -4.19132e-12)
(1.34606e-07 -1.09484e-07 -9.08073e-11)
(3.16381e-06 -7.22118e-07 3.73162e-06)
(7.56736e-11 6.04188e-10 -5.83276e-07)
(-2.57115e-07 -2.37125e-07 -1.12397e-06)
(-2.2886e-05 -5.11702e-05 -0.000109611)
(1.66975e-06 -1.88571e-07 -9.39639e-07)
(-0.000550563 -0.000439216 -3.0815e-06)
(-2.5894e-07 -2.35299e-07 -1.12397e-06)
(2.1444e-12 6.94815e-13 -6.90034e-13)
(0.000158205 0.000126164 -3.93848e-07)
(-3.816e-06 8.70979e-07 8.73558e-07)
(-2.74964e-07 -2.19276e-07 -1.71089e-06)
(-1.86108e-06 -1.08679e-06 -3.5418e-06)
(3.49854e-07 -7.51763e-07 -7.31829e-10)
(1.47894e-07 3.13818e-06 4.73203e-12)
(1.42195e-06 -6.86854e-08 -1.95765e-06)
(-0.00128372 -0.000271878 -2.92542e-06)
(6.95121e-11 6.04882e-10 -5.83276e-07)
(1.92736e-12 -5.19802e-12 -4.81e-12)
(2.68484e-06 1.00261e-06 -1.95765e-06)
(2.66662e-06 6.0863e-07 -2.02664e-06)
(3.16381e-06 -7.22118e-07 4.6722e-06)
(-3.95129e-08 -1.17061e-08 -4.88198e-11)
(7.22104e-11 6.04578e-10 -5.83276e-07)
(-1.69428e-08 -1.42491e-08 -4.88198e-11)
(-3.92792e-06 -5.33011e-06 -7.11658e-12)
(5.45147e-19 2.33639e-16 7.52698e-14)
(3.16381e-06 -7.22118e-07 5.23195e-06)
(-7.07559e-08 -6.9462e-07 -1.66444e-06)
(1.47894e-07 3.13818e-06 6.16788e-12)
(-6.10287e-06 -5.33011e-06 -7.11658e-12)
(-1.86108e-06 -1.08679e-06 -4.02338e-06)
(2.82311e-06 1.00261e-06 -1.95765e-06)
(-0.00128372 -0.000271878 -2.87093e-06)
(-5.44813e-06 1.2435e-06 8.73558e-07)
(1.11151e-07 1.64771e-07 -2.45392e-07)
(0.000158205 0.000126164 -3.92661e-07)
(2.89358e-06 -6.9462e-07 -1.54353e-06)
(3.16381e-06 -7.22118e-07 6.18789e-06)
(9.13732e-08 3.84465e-08 -1.14981e-11)
(2.22696e-08 5.53744e-07 1.37246e-06)
(-0.000168864 -0.000526336 -3.0815e-06)
(3.16381e-06 -7.22118e-07 6.40852e-06)
(-7.07559e-08 -6.9462e-07 -1.69154e-06)
(3.01572e-06 -1.2949e-07 -6.29398e-12)
(1.70084e-12 -1.76828e-12 -2.28138e-06)
(1.54265e-06 1.00261e-06 -3.86143e-06)
(-6.32041e-06 1.44259e-06 8.73558e-07)
(-7.15579e-06 1.63326e-06 8.73558e-07)
(-7.57187e-06 1.72823e-06 8.73558e-07)
(2.22696e-08 5.53744e-07 1.45567e-06)
(-8.74955e-08 -1.99779e-08 -1.77334e-06)
(1.54265e-06 1.00261e-06 -3.96471e-06)
(-1.86108e-06 -1.08679e-06 -4.39945e-06)
(-7.07559e-08 -6.9462e-07 -1.70228e-06)
(9.93843e-14 2.63014e-13 -2.66766e-13)
(-5.43383e-07 -4.33333e-07 -1.12397e-06)
(-7.07559e-08 -6.9462e-07 -1.71043e-06)
(1.70084e-12 -1.76828e-12 -2.40924e-06)
(1.82839e-12 -1.81291e-12 -1.28203e-06)
(-7.82292e-14 -1.82313e-14 1.88365e-14)
(0.000158205 0.000126164 -3.9192e-07)
(-1.86108e-06 -1.08679e-06 -4.50312e-06)
(0.000158205 0.000126164 -3.9174e-07)
(-0.00128372 -0.000271878 -2.79946e-06)
(1.40626e-10 5.9687e-10 -1.14433e-06)
(1.11427e-12 3.34356e-13 -1.34369e-12)
(1.47894e-07 3.13818e-06 9.38847e-12)
(-1.47526e-05 -5.33011e-06 2.39404e-08)
(-0.00128372 -0.000271878 -2.79054e-06)
(-8.09474e-06 1.84757e-06 8.73558e-07)
(3.16381e-06 -7.22118e-07 7.83143e-06)
(-7.07559e-08 -6.9462e-07 -1.72681e-06)
(3.58728e-07 -7.4749e-07 -7.31829e-10)
)


// ************************************************************************* //
