/*--------------------------------*- C++ -*----------------------------------*\
| =========                 |                                                 |
| \\      /  F ield         | OpenFOAM: The Open Source CFD Toolbox           |
|  \\    /   O peration     | Version:  plus.master.MPPICInterFoam            |
|   \\  /    A nd           | Web:      www.OpenFOAM.com                      |
|    \\/     M anipulation  |                                                 |
\*---------------------------------------------------------------------------*/
FoamFile
{
    version     2.0;
    format      ascii;
    class       scalarField;
    location    "8/lagrangian/kinematicCloud";
    object      age;
}
// * * * * * * * * * * * * * * * * * * * * * * * * * * * * * * * * * * * * * //


2994
(
7.95663
7.87984
7.9318
7.77171
7.74156
7.65611
7.82376
7.89302
7.7232
7.99962
7.98975
7.88081
7.99195
7.90798
7.74533
7.95683
7.83995
7.91619
7.74484
7.80619
7.57038
7.84984
7.71785
7.8844
7.8535
7.92757
7.97049
7.91857
7.96485
7.68652
7.81826
7.74289
7.72417
7.77186
7.97898
7.91854
7.86732
7.80932
7.94335
7.91206
7.98169
7.69621
7.99808
7.91723
7.77156
7.98492
7.87256
7.9194
7.80848
7.71612
7.54678
7.97332
7.89344
7.91096
7.92029
7.77886
7.86879
7.59228
7.92433
7.89551
7.96504
7.96197
7.84008
7.86659
7.83926
7.95618
7.88837
7.81545
7.66799
7.99013
7.88685
7.73672
7.94367
7.99847
7.70267
7.87281
7.75323
7.94064
7.79766
7.90017
7.82064
7.91604
7.99124
7.99125
7.81034
7.88657
7.79243
7.7339
7.91247
7.91925
7.985
7.98815
7.86876
7.87843
7.65725
7.92474
7.83174
7.75015
7.88104
7.90995
7.93131
7.85908
7.87375
7.88863
7.96383
7.93699
7.87739
7.91824
7.83128
7.90592
7.83043
7.99903
7.69948
7.88833
7.9937
7.99145
7.76165
7.88842
7.9543
7.96651
7.92777
7.72003
7.80026
7.91774
7.77445
7.89991
7.99773
7.9903
7.96525
7.99102
7.98526
7.95616
7.93022
7.86374
7.53696
7.99885
7.97273
7.77152
7.8788
7.92772
7.97045
7.77344
7.83249
7.6346
7.91957
7.94378
7.9957
7.84547
7.97571
7.9777
7.91281
7.95002
7.86997
7.82976
7.58519
7.85029
7.77344
7.96991
7.95745
7.98772
7.97313
7.97209
7.82051
7.8204
7.99394
7.79814
7.95588
7.94695
7.79101
7.92314
7.84475
7.91871
7.77784
7.85905
7.96975
7.94727
7.79075
7.74413
7.80512
7.9577
7.98206
7.79538
7.80805
7.87083
7.80579
7.93819
7.98483
7.93299
7.61911
7.92738
7.91048
7.8711
7.90223
7.94262
7.94425
7.95301
7.87457
7.87422
7.86756
7.89015
7.83939
7.78251
7.99888
7.84447
7.97075
7.94739
7.99608
7.83918
7.56196
7.51528
7.88157
7.91936
7.79457
7.89168
7.6286
7.9184
7.89374
7.96407
7.98089
7.97665
7.91252
7.92588
7.85048
7.7641
7.77913
7.7495
7.97887
7.87866
7.95801
7.73206
7.99833
7.81039
7.87041
7.91754
7.87899
7.95046
7.70562
7.98357
7.98912
7.67477
7.79135
7.98228
7.78643
7.96268
7.98817
7.97036
7.98552
7.75318
7.53944
7.77957
7.49559
7.97979
7.84208
8.00013
7.96096
7.97171
7.95693
7.91004
7.87884
7.83938
7.91452
7.97757
7.85428
7.95132
7.8098
7.93679
7.80668
7.98075
7.94692
7.96848
7.7687
7.80994
7.72848
7.87969
7.98888
7.59119
7.69849
7.93011
7.65944
7.93711
7.89823
7.97778
7.73366
7.78107
7.82288
7.74423
7.76242
7.83697
7.91762
7.96542
7.60214
7.5256
7.80553
7.86949
7.73999
7.83289
7.61306
7.66855
7.89813
7.89212
7.69533
7.79082
7.98162
7.94457
7.88901
7.84919
7.61015
7.86627
7.90781
7.9989
7.98174
7.98113
7.64771
7.92264
7.92845
7.8949
7.63934
7.72404
7.85951
7.55508
7.68883
7.99367
7.75238
7.77865
7.87139
7.85131
7.91994
7.88266
7.88824
7.89926
7.95638
7.9478
7.87851
7.97666
7.49664
7.77206
7.98283
7.84857
7.73482
7.86047
7.75239
7.8409
7.78108
7.76657
7.87591
7.96513
7.61945
7.97061
7.90234
7.8198
7.63197
7.81066
7.91956
7.91807
7.82096
7.97106
7.74497
7.92763
7.94704
7.94871
7.94465
7.78114
7.62857
7.69949
7.93755
7.78288
7.83592
7.93753
7.6703
7.83944
7.96421
7.58118
7.75578
7.78005
7.86995
7.79191
7.95816
7.99937
7.85922
7.61457
7.96672
7.81726
7.99616
7.92017
7.83918
7.76196
7.90795
7.96996
7.81831
7.80982
7.82947
7.94325
7.95861
7.86109
7.67462
7.59287
7.9669
7.62861
7.99236
7.82075
7.69835
7.85939
7.92739
7.69675
7.95242
7.80008
7.70962
7.98495
7.88512
7.65757
7.97456
7.62579
7.73526
7.90999
7.99893
7.96918
7.85952
7.93738
7.95918
7.97968
7.76717
7.85421
7.66057
7.67638
7.92528
7.88623
7.89239
7.72423
7.86112
7.8981
7.97699
7.83313
7.82948
7.76812
7.86907
7.92139
7.7367
7.98029
7.86856
7.93837
7.98491
7.89827
7.90435
7.96656
7.86856
7.93975
7.96169
7.68493
7.96402
7.6585
7.9813
7.72519
7.92302
7.97613
7.81288
7.96389
7.93187
7.84007
7.81122
7.73898
7.92078
7.96518
7.96906
7.9781
7.94776
7.68981
7.74605
7.68578
7.75264
7.91336
7.95626
7.80022
7.53775
7.84897
7.77148
7.8098
7.9484
7.7289
7.5334
7.75521
7.92073
7.98947
7.72188
7.981
7.76654
7.94209
7.87207
7.98669
7.8098
7.54341
7.70816
7.98098
7.98996
7.9108
7.96432
7.83701
7.89151
7.61121
7.74436
7.79048
7.80044
7.83971
7.99908
7.8839
7.89746
7.91803
7.64774
7.61112
7.96394
7.97657
7.62512
7.98492
7.62069
7.90965
7.87073
7.99589
7.69898
7.93857
7.56298
7.98107
7.86775
7.83984
7.98607
7.87565
7.41906
7.54252
7.88519
7.72611
7.99374
7.61605
7.53635
7.77269
7.80302
7.66315
7.67629
7.98869
7.6773
7.91064
7.89419
7.78096
7.94992
7.96228
7.73128
7.72472
7.90773
7.5757
7.92979
7.92006
7.89987
7.60551
7.77706
7.7172
7.87937
7.66755
7.94388
7.97046
7.93156
7.93795
7.84898
7.71757
7.95621
7.94476
7.78376
7.9764
7.80982
7.93543
7.82743
7.81983
7.87232
7.89102
7.87393
7.9373
7.92768
7.88462
7.92317
7.58935
7.58478
7.73859
7.95505
7.88894
7.4294
7.85283
7.89906
7.78438
7.96389
7.86006
8.00021
7.98878
7.9598
7.98971
7.93536
8.00072
7.8184
7.91766
7.96435
7.95323
7.73377
7.63528
7.8686
7.62149
7.92816
7.92733
7.98491
7.8531
7.68272
7.86176
7.91013
7.67205
7.75581
7.97287
7.7299
7.99495
7.56411
7.87029
7.65776
7.99378
7.99391
7.80212
7.90037
7.83956
7.6286
7.8714
7.97902
7.791
7.87081
7.8349
7.65268
7.83998
7.85939
7.62894
7.99123
7.80471
7.99127
7.8
7.80025
7.71857
7.71829
7.63741
7.45016
7.9584
7.88449
7.94744
7.94087
7.80669
7.85802
7.9731
7.94767
7.47932
7.97675
7.70007
7.74549
7.69883
7.98089
7.80988
7.8884
7.93953
7.78522
7.83019
7.94739
7.86861
7.68655
7.79793
7.73333
7.9374
7.95256
7.88165
7.63165
7.99654
7.97776
7.81559
7.81166
7.82932
7.96743
7.76506
7.86875
7.96681
7.67516
7.70398
7.95845
7.92251
7.9287
7.91621
7.69649
7.90349
7.88871
7.99851
7.99183
7.98559
7.97146
7.563
7.96391
7.97662
7.9916
7.83666
7.87865
7.92614
7.8199
7.54344
7.97539
7.98849
7.59524
7.98179
7.90838
7.97378
7.87001
7.84299
7.79083
7.87324
7.97045
7.84712
7.81965
7.90775
7.83153
7.99546
7.84318
7.75377
7.95738
7.93416
7.48713
7.87886
7.83919
7.93414
7.63891
7.6381
7.8106
7.93765
7.91766
7.87943
7.84514
7.76129
7.98739
7.83818
7.75006
7.88362
7.74293
7.97306
7.75593
7.82476
7.98403
7.72383
7.84401
7.75294
7.83084
7.77189
7.8059
7.94693
7.8947
7.83067
7.67767
7.96931
7.68474
7.80911
7.75173
7.90596
7.77074
7.99383
7.66999
7.99739
7.78138
7.90433
7.6362
7.87844
7.94927
7.84505
7.70075
7.7862
7.99397
7.62333
7.99154
7.77017
7.98097
7.76423
7.85026
7.84684
7.99451
7.96474
7.92758
7.5347
7.96468
7.87034
7.94751
7.98675
7.77143
7.89921
7.83833
7.95032
7.85148
7.8982
7.78348
7.61039
7.61937
7.57184
7.60853
7.94691
7.78206
7.84902
7.99764
7.86597
7.78339
7.4788
7.952
7.79742
7.8416
7.44678
7.95195
7.80587
7.92421
7.77789
7.57846
7.98668
7.81259
7.85206
7.90987
7.87273
7.48202
7.96034
7.8005
7.72422
7.78046
7.79077
7.9709
7.94022
7.85174
7.88794
7.84992
7.74188
7.81758
7.88734
7.93722
7.51429
7.60123
7.96944
7.80043
7.98301
7.94988
7.92398
7.99461
7.82949
7.944
7.98834
7.90921
7.84168
7.54989
7.80007
7.93725
7.94045
7.9844
7.99027
7.50493
7.98984
7.87162
7.72649
7.73996
7.924
7.84986
7.698
7.92737
7.94068
7.88819
7.84644
7.99741
7.90112
7.94048
7.86421
7.81554
7.89914
7.79086
7.99427
7.78147
7.91416
7.70941
7.61522
7.70484
7.75568
7.86516
7.99144
7.98128
7.49904
7.51463
7.87066
7.81419
7.97614
7.74492
7.95096
7.9347
7.96394
7.836
7.8874
7.95734
7.95603
7.81393
7.83967
7.96606
7.8784
7.69817
7.9814
7.95624
7.98257
7.98837
7.94624
7.91159
7.97062
7.79072
7.93851
7.81066
7.90946
7.93721
7.91582
7.90386
7.81355
7.95913
7.86697
7.96538
7.85956
7.75323
7.87685
7.90111
7.86771
7.72404
7.82016
7.94561
7.94778
7.63881
7.9522
7.65717
7.78484
7.88041
7.78404
7.99955
7.91298
7.87911
7.95239
7.8826
7.97065
7.80061
7.98092
7.98554
7.82227
7.93948
7.62924
7.94035
7.96447
7.89736
7.84306
7.97232
7.8991
7.99125
7.92134
7.75342
7.99166
7.7868
7.86071
7.85278
7.85876
7.85876
7.9008
7.91753
7.84967
7.88008
7.92736
7.90115
7.90773
7.50601
7.86001
7.97644
7.89278
7.99133
7.78561
7.87044
7.72382
7.96605
7.95333
7.7596
7.797
7.68461
7.90153
7.95441
7.83972
7.69059
7.87196
7.95933
7.93179
7.98545
7.86525
7.8688
7.98451
7.88668
7.74205
7.97139
7.78129
7.58096
7.94715
7.98224
7.99135
7.47848
7.64789
7.85632
7.68713
7.71817
7.99848
7.95759
7.95669
7.90779
7.74292
7.89544
7.84957
7.9769
7.86484
7.79352
7.62435
7.99047
7.86719
7.94308
7.82067
7.99051
7.8342
7.84898
7.86155
7.89395
7.92402
7.99124
7.95668
7.76236
7.79568
7.8
7.97724
7.92309
7.97055
7.96442
7.88644
7.96325
7.89804
7.96644
7.81968
7.89803
7.93109
7.82498
7.65255
7.73082
7.82225
7.96366
7.86058
7.4842
7.8518
7.97634
7.82079
7.68095
7.74118
7.5537
7.82556
7.81962
7.8654
7.82975
7.80052
7.73221
7.93074
7.99142
7.8889
7.77145
7.76194
7.92297
7.78157
7.84033
7.87784
7.8053
7.84034
7.53334
7.93878
7.4796
7.89063
7.97621
7.9771
7.74287
7.92778
7.89817
7.88243
7.89175
7.85018
7.77133
7.55364
7.55249
7.89423
7.83935
7.60178
7.54441
7.99739
7.56223
7.78048
7.64418
7.93409
7.91782
7.70525
7.66816
7.8155
7.9793
7.89595
7.97308
7.76198
7.86201
7.82242
7.81751
8.00017
7.86875
7.81961
7.92262
7.95063
7.89796
7.87715
7.98243
7.99031
7.85944
7.94392
7.99894
7.93779
7.82149
7.90839
7.80355
7.90806
7.98336
7.91813
7.88815
7.68013
7.81769
7.77496
7.89362
7.91768
7.95417
7.75547
7.75615
7.87918
8.00019
7.96392
7.86909
7.90659
7.97622
7.96564
7.97027
7.95755
7.93719
7.97065
7.98044
7.77143
7.89194
7.86866
7.94707
7.95113
7.94139
7.91997
7.94767
7.87348
7.50032
7.91662
7.88974
7.71493
7.84897
7.56558
7.89972
7.79794
7.97281
7.96015
7.76618
7.71735
7.5728
7.65094
7.53416
7.91908
7.96162
7.56084
7.82217
7.90254
7.85241
7.81235
7.97132
7.85538
7.99377
7.9917
7.84296
7.76239
7.90534
7.948
7.6983
7.47685
7.95611
7.79102
7.63813
7.82322
7.81047
7.98834
7.75338
7.86001
7.96697
7.79667
7.86249
7.6762
7.61924
7.9481
7.97204
7.88356
7.99592
7.78823
7.85839
7.9779
7.93246
7.93827
7.99423
7.77389
7.77376
7.82939
7.78858
7.78149
7.65075
7.7056
7.94256
7.90177
7.9501
7.92967
7.95624
7.89132
7.89912
7.99081
7.85947
7.97714
7.87698
7.73529
7.91623
7.77658
7.84899
7.98264
8.00002
7.79422
7.99245
7.82671
7.84397
7.53712
7.98506
7.82077
7.87857
7.94694
7.97028
7.84933
7.98496
7.86808
7.69105
7.95247
7.87492
7.94899
7.92734
7.89251
7.49134
7.69782
7.8585
7.99995
7.96395
7.9842
7.81978
7.50386
7.75281
7.9741
7.93808
7.94691
7.62045
7.97677
7.70833
7.73386
8
7.92829
7.85767
7.9653
7.88717
7.92395
7.84898
7.84563
7.95079
7.84029
7.89254
7.70178
7.64783
7.99124
7.97651
7.91955
7.9711
7.9819
7.94808
7.61927
7.90778
7.86865
7.76399
7.95804
7.74286
7.62902
7.93406
7.99428
7.7696
7.9641
7.798
7.95617
7.62657
7.97674
7.90845
7.88957
7.44869
7.93977
7.78104
7.84131
7.90463
7.94883
7.84016
7.88867
7.98629
7.95678
7.87971
7.76336
7.95768
7.85528
7.98528
7.93767
7.72006
7.85435
7.56544
7.60367
7.68867
7.58331
7.88053
7.76902
7.85541
8.00001
7.92951
7.93009
7.78185
8
7.82011
7.87315
7.93716
7.96658
7.81959
7.88582
7.96648
7.96406
7.70509
7.67783
7.90917
7.92531
7.86963
7.78347
7.9372
7.95713
7.78362
7.99137
7.9639
7.71711
7.99456
7.73334
7.99197
7.76209
7.94698
7.99387
7.80765
7.95213
7.97647
7.88169
7.95992
7.79367
7.91484
7.96905
7.68509
7.99368
7.9894
7.92736
7.84799
7.95786
7.7911
7.89401
7.59953
7.78802
7.96099
7.77146
7.99431
7.99923
7.77214
7.98118
7.58201
7.60144
7.79223
7.6584
7.97191
7.63425
7.76316
7.79873
7.99571
7.86865
7.82529
7.99271
7.90818
7.67694
7.78753
7.80149
7.92648
7.76268
7.49848
7.87045
7.87277
7.87428
7.6673
7.80276
7.82943
7.98256
7.94539
7.94135
7.94947
7.49185
7.97621
7.96418
7.87855
7.92041
7.96463
7.81313
7.99583
7.9639
7.74914
7.93151
7.8614
7.60025
7.77273
7.91647
7.99415
7.86099
7.86082
7.90078
7.85891
7.72605
7.87237
7.9574
7.82014
7.92732
7.6477
7.84972
7.50697
7.94402
7.8784
7.87443
7.98092
7.63823
7.75239
7.99895
7.74296
7.87932
7.73374
7.83941
7.79049
7.89883
7.87331
7.68187
7.95361
7.71532
7.94697
7.99569
7.87843
7.90806
7.87002
7.75938
7.91494
7.7812
7.66673
7.95711
7.87887
7.9561
7.74596
7.99389
7.69016
7.99882
7.81087
7.9639
7.97742
7.95623
7.96047
7.93018
7.77268
7.90183
7.8
7.99235
7.61117
7.94338
7.59049
7.71938
7.99626
7.7352
7.88064
7.75953
7.67464
7.94006
7.84691
7.74014
7.83165
7.82835
7.79684
7.99132
7.95625
7.72385
7.95757
7.92757
7.72698
7.63904
7.90886
7.92673
7.58975
7.91042
7.98896
7.98856
7.97632
7.93402
7.91177
7.68828
7.83807
7.91065
7.55837
7.93752
7.85429
7.72355
7.99157
7.6579
7.94212
7.79176
7.71088
7.6774
7.93571
7.84113
7.97751
7.99571
7.90642
7.94599
7.79048
7.64766
7.92739
7.94054
7.95612
7.99064
7.82994
7.55688
7.76341
7.71395
7.49621
7.68585
7.61444
7.80301
7.78284
7.97192
7.85277
7.9178
8
7.85123
7.98835
7.9937
7.70933
7.76634
7.63927
7.80535
7.99653
7.71773
7.593
7.73167
7.6552
7.87429
7.99811
7.91192
7.6413
7.85251
7.93718
7.95868
7.77146
7.88815
7.86969
7.93979
7.89933
7.91893
7.8415
7.96391
7.78186
7.8793
7.75409
7.72726
7.95702
7.77814
7.90655
7.88843
7.91752
7.64069
7.96979
7.8684
7.9967
7.543
7.88883
7.67619
7.66157
7.66125
7.58534
7.85562
7.98628
7.97525
7.82636
7.90019
7.85779
7.89417
7.95996
7.64071
7.96285
7.99378
7.65829
7.91262
7.88854
7.6291
7.79052
7.67846
7.86912
7.7732
7.85222
7.97856
7.90409
7.92149
7.8133
7.76209
7.89778
7.65825
7.8003
7.83843
7.87578
7.93213
7.88086
7.94804
7.9646
7.65476
7.59048
7.86533
7.87251
7.90141
7.67794
7.98504
7.80005
7.93412
7.92007
7.94696
7.8736
7.87946
7.93576
7.96273
7.7256
7.94732
7.83922
7.8596
7.96067
7.98091
7.902
7.79151
7.82066
7.99191
7.97282
7.71296
7.98836
7.99945
7.92085
7.96218
7.9982
7.96569
7.9705
7.8314
7.69868
7.97127
7.84999
7.97078
7.98604
7.80055
7.73612
7.70025
7.99164
7.97626
7.59438
7.87367
7.98893
7.84932
7.57304
7.98137
7.95818
7.9072
7.92835
7.82012
7.97105
7.84815
7.99739
7.98161
7.99227
7.61027
7.97091
7.76575
7.88896
7.9562
7.95959
7.8476
7.92759
7.81232
7.92657
7.97973
7.96788
7.88065
7.95191
7.70285
7.83402
7.91453
7.99129
7.67777
7.97829
7.67014
8.00089
7.90816
7.97623
7.8237
7.97667
7.96385
7.8592
7.90369
7.68869
7.73333
7.97649
7.90276
7.95609
7.85827
7.63923
7.61376
7.90816
7.83927
7.87958
7.90894
7.99131
7.79488
7.76191
7.74478
7.94747
7.9401
7.96189
7.95145
7.72944
7.76043
7.96401
7.83932
7.96615
7.98265
7.89845
7.89409
7.97647
7.99129
7.81255
7.73386
7.84729
7.83942
7.90548
7.95815
7.78097
7.59048
7.81113
7.85166
7.95676
7.8364
7.96499
7.77143
7.99058
7.75271
7.99896
7.8498
7.82114
7.77051
7.86568
7.82965
7.83049
7.67736
7.63844
7.97077
7.70736
7.57154
7.9644
7.70396
7.98002
7.7449
7.94792
7.88616
7.66105
7.86877
7.84618
7.95699
7.85762
7.73446
7.9471
7.96731
7.85145
7.99743
7.90773
7.95622
7.80863
7.93747
7.95975
7.97087
7.75239
7.74019
7.95578
7.79053
7.8037
7.83256
7.96005
7.91755
7.89263
7.89794
7.99946
7.88142
7.53888
7.99435
7.88257
7.80004
7.84903
7.94762
7.9561
7.76863
7.80663
7.78127
7.90799
7.95654
7.54526
7.94692
7.82571
7.94559
7.94081
7.91012
7.90776
7.93868
7.83829
7.44173
7.9276
7.82193
7.70555
7.99369
7.5775
7.97071
7.83876
7.72382
7.97169
7.77931
7.63324
7.86963
7.76345
7.99167
7.90419
7.89958
7.95911
7.94667
7.79574
7.77839
7.91684
7.97082
7.80416
7.85999
7.61141
7.78297
7.88099
7.92746
7.92599
7.86445
7.80286
7.88209
7.78952
7.9767
7.98841
7.9561
7.89799
7.97076
7.95453
7.92881
7.849
7.84794
7.91006
7.98095
7.75391
7.92245
7.93144
7.9337
7.86383
7.7365
7.85218
7.83949
7.87915
7.85897
7.48717
7.44222
7.88138
7.78054
7.81714
7.54221
7.75222
7.98435
7.85591
7.95855
7.94799
7.68925
7.97045
7.90816
7.8705
7.757
7.95715
7.92904
7.96464
7.70296
7.743
7.96998
7.93966
7.89442
7.80237
7.97229
7.90269
7.94072
7.72788
7.92813
7.88942
7.97417
7.93296
7.96953
7.96716
7.7729
7.92724
7.81966
7.99025
7.75768
7.78263
7.82281
7.81033
7.80092
7.82975
7.92744
7.94177
7.84035
7.95969
7.97794
7.96865
7.96077
7.97054
7.76899
7.80197
7.98877
7.91778
7.98943
7.88858
7.78489
7.80002
7.91752
7.83922
7.90888
7.70299
7.9244
7.86261
7.9646
7.81813
7.44821
7.66965
7.72176
7.60026
7.99063
7.97278
7.95829
7.84723
7.73635
7.84937
7.66667
7.89297
7.90821
7.91944
7.91331
7.87807
7.83143
7.92789
7.7732
7.9471
7.87208
7.96884
7.92994
7.93738
7.88139
7.96758
7.84902
7.86226
7.95819
7.68971
7.99928
7.78314
7.99217
7.53431
7.97034
7.90997
7.58191
7.98211
7.70483
7.90132
7.92418
7.95067
7.71986
7.87823
7.86858
7.96416
7.93455
7.98953
7.92582
7.80803
7.73091
7.83452
7.9855
7.72237
7.91885
7.95787
7.69534
7.65836
7.92004
7.54398
7.6213
7.77985
7.95066
7.97174
7.98106
7.8863
7.82941
7.92796
7.46077
7.92008
7.95925
7.791
7.86929
7.89108
7.96967
7.95839
7.94691
7.63812
7.96315
7.99178
7.93783
7.93046
7.94199
7.84784
7.66915
7.6803
7.95322
8.0007
7.93133
7.95176
7.94721
7.96903
7.99881
7.69686
7.87841
7.68683
7.8675
7.74288
7.97451
7.7435
7.94721
7.49674
7.85051
7.97631
7.77317
7.97628
7.91797
7.72558
7.84779
7.97686
7.79838
7.90745
7.97092
7.91092
7.70556
7.996
7.62675
7.6865
7.9977
7.73868
7.82055
7.77216
7.88895
7.95929
7.80979
7.73781
7.92371
7.87974
7.91627
7.65552
7.88319
7.87838
7.81408
7.71474
7.84903
7.63776
7.93693
7.74768
7.99798
7.73689
7.96251
7.9572
7.97068
7.80096
7.79334
8.00001
7.95685
7.77197
7.67619
7.91952
7.85282
7.93902
7.88847
7.74752
7.60016
7.99134
7.84991
7.62111
7.89848
7.98445
7.86519
7.75275
7.77519
7.85099
7.78155
7.80842
7.75247
7.96013
7.80046
7.71429
7.95429
7.8802
7.97546
7.54426
7.89808
7.96498
7.84178
7.7708
7.83002
7.71456
7.83892
7.55705
7.88111
7.98379
7.95645
7.90845
7.58293
7.71815
7.84928
7.98272
7.93183
7.76474
7.69273
7.7947
7.99739
7.91447
7.82939
7.91465
7.75266
7.61564
7.95469
7.86129
7.64931
7.97419
7.66809
7.9652
7.8022
7.69641
7.85886
7.86004
7.96622
7.99343
7.44835
7.51453
7.77764
7.87886
7.82081
7.63533
7.84879
7.41913
7.85153
7.98906
7.90258
7.83963
7.99782
7.9778
7.52458
7.74684
7.73131
7.98866
7.89711
7.86113
7.83917
7.79252
7.64788
7.76344
7.88874
7.99134
7.94901
7.87847
7.84019
7.88648
7.93773
7.86192
7.92024
7.61923
7.97416
7.76126
7.86057
7.86146
7.70526
7.58143
7.9084
7.91518
7.96184
7.82221
7.88839
7.9974
7.92261
7.95589
7.9004
7.90077
7.93274
7.69393
7.79127
7.91666
7.76613
7.96652
7.65937
7.98843
7.98991
7.71918
7.78261
7.93639
7.99365
7.98151
7.68685
7.93111
7.93755
7.51515
7.83934
7.82274
7.9672
7.9806
7.75255
7.90156
7.68576
7.80019
7.97234
7.99744
7.96241
7.91615
7.86004
7.94702
7.64917
7.95724
7.55978
7.9204
7.75403
7.81086
7.90833
7.56233
7.98134
7.57266
7.77179
7.90587
7.9325
7.93003
7.86858
7.9941
7.98222
7.72994
7.92549
7.95153
7.95264
7.96729
7.90774
7.71443
7.62907
7.8828
7.65328
8.00031
7.82133
7.94827
7.88652
7.81058
7.98285
7.99204
7.82943
7.99156
7.88861
7.92941
7.83918
7.97135
7.74811
7.98438
7.51626
7.87503
7.69861
7.83387
7.96411
7.99743
7.63199
7.89082
7.93007
7.96445
7.85399
7.91964
7.6748
7.98541
7.99308
7.90182
7.98703
7.9168
7.70575
7.82938
7.79185
7.93713
7.95045
7.81967
7.98187
7.62788
7.96665
7.84091
7.43858
7.98741
7.68581
7.99194
7.92631
7.91472
7.7741
7.95617
7.98258
7.93322
7.89054
7.80799
7.81073
7.85357
7.96495
7.83026
7.73446
7.87327
7.99749
7.69583
7.61441
7.91543
7.96753
7.98447
7.7925
7.81949
7.81046
7.90674
7.58825
7.45771
7.88548
7.87008
7.69535
7.86926
7.66761
7.52433
7.85877
7.98502
7.96519
7.96834
7.99631
7.60028
7.80372
7.94001
7.71449
7.9762
7.87908
7.58299
7.90822
7.97611
7.69404
7.95622
7.7152
7.71531
7.8588
7.73501
7.93319
7.94773
7.80622
7.85333
7.8742
7.92734
7.88815
7.99409
7.91032
7.95641
7.91181
7.81052
7.65891
7.80121
7.85232
7.95364
7.9376
7.94932
7.7833
7.77166
7.96399
7.90812
7.76271
7.96391
7.98097
7.89406
7.98177
7.99599
7.76354
7.82202
7.86648
7.74419
7.99492
7.65828
7.82525
7.78128
7.58095
7.67047
7.96721
7.72868
7.86869
7.82093
7.86233
7.7489
7.72569
7.91787
7.88238
7.95363
7.93101
7.9437
7.82949
7.90222
7.76192
7.93872
7.81945
7.73632
7.8006
7.55483
7.95437
7.9995
7.97831
7.60232
7.80645
7.88965
7.89839
7.89292
7.70487
7.84088
7.93917
7.66122
7.68771
7.77253
7.71522
7.87505
7.90408
7.99209
7.94643
7.75445
7.67113
7.96924
7.99746
7.86275
7.96791
7.85185
7.94881
7.80915
7.91937
7.98963
7.7426
7.80053
7.92379
7.70732
7.68596
7.98123
7.91981
7.9241
7.96496
7.94768
7.94486
7.8392
7.84435
7.9457
7.89792
7.99159
7.95439
7.91753
7.91301
7.99291
7.74969
7.69528
7.52515
7.74287
7.54166
7.83504
7.73391
7.88914
7.97647
7.8683
7.96554
7.9909
7.98303
7.93711
7.95619
7.82942
7.65636
7.86087
7.86773
7.93277
7.76799
7.88878
7.68574
7.97177
7.86072
7.78805
7.7221
7.83302
7.74071
7.78278
7.95717
7.87838
7.66833
7.96396
7.99739
7.8232
7.84387
7.52276
7.85118
7.9181
7.92235
7.87137
7.87854
7.58222
7.97152
7.94944
7.62874
7.77143
7.81375
7.91773
7.98549
7.93713
7.90776
7.91664
7.96477
7.67893
7.70768
7.87844
7.955
7.85878
7.73434
7.95778
7.9914
7.70476
7.84916
7.72345
7.94867
7.90543
7.98491
7.85106
7.69535
8.0001
7.68624
7.86024
7.96869
7.90818
7.57899
7.74955
7.9622
7.5921
7.95494
7.7716
7.9749
7.5082
7.88011
7.80006
7.92893
7.83001
7.94055
7.84014
7.82598
7.833
7.9971
7.96233
7.84583
7.94462
7.96887
7.84294
7.74016
7.82581
7.89539
7.79308
7.9825
7.99665
7.84036
7.95156
7.97781
7.9278
7.97056
7.90855
7.7318
7.9575
7.5735
7.77588
7.49968
7.47548
7.87836
7.98098
7.93071
7.93328
7.89047
7.96507
7.88707
7.86254
7.6191
7.92397
7.83261
7.70502
7.44001
7.89287
7.8407
7.96392
7.89294
7.83919
7.87925
7.94437
7.94126
7.78129
7.90091
7.97613
7.82049
7.99828
7.71518
7.6131
7.63361
7.57911
7.85041
7.53417
7.64752
7.95597
7.69608
7.96888
7.70747
7.77393
7.65715
7.96511
7.87056
7.94279
7.92965
7.99406
7.96692
7.77076
7.61913
7.92735
7.74991
7.99369
7.70498
7.91783
7.87713
7.99884
7.98153
7.83032
7.99547
7.97758
7.61717
7.94554
7.71431
7.69249
7.91805
7.85376
7.72761
7.57354
7.71018
7.74681
7.83522
7.60117
7.869
7.93712
7.6193
7.90833
8.00009
7.68824
7.95896
7.88553
7.98154
7.8893
7.98806
7.79423
7.75425
7.90693
7.93754
7.80231
7.86209
7.90998
7.94731
7.82127
7.8895
7.90794
7.90345
7.82805
7.90865
7.97148
7.88823
7.97643
7.76566
7.92045
7.80615
7.94703
7.88425
7.66703
7.80008
7.95092
7.83019
7.86121
7.97834
7.91857
7.6371
7.9442
7.96167
7.89817
7.97096
7.96578
7.84853
7.89081
7.43184
7.82592
7.97056
7.91527
7.62973
7.85599
7.94409
7.91088
7.7544
7.99166
7.62862
7.99365
7.83419
7.97614
7.75446
7.97617
7.5678
7.65376
7.88814
7.93713
7.90801
7.98129
7.92735
7.98839
7.84899
7.86728
7.74292
7.97745
7.85637
7.58541
7.99367
7.72936
7.72799
7.99208
7.98659
7.90812
7.97739
7.97105
7.93541
7.99988
7.85878
7.6762
7.68572
7.85927
7.92999
7.794
7.87963
7.84849
7.82156
7.83958
7.84361
7.80872
7.78352
7.95804
7.7829
7.57709
7.82305
7.75498
7.8665
7.57202
7.62928
7.81341
7.99921
7.84523
7.84929
7.99935
7.5716
7.97045
7.98554
7.79557
7.96437
7.66674
7.82952
7.85879
7.63407
7.87268
7.75325
7.97688
7.89948
7.79052
7.98959
7.97697
7.81154
7.93759
7.91754
7.95756
7.93104
7.78354
7.97906
7.8686
7.90938
7.80154
7.93742
7.6023
7.84017
7.66293
7.7823
7.64941
7.9662
7.72512
7.51456
7.72427
7.74573
7.8205
7.79331
7.99526
7.92862
7.85876
7.97853
7.78231
7.781
7.50602
7.76386
7.70042
7.80752
7.62952
7.50417
7.89829
7.91983
7.9885
7.79912
7.8978
7.99125
7.74828
7.99594
7.73752
7.74332
7.72165
7.9962
7.66349
7.98762
7.96422
7.94007
7.72397
7.7895
7.43277
7.91067
7.66554
7.89805
7.88496
7.88939
7.56838
7.94026
7.95642
7.9088
7.81237
7.80984
7.83934
7.97663
7.96459
7.83521
7.99131
7.94863
7.88847
7.73398
7.8694
7.84345
7.64966
7.8301
7.76215
7.97627
7.95062
7.99155
7.98153
7.96217
7.8766
7.90777
7.92706
7.80749
7.78208
8.00016
7.90085
7.88366
7.83171
7.93042
7.96708
7.6517
7.96413
7.96831
7.84595
7.89653
7.72403
7.94276
7.85971
7.99365
7.87175
7.95762
7.51864
7.5675
7.54054
7.87836
7.28096
7.69208
7.5977
7.78785
7.42637
7.89816
7.81105
7.92877
7.9473
7.99745
7.93054
7.64526
7.49167
7.90797
7.52734
7.48009
7.36
7.29193
7.64295
7.11694
7.97696
7.99395
8.00102
7.97658
7.67413
7.71009
7.62419
7.69533
7.99153
7.97822
7.86567
7.9884
7.52643
7.6727
7.80475
7.52863
7.88994
7.9254
7.98149
7.5108
7.7086
7.70392
7.6339
7.93711
7.31428
7.68304
7.94879
7.33702
7.26077
7.17235
7.99948
7.11234
7.55423
7.72815
7.47623
7.56882
7.69959
7.09367
7.9089
7.61203
7.88466
7.14162
7.84903
7.6765
7.20454
7.70571
7.24769
7.73119
7.97063
7.8498
7.82801
7.96597
7.34118
7.8422
7.86466
7.36294
7.13198
7.47356
7.99772
7.12031
7.97836
7.09524
7.97617
7.97111
7.3448
7.46671
)


// ************************************************************************* //
