/*--------------------------------*- C++ -*----------------------------------*\
| =========                 |                                                 |
| \\      /  F ield         | OpenFOAM: The Open Source CFD Toolbox           |
|  \\    /   O peration     | Version:  plus.master.MPPICInterFoam            |
|   \\  /    A nd           | Web:      www.OpenFOAM.com                      |
|    \\/     M anipulation  |                                                 |
\*---------------------------------------------------------------------------*/
FoamFile
{
    version     2.0;
    format      ascii;
    class       Cloud<basicKinematicMPPICParcel>;
    location    "8/lagrangian/kinematicCloud";
    object      positions;
}
// * * * * * * * * * * * * * * * * * * * * * * * * * * * * * * * * * * * * * //

2994
(
(-0.0562077 -0.0101843 0.394691) 5713
(-0.0535364 -0.0143199 0.395669) 5713
(-0.0315602 -0.0487949 0.3905) 6521
(-0.0319139 -0.0484107 0.391483) 6521
(-0.0492077 -0.00922655 0.406956) 5768
(-0.0504488 -0.0115762 0.399909) 5712
(-0.0436083 -0.0340204 0.39417) 5729
(-0.0389973 -0.0344761 0.401967) 5728
(-0.043192 -0.0324632 0.394525) 5728
(-0.048384 -0.009374 0.40544) 5768
(-0.0391153 -0.032502 0.40475) 5784
(-0.0419791 -0.0306993 0.397972) 5728
(-0.0325418 -0.0452677 0.395155) 6577
(-0.0418565 -0.0336389 0.391743) 5672
(-0.0321383 -0.0432648 0.401384) 6576
(-0.0495943 -0.0147947 0.398804) 5712
(-0.0320305 -0.0443514 0.394982) 6577
(-0.0415452 -0.0396769 0.387791) 5673
(-0.042658 -0.0349553 0.390097) 5673
(-0.0415095 -0.033141 0.392169) 5672
(-0.0524389 -0.0147693 0.391364) 5657
(-0.0320399 -0.0439409 0.394423) 6577
(-0.0520378 -0.0117579 0.393053) 5712
(-0.0301588 -0.0399296 0.40929) 6632
(-0.0304582 -0.045799 0.392751) 6577
(-0.0448535 -0.0332407 0.389507) 5673
(-0.0319405 -0.0448328 0.391135) 6521
(-0.0428448 -0.0333999 0.38984) 5673
(-0.0322558 -0.0462588 0.390405) 6521
(-0.0300298 -0.0402967 0.406615) 6632
(-0.0358419 -0.0340374 0.410905) 5784
(-0.0280332 -0.0468941 0.391408) 6529
(-0.0441362 -0.0306231 0.401366) 5728
(-0.0504029 -0.014152 0.393803) 5712
(-0.0383042 -0.0347335 0.394811) 5728
(-0.0321161 -0.0466551 0.389324) 6521
(-0.0305852 -0.0464631 0.390789) 6521
(-0.0424202 -0.0365707 0.389107) 5673
(-0.0307732 -0.0417185 0.396024) 6576
(-0.0305637 -0.0449918 0.39127) 6521
(-0.0475542 -0.00926331 0.405369) 5767
(-0.0539957 -0.0104807 0.392518) 5657
(-0.0437285 -0.0327073 0.389482) 5673
(-0.0551459 -0.013803 0.388874) 5657
(-0.0533835 0.00519001 0.403065) 5760
(-0.0292003 -0.0448068 0.393324) 6576
(-0.0388458 -0.0319677 0.399729) 5728
(-0.051404 -0.0141598 0.393013) 5712
(-0.0280943 -0.0423916 0.400939) 6576
(-0.0473498 -0.0080911 0.408262) 5767
(-0.0517112 -0.00931535 0.394579) 5712
(-0.049701 -0.00924616 0.398027) 5712
(-0.0411234 -0.02921 0.403355) 5784
(-0.0525699 0.00521214 0.401759) 5704
(-0.0275268 -0.0481131 0.393573) 6585
(-0.0515756 0.0018177 0.402985) 5760
(-0.0338917 -0.0438282 0.391656) 6521
(-0.0524328 0.00297528 0.401721) 5704
(-0.0346842 -0.044484 0.391988) 6521
(-0.050881 -0.0147632 0.393544) 5712
(-0.0522469 0.00520981 0.401383) 5704
(-0.0426768 -0.0297047 0.398098) 5728
(-0.0501444 -0.0087965 0.397834) 5712
(-0.0536646 -0.000497038 0.395702) 5704
(-0.0511853 -0.0159593 0.393446) 5712
(-0.0309186 -0.0422583 0.3962) 6576
(-0.0489908 -0.0095543 0.402451) 5712
(-0.0469934 -0.00685736 0.415615) 5823
(-0.0349146 -0.0456904 0.391139) 6521
(-0.0507177 -0.0177847 0.393705) 5720
(-0.0585208 -0.00933209 0.388652) 5657
(-0.0552784 0.00445585 0.396182) 5705
(-0.0498301 0.0149651 0.405513) 5752
(-0.0496111 -0.0168445 0.395271) 5712
(-0.0535199 -0.0151752 0.391089) 5657
(-0.0541778 -0.0126545 0.390141) 5657
(-0.0372695 -0.0287266 0.41828) 5839
(-0.0528724 0.00562626 0.396634) 5704
(-0.0493473 0.0136979 0.40536) 5752
(-0.0504279 0.00206848 0.403597) 5760
(-0.0513192 0.00437285 0.401366) 5704
(-0.0428695 -0.0330173 0.3943) 5729
(-0.0484606 0.00362949 0.412751) 5815
(-0.049082 0.0122898 0.405395) 5752
(-0.0280698 -0.0435334 0.400607) 6576
(-0.0545714 0.00610043 0.396499) 5705
(-0.0428747 -0.023327 0.415949) 5832
(-0.0535583 0.00664541 0.399638) 5696
(-0.047394 -0.00756756 0.413126) 5823
(-0.0596832 -0.00968055 0.388063) 5658
(-0.0429515 -0.0228995 0.414282) 5831
(-0.0450524 -0.0203404 0.411487) 5776
(-0.0457609 -0.00731214 0.419258) 5823
(-0.0518876 0.00660952 0.402599) 5696
(-0.0459579 -0.0239461 0.408518) 5776
(-0.0477207 -0.0214794 0.408236) 5776
(-0.0508832 0.0156956 0.403493) 5752
(-0.0530434 -0.0132379 0.392974) 5713
(0.0609111 -0.0102864 0.378045) 4690
(-0.0483768 0.0134953 0.405823) 5752
(-0.0454917 -0.0194408 0.410949) 5776
(-0.0501955 -0.0135707 0.400607) 5712
(-0.054057 0.000734042 0.395468) 5704
(-0.0478795 -0.011023 0.409589) 5768
(-0.0461967 -0.0192092 0.407901) 5776
(-0.0501816 -0.0168398 0.401192) 5712
(-0.0551488 0.00569544 0.3969) 5705
(-0.0530209 -0.0157372 0.393085) 5713
(0.0563328 -0.013761 0.383992) 4745
(0.0598677 -0.0116029 0.3783) 4690
(0.0610295 -0.00932016 0.378544) 4690
(-0.0504249 0.0114276 0.403857) 5752
(-0.037518 -0.030683 0.40828) 5783
(-0.0490758 -0.0151301 0.40361) 5768
(0.0503307 -0.0105782 0.396143) 4800
(-0.0561245 0.00285699 0.395902) 5705
(-0.044862 -0.020021 0.406671) 5776
(-0.0433197 -0.0335333 0.397275) 5729
(-0.0425703 -0.0371253 0.397668) 5729
(-0.0476361 -0.012467 0.410818) 5768
(-0.051202 -0.0126304 0.397474) 5712
(0.0640421 -0.00904142 0.370677) 4634
(0.0633237 -0.00885415 0.37078) 4634
(-0.0501778 0.015112 0.403491) 5752
(-0.0554799 -0.0112758 0.392756) 5713
(-0.0427698 -0.0353113 0.398467) 5729
(0.057747 -0.0126111 0.380953) 4689
(0.0574164 -0.0113268 0.381027) 4689
(-0.0284942 -0.0349418 0.424543) 6743
(-0.0285536 -0.0385907 0.414119) 6687
(-0.037452 -0.0299079 0.411608) 5783
(-0.0484173 0.00182938 0.410648) 5759
(-0.0487478 -0.0190414 0.410536) 5776
(-0.0405907 -0.0324652 0.401785) 5728
(0.057409 -0.0127514 0.380724) 4689
(-0.0416663 -0.0290286 0.410315) 5784
(-0.0418027 -0.0234509 0.410212) 5775
(-0.051623 -0.0160669 0.396629) 5712
(-0.0522001 -0.0143064 0.396326) 5712
(-0.05 -0.0118549 0.402263) 5712
(0.0604443 -0.0161949 0.385242) 4746
(0.0482476 -0.00664338 0.404912) 4855
(0.0564495 -0.0120475 0.382015) 4689
(-0.03904 0.0360098 0.415201) 5792
(-0.0457551 -0.0201251 0.405985) 5776
(-0.0500941 -0.00689824 0.407949) 5768
(-0.0485372 -0.0143106 0.412829) 5824
(-0.0489064 -0.0132712 0.403695) 5768
(-0.0524917 0.0163197 0.404106) 5753
(0.0614405 -0.0092513 0.372231) 4634
(0.0614773 -0.0089533 0.372416) 4634
(-0.0478547 0.0234204 0.409189) 5744
(-0.0491417 -0.0141466 0.405197) 5768
(-0.0319943 -0.0415145 0.403934) 6632
(-0.0567357 -0.0119807 0.394465) 5713
(0.0561303 -0.0117536 0.381598) 4689
(0.0561156 -0.011322 0.382512) 4689
(0.0646839 -0.00858055 0.372262) 4634
(-0.0502932 0.0108429 0.405789) 5752
(-0.0468382 0.0151715 0.411756) 5752
(-0.0531857 -0.0111917 0.396763) 5713
(-0.0512359 -0.0129477 0.401338) 5712
(-0.0555282 0.00118337 0.397741) 5705
(0.0525017 -0.0120553 0.390132) 4744
(0.0605491 -0.00737427 0.38201) 4690
(0.0541027 -0.0123004 0.385606) 4745
(-0.0458455 0.0136393 0.415744) 5807
(-0.0489692 0.0177516 0.410389) 5744
(-0.048331 0.012561 0.407355) 5752
(-0.0281709 -0.046214 0.400132) 6584
(-0.0515806 0.00194534 0.404511) 5760
(-0.0545952 0.000980322 0.398768) 5705
(0.0546211 -0.0134138 0.385006) 4745
(-0.0533868 -0.0110958 0.397405) 5713
(-0.0363747 -0.034086 0.40866) 5784
(-0.0586265 -0.0108478 0.393987) 5714
(0.0503274 -0.0117488 0.402723) 4856
(0.0534895 -0.012607 0.388325) 4745
(-0.0192595 -0.0449239 0.411309) 6640
(-0.0438935 -0.0186885 0.420689) 5831
(-0.0465656 0.025389 0.408671) 5744
(-0.0527433 -0.0100865 0.400721) 5712
(-0.0536726 -0.0117332 0.397617) 5713
(-0.0503115 -0.0105528 0.404846) 5768
(-0.0465077 -0.0132553 0.418607) 5823
(0.0535811 -0.0125881 0.388915) 4745
(-0.0476804 0.00177629 0.417579) 5815
(-0.0560225 0.00318953 0.397925) 5705
(-0.040965 -0.0342669 0.402397) 5728
(-0.0547134 0.000326781 0.399036) 5705
(0.0586276 -0.0110502 0.377236) 4690
(-0.0255898 -0.0416051 0.413476) 6695
(-0.0469945 0.00321462 0.419906) 5815
(0.054734 -0.0119562 0.387106) 4745
(0.0624118 -0.00991541 0.374106) 4690
(-0.0491894 0.00590455 0.413942) 5808
(-0.0344996 -0.0322241 0.416926) 5839
(-0.0355106 -0.0273321 0.432051) 5895
(-0.0485918 0.00570817 0.416823) 5807
(-0.0434674 -0.0181585 0.421862) 5831
(-0.0483652 -0.0210471 0.407895) 5776
(-0.0341473 -0.0404251 0.410465) 6632
(-0.0452299 -0.0115364 0.421175) 5823
(-0.0507006 0.00516837 0.408923) 5760
(-0.046951 -0.0200954 0.409417) 5776
(-0.0387944 -0.029763 0.411763) 5784
(-0.0550045 -0.0146972 0.398499) 5713
(-0.0519858 -0.00917713 0.40426) 5768
(-0.0283116 -0.0443065 0.406444) 6632
(-0.0297661 -0.0423907 0.408049) 6632
(0.0505597 -0.0104474 0.403192) 4856
(0.0542739 -0.0106454 0.391951) 4745
(0.0588545 -0.0109431 0.380168) 4690
(0.0549723 -0.0120424 0.381085) 4689
(0.0631261 -0.00945657 0.375725) 4690
(-0.0179974 -0.0445773 0.416449) 6695
(-0.0452818 -0.0111839 0.421147) 5823
(-0.0572149 -0.00886668 0.399512) 5713
(-0.0285478 -0.0457256 0.405169) 6640
(0.0531398 -0.0112582 0.396243) 4801
(-0.0182619 -0.0452228 0.416139) 6695
(-0.0443204 -0.011975 0.423743) 5879
(-0.0475875 -0.0112119 0.414879) 5824
(-0.054015 -0.00206519 0.403936) 5760
(-0.0344634 -0.0403069 0.410937) 6632
(-0.0255043 -0.0399797 0.420069) 6687
(-0.0465349 -0.0192122 0.411676) 5776
(-0.0397435 -0.0330749 0.408674) 5784
(-0.0286578 -0.0435071 0.408793) 6632
(-0.0554738 -0.014521 0.399836) 5713
(-0.0517862 0.0138775 0.408155) 5752
(0.0521603 -0.0104387 0.389299) 4744
(0.0553638 -0.012751 0.383676) 4745
(0.0625899 -0.0108183 0.376423) 4690
(-0.0486573 -0.00935133 0.412672) 5824
(-0.0478078 -0.0232388 0.409671) 5776
(-0.0559995 -0.0128205 0.400116) 5713
(-0.0323521 -0.0418476 0.407305) 6632
(-0.0403103 -0.0351513 0.406173) 5784
(0.0531269 -0.0107762 0.398533) 4801
(0.0537586 -0.0120433 0.388366) 4745
(0.0656717 -0.0116185 0.37348) 4691
(-0.0502925 0.00909322 0.41595) 5808
(-0.0554659 -0.00792501 0.402765) 5769
(-0.0464148 -0.0270625 0.411186) 5776
(-0.0499661 0.00564432 0.41398) 5808
(-0.0478433 -0.00890192 0.416349) 5823
(0.0486993 -0.00795498 0.410004) 4856
(0.0539244 -0.0139274 0.387751) 4745
(0.0505081 -0.00884902 0.393878) 4800
(0.064183 -0.011469 0.376022) 4691
(-0.0482517 0.0251059 0.410628) 5745
(-0.0502889 -0.00915178 0.409787) 5768
(0.0534405 -0.0126284 0.391063) 4745
(0.0598727 -0.0140867 0.38114) 4690
(-0.0484689 -0.0146276 0.415104) 5824
(-0.0482522 0.0172837 0.416677) 5800
(-0.0517052 -0.0129733 0.406387) 5768
(-0.0532853 -0.0113734 0.404041) 5769
(-0.0536603 -0.00994013 0.403849) 5769
(0.052865 -0.0117214 0.391662) 4745
(0.0630403 -0.012195 0.377642) 4690
(-0.0309178 -0.039832 0.414121) 6688
(-0.054571 -0.0165592 0.40204) 5713
(0.0547381 -0.0141413 0.387507) 4745
(0.0543399 -0.0121602 0.389698) 4745
(0.0593277 -0.0136396 0.382354) 4690
(0.060193 -0.015787 0.381321) 4690
(-0.0389277 -0.0281191 0.420279) 5839
(-0.0362688 -0.0288753 0.424087) 5895
(0.0545961 -0.0108045 0.393491) 4801
(0.0569789 -0.0148729 0.384323) 4745
(0.0537011 -0.0138706 0.389794) 4745
(0.056146 -0.000873838 0.383599) 4753
(-0.0506278 0.00230945 0.411819) 5760
(-0.052684 -0.0122445 0.405554) 5768
(-0.0508992 0.000998276 0.411188) 5760
(-0.0533982 0.00279355 0.406747) 5760
(0.0493714 -0.00621068 0.410418) 4856
(0.0541022 -0.0135035 0.389454) 4745
(-0.0176328 -0.0455896 0.419805) 6695
(-0.0397495 -0.0320536 0.412656) 5840
(-0.0541449 -0.0136529 0.403616) 5769
(0.0593485 -0.0151882 0.38335) 4746
(-0.0371642 -0.0333446 0.414732) 5840
(0.0557751 -0.0151624 0.386869) 4745
(0.0668852 -0.0102264 0.377945) 4691
(-0.0163646 -0.045059 0.420908) 6695
(-0.0174119 -0.0469698 0.418233) 6696
(-0.0518914 0.0118276 0.410577) 5752
(0.0513705 -0.00868642 0.407512) 4856
(0.0545677 -0.0126493 0.39075) 4745
(-0.0439148 -0.0104756 0.428937) 5879
(-0.0365423 -0.0334563 0.415898) 5840
(0.0499911 -0.00719995 0.410058) 4856
(-0.0616419 0.00222112 0.385131) 5650
(-0.0623766 0.00237078 0.38355) 5650
(0.0474571 -0.00733728 0.404144) 4855
(0.0643064 -0.0121047 0.379351) 4691
(0.0577155 -0.0153072 0.386233) 4746
(0.0582718 -0.0191397 0.384927) 4746
(0.0548114 -0.014952 0.390994) 4745
(0.0590865 -0.00105844 0.381553) 4697
(-0.0499175 -0.0120201 0.41207) 5768
(0.0541199 -0.011756 0.393853) 4801
(0.0603263 -0.0158526 0.384222) 4746
(0.05283 -0.0124438 0.395583) 4801
(0.0600296 -0.00114292 0.38222) 4698
(-0.0488242 0.0168011 0.416105) 5808
(-0.0189528 -0.0451874 0.420763) 6696
(0.0575793 -0.0149694 0.387301) 4745
(0.057076 -0.0158694 0.386955) 4745
(0.0593524 -0.00116167 0.383596) 4753
(-0.0317324 -0.0311999 0.436463) 5951
(-0.0292202 -0.0349279 0.42772) 6743
(-0.0243838 -0.0389065 0.42663) 6751
(-0.0477873 0.0169227 0.41984) 5800
(-0.0399264 0.0346513 0.412122) 5736
(0.0511042 -0.0179128 0.408736) 4848
(-0.0542959 -0.0112149 0.405864) 5769
(0.0520871 -0.0094558 0.400301) 4800
(-0.0597581 0.00307377 0.388782) 5650
(0.0579016 -0.0158743 0.386855) 4746
(0.0546574 -0.0108616 0.394134) 4801
(0.062082 -0.0156495 0.383087) 4746
(0.0562395 -0.016847 0.389212) 4745
(0.0600341 -0.00122093 0.38355) 4754
(-0.0158061 -0.0445656 0.425377) 6751
(-0.0507063 -0.00871164 0.413916) 5824
(-0.0506618 -0.00639166 0.417949) 5824
(-0.0505588 0.000400932 0.414133) 5816
(-0.0158623 -0.0469915 0.419115) 6704
(0.0508452 -0.0109097 0.408465) 4856
(0.0531322 -0.00875042 0.399895) 4800
(0.0524158 -0.0101871 0.398787) 4800
(0.0531031 -0.0115607 0.397403) 4801
(0.0543227 -0.0112772 0.394413) 4801
(0.0560801 -0.0143812 0.389976) 4745
(0.0549726 -0.012196 0.392998) 4801
(0.057014 -0.0144606 0.389357) 4745
(0.0585497 -0.0159968 0.38637) 4746
(0.0534715 -0.0109576 0.395295) 4801
(0.0533647 -0.0118059 0.395299) 4801
(0.0563916 -0.0152576 0.389437) 4745
(-0.0441643 -0.00691019 0.430506) 5879
(-0.0164245 -0.0457712 0.420886) 6695
(-0.054004 -0.00902072 0.408489) 5769
(-0.0579523 -0.000756643 0.39962) 5705
(0.0503761 -0.00746849 0.411796) 4856
(0.0525406 -0.0115177 0.399095) 4800
(0.0533531 -0.0111439 0.39511) 4801
(0.0547224 -0.0122494 0.393653) 4801
(0.0558814 -0.0133792 0.390951) 4745
(0.0609361 -0.0159945 0.385031) 4746
(0.0539134 -0.0115231 0.394822) 4801
(0.0561939 -0.00183195 0.389028) 4753
(-0.0262493 -0.0417603 0.42085) 6688
(-0.0433289 -0.0071775 0.433631) 5935
(-0.0463623 -0.0217551 0.415885) 5832
(0.0544978 -0.0123352 0.393733) 4801
(0.0603287 -0.0167047 0.385578) 4746
(0.0543929 -0.0123377 0.393848) 4801
(-0.0312899 -0.0390175 0.419274) 6688
(-0.0443707 0.0229927 0.419749) 5800
(-0.0295231 -0.03764 0.422896) 6743
(-0.0365925 -0.0297208 0.423738) 5895
(-0.0187194 -0.0443949 0.422998) 6751
(-0.0572842 -0.00996865 0.404381) 5769
(0.0513513 -0.0103834 0.408995) 4856
(0.0529135 -0.0104717 0.397671) 4800
(0.0536498 -0.0107395 0.395621) 4801
(-0.0472919 0.0295415 0.411107) 5745
(-0.0454262 -0.0198688 0.419933) 5832
(-0.0502638 -0.0232783 0.414103) 5833
(0.0521312 -0.0090508 0.409401) 4856
(0.0483706 -0.00919777 0.40251) 4800
(0.0560937 -0.0125821 0.39195) 4745
(-0.0346941 -0.0251707 0.439435) 5950
(-0.0447807 -0.0195319 0.422092) 5832
(0.0510739 -0.00894526 0.402994) 4856
(0.0593921 -0.0159524 0.387124) 4746
(0.0539376 -0.0135625 0.394794) 4801
(-0.0496176 -0.017637 0.420476) 5832
(-0.0477909 0.00868347 0.423111) 5863
(-0.048563 0.00454477 0.420299) 5815
(-0.0506926 0.0134538 0.414774) 5808
(-0.0318354 0.0465016 0.404544) 7625
(-0.0594468 -0.000295815 0.388312) 5649
(-0.0589171 0.00153587 0.388638) 5649
(0.0653271 -0.0110607 0.378793) 4691
(-0.0458295 -0.0125554 0.423328) 5879
(-0.0299144 -0.038305 0.422475) 6743
(-0.0533367 -0.000666303 0.410838) 5760
(-0.0583611 -0.00149556 0.399044) 5705
(0.0529038 -0.0127172 0.398257) 4801
(0.0542125 -0.011975 0.394162) 4801
(0.0552818 -0.0123468 0.39278) 4801
(0.0558941 -0.0139185 0.383737) 4745
(-0.0169542 -0.0426249 0.429072) 6751
(-0.0281615 0.0472129 0.409081) 7617
(-0.0582777 0.00193507 0.395231) 5705
(0.0563787 -0.010061 0.393153) 4801
(0.0554026 -0.0103357 0.393928) 4801
(0.0497274 -0.0118765 0.401477) 4800
(0.0522746 -0.0130581 0.399282) 4800
(0.0558211 -0.0131038 0.385488) 4745
(0.057707 -0.0140835 0.385069) 4745
(0.0573367 -0.0020396 0.389802) 4753
(0.0565081 -0.012766 0.385688) 4745
(0.0558524 -0.0172929 0.384364) 4745
(-0.0337517 0.0426536 0.410621) 7625
(-0.0383877 0.0329165 0.419198) 5792
(-0.0383888 0.0355241 0.415539) 5792
(-0.0315442 0.0438558 0.408863) 7624
(-0.0503601 0.0241252 0.409617) 5745
(-0.0582449 0.000162381 0.396286) 5705
(-0.0595246 0.00408916 0.390883) 5650
(0.0557066 -0.00985614 0.394045) 4801
(0.0515286 -0.0126947 0.39991) 4800
(-0.0401599 -0.0226792 0.42957) 5887
(-0.0524497 -0.00989286 0.412865) 5824
(-0.0494364 0.0168505 0.416658) 5808
(0.058961 -0.010444 0.394838) 4802
(0.0490262 -0.0103991 0.401938) 4800
(-0.038847 -0.0222336 0.436069) 5943
(0.0075774 -0.0551827 0.409568) 6665
(-0.0434758 0.0217813 0.422793) 5855
(-0.0556644 0.00236345 0.407333) 5761
(-0.0590562 0.0031698 0.388924) 5649
(0.0584262 -0.0110202 0.389991) 4745
(0.0606426 -0.0137605 0.382884) 4746
(-0.0421628 -0.00686189 0.442253) 5990
(-0.045993 0.00869428 0.425522) 5863
(-0.0256599 -0.0425578 0.422348) 6696
(-0.0441254 0.0198761 0.423182) 5855
(-0.0492341 0.0158811 0.417151) 5808
(-0.0376733 -0.0316172 0.420611) 5840
(-0.0399412 0.0376318 0.409246) 5737
(-0.0307794 0.0457175 0.406821) 7625
(0.0528527 -0.0117211 0.397912) 4801
(0.0614398 -0.0131539 0.382037) 4690
(-0.0479505 -0.00973449 0.42071) 5824
(-0.0492295 0.0114541 0.418451) 5808
(-0.00361177 0.0571252 0.405616) 7601
(-0.0275044 0.0454613 0.409653) 7616
(-0.057731 0.00300249 0.39724) 5705
(0.0559495 -0.0120799 0.391153) 4745
(0.0632061 -0.0112939 0.380994) 4690
(-0.0276477 -0.0327877 0.438034) 6798
(-0.0255546 -0.0426228 0.422546) 6752
(-0.0156807 0.0549057 0.413772) 7665
(-0.0388345 -0.0377446 0.414787) 5840
(-0.0274515 0.0458286 0.411654) 7616
(-0.0575994 0.0116091 0.394931) 5697
(-0.0278846 0.0488234 0.406975) 7617
(-0.0604083 0.00373875 0.388701) 5650
(0.0564149 -0.00990378 0.393342) 4801
(-0.0606596 0.00243907 0.388111) 5650
(0.0489752 -0.0124586 0.403496) 4856
(0.0484352 -0.0124006 0.404333) 4856
(0.054352 -0.00218794 0.394123) 4809
(-0.0485299 0.0220771 0.415619) 5800
(-0.0491996 0.0139277 0.417736) 5808
(-0.0351235 0.0446845 0.406597) 7625
(0.0533734 -0.0156756 0.411403) 4857
(-0.0540085 -0.0111189 0.411123) 5769
(-0.0573803 0.00338734 0.400129) 5705
(-0.0575621 -0.00224113 0.402392) 5705
(-0.0588803 0.0035111 0.392495) 5649
(0.054994 -0.00628789 0.401068) 4801
(-0.0578375 -0.0154709 0.40112) 5714
(0.0579454 -0.00972808 0.392643) 4745
(-0.0592772 0.0156931 0.391932) 5642
(-0.0421812 -0.0103083 0.436833) 5934
(-0.0425449 -0.0110275 0.434149) 5935
(-0.0472031 -0.0128014 0.421906) 5824
(-0.0112131 -0.0523568 0.414477) 6704
(-0.0058941 0.0533262 0.410704) 7600
(-0.058579 0.00424274 0.399075) 5705
(-0.0576646 0.00381393 0.399764) 5705
(0.0561147 -0.00950044 0.389508) 4745
(0.0588505 -0.00214607 0.391299) 4753
(0.0652891 -0.0116494 0.379855) 4691
(-0.0512846 0.00398929 0.418688) 5816
(-0.0273777 0.0474538 0.408115) 7617
(-0.0521946 0.0156771 0.409887) 5753
(0.00972852 0.0547486 0.403508) 7593
(0.00936285 0.0566292 0.399903) 7537
(-0.0215706 -0.0552425 0.403199) 6641
(-0.0278398 0.0483735 0.407157) 7617
(-0.0407296 0.0387458 0.403536) 5737
(-0.0408619 0.0386751 0.403453) 5737
(-0.0064975 -0.0550368 0.400606) 6593
(0.0620582 -0.00995188 0.39118) 4746
(0.0663387 -0.0102799 0.381633) 4691
(0.06314 -0.0121953 0.382066) 4690
(-0.0503934 -0.00586822 0.424487) 5880
(-0.0283356 -0.036158 0.42866) 6743
(-0.0440824 -0.0170776 0.433851) 5943
(-0.0169406 -0.0433031 0.430355) 6751
(0.00919872 -0.0525883 0.414461) 6720
(-0.0278247 -0.0403562 0.424203) 6744
(0.00661233 -0.0534473 0.412922) 6720
(-0.0413727 0.0342516 0.412158) 5736
(-0.0427507 0.0361196 0.403241) 5737
(-0.0513818 0.0287228 0.396906) 5689
(0.0473342 -0.00855254 0.410299) 4855
(0.0534167 -0.00980962 0.398844) 4801
(0.0570699 -0.00732982 0.395145) 4801
(0.060679 -0.0186111 0.38741) 4746
(-0.0563897 0.0133971 0.395454) 5697
(-0.0572647 0.0140792 0.393251) 5697
(0.062586 -0.0125385 0.382376) 4690
(-0.0154071 -0.0438901 0.430408) 6751
(0.052355 -0.0100012 0.410894) 4856
(-0.0227755 -0.0541822 0.401503) 6585
(-0.0268009 0.048158 0.410634) 7617
(-0.0577545 0.00397472 0.400594) 5705
(0.00994145 -0.0517 0.406825) 6664
(-0.0181153 0.0480571 0.417207) 7672
(-0.0408859 0.0375417 0.404864) 5737
(-0.062262 0.00280433 0.388068) 5650
(-0.0562967 0.0180651 0.39824) 5697
(-0.0522378 0.0286316 0.394342) 5689
(0.0536063 -0.0204685 0.39531) 4793
(0.0579081 0.00155975 0.386209) 4753
(0.0647787 0.00011135 0.382579) 4698
(-0.0647428 -0.00304634 0.385657) 5650
(-0.0348487 -0.0271327 0.433767) 5951
(-0.0367429 0.0309034 0.425341) 5847
(-0.0502583 -0.00861641 0.42049) 5824
(-0.0468228 -0.0207546 0.422253) 5832
(0.0484168 -0.0101472 0.419831) 4912
(-0.0556693 0.00046283 0.406664) 5761
(0.00948752 -0.0546955 0.405727) 6665
(0.00896906 -0.0533879 0.406106) 6664
(0.0105838 -0.0536528 0.403938) 6665
(0.0463632 -0.00981139 0.412063) 4855
(0.0121055 -0.0565341 0.40352) 6665
(0.00931199 0.0542573 0.403879) 7593
(0.0110255 -0.0530869 0.404487) 6665
(0.00819625 -0.0538332 0.404147) 6665
(-0.0292689 0.048209 0.402855) 7617
(-0.0501336 -0.00702388 0.422404) 5880
(-0.0256944 -0.0382819 0.429196) 6743
(-0.0470029 0.0296295 0.412957) 5793
(-0.0500308 0.0235201 0.410452) 5745
(-0.0433279 0.0353534 0.406959) 5737
(-0.0413148 0.0367628 0.407168) 5737
(-0.0589009 0.00407098 0.397176) 5705
(0.0116825 -0.0557634 0.404317) 6665
(-0.0619916 -0.00475672 0.394434) 5706
(0.0123133 -0.0567622 0.403337) 6665
(-0.0505335 0.0292712 0.396695) 5689
(-0.0280045 0.0484731 0.405648) 7617
(-0.00247877 0.0587341 0.400049) 7545
(-0.00610901 -0.047931 0.420524) 6703
(-0.0424046 0.0337269 0.411396) 5737
(-0.0605842 -0.00483492 0.402531) 5706
(0.00681478 -0.0545263 0.405704) 6665
(-0.00392892 0.0515927 0.414818) 7656
(0.0107924 -0.0513749 0.408202) 6664
(-0.00408886 -0.055773 0.404398) 6657
(-0.0509058 0.0293664 0.396238) 5689
(-0.0341402 0.0472934 0.399593) 7569
(0.00888705 0.0575561 0.39926) 7537
(0.0646022 -0.000914308 0.383815) 4754
(0.0618381 0.00210929 0.385151) 4754
(-0.0359066 -0.0256822 0.438162) 5951
(-0.0329518 0.0406434 0.418827) 7680
(-0.0465478 8.1201e-05 0.426979) 5871
(-0.0546237 -0.000163319 0.411777) 5761
(0.049423 -0.0101057 0.42023) 4912
(-0.0554864 0.00149059 0.408152) 5761
(-0.0555445 0.000830259 0.406981) 5761
(-0.0569306 0.00367272 0.403815) 5761
(-0.0216493 -0.0530477 0.403052) 6641
(-0.055609 0.0131737 0.401798) 5697
(0.00616187 0.0565583 0.402016) 7545
(-0.00485638 -0.0530126 0.405619) 6656
(0.0546275 -0.00778637 0.393721) 4801
(-0.0174045 0.0523206 0.407653) 7609
(0.0619604 0.000232995 0.385481) 4754
(0.0620253 0.000148606 0.385991) 4754
(-0.0493557 0.00440899 0.42416) 5872
(-0.0481464 0.0291994 0.411323) 5745
(-0.0283619 0.0409322 0.422516) 7736
(0.0466847 -0.00902152 0.425769) 4967
(-0.047836 0.0209606 0.417622) 5800
(-0.0549237 0.000420439 0.411049) 5761
(-0.0058886 -0.0535934 0.406432) 6656
(-0.0610603 0.00525629 0.398007) 5706
(-0.0501693 0.025121 0.408235) 5745
(0.00558554 -0.0573903 0.404937) 6657
(-0.0570733 -0.0111178 0.405506) 5769
(-0.054741 -0.0144578 0.409975) 5769
(-0.00514898 -0.0548835 0.40385) 6657
(-0.0616642 0.00295957 0.390561) 5650
(-0.0640245 -0.00143618 0.38846) 5650
(-0.0571415 0.0152273 0.394199) 5697
(-0.0440261 -0.0386346 0.398591) 5729
(-0.0446601 -0.0191645 0.429229) 5887
(-0.0453682 -0.0135121 0.426863) 5879
(-0.0152425 -0.0430518 0.43223) 6751
(-0.0424619 0.0344426 0.405881) 5737
(-0.0272249 -0.0382536 0.428699) 6743
(-0.0541809 -0.000412542 0.413411) 5817
(-0.0497866 -0.0234421 0.412962) 5833
(0.00921413 -0.051439 0.416788) 6720
(-0.0549376 9.53376e-05 0.410828) 5761
(-0.0148063 0.0493801 0.419549) 7664
(0.0116713 -0.0550542 0.407288) 6665
(-0.0613188 -0.00134368 0.390648) 5650
(-0.0611504 0.00282698 0.390483) 5650
(-0.0498054 0.0307108 0.400169) 5689
(-0.035989 -0.0449332 0.405988) 6633
(-0.0631847 0.00134871 0.390587) 5650
(-0.0445349 0.00416173 0.434644) 5927
(-0.0378758 -0.0261119 0.436712) 5951
(-0.0465371 -0.00971561 0.425776) 5879
(-0.0254466 -0.0424412 0.42692) 6752
(-0.0369654 -0.031664 0.425522) 5895
(-0.0523895 -0.00996958 0.418131) 5824
(0.0472527 -0.0104889 0.423185) 4967
(-0.00805823 -0.0519057 0.416874) 6704
(-0.0201933 -0.0526015 0.402416) 6585
(0.0123025 -0.0548049 0.406122) 6665
(-0.0206558 -0.0523901 0.402113) 6585
(-0.0425506 -0.0364446 0.4048) 5785
(-0.00675336 -0.0519313 0.408824) 6648
(0.0102263 -0.0513851 0.408008) 6664
(-0.062224 -0.00512745 0.396675) 5706
(-0.00403542 0.0502494 0.417308) 7656
(-0.0610689 0.00325385 0.390986) 5650
(-0.0500147 0.0293981 0.397147) 5689
(-0.0346471 -0.0455704 0.404341) 6633
(-0.0655442 -0.00182309 0.388954) 5651
(-0.04145 0.038252 0.401938) 5681
(-0.0527202 -0.00846926 0.419637) 5824
(-0.0281784 0.0397461 0.424892) 7735
(-0.0489701 -0.0259445 0.409744) 5777
(0.0475089 -0.00981001 0.423683) 4967
(0.00845467 -0.0516934 0.415201) 6720
(-0.0314646 -0.0465791 0.409724) 6633
(0.0545908 -0.00898243 0.4073) 4857
(0.049776 -0.00890009 0.418881) 4912
(-0.0529205 0.0245078 0.398051) 5689
(-0.00791005 -0.052427 0.407702) 6648
(-0.0618498 -0.00254772 0.391241) 5650
(-0.015712 0.0481605 0.420686) 7664
(-0.0435608 0.0399808 0.401829) 5681
(0.0576319 -0.00264512 0.39441) 4809
(0.0619032 -0.00222529 0.391351) 4754
(-0.0204321 0.0503133 0.407915) 7617
(-0.0199991 0.0534866 0.406806) 7617
(-0.0486119 -0.0111425 0.422983) 5880
(-0.0496179 -0.0140413 0.421934) 5824
(-0.0496252 -0.0153116 0.42216) 5824
(-0.0498797 -0.0117912 0.421218) 5824
(-0.0466803 0.00173155 0.428116) 5871
(-0.0408398 -0.0363075 0.411806) 5785
(-0.00161534 0.0518523 0.410965) 7600
(-0.0412467 -0.036503 0.410538) 5785
(0.0482969 -0.0096471 0.421582) 4912
(-0.0205419 -0.0519777 0.401899) 6585
(0.0126968 -0.0552167 0.404475) 6665
(-0.0562999 0.00368837 0.40597) 5761
(-0.0419969 -0.0377509 0.40241) 5729
(-0.0547766 0.0130412 0.401586) 5697
(-0.045485 -0.0377152 0.398034) 5729
(0.059727 0.00329196 0.389787) 4754
(-0.0309792 0.0479431 0.402418) 7569
(0.0649327 0.0018789 0.385276) 4754
(-0.041128 -0.0104436 0.444565) 5990
(-0.019563 -0.0437993 0.43284) 6807
(-0.0485786 -0.0129486 0.422771) 5880
(-0.051382 -0.021761 0.413786) 5833
(-0.0378895 -0.0325163 0.424009) 5896
(-0.0218893 -0.0501948 0.417411) 6697
(-0.000228734 0.0586938 0.403759) 7601
(-0.0028814 -0.0545604 0.415405) 6713
(0.00846723 -0.0518281 0.41728) 6720
(-0.0416423 -0.0362025 0.40995) 5785
(-0.0536861 -0.00300919 0.418334) 5816
(-0.0272526 0.04015 0.427093) 7735
(0.0538984 -0.00882259 0.410094) 4857
(-0.00684375 -0.0512936 0.410259) 6648
(-0.0500009 0.0271295 0.404584) 5745
(-0.00701443 -0.0507923 0.409859) 6648
(-0.0574737 -0.0106422 0.403045) 5769
(-0.0516901 0.031328 0.394349) 5690
(-0.0389199 0.0359805 0.409603) 5736
(-0.0586008 0.00293098 0.398242) 5705
(-0.0348859 0.0350952 0.426951) 7736
(-0.00892394 -0.0509555 0.419499) 6704
(-0.0174055 0.0453556 0.423741) 7727
(-0.0532444 0.0125843 0.408928) 5753
(0.0504374 -0.00926706 0.418126) 4912
(-0.0187036 -0.0521397 0.401085) 6585
(-0.0558263 0.0110288 0.403881) 5753
(-0.0587055 -0.0100874 0.400778) 5713
(-0.00084011 0.0567783 0.406025) 7601
(-0.00528401 0.0548791 0.405076) 7601
(0.063969 -0.011591 0.386216) 4746
(0.0587977 0.0114462 0.39691) 4818
(-0.0417118 -0.0122704 0.437525) 5934
(-0.0427179 -0.00589856 0.437772) 5934
(-0.0143636 -0.0425751 0.434987) 6815
(-0.049472 -0.0152347 0.422794) 5880
(-0.0265229 -0.0411828 0.427651) 6743
(-0.0146135 0.0472297 0.423367) 7720
(0.0458829 -0.00840121 0.428047) 4967
(-0.0493442 0.0302633 0.405689) 5745
(-0.0085579 0.0518495 0.413798) 7664
(-0.01761 0.0451944 0.423976) 7727
(-0.00544072 -0.0504049 0.411861) 6656
(-0.00557943 -0.054625 0.400003) 6601
(-0.0346603 0.0444252 0.409871) 7625
(-0.0445915 -0.0368313 0.39975) 5729
(-0.0307414 0.0450553 0.406419) 7625
(-0.014488 -0.041568 0.436961) 6815
(-0.0265001 -0.0370782 0.432919) 6799
(-0.0505628 -0.0104418 0.421914) 5824
(-0.027586 -0.0392232 0.42895) 6743
(-0.0400375 -0.0378771 0.41221) 5785
(-0.0325463 -0.0426078 0.417156) 6688
(0.0467732 -0.00960259 0.426084) 4967
(-0.0544617 -0.00101444 0.411025) 5761
(-0.0191998 0.0523041 0.408309) 7617
(0.00750507 0.0501475 0.41016) 7592
(-0.0537855 0.0298294 0.392891) 5690
(0.00531003 0.057279 0.403802) 7601
(0.0059395 0.0525431 0.407846) 7592
(-0.0183529 0.0509849 0.40913) 7616
(-0.0435096 0.0391088 0.402198) 5681
(-0.0598999 0.0153088 0.392915) 5698
(0.0617922 -0.00963659 0.38951) 4746
(-0.0583319 -0.0135736 0.399329) 5714
(-0.0482723 -0.0147308 0.424213) 5880
(-0.0541234 -0.00828809 0.417827) 5825
(-0.0161824 0.0446627 0.425827) 7727
(-0.055456 -0.00972839 0.414024) 5825
(-0.0523035 -0.00772301 0.421904) 5824
(-0.0491393 0.0315412 0.408802) 5737
(-0.0524838 0.00153848 0.419943) 5816
(-0.0150699 0.0444162 0.426098) 7719
(0.0563093 0.00899007 0.397829) 4817
(0.00861315 0.0537307 0.403871) 7593
(-0.0345487 -0.0369252 0.429569) 6744
(-0.0498258 -0.00577395 0.428518) 5880
(-0.0249877 -0.0347178 0.439803) 6798
(-0.0487296 -0.0108774 0.423341) 5880
(-0.0161839 -0.039923 0.439642) 6806
(-0.0371782 -0.0348724 0.423679) 5896
(-0.0481526 0.0302083 0.412866) 5801
(-0.04631 -0.0252871 0.4217) 5832
(0.0528818 -0.00999806 0.413355) 4912
(-0.0188858 -0.0514752 0.403918) 6641
(0.0505164 -0.00925106 0.418596) 4912
(-0.0192316 -0.0523077 0.402235) 6585
(-0.0584011 -0.00378209 0.405503) 5761
(-0.0148263 0.044755 0.426502) 7719
(-0.0207188 -0.0515195 0.402304) 6585
(-0.00813457 -0.0542147 0.399841) 6593
(0.0616683 -0.0137371 0.388753) 4746
(-0.0337179 0.0448233 0.405083) 7625
(-0.040602 -0.0333902 0.417288) 5840
(-0.0534188 0.00124461 0.416772) 5816
(-0.0539497 0.00230774 0.412343) 5760
(-0.0525424 -0.0227648 0.408947) 5777
(-0.0439048 0.0214331 0.425758) 5856
(-0.0418275 -0.0357131 0.410191) 5785
(-0.0222329 -0.0523321 0.401921) 6585
(-0.0540651 -0.000994332 0.413017) 5816
(-0.0455777 -0.0354702 0.403966) 5785
(-0.0603585 -0.00238629 0.395422) 5706
(-0.0568258 0.00341873 0.40576) 5761
(-0.0594909 -0.00115322 0.396266) 5705