/*--------------------------------*- C++ -*----------------------------------*\
| =========                 |                                                 |
| \\      /  F ield         | OpenFOAM: The Open Source CFD Toolbox           |
|  \\    /   O peration     | Version:  plus.master                           |
|   \\  /    A nd           | Web:      www.OpenFOAM.com                      |
|    \\/     M anipulation  |                                                 |
\*---------------------------------------------------------------------------*/
FoamFile
{
    version     2.0;
    format      ascii;
    class       surfaceScalarField;
    location    "7.8";
    object      alphaPhi;
}
// * * * * * * * * * * * * * * * * * * * * * * * * * * * * * * * * * * * * * //

dimensions      [0 3 -1 0 0 0 0];

internalField   nonuniform List<scalar> 
138768
(
1.70853e-06
2.33327e-06
2.94769e-07
-1.96313e-06
-2.36965e-06
1.30531e-06
2.34026e-06
5.36682e-07
-2.4758e-06
-9.42963e-08
3.03874e-06
9.18721e-07
-2.55672e-06
-1.76123e-06
3.1846e-06
1.00858e-06
-2.52631e-06
-2.80528e-06
2.69679e-06
6.5498e-07
-2.30784e-06
-2.97314e-06
1.9193e-06
3.49181e-07
-2.09855e-06
1.96352e-06
2.16223e-07
-3.01319e-06
-2.1426e-06
1.87922e-06
2.19731e-06
4.99877e-07
-2.24398e-06
1.42526e-06
1.80222e-06
1.77585e-06
6.32455e-07
1.49839e-06
2.74319e-06
-1.89895e-06
2.2158e-06
3.21125e-06
-2.18188e-06
1.01182e-06
2.40297e-06
-2.71934e-06
1.64484e-06
1.4802e-06
1.72718e-06
2.991e-07
-2.78213e-06
2.81616e-06
9.58398e-07
8.49319e-07
-2.42671e-06
1.08573e-06
1.33905e-06
2.61586e-06
3.40548e-07
3.39601e-07
1.76886e-06
-4.00472e-07
1.41939e-07
1.69197e-06
-1.80074e-06
4.3184e-07
1.98334e-06
-3.23777e-06
1.3026e-06
2.00512e-06
7.08869e-07
5.487e-07
-2.76843e-06
3.22592e-06
-7.12103e-07
1.06467e-06
-2.62018e-06
2.17097e-06
-1.08525e-06
3.24593e-06
1.27455e-07
-3.15176e-07
1.93121e-06
-2.04707e-07
-1.10684e-07
5.84772e-07
-2.36398e-06
-4.12438e-07
1.92373e-06
-3.29667e-06
-1.07923e-06
2.98337e-06
-5.76266e-07
7.97592e-07
-2.80911e-06
2.91518e-06
-2.02094e-06
8.84635e-07
-2.49048e-06
1.23292e-06
-1.69425e-06
2.67938e-06
3.17423e-07
-1.31349e-06
1.71607e-06
-3.29544e-07
-2.06201e-06
1.55859e-06
-1.85962e-06
-9.05078e-07
1.96318e-06
-3.26396e-06
-1.54379e-06
2.36431e-06
-1.57508e-06
5.83482e-07
-2.84874e-06
2.00172e-06
-2.23002e-06
5.15364e-07
-2.30874e-06
1.50144e-06
-2.23596e-06
1.81328e-06
6.96204e-07
-2.95085e-06
2.81697e-06
-1.87738e-06
-3.15596e-06
3.3405e-06
-2.21515e-06
-2.63728e-06
2.49575e-06
-2.77165e-06
-1.82484e-06
1.52604e-06
-1.72036e-06
3.13122e-07
-2.93842e-06
1.88579e-06
2.82585e-07
-2.08805e-06
-2.31056e-06
1.43633e-06
5.3588e-07
-2.323e-06
-6.08722e-08
9.66241e-07
-2.41976e-06
-1.8481e-06
1.1016e-06
-2.47043e-06
-3.00545e-06
7.02944e-07
-2.18299e-06
-3.03869e-06
3.5146e-07
-2.1433e-06
2.01525e-07
-3.0011e-06
-1.95679e-06
1.60602e-06
2.22575e-06
6.69527e-07
-1.90191e-06
-2.30461e-06
7.73202e-07
2.93836e-06
1.02932e-06
-2.59806e-06
-3.45309e-07
2.84804e-06
1.66717e-06
-2.47785e-06
-1.55412e-06
2.73406e-06
1.88912e-06
-2.40567e-06
-2.45494e-06
2.72024e-06
1.22978e-06
-2.39421e-06
-2.8749e-06
2.19657e-06
7.14207e-07
-2.14165e-06
1.49829e-06
5.58814e-07
-2.95067e-06
-1.76513e-06
2.46312e-06
1.64909e-06
9.43228e-07
-2.32968e-06
1.78071e-06
2.4991e-06
2.28013e-06
3.13308e-07
2.22508e-06
3.82379e-06
-1.71961e-06
1.77805e-06
4.72178e-06
-3.23043e-06
1.93916e-06
3.31286e-06
-3.40466e-06
1.92926e-06
1.63144e-06
9.84993e-07
6.43146e-07
-3.23538e-06
2.74981e-06
6.42345e-07
1.49982e-06
-2.39351e-06
1.65317e-06
1.05689e-06
3.59888e-06
1.8874e-07
2.17299e-07
2.47358e-06
-1.7197e-07
3.91121e-08
2.29779e-06
-3.05922e-06
2.29006e-07
3.02652e-06
-3.27227e-06
9.5895e-07
3.114e-06
4.52498e-07
9.99046e-07
-3.19006e-06
2.63383e-06
-4.09086e-07
1.82409e-06
-2.34173e-06
2.34681e-06
-8.10864e-07
4.54613e-06
1.01913e-07
-2.03077e-07
2.5476e-06
-1.96565e-08
-2.10421e-08
7.18314e-07
-1.7525e-06
-1.97474e-07
2.50101e-06
-3.07825e-06
-7.09301e-07
4.47734e-06
-2.40959e-07
1.47611e-06
-3.06327e-06
2.77747e-06
-1.46225e-06
1.57068e-06
-2.41038e-06
1.66225e-06
-2.3133e-06
3.70422e-06
1.48471e-07
-1.85527e-06
2.31971e-06
-1.13605e-07
-1.441e-06
1.9558e-06
-2.69833e-06
-1.67598e-06
2.87818e-06
-3.25781e-06
-1.75257e-06
3.2866e-06
-8.02552e-07
1.0563e-06
-3.16901e-06
2.59918e-06
-2.12507e-06
9.7502e-07
-2.396e-06
1.91315e-06
-2.87265e-06
2.37653e-06
4.41231e-07
-2.81655e-06
4.00485e-06
-1.62795e-06
-2.69142e-06
4.96421e-06
-3.21899e-06
-2.64184e-06
3.51031e-06
-3.43593e-06
-2.05936e-06
1.74297e-06
-1.33771e-06
6.60017e-07
-3.24763e-06
1.72928e-06
6.50274e-07
-1.97426e-06
-2.24772e-06
9.20453e-07
1.04837e-06
-2.57621e-06
-2.51619e-07
1.78599e-06
-2.4642e-06
-1.58268e-06
2.11547e-06
-2.37423e-06
-2.5323e-06
1.3561e-06
-2.34537e-06
-2.92522e-06
7.29119e-07
-2.0442e-06
5.38084e-07
-2.9774e-06
-1.62207e-06
1.29378e-06
1.98598e-06
1.40651e-06
-1.78548e-06
-2.2312e-06
4.43092e-07
2.30588e-06
1.78096e-06
-2.2069e-06
-5.14594e-07
2.07741e-06
2.48358e-06
-1.93621e-06
-1.46342e-06
1.65395e-06
2.88581e-06
-1.70186e-06
-2.14602e-06
1.70039e-06
2.04177e-06
-1.82978e-06
-2.59437e-06
1.54485e-06
1.45909e-06
-1.84151e-06
1.2818e-06
1.29518e-06
-2.83799e-06
-1.77462e-06
1.76756e-06
1.43417e-06
1.68883e-06
-1.96141e-06
1.28736e-06
2.17679e-06
2.84675e-06
-9.27726e-08
1.85602e-06
4.56941e-06
-1.40118e-06
7.57926e-07
5.2425e-06
-2.68083e-06
1.40862e-06
4.10852e-06
-2.88232e-06
1.20423e-06
2.17354e-06
6.46654e-07
1.37305e-06
-2.97714e-06
2.04443e-06
5.62838e-07
2.27359e-06
-1.94697e-06
1.63007e-06
8.00565e-07
4.37003e-06
7.27511e-08
1.51855e-07
2.31552e-06
-8.29759e-08
1.55806e-11
1.45643e-06
-2.04343e-06
6.54647e-08
2.97418e-06
-2.55891e-06
4.60003e-07
3.73105e-06
1.93432e-07
1.68254e-06
-2.78923e-06
2.05187e-06
-3.98196e-07
2.64945e-06
-1.91624e-06
1.86799e-06
-6.22454e-07
5.4822e-06
8.24674e-09
-1.59154e-07
2.64691e-06
3.12937e-08
-6.03023e-11
6.43788e-07
-7.40984e-07
-7.24706e-08
1.47134e-06
-2.01495e-06
-3.15023e-07
4.91358e-06
-6.36364e-08
2.1877e-06
-2.46943e-06
2.01013e-06
-1.28722e-06
2.36117e-06
-1.91168e-06
1.53295e-06
-2.02055e-06
4.46602e-06
3.14591e-08
-1.62758e-06
2.00989e-06
-2.92325e-08
-5.2042e-07
8.90641e-07
-1.86911e-06
-1.22235e-06
2.56872e-06
-2.46429e-06
-1.06528e-06
3.90162e-06
-4.78618e-07
1.73533e-06
-2.7283e-06
1.80998e-06
-1.88584e-06
1.73198e-06
-1.96842e-06
1.33537e-06
-2.21543e-06
2.99134e-06
-1.38105e-08
-1.9835e-06
4.7504e-06
-1.18927e-06
-1.49269e-06
5.11177e-06
-2.59068e-06
-1.5808e-06
4.33101e-06
-2.84355e-06
-1.39177e-06
2.3223e-06
-1.1046e-06
1.3871e-06
-2.9447e-06
1.36275e-06
1.39094e-06
-1.83596e-06
-2.15339e-06
5.3501e-07
1.81406e-06
-2.15357e-06
-4.23427e-07
2.63539e-06
-1.87449e-06
-1.40096e-06
3.17362e-06
-1.5733e-06
-2.13371e-06
2.2083e-06
-1.70023e-06
-2.59091e-06
1.48152e-06
-1.6871e-06
1.27613e-06
-2.83947e-06
-1.59413e-06
1.18044e-06
1.89694e-06
2.97247e-06
-2.10292e-06
-2.54042e-06
1.22417e-07
1.55377e-06
3.29527e-06
-2.01005e-06
-7.34992e-07
6.70846e-07
3.92338e-06
-1.25326e-06
-1.24062e-06
-2.09316e-07
4.34964e-06
-7.48882e-07
-1.72476e-06
2.25855e-07
3.54191e-06
-1.24184e-06
-2.39603e-06
9.05326e-07
3.05868e-06
-1.83357e-06
1.35901e-06
2.88464e-06
-3.06271e-06
-2.28164e-06
1.01499e-06
1.18137e-06
3.22888e-06
-1.83945e-06
1.55212e-07
1.09162e-06
4.16868e-06
-6.12129e-07
3.54954e-07
5.57138e-06
-1.07865e-06
-2.49142e-07
5.69076e-06
-1.64308e-06
-2.61721e-07
5.26871e-06
-2.26246e-06
1.50824e-07
3.54766e-06
4.69014e-07
2.97898e-06
-2.97805e-06
6.12043e-07
4.90702e-07
3.74808e-06
-1.39595e-06
-6.7811e-10
5.23534e-07
5.57744e-06
6.02929e-10
5.78914e-08
2.10754e-06
-1.88053e-08
-6.29411e-08
5.25266e-07
-6.25346e-07
-2.89995e-08
3.07544e-06
-1.5705e-06
-8.91448e-08
4.73999e-06
-3.88451e-08
3.19448e-06
-2.57473e-06
5.82143e-07
-3.81194e-07
4.15786e-06
-1.21859e-06
1.66496e-07
-4.35602e-07
6.63298e-06
-1.20756e-08
-5.79728e-08
2.49007e-06
1.24713e-08
2.14172e-09
5.45892e-07
6.46929e-08
-4.98199e-10
4.89558e-07
-5.86228e-07
1.46414e-07
5.35189e-06
8.35108e-08
3.51613e-06
-2.03683e-06
5.08826e-07
-1.05721e-06
3.83096e-06
-1.3024e-06
-3.47661e-08
-1.01873e-06
5.62762e-06
-1.4197e-08
-2.77903e-07
1.67764e-06
5.35692e-09
2.51711e-07
3.35279e-07
-5.64958e-07
2.56942e-07
2.49939e-06
-1.46777e-06
-8.65873e-08
4.86312e-06
-3.61083e-07
3.22735e-06
-2.51504e-06
9.95808e-07
-1.80359e-06
3.26863e-06
-1.78601e-06
1.66292e-07
-1.4925e-06
4.29502e-06
-5.0954e-07
-5.41972e-07
5.67202e-06
-9.26409e-07
3.92001e-07
5.11745e-06
-1.5236e-06
-1.11854e-07
5.47106e-06
-2.19034e-06
-7.59493e-07
3.66196e-06
-1.20964e-06
2.98782e-06
-2.94236e-06
1.2132e-06
2.965e-06
-2.14036e-06
-2.45046e-06
1.53963e-07
3.32478e-06
-1.94411e-06
-6.55318e-07
4.05517e-06
-1.1523e-06
-1.15232e-06
4.61576e-06
-5.52754e-07
-1.67981e-06
3.68365e-06
-1.0596e-06
-2.37721e-06
3.07726e-06
-1.65773e-06
2.87367e-06
-3.06656e-06
-2.11772e-06
1.21946e-06
1.86331e-06
-2.34506e-06
-2.73105e-06
4.96578e-06
7.62849e-08
1.23055e-06
-2.07685e-06
5.28497e-06
-7.68631e-07
3.20094e-08
-1.10308e-06
5.8393e-06
-8.54221e-07
-1.30585e-06
-4.37909e-07
6.17888e-06
-1.36075e-06
-1.34826e-07
-1.2914e-06
5.47469e-06
-2.12962e-06
9.6298e-07
-2.1701e-06
5.03484e-06
1.67844e-06
-2.95463e-06
-2.80614e-06
4.83751e-06
6.98943e-07
1.0816e-06
-1.91768e-06
5.22955e-06
-4.38717e-07
4.99979e-07
6.03708e-06
-9.70489e-07
-3.40156e-07
7.17672e-06
-6.81148e-07
-4.01885e-07
6.53087e-06
-1.07604e-06
-1.06969e-06
6.86769e-06
-1.94675e-06
-2.22886e-08
5.40375e-06
6.81936e-07
-2.91593e-06
4.94492e-06
-5.74167e-08
4.27981e-07
-1.26661e-06
5.72577e-06
-9.1897e-07
1.94664e-07
7.31585e-06
-3.87861e-08
1.63515e-08
4.16012e-06
-2.05636e-07
-3.19063e-08
3.26066e-07
-4.62037e-08
-1.04902e-07
6.18543e-06
-1.28305e-06
-2.84289e-07
6.31706e-06
5.30086e-08
-2.58448e-06
5.1249e-06
-3.69081e-07
-2.96454e-07
-9.07019e-07
6.15858e-06
-9.49338e-07
-1.41781e-07
8.14006e-06
9.64647e-09
1.84689e-08
3.19868e-06
-5.73522e-09
5.9294e-08
4.68621e-07
3.15682e-07
1.11371e-07
4.63978e-07
-3.4316e-07
3.29031e-07
6.89612e-06
5.92695e-09
-2.11346e-06
5.33354e-06
-1.46497e-07
-9.42995e-07
-1.16948e-06
5.79362e-06
-8.28059e-07
-4.1165e-07
7.35889e-06
-2.26663e-08
3.13668e-07
3.31759e-06
-2.28945e-07
3.40093e-07
2.73869e-07
4.18334e-08
1.10776e-06
5.43092e-06
-1.19117e-06
1.2704e-07
6.44309e-06
-5.53183e-07
-2.54758e-06
5.14311e-06
6.70728e-07
-1.73602e-06
-1.87106e-06
5.26222e-06
-4.3469e-07
-1.14101e-06
6.13001e-06
-7.65897e-07
8.70633e-08
7.17944e-06
-6.53541e-07
1.5205e-06
5.70795e-06
-9.82807e-07
3.24103e-07
7.05916e-06
-1.8966e-06
-7.73036e-07
5.4759e-06
-1.50617e-06
-2.90425e-06
4.94856e-06
1.27296e-06
-2.40696e-06
-2.59386e-06
4.95687e-06
1.22902e-07
-1.9664e-06
5.30038e-06
-6.9727e-07
-9.65146e-07
5.92779e-06
-7.97353e-07
-1.41585e-07
6.37712e-06
-1.32392e-06
-1.03988e-06
5.57435e-06
-2.12108e-06
-1.9435e-06
5.04498e-06
-2.96676e-06
-2.61215e-06
4.82541e-06
-3.32504e-06
-3.05932e-07
1.15511e-07
5.02568e-07
-3.4845e-06
-4.70925e-07
1.27534e-07
5.02649e-07
-3.74349e-06
-3.51532e-07
1.32408e-07
4.77945e-07
-4.0187e-06
-3.05182e-07
1.28625e-07
4.51518e-07
-4.29914e-06
-2.76813e-07
1.16683e-07
4.40596e-07
-4.57913e-06
-2.56803e-07
9.75301e-08
4.38909e-07
-4.84899e-06
-2.40274e-07
7.2115e-08
4.37917e-07
-2.24912e-07
4.20845e-08
4.37525e-07
-5.10379e-06
-3.22078e-06
-1.08441e-08
1.44686e-07
-3.61305e-06
-2.41552e-07
1.61618e-07
-3.93786e-06
-1.91684e-07
1.63322e-07
-4.2432e-06
-1.54294e-07
1.56451e-07
-4.53008e-06
-1.32617e-07
1.41777e-07
-4.78925e-06
-1.18723e-07
1.20137e-07
-5.01015e-06
-1.1073e-07
9.2147e-08
-1.06081e-07
5.93021e-08
-5.18837e-06
-3.00632e-06
6.6912e-08
1.61007e-07
-3.4111e-06
-5.82433e-09
1.67731e-07
-3.7678e-06
-1.17828e-08
1.75607e-07
-4.09062e-06
-5.11406e-09
1.74621e-07
-4.38535e-06
2.88156e-09
1.59966e-07
-4.65138e-06
9.00288e-09
1.37987e-07
-4.88949e-06
1.60339e-08
1.0933e-07
1.82915e-08
7.53726e-08
-5.08784e-06
-3.00911e-06
7.97757e-08
1.8686e-07
-3.36513e-06
1.802e-07
1.69619e-07
-3.68828e-06
1.32935e-07
1.78503e-07
-3.99593e-06
1.23716e-07
1.80417e-07
-4.27816e-06
1.18137e-07
1.65839e-07
-4.52914e-06
1.15118e-07
1.41954e-07
-4.72512e-06
1.02525e-07
1.1024e-07
9.69778e-08
7.58304e-08
-4.87884e-06
-3.0618e-06
1.36721e-07
1.58433e-07
-3.39144e-06
3.46378e-07
1.59577e-07
-3.72667e-06
2.95537e-07
1.69505e-07
-4.03904e-06
2.68365e-07
1.71586e-07
-4.32674e-06
2.46756e-07
1.58007e-07
-4.57882e-06
2.31768e-07
1.35231e-07
-4.80643e-06
2.25894e-07
1.05869e-07
2.19478e-07
7.07758e-08
-5.00079e-06
-3.30708e-06
3.67479e-07
1.36607e-07
-3.59932e-06
4.87687e-07
1.51584e-07
-3.90897e-06
4.47532e-07
1.58454e-07
-4.18641e-06
3.91247e-07
1.52145e-07
-4.4444e-06
3.67282e-07
1.37654e-07
-4.67742e-06
3.50248e-07
1.15175e-07
-4.87513e-06
3.36898e-07
8.65321e-08
3.25031e-07
5.32651e-08
-5.03339e-06
-3.24379e-06
1.08243e-07
4.98724e-07
-3.43253e-06
1.23189e-07
5.53342e-07
-3.65292e-06
1.27774e-07
5.42202e-07
-3.90568e-06
1.22965e-07
5.1835e-07
-4.16434e-06
1.10065e-07
5.16994e-07
-4.42297e-06
8.97457e-08
5.1912e-07
-4.67112e-06
6.28987e-08
5.2212e-07
3.02877e-08
5.29061e-07
-4.90549e-06
-3.41267e-06
-2.82493e-07
3.17323e-07
5.42575e-07
-3.85326e-06
-2.92812e-07
3.49324e-07
5.11719e-07
-4.28561e-06
-2.71563e-07
3.55725e-07
4.80558e-07
-4.69783e-06
-2.48888e-07
3.36797e-07
4.52989e-07
-5.07569e-06
-2.28256e-07
2.95008e-07
4.2796e-07
-5.40706e-06
-2.09816e-07
2.34387e-07
4.04318e-07
-5.68355e-06
-1.9311e-07
1.60478e-07
3.81277e-07
-1.77543e-07
7.83288e-08
3.58551e-07
-5.90073e-06
-3.61375e-06
-1.57423e-07
3.97917e-07
-4.03653e-06
-1.36953e-07
4.28542e-07
-4.46315e-06
-1.16437e-07
4.34724e-07
-4.86871e-06
-9.87814e-08
4.11832e-07
-5.23265e-06
-8.41529e-08
3.61578e-07
-5.53885e-06
-7.24061e-08
2.88843e-07
-5.77785e-06
-6.27709e-08
2.00784e-07
-5.46319e-08
1.04184e-07
-5.94564e-06
-3.62683e-06
-1.56939e-08
4.56026e-07
-4.06942e-06
-2.50018e-09
4.75993e-07
-4.50617e-06
5.83066e-09
4.90132e-07
-4.91422e-06
1.31862e-08
4.70786e-07
-5.27496e-06
1.8486e-08
4.17988e-07
-5.5698e-06
2.23702e-08
3.38091e-07
-5.78867e-06
2.53617e-08
2.40055e-07
2.74172e-08
1.32318e-07
-5.92767e-06
-3.55224e-06
1.60553e-07
4.99448e-07
-4.01515e-06
1.43832e-07
4.86168e-07
-4.46464e-06
1.29437e-07
5.04373e-07
-4.87995e-06
1.20397e-07
4.88418e-07
-5.24504e-06
1.13988e-07
4.35408e-07
-5.5422e-06
1.09196e-07
3.52261e-07
-5.76163e-06
1.05321e-07
2.4965e-07
1.02188e-07
1.36827e-07
-5.89742e-06
-3.6019e-06
2.9923e-07
4.52543e-07
-4.03346e-06
2.68801e-07
4.66235e-07
-4.46106e-06
2.45014e-07
4.81318e-07
-4.85951e-06
2.27385e-07
4.6304e-07
-5.21098e-06
2.13092e-07
4.1041e-07
-5.49831e-06
2.01795e-07
3.29978e-07
-5.71103e-06
1.92774e-07
2.31186e-07
1.8528e-07
1.22387e-07
-5.8457e-06
-3.59442e-06
3.95833e-07
3.86786e-07
-3.99313e-06
4.03545e-07
4.15366e-07
-4.39649e-06
3.84601e-07
4.22165e-07
-4.77914e-06
3.63263e-07
3.9894e-07
-5.12117e-06
3.44752e-07
3.47933e-07
-5.40685e-06
3.28706e-07
2.73925e-07
-5.62649e-06
3.14469e-07
1.84471e-07
3.01261e-07
8.58494e-08
-5.77507e-06
-3.39988e-06
3.04598e-07
6.22105e-07
-3.80181e-06
3.34758e-07
5.93914e-07
-4.19492e-06
3.39546e-07
5.66062e-07
-4.56888e-06
3.18497e-07
5.41664e-07
-4.90877e-06
2.74285e-07
5.2044e-07
-5.20205e-06
2.1103e-07
5.0076e-07
-5.44096e-06
1.34559e-07
4.81726e-07
4.8823e-08
4.62914e-07
-5.62116e-06
-3.51653e-06
-2.1309e-07
7.5276e-07
4.56082e-07
-4.21712e-06
-1.77923e-07
8.33337e-07
3.94443e-07
-4.94299e-06
-1.28332e-07
8.67845e-07
3.41931e-07
-5.67144e-06
-8.7823e-08
8.55888e-07
2.97106e-07
-6.37691e-06
-5.6912e-08
7.98616e-07
2.58841e-07
-7.0322e-06
-3.41096e-08
6.97508e-07
2.26299e-07
-7.60757e-06
-1.73934e-08
5.54465e-07
1.98827e-07
-5.10941e-09
3.75324e-07
1.75894e-07
-8.07527e-06
-3.61794e-06
-1.3456e-07
9.60076e-07
-4.33772e-06
-6.56246e-08
1.03597e-06
-5.07857e-06
-1.99097e-08
1.0671e-06
-5.8099e-06
1.04625e-08
1.04484e-06
-6.5093e-06
3.50812e-08
9.69017e-07
-7.14584e-06
5.02208e-08
8.41167e-07
-7.68595e-06
6.00521e-08
6.63554e-07
6.58113e-08
4.43415e-07
-8.09605e-06
-3.52982e-06
-4.39125e-08
1.1059e-06
-4.29697e-06
6.83936e-09
1.17066e-06
-5.06645e-06
3.2869e-08
1.20685e-06
-5.81879e-06
4.90092e-08
1.18465e-06
-6.52718e-06
6.04969e-08
1.10098e-06
-7.16396e-06
6.77483e-08
9.57445e-07
-7.69219e-06
7.15574e-08
7.56853e-07
7.26441e-08
5.07483e-07
-8.0741e-06
-3.3404e-06
1.5208e-07
1.17431e-06
-4.1769e-06
1.17294e-07
1.21219e-06
-4.98654e-06
9.48549e-08
1.25206e-06
-5.7624e-06
8.09459e-08
1.23239e-06
-6.48555e-06
7.17891e-08
1.14735e-06
-7.12938e-06
6.50598e-08
9.98876e-07
-7.65819e-06
5.97824e-08
7.90275e-07
5.55065e-08
5.30392e-07
-8.03458e-06
-3.48417e-06
2.55541e-07
1.10485e-06
-4.2538e-06
1.89222e-07
1.16391e-06
-5.02273e-06
1.45818e-07
1.19929e-06
-5.77128e-06
1.15807e-07
1.17681e-06
-6.47591e-06
9.45042e-08
1.09249e-06
-7.10799e-06
7.93293e-08
9.47973e-07
-7.63176e-06
6.87102e-08
7.46181e-07
6.14671e-08
4.95479e-07
-8.01072e-06
-3.57668e-06
3.23325e-07
9.50905e-07
-4.28604e-06
2.91241e-07
1.02261e-06
-5.01553e-06
2.45563e-07
1.05186e-06
-5.73698e-06
2.08434e-07
1.02779e-06
-6.42449e-06
1.80229e-07
9.49742e-07
-7.04968e-06
1.59284e-07
8.19236e-07
-7.57918e-06
1.44016e-07
6.38754e-07
1.32968e-07
4.15775e-07
-7.98052e-06
-3.49296e-06
7.38854e-07
5.42565e-07
-4.16996e-06
8.15006e-07
4.88031e-07
-4.87213e-06
8.44916e-07
4.42434e-07
-5.57693e-06
8.27726e-07
4.0407e-07
-6.25847e-06
7.64531e-07
3.71578e-07
-6.8891e-06
6.57018e-07
3.44009e-07
-7.43877e-06
5.07557e-07
3.20694e-07
3.22644e-07
3.01185e-07
-7.88077e-06
-4.24537e-06
-5.87941e-08
1.70267e-06
2.91702e-07
-5.56708e-06
4.77286e-08
1.91259e-06
1.94821e-07
-6.97004e-06
1.27923e-07
2.02295e-06
1.19941e-07
-8.36799e-06
1.83873e-07
2.01067e-06
5.93713e-08
-9.65159e-06
2.19242e-07
1.8514e-06
1.15933e-08
-1.06938e-05
2.39496e-07
1.52887e-06
-2.85998e-08
-1.13706e-05
2.48019e-07
1.04381e-06
-6.06168e-08
2.47965e-07
4.14668e-07
-8.65061e-08
-1.15715e-05
-4.20957e-06
-4.6779e-08
2.17985e-06
-5.58957e-06
8.12718e-08
2.38267e-06
-7.04586e-06
1.64155e-07
2.48733e-06
-8.49077e-06
2.1471e-07
2.45903e-06
-9.81014e-06
2.42972e-07
2.26475e-06
-1.08636e-05
2.54439e-07
1.87974e-06
-1.15024e-05
2.52588e-07
1.29791e-06
2.40208e-07
5.33389e-07
-1.15846e-05
-3.96562e-06
-4.84702e-08
2.49844e-06
-5.44958e-06
4.25129e-08
2.69348e-06
-6.97295e-06
9.07777e-08
2.80372e-06
-8.46961e-06
1.20474e-07
2.77567e-06
-9.82914e-06
1.3621e-07
2.56733e-06
-1.09053e-05
1.41849e-07
2.14621e-06
-1.15356e-05
1.39802e-07
1.49996e-06
1.31894e-07
6.38126e-07
-1.15579e-05
-3.65924e-06
1.23252e-07
2.62509e-06
-5.26403e-06
5.60172e-08
2.80363e-06
-6.85631e-06
1.888e-08
2.9164e-06
-8.39221e-06
-1.4528e-09
2.89039e-06
-9.77783e-06
-9.25216e-09
2.67856e-06
-1.08694e-05
-1.27859e-08
2.24517e-06
-1.15024e-05
-1.21738e-08
1.57535e-06
-7.9145e-09
6.77078e-07
-1.15091e-05
-3.92162e-06
1.35362e-07
2.49949e-06
-5.41155e-06
1.91723e-08
2.6908e-06
-6.93769e-06
-5.52867e-08
2.79971e-06
-8.43295e-06
-9.98978e-08
2.77062e-06
-9.78646e-06
-1.23967e-07
2.56082e-06
-1.08554e-05
-1.33204e-07
2.13741e-06
-1.14786e-05
-1.30615e-07
1.48806e-06
-1.18584e-07
6.23273e-07
-1.14957e-05
-4.18027e-06
1.49829e-07
2.17452e-06
-5.55997e-06
4.79992e-08
2.37363e-06
-7.0073e-06
-3.1697e-08
2.4757e-06
-8.4418e-06
-8.18029e-08
2.44428e-06
-9.74837e-06
-1.13351e-07
2.24582e-06
-1.07874e-05
-1.30149e-07
1.85538e-06
-1.14105e-05
-1.35854e-07
1.26721e-06
-1.33857e-07
4.97502e-07
-1.14768e-05
-4.24015e-06
1.69185e-06
3.70565e-07
-5.55138e-06
1.89645e-06
2.77941e-07
-6.94435e-06
2.00087e-06
2.05381e-07
-8.32676e-06
1.98163e-06
1.46726e-07
-9.58874e-06
1.81404e-06
9.91833e-08
-1.06043e-05
1.48164e-06
6.08456e-08
-1.12483e-05
9.85721e-07
3.00196e-08
3.48416e-07
5.61413e-09
-1.14135e-05
-4.32365e-06
2.03819e-07
-9.85385e-10
2.86897e-06
-5.93394e-06
3.53805e-07
-1.31507e-07
3.30072e-06
-7.76962e-06
4.66648e-07
-2.30526e-07
3.62266e-06
-9.79175e-06
5.44564e-07
-3.08596e-07
3.79678e-06
-1.19617e-05
5.94845e-07
-3.65643e-07
3.79204e-06
-1.42401e-05
6.20282e-07
-4.00741e-07
3.5877e-06
-1.65769e-05
6.15184e-07
-4.1439e-07
3.17982e-06
5.76558e-07
-4.06745e-07
-1.89854e-05
2.65323e-06
-4.35139e-06
1.53897e-07
3.66534e-06
-6.00115e-06
3.01495e-07
4.08492e-06
-7.84778e-06
4.03e-07
4.39766e-06
-9.86641e-06
4.67691e-07
4.55451e-06
-1.20221e-05
5.04635e-07
4.51055e-06
-1.42701e-05
5.18041e-07
4.22991e-06
-1.65648e-05
5.07384e-07
3.70036e-06
4.7035e-07
-1.89538e-05
3.02843e-06
-4.16679e-06
4.13807e-08
4.19336e-06
-5.89566e-06
1.24633e-07
4.59943e-06
-7.7853e-06
1.8253e-07
4.91397e-06
-9.82827e-06
2.14391e-07
5.07203e-06
-1.19992e-05
2.28851e-07
5.01405e-06
-1.42555e-05
2.30698e-07
4.68976e-06
-1.65478e-05
2.21987e-07
4.07766e-06
2.03075e-07
-1.89423e-05
3.29979e-06
-3.90592e-06
6.04915e-08
4.39863e-06
-5.74824e-06
-1.55835e-08
4.78627e-06
-7.69357e-06
-5.48076e-08
5.09916e-06
-9.76269e-06
-8.48031e-08
5.25875e-06
-1.1947e-05
-1.05666e-07
5.1974e-06
-1.42106e-05
-1.1874e-07
4.85819e-06
-1.65056e-05
-1.23308e-07
4.21563e-06
-1.17525e-07
-1.89055e-05
3.3976e-06
-4.13692e-06
-4.38758e-08
4.19341e-06
-5.87421e-06
-1.83883e-07
4.59656e-06
-7.75805e-06
-2.8122e-07
4.91006e-06
-9.79144e-06
-3.47985e-07
5.06716e-06
-1.19518e-05
-3.92007e-07
5.00752e-06
-1.41982e-05
-4.15568e-07
4.68066e-06
-1.64825e-05
-4.16148e-07
4.06528e-06
-3.90201e-07
-1.88704e-05
3.28383e-06
-4.33351e-06
-9.94788e-08
3.65961e-06
-5.97344e-06
-2.45297e-07
4.07512e-06
-7.80398e-06
-3.5938e-07
4.38438e-06
-9.80312e-06
-4.42173e-07
4.5376e-06
-1.19381e-05
-5.00369e-07
4.48926e-06
-1.41662e-05
-5.3552e-07
4.20345e-06
-1.64432e-05
-5.40328e-07
3.66833e-06
-5.10625e-07
-1.88163e-05
2.99111e-06
-4.31215e-06
8.09893e-08
2.85682e-06
-5.89916e-06
-4.49276e-08
3.28308e-06
-7.70404e-06
-1.52559e-07
3.5989e-06
-9.69056e-06
-2.40295e-07
3.76631e-06
-1.18221e-05
-3.08889e-07
3.7542e-06
-1.40617e-05
-3.56188e-07
3.54199e-06
-1.63623e-05
-3.8026e-07
3.12619e-06
-3.79958e-07
-1.87371e-05
2.59269e-06
-2.37128e-06
3.40288e-07
1.38949e-07
-1.9428e-07
-2.62385e-06
2.99957e-07
1.43694e-07
-1.92775e-07
-2.95604e-06
3.2449e-07
1.42065e-07
-1.36664e-07
-3.30602e-06
3.28562e-07
1.29658e-07
-1.07274e-07
-3.66042e-06
3.36586e-07
1.08185e-07
-9.03733e-08
-3.99625e-06
3.35538e-07
7.85892e-08
-7.76198e-08
-4.30435e-06
3.33645e-07
4.20863e-08
-6.77309e-08
3.38371e-07
-1.49133e-09
-6.07595e-08
-4.58053e-06
-2.51045e-06
3.2333e-07
2.18394e-07
-2.65074e-06
2.26388e-07
2.14516e-07
-2.84166e-06
2.99058e-07
2.16089e-07
-3.02478e-06
3.02407e-07
2.09154e-07
-3.18783e-06
3.04325e-07
1.95228e-07
-3.33632e-06
3.10984e-07
1.72862e-07
-3.46447e-06
3.15561e-07
1.46295e-07
3.43203e-07
1.16753e-07
-3.58607e-06
-2.55058e-06
7.53502e-08
3.07858e-07
-2.63854e-06
3.33404e-08
2.79659e-07
-2.69128e-06
6.65786e-08
2.85187e-07
-2.75133e-06
6.97203e-08
2.93179e-07
-2.82518e-06
8.28061e-08
2.9544e-07
-2.91906e-06
1.10839e-07
2.93912e-07
-3.01217e-06
1.25441e-07
2.83228e-07
1.4081e-07
2.79503e-07
-3.08934e-06
-2.72311e-06
-1.90489e-07
3.68729e-07
-2.85898e-06
-1.55023e-07
3.24819e-07
-2.92946e-06
-2.0085e-07
3.3773e-07
-3.00573e-06
-2.17915e-07
3.62997e-07
-3.06545e-06
-2.44594e-07
3.86951e-07
-3.09169e-06
-2.6595e-07
4.02993e-07
-3.09161e-06
-2.79492e-07
4.04753e-07
-3.02611e-07
4.00587e-07
-3.04889e-06
-2.49247e-06
-4.21404e-07
2.97467e-07
-2.61811e-06
-3.03106e-07
2.7202e-07
-2.72338e-06
-3.74322e-07
2.77803e-07
-2.84898e-06
-3.76775e-07
2.85925e-07
-2.99419e-06
-3.89321e-07
2.89845e-07
-3.10876e-06
-4.33281e-07
2.81839e-07
-3.19164e-06
-4.58292e-07
2.61565e-07
-4.52189e-07
2.30016e-07
-3.27219e-06
-2.48123e-06
-3.99299e-07
2.1562e-07
-2.65244e-06
-3.40718e-07
2.09481e-07
-2.87806e-06
-3.57193e-07
2.07916e-07
-3.07902e-06
-3.76285e-07
1.99922e-07
-3.27685e-06
-3.7073e-07
1.79021e-07
-3.48891e-06
-3.80085e-07
1.56955e-07
-3.67946e-06
-3.94702e-07
1.2756e-07
-4.07757e-07
9.39126e-08
-3.81731e-06
-2.3039e-06
1.42334e-07
-2.03407e-07
-2.61969e-06
1.50807e-07
-1.78472e-07
-2.97972e-06
1.48936e-07
-1.44924e-07
-3.36806e-06
1.38099e-07
-1.28153e-07
-3.73765e-06
1.18266e-07
-1.17595e-07
-4.09431e-06
9.0628e-08
-1.12868e-07
-4.43542e-06
5.6176e-08
-1.11026e-07
1.16551e-08
-1.1056e-07
-4.74442e-06
-2.41635e-06
3.71188e-07
3.49019e-07
-1.39243e-07
-2.8524e-06
3.30674e-07
3.73323e-07
-1.23919e-07
-3.2918e-06
3.1613e-07
3.72721e-07
-1.07496e-07
-3.72017e-06
3.10445e-07
3.42812e-07
-9.51305e-08
-4.1209e-06
3.08839e-07
2.85786e-07
-8.56272e-08
-4.47921e-06
3.08355e-07
2.06758e-07
-7.81645e-08
-4.78507e-06
3.07603e-07
1.12632e-07
-7.22232e-08
3.06456e-07
2.82524e-09
-6.74643e-08
-5.02835e-06
-2.61541e-06
2.96759e-07
5.12435e-07
-2.88978e-06
2.91436e-07
5.28052e-07
-3.19984e-06
2.98348e-07
5.43889e-07
-3.51897e-06
3.05553e-07
5.33199e-07
-3.82347e-06
3.16626e-07
4.91941e-07
-4.09519e-06
3.29368e-07
4.23504e-07
-4.31828e-06
3.41987e-07
3.3511e-07
3.5341e-07
2.3615e-07
-4.48459e-06
-2.57207e-06
4.54678e-08
7.20977e-07
-2.73864e-06
5.35669e-08
6.84176e-07
-2.93609e-06
5.99185e-08
7.21095e-07
-3.14601e-06
6.24221e-08
7.46194e-07
-3.34346e-06
6.67846e-08
7.43005e-07
-3.50374e-06
7.2828e-08
7.10708e-07
-3.61228e-06
7.91314e-08
6.54678e-07
8.50646e-08
5.83974e-07
-3.64838e-06
-2.547e-06
-2.12245e-07
8.31719e-07
-2.70743e-06
-2.18313e-07
7.571e-07
-2.88171e-06
-2.28533e-07
8.00739e-07
-3.05978e-06
-2.37975e-07
8.4156e-07
-3.2119e-06
-2.50231e-07
8.56038e-07
-3.31464e-06
-2.62787e-07
8.41258e-07
-3.35837e-06
-2.74477e-07
8.02102e-07
-2.85868e-07
7.47959e-07
-3.33482e-06
-2.57677e-06
-4.31302e-07
6.99846e-07
-2.77639e-06
-4.16689e-07
6.70336e-07
-3.0063e-06
-4.22282e-07
7.01385e-07
-3.24288e-06
-4.30956e-07
7.15623e-07
-3.45841e-06
-4.43803e-07
6.98821e-07
-3.6322e-06
-4.5886e-07
6.51569e-07
-3.75291e-06
-4.73181e-07
5.80891e-07
-4.85722e-07
4.97309e-07
-3.82032e-06
-2.59467e-06
-4.6016e-07
5.09672e-07
-2.91606e-06
-4.11297e-07
5.25464e-07
-3.27062e-06
-3.94751e-07
5.3503e-07
-3.62876e-06
-3.88486e-07
5.1566e-07
-3.972e-06
-3.86852e-07
4.65332e-07
-4.27479e-06
-3.86988e-07
3.87822e-07
-4.52323e-06
-3.87839e-07
2.90637e-07
-3.88532e-07
1.83664e-07
-4.71018e-06
-2.38046e-06
3.62701e-07
-2.01439e-07
-2.84684e-06
3.89863e-07
-1.83784e-07
-3.31526e-06
3.90926e-07
-1.68165e-07
-3.77153e-06
3.62655e-07
-1.5675e-07
-4.19876e-06
3.07354e-07
-1.48614e-07
-4.58181e-06
2.30187e-07
-1.43387e-07
-4.91117e-06
1.38133e-07
-1.4044e-07
3.59326e-08
-1.39265e-07
-5.18469e-06
-2.54389e-06
4.24052e-07
7.8329e-07
-1.50576e-07
-3.26938e-06
3.79034e-07
8.53153e-07
-1.33469e-07
-4.01781e-06
3.65746e-07
8.77048e-07
-1.21841e-07
-4.76745e-06
3.56993e-07
8.48977e-07
-1.13625e-07
-5.49256e-06
3.48224e-07
7.69768e-07
-1.07159e-07
-6.16476e-06
3.38321e-07
6.42337e-07
-1.01712e-07
-6.75365e-06
3.27318e-07
4.70931e-07
-9.67387e-08
3.15849e-07
2.64893e-07
-9.18083e-08
-7.23979e-06
-2.50986e-06
3.89277e-07
1.08847e-06
-3.12126e-06
3.64076e-07
1.15429e-06
-3.76629e-06
3.525e-07
1.20203e-06
-4.4233e-06
3.47565e-07
1.19964e-06
-5.06816e-06
3.44853e-07
1.14014e-06
-5.67142e-06
3.4188e-07
1.02318e-06
-6.19696e-06
3.37523e-07
8.50486e-07
3.32386e-07
6.29459e-07
-6.60682e-06
-2.30942e-06
1.11506e-07
1.39625e-06
-2.77568e-06
9.1454e-08
1.42291e-06
-3.28505e-06
7.65358e-08
1.50647e-06
-3.81386e-06
6.72379e-08
1.55531e-06
-4.33534e-06
6.08834e-08
1.54839e-06
-4.81846e-06
5.54202e-08
1.48014e-06
-5.2266e-06
5.05512e-08
1.34943e-06
4.60815e-08
1.16231e-06
-5.51863e-06
-2.24467e-06
-2.68625e-07
1.54005e-06
-2.64966e-06
-2.78212e-07
1.53185e-06
-3.11512e-06
-2.82868e-07
1.62554e-06
-3.61079e-06
-2.89109e-07
1.69337e-06
-4.10492e-06
-2.95032e-07
1.70595e-06
-4.56458e-06
-2.98312e-07
1.65464e-06
-4.94976e-06
-2.98286e-07
1.53608e-06
-2.9541e-07
1.35574e-06
-5.21607e-06
-2.36583e-06
-5.16777e-07
1.36676e-06
-2.86503e-06
-5.05437e-07
1.3968e-06
-3.40977e-06
-5.05741e-07
1.46892e-06
-3.97428e-06
-5.09385e-07
1.5004e-06
-4.53165e-06
-5.1205e-07
1.47297e-06
-5.04948e-06
-5.11325e-07
1.38256e-06
-5.48933e-06
-5.06654e-07
1.22918e-06
-4.98408e-07
1.02019e-06
-5.80914e-06
-2.53491e-06
-5.12305e-07
1.07865e-06
-3.18298e-06
-4.74666e-07
1.14262e-06
-3.86553e-06
-4.6878e-07
1.18046e-06
-4.55814e-06
-4.66045e-07
1.16491e-06
-5.23388e-06
-4.62079e-07
1.09105e-06
-5.8612e-06
-4.56043e-07
9.59822e-07
-6.40332e-06
-4.47888e-07
7.73956e-07
-4.38081e-07
5.41689e-07
-6.82167e-06
-2.50951e-06
7.96042e-07
-2.21605e-07
-3.25045e-06
8.6997e-07
-2.13723e-07
-4.01676e-06
8.96573e-07
-2.08078e-07
-4.78622e-06
8.71261e-07
-2.05175e-07
-5.53222e-06
7.95272e-07
-2.03921e-07
-6.226e-06
6.71551e-07
-2.03582e-07
-6.83629e-06
5.04086e-07
-2.03524e-07
3.01509e-07
-2.03124e-07
-7.33685e-06
-3.40678e-06
4.56703e-07
1.73129e-06
-1.38177e-07
-4.79534e-06
4.29601e-07
1.93122e-06
-1.19046e-07
-6.25308e-06
4.07265e-07
2.03259e-06
-1.05023e-07
-7.69091e-06
3.7307e-07
2.00851e-06
-9.47591e-08
-8.99833e-06
3.30303e-07
1.8333e-06
-8.6416e-08
-1.00483e-05
2.8256e-07
1.48893e-06
-7.91165e-08
-1.07122e-05
2.32236e-07
9.74922e-07
-7.23141e-08
1.80752e-07
3.15414e-07
-6.55974e-08
-1.0878e-05
-2.98662e-06
4.46157e-07
2.2996e-06
-4.32453e-06
4.18926e-07
2.50288e-06
-5.73931e-06
3.92844e-07
2.63125e-06
-7.15847e-06
3.60181e-07
2.63174e-06
-8.47183e-06
3.20369e-07
2.46343e-06
-9.53801e-06
2.76082e-07
2.09588e-06
-1.02017e-05
2.29447e-07
1.51696e-06
1.8208e-07
7.35614e-07
-1.03092e-05
-2.37454e-06
1.52303e-07
2.76231e-06
-3.5913e-06
1.09337e-07
2.94938e-06
-4.89869e-06
8.43473e-08
3.1224e-06
-6.2301e-06
6.62543e-08
3.18079e-06
-7.47751e-06
5.04182e-08
3.06536e-06
-8.48992e-06
3.58289e-08
2.73275e-06
-9.09554e-06
2.22871e-08
2.16208e-06
9.60466e-09
1.34428e-06
-9.10505e-06
-2.16264e-06
-3.20454e-07
2.95701e-06
-3.31418e-06
-3.24498e-07
3.11719e-06
-4.58861e-06
-3.21552e-07
3.30583e-06
-5.90591e-06
-3.12811e-07
3.38975e-06
-7.15357e-06
-2.96536e-07
3.3005e-06
-8.1776e-06
-2.74215e-07
2.98868e-06
-8.79807e-06
-2.4795e-07
2.42676e-06
-2.195e-07
1.59482e-06
-8.80799e-06
-2.50488e-06
-5.74534e-07
2.72995e-06
-3.76925e-06
-5.78123e-07
2.91466e-06
-5.12581e-06
-5.70127e-07
3.07392e-06
-6.50556e-06
-5.4568e-07
3.11302e-06
-7.79743e-06
-5.06935e-07
2.97521e-06
-8.84972e-06
-4.58046e-07
2.61866e-06
-9.48867e-06
-4.02694e-07
2.02287e-06
-3.43374e-07
1.18209e-06
-9.5267e-06
-3.07333e-06
-5.45339e-07
2.28338e-06
-4.45205e-06
-5.38875e-07
2.48207e-06
-5.90865e-06
-5.32678e-07
2.59959e-06
-7.36485e-06
-5.11298e-07
2.58675e-06
-8.70709e-06
-4.78337e-07