/*--------------------------------*- C++ -*----------------------------------*\
| =========                 |                                                 |
| \\      /  F ield         | OpenFOAM: The Open Source CFD Toolbox           |
|  \\    /   O peration     | Version:  plus.master                           |
|   \\  /    A nd           | Web:      www.OpenFOAM.com                      |
|    \\/     M anipulation  |                                                 |
\*---------------------------------------------------------------------------*/
FoamFile
{
    version     2.0;
    format      ascii;
    class       volScalarField;
    location    "7.8";
    object      p_rgh;
}
// * * * * * * * * * * * * * * * * * * * * * * * * * * * * * * * * * * * * * //

dimensions      [1 -1 -2 0 0 0 0];

internalField   nonuniform List<scalar> 
47285
(
5730.37
5738.03
5740.55
5740.72
5739.52
5736.28
5728.41
5738.41
5728.88
5740.45
5742.96
5734.45
5728.73
5735.19
5741.27
5737.15
5706.54
5701.84
5705.75
5740.26
5737.58
5742.12
5743.79
5702.27
5696.19
5702.51
5742.93
5738.66
5741.32
5738.47
5706.52
5701.43
5706.01
5740.59
5738.12
5738.46
5728.98
5739.3
5742.25
5733.59
5728.59
5735.89
5730.21
5737.35
5739.85
5740.01
5738.97
5736.2
5728
5702.5
5702.57
5702.19
5701.45
5701.19
5701.07
5700.95
5702.67
5678.44
5689.49
5681.24
5677.3
5695.18
5700.78
5702.79
5670.71
5555.94
5538.07
5567.65
5700.58
5700.36
5702.68
5693.69
5544.92
5521.68
5540.5
5682.42
5699.72
5702.67
5671.91
5552.29
5534.37
5562.86
5700.12
5700.16
5702.45
5672.9
5678.79
5672.23
5671.25
5695.21
5700.54
5702.2
5702.16
5701.71
5700.82
5700.68
5700.71
5700.67
5677.45
5671.28
5665.52
5662.55
5664.81
5670.28
5676.35
5671.53
5660.18
5632.59
5588.05
5628.81
5660.01
5670.41
5666.61
5621.18
5383.03
5350.97
5400.43
5645.37
5665.12
5665.1
5638.39
5368.33
5331.83
5354.13
5588.75
5662.33
5666.41
5616.61
5376.55
5345.71
5390.4
5641.45
5664.99
5671.19
5658.1
5622.51
5568.36
5617.39
5659.67
5670.2
5677.08
5670.77
5664.8
5661.79
5664.2
5669.91
5676.1
5670.55
5664.26
5658.67
5657.07
5659.16
5664.4
5670.47
5663.9
5652.41
5611.95
5517.71
5624.71
5653.88
5664.68
5658.22
5611.82
5258.83
5202.37
5302
5636.38
5659.47
5656.21
5614.82
5245.51
5198.6
5203.09
5550.59
5657.35
5657.8
5601.64
5241.35
5199.33
5277.33
5631.28
5659.42
5663.43
5651.51
5598.71
5472.46
5612.67
5653.75
5664.68
5670.13
5663.48
5657.26
5654.98
5658.93
5664.3
5670.46
5668.93
5665.78
5662.63
5660.57
5662.95
5665.99
5668.8
5665.86
5659.38
5626.12
5494.24
5649.93
5661.48
5666.57
5663.68
5638.4
5227.39
5083.84
5340.21
5654.11
5664.61
5662.3
5621.81
5179.65
5087.34
5094.42
5592.51
5664.83
5663.64
5629.81
5191.47
5087.47
5290.87
5652.16
5664.49
5665.88
5659.73
5614.93
5433.59
5645.16
5661.37
5666.5
5668.92
5665.82
5662.68
5660.59
5663
5665.89
5668.67
5722.58
5718.96
5715.79
5713.23
5711.2
5709.6
5708.34
5707.36
5726.57
5721.85
5717.38
5714.14
5711.71
5709.85
5708.42
5707.33
5728.12
5723.46
5718.37
5714.65
5711.94
5709.89
5708.39
5707.29
5728.96
5723.9
5718.7
5714.86
5712.06
5709.96
5708.29
5707.11
5728.31
5723.31
5718.39
5714.67
5711.93
5709.88
5708.37
5707.24
5726.44
5721.6
5717.41
5714.1
5711.66
5709.79
5708.34
5707.25
5722.52
5718.99
5715.8
5713.2
5711.17
5709.57
5708.3
5707.3
5701.13
5701.23
5701.36
5701.51
5701.66
5701.81
5701.97
5702.15
5700.77
5700.95
5701.12
5701.31
5701.5
5701.7
5701.89
5702.1
5700.46
5700.64
5700.84
5701.07
5701.32
5701.55
5701.78
5702.01
5700.13
5700.4
5700.67
5700.95
5701.23
5701.49
5701.73
5701.98
5700.3
5700.49
5700.73
5700.98
5701.23
5701.48
5701.72
5701.95
5700.57
5700.76
5700.96
5701.16
5701.36
5701.57
5701.77
5701.98
5700.9
5701.03
5701.17
5701.32
5701.48
5701.64
5701.8
5701.97
5681.26
5684.64
5687.41
5689.66
5691.48
5692.98
5694.22
5695.3
5677.56
5682.34
5685.94
5688.71
5690.88
5692.62
5694.04
5695.27
5674.46
5680.31
5684.58
5687.82
5690.31
5692.26
5693.83
5695.16
5673.15
5679.57
5684.11
5687.51
5690.11
5692.14
5693.75
5695.11
5674.38
5680.24
5684.53
5687.77
5690.26
5692.22
5693.79
5695.12
5677.37
5682.15
5685.76
5688.56
5690.75
5692.51
5693.94
5695.16
5681.05
5684.44
5687.24
5689.51
5691.35
5692.85
5694.11
5695.2
5675.24
5678.71
5681.77
5684.44
5686.86
5689.18
5691.53
5693.97
5671.78
5676.54
5680.31
5683.43
5686.15
5688.71
5691.27
5693.92
5668.88
5674.69
5679.07
5682.6
5685.6
5688.34
5691.05
5693.84
5668.21
5674.29
5678.78
5682.41
5685.48
5688.27
5691.02
5693.84
5668.93
5674.7
5679.09
5682.63
5685.62
5688.35
5691.06
5693.82
5671.78
5676.56
5680.33
5683.45
5686.18
5688.72
5691.28
5693.91
5675.23
5678.71
5681.78
5684.47
5686.9
5689.23
5691.59
5694.01
5670.63
5671.87
5672.87
5673.57
5673.93
5673.6
5672.43
5672.11
5669.53
5671.31
5672.59
5673.48
5673.97
5673.72
5672.47
5671.93
5668.51
5670.7
5672.26
5673.33
5673.94
5673.75
5672.45
5671.78
5668.89
5670.9
5672.36
5673.44
5674.05
5673.86
5672.54
5671.8
5668.46
5670.65
5672.22
5673.32
5673.93
5673.75
5672.46
5671.77
5669.45
5671.22
5672.5
5673.39
5673.89
5673.66
5672.42
5671.84
5670.49
5671.71
5672.71
5673.43
5673.8
5673.5
5672.34
5671.97
5724.43
5720.29
5716.9
5714.19
5712.05
5710.36
5709.04
5708
5729.12
5723.25
5718.7
5715.27
5712.62
5710.58
5709.03
5707.8
5731.63
5725.22
5719.81
5715.95
5713.04
5710.81
5709.17
5707.92
5732.28
5725.76
5720.17
5716.28
5713.38
5711.17
5709.48
5708.22
5731.56
5725.1
5719.76
5715.94
5713.05
5710.81
5709.05
5707.79
5729.01
5723.2
5718.69
5715.19
5712.57
5710.61
5709.06
5707.82
5724.51
5720.34
5716.93
5714.23
5712.09
5710.41
5709.08
5708.03
5702.33
5702.29
5702.28
5702.3
5702.32
5702.37
5702.43
5702.51
5702.35
5702.34
5702.36
5702.39
5702.42
5702.45
5702.5
5702.56
5702.51
5702.5
5702.52
5702.57
5702.59
5702.61
5702.64
5702.68
5702.62
5702.63
5702.66
5702.72
5702.79
5702.85
5702.91
5702.95
5702.57
5702.52
5702.5
5702.54
5702.58
5702.61
5702.65
5702.68
5702.51
5702.46
5702.46
5702.48
5702.5
5702.54
5702.6
5702.67
5702.54
5702.48
5702.46
5702.46
5702.48
5702.52
5702.58
5702.66
5682.03
5685.38
5688.12
5690.33
5692.12
5693.56
5694.75
5695.76
5678.44
5683.2
5686.75
5689.47
5691.59
5693.26
5694.61
5695.74
5675.83
5681.68
5685.89
5688.98
5691.34
5693.17
5694.61
5695.82
5674.99
5681.17
5685.61
5688.89
5691.39
5693.3
5694.82
5696.07
5675.92
5681.69
5685.85
5688.95
5691.33
5693.15
5694.59
5695.77
5678.67
5683.37
5686.88
5689.58
5691.69
5693.35
5694.69
5695.82
5682.31
5685.61
5688.3
5690.48
5692.25
5693.68
5694.86
5695.88
5675.15
5678.86
5682.06
5684.85
5687.35
5689.7
5692.05
5694.45
5671.22
5676.34
5680.29
5683.53
5686.34
5688.92
5691.46
5694.05
5668.3
5674.68
5679.22
5682.78
5685.81
5688.56
5691.2
5693.84
5667.29
5674.11
5678.93
5682.67
5685.77
5688.56
5691.26
5693.95
5668.44
5674.68
5679.21
5682.8
5685.81
5688.53
5691.17
5693.84
5671.5
5676.53
5680.44
5683.67
5686.46
5689.04
5691.58
5694.18
5675.42
5679.04
5682.19
5684.94
5687.4
5689.75
5692.1
5694.5
5670.94
5672.47
5673.69
5674.6
5675.13
5674.95
5673.91
5673.63
5669.27
5671.37
5672.89
5674.03
5674.74
5674.69
5673.68
5673.4
5668.21
5670.8
5672.46
5673.69
5674.57
5674.62
5673.68
5673.72
5667.64
5670.56
5672.39
5673.67
5674.52
5674.58
5673.57
5673.52
5668.19
5670.76
5672.51
5673.77
5674.6
5674.63
5673.65
5673.59
5669.34
5671.49
5673.05
5674.2
5674.92
5674.89
5673.86
5673.55
5671
5672.54
5673.78
5674.69
5675.22
5675.04
5674
5673.74
5724.41
5720.3
5716.9
5714.19
5712.05
5710.36
5709.02
5707.97
5728.65
5723.04
5718.55
5715.14
5712.48
5710.49
5708.98
5707.76
5730.8
5724.8
5719.45
5715.73
5712.97
5710.87
5709.22
5707.93
5731.33
5725.07
5719.54
5715.72
5712.83
5710.69
5709.09
5707.87
5730.28
5724.25
5718.93
5715.17
5712.34
5710.26
5708.69
5707.42
5727.89
5722.38
5717.84
5714.5
5711.95
5710
5708.5
5707.34
5723.05
5719.06
5715.81
5713.25
5711.26
5709.71
5708.51
5707.57
5702.57
5702.54
5702.51
5702.51
5702.53
5702.56
5702.62
5702.69
5702.39
5702.41
5702.45
5702.49
5702.51
5702.54
5702.58
5702.64
5702.1
5702.2
5702.3
5702.42
5702.52
5702.61
5702.69
5702.77
5701.65
5701.85
5702.02
5702.19
5702.33
5702.44
5702.54
5702.63
5701.37
5701.54
5701.7
5701.85
5701.98
5702.09
5702.2
5702.31
5701.25
5701.42
5701.57
5701.71
5701.84
5701.96
5702.07
5702.2
5701.28
5701.39
5701.52
5701.64
5701.77
5701.91
5702.04
5702.19
5682.37
5685.66
5688.33
5690.51
5692.26
5693.69
5694.87
5695.87
5678.39
5683.23
5686.81
5689.53
5691.65
5693.32
5694.66
5695.79
5675.19
5681.25
5685.59
5688.8
5691.23
5693.12
5694.62
5695.86
5673.58
5680.23
5684.9
5688.3
5690.86
5692.83
5694.39
5695.67
5674.62
5680.69
5685.04
5688.28
5690.73
5692.63
5694.15
5695.39
5677.58
5682.43
5686.06
5688.84
5691.01
5692.72
5694.12
5695.29
5681.33
5684.76
5687.53
5689.76
5691.57
5693.04
5694.27
5695.33
5675.48
5679.08
5682.19
5684.92
5687.38
5689.66
5691.97
5694.42
5671.73
5676.7
5680.5
5683.66
5686.41
5688.94
5691.4
5693.98
5668.79
5674.95
5679.36
5682.86
5685.85
5688.59
5691.27
5694.01
5667.73
5674.23
5678.8
5682.39
5685.44
5688.21
5690.92
5693.66
5668.68
5674.58
5678.93
5682.43
5685.41
5688.14
5690.83
5693.57
5671.44
5676.25
5680.04
5683.16
5685.88
5688.43
5690.95
5693.57
5675.26
5678.84
5681.89
5684.54
5686.9
5689.17
5691.53
5693.94
5670.93
5672.48
5673.69
5674.6
5675.1
5674.89
5673.88
5673.66
5669.24
5671.4
5672.92
5674.09
5674.8
5674.7
5673.62
5673.42
5667.79
5670.56
5672.3
5673.6
5674.43
5674.46
5673.43
5672.66
5667.23
5670.31
5672.1
5673.38
5674.13
5673.29
5672.03
5672.16
5667.61
5670.21
5671.95
5673.21
5673.33
5672.8
5671.74
5671.72
5668.96
5671
5672.45
5673.48
5673.63
5672.79
5671.7
5672.48
5670.78
5672.18
5673.18
5673.82
5674.08
5673.74
5672.65
5672.44
5722.89
5719.08
5715.82
5713.23
5711.2
5709.62
5708.41
5707.45
5727.67
5722.18
5717.69
5714.37
5711.83
5709.89
5708.4
5707.25
5730.42
5724.54
5718.84
5715.13
5712.33
5710.2
5708.56
5707.28
5730.76
5725.08
5719.36
5715.54
5712.7
5710.58
5708.99
5707.78
5730.47
5724.75
5719.22
5715.48
5712.67
5710.54
5708.93
5707.68
5728.24
5722.97
5718.43
5715.03
5712.45
5710.46
5708.91
5707.72
5724.28
5720.29
5716.85
5714.13
5711.99
5710.3
5708.96
5707.91
5701.03
5701.15
5701.29
5701.43
5701.57
5701.71
5701.85
5702
5700.95
5701.14
5701.31
5701.47
5701.61
5701.74
5701.86
5701.99
5700.97
5701.2
5701.41
5701.6
5701.75
5701.88
5701.99
5702.09
5701.18
5701.45
5701.67
5701.89
5702.05
5702.19
5702.32
5702.43
5701.69
5701.84
5701.96
5702.11
5702.22
5702.32
5702.41
5702.49
5702.04
5702.09
5702.14
5702.19
5702.24
5702.3
5702.35
5702.43
5702.28
5702.25
5702.24
5702.25
5702.28
5702.32
5702.38
5702.45
5681.09
5684.53
5687.32
5689.58
5691.41
5692.9
5694.14
5695.22
5677.26
5682.15
5685.8
5688.62
5690.81
5692.55
5693.96
5695.15
5674.15
5680.32
5684.74
5688.02
5690.5
5692.42
5693.94
5695.19
5673.01
5679.81
5684.58
5688.06
5690.67
5692.68
5694.27
5695.58
5674.66
5680.82
5685.24
5688.49
5690.96
5692.86
5694.37
5695.6
5678.04
5682.92
5686.51
5689.26
5691.41
5693.11
5694.48
5695.64
5681.96
5685.32
5688.04
5690.26
5692.06
5693.52
5694.72
5695.75
5675.2
5678.78
5681.85
5684.51
5686.91
5689.21
5691.53
5693.93
5671.32
5676.14
5679.93
5683.08
5685.82
5688.37
5690.91
5693.53
5668.37
5674.34
5678.72
5682.24
5685.24
5687.99
5690.67
5693.4
5666.85
5673.8
5678.53
5682.19
5685.29
5688.11
5690.85
5693.61
5668.03
5674.47
5679
5682.55
5685.58
5688.35
5691.06
5693.8
5671.23
5676.31
5680.19
5683.42
5686.23
5688.83
5691.4
5694.02
5675.1
5678.79
5681.99
5684.78
5687.29
5689.67
5692.04
5694.45
5670.56
5671.97
5672.98
5673.67
5674
5673.68
5672.54
5672.23
5668.74
5670.7
5672.11
5673.11
5673.74
5673.64
5672.59
5672.33
5667.42
5669.9
5671.55
5672.77
5673.59
5673.64
5672.68
5672.65
5667.05
5670.09
5671.78
5673
5673.78
5673.7
5672.76
5672.89
5667.6
5670.29
5671.98
5673.24
5674.09
5674.18
5673.26
5673.22
5669.1
5671.18
5672.68
5673.82
5674.56
5674.56
5673.57
5673.29
5670.8
5672.31
5673.54
5674.47
5675.02
5674.87
5673.85
5673.58
5706.61
5706.6
5706.53
5706.38
5706.46
5706.51
5706.53
5702.35
5702.32
5702.25
5702.22
5702.2
5702.21
5702.15
5696.33
5696.36
5696.29
5696.26
5696.26
5696.26
5696.24
5696.29
5696.34
5696.35
5696.36
5696.3
5696.3
5696.29
5676.87
5676.84
5676.82
5676.86
5676.76
5676.67
5676.58
5707.15
5706.92
5706.98
5707.37
5706.91
5706.94
5707.21
5702.61
5702.64
5702.73
5703.02
5702.74
5702.77
5702.76
5696.72
5696.69
5696.76
5697.07
5696.72
5696.77
5696.83
5696.65
5696.39
5696.16
5696.25
5696.2
5696.52
5696.73
5678.14
5678.47
5679.76
5679.96
5679.38
5678.55
5678.32
5707.13
5706.9
5707.03
5707.05
5706.52
5706.52
5706.84
5702.79
5702.72
5702.84
5702.72
5702.42
5702.34
5702.36
5696.8
5696.74
5696.86
5696.7
5696.4
5696.3
5696.32
5696.69
5696.37
5696.44
5696.02
5696.03
5695.99
5696.26
5678.34
5678.64
5678.22
5678.71
5677.79
5678.03
5677.31
5706.69
5706.43
5706.39
5706.95
5706.8
5706.86
5707.05
5702.17
5702.13
5702.2
5702.54
5702.57
5702.52
5702.56
5696.22
5696.16
5696.19
5696.62
5696.59
5696.62
5696.71
5696.19
5695.94
5695.83
5695.99
5696.22
5696.38
5696.66
5676.89
5677.47
5678.59
5679.31
5679.01
5678.27
5678.09
5705.6
5704.69
5704.16
5703.89
5703.75
5703.69
5703.65
5703.61
5705.65
5704.78
5704.24
5703.95
5703.79
5703.7
5703.65
5703.61
5705.57
5704.74
5704.23
5703.91
5703.75
5703.67
5703.62
5703.57
5705.42
5704.59
5704.16
5703.92
5703.74
5703.63
5703.58
5703.54
5705.48
5704.64
5704.14
5703.83
5703.68
5703.6
5703.55
5703.51
5705.54
5704.65
5704.12
5703.82
5703.66
5703.57
5703.52
5703.48
5705.46
5704.53
5704
5703.71
5703.57
5703.49
5703.45
5703.42
5702.61
5702.76
5702.87
5702.98
5703.08
5703.17
5703.25
5703.3
5702.61
5702.79
5702.91
5703.02
5703.12
5703.21
5703.28
5703.32
5702.57
5702.77
5702.9
5703.01
5703.11
5703.19
5703.26
5703.3
5702.55
5702.76
5702.9
5703.02
5703.1
5703.18
5703.24
5703.28
5702.51
5702.69
5702.83
5702.94
5703.04
5703.13
5703.2
5703.24
5702.48
5702.65
5702.77
5702.88
5702.98
5703.08
5703.15
5703.2
5702.4
5702.56
5702.68
5702.78
5702.88
5702.97
5703.05
5703.1
5697.94
5699.54
5700.73
5701.58
5702.17
5702.57
5702.84
5703
5697.98
5699.58
5700.78
5701.63
5702.22
5702.62
5702.88
5703.04
5697.88
5699.53
5700.75
5701.61
5702.21
5702.6
5702.87
5703.03
5697.84
5699.5
5700.72
5701.59
5702.19
5702.59
5702.85
5703.01
5697.89
5699.51
5700.71
5701.56
5702.15
5702.54
5702.81
5702.97
5697.9
5699.51
5700.69
5701.53
5702.1
5702.49
5702.75
5702.91
5697.87
5699.45
5700.61
5701.43
5702
5702.38
5702.64
5702.81
5699.05
5700.35
5701.2
5701.77
5702.16
5702.45
5702.66
5702.82
5699.1
5700.38
5701.22
5701.79
5702.19
5702.48
5702.7
5702.85
5699.14
5700.39
5701.22
5701.78
5702.17
5702.46
5702.68
5702.84
5699.13
5700.37
5701.2
5701.76
5702.16
5702.45
5702.67
5702.83
5699.03
5700.29
5701.13
5701.7
5702.1
5702.39
5702.62
5702.78
5698.99
5700.24
5701.06
5701.62
5702.03
5702.32
5702.55
5702.72
5698.95
5700.16
5700.97
5701.51
5701.91
5702.2
5702.43
5702.6
5688.15
5694.9
5698.24
5700.1
5701.21
5701.9
5702.33
5702.61
5688.04
5694.84
5698.21
5700.09
5701.21
5701.91
5702.35
5702.63
5687.97
5694.79
5698.17
5700.07
5701.19
5701.89
5702.33
5702.61
5687.95
5694.77
5698.15
5700.05
5701.18
5701.88
5702.32
5702.6
5687.89
5694.72
5698.11
5700.01
5701.14
5701.83
5702.28
5702.56
5687.87
5694.7
5698.08
5699.97
5701.1
5701.79
5702.23
5702.51
5687.89
5694.7
5698.06
5699.92
5701.02
5701.7
5702.13
5702.4
5705.96
5704.95
5704.35
5703.99
5703.79
5703.68
5703.62
5703.58
5705.79
5704.8
5704.19
5703.81
5703.59
5703.46
5703.37
5703.31
5705.8
5704.74
5704.07
5703.64
5703.37
5703.23
5703.13
5703.05
5706.31
5705.31
5704.63
5704.16
5703.82
5703.61
5703.5
5703.41
5705.72
5704.67
5704.01
5703.58
5703.32
5703.2
5703.11
5703.03
5705.84
5704.87
5704.28
5703.9
5703.69
5703.58
5703.49
5703.42
5706.04
5705.03
5704.44
5704.1
5703.89
5703.78
5703.71
5703.67
5702.73
5702.77
5702.8
5702.84
5702.9
5702.96
5703.02
5703.06
5702.76
5702.81
5702.82
5702.82
5702.84
5702.85
5702.87
5702.92
5702.8
5702.81
5702.8
5702.79
5702.77
5702.76
5702.74
5702.74
5703.08
5703.09
5703.09
5703.09
5703.08
5703.06
5703.07
5703.08
5702.81
5702.82
5702.8
5702.77
5702.75
5702.74
5702.73
5702.72
5702.91
5702.93
5702.94
5702.95
5702.97
5702.99
5703.01
5703.03
5702.87
5702.9
5702.93
5702.97
5703.02
5703.08
5703.14
5703.18
5698.21
5699.64
5700.69
5701.44
5701.94
5702.29
5702.53
5702.69
5698.05
5699.44
5700.49
5701.23
5701.62
5701.78
5702.18
5702.58
5698.06
5699.34
5700.29
5700.98
5701.49
5701.81
5702.04
5702.25
5698.41
5699.76
5700.76
5701.5
5702
5702.33
5702.55
5702.69
5698.03
5699.32
5700.27
5700.94
5701.42
5701.77
5702.02
5702.18
5698.12
5699.57
5700.62
5701.37
5701.89
5702.19
5702.39
5702.63
5698.31
5699.75
5700.82
5701.57
5702.08
5702.43
5702.66
5702.82
5699.14
5700.23
5700.94
5701.43
5701.79
5702.07
5702.29
5702.45
5699
5700.14
5700.83
5701.04
5701.09
5701.35
5701.83
5702.38
5698.88
5700.07
5700.75
5701.32
5701.72
5701.92
5702.05
5702.21
5698.92
5700.3
5701.12
5701.64
5701.97
5702.19
5702.36
5702.48
5698.91
5700.18
5700.87
5701.08
5701.34
5701.71
5701.97
5702.15
5699.15
5700.27
5701
5701.46
5701.72
5701.78
5701.86
5702.43
5699.28
5700.4
5701.13
5701.63
5701.98
5702.25
5702.45
5702.61
5689
5695.33
5698.42
5700.1
5701.09
5701.68
5702.07
5702.33
5689.13
5695.13
5698
5699.45
5700.17
5700.72
5701.42
5702.12
5690.08
5693.7
5695.86
5697.28
5698.15
5701.51
5701.78
5701.9
5690.32
5696.13
5699.01
5700.42
5701.16
5701.68
5702.04
5702.24
5689.92
5695.95
5698.7
5697.76
5697.87
5698.31
5701.13
5701.92
5689.28
5695.5
5698.46
5699.92
5700.67
5701.09
5701.44
5702.15
5689.18
5695.48
5698.55
5700.24
5701.23
5701.83
5702.21
5702.46
5705.94
5704.93
5704.35
5704.02
5703.84
5703.76
5703.72
5703.7
5705.82
5704.88
5704.33
5703.98
5703.73
5703.59
5703.52
5703.47
5705.9
5704.9
5704.28
5703.9
5703.66
5703.5
5703.39
5703.31
5706.02
5705.07
5704.45
5704.03
5703.76
5703.57
5703.45
5703.37
5705.41
5704.45
5703.91
5703.59
5703.41
5703.29
5703.2
5703.14
5705.49
5704.64
5704.16
5703.84
5703.64
5703.52
5703.46
5703.43
5705.79
5704.85
5704.29
5703.96
5703.78
5703.68
5703.63
5703.6
5702.9
5702.93
5702.96
5703.01
5703.07
5703.14
5703.2
5703.25
5702.84
5702.95
5702.97
5702.99
5703.01
5703.04
5703.08
5703.11
5702.94
5703
5703.03
5703.05
5703.07
5703.07
5703.06
5703.04
5702.83
5702.89
5702.93
5702.96
5702.98
5703
5703.02
5703.04
5702.57
5702.68
5702.75
5702.81
5702.84
5702.86
5702.88
5702.87
5702.55
5702.71
5702.8
5702.87
5702.93
5702.99
5703.05
5703.1
5702.61
5702.75
5702.85
5702.95
5703.04
5703.13
5703.2
5703.25
5698.29
5699.76
5700.85
5701.63
5702.17
5702.53
5702.78
5702.94
5698.11
5699.52
5700.64
5701.43
5701.98
5702.36
5702.6
5702.76
5698.24
5699.67
5700.76
5701.57
5702.13
5702.5
5702.73
5702.85
5698.1
5699.51
5700.55
5701.29
5701.81
5702.18
5702.42
5702.59
5697.81
5699.25
5700.35
5701.18
5701.78
5702.19
5702.46
5702.63
5697.74
5699.25
5700.43
5701.29
5701.9
5702.32
5702.6
5702.77
5697.81
5699.44
5700.65
5701.51
5702.11
5702.52
5702.79
5702.96
5699.29
5700.48
5701.24
5701.76
5702.12
5702.38
5702.59
5702.74
5699.11
5700.42
5701.24
5701.76
5702.11
5702.35
5702.53
5702.64
5699.33
5700.77
5701.63
5702.13
5702.44
5702.66
5702.81
5702.84
5698.81
5700.39
5701.34
5701.95
5702.32
5702.54
5702.67
5702.74
5699
5700.46
5701.33
5701.86
5702.19
5702.43
5702.59
5702.71
5698.82
5700.23
5701.13
5701.7
5702.09
5702.35
5702.54
5702.67
5699.06
5700.35
5701.2
5701.76
5702.15
5702.44
5702.65
5702.81
5689.19
5695.5
5698.58
5700.28
5701.29
5701.91
5702.31
5702.56
5689.3
5695.53
5698.62
5700.31
5701.32
5701.94
5702.33
5702.57
5688.57
5695.51
5698.65
5700.4
5701.41
5702.05
5702.47
5702.74
5689.57
5695.79
5698.56
5700.41
5701.47
5702.12
5702.52
5702.72
5688.89
5695.34
5698.29
5700.2
5701.25
5701.91
5702.33
5702.6
5688.84
5695.13
5698.33
5700.13
5701.2
5701.87
5702.29
5702.54
5688.44
5695.04
5698.3
5700.13
5701.22
5701.9
5702.33
5702.6
5705.6
5704.65
5704.07
5703.72
5703.52
5703.4
5703.34
5703.3
5705.39
5704.46
5703.87
5703.5
5703.28
5703.14
5703.04
5702.99
5705.27
5704.28
5703.68
5703.32
5703.1
5702.97
5702.88
5702.82
5705.9
5704.91
5704.26
5703.84
5703.56
5703.38
5703.27
5703.2
5705.68
5704.66
5704
5703.58
5703.32
5703.14
5703.02
5702.94
5705.75
5704.76
5704.14
5703.76
5703.53
5703.38
5703.28
5703.21
5705.85
5704.84
5704.25
5703.9
5703.71
5703.61
5703.57
5703.53
5702.38
5702.5
5702.6
5702.68
5702.75
5702.83
5702.9
5702.95
5702.33
5702.45
5702.5
5702.54
5702.57
5702.6
5702.63
5702.66
5702.34
5702.41
5702.45
5702.47
5702.48
5702.48
5702.49
5702.5
5702.68
5702.75
5702.79
5702.81
5702.83
5702.85
5702.87
5702.89
5702.67
5702.71
5702.7
5702.68
5702.66
5702.64
5702.64
5702.63
5702.66
5702.71
5702.74
5702.75
5702.77
5702.8
5702.82
5702.8
5702.68
5702.73
5702.76
5702.8
5702.86
5702.92
5702.99
5703.03
5697.78
5699.32
5700.46
5701.26
5701.82
5702.19
5702.45
5702.62
5697.6
5699.07
5700.17
5700.97
5701.51
5701.88
5702.01
5701.94
5697.59
5698.96
5699.98
5700.71
5701.23
5701.59
5701.85
5701.9
5698.04
5699.45
5700.5
5701.24
5701.75
5702.11
5702.35
5702.52
5697.96
5699.32
5700.32
5701.02
5701.5
5701.82
5702.02
5702.06
5698.02
5699.45
5700.51
5701.27
5701.79
5702.14
5702.29
5702.25
5698.21
5699.65
5700.7
5701.44
5701.95
5702.29
5702.52
5702.68
5698.82
5700.05
5700.84
5701.37
5701.75
5702.03
5702.24
5702.41
5698.64
5699.89
5700.68
5701.2
5701.55
5701.77
5701.33
5701.16
5698.72
5700
5700.77
5701.2
5701.47
5701.68
5701.82
5701.73
5698.77
5700.19
5701.01
5701.51
5701.82
5702.05
5702.22
5702.35
5699.01
5700.33
5701.08
5701.52
5701.75
5701.87
5702.02
5702.13
5699.01
5700.18
5700.92
5701.42
5701.76
5701.99
5701.9
5701.96
5699.16
5700.25
5700.97
5701.46
5701.81
5702.08
5702.3
5702.46
5688.1
5694.79
5698.07
5699.88
5700.94
5701.58
5701.98
5702.25
5688.52
5695.03
5698.18
5699.88
5700.85
5701.07
5700.49
5700.72
5689.28
5695.57
5698.58
5700.13
5700.25
5699.72
5701.17
5701.72
5689.96
5696.01
5698.9
5700.33
5701.02
5701.43
5701.79
5702.14
5689.63
5695.79
5698.76
5700.34
5701.07
5699.58
5699.46
5700.81
5689.07
5695.37
5698.43
5700.09
5701.04
5701.48
5701.58
5701.66
5688.98
5695.34
5698.43
5700.13
5701.12
5701.72
5702.09
5702.34
5703.58
5703.56
5703.54
5703.52
5703.49
5703.47
5703.46
5703.46
5703.57
5703.55
5703.52
5703.5
5703.48
5703.46
5703.45
5703.45
5703.54
5703.52
5703.49
5703.47
5703.45
5703.43
5703.42
5703.42
5703.51
5703.49
5703.47
5703.44
5703.42
5703.41
5703.4
5703.4
5703.48
5703.46
5703.44
5703.42
5703.4
5703.38
5703.37
5703.37
5703.45
5703.43
5703.41
5703.39
5703.37
5703.35
5703.34
5703.34
5703.39
5703.37
5703.35
5703.33
5703.31
5703.29
5703.28
5703.28
5703.32
5703.34
5703.35
5703.35
5703.36
5703.35
5703.35
5703.35
5703.34
5703.35
5703.36
5703.36
5703.36
5703.36
5703.36
5703.35
5703.32
5703.33
5703.34
5703.34
5703.34
5703.34
5703.33
5703.33
5703.3
5703.32
5703.32
5703.32
5703.32
5703.32
5703.31
5703.31
5703.26
5703.28
5703.29
5703.29
5703.29
5703.29
5703.28
5703.28
5703.22
5703.24
5703.25
5703.25
5703.25
5703.25
5703.25
5703.24
5703.13
5703.15
5703.16
5703.17
5703.17
5703.17
5703.17
5703.17
5703.09
5703.15
5703.19
5703.22
5703.23
5703.25
5703.25
5703.25
5703.12
5703.18
5703.21
5703.24
5703.26
5703.27
5703.27
5703.27
5703.11
5703.16
5703.2
5703.22
5703.24
5703.25
5703.25
5703.25
5703.09
5703.14
5703.18
5703.21
5703.22
5703.23
5703.24
5703.24
5703.05
5703.11
5703.14
5703.17
5703.19
5703.2
5703.2
5703.2
5703
5703.05
5703.1
5703.12
5703.14
5703.15
5703.16
5703.16
5702.9
5702.96
5703
5703.03
5703.05
5703.07
5703.08
5703.08
5702.91
5702.98
5703.02
5703.06
5703.09
5703.1
5703.11
5703.11
5702.95
5703.01
5703.06
5703.1
5703.12
5703.14
5703.15
5703.14
5702.93
5702.99
5703.04
5703.08
5703.1
5703.12
5703.13
5703.13
5702.92
5702.98
5703.03
5703.07
5703.09
5703.11
5703.12
5703.12
5702.87
5702.94
5702.99
5703.03
5703.05
5703.07
5703.08
5703.08
5702.82
5702.88
5702.94
5702.98
5703
5703.02
5703.03
5703.03
5702.7
5702.77
5702.83
5702.87
5702.9
5702.92
5702.93
5702.93
5702.75
5702.84
5702.91
5702.96
5702.99
5703.01
5703.02
5703.03
5702.78
5702.87
5702.93
5702.98
5703.02
5703.04
5703.05
5703.06
5702.76
5702.85
5702.92
5702.97
5703.01
5703.03
5703.04
5703.04
5702.75
5702.84
5702.91
5702.96
5703
5703.02
5703.03
5703.03
5702.71
5702.8
5702.87
5702.92
5702.96
5702.98
5702.99
5702.99
5702.66
5702.75
5702.82
5702.87
5702.91
5702.93
5702.95
5702.95
5702.55
5702.64
5702.71
5702.77
5702.8
5702.83
5702.84
5702.85
5703.56
5703.54
5703.51
5703.48
5703.45
5703.42
5703.4
5703.39
5703.28
5703.26
5703.24
5703.22
5703.2
5703.18
5703.17
5703.16
5703
5702.98
5702.96
5702.94
5702.94
5702.94
5702.94
5702.94
5703.37
5703.35
5703.34
5703.34
5703.33
5703.33
5703.31
5703.33
5703
5702.97
5702.96
5702.95
5702.95
5702.95
5702.95
5702.96
5703.38
5703.36
5703.33
5703.31
5703.29
5703.27
5703.26
5703.25
5703.64
5703.61
5703.59
5703.56
5703.53
5703.5
5703.47
5703.47
5703.09
5703.12
5703.13
5703.14
5703.15
5703.15
5703.15
5703.15
5702.95
5702.97
5702.99
5703
5703
5703.01
5702.96
5702.93
5702.73
5702.73
5702.74
5702.74
5702.74
5702.76
5702.75
5702.68
5703.09
5703.09
5703.1
5703.1
5703.11
5703.11
5703.12
5703.11
5702.72
5702.72
5702.72
5702.73
5702.74
5702.75
5702.74
5702.69
5703.05
5703.07
5703.08
5703.08
5703.09
5703.09
5703.06
5703.03
5703.2
5703.22
5703.23
5703.24
5703.25
5703.25
5703.25
5703.24
5702.78
5702.84
5702.89
5702.92
5702.95
5702.96
5702.97
5702.98
5702.68
5702.74
5702.79
5702.83
5702.87
5702.9
5702.92
5702.92
5702.36
5702.42
5702.45
5702.48
5702.5
5702.52
5702.48
5702.37
5702.76
5702.81
5702.86
5702.89
5702.92
5702.94
5702.94
5702.86
5702.28
5702.35
5702.42
5702.47
5702.49
5702.51
5702.49
5702.38
5702.76
5702.83
5702.88
5702.91
5702.94
5702.97
5702.99
5702.99
5702.9
5702.96
5703
5703.03
5703.05
5703.07
5703.08
5703.08
5702.56
5702.63
5702.69
5702.73
5702.76
5702.78
5702.8
5702.8
5702.48
5702.54
5702.6
5702.64
5702.68
5702.7
5702.72
5702.72
5702.32
5702.37
5702.4
5702.42
5702.44
5702.45
5702.38
5702.22
5702.54
5702.57
5702.65
5702.68
5702.71
5702.73
5702.73
5702.62
5702.26
5702.32
5702.37
5702.4
5702.43
5702.44
5702.41
5702.31
5702.54
5702.61
5702.66
5702.7
5702.74
5702.77
5702.78
5702.78
5702.7
5702.77
5702.82
5702.85
5702.88
5702.9
5702.91
5702.91
5702.46
5702.55
5702.62
5702.67
5702.7
5702.72
5702.74
5702.74
5702.32
5702.39
5702.47
5702.53
5702.54
5702.52
5702.53
5702.59
5702.17
5702.31
5702.38
5702.44
5702.51
5702.52
5702.49
5702.43
5702.3
5702.36
5702.46
5702.53
5702.57
5702.59
5702.6
5702.53
5701.61
5701.71
5702.1
5702.43
5702.45
5702.46
5702.47
5702.46
5702.37
5702.45
5702.52
5702.57
5702.58
5702.59
5702.62
5702.64
5702.59
5702.67
5702.74
5702.78
5702.82
5702.84
5702.85
5702.85
5703.67
5703.66
5703.63
5703.61
5703.58
5703.55
5703.53
5703.52
5703.45
5703.43
5703.42
5703.41
5703.4
5703.38
5703.37
5703.37
5703.25
5703.21
5703.18
5703.16
5703.15
5703.15
5703.15
5703.16
5703.34
5703.33
5703.33
5703.33
5703.32
5703.32
5703.33
5703.34
5703.1
5703.09
5703.08
5703.07
5703.07
5703.07
5703.07
5703.09
5703.41
5703.4
5703.39
5703.38
5703.36
5703.35
5703.34
5703.35
5703.58
5703.56
5703.54
5703.52
5703.5
5703.48
5703.46
5703.46
5703.27
5703.29
5703.31
5703.31
5703.32
5703.32
5703.32
5703.31
5703.13
5703.11
5703.13
5703.19
5703.2
5703.2
5703.2
5703.2
5703.02
5703.01
5703
5703
5703
5703
5703
5703.01
5703.05
5703.06
5703.06
5703.07
5703.08
5703.1
5703.11
5703.13
5702.87
5702.86
5702.86
5702.86
5702.87
5702.89
5702.9
5702.91
5703.12
5703.12
5703.16
5703.18
5703.19
5703.2
5703.21
5703.21
5703.28
5703.3
5703.32
5703.33
5703.33
5703.33
5703.33
5703.33
5703.02
5703.08
5703.12
5703.15
5703.17
5703.19
5703.19
5703.19
5702.82
5702.79
5702.8
5702.96
5702.98
5703
5703.01
5703.02
5702.8
5702.78
5702.76
5702.67
5702.62
5702.83
5702.91
5702.91
5702.68
5702.73
5702.76
5702.77
5702.82
5702.84
5702.89
5702.9
5702.69
5702.63
5702.54
5702.48
5702.5
5702.59
5702.78
5702.79
5702.85
5702.86
5702.9
5702.98
5703
5703.03
5703.04
5703.04
5703.06
5703.11
5703.16
5703.19
5703.21
5703.22
5703.23
5703.23
5702.84
5702.9
5702.95
5702.99
5703.01
5703.03
5703.04
5703.05
5702.67
5702.72
5702.75
5702.76
5702.79
5702.81
5702.81
5702.82
5702.5
5702.55
5702.59
5702.62
5702.63
5702.63
5702.63
5702.63
5702.77
5702.77
5702.77
5702.71
5702.65
5702.76
5702.76
5702.77
5702.61
5702.37
5702.41
5702.44
5702.46
5702.47
5702.61
5702.71
5702.74
5702.77
5702.78
5702.8
5702.86
5702.89
5702.9
5702.9
5702.9
5702.96
5703.01
5703.05
5703.08
5703.1
5703.11
5703.11
5702.7
5702.78
5702.84
5702.89
5702.93
5702.95
5702.96
5702.97
5702.69
5702.76
5702.8
5702.83
5702.85
5702.86
5702.86
5702.86
5702.89
5702.93
5703.02
5703.14
5703.18
5703.07
5702.92
5702.83
5702.74
5702.7
5702.7
5702.73
5702.48
5702.4
5702.42
5702.27
5702.74
5702.84
5702.74
5702.54
5702.75
5702.93
5702.8
5702.67
5702.67
5702.75
5702.8
5702.82
5702.85
5702.89
5702.89
5702.9
5702.75
5702.84
5702.91
5702.96
5702.99
5703.01
5703.03
5703.03
5703.28
5703.26
5703.25
5703.23
5703.21
5703.19
5703.18
5703.19
5702.96
5702.95
5702.94
5702.94
5702.93
5702.93
5702.93
5702.93
5702.78
5702.77
5702.76
5702.76
5702.76
5702.76
5702.76
5702.77
5703.17
5703.16
5703.16
5703.15
5703.15
5703.15
5703.14
5703.16
5702.89
5702.87
5702.85
5702.84
5702.83
5702.83
5702.83
5702.83
5703.18
5703.16
5703.15
5703.14
5703.13
5703.11
5703.1
5703.1
5703.51
5703.49
5703.47
5703.44
5703.41
5703.38
5703.36
5703.35
5702.98
5703
5703.02
5703.04
5703.04
5703.05
5703.05
5703.05
5702.68
5702.74
5702.76
5702.78
5702.79
5702.8
5702.8
5702.81
5702.52
5702.53
5702.54
5702.55
5702.57
5702.58
5702.57
5702.56
5702.91
5702.93
5702.93
5702.94
5702.95
5702.96
5702.97
5702.95
5702.63
5702.63
5702.64
5702.66
5702.66
5702.67
5702.66
5702.64
5702.75
5702.88
5702.93
5702.94
5702.95
5702.96
5702.95
5702.94
5703.06
5703.09
5703.1
5703.11
5703.12
5703.12
5703.12
5703.12
5702.72
5702.78
5702.83
5702.87
5702.89
5702.91
5702.92
5702.93
5702.37
5702.51
5702.57
5702.62
5702.65
5702.67
5702.7
5702.7
5701.96
5702.2
5702.25
5702.28
5702.31
5702.32
5702.29
5702.27
5702.59
5702.66
5702.71
5702.75
5702.77
5702.79
5702.79
5702.74
5702.12
5702.32
5702.39
5702.43
5702.45
5702.46
5702.46
5702.43
5702.42
5702.67
5702.76
5702.8
5702.83
5702.84
5702.85
5702.85
5702.77
5702.83
5702.88
5702.91
5702.93
5702.95
5702.96
5702.96
5702.52
5702.6
5702.66
5702.71
5702.74
5702.76
5702.78
5702.78
5702.17
5702.34
5702.4
5702.45
5702.49
5702.5
5702.51
5702.52
5701.8
5702.05
5702.14
5702.17
5702.2
5702.21
5702.17
5702.13
5702.42
5702.45
5702.5
5702.57
5702.59
5702.61
5702.61
5702.55
5702.15
5702.21
5702.31
5702.37
5702.39
5702.4
5702.4
5702.4
5702.2
5702.54
5702.59
5702.63
5702.66
5702.66
5702.65
5702.65
5702.56
5702.63
5702.68
5702.73
5702.76
5702.78
5702.79
5702.79
5702.4
5702.5
5702.57
5702.63
5702.67
5702.7
5702.72
5702.72
5701.7
5702.22
5702.28
5702.35
5702.39