/*--------------------------------*- C++ -*----------------------------------*\
| =========                 |                                                 |
| \\      /  F ield         | OpenFOAM: The Open Source CFD Toolbox           |
|  \\    /   O peration     | Version:  plus.master.MPPICInterFoam            |
|   \\  /    A nd           | Web:      www.OpenFOAM.com                      |
|    \\/     M anipulation  |                                                 |
\*---------------------------------------------------------------------------*/
FoamFile
{
    version     2.0;
    format      ascii;
    class       volVectorField;
    location    "10.6";
    object      U;
}
// * * * * * * * * * * * * * * * * * * * * * * * * * * * * * * * * * * * * * //

dimensions      [0 1 -1 0 0 0 0];

internalField   nonuniform List<vector> 
11822
(
(-0.00159854 -0.00720125 0.47593)
(-4.40123e-05 -0.00693021 0.46627)
(0.000974657 -0.00607974 0.43869)
(0.00167044 -0.00494193 0.39809)
(0.00201437 -0.00402946 0.350358)
(0.00215194 -0.00340594 0.300422)
(0.00215961 -0.00299363 0.251026)
(-0.00173568 -0.00910134 0.568968)
(0.000587676 -0.00794047 0.559242)
(0.00174544 -0.00705671 0.521354)
(0.00255009 -0.0056116 0.465445)
(0.00287882 -0.00442473 0.404287)
(0.00286725 -0.0036146 0.343474)
(0.00274345 -0.00313334 0.285953)
(-0.00124471 -0.00908626 0.700063)
(0.00264036 -0.00564167 0.696375)
(0.00340602 -0.00622431 0.62881)
(0.00436492 -0.00566809 0.540172)
(0.00456318 -0.00435531 0.457056)
(0.00407287 -0.00344548 0.383593)
(0.00358827 -0.00297635 0.317186)
(0.000210642 -0.00860921 0.851847)
(0.00609621 -0.00536378 0.859583)
(0.00631956 -0.00343232 0.75512)
(0.00680464 -0.00423035 0.614112)
(0.00681592 -0.00313675 0.502497)
(0.00550064 -0.00252458 0.415962)
(0.004509 -0.00236286 0.341942)
(0.0045342 -0.00284163 0.94511)
(0.00735838 -0.00305249 0.908807)
(0.00717187 -0.00216091 0.801473)
(0.00637469 -0.00158236 0.661996)
(0.00746267 -0.00110786 0.529808)
(0.00618863 -0.00110387 0.435429)
(0.00505071 -0.00144478 0.357182)
(0.0002426 0.00229743 0.918108)
(0.00551975 -0.00119615 0.91347)
(0.00573669 -0.000812541 0.812533)
(0.00625168 0.00137362 0.656738)
(0.00754172 0.00106193 0.531715)
(0.00624946 0.000360378 0.438527)
(0.00523245 -0.000479601 0.360981)
(-0.00137576 0.00526141 0.799895)
(0.00346135 0.00356717 0.812158)
(0.00491696 0.00393954 0.724873)
(0.00647847 0.00452831 0.610526)
(0.00642581 0.00299984 0.509003)
(0.00555135 0.00165154 0.42594)
(0.00503237 0.000373003 0.353217)
(-0.00114312 -0.000675669 0.476413)
(-0.00122264 -0.000369313 0.466458)
(-0.00113341 -0.000476341 0.438636)
(-0.000874468 -0.000625591 0.397885)
(-0.00048614 -0.000998968 0.350161)
(-1.38457e-05 -0.00134661 0.300468)
(0.000337427 -0.00162294 0.251526)
(-0.00116219 -0.000352629 0.569427)
(-0.00135891 2.54942e-05 0.559343)
(-0.00159202 -0.000200943 0.521601)
(-0.00140779 -0.000373589 0.465349)
(-0.000946364 -0.000917396 0.403894)
(-0.000273219 -0.00137568 0.343122)
(0.000273448 -0.00174889 0.285954)
(9.60132e-05 -0.00101156 0.694047)
(4.3283e-06 0.000627534 0.694649)
(-0.00133018 -0.000570024 0.629688)
(-0.00143658 -0.000406312 0.540506)
(-0.000992837 -0.000975216 0.456657)
(-0.00027416 -0.00135643 0.382966)
(0.000373168 -0.00173777 0.316777)
(-0.000121767 -0.00374231 0.826261)
(0.00344438 -0.000168996 0.852147)
(0.00141835 -0.000276818 0.753634)
(-0.000211448 -0.000193477 0.614626)
(-0.000562206 -0.000769086 0.501934)
(-2.11569e-05 -0.00113336 0.415127)
(0.000585386 -0.00155518 0.341207)
(0.00260116 -0.00449693 0.863958)
(0.00812975 -0.00324977 0.888545)
(0.00191737 -0.00179683 0.832028)
(-0.00221565 -0.000820709 0.659927)
(-0.000933026 -0.000604097 0.528962)
(-6.55981e-05 -0.000840612 0.434455)
(0.000690957 -0.00130354 0.356212)
(-6.235e-05 -0.00382094 0.875381)
(0.00701576 -0.00496583 0.906235)
(0.00317475 -0.00196074 0.813392)
(-0.000452814 -0.00113905 0.654918)
(-0.00054377 -0.00045014 0.530774)
(6.55763e-05 -0.000566936 0.437417)
(0.00084995 -0.00107495 0.359859)
(0.00020881 -0.00116619 0.768535)
(0.00176953 -0.00222667 0.783536)
(-0.000157817 -0.000460457 0.718745)
(-0.00126757 -0.000425982 0.609747)
(-0.00101877 -0.000187004 0.507962)
(-3.24756e-06 -0.000365796 0.424755)
(0.00109936 -0.00101327 0.352032)
(-0.000649681 0.00441503 0.473418)
(-0.0020405 0.00475728 0.463279)
(-0.00257145 0.0036374 0.4352)
(-0.00243558 0.00218501 0.394345)
(-0.00178371 0.000679018 0.346926)
(-0.000935108 -0.000417176 0.29795)
(-0.000295404 -0.00118148 0.249962)
(-0.0010738 0.00779635 0.568849)
(-0.00351148 0.00750219 0.558432)
(-0.00465011 0.00579342 0.51965)
(-0.00452578 0.00370517 0.462087)
(-0.00341703 0.00137448 0.400088)
(-0.00191539 -0.00020277 0.339712)
(-0.000769747 -0.00123758 0.283488)
(-0.000366082 0.00876686 0.69837)
(-0.00476505 0.00824258 0.699229)
(-0.00693779 0.00578154 0.632146)
(-0.00681275 0.00430545 0.539113)
(-0.00521928 0.00161677 0.452917)
(-0.00291632 -0.000112832 0.378923)
(-0.00119225 -0.00122835 0.31353)
(-0.00383966 0.00731902 0.838595)
(-0.0068997 0.0079066 0.862533)
(-0.00784309 0.00409803 0.761389)
(-0.00765232 0.00359392 0.616183)
(-0.0066549 0.00119571 0.49857)
(-0.00377122 -0.000255685 0.410697)
(-0.00154088 -0.00125506 0.337368)
(-0.00726654 0.00120654 0.869759)
(-0.0090764 3.09955e-05 0.936291)
(-0.0124429 0.000231296 0.841111)
(-0.00972315 0.000425093 0.662883)
(-0.00810966 -0.000136243 0.525607)
(-0.00452989 -0.000755939 0.429753)
(-0.00182131 -0.00141316 0.351985)
(-0.00797164 -0.0039029 0.846002)
(-0.00793594 -0.00577129 0.91181)
(-0.00994964 -0.00358457 0.825763)
(-0.00916662 -0.00340067 0.656502)
(-0.00800739 -0.0018319 0.527265)
(-0.00450172 -0.00144031 0.432559)
(-0.00173768 -0.00168238 0.355459)
(-0.00246538 -0.00719271 0.76969)
(-0.00611051 -0.00668053 0.783736)
(-0.00929903 -0.00612322 0.722421)
(-0.00975386 -0.00579175 0.609098)
(-0.00733757 -0.00314555 0.503824)
(-0.00387454 -0.00207114 0.419757)
(-0.00113636 -0.00213711 0.347661)
(-0.000779614 0.00128143 0.467983)
(-0.00133907 0.00136272 0.457627)
(-0.00123426 0.000303257 0.429573)
(-0.000610761 -0.000773536 0.389356)
(0.000183887 -0.0017116 0.3432)
(0.000874856 -0.00230646 0.295857)
(0.00126928 -0.00265742 0.249606)
(-0.0017864 0.00461396 0.568767)
(-0.00325025 0.00410392 0.55735)
(-0.00313407 0.00225697 0.515426)
(-0.00216928 0.000551287 0.455987)
(-0.000761412 -0.00111072 0.394539)
(0.000516409 -0.00210468 0.335885)
(0.00131008 -0.00268771 0.281659)
(-0.00284131 0.00624537 0.724168)
(-0.00603005 0.00471921 0.719182)
(-0.00548793 0.00252423 0.64157)
(-0.00388298 0.00147276 0.535864)
(-0.00188049 -0.000546224 0.446315)
(0.000130575 -0.00181971 0.373534)
(0.00133964 -0.00255346 0.310354)
(-0.00901494 0.00681302 0.872908)
(-0.0103177 0.00313205 0.879316)
(-0.00663104 0.0011279 0.77971)
(-0.00475398 0.00172555 0.622864)
(-0.00294475 -0.000270323 0.49217)
(-0.000346254 -0.00151648 0.404134)
(0.00130576 -0.00229645 0.333111)
(-0.0165442 0.00408506 0.910533)
(-0.0180126 0.00203901 0.965859)
(-0.0104549 -0.000369462 0.855111)
(-0.00689958 0.000115706 0.678404)
(-0.00434079 -0.000802793 0.51985)
(-0.0010239 -0.0014619 0.422537)
(0.00113615 -0.00207691 0.347042)
(-0.0137493 0.000879951 0.899287)
(-0.0150679 0.000388634 0.923005)
(-0.010809 -0.00188687 0.838399)
(-0.00712529 -0.00292218 0.669886)
(-0.00457973 -0.00182331 0.521263)
(-0.00114594 -0.00161035 0.425197)
(0.00112345 -0.0019428 0.350325)
(-0.00569532 -0.00443008 0.807248)
(-0.0087351 -0.00358679 0.82571)
(-0.00927713 -0.00470655 0.751667)
(-0.007158 -0.00490747 0.61191)
(-0.00396792 -0.00246856 0.496772)
(-0.0007816 -0.00167188 0.412679)
(0.00139335 -0.00191067 0.342827)
(-0.00172029 -0.00800325 0.462277)
(0.000278641 -0.00848193 0.451803)
(0.00226675 -0.00877776 0.424158)
(0.00411854 -0.00831843 0.384854)
(0.00536583 -0.00773985 0.339793)
(0.00611938 -0.00730416 0.293455)
(0.00657055 -0.00702293 0.247973)
(-0.0029595 -0.00728564 0.560241)
(-0.000635684 -0.00785351 0.548457)
(0.00210291 -0.00874808 0.506802)
(0.00461616 -0.00819944 0.449117)
(0.00617796 -0.0075058 0.389492)
(0.00694222 -0.00702334 0.332393)
(0.00731113 -0.00672219 0.27932)
(-0.0059788 -0.00574707 0.724202)
(-0.00280681 -0.00733866 0.710379)
(0.0025063 -0.00850182 0.630115)
(0.00587082 -0.00741825 0.525475)
(0.00741811 -0.00652363 0.439283)
(0.00798151 -0.00619028 0.368793)
(0.00813776 -0.00599277 0.307191)
(-0.0108789 -0.0025582 0.873774)
(-0.00604173 -0.00728261 0.857762)
(0.00271267 -0.00799461 0.76477)
(0.00667067 -0.00528845 0.609613)
(0.00835143 -0.00462649 0.483069)
(0.0087502 -0.00465211 0.398194)
(0.00878419 -0.00477068 0.329151)
(-0.0145551 0.000804804 0.936745)
(-0.010384 -0.00192564 0.882694)
(-0.00203313 -0.00263653 0.830588)
(0.00450931 -0.00195447 0.663441)
(0.00777542 -0.00252618 0.509513)
(0.00867279 -0.00288241 0.415703)
(0.00893473 -0.00330871 0.342462)
(-0.0118625 0.00409036 0.91402)
(-0.00937642 0.00277023 0.900754)
(-0.00261075 0.00180439 0.825075)
(0.00403535 7.74578e-05 0.657195)
(0.00726094 -0.000704084 0.510567)
(0.00834483 -0.00118052 0.418053)
(0.00877754 -0.00182921 0.345422)
(-0.00674476 0.00394351 0.808067)
(-0.00498879 0.00236403 0.820106)
(-0.000271784 0.00270559 0.738507)
(0.00395835 0.00173485 0.59895)
(0.00653961 0.00119287 0.486984)
(0.00767011 0.000526099 0.405816)
(0.00827272 -0.000356814 0.337931)
(-0.00286147 -0.0146205 0.459846)
(0.00152443 -0.0155967 0.448888)
(0.00494107 -0.0151891 0.421662)
(0.00762411 -0.0139195 0.383408)
(0.00937594 -0.0127992 0.339661)
(0.0105394 -0.0120365 0.29486)
(0.0114459 -0.0114174 0.251393)
(-0.00344969 -0.0160525 0.552311)
(0.00187562 -0.0165609 0.540056)
(0.00624856 -0.01601 0.499965)
(0.00945803 -0.0141469 0.444863)
(0.0111159 -0.0123811 0.387429)
(0.012018 -0.0113175 0.332134)
(0.0127325 -0.0105693 0.28091)
(-0.00661427 -0.0138459 0.706743)
(0.00170389 -0.0148911 0.690856)
(0.00866547 -0.0153053 0.613928)
(0.0124994 -0.0132839 0.516313)
(0.0137614 -0.0111088 0.434982)
(0.0137883 -0.00991097 0.367047)
(0.0139528 -0.00920451 0.307419)
(-0.00984292 -0.00855175 0.852513)
(-0.000500768 -0.0124863 0.832316)
(0.0103249 -0.0130401 0.739423)
(0.015201 -0.0103561 0.591632)
(0.016249 -0.0081447 0.475991)
(0.015383 -0.00741572 0.395101)
(0.0149183 -0.00708106 0.328364)
(-0.00735035 -0.000928318 0.917451)
(-0.00174831 -0.00640222 0.869349)
(0.00563744 -0.00430986 0.794712)
(0.0137668 -0.00437511 0.636303)
(0.0164185 -0.00432226 0.500446)
(0.0155757 -0.00431463 0.41159)
(0.0151144 -0.0044738 0.34102)
(-0.00892909 0.00534104 0.901369)
(-0.00470265 -0.000759266 0.885874)
(0.00335723 0.00336388 0.79281)
(0.0124797 0.00139756 0.634787)
(0.0156199 -0.000409848 0.50094)
(0.0150355 -0.00103549 0.413618)
(0.0146594 -0.0016997 0.343822)
(-0.00835386 0.00922985 0.795949)
(-0.00230522 0.00506341 0.801915)
(0.00517251 0.00814598 0.719752)
(0.0113542 0.00595949 0.582639)
(0.0134933 0.00367751 0.47908)
(0.0133363 0.0023218 0.401944)
(0.0132369 0.00126882 0.336816)
(0.00188476 -0.00273607 0.209385)
(0.00155001 -0.00246424 0.177478)
(0.00119488 -0.00222556 0.14807)
(0.000830543 -0.00199261 0.121388)
(0.000450172 -0.00176507 0.0972687)
(6.59236e-05 -0.00155087 0.0751032)
(-0.000303501 -0.00135991 0.0532309)
(-0.000644475 -0.00120167 0.0256576)
(0.00238928 -0.0029429 0.236417)
(0.00195505 -0.00278907 0.196539)
(0.00151419 -0.00272614 0.161334)
(0.0010393 -0.00268785 0.13014)
(0.000533937 -0.00266319 0.102394)
(1.64204e-05 -0.00264479 0.0772724)
(-0.000482653 -0.0026298 0.0529217)
(-0.000915598 -0.00256646 0.0227607)
(0.00309151 -0.0028914 0.261328)
(0.00260691 -0.00291903 0.216422)
(0.00211594 -0.00304803 0.177115)
(0.00159008 -0.00321757 0.14264)
(0.00103362 -0.00340691 0.112257)
(0.000464669 -0.0035979 0.0849952)
(-8.24552e-05 -0.00376964 0.0588256)
(-0.000551019 -0.00381911 0.0266668)
(0.00383818 -0.00249444 0.28217)
(0.00333531 -0.00274682 0.235034)
(0.00284859 -0.00308016 0.193885)
(0.00234236 -0.0034658 0.157902)
(0.00181639 -0.0038751 0.126274)
(0.00128362 -0.00427996 0.0979593)
(0.0007711 -0.00464119 0.0708144)
(0.000320673 -0.00480746 0.0373325)
(0.00437059 -0.00182783 0.296602)
(0.00393314 -0.00230581 0.250553)
(0.00352946 -0.00281784 0.210251)
(0.00312721 -0.00339133 0.174894)
(0.00271939 -0.00398751 0.143698)
(0.00231063 -0.00457046 0.115627)
(0.00191515 -0.00508783 0.0884985)
(0.00153297 -0.00535734 0.0544861)
(0.0046396 -0.00104369 0.303364)
(0.00430162 -0.0016901 0.262019)
(0.00402439 -0.00232717 0.225422)
(0.00378778 -0.00302019 0.19291)
(0.00356747 -0.00372728 0.163882)
(0.00335446 -0.00441174 0.137424)
(0.00314256 -0.00501521 0.111399)
(0.00287562 -0.00534497 0.0777872)
(0.00473182 -0.000490036 0.301999)
(0.00456282 -0.00115797 0.26968)
(0.00441934 -0.00184141 0.239336)
(0.00436075 -0.00256241 0.211541)
(0.00432898 -0.00329192 0.186159)
(0.00432179 -0.00400112 0.162488)
(0.00431801 -0.0046396 0.138501)
(0.00422835 -0.0050384 0.106018)
(0.000451636 -0.00174066 0.210459)
(0.000405192 -0.00176904 0.179075)
(0.000297929 -0.00173197 0.150166)
(0.000124235 -0.00165607 0.123925)
(-8.56491e-05 -0.00155898 0.100171)
(-0.000316737 -0.00145647 0.0782936)
(-0.000551635 -0.00135764 0.0566446)
(-0.000731102 -0.00129502 0.0292627)
(0.000525345 -0.00193712 0.236973)
(0.000549447 -0.00214172 0.197699)
(0.000438445 -0.0022838 0.163078)
(0.000219732 -0.00239127 0.132397)
(-6.76351e-05 -0.00247299 0.105074)
(-0.000391859 -0.00253996 0.0802865)
(-0.000725752 -0.00259309 0.0561943)
(-0.000960965 -0.002601 0.0262623)
(0.000737216 -0.00205178 0.261422)
(0.000858746 -0.00239022 0.217131)
(0.000802778 -0.00269529 0.178442)
(0.00061221 -0.00298287 0.144521)
(0.000331238 -0.00325167 0.114593)
(-2.52276e-07 -0.00350061 0.0876834)
(-0.000347343 -0.00371454 0.0617774)
(-0.00058832 -0.00379753 0.0298362)
(0.0010183 -0.00201552 0.281872)
(0.00125019 -0.00244922 0.235322)
(0.00129327 -0.00289772 0.194785)
(0.00119597 -0.00335052 0.159359)
(0.00100081 -0.00379434 0.128192)
(0.000747515 -0.00421338 0.100229)
(0.000469126 -0.00457679 0.0733359)
(0.00026353 -0.00473319 0.0400374)
(0.00123789 -0.00187989 0.296009)
(0.00160048 -0.00235301 0.25049)
(0.00178858 -0.00288682 0.21076)
(0.00184329 -0.00344887 0.175932)
(0.00180139 -0.00401199 0.145175)
(0.00169733 -0.00454665 0.117438)
(0.00155536 -0.00500965 0.0905401)
(0.00142182 -0.00521522 0.056677)
(0.00144061 -0.00169261 0.302584)
(0.00188 -0.00215341 0.261699)
(0.00220103 -0.00269643 0.225604)
(0.00242459 -0.00328201 0.193564)
(0.00257089 -0.00387531 0.164934)
(0.00265982 -0.00444024 0.138779)
(0.00269641 -0.00492729 0.112963)
(0.00266499 -0.00513891 0.0794921)
(0.00177536 -0.00163189 0.301152)
(0.00220134 -0.00205857 0.269204)
(0.00260391 -0.00255874 0.239265)
(0.00295508 -0.00308647 0.211864)
(0.00325919 -0.00361545 0.186818)
(0.00352825 -0.00412398 0.16341)
(0.00375277 -0.00457347 0.1396)
(0.0038724 -0.00478253 0.107205)
(2.32585e-05 -0.00154282 0.209816)
(9.88455e-05 -0.0017332 0.179132)
(7.66725e-05 -0.00176431 0.15079)
(-6.86681e-05 -0.00171718 0.124954)
(-0.00028157 -0.00162055 0.101428)
(-0.000535548 -0.00150359 0.0795903)
(-0.000789098 -0.00139128 0.0577473)
(-0.000967226 -0.00126799 0.029718)
(-0.000121694 -0.00173915 0.235586)
(0.000124023 -0.00218653 0.19722)
(0.00013244 -0.00242383 0.163331)
(-3.04622e-05 -0.0025813 0.133181)
(-0.000305898 -0.00268567 0.106185)
(-0.000644308 -0.00276832 0.0815133)
(-0.000986172 -0.00285508 0.0572813)
(-0.00126529 -0.00290433 0.0267105)
(-0.000205801 -0.00189317 0.259315)
(0.000256982 -0.00246034 0.216044)
(0.000394907 -0.00287474 0.17821)
(0.000314328 -0.00322838 0.144923)
(8.37303e-05 -0.00353878 0.11541)
(-0.000233134 -0.00382295 0.0886963)
(-0.000562344 -0.00408542 0.0627289)
(-0.000832788 -0.00423485 0.0302531)
(-0.000251503 -0.0019968 0.279149)
(0.000437642 -0.00258128 0.233645)
(0.00075433 -0.00312412 0.194021)
(0.000828722 -0.00363404 0.159291)
(0.00073206 -0.0041132 0.128602)
(0.000532127 -0.00455956 0.100902)
(0.000301707 -0.00495382 0.0740381)
(0.000102559 -0.00515679 0.0403809)
(-0.000277419 -0.00212463 0.29284)
(0.000609351 -0.00261112 0.24832)
(0.00112456 -0.003191 0.209489)
(0.00139558 -0.00377132 0.175364)
(0.00149128 -0.00433861 0.145104)
(0.00147486 -0.00487037 0.117668)
(0.00140498 -0.00532694 0.0908715)
(0.00131371 -0.00552757 0.0568224)
(-0.000159735 -0.0022808 0.29917)
(0.000798147 -0.00259848 0.259176)
(0.00145944 -0.00310817 0.223904)
(0.00191041 -0.00365308 0.192519)
(0.00220878 -0.00420612 0.164363)
(0.00240255 -0.00472921 0.138515)
(0.00252402 -0.00516934 0.112845)
(0.00255948 -0.00532423 0.0793438)
(0.000280931 -0.00252032 0.297706)
(0.00109524 -0.00276939 0.266468)
(0.00182335 -0.0031571 0.237217)
(0.00238329 -0.00357222 0.210383)
(0.00284023 -0.00399389 0.185759)
(0.00321997 -0.00440099 0.162637)
(0.00353338 -0.00475105 0.138983)
(0.00373165 -0.00485073 0.106624)
(0.00130289 -0.00280191 0.210985)
(0.00115889 -0.00283132 0.181485)
(0.0009317 -0.00273273 0.154243)
(0.000589803 -0.00257225 0.129428)
(0.00018949 -0.00238018 0.106874)
(-0.000244058 -0.00217881 0.08601)
(-0.000713576 -0.0019529 0.0653069)
(-0.0010207 -0.00182084 0.0392127)
(0.0015743 -0.00298883 0.235582)
(0.00149819 -0.00322351 0.198667)
(0.00124037 -0.00328807 0.166053)
(0.000837051 -0.00329257 0.137057)
(0.000341508 -0.00325549 0.111142)
(-0.000201964 -0.00319203 0.0875383)
(-0.000791985 -0.00307437 0.064537)
(-0.00111958 -0.00291232 0.0361231)
(0.00184178 -0.00302437 0.258194)
(0.00191314 -0.00340442 0.216526)
(0.00172825 -0.00366783 0.180064)
(0.00136391 -0.00388543 0.147991)
(0.000877892 -0.00406424 0.119585)
(0.000322537 -0.00420554 0.0939266)
(-0.000297646 -0.00426945 0.0691324)
(-0.00064862 -0.00413063 0.0387031)
(0.00204428 -0.00286932 0.27708)
(0.00230709 -0.00333297 0.233234)
(0.00227498 -0.00376809 0.195003)
(0.00205216 -0.00417526 0.161475)
(0.00169473 -0.00455116 0.13185)
(0.00125377 -0.0048858 0.105126)
(0.000730949 -0.00513738 0.0792879)
(0.000395262 -0.00507544 0.0473537)
(0.00211717 -0.00265047 0.290107)
(0.00257695 -0.0030806 0.247192)
(0.00274159 -0.00359697 0.209695)
(0.00272203 -0.00410987 0.176696)
(0.00257291 -0.00460828 0.147405)
(0.00233815 -0.00507167 0.120823)
(0.00201323 -0.00546224 0.0948693)
(0.00174694 -0.00550988 0.0621381)
(0.0021787 -0.00244034 0.296137)
(0.00274587 -0.00272873 0.257577)
(0.00307702 -0.00320592 0.2235)
(0.00325373 -0.00371368 0.193109)
(0.0033259 -0.00423064 0.16579)
(0.00332578 -0.00472636 0.140651)
(0.00323769 -0.00516603 0.115641)
(0.00308532 -0.00529368 0.0830967)
(0.00233416 -0.00226813 0.294762)
(0.00284467 -0.00248264 0.264615)
(0.00328573 -0.00282852 0.236345)
(0.00359584 -0.0032081 0.210335)
(0.00384074 -0.00360588 0.186394)
(0.00403298 -0.00400558 0.163833)
(0.00415263 -0.0043862 0.140672)
(0.00413961 -0.00454256 0.108977)
(0.00638314 -0.0068879 0.209745)
(0.00595065 -0.00663681 0.180341)
(0.00542056 -0.00631066 0.15294)
(0.00474959 -0.00587272 0.127593)
(0.00389052 -0.00529837 0.103956)
(0.00290556 -0.00463761 0.0811645)
(0.00205077 -0.00409677 0.05709)
(0.000613196 -0.00302414 0.0241117)
(0.00711963 -0.00677517 0.233965)
(0.00665494 -0.00673169 0.197377)
(0.00610094 -0.00667244 0.164795)
(0.005381 -0.00655981 0.135447)
(0.00443003 -0.00638059 0.108612)
(0.00330244 -0.00616043 0.0831902)
(0.00233156 -0.0060479 0.0567817)
(0.000533516 -0.00547488 0.0209563)
(0.00789699 -0.00612592 0.255996)
(0.00748422 -0.00626288 0.214804)
(0.00697149 -0.00642824 0.178502)
(0.00629074 -0.00658796 0.146208)
(0.00537566 -0.00673427 0.117039)
(0.00427644 -0.00688046 0.0897541)
(0.00336821 -0.00710894 0.0617864)
(0.00144864 -0.0070616 0.0242297)
(0.00850207 -0.00499575 0.274255)
(0.0081456 -0.00527292 0.230949)
(0.00770174 -0.00559504 0.192935)
(0.00711015 -0.00594788 0.15927)
(0.00630428 -0.00632713 0.129022)
(0.00532913 -0.00673747 0.100929)
(0.00457267 -0.00718588 0.0723894)
(0.00273432 -0.00758636 0.0343359)
(0.00873067 -0.00359618 0.286726)
(0.00844324 -0.0039363 0.244327)
(0.00807881 -0.00433779 0.20704)
(0.00759629 -0.00480282 0.173935)
(0.00693113 -0.00533204 0.144138)
(0.00612338 -0.00591959 0.116457)
(0.00553953 -0.00648979 0.0883729)
(0.00393032 -0.00722239 0.0508593)
(0.00863317 -0.00214348 0.292369)
(0.00837799 -0.00247351 0.254225)
(0.00806887 -0.00289358 0.220302)
(0.00767892 -0.00341116 0.189807)
(0.00714596 -0.00403279 0.16207)
(0.00650856 -0.00473754 0.136077)
(0.00607816 -0.00537151 0.109481)
(0.00479953 -0.00630247 0.0734934)
(0.00824251 -0.000862678 0.290792)
(0.00802279 -0.0011501 0.260869)
(0.00777039 -0.00153424 0.232673)
(0.00746741 -0.0020441 0.20654)
(0.00706535 -0.00270373 0.182249)
(0.00660368 -0.00347414 0.159036)
(0.00630577 -0.00414949 0.134748)
(0.00539552 -0.00516775 0.100758)
(0.0118232 -0.0113843 0.215694)
(0.0117299 -0.0114548 0.189144)
(0.0114597 -0.0115053 0.165608)
(0.0108705 -0.011366 0.145379)
(0.00979826 -0.0109408 0.128555)
(0.00809995 -0.0101407 0.11522)
(0.00564686 -0.0089256 0.10598)
(0.00100937 -0.00613831 0.103677)
(0.0130537 -0.0104674 0.237821)
(0.013103 -0.0103975 0.203941)
(0.0129973 -0.010466 0.174988)
(0.0125443 -0.010437 0.150529)
(0.0115505 -0.0102004 0.130333)
(0.00982715 -0.00963283 0.114309)
(0.00729622 -0.00864333 0.102987)
(0.00244409 -0.00625869 0.0998258)
(0.0140155 -0.00907835 0.258301)
(0.014057 -0.00905814 0.219518)
(0.014009 -0.00915364 0.18648)
(0.0136727 -0.00919197 0.158665)
(0.0128322 -0.00908427 0.135704)
(0.0112497 -0.00872312 0.117403)
(0.00882406 -0.00799391 0.104211)
(0.00383306 -0.00618945 0.0997432)
(0.0147116 -0.00698831 0.275493)
(0.0146825 -0.00700599 0.234365)
(0.0146472 -0.00703718 0.199308)
(0.0144006 -0.00701974 0.169756)
(0.0137226 -0.00689939 0.145296)
(0.0123431 -0.00660658 0.125694)
(0.0100785 -0.00600776 0.111298)
(0.00487812 -0.00471515 0.105292)
(0.0148254 -0.00442462 0.287369)
(0.0147333 -0.00443226 0.247024)
(0.0146608 -0.00433861 0.212508)
(0.0144296 -0.00420418 0.183268)
(0.0138381 -0.00402176 0.158916)
(0.012623 -0.00378295 0.13923)
(0.0104849 -0.0034059 0.124468)
(0.00513387 -0.00299576 0.116931)
(0.0143903 -0.00169952 0.292954)
(0.0142232 -0.00165185 0.256832)
(0.0140615 -0.00142597 0.225614)
(0.0137595 -0.00119206 0.198854)
(0.0131469 -0.000991338 0.176301)
(0.0120104 -0.000878433 0.157776)
(0.0100264 -0.000883275 0.143425)
(0.00485937 -0.00176283 0.134585)
(0.0131596 0.00109342 0.291912)
(0.0128722 0.00148878 0.263908)
(0.0125366 0.00195557 0.238347)
(0.0120867 0.00233163 0.21581)
(0.0113742 0.00257 0.196422)
(0.0102512 0.00260559 0.180135)
(0.00840892 0.00232021 0.166998)
(0.00371891 0.000319569 0.157055)
(-0.00544768 0.00535514 0.712903)
(-0.00502007 0.00383907 0.646831)
(-0.00380604 0.00340027 0.596204)
(-0.00261178 0.00323156 0.552644)
(-0.00163806 0.00326615 0.513906)
(-0.000759948 0.00302435 0.477944)
(0.000214483 0.00273282 0.440186)
(0.00123606 0.00260682 0.382222)
(-0.00916447 0.00248194 0.802096)
(-0.0131757 0.0030845 0.703399)
(-0.0115032 0.00348618 0.634215)
(-0.00881267 0.00378393 0.581228)
(-0.00629308 0.00377418 0.535742)
(-0.00422192 0.00316104 0.494847)
(-0.00234009 0.00239688 0.453404)
(-0.000634473 0.00178307 0.392101)
(-0.00758703 -0.00282218 0.808811)
(-0.0157488 -0.00154461 0.715299)
(-0.0153505 -0.000431198 0.639013)
(-0.0124768 0.000351981 0.581707)
(-0.0093704 0.000595553 0.533193)
(-0.00657312 0.000186746 0.490071)
(-0.00408524 -0.000498106 0.447146)
(-0.00193432 -0.0011748 0.385272)
(-0.0092959 -0.00688197 0.761898)
(-0.0146262 -0.00572548 0.670981)
(-0.0137055 -0.00464657 0.602162)
(-0.0111808 -0.00379688 0.549412)
(-0.0084585 -0.00341416 0.503686)
(-0.00587776 -0.00349919 0.462648)
(-0.00351112 -0.00389324 0.421664)
(-0.00146023 -0.00441617 0.362752)
(-0.00660069 -0.00855299 0.644653)
(-0.0080574 -0.00715513 0.585522)
(-0.00741424 -0.00635318 0.536196)
(-0.00602362 -0.00580179 0.492794)
(-0.00440069 -0.0055758 0.453854)
(-0.00269598 -0.00564296 0.417998)
(-0.00100602 -0.00597891 0.381282)
(0.000530918 -0.00650426 0.326999)
(-0.00367437 -0.00727301 0.53947)
(-0.00370371 -0.00584402 0.499364)
(-0.00311358 -0.0053749 0.461981)
(-0.00224618 -0.00531265 0.42738)
(-0.0012066 -0.00537838 0.395607)
(-4.68707e-05 -0.0055629 0.365747)
(0.00116498 -0.00585107 0.334627)
(0.00228074 -0.00613988 0.288399)
(-0.00226264 -0.00592017 0.456603)
(-0.00181132 -0.00505202 0.423806)
(-0.00107425 -0.00484998 0.393047)
(-0.000210773 -0.00488631 0.364397)
(0.000752188 -0.00497359 0.337789)
(0.00177803 -0.00509961 0.312386)
(0.00283329 -0.00525295 0.28547)
(0.00377991 -0.00538854 0.244839)
(-0.00225234 -0.00144693 0.705712)
(-0.00151855 -0.00110895 0.645747)
(-0.000933123 -0.000341428 0.596553)
(-0.000601612 0.000815404 0.553749)
(-0.000435375 0.00131423 0.515565)
(-0.000117953 0.00144644 0.480007)
(0.000394073 0.00153575 0.442531)
(0.00101292 0.00178253 0.384677)
(-0.00707542 -0.00211158 0.767647)
(-0.00741241 -0.000293673 0.700485)
(-0.00518852 0.000552006 0.634607)
(-0.00373152 0.00164763 0.582908)
(-0.00286585 0.0016533 0.538012)
(-0.00212789 0.00122833 0.49748)
(-0.00132132 0.000833161 0.456306)
(-0.000495162 0.000677899 0.395162)
(-0.00682332 -0.0035481 0.78246)
(-0.00830112 -0.00183059 0.711575)
(-0.00625918 -0.000629956 0.639538)
(-0.00495354 0.000175623 0.583861)
(-0.00387146 2.61778e-05 0.535807)
(-0.0029162 -0.000513601 0.492912)
(-0.00197438 -0.00108298 0.450217)
(-0.00111237 -0.00147764 0.388616)
(-0.00437153 -0.00250026 0.740342)
(-0.00595292 -0.00209703 0.669907)
(-0.0050168 -0.00151081 0.603643)
(-0.00408968 -0.00146525 0.55161)
(-0.00322061 -0.00184092 0.506098)
(-0.00234871 -0.0024351 0.465226)
(-0.00145282 -0.00311606 0.424382)
(-0.000650099 -0.00378735 0.365459)
(-0.00154171 -0.000771155 0.644499)
(-0.00191951 -0.000973374 0.586623)
(-0.00187791 -0.00148817 0.537834)
(-0.00162141 -0.00211535 0.494541)
(-0.00116744 -0.0028069 0.455782)
(-0.000569717 -0.00357565 0.420182)
(0.000156798 -0.0044138 0.383694)
(0.000851288 -0.00532313 0.329549)
(-0.00118521 0.000332757 0.540511)
(-0.000960767 -0.000132999 0.500473)
(-0.000686495 -0.001083 0.463055)
(-0.000311128 -0.00197092 0.428605)
(0.000192458 -0.00279561 0.397127)
(0.000815567 -0.0035654 0.367617)
(0.00152357 -0.00427787 0.336858)
(0.00215438 -0.00490524 0.290819)
(-0.000866344 -0.000553653 0.457274)
(-0.000406682 -0.00108274 0.424431)
(0.00013287 -0.00178328 0.393791)
(0.000727142 -0.00244347 0.365424)
(0.00137713 -0.00303794 0.339149)
(0.0020694 -0.00356365 0.314058)
(0.00278516 -0.00402909 0.28738)
(0.00341031 -0.00447063 0.246422)
(0.000165777 -0.00689991 0.707112)
(0.00097263 -0.00362199 0.645788)
(0.000357009 -0.00151289 0.595353)
(-0.000333559 -0.000336466 0.552208)
(-0.000563102 2.44586e-05 0.514204)
(-0.000393816 0.000291487 0.479058)
(2.49746e-05 0.00060368 0.442026)
(0.00058621 0.00111687 0.384544)
(-0.00385725 -0.0031317 0.760892)
(0.00126792 -0.00209048 0.704023)
(0.00150513 -0.00113011 0.635309)
(0.000283511 -0.000843929 0.58205)
(-0.000693215 -0.00104343 0.536628)
(-0.00105168 -0.00104927 0.496341)
(-0.000999403 -0.000859662 0.455678)
(-0.000703207 -0.000398859 0.39527)
(-0.00294108 0.00109916 0.784404)
(0.00397615 0.000437005 0.718829)
(0.0044072 0.000137092 0.641345)
(0.0025192 -0.000468772 0.583081)
(0.000930623 -0.00122051 0.534199)
(-7.06992e-05 -0.00168405 0.49149)
(-0.000527957 -0.00192825 0.449286)
(-0.000711207 -0.00189382 0.388308)
(0.000882307 0.0060855 0.746334)
(0.00434619 0.00382084 0.673334)
(0.00413053 0.00217878 0.603631)
(0.00259589 0.000650829 0.54998)
(0.00123813 -0.000707759 0.504134)
(0.00036906 -0.00179215 0.463604)
(-1.8644e-05 -0.00268169 0.423248)
(-0.000210837 -0.00340276 0.364632)
(0.00298243 0.00843394 0.647399)
(0.00373784 0.00540599 0.586573)
(0.00295089 0.00292498 0.536095)
(0.00193564 0.000931532 0.492309)
(0.00122552 -0.000709232 0.453828)
(0.000867354 -0.00211042 0.41883)
(0.000838594 -0.00335464 0.382981)
(0.000913478 -0.00457036 0.329489)
(0.000798452 0.00686894 0.539016)
(0.0012235 0.00417302 0.49797)
(0.0011645 0.0019624 0.460425)
(0.00109403 0.000297582 0.426357)
(0.00116963 -0.00108617 0.395505)
(0.00139885 -0.00224773 0.36667)
(0.0017248 -0.00321338 0.336576)
(0.0020109 -0.00410444 0.290831)
(0.000350794 0.00327618 0.454247)
(0.00076537 0.00143031 0.421491)
(0.00107297 6.2322e-05 0.391381)
(0.00142214 -0.000978006 0.363655)
(0.00181605 -0.00185275 0.337991)
(0.00224317 -0.00259537 0.313411)
(0.00267748 -0.00321884 0.287131)
(0.00307934 -0.00387028 0.246092)
(-0.00251841 -0.00106503 0.72671)
(-0.00224496 0.000847612 0.647674)
(-0.00298347 0.00162331 0.593042)
(-0.00318114 0.00131415 0.549634)
(-0.00275725 0.000953017 0.512216)
(-0.00194349 0.000852683 0.477924)
(-0.000990856 0.000891885 0.441722)
(9.12314e-05 0.00117098 0.385021)
(-0.00475623 0.00229148 0.847129)
(0.000198527 0.000621425 0.725335)
(-0.000805793 2.43559e-05 0.635367)
(-0.00229114 -0.00101254 0.578991)
(-0.00292828 -0.0013666 0.53377)
(-0.00277354 -0.00120405 0.494438)
(-0.00214041 -0.000898045 0.45483)
(-0.00122386 -0.000372557 0.395613)
(-0.00382643 0.00400053 0.87555)
(0.00437614 0.0020484 0.743392)
(0.00289459 0.000429953 0.641753)
(0.000685184 -0.00102402 0.579237)
(-0.000970671 -0.00175217 0.530462)
(-0.00168332 -0.00198818 0.488891)
(-0.00170774 -0.00203268 0.447924)
(-0.00133017 -0.00187248 0.388129)
(-0.00169475 0.00523458 0.79488)
(0.00278357 0.00382391 0.687684)
(0.00224439 0.00175711 0.601826)
(0.000585992 2.86111e-05 0.545623)
(-0.000660425 -0.0012274 0.500287)
(-0.001223 -0.00212656 0.460969)
(-0.00119581 -0.00283042 0.421778)
(-0.000829583 -0.00338545 0.363916)
(0.00102793 0.00600736 0.659721)
(0.00159407 0.00356711 0.585819)
(0.0008352 0.00144942 0.531697)
(-1.61423e-05 -0.000192079 0.48808)
(-0.000497569 -0.0015126 0.450739)
(-0.00052974 -0.00260711 0.417013)
(-0.000216777 -0.00357852 0.382329)
(0.000302022 -0.00454372 0.330083)
(-0.000349094 0.00356608 0.535559)
(-9.04389e-05 0.00144211 0.49299)
(-0.000146434 -4.26507e-05 0.45613)
(-0.000163939 -0.00111344 0.423276)
(5.73275e-05 -0.00201165 0.393595)
(0.000460342 -0.00275779 0.365774)
(0.000971992 -0.00335296 0.336536)
(0.00150706 -0.00396039 0.291236)
(-0.000223285 0.000470464 0.449283)
(8.4373e-05 -0.000821582 0.41747)
(0.000280759 -0.00162156 0.38861)
(0.000584585 -0.00217005 0.361953)
(0.000972789 -0.00264695 0.337146)