/*--------------------------------*- C++ -*----------------------------------*\
| =========                 |                                                 |
| \\      /  F ield         | OpenFOAM: The Open Source CFD Toolbox           |
|  \\    /   O peration     | Version:  plus.master.MPPICInterFoam            |
|   \\  /    A nd           | Web:      www.OpenFOAM.com                      |
|    \\/     M anipulation  |                                                 |
\*---------------------------------------------------------------------------*/
FoamFile
{
    version     2.0;
    format      ascii;
    class       vectorField;
    location    "4.2/lagrangian/kinematicCloud";
    object      UCorrect;
}
// * * * * * * * * * * * * * * * * * * * * * * * * * * * * * * * * * * * * * //


135
(
(-1.29484e-05 3.48277e-05 1.3825e-08)
(-6.24379e-06 -9.71282e-06 1.70213e-07)
(-4.85185e-06 -3.84484e-06 -1.75886e-11)
(7.90602e-06 -3.58146e-06 1.0232e-05)
(-6.61789e-05 3.84482e-05 6.22878e-07)
(-2.46676e-06 1.12112e-06 -2.57354e-05)
(-2.85882e-09 6.84937e-09 3.09342e-07)
(-0.000129278 -0.000130638 -2.42265e-07)
(8.81235e-10 -5.0623e-10 5.06526e-08)
(0.00126434 0.000190333 0.000418856)
(-2.43139e-08 -2.41355e-08 2.93126e-07)
(-1.28605e-07 -7.15648e-08 -9.94385e-08)
(-4.06191e-09 -6.17354e-09 3.5529e-11)
(0.000870917 -0.0021912 -0.000458079)
(0.000151399 0.000598644 -4.88096e-06)
(-5.52717e-11 7.90057e-11 1.71929e-09)
(0.000266727 -0.000335048 7.19227e-06)
(-1.40581e-08 -6.22406e-09 -6.93683e-11)
(1.12861e-08 -3.37685e-08 -1.59511e-06)
(0.000186511 0.000705929 -4.88096e-06)
(-8.24204e-10 5.90214e-11 -1.57404e-08)
(-2.98174e-05 1.49054e-05 8.93773e-07)
(1.91587e-05 -3.46933e-05 -8.68421e-07)
(-2.5286e-11 -4.02983e-08 -9.05208e-08)
(-2.87617e-08 -2.297e-08 5.4713e-06)
(0.00136723 -0.000631812 -0.00077918)
(-0.000783025 0.000144136 0.000418856)
(1.73517e-05 -1.83801e-05 -5.73079e-08)
(0.00151112 -0.00106155 -0.000759105)
(-2.15919e-11 -1.60775e-10 -4.29268e-08)
(5.99694e-07 6.14203e-06 -4.30527e-07)
(1.70874e-06 -3.04274e-06 -1.36139e-07)
(-4.91984e-06 2.43484e-05 -1.01298e-05)
(1.82251e-05 -6.11707e-05 2.90392e-07)
(-0.000583481 0.00117005 -0.000337338)
(5.21472e-08 -9.4218e-09 -3.0094e-09)
(1.04817e-05 0.000943765 -0.000155292)
(0.000517555 0.000622452 -1.4329e-05)
(0.000265665 0.000318289 3.68256e-11)
(4.31091e-06 -1.26204e-05 6.59617e-08)
(0.000596123 0.000246487 1.57305e-11)
(-6.09401e-08 1.83546e-08 -4.44355e-06)
(-2.33801e-07 1.07584e-07 3.50512e-07)
(3.09802e-11 -5.07125e-11 -1.45421e-11)
(1.81541e-10 1.49048e-11 -2.38086e-09)
(-2.28573e-05 0.00029059 -2.68324e-07)
(0.000117214 -6.19317e-05 -0.000330761)
(-0.000280203 0.000103713 -0.000337338)
(-0.00100032 0.00147755 -0.000818634)
(-4.69198e-08 4.60644e-09 -1.23326e-06)
(-0.000452153 -0.00113793 1.20064e-06)
(-0.000452153 -0.00113793 1.03195e-06)
(-0.000411054 6.94828e-05 -0.000426608)
(-0.00217562 0.0011427 -0.000437638)
(1.77154e-06 4.46008e-06 -2.58289e-06)
(-1.2529e-06 -2.13338e-07 1.37071e-07)
(-1.7518e-08 -6.51525e-10 -6.79393e-07)
(-7.61834e-05 -2.05057e-05 7.01089e-07)
(0.00204536 -0.00442034 -5.31751e-07)
(0.000122142 -4.56576e-05 -0.000330761)
(1.53367e-07 -8.24029e-07 -3.03926e-06)
(7.09102e-08 9.41727e-09 -1.4637e-07)
(1.38056e-05 8.95387e-06 -2.17171e-11)
(0.00331609 -0.00118203 -5.31751e-07)
(2.60871e-07 7.65354e-06 -2.17171e-11)
(-1.58109e-08 -5.03428e-06 1.32197e-06)
(-6.82447e-08 1.63549e-06 2.15264e-08)
(-0.000621213 0.00150234 -0.000431032)
(2.43061e-06 0.00281538 -0.000431032)
(0.000570344 0.00159925 -0.000437638)
(0.000117039 -0.00106067 5.6458e-07)
(-9.69695e-07 2.2083e-09 -6.22074e-07)
(3.31437e-05 4.9493e-06 -5.38307e-13)
(1.04537e-07 4.24619e-07 4.56089e-07)
(0.000210191 -0.0013683 5.6458e-07)
(-9.71363e-07 -6.6282e-08 -2.79354e-06)
(-0.00077073 -0.000115245 0.000262638)
(4.50515e-05 -4.72648e-05 6.57284e-09)
(-0.00126027 0.00170014 -1.63215e-08)
(-0.000106816 0.00068916 -0.000294183)
(1.44497e-06 1.44684e-05 -3.39574e-12)
(-2.3995e-10 -0.00072587 0.000176707)
(8.23022e-07 -1.53965e-07 -4.16677e-09)
(-2.3995e-10 -2.13886e-05 0.000308879)
(3.40612e-08 4.54118e-09 2.44522e-08)
(0.00167613 0.000172051 -0.000294183)
(-2.57085e-09 -4.46864e-09 -7.75738e-07)
(7.01155e-07 1.17319e-07 -4.03084e-11)
(0.000239112 -0.000903181 0.000229577)
(0.00055268 -6.35015e-05 1.04991e-06)
(-3.53053e-08 -5.27046e-08 2.11182e-07)
(0.000242435 -0.000914156 0.000229577)
(0.00110435 -1.05396e-05 1.32614e-12)
(-1.95391e-15 4.79965e-16 -4.92141e-13)
(7.06526e-09 -2.10176e-09 1.66642e-06)
(2.26867e-09 4.94027e-09 -4.32845e-07)
(8.18356e-09 -6.03252e-10 5.13442e-06)
(3.4738e-13 5.30831e-12 -3.05472e-11)
(-5.2741e-09 7.56448e-08 2.3471e-07)
(-0.00014129 5.50304e-05 -0.000341803)
(6.4424e-12 5.16532e-12 -2.06152e-12)
(7.16237e-06 2.32767e-05 1.0983e-08)
(-5.04999e-18 3.4246e-17 -5.79288e-19)
(0.00146888 9.69537e-05 -0.000384954)
(0.00264205 0.000322238 -0.000705616)
(-0.00150021 9.99626e-05 -0.000384954)
(-6.84378e-10 -1.44444e-10 4.18004e-07)
(-9.62999e-07 5.61167e-08 -2.76926e-06)
(0.000286108 -0.00426571 -0.000705616)
(2.99312e-06 7.37461e-08 -5.41034e-11)
(2.13377e-12 -3.72709e-13 -1.899e-09)
(6.77031e-08 1.24002e-06 3.24106e-09)
(0.00157442 -0.000609232 1.21868e-09)
(-7.76774e-05 6.06686e-05 -2.05679e-09)
(1.20413e-05 -0.000763779 -0.000665124)
(-0.00145823 -0.000196484 -2.05679e-09)
(-4.5365e-08 8.27878e-07 -2.47002e-09)
(-1.60085e-14 8.87999e-14 -3.88616e-13)
(-5.61682e-18 1.87842e-15 -1.64103e-13)
(-3.65035e-09 -8.2746e-10 -8.26746e-09)
(4.03136e-12 1.90624e-13 -9.92067e-10)
(-4.95816e-13 3.01623e-12 -8.65925e-10)
(1.35987e-20 7.89436e-18 -3.80367e-19)
(6.30661e-15 9.89298e-16 -1.66595e-15)
(1.09098e-19 -1.19593e-18 1.41646e-18)
(-6.35731e-05 -0.000892251 7.91651e-12)
(-4.19814e-19 1.32535e-18 -8.72885e-18)
(2.24091e-18 -3.11585e-19 -2.63641e-17)
(-2.49379e-18 -1.34188e-19 8.6824e-19)
(2.7664e-16 9.58311e-16 -8.76575e-19)
(-9.16781e-05 -0.001185 7.91651e-12)
(9.97133e-19 1.39115e-18 4.38287e-19)
(-4.18765e-19 2.85516e-19 -2.90056e-34)
(1.31313e-18 -9.95478e-19 2.12613e-19)
(-1.189e-19 1.61161e-18 -6.57431e-19)
)


// ************************************************************************* //
