/*--------------------------------*- C++ -*----------------------------------*\
| =========                 |                                                 |
| \\      /  F ield         | OpenFOAM: The Open Source CFD Toolbox           |
|  \\    /   O peration     | Version:  plus.master                           |
|   \\  /    A nd           | Web:      www.OpenFOAM.com                      |
|    \\/     M anipulation  |                                                 |
\*---------------------------------------------------------------------------*/
FoamFile
{
    version     2.0;
    format      ascii;
    class       vectorField;
    location    "7.6/lagrangian/kinematicCloud";
    object      UCorrect;
}
// * * * * * * * * * * * * * * * * * * * * * * * * * * * * * * * * * * * * * //


96597
(
(-0.000125951 0.00415463 6.09201e-05)
(0.000165199 -0.00013341 4.63831e-05)
(3.3396e-08 2.72962e-05 7.7603e-07)
(2.61712e-06 3.60321e-05 5.36995e-05)
(2.44617e-05 -4.06637e-05 3.26395e-05)
(-8.89122e-05 -0.000133567 5.51972e-05)
(9.07629e-05 -0.00013892 5.24885e-05)
(1.26792e-05 0.000904252 5.09286e-05)
(3.29747e-05 4.86946e-05 4.9227e-05)
(2.72699e-06 1.3818e-05 1.15513e-06)
(4.16348e-05 5.46643e-05 4.74298e-05)
(8.14611e-05 0.000101764 4.66186e-05)
(-0.000589651 4.65677e-05 5.40103e-05)
(0.000103184 0.000161195 0.00119539)
(0.000158871 -3.43972e-10 4.73529e-05)
(0.000129292 7.5524e-05 3.74184e-05)
(-6.9921e-05 0.00396619 6.31118e-05)
(-9.13615e-05 4.66636e-05 5.54128e-05)
(7.31426e-05 9.77581e-05 0.00118568)
(2.28213e-05 1.03964e-05 4.45249e-05)
(-8.28285e-05 9.94625e-05 0.00115422)
(5.77309e-07 9.78373e-05 2.37515e-06)
(-9.32119e-05 -4.48887e-05 4.28552e-05)
(-0.000630776 0.0013669 5.69148e-05)
(0.000165199 -0.00013341 5.08573e-05)
(-1.06927e-05 -2.78874e-05 0.00108033)
(-8.05523e-05 0.000104015 0.00117747)
(-1.01387e-11 9.86594e-05 3.64422e-06)
(-0.000108175 -5.20945e-05 0.0012535)
(6.43403e-05 -0.000116211 5.24772e-05)
(-8.48967e-05 8.59882e-05 0.00114889)
(6.18513e-05 -6.88766e-05 5.24891e-05)
(-3.1925e-05 1.53722e-05 5.43529e-05)
(-9.12401e-05 0.000126714 0.00119463)
(-0.000117834 9.24399e-05 4.59537e-05)
(6.94973e-05 9.70627e-05 4.38689e-05)
(1.77574e-06 -6.0049e-06 1.33685e-06)
(2.72699e-06 1.3818e-05 1.34252e-06)
(6.75378e-05 0.000177419 1.69189e-07)
(-4.70639e-05 1.63244e-06 9.78687e-07)
(-5.34772e-05 1.01574e-06 4.31086e-05)
(-5.337e-05 -5.63843e-05 5.50592e-05)
(2.4481e-05 0.000156828 5.42264e-05)
(-9.01089e-05 4.60603e-05 0.0012568)
(-4.56504e-05 8.26485e-05 5.61732e-05)
(6.43403e-05 -0.000116211 4.81941e-05)
(2.85806e-10 1.74199e-05 0.000220722)
(-0.000159875 9.90733e-05 6.39375e-05)
(-5.337e-05 -5.63843e-05 4.72357e-05)
(-2.09172e-05 7.26183e-05 5.48984e-05)
(6.31495e-05 -8.83138e-05 4.53118e-05)
(-4.71847e-05 8.7251e-05 5.31337e-05)
(0.000109547 -0.000159704 4.75236e-05)
(-2.64969e-06 -6.34161e-05 4.8863e-05)
(5.86208e-05 -0.000111518 4.90686e-05)
(3.29747e-05 4.86946e-05 4.5514e-05)
(0.000199276 0.000196999 5.0369e-05)
(-9.12901e-05 -0.00426074 6.20492e-05)
(-4.56504e-05 8.26485e-05 5.23577e-05)
(1.14442e-05 2.44025e-06 4.40341e-05)
(6.31495e-05 -8.83138e-05 5.06205e-05)
(6.18513e-05 -6.88766e-05 5.0165e-05)
(9.50572e-05 6.29087e-05 0.00118568)
(-4.56504e-05 8.26485e-05 5.19853e-05)
(0.00052749 -9.4999e-06 0.00147865)
(-9.32119e-05 -4.48887e-05 5.58479e-05)
(-1.01387e-11 9.86594e-05 4.02604e-06)
(-4.6859e-05 0.000417983 5.87073e-05)
(-7.88138e-05 -6.02563e-13 3.90635e-06)
(6.31495e-05 -8.83138e-05 4.27129e-05)
(0.000109547 -0.000159704 5.0469e-05)
(0.000199276 0.000196999 5.27304e-05)
(3.29747e-05 4.86946e-05 5.45067e-05)
(4.7331e-05 4.47999e-05 4.5471e-05)
(2.4481e-05 0.000156828 5.15721e-05)
(0.000229158 -5.51614e-05 0.00117217)
(0.000162949 -3.93207e-11 0.000998453)
(0.0041164 -8.77412e-05 6.63237e-05)
(-1.1088e-05 8.86145e-05 5.43152e-05)
(4.88692e-05 0.000249197 5.09252e-05)
(-5.22302e-05 0.000102515 0.00113593)
(5.50961e-05 -1.24049e-05 4.36719e-05)
(-5.07734e-05 2.44512e-05 5.46836e-05)
(0.000153003 9.87898e-05 5.11283e-05)
(-9.60595e-05 0.000102044 0.00104337)
(-5.59077e-05 -5.03667e-05 5.32856e-05)
(0.000141155 -3.63245e-05 5.24126e-05)
(7.33396e-08 2.7527e-05 1.15544e-06)
(6.11249e-05 5.51732e-05 4.77786e-05)
(-0.000497959 -6.34466e-05 4.79846e-05)
(3.2322e-05 0.000246463 5.50604e-05)
(-3.75177e-05 5.65736e-05 5.41221e-05)
(7.94454e-05 -0.000114352 4.73411e-05)
(-0.000630776 0.0013669 5.03226e-05)
(0.000147865 -2.50407e-05 0.0012393)
(-0.000118373 -0.000111199 0.00111463)
(9.45419e-05 0.000110429 5.22932e-05)
(-4.70639e-05 1.63244e-06 9.8018e-07)
(4.89617e-05 -6.62766e-06 3.93996e-05)
(-0.00471985 0.0001984 6.45466e-05)
(0.000120717 -1.1179e-06 7.8651e-07)
(-5.59077e-05 -5.03667e-05 5.09465e-05)
(0.000158871 -3.43972e-10 4.8353e-05)
(-0.000241262 -0.000186792 0.00121336)
(0.000137986 -0.000343032 0.00136992)
(-3.1925e-05 1.53722e-05 5.87675e-05)
(7.33396e-08 2.7527e-05 1.13372e-06)
(-4.56504e-05 8.26485e-05 5.33148e-05)
(0.000117371 -0.000116195 9.02384e-07)
(-7.80273e-05 5.30448e-05 4.99939e-05)
(-4.62692e-05 6.53998e-05 5.15505e-05)
(6.18513e-05 -6.88766e-05 5.18031e-05)
(-3.2806e-06 -5.351e-06 5.42638e-05)
(8.14611e-05 0.000101764 5.05431e-05)
(-1.1088e-05 8.86145e-05 5.25293e-05)
(3.70118e-05 -3.19606e-05 5.18355e-05)
(2.17583e-05 0.000170965 5.38361e-05)
(-9.84938e-05 -4.75249e-05 0.0012185)
(0.000184907 -0.000174973 5.4368e-05)
(3.70118e-05 -3.19606e-05 5.10561e-05)
(0.000123289 -6.23366e-06 5.40432e-05)
(2.61712e-06 3.60321e-05 5.27264e-05)
(0.000179896 -0.000135192 5.48104e-05)
(-8.89122e-05 -0.000133567 5.63201e-05)
(0.000110612 0.000155306 5.50641e-05)
(-0.000147865 -0.000174303 5.36704e-05)
(9.88101e-05 0.000157958 4.71742e-05)
(1.01512e-11 0.000198722 1.10147e-06)
(0.000193001 0.000183584 5.19387e-05)
(0.000123289 -6.23366e-06 4.82419e-05)
(0.000165199 -0.00013341 5.22929e-05)
(-1.99026e-05 0.000190997 5.08185e-05)
(5.33003e-05 8.80137e-05 0.00120584)
(4.60955e-05 7.30528e-05 4.6565e-05)
(0.000166688 7.46439e-05 0.00124762)
(-1.01387e-11 9.86594e-05 3.73893e-06)
(4.7331e-05 4.47999e-05 5.07399e-05)
(0.000201878 -0.000146329 0.0012651)
(7.33396e-08 2.7527e-05 1.10516e-06)
(-4.56504e-05 8.26485e-05 4.93241e-05)
(-9.67172e-05 0.000101386 0.00104337)
(0.000269257 0.00014993 0.00129735)
(-0.000630776 0.0013669 5.55102e-05)
(1.26792e-05 0.000194229 0.00135105)
(0.000109547 -0.000159704 4.88313e-05)
(-0.000112312 -0.000125218 0.00115657)
(-1.94995e-05 -0.00010265 2.15859e-05)
(-2.58469e-06 0.000140936 5.26415e-05)
(-0.000758857 0.00130522 0.00128777)
(0.000167484 -3.67427e-05 3.67552e-05)
(6.48015e-05 -0.000187837 5.35848e-05)
(0.000123832 0.000147082 4.47634e-05)
(0.000372544 -0.000218191 6.60343e-05)
(3.29747e-05 4.86946e-05 4.82403e-05)
(0.000165199 -0.00013341 5.24879e-05)
(0.000198174 0.000113557 5.2971e-05)
(-0.000120471 -1.34273e-05 3.99685e-05)
(-0.000630776 0.0013669 4.80975e-05)
(0.000192101 1.37959e-05 5.33045e-05)
(-2.33774e-05 -0.00422444 6.71174e-05)
(-3.2806e-06 -5.351e-06 4.41461e-05)
(9.07629e-05 -0.00013892 4.92618e-05)
(-5.20051e-05 7.75827e-05 5.11265e-05)
(-0.000293712 0.000289675 4.71565e-05)
(0.00012312 -0.000509227 5.0588e-05)
(0.000113372 -3.72299e-06 2.209e-06)
(-9.12901e-05 -0.00426074 6.76589e-05)
(-1.04129e-06 -1.09656e-05 4.17527e-05)
(4.87925e-05 0.000248507 0.00144986)
(0.000165199 -0.00013341 5.13985e-05)
(-9.12901e-05 -0.00426074 6.62251e-05)
(-9.2915e-05 4.97377e-05 4.74951e-05)
(6.31495e-05 -8.83138e-05 4.70441e-05)
(0.00404029 0.000122003 5.66914e-05)
(-4.71847e-05 8.7251e-05 4.95386e-05)
(3.28473e-05 6.78693e-06 5.891e-05)
(-0.00471985 0.0001984 6.60607e-05)
(-7.88138e-05 -6.02563e-13 3.87396e-06)
(-7.14825e-05 -7.46787e-05 0.000347003)
(0.000190618 -0.000196312 5.05654e-05)
(-0.000753534 -4.97359e-05 0.00132885)
(-5.07734e-05 2.44512e-05 4.72698e-05)
(-5.07734e-05 2.44512e-05 5.34917e-05)
(-0.000630776 0.0013669 5.53346e-05)
(7.61447e-07 -5.47601e-05 2.19854e-06)
(4.13882e-05 0.000114375 4.64446e-05)
(0.000136541 0.000168212 0.00124934)
(-3.59433e-08 -5.95072e-05 4.65639e-05)
(-4.98131e-05 -8.06793e-05 4.59919e-05)
(0.000177093 -0.000149482 0.00120615)
(4.13882e-05 0.000114375 4.43759e-05)
(2.28213e-05 1.03964e-05 4.27672e-05)
(-3.61428e-05 6.91796e-06 4.84254e-05)
(3.00991e-05 4.16223e-05 4.18216e-05)
(-0.00012196 -0.000127466 0.00111919)
(-3.39352e-05 -7.75025e-05 0.00128093)
(4.52308e-07 -0.000131195 1.74279e-06)
(0.000149081 9.29878e-05 4.75875e-05)
(0.000127634 -0.000121346 0.00100473)
(3.29747e-05 4.86946e-05 4.83742e-05)
(8.14611e-05 0.000101764 5.46536e-05)
(7.61447e-07 -5.47601e-05 2.27926e-06)
(9.412e-05 -0.000131597 4.34548e-05)
(-9.76467e-05 0.000126757 0.00118847)
(-3.48498e-05 -5.47085e-05 5.15641e-05)
(0.000148648 -2.36575e-05 0.0012393)
(0.000147502 -4.88108e-05 0.00123382)
(3.3396e-08 2.72962e-05 7.90713e-07)
(-8.89122e-05 -0.000133567 5.47181e-05)
(2.08926e-05 -2.43362e-05 5.30327e-05)
(3.70118e-05 -3.19606e-05 5.51964e-05)
(0.000123832 0.000147082 5.49502e-05)
(6.18987e-05 -9.18883e-05 0.00106332)
(-9.32119e-05 -4.48887e-05 5.208e-05)
(0.000163079 -3.93207e-11 0.000998453)
(-6.65247e-05 0.00010669 0.00120686)
(-6.40257e-06 -0.000240192 0.00111919)
(4.90034e-05 5.03652e-05 3.58909e-05)
(0.000229646 -5.57738e-05 0.00117217)
(0.000113372 -3.72299e-06 2.06567e-06)
(-4.46249e-05 -2.20802e-06 3.72606e-05)
(-0.000239703 -2.70805e-05 0.00119239)
(-5.96704e-05 -0.000103028 0.00127116)
(0.000179896 -0.000135192 5.2156e-05)
(-3.1925e-05 1.53722e-05 5.49006e-05)
(-0.00471985 0.0001984 7.08292e-05)
(5.77309e-07 9.78373e-05 2.35453e-06)
(2.08926e-05 -2.43362e-05 4.72617e-05)
(2.17583e-05 0.000170965 5.29858e-05)
(-8.319e-05 9.9101e-05 0.00115422)
(0.000249816 -0.000152538 0.00130613)
(6.43403e-05 -0.000116211 5.71701e-05)
(-8.30383e-11 -0.000112578 8.30113e-07)
(0.000142381 -0.00425364 6.41431e-05)
(-0.00471985 0.0001984 5.49133e-05)
(0.000182558 -7.8125e-05 5.2114e-05)
(9.43591e-05 -0.000189823 0.00127856)
(-0.000100314 9.77893e-05 0.00104337)
(0.000109547 -0.000159704 5.08149e-05)
(0.000127713 -0.000121364 0.00100473)
(-0.000122849 0.000110011 5.3301e-05)
(-4.46249e-05 -2.20802e-06 3.78962e-05)
(-5.337e-05 -5.63843e-05 5.46177e-05)
(1.33864e-06 2.43882e-05 1.2608e-06)
(-1.01387e-11 9.86594e-05 3.74054e-06)
(-4.56504e-05 8.26485e-05 5.1845e-05)
(4.13882e-05 0.000114375 4.36784e-05)
(-4.56504e-05 8.26485e-05 4.95509e-05)
(-8.89122e-05 -0.000133567 5.55145e-05)
(8.14611e-05 0.000101764 5.06036e-05)
(-0.00482741 0.000120107 5.58171e-05)
(-2.54681e-05 -1.70691e-05 0.00085738)
(6.56774e-05 0.000169488 5.0164e-05)
(-5.20051e-05 7.75827e-05 5.67002e-05)
(5.77309e-07 9.78373e-05 2.35676e-06)
(-3.1925e-05 1.53722e-05 5.35451e-05)
(-5.52343e-05 0.000103966 0.0012993)
(5.74995e-05 -9.036e-05 5.18862e-05)
(0.000179896 -0.000135192 5.38772e-05)
(0.000104527 -8.19515e-05 5.877e-05)
(-7.05462e-05 -7.55285e-05 0.000547301)
(0.000174856 -4.17066e-05 5.61189e-05)
(-0.000630776 0.0013669 5.419e-05)
(0.000158871 -3.43972e-10 4.71525e-05)
(0.000372544 -0.000218191 5.49034e-05)
(7.33396e-08 2.7527e-05 1.07939e-06)
(-0.000125949 0.000330249 6.07317e-05)
(8.14611e-05 0.000101764 5.07323e-05)
(-8.38179e-05 9.00769e-05 0.00113641)
(-0.000232122 -1.41682e-05 4.14571e-05)
(0.000298859 -0.000695104 4.20276e-05)
(0.000123289 -6.23366e-06 4.85329e-05)
(-3.75177e-05 5.65736e-05 4.69245e-05)
(0.0041164 -8.77412e-05 6.15147e-05)
(4.7331e-05 4.47999e-05 5.41456e-05)
(-0.000108196 0.000102181 5.65859e-05)
(-3.8414e-05 -3.16158e-05 4.38623e-05)
(0.000152183 8.84328e-06 5.77258e-05)
(-9.13615e-05 4.66636e-05 4.83732e-05)
(-1.04129e-06 -1.09656e-05 4.65839e-05)
(4.7331e-05 4.47999e-05 5.7292e-05)
(5.86208e-05 -0.000111518 4.63173e-05)
(3.29747e-05 4.86946e-05 5.25918e-05)
(-5.7237e-05 9.03407e-05 0.001211)
(-4.99911e-06 0.00010055 4.21012e-05)
(-5.07734e-05 2.44512e-05 5.60516e-05)
(0.000326532 -0.00422063 0.00164038)
(-2.46478e-05 0.000132651 5.501e-05)
(-0.000245125 0.000539404 1.95074e-05)
(0.000123832 0.000147082 4.843e-05)
(0.000193001 0.000183584 4.68939e-05)
(-9.73656e-06 -4.2743e-06 4.13847e-05)
(1.35668e-05 0.000143257 0.00125464)
(3.3396e-08 2.72962e-05 7.69677e-07)
(-9.73656e-06 -4.2743e-06 4.36817e-05)
(0.000167484 -3.67427e-05 3.59744e-05)
(3.2322e-05 0.000246463 5.93212e-05)
(-9.0951e-05 -0.000482581 4.96511e-05)
(7.28688e-05 4.22042e-05 0.00128405)
(-6.91159e-05 -4.04859e-05 0.00118696)
(0.000514154 -0.00032183 0.00150725)
(-0.000100877 -0.00010088 0.00119119)
(-1.76835e-06 0.000173436 5.05476e-05)
(1.91212e-05 2.25059e-05 5.10582e-05)
(-5.07734e-05 2.44512e-05 5.54312e-05)
(-9.32119e-05 -4.48887e-05 4.60209e-05)
(-5.337e-05 -5.63843e-05 5.1739e-05)
(0.000153003 9.87898e-05 4.76514e-05)
(0.000179896 -0.000135192 5.15529e-05)
(-9.85622e-05 -4.75578e-05 0.0012185)
(-8.89122e-05 -0.000133567 4.91225e-05)
(5.77309e-07 9.78373e-05 2.10559e-06)
(-9.1425e-06 3.745e-05 4.52626e-05)
(3.29747e-05 4.86946e-05 4.97036e-05)
(-6.76171e-05 -0.000122751 0.001302)
(0.000232246 1.26232e-05 5.47542e-05)
(3.29747e-05 4.86946e-05 4.38e-05)
(4.89617e-05 -6.62766e-06 3.95236e-05)
(-9.81502e-05 -0.000120119 0.00116705)
(3.70118e-05 -3.19606e-05 5.54409e-05)
(-5.07734e-05 2.44512e-05 5.31966e-05)
(0.000147241 -2.61406e-05 0.0012393)
(-8.57989e-05 9.6492e-05 0.00115422)
(-4.6699e-05 -1.87583e-05 5.78435e-05)
(-9.93534e-05 0.000130595 0.0012186)
(-0.00369641 0.000763873 4.41729e-05)
(-1.1088e-05 8.86145e-05 5.33301e-05)
(8.21614e-06 -2.73317e-08 4.99438e-05)
(-7.82163e-05 8.13808e-05 5.62249e-05)
(-4.99911e-06 0.00010055 4.66217e-05)
(-9.13615e-05 4.66636e-05 5.07651e-05)
(1.01512e-11 0.000198722 9.62163e-07)
(8.14611e-05 0.000101764 4.6524e-05)
(-9.2915e-05 4.97377e-05 4.71e-05)
(-0.000118077 -0.000111495 0.00111463)
(-0.000293712 0.000289675 5.64709e-05)
(-0.000125949 0.000330249 5.75466e-05)
(-4.56504e-05 8.26485e-05 4.89342e-05)
(-0.0001021 7.02072e-05 5.24133e-05)
(3.29747e-05 4.86946e-05 5.1381e-05)
(-2.8093e-06 -2.88751e-05 3.63373e-05)
(-3.38694e-05 6.5612e-06 2.56489e-05)
(9.07629e-05 -0.00013892 5.23215e-05)
(-3.39352e-05 -0.000896732 5.82093e-05)
(0.000513976 -0.000321812 0.00150725)
(8.45615e-05 -0.000111687 5.82258e-05)
(-5.07734e-05 2.44512e-05 4.89097e-05)
(-0.000117683 -0.000131743 0.00111919)
(-4.6699e-05 -1.87583e-05 5.28028e-05)
(0.000141155 -3.63245e-05 5.49974e-05)
(0.000190618 -0.000196312 4.53039e-05)
(7.40457e-05 0.000122483 5.0789e-05)
(-5.337e-05 -5.63843e-05 5.25435e-05)
(7.61447e-07 -5.47601e-05 2.38456e-06)
(0.000158871 -3.43972e-10 4.94688e-05)
(-4.56504e-05 8.26485e-05 4.86062e-05)
(-3.48498e-05 -5.47085e-05 5.90698e-05)
(1.01512e-11 0.000198722 1.06119e-06)
(6.41809e-05 -5.33345e-06 4.57108e-05)
(0.000184907 -0.000174973 6.14548e-05)
(-2.64969e-06 -6.34161e-05 4.85485e-05)
(9.5685e-05 0.000169486 5.02123e-05)
(-2.09172e-05 7.26183e-05 5.58459e-05)
(0.000123289 -6.23366e-06 5.95359e-05)
(1.01512e-11 0.000198722 1.18111e-06)
(-9.96661e-05 0.000108483 0.00105895)
(6.99393e-05 2.28019e-06 5.18297e-05)
(-5.337e-05 -5.63843e-05 5.48299e-05)
(-2.0373e-05 7.05348e-07 7.06223e-07)
(-4.56504e-05 8.26485e-05 5.19252e-05)
(0.000110612 0.000155306 5.23157e-05)
(-9.1425e-06 3.745e-05 4.82761e-05)
(6.43403e-05 -0.000116211 4.86929e-05)
(-7.62217e-05 5.15351e-06 4.72281e-05)
(-8.89122e-05 -0.000133567 4.87963e-05)
(4.7331e-05 4.47999e-05 4.74546e-05)
(-2.46478e-05 0.000132651 5.89648e-05)
(0.000143173 0.00010979 0.00122589)
(9.45419e-05 0.000110429 5.19569e-05)
(-1.04129e-06 -1.09656e-05 4.40969e-05)
(9.07629e-05 -0.00013892 5.35954e-05)
(-0.000210879 -1.27754e-05 4.10488e-05)
(1.3392e-05 -1.11761e-05 4.52592e-05)
(0.000149081 9.29878e-05 5.24397e-05)
(-3.48498e-05 -5.47085e-05 5.56223e-05)
(-8.89122e-05 -0.000133567 4.80763e-05)
(0.000199276 0.000196999 5.08232e-05)
(4.74442e-06 -2.97262e-05 0.000980326)
(1.97861e-05 -3.21235e-05 4.04829e-05)
(-5.337e-05 -5.63843e-05 5.4423e-05)
(1.01512e-11 0.000198722 1.1245e-06)
(0.000149081 9.29878e-05 5.50809e-05)
(4.7331e-05 4.47999e-05 5.49584e-05)
(-4.56504e-05 8.26485e-05 5.10561e-05)
(-0.00439156 -0.000564824 5.8634e-05)
(-9.32119e-05 -4.48887e-05 4.99882e-05)
(-5.07734e-05 2.44512e-05 4.93765e-05)
(0.000189916 6.12025e-06 0.00128448)
(-0.000108167 -5.20904e-05 0.0012535)
(-3.48498e-05 -5.47085e-05 5.5251e-05)
(9.412e-05 -0.000131597 4.6696e-05)
(8.14611e-05 0.000101764 5.08547e-05)
(0.000120717 -1.1179e-06 8.10969e-07)
(-3.55747e-05 -0.000116778 5.24955e-05)
(0.000136452 0.000168063 0.00124934)
(-9.93472e-05 -0.000118921 0.00116705)
(0.00021612 9.65639e-05 0.00108667)
(0.000158494 -2.73317e-08 1.99486e-06)
(-3.39352e-05 -7.18025e-05 0.00128093)
(7.61447e-07 -5.47601e-05 2.34825e-06)
(-8.05027e-05 9.3392e-05 0.00113641)
(-0.000497959 -6.34466e-05 4.82519e-05)
(-1.0153e-09 1.05234e-07 1.56868e-05)
(-9.13615e-05 4.66636e-05 5.26649e-05)
(5.50961e-05 -1.24049e-05 5.15855e-05)
(-8.30383e-11 -0.000112578 7.78011e-07)
(-0.000630776 0.0013669 5.31563e-05)
(-9.73656e-06 -4.2743e-06 4.32477e-05)
(0.000248702 -7.96695e-05 4.86864e-05)
(-0.000454062 -7.63667e-14 3.15883e-05)
(-2.09172e-05 7.26183e-05 5.84034e-05)
(0.000151423 -0.000177416 5.09983e-05)
(-3.48498e-05 -5.47085e-05 4.87449e-05)
(-0.000125951 0.00415463 6.44762e-05)
(-3.2806e-06 -5.351e-06 5.01845e-05)
(8.14611e-05 0.000101764 4.6527e-05)
(0.00011776 5.53431e-05 5.22245e-05)
(0.000193001 0.000183584 5.40589e-05)
(-9.78579e-05 -0.000120411 0.00116705)
(-7.86212e-05 -3.79547e-05 4.57431e-05)
(-4.70639e-05 1.63244e-06 1.08044e-06)
(4.7331e-05 4.47999e-05 5.03807e-05)
(1.97861e-05 -3.21235e-05 4.61793e-05)
(-4.62692e-05 6.53998e-05 5.48899e-05)
(-0.000113759 -0.000115813 0.00111463)
(1.77574e-06 -6.0049e-06 1.29448e-06)
(2.4481e-05 0.000156828 5.12013e-05)
(-5.07734e-05 2.44512e-05 5.93925e-05)
(-4.70639e-05 1.63244e-06 1.05296e-06)
(-0.000589651 4.65677e-05 5.98191e-05)
(2.49072e-05 -8.64227e-06 3.6939e-05)
(6.96344e-06 0.000239821 0.00105895)
(3.70118e-05 -3.19606e-05 6.01152e-05)
(0.000248702 -7.96695e-05 4.70609e-05)
(-0.000630776 0.0013669 5.88913e-05)
(0.000142381 -0.00425364 6.88186e-05)
(-0.000110324 -0.000127206 0.00115657)
(-9.1425e-06 3.745e-05 4.98941e-05)
(-2.46478e-05 0.000132651 5.57423e-05)
(0.000179896 -0.000135192 5.48095e-05)
(-9.12901e-05 -0.00426074 7.28618e-05)
(9.41065e-05 0.000162189 0.00108667)
(-8.3448e-05 9.04468e-05 0.00113641)
(4.7331e-05 4.47999e-05 5.72766e-05)
(6.20175e-05 0.000106148 5.27897e-05)
(3.28473e-05 6.78693e-06 5.90072e-05)
(2.4481e-05 0.000156828 4.90391e-05)
(8.13817e-05 0.000101518 0.00118726)
(0.0041164 -8.77412e-05 6.65787e-05)
(4.60955e-05 7.30528e-05 5.4181e-05)
(9.33823e-05 0.000302985 5.06176e-05)
(0.000199276 0.000196999 4.46565e-05)
(0.00404029 0.000122003 5.24227e-05)
(9.47265e-05 -0.000190586 0.00127856)
(9.412e-05 -0.000131597 5.39986e-05)
(9.412e-05 -0.000131597 4.8484e-05)
(-0.000107793 -5.19107e-05 0.0012535)
(0.000192101 1.37959e-05 6.03727e-05)
(8.52001e-09 -5.44471e-11 9.40945e-05)
(-0.000108186 -5.20999e-05 0.0012535)
(-8.89122e-05 -0.000133567 4.87922e-05)
(1.01512e-11 0.000198722 9.85534e-07)
(-0.000117901 -0.000111671 0.00111463)
(-4.6699e-05 -1.87583e-05 5.35386e-05)
(1.09275e-05 -3.46984e-07 6.71605e-07)
(-7.80273e-05 5.30448e-05 5.03655e-05)
(-3.95464e-05 -8.5956e-05 5.50795e-05)
(3.2322e-05 0.000246463 5.93144e-05)
(2.15276e-05 -3.93207e-11 3.9301e-05)
(3.26691e-05 -4.12187e-05 0.0010552)
(6.47824e-05 -6.42118e-05 0.00117579)
(-5.02176e-05 7.57649e-05 5.69096e-05)
(-9.06377e-05 4.36489e-05 0.00128559)
(0.000410454 0.000221504 6.86027e-05)
(-0.000123523 1.18952e-05 5.40326e-05)
(-7.62217e-05 5.15351e-06 4.59569e-05)
(1.97861e-05 -3.21235e-05 4.26002e-05)
(0.000123289 -6.23366e-06 5.52717e-05)
(1.1415e-05 -6.77148e-05 0.00118859)
(-9.11909e-05 9.46135e-05 0.00113104)
(4.7331e-05 4.47999e-05 5.46515e-05)
(0.000191724 -0.000165567 5.45882e-05)
(-0.000343508 0.000156056 4.32383e-05)
(-4.98131e-05 -8.06793e-05 4.0168e-05)
(-9.85166e-06 0.000145932 4.89479e-05)
(-3.2806e-06 -5.351e-06 5.74728e-05)
(-7.86212e-05 -3.79547e-05 5.00075e-05)
(-4.56504e-05 8.26485e-05 5.03843e-05)
(0.000165199 -0.00013341 4.9857e-05)
(3.04096e-05 -0.000160711 5.36455e-05)
(6.94973e-05 9.70627e-05 4.50428e-05)
(-3.48498e-05 -5.47085e-05 6.20869e-05)
(0.000158871 -3.43972e-10 5.00114e-05)
(-9.32119e-05 -4.48887e-05 5.28462e-05)
(-0.000125951 0.00415463 6.55021e-05)
(-8.04254e-05 9.34693e-05 0.00113641)
(0.000165199 -0.00013341 5.09776e-05)
(0.000248702 -7.96695e-05 5.20544e-05)
(0.000151896 -0.000116728 0.00120615)
(2.17583e-05 0.000170965 5.26696e-05)
(-0.00011964 -0.000129786 0.00111919)
(-9.36297e-05 -0.000126332 0.0012244)
(-8.23092e-05 0.000102258 0.00117747)
(-0.000110549 5.82299e-05 0.00121692)
(-0.000630776 0.0013669 5.60429e-05)
(-2.0373e-05 7.05348e-07 6.84161e-07)
(1.97861e-05 -3.21235e-05 4.32022e-05)
(-1.01387e-11 9.86594e-05 3.92146e-06)
(-0.00471985 0.0001984 7.23035e-05)
(-4.70639e-05 1.63244e-06 1.04431e-06)
(-2.23921e-05 1.48988e-05 4.46142e-05)
(-6.76626e-05 -0.000122845 0.001302)
(-7.88138e-05 -6.02563e-13 4.20114e-06)
(7.40457e-05 0.000122483 5.2617e-05)
(0.000158871 -3.43972e-10 4.9838e-05)
(6.31495e-05 -8.83138e-05 4.34812e-05)
(8.14611e-05 0.000101764 4.64076e-05)
(-5.73278e-05 9.05294e-05 0.001211)
(0.000158871 -3.43972e-10 5.20123e-05)
(1.14442e-05 2.44025e-06 4.61516e-05)
(-4.70639e-05 1.63244e-06 1.11041e-06)
(-5.337e-05 -5.63843e-05 5.16389e-05)
(0.000194863 -0.000291656 3.92241e-05)
(8.14611e-05 0.000101764 5.15289e-05)
(0.000165199 -0.00013341 5.18018e-05)
(-4.6699e-05 -1.87583e-05 5.75224e-05)
(-9.61927e-05 0.000111957 0.00105895)
(-0.000110696 5.83004e-05 0.00121692)
(-0.000113138 -0.000124392 0.00115657)
(-0.000205487 -0.000116774 0.00126565)
(-0.000137922 -6.00617e-05 4.98897e-05)
(6.31495e-05 -8.83138e-05 4.23745e-05)
(-3.48498e-05 -5.47085e-05 4.85244e-05)
(0.000201273 0.000178858 5.50357e-05)
(-0.000122849 0.000110011 5.31339e-05)
(0.000141155 -3.63245e-05 5.30656e-05)
(3.70118e-05 -3.19606e-05 5.94808e-05)
(5.77309e-07 7.05984e-07 5.61301e-05)
(0.000620473 -0.00015488 9.52317e-07)
(-2.08143e-06 9.30229e-05 4.54225e-05)
(-1.01387e-11 9.86594e-05 3.66861e-06)
(-0.000589651 4.65677e-05 5.7817e-05)
(-4.6699e-05 -1.87583e-05 5.33192e-05)
(-4.56504e-05 8.26485e-05 5.62301e-05)
(-0.000117775 -0.000111797 0.00111463)
(-3.55747e-05 -0.000116778 4.93815e-05)
(6.94973e-05 9.70627e-05 4.73138e-05)
(7.33396e-08 2.7527e-05 1.16508e-06)
(0.00380737 -0.000221668 0.00148869)
(-3.2806e-06 -5.351e-06 4.84595e-05)
(-9.25101e-05 -0.000123591 0.00121149)
(-0.000108071 -5.20444e-05 0.0012535)
(9.55855e-05 2.0324e-05 5.76241e-05)
(0.000158871 -3.43972e-10 5.48674e-05)
(-8.62919e-05 -0.000137001 5.03833e-05)
(9.07629e-05 -0.00013892 5.33427e-05)
(-8.43557e-05 9.79352e-05 0.00115422)
(-9.32119e-05 -4.48887e-05 5.27121e-05)
(0.000129292 7.5524e-05 3.7411e-05)
(-4.99911e-06 0.000128512 0.00108272)
(3.29747e-05 4.86946e-05 5.27793e-05)
(-9.00444e-05 4.33631e-05 0.00128559)
(-4.6699e-05 -1.87583e-05 5.66897e-05)
(-3.1925e-05 1.53722e-05 5.13528e-05)
(4.52308e-07 -0.000131195 1.67165e-06)
(-9.32119e-05 -4.48887e-05 5.44621e-05)
(-1.14887e-05 -1.15672e-05 4.26212e-05)
(3.3396e-08 2.72962e-05 8.18408e-07)
(0.00383198 3.46191e-05 6.25886e-05)
(-7.86212e-05 -3.79547e-05 4.92127e-05)
(-3.1925e-05 1.53722e-05 6.06497e-05)
(0.000193001 0.000183584 4.80713e-05)
(-5.337e-05 -5.63843e-05 5.43982e-05)
(-9.12901e-05 -0.00426074 6.85499e-05)
(1.3392e-05 -1.11761e-05 4.18694e-05)
(-6.91611e-05 -5.7855e-05 4.56021e-05)
(-2.38197e-05 9.20763e-05 5.06962e-05)
(-8.30383e-11 -0.000112578 8.49319e-07)
(-8.04524e-05 9.34423e-05 0.00113641)
(-9.59901e-05 0.000102113 0.00104337)
(-7.12784e-05 -7.47964e-05 0.000547301)
(0.000199276 0.000196999 5.56566e-05)
(-0.000108196 0.000102181 5.06829e-05)
(9.412e-05 -0.000131597 4.67047e-05)
(-3.18931e-05 -0.000354728 5.837e-05)
(-0.000125951 0.00415463 6.5237e-05)
(-1.01387e-11 9.86594e-05 4.04986e-06)
(-0.00011312 -0.000116452 0.00111463)
(-4.62692e-05 6.53998e-05 4.57943e-05)
(3.29747e-05 4.86946e-05 5.02491e-05)
(-0.000117656 -0.00013177 0.00111919)
(-0.000101914 6.31785e-05 4.79617e-05)
(3.52953e-05 -4.18182e-05 4.58778e-05)
(9.412e-05 -0.000131597 4.93673e-05)
(-2.33774e-05 -0.00422444 7.24213e-05)
(9.07629e-05 -0.00013892 4.92228e-05)
(-9.95402e-05 -0.000118729 0.00116705)
(-5.02176e-05 7.57649e-05 5.74055e-05)
(0.000216131 9.65769e-05 0.00108667)
(5.5203e-05 -4.62838e-06 0.00110184)
(7.33396e-08 2.7527e-05 1.07558e-06)
(-0.000107165 -9.87258e-05 0.00119239)
(2.15276e-05 -3.93207e-11 4.0123e-05)
(3.70118e-05 -3.19606e-05 5.78064e-05)
(9.07629e-05 -0.00013892 4.56314e-05)
(-4.70639e-05 1.63244e-06 9.97707e-07)
(2.1316e-07 -3.93719e-05 1.2795e-06)
(-4.62692e-05 6.53998e-05 4.57866e-05)
(-0.000589651 4.65677e-05 5.55886e-05)
(-3.18931e-05 -0.000354728 5.28159e-05)
(-7.86212e-05 -3.79547e-05 5.29093e-05)
(9.4158e-05 -0.000119569 5.01166e-05)
(5.77309e-07 9.78373e-05 2.19464e-06)
(-5.337e-05 -5.63843e-05 5.36063e-05)
(1.14442e-05 2.44025e-06 4.38649e-05)
(9.4158e-05 -0.000119569 5.42304e-05)
(8.14611e-05 0.000101764 4.75943e-05)
(-1.11895e-18 4.48916e-19 -1.33304e-19)
(6.31495e-05 -8.83138e-05 4.76358e-05)
(-2.0373e-05 7.05348e-07 6.10882e-07)
(-6.38678e-06 -0.000231632 0.000547301)
(-6.44302e-05 5.29006e-05 4.87118e-05)
(-9.2915e-05 4.97377e-05 4.9609e-05)
(0.000167484 -3.67427e-05 4.06375e-05)
(-3.28438e-05 4.11299e-05 4.14007e-05)
(3.52953e-05 -4.18182e-05 4.79237e-05)
(-0.00471985 0.0001984 6.54432e-05)
(0.000193001 0.000183584 5.37616e-05)
(0.000123812 0.000119195 0.00106577)
(-4.70639e-05 1.63244e-06 9.61045e-07)
(-6.2906e-05 0.000100219 0.00127633)
(0.000123289 -6.23366e-06 4.88801e-05)
(6.43403e-05 -0.000116211 4.59829e-05)
(1.3392e-05 -1.11761e-05 4.13855e-05)
(5.32802e-05 8.79721e-05 0.00120584)
(9.43236e-05 -0.00018975 0.00127856)
(-5.20051e-05 7.75827e-05 5.75437e-05)
(-3.2806e-06 -5.351e-06 5.47146e-05)
(-9.13615e-05 4.66636e-05 5.43957e-05)
(-0.00024182 -8.30827e-06 4.96161e-05)
(8.82709e-05 0.000111083 4.38357e-05)
(-8.38601e-05 9.00346e-05 0.00113641)
(6.99393e-05 2.28019e-06 5.24086e-05)
(-6.79695e-05 3.27303e-05 0.00129722)
(-7.88138e-05 -6.02563e-13 4.10465e-06)
(-9.2915e-05 4.97377e-05 4.55348e-05)
(-6.44302e-05 5.29006e-05 4.5686e-05)
(8.14611e-05 0.000101764 5.14651e-05)
(7.92249e-05 0.000148171 4.65659e-05)
(0.000193001 0.000183584 4.68203e-05)
(3.00991e-05 4.16223e-05 4.14271e-05)
(-4.56504e-05 8.26485e-05 5.13902e-05)
(-1.30967e-05 0.000185212 0.00120564)
(0.000516909 -0.000322103 6.24254e-05)
(-5.07734e-05 2.44512e-05 5.43984e-05)
(0.000231245 -0.000116697 0.000838343)
(-3.1925e-05 1.53722e-05 5.9516e-05)
(-7.88138e-05 -6.02563e-13 3.62919e-06)
(-2.0373e-05 7.05348e-07 6.90639e-07)
(-3.48498e-05 -5.47085e-05 5.49845e-05)
(9.08271e-05 -8.67068e-05 5.22483e-05)
(0.00404455 -0.000108307 0.00126041)
(9.4158e-05 -0.000119569 5.19671e-05)
(7.33396e-08 2.7527e-05 1.14318e-06)
(0.000193001 0.000183584 5.30451e-05)
(4.32369e-05 5.97567e-05 5.47638e-05)
(-1.01387e-11 9.86594e-05 3.89432e-06)
(0.000122733 -0.000282403 4.74179e-05)
(-0.00482741 0.000120107 6.23801e-05)
(0.000173025 -0.000125016 0.00123898)
(2.15276e-05 -3.93207e-11 3.91011e-05)
(-0.000117834 9.24399e-05 3.97235e-05)
(0.000179896 -0.000135192 4.92007e-05)
(-3.2806e-06 -5.351e-06 4.101e-05)
(-9.32119e-05 -4.48887e-05 5.27157e-05)
(-3.48498e-05 -5.47085e-05 5.4383e-05)
(0.000111691 0.000121418 5.38322e-05)
(0.000199276 0.000196999 5.07322e-05)
(7.61447e-07 -5.47601e-05 2.92274e-05)
(9.412e-05 -0.000131597 5.01404e-05)
(8.14611e-05 0.000101764 5.26526e-05)
(0.000111691 0.000121418 4.96974e-05)
(-3.48498e-05 -5.47085e-05 5.26208e-05)
(-9.2915e-05 4.97377e-05 4.85399e-05)
(-6.15603e-06 6.39557e-05 0.00111778)
(-0.000833732 -0.000126596 0.00124871)
(-2.64969e-06 -6.34161e-05 4.18416e-05)
(0.000269356 0.000149948 0.00129735)
(-9.12901e-05 -0.00426074 6.79268e-05)
(-9.13615e-05 4.66636e-05 5.33899e-05)
(8.14611e-05 0.000101764 5.0329e-05)
(0.000193001 0.000183584 5.46137e-05)
(-0.000210879 -1.27754e-05 4.53706e-05)
(7.40457e-05 0.000122483 4.69724e-05)
(0.000298859 -0.000695104 4.16806e-05)
(-1.01387e-11 9.86594e-05 3.67773e-06)
(0.000158494 -2.73317e-08 1.97884e-06)
(6.18513e-05 -6.88766e-05 5.03228e-05)
(-3.0278e-05 7.87634e-05 5.34608e-05)
(3.70118e-05 -3.19606e-05 5.13558e-05)
(0.000162592 -1.0919e-05 0.0012368)
(-4.6699e-05 -1.87583e-05 5.12376e-05)
(-2.54853e-06 -1.22106e-05 0.00117961)
(0.000278255 -0.000623544 0.0013395)
(6.31495e-05 -8.83138e-05 4.53477e-05)
(-4.81039e-07 -1.54766e-05 4.35532e-05)
(0.000372544 -0.000218191 6.6337e-05)
(4.90034e-05 5.03652e-05 3.62287e-05)
(-5.337e-05 -5.63843e-05 5.78394e-05)
(-8.89122e-05 -0.000133567 5.54026e-05)
(7.33396e-08 2.7527e-05 1.01226e-06)
(0.000199276 0.000196999 4.8856e-05)
(2.1316e-07 -3.93719e-05 1.22857e-06)
(-4.56504e-05 8.26485e-05 4.99079e-05)
(5.6204e-05 0.0001888 0.00127653)
(-1.04129e-06 -1.09656e-05 4.48179e-05)
(3.28473e-05 6.78693e-06 5.18453e-05)
(0.000142381 -0.00425364 6.8372e-05)
(6.18513e-05 -6.88766e-05 4.85925e-05)
(3.70118e-05 -3.19606e-05 5.56972e-05)
(0.000199276 0.000196999 5.05316e-05)
(-1.1269e-05 9.21978e-05 5.603e-05)
(7.33396e-08 2.7527e-05 1.12477e-06)
(-9.12901e-05 -0.00426074 7.08406e-05)
(3.52953e-05 -4.18182e-05 4.54759e-05)
(-8.89122e-05 -0.000133567 4.81418e-05)
(5.57561e-05 0.000181683 0.00120329)
(-8.6842e-05 6.20662e-05 0.00124936)
(3.70118e-05 -3.19606e-05 5.86242e-05)
(-5.07734e-05 2.44512e-05 5.39121e-05)
(1.14442e-05 2.44025e-06 4.4117e-05)
(-0.000630776 0.0013669 5.45042e-05)
(-0.000120272 -2.86472e-05 7.00822e-06)
(0.000138934 -5.61994e-05 4.76748e-05)
(-8.89122e-05 -0.000133567 5.02832e-05)
(-0.0001021 7.02072e-05 5.70499e-05)
(1.95332e-05 -6.00035e-06 0.000776396)
(-5.72871e-05 9.04449e-05 0.001211)
(3.29747e-05 4.86946e-05 5.15616e-05)
(0.0041164 -8.77412e-05 5.76938e-05)
(5.96836e-05 0.000136423 0.00118568)
(4.60955e-05 7.30528e-05 5.16381e-05)
(-5.337e-05 -5.63843e-05 5.52883e-05)
(1.77574e-06 -6.0049e-06 1.35861e-06)
(0.000158871 -3.43972e-10 5.46657e-05)
(-9.13615e-05 4.66636e-05 5.04679e-05)
(-8.60222e-05 0.000158922 0.00130471)
(-8.89122e-05 -0.000133567 4.65011e-05)
(-2.66184e-05 4.21455e-05 0.00129399)
(-8.06938e-05 9.32009e-05 0.00113641)
(-4.62692e-05 6.53998e-05 5.44219e-05)
(4.25326e-05 5.65286e-05 0.00111682)