/*--------------------------------*- C++ -*----------------------------------*\
| =========                 |                                                 |
| \\      /  F ield         | OpenFOAM: The Open Source CFD Toolbox           |
|  \\    /   O peration     | Version:  plus.master.MPPICInterFoam            |
|   \\  /    A nd           | Web:      www.OpenFOAM.com                      |
|    \\/     M anipulation  |                                                 |
\*---------------------------------------------------------------------------*/
FoamFile
{
    version     2.0;
    format      ascii;
    class       vectorField;
    location    "12.6/lagrangian/kinematicCloud";
    object      U;
}
// * * * * * * * * * * * * * * * * * * * * * * * * * * * * * * * * * * * * * //


18
(
(0.00122068 -0.00415587 -0.0825741)
(0.00179891 -0.00435317 -0.0888259)
(-0.00272318 0.00508637 -0.0965198)
(0.00171417 -0.00445083 -0.0944881)
(0.0014446 -0.00448839 -0.0924585)
(0.00179388 -0.00607114 -0.104225)
(-0.00229887 -0.0235232 -0.138359)
(-0.00299191 -0.0237279 -0.138238)
(-0.0492377 -0.0716253 -0.184452)
(-0.025315 0.0634092 -0.19115)
(-0.0337514 0.116316 0.0739682)
(-0.0166639 0.0319011 0.396067)
(-0.000539145 -0.00102684 0.319596)
(-0.000199874 -0.000904488 0.330701)
(-0.00198559 -0.000492759 0.461996)
(-5.25778e-05 -0.0015271 0.321943)
(-0.00277681 -0.000256022 0.467247)
(-0.000691184 0.00282988 0.434878)
)


// ************************************************************************* //
