/*--------------------------------*- C++ -*----------------------------------*\
| =========                 |                                                 |
| \\      /  F ield         | OpenFOAM: The Open Source CFD Toolbox           |
|  \\    /   O peration     | Version:  plus.master.MPPICInterFoam            |
|   \\  /    A nd           | Web:      www.OpenFOAM.com                      |
|    \\/     M anipulation  |                                                 |
\*---------------------------------------------------------------------------*/
FoamFile
{
    version     2.0;
    format      ascii;
    class       vectorField;
    location    "12.6/lagrangian/kinematicCloud";
    object      UCorrect;
}
// * * * * * * * * * * * * * * * * * * * * * * * * * * * * * * * * * * * * * //


18
(
(3.40468e-19 1.44817e-19 1.12244e-35)
(-2.54042e-20 -5.27523e-20 1.04195e-19)
(-1.12574e-19 5.14848e-19 -8.82994e-35)
(-1.04078e-20 -2.1612e-20 1.04195e-19)
(-1.73383e-20 -3.60032e-20 1.04195e-19)
(-3.17146e-19 -3.7362e-19 1.74324e-34)
(-1.02278e-19 -2.12382e-19 9.67004e-35)
(-1.02278e-19 -2.12382e-19 1.03994e-34)
(-3.8407e-19 -4.81608e-19 1.34742e-19)
(-8.56519e-20 2.10894e-19 1.89569e-36)
(-1.3061e-20 -2.66911e-20 8.6485e-20)
(-2.21018e-19 -3.6644e-20 9.22043e-20)
(-4.2428e-19 2.01538e-19 -3.51359e-37)
(-4.61437e-19 2.22597e-19 2.49308e-20)
(7.64172e-19 1.71411e-19 -8.57316e-20)
(-4.25943e-19 2.02481e-19 1.4249e-19)
(7.58053e-19 -1.05971e-19 -8.57316e-20)
(4.90081e-19 -2.82754e-19 -9.98213e-20)
)


// ************************************************************************* //
