/*--------------------------------*- C++ -*----------------------------------*\
| =========                 |                                                 |
| \\      /  F ield         | OpenFOAM: The Open Source CFD Toolbox           |
|  \\    /   O peration     | Version:  plus.master.MPPICInterFoam            |
|   \\  /    A nd           | Web:      www.OpenFOAM.com                      |
|    \\/     M anipulation  |                                                 |
\*---------------------------------------------------------------------------*/
FoamFile
{
    version     2.0;
    format      ascii;
    class       volScalarField;
    location    "11.6";
    object      p;
}
// * * * * * * * * * * * * * * * * * * * * * * * * * * * * * * * * * * * * * //

dimensions      [1 -1 -2 0 0 0 0];

internalField   nonuniform List<scalar> 
11821
(
3935.88
3935.87
3935.87
3935.87
3935.88
3935.88
3935.88
3935.88
3935.88
3935.87
3935.87
3935.87
3935.87
3935.87
3935.88
3935.88
3935.88
3935.88
3935.88
3935.88
3935.88
3935.88
3935.88
3935.88
3935.88
3935.88
3935.88
3935.88
3935.88
3935.88
3935.88
3935.88
3935.89
3935.89
3935.89
3935.89
3935.89
3935.89
3935.89
3935.89
3935.89
3935.89
3935.89
3935.89
3935.9
3935.9
3935.9
3935.9
3935.91
3935.9
3935.9
3935.91
3935.91
3935.91
3935.91
3935.91
3838.88
3838.88
3838.87
3838.87
3838.87
3838.87
3838.87
3838.87
3838.88
3838.88
3838.87
3838.87
3838.87
3838.87
3838.87
3838.87
3838.88
3838.88
3838.88
3838.88
3838.87
3838.87
3838.87
3838.87
3838.88
3838.88
3838.88
3838.88
3838.88
3838.88
3838.87
3838.87
3838.89
3838.89
3838.88
3838.88
3838.88
3838.88
3838.88
3838.88
3838.89
3838.89
3838.89
3838.89
3838.89
3838.89
3838.89
3838.89
3838.9
3838.9
3838.9
3838.9
3838.9
3838.9
3838.9
3838.9
3741.88
3741.88
3741.88
3741.88
3741.87
3741.87
3741.87
3741.87
3741.88
3741.88
3741.88
3741.87
3741.87
3741.87
3741.87
3741.87
3741.88
3741.88
3741.88
3741.87
3741.87
3741.87
3741.87
3741.87
3741.88
3741.88
3741.88
3741.88
3741.88
3741.87
3741.87
3741.87
3741.89
3741.89
3741.89
3741.88
3741.88
3741.88
3741.88
3741.88
3741.9
3741.89
3741.89
3741.89
3741.89
3741.89
3741.89
3741.89
3741.91
3741.9
3741.9
3741.9
3741.9
3741.9
3741.9
3741.9
3644.88
3644.88
3644.88
3644.88
3644.88
3644.88
3644.87
3644.87
3644.88
3644.88
3644.88
3644.88
3644.88
3644.87
3644.87
3644.87
3644.88
3644.88
3644.88
3644.88
3644.88
3644.87
3644.87
3644.87
3644.89
3644.88
3644.88
3644.88
3644.88
3644.88
3644.88
3644.88
3644.89
3644.89
3644.89
3644.89
3644.88
3644.88
3644.88
3644.88
3644.9
3644.9
3644.89
3644.89
3644.89
3644.89
3644.89
3644.89
3644.91
3644.91
3644.9
3644.9
3644.9
3644.9
3644.9
3644.9
3547.89
3547.89
3547.88
3547.88
3547.88
3547.88
3547.88
3547.88
3547.89
3547.88
3547.88
3547.88
3547.88
3547.88
3547.88
3547.88
3547.89
3547.88
3547.88
3547.88
3547.88
3547.88
3547.88
3547.88
3547.89
3547.89
3547.89
3547.88
3547.88
3547.88
3547.88
3547.88
3547.9
3547.89
3547.89
3547.89
3547.89
3547.89
3547.89
3547.89
3547.9
3547.9
3547.9
3547.9
3547.9
3547.89
3547.89
3547.89
3547.91
3547.91
3547.91
3547.91
3547.9
3547.9
3547.9
3547.9
3450.89
3450.89
3450.89
3450.89
3450.89
3450.89
3450.89
3450.88
3450.89
3450.89
3450.89
3450.89
3450.89
3450.88
3450.88
3450.88
3450.89
3450.89
3450.89
3450.88
3450.88
3450.88
3450.88
3450.88
3450.9
3450.89
3450.89
3450.89
3450.89
3450.89
3450.89
3450.89
3450.9
3450.9
3450.9
3450.9
3450.89
3450.89
3450.89
3450.89
3450.91
3450.9
3450.9
3450.9
3450.9
3450.9
3450.9
3450.9
3450.91
3450.91
3450.91
3450.91
3450.91
3450.91
3450.91
3450.91
3353.9
3353.9
3353.9
3353.89
3353.89
3353.89
3353.89
3353.89
3353.9
3353.9
3353.89
3353.89
3353.89
3353.89
3353.89
3353.89
3353.9
3353.89
3353.89
3353.89
3353.89
3353.89
3353.89
3353.89
3353.9
3353.9
3353.9
3353.89
3353.89
3353.89
3353.89
3353.89
3353.91
3353.9
3353.9
3353.9
3353.9
3353.9
3353.9
3353.9
3353.91
3353.91
3353.91
3353.9
3353.9
3353.9
3353.9
3353.9
3353.92
3353.91
3353.91
3353.91
3353.91
3353.91
3353.91
3353.91
3256.9
3256.9
3256.9
3256.89
3256.89
3256.89
3256.89
3256.89
3256.9
3256.9
3256.89
3256.89
3256.89
3256.89
3256.89
3256.89
3256.9
3256.9
3256.89
3256.89
3256.89
3256.89
3256.89
3256.89
3256.9
3256.9
3256.9
3256.89
3256.89
3256.89
3256.89
3256.89
3256.9
3256.9
3256.9
3256.9
3256.9
3256.9
3256.89
3256.89
3256.91
3256.91
3256.9
3256.9
3256.9
3256.9
3256.9
3256.9
3256.92
3256.91
3256.91
3256.91
3256.91
3256.91
3256.91
3256.91
3159.9
3159.89
3159.89
3159.89
3159.89
3159.88
3159.88
3159.88
3159.89
3159.89
3159.89
3159.89
3159.88
3159.88
3159.88
3159.88
3159.89
3159.89
3159.89
3159.88
3159.88
3159.88
3159.88
3159.88
3159.9
3159.89
3159.89
3159.89
3159.89
3159.88
3159.88
3159.88
3159.9
3159.89
3159.89
3159.89
3159.89
3159.89
3159.89
3159.89
3159.9
3159.9
3159.9
3159.9
3159.89
3159.89
3159.89
3159.89
3159.91
3159.91
3159.9
3159.9
3159.9
3159.9
3159.9
3159.9
3062.88
3062.88
3062.88
3062.88
3062.87
3062.87
3062.87
3062.87
3062.88
3062.88
3062.88
3062.88
3062.87
3062.87
3062.87
3062.87
3062.88
3062.88
3062.88
3062.87
3062.87
3062.87
3062.87
3062.87
3062.88
3062.88
3062.88
3062.88
3062.87
3062.87
3062.87
3062.87
3062.89
3062.88
3062.88
3062.88
3062.88
3062.88
3062.87
3062.87
3062.89
3062.89
3062.89
3062.88
3062.88
3062.88
3062.88
3062.88
3062.9
3062.89
3062.89
3062.89
3062.89
3062.89
3062.89
3062.88
2965.87
2965.86
2965.86
2965.86
2965.86
2965.85
2965.85
2965.85
2965.87
2965.86
2965.86
2965.86
2965.86
2965.85
2965.85
2965.85
2965.87
2965.86
2965.86
2965.86
2965.86
2965.85
2965.85
2965.85
2965.87
2965.86
2965.86
2965.86
2965.86
2965.86
2965.85
2965.85
2965.87
2965.87
2965.86
2965.86
2965.86
2965.86
2965.86
2965.85
2965.87
2965.87
2965.87
2965.87
2965.86
2965.86
2965.86
2965.86
2965.88
2965.88
2965.87
2965.87
2965.87
2965.87
2965.87
2965.87
2868.85
2868.84
2868.84
2868.84
2868.84
2868.83
2868.83
2868.83
2868.85
2868.84
2868.84
2868.84
2868.84
2868.83
2868.83
2868.83
2868.85
2868.84
2868.84
2868.84
2868.84
2868.83
2868.83
2868.83
2868.85
2868.85
2868.84
2868.84
2868.84
2868.83
2868.83
2868.83
2868.85
2868.85
2868.85
2868.84
2868.84
2868.84
2868.83
2868.83
2868.86
2868.85
2868.85
2868.85
2868.85
2868.84
2868.84
2868.84
2868.86
2868.86
2868.86
2868.85
2868.85
2868.85
2868.85
2868.84
2771.83
2771.82
2771.82
2771.82
2771.82
2771.81
2771.81
2771.81
2771.83
2771.82
2771.82
2771.82
2771.81
2771.81
2771.81
2771.81
2771.83
2771.82
2771.82
2771.82
2771.81
2771.81
2771.81
2771.81
2771.83
2771.82
2771.82
2771.82
2771.82
2771.81
2771.81
2771.81
2771.83
2771.83
2771.83
2771.82
2771.82
2771.82
2771.81
2771.81
2771.84
2771.83
2771.83
2771.83
2771.83
2771.82
2771.82
2771.82
2771.84
2771.84
2771.84
2771.83
2771.83
2771.83
2771.83
2771.83
2674.81
2674.8
2674.8
2674.8
2674.8
2674.8
2674.79
2674.79
2674.81
2674.8
2674.8
2674.8
2674.8
2674.79
2674.79
2674.79
2674.81
2674.8
2674.8
2674.8
2674.8
2674.79
2674.79
2674.79
2674.81
2674.81
2674.8
2674.8
2674.8
2674.8
2674.79
2674.79
2674.81
2674.81
2674.81
2674.81
2674.8
2674.8
2674.8
2674.8
2674.82
2674.82
2674.81
2674.81
2674.81
2674.81
2674.81
2674.8
2674.83
2674.82
2674.82
2674.82
2674.82
2674.82
2674.81
2674.81
3935.99
3935.98
3935.99
3935.99
3935.99
3935.99
3936
3936
3935.99
3935.99
3935.99
3936
3936
3936
3936.01
3936.01
3935.99
3935.99
3935.99
3935.99
3935.99
3935.99
3935.99
3935.98
3838.97
3838.97
3838.97
3838.97
3838.98
3838.98
3838.98
3838.98
3838.98
3838.98
3838.98
3838.98
3838.98
3838.99
3838.99
3838.99
3838.98
3838.98
3838.98
3838.98
3838.98
3838.98
3838.99
3838.99
3838.98
3838.98
3838.98
3838.99
3838.99
3838.99
3839
3839.01
3838.97
3838.97
3838.97
3838.97
3838.97
3838.97
3838.98
3838.98
3838.96
3838.96
3838.96
3838.96
3838.97
3838.97
3838.97
3838.97
3838.95
3838.95
3838.95
3838.95
3838.95
3838.95
3838.95
3838.96
3741.97
3741.97
3741.97
3741.97
3741.97
3741.97
3741.97
3741.98
3741.97
3741.97
3741.97
3741.97
3741.98
3741.98
3741.98
3741.98
3741.97
3741.97
3741.97
3741.97
3741.97
3741.97
3741.98
3741.98
3741.97
3741.97
3741.97
3741.98
3741.98
3741.98
3741.99
3741.99
3741.96
3741.96
3741.96
3741.96
3741.97
3741.97
3741.97
3741.97
3741.96
3741.96
3741.96
3741.96
3741.96
3741.96
3741.96
3741.97
3741.95
3741.95
3741.95
3741.95
3741.95
3741.95
3741.95
3741.95
3644.97
3644.96
3644.96
3644.97
3644.97
3644.97
3644.97
3644.97
3644.97
3644.97
3644.97
3644.97
3644.97
3644.97
3644.98
3644.98
3644.97
3644.97
3644.97
3644.97
3644.97
3644.97
3644.97
3644.98
3644.97
3644.97
3644.97
3644.97
3644.97
3644.98
3644.98
3644.98
3644.96
3644.96
3644.96
3644.96
3644.96
3644.96
3644.97
3644.97
3644.96
3644.96
3644.96
3644.96
3644.96
3644.96
3644.96
3644.96
3644.95
3644.95
3644.95
3644.95
3644.95
3644.95
3644.95
3644.95
3547.97
3547.96
3547.97
3547.97
3547.97
3547.97
3547.97
3547.97
3547.97
3547.97
3547.97
3547.97
3547.97
3547.97
3547.98
3547.98
3547.97
3547.97
3547.97
3547.97
3547.97
3547.97
3547.97
3547.98
3547.97
3547.97
3547.97
3547.97
3547.97
3547.97
3547.98
3547.98
3547.97
3547.97
3547.97
3547.96
3547.96
3547.96
3547.97
3547.97
3547.96
3547.96
3547.96
3547.96
3547.96
3547.96
3547.96
3547.96
3547.95
3547.95
3547.95
3547.95
3547.95
3547.95
3547.95
3547.95
3450.97
3450.97
3450.97
3450.97
3450.97
3450.97
3450.97
3450.97
3450.97
3450.97
3450.97
3450.97
3450.97
3450.97
3450.98
3450.98
3450.97
3450.97
3450.97
3450.97
3450.97
3450.97
3450.97
3450.97
3450.97
3450.97
3450.97
3450.97
3450.97
3450.97
3450.97
3450.98
3450.97
3450.97
3450.97
3450.96
3450.96
3450.96
3450.97
3450.97
3450.96
3450.96
3450.96
3450.96
3450.96
3450.96
3450.96
3450.96
3450.95
3450.95
3450.95
3450.95
3450.95
3450.95
3450.95
3450.95
3353.97
3353.97
3353.97
3353.97
3353.97
3353.97
3353.97
3353.97
3353.97
3353.97
3353.97
3353.97
3353.97
3353.97
3353.97
3353.97
3353.97
3353.97
3353.97
3353.97
3353.97
3353.97
3353.97
3353.97
3353.97
3353.97
3353.96
3353.96
3353.97
3353.97
3353.97
3353.97
3353.97
3353.97
3353.96
3353.96
3353.96
3353.96
3353.96
3353.96
3353.96
3353.96
3353.96
3353.96
3353.96
3353.96
3353.96
3353.96
3353.96
3353.95
3353.95
3353.95
3353.95
3353.95
3353.95
3353.95
3256.97
3256.97
3256.96
3256.96
3256.96
3256.96
3256.96
3256.96
3256.97
3256.97
3256.96
3256.96
3256.96
3256.96
3256.96
3256.97
3256.97
3256.96
3256.96
3256.96
3256.96
3256.96
3256.96
3256.96
3256.97
3256.96
3256.96
3256.96
3256.96
3256.96
3256.96
3256.96
3256.96
3256.96
3256.95
3256.95
3256.95
3256.96
3256.96
3256.96
3256.96
3256.95
3256.95
3256.95
3256.95
3256.95
3256.95
3256.95
3256.95
3256.95
3256.94
3256.94
3256.94
3256.94
3256.94
3256.94
3159.96
3159.96
3159.95
3159.95
3159.95
3159.95
3159.95
3159.95
3159.96
3159.96
3159.96
3159.95
3159.95
3159.95
3159.95
3159.95
3159.96
3159.95
3159.95
3159.95
3159.95
3159.95
3159.95
3159.95
3159.96
3159.95
3159.95
3159.95
3159.95
3159.95
3159.95
3159.95
3159.95
3159.94
3159.94
3159.94
3159.94
3159.94
3159.94
3159.94
3159.95
3159.94
3159.94
3159.94
3159.94
3159.94
3159.94
3159.94
3159.94
3159.94
3159.94
3159.93
3159.93
3159.93
3159.93
3159.93
3062.95
3062.94
3062.94
3062.94
3062.94
3062.93
3062.93
3062.93
3062.95
3062.94
3062.94
3062.94
3062.94
3062.94
3062.94
3062.93
3062.94
3062.94
3062.94
3062.94
3062.94
3062.93
3062.93
3062.93
3062.94
3062.93
3062.93
3062.93
3062.93
3062.93
3062.93
3062.93
3062.94
3062.93
3062.93
3062.93
3062.93
3062.93
3062.93
3062.93
3062.93
3062.93
3062.92
3062.92
3062.92
3062.92
3062.92
3062.92
3062.93
3062.92
3062.92
3062.92
3062.92
3062.92
3062.92
3062.91
2965.93
2965.92
2965.92
2965.92
2965.92
2965.92
2965.91
2965.91
2965.93
2965.92
2965.92
2965.92
2965.92
2965.92
2965.92
2965.92
2965.93
2965.92
2965.92
2965.92
2965.92
2965.92
2965.92
2965.91
2965.92
2965.92
2965.91
2965.91
2965.91
2965.91
2965.91
2965.91
2965.92
2965.91
2965.91
2965.91
2965.91
2965.91
2965.91
2965.91
2965.91
2965.91
2965.91
2965.91
2965.9
2965.9
2965.9
2965.9
2965.91
2965.9
2965.9
2965.9
2965.9
2965.9
2965.9
2965.9
2868.91
2868.9
2868.9
2868.9
2868.9
2868.9
2868.9
2868.9
2868.91
2868.91
2868.9
2868.9
2868.9
2868.9
2868.9
2868.9
2868.91
2868.91
2868.9
2868.9
2868.9
2868.9
2868.9
2868.9
2868.91
2868.9
2868.9
2868.9
2868.9
2868.9
2868.9
2868.9
2868.9
2868.9
2868.89
2868.89
2868.89
2868.89
2868.89
2868.89
2868.9
2868.89
2868.89
2868.89
2868.89
2868.89
2868.89
2868.89
2868.89
2868.89
2868.88
2868.88
2868.88
2868.88
2868.88
2868.88
2771.9
2771.89
2771.89
2771.89
2771.89
2771.89
2771.89
2771.89
2771.9
2771.89
2771.89
2771.89
2771.89
2771.89
2771.89
2771.89
2771.9
2771.89
2771.89
2771.89
2771.89
2771.89
2771.89
2771.89
2771.89
2771.89
2771.89
2771.89
2771.89
2771.89
2771.89
2771.89
2771.89
2771.88
2771.88
2771.88
2771.88
2771.88
2771.88
2771.88
2771.88
2771.88
2771.88
2771.88
2771.88
2771.88
2771.88
2771.88
2771.88
2771.87
2771.87
2771.87
2771.87
2771.87
2771.87
2771.87
2674.89
2674.88
2674.88
2674.88
2674.88
2674.88
2674.88
2674.88
2674.89
2674.89
2674.89
2674.89
2674.89
2674.89
2674.89
2674.89
2674.89
2674.89
2674.89
2674.89
2674.89
2674.89
2674.89
2674.89
2674.89
2674.88
2674.88
2674.88
2674.88
2674.89
2674.89
2674.89
2674.88
2674.88
2674.88
2674.88
2674.88
2674.88
2674.88
2674.88
2674.88
2674.87
2674.87
2674.87
2674.87
2674.87
2674.87
2674.87
2674.87
2674.86
2674.86
2674.86
2674.86
2674.86
2674.86
2674.86
3935.84
3935.87
3935.86
3935.89
3935.89
3935.89
3935.91
3935.93
3935.88
3935.88
3935.88
3935.88
3935.89
3935.9
3935.9
3935.9
3935.88
3935.88
3935.88
3935.88
3935.88
3935.88
3935.88
3935.88
3838.93
3838.94
3838.94
3838.94
3838.94
3838.94
3838.94
3838.94
3838.91
3838.92
3838.92
3838.93
3838.93
3838.93
3838.93
3838.93
3838.89
3838.89
3838.89
3838.9
3838.91
3838.91
3838.91
3838.91
3838.9
3838.89
3838.89
3838.89
3838.9
3838.9
3838.9
3838.9
3838.89
3838.89
3838.89
3838.89
3838.9
3838.91
3838.91
3838.91
3838.88
3838.88
3838.88
3838.88
3838.88
3838.88
3838.88
3838.88
3838.88
3838.88
3838.88
3838.88
3838.88
3838.88
3838.88
3838.88
3741.94
3741.93
3741.94
3741.94
3741.94
3741.94
3741.94
3741.94
3741.92
3741.92
3741.92
3741.92
3741.92
3741.92
3741.92
3741.92
3741.91
3741.91
3741.91
3741.91
3741.91
3741.91
3741.91
3741.91
3741.9
3741.9
3741.9
3741.9
3741.9
3741.9
3741.9
3741.9
3741.89
3741.89
3741.89
3741.89
3741.89
3741.89
3741.89
3741.89
3741.89
3741.88
3741.88
3741.88
3741.88
3741.88
3741.88
3741.88
3741.88
3741.88
3741.88
3741.88
3741.88
3741.88
3741.88
3741.87
3644.94
3644.94
3644.94
3644.94
3644.94
3644.94
3644.94
3644.94
3644.93
3644.93
3644.93
3644.93
3644.92
3644.92
3644.92
3644.93
3644.92
3644.92
3644.92
3644.91
3644.91
3644.91
3644.91
3644.91
3644.91
3644.91
3644.9
3644.9
3644.9
3644.9
3644.9
3644.9
3644.9
3644.9
3644.9
3644.9
3644.89
3644.89
3644.89
3644.89
3644.89
3644.89
3644.89
3644.89
3644.89
3644.89
3644.88
3644.88
3644.89
3644.88
3644.88
3644.88
3644.88
3644.88
3644.88
3644.88
3547.94
3547.94
3547.94
3547.94
3547.94
3547.94
3547.94
3547.94
3547.93
3547.93
3547.93
3547.93
3547.93
3547.93
3547.93
3547.93
3547.92
3547.92
3547.92
3547.92
3547.92
3547.92
3547.92
3547.92
3547.91
3547.91
3547.91
3547.91
3547.91
3547.91
3547.91
3547.91
3547.91
3547.9
3547.9
3547.9
3547.9
3547.9
3547.9
3547.9
3547.9
3547.9
3547.89
3547.89
3547.89
3547.89
3547.89
3547.89
3547.89
3547.89
3547.89
3547.89
3547.89
3547.89
3547.88
3547.88
3450.94
3450.94
3450.94
3450.94
3450.94
3450.94
3450.94
3450.94
3450.93
3450.93
3450.93
3450.93
3450.93
3450.93
3450.93
3450.93
3450.93
3450.92
3450.92
3450.92
3450.92
3450.92
3450.92
3450.92
3450.92
3450.92
3450.92
3450.91
3450.91
3450.91
3450.91
3450.91
3450.91
3450.91
3450.91
3450.91
3450.91
3450.9
3450.9
3450.9
3450.91
3450.9
3450.9
3450.9
3450.9
3450.9
3450.9
3450.9
3450.9
3450.9
3450.9
3450.89
3450.89
3450.89
3450.89
3450.89
3353.95
3353.95
3353.94
3353.94
3353.94
3353.94
3353.94
3353.94
3353.94
3353.94
3353.93
3353.93
3353.93
3353.93
3353.93
3353.93
3353.93
3353.93
3353.93
3353.92
3353.92
3353.92
3353.92
3353.92
3353.92
3353.92
3353.92
3353.92
3353.92
3353.91
3353.91
3353.91
3353.92
3353.92
3353.91
3353.91
3353.91
3353.91
3353.91
3353.91
3353.91
3353.91
3353.91
3353.9
3353.9
3353.9
3353.9
3353.9
3353.91
3353.9
3353.9
3353.9
3353.9
3353.9
3353.89
3353.89
3256.94
3256.94
3256.94
3256.94
3256.94
3256.94
3256.93
3256.93
3256.94
3256.93
3256.93
3256.93
3256.93
3256.93
3256.93
3256.92
3256.93
3256.93
3256.92
3256.92
3256.92
3256.92
3256.92
3256.92
3256.92
3256.92
3256.92
3256.91
3256.91
3256.91
3256.91
3256.91
3256.92
3256.91
3256.91
3256.91
3256.91
3256.91
3256.9
3256.9
3256.91
3256.91
3256.91
3256.9
3256.9
3256.9
3256.9
3256.9
3256.91
3256.9
3256.9
3256.9
3256.9
3256.9
3256.89
3256.89
3159.94
3159.93
3159.93
3159.93
3159.93
3159.93
3159.92
3159.92
3159.93
3159.93
3159.92
3159.92
3159.92
3159.92
3159.92
3159.92
3159.92
3159.92
3159.91
3159.91
3159.91
3159.91
3159.91
3159.91
3159.92
3159.91
3159.91
3159.91
3159.9
3159.9
3159.9
3159.9
3159.91
3159.91
3159.9
3159.9
3159.9
3159.9
3159.9
3159.9
3159.9
3159.9
3159.9
3159.9
3159.89
3159.89
3159.89
3159.89
3159.9
3159.9
3159.89
3159.89
3159.89
3159.89
3159.89
3159.89
3062.92
3062.92
3062.92
3062.91
3062.91
3062.91
3062.91
3062.91
3062.92
3062.91
3062.91
3062.91
3062.91
3062.9
3062.9
3062.9
3062.91
3062.9
3062.9
3062.9
3062.9
3062.9
3062.89
3062.89
3062.9
3062.9
3062.89
3062.89
3062.89
3062.89
3062.89
3062.89
3062.9
3062.89
3062.89
3062.89
3062.89
3062.88
3062.88
3062.88
3062.89
3062.89
3062.88
3062.88
3062.88
3062.88
3062.88
3062.88
3062.89
3062.88
3062.88
3062.88
3062.88
3062.87
3062.87
3062.87
2965.9
2965.9
2965.9
2965.89
2965.89
2965.89
2965.89
2965.89
2965.9
2965.89
2965.89
2965.89
2965.89
2965.89
2965.88
2965.88
2965.89
2965.88
2965.88
2965.88
2965.88
2965.88
2965.88
2965.88
2965.88
2965.88
2965.88
2965.88
2965.87
2965.87
2965.87
2965.87
2965.88
2965.87
2965.87
2965.87
2965.87
2965.87
2965.86
2965.86
2965.87
2965.87
2965.87
2965.86
2965.86
2965.86
2965.86
2965.86
2965.87
2965.87
2965.86
2965.86
2965.86
2965.86
2965.85
2965.85
2868.88
2868.88
2868.88
2868.88
2868.88
2868.87
2868.87
2868.87
2868.88
2868.87
2868.87
2868.87
2868.87
2868.87
2868.87
2868.86
2868.87
2868.86
2868.86
2868.86
2868.86
2868.86
2868.86
2868.86
2868.86
2868.86
2868.86
2868.86
2868.85
2868.85
2868.85
2868.85
2868.86
2868.85
2868.85
2868.85
2868.85
2868.85
2868.84
2868.84
2868.85
2868.85
2868.85
2868.84
2868.84
2868.84
2868.84
2868.84
2868.85
2868.85
2868.84
2868.84
2868.84
2868.84
2868.83
2868.83
2771.87
2771.86
2771.86
2771.86
2771.86
2771.86
2771.86
2771.86
2771.86
2771.86
2771.85
2771.85
2771.85
2771.85
2771.85
2771.85
2771.85
2771.85
2771.85
2771.84
2771.84
2771.84
2771.84
2771.84
2771.85
2771.84
2771.84
2771.84
2771.84
2771.84
2771.84
2771.83
2771.84
2771.83
2771.83
2771.83
2771.83
2771.83
2771.83
2771.83
2771.83
2771.83
2771.83
2771.83
2771.82
2771.82
2771.82
2771.82
2771.83
2771.83
2771.82
2771.82
2771.82
2771.82
2771.81
2771.81
2674.86
2674.85
2674.85
2674.85
2674.85
2674.85
2674.85
2674.85
2674.85
2674.84
2674.84
2674.84
2674.84
2674.84
2674.84
2674.84
2674.84
2674.83
2674.83
2674.83
2674.83
2674.83
2674.83
2674.83
2674.83
2674.83
2674.83
2674.83
2674.82
2674.82
2674.82
2674.82
2674.82
2674.82
2674.82
2674.82
2674.82
2674.82
2674.81
2674.81
2674.82
2674.81
2674.81
2674.81
2674.81
2674.81
2674.81
2674.8
2674.81
2674.81
2674.81
2674.8
2674.8
2674.8
2674.8
2674.8
3935.92
3935.92
3935.92
3935.92
3935.92
3935.92
3935.92
3935.93
3935.94
3935.93
3935.93
3935.94
3935.94
3935.94
3935.94
3935.95
3935.95
3935.95
3935.95
3935.95
3935.95
3935.95
3935.96
3935.96
3935.96
3935.96
3935.96
3935.97
3935.97
3935.98
3935.98
3935.99
3935.97
3935.97
3935.97
3935.97
3935.97
3935.97
3935.98
3935.98
3935.98
3935.98
3935.98
3935.98
3935.98
3935.99
3935.99
3935.99
3935.98
3935.98
3935.98
3935.98
3935.99
3935.99
3935.99
3935.99
3838.92
3838.91
3838.91
3838.91
3838.91
3838.91
3838.92
3838.92
3838.93
3838.93
3838.93
3838.93
3838.93
3838.93
3838.93
3838.93
3838.94
3838.94
3838.94
3838.94
3838.94
3838.94
3838.94
3838.94
3838.95
3838.95
3838.95
3838.95
3838.96
3838.96
3838.96
3838.97
3838.96
3838.96
3838.96
3838.96
3838.96
3838.96
3838.96
3838.96
3838.97
3838.96
3838.96
3838.97
3838.97
3838.97
3838.97
3838.98
3838.97
3838.97
3838.97
3838.97
3838.97
3838.97
3838.98
3838.98
3741.92
3741.91
3741.91
3741.91
3741.91
3741.91
3741.91
3741.91
3741.93
3741.93
3741.93
3741.92
3741.93
3741.93
3741.93
3741.93
3741.94
3741.94
3741.94
3741.94
3741.94
3741.94
3741.94
3741.94
3741.95
3741.95
3741.95
3741.95
3741.95
3741.95
3741.95
3741.96
3741.95
3741.95
3741.95
3741.95
3741.95
3741.95
3741.96
3741.96
3741.96
3741.96
3741.96
3741.96
3741.96
3741.96
3741.96
3741.97
3741.96
3741.96
3741.96
3741.96
3741.97
3741.97
3741.97
3741.97
3644.92
3644.91
3644.91
3644.91
3644.91
3644.91
3644.91
3644.91
3644.93
3644.93
3644.92
3644.92
3644.92
3644.92
3644.93
3644.93
3644.94
3644.94
3644.94
3644.93
3644.94
3644.94
3644.94
3644.94
3644.95
3644.95
3644.95
3644.95
3644.95
3644.95
3644.95
3644.95
3644.95
3644.95
3644.95
3644.95
3644.95
3644.95
3644.95
3644.95
3644.96
3644.96
3644.96
3644.96
3644.96
3644.96
3644.96
3644.96
3644.96
3644.96
3644.96
3644.96
3644.96
3644.97
3644.97
3644.97
3547.92
3547.92
3547.92
3547.91
3547.91
3547.91
3547.91
3547.91
3547.93
3547.93
3547.93
3547.93
3547.93
3547.93
3547.93
3547.93
3547.94
3547.94
3547.94
3547.94
3547.94
3547.94
3547.94
3547.94
3547.95
3547.95
3547.95
3547.95
3547.95
3547.95
3547.95
3547.95
3547.96
3547.95
3547.95
3547.95
3547.95
3547.95
3547.95
3547.96
3547.96
3547.96
3547.96
3547.96
3547.96
3547.96
3547.96
3547.96
3547.96
3547.96
3547.96
3547.96
3547.96
3547.97
3547.97
3547.97
3450.92
3450.92
3450.92
3450.92
3450.92
3450.92
3450.92
3450.92
3450.93
3450.93
3450.93
3450.93
3450.93
3450.93
3450.93
3450.93
3450.94
3450.94
3450.94
3450.94
3450.94
3450.94
3450.94
3450.94
3450.95
3450.95
3450.95
3450.95
3450.95
3450.95
3450.95
3450.95
3450.96
3450.96
3450.96
3450.96
3450.96
3450.96
3450.96
3450.96
3450.97
3450.96
3450.96
3450.96
3450.96
3450.96
3450.96
3450.96
3450.97
3450.97
3450.97
3450.97
3450.97
3450.97
3450.97
3450.97
3353.92
3353.92
3353.92
3353.92
3353.92
3353.92
3353.92
3353.92
3353.93
3353.93
3353.93
3353.93
3353.93
3353.93
3353.93
3353.93
3353.94
3353.94
3353.94
3353.94
3353.94
3353.94
3353.94
3353.94
3353.95
3353.95
3353.95
3353.95
3353.95
3353.95
3353.95
3353.95
3353.96
3353.96
3353.96
3353.95
3353.95
3353.95
3353.95
3353.96
3353.97
3353.96
3353.96
3353.96
3353.96
3353.96
3353.96
3353.96
3353.97
3353.97
3353.97
3353.97
3353.97
3353.97
3353.97
3353.97
3256.92
3256.92
3256.92
3256.92
3256.92
3256.91
3256.91
3256.92
3256.93
3256.93
3256.92
3256.92
3256.92
3256.92
3256.92
3256.92
3256.94
3256.94
3256.93
3256.93
3256.93
3256.93
3256.93
3256.93
3256.95
3256.94
3256.94
3256.94
3256.94
3256.94
3256.94
3256.94
3256.96
3256.95
3256.95
3256.95
3256.95
3256.95
3256.95
3256.95
3256.96
3256.96
3256.96
3256.96
3256.96
3256.96
3256.96
3256.96
3256.97
3256.97
3256.96
3256.96
3256.96
3256.96
3256.96
3256.96
3159.92
3159.91
3159.91
3159.91
3159.91
3159.91
3159.91
3159.91
3159.92
3159.92
3159.92
3159.92
3159.91
3159.91
3159.91
3159.91
3159.93
3159.93
3159.92
3159.92
3159.92
3159.92
3159.92
3159.92
3159.94
3159.94
3159.93
3159.93
3159.93
3159.93
3159.93
3159.93
3159.95
3159.94
3159.94
3159.94
3159.94
3159.94
3159.94
3159.94
3159.95
3159.95
3159.95
3159.94
3159.94
3159.94
3159.94
3159.94
3159.96
3159.96
3159.95
3159.95
3159.95
3159.95
3159.95
3159.95
3062.9
3062.9
3062.9
3062.9
3062.89
3062.89
3062.89
3062.89
3062.91
3062.91
3062.9
3062.9
3062.9
3062.9
3062.9
3062.9
3062.92
3062.91
3062.91
3062.91
3062.91
3062.91
3062.9
3062.9
3062.93
3062.92
3062.92
3062.92
3062.91
3062.91
3062.91
3062.91
3062.93
3062.93
3062.92
3062.92
3062.92
3062.92
3062.92
3062.92
3062.94
3062.93
3062.93
3062.93
3062.93
3062.93
3062.92
3062.92
3062.95
3062.94
3062.94
3062.93
3062.93
3062.93
3062.93
3062.93
2965.89
2965.88
2965.88
2965.88
2965.88
2965.87
2965.87
2965.87
2965.89
2965.89
2965.89
2965.88
2965.88
2965.88
2965.88
2965.88
2965.9
2965.89
2965.89
2965.89
2965.89
2965.89
2965.89
2965.88
2965.91
2965.9
2965.9
2965.9
2965.9
2965.89
2965.89
2965.89
2965.91
2965.91
2965.91
2965.9
2965.9
2965.9
2965.9
2965.9
2965.92
2965.91
2965.91
2965.91
2965.91
2965.91
2965.9
2965.9
2965.92
2965.92
2965.92
2965.91
2965.91
2965.91
2965.91
2965.91
2868.87
2868.86
2868.86
2868.86
2868.86
2868.86
2868.85
2868.85
2868.87
2868.87
2868.87
2868.87
2868.86
2868.86
2868.86
2868.86
2868.88
2868.88
2868.87
2868.87
2868.87
2868.87
2868.87
2868.87
2868.89
2868.88
2868.88
2868.88
2868.88
2868.88
2868.88
2868.87
2868.89
2868.89
2868.89
2868.88
2868.88
2868.88
2868.88
2868.88
2868.9
2868.89
2868.89
2868.89
2868.89
2868.89
2868.89
2868.89
2868.9
2868.9
2868.9
2868.9
2868.89
2868.89
2868.89
2868.89
2771.85
2771.85
2771.84
2771.84
2771.84
2771.84
2771.84
2771.83
2771.86
2771.85
2771.85
2771.85
2771.85
2771.85
2771.84
2771.84
2771.86
2771.86
2771.86
2771.86
2771.86
2771.85
2771.85
2771.85
2771.87
2771.87
2771.86
2771.86
2771.86
2771.86
2771.86
2771.86
2771.88
2771.87
2771.87
2771.87
2771.87
2771.87
2771.87
2771.87
2771.88
2771.88
2771.88
2771.88
2771.88
2771.88
2771.88
2771.88
2771.89
2771.88
2771.88
2771.88
2771.88
2771.88
2771.88
2771.88
2674.83
2674.83
2674.83
2674.83
2674.83
2674.83
2674.82
2674.82
2674.84
2674.84
2674.84
2674.84
2674.84
2674.83
2674.83
2674.83
2674.85
2674.85
2674.85
2674.85
2674.85
2674.85
2674.85
2674.84
2674.86
2674.86
2674.86
2674.86
2674.86
2674.86
2674.86
2674.86
2674.87
2674.87
2674.86
2674.86
2674.87
2674.87
2674.87
2674.87
2674.88
2674.87
2674.87
2674.87
2674.87
2674.87
2674.87
2674.87
2674.88
2674.88
2674.88
2674.88
2674.88
2674.88
2674.88
2674.88
3800.96
3794.74
3793.48
3796.84
3804.39
3813.39
3821.71
3781.29
3765.71
3760.6
3768.38
3785.71
3802.45
3814.78
3754.51
3735.57
3724.84
3742.64
3761.49
3789.88
3808.32
3731.67
3695.77
3695.83
3711.81
3742.97
3781.58
3804.41
3731.02
3693.97
3698.28
3708.19
3741.08
3780.67
3803.81
3751.65
3730.93
3710.5
3739.01
3757.48
3787.41
3806.74
3777.46
3760.13
3752.94
3762.63
3781.35
3799.32
3812.7
3673.97
3659.36
3651.6
3658.31
3673.13
3689.54
3705.18
3645.27
3629.18
3624.88
3629.05
3643.01
3668.26
3691.53
3628.04
3624.84
3623.6
3626.86
3627.72
3646.21
3678.58
3626.66
3626.27
3629.93
3627.75
3624.67
3633.29
3669.51
3627.71
3629.36
3630.56
3631.44
3625.72
3634.04
3670.47
3630.69
3628.49
3630.66
3631.12
3630.84
3649.25
3680.09
3647.9
3631.86
3628.13
3632.41
3645.83
3669.91
3692.28
3624.68
3618.96
3614.35
3618.06
3623.14
3629.43
3636.28
3618.11
3613.93
3609.68
3612.75
3615.47
3621.67
3630.27
3619.17
3618.24
3616.02
3616.22
3615.19
3615.78
3625.01
3622.18
3620.32
3624.48
3618.16
3617.15
3611.61
3621.34
3623.13
3620.76
3623.41
3619.94
3618.92
3613.41
3622.31
3620.5
3619.67
3618.75
3618.77
3617.86
3618.15
3626.35
3620.04
3617.02
3614.91
3616.87
3618.44
3623.72
3631.51
3592.17
3595.39
3596.05
3593.88
3590.37
3586.39
3582.89
3600.59
3611.33
3612.91
3609.3
3598.89
3590.98
3585.71
3616.1
3629.38
3623.81
3626.09
3613.21
3596.42
3588.34
3623.46
3625.04
3614.84
3623.84
3620.19
3600.86
3589.87
3623.75
3624.94
3613.63
3623.47
3619.62
3600.58
3590.04
3617.43
3630.81
3621.81
3626.2
3613.33
3596.82
3588.99
3601.94
3613.15
3614.86
3610.07
3599.28
3591.72
3586.54
3531.53
3537.54
3540.38
3535.72
3529.27
3521.5
3513.9
3542.95
3555.24
3566.04
3551.74
3540.78
3530.26
3520.26
3558.78
3595.42
3621.45
3587.77
3555.49
3538.39
3526.03
3583.14
3637.64
3635.8
3630.17
3575.21
3544.64
3530.04
3583.09
3639.9
3637.18
3627.2
3573.8
3544.58
3530.16
3560.66
3600.62
3629.29
3589.66
3556.05
3539.06
3526.79
3544.64
3556.74
3568.66
3552.06
3541.28
3531.04
3521.18
3438.84
3443.84
3446.3
3442.89
3437.31
3430.48
3423.44
3447.77
3454.6
3459.78
3453.5
3446.67
3438.2
3429.31
3455.14
3468.7
3486.27
3464.94
3454.53
3444.91
3434.45
3462.36
3503.09
3576.07
3490.13
3462.46
3449.71
3437.99
3461.41
3502.36
3579.28
3489.17
3462.76
3449.84
3438.09
3455.12
3468.23
3490.03
3466.78
3455.55
3445.54
3435
3448.77
3454.11
3458.53
3453.57
3447.29
3438.93
3430.04
3325.43
3328.72
3330.21
3328.63
3325.32
3320.93
3316.37
3331.59
3334.48
3336.84
3335.57
3331.74
3326.02
3320.14
3334.63
3329.85
3334.01
3336.84
3336.62
3330.39
3323.36
3336.23
3325.7
3329.56
3333.66
3338.21
3333.18
3325.42
3338.65
3326.32
3329.5
3334.03
3338.18
3333.06
3325.38
3336.08
3331.08
3332.44
3335.19
3336.3
3330.33
3323.28
3332.6
3334.94
3336.57
3335.19
3331.66
3325.95
3320.04
3191.18
3190.84
3191.61
3192.55
3194.1
3195.5
3196.57
3185.21
3180.95
3181.36
3185.32
3190.49
3193.88
3195.74
3176.05
3172.13
3170.97
3175
3183.94
3191.71
3194.85
3169.36
3166.14
3165.11
3167.92
3177.83
3189.81
3194.23
3165.08
3171.41
3168.29
3163.48
3175.78
3188.88
3193.72
3170.08
3163.82
3157.24
3164.53
3178.03
3189.11
3193.39
3179.44
3173.41
3172.05
3176.79
3185.13
3190.82
3193.78
3061.91
3057.13
3056.41
3060.07
3066.66
3073.79
3080.34
3050.15
3045.83
3044.72
3046.87
3054.97
3065.84
3075.08
3043.69
3048.42
3046.92
3041.54
3046.01
3057.9
3070.3
3046.1
3038.04
3035.73
3043.61
3043.67
3052.84
3067.12
3045.37
3036.31
3043.33
3044.69
3043.41
3052.33
3066.65
3043.36
3045.45
3043.06
3044.4
3045.79
3056.34
3068.85
3046.8
3043.61
3043.85
3045.04
3051.78
3063.04
3072.95
2974.29
2970.28
2969.3
2972.5
2977
2982.13
2987.34
2968.82
2967.3
2966.95
2967.58
2970.56
2976.63
2983.22
2969.43
2967.68
2967.91
2969.61
2968.62
2972.06
2979.74
2967.79
2967.25
2965.69
2968.41
2969.64
2969.2
2977.44
2968.61
2964.29
2969.15
2969.82
2970.39
2969.06
2977.3
2970.6
2971.84
2974.14
2972.38
2971.7
2972.21
2979.36
2971.88
2974.15
2975.04
2972.69
2972.17
2976.4
2982.59
2914.07
2914.18
2913.85
2913.59
2912.28
2911.46
2911.11
2919.31
2921.61
2921.77
2920.51
2915.2
2912.37
2911.37
2928.6
2929.16
2929.6
2931.57
2921.47
2914.08
2911.79
2928.97
2925.55
2927.38
2929.87
2923.68
2914.88
2911.91
2928.57
2926.66
2928.25
2929.16
2924.27
2915.07
2912.05
2929.32
2928.57
2928.86
2930.17
2923.04
2914.95
2912.31
2924.47
2928.25
2930.2
2925.85
2917.89
2913.59
2912.19
2842.88
2844.96
2844.78
2842.23
2838.63
2834.73
2831.07
2851.07
2857.56
2858.12
2851.14
2844.45
2838.98
2834.13
2866.77
2880.16
2879.4
2868.22
2852.39
2843.18
2836.92
2884
2887.72
2883.59
2880.91
2860.05
2846.21
2838.84
2889.1
2889.33
2883.88
2884.41
2861.94
2846.9
2839.27
2877.05
2886.14
2883.66
2877.66
2856.8
2844.99
2838.22
2856.93
2865.73
2866.58
2857.66
2847.67
2841.06
2835.78
2747.87
2750.2
2750.38
2748.01
2744.8
2741.17
2737.53
2752.75
2756.83
2757.79
2753.28
2749.41
2745.03
2740.47
2757.16
2764.14
2765.65
2758.2
2753.34
2748.46
2743.08
2767.78
2792.65
2794.42
2766.74
2757.61
2751.03
2744.91
2772.13
2801.95
2799.98