/*--------------------------------*- C++ -*----------------------------------*\
| =========                 |                                                 |
| \\      /  F ield         | OpenFOAM: The Open Source CFD Toolbox           |
|  \\    /   O peration     | Version:  plus.master                           |
|   \\  /    A nd           | Web:      www.OpenFOAM.com                      |
|    \\/     M anipulation  |                                                 |
\*---------------------------------------------------------------------------*/
FoamFile
{
    version     2.0;
    format      ascii;
    class       volScalarField;
    location    "1";
    object      nut;
}
// * * * * * * * * * * * * * * * * * * * * * * * * * * * * * * * * * * * * * //

dimensions      [0 2 -1 0 0 0 0];

internalField   nonuniform List<scalar> 
47285
(
5.94073e-05
7.0956e-05
7.60527e-05
7.70285e-05
7.59867e-05
7.09415e-05
5.93436e-05
7.08858e-05
5.44768e-05
5.91731e-05
6.01795e-05
5.92348e-05
5.44459e-05
7.09407e-05
7.59231e-05
5.91654e-05
6.39345e-05
6.51461e-05
6.40047e-05
5.91825e-05
7.60083e-05
7.6932e-05
6.01395e-05
6.51505e-05
6.64299e-05
6.51996e-05
6.02683e-05
7.72244e-05
7.57526e-05
5.91113e-05
6.40521e-05
6.53375e-05
6.41359e-05
5.93024e-05
7.60425e-05
7.08647e-05
5.43896e-05
5.91756e-05
6.03796e-05
5.93479e-05
5.46356e-05
7.1166e-05
5.94222e-05
7.08048e-05
7.60635e-05
7.73064e-05
7.62259e-05
7.11091e-05
5.96406e-05
7.40116e-05
6.83112e-05
6.57029e-05
6.51523e-05
6.57236e-05
6.83441e-05
7.40754e-05
6.8271e-05
5.35584e-05
4.75629e-05
4.64157e-05
4.75632e-05
5.35277e-05
6.83609e-05
6.56168e-05
4.75177e-05
3.95982e-05
3.80012e-05
3.93877e-05
4.74433e-05
6.57281e-05
6.49872e-05
4.62703e-05
3.79258e-05
3.59915e-05
3.79716e-05
4.61919e-05
6.51081e-05
6.54177e-05
4.7386e-05
3.93356e-05
3.78718e-05
3.93884e-05
4.7298e-05
6.56293e-05
6.7972e-05
5.32141e-05
4.73157e-05
4.59047e-05
4.72492e-05
5.32281e-05
6.82387e-05
7.38092e-05
6.80818e-05
6.55552e-05
6.4945e-05
6.55328e-05
6.8223e-05
7.40469e-05
8.59494e-05
8.35593e-05
8.14361e-05
8.06344e-05
8.14203e-05
8.35584e-05
8.5973e-05
8.35432e-05
7.8717e-05
7.43145e-05
7.26745e-05
7.42305e-05
7.86865e-05
8.35815e-05
8.13495e-05
7.41612e-05
6.7789e-05
6.55633e-05
6.76672e-05
7.41461e-05
8.14074e-05
8.04956e-05
7.24398e-05
6.54702e-05
6.29565e-05
6.56136e-05
7.25804e-05
8.06135e-05
8.12941e-05
7.40574e-05
6.7612e-05
6.55384e-05
6.78072e-05
7.4228e-05
8.14369e-05
8.34474e-05
7.85374e-05
7.4033e-05
7.23966e-05
7.41725e-05
7.87088e-05
8.3593e-05
8.58863e-05
8.34744e-05
8.13193e-05
8.05237e-05
8.13945e-05
8.35837e-05
8.59944e-05
8.87447e-05
8.84775e-05
8.81374e-05
8.79864e-05
8.81365e-05
8.84793e-05
8.87506e-05
8.84739e-05
8.77439e-05
8.69222e-05
8.65631e-05
8.69162e-05
8.77453e-05
8.84819e-05
8.81243e-05
8.69042e-05
8.55546e-05
8.49696e-05
8.55478e-05
8.6909e-05
8.81367e-05
8.79631e-05
8.65264e-05
8.49469e-05
8.42655e-05
8.49633e-05
8.65486e-05
8.79843e-05
8.81094e-05
8.68752e-05
8.55129e-05
8.49416e-05
8.55425e-05
8.69111e-05
8.81376e-05
8.84552e-05
8.77107e-05
8.68753e-05
8.65209e-05
8.68996e-05
8.77438e-05
8.84816e-05
8.87331e-05
8.84593e-05
8.81148e-05
8.79669e-05
8.81281e-05
8.84786e-05
8.87512e-05
8.59831e-05
8.7067e-05
8.76156e-05
8.77827e-05
8.76158e-05
8.70671e-05
8.59841e-05
8.70669e-05
8.79204e-05
8.83383e-05
8.84592e-05
8.83381e-05
8.79201e-05
8.70668e-05
8.76148e-05
8.83371e-05
8.86573e-05
8.87408e-05
8.86572e-05
8.83368e-05
8.76145e-05
8.7781e-05
8.84564e-05
8.87387e-05
8.88072e-05
8.87395e-05
8.8457e-05
8.7781e-05
8.76138e-05
8.83345e-05
8.86536e-05
8.87374e-05
8.86551e-05
8.83357e-05
8.76139e-05
8.70656e-05
8.79171e-05
8.83335e-05
8.84545e-05
8.83347e-05
8.79178e-05
8.7065e-05
8.59837e-05
8.70652e-05
8.76125e-05
8.77792e-05
8.76129e-05
8.70647e-05
8.59822e-05
5.11654e-05
4.54683e-05
4.15701e-05
3.93507e-05
3.83047e-05
3.77801e-05
3.74875e-05
3.73182e-05
5.87404e-05
5.05593e-05
4.50254e-05
4.12044e-05
3.91175e-05
3.82521e-05
3.77845e-05
3.75003e-05
6.30953e-05
5.40721e-05
4.76805e-05
4.28988e-05
3.995e-05
3.85718e-05
3.80221e-05
3.76651e-05
6.41947e-05
5.48492e-05
4.83918e-05
4.34877e-05
4.02586e-05
3.86639e-05
3.80758e-05
3.77191e-05
6.32489e-05
5.42127e-05
4.77336e-05
4.29758e-05
3.9997e-05
3.86105e-05
3.80449e-05
3.76734e-05
5.91153e-05
5.08205e-05
4.51504e-05
4.12957e-05
3.92093e-05
3.82933e-05
3.78055e-05
3.75084e-05
5.13887e-05
4.56715e-05
4.17343e-05
3.94403e-05
3.83552e-05
3.78093e-05
3.75018e-05
3.73252e-05
7.7761e-05
7.91441e-05
7.91513e-05
7.84154e-05
7.75919e-05
7.71856e-05
7.71701e-05
7.73927e-05
7.50979e-05
7.8185e-05
7.90226e-05
7.85277e-05
7.74369e-05
7.67411e-05
7.6633e-05
7.68976e-05
7.33922e-05
7.73954e-05
7.88139e-05
7.85127e-05
7.73836e-05
7.63437e-05
7.61006e-05
7.63908e-05
7.29349e-05
7.71517e-05
7.87454e-05
7.84993e-05
7.7389e-05
7.62053e-05
7.58985e-05
7.61931e-05
7.33245e-05
7.73427e-05
7.87552e-05
7.84428e-05
7.73128e-05
7.63073e-05
7.60879e-05
7.63885e-05
7.50047e-05
7.80933e-05
7.89269e-05
7.8435e-05
7.7353e-05
7.66929e-05
7.66088e-05
7.68849e-05
7.7768e-05
7.91527e-05
7.91577e-05
7.84099e-05
7.7576e-05
7.71658e-05
7.71491e-05
7.73715e-05
8.74343e-05
8.80856e-05
8.83372e-05
8.83731e-05
8.83135e-05
8.82562e-05
8.82316e-05
8.82466e-05
8.64011e-05
8.76805e-05
8.81965e-05
8.83223e-05
8.82564e-05
8.81736e-05
8.81377e-05
8.81575e-05
8.54436e-05
8.72922e-05
8.80556e-05
8.8259e-05
8.81953e-05
8.80849e-05
8.8036e-05
8.80615e-05
8.50734e-05
8.71403e-05
8.79998e-05
8.82329e-05
8.81707e-05
8.80489e-05
8.79943e-05
8.80222e-05
8.54511e-05
8.72859e-05
8.80458e-05
8.82494e-05
8.81862e-05
8.80791e-05
8.80328e-05
8.80598e-05
8.64031e-05
8.76725e-05
8.81849e-05
8.8311e-05
8.82456e-05
8.81658e-05
8.81323e-05
8.81537e-05
8.74469e-05
8.80929e-05
8.83407e-05
8.83734e-05
8.83114e-05
8.82528e-05
8.82275e-05
8.82423e-05
8.87619e-05
8.8565e-05
8.81785e-05
8.76393e-05
8.69906e-05
8.62879e-05
8.56104e-05
8.50809e-05
8.8781e-05
8.87323e-05
8.84224e-05
8.79048e-05
8.72319e-05
8.64689e-05
8.57079e-05
8.50974e-05
8.86944e-05
8.8787e-05
8.85529e-05
8.80647e-05
8.73849e-05
8.65871e-05
8.57728e-05
8.51082e-05
8.86463e-05
8.87964e-05
8.85933e-05
8.81178e-05
8.74372e-05
8.66281e-05
8.57955e-05
8.51119e-05
8.86949e-05
8.87869e-05
8.85523e-05
8.8064e-05
8.73842e-05
8.65866e-05
8.57723e-05
8.51077e-05
8.87804e-05
8.87315e-05
8.84213e-05
8.79036e-05
8.72307e-05
8.64678e-05
8.57069e-05
8.50966e-05
8.87621e-05
8.85646e-05
8.81779e-05
8.76384e-05
8.69895e-05
8.62868e-05
8.56095e-05
8.50801e-05
8.43736e-05
8.24552e-05
7.98586e-05
7.64421e-05
7.20102e-05
6.63135e-05
5.90827e-05
5.01624e-05
8.56949e-05
8.39189e-05
8.14756e-05
7.81778e-05
7.37841e-05
6.7978e-05
6.03925e-05
5.07654e-05
8.63871e-05
8.47406e-05
8.24122e-05
7.9206e-05
7.48576e-05
6.90074e-05
6.12215e-05
5.11581e-05
8.6606e-05
8.50069e-05
8.27203e-05
7.95477e-05
7.52175e-05
6.93559e-05
6.15054e-05
5.12944e-05
8.63868e-05
8.47407e-05
8.24127e-05
7.92071e-05
7.48591e-05
6.9009e-05
6.1223e-05
5.11589e-05
8.56936e-05
8.39184e-05
8.14758e-05
7.81787e-05
7.37854e-05
6.79795e-05
6.03937e-05
5.07661e-05
8.43722e-05
8.24539e-05
7.98576e-05
7.64414e-05
7.20095e-05
6.63128e-05
5.90818e-05
5.01616e-05
5.12378e-05
4.55472e-05
4.16813e-05
3.9411e-05
3.83584e-05
3.78087e-05
3.75003e-05
3.73237e-05
5.87929e-05
5.06741e-05
4.51237e-05
4.12808e-05
3.9209e-05
3.83071e-05
3.78099e-05
3.75099e-05
6.31605e-05
5.40516e-05
4.76185e-05
4.2991e-05
4.00458e-05
3.86411e-05
3.80652e-05
3.76814e-05
6.41635e-05
5.47761e-05
4.82648e-05
4.34124e-05
4.03083e-05
3.87451e-05
3.81188e-05
3.7736e-05
6.3011e-05
5.40028e-05
4.76182e-05
4.30137e-05
4.00161e-05
3.85867e-05
3.80434e-05
3.76736e-05
5.8825e-05
5.06736e-05
4.49762e-05
4.12255e-05
3.91753e-05
3.82824e-05
3.77999e-05
3.75051e-05
5.1221e-05
4.55092e-05
4.16062e-05
3.93802e-05
3.83313e-05
3.77914e-05
3.74916e-05
3.73193e-05
7.75433e-05
7.89504e-05
7.89901e-05
7.8273e-05
7.7495e-05
7.71293e-05
7.71411e-05
7.73797e-05
7.47522e-05
7.78711e-05
7.87374e-05
7.82844e-05
7.72431e-05
7.6636e-05
7.6591e-05
7.68902e-05
7.30921e-05
7.71403e-05
7.85827e-05
7.82951e-05
7.71871e-05
7.62378e-05
7.60646e-05
7.63921e-05
7.27428e-05
7.6985e-05
7.86084e-05
7.83659e-05
7.7259e-05
7.61369e-05
7.58761e-05
7.61964e-05
7.32373e-05
7.72514e-05
7.86803e-05
7.83889e-05
7.72844e-05
7.62913e-05
7.60846e-05
7.63946e-05
7.49559e-05
7.80285e-05
7.88601e-05
7.83801e-05
7.73141e-05
7.66765e-05
7.66101e-05
7.68975e-05
7.76866e-05
7.90533e-05
7.90545e-05
7.83291e-05
7.75381e-05
7.71593e-05
7.71618e-05
7.73944e-05
8.73586e-05
8.80257e-05
8.82921e-05
8.83385e-05
8.82897e-05
8.82413e-05
8.82231e-05
8.82421e-05
8.62865e-05
8.75831e-05
8.8121e-05
8.82654e-05
8.82149e-05
8.81489e-05
8.81255e-05
8.81531e-05
8.5333e-05
8.71984e-05
8.79796e-05
8.82004e-05
8.81507e-05
8.80588e-05
8.80242e-05
8.80585e-05
8.49775e-05
8.70646e-05
8.79427e-05
8.81888e-05
8.81377e-05
8.80299e-05
8.79861e-05
8.80208e-05
8.53774e-05
8.72316e-05
8.80069e-05
8.82225e-05
8.81691e-05
8.80699e-05
8.80295e-05
8.80603e-05
8.63488e-05
8.76276e-05
8.81538e-05
8.82896e-05
8.82322e-05
8.81594e-05
8.81311e-05
8.81557e-05
8.74031e-05
8.8056e-05
8.83134e-05
8.83542e-05
8.83012e-05
8.82493e-05
8.82285e-05
8.8246e-05
8.87491e-05
8.85563e-05
8.8173e-05
8.76362e-05
8.69893e-05
8.62879e-05
8.5611e-05
8.50815e-05
8.87624e-05
8.87191e-05
8.84138e-05
8.78998e-05
8.72298e-05
8.64688e-05
8.57088e-05
8.50983e-05
8.8674e-05
8.87722e-05
8.85432e-05
8.8059e-05
8.73825e-05
8.65871e-05
8.57739e-05
8.51092e-05
8.86289e-05
8.87835e-05
8.8585e-05
8.81131e-05
8.74353e-05
8.66283e-05
8.57967e-05
8.5113e-05
8.86824e-05
8.87775e-05
8.85464e-05
8.80608e-05
8.73833e-05
8.6587e-05
8.57735e-05
8.51088e-05
8.87726e-05
8.87255e-05
8.84175e-05
8.79017e-05
8.72302e-05
8.64683e-05
8.57079e-05
8.50975e-05
8.87576e-05
8.85611e-05
8.81756e-05
8.76373e-05
8.69894e-05
8.62874e-05
8.56104e-05
8.5081e-05
8.43759e-05
8.24595e-05
7.9865e-05
7.64506e-05
7.20202e-05
6.63244e-05
5.9093e-05
5.01697e-05
8.56975e-05
8.39242e-05
8.14842e-05
7.81901e-05
7.37992e-05
6.79949e-05
6.04089e-05
5.07769e-05
8.63896e-05
8.47458e-05
8.24208e-05
7.92187e-05
7.48736e-05
6.90255e-05
6.12395e-05
5.11707e-05
8.66083e-05
8.50114e-05
8.27274e-05
7.95581e-05
7.52307e-05
6.93711e-05
6.15207e-05
5.13054e-05
8.63892e-05
8.47442e-05
8.2418e-05
7.92146e-05
7.48684e-05
6.90199e-05
6.12342e-05
5.11672e-05
8.5696e-05
8.39212e-05
8.14795e-05
7.81838e-05
7.37918e-05
6.79869e-05
6.04016e-05
5.07721e-05
8.43748e-05
8.24563e-05
7.98604e-05
7.64449e-05
7.20138e-05
6.63179e-05
5.90872e-05
5.01659e-05
5.11566e-05
4.54562e-05
4.15818e-05
3.93626e-05
3.83211e-05
3.77841e-05
3.74871e-05
3.73167e-05
5.88277e-05
5.06866e-05
4.4999e-05
4.11641e-05
3.913e-05
3.8245e-05
3.77799e-05
3.74953e-05
6.33602e-05
5.40621e-05
4.75711e-05
4.2945e-05
3.99656e-05
3.85581e-05
3.80121e-05
3.76583e-05
6.40966e-05
5.48083e-05
4.82598e-05
4.34138e-05
4.02507e-05
3.86695e-05
3.80817e-05
3.77184e-05
6.30353e-05
5.39309e-05
4.75144e-05
4.29041e-05
3.99616e-05
3.85797e-05
3.80334e-05
3.76673e-05
5.88051e-05
5.05595e-05
4.4982e-05
4.11898e-05
3.91181e-05
3.82714e-05
3.77934e-05
3.75017e-05
5.11464e-05
4.54042e-05
4.15659e-05
3.93553e-05
3.83155e-05
3.77866e-05
3.74905e-05
3.73194e-05
7.77009e-05
7.90672e-05
7.90659e-05
7.83439e-05
7.75507e-05
7.71683e-05
7.71686e-05
7.73999e-05
7.49873e-05
7.80496e-05
7.88826e-05
7.84097e-05
7.73475e-05
7.67045e-05
7.66317e-05
7.69142e-05
7.33362e-05
7.73188e-05
7.87044e-05
7.84108e-05
7.73127e-05
7.63133e-05
7.61027e-05
7.64102e-05
7.29086e-05
7.7084e-05
7.86529e-05
7.84038e-05
7.72935e-05
7.61578e-05
7.58887e-05
7.62057e-05
7.33424e-05
7.73167e-05
7.87012e-05
7.83828e-05
7.72394e-05
7.6265e-05
7.60769e-05
7.6398e-05
7.50227e-05
7.80831e-05
7.88869e-05
7.83843e-05
7.73025e-05
7.66671e-05
7.66061e-05
7.68974e-05
7.77501e-05
7.91062e-05
7.9104e-05
7.83705e-05
7.75555e-05
7.7162e-05
7.71574e-05
7.73876e-05
8.74067e-05
8.80582e-05
8.83156e-05
8.83567e-05
8.83035e-05
8.82512e-05
8.82301e-05
8.82472e-05
8.63611e-05
8.76357e-05
8.81609e-05
8.82967e-05
8.82391e-05
8.81652e-05
8.81356e-05
8.81592e-05
8.54227e-05
8.72546e-05
8.80202e-05
8.82318e-05
8.8176e-05
8.80755e-05
8.80339e-05
8.80639e-05
8.50611e-05
8.71095e-05
8.79672e-05
8.82052e-05
8.8149e-05
8.80368e-05
8.79905e-05
8.80237e-05
8.54221e-05
8.72571e-05
8.80197e-05
8.82265e-05
8.81674e-05
8.80682e-05
8.80292e-05
8.80611e-05
8.63682e-05
8.76442e-05
8.81637e-05
8.82941e-05
8.82331e-05
8.81594e-05
8.81311e-05
8.8156e-05
8.74258e-05
8.8075e-05
8.83275e-05
8.83639e-05
8.83066e-05
8.82518e-05
8.82294e-05
8.82459e-05
8.87583e-05
8.85613e-05
8.81757e-05
8.76374e-05
8.69895e-05
8.62875e-05
8.56104e-05
8.5081e-05
8.87758e-05
8.87273e-05
8.84186e-05
8.79022e-05
8.72305e-05
8.64685e-05
8.5708e-05
8.50975e-05
8.86908e-05
8.87824e-05
8.85491e-05
8.80621e-05
8.73838e-05
8.65871e-05
8.57733e-05
8.51086e-05
8.86434e-05
8.87922e-05
8.85897e-05
8.81155e-05
8.74362e-05
8.66283e-05
8.57963e-05
8.51126e-05
8.86912e-05
8.87832e-05
8.85497e-05
8.80625e-05
8.73839e-05
8.65871e-05
8.57733e-05
8.51086e-05
8.87779e-05
8.87294e-05
8.84201e-05
8.79032e-05
8.72311e-05
8.64687e-05
8.5708e-05
8.50975e-05
8.87629e-05
8.85647e-05
8.81781e-05
8.7639e-05
8.69904e-05
8.62879e-05
8.56106e-05
8.50812e-05
8.43748e-05
8.24559e-05
7.98598e-05
7.64442e-05
7.20129e-05
6.63169e-05
5.90863e-05
5.01652e-05
8.56959e-05
8.39204e-05
8.14781e-05
7.81818e-05
7.37893e-05
6.79841e-05
6.03988e-05
5.07701e-05
8.63892e-05
8.47432e-05
8.2416e-05
7.92117e-05
7.48647e-05
6.90157e-05
6.123e-05
5.11642e-05
8.66086e-05
8.50103e-05
8.27249e-05
7.95542e-05
7.52257e-05
6.93654e-05
6.1515e-05
5.13013e-05
8.63898e-05
8.47444e-05
8.24177e-05
7.92139e-05
7.48674e-05
6.90185e-05
6.12325e-05
5.11658e-05
8.56968e-05
8.39221e-05
8.14804e-05
7.81845e-05
7.37924e-05
6.79873e-05
6.04015e-05
5.07717e-05
8.43763e-05
8.24572e-05
7.98609e-05
7.64451e-05
7.20136e-05
6.63173e-05
5.90862e-05
5.01649e-05
5.13945e-05
4.56744e-05
4.17502e-05
3.94492e-05
3.8349e-05
3.78096e-05
3.75031e-05
3.73265e-05
5.90376e-05
5.08929e-05
4.5184e-05
4.13387e-05
3.923e-05
3.82987e-05
3.78086e-05
3.75115e-05
6.33186e-05
5.41845e-05
4.77264e-05
4.30605e-05
4.00537e-05
3.8617e-05
3.80444e-05
3.76772e-05
6.42607e-05
5.49929e-05
4.84482e-05
4.35402e-05
4.0334e-05
3.86846e-05
3.80978e-05
3.77292e-05
6.32841e-05
5.41759e-05
4.77414e-05
4.30146e-05
3.9985e-05
3.85971e-05
3.80452e-05
3.76746e-05
5.88415e-05
5.08353e-05
4.51315e-05
4.12897e-05
3.92226e-05
3.82879e-05
3.77989e-05
3.75064e-05
5.12693e-05
4.55865e-05
4.16607e-05
3.94291e-05
3.83625e-05
3.78047e-05
3.74986e-05
3.73233e-05
7.77627e-05
7.91495e-05
7.916e-05
7.84162e-05
7.75811e-05
7.71677e-05
7.71484e-05
7.73693e-05
7.49917e-05
7.80923e-05
7.89284e-05
7.84404e-05
7.73641e-05
7.66953e-05
7.66051e-05
7.68784e-05
7.32739e-05
7.73188e-05
7.87444e-05
7.84384e-05
7.73209e-05
7.63024e-05
7.60757e-05
7.63749e-05
7.28305e-05
7.70894e-05
7.86977e-05
7.8461e-05
7.73584e-05
7.61816e-05
7.58798e-05
7.61795e-05
7.32445e-05
7.72855e-05
7.87151e-05
7.84285e-05
7.73041e-05
7.62978e-05
7.60788e-05
7.6382e-05
7.48595e-05
7.79828e-05
7.88526e-05
7.83958e-05
7.73492e-05
7.66894e-05
7.66046e-05
7.68837e-05
7.75671e-05
7.89826e-05
7.90182e-05
7.83103e-05
7.7522e-05
7.71432e-05
7.71456e-05
7.73788e-05
8.74445e-05
8.80917e-05
8.83404e-05
8.83735e-05
8.83115e-05
8.82527e-05
8.82272e-05
8.82418e-05
8.63884e-05
8.76645e-05
8.81811e-05
8.8309e-05
8.82444e-05
8.81645e-05
8.81309e-05
8.81523e-05
8.5419e-05
8.72703e-05
8.80361e-05
8.82426e-05
8.81814e-05
8.80749e-05
8.80292e-05
8.8057e-05
8.50251e-05
8.71108e-05
8.79796e-05
8.82183e-05
8.81601e-05
8.80413e-05
8.79891e-05
8.8019e-05
8.53873e-05
8.7249e-05
8.80228e-05
8.82352e-05
8.81779e-05
8.80738e-05
8.80298e-05
8.80584e-05
8.63235e-05
8.76181e-05
8.8152e-05
8.82915e-05
8.8235e-05
8.81604e-05
8.81301e-05
8.81536e-05
8.73703e-05
8.80356e-05
8.83007e-05
8.83461e-05
8.82953e-05
8.82448e-05
8.82249e-05
8.82429e-05
8.87619e-05
8.85644e-05
8.81777e-05
8.76383e-05
8.69895e-05
8.62868e-05
8.56095e-05
8.50802e-05
8.87779e-05
8.87297e-05
8.84202e-05
8.7903e-05
8.72304e-05
8.64678e-05
8.57071e-05
8.50968e-05
8.8688e-05
8.87825e-05
8.85496e-05
8.80624e-05
8.73834e-05
8.65863e-05
8.57724e-05
8.5108e-05
8.86351e-05
8.87892e-05
8.85888e-05
8.81151e-05
8.74357e-05
8.66275e-05
8.57954e-05
8.5112e-05
8.86804e-05
8.87779e-05
8.85471e-05
8.80611e-05
8.7383e-05
8.65863e-05
8.57726e-05
8.51082e-05
8.87658e-05
8.87223e-05
8.8416e-05
8.79009e-05
8.72297e-05
8.64679e-05
8.57075e-05
8.50973e-05
8.8752e-05
8.85574e-05
8.81735e-05
8.76363e-05
8.69891e-05
8.62874e-05
8.56106e-05
8.50814e-05
8.43724e-05
8.2454e-05
7.98577e-05
7.64415e-05
7.20097e-05
6.6313e-05
5.90821e-05
5.01619e-05
8.56935e-05
8.39184e-05
8.1476e-05
7.81792e-05
7.37861e-05
6.79803e-05
6.03946e-05
5.07668e-05
8.63862e-05
8.47405e-05
8.24131e-05
7.9208e-05
7.48603e-05
6.90105e-05
6.12246e-05
5.11602e-05
8.66051e-05
8.50067e-05
8.27208e-05
7.95491e-05
7.52195e-05
6.93583e-05
6.1508e-05
5.12963e-05
8.63862e-05
8.47407e-05
8.24133e-05
7.92083e-05
7.48606e-05
6.90109e-05
6.12251e-05
5.11607e-05
8.56941e-05
8.39196e-05
8.14776e-05
7.81811e-05
7.37883e-05
6.79827e-05
6.03971e-05
5.07687e-05
8.43761e-05
8.24577e-05
7.98622e-05
7.6447e-05
7.20158e-05
6.63196e-05
5.90885e-05
5.01665e-05
3.72185e-05
3.73392e-05
3.74559e-05
3.74983e-05
3.74586e-05
3.7342e-05
3.72223e-05
7.77223e-05
7.73038e-05
7.68636e-05
7.66889e-05
7.6864e-05
7.72952e-05
7.77011e-05
8.8301e-05
8.82265e-05
8.81444e-05
8.81106e-05
8.81433e-05
8.82234e-05
8.82966e-05
8.49034e-05
8.49073e-05
8.49099e-05
8.49107e-05
8.49095e-05
8.49066e-05
8.49028e-05
4.01323e-05
4.01409e-05
4.01477e-05
4.01503e-05
4.01477e-05
4.01408e-05
4.01323e-05
3.72208e-05
3.7342e-05
3.74614e-05
3.75052e-05
3.74589e-05
3.73401e-05
3.72185e-05
7.77175e-05
7.73112e-05
7.68792e-05
7.67026e-05
7.68754e-05
7.73133e-05
7.77286e-05
8.82989e-05
8.82258e-05
8.81454e-05
8.81123e-05
8.81457e-05
8.8227e-05
8.83017e-05
8.49036e-05
8.49076e-05
8.49101e-05
8.4911e-05
8.49099e-05
8.49071e-05
8.49033e-05
4.01327e-05
4.01412e-05
4.01479e-05
4.01503e-05
4.01477e-05
4.01408e-05
4.01323e-05
3.7217e-05
3.73346e-05
3.74508e-05
3.74962e-05
3.74547e-05
3.7338e-05
3.7219e-05
7.77333e-05
7.73268e-05
7.68895e-05
7.67109e-05
7.6883e-05
7.73152e-05
7.77214e-05
8.83026e-05
8.82297e-05
8.81487e-05
8.81146e-05
8.8147e-05
8.82274e-05
8.83012e-05
8.49034e-05
8.49072e-05
8.49099e-05
8.49108e-05
8.49097e-05
8.4907e-05
8.49035e-05
4.01323e-05
4.01408e-05
4.01475e-05
4.015e-05
4.01475e-05
4.01407e-05
4.01322e-05
3.72234e-05
3.73445e-05
3.74622e-05
3.75041e-05
3.746e-05
3.73418e-05
3.72211e-05
7.76984e-05
7.72882e-05
7.68517e-05
7.66791e-05
7.68604e-05
7.72972e-05
7.77142e-05
8.82961e-05
8.82221e-05
8.8141e-05
8.81085e-05
8.81429e-05
8.82244e-05
8.8299e-05
8.49029e-05
8.49068e-05
8.49097e-05
8.49108e-05
8.49099e-05
8.49073e-05
8.49038e-05
4.01324e-05
4.0141e-05
4.01479e-05
4.01505e-05
4.0148e-05
4.01412e-05
4.01328e-05
3.71162e-05
3.70559e-05
3.70212e-05
3.69978e-05
3.69798e-05
3.69619e-05
3.6934e-05
3.68692e-05
3.7177e-05
3.70853e-05
3.70364e-05
3.70063e-05
3.69848e-05
3.6965e-05
3.69359e-05
3.68705e-05
3.72382e-05
3.7115e-05
3.70517e-05
3.70148e-05
3.69898e-05
3.69681e-05
3.69379e-05
3.68719e-05
3.7262e-05
3.71268e-05
3.70578e-05
3.70182e-05
3.69919e-05
3.69694e-05
3.69387e-05
3.68724e-05
3.72379e-05
3.71146e-05
3.70515e-05
3.70147e-05
3.69898e-05
3.69681e-05
3.69379e-05
3.68719e-05
3.7177e-05
3.70852e-05
3.70364e-05
3.70063e-05
3.69848e-05
3.6965e-05
3.6936e-05
3.68706e-05
3.71181e-05
3.70571e-05
3.70219e-05
3.69983e-05
3.69802e-05
3.69622e-05
3.69342e-05
3.68694e-05
7.83307e-05
7.90541e-05
7.9581e-05
7.99345e-05
8.0137e-05
8.01622e-05
7.98805e-05
7.89673e-05
7.80119e-05
7.88458e-05
7.94496e-05
7.98525e-05
8.00859e-05
8.01303e-05
7.98606e-05
7.89552e-05
7.76677e-05
7.86173e-05
7.9304e-05
7.97611e-05
8.00286e-05
8.00943e-05
7.98382e-05
7.89416e-05
7.7528e-05
7.8523e-05
7.92433e-05
7.97226e-05
8.00043e-05
8.0079e-05
7.98285e-05
7.89357e-05
7.76686e-05
7.86168e-05
7.93029e-05
7.97599e-05
8.00276e-05
8.00935e-05
7.98375e-05
7.89411e-05
7.8005e-05
7.88392e-05
7.94439e-05
7.98481e-05
8.00825e-05
8.01277e-05
7.98588e-05
7.8954e-05
7.83105e-05
7.90373e-05
7.95684e-05
7.99256e-05
8.01307e-05
8.01577e-05
7.98774e-05
7.89652e-05
8.84479e-05
8.87314e-05
8.89716e-05
8.91211e-05
8.91555e-05
8.90082e-05
8.84901e-05
8.71736e-05
8.83925e-05
8.86952e-05
8.89483e-05
8.91062e-05
8.91459e-05
8.90021e-05
8.84863e-05
8.71714e-05
8.83302e-05
8.86542e-05
8.89217e-05
8.90891e-05
8.91349e-05
8.8995e-05
8.84818e-05
8.71689e-05
8.83042e-05
8.86368e-05
8.89104e-05
8.90817e-05
8.91301e-05
8.8992e-05
8.84799e-05
8.71679e-05
8.83294e-05
8.86535e-05
8.89211e-05
8.90885e-05
8.91345e-05
8.89947e-05
8.84817e-05
8.71689e-05
8.839e-05
8.86931e-05
8.89466e-05
8.91049e-05
8.91449e-05
8.90014e-05
8.84858e-05
8.71712e-05
8.84435e-05
8.87275e-05
8.89687e-05
8.9119e-05
8.9154e-05
8.90071e-05
8.84894e-05
8.71732e-05
8.57606e-05
8.75172e-05
8.88761e-05
8.97042e-05
9.00883e-05
9.00872e-05
8.95955e-05
8.82225e-05
8.57629e-05
8.75181e-05
8.8876e-05
8.97036e-05
9.00877e-05
9.00867e-05
8.95951e-05
8.82223e-05
8.57643e-05
8.75182e-05
8.88752e-05
8.97025e-05
9.00867e-05
9.00859e-05
8.95946e-05
8.82222e-05
8.57647e-05
8.75181e-05
8.88747e-05
8.9702e-05
9.00862e-05
9.00856e-05
8.95945e-05
8.82222e-05
8.57639e-05
8.75179e-05
8.88749e-05
8.97023e-05
9.00866e-05
9.00859e-05
8.95947e-05
8.82223e-05
8.57623e-05
8.75176e-05
8.88755e-05
8.97032e-05
9.00874e-05
9.00865e-05
8.95951e-05
8.82225e-05
8.57604e-05
8.75171e-05
8.88759e-05
8.9704e-05
9.00881e-05
9.00871e-05
8.95954e-05
8.82226e-05
5.9461e-05
7.44722e-05
8.26094e-05
8.68413e-05
8.88888e-05
8.96551e-05
8.94865e-05
8.82297e-05
5.94727e-05
7.44814e-05
8.26147e-05
8.68437e-05
8.88897e-05
8.96554e-05
8.94865e-05
8.82297e-05
5.94839e-05
7.44899e-05
8.26192e-05
8.68456e-05
8.88903e-05
8.96555e-05
8.94865e-05
8.82297e-05
5.9488e-05
7.4493e-05
8.26208e-05
8.68462e-05
8.88905e-05
8.96555e-05
8.94866e-05
8.82298e-05
5.94832e-05
7.44893e-05
8.26188e-05
8.68453e-05
8.88902e-05
8.96555e-05
8.94866e-05
8.82299e-05
5.9472e-05
7.44808e-05
8.26141e-05
8.68433e-05
8.88895e-05
8.96553e-05
8.94866e-05
8.82299e-05
5.94622e-05
7.44732e-05
8.26099e-05
8.68415e-05
8.88888e-05
8.9655e-05
8.94865e-05
8.82299e-05
3.71165e-05
3.70559e-05
3.70211e-05
3.69978e-05
3.69798e-05
3.6962e-05
3.6934e-05
3.68692e-05
3.71759e-05
3.70841e-05
3.70356e-05
3.70059e-05
3.69846e-05
3.69648e-05
3.69358e-05
3.68705e-05
3.72373e-05
3.71135e-05
3.70507e-05
3.70143e-05
3.69895e-05
3.69679e-05
3.69378e-05
3.68718e-05
3.72622e-05
3.71258e-05
3.7057e-05
3.70177e-05
3.69916e-05
3.69692e-05
3.69386e-05
3.68724e-05
3.72378e-05
3.71142e-05
3.70511e-05
3.70144e-05
3.69896e-05
3.69679e-05
3.69377e-05
3.68718e-05
3.71759e-05
3.70843e-05
3.70357e-05
3.70058e-05
3.69844e-05
3.69647e-05
3.69357e-05
3.68704e-05
3.71158e-05
3.70556e-05
3.70209e-05
3.69976e-05
3.69796e-05
3.69618e-05
3.69338e-05
3.68691e-05
7.83326e-05
7.9057e-05
7.95833e-05
7.99362e-05
8.01382e-05
8.01629e-05
7.98809e-05
7.89675e-05
7.80287e-05
7.88605e-05
7.94602e-05
7.98597e-05
8.00906e-05
8.01333e-05
7.98626e-05
7.89564e-05
7.76916e-05
7.86376e-05
7.93187e-05
7.97711e-05
8.00353e-05
8.00987e-05
7.9841e-05
7.89435e-05
7.75486e-05
7.85415e-05
7.92573e-05
7.97326e-05
8.00111e-05
8.00836e-05
7.98316e-05
7.89378e-05
7.76845e-05
7.86319e-05
7.93148e-05
7.97686e-05
8.00337e-05
8.00977e-05
7.98404e-05
7.89432e-05
7.80272e-05
7.88587e-05
7.94589e-05
7.98588e-05
8.009e-05
8.01328e-05
7.98623e-05
7.89565e-05
7.83399e-05
7.90617e-05
7.95865e-05
7.99382e-05
8.01393e-05
8.01635e-05
7.98814e-05
7.8968e-05
8.8448e-05
8.8732e-05
8.89722e-05
8.91216e-05
8.91558e-05
8.90085e-05
8.84903e-05
8.71738e-05
8.8395e-05
8.86979e-05
8.89504e-05
8.91078e-05
8.9147e-05
8.90029e-05
8.84868e-05
8.71719e-05
8.83342e-05
8.86582e-05
8.89247e-05
8.90912e-05
8.91364e-05
8.89961e-05
8.84826e-05
8.71696e-05
8.83083e-05
8.86409e-05
8.89135e-05
8.9084e-05
8.91317e-05
8.89931e-05
8.84808e-05
8.71686e-05
8.83335e-05
8.86573e-05
8.8924e-05
8.90907e-05
8.9136e-05
8.89958e-05
8.84825e-05
8.71695e-05
8.8395e-05
8.86976e-05
8.895e-05
8.91074e-05
8.91467e-05
8.90026e-05
8.84866e-05
8.71718e-05
8.84496e-05
8.87328e-05
8.89726e-05
8.91218e-05
8.91559e-05
8.90085e-05
8.84903e-05
8.71738e-05
8.57603e-05
8.75165e-05
8.88755e-05
8.97039e-05
9.00882e-05
9.00872e-05
8.95955e-05
8.82226e-05
8.57622e-05
8.75168e-05
8.8875e-05
8.97032e-05
9.00876e-05
9.00867e-05
8.95953e-05
8.82226e-05
8.57635e-05
8.75168e-05
8.88742e-05
8.9702e-05
9.00866e-05
9.0086e-05
8.95948e-05
8.82225e-05
8.5764e-05
8.75169e-05
8.88739e-05
8.97016e-05
9.00862e-05
9.00857e-05
8.95947e-05
8.82225e-05
8.57636e-05
8.7517e-05
8.88743e-05
8.9702e-05
9.00865e-05
9.0086e-05
8.95948e-05
8.82225e-05
8.57622e-05
8.7517e-05
8.88751e-05
8.97031e-05
9.00875e-05
9.00866e-05
8.95952e-05
8.82226e-05
8.57605e-05
8.75168e-05
8.88757e-05
8.9704e-05
9.00882e-05
9.00872e-05
8.95955e-05
8.82227e-05
5.9456e-05
7.44672e-05
8.26063e-05
8.68399e-05
8.88882e-05
8.96549e-05
8.94865e-05
8.82298e-05
5.9463e-05
7.44724e-05
8.26091e-05
8.68411e-05
8.88887e-05
8.96551e-05
8.94865e-05
8.82299e-05
5.94731e-05
7.448e-05
8.26131e-05
8.68427e-05
8.88891e-05
8.96551e-05
8.94865e-05
8.82299e-05
5.94785e-05
7.44841e-05
8.26152e-05
8.68436e-05
8.88894e-05
8.96552e-05
8.94865e-05
8.823e-05
5.94757e-05
7.44822e-05
8.26143e-05
8.68432e-05
8.88893e-05
8.96552e-05
8.94866e-05
8.82301e-05
5.94665e-05
7.44754e-05
8.26107e-05
8.68417e-05
8.88887e-05
8.9655e-05
8.94865e-05
8.823e-05
5.94583e-05
7.44693e-05
8.26073e-05
8.68402e-05
8.88882e-05
8.96549e-05
8.94865e-05
8.823e-05
3.71151e-05
3.70552e-05
3.70207e-05
3.69975e-05
3.69796e-05
3.69617e-05
3.69338e-05
3.6869e-05
3.71738e-05
3.70834e-05
3.70352e-05
3.70056e-05
3.69843e-05
3.69646e-05
3.69356e-05
3.68703e-05
3.72349e-05
3.7113e-05
3.70505e-05
3.70141e-05
3.69893e-05
3.69677e-05
3.69376e-05
3.68717e-05
3.72596e-05
3.7125e-05
3.70567e-05
3.70175e-05
3.69914e-05
3.6969e-05
3.69385e-05
3.68723e-05
3.72356e-05
3.71131e-05
3.70505e-05
3.70141e-05
3.69894e-05
3.69678e-05
3.69377e-05
3.68717e-05
3.71748e-05
3.70838e-05
3.70354e-05
3.70057e-05
3.69844e-05
3.69647e-05
3.69357e-05
3.68704e-05
3.71163e-05
3.70559e-05
3.70211e-05
3.69978e-05
3.69798e-05
3.69619e-05
3.6934e-05
3.68692e-05
7.83436e-05
7.90645e-05
7.95885e-05
7.99396e-05
8.01402e-05
8.01641e-05
7.98817e-05
7.89683e-05
7.80369e-05
7.88654e-05
7.94634e-05
7.98617e-05
8.00918e-05
8.01339e-05
7.9863e-05
7.89569e-05
7.76964e-05
7.86409e-05
7.93212e-05
7.97729e-05
8.00364e-05
8.00994e-05
7.98415e-05
7.8944e-05
7.75559e-05
7.85473e-05
7.92616e-05
7.97354e-05
8.0013e-05
8.00847e-05
7.98324e-05
7.89384e-05
7.76944e-05
7.86402e-05
7.93209e-05
7.97728e-05
8.00364e-05
8.00995e-05
7.98416e-05
7.8944e-05
7.80304e-05
7.88618e-05
7.94613e-05
7.98606e-05
8.00913e-05
8.01338e-05
7.98629e-05
7.89568e-05
7.83339e-05
7.90577e-05
7.95841e-05
7.9937e-05
8.01388e-05
8.01634e-05
7.98813e-05
7.89678e-05
8.84503e-05
8.87333e-05
8.8973e-05
8.91221e-05
8.91561e-05
8.90086e-05
8.84903e-05
8.71738e-05
8.83967e-05
8.86987e-05
8.89508e-05
8.91079e-05
8.9147e-05
8.90028e-05
8.84867e-05
8.71718e-05
8.83357e-05
8.86589e-05
8.89252e-05
8.90915e-05
8.91365e-05
8.89961e-05
8.84826e-05
8.71696e-05
8.83099e-05
8.8642e-05
8.89143e-05
8.90845e-05
8.9132e-05
8.89933e-05
8.84809e-05
8.71687e-05
8.83351e-05
8.86586e-05
8.89251e-05
8.90915e-05
8.91365e-05
8.89962e-05
8.84827e-05
8.71696e-05
8.83955e-05
8.86981e-05
8.89506e-05
8.91078e-05
8.9147e-05
8.90028e-05
8.84868e-05
8.71719e-05
8.84489e-05
8.87321e-05
8.89723e-05
8.91218e-05
8.9156e-05
8.90086e-05
8.84903e-05
8.71737e-05
8.57606e-05
8.75169e-05
8.88758e-05
8.9704e-05
9.00883e-05
9.00872e-05
8.95955e-05
8.82227e-05
8.57625e-05
8.75174e-05
8.88754e-05
8.97033e-05
9.00875e-05
9.00867e-05
8.95952e-05
8.82226e-05
8.57638e-05
8.75175e-05
8.88746e-05
8.97023e-05
9.00866e-05
9.0086e-05
8.95948e-05
8.82225e-05
8.57642e-05
8.75173e-05
8.88742e-05
8.97018e-05
9.00862e-05
9.00857e-05
8.95947e-05
8.82225e-05
8.57635e-05
8.75171e-05
8.88744e-05
8.97021e-05
9.00866e-05
9.0086e-05
8.95948e-05
8.82225e-05
8.57621e-05
8.7517e-05
8.88752e-05
8.97032e-05
9.00875e-05
9.00867e-05
8.95952e-05
8.82225e-05
8.57607e-05
8.7517e-05
8.8876e-05
8.97042e-05
9.00884e-05
9.00873e-05
8.95955e-05
8.82225e-05
5.94589e-05
7.44699e-05
8.26077e-05
8.68404e-05
8.88883e-05
8.96549e-05
8.94865e-05
8.823e-05
5.9468e-05
7.4477e-05
8.26117e-05
8.68421e-05
8.88889e-05
8.96551e-05
8.94865e-05
8.823e-05
5.94778e-05
7.44842e-05
8.26156e-05
8.68438e-05
8.88895e-05
8.96552e-05
8.94866e-05
8.82301e-05
5.94809e-05
7.44864e-05
8.26167e-05
8.68442e-05
8.88896e-05
8.96553e-05
8.94866e-05
8.82301e-05
5.94757e-05
7.44824e-05
8.26146e-05
8.68434e-05
8.88894e-05
8.96552e-05
8.94865e-05
8.823e-05
5.94653e-05
7.44748e-05
8.26106e-05
8.68417e-05
8.88888e-05
8.9655e-05
8.94865e-05
8.82299e-05
5.94582e-05
7.44695e-05
8.26078e-05
8.68406e-05
8.88885e-05
8.9655e-05
8.94864e-05
8.82297e-05
3.71187e-05
3.70574e-05
3.70221e-05
3.69985e-05
3.69803e-05
3.69623e-05
3.69342e-05
3.68694e-05
3.71784e-05
3.70859e-05
3.70368e-05
3.70066e-05
3.6985e-05
3.69651e-05
3.6936e-05
3.68706e-05
3.724e-05
3.71156e-05
3.7052e-05
3.70151e-05
3.699e-05
3.69682e-05
3.6938e-05
3.6872e-05
3.7264e-05
3.71274e-05
3.7058e-05
3.70184e-05
3.6992e-05
3.69694e-05
3.69388e-05
3.68725e-05
3.72388e-05
3.7115e-05
3.70517e-05
3.70148e-05
3.69898e-05
3.69681e-05
3.69379e-05
3.68719e-05
3.71773e-05
3.70853e-05
3.70363e-05
3.70062e-05
3.69848e-05
3.6965e-05
3.69359e-05
3.68705e-05
3.71172e-05
3.70565e-05
3.70215e-05
3.69981e-05
3.698e-05
3.69621e-05
3.69341e-05
3.68693e-05
7.83077e-05
7.90352e-05
7.9567e-05
7.99246e-05
8.013e-05
8.01573e-05
7.9877e-05
7.8965e-05
7.79987e-05
7.88346e-05
7.94409e-05
7.9846e-05
8.00811e-05
8.01267e-05
7.98581e-05
7.89535e-05
7.76592e-05
7.86109e-05
7.92992e-05
7.97575e-05
8.00259e-05
8.00923e-05
7.98367e-05
7.89405e-05
7.75226e-05
7.85203e-05
7.92418e-05
7.97216e-05
8.00036e-05
8.00784e-05
7.98281e-05
7.89353e-05
7.76684e-05
7.86183e-05
7.93045e-05
7.97612e-05
8.00285e-05
8.00941e-05
7.98379e-05
7.89413e-05
7.80113e-05
7.88463e-05
7.94499e-05
7.98526e-05
8.00858e-05
8.01301e-05
7.98604e-05
7.8955e-05
7.83278e-05
7.90526e-05