/*--------------------------------*- C++ -*----------------------------------*\
| =========                 |                                                 |
| \\      /  F ield         | OpenFOAM: The Open Source CFD Toolbox           |
|  \\    /   O peration     | Version:  plus.master                           |
|   \\  /    A nd           | Web:      www.OpenFOAM.com                      |
|    \\/     M anipulation  |                                                 |
\*---------------------------------------------------------------------------*/
FoamFile
{
    version     2.0;
    format      ascii;
    class       volScalarField;
    location    "9.4";
    object      epsilon;
}
// * * * * * * * * * * * * * * * * * * * * * * * * * * * * * * * * * * * * * //

dimensions      [0 2 -3 0 0 0 0];

internalField   nonuniform List<scalar> 
47285
(
0.00048303
0.00281627
0.018591
0.022897
0.00456975
0.000533986
0.000169888
0.00172282
0.0523097
0.30696
0.508723
0.151348
0.0235715
0.000666113
0.00984296
0.234976
0.432739
1.28383
0.296679
0.162493
0.00652902
0.0317181
0.579898
1.55203
1.39208
1.56723
0.39058
0.0183231
0.015078
0.290037
0.473882
1.24506
0.36679
0.21039
0.0115457
0.00235345
0.0591427
0.329099
0.641483
0.175797
0.0405228
0.00164333
0.000568782
0.00316831
0.0201293
0.0304799
0.00582854
0.00111417
0.000285221
0.0045304
0.0391883
0.166429
0.236347
0.0424986
0.00462787
0.000969291
0.0308696
0.255014
1.06058
2.0441
0.461187
0.0544986
0.00425531
0.141589
0.915176
1.63537
5.23058
1.55893
0.353856
0.0290274
0.356262
2.36784
6.04219
6.05827
9.02468
1.20255
0.0947887
0.185147
1.09671
1.82087
5.58847
1.73667
0.60695
0.0643221
0.0404944
0.307042
1.22908
2.78971
0.736646
0.124718
0.0126953
0.00597709
0.0488236
0.232001
0.392386
0.0962793
0.0133376
0.00183154
0.0160498
0.0927836
0.319672
0.521509
0.0990302
0.0122069
0.00375934
0.0928715
0.537015
2.07507
4.22298
0.978334
0.0990332
0.00967288
0.381447
2.10028
3.69562
8.39761
5.23168
0.656129
0.0430538
0.924338
5.75007
9.72244
10.5479
21.1948
2.18058
0.131279
0.470144
2.45315
4.16466
9.23771
5.42689
1.10121
0.0876865
0.126566
0.686854
2.54108
6.20528
1.63616
0.234965
0.0228384
0.0239545
0.137909
0.500714
0.902809
0.249016
0.0340438
0.00572279
0.0272247
0.107942
0.332956
0.532838
0.109451
0.021793
0.0106204
0.125084
0.64222
2.34221
3.90207
0.999233
0.109833
0.0182189
0.540588
2.75895
3.88722
8.24343
6.39093
0.643284
0.0502775
1.38422
7.8653
9.77813
12.9898
25.8062
2.00458
0.118993
0.684831
3.25081
4.40484
9.72908
8.26793
1.02644
0.0833379
0.187637
0.909353
3.02043
6.45734
1.77325
0.244419
0.0297928
0.0431677
0.189853
0.631607
1.07679
0.298523
0.0444794
0.0131043
0.0292849
0.090089
0.243777
0.353724
0.0869394
0.0238849
0.0139886
0.110026
0.524134
1.72922
2.82369
0.698838
0.0887528
0.0207431
0.469542
2.33553
4.1503
5.22188
4.94109
0.46893
0.0456218
1.26872
7.21227
9.12192
12.7406
18.2241
1.39668
0.0952769
0.63556
3.17324
3.17644
7.75893
6.66674
0.722326
0.0685458
0.177626
0.845705
2.77354
4.28188
1.36373
0.188317
0.029825
0.0460216
0.173086
0.553202
0.845192
0.233061
0.0423564
0.0165847
0.000125958
0.000126818
0.000127086
0.000122523
0.000117578
0.000113368
0.000110328
0.000107961
0.000203098
0.000147016
0.000125946
0.000117828
0.000111627
0.00010616
0.000102109
9.85494e-05
0.00091673
0.000224734
0.000143536
0.000121291
0.000112422
0.000105918
0.000100364
9.5853e-05
0.00257515
0.000423639
0.000157117
0.000118725
0.000107281
0.000102216
9.96504e-05
9.59518e-05
0.00173295
0.000329283
0.000150844
0.0001229
0.000114306
0.000107995
0.000102769
9.86967e-05
0.000391438
0.000178904
0.000134929
0.00012153
0.00011449
0.000109612
0.000105677
0.000102497
0.000164144
0.00014022
0.000129583
0.000123202
0.000118683
0.000115492
0.000112795
0.000110329
0.000495125
0.000396506
0.000338789
0.000295696
0.000261773
0.000234287
0.000211409
0.000191672
0.000780282
0.00045785
0.000362023
0.000306781
0.000266762
0.000235547
0.000210246
0.000188798
0.00208219
0.000593809
0.000384931
0.000309861
0.000265384
0.000232721
0.000206727
0.000185018
0.00463834
0.000753996
0.00040329
0.000312727
0.000265939
0.000232888
0.000206421
0.000184445
0.00397012
0.000724056
0.000396039
0.000309291
0.000264698
0.000233268
0.000208292
0.000187288
0.00150497
0.000530257
0.000362901
0.000299519
0.000261391
0.000233426
0.00021097
0.000191708
0.00064711
0.000412218
0.000333733
0.000288025
0.000255653
0.000230584
0.000210054
0.000192298
0.00243286
0.00205813
0.00177976
0.00151109
0.00124832
0.0010008
0.000780308
0.000597695
0.00316691
0.0022546
0.00187161
0.00157245
0.00129295
0.00102996
0.000793606
0.000596569
0.00539422
0.00256989
0.00194612
0.00160523
0.00131582
0.00104604
0.00080147
0.000595995
0.00902802
0.00288162
0.00199414
0.00161893
0.00132427
0.00105208
0.000804666
0.000596514
0.00801623
0.0028136
0.0019621
0.00159128
0.00130136
0.00103607
0.000796879
0.000596745
0.004348
0.00236229
0.00183154
0.00151623
0.00124594
0.000997834
0.000777488
0.000595691
0.00264748
0.00201814
0.00169711
0.00143068
0.00118245
0.000953425
0.00075255
0.000588885
0.00814759
0.00703246
0.00606044
0.00517606
0.00443643
0.00386086
0.00340569
0.00294936
0.00949829
0.007605
0.0064304
0.00542631
0.00458392
0.00393147
0.0034354
0.0029638
0.0124312
0.00821554
0.00671215
0.00561523
0.00470533
0.00399771
0.00346784
0.00297998
0.0163471
0.00870404
0.00686557
0.00571156
0.00476964
0.00403274
0.00348019
0.00297678
0.0150198
0.00857933
0.0068047
0.00566132
0.00473278
0.00400782
0.00345908
0.00295139
0.0108017
0.0078419
0.00650149
0.00546494
0.00460398
0.00392945
0.0034062
0.00290358
0.00846131
0.0070727
0.00605194
0.00515815
0.00441025
0.0038191
0.0033411
0.00285821
0.0116353
0.010627
0.00984096
0.009099
0.00825819
0.0070722
0.00537462
0.00354091
0.0128779
0.0110302
0.00998521
0.00915053
0.00834164
0.00728139
0.0056851
0.00380454
0.0155615
0.0116064
0.0102214
0.00930782
0.00850442
0.00750156
0.0059432
0.00400601
0.0190058
0.0121274
0.0104198
0.00944956
0.008631
0.00762962
0.00606448
0.0040861
0.0177229
0.0120424
0.0104379
0.0094803
0.00864621
0.00760621
0.00600131
0.00401304
0.0141798
0.0115282
0.0103803
0.0095244
0.00867634
0.00754511
0.00584592
0.00384913
0.0123016
0.0111723
0.0104443
0.00976706
0.00894347
0.00769157
0.00582707
0.00377232
0.000207569
0.000159323
0.000149496
0.00014496
0.000141381
0.000138424
0.000135948
0.000134047
0.000507875
0.000193176
0.00014135
0.000126879
0.000119338
0.000114072
0.000108458
0.000102214
0.00267708
0.000534629
0.000181488
0.000124724
0.000110056
0.000101791
9.55543e-05
8.81758e-05
0.00485893
0.000788513
0.00020428
0.000123298
0.000103443
9.26876e-05
8.49613e-05
7.88655e-05
0.00164469
0.000356974
0.000160435
0.000121862
0.00010961
0.000101428
9.46245e-05
9.09316e-05
0.00034953
0.000157912
0.000135929
0.000123568
0.000116997
0.000108992
0.000103781
0.000100122
0.000177592
0.000138106
0.000133131
0.000128974
0.000125917
0.000123247
0.000121003
0.000118662
0.00112193
0.000612334
0.000483258
0.0004049
0.000346178
0.000300257
0.000263936
0.000234837
0.00430918
0.00107288
0.000642503
0.00049812
0.000410245
0.000343231
0.000288932
0.000244474
0.0206394
0.00269872
0.000962214
0.000645392
0.000511859
0.000420446
0.000348
0.000287893
0.0339191
0.00338013
0.000988725
0.000631462
0.000496535
0.000409188
0.000341416
0.000286399
0.0131465
0.0017452
0.000732806
0.000524108
0.000424814
0.000353303
0.000294882
0.000246761
0.00291638
0.00080045
0.000512602
0.000406364
0.000338942
0.000287248
0.000245908
0.000211753
0.000944762
0.000542882
0.000421079
0.000349456
0.000298111
0.000258887
0.000228315
0.000204003
0.00528068
0.00291444
0.00235069
0.00199785
0.00166848
0.00134361
0.00104146
0.000786561
0.0174609
0.00459464
0.00275029
0.00218978
0.00182627
0.00148818
0.00115737
0.000855183
0.0636909
0.00939347
0.00340772
0.00234799
0.00191197
0.00157541
0.00125225
0.000942835
0.112984
0.0124499
0.00355473
0.00229774
0.00183898
0.00150181
0.00118547
0.000887239
0.0454051
0.00687494
0.00295111
0.00217731
0.0017997
0.00147713
0.0011595
0.000858996
0.0118632
0.00358598
0.00238859
0.00195381
0.00162812
0.00131429
0.00101125
0.0007417
0.00404629
0.00252383
0.00208188
0.00176684
0.00146633
0.00117308
0.000904166
0.000679713
0.0142769
0.00949521
0.00777201
0.00654904
0.00554554
0.00474436
0.00410223
0.00348234
0.034055
0.0127901
0.008691
0.00700609
0.00584992
0.00497771
0.00433601
0.00377809
0.100269
0.0203782
0.00976238
0.00717268
0.00579502
0.00480332
0.00409498
0.00353313
0.185776
0.0261894
0.0100956
0.00708421
0.00564977
0.00462223
0.00387599
0.00328133
0.0720482
0.0163428
0.00896335
0.00685794
0.00557582
0.0046018
0.00388617
0.00330855
0.0235484
0.0106313
0.00786327
0.00646208
0.00539914
0.00457459
0.00396074
0.00342459
0.0112527
0.00836515
0.00702044
0.00594523
0.0050492
0.00434063
0.00377742
0.00322964
0.0189293
0.0143034
0.0128186
0.0118193
0.0107472
0.00920256
0.00690933
0.00433562
0.038457
0.0177915
0.0138722
0.0126303
0.0118332
0.0106884
0.00858541
0.00579172
0.0981379
0.0253969
0.0149409
0.0128296
0.0121449
0.0114258
0.00975467
0.00717486
0.165747
0.0305761
0.0149962
0.0122606
0.0114297
0.0107745
0.00938866
0.00722355
0.0713463
0.0211913
0.0139006
0.0122548
0.0116148
0.0108888
0.00928328
0.00685903
0.0271269
0.0151887
0.0127235
0.0117851
0.0110918
0.0100446
0.00812179
0.00557181
0.0153825
0.0127928
0.0117319
0.010894
0.00995821
0.00859103
0.00653138
0.00420108
0.000222055
0.000144405
0.000126889
0.000122507
0.000121286
0.000119578
0.000117781
0.000116301
0.000746874
0.000227508
0.000124623
0.000102611
9.60408e-05
9.24708e-05
9.00574e-05
8.86127e-05
0.00292974
0.000497246
0.000152113
0.00010114
8.62445e-05
7.76017e-05
7.01758e-05
6.37706e-05
0.00313431
0.000476578
0.000151958
0.000106523
9.20227e-05
8.32223e-05
7.53303e-05
6.89837e-05
0.0006815
0.000192803
0.000129884
0.000111359
0.00010217
9.56751e-05
9.08558e-05
8.52098e-05
0.000185037
0.000142572
0.000125154
0.000116566
0.000109595
0.000104334
9.98484e-05
9.65775e-05
0.000130004
0.000124472
0.000122978
0.000121489
0.000119763
0.00011675
0.000113597
0.000110612
0.00124183
0.000578282
0.000433327
0.000360303
0.000310114
0.000271433
0.000240179
0.000214104
0.00479253
0.00104796
0.000559653
0.00041952
0.000345781
0.000294033
0.000254455
0.000222316
0.0138123
0.00167667
0.000654712
0.000451671
0.000360481
0.00029977
0.000253792
0.000217214
0.0141439
0.00146283
0.000606166
0.000433339
0.000349427
0.000290239
0.00024426
0.000207178
0.00293642
0.000759376
0.000484854
0.000384215
0.000319983
0.000270684
0.000231003
0.000198098
0.000831388
0.00049928
0.000397946
0.000334406
0.000287045
0.000249853
0.00021984
0.000194943
0.000514065
0.000413088
0.000350293
0.000302605
0.000265577
0.000236592
0.000213363
0.000194014
0.0043008
0.00249518
0.00202022
0.00171323
0.00142838
0.00115099
0.000895278
0.000679926
0.012561
0.00360366
0.00225962
0.001819
0.00151481
0.00122748
0.000950789
0.000706152
0.0315869
0.0050914
0.00236227
0.00176549
0.00145113
0.00117921
0.000915909
0.000674379
0.0386076
0.00492959
0.00227549
0.00170372
0.00138419
0.0011079
0.000848147
0.000615381
0.00928011
0.0030407
0.00212518
0.00175069
0.00145542
0.0011699
0.000894194
0.000648264
0.00339028
0.00235667
0.00198771
0.00169678
0.00141348
0.00113425
0.000872929
0.000648645
0.00246912
0.00211353
0.00183807
0.00156384
0.00129195
0.00103406
0.000803599
0.000612708
0.0110365
0.00809959
0.00677244
0.0057536
0.00491526
0.00425362
0.00372363
0.00319567
0.0209165
0.00979241
0.00725996
0.00600331
0.00508127
0.00437942
0.00384783
0.0033424
0.0419503
0.0117849
0.00728505
0.00576634
0.00481232
0.00413517
0.00366816
0.00325555
0.0483598
0.0114615
0.00698371
0.00549315
0.00453905
0.00387318
0.00344108
0.00309047
0.017858
0.00889754
0.00681619
0.0056437
0.00473651
0.00405699
0.00357815
0.00315571
0.00996346
0.00777054
0.00659179
0.00560121
0.0047616
0.00410676
0.00361131
0.00314302
0.00815152
0.0070706
0.00610863
0.00522944
0.00449207
0.00391699
0.00346188
0.00300514
0.0148939
0.0123332
0.0112482
0.0104041
0.00946004
0.00808903
0.00607308
0.00386034
0.0231207
0.0136579
0.011428
0.0104012
0.00952934
0.00834268
0.00647321
0.00422724
0.0397384
0.0153764
0.0113335
0.0101127
0.00935799
0.00839197
0.00671471
0.00452825
0.0425737
0.0149157
0.0108923
0.00970098
0.00900197
0.00814665
0.00661358
0.00455635
0.0205552
0.0124959
0.0105683
0.00965481
0.00893912
0.00799031
0.00637867
0.00430819
0.0134695
0.0113231
0.0102933
0.00951371
0.00874566
0.00768015
0.00600371
0.00398734
0.0116178
0.0106349
0.00985205
0.0091165
0.00828651
0.00711365
0.00542107
0.00357199
0.000142427
0.00013056
0.00012588
0.000120451
0.000116357
0.00011274
0.000110452
0.000107539
0.000240702
0.000146059
0.000137851
0.000121449
0.000112793
0.000104863
9.86603e-05
9.3656e-05
0.00102859
0.000268826
0.000158588
0.000125707
0.000111767
0.000102284
9.39151e-05
8.61979e-05
0.00481582
0.000799668
0.00021578
0.000131433
0.000108762
9.74932e-05
8.87449e-05
8.10423e-05
0.00385248
0.000774094
0.000228399
0.000137214
0.000113378
0.00010226
9.36587e-05
8.65102e-05
0.000881123
0.000303033
0.000168981
0.000137793
0.000127432
0.000120686
0.000113695
0.000107174
0.000245486
0.000175981
0.000156297
0.000149008
0.000145142
0.000142036
0.000139316
0.000137258
0.00062143
0.000444262
0.000363123
0.000306557
0.000264304
0.000231585
0.000205821
0.000184803
0.00148614
0.000620784
0.000460531
0.000375686
0.0003144
0.000266209
0.000227212
0.000195115
0.00749094
0.00126606
0.000674741
0.00050818
0.000414323
0.000343088
0.000284708
0.000236472
0.034576
0.00320025
0.00101596
0.000673692
0.000532373
0.00043632
0.000360298
0.000298554
0.0270401
0.00344192
0.00115341
0.000748547
0.000582091
0.000470737
0.000384379
0.000314754
0.00715044
0.00160524
0.000829394
0.000603991
0.000482544
0.000395455
0.000327348
0.000272621
0.00133535
0.000645833
0.000514856
0.000434988
0.000372914
0.000322945
0.000282461
0.000249338
0.00261955
0.0020896
0.00179537
0.00152229
0.00125571
0.00100243
0.000775374
0.000587646
0.00534082
0.00258047
0.00204077
0.00172162
0.0014346
0.001154
0.000886064
0.000648179
0.0254229
0.00463511
0.00251833
0.00197138
0.00163649
0.00133368
0.00103903
0.000764913
0.107945
0.0110054
0.0033254
0.00222413
0.00179077
0.00146086
0.00115056
0.000859258
0.0713197
0.0103633
0.00357916
0.00241122
0.00194871
0.00160154
0.00127116
0.000954648
0.0217159
0.00532756
0.00297372
0.00231169
0.00191752
0.00156517
0.0012227
0.000907282
0.00547677
0.00292701
0.00238405
0.0020406
0.00171317
0.00138532
0.00107679
0.00081391
0.00851969
0.00721501
0.00620267
0.00528658
0.00451436
0.00390733
0.00342591
0.00295348
0.012628
0.00828447
0.00679536
0.00568562
0.00474863
0.00401211
0.00346888
0.00300136
0.0379241
0.0116205
0.00771345
0.00617551
0.00505639
0.00417174
0.00352042
0.00298332
0.145617
0.0211131
0.00911782
0.00665934
0.00536467
0.00440942
0.00371203
0.00314458
0.0972571
0.019961
0.00955763
0.00701006
0.00565431
0.0046788
0.00397918
0.00341757
0.0353555
0.0131023
0.00877931
0.00704797
0.00588939
0.0050262
0.00439371
0.00383897
0.0143304
0.0095095
0.00779771
0.00658279
0.00558181
0.00477924
0.00413256
0.00350481
0.0125495
0.0115075
0.0108467
0.0102668
0.00957931
0.00845736
0.00662481
0.00445817
0.0165239
0.0125504
0.0114413
0.010885
0.0104448
0.00969515
0.00811361
0.00587392
0.0381935
0.0158519
0.0122091
0.0111884
0.0107459
0.0101875
0.00881962
0.00670222
0.116058
0.0242748
0.0136457
0.0116229
0.010972
0.0104173
0.00913619
0.00710164
0.088012
0.0239354
0.0145168
0.0126206
0.0120348
0.0114
0.00981314
0.00731123
0.038145
0.0178209
0.0139118
0.0127087
0.0119545
0.0108396
0.00874799
0.00594599
0.0189677
0.01435
0.0128788
0.011899
0.0108387
0.00929501
0.00699329
0.00440219
0.000105306
9.59225e-05
9.23267e-05
9.28549e-05
9.60786e-05
0.000101248
0.000108181
0.000174167
0.000169757
0.000165596
0.000165132
0.000168509
0.000174455
0.000176398
0.000459706
0.000448615
0.000441906
0.000440612
0.000447087
0.000460521
0.000467707
0.00232142
0.00229043
0.00226977
0.00224638
0.00222424
0.0022021
0.00221031
0.00187696
0.00188037
0.00187364
0.00186066
0.00184156
0.00182799
0.00190467
0.000132184
9.90339e-05
8.03271e-05
7.36848e-05
8.47032e-05
9.71694e-05
0.000116815
0.00021159
0.000208479
0.000239928
0.000242574
0.000206898
0.000183822
0.000184209
0.000596288
0.000611981
0.000679275
0.000638167
0.000609364
0.000530476
0.000513109
0.00268242
0.00301924
0.0028194
0.00254085
0.00259399
0.00270833
0.00250927
0.00198683
0.00273719
0.00385629
0.00426316
0.00373797
0.00274427
0.00204182
0.000115027
8.67639e-05
5.94506e-05
6.39671e-05
7.95342e-05
9.60528e-05
0.000107767
0.00019194
0.000195536
0.000186898
0.000176698
0.00017074
0.000173575
0.000177033
0.00051812
0.000516958
0.000480237
0.000431215
0.000456132
0.000477889
0.000468779
0.00248285
0.0026044
0.0025906
0.0025082
0.00249685
0.00245843
0.0023715
0.00187056
0.00194438
0.00207395
0.00214792
0.00199508
0.0019097
0.00187731
0.000103485
9.0062e-05
7.92425e-05
7.40925e-05
8.03901e-05
0.000101648
0.000135264
0.000167054
0.000168605
0.000197486
0.000249813
0.000259679
0.000228626
0.000222287
0.000447504
0.000459962
0.000538821
0.000616415
0.000685481
0.000650709
0.000615692
0.00232286
0.00238356
0.00228999
0.00241032
0.00269978
0.00307341
0.00269401
0.00234079
0.00320222
0.00387219
0.00425703
0.0040277
0.00285119
0.00202734
0.000102591
9.50639e-05
8.42791e-05
7.34829e-05
6.26195e-05
5.23609e-05
4.29895e-05
3.45057e-05
9.38784e-05
8.80086e-05
7.91665e-05
6.87626e-05
5.871e-05
4.91342e-05
4.03154e-05
3.22854e-05
8.94594e-05
8.41126e-05
7.64809e-05
6.64875e-05
5.67595e-05
4.75766e-05
3.90745e-05
3.1285e-05
9.06763e-05
8.50818e-05
7.78528e-05
6.88571e-05
5.83215e-05
4.79171e-05
3.90159e-05
3.11907e-05
9.37915e-05
8.85685e-05
8.01544e-05
6.9489e-05
5.91828e-05
4.95173e-05
4.06257e-05
3.25211e-05
0.000100281
9.46485e-05
8.52323e-05
7.39252e-05
6.30977e-05
5.29005e-05
4.34745e-05
3.48749e-05
0.000105719
9.88662e-05
8.92393e-05
7.83951e-05
6.7307e-05
5.67409e-05
4.6935e-05
3.79373e-05
0.000157301
0.000129155
9.98544e-05
7.58863e-05
5.82796e-05
4.55173e-05
3.6116e-05
2.92312e-05
0.000152954
0.000126393
9.80565e-05
7.50978e-05
5.78756e-05
4.52623e-05
3.58967e-05
2.89844e-05
0.00014939
0.000124237
9.67462e-05
7.44375e-05
5.75881e-05
4.51376e-05
3.58248e-05
2.89019e-05
0.000149227
0.00012438
9.74963e-05
7.4796e-05
5.75644e-05
4.50968e-05
3.58803e-05
2.90404e-05
0.000152491
0.000126651
9.8368e-05
7.5619e-05
5.86053e-05
4.60806e-05
3.67169e-05
2.97473e-05
0.000158453
0.000131229
0.000101585
7.7825e-05
6.01983e-05
4.73423e-05
3.77947e-05
3.07329e-05
0.000160708
0.000133165
0.000103046
7.8718e-05
6.09849e-05
4.81869e-05
3.87327e-05
3.17551e-05
0.000361702
0.000266895
0.000171832
0.000108543
7.10022e-05
4.87869e-05
3.53571e-05
2.73131e-05
0.000350418
0.00025892
0.000168467
0.000107524
7.09693e-05
4.91477e-05
3.5858e-05
2.78462e-05
0.000344538
0.000255395
0.000167167
0.000107313
7.11538e-05
4.94307e-05
3.61261e-05
2.80618e-05
0.000344471
0.000255331
0.000166843
0.000107252
7.12629e-05
4.96028e-05
3.63413e-05
2.83108e-05
0.000355315
0.000261674
0.00016886
0.00010775
7.13899e-05
4.96879e-05
3.6434e-05
2.84155e-05
0.000376092
0.000271409
0.000171922
0.000108562
7.15529e-05
4.97213e-05
3.64968e-05
2.85487e-05
0.00038823
0.000279136
0.000175238
0.000109717
7.18551e-05
4.97498e-05
3.64651e-05
2.85174e-05
0.00164758
0.000763771
0.00031223
0.000144916
7.77954e-05
4.71413e-05
3.16912e-05
2.3676e-05
0.00161501
0.000749267
0.00030774
0.000143787
7.77824e-05
4.75325e-05
3.22558e-05
2.43417e-05
0.00159089
0.000738774
0.000304901
0.000143282
7.78998e-05
4.7789e-05
3.25173e-05
2.45764e-05
0.00156639
0.000727178
0.000301479
0.000142443
7.7751e-05
4.78393e-05
3.26463e-05
2.47514e-05
0.00154612
0.000717966
0.000298923
0.000141744
7.74405e-05
4.76052e-05
3.24264e-05
2.45332e-05
0.00152915
0.000712108
0.000297649
0.000141233
7.70121e-05
4.72333e-05
3.21258e-05
2.42923e-05
0.00155048
0.00072917
0.000305709
0.000144273
7.79506e-05
4.73855e-05
3.19601e-05
2.39329e-05
0.00138987
0.00082714
0.00034876
0.000151993
7.42939e-05
4.134e-05
2.62703e-05
1.92308e-05
0.00137549
0.000821051
0.00034808
0.000152316
7.47452e-05
4.17784e-05
2.67047e-05
1.97005e-05
0.00135928
0.000813218
0.000345928
0.00015176
7.46499e-05
4.18209e-05
2.67898e-05
1.98004e-05
0.00134561
0.000806458
0.000343694
0.000150995
7.43805e-05
4.17411e-05
2.67972e-05
1.98555e-05
0.00134142
0.000804486
0.000342225
0.000150065
7.37572e-05
4.12795e-05
2.64191e-05
1.95053e-05
0.00135911
0.000812565
0.000343325
0.000149736
7.32983e-05
4.09126e-05
2.61353e-05
1.92448e-05
0.00145537
0.000862095
0.000360787
0.000156006
7.57576e-05
4.20124e-05
2.66326e-05
1.93353e-05
0.000129399
0.000121188
0.000108708
9.42781e-05
8.00688e-05
6.69174e-05
5.51398e-05
4.46917e-05
9.68435e-05
8.94413e-05
8.33644e-05
7.70529e-05
6.87772e-05
5.9615e-05
5.02812e-05
4.14395e-05
7.51092e-05
6.72034e-05
6.08398e-05
5.49078e-05
4.89669e-05
4.32467e-05
3.76626e-05
3.19014e-05
6.89727e-05
6.11312e-05
5.39832e-05
4.7199e-05
4.08676e-05
3.53227e-05
3.06232e-05
2.57472e-05
7.76656e-05
7.03403e-05
6.38232e-05
5.70816e-05
5.05103e-05
4.45284e-05
3.87116e-05
3.27313e-05
9.57773e-05
8.95502e-05
8.41972e-05
7.63685e-05
6.72669e-05
5.80319e-05
4.88377e-05
4.00479e-05
0.000114197
0.000107749
9.78658e-05
8.57412e-05
7.34034e-05
6.17395e-05
5.10313e-05
4.14482e-05
0.00018953
0.000153061
0.000114218
8.36073e-05
6.215e-05
4.74781e-05
3.73026e-05
3.02049e-05
0.000178159
0.000142218
0.0001124
8.76465e-05
6.81885e-05
5.35829e-05
4.27111e-05
3.46144e-05
0.00019894
0.000152801
0.000117138
9.05418e-05
7.06873e-05
5.56748e-05
4.35932e-05
3.40702e-05
0.0002045
0.000160196
0.000125101
9.82543e-05
7.75868e-05
6.1695e-05
4.86117e-05
3.82928e-05
0.000173734
0.000134497
0.000103367
7.99806e-05
6.25995e-05
4.94856e-05
3.89603e-05
3.0685e-05
0.000159846
0.000130028
0.000102279
7.90256e-05
6.12272e-05
4.80538e-05
3.82008e-05
3.09728e-05
0.000166285
0.000137588
0.000105005
7.83257e-05
5.90638e-05
4.55676e-05
3.60175e-05
2.92623e-05
0.00047324
0.000328609
0.000198988
0.000118981
7.41879e-05
4.89995e-05
3.44223e-05
2.59122e-05
0.00043985
0.000295279
0.000212186
0.000145906
0.000100748
7.16112e-05
5.2729e-05
4.04812e-05
0.000476589
0.00029474
0.000192627
0.000133904
9.75419e-05
7.31751e-05
5.56989e-05
4.27736e-05
0.0004473
0.000277678
0.000182626
0.000127812
9.32573e-05
6.97786e-05
5.29524e-05
4.06954e-05
0.000424734
0.000259629
0.000167399
0.00011488
8.31209e-05
6.28105e-05
4.87814e-05
3.82289e-05
0.000385513
0.00026253
0.000183774
0.000123875
8.45887e-05
5.98196e-05
4.39954e-05
3.38365e-05
0.000402686
0.000292725
0.000183605
0.000112812
7.18787e-05
4.82546e-05
3.429e-05
2.60232e-05
0.00185495
0.000859313
0.000351331
0.000159661
8.2939e-05
4.85195e-05
3.1518e-05
2.26881e-05
0.00220381
0.00112831
0.00050364
0.000244631
0.000135692
8.44275e-05
5.75308e-05
4.25435e-05
0.00207857
0.00113593
0.000582769
0.000323059
0.00019947
0.00013566
9.86407e-05
7.41539e-05
0.00179978
0.000921368
0.000437773
0.000225118
0.00012981
8.31817e-05
5.78809e-05
4.27966e-05
0.00188545
0.00100641
0.000501546
0.000270488
0.000163158
0.000108526
7.78364e-05
5.92418e-05
0.00196715
0.000991502
0.000434225
0.000208609
0.000114878
7.119e-05
4.84467e-05
3.57822e-05
0.00175808
0.000817534
0.000335827
0.000154539
8.14519e-05
4.82588e-05
3.16588e-05
2.29912e-05
0.00149456
0.000864349
0.000355623
0.000152975
7.43884e-05
4.1505e-05
2.64853e-05
1.91997e-05
0.00189739
0.00112385
0.000502431
0.000237275
0.000126719
7.67997e-05
5.20144e-05
3.87872e-05
0.00244365
0.00148753
0.000743828
0.000396324
0.000236908
0.000158927
0.000117622
9.43551e-05
0.00263713
0.00159483
0.000800035
0.000418979
0.000234231
0.000137432
8.42304e-05
5.55368e-05
0.00240043
0.00145973
0.000715731
0.000370497
0.000213474
0.000136931
9.66902e-05
7.47345e-05
0.0019156
0.00113419
0.000503255
0.000234426
0.00012302
7.31181e-05
4.85325e-05
3.55572e-05
0.00152471
0.000889507
0.000371562
0.000161456
7.89365e-05
4.40034e-05
2.78989e-05
2.00917e-05
0.000113294
0.000107314
9.69073e-05
8.42947e-05
7.1607e-05
5.99436e-05
4.945e-05
4.00475e-05
8.50677e-05
8.19828e-05
8.05781e-05
7.49833e-05
6.53628e-05
5.5292e-05
4.62908e-05
3.81219e-05
5.65869e-05
5.24513e-05
4.89838e-05
4.48693e-05
4.03416e-05
3.54427e-05
3.06439e-05
2.60077e-05
6.01548e-05
5.35047e-05
4.72878e-05
4.12746e-05
3.60523e-05
3.08565e-05
2.60427e-05
2.17088e-05
7.54627e-05
6.87236e-05
6.26256e-05
5.69105e-05
5.0378e-05
4.26547e-05
3.50328e-05
2.83888e-05
9.52153e-05
9.03346e-05
8.43963e-05
7.55448e-05
6.46404e-05
5.37326e-05
4.39673e-05
3.55934e-05
0.000104434
9.76169e-05
8.81681e-05
7.69365e-05
6.54819e-05
5.4706e-05
4.49671e-05
3.62111e-05
0.000171673
0.000139946
0.00010565
7.82345e-05
5.8865e-05
4.54664e-05
3.6019e-05
2.92912e-05
0.000173235
0.000145209
0.000114829
8.75609e-05
6.71629e-05
5.27694e-05
4.23449e-05
3.43931e-05
0.000161864
0.000131581
0.000104474
8.27705e-05
6.53671e-05
5.17981e-05
4.08735e-05
3.18274e-05
0.000151206
0.000118439
9.03758e-05
6.89594e-05
5.26341e-05
4.06755e-05
3.18773e-05
2.53184e-05
0.000148145
0.000118702
9.26168e-05
7.19945e-05
5.54002e-05
4.26545e-05
3.30082e-05
2.56441e-05
0.000155604
0.000130061
0.000102197
7.81141e-05
5.97889e-05
4.63652e-05
3.66951e-05
2.95769e-05
0.000160772
0.00013339
0.000102983
7.78148e-05
5.91665e-05
4.57665e-05
3.61289e-05
2.92222e-05
0.00040981
0.00029522
0.000184026
0.000112999
7.22951e-05
4.8882e-05
3.50108e-05
2.6749e-05
0.000392288
0.00029
0.000195433
0.000128737
8.74469e-05
6.21306e-05
4.60137e-05
3.55226e-05
0.000351345
0.000242247
0.000181261
0.000136242
0.000102591
7.92755e-05
6.33818e-05
5.20686e-05
0.000309133
0.000200675
0.000139203
0.00010127
7.49519e-05
5.55524e-05
4.08734e-05
3.0025e-05
0.000331622
0.000222595
0.000163471
0.000116504
8.38126e-05
6.26117e-05
4.85265e-05
3.84622e-05
0.000365201
0.000266485
0.000178327
0.000116082
7.75677e-05
5.41514e-05
3.95387e-05
3.03262e-05
0.000366869
0.000271487
0.000175353
0.000110651
7.21271e-05
4.93386e-05
3.55884e-05
2.73582e-05
0.00173185
0.000793741
0.000321644
0.000147233
7.7818e-05
4.64881e-05
3.08467e-05
2.27019e-05
0.00184129
0.000864679
0.000358005
0.000168027
9.25697e-05
5.82703e-05
4.06142e-05
3.09441e-05
0.001876
0.000924024
0.000399172
0.000193546
0.000112874
7.7466e-05
5.96522e-05
4.98101e-05
0.00187041
0.000971541
0.000459631
0.000249388
0.000160378
0.000116832
9.0204e-05
6.89581e-05
0.00180743
0.000889904
0.000380034
0.000184276
0.000108092
7.46259e-05
5.75526e-05
4.73874e-05
0.00175112
0.000826924
0.000340851
0.000159235
8.74357e-05
5.49827e-05
3.83807e-05
2.92154e-05
0.00168682
0.000783759
0.000319844
0.000147983
7.93931e-05
4.81774e-05
3.24075e-05
2.41281e-05
0.00140075
0.000821286
0.000340492
0.000146526
7.09853e-05
3.92895e-05
2.48842e-05
1.80757e-05
0.00141408
0.000833075
0.000351076
0.000154883
7.79039e-05
4.52293e-05
3.01065e-05
2.28491e-05
0.00147079
0.000871646
0.00037624
0.000172997
9.30654e-05
5.92293e-05
4.3751e-05
3.66776e-05
0.0015147
0.000909443
0.000409011
0.000204632
0.000126495
9.67327e-05
8.67795e-05
8.56891e-05
0.00143705
0.000850971
0.000365374
0.000168585
9.22721e-05
6.0681e-05
4.66086e-05
4.00591e-05
0.00140081
0.000828797
0.000350016
0.000154836
7.82925e-05
4.59022e-05
3.09407e-05
2.36819e-05
0.00139284
0.000826817
0.000347961
0.000151841
7.458e-05
4.18166e-05
2.67703e-05
1.96538e-05
9.97623e-05
9.39445e-05
8.63716e-05
7.67867e-05
6.65546e-05
5.65718e-05
4.71991e-05
3.85297e-05
8.70063e-05
7.88955e-05
7.11973e-05
6.40107e-05
5.71083e-05
4.97344e-05
4.23297e-05
3.51177e-05
7.38739e-05
6.5489e-05
5.83301e-05
5.19345e-05
4.60621e-05
4.03095e-05
3.46432e-05
2.91866e-05
6.80856e-05
5.89352e-05
5.12946e-05
4.47546e-05
3.88904e-05
3.36278e-05
2.85213e-05
2.40473e-05
7.53533e-05
6.75034e-05
6.06468e-05
5.46405e-05
4.87547e-05
4.29521e-05
3.71617e-05
3.14938e-05
9.71686e-05
8.9167e-05
8.12134e-05
7.49255e-05
6.75685e-05
5.913e-05
5.0375e-05
4.18303e-05
0.00013234
0.000123417
0.000110047
9.49066e-05
8.02114e-05
6.68899e-05
5.50979e-05
4.46509e-05
0.000151208
0.000127429
0.00010041
7.74553e-05
6.01706e-05
4.75624e-05
3.82712e-05
3.14417e-05
0.000145775
0.000116244
9.04005e-05
7.09186e-05
5.62138e-05
4.51229e-05
3.67025e-05
3.02159e-05
0.000164276
0.000125256
9.53445e-05
7.36177e-05
5.76086e-05
4.54206e-05
3.59301e-05
2.83843e-05
0.000207799
0.000161156
0.000125015
9.72938e-05
7.60846e-05
5.95887e-05
4.65881e-05
3.62445e-05
0.000212759
0.000161379
0.000122719
9.4632e-05
7.39989e-05
5.8078e-05
4.54965e-05
3.54374e-05
0.00019196
0.000149176
0.000116299
9.11768e-05
7.13259e-05
5.62369e-05
4.49901e-05
3.64896e-05
0.000197197
0.000157269
0.000116046
8.41425e-05
6.22004e-05
4.74296e-05
3.72906e-05
3.02439e-05
0.000351525
0.000264748
0.000174167
0.000111794
7.39837e-05
5.13363e-05
3.75019e-05
2.90719e-05
0.000329905
0.000212374
0.000147247
0.000107193
7.82202e-05
5.81446e-05
4.42807e-05
3.47566e-05
0.000373694
0.000226126
0.00014523
9.97808e-05
7.17268e-05
5.31635e-05
4.02803e-05
3.11489e-05
0.000431418
0.000267756
0.000176197
0.00012332
8.99023e-05
6.70654e-05
5.06485e-05
3.86217e-05
0.000478605
0.000295903
0.000194421
0.000136165
9.98089e-05
7.51795e-05
5.75882e-05
4.45342e-05
0.000466659
0.000311399
0.000226615
0.000157394
0.000108804
7.69646e-05
5.62028e-05
4.26226e-05
0.000486464
0.000335016
0.000201895
0.000120268
7.47593e-05
4.92725e-05
3.45704e-05
2.60025e-05
0.00166835
0.000808079
0.000346875
0.000164958
8.91107e-05
5.4046e-05
3.62451e-05
2.67447e-05
0.00176225
0.00092532
0.000430036
0.000214357
0.000121351
7.71736e-05
5.35365e-05
3.97845e-05
0.00161548
0.000809397
0.000377011
0.000195455
0.000117129
7.9478e-05
5.85008e-05
4.5161e-05
0.00168527
0.000849382
0.000404006
0.000212413
0.00012617
8.24772e-05
5.75663e-05
4.21253e-05
0.00196523
0.00105307
0.000538553
0.000304316
0.000191939
0.000132281
9.73108e-05
7.42154e-05
0.00224789
0.00115914
0.000523774
0.000256955
0.00014259
8.80357e-05
5.91854e-05
4.29463e-05
0.00185939
0.00086222
0.000353786
0.000161195
8.37628e-05
4.89376e-05
3.17191e-05
2.27698e-05
0.00175378
0.00103954
0.000445018
0.000195834
9.60973e-05
5.38177e-05
3.42902e-05
2.4607e-05
0.00224067
0.00136099
0.000623318
0.000291701
0.000150705
8.84835e-05
5.83543e-05
4.22038e-05
0.00254596
0.00153037
0.000730158
0.000361112
0.000199334