/*--------------------------------*- C++ -*----------------------------------*\
| =========                 |                                                 |
| \\      /  F ield         | OpenFOAM: The Open Source CFD Toolbox           |
|  \\    /   O peration     | Version:  plus.master.MPPICInterFoam            |
|   \\  /    A nd           | Web:      www.OpenFOAM.com                      |
|    \\/     M anipulation  |                                                 |
\*---------------------------------------------------------------------------*/
FoamFile
{
    version     2.0;
    format      ascii;
    class       volScalarField;
    location    "6.8";
    object      p;
}
// * * * * * * * * * * * * * * * * * * * * * * * * * * * * * * * * * * * * * //

dimensions      [1 -1 -2 0 0 0 0];

internalField   nonuniform List<scalar> 
11821
(
5637.31
5635.08
5634.32
5634.66
5634.42
5635.35
5636.86
5635.08
5645.57
5637.05
5638.01
5637.93
5645.54
5634.86
5634.05
5637.41
5638.68
5636.38
5639.12
5636.87
5633.97
5634.34
5637.66
5634.99
5638.46
5636.92
5638.83
5635.08
5634.14
5637.21
5638.55
5635.98
5638.99
5636.69
5634.2
5635.08
5645.42
5636.95
5637.98
5637.81
5645.33
5635.13
5637.11
5634.6
5633.73
5634.18
5634
5635.11
5636.82
5519.02
5520.81
5522.45
5522.87
5521.93
5520.22
5518.35
5520.8
5525.85
5528.04
5529.66
5527.09
5523.92
5520.16
5522.31
5528.48
5544.78
5545.93
5542.28
5526.52
5521.7
5522.76
5531.73
5546.87
5554.49
5542.44
5527.03
5522.25
5522.32
5528.63
5544.74
5546.52
5542.1
5526.41
5521.67
5520.78
5525.36
5527.91
5530.29
5526.99
5523.88
5520.15
5519.01
5520.81
5522.35
5522.83
5521.91
5520.22
5518.33
5394.11
5397.59
5400.45
5401.17
5399.23
5395.99
5392.39
5397.74
5402.89
5408.38
5410.42
5405.95
5400.74
5395.66
5400.52
5408.29
5424.04
5427.75
5417.06
5405.1
5398.3
5402.12
5416.07
5431.14
5438.01
5417.34
5405.89
5399.08
5400.78
5408.53
5424.47
5429.35
5417.02
5405.09
5398.3
5397.85
5402.93
5408.2
5411.86
5406.07
5400.8
5395.67
5394.21
5397.68
5400.48
5401.6
5399.42
5396.09
5392.42
5258.96
5264.03
5268.15
5269.13
5265.8
5260.69
5255.45
5264.74
5272.33
5279.9
5282.5
5275.53
5267.45
5260.07
5269.64
5280.24
5295.71
5299.81
5286.78
5273.58
5263.86
5272.91
5288.17
5305.26
5311.29
5287.39
5275.29
5265.11
5270.11
5281.16
5296.14
5301.36
5287.15
5273.73
5263.91
5265.13
5272.92
5280.43
5283.42
5275.89
5267.72
5260.24
5259.36
5264.56
5268.7
5269.78
5266.26
5261.05
5255.75
5094.17
5098.92
5103.14
5104.28
5100.49
5095.14
5090.31
5099.74
5107.81
5115.74
5118.49
5110.94
5101.84
5094.39
5104.99
5117.1
5129.55
5132.93
5121.14
5108.36
5098.07
5107.96
5123.65
5138.02
5142.55
5120.16
5110.16
5099.3
5104.83
5116.85
5129.09
5133.51
5120.74
5108.11
5097.95
5099.63
5107.7
5115.51
5118.61
5110.78
5101.74
5094.33
5094.17
5098.94
5103.17
5104.44
5100.53
5095.18
5090.35
5638.72
5639.9
5640.51
5640.91
5641.16
5641.29
5641.34
5641.35
5637.84
5639.66
5640.36
5640.85
5641.13
5641.28
5641.34
5641.36
5637.46
5639.78
5640.52
5640.98
5641.21
5641.31
5641.38
5641.4
5638.09
5640.15
5640.71
5641.08
5641.3
5641.32
5641.35
5641.38
5637.42
5639.74
5640.6
5641.03
5641.26
5641.34
5641.39
5641.42
5637.74
5639.52
5640.42
5640.87
5641.15
5641.28
5641.34
5641.36
5638.67
5639.84
5640.52
5640.93
5641.17
5641.29
5641.34
5641.35
5516.83
5515.74
5514.86
5514.16
5513.59
5513.15
5512.79
5512.51
5518.05
5516.52
5515.35
5514.46
5513.78
5513.25
5512.84
5512.53
5519.1
5517.23
5515.8
5514.74
5513.95
5513.34
5512.89
5512.55
5519.54
5517.55
5516.02
5514.89
5514.05
5513.41
5512.93
5512.58
5519.08
5517.2
5515.79
5514.74
5513.96
5513.37
5512.91
5512.57
5518.03
5516.5
5515.36
5514.48
5513.81
5513.28
5512.88
5512.57
5516.81
5515.73
5514.87
5514.18
5513.63
5513.19
5512.85
5512.58
5389.39
5387.23
5385.5
5384.13
5383.06
5382.23
5381.63
5381.24
5391.6
5388.67
5386.41
5384.69
5383.37
5382.39
5381.69
5381.25
5393.39
5389.86
5387.15
5385.13
5383.62
5382.51
5381.73
5381.25
5394.02
5390.31
5387.45
5385.31
5383.73
5382.57
5381.77
5381.26
5393.46
5389.92
5387.2
5385.17
5383.66
5382.55
5381.77
5381.28
5391.57
5388.67
5386.45
5384.75
5383.44
5382.46
5381.76
5381.31
5389.42
5387.28
5385.58
5384.22
5383.16
5382.33
5381.73
5381.33
5251.37
5248.62
5246.69
5245.44
5244.83
5244.84
5245.51
5246.79
5254.37
5250.49
5247.75
5245.95
5244.99
5244.8
5245.41
5246.76
5256.84
5252
5248.57
5246.34
5245.1
5244.77
5245.33
5246.71
5257.73
5252.6
5248.94
5246.55
5245.22
5244.83
5245.36
5246.76
5256.88
5252.07
5248.67
5246.45
5245.23
5244.91
5245.46
5246.85
5254.55
5250.68
5247.96
5246.19
5245.24
5245.07
5245.69
5247.04
5251.72
5249.01
5247.11
5245.88
5245.29
5245.32
5246
5247.28
5087.09
5084.95
5083.55
5082.71
5082.23
5081.7
5080.89
5081.62
5089.47
5086.34
5084.27
5083
5082.28
5081.62
5080.63
5081.16
5091.46
5087.38
5084.74
5083.14
5082.24
5081.47
5080.36
5080.8
5092.2
5087.81
5084.96
5083.25
5082.29
5081.48
5080.34
5080.74
5091.42
5087.38
5084.76
5083.17
5082.27
5081.5
5080.39
5080.82
5089.46
5086.38
5084.33
5083.06
5082.33
5081.65
5080.63
5081.14
5087.24
5085.14
5083.75
5082.89
5082.39
5081.82
5080.94
5081.56
5639.16
5640.19
5640.84
5641.27
5641.52
5641.66
5641.73
5641.76
5638.42
5639.88
5640.72
5641.26
5641.56
5641.69
5641.71
5641.66
5638.3
5640
5640.78
5641.36
5641.67
5641.79
5641.85
5641.87
5638.48
5640.21
5640.96
5641.55
5641.91
5642.09
5642.16
5642.18
5638.27
5640.09
5640.85
5641.43
5641.78
5641.91
5641.89
5641.88
5638.39
5639.96
5640.8
5641.28
5641.53
5641.63
5641.69
5641.76
5639.27
5640.28
5640.91
5641.33
5641.58
5641.71
5641.79
5641.82
5517.54
5516.44
5515.56
5514.85
5514.28
5513.81
5513.44
5513.14
5518.83
5517.31
5516.15
5515.25
5514.54
5513.98
5513.53
5513.17
5520
5518.16
5516.73
5515.65
5514.83
5514.18
5513.66
5513.26
5520.53
5518.61
5517.08
5515.94
5515.07
5514.41
5513.88
5513.47
5520
5518.18
5516.74
5515.67
5514.85
5514.21
5513.7
5513.29
5518.84
5517.32
5516.15
5515.25
5514.54
5513.98
5513.53
5513.19
5517.53
5516.44
5515.55
5514.84
5514.26
5513.78
5513.4
5513.1
5391.06
5388.79
5386.96
5385.5
5384.33
5383.41
5382.71
5382.21
5393.61
5390.48
5388.05
5386.19
5384.74
5383.64
5382.82
5382.26
5395.73
5391.99
5389.05
5386.81
5385.12
5383.86
5382.93
5382.3
5396.77
5392.81
5389.58
5387.14
5385.33
5383.99
5383.02
5382.35
5395.65
5391.94
5389.02
5386.8
5385.12
5383.86
5382.94
5382.31
5393.54
5390.42
5388.01
5386.15
5384.72
5383.63
5382.82
5382.26
5390.96
5388.7
5386.89
5385.43
5384.27
5383.36
5382.67
5382.18
5254.79
5251.75
5249.58
5248.13
5247.35
5247.21
5247.74
5248.87
5258.49
5254
5250.83
5248.72
5247.5
5247.1
5247.5
5248.67
5261.85
5256.11
5251.99
5249.26
5247.65
5247.01
5247.31
5248.45
5263.7
5257.31
5252.63
5249.56
5247.75
5247
5247.22
5248.32
5261.58
5255.94
5251.87
5249.17
5247.57
5246.95
5247.25
5248.41
5258.23
5253.78
5250.64
5248.55
5247.34
5246.96
5247.38
5248.55
5254.43
5251.39
5249.23
5247.79
5247
5246.87
5247.39
5248.52
5090.59
5088.23
5086.63
5085.6
5084.96
5084.28
5083.33
5083.86
5093.63
5089.97
5087.53
5086
5085.09
5084.28
5083.21
5083.67
5096.61
5091.53
5088.21
5086.18
5084.98
5084.03
5082.88
5083.46
5098.37
5092.47
5088.66
5086.37
5085.07
5084.08
5082.94
5083.7
5096.68
5091.56
5088.25
5086.23
5085.07
5084.15
5083.03
5083.58
5093.71
5090
5087.57
5086.07
5085.19
5084.44
5083.41
5083.92
5090.5
5088.09
5086.48
5085.47
5084.88
5084.27
5083.39
5084.02
5639.29
5640.3
5640.94
5641.35
5641.61
5641.76
5641.84
5641.86
5638.48
5640.08
5640.9
5641.39
5641.66
5641.78
5641.79
5641.78
5638.36
5640.26
5641.02
5641.62
5641.97
5642.11
5642.11
5642.04
5638.76
5640.43
5641.07
5641.61
5641.94
5642.12
5642.21
5642.23
5638.52
5640.15
5640.81
5641.3
5641.59
5641.75
5641.75
5641.66
5638.57
5639.95
5640.66
5641.11
5641.38
5641.49
5641.48
5641.46
5638.95
5639.98
5640.57
5640.98
5641.27
5641.44
5641.55
5641.62
5517.53
5516.44
5515.56
5514.85
5514.27
5513.79
5513.4
5513.1
5518.83
5517.33
5516.16
5515.26
5514.53
5513.94
5513.47
5513.09
5520.05
5518.25
5516.82
5515.75
5514.93
5514.29
5513.78
5513.36
5520.35
5518.41
5516.92
5515.81
5514.96
5514.3
5513.77
5513.36
5519.58
5517.78
5516.38
5515.32
5514.5
5513.86
5513.36
5512.96
5518.29
5516.81
5515.67
5514.77
5514.07
5513.51
5513.06
5512.7
5516.91
5515.83
5514.96
5514.26
5513.7
5513.24
5512.88
5512.6
5390.93
5388.67
5386.85
5385.39
5384.22
5383.31
5382.62
5382.14
5393.31
5390.23
5387.82
5385.96
5384.52
5383.41
5382.59
5382.03
5395.29
5391.63
5388.76
5386.57
5384.9
5383.66
5382.76
5382.14
5395.71
5391.86
5388.85
5386.56
5384.84
5383.57
5382.66
5382.05
5394.34
5390.78
5388.01
5385.9
5384.3
5383.1
5382.23
5381.64
5392.02
5389.09
5386.81
5385.05
5383.69
5382.65
5381.89
5381.38
5389.51
5387.39
5385.66
5384.28
5383.18
5382.34
5381.71
5381.3
5254.24
5251.24
5249.06
5247.59
5246.77
5246.59
5247.07
5248.17
5257.39
5253
5249.84
5247.72
5246.48
5246.04
5246.39
5247.49
5260.13
5254.73
5250.78
5248.12
5246.54
5245.91
5246.19
5247.27
5260.68
5255
5250.81
5247.97
5246.29
5245.6
5245.84
5246.89
5258.4
5253.29
5249.58
5247.1
5245.64
5245.1
5245.43
5246.55
5254.9
5250.91
5248.05
5246.14
5245.05
5244.73
5245.18
5246.37
5251.52
5248.84
5246.88
5245.59
5244.92
5244.87
5245.46
5246.68
5090.39
5088.07
5086.44
5085.39
5084.73
5084.06
5083.18
5083.9
5092.67
5089.03
5086.62
5085.16
5084.33
5083.56
5082.63
5083.58
5094.99
5090.07
5086.85
5084.96
5083.94
5083.15
5082.21
5083.5
5095.44
5090.13
5086.65
5084.64
5083.61
5082.85
5081.96
5083.49
5093.15
5088.64
5085.7
5084.01
5083.12
5082.41
5081.52
5082.86
5089.97
5086.81
5084.74
5083.49
5082.81
5082.2
5081.35
5082.42
5087.45
5085.49
5084.09
5083.21
5082.68
5082.13
5081.26
5082.14
5638.92
5639.9
5640.53
5640.97
5641.24
5641.41
5641.51
5641.56
5638.5
5639.95
5640.6
5641.07
5641.33
5641.46
5641.49
5641.48
5638.36
5640.22
5640.75
5641.29
5641.57
5641.68
5641.68
5641.62
5638.35
5640.34
5640.91
5641.49
5641.82
5642.01
5642.09
5642.09
5638.11
5640.29
5640.85
5641.43
5641.75
5641.91
5641.96
5641.94
5638.14
5640.08
5640.8
5641.33
5641.62
5641.75
5641.8
5641.79
5639.12
5640.22
5640.84
5641.27
5641.52
5641.66
5641.73
5641.75
5516.89
5515.82
5514.96
5514.27
5513.72
5513.27
5512.92
5512.64
5518.26
5516.78
5515.64
5514.76
5514.07
5513.53
5513.09
5512.75
5519.54
5517.74
5516.34
5515.29
5514.48
5513.84
5513.34
5512.95
5520.31
5518.34
5516.81
5515.69
5514.84
5514.18
5513.68
5513.28
5519.96
5518.16
5516.74
5515.67
5514.84
5514.2
5513.69
5513.29
5518.83
5517.32
5516.13
5515.23
5514.52
5513.94
5513.49
5513.13
5517.51
5516.43
5515.55
5514.85
5514.27
5513.81
5513.43
5513.13
5389.56
5387.44
5385.73
5384.36
5383.28
5382.44
5381.83
5381.43
5392.1
5389.16
5386.89
5385.13
5383.77
5382.75
5382
5381.5
5394.48
5390.87
5388.07
5385.94
5384.33
5383.12
5382.25
5381.65
5395.93
5391.99
5388.91
5386.58
5384.83
5383.54
5382.61
5381.98
5395.39
5391.7
5388.79
5386.57
5384.9
5383.64
5382.73
5382.11
5393.41
5390.31
5387.89
5386.03
5384.59
5383.48
5382.67
5382.1
5391.02
5388.75
5386.93
5385.46
5384.29
5383.37
5382.67
5382.16
5251.91
5249.27
5247.36
5246.12
5245.5
5245.51
5246.17
5247.43
5255.28
5251.32
5248.51
5246.66
5245.64
5245.41
5245.96
5247.27
5258.81
5253.65
5249.93
5247.48
5246.07
5245.61
5246.05
5247.31
5261.19
5255.37
5251.1
5248.25
5246.6
5245.97
5246.3
5247.46
5260.58
5255.07
5251.08
5248.43
5246.9
5246.34
5246.71
5247.93
5257.85
5253.42
5250.28
5248.19
5247
5246.62
5247.05
5248.24
5254.64
5251.64
5249.46
5248.01
5247.22
5247.09
5247.62
5248.75
5087.53
5085.53
5084.13
5083.25
5082.73
5082.15
5081.29
5081.95
5090.09
5086.94
5084.84
5083.57
5082.85
5082.23
5081.33
5082.02
5093.2
5088.66
5085.68
5083.9
5082.92
5082.17
5081.22
5082.11
5095.5
5090.1
5086.55
5084.44
5083.3
5082.47
5081.5
5082.56
5095
5090.04
5086.79
5084.85
5083.78
5082.96
5081.97
5082.81
5092.75
5089.11
5086.7
5085.22
5084.37
5083.64
5082.67
5083.27
5090.39
5088.07
5086.45
5085.41
5084.78
5084.12
5083.18
5083.73
5641.34
5641.38
5641.38
5641.35
5641.4
5641.37
5641.34
5512.32
5512.34
5512.34
5512.37
5512.37
5512.38
5512.4
5381.07
5381.08
5381.07
5381.09
5381.1
5381.13
5381.15
5248.34
5248.41
5248.42
5248.49
5248.55
5248.68
5248.82
5088.31
5088.12
5087.98
5087.99
5087.98
5088.05
5088.13
5641.75
5641.65
5641.8
5642.17
5641.84
5641.72
5641.8
5512.93
5512.93
5512.98
5513.18
5513.01
5512.95
5512.88
5381.92
5381.95
5381.97
5382.01
5381.99
5381.96
5381.89
5250.21
5250.12
5249.91
5249.77
5249.88
5250
5249.88
5090.17
5090.39
5090.83
5091.52
5090.86
5090.66
5090.43
5641.84
5641.78
5641.96
5642.2
5641.57
5641.47
5641.62
5512.86
5512.81
5513.06
5513.05
5512.67
5512.45
5512.38
5381.85
5381.71
5381.79
5381.73
5381.32
5381.11
5381.09
5249.56
5248.86
5248.58
5248.15
5247.89
5247.85
5248.21
5090.49
5091.17
5092.34
5093
5091.79
5090.27
5089.02
5641.55
5641.48
5641.54
5642.06
5641.87
5641.76
5641.73
5512.44
5512.51
5512.67
5513
5513
5512.86
5512.91
5381.23
5381.25
5381.35
5381.66
5381.78
5381.79
5381.86
5248.94
5248.87
5248.88
5248.89
5249.44
5249.72
5250.11
5088.52
5089.09
5089.97
5091
5090.55
5090.16
5090.09
5641.29
5641.18
5641.09
5641.02
5640.96
5640.91
5640.84
5640.77
5641.38
5641.28
5641.17
5641.08
5641
5640.92
5640.85
5640.77
5641.35
5641.27
5641.17
5641.05
5640.97
5640.89
5640.81
5640.73
5641.3
5641.24
5641.19
5641.12
5640.99
5640.88
5640.8
5640.72
5641.33
5641.25
5641.16
5641.03
5640.95
5640.87
5640.79
5640.71
5641.36
5641.26
5641.14
5641.05
5640.96
5640.88
5640.8
5640.71
5641.26
5641.16
5641.08
5641
5640.92
5640.84
5640.77
5640.69
5512.05
5511.77
5511.54
5511.36
5511.23
5511.14
5511.07
5511.01
5512.08
5511.82
5511.59
5511.41
5511.27
5511.17
5511.09
5511.03
5512.09
5511.84
5511.6
5511.41
5511.27
5511.16
5511.08
5511.01
5512.12
5511.87
5511.65
5511.46
5511.3
5511.18
5511.09
5511.01
5512.11
5511.85
5511.61
5511.41
5511.26
5511.15
5511.07
5510.99
5512.13
5511.85
5511.6
5511.4
5511.25
5511.14
5511.05
5510.98
5512.15
5511.84
5511.57
5511.36
5511.21
5511.09
5511.01
5510.93
5380.92
5380.85
5380.89
5380.96
5381.03
5381.09
5381.12
5381.13
5380.96
5380.9
5380.94
5381.02
5381.09
5381.13
5381.16
5381.17
5380.96
5380.9
5380.95
5381.02
5381.09
5381.13
5381.16
5381.16
5380.97
5380.91
5380.96
5381.03
5381.1
5381.14
5381.17
5381.16
5380.98
5380.91
5380.95
5381.02
5381.08
5381.12
5381.14
5381.14
5381
5380.92
5380.96
5381.02
5381.07
5381.11
5381.13
5381.13
5380.98
5380.91
5380.94
5380.99
5381.03
5381.06
5381.08
5381.07
5250.01
5250.26
5250.43
5250.6
5250.77
5250.91
5251.03
5251.12
5250.11
5250.34
5250.51
5250.68
5250.84
5250.98
5251.09
5251.18
5250.13
5250.37
5250.53
5250.7
5250.85
5250.98
5251.09
5251.17
5250.2
5250.43
5250.59
5250.74
5250.88
5251.01
5251.11
5251.18
5250.25
5250.46
5250.59
5250.73
5250.87
5250.99
5251.09
5251.16
5250.35
5250.51
5250.62
5250.74
5250.87
5250.98
5251.07
5251.15
5250.44
5250.55
5250.63
5250.73
5250.83
5250.93
5251.02
5251.08
5102.28
5111.05
5115.48
5117.93
5119.34
5120.19
5120.71
5121.03
5102.11
5111.01
5115.48
5117.96
5119.38
5120.23
5120.75
5121.07
5101.97
5110.94
5115.46
5117.94
5119.38
5120.23
5120.75
5121.06
5101.95
5110.94
5115.46
5117.95
5119.39
5120.24
5120.76
5121.07
5101.96
5110.95
5115.47
5117.95
5119.38
5120.23
5120.74
5121.05
5102.05
5111.01
5115.5
5117.97
5119.39
5120.23
5120.74
5121.05
5102.17
5111.08
5115.54
5117.97
5119.37
5120.19
5120.68
5120.98
5641.69
5641.59
5641.47
5641.36
5641.24
5641.14
5641.05
5640.95
5641.64
5641.51
5641.4
5641.28
5641.15
5641.04
5640.91
5640.8
5641.67
5641.47
5641.27
5641.08
5640.91
5640.78
5640.64
5640.5
5642.1
5641.91
5641.7
5641.47
5641.23
5641.04
5640.93
5640.79
5641.71
5641.51
5641.31
5641.11
5640.93
5640.8
5640.67
5640.53
5641.64
5641.54
5641.44
5641.32
5641.21
5641.11
5641
5640.88
5641.7
5641.59
5641.49
5641.38
5641.29
5641.2
5641.11
5641.02
5512.58
5512.18
5511.85
5511.59
5511.4
5511.25
5511.15
5511.06
5512.59
5512.23
5511.91
5511.63
5511.41
5511.24
5511.1
5510.99
5512.6
5512.17
5511.82
5511.52
5511.27
5511.06
5510.89
5510.75
5512.79
5512.36
5512.01
5511.72
5511.48
5511.29
5511.14
5511.04
5512.63
5512.2
5511.86
5511.58
5511.34
5511.12
5510.94
5510.78
5512.63
5512.27
5511.95
5511.69
5511.47
5511.3
5511.17
5511.07
5512.54
5512.15
5511.84
5511.6
5511.42
5511.29
5511.19
5511.11
5381.57
5381.4
5381.32
5381.28
5381.25
5381.22
5381.19
5381.15
5381.62
5381.38
5381.28
5381.24
5381.21
5381.18
5381.15
5381.11
5381.65
5381.39
5381.22
5381.14
5381.05
5380.94
5380.84
5380.77
5381.68
5381.46
5381.34
5381.27
5381.22
5381.18
5381.15
5381.12
5381.68
5381.43
5381.29
5381.17
5381.08
5380.98
5380.89
5380.81
5381.63
5381.42
5381.33
5381.29
5381.26
5381.23
5381.21
5381.18
5381.56
5381.38
5381.31
5381.28
5381.26
5381.24
5381.22
5381.19
5251.51
5251.28
5251.14
5251.08
5251.07
5251.09
5251.11
5251.14
5251.47
5251.34
5251.21
5251.15
5251.13
5251.13
5251.14
5251.15
5251.44
5251.44
5251.33
5251.19
5251.06
5250.95
5250.85
5250.79
5251.44
5251.57
5251.5
5251.4
5251.32
5251.25
5251.21
5251.18
5251.38
5251.37
5251.25
5251.15
5251.05
5250.96
5250.88
5250.8
5251.38
5251.25
5251.16
5251.13
5251.13
5251.14
5251.16
5251.18
5251.24
5251.1
5251.02
5251.02
5251.05
5251.09
5251.14
5251.18
5103.63
5112.03
5116.19
5118.43
5119.69
5120.4
5120.83
5121.08
5103.76
5112.12
5116.26
5118.48
5119.71
5120.41
5120.82
5121.05
5104.04
5112.31
5116.39
5118.54
5119.68
5120.26
5120.52
5120.65
5104.55
5112.65
5116.69
5118.81
5119.93
5120.54
5120.86
5121.04
5104.07
5112.31
5116.37
5118.52
5119.67
5120.27
5120.56
5120.7
5103.97
5112.23
5116.31
5118.51
5119.74
5120.44
5120.84
5121.07
5103.84
5112.11
5116.21
5118.44
5119.7
5120.43
5120.87
5121.13
5641.72
5641.59
5641.46
5641.34
5641.24
5641.16
5641.09
5641.02
5641.69
5641.55
5641.44
5641.29
5641.12
5640.99
5640.89
5640.81
5641.81
5641.59
5641.4
5641.23
5641.06
5640.9
5640.76
5640.63
5642.1
5641.89
5641.65
5641.41
5641.2
5641
5640.84
5640.71
5641.42
5641.22
5641.07
5640.95
5640.82
5640.69
5640.57
5640.45
5641.37
5641.29
5641.22
5641.06
5640.93
5640.81
5640.72
5640.65
5641.53
5641.38
5641.25
5641.12
5641.01
5640.92
5640.85
5640.78
5512.52
5512.14
5511.83
5511.59
5511.42
5511.29
5511.21
5511.14
5512.43
5512.04
5511.75
5511.53
5511.34
5511.19
5511.08
5511
5512.63
5512.19
5511.85
5511.58
5511.36
5511.18
5511.04
5510.91
5512.64
5512.2
5511.85
5511.57
5511.35
5511.17
5511.03
5510.92
5512.28
5511.87
5511.56
5511.32
5511.13
5510.97
5510.85
5510.73
5512.1
5511.75
5511.5
5511.32
5511.15
5511.03
5510.93
5510.86
5512.08
5511.79
5511.54
5511.35
5511.21
5511.11
5511.04
5510.98
5381.53
5381.32
5381.26
5381.25
5381.26
5381.27
5381.27
5381.26
5381.38
5381.16
5381.07
5381.03
5381.04
5381.05
5381.06
5381.05
5381.46
5381.23
5381.14
5381.11
5381.11
5381.11
5381.11
5381.07
5381.41
5381.19
5381.08
5381.03
5380.99
5380.95
5380.91
5380.87
5381.02
5380.82
5380.76
5380.76
5380.79
5380.82
5380.83
5380.83
5380.87
5380.74
5380.73
5380.76
5380.81
5380.87
5380.91
5380.92
5380.9
5380.79
5380.83
5380.9
5380.98
5381.04
5381.08
5381.1
5250.94
5250.96
5250.96
5251
5251.07
5251.14
5251.21
5251.27
5250.48
5250.72
5250.78
5250.83
5250.89
5250.95
5251.02
5251.06
5250.08
5250.64
5250.98
5251.19
5251.28
5251.33
5251.35
5251.36
5249.59
5250.13
5250.44
5250.63
5250.75
5250.84
5250.91
5250.95
5249.47
5250.11
5250.5
5250.77
5250.9
5250.98
5251.03
5251.06
5249.69
5250.14
5250.35
5250.5
5250.63
5250.76
5250.86
5250.94
5249.89
5250.23
5250.43
5250.61
5250.77
5250.91
5251.03
5251.12
5103.79
5111.98
5116.1
5118.36
5119.65
5120.42
5120.89
5121.18
5104.05
5111.92
5115.95
5118.2
5119.52
5120.31
5120.79
5121.08
5104.98
5112.3
5116.06
5118.21
5119.53
5120.34
5120.86
5121.2
5105.33
5112.37
5116.05
5118.18
5119.47
5120.28
5120.8
5121.1
5104.52
5111.87
5115.69
5117.86
5119.22
5120.08
5120.62
5120.97
5103.24
5111.25
5115.4
5117.77
5119.18
5120.04
5120.58
5120.9
5102.65
5111.14
5115.47
5117.89
5119.31
5120.16
5120.69
5121.02
5641.46
5641.32
5641.19
5641.06
5640.94
5640.83
5640.74
5640.65
5641.41
5641.26
5641.11
5640.97
5640.83
5640.7
5640.58
5640.46
5641.41
5641.2
5641.01
5640.85
5640.7
5640.56
5640.42
5640.29
5641.95
5641.73
5641.49
5641.27
5641.06
5640.88
5640.73
5640.62
5641.75
5641.52
5641.29
5641.09
5640.9
5640.73
5640.57
5640.43
5641.67
5641.51
5641.35
5641.21
5641.07
5640.94
5640.82
5640.7
5641.65
5641.53
5641.41
5641.3
5641.19
5641.09
5641.01
5640.92
5512.15
5511.84
5511.57
5511.34
5511.17
5511.04
5510.94
5510.86
5512.19
5511.85
5511.57
5511.31
5511.1
5510.93
5510.8
5510.7
5512.29
5511.87
5511.53
5511.25
5511.02
5510.83
5510.67
5510.54
5512.62
5512.18
5511.82
5511.52
5511.29
5511.1
5510.96
5510.85
5512.6
5512.15
5511.78
5511.47
5511.22
5511
5510.82
5510.68
5512.51
5512.13
5511.81
5511.54
5511.32
5511.14
5511.01
5510.91
5512.57
5512.16
5511.82
5511.57
5511.37
5511.23
5511.12
5511.04
5381.04
5380.92
5380.92
5380.95
5380.98
5380.99
5380.99
5380.98
5381.02
5380.84
5380.81
5380.82
5380.83
5380.84
5380.83
5380.81
5381.08
5380.88
5380.8
5380.73
5380.7
5380.66
5380.6
5380.55
5381.35
5381.13
5381.03
5380.98
5380.95
5380.92
5380.9
5380.88
5381.46
5381.23
5381.11
5381.02
5380.97
5380.9
5380.82
5380.73
5381.47
5381.23
5381.14
5381.11
5381.09
5381.08
5381.05
5381.03
5381.5
5381.35
5381.28
5381.26
5381.23
5381.21
5381.18
5381.15
5250.51
5250.6
5250.66
5250.73
5250.8
5250.87
5250.94
5250.99
5250.49
5250.64
5250.67
5250.7
5250.74
5250.78
5250.82
5250.85
5250.66
5250.84
5250.84
5250.83
5250.78
5250.73
5250.67
5250.6
5250.52
5250.86
5250.94
5250.95
5250.94
5250.92
5250.91
5250.92
5251.14
5251.26
5251.2
5251.15
5251.07
5250.99
5250.91
5250.83
5251.16
5251.12
5251.03
5250.99
5250.99
5251.01
5251.03
5251.06
5251.46
5251.24
5251.11
5251.06
5251.06
5251.09
5251.12
5251.15
5102.45
5111.24
5115.63
5118.02
5119.38
5120.17
5120.64
5120.92
5102.83
5111.45
5115.74
5118.06
5119.36
5120.1
5120.53
5120.78
5103.41
5111.81
5115.99
5118.21
5119.42
5120.06
5120.37
5120.48
5104.32
5112.4
5116.41
5118.53
5119.67
5120.3
5120.63
5120.84
5103.82
5112.1
5116.22
5118.42
5119.63
5120.29
5120.64
5120.8
5103.59
5111.97
5116.12
5118.35
5119.6
5120.31
5120.73
5120.96
5103.58
5111.98
5116.15
5118.4
5119.67
5120.4
5120.83
5121.09
5640.72
5640.68
5640.64
5640.6
5640.56
5640.54
5640.52
5640.51
5640.7
5640.66
5640.62
5640.58
5640.55
5640.53
5640.51
5640.5
5640.67
5640.63
5640.59
5640.55
5640.52
5640.5
5640.48
5640.47
5640.66
5640.62
5640.58
5640.54
5640.51
5640.49
5640.47
5640.46
5640.64
5640.6
5640.56
5640.53
5640.49
5640.47
5640.45
5640.45
5640.65
5640.6
5640.56
5640.52
5640.49
5640.47
5640.45
5640.44
5640.63
5640.58
5640.54
5640.5
5640.47
5640.44
5640.42
5640.41
5510.97
5510.94
5510.92
5510.9
5510.88
5510.87
5510.86
5510.85
5510.98
5510.96
5510.93
5510.91
5510.89
5510.88
5510.86
5510.85
5510.97
5510.94
5510.91
5510.89
5510.87
5510.86
5510.84
5510.83
5510.96
5510.94
5510.91
5510.89
5510.87
5510.85
5510.84
5510.83
5510.94
5510.92
5510.89
5510.87
5510.85
5510.83
5510.82
5510.81
5510.93
5510.9
5510.88
5510.86
5510.84
5510.82
5510.81
5510.8
5510.89
5510.86
5510.83
5510.81
5510.79
5510.78
5510.77
5510.76
5381.13
5381.13
5381.13
5381.13
5381.13
5381.13
5381.12
5381.11
5381.17
5381.17
5381.17
5381.16
5381.16
5381.15
5381.14
5381.14
5381.15
5381.15
5381.15
5381.15
5381.14
5381.13
5381.13
5381.12
5381.16
5381.16
5381.15
5381.15
5381.14
5381.14
5381.13
5381.12
5381.14
5381.13
5381.13
5381.13
5381.12
5381.11
5381.11
5381.1
5381.12
5381.12
5381.11
5381.11
5381.1
5381.1
5381.09
5381.08
5381.07
5381.06
5381.06
5381.06
5381.05
5381.05
5381.04
5381.04
5251.17
5251.21
5251.24
5251.26
5251.27
5251.28
5251.28
5251.28
5251.23
5251.26
5251.29
5251.31
5251.32
5251.33
5251.33
5251.32
5251.22
5251.25
5251.28
5251.3
5251.31
5251.31
5251.31
5251.31
5251.23
5251.26
5251.29
5251.3
5251.32
5251.32
5251.32
5251.32
5251.21
5251.24
5251.26
5251.28
5251.29
5251.3
5251.3
5251.29
5251.19
5251.22
5251.25
5251.26
5251.27
5251.28
5251.28
5251.28
5251.13
5251.16
5251.18
5251.2
5251.21
5251.22
5251.22
5251.22
5121.19
5121.28
5121.35
5121.41
5121.44
5121.46
5121.47
5121.48
5121.23
5121.32
5121.4
5121.45
5121.48
5121.5
5121.51
5121.52
5121.22
5121.32
5121.39
5121.44
5121.47
5121.49
5121.5
5121.51
5121.23
5121.33
5121.4
5121.45
5121.48
5121.5
5121.52
5121.52
5121.21
5121.31
5121.38
5121.42
5121.46
5121.48
5121.49
5121.49
5121.2
5121.3
5121.37
5121.42
5121.45
5121.47
5121.48
5121.48
5121.14
5121.23
5121.29
5121.34
5121.38
5121.4
5121.41
5121.41
5640.88
5640.83
5640.79
5640.74
5640.7
5640.66
5640.63
5640.62
5640.72
5640.66
5640.61
5640.57
5640.53
5640.5
5640.48
5640.49
5640.42
5640.36
5640.32
5640.28
5640.25
5640.24
5640.23
5640.26
5640.73
5640.69
5640.66
5640.63
5640.61
5640.59
5640.57
5640.58
5640.44
5640.39
5640.35
5640.31
5640.29
5640.27
5640.27
5640.29
5640.8
5640.75
5640.7
5640.65
5640.61
5640.58
5640.56
5640.57
5640.96
5640.91
5640.86
5640.82
5640.77
5640.74
5640.71
5640.7
5511.01
5510.98
5510.95
5510.93
5510.91
5510.89
5510.88
5510.87
5510.93
5510.89
5510.86
5510.83
5510.82
5510.8
5510.79
5510.79
5510.67
5510.61
5510.57
5510.55
5510.53
5510.52
5510.52
5510.54
5510.97
5510.94
5510.91
5510.88
5510.87
5510.86
5510.86
5510.87
5510.69
5510.63
5510.59
5510.57
5510.55
5510.54
5510.54
5510.56
5511
5510.97
5510.94
5510.91
5510.9
5510.88
5510.87
5510.87
5511.06
5511.03
5511.01
5510.99
5510.97
5510.95
5510.94
5510.93
5381.14
5381.13
5381.12
5381.11
5381.1
5381.1
5381.09
5381.09
5381.09
5381.09
5381.08
5381.08
5381.08
5381.09
5381.09
5381.09
5380.73
5380.7
5380.69
5380.67
5380.67
5380.67
5380.66
5380.68
5381.1
5381.09
5381.09
5381.09
5381.09
5381.09
5381.09
5381.09
5380.76
5380.73
5380.71
5380.69
5380.69
5380.69
5380.69
5380.7
5381.16
5381.15
5381.15
5381.15
5381.15
5381.15
5381.15
5381.15
5381.18
5381.17
5381.16
5381.16
5381.15
5381.15
5381.14
5381.14
5251.17
5251.19
5251.2
5251.21
5251.22
5251.23
5251.23
5251.23
5251.17
5251.18
5251.19
5251.21
5251.22
5251.22
5251.23
5251.23
5250.77
5250.77
5250.77
5250.77
5250.78
5250.79
5250.79
5250.8
5251.18
5251.18
5251.19
5251.2
5251.21
5251.21
5251.22
5251.22
5250.77
5250.77
5250.77
5250.77
5250.79
5250.8
5250.81
5250.81
5251.2
5251.22
5251.24
5251.25
5251.26
5251.27
5251.27
5251.27
5251.21
5251.23
5251.25
5251.26
5251.27
5251.28
5251.28
5251.28
5121.2
5121.28
5121.34
5121.38
5121.41
5121.43
5121.44
5121.44
5121.17
5121.24
5121.3
5121.34
5121.37
5121.39
5121.4
5121.4
5120.73
5120.81
5120.87
5120.92
5120.97
5120.99
5121.01
5121.01
5121.14
5121.21
5121.25
5121.29
5121.32
5121.33
5121.34
5121.35
5120.78
5120.85
5120.9
5120.97
5121
5121.03
5121.04
5121.04
5121.19
5121.27
5121.32
5121.36
5121.39
5121.41
5121.42
5121.42
5121.26
5121.34
5121.4
5121.44
5121.47
5121.49
5121.5
5121.5
5640.97
5640.93
5640.88
5640.84
5640.8
5640.77
5640.74
5640.73
5640.75
5640.72
5640.68
5640.65
5640.62
5640.6
5640.58
5640.57
5640.53
5640.47
5640.41
5640.37
5640.34
5640.32
5640.31
5640.33
5640.64
5640.6
5640.57
5640.54
5640.52
5640.5
5640.49
5640.52
5640.38
5640.33
5640.29
5640.25
5640.23
5640.21
5640.2
5640.22
5640.59
5640.56
5640.53
5640.5
5640.47
5640.45
5640.43
5640.43
5640.72
5640.69
5640.65
5640.61
5640.58
5640.55
5640.53
5640.52
5511.09
5511.07
5511.05
5511.03
5511.01
5511
5510.98
5510.97
5510.95
5510.93
5510.91
5510.89
5510.88
5510.87
5510.86
5510.85
5510.82
5510.76
5510.7
5510.66
5510.63
5510.61
5510.6
5510.61
5510.86
5510.81
5510.78
5510.74
5510.73
5510.72
5510.73
5510.74
5510.65
5510.6
5510.56
5510.52
5510.49
5510.48
5510.47
5510.48
5510.82
5510.8
5510.78
5510.77
5510.76
5510.75
5510.74
5510.74
5510.94
5510.92
5510.9
5510.89
5510.87
5510.86
5510.84
5510.84
5381.25
5381.25
5381.25
5381.24
5381.24
5381.23
5381.23
5381.22
5381.04
5381.04
5381.04
5381.04
5381.03
5381.04
5381.04
5381.03
5381.03
5380.99
5380.95
5380.92
5380.9
5380.9
5380.88
5380.87
5380.85
5380.84
5380.82
5380.82
5380.82
5380.83
5380.83
5380.84
5380.82
5380.81
5380.79
5380.77
5380.76
5380.75
5380.75
5380.75
5380.93
5380.93
5380.94
5380.94
5380.94
5380.94
5380.94
5380.94
5381.1
5381.11
5381.11
5381.11
5381.11
5381.11
5381.11
5381.1
5251.31
5251.33
5251.36
5251.37
5251.39
5251.39
5251.4
5251.39
5251.09
5251.11
5251.12
5251.12
5251.12
5251.12
5251.12
5251.11
5251.36
5251.37
5251.38
5251.39
5251.4
5251.4
5251.4
5251.4
5250.96
5250.96
5250.96
5250.96
5250.96
5250.96
5250.96
5250.97
5251.08
5251.1
5251.12
5251.14
5251.15
5251.16
5251.16
5251.15
5250.99
5251.02
5251.04
5251.06
5251.07
5251.07
5251.07
5251.07
5251.17
5251.21
5251.24
5251.26
5251.28
5251.29
5251.29
5251.29
5121.32
5121.41
5121.47
5121.52
5121.55
5121.58
5121.59
5121.59
5121.22
5121.3
5121.35
5121.39
5121.41
5121.42
5121.43
5121.43
5121.38
5121.5
5121.6
5121.69
5121.75
5121.79
5121.81
5121.8
5121.23
5121.29
5121.33
5121.34
5121.34
5121.33
5121.33
5121.33
5121.15
5121.26
5121.35
5121.42
5121.47
5121.5
5121.51
5121.51
5121.07
5121.16
5121.23
5121.28
5121.31
5121.33
5121.34
5121.34
5121.18
5121.29
5121.36
5121.41
5121.45
5121.47
5121.49
5121.49
5640.58
5640.54
5640.5
5640.46
5640.42
5640.4
5640.38
5640.37
5640.39
5640.34
5640.3
5640.26
5640.23
5640.21
5640.2
5640.21
5640.21
5640.16
5640.13
5640.1
5640.08
5640.07
5640.06
5640.08
5640.55
5640.51
5640.48
5640.46
5640.44
5640.42
5640.4
5640.42
5640.34
5640.28
5640.24
5640.2
5640.18
5640.16
5640.16
5640.18
5640.62
5640.57
5640.52
5640.48
5640.45
5640.43
5640.41
5640.41
5640.85
5640.81
5640.76
5640.71
5640.67
5640.64
5640.61
5640.6
5510.81
5510.78
5510.76
5510.74
5510.72
5510.71
5510.69
5510.69
5510.64
5510.61
5510.58
5510.56
5510.55
5510.54
5510.54
5510.54
5510.46
5510.42
5510.38
5510.36
5510.35
5510.35
5510.35
5510.36
5510.79
5510.76
5510.74
5510.72
5510.71
5510.7
5510.7
5510.72
5510.59
5510.54
5510.51
5510.48
5510.47
5510.46
5510.46
5510.47
5510.84
5510.81
5510.78
5510.76
5510.74
5510.73
5510.72
5510.72
5510.98
5510.95
5510.93
5510.9
5510.89
5510.87
5510.86
5510.85
5380.97
5380.96
5380.96
5380.96
5380.95
5380.95
5380.95
5380.94
5380.79
5380.78
5380.79
5380.79
5380.79
5380.8
5380.8
5380.8
5380.51
5380.5
5380.48
5380.48
5380.47
5380.48
5380.48
5380.49
5380.88
5380.88
5380.88
5380.89
5380.9
5380.9
5380.9
5380.91
5380.68
5380.65
5380.63
5380.62
5380.61
5380.61
5380.6
5380.6
5381.01
5381
5381
5381
5380.99
5380.99
5380.99
5380.99
5381.13
5381.12
5381.11
5381.1
5381.09
5381.09
5381.08
5381.08
5251.03
5251.05
5251.07
5251.09
5251.1
5251.11
5251.11
5251.11
5250.87
5250.89
5250.92
5250.93
5250.94
5250.95
5250.96
5250.96
5250.57
5250.56
5250.56
5250.57
5250.58
5250.59
5250.59
5250.6
5250.94
5250.95
5250.98
5251
5251.01
5251.02
5251.03
5251.03
5250.77
5250.74
5250.74
5250.75
5250.76
5250.76
5250.76
5250.76
5251.08
5251.1
5251.12
5251.13
5251.14
5251.15
5251.15
5251.15
5251.18
5251.19
5251.21
5251.22
5251.23
5251.23
5251.24
5251.24
5121.06
5121.14
5121.21
5121.26