/*--------------------------------*- C++ -*----------------------------------*\
| =========                 |                                                 |
| \\      /  F ield         | OpenFOAM: The Open Source CFD Toolbox           |
|  \\    /   O peration     | Version:  plus.master                           |
|   \\  /    A nd           | Web:      www.OpenFOAM.com                      |
|    \\/     M anipulation  |                                                 |
\*---------------------------------------------------------------------------*/
FoamFile
{
    version     2.0;
    format      ascii;
    class       surfaceScalarField;
    location    "0.8";
    object      phi;
}
// * * * * * * * * * * * * * * * * * * * * * * * * * * * * * * * * * * * * * //

dimensions      [0 3 -1 0 0 0 0];

internalField   nonuniform List<scalar> 
138768
(
-3.90728e-07
-3.89491e-07
-1.24714e-07
4.22775e-07
4.20092e-07
-2.37964e-07
-1.16152e-06
-1.20067e-07
1.02749e-06
-7.63711e-08
-1.49722e-06
-1.20983e-07
1.36768e-06
8.3732e-08
-1.57486e-06
-1.30001e-07
1.46073e-06
2.36916e-07
-1.51316e-06
-1.20712e-07
1.36361e-06
3.76621e-07
-1.16491e-06
-1.21623e-07
1.04123e-06
-3.84849e-07
-1.29321e-07
4.11066e-07
4.23398e-07
-1.20163e-06
-2.45639e-07
-1.19676e-07
1.06197e-06
-6.33933e-07
-6.05854e-07
6.11752e-08
-1.95792e-07
-8.1627e-07
9.10847e-08
1.82043e-07
-8.3616e-07
9.38089e-08
6.18475e-07
-8.30684e-07
9.50395e-08
1.17946e-06
-6.04054e-07
5.92413e-08
-2.40761e-07
-1.22192e-07
1.04664e-06
-1.55165e-06
-7.46805e-08
-1.19199e-07
1.3929e-06
-8.72522e-07
-1.77057e-07
9.57673e-08
-2.89038e-07
-2.60129e-07
1.49423e-07
2.67041e-07
-2.60277e-07
1.54158e-07
8.42467e-07
-2.58148e-07
1.54722e-07
1.51884e-06
-1.80313e-07
9.56207e-08
-7.88341e-08
-1.22046e-07
1.37083e-06
-1.59475e-06
9.02251e-08
-1.2952e-07
1.46124e-06
-8.84947e-07
1.84561e-07
9.81466e-08
-2.88752e-07
2.869e-07
1.52359e-07
2.70474e-07
2.82625e-07
1.68832e-07
8.58423e-07
2.90376e-07
1.54815e-07
1.56696e-06
2.08486e-07
9.9701e-08
7.8847e-08
-1.29086e-07
1.44545e-06
-1.53362e-06
2.48063e-07
-1.17687e-07
1.37481e-06
-8.60879e-07
6.2233e-07
9.61905e-08
-2.89938e-07
8.42554e-07
1.57716e-07
2.74194e-07
8.54935e-07
1.56093e-07
8.4066e-07
8.54553e-07
1.52605e-07
1.53443e-06
6.25596e-07
9.2974e-08
2.58371e-07
-1.22639e-07
1.384e-06
-1.18939e-06
3.98869e-07
-1.16932e-07
1.04353e-06
-6.34166e-07
1.17858e-06
6.39046e-08
-2.00497e-07
1.52772e-06
9.3552e-08
1.78702e-07
1.58089e-06
9.66291e-08
6.18281e-07
1.537e-06
9.56416e-08
1.18598e-06
1.1733e-06
5.67239e-08
3.97579e-07
-1.2299e-07
1.05531e-06
-4.01509e-07
-1.266e-07
4.29711e-07
4.28788e-07
-2.45059e-07
-1.20051e-07
1.03937e-06
-8.15482e-08
-1.21411e-07
1.38215e-06
7.6319e-08
-1.29222e-07
1.46584e-06
2.51779e-07
-1.21009e-07
1.38269e-06
3.9437e-07
-1.21596e-07
1.03881e-06
-1.28036e-07
4.29278e-07
4.24739e-07
5.24195e-08
4.79694e-08
-6.59133e-08
-7.12001e-08
-6.83459e-08
3.72939e-08
2.42864e-08
-6.36527e-08
-4.22899e-08
1.62765e-08
2.36868e-08
-6.20135e-08
-3.78267e-08
-1.6909e-08
3.2763e-08
-6.83703e-08
-3.49547e-08
-3.96358e-08
2.41407e-08
-6.1982e-08
-3.60906e-08
-5.28486e-08
2.0541e-08
-6.55768e-08
-3.98073e-08
5.01565e-08
-6.76376e-08
-7.22623e-08
-7.12557e-08
1.58809e-08
3.67282e-08
-6.38488e-08
-3.70682e-08
2.84433e-08
3.0573e-08
3.17478e-08
1.61914e-08
3.28885e-08
7.50536e-08
-1.17236e-08
4.83429e-08
8.46485e-08
-2.20966e-08
3.1201e-08
7.76803e-08
-1.01312e-08
2.58461e-08
3.13061e-08
3.90611e-08
-6.60465e-08
-3.10699e-08
2.22369e-08
1.56843e-08
-6.07257e-08
-3.63542e-08
3.4594e-08
1.6295e-08
7.73881e-08
1.57455e-08
1.54757e-08
1.487e-07
-1.57763e-08
2.50746e-08
1.67491e-07
-3.39185e-08
1.4299e-08
1.52116e-07
-2.38416e-08
1.21533e-08
7.81332e-08
1.56542e-08
-6.23395e-08
-3.65885e-08
3.12975e-08
-1.63699e-08
-6.7263e-08
-3.63682e-08
4.74968e-08
-1.38989e-08
8.89606e-08
1.78037e-08
-1.13927e-08
1.68014e-07
-2.10918e-08
-1.48412e-08
1.9778e-07
-4.86525e-08
-1.12494e-08
1.66622e-07
-3.36006e-08
-1.62081e-08
9.00833e-08
-1.61056e-08
-6.80945e-08
-3.71046e-08
2.14388e-08
-3.96519e-08
-5.8131e-08
-3.47294e-08
3.26665e-08
-2.91959e-08
7.98797e-08
1.32961e-08
-3.14693e-08
1.5763e-07
-1.33199e-08
-4.36506e-08
1.70023e-07
-3.36715e-08
-2.87896e-08
1.52158e-07
-2.45007e-08
-2.86237e-08
7.6302e-08
-3.8613e-08
-6.34734e-08
-3.74925e-08
1.8775e-08
-5.07974e-08
-6.08418e-08
-4.11693e-08
2.76981e-08
-1.8792e-08
3.3613e-08
1.1323e-08
-1.97042e-08
7.81094e-08
-1.77935e-08
-2.98583e-08
8.93103e-08
-2.97281e-08
-1.92004e-08
7.74338e-08
-2.03795e-08
-1.8685e-08
2.774e-08
-5.00036e-08
-6.65169e-08
-4.12341e-08
5.00358e-08
-6.39982e-08
-7.11058e-08
-7.11329e-08
3.82049e-08
-6.33701e-08
-4.05996e-08
1.37285e-08
-6.08762e-08
-3.20967e-08
-1.67842e-08
-6.7545e-08
-3.55121e-08
-3.80035e-08
-6.28298e-08
-3.2434e-08
-5.07376e-08
-6.59887e-08
-3.80889e-08
-6.67246e-08
-7.08671e-08
-6.95575e-08
3.5001e-08
3.26199e-08
3.38088e-09
-6.93723e-08
-6.74409e-08
1.80603e-08
-1.14804e-08
9.07872e-09
-4.30658e-08
7.53027e-09
-3.96127e-08
1.62584e-08
-2.6315e-08
-6.01733e-09
-4.76294e-08
1.82105e-08
-2.21953e-08
-1.5738e-08
-3.93556e-08
1.61384e-08
-2.72019e-08
-3.31636e-08
-1.00201e-08
8.62062e-09
-4.51544e-08
3.42727e-08
2.83034e-09
-6.82312e-08
-6.96357e-08
-8.4793e-09
1.5005e-08
8.8553e-09
-4.50957e-08
-9.56095e-09
-1.28065e-08
3.27448e-08
-2.1877e-09
-3.24184e-08
5.59067e-08
3.31418e-09
-3.85435e-08
6.42591e-08
1.24038e-08
-3.17936e-08
5.62379e-08
1.1461e-08
-1.19563e-08
3.27229e-08
1.64452e-08
8.45076e-09
-4.34031e-08
-3.79139e-08
4.9543e-09
1.60886e-08
-2.71628e-08
-2.91813e-08
-4.62595e-09
5.59747e-08
-8.64004e-09
-1.09352e-08
9.55057e-08
9.79713e-09
-1.36116e-08
1.1079e-07
3.22061e-08
-9.05267e-09
9.60678e-08
4.06461e-08
-3.42172e-09
5.6518e-08
6.31469e-09
1.5815e-08
-2.53427e-08
-4.695e-08
-8.00159e-09
1.82803e-08
-2.2266e-08
-3.54523e-08
2.51483e-09
6.50108e-08
-1.18034e-08
8.01186e-09
1.11895e-07
1.47246e-08
1.24635e-08
1.29961e-07
3.72102e-08
9.44279e-09
1.11391e-07
4.9229e-08
4.27497e-09
6.49636e-08
-6.03934e-09
1.74637e-08
-2.05506e-08
-3.79615e-08
-1.65558e-08
1.71692e-08
-2.71235e-08
-3.02214e-08
1.18799e-08
5.76959e-08
-7.26529e-09
3.25746e-08
9.79435e-08
1.15198e-08
3.76765e-08
1.1238e-07
3.28779e-08
3.17066e-08
9.68627e-08
3.99693e-08
1.21687e-08
5.6378e-08
-1.67388e-08
1.55576e-08
-2.61597e-08
-8.12541e-09
-3.28461e-08
1.00094e-08
-4.49953e-08
-9.80219e-09
1.1454e-08
3.42396e-08
-1.86421e-09
4.01599e-08
5.76793e-08
5.33371e-09
4.88144e-08
6.557e-08
1.34808e-08
3.93332e-08
5.66645e-08
1.02946e-08
9.1697e-09
3.25386e-08
-3.47714e-08
8.16814e-09
-4.43161e-08
3.56514e-08
3.71467e-09
-6.94295e-08
-6.6726e-08
1.83426e-08
9.52636e-09
-4.24294e-08
8.22704e-09
1.67217e-08
-2.53393e-08
-4.58162e-09
1.80798e-08
-2.05431e-08
-1.53346e-08
1.59062e-08
-2.64389e-08
-3.3758e-08
8.21416e-09
-4.46353e-08
2.67713e-09
-6.86546e-08
-6.91518e-08
-2.79479e-08
-2.83425e-08
7.61661e-09
2.58261e-08
2.62209e-08
-2.24626e-08
-4.52034e-08
1.07985e-08
3.7924e-08
-8.19648e-09
-6.02254e-08
1.37564e-08
4.8407e-08
8.78913e-09
-6.61959e-08
1.48458e-08
5.25205e-08
2.30652e-08
-6.02952e-08
1.3719e-08
4.8385e-08
2.84064e-08
-4.52331e-08
1.06918e-08
3.77677e-08
-2.82061e-08
7.45114e-09
2.59768e-08
2.59614e-08
-4.47897e-08
-2.3082e-08
1.08342e-08
3.74773e-08
-3.70854e-08
-3.78052e-08
1.75383e-08
-1.39631e-08
-5.12808e-08
2.37614e-08
1.44796e-08
-5.67053e-08
2.62485e-08
3.77704e-08
-5.11851e-08
2.37611e-08
4.54353e-08
-3.77062e-08
1.74562e-08
-2.28236e-08
1.06342e-08
3.77883e-08
-5.99256e-08
-9.13283e-09
1.38596e-08
4.81496e-08
-5.05786e-08
-1.5107e-08
2.38524e-08
-1.93185e-08
-2.05888e-08
3.34606e-08
1.98894e-08
-2.26021e-08
3.74058e-08
5.12695e-08
-2.00258e-08
3.34532e-08
6.07106e-08
-1.44675e-08
2.37812e-08
-8.50421e-09
1.36491e-08
4.84957e-08
-6.61776e-08
7.7223e-09
1.5065e-08
5.24839e-08
-5.62072e-08
1.33609e-08
2.64961e-08
-2.13748e-08
1.87225e-08
3.7631e-08
2.24723e-08
2.12063e-08
4.22035e-08
5.69713e-08
1.92172e-08
3.75102e-08
6.69171e-08
1.41764e-08
2.6316e-08
8.40271e-09
1.47614e-08
5.26512e-08
-6.03942e-08
2.25058e-08
1.40624e-08
4.86648e-08
-5.0803e-08
3.7257e-08
2.41319e-08
-1.89271e-08
5.08742e-08
3.38158e-08
2.0481e-08
5.63935e-08
3.76839e-08
5.18497e-08
5.10181e-08
3.3605e-08
6.09825e-08
3.75618e-08
2.3803e-08
2.26719e-08
1.36296e-08
4.85809e-08
-4.52912e-08
2.84924e-08
1.1083e-08
3.81771e-08
-3.72439e-08
4.5525e-08
1.78479e-08
-1.35524e-08
6.07044e-08
2.41021e-08
1.51614e-08
6.66769e-08
2.65167e-08
3.83695e-08
6.05304e-08
2.38878e-08
4.57228e-08
4.5223e-08
1.74677e-08
2.80101e-08
1.06305e-08
3.78625e-08
-2.82629e-08
7.80072e-09
2.62678e-08
2.63458e-08
-2.24818e-08
1.09891e-08
3.81994e-08
-7.81997e-09
1.39374e-08
4.87683e-08
9.17253e-09
1.49616e-08
5.2743e-08
2.33867e-08
1.37435e-08
4.84187e-08
2.84853e-08
1.0677e-08
3.76016e-08
7.43968e-09
2.59784e-08
2.56887e-08
-1.16948e-08
-1.19043e-08
1.16984e-08
1.1835e-08
7.67545e-09
-8.87935e-09
-1.6458e-08
1.57662e-08
8.60219e-09
-3.19658e-09
-2.0321e-08
1.89327e-08
9.41044e-09
3.55647e-09
-2.18868e-08
2.02075e-08
9.71973e-09
9.18872e-09
-2.04431e-08
1.90801e-08
9.39728e-09
1.1904e-08
-1.66562e-08
1.60075e-08
8.57264e-09
-1.21126e-08
1.16948e-08
1.20905e-08
7.63014e-09
-1.62521e-08
-9.15924e-09
1.56518e-08
8.61764e-09
-1.25898e-08
-1.28982e-08
1.02171e-08
-4.63297e-09
-1.62084e-08
1.16154e-08
5.04663e-09
-1.75599e-08
1.2165e-08
1.29546e-08
-1.62687e-08
1.1602e-08
1.65058e-08
-1.30117e-08
1.01839e-08
-9.28594e-09
1.567e-08
8.56199e-09
-2.01473e-08
-3.52138e-09
1.88686e-08
9.44765e-09
-1.58991e-08
-5.0116e-09
1.16414e-08
-5.93209e-09
-6.35197e-09
1.35829e-08
6.39251e-09
-6.88708e-09
1.43536e-08
1.62911e-08
-6.33266e-09
1.3564e-08
2.04125e-08
-5.00792e-09
1.16009e-08
-3.54012e-09
1.88756e-08
9.38224e-09
-2.17686e-08
3.26345e-09
2.02101e-08
9.78636e-09
-1.72884e-08
4.70194e-09
1.22267e-08
-6.46226e-09
6.00218e-09
1.4396e-08
6.98696e-09
6.55584e-09
1.52564e-08
1.76949e-08
6.05202e-09
1.43628e-08
2.20101e-08
4.77064e-09
1.21668e-08
3.3055e-09
2.01675e-08
9.70103e-09
-2.03643e-08
9.00846e-09
1.91395e-08
9.49035e-09
-1.60288e-08
1.27312e-08
1.16925e-08
-5.93128e-09
1.60283e-08
1.3638e-08
6.49027e-09
1.73641e-08
1.43994e-08
1.6439e-08
1.6061e-08
1.35922e-08
2.05639e-08
1.27813e-08
1.16118e-08
9.02574e-09
1.90315e-08
9.38413e-09
-1.65921e-08
1.18578e-08
1.60958e-08
8.67882e-09
-1.27843e-08
1.64101e-08
1.02863e-08
-4.6491e-09
2.0256e-08
1.16851e-08
5.176e-09
2.17796e-08
1.22212e-08
1.31616e-08
2.02726e-08
1.16352e-08
1.67381e-08
1.64202e-08
1.0197e-08
1.18361e-08
1.59353e-08
8.56621e-09
-1.20552e-08
1.21505e-08
1.17779e-08
7.73442e-09
-9.0799e-09
1.5681e-08
8.66207e-09
-3.22341e-09
1.88143e-08
9.46557e-09
3.66999e-09
2.00302e-08
9.76042e-09
9.38433e-09
1.88262e-08
9.41828e-09
1.21516e-08
1.56939e-08
8.58009e-09
1.19938e-08
1.17438e-08
7.6314e-09
3.72878e-07
6.28562e-08
-5.55824e-08
6.69067e-09
3.23135e-07
4.53667e-08
-3.18028e-08
3.25381e-09
2.96197e-07
-3.12642e-09
8.44751e-09
1.11169e-09
3.10542e-07
-5.50477e-08
3.53048e-08
6.86862e-10
3.35367e-07
-7.42269e-08
4.84804e-08
6.35833e-10
3.53558e-07
-7.14687e-08
5.25681e-08
6.6517e-10
3.60499e-07
-5.90175e-08
5.13665e-08
6.56835e-10
-4.58489e-08
4.76659e-08
5.85495e-10
3.58047e-07
1.04094e-06
7.91045e-08
-9.17719e-08
9.7933e-07
8.09434e-08
-6.59783e-08
8.76298e-07
2.67479e-08
-2.14258e-08
7.62571e-07
-2.9815e-08
3.49702e-08
6.90143e-07
-7.1289e-08
6.32051e-08
6.2638e-07
-8.0948e-08
7.26428e-08
5.6779e-07
-7.11168e-08
7.06362e-08
-5.58855e-08
6.38003e-08
5.13976e-07
1.45091e-06
3.29436e-08
-1.18482e-07
1.46051e-06
3.75734e-08
-1.0321e-07
1.3771e-06
1.21027e-08
-4.8341e-08
1.21436e-06
-6.70316e-09
2.3838e-08
1.05227e-06
-2.50589e-08
7.55399e-08
9.10898e-07
-3.22609e-08
9.16806e-08
7.80161e-07
-3.01623e-08
8.97454e-08
-2.4139e-08
7.98438e-08
6.68531e-07
1.53285e-06
-4.44682e-08
-1.26151e-07
1.58326e-06
-5.11819e-08
-1.06594e-07
1.54535e-06
-2.32345e-08
-5.76835e-08
1.37008e-06
-1.4646e-09
1.56481e-08
1.18199e-06
2.11243e-08
7.89284e-08
1.01909e-06
3.09885e-08
9.87405e-08
8.61564e-07
2.99613e-08
9.73557e-08
2.41212e-08
8.63253e-08
7.2693e-07
1.45739e-06
-8.55516e-08
-1.17342e-07
1.45566e-06
-9.50255e-08
-1.02622e-07
1.37006e-06
-3.51931e-08
-4.48592e-08
1.20845e-06
2.48152e-08
2.54807e-08
1.04467e-06
6.7682e-08
7.63981e-08
9.05066e-07
7.83971e-08
9.19244e-08
7.7589e-07
6.93722e-08
8.97118e-08
5.46454e-08
7.97496e-08
6.65567e-07
1.04925e-06
-6.1478e-08
-9.3673e-08
9.87513e-07
-4.97192e-08
-6.88603e-08
8.81044e-07
-3.34093e-09
-2.10407e-08
7.60416e-07
5.03834e-08
3.83843e-08
6.88837e-07
7.07035e-08
6.5077e-08
6.25267e-07
6.86783e-08
7.32378e-08
5.66987e-07
5.67693e-08
7.08289e-08
4.40963e-08
6.38907e-08
5.13593e-07
3.95505e-07
-5.46894e-08
8.50226e-10
3.45523e-07
-3.1315e-08
-1.68162e-09
3.13447e-07
7.93379e-09
-1.13151e-09
3.23858e-07
3.57097e-08
-9.14688e-10
3.46121e-07
4.89205e-08
-6.23907e-10
3.62314e-07
5.29893e-08
-5.55911e-10
3.67745e-07
5.17822e-08
-4.9435e-10
4.80779e-08
-4.25785e-10
3.64139e-07
-1.07206e-07
1.32805e-08
-2.85291e-08
5.75531e-10
-1.3539e-07
1.11724e-08
-1.30168e-08
1.68363e-10
-1.40122e-07
7.09256e-09
6.07999e-09
-1.04021e-10
-1.24814e-07
2.53581e-10
1.98919e-08
-2.13117e-10
-9.79048e-08
-5.39669e-09
2.71083e-08
-1.85099e-10
-6.69299e-08
-8.27467e-09
2.99338e-08
-1.11427e-10
-3.69144e-08
-8.90018e-09
3.02533e-08
-4.68047e-11
-8.33909e-09
2.9318e-08
-1.43991e-12
-1.02698e-08
-6.92206e-08
2.30755e-08
-4.948e-08
-1.05308e-07
1.87028e-08
-3.06601e-08
-1.25855e-07
1.18559e-08
-4.38934e-09
-1.15799e-07
3.20707e-09
2.16769e-08
-8.78462e-08
-5.24242e-09
3.49969e-08
-5.32586e-08
-9.95739e-09
3.96874e-08
-2.00791e-08
-1.1212e-08
3.97171e-08
-1.05225e-08
3.76284e-08
8.22388e-09
-5.399e-08
9.12566e-09
-6.67353e-08
-8.33828e-08
6.99036e-09
-4.92169e-08
-1.0571e-07
4.98953e-09
-1.52186e-08
-1.02951e-07
1.84379e-09
2.1682e-08
-7.25734e-08
-1.9503e-09
4.17548e-08
-3.57838e-08
-4.22294e-09
4.91111e-08
-1.34895e-09
-4.89924e-09
4.89514e-08
-4.72196e-09
4.56736e-08
2.69724e-08
-4.88635e-08
-7.66398e-09
-7.38393e-08
-7.36472e-08
-6.10501e-09
-5.59516e-08
-9.60812e-08
-5.04446e-09
-1.96896e-08
-9.81041e-08
-2.25333e-09
2.10376e-08
-6.68729e-08
1.59652e-09
4.4041e-08
-2.91644e-08
3.98593e-09
5.27719e-08
5.87703e-09
4.74688e-09
5.2619e-08
4.58114e-09
4.8907e-08
3.3943e-08
-5.57249e-08
-1.95046e-08
-6.6652e-08
-8.63689e-08
-1.63936e-08
-4.89814e-08
-1.07554e-07
-1.08613e-08
-1.44182e-08
-1.0421e-07
-3.17236e-09
2.22083e-08
-7.33338e-08
5.01387e-09
4.20307e-08
-3.63492e-08
9.69654e-09
4.91717e-08
-1.83097e-09
1.09575e-08
4.89296e-08
1.02766e-08
4.56365e-08
2.65357e-08
-7.61248e-08
-1.47474e-08
-4.93034e-08
-1.11643e-07
-1.22222e-08
-3.0869e-08
-1.3067e-07
-7.26144e-09
-4.31112e-09
-1.17676e-07
-1.52652e-10
2.22072e-08
-8.8536e-08
5.44031e-09
3.54591e-08
-5.36995e-08
8.15578e-09
3.98915e-08
-2.04549e-08
8.69926e-09
3.97939e-08
8.10754e-09
3.76777e-08
7.87875e-09
-1.06765e-07
-2.82249e-08
4.13624e-10
-1.35714e-07
-1.28916e-08
2.06841e-10
-1.41342e-07
6.15482e-09
2.34312e-11
-1.2579e-07
1.99973e-08
-4.80363e-11
-9.86225e-08
2.72488e-08
-1.00999e-10
-6.74831e-08
3.00895e-08
-1.29364e-10
-3.73346e-08
3.04278e-08
-1.39343e-10
2.95092e-08
-1.38229e-10
-1.05656e-08
-1.05248e-07
8.02005e-09
1.11826e-09
-6.8759e-10
-1.24345e-07
5.07488e-09
1.61701e-09
-6.61842e-10
-1.23099e-07
2.33334e-09
3.00757e-09
-5.61696e-10
-1.07308e-07
-4.24483e-10
4.90097e-09
-4.28604e-10
-8.45778e-08
-2.18512e-09
6.82069e-09
-3.04106e-10
-5.99513e-08
-3.0626e-09
8.53241e-09
-2.03215e-10
-3.62816e-08
-3.30804e-09
9.98271e-09
-1.28558e-10
-3.18525e-09
1.1195e-08
-7.6344e-11
-1.49351e-08
-9.67295e-08
1.01147e-08
1.85034e-09
-1.31188e-07
7.16044e-09
1.652e-09
-1.39524e-07
3.28226e-09
2.93764e-09
-1.23481e-07
-2.49958e-10
5.40288e-09
-9.62059e-08
-2.60258e-09
8.08789e-09
-6.61902e-08
-3.82639e-09
1.0388e-08
-3.78444e-08
-4.17173e-09
1.21858e-08
-4.01734e-09
1.35743e-08
-1.30105e-08
-8.94191e-08
4.67425e-09
3.13301e-09
-1.36437e-07
3.18241e-09
1.7367e-09
-1.527e-07
1.48514e-09
2.79269e-09
-1.36987e-07
-1.09769e-10
5.77392e-09
-1.06057e-07
-1.13237e-09
9.3051e-09
-7.13469e-08
-1.71433e-09
1.22441e-08
-3.90963e-08
-1.88692e-09
1.43696e-08
-1.82583e-09
1.58703e-08
-1.15358e-08
-8.76657e-08
-4.73616e-09
3.07495e-09
-1.38735e-07
-3.41544e-09
1.6949e-09
-1.57818e-07
-1.87403e-09
2.69789e-09
-1.42545e-07
-2.44572e-10
5.84392e-09
-1.10253e-07
8.19441e-10
9.74591e-09
-7.36636e-08
1.44831e-09
1.29748e-08
-3.98757e-08
1.65341e-09
1.5245e-08
1.61215e-09
1.67892e-08
-1.12468e-08
-9.00847e-08
-1.00689e-08
2.94164e-09
-1.37105e-07
-7.09819e-09
1.67217e-09
-1.52992e-07
-3.26211e-09
2.80194e-09
-1.37064e-07
1.7003e-10
5.80688e-09
-1.06023e-07
2.42488e-09
9.33261e-09
-7.13287e-08
3.62583e-09
1.22543e-08
-3.91263e-08
3.96743e-09
1.43682e-08
3.81489e-09
1.58648e-08
-1.16075e-08
-9.75015e-08
-7.97223e-09
1.74416e-09
-1.32085e-07
-4.99022e-09
1.55246e-09
-1.40359e-07
-2.24455e-09
2.88711e-09
-1.23941e-07
4.86226e-10
5.41892e-09
-9.64081e-08
2.18672e-09
8.11787e-09
-6.63383e-08
2.99605e-09
1.04101e-08
-3.80157e-08
3.19501e-09
1.2202e-08
3.04612e-09
1.35904e-08
-1.32075e-08
-1.05714e-07
1.05107e-09
-2.53746e-10
-1.24955e-07
1.56051e-09
-2.57244e-10
-1.23799e-07
2.96209e-09
-2.63124e-10
-1.08005e-07
4.87607e-09
-2.35435e-10
-8.52188e-08
6.81506e-09
-2.06952e-10
-6.05348e-08
8.54469e-09
-1.80573e-10
-3.68047e-08
1.00118e-08
-1.57708e-10
1.12388e-08
-1.38477e-10
-1.53938e-08
2.64031e-08
-2.73403e-09
3.39148e-09
-2.0436e-11
2.6666e-08
-2.4867e-09
3.78614e-09
-1.29625e-12
2.72273e-08
-2.20767e-09
4.58443e-09
1.40608e-11
2.84885e-08
-2.06122e-09
5.61958e-09
2.6001e-11
3.04114e-08
-1.95056e-09
6.76317e-09
3.30125e-11
3.27517e-08
-1.81972e-09
7.92838e-09
3.50473e-11
3.52753e-08
-1.66085e-09
9.04099e-09
3.34503e-11
-1.48788e-09
9.95737e-09
2.96413e-11
3.79266e-08
3.49498e-08
-3.36515e-09
5.2489e-09
3.20341e-08
-2.90259e-09
4.91388e-09
2.98859e-08
-2.61725e-09
5.42936e-09
2.91615e-08
-2.46945e-09
6.47314e-09
2.98564e-08
-2.3573e-09
7.74213e-09
3.15241e-08
-2.20812e-09
9.05512e-09
3.37065e-08
-2.01196e-09
1.03021e-08
-1.79025e-09
1.13035e-08
3.62269e-08
4.25012e-08
-1.36425e-09
7.06478e-09
3.66201e-08
-1.23198e-09
5.88347e-09
3.18575e-08
-1.15597e-09
6.0303e-09
2.91729e-08
-1.115e-09
7.0429e-09
2.87254e-08
-1.08289e-09
8.42119e-09
2.98709e-08
-1.02707e-09
9.8645e-09
3.18951e-08
-9.43008e-10
1.12245e-08
-8.41911e-10
1.23003e-08
3.4463e-08
4.52181e-08
1.29128e-09
7.78989e-09
3.82494e-08
1.11364e-09
6.25273e-09
3.25063e-08
9.84436e-10
6.23442e-09
2.90398e-08
9.04008e-10
7.22743e-09
2.81451e-08
8.48581e-10
8.64968e-09
2.91087e-08
7.83184e-10
1.01461e-08
3.11055e-08
7.0089e-10
1.15513e-08
6.11742e-10
1.26577e-08
3.37283e-08
4.24744e-08
3.22249e-09
7.0548e-09
3.65669e-08
2.75067e-09
5.87834e-09
3.18158e-08
2.44247e-09
6.02992e-09
2.91532e-08
2.26703e-09
7.04345e-09
2.87202e-08
2.13824e-09
8.41794e-09
2.98647e-08
1.98429e-09
9.85595e-09
3.18791e-08
1.79294e-09
1.1211e-08
1.58367e-09
1.22836e-08
3.44357e-08
3.49389e-08
2.58783e-09
5.24276e-09
3.19449e-08
2.32895e-09
4.90618e-09
2.97501e-08
2.03886e-09
5.42409e-09
2.90241e-08
1.88526e-09
6.4683e-09
2.97219e-08
1.77123e-09
7.73436e-09
3.13829e-08
1.64281e-09
9.043e-09
3.35546e-08
1.49163e-09
1.02855e-08
1.32977e-09
1.12838e-08
3.60662e-08
2.62967e-08
3.38255e-09
-1.26927e-10
2.64658e-08
3.77402e-09
-1.13462e-10
2.6942e-08
4.57077e-09
-1.03402e-10
2.8139e-08
5.606e-09
-9.4556e-11
3.00148e-08
6.75064e-09
-8.69567e-11
3.2323e-08
7.91734e-09
-8.04501e-11
3.48282e-08
9.03123e-09
-7.50264e-11
9.94886e-09
-7.05342e-11
3.74738e-08
1.21157e-08
-1.58337e-09
1.7854e-10
4.32074e-09
1.23171e-08
-1.53214e-09
1.87149e-10
4.87597e-09
1.25799e-08
-1.42798e-09
1.86018e-10
5.51048e-09
1.3036e-08
-1.33252e-09
1.7368e-10
6.26907e-09
1.36511e-08
-1.21938e-09
1.51006e-10
7.16403e-09
1.42975e-08
-1.07976e-09
1.21168e-10
8.18898e-09
1.4802e-08
-9.20864e-10
8.86164e-11
9.31732e-09
-7.44979e-10
5.8725e-11
1.50031e-08
1.03902e-08
1.5448e-08
-1.91717e-09
5.73421e-09
1.45042e-08
-1.749e-09
6.00734e-09
1.36243e-08
-1.62449e-09
6.44144e-09
1.31541e-08
-1.52042e-09
7.0689e-09
1.31308e-08
-1.40335e-09
7.88887e-09
1.34179e-08
-1.25572e-09
8.88456e-09
1.37947e-08
-1.07592e-09
1.0021e-08
-8.71359e-10
1.40459e-08
1.11184e-08
1.80572e-08
-8.95736e-10
6.80319e-09
1.61426e-08
-8.14593e-10
6.804e-09
1.42261e-08
-7.65654e-10
7.02779e-09
1.29127e-08
-7.29811e-10
7.50542e-09
1.23333e-08
-6.89036e-10
8.22649e-09
1.23483e-08
-6.32566e-10
9.16693e-09
1.27032e-08
-5.56731e-10
1.02905e-08
-4.63334e-10
1.31365e-08
1.13969e-08
1.91195e-08
6.76295e-10
7.20742e-09
1.68299e-08
5.75081e-10
7.09296e-09
1.45093e-08
5.02589e-10
7.2259e-09
1.28653e-08
4.43038e-10
7.6377e-09
1.20691e-08
3.81707e-10
8.31482e-09
1.19806e-08
3.11589e-10
9.23092e-09
1.23296e-08
2.34193e-10
1.03513e-08
1.58113e-10
1.28358e-08
1.14677e-08
1.82485e-08
1.653e-09
6.80287e-09
1.63707e-08
1.46895e-09
6.80339e-09
1.44845e-08
1.33134e-09
7.02779e-09
1.31866e-08
1.21878e-09
7.5062e-09
1.26008e-08
1.09945e-09
8.22755e-09
1.2587e-08
9.56659e-10
9.16733e-09
1.28921e-08
7.90148e-10
1.02924e-08
6.1048e-10
1.3272e-08
1.13913e-08
1.57516e-08
1.28892e-09
5.73413e-09
1.48394e-08
1.22378e-09
6.00669e-09
1.39789e-08
1.11734e-09
6.44133e-09
1.35094e-08
1.03025e-09
7.0697e-09
1.34622e-08
9.35799e-10
7.89011e-09
1.37004e-08
8.22666e-10
8.885e-09
1.40062e-08
6.94722e-10
1.00212e-08
5.52345e-10
1.41872e-08
1.11045e-08
1.24002e-08
-1.14199e-10
4.31932e-09
1.25731e-08
-1.03148e-10
4.87388e-09
1.27937e-08
-9.35384e-11
5.5082e-09
1.31973e-08
-8.55034e-11
6.26671e-09
1.37519e-08
-7.8816e-11
7.16112e-09
1.43325e-08
-7.32927e-11
8.18425e-09
1.477e-08
-6.86248e-11
9.30814e-09
-6.41456e-11
1.49197e-08
1.03645e-08
3.90998e-07
6.90143e-08
-5.39249e-08
-1.60931e-09
3.38419e-07
4.94448e-08
-3.11479e-08
-3.15078e-10
3.05436e-07
-1.22898e-09
1.08049e-08
4.94741e-10
3.18391e-07
-5.27824e-08
3.67751e-08
-6.20847e-10
3.41395e-07
-7.17902e-08
4.93926e-08
-7.59502e-10
3.58089e-07
-6.91481e-08
5.30977e-08
-6.88815e-10
3.63879e-07
-5.69658e-08
5.16764e-08
-5.52766e-10
-4.41735e-08
4.78529e-08
-4.36603e-10
3.6059e-07
1.04283e-06
8.60347e-08
-9.09572e-08
9.83161e-07
8.40016e-08
-6.38616e-08
8.72336e-07
2.922e-08
-1.55152e-08
7.54778e-07
-2.77248e-08
4.07258e-08
6.83176e-07
-6.96723e-08
6.61077e-08
6.20099e-07
-7.9668e-08
7.35489e-08
5.62302e-07
-6.99626e-08
7.07417e-08
-5.49189e-08
6.36038e-08
5.09395e-07
1.45188e-06
3.45321e-08
-1.14279e-07
1.45832e-06
4.28861e-08
-9.12935e-08
1.36639e-06
1.80844e-08
-4.13297e-08
1.20233e-06
-3.92238e-09
2.94944e-08
1.04138e-06
-2.40967e-08
7.79488e-08
9.01147e-07
-3.22994e-08
9.25316e-08
7.71933e-07
-3.05281e-08
8.97458e-08
-2.4425e-08
7.94899e-08
6.61908e-07
1.56087e-06
-4.12244e-08
-1.24664e-07
1.5946e-06
-4.54888e-08
-1.07636e-07
1.53824e-06
-1.7392e-08
-5.39675e-08
1.3678e-06
5.04606e-09
1.83163e-08
1.18233e-06
2.49391e-08
8.05675e-08
1.01745e-06
3.25342e-08
9.94904e-08
8.59088e-07
3.02978e-08
9.74897e-08
2.41897e-08
8.6134e-08
7.24289e-07
1.45753e-06
-9.29791e-08
-1.1693e-07
1.45889e-06
-8.74951e-08
-9.21551e-08
1.38389e-06
-2.94822e-08
-4.49119e-08
1.21697e-06
2.8168e-08
2.41477e-08
1.05166e-06
7.09934e-08
7.63793e-08
9.10539e-07
8.13195e-08
9.20715e-08
7.79287e-07
7.17039e-08
8.97923e-08
5.63225e-08
7.96901e-08
6.67413e-07
1.05701e-06
-7.31931e-08
-9.11192e-08
9.9346e-07
-5.18191e-08
-6.48833e-08
8.76884e-07
1.10377e-09
-1.79583e-08
7.56649e-07
5.39012e-08
3.96109e-08
6.85944e-07
7.4351e-08
6.53856e-08
6.22121e-07
7.18693e-08
7.32188e-08
5.63911e-07
5.92558e-08
7.06024e-08
4.59751e-08
6.35507e-08
5.10655e-07
3.82569e-07
-5.59453e-08
-7.78917e-10
3.30435e-07
-3.11456e-08
-7.00824e-10
2.9984e-07
9.88653e-09
1.22183e-09
3.10988e-07
3.6149e-08
1.91308e-09
3.34664e-07
4.88393e-08
1.77901e-09
3.52447e-07
5.26243e-08
1.40484e-09
3.59293e-07
5.12812e-08
1.06957e-09
4.75279e-08
8.17651e-10
3.56868e-07
-1.0758e-07
1.50314e-08
-2.69747e-08
1.54651e-10
-1.37304e-07
1.18693e-08
-1.15567e-08
2.89974e-10
-1.41261e-07
6.87316e-09
7.3396e-09
3.83749e-10
-1.25316e-07
-2.73246e-10
2.07398e-08
3.08913e-10
-9.79184e-08
-5.85663e-09
2.75895e-08
2.18592e-10
-6.6704e-08
-8.49169e-09
3.01928e-08
1.40236e-10
-3.65865e-08
-8.95075e-09
3.03875e-08
8.16361e-11
-8.2941e-09
2.93843e-08
4.05675e-11
-9.90395e-09
-7.73709e-08
1.99389e-08
-4.6317e-08
-1.12054e-07
1.63764e-08
-2.7427e-08
-1.29768e-07
1.1069e-08
-1.13264e-09
-1.16403e-07
3.00195e-09
2.3858e-08
-8.71343e-08
-5.28968e-09
3.62204e-08
-5.23537e-08
-9.93248e-09
4.01582e-08
-1.92829e-08
-1.11195e-08
3.97892e-08
-1.04109e-08
3.75305e-08
8.85629e-09
-5.6639e-08
8.06824e-09
-6.20681e-08
-8.46936e-08
7.85016e-09
-4.365e-08
-1.06421e-07
5.79442e-09
-1.112e-08
-1.01986e-07
2.76684e-09
2.43817e-08
-7.12457e-08
-1.34031e-09
4.31896e-08
-3.44758e-08
-3.82513e-09
4.96084e-08
-2.3653e-10
-4.6452e-09
4.89863e-08
-4.50411e-09
4.55127e-08
2.77867e-08
-4.96201e-08
-8.41115e-09
-7.13141e-08
-7.48989e-08
-8.39864e-09
-5.29501e-08
-9.57345e-08
-5.09836e-09
-1.74423e-08
-9.69155e-08
-1.35147e-09
2.28448e-08
-6.53494e-08
2.45904e-09
4.51115e-08
-2.76474e-08
4.68149e-09
5.32255e-08
7.18961e-09
5.24728e-09
5.27066e-08
4.95214e-09
4.88047e-08
3.50093e-08
-5.54136e-08
-2.17962e-08
-6.46207e-08
-8.24369e-08
-1.66856e-08
-4.59442e-08
-1.04491e-07
-1.1086e-08
-1.31962e-08
-1.02679e-07
-2.81215e-09
2.29435e-08
-7.19021e-08
5.55576e-09
4.24296e-08
-3.49515e-08
1.03405e-08
4.94013e-08
-5.16908e-10
1.15625e-08
4.89863e-08
1.08084e-08
4.55806e-08
2.76827e-08
-7.46867e-08
-1.33518e-08
-4.81261e-08
-1.09516e-07
-1.09271e-08
-2.90092e-08
-1.28471e-07
-6.36914e-09
-2.66884e-09
-1.15537e-07
6.91228e-10
2.30238e-08
-8.6761e-08
6.28209e-09
3.58295e-08
-5.21744e-08
8.92803e-09
3.99899e-08
-1.91676e-08
9.37479e-09
3.97305e-08
8.68635e-09
3.75201e-08
8.93375e-09
-1.08045e-07
-2.79561e-08
1.37355e-09
-1.36806e-07
-1.23897e-08
1.00026e-09
-1.40899e-07
6.73668e-09
6.82376e-10
-1.25011e-07
2.0324e-08
5.76912e-10
-9.77369e-08
2.7295e-08
4.97661e-10
-6.66295e-08
2.9971e-08
4.2036e-10
-3.65912e-08
3.02133e-08
3.54007e-10
2.92425e-08
3.00496e-10
-9.96776e-09
-1.05534e-07
6.28699e-09
1.50517e-09
1.2933e-09
-1.23604e-07
3.39696e-09
1.96423e-09
1.09725e-09
-1.21437e-07
9.54018e-10
3.3409e-09
8.2143e-10
-1.05109e-07
-1.42426e-09
5.20148e-09
5.82555e-10
-8.21567e-08
-2.88897e-09
7.07563e-09
4.06188e-10
-5.75103e-08
-3.51671e-09
8.74319e-09
2.81114e-10
-3.39248e-08
-3.58571e-09
1.01563e-08
1.95549e-10
-3.34603e-09
1.13386e-08
1.37261e-10
-1.27074e-08
-9.72154e-08
9.39297e-09
2.74159e-09
-1.2999e-07
6.38971e-09
2.29203e-09
-1.36561e-07
2.79149e-09
3.53809e-09
-1.19581e-07
-5.67219e-10
5.96353e-09
-9.20438e-08
-2.79322e-09
8.53555e-09
-6.22368e-08
-3.9246e-09
1.0711e-08
-3.42849e-08
-4.20456e-09
1.24072e-08
-4.00163e-09
1.37214e-08
-9.87234e-09
-8.98835e-08
5.9339e-09
4.29827e-09
-1.34259e-07
4.41885e-09
2.64177e-09
-1.48802e-07
2.55586e-09
3.60473e-09
-1.32214e-07
6.84327e-10
6.48824e-09
-1.01133e-07
-5.91008e-10
9.8562e-09
-6.68131e-08
-1.30406e-09
1.26223e-08
-3.51154e-08
-1.57218e-09
1.46097e-08
-1.57249e-09
1.60117e-08
-8.09478e-09
-8.79814e-08
-3.32017e-09
3.94954e-09
-1.36991e-07
-1.96484e-09
2.39299e-09
-1.54851e-07
-4.24539e-10
3.34261e-09
-1.38657e-07
8.32846e-10
6.44654e-09
-1.06138e-07
1.7205e-09
1.023e-08
-6.97217e-08
2.1391e-09
1.33197e-08
-3.62926e-08
2.18896e-09
1.54698e-08
2.04017e-09
1.69238e-08
-8.07634e-09
-9.01308e-08
-8.28496e-09
3.60299e-09
-1.34949e-07
-5.44747e-09
2.28821e-09
-1.50015e-07
-1.9345e-09
3.32125e-09
-1.33726e-07
1.19061e-09
6.2361e-09
-1.02628e-07
3.32106e-09
9.67697e-09
-6.80302e-08
4.38027e-09
1.25134e-08
-3.60498e-08
4.5971e-09
1.45499e-08
4.34288e-09
1.59833e-08
-8.80789e-09
-9.76068e-08
-6.17628e-09
2.29672e-09
-1.30792e-07
-3.35922e-09
2.01979e-09
-1.37876e-07
-8.89465e-10
3.30735e-09
-1.21029e-07
1.54598e-09
5.76433e-09
-9.33889e-08
3.07642e-09
8.38443e-09
-6.34038e-08
3.7372e-09
1.06034e-08
-3.5269e-08
3.81525e-09
1.23327e-08
3.56975e-09
1.36708e-08
-1.06968e-08
-1.05785e-07
1.32115e-09
8.818e-10
-1.24141e-07
1.80349e-09
7.45548e-10
-1.22141e-07
3.18831e-09
6.01241e-10
-1.05883e-07
5.06392e-09
4.95314e-10
-8.29287e-08
6.95622e-09
4.15083e-10
-5.82519e-08
8.64041e-09
3.49368e-10
-3.46294e-08
1.00677e-08
2.95696e-10
1.12618e-08
2.5214e-10
-1.33776e-08
2.68555e-08
-2.77972e-09
3.59089e-09
4.82309e-11
2.72293e-08
-2.46456e-09
3.99258e-09
4.9438e-12
2.78955e-08
-2.14709e-09
4.78583e-09
-2.00853e-11
2.9247e-08
-1.98237e-09
5.80736e-09
-3.016e-11
3.1232e-08
-1.8643e-09
6.93372e-09
-3.05216e-11
3.36064e-08
-1.73538e-09
8.08068e-09
-2.43523e-11
3.61431e-08
-1.58523e-09
9.17451e-09
-1.46783e-11
-1.42387e-09
1.00713e-08
-4.50707e-12
3.87945e-08
3.56667e-08
-3.19519e-09
5.5754e-09
3.2924e-08
-2.75245e-09
5.25344e-09
3.09601e-08
-2.46694e-09
5.75579e-09
3.04324e-08
-2.31584e-09
6.76243e-09
3.12673e-08
-2.20457e-09
7.98324e-09
3.3003e-08
-2.0607e-09
9.24681e-09
3.51988e-08
-1.87338e-09
1.04473e-08
-1.66264e-09
1.14072e-08
3.76988e-08
4.31415e-08
-8.99858e-10
7.4449e-09
3.75368e-08
-8.63435e-10
6.29479e-09
3.3026e-08
-8.37129e-10
6.42322e-09
3.05807e-08
-8.25738e-10
7.38273e-09
3.02976e-08
-8.13825e-10
8.69108e-09
3.15157e-08
-7.74575e-10
1.0064e-08
3.3545e-08
-7.06142e-10
1.13605e-08
-6.21956e-10
1.23844e-08
3.60771e-08
4.55467e-08
1.79255e-09
8.11394e-09
3.88905e-08
1.51278e-09
6.60935e-09
3.34052e-08
1.34973e-09
6.57733e-09
3.0181e-08
1.257e-09
7.52536e-09
2.94619e-08
1.18852e-09
8.88721e-09
3.0522e-08
1.10802e-09
1.03214e-08
3.25529e-08
1.00842e-09
1.16701e-08
8.98662e-10
1.27312e-08
3.5169e-08
4.25138e-08
3.6413e-09
7.30907e-09
3.69576e-08
3.12396e-09
6.16833e-09
3.24643e-08
2.79297e-09
6.30734e-09
3.00007e-08
2.61033e-09
7.28349e-09
2.97175e-08
2.47695e-09
8.61278e-09
3.09635e-08
2.31507e-09
1.0006e-08
3.30378e-08
2.11092e-09
1.13208e-08
1.88389e-09
1.23604e-08
3.56217e-08
3.49256e-08
2.97673e-09
5.42991e-09
3.22022e-08
2.68656e-09
5.11696e-09
3.0235e-08
2.37463e-09
5.6314e-09
2.96916e-08
2.20501e-09
6.65452e-09
3.05295e-08
2.07679e-09
7.8931e-09
3.2291e-08
1.93402e-09
9.17405e-09
3.45281e-08
1.76769e-09
1.03913e-08
1.58956e-09
1.13673e-08
3.70761e-08
2.63371e-08
3.49697e-09
1.86666e-10
2.66984e-08
3.89959e-09
1.72202e-10
2.73514e-08
4.69685e-09
1.56482e-10
2.86997e-08
5.72425e-09
1.4295e-10
3.06957e-08
6.85723e-09