/*--------------------------------*- C++ -*----------------------------------*\
| =========                 |                                                 |
| \\      /  F ield         | OpenFOAM: The Open Source CFD Toolbox           |
|  \\    /   O peration     | Version:  plus.master.MPPICInterFoam            |
|   \\  /    A nd           | Web:      www.OpenFOAM.com                      |
|    \\/     M anipulation  |                                                 |
\*---------------------------------------------------------------------------*/
FoamFile
{
    version     2.0;
    format      ascii;
    class       scalarField;
    location    "4.6/lagrangian/kinematicCloud";
    object      age;
}
// * * * * * * * * * * * * * * * * * * * * * * * * * * * * * * * * * * * * * //


2868
(
4.40512
4.50845
4.34533
4.46697
4.28652
4.56525
4.4844
4.51885
4.52264
4.47422
4.41826
4.35323
4.40663
4.34156
4.59102
4.40848
4.585
4.59937
4.34289
4.59124
4.41545
4.59962
4.37913
4.49344
4.32417
4.38251
4.39243
4.37156
4.51096
4.4784
4.46756
4.52029
4.38643
4.56504
4.31612
4.49302
4.58815
4.4711
4.59125
4.5577
4.52845
4.56197
4.50223
4.59885
4.58975
4.37886
4.25611
4.52085
4.58483
4.55683
4.49015
4.56383
4.5771
4.59616
4.54308
4.46876
4.58526
4.5318
4.5184
4.47843
4.40212
4.46201
4.54692
4.56463
4.46879
4.47984
4.48081
4.58492
4.56848
4.3232
4.42376
4.55663
4.50037
4.19228
4.54367
4.49151
4.59571
4.52528
4.47256
4.3596
4.51252
4.55301
4.51262
4.43313
4.41034
4.48863
4.53827
4.47232
4.58169
4.25725
4.52433
4.56651
4.5194
4.44299
4.4705
4.59195
4.37171
4.42948
4.14678
4.52531
4.39083
4.32472
4.55745
4.52017
4.50995
4.47457
4.53131
4.55616
4.57273
4.397
4.2346
4.54022
4.40619
4.28461
4.59847
4.48657
4.53022
4.39766
4.43995
4.55002
4.4535
4.52474
4.37186
4.43697
4.17038
4.52588
4.52733
4.40553
4.51957
4.44008
4.57898
4.54335
4.45174
4.42835
4.38127
4.3339
4.48837
4.36506
4.44897
4.59888
4.53699
4.47591
4.56538
4.44984
4.3495
4.52757
4.48266
4.51854
4.42242
4.38155
4.47887
4.59903
4.44447
4.56218
4.5337
4.57075
4.56389
4.51247
4.50017
4.55588
4.50798
4.59125
4.53412
4.26799
4.31493
4.54378
4.29621
4.46963
4.56402
4.29948
4.4949
4.5957
4.46732
4.4694
4.54695
4.58772
4.45922
4.48794
4.45956
4.46997
4.59808
4.58888
4.47739
4.57647
4.57332
4.49102
4.57968
4.59013
4.41313
4.34497
4.54739
4.41769
4.30267
4.54599
4.47836
4.31785
4.27767
4.43174
4.59058
4.57091
4.54064
4.42064
4.58206
4.36812
4.23934
4.39538
4.57313
4.43918
4.47281
4.45762
4.46659
4.52763
4.49823
4.51619
4.42976
4.5982
4.5561
4.48824
4.51723
4.59583
4.54704
4.44897
4.49653
4.57171
4.38314
4.45048
4.44547
4.45905
4.36575
4.50781
4.51206
4.57049
4.16558
4.37148
4.43926
4.55156
4.48685
4.5711
4.43918
4.53299
4.51857
4.40932
4.55693
4.45538
4.58491
4.43939
4.22857
4.56975
4.47367
4.30736
4.59145
4.36165
4.49551
4.51774
4.38347
4.42947
4.60089
4.45428
4.59423
4.48842
4.50153
4.55975
4.40805
4.4098
4.56268
4.49374
4.56485
4.5962
4.5561
4.29949
4.57209
4.58817
4.37445
4.42067
4.47393
4.57614
4.55092
4.5989
4.50888
4.4982
4.39101
4.55618
4.34484
4.55441
4.51604
4.56708
4.53156
4.47083
4.37152
4.57456
4.53455
4.21121
4.37389
4.59377
4.581
4.55132
4.40579
4.59051
4.53755
4.18118
4.57778
4.46907
4.47899
4.49948
4.59236
4.59608
4.52134
4.2585
4.32404
4.43956
4.4788
4.35342
4.58506
4.51925
4.49803
4.5372
4.51004
4.56931
4.28474
4.55713
4.59374
4.58893
4.38288
4.35578
4.57571
4.48623
4.5484
4.47443
4.54457
4.4828
4.53953
4.46875
4.52314
4.40911
4.34436
4.59063
4.16196
4.22579
4.51762
4.21911
4.21605
4.51824
4.49827
4.5819
4.56569
4.57887
4.49926
4.48833
4.46421
4.45908
4.46374
4.52772
4.49991
4.47866
4.57979
4.43972
4.13635
4.58403
4.53109
4.544
4.54325
4.48854
4.33672
4.52007
4.49239
4.54932
4.43592
4.56407
4.50773
4.56513
4.47324
4.43919
4.46949
4.34492
4.1675
4.59166
4.56518
4.47854
4.42498
4.47884
4.56681
4.47847
4.58896
4.55096
4.4342
4.37269
4.37376
4.44991
4.50965
4.37496
4.33446
4.52777
4.35015
4.4531
4.54437
4.28272
4.42077
4.18519
4.56391
4.56906
4.53738
4.38522
4.32383
4.54727
4.58953
4.10386
4.1757
4.55046
4.44898
4.55801
4.44992
4.52738
4.48957
4.42288
4.38348
4.39048
4.52139
4.04869
4.50435
4.54696
4.35271
4.35173
4.2286
4.2291
4.41751
4.54808
4.25255
4.57036
4.43019
4.11528
4.5813
4.55638
4.48896
4.38231
4.33082
4.49362
4.35281
4.51768
4.29059
4.33206
4.58552
4.38263
4.44401
4.44475
4.53795
4.3367
4.53414
4.5741
4.52951
4.49829
4.21945
4.42939
4.19119
4.46865
4.51983
4.38805
4.57045
4.43019
4.5347
4.40044
4.5639
4.39667
4.30562
4.47375
4.39048
4.5478
4.5781
4.43938
4.5543
4.43666
4.4714
4.58549
4.46773
4.58856
4.60017
4.58092
4.58834
4.57632
4.23812
4.55417
4.38362
4.39052
4.38858
4.21141
4.59367
4.46875
4.53009
4.58357
4.54026
4.35323
4.33366
4.38489
4.38149
4.57087
4.23823
4.27516
4.35547
4.56394
4.50921
4.42075
4.357
4.25075
4.24766
4.436
4.35615
4.59137
4.5562
4.58089
4.43971
4.42529
4.35239
4.33526
4.39052
4.38005
4.45951
4.54776
4.55715
4.42225
4.46176
4.34914
4.54739
4.44168
4.59908
4.23891
4.59129
4.34596
4.34287
4.54667
4.41554
4.59833
4.44208
4.5471
4.53151
4.48939
4.46155
4.05016
4.5639
4.54863
4.3056
4.40749
4.4736
4.53977
4.38785
4.59389
4.37789
4.47196
4.49799
4.17154
4.31711
4.47685
4.46861
4.49914
4.47857
4.41961
4.25825
4.59811
4.44712
4.2381
4.56721
4.56865
4.52004
4.56731
4.29016
4.58912
4.17846
4.30398
4.4614
4.47918
4.29849
4.52979
4.56542
4.60019
4.52262
4.59456
4.4874
4.54694
4.50816
4.57278
4.32519
4.53541
4.56831
4.59271
4.50111
4.50085
4.50999
4.52739
4.52379
4.57902
4.57076
4.50596
4.55845
4.46771
4.42051
4.55734
4.48139
4.55603
4.20025
4.3911
4.53868
4.49401
4.36717
4.50816
4.38104
4.2517
4.59896
4.57623
4.56366
4.50818
4.47946
4.57192
4.59397
4.46249
4.60016
4.51754
4.44932
4.21927
4.32423
4.51871
4.55959
4.3641
4.53576
4.45277
4.51192
4.4498
4.56903
4.48111
4.58959
4.59935
4.53402
4.51067
4.15508
4.49972
4.59217
4.4237
4.44345
4.56392
4.27694
4.21039
4.35294
4.59895
4.39086
4.5644
4.55453
4.46006
4.49395
4.53759
4.38753
4.51787
4.39912
4.21937
4.57697
4.37074
4.55933
4.44903
4.5705
4.55756
4.33334
4.59383
4.55063
4.3868
4.51013
4.17184
4.57061
4.58668
4.41965
4.57045
4.46383
4.34296
4.57028
4.41393
4.53179
4.38185
4.56005
4.52006
4.53753
4.54702
4.39423
4.59365
4.44595
4.30487
4.46909
4.52881
4.5373
4.39075
4.5917
4.48942
4.37273
4.45421
4.43084
4.36196
4.59197
4.52778
4.55861
4.53808
4.20853
4.04222
4.53054
4.19953
4.57417
4.38186
4.51755
4.4793
4.44131
4.50463
4.35409
4.54054
4.54256
4.22333
4.14989
4.5937
4.4003
4.5584
4.56273
4.52706
4.60021
4.36209
4.34188
4.56315
4.49816
4.35239
4.46209
4.43927
4.50177
4.5501
4.27205
4.46058
4.54691
4.59427
4.22045
4.38147
4.32404
4.41259
4.35318
4.47932
4.3289
4.51416
4.43967
4.48157
4.4204
4.45145
4.4314
4.3365
4.44933
4.48815
4.52904
4.26703
4.4476
4.57667
4.28981
4.48138
4.50222
4.51177
4.43843
4.27619
4.0842
4.49817
4.449
4.41237
4.55612
4.47958
4.4518
4.54698
4.57634
4.56606
4.59387
4.37344
4.58878
4.28828
4.40302
4.52251
4.57677
4.39794
4.54883
4.24941
4.52735
4.41105
4.46071
4.38054
4.30833
4.30396
4.44296
4.42114
4.49796
4.3256
4.52967
4.58496
4.47715
4.58002
4.28655
4.53011
4.34413
4.47268
4.5598
4.53819
4.50659
4.44794
4.40765
4.30941
4.37051
4.41758
4.5287
4.29868
4.51647
4.43807
4.44016
4.2413
4.17304
4.33374
4.59882
4.51543
4.42943
4.58545
4.27846
4.54691
4.48734
4.56437
4.57281
4.51065
4.45278
4.55213
4.37253
4.4301
4.49263
4.51857
4.59415
4.38206
4.39838
4.38802
4.6
4.15837
4.4784
4.34605
4.27477
4.57665
4.53752
4.32512
4.59773
4.46568
4.41087
4.4106
4.42805
4.59159
4.37588
4.45251
4.58029
4.55624
4.45429
4.57622
4.46808
4.26157
4.48867
4.49132
4.56099
4.47865
4.42011
4.5178
4.36215
4.3449
4.47908
4.55641
4.26674
4.4205
4.56564
4.50778
4.39684
4.33386
4.47578
4.46525
4.2703
4.4688
4.59893
4.39574
4.32726
4.43941
4.40007
4.47851
4.53765
4.42079
4.57127
4.32355
4.44999
4.55829
4.48243
4.54732
4.52402
4.46099
4.52759
4.43128
4.391
4.6
4.39793
4.6
4.57078
4.45637
4.36239
4.54276
4.57647
4.37189
4.53104
4.59124
4.41232
4.58106
4.37146
4.40872
4.46912
4.35581
4.50156
4.38297
4.50894
4.33333
4.28095
4.58971
4.2762
4.43922
4.58137
4.59431
4.40149
4.59154
4.52768
4.58604
4.4675
4.53713
4.29817
4.59157
4.49175
4.56413
4.51088
4.43171
4.26125
4.58177
4.45123
4.39049
4.52829
4.50795
4.48449
4.59923
4.57287
4.55668
4.29835
4.47073
4.38354
4.52614
4.51766
4.54744
4.13696
4.37784
4.44898
4.56015
4.21522
4.54792
4.50799
4.46865
4.42016
4.49883
4.46109
4.28578
4.36236
4.45876
4.59394
4.5814
4.50775
4.4059
4.44902
4.52648
4.58835
4.46082
4.44523
4.58451
4.53296
4.45876
4.29105
4.45927
4.51621
4.53722
4.57027
4.37839
4.27619
4.50078
4.48142
4.18534
4.36268
4.55624
4.39568
4.5903
4.50592
4.41255
4.52302
4.36192
4.5639
4.59131
4.41714
4.4596
4.58243
4.34118
4.4
4.29535
4.59064
4.20117
4.50132
4.26315
4.48462
4.45018
4.56385
4.48616
4.45767
4.2579
4.37017
4.36618
4.49912
4.54087
4.33386
4.58629
4.4199
4.59743
4.57724
4.29649
4.55678
4.1334
4.1537
4.21924
4.57613
4.55654
4.44019
4.50234
4.55702
4.56656
4.58659
4.25944
4.58097
4.43249
4.57742
4.48648
4.47315
4.39814
4.47331
4.48099
4.58866
4.55818
4.39488
4.59031
4.36654
4.31522
4.44729
4.55623
4.53725
4.37133
4.5937
4.54045
4.36423
4.56918
4.4592
4.45562
4.45206
4.45891
4.5662
4.36191
4.47971
4.56464
4.52309
4.5844
4.54212
4.47943
4.28187
4.50865
4.5008
4.31735
4.55755
4.54209
4.46995
4.48104
4.58257
4.42305
4.27629
4.59884
4.14526
4.52657
4.5072
4.52317
4.35521
4.3732
4.26999
4.54561
4.36613
4.34478
4.55247
4.42081
4.33999
4.5325
4.50349
4.09848
4.47207
4.30933
4.37214
4.51944
4.53716
4.35498
4.01913
4.51006
4.59027
4.50534
4.43942
4.59132
4.52835
4.51753
4.56047
4.53213
4.5653
4.56658
4.43829
4.54747
4.20214
4.56067
4.56077
4.59081
4.42994
4.5374
4.47081
4.45029
4.37344
4.48668
4.58091
4.35446
4.34205
4.57973
4.48814
4.42556
4.4686
4.54778
4.44853
4.04173
4.45876
4.45944
4.23881
4.53536
4.5522
4.1728
4.15364
4.57139
4.55361
4.34019
4.47045
4.60072
4.55578
4.38129
4.58837
4.43289
4.21306
4.4839
4.58669
4.55625
4.48169
4.25094
4.44967
4.58118
4.47277
4.5481
4.548
4.25717
4.47428
4.31757
4.54692
4.47492
4.45222
4.3299
4.5276
4.55256
4.54899
4.36336
4.45026
4.37814
4.2673
4.18935
4.40286
4.13888
4.51936
4.47963
4.53018
4.20232
4.31532
4.23324
4.54262
4.50987
4.41962
4.30296
4.18096
4.4654
4.40615
4.38484
4.42193
4.58628
4.59589
4.4683
4.42965
4.52734
4.14221
4.4184
4.57054
4.43043
4.42281
4.25328
4.58379
4.2983
4.53713
4.52999
4.37268
4.48165
4.32385
4.54624
4.51766
4.30299
4.15688
4.48041
4.54715
4.4098
4.51159
4.40276
4.49251
4.58224
4.10493
4.42975
4.43153
4.07685
4.15249
4.40669
4.42943
4.54697
4.56435
4.57856
4.48707
4.55621
4.57062
4.48871
4.44784
4.57525
4.14344
4.49711
4.53719
4.55323
4.50183
4.30555
4.47505
4.32936
4.5401
4.49805
4.11429
4.59495
4.50655
4.40052
4.55611
4.58984
4.38404
4.49423
4.59764
4.47162
4.55645
4.57065
4.59569
4.57055
4.39072
4.48843
4.54392
4.39135
4.58044
4.33221
4.45802
4.37143
4.4
4.58256
4.56422
4.56217
4.59599
4.5244
4.24917
4.50776
4.44088
4.30502
4.59135
4.53718
4.36354
4.53851
4.55868
4.43935
4.42636
4.36341
4.07848
4.59894
4.24789
4.20123
4.47273
4.59739
4.13416
4.5971
4.55439
4.57666
4.53277
4.57204
4.55757
4.5731
4.53003
4.45947
4.343
4.55768
4.45528
4.53779
4.56788
4.58528
4.39102
4.32799
4.36399
4.55992
4.3823
4.30484
4.32649
4.47843
4.33996
4.50806
4.49194
4.4349
4.23813
4.59955
4.37146
4.13944
4.55804
4.53074
4.48065
4.38138
4.4766
4.28883
4.55191
4.50674
4.59851
4.50369
4.34286
4.21457
4.51298
4.31395
4.45632
4.34991
4.20178
4.502
4.25268
4.28713
4.47911
4.39367
4.29898
4.48008
4.59142
4.18478
4.55239
4.48815
4.43998
4.44684
4.46969
4.57714
4.45939
4.36634
4.56998
4.5777
4.3687
4.41033
4.26057
4.23927
4.40055
4.46856
4.59183
4.58869
4.47002
4.22902
4.42012
4.54539
4.4889
4.57613
4.50812
4.50433
4.53979
4.41066
4.31817
4.50946
4.49987
4.32003
4.39457
4.41039
4.53767
4.41288
4.22894
4.37957
4.59881
4.54476
4.58153
4.3829
4.59921
4.46866
4.4022
4.51181
4.51908
4.53857
4.53975
4.20551
4.54707
4.50019
4.40535
4.37145
4.59451
4.56944
4.47041
4.4098
4.39191
4.09664
4.47698
4.4826
4.53711
4.51048
4.51452
4.51281
4.32605
4.40026
4.41959
4.22788
4.37706
4.51484
4.53406
4.42149
4.14341
4.23165
4.59367
4.33529
4.59235
4.45952
4.54693
4.51623
4.43026
4.53721
4.57539
4.58849
4.50409
4.37658
4.2362
4.59546
4.56162
4.58559
4.60013
4.49168
4.33859
4.57105
4.54425
4.27462
4.35568
4.33612
4.48901
4.46858
4.59369
4.38376
4.26855
4.57146
4.57065
4.16298
4.35264
4.59123
4.2773
4.52149
4.49746
4.54767
4.51803
4.14441
4.46963
4.46112
4.56189
4.56996
4.59739
4.50548
4.09134
4.21117
4.16223
4.48086
4.59428
4.52757
4.36194
4.37206
4.4198
4.42322
4.53679
4.46856
4.34423
4.58174
4.51336
4.54135
4.48717
4.57148
4.55626
4.54871
4.38048
4.18201
4.2286
4.56991
4.23197
4.56096
4.41967
4.45357
4.44899
4.52736
4.56442
4.48644
4.54804
4.51753
4.20144
4.49933
4.50839
4.46254
4.40471
4.3172
4.44318
4.59127
4.53837
4.19287
4.58113
4.40355
4.58283
4.39223
4.51752
4.40994
4.50115
4.59848
4.38107
4.524
4.44857
4.46597
4.51754
4.33482
4.46047
4.45939
4.53738
4.469
4.58107
4.57757
4.24418
4.36799
4.53409
4.52395
4.40061
4.56905
4.29583
4.38339
4.29782
4.07932
4.163
4.41831
4.41066
4.24774
4.55505
4.52739
4.30816
4.44919
4.51956
4.35238
4.35239
4.09559
4.21717
4.48894
4.58303
4.17354
4.16084
4.56389
4.39151
4.35377
4.16411
4.42066
4.4133
4.54338
4.52297
4.38157
4.28509
4.51064
4.51807
4.55816
4.56672
4.32397
4.49813
4.21112
4.48356
4.48878
4.44033
4.5646
4.49419
4.46516
4.55145
4.58098
4.36345
4.44986
4.19049
4.26105
4.42217
4.53711
4.19524
4.298
4.0788
4.46775
4.52746
4.50254
4.5669
4.47844
4.53187
4.4981
4.45241
4.47784
4.58264
4.56394
4.54465
4.4053
4.40022
4.36242
4.38114
4.58996
4.47937
4.32698
4.60002
4.54947
4.44034
4.1775
4.54279
4.42049
4.33377
4.40092
4.50408
4.3221
4.54927
4.35938
4.59144
4.44898
4.23904
4.25476
4.4991
4.48582
4.44723
4.51582
4.38096
4.47237
4.3696
4.5108
4.5622
4.54992
4.56228
4.5641
4.09185
4.58092
4.31938
4.552
4.2584
4.24069
4.51664
4.56474
4.57657
4.52737
4.4409
4.43944
4.27638
4.40668
4.37865
4.5941
4.42975
4.56421
4.58554
4.1256
4.39422
4.50773
4.47029
4.56325
4.43984
4.57071
4.59988
4.41235
4.39176
4.57675
4.26915
4.50806
4.44007
4.4863
4.58607
4.48209
4.42096
4.10601
4.54068
4.38108
4.36899
4.52744
4.26755
4.42227
4.36209
4.36657
4.56648
4.49212
4.46001
4.59245
4.23528
4.59368
4.38352
4.39742
4.59654
4.04001
4.2803
4.08202
4.52758
4.41047
4.50886
4.5574
4.32848
4.51893
4.59828
4.29675
4.56034
4.25776
4.55738
4.37216
4.34287
4.42671
4.59626
4.44929
4.1347
4.4
4.53948
4.54388
4.53416
4.55815
4.58128
4.55918
4.32006
4.45435
4.57644
4.55242
4.58336
4.3352
4.21015
4.58228
4.59435
4.55759
4.52965
4.57621
4.56979
4.2023
4.30007
4.13334
4.47565
4.08713
4.43049
4.51964
4.56406
4.53917
4.48064
4.59191
4.57776
4.56418
4.45779
4.41122
4.33898
4.56468
4.57046
4.58075
4.41726
4.33128
4.49278
4.30732
4.4686
4.3732
4.44397
4.59592
4.46728
4.4665
4.4416
4.55113
4.51494
4.04678
4.49794
4.44505
4.30509
4.56391
4.56169
4.29533
4.54139
4.44815
4.30285
4.58179
4.57132
4.56495
4.5764
4.58834
4.40008
4.57662
4.40043
4.44563
4.45599
4.40982
4.3812
4.47139
4.45131
4.40002
4.39082
4.47034
4.33632
4.48819
4.22924
4.40008
4.46877
4.13712
4.45153
4.52073
4.59378
4.54751
4.22149
4.31088
4.30962
4.44644
4.51997
4.26673
4.51813
4.44514
4.35338
4.51782
4.47855
4.57282
4.48257
4.53966
4.2774
4.38823
4.36129
4.58301
4.55778
4.22512
4.59653
4.4005
4.46275
4.58491
4.58222
4.53007
4.32944
4.27783
4.58739
4.45839
4.52673
4.40004
4.398
4.4684
4.56554
4.50386
4.40752
4.09904
4.59365
4.57781
4.19048
4.49417
4.30525
4.30025
4.31296
4.55711
4.59391
4.34549
4.56953
4.49804
4.42014
4.26816
4.29641
4.43818
4.40025
4.09621
4.4155
4.45218
4.40982
4.56432
4.54035
4.55079
4.58836
4.31857
4.5793
4.58947
4.59946
4.55669
4.5894
4.57699
4.16544
4.54988
4.56791
4.6001
4.59133
4.53543
4.09968
4.59167
4.4415
4.35006
4.56758
4.44903
4.46533
4.31829
4.55996
4.43402
4.51331
4.44849
4.23741
4.57106
4.50779
4.58495
4.0294
4.40842
4.49595
4.4585
4.1716
4.52732
4.49442
4.51453
4.50917
4.46627
4.52078
4.48512
4.20367
4.34292
4.01906
4.40237
4.5967
4.37393
4.49544
4.5916
4.52816
4.47969
4.58162
4.32868
4.31773
4.28869
4.43302
4.59164
4.36043
4.48362
4.53773
4.59129
4.33333
4.56665
4.54126
4.4947
4.44916
4.24771
4.51994
4.52893
4.45283
4.28867
4.41559
4.41355
4.2477
4.22928
4.34288
4.50773
4.44029
4.52736
4.55913
4.50998
4.193
4.56447
4.57626
4.21441
4.34016
4.5779
4.54767
4.25757
4.38097
4.44957
4.59369
4.09674
4.53878
4.59741
4.43067
4.56496
4.58492
4.14252
4.54554
4.46121
4.29883
4.58089
4.5471
4.49736
4.5769
4.57451
4.28493
4.22861
4.32422
4.47251
4.35953
4.47886
4.56401
4.57308
4.53571
4.35222
4.40988
4.46001
4.30575
4.44306
4.32188
4.47348
4.4884
4.42941
4.14398
4.38561
4.56233
4.40197
4.27777
4.19048
4.59156
4.18975
4.13775
4.46484
4.52582
4.10032
4.43701
4.50777
4.22069
4.18331
4.2191
4.34293
4.59739
4.52796
4.35425
4.47044
4.57191
4.54177
4.49287
4.52398
4.41166
4.48815
4.57232
4.24071
4.42743
4.41113
4.46192
4.57306
4.53246
4.55617
4.40984
4.28581
4.59945
4.49254
4.55195
4.51662
4.45886
4.51447
4.28585
4.55617
4.38046
4.52418
4.58877
4.35593
4.51042
4.39077
4.49906
4.42939
4.143
4.56285
4.13431
4.58675
4.35247
4.42202
4.54643
4.0796
4.50838
4.44972
4.39053
4.43001
4.33635
4.38438
4.48519
4.37143
4.39352
4.44113
4.42932
4.52041
4.57034
4.57229
4.27464
4.46926
4.49921
4.1921
4.54762
4.28013
4.57751
4.30178
4.58161
4.16233
4.56013
4.55264
4.22675
4.10697
4.23425
4.49063
4.40587
4.57378
4.53712
4.24783
4.59124
4.43932
4.59995
4.58095
4.56395
4.28624
4.42571
4.32611
4.19438
4.47001
4.41983
4.48974
4.56716
4.48895
4.56753
4.23776
4.45166
4.50112
4.44618
4.50745
4.32382
4.57829
4.56241
4.5561
4.50141
4.42476
4.55322
4.43833
4.3833
4.30075
4.56605
4.55622
4.5842
4.3729
4.44583
4.44937
4.49778
4.55676
4.57649
4.06077
4.3862
4.55724
4.11463
4.59461
4.33167
4.58151
4.58153
4.57135
4.56644
4.57419
4.58906
4.16838
4.50997
4.17911
4.14166
4.45041
4.44799
4.41968
4.44178
4.5709
4.50276
4.28824
4.49839
4.21444
4.27794
4.50419
4.44902
4.51465
4.58435
4.18222
4.36316
4.53693
4.35445
4.44035
4.42949
4.49958
4.39873
4.35391
4.22657
4.55609
4.45051
4.55929
4.52008
4.45591
4.55067
4.5778
4.54006
4.47066
4.56743
4.59227
4.55925
4.57152
4.59378
4.35266
4.18191
4.54944
4.55699
4.4232
4.43958
4.07548
4.45827
4.57651
4.57621
4.22435
4.31986
4.56615
4.54768
4.55969
4.26761
4.4364
4.40046
4.5914
4.38128
4.51684
4.5278
4.22874
4.54486
4.57068
4.5825
4.54559
4.59047
4.57674
4.18299
4.47838
4.46113
4.46719
4.54048
4.58265
4.57092
4.43387
4.46648
4.55786
4.2193
4.45185
4.55494
4.44691
4.36198
4.41978
4.43876
4.381
4.58504
4.50269
4.55032
4.58187
4.2552
4.44017
4.40005
4.2748
4.12458
4.36863
4.13417
4.28574
4.4407
4.49845
4.55333
4.47807
4.31431
4.49294
4.56499
4.58447
4.23923
4.27736
4.41419
4.46004
4.48053
4.51955
4.50822
4.45148
4.55896
4.49409
4.21027
4.46261
4.54773
4.11515
4.60031
4.43504
4.38952
4.56477
4.31429
4.56392
4.48823
4.59526
4.40863
4.52421
4.36902
4.45541
4.54881
4.60001
4.40301
4.53747
4.57834
4.54072
4.59406
4.46024
4.56622
4.57056
4.4037
4.47429
4.45232
4.47836
4.23844
4.49817
4.46226
4.42581
4.56697
4.55855
4.40622
4.40915
4.4006
4.43949
4.37143
4.51778
4.59594
4.57082
4.32345
4.25829
4.52599
4.55364
4.32994
4.38208
4.24752
4.57631
4.3435
4.56652
4.43256
4.43032
4.57077
4.55429
4.54055
4.32382
4.43143
4.59194
4.52245
4.21376
4.34014
4.51301
4.57045
4.54462
4.391
4.43165
4.22952
4.59343
4.48883
4.59291
4.54402
4.56411
4.58943
4.55787
4.59571
4.37143
4.26122
4.57611
4.53328
4.58541
4.46929
4.47208
4.42938
4.58134
4.3708
4.40979
4.15483
4.12433
4.52549
4.26667
4.28685
4.43919
4.53111
4.25715
4.56834
4.49292
4.42952
4.47925
4.56692
4.47915
4.49081
4.17266
4.49297
4.34768
4.29404
4.58258
4.57794
4.55622
4.2865
4.34071
4.3716
4.59178
4.53144
4.50543
4.44361
4.43917
4.56729
4.54081
4.51937
4.59743
4.59547
4.33781
4.44387
4.3152
4.51952
4.50642
4.37166
4.31518
4.53322
4.55819
4.58491
4.45878
4.25937
4.40416
4.56445
4.59631
4.56884
4.26293
4.29686
4.41052
4.37317
4.55589
4.34811
4.28971
4.52724
4.45333
4.57663
4.27113
4.49054
4.56887
4.2762
4.54731
4.5767
4.27014
4.42127
4.45897
4.27893
4.49108
4.46869
4.40096
4.5749
4.15978
4.5909
4.12276
4.3895
4.58554
4.45282
4.49539
4.5004
4.59928
4.47823
4.08717
4.56399
4.54799
4.50845
4.50812
4.5084
4.31018
4.51752
4.58843
4.394
4.43922
4.38284
4.23533
4.50855
4.56967
4.30392
4.34292
4.56869
4.53902
4.3544
4.22111
4.57627
4.58841
4.48238
4.32788
4.59665
4.555
4.53783
4.03184
4.50818
4.48553
4.49047
4.6007
4.48496
4.49848
4.30768
4.55597
4.51518
4.29249
4.30498
4.58211
4.28925
4.50833
4.25891
4.44036
4.45879
4.3925
4.17899
4.46858
4.48319
4.40645
4.42093
4.50774
4.46233
4.21564
4.29534
4.55437
4.55153
4.31443
4.5995
4.18293
4.57906
4.48847
4.5646
4.57628
4.34419
4.58438
4.50258
4.43934
4.41375
4.50077
4.41813
4.4802
4.39252
4.40803
4.33091
4.57643
4.42133
4.41949
4.44294
4.52024
4.53755
4.26833
4.45106
4.46445
4.45999
4.51615
4.5977
4.43002
4.11626
4.28596
4.45878
4.18825
4.33391
4.54827
4.50693
4.52631
4.30476
4.1082
4.48914
4.48011
4.4392
4.36271
4.53274
4.52371
4.51012
4.42274
4.44879
4.58123
4.21923
4.44091
4.53872
4.03277
4.31815
4.11456
4.47838
4.55619
4.58098
4.44014
4.33868
4.48652
4.39185
4.2213
4.38129
4.58963
4.42942
4.33434
4.30483
4.59492
4.31531
4.59166
4.34752
4.43963
4.45118
4.04835
4.59798
4.58154
4.38278
4.58445
4.50091
4.39334
4.18095
4.59782
4.55911
4.53713
4.45877
4.41408
4.3426
4.55363
4.55045
4.44435
4.5204
4.52789
4.37076
4.57758
4.55804
4.5181
4.45399
4.33446
4.55717
4.44928
4.56391
4.57177
4.51783
4.2131
4.25828
4.47974
4.56396
4.21913
4.4588
4.20028
4.39308
4.59739
4.60001
4.34684
4.47327
4.23361
4.55839
4.56184
4.58097
4.41945
4.46519
4.31474
4.44899
4.5457
4.24788
4.5473
4.46004
4.59409
4.51472
4.3318
4.3489
4.58991
4.50776
4.36344
4.57169
4.43521
4.57416
4.5672
4.29608
4.57617
4.54721
4.53101
4.2371
4.40799
4.57045
4.33689
4.34955
4.05771
4.49792
4.58502
4.34969
4.53754
4.04821
4.59745
4.47841
4.55469
4.28572
4.58272
4.37179
4.40006
4.48861
4.51032
4.54703
4.42055
4.53133
4.03858
4.5437
4.48466
4.50938
4.48874
4.57745
4.41966
4.28771
4.37985
4.41058
4.52994
4.56649
4.29393
4.58741
4.56519
4.29535
4.11453
4.12643
4.47503
4.31918
4.47844
4.26809
4.37764
4.56251
4.52941
4.53183
4.37931
4.57647
4.35403
4.51092
4.42949
4.36474
4.29273
4.33501
4.50816
4.28683
4.5575
4.36126
4.59025
4.48858
4.23199
4.41086
4.50587
4.50821
4.57546
4.51627
4.59134
4.33131
4.51805
4.28576
4.50833
4.42221
4.14426
4.25836
4.5376
4.26965
4.51797
4.43452
4.32558
4.40372
4.30556
4.20016
4.48548
4.32176
4.20026
4.55685
4.51981
4.35768
4.5572
4.55066
4.41046
4.52235
4.5806
4.52813
4.42598
4.48839
4.25552
4.54867
4.31456
4.3947
4.53046
4.46057
4.35275
4.54001
4.59209
4.59308
4.37197
4.46129
4.49808
4.55176
4.44779
4.56924
4.37519
4.57174
4.5855
4.4742
4.56498
4.32237
4.43892
4.596
4.22907
4.56416
4.57831
4.35255
4.54199
4.40019
4.15705
4.43918
4.47008
4.56888
4.31449
4.46146
4.5974
4.30526
4.5241
4.47886
4.59134
4.24931
4.58285
4.45099
4.25636
4.50182
4.58703
4.49406
4.5652
4.38261
4.54691
4.40121
4.54721
4.32569
4.41073
4.51773
4.57686
4.59739
4.53639
4.57234
4.57739
4.39127
4.41341
4.47137
4.5762
4.59744
4.54901
4.52261
4.52862
4.53319
4.18143
4.52734
4.46072
4.42525
4.52397
4.49082
4.34681
4.50794
4.29528
4.51666
4.27047
4.29861
4.5168
4.59749
4.59365
4.45376
4.59204
4.48965
4.433
4.4893
4.3741
4.58806
4.1735
4.40053
4.50801
4.43261
4.32761
4.12515
4.47713
4.30747
4.52735
4.40231
4.54007
4.36566
4.59746
4.56507
4.53071
4.43522
4.34828
4.56511
4.57056
4.26349
4.32427
4.46087
4.4978
4.50345
4.47056
4.60009
4.43419
4.40154
4.41154
4.4895
4.48425
4.57105
4.57688
4.57614
4.54409
4.18541
4.42592
4.59208
4.22973
)


// ************************************************************************* //
