/*--------------------------------*- C++ -*----------------------------------*\
| =========                 |                                                 |
| \\      /  F ield         | OpenFOAM: The Open Source CFD Toolbox           |
|  \\    /   O peration     | Version:  plus.master.MPPICInterFoam            |
|   \\  /    A nd           | Web:      www.OpenFOAM.com                      |
|    \\/     M anipulation  |                                                 |
\*---------------------------------------------------------------------------*/
FoamFile
{
    version     2.0;
    format      ascii;
    class       volScalarField;
    location    "5";
    object      epsilon;
}
// * * * * * * * * * * * * * * * * * * * * * * * * * * * * * * * * * * * * * //

dimensions      [0 2 -3 0 0 0 0];

internalField   nonuniform List<scalar> 
11822
(
0.153026
0.176217
0.193356
0.198852
0.190752
0.173372
0.151933
0.177831
0.208217
0.230661
0.237026
0.2259
0.202202
0.173996
0.197516
0.233545
0.252148
0.254514
0.248208
0.224992
0.191086
0.205932
0.243969
0.261874
0.251871
0.253394
0.234298
0.198414
0.200003
0.236675
0.257925
0.254867
0.249856
0.227362
0.193303
0.182585
0.213238
0.236003
0.241641
0.230621
0.206819
0.17829
0.159684
0.183264
0.200561
0.205977
0.197628
0.179923
0.15803
0.145691
0.163316
0.175142
0.179025
0.174653
0.163699
0.148109
0.164468
0.185037
0.199166
0.203178
0.197146
0.183506
0.16523
0.178192
0.201445
0.217443
0.221073
0.213713
0.197936
0.177314
0.184363
0.208767
0.224354
0.228778
0.220786
0.204199
0.182594
0.181602
0.205605
0.220432
0.224641
0.217065
0.201
0.180112
0.170563
0.191833
0.206536
0.210061
0.203499
0.189364
0.170593
0.153766
0.172185
0.184459
0.188137
0.183295
0.171796
0.155539
0.150478
0.168046
0.179434
0.183651
0.180734
0.171359
0.156353
0.168835
0.187862
0.20021
0.204327
0.200627
0.190053
0.173816
0.181627
0.201857
0.214665
0.218556
0.214032
0.202938
0.18563
0.187645
0.208514
0.218748
0.224635
0.220639
0.208818
0.190958
0.185956
0.207017
0.218249
0.223054
0.219048
0.207093
0.189277
0.176426
0.196502
0.209554
0.21312
0.209135
0.197726
0.180644
0.160223
0.179052
0.191168
0.195167
0.191717
0.181538
0.165504
0.163736
0.185153
0.199447
0.205377
0.202684
0.191852
0.173759
0.185561
0.208691
0.224106
0.230183
0.226909
0.214969
0.195489
0.200783
0.225184
0.241145
0.247478
0.244567
0.231036
0.210367
0.208013
0.23302
0.247124
0.254826
0.252125
0.238707
0.217228
0.206182
0.231462
0.245113
0.254548
0.251537
0.236887
0.215213
0.195014
0.219703
0.236171
0.241964
0.238142
0.225058
0.204299
0.175537
0.198896
0.214397
0.220292
0.216863
0.204834
0.18514
0.184291
0.213039
0.233239
0.242332
0.239158
0.224469
0.19997
0.212932
0.245078
0.267776
0.277706
0.27339
0.25699
0.229713
0.233407
0.268126
0.292522
0.303616
0.297016
0.280133
0.250689
0.24303
0.278655
0.302293
0.315457
0.311417
0.291485
0.260399
0.240173
0.276214
0.301889
0.316945
0.311497
0.28822
0.257027
0.224677
0.259222
0.283899
0.294326
0.288701
0.270115
0.240942
0.198478
0.230137
0.252264
0.261617
0.257377
0.240886
0.213994
0.213019
0.253379
0.28348
0.297926
0.293719
0.271913
0.236543
0.25256
0.299955
0.335714
0.352394
0.34657
0.320778
0.279289
0.28191
0.334886
0.375245
0.394536
0.386751
0.357233
0.310628
0.295488
0.350158
0.389351
0.41195
0.405983
0.373859
0.324852
0.290292
0.345265
0.389703
0.408991
0.392136
0.365863
0.318469
0.266869
0.317781
0.356644
0.373077
0.365078
0.337585
0.293291
0.229637
0.27415
0.30708
0.321969
0.316334
0.292195
0.253381
0.129921
0.113373
0.098542
0.0858399
0.0759054
0.07012
0.073676
0.133018
0.146876
0.125904
0.107791
0.0924154
0.0801876
0.0723741
0.0738409
0.128567
0.160196
0.136193
0.115621
0.0981927
0.0842013
0.0748572
0.0748738
0.126836
0.166111
0.140961
0.119459
0.101197
0.0864636
0.0764681
0.0759332
0.127372
0.162494
0.138599
0.118023
0.100456
0.0862424
0.0766807
0.0766542
0.129841
0.151253
0.130425
0.112233
0.0965713
0.0839394
0.0757555
0.0772089
0.134422
0.135992
0.119499
0.104459
0.0913389
0.0808962
0.0747033
0.0783903
0.141544
0.129495
0.114431
0.100163
0.0875109
0.0774231
0.0714703
0.0749674
0.13462
0.144416
0.126405
0.109496
0.0943558
0.0819535
0.073887
0.0752062
0.130138
0.15535
0.135846
0.117223
0.100288
0.0861431
0.0764855
0.0762717
0.128266
0.16031
0.140343
0.121107
0.10343
0.0885228
0.0781594
0.0773373
0.128692
0.158197
0.138756
0.120026
0.102826
0.0883391
0.0783609
0.0780222
0.131116
0.149743
0.131764
0.114594
0.0989516
0.0859384
0.0773316
0.0784958
0.135695
0.136678
0.121506
0.106797
0.0934698
0.082632
0.0760724
0.0795291
0.14269
0.136829
0.120522
0.104911
0.0910425
0.0800007
0.0734115
0.0766369
0.136824
0.152991
0.133853
0.11539
0.0987026
0.0850304
0.0760817
0.0769577
0.132329
0.164561
0.144285
0.12406
0.105343
0.0896633
0.0789059
0.0780914
0.130396
0.169926
0.14934
0.128452
0.10887
0.0922748
0.0806842
0.0791683
0.130739
0.168131
0.14781
0.127323
0.108172
0.091997
0.0808028
0.0797742
0.133053
0.159533
0.140215
0.121214
0.103737
0.0892035
0.079525
0.0800985
0.137515
0.145381
0.128684
0.112294
0.0974186
0.0853506
0.0779428
0.0809528
0.144333
0.149977
0.130248
0.111749
0.0956587
0.0830668
0.0755198
0.0783229
0.139444
0.169962
0.146493
0.124235
0.104558
0.0887697
0.0784927
0.0787157
0.134822
0.184472
0.159408
0.134717
0.11235
0.0940386
0.0816095
0.0799328
0.1328
0.191296
0.165721
0.14005
0.11647
0.0969604
0.083509
0.0810162
0.133051
0.18901
0.163699
0.138501
0.115465
0.0964694
0.0834785
0.0815056
0.135224
0.178066
0.154047
0.130834
0.109984
0.0930447
0.0818457
0.081633
0.139543
0.16018
0.139615
0.119863
0.102357
0.0884365
0.07987
0.0823025
0.146258
0.168571
0.143265
0.120382
0.101141
0.0865004
0.0778022
0.0802537
0.142943
0.194937
0.163951
0.135683
0.111637
0.0929852
0.0810604
0.0806373
0.138252
0.214618
0.180808
0.148791
0.120958
0.0990169
0.0844779
0.0819039
0.136157
0.223904
0.189057
0.155419
0.125807
0.102272
0.0864709
0.0829541
0.136315
0.220323
0.185958
0.153083
0.124276
0.101442
0.0862227
0.0832909
0.138295
0.204856
0.172769
0.142979
0.117299
0.0971885
0.0841716
0.0832135
0.142388
0.180582
0.153812
0.129076
0.107954
0.0916884
0.0818059
0.0837679
0.148931
0.193489
0.16017
0.131484
0.108514
0.0919345
0.0829012
0.0883679
0.185824
0.229373
0.187013
0.150431
0.12089
0.0992471
0.0863761
0.088416
0.179307
0.257166
0.209602
0.167048
0.132091
0.106085
0.0900217
0.0894946
0.17602
0.270216
0.220594
0.175342
0.137765
0.109587
0.0919313
0.0901924
0.175065
0.264118
0.215564
0.171666
0.135331
0.108175
0.0912552
0.0901319
0.176384
0.241172
0.196911
0.158048
0.126313
0.102885
0.0887153
0.0899221
0.180973
0.207151
0.171516
0.140237
0.114892
0.0964205
0.0860414
0.0907409
0.189296
0.135022
0.116582
0.0999141
0.0855467
0.0741885
0.0672141
0.0696046
0.126188
0.152059
0.128366
0.107799
0.0903333
0.0764275
0.0672653
0.067291
0.11741
0.165007
0.137513
0.11393
0.0940882
0.0782977
0.0675961
0.0660581
0.11189
0.169265
0.140251
0.115517
0.0948226
0.0784216
0.0672485
0.0651839
0.109162
0.162452
0.134914
0.111429
0.0918312
0.0763639
0.0659561
0.064505
0.109097
0.147231
0.123518
0.103198
0.0862008
0.0728619
0.064189
0.064306
0.111931
0.128478
0.110135
0.0938649
0.0801034
0.06942
0.0629811
0.0653277
0.118061
0.132458
0.115667
0.0996955
0.0855122
0.0741482
0.0671353
0.0694676
0.125455
0.146526
0.126102
0.10701
0.0900597
0.0762757
0.0671314
0.0671375
0.116703
0.155956
0.133458
0.112285
0.0934093
0.0779512
0.0673739
0.0658779
0.111171
0.158321
0.135146
0.113327
0.0938791
0.077958
0.0669933
0.0650287
0.108527
0.152732
0.130349
0.109439
0.09096
0.0759541
0.0657668
0.0644382
0.108665
0.140706
0.12048
0.101882
0.0856446
0.0726329
0.0641374
0.0643745
0.111787
0.124863
0.108409
0.0931092
0.0798055
0.0693468
0.0630524
0.0655155
0.118137
0.137699
0.119681
0.102436
0.0871882
0.0750773
0.0676255
0.0697446
0.125437
0.15216
0.130676
0.110213
0.0920181
0.077336
0.0676653
0.067423
0.116746
0.161168
0.13808
0.115654
0.0955026
0.0790867
0.0679452
0.0661938
0.111293
0.162979
0.139513
0.116574
0.0959274
0.0790945
0.0675919
0.0654
0.108787
0.157223
0.134414
0.112448
0.0928785
0.0770508
0.0663912
0.0648815
0.10909
0.145192
0.124189
0.104539
0.0873476
0.0736615
0.0647925
0.0649111
0.112418
0.12888
0.111525
0.0953136
0.0812665
0.0703054
0.0637429
0.0661499
0.118946
0.148282
0.126859
0.106879
0.0896904
0.0763743
0.0682837
0.070143
0.125997
0.165589
0.139824
0.11586
0.0951547
0.0789125
0.0684204
0.0678459
0.117344
0.176285
0.148578
0.122196
0.0991424
0.0809048
0.0688034
0.0666668
0.111966
0.178364
0.150258
0.123305
0.099704
0.0809993
0.0685114
0.0659311
0.109581
0.171492
0.144292
0.118619
0.0963549
0.0788491
0.0673118
0.0654676
0.110016
0.157244
0.132372
0.10964
0.090279
0.0752592
0.0656952
0.0655671
0.113533
0.138047
0.117763
0.0992751
0.0836461
0.0717133
0.064646
0.0669012
0.120284
0.163182
0.136401
0.112448
0.092646
0.077832
0.0690464
0.0707992
0.127583
0.185539
0.152553
0.123224
0.0989876
0.0807208
0.0692683
0.0684938
0.119151
0.199777
0.16379
0.13105
0.103743
0.0830489
0.0697689
0.0673518
0.113939
0.202805
0.166181
0.132628
0.104576
0.0832839
0.0695561
0.0666674
0.111673
0.193961
0.158811
0.127113
0.100847
0.0810303
0.0683775
0.0662675
0.112185
0.175617
0.144108
0.116542
0.0940276
0.0771921
0.0667556
0.0664566
0.115777
0.151471
0.126459
0.104534
0.0866559
0.0734196
0.0657387
0.0679381
0.122608
0.182851
0.148832
0.11992
0.0973301
0.0813432
0.0726757
0.0772671
0.164637
0.21276
0.169458
0.133088
0.104746
0.0846296
0.0729184
0.0745105
0.153723
0.232851
0.184493
0.143072
0.110503
0.0873547
0.0735088
0.0731743
0.147175
0.23776
0.188176
0.145452
0.111754
0.0878039
0.0733983
0.0725112
0.144656
0.225924
0.178866
0.138908
0.107633
0.0854726
0.0722833
0.0722989
0.145848
0.201258
0.160209
0.12624
0.0999527
0.0814014
0.0707364
0.0728727
0.151101
0.169901
0.138417
0.112118
0.0917301
0.0774142
0.0698645
0.0749813
0.16062
0.128236
0.11001
0.0938593
0.0802115
0.0696275
0.0632778
0.0657287
0.118826
0.145643
0.122371
0.102563
0.0860681
0.0731734
0.0648732
0.0653384
0.113735
0.158857
0.132247
0.109782
0.0911808
0.0765905
0.066899
0.0660733
0.111834
0.163516
0.136022
0.112846
0.093631
0.0785204
0.0683849
0.0671946
0.112649
0.157939
0.132421
0.110751
0.092675
0.0784066
0.0689332
0.0684264
0.115931
0.145204
0.123517
0.104871
0.0891706
0.0767858
0.0688658
0.0699693
0.121923
0.129417
0.1127
0.0977289
0.0849277
0.074926
0.0690819
0.0725013
0.13098
0.124767
0.108431
0.0932452
0.0800431
0.0696684
0.0634449
0.0659998
0.119005
0.139644
0.119846
0.101739
0.0859694
0.0733552
0.0651815
0.0657405
0.114091
0.150193
0.128649
0.108696
0.0911476
0.0769284
0.0673637
0.0666118
0.11232
0.154163
0.132332
0.111951
0.0938779
0.0791176
0.0690609
0.0679076
0.113347
0.15085
0.130086
0.110672
0.0934339
0.079354
0.0698598
0.0693394
0.116923
0.141671
0.12304
0.105737
0.0904347
0.0780382
0.0700094
0.0710717
0.123254
0.128727
0.113529
0.0991571
0.0864412
0.0763217
0.0703427
0.0737291
0.132548
0.128926
0.111699
0.0955965
0.081637
0.0707408
0.0642299
0.0667122
0.119921
0.144617
0.124068
0.104905
0.0881473
0.0748005
0.0661883
0.0665894
0.115179
0.155598
0.133639
0.112623
0.0939282
0.0787855
0.0686303
0.0676232
0.113586
0.160161
0.138042
0.116534
0.0971788
0.0813541
0.0705891
0.0691054
0.114839
0.157713
0.136354
0.115664
0.0970518
0.0818415
0.0715889
0.0707075
0.118654
0.14908
0.129406
0.110708
0.0940558
0.0805871
0.071843
0.0725795
0.12524
0.135783
0.119376
0.103695
0.0898055
0.0787758
0.0721969
0.0753391
0.134721
0.138267
0.118115
0.0997265
0.0841635
0.0722685
0.0652276
0.0675427
0.121386
0.157221
0.132847
0.110593
0.0916075
0.0768363
0.0674353
0.0675281
0.116714
0.170875
0.144602
0.119872
0.0983831
0.0813999
0.0701894
0.0687249
0.115256
0.17703
0.150369
0.124831
0.10237
0.0844421
0.0724385
0.0703903
0.116717
0.174682
0.148809
0.12414
0.102447
0.0851292
0.0736124
0.0721429
0.120748
0.164592
0.140732
0.118481
0.0991115
0.0837771
0.0739008
0.0741188
0.127574
0.148587
0.12881
0.110295
0.0942395
0.0817122
0.0742181
0.0769681
0.137287
0.151908
0.127024
0.105177
0.0873313
0.0740971
0.0664135
0.0686655
0.123856
0.176343
0.145361
0.118217
0.0959619
0.0792357
0.068838
0.068687
0.119346
0.194746
0.160585
0.129743
0.104038
0.0844736
0.0718978
0.0700011
0.118052
0.203591
0.16847
0.136201
0.108969
0.0880597
0.0744401
0.0718265
0.119707
0.200901
0.166793
0.135563
0.109206
0.0889314
0.0757817
0.0737241
0.123896
0.187665
0.156552
0.128654
0.105286
0.0873958
0.0760925
0.0758134
0.130853
0.16676
0.141483
0.118653
0.0995141
0.0849951
0.0763933
0.0788173
0.1407
0.170575
0.139149
0.112912
0.0925514
0.0782063
0.070635
0.0758394
0.162458
0.202942
0.16236
0.128625
0.102457
0.0838317
0.07307
0.075347
0.155695
0.228664
0.18251
0.143112
0.112018
0.0897024
0.0762901
0.0764561
0.153352
0.241752
0.193475
0.151553
0.118042
0.093824
0.0790548
0.0783324
0.155066
0.238314
0.191443
0.15086
0.118368
0.0948154
0.0805222
0.0804326
0.160248
0.219769
0.177759
0.142042
0.113594
0.0930103
0.0808844
0.0829267
0.169295
0.191212
0.15804
0.129487
0.10666
0.0902355
0.0813003
0.0866609
0.182509
0.136257
0.119654
0.104496
0.0912566
0.0807017
0.0744078
0.077995
0.140959
0.152867
0.131611
0.112927
0.0967606
0.0836563
0.0750586
0.0761287
0.132654
0.166172
0.141349
0.119776
0.101224
0.0861034
0.0757601
0.0750419
0.127099
0.172076
0.14535
0.122299
0.102582
0.0865287
0.0754195
0.0739221
0.123879
0.167393
0.141429
0.118984
0.0998028
0.0842561
0.0736172
0.0725198
0.122762
0.153793
0.130862
0.110851
0.0937072
0.0799307
0.0708287
0.0711634
0.123978
0.135531
0.117271
0.100747
0.0864748
0.0751719
0.0682412
0.0707416
0.128014
0.136826
0.121532
0.106699
0.0932518
0.0823049
0.0756456
0.0789946
0.141877
0.150893
0.1325
0.114835
0.0986871
0.0852091
0.0762008
0.076966
0.133214
0.160878
0.140625
0.120954
0.102794
0.0874264
0.0767039
0.0756684
0.127241
0.164666
0.14339
0.122737
0.103671
0.0875084
0.0760956
0.0743185
0.123671
0.160662
0.139471
0.119109
0.100507
0.0848933
0.0740256
0.0727087
0.122329
0.149411
0.129638
0.110936
0.0941152
0.0802653
0.0710114
0.071201
0.123439
0.133239
0.116578
0.100706
0.0865784
0.075234
0.0682365
0.0706588
0.12734
0.145396
0.128562
0.112039
0.097045
0.0848752
0.0773775
0.0802775
0.143292
0.16026
0.14048
0.120946
0.102952
0.0879745
0.0779289
0.0781104
0.134326
0.170011
0.148837
0.127362
0.107236
0.0902181
0.078347
0.0766492
0.128029
0.173055
0.151162
0.128832
0.107846
0.0900593
0.0775271
0.0751074
0.124177
0.168368
0.146393
0.124402
0.104019
0.08697
0.0751444
0.0732887
0.122595
0.156294
0.135347
0.115077
0.0967668
0.0817856
0.0718116
0.0716172
0.123569
0.138759
0.120818
0.103627
0.08839
0.0762574
0.0687845
0.0709697
0.127356
0.160018
0.1393
0.119415
0.101801
0.0877999
0.0791662
0.0815001
0.145012
0.178253
0.153695
0.129916
0.108569
0.0912483
0.0797628
0.0792081
0.135696
0.189939
0.16365
0.137396
0.11341
0.0936841
0.0801647
0.0776241
0.129112
0.193067
0.166011
0.138802
0.113872
0.0933408
0.0791657
0.0759203
0.125023
0.186553
0.159594
0.133065
0.10914
0.0896809
0.0764488
0.0739051
0.123226
0.171233
0.145807
0.121743
0.100602
0.0837716
0.0727568
0.0720752
0.12409
0.14967
0.128255
0.108265
0.091023
0.0776287
0.069471
0.0713592
0.127882
0.180173
0.153245
0.128385
0.107182
0.0908698
0.080954
0.0828362
0.14747
0.204196
0.171514
0.141176
0.115086
0.0947276
0.0815601
0.0803518
0.137934
0.219693
0.184243
0.150337
0.120742
0.0974318
0.0819474
0.0786362
0.13119
0.223416
0.18692
0.151797
0.121089
0.0969084
0.0807709
0.0767804
0.126936
0.213861
0.178011
0.144256
0.115223
0.0926111
0.0777294
0.0746075
0.124957
0.192993
0.160024
0.130176
0.105098
0.0859148
0.073717
0.0726794
0.125686
0.164948
0.138084
0.114038
0.094103
0.0791466
0.0702466
0.0719884
0.129425
0.206432
0.170664
0.139306
0.113894
0.095417
0.0850328
0.0896143
0.187057
0.239207
0.194412
0.155134
0.12316
0.0996934
0.0855259
0.0864298
0.174364
0.260809
0.211297
0.16666
0.129886
0.102719
0.0858594
0.0843173
0.165665
0.265564
0.21454
0.168299
0.13019
0.102073
0.084553
0.0822745
0.160511
0.251325
0.202095
0.158453
0.123029
0.0971807
0.0812992
0.0800886
0.158547
0.22215
0.178345
0.140894
0.111209
0.0898362
0.0771868
0.0784454
0.160458
0.184995
0.15075
0.121651
0.0988359
0.0826303
0.0737985
0.0783596
0.166545
0.00151038
0.000954072
0.00125053
0.00173152
0.00234486
0.00302339
0.00360675
0.00399783
0.001543
0.000984517
0.00129749
0.00180234
0.00244531
0.0031427
0.00373065
0.00411581
0.00155851
0.00100528
0.0013337
0.0018605
0.00253169
0.00324648
0.00383952
0.00422138
0.00156033
0.00101532
0.00135452
0.0018956
0.00258442
0.00331399
0.00391503
0.00429682
0.00155713
0.00101842
0.00136476
0.00191545
0.00261649
0.0033556
0.00396112
0.00434262
0.00155102
0.00101519
0.0013639
0.00191847
0.00262571
0.00337092
0.00398068
0.00436447
0.00153516
0.00100157
0.00134538
0.00189394
0.00259577
0.00333967
0.00395101
0.00433779
0.00227508
0.00147501
0.00197524
0.00279885
0.0038832
0.00494748
0.00569053
0.00604326
0.00232369
0.00152687
0.00205666
0.00292249
0.0040579
0.00513309
0.00586314
0.00619058
0.0023502
0.00156516
0.00212359
0.00303093
0.00421619
0.00529917
0.00602222
0.00633003
0.00236083
0.00158801
0.00216606
0.00309943
0.00431459
0.00541333
0.00613548
0.00643244
0.00237128
0.00160387
0.00219665
0.00315012
0.0043875
0.00549644
0.00621696
0.0065066
0.00237834
0.00161007
0.00221037
0.00317562
0.00442787
0.00554609
0.00626953
0.00655839
0.00236474
0.00159535
0.00219068
0.00315102
0.00440146
0.00552525
0.00625487
0.00654913
0.00355785
0.00253589
0.00360109
0.00528919
0.0073893
0.00880917
0.00943436
0.00943274
0.00365942
0.00264995
0.00378405
0.00557908
0.00772156
0.00909415
0.00966346
0.00960926
0.00372671
0.00274177
0.00394411
0.00585163
0.00802605
0.00937673
0.00989503
0.00979309
0.00377513
0.00280868
0.00406035
0.0060415
0.0082264
0.00954927
0.0100492
0.00992756
0.00382816
0.00286599
0.00415605
0.00619273
0.00838851
0.00970007
0.0101833
0.0100418
0.00387155
0.00290354
0.00421839
0.00629267
0.00850782
0.00982102
0.0102968
0.0101432
0.00386715
0.00289142
0.00420263
0.00627259
0.00850812
0.00983685
0.0103205
0.0101689
0.00620802
0.00541654
0.00840972
0.0126587
0.0153113
0.0162541
0.0159863
0.0149591
0.00644959
0.00572849
0.00892158
0.0133135
0.0158725
0.0166774
0.0162807
0.0151496
0.00662822
0.00598766
0.00936049
0.0138873
0.0163934
0.017101
0.0165929
0.015369
0.00678775
0.00618639
0.0096674
0.0142514
0.0167136
0.0173584
0.0168002
0.0155334
0.0069634
0.00636693
0.00992879
0.0145675
0.0170075
0.0176088
0.0170064
0.015697
0.007118
0.00650894
0.0101346
0.0148401
0.0172805
0.0178572
0.0172205
0.015875
0.00715741
0.00651798
0.0101426
0.0148784
0.0173477
0.0179419
0.017309
0.0159588
0.0128866
0.0165798
0.0252795
0.0302402
0.0313236
0.0298
0.0268754
0.023418
0.0136543
0.0177733
0.02696
0.0316585
0.0323616
0.0304635
0.0272454
0.0235849
0.0142822
0.0188612
0.0285065
0.0329788
0.0333443
0.0311155
0.0276411
0.0238068
0.014768
0.0194048
0.0290086
0.0333167
0.0336126
0.0313558
0.0278469
0.0239678
0.0152532
0.0198379
0.0293846
0.0336227
0.0339156
0.0316534
0.0281073
0.024172
0.0156985
0.0202285
0.0297857
0.034029
0.0343398
0.0320603
0.0284592
0.0244522
0.0157935
0.0201978
0.0297222
0.0340355
0.0344366
0.0322213
0.0286399
0.0246225
0.0553163
0.062134
0.0655487
0.0640661
0.0590823
0.0517047
0.0432316
0.035032
0.0613521
0.0674022
0.0698392
0.0673171
0.0612278
0.0528861
0.0437276
0.0351133
0.0679253
0.0726572
0.0741766
0.070628
0.0634406
0.0541489
0.0443193
0.0353138
0.0680452
0.0722078
0.0733656
0.069814
0.0628552
0.0538573
0.0442394
0.0353299
0.0663121
0.0706441
0.071879
0.0687686
0.0623549
0.053784
0.0443761
0.0355018
0.065116
0.069661
0.0711003
0.06843
0.0624653
0.0541777
0.0448419
0.0358971
0.0638844
0.0686784
0.070393
0.068049
0.0624156
0.0543785
0.0451503
0.0362097
0.00117614
0.000761028
0.00103166
0.00145821
0.00200205
0.00264365
0.00323239
0.00365425
0.00110701
0.000727009
0.000994683
0.00141215
0.00194219
0.00257526
0.00316746
0.00360297
0.00106547
0.00070513
0.00096854
0.00137735
0.00189511
0.00251846
0.00310965
0.00355323
0.00107352
0.000704202
0.000961531
0.00136305
0.00187173
0.00248509
0.00307077
0.00351559
0.00111189
0.000716856
0.000967731
0.00136349
0.00186562
0.00247139
0.00305159
0.00349542
0.00115117
0.000731644
0.00097775
0.00136935
0.00186645
0.00246678
0.00304436
0.00348678
0.00118331
0.000745147
0.000989314
0.0013801
0.00187674
0.00247514
0.00304905
0.00348809
0.00188083
0.00121929
0.00166861
0.00239926
0.00336033
0.00441285
0.00522615
0.00566734
0.00177049
0.0011557
0.00158989
0.00229078
0.00320976
0.00424673
0.00507648
0.00554943
0.00169724
0.00111075
0.00153081
0.00220642
0.00308994
0.00410802
0.00494606
0.00544113
0.00169328
0.00109875
0.00150633
0.00216523
0.00302657
0.00402548
0.00486103
0.00536723
0.00173537
0.00110976
0.00150615
0.00215309
0.00299931
0.00398638
0.00482204
0.0053309
0.00178529
0.00112807
0.00151696
0.00215663
0.00299348
0.00397108
0.00480194
0.0053135
0.00182909
0.0011474
0.00153429
0.00217396
0.00301164
0.00398681
0.00481251
0.00531851
0.0030413
0.00211802
0.00303134
0.00449995
0.00641372
0.00800251
0.00884192
0.00902181
0.00285035
0.00197797
0.00283381
0.0042156
0.00603983
0.0076443
0.00855061
0.00880258
0.00271024
0.0018707
0.00267797
0.00398588
0.00572828
0.00733009
0.0082897
0.00859943
0.00266568
0.00182029
0.00259228
0.00385055
0.00553665
0.00713464
0.00812193
0.00846375
0.00269227
0.00181404
0.00256105
0.00378766
0.00543748
0.00702353
0.00802753
0.00839092
0.0027443
0.00183029
0.00256385
0.0037743
0.00540364
0.00697418
0.00798276
0.00835782
0.00279848
0.00185738
0.00259082
0.00380462
0.00544002
0.00700307
0.00800351
0.00836923
0.00533259
0.00439475
0.00674539
0.0103709
0.0134533
0.0149226
0.0151169
0.0144521
0.00493493
0.00401515
0.00615001
0.00948497
0.0126505
0.0142676
0.0146211
0.0141005
0.00461238
0.00370393
0.00565646
0.00872642
0.011929
0.0136672
0.0141567
0.0137631
0.00443971
0.00351732
0.00534864
0.00823883
0.0114493
0.013264
0.0138436
0.0135331
0.00440057
0.00344416
0.00520878
0.00800334
0.0111963
0.0130396
0.0136662
0.013409
0.00443518
0.00344537
0.00518693
0.00795148
0.0111332
0.0129767
0.0136133
0.0133693
0.00450348
0.00349436
0.00525181
0.00804906
0.011234
0.0130607
0.013674
0.0134083
0.0104653
0.0127774
0.0200196
0.0258326
0.0280327
0.0276083
0.0255862
0.0227964
0.00952104
0.0115036
0.0182049
0.0241818
0.0266607
0.0265558
0.0248407
0.0223126
0.00870092
0.0103464
0.0164749
0.0225368
0.0252843
0.0255057
0.024098
0.0218227
0.0081775
0.00959345
0.0153204
0.0213948
0.0243236
0.0247735
0.0235846
0.0214879
0.00796245
0.00928288
0.014844
0.0209052
0.0239024
0.0244456
0.0233509
0.0213388
0.00797083
0.0093046
0.0148918
0.0209595
0.0239479
0.024479
0.0233676
0.0213478
0.00809872
0.00952087
0.015238
0.0213276
0.0242718
0.0247343
0.0235498
0.0214687
0.0423556
0.0490257
0.0556127
0.0567833
0.0541951
0.0488265
0.041832
0.034634
0.0390329
0.0456006
0.0529303
0.0545883
0.052418
0.0474704
0.0409027
0.0340933
0.0356787
0.04203
0.0499901
0.0520967
0.0503895
0.0459459
0.0398814
0.0334938
0.0335359
0.0396229
0.04795
0.050364
0.0490016
0.0449284
0.0392181
0.0331165
0.0329424
0.0389335
0.0473681
0.0498767
0.0486204
0.0446567
0.0390478
0.0330356
0.0335756
0.0396008
0.0479805
0.0504269
0.0490882
0.0450258
0.0393057
0.0332059
0.0346431
0.0407942
0.0489809
0.0512797
0.0498077
0.0455994
0.0397162
0.0334786
0.00120592
0.000755427
0.000998995
0.00138998
0.00188727
0.00248438
0.0030538
0.00348609
0.00122679
0.000765688
0.00100949
0.00140184
0.00190129
0.0024978
0.00306247
0.00348537
0.00125748
0.000781886
0.00102685
0.00142271
0.00192734
0.00252766
0.00309124
0.00350766
0.00130442
0.000808368
0.00105718
0.00146155
0.00197802
0.00258762
0.0031539
0.00356652
0.00135966
0.00084249
0.00109853
0.00151638
0.00205062
0.00267518
0.00324779
0.00365882
0.00141516
0.00088031
0.00114732
0.00158351
0.00214119
0.00278348
0.00336163
0.00376932
0.00146562
0.000917913
0.00119849
0.00165573
0.00223952
0.00289912
0.0034794
0.00387863
0.00186424
0.00116476
0.00155271
0.00219598
0.00303898
0.00401251
0.00482988
0.00532399
0.00189929
0.00118344
0.00157465
0.0022252
0.00307894
0.00404972
0.00485556
0.00533361
0.00194304
0.00120857
0.00160433
0.00226474
0.00313344
0.00411215
0.00491028
0.00537176
0.00200358
0.00124671
0.00165187
0.00233061
0.00322603
0.00421899
0.00501222
0.00545872
0.00207188
0.00129572
0.00171589
0.00242012
0.00335052
0.00436518
0.0051539
0.00558502
0.00214254
0.00135329
0.00179591
0.00253507
0.00351127
0.0045462
0.00532359
0.00573399
0.00221096
0.00141445
0.00188451
0.00266418
0.00369234
0.00474288
0.0055029
0.00588459
0.00285087
0.00188835
0.00262891
0.0038553
0.00550487
0.00705998
0.00804092
0.00838563
0.00290893
0.00192542
0.00267843
0.00392537
0.00559919
0.00714945
0.00809942
0.00841108
0.00297904
0.00197484
0.00274701
0.00402617
0.00573809
0.00727616
0.00819765
0.00847436
0.00307058
0.00204727
0.00285119
0.00418095
0.00595107
0.00749359
0.00837435
0.0086088
0.00317781
0.00214356
0.00299358
0.00439017
0.00622744
0.00776467
0.00859702
0.00878794
0.00330029
0.00226495
0.00317882
0.00466139
0.00658439
0.00810026
0.00886606
0.00899922
0.0034305
0.00240079
0.00338908
0.00496711
0.00698641
0.00845815
0.00915254
0.00921762
0.00458572
0.0035573
0.0053397
0.00818137
0.0113615
0.0131566
0.0137355
0.0134366
0.00468621
0.00363603
0.00545479
0.00836257
0.0115326
0.013293
0.0138166
0.013466
0.00482161
0.00376144
0.00565125
0.00867856
0.0118325
0.0135254
0.0139797
0.0135619
0.0050112
0.00396172
0.0059776
0.00920502
0.0123217
0.0139233
0.0142782
0.0137699
0.00525736
0.00424412
0.00644652
0.00992722
0.012951
0.0144182
0.0146484
0.0140352
0.00556191
0.00460859
0.00705819
0.0108173
0.0137209
0.0150191
0.0150907
0.0143469
0.00589292
0.00501566
0.00773748
0.0117537
0.0145306
0.0156536
0.015555
0.0146681
0.00823146
0.00969611
0.0155084
0.0215727
0.0244616
0.0248606
0.023625
0.0215002
0.00839018
0.00987819
0.015796
0.0218193
0.0246332
0.02496
0.0236635
0.021484
0.00867425
0.0102989
0.0164334
0.022405
0.0250951
0.0252845
0.0238675
0.0215861
0.00915783
0.0110843
0.0176177
0.0235144
0.025992
0.0259406
0.0243127
0.0218644
0.00986287
0.0122157
0.0192808
0.0250269
0.0272074
0.0268271
0.024906
0.0222331
0.0108093
0.0136027
0.0212339
0.0267661
0.0286073
0.0278513
0.0255918
0.0226562
0.011851
0.0150574
0.0231914
0.0284645
0.0299626
0.0288487
0.0262654
0.0230684
0.0351516
0.041426
0.0494318
0.0515855
0.0500009
0.0457063
0.0397587
0.0334766
0.0354669
0.0418472
0.0497091
0.0517345
0.0500235
0.0456313
0.0396316
0.033317
0.036511
0.0431691
0.0506955
0.0524268
0.0504544
0.0458491
0.039708
0.033299
0.0387966
0.0457623
0.0527685
0.0540674
0.0516598
0.0466532
0.0401883
0.033542
0.0421502
0.0493155
0.0556218
0.0563792
0.0534366
0.0478977
0.0409581
0.0339422
0.0460444
0.0530528
0.0585452
0.0587645
0.0553217
0.0492634
0.0418215
0.0343909
0.050115
0.0569687
0.0615243
0.0610476
0.0570117
0.0504327
0.0425466
0.0347512
0.00150232
0.000974514
0.0013064
0.00183755
0.00251837
0.00324867
0.00385457
0.0042419
0.00145382
0.000937927
0.00125484
0.00176262
0.00241397
0.00312314
0.00371852
0.0041032
0.00140851
0.000903163
0.00120601
0.00169169
0.00231495
0.00300353
0.00358871
0.00397033
0.00137525
0.000875571
0.00116664
0.00163396
0.00223357
0.00290408
0.00348043
0.00385976
0.00134616
0.00085244
0.00113468
0.00158791
0.00216906
0.00282582
0.00339675
0.0037767
0.00130758
0.000827777
0.00110409
0.00154674
0.00211371
0.00276229
0.00333418
0.00372164
0.00124941
0.000796998
0.00106995
0.00150453
0.00206039
0.00270608
0.00328619
0.00368979
0.00232279
0.00155455
0.00212973
0.00306124
0.00427967
0.0053964
0.00613046
0.00643584
0.00225984
0.00149851
0.00204729
0.00293907
0.00411037
0.00521242
0.00594844
0.00626497
0.00220406
0.00144679
0.00197098
0.00282585
0.00395229
0.00504057
0.00578015
0.00610694
0.0021668
0.00140713
0.0019106
0.00273472
0.00382214
0.00489649
0.00564037
0.00597672
0.00213462
0.00137426
0.00186149
0.0026611
0.00371597
0.00477872
0.00552951
0.00587842
0.00208294
0.0013362
0.00181043
0.00258894
0.00361525
0.00467247
0.00543755
0.00580784
0.00199483
0.00128384
0.00174649
0.00250371
0.00350178
0.00455955
0.0053484
0.00575206
0.00380095
0.00281169
0.00407277
0.00606178
0.00829013
0.00964351
0.0101541
0.0100266
0.00369528
0.00269787
0.00389156
0.00577363
0.00797255
0.0093565
0.00990107
0.00980431
0.00359899
0.00259202
0.00372347
0.00550901
0.00766987
0.00909244
0.00967535
0.0096104
0.00353213
0.00250919
0.00358901
0.00529588
0.00741471
0.00887138
0.00949004
0.00945541
0.00347496
0.00244028
0.00347841
0.00512404
0.00719883
0.00868443
0.0093404
0.00933928
0.00338579
0.002362
0.00336389
0.00496005
0.00699106
0.00850742
0.00921051
0.00925403
0.00323542
0.00225485
0.00321885
0.00476222
0.00674779
0.0083039
0.00907025
0.00917501
0.00702799
0.00631237
0.00980376
0.0144613
0.0169675
0.0176285
0.0170612
0.0157666
0.00679522
0.00600337
0.00931025
0.0138538
0.0164059
0.0171545
0.0166763
0.0154582
0.00655693
0.00569624
0.00881391
0.0132288
0.0158471
0.016705
0.0163324
0.0151977
0.00637182
0.00544209
0.0083881
0.0126757
0.0153648
0.016331
0.0160567
0.014998
0.00621564
0.0052299
0.00802781
0.0121895
0.0149541
0.0160225
0.0158406
0.0148552
0.00601749
0.00501598
0.00768645
0.0117145
0.0145745
0.0157518
0.0156679
0.0147634
0.00572061
0.00475024
0.00728999
0.0111588
0.01413
0.0154424
0.0154819
0.0146802
0.0152957
0.019419
0.0288072
0.0332602
0.0338179
0.0317508
0.0282925
0.0243751
0.0145155
0.0183835
0.0275715
0.0321863
0.0329172
0.0310279
0.0277356
0.0239615
0.0136995
0.0172826
0.0261703
0.0309607
0.0319131
0.0302651
0.0271975
0.0236009
0.01303
0.0162957
0.0248461
0.0298219
0.0310147
0.0296164
0.0267687
0.023335
0.0124924
0.0154732
0.0237196
0.0288776
0.0303011
0.0291245
0.0264641
0.0231683
0.0119781
0.0147413
0.0227219
0.0280829
0.0297372
0.0287692
0.0262753
0.0231055
0.0113439
0.0139307
0.0216279
0.0272102
0.0291123
0.0283821
0.0260874
0.0230714
0.0610265
0.0667308
0.0689427
0.0669875
0.0616781
0.0538871
0.0448195
0.0359916
0.0578465
0.0644898
0.0672569
0.0656657
0.0606302
0.053065
0.0441927
0.0355459
0.0547016
0.0619988
0.0653644
0.0640878
0.059314
0.0520375
0.0434796
0.0351124
0.0518155
0.05922
0.0632185
0.0623775
0.0579943
0.0510975
0.0428958
0.0348041
0.0493969
0.0566104
0.0612214
0.0608861
0.056957
0.050446
0.0425498
0.0346718
0.0474453
0.0543634
0.0595701