/*--------------------------------*- C++ -*----------------------------------*\
| =========                 |                                                 |
| \\      /  F ield         | OpenFOAM: The Open Source CFD Toolbox           |
|  \\    /   O peration     | Version:  plus.master.MPPICInterFoam            |
|   \\  /    A nd           | Web:      www.OpenFOAM.com                      |
|    \\/     M anipulation  |                                                 |
\*---------------------------------------------------------------------------*/
FoamFile
{
    version     2.0;
    format      ascii;
    class       volScalarField;
    location    "5";
    object      p;
}
// * * * * * * * * * * * * * * * * * * * * * * * * * * * * * * * * * * * * * //

dimensions      [1 -1 -2 0 0 0 0];

internalField   nonuniform List<scalar> 
11822
(
796.892
797.616
798.448
798.872
798.226
797.332
796.555
797.726
799.252
802.395
803.895
801.453
798.658
797.272
798.736
802.777
812.134
816.488
809.828
801.207
798.05
799.337
804.41
815.792
826.528
815.328
803.123
798.535
798.875
802.456
814.335
818.285
810.765
801.561
798.145
797.903
799.29
802.453
804.79
802.026
798.82
797.359
797.147
797.815
798.607
799.044
798.295
797.387
796.656
699.856
699.931
699.915
699.872
699.774
699.741
699.639
699.977
699.894
699.655
699.509
699.456
699.693
699.722
699.975
699.635
699.487
699.272
698.963
699.413
699.704
699.944
699.444
701.899
699.429
698.957
699.304
699.689
699.822
699.115
706.861
699.245
698.907
699.344
699.663
699.849
699.56
699.094
699.175
699.206
699.565
699.655
699.85
699.799
699.664
699.641
699.63
699.67
699.613
602.761
602.928
603.022
603.01
602.939
602.826
602.627
602.962
603.14
603.224
603.14
603.088
603.015
602.796
603.049
603.168
603.23
602.88
603.019
603.067
602.861
603.015
602.936
609.623
602.703
602.91
603.059
602.883
602.957
602.917
610.479
602.898
602.972
603.029
602.849
602.915
603.061
603.103
603.134
602.878
602.912
602.746
602.79
602.904
602.938
602.888
602.849
602.772
602.618
505.677
505.922
506.058
506.036
505.919
505.734
505.454
505.983
506.238
506.407
506.316
506.149
506.049
505.723
506.169
506.465
506.847
506.451
506.732
506.158
505.899
506.233
506.482
514.755
507.145
506.617
506.329
505.992
506.237
506.646
514.494
507.207
506.894
506.358
505.964
506.077
506.488
506.877
506.902
506.681
506.138
505.772
505.787
506.071
506.27
506.196
505.991
505.793
505.515
408.199
408.706
409.009
409.042
408.828
408.458
407.899
408.799
409.288
409.615
409.599
409.272
409.045
408.421
409.178
409.679
410.171
410.082
413.246
409.229
408.748
409.322
409.687
419.274
410.76
410.104
409.482
408.913
409.339
410.05
414.832
410.391
409.434
409.311
408.812
409.016
409.733
410.44
410.123
410.166
409.232
408.499
408.411
409.011
409.43
409.34
408.947
408.551
407.982
313.784
314.396
314.765
314.783
314.478
313.926
313.186
314.612
315.22
315.594
315.557
315.137
314.653
313.808
315.191
315.832
316.379
316.439
317.575
314.999
314.234
315.417
316.035
326.006
316.98
315.515
315.162
314.405
315.339
316.085
317.754
316.063
318.584
314.812
314.224
314.857
315.593
316.158
315.588
315.422
314.877
313.848
314.039
314.701
315.122
314.978
314.621
313.987
313.226
795.31
794.454
793.604
792.865
792.31
791.962
791.819
791.814
795.712
794.481
793.484
792.729
792.192
791.867
791.748
791.759
796.233
794.857
793.745
792.916
792.316
791.946
791.802
791.806
796.542
795.091
793.929
793.033
792.399
792.009
791.851
791.859
796.299
794.956
793.849
792.998
792.389
792.009
791.862
791.876
795.819
794.639
793.657
792.897
792.352
792.009
791.88
791.89
795.384
794.567
793.735
792.992
792.445
792.109
791.974
791.978
699.252
698.842
698.367
697.907
697.526
697.255
697.105
697.045
699.271
698.761
698.267
697.828
697.468
697.21
697.067
697.012
699.304
698.815
698.33
697.889
697.514
697.245
697.088
697.03
699.326
698.857
698.382
697.931
697.547
697.267
697.109
697.05
699.293
698.837
698.366
697.92
697.548
697.272
697.118
697.062
699.251
698.789
698.308
697.876
697.52
697.267
697.124
697.075
699.216
698.839
698.382
697.943
697.585
697.332
697.193
697.142
602.377
602.079
601.748
601.435
601.167
600.957
600.808
600.698
602.472
602.137
601.788
601.463
601.184
600.963
600.803
600.686
602.537
602.208
601.864
601.531
601.235
600.996
600.823
600.7
602.562
602.239
601.89
601.56
601.26
601.012
600.836
600.706
602.54
602.22
601.876
601.543
601.246
601.006
600.834
600.709
602.46
602.139
601.799
601.48
601.202
600.981
600.822
600.712
602.352
602.065
601.75
601.455
601.202
600.998
600.853
600.749
505.242
504.942
504.642
504.367
504.115
503.883
503.678
503.505
505.428
505.109
504.778
504.461
504.167
503.904
503.678
503.491
505.581
505.254
504.904
504.557
504.232
503.939
503.693
503.496
505.651
505.312
504.949
504.586
504.246
503.941
503.689
503.488
505.615
505.267
504.901
504.542
504.207
503.911
503.668
503.472
505.453
505.116
504.769
504.437
504.131
503.86
503.635
503.456
505.254
504.944
504.636
504.352
504.09
503.851
503.645
503.477
407.455
406.931
406.432
405.978
405.585
405.309
405.208
405.069
407.897
407.349
406.798
406.267
405.786
405.426
405.273
405.136
408.211
407.661
407.08
406.506
405.974
405.553
405.352
405.191
408.341
407.776
407.174
406.576
406.017
405.569
405.356
405.186
408.249
407.674
407.07
406.474
405.92
405.482
405.288
405.13
407.935
407.354
406.767
406.201
405.691
405.306
405.154
405.025
407.484
406.927
406.395
405.903
405.477
405.174
405.064
404.936
312.805
312.146
311.441
310.795
310.198
309.643
309.186
308.913
313.226
312.495
311.701
310.92
310.18
309.488
308.911
308.55
313.59
312.848
312.003
311.134
310.289
309.479
308.787
308.329
313.729
312.979
312.097
311.179
310.279
309.416
308.678
308.193
313.613
312.865
311.99
311.08
310.192
309.345
308.627
308.175
313.242
312.483
311.636
310.792
309.983
309.225
308.601
308.222
312.782
312.078
311.309
310.599
309.931
309.308
308.793
308.481
795.819
794.951
794.098
793.363
792.805
792.462
792.333
792.342
796.378
795.111
794.071
793.28
792.717
792.383
792.269
792.288
796.929
795.488
794.332
793.445
792.802
792.415
792.268
792.281
797.201
795.693
794.468
793.526
792.852
792.445
792.274
792.281
796.81
795.438
794.272
793.387
792.753
792.36
792.205
792.217
796.191
794.955
793.931
793.15
792.603
792.254
792.121
792.129
795.685
794.812
793.931
793.157
792.597
792.249
792.11
792.108
699.458
699.075
698.652
698.225
697.871
697.626
697.499
697.46
699.535
699.067
698.598
698.185
697.844
697.599
697.473
697.44
699.554
699.117
698.657
698.23
697.875
697.617
697.475
697.436
699.641
699.199
698.727
698.28
697.905
697.63
697.48
697.434
699.631
699.178
698.696
698.253
697.875
697.599
697.451
697.402
699.567
699.092
698.603
698.17
697.808
697.551
697.409
697.362
699.481
699.078
698.604
698.151
697.786
697.534
697.398
697.348
602.541
602.288
602.011
601.739
601.501
601.317
601.192
601.102
602.701
602.418
602.113
601.816
601.55
601.343
601.206
601.108
602.752
602.485
602.178
601.867
601.585
601.359
601.209
601.103
602.796
602.525
602.208
601.891
601.602
601.366
601.207
601.097
602.795
602.507
602.181
601.859
601.57
601.339
601.181
601.073
602.701
602.404
602.078
601.771
601.502
601.288
601.138
601.04
602.517
602.247
601.949
601.67
601.43
601.24
601.105
601.012
505.498
505.2
504.917
504.655
504.417
504.206
504.028
503.879
505.79
505.46
505.122
504.801
504.513
504.268
504.071
503.913
505.928
505.592
505.235
504.889
504.573
504.301
504.087
503.92
505.941
505.615
505.255
504.91
504.589
504.307
504.083
503.91
505.875
505.556
505.208
504.868
504.552
504.276
504.055
503.882
505.707
505.398
505.072
504.759
504.471
504.217
504.008
503.846
505.456
505.168
504.883
504.618
504.374
504.152
503.964
503.814
407.841
407.278
406.766
406.3
405.903
405.617
405.528
405.454
408.434
407.829
407.239
406.685
406.208
405.813
405.674
405.578
408.757
408.155
407.539
406.948
406.418
405.955
405.772
405.651
408.789
408.215
407.604
407.017
406.463
406.012
405.804
405.667
408.634
408.071
407.481
406.9
406.365
405.945
405.753
405.624
408.269
407.715
407.158
406.622
406.144
405.785
405.641
405.539
407.733
407.207
406.711
406.257
405.866
405.591
405.529
405.456
313.515
312.762
311.988
311.259
310.586
309.989
309.561
309.389
314.21
313.368
312.449
311.545
310.703
309.961
309.437
309.238
314.647
313.785
312.795
311.795
310.84
309.981
309.365
309.133
314.717
313.864
312.865
311.843
310.859
309.972
309.332
309.096
314.506
313.668
312.705
311.738
310.812
309.977
309.382
309.17
314.002
313.199
312.324
311.471
310.675
309.968
309.48
309.318
313.347
312.645
311.905
311.224
310.599
310.047
309.671
309.544
795.588
794.681
793.837
793.099
792.539
792.189
792.05
792.045
796.046
794.794
793.765
792.98
792.42
792.081
791.956
791.958
796.558
795.164
793.99
793.102
792.472
792.08
791.921
791.919
796.788
795.281
794.072
793.142
792.481
792.071
791.895
791.885
796.362
794.969
793.847
792.985
792.362
791.974
791.815
791.814
795.803
794.561
793.554
792.789
792.239
791.897
791.758
791.753
795.3
794.437
793.575
792.834
792.275
791.929
791.789
791.779
699.438
699.017
698.55
698.103
697.738
697.483
697.35
697.298
699.491
698.977
698.472
698.03
697.671
697.417
697.274
697.221
699.52
699.006
698.495
698.042
697.663
697.391
697.234
697.176
699.496
698.998
698.498
698.033
697.649
697.357
697.19
697.13
699.383
698.907
698.415
697.962
697.581
697.298
697.136
697.075
699.312
698.802
698.313
697.878
697.511
697.244
697.092
697.035
699.2
698.78
698.321
697.874
697.502
697.242
697.094
697.035
602.5
602.217
601.921
601.642
601.401
601.21
601.076
600.98
602.639
602.315
601.984
601.672
601.399
601.183
601.029
600.918
602.707
602.368
602.023
601.699
601.404
601.165
600.997
600.88
602.7
602.371
602.013
601.681
601.375
601.124
600.95
600.829
602.638
602.311
601.96
601.619
601.313
601.068
600.898
600.777
602.535
602.199
601.849
601.518
601.229
601.001
600.84
600.728
602.34
602.031
601.715
601.417
601.161
600.959
600.811
600.704
505.455
505.156
504.864
504.593
504.346
504.123
503.936
503.782
505.638
505.307
504.97
504.651
504.36
504.107
503.897
503.727
505.736
505.394
505.035
504.687
504.368
504.09
503.864
503.685
505.713
505.377
505.011
504.661
504.335
504.049
503.816
503.631
505.611
505.282
504.93
504.586
504.268
503.989
503.76
503.576
505.445
505.121
504.787
504.471
504.18
503.921
503.704
503.532
505.186
504.884
504.602
504.34
504.096
503.871
503.672
503.505
407.734
407.193
406.685
406.225
405.836
405.56
405.482
405.409
408.158
407.577
407.009
406.472
406.002
405.65
405.51
405.403
408.429
407.84
407.241
406.66
406.136
405.724
405.534
405.402
408.465
407.887
407.286
406.689
406.143
405.71
405.503
405.361
408.284
407.721
407.133
406.556
406.027
405.613
405.423
405.291
407.927
407.372
406.817
406.284
405.802
405.437
405.327
405.213
407.396
406.872
406.396
405.954
405.57
405.303
405.214
405.096
313.338
312.595
311.857
311.167
310.536
309.982
309.599
309.461
313.729
312.904
312.041
311.211
310.436
309.747
309.256
309.063
314.034
313.19
312.264
311.342
310.463
309.66
309.066
308.814
314.053
313.229
312.292
311.338
310.426
309.588
308.955
308.674
313.808
313.024
312.13
311.223
310.356
309.561
308.954
308.673
313.331
312.589
311.774
310.973
310.223
309.542
309.018
308.762
312.733
312.08
311.41
310.782
310.197
309.656
309.223
308.988
795.38
794.573
793.76
793.033
792.495
792.164
792.034
792.037
795.884
794.74
793.781
793.035
792.5
792.172
792.055
792.072
796.496
795.184
794.088
793.254
792.656
792.277
792.133
792.15
796.927
795.491
794.31
793.415
792.772
792.373
792.211
792.224
796.681
795.333
794.221
793.365
792.748
792.368
792.223
792.241
796.248
795.026
794.029
793.256
792.701
792.366
792.246
792.266
795.95
795.081
794.181
793.395
792.808
792.455
792.325
792.338
699.219
698.848
698.399
697.967
697.614
697.365
697.234
697.182
699.298
698.866
698.404
697.986
697.637
697.391
697.254
697.209
699.361
698.953
698.509
698.088
697.72
697.453
697.304
697.259
699.435
699.034
698.592
698.163
697.791
697.508
697.354
697.31
699.433
699.038
698.586
698.166
697.803
697.533
697.388
697.346
699.467
699.021
698.562
698.147
697.798
697.55
697.417
697.384
699.544
699.16
698.699
698.249
697.879
697.628
697.497
697.458
602.347
602.066
601.761
601.472
601.225
601.029
600.889
600.784
602.508
602.206
601.878
601.567
601.295
601.08
600.927
600.819
602.6
602.306
601.983
601.664
601.374
601.139
600.978
600.867
602.649
602.364
602.048
601.725
601.431
601.19
601.026
600.914
602.668
602.386
602.08
601.752
601.459
601.225
601.067
600.96
602.626
602.345
602.034
601.728
601.457
601.243
601.098
601.007
602.585
602.335
602.036
601.742
601.489
601.293
601.16
601.073
505.234
504.926
504.626
504.352
504.099
503.868
503.667
503.498
505.5
505.171
504.829
504.501
504.2
503.933
503.713
503.536
505.684
505.343
504.981
504.626
504.294
504
503.764
503.581
505.815
505.454
505.077
504.706
504.361
504.058
503.817
503.633
505.849
505.476
505.097
504.728
504.388
504.094
503.862
503.684
505.699
505.363
505.015
504.681
504.376
504.113
503.903
503.743
505.522
505.23
504.925
504.64
504.383
504.159
503.973
503.826
407.452
406.895
406.368
405.884
405.463
405.164
405.06
404.934
408.02
407.433
406.831
406.248
405.722
405.318
405.182
405.052
408.408
407.815
407.177
406.544
405.961
405.497
405.276
405.13
408.674
408.036
407.363
406.701
406.091
405.604
405.362
405.207
408.701
408.024
407.335
406.687
406.097
405.628
405.408
405.266
408.352
407.719
407.091
406.493
405.966
405.574
405.414
405.305
407.859
407.304
406.756
406.256
405.829
405.526
405.466
405.383
312.724
312.007
311.249
310.532
309.86
309.231
308.715
308.41
313.384
312.574
311.664
310.755
309.892
309.091
308.452
308.102
313.904
313.057
312.062
311.032
310.04
309.114
308.376
307.979
314.204
313.317
312.276
311.196
310.144
309.172
308.408
308.009
314.279
313.343
312.297
311.24
310.229
309.309
308.598
308.244
313.952
313.052
312.084
311.138
310.256
309.47
308.883
308.613
313.498
312.742
311.917
311.142
310.435
309.813
309.362
309.17
735.015
734.832
734.715
734.645
734.609
734.611
734.655
734.733
734.822
734.641
734.526
734.455
734.418
734.419
734.462
734.537
734.635
734.458
734.344
734.274
734.238
734.239
734.281
734.354
734.463
734.289
734.174
734.101
734.061
734.059
734.1
734.172
734.317
734.144
734.027
733.951
733.909
733.906
733.946
734.018
734.205
734.029
733.91
733.833
733.79
733.786
733.825
733.895
734.136
733.957
733.837
733.759
733.715
733.71
733.748
733.817
637.437
637.263
637.17
637.139
637.154
637.212
637.317
637.462
637.225
637.059
636.969
636.939
636.955
637.011
637.116
637.259
637.018
636.858
636.771
636.743
636.759
636.819
636.92
637.062
636.823
636.666
636.581
636.553
636.566
636.621
636.724
636.864
636.652
636.496
636.41
636.382
636.392
636.445
636.547
636.685
636.514
636.356
636.269
636.239
636.249
636.302
636.403
636.54
636.425
636.263
636.173
636.144
636.155
636.207
636.311
636.448
539.735
539.624
539.619
539.687
539.767
539.927
540.127
540.352
539.501
539.401
539.401
539.471
539.563
539.721
539.918
540.138
539.265
539.176
539.18
539.255
539.352
539.505
539.7
539.924
539.036
538.951
538.957
539.034
539.135
539.294
539.49
539.706
538.829
538.749
538.755
538.833
538.936
539.093
539.283
539.499
538.654
538.573
538.582
538.66
538.766
538.926
539.117
539.331
538.537
538.45
538.46
538.542
538.65
538.813
539.007
539.223
441.725
441.797
441.95
442.234
442.588
442.919
443.211
443.486
441.444
441.531
441.69
442.002
442.368
442.698
442.983
443.249
441.154
441.259
441.419
441.764
442.145
442.476
442.759
443.018
440.871
440.984
441.114
441.496
441.895
442.233
442.513
442.768
440.612
440.739
440.876
441.248
441.654
441.996
442.274
442.527
440.368
440.497
440.66
441.03
441.443
441.792
442.075
442.331
440.207
440.327
440.496
440.881
441.305
441.663
441.95
442.21
344.418
344.978
345.289
345.726
346.207
346.557
346.743
346.885
344.157
344.763
345.097
345.531
345.988
346.308
346.475
346.602
343.845
344.415
344.875
345.338
345.788
346.09
346.229
346.337
343.497
344.083
344.587
345.05
345.501
345.8
345.937
346.04
343.156
343.766
344.231
344.724
345.197
345.507
345.648
345.751
342.775
343.416
343.885
344.413
344.915
345.247
345.402
345.519
342.561
343.201
343.708
344.244
344.762
345.108
345.271
345.393
240.955
243.187
247.195
249.376
250.236
250.404
250.218
250.155
240.368
242.893
247.039
249.181
249.96
250.063
249.853
249.794
239.822
242.699
246.918
249.043
249.759
249.799
249.55
249.475
239.273
242.203
246.495
248.649
249.372
249.408
249.163
249.094
238.753
241.589
245.974
248.199
248.971
249.028
248.79
248.732
238.279
241.013
245.424
247.743
248.591
248.693
248.472
248.441
237.989
240.701
245.163
247.54
248.436
248.565
248.346
248.312
734.781
734.599
734.479
734.401
734.352
734.34
734.369
734.432
734.94
734.769
734.654
734.579
734.531
734.518
734.546
734.607
735.104
734.941
734.831
734.759
734.713
734.703
734.732
734.792
735.268
735.105
734.997
734.929
734.889
734.884
734.917
734.978
735.42
735.252
735.143
735.075
735.037
735.036
735.074
735.139
735.552
735.377
735.264
735.196
735.159
735.161
735.201
735.272
735.655
735.473
735.358
735.291
735.256
735.26
735.305
735.378
637.132
636.944
636.836
636.789
636.785
636.831
636.924
637.057
637.319
637.142
637.037
636.99
636.984
637.028
637.119
637.252
637.51
637.34
637.239
637.194
637.188
637.233
637.325
637.457
637.696
637.527
637.428
637.385
637.382
637.433
637.529
637.665
637.868
637.694
637.593
637.55
637.548
637.602
637.702
637.844
638.016
637.835
637.731
637.689
637.691
637.746
637.85
637.993
638.131
637.942
637.836
637.795
637.798
637.855
637.962
638.11
539.308
539.165
539.131
539.18
539.254
539.391
539.588
539.82
539.531
539.391
539.353
539.396
539.468
539.601
539.799
540.032
539.756
539.62
539.579
539.62
539.692
539.821
540.019
540.256
539.974
539.835
539.793
539.831
539.902
540.029
540.235
540.484
540.169
540.026
539.981
540.018
540.093
540.222
540.429
540.681
540.336
540.187
540.14
540.178
540.256
540.389
540.597
540.85
540.465
540.309
540.261
540.299
540.376
540.513
540.724
540.982
441.156
441.176
441.302
441.535
441.86
442.206
442.531
442.835
441.436
441.446
441.561
441.773
442.074
442.418
442.751
443.066
441.722
441.726
441.83
442.025
442.305
442.646
442.99
443.319
441.99
441.985
442.083
442.267
442.531
442.868
443.225
443.571
442.222
442.208
442.302
442.48
442.738
443.079
443.441
443.795
442.411
442.395
442.488
442.663
442.928
443.274
443.634
443.989
442.56
442.542
442.634
442.809
443.074
443.421
443.781
444.136
343.428
343.825
344.188
344.647
345.227
345.71
346.002
346.194
343.74
344.086
344.427
344.855
345.433
345.937
346.259
346.477
344.08
344.398
344.726
345.117
345.678
346.196
346.547
346.791
344.403
344.705
345.018
345.38
345.929
346.453
346.83
347.1
344.682
344.97
345.269
345.619
346.164
346.695
347.084
347.37
344.904
345.188
345.479
345.83
346.378
346.911
347.299
347.587
345.088
345.384
345.673
346.025
346.568
347.092
347.47
347.753
240.151
242.086
245.621
247.956
249.153
249.643
249.614
249.519
240.728
242.515
245.809
248.118
249.37
249.938
249.977
249.909
241.354
243.031
246.125
248.407
249.694
250.308
250.401
250.352
241.915
243.52
246.464
248.711
250.007
250.656
250.796
250.771
242.343
243.914
246.788
249.002
250.293
250.954
251.12
251.112
242.643
244.214
247.079
249.259
250.527
251.18
251.348
251.35
242.9
244.526
247.438
249.578
250.791
251.402
251.533
251.526
735.721
735.535
735.42
735.355
735.322
735.328
735.374
735.45
735.746
735.558
735.445
735.383
735.355
735.363
735.41
735.487
735.721
735.533
735.42
735.36
735.332
735.34
735.389
735.468
735.649
735.46
735.347
735.286
735.259
735.267
735.317
735.397
735.531
735.342
735.227
735.163
735.132
735.139
735.188
735.27
735.379
735.192
735.075
735.008
734.975
734.98
735.027
735.107
735.203
735.017
734.9
734.831
734.796
734.799
734.845
734.925
638.206
638.011
637.905
637.866
637.871
637.929
638.04
638.193
638.236
638.038
637.933
637.897
637.908
637.975
638.087
638.24
638.212
638.014
637.91
637.876
637.891
637.958
638.073
638.227
638.134
637.937
637.834
637.803
637.819
637.889
638.003
638.156
638.004
637.811
637.71
637.678
637.692
637.758
637.872
638.024
637.836
637.649
637.55
637.518
637.532
637.594
637.703
637.853
637.643
637.463
637.366
637.332
637.346
637.405
637.513
637.661
540.549
540.388
540.34
540.381
540.463
540.603
540.819
541.08
540.581
540.418
540.369
540.415
540.501
540.65
540.875
541.14
540.558
540.394
540.351
540.405
540.494
540.647
540.872
541.136
540.476
540.316
540.279
540.34
540.428
540.582
540.807
541.068
540.339
540.19
540.16
540.225
540.311
540.464
540.684
540.935
540.162
540.024
540.003
540.071
540.152
540.306
540.518
540.759
539.958
539.832
539.817
539.877
539.962
540.121
540.327
540.559
442.653
442.632
442.728
442.91
443.18
443.529
443.894
444.252
442.68
442.658
442.755
442.944
443.228
443.59
443.963
444.326
442.649
442.633
442.735
442.935
443.235
443.601
443.973
444.331
442.554
442.545
442.654
442.872
443.183
443.545
443.913
444.264
442.396
442.404
442.525
442.756
443.087
443.445
443.793
444.126
442.195
442.22
442.351
442.595
442.941
443.293
443.62
443.932
441.973
442.022
442.167
442.435
442.78
443.117
443.422
443.712
345.197
345.498
345.788
346.152
346.699
347.223
347.599
347.883
345.221
345.512
345.803
346.183
346.743
347.28
347.668
347.96
345.194
345.499
345.801
346.203
346.774
347.306
347.684
347.964
345.1
345.428
345.742
346.164
346.739
347.257
347.614
347.877
344.947
345.309
345.634
346.08
346.655
347.147
347.468
347.701
344.76
345.166
345.497
345.95
346.509
346.964
347.242
347.443
344.59
345.068
345.399
345.85
346.37
346.771
346.998
347.164
243.003
244.66
247.623
249.761
250.959
251.555
251.674
251.666
242.954
244.606
247.593
249.749
250.97
251.587
251.727
251.735
242.822
244.537
247.625
249.801
251.014
251.608
251.719
251.713
242.566
244.367
247.595
249.786
250.964
251.512
251.581
251.569
242.199
244.101
247.496
249.694
250.825
251.311
251.33
251.302
241.792
243.79
247.341
249.532
250.594
250.997
250.952
250.912
241.391
243.525
247.29
249.473
250.431
250.714
250.587
250.524
734.112
733.931
733.81
733.733
733.69
733.686
733.726
733.798
734.13
733.947
733.826
733.751
733.71
733.707
733.746
733.818
734.185
734
733.879
733.804
733.764
733.761
733.801
733.875
734.271
734.08
733.957
733.882
733.841
733.839
733.877
733.949
734.377
734.181
734.055
733.979
733.938
733.935
733.973
734.043
734.499
734.301
734.175
734.098
734.054
734.049
734.084
734.152
734.633
734.44
734.316
734.238
734.192
734.182
734.214
734.28
636.388
636.222
636.131
636.102
636.116
636.17
636.272
636.412
636.404
636.232
636.139
636.108
636.125
636.184
636.289
636.433
636.462
636.283
636.187
636.155
636.171
636.23
636.334
636.49
636.554
636.366
636.265
636.23
636.245
636.306
636.413
636.558
636.672
636.476
636.369
636.331
636.342
636.402
636.507
636.649
636.809
636.608
636.498
636.457
636.463
636.519
636.619
636.758
636.962
636.765
636.655
636.609
636.61
636.661
636.756
636.892
538.483
538.389
538.397
538.482
538.591
538.76
538.96
539.18
538.489
538.387
538.392
538.48
538.581
538.758
538.966
539.193
538.548
538.434
538.434
538.519
538.622
538.798
539.012
539.245
538.645
538.516
538.508
538.589
538.69
538.862
539.078
539.313
538.771
538.63
538.613
538.689
538.785
538.95
539.165
539.401
538.925
538.776
538.754
538.827
538.909
539.064
539.274
539.508
539.106
538.958
538.929
538.989
539.069
539.213
539.414
539.647
440.131
440.238
440.42
440.804
441.231
441.598
441.893
442.161
440.129
440.223
440.415
440.784
441.21
441.586
441.895
442.176
440.201
440.287
440.475
440.824
441.244
441.625
441.945
442.236
440.315
440.38
440.56
440.891
441.302
441.682
442.01
442.307
440.462
440.509
440.678
440.99
441.388
441.763
442.093
442.393
440.651
440.685
440.837
441.118
441.502
441.869
442.199
442.499
440.891
440.917
441.058
441.317
441.671
442.025
442.349
442.648
342.463
343.138
343.596
344.124
344.664
345.036
345.215
345.346
342.436
343.09
343.502
344.035
344.607
345.018
345.228
345.379
342.494
343.154
343.518
344.047
344.637
345.076
345.31
345.477
342.568
343.151
343.541
344.077
344.681
345.141
345.396
345.572
342.681
343.207
343.608
344.144
344.754
345.228
345.498
345.678
342.86
343.338
343.735
344.254
344.861
345.339
345.613
345.794
343.126
343.572
343.96
344.456
345.045
345.518
345.793
345.973
237.785
240.373
244.904
247.35
248.317
248.507
248.299
248.254
237.705
240.168
244.689
247.182
248.231
248.51
248.353
248.325
237.75
240.122
244.647
247.192
248.308
248.651
248.538
248.513
238.048
240.348
244.705
247.245
248.403
248.795
248.712
248.67
238.412
240.651
244.827
247.341
248.528
248.956
248.893
248.836
238.896
241.044
245.018
247.478
248.672
249.119
249.061
248.988
239.494
241.567
245.36
247.764
248.944
249.388
249.321
249.225
831.437
831.341
831.341
734.807
734.868
734.928
734.984
735.031
735.067
735.085
735.105
734.61
734.671
734.73
734.786
734.834
734.871
734.892
734.917
734.424
734.483
734.542
734.597
734.646
734.684
734.707
734.737
734.243
734.302
734.36
734.416
734.465
734.505
734.529
734.562
734.087
734.146
734.204
734.259
734.308
734.349
734.373
734.407
733.964
734.022
734.08
734.134
734.183
734.222
734.245
734.277
733.883
733.939
733.995
734.046
734.092
734.129
734.154
734.184
637.593
637.697
637.797
637.894
637.985
638.07
638.147
638.235
637.388
637.49
637.589
637.683
637.773
637.859
637.939
638.03
637.189
637.29
637.387
637.481
637.571
637.657
637.74
637.836
636.989
637.087
637.184
637.279
637.37
637.458
637.543
637.641
636.809
636.908
637.004
637.099
637.19
637.28
637.365
637.464
636.664
636.762
636.86
636.954
637.046
637.135
637.22
637.319
636.573
636.672
636.77
636.865
636.957
637.045
637.129
637.225
540.545
540.693
540.836
540.977
541.122
541.279
541.453
541.652
540.327
540.471
540.61
540.747
540.888
541.044
541.218
541.418
540.112
540.254
540.389
540.524
540.663
540.818
540.994
541.196
539.889
540.028
540.163
540.297
540.437
540.593
540.771
540.974
539.682
539.821
539.955
540.09
540.231
540.388
540.567
540.77
539.515
539.655
539.791
539.926
540.069
540.227
540.405
540.609
539.409
539.551
539.689
539.827
539.97
540.129
540.307
540.511
443.717
443.886
444.045
444.207
444.392
444.63
444.937
445.3
443.47
443.632
443.783
443.939
444.12
444.352
444.653
445.007
443.233
443.39
443.535
443.687
443.864
444.093
444.39
444.74
442.978
443.132
443.277
443.428
443.604
443.832
444.128
444.476
442.738
442.891
443.035
443.187
443.365
443.594
443.89
444.237
442.547
442.705
442.851
443.005
443.186
443.418
443.715
444.063
442.431
442.594
442.744
442.9
443.082
443.316
443.616
443.965
347.05
347.174
347.272
347.384
347.556
347.845
348.288
348.835
346.754
346.867
346.957
347.066
347.238
347.525
347.952
348.47
346.475
346.58
346.666
346.773
346.946
347.228
347.641
348.139
346.174
346.279
346.364
346.474
346.649
346.927
347.335
347.822
345.887
345.993
346.08
346.192
346.371
346.654
347.06
347.543
345.671
345.782
345.874
345.989
346.172
346.464
346.877
347.362
345.555
345.676
345.77
345.887
346.069
346.361
346.781
347.274
250.254
250.279
250.215
250.141
250.164
250.448
250.99
251.686
249.881
249.871
249.768
249.725
249.836
250.151
250.673
251.314
249.53
249.472
249.371
249.427
249.573
249.848
250.352
250.969
249.118
249.062
249.061
249.132
249.214
249.505
250.03
250.617
248.774
248.717
248.7
248.788
248.907
249.209
249.732
250.314
248.584
248.587
248.432
248.44
248.689
249.056
249.539
250.114
248.465
248.522
248.451
248.369
248.521
248.931
249.463
250.038
734.495
734.55
734.603
734.652
734.692
734.718
734.727
734.735
734.67
734.724
734.777
734.824
734.863
734.889
734.898
734.906
734.853
734.906
734.959
735.006
735.044
735.07
735.079
735.087
735.039
735.092
735.144
735.192
735.231
735.258
735.265
735.272
735.203
735.257
735.311
735.36
735.401
735.427
735.434
735.438
735.34
735.397
735.453
735.503
735.544
735.57
735.575
735.578
735.448
735.507
735.564
735.615
735.656
735.681
735.686
735.688
637.18
637.28
637.377
637.468
637.552
637.628
637.691
637.765
637.375
637.474
637.571
637.662
637.746
637.82
637.882
637.954
637.579
637.678
637.775
637.866
637.95
638.025
638.085
638.155
637.787
637.886
637.983
638.075
638.16
638.234
638.292
638.36
637.97
638.071
638.17
638.263
638.348
638.422
638.478
638.543
638.122
638.226
638.327
638.422
638.508
638.582
638.636
638.7
638.241
638.347
638.451
638.547
638.633
638.707
638.76
638.824
540.017
540.168
540.313
540.455
540.596
540.746
540.908
541.095
540.231
540.385
540.533
540.676
540.819
540.967
541.127
541.31
540.458
540.613
540.763
540.908
541.051
541.199
541.355
541.535
540.691
540.848
541
541.147
541.292
541.439
541.593
541.769
540.893
541.054
541.208
541.358
541.504
541.652
541.805
541.979
541.065
541.229
541.387
541.538
541.686
541.835
541.987
542.16
541.199
541.365
541.526
541.679
541.827
541.975
542.127
542.3
443.086
443.273
443.448
443.622
443.811
444.046
444.347
444.707
443.326
443.518
443.699
443.877
444.069
444.304
444.603
444.96
443.588
443.786
443.972
444.154
444.348
444.582
444.877
445.229
443.851
444.056
444.248
444.435
444.633
444.867
445.161
445.509
444.082
444.293
444.491
444.683
444.885
445.122
445.416
445.764
444.279
444.494
444.696
444.892
445.097
445.336
445.632
445.983
444.429
444.646
444.851
445.05
445.256
445.497
445.794
446.146
346.393
346.547
346.676
346.808
346.982
347.263
347.707
348.275
346.69
346.853
346.99
347.128
347.304
347.584
348.027
348.594
347.015
347.184
347.327
347.47
347.647
347.927
348.366
348.93
347.34
347.518
347.669
347.819
348.001
348.283
348.722
349.288
347.62
347.806
347.965
348.122
348.312
348.598
349.042
349.614
347.844
348.036
348.203
348.368
348.564
348.856
349.307
349.888
348.011
348.206
348.378
348.547
348.748
349.044
349.5
350.087
249.652
249.735
249.743
249.724
249.728
249.902
250.354
251.098
250.045
250.13
250.149
250.148
250.14
250.274
250.72
251.482
250.485
250.568
250.589
250.594
250.581
250.686
251.119
251.887
250.909
250.999
251.028
251.043
251.028
251.115
251.544
252.317
251.257
251.355
251.39
251.416
251.411
251.502
251.933
252.71
251.507
251.617
251.659
251.697
251.709
251.814
252.248
253.032
251.687
251.802
251.845
251.89
251.92
252.039
252.476
253.263
735.522
735.583
735.641
735.694
735.735
735.76
735.763
735.764
735.56
735.622
735.681
735.734
735.776
735.8
735.803
735.804
735.543
735.605
735.665
735.718
735.759
735.785
735.789
735.79
735.472
735.535
735.595
735.648
735.69
735.717
735.722
735.726
735.346
735.408
735.468
735.521
735.565
735.593