/*--------------------------------*- C++ -*----------------------------------*\
| =========                 |                                                 |
| \\      /  F ield         | OpenFOAM: The Open Source CFD Toolbox           |
|  \\    /   O peration     | Version:  plus.master.MPPICInterFoam            |
|   \\  /    A nd           | Web:      www.OpenFOAM.com                      |
|    \\/     M anipulation  |                                                 |
\*---------------------------------------------------------------------------*/
FoamFile
{
    version     2.0;
    format      ascii;
    class       surfaceScalarField;
    location    "5";
    object      phi;
}
// * * * * * * * * * * * * * * * * * * * * * * * * * * * * * * * * * * * * * //

dimensions      [0 3 -1 0 0 0 0];

internalField   nonuniform List<scalar> 
34319
(
-3.9134e-07
-4.35748e-07
5.1507e-06
3.93573e-07
4.38179e-07
-2.91469e-07
-6.17443e-07
5.5298e-06
5.84289e-07
-6.34502e-08
-8.33237e-07
5.80401e-06
7.40188e-07
2.30665e-07
-9.34203e-07
5.91066e-06
8.05836e-07
4.31148e-07
-7.9899e-07
5.82172e-06
7.16035e-07
5.01038e-07
-5.77589e-07
5.58198e-06
5.48735e-07
-3.98806e-07
5.24355e-06
4.73873e-07
4.04057e-07
-5.90042e-07
-3.34891e-07
5.55433e-06
5.58954e-07
-4.96394e-07
-5.2244e-07
6.01436e-06
-1.43446e-07
-7.84962e-07
6.36246e-06
3.4933e-07
-9.33263e-07
6.49162e-06
6.41356e-07
-7.52179e-07
6.35255e-06
7.00952e-07
-4.87794e-07
6.03947e-06
-3.04331e-07
5.62969e-06
6.40855e-07
-8.34641e-07
-9.91474e-08
5.87031e-06
7.41658e-07
-7.86822e-07
-1.54288e-07
6.41958e-06
-2.8681e-07
-2.33862e-07
6.89911e-06
4.84427e-07
-3.56586e-07
7.04454e-06
9.13614e-07
-2.90587e-07
6.79847e-06
9.22071e-07
-1.75342e-07
6.40026e-06
-9.20325e-08
5.91892e-06
8.08599e-07
-9.60498e-07
2.05366e-07
6.02852e-06
8.29749e-07
-9.57687e-07
3.31006e-07
6.64887e-06
-4.85933e-07
4.79649e-07
7.29784e-06
5.27185e-07
5.5919e-07
7.38444e-06
1.06904e-06
4.34554e-07
7.06275e-06
1.03677e-06
2.94015e-07
6.57885e-06
1.88426e-07
6.05514e-06
8.88551e-07
-8.55874e-07
4.29217e-07
5.96987e-06
7.61985e-07
-8.17018e-07
6.50658e-07
6.56281e-06
-4.11916e-07
9.17052e-07
7.24129e-06
4.58471e-07
1.09101e-06
7.27944e-06
9.25619e-07
9.01871e-07
6.93698e-06
9.32369e-07
6.13961e-07
6.49868e-06
3.9867e-07
5.99764e-06
8.18189e-07
-6.25112e-07
5.13022e-07
5.72347e-06
5.9789e-07
-5.34225e-07
7.23092e-07
6.22126e-06
-2.17262e-07
9.60175e-07
6.61919e-06
3.14407e-07
1.077e-06
6.73176e-06
6.37624e-07
9.33244e-07
6.54985e-06
7.05892e-07
6.90768e-07
6.20673e-06
4.81619e-07
5.7722e-06
6.50504e-07
-4.34928e-07
5.36292e-06
4.49045e-07
4.91871e-07
-3.3279e-07
5.771e-06
6.70967e-07
-1.03485e-07
6.06668e-06
8.43671e-07
2.03897e-07
6.17045e-06
9.18623e-07
4.19233e-07
6.06053e-06
8.22295e-07
5.00679e-07
5.79541e-06
6.39231e-07
5.4314e-06
4.84142e-07
4.67128e-07
-6.99514e-08
-1.23512e-07
5.13426e-06
7.7924e-08
1.32228e-07
-3.46412e-08
-1.58832e-07
5.48962e-06
1.64235e-07
3.27864e-08
-2.0095e-07
5.73686e-06
2.00749e-07
1.12223e-07
-2.14701e-07
5.83417e-06
2.12126e-07
1.61682e-07
-1.80784e-07
5.76949e-06
1.83554e-07
1.73094e-07
-1.33303e-07
5.56558e-06
1.38071e-07
-9.2736e-08
5.25331e-06
1.53617e-07
1.02309e-07
-1.2315e-07
-8.3937e-08
5.51015e-06
1.28475e-07
-7.96799e-08
-1.0935e-07
5.92209e-06
1.79667e-08
-1.55395e-07
6.21969e-06
1.37594e-07
-1.6442e-07
6.32212e-06
2.12855e-07
-1.29588e-07
6.22581e-06
2.32957e-07
-9.05321e-08
5.97659e-06
-6.019e-08
5.61965e-06
2.10741e-07
-1.82961e-07
-8.45957e-09
5.79353e-06
1.84218e-07
-1.39366e-07
-7.38876e-09
6.27386e-06
-1.07103e-08
-3.51205e-08
6.64967e-06
1.60598e-07
-1.8551e-08
6.72717e-06
2.62419e-07
-1.18887e-08
6.57905e-06
2.89131e-07
-1.04307e-09
6.28425e-06
1.68709e-09
5.88286e-06
2.63676e-07
-2.14358e-07
8.28423e-08
5.9374e-06
2.14041e-07
-1.72011e-07
1.2513e-07
6.4742e-06
-6.03597e-08
9.24099e-08
7.05861e-06
1.5788e-07
1.66582e-07
6.98069e-06
2.87272e-07
1.50443e-07
6.77116e-06
3.17069e-07
1.13795e-07
6.43467e-06
7.87988e-08
6.00615e-06
2.89271e-07
-1.85146e-07
1.41313e-07
5.89761e-06
1.9861e-07
-1.20142e-07
1.96436e-07
6.42657e-06
-7.41789e-08
2.32433e-07
7.05547e-06
1.4284e-07
2.88834e-07
6.94009e-06
2.57178e-07
2.59908e-07
6.71325e-06
2.90766e-07
1.95284e-07
6.38359e-06
1.3486e-07
5.96426e-06
2.6819e-07
-1.47166e-07
1.63938e-07
5.68463e-06
1.63462e-07
-9.86885e-08
2.29472e-07
6.14006e-06
-2.28356e-08
2.84844e-07
6.49137e-06
1.0423e-07
3.16564e-07
6.57725e-06
1.99547e-07
2.8376e-07
6.43082e-06
2.31708e-07
2.19144e-07
6.15085e-06
1.53623e-07
5.76854e-06
2.16745e-07
-1.12474e-07
5.35146e-06
1.34193e-07
1.53449e-07
-7.02071e-08
5.73888e-06
2.1954e-07
-1.53642e-09
6.01037e-06
2.7275e-07
8.64134e-08
6.10432e-06
2.94864e-07
1.49852e-07
6.01806e-06
2.62956e-07
1.73075e-07
5.78846e-06
2.03191e-07
5.44953e-06
1.63555e-07
1.45191e-07
9.53451e-08
2.45734e-08
5.13714e-06
-9.48744e-08
-2.76657e-08
9.02675e-08
3.65798e-08
5.49911e-06
-4.1172e-08
8.28772e-08
4.25967e-08
5.75038e-06
-4.87805e-08
6.7553e-08
5.35077e-08
5.85429e-06
-5.80925e-08
4.14845e-08
6.14998e-08
5.80069e-06
-6.64006e-08
1.04901e-08
6.35151e-08
5.60201e-06
-6.86552e-08
5.86195e-08
5.2849e-06
-1.88347e-08
-6.05394e-08
9.10212e-08
2.10655e-08
5.51466e-06
-9.2293e-08
8.61002e-08
3.66499e-08
5.92702e-06
8.6312e-08
4.04175e-08
6.22207e-06
7.62826e-08
5.68877e-08
6.32913e-06
5.37508e-08
5.66072e-08
6.25346e-06
2.29091e-08
5.31351e-08
6.01825e-06
4.77873e-08
5.66239e-06
-8.58e-09
8.18539e-08
1.98354e-08
5.79472e-06
-8.17188e-08
8.08827e-08
4.37502e-08
6.26816e-06
8.1372e-08
4.85637e-08
6.64119e-06
7.54755e-08
7.19061e-08
6.71813e-06
6.2039e-08
4.96489e-08
6.59946e-06
3.43521e-08
4.23917e-08
6.32281e-06
3.33669e-08
5.93015e-06
1.6729e-09
7.44114e-08
1.54429e-08
5.93691e-06
-6.92383e-08
8.59314e-08
4.0407e-08
6.46631e-06
5.3274e-08
4.88869e-08
7.09098e-06
6.69838e-08
5.1906e-08
6.98669e-06
6.76245e-08
4.69689e-08
6.77322e-06
4.45064e-08
3.5394e-08
6.46488e-06
1.97288e-08
6.05418e-06
1.01773e-08
5.96875e-08
7.33902e-09
5.90077e-06
-5.4525e-08
6.32699e-08
3.76004e-08
6.42582e-06
4.61066e-08
6.95536e-08
7.05172e-06
6.47164e-08
5.30308e-08
6.92018e-06
6.92265e-08
5.09608e-08
6.70471e-06
4.3196e-08
2.65229e-08
6.41852e-06
3.73252e-09
6.01402e-06
9.56188e-09
4.6978e-08
-4.77402e-09
5.69219e-06
-4.23104e-08
4.97969e-08
2.50058e-08
6.14989e-06
6.11533e-08
4.98099e-08
6.49967e-06
5.86137e-08
3.99606e-08
6.59286e-06
5.0191e-08
2.09898e-08
6.46934e-06
2.74107e-08
-6.29904e-10
6.20107e-06
-1.83153e-08
5.81789e-06
3.88338e-10
3.90451e-08
5.35722e-06
-2.78693e-08
-2.16992e-08
4.58248e-08
5.75364e-06
3.86316e-09
5.48063e-08
6.03067e-06
2.05675e-08
5.31377e-08
6.13182e-06
1.41671e-08
3.83563e-08
6.05819e-06
-4.14965e-09
1.54375e-08
5.83395e-06
-2.29511e-08
5.48868e-06
-7.65878e-09
-3.41457e-08
1.92276e-07
9.55272e-08
5.15181e-06
-1.94031e-07
-1.08435e-07
1.6737e-07
1.28537e-07
5.53945e-06
-1.43957e-07
1.23005e-07
1.5335e-07
5.81312e-06
-1.71686e-07
5.98062e-08
1.76217e-07
5.93328e-06
-1.92059e-07
-1.16345e-08
1.84528e-07
5.88503e-06
-1.97526e-07
-7.13235e-08
1.68962e-07
5.67513e-06
-1.82362e-07
1.43503e-07
5.33454e-06
-1.10586e-07
-1.53798e-07
2.11251e-07
6.5734e-08
5.54832e-06
-2.15086e-07
1.81995e-07
9.50683e-08
5.9897e-06
1.37151e-07
1.10686e-07
6.30951e-06
6.81011e-08
1.36247e-07
6.43798e-06
-1.59063e-08
1.46715e-07
6.37526e-06
-8.2652e-08
1.26116e-07
6.12801e-06
1.05303e-07
5.74345e-06
-1.25403e-07
2.19543e-07
2.29658e-08
5.84092e-06
-2.22951e-07
1.89186e-07
5.03738e-08
6.34331e-06
1.49321e-07
5.18798e-08
6.73989e-06
7.70234e-08
7.7715e-08
6.849e-06
-2.32007e-08
6.07487e-08
6.78579e-06
-8.9942e-08
5.65833e-08
6.45927e-06
4.64977e-08
6.03486e-06
-1.35764e-07
2.13759e-07
-2.63499e-08
5.98722e-06
-2.14623e-07
1.92098e-07
-4.38662e-09
6.54279e-06
1.31782e-07
3.0278e-08
7.17293e-06
7.92689e-08
-2.39282e-09
7.11933e-06
-2.61603e-09
-6.43143e-09
6.92248e-06
-8.05792e-08
-9.70608e-09
6.60934e-06
-1.59009e-08
6.1686e-06
-1.3253e-07
1.75393e-07
-6.33223e-08
5.94625e-06
-1.83783e-07
1.40502e-07
-3.53609e-08
6.49169e-06
1.23391e-07
1.32733e-08
7.08588e-06
9.20434e-08
-3.2883e-08
6.98214e-06
1.0708e-08
-5.62717e-08
6.83607e-06
-7.13404e-08
-6.59427e-08
6.55692e-06
-7.24698e-08
6.12296e-06
-1.23736e-07
1.48566e-07
-9.32303e-08
5.72661e-06
-1.5303e-07
1.2801e-07
-7.5308e-08
6.21047e-06
1.18973e-07
-5.3937e-08
6.57591e-06
6.73779e-08
-8.39352e-08
6.69553e-06
-6.90756e-09
-1.21461e-07
6.60884e-06
-6.98126e-08
-1.25337e-07
6.3234e-06
-1.17891e-07
5.90647e-06
-1.1304e-07
1.25664e-07
5.37262e-06
-1.20077e-07
-1.1412e-07
1.15379e-07
5.79661e-06
-1.07908e-07
9.98978e-08
6.09666e-06
-1.04618e-07
5.80617e-08
6.21696e-06
-1.27426e-07
-6.75483e-09
6.15226e-06
-1.50902e-07
-6.26344e-08
5.9166e-06
-1.52311e-07
5.54495e-06
-9.86583e-08
-1.38205e-07
2.40412e-07
1.06606e-07
5.13958e-06
-2.24282e-07
-1.10509e-07
2.18691e-07
1.59667e-07
5.56897e-06
-1.67374e-07
1.62568e-07
2.02352e-07
5.88158e-06
-2.14722e-07
7.85251e-08
2.35345e-07
6.02843e-06
-2.46552e-07
-1.49895e-08
2.47557e-07
5.98429e-06
-2.53342e-07
-8.65469e-08
2.20484e-07
5.75298e-06
-2.26688e-07
1.79183e-07
5.37505e-06
-1.24365e-07
-1.81942e-07
2.80853e-07
7.47354e-08
5.56708e-06
-2.67609e-07
2.49714e-07
1.19454e-07
6.06083e-06
1.83313e-07
1.50865e-07
6.42725e-06
8.42852e-08
1.80178e-07
6.59215e-06
-3.27252e-08
2.01678e-07
6.53831e-06
-1.17984e-07
1.69044e-07
6.26483e-06
1.34778e-07
5.83251e-06
-1.62694e-07
3.06788e-07
1.9026e-08
5.88295e-06
-2.93219e-07
2.71649e-07
5.6755e-08
6.44089e-06
2.01108e-07
7.82355e-08
6.88322e-06
7.5233e-08
9.57541e-08
7.05965e-06
-5.55635e-08
9.45065e-08
7.02413e-06
-1.43789e-07
7.35882e-08
6.64318e-06
5.57667e-08
6.16254e-06
-1.92483e-07
3.12703e-07
-4.98605e-08
6.03696e-06
-2.93759e-07
3.02763e-07
-3.42183e-08
6.64361e-06
2.1207e-07
2.30857e-08
7.31918e-06
1.01663e-07
-1.56944e-08
7.3417e-06
-3.15727e-08
-1.48769e-08
7.16547e-06
-1.40875e-07
-2.64116e-08
6.81872e-06
-3.32342e-08
6.31382e-06
-1.97282e-07
2.63886e-07
-9.88261e-08
5.98679e-06
-2.55544e-07
2.25942e-07
-8.33312e-08
6.5789e-06
2.33577e-07
-2.89716e-08
7.13088e-06
1.29394e-07
-1.1046e-07
7.18152e-06
-3.58652e-08
-1.62835e-07
7.14941e-06
-1.33032e-07
-1.29097e-07
6.7566e-06
-1.15819e-07
6.25681e-06
-1.84657e-07
2.19241e-07
-1.27787e-07
5.74431e-06
-2.07902e-07
1.99539e-07
-1.30768e-07
6.27773e-06
1.87026e-07
-1.22705e-07
6.68237e-06
9.8981e-08
-1.72562e-07
6.84583e-06
-2.95043e-08
-2.13572e-07
6.78799e-06
-1.08898e-07
-1.9888e-07
6.4724e-06
-1.67105e-07
6.00176e-06
-1.53149e-07
1.76975e-07
5.35803e-06
-1.55425e-07
-1.34686e-07
1.70616e-07
5.82656e-06
-1.54478e-07
1.48121e-07
6.16727e-06
-1.70704e-07
8.13824e-08
6.31917e-06
-2.07963e-07
-1.06481e-08
6.26102e-06
-2.30433e-07
-8.08456e-08
6.00191e-06
-2.14119e-07
5.58937e-06
-1.16002e-07
-1.76284e-07
2.78858e-07
7.8685e-08
-2.08446e-07
-4.51496e-08
5.03559e-06
2.83575e-07
1.5994e-07
-1.35014e-07
5.53911e-06
2.29281e-07
2.31038e-07
-2.15177e-07
5.91967e-06
1.28432e-07
2.84885e-07
-2.68744e-07
6.11278e-06
1.5647e-08
2.99847e-07
-2.80028e-07
6.0771e-06
-6.37946e-08
2.60555e-07
-2.40693e-07
5.81263e-06
2.01921e-07
-8.73329e-08
-1.75011e-07
5.37165e-06
3.48475e-07
6.24018e-08
-2.82555e-07
5.51715e-06
3.3925e-07
1.26444e-07
6.10308e-06
2.64561e-07
1.8307e-07
6.54951e-06
1.33476e-07
2.32514e-07
6.77541e-06
-1.50609e-08
2.52074e-07
6.73461e-06
-1.1763e-07
2.09486e-07
6.41855e-06
1.59626e-07
-1.55511e-07
5.91257e-06
3.96252e-07
8.93928e-09
-3.32403e-07
5.87236e-06
3.81543e-07
5.17772e-08
6.53007e-06
2.99108e-07
9.61942e-08
7.0525e-06
1.16365e-07
1.43258e-07
7.33164e-06
-5.11998e-08
1.45338e-07
7.29829e-06
-1.64736e-07
9.56863e-08
6.87031e-06
6.32558e-08
-2.11153e-07
6.30506e-06
4.13407e-07
-6.33109e-08
-3.44311e-07
6.0399e-06
4.12966e-07
-4.87844e-08
6.74444e-06
3.6365e-07
1.05811e-08
7.45408e-06
1.42769e-07
2.43249e-08
7.68125e-06
-5.81485e-08
-8.75957e-09
7.52015e-06
-1.77734e-07
-4.99493e-08
7.08364e-06
-5.50785e-08
-2.28377e-07
6.48256e-06
3.71826e-07
-1.16933e-07
-3.05788e-07
5.97427e-06
3.68911e-07
-1.30579e-07
6.66345e-06
3.78611e-07
-1.26627e-07
7.25822e-06
1.35168e-07
-2.28535e-07
7.67755e-06
-6.36273e-08
-2.42755e-07
7.58191e-06
-1.62193e-07
-1.90472e-07
6.9955e-06
-1.5734e-07
-2.04948e-07
6.4017e-06
3.01988e-07
-1.30515e-07
-2.35077e-07
5.69089e-06
3.0767e-07
-1.72327e-07
6.31365e-06
2.77248e-07
-2.047e-07
6.79057e-06
1.35541e-07
-2.7489e-07
7.03375e-06
-2.17406e-08
-2.86472e-07
6.98882e-06
-1.08984e-07
-2.55064e-07
6.62421e-06
-2.02413e-07
-1.44612e-07
6.08254e-06
2.27737e-07
-1.53218e-07
-9.53948e-08
5.24821e-06
2.44673e-07
-1.57084e-07
5.79443e-06
2.15496e-07
-2.12311e-07
6.20404e-06
1.20498e-07
-2.68183e-07
6.40738e-06
1.4939e-08
-2.77903e-07
6.35788e-06
-5.94754e-08
-2.41788e-07
6.06315e-06
-7.92874e-08
-1.78167e-07
5.58528e-06
4.82259e-07
-1.58169e-08
3.00176e-06
-2.85257e-08
4.59268e-07
-1.1239e-08
3.32625e-06
-1.89027e-08
4.14352e-07
-1.02904e-08
3.55495e-06
-1.02916e-08
3.52855e-07
-1.1613e-08
3.70464e-06
-2.42024e-09
2.78394e-07
-1.48639e-08
3.78801e-06
5.06367e-09
1.93104e-07
-1.91248e-08
3.80727e-06
1.15537e-08
9.9024e-08
-2.3417e-08
3.7344e-06
1.71984e-08
-2.70334e-08
3.39311e-06
2.18154e-08
6.25827e-07
-2.597e-08
4.00902e-06
5.75402e-07
-1.71093e-08
4.26472e-06
5.03785e-07
-1.53834e-08
4.42119e-06
4.19e-07
-1.71505e-08
4.49582e-06
3.24023e-07
-2.04904e-08
4.50318e-06
2.20718e-07
-2.43375e-08
4.44644e-06
1.11565e-07
-2.80538e-08
4.2933e-06
-3.10125e-08
3.83825e-06
7.76272e-07
4.01062e-09
4.72213e-06
7.05009e-07
2.7632e-09
4.93496e-06
6.09992e-07
-1.64736e-09
5.04185e-06
5.01605e-07
-7.38452e-09
5.06309e-06
3.83843e-07
-1.27823e-08
5.01538e-06
2.59456e-07
-1.73197e-08
4.90307e-06
1.30339e-07
-2.07781e-08
4.69119e-06
-2.26702e-08
4.1514e-06
8.48305e-07
5.35876e-08
5.00413e-06
7.67907e-07
3.4427e-08
5.20361e-06
6.63779e-07
2.11047e-08
5.29391e-06
5.43369e-07
1.01463e-08
5.29644e-06
4.14421e-07
2.12826e-09
5.22879e-06
2.79325e-07
-2.94741e-09
5.096e-06
1.39395e-07
-6.09701e-09
4.86233e-06
-6.91642e-09
4.29048e-06
7.90456e-07
7.54264e-08
4.78434e-06
7.22141e-07
4.77513e-08
5.00451e-06
6.27708e-07
3.09504e-08
5.11677e-06
5.17199e-07
1.84697e-08
5.14137e-06
3.96747e-07
1.05301e-08
5.09539e-06
2.68621e-07
6.18815e-09
4.98373e-06
1.34795e-07
4.69564e-09
4.77148e-06
6.20192e-09
4.22771e-06
6.45041e-07
5.02926e-08
4.11069e-06
5.99617e-07
3.1003e-08
4.38038e-06
5.29363e-07
1.88624e-08
4.54753e-06
4.42411e-07
1.05464e-08
4.62948e-06
3.43729e-07
6.24066e-09
4.64139e-06
2.35092e-07
4.90095e-09
4.58718e-06
1.19197e-07
5.83338e-09
4.43452e-06
9.33176e-09
3.97307e-06
5.02827e-07
3.10951e-06
-8.56969e-09
4.84058e-07
3.45337e-06
-8.41753e-09
4.39061e-07
3.69774e-06
-7.16253e-09
3.74326e-07
3.85933e-06
-5.13932e-09
2.95382e-07
3.95141e-06
-2.56319e-09
2.04824e-07
3.97686e-06
4.86383e-10
1.04609e-07
3.90725e-06
4.03953e-09
3.56014e-06
8.71346e-09
1.49747e-07
1.11347e-08
3.01494e-06
-1.99837e-08
1.36371e-07
7.94743e-09
3.34393e-06
-1.16261e-08
1.18546e-07
2.1573e-09
3.57553e-06
-4.32207e-09
9.81343e-08
-4.01996e-09
3.72725e-06
2.2548e-09
7.571e-08
-9.92848e-09
3.81253e-06
7.9855e-09
5.15592e-08
-1.54448e-08
3.83389e-06
1.26544e-08
2.63498e-08
-2.01342e-08
3.7631e-06
1.63415e-08
-2.38093e-08
3.42461e-06
1.84163e-08
1.99358e-07
1.04995e-08
4.02145e-06
1.7714e-07
7.98203e-09
4.28745e-06
1.50751e-07
1.19183e-09
4.44896e-06
1.2235e-07
-5.58298e-09
4.52573e-06
9.30979e-08
-1.19438e-08
4.53417e-06
6.28588e-08
-1.73527e-08
4.47833e-06
3.19288e-08
-2.17718e-08
4.32585e-06
-2.50633e-08
3.87154e-06
2.51747e-07
1.70093e-08
4.72783e-06
2.2576e-07
1.02337e-08
4.95867e-06
1.92692e-07
2.25887e-09
5.07384e-06
1.56879e-07
-4.48701e-09
5.09776e-06
1.19494e-07
-9.8587e-09
5.05045e-06
8.12799e-08
-1.37178e-08
4.93794e-06
4.15694e-08
-1.62077e-08
4.72535e-06
-1.67845e-08
4.18473e-06
2.78581e-07
2.5799e-08
5.00611e-06
2.51732e-07
1.31427e-08
5.22774e-06
2.15981e-07
4.53338e-09
5.32839e-06
1.75693e-07
-1.35138e-09
5.33333e-06
1.33842e-07
-4.79767e-09
5.26546e-06
9.0531e-08
-6.25254e-09
5.13176e-06
4.60835e-08
-6.0328e-09
4.89678e-06
-3.62114e-09
4.32343e-06
2.61416e-07
2.43765e-08
4.7928e-06
2.37838e-07
1.03645e-08
5.03103e-06
2.04999e-07
3.07014e-09
5.15106e-06
1.67729e-07
-5.06647e-10
5.17752e-06
1.28597e-07
-1.46194e-09
5.13117e-06
8.75958e-08
-3.44719e-10
5.01869e-06
4.49833e-08
2.79929e-09
4.80535e-06
8.56689e-09
4.26044e-06
2.1392e-07
1.0353e-08
4.12759e-06
1.95288e-07
2.04531e-09
4.40741e-06
1.68873e-07
-1.67498e-09
4.57859e-06
1.38893e-07
-2.64327e-09
4.66138e-06
1.06709e-07
-1.17176e-09
4.67316e-06
7.27036e-08
2.03918e-09
4.61895e-06
3.70254e-08
6.47667e-09
4.46634e-06
1.33645e-08
4.00537e-06
1.65922e-07
3.12677e-06
-9.16093e-09
1.5449e-07
3.47491e-06
-8.20818e-09
1.35321e-07
3.72118e-06
-6.18172e-09
1.11914e-07
3.88357e-06
-3.41962e-09
8.60944e-08
3.97641e-06
-1.81516e-10
5.84098e-08
4.00307e-06
3.49317e-09
2.95904e-08
3.93501e-06
7.49074e-09
3.59052e-06
1.25006e-08
-4.0364e-08
2.54355e-08
3.0276e-06
-1.61976e-08
-5.68844e-08
1.83348e-08
3.35122e-06
-8.77129e-09
-6.52578e-08
9.92459e-09
3.57675e-06
-2.59738e-09
-6.55503e-08
1.97884e-09
3.72272e-06
2.80223e-09
-5.86882e-08
-4.99015e-09
3.80328e-06
7.12719e-09
-4.55236e-08
-1.08964e-08
3.82094e-06
1.03641e-08
-2.61153e-08
-1.57593e-08
3.74684e-06
1.24636e-08
-1.95072e-08
3.40516e-06
1.2645e-08
-3.56591e-08
2.75171e-08
4.04668e-06
-5.47804e-08
1.93967e-08
4.30549e-06
-6.40107e-08
1.02351e-08
4.45766e-06
-6.39081e-08
2.01714e-09
4.52525e-06
-5.60287e-08
-5.02028e-09
4.52607e-06
-4.20228e-08
-1.08804e-08
4.46431e-06
-2.31235e-08
-1.56608e-08
4.30681e-06
-1.92896e-08
3.84814e-06
-2.54841e-08
1.92424e-08
4.76319e-06
-4.53415e-08
1.11199e-08
4.98649e-06
-5.51841e-08
3.78861e-09
5.08988e-06
-5.49617e-08
-2.19826e-09
5.10151e-06
-4.69277e-08
-6.4875e-09
5.04373e-06
-3.37811e-08
-9.25941e-09
4.92309e-06
-1.75277e-08
-1.07612e-08
4.70404e-06
-1.04832e-08
4.15839e-06
-1.59452e-08
5.50849e-09
5.04595e-06
-3.5664e-08
-1.80887e-09
5.26035e-06
-4.70895e-08
-6.08197e-09
5.34788e-06
-4.76394e-08
-7.70045e-09
5.33935e-06
-4.07273e-08
-7.50834e-09
5.25957e-06
-2.92481e-08
-5.9386e-09
5.11675e-06
-1.48531e-08
-3.11594e-09
4.87476e-06
1.6337e-09
4.2964e-06
-1.50206e-08
-7.80943e-09
4.83083e-06
-3.41978e-08
-1.2842e-08
5.06133e-06
-4.45644e-08
-1.35078e-08
5.16881e-06
-4.55135e-08
-1.14566e-08
5.1821e-06
-3.91028e-08
-7.47444e-09
5.12461e-06
-2.78958e-08
-2.22858e-09
5.00373e-06
-1.40384e-08
4.41989e-09
4.78399e-06
1.33468e-08
4.23457e-06
-2.15903e-08
-1.50426e-08
4.15699e-06
-3.9197e-08
-1.65422e-08
4.42877e-06
-4.89512e-08
-1.45266e-08
4.58924e-06
-5.02029e-08
-1.04435e-08
4.66144e-06
-4.43242e-08
-4.91173e-09
4.6646e-06
-3.323e-08
1.61139e-09
4.60406e-06
-1.81811e-08
8.96738e-09
4.44664e-06
1.8347e-08
3.98228e-06
-2.61853e-08
3.14271e-06
-1.23002e-08
-4.24205e-08
3.48462e-06
-9.96243e-09
-5.24211e-08
3.72336e-06
-6.75968e-09
-5.48512e-08
3.8786e-06
-3.01846e-09
-5.0113e-08
3.96578e-06
1.06753e-09
-3.93222e-08
3.98841e-06
5.35969e-09
-2.26257e-08
3.91732e-06
9.90728e-09
3.57092e-06
1.52771e-08
-1.41736e-07
3.59445e-08
3.04041e-06
-1.75805e-08
-1.58479e-07
2.75815e-08
3.35115e-06
-1.07975e-08
-1.58932e-07
1.84623e-08
3.56367e-06
-5.17016e-09
-1.44191e-07
1.01098e-08
3.69842e-06
-7.40948e-10
-1.17191e-07
2.91305e-09
3.77056e-06
2.74665e-09
-8.07571e-08
-2.99937e-09
3.78249e-06
4.98194e-09
-3.78993e-08
-7.69257e-09
3.70565e-06
5.97784e-09
-1.12761e-08
3.37326e-06
5.07932e-09
-1.6282e-07
3.74839e-08
4.0825e-06
-1.79644e-07
2.82185e-08
4.32142e-06
-1.7618e-07
1.88762e-08
4.45352e-06
-1.55498e-07
1.0517e-08
4.50405e-06
-1.22467e-07
3.56664e-09
4.49243e-06
-8.17909e-08
-1.92099e-09
4.42267e-06
-3.70295e-08
-6.75277e-09
4.261e-06
-1.05709e-08
3.81019e-06
-1.75341e-07
1.91061e-08
4.82103e-06
-1.92185e-07
1.20746e-08
5.01925e-06
-1.85918e-07
6.17695e-09
5.09622e-06
-1.6078e-07
1.90952e-09
5.08498e-06
-1.23095e-07
-8.41881e-10
5.01048e-06
-7.90498e-08
-2.36828e-09
4.87933e-06
-3.39197e-08
-2.87262e-09
4.65464e-06
-2.00788e-09
4.11584e-06
-1.73631e-07
-8.04595e-09
5.11414e-06
-1.91545e-07
-1.11731e-08
5.30145e-06
-1.85023e-07
-1.16054e-08
5.3597e-06
-1.59304e-07
-9.95636e-09
5.32554e-06
-1.20957e-07
-6.84708e-09
5.22718e-06
-7.69568e-08
-2.85101e-09
5.07294e-06
-3.23476e-08
1.9157e-09
4.82512e-06
8.16106e-09
4.25388e-06
-1.63711e-07
-2.90749e-08
4.89175e-06
-1.81369e-07
-2.86398e-08
5.09644e-06
-1.76014e-07
-2.46546e-08
5.17646e-06
-1.51826e-07
-1.82804e-08
5.1661e-06
-1.15387e-07
-1.06019e-08
5.09167e-06
-7.30513e-08
-2.39683e-09
4.96069e-06
-3.01791e-08
6.74019e-09
4.73614e-06
1.75998e-08
4.19475e-06
-1.48611e-07
-3.31733e-08
4.19659e-06
-1.65288e-07
-3.03192e-08
4.44711e-06
-1.62443e-07
-2.4278e-08
4.58592e-06
-1.42744e-07
-1.66362e-08
4.63989e-06
-1.11111e-07
-8.16375e-09
4.6303e-06
-7.28401e-08
8.01847e-10
4.5624e-06
-3.17765e-08
1.00031e-08
4.40208e-06
2.07397e-08
3.94724e-06
-1.29114e-07
3.15769e-06
-1.76285e-08
-1.46638e-07
3.48534e-06
-1.34986e-08
-1.48345e-07
3.70955e-06
-8.88173e-09
-1.34924e-07
3.8525e-06
-4.06478e-09
-1.09221e-07
3.93101e-06
8.0575e-10
-7.45746e-08
3.94856e-06
5.7529e-09
-3.43476e-08
3.87611e-06
1.07498e-08
3.54092e-06
1.63582e-08
-1.46222e-07
4.33267e-08
3.04358e-06
-2.48209e-08
-1.45872e-07
3.35881e-08
3.335e-06
-1.79584e-08
-1.2407e-07
2.30158e-08
3.53103e-06
-1.23038e-08
-8.85913e-08
1.35908e-08
3.65734e-06
-7.96426e-09
-5.04498e-08
5.86509e-09
3.73145e-06
-4.90187e-09
-2.01229e-08
1.5144e-10
3.75496e-06
-3.1144e-09
1.70185e-09
-5.14135e-09
3.69129e-06
-2.58469e-09
-8.47333e-09
3.38692e-06
-3.7657e-09
-1.92738e-07
4.41744e-08
4.11161e-06
-1.89331e-07
3.33108e-08
4.31821e-06
-1.57548e-07
2.28358e-08
4.42193e-06
-1.07755e-07
1.36999e-08
4.45416e-06
-5.44752e-08
6.42734e-09
4.43846e-06
-1.12939e-08
1.15592e-09
4.37828e-06
1.54088e-08
-3.54885e-09
4.23236e-06
-6.97966e-09
3.82398e-06
-2.26512e-07
2.02019e-08
4.87887e-06
-2.22354e-07
1.35918e-08
5.03464e-06
-1.84268e-07
8.67456e-09
5.07226e-06
-1.24338e-07
5.61806e-09
5.03311e-06
-5.94161e-08
4.1835e-09
4.94769e-06
-6.36927e-09
4.00635e-09
4.82311e-06
2.45571e-08
4.56786e-09
4.61522e-06
6.16489e-09
4.12735e-06
-2.34328e-07
-1.50624e-08
5.1862e-06
-2.31106e-07
-1.52513e-08
5.32679e-06
-1.91542e-07
-1.2202e-08
5.34084e-06
-1.28388e-07
-7.01113e-09
5.27487e-06
-5.95377e-08
-8.48863e-10
5.16309e-06
-3.51165e-09
5.56881e-09
5.01493e-06
2.84348e-08
1.20142e-08
4.78555e-06
1.86568e-08
4.2699e-06
-2.1844e-07
-4.20754e-08
4.95223e-06
-2.14207e-07
-3.64672e-08
5.11326e-06
-1.75853e-07
-2.73748e-08
5.15315e-06
-1.1545e-07
-1.63643e-08
5.11481e-06
-5.03739e-08
-5.12472e-09
5.03048e-06
1.73893e-09
5.79896e-09
4.90796e-06
2.99117e-08
1.69234e-08
4.70294e-06
2.78887e-08
4.21522e-06
-1.81747e-07
-4.50417e-08
4.22801e-06
-1.77743e-07
-3.79655e-08
4.44456e-06
-1.45373e-07
-2.76697e-08
4.55371e-06
-9.50063e-08
-1.64048e-08
4.58929e-06
-4.18763e-08
-5.26118e-09
4.57692e-06
-5.17447e-10
5.38544e-09
4.52104e-06
2.21589e-08
1.62339e-08
4.37976e-06
2.7119e-08
3.96999e-06
-1.37739e-07
3.16124e-06
-2.66995e-08
-1.37674e-07
3.46795e-06
-2.05678e-08
-1.15982e-07
3.67441e-06
-1.42894e-08
-8.05401e-08
3.80867e-06
-8.17697e-09
-4.27588e-08
3.89009e-06
-2.36759e-09
-1.35669e-08
3.92112e-06
3.2323e-09
5.32701e-09
3.86437e-06
8.68373e-09
3.55884e-06
1.44741e-08
-5.81923e-08
6.13991e-08
-3.96449e-08
2.99253e-06
1.66749e-08
4.99108e-08
-3.12474e-08
3.24141e-06
1.29632e-07
3.67698e-08
-2.40716e-08
3.40518e-06
2.64314e-07
2.58085e-08
-1.8398e-08
3.51502e-06
3.95728e-07
1.82799e-08
-1.41893e-08
3.59566e-06
4.81614e-07
1.45162e-08
-1.13155e-08
3.66563e-06
4.24162e-07
1.4813e-08
-9.61299e-09
3.74337e-06
2.10237e-08
-8.81271e-09
3.79888e-06
-1.40063e-07
5.83711e-08
4.09912e-06
-6.03766e-08
4.61932e-08
4.24203e-06
6.97679e-08
3.42812e-08
4.29412e-06
2.28863e-07
2.47541e-08
4.29602e-06
3.87298e-07
1.87335e-08
4.27935e-06
4.9812e-07
1.6429e-08
4.26536e-06
4.53018e-07
1.77366e-08
4.27449e-06
2.39536e-08
4.27416e-06
-2.07849e-07
2.31421e-08
4.91056e-06
-1.29411e-07
1.74249e-08
4.98476e-06
1.14893e-08
1.41533e-08
4.95136e-06
1.89375e-07
1.31737e-08
4.86669e-06
3.70537e-07
1.45e-08
4.77067e-06
5.03691e-07
1.77907e-08
4.68847e-06
4.72255e-07
2.28745e-08
4.64173e-06
3.02441e-08
4.59334e-06
-2.30037e-07
-2.80791e-08
5.23895e-06
-1.52896e-07
-2.37442e-08
5.29076e-06
-8.58921e-09
-1.56278e-08
5.22563e-06
1.76764e-07
-5.68252e-09
5.1081e-06
3.67227e-07
4.225e-09
4.98263e-06
5.09498e-07
1.3298e-08
4.87695e-06
4.82708e-07
2.14529e-08
4.81378e-06
2.80693e-08
4.75465e-06
-1.99993e-07
-6.53783e-08
4.98452e-06
-1.20594e-07
-5.3207e-08
5.06331e-06
2.23495e-08
-3.76998e-08
5.03222e-06
2.03035e-07
-2.16152e-08
4.94994e-06
3.86689e-07
-7.52922e-09
4.85837e-06
5.20944e-07
3.45058e-09
4.78346e-06
4.85485e-07
1.23905e-08
4.74741e-06
1.66882e-08
4.7121e-06
-1.28445e-07
-6.84866e-08
4.21514e-06
-4.69025e-08
-5.65818e-08
4.36645e-06
8.62468e-08
-4.10939e-08
4.42382e-06
2.4898e-07
-2.61754e-08
4.43094e-06
4.10097e-07
-1.35376e-08
4.42164e-06
5.20099e-07
-3.57544e-09
4.41796e-06
4.69133e-07
2.79423e-09
4.44029e-06
3.81025e-09
4.45203e-06
-5.04501e-08
-4.40533e-08
3.10824e-06
2.51863e-08
-3.46325e-08
3.37051e-06
1.40142e-07
-2.56752e-08
3.54395e-06
2.76976e-07
-1.73233e-08
3.66286e-06
4.09718e-07
-9.78295e-09
3.75356e-06
4.95289e-07
-2.99001e-09
3.83486e-06
4.34447e-07
3.39272e-09
3.92444e-06
1.01873e-08
3.98675e-06
4.84297e-07
-7.61664e-08
3.04652e-06
1.4598e-08
4.81544e-07
-4.51793e-08
3.36665e-06
3.56148e-09
4.49382e-07
-1.79485e-08
3.58978e-06
-8.36627e-09
3.93882e-07
3.7437e-09
3.7349e-06
-1.83032e-08
3.17905e-07
2.09068e-08
3.81634e-06
-2.69656e-08
2.24255e-07
3.38711e-08
3.83779e-06
-3.45856e-08
1.16281e-07
4.34297e-08
3.77231e-06
-4.1283e-08
4.82841e-08
3.44609e-06
-4.63716e-08
6.11511e-07
-9.72136e-08
4.03537e-06
5.83453e-07
-5.66218e-08
4.26784e-06
5.29039e-07
-2.58943e-08
4.40323e-06
4.5418e-07
-1.14098e-09
4.46118e-06
3.61607e-07
1.81745e-08
4.45836e-06
2.53346e-07
3.32312e-08
4.39957e-06
1.31963e-07
4.46689e-08
4.25405e-06
5.13825e-08
3.82295e-06
7.49716e-07
-5.95645e-08
4.70501e-06
6.97238e-07
-2.88711e-08
4.87572e-06
6.18354e-07
-4.74047e-09
4.94651e-06
5.20842e-07
1.48042e-08
4.94016e-06
4.08078e-07
3.05032e-08
4.87528e-06
2.82439e-07
4.31667e-08
4.75765e-06
1.45277e-07
5.31843e-08
4.55388e-06
5.93943e-08
4.04652e-06
8.00881e-07
1.51698e-08
4.9203e-06
7.34877e-07
2.25927e-08
5.06618e-06
6.44616e-07
3.25642e-08
5.11228e-06
5.36535e-07
4.17719e-08
5.08039e-06
4.16281e-07
4.97094e-08
4.99223e-06
2.85665e-07
5.65691e-08
4.85289e-06
1.45211e-07
6.20413e-08
4.62804e-06
6.4679e-08
4.09474e-06
7.19293e-07
6.83404e-08
4.63111e-06
6.62743e-07
5.89257e-08
4.79618e-06
5.82346e-07
5.72724e-08
4.86249e-06
4.86585e-07
5.69742e-08
4.85396e-06
3.78819e-07
5.75858e-08
4.78822e-06
2.60219e-07
5.8749e-08
4.67022e-06
1.32516e-07
5.98268e-08
4.46661e-06
5.90855e-08
3.963e-06
5.5758e-07
6.786e-08
3.91852e-06
5.23363e-07
5.82952e-08
4.13796e-06
4.6832e-07
5.34458e-08
4.26375e-06
3.9751e-07
4.92408e-08
4.31535e-06
3.14162e-07
4.6645e-08
4.30854e-06
2.1845e-07
4.49574e-08
4.24709e-06
1.12716e-07
4.34091e-08
4.10032e-06
4.04239e-08
3.67445e-06
4.17078e-07
2.92648e-06
2.3544e-08
4.0943e-07
3.22667e-06
2.60879e-08
3.80032e-07
3.43416e-06
2.77248e-08
3.31147e-07
3.56726e-06
2.83039e-08
2.67103e-07
3.63967e-06
2.81574e-08
1.88911e-07
3.65421e-06
2.72222e-08
9.84134e-08
3.58423e-06
2.54225e-08
3.26226e-06
2.1463e-08
1.54499e-07
-2.4255e-08
3.04737e-06
3.78117e-09
1.5963e-07
-2.79179e-09
3.37224e-06
-7.69616e-09
1.54296e-07
1.28422e-08
3.59979e-06
-1.71531e-08
1.38908e-07
2.62789e-08
3.74957e-06
-2.54724e-08
1.14692e-07
3.65791e-08
3.83657e-06
-3.27155e-08
8.24013e-08
4.41915e-08
3.86442e-06
-3.90231e-08
4.35912e-08
4.9239e-08
3.80573e-06
-4.4248e-08
4.92962e-08
3.48747e-06
-4.73568e-08
1.82249e-07
-3.40982e-08
4.02645e-06
1.84805e-07
-7.30976e-09
4.27001e-06
1.76102e-07
1.14555e-08
4.41334e-06
1.5856e-07
2.66516e-08
4.4782e-06
1.32212e-07
3.84623e-08
4.48257e-06
9.68804e-08
4.73313e-08
4.43145e-06
5.29041e-08
5.34408e-08
4.29356e-06
5.46689e-08
3.87052e-06
2.1319e-07
-2.3438e-08
4.67984e-06
2.11999e-07
-1.26009e-10
4.86964e-06
1.98696e-07
1.78673e-08
4.95315e-06
1.76212e-07
3.22721e-08
4.95647e-06
1.45494e-07
4.37158e-08
4.90064e-06
1.06291e-07
5.25709e-08
4.79196e-06
5.79317e-08
5.90123e-08
4.59655e-06
6.15911e-08
4.09745e-06
2.19621e-07
5.45424e-09
4.88552e-06
2.12664e-07
1.80825e-08
5.05486e-06
1.96271e-07
3.09853e-08
5.11542e-06
1.71255e-07
4.12491e-08
5.09603e-06
1.39442e-07
4.96741e-08
5.01806e-06
1.00203e-07
5.6296e-08
4.88833e-06
5.38727e-08
6.11719e-08
4.67227e-06
6.28188e-08
4.14729e-06
1.86571e-07
2.98094e-08
4.6041e-06
1.79015e-07
3.281e-08
4.78921e-06
1.6389e-07
3.91019e-08
4.86951e-06
1.43393e-07
4.4465e-08
4.87151e-06
1.17102e-07
4.89043e-08
4.81538e-06
8.42829e-08
5.24413e-08
4.70668e-06
4.55064e-08
5.49922e-08
4.51159e-06
5.51225e-08
4.01597e-06
1.32358e-07
3.70506e-08
3.9072e-06
1.27997e-07
3.66151e-08
4.13896e-06
1.18707e-07
3.79359e-08
4.27424e-06
1.0555e-07
3.88989e-08
4.33429e-06
8.74008e-08
3.96912e-08
4.33586e-06
6.387e-08
4.01948e-08
4.28286e-06
3.48037e-08
4.00876e-08
4.14406e-06
3.83162e-08
3.72608e-06
8.90117e-08
2.92554e-06
2.75713e-08
9.16788e-08
3.23151e-06
2.94297e-08
8.92059e-08
3.44489e-06
2.98424e-08
8.16389e-08
3.58437e-06
2.94089e-08
6.90081e-08
3.66373e-06
2.82646e-08
5.10315e-08
3.68563e-06
2.65675e-08
2.81118e-08
3.62299e-06
2.41446e-08
3.30892e-06
1.97721e-08
-2.82604e-08
5.38935e-09
3.04545e-06
-2.75328e-09
-2.78726e-08
1.96655e-08
3.36532e-06
-1.28417e-08
-2.55257e-08
3.01548e-08
3.58865e-06
-2.10642e-08
-2.17241e-08
3.82083e-08
3.73599e-06
-2.81996e-08
-1.74287e-08
4.40999e-08
3.82267e-06
-3.44423e-08
-1.30866e-08
4.80054e-08
3.85179e-06
-3.97595e-08
-8.0017e-09
4.96632e-08
3.79504e-06
-4.40083e-08
4.64143e-08
3.47908e-06
-4.60543e-08
-4.13386e-08
3.97957e-09
4.0271e-06
-3.76928e-08
2.15251e-08
4.26482e-06
-3.04815e-08
3.38314e-08
4.40263e-06
-2.11112e-08
4.30034e-08
4.46412e-06
-1.20762e-08
4.95584e-08
4.46797e-06
-5.08815e-09
5.39094e-08
4.41852e-06
-1.04971e-09
5.58866e-08
4.28321e-06
5.29302e-08
3.86289e-06
-5.47729e-08
3.73631e-09
4.68048e-06
-4.97187e-08
2.12935e-08
4.86505e-06
-3.98316e-08
3.46374e-08
4.9426e-06
-2.69233e-08
4.45077e-08
4.94201e-06
-1.41679e-08
5.19047e-08
4.8855e-06
-4.5038e-09
5.72856e-08
4.77874e-06