/*--------------------------------*- C++ -*----------------------------------*\
| =========                 |                                                 |
| \\      /  F ield         | OpenFOAM: The Open Source CFD Toolbox           |
|  \\    /   O peration     | Version:  plus.master.MPPICInterFoam            |
|   \\  /    A nd           | Web:      www.OpenFOAM.com                      |
|    \\/     M anipulation  |                                                 |
\*---------------------------------------------------------------------------*/
FoamFile
{
    version     2.0;
    format      ascii;
    class       volScalarField;
    location    "5";
    object      p_rgh;
}
// * * * * * * * * * * * * * * * * * * * * * * * * * * * * * * * * * * * * * //

dimensions      [1 -1 -2 0 0 0 0];

internalField   nonuniform List<scalar> 
11821
(
5541.92
5170.37
5669.78
5557.46
5669.37
5672.59
5679
5678.29
5635.54
5564.87
5611.57
5674.24
5678.8
5677.64
5383.02
4832.77
4566.4
4760.95
5297.37
5660.17
5645.28
4797.46
3710.74
3524.67
3572.14
4542.29
5530.35
5590.12
4529.7
3518.25
3521.87
3765.06
4058.65
5350.27
5647.98
4705.91
3571.29
3518.06
3527.76
4317.52
5507.41
5679.5
5367.16
4618.34
4079.26
4342.1
5145.43
5668.82
5679.24
5678.98
5599.49
5440.69
5557.91
5674.73
5678.92
5685.65
5682.06
5594.38
5482.89
5543.1
5668.52
5685.91
5686.01
5382.38
4901.14
4695.12
4839.4
5217.17
5643.47
5664.59
4933.36
3943.77
3504.74
3939.43
4726.39
5461.03
5622.14
4704.62
3467.6
3467.24
3495.44
4313.56
5332.36
5664.45
4850.06
3745.11
3464.85
3525.02
4476.63
5460.91
5686.67
5394.11
4741.22
4326.94
4483.69
5142.82
5665.5
5685.9
5685.29
5603.69
5466.13
5566.11
5683.19
5686.05
5688.7
5678.05
5513.98
5307.84
5423.92
5647.56
5688.55
5688.85
5311.32
4738.46
4614.96
4600.01
4935.2
5607.74
5662.96
4860.69
4274.71
4013.06
4433.75
4593.93
5310.51
5617.68
4700.02
3480.03
3403.52
3808.76
4419.9
5181.71
5663.85
4776.63
4015.13
3400.69
3681.82
4414
5361.04
5689.4
5364.41
4662.44
4327.6
4439.67
5072.63
5655.66
5689.18
5687.13
5597.8
5474.15
5561.66
5687.88
5689.03
5690.76
5667.98
5427.98
5146.82
5305.65
5615.05
5690.44
5690.16
5154.1
4227.59
3996.45
4028.42
4588.05
5565.09
5647.48
4533.87
4015.52
4052.64
3743.36
3996.33
5145.54
5599.66
4459.72
3453.84
3364.42
3797.48
4021.79
4948.54
5659.25
4531.55
3881.01
3329.44
3599.27
4051.87
5280.6
5690.75
5286
4385.1
4109.49
4194
4933.85
5648.91
5691.36
5687.79
5591.14
5472.72
5550.7
5689.15
5691.08
5696.46
5663.16
5395.55
5109.91
5259.85
5602.55
5696.39
5696
5089.31
3906.77
3568.61
3857.26
4484.5
5559.95
5646.61
4284.16
3331.23
3692.68
3267.71
3558.05
5103.8
5594.86
4159.47
3315.05
3282.53
3276.55
3333.58
4879.38
5667.37
4420.02
3470.47
3274.27
3301.92
3716.15
5279.94
5696.44
5274.14
4277.08
3931.78
4056
4923.49
5656.51
5696.91
5695.17
5610.86
5508.14
5571.59
5696.59
5697.02
5704.95
5665.28
5404.69
5134.71
5256.26
5612.62
5705.11
5705.03
5115.86
3888.54
3520.77
3856.57
4491.42
5588.1
5664.6
4278.96
3217.45
3213.11
3213.6
3506.19
5143.2
5610.38
4110.34
3213.19
3210.98
3208.05
3212.86
4919.9
5690.8
4469.23
3229.94
3210.1
3209.82
3684.56
5351.33
5705.13
5345.14
4385.32
4001.04
4128.14
5053.83
5678.6
5705.08
5705.15
5670
5607.63
5641.12
5705.71
5705.52
5713.67
5673.39
5441.83
5189.73
5270.45
5637.98
5714.06
5714.06
5212.82
3955.4
3602.35
3801.6
4565.66
5648.45
5693.92
4392.51
3192.87
3162.49
3156.73
3473.65
5264.78
5639.58
4168
3160.39
3154.3
3148.54
3155.12
5076.21
5712.96
4657.08
3198.99
3155.04
3152.44
3771.48
5486.98
5713.75
5492.32
4661.22
4245.02
4339.53
5265.8
5704.12
5713.43
5713.75
5712.23
5692.43
5701.29
5714.25
5713.86
5721.77
5683.43
5519.53
5294.67
5350.59
5679.07
5722.73
5722.57
5366.23
4166.9
3691.36
3790.35
4796.57
5705.4
5721.3
4655.04
3248.32
3597.41
3210.38
3568.37
5450.11
5683.17
4349.02
3187.12
3106.8
3106.39
3215.49
5346.99
5723.15
4984.59
3263.98
3101.24
3098.57
4111.62
5631.43
5722.11
5644.58
5013.13
4571.34
4636.75
5455.44
5721.68
5721.39
5722.15
5723.3
5723.42
5723.89
5723.14
5722.23
5727.24
5695.94
5627.58
5507.67
5535.4
5713.41
5728.43
5724.5
5546.44
4713.27
3955.36
4103.92
5242.44
5729.08
5729.4
5153.75
3490.56
3744.81
3618.37
4203.48
5647.37
5726.23
4778.81
3243.96
3682.89
4147.12
4193.36
5620.14
5729.16
5449.23
3691.41
3054.54
3219.17
4829.66
5719.12
5727.99
5723.96
5456.59
5033.48
5077.76
5625.26
5729.1
5727.02
5728.03
5729.25
5730.03
5729.9
5728.85
5727.8
5729.53
5703.49
5693.38
5685.19
5680.46
5722.99
5730.1
5717.84
5610.34
5403.58
4683.74
4925.6
5566.84
5731.17
5731.92
5651.97
4255.73
3647.38
3718.42
5187.17
5728.54
5732.21
5412.14
3488.92
4487.77
4565.12
5384.95
5728.77
5731.99
5722.06
4777.52
3116.49
3977.18
5518.79
5731.71
5721.85
5731.93
5718.69
5546.09
5528.42
5729.75
5730.81
5729.87
5730.19
5731.87
5731.99
5731.54
5730.32
5729.83
5726.17
5689.57
5677.31
5690.51
5675.79
5713.81
5727.58
5687.23
5371.86
5393.03
5193.59
5259.7
5516.01
5728.88
5609.06
5618.86
5073.66
3650.3
3785.84
5433.93
5717.98
5694.52
5622.89
4064.5
4062.73
4085.86
5556.44
5729.08
5616.08
5707.71
5532.59
4012.61
4687.26
5640.84
5718.88
5680.66
5559.45
5708.84
5682.23
5618.01
5624.34
5727.51
5727.81
5714.84
5673.86
5727
5699.02
5718.49
5728.27
5709.39
5556.84
5423.02
5362.78
5417.06
5632.26
5715.86
5523.78
4555.67
4042.16
4909.23
4843.02
4795.07
5669.57
5106.11
3948.93
4393.07
3635.15
3572.59
4997.6
5486.17
4916.28
5103.87
4304.69
2888.93
3056.55
5253.91
5410.32
5083.37
3996.45
4841.34
4537.79
4438.9
4951.82
5484.74
5499.1
4471.12
4582.13
5378.21
4705.4
4813.56
5658.65
5716.63
5585.56
5266.41
5123.61
5336.88
5618.91
5718.47
5681.27
5181.93
4529.45
4407.09
4650.25
5362.6
5699.62
5112.45
3202.62
2411.41
3282.61
3123.24
3535.25
5424.33
4026.38
2382.37
2515.68
2963.62
2623.49
3184.4
4757.3
3656.08
2585.38
4253.18
2345.38
2352.46
3568.6
4494.49
4012.12
2398.74
2860.13
4484.08
2830.54
2921.58
4723.32
5052.86
3051.62
2510.97
2851.33
2625.98
3397.56
5359.27
5692.53
5187.34
4317.34
3966.43
4371.5
5275.89
5700.93
5684.64
5067.92
4142.74
4052.28
4358.52
5257.24
5704.58
4988.99
2793.49
2324.12
2321.74
2321.97
3198.58
5311.35
3757.11
2323.8
2310.18
2305.34
2304.66
2321.7
4437.53
3478.4
2336.11
2565.18
2301.72
2303.4
2307.78
4143.54
3825.93
2337.97
2322.09
2615.94
2306.19
2335.14
4374.95
4966.55
2879.31
2348.22
2362.16
2336
3002.39
5214.72
5689.78
5082.02
4059.39
3669.18
4020.65
5117.75
5697.97
5721.5
5392.96
4777.68
4679.17
4933.7
5488.3
5731.54
5338.75
3544.52
2496.03
2474.97
2698.01
4006.84
5516.47
4558.24
2442.61
2272.4
2268.25
2267.76
2740.01
4974.36
4389.55
2456.63
2270.59
2268.06
2268.27
2527.83
4733.89
4692.56
2679.56
2279.19
2269.44
2268.25
2707.78
4929.63
5366.4
3855.03
2656.83
2378.03
2555.08
3818.3
5457.49
5721.88
5409.23
4759.26
4390.15
4686.53
5383.45
5724.24
5757.73
5724.84
5643.67
5621.96
5670.88
5732.22
5758.37
5715.98
5228.43
4292.34
4212.98
4658.56
5455.4
5734.6
5621.72
4213.77
2655.54
2449.84
2946.13
4726.8
5675.35
5606.15
4279.06
2694.24
2229.63
2525.56
4371.62
5630.52
5668.46
4543.39
2737.4
2354.38
2877.36
4676.45
5667.66
5731.01
5391.06
4333.15
3877.93
4412.79
5391.68
5726.87
5756.69
5727.17
5648.35
5554.44
5622.11
5711.96
5755.22
5673.74
5673.88
5672.99
5673.21
5673.38
5673.55
5673.71
5673.86
5672.18
5672.6
5672.92
5673.17
5673.36
5673.53
5673.7
5673.86
5672.34
5672.71
5673
5673.22
5673.4
5673.56
5673.72
5673.88
5672.54
5672.87
5673.12
5673.31
5673.47
5673.61
5673.76
5673.89
5672.89
5673.14
5673.3
5673.44
5673.57
5673.7
5673.82
5673.93
5678.6
5678.58
5678.57
5678.57
5678.6
5678.66
5678.75
5678.85
5678.68
5678.64
5678.6
5678.59
5678.6
5678.66
5678.76
5678.87
5678.8
5678.7
5678.63
5678.6
5678.61
5678.66
5678.77
5678.9
5678.7
5678.65
5678.62
5678.61
5678.62
5678.67
5678.78
5678.93
5678.83
5678.72
5678.67
5678.65
5678.65
5678.71
5678.82
5678.95
5678.75
5678.7
5678.68
5678.67
5678.69
5678.75
5678.86
5678.97
5678.75
5678.74
5678.72
5678.72
5678.75
5678.81
5678.9
5679.01
5685.1
5684.65
5684.31
5684.08
5683.94
5683.88
5683.9
5683.98
5685.75
5685.07
5684.58
5684.24
5684.04
5683.94
5683.95
5684.03
5686.43
5685.5
5684.84
5684.4
5684.13
5684
5684
5684.08
5686.73
5685.69
5684.97
5684.48
5684.19
5684.04
5684.04
5684.13
5686.49
5685.54
5684.89
5684.46
5684.19
5684.07
5684.07
5684.16
5685.82
5685.16
5684.69
5684.36
5684.17
5684.08
5684.1
5684.18
5685.31
5684.88
5684.53
5684.3
5684.15
5684.1
5684.13
5684.21
5688.45
5688.35
5688.29
5688.27
5688.29
5688.35
5688.44
5688.56
5688.59
5688.5
5688.42
5688.37
5688.36
5688.4
5688.49
5688.62
5688.77
5688.68
5688.54
5688.46
5688.42
5688.45
5688.54
5688.69
5689.03
5688.88
5688.68
5688.55
5688.49
5688.5
5688.6
5688.75
5689.14
5688.89
5688.71
5688.59
5688.54
5688.56
5688.65
5688.79
5688.94
5688.79
5688.67
5688.59
5688.57
5688.61
5688.7
5688.83
5688.88
5688.76
5688.66
5688.61
5688.6
5688.65
5688.74
5688.86
5691.16
5691.63
5692.04
5692.37
5692.65
5692.9
5693.12
5693.31
5690.74
5691.43
5691.94
5692.34
5692.65
5692.91
5693.16
5693.37
5690.42
5691.25
5691.84
5692.28
5692.63
5692.92
5693.19
5693.43
5690.46
5691.28
5691.86
5692.32
5692.66
5692.96
5693.24
5693.49
5690.84
5691.52
5692.04
5692.45
5692.77
5693.05
5693.31
5693.55
5691.18
5691.79
5692.25
5692.6
5692.89
5693.15
5693.39
5693.6
5691.68
5692.11
5692.45
5692.74
5692.99
5693.23
5693.45
5693.63
5696.97
5697.44
5697.84
5698.18
5698.46
5698.73
5698.98
5699.18
5696.69
5697.27
5697.74
5698.12
5698.43
5698.71
5698.99
5699.22
5696.54
5697.11
5697.62
5698.04
5698.38
5698.7
5699
5699.26
5696.6
5697.12
5697.62
5698.05
5698.41
5698.73
5699.04
5699.32
5696.81
5697.31
5697.77
5698.17
5698.5
5698.81
5699.11
5699.37
5697.04
5697.54
5697.97
5698.32
5698.63
5698.91
5699.19
5699.42
5697.39
5697.81
5698.16
5698.46
5698.74
5698.99
5699.24
5699.45
5705.06
5705.18
5705.29
5705.39
5705.49
5705.63
5705.82
5706
5705.12
5705.15
5705.23
5705.32
5705.44
5705.59
5705.8
5706
5705.3
5705.18
5705.21
5705.29
5705.41
5705.57
5705.79
5706.02
5705.48
5705.24
5705.25
5705.31
5705.42
5705.59
5705.81
5706.05
5705.51
5705.31
5705.3
5705.37
5705.48
5705.64
5705.86
5706.09
5705.34
5705.31
5705.36
5705.44
5705.55
5705.71
5705.92
5706.12
5705.29
5705.36
5705.44
5705.52
5705.62
5705.77
5705.96
5706.14
5713.46
5713.26
5713.04
5712.86
5712.74
5712.73
5712.81
5712.93
5713.68
5713.26
5712.97
5712.77
5712.66
5712.66
5712.75
5712.89
5713.93
5713.34
5712.99
5712.76
5712.63
5712.62
5712.73
5712.88
5713.95
5713.34
5712.99
5712.76
5712.63
5712.61
5712.72
5712.89
5713.8
5713.28
5712.95
5712.74
5712.63
5712.62
5712.73
5712.89
5713.51
5713.16
5712.9
5712.73
5712.64
5712.65
5712.76
5712.9
5713.3
5713.12
5712.93
5712.77
5712.68
5712.69
5712.79
5712.91
5721.53
5720.85
5720.23
5719.72
5719.36
5719.15
5719.1
5719.13
5722.14
5721.08
5720.29
5719.7
5719.31
5719.1
5719.04
5719.09
5722.79
5721.41
5720.46
5719.79
5719.33
5719.08
5719.02
5719.07
5723.08
5721.55
5720.52
5719.81
5719.34
5719.07
5719
5719.06
5722.54
5721.26
5720.35
5719.7
5719.27
5719.03
5718.97
5719.03
5721.77
5720.82
5720.09
5719.56
5719.19
5718.99
5718.95
5719.01
5721.13
5720.51
5719.95
5719.49
5719.16
5718.98
5718.95
5718.99
5727.11
5726.19
5725.39
5724.73
5724.24
5723.92
5723.75
5723.7
5727.9
5726.59
5725.58
5724.8
5724.25
5723.9
5723.72
5723.66
5728.65
5727.05
5725.86
5724.96
5724.32
5723.91
5723.7
5723.65
5728.89
5727.2
5725.93
5724.99
5724.33
5723.89
5723.68
5723.63
5728.36
5726.86
5725.7
5724.84
5724.22
5723.82
5723.63
5723.58
5727.41
5726.24
5725.3
5724.59
5724.07
5723.73
5723.57
5723.53
5726.55
5725.73
5725.01
5724.41
5723.96
5723.67
5723.53
5723.49
5729.31
5728.54
5727.87
5727.31
5726.87
5726.54
5726.32
5726.2
5729.96
5728.96
5728.13
5727.46
5726.94
5726.56
5726.31
5726.19
5730.46
5729.35
5728.39
5727.62
5727.03
5726.59
5726.31
5726.17
5730.54
5729.43
5728.45
5727.64
5727.02
5726.57
5726.28
5726.14
5730.3
5729.22
5728.28
5727.52
5726.93
5726.5
5726.22
5726.09
5729.65
5728.72
5727.93
5727.28
5726.77
5726.39
5726.15
5726.03
5728.89
5728.16
5727.53
5727
5726.59
5726.28
5726.08
5725.97
5728.29
5727.93
5727.64
5727.43
5727.25
5727.09
5726.94
5726.84
5728.73
5728.31
5727.94
5727.63
5727.36
5727.14
5726.95
5726.84
5729.01
5728.56
5728.1
5727.72
5727.4
5727.13
5726.93
5726.81
5729.04
5728.58
5728.1
5727.69
5727.36
5727.08
5726.88
5726.75
5728.96
5728.47
5728.01
5727.62
5727.29
5727.03
5726.82
5726.7
5728.61
5728.17
5727.77
5727.45
5727.17
5726.95
5726.76
5726.65
5728.06
5727.65
5727.35
5727.14
5726.97
5726.82
5726.67
5726.57
5722.49
5723.75
5724.74
5725.54
5726.12
5726.51
5726.73
5726.82
5721.21
5723.19
5724.51
5725.44
5726.07
5726.48
5726.71
5726.81
5720.06
5722.55
5724.1
5725.16
5725.88
5726.35
5726.62
5726.75
5719.43
5722.18
5723.83
5724.96
5725.73
5726.23
5726.53
5726.67
5719.74
5722.28
5723.88
5724.98
5725.72
5726.2
5726.48
5726.62
5720.74
5722.79
5724.17
5725.13
5725.8
5726.23
5726.48
5726.59
5722.09
5723.35
5724.36
5725.18
5725.79
5726.2
5726.42
5726.52
5720.47
5722.92
5724.87
5726.42
5727.62
5728.5
5729.11
5729.5
5717.84
5721.43
5724.01
5725.91
5727.31
5728.32
5729.02
5729.47
5715.83
5720.08
5723.09
5725.3
5726.91
5728.08
5728.88
5729.4
5714.86
5719.45
5722.65
5724.98
5726.69
5727.92
5728.76
5729.32
5715.29
5719.75
5722.85
5725.11
5726.75
5727.94
5728.76
5729.29
5717.36
5721.06
5723.69
5725.64
5727.08
5728.12
5728.83
5729.3
5720.07
5722.58
5724.56
5726.14
5727.36
5728.26
5728.88
5729.28
5730.85
5732.31
5733.51
5734.5
5735.33
5736.05
5736.65
5737.08
5729.66
5731.34
5732.8
5734.01
5735.01
5735.85
5736.55
5737.05
5729.04
5730.6
5732.19
5733.56
5734.7
5735.66
5736.45
5737.03
5728.65
5730.28
5731.93
5733.37
5734.56
5735.56
5736.39
5737.01
5728.99
5730.55
5732.13
5733.51
5734.66
5735.62
5736.42
5737.01
5729.66
5731.26
5732.71
5733.93
5734.94
5735.8
5736.51
5737.03
5730.69
5732.13
5733.36
5734.39
5735.25
5735.98
5736.6
5737.05
5747.91
5747.47
5747.1
5746.84
5746.75
5746.84
5747.09
5747.37
5748.62
5747.53
5746.94
5746.64
5746.58
5746.72
5747.01
5747.34
5749.58
5747.88
5747.06
5746.68
5746.58
5746.71
5747.03
5747.4
5750.01
5748.08
5747.17
5746.73
5746.61
5746.73
5747.05
5747.44
5749.85
5748.05
5747.18
5746.76
5746.65
5746.77
5747.09
5747.46
5748.9
5747.7
5747.08
5746.78
5746.71
5746.84
5747.13
5747.46
5747.91
5747.45
5747.14
5746.92
5746.86
5746.97
5747.23
5747.52
5760.43
5759.08
5757.89
5756.93
5756.28
5755.95
5755.87
5755.98
5761.61
5759.45
5757.92
5756.87
5756.22
5755.9
5755.85
5755.97
5762.94
5760.25
5758.38
5757.13
5756.36
5755.97
5755.91
5756.04
5763.73
5760.74
5758.71
5757.33
5756.48
5756.05
5755.97
5756.1
5763.17
5760.47
5758.57
5757.29
5756.49
5756.07
5756.01
5756.14
5761.87
5759.71
5758.16
5757.09
5756.41
5756.07
5756.02
5756.14
5760.53
5759.2
5758.05
5757.12
5756.5
5756.18
5756.13
5756.23
5678.98
5678.92
5678.87
5678.84
5678.84
5678.88
5678.96
5679.05
5679.1
5678.95
5678.86
5678.81
5678.8
5678.83
5678.92
5679.02
5679.3
5679.03
5678.88
5678.8
5678.77
5678.8
5678.88
5679
5679.33
5679.03
5678.87
5678.78
5678.76
5678.78
5678.87
5678.98
5679.2
5678.96
5678.83
5678.76
5678.74
5678.77
5678.85
5678.95
5678.96
5678.83
5678.76
5678.72
5678.72
5678.76
5678.83
5678.92
5678.75
5678.69
5678.68
5678.68
5678.7
5678.74
5678.81
5678.89
5685.16
5684.75
5684.44
5684.23
5684.1
5684.06
5684.09
5684.15
5685.62
5684.99
5684.55
5684.26
5684.09
5684.02
5684.04
5684.11
5686.17
5685.29
5684.71
5684.33
5684.1
5684
5684.01
5684.09
5686.36
5685.4
5684.76
5684.34
5684.09
5683.98
5683.97
5684.06
5686.06
5685.22
5684.65
5684.27
5684.05
5683.94
5683.93
5684.01
5685.48
5684.86
5684.43
5684.15
5683.97
5683.89
5683.89
5683.95
5684.91
5684.5
5684.21
5684.02
5683.9
5683.85
5683.86
5683.92
5688.91
5688.75
5688.64
5688.59
5688.59
5688.63
5688.71
5688.82
5689.04
5688.8
5688.65
5688.57
5688.54
5688.58
5688.66
5688.78
5689.28
5688.91
5688.69
5688.56
5688.51
5688.53
5688.61
5688.74
5689.31
5688.92
5688.67
5688.53
5688.47
5688.48
5688.56
5688.69
5689
5688.74
5688.56
5688.45
5688.4
5688.42
5688.49
5688.62
5688.7
5688.54
5688.43
5688.36
5688.34
5688.37
5688.44
5688.55
5688.46
5688.35
5688.29
5688.27
5688.28
5688.33
5688.4
5688.5
5691.85
5692.22
5692.52
5692.79
5693.02
5693.23
5693.43
5693.6
5691.44
5691.94
5692.34
5692.66
5692.92
5693.15
5693.37
5693.56
5691.17
5691.73
5692.17
5692.53
5692.81
5693.06
5693.3
5693.51
5690.94
5691.57
5692.05
5692.42
5692.72
5692.98
5693.22
5693.44
5690.84
5691.51
5692
5692.37
5692.67
5692.93
5693.16
5693.37
5691.03
5691.62
5692.06
5692.4
5692.67
5692.9
5693.12
5693.31
5691.3
5691.73
5692.1
5692.42
5692.67
5692.89
5693.09
5693.26
5697.36
5697.77
5698.1
5698.4
5698.66
5698.9
5699.14
5699.33
5696.97
5697.47
5697.9
5698.25
5698.55
5698.82
5699.08
5699.29
5696.71
5697.25
5697.72
5698.11
5698.44
5698.73
5699.01
5699.25
5696.51
5697.09
5697.6
5698.01
5698.35
5698.65
5698.94
5699.19
5696.48
5697.07
5697.58
5697.99
5698.32
5698.62
5698.9
5699.14
5696.64
5697.21
5697.67
5698.04
5698.35
5698.63
5698.88
5699.1
5696.91
5697.37
5697.77
5698.11
5698.4
5698.65
5698.89
5699.08
5705.03
5705.14
5705.23
5705.31
5705.41
5705.55
5705.73
5705.9
5704.94
5705
5705.09
5705.2
5705.33
5705.48
5705.67
5705.86
5705.01
5704.97
5705.03
5705.13
5705.26
5705.42
5705.62
5705.83
5705
5704.93
5705
5705.09
5705.22
5705.38
5705.59
5705.8
5704.94
5704.91
5704.98
5705.09
5705.22
5705.38
5705.58
5705.79
5704.85
5704.91
5705.01
5705.12
5705.25
5705.41
5705.6
5705.79
5704.86
5704.99
5705.11
5705.21
5705.33
5705.47
5705.64
5705.81
5713.01
5712.83
5712.63
5712.46
5712.37
5712.36
5712.45
5712.56
5713.1
5712.77
5712.53
5712.37
5712.29
5712.29
5712.39
5712.52
5713.37
5712.9
5712.59
5712.38
5712.27
5712.26
5712.36
5712.5
5713.54
5712.99
5712.65
5712.42
5712.29
5712.27
5712.36
5712.51
5713.52
5712.98
5712.64
5712.43
5712.31
5712.3
5712.39
5712.53
5713.29
5712.9
5712.62
5712.45
5712.35
5712.35
5712.44
5712.57
5713.15
5712.95
5712.74
5712.57
5712.47
5712.45
5712.53
5712.63
5720.53
5719.98
5719.46
5719.01
5718.7
5718.53
5718.5
5718.54
5720.85
5720.06
5719.44
5718.97
5718.65
5718.48
5718.45
5718.5
5721.36
5720.35
5719.6
5719.06
5718.69
5718.48
5718.44
5718.5
5721.69
5720.54
5719.74
5719.15
5718.75
5718.53
5718.48
5718.53
5721.55
5720.48
5719.72
5719.16
5718.78
5718.57
5718.52
5718.58
5721.16
5720.29
5719.63
5719.15
5718.81
5718.63
5718.59
5718.63
5720.83
5720.27
5719.73
5719.27
5718.94
5718.76
5718.71
5718.74
5725.96
5725.2
5724.52
5723.94
5723.51
5723.23
5723.1
5723.07
5726.5
5725.46
5724.63
5723.99
5723.53
5723.23
5723.08
5723.05
5727.16
5725.89
5724.91
5724.18
5723.64
5723.28
5723.11
5723.07
5727.49
5726.12
5725.08
5724.3
5723.73
5723.36
5723.17
5723.12
5727.34
5726.05
5725.06
5724.31
5723.76
5723.4
5723.22
5723.17
5726.88
5725.78
5724.91
5724.25
5723.76
5723.44
5723.28
5723.23
5726.43
5725.65
5724.92
5724.3
5723.84
5723.54
5723.38
5723.34
5728.86
5728.05
5727.34
5726.77
5726.33
5726.01
5725.8
5725.69
5729.65
5728.58
5727.7
5727
5726.47
5726.08
5725.83
5725.71
5730.31
5729.07
5728.06
5727.25
5726.62
5726.16
5725.87
5725.74
5730.53
5729.28
5728.22
5727.38
5726.72
5726.24
5725.93
5725.79
5730.43
5729.2
5728.18
5727.38
5726.75
5726.28
5725.98
5725.84
5729.93
5728.85
5727.95
5727.25
5726.7
5726.29
5726.03
5725.9
5729.34
5728.52
5727.77
5727.16
5726.68
5726.33
5726.1
5725.98
5727.77
5727.36
5727.04
5726.84
5726.67
5726.53
5726.41
5726.32
5728.21
5727.82
5727.43
5727.1
5726.84
5726.62
5726.45
5726.36
5728.43
5728.08
5727.63
5727.24
5726.92
5726.66
5726.46
5726.35
5728.56
5728.22
5727.73
5727.33
5726.99
5726.71
5726.5
5726.39
5728.67
5728.26
5727.78
5727.38
5727.05
5726.77
5726.57
5726.45
5728.55
5728.12
5727.71
5727.35
5727.07
5726.82
5726.64
5726.52
5728.3
5727.87
5727.51
5727.24
5727.03
5726.84
5726.69
5726.59
5721.19
5722.68
5723.82
5724.74
5725.43
5725.9
5726.18
5726.31
5719.3
5721.84
5723.47
5724.6
5725.38
5725.88
5726.18
5726.34
5717.79
5721.06
5723.01
5724.31
5725.19
5725.76
5726.1
5726.28
5717.31
5720.87
5722.87
5724.23
5725.14
5725.74
5726.1
5726.29
5718.15
5721.31
5723.18
5724.44
5725.29
5725.84
5726.17
5726.34
5719.82
5722.24
5723.78
5724.84
5725.56
5726.03
5726.31
5726.44
5721.72
5723.17
5724.26
5725.12
5725.74
5726.16
5726.4
5726.5
5719.81
5722.34
5724.35
5725.98
5727.24
5728.18
5728.85
5729.28
5717.05
5720.85
5723.52
5725.51
5726.97
5728.04
5728.79
5729.28
5702.03
5719.4
5722.57
5724.87
5726.55
5727.78
5728.63
5729.2
5656.04
5718.9
5722.22
5724.63
5726.4
5727.68
5728.58
5729.17
5701.71
5719.6
5722.69
5724.94
5726.61
5727.81
5728.66
5729.22
5717.29
5720.96
5723.62
5725.59
5727.04
5728.09
5728.81
5729.29
5720.07
5722.6
5724.57
5726.16
5727.39
5728.3
5728.93
5729.34
5731.08
5732.41
5733.58
5734.57
5735.42
5736.15
5736.78
5737.25
5730.22
5731.63
5733
5734.17
5735.15
5735.99
5736.71
5737.24
5710.06
5730.94
5732.38
5733.7
5734.82
5735.77
5736.58
5737.19
5636.49
5730.59
5732.11
5733.5
5734.68
5735.67
5736.51
5737.15
5705.35
5730.86
5732.34
5733.66
5734.79
5735.73
5736.53
5737.12
5729.91
5731.43
5732.85
5734.05
5735.05
5735.89
5736.6
5737.11
5730.81
5732.2
5733.42
5734.45
5735.32
5736.05
5736.65
5737.1
5748.61
5748.05
5747.61
5747.3
5747.18
5747.27
5747.53
5747.82
5749.66
5748.32
5747.6
5747.21
5747.07
5747.17
5747.46
5747.8
5750.76
5748.7
5747.71
5747.21
5747.04
5747.12
5747.42
5747.79
5738.94
5748.8
5747.73
5747.19
5747
5747.07
5747.38
5747.76
5750.57
5748.59
5747.6
5747.12
5746.94
5747.02
5747.32
5747.69
5749.31
5748.02
5747.33
5746.97
5746.85
5746.96
5747.24
5747.57
5748.12
5747.61
5747.24
5746.98
5746.89
5746.99
5747.23
5747.51
5761.13
5759.71
5758.49
5757.51
5756.85
5756.51
5756.46
5756.56
5762.47
5760.28
5758.67
5757.55
5756.83
5756.47
5756.42
5756.54
5763.94
5761.08
5759.13
5757.79
5756.94
5756.5
5756.43
5756.55
5764.55
5761.44
5759.34
5757.9
5756.97
5756.5
5756.39
5756.52
5763.86
5761.01
5759.05
5757.7
5756.84
5756.4
5756.31
5756.43
5762.22
5760.01
5758.4
5757.29
5756.6
5756.25
5756.19
5756.31
5760.76
5759.36
5758.15
5757.19
5756.55
5756.21
5756.15
5756.25
5678.86
5678.81
5678.75
5678.71
5678.71
5678.74
5678.81
5678.88
5678.86
5678.77
5678.71
5678.67
5678.67
5678.7
5678.76
5678.85
5679.08
5678.87
5678.75
5678.68
5678.65
5678.67
5678.74
5678.84
5679.07
5678.86
5678.73
5678.66
5678.63
5678.64
5678.71
5678.82
5678.94
5678.79
5678.69
5678.63
5678.61
5678.63
5678.7
5678.81
5678.75
5678.68
5678.63
5678.6
5678.6
5678.63
5678.71
5678.82
5678.64
5678.61
5678.6
5678.59
5678.6
5678.65
5678.73
5678.83
5685.01
5684.61
5684.28
5684.05
5683.91
5683.84
5683.85
5683.91
5685.47
5684.85
5684.41
5684.11
5683.93
5683.83
5683.83
5683.89
5686.08
5685.22
5684.63
5684.23
5683.98
5683.85
5683.83
5683.89
5686.38
5685.42
5684.75
5684.3
5684.01
5683.86
5683.84
5683.9
5686.22
5685.32
5684.69
5684.27
5684
5683.86
5683.84
5683.9
5685.67
5684.99
5684.5
5684.17
5683.96
5683.85
5683.85
5683.91
5685.15
5684.69
5684.34
5684.09
5683.94
5683.87
5683.88
5683.95
5688.54
5688.43
5688.34
5688.29
5688.28
5688.31
5688.39
5688.48
5688.65
5688.48
5688.36
5688.3
5688.27
5688.29
5688.36
5688.46
5688.88
5688.61
5688.43
5688.32
5688.27
5688.28
5688.35
5688.46
5688.93
5688.65
5688.44
5688.32
5688.27
5688.27
5688.34
5688.46
5688.7
5688.53
5688.39
5688.3
5688.26
5688.27
5688.34
5688.46
5688.54
5688.41
5688.32
5688.27
5688.26
5688.29
5688.36
5688.48
5688.48
5688.38
5688.3
5688.27
5688.28
5688.32
5688.41
5688.52
5691.34
5691.78
5692.12
5692.41
5692.66
5692.87
5693.07
5693.24
5690.84
5691.47
5691.94
5692.3
5692.58
5692.81
5693.03
5693.21
5690.44
5691.18
5691.74
5692.16
5692.48
5692.75
5692.99
5693.19
5690.1
5690.99
5691.61
5692.08
5692.43
5692.71
5692.96
5693.19
5690.24
5691.06
5691.66
5692.11
5692.45
5692.73
5692.98
5693.2
5690.61
5691.31
5691.83
5692.23
5692.54
5692.79
5693.02
5693.23
5691.18
5691.67
5692.05
5692.36
5692.63
5692.87
5693.09
5693.27
5696.94
5697.4
5697.78
5698.1
5698.38
5698.63
5698.86
5699.05
5696.5
5697.11
5697.6
5697.98
5698.3
5698.57
5698.82
5699.04
5696.24
5696.88
5697.43
5697.86
5698.2
5698.51
5698.79
5699.03
5696.09
5696.77
5697.35
5697.8
5698.17
5698.49
5698.78
5699.04
5696.37
5696.94
5697.45
5697.88
5698.23
5698.53
5698.82
5699.07
5696.62
5697.18
5697.65
5698.03
5698.34
5698.62
5698.88
5699.11
5697
5697.48
5697.86
5698.17
5698.45
5698.7
5698.95
5699.16
5704.87
5705
5705.1
5705.21
5705.32
5705.46
5705.63
5705.79
5704.81
5704.92
5705.03
5705.15
5705.28
5705.43
5705.61
5705.79
5704.97
5704.95
5705.02
5705.12
5705.24
5705.4
5705.6
5705.8
5705.14
5705
5705.04
5705.14
5705.26
5705.42
5705.63
5705.84
5705.2
5705.07
5705.11
5705.2
5705.31
5705.47
5705.68
5705.89
5705.09
5705.11
5705.19
5705.28
5705.39
5705.54
5705.74
5705.93
5705.11
5705.24
5705.32
5705.39
5705.49
5705.63
5705.81
5705.98
5713.13
5712.94
5712.74
5712.58
5712.48
5712.47
5712.54
5712.65
5713.37
5713.02
5712.76
5712.58
5712.48
5712.47
5712.54
5712.66
5713.81
5713.24
5712.88
5712.65
5712.51
5712.48
5712.56
5712.69
5714.12
5713.4
5712.98
5712.72
5712.57
5712.53
5712.61
5712.75
5714.09
5713.41
5713.01
5712.76
5712.61
5712.58
5712.67
5712.81
5713.75
5713.29
5712.99
5712.78
5712.66
5712.65
5712.74
5712.86
5713.54
5713.32
5713.08
5712.87
5712.75
5712.73
5712.81
5712.92
5720.81
5720.25
5719.73
5719.29
5718.97
5718.79
5718.74
5718.77
5721.39
5720.55
5719.88
5719.38
5719.03
5718.83
5718.77
5718.8
5722.17
5721
5720.17
5719.56
5719.14
5718.89
5718.82
5718.86
5722.7
5721.29
5720.36
5719.69
5719.24
5718.97
5718.89
5718.93
5722.74
5721.33
5720.39
5719.73
5719.28
5719.02
5718.95
5718.99
5722.12
5721.05
5720.27
5719.69
5719.3
5719.08
5719.01
5719.05
5721.57
5720.9
5720.27
5719.74
5719.36
5719.15
5719.09
5719.12
5726.37
5725.6
5724.9
5724.31
5723.87
5723.57
5723.42
5723.37
5727.15
5726.06
5725.18
5724.49
5723.99
5723.65
5723.47
5723.41
5728.03
5726.62
5725.56
5724.75
5724.15
5723.75
5723.54
5723.48
5728.56
5726.94
5725.78
5724.9
5724.26
5723.83
5723.61
5723.54
5728.5
5726.91
5725.76
5724.9
5724.27
5723.86
5723.65
5723.59
5727.82
5726.52
5725.52
5724.77
5724.22
5723.87
5723.69
5723.63
5727.09
5726.23
5725.42
5724.74
5724.24
5723.91
5723.74
5723.68
5729.22
5728.41
5727.71
5727.13
5726.68
5726.34
5726.11
5725.99
5730.04
5728.99
5728.12
5727.41
5726.86
5726.45
5726.18
5726.04
5730.66
5729.46
5728.46
5727.65
5727.02
5726.55
5726.24
5726.09
5730.82
5729.61
5728.59
5727.75
5727.09
5726.6
5726.28
5726.12
5730.56
5729.42
5728.46
5727.68
5727.06
5726.61
5726.3
5726.15
5729.98
5728.99
5728.16
5727.48
5726.96
5726.57
5726.31
5726.17
5729.33
5728.58
5727.9
5727.32
5726.87
5726.53
5726.31
5726.18
5728.17
5727.75
5727.45
5727.22
5727.03
5726.86
5726.71
5726.61
5728.71
5728.27
5727.86
5727.52
5727.23
5726.98
5726.79
5726.67
5729.03
5728.54
5728.06
5727.66
5727.32
5727.04
5726.82
5726.69
5729.02
5728.62
5728.15
5727.73
5727.37
5727.09
5726.86
5726.73
5728.95
5728.55
5728.11
5727.72
5727.39
5727.12
5726.9
5726.77
5728.73
5728.34
5727.96
5727.63
5727.36
5727.12
5726.93
5726.81
5728.34
5727.94
5727.64
5727.42
5727.24
5727.07
5726.92
5726.81
5721.66
5723.11
5724.23
5725.12
5725.76
5726.19
5726.43
5726.54
5720.22
5722.55
5724.04
5725.07
5725.77
5726.22
5726.48
5726.6
5719.13
5721.97
5723.69
5724.86
5725.65
5726.16
5726.46
5726.6
5719.01
5721.94
5723.68
5724.86
5725.65
5726.18
5726.49
5726.64
5719.8
5722.38
5723.98
5725.06
5725.8
5726.28
5726.56
5726.7
5721.11
5723.14
5724.46
5725.38
5726.02
5726.44
5726.67
5726.78
5722.53
5723.72
5724.68
5725.48
5726.08
5726.47
5726.69
5726.78
5720.03
5722.56
5724.57
5726.18
5727.42
5728.33
5728.96
5729.36
5717.45
5721.15
5723.78
5725.74
5727.18
5728.21
5728.93
5729.4
5715.51
5719.87
5722.94
5725.18
5726.82
5728
5728.82
5729.35
5715.08
5719.6
5722.72
5725.02
5726.72
5727.95
5728.8
5729.36
5716.04
5720.21
5723.15
5725.32
5726.92
5728.08
5728.87
5729.4
5717.91
5721.46
5724.01
5725.91
5727.31
5728.32
5729.01
5729.47
5720.45
5722.86
5724.78
5726.35
5727.57
5728.47
5729.08
5729.47
5730.8
5732.19
5733.41
5734.44
5735.31
5736.05
5736.65
5737.09
5729.86
5731.4
5732.83
5734.04
5735.03
5735.87
5736.58
5737.09
5729.12
5730.72
5732.25
5733.6
5734.74
5735.69
5736.48
5737.06
5726.89
5730.47
5732.04
5733.44
5734.63
5735.61
5736.44
5737.05
5729.24
5730.74
5732.28
5733.63
5734.76
5735.69
5736.48
5737.05
5729.74
5731.4
5732.84
5734.05
5735.04
5735.87
5736.56
5737.05
5730.81
5732.23
5733.44
5734.46
5735.31
5736.04
5736.64
5737.07
5748.1
5747.58
5747.19
5746.93
5746.86
5746.95
5747.2
5747.47
5749.14
5747.86
5747.18
5746.83
5746.72
5746.83
5747.12
5747.44
5750.07
5748.19
5747.29
5746.84
5746.69
5746.8
5747.09
5747.44
5750.18
5748.2
5747.26
5746.81
5746.66
5746.76
5747.07
5747.43
5749.74
5747.99
5747.16
5746.76
5746.63
5746.74
5747.04
5747.38
5748.7
5747.6
5747.01
5746.7
5746.62
5746.74
5747.02
5747.33
5747.82
5747.41
5747.08
5746.83
5746.73
5746.83
5747.07
5747.34
5760.73
5759.31
5758.09
5757.13
5756.5
5756.16
5756.1
5756.19
5762.09
5759.85
5758.24
5757.13
5756.43
5756.07
5756.02
5756.13
5763.52
5760.66
5758.71
5757.38
5756.54
5756.11
5756.02
5756.13
5764.07
5760.96
5758.87
5757.45
5756.56
5756.09
5755.99
5756.09
5763.18
5760.46
5758.55
5757.25
5756.43
5756
5755.92
5756.02
5761.71
5759.58
5758.02
5756.94
5756.25
5755.9
5755.84
5755.94
5760.39
5759.04
5757.88
5756.93
5756.28
5755.94
5755.88
5755.96
5672.81
5673.03
5673.23
5673.41
5673.55
5673.69
5673.82
5673.93
5672.7
5673.01
5673.24
5673.43
5673.56
5673.7
5673.83
5673.95
5672.54
5672.91
5673.17
5673.38
5673.54
5673.69
5673.84
5673.97
5672.57
5672.92
5673.19
5673.4
5673.57
5673.72
5673.87
5674
5673.31
5673.46
5673.6
5673.76
5673.91
5674.04
5673.95
5674.08
5678.67
5678.64
5678.65
5678.68
5678.73
5678.8
5678.9
5679
5678.93
5678.83
5678.79
5678.76
5678.77
5678.83
5678.92
5679.02
5679.13
5678.95
5678.85
5678.8
5678.79
5678.83
5678.93
5679.05
5679.29
5679.04
5678.91
5678.84
5678.83
5678.86
5678.95
5679.07
5679.35
5679.09
5678.92
5678.85
5678.85
5678.89
5678.98
5679.09
5679.14
5679
5678.91
5678.85
5678.84
5678.89
5679
5679.1
5678.96
5678.88
5678.84
5678.82
5678.84
5678.89
5678.97
5679.06
5685.2
5684.75
5684.45
5684.25
5684.13
5684.09
5684.13
5684.2
5685.87
5685.19
5684.72
5684.4
5684.21
5684.13
5684.15
5684.22
5686.46
5685.54
5684.92
5684.52
5684.27
5684.16
5684.16
5684.24
5686.66
5685.67
5685.01
5684.57
5684.3
5684.18
5684.17
5684.25
5686.38
5685.5
5684.89
5684.51
5684.27
5684.17
5684.17
5684.24
5685.75
5685.11
5684.67
5684.38
5684.21
5684.13
5684.15
5684.22
5685.15
5684.72
5684.42
5684.22
5684.12
5684.08
5684.11
5684.18
5688.79
5688.67
5688.6
5688.58
5688.6
5688.66
5688.75
5688.87
5689.08
5688.89
5688.75
5688.67
5688.65
5688.68
5688.77
5688.89
5689.4
5689.09
5688.87
5688.74
5688.68
5688.7
5688.79
5688.91
5689.68
5689.24
5688.95
5688.79
5688.71