/*--------------------------------*- C++ -*----------------------------------*\
| =========                 |                                                 |
| \\      /  F ield         | OpenFOAM: The Open Source CFD Toolbox           |
|  \\    /   O peration     | Version:  plus.master.MPPICInterFoam            |
|   \\  /    A nd           | Web:      www.OpenFOAM.com                      |
|    \\/     M anipulation  |                                                 |
\*---------------------------------------------------------------------------*/
FoamFile
{
    version     2.0;
    format      ascii;
    class       scalarField;
    location    "3.4/lagrangian/kinematicCloud";
    object      age;
}
// * * * * * * * * * * * * * * * * * * * * * * * * * * * * * * * * * * * * * //


2103
(
3.3577
3.30037
3.29015
3.39885
3.38975
3.38815
3.32528
3.33827
3.28081
3.18643
3.27457
3.32845
3.26201
3.34308
3.36504
3.17886
3.33131
3.37898
3.26876
3.2711
3.11612
3.27232
3.26963
3.38526
3.36383
3.38492
3.05611
3.29302
3.36197
3.39125
3.33022
3.36848
3.27256
2.99228
3.39195
3.3318
3.34367
3.38169
3.32085
3.34692
3.35616
3.38483
3.19766
3.34335
3.3771
3.36463
3.24984
3.3184
3.1232
3.23995
3.26879
3.17171
3.35002
3.36402
3.1495
3.27984
3.09948
3.1596
3.05725
3.30223
3.27843
3.22376
3.35683
3.2535
3.31252
3.31247
3.2949
3.30017
3.37273
3.35301
3.31262
3.32474
3.29151
3.23313
3.21034
3.39616
3.3957
3.32433
3.20212
3.32757
3.197
3.35588
3.16165
3.0346
3.26659
3.22948
3.29653
2.94678
3.36651
3.26732
3.34022
3.32531
3.2694
3.19083
3.17186
3.12472
3.3194
3.39571
3.34599
3.24299
3.30798
3.20619
3.36931
3.20579
3.23697
3.27836
3.28266
3.08461
3.37647
3.31854
3.35663
3.34695
3.31206
3.37332
3.11785
3.22242
3.25174
3.22835
3.18127
3.1339
3.28837
3.18155
3.35745
3.27887
2.97038
3.37049
3.32588
3.32017
3.2705
3.28863
3.38772
3.31857
3.07767
3.23174
3.14436
3.39903
3.39058
3.32763
3.37091
2.96558
3.34064
3.22064
3.25922
3.24447
3.32733
3.30995
3.39847
3.20553
3.16506
3.29102
3.25951
3.19101
3.39125
3.36268
3.29374
3.37968
3.33412
3.28794
3.39013
3.06799
3.11493
3.35618
3.25956
3.31957
3.24897
3.36485
3.24008
3.39051
3.14484
3.17148
3.29823
3.20932
3.39888
3.34378
3.33699
3.28657
3.27591
3.38552
3.13672
3.37887
3.35693
3.38206
3.29551
3.21313
3.23926
3.37171
3.08474
3.09621
3.32134
3.31619
3.26997
3.22976
3.16812
3.14497
3.39808
3.25538
3.35441
3.31774
3.29926
3.3982
3.35713
3.28833
3.18347
3.33755
3.38888
3.38491
3.36538
3.36218
3.3337
3.27739
3.0585
3.37075
3.34739
3.26421
3.32007
2.98118
3.18314
3.3561
3.35156
3.3962
3.37778
3.31604
3.22947
3.23939
3.39374
3.21769
3.39063
3.36389
3.38893
3.10267
3.31871
3.19075
3.3937
3.39394
3.13446
3.40089
3.18288
3.03934
3.25908
3.28685
3.19538
3.37313
3.28824
3.23918
3.15578
3.31723
3.27281
3.25048
3.24547
3.02857
3.25428
2.96196
3.3917
3.29239
3.37571
3.35096
3.26907
3.36708
3.39423
3.39583
3.3561
3.34932
3.25905
3.23592
3.28842
3.34776
3.17344
3.30153
3.12404
3.02579
3.2991
3.09949
3.26374
3.16575
3.33156
3.2342
3.36407
3.32772
3.31762
3.3711
3.27899
3.17269
3.35975
3.29948
3.27083
3.23918
3.20805
3.37209
3.2098
3.17152
3.38817
3.30773
3.25762
3.34704
3.37456
3.01911
3.36495
3.27375
3.18263
3.09641
2.9757
3.24401
3.35046
3.32777
3.15015
3.36513
3.30781
3.29991
3.27866
3.27324
3.23956
3.17445
3.33455
3.2788
3.15342
3.01121
3.36975
3.24897
3.22067
3.33011
3.38668
3.35959
3.1641
3.01605
3.3814
3.37979
3.37036
3.24475
3.24898
3.23919
3.38506
3.2531
3.31824
3.23019
3.31925
3.27393
3.26949
3.17376
3.35801
3.27367
3.29803
3.28623
3.20197
3.32732
3.23972
3.19048
3.17389
3.37614
3.14492
3.3484
3.29827
2.93635
3.35092
3.27443
3.10736
2.91528
3.3989
3.39236
3.24992
3.3819
3.15318
3.3813
3.37657
2.93944
3.39833
3.14413
3.09849
3.35638
3.32738
3.28957
3.28896
3.3372
3.22288
3.18231
3.31004
3.39377
3.39145
3.33795
3.33576
3.25277
2.9675
3.1367
3.32979
3.26861
3.24208
3.22051
3.39166
3.18348
3.13082
3.38403
3.3478
3.33109
3.19048
3.29362
3.34457
3.33414
3.33299
3.3741
3.39137
3.32768
3.23128
3.3781
3.30921
3.28867
3.28942
3.35734
3.27268
3.19086
3.39367
3.32139
3.36518
3.32951
3.29829
3.23938
3.01945
2.84869
3.2828
3.381
3.30888
3.344
3.33953
3.26875
3.17273
3.38878
3.29914
3.27854
3.36542
3.07477
3.34437
3.25421
3.27932
3.23084
3.30435
3.08272
3.35715
3.22939
3.39608
3.2982
3.35132
3.34325
3.32314
3.3598
3.3543
3.34696
3.33819
3.191
3.0703
3.38604
3.23666
3.3471
3.33151
3.28939
3.27857
3.22225
3.40019
2.99119
3.3562
3.26155
3.38089
3.26865
3.20911
3.26176
3.28854
3.23971
3.22498
3.24991
3.08187
3.34691
3.15271
3.31983
3.21965
3.32262
3.2714
3.26875
3.21961
2.85016
3.39456
3.3639
3.34863
3.22077
3.05825
3.27884
3.36681
3.36569
3.30965
3.28139
3.16196
3.38549
3.33009
3.06999
3.2874
3.18805
3.35603
3.37045
3.23019
3.34694
3.39811
3.38357
3.30816
3.24712
3.1056
2.98519
3.0381
3.36391
3.15173
3.34561
3.39197
3.27073
3.26773
3.1289
3.38856
3.34026
3.15323
3.14914
3.30659
3.20749
3.22075
3.3347
3.36906
3.37278
3.3644
3.31192
3.15281
3.36721
3.17496
3.0286
3.2683
3.20044
3.2592
3.35654
3.32778
3.2736
3.24019
3.33977
3.30234
3.18785
3.2003
3.00025
3.31416
3.2688
3.12519
3.40017
3.23967
3.33541
3.2498
3.1911
3.34739
3.33868
3.22529
3.36865
3.24168
3.38092
3.29401
3.31768
3.09059
3.35439
3.28843
3.16613
3.36831
3.28157
3.18354
3.28734
3.39893
3.37045
3.26383
3.36437
3.14296
3.08828
3.35861
3.33808
3.37028
3.39908
3.0291
3.39389
3.36903
3.33738
3.17789
3.16717
3.32004
3.3639
3.30816
3.28111
3.27847
3.13366
3.35453
3.39271
3.20302
3.32251
3.2204
3.4
3.19793
3.19574
3.38959
3.21393
3.26006
3.32614
3.37677
3.37281
3.19794
3.18104
3.36731
3.0517
3.03891
3.39896
3.27196
3.38834
3.09016
3.21751
3.18522
3.12383
3.38896
3.37665
3.30111
3.37856
3.31766
3.37623
3.3584
3.25562
3.30085
3.25145
3.15239
3.12726
3.30999
3.31065
3.32739
3.39935
3.29395
3.39129
3.33759
3.33402
3.31067
3.00853
2.95508
3.37632
3.38912
3.34808
3.05255
3.34727
3.0362
3.34747
3.14478
3.30775
3.23941
3.20007
3.18753
3.29972
3.4
3.37078
3.33752
3.13526
3.39217
3.29132
3.33179
3.31787
3.19912
3.14596
3.2237
3.36273
3.32706
2.84222
3.18185
3.01937
3.38953
3.03812
2.90386
3.35417
3.18362
3.24794
3.36366
3.20765
3.33054
3.30818
2.99953
3.40021
3.35702
3.36385
3.37417
3.25637
3.36099
3.36005
3.37697
3.32379
3.29799
3.2314
3.1365
3.18186
3.19052
2.97154
3.19667
3.19052
3.157
3.05075
3.27946
3.18489
3.18149
3.37087
3.03823
3.24345
3.37666
3.30865
3.12512
3.28582
3.31755
3.37192
2.97846
3.32006
3.17074
3.2675
3.2793
3.24933
3.28815
3.16209
3.14188
3.37902
3.07516
3.10562
3.18858
3.13206
3.14287
3.25206
3.34744
3.39773
3.35804
3.34392
3.36315
3.27851
3.25278
3.37714
3.35247
3.20286
3.00214
3.29816
3.16239
3.33765
3.19568
3.35933
3.34276
3.10941
3.32904
3.06703
3.39397
3.33753
3.04766
3.01141
3.18005
3.15547
3.36394
3.11711
3.37076
2.93696
3.2839
3.39546
3.22965
3.35213
3.27865
2.93888
3.36656
3.37647
3.26568
3.17051
3.34883
3.04941
3.32735
3.26249
3.2476
3.37667
3.08981
3.40016
3.10398
3.236
3.28138
3.15239
3.3903
3.22011
3.28707
3.32734
3.21105
3.33713
3.26071
3.38659
3.17253
3.21087
3.22079
3.30222
3.21758
3.24903
3.18054
3.31177
3.23843
3.30596
3.15615
3.31754
3.2614
3.35845
3.05944
3.3008
3.36162
3.35621
3.11735
3.25891
3.17784
3.37062
3.24318
3.19135
3.38097
3.38044
3.3178
3.2301
3.2106
3.29263
3.10833
3.10396
3.34702
3.34667
3.3705
3.27685
3.24932
3.35756
3.21554
3.23249
3.2863
3.29987
3.35755
3.30592
3.09817
3.31936
3.28871
3.34209
3.16215
3.37742
3.31857
3.17189
3.39157
3.33104
3.2059
3.13334
3.3287
3.24898
3.1449
3.09868
3.26209
3.39383
3.36392
3.07694
3.27918
3.26771
3.19423
3.39365
3.24595
3.23927
3.39415
3.37776
3.38559
3.33277
3.16194
2.94221
3.26995
3.39127
3.27908
3.27041
3.17206
3.3662
3.2198
3.36067
3.18206
3.24902
3.19838
3.37127
3.10487
3.30177
3.20752
3.32648
3.16191
3.32758
3.29175
3.36413
3.40013
3.39124
3.21255
3.24784
3.12355
3.22322
3.31088
3.24999
3.24131
3.31647
3.24296
3.22805
3.3501
3.30463
3.07205
3.01039
3.01927
3.25939
3.28616
3.22081
3.13999
3.35641
3.33074
3.36015
3.3325
3.29168
3.38835
3.36077
3.32302
3.21232
3.16192
3.38106
3.22114
3.15409
3.07619
2.8842
3.35063
3.15294
3.1868
3.27963
3.26775
3.33948
3.16129
3.38669
3.28104
3.28648
3.26082
3.38257
3.27315
3.17146
3.23171
3.33018
3.16634
3.24523
3.30349
2.89848
3.06125
3.38177
3.25123
3.20872
3.29796
3.29817
3.26909
3.39895
3.249
3.21237
3.34054
3.31013
3.12423
3.26912
3.15581
3.38607
3.27207
3.13859
3.19814
3.27331
3.00232
3.3639
3.25767
3.0579
3.35625
3.39081
3.39131
3.22994
3.11532
3.38451
3.17017
3.10933
3.33296
3.32881
3.23807
3.1256
2.97184
3.35612
3.26058
3.37061
3.32967
3.3374
3.25876
3.09105
3.32737
3.27081
3.2416
3.28209
3.13221
3.33679
3.26856
3.24723
3.25927
3.37525
3.28065
3.18138
3.28169
3.2184
3.2098
3.19191
3.12003
3.37054
3.21714
3.17214
3.28099
3.2596
3.05094
3.35829
3.19049
3.24016
3.38496
3.34691
3.27958
3.27715
3.06674
3.39159
3.18802
3.0413
2.97304
3.39427
3.34256
3.02045
3.2518
3.17588
3.02333
2.94989
3.3373
3.25251
3.18147
3.12404
3.13374
3.34388
3.31621
3.29544
3.25802
3.37204
3.32746
3.23043
3.37105
3.34425
3.25029
3.22305
3.17344
3.31944
3.28668
2.89664
3.38866
3.03324
3.22281
3.16618
3.01522
3.38091
3.38029
3.35818
3.19488
3.34792
3.30156
3.28243
3.33722
3.39882
3.34698
3.31543
3.22943
3.2205
3.37634
3.21259
3.38002
3.34732
3.4
3.38545
2.95837
3.33416
3.32297
3.35815
3.19457
3.36998
3.34262
3.29912
3.18157
3.34087
3.33837
3.17143
2.99287
3.39031
3.37027
3.2
3.15446
3.32829
3.30799
3.17839
3.38243
3.07846
3.18297
3.36606
3.39387
3.26865
3.36564
3.08655
3.32402
3.2784
3.35624
3.30778
3.25429
3.37622
3.26099
3.19684
3.24967
3.3916
3.35113
3.21047
3.38113
3.14205
3.07629
3.37973
3.07462
2.94344
3.14423
3.31582
3.28814
3.22556
3.15568
3.38174
3.29711
3.20355
3.33716
3.39884
3.38256
3.33719
3.07619
3.35323
3.2686
3.30795
3.13386
3.28449
3.30894
3.38629
3.26808
3.13333
3.39923
3.21039
3.30886
3.38283
3.30183
3.27698
3.31336
3.3764
3.2826
3.19223
3.38128
3.34135
3.21066
3.38301
3.33711
3.30254
3.05328
3.35757
3.34778
3.38118
3.24853
3.33767
3.2766
3.2199
3.15498
3.27971
2.94526
3.06157
3.08095
3.37287
3.22016
3.14118
3.38971
3.14605
3.2
3.0762
3.30078
3.23067
3.31048
3.31752
3.3731
3.3777
3.08883
3.28717
3.04774
3.20994
3.1687
3.27277
3.3481
3.348
3.05717
3.38379
3.30987
3.27428
3.21962
3.21288
3.10296
3.02894
2.98096
3.11757
3.37148
3.21033
3.0983
3.35626
3.33003
3.13612
3.35191
3.16654
3.33713
3.30674
2.84173
3.11522
3.39743
3.09535
3.24729
3.23922
3.13386
3.38137
3.35668
3.39064
3.29883
3.27578
3.00117
3.26109
3.08578
3.32759
3.26525
3.16236
3.24029
3.39851
2.8796
3.3669
3.35505
3.31494
3.17957
3.30369
3.06057
3.32999
3.36422
3.17268
3.10555
3.27505
3.25947
3.12936
3.36217
3.28165
3.12385
3.14286
3.34624
3.31766
3.39881
3.10299
3.34692
2.81913
3.143
3.25876
3.30132
3.28142
3.39431
3.37724
3.35623
3.20149
3.09649
2.98534
3.06315
3.36464
3.35678
3.32309
3.25876
3.34476
3.16316
3.37191
3.36401
3.01457
3.29921
3.18096
3.35079
3.25153
3.27844
3.27237
3.23818
3.34871
3.28901
3.33187
3.2981
3.39599
3.3401
3.03927
3.30115
3.29805
2.91429
3.3244
3.25241
3.35768
3.25528
3.04917
3.38153
3.33779
3.16268
3.33725
3.28462
3.25018
3.17133
3.3937
2.9334
3.28823
3.38834
3.31452
3.31298
3.26858
3.11395
3.36788
3.25632
3.31281
3.30776
3.20055
3.14991
3.3574
3.12605
3.27784
3.39495
3.24088
3.10502
3.38528
3.39848
3.27492
3.25222
3.1299
2.95688
3.30655
3.31006
3.39154
3.34045
3.3844
3.35624
3.09835
2.9537
3.25944
3.01924
3.39027
3.1829
3.18107
3.34486
3.32736
3.00178
3.18046
3.32816
3.29442
3.20026
3.39369
3.2409
3.23944
3.07638
3.302
3.20668
3.19102
3.17865
3.1696
3.12799
3.39135
3.324
3.39921
3.26856
3.18048
3.34212
3.3276
3.18376
3.16399
3.03881
3.08509
3.26866
2.98201
3.30534
3.23942
3.33536
3.32657
3.16423
3.3072
3.3522
3.39132
3.35256
2.9728
2.9921
3.35778
3.34762
3.36496
3.24857
3.0286
3.06855
3.32739
3.31064
3.22096
2.90601
3.39183
3.35913
3.34068
3.18108
3.36418
3.3941
3.37146
3.21959
3.2022
3.05268
3.10816
3.31181
3.28041
3.32835
3.35992
3.20052
3.31753
3.32317
3.27943
3.36918
3.36047
3.2654
3.33213
2.95364
3.26597
3.12848
3.36991
3.31754
3.24919
3.02788
3.13482
3.30386
3.26047
3.25939
3.33738
3.31956
3.17706
3.03197
3.16899
3.08713
3.32744
3.31484
3.27911
3.3653
3.1823
3.35611
3.19367
3.34899
3.10484
3.37613
3.37139
3.15521
3.35361
3.14019
3.15238
3.34006
3.31807
3.21419
3.08013
3.36096
3.20008
3.2232
3.35816
3.15239
3.36672
3.25779
3.21967
2.89904
3.38869
3.38264
3.269
3.38107
3.31908
3.06755
3.33406
3.27002
3.09898
3.02902
3.38984
3.28008
3.20615
3.27045
3.36658
3.40072
3.16336
3.34715
3.18404
3.29423
3.2098
3.12397
3.23256
3.24799
3.36394
3.34177
2.89559
3.37757
3.22227
3.37308
3.34465
3.29813
3.01112
3.21122
3.13898
3.35918
3.35996
3.25357
3.16209
3.22149
3.22975
3.24899
2.94341
3.35578
3.33718
3.22012
3.03165
3.33857
3.33975
3.25026
3.39764
3.23829
3.18484
3.18129
3.31159
3.1732
3.27162
3.35645
3.20276
3.16354
3.27915
3.26004
3.2053
3.23949
3.32073
3.2947
3.38836
3.20022
3.31453
3.39378
3.31893
2.84678
3.37662
3.34751
3.12006
3.25435
3.02512
3.04418
3.37065
3.28356
2.96298
3.29251
3.22193
3.12649
3.28878
3.16799
3.39367
3.38224
3.33851
3.15264
3.00551
3.38837
3.37065
2.90493
3.39569
3.35868
3.34539
3.23935
3.38628
3.22636
3.32736
3.17814
3.16341
3.27843
3.22975
3.39178
3.17143
3.39653
3.2005
3.36421
3.29287
3.21968
3.26275
3.23402
3.38554
3.3561
3.37644
3.16242
3.39828
3.39123
3.36442
3.0773
3.32149
3.2889
3.29746
3.33409
3.23153
3.34767
3.01717
3.31803
3.13529
2.94441
3.28644
2.87848
3.39894
3.04789
3.00123
2.87685
3.27273
3.39589
3.0673
3.39739
3.39142
2.98935
2.95249
3.37055
3.23289
3.20669
2.93416
3.16657
3.38491
3.29794
3.3108
3.18114
3.24033
3.20025
3.02149
3.24505
3.36468
3.37613
3.22943
3.13996
3.34804
3.30812
3.39235
2.98478
3.3971
3.34697
3.26963
3.36435
3.35239
3.01306
3.30806
3.29194
3.2349
3.11088
3.10509
3.30998
3.23032
3.37068
3.07777
3.39995
2.9256
2.89621
3.3622
3.11857
3.3793
3.31331
3.28894
3.3646
3.36391
3.20043
3.03813
3.38996
3.30433
3.25952
3.39955
3.26112
3.36189
3.33979
3.19072
3.36996
3.34707
3.28815
3.30019
3.21066
3.11817
3.30946
3.23998
3.38222
3.31952
3.33007
3.24563
3.12944
3.24178
3.35242
3.36648
3.27937
3.09675
3.29212
3.27969
3.07783
3.30838
3.39365
3.12698
3.25599
3.19422
3.38336
3.26001
3.34693
3.29419
3.34992
3.1352
3.31623
3.23026
3.38303
3.39739
3.33721
2.97354
3.20535
3.37539
3.24916
3.30773
3.30917
3.37077
3.24691
3.16198
3.01015
3.37751
3.36228
3.38228
3.38162
3.24972
3.26627
3.37781
3.24849
3.38492
3.37046
3.3641
3.32395
3.40002
3.30548
3.31753
3.38849
3.27029
3.26516
3.00144
3.36325
3.30409
3.35145
2.89134
3.29933
3.17145
3.20061
3.01117
2.96223
3.20982
3.39526
3.04771
3.33571
3.38095
2.94252
3.38075
3.36169
3.37649
3.10962
2.99048
2.993
3.21726
3.24644
3.2155
2.99048
3.39245
3.03741
3.32418
3.30839
3.13128
3.31997
3.39435
2.89185
2.96084
3.39451
3.36034
3.23984
3.17146
3.36944
3.24684
3.28086
3.26969
3.39428
3.32757
3.31994
3.25218
3.35429
3.3825
3.30141
3.1812
3.36447
3.15222
3.09533
3.20982
3.34139
3.38739
3.35759
3.34554
3.29417
3.34947
3.03528
3.24034
3.37071
3.36389
3.26254
3.27139
3.26121
3.25131
3.20002
3.32893
3.30818
3.20863
3.191
3.37106
3.31778
2.86077
3.10525
3.30779
3.22476
3.36395
3.08624
3.09883
3.19082
3.32398
3.32965
3.38098
3.19151
3.05776
2.9775
3.24815
3.34279
3.16345
3.24986
3.15377
3.39988
3.17658
2.96411
3.22049
2.99049
3.36905
3.22066
3.2133
3.33144
3.34559
3.29278
3.19053
3.38947
3.38495
3.32078
3.22571
3.12868
3.12611
3.10178
3.25283
3.38089
3.27034
3.06673
3.10285
3.39946
3.13377
3.31813
3.21235
3.19176
3.09583
3.18339
3.35738
3.20092
3.09782
3.06105
3.39368
3.30408
3.3471
3.21166
3.39047
3.28512
3.39594
3.35322
3.37621
3.36432
3.10025
3.35669
3.37626
3.38179
3.11296
3.10732
3.3894
3.36979
3.38092
3.35711
3.1221
3.37675
3.34927
2.87932
3.22217
3.00367
3.05891
3.0762
3.01441
3.14292
3.21978
3.1862
2.99438
3.14016
3.0023
3.24514
3.10007
2.93334
3.27565
3.37132
3.18352
3.11938
3.352
3.19742
3.32421
3.29736
3.3709
3.08867
3.30276
3.27001
3.37699
2.8294
2.96544
3.20988
3.3779
3.39156
3.2407
3.0584
3.21559
3.3769
3.39654
3.39391
3.14549
3.15938
3.39144
3.17216
3.33711
3.24898
3.06915
2.84001
3.04069
3.34827
3.1426
3.33693
3.34767
2.98975
3.38161
3.37451
3.13632
3.21355
2.93775
3.0477
3.28819
3.14287
2.88713
3.25839
3.34988
3.23049
3.22671
3.0803
3.30543
3.31752
3.38877
2.81906
3.11773
3.08824
3.23001
3.26484
3.36791
3.02924
3.32673
3.20842
3.4001
3.31964
3.2686
3.20471
3.1172
2.99524
3.33872
3.23934
3.13635
3.32582
2.96233
3.23958
3.05757
3.21983
3.26001
3.08869
3.10575
3.20004
3.36953
3.20008
3.39133
3.36406
3.15338
3.39626
3.198
3.098
2.963
3.28815
3.28553
3.29539
3.34055
3.08493
3.18438
3.02928
3.36013
3.35724
3.23302
3.31782
3.29804
3.26877
3.03904
2.8788
3.30806
3.21831
2.88202
3.3004
3.30642
2.90032
3.24306
3.28519
3.12188
3.23701
3.37232
3.28974
3.33543
3.27855
2.89968
3.20237
3.39167
3.2684
3.18097
3.34338
3.31664
2.93712
3.26929
3.38154
3.17166
3.36622
3.28053
3.02861
2.87548
3.36716
3.04071
3.37282
3.1732
3.39164
3.2415
3.24397
3.05476
3.23833
3.15445
3.11518
3.37674
3.16043
3.17143
3.28362
3.15006
3.12422
3.34035
3.28257
2.91463
3.24035
3.1833
3.30777
3.22743
3.02069
3.23876
3.15593
3.37056
3.39461
3.27066
3.14288
2.98331
3.27348
3.24361
3.0191
3.24957
3.14293
3.3967
3.24929
3.39592
3.36758
3.29595
3.24903
3.36474
3.31518
3.16902
3.34731
3.22949
3.35264
3.31042
3.21113
3.33773
3.33322
3.23165
3.02675
3.06833
3.19352
2.90697
2.98299
3.25827
3.2884
3.26192
3.19077
3.27251
3.24113
3.37306
3.33966
3.33917
3.29845
3.28895
3.10075
3.36753
3.24036
3.12382
3.29839
3.29906
3.03425
3.29063
3.33246
3.35617
3.20984
3.39369
2.89674
)


// ************************************************************************* //
