/*--------------------------------*- C++ -*----------------------------------*\
| =========                 |                                                 |
| \\      /  F ield         | OpenFOAM: The Open Source CFD Toolbox           |
|  \\    /   O peration     | Version:  plus.master.MPPICInterFoam            |
|   \\  /    A nd           | Web:      www.OpenFOAM.com                      |
|    \\/     M anipulation  |                                                 |
\*---------------------------------------------------------------------------*/
FoamFile
{
    version     2.0;
    format      ascii;
    class       Cloud<basicKinematicMPPICParcel>;
    location    "3.4/lagrangian/kinematicCloud";
    object      positions;
}
// * * * * * * * * * * * * * * * * * * * * * * * * * * * * * * * * * * * * * //

2103
(
(-0.0233551 -0.00975977 0.498159) 2609
(-0.0206027 -0.0148246 0.489297) 2561
(-0.0241182 -0.00964161 0.496049) 2610
(-0.0211361 -0.0139326 0.49671) 2617
(-0.0171507 -0.0151446 0.497185) 2616
(-0.0215734 -0.00965718 0.499608) 2609
(-0.0216927 -0.012935 0.487136) 2553
(-0.0213166 -0.0139132 0.485224) 2553
(-0.0186922 -0.0142572 0.489691) 2560
(-0.0228907 0.00328761 0.500638) 2585
(-0.0175729 -0.0168659 0.481403) 2504
(-0.0148273 -0.0146877 0.49714) 2615
(-0.0161005 -0.0168129 0.490734) 3408
(-0.0158096 -0.0164852 0.492544) 3464
(-0.0231921 0.000365012 0.500545) 2593
(-0.0233994 -0.00123806 0.496733) 2593
(-0.0238767 -0.00951792 0.481545) 2498
(-0.0178213 -0.0170899 0.478313) 2504
(-0.0237193 -0.00450598 0.491837) 2601
(-0.0109572 -0.0157017 0.499557) 3463
(-0.021977 -0.00480465 0.500987) 2601
(-0.019784 -0.0137587 0.485578) 2561
(-0.0205394 -0.0150611 0.475784) 2505
(-0.0152483 -0.0145711 0.491928) 2615
(-0.0212297 -0.00841163 0.494603) 2609
(-0.0118513 -0.0160588 0.488737) 3407
(-0.0221689 -0.00508706 0.496328) 2601
(-0.015417 -0.0142827 0.500659) 2615
(-0.0182369 -0.0121761 0.497265) 2608
(-0.0215072 0.00420244 0.499706) 2584
(-0.0236221 -0.00795075 0.48005) 2489
(-0.015054 -0.0146591 0.488446) 2559
(-0.0174749 -0.0140621 0.485219) 2560
(-0.0234486 -0.0002661 0.487264) 2537
(-0.0131698 -0.0178404 0.482731) 3408
(-0.0119792 -0.0160918 0.49189) 3463
(-0.0204355 0.00878638 0.488008) 2520
(-0.0238905 -0.00489385 0.484221) 2545
(-0.00895201 -0.0158135 0.496459) 3471
(-0.0180419 -0.0121731 0.490108) 2560
(-0.0233164 0.000210705 0.480241) 2481
(-0.0220252 -0.000957952 0.496923) 2593
(-0.022794 0.00598469 0.478723) 2473
(-0.012619 -0.0179588 0.47732) 3352
(-0.00695619 -0.0161151 0.492577) 3471
(-0.00983914 -0.0161074 0.489067) 3415
(-0.0126616 -0.018045 0.476575) 3352
(-0.00793248 -0.016255 0.491318) 3415
(-0.0171519 -0.0127713 0.487867) 2559
(-0.0126898 -0.0179028 0.479224) 3352
(-0.0147807 -0.0148157 0.489561) 3407
(-0.0121924 -0.0177605 0.481992) 3408
(-0.0177756 0.0111151 0.478056) 2464
(-0.0137035 -0.018115 0.473552) 3352
(-0.0116959 -0.016937 0.475167) 3351
(-0.0215995 -0.00560488 0.489681) 2545
(-0.0185679 -0.0146292 0.47292) 2504
(-0.0184323 -0.0101369 0.484722) 2552
(-0.0197988 -0.0101784 0.483922) 2552
(-0.0221298 -0.00117608 0.498196) 2593
(-0.0222379 0.00196643 0.491408) 2537
(-0.0148528 -0.0139866 0.488221) 2559
(-0.021273 -0.00609426 0.496094) 2600
(-0.0126134 -0.0172349 0.478603) 3351
(-0.00730721 -0.0161248 0.485297) 3415
(-0.0242085 -0.00322627 0.474875) 2489
(-0.011366 -0.0174328 0.47203) 3359
(-0.023977 0.00070176 0.474216) 2481
(-0.0193193 -0.0101867 0.48063) 2496
(-0.0219749 0.00182077 0.485513) 2537
(-0.0218656 0.000861936 0.485514) 2536
(-0.0210601 -0.00898018 0.478547) 2497
(-0.0219245 -0.0025047 0.487268) 2537
(-0.0219705 -0.0035933 0.484839) 2545
(-0.0110807 -0.0155743 0.485256) 3407
(-0.0204955 -0.00690678 0.492225) 2600
(-0.0232541 -0.00561848 0.471989) 2489
(-0.0140388 -0.0147954 0.482802) 3407
(-0.0224049 0.0017319 0.491595) 2537
(-0.0185119 -0.0120364 0.474946) 2496
(-0.0150202 -0.0147068 0.478784) 2503
(-0.0216085 0.0069473 0.473404) 2473
(-0.0223418 -0.00914633 0.462506) 2441
(-0.0117925 0.0141749 0.477355) 4334
(-0.0247149 -0.000161888 0.468751) 2425
(-0.0216315 0.000725749 0.481644) 2480
(-0.0102366 -0.0171271 0.464616) 3303
(-0.0217198 -0.00323028 0.481444) 2488
(-0.0212153 -0.0054468 0.4826) 2544
(-0.0116203 -0.0175999 0.472153) 3360
(-0.0105818 -0.0151154 0.4795) 3350
(-0.0214775 0.000559134 0.48114) 2480
(-0.00966175 -0.0163983 0.470619) 3303
(-0.0217081 -0.0028931 0.480991) 2488
(-0.0212206 -0.0051204 0.477339) 2488
(-0.0215085 -0.00240657 0.481272) 2480
(-0.0212242 -0.00496578 0.482271) 2544
(-0.020302 -0.00667045 0.486649) 2544
(-0.0114733 -0.0171715 0.469098) 3303
(-0.0210927 -0.00545039 0.482715) 2544
(-0.017655 -0.0137505 0.473365) 2504
(-0.0168337 -0.0133495 0.479429) 2503
(-0.0255338 -0.000929802 0.456403) 2370
(-0.0246717 -0.00574477 0.459513) 2378
(-0.00668777 -0.0158255 0.477273) 3359
(-0.00972317 -0.0165887 0.468055) 3303
(-0.00675112 -0.0158609 0.473513) 3359
(-0.0213677 -0.00321084 0.478667) 2488
(-0.0102281 -0.0168399 0.469501) 3303
(-0.0123004 -0.015436 0.473872) 3351
(-0.0216286 -0.0039625 0.48829) 2544
(-0.019397 0.0100505 0.470734) 2408
(-0.0112513 -0.01742 0.464668) 3303
(-0.0229094 -0.00268407 0.469504) 2425
(-0.0230109 -0.00317574 0.469347) 2433
(-0.0207751 -0.00212008 0.472894) 2480
(-0.0211445 -0.00250144 0.475074) 2480
(-0.0211805 -0.00272484 0.474251) 2488
(-0.0211941 -0.00269479 0.474424) 2488
(-0.0221048 0.00240446 0.476687) 2481
(-0.0209101 -0.00365386 0.475205) 2488
(-0.0211486 -0.00301993 0.47395) 2488
(-0.0214642 0.000995238 0.479973) 2480
(-0.0197656 -0.00648794 0.47355) 2488
(-0.0209338 -0.00516909 0.477386) 2488
(-0.0118532 -0.0175461 0.465015) 3296
(-0.0207897 -0.00557529 0.477038) 2488
(-0.0215498 0.000719011 0.481184) 2480
(-0.021905 0.000546431 0.48367) 2537
(-0.021128 -0.00505881 0.484449) 2544
(-0.0198329 0.00819288 0.471243) 2408
(-0.0180069 -0.0132138 0.462736) 2448
(-0.0158152 -0.0155556 0.467833) 2447
(-0.0206525 0.00670053 0.467547) 2416
(-0.0240412 -0.00833254 0.455626) 2378
(-0.0214918 0.00454433 0.473381) 2472
(-0.0210654 -0.00629027 0.467816) 2432
(-0.0229671 -0.00263861 0.467851) 2425
(-0.021388 -0.00586908 0.467666) 2432
(-0.0193528 -0.0109606 0.464335) 2440
(-0.0234368 0.00252076 0.468499) 2425
(-0.0236234 0.00203575 0.470046) 2425
(-0.0197079 -0.00707691 0.46906) 2432
(-0.0210299 0.000877995 0.473236) 2480
(-0.0190998 -0.00646962 0.476155) 2488
(-0.0216836 0.00189811 0.480723) 2480
(-0.0207388 -0.00544693 0.479659) 2488
(-0.0208522 -0.00492334 0.476509) 2488
(-0.0206487 -0.00498742 0.474534) 2488
(-0.0119065 0.014168 0.466806) 4278
(0.015821 -0.00341984 0.451292) 1406
(-0.0222965 0.00674167 0.458552) 2361
(-0.00477204 -0.0157457 0.470663) 3311
(-0.0240343 -0.00202165 0.45979) 2369
(-0.0229964 -0.00534324 0.460261) 2377
(-0.0190356 -0.0100189 0.469379) 2440
(-0.0204405 0.000501792 0.46998) 2424
(-0.0204143 -0.00223952 0.469046) 2424
(-0.020986 -0.00544096 0.469324) 2432
(-0.012393 -0.0149509 0.471107) 3295
(-0.0208374 0.0018429 0.471209) 2424
(-0.0119038 -0.0173737 0.459099) 3239
(-0.0203618 -0.00609495 0.469634) 2432
(-0.0185259 -0.00618656 0.475929) 2487
(-0.0206882 -0.00493765 0.475113) 2488
(-0.0114858 -0.0177747 0.459433) 3248
(-0.021241 -0.00303994 0.476165) 2488
(-0.00779606 0.0153899 0.451325) 4158
(-0.0171752 -0.0136123 0.457796) 2392
(-0.0218836 -0.00483806 0.463719) 2433
(-0.00750579 -0.016108 0.464361) 3303
(-0.0164221 -0.0138367 0.460657) 2391
(-0.0204696 -0.00518993 0.474616) 2488
(-0.0208144 -0.00280261 0.47169) 2432
(-0.0201372 -0.00561633 0.473843) 2488
(-0.0210914 -0.000262025 0.478254) 2480
(-0.0210882 -0.00305122 0.474435) 2488
(-0.025475 -0.00385283 0.446176) 2322
(-0.0246838 0.00263597 0.450926) 2313
(-0.022497 -0.00842006 0.452478) 2377
(-0.0183552 0.0115419 0.461982) 2352
(-0.0169147 0.0121985 0.466512) 2399
(-0.0222226 -0.00493591 0.461292) 2377
(-0.0200454 -0.00184986 0.466837) 2424
(-0.021672 -0.00490483 0.463531) 2433
(-0.0209026 -0.00536423 0.463358) 2432
(-0.0129491 -0.0172379 0.454438) 3240
(-0.0206615 -0.00303698 0.470577) 2432
(-0.010737 -0.0177563 0.454903) 3248
(-0.0156637 -0.014492 0.466151) 2447
(-0.0202919 -0.00508196 0.469357) 2432
(-0.0142728 -0.0154063 0.465871) 3295
(-0.00930906 -0.0154918 0.466753) 3303
(-0.0101438 -0.0149953 0.467998) 3302
(-0.0175168 -0.0116761 0.470375) 2439
(-0.0111049 0.0142844 0.459509) 4222
(-0.0065777 0.0152915 0.451653) 4158
(-0.0207298 0.00734091 0.45964) 2360
(-0.0243042 -0.00147815 0.452062) 2313
(-0.00442291 -0.015849 0.463688) 3311
(-0.00757523 0.0159028 0.448214) 4159
(-0.0237125 -0.00599187 0.451968) 2321
(-0.022004 -0.00237747 0.460849) 2369
(-0.0141202 -0.0161448 0.455759) 3239
(-0.0201064 -0.000167681 0.468104) 2424
(-0.0206945 -0.00486809 0.461349) 2376
(-0.0209924 0.00144572 0.474367) 2480
(-0.0205755 -0.00213525 0.471816) 2424
(-0.0201403 -0.00442067 0.472774) 2488
(-0.0204371 0.00121009 0.468246) 2424
(-0.0110399 -0.0172173 0.453555) 3247
(-0.0185752 -0.00540238 0.470616) 2431
(-0.0177018 -0.0113856 0.4691) 2440
(-0.0163538 0.0154477 0.449263) 2287
(-0.0230199 0.00496291 0.449656) 2305
(-0.0155502 0.0149043 0.454413) 2343
(-0.00301338 -0.0156948 0.463461) 3310
(-0.0199711 0.000150878 0.463109) 2424
(-0.017815 -0.00911325 0.461497) 2383
(-0.0206497 -0.00589018 0.45768) 2376
(-0.0180153 -0.0109262 0.453982) 2384
(-0.0164584 -0.0126794 0.455801) 2391
(-0.0208214 -0.0050807 0.459304) 2376
(-0.0200219 -0.00659394 0.460425) 2376
(-0.0168442 -0.0130547 0.451895) 2335
(-0.0143685 -0.0143697 0.468961) 3294
(-0.0100847 -0.017413 0.451217) 3191
(-0.020575 0.00104573 0.471441) 2424
(-0.0103946 -0.0174541 0.451732) 3191
(-0.0200704 -0.00451428 0.46756) 2432
(-0.0269256 0.000902725 0.438098) 2258
(0.0165751 -0.00173599 0.443957) 1415
(0.0165613 -0.00169008 0.443594) 1415
(0.0175116 -0.000382746 0.436063) 1359
(-0.0217765 -0.0083324 0.446334) 2329
(-0.00341493 -0.0157288 0.456793) 3254
(-0.0167282 -0.0132304 0.451091) 2335
(-0.0187699 0.007922 0.465827) 2408
(-0.0234517 -0.00476733 0.45091) 2321
(-0.0204425 -0.00239897 0.460684) 2368
(-0.0201815 -0.00273507 0.464759) 2432
(-0.0198885 -0.00256865 0.464814) 2432
(-0.0197693 -0.00213987 0.463237) 2424
(-0.0202942 0.00196442 0.464287) 2424
(-0.0208947 -0.00779053 0.45277) 2376
(-0.020371 -0.00419755 0.464159) 2432
(-0.0203469 -0.00339449 0.464783) 2432
(-0.0204613 -0.00409575 0.462511) 2432
(-0.0203139 -0.00440928 0.462886) 2432
(-0.0137313 -0.0147485 0.460973) 3239
(-0.0135073 -0.0152629 0.458631) 3239
(-0.0110357 -0.0167188 0.450564) 3191
(-0.0273729 -0.00195755 0.435042) 2258
(-0.0171545 0.0149629 0.449546) 2288
(-0.0207976 0.00808042 0.451047) 2296
(-0.00660539 0.0164981 0.441208) 4095
(-0.0170397 0.0133965 0.455177) 2344
(-0.00417653 -0.0156337 0.45466) 3254
(-0.020993 0.00257589 0.457345) 2368
(-0.0196691 -0.00225975 0.463277) 2424
(-0.020074 -0.00622124 0.456986) 2376
(-0.01005 -0.017287 0.44715) 3191
(-0.0197258 -0.00247533 0.461614) 2368
(-0.00951174 -0.0180134 0.448657) 3192
(-0.016161 -0.0120651 0.458584) 2391
(0.0146157 -0.00250659 0.447227) 1406
(0.0167789 -0.00138824 0.442058) 1359
(-0.0022329 -0.0159272 0.457211) 3255
(-0.0124316 0.0151446 0.45065) 4167
(-0.0117997 0.0154819 0.448115) 4167
(0.0200146 0.000307118 0.42701) 1304
(-0.0179058 0.00969663 0.455953) 2351
(-0.017189 -0.0130456 0.448071) 2336
(-0.018265 0.00794602 0.462255) 2407
(-0.00369539 -0.0160658 0.454413) 3255
(-0.012089 -0.0161192 0.446657) 3183
(-0.0234518 -0.00147922 0.448611) 2313
(-0.0223965 -0.00437314 0.449019) 2321
(-0.00726966 -0.0179302 0.449326) 3191
(-0.019776 -0.00213087 0.460116) 2368
(-0.0210554 -0.00406256 0.454238) 2376
(-0.0215283 -0.00756886 0.44671) 2321
(-0.0204751 -0.00110917 0.457458) 2368
(-0.0200238 -0.00574127 0.453978) 2376
(-0.0207868 -0.00389194 0.454772) 2376
(-0.0199533 -0.00239888 0.459516) 2368
(-0.0205916 -0.0022504 0.456762) 2368
(-0.0204587 -0.00427124 0.45722) 2376
(-0.0201273 -0.00432325 0.457452) 2376
(-0.0205365 -0.0048631 0.454305) 2376
(-0.0180713 -0.00879239 0.456444) 2383
(-0.0110023 -0.0165557 0.446741) 3191
(-0.0195757 0.00132881 0.463715) 2424
(-0.0185442 -0.00531074 0.462333) 2431
(-0.010146 0.0155316 0.452689) 4215
(-0.016033 -0.0133149 0.449288) 2335
(0.020548 0.0004992 0.424968) 1304
(-0.0247768 0.000874407 0.442245) 2313
(-0.00767409 -0.018636 0.440707) 3136
(0.02068 0.000500615 0.425047) 1304
(-0.0161588 0.0162109 0.443487) 4168
(-0.00618203 0.0176498 0.434944) 4095
(-0.020272 -0.0100454 0.443517) 2328
(-0.0229599 -0.00401052 0.44549) 2321
(-0.0230261 -0.00400117 0.446259) 2321
(-0.00724181 -0.0180536 0.447649) 3191
(-0.0189189 0.00740765 0.462292) 2408
(-0.0164197 -0.0131111 0.447956) 2335
(-0.0164437 -0.0129119 0.447596) 2335
(-0.00648039 -0.0176909 0.446114) 3199
(-0.0208242 -0.00380268 0.451654) 2320
(-0.0207612 -0.00248477 0.455842) 2368
(-0.019267 -0.00638236 0.453844) 2376
(-0.0208659 -0.00490506 0.451694) 2320
(-0.0207251 -0.00385631 0.451509) 2320
(-0.0145324 -0.0143981 0.455024) 2390
(-0.0137203 -0.014086 0.459797) 3238
(-0.0193724 0.00115963 0.46246) 2424
(-0.00872055 -0.0151756 0.456169) 3246
(-0.0273706 0.00228818 0.430533) 2202
(-0.0260773 -0.00311512 0.433016) 2266
(0.0153405 -0.00183253 0.443512) 1414
(-0.0258547 -0.00110961 0.434867) 2258
(-0.011521 0.0155077 0.447342) 4167
(0.0157235 6.45492e-05 0.428771) 1302
(-0.0170281 0.0141791 0.44954) 2288
(-0.0238725 0.00222089 0.443204) 2313
(-0.0237669 0.000329734 0.442047) 2257
(-0.0056778 -0.017857 0.442126) 3143
(-0.00689766 -0.0178073 0.446168) 3199
(-0.0210176 -0.00213393 0.450475) 2312
(-0.0076112 -0.0180895 0.444416) 3191
(-0.0211469 -0.00499888 0.449999) 2320
(-0.0186599 -0.0114135 0.441687) 2272
(-0.0212333 -0.00242251 0.451692) 2312
(-0.0202111 -7.22292e-05 0.455143) 2368
(-0.0155271 -0.0145951 0.445428) 2335
(-0.0095426 -0.0175221 0.444886) 3191
(-0.0105615 -0.0166255 0.442214) 3191
(-0.0184808 -0.00511697 0.457713) 2375
(-0.00198397 -0.0159417 0.449774) 3207
(-0.00153769 -0.0160564 0.44928) 3207
(0.0204081 0.000433013 0.421385) 1248
(0.0200226 0.000574682 0.421869) 1248
(-0.00318249 -0.0158558 0.444292) 3199
(-0.0205854 -0.00985336 0.439996) 2272
(-0.017978 0.00905855 0.454172) 2351
(-0.0185383 0.0054735 0.454935) 2359
(-0.00426435 -0.0165939 0.444594) 3199
(-0.00393344 -0.0161271 0.449248) 3199
(-0.0210339 -0.0036667 0.448286) 2320
(-0.0217595 -0.00224241 0.447271) 2312
(-0.0201019 0.00304225 0.454615) 2360
(-0.0174574 -0.010198 0.449079) 2327
(-0.0184039 -0.00487745 0.456906) 2375
(-0.0108951 -0.016438 0.440707) 3135
(-0.00845251 -0.0151761 0.455382) 3246
(-0.00777499 -0.0163887 0.452686) 3247
(-0.0148822 -0.0150333 0.440881) 3127
(-0.00138416 -0.0161513 0.446982) 3207
(0.0148135 0.00073089 0.429838) 1302
(-0.00294453 0.0168155 0.434896) 4095
(0.0183673 0.00130192 0.422821) 1303
(0.0164493 0.000849571 0.423271) 1303
(-0.0216948 0.0103126 0.436363) 2241
(0.0149581 -6.54423e-05 0.427927) 1302
(-0.0246569 0.000440549 0.43483) 2257
(-0.0227674 -0.00030521 0.442398) 2313
(-0.0224762 -6.55456e-06 0.44293) 2313
(-0.0227019 -0.00143758 0.442351) 2313
(-0.00530925 -0.0176827 0.439829) 3143
(-0.0190464 -0.00751642 0.450448) 2328
(-0.0159003 -0.0139144 0.442015) 2279
(-0.0099327 -0.0170219 0.439149) 3135
(-0.0198448 -0.00432302 0.450369) 2320
(-0.0133279 -0.0137932 0.453319) 3238
(-0.0193576 0.000487624 0.457186) 2368
(-0.0147138 0.0165033 0.439632) 4111
(0.0141513 -0.00131805 0.44035) 1358
(0.0142845 -0.00126498 0.43995) 1358
(-0.00114774 -0.0160405 0.443522) 3207
(-0.0172471 -0.0129078 0.437554) 2280
(-0.020122 0.0127547 0.433623) 2241
(-0.0238638 0.00184608 0.435321) 2257
(-0.0234755 -0.00395108 0.436337) 2265
(-0.0246794 0.000303318 0.43409) 2257
(-0.011483 0.0163801 0.44405) 4167
(-0.0171734 -0.0117375 0.440648) 2279
(-0.0226602 -0.00110082 0.441555) 2257
(-0.0203805 -0.0051117 0.445918) 2320
(-0.0062038 -0.0184102 0.438126) 3143
(-0.0209859 0.000499746 0.446079) 2312
(-0.00868715 -0.0175607 0.440994) 3135
(-0.0088274 -0.0175383 0.439378) 3135
(-0.0201056 -0.00414674 0.448176) 2320
(-0.0105148 -0.016454 0.437601) 3135
(-0.018829 0.000835406 0.458442) 2367
(-0.00800449 0.0173101 0.436549) 4103
(-0.0213616 -0.00777021 0.434905) 2265
(0.0157856 -9.47028e-05 0.430924) 1302
(0.0161682 -0.000240108 0.432633) 1359
(-0.0119801 0.0174847 0.437382) 4112
(-0.00282029 0.0168658 0.430333) 4039
(0.0147587 0.000322072 0.423862) 1302
(-0.0249762 0.00070193 0.42967) 2202
(-0.00605122 0.0187882 0.425379) 4040
(0.0145638 0.000275038 0.425919) 1302
(-0.0246834 -0.000496887 0.431896) 2201
(-0.022893 0.00279596 0.438203) 2257
(-0.0195472 0.00910772 0.440931) 2240
(-0.0178206 0.0103592 0.444102) 2296
(-0.0224357 -0.00137879 0.4394) 2257
(-0.0221927 -0.00172889 0.438675) 2257
(-0.0225908 -0.00263798 0.437835) 2257
(-0.0223953 -0.00207085 0.439466) 2257
(-0.0217583 -0.00200329 0.440605) 2256
(-0.0199725 0.00245348 0.447936) 2312
(-0.0197634 0.00187352 0.453516) 2368
(-0.018877 0.00112424 0.452803) 2367
(-0.0145155 -0.0143386 0.444747) 2334
(-0.0197536 -0.00359145 0.448098) 2320
(-0.00886314 -0.0155801 0.449215) 3191
(0.0148583 -0.000638309 0.434638) 1358
(0.0134684 0.00207007 0.427154) 1310
(-0.00193153 0.0173859 0.425801) 4031
(-0.0013384 -0.015928 0.442557) 3207
(-0.0226462 0.00769998 0.433397) 2249
(0.014501 0.000335268 0.424248) 1302
(-0.000905376 -0.0163569 0.440237) 3151
(-0.0218133 0.0113263 0.429234) 2185
(-0.00817576 0.0188124 0.419569) 3992
(-0.0249753 -0.0034153 0.428401) 2210
(-0.0206504 0.00591987 0.44148) 2248
(-0.0163007 0.0145836 0.443362) 2287
(-0.0229614 -0.000383077 0.434918) 2257
(-0.0221101 -0.00202781 0.438572) 2257
(-0.018943 -0.0036696 0.450154) 2320
(-0.0187559 0.000289402 0.452318) 2367
(-0.0186231 -0.00379721 0.450872) 2319
(-0.0121272 -0.0148182 0.446846) 3182
(-0.0103911 -0.0151494 0.449756) 3190
(-0.0203639 0.0144193 0.42542) 2177
(-0.0156557 -0.0135191 0.436125) 2279
(-0.000241535 -0.0164027 0.438238) 3151
(0.0146452 0.000196272 0.426708) 1302
(0.0147262 0.000225011 0.421549) 1246
(0.0146374 0.00022967 0.422035) 1246
(-0.0266465 -0.000204704 0.422606) 2202
(-0.0123415 0.0168673 0.437228) 4111
(-0.0228785 -0.00220099 0.434127) 2257
(-0.0197234 -0.0104566 0.433785) 2272
(-0.0227181 -0.00106595 0.434302) 2257
(-0.0186998 -0.012217 0.431819) 2216
(-0.023027 -0.00213287 0.434612) 2257
(-0.00538671 -0.0185329 0.429403) 3087
(-0.021291 -0.00438392 0.43724) 2264
(-0.00502642 -0.0179161 0.433216) 3143
(-0.0202564 -0.0097537 0.434301) 2272
(-0.0104627 -0.0172378 0.433275) 3135
(-0.0186098 -0.0101481 0.437526) 2272
(-0.0191946 -0.00324814 0.447555) 2320
(-0.0111849 -0.016268 0.433905) 3127
(-0.0128206 -0.0136096 0.445753) 3182
(-0.0106138 -0.0168117 0.433308) 3135
(-0.00730709 -0.015505 0.442134) 3134
(-0.00760381 -0.016865 0.444729) 3191
(-0.0278719 -0.00201802 0.417793) 2147
(-0.0255538 0.000956882 0.424694) 2202
(-1.28701e-05 -0.0164633 0.438397) 3151
(-0.000604499 -0.0159931 0.435848) 3151
(-0.003976 0.0191419 0.419964) 3984
(-0.0110832 -0.0164961 0.430013) 3079
(-0.0147242 -0.0132901 0.434888) 2278
(-0.0191877 0.00991842 0.435252) 2240
(-0.0185571 -0.0120465 0.431107) 2216
(-0.0231576 -0.00212943 0.433382) 2257
(-0.00553222 -0.0186023 0.429048) 3088
(-0.00730076 -0.0176239 0.430963) 3079
(-0.010329 -0.0169334 0.431282) 3079
(-0.0204602 -0.00304218 0.439939) 2264
(-0.00871762 -0.0181696 0.431013) 3080
(-0.0201407 -0.00306946 0.44353) 2320
(-0.0195199 -0.00422435 0.442888) 2320
(-0.0186712 -0.00426765 0.444909) 2319
(-0.00677682 -0.0159186 0.442013) 3135
(-0.010676 -0.0171284 0.427456) 3079
(-0.0227748 0.00810466 0.427367) 2193
(-0.000155424 -0.0165073 0.434828) 3151
(0.000224405 -0.0166212 0.433276) 3151
(0.0155742 0.00091698 0.417928) 1246
(-0.0181853 -0.0122077 0.429434) 2224
(-0.000183424 -0.0165124 0.435342) 3151
(-0.00659687 -0.0183753 0.428755) 3087
(-0.0201551 -0.00565415 0.436129) 2264
(-0.0201632 -0.00568359 0.436016) 2264
(-0.00707429 -0.0179654 0.42909) 3079
(-0.0109227 -0.0164913 0.430157) 3079
(-0.0123588 -0.0152257 0.433839) 3127
(-0.0106288 -0.0167319 0.428968) 3079
(-0.0105785 -0.0171756 0.430324) 3079
(-0.0104944 -0.0169543 0.430612) 3079
(-0.0208079 -0.00282232 0.440128) 2264
(-0.0107191 -0.0167888 0.430254) 3079
(-0.0177098 -0.00949754 0.440721) 2271
(-0.00837988 -0.0164693 0.440725) 3135
(-0.0274105 0.00116075 0.415516) 2146
(0.0142307 -0.00157938 0.434002) 1358
(0.0151188 0.00135624 0.41897) 1246
(0.000159563 -0.0165434 0.434585) 3151
(-0.00239696 0.0189206 0.414923) 3976
(0.000341052 -0.0165767 0.434508) 3151
(-0.000252615 -0.0165557 0.433272) 3151
(0.000392808 -0.0162191 0.433133) 3151
(-0.000381996 -0.016569 0.430375) 3095
(-0.0233431 -0.00582799 0.422895) 2209
(-0.00365894 -0.0176571 0.429824) 3087
(-0.00851839 0.0179421 0.43287) 4103
(-0.0153361 0.0143325 0.437616) 2231
(-0.0191925 0.00608344 0.439537) 2248
(-0.00722374 -0.0177218 0.427817) 3079
(-0.00678445 -0.0184999 0.426249) 3088
(-0.00665578 -0.0184599 0.426423) 3087
(-0.0179292 -0.0091412 0.437227) 2271
(-0.00990616 -0.0174183 0.429646) 3079
(-0.0131382 -0.0137313 0.441067) 3126
(-0.00947653 -0.015174 0.437161) 3134
(-0.0280523 0.00301582 0.413291) 2147
(0.00132439 -0.016483 0.435249) 3151
(-0.0253419 0.0067645 0.415492) 2138
(-0.0262174 -0.0038779 0.416269) 2154
(-0.0205786 -0.00933415 0.422923) 2216
(0.000468377 -0.0159777 0.427943) 3095
(0.0153182 0.00146063 0.415261) 1246
(-0.0155248 0.0148357 0.431054) 2175
(0.0157347 0.000914063 0.414318) 1246
(0.00071348 -0.0165989 0.428831) 3095
(-0.0240278 0.00110173 0.424747) 2201
(-0.0172472 0.0144575 0.429641) 2176
(-0.0146272 0.0179668 0.424213) 4056
(-0.00525597 0.0201313 0.413387) 3984
(-0.0141029 -0.0155107 0.427731) 3071
(-0.00115228 -0.0158822 0.432889) 3150
(-0.023978 -0.000782416 0.423419) 2201
(-0.0206876 -0.00750119 0.427222) 2208
(-0.00592 -0.0183301 0.425266) 3087
(-0.0156298 -0.0139451 0.427061) 2223
(-0.0213219 -0.00422248 0.431631) 2208
(-0.00643864 -0.018254 0.426172) 3087
(-0.0202143 -0.00567958 0.43123) 2208
(-0.00812368 -0.0174542 0.429503) 3079
(-0.0166578 -0.0120704 0.431091) 2223
(-0.0203771 -0.00426749 0.433536) 2264
(-0.0201081 -0.00974641 0.429243) 2216
(-0.0198832 -0.00421604 0.435989) 2264
(-0.00896377 -0.0153131 0.436248) 3134
(-0.0278107 0.00289234 0.410091) 2091
(-0.0277687 -0.00213394 0.411357) 2091
(-0.0203617 0.0169595 0.414215) 2121
(0.00063923 -0.0163593 0.425332) 3095
(0.0142744 -0.00121298 0.43024) 1302
(-0.0247753 -0.00388116 0.416552) 2154
(0.0120114 0.0051792 0.419523) 383
(-0.0210439 0.0129026 0.419447) 2129
(0.0131171 -0.00251061 0.432507) 1350
(-0.016141 -0.0148131 0.422093) 2167
(-0.0242525 0.000381475 0.42037) 2145
(-0.021856 -0.00621972 0.423681) 2209
(-0.0239543 -0.00164769 0.421951) 2145
(-0.0235656 -0.000462437 0.424348) 2201
(-0.0232981 -0.00117369 0.424251) 2201
(-0.0229485 1.23593e-05 0.425647) 2201
(-0.000325712 -0.0166379 0.429988) 3095
(-0.018233 0.00815778 0.436692) 2239
(-0.0203668 -0.00733394 0.429068) 2208
(-0.00615224 -0.0181118 0.424472) 3087
(-0.0188167 0.00363085 0.43776) 2248
(-0.0210806 -0.00444341 0.430276) 2208
(-0.0222641 -0.00309278 0.427579) 2209
(-0.0216085 -0.000963133 0.43007) 2200
(-0.0135289 -0.0139361 0.435709) 3126
(-0.00555394 -0.0182074 0.425676) 3087
(-0.00965878 -0.0176115 0.425407) 3079
(-0.0189278 0.00130842 0.440369) 2256
(-0.0204603 -0.00456215 0.431773) 2208
(-0.00960572 -0.0177899 0.424822) 3079
(-0.0111238 -0.0162116 0.428912) 3071
(0.0143459 -0.000566133 0.427994) 1302
(0.00062831 0.0172979 0.412153) 3919
(0.0142662 -0.00112085 0.428944) 1302
(-0.0125872 0.0201689 0.41777) 3993
(-0.000345635 0.0195097 0.408328) 3920
(-0.0247161 0.00351414 0.418106) 2137
(-0.000923722 -0.0166927 0.423885) 3095
(-0.00513485 -0.0186533 0.422963) 3088
(-0.01854 0.0126976 0.42605) 2176
(-0.00610012 0.020879 0.410483) 3928
(-0.0238676 -0.00274093 0.421953) 2145
(-0.0240313 -0.0013474 0.420367) 2145
(-0.0237359 -0.00222896 0.421924) 2145
(-0.0209811 -0.00514192 0.425188) 2208
(-0.0202293 -0.00731216 0.427511) 2208
(-0.00812299 -0.0174003 0.426105) 3079
(-0.0211517 -0.00309679 0.430173) 2208
(-0.00722253 -0.0174407 0.426127) 3079
(-0.0042895 -0.0174502 0.429004) 3087
(-0.0196934 -0.00449473 0.432565) 2264
(-0.00873205 -0.0173497 0.428875) 3079
(-0.0188224 -0.00388275 0.435721) 2264
(-0.0187389 -0.0043597 0.437581) 2264
(-0.0195374 -0.00173763 0.436901) 2256
(-0.0186219 -0.00511439 0.439979) 2263
(0.0145628 9.17609e-05 0.423495) 1302
(0.00200991 -0.0163476 0.426228) 3095
(-0.0216173 0.0154689 0.410924) 2066
(0.0117268 0.00499824 0.412337) 334
(0.00944633 -0.00862022 0.428288) 411
(-0.010876 0.0183877 0.422468) 4048
(0.0144405 0.00026714 0.411854) 1190
(0.00145937 -0.0164384 0.426052) 3095
(-0.00595322 -0.018363 0.418925) 3031
(-0.0150333 0.0132391 0.430607) 2175
(-0.0243282 -0.00137109 0.418206) 2145
(-0.0121691 0.0168785 0.42932) 4055
(-0.0237393 -0.00177609 0.419744) 2145
(-0.019469 0.00897022 0.427267) 2184
(-0.00670014 -0.0172015 0.423304) 3087
(-0.0161528 -0.0132726 0.423628) 2223
(-0.018014 -0.00910441 0.429061) 2215
(-0.0218716 -0.00163488 0.424597) 2200
(-0.0207525 -0.00568566 0.423823) 2208
(-0.0218752 -0.00157348 0.425003) 2200
(-0.022604 -0.00326173 0.423748) 2209
(-0.0219627 -0.00325335 0.425344) 2209
(-0.0137434 -0.0140899 0.432803) 3126
(-0.0155932 -0.0124638 0.428866) 2223
(-0.0187019 -0.00485777 0.435408) 2264
(-0.0193668 -0.00211257 0.434555) 2256
(-0.019191 -0.00245454 0.437063) 2264
(-0.0280852 -0.0022469 0.405364) 2091
(-0.0240812 0.00926509 0.410953) 2074
(0.0137663 7.3023e-05 0.408505) 1190
(0.0115524 0.0046781 0.412119) 334
(-0.0214179 -0.0103851 0.412871) 2161
(0.000242792 0.0183311 0.408553) 3919
(0.00144201 -0.0164376 0.421147) 3039
(0.00160594 -0.016338 0.421891) 3039
(-0.0243077 -0.000840148 0.416648) 2145
(-0.0240718 -0.00170401 0.416388) 2145
(-0.0220055 -0.00834359 0.415404) 2161
(-0.0141626 0.0145624 0.429761) 4054
(0.000547302 -0.0168055 0.423344) 3095
(-0.0229471 -0.00486542 0.418267) 2153
(-0.0155502 -0.0143061 0.422023) 2167
(-0.0202621 -0.00658124 0.421608) 2152
(-0.0204552 -0.00633216 0.4216) 2152
(-0.0206243 0.00235385 0.429045) 2200
(-0.0199934 -0.00740442 0.423429) 2208
(-0.0104588 -0.0178032 0.420845) 3024
(-0.0110458 -0.0168001 0.420455) 3023
(-0.0105811 -0.0172836 0.420708) 3023
(-0.010549 -0.0172868 0.422441) 3079
(-0.0105586 -0.0168246 0.42361) 3079
(-0.0189204 -0.00131392 0.434712) 2256
(-0.0200588 -0.00200646 0.431122) 2200
(-0.0189063 -0.000785953 0.435487) 2255
(-0.00498516 -0.0159361 0.432135) 3087
(-0.0051706 -0.0158952 0.432386) 3143
(-0.0158028 -0.0160057 0.416221) 3015
(0.0025836 -0.0163147 0.423513) 3103
(-0.0145516 -0.016696 0.41702) 3016
(0.000943559 -0.0167088 0.418688) 3039
(0.00299163 -0.0161633 0.424142) 3103
(-0.0164155 0.0146417 0.423052) 2175
(-0.0108773 0.0176689 0.420952) 3991
(-0.025052 0.000278118 0.4125) 2090
(-0.0248765 -9.2823e-05 0.413183) 2146
(-0.00544533 -0.0176732 0.418465) 3031
(-0.0234075 -0.00455455 0.41568) 2153
(-0.022874 -0.00473183 0.417122) 2153
(-0.0202043 -0.0075506 0.420055) 2152
(-0.0202641 -0.00601463 0.421083) 2152
(-0.00117961 -0.0158928 0.423465) 3094
(-0.0201251 0.00441252 0.427847) 2192
(-0.0136487 -0.0162227 0.42041) 3015
(-0.0177289 -0.0124179 0.419114) 2168
(-0.013091 -0.0162496 0.422626) 3071
(-0.0190448 -0.0051493 0.430505) 2208
(-0.00702348 -0.0163929 0.428133) 3079
(-0.0189679 -0.00357307 0.431472) 2208
(-0.00452365 -0.0157249 0.429236) 3086
(-0.00421463 -0.0157064 0.429389) 3086
(-0.0043533 -0.0157315 0.429417) 3086
(-0.00782959 -0.0171857 0.426108) 3079
(-0.00905297 -0.0153439 0.430355) 3078
(-0.00903532 -0.0153396 0.430519) 3078
(-0.00511429 -0.0157 0.430882) 3086
(-0.00890828 -0.0153439 0.430203) 3078
(0.00409362 -0.0154499 0.422675) 3102
(0.0135564 0.00190151 0.407253) 1190
(-0.024792 -0.00531667 0.409977) 2098
(-0.00946627 -0.0180225 0.414693) 3024
(-0.00551613 0.023258 0.394914) 3873
(0.00213434 -0.0160549 0.417464) 3039
(-0.0175396 0.0116702 0.425058) 2183
(-0.0144898 0.0143598 0.425288) 2174
(-0.0163994 0.0140682 0.422472) 2175
(-0.01768 0.0117859 0.422741) 2184
(-0.0237018 -0.00137627 0.414409) 2145
(-0.0219913 0.000504145 0.421216) 2145
(-0.0215944 -0.00537037 0.417643) 2153
(-0.0140106 -0.0162207 0.419577) 3015
(-0.0150732 -0.0157769 0.419762) 3015
(-0.010532 -0.0174398 0.419405) 3023
(-0.0209325 -0.00254483 0.424691) 2200
(-0.0186181 -0.00595359 0.428989) 2208
(-0.018834 -0.00347295 0.430663) 2208
(-0.0193925 -0.00241218 0.429701) 2200
(-0.0187463 -0.00404557 0.431834) 2207
(-0.00534899 -0.0157212 0.427716) 3087
(0.0157835 0.000871113 0.414233) 1246
(0.0146856 0.00026364 0.418091) 1246
(0.0128368 -0.00161983 0.419655) 1246
(-0.0251408 0.00819236 0.404723) 2082
(-0.011062 0.0218984 0.405788) 3937
(0.00258816 -0.015762 0.415178) 3046
(0.0126582 -0.00168177 0.417995) 376
(-0.00624143 0.0202774 0.415054) 3984
(-0.0224193 0.0136826 0.405373) 2074
(-0.0211773 0.0128554 0.410028) 2073
(0.0129551 -0.000137831 0.404235) 1190
(0.0131405 0.000107763 0.404394) 1190
(-0.00306006 -0.0174389 0.416126) 3031
(-0.0175028 -0.0145552 0.411954) 2112
(-0.0137126 -0.0168696 0.412442) 2959
(-0.0232598 -0.00732621 0.410942) 2097
(-0.0150119 0.0152432 0.423464) 4055
(-0.0231352 -0.00322296 0.414067) 2153
(-0.0222247 -0.00352176 0.417596) 2153
(-0.00985441 -0.0174465 0.417673) 3023
(-0.00599342 -0.0172149 0.416163) 3031
(-0.0147532 -0.013379 0.423104) 2223
(-0.021371 -0.00284653 0.420002) 2152
(-0.0194157 -0.000174748 0.427879) 2200
(-0.0188843 0.000572974 0.429465) 2199
(-0.0185366 -0.00687832 0.427108) 2208
(-0.0187549 -0.00354313 0.427863) 2207
(-0.0186966 -0.00369532 0.427505) 2207
(-0.00534627 -0.0156453 0.425479) 3086
(-0.00647778 -0.0160522 0.425347) 3079
(0.0144198 4.16769e-05 0.417285) 1246
(-0.0178885 0.0181428 0.408484) 3945
(-0.00341719 0.0225096 0.394909) 3873
(0.0129812 8.67915e-05 0.403537) 1190
(-0.012374 0.0175706 0.418729) 4000
(-0.00405097 -0.018758 0.411015) 2976
(-0.013472 0.0203009 0.407832) 3945
(-0.000741609 0.0203493 0.402924) 3920
(-0.0200542 -0.00965989 0.410675) 2104
(0.000112639 -0.0179199 0.412035) 2983
(-0.0165864 0.014737 0.418791) 2119
(-0.0220697 -0.00028687 0.417405) 2145
(-0.0156643 -0.0134292 0.415869) 2167
(-0.00760043 -0.0170781 0.416027) 3023
(-0.0188772 0.00785907 0.422798) 2184