/*--------------------------------*- C++ -*----------------------------------*\
| =========                 |                                                 |
| \\      /  F ield         | OpenFOAM: The Open Source CFD Toolbox           |
|  \\    /   O peration     | Version:  plus.master.MPPICInterFoam            |
|   \\  /    A nd           | Web:      www.OpenFOAM.com                      |
|    \\/     M anipulation  |                                                 |
\*---------------------------------------------------------------------------*/
FoamFile
{
    version     2.0;
    format      ascii;
    class       vectorField;
    location    "3.4/lagrangian/kinematicCloud";
    object      UCorrect;
}
// * * * * * * * * * * * * * * * * * * * * * * * * * * * * * * * * * * * * * //


2103
(
(-5.08316e-06 -2.80163e-06 0.000422767)
(-0.00104797 -0.000992876 -1.9351e-10)
(-2.43547e-05 5.20556e-05 1.94028e-06)
(4.15627e-05 1.99803e-05 7.61491e-07)
(-1.21555e-05 -5.29455e-06 1.84189e-06)
(1.10401e-07 -1.10187e-06 0.000675866)
(-0.000684481 -0.000363403 -9.06371e-07)
(-0.000675264 -0.000379665 -9.06371e-07)
(-5.63627e-06 -2.01787e-06 3.49311e-06)
(1.44843e-05 2.16509e-06 3.44617e-06)
(-5.67806e-06 5.01481e-08 2.37616e-06)
(0.00302604 0.00307904 1.92705e-06)
(-8.11564e-05 -0.00219327 2.11092e-06)
(0.000125383 -4.32443e-05 -1.62855e-05)
(-0.000186161 7.77763e-07 2.50588e-06)
(-0.000185233 -8.88669e-06 2.9002e-06)
(-1.40762e-06 4.69857e-06 -3.83922e-06)
(-1.38581e-06 -4.24209e-06 -1.84299e-06)
(-0.000803816 -0.000178481 -3.00309e-08)
(0.000402668 0.000712079 -7.2378e-08)
(-0.000803816 -0.000178481 8.19949e-07)
(0.000145716 -0.00101634 -1.9351e-10)
(-4.0194e-05 -1.07104e-05 -1.16197e-06)
(0.00242404 0.00368105 -3.31782e-07)
(6.03081e-06 4.94645e-07 0.000422767)
(0.00183829 0.00327451 1.36979e-06)
(-0.000324617 -0.000115121 4.17028e-07)
(0.00242404 0.00368105 3.84464e-06)
(-0.000135426 -7.53857e-05 3.59875e-07)
(5.64284e-06 4.47706e-05 3.37324e-07)
(-0.0010919 -0.000213443 1.62482e-07)
(0.00248718 0.00263052 -1.28542e-06)
(-3.79009e-06 -1.45814e-06 3.21394e-06)
(-0.00325429 0.00170101 -3.17e-07)
(-8.11564e-05 -0.00219327 2.60516e-06)
(0.000394971 0.000716441 4.79495e-06)
(2.06469e-07 1.20423e-06 8.49206e-10)
(-0.00115074 -0.000234267 -9.94639e-08)
(0.000615982 0.0011893 0.000261577)
(-8.42106e-06 2.89594e-06 3.21394e-06)
(-0.00132583 9.60936e-07 -3.70697e-06)
(0.00369371 7.77763e-07 2.9002e-06)
(7.09977e-06 -3.44429e-06 -3.86928e-06)
(-0.00202239 -0.00324643 -1.02766e-06)
(0.00046187 -0.000187254 4.65733e-05)
(0.000157849 -0.000390676 7.7207e-07)
(-0.00202071 -0.00324738 -1.02766e-06)
(0.000456092 -0.000559699 3.03536e-07)
(-0.000499899 0.00224427 -1.28542e-06)
(-0.0020501 -0.00323073 -1.02766e-06)
(0.00253498 0.0025617 1.36979e-06)
(-8.11564e-05 -0.00219327 2.65083e-06)
(-7.85971e-08 -1.03676e-07 1.93851e-06)
(-0.00259076 -0.00292432 -3.48623e-06)
(4.81103e-06 6.94395e-06 -2.35516e-06)
(-6.16228e-05 -7.98112e-05 -9.94639e-08)
(-5.67806e-06 5.01481e-08 -5.4845e-06)
(0.000966994 0.000273535 2.98648e-07)
(0.000573526 0.000195064 5.88044e-08)
(0.0033907 7.77763e-07 2.9002e-06)
(-0.00325429 0.00170101 3.15626e-06)
(0.00457809 0.00344228 -1.28542e-06)
(9.49824e-06 -5.35762e-05 2.951e-06)
(1.72117e-06 3.60024e-06 -2.35516e-06)
(0.000998062 -0.000723811 7.7207e-07)
(-0.000711352 -7.77205e-05 1.62482e-07)
(0.00193009 0.00156586 1.08849e-05)
(-0.00132583 9.60936e-07 8.941e-07)
(0.00126757 0.000401733 2.08604e-07)
(-0.000191348 0.00170101 -7.47912e-07)
(2.16113e-05 6.31345e-05 1.54498e-06)
(-2.59686e-07 1.10615e-06 -3.7027e-07)
(-8.10025e-05 0.00170101 -7.47912e-07)
(-0.000115409 -8.69228e-05 -9.94639e-08)
(0.00185117 0.00326721 1.36979e-06)
(4.14006e-06 -5.42847e-05 5.48548e-06)
(-0.000704239 -0.000151813 4.75366e-07)
(0.002397 0.00688572 1.36979e-06)
(-0.00325429 0.00170101 3.31299e-06)
(0.0011427 0.000622065 1.27386e-06)
(0.00111492 0.00112007 -1.59285e-06)
(1.60104e-06 -2.71724e-06 -1.59177e-06)
(-3.97657e-05 0.000122494 -1.52765e-06)
(1.74103e-10 -3.53308e-11 5.94857e-13)
(-0.00489852 0.00125886 -6.68209e-07)
(0.00433847 3.63349e-05 1.66663e-05)
(-0.00227208 -0.0045874 -6.68704e-06)
(-0.000114152 -3.41832e-05 8.39511e-06)
(0.00287497 0.000467783 2.92922e-05)
(8.42157e-05 -3.05598e-05 2.61028e-05)
(-0.000835239 0.000167499 0.000132448)
(0.00433847 3.63349e-05 1.62368e-05)
(-0.00227208 -0.0045874 7.89889e-06)
(-5.79567e-06 3.43946e-05 8.39511e-06)
(-9.3171e-05 -3.14091e-05 8.39511e-06)
(0.00430257 0.000410279 1.25858e-05)
(0.00287497 0.000467783 3.0141e-05)
(0.00281114 0.000678578 1.85722e-05)
(-0.00252879 -0.00444191 -1.0153e-06)
(0.00287497 0.000467783 2.89959e-05)
(-5.67806e-06 5.01481e-08 -5.07233e-06)
(4.08705e-05 0.000785262 -1.59285e-06)
(-5.57564e-07 -5.58255e-07 6.82e-06)
(-6.01393e-06 1.18878e-05 -2.5401e-06)
(0.00280485 0.00130097 6.14624e-06)
(-0.00237023 -0.00453178 -1.0153e-06)
(0.00278138 0.00130808 6.14624e-06)
(-5.02044e-06 2.63195e-05 8.39511e-06)
(-0.00227208 -0.0045874 5.18321e-06)
(3.03935e-06 7.94801e-06 -2.41876e-06)
(0.000137212 0.000105794 1.85722e-05)
(-0.00207723 0.00264198 2.96369e-06)
(-0.00296503 -0.00806199 -1.0153e-06)
(-0.00248442 -0.000180951 -6.68209e-07)
(-0.00106247 -0.000122971 2.86451e-07)
(0.00430594 0.000375161 1.25858e-05)
(0.00430055 0.000431377 1.25858e-05)
(-6.05581e-06 3.71044e-05 8.39511e-06)
(-6.1252e-06 3.78271e-05 8.39511e-06)
(-0.00131496 0.000114203 -1.11725e-06)
(-3.94317e-06 1.50982e-05 8.39511e-06)
(-5.39626e-06 3.02342e-05 8.39511e-06)
(0.00118203 3.63349e-05 1.25858e-05)
(-6.52739e-07 -1.91762e-05 -6.91554e-06)
(-6.95703e-05 -2.82886e-05 8.39511e-06)
(0.00138611 -0.000567678 -2.35721e-06)
(-6.19567e-05 -2.72819e-05 8.39511e-06)
(0.00433847 3.63349e-05 1.62747e-05)
(-3.84924e-05 0.00170101 -7.47912e-07)
(0.0008511 0.000200185 1.85722e-05)
(-0.00207723 0.00264198 3.36226e-06)
(0.000108277 9.22426e-05 -4.79192e-07)
(0.000400699 0.00038047 9.88542e-07)
(0.00050247 -0.000121628 1.43122e-07)
(-6.2224e-06 1.18547e-05 -2.5401e-06)
(2.28872e-05 7.55242e-06 -7.84327e-07)
(-5.22815e-05 -3.07017e-05 -7.98944e-06)
(-0.002487 -0.000154078 -6.68209e-07)
(-6.53092e-05 -3.24242e-05 -7.98944e-06)
(5.82171e-06 -2.34719e-05 -1.86101e-06)
(-0.00249567 0.00258143 -6.68209e-07)
(-0.00252111 0.00231647 -6.68209e-07)
(4.84862e-06 -3.52573e-05 -7.98944e-06)
(0.00433847 3.63349e-05 9.50995e-06)
(9.62253e-06 -5.31096e-05 8.39511e-06)
(0.000527903 3.63349e-05 1.25858e-05)
(-6.52739e-07 -1.91762e-05 2.14277e-05)
(-5.99604e-05 -2.70179e-05 8.39511e-06)
(-6.52739e-07 -1.91762e-05 -2.34915e-06)
(4.63463e-08 -1.93162e-08 6.64182e-11)
(6.32615e-05 -3.2494e-05 9.86952e-06)
(-1.27128e-06 -8.30678e-06 -2.22839e-06)
(0.000276686 -1.499e-05 0.000156655)
(-2.37672e-05 5.87511e-07 1.59005e-06)
(1.16356e-05 -0.00023267 7.99582e-07)
(5.82171e-06 -2.34719e-05 1.15903e-06)
(0.0047833 2.21335e-05 4.78118e-06)
(0.00474739 0.000396193 -8.86181e-07)
(-4.29274e-05 -2.94649e-05 -7.98944e-06)
(-1.82937e-05 6.67204e-06 1.75524e-06)
(0.0047833 2.21335e-05 7.08079e-06)
(1.03079e-05 -1.46994e-05 -5.79761e-07)
(1.32298e-06 -2.36141e-05 -1.15563e-05)
(0.000376791 -0.00252211 -1.29026e-05)
(-4.63143e-05 -2.52136e-05 8.39511e-06)
(1.87445e-05 -6.59944e-06 -3.15872e-05)
(-5.37162e-06 2.99775e-05 8.39511e-06)
(-0.000590378 -0.000124632 4.5721e-07)
(-1.50541e-05 -1.95212e-05 -6.83126e-10)
(-0.000254289 -0.000127207 2.86451e-07)
(-0.00195789 -0.00178097 -1.0153e-06)
(-3.91599e-06 3.66576e-06 3.92761e-06)
(-6.52739e-07 -1.91762e-05 -1.96702e-06)
(1.32298e-06 -2.36141e-05 -1.42891e-05)
(-6.52739e-07 -1.91762e-05 -5.55339e-06)
(0.00229374 3.63349e-05 1.25858e-05)
(-5.3142e-06 2.93794e-05 8.39511e-06)
(-1.97207e-05 3.34732e-05 -2.78522e-11)
(-0.00652587 4.96649e-06 1.12844e-05)
(8.37635e-05 -0.000470868 2.10651e-06)
(2.95359e-06 -1.50662e-06 -3.86988e-06)
(0.000237186 -0.000154849 7.00458e-07)
(1.16356e-05 -0.00023267 3.80106e-07)
(0.00475307 0.000337002 -8.86181e-07)
(-0.000117425 -0.000109111 2.86451e-07)
(1.32298e-06 -2.36141e-05 -3.21487e-06)
(-3.6732e-05 -2.35591e-05 -3.25131e-06)
(-1.16119e-07 -8.62386e-06 -7.98944e-06)
(1.87339e-05 -6.6524e-06 -3.15872e-05)
(0.000439469 0.0003417 9.88542e-07)
(1.32298e-06 -2.36141e-05 -1.11883e-05)
(-1.26583e-05 -2.07068e-06 1.75524e-06)
(-0.00179625 -0.000337158 -1.0153e-06)
(-3.27306e-05 -5.68475e-05 -6.03024e-06)
(1.41691e-05 -1.69506e-06 -6.77234e-06)
(5.55083e-06 -4.70997e-06 1.49868e-05)
(-0.000508678 -0.0008544 0.000489379)
(-1.78959e-06 3.98934e-06 -7.62907e-05)
(-0.00357349 4.96649e-06 7.21044e-06)
(0.00027436 -5.62788e-05 0.000156655)
(1.99967e-05 6.83203e-05 1.37975e-07)
(-3.25951e-05 -1.15738e-05 3.99429e-06)
(-4.731e-05 1.30543e-06 1.59005e-06)
(-4.98266e-06 -1.73752e-05 -5.79761e-07)
(0.0047833 2.21335e-05 1.27279e-06)
(-2.17876e-07 -1.64384e-05 -1.35343e-06)
(0.00431679 -0.000189459 1.25858e-05)
(0.0047833 2.21335e-05 8.21495e-06)
(-6.52739e-07 -1.91762e-05 -1.05147e-05)
(0.00476394 -0.000179526 -8.86181e-07)
(1.31254e-05 -7.84562e-06 3.819e-06)
(0.000135398 -0.000541855 6.34188e-07)
(1.78231e-05 -2.10784e-05 -2.95149e-07)
(-0.000337296 -0.00132826 7.72641e-10)
(0.000127309 -3.17683e-05 1.14899e-10)
(4.1472e-05 -4.37569e-05 7.97199e-07)
(-1.4898e-05 1.57651e-06 1.82734e-06)
(0.0047833 2.21335e-05 -8.07116e-06)
(0.00111735 0.000372292 1.33166e-06)
(-2.85722e-05 -2.01874e-05 -9.76271e-07)
(8.59163e-05 0.000123568 -1.391e-06)
(-4.02573e-06 3.8594e-06 6.33026e-06)
(-3.14832e-05 -2.05723e-05 -9.76271e-07)
(-2.17876e-07 -1.64384e-05 -1.27233e-06)
(-1.45113e-07 -5.45657e-06 9.30424e-06)
(-0.00123917 0.00148161 1.34754e-06)
(-9.61178e-06 -2.95612e-07 1.83172e-05)
(0.0047833 2.21335e-05 7.51458e-06)
(-9.61178e-06 -2.95612e-07 1.96968e-05)
(9.45037e-07 -1.96773e-05 -7.98944e-06)
(-0.000868634 0.000211852 0.000154278)
(8.02337e-08 1.11239e-06 5.22425e-07)
(7.90819e-08 1.10039e-06 5.22425e-07)
(0.000851968 3.5617e-07 3.35947e-08)
(5.98482e-05 1.20666e-05 1.72591e-05)
(0.00136873 -4.67012e-06 -0.000464352)
(-1.45113e-07 -5.45657e-06 8.03247e-06)
(-0.00250109 0.00124223 3.36238e-11)
(-3.25951e-05 -1.15738e-05 2.98014e-06)
(-6.09819e-06 1.19786e-05 -9.37486e-06)
(-2.93085e-07 -6.78052e-06 -7.98944e-06)
(-3.88743e-07 -5.7841e-06 -7.98944e-06)
(0.00474799 0.000389889 -8.86181e-07)
(0.00475162 -0.000307862 -8.86181e-07)
(6.87473e-06 -3.98612e-05 -9.76271e-07)
(1.32298e-06 -2.36141e-05 -4.27974e-06)
(1.52072e-07 -1.14174e-05 -7.98944e-06)
(1.32298e-06 -2.36141e-05 -2.08994e-06)
(1.32298e-06 -2.36141e-05 -2.58764e-06)
(1.684e-06 1.47896e-05 -5.79761e-07)
(1.21978e-08 4.71731e-06 -5.79761e-07)
(-4.00354e-05 1.69463e-05 7.4261e-06)
(-0.00103408 0.000211852 0.000154278)
(-0.000256366 0.000453992 -0.000180016)
(-9.36148e-05 -2.27357e-07 4.54334e-07)
(1.77236e-05 -6.22627e-05 0.00032706)
(1.24062e-07 -1.89024e-07 -3.61193e-06)
(0.00137125 4.00643e-05 -0.000464352)
(-6.05703e-06 2.89924e-05 -9.37486e-06)
(0.00474592 0.000411529 -8.86181e-07)
(3.11616e-06 -2.74488e-05 -9.76271e-07)
(-1.8014e-05 -4.24265e-05 7.4261e-06)
(-6.04997e-06 1.14764e-05 -9.37486e-06)
(0.00194523 -0.000470096 1.56494e-09)
(-4.08469e-06 3.96343e-06 6.33026e-06)
(9.71596e-06 -8.20921e-06 9.86952e-06)
(0.000851968 3.5617e-07 1.01884e-06)
(2.73883e-05 -8.92472e-06 2.30245e-06)
(0.00248511 -0.0069724 0.000943986)
(0.00233121 -0.00604517 0.000943986)
(0.000772088 -1.98704e-08 0.000323712)
(-3.77482e-06 -8.56283e-05 -0.000194213)
(-4.14442e-05 -6.52689e-05 1.4691e-09)
(5.80538e-05 0.000222447 7.67456e-07)
(2.73396e-05 -9.78955e-06 2.30245e-06)
(0.000384222 0.000594527 -1.20188e-06)
(-0.00355622 -0.000174952 1.12844e-05)
(-4.1266e-05 -1.27202e-05 -6.23262e-07)
(2.94296e-05 -1.21176e-05 7.4261e-06)
(-6.16598e-06 1.26848e-05 -9.37486e-06)
(-2.17876e-07 -1.64384e-05 -7.29548e-07)
(-3.10481e-05 -1.66828e-05 -6.23262e-07)
(-6.52761e-06 1.64517e-05 -9.37486e-06)
(-2.17876e-07 -1.64384e-05 -7.06742e-07)
(-1.53821e-06 -2.68525e-06 -9.76271e-07)
(-6.08262e-06 1.18164e-05 -9.37486e-06)
(-6.15228e-06 1.25421e-05 -9.37486e-06)
(-1.0999e-06 -7.25085e-06 -9.76271e-07)
(-1.01047e-06 -8.18245e-06 -9.76271e-07)
(-2.17876e-07 -1.64384e-05 -7.35466e-07)
(6.84796e-06 0.000150823 2.52204e-09)
(-4.08841e-05 1.74273e-05 7.4261e-06)
(0.0047833 2.21335e-05 -6.93614e-06)
(0.000140882 -0.000541312 6.34188e-07)
(2.46481e-06 1.30073e-06 -1.38518e-09)
(-1.45113e-07 -5.45657e-06 5.18027e-06)
(0.00105898 -1.98704e-08 0.000167277)
(-0.00357349 4.96649e-06 1.53523e-05)
(0.0013002 -0.000387283 0.00012285)
(0.00105898 -1.98704e-08 0.000172453)
(0.00045051 0.000165477 -8.15286e-07)
(0.000228538 1.57334e-06 0.00032706)
(5.19154e-06 -1.99542e-05 3.62176e-06)
(-3.28922e-05 -8.47906e-06 -6.23262e-07)
(-3.28951e-05 -8.44885e-06 -6.23262e-07)
(3.06892e-05 -1.2499e-05 7.4261e-06)
(-0.00262369 0.000837347 3.36238e-11)
(-2.17461e-05 -1.20057e-05 1.79958e-06)
(-2.0147e-05 -1.15209e-05 1.79958e-06)
(-0.000176844 -0.000607856 2.87775e-06)
(7.53154e-06 -6.0118e-06 -6.40611e-07)
(-6.07985e-06 1.17877e-05 -9.37486e-06)
(-2.17876e-07 -1.64384e-05 -6.94991e-07)
(7.53154e-06 -6.0118e-06 -6.31808e-07)
(7.53154e-06 -6.0118e-06 -6.72546e-07)
(0.000148917 -0.000834013 2.58225e-05)
(0.000883232 0.000997625 1.61098e-06)
(0.0047833 2.21335e-05 -9.28382e-06)
(0.000133703 8.52637e-05 7.4644e-09)
(-0.0039737 0.00104768 -2.45963e-07)
(1.17335e-06 -6.53124e-07 2.48346e-11)
(3.32064e-08 6.29328e-08 1.49247e-06)
(-0.000624889 0.000211852 8.12996e-05)
(0.00195092 -0.00346951 0.000943986)
(-0.000351977 -0.0036574 7.74349e-06)
(-3.82507e-05 0.000387862 -0.000180016)
(-0.00357349 4.96649e-06 1.4557e-05)
(-1.26967e-05 1.4652e-07 1.49102e-05)
(-0.000254529 -0.000261264 7.09214e-07)
(-0.000154974 -0.000614479 2.87775e-06)
(0.00321565 0.000637087 -3.8994e-06)
(-2.14508e-05 -5.9659e-05 7.4261e-06)
(-3.29813e-05 -1.13684e-05 -1.63607e-06)
(-0.00335629 -0.00166153 6.29652e-06)
(0.00309273 0.00191747 -8.21655e-06)
(-6.89429e-06 2.02712e-05 -9.07824e-06)
(1.40932e-05 -1.96949e-05 1.79958e-06)
(-1.94695e-05 -4.97244e-05 7.4261e-06)
(-9.61178e-06 -2.95612e-07 -5.79063e-06)
(0.000169214 7.58288e-05 1.01673e-07)
(0.00186091 0.00531476 0.000846665)
(0.00186091 0.00489377 0.000846665)
(0.000113758 -4.62793e-11 -3.34909e-06)
(0.000113758 -4.62793e-11 -2.36214e-06)
(4.90123e-05 0.0053055 2.87775e-06)
(-0.00623601 -0.00243808 2.23563e-06)
(2.34615e-05 -9.10601e-05 -0.000194213)
(3.92745e-06 -2.69705e-07 -9.18542e-07)
(-0.000282355 -0.000575907 1.68629e-06)
(-2.13108e-05 0.00405734 2.87775e-06)
(5.62823e-06 1.38139e-05 -1.63607e-06)
(0.000252042 0.00191747 -3.8994e-06)
(2.53044e-06 2.55764e-05 -7.62907e-05)
(-0.000134807 -8.14047e-05 -2.2123e-07)
(0.000236606 8.24951e-05 1.01673e-07)
(-2.10533e-05 5.53079e-07 1.72963e-05)
(0.000135272 9.92728e-05 7.4644e-09)
(7.82949e-06 -4.84428e-06 1.86853e-05)
(-0.00261392 -0.00263818 2.20627e-06)
(0.00186091 0.00454536 0.000846665)
(-0.00359256 -0.0036574 1.22278e-05)
(0.00116705 0.000179755 0.00032706)
(1.98133e-05 -1.57432e-06 -0.000176707)
(1.98133e-05 -1.57432e-06 -0.000168348)
(-1.18089e-05 -2.31203e-05 -5.05228e-08)
(-0.00221133 -0.0036574 7.74349e-06)
(-6.92925e-05 1.4652e-07 -8.97802e-08)
(-0.00357349 4.96649e-06 1.52253e-05)
(-0.00357349 4.96649e-06 1.47845e-05)
(-0.00357349 4.96649e-06 1.52648e-05)
(-0.000254529 -0.000261264 5.02241e-06)
(1.00385e-05 -3.80267e-05 3.62176e-06)
(0.00333923 0.00182396 -5.85168e-06)
(-4.87352e-06 -8.61644e-06 8.42507e-06)
(7.53154e-06 -6.0118e-06 -9.24627e-07)
(0.000869588 0.00101127 1.61098e-06)
(2.58352e-05 2.02712e-05 -9.37486e-06)
(0.000308097 -5.65791e-05 -2.36205e-06)
(-0.00166 0.000607831 9.82406e-06)
(-0.00165555 0.000654196 9.82406e-06)
(0.00186091 0.00495228 0.000846665)
(-5.2292e-05 0.000113247 8.80142e-10)
(-1.22242e-05 -3.18282e-05 -5.05228e-08)
(-1.0223e-05 2.59138e-05 -8.97802e-08)
(-0.000100517 0.000171234 -4.85905e-07)
(-7.02754e-05 1.4652e-07 -8.97802e-08)
(0.00196678 -0.00346053 0.000943986)
(0.00330512 0.00188414 -1.28818e-06)
(-1.26967e-05 1.4652e-07 1.33728e-05)
(7.53154e-06 -6.0118e-06 -1.90831e-06)
(-0.000753921 -0.00530981 9.86497e-06)
(0.00188053 0.00191747 -3.8994e-06)
(-4.87352e-06 -8.61644e-06 -1.92724e-07)
(-1.01667e-05 -3.51577e-05 1.72963e-05)
(6.35703e-06 6.22237e-06 -1.63607e-06)
(-1.81024e-05 -1.11926e-06 1.72963e-05)
(0.000138035 8.77614e-07 -3.57765e-05)
(-2.89031e-05 1.41866e-05 -7.73529e-05)
(-0.000286997 0.00102079 -4.85905e-07)
(-0.000201123 -0.0036574 7.74349e-06)
(0.000851968 3.5617e-07 -5.30066e-07)
(0.000113164 4.00792e-05 1.10146e-09)
(3.82507e-06 1.03714e-06 -6.61479e-07)
(-0.00359256 -0.0036574 1.45576e-06)
(-0.000281824 0.00104768 -2.45963e-07)
(7.64726e-09 -1.02894e-09 -1.69732e-06)
(-0.00359256 -0.0036574 5.16404e-06)
(-1.6612e-05 4.1401e-06 -1.44761e-05)
(-8.78798e-06 4.08614e-05 -8.97802e-08)
(0.000136821 0.000446266 1.03188e-06)
(-0.000160353 2.96286e-05 4.54334e-07)
(2.80647e-05 1.4652e-07 -8.97802e-08)
(3.87353e-05 1.4652e-07 -8.97802e-08)
(-8.9654e-06 -3.87203e-05 -8.97802e-08)
(-9.71979e-06 -3.08622e-05 -8.97802e-08)
(0.000307751 1.41634e-05 3.64133e-06)
(0.00323967 0.00344801 -3.8994e-06)
(-6.2511e-06 2.69709e-05 -9.37486e-06)
(7.83523e-05 8.77614e-07 -3.57765e-05)
(0.000485815 -0.0027531 4.32246e-05)
(5.68925e-06 1.31782e-05 -1.63607e-06)
(-2.03133e-06 6.74145e-05 7.4261e-06)
(-0.00156897 0.00155612 1.34349e-05)
(-0.000839394 -5.72087e-05 2.08006e-05)
(4.66766e-10 -4.91914e-10 -1.09643e-06)
(0.00186091 0.00536483 0.000846665)
(0.000106424 -2.95494e-06 -4.95793e-10)
(-0.00359256 -0.0036574 2.15231e-06)
(0.00316301 -0.00133335 4.62626e-06)
(-7.84214e-06 2.75276e-06 -1.08785e-10)
(-2.77836e-06 -6.66031e-07 -8.77365e-11)
(-7.83818e-06 8.57299e-07 3.53796e-10)
(0.00210848 -0.000335973 0.00119541)
(0.000899184 -0.00170314 -1.22113e-06)
(-1.26967e-05 1.4652e-07 -7.38307e-06)
(4.2362e-05 1.4652e-07 -8.97802e-08)
(6.18938e-05 -6.34396e-07 -1.63607e-06)
(0.00187873 8.77614e-07 -0.00113122)
(0.000113947 -2.66548e-05 -6.32676e-07)
(0.000511092 5.143e-05 2.37979e-06)
(-0.000668795 -0.00103165 1.39448e-06)
(-5.86327e-06 3.09684e-06 1.97932e-07)
(0.00333923 0.00182396 -2.11167e-07)
(0.00316301 -0.00147112 4.62626e-06)
(-0.00297166 -0.0036574 7.74349e-06)
(0.00422621 1.9134e-08 -9.39818e-07)
(0.00422621 1.9134e-08 -1.07659e-06)
(-0.00228812 0.00104768 -3.10099e-06)
(0.000668506 -0.00119417 -2.36205e-06)
(-9.60457e-06 -3.20624e-05 -8.97802e-08)
(-0.00335629 -0.00166153 -9.36006e-07)
(-1.26967e-05 1.4652e-07 -9.30865e-06)
(-0.00253531 -0.0012705 -2.39644e-06)
(-9.7179e-06 -3.08819e-05 -8.97802e-08)
(-0.00159882 -0.0097823 1.32699e-06)
(-4.50811e-05 -7.67624e-06 3.27722e-06)
(-0.000254529 -0.000261264 1.74403e-05)
(-0.00542551 -0.00221952 2.23563e-06)
(-4.87352e-06 -8.61644e-06 3.58671e-05)
(-0.00172535 -0.00133627 2.23563e-06)
(5.32718e-05 -1.48727e-06 -1.63607e-06)
(-0.00183008 -0.00313643 2.20627e-06)
(0.000984044 0.00126481 2.37979e-06)
(-4.87352e-06 -8.61644e-06 3.5711e-05)
(0.00159076 0.00146963 3.82918e-06)
(1.67457e-05 -8.27686e-06 7.4261e-06)
(-4.14662e-07 -1.84298e-06 -7.05634e-06)
(-0.00228812 0.00104768 -1.84458e-06)
(0.00316301 -0.00165358 4.62626e-06)
(0.00316301 -0.000237568 4.62626e-06)
(-0.000255632 0.000428483 5.53404e-07)
(-0.00335296 -0.00573481 1.26276e-05)
(0.0077338 0.00255337 -1.28818e-06)
(0.000136821 0.000446266 1.58478e-06)
(-0.00247015 -0.00138546 -3.33837e-06)
(-1.26967e-05 1.4652e-07 -1.21845e-05)
(-0.00162617 -0.0100588 1.32699e-06)
(-0.00200948 -0.00624077 1.26276e-05)
(-0.00297729 -0.00594771 3.47059e-05)
(-3.80834e-06 1.56049e-05 3.27722e-06)
(-0.00408633 -0.0115087 1.26276e-05)
(4.97326e-06 2.06362e-05 -1.63607e-06)
(7.53154e-06 -6.0118e-06 -2.57818e-06)
(8.68764e-05 -2.93325e-05 -6.32676e-07)
(-4.87352e-06 -8.61644e-06 -4.95369e-06)
(-0.00322746 -0.00580593 1.26276e-05)
(5.11186e-05 -1.4261e-05 1.21002e-05)
(0.00316301 -0.00178611 4.62626e-06)
(0.00316301 -0.00462178 -2.68388e-06)
(0.00786553 1.9134e-08 2.1494e-07)
(9.71628e-05 4.70184e-05 -1.28267e-09)
(0.00316301 -0.0018016 4.62626e-06)
(-0.00158644 -0.0096572 1.32699e-06)
(-2.11864e-06 -1.99569e-06 4.638e-06)
(-2.11864e-06 -1.99569e-06 4.77465e-06)
(-0.00184157 -0.00629161 1.26276e-05)
(-0.0033271 -0.00574946 1.26276e-05)
(-0.00212758 -0.000584107 2.20627e-06)
(-0.00325655 -0.00578944 1.26276e-05)
(-0.00297729 -0.00594771 2.93281e-05)
(-0.00297729 -0.00594771 3.09433e-05)
(-4.01647e-06 1.77729e-05 3.27722e-06)
(-0.00326608 -0.00578405 1.26276e-05)
(0.000125232 0.000113563 -1.08406e-09)
(-4.87352e-06 -8.61644e-06 1.0627e-06)
(-6.11812e-06 -3.21872e-07 -8.70512e-07)
(-0.00167715 0.000429201 9.82406e-06)
(0.00375972 0.00485912 2.1494e-07)
(0.00316301 -0.00189495 4.62626e-06)
(4.26965e-06 8.6431e-07 7.7838e-09)
(0.00316301 -0.00199528 4.62626e-06)
(0.00316301 -0.00462178 -2.69013e-06)
(0.00316301 -0.00462178 -2.94679e-06)
(2.7371e-05 -0.00446623 -5.54879e-06)
(0.000153863 -0.0010007 5.6386e-06)
(-0.00115976 -0.00534373 1.02378e-05)
(-4.83209e-05 8.30679e-06 -0.000146038)
(-8.39919e-05 6.65017e-05 2.43614e-06)
(0.00345198 -0.000468869 0.000643729)
(-0.0019552 -0.00625721 1.26276e-05)
(-0.00163318 -0.0101297 1.32699e-06)
(-0.00161597 -0.00995568 1.32699e-06)
(5.91518e-05 0.000100385 -1.08406e-09)
(-0.00366922 -0.00941719 1.26276e-05)
(-0.00197087 0.00264243 3.01316e-06)
(0.00143089 4.15846e-05 2.42604e-06)
(-4.72529e-07 -3.59991e-06 -7.05634e-06)
(0.00316301 -0.00171287 4.62626e-06)
(4.90216e-05 0.000225731 7.71228e-05)
(-3.3806e-05 2.41849e-05 -3.38914e-11)
(-0.00253531 -0.0012705 -4.27133e-06)
(2.7371e-05 -0.000196909 -7.2308e-06)
(0.00372887 0.00518048 2.1494e-07)
(1.00966e-06 -1.11632e-07 5.05981e-06)
(0.00837004 1.9134e-08 2.1494e-07)
(2.7371e-05 -0.00200024 -7.2308e-06)
(-1.6612e-05 4.1401e-06 4.86703e-06)
(-1.57729e-05 1.07151e-05 0.000276776)
(-3.80564e-05 4.58188e-05 1.13242e-09)
(-0.000383876 0.00172495 -8.29049e-07)
(-0.00124698 -0.00128723 5.49962e-06)
(-6.99019e-05 6.15645e-05 -1.10554e-05)
(-1.6612e-05 4.1401e-06 8.45986e-06)
(7.75738e-06 -3.86116e-05 -3.25968e-06)
(-0.0015498 -0.00928673 1.32699e-06)
(0.00376496 0.00259314 5.08557e-07)
(-7.07776e-07 -1.0656e-05 7.5885e-06)
(-0.0015417 -0.00920491 1.32699e-06)
(-7.07776e-07 -1.0656e-05 6.57411e-06)
(-0.00245448 -0.00610602 1.26276e-05)
(0.00411185 0.00224625 2.73353e-06)
(-2.11864e-06 -1.99569e-06 7.78446e-06)
(-0.00384952 -0.0016249 -3.33837e-06)
(-2.79799e-06 5.08077e-06 3.27722e-06)
(0.00141995 -5.61155e-05 2.42604e-06)
(-5.41479e-05 -1.20273e-08 -1.29465e-11)
(-3.73629e-05 -1.20273e-08 -1.29465e-11)
(-5.26772e-08 -1.19045e-07 1.40624e-06)
(2.7371e-05 -0.00130468 -7.2308e-06)
(-0.00378676 -0.00568032 7.74349e-06)
(-5.13912e-05 0.000105773 -3.38914e-11)
(-0.000423303 3.71211e-06 3.38816e-07)
(5.59475e-06 -1.51671e-05 3.88207e-07)
(-0.000151452 5.55506e-05 5.01777e-05)
(-7.6595e-06 5.6962e-06 -2.50007e-06)
(4.19831e-06 0.00251875 -3.34323e-06)
(0.000153863 -0.0010007 5.53476e-06)
(0.000111909 0.00251875 9.89609e-06)
(-1.6612e-05 4.1401e-06 5.94531e-06)
(-1.6612e-05 4.1401e-06 6.2097e-06)
(-1.6612e-05 4.1401e-06 2.43215e-06)
(2.7371e-05 -0.00446623 -5.76444e-06)
(4.97127e-05 0.000231664 -1.45936e-06)
(7.49545e-06 -3.77466e-05 -3.25968e-06)
(-0.00148603 -0.00864207 1.32699e-06)
(0.00445502 -0.000568088 0.000643729)
(-4.59428e-05 -1.6637e-05 -3.25968e-06)
(6.97503e-05 -0.000124557 5.04999e-06)
(-1.62013e-05 2.57084e-05 -8.23205e-07)
(-0.00384722 0.00451878 1.06341e-06)
(-0.00149793 -0.00876238 1.32699e-06)
(-0.00378597 -0.0100026 1.26276e-05)
(0.00664976 1.41634e-05 3.64133e-06)
(-7.07776e-07 -1.0656e-05 7.9486e-06)
(-0.00392204 -0.0106849 1.26276e-05)
(-0.00096594 -0.0014499 5.49962e-06)
(-0.00368198 -0.00458885 7.74349e-06)
(0.000485993 -0.000702961 0.000408021)
(-0.00377212 -0.00552781 7.74349e-06)
(7.4583e-05 2.2782e-05 2.25004e-08)
(-7.58379e-06 2.36081e-06 7.2839e-12)
(0.0010142 7.22867e-05 0.000127919)
(2.7371e-05 -0.00446623 -9.15739e-06)
(-0.00162997 -0.0100972 1.32699e-06)
(-1.05671e-05 8.39762e-06 0.000276776)
(-0.000291406 0.00153104 -6.34694e-07)
(0.000339076 0.000152498 -3.34323e-06)
(0.000111909 0.00251875 5.23777e-06)
(0.000111909 0.00251875 9.81613e-06)
(-4.55719e-05 -1.6588e-05 -3.25968e-06)
(7.56962e-06 -3.79915e-05 -3.25968e-06)
(-0.00246243 -0.00610361 1.26276e-05)
(-3.55684e-06 1.9021e-05 -3.25968e-06)
(-0.0019979 -0.00624427 1.26276e-05)
(-0.00115976 -0.00534373 7.28674e-06)
(-2.11864e-06 -1.99569e-06 8.96313e-06)
(-0.00342368 -0.00818599 1.26276e-05)
(5.76741e-05 3.91888e-06 3.27722e-06)
(5.92009e-05 4.06991e-06 3.27722e-06)
(0.00317568 0.000234648 3.64133e-06)
(9.92839e-05 -0.000405511 1.79722e-06)
(-0.00359256 -0.0036574 7.93613e-07)
(0.000425129 -0.00442805 -7.2308e-06)
(1.38012e-05 -1.24767e-05 6.06618e-06)
(-0.000314655 0.000524426 7.06641e-07)
(2.06207e-07 -4.50226e-06 8.61252e-07)
(-1.83376e-05 5.3635e-05 7.00803e-07)
(0.00431484 -2.97286e-06 1.29785e-06)
(0.000319976 -0.00443814 -7.2308e-06)
(-0.00115203 -0.00698048 -9.94877e-06)
(1.97284e-05 -3.21858e-06 8.7552e-07)
(-4.96815e-06 0.00251875 -3.34323e-06)
(0.0016064 0.000460196 -0.000369626)
(0.000258968 0.000986929 -3.34323e-06)
(-1.37479e-06 -1.85064e-06 2.56361e-07)
(-0.00149259 -0.00524295 1.32699e-06)
(0.00411185 0.00224625 -1.70461e-06)
(1.67551e-05 -2.62047e-05 1.99476e-06)
(-2.148e-05 2.57084e-05 -8.23205e-07)
(-7.07776e-07 -1.0656e-05 -1.2197e-05)
(-2.15514e-05 2.57084e-05 -8.23205e-07)
(7.44062e-05 -0.000173055 5.04999e-06)
(6.64243e-05 -0.00101227 5.04999e-06)
(-0.00197087 0.00264243 -1.2084e-06)
(0.00606445 0.00257035 5.08557e-07)
(5.86833e-05 4.0187e-06 3.27722e-06)
(0.00317113 0.000282017 3.64133e-06)
(-4.19117e-06 1.95926e-05 3.27722e-06)
(-0.000163672 -1.20273e-08 -1.29465e-11)
(-0.000457583 0.000146656 0.000124281)
(0.00251812 -2.97286e-06 -7.77187e-07)
(-0.000314655 0.000524426 6.83665e-07)
(-0.000406587 -0.000478021 -0.000298855)
(0.000485993 -0.000272967 1.93484e-08)
(9.39713e-06 -0.000264066 -8.09936e-06)
(9.39713e-06 -0.000264066 -9.218e-06)
(-2.49071e-06 0.00251875 -3.34323e-06)
(0.000250222 0.00107803 -3.34323e-06)
(-0.000498196 -0.000175488 -4.61614e-06)
(-0.000323796 -5.72108e-05 -5.91848e-06)
(2.7371e-05 -0.00446623 -9.45795e-06)
(-1.71956e-05 -1.83407e-05 -3.46306e-07)
(-7.6595e-06 5.6962e-06 -2.51467e-06)
(1.10704e-05 -3.34898e-06 -1.43445e-05)
(1.10704e-05 -3.34898e-06 -1.43303e-05)
(7.53499e-06 2.46959e-05 -8.23205e-07)
(8.18122e-06 -4.00113e-05 -3.25968e-06)
(-0.00395103 -0.0111779 -1.65957e-05)
(-0.00320145 -0.00566459 -1.65957e-05)
(-0.00288703 -0.00584278 -1.56548e-05)
(-0.00297729 -0.00594771 -1.49368e-05)
(-0.00297729 -0.00594771 -8.3702e-06)
(0.00666705 1.41634e-05 3.64133e-06)
(7.54719e-06 2.65939e-05 -8.23205e-07)
(0.00669979 1.41634e-05 3.64133e-06)
(-0.00115976 -0.00534373 1.85651e-05)
(-0.000254529 -0.000261264 1.89987e-05)
(-3.80399e-05 -8.50428e-06 3.34892e-06)
(6.34614e-05 -9.20004e-05 7.57223e-05)
(0.00324191 -0.00104544 -1.51984e-06)
(9.39713e-06 0.00219573 -2.54393e-06)
(0.000164356 -8.43678e-06 7.57223e-05)
(1.00966e-06 -1.11632e-07 -3.97985e-06)
(-2.61083e-05 -7.99934e-06 3.12003e-07)
(7.47692e-08 1.79272e-08 1.48404e-06)
(-6.08397e-05 -3.21872e-07 -8.70512e-07)
(-0.000939774 -0.00393853 -9.94877e-06)
(-1.72354e-05 -1.79257e-05 -3.46306e-07)
(-1.72098e-05 -1.81928e-05 -3.46306e-07)
(1.51018e-05 -1.66624e-05 -6.67994e-06)
(1.10704e-05 -3.34898e-06 -1.33764e-05)
(9.36563e-06 4.64351e-05 1.18827e-05)
(0.000769177 -9.69451e-05 -1.64039e-06)
(-5.36248e-05 7.08067e-06 8.11185e-06)
(-3.17384e-05 -1.68478e-05 7.29702e-07)
(-0.00123915 -0.00129506 1.10478e-05)
(5.7211e-05 -4.9268e-06 -3.25968e-06)
(-0.00205807 -0.00622606 1.26276e-05)
(6.97483e-05 -3.68664e-06 -3.25968e-06)
(0.000237504 9.6237e-05 0.00105485)
(0.000240861 0.000155816 0.00105485)
(0.000237786 0.000101236 0.00105485)
(-0.00234617 -0.00613882 1.26276e-05)
(0.000383649 0.000164466 1.89247e-07)
(0.00038454 0.000172424 1.89247e-07)
(0.000236716 8.22522e-05 0.00105485)
(0.000385937 0.000184908 1.89247e-07)
(2.06583e-05 2.95697e-06 -1.57844e-07)
(0.00358208 0.00762976 -7.77187e-07)
(-1.66833e-05 3.62987e-05 -2.12481e-10)
(-0.00396788 -0.0112624 -1.65957e-05)
(0.000459458 0.00163842 -0.000489521)
(3.43381e-05 -0.000261671 -2.54393e-06)
(4.27963e-05 0.000170843 -9.97081e-11)
(0.000162006 0.000798747 0.000112312)
(1.00966e-06 -1.11632e-07 -4.63513e-06)
(3.84097e-07 1.9408e-06 2.56361e-07)
(0.000111909 0.00251875 -1.22896e-05)
(4.87079e-05 0.00251875 -3.34323e-06)
(-1.66433e-06 -1.71774e-05 -3.46306e-07)
(-6.05646e-05 -1.58088e-05 3.34892e-06)
(-4.11552e-05 -5.38893e-06 3.34892e-06)
(-0.00367588 -0.00979822 -1.65957e-05)
(7.52826e-06 2.6791e-05 -8.23205e-07)
(7.59022e-05 -3.0779e-06 -3.25968e-06)
(7.74873e-05 -2.92111e-06 -3.25968e-06)
(7.52763e-06 2.67976e-05 -8.23205e-07)
(6.54451e-05 0.00014585 2.06116e-06)
(-0.000854795 6.91275e-05 1.32699e-06)
(0.00852342 1.9134e-08 2.1494e-07)
(0.00507283 1.9134e-08 2.1494e-07)
(-4.59574e-05 1.9134e-08 2.1494e-07)
(3.26767e-06 -1.12664e-06 -2.32204e-07)
(1.87427e-05 0.000126053 -3.49554e-08)
(0.000114187 5.95836e-06 4.64408e-06)
(-2.76333e-05 4.50161e-09 -2.64553e-05)
(-0.000383876 0.00172495 -2.61663e-07)
(-2.43954e-05 7.43631e-05 0.000124281)
(0.00027564 0.000615046 8.85119e-08)
(0.000276365 -2.97286e-06 -7.77187e-07)
(0.000788751 -2.97286e-06 -7.77187e-07)
(-0.000542337 -0.00399449 -9.94877e-06)
(-0.00118215 -0.00105238 1.29971e-06)
(-2.96682e-05 -5.27465e-06 -4.58584e-06)
(0.000181986 -0.00102616 -4.48096e-06)
(0.000541006 -0.000408877 -0.000369626)
(-1.73819e-05 -1.63999e-05 -3.46306e-07)
(-1.73386e-05 -1.68513e-05 -3.46306e-07)
(-0.0035746 -0.00929038 -1.65957e-05)
(-0.00101232 -0.00391657 -9.94877e-06)
(0.0092953 0.00310661 5.08557e-07)
(9.75882e-06 1.03132e-05 -6.67994e-06)
(2.94327e-05 2.57084e-05 -8.23205e-07)
(5.80817e-05 0.00092388 0.000328673)
(7.53675e-05 -3.1308e-06 -3.25968e-06)
(0.000131548 0.000152389 2.06116e-06)
(0.000201006 0.00015926 2.06116e-06)
(0.00024061 0.000151363 0.00105485)
(-0.00183284 -0.00629426 1.26276e-05)
(0.00422621 1.9134e-08 2.61377e-07)
(-0.00105345 0.000165031 1.61221e-06)
(0.00118277 0.00170786 3.89545e-07)
(0.000348622 -2.97286e-06 -7.77187e-07)
(-3.88141e-05 0.000119456 2.46632e-10)
(0.000781945 -9.61918e-05 3.54776e-05)
(-0.000386741 0.000661555 1.61221e-06)
(-7.58379e-06 1.78602e-06 -1.13169e-11)