/*--------------------------------*- C++ -*----------------------------------*\
| =========                 |                                                 |
| \\      /  F ield         | OpenFOAM: The Open Source CFD Toolbox           |
|  \\    /   O peration     | Version:  plus.master.MPPICInterFoam            |
|   \\  /    A nd           | Web:      www.OpenFOAM.com                      |
|    \\/     M anipulation  |                                                 |
\*---------------------------------------------------------------------------*/
FoamFile
{
    version     2.0;
    format      ascii;
    class       scalarField;
    location    "5.4/lagrangian/kinematicCloud";
    object      age;
}
// * * * * * * * * * * * * * * * * * * * * * * * * * * * * * * * * * * * * * //


2691
(
5.30845
5.26697
5.31885
5.32264
5.20663
5.39937
5.17913
5.2784
5.18643
5.32845
5.32085
5.3771
5.39616
5.34308
5.20212
5.26201
5.34692
5.36463
5.36848
5.30037
5.29151
5.39571
5.32528
5.1596
5.31262
5.23313
5.33827
5.27232
5.24299
5.2705
5.22948
5.32531
5.19083
5.12472
5.32017
5.197
5.34022
5.08461
5.23697
5.32733
5.20553
5.25174
5.22835
5.18127
5.16506
5.24897
5.27591
5.36538
5.1495
5.28266
5.22242
5.18155
5.27887
5.36218
5.3337
5.36389
5.39125
5.33412
5.11493
5.26963
5.36402
5.2949
5.2694
5.25922
5.28794
5.25956
5.38888
5.37647
5.29102
5.37968
5.21313
5.14497
5.21769
5.34599
5.27836
5.07767
5.39058
5.37091
5.16812
5.03934
5.23918
5.25762
5.32763
5.29823
5.3982
5.3561
5.28824
5.39583
5.34704
5.24897
5.29653
5.37171
5.18314
5.16575
5.30781
4.96558
5.17148
5.35156
5.3711
5.35693
5.25538
5.38491
5.02857
5.27367
5.10736
5.18347
5.22947
5.40089
5.25428
5.39423
5.30153
5.35975
5.2098
5.36268
5.3962
5.3561
5.09949
5.38817
5.22067
5.27393
5.37614
5.35092
5.3989
5.30888
5.2982
5.35441
5.36708
5.33156
5.37456
5.33455
5.01121
5.17389
5.39377
5.381
5.35132
5.39051
5.33755
4.98118
5.37778
5.26907
5.27899
5.29948
5.39236
5.32134
5.0585
5.12404
5.23956
5.15342
5.38506
5.29803
5.3372
5.31004
5.36931
5.08474
5.35713
5.39374
5.38893
5.18288
5.15578
5.28623
5.3484
5.27443
5.34457
5.2828
5.33953
5.26875
5.20911
5.14436
5.39063
5.02579
5.31762
5.01605
5.29827
5.3819
5.36569
5.37887
5.29926
5.26421
5.27866
5.37979
5.23972
4.93635
5.38403
5.33109
5.344
5.34325
5.28854
5.32007
5.29239
5.34932
5.23592
5.30773
5.36513
5.27324
5.23919
5.26949
5.14492
4.9675
5.39166
5.36518
5.27854
5.22498
5.27884
5.36681
5.27847
5.38896
5.35096
5.2342
5.17269
5.17376
5.24991
5.30965
5.17496
5.13446
5.2531
5.34437
5.08272
5.22077
5.36391
5.36906
5.33738
5.18522
5.12383
5.38953
4.90386
4.9757
5.35046
5.24898
5.35801
5.24992
5.28957
5.22288
5.18348
5.19048
5.32139
4.84869
5.30435
5.34696
5.15271
5.15173
5.0286
5.0291
5.21751
5.34808
5.05255
5.37036
5.23019
5.3813
5.35638
5.28896
5.18231
5.13082
5.29362
5.15281
5.31768
5.09059
5.13206
5.38552
5.18263
5.24401
5.33795
5.1367
5.33414
5.3741
5.32951
5.29829
5.01945
5.22939
4.99119
5.26865
5.31983
5.18805
5.37045
5.23019
5.3347
5.20044
5.3639
5.19667
5.10562
5.19048
5.3478
5.3781
5.23938
5.23666
5.2714
5.38549
5.26773
5.38856
5.40017
5.38092
5.38834
5.37632
5.03812
5.35417
5.18362
5.19052
5.18858
5.01141
5.39367
5.26875
5.33009
5.38357
5.34026
5.15323
5.13366
5.18489
5.18149
5.37087
5.03823
5.07516
5.15547
5.36394
5.30921
5.22075
5.157
5.05075
5.04766
5.236
5.15615
5.39137
5.3562
5.23971
5.22529
5.15239
5.13526
5.19052
5.18005
5.25951
5.34776
5.35715
5.22225
5.26176
5.14914
5.34739
5.24168
5.39908
5.03891
5.39129
5.14596
5.14287
5.34667
5.21554
5.39833
5.24208
5.3471
5.33151
5.28939
5.26155
4.85016
5.3639
5.34863
5.1056
5.20749
5.2736
5.33977
5.18785
5.39389
5.17789
5.27196
5.29799
4.97154
5.11711
5.27685
5.26861
5.29914
5.27857
5.21961
5.05825
5.39811
5.24712
5.0381
5.36721
5.36865
5.32004
5.36731
5.09016
5.38912
4.97846
5.10398
5.2614
5.27918
5.09849
5.32979
5.36542
5.40019
5.32262
5.39456
5.2874
5.34694
5.30816
5.37278
5.12519
5.33541
5.36831
5.39271
5.30111
5.30085
5.30999
5.32739
5.32379
5.37902
5.37076
5.30596
5.35845
5.26771
5.35734
5.28139
5.35603
5.00025
5.1911
5.33868
5.29401
5.16717
5.30816
5.18104
5.0517
5.39896
5.37623
5.36366
5.30818
5.27946
5.37192
5.39397
5.26249
5.40016
5.31754
5.24932
5.01927
5.12423
5.35959
5.33576
5.25277
5.31192
5.2498
5.36903
5.28111
5.38959
5.39935
5.33402
5.31067
4.95508
5.29972
5.39217
5.2237
5.24345
5.36392
5.07694
5.01039
5.15294
5.39895
5.19086
5.3644
5.35453
5.26006
5.29395
5.33759
5.18753
5.31787
5.19912
5.01937
5.37697
5.17074
5.35933
5.24903
5.3705
5.35756
5.13334
5.39383
5.35063
5.1868
5.31013
4.97184
5.37061
5.38668
5.21965
5.26383
5.14296
5.37028
5.21393
5.33179
5.18185
5.36005
5.32006
5.33753
5.34702
5.19423
5.39365
5.24595
5.10487
5.26909
5.32881
5.3373
5.3917
5.28942
5.17273
5.25421
5.23084
5.16196
5.39197
5.32778
5.35861
5.33808
5.00853
4.84222
5.33054
4.99953
5.37417
5.18186
5.31755
5.2793
5.24131
5.30463
5.15409
5.34054
5.34256
5.02333
4.94989
5.2003
5.3584
5.36273
5.32706
5.40021
5.16209
5.14188
5.36315
5.29816
5.15239
5.26209
5.23927
5.30177
5.3501
5.07205
5.26058
5.34691
5.39427
5.02045
5.18147
5.12404
5.21259
5.15318
5.27932
5.1289
5.31416
5.23967
5.25145
5.2314
5.1365
5.24933
5.28815
5.32904
5.06703
5.2476
5.37667
5.08981
5.28138
5.30222
5.31177
5.23843
5.07619
4.8842
5.29817
5.249
5.21237
5.35612
5.27958
5.2518
5.34698
5.37634
5.36606
5.39387
5.38878
5.08828
5.20302
5.32251
5.37677
5.19794
5.34883
5.04941
5.32735
5.21105
5.26071
5.18054
5.10833
5.10396
5.24296
5.22114
5.29796
5.1256
5.32967
5.38496
5.27715
5.38002
5.08655
5.33011
5.27268
5.3598
5.30659
5.24794
5.20765
5.10941
5.17051
5.21758
5.3287
5.09868
5.31647
5.23807
5.24016
5.0413
4.97304
5.13374
5.39882
5.31543
5.22943
5.38545
5.07846
5.34691
5.28734
5.36437
5.37281
5.31065
5.25278
5.35213
5.17253
5.2301
5.29263
5.31857
5.39415
5.18206
5.19838
5.18802
5.4
4.95837
5.2784
5.14605
5.07477
5.33752
5.12512
5.26568
5.21087
5.2106
5.22805
5.39159
5.17588
5.25251
5.38029
5.35624
5.25429
5.37622
5.26808
5.06157
5.28867
5.29132
5.36099
5.27865
5.22011
5.3178
5.16215
5.1449
5.27908
5.35641
5.06674
5.2205
5.36564
5.30778
5.19684
5.13386
5.27578
5.26525
5.0703
5.2688
5.39893
5.19574
5.12726
5.23941
5.20007
5.27851
5.33765
5.22079
5.37127
5.12355
5.24999
5.35829
5.28243
5.34732
5.32402
5.26099
5.32759
5.191
5.4
5.19793
5.4
5.37078
5.25637
5.16239
5.34276
5.37647
5.17189
5.33104
5.39124
5.21232
5.38106
5.17146
5.20872
5.26912
5.15581
5.30156
5.18297
5.30894
5.13333
5.08095
5.38971
5.0762
5.23922
5.38137
5.39431
5.20149
5.39154
5.32768
5.38604
5.2675
5.33713
5.09817
5.39157
5.29175
5.36413
5.31088
5.23171
5.06125
5.38177
5.25123
5.19049
5.32829
5.30795
5.28449
5.39923
5.37287
5.35668
5.09835
5.27073
5.18354
5.32614
5.31766
5.34744
5.24898
5.36015
5.01522
5.34792
5.30799
5.26865
5.22016
5.29883
5.26109
5.08578
5.16236
5.25876
5.3814
5.30775
5.2059
5.24902
5.32648
5.38835
5.26082
5.24523
5.38451
5.33296
5.25876
5.09105
5.25927
5.31621
5.33722
5.37027
5.17839
5.07619
5.30078
5.28142
4.98534
5.16268
5.35624
5.19568
5.21255
5.32302
5.16192
5.3639
5.39131
5.21714
5.2596
5.38243
5.14118
5.2
5.09535
5.39064
5.00117
5.30132
5.06315
5.28462
5.25018
5.36385
5.28616
5.25767
5.0579
5.17017
5.16618
5.29912
5.34087
5.13386
5.38629
5.2199
5.39743
5.37724
5.09649
5.35678
4.9334
4.9537
5.01924
5.37613
5.35654
5.24019
5.30234
5.35702
5.36656
5.38659
5.05944
5.38097
5.37742
5.28648
5.27315
5.27331
5.28099
5.38866
5.35818
5.19488
5.39031
5.16654
5.11522
5.24729
5.35623
5.33725
5.17133
5.3937
5.34045
5.16423
5.36918
5.2592
5.25562
5.25206
5.25891
5.3662
5.16191
5.27971
5.36464
5.32309
5.3844
5.34212
5.27943
5.08187
5.30865
5.3008
5.11735
5.35755
5.34209
5.26995
5.38257
5.22305
5.07629
5.39884
4.94526
5.32657
5.3072
5.32317
5.15521
5.1732
5.06999
5.34561
5.16613
5.14478
5.35247
5.22081
5.13999
5.3325
5.30349
4.89848
5.27207
5.10933
5.17214
5.31944
5.33716
5.15498
4.81913
5.31006
5.39027
5.30534
5.23942
5.39132
5.32835
5.31753
5.36047
5.33213
5.3653
5.36658
5.23829
5.34747
5.00214
5.36067
5.36077
5.39081
5.22994
5.3374
5.27081
5.28668
5.38091
5.15446
5.14205
5.37973
5.28814
5.22556
5.2686
5.34778
5.24853
4.84173
5.25876
5.25944
5.03881
5.33536
5.3522
4.9728
4.95364
5.37139
5.35361
5.14019
5.27045
5.40072
5.35578
5.18129
5.38837
5.23289
5.01306
5.2839
5.38669
5.35625
5.28169
5.05094
5.24967
5.38118
5.27277
5.3481
5.348
5.05717
5.27428
5.11757
5.34692
5.27492
5.25222
5.1299
5.3276
5.35256
5.34899
5.16336
5.25026
5.17814
5.0673
4.98935
5.20286
4.93888
5.27963
5.33018
5.00232
5.11532
5.03324
5.30987
5.21962
5.10296
4.98096
5.2654
5.20615
5.18484
5.22193
5.38628
5.39589
5.2683
5.22965
5.32734
4.94221
5.2184
5.37054
5.22281
5.05328
5.38379
5.0983
5.33713
5.32999
5.17268
5.28165
5.12385
5.34624
5.31766
5.10299
4.95688
5.28041
5.34715
5.2098
5.31159
5.20276
5.29251
5.38224
4.90493
5.22975
5.23153
4.87685
4.95249
5.20669
5.22943
5.34697
5.36435
5.37856
5.28707
5.35621
5.37062
5.28871
5.24784
5.37525
4.94344
5.29711
5.33719
5.35323
5.30183
5.10555
5.27505
5.12936
5.3401
5.29805
4.91429
5.39495
5.30655
5.20052
5.35611
5.38984
5.18404
5.29423
5.39764
5.27162
5.35645
5.37065
5.39569
5.37055
5.19072
5.28843
5.34392
5.19135
5.38044
5.13221
5.25802
5.17143
5.2
5.38256
5.36422
5.36217
5.39599
5.3244
5.04917
5.30776
5.24088
5.10502
5.39135
5.33718
5.16354
5.33851
5.35868
5.23935
5.22636
5.16341
4.87848
5.39894
5.04789
5.00123
5.27273
5.39739
4.93416
5.3971
5.35439
5.37666
5.33277
5.37204
5.35757
5.3731
5.33003
5.25947
5.143
5.35768
5.25528
5.33779
5.36788
5.38528
5.19102
5.12799
5.16399
5.35992
5.1823
5.10484
5.12649
5.27843
5.13996
5.30806
5.29194
5.2349
5.03813
5.39955
5.17146
4.93944
5.35804
5.33074
5.28065
5.18138
5.2766
5.08883
5.35191
5.30674
5.39851
5.30369
5.14286
5.01457
5.31298
5.11395
5.25632
5.14991
5.00178
5.302
5.05268
5.08713
5.27911
5.19367
5.09898
5.28008
5.39142
4.98478
5.35239
5.28815
5.23998
5.24684
5.26969
5.37714
5.25939
5.16634
5.36998
5.1687
5.21033
5.06057
5.03927
5.20055
5.26856
5.39183
5.38869
5.27002
5.02902
5.22012
5.34539
5.2889
5.37613
5.30812
5.30433
5.33979
5.21066
5.11817
5.30946
5.29987
5.21039
5.33767
5.21288
5.02894
5.17957
5.39881
5.34476
5.38153
5.1829
5.39921
5.26866
5.2022
5.31181
5.31908
5.33857
5.33975
5.00551
5.34707
5.30019
5.20535
5.17145
5.39451
5.36944
5.27041
5.2098
5.19191
4.89664
5.27698
5.2826
5.33711
5.31452
5.12605
5.21959
5.02788
5.17706
5.31484
5.33406
5.22149
4.94341
5.03165
5.39367
5.13529
5.39235
5.25952
5.34693
5.31623
5.23026
5.33721
5.37539
5.38849
5.30409
5.17658
5.0362
5.39546
5.36162
5.38559
5.40013
5.13859
5.37105
5.07462
5.15568
5.13612
5.28901
5.26858
5.39369
5.18376
5.06855
5.37146
5.37065
4.96298
5.15264
5.39123
5.0773
5.32149
5.29746
5.34767
5.31803
4.94441
5.26963
5.26112
5.36189
5.36996
5.39739
5.30548
4.89134
5.01117
4.96223
5.28086
5.39428
5.32757
5.16194
5.17206
5.2198
5.22322
5.33679
5.26856
5.14423
5.38174
5.31336
5.34135
5.28717
5.37148
5.35626
5.34871
5.18048
4.98201
5.03197
5.36096
5.21967
5.25357
5.24899
5.32736
5.36442
5.28644
5.34804
5.31753
5.00144
5.29933
5.30839
5.26254
5.20471
5.1172
5.24318
5.39127
5.33837
4.99287
5.38113
5.20355
5.38283
5.19223
5.31752
5.20994
5.30115
5.39848
5.18107
5.324
5.24857
5.26597
5.31754
5.13482
5.26047
5.25939
5.33738
5.269
5.38107
5.37757
5.04418
5.16799
5.33409
5.32395
5.20061
5.36905
5.09583
5.18339
5.09782
4.87932
4.963
5.21831
5.21066
5.04774
5.35505
5.32739
5.10816
5.24919
5.31956
5.15238
5.15239
4.89559
5.01717
5.28894
5.38303
4.97354
4.96084
5.36389
5.19151
5.15377
4.96411
5.22066
5.2133
5.34338
5.32297
5.18157
5.08509
5.31064
5.31807
5.35816
5.36672
5.12397
5.29813
5.01112
5.28356
5.28878
5.24033
5.3646
5.29419
5.26516
5.35145
5.38098
5.16345
5.24986
4.99049
5.06105
5.22217
5.33711
4.99524
5.098
4.8788
5.26775
5.32746
5.30254
5.3669
5.27844
5.33187
5.2981
5.25241
5.27784
5.38264
5.36394
5.34465
5.2053
5.20022
5.16242
5.18114
5.38996
5.27937
5.12698
5.40002
5.34947
5.24034
4.9775
5.34279
5.22049
5.13377
5.20092
5.30408
5.1221
5.34927
5.15938
5.39144
5.24898
5.03904
5.05476
5.2991
5.28582
5.24723
5.31582
5.18096
5.27237
5.1696
5.3108
5.3622
5.34992
5.36228
5.3641
4.89185
5.38092
5.11938
5.352
5.0584
5.04069
5.31664
5.36474
5.37657
5.32737
5.2409
5.23944
5.07638
5.20668
5.17865
5.3941
5.22975
5.36421
5.38554
4.9256
5.19422
5.30773
5.27029
5.36325
5.23984
5.37071
5.39988
5.21235
5.19176
5.37675
5.06915
5.30806
5.24007
5.2863
5.38607
5.28209
5.22096
4.90601
5.34068
5.18108
5.16899
5.32744
5.06755
5.22227
5.16209
5.16657
5.36648
5.29212
5.26001
5.39245
5.03528
5.39368
5.18352
5.19742
5.39654
4.84001
5.0803
4.88202
5.32758
5.21047
5.30886
5.3574
5.12848
5.31893
5.39828
5.09675
5.36034
5.05776
5.35738
5.17216
5.14287
5.22671
5.39626
5.24929
4.9347
5.2
5.33948
5.34388
5.33416
5.35815
5.38128
5.35918
5.12006
5.25435
5.37644
5.35242
5.38336
5.1352
5.01015
5.38228
5.39435
5.35759
5.32965
5.37621
5.36979
5.0023
5.10007
4.93334
5.27565
4.88713
5.23049
5.31964
5.36406
5.33917
5.28064
5.39191
5.37776
5.36418
5.25779
5.21122
5.13898
5.36468
5.37046
5.38075
5.21726
5.13128
5.29278
5.10732
5.2686
5.1732
5.24397
5.39592
5.26728
5.2665
5.2416
5.35113
5.31494
4.84678
5.29794
5.24505
5.10509
5.36391
5.36169
5.09533
5.34139
5.24815
5.10285
5.38179
5.37132
5.36495
5.3764
5.38834
5.20008
5.37662
5.20043
5.24563
5.25599
5.20982
5.1812
5.27139
5.25131
5.20002
5.19082
5.27034
5.13632
5.28819
5.02924
5.20008
5.26877
4.93712
5.25153
5.32073
5.39378
5.34751
5.02149
5.11088
5.10962
5.24644
5.31997
5.06673
5.31813
5.24514
5.15338
5.31782
5.27855
5.37282
5.28257
5.33966
5.0774
5.18823
5.16129
5.38301
5.35778
5.02512
5.39653
5.2005
5.26275
5.38491
5.38222
5.33007
5.12944
5.07783
5.38739
5.25839
5.32673
5.20004
5.198
5.2684
5.36554
5.30386
5.20752
4.89904
5.39365
5.37781
4.99048
5.29417
5.10525
5.10025
5.11296
5.35711
5.39391
5.14549
5.36953
5.29804
5.22014
5.06816
5.09641
5.23818
5.20025
4.89621
5.2155
5.25218
5.20982
5.36432
5.34035
5.35079
5.38836
5.11857
5.3793
5.38947
5.39946
5.35669
5.3894
5.37699
4.96544
5.34988
5.36791
5.4001
5.39133
5.33543
4.89968
5.39167
5.2415
5.15006
5.36758
5.24903
5.26533
5.11829
5.35996
5.23402
5.31331
5.24849
5.03741
5.37106
5.30779
5.38495
4.8294
5.20842
5.29595
5.2585
4.9716
5.32732
5.29442
5.31453
5.30917
5.26627
5.32078
5.28512
5.00367
5.14292
4.81906
5.20237
5.3967
5.17393
5.29544
5.3916
5.32816
5.27969
5.38162
5.12868
5.11773
5.08869
5.23302
5.39164
5.16043
5.28362
5.33773
5.39129
5.13333
5.36665
5.34126
5.2947
5.24916
5.04771
5.31994
5.32893
5.25283
5.08867
5.21559
5.21355
5.0477
5.02928
5.14288
5.30773
5.24029
5.32736
5.35913
5.30998
4.993
5.36447
5.37626
5.01441
5.14016
5.3779
5.34767
5.05757
5.18097
5.24957
5.39369
4.89674
5.33878
5.39741
5.23067
5.36496
5.38492
4.94252
5.34554
5.26121
5.09883
5.38089
5.3471
5.29736
5.3769
5.37451
5.08493
5.02861
5.12422
5.27251
5.15953
5.27886
5.36401
5.37308
5.33571
5.15222
5.20988
5.26001
5.10575
5.24306
5.12188
5.27348
5.2884
5.22941
4.94398
5.18561
5.36233
5.20197
5.07777
4.99048
5.39156
4.98975
4.93775
5.26484
5.32582
4.90032
5.23701
5.30777
5.02069
4.98331
5.0191
5.14293
5.39739
5.32796
5.15425
5.27044
5.37191
5.34177
5.29287
5.32398
5.21166
5.28815
5.37232
5.04071
5.22743
5.21113
5.26192
5.37306
5.33246
5.35617
5.20984
5.08581
5.39945
5.29254
5.35195
5.31662
5.25886
5.31447
5.08585
5.35617
5.18046
5.32418
5.38877
5.15593
5.31042
5.19077
5.29906
5.22939
4.943
5.36285
4.93431
5.38675
5.15247
5.22202
5.34643
4.8796
5.30838
5.24972
5.19053
5.23001
5.13635
5.18438
5.28519
5.17143
5.19352
5.24113
5.22932
5.32041
5.37034
5.37229
5.07464
5.26926
5.29921
4.9921
5.34762
5.08013
5.37751
5.10178
5.38161
4.96233
5.36013
5.35264
5.02675
4.90697
5.03425
5.29063
5.20587
5.37378
5.33712
5.04783
5.39124
5.23932
5.39995
5.38095
5.36395
5.08624
5.22571
5.12611
4.99438
5.27001
5.21983
5.28974
5.36716
5.28895
5.36753
5.03776
5.25166
5.30112
5.24618
5.30745
5.12382
5.37829
5.36241
5.3561
5.30141
5.22476
5.35322
5.23833
5.1833
5.10075
5.36605
5.35622
5.3842
5.1729
5.24583
5.24937
5.29778
5.35676
5.37649
4.86077
5.1862
5.35724
4.91463
5.39461
5.13167
5.38151
5.38153
5.37135
5.36644
5.37419
5.38906
4.96838
5.30997
4.97911
4.94166
5.25041
5.24799
5.21968
5.24178
5.3709
5.30276
5.08824
5.29839
5.01444
5.07794
5.30419
5.24902
5.31465
5.38435
4.98222
5.16316
5.33693
5.15445
5.24035
5.22949
5.29958
5.19873
5.15391
5.02657
5.35609
5.25051
5.35929
5.32008
5.25591
5.35067
5.3778
5.34006
5.27066
5.36743
5.39227
5.35925
5.37152
5.39378
5.15266
4.98191
5.34944
5.35699
5.2232
5.23958
4.87548
5.25827
5.37651
5.37621
5.02435
5.11986
5.36615
5.34768
5.35969
5.06761
5.2364
5.20046
5.3914
5.18128
5.31684
5.3278
5.02874
5.34486
5.37068
5.3825
5.34559
5.39047
5.37674
4.98299
5.27838
5.26113
5.26719
5.34048
5.38265
5.37092
5.23387
5.26648
5.35786
5.0193
5.25185
5.35494
5.24691
5.16198
5.21978
5.23876
5.181
5.38504
5.30269
5.35032
5.38187
5.0552
5.24017
5.20005
5.0748
4.92458
5.16863
4.93417
5.08574
5.2407
5.29845
5.35333
5.27807
5.11431
5.29294
5.36499
5.38447
5.03923
5.07736
5.21419
5.26004
5.28053
5.31955
5.30822
5.25148
5.35896
5.29409
5.01027
5.26261
5.34773
4.91515
5.40031
5.23504
5.18952
5.36477
5.11429
5.36392
5.28823
5.39526
5.20863
5.32421
5.16902
5.25541
5.34881
5.40001
5.20301
5.33747
5.37834
5.34072
5.39406
5.26024
5.36622
5.37056
5.2037
5.27429
5.25232
5.27836
5.03844
5.29817
5.26226
5.22581
5.36697
5.35855
5.20622
5.20915
5.2006
5.23949
5.17143
5.31778
5.39594
5.37082
5.12345
5.05829
5.32599
5.35364
5.12994
5.18208
5.04752
5.37631
5.1435
5.36652
5.23256
5.23032
5.37077
5.35429
5.34055
5.12382
5.23143
5.39194
5.32245
5.01376
5.14014
5.31301
5.37045
5.34462
5.191
5.23165
5.02952
5.39343
5.28883
5.39291
5.34402
5.36411
5.38943
5.35787
5.39571
5.17143
5.06122
5.37611
5.33328
5.38541
5.26929
5.27208
5.22938
5.38134
5.1708
5.20979
4.95483
4.92433
5.32549
5.06667
5.08685
5.23919
5.33111
5.05715
5.36834
5.29292
5.22952
5.27925
5.36692
5.27915
5.29081
4.97266
5.29297
5.14768
5.09404
5.38258
5.37794
5.35622
5.0865
5.14071
5.1716
5.39178
5.33144
5.30543
5.24361
5.23917
5.36729
5.34081
5.31937
5.39743
5.39547
5.13781
5.24387
5.1152
5.31952
5.30642
5.17166
5.11518
5.33322
5.35819
5.38491
5.25878
5.05937
5.20416
5.36445
5.39631
5.36884
5.06293
5.09686
5.21052
5.17317
5.35589
5.14811
5.08971
5.32724
5.25333
5.37663
5.07113
5.29054
5.36887
5.0762
5.34731
5.3767
5.07014
5.22127
5.25897
5.07893
5.29108
5.26869
5.20096
5.3749
4.95978
5.3909
4.92276
5.1895
5.38554
5.25282
5.29539
5.3004
5.39928
5.27823
4.88717
5.36399
5.34799
5.30845
5.30812
5.3084
5.11018
5.31752
5.38843
5.194
5.23922
5.18284
5.03533
5.30855
5.36967
5.10392
5.14292
5.36869
5.33902
5.1544
5.02111
5.37627
5.38841
5.28238
5.12788
5.39665
5.355
5.33783
4.83184
5.30818
5.28553
5.29047
5.4007
5.28496
5.29848
5.10768
5.35597
5.31518
5.09249
5.10498
5.38211
5.08925
5.30833
5.05891
5.24036
5.25879
5.1925
4.97899
5.26858
5.28319
5.20645
5.22093
5.30774
5.26233
5.01564
5.09534
5.35437
5.35153
5.11443
5.3995
4.98293
5.37906
5.28847
5.3646
5.37628
5.14419
5.38438
5.30258
5.23934
5.21375
5.30077
5.21813
5.2802
5.19252
5.20803
5.13091
5.37643
5.22133
5.21949
5.24294
5.32024
5.33755
5.06833
5.25106
5.26445
5.25999
5.31615
5.3977
5.23002
4.91626
5.08596
5.25878
4.98825
5.13391
5.34827
5.30693
5.32631
5.10476
4.9082
5.28914
5.28011
5.2392
5.16271
5.33274
5.32371
5.31012
5.22274
5.24879
5.38123
5.01923
5.24091
5.33872
4.83277
5.11815
4.91456
5.27838
5.35619
5.38098
5.24014
5.13868
5.28652
5.19185
5.0213
5.18129
5.38963
5.22942
5.13434
5.10483
5.39492
5.11531
5.39166
5.14752
5.23963
5.25118
4.84835
5.39798
5.38154
5.18278
5.38445
5.30091
5.19334
4.98095
5.39782
5.35911
5.33713
5.25877
5.21408
5.1426
5.35363
5.35045
5.24435
5.3204
5.32789
5.17076
5.37758
5.35804
5.3181
5.25399
5.13446
5.35717
5.24928
5.36391
5.37177
5.31783
5.0131
5.05828
5.27974
5.36396
5.01913
5.2588
5.00028
5.19308
5.39739
5.40001
5.14684
5.27327
5.03361
5.35839
5.36184
5.38097
5.21945
5.26519
5.11474
5.24899
5.3457
5.04788
5.3473
5.26004
5.39409
5.31472
5.1318
5.1489
5.38991
5.30776
5.16344
5.37169
5.23521
5.37416
5.3672
5.09608
5.37617
5.34721
5.33101
5.0371
5.20799
5.37045
5.13689
5.14955
4.85771
5.29792
5.38502
5.14969
5.33754
4.84821
5.39745
5.27841
5.35469
5.08572
5.38272
5.17179
5.20006
5.28861
5.31032
5.34703
5.22055
5.33133
4.83858
5.3437
5.28466
5.30938
5.28874
5.37745
5.21966
5.08771
5.17985
5.21058
5.32994
5.36649
5.09393
5.38741
5.36519
5.09535
4.91453
4.92643
5.27503
5.11918
5.27844
5.06809
5.17764
5.36251
5.32941
5.33183
5.17931
5.37647
5.15403
5.31092
5.22949
5.16474
5.09273
5.13501
5.30816
5.08683
5.3575
5.16126
5.39025
5.28858
5.03199
5.21086
5.30587
5.30821
5.37546
5.31627
5.39134
5.13131
5.31805
5.08576
5.30833
5.22221
4.94426
5.05836
5.3376
5.06965
5.31797
5.23452
5.12558
5.20372
5.10556
5.00016
5.28548
5.12176
5.00026
5.35685
5.31981
5.15768
5.3572
5.35066
5.21046
5.32235
5.3806
5.32813
5.22598
5.28839
5.05552
5.34867
5.11456
5.1947
5.33046
5.26057
5.15275
5.34001
5.39209
5.39308
5.17197
5.26129
5.29808
5.35176
5.24779
5.36924
5.17519
5.37174
5.3855
5.2742
5.36498
5.12237
5.23892
5.396
5.02907
5.36416
5.37831
5.15255
5.34199
5.20019
4.95705
5.23918
5.27008
5.36888
5.11449
5.26146
5.3974
5.10526
5.3241
5.27886
5.39134
5.04931
5.38285
5.25099
5.05636
5.30182
5.38703
5.29406
5.3652
5.18261
5.34691
5.20121
5.34721
5.12569
5.21073
5.31773
5.37686
5.39739
5.33639
5.37234
5.37739
5.19127
5.21341
5.27137
5.3762
5.39744
5.34901
5.32261
5.32862
5.33319
4.98143
5.32734
5.26072
5.22525
5.32397
5.29082
5.14681
5.30794
5.09528
5.31666
5.07047
5.09861
5.3168
5.39749
5.39365
5.25376
5.39204
5.28965
5.233
5.2893
5.1741
5.38806
4.9735
5.20053
5.30801
5.23261
5.12761
4.92515
5.27713
5.10747
5.32735
5.20231
5.34007
5.16566
5.39746
5.36507
5.33071
5.23522
5.14828
5.36511
5.37056
5.06349
5.12427
5.26087
5.2978
5.30345
5.27056
5.40009
5.23419
5.20154
5.21154
5.2895
5.28425
5.37105
5.37688
5.37614
5.34409
4.98541
5.22592
5.39208
5.02973
4.9678
5.37096
5.22156
4.97709
5.05376
5.38839
5.02862
5.36578
5.38129
5.3442
5.36167
5.32045
5.31527
4.90602
5.03407
4.97202
5.39131
4.90417
5.15325
5.37853
5.19557
5.3885
5.28847
5.13752
5.33742
5.14573
5.16386
5.10042
5.35642
5.19331
5.23934
5.38762
5.39125
5.14332
5.12165
5.3088
5.06554
5.36459
5.13398
5.04966
5.35062
5.39155
5.12403
5.28366
5.33042
4.9977
5.27175
)


// ************************************************************************* //
