/*--------------------------------*- C++ -*----------------------------------*\
| =========                 |                                                 |
| \\      /  F ield         | OpenFOAM: The Open Source CFD Toolbox           |
|  \\    /   O peration     | Version:  plus.master.MPPICInterFoam            |
|   \\  /    A nd           | Web:      www.OpenFOAM.com                      |
|    \\/     M anipulation  |                                                 |
\*---------------------------------------------------------------------------*/
FoamFile
{
    version     2.0;
    format      ascii;
    class       Cloud<basicKinematicMPPICParcel>;
    location    "5.4/lagrangian/kinematicCloud";
    object      positions;
}
// * * * * * * * * * * * * * * * * * * * * * * * * * * * * * * * * * * * * * //

2691
(
(-0.0346188 -0.0558802 0.510029) 2323
(-0.0353558 -0.0539548 0.507888) 2314
(-0.0420756 -0.0438636 0.510938) 2314
(-0.0452747 -0.042132 0.502994) 2026
(-0.0437638 -0.0444662 0.510495) 2314
(-0.0495923 -0.0348591 0.50343) 2026
(-0.0467126 -0.0505333 0.501693) 2315
(-0.0409616 -0.0447945 0.508256) 2314
(-0.0663927 0.0106077 0.50192) 1995
(-0.042829 -0.0480223 0.503256) 2314
(-0.0343218 -0.0560658 0.511962) 2379
(-0.02508 -0.0556055 0.507594) 2322
(-0.0643512 -0.0220858 0.504413) 2011
(-0.0418095 -0.0457022 0.507294) 2314
(-0.0609869 0.00525693 0.505568) 2002
(-0.0445694 -0.043533 0.507742) 2026
(-0.0528433 -0.0366802 0.502421) 2026
(-0.0336919 -0.0567241 0.509881) 2323
(-0.0498028 -0.0380152 0.50233) 2026
(-0.0521881 -0.0345319 0.505665) 2026
(-0.0662527 -0.00780313 0.505697) 2011
(-0.0609634 -0.0214334 0.509111) 2018
(-0.0530874 -0.0292778 0.503845) 2018
(-0.0505115 -0.0353976 0.507413) 2026
(-0.0616284 0.0070866 0.509625) 1994
(-0.0607192 -0.0100052 0.504067) 2010
(-0.0533989 -0.0329768 0.507774) 2018
(-0.0506721 -0.0348863 0.505171) 2026
(-0.0594463 -0.0168512 0.506281) 2010
(-0.0599201 0.00661107 0.510146) 2002
(-0.0622969 0.0109564 0.504642) 1994
(-0.0652475 0.00623297 0.510204) 2003
(-0.0613999 -0.00856796 0.5064) 2010
(-0.0653553 -0.00922843 0.506095) 2011
(-0.0640227 0.010628 0.504217) 1994
(-0.045637 -0.0455428 0.508033) 2026
(-0.0364307 -0.049213 0.506578) 2314
(-0.060019 -0.00957643 0.507129) 2010
(-0.0265769 -0.0608368 0.502922) 2323
(-0.0593246 -0.0245667 0.506019) 2018
(-0.0613977 -0.0145535 0.502858) 2010
(-0.0613349 -0.00905396 0.507059) 2010
(-0.0594201 -0.0089972 0.508278) 2010
(-0.0589365 -0.00882996 0.509439) 2009
(-0.0592908 -0.0145806 0.505795) 2010
(-0.060213 -0.0144507 0.504573) 2010
(-0.062221 -0.0100662 0.503331) 2010
(-0.0656514 0.00959395 0.509076) 1995
(-0.0372194 -0.0529772 0.501693) 2314
(-0.025533 -0.059883 0.503735) 2323
(-0.0639741 -0.0105382 0.509225) 2010
(-0.0584 -0.00876805 0.511064) 2009
(-0.0573626 -0.0240928 0.508756) 2018
(-0.0618835 -0.0102437 0.511144) 2010
(-0.0575278 -0.0132842 0.509479) 2009
(-0.0651658 0.00503759 0.506365) 2003
(-0.0213265 -0.0605462 0.508446) 2322
(-0.0609232 0.00364556 0.50935) 2002
(-0.065302 0.00546848 0.509467) 2003
(-0.0492586 -0.0336535 0.507615) 2025
(-0.0418587 -0.047044 0.504525) 2314
(-0.0365146 -0.0529762 0.503268) 2314
(-0.0315081 -0.051179 0.520419) 2378
(-0.0595739 -0.0252277 0.504053) 2018
(-0.0638359 -0.0105536 0.507955) 2010
(-0.0617384 -0.0252019 0.508829) 2019
(-0.0666441 0.00187494 0.502689) 2003
(-0.0346038 -0.0567905 0.512881) 2379
(-0.0450844 0.0504252 0.507083) 2699
(-0.0544568 -0.0296154 0.504089) 2018
(-0.0635968 -0.0107218 0.510636) 2010
(-0.0375494 -0.0541805 0.503823) 2315
(-0.04448 -0.0398627 0.507026) 2026
(-0.0354408 -0.0476077 0.50803) 2313
(-0.0306692 -0.0494484 0.523899) 2433
(-0.0466304 -0.0467442 0.507405) 2315
(-0.0594481 -0.023378 0.51119) 2018
(-0.0599786 -0.0230603 0.511136) 2018
(-0.036905 -0.0553651 0.504866) 2315
(-0.063533 0.0208444 0.503498) 1995
(-0.065081 0.00504283 0.504274) 2003
(-0.0634506 0.00421298 0.512006) 2058
(-0.0616574 -0.0105542 0.503382) 2010
(-0.027845 -0.0606718 0.502716) 2323
(-0.022029 -0.0587416 0.510521) 2322
(-0.0600153 0.000227457 0.50968) 2002
(-0.0659169 -0.0115294 0.503766) 2011
(-0.0614143 -0.0110552 0.509573) 2010
(-0.0612163 -0.0277486 0.503933) 2019
(-0.0645617 0.00378786 0.509135) 2002
(-0.031155 -0.0502304 0.521791) 2433
(-0.0640766 -0.0190487 0.502221) 2011
(-0.0224179 -0.0606655 0.514526) 2378
(-0.0638317 0.0214612 0.514044) 2051
(-0.0645309 0.0203812 0.503464) 1995
(-0.0542425 -0.0329361 0.507916) 2018
(-0.0603576 -0.0152844 0.504718) 2010
(-0.0495499 -0.0335241 0.516766) 2082
(-0.0625483 -0.0105432 0.509363) 2010
(-0.0636984 0.0209968 0.502303) 1995
(-0.0435223 0.0489078 0.509919) 2699
(-0.0612446 -0.0176736 0.506134) 2010
(-0.0431467 -0.0498823 0.503907) 2315
(-0.0604979 -0.02411 0.511971) 2074
(-0.0598133 -0.0243341 0.512277) 2074
(-0.0607737 -0.00902676 0.508669) 2010
(-0.0622298 -0.0167244 0.504231) 2010
(-0.0112387 -0.0626322 0.5114) 2330
(-0.0426887 -0.0507939 0.502348) 2315
(-0.0623733 0.00496067 0.508438) 2002
(-7.23093e-05 -0.0656395 0.509609) 2339
(-0.0658021 -0.0093067 0.513947) 2067
(-0.0628536 -0.0166768 0.505312) 2010
(-0.0700394 -0.0100992 0.502046) 2011
(-0.0567012 -0.0197394 0.522135) 2122
(-0.0598031 -0.0246689 0.510282) 2018
(-0.0598482 0.0288603 0.50402) 1987
(-0.0604942 -0.0338418 0.501991) 2019
(-0.027257 -0.0559841 0.507627) 2322
(-0.0639721 -0.000365521 0.505958) 2002
(-0.0614099 0.0172635 0.508143) 1994
(-0.0614871 0.00689802 0.52184) 2114
(-0.0294153 -0.0600008 0.503249) 2323
(-0.0613666 0.00267963 0.511645) 2058
(-0.064785 -0.000158985 0.507804) 2002
(-0.0363668 0.0551237 0.509439) 2699
(-0.0176936 -0.0553907 0.524151) 2441
(-0.0136212 -0.0651648 0.506904) 2331
(-0.0459956 0.0521016 0.505603) 2699
(-0.0568522 -0.0243895 0.511756) 2074
(-0.0415229 -0.0492948 0.505325) 2314
(-0.0652336 0.0219363 0.51138) 1995
(-0.0465142 -0.0459019 0.509459) 2026
(-0.0666789 0.00425707 0.505764) 2003
(-0.0688961 -0.0202329 0.502577) 2012
(-0.0365983 0.0544096 0.509204) 2699
(-0.0419328 -0.0496402 0.503914) 2314
(-0.0598875 0.0345577 0.504395) 1987
(-0.0534491 -0.0409174 0.50284) 2027
(-0.0606151 0.025703 0.505014) 1987
(-0.0652569 -0.0129385 0.501844) 2011
(-0.0573077 -0.0209954 0.520626) 2074
(-0.0272805 -0.0583463 0.504533) 2322
(-0.035353 -0.0572839 0.508833) 2323
(-0.0368596 -0.0555937 0.505185) 2315
(-0.0538783 0.0428155 0.503667) 1979
(-0.0624496 -0.012919 0.506375) 2010
(-0.0611427 -0.0129356 0.507768) 2010
(-0.0635697 -0.0116699 0.509822) 2010
(0.000374091 -0.0653283 0.509696) 2339
(-0.0566026 -0.0261594 0.508461) 2018
(-0.066441 -0.0167039 0.502407) 2011
(-0.0653517 -0.00746726 0.507459) 2011
(-0.0380166 -0.0487196 0.506412) 2314
(-0.035725 0.056581 0.511636) 2755
(-0.0491253 -0.0367583 0.505046) 2026
(-0.0308563 -0.0558845 0.510768) 2322
(-0.0498675 -0.0386768 0.503716) 2026
(-0.0602802 -0.025587 0.504018) 2019
(0.00327533 -0.0699892 0.505959) 2339
(-0.019272 -0.0662633 0.506525) 2331
(-0.0512077 -0.0367715 0.509874) 2026
(-0.065554 -0.0157538 0.503406) 2011
(-0.0615893 0.00896119 0.516863) 2050
(-0.0635752 -0.014257 0.507045) 2011
(-0.0293533 -0.057676 0.506803) 2322
(-0.0635788 -0.0138605 0.507714) 2011
(-0.0592333 -0.0222852 0.504889) 2018
(-0.0305968 -0.0548722 0.512478) 2378
(-0.0520269 0.0412859 0.504773) 1979
(-0.0274436 -0.0619206 0.502942) 2323
(-0.0512818 0.0402529 0.50613) 1979
(-0.0639185 -0.0129948 0.505027) 2011
(0.000445513 -0.0648151 0.510403) 2338
(-0.0621914 -0.0188723 0.512138) 2066
(-0.0619341 -0.0250637 0.501677) 2019
(-0.0662334 -0.00866751 0.503597) 2011
(-0.0567367 0.0334806 0.508234) 1987
(-0.0533355 -0.0421035 0.501728) 2027
(-0.0622774 0.0297647 0.502171) 1987
(-0.0156642 -0.0624553 0.508967) 2330
(-0.065468 -0.0111951 0.506069) 2011
(-0.0629359 -0.0185162 0.507704) 2011
(-0.0630343 0.00171153 0.508026) 2002
(-0.0471417 -0.0457697 0.507983) 2027
(-0.0420451 -0.0499203 0.504298) 2315
(-0.0451603 -0.0414921 0.509733) 2026
(-0.0650113 0.00577363 0.511755) 2058
(-0.0596802 0.0279846 0.504886) 1987
(-0.02898 -0.0526949 0.51393) 2378
(-0.0291962 -0.0593945 0.503846) 2323
(-0.0382072 -0.0520019 0.505737) 2314
(-0.0263601 -0.0611846 0.503686) 2323
(-0.0239235 -0.0592898 0.506916) 2322
(-0.0244318 -0.0587272 0.506902) 2322
(-0.0501768 -0.0433324 0.503115) 2027
(-0.0216247 -0.0617982 0.508323) 2323
(-0.00171674 -0.0589109 0.521054) 2393
(-0.0474742 0.0453125 0.508793) 1979
(-0.0627027 0.0264361 0.505641) 1987
(-0.00745716 -0.0606488 0.517876) 2386
(-0.0257142 -0.0562262 0.507705) 2322
(-0.0682014 -0.0145108 0.50241) 2011
(-0.0635622 -0.0164543 0.507161) 2011
(-0.0599152 0.00226188 0.512855) 2058
(-0.0652679 -0.0234571 0.513015) 2075
(-0.0308475 0.0587985 0.50938) 2691
(-0.0392737 -0.0474661 0.50743) 2314
(-0.0613458 -0.0261205 0.50605) 2019
(-0.0285442 -0.0562002 0.508405) 2322
(-0.0249246 -0.053782 0.510547) 2321
(-0.025001 -0.0596439 0.505665) 2322
(-0.0404914 -0.0475884 0.508026) 2314
(-0.0566406 -0.0237947 0.509825) 2018
(-0.0249154 -0.059195 0.506315) 2322
(-0.00527805 -0.0623887 0.522116) 2450
(-0.055803 0.0414872 0.50787) 1979
(-0.062442 -0.0129975 0.509289) 2010
(-0.0553363 -0.032927 0.510509) 2018
(-0.0646859 0.016758 0.505507) 1995
(-0.0642578 0.00980521 0.51635) 2050
(-0.0644036 -0.0176444 0.507311) 2011
(-0.0680534 -0.0101977 0.508483) 2011
(-0.0666506 -0.00808783 0.51733) 2067
(-0.0658935 -0.00423911 0.510182) 2003
(-0.0588751 0.0345 0.506667) 1987
(-0.0621137 -0.0292106 0.501818) 2019
(-0.0226149 -0.0600199 0.508367) 2322
(-0.0401861 -0.0551875 0.501701) 2315
(-0.0469519 -0.0429101 0.507423) 2026
(-0.0678952 -0.00920725 0.511448) 2011
(-0.0508039 -0.0430388 0.502934) 2027
(-0.0506849 -0.0391303 0.507429) 2026
(-0.0269212 -0.058649 0.505521) 2322
(-0.064535 0.0191393 0.505203) 1995
(-0.0658499 -0.0104292 0.510771) 2011
(-0.0650904 0.0137808 0.505256) 1995
(-0.00731974 -0.0672879 0.514191) 2395
(-0.00487427 -0.0685307 0.515668) 2395
(-0.0269326 -0.0570366 0.507001) 2322
(-0.0364922 -0.0551509 0.506595) 2315
(-0.0645538 0.0218658 0.513682) 2051
(-0.0628976 -0.0152237 0.509227) 2010
(-0.0630989 -0.0187558 0.510376) 2011
(-0.0657659 -0.0113849 0.509584) 2011
(-0.0665357 0.00621192 0.502006) 2003
(-0.0493395 -0.0335404 0.517455) 2081
(-0.0248527 0.0671029 0.506082) 2692
(-0.0662322 -0.000378743 0.503624) 2003
(-0.0233596 -0.0590759 0.511181) 2322
(-0.0321513 -0.0509155 0.51747) 2370
(-0.0657043 -0.00454968 0.509018) 2003
(-0.0259727 -0.0565682 0.50805) 2322
(-0.0559447 -0.0316928 0.508884) 2018
(-0.0626594 -0.01549 0.509354) 2010
(-0.0356995 -0.0543275 0.508486) 2314
(-0.0701382 -0.0174328 0.501766) 2012
(-0.0647726 -0.0124391 0.501897) 2011
(-0.0234484 -0.0567675 0.511447) 2322
(-0.0265309 0.0599156 0.50845) 2691
(-0.0558197 0.0408727 0.507125) 1979
(-0.0510109 -0.0406088 0.504827) 2027
(-0.0389382 -0.0501766 0.506797) 2314
(-0.0365286 0.0535356 0.509773) 2698
(-0.0676761 -0.00630802 0.511228) 2003
(-0.0600477 -0.0087692 0.519634) 2066
(-0.0686134 -0.0116246 0.504122) 2011
(-0.0661613 -0.0105053 0.510444) 2011
(-0.0674831 -0.0157546 0.502777) 2011
(-0.0558018 -0.0327465 0.509766) 2018
(-0.0100815 -0.0581039 0.517607) 2385
(-0.00618348 -0.0623115 0.519601) 2394
(-0.0641888 -0.0190412 0.507769) 2011
(-0.0644146 -0.0191689 0.507325) 2011
(-0.0513096 0.0397612 0.508552) 1978
(0.00564668 -0.0684203 0.506578) 2339
(-0.0459992 -0.0449779 0.510257) 2026
(-0.0635022 -0.0142216 0.509836) 2011
(-0.0706684 -0.0155373 0.501872) 2012
(-0.058033 -0.0251522 0.509505) 2018
(-0.0255793 -0.0624505 0.503685) 2323
(-0.0467021 0.0530403 0.506609) 2699
(-0.0686006 -0.0127543 0.502364) 2011
(-0.0484528 0.045283 0.507439) 1979
(-0.0498154 -0.0404409 0.506326) 2026
(-0.00775642 -0.0604955 0.518731) 2386
(-0.00765982 -0.0607158 0.518466) 2386
(0.00140952 -0.0643088 0.510806) 2338
(-0.0115599 -0.0640062 0.509544) 2330
(-0.0621286 -0.0151103 0.510673) 2010
(-0.0641649 -0.0174479 0.508605) 2011
(-0.0456221 -0.0421835 0.509558) 2026
(-0.0628704 -0.0106333 0.514707) 2066
(-0.0231362 -0.0604685 0.509107) 2322
(-0.0236312 -0.0609521 0.510274) 2323
(-0.0579352 -0.018685 0.518979) 2066
(-0.064928 -0.0119795 0.510158) 2011
(-0.0631884 0.0032235 0.512603) 2058
(-0.0604028 0.00495155 0.518362) 2058
(-0.0629624 0.0198311 0.509867) 1995
(0.00218085 -0.0645533 0.510366) 2338
(-0.0443988 -0.0526287 0.501868) 2315
(-0.00512641 -0.0590763 0.527255) 2449
(0.00401213 -0.0650985 0.509103) 2339
(-0.0686328 -0.0170166 0.503018) 2012
(-0.0258718 -0.0543321 0.510412) 2322
(-0.0355864 -0.0524079 0.508747) 2314
(-0.0238965 -0.0595053 0.512347) 2378
(-0.0266844 -0.0557102 0.508906) 2322
(-0.0644084 -0.026079 0.508103) 2019
(-0.0640033 -0.014184 0.509704) 2011
(-0.0646185 -0.014742 0.50888) 2011
(-0.0165839 0.0645792 0.509441) 2683
(-0.0395269 0.057911 0.505462) 2699
(-0.0234884 -0.0600256 0.513649) 2378
(-0.0232831 -0.0593985 0.509023) 2322
(-0.0640573 -2.96299e-05 0.510523) 2002
(-0.0656299 -0.0127335 0.509057) 2011
(-0.0653813 0.000878573 0.509557) 2003
(-0.0639817 -0.024024 0.511698) 2075
(-0.0234105 -0.0578587 0.510439) 2322
(-0.039359 -0.0522524 0.505583) 2315
(-0.0629303 -0.0185315 0.510913) 2011
(-0.0553325 0.0383316 0.512059) 2035
(-0.0518958 0.0440801 0.504901) 1979
(-0.0233131 -0.0575376 0.509808) 2322
(-0.064341 -0.0285799 0.504443) 2019
(0.0635811 -0.0221559 0.503678) 1659
(0.064158 -0.0214435 0.505583) 1659
(-0.0613657 -0.00196738 0.511169) 2002
(-0.0665456 -0.0105172 0.50976) 2011
(-0.0396204 -0.0511316 0.506299) 2314
(-9.42191e-05 -0.0650037 0.511104) 2338
(-0.0647121 -0.0149182 0.507257) 2011
(-0.0504087 -0.0399148 0.50791) 2026
(0.00237731 -0.0689043 0.506771) 2339
(-0.065409 -0.0131633 0.507931) 2011
(-0.0554627 -0.0294795 0.510599) 2018
(-0.0654709 0.00399268 0.511076) 2003
(-0.0239739 -0.0591777 0.508566) 2322
(-0.0667255 0.006487 0.515609) 2059
(-0.0716654 -0.00710758 0.510316) 2004
(-0.0668951 0.0159287 0.501688) 1995
(-0.0664603 -0.0124947 0.502157) 2011
(-0.0641211 -0.0104908 0.513079) 2066
(-0.0570214 -0.0272975 0.509078) 2018
(-0.0589614 -0.0043408 0.51977) 2057
(-0.060218 -0.025868 0.508722) 2019
(-0.0675736 -0.0106669 0.507491) 2011
(-0.0247497 -0.0579537 0.509252) 2322
(-0.0307316 -0.0507183 0.52314) 2433
(-0.0376628 -0.0506317 0.508659) 2314
(-0.0163601 -0.0562762 0.519148) 2385
(0.00317549 -0.064178 0.511668) 2394
(-0.0527576 0.0391154 0.510467) 1979
(0.00244246 -0.058259 0.521484) 2449
(-0.062042 -0.0247043 0.511817) 2075
(-0.0643304 -0.0152534 0.508343) 2011
(-0.0246368 -0.0591091 0.508224) 2322
(-0.0655173 0.00891529 0.515279) 2051
(-0.0241614 -0.0568519 0.510416) 2322
(-0.0244349 -0.0580349 0.509267) 2322
(-0.0657476 -0.0128378 0.509144) 2011
(-0.063984 0.00176623 0.506562) 2002
(-0.011415 0.0624889 0.508569) 2682
(-0.0519514 -0.0381558 0.509644) 2026
(-0.0530431 -0.0382329 0.509486) 2027
(-0.0246458 -0.0591777 0.511104) 2322
(-0.03849 -0.0484608 0.509863) 2314
(-0.0377262 -0.0533902 0.507147) 2315
(-0.0394406 -0.0514862 0.50728) 2314
(-0.0298652 -0.0534554 0.515426) 2378
(-0.0251128 -0.0569293 0.512269) 2378
(-0.0645461 -0.00508711 0.515251) 2058
(-0.061039 -0.0244183 0.513442) 2075
(-0.0269261 -0.0571071 0.509678) 2322
(-0.0532854 -0.0438861 0.501843) 2027
(-0.050251 0.0403369 0.508016) 1978
(-0.0509317 -0.0413208 0.507151) 2027
(-0.0428199 -0.0467885 0.509816) 2314
(-0.0649622 -0.0134287 0.509975) 2011
(-0.066967 0.000242427 0.502646) 2003
(-0.0626882 0.0271723 0.506748) 1987
(-0.0670559 0.0135798 0.503168) 1995
(-0.0249578 -0.0598831 0.509208) 2322
(-0.0394368 -0.0505668 0.50893) 2314
(-0.0241655 -0.0623273 0.510747) 2323
(-0.0516076 -0.0396616 0.50844) 2027
(-0.0244992 -0.0615336 0.509869) 2323
(-0.0382289 -0.049102 0.511073) 2314
(-0.023858 -0.0595309 0.513997) 2378
(-0.0508974 -0.0463585 0.505501) 2027
(-0.057114 -0.0214295 0.520812) 2074
(-0.00208533 -0.0591596 0.521092) 2393
(-0.0405674 -0.0512362 0.510662) 2315
(0.00305328 -0.0650993 0.509168) 2339
(-0.00127337 -0.0590073 0.51997) 2393
(-0.04366 0.0539262 0.505599) 2699
(-0.0634291 0.0201708 0.512356) 2051
(-0.00766085 -0.0609345 0.517182) 2386
(-0.0672598 -0.0125476 0.507401) 2011
(-0.0247835 -0.0580857 0.512448) 2378
(-0.0498603 -0.0439819 0.507966) 2027
(-0.0308863 -0.0613104 0.507535) 2323
(-0.064847 -0.0173952 0.509211) 2011
(-0.0283592 0.058541 0.509184) 2691
(-0.0359342 -0.0531614 0.514427) 2370
(-0.0255975 -0.0598714 0.508326) 2323
(-0.0523541 0.0392426 0.510952) 1979
(-0.0476919 -0.0416512 0.509543) 2026
(-0.0251478 -0.0585507 0.512441) 2378
(-0.0599725 -0.0256694 0.510385) 2019
(-0.0674282 -0.0127162 0.505076) 2011
(-0.025027 -0.0592841 0.511793) 2378
(-0.0631381 -0.0160067 0.510393) 2011
(-0.0232916 -0.053907 0.520073) 2377
(-0.0241186 -0.0607411 0.512838) 2379
(0.0610971 -0.0199172 0.51205) 1714
(0.00451878 -0.0651441 0.509611) 2339
(0.00451228 -0.0647222 0.510927) 2338
(-0.0253886 -0.059271 0.511391) 2322
(-0.0579605 0.0359324 0.51349) 2043
(-0.0532823 -0.0413298 0.508514) 2027
(-0.0638262 0.0194338 0.510601) 1995
(-0.0163721 -0.0563381 0.52033) 2385
(-0.0398489 -0.0443622 0.519388) 2370
(-0.0499066 -0.0414749 0.512497) 2082
(-0.0678351 -0.0102887 0.511768) 2067
(-0.0708304 0.00197773 0.50574) 2004
(0.061137 -0.0199301 0.512117) 1714
(0.0640004 -0.0212756 0.514423) 1715
(0.0640028 -0.0216833 0.513659) 1715
(-0.02664 -0.0588284 0.510971) 2322
(-0.0251198 -0.0592066 0.51221) 2378
(-0.0249402 -0.0578379 0.514024) 2378
(-0.0262296 -0.0568194 0.514827) 2378
(-0.00780718 -0.0592679 0.521275) 2385
(-0.0211164 -0.0570703 0.519744) 2378
(-0.0628177 -0.0177831 0.51157) 2067
(-0.0598388 -0.00596112 0.522041) 2114
(-0.0688041 -0.0142654 0.503771) 2011
(0.00282066 -0.0649222 0.50989) 2338
(0.000334463 -0.0631228 0.513434) 2394
(-0.0607989 -0.0249399 0.512873) 2075
(0.00471079 -0.0590296 0.519976) 2393
(-0.060927 -0.0276244 0.510165) 2019
(-0.0660811 -0.0112433 0.511663) 2067
(-0.0661559 -0.0152105 0.508728) 2011
(-0.0685136 -0.011695 0.508772) 2011
(-0.0670729 -0.0104462 0.512462) 2067
(-0.0640663 -0.00119501 0.50786) 2002
(-0.0265427 -0.0586886 0.512355) 2378
(-0.0266369 -0.0589581 0.513539) 2378
(-0.0594712 0.0335401 0.50722) 1987
(-0.0491812 -0.0434874 0.50919) 2027
(-0.0601426 -0.00498703 0.519605) 2058
(-0.000590195 -0.0657602 0.511531) 2395
(-0.0592034 -0.0219875 0.518847) 2074
(-0.057552 -0.0198412 0.522216) 2122
(-0.0398321 -0.0550296 0.50865) 2315
(-0.0582485 -0.0193822 0.519886) 2066
(-0.0589087 0.0344769 0.508702) 1987
(-0.0496545 0.0418591 0.508915) 1978
(-0.0554038 -0.0335403 0.515984) 2074
(-0.0593406 -0.0261691 0.511805) 2074
(-0.0297383 -0.0524687 0.520229) 2378
(-0.0454068 0.0492832 0.511556) 2755
(-0.060002 -0.0312094 0.508234) 2019
(-0.065762 -0.0134397 0.510169) 2011
(-0.0675576 -0.00242943 0.509527) 2003
(-0.0692899 -0.00111995 0.507617) 2003
(-0.0670907 -0.0136271 0.508889) 2011
(-0.0725987 -0.00196162 0.504449) 2004
(-0.0658237 -0.00848218 0.508149) 2011
(-0.0241202 0.0618814 0.508202) 2691
(-0.0475355 -0.047472 0.515774) 2083
(-0.0637338 -0.0196587 0.511596) 2067
(-0.064369 0.000871658 0.509487) 2002
(-0.024577 -0.0630367 0.508782) 2323
(-0.0501669 -0.0453687 0.50978) 2027
(-0.039161 -0.0534652 0.510779) 2315
(-0.0607999 -0.0247288 0.513619) 2075
(-0.0562399 0.0420485 0.507246) 1979
(-0.070982 -0.0123664 0.504585) 2012
(-0.0383675 -0.0480692 0.515193) 2370
(-0.0207685 -0.0577975 0.51942) 2378
(-0.0235984 -0.0534843 0.520903) 2377
(-0.0235391 -0.0537338 0.520451) 2377
(-0.0625767 0.00633604 0.519522) 2058
(-0.0652423 -0.0158286 0.510358) 2011
(-0.0648223 0.00418293 0.514437) 2058
(-0.0697415 -0.000865052 0.507428) 2003
(-0.0649566 -0.0051611 0.509208) 2002
(-0.0609251 0.00284163 0.510705) 2002
(0.0649941 -0.0216469 0.513024) 1715
(-0.0646855 0.0203159 0.505019) 1995
(-0.0670654 -0.00969768 0.508175) 2011
(-0.066148 0.0159113 0.504563) 1995
(0.062624 -0.0206897 0.511042) 1659
(-0.0616086 -0.0264992 0.509784) 2019
(-0.0686376 -0.00165547 0.504823) 2003
(-0.0647777 -0.00160805 0.509843) 2002
(-0.0660131 -0.0119076 0.508337) 2011
(-0.0403581 -0.0497027 0.513725) 2370
(0.000593881 -0.0576735 0.522088) 2449
(-0.0550201 0.0387235 0.511758) 2035
(-0.0244463 -0.0597416 0.513921) 2378
(-0.0409923 -0.0507829 0.51198) 2371
(0.00461898 -0.064373 0.512989) 2394
(-0.0650647 0.00354367 0.511602) 2059
(-0.051567 0.0401738 0.510404) 1979
(-0.0587845 -0.0352559 0.511641) 2075
(-0.0656407 0.022737 0.514007) 2051
(-0.0340834 -0.0593856 0.513268) 2379
(-0.0668882 0.000464546 0.510895) 2003
(-0.0684834 0.00103829 0.508952) 2003
(-0.0687477 0.00345372 0.50957) 2003
(-0.0634028 0.00314085 0.510668) 2002
(-0.0408533 0.0519062 0.507555) 2699
(-0.0276119 -0.0598826 0.51249) 2379
(-0.0361069 -0.0450452 0.521098) 2369
(-0.0405724 0.05259 0.507072) 2699
(-0.0496339 -0.0438087 0.51119) 2027
(-0.0413479 -0.0542398 0.508993) 2315
(0.00330956 -0.0629624 0.513815) 2394
(-0.0151924 -0.0547916 0.522006) 2441
(-0.0265452 -0.0596526 0.513213) 2379
(-0.0525321 -0.0332076 0.521527) 2138
(-0.0270704 -0.059766 0.512887) 2379
(-0.051287 -0.0416185 0.510453) 2027
(-0.064118 0.019511 0.510821) 1995
(-0.0633003 -0.028499 0.50758) 2019
(-0.0673904 -0.00258766 0.510001) 2003
(-0.0642734 -0.0255738 0.512342) 2075
(-0.0667333 -0.0140205 0.509399) 2011
(-0.0669655 -0.00289313 0.510928) 2003
(-0.0681134 -0.000780089 0.509523) 2003
(-0.050484 -0.0452027 0.509588) 2027
(-0.0667973 -0.0182857 0.509264) 2011
(0.0656705 -0.012017 0.501967) 1659
(-0.0357432 0.0552845 0.511651) 2755
(-0.0134291 0.0668977 0.506454) 2683
(-0.0491154 0.0430644 0.50848) 1979
(-0.0654301 0.000726841 0.50849) 2003
(-0.0237195 -0.0616884 0.513908) 2379
(-0.0418721 -0.0498391 0.512427) 2371
(-0.051433 -0.0386467 0.51399) 2082
(-0.0641695 -0.0175155 0.510559) 2011
(-0.0451803 -0.0424982 0.517083) 2082
(-0.0319398 -0.0571817 0.514799) 2379
(-0.0193581 -0.0586834 0.524532) 2442
(-0.0268227 -0.0599827 0.512693) 2379
(-0.0268171 -0.0600378 0.512907) 2379
(-0.0682453 -0.0138778 0.505994) 2011
(-0.0268976 -0.0587418 0.513926) 2378
(-0.0325797 -0.0542279 0.519245) 2378
(-0.0277835 -0.0604687 0.511915) 2379
(-0.0288664 -0.0595241 0.51253) 2379
(-0.0628019 0.0187652 0.512431) 2051
(-0.0625166 -0.0267474 0.510138) 2019
(-0.0613964 -0.0277187 0.510083) 2019
(-0.0268071 -0.059035 0.513848) 2378
(-0.0456916 -0.0359767 0.520736) 2081
(-0.0413022 -0.0508698 0.511813) 2371
(-0.06316 -0.0163512 0.513225) 2067
(-0.0674394 0.00133001 0.509966) 2003
(-0.0650093 -0.0195063 0.511897) 2067
(-0.0678377 -0.0114484 0.510577) 2011
(-0.0701593 -0.00534161 0.510528) 2003
(-0.068022 0.00506531 0.512125) 2059
(0.0631577 -0.0124357 0.506742) 1658
(-0.0638636 9.45367e-06 0.510286) 2002
(0.0635738 -0.0132735 0.506441) 1658
(-0.00676573 0.0692512 0.508981) 2675
(-0.0674316 -0.00516848 0.510931) 2003
(-0.0657987 -0.00269875 0.509726) 2003
(-0.0658134 0.00246021 0.510548) 2003
(-0.0442445 -0.0392179 0.51962) 2081
(-0.0231507 -0.0559749 0.517149) 2378
(0.00254698 -0.0582886 0.520797) 2393
(-0.0259052 0.0591982 0.509322) 2690
(-0.0254774 -0.0595883 0.514123) 2378
(-0.0529949 -0.0402667 0.51091) 2027
(-0.0307495 -0.0581869 0.513497) 2379
(-0.0578023 0.0336955 0.510394) 1987
(-0.0646588 -0.00189203 0.512969) 2058
(-0.0691043 -0.00596078 0.511113) 2003
(-0.0669121 -0.00566586 0.513719) 2059
(-0.026829 -0.062156 0.510779) 2323
(-0.0653245 -0.0157637 0.510967) 2011
(-0.0646911 -0.0255408 0.511172) 2019
(-0.0637365 -0.0129351 0.513524) 2066
(-0.0529008 -0.0442125 0.508066) 2027
(-0.0688088 0.00232431 0.502809) 2003
(0.0562139 -0.0193805 0.534767) 1825
(-0.0621575 0.0253737 0.506858) 1987
(-0.0637794 -0.0103258 0.50926) 2010
(-0.0443863 -0.0486993 0.514447) 2371
(-0.0415475 -0.0515269 0.511) 2315
(-0.0664972 -0.0117619 0.509011) 2011
(-0.05709 0.0357033 0.514655) 2043
(-0.0664958 -0.0128361 0.508854) 2011
(-0.00891859 -0.0684629 0.508411) 2331
(-0.0273262 -0.0600334 0.512745) 2379
(3.3856e-06 -0.0654661 0.511599) 2395
(-0.0579743 -0.0328342 0.512156) 2075
(-0.0667097 0.00174382 0.511036) 2003
(-0.0269238 -0.0609003 0.512253) 2379
(-0.0261237 -0.0606102 0.512813) 2379
(-0.0283015 -0.0607382 0.511731) 2379
(-0.0502457 -0.0424965 0.5117) 2083
(-0.061672 -0.00955152 0.517447) 2066
(-0.0608278 -0.0115173 0.516028) 2066
(-0.0279002 -0.0622966 0.509629) 2323
(-0.0636727 -0.0189831 0.513085) 2067
(-0.0651473 0.00324453 0.50789) 2003
(0.0653614 -0.021374 0.509499) 1659
(-0.060016 0.00497195 0.5183) 2058
(-0.0651852 0.00189974 0.509495) 2003
(-0.0642581 0.00148387 0.510611) 2002
(-0.0281961 0.0583688 0.509373) 2690
(-0.042337 0.0491441 0.510574) 2698
(-0.0274176 -0.0544007 0.516158) 2378
(0.00197791 -0.0594567 0.5213) 2393
(-0.048395 -0.0431367 0.513441) 2082
(0.00138319 -0.0598495 0.517964) 2394
(0.00281786 -0.0646862 0.510951) 2338
(0.00399104 -0.0662712 0.508712) 2339
(0.00406468 -0.062868 0.514306) 2394
(-0.0604115 -0.0274444 0.511221) 2019
(-0.0256042 -0.0629222 0.511558) 2379
(-0.0241407 -0.0630301 0.5126) 2379
(-0.0680078 0.00187762 0.509589) 2003
(-0.0720012 0.00304851 0.506553) 2004
(0.0667503 -0.0131886 0.501788) 1659
(-0.0600519 -0.0268173 0.511698) 2075
(-0.0236099 -0.0546367 0.519253) 2377
(-0.000958677 -0.065743 0.514079) 2395
(-0.0358933 0.0543662 0.511171) 2698
(-0.0513892 -0.0456109 0.508521) 2027
(-0.0237644 -0.0553232 0.517687) 2378
(-0.0253564 -0.0553596 0.516293) 2378
(-0.0191493 -0.0592251 0.521986) 2442
(-0.0244069 -0.0623757 0.512881) 2379
(-0.0531729 0.0457402 0.505618) 1979
(-0.0271395 -0.0623386 0.51097) 2323
(-0.0261812 -0.0616008 0.512139) 2379
(-0.0288959 -0.0615425 0.510387) 2323
(-0.0669504 0.0015723 0.511002) 2003
(-0.0637252 -0.0174787 0.512902) 2067
(0.0612504 -0.0142805 0.509516) 1658
(-0.0649546 -0.00970278 0.509944) 2011
(-0.0645914 -0.0119296 0.510879) 2011
(-0.0164459 -0.0656008 0.508177) 2331
(-0.042436 -0.051133 0.511029) 2315
(-0.0555579 0.0381829 0.512952) 2035
(0.00259804 -0.0594205 0.521289) 2393
(-0.0248384 -0.0606839 0.51344) 2379
(0.056944 -0.0125959 0.516502) 1713
(0.00409424 -0.0613129 0.51673) 2394
(-0.0379388 -0.0454078 0.518637) 2369
(-0.0156695 -0.0571711 0.518622) 2385
(-0.0671717 0.000384018 0.510454) 2003
(-0.0266696 -0.062504 0.511344) 2323
(-0.0262283 -0.0616217 0.512221) 2379
(-0.0674522 0.0104516 0.512017) 2051
(-0.0678124 0.0107972 0.514943) 2051
(-0.0713971 0.00622229 0.511235) 2004
(0.0650983 -0.0129997 0.504206) 1659
(-0.0259701 0.0591614 0.509363) 2690
(-0.0633558 0.0278985 0.505047) 1987
(-0.0674863 0.00770456 0.515777) 2051
(-0.0638607 0.00221132 0.510699) 2002
(-0.0599161 -0.0276399 0.511376) 2019
(-0.00735537 0.0659996 0.50976) 2675
(0.0650977 -0.013903 0.503802) 1659
(-0.0439728 -0.0529295 0.508389) 2315
(-0.0508561 -0.0441737 0.510143) 2027
(-0.0509615 -0.0406794 0.512638) 2083
(0.00366186 -0.0651669 0.512017) 2395
(-0.0443299 0.0480275 0.512652) 2755
(-0.00245294 -0.0652275 0.515846) 2395
(-0.0427114 -0.051775 0.509996) 2315
(-0.0653092 -0.00134527 0.512636) 2059
(-0.0675564 0.000213115 0.509901) 2003
(-0.0299906 -0.0595472 0.512267) 2379
(-0.0652251 -0.0109509 0.51367) 2067
(0.062967 -0.0137955 0.507185) 1658
(-0.0407167 0.0499641 0.509991) 2698
(-0.00819764 0.0659783 0.508115) 2683
(-0.0642909 0.00302987 0.510781) 2002
(-0.0638457 0.00213422 0.51131) 2002
(-0.060797 -0.00806244 0.518232) 2066
(-0.0518074 -0.0419318 0.510391) 2027
(-0.0579643 -0.00599094 0.524659) 2113
(-0.0598553 -0.0284111 0.51099) 2019
(-0.0593862 0.0354381 0.508882) 1987
(-0.0436842 -0.0402975 0.519832) 2081
(-0.0251183 0.0594617 0.50945) 2690
(-0.0252574 -0.0606277 0.5132) 2379
(-0.0366885 -0.0520154 0.514641) 2370
(0.000981357 -0.0652771 0.511398) 2339
(-0.0164223 -0.0577568 0.51977) 2386
(0.00387062 -0.0652631 0.512763) 2395
(0.00515674 -0.0676487 0.507428) 2339
(-0.00704842 -0.0627616 0.516327) 2394
(-0.0618646 -0.0242386 0.515642) 2075
(-0.0585869 -0.028293 0.512679) 2075
(-0.0532372 -0.0442675 0.508087) 2027
(-0.0434477 -0.051811 0.510187) 2315
(-0.0700034 -0.000162334 0.507667) 2003
(-0.0279903 -0.0620542 0.511113) 2323
(-0.0662304 -0.0103844 0.513869) 2067
(-0.0655219 -0.0232273 0.515153) 2075
(-0.0651376 -0.0202494 0.512346) 2067
(-0.0669648 0.010341 0.512632) 2051
(-0.0688683 0.00220608 0.509292) 2003
(0.0637551 -0.0130328 0.506731) 1659
(-0.0627829 -0.000543261 0.510432) 2002
(-0.0623305 0.00281476 0.513976) 2058
(-0.00602259 -0.0625438 0.521097) 2394
(-0.0318181 -0.0614622 0.510335) 2323
(-0.0491426 -0.0440383 0.51212) 2083
(0.00254705 -0.0656648 0.510322) 2339
(-0.000293117 -0.058964 0.520587) 2393
(-0.00821477 -0.0596169 0.517997) 2386
(-0.00146922 -0.0590462 0.521286) 2393
(-0.0381755 -0.0533481 0.512117) 2371
(-0.0208453 -0.0596913 0.519735) 2386
(-0.0655252 -0.00131973 0.511955) 2059
(-0.0662643 -0.0114472 0.512123) 2067
(-0.0586621 0.0292579 0.5104) 1987
(-0.0434973 0.0560302 0.505233) 2700
(-0.0621 -0.031444 0.508094) 2019
(-0.0293492 -0.0592769 0.512045) 2379
(-0.0700005 -0.000549992 0.507877) 2003
(-0.0676385 0.000131788 0.510131) 2003
(-0.0727043 0.00124021 0.505691) 2004
(0.0645293 -0.0125003 0.506103) 1659
(-0.0614097 -0.00739252 0.520974) 2066
(-0.0277155 0.0596843 0.508172) 2691
(0.062878 -0.0128461 0.50778) 1658
(0.0631517 -0.0128565 0.507287) 1658
(-0.0723665 -0.00616143 0.50771) 2004
(0.00130911 -0.0659572 0.510591) 2339
(-0.0669518 0.0122923 0.509545) 1995
(-0.0559403 0.03713 0.514894) 2035
(-0.0417146 -0.049732 0.513543) 2370
(-0.0549336 -0.039557 0.511568) 2083
(-0.0680001 -0.000494562 0.509715) 2003
(-0.0663065 0.00209364 0.511779) 2059
(-0.072671 -0.00273696 0.505464) 2004
(-0.0719923 -0.00357426 0.506478) 2004
(-0.0307512 -0.0612932 0.510851) 2323
(-0.0297205 -0.0623125 0.51014) 2323
(0.0633293 -0.0129901 0.50887) 1658
(0.0628326 -0.0121921 0.507648) 1658
(-0.0674766 0.00143144 0.508254) 2003
(-0.0310827 -0.0622048 0.509608) 2323
(0.00102912 -0.0656147 0.511856) 2395
(0.00016113 -0.0660465 0.512838) 2395
(-0.00040962 -0.066819 0.512061) 2395
(-0.043999 -0.0399682 0.519552) 2081
(-0.0286217 -0.0623706 0.510272) 2323
(-0.041379 -0.049145 0.514094) 2370
(0.00411725 -0.0661921 0.50978) 2339
(0.00148598 -0.0656969 0.511062) 2339
(0.00139195 -0.0594908 0.519894) 2393
(0.00426679 -0.0676264 0.508003) 2339
(-0.0561155 -0.041086 0.509633) 2027
(-0.0450355 0.0496047 0.510479) 2699
(-0.0152696 -0.0623593 0.512804) 2386
(-0.0552045 0.0351844 0.517387) 2035
(-0.0259936 -0.0614006 0.512161) 2379