/*--------------------------------*- C++ -*----------------------------------*\
| =========                 |                                                 |
| \\      /  F ield         | OpenFOAM: The Open Source CFD Toolbox           |
|  \\    /   O peration     | Version:  plus.master.MPPICInterFoam            |
|   \\  /    A nd           | Web:      www.OpenFOAM.com                      |
|    \\/     M anipulation  |                                                 |
\*---------------------------------------------------------------------------*/
FoamFile
{
    version     2.0;
    format      ascii;
    class       scalarField;
    location    "9.6/lagrangian/kinematicCloud";
    object      age;
}
// * * * * * * * * * * * * * * * * * * * * * * * * * * * * * * * * * * * * * //


29
(
8.88096
9.02637
9.59467
9.57857
9.04833
9.42107
9.00354
9.00561
8.72869
9.29625
8.7032
8.98109
8.80013
8.93147
9.584
8.70005
8.87025
8.79131
8.88006
9.07516
8.81201
8.79446
9.43029
8.90007
9.05099
9.00008
8.6726
8.8645
9.1571
)


// ************************************************************************* //
