/*--------------------------------*- C++ -*----------------------------------*\
| =========                 |                                                 |
| \\      /  F ield         | OpenFOAM: The Open Source CFD Toolbox           |
|  \\    /   O peration     | Version:  plus.master.MPPICInterFoam            |
|   \\  /    A nd           | Web:      www.OpenFOAM.com                      |
|    \\/     M anipulation  |                                                 |
\*---------------------------------------------------------------------------*/
FoamFile
{
    version     2.0;
    format      ascii;
    class       vectorField;
    location    "9.6/lagrangian/kinematicCloud";
    object      UCorrect;
}
// * * * * * * * * * * * * * * * * * * * * * * * * * * * * * * * * * * * * * //


29
(
(4.44244e-19 -5.47755e-19 -2.35603e-19)
(-4.88733e-19 -1.1155e-19 0)
(2.26498e-19 -5.16967e-20 -1.86071e-19)
(-3.76155e-20 4.73669e-19 -1.86071e-19)
(-2.48431e-20 -2.21222e-19 -2.08389e-19)
(-2.08214e-19 -3.0931e-20 -2.08389e-19)
(2.92433e-20 2.46411e-19 -2.35603e-19)
(-1.52255e-18 1.14792e-18 1.52669e-34)
(1.60932e-18 2.07015e-18 1.64119e-15)
(7.65405e-17 -1.09553e-17 5.64813e-14)
(-6.89642e-19 -1.73716e-19 5.64813e-14)
(-2.6277e-17 1.13632e-16 2.85897e-15)
(-1.68894e-14 3.4208e-12 7.38066e-11)
(-1.68894e-14 5.4648e-13 1.97434e-09)
(4.58026e-19 -1.24733e-20 1.99848e-19)
(-2.20168e-13 7.01713e-12 6.16875e-13)
(-3.67355e-13 7.003e-12 6.16875e-13)
(-5.65655e-11 -1.9749e-10 5.33918e-07)
(-1.11848e-10 3.23695e-10 5.25416e-07)
(9.47309e-10 0.00136351 -0.000269301)
(9.47309e-10 3.73646e-05 -0.000494206)
(-0.00085905 -4.51065e-05 -0.000269301)
(-3.0164e-07 -2.89514e-08 -5.99456e-08)
(-3.15473e-10 -2.8047e-11 4.1579e-13)
(-3.71069e-10 2.398e-09 7.66245e-09)
(-1.24304e-10 2.60361e-11 7.81208e-07)
(4.46894e-21 -3.58976e-20 -7.48758e-20)
(-0.000144811 0.000788959 -0.00011854)
(-2.1654e-05 1.42922e-05 -0.000226033)
)


// ************************************************************************* //
