/*--------------------------------*- C++ -*----------------------------------*\
| =========                 |                                                 |
| \\      /  F ield         | OpenFOAM: The Open Source CFD Toolbox           |
|  \\    /   O peration     | Version:  plus.master.MPPICInterFoam            |
|   \\  /    A nd           | Web:      www.OpenFOAM.com                      |
|    \\/     M anipulation  |                                                 |
\*---------------------------------------------------------------------------*/
FoamFile
{
    version     2.0;
    format      ascii;
    class       volScalarField;
    location    "7.8";
    object      k;
}
// * * * * * * * * * * * * * * * * * * * * * * * * * * * * * * * * * * * * * //

dimensions      [0 2 -2 0 0 0 0];

internalField   nonuniform List<scalar> 
11821
(
0.0457675
0.049394
0.0415957
0.0469502
0.0420694
0.035795
0.0447768
0.049902
0.0529589
0.0531654
0.0502078
0.0448383
0.0381288
0.051859
0.0567161
0.0562127
0.0575105
0.0587425
0.0527721
0.0443078
0.0563437
0.0561917
0.0532917
0.0540525
0.0611628
0.0586182
0.0487439
0.0573615
0.0545431
0.0550665
0.0575462
0.0612266
0.0601372
0.0502384
0.0564502
0.058094
0.0560627
0.057995
0.0621676
0.0584631
0.0486528
0.0517824
0.0576954
0.0600351
0.060508
0.058981
0.0526473
0.0442294
0.0446808
0.049895
0.0530185
0.0531731
0.0502078
0.0448297
0.0381298
0.0481403
0.0539862
0.0574832
0.0575443
0.0539692
0.0479205
0.0407023
0.0562575
0.0626662
0.0630184
0.0637774
0.0637559
0.0565037
0.0471812
0.0619638
0.063431
0.0573343
0.0607728
0.0667982
0.0631174
0.0518902
0.0632728
0.062511
0.0612775
0.0635848
0.0667273
0.0648801
0.0534835
0.0617439
0.06465
0.0610047
0.0639625
0.0677333
0.0627298
0.0516911
0.0558398
0.0629466
0.0654169
0.0657564
0.0635184
0.0560826
0.0469415
0.047781
0.0535714
0.0569295
0.0569376
0.0535716
0.0476646
0.0405365
0.051056
0.0574488
0.0609218
0.0609022
0.0571812
0.0506703
0.0430375
0.0598783
0.0676493
0.0702254
0.0705913
0.0678666
0.0596898
0.0497386
0.0659605
0.070215
0.0671967
0.0692659
0.0730173
0.0664821
0.0545791
0.0683076
0.0696313
0.0588285
0.0616519
0.0744739
0.0688751
0.0562807
0.0656086
0.0715221
0.0700562
0.0720539
0.0742433
0.0662921
0.0543615
0.0592362
0.0671137
0.0714141
0.0716626
0.0674067
0.0591129
0.049368
0.0504955
0.0567158
0.0603714
0.0603386
0.0565542
0.0502063
0.0426811
0.0532233
0.0596193
0.0632574
0.0631425
0.0592022
0.052704
0.0447432
0.0617938
0.0709373
0.0737659
0.073445
0.0705323
0.061692
0.0516464
0.0677601
0.07354
0.0704162
0.0731212
0.0764308
0.0687358
0.0566123
0.0688563
0.0738621
0.0647988
0.0677632
0.0780708
0.0711174
0.0582916
0.0671199
0.0744682
0.0740641
0.0756306
0.0769255
0.0683078
0.0562981
0.0610612
0.068891
0.0739815
0.0743925
0.0700681
0.0611527
0.0510745
0.0523838
0.0588499
0.0625514
0.0625385
0.0586546
0.0519863
0.0441579
0.0536636
0.0589253
0.0615066
0.0615858
0.0592175
0.0533879
0.0456071
0.0600927
0.0632097
0.0698959
0.0713619
0.066373
0.0614222
0.0524888
0.0630814
0.0697847
0.0677125
0.0695919
0.0745874
0.0667458
0.0574173
0.065434
0.0708817
0.0643423
0.0672462
0.0758441
0.0694052
0.0591348
0.0650391
0.0705844
0.0699491
0.0722256
0.0757418
0.0670243
0.0569971
0.0605282
0.0667538
0.071893
0.0721214
0.0675838
0.0610526
0.0517014
0.0528209
0.0592777
0.0629498
0.0629978
0.0590268
0.0524378
0.0448638
0.0534737
0.0591924
0.0618937
0.0621326
0.0591912
0.0532973
0.0458917
0.0603323
0.0622574
0.0625102
0.0644286
0.065507
0.0611109
0.052546
0.0636141
0.0609951
0.0622268
0.0647724
0.0674273
0.066534
0.0573435
0.0648777
0.0618943
0.0616332
0.0644189
0.0695482
0.0687152
0.0589032
0.0642116
0.06569
0.0667956
0.0693335
0.069277
0.066261
0.0567123
0.0598166
0.0655253
0.0680684
0.0690929
0.0664214
0.0601247
0.0515581
0.0522771
0.0585821
0.0621441
0.0621034
0.0582608
0.0521144
0.0451248
0.0521515
0.0576847
0.0607622
0.0611026
0.0578663
0.0523325
0.0456683
0.0588971
0.0623449
0.0634408
0.0651591
0.0644264
0.0597125
0.0517037
0.0626348
0.0626806
0.0608592
0.0650574
0.0678311
0.0652039
0.0560736
0.0644465
0.0635401
0.0606935
0.0645418
0.0689125
0.0668241
0.0574536
0.0624968
0.0650565
0.0651981
0.0675121
0.0683028
0.0644359
0.0554551
0.0580916
0.063196
0.0664368
0.0671691
0.0645295
0.0586285
0.0509395
0.051234
0.0567195
0.0599556
0.0600648
0.0567901
0.0514607
0.0451412
0.0511765
0.0565227
0.0596028
0.0595395
0.0565463
0.0514111
0.0452358
0.0581306
0.0633196
0.066068
0.0664026
0.0642725
0.058367
0.0507173
0.0624316
0.0654743
0.0638551
0.064656
0.0683911
0.0634076
0.0545426
0.0636808
0.0668572
0.0642169
0.0665226
0.0703541
0.0651601
0.055819
0.0621034
0.0670915
0.0686721
0.0694489
0.0686774
0.0627655
0.0541789
0.0573901
0.0633875
0.0665453
0.0669067
0.0637109
0.0575491
0.0502833
0.050573
0.0555677
0.0583184
0.05839
0.055633
0.0508569
0.0449659
0.0501192
0.0547364
0.0570331
0.0571705
0.0548755
0.0505138
0.0448666
0.0563543
0.0608807
0.0624923
0.0632161
0.0616786
0.0567598
0.0499726
0.0601196
0.0624727
0.059306
0.0638128
0.0651661
0.0611856
0.0534528
0.0612299
0.0629926
0.0591812
0.0599701
0.066275
0.0626953
0.0546509
0.0603088
0.0645495
0.065836
0.0661748
0.0658987
0.0610184
0.0533062
0.0563016
0.0617735
0.0642642
0.0643411
0.0618761
0.056505
0.0497926
0.0500182
0.0546758
0.0570233
0.0570563
0.0547159
0.0503672
0.0447901
0.0493073
0.0532373
0.0553846
0.0554498
0.0536735
0.0499499
0.0447176
0.0542065
0.0566783
0.0572666
0.0583329
0.0589528
0.0553897
0.0495573
0.0565867
0.0564295
0.0581047
0.0580135
0.0599048
0.0587778
0.0528181
0.0563831
0.0559458
0.0574489
0.0589199
0.0597559
0.0599383
0.0539458
0.0571129
0.0572581
0.0568887
0.0588167
0.0604121
0.0586666
0.0527591
0.0547124
0.0578908
0.0591624
0.0601417
0.0588783
0.0554879
0.0495248
0.04948
0.0538256
0.0559101
0.0560029
0.0539927
0.0500392
0.0447677
0.0489277
0.0525447
0.0541253
0.0543944
0.0532653
0.0499154
0.0449189
0.0534865
0.0559254
0.0563673
0.0568595
0.0569372
0.055028
0.049656
0.0552943
0.055873
0.054388
0.0557057
0.0583215
0.0577846
0.0528031
0.0561508
0.0552138
0.0545245
0.056118
0.058538
0.05866
0.0539038
0.0560875
0.0571791
0.0561886
0.0576069
0.0598233
0.0583431
0.0528657
0.0542779
0.057209
0.0583428
0.0589429
0.0587144
0.0554642
0.0497218
0.0492843
0.0535872
0.0557522
0.0558907
0.0540102
0.0501897
0.0450399
0.0486064
0.0521419
0.0538463
0.0543551
0.0532864
0.0501069
0.04523
0.052883
0.0548557
0.0553203
0.0566547
0.0573031
0.0551571
0.0499144
0.0546308
0.0551229
0.0539117
0.0556636
0.0594553
0.0582962
0.053084
0.0555793
0.0556937
0.054863
0.0570924
0.0599096
0.0593779
0.0542202
0.0560289
0.0575687
0.057684
0.0590887
0.0607866
0.05889
0.0532056
0.0538983
0.0574454
0.0587333
0.0595234
0.0592228
0.0557436
0.0500535
0.0491581
0.0534132
0.0556734
0.0559807
0.054232
0.0504961
0.0453681
0.0489447
0.0530068
0.0550687
0.0554509
0.0540354
0.0505194
0.0454846
0.0541229
0.0577308
0.0596135
0.059815
0.0594334
0.0559889
0.0502162
0.057216
0.0592513
0.0597744
0.059888
0.0611393
0.0596397
0.0534272
0.05831
0.0595246
0.0592531
0.0581319
0.0617308
0.0611519
0.0546163
0.0578454
0.0613137
0.0607294
0.0616879
0.0629038
0.0601424
0.053517
0.0547784
0.0595781
0.0617203
0.0623693
0.0607942
0.0563812
0.0502849
0.0493245
0.0538408
0.0562509
0.0565952
0.0546732
0.0507562
0.0455091
0.0490072
0.0532846
0.0555552
0.0558684
0.0542917
0.0506754
0.0455453
0.0542989
0.0584295
0.0609799
0.0608622
0.0600327
0.0562615
0.0503174
0.0577333
0.0606014
0.0600083
0.062041
0.063148
0.0601962
0.0535639
0.0590297
0.0619231
0.0597506
0.0616123
0.0642093
0.0616821
0.0547434
0.0582507
0.0624272
0.0636051
0.064112
0.064168
0.0604872
0.0535497
0.0548291
0.060066
0.062543
0.0630576
0.0611653
0.0564761
0.0502499
0.049214
0.0538744
0.0564331
0.0567343
0.0547086
0.0507142
0.0454063
0.0489293
0.0534146
0.055764
0.0561829
0.0544672
0.0506991
0.0455142
0.0543122
0.0585311
0.0566897
0.059644
0.0600422
0.0563953
0.0503089
0.0575216
0.0573504
0.0592314
0.0595969
0.0619475
0.0603664
0.0536201
0.0585327
0.0575334
0.0571619
0.0589789
0.0650494
0.0619078
0.0548041
0.0578629
0.0588495
0.0601999
0.062078
0.0640907
0.0604957
0.0534791
0.0545282
0.0596308
0.0628487
0.063383
0.0609422
0.0563517
0.0500859
0.0488654
0.0536517
0.0564192
0.0567211
0.0545365
0.050497
0.045222
0.0488017
0.0533925
0.0559745
0.0563728
0.0545409
0.0507892
0.0456489
0.0539308
0.0572597
0.0584784
0.0589738
0.0591419
0.056272
0.050434
0.0566741
0.0579877
0.0553625
0.057439
0.0606665
0.0598045
0.0537252
0.0574869
0.0575314
0.0573023
0.0592202
0.0601965
0.0610194
0.0548189
0.0572907
0.0601755
0.0595668
0.0611543
0.0622793
0.0600127
0.0535229
0.0541138
0.0589195
0.0609649
0.0616826
0.0603976
0.0561411
0.0500876
0.0485759
0.053392
0.0561471
0.0564864
0.0543878
0.0504191
0.045226
0.00792422
0.00329721
0.0238808
0.0190611
0.0150694
0.0116345
0.00831019
0.00339766
0.0380241
0.0306836
0.024548
0.0195263
0.0153929
0.0118562
0.00845158
0.00343035
0.0367348
0.0297392
0.0238893
0.0190807
0.0150976
0.0116643
0.00833306
0.00339201
0.0333515
0.0272805
0.0221799
0.0179183
0.0143168
0.0111483
0.00801093
0.00330319
0.0289579
0.0242493
0.020095
0.0164866
0.0133386
0.0104906
0.00759311
0.00320034
0.0310803
0.0261113
0.0217003
0.0178412
0.0144582
0.0113907
0.00826475
0.00353627
0.0356813
0.0293337
0.0239914
0.0194848
0.0156368
0.0122225
0.00881578
0.00367623
0.0391724
0.0318675
0.0257911
0.0207571
0.0165336
0.0128445
0.0092183
0.00378186
0.0404255
0.0327942
0.0264561
0.0212291
0.0168669
0.0130753
0.00936611
0.00381624
0.0390958
0.0318254
0.0257767
0.0207665
0.0165587
0.0128746
0.00924193
0.0037751
0.0356023
0.0293064
0.0240191
0.0195606
0.0157413
0.0123312
0.00890165
0.00367881
0.0310599
0.0261786
0.021853
0.0180574
0.0147036
0.0116276
0.00845199
0.00356363
0.0333014
0.0280827
0.0234442
0.0193709
0.0157775
0.012489
0.00909651
0.00390372
0.0380821
0.0314272
0.0258257
0.0210839
0.0170099
0.013362
0.00967844
0.00405313
0.0416841
0.03403
0.0276783
0.0223987
0.0179395
0.0140074
0.0100952
0.0041633
0.0429598
0.0349649
0.0283505
0.0228799
0.0182823
0.014246
0.0102479
0.00419869
0.0415401
0.0339398
0.0276341
0.0223924
0.0179576
0.0140345
0.0101168
0.00415428
0.0378936
0.031323
0.0258057
0.0211335
0.0171009
0.0134631
0.00975823
0.0040502
0.0331679
0.0280711
0.0235459
0.0195562
0.0160052
0.012716
0.00927862
0.00392279
0.0352866
0.0298358
0.0250057
0.0207638
0.017002
0.0135246
0.00989111
0.00426797
0.0402349
0.0332892
0.027462
0.0225338
0.0182795
0.0144322
0.0104973
0.0044258
0.0439346
0.0359607
0.029363
0.023885
0.0192373
0.0150978
0.0109263
0.00453998
0.0452348
0.0369061
0.0300439
0.0243755
0.0195888
0.0153429
0.0110827
0.004576
0.043732
0.0358212
0.0292894
0.0238643
0.0192482
0.0151205
0.0109443
0.0045279
0.0399272
0.0331012
0.0273934
0.0225574
0.0183559
0.014523
0.0105683
0.00441581
0.035019
0.0297341
0.0250521
0.0209158
0.0172083
0.0137365
0.0100616
0.00427656
0.0367997
0.0312436
0.0263377
0.0220101
0.0181284
0.0144887
0.0106356
0.00462379
0.0418478
0.0347504
0.0288356
0.0238214
0.0194423
0.0154233
0.0112568
0.00478874
0.0456165
0.0374574
0.0307624
0.0251979
0.0204227
0.0161052
0.0116947
0.00490625
0.0469206
0.0384068
0.0314496
0.0256966
0.0207814
0.016355
0.0118529
0.00494199
0.0453355
0.0372737
0.0306708
0.0251688
0.0204273
0.0161216
0.0117067
0.00488953
0.0414139
0.0344943
0.0287373
0.0238279
0.019504
0.0154996
0.0113145
0.00476927
0.0364107
0.0310759
0.0263477
0.0221359
0.0183105
0.0146775
0.0107843
0.00461874
0.0378889
0.0323996
0.0275063
0.0231266
0.0191361
0.015343
0.0112882
0.00494074
0.0428989
0.0359063
0.0300326
0.0249734
0.0204801
0.0162967
0.0119167
0.00511074
0.0466394
0.0386042
0.0319697
0.0263689
0.0214778
0.0169895
0.0123586
0.00522901
0.0479353
0.0395467
0.0326574
0.0268713
0.0218397
0.0172402
0.0125155
0.00526286
0.0463003
0.0383944
0.0318635
0.0263289
0.0214722
0.0169962
0.0123623
0.00520637
0.0423768
0.0356121
0.0299103
0.0249596
0.0205212
0.0163531
0.0119572
0.00507981
0.0374394
0.0321976
0.0274902
0.0232259
0.0192893
0.0155019
0.0114083
0.00492021
0.0386096
0.0332836
0.0284429
0.0240279
0.0199457
0.016025
0.0118047
0.00519227
0.0434679
0.0367361
0.0309663
0.0258891
0.0213042
0.0169877
0.0124359
0.0053653
0.0470851
0.0393732
0.0328872
0.0272865
0.0223064
0.0176821
0.0128764
0.0054816
0.0483013
0.040282
0.0335641
0.0277859
0.0226664
0.01793
0.0130297
0.00551265
0.0466805
0.0391467
0.0327745
0.0272391
0.022292
0.01768
0.0128726
0.00545367
0.042901
0.0364357
0.0308383
0.0258624
0.0213277
0.0170256
0.0124607
0.005324
0.0381705
0.0330911
0.0284221
0.0241092
0.0200727
0.0161552
0.0118983
0.00515782
0.0388911
0.0337895
0.0290412
0.0246363
0.0205176
0.0165287
0.0122006
0.00539336
0.0434559
0.0371161
0.0315149
0.0264799
0.0218711
0.017491
0.0128327
0.00556762
0.0468165
0.0396309
0.0333825
0.0278533
0.0228608
0.0181777
0.0132679
0.00568117
0.0479412
0.0404997
0.0340419
0.0283436
0.0232146
0.0184206
0.0134173
0.00570967
0.04647
0.0394427
0.0332872
0.0278106
0.0228448
0.0181714
0.0132596
0.00564939
0.0430184
0.0368843
0.0314154
0.0264586
0.0218883
0.0175179
0.0128464
0.00551803
0.0385713
0.0336585
0.0290419
0.0247152
0.0206296
0.0166386
0.0122746
0.00534604
0.0388536
0.0339824
0.0293687
0.0250345
0.0209417
0.0169387
0.0125461
0.00558064
0.043124
0.0371577
0.0317657
0.0268409
0.0222792
0.017896
0.013178
0.00575616
0.0462055
0.0395288
0.0335575
0.0281731
0.0232464
0.0185705
0.0136068
0.00586764
0.0472631
0.0403618
0.0341971
0.0286515
0.0235925
0.0188081
0.0137522
0.00589382
0.0459869
0.0394076
0.0334956
0.0281454
0.023235
0.0185629
0.0135945
0.00583176
0.0428621
0.0370215
0.0317133
0.0268382
0.0222982
0.0179156
0.013181
0.00569754
0.0386759
0.0339307
0.029405
0.0251214
0.0210453
0.0170316
0.0126013
0.00551933
0.0388089
0.0341311
0.0296518
0.0254019
0.0213471
0.0173368
0.0128845
0.00576999
0.0428692
0.0371879
0.031985
0.0271774
0.0226718
0.0182897
0.0135152
0.0059459
0.045761
0.0394483
0.0337125
0.0284738
0.0236196
0.0189535
0.0139377
0.00605525
0.0467735
0.0402554
0.0343365
0.0289424
0.0239587
0.0191853
0.0140781
0.00607842
0.0456452
0.0393854
0.0336828
0.0284604
0.0236102
0.0189406
0.0139171
0.00601276
0.0427404
0.0371294
0.0319727
0.027188
0.0226858
0.0182937
0.0134994
0.00587356
0.0387407
0.034141
0.0297134
0.0254881
0.0214325
0.0174022
0.0129112
0.00568875
0.0389553
0.034418
0.0300275
0.0258202
0.0217668
0.0177218
0.0131964
0.00594369
0.0428754
0.0374077
0.0323306
0.0275832
0.0230859
0.0186705
0.0138229
0.00611742
0.0456387
0.0395995
0.0340228
0.0288608
0.024022
0.0193254
0.0142377
0.0062227
0.0466232
0.0403934
0.0346387
0.0293224
0.0243536
0.0195493
0.0143706
0.00624149
0.0455945
0.03958
0.0340121
0.0288489
0.0240033
0.0192981
0.0142023
0.00617073
0.0428393
0.0373993
0.0323339
0.027584
0.0230746
0.0186428
0.0137766
0.00602577
0.0389591
0.0344585
0.0300855
0.0258779
0.0218092
0.0177389
0.0131786
0.00583468
0.039315
0.0348265
0.0304491
0.026226
0.0221353
0.0180369
0.0134384
0.00607684
0.0431918
0.0378037
0.0327496
0.0279863
0.0234494
0.0189789
0.0140583
0.00624701
0.0459077
0.0399758
0.0344321
0.0292558
0.0243759
0.0196229
0.0144627
0.00634634
0.0468808
0.0407632
0.0350409
0.029708
0.0246966
0.0198356
0.0145858
0.00635965
0.045905
0.0399666
0.034413
0.0292249
0.0243342
0.019573
0.0144085
0.00628359
0.0431913
0.037794
0.0327257
0.027945
0.0233906
0.0189055
0.013974
0.00613369
0.0393309
0.0348424
0.0304563
0.0262181
0.0221078
0.0179881
0.0133663
0.00593692
0.0396675
0.03517
0.0307653
0.0265081
0.0223828
0.0182477
0.013602
0.0061701
0.0435358
0.0381482
0.0330632
0.0282603
0.0236862
0.0191801
0.0142149
0.0063367
0.0462529
0.0403196
0.0347396
0.0295182
0.0245984
0.0198098
0.0146072
0.00642981
0.0472358
0.0411037
0.0353376
0.0299562
0.0249043
0.0200091
0.0147198
0.00643765
0.0462607
0.0402925
0.0346904
0.0294551
0.024527
0.0197349
0.0145341
0.00635693
0.0435291
0.0380946
0.0329799
0.0281575
0.0235707
0.019058
0.0140928
0.00620302
0.0396367
0.0351113
0.0306865
0.0264141
0.0222759
0.0181305
0.0134765
0.00600071
0.0398462
0.0353217
0.0309042
0.0266458
0.0225247
0.0183898
0.0137281
0.00624992
0.043728
0.0382929
0.0331848
0.0283788
0.0238123
0.0193116
0.0143351
0.00641375
0.0464541
0.0404559
0.0348422
0.0296144
0.024704
0.0199249
0.0147155
0.00650165
0.0474328
0.0412234
0.0354201
0.0300328
0.0249926
0.0201101
0.0148177
0.00650422
0.0464114
0.0403792
0.0347502
0.0295159
0.0246036
0.0198263
0.0146241
0.00641876
0.0436383
0.0381575
0.033028
0.0282126
0.0236426
0.0191439
0.0141771
0.00626024
0.0397072
0.0351598
0.0307305
0.026467
0.0223437
0.0182096
0.013553
0.00605199
0.0398749
0.0353539
0.0309617
0.0267393
0.0226497
0.0185312
0.0138612
0.00633757
0.0437574
0.0383056
0.0332158
0.0284501
0.0239224
0.0194439
0.0144634
0.0064989
0.0464845
0.0404487
0.0348451
0.0296592
0.0247934
0.0200423
0.0148336
0.00658269
0.0474444
0.0411918
0.0353983
0.0300562
0.0250645
0.0202136
0.0149252
0.00657998
0.0463676
0.0403148
0.034711
0.0295282
0.0246653
0.0199198
0.0147227
0.00648888
0.0435553
0.0380774
0.0329875
0.0282244
0.0237005
0.0192305
0.0142679
0.0063243
0.0396045
0.0350823
0.0306959
0.0264799
0.0223969
0.0182881
0.0136355
0.00610985
0.039893
0.0354176
0.0310735
0.0268866
0.0228142
0.0186934
0.014
0.00642471
0.0437454
0.0383342
0.0333041
0.0285834
0.0240781
0.0195997
0.0145971
0.00658341
0.0464542
0.0404431
0.0349038
0.0297715
0.0249341
0.0201866
0.0149586
0.00666345
0.0473926
0.0411607
0.0354339
0.0301485
0.0251883
0.020344
0.0150394
0.00665536
0.0462774
0.0402718
0.034738
0.0296091
0.0247762
0.0200375
0.0148262
0.00655802
0.04345
0.0380389
0.0330129
0.0282971
0.0237994
0.0193357
0.0143611
0.00638702
0.0395171
0.0350511
0.0307173
0.0265419
0.0224831
0.0183818
0.0137199
0.00616695
0.0400863
0.0356254
0.0312842
0.0270866
0.0229922
0.0188412
0.01411
0.00648982
0.0439288
0.0385396
0.0335148
0.0287819
0.0242516
0.0197406
0.0146998
0.00664527
0.0466192
0.040634
0.035104
0.0299607
0.0250981
0.0203179
0.0150527
0.00672083
0.0475128
0.0413224
0.0356116
0.0303189
0.025336
0.0204615
0.0151229
0.0067075
0.0463942
0.0404195
0.0348963
0.029759
0.0249051
0.0201394
0.0148983
0.00660448
0.0435473
0.0381636
0.033146
0.0284227
0.0239077
0.0194219
0.0144227
0.00642852
0.0395989
0.0351493
0.0308222
0.0266429
0.0225725
0.018455
0.0137737
0.00620421
0.0373145
0.0319465
0.0269099
0.0222719
0.0180489
0.0141583
0.01023
0.00441807
0.0432917
0.0365704
0.0304755
0.024971
0.0200257
0.0155465
0.0111437
0.00472628
0.0477289
0.0401939
0.0333002
0.0271002
0.0215699
0.016616
0.0118364
0.0049731
0.0493324
0.04157
0.0343949
0.0279333
0.0221717
0.0170313
0.0121044
0.00508143
0.0478608
0.040323
0.0334254
0.0272142
0.0216635
0.0166861
0.0118888
0.00502013
0.043462
0.0367572
0.0306695
0.0251499
0.0201711
0.0156549
0.0112268
0.00480335
0.037495
0.0321382
0.0270984
0.0224312
0.0181649
0.0142354
0.0102895
0.00449774
0.0398186
0.0340213
0.0286274
0.0236995
0.0192405
0.0151389
0.0109739
0.0047513
0.0463677
0.0390087
0.0324254
0.0265379
0.021298
0.0165757
0.011918
0.00507611
0.0514596
0.0429973
0.0354741
0.0288008
0.0229166
0.017687
0.0126359
0.00533749
0.0534294
0.0445652
0.0366794
0.0297019
0.0235573
0.0181212
0.0129134
0.00545131
0.0517491
0.0432175
0.035659
0.0289498
0.0230246
0.0177588
0.0126844
0.00538407
0.0467298
0.0393319
0.0327148
0.0267715
0.0214646
0.0166852
0.0119948
0.00515217
0.0401884
0.0343629
0.0289193
0.0239159
0.0193784
0.015217
0.0110252
0.0048296
0.0419835
0.035806
0.0300979
0.0249416
0.0203114
0.0160513
0.0116869
0.00508834
0.0489406
0.0410912
0.0340818
0.0278798
0.0224215
0.017521
0.0126556
0.00543173
0.0544328
0.0453396
0.0373118
0.0302474
0.0240956
0.0186659
0.0133952
0.00570862
0.056742
0.047062
0.0386219
0.0312046
0.024764
0.0191155
0.0136827
0.00582763
0.0548125
0.0456253
0.0375486
0.0304242
0.0242112
0.0187359
0.0134402
0.00575423
0.0494557
0.0415508
0.0344669
0.02816
0.0226006
0.0176275
0.0127246
0.00550806
0.042548
0.0363143
0.0304957
0.0252067
0.0204613
0.0161244
0.0117295
0.00516838
0.043473
0.0370503
0.0311939
0.0259598
0.0212577
0.0168918
0.0123571
0.00542461
0.0506216
0.0425112
0.0352572
0.0289302
0.0233896
0.0183838
0.013347
0.00578738
0.0561332
0.0469234
0.0385966
0.0313516
0.0250994
0.0195572
0.014109
0.00608069
0.058271
0.0487084
0.0399649
0.0323385
0.0257881
0.0200223
0.0144082
0.00620674
0.0564522
0.0472308
0.0388597
0.0315401
0.0252186
0.0196281
0.0141552
0.00612901
0.0512584
0.0430914
0.0357125
0.0292385
0.0235767
0.0184909
0.0134163
0.00586954
0.044245
0.0377102
0.0316659
0.0262496
0.0214097
0.0169613
0.0123987
0.0055121
0.0441278
0.0377865
0.0320135
0.0268149
0.022084
0.0176262
0.0129346
0.00572273
0.0511774
0.0431858
0.0360295
0.0297676
0.0242213
0.0191336
0.0139393
0.00609882
0.0565416
0.0476708
0.0393962
0.0322095
0.0259538
0.0203288
0.0147171
0.0064031
0.0584351
0.0495249
0.0408091
0.0332272
0.026663
0.0208097
0.0150268
0.0065359
0.0565277
0.0480087
0.039696
0.0324187
0.0260829
0.0204053
0.0147678
0.0064568
0.0517573
0.04385
0.0365315
0.0300927
0.0244131
0.0192437
0.0140135
0.00619051
0.0449964
0.0385018
0.0324952
0.0270965
0.022227
0.0176929
0.0129798
0.00582175
0.0442056
0.0381729
0.0325953
0.0274686
0.0227189
0.0181817
0.0133604
0.00594173
0.0509081
0.0433066
0.036472
0.030366
0.0248401
0.0196862
0.014364
0.0063196
0.0562539
0.0476747
0.0397468
0.0327693
0.0265614
0.0208771
0.0151365
0.00662171
0.0582909
0.0495651
0.0411591
0.033787
0.0272751
0.0213603
0.0154456
0.00675509
0.0565108
0.0481568
0.0400933
0.0329875
0.0266905
0.0209533
0.0151873
0.00667827
0.051822
0.0440657
0.0369755
0.0306731
0.0250179
0.0197887
0.0144357
0.00641668
0.0451553
0.0388547
0.033021
0.0277062
0.0228369
0.0182379
0.013404
0.00604953
0.0439517
0.0382928
0.0329075
0.0278559
0.0231156
0.0185466
0.0136527
0.00609773
0.050064
0.0430901
0.0366105
0.0306616
0.0251847
0.0200203
0.0146384
0.00646977
0.0549278
0.0470691
0.0396766
0.0329513
0.0268377
0.0211672
0.0153827
0.00676056
0.0571407
0.0488349
0.0409991
0.0339135
0.0275156
0.0216256
0.0156753
0.00688783
0.0555633
0.0475457
0.0399786
0.0331329
0.0269435
0.0212269
0.0154219
0.00681361
0.0509331
0.0437034
0.0370018
0.0308964
0.0253176
0.0200946
0.0146923
0.00656317
0.0446811
0.03879
0.0332088
0.0280171
0.0231888
0.0185769
0.0136818
0.0062066
0.0436144
0.0382108
0.0329914
0.0280438
0.023366
0.018822
0.0139043
0.00624582
0.0493478
0.0427313
0.0365131
0.0307297
0.0253593
0.0202529
0.0148705
0.00661531
0.0537159
0.046326
0.0393365
0.0328617
0.0269113
0.0213406
0.0155855
0.0068992
0.05551
0.047828
0.0405036
0.0337268
0.0275256
0.0217598
0.0158568
0.00702009
0.0541863
0.0466317
0.0395278
0.032976
0.0269732
0.0213716
0.0156069
0.00694586
0.0498907
0.0430902
0.0367428
0.0308644
0.0254289
0.0202874
0.014901
0.00670206
0.0440373
0.03849
0.0331533
0.0281179
0.0233851
0.0188193
0.0139153
0.00635358
0.0433268
0.0381146
0.0330438
0.0282127
0.0236142
0.0191057
0.0141689
0.00640756
0.0487307
0.0424094
0.0364043
0.0307905
0.0255445
0.0205072
0.0151268
0.00678188
0.0526838
0.045713
0.0390259
0.0327866
0.0270162
0.0215566
0.0158305
0.00706974
0.0542071
0.0470134
0.040056
0.0335602
0.027575
0.0219476
0.0160915
0.00719051
0.0528116
0.0458379
0.0391141
0.0328363
0.0270379
0.0215656
0.0158427
0.00711558
0.0488881
0.0425556
0.036505
0.0308432
0.0255648
0.0205169
0.0151495
0.0068713
0.0434824
0.0382301
0.0331014
0.0282217
0.0235969
0.0190878
0.0141794
0.00652339
0.0431478
0.0381208
0.0331827
0.0284409
0.0238884
0.0193841
0.0144084
0.00655192
0.0481574
0.0422055
0.0364178
0.0309494
0.0257867
0.0207756
0.0153664
0.00693281
0.051616
0.0452712
0.0388966
0.0328654
0.0272225
0.021816
0.0160739
0.00722909
0.0527512
0.0464169
0.0398348
0.0335857
0.0277565
0.0222006
0.0163378
0.00735538
0.0515258
0.045286
0.0389177
0.032876
0.0272267
0.0218227
0.0160927
0.00728305
0.0480758
0.0422115
0.0364335
0.0309565
0.0257916
0.0207906
0.0154059
0.00703869
0.0431282
0.0381241
0.0331745
0.0284214
0.0238708
0.0193847
0.0144463
0.00669066
0.0431577
0.038234
0.0333652
0.0286553
0.0241043
0.0195778
0.0145588
0.00664222
0.0479728
0.0421915
0.0365315
0.031133
0.0259908
0.0209648
0.0155133
0.00702357
0.0512029
0.0451239
0.0389357
0.0330187
0.0274196
0.0220064
0.0162224
0.00732197
0.0522932
0.0462068
0.0398289
0.0337207
0.0279523
0.0223966
0.0164926
0.00745316
0.0510548
0.045094
0.0389276
0.0330207
0.0274307
0.0220281
0.0162578
0.00738808
0.0477861
0.0421346
0.0365178
0.0311406
0.026017
0.0210114
0.0155853
0.00715221
0.0430439
0.0381877
0.0333469
0.0286566
0.0241272
0.0196272
0.014643
0.00681148
0.0431862
0.0383096
0.0334542
0.0287405
0.0241816
0.0196453
0.0146101
0.00668005
0.0478637
0.0421992
0.0365897
0.0311993
0.0260512
0.021016
0.0155502
0.00705505
0.0509277
0.0450389
0.0389567
0.0330694
0.0274678
0.0220445
0.0162459
0.00734631
0.0518258
0.0460331
0.0398223
0.0337678
0.0280027
0.0224362
0.0165158
0.00747748
0.0505769
0.0449405
0.038937
0.0330837
0.0274988
0.0220856
0.0162965
0.00742118
0.0475491
0.0421
0.036584
0.0312397
0.0261178
0.0211009
0.0156523
0.00720122
0.0430098
0.0382628
0.0334747
0.0287999
0.0242674
0.0197527
0.0147405
0.00687567
0.0431799
0.0382441
0.0333716
0.0286682
0.0241372
0.0196328
0.0146202
0.00670418
0.0480096
0.0421568
0.0364877
0.0310912
0.0259693
0.020973
0.0155394
0.00707263
0.0513042
0.0450361
0.0388447
0.0329313
0.0273512
0.0219712
0.0162135
0.00735561
0.0523877
0.0460673
0.0397239
0.0336322
0.0278809
0.0223558
0.0164774
0.00748472
0.0511338
0.0449942
0.038863
0.032975
0.0274042
0.0220282
0.0162745
0.00743581
0.0478146
0.0421273
0.0365404
0.0311824
0.0260776
0.0210902
0.0156642
0.00723046
0.0431081
0.0382861
0.0334755
0.0288031
0.0242876
0.0197927
0.0147891
0.00692075
0.0429909
0.0380314
0.0331851
0.0285375
0.0240731
0.0196274
0.0146516
0.00674673
0.0478801
0.0419356
0.0362557
0.0309059
0.0258593
0.0209368
0.0155544
0.00711355
0.0512734
0.0448451
0.0385913
0.0327035
0.0272
0.021907
0.0162142
0.00739529
0.0524676
0.0459229
0.0394857
0.0334015
0.0277198
0.0222846
0.0164755
0.00752571
0.0511853
0.044854
0.0386492
0.0327789
0.0272747
0.0219801
0.0162876
0.00748292
0.0477733
0.0419895
0.0363772
0.0310528
0.0260093
0.0210867
0.0157046
0.00728617
0.0430493
0.0381858
0.0333822
0.0287503
0.024287
0.0198387
0.0148608
0.00698669
0.0426882
0.0377804
0.0330131
0.0284527
0.0240601
0.0196622
0.0147081
0.00680048
0.0475344
0.0416154
0.036011
0.0307635
0.0258092
0.0209513
0.0156021
0.0071689
0.0509528
0.0445011
0.0383009
0.0325189
0.0271237
0.0219092
0.0162589
0.00745471
0.0522645
0.0456144
0.0391954
0.0332038
0.0276383
0.0222881
0.0165253
0.00759095
0.0510097
0.0445936
0.0384054
0.0326199
0.0272206
0.0220039
0.0163518
0.00755508
0.047607
0.0417871
0.0362086
0.030962
0.0260045
0.0211429
0.0157882
0.00736412
0.0429228
0.0380612
0.0333035
0.0287381
0.0243383
0.0199322
0.0149671
0.00707074
0.0424964
0.0376496
0.0329483
0.0284413
0.0240842
0.0197042
0.0147525
0.00684032
0.0472654
0.0414137
0.0358916
0.030717
0.0258134
0.0209832
0.0156412
0.00720905
0.0506831
0.0442747
0.0381523
0.0324541
0.02712
0.0219391
0.016298
0.00749689
0.0519742
0.0453871
0.0390421
0.033143
0.0276427
0.0223276
0.0165733
0.0076393
0.0507874
0.0444166
0.0382942
0.0325885
0.0272487
0.0220628
0.0164154
0.00761249
0.0474557
0.0416718
0.0361567
0.0309766
0.026066
0.0212266
0.0158704
0.00743068
0.0428486
0.0380262
0.0333234
0.0288074
0.024439
0.0200438
0.0150687
0.00714419
0.0367713
0.0313443
0.0262878
0.0216572
0.0174716
0.0136552
0.00985775
0.00433354
0.0406337
0.0337419
0.02771
0.0224227
0.0178023
0.0137255
0.00981016
0.00425246
0.0429907
0.0351511
0.0284292
0.0226972
0.0178149
0.0136049
0.0096631
0.00414463
0.0429858
0.0348863
0.0280082
0.0222249
0.0173707
0.0132354
0.00939356
0.00399538
0.0404296
0.0328321
0.0263832
0.0209744
0.0164496
0.0125878
0.00896227
0.00381733
0.0360306
0.029493
0.0239391
0.0192468
0.0152754
0.0118221
0.00848426
0.00363763
0.0307745
0.0257842
0.0213666
0.0175179
0.014159
0.0111326
0.0080698
0.00349385
0.0394504
0.0335707
0.0281223
0.0231629
0.0187078
0.014658
0.0106131
0.00466859
0.0436988
0.0362256
0.0297351
0.0240698
0.0191425
0.014804
0.0106168
0.004609
0.0462635
0.0377853
0.0305869
0.024457
0.0192478
0.0147576
0.0105207
0.00452227
0.0462018
0.0375084
0.0301851
0.0240261
0.018854
0.0144365
0.010293
0.00438543
0.0433755
0.0353029
0.0284745
0.0227403
0.0179286
0.0137948
0.00986182
0.00420951
0.0386257
0.0317347
0.0258803
0.0209218
0.0167012
0.0129941
0.0093582
0.00402265
0.0330336
0.027786
0.023136
0.0190678
0.0154926
0.012238
0.00889811
0.00386049
0.0418258
0.0355411
0.0297248
0.0244874
0.0198265
0.0155974
0.0113414
0.00501515
0.0463857
0.0384494
0.0315358
0.0255397
0.0203701
0.0158267
0.011408
0.00497854
0.0490916
0.0401702
0.0325351
0.0260506
0.0205726
0.0158561
0.0113644
0.00490862
0.0490086
0.0399019
0.0321665
0.0256689
0.0202343
0.0155853
0.0111713
0.00478753
0.0460014
0.0375473
0.0303656
0.0243491
0.0193056
0.014947
0.0107422
0.00460552
0.0409739
0.0337525
0.0276245
0.0224461
0.0180249
0.0141074
0.0102027
0.0044066
0.0350621
0.0295768
0.0247289
0.020486
0.0167366
0.013285
0.00969552
0.00422413
0.0435742
0.0369778
0.0309504
0.0255858
0.0208228
0.0164729
0.0120381
0.00536988
0.048375
0.0401205
0.0329317
0.0267722
0.0214766
0.0167895
0.0121695
0.00535981
0.0512772
0.0420319
0.0340818
0.027397
0.0217711
0.0168899
0.0121723
0.0053054
0.0511761
0.0417855
0.033761
0.0270711
0.0214876
0.0166645
0.0120071
0.00519343
0.0479691
0.0392816
0.0318922
0.025734
0.0205564
0.0160285
0.011581
0.00500238
0.0427422
0.0353213
0.0290641
0.0237814
0.0192352
0.0151469
0.0110021
0.00478567
0.0366227
0.0310263
0.0260931
0.0217568
0.0178822
0.0142637
0.0104527
0.00458402
0.044426
0.0378533
0.0318516
0.0264905
0.0216864
0.0172412
0.0126456
0.00568962
0.0493047
0.0411496
0.0339803
0.0278083
0.0224503
0.0176425
0.0128346
0.0057056
0.0523436
0.0432162
0.0352579
0.028545
0.0228363
0.0178116
0.0128822
0.00566657
0.0523475
0.0430313
0.0349959
0.0282811
0.0226088
0.0176296
0.0127456
0.00555984
0.0490799
0.0404626
0.0331099
0.0269413
0.0216755
0.0169922
0.0123191
0.00536621
0.0437828
0.0364674
0.0302646
0.0249603
0.0203162
0.0160719
0.0117117
0.00513506
0.0377449
0.0322057
0.0272822
0.0228928
0.0189094
0.0151361
0.0111237
0.00490929
0.0446539
0.0382743
0.0324333
0.0271457
0.0223345
0.0178196
0.0130925
0.00592855
0.0496295
0.0416244
0.0346344
0.0285488
0.0231801
0.0182835
0.0133247