/*--------------------------------*- C++ -*----------------------------------*\
| =========                 |                                                 |
| \\      /  F ield         | OpenFOAM: The Open Source CFD Toolbox           |
|  \\    /   O peration     | Version:  plus.master.MPPICInterFoam            |
|   \\  /    A nd           | Web:      www.OpenFOAM.com                      |
|    \\/     M anipulation  |                                                 |
\*---------------------------------------------------------------------------*/
FoamFile
{
    version     2.0;
    format      ascii;
    class       volScalarField;
    location    "7.8";
    object      p;
}
// * * * * * * * * * * * * * * * * * * * * * * * * * * * * * * * * * * * * * //

dimensions      [1 -1 -2 0 0 0 0];

internalField   nonuniform List<scalar> 
11821
(
2355.62
2355.89
2354.95
2355.86
2355.14
2354.02
2253.08
2252.72
2251.65
2252.21
2252.78
2253.17
2253.35
2252.64
2252.61
2253.52
2253.74
2252.36
2252.71
2253.19
2252.74
2253.93
2247.05
2254.11
2252.37
2252.36
2253.02
2252.27
2258.08
2255.67
2256.83
2257.82
2251.22
2252.92
2252.76
2252.77
2251.81
2257.69
2252.88
2252.65
2253.2
2252.9
2252.62
2251.84
2252.39
2252.72
2253.06
2253.38
2253.24
2252.96
2252.24
2252.63
2253.12
2253.4
2253.45
2157.71
2158.3
2158.13
2157.91
2157.65
2157.18
2157
2158.45
2161.76
2165.07
2164.53
2159.82
2157.54
2157.01
2159.79
2165.22
2167.13
2166.1
2162.22
2158.1
2156.92
2156.77
2165.62
2156.58
2157.89
2162.3
2155.2
2156.07
2158.35
2162.96
2165.45
2163.28
2160.09
2157.08
2156.56
2157.37
2159.03
2159.19
2159.11
2157.69
2156.7
2156.59
2156.95
2157.1
2156.48
2156.36
2156.62
2156.59
2156.61
2061.97
2061.9
2061.16
2061.34
2061.68
2061.61
2061.51
2061.78
2064.39
2066.4
2066.16
2063.04
2061.63
2061.64
2061.4
2067.02
2067.99
2067.97
2065.66
2061.55
2061.54
2058.7
2065.17
2058.78
2059.83
2063.29
2060.55
2061.04
2059.56
2064.79
2066.58
2066.19
2063.66
2061.01
2061.31
2060.38
2061.22
2062.61
2062.9
2061.73
2061.17
2061.27
2061.09
2061.17
2060.89
2060.97
2061.25
2061.2
2061.17
1962.66
1961.39
1959.81
1959.82
1961.41
1962.66
1963.89
1960.73
1957.42
1960.28
1960.17
1957.91
1961.51
1963.56
1958.99
1963.92
1969.29
1968.26
1961.87
1960.62
1963.52
1960.61
1966.32
1972.57
1972.09
1963.33
1960.73
1963.48
1960.92
1961.06
1967.51
1967.07
1961.27
1961.47
1963.66
1962.22
1959.59
1960.3
1960.57
1960.88
1962.54
1963.93
1963.57
1962.84
1962.42
1962.58
1963.1
1963.71
1964.34
1865.38
1863.85
1864.11
1864.3
1864.81
1865.82
1867.66
1863.87
1861.47
1857.69
1858.81
1863.74
1864.61
1866.38
1863.2
1856.22
1861.19
1863.72
1859.03
1864.04
1865.92
1864.91
1860.62
1865.27
1866.55
1860.31
1863.89
1866.01
1865.93
1861.09
1866.06
1865.95
1861.11
1865.07
1866.38
1866.6
1866.13
1863.29
1863.77
1865.38
1865.49
1867.18
1867.17
1865.99
1866.23
1866.18
1865.94
1867.01
1868.6
1782.14
1783.67
1784.1
1784.47
1783.28
1781.21
1781.1
1785
1786.06
1784.49
1784.93
1786.48
1783.21
1780.91
1786.09
1782.91
1783.07
1785.14
1784.83
1784.25
1781.08
1785.21
1783.41
1784.4
1785.95
1785.11
1784.35
1781.21
1785.07
1786.12
1786.5
1786.55
1786.14
1784.27
1781.17
1783.85
1786.55
1786.09
1786.47
1785.61
1782.48
1781.03
1781.5
1782.33
1782.86
1782.85
1781.9
1781.06
1781.35
1704.32
1708.84
1710.23
1709.69
1706.14
1701.72
1699.48
1710.58
1719.16
1719.23
1718.5
1714.21
1706.07
1700.8
1713.68
1721.97
1719.77
1719.54
1718.09
1709.36
1702
1713.16
1720.7
1719.53
1719.58
1717.92
1709.6
1702.2
1711.05
1718.31
1720.31
1720.03
1717.07
1708.14
1701.46
1705.93
1711.49
1714.14
1713.78
1710.15
1703.76
1699.89
1701.19
1703.38
1704.74
1704.49
1702.57
1700.06
1698.65
1614.39
1617.07
1619.08
1618.53
1615.89
1613.16
1611.49
1617.87
1624.27
1628.14
1627.6
1622.14
1615.9
1612.68
1620.82
1629.29
1636.23
1633.96
1627.67
1618.44
1613.68
1620.44
1629.01
1635.76
1635.66
1627.95
1618.81
1613.82
1618.85
1626.53
1630.85
1629.91
1624.18
1616.65
1612.92
1615.45
1619.35
1622.27
1621.38
1617.51
1613.75
1611.56
1612.78
1614.23
1615.12
1614.75
1613.29
1611.64
1610.32
1515.26
1514.51
1514.55
1514.7
1515.24
1515.61
1515.83
1513.73
1511.68
1512.88
1513.21
1513.33
1514.99
1515.86
1512.25
1512.42
1521.26
1516.36
1513.23
1513.9
1515.8
1512.71
1511.04
1519.61
1521.62
1513.15
1513.35
1515.63
1512.23
1509.53
1509.62
1511.52
1510.58
1513.32
1515.24
1514.12
1511.3
1510.5
1511.03
1512.54
1514.39
1515.18
1515.26
1514.99
1514.81
1514.83
1515.06
1515.18
1515.17
1419.42
1418.63
1416.81
1417.95
1418.98
1419.49
1420.14
1419.17
1417.57
1418.85
1417.26
1417.41
1419.02
1419.81
1417.83
1417.77
1417.7
1415.92
1417.36
1418.09
1419.56
1420.01
1418.5
1419.46
1420.38
1419.86
1417.8
1419.53
1418.76
1417.86
1417.15
1418.11
1417.84
1419.15
1419.64
1419.59
1418.84
1417.58
1417.48
1419.55
1419.23
1419.87
1419.92
1419.75
1419.65
1419.76
1419.73
1419.89
1420.23
1328.82
1329.33
1327.96
1328.13
1328.62
1328.08
1328.11
1331.18
1331.97
1332.03
1331.73
1331.75
1329.35
1328.3
1332.87
1333.14
1330.41
1330.97
1332.57
1330.61
1328.57
1333.64
1334.21
1336.1
1335.43
1335.05
1331.4
1328.85
1333.17
1334.34
1335.38
1334.89
1333.98
1331.85
1329.09
1331.39
1334.17
1334.39
1334.24
1333.06
1330.07
1328.89
1329.46
1330.23
1330.59
1330.39
1329.77
1329.03
1328.78
1240.96
1242.93
1243.23
1243.1
1241.72
1239.61
1238.63
1244.89
1249.38
1250.38
1249.82
1247.28
1242.27
1239.4
1247.74
1250.38
1252.24
1251.19
1249.43
1244.56
1240.03
1248.28
1252.58
1254.27
1247.9
1249.8
1244.3
1240.03
1247.2
1251.56
1251.87
1250.48
1248.68
1244.3
1240.07
1243.61
1247.55
1248.5
1247.72
1245.54
1241.51
1239.37
1240.49
1241.74
1242.12
1241.82
1240.86
1239.55
1238.79
1149.01
1150.73
1151.64
1151.1
1149.64
1147.92
1146.96
1152.11
1155.97
1156.96
1156.27
1153.89
1149.87
1147.73
1154.49
1157.28
1158.33
1158.55
1157.26
1151.68
1148.38
1154.46
1157.56
1154.99
1160.85
1159.22
1152.25
1148.64
1153.47
1156.96
1158.59
1159.26
1156.7
1151.55
1148.44
1150.57
1153.53
1154.42
1154.31
1152.52
1149.3
1147.67
1148.43
1149.48
1149.93
1149.86
1149.02
1147.86
1147.01
1050.25
1050.11
1049.83
1049.81
1050.3
1050.54
1050.69
1050.15
1048.81
1046.17
1047.16
1049.41
1050.28
1050.79
1049.12
1049.47
1046.86
1045.37
1048.16
1049.77
1050.74
1048.48
1044.47
1048.17
1055.19
1050.96
1050.23
1050.89
1049.57
1047.1
1045.9
1049.86
1051.01
1050.49
1051.03
1050.17
1049.52
1048.91
1049.98
1050.91
1050.72
1051.08
1050.69
1050.7
1050.79
1051.06
1051.1
1051.15
1051.09
952.825
952.2
950.642
952.03
952.744
953.387
954.132
952.009
950.139
954.245
950.564
951.529
952.44
953.722
950.664
953.474
950.519
947.828
951.478
951.305
953.331
950.829
949.849
948.78
950.498
947.793
951.36
953.333
952.204
953.3
950.418
951.14
950.875
952.095
953.683
952.604
952.14
949.922
951.068
952.638
952.851
954.096
953.675
953.315
953.1
953.37
953.524
954.1
954.621
859.778
859.911
859.369
859.981
859.976
859.851
860.366
860.434
861.69
863.212
863.048
862.113
860.095
860.064
861.405
862.891
859.879
863.528
863.334
860.779
859.876
861.694
865.071
862.167
862.916
862.753
859.852
859.589
862.23
863.773
864.137
863.612
862.362
860.769
860.05
860.34
862.189
860.853
860.799
861.282
859.96
860.262
860.413
860.411
860.006
860.001
860.186
860.387
860.765
2349.97
2349.77
2352.15
2351.31
2350.66
2350.18
2349.84
2349.64
2354.61
2353.34
2352.23
2351.33
2350.63
2350.13
2349.78
2349.58
2354.33
2353.14
2352.1
2351.24
2350.58
2350.1
2349.76
2349.56
2353.75
2352.72
2351.82
2351.08
2350.51
2350.08
2349.77
2349.58
2352.98
2352.15
2351.45
2350.87
2350.41
2350.06
2349.8
2349.64
2253.42
2253.46
2253.48
2253.46
2253.42
2253.36
2253.29
2253.23
2253.47
2253.57
2253.56
2253.49
2253.41
2253.33
2253.25
2253.18
2253.43
2253.54
2253.53
2253.45
2253.36
2253.27
2253.18
2253.11
2253.43
2253.53
2253.51
2253.43
2253.33
2253.24
2253.15
2253.08
2253.52
2253.57
2253.52
2253.43
2253.33
2253.24
2253.15
2253.07
2253.55
2253.55
2253.5
2253.42
2253.33
2253.24
2253.15
2253.08
2253.49
2253.45
2253.41
2253.37
2253.31
2253.25
2253.17
2253.09
2156.94
2156.95
2157
2157.05
2157.08
2157.09
2157.08
2157.06
2156.96
2156.98
2157.01
2157.04
2157.05
2157.05
2157.04
2157.01
2156.86
2156.89
2156.93
2156.96
2156.99
2156.99
2156.98
2156.95
2156.53
2156.72
2156.83
2156.89
2156.93
2156.95
2156.94
2156.92
2156.69
2156.78
2156.85
2156.9
2156.93
2156.95
2156.94
2156.92
2156.71
2156.79
2156.87
2156.92
2156.95
2156.96
2156.94
2156.92
2156.69
2156.75
2156.83
2156.9
2156.95
2156.96
2156.95
2156.92
2061.37
2061.34
2061.36
2061.4
2061.44
2061.47
2061.49
2061.5
2061.48
2061.4
2061.39
2061.4
2061.42
2061.45
2061.46
2061.47
2061.45
2061.36
2061.33
2061.34
2061.36
2061.39
2061.41
2061.43
2061.23
2061.23
2061.25
2061.28
2061.32
2061.35
2061.38
2061.4
2061.32
2061.27
2061.27
2061.29
2061.33
2061.36
2061.39
2061.41
2061.27
2061.26
2061.28
2061.32
2061.36
2061.4
2061.41
2061.42
2061.17
2061.18
2061.24
2061.31
2061.37
2061.41
2061.42
2061.42
1964.49
1964.96
1965.42
1965.8
1966.11
1966.36
1966.53
1966.7
1964.36
1964.91
1965.38
1965.77
1966.09
1966.35
1966.54
1966.72
1964.34
1964.83
1965.28
1965.68
1966.02
1966.3
1966.51
1966.73
1964.31
1964.79
1965.23
1965.64
1965.99
1966.29
1966.51
1966.74
1964.42
1964.87
1965.31
1965.71
1966.05
1966.33
1966.54
1966.75
1964.58
1965.04
1965.47
1965.84
1966.15
1966.4
1966.59
1966.77
1964.83
1965.21
1965.59
1965.94
1966.23
1966.46
1966.62
1966.76
1869.1
1870.25
1871.23
1872.03
1872.68
1873.2
1873.6
1873.9
1868.35
1869.82
1870.97
1871.87
1872.6
1873.17
1873.62
1873.96
1867.98
1869.48
1870.71
1871.69
1872.48
1873.11
1873.61
1873.99
1867.95
1869.43
1870.66
1871.66
1872.47
1873.12
1873.63
1874.02
1868.25
1869.66
1870.83
1871.79
1872.56
1873.18
1873.67
1874.04
1868.87
1870.14
1871.2
1872.05
1872.74
1873.29
1873.72
1874.04
1869.78
1870.75
1871.6
1872.32
1872.9
1873.37
1873.74
1874.02
1781.38
1781.91
1782.4
1782.84
1783.25
1783.64
1784.01
1784.31
1781.08
1781.62
1782.17
1782.68
1783.14
1783.57
1783.98
1784.31
1780.96
1781.44
1782.01
1782.55
1783.05
1783.51
1783.95
1784.31
1780.98
1781.42
1781.98
1782.53
1783.03
1783.5
1783.94
1784.31
1781.06
1781.53
1782.08
1782.6
1783.07
1783.52
1783.94
1784.29
1781.26
1781.77
1782.28
1782.75
1783.17
1783.57
1783.95
1784.26
1781.66
1782.14
1782.57
1782.94
1783.29
1783.63
1783.97
1784.24
1697.95
1697.18
1696.58
1696.17
1695.95
1695.9
1696.02
1696.18
1698.56
1697.38
1696.6
1696.12
1695.87
1695.8
1695.91
1696.08
1699.04
1697.62
1696.72
1696.15
1695.84
1695.74
1695.83
1696.01
1699.14
1697.67
1696.73
1696.13
1695.8
1695.68
1695.76
1695.94
1698.79
1697.46
1696.58
1696.03
1695.72
1695.61
1695.69
1695.87
1698.05
1697.04
1696.34
1695.88
1695.63
1695.56
1695.65
1695.81
1697.38
1696.73
1696.21
1695.82
1695.6
1695.55
1695.65
1695.8
1609.9
1608.82
1607.9
1607.2
1606.74
1606.49
1606.45
1606.51
1610.64
1609.16
1608.04
1607.22
1606.68
1606.38
1606.3
1606.36
1611.18
1609.5
1608.21
1607.28
1606.66
1606.3
1606.19
1606.26
1611.25
1609.52
1608.2
1607.24
1606.58
1606.21
1606.09
1606.15
1610.71
1609.14
1607.92
1607.03
1606.43
1606.09
1605.99
1606.05
1609.83
1608.54
1607.52
1606.77
1606.27
1605.99
1605.92
1605.99
1608.9
1607.97
1607.18
1606.57
1606.16
1605.95
1605.91
1605.97
1515.55
1515.23
1514.9
1514.63
1514.45
1514.37
1514.39
1514.47
1515.67
1515.3
1514.93
1514.6
1514.37
1514.26
1514.27
1514.35
1515.72
1515.33
1514.92
1514.56
1514.3
1514.17
1514.17
1514.26
1515.64
1515.25
1514.85
1514.49
1514.23
1514.09
1514.09
1514.19
1515.34
1515.02
1514.67
1514.35
1514.12
1514.01
1514.01
1514.12
1515.1
1514.8
1514.49
1514.22
1514.04
1513.95
1513.97
1514.07
1514.85
1514.56
1514.3
1514.1
1513.97
1513.93
1513.96
1514.05
1420.43
1420.65
1420.83
1420.97
1421.1
1421.24
1421.4
1421.55
1420.31
1420.62
1420.81
1420.94
1421.05
1421.18
1421.33
1421.51
1420.21
1420.52
1420.72
1420.85
1420.97
1421.11
1421.28
1421.47
1420.18
1420.47
1420.67
1420.81
1420.93
1421.07
1421.25
1421.45
1420.2
1420.46
1420.66
1420.8
1420.93
1421.07
1421.24
1421.43
1420.28
1420.51
1420.69
1420.83
1420.95
1421.08
1421.25
1421.41
1420.39
1420.54
1420.7
1420.84
1420.97
1421.1
1421.26
1421.4
1328.08
1328.2
1328.35
1328.49
1328.65
1328.82
1329.01
1329.18
1328.17
1328.26
1328.38
1328.5
1328.64
1328.8
1328.99
1329.18
1328.31
1328.31
1328.39
1328.49
1328.62
1328.78
1328.98
1329.19
1328.47
1328.4
1328.44
1328.52
1328.64
1328.79
1328.99
1329.2
1328.59
1328.49
1328.51
1328.58
1328.68
1328.82
1329.01
1329.21
1328.57
1328.53
1328.57
1328.64
1328.74
1328.87
1329.04
1329.22
1328.56
1328.58
1328.63
1328.7
1328.8
1328.92
1329.08
1329.24
1237.9
1237.54
1237.27
1237.09
1237.01
1237.02
1237.11
1237.23
1238.29
1237.73
1237.36
1237.14
1237.03
1237.02
1237.11
1237.23
1238.59
1237.92
1237.49
1237.21
1237.06
1237.03
1237.1
1237.23
1238.66
1237.99
1237.54
1237.25
1237.09
1237.04
1237.11
1237.23
1238.68
1238.01
1237.57
1237.27
1237.11
1237.06
1237.12
1237.24
1238.4
1237.87
1237.5
1237.25
1237.12
1237.08
1237.14
1237.25
1238.09
1237.76
1237.48
1237.27
1237.15
1237.13
1237.19
1237.29
1146.16
1145.61
1145.16
1144.81
1144.58
1144.47
1144.46
1144.5
1146.64
1145.88
1145.31
1144.91
1144.64
1144.49
1144.46
1144.5
1147.03
1146.16
1145.5
1145.02
1144.69
1144.51
1144.45
1144.5
1147.18
1146.28
1145.59
1145.08
1144.73
1144.52
1144.46
1144.5
1147.09
1146.22
1145.55
1145.06
1144.72
1144.52
1144.46
1144.5
1146.69
1145.97
1145.4
1144.97
1144.68
1144.52
1144.48
1144.51
1146.23
1145.71
1145.27
1144.92
1144.68
1144.55
1144.51
1144.54
1050.68
1050.61
1050.54
1050.48
1050.43
1050.41
1050.43
1050.47
1050.88
1050.81
1050.7
1050.58
1050.49
1050.44
1050.44
1050.48
1050.99
1050.91
1050.77
1050.63
1050.52
1050.45
1050.44
1050.49
1051.11
1050.99
1050.83
1050.67
1050.55
1050.47
1050.46
1050.51
1051.15
1051
1050.84
1050.69
1050.56
1050.49
1050.48
1050.53
1051.09
1050.96
1050.81
1050.68
1050.57
1050.51
1050.51
1050.54
1050.99
1050.86
1050.75
1050.65
1050.58
1050.54
1050.53
1050.56
954.615
954.978
955.293
955.544
955.726
955.873
955.983
956.077
954.552
955.063
955.394
955.607
955.76
955.885
956
956.11
954.45
954.983
955.331
955.568
955.739
955.879
956.007
956.132
954.485
954.994
955.34
955.583
955.759
955.904
956.035
956.161
954.613
955.073
955.408
955.641
955.811
955.948
956.071
956.188
954.804
955.207
955.511
955.724
955.879
956.002
956.108
956.204
955.051
955.324
955.572
955.774
955.925
956.04
956.133
956.212
860.732
861.094
861.428
861.71
861.938
862.141
862.303
862.433
860.592
861.047
861.412
861.699
861.931
862.13
862.31
862.46
860.483
860.959
861.342
861.647
861.896
862.111
862.307
862.473
860.401
860.918
861.324
861.646
861.907
862.128
862.326
862.493
860.598
861.037
861.411
861.712
861.958
862.167
862.354
862.51
860.784
861.188
861.534
861.809
862.032
862.222
862.388
862.522
861.088
861.394
861.674
861.909
862.103
862.27
862.415
862.529
2253.68
2253.82
2253.89
2253.94
2253.95
2253.94
2253.92
2253.89
2253.39
2253.72
2253.91
2253.98
2253.99
2253.98
2253.96
2253.93
2253.16
2253.63
2253.88
2253.98
2254.01
2254
2253.99
2253.97
2252.99
2253.52
2253.82
2253.96
2254
2254
2253.99
2253.98
2253.01
2253.51
2253.81
2253.95
2254
2254.01
2254.01
2254.01
2253.17
2253.57
2253.83
2253.95
2254.01
2254.03
2254.03
2254.02
2253.54
2253.73
2253.85
2253.95
2254
2254.03
2254.03
2254.01
2157.04
2157.08
2157.15
2157.23
2157.29
2157.33
2157.34
2157.35
2157.05
2157.08
2157.15
2157.22
2157.28
2157.33
2157.35
2157.36
2157.27
2157.19
2157.2
2157.25
2157.3
2157.33
2157.35
2157.39
2156.73
2157
2157.12
2157.22
2157.28
2157.33
2157.36
2157.39
2157.91
2157.52
2157.41
2157.39
2157.4
2157.42
2157.44
2157.47
2157.62
2157.45
2157.42
2157.43
2157.45
2157.48
2157.5
2157.52
2157.5
2157.43
2157.42
2157.45
2157.48
2157.51
2157.53
2157.55
2061.38
2061.42
2061.42
2061.46
2061.5
2061.53
2061.55
2061.57
2061.02
2061.29
2061.35
2061.4
2061.45
2061.49
2061.51
2061.54
2060.58
2061.23
2061.35
2061.4
2061.43
2061.46
2061.48
2061.54
2060.06
2061.1
2061.3
2061.37
2061.42
2061.44
2061.47
2061.54
2061.31
2061.69
2061.63
2061.59
2061.56
2061.55
2061.56
2061.62
2061.85
2061.84
2061.74
2061.69
2061.66
2061.66
2061.66
2061.7
2061.94
2061.83
2061.73
2061.7
2061.7
2061.71
2061.73
2061.75
1964.72
1965.14
1965.46
1965.77
1966.02
1966.22
1966.39
1966.56
1964.02
1964.79
1965.2
1965.55
1965.84
1966.09
1966.28
1966.49
1963.92
1964.7
1965.06
1965.37
1965.67
1965.93
1966.16
1966.41
1963.83
1964.56
1964.92
1965.24
1965.56
1965.84
1966.09
1966.35
1963.15
1964.35
1964.89
1965.28
1965.62
1965.9
1966.13
1966.39
1963.14
1964.4
1964.99
1965.42
1965.76
1966.03
1966.24
1966.46
1964.03
1964.71
1965.17
1965.56
1965.88
1966.14
1966.32
1966.51
1868.68
1869.85
1870.8
1871.6
1872.26
1872.8
1873.23
1873.57
1867.4
1868.89
1870.13
1871.11
1871.9
1872.55
1873.07
1873.5
1866.95
1868.07
1869.4
1870.55
1871.49
1872.26
1872.89
1873.39
1866.43
1867.47
1868.96
1870.22
1871.24
1872.07
1872.76
1873.31
1865.55
1867.2
1868.92
1870.24
1871.28
1872.1
1872.77
1873.3
1865.64
1867.77
1869.4
1870.62
1871.56
1872.3
1872.88
1873.34
1867.04
1868.69
1869.99
1871.03
1871.85
1872.5
1873
1873.38
1781.14
1781.69
1782.19
1782.63
1783.05
1783.46
1783.88
1784.23
1781.12
1781.25
1781.76
1782.31
1782.83
1783.33
1783.84
1784.27
1781.8
1781.04
1781.45
1782.05
1782.63
1783.21
1783.8
1784.32
1782.22
1780.91
1781.27
1781.89
1782.52
1783.14
1783.77
1784.33
1782.41
1781.08
1781.39
1781.98
1782.58
1783.18
1783.79
1784.33
1781.57
1781.27
1781.7
1782.24
1782.78
1783.31
1783.85
1784.32
1780.8
1781.36
1781.97
1782.5
1782.97
1783.44
1783.9
1784.29
1698.83
1697.97
1697.28
1696.76
1696.44
1696.34
1696.45
1696.64
1700.67
1698.76
1697.68
1697.01
1696.63
1696.51
1696.62
1696.85
1703.38
1700.01
1698.43
1697.5
1696.97
1696.76
1696.86
1697.12
1704.9
1700.71
1698.85
1697.78
1697.17
1696.92
1697
1697.28
1704.9
1700.73
1698.85
1697.79
1697.19
1696.95
1697.04
1697.32
1702.96
1699.98
1698.46
1697.56
1697.06
1696.88
1696.99
1697.24
1700.17
1698.92
1698.01
1697.35
1696.95
1696.82
1696.92
1697.13
1610.94
1609.86
1608.87
1608.06
1607.5
1607.18
1607.1
1607.17
1612.37
1610.8
1609.49
1608.52
1607.84
1607.45
1607.34
1607.41
1614.16
1611.98
1610.38
1609.16
1608.31
1607.8
1607.63
1607.71
1615.17
1612.67
1610.91
1609.56
1608.61
1608.04
1607.84
1607.92
1615.15
1612.54
1610.83
1609.53
1608.62
1608.08
1607.9
1607.98
1613.66
1611.67
1610.21
1609.12
1608.37
1607.95
1607.83
1607.91
1611.95
1610.79
1609.68
1608.78
1608.16
1607.82
1607.74
1607.81
1515.48
1515.49
1515.28
1515.04
1514.88
1514.81
1514.84
1514.94
1515.15
1515.49
1515.42
1515.23
1515.05
1514.94
1514.96
1515.08
1514.84
1515.59
1515.62
1515.45
1515.24
1515.11
1515.11
1515.25
1514.88
1515.83
1515.86
1515.65
1515.41
1515.25
1515.25
1515.38
1515.08
1515.89
1515.9
1515.68
1515.45
1515.31
1515.32
1515.44
1515.31
1515.83
1515.77
1515.58
1515.4
1515.3
1515.31
1515.43
1515.74
1515.87
1515.7
1515.49
1515.33
1515.26
1515.29
1515.38
1420.5
1420.85
1421.06
1421.24
1421.4
1421.56
1421.74
1421.91
1419.96
1420.63
1421
1421.22
1421.39
1421.56
1421.75
1421.97
1419.64
1420.38
1420.85
1421.13
1421.33
1421.52
1421.75
1422.01
1419.57
1420.31
1420.81
1421.11
1421.32
1421.53
1421.77
1422.05
1419.52
1420.32
1420.84
1421.15
1421.37
1421.57
1421.81
1422.06
1419.72
1420.54
1420.98
1421.26
1421.46
1421.64
1421.84
1422.06
1420.17
1420.72
1421.04
1421.28
1421.48
1421.66
1421.84
1422.01
1329.03
1329
1329.03
1329.09
1329.19
1329.32
1329.51
1329.69
1329.38
1329.09
1329.02
1329.05
1329.14
1329.29
1329.51
1329.74
1330.09
1329.22
1329
1328.98
1329.07
1329.23
1329.49
1329.77
1330.1
1329.1
1328.89
1328.89
1328.99
1329.18
1329.45
1329.76
1329.72
1328.92
1328.8
1328.84
1328.96
1329.16
1329.43
1329.72
1328.88
1328.68
1328.72
1328.82
1328.97
1329.16
1329.4
1329.64
1328.27
1328.45
1328.63
1328.79
1328.95
1329.13
1329.34
1329.54
1239.22
1238.7
1238.3
1237.99
1237.79
1237.73
1237.78
1237.9
1240.26
1239.14
1238.49
1238.08
1237.85
1237.78
1237.85
1237.98
1241.83
1239.78
1238.82
1238.27
1237.96
1237.85
1237.92
1238.09
1242.32
1239.93
1238.89
1238.3
1237.97
1237.85
1237.92
1238.11
1241.97
1239.74
1238.75
1238.2
1237.89
1237.79
1237.87
1238.05
1240.56
1239.12
1238.39
1237.97
1237.74
1237.67
1237.76
1237.91
1239.06
1238.5
1238.1
1237.79
1237.61
1237.57
1237.64
1237.76
1147.35
1146.68
1146.11
1145.66
1145.33
1145.14
1145.07
1145.1
1148.2
1147.16
1146.38
1145.81
1145.44
1145.22
1145.15
1145.19
1149.58
1147.91
1146.9
1146.17
1145.66
1145.36
1145.26
1145.3
1150.14
1148.15
1147.06
1146.29
1145.73
1145.4
1145.29
1145.33
1150.01
1148.02
1146.93
1146.17
1145.65
1145.34
1145.24
1145.29
1148.77
1147.37
1146.48
1145.85
1145.43
1145.19
1145.12
1145.16
1147.49
1146.74
1146.1
1145.6
1145.25
1145.06
1145
1145.03
1051.01
1051
1050.91
1050.82
1050.76
1050.72
1050.72
1050.75
1050.74
1050.96
1050.95
1050.86
1050.78
1050.72
1050.72
1050.76
1050.62
1051
1051.02
1050.93
1050.83
1050.75
1050.74
1050.8
1050.38
1050.94
1051.01
1050.93
1050.82
1050.74
1050.73
1050.79
1050.48
1050.9
1050.95
1050.87
1050.78
1050.71
1050.7
1050.76
1050.51
1050.82
1050.84
1050.77
1050.7
1050.65
1050.65
1050.7
1050.64
1050.7
1050.67
1050.63
1050.6
1050.58
1050.59
1050.63
954.513
954.922
955.245
955.521
955.735
955.893
956.009
956.11
953.852
954.643
955.132
955.437
955.653
955.815
955.947
956.071
953.353
954.398
954.958
955.306
955.552
955.733
955.889
956.039
952.744
954.11
954.776
955.176
955.456
955.663
955.834
955.996
952.67
954.062
954.752
955.173
955.452
955.655
955.816
955.971
953.283
954.326
954.901
955.263
955.512
955.691
955.829
955.957
953.928
954.463
954.885
955.237
955.5
955.688
955.822
955.935
860.699
861.055
861.382
861.67
861.906
862.102
862.267
862.402
860.475
860.885
861.245
861.547
861.801
862.02
862.214
862.379
860.575
860.843
861.148
861.433
861.691
861.93
862.156
862.356
860.111
860.58
860.967
861.3
861.585
861.845
862.089
862.305
860.085
860.559
860.957
861.29
861.578
861.833
862.069
862.279
860.073
860.617
861.029
861.365
861.642
861.877
862.086
862.263
860.267
860.698
861.081
861.41
861.681
861.906
862.094
862.244
2253.45
2253.63
2253.79
2253.9
2253.95
2253.96
2253.96
2253.96
2253.32
2253.68
2253.87
2253.94
2253.95
2253.94
2253.9
2253.88
2252.95
2253.53
2253.79
2253.88
2253.88
2253.85
2253.8
2253.79
2253.13
2253.59
2253.79
2253.84
2253.82
2253.78
2253.71
2253.67
2253.38
2253.68
2253.79
2253.79
2253.78
2253.71
2253.64
2253.59
2253.5
2253.66
2253.71
2253.7
2253.67
2253.62
2253.54
2253.49
2253.67
2253.69
2253.66
2253.62
2253.56
2253.55
2253.43
2253.36
2157.46
2157.38
2157.4
2157.44
2157.47
2157.49
2157.57
2157.55
2157.78
2157.59
2157.52
2157.5
2157.5
2157.5
2157.5
2157.5
2157.7
2157.54
2157.47
2157.44
2157.42
2157.41
2157.39
2157.42
2157.58
2157.46
2157.39
2157.36
2157.35
2157.34
2157.36
2157.35
2157.45
2157.36
2157.32
2157.3
2157.35
2157.34
2157.3
2157.31
2157.17
2157.16
2157.19
2157.21
2157.28
2157.25
2157.24
2157.24
2157.16
2157.16
2157.16
2157.18
2157.18
2157.2
2157.17
2157.18
2061.86
2061.74
2061.7
2061.7
2061.71
2061.71
2061.77
2061.77
2062.11
2061.97
2061.85
2061.78
2061.74
2061.72
2061.73
2061.72
2061.98
2061.93
2061.79
2061.69
2061.64
2061.61
2061.61
2061.64
2061.99
2061.87
2061.71
2061.61
2061.56
2061.55
2061.57
2061.58
2061.9
2061.76
2061.63
2061.56
2061.55
2061.55
2061.55
2061.58
2061.64
2061.54
2061.49
2061.5
2061.51
2061.53
2061.54
2061.59
2061.58
2061.53
2061.49
2061.48
2061.5
2061.53
2061.54
2061.58
1963.95
1964.62
1965.14
1965.56
1965.9
1966.15
1966.34
1966.52
1963.52
1964.5
1965.08
1965.51
1965.84
1966.12
1966.33
1966.51
1963.17
1964.32
1964.9
1965.34
1965.71
1966
1966.27
1966.46
1963.03
1964.18
1964.8
1965.28
1965.66
1966
1966.22
1966.46
1963.4
1964.31
1964.9
1965.39
1965.76
1966.06
1966.29
1966.54
1963.96
1964.63
1965.15
1965.57
1965.9
1966.19
1966.41
1966.62
1964.64
1965.08
1965.46
1965.79
1966.15
1966.34
1966.52
1966.71
1867.11
1868.77
1870.06
1871.08
1871.9
1872.53
1873.02
1873.39
1865.96
1868.05
1869.63
1870.82
1871.72
1872.45
1873.01
1873.41
1865.71
1867.74
1869.35
1870.6
1871.58
1872.36
1872.97
1873.41
1865.84
1867.82
1869.4
1870.66
1871.64
1872.42
1873.01
1873.48
1866.54
1868.36
1869.82
1870.99
1871.88
1872.66
1873.16
1873.58
1867.73
1869.29
1870.52
1871.49
1872.25
1872.93
1873.38
1873.73
1869.13
1870.26
1871.19
1871.97
1872.67
1873.16
1873.54
1873.88
1780.95
1781.46
1781.99
1782.48
1782.95
1783.44
1783.87
1784.26
1781.07
1781.18
1781.69
1782.25
1782.78
1783.32
1783.83
1784.23
1781.19
1781.01
1781.51
1782.1
1782.67
1783.23
1783.77
1784.22
1781.31
1781.07
1781.55
1782.14
1782.7
1783.25
1783.77
1784.24
1781.03
1781.19
1781.72
1782.29
1782.82
1783.37
1783.81
1784.23
1780.92
1781.45
1782.01
1782.54
1783.01
1783.49
1783.89
1784.28
1781.36
1781.89
1782.38
1782.83
1783.24
1783.63
1784.02
1784.33
1700.22
1698.88
1697.91
1697.24
1696.85
1696.8
1696.83
1697.04
1702.17
1699.55
1698.12
1697.27
1696.81
1696.68
1696.76
1696.99
1702.9
1699.84
1698.26
1697.32
1696.79
1696.6
1696.68
1696.9
1702.53
1699.63
1698.12
1697.21
1696.68
1696.46
1696.53
1696.75
1700.88
1698.82
1697.63
1696.87
1696.43
1696.27
1696.36
1696.56
1699.1
1697.87
1697.03
1696.49
1696.19
1696.12
1696.21
1696.41
1697.99
1697.27
1696.7
1696.29
1696.07
1696.04
1696.15
1696.33
1611.83
1610.61
1609.53
1608.66
1608.05
1607.77
1607.63
1607.69
1613.27
1611.32
1609.88
1608.81
1608.09
1607.74
1607.59
1607.63
1614.16
1611.84
1610.19
1608.97
1608.13
1607.64
1607.47
1607.53
1613.88
1611.68
1610.05
1608.82
1607.97
1607.45
1607.27
1607.32
1612.59
1610.84
1609.42
1608.34
1607.62
1607.18
1607.04
1607.1
1611.16
1609.78
1608.65
1607.79
1607.23
1606.9
1606.81
1606.87
1609.96
1608.97
1608.1
1607.41
1606.94
1606.7
1606.64
1606.73
1515.65
1515.73
1515.61
1515.43
1515.27
1515.23
1515.23
1515.34
1515.69
1515.9
1515.75
1515.51
1515.29
1515.2
1515.18
1515.24
1515.97
1516.13
1515.9
1515.58
1515.3
1515.12
1515.08
1515.18
1516.01
1516.12
1515.84
1515.49
1515.18
1514.99
1514.94
1515.01
1515.91
1515.88
1515.58
1515.26
1515.04
1514.82
1514.8
1514.89
1515.79
1515.62
1515.32
1515.02
1514.81
1514.7
1514.68
1514.77
1515.63
1515.4
1515.09
1514.81
1514.63
1514.56
1514.58
1514.67
1420.14
1420.66
1421.01
1421.25
1421.45
1421.63
1421.8
1421.99
1419.77
1420.55
1420.96
1421.2
1421.36
1421.51
1421.68
1421.89
1419.37
1420.33
1420.81
1421.08
1421.26
1421.41
1421.59
1421.82
1419.59
1420.36
1420.77
1421.02
1421.19
1421.35
1421.52
1421.72
1419.89
1420.48
1420.82
1421.03
1421.21
1421.33
1421.5
1421.7
1420.22
1420.66
1420.91
1421.08
1421.24
1421.33
1421.54
1421.71
1420.52
1420.77
1420.93
1421.07
1421.2
1421.33
1421.53
1421.66
1328.32
1328.45
1328.58
1328.72
1328.89
1329.07
1329.27
1329.46
1328.25
1328.28
1328.39
1328.53
1328.7
1328.89
1329.11
1329.37
1327.75
1327.96
1328.15
1328.35
1328.54
1328.76
1329.01
1329.29
1327.72
1327.91
1328.1
1328.29
1328.49
1328.71
1328.96
1329.2
1327.96
1328.04
1328.19
1328.36
1328.54
1328.73
1328.97
1329.2
1327.99
1328.13
1328.28
1328.44
1328.66
1328.78
1329.08
1329.22
1328.09
1328.23
1328.37
1328.51
1328.67
1328.83
1329.04
1329.21
1239.12
1238.49
1238.01
1237.69
1237.53
1237.47
1237.54
1237.66
1239.75
1238.56
1237.9
1237.53
1237.35
1237.32
1237.41
1237.57
1239.86
1238.55
1237.85
1237.46
1237.26
1237.21
1237.3
1237.49
1239.71
1238.46
1237.78
1237.39
1237.18
1237.12
1237.21
1237.37
1239.16
1238.19
1237.62
1237.28
1237.1
1237.07
1237.15
1237.3
1238.38
1237.79
1237.4
1237.15
1237.06
1237.01
1237.15
1237.27
1237.89
1237.56
1237.29
1237.11
1237.01
1237.07
1237.12
1237.25
1147.44
1146.65
1146
1145.49
1145.18
1144.97
1144.91
1144.94
1148.1
1146.88
1146.04
1145.47
1145.09
1144.89
1144.85
1144.89
1148.37
1147.02
1146.12
1145.48
1145.05
1144.8
1144.79
1144.8
1148.2
1146.91
1146.03
1145.39
1144.96
1144.71
1144.64
1144.69
1147.56
1146.52
1145.75
1145.19
1144.81
1144.6
1144.55
1144.6
1146.75
1145.98
1145.38
1144.95
1144.65
1144.5
1144.51
1144.55
1146.15
1145.62
1145.18
1144.82
1144.57
1144.51
1144.46
1144.53
1050.57
1050.62
1050.61
1050.58
1050.55
1050.52
1050.55
1050.59
1050.6
1050.76
1050.73
1050.65
1050.56
1050.51
1050.56
1050.58
1050.6
1050.78
1050.74
1050.64
1050.53
1050.46
1050.54
1050.55
1050.6
1050.77
1050.72
1050.61
1050.49
1050.42
1050.42
1050.48
1050.74
1050.77
1050.68
1050.57
1050.46
1050.4
1050.41
1050.46
1050.73
1050.7
1050.62
1050.52
1050.42
1050.41
1050.43
1050.47
1050.76
1050.67
1050.56
1050.48
1050.41
1050.41
1050.42
1050.45
953.861
954.426
954.877
955.229
955.485
955.687
955.819
955.929
953.546
954.426
954.948
955.274
955.49
955.653
955.859
955.932
953.125
954.209
954.803
955.176
955.424
955.608
955.834
955.934
953.512
954.349
954.857
955.199
955.436
955.615
955.774
955.935
953.919
954.576
955.006
955.308
955.513
955.678
955.823
955.971
954.293
954.821
955.192
955.44
955.615
955.794
955.915
956.042
954.712
955.032
955.293
955.526
955.708
955.854
955.964
956.114
860.258
860.706
861.089
861.413
861.678
861.933
862.11
862.26
860.077
860.598
861.011
861.344
861.619
861.857
862.147
862.267
859.843
860.434
860.894
861.258
861.559
861.822
862.072
862.27
860.084
860.543
860.954
861.3
861.594
861.848
862.087
862.311
860.227
860.683
861.072
861.404
861.674
861.908
862.158
862.346
860.412
860.867
861.241
861.551
861.803
862.038
862.237
862.371
860.746
861.09
861.411
861.692
861.923
862.13
862.294
862.486
2353.2
2352.4
2351.66
2351.05
2350.57
2350.2
2349.94
2349.78
2354.01
2353.06
2352.18
2351.43
2350.84
2350.41
2350.1
2349.92
2354.8
2353.74
2352.75
2351.88
2351.2
2350.68
2350.33
2350.13
2355.18
2354.1
2353.1
2352.2
2351.48
2350.92
2350.55
2350.36
2353.09
2352.3
2351.62
2351.09
2350.74
2350.55
2350.89
2350.74
2253.64
2253.62
2253.55
2253.48
2253.4
2253.32
2253.24
2253.18
2253.59
2253.65
2253.63
2253.57
2253.49
2253.4
2253.32
2253.27
2253.59
2253.75
2253.75
2253.7
2253.61
2253.52
2253.42
2253.39
2253.46
2253.75
2253.82
2253.78
2253.71
2253.61
2253.51
2253.44
2253.27
2253.67
2253.86
2253.86
2253.78
2253.7
2253.62
2253.56
2253.48
2253.76
2253.88
2253.88
2253.82
2253.77
2253.75
2253.71
2253.46
2253.63
2253.76
2253.82
2253.83
2253.82
2253.79
2253.75
2156.81
2156.88
2156.93
2156.97
2157
2157.01
2156.98
2156.96
2156.71
2156.83
2156.92
2156.98
2157.02
2157.03
2157.01
2157.01
2156.78
2156.9
2156.98
2157.04
2157.08
2157.08
2157.06
2157.08
2156.7
2156.89
2156.99
2157.06
2157.1
2157.11
2157.08
2157.09
2156.78
2156.95
2157.05
2157.11
2157.15
2157.16
2157.15
2157.13
2157.03
2157.09
2157.15
2157.2
2157.22
2157.24
2157.23
2157.22
2156.89
2156.95
2157.06
2157.16
2157.22
2157.26
2157.28
2157.27
2061.29
2061.3
2061.32
2061.36
2061.41
2061.43
2061.44
2061.44
2061.27
2061.29
2061.32
2061.36
2061.39
2061.42
2061.43
2061.44
2061.41
2061.4
2061.38
2061.39
2061.4
2061.42
2061.42
2061.47
2061.38
2061.42
2061.39