/*--------------------------------*- C++ -*----------------------------------*\
| =========                 |                                                 |
| \\      /  F ield         | OpenFOAM: The Open Source CFD Toolbox           |
|  \\    /   O peration     | Version:  plus.master.MPPICInterFoam            |
|   \\  /    A nd           | Web:      www.OpenFOAM.com                      |
|    \\/     M anipulation  |                                                 |
\*---------------------------------------------------------------------------*/
FoamFile
{
    version     2.0;
    format      ascii;
    class       volScalarField;
    location    "7.8";
    object      rho;
}
// * * * * * * * * * * * * * * * * * * * * * * * * * * * * * * * * * * * * * //

dimensions      [1 -3 0 0 0 0 0];

internalField   nonuniform List<scalar> 
11821
(
1000
997.393
1000
1000
1000
1000
1000
997.669
966.765
962.047
995.372
999.919
1000
989.402
769.272
531.278
514.661
830.166
988.709
1000
878.988
465.864
582.083
397.549
543.408
924.867
1000
819.974
460.077
758.873
758.351
486.582
871.834
1000
909.012
531.523
495.685
381.858
576.486
938.354
1000
996.44
859.446
673.765
658.044
869.714
992.012
1000
999.975
999.977
992.257
982.801
998.408
1000
1000
998.719
996.773
957.995
952.984
993.055
999.001
1000
992.588
792.07
509.906
504.27
847.482
985.338
1000
890.828
430.613
379.203
377.076
490.194
925.164
999.528
825.154
434.512
758.787
758.5
486.582
876.168
998.786
916.407
475.8
374.264
379.122
552.848
934.832
999.846
994.887
878.355
674.632
657.763
886.475
985.136
1000
999.462
995.971
979.589
968.587
992.013
999.964
1000
988.07
982.014
955.711
946.629
970.728
994.356
1000
980.301
903.147
620.001
635.669
911.81
965.2
1000
923.268
521.651
377.048
376.092
586.225
925.801
995.241
848.547
451.865
462.721
447.524
518.948
885.439
991.349
931.187
586.552
371.996
380.734
658.856
925.332
997.32
969.4
906.329
743.74
721.085
896.984
965.127
1000
996.742
975.618
958.405
945.05
973.324
999.211
1000
956.809
850.773
869.385
830.752
855.81
978.341
1000
817.777
864.6
759.049
753.327
837.338
853.812
1000
828.122
683.429
383.696
372.631
717.68
836.707
981.471
770.89
622.485
356.923
352.106
579.147
827.018
973.854
820.592
719.552
363.309
373.97
728.726
804.248
987.627
835.878
783.464
739.068
707.082
787.937
898.737
1000
986.861
910.925
874.609
864.217
926.073
994.946
1000
903.444
662.084
624.166
608.537
717.968
949.37
1000
578.556
465.552
655.726
641.483
509
714.475
997.466
527.932
679.681
471.961
353.299
625.697
607.841
965.347
521.513
666.322
404.318
352.189
514.998
638.181
960.444
528.188
564.068
352.904
354.367
583.686
615.003
975.394
677.25
501.638
550.659
517.268
524.078
814.774
1000
967.831
837.642
771.014
775.239
878.952
986.454
1000
893.872
655.191
587.717
595.124
723.495
946.005
1000
571.419
383.631
377.002
361.64
392.828
718.349
997.775
466.225
426.51
448.85
352.552
363.026
592.977
971.121
489.352
398.254
419.492
352.599
356.02
604.855
967.768
477.618
352.903
352.8
352.643
354.002
625.64
980.351
683
441.561
409.898
410.018
512.44
819.999
999.997
965.87
845.096
783.059
791.325
889.343
986.161
1000
928.732
782.624
720.18
737.425
839.513
967.49
999.997
723.876
466.744
403.972
402.233
522.243
833.811
999.912
615.07
401.872
352.541
352.539
388.446
733.698
992.026
657.619
411.761
352.612
352.56
383.826
726.581
989.967
660.087
446.617
367.651
359.916
440.359
779.709
995.129
817.052
637.497
572.014
571.347
698.036
899.976
999.991
980.025
919.364
887.237
894.774
948.343
992.592
1000
969.77
911.593
906.521
908.741
937.125
990.258
999.997
879.1
746.138
618.218
668.063
814.987
927.418
999.871
854.519
570.491
352.942
427.562
620.158
888.381
997.928
812.009
648.919
352.63
352.622
559.753
878.085
995.151
872.342
762.623
631.183
542.811
722.061
891.12
998.43
910.98
893.181
874.069
853.731
871.859
950.745
999.909
993.177
960.647
951.58
948.62
977.278
998.832
999.995
971.493
895.732
910.36
901.02
925.459
992.047
999.997
844.764
768.241
688.249
732.078
834.768
908.333
999.948
837.068
626.072
485.414
636.711
694.402
862.603
995.456
696.858
702.5
498.621
465.951
620.134
856.071
991.2
830.431
735.171
751.51
626.657
751.236
839.929
996.637
875.221
834.258
843.816
841.661
807.664
940.616
1000
993.476
948.823
934.608
930.101
972.007
999.551
1000
958.769
810.819
826.014
802.555
871.331
987.989
999.995
707.911
583.624
546.038
573.4
655.667
838.474
999.969
624.067
519.286
738.279
552.388
558.452
714.35
987.205
520.646
514.923
773.126
772.151
522.86
702.532
980.371
628.557
519.478
526.363
517.952
560.662
700.456
990.751
785.691
587.098
590.567
615.445
625.431
904.18
1000
989.853
916.349
884.351
885.223
954.16
998.904
1000
950.277
769.207
735.861
728.032
848.481
984.912
999.995
659.037
513.99
515.593
513.653
514.175
814.687
1000
513.989
513.585
577.274
512.24
512.196
644.089
983.633
513.635
513.179
773.755
773.091
512.425
619.128
976.942
545.498
513.463
512.777
512.688
512.924
673.502
989.371
772.278
514.724
513.672
513.025
597.763
894.907
1000
989.04
913.044
874.11
879.759
951.923
998.601
1000
960.043
813.223
771.007
769.953
878.098
987.728
999.995
723.333
518.929
525.691
512.93
574.439
850.566
1000
591.861
586.473
512.292
512.191
512.171
705.674
989.978
592.759
513.205
773.76
704.516
512.196
676.888
985.587
633.809
512.746
512.704
512.641
512.293
745.526
994.626
829.335
624.47
586.387
584.892
686.568
918.324
1000
993.19
944.221
911.228
916.745
970.103
999.094
1000
983.212
906.88
878.962
875.851
935.275
993.981
1000
855.096
733.415
833.561
727.642
754.53
913.797
999.992
804.382
801.283
782.389
693.342
643.503
831.819
998.487
817.09
715.755
744.911
503.741
530.551
809.617
997.764
791.929
725.106
643.421
561.311
628.892
847.808
999.437
921.655
802.442
813.849
783.675
806.475
955.746
1000
998.984
983.329
962.802
965.122
993.239
999.879
999.999
991.424
926.004
904.053
898.014
945.695
995.342
1000
874.175
776.233
788.648
752.812
763.313
919.41
1000
808.321
627.239
808.605
789.648
739.749
835.38
1000
809.238
803.811
583.625
492.216
679.567
823.254
1000
789.357
663.511
742.827
602.945
674.027
846.522
1000
936.836
793.687
836.431
802.021
797.968
961.18
1000
1000
990.131
971.858
973.113
998.23
1000
999.998
989.014
900.56
868.276
863.172
927.948
992.701
1000
829.766
664.524
421.709
553.285
642.327
886.999
1000
688.64
388.809
796.389
558.806
526.616
749.321
999.379
644.662
481.944
568.318
488.715
648.53
736.165
997.577
691.718
408.439
488.851
452.053
551.403
778.672
1000
918.491
675.53
702.903
683.939
710.947
946.584
1000
1000
983.821
963.2
964.682
994.118
1000
999.993
984.336
867.405
807.345
818.213
902.509
987.489
1000
778.865
466.662
400.592
397.305
505.903
846.038
1000
562.711
388.073
468.433
383.594
382.878
661.786
995.966
520.655
388.588
629.291
636.038
388.125
635.172
991.068
613.742
388.914
389.547
390.736
396.793
716.741
999.905
898.905
593.706
532.79
532.148
654.536
926.767
1000
1000
977.334
952.087
953.463
988.312
999.999
999.993
1000
999.999
1000
1000
1000
1000
1000
1000
1000
1000
1000
1000
1000
1000
1000
1000
1000
1000
1000
1000
1000
1000
1000
1000
1000
1000
1000
1000
1000
1000
1000
1000
1000
1000
1000
1000
1000
999.996
1000
1000
999.993
999.966
999.998
1000
999.917
999.555
999.897
999.528
1000
1000
1000
1000
1000
1000
999.999
1000
1000
1000
1000
1000
1000
1000
1000
1000
1000
1000
1000
1000
1000
1000
1000
1000
1000
1000
1000
1000
1000
1000
1000
1000
1000
1000
1000
1000
1000
1000
1000
1000
1000
1000
1000
1000
1000
999.996
1000
1000
999.997
1000
999.998
1000
999.884
999.547
999.898
998.863
1000
1000
1000
1000
1000
1000
999.999
1000
1000
1000
1000
1000
1000
1000
1000
1000
1000
1000
1000
1000
1000
1000
1000
1000
1000
1000
1000
1000
1000
1000
1000
1000
1000
1000
1000
1000
1000
1000
1000
1000
1000
1000
1000
1000
1000
999.999
1000
1000
999.999
999.976
1000
999.997
999.814
999.608
999.891
998.753
1000
1000
1000
1000
1000
1000
999.999
1000
1000
1000
1000
1000
1000
1000
1000
1000
1000
1000
1000
1000
1000
1000
1000
1000
1000
1000
1000
1000
1000
1000
1000
1000
1000
1000
1000
1000
1000
1000
1000
1000
1000
1000
1000
1000
999.999
1000
1000
1000
999.999
999.973
999.981
999.975
999.712
999.763
999.854
998.96
1000
1000
1000
1000
1000
1000
1000
1000
1000
1000
1000
1000
1000
1000
1000
1000
1000
1000
1000
1000
1000
1000
1000
1000
1000
1000
1000
1000
1000
1000
1000
1000
1000
1000
1000
1000
1000
1000
1000
1000
1000
1000
1000
1000
999.998
1000
1000
1000
999.999
999.977
999.964
999.941
999.654
999.819
999.663
999.436
1000
1000
1000
1000
1000
1000
1000
1000
1000
1000
1000
1000
1000
1000
1000
1000
1000
1000
1000
1000
1000
1000
1000
1000
1000
1000
1000
1000
1000
1000
1000
1000
1000
1000
1000
1000
1000
1000
1000
1000
1000
1000
1000
1000
999.997
1000
1000
1000
999.999
999.979
999.968
999.935
999.671
999.771
999.357
999.812
1000
1000
1000
1000
1000
1000
1000
1000
1000
1000
1000
1000
1000
1000
1000
1000
1000
1000
1000
1000
1000
1000
1000
1000
1000
1000
1000
1000
1000
1000
1000
1000
1000
1000
1000
1000
1000
1000
1000
1000
1000
1000
1000
1000
1000
1000
1000
1000
999.998
999.973
999.978
999.938
999.719
999.636
999.251
999.929
1000
1000
1000
1000
1000
1000
1000
1000
1000
1000
1000
1000
1000
1000
1000
1000
1000
1000
1000
1000
1000
1000
1000
1000
1000
1000
1000
1000
1000
1000
1000
1000
1000
1000
1000
1000
1000
1000
1000
1000
1000
1000
1000
1000
1000
1000
1000
1000
999.998
999.965
999.989
999.941
999.788
999.593
999.306
999.953
1000
1000
1000
1000
1000
1000
1000
999.999
1000
1000
1000
1000
1000
1000
1000
1000
1000
1000
1000
1000
1000
1000
1000
1000
1000
1000
1000
1000
1000
1000
1000
1000
1000
1000
1000
1000
1000
1000
1000
1000
1000
1000
1000
1000
1000
1000
1000
999.999
999.989
999.965
999.998
999.95
999.869
999.642
999.509
999.964
1000
1000
1000
1000
1000
1000
1000
999.999
1000
1000
1000
1000
1000
1000
1000
1000
1000
1000
1000
1000
1000
1000
1000
1000
1000
1000
1000
1000
1000
1000
1000
1000
1000
1000
1000
1000
1000
1000
1000
1000
1000
1000
1000
1000
1000
1000
999.999
999.999
999.966
999.968
1000
999.964
999.928
999.753
999.743
999.971
1000
1000
1000
1000
1000
1000
1000
999.997
1000
1000
1000
1000
1000
1000
1000
1000
1000
1000
1000
1000
1000
1000
1000
1000
1000
1000
1000
1000
1000
1000
1000
1000
1000
1000
1000
1000
1000
1000
1000
1000
1000
1000
1000
999.999
1000
999.998
999.997
1000
999.964
999.981
1000
999.976
999.937
999.796
999.778
999.97
1000
1000
1000
1000
1000
1000
1000
999.996
1000
1000
1000
1000
1000
1000
1000
1000
1000
1000
1000
1000
1000
1000
1000
1000
1000
1000
1000
1000
1000
1000
1000
1000
1000
1000
1000
1000
1000
1000
1000
1000
1000
1000
1000
1000
999.998
999.996
999.997
1000
999.982
999.996
1000
999.976
999.93
999.779
999.693
999.954
1000
1000
1000
1000
1000
1000
1000
999.996
1000
1000
1000
1000
1000
1000
1000
1000
1000
1000
1000
1000
1000
1000
1000
1000
1000
1000
1000
1000
1000
1000
1000
1000
1000
1000
1000
1000
1000
1000
1000
1000
1000
1000
1000
1000
999.997
999.997
999.999
1000
999.999
1000
1000
999.975
999.91
999.706
999.478
999.832
1000
1000
1000
1000
1000
1000
1000
999.997
1000
1000
1000
1000
1000
1000
1000
1000
1000
1000
1000
1000
1000
1000
1000
1000
1000
1000
1000
1000
1000
1000
1000
1000
1000
1000
1000
1000
1000
1000
1000
1000
1000
1000
1000
1000
999.997
999.998
1000
1000
1000
1000
1000
999.973
999.889
999.506
999.392
999.579
1000
1000
1000
1000
1000
1000
1000
999.999
1000
1000
1000
1000
1000
1000
1000
1000
1000
1000
1000
1000
1000
1000
1000
1000
1000
1000
1000
1000
1000
1000
1000
1000
1000
1000
1000
1000
1000
1000
1000
1000
1000
1000
1000
1000
999.998
999.999
1000
1000
1000
1000
1000
999.973
999.876
999.245
999.428
999.525
1000
1000
1000
1000
1000
1000
1000
1000
1000
1000
1000
1000
1000
1000
1000
1000
1000
1000
1000
1000
1000
1000
1000
1000
1000
1000
1000
1000
1000
1000
1000
1000
1000
1000
1000
1000
1000
1000
1000
1000
1000
1000
1000
1000
1000
1000
1000
1000
1000
1000
1000
999.972
999.86
999.197
999.586
999.57
1000
1000
1000
1000
1000
1000
999.999
1000
1000
1000
1000
1000
1000
1000
1000
1000
1000
1000
1000
1000
1000
1000
1000
1000
1000
1000
1000
1000
1000
1000
1000
1000
1000
1000
1000
1000
1000
1000
1000
1000
1000
1000
1000
999.999
1000
1000
999.997
1000
1000
1000
1000
1000
1000
1000
1000
1000
1000
1000
1000
999.997
1000
1000
1000
1000
1000
1000
1000
1000
1000
1000
1000
1000
1000
1000
1000
1000
1000
1000
1000
1000
1000
1000
1000
1000
1000
1000
1000
1000
1000
1000
1000
1000
1000
1000
1000
1000
1000
1000
1000
999.998
999.999
1000
999.977
999.991
1000
1000
1000
1000
1000
1000
1000
1000
1000
1000
1000
1000
1000
1000
1000
1000
999.064
1000
1000
1000
1000
1000
1000
1000
998.144
1000
1000
1000
1000
1000
1000
1000
999.979
1000
1000
1000
1000
1000
1000
1000
999.677
1000
1000
1000
1000
1000
1000
1000
999.998
1000
1000
999.998
999.998
1000
999.981
999.994
1000
1000
1000
1000
1000
1000
1000
1000
999.848
1000
1000
1000
1000
1000
1000
1000
980.265
1000
1000
1000
1000
1000
1000
1000
972.233
1000
1000
1000
1000
1000
1000
1000
979.733
1000
1000
1000
1000
1000
1000
1000
995.533
1000
1000
1000
1000
1000
1000
1000
1000
1000
1000
999.998
999.995
999.998
999.979
999.996
1000
1000
1000
1000
1000
1000
1000
1000
997.584
1000
1000
1000
1000
1000
1000
1000
916.893
1000
1000
1000
1000
1000
1000
1000
872.695
1000
1000
1000
1000
1000
1000
1000
891.348
1000
1000
1000
1000
1000
1000
1000
980.194
1000
1000
1000
1000
1000
1000
1000
1000
1000
1000
999.998
999.991
999.988
999.975
999.996
1000
1000
1000
1000
1000
1000
1000
1000
988.856
1000
1000
1000
1000
1000
1000
1000
858.675
1000
1000
1000
1000
1000
1000
1000
789.749
1000
1000
1000
1000
1000
1000
1000
801.178
1000
1000
1000
1000
1000
1000
1000
954.154
1000
1000
1000
1000
1000
1000
1000
1000
1000
1000
999.998
999.992
999.973
999.973
999.996
1000
1000
1000
1000
1000
1000
1000
1000
985.668
1000
1000
1000
1000
1000
1000
1000
869.75
999.999
1000
1000
1000
1000
1000
1000
815.45
1000
1000
1000
1000
1000
1000
1000
817.1
1000
1000
1000
1000
1000
1000
1000
954.698
1000
1000
1000
1000
1000
1000
1000
1000
1000
1000
999.998
999.992
999.969
999.972
999.997
1000
1000
1000
1000
1000
1000
1000
1000
989.771
1000
1000
1000
1000
1000
1000
1000
932.542
999.999
1000
1000
1000
1000
1000
1000
914.339
999.998
1000
1000
1000
1000
1000
1000
909.027
999.997
1000
1000
1000
1000
1000
1000
977.59
999.999
1000
1000
1000
1000
1000
1000
999.998
1000
1000
999.999
999.99
999.957
999.972
1000
1000
1000
1000
1000
1000
1000
1000
1000
996.16
1000
1000
1000
1000
1000
1000
1000
961.163
1000
1000
1000
1000
1000
1000
1000
948.583
1000
1000
1000
1000
1000
1000
1000
953.744
1000
1000
1000
1000
1000
1000
1000
991.986
1000
1000
1000
1000
1000
1000
1000
999.998
1000
1000
1000
999.986
999.943
999.976
1000
1000
1000
1000
1000
1000
1000
1000
1000
999.479
1000
1000
1000
1000
999.999
1000
1000
949.671
1000
1000
1000
1000
1000
1000
1000
927.624
1000
1000
1000
1000
1000
1000
1000
936.095
999.999
1000
1000
1000
1000
1000
1000
990.548
1000
1000
1000
1000
1000
1000
1000
1000
1000
1000
1000
999.974
999.952
999.981
1000
1000
1000
1000
1000
1000
1000
1000
1000
999.238
1000
1000
1000
999.993
999.999
1000
1000
920.147
1000
1000
1000
1000
1000
1000
1000
866.722
1000
1000
1000
1000
1000
1000
1000
888.513
1000
1000
1000
1000
1000
1000
1000
982.387
1000
1000
1000
1000
1000
1000
1000
999.998
1000
1000
1000
999.961
999.952
999.984
1000
1000
1000
1000
1000
1000
1000
1000
1000
998.467
1000
1000
999.999
999.99
999.999
1000
1000
916.933
1000
1000
1000
1000
1000
1000
1000
852.373
1000
1000
1000
1000
1000
1000
1000
876.285
1000
1000
1000
1000
1000
1000
1000
978.737
1000
1000
1000
1000
1000
1000
1000
1000
1000
1000
1000
999.951
999.956
999.989
1000
1000
1000
1000
1000
1000
1000
1000
1000
998.735
1000
1000
999.994
999.99
999.999
1000
1000
945.457
1000
1000
1000
1000
999.994
1000
1000
896.331
1000
1000
1000
999.999
999.999
1000
1000
908.883
1000
1000
1000
1000
1000
1000
1000
985.507
1000
1000
1000
1000
1000
1000
1000
1000
1000
1000
999.998
999.943
999.959
999.993
999.998
999.998
1000
1000
1000
1000
1000
1000
1000
999.711
1000
1000
999.988
999.99
999.999
1000
1000
983.716
1000
1000
999.999
999.951
999.988
1000
1000
957.436
1000
1000
1000
999.996
999.999
1000
1000
966.879
1000
1000
1000
1000
1000
1000
1000
997.033
1000
1000
1000
1000
1000
1000
1000
999.999
1000
1000
999.993
999.944
999.957
999.997
999.996
999.999
1000
1000
1000
1000
1000
1000
1000
1000
1000
1000
999.988
999.989
999.999
1000
1000
991.877
1000
1000
999.98
999.866
999.987
1000
1000
967.914
1000
1000
999.998
999.992
999.999
1000
1000
981.476
1000
1000
1000
1000
1000
1000
1000
1000
1000
1000
1000
1000
1000
1000
1000
1000
1000
1000
999.988
999.953
999.953
1000
999.996
1000
1000
1000
1000
1000
1000
1000
1000
1000
1000
1000
999.988
999.989
999.999
1000
1000
987.293
1000
1000
999.899
999.866
999.989
1000
1000
957.695
1000
1000
999.994
999.989
999.999
1000
1000
974.288
1000
1000
1000
1000
999.987
1000
1000
1000
1000
1000
1000
1000
1000
1000
1000
1000
1000
1000
999.989
999.967
999.95
1000
999.997
1000
1000
1000
1000
1000
1000
1000
1000
1000
1000
1000
999.987
999.989
1000
1000
1000
982.373
1000
1000
999.839
999.876
999.995
1000
1000
946.883
1000
1000
999.986
999.989
1000
1000
1000
964.408
1000
1000
1000
999.928
999.982
1000
1000
999.952
1000
1000
1000
999.989
999.999
1000
1000
1000
1000
1000
999.992
999.982
999.947
1000
999.998
1000
1000
1000
999.917
999.425
999.4
999.158
998.381
1000
1000
1000
999.998
997.808
997.219
998.247
997.093
1000
1000
999.999
999.757
999.862
999.827
998.824
997.236
1000
1000
999.998
999.933
999.961
999.961
998.588
998.622
1000
999.997
999.997
999.915
997.292
999.121
997.609
997.296
1000
1000
999.976
999.168
997.292
997.303
997.429
998.958
999.999
999.999
999.993
999.469
999.079
997.331
999.475
998.708
1000
1000
1000
999.952
999.473
999.405
997.116
999.262
1000
1000
1000
999.991
998.709
997.218
996.937
997.184
999.741
1000
999.999
999.737
999.866
999.726
999.218
997.113
999.631
1000
999.998
999.951
999.996
999.857
998.143
999.547
1000
999.998
999.999
999.97
997.486
999.772
998.676
997.029
1000
1000
999.997
998.682
997.292
998.983
998.961
996.599
999.999
999.999
999.996
999.506
999.144
997.344
999.78
996.634
1000
1000
1000
999.984
999.421
999.471
998.006
999.818
1000
1000
1000
999.985
999.589
997.35
996.936
998.838
996.995
1000
999.998
999.737
999.939
999.073
997.663
998.295
996.382
1000
999.999
999.983
1000
998.894
998.14
999.838
1000
999.999
999.999
999.895
999.235
999.772
999.634
998.32
1000
1000
999.986
998.566
998.713
999.547
999.658
996.599
999.999
999.999
999.999
999.673
998.909
997.55
999.774
996.598
1000
1000
1000
999.989
999.416
999.686
999.493
999.971
999.929
1000
1000
999.995
999.835
997.452
996.936
999.824
985.13
1000
1000
999.816
999.999
997.987
996.896
999.631
983.985
1000
999.999
1000
1000
998.112
998.571
999.841
1000
1000
999.999
998.895
999.834
999.698
999.762
999.794
1000
1000
999.971
998.566
999.522
997.286
999.76
996.842
999.999
999.999
999.999
999.896
997.301
998.754
999.641
996.598
1000
1000
1000
1000
999.447
999.715
999.63
999.994
995.292
1000
1000
1000
999.803
997.315
996.896
999.811
964.083
1000
1000
999.997
1000
997.177
996.895
999.575
965.73
1000
1000
1000
1000
999.052
999.446
999.841
999.278
1000
1000
998.768
999.888
997.244
999.717
999.841
1000
1000
999.949
998.629
999.345
996.493
999.758
996.81
999.999
999.999
999.999
999.888
997.189
999.356
998.511
996.598
1000
1000
1000
1000
999.669
998.307
999.53
999.997
995.312
1000
1000
1000
999.379
996.931
996.895
998.483
966.16
999.999
1000
1000
999.922
996.896
996.895
997.593
970.046
999.999
1000
1000
999.998
999.995
999.761
999.822
999.611
1000
1000
999.552
999.996
997.308
999.719
999.557
1000
1000
999.809
999.255
998.831
996.488
998.064
996.506
999.998
999.999
999.996
1000
997.199
997.759
996.534
997.089
999.998
1000
1000
1000
999.748
996.904
999.304
1000
999.578
1000
1000
1000
998.452
996.898
997.899
996.898
986.953
999.999
1000
1000
999.489
996.894
996.894
996.895
990.332
999.999
1000
999.997
999.996
999.958
999.7
999.742
999.992
999.998
999.922
999.999
999.965
998.855
999.718
997.997
999.999
999.999
999.702
999.875
997.512
996.484
996.483
996.486
999.996
999.999
999.992
1000
997.135
996.483
996.482
998.635
1000
1000
1000
1000
999.728
996.906
999.047
998.347
999.998
1000
1000
1000
998.334
996.904
999.475
996.898
999.387
1000
1000
1000
999.134
997.553
997.967
996.896
999.688
1000
1000
999.994
999.988
999.934
999.382
999.509
999.991
1000
999.753
1000
998.489
999.549
999.584
997.925
999.999
999.999
999.702
1000
996.611
996.483
996.482
996.711
999.997
999.998
999.995
1000
997.16
996.482
996.481
999.424
1000
1000
1000
1000
999.767
996.907
999.272
996.918
999.986
1000
1000
1000
998.827
996.906
999.494
996.918
999.999
999.999
1000
1000
999.214
999.412
999.437
996.909
999.999
1000
1000
999.997
999.926
999.879
999.307
999.342
999.989
1000
999.81
1000
997.426
999.678
999.314
999.42
1000
1000
999.905
1000
996.673
996.485
996.5
998.688
999.997
999.998
999.999
1000
997.718
996.751
996.481
999.728
1000
1000
1000
1000
999.729
999.009
999.539
997.463
999.999
1000
1000
999.993
999.587
998.893
999.495
996.917
999.543
1000
1000
1000
999.833
999.894
999.56
996.91
999.308
1000
1000
1000
999.784
999.85
999.307
999.36
1000
1000
999.99
1000
998.517
999.787
999.322
999.918
1000
1000
1000
999.881
996.675
998.404
996.5
999.589
999.994
999.997
1000
999.981
998.697
998.896
997.274
999.872
1000
1000
1000
1000
999.328
999.957
999.688
999.279
1000
1000
1000
999.959
999.893
999.669
999.144
996.918
997.854
1000
1000
999.992
999.994
999.895
999.371
996.911
997.699
1000
1000
1000
999.782
999.866
999.543
999.505
1000
1000
1000
1000
999.74
999.905
999.569
999.919
1000
1000
1000
999.74
996.679
999.777
996.502
999.696
999.988
999.997
1000
999.92
999.468
999.311
998.765
999.927
1000
1000
1000
1000
999.227
999.948
999.693
999.971
1000
1000
1000
999.953
999.892
999.474
997.595
996.919
998.022
1000
1000
999.973
999.995
999.913
998.063
996.952
998.603
1000
1000
1000
999.917
999.91
999.597
999.806
1000
1000
1000
999.986
999.894
999.918
999.878
999.919
1000
1000
1000
999.744
997.609
999.666
997.498
999.707
999.986
999.998
1000
999.917
999.639
997.679
998.746
999.939
1000
1000
1000
1000
999.227
999.957
999.567
999.99
999.996
1000
1000
999.971
999.879
999.188
996.92
996.92
998.886
1000
1000
999.978
999.995
999.931
996.94
998.692
999.681
1000
1000
1000
999.996
999.914
999.556
999.919
1000
1000
1000
999.765
999.872
999.918
999.919
999.919
1000
1000
1000
999.76
999.615
998.862
997.412
999.696
999.992
999.999
1000
999.953
999.602
997.074
997.797
999.939
1000
1000
1000
1000
999.328
999.69
999.076
999.983
1000
1000
1000
999.996
999.826
999.093
996.934
998.415
1000
1000
1000
999.997
999.993
999.961
996.938
999.694
1000
1000
1000
999.996
999.997
999.879
999.563
999.74
1000
1000
1000
999.683
999.83
999.918
999.918
999.755
1000
1000
1000
999.858
999.667
997.306
997.06
999.697
1000
1000
1000
999.995
999.584
997.072
997.062
998.974
1000
1000
1000
1000
999.719
998.639
998.642
999.979
1000
1000
1000
1000
999.642
999.127
996.941
999.523
1000
1000
1000
1000
999.982
999.98
997.226
999.861
1000
1000
1000
999.989
999.997
999.767
999.685
998.632
1000
1000
1000
999.683
999.82
999.918
999.652
999.556
1000
1000
1000
999.891
999.583
997.051
997.051
999.697
1000
1000
1000
1000
999.57
997.098
997.364
995.509
1000
1000
1000
999.998
999.976
998.315
998.636
999.981
1000
1000
1000
1000
999.397
999.242
996.943
999.618
1000
1000
1000
1000
999.957
999.969
999.225
999.871
1000
1000
1000
999.985
999.997
999.697
999.822
998.481
1000
1000
1000
999.683
999.838
999.915
998.168
999.562
1000
1000
1000
999.851
999.572
997.09
997.051
999.054
1000
1000
1000
1000
999.481
997.072
998.648
995.456
1000
999.999
999.992
999.993
999.997
999.996
999.975
999.968
1000
1000
999.951
999.737
999.96
999.982
999.701
999.654
1000
1000
999.995
999.592
999.398
999.971
999.69
999.844
1000
1000
1000
999.941
999.369
999.706
999.987
999.999
999.999
999.997
1000
1000
999.894
999.999
999.92
1000
1000
999.999
999.991
1000
999.989
999.906
999.994
999.98
1000
1000
999.945
999.87
999.983
999.988
999.706
998.335
1000
1000
999.988
999.592
999.738
999.997
999.366
997.397
1000
1000
1000
999.891
999.369
999.959
999.769
999.638
1000
1000
999.999
999.998
999.976
999.931
999.927
999.985
1000
1000
999.999
1000
999.994
999.999
999.947
1000
1000
1000
999.998
1000
1000
999.993
999.996
1000
1000
999.998
999.991
1000
999.989
999.869
999.996
999.996
1000
999.998
999.945
999.986
999.989
999.733
999.727
998.265
1000
1000
999.991
999.807
999.981
999.998
999.356
996.826
1000
1000
1000
999.857
999.66
999.996
999.512
997.375
1000
1000
1000
999.999
999.712
999.648
999.962
999.853
1000
1000
1000
1000
999.973
999.794
999.962
1000
1000
1000
999.999
1000
1000
999.988
999.996
1000
1000
999.998
999.993
1000
999.996
999.891
999.995
1000
1000
999.998
999.957
1000
999.994
999.356
999.797
999.035
1000
1000
999.992
999.998
999.999
999.999
999.544
996.826
1000
1000
999.999
999.857
999.949
999.995
999.415
996.826
1000
1000
1000
999.997
999.611
999.612
999.973
999.562
1000
1000
1000
1000
999.949
999.612
999.972
1000
1000
1000
1000
1000
1000
999.988
999.996
1000
1000
999.998
999.998
999.997
999.998
999.949
999.993
1000
1000
999.999
999.998
999.997
999.998
999.355
999.834
999.897
1000
1000
999.993
999.999
999.999
999.578
999.724
997.723
1000
1000
1000
999.94
999.965
999.995
999.445
996.828
1000
1000
1000
999.999
999.611
999.685
999.978
999.543
1000
1000
1000
1000
999.952
999.737
999.985
1000
1000
1000
1000
1000
999.999
999.989
999.997
1000
1000
999.999
1000
999.995
999.91
999.985
999.999
999.997
1000
1000
1000
999.973
999.999
999.398
999.765
999.979
1000
1000
999.999
999.997
999.999
998.632
998.765
999.744
1000
1000
1000
1000
999.988
999.87
999.316
998.259
1000
1000
1000
1000
999.825
999.851
999.992
999.694
1000
1000
1000
1000
999.974
999.961
999.997
1000
1000
1000
1000
1000
999.999
999.99
999.999
1000
999.999
1000
1000
999.993
999.782
999.982
1000
999.993
1000
1000
1000
999.974
999.311
999.527
999.512
999.965
1000
1000
1000
999.947
999.986
998.46
998.458
999.877
1000
1000
1000
999.99
999.99
999.185
998.497
999.908
999.995
1000
1000
999.98
999.989
999.873
1000
999.95
999.999
1000
1000
1000
999.894
999.972
1000
1000
1000
1000
1000
1000
999.999
999.996
1000
1000
999.999
1000
999.999
999.991
999.774
999.984
999.996
999.993
1000
1000
1000
999.942
998.902
999.668
999.211
999.961
999.999
1000
1000
999.937
999.852
998.458
998.458
999.862
999.997
1000
1000
999.941
999.988
998.505
998.458
999.871
999.996
1000
1000
999.833
999.354
999.796
1000
1000
999.999
1000
1000
999.992
999.788
999.963
1000
1000
999.999
1000
1000
1000
1000
1000
1000
1000
1000
1000
999.997
999.994
999.825
999.986
999.981
999.994
1000
1000
999.989
999.942
998.902
999.798
999.292
999.966
1000
1000
1000
999.95
999.409
998.731
998.458
999.872
1000
1000
999.999
999.92
999.935
998.462
998.461
999.853
999.974
1000
1000
999.44
998.65
999.602
1000
999.996
1000
1000
1000
999.945
999.73
999.964
1000
999.999
1000
1000
1000
1000
1000
1000
1000
1000
1000
1000
999.997
1000
999.94
999.985
999.956
999.996
1000
1000
999.981
999.981
999.022
999.888
999.675
999.981
1000
1000
999.994
999.959
998.688
999.502
998.458
999.914
999.999
1000
999.999
999.93
999.79
998.463
998.462
999.841
1000
1000
1000
999.183
998.649
999.493
999.978
999.99
1000
1000
1000
999.771
999.712
999.971
1000
999.998
1000
1000
1000
1000
1000
1000
1000
1000
1000
1000
1000
999.966
999.973
999.986
999.959
999.998
1000
1000
999.984
999.984
999.464
999.939
999.975
999.994
1000
1000
999.984
999.939
998.648
999.766
999.382
999.963
1000
1000
999.988
999.963
999.146
998.83
998.463
999.853
1000
1000
999.998
999.206
998.649
999.497
999.899
999.985
1000
1000
1000
999.555
999.723
999.978
1000
999.998
1000
1000
1000
1000
1000
1000
1000
1000
1000
1000
1000
999.86
999.965
999.992
999.991
999.999
1000
1000
1000
999.711
999.504
999.972
999.997
999.997
1000
1000
999.985
999.893
998.648
999.808
999.965
999.987
1000
1000
999.957
999.963
998.647
999.79
998.494
999.918
1000
1000
999.907
999.383
998.648
999.554
999.825
999.985
1000
1000
999.987
999.589
999.787
999.978
1000
999.998
1000
1000
1000
1000
1000
1000
1000
1000
1000
1000
1000
999.803
999.961
999.997
999.995
999.999
1000
1000
1000
998.869
999.493
999.993
999.997
999.995
1000
1000
999.994
999.747
998.647
999.887
999.997
999.991
1000
1000
999.956
999.94
998.646
999.876
999.775
999.98
1000
1000
999.808
999.742
998.647
999.722
999.824
999.987
1000
1000
999.912
999.846
999.891
999.98
999.994
999.998
1000
1000
1000
1000
1000
1000
1000
1000
1000
1000
1000
999.812
999.967
999.998
999.989
999.999
1000
999.999
1000
998.785
999.565
999.998
999.895
999.993
1000
1000
1000
999.288
998.67
999.988
999.854
999.988
1000
1000
999.973
999.89
998.645
999.936
999.993
999.993
1000
1000
999.824
999.971
999.035
999.903
999.92
999.992
1000
1000
999.892
999.992
999.945
999.989
999.984
999.998
1000
1000
1000
1000
1000
1000
1000
1000
1000
1000
999.999
999.884
999.98
999.996
999.968
999.999
1000
999.999
999.999
998.782
999.75
999.998
999.614
999.994
1000
1000
999.999
998.759
999.189
999.998
999.085
999.989
1000
1000
999.995
999.704
998.646
999.997
999.749
999.993
1000
1000
999.969
999.974
999.619
999.985
999.979
999.996
1000
1000
999.956
999.983
999.96
1000
999.982
999.999
1000
1000
1000
1000
1000
1000
1000
1000
1000
1000
999.998
999.973
999.997
999.95
999.93
1000
1000
1000
1000
999.287
999.943
999.747
999.565
999.998
1000
1000
1000
998.755
999.756
998.178
999.05
999.998
1000
1000
1000
999.092
998.854
999.388
999.238
999.997
1000
1000
1000
999.297
999.666
999.988
999.974
999.998
1000
1000
999.999
999.965
999.971
999.982
999.985
1000
1000
1000
1000
1000
1000
1000
1000
1000
1000
1000
999.979
999.999
1000
999.773
999.917
1000
1000
1000
1000
999.726
1000
997.822
999.588
1000
1000
1000
999.992
998.755
999.747
997.45
999.095
1000
1000
1000
1000
998.755
999.601
997.563
999.157
1000
1000
1000
1000
998.757
999.687
999.988
999.954
999.998
1000
1000
1000
999.947
999.976
999.955
999.989
1000
1000
1000
1000
1000
1000
1000
1000
1000
1000
1000
1000
1000
1000
1000
1000
1000
1000
1000
1000
1000
1000
1000
1000
1000
1000
1000
1000
1000
1000
1000
1000
1000
1000
1000
1000
1000
1000
1000
1000
1000
1000
1000
1000
1000
1000
1000
1000
1000
1000
1000
1000
1000
1000
1000
1000
1000
1000
1000
1000
1000
1000
1000
1000
1000
1000
1000
1000
1000
1000
1000
1000
1000
1000