/*--------------------------------*- C++ -*----------------------------------*\
| =========                 |                                                 |
| \\      /  F ield         | OpenFOAM: The Open Source CFD Toolbox           |
|  \\    /   O peration     | Version:  plus.master.MPPICInterFoam            |
|   \\  /    A nd           | Web:      www.OpenFOAM.com                      |
|    \\/     M anipulation  |                                                 |
\*---------------------------------------------------------------------------*/
FoamFile
{
    version     2.0;
    format      ascii;
    class       scalarField;
    location    "7.6/lagrangian/kinematicCloud";
    object      age;
}
// * * * * * * * * * * * * * * * * * * * * * * * * * * * * * * * * * * * * * //


180
(
7.48466
7.56649
7.32815
7.2765
7.54879
7.44903
6.86077
6.91428
7.28304
7.59948
6.71234
7.29959
7.07623
7.5089
6.69367
7.16882
6.84769
7.4422
7.46466
7.57063
7.56597
7.33119
6.96294
7.4498
7.59772
7.57111
6.72031
7.57836
7.57617
6.69524
7.06671
6.9448
7.08956
7.59142
7.21708
6.84003
7.46859
7.57096
6.72257
7.18294
7.22903
7.28254
7.10935
7.05161
6.77859
7.29786
6.84891
7.24421
6.93003
7.0956
6.84062
7.36284
7.04412
7.57679
7.25254
6.83682
7.20082
7.33762
6.88108
7.50775
7.00755
7.296
6.85496
6.74
7.58553
6.96982
7.38731
6.85745
7.58346
6.84238
6.80857
7.55285
6.81099
6.75075
7.51078
6.77346
7.11218
6.8102
7.14889
7.17942
7.04124
6.92311
7.13499
7.56846
6.76043
6.86178
7.17347
6.89163
7.07668
6.94216
7.5932
6.74097
6.70669
7.09163
7.16476
7.11387
6.93343
7.59393
7.16332
6.6801
7.23009
6.77
7.13077
6.6961
7.28874
7.37189
6.77916
6.87171
6.83013
7.04857
6.9508
6.77016
6.80243
6.99861
7.04591
6.73007
6.79434
6.82263
7.21431
6.71288
7.58855
7.10643
6.84174
6.71433
6.87661
7.34866
6.69368
7.40554
7.34293
7.011
6.96034
7.30638
7.42523
6.82047
6.72929
6.75042
7.47473
6.70199
6.8426
7.0385
6.8398
6.68041
7.19136
6.94527
7.1938
6.96694
6.71719
6.80002
7.32543
6.97065
7.1794
7.38152
6.68741
7.46532
6.72217
6.87578
6.87774
7.13385
7.30547
6.77274
7.04204
6.71027
6.75826
6.71929
7.39218
6.80012
7.47258
6.8752
6.77053
7.57079
7.04724
6.84041
7.24762
6.69241
7.39115
6.78
6.83103
6.80726
6.66658
7.20832
)


// ************************************************************************* //
