/*--------------------------------*- C++ -*----------------------------------*\
| =========                 |                                                 |
| \\      /  F ield         | OpenFOAM: The Open Source CFD Toolbox           |
|  \\    /   O peration     | Version:  plus.master.MPPICInterFoam            |
|   \\  /    A nd           | Web:      www.OpenFOAM.com                      |
|    \\/     M anipulation  |                                                 |
\*---------------------------------------------------------------------------*/
FoamFile
{
    version     2.0;
    format      ascii;
    class       Cloud<basicKinematicMPPICParcel>;
    location    "7.6/lagrangian/kinematicCloud";
    object      positions;
}
// * * * * * * * * * * * * * * * * * * * * * * * * * * * * * * * * * * * * * //

180
(
(-0.00399489 -0.0505828 0.505448) 2336
(0.0206791 -0.032966 0.515216) 2406
(-0.00775152 0.0587517 0.504906) 2681
(0.00623809 0.057322 0.508477) 2673
(-0.00568074 -0.0625228 0.502319) 2338
(-0.0600016 -0.00600212 0.50753) 2002
(-0.00506804 -0.0636596 0.503409) 2338
(-0.00392881 -0.0636473 0.502222) 2338
(-0.00976036 -0.0623738 0.50211) 2330
(0.0626288 -0.00370552 0.503715) 1666
(-0.00254791 -0.0661603 0.503817) 2339
(-0.00145145 0.0630349 0.506269) 2674
(-0.000652641 -0.0644077 0.50571) 2338
(-0.060476 -0.00947343 0.507309) 2010
(0.00150034 -0.0652308 0.506508) 2339
(0.0611824 -0.00385822 0.506088) 1666
(0.00360787 -0.0606411 0.5113) 2338
(0.0590934 -0.00420746 0.513444) 1721
(-0.0600811 -0.0075214 0.51418) 2066
(0.00190513 -0.0594331 0.51241) 2393
(0.0603963 -0.00731816 0.513701) 1714
(-0.00104064 0.0612145 0.513408) 2730
(-0.00290631 -0.062628 0.514821) 2394
(0.0604108 -0.000565201 0.513449) 1722
(-0.00740195 -0.0594901 0.519331) 2386
(-0.00541063 -0.0593706 0.520955) 2393
(-0.00721364 -0.0588167 0.520201) 2385
(-0.0596476 -0.00307469 0.520186) 2058
(-0.0601022 0.00215911 0.520837) 2058
(0.00324984 -0.0609044 0.521045) 2394
(-0.0603741 -0.000121001 0.522341) 2114
(-0.0619295 -8.35833e-05 0.5237) 2114
(-0.0589202 0.00632729 0.525762) 2113
(0.0569158 -0.00423707 0.526811) 1777
(-0.0598675 0.00550058 0.52493) 2114
(-0.0577041 0.00804585 0.528024) 2105
(0.00154376 0.0604995 0.52562) 2786
(0.0573645 -0.00517572 0.528991) 1777
(-0.0611157 0.00260859 0.525098) 2114
(-0.0056897 0.0535184 0.533696) 2840
(0.00332033 0.0583409 0.527256) 2785
(-0.0608964 0.00261576 0.525627) 2114
(-0.0602333 0.00433721 0.526735) 2114
(-0.0574996 -0.00526555 0.529308) 2113
(0.00539272 -0.0586288 0.526706) 2449
(-0.0596352 0.00542402 0.527349) 2114
(-0.0571785 0.0151829 0.526704) 2105
(-0.0595298 0.00504768 0.528751) 2114
(-0.0562237 0.00768475 0.5315) 2161
(-0.0585406 -0.00921826 0.527978) 2121
(-0.0586256 -0.00814519 0.528388) 2121
(-0.0569662 0.00904033 0.530819) 2105
(-0.0597612 -0.00281141 0.530027) 2114
(-0.0590797 -0.0110697 0.528939) 2122
(-0.0580691 -0.0101558 0.529967) 2121
(-0.0582582 0.0146472 0.531178) 2106
(-0.0569304 0.00954592 0.531521) 2161
(0.0115421 0.0551745 0.53465) 2833
(-0.0578487 -0.00890559 0.53105) 2121
(0.00739546 0.0538431 0.538523) 2833
(-0.056853 0.00513547 0.534988) 2169
(-0.0575432 0.0156219 0.534384) 2162
(-0.0552645 -0.0051713 0.536779) 2169
(-0.0549436 0.00672056 0.53718) 2161
(-0.0575514 -0.00929743 0.534145) 2177
(-0.0575611 0.00863361 0.536456) 2161
(-0.0571649 0.00967481 0.53565) 2161
(-0.0559714 0.0158763 0.534182) 2161
(-0.0566263 0.0101876 0.534898) 2161
(-0.0565459 -0.00719106 0.535836) 2177
(-0.0563831 0.0093704 0.535929) 2161
(-0.0564088 0.0156225 0.534374) 2161
(-0.0589194 -0.00284107 0.535181) 2169
(-0.00511099 -0.055712 0.537126) 2505
(-0.0584341 0.00446605 0.535546) 2169
(-0.0574125 0.0139158 0.535123) 2161
(-0.0555353 0.0132288 0.535254) 2161
(-0.0562674 0.00593346 0.536679) 2169
(-0.0573065 -0.00783277 0.536154) 2177
(-0.0549685 0.0114356 0.536609) 2161
(-0.0566264 0.00481116 0.536638) 2169
(-0.0558717 -0.0124469 0.536365) 2177
(-0.0575498 0.00361379 0.53632) 2169
(-0.0545063 0.0123227 0.537883) 2161
(-0.05415 -0.0143521 0.537844) 2177
(-0.0547272 0.00502676 0.540084) 2169
(-0.0540503 0.0118493 0.539045) 2161
(-0.054057 -0.0130039 0.538592) 2177
(-0.0559171 -0.00260179 0.538847) 2169
(-0.0532644 0.00984996 0.54112) 2161
(-0.0542029 0.00303644 0.540411) 2169
(-0.0525216 0.00801794 0.542342) 2216
(-0.0525613 0.0112181 0.541816) 2216
(-0.0527543 -0.00408873 0.543454) 2224
(-0.0523937 0.00559729 0.543726) 2224
(-0.0529983 0.00430774 0.544896) 2224
(-0.0528817 0.00202365 0.545308) 2224
(-0.0524572 0.0090268 0.544548) 2216
(-0.0512801 0.0103305 0.547217) 2216
(0.0064116 -0.0502449 0.548793) 2568
(0.0067404 -0.0504819 0.548712) 2568
(0.0198451 0.0457392 0.54845) 2880
(0.024456 0.043986 0.547688) 2880
(-0.0509592 0.0105561 0.547455) 2216
(-0.0528533 0.00178543 0.546167) 2224
(-0.0501344 0.00542534 0.549369) 2224
(-0.0508201 -0.00461079 0.548691) 2224
(0.0166149 0.0444463 0.551643) 2935
(0.00442128 -0.0520627 0.547822) 2560
(-0.00143332 0.0498123 0.549591) 2896
(-0.0517137 -0.00372341 0.549249) 2224
(-0.0502348 -0.00597579 0.549547) 2232
(0.00770918 -0.0511781 0.548612) 2568
(0.00766949 0.0480463 0.551978) 2943
(-0.0511915 -0.00164686 0.549568) 2224
(0.00270711 -0.0505967 0.55143) 2616
(0.0058723 -0.0481261 0.554365) 2623
(-0.0496255 -0.00716763 0.552541) 2288
(-0.0496458 5.22033e-05 0.552883) 2280
(-0.0498059 -0.00777696 0.553714) 2288
(0.0159269 0.0408385 0.561859) 9031
(0.00911548 -0.0488538 0.554287) 2624
(-0.0478964 0.00205405 0.559091) 2279
(0.0138406 0.0389161 0.56455) 9030
(-0.0474415 -0.0101731 0.558404) 2287
(0.00481559 -0.0438664 0.566303) 8487
(0.00262315 -0.0490939 0.555675) 2616
(-0.0462557 0.00137347 0.563793) 7927
(0.00643967 -0.0445192 0.56585) 8495
(0.00425062 -0.0472726 0.558554) 2615
(-0.0447409 -0.00587287 0.563561) 7935
(-0.0056241 -0.0459418 0.562292) 8479
(0.0365494 -0.00484958 0.57218) 7071
(-0.0464138 0.00118594 0.564223) 7927
(0.00473923 -0.0434053 0.567046) 8486
(0.00454892 -0.0436381 0.566363) 8487
(-0.0451728 -0.00655368 0.563953) 7935
(-0.0460321 -0.000629784 0.563814) 7927
(-0.00395903 -0.0442002 0.566948) 8487
(-0.0462656 -0.000690159 0.564969) 7927
(0.00380552 -0.0438502 0.568073) 8487
(0.00581066 -0.0430604 0.568382) 8494
(-0.0447325 -0.000848775 0.566155) 7927
(-0.00169734 -0.0438458 0.568098) 8487
(-0.0364679 -0.00199092 0.575182) 7142
(0.00585511 -0.0401813 0.571066) 8550
(-0.00124861 -0.0375206 0.574747) 7212
(-0.0359063 -0.00112168 0.575939) 5469
(0.00644417 0.031508 0.576407) 6580
(0.00348779 -0.0348944 0.575419) 6029
(-6.4077e-05 -0.0349655 0.576818) 6029
(0.00182409 -0.0345635 0.576567) 6029
(-0.000360747 -0.0336796 0.577942) 6029
(0.00310868 -0.0326961 0.576656) 6028
(-0.0038698 -0.0329534 0.577013) 6020
(-0.0318834 -0.00107157 0.576476) 5468
(0.000492441 -0.0326809 0.57784) 6028
(-0.00333883 -0.0303594 0.577224) 6027
(0.000522943 -0.0282831 0.576755) 6027
(0.00284958 -0.0262247 0.57241) 6026
(-0.0259002 -0.00343846 0.556525) 946
(-0.0029688 -0.0227694 0.561085) 5961
(0.00732235 0.0185066 0.547971) 1536
(-0.00143213 -0.0225587 0.551177) 1273
(-0.00161557 -0.0225268 0.543477) 1217
(0.00597161 0.0187388 0.533747) 1488
(-0.00065376 -0.0227921 0.534789) 1161
(0.0017135 -0.0273461 0.526768) 1106
(0.00159047 -0.0269821 0.527136) 1106
(0.00123785 -0.0263442 0.523643) 1106
(0.00148866 -0.0265204 0.521694) 1106
(-0.00374141 0.0201248 0.519274) 1392
(-0.0240889 -0.00339626 0.520358) 721
(-0.00147729 -0.0229572 0.520912) 1049
(-0.00152883 -0.023016 0.521311) 1049
(0.00278511 -0.0284978 0.513757) 1051
(-0.0240635 -0.00341238 0.505845) 665
(-0.000483246 -0.0232995 0.505105) 993
(-0.0033329 -0.0227878 0.504001) 985
(-0.00119666 0.0200427 0.503143) 1328
)


// ************************************************************************* //
