/*--------------------------------*- C++ -*----------------------------------*\
| =========                 |                                                 |
| \\      /  F ield         | OpenFOAM: The Open Source CFD Toolbox           |
|  \\    /   O peration     | Version:  plus.master.MPPICInterFoam            |
|   \\  /    A nd           | Web:      www.OpenFOAM.com                      |
|    \\/     M anipulation  |                                                 |
\*---------------------------------------------------------------------------*/
FoamFile
{
    version     2.0;
    format      ascii;
    class       vectorField;
    location    "7.6/lagrangian/kinematicCloud";
    object      UCorrect;
}
// * * * * * * * * * * * * * * * * * * * * * * * * * * * * * * * * * * * * * //


180
(
(-2.19597e-13 -1.75784e-13 3.71161e-10)
(3.37592e-19 -7.39839e-20 2.66956e-35)
(1.83164e-20 2.12825e-20 -9.30355e-20)
(-9.37782e-19 7.2928e-20 -4.23076e-35)
(2.48862e-18 -3.87907e-15 9.67378e-18)
(4.88783e-17 4.76258e-18 -5.30812e-19)
(-3.01452e-16 -3.84483e-15 5.2208e-18)
(2.48862e-18 -3.87907e-15 9.77563e-18)
(-7.06264e-17 -3.14751e-16 4.47372e-20)
(-2.00693e-19 -1.18682e-19 -3.04767e-22)
(2.35812e-30 -7.99285e-20 6.52303e-18)
(-1.18682e-19 -4.60204e-21 8.09094e-51)
(2.48862e-18 -8.83057e-16 5.2208e-18)
(-4.23129e-18 -5.69398e-19 5.86019e-18)
(2.35812e-30 -3.04682e-20 6.52303e-18)
(-2.21753e-19 -3.05595e-19 1.63528e-22)
(2.48862e-18 -3.87907e-15 2.2085e-19)
(3.6673e-21 -2.84042e-29 9.28538e-20)
(-7.8755e-19 -8.29719e-19 -8.23966e-17)
(5.99902e-19 -4.65893e-18 2.20318e-15)
(5.09433e-19 -7.90116e-20 7.45771e-35)
(7.86259e-30 1.74781e-19 4.27434e-37)
(4.52864e-20 -5.44532e-19 5.39643e-21)
(-1.15968e-19 -1.18567e-19 -3.34415e-19)
(-6.07444e-23 7.7557e-22 1.68107e-19)
(5.99902e-19 -7.84439e-18 2.20318e-15)
(-1.65422e-19 -1.68074e-18 1.82908e-16)
(-2.39348e-13 -4.71192e-16 -1.79228e-13)
(-1.16411e-13 -4.71192e-16 -3.38085e-13)
(1.18451e-19 -5.52776e-19 3.87492e-22)
(-1.94546e-10 5.4076e-17 -4.4724e-08)
(-1.94546e-10 5.4076e-17 -1.09359e-07)
(-4.13181e-10 4.27129e-11 -2.82781e-07)
(-7.90283e-19 1.73429e-20 9.28538e-20)
(-2.41103e-11 5.4076e-17 -2.35341e-07)
(-4.27885e-10 1.69459e-10 -1.14608e-06)
(1.18682e-19 5.86438e-20 3.34905e-19)
(-7.87027e-19 4.62421e-20 9.28538e-20)
(-1.11032e-10 5.4076e-17 -2.35341e-07)
(-7.96393e-20 6.83102e-19 -2.03505e-22)
(-4.96946e-30 4.43585e-21 1.86071e-19)
(-9.57617e-11 5.4076e-17 -2.35341e-07)
(-4.95863e-11 5.4076e-17 -2.35341e-07)
(-4.13909e-10 -3.82035e-11 -2.82781e-07)
(-3.83162e-19 -6.5886e-20 1.45368e-21)
(-7.93022e-12 5.4076e-17 -2.35341e-07)
(2.38981e-11 4.58046e-10 -1.14608e-06)
(-5.91e-13 5.4076e-17 -2.35341e-07)
(0.000937573 0.000170883 1.71634e-05)
(-9.10251e-14 -2.13231e-13 -1.45765e-13)
(-1.42826e-13 -2.25054e-13 -1.45765e-13)
(-3.84857e-10 5.51342e-10 -2.17937e-06)
(-1.67041e-11 5.4076e-17 -2.35341e-07)
(1.92069e-14 -1.63001e-13 -1.07885e-10)
(-1.74461e-13 -2.32275e-13 -1.45765e-13)
(-2.26096e-12 -6.07335e-14 -7.9088e-12)
(0.000937573 0.000170883 1.91633e-05)
(-9.6632e-20 6.57959e-19 2.40515e-19)
(-8.4535e-13 -3.854e-13 -2.82549e-13)
(4.92169e-20 1.29697e-18 -9.40549e-37)
(-9.18483e-06 -4.31555e-07 0.000152605)
(-3.97235e-06 1.07869e-06 1.51293e-09)
(-9.18264e-06 -1.38027e-06 0.000152605)
(0.000909214 -8.0811e-05 0.000479114)
(5.24829e-08 -3.39871e-07 -1.82755e-10)
(0.000917022 -1.15101e-05 0.000479114)
(0.000922262 3.49941e-05 0.000479114)
(0.00053658 0.000262407 0.000479114)
(0.000925029 5.9556e-05 0.000479114)
(6.00947e-08 -4.07428e-07 -1.82755e-10)
(0.000921218 2.57295e-05 0.000479114)
(0.000417796 0.000289519 0.000479114)
(-0.000420943 -8.96195e-07 0.000152605)
(2.30236e-19 3.68437e-19 1.85526e-19)
(-9.19347e-06 -5.08237e-07 0.000152605)
(0.000225502 0.000333408 0.000479114)
(0.000937573 0.000170883 0.000382131)
(-9.17602e-06 -3.53389e-07 0.000152605)
(5.79713e-08 -3.88581e-07 -1.82755e-10)
(0.00117604 0.000116454 0.000479114)
(-9.18787e-06 -4.58586e-07 0.000152605)
(4.02843e-08 -2.17734e-07 -1.82755e-10)
(-9.20114e-06 -5.76328e-07 0.000152605)
(0.00126022 9.72398e-05 0.000479114)
(3.87606e-08 -2.18082e-07 -2.41495e-10)
(-9.1835e-06 -4.19719e-07 0.000152605)
(0.000937573 0.000170883 0.0007507)
(3.87606e-08 -2.18082e-07 -2.69093e-10)
(-9.23718e-06 -8.96195e-07 0.000232948)
(0.00184572 -3.63956e-05 0.000479114)
(0.000554312 -8.96195e-07 0.000152605)
(6.44042e-07 2.83678e-07 2.02033e-06)
(6.44042e-07 2.83678e-07 2.14162e-06)
(-1.54101e-05 -1.74343e-06 -0.000245118)
(-1.53329e-05 2.42825e-06 -0.000245118)
(-1.54005e-05 1.82809e-06 -0.000245118)
(-0.000478634 -1.69419e-12 -0.000245118)
(9.89122e-07 2.04915e-07 1.14294e-06)
(8.13165e-07 2.45076e-07 1.14294e-06)
(-9.72764e-20 6.41105e-19 3.1238e-19)
(-1.07421e-19 6.39962e-19 3.1238e-19)
(-7.66615e-20 -1.59189e-19 -1.04195e-19)
(-2.17013e-19 -3.89462e-19 -1.04195e-19)
(6.44042e-07 2.83678e-07 8.42202e-07)
(-0.000469341 -1.69419e-12 -0.000245118)
(-1.53288e-05 2.46477e-06 -0.000245118)
(-1.53732e-05 -2.07055e-06 -0.000245118)
(-2.16463e-19 -4.50047e-19 -2.52279e-23)
(4.13792e-22 3.20316e-23 -4.47117e-35)
(-9.24655e-31 -1.25412e-20 3.53195e-19)
(-1.54224e-05 -1.63377e-06 -0.000245118)
(1.15783e-07 -8.01964e-07 8.50429e-11)
(-1.37319e-19 6.36593e-19 3.1238e-19)
(-2.45315e-19 3.53006e-20 -2.35603e-19)
(-1.56065e-05 -1.69419e-12 -7.52038e-05)
(1.21959e-19 -4.63938e-19 -1.388e-20)
(3.34592e-18 -2.70495e-17 -2.50788e-19)
(9.97998e-13 -5.12987e-13 3.24272e-13)
(1.17528e-10 2.25062e-10 4.84794e-07)
(9.92597e-13 -4.65055e-13 3.24272e-13)
(2.3097e-19 -9.02654e-20 1.17571e-19)
(-3.30159e-20 1.44652e-19 -1.04398e-19)
(1.39458e-10 2.19489e-10 4.99959e-07)
(1.89034e-19 5.48687e-19 3.88792e-35)
(1.49717e-13 -5.30234e-13 4.17418e-10)
(1.5273e-15 -1.38984e-14 -1.27914e-14)
(1.21959e-19 -7.70422e-20 -2.08389e-19)
(2.26849e-13 -6.7852e-17 5.46694e-13)
(1.80622e-17 -1.09955e-16 -2.01681e-14)
(3.46789e-16 -3.89638e-15 -3.32444e-18)
(1.45048e-16 1.79338e-17 3.18325e-16)
(-1.42067e-14 -1.15884e-13 -5.74483e-14)
(3.48942e-19 2.27169e-19 -1.7648e-19)
(2.26849e-13 -6.7852e-17 5.13669e-13)
(-5.09835e-12 -1.30407e-10 -4.20109e-12)
(1.90758e-19 -2.89511e-14 -1.27914e-14)
(1.44812e-16 2.00235e-17 3.18325e-16)
(2.26849e-13 -6.7852e-17 5.45082e-13)
(-1.25778e-15 -1.39287e-14 -1.27914e-14)
(2.26849e-13 -6.7852e-17 4.56393e-13)
(1.90758e-19 -2.76981e-14 -1.27914e-14)
(6.63624e-13 -2.71239e-12 -5.50313e-14)
(1.03817e-13 -6.7852e-17 3.81009e-13)
(1.90758e-19 -2.77241e-14 -1.27914e-14)
(8.93126e-19 4.59164e-29 1.87069e-17)
(3.48704e-09 -1.52576e-08 4.12062e-13)
(-3.84748e-11 -9.8898e-07 6.28217e-12)
(-1.80669e-21 -2.36943e-19 2.37211e-17)
(-1.43061e-19 -5.18612e-22 1.61326e-19)
(0.000437151 5.84504e-05 8.53314e-14)
(-1.44193e-09 1.64826e-05 7.64457e-05)
(0.000231566 3.87137e-05 8.53314e-14)
(-1.44193e-09 6.24501e-06 8.53314e-14)
(-2.34892e-06 1.21645e-06 -1.93204e-15)
(-7.07134e-08 -7.52484e-07 8.7645e-15)
(7.06318e-19 2.37427e-20 1.5764e-19)
(-1.23134e-06 2.03824e-06 -1.93204e-15)
(-1.59857e-11 2.85835e-11 2.07489e-15)
(4.53126e-11 9.45991e-12 2.07489e-15)
(1.88489e-12 2.10485e-13 1.1158e-16)
(-3.98645e-19 -4.40364e-19 -9.22043e-20)
(-8.30716e-14 2.11731e-13 -1.57399e-15)
(-3.32203e-20 -4.42815e-20 3.67317e-36)
(-1.38285e-17 4.37948e-13 1.05296e-15)
(2.25549e-11 4.18037e-10 2.40867e-12)
(-2.3175e-19 2.91611e-18 2.19144e-19)
(1.21201e-13 2.92491e-07 1.60159e-06)
(7.1868e-13 -0.00130763 6.97481e-10)
(7.1868e-13 -0.000880493 6.97481e-10)
(7.1868e-13 -3.85253e-05 -0.000273251)
(7.1868e-13 -3.85253e-05 -0.000470081)
(3.31052e-20 -1.05641e-20 4.70671e-20)
(3.88745e-19 4.97308e-19 -3.90327e-22)
(2.66239e-13 4.71917e-07 -3.04514e-06)
(2.66239e-13 4.71917e-07 -3.17446e-06)
(3.89065e-08 -4.41698e-07 -1.53072e-06)
(-3.09433e-20 2.81076e-20 3.99305e-19)
(1.11104e-12 4.22279e-10 -2.56239e-12)
(3.50439e-13 3.00036e-12 -3.77681e-11)
(-9.08555e-21 4.86976e-20 9.95901e-35)
)


// ************************************************************************* //
