/*--------------------------------*- C++ -*----------------------------------*\
| =========                 |                                                 |
| \\      /  F ield         | OpenFOAM: The Open Source CFD Toolbox           |
|  \\    /   O peration     | Version:  plus.master.MPPICInterFoam            |
|   \\  /    A nd           | Web:      www.OpenFOAM.com                      |
|    \\/     M anipulation  |                                                 |
\*---------------------------------------------------------------------------*/
FoamFile
{
    version     2.0;
    format      ascii;
    class       scalarField;
    location    "4/lagrangian/kinematicCloud";
    object      age;
}
// * * * * * * * * * * * * * * * * * * * * * * * * * * * * * * * * * * * * * //


2353
(
3.80512
3.90845
3.74533
3.86697
3.68652
3.96525
3.8844
3.91885
3.92264
3.87422
3.81826
3.75323
3.80663
3.74156
3.99102
3.80848
3.985
3.99937
3.74289
3.99124
3.81545
3.99962
3.77913
3.89344
3.72417
3.78251
3.79243
3.77156
3.91096
3.8784
3.86756
3.92029
3.78643
3.96504
3.71612
3.89302
3.98815
3.8711
3.99125
3.9577
3.92845
3.96197
3.90223
3.99885
3.98975
3.77886
3.65611
3.92085
3.98483
3.95683
3.89015
3.96383
3.9771
3.99616
3.94308
3.86876
3.98526
3.9318
3.9184
3.87843
3.80212
3.86201
3.94692
3.96463
3.86879
3.87984
3.88081
3.98492
3.96848
3.7232
3.82376
3.95663
3.90037
3.59228
3.94367
3.89151
3.99571
3.92528
3.87256
3.7596
3.91252
3.95301
3.91262
3.83313
3.81034
3.88863
3.93827
3.87232
3.98169
3.65725
3.92433
3.96651
3.9194
3.84299
3.8705
3.99195
3.77171
3.82948
3.54678
3.92531
3.79083
3.72472
3.95745
3.92017
3.90995
3.87457
3.93131
3.95616
3.97273
3.797
3.6346
3.94022
3.80619
3.68461
3.99847
3.88657
3.93022
3.79766
3.83995
3.95002
3.8535
3.92474
3.77186
3.83697
3.57038
3.92588
3.92733
3.80553
3.91957
3.84008
3.97898
3.94335
3.85174
3.82835
3.78127
3.7339
3.88837
3.76506
3.84897
3.99888
3.93699
3.87591
3.96538
3.84984
3.7495
3.92757
3.88266
3.91854
3.82242
3.78155
3.87887
3.99903
3.84447
3.96218
3.9337
3.97075
3.96389
3.91247
3.90017
3.95588
3.90798
3.99125
3.93412
3.66799
3.71493
3.94378
3.69621
3.86963
3.96402
3.69948
3.8949
3.9957
3.86732
3.8694
3.94695
3.98772
3.85922
3.88794
3.85956
3.86997
3.99808
3.98888
3.87739
3.97647
3.97332
3.89102
3.97968
3.99013
3.81313
3.74497
3.94739
3.81769
3.70267
3.94599
3.87836
3.71785
3.67767
3.83174
3.99058
3.97091
3.94064
3.82064
3.98206
3.76812
3.63934
3.79538
3.97313
3.83918
3.87281
3.85762
3.86659
3.92763
3.89823
3.91619
3.82976
3.9982
3.9561
3.88824
3.91723
3.99583
3.94704
3.84897
3.89653
3.97171
3.78314
3.85048
3.84547
3.85905
3.76575
3.90781
3.91206
3.97049
3.56558
3.77148
3.83926
3.95156
3.88685
3.9711
3.83918
3.93299
3.91857
3.80932
3.95693
3.85538
3.98491
3.83939
3.62857
3.96975
3.87367
3.70736
3.99145
3.76165
3.89551
3.91774
3.78347
3.82947
4.00089
3.85428
3.99423
3.88842
3.90153
3.95975
3.80805
3.8098
3.96268
3.89374
3.96485
3.9962
3.9561
3.69949
3.97209
3.98817
3.77445
3.82067
3.87393
3.97614
3.95092
3.9989
3.90888
3.8982
3.79101
3.95618
3.74484
3.95441
3.91604
3.96708
3.93156
3.87083
3.77152
3.97456
3.93455
3.61121
3.77389
3.99377
3.981
3.95132
3.80579
3.99051
3.93755
3.58118
3.97778
3.86907
3.87899
3.89948
3.99236
3.99608
3.92134
3.6585
3.72404
3.83956
3.8788
3.75342
3.98506
3.91925
3.89803
3.9372
3.91004
3.96931
3.68474
3.95713
3.99374
3.98893
3.78288
3.75578
3.97571
3.88623
3.9484
3.87443
3.94457
3.8828
3.93953
3.86875
3.92314
3.80911
3.74436
3.99063
3.56196
3.62579
3.91762
3.61911
3.61605
3.91824
3.89827
3.9819
3.96569
3.97887
3.89926
3.88833
3.86421
3.85908
3.86374
3.92772
3.89991
3.87866
3.97979
3.83972
3.53635
3.98403
3.93109
3.944
3.94325
3.88854
3.73672
3.92007
3.89239
3.94932
3.83592
3.96407
3.90773
3.96513
3.87324
3.83919
3.86949
3.74492
3.5675
3.99166
3.96518
3.87854
3.82498
3.87884
3.96681
3.87847
3.98896
3.95096
3.8342
3.77269
3.77376
3.84991
3.90965
3.77496
3.73446
3.92777
3.75015
3.8531
3.94437
3.68272
3.82077
3.58519
3.96391
3.96906
3.93738
3.78522
3.72383
3.94727
3.98953
3.50386
3.5757
3.95046
3.84898
3.95801
3.84992
3.92738
3.88957
3.82288
3.78348
3.79048
3.92139
3.44869
3.90435
3.94696
3.75271
3.75173
3.6286
3.6291
3.81751
3.94808
3.65255
3.97036
3.83019
3.51528
3.9813
3.95638
3.88896
3.78231
3.73082
3.89362
3.75281
3.91768
3.69059
3.73206
3.98552
3.78263
3.84401
3.84475
3.93795
3.7367
3.93414
3.9741
3.92951
3.89829
3.61945
3.82939
3.59119
3.86865
3.91983
3.78805
3.97045
3.83019
3.9347
3.80044
3.9639
3.79667
3.70562
3.87375
3.79048
3.9478
3.9781
3.83938
3.9543
3.83666
3.8714
3.98549
3.86773
3.98856
4.00017
3.98092
3.98834
3.97632
3.63812
3.95417
3.78362
3.79052
3.78858
3.61141
3.99367
3.86875
3.93009
3.98357
3.94026
3.75323
3.73366
3.78489
3.78149
3.97087
3.63823
3.67516
3.75547
3.96394
3.90921
3.82075
3.757
3.65075
3.64766
3.836
3.75615
3.99137
3.9562
3.98089
3.83971
3.82529
3.75239
3.73526
3.79052
3.78005
3.85951
3.94776
3.95715
3.82225
3.86176
3.74914
3.94739
3.84168
3.99908
3.63891
3.99129
3.74596
3.74287
3.94667
3.81554
3.99833
3.84208
3.9471
3.93151
3.88939
3.86155
3.45016
3.9639
3.94863
3.7056
3.80749
3.8736
3.93977
3.78785
3.99389
3.77789
3.87196
3.89799
3.57154
3.71711
3.87685
3.86861
3.89914
3.87857
3.81961
3.65825
3.99811
3.84712
3.6381
3.96721
3.96865
3.92004
3.96731
3.69016
3.98912
3.57846
3.70398
3.8614
3.87918
3.69849
3.92979
3.96542
4.00019
3.92262
3.99456
3.8874
3.94694
3.90816
3.97278
3.72519
3.93541
3.96831
3.99271
3.90111
3.90085
3.90999
3.92739
3.92379
3.97902
3.97076
3.90596
3.95845
3.86771
3.82051
3.95734
3.88139
3.95603
3.60025
3.7911
3.93868
3.89401
3.76717
3.90816
3.78104
3.6517
3.99896
3.97623
3.96366
3.90818
3.87946
3.97192
3.99397
3.86249
4.00016
3.91754
3.84932
3.61927
3.72423
3.91871
3.95959
3.7641
3.93576
3.85277
3.91192
3.8498
3.96903
3.88111
3.98959
3.99935
3.93402
3.91067
3.55508
3.89972
3.99217
3.8237
3.84345
3.96392
3.67694
3.61039
3.75294
3.99895
3.79086
3.9644
3.95453
3.86006
3.89395
3.93759
3.78753
3.91787
3.79912
3.61937
3.97697
3.77074
3.95933
3.84903
3.9705
3.95756
3.73334
3.99383
3.95063
3.7868
3.91013
3.57184
3.97061
3.98668
3.81965
3.97045
3.86383
3.74296
3.97028
3.81393
3.93179
3.78185
3.96005
3.92006
3.93753
3.94702
3.79423
3.99365
3.84595
3.70487
3.86909
3.92881
3.9373
3.79075
3.9917
3.88942
3.77273
3.85421
3.83084
3.76196
3.99197
3.92778
3.95861
3.93808
3.60853
3.44222
3.93054
3.59953
3.97417
3.78186
3.91755
3.8793
3.84131
3.90463
3.75409
3.94054
3.94256
3.62333
3.54989
3.9937
3.8003
3.9584
3.96273
3.92706
4.00021
3.76209
3.74188
3.96315
3.89816
3.75239
3.86209
3.83927
3.90177
3.9501
3.67205
3.86058
3.94691
3.99427
3.62045
3.78147
3.72404
3.81259
3.75318
3.87932
3.7289
3.91416
3.83967
3.88157
3.8204
3.85145
3.8314
3.7365
3.84933
3.88815
3.92904
3.66703
3.8476
3.97667
3.68981
3.88138
3.90222
3.91177
3.83843
3.67619
3.4842
3.89817
3.849
3.81237
3.95612
3.87958
3.8518
3.94698
3.97634
3.96606
3.99387
3.77344
3.98878
3.68828
3.80302
3.92251
3.97677
3.79794
3.94883
3.64941
3.92735
3.81105
3.86071
3.78054
3.70833
3.70396
3.84296
3.82114
3.89796
3.7256
3.92967
3.98496
3.87715
3.98002
3.68655
3.93011
3.74413
3.87268
3.9598
3.93819
3.90659
3.84794
3.80765
3.70941
3.77051
3.81758
3.9287
3.69868
3.91647
3.83807
3.84016
3.6413
3.57304
3.73374
3.99882
3.91543
3.82943
3.98545
3.67846
3.94691
3.88734
3.96437
3.97281
3.91065
3.85278
3.95213
3.77253
3.8301
3.89263
3.91857
3.99415
3.78206
3.79838
3.78802
4
3.55837
3.8784
3.74605
3.67477
3.97665
3.93752
3.72512
3.99773
3.86568
3.81087
3.8106
3.82805
3.99159
3.77588
3.85251
3.98029
3.95624
3.85429
3.97622
3.86808
3.66157
3.88867
3.89132
3.96099
3.87865
3.82011
3.9178
3.76215
3.7449
3.87908
3.95641
3.66674
3.8205
3.96564
3.90778
3.79684
3.73386
3.87578
3.86525
3.6703
3.8688
3.99893
3.79574
3.72726
3.83941
3.80007
3.87851
3.93765
3.82079
3.97127
3.72355
3.84999
3.95829
3.88243
3.94732
3.92402
3.86099
3.92759
3.83128
3.791
4
3.79793
4
3.97078
3.85637
3.76239
3.94276
3.97647
3.77189
3.93104
3.99124
3.81232
3.98106
3.77146
3.80872
3.86912
3.75581
3.90156
3.78297
3.90894
3.73333
3.68095
3.98971
3.6762
3.83922
3.98137
3.99431
3.80149
3.99154
3.92768
3.98604
3.8675
3.93713
3.69817
3.99157
3.89175
3.96413
3.91088
3.83171
3.66125
3.98177
3.85123
3.79049
3.92829
3.90795
3.88449
3.99923
3.97287
3.95668
3.69835
3.87073
3.78354
3.92614
3.91766
3.94744
3.53696
3.77784
3.84898
3.96015
3.61522
3.94792
3.90799
3.86865
3.82016
3.89883
3.86109
3.68578
3.76236
3.85876
3.99394
3.9814
3.90775
3.8059
3.84902
3.92648
3.98835
3.86082
3.84523
3.98451
3.93296
3.85876
3.69105
3.85927
3.91621
3.93722
3.97027
3.77839
3.67619
3.90078
3.88142
3.58534
3.76268
3.95624
3.79568
3.9903
3.90592
3.81255
3.92302
3.76192
3.9639
3.99131
3.81714
3.8596
3.98243
3.74118
3.8
3.69535
3.99064
3.60117
3.90132
3.66315
3.88462
3.85018
3.96385
3.88616
3.85767
3.6579
3.77017
3.76618
3.89912
3.94087
3.73386
3.98629
3.8199
3.99743
3.97724
3.69649
3.95678
3.5334
3.5537
3.61924
3.97613
3.95654
3.84019
3.90234
3.95702
3.96656
3.98659
3.65944
3.98097
3.83249
3.97742
3.88648
3.87315
3.79814
3.87331
3.88099
3.98866
3.95818
3.79488
3.99031
3.76654
3.71522
3.84729
3.95623
3.93725
3.77133
3.9937
3.94045
3.76423
3.96918
3.8592
3.85562
3.85206
3.85891
3.9662
3.76191
3.87971
3.96464
3.92309
3.9844
3.94212
3.87943
3.68187
3.90865
3.9008
3.71735
3.95755
3.94209
3.86995
3.88104
3.98257
3.82305
3.67629
3.99884
3.54526
3.92657
3.9072
3.92317
3.75521
3.7732
3.66999
3.94561
3.76613
3.74478
3.95247
3.82081
3.73999
3.9325
3.90349
3.49848
3.87207
3.70933
3.77214
3.91944
3.93716
3.75498
3.41913
3.91006
3.99027
3.90534
3.83942
3.99132
3.92835
3.91753
3.96047
3.93213
3.9653
3.96658
3.83829
3.94747
3.60214
3.96067
3.96077
3.99081
3.82994
3.9374
3.87081
3.85029
3.77344
3.88668
3.98091
3.75446
3.74205
3.97973
3.88814
3.82556
3.8686
3.94778
3.84853
3.44173
3.85876
3.85944
3.63881
3.93536
3.9522
3.5728
3.55364
3.97139
3.95361
3.74019
3.87045
4.00072
3.95578
3.78129
3.98837
3.83289
3.61306
3.8839
3.98669
3.95625
3.88169
3.65094
3.84967
3.98118
3.87277
3.9481
3.948
3.65717
3.87428
3.71757
3.94692
3.87492
3.85222
3.7299
3.9276
3.95256
3.94899
3.76336
3.85026
3.77814
3.6673
3.58935
3.80286
3.53888
3.91936
3.87963
3.93018
3.60232
3.71532
3.63324
3.94262
3.90987
3.81962
3.70296
3.58096
3.8654
3.80615
3.78484
3.82193
3.98628
3.99589
3.8683
3.82965
3.92734
3.54221
3.8184
3.97054
3.83043
3.82281
3.65328
3.98379
3.6983
3.93713
3.92999
3.77268
3.88165
3.72385
3.94624
3.91766
3.70299
3.55688
3.88041
3.94715
3.8098
3.91159
3.80276
3.89251
3.98224
3.50493
3.82975
3.83153
3.47685
3.55249
3.80669
3.82943
3.94697
3.96435
3.97856
3.88707
3.95621
3.97062
3.88871
3.84784
3.97525
3.54344
3.89711
3.93719
3.95323
3.90183
3.70555
3.87505
3.72936
3.9401
3.89805
3.51429
3.99495
3.90655
3.80052
3.95611
3.98984
3.78404
3.89423
3.99764
3.87162
3.95645
3.97065
3.99569
3.97055
3.79072
3.88843
3.94392
3.79135
3.98044
3.73221
3.85802
3.77143
3.8
3.98256
3.96422
3.96217
3.99599
3.9244
3.64917
3.90776
3.84088
3.70502
3.99135
3.93718
3.76354
3.93851
3.95868
3.83935
3.82636
3.76341
3.47848
3.99894
3.64789
3.60123
3.87273
3.99739
3.53416
3.9971
3.95439
3.97666
3.93277
3.97204
3.95757
3.9731
3.93003
3.85947
3.743
3.95768
3.85528
3.93779
3.96788
3.98528
3.79102
3.72799
3.76399
3.95992
3.7823
3.70484
3.72649
3.87843
3.73996
3.90806
3.89194
3.8349
3.63813
3.99955
3.77146
3.53944
3.95804
3.93074
3.88065
3.78138
3.8766
3.68883
3.95191
3.90674
3.99851
3.90369
3.74286
3.61457
3.91298
3.71395
3.85632
3.74991
3.60178
3.902
3.65268
3.68713
3.87911
3.79367
3.69898
3.88008
3.99142
3.58478
3.95239
3.88815
3.83998
3.84684
3.86969
3.97714
3.85939
3.76634
3.96998
3.9777
3.7687
3.81033
3.66057
3.63927
3.80055
3.86856
3.99183
3.98869
3.87002
3.62902
3.82012
3.94539
3.8889
3.97613
3.90812
3.90433
3.93979
3.81066
3.71817
3.90946
3.89987
3.72003
3.79457
3.81039
3.93767
3.81288
3.62894
3.77957
3.99881
3.94476
3.98153
3.7829
3.99921
3.86866
3.8022
3.91181
3.91908
3.93857
3.93975
3.60551
3.94707
3.90019
3.80535
3.77145
3.99451
3.96944
3.87041
3.8098
3.79191
3.49664
3.87698
3.8826
3.93711
3.91048
3.91452
3.91281
3.72605
3.80026
3.81959
3.62788
3.77706
3.91484
3.93406
3.82149
3.54341
3.63165
3.99367
3.73529
3.99235
3.85952
3.94693
3.91623
3.83026
3.93721
3.97539
3.98849
3.90409
3.77658
3.6362
3.99546
3.96162
3.98559
4.00013
3.89168
3.73859
3.97105
3.94425
3.67462
3.75568
3.73612
3.88901
3.86858
3.99369
3.78376
3.66855
3.97146
3.97065
3.56298
3.75264
3.99123
3.6773
3.92149
3.89746
3.94767
3.91803
3.54441
3.86963
3.86112
3.96189
3.96996
3.99739
3.90548
3.49134
3.61117
3.56223
3.88086
3.99428
3.92757
3.76194
3.77206
3.8198
3.82322
3.93679
3.86856
3.74423
3.98174
3.91336
3.94135
3.88717
3.97148
3.95626
3.94871
3.78048
3.58201
3.6286
3.96991
3.63197
3.96096
3.81967
3.85357
3.84899
3.92736
3.96442
3.88644
3.94804
3.91753
3.60144
3.89933
3.90839
3.86254
3.80471
3.7172
3.84318
3.99127
3.93837
3.59287
3.98113
3.80355
3.98283
3.79223
3.91752
3.80994
3.90115
3.99848
3.78107
3.924
3.84857
3.86597
3.91754
3.73482
3.86047
3.85939
3.93738
3.869
3.98107
3.97757
3.64418
3.76799
3.93409
3.92395
3.80061
3.96905
3.69583
3.78339
3.69782
3.47932
3.563
3.81831
3.81066
3.64774
3.95505
3.92739
3.70816
3.84919
3.91956
3.75238
3.75239
3.49559
3.61717
3.88894
3.98303
3.57354
3.56084
3.96389
3.79151
3.75377
3.56411
3.82066
3.8133
3.94338
3.92297
3.78157
3.68509
3.91064
3.91807
3.95816
3.96672
3.72397
3.89813
3.61112
3.88356
3.88878
3.84033
3.9646
3.89419
3.86516
3.95145
3.98098
3.76345
3.84986
3.59049
3.66105
3.82217
3.93711
3.59524
3.698
3.4788
3.86775
3.92746
3.90254
3.9669
3.87844
3.93187
3.8981
3.85241
3.87784
3.98264
3.96394
3.94465
3.8053
3.80022
3.76242
3.78114
3.98996
3.87937
3.72698
4.00002
3.94947
3.84034
3.5775
3.94279
3.82049
3.73377
3.80092
3.90408
3.7221
3.94927
3.75938
3.99144
3.84898
3.63904
3.65476
3.8991
3.88582
3.84723
3.91582
3.78096
3.87237
3.7696
3.9108
3.9622
3.94992
3.96228
3.9641
3.49185
3.98092
3.71938
3.952
3.6584
3.64069
3.91664
3.96474
3.97657
3.92737
3.8409
3.83944
3.67638
3.80668
3.77865
3.9941
3.82975
3.96421
3.98554
3.5256
3.79422
3.90773
3.87029
3.96325
3.83984
3.97071
3.99988
3.81235
3.79176
3.97675
3.66915
3.90806
3.84007
3.8863
3.98607
3.88209
3.82096
3.50601
3.94068
3.78108
3.76899
3.92744
3.66755
3.82227
3.76209
3.76657
3.96648
3.89212
3.86001
3.99245
3.63528
3.99368
3.78352
3.79742
3.99654
3.44001
3.6803
3.48202
3.92758
3.81047
3.90886
3.9574
3.72848
3.91893
3.99828
3.69675
3.96034
3.65776
3.95738
3.77216
3.74287
3.82671
3.99626
3.84929
3.5347
3.8
3.93948
3.94388
3.93416
3.95815
3.98128
3.95918
3.72006
3.85435
3.97644
3.95242
3.98336
3.7352
3.61015
3.98228
3.99435
3.95759
3.92965
3.97621
3.96979
3.6023
3.70007
3.53334
3.87565
3.48713
3.83049
3.91964
3.96406
3.93917
3.88064
3.99191
3.97776
3.96418
3.85779
3.81122
3.73898
3.96468
3.97046
3.98075
3.81726
3.73128
3.89278
3.70732
3.8686
3.7732
3.84397
3.99592
3.86728
3.8665
3.8416
3.95113
3.91494
3.44678
3.89794
3.84505
3.70509
3.96391
3.96169
3.69533
3.94139
3.84815
3.70285
3.98179
3.97132
3.96495
3.9764
3.98834
3.80008
3.97662
3.80043
3.84563
3.85599
3.80982
3.7812
3.87139
3.85131
3.80002
3.79082
3.87034
3.73632
3.88819
3.62924
3.80008
3.86877
3.53712
3.85153
3.92073
3.99378
3.94751
3.62149
3.71088
3.70962
3.84644
3.91997
3.66673
3.91813
3.84514
3.75338
3.91782
3.87855
3.97282
3.88257
3.93966
3.6774
3.78823
3.76129
3.98301
3.95778
3.62512
3.99653
3.8005
3.86275
3.98491
3.98222
3.93007
3.72944
3.67783
3.98739
3.85839
3.92673
3.80004
3.798
3.8684
3.96554
3.90386
3.80752
3.49904
3.99365
3.97781
3.59048
3.89417
3.70525
3.70025
3.71296
3.95711
3.99391
3.74549
3.96953
3.89804
3.82014
3.66816
3.69641
3.83818
3.80025
3.49621
3.8155
3.85218
3.80982
3.96432
3.94035
3.95079
3.98836
3.71857
3.9793
3.98947
3.99946
3.95669
3.9894
3.97699
3.56544
3.94988
3.96791
4.0001
3.99133
3.93543
3.49968
3.99167
3.8415
3.75006
3.96758
3.84903
3.86533
3.71829
3.95996
3.83402
3.91331
3.84849
3.63741
3.97106
3.90779
3.98495
3.4294
3.80842
3.89595
3.8585
3.5716
3.92732
3.89442
3.91453
3.90917
3.86627
3.92078
3.88512
3.60367
3.74292
3.41906
3.80237
3.9967
3.77393
3.89544
3.9916
3.92816
3.87969
3.98162
3.72868
3.71773
3.68869
3.83302
3.99164
3.76043
3.88362
3.93773
3.99129
3.73333
3.96665
3.94126
3.8947
3.84916
3.64771
3.91994
3.92893
3.85283
3.68867
3.81559
3.81355
3.6477
3.62928
3.74288
3.90773
3.84029
3.92736
3.95913
3.90998
3.593
3.96447
3.97626
3.61441
3.74016
3.9779
3.94767
3.65757
3.78097
3.84957
3.99369
3.49674
3.93878
3.99741
3.83067
3.96496
3.98492
3.54252
3.94554
3.86121
3.69883
3.98089
3.9471
3.89736
3.9769
3.97451
3.68493
3.62861
3.72422
3.87251
3.75953
3.87886
3.96401
3.97308
3.93571
3.75222
3.80988
3.86001
3.70575
3.84306
3.72188
3.87348
3.8884
3.82941
3.54398
3.78561
3.96233
3.80197
3.67777
3.59048
3.99156
3.58975
3.53775
3.86484
3.92582
3.50032
3.83701
3.90777
3.62069
3.58331
3.6191
3.74293
3.99739
3.92796
3.75425
3.87044
3.97191
3.94177
3.89287
3.92398
3.81166
3.88815
3.97232
3.64071
3.82743
3.81113
3.86192
3.97306
3.93246
3.95617
3.80984
3.68581
3.99945
3.89254
3.95195
3.91662
3.85886
3.91447
3.68585
3.95617
3.78046
3.92418
3.98877
3.75593
3.91042
3.79077
3.89906
3.82939
3.543
3.96285
3.53431
3.98675
3.75247
3.82202
3.94643
3.4796
3.90838
3.84972
3.79053
3.83001
3.73635
3.78438
3.88519
3.77143
3.79352
3.84113
3.82932
3.92041
3.97034
3.97229
3.67464
3.86926
3.89921
3.5921
3.94762
3.68013
3.97751
3.70178
3.98161
3.56233
3.96013
3.95264
3.62675
3.50697
3.63425
3.89063
3.80587
3.97378
3.93712
3.64783
3.99124
3.83932
3.99995
3.98095
3.96395
3.68624
3.82571
3.72611
3.59438
3.87001
3.81983
3.88974
3.96716
3.88895
3.96753
3.63776
3.85166
3.90112
3.84618
3.90745
3.72382
3.97829
3.96241
3.9561
3.90141
3.82476
3.95322
3.83833
3.7833
3.70075
3.96605
3.95622
3.9842
3.7729
3.84583
3.84937
3.89778
3.95676
3.97649
3.46077
3.7862
3.95724
3.51463
3.99461
3.73167
3.98151
3.98153
3.97135
3.96644
3.97419
3.98906
3.56838
3.90997
3.57911
3.54166
3.85041
3.84799
3.81968
3.84178
3.9709
3.90276
3.68824
3.89839
3.61444
3.67794
3.90419
3.84902
3.91465
3.98435
3.58222
3.76316
3.93693
3.75445
3.84035
3.82949
3.89958
3.79873
3.75391
3.62657
3.95609
3.85051
3.95929
3.92008
3.85591
3.95067
3.9778
3.94006
3.87066
3.96743
3.99227
3.95925
3.97152
3.99378
3.75266
3.58191
3.94944
3.95699
3.8232
3.83958
3.47548
3.85827
3.97651
3.97621
3.62435
3.71986
3.96615
3.94768
3.95969
3.66761
3.8364
3.80046
3.9914
3.78128
3.91684
3.9278
3.62874
3.94486
3.97068
3.9825
3.94559
3.99047
3.97674
3.58299
3.87838
3.86113
3.86719
3.94048
3.98265
3.97092
3.83387
3.86648
3.95786
3.6193
3.85185
3.95494
3.84691
3.76198
3.81978
3.83876
3.781
3.98504
3.90269
3.95032
3.98187
3.6552
3.84017
3.80005
3.6748
3.52458
3.76863
3.53417
3.68574
3.8407
3.89845
3.95333
3.87807
3.71431
3.89294
3.96499
3.98447
3.63923
3.67736
3.81419
3.86004
3.88053
3.91955
3.90822
3.85148
3.95896
3.89409
3.61027
3.86261
3.94773
3.51515
4.00031
3.83504
3.78952
3.96477
3.71429
3.96392
3.88823
3.99526
3.80863
3.92421
3.76902
3.85541
3.94881
4.00001
3.80301
3.93747
3.97834
3.94072
3.99406
3.86024
3.96622
3.97056
3.8037
3.87429
3.85232
3.87836
3.63844
3.89817
3.86226
3.82581
3.96697
3.95855
3.80622
3.80915
3.8006
3.83949
3.77143
3.91778
3.99594
3.97082
3.72345
3.65829
3.92599
3.95364
3.72994
3.78208
3.64752
3.97631
3.7435
3.96652
3.83256
3.83032
3.97077
3.95429
3.94055
3.72382
3.83143
3.99194
3.92245
3.61376
3.74014
3.91301
3.97045
3.94462
3.791
3.83165
3.62952
3.99343
3.88883
3.99291
3.94402
3.96411
3.98943
3.95787
3.99571
3.77143
3.66122
3.97611
3.93328
3.98541
3.86929
3.87208
3.82938
3.98134
3.7708
3.80979
3.55483
3.52433
3.92549
)


// ************************************************************************* //
