/*--------------------------------*- C++ -*----------------------------------*\
| =========                 |                                                 |
| \\      /  F ield         | OpenFOAM: The Open Source CFD Toolbox           |
|  \\    /   O peration     | Version:  plus.master                           |
|   \\  /    A nd           | Web:      www.OpenFOAM.com                      |
|    \\/     M anipulation  |                                                 |
\*---------------------------------------------------------------------------*/
FoamFile
{
    version     2.0;
    format      ascii;
    class       volScalarField;
    location    "4.4";
    object      k;
}
// * * * * * * * * * * * * * * * * * * * * * * * * * * * * * * * * * * * * * //

dimensions      [0 2 -2 0 0 0 0];

internalField   nonuniform List<scalar> 
47285
(
0.000206424
0.00035157
0.001324
0.00252829
0.00127991
0.000328372
0.0001852
0.000352665
0.00146925
0.00816619
0.0148116
0.00808406
0.00147912
0.000334569
0.00125972
0.00788286
0.0103568
0.036866
0.0111678
0.00893663
0.00146693
0.00200127
0.0120637
0.0317313
0.031495
0.0354249
0.0176743
0.00295022
0.000981933
0.00653795
0.00939163
0.0304898
0.00978014
0.00802089
0.00130504
0.00029354
0.0013106
0.00818836
0.0139688
0.00714126
0.00125756
0.00029719
0.000198258
0.000345979
0.00139046
0.00242288
0.00110578
0.000287818
0.000179259
0.000872602
0.0014899
0.00440534
0.0088957
0.00449318
0.0013922
0.000776316
0.00146353
0.00576545
0.0198762
0.0429751
0.0221184
0.00599688
0.00130425
0.00399598
0.0176796
0.0332829
0.0880701
0.0401998
0.0218416
0.00396289
0.00622416
0.0278173
0.0983476
0.0855936
0.0828709
0.0502381
0.00785905
0.00319979
0.0143124
0.0279355
0.0967517
0.0345368
0.0176215
0.00310154
0.00126013
0.0042652
0.0137957
0.025389
0.01421
0.00401131
0.00109827
0.000833352
0.00129333
0.00322832
0.00492983
0.00286301
0.00114302
0.000758447
0.00216259
0.00349431
0.00908405
0.0170026
0.00830108
0.00295373
0.00194039
0.00349753
0.0124238
0.0363819
0.0710075
0.0367806
0.0100941
0.00271684
0.008555
0.0325213
0.0688388
0.115035
0.0770209
0.0306268
0.00589151
0.0131212
0.0505181
0.13387
0.11815
0.111914
0.0634439
0.0102188
0.00698712
0.0250273
0.0574784
0.150228
0.0645919
0.0225378
0.00474117
0.0029912
0.00849605
0.0209317
0.0343141
0.0196815
0.0064326
0.00238411
0.00207834
0.00294471
0.00582752
0.00804184
0.00502855
0.00251358
0.00190207
0.00438642
0.00598975
0.0124211
0.0214249
0.0105863
0.00501512
0.00402396
0.00606851
0.0176685
0.0463627
0.0826475
0.0408781
0.0119697
0.00467362
0.012579
0.0436778
0.0918539
0.110488
0.0940244
0.0296978
0.00719357
0.0186434
0.0658159
0.132065
0.127744
0.118917
0.0507905
0.00995199
0.0107642
0.0341346
0.0775893
0.161335
0.0721615
0.0226978
0.00639759
0.00548826
0.0128866
0.0276396
0.0401291
0.0231237
0.00876436
0.00442062
0.00425547
0.00534474
0.00873024
0.0111576
0.00746596
0.00463654
0.00396493
0.00523309
0.00676872
0.0124798
0.0196424
0.0105134
0.00581894
0.00487573
0.00686729
0.0181581
0.0453858
0.0779484
0.0368418
0.0116736
0.00547526
0.013448
0.045551
0.0961903
0.104536
0.0881513
0.0261084
0.00753845
0.0203319
0.0706668
0.120879
0.120687
0.121913
0.0368239
0.00937528
0.0121306
0.0378018
0.0832792
0.146732
0.0647986
0.0215043
0.00715073
0.00652411
0.0147446
0.0305841
0.041251
0.0240201
0.00981696
0.00537182
0.00512475
0.00640251
0.0100952
0.0126452
0.00866904
0.00564294
0.00482342
0.000169524
0.000169547
0.000166207
0.000161644
0.000157211
0.000153514
0.000150326
0.000147259
0.000192793
0.000171634
0.000167847
0.00016241
0.000157291
0.000153325
0.000149991
0.0001466
0.000440624
0.000214453
0.000171797
0.000160951
0.000155155
0.000151364
0.000148273
0.000144926
0.000806566
0.000276894
0.000178088
0.000160728
0.000153533
0.000149152
0.000145755
0.000141565
0.000400161
0.000205231
0.000169479
0.000160973
0.000154501
0.000150986
0.00014845
0.000144454
0.000181711
0.000170299
0.000168309
0.000162568
0.000157155
0.00015223
0.000148029
0.000144343
0.00016671
0.000168106
0.000164537
0.000159694
0.000156184
0.000152053
0.000148034
0.000144441
0.000686402
0.000650112
0.000611827
0.000571826
0.000533624
0.000499192
0.000468928
0.000442382
0.000716056
0.000647212
0.000609896
0.000570348
0.000530352
0.000493406
0.000460589
0.000431973
0.000883608
0.000643843
0.000607048
0.000573508
0.000535038
0.000496763
0.000461198
0.000429963
0.00112321
0.000648698
0.000607324
0.000577172
0.000540288
0.000502231
0.000466037
0.000433741
0.000821434
0.000644308
0.00060986
0.000575298
0.000536268
0.000497724
0.000461917
0.00043024
0.000707844
0.000653283
0.000615262
0.00057457
0.000534096
0.000496732
0.000463491
0.000434178
0.000691436
0.000656552
0.000617821
0.000577839
0.000539495
0.000504804
0.000474051
0.000446665
0.00179179
0.00174972
0.00168191
0.00158126
0.00145283
0.00130418
0.0011451
0.000988142
0.00182214
0.00172898
0.0016707
0.00158168
0.00145955
0.00131143
0.00114774
0.000982762
0.00201055
0.00169759
0.00164783
0.00157778
0.0014673
0.00132314
0.00115725
0.000986058
0.00224621
0.00168615
0.00163792
0.00157707
0.00147206
0.00132988
0.00116331
0.000989628
0.0019316
0.00169399
0.00164859
0.00157864
0.00146866
0.00132523
0.00116001
0.000989089
0.00179769
0.00172674
0.00167076
0.00158279
0.00146211
0.00131548
0.00115281
0.000987867
0.00178918
0.00174846
0.00168114
0.00158158
0.00145467
0.00130771
0.00115002
0.000993603
0.00382153
0.00369913
0.00349408
0.00323553
0.0029685
0.00272704
0.00251889
0.00231074
0.00382724
0.00369687
0.00352336
0.00327627
0.00299992
0.00274128
0.00252055
0.00230758
0.0039282
0.00364351
0.00350985
0.00329453
0.00302642
0.00276232
0.00253442
0.00231775
0.00405191
0.00360956
0.00349655
0.0032995
0.00303784
0.0027729
0.00254225
0.00232369
0.0038711
0.0036334
0.00350306
0.00328969
0.00302412
0.00276262
0.00253715
0.00232268
0.00379539
0.00367756
0.00350733
0.00326446
0.00299287
0.00273889
0.00252257
0.00231389
0.00379041
0.00366753
0.00346628
0.00321336
0.0029525
0.00271732
0.00251558
0.0023145
0.00459685
0.00440363
0.00414421
0.00383098
0.00346707
0.00302551
0.00248126
0.00189937
0.00464462
0.00442616
0.00417578
0.00386478
0.00350677
0.0030812
0.00255023
0.0019625
0.00475831
0.0044051
0.0041835
0.00389647
0.00355268
0.0031399
0.00261513
0.00201855
0.00485672
0.00438271
0.0041789
0.00390761
0.00357175
0.00316414
0.00264181
0.00204223
0.0047367
0.00439603
0.00417278
0.00388628
0.00354479
0.00313558
0.00261531
0.00202324
0.00462177
0.00439831
0.00414611
0.00383735
0.00348446
0.00306641
0.00254475
0.00196671
0.00454842
0.00434615
0.00408421
0.00377281
0.00341495
0.00298427
0.00245557
0.00189151
0.000182084
0.000181986
0.000179761
0.000173871
0.000168763
0.000164274
0.00015988
0.000156298
0.000197463
0.000186644
0.000185805
0.00017936
0.000175197
0.000172467
0.0001686
0.000166229
0.000338169
0.000224298
0.000208087
0.000205086
0.000197576
0.0001884
0.000183451
0.000180039
0.000553786
0.000261618
0.00021575
0.000207492
0.000203117
0.000198712
0.000194647
0.000191023
0.00041464
0.000248984
0.000216606
0.000205033
0.00020252
0.000197157
0.000190992
0.000187228
0.0002193
0.00019591
0.000195235
0.000189174
0.00018368
0.000178731
0.000174741
0.0001729
0.00019009
0.000191389
0.000187945
0.000181613
0.000176264
0.00017166
0.000167251
0.00016408
0.000769525
0.000730314
0.000687408
0.000642325
0.000598866
0.000558967
0.00052349
0.000491986
0.00082846
0.000771929
0.00073601
0.000694702
0.000650419
0.000605917
0.000564346
0.000526845
0.000987304
0.000799311
0.000769908
0.000739583
0.000701663
0.000661701
0.00062199
0.0005843
0.00127439
0.000807031
0.00077455
0.000751213
0.000719406
0.000684123
0.000649023
0.000615676
0.00106539
0.000809274
0.000776908
0.000748561
0.000712371
0.000672635
0.000633544
0.000596235
0.000857534
0.000788458
0.000751394
0.000709663
0.000664213
0.000618758
0.000576013
0.000537299
0.000788174
0.000747387
0.000703596
0.00065708
0.00061177
0.000569993
0.000532656
0.000499623
0.00194325
0.00189561
0.00182185
0.0017123
0.00157218
0.00140961
0.0012351
0.00106218
0.00204291
0.00194152
0.00188438
0.00179147
0.00165897
0.00149429
0.00130904
0.00111932
0.00242586
0.00197129
0.0019156
0.00184754
0.00173423
0.0015799
0.00139559
0.00119833
0.00317319
0.00199849
0.00191503
0.00186005
0.00175918
0.00161515
0.00143944
0.00124897
0.00258318
0.00198932
0.00192484
0.00185641
0.00174239
0.00158699
0.00140164
0.00120343
0.00210394
0.00196881
0.00190713
0.0018113
0.0016754
0.00150702
0.00131814
0.00112543
0.00197934
0.00192977
0.00185376
0.00174018
0.00159485
0.00142652
0.00124637
0.00106875
0.00401222
0.00387146
0.00365111
0.00337399
0.00308723
0.00282742
0.00260366
0.00238224
0.00416606
0.00396973
0.00377794
0.00350977
0.00320763
0.0029232
0.00268058
0.0024496
0.00468914
0.00401682
0.00383694
0.00359838
0.00330004
0.00300265
0.0027451
0.00250426
0.00562552
0.00406149
0.00385084
0.00363296
0.0033461
0.0030537
0.0028023
0.00257303
0.00487398
0.00404818
0.00385476
0.00361179
0.0033089
0.00300724
0.0027461
0.00250238
0.00425389
0.00401894
0.0038174
0.00353995
0.00322822
0.00293486
0.00268407
0.00244516
0.00408316
0.0039383
0.00370904
0.00342009
0.00312075
0.00284867
0.00261312
0.00237986
0.00476462
0.00454044
0.00425165
0.00390727
0.00351307
0.00304368
0.00247494
0.00187411
0.00499794
0.0046852
0.00439988
0.00405313
0.00365632
0.00318942
0.00261233
0.00197675
0.00560042
0.0047833
0.00449252
0.0041597
0.00376089
0.00328502
0.00269007
0.00202622
0.00655027
0.00485937
0.00453678
0.00422371
0.0038406
0.00337939
0.00279466
0.00212908
0.00572316
0.0048124
0.00451489
0.00417894
0.0037764
0.00329662
0.00269743
0.00202943
0.00506407
0.00473816
0.00444815
0.00409376
0.0036876
0.00321024
0.00262206
0.00197636
0.00484576
0.00462483
0.00433182
0.00397928
0.00357396
0.00308992
0.00250291
0.00188299
0.000192425
0.000192849
0.000188281
0.000183581
0.000178091
0.000172967
0.000168184
0.000164572
0.000215884
0.000198217
0.000192957
0.000186102
0.000180513
0.000175808
0.000171673
0.000167686
0.000425473
0.000243678
0.000210699
0.00019993
0.000191362
0.00018294
0.000176824
0.000171329
0.000684524
0.000284208
0.000215636
0.000201855
0.000195469
0.00018932
0.000183509
0.000177809
0.000407533
0.000232448
0.000202687
0.000193938
0.000185106
0.000176504
0.000170342
0.000165294
0.000200984
0.000183112
0.000178047
0.000171441
0.000166791
0.000164572
0.000161586
0.000158489
0.000174132
0.000175958
0.000173336
0.000169516
0.00016544
0.000161717
0.000158208
0.000154542
0.000797784
0.000756049
0.000710573
0.000661671
0.000614075
0.000570502
0.000531995
0.000498443
0.000885779
0.00081745
0.0007794
0.00073442
0.000684986
0.000634823
0.000587003
0.000542699
0.00113631
0.000857348
0.000825726
0.000796301
0.000756858
0.000712178
0.000665449
0.000619091
0.00152929
0.000853387
0.000816638
0.000796622
0.000765151
0.000726639
0.000685267
0.000643405
0.00109834
0.000820816
0.000791289
0.000762994
0.000725175
0.000682187
0.000637428
0.000592905
0.000817042
0.000757237
0.000724666
0.000684907
0.0006409
0.000595735
0.000552223
0.000512237
0.000722572
0.000686568
0.00064672
0.000603923
0.000562498
0.000524742
0.000491458
0.000462372
0.00198117
0.00193811
0.00186727
0.00175822
0.00161616
0.00144917
0.00126814
0.00108766
0.00211296
0.00199551
0.00194766
0.00186474
0.00174015
0.00157912
0.00139134
0.00119227
0.00259256
0.00202107
0.0019808
0.00193514
0.00184372
0.0017081
0.00153556
0.00133908
0.00334314
0.00200514
0.00194896
0.00192165
0.00184635
0.001725
0.0015654
0.00137983
0.0024361
0.00195186
0.00192117
0.00187984
0.00179256
0.00166097
0.00149238
0.00129991
0.00196392
0.00188586
0.00184911
0.00177585
0.0016616
0.00151131
0.00133438
0.00114584
0.00183543
0.00180319
0.00174223
0.00164556
0.00151778
0.00136606
0.00120044
0.00103451
0.00409558
0.00397038
0.00375374
0.00347343
0.00317858
0.00290786
0.00267188
0.00243711
0.00426253
0.00408186
0.00391719
0.00366724
0.00337178
0.0030851
0.00283686
0.00260181
0.0047759
0.00409911
0.00397583
0.00378361
0.00351413
0.0032286
0.00297373
0.00273781
0.00553637
0.00406909
0.0039483
0.0037931
0.00354722
0.00327256
0.00302141
0.00278652
0.00450965
0.00400671
0.003906
0.00372469
0.00346587
0.00319045
0.002944
0.00271423
0.00403255
0.00393207
0.00379165
0.00356204
0.00328657
0.00301774
0.00278382
0.00255946
0.0038851
0.00378568
0.00359262
0.00333876
0.00307044
0.00282386
0.00260868
0.00239219
0.00488888
0.00468978
0.00441247
0.00407253
0.00367506
0.00319313
0.00260045
0.00196477
0.00513118
0.0048807
0.00464893
0.00434951
0.00399104
0.00354628
0.002962
0.00228312
0.00564885
0.00497281
0.00477664
0.00452997
0.00421576
0.00381913
0.00327919
0.00263138
0.00627967
0.00497788
0.00477996
0.00456135
0.00427516
0.00392102
0.00344211
0.00285879
0.0053957
0.00488601
0.00471266
0.00447972
0.00417986
0.00379743
0.00327089
0.00263365
0.00491038
0.00473785
0.00453285
0.00425694
0.00392109
0.00349802
0.00293561
0.00227743
0.00468535
0.00451623
0.0042687
0.00396025
0.00359375
0.00314254
0.00258092
0.00197309
0.000173228
0.000174616
0.000172015
0.000167562
0.000163726
0.000159662
0.000155604
0.000151023
0.00020119
0.000188392
0.000181659
0.000176912
0.000172952
0.000167884
0.000162972
0.000159272
0.000394925
0.000240674
0.000203152
0.000194659
0.000190877
0.000186669
0.000180454
0.000175509
0.000727356
0.000314566
0.000228146
0.000210964
0.000201418
0.000194521
0.000188406
0.000183456
0.00048196
0.000270784
0.000221775
0.000209105
0.000200466
0.000193195
0.000187012
0.000180396
0.000230294
0.000205808
0.000192406
0.000184453
0.00017802
0.00017332
0.000168247
0.000165268
0.000186524
0.000185327
0.000180031
0.000174375
0.000169043
0.000164097
0.000159695
0.000156059
0.000720042
0.000686166
0.000648067
0.00060757
0.000568261
0.000532171
0.000499734
0.000470575
0.000788981
0.000741048
0.000709842
0.000672961
0.000632575
0.00059228
0.00055398
0.000518343
0.000960613
0.000784327
0.000759272
0.000733092
0.000699157
0.000661039
0.000622986
0.000585979
0.00119783
0.000808344
0.000777463
0.000758324
0.000730697
0.000697768
0.000663302
0.000628951
0.00103277
0.000807673
0.000777289
0.000750365
0.000716216
0.000678601
0.000640446
0.000603148
0.000838539
0.000777297
0.000741855
0.000701449
0.00065794
0.000614486
0.000573008
0.000535062
0.000769713
0.000731394
0.000689656
0.000645567
0.000602763
0.000563265
0.000527755
0.000495999
0.00183286
0.00179763
0.00173511
0.00163822
0.0015114
0.0013617
0.00119867
0.00103519
0.0019261
0.00186274
0.00182264
0.00174679
0.00163155
0.00148229
0.00130863
0.00112568
0.00220774
0.00191144
0.00188075
0.00183306
0.00174012
0.00160381
0.00143268
0.00124183
0.00258835
0.00193975
0.00189819
0.00186524
0.00178596
0.00166069
0.00149826
0.0013136
0.00234064
0.00195091
0.00190905
0.00185825
0.0017631
0.00162456
0.00145106
0.00125781
0.00203263
0.00193205
0.00188268
0.00180023
0.00167808
0.00152138
0.00134016
0.00115009
0.00193789
0.0018929
0.00182287
0.00171719
0.00158035
0.00141989
0.00124605
0.0010724
0.00384998
0.00373526
0.00353851
0.00328639
0.00302313
0.00278342
0.00257595
0.00236806
0.00396815
0.00385663
0.00370347
0.00346994
0.00319797
0.00293729
0.00271235
0.0024943
0.00427846
0.0039189
0.00379827
0.00360131
0.00333875
0.00306871
0.00283067
0.00260388
0.00470583
0.00394861
0.00382803
0.0036552
0.00340678
0.00314394
0.00291424
0.00270273
0.00447033
0.00397917
0.00384021
0.00363587
0.00336682
0.00309099
0.00284846
0.00261853
0.00413817
0.00396193
0.0037896
0.00354085
0.00325409
0.00298014
0.0027443
0.00251751
0.00401176
0.00387569
0.00366049
0.00338798
0.00310447
0.00284657
0.00262371
0.00240241
0.00460827
0.00441097
0.0041487
0.00383213
0.00346469
0.00302105
0.00247722
0.00189798
0.00482025
0.00459311
0.00434802
0.00403758
0.00367131
0.00322687
0.00266306
0.00203136
0.0052382
0.00472448
0.00448765
0.00419467
0.0038301
0.00337879
0.002796
0.00213224
0.00574311
0.00479859
0.00455348
0.00428545
0.00394617
0.00352308
0.00296569
0.00231245
0.00543942
0.00478894
0.00453409
0.00423372
0.00386239
0.00340418
0.00281362
0.00214127
0.00499767
0.00470241
0.00443591
0.00410735
0.0037228
0.00325984
0.00267693
0.0020275
0.00477385
0.00455216
0.00426677
0.00392513
0.00353239
0.00306289
0.00249195
0.00188714
0.0001443
0.000143676
0.00014232
0.000138032
0.000141466
0.000141196
0.000140997
0.00041864
0.000407141
0.00040319
0.000405669
0.000403064
0.000408327
0.000421825
0.000848224
0.00083588
0.000832735
0.000833455
0.000835426
0.000839879
0.000853006
0.00202905
0.00201316
0.00201328
0.00201527
0.00202026
0.00202403
0.00204108
0.00130451
0.00130985
0.00131929
0.00132599
0.00132692
0.00132162
0.0013124
0.000153133
0.000164541
0.000177492
0.000187838
0.000184621
0.000172027
0.000161674
0.000463408
0.000492968
0.000549601
0.000584693
0.000561747
0.000502633
0.000469981
0.000906791
0.000947593
0.00101549
0.00107159
0.00102
0.00095186
0.000910247
0.00208679
0.00213503
0.00217551
0.00225861
0.00217139
0.00212256
0.00207228
0.00127024
0.00128453
0.00128172
0.00135744
0.00128147
0.00127706
0.00126346
0.000161784
0.000163488
0.000166328
0.000172433
0.000160508
0.000156272
0.000151127
0.000468742
0.000503057
0.00057587
0.000604082
0.000551301
0.0004761
0.000436334
0.000924787
0.00100588
0.00114577
0.00119643
0.00111043
0.00096864
0.000884226
0.00212549
0.00228556
0.00242926
0.00247733
0.00240932
0.00225185
0.00209865
0.00131812
0.00150913
0.00183896
0.00209991
0.00184473
0.0015185
0.00134492
0.000146463
0.000156052
0.000171282
0.000179282
0.00017515
0.000163642
0.000152733
0.00044382
0.000485247
0.000551143
0.00059623
0.000568062
0.00050012
0.000466923
0.000886495
0.000955828
0.00105844
0.00113493
0.00107218
0.000974358
0.000915084
0.00208513
0.00218816
0.00228516
0.00240535
0.00229727
0.00220335
0.00210572
0.00130671
0.00133172
0.00137402
0.00152918
0.00137499
0.00131573
0.00127787
0.000141601
0.000139142
0.00013863
0.000134938
0.000128848
0.000121455
0.000113312
0.000104546
0.000141328
0.000136064
0.000132971
0.000129537
0.000123994
0.000117115
0.000109398
0.000101014
0.000140399
0.000136274
0.000131938
0.000126804
0.000120819
0.000114222
0.000106871
9.88519e-05
0.000136061
0.000133822
0.000130557
0.000126868
0.000120106
0.000112235
0.00010466
9.69148e-05
0.000139437
0.000135447
0.000131276
0.000125823
0.000119832
0.00011336
0.00010612
9.81881e-05
0.000138433
0.000132929
0.000130202
0.000127051
0.000121779
0.000115128
0.000107607
9.94066e-05
0.000137789
0.000134576
0.000134486
0.000131239
0.000125496
0.000118375
0.000110462
0.000101936
0.000393786
0.000360583
0.000323736
0.000288086
0.000256577
0.000229182
0.000204813
0.000182415
0.000383136
0.000350969
0.000317435
0.000283318
0.00025265
0.000225613
0.000201388
0.00017912
0.000378433
0.000345629
0.000312816
0.000279995
0.000249986
0.000223352
0.000199424
0.00017739
0.000379964
0.000345854
0.000313525
0.00028037
0.000249775
0.00022284
0.000198794
0.000176777
0.000377797
0.00034482
0.000311545
0.000278886
0.000248775
0.000222129
0.000198261
0.000176339
0.000382955
0.000349403
0.000315106
0.000280888
0.00025009
0.000223033
0.000198903
0.000176822
0.000395477
0.000359889
0.000321839
0.000285456
0.000253351
0.000225535
0.000200963
0.00017859
0.000719203
0.000596538
0.000492625
0.000405449
0.000337182
0.000284697
0.000243591
0.0002103
0.000708218
0.000586418
0.000487065
0.000402953
0.000335937
0.000283662
0.000242339
0.000208793
0.000703986
0.000581149
0.000484413
0.000401982
0.000335585
0.00028343
0.00024203
0.000208358
0.000703491
0.000579187
0.000483782
0.000402153
0.000335763
0.000283396
0.000241856
0.000208129
0.000705662
0.000580657
0.000484229
0.000401881
0.000335281
0.000282924
0.000241408
0.000207712
0.00070995
0.000583987
0.000485549
0.000401981
0.000334831
0.00028228
0.000240775
0.000207186
0.000721643
0.000593743
0.000491418
0.000405001
0.0003363
0.000283049
0.000241323
0.000207722
0.00165067
0.00109802
0.000710523
0.000498413
0.00037833
0.000303342
0.00025205
0.000214332
0.00163831
0.00109507
0.000711032
0.000499915
0.000379926
0.00030454
0.000252669
0.000214449
0.00163968
0.00110005
0.000714948
0.000502304
0.000381385
0.000305407
0.0002531
0.000214554
0.00164231
0.00110396
0.000717604
0.000503754
0.000382154
0.000305806
0.000253302
0.000214656
0.00164861
0.00110829
0.000719446
0.00050419
0.000382008
0.000305463
0.000252908
0.000214267
0.00165327
0.00110902
0.000718361
0.000502655
0.000380503
0.000304163
0.000251876
0.0002135
0.0016687
0.00111606
0.000720741
0.00050297
0.000379948
0.000303355
0.000251137
0.00021296
0.00122751
0.00102982
0.000709564
0.000498812
0.000371702
0.00029302
0.000241624
0.000205814
0.00123018
0.0010341
0.00071536
0.000504296
0.000376139
0.000296114
0.000243498
0.000206859
0.00123559
0.00103924
0.000719294
0.000506822
0.000377598
0.00029688
0.000243806
0.000206868
0.0012405
0.00104328
0.00072222
0.000508859
0.000378981
0.000297788
0.000244392
0.000207255
0.00124331
0.0010449
0.000722494
0.000508521
0.000378442
0.000297233
0.00024389
0.00020682
0.00124288
0.00104344
0.000720483
0.000506756
0.00037709
0.000296271
0.000243248
0.000206417
0.00123925
0.00103889
0.000715491
0.000502264
0.000373345
0.000293292
0.000240993
0.000204772
0.000150749
0.000150529
0.000150115
0.00014516
0.00013754
0.000128656
0.000119258
0.000109389
0.000163337
0.000161116
0.000158661
0.000152409
0.000143303
0.000133371
0.000122695
0.000111934
0.00017561
0.000174161
0.000172274
0.000166143
0.000157822
0.000148775
0.000138295
0.000125289
0.000185172
0.000180942
0.000177348
0.000173128
0.00016404
0.000151902
0.000137078
0.000124314
0.000182842
0.000181018
0.000178569
0.000171505
0.000161769
0.000151512
0.000140821
0.000127485
0.000170543
0.000167559
0.000163713
0.000156398
0.000146985
0.000136593
0.00012542
0.000114081
0.000159361
0.000159379
0.000156955
0.000150601
0.000142017
0.000132435
0.000122473
0.000112069
0.000432819
0.000391772
0.000346305
0.000303485
0.000266256
0.000234637
0.000207414
0.000183226
0.00045879
0.000413307
0.000366544
0.000320651
0.000279981
0.000244059
0.000212532
0.000184494
0.000513604
0.000465501
0.000416344
0.000369815
0.000328257
0.000290933
0.000256139
0.000223342
0.000552209
0.000508863
0.000464614
0.000420004
0.000378179
0.000339747
0.0003021
0.000261546
0.000525606
0.000476635
0.000425909
0.000377852
0.000335189
0.000297542
0.000261773
0.000227637
0.000467568
0.000422791
0.000374653
0.000328109
0.000286524
0.000249902
0.000217525
0.000188709
0.000438683
0.000396492
0.000350117
0.000307137
0.000270059
0.000238566
0.000211248
0.000186776
0.000761217
0.00062253
0.000506161
0.00041026
0.000336446
0.000280784
0.000238212
0.000204589
0.000792999
0.000645694
0.000525956
0.000426931
0.000349637
0.000290536
0.000244909
0.000208847
0.000850411
0.000689349
0.000566375
0.000465607
0.000386309
0.000325072
0.000276836
0.000237645
0.00091049
0.000753518
0.000644817
0.000554392
0.000481437
0.000423775
0.000375995
0.000331704
0.000854483
0.000693513
0.000569351
0.000467813
0.00038819
0.000326862
0.000278629
0.000239197
0.00079641
0.00065009
0.000528681
0.000429035
0.000351958
0.000293234
0.000247873
0.000211905
0.000762736
0.000625686
0.000506495
0.000409563
0.000336208
0.000281396
0.000239515
0.000206267
0.00168972
0.0011118
0.000710205
0.000492034
0.000369756
0.000294387
0.00024369
0.00020707
0.00173021
0.00114492
0.000734295
0.00050961
0.00038326
0.000305247
0.000252827
0.000215181
0.00176412
0.00117058
0.000750378
0.000520811
0.000394587
0.000319882
0.000272374
0.000238886
0.00186427
0.00129074
0.00087377
0.000647416
0.000530246
0.000468986
0.000435463
0.000405111
0.00175822
0.00116589
0.000749065
0.000522105
0.000397535
0.00032403
0.000277484
0.000244479
0.00171392
0.00113103
0.000727429
0.000507321
0.000383167
0.000306233
0.000254384
0.000217034
0.00166767
0.0010907
0.000697702
0.000485731
0.000366803
0.000293336
0.000243774
0.000207776
0.00119112
0.000997805
0.000686343
0.000481814
0.000358892
0.000283236
0.000234252
0.000200415
0.00119681
0.00100434
0.000693469
0.000488529
0.000365314
0.000289635
0.000240828
0.000207305
0.00118686
0.000993228
0.000684368
0.000483727
0.000367749
0.000302525
0.000266251
0.000244445
0.00125921
0.00107593
0.000775698
0.000587885
0.000493777
0.000463493
0.000480798
0.00052012
0.00118651
0.000994918
0.000687947
0.000488422
0.000373091
0.000308253
0.00027269
0.00025194
0.00118721
0.000997976
0.000690325
0.000487379
0.000365227
0.000290083
0.000241542
0.000208129
0.00117967
0.000988884
0.000680442
0.000478322
0.000357083
0.000282616
0.000234417
0.000200997
0.000158922
0.000156909
0.000156291
0.00015102
0.000142963
0.000133735
0.00012411
0.000113989
0.000161203
0.000158176
0.000153618
0.000148813
0.000140247
0.000130448
0.000120566
0.000110673
0.000161896
0.000154858
0.000148024
0.000141432
0.000133366
0.000124662
0.000115596
0.000106026
0.000167385
0.000159168
0.000152001
0.000144102
0.000134469
0.000124439
0.00011606
0.00010871
0.000156303
0.000149785
0.000143732
0.000137187
0.000129712
0.00012159
0.000113097
0.000104184
0.000153858
0.000149899
0.000145566
0.000141403
0.000134736
0.000126237
0.000117245
0.000108111
0.000147895
0.000143833
0.000143758
0.000140442
0.000134122
0.000126395
0.000118014
0.000109007
0.000437751
0.000398268
0.000352342
0.000308268
0.000270005
0.000238061
0.000210965
0.000186949
0.000462527
0.000410309
0.00036363
0.000316016
0.000274043
0.000238621
0.000209204
0.000184074
0.000528628
0.000467517
0.000411914
0.000360967
0.000315648
0.00027466
0.000237485
0.000203118
0.00056
0.000501853
0.000446234
0.000394461
0.000348004
0.000305296
0.000265229
0.000228446
0.000506069
0.000447215
0.000393015
0.000343962
0.000300033
0.00026084
0.000225686
0.000193469
0.000439129
0.000392646
0.000348294
0.0003053
0.000265732
0.00023216
0.000204183
0.000180345
0.000409256
0.00037472
0.000335282
0.000296139
0.000261389
0.000231769
0.000206284
0.000183498
0.000772596
0.000632079
0.0005107
0.000411812
0.000337266
0.000282126
0.000240477
0.0002076
0.000830481
0.000661385
0.000535852
0.000433627
0.000355007
0.000297004
0.000254329
0.000221426
0.000951096
0.000742674
0.000591926
0.000479007
0.00039151
0.000322861
0.00026837
0.00022329
0.00100876
0.00080495
0.000657443
0.000548616
0.000464405
0.000396807
0.000340673
0.000291951
0.000921136
0.000719164
0.0005733
0.000463581
0.000378283
0.000311576
0.000258947
0.000216112
0.000802442
0.000640187
0.000522313
0.000424017
0.000347214
0.000290019
0.000247847
0.000215658
0.000744367
0.000613302
0.000501876
0.000408879
0.00033701
0.000282899
0.000241576
0.0002088
0.0017126
0.00112161
0.000715976
0.000496156
0.000373384
0.000298325
0.000248227
0.000212021
0.00187143
0.00125934
0.000812269
0.000561425
0.00042178
0.000338597
0.000284404
0.000244639
0.00203562
0.00141392
0.000930378
0.000633266
0.00045983
0.00035648
0.000290435
0.000245552
0.002085
0.00148397
0.00101729
0.000727175
0.000554661
0.000448882
0.000377855
0.000324096
0.0020201
0.001405
0.000924752
0.000627535
0.000452812
0.000349457
0.000284284
0.000241018
0.00184855
0.00124791
0.000803333
0.000551906
0.00041124
0.000327344
0.000273307
0.000234952
0.00170366
0.00112782
0.00072387
0.000502517
0.000378217
0.000301962
0.000251026
0.000214323
0.00122745
0.00102812
0.000707988
0.000497702
0.000371544
0.000294162
0.000244015
0.000209017
0.00139938
0.00118548
0.000832244
0.000592642
0.000446044
0.000354934
0.000293903
0.00024899
0.00173282
0.00152992
0.00113837
0.000833084
0.000602226
0.000443749
0.000355434
0.000314884
0.0020093
0.00178107
0.00133176
0.000961169
0.000697382
0.000526938
0.000420578
0.000353338
0.00173995
0.00153417
0.00113858
0.000828269
0.000592443
0.000430923
0.000343806
0.000304896
0.00141173
0.00119314
0.000832204
0.000586836
0.000436898
0.000343782
0.000283
0.000240307
0.00125949
0.00105409
0.000724702
0.000508058
0.00037788
0.000297915
0.000246285
0.00021063
0.000143257
0.000140596
0.00014117
0.000137635
0.00013129
0.000123476
0.000114991
0.000105954
0.000154035
0.000151844
0.000149454
0.000145194
0.000137896
0.000128944
0.000119175
0.000109217
0.0001673
0.000161513
0.000158666
0.00015544
0.00014899
0.000140329
0.000130073
0.000117882
0.000175568
0.000168727
0.000162029
0.000155374
0.000147515
0.000137419
0.000126826
0.000118175
0.000171281
0.000165123
0.000161859
0.000158561
0.000151789
0.000142738
0.000131893
0.000119732
0.000160858
0.000156942
0.000155339
0.00014977
0.00014147
0.000131681
0.000121317
0.000110877
0.000150194
0.000149931
0.000149806
0.000145065
0.000137518
0.000128649
0.00011925
0.000109413
0.000415336
0.000377038
0.000335263
0.000295127
0.000259728
0.000229391
0.000203137
0.000179742
0.000451181
0.000405301
0.000360131
0.000315046
0.000274422
0.000238942
0.000208233
0.000181141
0.000514282
0.000465921
0.000418014
0.000370679
0.000326761
0.000286783
0.000250186
0.000216368
0.000560827
0.000513149
0.000464754
0.000417403
0.000371893
0.000328879
0.00028784
0.000249221
0.000530376
0.000480654
0.000431146
0.000381959
0.000336242
0.000294525
0.000256098
0.000220313
0.00046419
0.000418219
0.000369694
0.00032295
0.00028089
0.000244454
0.000213004
0.000185365
0.000435718
0.000393931
0.000347728
0.000304163
0.000266343
0.000234399
0.000207105
0.000182966
0.000746674
0.000611253
0.000501535
0.000409571
0.000337246
0.000281883
0.00023915
0.000205249
0.00079981
0.000648551
0.000530258
0.000431118
0.000352474
0.000292021
0.000245631
0.000209421
0.000885822
0.000710015
0.000587377
0.000484713
0.000400154
0.000332116
0.000277519
0.000234013
0.00096447
0.00079039
0.000667503
0.000573033
0.000491719
0.000421957
0.000364274
0.000315687
0.000897024
0.000719115
0.000594853
0.000490859
0.000405483
0.000336792
0.000281215
0.000236019
0.000813097
0.000658623
0.000536087
0.000434576
0.000355175
0.000294767
0.000248716
0.000212839
0.000767012
0.000625931
0.000508288
0.000411407
0.000336911
0.000280888
0.000238216
0.000204637
0.00169956
0.00112944
0.000724202
0.000501859
0.000376998
0.000299952
0.000248002
0.000210387
0.00178558
0.00119088
0.000762502
0.000525433
0.000392432
0.000310999
0.000256922
0.00021849
0.00187802
0.00127062
0.000819328
0.000565865
0.000425257
0.00034039
0.000283071
0.000239787
0.00202187
0.0014348
0.000992816
0.000735336
0.000588848
0.000493575
0.00042031
0.000362448
0.00188663
0.00127669
0.000825693
0.000573514
0.000434168
0.000350485
0.000293871
0.000249836
0.0017913
0.00118833