/*--------------------------------*- C++ -*----------------------------------*\
| =========                 |                                                 |
| \\      /  F ield         | OpenFOAM: The Open Source CFD Toolbox           |
|  \\    /   O peration     | Version:  plus.master.MPPICInterFoam            |
|   \\  /    A nd           | Web:      www.OpenFOAM.com                      |
|    \\/     M anipulation  |                                                 |
\*---------------------------------------------------------------------------*/
FoamFile
{
    version     2.0;
    format      ascii;
    class       scalarField;
    location    "9.4/lagrangian/kinematicCloud";
    object      age;
}
// * * * * * * * * * * * * * * * * * * * * * * * * * * * * * * * * * * * * * //


781
(
9.20026
9.12003
9.3777
9.31281
9.36991
9.38228
9.34425
9.0286
9.01306
8.89559
9.31754
9.31048
9.37757
9.23289
9.12611
9.12188
9.20982
9.16242
9.08493
9.29813
9.30592
9.23984
9.28104
9.38491
9.24007
9.36432
9.23701
9.19457
9.02069
9.23043
9.38162
9.36996
9.21831
9.26112
9.36389
9.2686
9.37699
9.36096
9.26627
9.28519
9.38075
9.27969
9.39367
9.02861
9.27029
9.29168
9.11829
8.93696
8.96411
9.2
9.39773
9.22743
9.03528
9.20668
9.3903
9.31994
9.05757
9.39391
9.04771
9.37675
9.31619
9.27139
9.21983
9.39808
9.25029
9.10962
9.18107
9.29906
9.20932
9.31925
9.25952
9.36743
8.94252
9.31857
9.23249
9.32757
9.28685
9.24919
9.18438
9.31723
9.39394
9.20008
9.37378
8.8788
9.31854
9.38739
9.37306
9.28512
9.17344
9.27041
9.14484
9.20994
9.31807
9.15264
9.27281
9.27066
9.09533
8.93775
9.38492
9.34465
8.93712
9.36485
9.26732
9.02149
9.06799
9.31206
9.37049
9.14289
9.10267
9.36391
8.67646
9.26879
9.15239
9.37657
9.12422
9.18486
9.29212
9.10075
9.30798
8.97038
9.36474
9.19742
9.20619
9.36672
9.27565
9.15238
9.28819
8.69005
9.25148
9.3318
9.32433
9.23128
9.15015
9.38113
9.02512
9.15593
9.14423
9.21166
8.9347
9.18339
9.34035
8.47073
9.17445
9.17784
9.38174
9.37613
9.35032
9.17985
9.31824
9.1172
9.23833
9.36447
9.23452
8.83969
9.09621
9.37106
9.32073
8.72591
9.2535
9.38492
9.17171
9.26719
9.3194
9.19814
9.2098
9.34988
9.34048
9.37045
9.09835
9.3764
9.32398
9.23926
9.31604
9.36034
9.11785
9.29551
9.38495
9.20025
9.32029
8.93944
9.06755
9.20587
9.3769
9.19352
9.3894
9.25131
9.26047
9.2981
8.63545
9.39013
9.34262
9.16657
9.37898
9.098
9.19135
9.29804
9.28053
9.17186
9.27375
9.24857
9.36918
9.20471
9.38089
9.32894
8.98519
9.34727
9.33711
9.36169
9.31803
9.00551
9.19072
9.21039
9.34767
9.3916
9.24984
9.22376
9.1232
8.94678
9.2788
9.12848
9.38947
9.16198
9.3138
9.26659
9.33679
9.31956
9.33975
9.37313
9.3108
9.40072
9.33878
9.22671
9.17152
9.352
9.29278
9.29595
9.34335
9.35618
9.34064
9.14413
9.36468
9.06816
8.53014
9.23995
9.39847
8.9256
8.8294
9.21559
9.198
9.25905
9.19082
9.20043
8.60269
9.35816
9.38607
9.39741
9.35759
9.39145
9.20805
9.33819
9.32078
9.39195
9.20022
9.34068
9.21355
8.72069
9.28657
9.40013
9.32816
9.27348
9.28842
9.3669
8.88713
9.22476
9.35913
9.36605
9.27739
9.31452
9.39133
9.24957
9.13672
9.32777
9.33187
9.35738
9.24505
9.22227
9.15338
8.86081
9.25939
8.9334
9.09883
9.2585
9.35663
9.22051
9.2204
9.13482
9.05776
9.36197
9.33299
9.32739
8.90032
9.18823
8.99287
9.33738
9.15521
9.37776
9.20061
9.31871
9.21066
9.34871
9.18114
9.35617
9.27984
9.32738
9.39608
9.26109
9.20982
9.3543
9.14605
9.39144
9.33571
8.91585
9.29991
8.99524
9.28081
9.28901
9.37539
9.37232
9.34767
9.05829
9.31936
9.21726
9.36394
9.33857
9.25839
8.6211
9.1687
9.17865
9.24008
9.38283
9.22096
9.24644
9.30779
9.36697
9.02657
9.1339
8.81906
9.13859
8.96223
9.29254
9.2684
9.37061
9.03197
9.25026
9.39764
9.27256
9.37332
9.03741
9.39654
9.38336
8.96544
9.19538
9.2409
9.36421
9.30433
8.88202
9.13206
9.17957
9.18108
9.34927
9.29736
9.37132
9.0673
8.68072
8.94441
8.99048
9.30821
9.33249
9.36407
9.06057
9.21978
9.28717
9.10509
9.30773
9.10562
9.38996
9.35256
9.14293
9.24902
9.2005
9.2155
9.39245
9.21034
9.01015
9.34751
9.39027
9.33948
9.03904
8.943
9.33046
9.2416
9.22064
9.37209
9.14549
8.70024
9.20848
8.963
9.32309
9.35626
9.23998
9.38849
9.2947
9.36325
9.25908
9.26374
9.33837
9.02435
9.24563
9.27578
9.32314
9.1812
9.26057
9.08578
9.39589
9.24898
9.2349
9.39451
9.27273
9.28644
8.69557
9.35683
8.98935
9.10525
9.34139
9.25779
9.23944
9.01112
9.09817
9.17145
9.08867
9.0477
9.0774
9.35685
9.01911
9.17206
9.30946
9.0584
9.24972
9.38559
9.39592
9.35996
9.1732
9.00098
9.36504
9.33699
9.32772
9.35132
9.07462
9.29746
9.39739
9.36395
9.22014
9.28064
9.15768
9.36268
9.27001
8.84678
9.18561
9.37621
9.36228
9.33747
9.25939
9.26516
9.21066
9.18157
9.37651
9.11474
9.15275
9.11456
9.23938
9.38098
8.98478
9.13377
9.00123
8.90493
9.13529
9.16316
9.15953
9.38628
9.37829
9.13333
9.05611
8.99228
9.27843
9.27884
9.10816
9.0773
9.11857
9.1862
9.32758
9.19422
9.31096
9.23918
9.37665
9.0362
9.2826
9.24306
9.33409
9.36648
9.39129
9.13366
9.30017
9.1641
9.27162
9.13996
9.33721
9.2991
9.26525
8.9537
9.31813
9.08013
9.3967
9.22055
9.24475
9.35242
9.34992
9.36944
9.38128
9.3522
9.32297
9.35079
9.24799
9.19873
9.38265
9.396
9.12417
8.89664
9.03165
9.324
9.11817
9.12176
9.29344
9.31774
9.24547
9.2198
9.27937
9.28165
9.23153
9.35239
9.2654
9.39894
9.15938
9.24691
8.99438
9.17886
9.28837
9.22976
9.29419
9.33851
9.34402
9.27251
9.17143
9.39903
9.35918
9.30386
9.09782
9.37674
9.20535
9.11296
8.71819
8.55376
9.14533
9.27083
9.18376
9.16236
9.32757
9.10025
9.00026
8.58484
9.29302
9.2098
9.26775
9.17706
9.27886
9.30534
8.89134
9.2415
9.31627
9.39798
9.28833
8.99119
9.18404
9.37621
9.26866
9.39368
9.11938
9.07464
9.35676
9.12558
9.23174
9.11757
9.28894
9.36435
9.08272
9.39955
9.28815
9.39428
9.36406
9.39571
8.91463
9.38837
9.04789
9.2889
9.34707
9.31997
9.3779
9.01117
9.19053
9.24397
9.3572
9.31004
9.37666
9.33753
9.06315
9.32317
9.22949
9.34135
9.24113
9.34711
9.31957
9.26997
9.27855
9.04069
9.35699
9.07477
9.00178
9.21235
9.31797
9.17197
9.3937
9.37571
8.95508
9.08883
9.30795
9.33543
9.31766
9.1352
9.34006
9.17156
9.31336
9.38869
9.39378
9.21554
9.38092
9.23935
9.34338
9.28086
9.05476
9.23932
9.30548
9.06105
9.06965
8.59133
9.33011
9.07629
8.87848
9.29194
9.34691
9.30917
9.36498
9.09675
9.05268
9.18129
9.03425
9.11088
9.0552
9.35745
9.32421
9.27974
9.16165
9.38912
9.33536
9.35333
9.38224
9.25944
9.34947
9.26533
9.16043
9.37046
9.2199
9.39461
9.19127
9.39125
9.07638
8.96298
9.29921
9.19176
9.01444
9.36979
9.12382
9.3855
8.81487
9.28462
9.39142
9.16194
9.35113
9.36401
9.05552
9.30995
9.38669
9.2184
8.87932
8.90601
9.2
9.39739
9.39995
9.37191
9.31494
9.13167
9.27429
9.35191
9.32245
9.24779
9.19766
8.96196
9.38089
9.12423
9.31582
9.34715
8.93416
9.25541
9.39378
9.38161
9.35469
8.51024
9.32006
9.36418
9.32732
9.33718
9.19151
8.53036
9.26856
9.31955
9.30806
9.37077
9.27915
9.12237
9.15255
9.29987
9.35711
9.37282
9.40001
9.17519
9.38975
9.38169
9.39123
9.39848
9.21122
9.37055
9.22975
9.23256
9.3781
9.39495
9.17189
9.14292
9.22149
9.16902
9.31893
9.29778
9.24618
9.34367
9.19101
9.38357
9.19191
9.2053
9.3793
9.20355
9.32673
9.39167
9.34691
9.16126
)


// ************************************************************************* //
