/*--------------------------------*- C++ -*----------------------------------*\
| =========                 |                                                 |
| \\      /  F ield         | OpenFOAM: The Open Source CFD Toolbox           |
|  \\    /   O peration     | Version:  plus.master.MPPICInterFoam            |
|   \\  /    A nd           | Web:      www.OpenFOAM.com                      |
|    \\/     M anipulation  |                                                 |
\*---------------------------------------------------------------------------*/
FoamFile
{
    version     2.0;
    format      ascii;
    class       scalarField;
    location    "9.4/lagrangian/kinematicCloud";
    object      d;
}
// * * * * * * * * * * * * * * * * * * * * * * * * * * * * * * * * * * * * * //


781
(
0.000492714
0.000480865
0.00051517
0.000516321
0.000472068
0.000470064
0.000507009
0.000494478
0.000492775
0.000483469
0.000500934
0.000523926
0.000495763
0.000492263
0.000483937
0.000529925
0.000498421
0.000442743
0.000540846
0.00047997
0.000475656
0.00051107
0.000459687
0.000553038
0.000520515
0.000512661
0.000543624
0.000515515
0.000552261
0.000464738
0.000555916
0.000522088
0.000527484
0.000533879
0.000521358
0.000487033
0.000554025
0.000510622
0.000541711
0.000519017
0.000509335
0.000593728
0.000500676
0.000586225
0.000535349
0.000529224
0.000460299
0.000489728
0.000527975
0.000538784
0.000485719
0.000521937
0.000522315
0.000514798
0.0004879
0.000539356
0.00058269
0.00050334
0.000545981
0.000521799
0.000472173
0.00049725
0.000555304
0.000529045
0.000499017
0.000568978
0.000514842
0.00055291
0.000501864
0.000446729
0.000515464
0.000524238
0.000597647
0.000523191
0.000492085
0.000505423
0.000457915
0.000511342
0.000550991
0.00047707
0.000465786
0.000579212
0.000536544
0.000523505
0.000487059
0.000539754
0.000533719
0.00057331
0.000494763
0.000527097
0.000505006
0.000524711
0.000509286
0.000532195
0.000497927
0.000522341
0.000517582
0.000499351
0.000540306
0.000514332
0.000529858
0.000483941
0.000498498
0.00054979
0.000488247
0.00051153
0.000499418
0.000507222
0.000493932
0.00053954
0.000611629
0.000505395
0.000523181
0.000526583
0.000527755
0.000500558
0.000523265
0.000551368
0.000515544
0.000483253
0.000546672
0.00054091
0.00052672
0.00052239
0.000528869
0.000525172
0.000524652
0.000510643
0.000532811
0.000443621
0.000488399
0.000471456
0.000504774
0.00052906
0.000549659
0.000550019
0.000531798
0.000577603
0.000549884
0.000547398
0.000531848
0.000487844
0.00049198
0.000499007
0.000524566
0.000524631
0.000568792
0.000571892
0.000501128
0.000485656
0.000566719
0.000517174
0.000597192
0.000515034
0.000481084
0.0005732
0.00058177
0.000499356
0.000493059
0.000518944
0.000441808
0.000492974
0.000493948
0.000500112
0.000532976
0.000537587
0.000569513
0.000431098
0.000512421
0.000540025
0.000547603
0.000497804
0.000523885
0.000552481
0.000483991
0.0004994
0.0005589
0.000557001
0.000485746
0.000531293
0.000540677
0.000575856
0.000554096
0.000574017
0.000505346
0.000535675
0.000532106
0.000540301
0.000512034
0.000499313
0.00050328
0.000537255
0.000536407
0.000556403
0.000528141
0.000510233
0.00052237
0.000492385
0.000514636
0.00054005
0.000507483
0.00048328
0.000533771
0.000489421
0.000467576
0.00044448
0.000541779
0.000566211
0.000521459
0.000520727
0.000538906
0.000547354
0.000544827
0.000540185
0.000486511
0.000474092
0.000493346
0.000494874
0.000516465
0.000543107
0.000544136
0.000515257
0.000520704
0.000506614
0.000532438
0.000545577
0.000516997
0.000517663
0.000502998
0.000500639
0.000519389
0.000551129
0.000517513
0.000564255
0.000523796
0.000541499
0.000526024
0.000526697
0.000529721
0.000499706
0.000546685
0.000547965
0.000543918
0.000478829
0.000505872
0.00054156
0.000608844
0.000511377
0.000501599
0.000516985
0.000538971
0.000552394
0.000493746
0.000547084
0.000511922
0.000522023
0.000562143
0.000479488
0.000513213
0.000500439
0.000607545
0.000462264
0.000545125
0.000547725
0.00055437
0.000494459
0.000494594
0.000538681
0.000510499
0.000503763
0.000508257
0.000557125
0.000534562
0.000510318
0.000581163
0.000587404
0.000491226
0.000548258
0.000542992
0.000543106
0.000475072
0.000522143
0.000557674
0.000554584
0.00055182
0.000548766
0.000534125
0.000511315
0.000547102
0.000503565
0.000566458
0.000530934
0.000421314
0.000492033
0.000504213
0.000546258
0.000525379
0.000527941
0.000487709
0.000557272
0.000594225
0.000554202
0.000566994
0.000555058
0.000510342
0.000562065
0.000530248
0.000505767
0.000549431
0.000552093
0.000554019
0.000561371
0.000438858
0.000506158
0.000483553
0.000484715
0.000501282
0.000472406
0.000510272
0.000526882
0.000550369
0.000513364
0.00049168
0.000504169
0.000508338
0.000546852
0.000533696
0.000522073
0.000559695
0.000514626
0.000507368
0.000560702
0.000552596
0.000508932
0.000575118
0.000509178
0.000528913
0.000543711
0.000507443
0.000548231
0.000556617
0.000563934
0.000532219
0.000528697
0.000543095
0.000506861
0.000551018
0.000533669
0.000543011
0.000530328
0.000559214
0.000476646
0.000560177
0.000526745
0.000493525
0.000542002
0.000507218
0.000531144
0.000540276
0.000556762
0.000505739
0.000523181
0.000556725
0.000561983
0.000533447
0.000480621
0.000474664
0.000563613
0.000555258
0.000535799
0.000594951
0.00056666
0.000529603
0.0005184
0.000547087
0.000548658
0.000527662
0.000519241
0.000460461
0.000500111
0.000480521
0.000554685
0.000542891
0.000530886
0.000471223
0.000499247
0.000515743
0.000505388
0.000527356
0.000572873
0.000586324
0.000516872
0.000527271
0.000551721
0.00055699
0.000515355
0.000541787
0.000528332
0.000575083
0.000566061
0.000543026
0.000537211
0.000526969
0.000485403
0.000522276
0.00053138
0.000508072
0.000520081
0.000460983
0.000504962
0.000538482
0.000565455
0.000569529
0.000512707
0.000536004
0.000582629
0.00048352
0.00054307
0.000556535
0.000487121
0.000595624
0.000597042
0.000492264
0.000467411
0.000469816
0.000501506
0.000524938
0.000508549
0.000552474
0.000513441
0.000475306
0.000521143
0.000526699
0.000528162
0.000565441
0.000568176
0.000587862
0.000531145
0.000527878
0.000582188
0.000527529
0.00054815
0.000563218
0.000519697
0.000555678
0.000546713
0.000555829
0.000584685
0.000536638
0.000577054
0.000555059
0.000525701
0.000502746
0.000504387
0.000500364
0.000528559
0.000476588
0.00056586
0.000509915
0.0005341
0.000552776
0.000537539
0.000521521
0.000565442
0.000490966
0.00049898
0.000546386
0.000531694
0.000574266
0.000516933
0.000521678
0.000529784
0.000569512
0.000548878
0.00053086
0.000583182
0.000509947
0.000556138
0.000584564
0.000514892
0.000503249
0.000481703
0.00051359
0.000548467
0.000545923
0.000522988
0.000545663
0.000529471
0.000500836
0.000544218
0.000497609
0.000467937
0.000495051
0.000511279
0.000514712
0.000502883
0.000505007
0.000499613
0.000529806
0.000531132
0.000569306
0.000492355
0.000531988
0.000513041
0.000511155
0.00055601
0.000542739
0.000590035
0.000603865
0.000575365
0.000493157
0.000544401
0.000510111
0.000546402
0.000550587
0.000552505
0.000506229
0.000494906
0.000539025
0.000550353
0.000591665
0.000594604
0.000557468
0.000543102
0.000571455
0.00050946
0.00053919
0.000505892
0.000554335
0.000536277
0.000537437
0.000527896
0.000554111
0.000565416
0.000592068
0.000469076
0.000562451
0.000526037
0.000506842
0.000563139
0.000551886
0.000530541
0.00051961
0.000530217
0.000559562
0.000460318
0.00049213
0.000519133
0.000558808
0.000544691
0.00054236
0.000543562
0.000554266
0.000531947
0.000508123
0.000513644
0.000516565
0.000463222
0.000554885
0.000516024
0.000527465
0.000550691
0.000522632
0.000579783
0.000514303
0.000549367
0.000520669
0.000533434
0.000563603
0.000532167
0.000569859
0.000453605
0.000531137
0.000492191
0.000541952
0.000534838
0.000565799
0.000552352
0.000520992
0.000481044
0.000444702
0.000507675
0.000475516
0.000541583
0.000539817
0.000548629
0.000512654
0.000561169
0.000568783
0.000512226
0.000516753
0.000561345
0.000567081
0.000563322
0.000552777
0.000524989
0.000526971
0.000541382
0.000587531
0.000497672
0.000506557
0.000529792
0.000484356
0.00052828
0.000563525
0.000536622
0.000500139
0.000577882
0.000536679
0.000532983
0.000548438
0.000560225
0.00057432
0.000577965
0.00056649
0.000546002
0.000506501
0.000536382
0.000544758
0.000555921
0.000526994
0.000547634
0.00045711
0.000514939
0.00052209
0.000485316
0.00053126
0.000562978
0.000527116
0.000544051
0.000523395
0.000590962
0.000565123
0.00052384
0.000512847
0.000479887
0.000560918
0.000569864
0.000543281
0.000502148
0.000477682
0.000493926
0.000555773
0.00047414
0.000510825
0.000466469
0.000552561
0.000514733
0.000465579
0.000541765
0.000504495
0.00047893
0.000467365
0.000560991
0.000575979
0.000579254
0.000546955
0.000561114
0.000548191
0.00052817
0.000533995
0.000545927
0.000511071
0.000523522
0.000487638
0.000566265
0.000483505
0.000535897
0.000561914
0.000563006
0.000583954
0.000487344
0.000526419
0.000555854
0.000546894
0.00053882
0.000526965
0.000516674
0.000529657
0.0005504
0.000508615
0.000512767
0.00051953
0.000569579
0.000565343
0.000467397
0.000514886
0.000562502
0.000501634
0.000546986
0.000492506
0.000557432
0.000521313
0.000590671
0.000519309
0.000559265
0.000599767
0.000536009
0.000553215
0.000565141
0.000554022
0.000518415
0.000515733
0.000577395
0.000535611
0.000525107
0.000532276
0.000567946
0.000531946
0.000507076
0.000521148
0.00053043
0.000507275
0.00050725
0.000568321
0.000457508
0.000515653
0.000531799
0.000582081
0.00051694
0.000547964
0.00053702
0.000547603
0.00050938
0.000511279
0.000488192
0.000495939
0.000568427
0.000533537
0.000533854
0.000587757
0.000539895
0.000538376
0.000576813
0.00051359
0.00049542
0.000542435
0.000521905
0.000568879
0.000552462
0.000454735
0.000496794
0.000582973
0.000482804
0.000553541
0.000519136
0.000546869
0.000588682
0.000500078
0.000555561
0.000534321
0.000582333
0.000546239
0.000487863
0.000513288
0.000527747
0.000551231
0.000593376
0.000526153
0.000502144
0.000560922
0.000469912
0.000478432
0.000497275
0.000594387
0.000558585
0.000594051
0.000574128
0.000587872
0.000608203
0.000493302
0.000544071
0.000506268
0.000582968
0.000527488
0.000598414
0.000546134
0.000594459
0.00051579
0.000550559
0.000571377
)


// ************************************************************************* //
