/*--------------------------------*- C++ -*----------------------------------*\
| =========                 |                                                 |
| \\      /  F ield         | OpenFOAM: The Open Source CFD Toolbox           |
|  \\    /   O peration     | Version:  plus.master.MPPICInterFoam            |
|   \\  /    A nd           | Web:      www.OpenFOAM.com                      |
|    \\/     M anipulation  |                                                 |
\*---------------------------------------------------------------------------*/
FoamFile
{
    version     2.0;
    format      ascii;
    class       labelField;
    location    "9.4/lagrangian/kinematicCloud";
    object      origId;
}
// * * * * * * * * * * * * * * * * * * * * * * * * * * * * * * * * * * * * * //


781
(
20801
28788
2661
9506
3710
2134
6435
38050
39426
51254
9198
9692
2673
17460
28107
28677
19954
24545
32426
11053
10306
16811
12636
1908
16771
4212
17182
21286
38658
17726
2204
3707
19092
14629
4383
14061
2738
4644
14252
12331
2447
12788
859
38042
13717
11582
28910
47039
44311
20937
358
18149
37301
20160
1254
8745
35041
802
36102
2772
9301
13603
18872
325
15729
29800
22758
10859
20015
8820
14836
3870
46691
8911
17494
8095
12237
15940
22291
9247
797
20873
3148
52842
8917
1599
3201
12335
23377
13704
26236
19886
9000
25561
13484
13676
31340
46978
1897
6412
47026
4121
14194
38571
33936
9560
3563
26615
30591
4358
73203
13979
25683
2982
28377
22252
11546
30708
10053
43871
4138
21097
20190
3925
13296
25706
12101
71936
15592
7589
8415
17615
25837
2426
38293
25137
26309
19578
47266
22380
6708
93737
23278
23033
2189
2947
5714
22919
8967
29001
17110
4183
17337
56760
31129
3414
8671
68238
15422
1896
23650
14201
8803
21056
19981
5752
6697
3597
30888
2991
8436
16974
9309
4688
28945
11321
1951
20803
8711
46864
34001
20210
2750
21372
1322
15609
14700
11066
77269
1265
6537
24100
2557
30920
21622
11089
12687
23612
13416
16108
3753
20288
2386
7853
42228
6104
7258
4596
9010
40234
21757
19763
6019
1067
15796
18386
28606
46063
12939
27908
1316
24684
9440
14234
7288
8785
6763
3196
9663
27
6867
18190
23721
5586
11496
11296
6490
5222
6684
26323
4425
33914
87889
16792
298
48166
57821
19252
21064
14940
21730
20756
80488
4877
1699
416
4942
1091
20082
6946
8667
1026
20814
6680
19399
68745
12252
125
7964
13435
12004
3911
52021
18314
4784
3985
13199
9396
1193
15845
27055
8042
7584
4969
16309
18513
25410
54654
14862
47549
30848
15122
5090
18725
18743
27247
35001
4578
7506
8168
50740
22030
41433
7110
25199
2655
20716
8891
19713
5872
22728
5225
12768
8171
549
14632
19959
5441
26119
1187
7345
49145
10751
41237
12659
11879
3046
3265
6018
34912
8808
19150
4464
6894
15128
78676
23962
22985
16770
2087
18659
16224
10132
3905
38207
27390
59027
26916
44592
11514
14138
3511
37532
15732
369
13503
3181
37183
506
2048
44189
21227
16656
4237
10399
52595
27689
22934
22750
5811
11220
3634
34045
72739
46290
41907
9995
7540
4277
34672
18887
12220
30303
10204
30195
1277
5548
26585
16020
20739
19258
983
19774
39761
6048
1256
6790
36848
46558
7697
16580
18705
3287
26170
70851
20059
44446
8493
5335
16787
1439
11369
4502
14933
14411
6921
38343
16272
13288
8490
22710
14688
32306
647
16048
17311
736
13490
12259
71261
5052
41969
30265
6624
15159
16907
39616
30904
23772
31855
36106
33000
5048
38977
23568
9800
34897
15817
1918
569
4717
23404
40653
4095
7278
8054
5635
33421
11215
425
4324
18793
12676
25008
4535
13752
56240
22196
2890
4559
7083
14861
14318
19714
22620
2985
29319
25531
29365
16926
2324
42260
27418
40616
50357
27191
24420
24893
1680
2609
27622
35296
41496
13063
12931
29911
33014
28889
22155
8091
21313
9649
17040
2978
37248
12504
16450
7437
3946
1195
27448
10723
24309
13582
26829
7175
10853
14312
45367
8988
32726
494
18718
16328
5557
5749
3737
2254
5572
8501
5675
16138
21024
2101
558
28391
51071
37559
8435
28919
28684
11450
9085
16282
18881
12834
12581
17587
5559
14303
219
24902
16197
41301
22973
12020
17854
11401
6901
6449
13507
23812
207
4780
10429
30937
2973
20244
29597
69102
85394
26185
13658
22345
24558
8094
30742
40801
82311
11479
19987
14171
23082
12927
10339
51656
16590
9297
333
12034
41650
22320
2893
14028
904
28831
33420
5064
28165
17565
28968
11891
4205
32550
160
12146
757
4281
618
49350
1542
36036
11897
6166
8742
2642
39610
21836
16382
4993
9736
2786
7070
34487
8488
17941
6627
16630
6151
8784
13757
13009
36651
5025
33413
40547
19505
9023
23586
903
3028
45215
31841
10065
7360
9115
27201
6734
23703
9469
1402
825
19255
2350
16935
6488
12654
35371
16946
10331
34633
33758
81642
7729
33243
52873
11560
6282
9835
4104
31053
35501
22683
37365
29717
35346
4959
8422
12780
24779
1349
7364
5499
2137
14851
5791
14307
24843
3585
18851
728
21636
1145
33206
44449
10838
21560
39322
3717
28541
1760
59293
12366
1097
24712
5649
4297
35328
9745
1647
19087
52794
50138
20944
426
135
3305
9371
27710
13380
5592
8537
16149
21083
44698
2374
28374
9321
6138
47347
15294
899
2206
5419
89852
8733
4244
8235
7191
21596
87816
14118
8786
10030
3469
12870
28650
25591
10755
5006
3221
111
23216
1293
2397
1168
297
19632
3534
17855
17488
2625
703
23605
26594
18594
23943
8860
11199
16239
6470
21685
2034
21540
20247
2535
20376
8282
1058
6281
24799
)


// ************************************************************************* //
