/*--------------------------------*- C++ -*----------------------------------*\
| =========                 |                                                 |
| \\      /  F ield         | OpenFOAM: The Open Source CFD Toolbox           |
|  \\    /   O peration     | Version:  plus.master                           |
|   \\  /    A nd           | Web:      www.OpenFOAM.com                      |
|    \\/     M anipulation  |                                                 |
\*---------------------------------------------------------------------------*/
FoamFile
{
    version     2.0;
    format      ascii;
    class       surfaceScalarField;
    location    "12.4";
    object      alphaPhi;
}
// * * * * * * * * * * * * * * * * * * * * * * * * * * * * * * * * * * * * * //

dimensions      [0 3 -1 0 0 0 0];

internalField   nonuniform List<scalar> 
138768
(
1.90089e-07
1.55884e-06
3.96469e-07
-5.96505e-07
-1.54966e-06
-9.07855e-08
4.8112e-07
7.66142e-07
-9.66195e-07
-1.0572e-06
8.85546e-07
1.14824e-06
-1.06728e-06
-1.99325e-06
5.95529e-07
1.14173e-06
-8.01211e-07
-2.23723e-06
2.75669e-07
7.47777e-07
-7.7927e-07
-1.65083e-06
-1.75823e-07
4.55801e-07
-6.7282e-07
1.03673e-06
2.76191e-07
-1.77395e-06
-1.19e-06
-3.8081e-07
1.99256e-06
7.53735e-07
-3.27716e-07
2.40718e-08
3.93044e-07
1.47816e-06
-4.33195e-07
2.12378e-07
2.72014e-06
-8.96108e-07
2.78328e-07
2.86504e-06
-4.57338e-07
-1.06708e-07
1.97313e-06
-3.51604e-07
2.65225e-07
1.29284e-06
1.2293e-06
4.07762e-07
-9.52746e-07
-7.26493e-08
1.28149e-06
1.2279e-06
-3.37886e-07
-1.30648e-07
5.27235e-07
2.13019e-06
2.06371e-08
7.16538e-09
5.62023e-07
-3.67888e-09
3.82349e-08
1.09292e-06
-1.66456e-07
2.65459e-08
5.8929e-07
-8.34798e-07
4.89154e-07
2.09509e-06
8.26126e-07
6.52676e-07
-1.08416e-06
5.93492e-07
-1.20478e-07
1.60726e-06
-7.98708e-07
2.07657e-07
-2.00753e-07
3.26843e-06
2.4975e-08
-1.03504e-08
9.49156e-07
-4.38961e-08
-2.05626e-08
1.27678e-07
-4.44009e-07
-5.38991e-08
1.25766e-06
-6.54827e-07
5.55917e-09
2.64192e-06
1.9029e-07
8.77596e-07
-8.96586e-07
4.00568e-07
-1.11246e-06
1.3605e-06
-7.69058e-07
-8.72334e-08
-2.22408e-07
2.56925e-06
1.45327e-08
-1.94747e-08
4.89344e-07
-3.97967e-08
-1.35898e-07
7.7688e-07
-4.0213e-07
1.03272e-07
7.93181e-07
-1.00683e-06
-9.66992e-08
2.3438e-06
-4.02421e-07
7.89614e-07
-1.20326e-06
-2.23933e-07
-1.02837e-06
8.54796e-07
-4.02328e-07
9.94038e-08
-1.13556e-07
1.47975e-06
-2.93854e-07
-6.59897e-07
2.80562e-06
-6.61267e-07
-5.17797e-07
3.02403e-06
-4.95758e-07
1.74666e-07
1.82889e-06
-7.14177e-07
4.53231e-07
1.47389e-06
-3.56544e-07
4.94857e-07
-1.25489e-06
4.22608e-07
4.43914e-07
-8.02779e-07
-1.09178e-06
5.94822e-08
8.74909e-07
-6.59845e-07
-1.10646e-06
1.37505e-06
-8.69195e-07
-2.4134e-06
1.42224e-06
-6.33058e-07
-2.60614e-06
9.60957e-07
-4.143e-07
-2.00621e-06
5.54261e-07
-2.87324e-07
2.81803e-07
-1.88524e-06
-7.60129e-07
1.75786e-07
1.8258e-06
9.37633e-07
-6.87526e-07
-1.85521e-06
-3.97428e-07
1.48581e-06
1.51753e-06
-1.66401e-06
-1.06218e-06
9.22442e-07
2.18682e-06
-1.29616e-06
-1.59312e-06
6.12618e-07
2.17304e-06
-1.11292e-06
-1.78109e-06
7.25965e-07
1.42763e-06
-1.21778e-06
-1.83077e-06
8.59824e-07
9.29219e-07
-1.28351e-06
9.3856e-07
7.41301e-07
-1.94757e-06
-1.28683e-06
1.35667e-07
1.68144e-06
1.51412e-06
-7.26862e-07
-3.19242e-07
1.274e-06
2.99467e-06
-9.28439e-07
2.93504e-07
4.33455e-06
-1.55492e-06
3.04374e-08
4.42091e-06
-1.73703e-06
3.19584e-07
3.19226e-06
-1.65288e-06
8.18365e-07
1.83043e-06
6.92636e-07
8.90733e-07
-1.88977e-06
8.42548e-08
1.12066e-06
2.38038e-06
-6.75959e-07
-1.14312e-07
7.60068e-07
4.08223e-06
-6.50672e-08
3.54377e-08
2.43327e-06
-1.35847e-07
-8.06524e-09
1.97742e-06
-6.56843e-07
2.25404e-07
3.4385e-06
-1.2575e-06
8.97445e-07
2.84892e-06
5.4467e-07
1.20714e-06
-1.66385e-06
4.04644e-07
-2.94913e-10
3.06958e-06
-7.46e-07
-8.5989e-08
-1.16728e-07
5.10944e-06
-5.59841e-08
-2.02868e-08
1.49722e-06
-1.43822e-07
5.20275e-08
2.28051e-07
-6.46381e-07
-6.3868e-10
3.30921e-06
-1.02159e-06
2.56378e-07
3.70793e-06
3.82502e-07
1.52038e-06
-1.50215e-06
3.82491e-07
-8.2648e-07
2.6463e-06
-8.42099e-07
-4.58228e-08
-7.37434e-07
4.41671e-06
-1.47617e-08
-1.01111e-07
2.0968e-06
-2.78634e-08
2.33682e-07
1.16358e-06
-5.75099e-07
6.27151e-09
3.17181e-06
-1.25864e-06
8.11832e-08
3.28669e-06
1.88435e-07
1.43346e-06
-1.70839e-06
5.05545e-07
-1.18651e-06
1.73735e-06
-1.02803e-06
8.52474e-08
-1.00044e-06
3.46032e-06
-7.27406e-07
-6.03133e-07
4.6543e-06
-1.30154e-06
-2.31847e-07
4.68904e-06
-1.93463e-06
-1.14161e-07
3.79901e-06
-1.99519e-06
-1.04722e-07
2.15182e-06
-1.86119e-07
1.00471e-06
-2.1305e-06
6.03107e-07
1.04787e-06
-1.04316e-06
-1.35037e-06
-5.39119e-08
1.79419e-06
-1.26262e-06
-1.04228e-06
2.68682e-06
-9.26677e-07
-1.9182e-06
2.77429e-06
-7.08001e-07
-2.27461e-06
1.87967e-06
-6.76483e-07
-2.27353e-06
1.10358e-06
-6.42008e-07
7.56569e-07
-2.28836e-06
-6.46062e-07
6.33548e-07
2.206e-06
1.73949e-06
-1.26298e-06
-2.37843e-06
-1.18376e-07
2.15203e-06
2.3621e-06
-2.245e-06
-8.07742e-07
1.58828e-06
3.17022e-06
-1.88242e-06
-1.34161e-06
1.2498e-06
3.21846e-06
-1.76132e-06
-1.80977e-06
1.69202e-06
2.27463e-06
-2.07079e-06
-2.18027e-06
1.72946e-06
1.72467e-06
-2.15441e-06
1.61315e-06
1.53261e-06
-2.47576e-06
-2.10903e-06
6.89306e-07
1.85267e-06
2.44488e-06
-1.26768e-06
-4.36958e-08
1.86537e-06
4.01416e-06
-8.45583e-07
8.42141e-07
5.62575e-06
-1.54934e-06
3.04692e-07
5.70859e-06
-2.1677e-06
1.34498e-06
4.15758e-06
-2.38269e-06
1.3799e-06
2.39482e-06
1.03678e-06
1.68473e-06
-2.60041e-06
8.31989e-07
1.08085e-06
3.59836e-06
-1.27832e-06
1.41081e-07
8.41483e-07
5.4403e-06
-1.15162e-07
4.73798e-08
3.67204e-06
-4.16074e-07
-1.58223e-10
2.78627e-06
-1.90111e-06
5.828e-07
5.43487e-06
-2.22449e-06
9.2969e-07
3.6222e-06
5.78716e-07
1.96368e-06
-2.52318e-06
8.73147e-07
-3.65455e-08
4.53147e-06
-1.21776e-06
-1.99382e-08
-8.29889e-08
6.75944e-06
-1.14901e-07
-1.4621e-09
1.81153e-06
-1.9909e-07
6.11031e-08
3.58378e-07
-1.86932e-06
-6.54677e-08
5.45177e-06
-2.09015e-06
1.5374e-07
4.70469e-06
2.01338e-07
2.27185e-06
-2.46428e-06
1.01371e-06
-9.80678e-07
3.94513e-06
-1.36844e-06
2.06828e-07
-1.0582e-06
5.77603e-06
-6.95696e-08
-4.41952e-07
2.93487e-06
-1.67869e-07
4.78301e-08
1.55217e-06
-1.66184e-06
-4.14837e-07
4.87217e-06
-2.12569e-06
-2.84883e-07
4.18918e-06
-1.6229e-07
2.17909e-06
-2.5078e-06
1.17285e-06
-1.58275e-06
2.76907e-06
-1.60246e-06
4.07374e-07
-1.6213e-06
4.62593e-06
-6.39821e-07
-1.18787e-06
6.09255e-06
-1.50705e-06
-7.36507e-07
6.08047e-06
-2.47707e-06
-9.50447e-07
5.04768e-06
-2.68747e-06
-8.34454e-07
2.91174e-06
-8.18059e-07
1.78783e-06
-2.81492e-06
1.06269e-06
1.8949e-06
-1.61738e-06
-1.87509e-06
2.0636e-07
2.80111e-06
-1.77198e-06
-8.28818e-07
3.92304e-06
-1.3889e-06
-1.71673e-06
4.11245e-06
-1.18683e-06
-2.34403e-06
2.92458e-06
-1.36817e-06
-2.61995e-06
1.93846e-06
-1.39431e-06
1.5648e-06
-2.79508e-06
-1.45125e-06
1.65374e-06
2.97719e-06
3.20027e-06
-2.60827e-06
-3.4835e-06
5.99785e-07
3.09505e-06
3.713e-06
-3.39196e-06
-4.15259e-07
2.79907e-06
4.46681e-06
-3.08072e-06
-1.28298e-06
2.53619e-06
4.55735e-06
-3.00732e-06
-2.15172e-06
2.94039e-06
3.65092e-06
-3.44791e-06
-2.95735e-06
2.93218e-06
3.19091e-06
-3.59284e-06
2.7355e-06
3.0054e-06
-3.62384e-06
-3.54188e-06
1.62992e-06
2.34223e-06
3.84711e-06
-2.39773e-06
6.56387e-07
2.73964e-06
5.3431e-06
-5.7462e-07
1.9248e-06
7.06171e-06
-1.86787e-06
1.31983e-06
7.08346e-06
-2.78949e-06
2.60812e-06
5.41115e-06
-3.34675e-06
2.21286e-06
3.67132e-06
1.78554e-06
3.15196e-06
-3.8642e-06
1.92436e-06
1.22958e-06
5.0956e-06
-2.30905e-06
6.94461e-07
1.21255e-06
7.09347e-06
-8.89233e-08
1.36666e-07
4.60401e-06
-8.85479e-07
-9.95027e-10
3.74008e-06
-3.3048e-06
1.09238e-06
7.20263e-06
-3.53664e-06
1.24694e-06
4.81988e-06
8.18678e-07
3.36372e-06
-3.9699e-06
1.89989e-06
-2.02919e-07
6.18099e-06
-2.11693e-06
3.87689e-07
-2.63446e-07
8.10433e-06
-1.36475e-07
-2.08077e-08
2.29179e-06
-5.35098e-07
5.27738e-08
8.04619e-07
-3.75347e-06
-2.18632e-07
7.39821e-06
-3.64551e-06
-7.874e-08
5.92233e-06
-1.22512e-07
3.6001e-06
-4.03253e-06
2.09782e-06
-1.48675e-06
5.48086e-06
-2.34968e-06
7.05824e-07
-1.7423e-06
7.41445e-06
-4.65833e-08
-1.03334e-06
3.71349e-06
-4.73551e-07
-4.95356e-07
2.10431e-06
-3.41488e-06
-1.30297e-06
6.49224e-06
-3.56412e-06
-1.12008e-06
5.37986e-06
-1.02852e-06
3.51567e-06
-3.99474e-06
2.07024e-06
-2.35672e-06
4.19567e-06
-2.62687e-06
1.11487e-06
-2.4515e-06
6.08091e-06
-3.89323e-07
-2.26559e-06
7.55782e-06
-2.0997e-06
-1.91724e-06
7.39006e-06
-3.32959e-06
-2.07474e-06
6.53453e-06
-3.69822e-06
-1.99528e-06
4.15559e-06
-2.07984e-06
3.22911e-06
-4.08815e-06
1.97448e-06
3.34849e-06
-2.80704e-06
-2.97773e-06
8.75934e-07
4.191e-06
-2.74293e-06
-4.74618e-07
5.36681e-06
-2.35877e-06
-1.74762e-06
5.63249e-06
-2.16429e-06
-2.69373e-06
4.32281e-06
-2.52686e-06
-3.34233e-06
3.37842e-06
-2.78657e-06
3.04411e-06
-3.86644e-06
-3.03503e-06
2.75592e-06
3.67562e-06
-3.88129e-06
-4.23828e-06
4.88825e-06
1.44402e-06
4.22985e-06
-4.50037e-06
5.29571e-06
-7.168e-08
4.50243e-06
-4.48407e-06
5.96397e-06
-1.50971e-06
4.40836e-06
-4.48097e-06
6.06803e-06
-2.64e-06
4.32484e-06
-4.7374e-06
5.19383e-06
-3.58013e-06
4.00751e-06
-4.67455e-06
4.79837e-06
3.53432e-06
-4.33126e-06
-4.42557e-06
4.64799e-06
2.89771e-06
2.90609e-06
-3.7444e-06
5.46343e-06
1.69412e-06
3.91963e-06
6.85693e-06
-3.86439e-07
3.63467e-06
8.8278e-06
-2.68437e-06
2.85201e-06
8.75806e-06
-3.67939e-06
3.91488e-06
6.81605e-06
-4.27891e-06
3.132e-06
5.14674e-06
2.42869e-06
-4.77457e-06
4.7534e-06
3.47057e-06
1.45757e-06
-3.67931e-06
6.75297e-06
1.61813e-06
1.70648e-06
9.09514e-06
-1.77501e-07
2.15438e-07
6.17033e-06
-1.8883e-06
-9.38457e-10
4.92398e-06
-4.90046e-06
1.68869e-06
9.1605e-06
-4.8952e-06
1.7185e-06
6.22841e-06
1.09646e-06
-5.1183e-06
4.91938e-06
3.59425e-06
-4.58992e-07
-3.45511e-06
7.95851e-06
7.12971e-07
-4.80258e-07
8.99199e-06
-1.73251e-07
-6.00182e-09
2.60094e-06
-9.33226e-07
6.37838e-08
1.51668e-06
-5.86084e-06
-3.37874e-07
9.44751e-06
-5.30506e-06
-2.72529e-07
7.35756e-06
-4.0228e-07
-5.32782e-06
5.12175e-06
3.72119e-06
-2.17331e-06
-3.70319e-06
7.1772e-06
1.44485e-06
-2.91019e-06
9.29393e-06
-1.27144e-07
-1.89264e-06
4.72418e-06
-9.93059e-07
-1.068e-06
2.8095e-06
-5.55768e-06
-2.50465e-06
8.59567e-06
-5.12394e-06
-2.13199e-06
6.80566e-06
-1.83962e-06
-5.21943e-06
5.04844e-06
3.27834e-06
-3.23149e-06
-3.87129e-06
5.84679e-06
2.21858e-06
-3.60618e-06
7.83634e-06
-2.1821e-07
-3.94305e-06
9.24947e-06
-3.0855e-06
-3.81162e-06
8.75928e-06
-4.38621e-06
-3.49108e-06
8.16845e-06
-4.69121e-06
-3.26984e-06
5.59845e-06
-3.14987e-06
-4.98245e-06
4.8307e-06
2.97756e-06
-3.92356e-06
-3.99451e-06
5.05748e-06
1.69762e-06
-3.95088e-06
5.81561e-06
-1.17854e-07
-3.73868e-06
6.97778e-06
-2.00075e-06
-3.61016e-06
7.31395e-06
-3.1365e-06
-3.90683e-06
5.87428e-06
-3.88226e-06
-4.127e-06
4.9816e-06
-4.43056e-06
-4.25718e-06
4.69995e-06
-2.11334e-06
-1.92044e-07
1.45528e-07
3.86761e-07
-2.24879e-06
-4.09245e-07
1.54854e-07
3.89974e-07
-2.50268e-06
-2.84129e-07
1.68474e-07
3.70443e-07
-2.80644e-06
-1.92844e-07
1.67414e-07
3.28999e-07
-3.12177e-06
-1.48066e-07
1.57171e-07
3.0392e-07
-3.426e-06
-1.19839e-07
1.38767e-07
2.84473e-07
-3.70836e-06
-9.91079e-08
1.13236e-07
2.6895e-07
-8.33398e-08
8.11502e-08
2.54611e-07
-3.95978e-06
-1.45003e-06
1.16097e-07
1.87058e-07
-1.91682e-06
-1.49988e-07
2.08578e-07
-2.31642e-06
-1.09876e-07
2.26606e-07
-2.69571e-06
-4.26139e-08
2.27898e-07
-3.04323e-06
-1.45824e-08
2.16022e-07
-3.35456e-06
-2.69843e-09
1.94381e-07
-3.62299e-06
4.15082e-09
1.64673e-07
7.57401e-09
1.27661e-07
-3.8423e-06
-1.42563e-06
2.29295e-07
2.2728e-07
-1.83295e-06
3.15696e-08
2.27202e-07
-2.24956e-06
5.30721e-08
2.54988e-07
-2.66703e-06
1.09766e-07
2.63132e-07
-3.03396e-06
1.03495e-07
2.48871e-07
-3.35359e-06
9.46414e-08
2.23606e-07
-3.62359e-06
8.53817e-08
1.88267e-07
7.59206e-08
1.45488e-07
-3.83788e-06
-1.14449e-06
2.20454e-07
2.56664e-07
-1.61961e-06
2.74555e-07
2.32111e-07
-2.09592e-06
2.6777e-07
2.61643e-07
-2.46189e-06
2.12137e-07
2.6353e-07
-2.7911e-06
1.83905e-07
2.48716e-07
-3.08476e-06
1.64531e-07
2.23631e-07
-3.33481e-06
1.45601e-07
1.89801e-07
1.29589e-07
1.48938e-07
-3.5375e-06
-1.5506e-06
3.26415e-07
2.41496e-07
-2.02307e-06
5.18239e-07
2.28175e-07
-2.43588e-06
4.32725e-07
2.47846e-07
-2.82368e-06
3.55176e-07
2.45251e-07
-3.18544e-06
3.19475e-07
2.27295e-07
-3.50548e-06
2.84463e-07
1.99064e-07
-3.77603e-06
2.54052e-07
1.61156e-07
2.32522e-07
1.15669e-07
-3.99399e-06
-1.71859e-06
6.00937e-07
1.89636e-07
-2.07333e-06
6.8056e-07
1.92745e-07
-2.46332e-06
6.13452e-07
2.10145e-07
-2.83344e-06
5.12224e-07
2.12261e-07
-3.1651e-06
4.5304e-07
1.95899e-07
-3.46454e-06
4.14947e-07
1.70002e-07
-3.73002e-06
3.85329e-07
1.35342e-07
3.61672e-07
9.3471e-08
-3.95191e-06
-2.14071e-06
1.37789e-07
7.17923e-07
-2.37764e-06
1.52558e-07
7.67865e-07
-2.62726e-06
1.66603e-07
6.96821e-07
-2.89635e-06
1.60042e-07
6.22364e-07
-3.18856e-06
1.46224e-07
5.99742e-07
-3.48814e-06
1.23456e-07
5.90404e-07
-3.77637e-06
9.1658e-08
5.82059e-07
5.25127e-08
5.6924e-07
-4.03632e-06
-2.38449e-06
-1.27527e-07
4.06446e-07
3.03687e-07
-2.85258e-06
-8.86535e-08
4.36611e-07
2.75163e-07
-3.30389e-06
-6.54983e-08
4.41121e-07
2.44275e-07
-3.72407e-06
-4.96986e-08
4.19916e-07
2.17554e-07
-4.09962e-06
-3.94043e-08
3.7719e-07
1.95058e-07
-4.42117e-06
-3.22091e-08
3.16844e-07
1.7576e-07
-4.68361e-06
-2.67642e-08
2.43633e-07
1.58853e-07
-2.2421e-08
1.6253e-07
1.43879e-07
-4.88636e-06
-2.40409e-06
1.74674e-08
5.56441e-07
-2.8957e-06
3.27273e-08
5.78603e-07
-3.35779e-06
4.47553e-08
5.78603e-07
-3.7809e-06
5.1807e-08
5.49373e-07
-4.15101e-06
5.30136e-08
4.93737e-07
-4.45624e-06
5.09371e-08
4.16546e-07
-4.68967e-06
4.74554e-08
3.23977e-07
4.33442e-08
2.22599e-07
-4.85033e-06
-2.25527e-06
1.72365e-07
6.63908e-07
-2.81642e-06
1.52361e-07
6.68613e-07
-3.32754e-06
1.43602e-07
6.67404e-07
-3.78076e-06
1.34616e-07
6.33567e-07
-4.16847e-06
1.21255e-07
5.68261e-07
-4.4787e-06
1.07194e-07
4.77562e-07
-4.70601e-06
9.37777e-08
3.69295e-07
8.15206e-08
2.51551e-07
-4.85033e-06
-2.16987e-06
3.76093e-07
7.20674e-07
-2.78591e-06
3.04174e-07
6.96324e-07
-3.32881e-06
2.59276e-07
6.88837e-07
-3.80493e-06
2.24284e-07
6.49974e-07
-4.20902e-06
1.94759e-07
5.79286e-07
-4.5305e-06
1.69888e-07
4.82413e-07
-4.76329e-06
1.48978e-07
3.67434e-07
1.31426e-07
2.42927e-07
-4.90715e-06
-2.33145e-06
5.62932e-07
6.77714e-07
-2.90408e-06
4.52481e-07
6.52409e-07
-3.41781e-06
3.78418e-07
6.42309e-07
-3.87491e-06
3.23969e-07
6.02543e-07
-4.26675e-06
2.81043e-07
5.32738e-07
-4.58138e-06
2.45302e-07
4.38191e-07
-4.81365e-06
2.15448e-07
3.26812e-07
1.90436e-07
2.06112e-07
-4.96318e-06
-2.59188e-06
6.68427e-07
5.45439e-07
-3.06357e-06
5.64117e-07
5.52747e-07
-3.51936e-06
4.98126e-07
5.46189e-07
-3.93823e-06
4.45288e-07
5.09897e-07
-4.30811e-06
4.00148e-07
4.46662e-07
-4.61572e-06
3.60771e-07
3.62122e-07
-4.85339e-06
3.25641e-07
2.62847e-07
2.93762e-07
1.54802e-07
-5.01801e-06
-2.64312e-06
4.00057e-07
7.6075e-07
-3.06153e-06
4.26239e-07
7.08697e-07
-3.47619e-06
4.25668e-07
6.53634e-07
-3.87288e-06
3.97521e-07
6.0437e-07
-4.23389e-06
3.46648e-07
5.60708e-07
-4.54754e-06
2.77489e-07
5.20354e-07
-4.80769e-06
1.95288e-07
4.82156e-07
1.04629e-07
4.45509e-07
-5.01154e-06
-3.15939e-06
6.8804e-08
8.71043e-07
1.50079e-07
-3.88316e-06
9.91372e-08
9.5065e-07
1.10445e-07
-4.61542e-06
1.11e-07
9.84043e-07
7.81989e-08
-5.33618e-06
1.15704e-07
9.7188e-07
5.29642e-08
-6.02427e-06
1.15674e-07
9.15759e-07
3.37617e-08
-6.65661e-06
1.12615e-07
8.1689e-07
1.96378e-08
-7.20669e-06
1.0772e-07
6.76236e-07
9.70071e-09
1.01862e-07
4.9747e-07
3.14358e-09
-7.64661e-06
-3.29598e-06
1.60226e-07
1.16052e-06
-4.01218e-06
1.69155e-07
1.22465e-06
-4.73763e-06
1.70744e-07
1.24421e-06
-5.4517e-06
1.66232e-07
1.21283e-06
-6.13029e-06
1.57397e-07
1.13054e-06
-6.74568e-06
1.46284e-07
9.9823e-07
-7.2649e-06
1.34159e-07
8.16792e-07
1.21538e-07
5.90773e-07
-7.65276e-06
-3.26474e-06
1.99467e-07
1.36609e-06
-4.01887e-06
1.83425e-07
1.4083e-06
-4.76884e-06
1.69224e-07
1.41882e-06
-5.49768e-06
1.53415e-07
1.37522e-06
-6.1828e-06
1.36094e-07
1.2747e-06
-6.79605e-06
1.19072e-07
1.11807e-06
-7.30205e-06
1.03161e-07
9.06433e-07
8.83659e-08
6.4514e-07
-7.66242e-06
-3.24455e-06
2.51989e-07
1.44837e-06
-4.02729e-06
1.95926e-07
1.4665e-06
-4.79607e-06
1.56122e-07
1.47065e-06
-5.53581e-06
1.21942e-07
1.42117e-06
-6.22574e-06
9.23905e-08
1.31288e-06
-6.83858e-06
6.7873e-08
1.14648e-06
-7.33939e-06
4.81457e-08
9.23292e-07
3.25069e-08
6.49093e-07
-7.6897e-06
-3.30516e-06
3.52993e-07
1.37402e-06
-4.08967e-06
2.4326e-07
1.38956e-06
-4.85354e-06
1.71175e-07
1.39105e-06
-5.58671e-06
1.16498e-07
1.3411e-06
-6.27059e-06
7.42363e-08
1.23474e-06
-6.87942e-06
4.21695e-08
1.07274e-06
-7.37965e-06
1.85954e-08
8.56618e-07
2.16933e-09
5.92281e-07
-7.73547e-06
-3.48796e-06
4.19351e-07
1.15198e-06
-4.19938e-06
3.10937e-07
1.19638e-06
-4.91885e-06
2.32681e-07
1.20399e-06
-5.62416e-06
1.70271e-07
1.16129e-06
-6.29201e-06
1.21081e-07
1.0676e-06
-6.89545e-06
8.32166e-08
9.24426e-07
-7.40242e-06
5.48317e-08
7.3352e-07
3.40495e-08
5.00395e-07
-7.77991e-06
-3.42044e-06
8.64526e-07
5.80034e-07
-4.10607e-06
9.34473e-07
4.88152e-07
-4.81294e-06
9.57484e-07
4.07544e-07
-5.51702e-06
9.33216e-07
3.38493e-07
-6.19374e-06
8.63949e-07
2.80357e-07
-6.81722e-06
7.51757e-07
2.32309e-07
-7.35928e-06
5.98656e-07
1.93456e-07
4.09527e-07
1.62905e-07
-7.79302e-06
-4.84058e-06
3.15026e-07
1.75971e-06
1.2854e-08
-6.1441e-06
3.17814e-07
1.96293e-06
-2.66972e-08
-7.48859e-06
3.1732e-07
2.06447e-06
-5.33774e-08
-8.79853e-06
3.09574e-07
2.04289e-06
-7.0785e-08
-9.97619e-06
2.95681e-07
1.87921e-06
-8.16373e-08
-1.09144e-05
2.77383e-07
1.5656e-06
-8.79715e-08
-1.15107e-05
2.56193e-07
1.10744e-06
-9.12808e-08
2.33801e-07
5.07117e-07
-9.25628e-08
-1.16616e-05
-5.04395e-06
3.67896e-07
2.28735e-06
-6.32584e-06
3.45458e-07
2.47882e-06
-7.66642e-06
3.3198e-07
2.57014e-06
-8.98644e-06
3.14464e-07
2.52801e-06
-1.01764e-05
2.92964e-07
2.32333e-06
-1.11092e-05
2.6824e-07
1.94018e-06
-1.16573e-05
2.40911e-07
1.38037e-06
2.11517e-07
6.44188e-07
-1.16883e-05
-5.13452e-06
2.56345e-07
2.64221e-06
-6.41423e-06
2.13594e-07
2.81973e-06
-7.75655e-06
1.85209e-07
2.90791e-06
-9.08402e-06
1.59168e-07
2.85798e-06
-1.02831e-05
1.35499e-07
2.63126e-06
-1.12149e-05
1.14382e-07
2.20384e-06
-1.17362e-05
9.53956e-08
1.57339e-06
7.7928e-08
7.3848e-07
-1.16958e-05
-5.1922e-06
8.91269e-08
2.77536e-06
-6.47387e-06
2.58674e-08
2.93596e-06
-7.81497e-06
-2.38204e-08
3.02083e-06
-9.14144e-06
-6.0779e-08
2.96767e-06
-1.03404e-05
-8.56067e-08
2.73303e-06
-1.12695e-05
-9.94202e-08
2.28953e-06
-1.17799e-05
-1.03794e-07
1.63303e-06
-1.00664e-07
7.6178e-07
-1.17139e-05
-5.19414e-06
1.13948e-08
2.65128e-06
-6.49447e-06
-9.32184e-08
2.80906e-06
-7.84414e-06
-1.71517e-07
2.88846e-06
-9.17169e-06
-2.24275e-07
2.83225e-06
-1.03673e-05
-2.55502e-07
2.60035e-06
-1.12938e-05
-2.6855e-07
2.16854e-06
-1.18085e-05
-2.66935e-07
1.53456e-06
-2.53935e-07
6.98125e-07
-1.1761e-05
-5.23978e-06
2.89325e-08
2.28614e-06
-6.50673e-06
-9.08201e-08
2.46095e-06
-7.83719e-06
-1.77609e-07
2.54049e-06
-9.14845e-06
-2.39532e-07
2.48781e-06
-1.03295e-05
-2.8032e-07
2.27349e-06
-1.12525e-05
-3.02652e-07
1.88159e-06
-1.17895e-05
-3.10676e-07
1.31424e-06
-3.084e-07
5.73985e-07
-1.18084e-05
-5.02889e-06
1.75979e-06
2.96029e-07
-6.30367e-06
1.95501e-06
1.6335e-07
-7.63468e-06
2.04823e-06
6.25624e-08
-8.94264e-06
2.01723e-06
-1.56325e-08
-1.01218e-05
1.84297e-06
-8.02482e-08
-1.10631e-05
1.51767e-06
-1.27312e-07
-1.16599e-05
1.04765e-06
-1.62927e-07
4.38771e-07
-1.89599e-07
-1.18079e-05
-5.7473e-06
4.74765e-07
-6.76092e-08
2.76888e-06
-7.31637e-06
4.47515e-07
-1.01784e-07
3.18656e-06
-9.06239e-06
4.37214e-07
-1.19165e-07
3.49277e-06
-1.09689e-05
4.26008e-07
-1.26344e-07
3.64998e-06
-1.3011e-05
4.14504e-07
-1.26586e-07
3.6335e-06
-1.51605e-05
4.01984e-07
-1.22295e-07
3.43551e-06
-1.73833e-05
3.81346e-07
-1.15173e-07
3.06421e-06
3.48546e-07
-1.06463e-07
-1.97035e-05
2.5854e-06
-6.07098e-06
5.12995e-07
3.5458e-06
-7.55863e-06
4.53651e-07
3.96057e-06
-9.24014e-06
4.23198e-07
4.26587e-06
-1.10974e-05
3.99505e-07
4.41192e-06
-1.3097e-05
3.79596e-07
4.35794e-06
-1.51976e-05
3.60964e-07
4.08167e-06
-1.73623e-05
3.38839e-07
3.5877e-06
3.08234e-07
-1.96459e-05
2.96821e-06
-6.32021e-06
2.99619e-07
4.05775e-06
-7.72887e-06
2.17578e-07
4.46457e-06
-9.34207e-06
1.6927e-07
4.77528e-06
-1.11453e-05
1.35446e-07
4.92546e-06
-1.3105e-05
1.12592e-07
4.85818e-06
-1.51745e-05
9.79408e-08
4.53667e-06
-1.73085e-05
8.81784e-08
3.95825e-06
7.95292e-08
-1.95762e-05
3.23506e-06
-6.46201e-06
-4.21218e-08
4.25151e-06
-7.82273e-06
-1.28268e-07
4.64267e-06
-9.39408e-06
-1.89686e-07
4.95122e-06
-1.11628e-05
-2.30721e-07
5.10272e-06
-1.30964e-05
-2.52676e-07
5.03216e-06
-1.51469e-05
-2.57682e-07
4.69607e-06
-1.72658e-05
-2.48012e-07
4.08843e-06
-2.2556e-07
-1.95261e-05
3.32751e-06
-6.39229e-06
-2.9309e-07
4.0754e-06
-7.78198e-06
-3.92877e-07
4.46371e-06
-9.37241e-06
-4.75279e-07
4.76486e-06
-1.11516e-05
-5.29038e-07
4.91013e-06
-1.30888e-05
-5.55838e-07
4.84103e-06
-1.51392e-05
-5.58376e-07
4.5199e-06
-1.72581e-05
-5.3738e-07
3.94312e-06
-4.92808e-07
-1.95133e-05
3.2208e-06
-6.20427e-06
-3.41487e-07
3.55669e-06
-7.6401e-06
-4.51928e-07
3.95619e-06
-9.27467e-06
-5.52218e-07
4.25233e-06
-1.10874e-05
-6.21451e-07
4.39336e-06
-1.30458e-05
-6.61025e-07
4.3374e-06
-1.51109e-05
-6.73159e-07
4.06154e-06
-1.72477e-05
-6.54805e-07
3.56854e-06
-6.06102e-07
-1.95098e-05
2.9495e-06
-5.78798e-06
-3.60847e-09
2.77964e-06
-7.30044e-06
-1.76879e-07
3.19267e-06
-9.00606e-06
-2.94939e-07
3.49679e-06
-1.08832e-05
-3.79685e-07
3.65285e-06
-1.29019e-05
-4.34115e-07
3.63491e-06
-1.50315e-05
-4.60829e-07
3.43498e-06
-1.7236e-05
-4.62769e-07
3.06017e-06
-4.43251e-07
-1.95374e-05
2.57761e-06
-1.1291e-06
3.57505e-07
1.98847e-07
-2.30383e-07
-1.31722e-06
1.93201e-07
2.06286e-07
-2.12491e-07
-1.55087e-06
1.5774e-07
2.12132e-07
-1.35911e-07
-1.9033e-06
2.58966e-07
2.04441e-07
-1.11013e-07
-2.27826e-06
2.80748e-07
1.85114e-07
-9.09221e-08
-2.65658e-06
3.05262e-07
1.55596e-07
-8.26668e-08
-3.02005e-06
3.23864e-07
1.17006e-07
-7.73908e-08
3.37163e-07
7.1321e-08
-7.32281e-08
-3.35533e-06
-7.6985e-07
3.88723e-07
3.3669e-07
-9.1644e-07
5.9783e-08
2.80844e-07
-1.14277e-06
7.3843e-08
3.09817e-07
-1.39098e-06
1.9638e-07
3.10313e-07
-1.63799e-06
2.25602e-07
3.02376e-07
-1.88415e-06
2.65467e-07
2.86309e-07
-2.1183e-06
2.97466e-07
2.60578e-07
3.25918e-07
2.28579e-07
-2.33607e-06
-8.19112e-07
-1.04666e-07
5.43698e-07
-9.46878e-07
-1.67066e-07
3.54512e-07
-1.10927e-06
-1.54922e-07
3.90646e-07
-1.2289e-06
-8.64576e-08
4.02996e-07
-1.36508e-06
-5.91456e-08
4.20421e-07
-1.4921e-06
-3.52299e-08
4.27563e-07
-1.61813e-06
3.6865e-09
4.19899e-07
4.67111e-08
4.05934e-07
-1.74474e-06
-8.18893e-07
-6.96651e-07
6.12155e-07
-1.06367e-06
-3.0118e-07
3.85068e-07
-1.24461e-06
-3.94347e-07
4.20194e-07
-1.3739e-06
-3.98998e-07
4.41876e-07
-1.50682e-06
-3.98821e-07
4.72552e-07
-1.63451e-06
-4.02783e-07
4.95341e-07
-1.70873e-06
-4.30223e-07
5.08117e-07
-4.36261e-07
5.0577e-07
-1.73154e-06
-3.77143e-07
-1.11883e-06
4.68249e-07
-5.18892e-07
-4.90482e-07
3.20927e-07
-8.09019e-07
-4.88e-07
3.73735e-07
-1.02103e-06
-5.65139e-07
3.79324e-07
-1.24182e-06
-5.65e-07
3.87206e-07
-1.47583e-06
-5.48795e-07
3.80289e-07
-1.70814e-06
-5.71479e-07
3.73705e-07
-5.80453e-07
3.54173e-07
-1.91777e-06
-9.49631e-07
-8.14158e-07
3.00461e-07
-1.1455e-06
-5.63946e-07
2.59484e-07
-1.36426e-06
-5.40569e-07
2.95196e-07
-1.60381e-06
-6.17624e-07
2.92554e-07
-1.83425e-06
-6.23105e-07
2.87726e-07
-2.04506e-06
-6.07368e-07
2.69148e-07
-2.26774e-06
-5.9542e-07
2.47176e-07
-5.91029e-07
2.19072e-07
-2.47571e-06
-1.03288e-06
1.91046e-07
-5.68889e-07
-1.24264e-06
2.02023e-07
-5.44868e-07
-1.52554e-06
2.11762e-07
-4.68596e-07
-1.93838e-06
2.08609e-07
-4.14035e-07
-2.36706e-06
1.95151e-07
-3.89744e-07
-2.7655e-06
1.716e-07
-3.80112e-07
-3.13576e-06
1.39785e-07
-3.65222e-07
1.02002e-07
-3.50447e-07
-3.47849e-06
-1.43106e-06
2.4327e-07
4.9108e-07
-1.47498e-07
-1.88725e-06
2.74392e-07
5.06606e-07
-1.18576e-07
-2.35369e-06
2.69564e-07
5.05995e-07
-9.69637e-08
-2.81267e-06
2.7199e-07
4.75171e-07
-8.3705e-08
-3.2433e-06
2.72758e-07
4.16904e-07
-7.38746e-08
-3.63098e-06
2.73657e-07
3.36584e-07
-6.68834e-08
-3.96659e-06
2.73394e-07
2.40894e-07
-6.16557e-08
2.71489e-07
1.35762e-07
-5.76158e-08
-4.24488e-06
-1.40004e-06
1.5778e-07
7.93797e-07
-1.7482e-06
1.69242e-07
7.34169e-07
-2.1004e-06
1.96315e-07
7.35215e-07
-2.46299e-06
2.26021e-07
7.18752e-07
-2.81236e-06
2.50235e-07
6.74135e-07
-3.12944e-06
2.74666e-07
6.02369e-07
-3.40024e-06
2.95961e-07
5.0882e-07
3.13057e-07
4.03271e-07
-3.61646e-06
-1.1778e-06
-1.97458e-07
1.23471e-06
-1.46611e-06
-1.6475e-07
9.77142e-07
-1.72337e-06
-1.1724e-07
9.61323e-07
-1.98808e-06
-7.80092e-08
9.71837e-07
-2.23247e-06
-4.62469e-08
9.61322e-07
-2.43535e-06
-1.50948e-08
9.20162e-07
-2.58598e-06
1.41263e-08
8.52289e-07
3.98404e-08
7.66722e-07
-2.6736e-06
-1.09734e-06
-6.46987e-07
1.41302e-06
-1.39327e-06
-5.40572e-07
1.05676e-06
-1.63422e-06
-4.93715e-07
1.03753e-06
-1.8733e-06
-4.63145e-07
1.06602e-06
-2.08535e-06
-4.4017e-07
1.07846e-06
-2.24465e-06
-4.22752e-07
1.06232e-06
-2.3354e-06
-4.07473e-07
1.0205e-06
-3.92295e-07
9.61048e-07
-2.35848e-06
-1.08852e-06
-8.49084e-07
1.08285e-06
-1.44122e-06
-7.64702e-07
9.03407e-07
-1.75428e-06
-7.21273e-07
9.13979e-07
-2.06479e-06
-6.98156e-07
9.24703e-07
-2.35245e-06
-6.76598e-07
9.11124e-07
-2.60553e-06
-6.58819e-07
8.693e-07
-2.79935e-06
-6.43483e-07
8.03441e-07
-6.28959e-07
7.22538e-07
-2.93109e-06
-1.21998e-06
-7.7387e-07
7.18394e-07
-1.67351e-06
-7.54585e-07
6.98097e-07
-2.09482e-06
-7.12567e-07
7.07733e-07
-2.50942e-06
-6.85052e-07
6.94249e-07
-2.89502e-06
-6.57623e-07
6.54374e-07
-3.24275e-06
-6.3241e-07
5.9047e-07
-3.53938e-06
-6.08059e-07
5.08353e-07
-5.84149e-07
4.13552e-07
-3.7786e-06
-1.18852e-06
4.72556e-07
-5.54432e-07
-1.73187e-06
4.98341e-07
-5.07687e-07
-2.26801e-06
5.02639e-07
-4.67063e-07
-2.78762e-06
4.77322e-07
-4.33936e-07
-3.2694e-06
4.25724e-07
-4.06879e-07
-3.69973e-06
3.52849e-07
-3.83371e-07
-4.07182e-06
2.65365e-07
-3.61568e-07
1.69527e-07
-3.40886e-07
-4.38261e-06
-2.2893e-06
3.22041e-07
9.52885e-07
-1.11899e-07
-3.02935e-06
3.31007e-07
1.0049e-06
-8.92622e-08
-3.79004e-06
3.18086e-07
1.02641e-06
-7.77951e-08
-4.54322e-06
3.01071e-07
9.98658e-07
-7.14484e-08
-5.26396e-06
2.82958e-07
9.22087e-07
-6.74103e-08
-5.92639e-06
2.6389e-07
7.99866e-07
-6.46825e-08
-6.50254e-06
2.4421e-07
6.35325e-07
-6.25508e-08
2.25142e-07
4.3467e-07
-6.02549e-08
-6.96628e-06
-2.18174e-06
2.49453e-07
1.44563e-06
-2.79201e-06
2.82402e-07
1.39306e-06
-3.44853e-06
3.00615e-07
1.4092e-06
-4.12322e-06
3.01813e-07
1.39265e-06
-4.78729e-06
3.00083e-07
1.32188e-06
-5.41069e-06
2.95519e-07
1.19464e-06
-5.95684e-06
2.877e-07
1.01193e-06
2.76233e-07
7.79885e-07
-6.384e-06
-1.83401e-06
-1.37825e-07
2.08759e-06
-2.29098e-06
-6.99019e-08
1.78629e-06
-2.79743e-06
-1.02028e-08
1.77848e-06
-3.34593e-06
2.59146e-08
1.79622e-06
-3.90424e-06
5.23681e-08
1.76741e-06
-4.44033e-06
7.48802e-08
1.67684e-06
-4.91497e-06
9.28573e-08
1.52143e-06
1.06457e-07
1.30622e-06
-5.28467e-06
-1.68419e-06
-6.43047e-07
2.38464e-06
-2.10341e-06
-5.36464e-07
1.9424e-06
-2.55192e-06
-4.51725e-07
1.92736e-06
-3.04368e-06
-3.88069e-07
1.97158e-06
-3.54843e-06
-3.39117e-07
1.97462e-06
-4.02869e-06
-2.97872e-07
1.91524e-06
-4.4405e-06
-2.62064e-07
1.78718e-06
-2.31559e-07
1.59509e-06
-4.73649e-06
-1.83878e-06
-9.13143e-07
1.91321e-06
-2.37722e-06
-8.10215e-07
1.71541e-06
-2.9365e-06
-7.24974e-07
1.74627e-06
-3.51936e-06
-6.5537e-07
1.77466e-06
-4.10352e-06
-5.96054e-07
1.75246e-06
-4.65945e-06
-5.42345e-07
1.66995e-06
-5.14902e-06
-4.94293e-07
1.5251e-06
-4.50019e-07
1.32168e-06
-5.52971e-06
-1.99484e-06
-8.25358e-07
1.35748e-06
-2.71343e-06
-7.6158e-07
1.36774e-06
-3.43933e-06
-6.96394e-07
1.40477e-06
-4.16542e-06
-6.36773e-07
1.4015e-06
-4.87083e-06
-5.80769e-07
1.34434e-06
-5.51809e-06
-5.28585e-07
1.23123e-06
-6.08814e-06
-4.80265e-07
1.06279e-06
-4.37218e-07
8.42223e-07
-6.53128e-06
-2.05124e-06
9.32672e-07
-4.97677e-07
-2.87644e-06
1.00162e-06
-4.39923e-07
-3.70558e-06
1.03139e-06
-3.96159e-07
-4.51738e-06
1.01177e-06
-3.59659e-07
-5.28897e-06
9.44175e-07
-3.27831e-07
-5.99666e-06
8.31117e-07
-2.99303e-07
-6.61331e-06
6.75105e-07
-2.73426e-07
4.81691e-07
-2.49457e-07
-7.11329e-06
-4.08223e-06
4.49856e-07
1.84722e-06
-6.88444e-08
-5.46401e-06
4.13967e-07
2.02593e-06
-5.33735e-08
-6.88161e-06
3.71651e-07
2.11832e-06
-4.59588e-08
-8.25138e-06
3.21053e-07
2.0886e-06
-4.1393e-08
-9.47258e-06
2.65423e-07
1.91552e-06
-3.77614e-08
-1.04374e-05
2.09227e-07
1.58987e-06
-3.45125e-08
-1.10412e-05
1.5457e-07
1.11579e-06
-3.13887e-08
1.01889e-07
4.96213e-07
-2.82697e-08
-1.11764e-05
-3.73961e-06
4.3878e-07
2.5694e-06
-5.03e-06
4.35497e-07
2.66191e-06
-6.40035e-06
4.02236e-07
2.7485e-06
-7.76323e-06
3.54993e-07
2.72114e-06
-9.00926e-06
3.03108e-07
2.52967e-06
-1.00044e-05
2.47742e-07
2.15211e-06
-1.06154e-05
1.91682e-07
1.58677e-06
1.36232e-07
8.28728e-07
-1.06982e-05
-3.15425e-06
-1.02652e-08
3.34115e-06
-4.23818e-06
9.17128e-08
3.2141e-06
-5.48635e-06
1.3389e-07
3.29469e-06
-6.78951e-06
1.48705e-07
3.30518e-06
-8.01988e-06
1.53489e-07
3.14733e-06
-9.02506e-06
1.51422e-07
2.77903e-06
-9.64701e-06
1.44294e-07
2.18986e-06
1.32567e-07
1.36282e-06
-9.69658e-06
-2.8568e-06
-6.09067e-07
3.72333e-06
-3.84199e-06
-4.2962e-07
3.44895e-06
-5.0119e-06
-3.01292e-07
3.5323e-06
-6.25755e-06
-2.15021e-07
3.58088e-06
-7.44602e-06
-1.49965e-07
3.46673e-06
-8.41842e-06
-9.86926e-08
3.13775e-06
-9.00328e-06
-5.92819e-08
2.57556e-06
-2.89937e-08
1.7482e-06
-8.99419e-06
-3.2472e-06
-9.488e-07
3.19104e-06
-4.38106e-06
-7.49854e-07
3.16973e-06
-5.63093e-06
-5.92209e-07
3.28715e-06
-6.92242e-06
-4.62211e-07
3.31331e-06
-8.13647e-06
-3.50799e-07
3.16733e-06
-9.1207e-06
-2.52713e-07
2.81109e-06
-9.70954e-06
-1.70171e-07
2.23306e-06
-9.7862e-08
1.41632e-06
-9.73392e-06
-3.66261e-06
-8.22666e-07
2.49603e-06
-5.01881e-06
-6.76348e-07
2.65035e-06
-6.40881e-06
-5.52133e-07
2.7611e-06
-7.78277e-06
-4.36714e-07
2.74811e-06
-9.03031e-06
-3.30937e-07
2.5698e-06
-1.00233e-05