/*--------------------------------*- C++ -*----------------------------------*\
| =========                 |                                                 |
| \\      /  F ield         | OpenFOAM: The Open Source CFD Toolbox           |
|  \\    /   O peration     | Version:  plus.master.MPPICInterFoam            |
|   \\  /    A nd           | Web:      www.OpenFOAM.com                      |
|    \\/     M anipulation  |                                                 |
\*---------------------------------------------------------------------------*/
FoamFile
{
    version     2.0;
    format      ascii;
    class       scalarField;
    location    "4.4/lagrangian/kinematicCloud";
    object      age;
}
// * * * * * * * * * * * * * * * * * * * * * * * * * * * * * * * * * * * * * //


25
(
4.28847
4.16386
4.33742
4.14573
4.13752
4.35642
4.19331
4.38762
4.10042
4.23934
4.39125
4.14332
4.36459
4.06554
4.12165
4.3088
4.13398
4.04966
4.35062
4.12403
4.39155
4.33042
3.9977
4.28366
4.25971
)


// ************************************************************************* //
