/*--------------------------------*- C++ -*----------------------------------*\
| =========                 |                                                 |
| \\      /  F ield         | OpenFOAM: The Open Source CFD Toolbox           |
|  \\    /   O peration     | Version:  plus.master.MPPICInterFoam            |
|   \\  /    A nd           | Web:      www.OpenFOAM.com                      |
|    \\/     M anipulation  |                                                 |
\*---------------------------------------------------------------------------*/
FoamFile
{
    version     2.0;
    format      ascii;
    class       Cloud<basicKinematicMPPICParcel>;
    location    "4.4/lagrangian/kinematicCloud";
    object      positions;
}
// * * * * * * * * * * * * * * * * * * * * * * * * * * * * * * * * * * * * * //

25
(
(-0.00102595 -0.0189571 0.342281) 10524
(-0.00225401 -0.0194991 0.339639) 10524
(-0.0190355 -0.00303596 0.342176) 10364
(-0.019487 -0.000572975 0.339557) 10356
(0.0190999 0.000891812 0.333097) 10172
(0.0193284 0.00100054 0.321503) 10116
(-0.0192997 0.000871698 0.331099) 10300
(-0.0194533 -0.00261336 0.328554) 10308
(-0.00269184 -0.0182001 0.324819) 10459
(-0.000388346 -0.0184483 0.321596) 10411
(-0.00233697 0.0201183 0.317646) 10580
(-0.019706 0.00164309 0.322139) 10244
(-0.0197538 -0.0024304 0.296649) 5240
(-0.0190389 -0.00354175 0.296628) 5248
(-0.00182553 -0.0181305 0.302249) 6023
(0.0189616 -0.00327031 0.287519) 4392
(0.000254666 0.0173606 0.242985) 6471
(-0.00227784 0.0167239 0.241262) 6479
(-0.0158262 -0.00431315 0.213178) 4743
(0.0186986 0.000638593 0.207342) 3951
(-0.015682 -0.00164732 0.200574) 4678
(-0.00352104 -0.0176009 0.191396) 5399
(-0.00293777 0.0159613 0.191264) 6199
(-0.00190147 -0.0168327 0.178279) 5351
(0.0171904 -0.00207679 0.176741) 3783
)


// ************************************************************************* //
