/*--------------------------------*- C++ -*----------------------------------*\
| =========                 |                                                 |
| \\      /  F ield         | OpenFOAM: The Open Source CFD Toolbox           |
|  \\    /   O peration     | Version:  plus.master.MPPICInterFoam            |
|   \\  /    A nd           | Web:      www.OpenFOAM.com                      |
|    \\/     M anipulation  |                                                 |
\*---------------------------------------------------------------------------*/
FoamFile
{
    version     2.0;
    format      ascii;
    class       volScalarField;
    location    "3";
    object      epsilon;
}
// * * * * * * * * * * * * * * * * * * * * * * * * * * * * * * * * * * * * * //

dimensions      [0 2 -3 0 0 0 0];

internalField   nonuniform List<scalar> 
11821
(
0.000234699
0.000347531
0.00122095
0.00265335
0.00115587
0.000292724
0.000199916
0.000336187
0.00430369
0.0349994
0.0892769
0.0368532
0.00398283
0.000281592
0.0012111
0.0374543
0.077145
0.719825
0.0862849
0.0402746
0.00128768
0.00208783
0.0738126
0.531519
0.614419
0.573719
0.120974
0.00386465
0.0010215
0.0330589
0.0721697
0.493608
0.0837325
0.0367494
0.00115745
0.000304441
0.00387839
0.0372849
0.139141
0.0369201
0.00358674
0.000268883
0.000216499
0.00029326
0.00110611
0.00294398
0.000969026
0.000252361
0.00019003
0.0010427
0.00490678
0.0225968
0.0576611
0.0338868
0.00746079
0.00119768
0.00430108
0.0247609
0.123817
0.374191
0.223453
0.0608287
0.00863574
0.0150665
0.0982739
0.392015
1.80173
0.726259
0.302134
0.0532662
0.0220943
0.207941
2.06482
1.70884
1.47578
0.881784
0.129024
0.0105951
0.093388
0.582516
1.44299
1.01178
0.310851
0.0389627
0.00268991
0.0163016
0.140672
0.880606
0.250992
0.0419143
0.00478742
0.000779911
0.00270609
0.013598
0.0624197
0.0207878
0.00381683
0.000833235
0.00391739
0.0172951
0.0697236
0.163147
0.123785
0.0377013
0.00620147
0.0137486
0.0741484
0.305274
0.828658
0.643231
0.230695
0.0420537
0.0392944
0.226016
0.992646
2.38569
1.80072
0.865193
0.180372
0.0532401
0.417417
3.08962
2.38621
2.09568
2.02217
0.336543
0.0237979
0.181536
1.24942
2.19018
2.47072
0.815599
0.124704
0.00638789
0.0348789
0.24148
1.17237
0.545
0.131808
0.0169506
0.00233045
0.00618644
0.0271371
0.0992831
0.0516552
0.0120531
0.00287717
0.0103379
0.0350533
0.122313
0.259324
0.215723
0.0759255
0.0161734
0.0280354
0.132394
0.476516
1.16039
1.00743
0.397184
0.0800979
0.0669725
0.344917
1.39418
2.45994
2.38058
1.26606
0.276763
0.0839296
0.532905
3.0598
2.54451
2.49809
2.58653
0.446849
0.0399654
0.237379
1.25375
2.54587
3.00886
1.02153
0.176182
0.0134607
0.0549227
0.265567
0.874934
0.617258
0.184733
0.0301638
0.00645582
0.0127609
0.0384355
0.0988541
0.069547
0.0221896
0.00770047
0.0136034
0.0431088
0.144579
0.297697
0.250752
0.0870393
0.0194403
0.035171
0.159919
0.549433
1.28416
1.15597
0.455839
0.0883618
0.0799064
0.387571
1.4764
2.32819
2.41643
1.38586
0.292811
0.0953376
0.527058
2.62555
2.43682
2.54507
2.47879
0.427698
0.0470951
0.2401
1.03093
2.58549
2.73539
0.916323
0.162454
0.0171877
0.0620089
0.244177
0.627492
0.535187
0.17076
0.0309634
0.00879253
0.0160429
0.0412226
0.0882937
0.0669089
0.0238596
0.0097028
0.000190094
0.000186537
0.000177095
0.000168917
0.000158796
0.000148908
0.00014025
0.000132974
0.000213271
0.000205862
0.000198312
0.000187463
0.000176204
0.000165466
0.000154473
0.000145372
0.000403121
0.000265444
0.000229069
0.000207914
0.000194036
0.000183398
0.000173616
0.000164972
0.000779878
0.000318622
0.000231686
0.000210117
0.000204018
0.000197162
0.000190044
0.000182545
0.000393157
0.000265687
0.000227412
0.00020765
0.000194469
0.000184792
0.000175192
0.000166773
0.000210088
0.000201815
0.000195891
0.000184401
0.000173781
0.000163048
0.000153051
0.000143997
0.000184348
0.000182599
0.000174219
0.000164778
0.000155075
0.0001459
0.000137783
0.000131084
0.00040519
0.000302354
0.000265365
0.000237781
0.000216067
0.000198712
0.000184567
0.00017285
0.00113595
0.000415857
0.000303009
0.000257292
0.000228083
0.000206
0.000188438
0.000174141
0.00510199
0.000770428
0.000369762
0.000286641
0.000249273
0.000223276
0.000202062
0.000184689
0.0119737
0.00120829
0.000422279
0.00030402
0.000261443
0.000234408
0.000212245
0.000193997
0.00320422
0.000621954
0.000353144
0.000283929
0.000248479
0.000222798
0.000201606
0.00018422
0.000736517
0.000374203
0.000295437
0.000254495
0.000226189
0.000204429
0.000187009
0.000172857
0.000376174
0.000300753
0.000262792
0.000234868
0.000213252
0.000195919
0.000181812
0.000170082
0.00160325
0.0011049
0.000980211
0.000878271
0.000775318
0.000669307
0.000563114
0.000462893
0.00530204
0.001619
0.00111752
0.000941234
0.000815992
0.000697742
0.000580505
0.000469388
0.0209701
0.00310901
0.00138002
0.00104339
0.000883175
0.000748302
0.000616162
0.000490676
0.0374126
0.00433517
0.00155393
0.00111321
0.000932911
0.000788208
0.000646366
0.000510768
0.0119648
0.00230165
0.00128334
0.0010291
0.000881917
0.000749343
0.000617459
0.000491653
0.00264786
0.00132041
0.00106711
0.000929564
0.000811994
0.000695817
0.000579334
0.000468384
0.00130835
0.00108094
0.000970501
0.000869747
0.000768232
0.000663639
0.000558352
0.000458496
0.00560759
0.00407159
0.00351087
0.00307199
0.00269326
0.00238453
0.00214027
0.0019127
0.0133
0.00534102
0.00387654
0.00324356
0.00278958
0.00243331
0.00216009
0.00191794
0.0379661
0.00815811
0.00440382
0.00343433
0.00289589
0.00249573
0.00219375
0.00193433
0.0557649
0.00966046
0.00463564
0.00352427
0.0029523
0.00253214
0.00221458
0.00194374
0.0222686
0.0063727
0.00411596
0.00336214
0.00286801
0.00248143
0.00218504
0.00192802
0.00726315
0.00440872
0.00364575
0.00315304
0.0027402
0.0024022
0.00213875
0.00190184
0.00448632
0.00379668
0.00337082
0.0029782
0.00262671
0.00233617
0.00210335
0.00188259
0.0078018
0.00631504
0.00599248
0.00583043
0.00563182
0.00522948
0.00448173
0.00349168
0.0159509
0.00747961
0.00614473
0.00579752
0.00560579
0.00528813
0.00462793
0.00365846
0.0407794
0.0102721
0.00655192
0.00586238
0.00562957
0.00534743
0.00473375
0.00377364
0.0542497
0.0114298
0.00670079
0.00589306
0.00564383
0.00536994
0.00476972
0.00381133
0.0233151
0.0082846
0.00621699
0.00575901
0.00557096
0.00530544
0.00470763
0.00376496
0.00920139
0.00641025
0.00585147
0.0056512
0.00550125
0.00520941
0.00457938
0.0036432
0.0064823
0.00593862
0.00576799
0.00565512
0.00548777
0.00511924
0.00441579
0.00347353
0.000216063
0.000211659
0.000198116
0.000185712
0.000174789
0.000163131
0.000153006
0.000143597
0.000271904
0.000269614
0.000254385
0.000241387
0.00022863
0.000216226
0.000208115
0.000199292
0.000422407
0.000317192
0.000287718
0.000275232
0.000267226
0.000260669
0.000255035
0.00025025
0.000577831
0.000351805
0.000303717
0.000288585
0.000280503
0.000274493
0.000269662
0.000265885
0.000449782
0.000324717
0.000293076
0.000281495
0.00027395
0.000267595
0.000262367
0.000257896
0.000281714
0.000274178
0.00025634
0.0002462
0.000237631
0.000226933
0.000215614
0.000208673
0.000225672
0.000219482
0.000207308
0.000196587
0.000184063
0.000171518
0.000160618
0.000150212
0.000431868
0.000333946
0.000287911
0.000256346
0.000231753
0.000211841
0.000195514
0.000181886
0.000764573
0.000449371
0.000359631
0.000315968
0.000286093
0.000261693
0.000240739
0.000221838
0.00171448
0.00067478
0.000461861
0.000385755
0.000343317
0.000312073
0.000286154
0.000263917
0.00296496
0.000887887
0.000530044
0.000424883
0.00037488
0.000342157
0.000317361
0.000297761
0.00234445
0.000767848
0.000485397
0.000397418
0.00035199
0.000319607
0.000293062
0.000270376
0.000965278
0.000487585
0.000374959
0.000326617
0.000295597
0.000270764
0.000249424
0.000230544
0.000463491
0.000343447
0.000295876
0.000264244
0.000239732
0.000219869
0.000203486
0.00018964
0.00145787
0.00118896
0.00104845
0.000932586
0.000819116
0.000703364
0.000587919
0.00047961
0.00226448
0.00147136
0.00121448
0.00106464
0.000934398
0.00080201
0.000666282
0.000535569
0.00462264
0.00199971
0.00142552
0.00120278
0.00105001
0.00090379
0.000752099
0.000602016
0.00813977
0.00255365
0.00157087
0.00127517
0.001108
0.000959862
0.000808035
0.000656638
0.006882
0.00233231
0.00149609
0.00122949
0.0010673
0.000917631
0.000763328
0.000610731
0.00327068
0.00165055
0.0012641
0.00108875
0.000951814
0.000816093
0.000677547
0.00054422
0.00167963
0.00123522
0.00106848
0.000947132
0.000831127
0.000713275
0.000596065
0.000486402
0.00467002
0.00398954
0.00351945
0.00309856
0.0027256
0.00241764
0.00217063
0.00193684
0.00622958
0.00458296
0.003878
0.00336644
0.0029281
0.00256442
0.00227718
0.00201673
0.0103616
0.00559079
0.00429685
0.00363101
0.00312074
0.00270229
0.00237206
0.0020796
0.0162916
0.00663923
0.00460036
0.00378613
0.00323445
0.00279777
0.0024584
0.00216121
0.0145459
0.00632933
0.00448006
0.00370171
0.00316061
0.00272894
0.00239077
0.00209286
0.00861557
0.00512703
0.00406232
0.00346005
0.00298888
0.00260753
0.00230895
0.0020407
0.00544838
0.00425306
0.00366101
0.0031954
0.00279687
0.00247135
0.00221233
0.00197012
0.00675552
0.00617922
0.00595064
0.00579877
0.00559645
0.0051896
0.00444343
0.00346298
0.00852466
0.00667587
0.00611567
0.00586538
0.0056628
0.00531093
0.00461143
0.00360866
0.0134413
0.00777032
0.00644977
0.00600444
0.00574989
0.0054014
0.00471042
0.00368149
0.0204511
0.00899582
0.00674912
0.00610685
0.00578865
0.00540321
0.00467267
0.00359729
0.0185096
0.00866289
0.00667089
0.00609495
0.00580695
0.00544224
0.00473498
0.00368847
0.0114881
0.00735388
0.00635471
0.00600055
0.00576218
0.00538513
0.00465581
0.00362012
0.00773777
0.0065321
0.00615948
0.00595874
0.00572641
0.00528719
0.00449912
0.00347386
0.000223421
0.000219232
0.000207621
0.000193834
0.000180762
0.000167829
0.000156587
0.000146516
0.000297115
0.000266798
0.000233567
0.000220985
0.000212293
0.000202387
0.000194361
0.000186772
0.000457176
0.000316187
0.000279335
0.000265466
0.000256766
0.000249503
0.000243165
0.000237446
0.000642496
0.00035
0.000296621
0.000284648
0.000280267
0.000277079
0.000274768
0.000273008
0.000439696
0.00031099
0.000277873
0.000266443
0.000259042
0.000252558
0.000246242
0.000240737
0.000265057
0.000256437
0.000239182
0.000223387
0.000212412
0.00020397
0.000195133
0.000188142
0.000203937
0.000203479
0.0001933
0.000183776
0.000173444
0.000163189
0.000153266
0.000144735
0.000457308
0.000337393
0.000291637
0.000260203
0.000235682
0.000216
0.000200017
0.000186723
0.00104783
0.000491104
0.00036977
0.000317216
0.000283433
0.000257507
0.000236045
0.000217826
0.00337702
0.000888743
0.000505084
0.000401671
0.000353748
0.000321474
0.000295635
0.000273787
0.00723329
0.00129621
0.000585778
0.000442892
0.000391461
0.000361358
0.000338725
0.000320367
0.00377296
0.000846861
0.000479518
0.000387887
0.00034519
0.000315517
0.000291185
0.000270312
0.00107733
0.000460938
0.000352044
0.00030733
0.00027776
0.000254083
0.000234111
0.000216963
0.000420583
0.000318419
0.000280678
0.000252649
0.000230134
0.000211751
0.000196506
0.000183714
0.00166826
0.00121997
0.0010654
0.000947957
0.00083353
0.000716588
0.000599901
0.000490424
0.00386304
0.00172501
0.00128542
0.00110071
0.000962356
0.000827408
0.000689854
0.000556971
0.0122455
0.00304536
0.00163722
0.00128482
0.00110833
0.00095722
0.000802458
0.000647809
0.0252006
0.00448614
0.00187963
0.00138332
0.00118944
0.00104091
0.000889605
0.000734871
0.0167526
0.0032837
0.00163565
0.00127512
0.00110306
0.000955115
0.000802149
0.000648432
0.00524008
0.00180078
0.001275
0.0010905
0.000957301
0.000825756
0.000690195
0.000558271
0.0016907
0.00116618
0.00103389
0.000928949
0.000821162
0.000708478
0.000594762
0.000487275
0.00544353
0.00423999
0.00367288
0.00321581
0.00281998
0.00249501
0.00223553
0.00199204
0.00996923
0.00538776
0.00417975
0.0035489
0.00307019
0.00268658
0.00238775
0.00211901
0.0247563
0.00793486
0.0048746
0.00388419
0.00329404
0.00284603
0.00250058
0.00219864
0.0452711
0.0105119
0.00535622
0.00407817
0.00343897
0.00298425
0.00264529
0.00235561
0.0345483
0.0087891
0.00495354
0.00388596
0.00328914
0.00284185
0.00249789
0.00219792
0.0137724
0.00576963
0.00420681
0.00353417
0.00305111
0.00266724
0.00236902
0.00210257
0.0058178
0.00420233
0.00362254
0.00317139
0.00277892
0.00245646
0.00220007
0.00196171
0.00772071
0.00651784
0.00617263
0.00597921
0.00574651
0.00530292
0.00450755
0.00347291
0.0129453
0.00762712
0.00648277
0.00610487
0.00586176
0.00547597
0.00472192
0.00364483
0.0297942
0.0103659
0.00706985
0.00627879
0.00594308
0.00555283
0.00480829
0.00371135
0.0523656
0.0131095
0.00751476
0.00640325
0.00600735
0.00560041
0.00483539
0.00370207
0.0406656
0.0112709
0.00713919
0.00627707
0.00594074
0.00555508
0.00481429
0.00372026
0.0168336
0.00795627
0.00647945
0.00607596
0.00583751
0.00545908
0.00471368
0.00364633
0.00799924
0.00643672
0.00610194
0.00592732
0.00570998
0.00528225
0.00450325
0.00348304
0.000188907
0.000187899
0.000180793
0.000172782
0.000163891
0.000154949
0.000146542
0.0001385
0.000221528
0.000216917
0.000207009
0.000198101
0.000187956
0.000180436
0.000174492
0.000169369
0.000369084
0.000290986
0.000260466
0.000245481
0.000240086
0.000234498
0.000227052
0.000222525
0.000662052
0.000368223
0.000294806
0.000273595
0.000263448
0.00025863
0.000255727
0.000254368
0.000421002
0.000319265
0.000282583
0.000267859
0.000259972
0.00025249
0.000245324
0.00023804
0.000248259
0.000238592
0.00022492
0.000212659
0.000203735
0.000194429
0.000187339
0.000182982
0.000207634
0.000205862
0.000194706
0.000182516
0.000170925
0.000159784
0.000150273
0.000141609
0.000397532
0.000314405
0.000274356
0.000246253
0.000224316
0.000206348
0.000191319
0.000178486
0.000723947
0.000409645
0.000329501
0.000290559
0.00026386
0.000242384
0.00022373
0.000207419
0.00184631
0.000592356
0.000407833
0.000349667
0.000318377
0.000295079
0.000275279
0.000257205
0.00353437
0.000765674
0.000473644
0.000398551
0.000363928
0.000340827
0.000322078
0.000305598
0.00168474
0.000628085
0.000437016
0.000372251
0.000337489
0.000312178
0.000290851
0.000271453
0.000751689
0.000443666
0.00035296
0.000308414
0.000278221
0.00025403
0.000233707
0.000216088
0.000425562
0.000330301
0.000285212
0.000254364
0.000230399
0.000210996
0.000195073
0.00018175
0.00137783
0.00112519
0.00100465
0.000902173
0.000798646
0.000690458
0.000580368
0.000475347
0.00236855
0.00139031
0.00115133
0.00102167
0.000906615
0.000785853
0.000658526
0.000532926
0.00527949
0.00185627
0.00133683
0.00115621
0.00102669
0.000894972
0.000752486
0.000607203
0.0078471
0.00217339
0.00145264
0.00123822
0.00110259
0.00097006
0.000826056
0.000676779
0.00420289
0.00183604
0.00136586
0.00118002
0.00104447
0.000908288
0.000762395
0.000614512
0.00213458
0.00142126
0.00118753
0.00104869
0.00092602
0.000799366
0.000667511
0.000538681
0.00142743
0.00117183
0.00103543
0.000923102
0.000812836
0.000699773
0.00058633
0.000479226
0.00460071
0.00388182
0.00343367
0.00303223
0.00267347
0.00237556
0.00213562
0.00190785
0.00654409
0.0044615
0.00376827
0.00329242
0.0028814
0.00253704
0.00226304
0.00201171
0.0110511
0.00530017
0.00411241
0.00352937
0.00306501
0.00267399
0.00236071
0.00207854
0.0137185
0.0057594
0.00430172
0.00366608
0.00318496
0.00278482
0.00246723
0.00218309
0.00910888
0.00517305
0.00413188
0.00355516
0.00308566
0.00269031
0.00237407
0.00208963
0.00590936
0.00445773
0.00381484
0.00333332
0.00291437
0.00256434
0.00228638
0.0020315
0.00461378
0.00395888
0.00349711
0.0030834
0.00271655
0.00241323
0.00216934
0.00193739
0.00659241
0.00601652
0.00582141
0.00569504
0.00551428
0.0051306
0.00441133
0.00345649
0.0085197
0.00643882
0.00593764
0.00573713
0.00556846
0.00524466
0.0045727
0.003594
0.0130955
0.00723751
0.00615989
0.00582707
0.00562511
0.00531019
0.00465065
0.00365278
0.0157559
0.00771824
0.00631111
0.00589445
0.00565362
0.00530745
0.00460895
0.00356379
0.0114763
0.00716979
0.00620354
0.00586793
0.00565833
0.00533754
0.00467162
0.00366553
0.0080779
0.00650141
0.00601963
0.00580286
0.00562082
0.00528507
0.00459931
0.00360531
0.00669919
0.00614712
0.00592233
0.00577364
0.00557479
0.00517258
0.00443289
0.00345861
0.000126134
0.00013782
0.000157346
0.000176793
0.000160221
0.000136254
0.000124464
0.000162635
0.000162367
0.000170397
0.000178708
0.000169956
0.000161112
0.000160005
0.000376836
0.000375037
0.00038519
0.000396839
0.000385698
0.000373773
0.000372421
0.00161272
0.00159615
0.00159181
0.0015894
0.00158675
0.00158353
0.00158805
0.00231298
0.00233383
0.00234251
0.00234098
0.00234866
0.00234601
0.00233219
0.000134456
0.000188448
0.000245363
0.000263387
0.00025294
0.000198682
0.000140323
0.000170267
0.000205515
0.000244982
0.000282147
0.000251089
0.000213613
0.000177593
0.000387202
0.000423834
0.000471815
0.000524197
0.000478361
0.000430405
0.000393043
0.00162644
0.00166764
0.00169264
0.0017611
0.0017014
0.0016847
0.00165189
0.00230147
0.00227246
0.00222383
0.00209028
0.0022164
0.00225735
0.00227839
0.000137357
0.000180502
0.000232391
0.000270689
0.000235194
0.000182097
0.000136395
0.000175396
0.000202426
0.000255106
0.000305129
0.000252249
0.000201827
0.000172429
0.000396975
0.000442811
0.000511938
0.000596208
0.000512981
0.000444313
0.000394932
0.00167089
0.00175666
0.00179919
0.00195676
0.00180126
0.001746
0.00164969
0.00226965
0.00223727
0.00219527
0.00212768
0.00220376
0.00224497
0.00228609
0.000130432
0.000165255
0.000219295
0.000255093
0.000233259
0.000177763
0.000132862
0.000167245
0.000192839
0.000240587
0.000290721
0.000253794
0.000200482
0.000170263
0.000384438
0.000423327
0.000478252
0.000542489
0.000483676
0.000427004
0.000387235
0.00160523
0.00166974
0.00169828
0.00178974
0.00170659
0.00168411
0.00162774
0.00231072
0.00227144
0.00221962
0.00208124
0.00222376
0.0022704
0.00230093
0.000119568
0.000113562
0.000111362
0.000112148
0.000112108
0.000110648
0.000107564
0.000102631
0.000130555
0.00011704
0.000108947
0.000107636
0.000107117
0.000105795
0.000103217
9.90165e-05
0.000148719
0.000132969
0.000117968
0.000109119
0.000105295
0.000103007
0.000100524
9.69814e-05
0.000169117
0.000154999
0.000141594
0.000128886
0.000117276
0.000106828
9.86723e-05
9.24699e-05
0.000151636
0.000135224
0.000120465
0.000109676
0.00010468
0.000102162
9.9817e-05
9.64393e-05
0.00012863
0.000115758
0.000109282
0.000107973
0.000107138
0.000105525
0.000102757
9.84451e-05
0.000118666
0.000113489
0.000111413
0.00011191
0.00011147
0.000109703
0.000106425
0.000101396
0.000152754
0.000140721
0.00013059
0.000121714
0.000114387
0.000108155
0.000102365
9.65432e-05
0.000151761
0.000138927
0.000128883
0.00012019
0.000113187
0.000107207
0.000101586
9.58988e-05
0.000158054
0.000142663
0.000130831
0.000121425
0.000113867
0.000107506
0.000101602
9.57239e-05
0.000165208
0.000148403
0.000134454
0.00012383
0.000115802
0.000109348
0.000103222
9.68376e-05
0.000157463
0.000142618
0.000130603
0.000121499
0.000113893
0.000107445
0.000101455
9.55429e-05
0.000150475
0.000138031
0.000127865
0.00011946
0.000112617
0.000106742
0.000101183
9.5536e-05
0.000150301
0.000138665
0.000129001
0.000120568
0.000113479
0.000107352
0.000101609
9.58254e-05
0.000301919
0.000238785
0.000196499
0.000164822
0.000142797
0.000127438
0.000115984
0.00010669
0.000298114
0.000233648
0.000193725
0.000163688
0.000142484
0.000127451
0.000116078
0.000106782
0.000302645
0.000234094
0.000194027
0.000164361
0.000143319
0.000128204
0.000116618
0.000107088
0.000308569
0.000235108
0.000193453
0.000164086
0.000143749
0.000129167
0.000117774
0.000108146
0.000302582
0.000233319
0.000193631
0.000164253
0.000143307
0.000128183
0.000116558
0.000107005
0.000296275
0.000230661
0.000191789
0.000162489
0.000141701
0.000126907
0.000115673
0.000106462
0.000297185
0.000232955
0.000192858
0.000162665
0.000141446
0.00012651
0.000115278
0.000106116
0.0012224
0.000684529
0.000368026
0.000230472
0.000170302
0.000140458
0.000122978
0.000110968
0.00120588
0.000677818
0.000365764
0.000229881
0.000170367
0.000140746
0.000123313
0.000111296
0.00119699
0.000673065
0.00036407
0.000229591
0.000170606
0.000141096
0.000123604
0.000111484
0.00118994
0.000666483
0.000360193
0.000227817
0.000170083
0.000141241
0.000124046
0.000111998
0.00119334
0.000671426
0.000363198
0.000229137
0.000170385
0.000140977
0.000123525
0.000111425
0.0011972
0.000674069
0.000363594
0.00022853
0.000169553
0.000140247
0.000122992
0.00011108
0.00120533
0.000677413
0.000364347
0.000228348
0.000169074
0.000139719
0.000122502
0.000110645
0.00134864
0.000836418
0.000451247
0.000269479
0.000187308
0.000147434
0.000125551
0.000111701
0.0013492
0.000838143
0.000453467
0.000271246
0.000188561
0.000148302
0.000126163
0.000112158
0.00134599
0.000836575
0.000453409
0.000271587
0.000188901
0.000148551
0.000126322
0.000112254
0.00134123
0.000833473
0.000452182
0.000271337
0.000189088
0.000148903
0.000126706
0.000112611
0.00134945
0.000838524
0.000454058
0.000271763
0.000188945
0.000148561
0.000126324
0.000112255
0.00135576
0.000841702
0.000454506
0.000271403
0.00018851
0.000148232
0.000126111
0.000112129
0.00135845
0.000842032
0.000453195
0.000270033
0.000187445
0.000147456
0.000125541
0.000111691
0.000126928
0.00011855
0.000113728
0.000112856
0.000111912
0.000110003
0.000106637
0.000101325
0.000179765
0.000165138
0.000151025
0.000139214
0.000129103
0.000121089
0.000114289
0.000107674
0.000239862
0.000226895
0.000213255
0.000200353
0.000187961
0.000176256
0.000163915
0.000151869
0.000261359
0.000257204
0.000253843
0.00025394
0.000256941
0.000250516
0.000232052
0.000213978
0.000247815
0.000236858
0.000223152
0.000211108
0.000198505
0.000185829
0.000172648
0.000159393
0.000185814
0.000172838
0.000159142
0.000146213
0.000134812
0.000124958
0.000116564
0.000109131
0.000131604
0.000122268
0.000116888
0.000115894
0.000114394
0.00011205
0.000108293
0.000102688
0.000159154
0.000145839
0.000134338
0.000124188
0.000115766
0.000108628
0.000102141
9.58284e-05
0.000189554
0.000168962
0.000151707
0.000136992
0.000125566
0.000116106
0.000107624
9.94403e-05
0.000227248
0.000206382
0.000187179
0.00017135
0.000158662
0.000147506
0.000136981
0.00012605
0.000268374
0.000255005
0.00024207
0.000230587
0.000221817
0.000206507
0.000190819
0.000180523
0.000233059
0.000211359
0.000191224
0.000174761
0.000161772
0.00015036
0.000139104
0.000127747
0.000197519
0.000176092
0.000156358
0.000140534
0.000128154
0.000118259
0.000109431
0.000100937
0.000165764
0.000151259
0.00013795
0.000126516
0.000117319
0.000109774
0.000103057
9.65971e-05
0.000307558
0.000241828
0.000196715
0.000163852
0.00014155
0.000126223
0.000114888
0.000105748
0.000331727
0.000256337
0.000204854
0.000168633
0.0001446
0.000128219
0.000116099
0.000106343
0.000365914
0.000278395
0.00021952
0.000179793
0.00015444
0.000137834
0.000125966
0.000116711
0.000416374
0.000328454
0.000266965
0.000223839
0.00019534
0.000176918
0.000167903
0.000166954
0.00037062
0.000281894
0.000221396
0.000180671
0.000154808
0.000138036
0.000126301
0.000117353
0.00033677
0.000260512
0.000207003
0.000169708
0.00014531
0.000128867
0.000116749
0.000106972
0.000312743
0.000247145
0.000199574
0.000165168
0.000142166
0.000126568
0.000115148
0.000105986
0.00122482
0.000677763
0.000362201
0.000227134
0.000168469
0.000139409
0.000122353
0.000110601
0.00124433
0.000681902
0.000362183
0.000226394
0.000167635
0.000138605
0.000121665
0.000110144
0.00124759
0.000673064
0.000354086
0.000221578
0.00016599
0.000139912
0.000126011
0.000118008
0.00129967
0.000702494
0.000369658
0.000231765
0.00017592
0.000153583
0.000148642
0.000159393
0.00125233
0.000674035
0.000354149
0.000221417
0.000165782
0.000139784
0.000126065
0.000118319
0.00125419
0.000684451
0.000362945
0.000226769
0.000167899
0.000138861
0.000121937
0.000110426
0.00124075
0.000682939
0.000364193
0.000228044
0.00016884
0.000139526
0.000122374
0.000110594
0.0013475
0.000834576
0.000449098
0.000268204
0.000186795
0.000147348
0.000125659
0.000111891
0.00132113
0.000814192
0.000437277
0.000261373
0.000182686
0.000144882
0.00012436
0.000111576
0.0012855
0.000789078
0.000424127
0.000255547
0.000181442
0.000147165
0.000130168
0.000121706
0.00120575
0.000719902
0.000375407
0.000222351
0.00016002
0.000137511
0.000136929
0.000157517
0.00128146
0.000786626
0.000423077
0.000255135
0.000181305
0.000147183
0.000130319
0.000122007
0.00131336
0.000809575
0.00043544
0.000260771
0.000182552
0.000144922
0.000124469
0.000111713
0.0013359
0.000827432
0.000446009
0.000266921
0.000186213
0.000147054
0.000125503
0.000111802
0.000129634
0.000120688
0.000116402
0.000116396
0.000116197
0.000114818
0.000111652
0.000106198
0.000174535
0.000160317
0.000148296
0.000138556
0.000130772
0.000125385
0.000120622
0.000114077
0.000227121
0.000215396
0.000202863
0.000190744
0.000177923
0.000165659
0.000154096
0.000141817
0.000267576
0.000259881
0.000252968
0.000244092
0.000228167
0.000208611
0.000190325
0.00017822
0.000229347
0.000218127
0.000206718
0.000194715
0.000181399
0.000167743
0.000155583
0.000143159
0.000174888
0.000163577
0.000152938
0.000141775
0.000132497
0.000124744
0.000118923
0.000112804
0.000128378
0.000120297
0.000116305
0.000115985
0.000115226
0.000113484
0.000110289
0.000105118
0.00016444
0.000151426
0.000139171
0.000128116
0.000118933
0.000111263
0.000104423
9.78667e-05
0.000187845
0.000170353
0.000154398
0.000140529
0.000129384
0.000119964
0.000111364
0.000103057
0.000237349
0.000216411
0.000196662
0.000179813
0.000166619
0.000155612
0.000144857
0.00013229
0.000290917
0.000275937
0.000258668
0.000241391
0.000227626
0.000217818
0.000207876
0.000195987
0.000234978
0.000214291
0.000194418
0.000177885
0.00016505
0.00015452
0.000144106
0.000131811
0.000187428
0.000169955
0.000153293
0.000139802
0.000128916
0.000120029
0.000111885
0.000103742
0.000161481
0.000148008
0.000136051
0.000125551
0.000117003
0.000109936
0.000103626
9.74933e-05
0.000316492
0.000251112
0.000202634
0.000167397
0.000143797
0.00012781
0.000116166
0.000106888
0.000348082
0.000272065
0.000216145
0.000176465
0.000150235
0.000132591
0.000119891
0.000110017
0.000398564
0.000304814
0.000241573
0.000199165
0.00017239
0.000155119
0.00014318
0.000134026
0.000478133
0.00038067
0.000315951
0.000273218
0.000249472
0.000239709
0.000231622
0.00021732
0.000399464
0.00030517
0.000241904
0.000199533
0.000172819
0.00015551
0.000143207
0.000133425
0.000348886
0.00027119
0.00021572
0.000176508
0.000150642
0.000133218
0.000120531
0.000110481
0.000314624
0.000247875
0.000201184
0.000167058
0.000143925
0.00012812
0.000116541
0.000107273
0.00125462
0.000689455
0.000367132
0.000229603
0.000169898
0.000140427
0.000123256
0.000111504
0.00130957
0.000713374
0.000376594
0.000233705
0.000172086
0.000142088
0.000125155
0.000114138
0.00132925
0.000718574
0.000379459
0.000239491
0.000182779
0.000158735
0.000149095
0.000147143
0.00147247
0.000827743
0.000459121
0.000307861
0.000253026
0.000239348
0.000249461
0.000277356
0.00133303
0.000722824
0.000382638
0.000241708
0.000184335
0.000159654
0.000149121
0.000145956
0.00130509
0.000714126
0.000377633
0.000234237
0.000172387
0.000142259
0.00012516
0.000113917
0.00124424
0.000689661
0.00036865
0.000230499
0.000170456
0.000140857
0.000123624
0.000111822
0.00133025
0.000823169
0.000443871
0.000266079
0.000186113
0.000147412
0.000126157
0.000112637
0.0013001
0.000797643
0.000428805
0.000257845
0.000182189
0.00014665
0.000128182
0.00011738
0.00126091
0.00077029
0.000419173
0.000260752
0.000195226
0.000170255
0.000164721
0.00016963
0.00122196
0.000737987
0.00041178
0.000279618
0.000246634
0.000271153
0.00034712
0.000455804
0.0012641
0.000772618
0.000420988
0.000262041
0.000196089
0.000170698
0.000164624
0.000168729
0.00130048
0.000797652
0.000428986
0.00025789
0.000182109
0.000146472
0.000127896
0.00011695
0.00133367
0.000825645
0.000445614
0.000266978
0.000186523
0.000147594
0.000126246
0.000112689
0.000124174
0.000118568
0.000116092
0.000115697
0.000114418
0.00011203
0.00010825
0.000102683
0.000161324
0.000153497
0.000145333
0.000138176
0.0001309
0.00012438
0.000118158
0.0001112
0.00021593
0.00020852
0.000200628
0.000192009
0.000182669
0.000172086
0.000161091
0.000149916
0.000256693
0.000257068
0.00025542
0.000252756
0.000247879
0.000236836
0.000221246
0.000203682
0.000231102
0.000223255
0.000213867
0.000203539
0.000192264
0.000179396
0.000166635
0.000153834
0.00017157
0.000160123
0.000149454
0.000138704
0.000129193
0.000121546
0.000115456
0.000109138
0.0001254
0.000117741
0.000113189
0.000112077
0.000111395
0.000109767
0.000106632
0.000101454
0.000156318
0.000143062
0.000131906
0.000122288
0.000114448
0.000107856
0.000101835
9.58757e-05
0.000178916
0.000161208
0.000146113
0.000133095
0.000122929
0.000114471
0.000106789
9.91636e-05
0.000224129
0.000204513
0.000185877
0.00017026
0.000157607
0.0001469
0.000136829
0.000126026
0.000276227
0.000260486
0.00024458
0.00023004
0.000215715
0.000200485
0.000189888
0.000181168
0.000235953
0.000214395
0.000194068
0.000176895
0.000162768
0.000150722
0.000139685
0.00012813
0.000185425
0.00016685
0.000150215
0.000136508
0.000125606
0.000116571
0.000108278
0.000100106
0.000159236
0.000145967
0.00013453
0.000124455
0.000116019
0.000108835
0.000102303
9.597e-05
0.000304903
0.000237634
0.000194291
0.000162627
0.000140954
0.000125986
0.000114881
0.000105887
0.000331343
0.000254806
0.000203971
0.000168108
0.000144226
0.000127963
0.00011598
0.000106371
0.000370994
0.000280443
0.000221757
0.000182145
0.000156715
0.000140032
0.000128157
0.000119116
0.000430052
0.000336323
0.000273776
0.000231
0.000203831
0.000188051
0.000181843
0.000182269
0.000375078
0.000283804
0.000224344
0.000184157
0.000158333
0.00014142
0.000129402
0.000120159
0.000333964
0.000257573
0.000205922
0.000169574
0.000145424
0.00012894
0.000116738
0.000106934
0.000307584
0.000241657
0.000196747
0.000163967
0.000141667
0.000126316
0.000114967
0.000105832
0.00121309
0.000675849
0.000361579
0.000226385
0.000167896
0.000139109
0.000122293
0.000110713
0.00125031
0.000687726
0.000364128
0.000226317
0.000167078
0.000138109
0.000121375
0.000110085
0.00125562
0.000679692
0.000356611
0.000222333
0.000166601
0.000140975
0.000127834
0.000120899
0.00132769
0.000723179
0.000382273
0.000241296
0.000185642
0.00016516
0.000163247
0.000178973
0.00126116
0.000682693
0.000358611
0.000223827
0.000167782
0.00014197
0.000128688
0.000121603
0.00125838
0.000689647
0.000364941
0.000227152