/*--------------------------------*- C++ -*----------------------------------*\
| =========                 |                                                 |
| \\      /  F ield         | OpenFOAM: The Open Source CFD Toolbox           |
|  \\    /   O peration     | Version:  plus.master.MPPICInterFoam            |
|   \\  /    A nd           | Web:      www.OpenFOAM.com                      |
|    \\/     M anipulation  |                                                 |
\*---------------------------------------------------------------------------*/
FoamFile
{
    version     2.0;
    format      ascii;
    class       volScalarField;
    location    "3";
    object      k;
}
// * * * * * * * * * * * * * * * * * * * * * * * * * * * * * * * * * * * * * //

dimensions      [0 2 -2 0 0 0 0];

internalField   nonuniform List<scalar> 
11821
(
0.000245259
0.000317978
0.000733069
0.0012262
0.0007086
0.000284032
0.000220584
0.000311662
0.000869081
0.0036261
0.00651
0.00358503
0.000756671
0.000276737
0.000733788
0.00381196
0.00531204
0.0221804
0.00554331
0.00376301
0.000759175
0.00105816
0.00578281
0.0177132
0.0195876
0.019203
0.00819735
0.00157286
0.000655432
0.00349608
0.0052041
0.0170698
0.00548695
0.00353719
0.000706902
0.000291716
0.000808751
0.00378041
0.00915187
0.00360949
0.000717617
0.000268137
0.000232551
0.000284834
0.000693364
0.00135047
0.000635954
0.000257754
0.000213183
0.000582996
0.00106947
0.0028006
0.00516936
0.00350124
0.00123543
0.000572258
0.00100572
0.0029935
0.00920006
0.0192774
0.0137796
0.0053277
0.00132438
0.00212499
0.00767139
0.0182255
0.0491789
0.0288289
0.0168007
0.00473675
0.00255106
0.0113165
0.053409
0.0494379
0.0438194
0.0337197
0.0085529
0.00168447
0.00709113
0.022963
0.0416192
0.0337135
0.0163856
0.00360261
0.000841211
0.00216052
0.00920377
0.0335979
0.0139588
0.00376247
0.000947094
0.000556748
0.000831331
0.00183728
0.00450425
0.00225325
0.000865378
0.000537387
0.00141689
0.00271259
0.00677266
0.0118873
0.00970854
0.00415658
0.00156591
0.00236514
0.00709058
0.0190013
0.0372732
0.0316622
0.0153831
0.00441578
0.00445434
0.0148589
0.0404215
0.0686683
0.0593624
0.0381986
0.0123726
0.00507879
0.0203511
0.0827123
0.0703464
0.0641708
0.0650406
0.0181572
0.00316284
0.0119042
0.0446281
0.0623153
0.0698607
0.0349685
0.00896909
0.0016521
0.00394431
0.0142696
0.0435861
0.0256252
0.00925328
0.0023363
0.00126484
0.00160388
0.00319655
0.00685672
0.00451594
0.00194267
0.00125761
0.00307113
0.00498446
0.0108259
0.0176112
0.0153914
0.00753031
0.00343246
0.00440234
0.0115765
0.0279496
0.0505454
0.0461063
0.0241803
0.00768839
0.00711479
0.0216591
0.0561313
0.0780378
0.0778055
0.0530672
0.017796
0.00783609
0.0269268
0.0899402
0.0801421
0.0790289
0.0816222
0.0233801
0.00516674
0.0159164
0.0493193
0.0755451
0.0870667
0.0435207
0.0123216
0.00322033
0.00618085
0.0168115
0.037528
0.0294361
0.012736
0.00415254
0.00276167
0.00312788
0.00480602
0.00788068
0.00630559
0.00360514
0.00277831
0.00372928
0.00599877
0.0125884
0.0199542
0.0175391
0.00857337
0.00405483
0.00537398
0.0137795
0.0321218
0.0562714
0.0523036
0.0273356
0.00852081
0.00846007
0.0246948
0.0614984
0.0805882
0.0821585
0.0581905
0.0188774
0.00919602
0.0287556
0.085783
0.0823974
0.0843098
0.0816215
0.0231437
0.0061919
0.0172712
0.0460901
0.0832296
0.0860728
0.0415238
0.0120455
0.00395538
0.00724895
0.0170369
0.0311907
0.0275014
0.0125762
0.00462032
0.00333367
0.0038199
0.00550651
0.00798779
0.00664817
0.00415026
0.00331172
0.000213377
0.000210721
0.000203575
0.000197292
0.000189361
0.000181444
0.00017438
0.000168329
0.000230298
0.000224933
0.000219388
0.000211375
0.000202863
0.000194577
0.000185895
0.000178556
0.000351612
0.000266493
0.000241543
0.000226443
0.000216279
0.000208329
0.000200856
0.000194158
0.000544635
0.000301014
0.000243409
0.000228081
0.00022365
0.000218599
0.000213311
0.000207673
0.000345533
0.000266545
0.000240355
0.000226265
0.00021658
0.000209368
0.000202079
0.000195557
0.00022785
0.000221966
0.000217645
0.000209071
0.000201009
0.000192683
0.000184764
0.000177446
0.000209027
0.000207752
0.000201356
0.000194072
0.000186421
0.000179024
0.000172346
0.000166744
0.000494524
0.000470091
0.000447224
0.000424757
0.000404389
0.00038669
0.000371484
0.000358454
0.000556611
0.000480995
0.000458479
0.000436481
0.000414098
0.000393039
0.00037431
0.000357994
0.000912931
0.000500553
0.000469782
0.00045423
0.000434942
0.000413581
0.000392046
0.000372316
0.00145489
0.000527854
0.000476547
0.000464459
0.000447905
0.000428055
0.0004065
0.00038606
0.000743219
0.000493042
0.000470046
0.000454765
0.00043547
0.000414088
0.000392422
0.000372504
0.000528158
0.000479659
0.000458211
0.000436273
0.000413946
0.000392908
0.00037409
0.000357763
0.000490165
0.00046754
0.000445694
0.000423807
0.000403614
0.000385684
0.000370196
0.000356787
0.00120699
0.00117023
0.00113688
0.00108403
0.00101451
0.000931758
0.000840016
0.000745786
0.00146239
0.00118403
0.00114624
0.0011015
0.00103516
0.000950395
0.00085263
0.000749908
0.00261351
0.00125477
0.00116586
0.0011331
0.00107379
0.000987917
0.000883108
0.000770187
0.00356861
0.00131698
0.00118556
0.00115956
0.00110443
0.00101821
0.000909222
0.000789634
0.00190196
0.00120746
0.00116623
0.00113596
0.00107647
0.000990478
0.000885447
0.000772033
0.00124656
0.00116715
0.00114444
0.00110127
0.00103558
0.000951242
0.000853542
0.000750461
0.00117236
0.00115802
0.00112833
0.00107826
0.00101085
0.000929244
0.000837756
0.000743133
0.00274362
0.00263887
0.00251903
0.00235719
0.00218342
0.00202449
0.00188928
0.00175754
0.00316265
0.00267367
0.00254879
0.00239835
0.00221948
0.0020464
0.00189876
0.00175991
0.00461024
0.00275134
0.00255988
0.00242976
0.00225665
0.00207552
0.00191682
0.00176957
0.00539982
0.00277937
0.00256517
0.00244784
0.00227841
0.00209367
0.00192877
0.00177564
0.0035568
0.00265599
0.00254739
0.00242249
0.00225042
0.00207131
0.00191432
0.00176794
0.00273494
0.00260945
0.00252033
0.00237581
0.00220218
0.00203443
0.00189076
0.0017542
0.00263623
0.00258187
0.00247136
0.00231862
0.00215439
0.00200333
0.00187351
0.00174495
0.00325445
0.00309888
0.00294456
0.00275622
0.00253789
0.00227001
0.00192719
0.00154332
0.00373214
0.00316275
0.00298459
0.00279933
0.00258498
0.00232636
0.00199
0.00159783
0.00514077
0.00325982
0.00300735
0.00283419
0.00262645
0.00237166
0.00203591
0.00163561
0.00567791
0.00327214
0.00300928
0.00284694
0.00264313
0.0023891
0.00205245
0.00164829
0.00402361
0.00314321
0.00297897
0.00281363
0.00260957
0.00235936
0.00202881
0.00163366
0.00324961
0.00306784
0.00293214
0.00275726
0.00255206
0.00230292
0.00197667
0.00159435
0.00311071
0.00301164
0.00287105
0.00269613
0.00249147
0.00223727
0.00190897
0.00153916
0.000232325
0.000229227
0.000219385
0.000210157
0.00020186
0.000192814
0.000184779
0.000177149
0.000270811
0.000269286
0.000259065
0.000250215
0.000241328
0.000232523
0.000226717
0.000220254
0.000363031
0.000300006
0.000281246
0.000273104
0.000267814
0.000263432
0.000259636
0.00025641
0.000447385
0.000321393
0.000291552
0.00028187
0.000276627
0.000272688
0.000269493
0.000266982
0.000378695
0.000304817
0.000284761
0.000277259
0.000272308
0.000268095
0.000264603
0.000261642
0.000277349
0.000272417
0.000260522
0.000253632
0.000247721
0.000240214
0.000232143
0.000227188
0.000239143
0.000234869
0.000226097
0.000218268
0.000208939
0.000199363
0.000190859
0.000182545
0.000513915
0.000490713
0.000469736
0.000447898
0.000426479
0.000406777
0.00038931
0.000373921
0.000575483
0.000533895
0.000519789
0.000505186
0.000487893
0.000468827
0.000449481
0.00042994
0.000702392
0.000585523
0.00057039
0.000559672
0.000543951
0.000524302
0.000502771
0.000480893
0.000829245
0.000610049
0.000588321
0.000580034
0.000566802
0.000549828
0.000531799
0.000514554
0.000763021
0.000593571
0.00057512
0.000564959
0.000549737
0.000530449
0.000509163
0.000487429
0.000592879
0.000539312
0.000525283
0.000511541
0.000495383
0.000477363
0.000458785
0.000440183
0.000519326
0.000495368
0.000474702
0.000453538
0.00043317
0.000414535
0.00039793
0.000383084
0.00122363
0.00120716
0.00117675
0.00112462
0.00105284
0.000965153
0.000866864
0.000765695
0.00128509
0.00124919
0.00123556
0.00119859
0.00113406
0.00104494
0.000937392
0.000821446
0.00148263
0.00128924
0.00127833
0.00125791
0.00120504
0.00112007
0.00100914
0.000883437
0.00176029
0.00131475
0.00128959
0.00127813
0.00123439
0.00115687
0.00105172
0.000930175
0.00167323
0.00130676
0.00128274
0.00126357
0.0012121
0.00112758
0.00101637
0.000889891
0.00136471
0.00125906
0.0012409
0.00120518
0.00114157
0.00105258
0.000944622
0.000827905
0.0012428
0.00121486
0.00118343
0.00113083
0.00105853
0.000970411
0.000871889
0.000770668
0.0026963
0.00263802
0.00252529
0.0023695
0.00220017
0.00204279
0.00190637
0.0017709
0.00275522
0.00269399
0.00261138
0.00246882
0.00229243
0.00211729
0.00196343
0.00181466
0.00298475
0.00273331
0.00266583
0.00254473
0.00237098
0.00218397
0.00201354
0.00184926
0.00334932
0.0027662
0.00268541
0.00257815
0.0024125
0.00222762
0.00205749
0.00189353
0.00327247
0.00276797
0.00267741
0.00255642
0.00238243
0.00219347
0.00202058
0.00185407
0.00291821
0.00273211
0.00263697
0.00249276
0.00231318
0.00213366
0.00197566
0.00182358
0.00276414
0.0026822
0.00256532
0.00240443
0.00222849
0.00206477
0.00192332
0.00178413
0.00318295
0.00307146
0.00292255
0.00273862
0.00252295
0.00225629
0.00191519
0.00153466
0.00330762
0.00315493
0.00301096
0.00282555
0.00260487
0.00233534
0.00198607
0.00158278
0.00363243
0.0032319
0.00307896
0.00289885
0.00267396
0.00239582
0.00203303
0.00160852
0.00409196
0.0032949
0.00311038
0.00293232
0.00270338
0.0024136
0.00203251
0.00158621
0.00398363
0.00328497
0.00310018
0.00291709
0.00268966
0.00240747
0.00203965
0.00160999
0.00352801
0.00321808
0.00305337
0.00286183
0.00263431
0.00235657
0.00199786
0.00158505
0.00328609
0.0031409
0.00298274
0.00278935
0.00256287
0.00228434
0.00193007
0.00153659
0.000237477
0.000234603
0.000226321
0.000216215
0.000206417
0.000196504
0.000187653
0.000179542
0.000286856
0.000267247
0.000244652
0.000235816
0.000229614
0.000222458
0.000216593
0.000210963
0.000381752
0.000299201
0.000275694
0.00026655
0.000260716
0.0002558
0.000251464
0.000247519
0.000477767
0.000320074
0.000287077
0.000279434
0.000276513
0.000274438
0.00027289
0.000271726
0.000372155
0.000295788
0.000274908
0.000267268
0.000262295
0.000257887
0.000253575
0.000249797
0.000266391
0.00026064
0.000248808
0.000237642
0.000229749
0.000223619
0.000217156
0.000211959
0.00022364
0.000223332
0.00021585
0.000208701
0.000200813
0.000192844
0.000184981
0.000178089
0.000519261
0.000493666
0.000471696
0.000449579
0.000428702
0.000410031
0.000393786
0.000379561
0.00060274
0.000538821
0.000520274
0.0005021
0.000482313
0.000462387
0.000443127
0.000424979
0.000863262
0.00059927
0.000576696
0.000566582
0.000551578
0.000532931
0.000512835
0.00049273
0.00122346
0.000629805
0.000594089
0.000591303
0.000583832
0.000571096
0.000556053
0.000540755
0.000866587
0.000590157
0.000571683
0.000562489
0.00054786
0.00052954
0.000509759
0.00048991
0.000592941
0.000532175
0.000515599
0.000498613
0.00047986
0.000460595
0.000442028
0.000424562
0.000511342
0.000487983
0.000465998
0.000444085
0.000423827
0.000405795
0.000389929
0.000376023
0.00124652
0.00121661
0.00118534
0.00113288
0.00106096
0.000973451
0.000875546
0.000774822
0.00143231
0.00127344
0.00124996
0.00121328
0.00115003
0.00106225
0.000955826
0.000840518
0.00216526
0.00136507
0.00130526
0.00128806
0.00124108
0.00116036
0.0010518
0.000926638
0.00314771
0.00145002
0.00132579
0.00131998
0.00128753
0.00121896
0.00111978
0.00100113
0.0024523
0.00137906
0.00130801
0.00129022
0.00124302
0.00116219
0.00105362
0.000928471
0.0015295
0.00128057
0.00125229
0.00121547
0.00115238
0.00106482
0.00095868
0.000843523
0.00124358
0.00120854
0.00117738
0.0011253
0.00105444
0.000968417
0.000872076
0.000772683
0.00277242
0.00269072
0.00257613
0.00241649
0.00224131
0.002078
0.00193663
0.00179715
0.00304693
0.00277669
0.00267581
0.0025329
0.00235465
0.00217629
0.00201967
0.00186882
0.00404456
0.00288865
0.00273871
0.00261948
0.00244883
0.00226059
0.00208783
0.00192186
0.00533314
0.00300445
0.00276754
0.00266309
0.00250738
0.00232914
0.00216587
0.00201104
0.0046205
0.00293968
0.00274931
0.00262536
0.00245264
0.002263
0.00208973
0.00192412
0.00329215
0.00280688
0.00268526
0.00253724
0.00235521
0.00217407
0.00201598
0.00186518
0.00279656
0.00269129
0.00257192
0.00240802
0.00222976
0.00206505
0.00192383
0.00178622
0.00329241
0.00314822
0.00299209
0.00279883
0.00257125
0.0022906
0.00193338
0.00153648
0.00366404
0.00326709
0.00309608
0.00290371
0.00267338
0.00238947
0.00202006
0.00159276
0.00479762
0.00341677
0.0031683
0.0029818
0.00274936
0.00245577
0.00207034
0.00161993
0.00614845
0.00354637
0.00320234
0.00302228
0.00279348
0.0024947
0.00209507
0.00162379
0.00538924
0.0034639
0.00317722
0.0029878
0.00275422
0.00245983
0.00207393
0.0016233
0.00389212
0.00328981
0.00310264
0.00290736
0.00267505
0.00239029
0.00202102
0.00159464
0.00330417
0.00314547
0.00298904
0.00279512
0.00256822
0.00228972
0.00193527
0.00154093
0.000212488
0.000211768
0.000206392
0.000200296
0.000193412
0.000186348
0.000179582
0.000172972
0.000236217
0.000232998
0.000225898
0.000219405
0.000211879
0.000206213
0.000201686
0.000197737
0.000332531
0.000283489
0.000263311
0.000253158
0.000249454
0.000245589
0.00024037
0.000237173
0.000493439
0.000331792
0.000285928
0.000272099
0.000265355
0.000262121
0.000260167
0.000259257
0.000362731
0.00030147
0.000277959
0.000268268
0.000263003
0.000257948
0.000253055
0.000248027
0.000254789
0.000248271
0.000238687
0.000229977
0.000223531
0.000216706
0.000211417
0.000208138
0.00022627
0.000225052
0.000216881
0.000207756
0.000198891
0.000190172
0.000182578
0.000175516
0.000497732
0.00047827
0.000458546
0.000438305
0.000418945
0.000401164
0.000385215
0.000370883
0.000541542
0.000509258
0.000495431
0.000480416
0.0004637
0.000446355
0.000428881
0.000412054
0.000651994
0.000539814
0.000531776
0.000526296
0.000516516
0.00050333
0.000488402
0.000472154
0.000799113
0.000566291
0.000558417
0.000559824
0.000555895
0.000547397
0.000536027
0.00052296
0.000664648
0.000555482
0.000546346
0.000541187
0.000531661
0.000518493
0.00050319
0.000486285
0.000562767
0.000524447
0.000509276
0.000493691
0.00047604
0.000457259
0.000438768
0.000420988
0.000508562
0.000486309
0.000465642
0.000444221
0.000423357
0.00040421
0.000387274
0.000372364
0.00118665
0.00117784
0.00115217
0.00110481
0.00103809
0.000955192
0.000860832
0.000762387
0.00124117
0.00121308
0.0012069
0.00117583
0.00111745
0.00103455
0.000932438
0.000820312
0.00142682
0.00124628
0.00125382
0.00124253
0.00119688
0.00111865
0.00101334
0.000891229
0.0016025
0.00126881
0.0012781
0.00127787
0.00124205
0.00117135
0.00107111
0.000951624
0.00139219
0.0012587
0.00126504
0.00125258
0.00120599
0.00112665
0.00102013
0.000896897
0.00125397
0.00123126
0.00122222
0.00118902
0.00112845
0.00104315
0.000938718
0.000824681
0.00121109
0.0011969
0.00116794
0.00111764
0.00104784
0.000962054
0.000865358
0.000765293
0.00265967
0.00260845
0.00249952
0.00234685
0.00218087
0.00202674
0.00189316
0.00176044
0.00272032
0.0026633
0.00258861
0.00245179
0.00228119
0.00211195
0.0019633
0.00181875
0.00290624
0.00269106
0.00264476
0.00253154
0.00236394
0.00218336
0.00201868
0.00185861
0.0030457
0.00270636
0.00267073
0.00257301
0.00241428
0.00223747
0.00207497
0.00191685
0.0028396
0.00269621
0.00265116
0.00253746
0.00236983
0.00218904
0.00202392
0.0018633
0.0027156
0.00267584
0.00259972
0.00246231
0.00229144
0.00212164
0.00197219
0.0018265
0.00268353
0.00262806
0.00251724
0.00236387
0.00219702
0.00204178
0.00190695
0.0017725
0.00313437
0.00303461
0.00289221
0.00271382
0.00250402
0.00224368
0.00190917
0.00153442
0.00323592
0.00310668
0.00297587
0.00279868
0.00258536
0.00232274
0.0019796
0.00158081
0.00345388
0.00315589
0.00303617
0.00286725
0.00264987
0.00237868
0.00202238
0.00160347
0.0036109
0.00318309
0.00306473
0.00290078
0.00267975
0.00239713
0.00202211
0.00158046
0.00341947
0.00316877
0.00304625
0.0028755
0.00265723
0.00238506
0.00202741
0.00160671
0.0032533
0.00312827
0.00299217
0.00281221
0.00259665
0.00233144
0.00198521
0.00158307
0.00317123
0.00306182
0.00291398
0.00273155
0.00251746
0.0022524
0.00191298
0.0015338
0.00016253
0.000172358
0.000188169
0.000203306
0.000190442
0.000171055
0.000161103
0.00034674
0.000343952
0.000354904
0.000367414
0.000354961
0.000343617
0.000344883
0.00065831
0.000655003
0.000665877
0.000678536
0.000667088
0.000654826
0.000654888
0.00157832
0.00156906
0.00156749
0.0015668
0.00156618
0.00156462
0.00156787
0.00113434
0.00114121
0.0011441
0.00114367
0.00114618
0.00114533
0.00114083
0.000169567
0.000212188
0.000253099
0.000265325
0.000258317
0.000219868
0.000174471
0.000360207
0.00041171
0.000460305
0.000498969
0.000466937
0.000421825
0.00036956
0.000671814
0.000712628
0.000762683
0.000812522
0.000768183
0.000718272
0.000676845
0.0015853
0.00160888
0.00162338
0.0016637
0.0016263
0.00161488
0.00159523
0.00113087
0.00112135
0.00110524
0.00106053
0.00110273
0.00111628
0.00112314
0.000172014
0.000206239
0.000244048
0.000270216
0.000245996
0.000207414
0.000171205
0.000366923
0.000408328
0.00047347
0.000526406
0.000470879
0.000407877
0.000363159
0.000681285
0.000731751
0.000804886
0.00088389
0.000806725
0.000734629
0.000679994
0.00160716
0.00165898
0.00169322
0.00178978
0.00169664
0.0016575
0.0016004
0.00112024
0.00110963
0.00109576
0.00107406
0.00109856
0.00111209
0.00112552
0.000166202
0.000194535
0.000234881
0.00025976
0.000244704
0.000204183
0.00016823
0.000357702
0.000395737
0.000455202
0.00050892
0.000468669
0.000403888
0.000358972
0.000669869
0.000713304
0.000771742
0.000833247
0.000776482
0.000716303
0.000671896
0.00157846
0.00161649
0.0016356
0.00169063
0.00163935
0.00162201
0.00158731
0.00113384
0.001121
0.00110387
0.00105763
0.00110527
0.00112071
0.0011307
0.000156866
0.000151597
0.000149668
0.000150388
0.000150346
0.000149024
0.000146224
0.0001417
0.000166286
0.000154647
0.000147464
0.000146316
0.000145845
0.000144631
0.000142255
0.000138351
0.000181262
0.000168278
0.000155419
0.000147601
0.000144154
0.000142061
0.00013976
0.000136442
0.000197398
0.000186294
0.000175457
0.000164828
0.000154785
0.000145458
0.000137977
0.00013215
0.000183616
0.000170162
0.000157589
0.000148086
0.000143586
0.000141283
0.000139105
0.000135934
0.000164641
0.00015351
0.000147762
0.000146613
0.000145856
0.000144379
0.000141828
0.000137814
0.000156078
0.000151529
0.000149705
0.000150164
0.000149765
0.000148166
0.000145183
0.000140555
0.000334749
0.000320604
0.000307613
0.00029376
0.000280644
0.000268025
0.00025494
0.000240383
0.000330421
0.000314656
0.000301867
0.000288781
0.000276646
0.000264927
0.000252598
0.000238706
0.000338472
0.000317877
0.000301544
0.00028724
0.000274554
0.000262833
0.000250777
0.000237267
0.00034915
0.000325338
0.000304033
0.000286486
0.000272267
0.000260297
0.00024856
0.000235462
0.00033814
0.000317928
0.000300941
0.000286951
0.000274231
0.000262469
0.000250369
0.000236868
0.000329875
0.000314245
0.000300707
0.000287671
0.000275599
0.000263963
0.000251705
0.000237877
0.000332666
0.000318266
0.000305261
0.000291682
0.00027876
0.000266252
0.000253242
0.000238773
0.000572902
0.000495456
0.000439237
0.000392523
0.000355241
0.000325619
0.000300617
0.00027752
0.000567713
0.000488789
0.000434826
0.000390126
0.00035414
0.00032523
0.000300585
0.000277701
0.000573121
0.000489208
0.00043451
0.000390161
0.000354539
0.000325753
0.00030104
0.000278017
0.000580217
0.000490045
0.0004328
0.000388481
0.000353733
0.000325831
0.00030167
0.000278835
0.000573524
0.000488558
0.000434004
0.000389904
0.000354394
0.000325614
0.000300871
0.000277837
0.000566437
0.000485725
0.000432341
0.000388276
0.000352752
0.000324168
0.000299745
0.000277015
0.00056835
0.000489008
0.000434343
0.000389071
0.000352761
0.000323752
0.000299129
0.00027629
0.00131991
0.000931712
0.000648566
0.000491838
0.000405956
0.000354483
0.000319095
0.000290698
0.00131084
0.000927478
0.000646752
0.000491283
0.000406147
0.000355048
0.000319812
0.00029148
0.00130639
0.000924447
0.000645332
0.000490972
0.000406453
0.00035557
0.000320316
0.000291876
0.0013023
0.000919215
0.000641226
0.000488519
0.000405411
0.000355493
0.000320767
0.000292524
0.00130548
0.000923973
0.000644796
0.000490504
0.000406131
0.000355355
0.000320162
0.000291763
0.00130796
0.000926028
0.000645137
0.00048972
0.000404922
0.000354167
0.000319187
0.000291032
0.00131279
0.00092823
0.000645617
0.000489301
0.000404057
0.000353139
0.000318141
0.000290012
0.00108927
0.00095452
0.000703234
0.000531605
0.000428427
0.000365942
0.000324869
0.000293961
0.00109171
0.000957105
0.00070599
0.00053403
0.000430382
0.000367458
0.000326045
0.000294915
0.00109138
0.000957079
0.000706491
0.000534671
0.000430958
0.000367904
0.000326363
0.000295135
0.00108978
0.000955756
0.000705824
0.000534562
0.000431236
0.000368393
0.000326912
0.00029565
0.00109442
0.000959279
0.000707529
0.000535066
0.000431076
0.000367923
0.000326353
0.000295122
0.00109763
0.000961249
0.000707799
0.000534567
0.000430405
0.000367331
0.000325904
0.000294799
0.00109826
0.000960923
0.00070628
0.000532759
0.000428744
0.000365943
0.000324767
0.000293846
0.0001632
0.000155975
0.000151762
0.000151018
0.000150178
0.000148456
0.000145395
0.000140505
0.000205674
0.00019442
0.000183245
0.000173617
0.000165141
0.000158253
0.000152268
0.000146318
0.000249331
0.000240299
0.000230601
0.000221223
0.000212015
0.000203135
0.000193542
0.000183949
0.000264004
0.000261268
0.000259034
0.000259092
0.000261084
0.000256707
0.000243953
0.000231098
0.000254852
0.000247325
0.000237717
0.000229087
0.000219872
0.0002104
0.000200333
0.000189955
0.000210261
0.000200432
0.000189756
0.000179376
0.000169963
0.000161599
0.000154282
0.000147637
0.000167207
0.000159237
0.000154579
0.000153722
0.000152396
0.000150298
0.000146902
0.000141768
0.000346218
0.000329685
0.000314216
0.000297932
0.00028256
0.000267933
0.000253143
0.000237178
0.000392021
0.000365527
0.000341142
0.000318194
0.000298249
0.000279788
0.000261371
0.000241617
0.000438951
0.000413026
0.000387478
0.000364233
0.00034345
0.000323287
0.000302472
0.000279311
0.000483504
0.000468131
0.000452232
0.000436372
0.000422099
0.000399448
0.000372975
0.000351134
0.000445677
0.00041908
0.000392518
0.000368448
0.000347207
0.00032674
0.000304859
0.000280996
0.000402554
0.000375502
0.000348155
0.000323837
0.000302558
0.000283461
0.000264523
0.000244305
0.000355403
0.000338263
0.00032069
0.000302595
0.000285973
0.000270584
0.000255288
0.000238949
0.000580623
0.000498801
0.00043887
0.000390133
0.000351991
0.000322016
0.000296849
0.000273667
0.000610525
0.00051778
0.000450552
0.00039736
0.000356478
0.0003245
0.00029755
0.000272629
0.000650176
0.000545487
0.000469956
0.00041208
0.000368993
0.000336159
0.000308774
0.000283236
0.000703215
0.000603301
0.00052912
0.000470039
0.000424433
0.000389634
0.000365797
0.000350269
0.000654586
0.000549061
0.000472101
0.000413114
0.000369339
0.000336234
0.000309031
0.000284003
0.000615464
0.000522123
0.00045326
0.000399011
0.000357727
0.000325696
0.000298776
0.000273849
0.000585802
0.000504533
0.000442721
0.000392398
0.000353353
0.000322932
0.000297562
0.000274271
0.00131925
0.00092443
0.00064122
0.000486369
0.000401977
0.000351412
0.00031653
0.000288407
0.00133105
0.000927113
0.000640718
0.000484804
0.000399854
0.000348898
0.000313737
0.00028544
0.00133251
0.000918523
0.000630416
0.000476167
0.00039409
0.000346442
0.000314728
0.000289989
0.00136686
0.000943171
0.00064617
0.00048595
0.000401283
0.000354857
0.000329773
0.000321967
0.0013336
0.000918134
0.0006299
0.000475674
0.000393618
0.000346103
0.000314672
0.000290354
0.00133376
0.000927047
0.000640577
0.000484955
0.000400164
0.000349319
0.000314237
0.000285986
0.00132481
0.000925869
0.000642129
0.000487167
0.000402486
0.000351668
0.000316646
0.000288465
0.0010885
0.000954057
0.000701737
0.000530062
0.00042727
0.000365128
0.000324212
0.000293324
0.00107272
0.000939377
0.000690349
0.000521392
0.000420696
0.000360222
0.00032067
0.000290933
0.0010517
0.000920759
0.000676918
0.000512846
0.000416639
0.000360471
0.000325305
0.000300348
0.00100193
0.000866986
0.000625289
0.000465787
0.00037615
0.000329255
0.000307938
0.000306855
0.00104845
0.00091831
0.000675569
0.000512191
0.000416373
0.000360455
0.000325506
0.000300794
0.0010662
0.000934556
0.000687841
0.000520346
0.000420411
0.000360298
0.000320911
0.000291252
0.00107869
0.000946689
0.000697666
0.000528032
0.000426292
0.000364665
0.000324008
0.000293248
0.000165536
0.000157867
0.000154157
0.000154183
0.000154007
0.000152772
0.000149929
0.000144984
0.000201715
0.000190657
0.000181081
0.000173119
0.000166599
0.000161988
0.000157839
0.000152053
0.00024039
0.0002321
0.000223048
0.000214108
0.000204428
0.000194935
0.00018575
0.000175739
0.000268164
0.000263033
0.000258371
0.000252306
0.000241185
0.000227166
0.00021368
0.000204516
0.000241945
0.000234045
0.000225849
0.00021704
0.000207044
0.000196526
0.000186907
0.000176819
0.000201954
0.000193205
0.000184802
0.000175738
0.000168019
0.00016142
0.00015635
0.000150918
0.000164454
0.00015752
0.000154067
0.000153809
0.000153137
0.000151576
0.000148698
0.000143993
0.000353956
0.000339028
0.000323262
0.000305926
0.000289436
0.000273898
0.000258416
0.000241909
0.000390939
0.000369405
0.000347468
0.000326124
0.000306779
0.000288455
0.000269836
0.000249752
0.000453139
0.000428364
0.000403185
0.000379247
0.000358007
0.000338066
0.000316821
0.000290929
0.000511607
0.000495907
0.000476376
0.000454284
0.000433169
0.000413726
0.000391888
0.000364427
0.000450744
0.000425847
0.000400142
0.000376363
0.000355459
0.000336103
0.000315396
0.000290051
0.000390432
0.000368501
0.000345371
0.000324537
0.000305684
0.000288354
0.000270702
0.000251179
0.000349921
0.000333849
0.000318045
0.00030147
0.000286091
0.000271724
0.000257348
0.000241804
0.000590456
0.000509822
0.000447465
0.000396325
0.000356522
0.000325528
0.000299787
0.000276279
0.000629069
0.000537225
0.000467101
0.000410657
0.000367105
0.000333273
0.00030527
0.000279872
0.000688754
0.000580597
0.000502399
0.000442675
0.000398447
0.00036495
0.000337375
0.000311555
0.000770666
0.000666592
0.000592902
0.000537676
0.000500391
0.000477927
0.000455504
0.000424875
0.000690241
0.000581405
0.000503082
0.00044344
0.000399402
0.000366004
0.00033812
0.000311695
0.00063105
0.000537225
0.000467074
0.000411049
0.00036804
0.000334652
0.00030681
0.000281269
0.000589296
0.000507285
0.000446219
0.000396269
0.000357175
0.000326597
0.000301119
0.000277784
0.00133437
0.000931712
0.000645709
0.000489581
0.000404359
0.000353351
0.000318322
0.000290199
0.00137118
0.00095226
0.00065646
0.000495105
0.000407146
0.000354875
0.000319582
0.000291807
0.00139243
0.000961727
0.000661616
0.00050169
0.000418856
0.000373823
0.000347433
0.000330172
0.00149083
0.00105567
0.000746191
0.000582825
0.000504488
0.000471276
0.000467117
0.000481937
0.00139673
0.000966329
0.000665655
0.000505051
0.000421611
0.00037584
0.000348311
0.000329529
0.00137231
0.000955062
0.000658611
0.000496395
0.000408029
0.000355545
0.000320004
0.000291891
0.00133311
0.000935059
0.00064886
0.000491625
0.00040585
0.000354656
0.000319577
0.000291431
0.00107507
0.000943654
0.00069579
0.000527177
0.000426271
0.000365309
0.000325149
0.000294706
0.0010566
0.000926044
0.000682063
0.000517253
0.000419987
0.000362614
0.000326033
0.000299078
0.00103746
0.000910899
0.000675364
0.000520288
0.000434241
0.000390107
0.000369425
0.000360768
0.00101328
0.000890841
0.000667177
0.000531846
0.000476606
0.0004812
0.000538128
0.00062058
0.00103985
0.00091288
0.000677264
0.000521941
0.000435507
0.000390817
0.000369343
0.000359597
0.00105832
0.000926727
0.000682516
0.000517463
0.000419994
0.000362455
0.000325699
0.000298528
0.00107939
0.000946435
0.000697851
0.000528524
0.000427112
0.000365881
0.000325619
0.000295158
0.00016086
0.000156016
0.000153875
0.000153539
0.000152404
0.000150264
0.000146848
0.000141751
0.00019145
0.000185237
0.000178655
0.000172775
0.000166677
0.000161102
0.000155673
0.000149485
0.00023248
0.000227167
0.000221421
0.000215045
0.000208024
0.000199925
0.000191318
0.000182371
0.000260879
0.000261175
0.000260066
0.000258237
0.000254895
0.000247268
0.000236292
0.000223587
0.000243212
0.000237716
0.000231027
0.00022354
0.000215218
0.00020551
0.000195658
0.000185517
0.000199432
0.000190489
0.000181987
0.000173199
0.000165224
0.000158652
0.000153299
0.000147636
0.000161894
0.000155264
0.000151269
0.000150319
0.000149715
0.000148244
0.00014539
0.000140624
0.000343953
0.000327137
0.000311447
0.000295586
0.000281007
0.000267283
0.000253354
0.000238116
0.000378557
0.000355813
0.000334086
0.000313328
0.000295136
0.000278187
0.000261055
0.000242226
0.000436068
0.000411713
0.000386948
0.000364076
0.000343408
0.00032394
0.00030391
0.000280986
0.000493223
0.000475602
0.000456767
0.000437761
0.000417184
0.000393345
0.000372712
0.000352952
0.000448325
0.000422251
0.000395971
0.00037155
0.000349268
0.000328242
0.000307071
0.000283345
0.000385696
0.000362389
0.000339095
0.000317766
0.000298753
0.000281098
0.00026313
0.000243526
0.000345305
0.000329198
0.000314203
0.000298363
0.000283082
0.000268437
0.000253602
0.000237619
0.00057879
0.000495269
0.000436515
0.000388978
0.000351676
0.000322316
0.00029762
0.000274787
0.000611323
0.000517419
0.000450333
0.000397352
0.000356603
0.000324791
0.000298059
0.000273352
0.000658195
0.000550543
0.000474551
0.000416604
0.000373404
0.000340502
0.000313135
0.000287901
0.000720431
0.000615184
0.000539663
0.000481267
0.00043784
0.000407154
0.000387787
0.000374878
0.000662207
0.000554282
0.000477788
0.000419368
0.000375806
0.00034273
0.00031534
0.000290082
0.000613623
0.000520133
0.000452638
0.000399307
0.000358306
0.000326225
0.000299199
0.00027424
0.000580813
0.000498935
0.00043914
0.000390469
0.000352317
0.000322307
0.00029712
0.000273948
0.00131721
0.00092612
0.000642087
0.000486207
0.0004017
0.000351461
0.000316992
0.000289219
0.00134066
0.000935032
0.000644203
0.000485387
0.000399402
0.000348351
0.00031344
0.000285467
0.00134542
0.000928287
0.000635101
0.000477956
0.000395137
0.000347834
0.000317022
0.000293622
0.00139386