/*--------------------------------*- C++ -*----------------------------------*\
| =========                 |                                                 |
| \\      /  F ield         | OpenFOAM: The Open Source CFD Toolbox           |
|  \\    /   O peration     | Version:  plus.master.MPPICInterFoam            |
|   \\  /    A nd           | Web:      www.OpenFOAM.com                      |
|    \\/     M anipulation  |                                                 |
\*---------------------------------------------------------------------------*/
FoamFile
{
    version     2.0;
    format      ascii;
    class       volScalarField;
    location    "3";
    object      nut;
}
// * * * * * * * * * * * * * * * * * * * * * * * * * * * * * * * * * * * * * //

dimensions      [0 2 -1 0 0 0 0];

internalField   nonuniform List<scalar> 
11821
(
2.30665e-05
2.61845e-05
3.96128e-05
5.09997e-05
3.90964e-05
2.48039e-05
2.1905e-05
2.60033e-05
1.57951e-05
3.38113e-05
4.27233e-05
3.13873e-05
1.2938e-05
2.4477e-05
4.00132e-05
3.49171e-05
3.29198e-05
6.15114e-05
3.20513e-05
3.16433e-05
4.02828e-05
4.8267e-05
4.07747e-05
5.31276e-05
5.62008e-05
5.78473e-05
4.99916e-05
5.76121e-05
3.78496e-05
3.32749e-05
3.37736e-05
5.31269e-05
3.23602e-05
3.06413e-05
3.88561e-05
2.51571e-05
1.51782e-05
3.44974e-05
5.41759e-05
3.17593e-05
1.2922e-05
2.40653e-05
2.24815e-05
2.48984e-05
3.91172e-05
5.57547e-05
3.75628e-05
2.36937e-05
2.1524e-05
2.93369e-05
2.09789e-05
3.12391e-05
4.17093e-05
3.25578e-05
1.84117e-05
2.46085e-05
2.11651e-05
3.25713e-05
6.15239e-05
8.93813e-05
7.6477e-05
4.19965e-05
1.82796e-05
2.69739e-05
5.38955e-05
7.62601e-05
0.000120813
0.000102993
8.40811e-05
3.79099e-05
2.65097e-05
5.5428e-05
0.000124334
0.000128724
0.0001171
0.000116051
5.1027e-05
2.41026e-05
4.84599e-05
8.14688e-05
0.000108035
0.000101103
7.77347e-05
2.99798e-05
2.36763e-05
2.5771e-05
5.41961e-05
0.000115368
6.98678e-05
3.03967e-05
1.68627e-05
3.57697e-05
2.29852e-05
2.23417e-05
2.92526e-05
2.19814e-05
1.76584e-05
3.11924e-05
4.61232e-05
3.82901e-05
5.92081e-05
7.7952e-05
6.85302e-05
4.12438e-05
3.5586e-05
3.66181e-05
6.10246e-05
0.000106444
0.00015089
0.000140268
9.23198e-05
4.17304e-05
4.54442e-05
8.79175e-05
0.000148141
0.000177885
0.000176124
0.000151783
7.63823e-05
4.36038e-05
8.92992e-05
0.000199286
0.000186646
0.000176845
0.000188276
8.81655e-05
3.78319e-05
7.02558e-05
0.000143467
0.00015957
0.000177781
0.000134934
5.80576e-05
3.84556e-05
4.01441e-05
7.58898e-05
0.000145839
0.000108438
5.84647e-05
2.89812e-05
6.17837e-05
3.74237e-05
3.38877e-05
4.26186e-05
3.55324e-05
2.81803e-05
4.94729e-05
8.21117e-05
6.37898e-05
8.62377e-05
0.000107641
9.88324e-05
6.72172e-05
6.5562e-05
6.2216e-05
9.11025e-05
0.000147542
0.000198153
0.00018991
0.000132487
6.6419e-05
6.80252e-05
0.000122408
0.000203392
0.000222807
0.000228865
0.000200189
0.000102986
6.58455e-05
0.000122451
0.000237934
0.000227175
0.000225013
0.000231815
0.000110097
6.01162e-05
9.60486e-05
0.000174609
0.000201753
0.000226748
0.000166872
7.75557e-05
6.93389e-05
6.26018e-05
9.57815e-05
0.00014487
0.000126339
7.90252e-05
5.14497e-05
0.000106325
6.90018e-05
5.40854e-05
5.65426e-05
5.14535e-05
5.27154e-05
9.02164e-05
9.20122e-05
7.51279e-05
9.86451e-05
0.000120374
0.000110411
7.6003e-05
7.61177e-05
7.39011e-05
0.000106859
0.000169016
0.000221921
0.00021299
0.000147533
7.39503e-05
8.06138e-05
0.000141612
0.00023055
0.000251054
0.000251405
0.000219901
0.000109531
7.98322e-05
0.000141199
0.000252246
0.000250753
0.000251362
0.000241886
0.000112712
7.32681e-05
0.000111814
0.000185452
0.000241132
0.000243755
0.000169351
8.03822e-05
8.19219e-05
7.62672e-05
0.000106984
0.000139535
0.000127188
8.336e-05
6.20495e-05
0.000113756
8.18583e-05
6.62003e-05
6.50379e-05
5.94516e-05
6.49727e-05
0.000101731
2.1556e-05
2.14236e-05
2.10612e-05
2.0739e-05
2.03229e-05
1.98981e-05
1.95134e-05
1.91775e-05
2.23816e-05
2.21193e-05
2.18434e-05
2.14504e-05
2.10201e-05
2.05929e-05
2.01339e-05
1.97383e-05
2.76016e-05
2.40791e-05
2.29226e-05
2.21961e-05
2.16964e-05
2.12985e-05
2.09133e-05
2.05656e-05
3.42316e-05
2.55941e-05
2.30152e-05
2.22824e-05
2.20655e-05
2.1813e-05
2.15485e-05
2.12633e-05
2.7331e-05
2.40666e-05
2.28631e-05
2.21893e-05
2.17084e-05
2.13491e-05
2.09784e-05
2.06377e-05
2.22403e-05
2.19717e-05
2.17633e-05
2.13339e-05
2.09252e-05
2.04934e-05
2.00743e-05
1.96798e-05
2.13309e-05
2.12732e-05
2.09447e-05
2.05716e-05
2.01692e-05
1.97701e-05
1.94021e-05
1.90893e-05
5.43198e-05
6.57794e-05
6.78342e-05
6.82883e-05
6.81166e-05
6.77242e-05
6.72928e-05
6.6902e-05
2.45464e-05
5.00703e-05
6.24347e-05
6.66418e-05
6.76637e-05
6.74911e-05
6.69171e-05
6.62356e-05
1.47021e-05
2.92691e-05
5.37171e-05
6.47823e-05
6.83014e-05
6.89481e-05
6.84595e-05
6.75499e-05
1.591e-05
2.07538e-05
4.8401e-05
6.38607e-05
6.90618e-05
7.03508e-05
7.00692e-05
6.91445e-05
1.55151e-05
3.51764e-05
5.63082e-05
6.55552e-05
6.86859e-05
6.92653e-05
6.87458e-05
6.77902e-05
3.40869e-05
5.53352e-05
6.39599e-05
6.731e-05
6.81802e-05
6.79644e-05
6.73494e-05
6.6642e-05
5.74828e-05
6.54139e-05
6.80305e-05
6.88265e-05
6.87517e-05
6.83329e-05
6.78396e-05
6.73599e-05
8.17794e-05
0.000111548
0.000118673
0.000120418
0.000119475
0.000116741
0.000112777
0.000108141
3.63016e-05
7.79329e-05
0.000105814
0.000116014
0.000118188
0.000116508
0.000112709
0.000107827
2.93149e-05
4.55771e-05
8.86443e-05
0.000110748
0.0001175
0.000117384
0.000113914
0.000108803
3.06354e-05
3.60076e-05
8.14068e-05
0.000108705
0.000117674
0.000118379
0.000115108
0.000109868
2.72106e-05
5.701e-05
9.53832e-05
0.000112852
0.000118254
0.000117829
0.000114277
0.000109108
5.28167e-05
9.28507e-05
0.000110465
0.000117423
0.000118865
0.000117039
0.000113178
0.000108217
9.4546e-05
0.000111653
0.000118063
0.000120308
0.000119709
0.000117104
0.000113128
0.000108403
0.000120813
0.000153927
0.000162666
0.000162784
0.000159308
0.000154693
0.000150096
0.000145348
6.76847e-05
0.000120457
0.000150823
0.000159605
0.00015893
0.000154891
0.000150215
0.000145341
5.0384e-05
8.35108e-05
0.000133922
0.000154713
0.000158267
0.000155346
0.000150736
0.000145695
4.70588e-05
7.19676e-05
0.000127752
0.000153018
0.000158251
0.000155801
0.000151186
0.000145987
5.11292e-05
9.96257e-05
0.000141894
0.00015709
0.000158924
0.000155607
0.000150943
0.000145904
9.26861e-05
0.000139004
0.000156808
0.000161115
0.000159282
0.000155066
0.000150437
0.000145623
0.000139418
0.000158019
0.000163072
0.000162461
0.00015903
0.000154611
0.00015019
0.000145563
0.000122181
0.00013686
0.000130219
0.000117265
0.000102929
8.86829e-05
7.45838e-05
6.13929e-05
7.85912e-05
0.000120363
0.000130469
0.000121649
0.00010728
9.2107e-05
7.70126e-05
6.28066e-05
5.83254e-05
9.31051e-05
0.000124234
0.000123318
0.000110282
9.46676e-05
7.88052e-05
6.38031e-05
5.34838e-05
8.43076e-05
0.000121631
0.000123783
0.000111406
9.56628e-05
7.9487e-05
6.41556e-05
6.24938e-05
0.000107329
0.000128468
0.000123717
0.000110014
9.44297e-05
7.86905e-05
6.37976e-05
0.000103289
0.00013214
0.000132235
0.000121076
0.000106553
9.16245e-05
7.67898e-05
6.27952e-05
0.000134349
0.000137456
0.000128618
0.000115686
0.000101803
8.79984e-05
7.42734e-05
6.13819e-05
2.24829e-05
2.23427e-05
2.18643e-05
2.14037e-05
2.0981e-05
2.05108e-05
2.00835e-05
1.96686e-05
2.4275e-05
2.42062e-05
2.37447e-05
2.3343e-05
2.29259e-05
2.25044e-05
2.22284e-05
2.19078e-05
2.80801e-05
2.55376e-05
2.47428e-05
2.43894e-05
2.41563e-05
2.39602e-05
2.37889e-05
2.3645e-05
3.11748e-05
2.64249e-05
2.51887e-05
2.4778e-05
2.45525e-05
2.43805e-05
2.4239e-05
2.41274e-05
2.86959e-05
2.57522e-05
2.49013e-05
2.45779e-05
2.43608e-05
2.41735e-05
2.40172e-05
2.38897e-05
2.45747e-05
2.436e-05
2.38295e-05
2.35159e-05
2.32415e-05
2.28845e-05
2.24946e-05
2.22611e-05
2.28077e-05
2.26202e-05
2.2193e-05
2.18107e-05
2.1346e-05
2.08556e-05
2.04114e-05
1.99654e-05
5.50394e-05
6.48966e-05
6.89752e-05
7.04326e-05
7.06336e-05
7.02983e-05
6.9768e-05
6.91836e-05
3.89841e-05
5.70886e-05
6.76145e-05
7.26945e-05
7.48832e-05
7.5592e-05
7.55299e-05
7.49934e-05
2.58982e-05
4.57265e-05
6.33979e-05
7.30798e-05
7.75652e-05
7.92774e-05
7.95027e-05
7.88627e-05
2.08733e-05
3.77237e-05
5.87704e-05
7.12656e-05
7.71282e-05
7.95191e-05
8.02016e-05
8.00271e-05
2.23499e-05
4.12964e-05
6.13284e-05
7.22818e-05
7.7272e-05
7.92345e-05
7.96155e-05
7.90857e-05
3.27734e-05
5.36874e-05
6.62286e-05
7.21049e-05
7.4718e-05
7.57441e-05
7.59492e-05
7.56405e-05
5.23698e-05
6.4304e-05
6.85449e-05
7.00592e-05
7.04423e-05
7.03398e-05
7.00359e-05
6.96469e-05
9.24323e-05
0.000110307
0.000118868
0.000122057
0.000121792
0.000119194
0.000115034
0.000110019
6.56363e-05
9.54516e-05
0.000113132
0.000121445
0.000123876
0.00012253
0.000118694
0.000113393
4.27972e-05
7.48076e-05
0.00010317
0.000118402
0.000124466
0.00012493
0.000121863
0.000116677
3.42609e-05
6.09209e-05
9.52807e-05
0.000115298
0.000123768
0.000125487
0.000123202
0.000118589
3.66132e-05
6.58945e-05
9.89843e-05
0.000116873
0.000123889
0.000124702
0.000121796
0.000116699
5.12489e-05
8.64388e-05
0.000109631
0.000120067
0.000123225
0.000122184
0.000118528
0.000113352
8.27622e-05
0.000107535
0.000117967
0.000121515
0.000121333
0.000118822
0.000114781
0.000109896
0.000140107
0.000156991
0.000163076
0.000163078
0.000159842
0.000155345
0.000150685
0.000145726
0.000109672
0.000142524
0.000158261
0.000162948
0.000161528
0.000157331
0.000152361
0.000146956
7.73805e-05
0.000120268
0.000148852
0.000160509
0.000162121
0.000158856
0.000153829
0.000147999
6.19712e-05
0.000103727
0.000141082
0.000158002
0.000161949
0.000159629
0.000154976
0.00014931
6.62603e-05
0.000108945
0.000144009
0.000158893
0.000161626
0.000158676
0.000153694
0.000147828
8.89591e-05
0.00013103
0.000154057
0.00016163
0.000161121
0.000157132
0.000152143
0.00014666
0.00012621
0.000152238
0.00016178
0.000162832
0.000159806
0.000155258
0.000150486
0.000145413
0.000134972
0.000137403
0.000129182
0.000116404
0.000102364
8.82878e-05
7.42931e-05
6.1209e-05
0.000115504
0.000134188
0.000133416
0.000122505
0.000107841
9.24212e-05
7.69832e-05
6.24798e-05
8.83478e-05
0.000120981
0.000132284
0.000125957
0.000111916
9.56408e-05
7.89716e-05
6.32518e-05
7.36867e-05
0.000108614
0.00012901
0.000126721
0.000113627
9.70334e-05
7.95692e-05
6.29493e-05
7.71618e-05
0.000112109
0.000129668
0.000125653
0.000112122
9.58491e-05
7.90744e-05
6.32473e-05
9.75108e-05
0.000126742
0.00013204
0.00012284
0.00010839
9.28123e-05
7.71571e-05
6.24603e-05
0.000125599
0.000135924
0.000129996
0.000117515
0.000103232
8.88259e-05
7.45178e-05
6.11713e-05
2.27176e-05
2.25948e-05
2.22034e-05
2.17062e-05
2.12142e-05
2.0707e-05
2.02395e-05
1.98011e-05
2.49256e-05
2.40927e-05
2.30637e-05
2.26479e-05
2.23513e-05
2.20067e-05
2.17232e-05
2.14457e-05
2.86893e-05
2.54815e-05
2.44892e-05
2.40875e-05
2.38255e-05
2.36031e-05
2.34042e-05
2.32217e-05
3.19746e-05
2.63436e-05
2.50057e-05
2.46884e-05
2.45529e-05
2.4464e-05
2.43922e-05
2.43405e-05
2.83491e-05
2.53196e-05
2.44777e-05
2.41286e-05
2.3903e-05
2.36995e-05
2.35014e-05
2.33278e-05
2.40959e-05
2.38421e-05
2.3294e-05
2.27526e-05
2.23651e-05
2.20645e-05
2.17498e-05
2.14911e-05
2.20721e-05
2.20611e-05
2.16926e-05
2.13306e-05
2.0925e-05
2.05098e-05
2.00933e-05
1.97217e-05
5.30646e-05
6.50089e-05
6.86632e-05
6.99106e-05
7.01822e-05
7.00523e-05
6.97747e-05
6.94398e-05
3.1204e-05
5.32057e-05
6.58832e-05
7.15264e-05
7.38669e-05
7.47248e-05
7.48693e-05
7.4622e-05
1.98607e-05
3.63673e-05
5.92614e-05
7.1928e-05
7.74039e-05
7.9513e-05
8.00648e-05
7.98081e-05
1.86245e-05
2.75409e-05
5.42267e-05
7.10501e-05
7.83663e-05
8.12311e-05
8.21538e-05
8.21476e-05
1.79137e-05
3.70139e-05
6.13408e-05
7.34118e-05
7.8257e-05
7.99868e-05
8.03163e-05
7.99114e-05
2.93709e-05
5.52979e-05
6.79624e-05
7.28058e-05
7.46109e-05
7.51458e-05
7.51139e-05
7.47718e-05
5.59518e-05
6.73058e-05
6.96311e-05
7.02519e-05
7.0249e-05
6.99891e-05
6.96364e-05
6.92673e-05
8.38251e-05
0.000109193
0.000118691
0.000121848
0.000121541
0.000119015
0.000115006
0.000110173
4.77955e-05
8.46076e-05
0.000109393
0.000120362
0.000123687
0.000122738
0.000119191
0.000114157
3.44576e-05
5.50699e-05
9.3655e-05
0.000116218
0.000125074
0.000126595
0.000124077
0.000119293
3.53853e-05
4.21813e-05
8.41621e-05
0.000113358
0.000125433
0.000128473
0.000126857
0.000122746
3.23078e-05
5.21246e-05
9.41394e-05
0.000117494
0.000126066
0.000127273
0.000124554
0.000119651
4.01792e-05
8.19569e-05
0.0001107
0.000121929
0.000124849
0.000123578
0.000119845
0.000114707
8.23236e-05
0.00011272
0.000120671
0.000122684
0.000121858
0.000119135
0.000115082
0.000110274
0.00012708
0.000153679
0.000162619
0.000163426
0.000160324
0.000155762
0.000150992
0.000145918
8.38117e-05
0.000128792
0.000154171
0.000162699
0.000162529
0.000158664
0.00015375
0.000148335
5.94702e-05
9.4644e-05
0.000138483
0.000158991
0.000163844
0.000161602
0.000156888
0.000151193
5.65442e-05
7.72844e-05
0.000128698
0.000156512
0.000164534
0.000163605
0.0001596
0.000154518
5.56153e-05
8.84907e-05
0.000137332
0.000159633
0.000164599
0.000162184
0.000157343
0.000151598
7.08259e-05
0.000122897
0.000154263
0.000163937
0.000163623
0.000159488
0.000154399
0.000148914
0.000120985
0.000155122
0.000164341
0.000164556
0.000161021
0.00015624
0.000151405
0.000146378
0.000126361
0.000136857
0.000130534
0.00011791
0.000103545
8.90479e-05
7.46338e-05
6.11794e-05
9.33358e-05
0.000125951
0.000133078
0.000124301
0.000109732
9.38394e-05
7.77775e-05
6.26418e-05
6.95284e-05
0.00010136
0.000127787
0.000127445
0.000114471
9.77467e-05
8.02295e-05
6.36357e-05
6.49722e-05
8.63427e-05
0.000122818
0.000128384
0.00011691
0.000100014
8.16973e-05
6.41001e-05
6.42793e-05
9.58111e-05
0.000127259
0.000127994
0.000114921
9.80308e-05
8.04074e-05
6.37482e-05
8.09916e-05
0.000122427
0.000133711
0.000125206
0.000110327
9.41939e-05
7.79874e-05
6.27644e-05
0.000122834
0.00013834
0.000131776
0.000118628
0.000103961
8.93282e-05
7.48517e-05
6.13552e-05
2.15111e-05
2.14802e-05
2.12055e-05
2.08972e-05
2.05425e-05
2.01699e-05
1.98065e-05
1.94422e-05
2.26693e-05
2.25244e-05
2.21859e-05
2.187e-05
2.14961e-05
2.12104e-05
2.09806e-05
2.07771e-05
2.69639e-05
2.48567e-05
2.39567e-05
2.34967e-05
2.3327e-05
2.31483e-05
2.29023e-05
2.27507e-05
3.30992e-05
2.69068e-05
2.49586e-05
2.43549e-05
2.40548e-05
2.39093e-05
2.38216e-05
2.37816e-05
2.81273e-05
2.562e-05
2.4607e-05
2.41809e-05
2.39462e-05
2.37171e-05
2.34927e-05
2.32589e-05
2.35342e-05
2.32509e-05
2.27966e-05
2.23834e-05
2.20725e-05
2.17382e-05
2.14731e-05
2.13076e-05
2.21921e-05
2.21428e-05
2.17425e-05
2.12838e-05
2.0829e-05
2.03705e-05
1.99644e-05
1.95787e-05
5.6087e-05
6.54788e-05
6.89754e-05
7.02124e-05
7.04201e-05
7.01915e-05
6.98055e-05
6.93606e-05
3.64587e-05
5.69785e-05
6.70427e-05
7.14897e-05
7.33405e-05
7.39775e-05
7.39932e-05
7.36721e-05
2.07217e-05
4.42739e-05
6.24048e-05
7.12931e-05
7.54169e-05
7.72699e-05
7.79873e-05
7.80061e-05
1.6261e-05
3.76945e-05
5.92527e-05
7.0772e-05
7.64209e-05
7.91249e-05
8.0289e-05
8.05431e-05
2.3599e-05
4.42145e-05
6.14724e-05
7.08113e-05
7.53794e-05
7.75042e-05
7.83493e-05
7.84025e-05
3.79193e-05
5.57942e-05
6.61338e-05
7.11245e-05
7.33059e-05
7.40768e-05
7.41381e-05
7.38163e-05
5.46975e-05
6.44404e-05
6.84194e-05
6.98207e-05
7.00126e-05
6.96918e-05
6.91963e-05
6.86602e-05
9.198e-05
0.000110965
0.000118922
0.000121766
0.000121439
0.000118929
0.000114915
0.000110048
5.85359e-05
9.52597e-05
0.000113864
0.000121793
0.000123958
0.000122575
0.000118826
0.000113641
3.47049e-05
7.53062e-05
0.000105837
0.000120177
0.000125575
0.000125842
0.000122817
0.00011773
2.94529e-05
6.66655e-05
0.000101208
0.00011869
0.000125924
0.000127296
0.000124998
0.000120428
4.15043e-05
7.76615e-05
0.00010545
0.000119665
0.000125325
0.000125776
0.00012285
0.000117814
6.62988e-05
9.60001e-05
0.000113212
0.000121332
0.000123761
0.000122515
0.00011881
0.000113627
9.24788e-05
0.000110026
0.000118567
0.000121786
0.000121572
0.000119038
0.000114945
0.000109991
0.00013838
0.000157751
0.000163756
0.000163475
0.000160113
0.000155622
0.00015104
0.000146198
0.000101773
0.000143087
0.000160043
0.000164321
0.000162541
0.000158227
0.000153293
0.000147987
6.87862e-05
0.00012297
0.00015308
0.000163424
0.000164091
0.000160448
0.000155358
0.000149576
6.08569e-05
0.000114455
0.000149231
0.000162526
0.000164708
0.000161792
0.000157056
0.000151477
7.96696e-05
0.000126474
0.000153097
0.000162998
0.000163806
0.000160305
0.000155288
0.000149533
0.000112314
0.000144561
0.000159448
0.0001637
0.000162149
0.000157983
0.000153106
0.000147797
0.000140475
0.000157015
0.000163073
0.000163102
0.000159916
0.000155475
0.000150867
0.000145948
0.000134122
0.000137754
0.000129322
0.000116388
0.000102336
8.83076e-05
7.43635e-05
6.13052e-05
0.000110615
0.000134905
0.000134232
0.000122873
0.000108031
9.2582e-05
7.71299e-05
6.2578e-05
8.19849e-05
0.00012385
0.000134686
0.000126977
0.000112347
9.58971e-05
7.91506e-05
6.33494e-05
7.44782e-05
0.000118147
0.000133944
0.000128478
0.000114316
9.74403e-05
7.98456e-05
6.30811e-05
9.16978e-05
0.000126042
0.000134628
0.000126819
0.000112309
9.59181e-05
7.91881e-05
6.33838e-05
0.000117921
0.000135471
0.000133858
0.000122658
0.000107961
9.25638e-05
7.71189e-05
6.25606e-05
0.000135106
0.000137256
0.000129039
0.000116308
0.000102315
8.82729e-05
7.42976e-05
6.1218e-05
1.88485e-05
1.93997e-05
2.02527e-05
2.10414e-05
2.03727e-05
1.9327e-05
1.87675e-05
6.6533e-05
6.55751e-05
6.65275e-05
6.79848e-05
6.67218e-05
6.59575e-05
6.69041e-05
0.000103502
0.000102957
0.000103599
0.000104418
0.000103839
0.000103249
0.000103644
0.000139019
0.000138818
0.000138919
0.000139007
0.000139128
0.000139134
0.000139316
5.0068e-05
5.02229e-05
5.02909e-05
5.02857e-05
5.03421e-05
5.03239e-05
5.02255e-05
1.92464e-05
2.15027e-05
2.34971e-05
2.40549e-05
2.37428e-05
2.18982e-05
1.95237e-05
6.85832e-05
7.42305e-05
7.78394e-05
7.94172e-05
7.81505e-05
7.49687e-05
6.9213e-05
0.000104907
0.000107838
0.000110958
0.000113349
0.000111024
0.000107881
0.000104901
0.000139068
0.000139697
0.000140126
0.000141452
0.000139906
0.000139316
0.000138646
5.00103e-05
4.98003e-05
4.94373e-05
4.84269e-05
4.93781e-05
4.96813e-05
4.98294e-05
1.93873e-05
2.12082e-05
2.30661e-05
2.4277e-05
2.31564e-05
2.12626e-05
1.93409e-05
6.90836e-05
7.41301e-05
7.90872e-05
8.17336e-05
7.91099e-05
7.41857e-05
6.88378e-05
0.00010523
0.000108831
0.000113892
0.000117935
0.000114181
0.000109318
0.000105373
0.000139128
0.000141006
0.000143414
0.000147335
0.000143829
0.000141613
0.000139732
4.97627e-05
4.95313e-05
4.92248e-05
4.87967e-05
4.9286e-05
4.95806e-05
4.98718e-05
1.90604e-05
2.06102e-05
2.26418e-05
2.38061e-05
2.3104e-05
2.11078e-05
1.91711e-05
6.88545e-05
7.30904e-05
7.75137e-05
8.01797e-05
7.78921e-05
7.323e-05
6.81149e-05
0.00010505
0.000108172
0.00011208
0.000115186
0.000112189
0.000108144
0.000104923
0.000139693
0.000140844
0.000141772
0.000143731
0.000141728
0.000140597
0.00013931
5.00723e-05
4.97914e-05
4.94082e-05
4.83708e-05
4.94414e-05
4.9788e-05
5.00075e-05
1.85218e-05
1.82133e-05
1.81036e-05
1.815e-05
1.81464e-05
1.80638e-05
1.789e-05
1.76076e-05
1.90617e-05
1.83905e-05
1.79639e-05
1.79005e-05
1.78717e-05
1.77952e-05
1.76454e-05
1.7398e-05
1.98833e-05
1.91666e-05
1.84284e-05
1.79688e-05
1.7762e-05
1.7633e-05
1.74881e-05
1.72764e-05
2.07368e-05
2.01517e-05
1.95675e-05
1.89714e-05
1.83862e-05
1.78252e-05
1.73645e-05
1.69973e-05
2.00106e-05
1.92715e-05
1.85537e-05
1.79951e-05
1.77257e-05
1.75845e-05
1.74472e-05
1.72442e-05
1.8966e-05
1.83216e-05
1.79812e-05
1.79173e-05
1.7871e-05
1.77785e-05
1.76179e-05
1.73634e-05
1.84756e-05
1.82088e-05
1.81043e-05
1.81345e-05
1.81096e-05
1.80103e-05
1.78251e-05
1.75353e-05
6.6022e-05
6.57388e-05
6.52139e-05
6.381e-05
6.19691e-05
5.97787e-05
5.71436e-05
5.38677e-05
6.47468e-05
6.41398e-05
6.36325e-05
6.24469e-05
6.08544e-05
5.89209e-05
5.65289e-05
5.34754e-05
6.52354e-05
6.37454e-05
6.2551e-05
6.11537e-05
5.95802e-05
5.78322e-05
5.57075e-05
5.29294e-05
6.64106e-05
6.41903e-05
6.18741e-05
5.96516e-05
5.76122e-05
5.57659e-05
5.38684e-05
5.15275e-05
6.53516e-05
6.37861e-05
6.24096e-05
6.09937e-05
5.94263e-05
5.77048e-05
5.56069e-05
5.28512e-05
6.50845e-05
6.43877e-05
6.36468e-05
6.23466e-05
6.07005e-05
5.87479e-05
5.63535e-05
5.33066e-05
6.62671e-05
6.57439e-05
6.50115e-05
6.35085e-05
6.16295e-05
5.94315e-05
5.6804e-05
5.35465e-05
9.78391e-05
9.25224e-05
8.83653e-05
8.41315e-05
7.9537e-05
7.48793e-05
7.01251e-05
6.49695e-05
9.73012e-05
9.20286e-05
8.78389e-05
8.36826e-05
7.92183e-05
7.46929e-05
7.00532e-05
6.4998e-05
9.76789e-05
9.20109e-05
8.75751e-05
8.33551e-05
7.89345e-05
7.44932e-05
6.99401e-05
6.49599e-05
9.81908e-05
9.19278e-05
8.71445e-05
8.2777e-05
7.83413e-05
7.39736e-05
6.95437e-05
6.47034e-05
9.78367e-05
9.20716e-05
8.75497e-05
8.33e-05
7.88765e-05
7.4442e-05
6.98973e-05
6.49264e-05
9.74654e-05
9.20555e-05
8.77146e-05
8.35026e-05
7.90331e-05
7.45243e-05
6.99059e-05
6.48715e-05
9.78246e-05
9.23851e-05
8.80381e-05
8.37539e-05
7.91794e-05
7.45665e-05
6.98573e-05
6.47428e-05
0.000128268
0.000114134
0.000102866
9.44643e-05
8.70924e-05
8.0517e-05
7.4517e-05
6.85381e-05
0.000128245
0.000114219
0.000102924
9.44936e-05
8.71412e-05
8.06085e-05
7.46487e-05
6.87035e-05
0.000128322
0.000114275
0.000102949
9.44933e-05
8.71503e-05
8.06454e-05
7.47079e-05
6.87742e-05
0.000128275
0.0001141
0.000102738
9.428e-05
8.69706e-05
8.05276e-05
7.46518e-05
6.8763e-05
0.000128535
0.000114436
0.000103025
9.45002e-05
8.71253e-05
8.06158e-05
7.46839e-05
6.87577e-05
0.000128608
0.000114495
0.000103022
9.44486e-05
8.70324e-05
8.04942e-05
7.45513e-05
6.86257e-05
0.000128686
0.000114472
0.000102962
9.43622e-05
8.69064e-05
8.03304e-05
7.43599e-05
6.8414e-05
7.91803e-05
9.80368e-05
9.86343e-05
9.43834e-05
8.81941e-05
8.17467e-05
7.56555e-05
6.96248e-05
7.9502e-05
9.83657e-05
9.89221e-05
9.4626e-05
8.84092e-05
8.19424e-05
7.58345e-05
6.97918e-05
7.96437e-05
9.85447e-05
9.90752e-05
9.47343e-05
8.84865e-05
8.20041e-05
7.58866e-05
6.98365e-05
7.96927e-05
9.86383e-05
9.91568e-05
9.47831e-05
8.85135e-05
8.2028e-05
7.59117e-05
6.98578e-05
7.98829e-05
9.87683e-05
9.92246e-05
9.48125e-05
8.85144e-05
8.20068e-05
7.58807e-05
6.98294e-05
7.99777e-05
9.87999e-05
9.92026e-05
9.47616e-05
8.84425e-05
8.1925e-05
7.58001e-05
6.97554e-05
7.99108e-05
9.86941e-05
9.9063e-05
9.45993e-05
8.826e-05
8.1735e-05
7.56141e-05
6.95767e-05
1.88853e-05
1.84693e-05
1.82264e-05
1.81877e-05
1.81377e-05
1.80315e-05
1.78415e-05
1.75351e-05
2.11785e-05
2.06004e-05
2.00105e-05
1.9487e-05
1.90115e-05
1.8614e-05
1.8258e-05
1.78949e-05
2.33256e-05
2.29045e-05
2.24423e-05
2.1984e-05
2.15232e-05
2.10701e-05
2.05672e-05
2.00526e-05
2.40007e-05
2.38856e-05
2.37898e-05
2.37914e-05
2.38765e-05
2.36746e-05
2.30818e-05
2.24628e-05
2.3588e-05
2.32429e-05
2.2791e-05
2.23737e-05
2.19185e-05
2.14397e-05
2.09212e-05
2.03738e-05
2.14132e-05
2.09187e-05
2.03634e-05
1.98056e-05
1.92853e-05
1.88086e-05
1.83785e-05
1.79758e-05
1.91197e-05
1.86646e-05
1.83981e-05
1.83508e-05
1.82719e-05
1.81441e-05
1.79348e-05
1.76147e-05
6.77836e-05
6.70762e-05
6.61457e-05
6.43277e-05
6.20698e-05
5.94777e-05
5.64643e-05
5.28318e-05
7.29671e-05
7.11693e-05
6.90411e-05
6.65169e-05
6.37569e-05
6.06804e-05
5.71279e-05
5.28365e-05
7.63089e-05
7.43918e-05
7.21906e-05
6.96812e-05
6.69109e-05
6.37689e-05
6.01106e-05
5.57029e-05
7.83974e-05
7.73442e-05
7.60369e-05
7.43227e-05
7.22895e-05
6.95388e-05
6.56119e-05
6.14689e-05
7.67036e-05
7.47853e-05
7.25138e-05
6.99119e-05
6.7068e-05
6.3902e-05
6.01316e-05
5.56279e-05
7.38386e-05
7.20654e-05
6.97698e-05
6.71606e-05
6.42877e-05
6.11501e-05
5.75479e-05
5.3218e-05
6.85795e-05
6.80817e-05
6.70952e-05
6.51357e-05
6.27372e-05
6.00273e-05
5.69153e-05
5.31974e-05
9.86517e-05
9.25955e-05
8.81204e-05
8.36016e-05
7.8776e-05
7.39368e-05
6.90304e-05
6.37404e-05
0.000101127
9.41286e-05
8.91845e-05
8.42693e-05
7.90933e-05
7.39125e-05
6.86331e-05
6.29039e-05
0.000103974
9.61944e-05
9.05487e-05
8.50025e-05
7.93449e-05
7.37863e-05
6.81192e-05
6.18624e-05
0.00010689
9.97326e-05
9.43835e-05
8.88329e-05
8.29987e-05
7.723e-05
7.17241e-05
6.61377e-05
0.000104051
9.62493e-05
9.06027e-05
8.50148e-05
7.93046e-05
7.37113e-05
6.80517e-05
6.18577e-05
0.000101231
9.41804e-05
8.93225e-05
8.44326e-05
7.92593e-05
7.40839e-05
6.88144e-05
6.3095e-05
9.87542e-05
9.26977e-05
8.8389e-05
8.39015e-05
7.90431e-05
7.41554e-05
6.92057e-05
6.38785e-05
0.000127887
0.000113478
0.000102166
9.37329e-05
8.63224e-05
7.97234e-05
7.3698e-05
6.76855e-05
0.000128144
0.000113445
0.000102011
9.34352e-05
8.58382e-05
7.90428e-05
7.28128e-05
6.65746e-05
0.000128088
0.000112815
0.000101016
9.20948e-05
8.42076e-05
7.72056e-05
7.07463e-05
6.41351e-05
0.000129378
0.000113968
0.000101657
9.17016e-05
8.23815e-05
7.37917e-05
6.5846e-05
5.85322e-05
0.000127813
0.000112557
0.000100832
9.19709e-05
8.41116e-05
7.7125e-05
7.06909e-05
6.41275e-05
0.000127655
0.000113007
0.000101752
9.33386e-05
8.58361e-05
7.90872e-05
7.28822e-05
6.66595e-05
0.000127311
0.000112969
0.000101896
9.36655e-05
8.63515e-05
7.97726e-05
7.37398e-05
6.77166e-05
7.91357e-05
9.8158e-05
9.86848e-05
9.42826e-05
8.79594e-05
8.1431e-05
7.52848e-05
6.92059e-05
7.83914e-05
9.75428e-05
9.80896e-05
9.36075e-05
8.71914e-05
8.06064e-05
7.4418e-05
6.8274e-05
7.74386e-05
9.66974e-05
9.72339e-05
9.26285e-05
8.61041e-05
7.94655e-05
7.31675e-05
6.67084e-05
7.49302e-05
9.39708e-05
9.3735e-05
8.78172e-05
7.95778e-05
7.09525e-05
6.23268e-05
5.37998e-05
7.72021e-05
9.64836e-05
9.70874e-05
9.25415e-05
8.60593e-05
7.94485e-05
7.31734e-05
6.67418e-05
7.78998e-05
9.70948e-05
9.77889e-05
9.34475e-05
8.71376e-05
8.06179e-05
7.44649e-05
6.83402e-05
7.83905e-05
9.74821e-05
9.82187e-05
9.40114e-05
8.78309e-05
8.13867e-05
7.52836e-05
6.92252e-05
1.90242e-05
1.8585e-05
1.83742e-05
1.83814e-05
1.83708e-05
1.82944e-05
1.81197e-05
1.78143e-05
2.09815e-05
2.04064e-05
1.99004e-05
1.94673e-05
1.91018e-05
1.8835e-05
1.85885e-05
1.82405e-05
2.28991e-05
2.2509e-05
2.20717e-05
2.163e-05
2.11393e-05
2.06445e-05
2.01514e-05
1.95996e-05
2.41879e-05
2.39602e-05
2.37501e-05
2.34717e-05
2.29451e-05
2.22636e-05
2.15912e-05
2.11222e-05
2.29712e-05
2.26012e-05
2.22074e-05
2.17732e-05
2.12683e-05
2.07222e-05
2.02084e-05
1.96553e-05
2.09887e-05
2.05379e-05
2.00975e-05
1.96053e-05
1.91758e-05
1.8799e-05
1.85e-05
1.81719e-05
1.89602e-05
1.85634e-05
1.83681e-05
1.83572e-05
1.83168e-05
1.82208e-05
1.80436e-05
1.77519e-05
6.85699e-05
6.83147e-05
6.75775e-05
6.57464e-05
6.33934e-05
6.06835e-05
5.75553e-05
5.38158e-05
7.32253e-05
7.20939e-05
7.03772e-05
6.8115e-05
6.54654e-05
6.24235e-05
5.88432e-05
5.44732e-05
7.78605e-05
7.63113e-05
7.43931e-05
7.19889e-05
6.9231e-05
6.61005e-05
6.23638e-05
5.75826e-05
8.0974e-05
8.02108e-05
7.89586e-05
7.69444e-05
7.41882e-05
7.07254e-05
6.64909e-05
6.09868e-05
7.78172e-05
7.61634e-05
7.41198e-05
7.16668e-05
6.88978e-05
6.57966e-05
6.21258e-05
5.74433e-05
7.3198e-05
7.19095e-05
7.00312e-05
6.78043e-05
6.52352e-05
6.23456e-05
5.89459e-05
5.47335e-05
6.82434e-05
6.77732e-05
6.69139e-05
6.51492e-05
6.29582e-05
6.0445e-05
5.75195e-05
5.39751e-05
9.91413e-05
9.31563e-05
8.89301e-05
8.44499e-05
7.95549e-05
7.46196e-05
6.96286e-05
6.42699e-05
0.000102319
9.54732e-05
9.08488e-05
8.60087e-05
8.07333e-05
7.53922e-05
6.99556e-05
6.40768e-05
0.000107121
9.95306e-05
9.40354e-05
8.85521e-05
8.28843e-05
7.7276e-05
7.15461e-05
6.51816e-05
0.000111796
0.000105054
0.000100136
9.52303e-05
9.03319e-05
8.57591e-05
8.06207e-05
7.47593e-05
0.000107341
9.96915e-05
9.41622e-05
8.86949e-05
8.30753e-05
7.75276e-05
7.18489e-05
6.55335e-05
0.000102727
9.57815e-05
9.10173e-05
8.61523e-05
8.09259e-05
7.56602e-05
7.02885e-05
6.44466e-05
9.93385e-05
9.34361e-05
8.90728e-05
8.45972e-05
7.9775e-05
7.4929e-05
7.00232e-05
6.47392e-05
0.000127727
0.000113318
0.00010221
9.39539e-05
8.66141e-05
8.00212e-05
7.3989e-05
6.79742e-05
0.000129211
0.000114403
0.000102988
9.43995e-05
8.66957e-05
7.97694e-05
7.34446e-05
6.71438e-05
0.000131275
0.000115844
0.000103822
9.45852e-05
8.63865e-05
7.92322e-05
7.28654e-05
6.66782e-05
0.000135848
0.000121173
0.000109148
9.93033e-05
9.05274e-05
8.35146e-05
7.8721e-05
7.53676e-05
0.000131713
0.000116268
0.00010422
9.49778e-05
8.67876e-05
7.96287e-05
7.32214e-05
6.69591e-05
0.000129869
0.000114956
0.000103378
9.46762e-05
8.69203e-05
7.99745e-05
7.36359e-05
6.73124e-05
0.00012855
0.0001141
0.000102785
9.43716e-05
8.6968e-05
8.03673e-05
7.43517e-05
6.83575e-05
7.81954e-05
9.73596e-05
9.81618e-05
9.40035e-05
8.78693e-05
8.14765e-05
7.54213e-05
6.93965e-05
7.72837e-05
9.67604e-05
9.7641e-05
9.33878e-05
8.71349e-05
8.06957e-05
7.46345e-05
6.85833e-05
7.68256e-05
9.69457e-05
9.7932e-05
9.34332e-05
8.69292e-05
8.04473e-05
7.45668e-05
6.90551e-05
7.56222e-05
9.67818e-05
9.7288e-05
9.10436e-05
8.28914e-05
7.68564e-05
7.50817e-05
7.60432e-05
7.69839e-05
9.70744e-05
9.80595e-05
9.35654e-05
8.70521e-05
8.05303e-05
7.45777e-05
6.8974e-05
7.75129e-05
9.69021e-05
9.77293e-05
9.34474e-05
8.71761e-05
8.07224e-05
7.46481e-05
6.85825e-05
7.86228e-05
9.76406e-05
9.83577e-05
9.41663e-05
8.80226e-05
8.16306e-05
7.55865e-05
6.95776e-05
1.87548e-05
1.84762e-05
1.8356e-05
1.83384e-05
1.82701e-05
1.81392e-05
1.79288e-05
1.76114e-05
2.04482e-05
2.01186e-05
1.97655e-05
1.94434e-05
1.9101e-05
1.878e-05
1.8459e-05
1.80855e-05
2.25269e-05
2.22734e-05
2.19932e-05
2.1676e-05
2.1321e-05
2.0904e-05
2.04495e-05
1.99667e-05
2.38619e-05
2.38813e-05
2.38317e-05
2.37454e-05
2.35898e-05
2.32344e-05
2.27125e-05
2.20892e-05
2.30361e-05
2.27802e-05
2.24608e-05
2.20956e-05
2.16822e-05
2.11884e-05
2.06762e-05
2.01354e-05
2.08637e-05
2.03954e-05
1.99442e-05
1.94645e-05
1.90172e-05
1.86377e-05
1.83192e-05
1.79742e-05
1.88109e-05
1.84272e-05
1.81944e-05
1.8145e-05
1.81095e-05
1.80187e-05
1.78412e-05
1.75425e-05
6.81132e-05
6.73252e-05
6.61831e-05
6.43023e-05
6.2097e-05
5.96132e-05
5.67282e-05
5.32245e-05
7.20871e-05
7.06804e-05
6.87494e-05
6.63863e-05
6.37726e-05
6.08443e-05
5.74356e-05
5.32516e-05
7.63577e-05
7.4595e-05
7.24973e-05
7.0067e-05
6.73422e-05
6.42909e-05
6.07511e-05
5.63835e-05
7.92618e-05
7.81531e-05
7.67736e-05
7.49745e-05
7.26133e-05
6.94556e-05
6.58402e-05
6.1886e-05
7.66658e-05
7.48461e-05
7.27134e-05
7.02363e-05
6.74516e-05
6.43362e-05
6.07534e-05
5.63925e-05
7.22043e-05
7.08382e-05
6.88925e-05
6.65732e-05
6.39524e-05
6.10054e-05
5.75498e-05
5.33183e-05