/*--------------------------------*- C++ -*----------------------------------*\
| =========                 |                                                 |
| \\      /  F ield         | OpenFOAM: The Open Source CFD Toolbox           |
|  \\    /   O peration     | Version:  plus.master.MPPICInterFoam            |
|   \\  /    A nd           | Web:      www.OpenFOAM.com                      |
|    \\/     M anipulation  |                                                 |
\*---------------------------------------------------------------------------*/
FoamFile
{
    version     2.0;
    format      ascii;
    class       volScalarField;
    location    "2";
    object      epsilon;
}
// * * * * * * * * * * * * * * * * * * * * * * * * * * * * * * * * * * * * * //

dimensions      [0 2 -3 0 0 0 0];

internalField   nonuniform List<scalar> 
11821
(
0.00154671
0.00265139
0.00668109
0.0127537
0.00499853
0.00226849
0.00141836
0.00269651
0.0175737
0.087085
0.256436
0.0644878
0.0143184
0.00223826
0.0069272
0.0832841
0.196003
0.343491
0.154986
0.0573745
0.00457963
0.00853816
0.125833
0.214275
0.300087
0.291405
0.0686597
0.00496017
0.00381058
0.0330987
0.0960449
0.311434
0.0660732
0.0256951
0.00290614
0.00210222
0.00953481
0.0303104
0.0487203
0.0240621
0.00721599
0.0016885
0.00138279
0.00201656
0.00364488
0.00423736
0.00282749
0.00165549
0.00126241
0.0141789
0.0446773
0.111567
0.175241
0.0851132
0.0281167
0.00713746
0.0445329
0.157233
0.489815
1.01665
0.378455
0.108743
0.0255639
0.100332
0.432277
0.804732
0.802525
0.754293
0.300916
0.0601379
0.105961
0.519894
0.585989
0.67881
0.603759
0.278805
0.0549065
0.0439695
0.160762
0.449207
0.69074
0.27733
0.093342
0.0220005
0.015001
0.0436775
0.109604
0.140307
0.0727693
0.0254467
0.00794202
0.00518892
0.0125089
0.0252409
0.0281233
0.017224
0.00745747
0.00296011
0.0434381
0.110405
0.236622
0.32423
0.18544
0.0685069
0.0184902
0.108001
0.321219
0.838542
1.41037
0.68074
0.230975
0.0586602
0.206112
0.732549
1.17046
1.15084
1.2022
0.533946
0.123642
0.198998
0.752107
0.930848
1.05874
0.970956
0.490403
0.113738
0.0964307
0.301797
0.768625
1.07688
0.561241
0.198675
0.0501265
0.0364423
0.0973988
0.217161
0.276126
0.159205
0.0574479
0.0160352
0.0127443
0.0287624
0.0544714
0.0612139
0.0369377
0.0146674
0.00509537
0.0859053
0.186415
0.345562
0.435007
0.272718
0.115622
0.0367286
0.180437
0.457154
1.03445
1.55328
0.840632
0.322904
0.0961887
0.299752
0.877802
1.28201
1.34228
1.40852
0.643003
0.173488
0.274823
0.824312
1.14048
1.24321
1.22759
0.587941
0.159517
0.1521
0.401562
0.900823
1.28334
0.715574
0.275159
0.0814596
0.0671901
0.154061
0.295756
0.373439
0.230883
0.0949582
0.0304437
0.026387
0.0524919
0.0866244
0.0968789
0.0628038
0.0279478
0.0101027
0.122978
0.245021
0.415814
0.495112
0.31695
0.142773
0.0491927
0.236972
0.541091
1.12552
1.56673
0.86549
0.3517
0.113509
0.364059
0.932591
1.25776
1.41469
1.41235
0.639837
0.188408
0.326719
0.830068
1.22075
1.31611
1.3203
0.57348
0.173042
0.193998
0.450046
0.916958
1.29506
0.720636
0.294903
0.0967283
0.0939997
0.192245
0.331472
0.405646
0.258245
0.115604
0.0409967
0.0394826
0.0724005
0.109145
0.118771
0.0802
0.0385356
0.0147286
0.00115311
0.00102452
0.000889942
0.000769007
0.000662405
0.000568503
0.000484696
0.000412253
0.00153818
0.00124002
0.00105677
0.000928374
0.000826828
0.000735372
0.000644762
0.000559224
0.00191927
0.00133359
0.0010862
0.000945183
0.000867977
0.000805281
0.000743369
0.000669612
0.00192983
0.00130354
0.00107456
0.000952709
0.000893472
0.000860623
0.00081143
0.000756106
0.00160861
0.00126783
0.00106883
0.000943507
0.000866941
0.000808615
0.000744675
0.000675091
0.00135227
0.00119808
0.00105251
0.000932521
0.000826352
0.000728163
0.000634978
0.000545606
0.00113229
0.00104142
0.000904052
0.000781007
0.000664688
0.00055939
0.000470618
0.000398854
0.00244616
0.00133254
0.000945989
0.000758104
0.000644047
0.000561078
0.000492913
0.000434251
0.00560569
0.00201764
0.00114255
0.0008349
0.000686755
0.000594098
0.000522043
0.000458667
0.0104314
0.00278382
0.00131326
0.000893785
0.000718962
0.000621286
0.000550821
0.000490312
0.00955654
0.00265889
0.00131804
0.000916039
0.000742049
0.000637505
0.000562984
0.000499291
0.00504294
0.00194924
0.00115667
0.000860763
0.0007151
0.000623531
0.000554239
0.000493125
0.00268026
0.00142512
0.000997958
0.000797541
0.000679662
0.000595336
0.000525229
0.00046218
0.00152973
0.00107528
0.000858852
0.000724385
0.00062686
0.000549145
0.000483439
0.000426768
0.00479358
0.00189978
0.00108823
0.000793667
0.000663071
0.000589539
0.000534636
0.00048493
0.0125729
0.00338764
0.00141184
0.000872894
0.000680598
0.000590357
0.000531072
0.00047937
0.024469
0.00535985
0.00179178
0.000969749
0.000709005
0.000598689
0.000533673
0.00047977
0.0226694
0.00509728
0.00178616
0.000988255
0.000721254
0.000604601
0.000536964
0.000482195
0.0109856
0.00317664
0.00142727
0.000902712
0.000697568
0.000598248
0.000535109
0.000481145
0.00443851
0.00185931
0.00110185
0.000806649
0.000668561
0.000590841
0.000534122
0.000482388
0.0020905
0.00125127
0.000915382
0.000747901
0.000653217
0.000589658
0.000537087
0.000487361
0.00984926
0.00313952
0.00132004
0.000804198
0.000641849
0.000579135
0.000541761
0.000506492
0.0239303
0.00616462
0.00192499
0.000933521
0.000668497
0.000582564
0.000542305
0.000507646
0.0413584
0.00976223
0.00261555
0.00108579
0.000703682
0.000587271
0.00054127
0.00050716
0.0383923
0.0092537
0.00258835
0.00110584
0.000713392
0.000588095
0.000539288
0.000505024
0.0206446
0.00557721
0.00191418
0.000972739
0.000685446
0.000585188
0.000541947
0.000507944
0.00854193
0.00286355
0.0013173
0.000827845
0.000651739
0.000581517
0.000544173
0.000509775
0.00342488
0.00160441
0.000986592
0.000738695
0.000632202
0.000580739
0.000545776
0.00051064
0.0140006
0.00431272
0.0014731
0.000757622
0.000578664
0.00052527
0.000511787
0.000518271
0.03126
0.00856039
0.00238327
0.000936035
0.000609931
0.00052467
0.000504511
0.000512953
0.0497223
0.0129461
0.00337769
0.00115871
0.000658148
0.000531068
0.000501189
0.00050963
0.0466443
0.0122956
0.00334101
0.00118809
0.000671502
0.000533689
0.000500187
0.000508368
0.0273898
0.00776472
0.00238217
0.000997786
0.000635369
0.000528719
0.000500766
0.00050835
0.0122273
0.00389721
0.00148132
0.000797989
0.000592334
0.000522348
0.000502622
0.000509776
0.00482885
0.00193281
0.000997822
0.000684556
0.000569732
0.000523795
0.000509231
0.000514107
0.00122873
0.00109162
0.000947743
0.000822035
0.000703543
0.000599605
0.000508119
0.000431415
0.00170595
0.0015387
0.00134675
0.00117841
0.00104481
0.000937244
0.000853148
0.000776044
0.00234806
0.00190475
0.00159806
0.0013865
0.00122647
0.00110367
0.00100688
0.000933318
0.00315824
0.00214179
0.00174616
0.00149963
0.00131928
0.00118449
0.0010864
0.00102219
0.0029583
0.00211306
0.00170819
0.00144046
0.00124718
0.00110788
0.00100571
0.000933437
0.00194823
0.00168124
0.00144413
0.00123028
0.00106479
0.000931932
0.000830229
0.000751094
0.00127401
0.00113046
0.00101112
0.000865789
0.000741173
0.000634807
0.000542926
0.000464449
0.00255273
0.00157992
0.00112461
0.000867586
0.00070895
0.000601295
0.000520558
0.000455684
0.00528301
0.00257709
0.00158831
0.00111357
0.000850875
0.000691214
0.000584264
0.000505706
0.0121628
0.00458282
0.00242245
0.00152948
0.00107198
0.000820174
0.000674498
0.000582146
0.0239015
0.00751143
0.00341324
0.00199252
0.00132294
0.000974175
0.000786314
0.000677457
0.0244259
0.00768668
0.00334404
0.00185206
0.00118501
0.000860711
0.000693231
0.000595452
0.0123589
0.00452815
0.00226427
0.00136241
0.000940303
0.000727253
0.000604071
0.00051992
0.00481713
0.00234778
0.00143898
0.000999475
0.00076651
0.000630475
0.000539212
0.000469395
0.00527008
0.00256745
0.00148218
0.00098565
0.000749872
0.000628934
0.000553628
0.000495165
0.0128547
0.00515994
0.00243232
0.00134581
0.000878979
0.000673929
0.00057094
0.000503049
0.030222
0.0109618
0.00439086
0.00206031
0.00112787
0.000754353
0.000599934
0.00051932
0.0562159
0.0188305
0.00698904
0.0029083
0.00140553
0.000835633
0.000622774
0.000527894
0.0601832
0.0203755
0.00732298
0.00289711
0.00134227
0.000799136
0.000607429
0.000520738
0.0350252
0.012797
0.00480139
0.00204921
0.0010598
0.000711833
0.000576226
0.000502555
0.0156135
0.00634394
0.00277007
0.00139125
0.000858651
0.000650956
0.000553569
0.00049088
0.0111944
0.00489274
0.00219939
0.0011362
0.000752096
0.000616252
0.000555853
0.000512391
0.0267101
0.0110861
0.00448524
0.00185095
0.000934858
0.000652473
0.000559658
0.00050989
0.0564743
0.0227028
0.00902448
0.00336037
0.0013353
0.000734262
0.00057122
0.000508928
0.0956572
0.037261
0.0144982
0.00520055
0.00181782
0.000828494
0.000582198
0.000505367
0.104921
0.0410188
0.0157456
0.00546131
0.00181403
0.000813654
0.000580358
0.000508262
0.0688843
0.0284893
0.0111268
0.003816
0.00135862
0.000720959
0.000565596
0.000506609
0.0353705
0.0156605
0.00623558
0.00227848
0.000997852
0.000655097
0.000554592
0.000504809
0.0172971
0.00735639
0.00289525
0.00118339
0.000677168
0.000550691
0.000525394
0.00053114
0.0405203
0.0172478
0.00673779
0.00234546
0.000922087
0.000587483
0.000527494
0.000531573
0.0803415
0.034348
0.0137787
0.00481157
0.00152293
0.000688075
0.000542174
0.000536311
0.128537
0.0538301
0.0215242
0.00761836
0.0022807
0.000820936
0.000562663
0.000543253
0.141661
0.0593518
0.0235442
0.00814255
0.00232442
0.000808813
0.000558727
0.000541267
0.0986086
0.0429481
0.0171076
0.00566166
0.00160568
0.000681145
0.000542151
0.00053788
0.0537577
0.0244746
0.00966121
0.00310489
0.00102751
0.000598332
0.000534478
0.000536542
0.00130257
0.00117044
0.0010081
0.000864442
0.000748984
0.000648646
0.000557608
0.00047575
0.00181934
0.00151044
0.00128495
0.00113965
0.00102724
0.000931104
0.000841981
0.000752617
0.0025656
0.00171042
0.00147171
0.00133936
0.00122865
0.00112448
0.00102975
0.000943596
0.00331963
0.00175061
0.00143442
0.00132917
0.00125475
0.00118105
0.00110912
0.00104089
0.00220407
0.00154144
0.00131239
0.00120288
0.00112824
0.00106398
0.0010013
0.000936978
0.00166228
0.00135586
0.0011444
0.00101568
0.000931757
0.000864687
0.000804888
0.000745022
0.00119824
0.00107096
0.00094002
0.000821053
0.00071998
0.0006294
0.000547316
0.000474461
0.00471528
0.00231117
0.00143823
0.00100739
0.000773453
0.000634784
0.000541577
0.000471036
0.0119757
0.00434098
0.00226102
0.00141942
0.000998706
0.000769238
0.000631697
0.00053887
0.0240662
0.00699596
0.0031295
0.00189207
0.00129879
0.000965781
0.000769374
0.000646401
0.0299598
0.00720034
0.00305983
0.00191749
0.00139618
0.00109122
0.000893853
0.000760986
0.0167628
0.00466649
0.00222957
0.00145515
0.00108831
0.000871608
0.00072952
0.000629866
0.00655469
0.00248979
0.00144862
0.001046
0.000835288
0.000702422
0.000606511
0.000530287
0.00254788
0.0014157
0.00101413
0.000812472
0.000689193
0.000600814
0.000529473
0.000468315
0.0153
0.00615964
0.0027123
0.00138052
0.000860257
0.000653598
0.00055527
0.000491762
0.0344498
0.0120278
0.00452939
0.00199833
0.00106814
0.000724405
0.00058334
0.000505576
0.0623203
0.0182805
0.0061779
0.00258003
0.00131168
0.000825232
0.000630537
0.000535732
0.0729075
0.0184514
0.00583407
0.00249418
0.00134425
0.000872383
0.000664957
0.00056
0.0434569
0.0113285
0.00380628
0.00177285
0.001052
0.000754266
0.000615625
0.000535284
0.0165619
0.00482516
0.00202156
0.00114792
0.000810274
0.000657293
0.000571333
0.000508509
0.00513799
0.00205407
0.00117527
0.000840271
0.000689201
0.000606073
0.000546731
0.00049494
0.0347875
0.015077
0.00590211
0.00215933
0.000967953
0.000648469
0.000552645
0.000503829
0.0683532
0.0265047
0.00971005
0.00322354
0.00120025
0.000686024
0.000554714
0.000499998
0.110825
0.0379308
0.0127306
0.00404992
0.00141987
0.000733058
0.000562775
0.000501406
0.123517
0.0376533
0.0116213
0.0036196
0.00134767
0.000731546
0.000564433
0.000500889
0.0787075
0.0233079
0.00692279
0.00227144
0.00100243
0.000655699
0.000551007
0.000500604
0.0333762
0.00984033
0.00309239
0.00125855
0.000751175
0.000599766
0.000540427
0.000499337
0.010797
0.00347508
0.00143225
0.000837662
0.000650957
0.000580796
0.000540805
0.00050454
0.0531556
0.0235404
0.00903098
0.00284654
0.00096925
0.000589324
0.000532564
0.000535411
0.0983105
0.0400859
0.0144563
0.00428394
0.00122487
0.000617007
0.00053034
0.000533161
0.149406
0.055202
0.0185394
0.00530598
0.00144508
0.0006513
0.000532412
0.000532709
0.160908
0.0538966
0.0165212
0.00453271
0.00130737
0.000641173
0.000534462
0.000536594
0.103978
0.0334712
0.00975814
0.00266931
0.000929994
0.000581446
0.000521414
0.000527302
0.0463983
0.0143375
0.00409902
0.00130023
0.00067301
0.000539013
0.00051328
0.000521949
0.0155787
0.0048236
0.00161145
0.000784632
0.00058378
0.000526979
0.000513443
0.000520507
0.00109496
0.000988947
0.0008885
0.000781439
0.00067766
0.000584433
0.000501567
0.000430224
0.00135507
0.00122524
0.00107549
0.000948666
0.000848186
0.000763601
0.000690103
0.000622951
0.00175058
0.00149554
0.00132002
0.00117949
0.00107762
0.000991467
0.00090881
0.00084273
0.00217998
0.0017549
0.00152956
0.0013841
0.00127519
0.00118023
0.00110029
0.00104061
0.00207791
0.00172911
0.00152621
0.00137177
0.00124073
0.00112018
0.00101971
0.000949588
0.00158803
0.00142175
0.00125186
0.0010942
0.000967985
0.000865379
0.000778238
0.000700196
0.00118331
0.00105789
0.000926947
0.000801516
0.000691874
0.000596835
0.000512109
0.000437767
0.00159515
0.00113266
0.000904229
0.000761178
0.00065896
0.000578616
0.000510931
0.000451981
0.00275741
0.00158371
0.00114415
0.000915972
0.000769605
0.000661977
0.000575626
0.000503311
0.0048847
0.00233256
0.00153658
0.00117142
0.000951219
0.00079595
0.000680263
0.000591673
0.00710317
0.00308281
0.00193352
0.00143415
0.00114225
0.000944132
0.000802493
0.000699295
0.00701057
0.00316161
0.00196607
0.00141841
0.00109617
0.000881804
0.000732324
0.000626805
0.00448055
0.00236375
0.00154391
0.00113235
0.000890008
0.000730053
0.000615327
0.000527508
0.00250263
0.00157566
0.00112849
0.000877188
0.000720755
0.00061303
0.000531187
0.000464116
0.00217955
0.00131883
0.000958178
0.000774474
0.000669967
0.000600888
0.000545398
0.000494188
0.00445941
0.00207021
0.00127421
0.000921613
0.000738954
0.00063314
0.000560985
0.00050172
0.0093265
0.00343979
0.00180449
0.00116867
0.00085826
0.00069066
0.000591321
0.000521232
0.0147122
0.00492498
0.00234717
0.00141589
0.000979387
0.000749286
0.000620624
0.000538547
0.0144573
0.00510537
0.00241318
0.00141477
0.000957882
0.000729295
0.000605701
0.000526541
0.00922919
0.00377508
0.00194237
0.0011904
0.000844234
0.00067217
0.000574189
0.000505034
0.0048871
0.00243485
0.00143005
0.000970647
0.000748846
0.000631132
0.000555773
0.000496609
0.00353215
0.00168328
0.00102523
0.000755829
0.00063921
0.000583338
0.000546374
0.000510198
0.00829969
0.00310283
0.00150312
0.000924453
0.00069285
0.000595806
0.000546559
0.000506715
0.0172042
0.00569088
0.00233643
0.00122553
0.000798242
0.000626931
0.000553755
0.000507441
0.0262171
0.00842155
0.00320974
0.0015327
0.000906372
0.00065951
0.000560636
0.00050647
0.0257763
0.00884205
0.00340419
0.00157031
0.000902434
0.000655879
0.00056157
0.000509809
0.0177786
0.00679543
0.00278063
0.0013351
0.000816207
0.000632068
0.000557784
0.000510492
0.0100524
0.00437765
0.00200342
0.00108004
0.000741107
0.000615851
0.000557178
0.000513656
0.00490027
0.00199112
0.00102176
0.000692379
0.000572382
0.000525313
0.000510724
0.000515717
0.0119371
0.0041371
0.00166356
0.000874425
0.000618442
0.000532288
0.000508908
0.000515629
0.0240397
0.0078534
0.00282335
0.00122516
0.000716102
0.000556158
0.0005144
0.000519629
0.0356483
0.0116147
0.0040184
0.00158445
0.000812469
0.00057985
0.000522499
0.000526713
0.0355989
0.01234
0.00432098
0.00163641
0.000806971
0.000574031
0.00052001
0.000524441
0.0259179
0.00973889
0.0035367
0.00136684
0.000724467
0.000556153
0.000519809
0.000525933
0.015309
0.00639562
0.00250306
0.00107891
0.000659097
0.000548723
0.000524923
0.000530035
0.000355236
0.000482406
0.000599181
0.000701603
0.000605827
0.000468472
0.000345445
0.000384774
0.000402976
0.000436494
0.000445571
0.000439069
0.000405695
0.00037913
0.000438019
0.000431545
0.000430551
0.000432546
0.00043151
0.000433774
0.000439708
0.000467781
0.000468593
0.000468321
0.000466107
0.000468592
0.000470017
0.000471008
0.000517799
0.000517283
0.000516572
0.000516507
0.000515791
0.000515143
0.000514967
0.000370945
0.000697303
0.000873049
0.000976243
0.000876081
0.000686103
0.000398848
0.00040257
0.000445618
0.000520987
0.000616027
0.000533765
0.000458143
0.000413151
0.00044469
0.000449574
0.000464398
0.000471813
0.000465821
0.00044902
0.000440581
0.000470288
0.00046599
0.000462957
0.000457056
0.00046171
0.000462469
0.000463149
0.000528918
0.000531061
0.000534159
0.000538618
0.000534974
0.000532189
0.000529572
0.000405911
0.000675294
0.000871827
0.000989449
0.000876659
0.000679727
0.000412228
0.000414395
0.000471147
0.000568016
0.000678613
0.00056024
0.000469157
0.000415258
0.000440955
0.000449737
0.000475906
0.000497213
0.000478626
0.000456077
0.000446837
0.000462494
0.000456966
0.000457135
0.000454902
0.000457721
0.000458525
0.00046574
0.0005288
0.000529744
0.000531333
0.000537943
0.000528592
0.000523329
0.000519613
0.000373779
0.000563886
0.000789818
0.000994917
0.00089194
0.000633404
0.000378064
0.000400963
0.000444424
0.000527304
0.000633359
0.000554938
0.00046049
0.000408262
0.000445716
0.000450072
0.000466234
0.000480426
0.000468439
0.00044988
0.000445468
0.000470075
0.000464582
0.000463152
0.000459493
0.000464291
0.000466187
0.000471115
0.000516422
0.000519841
0.00052518
0.00053296
0.000528937
0.000528105
0.000528111
0.000299813
0.000261753
0.000245115
0.000236856
0.000232024
0.000228956
0.000226019
0.000221244
0.00036918
0.000284493
0.000248581
0.000237288
0.000230822
0.000226417
0.000222705
0.000218014
0.000490648
0.000385116
0.000313456
0.000269705
0.000246822
0.000233369
0.000225377
0.00021928
0.000616386
0.000519316
0.000434223
0.000380412
0.000334288
0.000285974
0.000247609
0.000226737
0.000500144
0.000400825
0.000329388
0.000280976
0.000250592
0.000234098
0.000225371
0.00021909
0.000362201
0.000282037
0.000250158
0.000238866
0.00023169
0.000226776
0.000222832
0.000218017
0.000295037
0.0002604
0.000244873
0.000236841
0.000231877
0.00022845
0.00022524
0.000220365
0.000328971
0.000280565
0.000255225
0.000242606
0.000235516
0.000230408
0.000225366
0.000218914
0.000338534
0.000280916
0.000253128
0.000240915
0.000234386
0.000229606
0.000224849
0.000218705
0.000370955
0.000302428
0.000262752
0.000245778
0.000238049
0.000231797
0.0002258
0.000219071
0.000379083
0.000313697
0.000275133
0.000258324
0.000252034
0.000242226
0.000231282
0.000221406
0.000372091
0.000303597
0.000263971
0.000247231
0.000239013
0.000232238
0.000225924
0.000219079
0.000340107
0.000281344
0.000253429
0.000241269
0.000234631
0.000229715
0.000224867
0.00021868
0.000325212
0.000278852
0.00025468
0.000242493
0.000235493
0.000230363
0.000225292
0.000218848
0.000379692
0.00031413
0.000276526
0.000258247
0.000249071
0.000243131
0.000237443
0.000230182
0.000375443
0.000311474
0.000274704
0.000257054
0.000248331
0.000242705
0.000237257
0.000230191
0.000374576
0.000311447
0.000275354
0.000257852
0.000248912
0.000242994
0.000237376
0.000230258
0.000376024
0.000312374
0.000275879
0.000259305
0.000251229
0.000244802
0.000238299
0.000230683
0.000374849
0.000311451
0.000275521
0.000258124
0.00024909
0.000243044
0.000237375
0.000230256
0.000376213
0.000311282
0.000274452
0.000256919
0.000248269
0.000242668
0.000237226
0.000230162
0.000379868
0.000313501
0.000275952
0.000257892
0.000248871
0.000243016
0.000237377
0.000230149
0.000413048
0.000334534
0.00028485
0.000261576
0.000251432
0.000245852
0.000240626
0.000233556
0.000415214
0.000335915
0.000285086
0.000261346
0.000251162
0.000245684
0.000240585
0.000233625
0.00041615
0.000337179
0.000285809
0.000261614
0.00025124
0.000245707
0.00024061
0.000233676
0.000414262
0.00033634
0.000285664
0.000261709
0.000251455
0.000245952
0.00024082
0.000233849
0.00041571
0.000336622
0.000285468
0.000261452
0.000251173
0.000245678
0.000240598
0.000233675
0.000415343
0.000335208
0.000284423
0.000260933
0.000250942
0.000245571
0.000240526
0.000233594
0.000414454
0.000334238
0.000284147
0.000261019
0.000251091
0.00024566
0.000240525
0.000233511
0.000386083
0.000319206
0.000277924
0.000257985
0.000249528
0.000245087
0.000240624
0.000233999
0.00038787
0.00032072
0.000278634
0.00025822
0.000249587
0.000245108
0.000240662
0.000234069
0.000389445
0.000321991
0.000279285
0.00025849
0.000249689
0.000245151
0.000240695
0.000234113
0.000389478
0.000321769
0.000279202
0.000258563
0.000249838
0.000245303
0.000240816
0.000234206
0.000387838
0.000320426
0.000278355
0.000258047
0.000249499
0.00024507
0.000240659
0.000234098
0.000385577
0.000318366
0.000277086
0.00025739
0.000249185
0.00024492
0.000240574
0.00023403
0.000383769
0.00031663
0.000276084
0.000256925
0.000248987
0.000244826
0.000240505
0.000233954
0.00031273
0.000270969
0.00025233
0.000243027
0.000235564
0.000229662
0.00022488
0.000219276
0.000558111
0.000430581
0.000352829
0.000299308
0.000266321
0.000246192
0.000235734
0.000227482
0.000772691
0.00067087
0.000597957
0.000539797
0.00048259
0.00042179
0.000360234
0.000309018
0.000904588
0.000843419
0.000797096
0.000755002
0.000722303
0.000696487
0.000670477
0.000649005
0.000781653
0.000685969
0.000615632
0.000566162
0.000520705
0.00046768
0.000403572
0.000339601
0.000559422
0.000444356
0.000371919
0.00031684
0.000279845
0.000254587
0.000238963
0.000229146
0.000329328
0.000277715
0.000255298
0.000245728
0.000238337
0.000231362
0.000225802
0.000220003
0.000344065
0.000290389
0.000261863
0.000247545
0.000239258
0.000233083
0.000227057
0.000219828
0.000378892
0.000316124
0.000280991
0.000261255
0.000248929
0.000239591
0.000231065
0.00022234
0.000453278
0.000394349
0.000359341
0.000336198
0.000319311
0.000304262
0.00028721
0.000267826
0.000548288
0.000500404
0.00047543
0.000466712
0.000469765
0.000487026
0.000512853
0.000519345
0.000465305
0.000406117
0.000370345
0.000346366
0.00032897
0.000314358
0.000297217
0.000275867
0.000389503
0.000325281
0.000288589
0.000266866
0.000252849
0.000242374
0.000233018
0.00022354
0.000351522
0.000294244
0.00026374
0.0002486
0.000240006
0.000233627
0.000227442
0.000220085
0.000385688
0.000320697
0.000282712
0.000263422
0.000253094
0.000246012
0.000239299
0.000231249
0.000391434
0.000327051
0.000288259
0.000267623
0.000256174
0.000248297
0.000241089
0.000232808
0.000407301
0.00034486
0.000306334
0.000285155
0.00027333
0.000265123
0.000257255
0.000248121
0.000416072
0.000360101
0.000329295
0.000316348
0.000313629
0.000315584
0.00031594
0.000316188
0.000409498
0.000347662
0.000308912
0.000287113
0.00027486
0.00026665
0.000258967
0.000249556
0.00039192
0.000328264
0.000289498
0.000268678
0.000257033
0.000249055
0.000241706
0.000233259
0.000383198
0.000319613
0.000282237
0.000263236
0.000253089
0.000246109
0.000239418
0.000231357
0.00041428
0.000336365
0.000287045
0.000263477
0.000252886
0.000246876
0.000241253
0.000233852
0.000411796
0.000336653
0.0002885
0.000264915
0.000253982
0.000247663
0.00024183
0.000234335
0.000410351
0.000339235
0.000293249
0.000270074
0.000259078
0.000252784
0.000247177
0.000240128
0.000404686
0.000336701
0.000294395
0.000274074
0.000265566
0.00026171
0.000258945
0.000256227
0.000409829
0.000339559
0.000293809
0.000270552
0.000259465
0.000253146
0.000247521
0.000240425
0.000409747
0.000336367
0.000288906
0.000265402
0.000254369
0.000247956
0.000242052
0.000234501
0.000409531
0.000334606
0.000286733
0.000263607
0.00025308
0.000247043
0.000241384
0.000233953
0.000392524
0.000322981
0.000280305
0.000259484
0.000250505
0.000245726
0.000240987
0.000234131
0.000395094
0.000324498
0.000281183
0.000259971
0.00025079
0.000245915
0.000241122
0.000234238
0.000399043
0.00032764
0.000283712
0.000262143
0.000252846
0.000247983
0.000243252
0.00023647
0.00040148
0.000327709
0.000283267
0.000261985
0.000253486
0.000249728
0.000246322
0.000241251
0.000400719
0.000329158
0.000284623
0.000262614
0.000253103
0.00024816
0.000243399
0.000236598
0.000396815
0.000326471
0.000282503
0.000260698
0.000251166
0.000246119
0.000241241
0.000234315
0.000393454
0.00032467
0.000281665
0.000260345
0.000250988
0.000245985
0.000241125
0.000234204
0.000331341
0.000279171
0.000255149
0.00024248
0.000235615
0.000231139
0.000227298
0.000221741
0.00055816
0.000443313
0.00036028
0.000299496
0.000263363
0.000248886
0.000242513
0.000234545
0.00076942
0.000673174
0.000593804
0.000519339
0.000447672
0.000384055
0.000332478
0.000294777
0.000919615
0.000853093
0.000775925
0.000715524
0.000674061
0.000628547
0.000584629
0.000552733
0.000781162
0.000693279
0.000624274
0.000557118
0.000488684
0.000420824
0.000360616
0.000312106
0.000567067
0.000468522
0.000395201
0.000332276
0.000280285
0.000250641
0.000239888
0.000233104
0.000341844
0.000284584
0.00025684
0.000242818
0.000234373
0.000229693
0.000226264
0.00022151
0.000352329
0.000294655
0.000263346
0.000247963
0.000239682
0.000233717
0.00022783
0.000220633
0.000396995
0.000325708
0.000284082
0.000261949
0.000249787
0.00024075
0.000232042
0.000222857
0.00048396
0.000412608
0.000370527
0.00034551
0.000325856
0.000307506
0.000287643
0.000267591
0.00058535
0.000514275
0.000476553
0.000460415
0.000456967
0.000462304
0.000466833
0.00047016
0.000480111
0.000409978
0.000369743
0.000347935
0.000332209
0.000315461
0.000295175
0.000273157
0.000397244
0.00032811
0.000287599
0.00026562
0.000252999
0.000243393
0.000233667
0.000223522
0.000353503
0.000295052
0.000262903
0.000247291
0.000238902
0.000233132
0.00022762
0.000220715
0.000383056
0.00031926
0.000281803
0.000262809
0.000252742
0.000245925
0.000239432
0.0002315
0.000390511
0.000326043
0.000287175
0.000266648
0.000255598
0.000248277
0.000241725
0.000234068
0.000415132
0.000351577
0.000312223
0.000289922
0.000277835
0.000269807
0.000262687
0.000255833
0.000434874
0.00037672
0.00034256
0.000329595
0.000332812
0.000343269
0.000356048
0.000371225
0.000418005
0.000353819
0.000314062
0.000291533
0.000279573
0.000271596
0.000264021
0.000256558
0.000396179
0.000329846
0.000289561
0.000268047
0.000256295
0.000248471
0.000241549
0.00023377
0.00038746
0.000320998
0.000282175
0.00026262
0.000252344
0.000245519
0.000239133
0.000231324
0.000409077
0.00033453
0.000286858
0.00026379
0.000253242
0.000247175
0.000241495
0.000234043
0.00040496
0.000333585
0.000287963
0.00026552
0.000254985
0.000248803
0.000243036
0.000235538
0.000406091
0.000337637
0.00029401
0.000272492
0.000262723
0.000257612
0.000253279
0.000247609
0.000402849
0.000337772
0.000299494
0.000282245
0.000277432
0.00027936
0.000285974
0.00029652
0.000406347
0.000337902
0.000294511
0.000273074
0.000263229
0.000257988
0.00025352
0.000247728
0.000406007
0.000333877
0.000287969
0.000265419
0.00025481
0.000248568
0.000242794
0.000235344
0.000411594
0.000335204
0.000286622
0.000263363
0.000252845
0.000246864
0.000241299
0.000233962
0.000392862
0.000324438
0.000281661
0.000260415
0.000251051
0.000246026
0.000241155
0.00023423
0.00039405
0.000324485
0.000281714
0.000260613
0.000251367
0.000246399
0.000241518
0.000234541
0.000396666
0.000327009
0.000284371
0.000263542
0.000254743
0.000250346
0.000246092
0.000239715
0.000396852
0.000323425
0.000282062
0.000263672
0.000257785
0.00025673
0.000256649
0.000255521
0.000394177
0.00032479
0.000283095
0.000262969
0.000254542
0.000250302
0.000246106
0.000239749
0.000389079
0.000320613
0.000279335
0.000259291
0.00025064
0.00024598
0.000241276
0.000234421
0.000386667
0.000319594
0.000278539
0.000258621
0.00025006
0.000245479
0.000240877
0.00023413
0.000317708
0.000272644
0.000251194
0.000240944
0.0002343
0.000229623
0.000225507
0.000220291
0.000478957
0.000398439
0.000340691
0.000295481
0.000265669
0.000248349
0.000239458
0.000230864
0.000708784
0.000635948
0.000576328
0.000520441
0.000461034
0.000399525
0.000344217
0.00030158
0.000921488
0.000856494
0.000797063
0.000745788
0.00070578
0.00066637
0.000629074
0.000600514
0.000797602
0.000711146
0.000637654
0.000571567
0.000504405
0.00043423
0.000368701
0.000314445
0.000532092
0.000437546
0.000362883
0.000304659
0.000267274
0.000246664
0.000237123
0.000229054
0.00031874
0.000274033
0.000254309
0.000243346
0.000235174
0.000229554
0.000224889
0.000219233
0.00034159
0.000288058
0.000260215
0.000246437
0.000238678
0.000233008
0.000227366
0.000220337
0.000375382
0.000312284
0.000277538
0.0002588
0.000247555
0.000239
0.000230974
0.000222379
0.000449574
0.000385366
0.000350346
0.000330763
0.000317447
0.00030409
0.000287519
0.000267884
0.000554434
0.000496523
0.000468208
0.000458367
0.000459949
0.000475699
0.000494415
0.000499683
0.000470703
0.000402742
0.00036429
0.000342137
0.000327871
0.000313289
0.000294435
0.000271478
0.000385224
0.000317985
0.000281126
0.000261424
0.000249441
0.000240067
0.000231195
0.000222065
0.000346371
0.000291017
0.000262094
0.000247761
0.00023953
0.000233364
0.000227306
0.000220039
0.000385303
0.000318771
0.000280609
0.000261645
0.000251734
0.000245094
0.000238785
0.00023103
0.000390241
0.000324971
0.000286449
0.000266194
0.000255007
0.000247456
0.000240617
0.000232643
0.000405513
0.000341603
0.000304248
0.0002841
0.000272715
0.000264976
0.000257587
0.000249123
0.000419055
0.000360626
0.000329682
0.000316119
0.000314916
0.000319086
0.000323042
0.000327953
0.000406553
0.000342524
0.000305204
0.00028511
0.000273656
0.000265763
0.000257941
0.000248918
0.000389591
0.000324975
0.000286877
0.000266839
0.000255654
0.000247921
0.000240867
0.000232741
0.00038569
0.000320553
0.000282703
0.000263491
0.000253159
0.000246052
0.000239329
0.000231279
0.000413495
0.000334654
0.000285401
0.000262312
0.000252125
0.000246401
0.000241006
0.000233781
0.000409335
0.000333824
0.000286539
0.00026382
0.000253391
0.000247341
0.000241687
0.000234311
0.000408701
0.00033637
0.000291081
0.000269025
0.000258892
0.000253221
0.000248109
0.000241432
0.000404395
0.000334636
0.000293233
0.000274236
0.000266544
0.000263699
0.000262401
0.000261733
0.000409814
0.000337389
0.000291707
0.00026927
0.000258895
0.000253098
0.000247911
0.000241194
0.000410775
0.000335363
0.000287765
0.000264651
0.000253936
0.000247692
0.000241886
0.000234392
0.000414496