/*--------------------------------*- C++ -*----------------------------------*\
| =========                 |                                                 |
| \\      /  F ield         | OpenFOAM: The Open Source CFD Toolbox           |
|  \\    /   O peration     | Version:  plus.master.MPPICInterFoam            |
|   \\  /    A nd           | Web:      www.OpenFOAM.com                      |
|    \\/     M anipulation  |                                                 |
\*---------------------------------------------------------------------------*/
FoamFile
{
    version     2.0;
    format      ascii;
    class       volScalarField;
    location    "2";
    object      p;
}
// * * * * * * * * * * * * * * * * * * * * * * * * * * * * * * * * * * * * * //

dimensions      [1 -1 -2 0 0 0 0];

internalField   nonuniform List<scalar> 
11821
(
5640.29
5639.49
5640.2
5640.32
5639.96
5639.1
5639.74
5639.67
5646.51
5642.85
5642.56
5643.28
5645.41
5639.56
5640.47
5642.81
5645.23
5646.7
5645.11
5641.91
5639.87
5640.4
5642.17
5646.01
5649.68
5641.49
5642.09
5640.63
5640.23
5644.19
5644.91
5638.87
5645.52
5642.23
5640.14
5640.01
5644.74
5642.75
5642.02
5642.52
5647.52
5639.77
5640.83
5640.77
5641.02
5640.72
5640.23
5639.81
5639.97
5512.2
5512.24
5512.23
5512.22
5511.89
5511.91
5511.97
5512.34
5513.42
5514.97
5516.19
5514.33
5512.65
5512.02
5512.49
5515.25
5528.46
5535.3
5525.57
5513.8
5512.06
5512.47
5515.52
5532.22
5537.23
5525.67
5513.61
5512.01
5512.2
5513.88
5520.66
5517.05
5518.81
5512.64
5511.94
5512.16
5512.61
5513.21
5512.57
5512.77
5512.46
5512
5512.19
5512.23
5512.3
5512.06
5512.06
5512.06
5512.05
5381.9
5381.89
5381.92
5381.59
5381.45
5381.52
5381.67
5382.07
5382.24
5383.45
5382.43
5382.22
5381.7
5381.72
5382.43
5384
5396.44
5401.92
5392.85
5382.74
5381.88
5382.33
5383.67
5398.72
5399.18
5393.1
5382.46
5381.79
5381.96
5382.16
5385.55
5383.92
5384.01
5381.67
5381.66
5381.87
5381.87
5382.1
5381.69
5381.71
5381.63
5381.69
5381.93
5381.93
5381.92
5381.74
5381.7
5381.72
5381.8
5251.16
5250.96
5251
5250.58
5250.76
5251.05
5251.41
5251.12
5250.88
5252.07
5250.43
5251.18
5251.05
5251.41
5251.48
5252.67
5264.99
5268.76
5261.12
5251.82
5251.58
5251.41
5252.21
5265.59
5266.65
5261.15
5251.69
5251.55
5251.21
5251.06
5252.94
5252.5
5252.24
5251.23
5251.46
5251.31
5251.18
5251.37
5251.24
5251.24
5251.28
5251.53
5251.49
5251.42
5251.41
5251.33
5251.37
5251.48
5251.66
5120.57
5120.21
5120.13
5119.94
5120.33
5120.78
5121.27
5120.27
5119.65
5120.6
5119.46
5120.31
5120.54
5121.19
5120.55
5121.43
5133.95
5136.37
5129.52
5120.92
5121.33
5120.57
5121.03
5132.97
5135.71
5128.58
5120.94
5121.35
5120.69
5120.27
5121.23
5121.19
5120.99
5120.94
5121.4
5120.99
5120.8
5120.9
5120.92
5120.99
5121.21
5121.54
5121.33
5121.23
5121.22
5121.22
5121.32
5121.5
5121.73
5640.91
5641.72
5641.83
5641.87
5641.91
5641.95
5641.98
5641.99
5640.68
5641.7
5641.86
5641.91
5641.93
5641.93
5641.94
5641.95
5640.92
5642.01
5642.16
5642.08
5642.02
5641.97
5641.95
5641.94
5641.35
5641.86
5642.01
5642.01
5641.99
5642.01
5641.96
5641.96
5641.26
5642.06
5642.09
5642.03
5642
5641.98
5641.95
5641.95
5640.96
5641.92
5641.94
5641.96
5641.96
5641.96
5641.97
5641.98
5641.04
5641.88
5641.87
5641.9
5641.93
5641.95
5641.96
5641.96
5512.08
5512.15
5512.19
5512.21
5512.23
5512.24
5512.26
5512.27
5512.09
5512.16
5512.21
5512.23
5512.24
5512.25
5512.25
5512.27
5512.14
5512.2
5512.24
5512.27
5512.29
5512.3
5512.31
5512.31
5512.13
5512.21
5512.24
5512.28
5512.3
5512.31
5512.32
5512.32
5512.1
5512.2
5512.25
5512.28
5512.31
5512.32
5512.33
5512.33
5512.14
5512.23
5512.26
5512.28
5512.29
5512.3
5512.31
5512.32
5512.21
5512.26
5512.28
5512.3
5512.31
5512.32
5512.33
5512.35
5381.8
5381.91
5382.01
5382.09
5382.17
5382.24
5382.31
5382.38
5381.79
5381.89
5381.99
5382.07
5382.14
5382.21
5382.29
5382.37
5381.85
5381.93
5382.02
5382.11
5382.18
5382.24
5382.3
5382.38
5381.85
5381.95
5382.04
5382.12
5382.18
5382.24
5382.3
5382.36
5381.81
5381.93
5382.04
5382.12
5382.19
5382.26
5382.32
5382.4
5381.84
5381.96
5382.06
5382.14
5382.21
5382.29
5382.36
5382.44
5381.95
5382.05
5382.13
5382.21
5382.28
5382.35
5382.42
5382.49
5251.61
5251.74
5251.87
5252
5252.12
5252.25
5252.4
5252.57
5251.63
5251.77
5251.9
5252.02
5252.14
5252.27
5252.43
5252.61
5251.7
5251.83
5251.96
5252.07
5252.19
5252.32
5252.47
5252.66
5251.72
5251.86
5251.98
5252.1
5252.22
5252.35
5252.51
5252.69
5251.71
5251.87
5252
5252.13
5252.25
5252.38
5252.53
5252.72
5251.76
5251.91
5252.04
5252.16
5252.28
5252.41
5252.56
5252.74
5251.86
5251.98
5252.1
5252.22
5252.33
5252.45
5252.59
5252.75
5121.53
5121.68
5121.82
5121.95
5122.09
5122.22
5122.33
5122.41
5121.54
5121.72
5121.87
5122
5122.15
5122.31
5122.45
5122.54
5121.65
5121.81
5121.94
5122.08
5122.23
5122.4
5122.54
5122.63
5121.69
5121.86
5122
5122.14
5122.3
5122.48
5122.63
5122.71
5121.71
5121.9
5122.06
5122.21
5122.38
5122.58
5122.72
5122.79
5121.8
5121.97
5122.13
5122.3
5122.5
5122.68
5122.8
5122.85
5121.93
5122.09
5122.25
5122.43
5122.61
5122.76
5122.84
5122.86
5641.61
5642.05
5642.13
5642.13
5642.17
5642.17
5642.17
5642.15
5640.83
5641.91
5641.93
5641.89
5641.86
5641.89
5641.93
5641.95
5640.68
5641.12
5641.37
5641.59
5641.7
5641.78
5641.83
5641.86
5640.51
5641.1
5641.46
5641.65
5641.7
5641.79
5641.84
5641.89
5640.73
5641.17
5641.46
5641.65
5641.76
5641.8
5641.85
5641.88
5640.61
5641.83
5641.94
5641.93
5641.92
5641.93
5641.98
5642.04
5641.18
5641.79
5642.06
5642.11
5642.15
5642.19
5642.18
5642.17
5512.3
5512.33
5512.34
5512.34
5512.34
5512.34
5512.34
5512.35
5512.24
5512.29
5512.31
5512.32
5512.33
5512.32
5512.32
5512.32
5512.24
5512.27
5512.26
5512.25
5512.23
5512.21
5512.19
5512.18
5512.4
5512.39
5512.38
5512.36
5512.34
5512.32
5512.3
5512.28
5512.4
5512.36
5512.31
5512.28
5512.25
5512.22
5512.2
5512.19
5512.31
5512.32
5512.31
5512.3
5512.3
5512.3
5512.29
5512.28
5512.25
5512.26
5512.27
5512.28
5512.28
5512.28
5512.29
5512.3
5382.05
5382.12
5382.19
5382.25
5382.3
5382.35
5382.4
5382.46
5381.96
5382.04
5382.12
5382.19
5382.25
5382.3
5382.34
5382.4
5382.01
5382.06
5382.13
5382.21
5382.27
5382.32
5382.37
5382.42
5382.17
5382.15
5382.19
5382.25
5382.31
5382.35
5382.4
5382.44
5382.19
5382.14
5382.16
5382.21
5382.26
5382.31
5382.35
5382.41
5382
5382.01
5382.06
5382.12
5382.18
5382.24
5382.28
5382.34
5381.96
5382.01
5382.07
5382.14
5382.2
5382.26
5382.31
5382.37
5251.66
5251.77
5251.88
5251.99
5252.1
5252.22
5252.37
5252.54
5251.48
5251.64
5251.77
5251.88
5252.01
5252.15
5252.31
5252.5
5251.4
5251.57
5251.71
5251.84
5251.97
5252.11
5252.27
5252.47
5251.41
5251.55
5251.69
5251.82
5251.95
5252.09
5252.26
5252.45
5251.41
5251.52
5251.66
5251.8
5251.92
5252.07
5252.23
5252.43
5251.31
5251.49
5251.63
5251.77
5251.9
5252.04
5252.21
5252.41
5251.36
5251.51
5251.65
5251.79
5251.92
5252.06
5252.22
5252.41
5121.49
5121.62
5121.73
5121.84
5121.96
5122.08
5122.17
5122.25
5121.22
5121.42
5121.57
5121.71
5121.82
5121.94
5122.05
5122.15
5120.98
5121.23
5121.42
5121.57
5121.7
5121.82
5121.93
5122.04
5120.82
5121.09
5121.31
5121.47
5121.61
5121.74
5121.84
5121.96
5120.76
5121.01
5121.24
5121.41
5121.56
5121.68
5121.79
5121.9
5120.69
5121.02
5121.22
5121.38
5121.53
5121.65
5121.75
5121.86
5120.89
5121.11
5121.28
5121.42
5121.55
5121.67
5121.76
5121.86
5641.26
5641.83
5641.95
5642.01
5642.04
5642.05
5642.07
5642.08
5640.75
5641.91
5641.86
5641.89
5641.9
5641.89
5641.92
5641.97
5640.57
5641.17
5641.55
5641.75
5641.85
5641.92
5641.92
5641.93
5640.62
5641.38
5641.5
5641.81
5641.85
5641.92
5641.94
5641.95
5640.43
5640.9
5641.35
5641.62
5641.74
5641.8
5641.82
5641.84
5640.41
5641.88
5641.88
5641.85
5641.84
5641.83
5641.85
5641.91
5640.91
5641.81
5641.89
5641.95
5642
5642.04
5642.07
5642.08
5512.25
5512.26
5512.26
5512.27
5512.27
5512.27
5512.27
5512.28
5512.24
5512.27
5512.29
5512.3
5512.3
5512.3
5512.29
5512.29
5512.22
5512.23
5512.24
5512.25
5512.24
5512.23
5512.21
5512.2
5512.31
5512.18
5512.22
5512.25
5512.26
5512.26
5512.24
5512.23
5512.04
5512.1
5512.15
5512.17
5512.18
5512.17
5512.17
5512.16
5512.04
5512.13
5512.18
5512.21
5512.23
5512.24
5512.24
5512.25
5512.11
5512.17
5512.2
5512.23
5512.24
5512.25
5512.27
5512.28
5381.94
5381.98
5382.05
5382.12
5382.19
5382.24
5382.3
5382.36
5381.86
5381.91
5381.99
5382.08
5382.15
5382.2
5382.25
5382.31
5381.84
5381.84
5381.96
5382.09
5382.17
5382.24
5382.29
5382.35
5381.74
5381.7
5381.9
5382.1
5382.17
5382.23
5382.29
5382.35
5381.6
5381.71
5381.89
5382.05
5382.14
5382.21
5382.27
5382.34
5381.65
5381.79
5381.94
5382.04
5382.12
5382.18
5382.24
5382.3
5381.81
5381.92
5382.01
5382.1
5382.17
5382.24
5382.3
5382.38
5251.32
5251.47
5251.63
5251.77
5251.9
5252.04
5252.21
5252.4
5251.15
5251.33
5251.53
5251.7
5251.85
5252.01
5252.18
5252.39
5251.08
5251.21
5251.45
5251.66
5251.82
5251.99
5252.18
5252.39
5250.9
5251.11
5251.41
5251.66
5251.83
5252
5252.19
5252.4
5251.03
5251.28
5251.52
5251.72
5251.88
5252.04
5252.22
5252.42
5251.27
5251.49
5251.67
5251.82
5251.96
5252.11
5252.28
5252.47
5251.56
5251.7
5251.83
5251.95
5252.07
5252.2
5252.35
5252.53
5120.86
5121.08
5121.26
5121.4
5121.54
5121.66
5121.76
5121.85
5120.63
5120.92
5121.16
5121.34
5121.5
5121.64
5121.75
5121.86
5120.53
5120.8
5121.09
5121.32
5121.5
5121.65
5121.77
5121.89
5120.44
5120.81
5121.12
5121.37
5121.55
5121.7
5121.83
5121.95
5120.72
5121.04
5121.29
5121.48
5121.64
5121.8
5121.93
5122.04
5121.08
5121.32
5121.5
5121.65
5121.8
5121.94
5122.06
5122.16
5121.44
5121.59
5121.72
5121.85
5121.97
5122.1
5122.2
5122.28
5640.88
5641.53
5641.74
5641.86
5641.94
5641.99
5642.02
5642.03
5640.95
5641.95
5641.97
5641.99
5642.01
5642.02
5642.03
5642.03
5641.03
5641.82
5641.95
5641.99
5642.02
5642.06
5642.07
5642.08
5641.37
5641.95
5642.09
5642.16
5642.21
5642.25
5642.27
5642.29
5641.47
5641.99
5642.12
5642.18
5642.21
5642.22
5642.23
5642.22
5641.38
5641.97
5642.09
5642.12
5642.14
5642.14
5642.13
5642.14
5641.55
5641.95
5642.08
5642.12
5642.14
5642.16
5642.17
5642.16
5512.22
5512.27
5512.3
5512.32
5512.33
5512.34
5512.36
5512.38
5512.21
5512.29
5512.34
5512.36
5512.37
5512.38
5512.39
5512.39
5512.23
5512.33
5512.38
5512.4
5512.41
5512.4
5512.39
5512.37
5512.26
5512.37
5512.4
5512.41
5512.4
5512.38
5512.37
5512.35
5512.35
5512.43
5512.45
5512.46
5512.45
5512.43
5512.4
5512.37
5512.31
5512.38
5512.4
5512.41
5512.41
5512.4
5512.39
5512.38
5512.29
5512.33
5512.35
5512.36
5512.36
5512.36
5512.37
5512.38
5381.98
5382.07
5382.15
5382.23
5382.3
5382.37
5382.44
5382.51
5381.9
5382.03
5382.14
5382.22
5382.3
5382.36
5382.43
5382.49
5381.88
5382.02
5382.14
5382.24
5382.32
5382.38
5382.44
5382.51
5381.9
5382.04
5382.17
5382.27
5382.34
5382.4
5382.45
5382.51
5381.99
5382.08
5382.19
5382.27
5382.34
5382.4
5382.45
5382.51
5382.01
5382.1
5382.18
5382.25
5382.31
5382.35
5382.4
5382.45
5382.04
5382.11
5382.19
5382.25
5382.31
5382.37
5382.42
5382.48
5251.86
5251.98
5252.1
5252.22
5252.33
5252.45
5252.59
5252.75
5251.71
5251.87
5252.02
5252.15
5252.27
5252.4
5252.55
5252.73
5251.61
5251.8
5251.96
5252.1
5252.23
5252.37
5252.52
5252.7
5251.55
5251.75
5251.92
5252.06
5252.2
5252.33
5252.48
5252.66
5251.58
5251.75
5251.9
5252.04
5252.17
5252.3
5252.46
5252.64
5251.61
5251.76
5251.89
5252.02
5252.14
5252.28
5252.43
5252.61
5251.65
5251.77
5251.89
5252.01
5252.13
5252.26
5252.41
5252.58
5121.93
5122.08
5122.24
5122.42
5122.6
5122.75
5122.83
5122.85
5121.74
5121.92
5122.09
5122.26
5122.46
5122.65
5122.77
5122.82
5121.59
5121.8
5121.97
5122.14
5122.32
5122.52
5122.67
5122.75
5121.49
5121.71
5121.89
5122.06
5122.22
5122.4
5122.56
5122.65
5121.48
5121.68
5121.85
5122
5122.15
5122.32
5122.47
5122.57
5121.49
5121.67
5121.82
5121.95
5122.09
5122.25
5122.39
5122.48
5121.53
5121.67
5121.81
5121.92
5122.05
5122.18
5122.29
5122.37
5641.98
5641.96
5641.94
5641.95
5641.95
5641.98
5641.96
5512.3
5512.29
5512.33
5512.32
5512.34
5512.35
5512.37
5382.47
5382.46
5382.46
5382.43
5382.48
5382.53
5382.57
5252.76
5252.8
5252.84
5252.87
5252.9
5252.91
5252.92
5122.6
5122.71
5122.8
5122.87
5122.93
5122.97
5122.98
5642.14
5641.99
5641.86
5641.93
5641.88
5642.06
5642.16
5512.37
5512.32
5512.18
5512.26
5512.18
5512.28
5512.31
5382.53
5382.46
5382.48
5382.5
5382.46
5382.4
5382.45
5252.73
5252.69
5252.66
5252.64
5252.62
5252.61
5252.6
5122.46
5122.38
5122.29
5122.23
5122.18
5122.14
5122.13
5642.08
5642
5641.93
5641.97
5641.85
5641.95
5642.08
5512.29
5512.29
5512.21
5512.22
5512.18
5512.26
5512.31
5382.43
5382.37
5382.42
5382.4
5382.4
5382.37
5382.45
5252.59
5252.59
5252.59
5252.59
5252.62
5252.66
5252.71
5122.13
5122.15
5122.18
5122.23
5122.3
5122.4
5122.49
5642.03
5642.03
5642.08
5642.28
5642.2
5642.12
5642.14
5512.4
5512.4
5512.37
5512.34
5512.36
5512.38
5512.39
5382.58
5382.56
5382.57
5382.57
5382.57
5382.51
5382.55
5252.91
5252.9
5252.87
5252.84
5252.82
5252.79
5252.76
5122.97
5122.95
5122.89
5122.81
5122.74
5122.66
5122.56
5641.95
5641.95
5641.99
5642.03
5642.06
5642.09
5642.12
5642.14
5641.99
5642.03
5642.03
5642.05
5642.09
5642.13
5642.17
5642.19
5641.94
5641.95
5642
5642.08
5642.12
5642.16
5642.19
5642.21
5641.97
5641.95
5641.88
5641.93
5642.07
5642.18
5642.24
5642.27
5641.97
5641.95
5641.99
5642.08
5642.14
5642.18
5642.21
5642.23
5642.01
5642.04
5642.04
5642.07
5642.12
5642.16
5642.2
5642.23
5641.95
5641.97
5642.03
5642.07
5642.12
5642.15
5642.18
5642.2
5512.34
5512.4
5512.46
5512.51
5512.56
5512.61
5512.64
5512.67
5512.34
5512.42
5512.49
5512.55
5512.6
5512.65
5512.69
5512.72
5512.35
5512.4
5512.48
5512.56
5512.62
5512.67
5512.71
5512.75
5512.34
5512.37
5512.41
5512.46
5512.56
5512.66
5512.73
5512.78
5512.36
5512.41
5512.48
5512.57
5512.64
5512.69
5512.73
5512.76
5512.4
5512.46
5512.53
5512.59
5512.64
5512.69
5512.73
5512.76
5512.41
5512.47
5512.52
5512.58
5512.63
5512.67
5512.71
5512.74
5382.61
5382.76
5382.89
5383
5383.08
5383.15
5383.21
5383.25
5382.61
5382.77
5382.91
5383.02
5383.11
5383.18
5383.24
5383.28
5382.6
5382.77
5382.91
5383.03
5383.13
5383.2
5383.26
5383.3
5382.56
5382.71
5382.86
5383
5383.11
5383.21
5383.27
5383.32
5382.62
5382.78
5382.93
5383.06
5383.15
5383.22
5383.28
5383.32
5382.67
5382.83
5382.96
5383.07
5383.16
5383.23
5383.28
5383.32
5382.7
5382.85
5382.97
5383.07
5383.15
5383.22
5383.27
5383.31
5253.02
5253.25
5253.43
5253.57
5253.67
5253.76
5253.82
5253.87
5253.06
5253.28
5253.46
5253.59
5253.7
5253.78
5253.84
5253.89
5253.09
5253.31
5253.48
5253.62
5253.72
5253.8
5253.86
5253.91
5253.11
5253.33
5253.49
5253.63
5253.73
5253.81
5253.88
5253.92
5253.14
5253.35
5253.52
5253.65
5253.75
5253.82
5253.88
5253.93
5253.16
5253.37
5253.53
5253.66
5253.75
5253.83
5253.88
5253.93
5253.16
5253.37
5253.53
5253.66
5253.75
5253.83
5253.88
5253.93
5123.22
5123.72
5124.02
5124.21
5124.33
5124.42
5124.48
5124.53
5123.3
5123.77
5124.05
5124.23
5124.35
5124.43
5124.49
5124.54
5123.36
5123.81
5124.08
5124.25
5124.37
5124.45
5124.51
5124.55
5123.4
5123.84
5124.1
5124.27
5124.38
5124.46
5124.52
5124.57
5123.45
5123.87
5124.12
5124.29
5124.4
5124.47
5124.53
5124.57
5123.48
5123.89
5124.14
5124.3
5124.4
5124.48
5124.54
5124.58
5123.49
5123.9
5124.14
5124.3
5124.41
5124.49
5124.54
5124.58
5642.13
5642.1
5642.06
5642.04
5642.05
5642.07
5642.07
5642.08
5641.98
5642.03
5642.14
5642.18
5642.16
5642.11
5642.03
5641.93
5641.85
5641.9
5641.95
5641.97
5641.94
5641.92
5641.92
5641.89
5641.98
5642.04
5642.06
5642.07
5641.94
5641.7
5641.37
5640.92
5641.88
5641.91
5641.94
5641.95
5641.92
5641.89
5641.89
5641.88
5641.97
5641.99
5642.08
5642.11
5642.1
5642.07
5641.99
5641.89
5642.13
5642.08
5642.03
5642
5642
5642.02
5642.03
5642.04
5512.39
5512.43
5512.46
5512.49
5512.52
5512.55
5512.58
5512.6
5512.32
5512.35
5512.38
5512.41
5512.43
5512.44
5512.45
5512.46
5512.2
5512.24
5512.27
5512.3
5512.31
5512.32
5512.33
5512.35
5512.25
5512.24
5512.18
5512.09
5511.88
5511.65
5511.43
5511.19
5512.2
5512.22
5512.25
5512.26
5512.26
5512.26
5512.27
5512.29
5512.28
5512.31
5512.34
5512.37
5512.39
5512.4
5512.41
5512.41
5512.33
5512.37
5512.4
5512.43
5512.46
5512.49
5512.52
5512.55
5382.65
5382.78
5382.89
5382.98
5383.05
5383.11
5383.16
5383.2
5382.58
5382.71
5382.83
5382.92
5382.99
5383.05
5383.1
5383.14
5382.58
5382.69
5382.79
5382.87
5382.93
5383
5383.05
5383.08
5382.58
5382.67
5382.73
5382.75
5382.75
5382.73
5382.7
5382.69
5382.56
5382.67
5382.76
5382.84
5382.9
5382.96
5383.02
5383.06
5382.52
5382.66
5382.78
5382.87
5382.94
5383
5383.05
5383.09
5382.57
5382.7
5382.82
5382.91
5382.99
5383.05
5383.1
5383.15
5252.99
5253.22
5253.39
5253.53
5253.63
5253.71
5253.77
5253.82
5252.95
5253.18
5253.36
5253.49
5253.6
5253.69
5253.75
5253.81
5252.92
5253.14
5253.3
5253.43
5253.54
5253.62
5253.68
5253.73
5252.89
5253.09
5253.25
5253.36
5253.46
5253.55
5253.64
5253.74
5252.88
5253.1
5253.27
5253.4
5253.5
5253.59
5253.65
5253.71
5252.88
5253.12
5253.3
5253.44
5253.55
5253.64
5253.71
5253.77
5252.88
5253.12
5253.31
5253.45
5253.57
5253.65
5253.72
5253.77
5123.13
5123.66
5123.97
5124.16
5124.29
5124.38
5124.45
5124.49
5123.07
5123.62
5123.94
5124.14
5124.28
5124.38
5124.45
5124.5
5123.01
5123.57
5123.89
5124.09
5124.23
5124.32
5124.39
5124.44
5122.96
5123.54
5123.87
5124.09
5124.24
5124.36
5124.46
5124.56
5122.93
5123.51
5123.85
5124.06
5124.2
5124.3
5124.37
5124.42
5122.91
5123.51
5123.86
5124.08
5124.23
5124.33
5124.41
5124.46
5122.9
5123.51
5123.86
5124.08
5124.22
5124.32
5124.4
5124.45
5642.05
5642.02
5642.01
5642.01
5642.01
5642.02
5642.02
5642.02
5641.99
5641.97
5642
5642.03
5642.03
5641.99
5641.92
5641.84
5641.95
5641.99
5642
5641.97
5641.95
5641.93
5641.88
5641.82
5641.99
5642.09
5642.04
5641.88
5641.75
5641.57
5641.22
5640.71
5641.89
5641.95
5641.98
5641.96
5641.94
5641.93
5641.91
5641.85
5642.01
5641.99
5641.97
5642
5642.04
5642.04
5642
5641.91
5642.06
5642.04
5642.03
5642.03
5642.05
5642.06
5642.08
5642.09
5512.32
5512.36
5512.39
5512.43
5512.46
5512.49
5512.52
5512.55
5512.29
5512.31
5512.33
5512.35
5512.36
5512.37
5512.36
5512.36
5512.23
5512.26
5512.28
5512.29
5512.31
5512.33
5512.34
5512.32
5512.21
5512.19
5512.1
5511.96
5511.78
5511.56
5511.26
5510.91
5512.21
5512.24
5512.26
5512.28
5512.29
5512.31
5512.31
5512.32
5512.28
5512.31
5512.34
5512.36
5512.39
5512.41
5512.41
5512.4
5512.34
5512.39
5512.44
5512.49
5512.52
5512.56
5512.59
5512.62
5382.55
5382.69
5382.81
5382.91
5382.99
5383.05
5383.1
5383.15
5382.49
5382.63
5382.75
5382.85
5382.92
5382.98
5383.02
5383.06
5382.52
5382.64
5382.74
5382.82
5382.9
5382.96
5383.01
5383.03
5382.49
5382.57
5382.6
5382.61
5382.59
5382.53
5382.46
5382.43
5382.51
5382.63
5382.74
5382.82
5382.9
5382.96
5383.01
5383.04
5382.5
5382.65
5382.77
5382.88
5382.96
5383.02
5383.06
5383.11
5382.59
5382.74
5382.86
5382.96
5383.04
5383.11
5383.16
5383.21
5252.88
5253.12
5253.31
5253.46
5253.57
5253.66
5253.73
5253.78
5252.87
5253.11
5253.3
5253.44
5253.56
5253.65
5253.72
5253.78
5252.86
5253.09
5253.27
5253.41
5253.53
5253.62
5253.7
5253.76
5252.85
5253.06
5253.23
5253.37
5253.5
5253.61
5253.73
5253.9
5252.88
5253.11
5253.29
5253.43
5253.54
5253.63
5253.7
5253.76
5252.93
5253.16
5253.35
5253.49
5253.6
5253.69
5253.76
5253.82
5252.98
5253.21
5253.39
5253.53
5253.64
5253.72
5253.79
5253.84
5122.9
5123.51
5123.86
5124.08
5124.23
5124.33
5124.4
5124.46
5122.91
5123.51
5123.87
5124.09
5124.25
5124.36
5124.44
5124.5
5122.92
5123.52
5123.86
5124.08
5124.23
5124.34
5124.42
5124.48
5122.96
5123.54
5123.89
5124.13
5124.31
5124.47
5124.63
5124.8
5123.01
5123.57
5123.9
5124.11
5124.25
5124.35
5124.43
5124.49
5123.08
5123.63
5123.95
5124.16
5124.3
5124.4
5124.48
5124.54
5123.15
5123.66
5123.97
5124.17
5124.3
5124.39
5124.45
5124.5
5642.04
5642.05
5642.06
5642.08
5642.1
5642.13
5642.15
5642.18
5642
5642.01
5642.06
5642.11
5642.14
5642.11
5642.06
5641.99
5642.08
5642.1
5642.11
5642.1
5642.07
5642.04
5642.01
5641.96
5642.28
5642.28
5642.24
5642.15
5642
5641.79
5641.47
5641.01
5642.17
5642.16
5642.15
5642.13
5642.1
5642.08
5642.06
5642.01
5642.07
5642.05
5642.08
5642.13
5642.15
5642.13
5642.06
5641.97
5642.12
5642.09
5642.08
5642.08
5642.09
5642.1
5642.11
5642.11
5512.43
5512.48
5512.53
5512.57
5512.61
5512.65
5512.68
5512.71
5512.42
5512.44
5512.46
5512.49
5512.51
5512.52
5512.53
5512.54
5512.37
5512.39
5512.41
5512.42
5512.43
5512.45
5512.47
5512.48
5512.34
5512.35
5512.29
5512.14
5511.95
5511.78
5511.59
5511.35
5512.36
5512.38
5512.39
5512.4
5512.41
5512.42
5512.43
5512.46
5512.39
5512.41
5512.43
5512.45
5512.47
5512.48
5512.49
5512.49
5512.41
5512.44
5512.48
5512.51
5512.55
5512.58
5512.61
5512.64
5382.71
5382.85
5382.97
5383.06
5383.14
5383.2
5383.25
5383.29
5382.68
5382.81
5382.92
5383
5383.08
5383.13
5383.18
5383.22
5382.68
5382.8
5382.9
5382.97
5383.04
5383.1
5383.15
5383.18
5382.66
5382.75
5382.81
5382.82
5382.83
5382.81
5382.77
5382.74
5382.67
5382.79
5382.88
5382.96
5383.02
5383.08
5383.13
5383.16
5382.63
5382.76
5382.87
5382.96
5383.03
5383.09
5383.13
5383.17
5382.67
5382.8
5382.91
5383
5383.08
5383.14
5383.18
5383.22
5253.16
5253.36
5253.52
5253.64
5253.73
5253.81
5253.86
5253.91
5253.14
5253.34
5253.5
5253.62
5253.71
5253.79
5253.85
5253.9
5253.11
5253.3
5253.45
5253.57
5253.66
5253.73
5253.8
5253.85
5253.06
5253.25
5253.38
5253.49
5253.58
5253.67
5253.75
5253.86
5253.06
5253.27
5253.42
5253.54
5253.63
5253.71
5253.77
5253.82
5253.04
5253.26
5253.42
5253.55
5253.65
5253.73
5253.8
5253.85
5253.02
5253.25
5253.42
5253.55
5253.65
5253.73
5253.8
5253.84
5123.48
5123.89
5124.13
5124.29
5124.4
5124.47
5124.53
5124.57
5123.46
5123.88
5124.13
5124.29
5124.4
5124.48
5124.54
5124.59
5123.41
5123.84
5124.09
5124.25
5124.36
5124.44
5124.5
5124.55
5123.36
5123.81
5124.07
5124.25
5124.38
5124.48
5124.59
5124.69
5123.31
5123.77
5124.05
5124.22
5124.33
5124.42
5124.48
5124.53
5123.26
5123.75
5124.03
5124.22
5124.34
5124.43
5124.49
5124.54
5123.2
5123.71
5124
5124.19
5124.31
5124.4
5124.47
5124.51
5642.16
5642.17
5642.18
5642.19
5642.19
5642.2
5642.2
5642.2
5642.21
5642.22
5642.23
5642.24
5642.25
5642.25
5642.25
5642.25
5642.23
5642.24
5642.26
5642.26
5642.27
5642.27
5642.28
5642.28
5642.28
5642.29
5642.3
5642.3
5642.31
5642.31
5642.31
5642.32
5642.25
5642.26
5642.27
5642.28
5642.29
5642.29
5642.3
5642.3
5642.25
5642.26
5642.28
5642.28
5642.29
5642.29
5642.3
5642.3
5642.22
5642.23
5642.24
5642.25
5642.26
5642.27
5642.27
5642.27
5512.69
5512.71
5512.72
5512.73
5512.73
5512.74
5512.74
5512.74
5512.75
5512.76
5512.77
5512.78
5512.79
5512.79
5512.79
5512.79
5512.77
5512.78
5512.79
5512.8
5512.81
5512.81
5512.81
5512.81
5512.8
5512.81
5512.82
5512.83
5512.84
5512.84
5512.84
5512.84
5512.79
5512.8
5512.81
5512.82
5512.83
5512.83
5512.83
5512.83
5512.79
5512.8
5512.81
5512.82
5512.83
5512.83
5512.83
5512.83
5512.76
5512.77
5512.79
5512.8
5512.8
5512.81
5512.81
5512.81
5383.28
5383.29
5383.31
5383.32
5383.33
5383.33
5383.33
5383.33
5383.31
5383.32
5383.34
5383.35
5383.36
5383.36
5383.36
5383.36
5383.33
5383.34
5383.36
5383.37
5383.37
5383.38
5383.38
5383.38
5383.35
5383.37
5383.38
5383.39
5383.4
5383.4
5383.41
5383.4
5383.35
5383.36
5383.38
5383.39
5383.39
5383.4
5383.4
5383.4
5383.35
5383.36
5383.38
5383.39
5383.39
5383.4
5383.4
5383.4
5383.34
5383.36
5383.37
5383.38
5383.39
5383.39
5383.39
5383.39
5253.9
5253.92
5253.93
5253.94
5253.95
5253.95
5253.95
5253.95
5253.92
5253.93
5253.95
5253.96
5253.96
5253.97
5253.97
5253.97
5253.93
5253.95
5253.96
5253.98
5253.98
5253.99
5253.99
5253.98
5253.95
5253.97
5253.98
5253.99
5254
5254
5254.01
5254
5253.95
5253.97
5253.98
5253.99
5254
5254
5254
5254
5253.96
5253.97
5253.99
5254
5254
5254.01
5254.01
5254
5253.95
5253.97
5253.98
5253.99
5254
5254.01
5254.01
5254
5124.56
5124.58
5124.59
5124.6
5124.6
5124.61
5124.61
5124.6
5124.56
5124.58
5124.59
5124.6
5124.61
5124.61
5124.61
5124.61
5124.58
5124.6
5124.61
5124.62
5124.62
5124.63
5124.63
5124.63
5124.59
5124.61
5124.62
5124.63
5124.64
5124.64
5124.64
5124.64
5124.6
5124.61
5124.63
5124.63
5124.64
5124.64
5124.64
5124.64
5124.6
5124.62
5124.63
5124.64
5124.64
5124.65
5124.65
5124.64
5124.61
5124.62
5124.63
5124.64
5124.65
5124.65
5124.65
5124.65
5642.09
5642.1
5642.12
5642.13
5642.14
5642.15
5642.16
5642.17
5641.87
5641.83
5641.82
5641.84
5641.88
5641.93
5641.97
5642.02
5641.83
5641.79
5641.74
5641.71
5641.71
5641.72
5641.75
5641.82
5640.55
5640.38
5640.52
5640.96
5641.78
5642.63
5643.18
5644.52
5641.85
5641.82
5641.78
5641.74
5641.73
5641.74
5641.77
5641.84
5641.82
5641.77
5641.76
5641.78
5641.82
5641.87
5641.92
5641.98
5642.04
5642.05
5642.06
5642.07
5642.08
5642.09
5642.1
5642.1
5512.62
5512.64
5512.65
5512.66
5512.67
5512.68
5512.68
5512.67
5512.46
5512.48
5512.5
5512.53
5512.56
5512.58
5512.6
5512.6
5512.38
5512.4
5512.41
5512.42
5512.44
5512.46
5512.47
5512.47
5510.99
5510.91
5510.98
5511.33
5511.83
5512.14
5512.38
5512.58
5512.33
5512.36
5512.38
5512.4
5512.42
5512.44
5512.45
5512.46
5512.42
5512.43
5512.46
5512.49
5512.52
5512.54
5512.56
5512.56
5512.57
5512.58
5512.59
5512.6
5512.61
5512.62
5512.62
5512.62
5383.23
5383.24
5383.26
5383.27
5383.28
5383.28
5383.28
5383.27
5383.17
5383.19
5383.21
5383.23
5383.25
5383.26
5383.27
5383.26
5383.11
5383.12
5383.14
5383.16
5383.18
5383.19
5383.2
5383.19
5382.71
5382.79
5382.94
5383.13
5383.31
5383.43
5383.47
5383.45
5383.09
5383.1
5383.12
5383.14
5383.16
5383.17
5383.17
5383.17
5383.12
5383.15
5383.17
5383.19
5383.21
5383.22
5383.23
5383.22
5383.17
5383.19
5383.21
5383.22
5383.22
5383.23
5383.23
5383.22
5253.85
5253.87
5253.88
5253.89
5253.9
5253.9
5253.9
5253.9
5253.84
5253.87
5253.89
5253.91
5253.92
5253.92
5253.92
5253.92
5253.77
5253.79
5253.81
5253.83
5253.84
5253.85
5253.85
5253.84
5253.85
5253.95
5254.05
5254.16
5254.26
5254.34
5254.37
5254.39
5253.74
5253.77
5253.79
5253.8
5253.82
5253.82
5253.82
5253.82
5253.8
5253.83
5253.85
5253.87
5253.88
5253.89
5253.89
5253.88
5253.8
5253.82
5253.83
5253.85
5253.85
5253.86
5253.86
5253.85
5124.52
5124.53
5124.55
5124.56
5124.56
5124.56
5124.56
5124.56
5124.53
5124.56
5124.57
5124.59
5124.59
5124.6
5124.6
5124.59
5124.47
5124.49
5124.51
5124.52
5124.53
5124.53
5124.53
5124.53
5124.65
5124.72
5124.79
5124.86
5124.91
5124.95
5124.97
5124.98
5124.45
5124.47
5124.49
5124.5
5124.51
5124.51
5124.51
5124.51
5124.5
5124.52
5124.54
5124.55
5124.56
5124.57
5124.57
5124.56
5124.48
5124.49
5124.51
5124.52
5124.52
5124.53
5124.53
5124.52
5642.03
5642.03
5642.04
5642.05
5642.06
5642.07
5642.07
5642.07
5641.79
5641.76
5641.75
5641.74
5641.75
5641.77
5641.8
5641.82
5641.74
5641.69
5641.64
5641.61
5641.63
5641.63
5641.63
5641.68
5640.18
5639.81
5639.6
5639.69
5639.9
5641.05
5641.37
5642.45
5641.78
5641.73
5641.68
5641.64
5641.64
5641.65
5641.65
5641.69
5641.85
5641.82
5641.8
5641.79
5641.79
5641.82
5641.84
5641.86
5642.11
5642.11
5642.12
5642.13
5642.14
5642.15
5642.15
5642.15
5512.57
5512.59
5512.6
5512.62
5512.63
5512.63
5512.63
5512.63
5512.36
5512.37
5512.39
5512.41
5512.44
5512.47
5512.48
5512.48
5512.32
5512.32
5512.34
5512.36
5512.38
5512.41
5512.41
5512.42
5510.66
5510.59
5510.83
5511.27
5511.86
5512.4
5512.7
5512.94
5512.32
5512.32
5512.33
5512.35
5512.37
5512.39
5512.4
5512.4
5512.41
5512.42
5512.43
5512.46
5512.48
5512.51
5512.52
5512.53
5512.65
5512.66
5512.68
5512.69
5512.69
5512.7
5512.7
5512.7
5383.17
5383.19
5383.21
5383.22
5383.23
5383.23
5383.23
5383.23
5383.1
5383.13
5383.15
5383.17
5383.19
5383.2
5383.21
5383.2
5383.06
5383.08
5383.11
5383.14
5383.17
5383.18
5383.18
5383.18
5382.54
5382.8
5383.27
5383.59
5383.83
5383.99
5384.01
5384.02
5383.06
5383.08
5383.1
5383.13
5383.16
5383.17
5383.17
5383.17
5383.14
5383.17
5383.19
5383.21
5383.23
5383.24
5383.25
5383.25
5383.23
5383.25
5383.27
5383.28
5383.29
5383.29
5383.29
5383.29
5253.81
5253.83
5253.85
5253.86
5253.87
5253.87
5253.87
5253.87
5253.82
5253.85
5253.88
5253.89
5253.91
5253.91
5253.91
5253.91
5253.8
5253.84
5253.87
5253.89
5253.9
5253.91
5253.91
5253.9
5254.14
5254.36
5254.58
5254.75
5254.85
5254.87
5254.84
5254.81
5253.8
5253.84
5253.86
5253.88
5253.9
5253.9
5253.9
5253.9
5253.86
5253.89
5253.92
5253.93
5253.95
5253.95
5253.95
5253.95
5253.87
5253.88
5253.9
5253.91
5253.92
5253.92
5253.92
5253.92
5124.49
5124.5
5124.52
5124.53
5124.54
5124.54
5124.54
5124.54
5124.54
5124.56
5124.58
5124.59
5124.6
5124.61
5124.61
5124.6
5124.52
5124.54
5124.56
5124.58
5124.59
5124.59
5124.59
5124.59
5124.96
5125.07
5125.17
5125.25
5125.29
5125.3
5125.29
5125.28
5124.53
5124.55
5124.57
5124.58
5124.59
5124.59
5124.59
5124.59
5124.57
5124.6
5124.62
5124.63
5124.64
5124.64
5124.64
5124.64
5124.53
5124.55
5124.56
5124.57
5124.58
5124.58
5124.58
5124.58
5642.2
5642.21
5642.22
5642.23
5642.24
5642.25
5642.25
5642.26
5641.94
5641.91
5641.9
5641.92
5641.95
5641.98
5642.02
5642.07
5641.9
5641.85
5641.81
5641.78
5641.79
5641.82
5641.84
5641.91
5640.58
5640.34
5640.34
5640.62
5641.08
5642.23
5642.87
5644.07
5641.95
5641.9
5641.85
5641.81
5641.81
5641.83
5641.84
5641.91
5641.91
5641.88
5641.86
5641.87
5641.9
5641.94
5641.97
5642.02
5642.13
5642.14
5642.15
5642.16
5642.17
5642.18
5642.19
5642.19
5512.73
5512.75
5512.76
5512.77
5512.78
5512.79
5512.79
5512.79
5512.55
5512.56
5512.58
5512.61
5512.64
5512.67
5512.68
5512.69
5512.49
5512.51
5512.52
5512.54
5512.57
5512.6
5512.62
5512.62
5511.17
5511.11
5511.2
5511.51
5512.07
5512.5
5512.83
5513.11
5512.48
5512.49
5512.5
5512.52
5512.54
5512.57
5512.58
5512.59
5512.5
5512.51
5512.53
5512.56
5512.59
5512.61
5512.63
5512.63
5512.66
5512.67
5512.69
5512.7
5512.71
5512.71
5512.72
5512.71
5383.31
5383.33
5383.35
5383.36
5383.36
5383.37
5383.37
5383.37
5383.25
5383.27
5383.29
5383.31
5383.33
5383.34
5383.35
5383.34
5383.2
5383.22
5383.25
5383.27
5383.3
5383.31
5383.32
5383.32
5382.78
5382.89
5383.09
5383.32
5383.53
5383.7
5383.73
5383.73
5383.18
5383.2
5383.22
5383.24
5383.27
5383.28
5383.29
5383.29
5383.2
5383.22
5383.24
5383.26
5383.28
5383.29
5383.29
5383.29
5383.25
5383.27
5383.28
5383.29
5383.3
5383.31
5383.31
5383.3
5253.93
5253.95
5253.96
5253.97
5253.98
5253.98
5253.98
5253.98
5253.93
5253.96
5253.98
5253.99
5254
5254.01
5254.01
5254.01
5253.88
5253.91
5253.93
5253.95
5253.96
5253.97
5253.97
5253.96
5253.98
5254.09
5254.22
5254.34
5254.44
5254.5
5254.52
5254.52
5253.86
5253.88
5253.9
5253.92
5253.93
5253.94
5253.94
5253.94
5253.88
5253.91
5253.93
5253.94
5253.95
5253.96
5253.96
5253.96
5253.87
5253.89
5253.91
5253.92
5253.92
5253.93
5253.93
5253.93
5124.59
5124.6
5124.62
5124.62
5124.63
5124.63
5124.63
5124.63
5124.62
5124.64
5124.66
5124.67
5124.68