/*--------------------------------*- C++ -*----------------------------------*\
| =========                 |                                                 |
| \\      /  F ield         | OpenFOAM: The Open Source CFD Toolbox           |
|  \\    /   O peration     | Version:  plus.master.MPPICInterFoam            |
|   \\  /    A nd           | Web:      www.OpenFOAM.com                      |
|    \\/     M anipulation  |                                                 |
\*---------------------------------------------------------------------------*/
FoamFile
{
    version     2.0;
    format      ascii;
    class       vectorField;
    location    "7.2/lagrangian/kinematicCloud";
    object      U;
}
// * * * * * * * * * * * * * * * * * * * * * * * * * * * * * * * * * * * * * //


169
(
(9.12924e-05 0.00348793 -0.0145906)
(-0.000922441 0.00336864 -0.0288925)
(-2.66388e-07 3.07843e-06 -0.0232119)
(-0.00204027 0.00343431 -0.0304163)
(0.000531038 0.00327262 -0.0309497)
(-0.000203372 0.000549413 -0.0189442)
(-5.6949e-07 6.7534e-07 -0.0214979)
(0.00215941 0.000224336 -0.0437745)
(0.000137157 -0.0018518 -0.0425869)
(0.000109796 -0.00171746 -0.0424207)
(6.4278e-05 -0.00199589 -0.0423832)
(0.000144655 -0.000722717 -0.0435849)
(0.000194358 -0.000739825 -0.0465187)
(0.000347381 0.000124247 -0.0463864)
(0.000308644 0.000777728 -0.0488105)
(0.000276993 0.000865033 -0.0472952)
(-0.000102593 -0.000759657 -0.0484387)
(0.000204376 0.000913462 -0.0493238)
(-9.52881e-05 -0.000862633 -0.0500992)
(0.00220387 0.000523981 -0.0508884)
(9.16621e-05 -0.00145257 -0.0516117)
(0.000254537 0.00148384 -0.0486315)
(9.47065e-05 -0.000265339 -0.0481616)
(0.00184152 0.000494833 -0.0491562)
(0.00251394 0.000435004 -0.0473946)
(0.000175116 -0.00101716 -0.0499039)
(0.0020247 0.000537271 -0.0492725)
(0.00306242 0.000457053 -0.0471193)
(0.000258451 -0.00162096 -0.0500191)
(0.00211363 0.000541782 -0.0493329)
(0.000363492 0.00254055 -0.0491839)
(0.00408554 0.000527171 -0.0498092)
(0.000564388 0.00460385 -0.0516964)
(0.000893497 0.00333077 -0.0520664)
(0.00383645 0.000649342 -0.052562)
(0.00103231 0.00374905 -0.052855)
(-0.000185343 0.0056635 -0.0506459)
(0.00119075 0.00681971 -0.0506231)
(0.000665305 0.00638127 -0.055166)
(-6.16569e-05 -0.00505871 -0.0502089)
(-0.00857893 0.000345387 -0.0543467)
(0.00728817 0.000924639 -0.0578869)
(-0.000179385 -0.00821894 -0.0565061)
(0.00741822 0.0008625 -0.0580623)
(7.1618e-05 -0.00754297 -0.0577466)
(-0.000813189 -0.00692023 -0.0573135)
(0.0103798 0.000669986 -0.0614991)
(0.000144533 -0.0107731 -0.0595012)
(0.000155723 0.0122052 -0.0604885)
(0.000615072 -0.0114439 -0.0622746)
(-0.010614 -0.000329994 -0.0605034)
(0.00115224 -0.0126316 -0.061949)
(0.010651 0.000626567 -0.0604612)
(0.00168115 -0.0121361 -0.0618166)
(0.0164385 0.000698935 -0.062462)
(-0.0183424 -0.000291651 -0.0642532)
(0.00138407 -0.0124928 -0.0638963)
(0.0205454 -0.000367439 -0.0669802)
(0.000183052 0.0229417 -0.070688)
(-0.000144657 -0.0222039 -0.0711983)
(0.0203637 0.00188678 -0.0692685)
(-0.00245222 -0.0260367 -0.071555)
(-0.00175155 -0.0284072 -0.0715175)
(-0.00246837 -0.0272104 -0.0720337)
(-0.0302669 0.000571166 -0.0728539)
(-0.0323815 0.00326452 -0.0737709)
(0.0039237 -0.034693 -0.0798165)
(-0.0373603 0.0025552 -0.0773708)
(-0.0493336 0.00279392 -0.0956459)
(-0.0557289 0.00899469 -0.119642)
(0.0573889 -0.0015231 -0.133768)
(-0.0536513 0.00790448 -0.120699)
(-0.0620292 0.011467 -0.122698)
(0.000697395 0.0608278 -0.121073)
(0.066822 -0.00310387 -0.116889)
(-0.0579057 0.00503986 -0.115781)
(-0.00265184 0.0307976 -0.0718312)
(0.00580647 0.0678991 -0.131828)
(-0.0627419 0.00508214 -0.127)
(-0.0707216 0.00804138 -0.142477)
(-0.0686536 -0.00399846 -0.106716)
(0.00777266 -0.0631564 -0.133955)
(-0.0692742 0.010042 -0.136828)
(-0.0651515 0.0209341 -0.140747)
(-0.0832837 0.00955413 -0.122609)
(-0.0588205 0.0106844 -0.10715)
(-0.0792052 -0.010239 -0.130514)
(-0.0791828 -0.00891204 -0.125151)
(-0.0703435 0.0147313 -0.128385)
(-0.085819 -0.000240253 -0.121212)
(-0.090245 -0.0149719 -0.118617)
(-0.0753192 -0.010472 -0.136109)
(-0.0786645 0.0231445 -0.153825)
(-0.0690158 0.0154155 -0.144496)
(0.0240967 0.0896114 -0.0411022)
(-0.0755717 -0.0103911 -0.149373)
(0.0156194 0.0869825 -0.0533364)
(-0.119525 0.0134339 -0.0969879)
(-0.137861 0.0432561 -0.0606874)
(-0.127944 -0.00974889 -0.07595)
(-0.114876 0.0186678 -0.0805148)
(-0.146168 -0.0217221 -0.0765406)
(-0.124073 0.024027 -0.0769096)
(-0.121169 0.0258943 -0.0689223)
(-0.123929 0.0413926 -0.0909722)
(-0.115028 0.0266996 -0.0274387)
(-0.138329 -0.0139274 -0.0884532)
(-0.13382 0.026481 -0.0769842)
(-0.119343 0.0398759 -0.0590958)
(-0.140877 -0.00349772 -0.0630731)
(-0.0105189 -0.10834 -0.0481673)
(-0.136543 0.0138579 -0.0656247)
(-0.13729 0.0406542 -0.0468073)
(-0.145077 0.0372414 -0.0957593)
(-0.129571 0.0175524 -0.0343483)
(-0.142849 -0.0160353 -0.0556036)
(-0.13808 0.0329241 -0.0646213)
(-0.146759 0.0163032 -0.094191)
(-0.146491 -0.0241153 -0.0883691)
(-0.131374 0.0113226 -0.00640755)
(-0.12958 0.0340648 -0.0162583)
(-0.132219 -0.0284123 -0.014638)
(-0.13216 0.0179746 -0.0240566)
(-0.107379 0.0275801 0.0694826)
(-0.113928 -0.0241558 0.0585594)
(-0.104882 -0.000423192 0.150279)
(-0.10599 0.0227233 0.0491601)
(-0.0963619 0.00931469 0.175868)
(-0.0384269 0.00758186 0.26376)
(-0.0348246 0.00919771 0.279129)
(-0.0399331 -0.00290003 0.28527)
(-0.0210213 0.00446968 0.283066)
(-0.0411742 0.00529316 0.301746)
(-0.0363493 0.00272125 0.306337)
(-0.0197377 0.00417794 0.297232)
(-0.009713 0.00341092 0.297231)
(0.00505124 -0.0125601 0.331206)
(0.00401962 -0.0134957 0.346675)
(0.00467598 0.00298356 0.30221)
(0.0047239 0.00526002 0.290019)
(-0.00437239 0.00246906 0.288843)
(-0.00469766 0.00118598 0.276229)
(-0.00482991 0.00222313 0.309118)
(-0.00464994 -0.000378797 0.280638)
(0.0033833 0.00296569 0.304679)
(0.00238922 -0.00528104 0.336871)
(0.00204811 0.0010563 0.316259)
(-0.00405791 0.000403274 0.312146)
(-0.00403742 7.90914e-05 0.311797)
(0.00289218 -0.00192903 0.356024)
(0.00252989 -0.000724921 0.316499)
(-0.00436123 0.000301398 0.312039)
(0.0029753 -0.00508805 0.333492)
(0.00345313 -0.00534016 0.339107)
(-0.00626815 -0.000986113 0.310586)
(-0.00722543 0.00111748 0.311121)
(-0.00709302 -0.00132631 0.316787)
(0.00431402 0.00212996 0.296945)
(0.00339309 -0.00407702 0.339741)
(-0.00718601 0.00178737 0.309859)
(0.00403575 0.00150067 0.296227)
(-0.000362547 -0.00223318 0.347147)
(0.00252045 -0.00345761 0.325847)
(0.00374338 -0.00123828 0.359444)
(-0.00480022 0.00090174 0.31996)
(0.00308916 -0.00258342 0.325194)
(0.00409893 0.00265052 0.358291)
(-0.00308545 -0.0019703 0.314329)
(0.00210593 -0.00216949 0.358052)
)


// ************************************************************************* //
