/*--------------------------------*- C++ -*----------------------------------*\
| =========                 |                                                 |
| \\      /  F ield         | OpenFOAM: The Open Source CFD Toolbox           |
|  \\    /   O peration     | Version:  plus.master.MPPICInterFoam            |
|   \\  /    A nd           | Web:      www.OpenFOAM.com                      |
|    \\/     M anipulation  |                                                 |
\*---------------------------------------------------------------------------*/
FoamFile
{
    version     2.0;
    format      ascii;
    class       vectorField;
    location    "7.2/lagrangian/kinematicCloud";
    object      UCorrect;
}
// * * * * * * * * * * * * * * * * * * * * * * * * * * * * * * * * * * * * * //


169
(
(9.10551e-12 8.75076e-10 1.51914e-06)
(6.7769e-16 2.59616e-16 4.2178e-16)
(1.32391e-12 3.02878e-13 1.09887e-13)
(5.80111e-16 3.8971e-16 1.03986e-16)
(-2.27303e-13 -2.59946e-13 4.55887e-10)
(3.62049e-19 -1.10259e-19 1.34742e-19)
(3.90707e-19 4.89908e-19 2.69484e-19)
(-5.80092e-18 8.67201e-19 1.72389e-17)
(2.37597e-19 3.80646e-19 -1.26714e-37)
(1.86212e-19 3.86436e-19 7.38092e-51)
(2.37597e-19 7.94203e-20 7.38092e-51)
(2.37597e-19 5.09377e-19 7.38092e-51)
(2.37597e-19 4.70048e-19 7.38092e-51)
(-3.48714e-18 4.36484e-19 1.00472e-18)
(1.05131e-19 3.95571e-19 7.38092e-51)
(2.37597e-19 3.80646e-19 2.84997e-37)
(-3.31512e-13 -3.80827e-12 2.90931e-15)
(2.91216e-20 1.81849e-19 -2.17436e-34)
(3.96399e-17 -1.31055e-12 2.90931e-15)
(5.48217e-19 -1.18682e-19 -8.21299e-36)
(1.17077e-19 -1.55402e-17 1.95752e-15)
(-2.37133e-19 1.74771e-19 1.51895e-22)
(-1.3991e-18 -1.18492e-17 6.68136e-17)
(1.73696e-19 5.13333e-30 6.08393e-23)
(3.15937e-21 -2.57999e-29 1.86253e-19)
(1.77746e-18 -3.24849e-15 8.4438e-18)
(1.73696e-19 5.13333e-30 5.43697e-23)
(2.35356e-19 1.98098e-19 1.86253e-19)
(1.77746e-18 -3.24849e-15 8.09941e-18)
(1.73696e-19 5.13333e-30 5.12598e-23)
(-2.37133e-19 -4.344e-19 3.27056e-22)
(2.15229e-19 5.13333e-30 1.63528e-22)
(-2.37133e-19 1.74771e-19 5.2391e-22)
(-1.15021e-19 2.83745e-20 8.66958e-37)
(9.43184e-20 5.13333e-30 1.63528e-22)
(-1.14943e-19 2.87151e-20 8.66958e-37)
(-5.34338e-20 3.99715e-19 2.79106e-19)
(-2.34229e-19 1.81179e-20 1.86071e-19)
(7.14158e-30 1.84784e-19 5.98737e-22)
(1.77746e-18 -3.24849e-15 2.69657e-19)
(-1.78473e-20 -1.224e-20 -9.30355e-20)
(1.73696e-19 5.13333e-30 3.12706e-22)
(-2.34438e-19 -2.93592e-18 3.92467e-21)
(1.73696e-19 5.13333e-30 3.18947e-22)
(1.04084e-29 -2.96233e-18 6.30107e-21)
(-4.33999e-28 1.20316e-28 -1.17418e-46)
(1.40582e-19 5.13343e-30 1.63528e-22)
(1.04084e-29 -1.50087e-18 3.92467e-21)
(7.14158e-30 8.17212e-20 3.27056e-22)
(1.04084e-29 -2.96233e-18 2.55835e-21)
(-2.90322e-20 -6.50591e-21 -3.6342e-22)
(1.04084e-29 -2.96233e-18 1.97332e-21)
(7.1928e-20 -1.20309e-19 4.13161e-38)
(-1.20309e-19 -1.74475e-19 2.44112e-18)
(-1.86224e-19 -2.29178e-20 -1.86253e-19)
(-4.10944e-19 1.47025e-19 -3.6342e-22)
(-1.20309e-19 -1.74475e-19 2.14582e-18)
(3.2005e-23 2.1578e-22 -5.93278e-34)
(-1.20309e-19 -4.11414e-19 -2.7527e-19)
(-1.20309e-19 -1.74475e-19 1.25198e-18)
(-1.97184e-19 -1.20192e-19 -2.57164e-19)
(-9.33373e-20 7.7137e-19 -6.51248e-19)
(-2.38201e-22 -1.21341e-18 2.08389e-19)
(-8.87321e-21 -2.63906e-19 -2.08389e-19)
(-8.72514e-22 2.43918e-19 1.03381e-19)
(-1.31781e-21 2.43918e-19 1.03381e-19)
(-2.38201e-22 -1.27594e-18 2.08389e-19)
(-1.25412e-20 2.43918e-19 4.74294e-20)
(-9.91455e-19 -1.21959e-19 -1.63688e-18)
(-1.15426e-18 -1.56687e-18 -3.96021e-18)
(-4.94578e-19 4.29029e-20 -7.86021e-36)
(-1.12868e-18 -1.33984e-18 -3.96021e-18)
(-2.75693e-15 3.72134e-16 -1.29446e-14)
(-1.21959e-19 5.02924e-20 3.12584e-19)
(-4.93639e-19 5.12382e-20 -7.87709e-36)
(-6.31671e-19 -1.21959e-19 -3.96021e-18)
(-5.96143e-23 5.43186e-22 -2.69484e-19)
(-2.43018e-19 5.53398e-20 -9.19846e-35)
(-4.39212e-19 -1.21959e-19 -3.96021e-18)
(-4.02416e-18 -3.23082e-19 -1.8158e-18)
(-1.11295e-15 -1.15664e-16 -1.8158e-18)
(-1.07108e-30 -6.77428e-21 -9.19846e-35)
(-2.6696e-16 -3.23082e-19 -1.8158e-18)
(-1.35116e-15 5.07022e-16 -1.29446e-14)
(-1.12594e-15 -3.23082e-19 -1.74761e-18)
(-5.10124e-09 6.06572e-10 -3.58834e-09)
(-5.34405e-15 -1.22088e-15 -2.17687e-17)
(-5.34405e-15 -1.22088e-15 -2.19891e-17)
(-4.99664e-10 1.14118e-10 -3.58834e-09)
(-1.83545e-13 -1.19607e-14 -3.12902e-14)
(-3.93233e-14 -1.54712e-14 -4.56081e-12)
(-5.2902e-14 -1.85704e-14 -1.7944e-11)
(-8.25627e-10 1.88517e-10 -3.58834e-09)
(-5.08418e-09 7.58006e-10 -3.58834e-09)
(2.16774e-19 -5.80592e-20 1.61326e-19)
(-1.48926e-09 -3.39957e-10 -7.17382e-09)
(-5.95583e-20 -1.21214e-18 1.71799e-19)
(-3.4395e-06 3.18403e-07 3.63263e-11)
(-0.000437183 0.000286529 1.84761e-13)
(5.98433e-05 -0.000294525 3.00858e-13)
(-1.28982e-06 -2.87427e-06 3.85776e-09)
(-0.000999369 -0.000385781 3.00858e-13)
(0.000159283 0.000782969 7.53339e-12)
(0.000134335 0.000195545 7.53339e-12)
(-0.000105763 0.000215315 1.84761e-13)
(0.000164786 0.000781787 7.53339e-12)
(5.73081e-05 -0.00029507 3.00858e-13)
(0.000134586 0.000198158 7.53339e-12)
(-7.36744e-05 0.00020842 1.84761e-13)
(-3.158e-06 3.18403e-07 3.63263e-11)
(-8.79009e-15 -9.06482e-14 2.14743e-13)
(-2.71153e-06 -2.20582e-06 3.85776e-09)
(0.000174339 0.000779734 7.53339e-12)
(0.000176714 0.000779016 7.53339e-12)
(-1.28074e-06 -2.77968e-06 3.85776e-09)
(1.23953e-06 1.69637e-07 4.6973e-12)
(0.000102438 0.000412597 0.000277747)
(1.41815e-06 -7.69041e-07 4.43284e-07)
(-3.07937e-07 1.73509e-06 4.6973e-12)
(8.84347e-07 -2.20582e-06 3.85776e-09)
(0.000102438 0.000412597 0.000198523)
(0.000129852 -4.58345e-05 -8.84482e-11)
(1.73744e-06 -8.98085e-07 4.43284e-07)
(8.66078e-05 0.000415462 3.55556e-10)
(0.000169165 -2.14091e-05 -8.84482e-11)
(1.73809e-06 -6.46764e-07 4.43284e-07)
(3.56073e-06 1.29862e-06 -5.20796e-09)
(1.51031e-06 -2.04158e-06 1.74593e-07)
(-0.000324012 1.7959e-05 1.9562e-12)
(3.84155e-06 -7.55339e-07 3.93706e-07)
(-0.000322773 -0.000345332 1.9562e-12)
(-6.19171e-07 -2.45057e-06 -6.33597e-08)
(0.000242028 -5.31152e-08 1.22115e-07)
(0.000230814 -5.31152e-08 1.22115e-07)
(-3.76373e-05 -0.000268858 -5.61062e-09)
(-0.000487855 9.15579e-05 -5.61062e-09)
(0.00049805 1.99318e-05 0.000199278)
(4.62964e-13 0.00117427 0.000199278)
(-6.92317e-05 -0.000232013 8.60653e-16)
(-2.18514e-05 5.38822e-06 -1.37835e-14)
(1.75398e-06 6.18483e-08 -3.93084e-07)
(-0.000222998 -0.000102568 -0.00011025)
(0.000166179 0.000124801 4.92245e-05)
(-0.000211478 -0.00022257 -6.37552e-05)
(8.13379e-07 7.86827e-06 1.78273e-13)
(2.17008e-13 -1.59451e-05 -3.55956e-05)
(-2.0729e-08 2.45631e-09 -3.5313e-15)
(0.000169201 2.14782e-05 4.92245e-05)
(3.73712e-06 9.13955e-07 -1.45415e-10)
(2.17008e-13 0.000749309 -0.000111267)
(-2.23682e-10 3.06608e-12 -3.82849e-10)
(1.46323e-07 -1.22603e-10 -1.95548e-08)
(-2.42121e-11 -0.000111049 -4.4406e-08)
(7.28684e-05 2.39392e-06 -4.4406e-08)
(1.80949e-08 -1.17662e-07 7.4358e-11)
(-3.61953e-05 0.000281034 0.000301132)
(5.84889e-06 1.81164e-06 4.18294e-07)
(1.4985e-14 5.08409e-14 -3.86028e-13)
(3.54139e-08 3.32183e-09 -3.7732e-08)
(-3.61953e-05 0.000281034 3.91444e-05)
(1.99015e-18 9.13608e-18 -1.5237e-14)
(0.00127911 -0.000255589 7.29124e-13)
(-3.98257e-07 -8.93508e-08 7.1653e-07)
(-8.22956e-10 1.63525e-07 1.88863e-06)
(-4.12975e-08 5.30707e-07 -1.16663e-07)
(-4.41978e-07 -9.35481e-08 7.1653e-07)
(-8.22956e-10 9.91738e-07 1.88863e-06)
(-1.40546e-05 -0.00014417 7.29124e-13)
(3.54086e-08 3.03177e-07 5.05992e-07)
)


// ************************************************************************* //
