/*--------------------------------*- C++ -*----------------------------------*\
| =========                 |                                                 |
| \\      /  F ield         | OpenFOAM: The Open Source CFD Toolbox           |
|  \\    /   O peration     | Version:  plus.master.MPPICInterFoam            |
|   \\  /    A nd           | Web:      www.OpenFOAM.com                      |
|    \\/     M anipulation  |                                                 |
\*---------------------------------------------------------------------------*/
FoamFile
{
    version     2.0;
    format      ascii;
    class       volScalarField;
    location    "5";
    object      epsilon;
}
// * * * * * * * * * * * * * * * * * * * * * * * * * * * * * * * * * * * * * //

dimensions      [0 2 -3 0 0 0 0];

internalField   nonuniform List<scalar> 
11821
(
7.94548e-05
3.60704e-05
3.1372e-05
3.11698e-05
3.17005e-05
3.20784e-05
3.2006e-05
3.13889e-05
7.96597e-05
3.6163e-05
3.13819e-05
3.11536e-05
3.16793e-05
3.20618e-05
3.19979e-05
3.13907e-05
7.9834e-05
3.62e-05
3.13793e-05
3.11401e-05
3.16646e-05
3.205e-05
3.19906e-05
3.13879e-05
7.99477e-05
3.62171e-05
3.13751e-05
3.1131e-05
3.16554e-05
3.20426e-05
3.19857e-05
3.13857e-05
8.00101e-05
3.61994e-05
3.13667e-05
3.1128e-05
3.16545e-05
3.20419e-05
3.19842e-05
3.1383e-05
8.00125e-05
3.61659e-05
3.13584e-05
3.11303e-05
3.16596e-05
3.2046e-05
3.19857e-05
3.13818e-05
7.99822e-05
3.60653e-05
3.13348e-05
3.11356e-05
3.16728e-05
3.20569e-05
3.19895e-05
3.13768e-05
7.93485e-05
3.60034e-05
3.13386e-05
3.1149e-05
3.16845e-05
3.20642e-05
3.19921e-05
3.1375e-05
7.95252e-05
3.60892e-05
3.13516e-05
3.11387e-05
3.16694e-05
3.20525e-05
3.19875e-05
3.13786e-05
7.96748e-05
3.61291e-05
3.13536e-05
3.11295e-05
3.16584e-05
3.20438e-05
3.19826e-05
3.13777e-05
7.97722e-05
3.61499e-05
3.1353e-05
3.11232e-05
3.16514e-05
3.20381e-05
3.1979e-05
3.13764e-05
7.98226e-05
3.61378e-05
3.13471e-05
3.1121e-05
3.16507e-05
3.20375e-05
3.19779e-05
3.13746e-05
7.98172e-05
3.61097e-05
3.134e-05
3.11225e-05
3.16544e-05
3.20405e-05
3.19787e-05
3.13731e-05
7.9778e-05
3.60248e-05
3.13195e-05
3.11257e-05
3.16641e-05
3.20482e-05
3.19808e-05
3.13683e-05
7.92814e-05
3.59571e-05
3.1317e-05
3.11366e-05
3.16754e-05
3.20557e-05
3.19833e-05
3.13656e-05
7.94376e-05
3.60335e-05
3.13305e-05
3.11298e-05
3.16642e-05
3.20472e-05
3.19805e-05
3.13695e-05
7.95686e-05
3.60727e-05
3.13346e-05
3.11233e-05
3.16557e-05
3.20405e-05
3.19769e-05
3.13693e-05
7.96537e-05
3.60944e-05
3.1336e-05
3.1119e-05
3.16504e-05
3.20361e-05
3.19744e-05
3.13689e-05
7.96951e-05
3.60864e-05
3.13318e-05
3.11172e-05
3.16496e-05
3.20355e-05
3.19734e-05
3.13674e-05
7.96852e-05
3.60628e-05
3.13259e-05
3.11182e-05
3.16525e-05
3.20378e-05
3.1974e-05
3.13662e-05
7.96411e-05
3.59925e-05
3.13086e-05
3.11201e-05
3.16595e-05
3.20433e-05
3.1975e-05
3.13617e-05
7.92398e-05
3.59248e-05
3.13029e-05
3.11292e-05
3.16702e-05
3.20508e-05
3.19776e-05
3.1359e-05
7.9382e-05
3.59912e-05
3.13155e-05
3.11246e-05
3.16617e-05
3.20443e-05
3.19758e-05
3.13626e-05
7.94998e-05
3.6028e-05
3.13206e-05
3.112e-05
3.16552e-05
3.2039e-05
3.19731e-05
3.13627e-05
7.95763e-05
3.6049e-05
3.13229e-05
3.11169e-05
3.1651e-05
3.20356e-05
3.19711e-05
3.13626e-05
7.96115e-05
3.60439e-05
3.132e-05
3.11155e-05
3.16502e-05
3.2035e-05
3.19703e-05
3.13614e-05
7.95989e-05
3.60242e-05
3.1315e-05
3.11162e-05
3.16524e-05
3.20367e-05
3.19707e-05
3.13604e-05
7.95523e-05
3.59667e-05
3.13008e-05
3.11173e-05
3.16577e-05
3.20408e-05
3.19713e-05
3.13568e-05
7.9216e-05
3.59018e-05
3.12937e-05
3.1125e-05
3.16675e-05
3.20479e-05
3.19739e-05
3.13543e-05
7.93494e-05
3.5959e-05
3.1305e-05
3.11219e-05
3.1661e-05
3.20429e-05
3.19725e-05
3.13572e-05
7.94588e-05
3.59927e-05
3.13104e-05
3.11186e-05
3.16559e-05
3.20387e-05
3.19704e-05
3.13574e-05
7.95298e-05
3.60124e-05
3.13132e-05
3.11164e-05
3.16526e-05
3.20359e-05
3.19688e-05
3.13573e-05
7.9561e-05
3.60096e-05
3.13111e-05
3.11153e-05
3.16519e-05
3.20353e-05
3.19681e-05
3.13563e-05
7.95469e-05
3.59931e-05
3.1307e-05
3.11157e-05
3.16535e-05
3.20366e-05
3.19684e-05
3.13556e-05
7.94989e-05
3.59464e-05
3.12955e-05
3.11164e-05
3.16574e-05
3.20397e-05
3.19688e-05
3.13528e-05
7.9206e-05
3.58857e-05
3.12878e-05
3.11229e-05
3.16663e-05
3.20463e-05
3.19714e-05
3.13508e-05
7.9335e-05
3.5935e-05
3.12979e-05
3.11208e-05
3.16614e-05
3.20424e-05
3.19702e-05
3.13529e-05
7.94401e-05
3.59656e-05
3.13033e-05
3.11186e-05
3.16574e-05
3.20391e-05
3.19684e-05
3.13529e-05
7.95081e-05
3.59837e-05
3.13061e-05
3.1117e-05
3.16548e-05
3.20368e-05
3.19671e-05
3.13528e-05
7.95371e-05
3.59826e-05
3.13049e-05
3.11161e-05
3.16541e-05
3.20362e-05
3.19665e-05
3.1352e-05
7.95224e-05
3.59689e-05
3.13014e-05
3.11163e-05
3.16553e-05
3.20372e-05
3.19667e-05
3.13515e-05
7.94733e-05
3.59311e-05
3.12921e-05
3.11167e-05
3.16583e-05
3.20396e-05
3.19671e-05
3.13495e-05
7.92083e-05
3.58751e-05
3.12845e-05
3.11222e-05
3.16661e-05
3.20455e-05
3.19696e-05
3.1348e-05
7.93369e-05
3.59178e-05
3.12936e-05
3.11211e-05
3.16624e-05
3.20425e-05
3.19686e-05
3.13494e-05
7.94409e-05
3.59456e-05
3.12988e-05
3.11196e-05
3.16594e-05
3.20398e-05
3.1967e-05
3.13492e-05
7.95084e-05
3.59623e-05
3.13017e-05
3.11186e-05
3.16573e-05
3.2038e-05
3.19659e-05
3.13489e-05
7.95364e-05
3.59626e-05
3.1301e-05
3.11179e-05
3.16568e-05
3.20374e-05
3.19653e-05
3.13483e-05
7.95215e-05
3.59513e-05
3.12981e-05
3.1118e-05
3.16576e-05
3.20381e-05
3.19654e-05
3.13479e-05
7.94711e-05
3.59206e-05
3.12907e-05
3.11181e-05
3.16598e-05
3.20399e-05
3.19658e-05
3.13465e-05
7.9223e-05
3.58693e-05
3.12835e-05
3.11228e-05
3.16667e-05
3.20453e-05
3.19683e-05
3.13458e-05
7.93547e-05
3.5907e-05
3.12917e-05
3.11224e-05
3.16641e-05
3.2043e-05
3.19673e-05
3.13464e-05
7.94606e-05
3.59324e-05
3.12969e-05
3.11217e-05
3.16618e-05
3.20408e-05
3.19659e-05
3.13459e-05
7.95295e-05
3.5948e-05
3.12999e-05
3.11211e-05
3.16602e-05
3.20393e-05
3.19648e-05
3.13454e-05
7.95577e-05
3.59493e-05
3.12996e-05
3.11206e-05
3.16597e-05
3.20387e-05
3.19642e-05
3.13448e-05
7.95427e-05
3.59401e-05
3.12972e-05
3.11205e-05
3.16602e-05
3.20392e-05
3.19643e-05
3.13446e-05
7.94905e-05
3.5915e-05
3.12911e-05
3.11204e-05
3.16618e-05
3.20405e-05
3.19647e-05
3.13438e-05
7.92513e-05
3.58683e-05
3.12846e-05
3.11246e-05
3.1668e-05
3.20456e-05
3.19674e-05
3.13437e-05
7.93893e-05
3.59023e-05
3.12925e-05
3.1125e-05
3.16663e-05
3.20438e-05
3.19663e-05
3.13437e-05
7.95001e-05
3.59262e-05
3.12977e-05
3.11249e-05
3.16647e-05
3.2042e-05
3.19649e-05
3.13428e-05
7.95723e-05
3.59409e-05
3.13008e-05
3.11247e-05
3.16635e-05
3.20407e-05
3.19638e-05
3.1342e-05
7.96019e-05
3.59433e-05
3.1301e-05
3.11244e-05
3.16631e-05
3.20402e-05
3.19632e-05
3.13414e-05
7.95867e-05
3.59357e-05
3.1299e-05
3.11242e-05
3.16634e-05
3.20404e-05
3.19633e-05
3.13414e-05
7.95318e-05
3.5915e-05
3.1294e-05
3.11239e-05
3.16644e-05
3.20415e-05
3.19637e-05
3.1341e-05
7.92953e-05
3.58728e-05
3.12884e-05
3.11278e-05
3.16701e-05
3.20463e-05
3.19666e-05
3.13418e-05
7.94434e-05
3.59047e-05
3.12964e-05
3.11291e-05
3.16692e-05
3.20449e-05
3.19655e-05
3.1341e-05
7.95624e-05
3.59278e-05
3.1302e-05
3.11297e-05
3.16683e-05
3.20434e-05
3.19639e-05
3.13397e-05
7.96402e-05
3.59424e-05
3.13054e-05
3.113e-05
3.16675e-05
3.20423e-05
3.19628e-05
3.13387e-05
7.96723e-05
3.59458e-05
3.1306e-05
3.11299e-05
3.16671e-05
3.20418e-05
3.19621e-05
3.1338e-05
7.96567e-05
3.59397e-05
3.13043e-05
3.11296e-05
3.16672e-05
3.20419e-05
3.19622e-05
3.13381e-05
7.95979e-05
3.59221e-05
3.12999e-05
3.1129e-05
3.16677e-05
3.20427e-05
3.19627e-05
3.13382e-05
7.93588e-05
3.5884e-05
3.12956e-05
3.1133e-05
3.16734e-05
3.20476e-05
3.1966e-05
3.13396e-05
7.95225e-05
3.59157e-05
3.13043e-05
3.11353e-05
3.16733e-05
3.20465e-05
3.19647e-05
3.13383e-05
7.96536e-05
3.59394e-05
3.13106e-05
3.11367e-05
3.16729e-05
3.20452e-05
3.19629e-05
3.13364e-05
7.97397e-05
3.59546e-05
3.13146e-05
3.11374e-05
3.16724e-05
3.20442e-05
3.19617e-05
3.13351e-05
7.97758e-05
3.59593e-05
3.13157e-05
3.11375e-05
3.16721e-05
3.20436e-05
3.19609e-05
3.13344e-05
7.97596e-05
3.59544e-05
3.13143e-05
3.11371e-05
3.1672e-05
3.20437e-05
3.1961e-05
3.13345e-05
7.96957e-05
3.59391e-05
3.13102e-05
3.11362e-05
3.16722e-05
3.20442e-05
3.19616e-05
3.13351e-05
7.94472e-05
3.59037e-05
3.13071e-05
3.11409e-05
3.16783e-05
3.20497e-05
3.19655e-05
3.13371e-05
7.96337e-05
3.59378e-05
3.13174e-05
3.11444e-05
3.1679e-05
3.20488e-05
3.19639e-05
3.13351e-05
7.97824e-05
3.59638e-05
3.13251e-05
3.11467e-05
3.1679e-05
3.20476e-05
3.19619e-05
3.13327e-05
7.98805e-05
3.59808e-05
3.13299e-05
3.1148e-05
3.16788e-05
3.20466e-05
3.19604e-05
3.1331e-05
7.99226e-05
3.59873e-05
3.13317e-05
3.11483e-05
3.16786e-05
3.2046e-05
3.19595e-05
3.13301e-05
7.99058e-05
3.59835e-05
3.13304e-05
3.11478e-05
3.16783e-05
3.20459e-05
3.19596e-05
3.13303e-05
7.98348e-05
3.59698e-05
3.13263e-05
3.11465e-05
3.16781e-05
3.20463e-05
3.19604e-05
3.13313e-05
7.95681e-05
3.59345e-05
3.13248e-05
3.11528e-05
3.16858e-05
3.20531e-05
3.19653e-05
3.13341e-05
7.97863e-05
3.59742e-05
3.13376e-05
3.11577e-05
3.16871e-05
3.20523e-05
3.19633e-05
3.13314e-05
7.99601e-05
3.60052e-05
3.13473e-05
3.11611e-05
3.16877e-05
3.20511e-05
3.19608e-05
3.13283e-05
8.00746e-05
3.60255e-05
3.13534e-05
3.1163e-05
3.16878e-05
3.205e-05
3.19591e-05
3.13262e-05
8.0123e-05
3.60337e-05
3.13557e-05
3.11636e-05
3.16875e-05
3.20494e-05
3.19581e-05
3.13251e-05
8.0102e-05
3.60294e-05
3.13541e-05
3.11628e-05
3.16871e-05
3.20493e-05
3.19582e-05
3.13255e-05
8.00157e-05
3.60134e-05
3.13489e-05
3.11608e-05
3.16866e-05
3.20496e-05
3.19592e-05
3.13269e-05
7.97296e-05
3.59789e-05
3.13507e-05
3.11708e-05
3.16976e-05
3.20591e-05
3.19661e-05
3.13307e-05
7.99847e-05
3.60257e-05
3.13665e-05
3.11772e-05
3.16996e-05
3.20585e-05
3.19638e-05
3.13275e-05
8.0187e-05
3.60622e-05
3.13784e-05
3.11817e-05
3.17007e-05
3.20572e-05
3.19608e-05
3.13236e-05
8.03205e-05
3.6086e-05
3.13859e-05
3.11844e-05
3.17011e-05
3.20561e-05
3.19587e-05
3.1321e-05
8.03756e-05
3.60955e-05
3.13887e-05
3.11852e-05
3.17009e-05
3.20554e-05
3.19577e-05
3.13198e-05
8.03493e-05
3.60904e-05
3.13868e-05
3.11842e-05
3.17004e-05
3.20553e-05
3.19578e-05
3.13203e-05
8.02457e-05
3.60713e-05
3.13802e-05
3.11814e-05
3.16994e-05
3.20556e-05
3.19591e-05
3.13221e-05
7.91417e-05
3.58119e-05
3.12819e-05
3.11396e-05
3.16869e-05
3.20626e-05
3.19811e-05
3.13551e-05
7.94936e-05
3.58195e-05
3.12921e-05
3.11546e-05
3.1697e-05
3.20608e-05
3.19659e-05
3.1332e-05
7.94157e-05
3.58188e-05
3.13083e-05
3.11814e-05
3.17315e-05
8.06484e-05
3.58889e-05
7.91205e-05
7.88951e-05
3.57788e-05
3.1266e-05
3.11263e-05
3.16749e-05
3.20524e-05
3.19727e-05
3.1348e-05
7.9115e-05
3.57771e-05
3.12706e-05
3.11355e-05
3.1681e-05
3.20499e-05
3.19604e-05
3.13297e-05
7.89997e-05
3.57717e-05
3.12785e-05
3.11492e-05
3.16989e-05
3.20735e-05
3.19924e-05
3.13691e-05
7.98156e-05
3.5805e-05
3.1314e-05
3.12014e-05
3.17539e-05
3.21182e-05
3.20209e-05
3.13932e-05
7.87727e-05
3.57461e-05
3.12708e-05
3.11425e-05
3.1693e-05
3.20681e-05
3.19854e-05
3.13601e-05
7.88693e-05
3.57605e-05
3.1271e-05
3.1135e-05
3.16771e-05
3.20428e-05
3.19508e-05
3.13182e-05
7.84371e-05
3.5746e-05
3.12666e-05
3.11274e-05
3.16731e-05
3.20478e-05
3.1966e-05
3.13391e-05
7.87359e-05
3.57577e-05
3.12567e-05
3.1119e-05
3.16687e-05
3.20473e-05
3.19687e-05
3.13448e-05
7.88623e-05
3.57501e-05
3.12576e-05
3.11243e-05
3.1672e-05
3.20446e-05
3.1959e-05
3.13306e-05
7.87342e-05
3.5742e-05
3.12604e-05
3.11301e-05
3.16808e-05
3.20571e-05
3.19758e-05
3.1351e-05
7.9275e-05
3.57565e-05
3.12784e-05
3.11586e-05
3.17077e-05
3.20727e-05
3.19768e-05
3.13451e-05
7.85663e-05
3.57227e-05
3.12553e-05
3.11259e-05
3.16758e-05
3.20514e-05
3.19693e-05
3.13435e-05
7.86718e-05
3.57351e-05
3.12588e-05
3.1126e-05
3.16711e-05
3.20407e-05
3.19524e-05
3.13222e-05
7.83916e-05
3.57312e-05
3.1258e-05
3.11214e-05
3.16684e-05
3.20441e-05
3.1963e-05
3.13368e-05
7.8631e-05
3.57432e-05
3.12506e-05
3.11146e-05
3.16652e-05
3.20447e-05
3.19669e-05
3.13434e-05
7.86912e-05
3.57319e-05
3.12494e-05
3.11175e-05
3.16671e-05
3.20425e-05
3.19597e-05
3.13331e-05
7.85626e-05
3.57226e-05
3.12495e-05
3.11193e-05
3.16705e-05
3.20482e-05
3.19682e-05
3.13436e-05
7.89168e-05
3.57263e-05
3.1258e-05
3.11353e-05
3.16846e-05
3.20532e-05
3.19618e-05
3.1331e-05
7.84336e-05
3.57078e-05
3.12462e-05
3.1117e-05
3.16676e-05
3.20445e-05
3.19638e-05
3.13386e-05
7.85328e-05
3.57167e-05
3.125e-05
3.11196e-05
3.16672e-05
3.20399e-05
3.19547e-05
3.13263e-05
7.83534e-05
3.5719e-05
3.12512e-05
3.11171e-05
3.16656e-05
3.20423e-05
3.19621e-05
3.13365e-05
7.85579e-05
3.57325e-05
3.12461e-05
3.11115e-05
3.1663e-05
3.20432e-05
3.19661e-05
3.1343e-05
7.85698e-05
3.57185e-05
3.12434e-05
3.11128e-05
3.16639e-05
3.20415e-05
3.19609e-05
3.13357e-05
7.84453e-05
3.57084e-05
3.12422e-05
3.1113e-05
3.16651e-05
3.20442e-05
3.19655e-05
3.13417e-05
7.86724e-05
3.57058e-05
3.12454e-05
3.11219e-05
3.16724e-05
3.20449e-05
3.19578e-05
3.13291e-05
7.83392e-05
3.56957e-05
3.12395e-05
3.11114e-05
3.16631e-05
3.20416e-05
3.19624e-05
3.1338e-05
7.84257e-05
3.57015e-05
3.12426e-05
3.11144e-05
3.16642e-05
3.20395e-05
3.19568e-05
3.13301e-05
7.83152e-05
3.57074e-05
3.1245e-05
3.11133e-05
3.16633e-05
3.20413e-05
3.19619e-05
3.1337e-05
7.85026e-05
3.57239e-05
3.12426e-05
3.11093e-05
3.16614e-05
3.20424e-05
3.19658e-05
3.13432e-05
7.84783e-05
3.57079e-05
3.12387e-05
3.11093e-05
3.16617e-05
3.20409e-05
3.19621e-05
3.1338e-05
7.83588e-05
3.56971e-05
3.12367e-05
3.11086e-05
3.16617e-05
3.20421e-05
3.19647e-05
3.13416e-05
7.84978e-05
3.56905e-05
3.12368e-05
3.11134e-05
3.16655e-05
3.20413e-05
3.1958e-05
3.13313e-05
7.8265e-05
3.56849e-05
3.1234e-05
3.11073e-05
3.16602e-05
3.20402e-05
3.19623e-05
3.13388e-05
7.83363e-05
3.5688e-05
3.12361e-05
3.11098e-05
3.16616e-05
3.20392e-05
3.19587e-05
3.13334e-05
7.82733e-05
3.56959e-05
3.12391e-05
3.11097e-05
3.16613e-05
3.20405e-05
3.19622e-05
3.13381e-05
7.8457e-05
3.5717e-05
3.12399e-05
3.11074e-05
3.16602e-05
3.20418e-05
3.19659e-05
3.13437e-05
7.84043e-05
3.56991e-05
3.1235e-05
3.11065e-05
3.16599e-05
3.20405e-05
3.19631e-05
3.13401e-05
7.82893e-05
3.56875e-05
3.12324e-05
3.11054e-05
3.16593e-05
3.20409e-05
3.19646e-05
3.13423e-05
7.83648e-05
3.56778e-05
3.12305e-05
3.11075e-05
3.16612e-05
3.20396e-05
3.19593e-05
3.13344e-05
7.82002e-05
3.56747e-05
3.12292e-05
3.11039e-05
3.1658e-05
3.20393e-05
3.19628e-05
3.13402e-05
7.82556e-05
3.56756e-05
3.12303e-05
3.11058e-05
3.16592e-05
3.20388e-05
3.19603e-05
3.13363e-05
7.82259e-05
3.56844e-05
3.12336e-05
3.11063e-05
3.16593e-05
3.20399e-05
3.19627e-05
3.13395e-05
7.84166e-05
3.57116e-05
3.12378e-05
3.1106e-05
3.16592e-05
3.20414e-05
3.1966e-05
3.13443e-05
7.83398e-05
3.56916e-05
3.12321e-05
3.11043e-05
3.16583e-05
3.20401e-05
3.19641e-05
3.13419e-05
7.82285e-05
3.56795e-05
3.1229e-05
3.11028e-05
3.16574e-05
3.204e-05
3.19648e-05
3.13433e-05
7.82557e-05
3.56669e-05
3.12255e-05
3.11032e-05
3.16581e-05
3.20387e-05
3.19609e-05
3.13376e-05
7.81387e-05
3.56652e-05
3.12251e-05
3.1101e-05
3.16561e-05
3.20386e-05
3.19633e-05
3.13417e-05
7.8178e-05
3.56641e-05
3.12252e-05
3.11023e-05
3.16571e-05
3.20384e-05
3.19616e-05
3.13389e-05
7.81722e-05
3.56733e-05
3.12286e-05
3.11031e-05
3.16574e-05
3.20392e-05
3.19633e-05
3.1341e-05
7.83795e-05
3.57079e-05
3.12367e-05
3.11051e-05
3.16585e-05
3.20411e-05
3.19663e-05
3.13451e-05
7.828e-05
3.56857e-05
3.123e-05
3.11026e-05
3.16571e-05
3.20399e-05
3.19649e-05
3.13435e-05
7.81725e-05
3.56733e-05
3.12267e-05
3.11008e-05
3.16559e-05
3.20393e-05
3.19651e-05
3.13444e-05
7.81602e-05
3.56575e-05
3.12218e-05
3.11e-05
3.16558e-05
3.20382e-05
3.19623e-05
3.13404e-05
7.80773e-05
3.56574e-05
3.1222e-05
3.10987e-05
3.16544e-05
3.20379e-05
3.19638e-05
3.13431e-05
7.81008e-05
3.56538e-05
3.1221e-05
3.10992e-05
3.16551e-05
3.20379e-05
3.19627e-05
3.13413e-05
7.81133e-05
3.56635e-05
3.12245e-05
3.11004e-05
3.16557e-05
3.20386e-05
3.19638e-05
3.13426e-05
7.83449e-05
3.57066e-05
3.12369e-05
3.11049e-05
3.16582e-05
3.20411e-05
3.19667e-05
3.13459e-05
7.82243e-05
3.56825e-05
3.12294e-05
3.11017e-05
3.16564e-05
3.20398e-05
3.19656e-05
3.1345e-05
7.81203e-05
3.56702e-05
3.12259e-05
3.10997e-05
3.16549e-05
3.20388e-05
3.19654e-05
3.13455e-05
7.80739e-05
3.56505e-05
3.12196e-05
3.10979e-05
3.16542e-05
3.20378e-05
3.19635e-05
3.13428e-05
7.80171e-05
3.56532e-05
3.12205e-05
3.10971e-05
3.1653e-05
3.20373e-05
3.19642e-05
3.13446e-05
7.80244e-05
3.56461e-05
3.12184e-05
3.1097e-05
3.16535e-05
3.20374e-05
3.19637e-05
3.13434e-05
7.8053e-05
3.56573e-05
3.12221e-05
3.10985e-05
3.16542e-05
3.2038e-05
3.19643e-05
3.13442e-05
7.83139e-05
3.57093e-05
3.12391e-05
3.11059e-05
3.16587e-05
3.20415e-05
3.19673e-05
3.13467e-05
7.81755e-05
3.56836e-05
3.1231e-05
3.11022e-05
3.16565e-05
3.204e-05
3.19664e-05
3.13462e-05
7.80718e-05
3.56716e-05
3.12273e-05
3.10998e-05
3.16546e-05
3.20387e-05
3.19659e-05
3.13466e-05
7.79979e-05
3.56482e-05
3.12198e-05
3.10972e-05
3.16534e-05
3.20378e-05
3.19646e-05
3.13448e-05
7.79582e-05
3.56533e-05
3.12212e-05
3.10966e-05
3.16522e-05
3.20369e-05
3.19647e-05
3.13459e-05
7.79525e-05
3.56435e-05
3.12182e-05
3.10961e-05
3.16525e-05
3.20372e-05
3.19645e-05
3.13452e-05
7.79948e-05
3.56563e-05
3.12222e-05
3.10977e-05
3.16533e-05
3.20376e-05
3.19649e-05
3.13456e-05
7.82855e-05
3.57158e-05
3.12436e-05
3.11086e-05
3.16604e-05
3.20426e-05
3.19681e-05
3.13472e-05
7.81358e-05
3.56906e-05
3.12355e-05
3.11044e-05
3.16576e-05
3.20408e-05
3.19672e-05
3.13471e-05
7.80214e-05
3.5676e-05
3.12307e-05
3.11015e-05
3.16553e-05
3.20393e-05
3.19665e-05
3.13474e-05
7.79368e-05
3.56538e-05
3.12234e-05
3.10985e-05
3.16537e-05
3.20382e-05
3.19655e-05
3.13463e-05
7.78959e-05
3.5656e-05
3.12237e-05
3.10975e-05
3.16525e-05
3.20372e-05
3.19653e-05
3.1347e-05
7.78892e-05
3.56482e-05
3.12212e-05
3.10969e-05
3.16525e-05
3.20373e-05
3.19652e-05
3.13466e-05
7.79337e-05
3.56588e-05
3.12245e-05
3.10985e-05
3.16534e-05
3.20378e-05
3.19655e-05
3.13469e-05
7.82614e-05
3.57261e-05
3.12512e-05
3.11138e-05
3.1664e-05
3.20449e-05
3.19693e-05
3.13474e-05
7.80985e-05
3.57005e-05
3.12427e-05
3.11091e-05
3.16606e-05
3.20427e-05
3.19683e-05
3.13475e-05
7.79718e-05
3.56833e-05
3.12369e-05
3.11055e-05
3.16579e-05
3.20409e-05
3.19675e-05
3.13478e-05
7.788e-05
3.56634e-05
3.12301e-05
3.11022e-05
3.16558e-05
3.20395e-05
3.19665e-05
3.13471e-05
7.78317e-05
3.56612e-05
3.12289e-05
3.11008e-05
3.16544e-05
3.20384e-05
3.19662e-05
3.13477e-05
7.78245e-05
3.56553e-05
3.12267e-05
3.11e-05
3.16542e-05
3.20384e-05
3.19661e-05
3.13475e-05
7.78698e-05
3.56641e-05
3.12295e-05
3.11015e-05
3.16551e-05
3.2039e-05
3.19665e-05
3.13478e-05
7.82464e-05
3.57423e-05
3.12639e-05
3.11234e-05
3.16708e-05
3.20493e-05
3.19713e-05
3.13473e-05
7.80677e-05
3.57155e-05
3.12547e-05
3.11179e-05
3.16669e-05
3.20468e-05
3.19703e-05
3.13476e-05
7.79276e-05
3.56956e-05
3.12478e-05
3.11137e-05
3.16638e-05
3.20447e-05
3.19694e-05
3.13479e-05
7.78261e-05
3.56766e-05
3.1241e-05
3.11099e-05
3.16612e-05
3.2043e-05
3.19684e-05
3.13476e-05
7.77698e-05
3.56709e-05
3.12385e-05
3.11079e-05
3.16595e-05
3.20418e-05
3.1968e-05
3.13481e-05
7.77606e-05
3.56661e-05
3.12365e-05
3.11069e-05
3.1659e-05
3.20415e-05
3.19679e-05
3.13481e-05
7.78069e-05
3.56739e-05
3.12389e-05
3.11083e-05
3.166e-05
3.20422e-05
3.19684e-05
3.13484e-05
7.89383e-05
7.99227e-05
3.60088e-05
7.93206e-05
3.59595e-05
3.14041e-05
3.12421e-05
3.17679e-05
7.93733e-05
3.59454e-05
3.13764e-05
3.12117e-05
3.17405e-05
3.20992e-05
3.20021e-05
3.13622e-05
7.92388e-05
3.59877e-05
3.13683e-05
3.11895e-05
3.17233e-05
3.20961e-05
3.20157e-05
3.1391e-05
7.84799e-05
3.57681e-05
3.12801e-05
3.11364e-05
3.16783e-05
3.20497e-05
3.19652e-05
3.13361e-05
7.87775e-05
3.5816e-05
3.13038e-05
3.11519e-05
3.16856e-05
3.20476e-05
3.1954e-05
3.13187e-05
7.88242e-05
3.58357e-05
3.13221e-05
3.11696e-05
3.17031e-05
3.20655e-05
3.19723e-05
3.13366e-05
7.9541e-05
3.59203e-05
3.13725e-05
3.1219e-05
3.17469e-05
3.20968e-05
3.19884e-05
3.13413e-05
7.91596e-05
3.58948e-05
3.13503e-05
3.11926e-05
3.17247e-05
3.20863e-05
3.19935e-05
3.13579e-05
7.92532e-05
3.58931e-05
3.13358e-05
3.11774e-05
3.17122e-05
3.20767e-05
3.19847e-05
3.13496e-05
7.91591e-05
3.5929e-05
3.13314e-05
3.11618e-05
3.17003e-05
3.2076e-05
3.19975e-05
3.13742e-05
7.8452e-05
3.57499e-05
3.12685e-05
3.11283e-05
3.16723e-05
3.20453e-05
3.19618e-05
3.13339e-05
7.87072e-05
3.57897e-05
3.12873e-05
3.11405e-05
3.16784e-05
3.20443e-05
3.1954e-05
3.13212e-05
7.87551e-05
3.58061e-05
3.12985e-05
3.11496e-05
3.16866e-05
3.20526e-05
3.19628e-05
3.13302e-05
7.92885e-05
3.58659e-05
3.13302e-05
3.1179e-05
3.17114e-05
3.20682e-05
3.19674e-05
3.13271e-05
7.90519e-05
3.58545e-05
3.13181e-05
3.11644e-05
3.17013e-05
3.20677e-05
3.19783e-05
3.13458e-05
7.91661e-05
3.58599e-05
3.13109e-05
3.11565e-05
3.16952e-05
3.20637e-05
3.19756e-05
3.13438e-05
7.91119e-05
3.58915e-05
3.13087e-05
3.11452e-05
3.16867e-05
3.20639e-05
3.19863e-05
3.13634e-05
7.84258e-05
3.57352e-05
3.12596e-05
3.11224e-05
3.16685e-05
3.20429e-05
3.19606e-05
3.13335e-05
7.86435e-05
3.57692e-05
3.12748e-05
3.11321e-05
3.16736e-05
3.20428e-05
3.19553e-05
3.13246e-05
7.86998e-05
3.5785e-05
3.12831e-05
3.11377e-05
3.1678e-05
3.20471e-05
3.19601e-05
3.13296e-05
7.91086e-05
3.58301e-05
3.1304e-05
3.11558e-05
3.16926e-05
3.20552e-05
3.19603e-05
3.13245e-05
7.89761e-05
3.58285e-05
3.12983e-05
3.11478e-05
3.16877e-05
3.20574e-05
3.19709e-05
3.13407e-05
7.90992e-05
3.58381e-05
3.12949e-05
3.11434e-05
3.16849e-05
3.20563e-05
3.19709e-05
3.13413e-05
7.90838e-05
3.58671e-05
3.12944e-05
3.11352e-05
3.16786e-05
3.20566e-05
3.19793e-05
3.13565e-05
7.83948e-05
3.57221e-05
3.12519e-05
3.11176e-05
3.16656e-05
3.20416e-05
3.19605e-05
3.13344e-05
7.85812e-05
3.57515e-05
3.12644e-05
3.11254e-05
3.16699e-05
3.2042e-05
3.1957e-05
3.1328e-05
7.86503e-05
3.5768e-05
3.12717e-05
3.11295e-05
3.16727e-05
3.20446e-05
3.19599e-05
3.13311e-05
7.89746e-05
3.58049e-05
3.12868e-05
3.11415e-05
3.16819e-05
3.2049e-05
3.19587e-05
3.13261e-05
7.89186e-05
3.58103e-05
3.12852e-05
3.11373e-05
3.16798e-05
3.20519e-05
3.19677e-05
3.13391e-05
7.90479e-05
3.58233e-05
3.12843e-05
3.11348e-05
3.16783e-05
3.20519e-05
3.19685e-05
3.13405e-05
7.90679e-05
3.58511e-05
3.12853e-05
3.1129e-05
3.16737e-05
3.20522e-05
3.19749e-05
3.13519e-05
7.83564e-05
3.57095e-05
3.12451e-05
3.11133e-05
3.16632e-05
3.20408e-05
3.1961e-05
3.13358e-05
7.85193e-05
3.57357e-05
3.12556e-05
3.11197e-05
3.16668e-05
3.20414e-05
3.19587e-05
3.13313e-05
7.86031e-05
3.57536e-05
3.12626e-05
3.11233e-05
3.16691e-05
3.20433e-05
3.19606e-05
3.13332e-05
7.88708e-05
3.57859e-05
3.12747e-05
3.11319e-05
3.16753e-05
3.2046e-05
3.19593e-05
3.13292e-05
7.88735e-05
3.57971e-05
3.1276e-05
3.11302e-05
3.16747e-05
3.20489e-05
3.19663e-05
3.13391e-05
7.90095e-05
3.58134e-05
3.12773e-05
3.11292e-05
3.16741e-05
3.20492e-05
3.19673e-05
3.13404e-05
7.90614e-05
3.58408e-05
3.12798e-05
3.11254e-05
3.16708e-05
3.20495e-05
3.1972e-05
3.13489e-05
7.83103e-05
3.56974e-05
3.12388e-05
3.11094e-05
3.16611e-05
3.20402e-05
3.19618e-05
3.13376e-05
7.84568e-05
3.57212e-05
3.1248e-05
3.11148e-05
3.16642e-05
3.2041e-05
3.19603e-05
3.13343e-05
7.85561e-05
3.57409e-05
3.12552e-05
3.11184e-05
3.16663e-05
3.20426e-05
3.19616e-05
3.13355e-05
7.87875e-05
3.57709e-05
3.12658e-05
3.11252e-05
3.1671e-05
3.20445e-05
3.19606e-05
3.13324e-05
7.88372e-05
3.57873e-05
3.12694e-05
3.11254e-05
3.16714e-05
3.20471e-05
3.1966e-05
3.13397e-05
7.89823e-05
3.58071e-05
3.12728e-05
3.11256e-05
3.16714e-05
3.20476e-05
3.19668e-05
3.13407e-05
7.90634e-05
3.5835e-05
3.12768e-05
3.11235e-05
3.16693e-05
3.20479e-05
3.19702e-05
3.13467e-05
7.82568e-05
3.56856e-05
3.12332e-05
3.11059e-05
3.16591e-05
3.20397e-05
3.19626e-05
3.13395e-05
7.83931e-05
3.57078e-05
3.12414e-05
3.11107e-05
3.1662e-05
3.20407e-05
3.19618e-05
3.13371e-05
7.8508e-05
3.57295e-05
3.12491e-05
3.11145e-05
3.16642e-05
3.20422e-05
3.19628e-05
3.13378e-05
7.87181e-05
3.57588e-05
3.1259e-05
3.11204e-05
3.16681e-05
3.20439e-05
3.19621e-05
3.13354e-05
7.88078e-05
3.578e-05
3.12649e-05
3.1122e-05
3.16693e-05
3.20462e-05
3.19661e-05
3.13405e-05
7.8965e-05
3.58036e-05
3.12702e-05
3.11235e-05
3.16699e-05
3.20468e-05
3.19667e-05
3.13411e-05
7.90739e-05
3.58328e-05
3.12758e-05
3.1123e-05
3.16687e-05
3.2047e-05
3.1969e-05
3.13451e-05
7.81969e-05
3.5675e-05
3.12286e-05
3.1103e-05
3.16573e-05
3.20393e-05
3.19635e-05
3.13414e-05
7.83282e-05
3.56959e-05
3.12361e-05
3.11073e-05
3.16601e-05
3.20405e-05
3.19631e-05
3.13397e-05
7.84586e-05
3.57195e-05
3.12442e-05
3.11115e-05
3.16626e-05
3.20421e-05
3.1964e-05
3.13399e-05
7.86586e-05
3.57489e-05
3.12541e-05
3.1117e-05
3.16662e-05
3.20437e-05
3.19636e-05
3.1338e-05
7.87839e-05
3.57749e-05
3.12619e-05
3.112e-05
3.16681e-05
3.20459e-05
3.19665e-05
3.13414e-05
7.89567e-05
3.58025e-05
3.12693e-05
3.11226e-05
3.16693e-05
3.20465e-05
3.19668e-05
3.13415e-05
7.90935e-05
3.5834e-05
3.12767e-05
3.11238e-05
3.16691e-05
3.20468e-05
3.19682e-05
3.13439e-05
7.8134e-05
3.56672e-05
3.12257e-05
3.11009e-05
3.16559e-05
3.20389e-05
3.19644e-05
3.13433e-05
7.82636e-05
3.56865e-05
3.12325e-05
3.1105e-05
3.16588e-05
3.20405e-05
3.19644e-05
3.1342e-05
7.84089e-05
3.57117e-05
3.12411e-05
3.11096e-05
3.16617e-05
3.20422e-05
3.19651e-05
3.13418e-05
7.86069e-05
3.57417e-05
3.12512e-05
3.11152e-05
3.16653e-05
3.2044e-05
3.19651e-05
3.13403e-05
7.87659e-05
3.57724e-05
3.12609e-05
3.11194e-05
3.16678e-05
3.20461e-05
3.19671e-05
3.13422e-05
7.89573e-05
3.58043e-05
3.12703e-05
3.11232e-05
3.16697e-05
3.20469e-05
3.19671e-05
3.13417e-05
7.91235e-05
3.58391e-05
3.12798e-05
3.11259e-05
3.16704e-05
3.20473e-05
3.19678e-05
3.13427e-05
7.80753e-05
3.56656e-05
3.12255e-05
3.11001e-05
3.16552e-05
3.20388e-05
3.19651e-05
3.13449e-05
7.82041e-05
3.56824e-05
3.12316e-05
3.11042e-05
3.16583e-05
3.20407e-05
3.19656e-05
3.13439e-05
7.83631e-05
3.57084e-05
3.12406e-05
3.11092e-05
3.16616e-05
3.20427e-05
3.19662e-05
3.13435e-05
7.85644e-05
3.57385e-05
3.12508e-05
3.11151e-05
3.16656e-05
3.20448e-05
3.19665e-05
3.13421e-05
7.87558e-05
3.57735e-05
3.12623e-05
3.11205e-05
3.16688e-05
3.20469e-05
3.19678e-05
3.13428e-05
7.8969e-05
3.58097e-05
3.12737e-05
3.11256e-05
3.16713e-05
3.20479e-05
3.19676e-05
3.13417e-05
7.91668e-05
3.58486e-05
3.12855e-05
3.11299e-05
3.16729e-05
3.20484e-05
3.19676e-05
3.13415e-05
7.80203e-05
3.56691e-05
3.12281e-05
3.11011e-05
3.16555e-05
3.20391e-05
3.19659e-05
3.13463e-05
7.81553e-05
3.56862e-05
3.12344e-05
3.11055e-05
3.16589e-05
3.20413e-05
3.19666e-05
3.13454e-05
7.83275e-05
3.57126e-05
3.12437e-05
3.1111e-05
3.16628e-05
3.20437e-05
3.19674e-05
3.13447e-05
7.85363e-05
3.57415e-05
3.1254e-05
3.11174e-05
3.16673e-05
3.20463e-05
3.19679e-05
3.13434e-05
7.87582e-05
3.57806e-05
3.12672e-05
3.11241e-05
3.16713e-05
3.20486e-05
3.19688e-05
3.13431e-05
7.89962e-05
3.58205e-05
3.12805e-05
3.11304e-05
3.16746e-05
3.20499e-05
3.19683e-05
3.13414e-05
7.92277e-05
3.58641e-05
3.12948e-05
3.11364e-05
3.16771e-05
3.20504e-05
3.19676e-05
3.134e-05
7.79645e-05
3.5676e-05
3.12337e-05
3.11044e-05
3.16575e-05
3.20405e-05
3.1967e-05
3.13473e-05
7.81103e-05
3.56947e-05
3.12406e-05
3.11093e-05
3.16613e-05
3.2043e-05
3.19679e-05
3.13465e-05
7.82989e-05
3.57222e-05
3.12506e-05
3.11157e-05
3.1666e-05
3.20459e-05
3.19688e-05
3.13456e-05
7.85262e-05
3.57533e-05
3.1262e-05
3.1123e-05
3.16712e-05
3.2049e-05
3.19695e-05
3.13441e-05
7.8776e-05
3.57947e-05
3.12766e-05
3.11309e-05
3.16761e-05
3.20516e-05
3.19701e-05
3.1343e-05
7.90439e-05
3.58386e-05
3.12921e-05
3.11388e-05
3.16804e-05
3.20532e-05
3.19694e-05
3.13406e-05
7.93124e-05
3.58878e-05
3.13093e-05
3.11465e-05
3.16837e-05
3.20538e-05
3.19681e-05
3.1338e-05
7.79104e-05
3.56874e-05
3.12438e-05
3.11117e-05
3.16626e-05
3.2044e-05
3.19691e-05
3.13481e-05
7.80708e-05
3.57085e-05
3.12517e-05
3.11174e-05
3.16671e-05
3.20469e-05
3.19701e-05
3.13473e-05
7.828e-05
3.57381e-05
3.12629e-05
3.11248e-05
3.16726e-05
3.20503e-05
3.19713e-05
3.13462e-05
7.85318e-05
3.57726e-05
3.1276e-05
3.11335e-05
3.16788e-05
3.2054e-05
3.19721e-05
3.13445e-05
7.8814e-05
3.58172e-05
3.12925e-05
3.1143e-05
3.16849e-05
3.20571e-05
3.19725e-05
3.13426e-05
7.91184e-05
3.58665e-05
3.13109e-05
3.11528e-05
3.16902e-05
3.2059e-05
3.19714e-05
3.13395e-05
7.94314e-05
3.59238e-05
3.13317e-05
3.11626e-05
3.16946e-05
3.20597e-05
3.19696e-05
3.13359e-05
7.99427e-05
3.59857e-05
3.13202e-05
3.11452e-05
3.16885e-05
3.20703e-05
3.19973e-05
3.13789e-05
8.03273e-05
3.59353e-05
3.13201e-05
3.11652e-05
3.17054e-05
3.20712e-05
3.19787e-05
3.13464e-05
8.03148e-05
3.59462e-05
3.13396e-05
3.11905e-05
3.17361e-05
3.21086e-05
3.20242e-05
3.14005e-05
8.12797e-05
3.59953e-05
3.14011e-05
3.12765e-05
3.18263e-05
3.21863e-05
3.20855e-05
3.14621e-05
7.98899e-05
3.58997e-05
3.13273e-05
3.11821e-05
3.17271e-05
3.20978e-05
3.20109e-05
3.13834e-05
7.98766e-05
3.58745e-05
3.1305e-05
3.11557e-05
3.16919e-05
3.20515e-05
3.19535e-05
3.13175e-05
7.92194e-05
3.58275e-05
3.12884e-05
3.11434e-05
3.16892e-05
3.20638e-05
3.19811e-05
3.13538e-05
7.9716e-05
3.59575e-05
3.13065e-05
3.11324e-05
3.16756e-05
3.20578e-05
3.19857e-05
3.13683e-05
7.99343e-05
3.58915e-05
3.1297e-05
3.11442e-05
3.16873e-05
3.20581e-05
3.19711e-05
3.13423e-05
7.98638e-05
3.58934e-05
3.13076e-05
3.11574e-05
3.17021e-05
3.20751e-05
3.19914e-05
3.1366e-05
8.04922e-05
3.59115e-05
3.13368e-05
3.12018e-05
3.17458e-05
3.21054e-05
3.20041e-05
3.13712e-05
7.95088e-05
3.58537e-05
3.12973e-05
3.11502e-05
3.16937e-05
3.2065e-05
3.19792e-05
3.13515e-05
7.94969e-05
3.58318e-05
3.12842e-05
3.11384e-05
3.16789e-05
3.20446e-05
3.19525e-05
3.13203e-05
7.89822e-05
3.5795e-05
3.12716e-05
3.11288e-05
3.16762e-05
3.20528e-05
3.19724e-05
3.1347e-05
7.95676e-05
3.59354e-05
3.12972e-05
3.11249e-05
3.16683e-05
3.20504e-05
3.19784e-05
3.13611e-05
7.96723e-05
3.58651e-05
3.12836e-05
3.11318e-05
3.16767e-05
3.20509e-05
3.19676e-05
3.13412e-05
7.95744e-05
3.58618e-05
3.12896e-05
3.11393e-05
3.16845e-05
3.20592e-05
3.19772e-05
3.13521e-05
7.99724e-05
3.5864e-05
3.13027e-05
3.11627e-05
3.17058e-05
3.20693e-05
3.19729e-05
3.13399e-05
7.92638e-05
3.58255e-05
3.12807e-05
3.11337e-05
3.16781e-05
3.20512e-05
3.19677e-05
3.13409e-05
7.92386e-05
3.58047e-05
3.12717e-05
3.11284e-05
3.16721e-05
3.20422e-05
3.19547e-05
3.13253e-05
7.88322e-05
3.57742e-05