/*--------------------------------*- C++ -*----------------------------------*\
| =========                 |                                                 |
| \\      /  F ield         | OpenFOAM: The Open Source CFD Toolbox           |
|  \\    /   O peration     | Version:  plus.master.MPPICInterFoam            |
|   \\  /    A nd           | Web:      www.OpenFOAM.com                      |
|    \\/     M anipulation  |                                                 |
\*---------------------------------------------------------------------------*/
FoamFile
{
    version     2.0;
    format      ascii;
    class       volScalarField;
    location    "5";
    object      p;
}
// * * * * * * * * * * * * * * * * * * * * * * * * * * * * * * * * * * * * * //

dimensions      [1 -1 -2 0 0 0 0];

internalField   nonuniform List<scalar> 
11821
(
3942.36
3942.36
3942.36
3942.36
3942.36
3942.36
3942.36
3942.36
3942.34
3942.34
3942.34
3942.34
3942.34
3942.34
3942.34
3942.34
3942.32
3942.32
3942.32
3942.32
3942.32
3942.32
3942.32
3942.32
3942.31
3942.31
3942.31
3942.31
3942.31
3942.31
3942.31
3942.31
3942.31
3942.31
3942.31
3942.31
3942.31
3942.31
3942.31
3942.31
3942.31
3942.31
3942.31
3942.31
3942.31
3942.31
3942.31
3942.31
3942.33
3942.33
3942.33
3942.33
3942.33
3942.33
3942.33
3942.33
3845.2
3845.2
3845.2
3845.2
3845.2
3845.2
3845.2
3845.2
3845.18
3845.18
3845.18
3845.18
3845.18
3845.18
3845.18
3845.18
3845.17
3845.17
3845.17
3845.17
3845.17
3845.17
3845.17
3845.17
3845.16
3845.16
3845.16
3845.16
3845.16
3845.16
3845.16
3845.16
3845.16
3845.16
3845.16
3845.16
3845.16
3845.16
3845.16
3845.16
3845.16
3845.16
3845.16
3845.16
3845.16
3845.16
3845.16
3845.16
3845.17
3845.17
3845.17
3845.17
3845.17
3845.17
3845.17
3845.17
3748.04
3748.04
3748.04
3748.04
3748.04
3748.04
3748.04
3748.04
3748.02
3748.02
3748.02
3748.02
3748.02
3748.02
3748.02
3748.02
3748.01
3748.01
3748.01
3748.01
3748.01
3748.01
3748.01
3748.01
3748
3748
3748
3748
3748
3748
3748
3748
3748
3748
3748
3748
3748
3748
3748
3748
3748
3748
3748
3748
3748
3748
3748
3748
3748.01
3748.01
3748.01
3748.01
3748.01
3748.01
3748.01
3748.01
3650.87
3650.87
3650.87
3650.87
3650.87
3650.87
3650.87
3650.87
3650.86
3650.86
3650.86
3650.86
3650.86
3650.86
3650.86
3650.86
3650.85
3650.85
3650.85
3650.85
3650.85
3650.84
3650.84
3650.84
3650.84
3650.84
3650.84
3650.84
3650.84
3650.84
3650.84
3650.84
3650.84
3650.84
3650.84
3650.84
3650.84
3650.84
3650.83
3650.83
3650.84
3650.84
3650.84
3650.84
3650.84
3650.84
3650.84
3650.84
3650.84
3650.84
3650.84
3650.84
3650.84
3650.84
3650.85
3650.85
3553.7
3553.7
3553.7
3553.7
3553.7
3553.7
3553.7
3553.7
3553.69
3553.69
3553.69
3553.69
3553.69
3553.69
3553.69
3553.69
3553.68
3553.68
3553.68
3553.68
3553.68
3553.68
3553.68
3553.67
3553.67
3553.67
3553.67
3553.67
3553.67
3553.67
3553.67
3553.67
3553.67
3553.67
3553.67
3553.67
3553.67
3553.67
3553.67
3553.67
3553.67
3553.67
3553.67
3553.67
3553.67
3553.67
3553.67
3553.67
3553.67
3553.67
3553.67
3553.67
3553.67
3553.67
3553.67
3553.67
3456.53
3456.53
3456.53
3456.53
3456.53
3456.53
3456.52
3456.52
3456.52
3456.52
3456.52
3456.51
3456.51
3456.51
3456.51
3456.51
3456.51
3456.51
3456.51
3456.5
3456.5
3456.5
3456.5
3456.5
3456.5
3456.5
3456.5
3456.5
3456.5
3456.49
3456.49
3456.49
3456.5
3456.5
3456.5
3456.49
3456.49
3456.49
3456.49
3456.49
3456.5
3456.5
3456.5
3456.49
3456.49
3456.49
3456.49
3456.49
3456.5
3456.5
3456.5
3456.5
3456.5
3456.5
3456.5
3456.5
3359.35
3359.35
3359.35
3359.35
3359.35
3359.35
3359.34
3359.34
3359.34
3359.34
3359.34
3359.34
3359.34
3359.33
3359.33
3359.33
3359.33
3359.33
3359.33
3359.33
3359.33
3359.32
3359.32
3359.32
3359.32
3359.32
3359.32
3359.32
3359.32
3359.32
3359.32
3359.31
3359.32
3359.32
3359.32
3359.32
3359.31
3359.31
3359.31
3359.31
3359.32
3359.32
3359.32
3359.32
3359.31
3359.31
3359.31
3359.31
3359.32
3359.32
3359.32
3359.32
3359.32
3359.32
3359.31
3359.31
3262.17
3262.17
3262.17
3262.17
3262.16
3262.16
3262.16
3262.16
3262.16
3262.16
3262.16
3262.15
3262.15
3262.15
3262.15
3262.15
3262.15
3262.15
3262.15
3262.15
3262.14
3262.14
3262.14
3262.14
3262.14
3262.14
3262.14
3262.14
3262.14
3262.14
3262.13
3262.13
3262.14
3262.14
3262.14
3262.13
3262.13
3262.13
3262.13
3262.13
3262.14
3262.14
3262.13
3262.13
3262.13
3262.13
3262.13
3262.13
3262.14
3262.14
3262.14
3262.13
3262.13
3262.13
3262.13
3262.13
3164.98
3164.98
3164.98
3164.98
3164.98
3164.98
3164.98
3164.98
3164.97
3164.97
3164.97
3164.97
3164.97
3164.97
3164.97
3164.97
3164.96
3164.96
3164.96
3164.96
3164.96
3164.96
3164.96
3164.96
3164.96
3164.96
3164.96
3164.95
3164.95
3164.95
3164.95
3164.95
3164.95
3164.95
3164.95
3164.95
3164.95
3164.95
3164.95
3164.95
3164.95
3164.95
3164.95
3164.95
3164.95
3164.94
3164.94
3164.94
3164.95
3164.95
3164.95
3164.95
3164.95
3164.94
3164.94
3164.94
3067.8
3067.8
3067.8
3067.8
3067.8
3067.8
3067.8
3067.8
3067.79
3067.79
3067.79
3067.79
3067.79
3067.79
3067.79
3067.79
3067.78
3067.78
3067.78
3067.78
3067.78
3067.78
3067.78
3067.78
3067.77
3067.77
3067.77
3067.77
3067.77
3067.77
3067.77
3067.77
3067.77
3067.76
3067.76
3067.76
3067.76
3067.76
3067.76
3067.76
3067.76
3067.76
3067.76
3067.76
3067.76
3067.76
3067.76
3067.76
3067.76
3067.76
3067.76
3067.76
3067.76
3067.76
3067.76
3067.76
2970.61
2970.61
2970.61
2970.61
2970.61
2970.61
2970.61
2970.61
2970.6
2970.6
2970.6
2970.6
2970.6
2970.6
2970.6
2970.6
2970.59
2970.59
2970.59
2970.59
2970.59
2970.59
2970.59
2970.59
2970.58
2970.58
2970.58
2970.58
2970.58
2970.58
2970.58
2970.58
2970.58
2970.58
2970.58
2970.58
2970.58
2970.58
2970.58
2970.58
2970.57
2970.57
2970.57
2970.57
2970.57
2970.57
2970.57
2970.57
2970.57
2970.57
2970.57
2970.57
2970.57
2970.57
2970.57
2970.57
2873.43
2873.43
2873.43
2873.43
2873.43
2873.43
2873.43
2873.43
2873.41
2873.41
2873.42
2873.42
2873.42
2873.42
2873.41
2873.41
2873.41
2873.41
2873.41
2873.41
2873.4
2873.4
2873.4
2873.4
2873.4
2873.4
2873.4
2873.4
2873.4
2873.4
2873.39
2873.39
2873.39
2873.39
2873.39
2873.39
2873.39
2873.39
2873.39
2873.39
2873.39
2873.39
2873.38
2873.38
2873.38
2873.38
2873.38
2873.38
2873.38
2873.38
2873.38
2873.38
2873.38
2873.38
2873.38
2873.38
2776.24
2776.24
2776.24
2776.24
2776.24
2776.24
2776.24
2776.24
2776.23
2776.23
2776.23
2776.23
2776.23
2776.23
2776.23
2776.23
2776.22
2776.22
2776.22
2776.22
2776.22
2776.22
2776.21
2776.21
2776.21
2776.21
2776.21
2776.21
2776.21
2776.21
2776.2
2776.2
2776.2
2776.2
2776.2
2776.2
2776.2
2776.2
2776.2
2776.2
2776.2
2776.19
2776.19
2776.19
2776.19
2776.19
2776.19
2776.19
2776.19
2776.19
2776.19
2776.19
2776.19
2776.19
2776.18
2776.18
2679.06
2679.06
2679.06
2679.05
2679.05
2679.05
2679.05
2679.05
2679.04
2679.04
2679.04
2679.04
2679.04
2679.04
2679.04
2679.04
2679.03
2679.03
2679.03
2679.03
2679.03
2679.03
2679.03
2679.03
2679.02
2679.02
2679.02
2679.02
2679.02
2679.02
2679.02
2679.01
2679.01
2679.01
2679.01
2679.01
2679.01
2679.01
2679.01
2679.01
2679
2679
2679
2679
2679
2679
2679
2679
2679
2679
2679
2679
2679
2678.99
2678.99
2678.99
3942.45
3942.45
3942.45
3942.45
3942.45
3942.45
3942.46
3942.46
3942.48
3942.48
3942.48
3942.48
3942.49
3942.5
3942.51
3942.51
3942.47
3942.48
3942.48
3942.48
3942.49
3942.52
3942.53
3942.47
3845.29
3845.29
3845.29
3845.29
3845.29
3845.29
3845.29
3845.29
3845.31
3845.31
3845.31
3845.31
3845.32
3845.32
3845.33
3845.34
3845.31
3845.31
3845.31
3845.31
3845.32
3845.32
3845.32
3845.33
3845.35
3845.35
3845.36
3845.37
3845.38
3845.39
3845.41
3845.43
3845.31
3845.32
3845.32
3845.32
3845.32
3845.33
3845.33
3845.33
3845.33
3845.33
3845.33
3845.34
3845.34
3845.35
3845.35
3845.36
3845.31
3845.31
3845.31
3845.31
3845.32
3845.32
3845.32
3845.32
3748.12
3748.12
3748.12
3748.12
3748.12
3748.12
3748.12
3748.12
3748.14
3748.14
3748.14
3748.14
3748.14
3748.15
3748.15
3748.16
3748.14
3748.14
3748.14
3748.14
3748.14
3748.14
3748.14
3748.15
3748.17
3748.17
3748.17
3748.18
3748.19
3748.2
3748.21
3748.22
3748.14
3748.14
3748.15
3748.15
3748.15
3748.15
3748.15
3748.16
3748.16
3748.16
3748.16
3748.16
3748.17
3748.17
3748.18
3748.18
3748.14
3748.14
3748.14
3748.14
3748.14
3748.15
3748.15
3748.15
3650.94
3650.94
3650.94
3650.94
3650.94
3650.94
3650.95
3650.95
3650.96
3650.96
3650.96
3650.96
3650.96
3650.97
3650.97
3650.97
3650.96
3650.96
3650.96
3650.96
3650.96
3650.96
3650.96
3650.97
3650.98
3650.98
3650.99
3650.99
3651
3651.01
3651.01
3651.02
3650.97
3650.97
3650.97
3650.97
3650.97
3650.97
3650.97
3650.98
3650.98
3650.98
3650.98
3650.98
3650.99
3650.99
3650.99
3651
3650.96
3650.97
3650.97
3650.97
3650.97
3650.97
3650.97
3650.97
3553.76
3553.76
3553.76
3553.76
3553.76
3553.76
3553.76
3553.76
3553.78
3553.78
3553.78
3553.78
3553.78
3553.78
3553.78
3553.79
3553.78
3553.78
3553.78
3553.78
3553.78
3553.78
3553.78
3553.78
3553.8
3553.8
3553.8
3553.8
3553.81
3553.81
3553.82
3553.82
3553.79
3553.79
3553.79
3553.79
3553.79
3553.79
3553.79
3553.79
3553.8
3553.8
3553.8
3553.8
3553.8
3553.8
3553.81
3553.81
3553.79
3553.79
3553.79
3553.79
3553.79
3553.79
3553.79
3553.79
3456.58
3456.58
3456.58
3456.58
3456.58
3456.58
3456.58
3456.58
3456.59
3456.59
3456.59
3456.59
3456.59
3456.59
3456.6
3456.6
3456.59
3456.59
3456.59
3456.59
3456.59
3456.59
3456.59
3456.6
3456.61
3456.61
3456.61
3456.61
3456.62
3456.62
3456.62
3456.63
3456.6
3456.6
3456.6
3456.6
3456.6
3456.6
3456.6
3456.6
3456.61
3456.61
3456.61
3456.61
3456.61
3456.62
3456.62
3456.62
3456.6
3456.6
3456.6
3456.6
3456.61
3456.61
3456.61
3456.61
3359.39
3359.39
3359.39
3359.39
3359.39
3359.39
3359.39
3359.39
3359.4
3359.4
3359.4
3359.4
3359.4
3359.4
3359.41
3359.41
3359.41
3359.41
3359.41
3359.41
3359.41
3359.41
3359.41
3359.41
3359.42
3359.42
3359.42
3359.42
3359.42
3359.43
3359.43
3359.43
3359.42
3359.42
3359.42
3359.42
3359.42
3359.42
3359.42
3359.42
3359.42
3359.42
3359.42
3359.42
3359.43
3359.43
3359.43
3359.43
3359.42
3359.42
3359.42
3359.42
3359.42
3359.42
3359.42
3359.42
3262.2
3262.2
3262.2
3262.2
3262.2
3262.2
3262.2
3262.2
3262.21
3262.21
3262.21
3262.21
3262.21
3262.21
3262.21
3262.21
3262.22
3262.22
3262.22
3262.22
3262.22
3262.22
3262.22
3262.22
3262.23
3262.23
3262.23
3262.23
3262.23
3262.23
3262.24
3262.24
3262.23
3262.23
3262.23
3262.23
3262.23
3262.23
3262.23
3262.23
3262.23
3262.23
3262.24
3262.24
3262.24
3262.24
3262.24
3262.24
3262.23
3262.23
3262.23
3262.23
3262.23
3262.23
3262.23
3262.23
3165.01
3165.01
3165.01
3165.01
3165.01
3165.01
3165.01
3165.01
3165.02
3165.02
3165.02
3165.02
3165.02
3165.02
3165.02
3165.02
3165.03
3165.03
3165.03
3165.03
3165.03
3165.03
3165.03
3165.03
3165.04
3165.04
3165.04
3165.04
3165.04
3165.04
3165.04
3165.04
3165.04
3165.04
3165.04
3165.04
3165.04
3165.04
3165.04
3165.04
3165.04
3165.04
3165.04
3165.05
3165.05
3165.05
3165.05
3165.05
3165.04
3165.04
3165.04
3165.04
3165.04
3165.04
3165.04
3165.04
3067.82
3067.82
3067.82
3067.82
3067.82
3067.82
3067.82
3067.82
3067.83
3067.83
3067.83
3067.83
3067.83
3067.83
3067.83
3067.83
3067.83
3067.83
3067.83
3067.84
3067.84
3067.84
3067.84
3067.84
3067.84
3067.85
3067.85
3067.85
3067.85
3067.85
3067.85
3067.85
3067.85
3067.85
3067.85
3067.85
3067.85
3067.85
3067.85
3067.85
3067.85
3067.85
3067.85
3067.86
3067.86
3067.86
3067.86
3067.86
3067.85
3067.85
3067.85
3067.85
3067.85
3067.85
3067.86
3067.86
2970.62
2970.62
2970.63
2970.63
2970.63
2970.63
2970.63
2970.63
2970.64
2970.64
2970.64
2970.64
2970.64
2970.64
2970.64
2970.64
2970.64
2970.64
2970.64
2970.64
2970.65
2970.65
2970.65
2970.65
2970.65
2970.65
2970.66
2970.66
2970.66
2970.66
2970.66
2970.66
2970.66
2970.66
2970.66
2970.66
2970.66
2970.66
2970.66
2970.66
2970.66
2970.66
2970.66
2970.67
2970.67
2970.67
2970.67
2970.67
2970.66
2970.66
2970.66
2970.67
2970.67
2970.67
2970.67
2970.67
2873.43
2873.44
2873.44
2873.44
2873.44
2873.44
2873.43
2873.43
2873.45
2873.45
2873.45
2873.45
2873.45
2873.45
2873.45
2873.45
2873.45
2873.45
2873.46
2873.46
2873.46
2873.46
2873.46
2873.46
2873.46
2873.47
2873.47
2873.47
2873.47
2873.47
2873.47
2873.47
2873.47
2873.47
2873.47
2873.47
2873.47
2873.47
2873.47
2873.48
2873.47
2873.48
2873.48
2873.48
2873.48
2873.48
2873.48
2873.48
2873.48
2873.48
2873.48
2873.48
2873.48
2873.48
2873.48
2873.48
2776.24
2776.24
2776.24
2776.24
2776.24
2776.24
2776.24
2776.24
2776.26
2776.26
2776.26
2776.26
2776.25
2776.25
2776.25
2776.25
2776.27
2776.27
2776.27
2776.27
2776.27
2776.26
2776.26
2776.26
2776.28
2776.28
2776.28
2776.28
2776.28
2776.28
2776.28
2776.28
2776.28
2776.28
2776.28
2776.28
2776.28
2776.28
2776.28
2776.28
2776.29
2776.29
2776.29
2776.29
2776.29
2776.29
2776.29
2776.29
2776.29
2776.29
2776.29
2776.29
2776.29
2776.29
2776.3
2776.29
2679.05
2679.05
2679.05
2679.05
2679.05
2679.05
2679.05
2679.04
2679.06
2679.06
2679.06
2679.06
2679.06
2679.06
2679.06
2679.06
2679.08
2679.08
2679.08
2679.07
2679.07
2679.07
2679.07
2679.07
2679.09
2679.09
2679.09
2679.09
2679.09
2679.09
2679.09
2679.09
2679.09
2679.09
2679.09
2679.09
2679.09
2679.09
2679.09
2679.09
2679.1
2679.1
2679.1
2679.1
2679.1
2679.1
2679.1
2679.1
2679.1
2679.1
2679.11
2679.11
2679.11
2679.11
2679.11
2679.11
3942.53
3942.5
3942.5
3942.44
3942.44
3942.43
3942.42
3942.39
3942.42
3942.42
3942.42
3942.42
3942.41
3942.41
3942.41
3942.41
3942.39
3942.39
3942.39
3942.39
3942.39
3942.39
3942.39
3942.39
3845.31
3845.31
3845.31
3845.31
3845.31
3845.32
3845.32
3845.32
3845.32
3845.31
3845.31
3845.31
3845.31
3845.31
3845.31
3845.31
3845.31
3845.31
3845.31
3845.3
3845.3
3845.3
3845.3
3845.3
3845.29
3845.3
3845.3
3845.3
3845.3
3845.3
3845.31
3845.32
3845.27
3845.27
3845.27
3845.27
3845.26
3845.25
3845.25
3845.25
3845.25
3845.25
3845.25
3845.26
3845.26
3845.26
3845.26
3845.26
3845.22
3845.22
3845.22
3845.22
3845.22
3845.22
3845.22
3845.22
3748.14
3748.14
3748.14
3748.14
3748.14
3748.14
3748.15
3748.15
3748.13
3748.13
3748.13
3748.13
3748.13
3748.14
3748.14
3748.14
3748.12
3748.12
3748.12
3748.12
3748.12
3748.12
3748.12
3748.13
3748.11
3748.11
3748.12
3748.12
3748.12
3748.12
3748.13
3748.13
3748.09
3748.09
3748.1
3748.1
3748.1
3748.1
3748.1
3748.1
3748.08
3748.08
3748.08
3748.08
3748.08
3748.08
3748.09
3748.09
3748.06
3748.06
3748.06
3748.06
3748.06
3748.06
3748.06
3748.06
3650.96
3650.96
3650.96
3650.97
3650.97
3650.97
3650.97
3650.97
3650.95
3650.95
3650.96
3650.96
3650.96
3650.96
3650.96
3650.96
3650.94
3650.94
3650.94
3650.95
3650.95
3650.95
3650.95
3650.95
3650.94
3650.94
3650.94
3650.94
3650.94
3650.95
3650.95
3650.95
3650.92
3650.92
3650.92
3650.92
3650.92
3650.92
3650.92
3650.93
3650.9
3650.9
3650.91
3650.91
3650.91
3650.91
3650.91
3650.91
3650.89
3650.89
3650.89
3650.89
3650.89
3650.89
3650.89
3650.89
3553.78
3553.78
3553.78
3553.79
3553.79
3553.79
3553.79
3553.79
3553.78
3553.78
3553.78
3553.78
3553.78
3553.78
3553.78
3553.78
3553.77
3553.77
3553.77
3553.77
3553.77
3553.77
3553.77
3553.77
3553.76
3553.76
3553.76
3553.76
3553.76
3553.76
3553.77
3553.77
3553.74
3553.74
3553.74
3553.74
3553.75
3553.75
3553.75
3553.75
3553.73
3553.73
3553.73
3553.73
3553.73
3553.73
3553.74
3553.74
3553.71
3553.71
3553.72
3553.72
3553.72
3553.72
3553.72
3553.72
3456.6
3456.6
3456.6
3456.6
3456.6
3456.6
3456.6
3456.6
3456.59
3456.59
3456.6
3456.6
3456.6
3456.6
3456.6
3456.6
3456.59
3456.59
3456.59
3456.59
3456.59
3456.59
3456.59
3456.59
3456.58
3456.58
3456.58
3456.58
3456.58
3456.58
3456.58
3456.58
3456.56
3456.56
3456.56
3456.56
3456.56
3456.56
3456.56
3456.57
3456.55
3456.55
3456.55
3456.55
3456.55
3456.55
3456.55
3456.55
3456.54
3456.54
3456.54
3456.54
3456.54
3456.54
3456.54
3456.54
3359.42
3359.42
3359.42
3359.42
3359.42
3359.42
3359.42
3359.42
3359.41
3359.41
3359.41
3359.41
3359.41
3359.41
3359.41
3359.41
3359.4
3359.4
3359.4
3359.4
3359.4
3359.4
3359.4
3359.4
3359.4
3359.4
3359.4
3359.4
3359.4
3359.4
3359.4
3359.4
3359.38
3359.38
3359.38
3359.38
3359.38
3359.38
3359.38
3359.38
3359.37
3359.37
3359.37
3359.37
3359.37
3359.37
3359.37
3359.37
3359.36
3359.36
3359.36
3359.36
3359.36
3359.36
3359.36
3359.36
3262.23
3262.23
3262.23
3262.23
3262.23
3262.23
3262.23
3262.23
3262.23
3262.23
3262.23
3262.22
3262.22
3262.22
3262.22
3262.22
3262.22
3262.22
3262.22
3262.22
3262.22
3262.22
3262.22
3262.22
3262.21
3262.21
3262.21
3262.21
3262.21
3262.21
3262.21
3262.21
3262.2
3262.2
3262.2
3262.2
3262.2
3262.2
3262.2
3262.2
3262.19
3262.19
3262.19
3262.19
3262.19
3262.19
3262.19
3262.19
3262.18
3262.18
3262.18
3262.18
3262.17
3262.17
3262.17
3262.17
3165.04
3165.04
3165.04
3165.04
3165.04
3165.04
3165.04
3165.04
3165.04
3165.04
3165.04
3165.04
3165.04
3165.04
3165.04
3165.04
3165.03
3165.03
3165.03
3165.03
3165.03
3165.03
3165.03
3165.03
3165.02
3165.02
3165.02
3165.02
3165.02
3165.02
3165.03
3165.03
3165.01
3165.01
3165.01
3165.01
3165.01
3165.01
3165.01
3165.02
3165
3165
3165
3165
3165
3165
3165
3165
3164.99
3164.99
3164.99
3164.99
3164.99
3164.99
3164.99
3164.99
3067.85
3067.85
3067.85
3067.85
3067.85
3067.85
3067.86
3067.86
3067.85
3067.85
3067.85
3067.85
3067.85
3067.85
3067.85
3067.85
3067.84
3067.84
3067.84
3067.84
3067.84
3067.85
3067.85
3067.85
3067.84
3067.84
3067.84
3067.84
3067.84
3067.84
3067.84
3067.84
3067.83
3067.83
3067.83
3067.83
3067.83
3067.83
3067.83
3067.83
3067.82
3067.82
3067.82
3067.82
3067.82
3067.82
3067.82
3067.82
3067.81
3067.81
3067.81
3067.81
3067.81
3067.81
3067.81
3067.81
2970.66
2970.66
2970.66
2970.67
2970.67
2970.67
2970.67
2970.67
2970.66
2970.66
2970.66
2970.66
2970.66
2970.67
2970.67
2970.67
2970.65
2970.66
2970.66
2970.66
2970.66
2970.66
2970.66
2970.66
2970.65
2970.65
2970.65
2970.65
2970.65
2970.66
2970.66
2970.66
2970.64
2970.64
2970.64
2970.64
2970.65
2970.65
2970.65
2970.65
2970.63
2970.63
2970.63
2970.63
2970.64
2970.64
2970.64
2970.64
2970.62
2970.62
2970.62
2970.62
2970.62
2970.62
2970.63
2970.63
2873.48
2873.48
2873.48
2873.48
2873.48
2873.48
2873.48
2873.49
2873.47
2873.47
2873.48
2873.48
2873.48
2873.48
2873.48
2873.48
2873.47
2873.47
2873.47
2873.47
2873.48
2873.48
2873.48
2873.48
2873.46
2873.46
2873.47
2873.47
2873.47
2873.47
2873.47
2873.47
2873.46
2873.46
2873.46
2873.46
2873.46
2873.46
2873.46
2873.46
2873.45
2873.45
2873.45
2873.45
2873.45
2873.45
2873.45
2873.45
2873.44
2873.44
2873.44
2873.44
2873.44
2873.44
2873.44
2873.44
2776.29
2776.29
2776.29
2776.29
2776.3
2776.3
2776.3
2776.3
2776.29
2776.29
2776.29
2776.29
2776.29
2776.3
2776.3
2776.3
2776.29
2776.29
2776.29
2776.29
2776.29
2776.29
2776.29
2776.29
2776.28
2776.28
2776.28
2776.28
2776.28
2776.29
2776.29
2776.29
2776.27
2776.27
2776.27
2776.27
2776.28
2776.28
2776.28
2776.28
2776.26
2776.26
2776.26
2776.26
2776.26
2776.27
2776.26
2776.26
2776.25
2776.25
2776.25
2776.25
2776.25
2776.25
2776.25
2776.25
2679.11
2679.11
2679.11
2679.11
2679.11
2679.11
2679.11
2679.11
2679.11
2679.11
2679.11
2679.11
2679.11
2679.11
2679.11
2679.11
2679.1
2679.1
2679.1
2679.11
2679.11
2679.11
2679.11
2679.11
2679.1
2679.1
2679.1
2679.1
2679.1
2679.1
2679.1
2679.1
2679.09
2679.09
2679.09
2679.09
2679.09
2679.09
2679.09
2679.09
2679.08
2679.08
2679.08
2679.08
2679.08
2679.08
2679.08
2679.08
2679.07
2679.07
2679.07
2679.07
2679.07
2679.07
2679.07
2679.07
3942.34
3942.34
3942.34
3942.34
3942.34
3942.34
3942.34
3942.34
3942.37
3942.37
3942.37
3942.37
3942.38
3942.38
3942.39
3942.39
3942.38
3942.38
3942.38
3942.38
3942.38
3942.38
3942.39
3942.39
3942.42
3942.42
3942.43
3942.44
3942.46
3942.48
3942.5
3942.52
3942.41
3942.41
3942.41
3942.41
3942.41
3942.41
3942.41
3942.42
3942.44
3942.44
3942.44
3942.44
3942.45
3942.45
3942.46
3942.47
3942.43
3942.43
3942.44
3942.44
3942.44
3942.44
3942.44
3942.44
3845.18
3845.18
3845.18
3845.18
3845.18
3845.18
3845.18
3845.18
3845.21
3845.21
3845.21
3845.21
3845.22
3845.22
3845.22
3845.23
3845.22
3845.22
3845.22
3845.22
3845.22
3845.22
3845.22
3845.23
3845.25
3845.25
3845.26
3845.27
3845.28
3845.29
3845.31
3845.32
3845.25
3845.25
3845.25
3845.25
3845.25
3845.25
3845.25
3845.25
3845.27
3845.27
3845.27
3845.28
3845.28
3845.29
3845.29
3845.29
3845.27
3845.27
3845.27
3845.27
3845.28
3845.28
3845.28
3845.28
3748.02
3748.02
3748.02
3748.02
3748.02
3748.02
3748.02
3748.02
3748.04
3748.04
3748.04
3748.04
3748.05
3748.05
3748.05
3748.06
3748.05
3748.05
3748.05
3748.05
3748.05
3748.05
3748.06
3748.06
3748.08
3748.08
3748.08
3748.09
3748.1
3748.11
3748.12
3748.13
3748.08
3748.08
3748.08
3748.08
3748.08
3748.08
3748.08
3748.08
3748.1
3748.1
3748.1
3748.1
3748.11
3748.11
3748.11
3748.12
3748.1
3748.1
3748.1
3748.11
3748.11
3748.11
3748.11
3748.11
3650.85
3650.85
3650.85
3650.85
3650.85
3650.85
3650.85
3650.85
3650.87
3650.87
3650.87
3650.87
3650.87
3650.88
3650.88
3650.88
3650.88
3650.88
3650.88
3650.88
3650.88
3650.88
3650.88
3650.88
3650.9
3650.9
3650.9
3650.91
3650.91
3650.92
3650.93
3650.94
3650.9
3650.9
3650.9
3650.91
3650.91
3650.91
3650.91
3650.91
3650.92
3650.92
3650.92
3650.93
3650.93
3650.93
3650.93
3650.94
3650.93
3650.93
3650.93
3650.93
3650.93
3650.93
3650.93
3650.93
3553.68
3553.68
3553.68
3553.68
3553.68
3553.68
3553.68
3553.68
3553.69
3553.69
3553.7
3553.7
3553.7
3553.7
3553.7
3553.7
3553.7
3553.7
3553.7
3553.7
3553.7
3553.7
3553.7
3553.71
3553.72
3553.72
3553.72
3553.73
3553.73
3553.73
3553.74
3553.74
3553.73
3553.73
3553.73
3553.73
3553.73
3553.73
3553.73
3553.73
3553.74
3553.74
3553.74
3553.74
3553.75
3553.75
3553.75
3553.75
3553.75
3553.75
3553.75
3553.75
3553.75
3553.75
3553.75
3553.75
3456.51
3456.51
3456.51
3456.51
3456.5
3456.5
3456.5
3456.5
3456.52
3456.52
3456.52
3456.52
3456.52
3456.52
3456.52
3456.52
3456.53
3456.53
3456.53
3456.53
3456.52
3456.52
3456.52
3456.52
3456.54
3456.54
3456.54
3456.54
3456.54
3456.55
3456.55
3456.55
3456.55
3456.55
3456.55
3456.55
3456.55
3456.54
3456.54
3456.54
3456.56
3456.56
3456.56
3456.56
3456.56
3456.56
3456.56
3456.56
3456.57
3456.57
3456.57
3456.57
3456.57
3456.57
3456.57
3456.57
3359.33
3359.33
3359.33
3359.32
3359.32
3359.32
3359.32
3359.32
3359.34
3359.34
3359.34
3359.33
3359.33
3359.33
3359.33
3359.33
3359.34
3359.34
3359.34
3359.34
3359.34
3359.34
3359.34
3359.34
3359.36
3359.36
3359.36
3359.36
3359.36
3359.36
3359.36
3359.36
3359.36
3359.36
3359.36
3359.36
3359.36
3359.36
3359.36
3359.36
3359.37
3359.37
3359.37
3359.37
3359.37
3359.37
3359.37
3359.37
3359.38
3359.38
3359.38
3359.38
3359.38
3359.38
3359.38
3359.38
3262.14
3262.14
3262.14
3262.14
3262.14
3262.13
3262.13
3262.13
3262.15
3262.15
3262.15
3262.15
3262.14
3262.14
3262.14
3262.14
3262.16
3262.16
3262.15
3262.15
3262.15
3262.15
3262.15
3262.15
3262.17
3262.17
3262.17
3262.17
3262.17
3262.17
3262.17
3262.17
3262.17
3262.17
3262.17
3262.17
3262.17
3262.17
3262.17
3262.17
3262.18
3262.18
3262.18
3262.18
3262.18
3262.18
3262.18
3262.18
3262.19
3262.19
3262.19
3262.19
3262.19
3262.19
3262.19
3262.19
3164.95
3164.95
3164.95
3164.95
3164.95
3164.95
3164.95
3164.95
3164.96
3164.96
3164.96
3164.96
3164.95
3164.95
3164.95
3164.95
3164.96
3164.96
3164.96
3164.96
3164.96
3164.96
3164.96
3164.96
3164.97
3164.97
3164.97
3164.97
3164.97
3164.97
3164.97
3164.97
3164.98
3164.98
3164.98
3164.98
3164.98
3164.98
3164.98
3164.98
3164.99
3164.99
3164.99
3164.99
3164.99
3164.99
3164.99
3164.99
3165
3165
3165
3165
3165
3165
3165
3165
3067.76
3067.76
3067.76
3067.76
3067.76
3067.76
3067.76
3067.76
3067.77
3067.77
3067.76
3067.76
3067.76
3067.76
3067.76
3067.76
3067.77
3067.77
3067.77
3067.77
3067.77
3067.77
3067.77
3067.77
3067.78
3067.78
3067.78
3067.78
3067.78
3067.78
3067.78
3067.78
3067.79
3067.79
3067.79
3067.79
3067.79
3067.79
3067.79
3067.79
3067.8
3067.8
3067.8
3067.8
3067.8
3067.8
3067.8
3067.8
3067.81
3067.81
3067.81
3067.81
3067.81
3067.81
3067.81
3067.81
2970.57
2970.57
2970.57
2970.57
2970.57
2970.57
2970.57
2970.57
2970.58
2970.57
2970.57
2970.57
2970.57
2970.57
2970.57
2970.57
2970.58
2970.58
2970.58
2970.58
2970.58
2970.58
2970.58
2970.58
2970.59
2970.59
2970.59
2970.59
2970.59
2970.59
2970.59
2970.59
2970.6
2970.6
2970.6
2970.6
2970.6
2970.6
2970.6
2970.6
2970.61
2970.61
2970.61
2970.61
2970.61
2970.61
2970.61
2970.61
2970.62
2970.62
2970.62
2970.62
2970.62
2970.62
2970.62
2970.62
2873.38
2873.38
2873.38
2873.38
2873.38
2873.38
2873.38
2873.38
2873.38
2873.38
2873.38
2873.38
2873.38
2873.38
2873.38
2873.38
2873.39
2873.39
2873.39
2873.39
2873.39
2873.39
2873.38
2873.38
2873.4
2873.4
2873.4
2873.4
2873.4
2873.39
2873.39
2873.39
2873.4
2873.4
2873.4
2873.4
2873.4
2873.4
2873.4
2873.4
2873.41
2873.42
2873.41
2873.41
2873.41
2873.41
2873.41
2873.41
2873.43
2873.43
2873.43
2873.43
2873.42
2873.42
2873.42
2873.42
2776.19
2776.19
2776.19
2776.19
2776.19
2776.18
2776.18
2776.18
2776.19
2776.19
2776.19
2776.19
2776.19
2776.19
2776.19
2776.18
2776.2
2776.2
2776.2
2776.19
2776.19
2776.19
2776.19
2776.19
2776.2
2776.2
2776.2
2776.2
2776.2
2776.2
2776.2
2776.2
2776.21
2776.21
2776.21
2776.21
2776.21
2776.21
2776.21
2776.2
2776.22
2776.22
2776.22
2776.22
2776.22
2776.22
2776.22
2776.21
2776.23
2776.23
2776.23
2776.23
2776.23
2776.23
2776.23
2776.22
2679
2679
2679
2679
2678.99
2678.99
2678.99
2678.99
2679
2679
2679
2679
2679
2678.99
2678.99
2678.99
2679
2679
2679
2679
2679
2679
2679
2678.99
2679.01
2679.01
2679.01
2679.01
2679.01
2679
2679
2679
2679.02
2679.02
2679.02
2679.01
2679.01
2679.01
2679.01
2679.01
2679.03
2679.03
2679.03
2679.02
2679.02
2679.02
2679.02
2679.02
2679.04
2679.04
2679.04
2679.04
2679.03
2679.03
2679.03
2679.03
3868.5
3871.29
3875.59
3878.68
3877.46
3872.91
3869.77
3870.99
3877.81
3890.15
3894.16
3893.71
3881.41
3872.8
3873.71
3886.91
3900.77
3897.21
3898.93
3891.23
3876.15
3874.3
3889.11
3903.51
3897.72
3898.77
3893.43
3877.65
3872.12
3882.62
3899.18
3901.49
3901.8
3889.25
3875.14
3869.04
3873.63
3882.41
3887.89
3886.97
3877.75
3871.4
3866.74
3868.98
3871.87
3873.9
3873.51
3870.96
3868.28
3795.98
3802.24
3808.36
3814.55
3810.09
3804.54
3798.09
3800.96
3809.9
3825.07
3847.05
3832.2
3814.55
3804.22
3804.69
3819.69
3852.69
3871.7
3866.59
3829.43
3809.07
3805.62
3823.68
3860.05
3870.83
3870.29
3838.02
3811.17
3801.49
3811.66
3832.02
3857.49
3842.95
3818.86
3805.45
3796.39
3803.08
3810.84
3820.3
3813.98
3806.56
3799.25
3790.91
3795.93
3800.45
3803.61
3801.91
3797.96
3792.68
3701.54
3707.19
3711.51
3713.97
3710.64
3706.69
3701.5
3705.34
3711.64
3715.55
3724.23
3714.43
3710.49
3705.53
3707.89
3713.77
3721.56
3760.82
3725.57
3713.27
3707.98
3707.96
3714.03
3726.04
3778.36
3740.94
3715.18
3708.68
3704.55
3709.28
3711.63
3721.01
3711.25
3708.15
3704.66
3700.63
3705.25
3708.23
3711.14
3708.7
3705.42
3700.94
3695.96
3699.94
3703.06
3705.02
3703.48
3700.27
3696.2
3590.46
3593.88
3596.22
3597.37
3596.28
3593.68
3590.19
3593.01
3595.98
3592.73
3595.46
3596.76
3596.5
3592.72
3594.6
3597.01
3595.73
3597.54
3594.02
3597.58
3594.41
3594.19
3594.18
3593.87
3611.88
3596.3
3597.57
3594.62
3592.27
3593.8
3588.77
3595.47
3594.55
3595.55
3592.55
3589.97
3592.82
3594.41
3596.36
3595.39
3593.24
3590.09
3587.25
3589.66
3591.68
3592.97
3591.77
3589.71
3587.31
3458.73
3450.78
3443.07
3441.97
3445.6
3454.14
3461.36
3452.39
3438.83
3437.17
3422.49
3430.08
3444.26
3456.58
3448.21
3430.94
3415.03
3405.91
3421.69
3436.1
3453.6
3449.13
3433.05
3420.01
3407.55
3416.35
3435.49
3453.74
3453.4
3440.49
3434.25
3422.28
3427.94
3443.34
3456.44
3459.34
3451.62
3443.86
3440.75
3444.38
3453.45
3461.14
3464.46
3460.58
3457.5
3456.47
3457.91
3461.56
3465.65
3347.85
3337.39
3331.4
3330.11
3331.1
3339.39
3350.53
3338.89
3330.66
3331.1
3328.59
3326.52
3329.43
3342.19
3332.49
3328.6
3326.62
3326.12
3327.57
3325.23
3335.75
3332.48
3329.29
3325.38
3326.9
3326.1
3324.75
3334.81
3337.43
3329.77
3330.93
3325.74
3326.42
3328.1
3340.14
3346.09
3335.34
3329.79
3328.11
3328.61
3336.55
3348.37
3355.14
3347.57
3340.62
3337.57
3341.62
3349.06
3356.88
3281.79
3282.42
3284.57
3284.69
3282.98
3280.26
3280.63
3282.16
3288.17
3292.34
3291.71
3290.4
3282.88
3279.6
3282.35
3291.64
3293
3291.87
3290.87
3284.47
3278.46
3280.33
3288.04
3289.23
3291.97
3290
3283.75
3277.64
3279.72
3284.77
3286.65
3287.39
3288.58
3281.68
3278.11
3279.33
3279.59
3281.51
3281.93
3281.01
3278.1
3278.66
3280.68
3278.93
3277.67
3276.72
3277.7
3278.56
3280.34
3217.47
3223.79
3231.41
3234.8
3228.9
3220.56
3214.56
3222.75
3236.3
3251.54
3256.25
3247.61
3229.88
3218.62
3227.1
3247.46
3257.75
3258.51
3255.15
3237.96
3221.52
3227.22
3247.09
3256.34
3254.36
3252.94
3237.92
3221.44
3223.08
3238.47
3253.36
3252.48
3247.17
3230.68
3218.46
3217.33
3224.53
3233.77
3236.76
3230.11
3220.42
3214.11
3212.62
3216.07
3219.19
3220.17
3217.74
3213.86
3210.25
3128.35
3132.2
3135.36
3137.26
3134.18
3130.31
3125.85
3132.34
3137.89
3147.34
3154.83
3143.51
3135.03
3129.45
3135.2
3144.88
3167.8
3182.98
3159.9
3140.12
3132.05
3136.04
3148.06
3174.38
3188.98
3163.08
3141.7
3132.45
3133.36
3140.13
3154.03
3162.93
3148.08
3136.43
3130.11
3129.33
3133.58
3137.97
3141.09
3136.13
3131.22
3126.59
3124.94
3128.31
3130.82
3131.73
3129.7
3126.48
3122.74
3021.64
3022.32
3022.24
3022.45
3022.31
3022.2
3020.93
3022.45
3021.2
3017.5
3017.98
3018.86
3022.14
3022.1
3022.52
3017.57
3010.57
3015.33
3015.66
3021.36
3022.91
3022.6
3015.56
3016.77
3027.44
3019.1
3021.71
3023.32
3022.29
3019.07
3013.64
3018.64
3017.43
3022.09
3022.58
3021.96
3021.88
3020.76
3021.31
3022.02
3022.56
3021.54
3020.7
3021.85
3022.7
3023.28
3022.56
3021.56
3020.06
2910.8
2908.49
2906.31
2905.94
2906.9
2909.54
2911.48
2908.6
2904.69
2900.06
2898.02
2904.28
2906.02
2909.97
2906.82
2900.68
2900.37
2895.95
2896.91
2903.4
2908.98
2905.5
2909.67
2895.27
2898.57
2895.42
2904.1
2908.65
2907.37
2903.12
2898.28
2895.94
2902.8
2904.08
2909.28
2909.65
2906.27
2903.22
2904.01
2903.89
2907.69
2910.7
2911.51
2910.02
2908.74
2908.41
2909.21
2910.72
2912.1
2810.12
2807.46
2805.4
2804.15
2805.76
2808.05
2810.73
2807.78
2806.4
2806.44
2805.2
2806.46
2805.28
2808.45
2806.22
2806.61
2808.44
2806.16
2804.76
2804.08
2806.61
2804.23
2809.86
2801.92
2803.15
2803.95
2803.87
2805.69
2806.58
2806.74
2807.06
2803.88
2804.88
2804.65
2807.36
2808.25
2805.62
2804.43
2804.87
2804.7
2806.13
2809.32
2810.74
2808.39
2806.26
2805.66
2807.16
2809.29
2811.6
2724.03
2724.61
2725.54
2725.48
2724.94
2723.85
2723.67
2724.5
2728.06
2732.14
2732.97
2730.84
2725.66
2723.71
2725.04
2731.18
2732.55
2732.22
2732.46
2727.67
2723.76
2724.38
2730.68
2731.25
2728.08
2731.78
2727.69
2723.35
2724.09
2729.49
2731.27
2731.1
2731.69
2726.45
2723.42
2723.32
2725.16
2727.51
2728.29
2726.72
2723.87
2723.14
2723.29
2723.26
2723.27
2723.16
2723.31
2723.11
2723.36
2638.92
2640.93
2643.08
2643.72
2642.34