/*--------------------------------*- C++ -*----------------------------------*\
| =========                 |                                                 |
| \\      /  F ield         | OpenFOAM: The Open Source CFD Toolbox           |
|  \\    /   O peration     | Version:  plus.master.MPPICInterFoam            |
|   \\  /    A nd           | Web:      www.OpenFOAM.com                      |
|    \\/     M anipulation  |                                                 |
\*---------------------------------------------------------------------------*/
FoamFile
{
    version     2.0;
    format      ascii;
    class       surfaceScalarField;
    location    "5";
    object      phi;
}
// * * * * * * * * * * * * * * * * * * * * * * * * * * * * * * * * * * * * * //

dimensions      [0 3 -1 0 0 0 0];

internalField   nonuniform List<scalar> 
34004
(
1.0753e-08
9.29428e-08
-1.60545e-06
-1.1025e-07
1.931e-08
8.49853e-08
-1.96929e-06
-1.00967e-07
2.60152e-08
8.02326e-08
-2.26745e-06
-9.56884e-08
3.1052e-08
7.67301e-08
-2.55891e-06
-9.19311e-08
3.4418e-08
7.36284e-08
-2.85442e-06
-8.8676e-08
3.60537e-08
7.07257e-08
-3.15725e-06
-8.56492e-08
3.5878e-08
6.79774e-08
-3.46849e-06
-8.27715e-08
6.5374e-08
-3.78776e-06
-8.00509e-08
3.38381e-08
1.57695e-08
6.67869e-08
-1.62244e-06
2.776e-08
6.1148e-08
-1.98901e-06
3.68463e-08
5.75391e-08
-2.29008e-06
4.34153e-08
5.47934e-08
-2.58451e-06
4.75874e-08
5.23286e-08
-2.88308e-06
4.94121e-08
5.00255e-08
-3.18905e-06
4.891e-08
4.7872e-08
-3.50353e-06
4.5892e-08
-3.82617e-06
4.60515e-08
1.73855e-08
3.66783e-08
-1.63408e-06
3.04055e-08
3.35867e-08
-2.00259e-06
3.99287e-08
3.15207e-08
-2.30544e-06
4.6455e-08
2.98928e-08
-2.60155e-06
5.02232e-08
2.83888e-08
-2.90171e-06
5.14076e-08
2.69623e-08
-3.20918e-06
5.01478e-08
2.5626e-08
-3.52508e-06
2.43975e-08
-3.84907e-06
4.65553e-08
1.81155e-08
4.60255e-09
-1.64064e-06
3.15251e-08
4.20391e-09
-2.01028e-06
4.12501e-08
3.79143e-09
-2.3141e-06
4.78617e-08
3.369e-09
-2.61111e-06
5.16464e-08
2.91538e-09
-2.91214e-06
5.28124e-08
2.46627e-09
-3.22046e-06
5.15235e-08
2.06012e-09
-3.5372e-06
1.72705e-09
-3.86205e-06
4.7884e-08
1.67782e-08
-2.64766e-08
-1.64178e-06
2.90266e-08
-2.4436e-08
-2.0117e-06
3.77444e-08
-2.33531e-08
-2.31553e-06
4.3544e-08
-2.27503e-08
-2.61247e-06
4.67544e-08
-2.23611e-08
-2.91333e-06
4.76198e-08
-2.20653e-08
-3.22141e-06
4.63233e-08
-2.17882e-08
-3.53784e-06
-2.14906e-08
-3.86233e-06
4.2987e-08
1.48298e-08
-5.53577e-08
-1.63837e-06
2.53959e-08
-5.10618e-08
-2.00767e-06
3.29171e-08
-4.88723e-08
-2.31074e-06
3.80135e-08
-4.76325e-08
-2.60685e-06
4.10018e-08
-4.67649e-08
-2.90682e-06
4.20893e-08
-4.60413e-08
-3.21395e-06
4.13996e-08
-4.53312e-08
-3.52942e-06
-4.45417e-08
-3.85296e-06
3.89439e-08
8.60465e-09
-1.62937e-06
-7.68495e-08
1.40122e-08
-1.99732e-06
-7.12287e-08
1.72315e-08
-2.29837e-06
-6.85615e-08
1.89175e-08
-2.59216e-06
-6.7323e-08
1.94768e-08
-2.88946e-06
-6.66866e-08
1.92302e-08
-3.19359e-06
-6.63413e-08
1.83788e-08
-3.50574e-06
-6.60716e-08
-3.82569e-06
-6.57634e-08
1.70378e-08
8.56441e-09
7.54101e-08
-1.60068e-06
-8.87405e-08
1.5425e-08
6.89541e-08
-1.96384e-06
-8.12669e-08
2.08313e-08
6.52294e-08
-2.261e-06
-7.70839e-08
2.49102e-08
6.25572e-08
-2.55137e-06
-7.41725e-08
2.76523e-08
6.0237e-08
-2.84569e-06
-7.17104e-08
2.90063e-08
5.80867e-08
-3.14724e-06
-6.94633e-08
2.89073e-08
5.60532e-08
-3.45713e-06
-6.73485e-08
5.41138e-08
-3.77499e-06
-6.5357e-08
2.73153e-08
1.30341e-08
5.45109e-08
-1.61458e-06
2.30857e-08
4.99062e-08
-1.98002e-06
3.08292e-08
4.70872e-08
-2.27968e-06
3.65394e-08
4.49994e-08
-2.57265e-06
4.02755e-08
4.31551e-08
-2.8697e-06
4.20357e-08
4.14431e-08
-3.17411e-06
4.17938e-08
3.98417e-08
-3.48699e-06
3.83618e-08
-3.80798e-06
3.94934e-08
1.47664e-08
2.99208e-08
-1.62427e-06
2.60202e-08
2.74023e-08
-1.99135e-06
3.44381e-08
2.58118e-08
-2.29259e-06
4.03838e-08
2.45926e-08
-2.58709e-06
4.39993e-08
2.34788e-08
-2.88564e-06
4.53701e-08
2.24234e-08
-3.19153e-06
4.45567e-08
2.14297e-08
-3.50586e-06
2.05074e-08
-3.82827e-06
4.1607e-08
1.56554e-08
3.37718e-09
-1.62976e-06
2.74768e-08
3.10407e-09
-1.9978e-06
3.62693e-08
2.84236e-09
-2.29991e-06
4.24548e-08
2.56888e-09
-2.59525e-06
4.6208e-08
2.26451e-09
-2.89465e-06
4.76349e-08
1.95549e-09
-3.20138e-06
4.68087e-08
1.67168e-09
-3.51657e-06
1.43749e-09
-3.83987e-06
4.37664e-08
1.4663e-08
-2.24327e-08
-1.63063e-06
2.56158e-08
-2.0645e-08
-1.9989e-06
3.36396e-08
-1.96789e-08
-2.30103e-06
3.91864e-08
-1.91202e-08
-2.59631e-06
4.24671e-08
-1.87488e-08
-2.89558e-06
4.3621e-08
-1.84654e-08
-3.20212e-06
4.27441e-08
-1.82074e-08
-3.51706e-06
-1.79407e-08
-3.84007e-06
3.98944e-08
1.30526e-08
-4.63292e-08
-1.62751e-06
2.26254e-08
-4.26329e-08
-1.99525e-06
2.96671e-08
-4.07405e-08
-2.29671e-06
3.46327e-08
-3.96472e-08
-2.59128e-06
3.77234e-08
-3.88789e-08
-2.88977e-06
3.90488e-08
-3.82445e-08
-3.19549e-06
3.86582e-08
-3.76359e-08
-3.50959e-06
-3.69739e-08
-3.83178e-06
3.65204e-08
7.89526e-09
-1.6197e-06
-6.38813e-08
1.32237e-08
-1.98623e-06
-5.9047e-08
1.67142e-08
-2.28592e-06
-5.66708e-08
1.8825e-08
-2.57845e-06
-5.54517e-08
1.98343e-08
-2.8746e-06
-5.47369e-08
1.99502e-08
-3.17766e-06
-5.42667e-08
1.93008e-08
-3.48881e-06
-5.3875e-08
-3.8078e-06
-5.347e-08
1.79625e-08
6.87208e-09
6.11246e-08
-1.59707e-06
-7.16075e-08
1.23827e-08
5.58506e-08
-1.95971e-06
-6.55209e-08
1.6729e-08
5.28931e-08
-2.25611e-06
-6.21512e-08
2.00017e-08
5.08224e-08
-2.54564e-06
-5.98416e-08
2.21929e-08
4.90611e-08
-2.83902e-06
-5.79244e-08
2.32633e-08
4.74493e-08
-3.13954e-06
-5.62018e-08
2.3162e-08
4.59328e-08
-3.44832e-06
-5.45954e-08
4.44839e-08
-3.76501e-06
-5.3086e-08
2.18621e-08
1.07097e-08
4.43468e-08
-1.60853e-06
1.90469e-08
4.05672e-08
-1.97309e-06
2.55347e-08
3.83403e-08
-2.27163e-06
3.03782e-08
3.67319e-08
-2.56341e-06
3.36071e-08
3.53345e-08
-2.85921e-06
3.5199e-08
3.4047e-08
-3.1623e-06
3.51116e-08
3.28431e-08
-3.47381e-06
3.17249e-08
-3.79338e-06
3.3276e-08
1.23838e-08
2.43085e-08
-1.61663e-06
2.19304e-08
2.22479e-08
-1.98259e-06
2.91734e-08
2.10125e-08
-2.28251e-06
3.43864e-08
2.00927e-08
-2.57565e-06
3.76549e-08
1.92647e-08
-2.87282e-06
3.90145e-08
1.84831e-08
-3.17729e-06
3.8482e-08
1.77457e-08
-3.49018e-06
1.70564e-08
-3.81112e-06
3.60705e-08
1.32937e-08
2.47717e-09
-1.62122e-06
2.34654e-08
2.28476e-09
-1.98802e-06
3.11564e-08
2.1217e-09
-2.28871e-06
3.66855e-08
1.94818e-09
-2.58263e-06
4.01599e-08
1.74666e-09
-2.88059e-06
4.16263e-08
1.53607e-09
-3.18588e-06
4.11063e-08
1.33942e-09
-3.49961e-06
1.17615e-09
-3.82144e-06
3.85972e-08
1.25579e-08
-1.88e-08
-1.62191e-06
2.2082e-08
-1.7256e-08
-1.98889e-06
2.91904e-08
-1.64079e-08
-2.2896e-06
3.42234e-08
-1.59028e-08
-2.58349e-06
3.73173e-08
-1.55597e-08
-2.88136e-06
3.85476e-08
-1.52975e-08
-3.18649e-06
3.79573e-08
-1.5064e-08
-3.50003e-06
-1.48303e-08
-3.82163e-06
3.55656e-08
1.12252e-08
-3.84198e-08
-1.61912e-06
1.96183e-08
-3.52688e-08
-1.98563e-06
2.59199e-08
-3.3644e-08
-2.28577e-06
3.047e-08
-3.26883e-08
-2.57904e-06
3.33966e-08
-3.20128e-08
-2.87623e-06
3.47514e-08
-3.14599e-08
-3.18066e-06
3.45409e-08
-3.09398e-08
-3.49347e-06
-3.0386e-08
-3.81435e-06
3.27148e-08
7.02971e-09
-1.61242e-06
-5.27347e-08
1.19891e-08
-1.97787e-06
-4.85987e-08
1.54095e-08
-2.27649e-06
-4.65029e-08
1.76187e-08
-2.568e-06
-4.53512e-08
1.88072e-08
-2.86318e-06
-4.46189e-08
1.91114e-08
-3.16532e-06
-4.40958e-08
1.86132e-08
-3.47559e-06
-4.36518e-08
-3.7937e-06
-4.32138e-08
1.73626e-08
5.53846e-09
4.93807e-08
-1.59426e-06
-5.7739e-08
9.9867e-09
4.50439e-08
-1.9565e-06
-5.27288e-08
1.34853e-08
4.26664e-08
-2.25231e-06
-4.99804e-08
1.61086e-08
4.10355e-08
-2.54118e-06
-4.81197e-08
1.78549e-08
3.96757e-08
-2.83385e-06
-4.66004e-08
1.86983e-08
3.84485e-08
-3.13357e-06
-4.52559e-08
1.86025e-08
3.73017e-08
-3.4415e-06
-4.40155e-08
3.62057e-08
-3.75728e-06
-4.2856e-08
1.75475e-08
8.74969e-09
3.5903e-08
-1.60382e-06
1.56076e-08
3.27832e-08
-1.9677e-06
2.09728e-08
3.10053e-08
-2.26535e-06
2.50052e-08
2.97514e-08
-2.55616e-06
2.77215e-08
2.8682e-08
-2.85092e-06
2.90939e-08
2.7707e-08
-3.15291e-06
2.90778e-08
2.67984e-08
-3.46325e-06
2.59528e-08
-3.7816e-06
2.76079e-08
1.02743e-08
1.96364e-08
-1.61064e-06
1.82585e-08
1.79383e-08
-1.97574e-06
2.43717e-08
1.69665e-08
-2.27459e-06
2.88256e-08
1.62638e-08
-2.56662e-06
3.1674e-08
1.56423e-08
-2.86262e-06
3.29272e-08
1.506e-08
-3.16588e-06
3.25799e-08
1.45106e-08
-3.47752e-06
1.39945e-08
-3.79717e-06
3.06251e-08
1.11223e-08
1.81062e-09
-1.61453e-06
1.97129e-08
1.66655e-09
-1.98034e-06
2.6279e-08
1.56531e-09
-2.27987e-06
3.10665e-08
1.45682e-09
-2.5726e-06
3.41422e-08
1.32478e-09
-2.86933e-06
3.55212e-08
1.18239e-09
-3.17335e-06
3.51978e-08
1.0471e-09
-3.48579e-06
9.34174e-10
-3.80628e-06
3.31496e-08
1.05774e-08
-1.55924e-08
-1.61509e-06
1.86865e-08
-1.42748e-08
-1.98105e-06
2.48133e-08
-1.35411e-08
-2.28062e-06
2.92191e-08
-1.30938e-08
-2.57333e-06
3.19936e-08
-1.2785e-08
-2.87e-06
3.31751e-08
-1.25482e-08
-3.17392e-06
3.2777e-08
-1.23408e-08
-3.48621e-06
-1.2138e-08
-3.80653e-06
3.07981e-08
9.47385e-09
-3.15689e-08
-1.61262e-06
1.66576e-08
-2.89027e-08
-1.97819e-06
2.21227e-08
-2.7517e-08
-2.27726e-06
2.61276e-08
-2.66893e-08
-2.56943e-06
2.87553e-08
-2.61018e-08
-2.86552e-06
3.00253e-08
-2.56253e-08
-3.16883e-06
2.99228e-08
-2.51859e-08
-3.48049e-06
-2.47276e-08
-3.80018e-06
2.83919e-08
6.11303e-09
-1.6069e-06
-4.3205e-08
1.05576e-08
-1.97154e-06
-3.96797e-08
1.37174e-08
-2.26931e-06
-3.78497e-08
1.58333e-08
-2.56e-06
-3.67931e-08
1.70371e-08
-2.85438e-06
-3.60857e-08
1.74191e-08
-3.15574e-06
-3.55584e-08
1.70322e-08
-3.46524e-06
-3.51078e-08
-3.78258e-06
-3.46758e-08
1.59117e-08
4.46725e-09
3.96132e-08
-1.59204e-06
-4.63099e-08
8.07013e-09
3.60268e-08
-1.95396e-06
-4.21475e-08
1.08852e-08
3.40962e-08
-2.24932e-06
-3.98842e-08
1.29828e-08
3.27957e-08
-2.53769e-06
-3.83678e-08
1.43683e-08
3.1734e-08
-2.82979e-06
-3.71494e-08
1.50263e-08
3.07918e-08
-3.1289e-06
-3.60878e-08
1.49325e-08
2.99203e-08
-3.43617e-06
-3.512e-08
2.90902e-08
-3.75125e-06
-3.42213e-08
1.40754e-08
7.10133e-09
2.88275e-08
-1.60013e-06
1.26992e-08
2.62381e-08
-1.96349e-06
1.7087e-08
2.4804e-08
-2.26042e-06
2.03952e-08
2.38149e-08
-2.55047e-06
2.26365e-08
2.29886e-08
-2.84439e-06
2.37851e-08
2.22455e-08
-3.14548e-06
2.38006e-08
2.15578e-08
-3.45487e-06
2.09184e-08
-3.77222e-06
2.26254e-08
8.42953e-09
1.57179e-08
-1.60596e-06
1.50224e-08
1.43074e-08
-1.97038e-06
2.00967e-08
1.3533e-08
-2.26837e-06
2.3822e-08
1.29892e-08
-2.5595e-06
2.62351e-08
1.25189e-08
-2.85454e-06
2.73351e-08
1.20835e-08
-3.15679e-06
2.71077e-08
1.16745e-08
-3.46737e-06
1.12898e-08
-3.78593e-06
2.55376e-08
9.17674e-09
1.30061e-09
-1.60928e-06
1.63164e-08
1.18292e-09
-1.97434e-06
2.18096e-08
1.11826e-09
-2.27294e-06
2.5851e-08
1.05066e-09
-2.56469e-06
2.84854e-08
9.64777e-10
-2.86039e-06
2.97125e-08
8.69371e-10
-3.16334e-06
2.9515e-08
7.7735e-10
-3.47466e-06
7.00474e-10
-3.79399e-06
2.7863e-08
8.77309e-09
-1.27909e-08
-1.60977e-06
1.55539e-08
-1.1679e-08
-1.97496e-06
2.0716e-08
-1.10532e-08
-2.27359e-06
2.44654e-08
-1.0665e-08
-2.56534e-06
2.68641e-08
-1.03937e-08
-2.86101e-06
2.79307e-08
-1.01856e-08
-3.16389e-06
2.76638e-08
-1.00057e-08
-3.47511e-06
-9.83316e-09
-3.79433e-06
2.60527e-08
7.86227e-09
-2.56671e-08
-1.60761e-06
1.38885e-08
-2.3425e-08
-1.97246e-06
1.85091e-08
-2.22513e-08
-2.27066e-06
2.19255e-08
-2.15411e-08
-2.56195e-06
2.41943e-08
-2.1036e-08
-2.85712e-06
2.53196e-08
-2.06304e-08
-3.15946e-06
2.52785e-08
-2.02633e-08
-3.47014e-06
-1.98884e-08
-3.7888e-06
2.40192e-08
5.20649e-09
-1.60272e-06
-3.50573e-08
9.07377e-09
-1.96674e-06
-3.20631e-08
1.18732e-08
-2.26386e-06
-3.04818e-08
1.37879e-08
-2.55389e-06
-2.95366e-08
1.4912e-08
-2.84762e-06
-2.88837e-08
1.53066e-08
-3.14833e-06
-2.83862e-08
1.50063e-08
-3.45719e-06
-2.79612e-08
-3.77388e-06
-2.7562e-08
1.40375e-08
3.5935e-09
3.13724e-08
-1.5903e-06
-3.67049e-08
6.49996e-09
2.83914e-08
-1.95198e-06
-3.32262e-08
8.75318e-09
2.68125e-08
-2.24698e-06
-3.13534e-08
1.04214e-08
2.57669e-08
-2.53497e-06
-3.0112e-08
1.15146e-08
2.49333e-08
-2.82664e-06
-2.91327e-08
1.20257e-08
2.42089e-08
-3.12528e-06
-2.82955e-08
1.19395e-08
2.35485e-08
-3.43204e-06
-2.75434e-08
2.29241e-08
-3.74658e-06
-2.68516e-08
1.12511e-08
5.71098e-09
2.28243e-08
-1.59726e-06
1.02308e-08
2.06645e-08
-1.96022e-06
1.37713e-08
1.9499e-08
-2.2566e-06
1.64426e-08
1.87126e-08
-2.54604e-06
1.82568e-08
1.80715e-08
-2.8393e-06
1.91939e-08
1.75061e-08
-3.13967e-06
1.922e-08
1.69889e-08
-3.4483e-06
1.65104e-08
-3.76483e-06
1.82887e-08
6.8273e-09
1.23876e-08
-1.60232e-06
1.21917e-08
1.12067e-08
-1.96624e-06
1.63297e-08
1.05821e-08
-2.26355e-06
1.9381e-08
1.01564e-08
-2.55395e-06
2.1374e-08
9.79869e-09
-2.84823e-06
2.23047e-08
9.47394e-09
-3.14966e-06
2.21563e-08
9.17205e-09
-3.45938e-06
8.88904e-09
-3.77703e-06
2.09116e-08
7.45878e-09
8.89158e-10
-1.60522e-06
1.32907e-08
7.83593e-10
-1.9697e-06
1.77927e-08
7.38817e-10
-2.26756e-06
2.11229e-08
6.96054e-10
-2.55852e-06
2.33147e-08
6.40819e-10
-2.85339e-06
2.43626e-08
5.78232e-10
-3.15546e-06
2.4246e-08
5.17457e-10
-3.46585e-06
4.67225e-10
-3.78422e-06
2.29344e-08
7.15904e-09
-1.03576e-08
-1.60566e-06
1.2722e-08
-9.43006e-09
-1.97027e-06
1.69741e-08
-8.90412e-09
-2.26817e-06
2.00817e-08
-8.57377e-09
-2.55915e-06
2.20911e-08
-8.34115e-09
-2.85401e-06
2.30118e-08
-8.16299e-09
-3.15604e-06
2.28362e-08
-8.01076e-09
-3.46637e-06
-7.8671e-09
-3.78466e-06
2.15505e-08
6.41388e-09
-2.05839e-08
-1.60378e-06
1.13653e-08
-1.87098e-08
-1.96809e-06
1.51765e-08
-1.77236e-08
-2.26562e-06
1.80084e-08
-1.71213e-08
-2.5562e-06
1.99029e-08
-1.66936e-08
-2.85062e-06
2.08587e-08
-1.63547e-08
-3.15219e-06
2.08527e-08
-1.60541e-08
-3.46205e-06
-1.57531e-08
-3.77985e-06
1.98404e-08
4.34096e-09
-1.59957e-06
-2.80562e-08
7.6092e-09
-1.96316e-06
-2.55239e-08
9.99841e-09
-2.25976e-06
-2.41728e-08
1.16528e-08
-2.54928e-06
-2.33468e-08
1.26421e-08
-2.8425e-06
-2.27668e-08
1.30098e-08
-3.14269e-06
-2.23214e-08
1.27796e-08
-3.45103e-06
-2.19433e-08
-3.76718e-06
-2.15941e-08
1.19721e-08
2.86518e-09
2.43019e-08
-1.58897e-06
-2.84658e-08
5.1725e-09
2.18143e-08
-1.95049e-06
-2.55516e-08
6.94973e-09
2.05186e-08
-2.24523e-06
-2.40016e-08
8.2578e-09
1.96763e-08
-2.53292e-06
-2.29875e-08
9.10959e-09
1.90241e-08
-2.82427e-06
-2.22067e-08
9.50346e-09
1.84734e-08
-3.12256e-06
-2.15559e-08
9.43102e-09
1.79821e-08
-3.42894e-06
-2.09835e-08
1.75233e-08
-3.74307e-06
-2.04642e-08
8.89111e-09
4.52875e-09
1.76489e-08
-1.59509e-06
8.11305e-09
1.58407e-08
-1.95778e-06
1.09154e-08
1.48893e-08
-2.25372e-06
1.3028e-08
1.42621e-08
-2.54269e-06
1.44644e-08
1.37669e-08
-2.83544e-06
1.52103e-08
1.33423e-08
-3.13526e-06
1.52396e-08
1.29614e-08
-3.44328e-06
1.26129e-08
-3.75917e-06
1.45159e-08
5.43443e-09
9.50621e-09
-1.59957e-06
9.70931e-09
8.5106e-09
-1.96313e-06
1.30076e-08
8.00234e-09
-2.25992e-06
1.54451e-08
7.6668e-09
-2.54976e-06
1.70463e-08
7.3956e-09
-2.84342e-06
1.78078e-08
7.15693e-09
-3.1442e-06
1.77142e-08
6.93946e-09
-3.45323e-06
6.73772e-09
-3.77017e-06
1.6749e-08
5.94749e-09
5.32132e-10
-1.60216e-06
1.06051e-08
4.29465e-10
-1.96624e-06
1.42037e-08
3.94899e-10
-2.26351e-06
1.68736e-08
3.66988e-10
-2.55386e-06
1.86429e-08
3.32418e-10
-2.84807e-06
1.95058e-08
2.93945e-10
-3.14944e-06
1.94429e-08
2.56953e-10
-3.45909e-06
2.2774e-10
-3.77668e-06
1.84262e-08
5.72217e-09
-8.24776e-09
-1.60257e-06
1.01763e-08
-7.48387e-09
-1.96678e-06
1.35864e-08
-7.04895e-09
-2.26411e-06
1.60874e-08
-6.77367e-09
-2.55449e-06
1.77167e-08
-6.57931e-09
-2.84871e-06
1.84807e-08
-6.43119e-09
-3.15006e-06
1.83706e-08
-6.30614e-09
-3.45968e-06
-6.18975e-09
-3.77723e-06
1.73716e-08
5.12139e-09
-1.6186e-08
-1.60094e-06
9.08503e-09
-1.46296e-08
-1.96488e-06
1.21392e-08
-1.38094e-08
-2.26189e-06
1.44134e-08
-1.3306e-08
-2.55192e-06
1.59421e-08
-1.29514e-08
-2.84576e-06
1.67239e-08
-1.26757e-08
-3.14671e-06
1.6739e-08
-1.24367e-08
-3.45591e-06
-1.22025e-08
-3.77303e-06
1.59503e-08
3.52405e-09
-1.59727e-06
-2.19842e-08
6.19039e-09
-1.96056e-06
-1.98545e-08
8.14783e-09
-2.25678e-06
-1.87149e-08
9.51171e-09
-2.54591e-06
-1.80101e-08
1.03364e-08
-2.83873e-06
-1.75137e-08
1.06546e-08
-3.13853e-06
-1.71346e-08
1.04838e-08
-3.44645e-06
-1.68171e-08
-3.76218e-06
-1.65291e-08
9.83947e-09
2.23679e-09
1.81178e-08
-1.58806e-06
-2.12483e-08
4.01389e-09
1.60377e-08
-1.94947e-06
-1.8809e-08
5.37701e-09
1.49753e-08
-2.24402e-06
-1.75318e-08
6.37552e-09
1.43003e-08
-2.53149e-06
-1.67115e-08
7.0235e-09
1.37985e-08
-2.8226e-06
-1.61016e-08
7.32318e-09
1.33926e-08
-3.12063e-06
-1.56128e-08
7.27036e-09
1.30428e-08
-3.42672e-06
-1.5197e-08
1.27235e-08
-3.74055e-06
-1.48287e-08
6.86419e-09
3.50711e-09
1.31039e-08
-1.59356e-06
6.26886e-09
1.15866e-08
-1.95606e-06
8.42273e-09
1.08095e-08
-2.25169e-06
1.00443e-08
1.03115e-08
-2.54031e-06
1.11483e-08
9.93536e-09
-2.83267e-06
1.17267e-08
9.6267e-09
-3.13206e-06
1.17601e-08
9.35906e-09
-3.43962e-06
9.1195e-09
-3.75501e-06
1.12198e-08
4.21199e-09
6.95932e-09
-1.59762e-06
7.51457e-09
6.11546e-09
-1.96093e-06
1.00595e-08
5.69969e-09
-2.25733e-06
1.19415e-08
5.4351e-09
-2.54674e-06
1.31838e-08
5.23275e-09
-2.83995e-06
1.37855e-08
5.06351e-09
-3.14023e-06
1.37342e-08
4.91494e-09
-3.44872e-06
4.78032e-09
-3.76509e-06
1.30152e-08
4.60945e-09
1.88275e-10
-1.59997e-06
8.21163e-09
8.49585e-11
-1.96378e-06
1.09903e-08
5.72348e-11
-2.26063e-06
1.30552e-08
3.61098e-11
-2.55051e-06
1.4431e-08
1.47656e-11
-2.84422e-06
1.51147e-08
-7.50759e-12
-3.14504e-06
1.50907e-08
-2.77244e-11
-3.45411e-06
-4.16957e-11
-3.77108e-06
1.43345e-08
4.43658e-09
-6.41685e-09
-1.60039e-06
7.88257e-09
-5.79663e-09
-1.96433e-06
1.05202e-08
-5.44326e-09
-2.26123e-06
1.24561e-08
-5.21928e-09
-2.55116e-06
1.37245e-08
-5.06175e-09
-2.84489e-06
1.43317e-08
-4.94298e-09
-3.14572e-06
1.42704e-08
-4.84418e-09
-3.4548e-06
-4.75344e-09
-3.77177e-06
1.3526e-08
3.96134e-09
-1.23463e-08
-1.59895e-06
7.0207e-09
-1.10644e-08
-1.96266e-06
9.37431e-09
-1.03915e-08
-2.25929e-06
1.11269e-08
-9.97941e-09
-2.5489e-06
1.23094e-08
-9.69406e-09
-2.8423e-06
1.2923e-08
-9.47845e-09
-3.14278e-06
1.29531e-08
-9.29748e-09
-3.45148e-06
-9.12426e-09
-3.76807e-06
1.23687e-08
2.7499e-09
-1.5957e-06
-1.66473e-08
4.82368e-09
-1.95882e-06
-1.48701e-08
6.34439e-09
-2.25476e-06
-1.39241e-08
7.40491e-09
-2.54361e-06
-1.33386e-08
8.05008e-09
-2.83613e-06
-1.29312e-08
8.30655e-09
-3.13563e-06
-1.26267e-08
8.18834e-09
-3.44324e-06
-1.23784e-08
-3.75865e-06
-1.21584e-08
7.70601e-09
1.67194e-09
1.25888e-08
-1.58753e-06
-1.47842e-08
2.97837e-09
1.08514e-08
-1.94889e-06
-1.27474e-08
3.97542e-09
9.98602e-09
-2.24331e-06
-1.17048e-08
4.70213e-09
9.45352e-09
-2.53063e-06
-1.10536e-08
5.1739e-09
9.08154e-09
-2.82156e-06
-1.05958e-08
5.39635e-09
8.80188e-09
-3.1194e-06
-1.02529e-08
5.36842e-09
8.57624e-09
-3.42529e-06
-9.97939e-09
8.37958e-09
-3.7389e-06
-9.74877e-09
5.08782e-09
2.60619e-09
9.0284e-09
-1.59261e-06
4.64212e-09
7.75502e-09
-1.95501e-06
6.22274e-09
7.1228e-09
-2.25041e-06
7.40999e-09
6.73258e-09
-2.53878e-06
8.22106e-09
6.45711e-09
-2.83085e-06
8.65386e-09
6.24773e-09
-3.12993e-06
8.69567e-09
6.07798e-09
-3.43715e-06
5.93339e-09
-3.75217e-06
8.32412e-09
3.12448e-09
4.65842e-09
-1.59637e-06
5.55828e-09
3.93966e-09
-1.95955e-06
7.42549e-09
3.59805e-09
-2.25567e-06
8.80435e-09
3.39077e-09
-2.54478e-06
9.71897e-09
3.24506e-09
-2.83764e-06
1.01729e-08
3.13383e-09
-3.13755e-06
1.01586e-08
3.0435e-09
-3.44565e-06
2.96616e-09
-3.7616e-06
9.66361e-09
3.41299e-09
-1.54179e-10
-1.59857e-06
6.06492e-09
-2.61612e-10
-1.96223e-06
8.10272e-09
-2.93897e-10
-2.25877e-06
9.61402e-09
-3.1001e-10
-2.54831e-06
1.06256e-08
-3.21621e-10
-2.84165e-06
1.11399e-08
-3.30828e-10
-3.14207e-06
1.11468e-08
-3.36836e-10
-3.45071e-06
-3.37403e-10
-3.76723e-06
1.06266e-08
3.27633e-09
-4.81337e-09
-1.599e-06
5.80775e-09
-4.32076e-09
-1.96279e-06
7.73288e-09
-4.04243e-09
-2.2594e-06
9.14301e-09
-3.86615e-09
-2.549e-06
1.00706e-08
-3.74376e-09
-2.84238e-06
1.05252e-08
-3.65325e-09
-3.14284e-06
1.05028e-08
-3.57968e-09
-3.45152e-06
-3.51313e-09
-3.76806e-06
9.99171e-09
2.91015e-09
-8.9466e-09
-1.59773e-06
5.14346e-09
-7.90364e-09
-1.9613e-06
6.84958e-09
-7.36281e-09
-2.25767e-06
8.11599e-09
-7.03535e-09
-2.547e-06
8.97341e-09
-6.81601e-09
-2.84008e-06
9.42797e-09
-6.65822e-09
-3.14022e-06
9.47108e-09
-6.53235e-09
-3.44856e-06
-6.41583e-09
-3.76476e-06
9.07939e-09
2.01202e-09
-1.59478e-06
-1.18758e-08
3.51285e-09
-1.95781e-06
-1.04091e-08
4.60088e-09
-2.25357e-06
-9.64018e-09
5.35348e-09
-2.54222e-06
-9.17007e-09
5.81069e-09
-2.83455e-06
-8.85375e-09
5.99729e-09
-3.13384e-06
-8.62867e-09
5.92654e-09
-3.44124e-06
-8.45454e-09
-3.75643e-06
-8.30656e-09
5.6062e-09
1.15202e-09
7.52357e-09
-1.58736e-06
-8.84943e-09
2.0427e-09
6.07965e-09
-1.94871e-06
-7.15551e-09
2.70967e-09
5.38502e-09
-2.24304e-06
-6.31781e-09
3.18948e-09
4.97797e-09
-2.53026e-06
-5.81785e-09
3.50158e-09
4.7224e-09
-2.82109e-06
-5.4994e-09
3.65629e-09
4.55719e-09
-3.1188e-06
-5.29281e-09
3.65709e-09
4.4446e-09
-3.42455e-06
-5.15347e-09
4.35975e-09
-3.73801e-06
-5.05362e-09
3.50204e-09
1.80031e-09
5.28604e-09
-1.59218e-06
3.19409e-09
4.22037e-09
-1.95455e-06
4.26039e-09
3.71149e-09
-2.2498e-06
5.05527e-09
3.41377e-09
-2.538e-06
5.60085e-09
3.22653e-09
-2.82988e-06
5.90324e-09
3.10544e-09
-3.12875e-06
5.95717e-09
3.0236e-09
-3.43575e-06
2.96488e-09
-3.75053e-06
5.74705e-09
2.14844e-09
2.52486e-09
-1.59576e-06
3.80385e-09
1.90982e-09
-1.9589e-06
5.05253e-09
1.63039e-09
-2.25483e-06
5.96771e-09
1.46857e-09
-2.54373e-06
6.57681e-09
1.37066e-09
-2.83637e-06
6.89072e-09
1.30985e-09
-3.13604e-06
6.9088e-09
1.27096e-09
-3.44388e-06
1.24355e-09
-3.75955e-06
6.62405e-09
2.33615e-09
-5.01972e-10
-1.59788e-06
4.12941e-09
-6.16399e-10
-1.96149e-06
5.48611e-09
-6.52159e-10
-2.25783e-06
6.48215e-09
-6.6729e-10
-2.54715e-06
7.15054e-09
-6.72096e-10
-2.84025e-06
7.50262e-09
-6.70686e-10
-3.14041e-06
7.53651e-09
-6.64578e-10
-3.44877e-06
-6.53352e-10
-3.765e-06
7.23838e-09
2.22326e-09
-3.38734e-09
-1.59833e-06
3.91735e-09
-3.00858e-09
-1.96208e-06
5.17988e-09
-2.79853e-09
-2.2585e-06
6.09263e-09
-2.66756e-09
-2.54789e-06
6.69235e-09
-2.57921e-09
-2.84105e-06
6.99571e-09
-2.51669e-09
-3.14127e-06
7.0056e-09
-2.46761e-09
-3.44969e-06
-2.42458e-09
-3.76596e-06
6.71575e-09
1.95244e-09
-5.87963e-09
-1.59718e-06
3.42558e-09
-5.04691e-09
-1.96072e-06
4.52587e-09
-4.62615e-09
-2.25692e-06
5.33129e-09
-4.37827e-09
-2.54607e-06
5.87745e-09
-4.22269e-09
-2.83896e-06
6.17845e-09
-4.12127e-09
-3.13889e-06
6.23438e-09
-4.04875e-09
-3.44701e-06
-3.98613e-09
-3.76297e-06
6.03076e-09
1.31327e-09
-1.59445e-06
-7.51986e-09
2.2604e-09
-1.95746e-06
-6.32989e-09
2.91905e-09
-2.25311e-06
-5.724e-09
3.35673e-09
-2.54165e-06
-5.36478e-09
3.61524e-09
-2.83386e-06
-5.13979e-09
3.72196e-09
-3.13304e-06
-4.99661e-09
3.69297e-09
-3.44033e-06
-4.89984e-09
-3.7554e-06
-4.82687e-09
3.5368e-09
6.74186e-10
2.73836e-09
-1.58753e-06
-3.25472e-09
1.18522e-09
1.55044e-09
-1.94888e-06
-1.85363e-09
1.54021e-09
1.00205e-09
-2.24316e-06
-1.1985e-09
1.77857e-09
7.0672e-10
-2.53032e-06
-8.40493e-10
1.93422e-09
5.55665e-10
-2.82109e-06
-6.62269e-10
2.02042e-09
4.98096e-10
-3.11874e-06
-5.9015e-10
2.04974e-09
4.92065e-10
-3.42444e-06
-5.83695e-10
5.13625e-10
-3.73784e-06
-6.12405e-10
2.02471e-09
1.07987e-09
1.75626e-09
-1.59226e-06
1.88603e-09
8.65299e-10
-1.95463e-06
2.47109e-09
4.64174e-10
-2.24981e-06
2.88983e-09
2.52336e-10
-2.53792e-06
3.17737e-09
1.45477e-10
-2.82972e-06
3.35263e-09
1.06178e-10
-3.12849e-06
3.42007e-09
1.05804e-10
-3.43538e-06
1.29794e-10
-3.75006e-06
3.36979e-09
1.28022e-09
4.86045e-10
-1.59576e-06
2.2097e-09
-2.81005e-11
-1.9589e-06
2.87137e-09
-2.49858e-10
-2.25474e-06
3.33715e-09
-3.681e-10
-2.54354e-06
3.64445e-09
-4.22658e-10
-2.83607e-06
3.81595e-09
-4.37802e-10
-3.13563e-06
3.86066e-09
-4.29881e-10
-3.44336e-06
-4.09515e-10
-3.7589e-06
3.77855e-09
1.36044e-09
-8.68535e-10
-1.59787e-06
2.3515e-09
-9.90747e-10
-1.96148e-06
3.06231e-09
-1.03094e-09
-2.25772e-06
3.56006e-09
-1.04752e-09
-2.54693e-06
3.89087e-09
-1.04793e-09
-2.83991e-06
4.07927e-09
-1.03796e-09
-3.13996e-06
4.13524e-09
-1.02118e-09
-3.44821e-06
-9.99193e-10
-3.76429e-06
4.05406e-09
1.2692e-09
-2.09513e-09
-1.59836e-06
2.1669e-09
-1.81851e-09
-1.9621e-06
2.79123e-09
-1.67126e-09
-2.25844e-06
3.21331e-09
-1.58362e-09
-2.54774e-06
3.4829e-09
-1.52852e-09
-2.8408e-06
3.62835e-09
-1.49283e-09
-3.14092e-06
3.66413e-09
-1.46836e-09
-3.44925e-06
-1.44825e-09
-3.76541e-06
3.59081e-09
1.08371e-09
-3.05178e-09
-1.59729e-06
1.82691e-09
-2.40488e-09
-1.96083e-06
2.33927e-09
-2.09459e-09
-2.25697e-06
2.68729e-09
-1.92267e-09
-2.54603e-06
2.92054e-09
-1.82922e-09
-2.83885e-06
3.06525e-09
-1.78341e-09
-3.13871e-06
3.13235e-09
-1.76336e-09
-3.44675e-06
-1.75304e-09
-3.76262e-06
3.11787e-09
6.52497e-10
-1.59468e-06
-3.45314e-09
1.05019e-09
-1.95771e-06
-2.50936e-09
1.26692e-09
-2.25333e-06
-2.05559e-09
1.37261e-09
-2.54184e-06
-1.80386e-09
1.41205e-09
-2.83403e-06
-1.6708e-09
1.4221e-09
-3.13319e-06
-1.61221e-09
1.42665e-09
-3.44047e-06
-1.59586e-09
-3.75553e-06
-1.6005e-09
1.43785e-09
2.37031e-10
-1.82829e-09
-1.58807e-06
2.14821e-09
3.76278e-10
-2.79006e-09
-1.94943e-06
3.28152e-09
4.02483e-10
-3.19948e-09
-2.24369e-06
3.7731e-09
3.81895e-10
-3.38777e-09
-2.53085e-06
4.00439e-09
3.52038e-10
-3.43211e-09
-2.82163e-06
4.06699e-09
3.48565e-10
-3.38439e-09
-3.11932e-06
4.01799e-09
3.94777e-10
-3.28395e-09
-3.42506e-06
3.90302e-09
-3.15857e-09
-3.73851e-06
3.75249e-09
4.98959e-10
4.1415e-10
-1.64181e-09
-1.59281e-06
6.43791e-10
-2.37252e-09
-1.9552e-06
7.3719e-10
-2.68357e-09
-2.25036e-06
7.70748e-10
-2.82756e-09
-2.53846e-06
7.8854e-10
-2.86275e-09
-2.83026e-06
8.27904e-10
-2.82786e-09
-3.12905e-06
9.08676e-10
-2.75228e-09
-3.43598e-06
-2.65527e-09
-3.75067e-06
1.03186e-09
4.5746e-10
-1.46345e-09
-1.59636e-06
6.87998e-10
-1.91202e-09
-1.95953e-06
7.60979e-10
-2.0995e-09
-2.25535e-06
7.65552e-10
-2.18334e-09
-2.54415e-06
7.52745e-10
-2.19953e-09
-2.83669e-06
7.65845e-10
-2.17172e-09
-3.13628e-06
8.30296e-10
-2.11828e-09
-3.44405e-06
-2.05162e-09
-3.75963e-06
9.51958e-10
4.60126e-10
-1.25573e-09
-1.5985e-06
6.71089e-10
-1.38787e-09
-1.96216e-06
7.17723e-10
-1.44006e-09
-2.25839e-06
6.99903e-10
-1.46017e-09
-2.5476e-06
6.70888e-10
-1.45782e-09
-2.8406e-06
6.78362e-10
-1.44055e-09
-3.14068e-06
7.5036e-10
-1.41413e-09
-3.44898e-06
-1.38169e-09
-3.76511e-06
8.92742e-10
3.61998e-10
-8.94553e-10
-1.59905e-06
4.84528e-10
-7.08946e-10
-1.96286e-06
4.48341e-10
-6.23918e-10
-2.25918e-06
3.59277e-10
-5.78022e-10
-2.5485e-06
2.73894e-10
-5.55875e-10
-2.84159e-06
2.425e-10
-5.47565e-10
-3.14177e-06
2.97074e-10
-5.47124e-10
-3.45016e-06
-5.5012e-10
-3.76639e-06
4.4751e-10
2.46552e-10
-3.71777e-10
-1.59802e-06
2.77123e-10
1.18292e-10
-1.96164e-06
1.73683e-10
3.25105e-10
-2.25777e-06
4.50235e-11
4.21751e-10
-2.54687e-06
-5.81461e-11
4.5272e-10
-2.83973e-06
-8.603e-11
4.44213e-10
-3.13966e-06
-1.08326e-11
4.15646e-10
-3.44778e-06
3.73538e-10
-3.76373e-06
1.76064e-10
-1.09257e-11
-1.59545e-06
4.44162e-10
-1.64443e-10
-1.95855e-06
1.15539e-09
-4.16697e-10
-2.25419e-06
1.47451e-09
-6.85864e-10
-2.54275e-06
1.62608e-09
-9.06241e-10
-2.835e-06
1.67237e-09
-1.02295e-09
-3.13426e-06
1.6501e-09
-9.96734e-10
-3.44166e-06
1.58829e-09
-3.75684e-06
1.50654e-09
-8.13567e-10
-1.88068e-10
-6.37246e-09
-1.58898e-06
7.50997e-09
-4.79355e-10
-7.14215e-09
-1.95034e-06
8.40519e-09
-8.3383e-10
-7.43069e-09
-2.2446e-06
8.74274e-09
-1.17919e-09
-7.52253e-09
-2.5318e-06
8.85093e-09
-1.44568e-09
-7.46874e-09
-2.82267e-06
8.78886e-09
-1.57284e-09
-7.31897e-09
-3.12048e-06
8.61262e-09
-1.51637e-09
-7.11503e-09
-3.42638e-06
8.36951e-09
-6.88644e-09
-3.73999e-06
8.09226e-09
-1.26376e-09
-2.38267e-10
-5.03299e-09
-1.59387e-06
-6.25115e-10
-5.62831e-09
-1.95629e-06
-1.06684e-09
-5.85527e-09
-2.25146e-06
-1.48056e-09
-5.93182e-09
-2.53962e-06
-1.78624e-09
-5.89656e-09
-2.83152e-06
-1.91911e-09
-5.78702e-09
-3.13046e-06
-1.83434e-09
-5.63483e-09
-3.43756e-06
-5.46145e-09
-3.75245e-06
-1.51884e-09
-3.49587e-10
-3.45175e-09
-1.59756e-06
-8.63875e-10
-3.83621e-09
-1.96078e-06
-1.42835e-09
-3.98407e-09
-2.25664e-06
-1.95085e-09
-4.03597e-09
-2.54551e-06
-2.34148e-09
-4.01501e-09
-2.83818e-06
-2.5263e-09
-3.94566e-09
-3.13795e-06
-2.45382e-09
-3.84793e-09
-3.44593e-06
-3.73592e-09
-3.76173e-06
-2.10598e-09
-4.38841e-10
-1.68826e-09
-1.5998e-06
-1.05427e-09
-1.83515e-09
-1.96352e-06
-1.71117e-09
-1.89403e-09
-2.25981e-06
-2.31171e-09
-1.91909e-09
-2.54912e-06
-2.75863e-09
-1.914e-09
-2.84226e-06
-2.97231e-09
-1.88948e-09
-3.14254e-06
-2.89685e-09
-1.85274e-09
-3.45107e-06
-1.80895e-09
-3.76745e-06
-2.51288e-09
-5.3831e-10
2.344e-10
-1.60041e-06
-1.24913e-09
3.27342e-10
-1.96429e-06
-1.99228e-09
3.63505e-10
-2.26069e-06
-2.66579e-09
3.65268e-10
-2.55011e-06
-3.17133e-09
3.56477e-10
-2.84337e-06
-3.42396e-09
3.36592e-10
-3.14376e-06
-3.36397e-09
3.12422e-10
-3.45242e-06
2.8625e-10
-3.76892e-06
-2.96689e-09
-5.90322e-10
2.22669e-09
-1.5994e-06
-1.34061e-09
2.54459e-09
-1.9631e-06
-2.10028e-09
2.65767e-09
-2.2593e-06
-2.78554e-09
2.68568e-09
-2.54851e-06
-3.29054e-09
2.65611e-09
-2.84154e-06
-3.53533e-09
2.58856e-09
-3.14169e-06
-3.46149e-09
2.50017e-09
-3.45007e-06
2.40341e-09
-3.7663e-06
-3.04767e-09
-6.64595e-10
-1.5968e-06
4.25401e-09
-1.46036e-09
-1.95997e-06
4.76767e-09
-2.26451e-09
-2.25568e-06
4.95777e-09
-2.98832e-09
-2.54436e-06
5.01503e-09
-3.53679e-09
-2.83679e-06
4.97643e-09
-3.82597e-09
-3.13628e-06
4.87391e-09
-3.79399e-09
-3.44395e-06
4.73494e-09
-3.75943e-06
4.57739e-09
-3.41256e-09
-6.43551e-10
-1.09949e-08
1.29603e-08
-1.59028e-06
-1.4723e-09
-1.15913e-08
1.36344e-08
-1.95157e-06
-2.33399e-09
-1.17671e-08
1.38269e-08
-2.24582e-06
-3.12932e-09
-1.17659e-08
1.38166e-08
-2.53308e-06
-3.74676e-09
-1.1615e-08
1.36339e-08
-2.8241e-06
-4.07757e-09
-1.13629e-08
1.33324e-08
-3.12216e-06
-4.03122e-09
-1.10542e-08
1.29613e-08
-3.42838e-06
-1.07204e-08
1.25563e-08
-3.58461e-09
-3.74233e-06
-9.28544e-10
-8.49876e-09
-1.59543e-06
-2.0315e-09
-8.97216e-09
-1.95782e-06
-3.13399e-09
-9.12196e-09
-2.25303e-06
-4.11849e-09
-9.13455e-09
-2.54129e-06
-4.85833e-09
-9.03023e-09
-2.83339e-06
-5.23769e-09
-8.84597e-09
-3.13263e-06
-5.16891e-09
-8.61581e-09
-3.44011e-06
-8.36446e-09