/*--------------------------------*- C++ -*----------------------------------*\
| =========                 |                                                 |
| \\      /  F ield         | OpenFOAM: The Open Source CFD Toolbox           |
|  \\    /   O peration     | Version:  plus.master.MPPICInterFoam            |
|   \\  /    A nd           | Web:      www.OpenFOAM.com                      |
|    \\/     M anipulation  |                                                 |
\*---------------------------------------------------------------------------*/
FoamFile
{
    version     2.0;
    format      ascii;
    class       volScalarField;
    location    "14";
    object      p_rgh;
}
// * * * * * * * * * * * * * * * * * * * * * * * * * * * * * * * * * * * * * //

dimensions      [1 -1 -2 0 0 0 0];

internalField   nonuniform List<scalar> 
11821
(
5672.46
5672.56
5672.09
5585.8
5672.16
5671.69
5669.54
5668.84
5669.12
5669.76
5670.34
5670.78
5671.09
5207.8
4985.06
4954.6
5419.68
5657.74
5670.36
5670.87
3782.89
3410.69
3429.4
4238.66
5403.58
5669.9
5670.67
3270.22
4458.33
4244.63
3504.36
4948.66
5669.48
5670.55
3286.87
4465.39
4467.12
3484.77
4886.36
5669.42
5670.56
3391.26
3264.29
3265.27
3617.6
5010.42
5670.02
5670.82
4348.1
3763.74
3667.4
4564.32
5509.9
5670.56
5671.14
5675.83
5675.09
5675.24
5675.31
5675.16
5675.16
5675.23
5201.91
4934.75
4934.87
5434.54
5664.41
5675.1
5675.15
3614.08
3345.34
3348.78
4232.04
5418.4
5675.3
5675.22
3216.41
3889.96
3601.95
3448.92
4967.16
5675.34
5675.32
3213.56
4450.23
4449.28
3418.9
4888.95
5675.19
5675.3
3204.14
3201.65
3202.76
3408.82
5037.19
5676.27
5675.76
4338.96
3703.61
3656.03
4587.62
5511.54
5676.26
5675.95
5683.52
5683.12
5682.97
5682.65
5682.07
5681.65
5681.33
5298.89
5067.66
5071.81
5512.28
5678.04
5682.03
5681.55
3828.49
3289.28
3351.56
4523.83
5505.24
5682.59
5681.84
3164.19
3136.41
3132.63
3500.55
5138.88
5683.06
5682.08
3159.79
4088.26
3601.51
3431.93
5091.05
5683.04
5682.16
3304.58
3140.9
3140.11
3691.24
5211.96
5683.27
5682.37
4543.6
3936.38
3941.81
4829.72
5551.1
5682.96
5682.34
5689.94
5689.71
5689.49
5689.11
5688.52
5687.97
5687.47
5372.67
5227.21
5199.26
5554.79
5688.01
5688.46
5687.82
4146.77
3335.69
3479.97
4790.76
5559.76
5689.04
5688.2
3287.5
3069.14
3067.63
3658
5260.81
5689.39
5688.45
3353.54
3067.96
3068.41
3530.96
5241.4
5689.36
5688.53
3900.43
3075.79
3081.07
4129.28
5314.52
5689.54
5688.64
4631.23
4140
4113.42
4935.28
5574.99
5689.19
5688.51
5695.25
5695.42
5695.35
5694.88
5694.27
5693.66
5693.1
5362.9
5252.41
5208.85
5556
5694.23
5694.21
5693.52
4106.29
3456.63
3567.22
4819.1
5564.32
5694.86
5693.96
3513.01
3008.41
3008.41
3747.11
5271.7
5695.36
5694.27
3744.11
3007.75
3008.14
3599.9
5264.8
5695.42
5694.36
4076.64
3024.47
3132.32
4100.59
5310.92
5695.25
5694.3
4482.13
4036.39
3994.7
4873.25
5572.5
5694.63
5694.02
5699.4
5699.73
5699.83
5699.34
5698.85
5698.34
5697.87
5310.71
5231.7
5188.24
5545.45
5698.34
5698.82
5698.24
3903.45
3428.89
3514.32
4796.34
5554.3
5699.34
5698.61
3367.79
3345.49
3589.77
3737.15
5256.61
5699.81
5698.9
3447.3
3428.48
3597.09
3624.47
5255.17
5699.89
5698.97
3693.39
2964.07
3119.32
3902.01
5279.98
5699.59
5698.85
4209.42
3779.1
3750
4773.36
5548.67
5699.11
5698.59
5702.55
5702.55
5702.47
5702.33
5702.15
5701.98
5701.79
5199.71
5134.21
5097.87
5513.12
5699.54
5702.16
5701.93
3683
3287.45
3411.86
4729.36
5515.06
5702.36
5702.08
2984.77
3627.78
3313.06
3666.24
5175.97
5702.54
5702.2
2954.09
3847.32
3834.3
3566.34
5178.23
5702.56
5702.24
3003.66
2898.6
2966.38
3693.72
5186.67
5702.5
5702.24
4093.85
3636.81
3624
4696.09
5493.46
5702.28
5702.14
5706.24
5706.11
5706.04
5706
5705.98
5705.96
5705.93
5045.87
4942.41
4923.86
5474.81
5700.72
5706
5705.95
3557.25
3006.73
3264.06
4563.55
5463.7
5706.11
5705.99
2886.09
3049.35
2851.1
3483.05
5018.28
5706.23
5706.03
2884.07
3807.04
3509.71
3387.55
4992.58
5706.27
5706.03
2879.21
2833.41
2832.99
3572.89
5022.95
5706.21
5706.06
4012.82
3532.53
3526.66
4571.16
5405
5705.95
5706.01
5710.94
5711.02
5711
5710.88
5710.8
5710.74
5710.71
4942.26
4817.66
4830.45
5465.83
5705.01
5710.82
5710.74
3408.46
2823.08
3174.3
4421.41
5447.9
5710.99
5710.79
2822.77
2791.03
2786.61
3350.21
4936.01
5711.18
5710.85
3207.17
3768.87
2780.84
3177.38
4875.16
5711.16
5710.84
2949.11
2766.7
2778
3446.31
4922.31
5711.07
5710.83
3802.45
3290.98
3347.76
4365.96
5339.24
5710.71
5710.71
5715.8
5715.85
5715.84
5715.78
5715.76
5715.75
5715.76
4930.98
4816.9
4839.56
5476.9
5710.82
5715.78
5715.77
3223.62
2791.4
3155.41
4422.38
5457.9
5715.9
5715.82
2933.47
2777.19
3192.21
3358.57
4945.28
5716.01
5715.85
2771.2
3561.78
3084.99
3147.67
4882.23
5715.96
5715.82
2891.09
2698.79
2702.31
3395.96
4922.66
5715.87
5715.78
3481.76
2969.35
3203.72
4288.57
5332.98
5715.6
5715.68
5720.36
5720.32
5720.46
5720.64
5720.71
5720.77
5720.82
4942.6
4863.81
4898.3
5504.86
5717.42
5720.76
5720.82
3160
2827.93
3231.23
4511.76
5485.16
5720.82
5720.85
2915
3210.62
3249.55
3476.64
4998.98
5720.84
5720.85
2651.09
2649.96
3239.81
3233.92
4937.71
5720.8
5720.82
2687.38
2632.6
2669.38
3405.06
4963.57
5720.76
5720.79
3394.45
2913.31
3190.26
4297.13
5337.42
5720.58
5720.73
5725.45
5725.34
5725.45
5725.62
5725.73
5725.83
5725.91
4931.8
4859.69
4906.75
5528.82
5723.61
5725.79
5725.88
3109.71
2764.63
3216.63
4504.84
5507.55
5725.82
5725.88
2672.23
2701.62
2622.44
3433.61
5012.72
5725.82
5725.87
2630.96
2523.55
2740.57
3188.56
4940.59
5725.75
5725.84
2568.1
2567.85
2634.13
3380.21
4969.16
5725.77
5725.86
3395.14
2973.04
3240.24
4273.53
5330.47
5725.65
5725.84
5731.65
5731.66
5731.64
5731.55
5731.47
5731.42
5731.4
4904.74
4841.89
4894.47
5550.96
5730.65
5731.49
5731.44
3014.94
2621.17
3125.35
4445.38
5530.12
5731.66
5731.51
2448.96
2454.26
2462.41
3271.4
5008.23
5731.83
5731.57
2726.9
2466.1
2464.08
3059.34
4927.26
5731.85
5731.58
2499.68
2463.61
2545.44
3261.4
4955.9
5731.71
5731.54
3355.72
2959.41
3178.67
4152.23
5317.25
5731.43
5731.44
5737.83
5737.86
5737.7
5737.46
5737.26
5737.11
5737
4893.52
4861.33
4909.63
5580.43
5737.45
5737.28
5737.11
2807.81
2526.29
3022.37
4420.34
5565.21
5737.55
5737.26
2372.71
2413.61
2912.1
3131.54
5030.19
5737.89
5737.41
2426
3262.16
3111.23
3000.73
4944.57
5738.05
5737.47
2606.98
2450.24
2451.68
3034.18
4964.34
5737.84
5737.4
3195.98
2797.43
2954.25
3946.39
5322.92
5737.42
5737.24
5743.16
5742.79
5742.74
5742.72
5742.63
5742.55
5742.48
4931.28
4970.31
4998.17
5615.5
5742.76
5742.67
5742.58
2679.06
2480.82
2994.76
4491.39
5609.85
5742.9
5742.72
2297.63
3143.46
3474.72
3158.9
5122.37
5743.15
5742.86
2295.44
3475.11
3474.41
2949.83
5048.99
5743.23
5742.91
2697.79
2431.88
2412.79
2969.05
5044.06
5743.3
5742.94
2853.08
2526.35
2728.64
3912.76
5368.26
5743.07
5742.87
5748.83
5748.42
5748.45
5748.43
5748.29
5748.18
5748.06
5062.38
5126.68
5137.3
5647.2
5748.5
5748.34
5748.19
2700.34
2637.34
3107.33
4721.35
5646.88
5748.6
5748.35
2232.87
3432.33
3431.2
3387.71
5249.07
5748.78
5748.47
2230.46
3432.8
3431.63
3001.26
5190.3
5748.77
5748.49
2386.32
2481.01
2375.06
3078.74
5179.81
5748.87
5748.55
2730.14
2469.24
2711.82
4039.98
5443.54
5748.75
5748.51
5665.58
5667.83
5669.91
5669.42
5669.07
5668.78
5668.67
5668.57
5671.55
5670.73
5670.07
5669.56
5669.2
5668.95
5668.78
5668.7
5671.51
5670.77
5670.16
5669.68
5669.34
5669.1
5668.95
5668.88
5671.33
5670.7
5670.2
5669.81
5669.53
5669.34
5669.23
5669.22
5670.98
5670.52
5670.16
5669.89
5669.7
5669.59
5669.53
5669.55
5671.27
5671.38
5671.48
5671.55
5671.62
5671.2
5666.79
5663.65
5671.16
5671.3
5671.41
5671.5
5671.57
5670.94
5670.15
5671.17
5671.05
5671.26
5671.39
5671.49
5671.56
5671.56
5671.65
5671.67
5671
5671.24
5671.4
5671.51
5671.6
5671.67
5671.72
5671.77
5671.04
5671.29
5671.46
5671.58
5671.68
5671.76
5671.83
5671.92
5671.23
5671.43
5671.6
5671.74
5671.85
5671.95
5672.04
5672.15
5671.36
5671.52
5671.69
5671.84
5671.97
5672.11
5672.24
5672.38
5675.24
5675.34
5675.44
5675.54
5675.64
5675.51
5672.12
5667.99
5675.19
5675.28
5675.39
5675.5
5675.6
5675.18
5675.07
5675.44
5675.19
5675.26
5675.36
5675.47
5675.58
5675.63
5675.76
5675.87
5675.25
5675.3
5675.4
5675.51
5675.63
5675.74
5675.84
5675.96
5675.34
5675.4
5675.5
5675.61
5675.73
5675.85
5675.97
5676.12
5675.64
5675.65
5675.73
5675.83
5675.94
5676.06
5676.19
5676.33
5675.72
5675.75
5675.84
5675.96
5676.09
5676.24
5676.4
5676.56
5681.02
5680.91
5680.85
5680.82
5680.82
5680.84
5677.9
5672.91
5681.17
5680.98
5680.87
5680.82
5680.81
5680.52
5680.49
5680.68
5681.35
5681.08
5680.93
5680.85
5680.82
5680.8
5680.89
5680.97
5681.52
5681.21
5681.03
5680.93
5680.9
5680.92
5680.99
5681.09
5681.65
5681.35
5681.17
5681.07
5681.04
5681.07
5681.15
5681.27
5681.82
5681.55
5681.39
5681.3
5681.27
5681.3
5681.39
5681.52
5681.73
5681.55
5681.45
5681.41
5681.44
5681.52
5681.64
5681.79
5687
5686.76
5686.58
5686.45
5686.37
5686.34
5684.11
5679.64
5687.27
5686.91
5686.66
5686.48
5686.37
5686.19
5686.13
5686.31
5687.53
5687.09
5686.77
5686.55
5686.42
5686.34
5686.38
5686.44
5687.74
5687.25
5686.91
5686.67
5686.53
5686.47
5686.49
5686.57
5687.86
5687.39
5687.05
5686.82
5686.68
5686.63
5686.66
5686.76
5687.95
5687.54
5687.24
5687.04
5686.91
5686.87
5686.91
5687.02
5687.75
5687.45
5687.25
5687.12
5687.07
5687.09
5687.18
5687.3
5692.59
5692.3
5692.06
5691.89
5691.78
5691.72
5690.05
5686.56
5692.91
5692.49
5692.17
5691.93
5691.78
5691.66
5691.59
5691.72
5693.21
5692.69
5692.3
5692.02
5691.84
5691.74
5691.74
5691.8
5693.45
5692.88
5692.45
5692.15
5691.95
5691.85
5691.85
5691.92
5693.56
5693
5692.58
5692.28
5692.09
5692.01
5692.01
5692.1
5693.56
5693.08
5692.72
5692.46
5692.3
5692.23
5692.25
5692.34
5693.25
5692.91
5692.68
5692.52
5692.44
5692.43
5692.49
5692.6
5697.46
5697.21
5697.01
5696.86
5696.77
5696.73
5695.49
5691.81
5697.74
5697.37
5697.1
5696.9
5696.77
5696.69
5696.65
5696.75
5697.99
5697.54
5697.21
5696.97
5696.81
5696.74
5696.74
5696.81
5698.2
5697.7
5697.33
5697.07
5696.9
5696.82
5696.83
5696.9
5698.28
5697.79
5697.43
5697.18
5697.02
5696.95
5696.96
5697.05
5698.25
5697.84
5697.53
5697.32
5697.18
5697.13
5697.15
5697.24
5697.94
5697.65
5697.45
5697.33
5697.27
5697.28
5697.34
5697.44
5701.63
5701.53
5701.45
5701.4
5701.38
5701.39
5700.5
5696.62
5701.73
5701.58
5701.47
5701.4
5701.37
5701.36
5701.38
5701.49
5701.83
5701.65
5701.51
5701.42
5701.38
5701.38
5701.43
5701.52
5701.92
5701.72
5701.57
5701.48
5701.43
5701.43
5701.48
5701.59
5701.97
5701.77
5701.63
5701.54
5701.49
5701.5
5701.56
5701.68
5702
5701.82
5701.71
5701.64
5701.6
5701.62
5701.69
5701.81
5701.79
5701.68
5701.63
5701.62
5701.65
5701.71
5701.8
5701.92
5705.91
5705.91
5705.93
5705.95
5706
5706.05
5705.43
5701.58
5705.91
5705.9
5705.91
5705.93
5705.97
5706.02
5706.09
5706.21
5705.92
5705.89
5705.89
5705.91
5705.95
5706.01
5706.1
5706.23
5705.94
5705.9
5705.9
5705.92
5705.96
5706.02
5706.12
5706.26
5705.95
5705.92
5705.91
5705.93
5705.98
5706.05
5706.16
5706.3
5705.99
5705.96
5705.98
5706
5706.04
5706.12
5706.22
5706.36
5705.81
5705.81
5705.86
5705.94
5706.03
5706.14
5706.27
5706.4
5710.68
5710.71
5710.75
5710.79
5710.85
5710.92
5710.5
5706.73
5710.68
5710.69
5710.72
5710.76
5710.82
5710.88
5710.98
5711.1
5710.69
5710.67
5710.69
5710.73
5710.78
5710.86
5710.97
5711.1
5710.71
5710.67
5710.68
5710.71
5710.77
5710.85
5710.97
5711.11
5710.7
5710.65
5710.66
5710.7
5710.76
5710.85
5710.97
5711.11
5710.7
5710.67
5710.7
5710.73
5710.79
5710.88
5711
5711.15
5710.49
5710.49
5710.56
5710.65
5710.75
5710.87
5711
5711.15
5715.72
5715.76
5715.79
5715.83
5715.88
5715.95
5715.68
5711.97
5715.73
5715.75
5715.77
5715.81
5715.86
5715.92
5716.02
5716.13
5715.75
5715.73
5715.74
5715.77
5715.82
5715.9
5716
5716.14
5715.75
5715.72
5715.72
5715.75
5715.8
5715.88
5715.99
5716.13
5715.72
5715.69
5715.7
5715.73
5715.79
5715.87
5715.99
5716.11
5715.69
5715.68
5715.7
5715.74
5715.8
5715.89
5716
5716.14
5715.48
5715.49
5715.56
5715.64
5715.74
5715.85
5715.99
5716.12
5720.81
5720.85
5720.89
5720.93
5720.99
5721.06
5720.92
5717.25
5720.81
5720.84
5720.88
5720.92
5720.97
5721.03
5721.14
5721.25
5720.82
5720.83
5720.85
5720.89
5720.94
5721.02
5721.13
5721.26
5720.82
5720.81
5720.83
5720.87
5720.92
5721.01
5721.12
5721.26
5720.79
5720.79
5720.81
5720.85
5720.91
5720.99
5721.11
5721.22
5720.77
5720.79
5720.81
5720.85
5720.92
5721.01
5721.12
5721.24
5720.56
5720.58
5720.67
5720.76
5720.85
5720.97
5721.1
5721.2
5725.92
5725.98
5726.03
5726.09
5726.16
5726.25
5726.21
5722.63
5725.9
5725.96
5726.02
5726.08
5726.15
5726.23
5726.34
5726.46
5725.9
5725.95
5726
5726.06
5726.13
5726.22
5726.34
5726.47
5725.89
5725.93
5725.98
5726.05
5726.12
5726.22
5726.34
5726.48
5725.87
5725.91
5725.97
5726.03
5726.11
5726.21
5726.33
5726.43
5725.87
5725.92
5725.97
5726.04
5726.12
5726.22
5726.34
5726.46
5725.72
5725.77
5725.87
5725.97
5726.07
5726.19
5726.33
5726.42
5731.34
5731.37
5731.4
5731.45
5731.51
5731.58
5731.62
5728.17
5731.36
5731.37
5731.4
5731.44
5731.5
5731.57
5731.68
5731.79
5731.41
5731.39
5731.4
5731.44
5731.49
5731.58
5731.68
5731.81
5731.45
5731.41
5731.41
5731.44
5731.5
5731.58
5731.7
5731.83
5731.45
5731.4
5731.41
5731.44
5731.5
5731.59
5731.71
5731.78
5731.43
5731.4
5731.42
5731.46
5731.53
5731.62
5731.73
5731.82
5731.24
5731.26
5731.33
5731.41
5731.5
5731.61
5731.73
5731.83
5736.87
5736.87
5736.87
5736.9
5736.95
5737.02
5737.06
5733.82
5736.95
5736.91
5736.9
5736.91
5736.95
5737.01
5737.1
5737.21
5737.05
5736.96
5736.93
5736.93
5736.96
5737.02
5737.12
5737.24
5737.15
5737.02
5736.96
5736.95
5736.98
5737.04
5737.14
5737.27
5737.18
5737.04
5736.98
5736.98
5737
5737.07
5737.17
5737.22
5737.15
5737.04
5737
5737.01
5737.05
5737.12
5737.22
5737.21
5736.95
5736.91
5736.93
5736.98
5737.04
5737.14
5737.25
5737.36
5742.34
5742.33
5742.34
5742.36
5742.39
5742.45
5742.47
5739.51
5742.44
5742.4
5742.38
5742.38
5742.4
5742.45
5742.53
5742.62
5742.55
5742.47
5742.42
5742.41
5742.42
5742.47
5742.55
5742.65
5742.66
5742.54
5742.47
5742.45
5742.45
5742.5
5742.59
5742.7
5742.7
5742.57
5742.51
5742.48
5742.49
5742.54
5742.63
5742.66
5742.71
5742.6
5742.55
5742.54
5742.56
5742.61
5742.7
5742.42
5742.58
5742.52
5742.52
5742.54
5742.59
5742.67
5742.77
5742.87
5747.89
5747.84
5747.81
5747.79
5747.79
5747.82
5747.79
5745.17
5748.01
5747.92
5747.85
5747.81
5747.8
5747.82
5747.88
5747.95
5748.13
5748
5747.9
5747.85
5747.82
5747.84
5747.9
5747.98
5748.23
5748.07
5747.96
5747.89
5747.86
5747.88
5747.94
5748.02
5748.27
5748.11
5748
5747.94
5747.91
5747.93
5747.99
5747.99
5748.3
5748.16
5748.06
5748.01
5747.99
5748.01
5748.08
5747.45
5748.21
5748.11
5748.07
5748.05
5748.05
5748.1
5748.17
5748.25
5579.74
5670.65
5671.51
5672.17
5672.71
5673.15
5673.55
5673.9
4516.23
5655.72
5670.38
5671.44
5672.21
5672.81
5673.33
5673.43
3987.17
5540.43
5669.72
5670.99
5671.01
5672.28
5673.1
5673.23
4099.35
5561.68
5669.68
5670.75
5670.72
5672.34
5673.04
5673.48
5082.08
5669.02
5670.36
5671.25
5672.01
5672.39
5673
5673.45
5650.82
5670.25
5671.1
5671.21
5671.3
5672.31
5672.99
5673.22
5670.68
5671.38
5671.85
5672.2
5672.48
5672.74
5672.97
5673.21
5562.12
5677.12
5677.09
5677.18
5677.35
5677.6
5677.93
5678.3
4535.78
5665.09
5677.32
5677.15
5677.22
5677.44
5677.83
5678.01
3954.89
5544.2
5676.54
5676.53
5676.59
5676.88
5677.51
5677.64
4039.35
5564.15
5676.22
5676.18
5676.35
5676.85
5677.34
5677.77
5082.64
5676.32
5676.14
5676.28
5676.51
5676.5
5677.18
5677.68
5650.87
5675.87
5676
5676.07
5675.87
5676.62
5677.09
5676.98
5675.9
5676.05
5676.21
5676.36
5676.54
5676.75
5676.98
5677.24
5563.4
5683.64
5683.52
5683.45
5683.45
5683.57
5683.84
5684.2
4797.13
5670.92
5684.28
5683.84
5683.61
5683.6
5683.91
5684.26
4251.85
5578.63
5683.89
5683.53
5683.28
5683.39
5683.71
5683.75
4284.37
5596.52
5683.97
5683.47
5683.26
5683.28
5683.53
5683.82
5198.98
5684.36
5683.57
5683.19
5682.99
5682.69
5683.2
5683.63
5661.2
5683.19
5682.87
5682.7
5682.55
5682.61
5682.91
5682.64
5682.94
5682.73
5682.57
5682.45
5682.42
5682.47
5682.64
5682.85
5554.59
5689.58
5689.54
5689.44
5689.39
5689.47
5689.7
5690.02
4899.46
5656.29
5690.33
5689.95
5689.52
5689.53
5689.84
5690.2
4555.25
5579.65
5690.43
5690.01
5689.41
5689.63
5689.79
5689.75
4534.37
5601.46
5690.42
5689.93
5689.59
5689.48
5689.45
5689.79
5256.63
5690.5
5689.91
5689.49
5689.13
5688.75
5689.19
5689.09
5669.62
5689.53
5689.18
5688.89
5688.51
5688.58
5688.81
5688.47
5689.27
5689.01
5688.73
5688.51
5688.37
5688.34
5688.45
5688.64
5526.53
5694.81
5694.75
5694.67
5694.62
5694.68
5694.89
5695.16
4722.09
5633.63
5695.29
5695.03
5694.56
5694.63
5694.97
5695.3
4426.79
5539.27
5695.53
5695.21
5694.64
5694.85
5694.94
5695.12
4440.09
5574.89
5695.57
5695.16
5694.84
5694.71
5694.02
5694.94
5217.14
5695.41
5695.05
5694.72
5694.22
5693.98
5694.39
5693.77
5671.69
5694.77
5694.47
5694.19
5693.72
5693.85
5694.05
5693.77
5694.64
5694.4
5694.1
5693.87
5693.7
5693.65
5693.72
5693.89
5492.59
5699.4
5699.23
5699.11
5699.06
5699.1
5699.26
5699.5
4396.38
5628.24
5699.57
5699.31
5698.9
5698.93
5699.26
5699.58
4014.6
5502.72
5699.89
5699.48
5698.91
5698.33
5699.07
5699.51
4116.95
5536.84
5699.79
5699.38
5699.11
5699
5698.24
5698.82
5132.2
5699.57
5699.28
5699.01
5698.46
5698.35
5698.76
5698.1
5664.31
5699.08
5698.83
5698.6
5698.17
5698.36
5698.5
5698.49
5699.04
5698.84
5698.59
5698.4
5698.26
5698.22
5698.29
5698.45
5446.07
5702.53
5702.59
5702.61
5702.66
5702.76
5702.94
5703.17
4298.13
5616.45
5702.75
5702.68
5702.51
5702.53
5702.87
5703.23
3872.18
5474.56
5702.64
5702.58
5702.21
5701.52
5702.33
5703.11
3897.39
5496.71
5702.63
5702.55
5702.51
5702.49
5701.85
5702.05
5042.85
5702.39
5702.44
5702.4
5702.02
5702.14
5702.52
5701.88
5643.87
5702.29
5702.27
5702.21
5702.12
5702.27
5702.41
5702.5
5702.44
5702.41
5702.32
5702.26
5702.22
5702.25
5702.36
5702.54
5343.82
5705.2
5705.66
5705.91
5706.11
5706.31
5706.55
5706.82
4269.35
5560.42
5705.82
5705.97
5706.02
5706.13
5706.48
5706.88
3875.74
5403.84
5705.35
5705.7
5705.54
5705
5705.6
5706.78
3827.27
5418.72
5705.68
5705.86
5706
5705.86
5705.73
5705.79
4910.67
5701.15
5705.87
5705.97
5705.7
5705.96
5706.37
5705.75
5612.95
5705.83
5705.95
5705.98
5706.11
5706.23
5706.41
5706.51
5706.14
5706.25
5706.25
5706.26
5706.28
5706.35
5706.49
5706.69
5172.89
5709.37
5709.87
5710.1
5710.31
5710.53
5710.79
5711.08
4149.11
5444.21
5710.23
5710.26
5710.29
5710.47
5710.73
5711.16
3824.98
5240.15
5710.16
5710.19
5709.88
5709.27
5709.83
5711.11
3755.39
5276.29
5710.31
5710.31
5710.37
5710.01
5710.54
5710.27
4691.28
5693.74
5710.35
5710.38
5710.07
5710.32
5710.76
5710.13
5588.19
5710.36
5710.44
5710.44
5710.56
5710.68
5710.88
5710.97
5710.67
5710.76
5710.77
5710.76
5710.79
5710.87
5711.02
5711.22
5071.95
5713.87
5714.77
5714.95
5715.13
5715.34
5715.61
5715.87
3818.82
5357.39
5715.02
5715.02
5715.07
5715.29
5715.52
5715.96
3544.36
5079.43
5714.92
5714.93
5714.63
5714.01
5714.63
5715.91
3580.36
5160.51
5715.28
5715.16
5715.18
5714.95
5715.57
5715.66
4561.27
5691.42
5715.25
5715.24
5714.9
5715.13
5715.62
5714.94
5584.41
5715.23
5715.29
5715.31
5715.4
5715.51
5715.73
5715.83
5715.48
5715.58
5715.6
5715.61
5715.64
5715.72
5715.86
5716.07
5063.45
5716.97
5719.79
5720.01
5720.21
5720.41
5720.66
5720.92
3613.34
5348.27
5719.86
5719.96
5720.1
5720.07
5720.58
5721
3220.96
5048.12
5719.51
5719.74
5719.59
5718.98
5719.77
5720.97
3386.44
5141.89
5719.81
5719.94
5720.09
5720.18
5720.61
5721.01
4548.48
5693.73
5720.01
5720.12
5719.85
5720.14
5720.68
5720.29
5585.23
5719.92
5720.12
5720.26
5720.37
5720.52
5720.76
5720.91
5720.2
5720.41
5720.5
5720.55
5720.62
5720.72
5720.88
5721.08
5041.29
5717.8
5725.06
5725.29
5725.48
5725.66
5725.89
5726.18
3607.46
5337.6
5725.27
5725.33
5725.46
5724.54
5725.59
5725.8
3227.97
5041.06
5725.12
5725.22
5725.02
5724.34
5725.3
5726.33
3334.35
5128.89
5725.19
5725.29
5725.42
5725.6
5725.95
5726.34
4526.65
5694.19
5725.29
5725.41
5725.14
5725.5
5725.99
5726.14
5582.29
5725.1
5725.32
5725.48
5725.61
5725.78
5726
5726.23
5725.35
5725.61
5725.72
5725.77
5725.85
5725.97
5726.13
5726.33
4922.09
5713.47
5730.58
5730.83
5731.02
5731.19
5731.44
5731.78
3648.61
5260.35
5731.09
5731.08
5731.13
5730.04
5730.37
5731.38
3307.12
4989.16
5731.35
5731.21
5730.81
5730.08
5731.21
5731.88
3275.85
5059.41
5731.29
5731.2
5731.19
5731.36
5731.66
5732.04
4439.3
5685.72
5731.2
5731.15
5730.85
5731.32
5731.48
5731.81
5572.86
5731.08
5731.17
5731.23
5731.3
5731.42
5731.32
5731.84
5731.3
5731.42
5731.41
5731.42
5731.46
5731.56
5731.7
5731.88
4674.89
5709.67
5736.59
5736.77
5736.92
5737.08
5737.35
5737.72
3554.19
5049.4
5737.2
5737.08
5736.84
5735.93
5736.21
5737.46
3189.89
4786.27
5737.41
5737.19
5736.41
5735.95
5737.29
5737.42
3104.99
4881.46
5737.53
5737.26
5737.14
5737.27
5737.54
5737.89
4259.9
5676.19
5737.26
5737.02
5736.77
5737.2
5734.28
5737.53
5573.55
5737.14
5737.12
5737.1
5737.12
5737.18
5736.83
5737.59
5737.26
5737.25
5737.19
5737.17
5737.19
5737.26
5737.4
5737.56
4565.31
5717.01
5742.89
5742.95
5743
5743.14
5743.38
5743.74
3192.62
4905.27
5743.33
5743.11
5742.24
5741.87
5742.15
5743.59
2778.48
4543.34
5743.29
5743.05
5741.94
5741.85
5743.32
5743.28
2807.91
4782.25
5743.44
5743.13
5743
5743.11
5743.37
5743.67
4204.85
5681.23
5743.08
5742.85
5742.9
5742.85
5739.75
5743.27
5585.54
5742.72
5742.78
5742.79
5742.83
5742.8
5742.47
5743.27
5742.72
5742.77
5742.77
5742.78
5742.81
5742.89
5743.02
5743.17
4600.64
5730.39
5749.16
5749.07
5748.96
5749.06
5749.23
5749.52
2943.95
4925.73
5749.55
5749.16
5748.02
5747.92
5747.97
5749.44
2447.32
4527.12
5749.41
5749
5747.92
5748.31
5749.13
5748.97
2747.28
4809.18
5749.39
5748.97
5748.78
5748.83
5749.04
5749.26
4267.81
5696.7
5748.91
5748.7
5748.64
5747.14
5745.29
5748.91
5619.37
5748.43
5748.47
5748.44
5748.44
5748.2
5748.02
5748.8
5748.39
5748.37
5748.35
5748.34
5748.34
5748.4
5748.5
5748.63
5670.51
5671.06
5671.52
5671.87
5672.16
5672.41
5672.62
5672.82
5670.27
5670.94
5671.43
5671.78
5672.04
5672.26
5672.43
5672.61
5670.31
5670.95
5671.39
5671.65
5671.9
5672.07
5672.21
5672.36
5670.59
5671.09
5671.42
5671.64
5671.83
5671.95
5672.05
5672.15
5670.89
5671.23
5671.47
5671.64
5671.76
5671.86
5671.92
5671.96
5671.12
5671.35
5671.51
5671.62
5671.71
5671.78
5671.81
5671.82
5671.38
5671.53
5671.6
5671.66
5671.7
5671.73
5669.86
5665.31
5675.62
5675.68
5675.82
5676
5676.19
5676.41
5676.64
5676.86
5675.27
5675.42
5675.61
5675.8
5676
5676.2
5676.4
5676.61
5675.17
5675.28
5675.43
5675.59
5675.81
5675.99
5676.17
5676.34
5675.2
5675.27
5675.35
5675.56
5675.73
5675.89
5676.03
5676.16
5675.17
5675.28
5675.42
5675.56
5675.69
5675.82
5675.92
5676.06
5675.19
5675.32
5675.45
5675.57
5675.68
5675.78
5675.86
5675.28
5675.32
5675.46
5675.55
5675.63
5675.71
5675.78
5673.8
5668.45
5682.58
5682.26
5682.07
5681.97
5681.96
5682.04
5682.19
5682.37
5682.42
5682.07
5681.86
5681.72
5681.7
5681.73
5681.84
5682.01
5682.22
5681.82
5681.52
5681.41
5681.4
5681.42
5681.51
5681.63
5681.97
5681.59
5681.29
5681.23
5681.19
5681.21
5681.28
5681.38
5681.6
5681.33
5681.17
5681.07
5681.04
5681.05
5681.11
5681.21
5681.28
5681.12
5681.01
5680.94
5680.93
5680.94
5680.98
5679.88
5681.11
5681.03
5680.95
5680.9
5680.88
5680.9
5678.86
5673.34
5688.9
5688.49
5688.19
5687.98
5687.88
5687.87
5687.96
5688.1
5688.93
5688.44
5688.07
5687.75
5687.6
5687.53
5687.57
5687.69
5688.72
5688.17
5687.68
5687.41
5687.26
5687.17
5687.19
5687.27
5688.38
5687.84
5687.37
5687.15
5686.97
5686.89
5686.89
5686.97
5687.9
5687.46
5687.12
5686.88
5686.73
5686.66
5686.66
5686.73
5687.44
5687.1
5686.84
5686.66
5686.54
5686.49
5686.49
5685.23
5687.09
5686.87
5686.68
5686.53
5686.44
5686.4
5684.35
5678.61
5694.28
5693.88
5693.58
5693.35
5693.23
5693.2
5693.26
5693.38
5694.56
5694.01
5693.56
5693.23
5693.03
5692.92
5692.92
5693.02
5694.45
5693.81
5693.25
5692.91
5692.71
5692.58
5692.57
5692.61
5694.08
5693.47
5692.94
5692.66
5692.43
5692.3
5692.28
5692.33
5693.59
5693.07
5692.67
5692.37
5692.17
5692.07
5692.04
5692.09
5693.08
5692.67
5692.36
5692.12
5691.97
5691.88
5691.86
5690.27
5692.67
5692.4
5692.15
5691.97
5691.85
5691.79
5689.74
5683.76
5698.67
5698.35
5698.11
5697.93
5697.86
5697.85
5697.92
5698.04
5699.03
5698.55
5698.12
5697.91
5697.75
5697.66
5697.67
5697.76
5699
5698.44
5697.94
5697.69
5697.51
5697.4
5697.4
5697.44
5698.69
5698.14
5697.75
5697.49
5697.29
5697.19
5697.17
5697.23
5698.29
5697.85
5697.51
5697.26
5697.09
5697
5696.98
5697.04
5697.88
5697.53
5697.25
5697.05
5696.92
5696.86
5696.85
5694.48
5697.54
5697.29
5697.08
5696.93
5696.83
5696.78
5694.8
5688.57
5702.12
5702.01
5701.94
5701.91
5701.94
5702
5702.11
5702.24
5702.21
5702.08
5701.9
5701.88
5701.88
5701.89
5701.96
5702.08
5702.15
5701.97
5701.79
5701.76
5701.73
5701.73
5701.78
5701.86
5702.05
5701.84
5701.76
5701.68
5701.62
5701.62
5701.66
5701.75
5701.95
5701.79
5701.66
5701.58
5701.53
5701.52
5701.55
5701.65
5701.8
5701.66
5701.55
5701.49
5701.46
5701.46
5701.49
5698.31
5701.67
5701.58
5701.5
5701.45
5701.42
5701.43
5699.52
5693.07
5705.97
5705.94
5705.96
5706.01
5706.1
5706.21
5706.35
5706.51
5706.04
5706.01
5705.94
5706.04
5706.1
5706.18
5706.29
5706.42
5705.98
5705.9
5705.88
5705.98
5706.03
5706.1
5706.2
5706.31
5705.95
5705.88
5705.93
5705.97
5706.01
5706.07
5706.15
5706.28
5705.94
5705.93
5705.94
5705.96
5706
5706.06
5706.12
5706.25
5705.92
5705.92
5705.94
5705.96
5706
5706.06
5706.13
5702.71
5705.93
5705.95
5705.96
5705.98
5706.02
5706.07
5704.2
5697.57
5710.57
5710.52
5710.53
5710.59
5710.68
5710.8
5710.95
5711.11
5710.78
5710.68
5710.65
5710.69
5710.74
5710.82
5710.95
5711.07
5710.77
5710.62
5710.62
5710.67
5710.72
5710.8
5710.91
5711.03
5710.74
5710.64
5710.67
5710.69
5710.74
5710.82
5710.9
5711.04
5710.71
5710.68
5710.69
5710.72
5710.78
5710.85
5710.93
5711.06
5710.68
5710.7
5710.73
5710.77
5710.82
5710.89
5710.97
5707.66
5710.7
5710.74
5710.77
5710.81
5710.86
5710.93
5709.09
5702.24
5715.45
5715.4
5715.42
5715.48
5715.57
5715.69
5715.83
5715.99
5715.69
5715.61
5715.62
5715.63
5715.67
5715.74
5715.86
5715.99
5715.72
5715.61
5715.63
5715.64
5715.68
5715.75
5715.86
5716
5715.72
5715.67
5715.67
5715.68
5715.72
5715.79
5715.88
5716.01
5715.71
5715.7
5715.71
5715.73
5715.77
5715.84
5715.93
5716.05
5715.71
5715.73
5715.76
5715.79
5715.83
5715.9
5715.98
5713.35
5715.74
5715.77
5715.8
5715.84
5715.88
5715.95
5714.24
5707.05
5720.24
5720.27
5720.33
5720.45
5720.57
5720.71
5720.86
5721.02
5720.45
5720.49
5720.58
5720.62
5720.69
5720.79
5720.91
5721.04
5720.55
5720.58
5720.62
5720.67
5720.73
5720.82
5720.94
5721.08
5720.66
5720.67
5720.7
5720.74
5720.8
5720.88
5720.96
5721.11
5720.72
5720.74
5720.77
5720.8
5720.86
5720.93
5721.02
5721.14
5720.77
5720.8
5720.83
5720.87
5720.92
5720.99
5721.07
5719.34
5720.81
5720.85
5720.88
5720.92
5720.98
5721.04
5719.65
5711.99
5725.39
5725.45
5725.56
5725.68
5725.8
5725.95
5726.11
5726.27
5725.52
5725.61
5725.71
5725.8
5725.89
5726.01
5726.15
5726.28
5725.59
5725.67
5725.75
5725.84
5725.93
5726.04
5726.17
5726.31
5725.7
5725.76
5725.83
5725.91
5725.99
5726.08
5726.19
5726.33
5725.78
5725.84
5725.9
5725.96
5726.04
5726.13
5726.23
5726.33
5725.85
5725.91
5725.96
5726.03
5726.1
5726.18
5726.27
5724.89
5725.91
5725.97
5726.02
5726.08
5726.15
5726.23
5725.1
5717
5731.29
5731.23
5731.25
5731.31
5731.39
5731.51
5731.65
5731.8
5731.46
5731.38
5731.36
5731.39
5731.44
5731.53
5731.65
5731.78
5731.45
5731.37
5731.35
5731.38
5731.43
5731.51
5731.62
5731.75
5731.42
5731.36
5731.36
5731.39
5731.44
5731.52
5731.61
5731.75
5731.38
5731.35
5731.36
5731.39
5731.45
5731.52
5731.62
5731.24
5731.35
5731.35
5731.37
5731.41
5731.47
5731.55
5731.64
5730.43
5731.33
5731.36
5731.39
5731.44
5731.5
5731.58
5730.48
5721.92
5737.24
5737.08
5737.04
5737.04
5737.08
5737.17
5737.29
5737.43
5737.41
5737.21
5737.11
5737.08
5737.08
5737.14
5737.24
5737.36
5737.34
5737.15
5737.05
5737.01
5737.02
5737.08
5737.16
5737.29
5737.21
5737.06
5736.99
5736.97
5736.99
5737.04
5737.1
5737.24
5737.07
5736.98
5736.94
5736.94
5736.96
5737.02
5737.11
5736.44
5736.96
5736.91
5736.9
5736.92
5736.95
5737.01
5737.08
5736.11
5736.88
5736.86
5736.87
5736.9
5736.95
5737.02
5735.87
5726.63
5742.73
5742.63
5742.61
5742.62
5742.67
5742.75
5742.86
5742.98
5742.7
5742.64
5742.61
5742.6
5742.62
5742.67
5742.76
5742.87
5742.66
5742.58
5742.53
5742.52
5742.53
5742.58
5742.64
5742.77
5742.61
5742.53
5742.48
5742.47
5742.48
5742.53
5742.58
5742.71
5742.52
5742.46
5742.43
5742.42
5742.44
5742.48
5742.56
5742.21
5742.43
5742.4
5742.38
5742.39
5742.41
5742.46
5742.48
5741.44
5742.35
5742.33
5742.33
5742.36
5742.4
5742.46
5741.23
5731.31
5748.39
5748.25
5748.18
5748.15
5748.17
5748.23
5748.32
5748.41
5748.32
5748.22
5748.14
5748.09
5748.08
5748.12
5748.19
5748.27
5748.28
5748.15
5748.06
5748
5747.98
5748.01
5748.04
5748.15
5748.23
5748.09
5747.99
5747.93
5747.91
5747.93
5747.96
5748.06
5748.11
5748
5747.92
5747.87
5747.85
5747.86
5747.92
5747.97
5748.01
5747.92
5747.85
5747.82
5747.81
5747.83
5747.85
5744.29
5747.9
5747.84
5747.8
5747.79
5747.8
5747.83
5746.39
5736.29
5671.44
5671.13
5670.78
5670.47
5670.24
5670.11
5670.08
5670.13
5671.86
5671.47
5671.11
5670.81
5670.59
5670.47
5670.44
5670.48
5672.14
5671.92
5671.59
5671.29
5671.04
5670.92
5670.89
5670.26
5657.39
5672.14
5671.95
5671.7
5671.48
5671.33
5671.17
5670.74
5672.22
5671.93
5671.84
5671.68
5671.25
5671.16
5671.64
5672.22
5671.62
5671.93
5672.1
5672.23
5672.35
5672.47
5672.61
5672.79
5671.09
5671.54
5671.87
5672.12
5672.34
5672.55
5672.75
5672.95
5670.53
5671.17
5671.67
5672.06
5672.38
5672.67
5672.93
5672.47
5640.83
5670.7
5671.38
5671.93
5672.36
5672.7
5672.87
5672.68
5302
5670.34
5671.2
5671.86
5672.38
5672.76
5672.71
5672.87
5397.8
5670.23
5671.18
5671.92
5672.49
5672.83
5673.14
5673.76
5658.42
5670.66
5671.5
5672.15
5672.67
5673.1
5673.47
5673.87
5676.03
5676.17
5676.25
5676.34
5676.46
5676.57
5676.74
5676.95
5676.02
5676.08
5676.19
5676.31
5676.46
5676.66
5676.89
5677.11
5676.25
5676.19
5676.27
5676.41
5676.59
5676.82
5677.08
5676.64
5648.52
5676.47
5676.41
5676.52
5676.71
5676.81
5677.06
5676.89
5311.44
5676.71
5676.55
5676.65
5676.84
5676.96
5677.21
5677.64
5402.63
5677.01
5676.83
5676.9
5677.08
5677.07
5677.52
5678.1
5664.41
5677.36
5677.2
5677.22
5677.36
5677.55
5677.87
5678.28
5682.11
5682.03
5681.93
5681.87
5681.83
5681.88
5682.02
5682.21
5682.47
5682.28
5682.13
5682.04
5682.02
5682.1
5682.26
5682.46
5683.16
5682.8
5682.55
5682.4
5682.34
5682.4
5682.59
5682.09
5658.32
5683.52
5683.05
5682.79
5682.67
5682.49
5682.72
5682.47