/*--------------------------------*- C++ -*----------------------------------*\
| =========                 |                                                 |
| \\      /  F ield         | OpenFOAM: The Open Source CFD Toolbox           |
|  \\    /   O peration     | Version:  plus.master.MPPICInterFoam            |
|   \\  /    A nd           | Web:      www.OpenFOAM.com                      |
|    \\/     M anipulation  |                                                 |
\*---------------------------------------------------------------------------*/
FoamFile
{
    version     2.0;
    format      ascii;
    class       surfaceScalarField;
    location    "6.8";
    object      alphaPhi;
}
// * * * * * * * * * * * * * * * * * * * * * * * * * * * * * * * * * * * * * //

dimensions      [0 3 -1 0 0 0 0];

internalField   nonuniform List<scalar> 
34319
(
-2.12838e-08
-4.43889e-08
6.3415e-06
7.6554e-08
9.71332e-08
2.08741e-08
-2.47442e-08
5.56593e-06
1.8143e-07
4.99844e-08
1.14003e-08
4.8623e-06
1.85574e-07
1.02329e-07
6.08931e-09
4.66159e-06
1.77962e-07
1.93935e-07
-1.28631e-08
5.22561e-06
1.81226e-07
2.74035e-07
-3.5197e-08
6.13946e-06
1.10453e-07
-3.71737e-08
6.09664e-06
2.68943e-07
5.73252e-08
-3.90373e-08
1.68889e-08
5.65733e-06
1.76324e-07
2.62817e-08
6.04563e-08
3.71299e-06
3.21592e-08
4.65867e-08
3.7894e-06
3.785e-08
5.65342e-08
3.79498e-06
9.60265e-08
3.20256e-08
3.56055e-06
3.05646e-07
1.42188e-08
5.07821e-06
8.16142e-09
6.49171e-06
3.25523e-07
-2.04628e-08
5.20867e-08
5.20765e-06
2.04215e-07
-1.19175e-09
4.06898e-08
3.37097e-06
-1.89881e-08
1.52259e-08
4.11656e-06
-4.89441e-09
4.0418e-08
4.09577e-06
7.23494e-08
2.35088e-08
3.86786e-06
2.87723e-07
3.06556e-08
4.57125e-06
4.80345e-08
6.57197e-06
3.50739e-07
-1.46493e-08
9.50558e-08
5.20641e-06
1.98487e-07
5.36843e-09
-7.4333e-09
3.77188e-06
1.82518e-08
-1.93251e-08
4.05341e-06
-2.83905e-09
-9.90635e-09
4.12859e-06
5.14977e-08
8.0234e-09
3.77206e-06
2.68305e-07
3.68581e-08
4.36236e-06
8.21702e-08
6.48161e-06
3.3656e-07
-2.03332e-08
1.68311e-07
5.52721e-06
1.71085e-07
3.97686e-08
7.92145e-08
3.55884e-06
3.89835e-08
3.68023e-08
3.63304e-06
3.54317e-08
3.14881e-08
3.68914e-06
9.86821e-08
6.89163e-08
3.46799e-06
2.80242e-07
1.05331e-07
4.84741e-06
1.25907e-07
6.37536e-06
2.96442e-07
-5.76362e-09
2.27094e-07
6.12699e-06
7.21658e-08
3.52614e-08
2.53308e-07
5.37205e-06
5.3558e-08
2.44379e-07
4.75468e-06
8.85253e-08
2.34568e-07
4.67667e-06
1.72843e-07
2.4116e-07
5.15379e-06
2.39489e-07
1.78196e-07
5.98706e-06
1.38747e-07
5.91947e-06
2.32038e-07
7.77533e-09
5.58975e-06
1.94013e-08
2.32472e-07
5.24727e-08
6.11971e-06
2.64633e-07
9.88748e-08
6.36762e-06
2.87078e-07
1.4521e-07
6.40902e-06
2.80957e-07
1.93707e-07
6.26053e-06
2.47122e-07
1.99824e-07
5.83265e-06
1.82661e-07
5.2313e-06
1.83952e-07
1.39757e-07
-1.50326e-07
-1.68683e-07
6.46539e-06
1.90425e-07
2.0828e-07
-3.95577e-08
-2.20543e-07
6.37195e-06
3.57484e-07
6.90915e-08
-2.06975e-07
6.13254e-06
4.39382e-07
1.90949e-07
-1.3547e-07
6.10907e-06
4.35844e-07
3.33393e-07
-2.11557e-07
6.27221e-06
3.7079e-07
3.91279e-07
-1.66868e-07
6.4758e-06
2.28238e-07
-1.08788e-07
6.12377e-06
3.48632e-07
1.25937e-07
-2.23006e-07
-4.45518e-08
6.41349e-06
3.38439e-07
-4.93771e-08
-2.43364e-08
4.97398e-06
3.58873e-08
7.95321e-09
4.07883e-06
1.08808e-07
4.07382e-09
3.69086e-06
3.46421e-07
-1.65602e-08
4.92712e-06
5.13339e-07
-5.19606e-08
5.9636e-06
-3.31544e-08
6.57136e-06
4.50034e-07
-2.21607e-07
7.00382e-08
6.11131e-06
4.31232e-07
-2.84732e-08
4.62268e-08
3.76635e-06
1.82063e-08
6.06452e-08
4.1255e-06
9.85708e-08
6.47468e-08
4.06319e-06
1.99762e-07
5.1788e-08
3.71892e-06
5.54247e-07
4.77692e-08
5.74642e-06
6.21935e-08
6.69e-06
5.06712e-07
-1.77702e-07
1.80805e-07
5.97273e-06
4.26356e-07
-1.96176e-08
1.14981e-07
3.57426e-06
2.84443e-08
9.37381e-08
3.98688e-06
8.41518e-08
9.91477e-08
4.05989e-06
1.69179e-07
8.01049e-08
3.6635e-06
5.1042e-07
1.26379e-07
5.24265e-06
1.46426e-07
6.58151e-06
4.89291e-07
-2.04882e-07
3.11556e-07
6.297e-06
3.30577e-07
-2.29385e-08
3.14442e-07
4.75847e-06
3.65704e-08
2.74668e-07
3.70105e-06
8.60218e-08
1.71715e-07
3.59371e-06
2.82546e-07
2.69161e-07
4.18637e-06
4.66138e-07
2.48971e-07
5.64829e-06
2.09588e-07
6.45111e-06
4.12884e-07
-1.43162e-07
3.48703e-07
6.31954e-06
1.85507e-07
-2.49215e-08
4.60508e-07
6.18498e-06
6.65474e-08
5.07747e-07
5.59839e-06
1.76443e-07
5.00487e-07
5.76843e-06
3.07264e-07
4.4409e-07
5.96693e-06
3.5653e-07
3.06445e-07
6.30351e-06
2.1672e-07
5.96092e-06
3.12856e-07
-6.62238e-08
5.59599e-06
9.07518e-08
3.17993e-07
5.63025e-09
6.14254e-06
3.93761e-07
1.08238e-07
6.45822e-06
4.48629e-07
2.05499e-07
6.5364e-06
4.40853e-07
2.7069e-07
6.32573e-06
3.74783e-07
2.70023e-07
5.86584e-06
2.73954e-07
5.27893e-06
2.3686e-07
2.02396e-07
-4.08548e-08
-8.25276e-08
6.5024e-06
7.51644e-08
9.59764e-08
2.21535e-08
-1.6096e-07
6.56989e-06
1.82852e-07
9.97635e-08
-1.97283e-07
6.34185e-06
2.53078e-07
1.97507e-07
-1.9444e-07
6.59301e-06
2.55975e-07
2.44794e-07
-1.66914e-07
6.43174e-06
1.74596e-07
2.49179e-07
-5.76027e-08
6.56844e-06
7.48439e-08
-2.15312e-08
6.14826e-06
2.24877e-07
2.64031e-08
-1.27185e-07
-1.35529e-08
6.64125e-06
1.53784e-07
-2.76482e-08
-4.20365e-08
5.77076e-06
4.43871e-08
-2.95274e-08
5.17643e-06
1.75579e-07
-1.12896e-08
5.34133e-06
3.44895e-07
-6.92432e-08
5.90182e-06
3.218e-07
-2.7604e-08
6.00955e-06
1.11166e-08
6.61732e-06
2.77926e-07
-1.52986e-07
6.7732e-08
6.40204e-06
2.21382e-07
-3.12394e-08
4.68021e-08
4.95582e-06
5.18929e-08
5.05836e-08
4.99372e-06
9.32015e-08
4.84969e-08
4.0326e-06
3.62925e-07
3.47073e-08
5.70036e-06
3.98715e-07
4.11565e-08
6.1996e-06
5.99532e-08
6.72625e-06
3.14885e-07
-1.4744e-07
1.46189e-07
6.20475e-06
2.20845e-07
-2.88826e-08
1.38717e-07
4.5376e-06
3.34213e-08
1.5119e-07
4.00207e-06
7.73988e-08
8.68152e-08
4.03593e-06
2.92968e-07
1.14531e-07
4.54074e-06
3.74449e-07
1.02094e-07
5.64789e-06
1.05805e-07
6.6245e-06
3.00348e-07
-1.23129e-07
2.23777e-07
6.47536e-06
1.48117e-07
-2.37201e-08
2.75744e-07
5.38198e-06
3.40038e-08
2.6808e-07
4.39436e-06
1.34922e-07
2.532e-07
4.24038e-06
2.91069e-07
2.48978e-07
5.47879e-06
2.88092e-07
1.44353e-07
5.75015e-06
1.30629e-07
6.49632e-06
2.43677e-07
-3.48462e-08
2.34117e-07
6.3494e-06
6.16494e-08
2.37817e-08
2.94772e-07
6.30573e-06
9.27486e-08
3.4587e-07
5.79841e-06
1.84346e-07
3.43674e-07
6.07555e-06
2.2348e-07
2.60463e-07
6.06568e-06
2.20092e-07
1.65099e-07
6.38035e-06
1.30106e-07
5.9964e-06
1.8859e-07
6.72633e-09
5.58407e-06
1.61652e-08
2.23302e-07
5.28907e-08
6.13542e-06
2.59551e-07
1.22352e-07
6.46982e-06
2.89944e-07
1.8276e-07
6.55903e-06
2.78445e-07
2.05516e-07
6.35509e-06
2.22673e-07
1.84684e-07
5.89289e-06
1.5913e-07
5.30683e-06
1.56186e-07
1.30959e-07
1.43824e-07
8.31051e-08
6.41731e-06
-8.05058e-08
-6.77296e-08
1.39568e-07
7.2673e-08
6.47424e-06
-8.75364e-08
1.27476e-07
3.52884e-08
6.16707e-06
-8.02586e-08
1.33245e-07
1.83376e-08
6.3949e-06
-8.71461e-08
6.90799e-08
8.37549e-08
6.22853e-06
-1.35337e-07
4.67891e-08
1.35624e-07
6.52557e-06
-1.4492e-07
1.08897e-07
6.11275e-06
7.70731e-08
-1.02485e-07
1.21966e-07
7.06022e-08
6.54514e-06
-1.06096e-07
7.81016e-08
2.43292e-08
5.51746e-06
9.07243e-08
3.48487e-09
5.00507e-06
2.04143e-07
-1.29423e-08
6.57711e-06
7.94916e-08
-3.30953e-09
4.99698e-06
1.81942e-08
7.62347e-08
5.60571e-06
8.70764e-08
6.59641e-06
4.70443e-08
8.01472e-08
5.23504e-08
6.2761e-06
-1.0501e-07
4.3671e-08
2.54134e-08
5.0704e-06
7.82546e-08
4.22595e-08
5.59114e-06
1.39052e-07
1.22317e-08
4.02744e-06
1.98301e-07
-1.10663e-08
6.52446e-06
3.3887e-08
1.87239e-08
5.58779e-06
6.14677e-08
6.61151e-06
3.62935e-08
6.03926e-08
5.16088e-08
6.09756e-06
-9.5379e-08
1.83903e-08
5.46349e-08
4.75003e-06
5.91424e-08
7.73957e-08
3.98012e-06
1.14349e-07
4.6829e-08
4.01937e-06
1.90855e-07
3.04479e-08
6.03337e-06
2.70048e-08
-8.64709e-09
5.3226e-06
3.87565e-08
6.53176e-06
2.68404e-08
1.05929e-07
6.44944e-08
6.38585e-06
-1.04216e-07
5.29371e-08
3.86264e-08
5.16635e-06
7.64686e-08
6.08503e-08
4.42051e-06
1.58256e-07
7.31026e-08
5.31453e-06
8.56731e-08
-1.45542e-08
5.21827e-06
2.59931e-09
-4.22701e-08
5.34644e-06
2.15588e-08
6.46106e-06
1.98915e-08
1.41316e-07
8.64066e-08
6.27612e-06
-9.70374e-08
1.31869e-07
5.01712e-08
6.21305e-06
1.27685e-07
4.44879e-08
5.58761e-06
1.26525e-07
2.52445e-08
5.88288e-06
5.91669e-08
-2.89879e-08
5.73181e-06
2.47287e-08
-2.83915e-08
6.32046e-06
2.80428e-08
5.97535e-06
3.94117e-08
1.01679e-07
5.51777e-06
-6.9572e-08
1.20583e-07
1.20439e-07
6.07162e-06
9.51229e-08
1.34767e-07
6.4146e-06
8.148e-08
1.35109e-07
6.51094e-06
5.93753e-08
1.03814e-07
6.32749e-06
2.75215e-08
7.29937e-08
5.86545e-06
2.97085e-08
5.28088e-06
6.64001e-08
6.06856e-08
1.20547e-07
9.23857e-08
6.22148e-06
-8.7453e-09
-3.96998e-08
1.28054e-07
1.06198e-07
5.98662e-06
-9.50748e-08
1.09805e-07
5.98338e-08
5.24124e-06
-1.04844e-07
9.81355e-08
5.59167e-08
5.20396e-06
-1.20382e-07
3.61703e-08
8.94923e-08
5.23363e-06
-1.34714e-07
6.80193e-08
1.34399e-07
6.09264e-06
-1.18623e-07
9.47099e-08
5.98724e-06
1.50574e-07
-5.19191e-08
1.43692e-07
7.37521e-08
6.1453e-06
-7.13265e-08
1.00682e-07
3.34155e-08
4.16775e-06
1.48456e-07
9.78689e-09
4.13115e-06
7.54407e-08
-5.93597e-08
5.74431e-06
-8.56365e-09
4.49247e-08
2.77458e-06
-5.14946e-09
6.42521e-08
4.64678e-06
9.24008e-08
6.36481e-06
9.32236e-08
9.46254e-08
5.0362e-08
5.51571e-06
-8.7159e-08
7.05507e-08
1.77066e-08
4.23959e-06
8.89669e-08
1.72076e-08
5.53013e-06
2.08518e-07
-1.70751e-08
5.51656e-06
3.85126e-08
-3.46111e-08
4.93987e-06
-1.98895e-08
1.9572e-08
3.7899e-06
6.98973e-08
6.19359e-06
6.30992e-08
7.58927e-08
5.69732e-08
5.46153e-06
-7.41438e-08
9.51829e-08
1.75727e-08
4.30606e-06
6.83713e-08
3.60232e-08
4.03902e-06
2.30492e-07
5.20714e-08
5.42853e-06
4.487e-08
-2.16296e-08
4.91872e-06
-1.80257e-08
-8.60588e-09
3.95475e-06
5.77874e-08
6.17847e-06
5.84445e-08
1.14383e-07
9.02698e-08
5.97212e-06
-6.12043e-08
6.6367e-08
4.52941e-09
3.86918e-06
1.34916e-07
4.76055e-09
3.86628e-06
1.20285e-07
-5.77053e-09
4.84745e-06
1.22659e-08
-3.48377e-08
3.40089e-06
-4.47692e-09
-1.62641e-08
4.34667e-06
7.44065e-08
6.21385e-06
7.5907e-08
1.10575e-07
1.56573e-07
6.08717e-06
-2.59852e-08
1.10109e-07
9.0838e-08
5.73488e-06
1.11956e-07
5.82485e-08
4.82636e-06
9.32692e-08
1.2012e-08
4.72644e-06
3.61547e-08
6.89935e-09
4.83396e-06
5.2681e-08
4.99883e-08
5.93431e-06
1.21683e-07
5.86401e-06
1.10693e-07
4.24475e-08
5.38898e-06
1.79407e-08
2.2509e-07
8.50353e-08
5.93241e-06
1.87732e-07
1.15401e-07
6.23538e-06
1.6108e-07
1.15419e-07
6.3027e-06
1.31686e-07
1.09929e-07
6.17291e-06
1.26434e-07
1.18689e-07
5.75973e-06
1.47061e-07
5.19211e-06
1.45851e-07
1.83545e-07
-2.00583e-07
-1.07099e-07
3.66809e-07
2.40026e-07
5.90206e-06
-4.15063e-08
-7.34258e-08
2.72446e-07
5.36721e-06
5.63693e-08
-1.14501e-07
2.67739e-07
4.49536e-06
1.11156e-07
-5.75169e-08
2.07189e-07
4.06932e-06
2.08313e-07
-6.74803e-08
2.43332e-07
4.29285e-06
3.8812e-07
-7.86534e-08
2.35271e-07
5.4983e-06
-1.04762e-07
4.98783e-07
2.2582e-07
5.75277e-06
-1.13241e-07
-1.30754e-09
3.73543e-07
5.56114e-06
4.81056e-09
-2.77179e-08
3.07265e-06
8.38952e-08
-8.86623e-08
3.3292e-06
7.95345e-08
-8.39005e-08
2.34219e-06
1.59211e-07
-7.16554e-09
2.79509e-06
3.45928e-07
-3.03972e-09
3.89492e-06
1.21429e-08
5.06617e-07
5.95601e-06
-1.4805e-07
8.0406e-08
3.88164e-07
4.81606e-06
-1.72073e-08
2.93438e-08
3.41092e-06
1.21823e-07
-1.72795e-08
3.95865e-06
1.71585e-07
-3.61675e-10
5.46712e-06
1.90172e-07
1.4146e-08
2.42412e-06
2.61053e-07
4.13682e-08
3.35742e-06
1.04127e-07
4.97191e-07
5.66583e-06
-1.68386e-07
1.99912e-07
3.92924e-07
4.98654e-06
-3.18559e-08
1.20647e-07
3.40663e-06
9.66083e-08
1.09917e-07
3.83467e-06
2.65887e-07
9.94661e-08
5.57027e-06
2.12432e-07
7.61153e-08
2.94324e-06
2.594e-07
1.23309e-07
3.50975e-06
2.01746e-07
4.86074e-07
5.71883e-06
-1.34587e-07
3.61804e-07
3.70895e-07
5.48654e-06
-2.6686e-08
2.11787e-07
3.16222e-06
8.45363e-08
2.34233e-07
3.54655e-06
1.52081e-07
1.53695e-07
2.65909e-06
1.73527e-07
1.77363e-07
2.76291e-06
3.19791e-07
2.45447e-07
3.77736e-06
3.42835e-07
4.76826e-07
5.85648e-06
-1.82719e-07
4.90035e-07
3.30682e-07
5.80485e-06
-3.80899e-08
5.01426e-07
5.29856e-06
5.99439e-08
4.57753e-07
4.52054e-06
1.02589e-07
3.68554e-07
4.06548e-06
1.9288e-07
4.1302e-07
4.33931e-06
3.48145e-07
4.5377e-07
5.49353e-06
4.48636e-07
4.40926e-07
5.65947e-06
-1.99415e-07
3.12104e-07
5.67512e-07
5.19899e-06
-7.06256e-08
5.90828e-07
5.71426e-06
5.88691e-08
5.9452e-07
5.96917e-06
1.49218e-07
5.6574e-07
5.99907e-06
2.48091e-07
5.62168e-07
5.91645e-06
3.38271e-07
5.4891e-07
5.57457e-06
4.12467e-07
5.28088e-07
5.03846e-06
2.72032e-07
8.63452e-08
3.32092e-06
-9.60876e-08
2.65301e-07
8.22211e-08
3.57293e-06
-9.17485e-08
2.47616e-07
8.33309e-08
3.72577e-06
-8.98184e-08
2.19611e-07
8.61484e-08
3.80194e-06
-8.92341e-08
1.8102e-07
8.92987e-08
3.81616e-06
-8.87606e-08
1.32022e-07
9.17006e-08
3.77021e-06
-8.81561e-08
7.18251e-08
9.22588e-08
3.63289e-06
-8.64028e-08
8.68421e-08
3.22074e-06
-8.06577e-08
3.26273e-07
8.0756e-08
4.44239e-06
3.11901e-07
7.69884e-08
4.53047e-06
2.86141e-07
7.87414e-08
4.54111e-06
2.50766e-07
8.21538e-08
4.49078e-06
2.05343e-07
8.65032e-08
4.39133e-06
1.49107e-07
9.03624e-08
4.24217e-06
8.11962e-08
9.24494e-08
4.00619e-06
8.86037e-08
3.47439e-06
3.57905e-07
6.97109e-08
5.17202e-06
3.42983e-07
6.95529e-08
5.13774e-06
3.14132e-07
7.2354e-08
5.04033e-06
2.74722e-07
7.63826e-08
4.89526e-06
2.24027e-07
8.10873e-08
4.7125e-06
1.62359e-07
8.57017e-08
4.48919e-06
8.82923e-08
8.91e-08
4.18388e-06
8.74225e-08
3.57038e-06
3.46889e-07
5.30285e-08
5.32636e-06
3.34249e-07
5.63625e-08
5.24955e-06
3.06922e-07
6.01552e-08
5.11368e-06
2.67999e-07
6.44526e-08
4.93447e-06
2.18447e-07
6.91701e-08
4.7215e-06
1.58259e-07
7.39089e-08
4.47157e-06
8.59533e-08
7.78902e-08
4.1425e-06
7.80585e-08
3.5056e-06
3.02873e-07
3.56547e-08
4.88247e-06
2.92037e-07
3.9277e-08
4.85058e-06
2.68881e-07
4.26704e-08
4.75307e-06
2.35541e-07
4.62624e-08
4.60675e-06
1.92617e-07
5.01207e-08
4.42227e-06
1.39853e-07
5.40728e-08
4.19765e-06
7.61645e-08
5.77024e-08
3.89368e-06
5.88706e-08
3.29462e-06
2.40971e-07
1.07539e-08
3.99138e-06
2.36199e-07
1.52307e-08
4.06264e-06
2.20801e-07
1.8585e-08
4.05773e-06
1.95757e-07
2.17803e-08
3.99352e-06
1.61446e-07
2.50129e-08
3.88208e-06
1.18091e-07
2.8225e-08
3.72359e-06
6.47962e-08
3.12078e-08
3.48454e-06
3.30364e-08
2.97455e-06
1.95872e-07
2.86863e-06
-1.86951e-08
1.97946e-07
3.06814e-06
-1.36716e-08
1.89712e-07
3.17739e-06
-8.76096e-09
1.71438e-07
3.21646e-06
-4.14827e-09
1.43522e-07
3.19911e-06
-8.72006e-11
1.06178e-07
3.1276e-06
3.88177e-09
5.88009e-08
2.9752e-06
7.35805e-09
2.58252e-06
1.06875e-08
3.4057e-07
8.45847e-08
3.3451e-06
-1.00579e-07
3.20656e-07
8.32951e-08
3.6043e-06
-9.4831e-08
2.90873e-07
8.51146e-08
3.76221e-06
-9.18592e-08
2.51425e-07
8.81725e-08
3.84337e-06
-9.01745e-08
2.02148e-07
9.0807e-08
3.8633e-06
-8.87126e-08
1.43276e-07
9.23135e-08
3.82396e-06
-8.73931e-08
7.50577e-08
9.17864e-08
3.69439e-06
-8.51669e-08
8.49618e-08
3.28972e-06
-7.89578e-08
4.20323e-07
8.46025e-08
4.47221e-06
3.80992e-07
8.25139e-08
4.57066e-06
3.36591e-07
8.31025e-08
4.58762e-06
2.86732e-07
8.57854e-08
4.54311e-06
2.29068e-07
8.93897e-08
4.4504e-06
1.62271e-07
9.22348e-08
4.30896e-06
8.55518e-08
9.30685e-08
4.08158e-06
8.76195e-08
3.55721e-06
4.71368e-07
8.5925e-08
5.20605e-06
4.24614e-07
8.17029e-08
5.18537e-06
3.71712e-07
8.09643e-08
5.09545e-06
3.14558e-07
8.28048e-08
4.9544e-06
2.49225e-07
8.57305e-08
4.78128e-06
1.75533e-07
8.86965e-08
4.5663e-06
9.20433e-08
9.03603e-08
4.26997e-06
8.6582e-08
3.66359e-06
4.58369e-07
7.90864e-08
5.36412e-06
4.14942e-07
7.32198e-08
5.30144e-06
3.64046e-07
7.19559e-08
5.17349e-06
3.07085e-07
7.29482e-08
5.0012e-06
2.432e-07
7.52064e-08
4.79598e-06
1.71159e-07
7.77979e-08
4.55469e-06
8.97707e-08
7.9682e-08
4.23475e-06
7.74397e-08
3.60465e-06
3.9208e-07
5.99125e-08
4.92237e-06
3.59606e-07
5.40732e-08
4.90216e-06
3.19132e-07
5.31375e-08
4.81235e-06
2.71635e-07
5.37567e-08
4.67343e-06
2.16499e-07
5.54713e-08
4.49715e-06
1.53021e-07
5.7647e-08
4.28142e-06
8.04622e-08
5.95115e-08
3.98658e-06
5.85909e-08
3.39409e-06
3.08262e-07
2.65633e-08
4.02943e-06
2.90366e-07
2.51652e-08
4.10957e-06
2.63527e-07
2.57999e-08
4.11204e-06
2.28262e-07
2.71247e-08
4.05557e-06
1.84252e-07
2.91024e-08
3.95254e-06
1.3147e-07
3.12555e-08
3.80286e-06
6.97296e-08
3.31597e-08
3.57274e-06
3.35714e-08
3.06924e-06
2.46495e-07
2.89996e-06
-1.40591e-08
2.41975e-07
3.10701e-06
-8.92954e-09
2.25905e-07
3.22357e-06
-4.22017e-09
1.99452e-07
3.27035e-06
-2.00218e-10
1.63047e-07
3.26113e-06
3.60445e-09
1.17363e-07
3.19798e-06
6.62002e-09
6.25993e-08
3.05406e-06
9.11846e-09
2.66778e-06
1.09902e-08
2.23204e-07
8.37042e-08
3.35521e-06
-9.20951e-08
2.15444e-07
8.64119e-08
3.61622e-06
-9.04558e-08
2.00118e-07
8.90726e-08
3.77792e-06
-8.91389e-08
1.75406e-07
9.13665e-08
3.86513e-06
-8.80836e-08
1.40532e-07
9.27374e-08
3.89245e-06
-8.69193e-08
9.65985e-08
9.28875e-08
3.86074e-06
-8.5777e-08
4.65612e-08
9.08851e-08
3.73709e-06
-8.35668e-08
8.23749e-08
3.33116e-06
-7.72464e-08
2.63361e-07
8.11388e-08
4.48951e-06
2.47991e-07
8.43794e-08
4.5883e-06
2.28984e-07
8.6746e-08
4.60914e-06
2.01418e-07
9.00561e-08
4.5719e-06
1.63177e-07
9.28188e-08
4.48832e-06
1.14336e-07
9.43012e-08
4.35613e-06
5.71412e-08
9.35024e-08
4.13591e-06
8.60284e-08
3.61069e-06
2.92488e-07
7.86054e-08
5.2312e-06
2.72752e-07
8.02899e-08
5.20946e-06
2.49561e-07
8.22987e-08
5.12316e-06
2.17881e-07
8.53694e-08
4.98986e-06
1.76387e-07
8.85058e-08
4.82705e-06
1.23841e-07
9.06779e-08
4.62239e-06
6.23253e-08
9.09042e-08
4.33403e-06
8.5051e-08
3.72701e-06
2.8081e-07
6.92146e-08
5.39314e-06
2.63856e-07
6.93231e-08
5.32944e-06
2.42508e-07
7.14654e-08
5.20567e-06
2.12797e-07
7.42829e-08
5.04196e-06
1.72554e-07
7.70355e-08
4.8477e-06
1.21279e-07
7.92089e-08
4.61734e-06
6.11433e-08
8.00477e-08
4.3057e-06
7.61347e-08
3.67474e-06
2.37272e-07
4.87304e-08
4.94929e-06
2.29348e-07
4.90381e-08
4.93051e-06
2.14838e-07
5.18034e-08
4.84666e-06
1.90686e-07
5.4621e-08
4.71737e-06
1.55392e-07
5.72438e-08
4.55243e-06
1.09158e-07
5.93788e-08
4.34752e-06
5.44976e-08
6.05721e-08
4.06061e-06
5.83896e-08
3.46645e-06
1.94252e-07
2.09385e-08
4.05163e-06
1.9363e-07
2.31158e-08
4.13623e-06
1.84681e-07
2.64222e-08
4.14645e-06
1.65353e-07
2.94448e-08
4.10015e-06
1.35003e-07
3.20751e-08
4.00814e-06
9.4471e-08
3.41818e-08
3.86859e-06
4.66002e-08
3.56165e-08
3.64559e-06
3.50271e-08
3.1393e-06
1.68775e-07
2.91775e-06
-9.32076e-09
1.71649e-07
3.13103e-06
-3.7054e-09
1.64901e-07
3.25588e-06
9.29587e-10
1.47558e-07
3.31235e-06
4.82301e-09
1.1995e-07
3.31314e-06
7.78661e-09
8.31209e-08
3.25902e-06
9.98563e-09
4.02086e-08
3.12131e-06
1.14578e-08
2.73128e-06
1.18298e-08
9.79486e-08
9.16891e-08
3.32934e-06
-8.66297e-08
1.17994e-07
9.52818e-08
3.58978e-06
-8.87148e-08
1.30295e-07
9.65647e-08
3.75795e-06
-8.87793e-08
1.30526e-07
9.7028e-08
3.85597e-06
-8.80536e-08
1.16888e-07
9.6779e-08
3.89601e-06
-8.6961e-08
9.03692e-08
9.56241e-08
3.87719e-06
-8.56748e-08
5.26705e-08
9.25338e-08
3.76532e-06
-8.31338e-08
8.33365e-08
3.37657e-06
-7.60225e-08
8.13994e-08
8.45398e-08
4.46235e-06
1.16709e-07
9.01403e-08
4.55827e-06
1.41109e-07
9.42992e-08
4.58706e-06
1.48244e-07
9.76496e-08
4.56402e-06
1.36778e-07
9.90685e-08
4.49732e-06
1.07758e-07
9.89281e-08
4.38181e-06
6.33844e-08
9.64887e-08
4.17636e-06
8.73354e-08
3.67014e-06
7.29264e-08
7.12493e-08
5.2079e-06
1.1344e-07
7.9874e-08
5.17935e-06
1.43367e-07
8.63608e-08
5.10124e-06
1.53874e-07
9.10578e-08
4.98676e-06
1.44892e-07
9.38789e-08
4.8412e-06
1.15579e-07
9.47747e-08
4.65591e-06
6.85996e-08
9.33046e-08
4.38437e-06
8.54015e-08
3.79751e-06
6.54875e-08
5.37173e-08
5.37212e-06
1.07904e-07
6.51359e-08
5.30205e-06
1.39537e-07
7.29072e-08
5.18769e-06
1.52851e-07
7.80748e-08
5.04167e-06
1.44999e-07
8.11053e-08
4.8683e-06
1.16324e-07
8.24092e-08
4.65832e-06
6.94182e-08
8.17571e-08
4.3641e-06
7.57841e-08
3.75367e-06
6.26545e-08
3.31674e-08
4.92717e-06
1.04491e-07
4.56279e-08
4.90843e-06
1.34342e-07
5.33431e-08
4.83655e-06
1.46136e-07
5.83468e-08
4.72537e-06
1.37791e-07
6.12737e-08
4.58066e-06
1.10156e-07
6.26141e-08
4.39496e-06
6.57192e-08
6.23401e-08
4.1243e-06
5.79736e-08
3.55007e-06
7.59085e-08
1.61085e-08
4.03247e-06
1.10264e-07
2.47982e-08
4.12295e-06
1.32813e-07
3.08881e-08
4.1464e-06
1.39255e-07
3.50163e-08
4.117e-06
1.28592e-07
3.73787e-08
4.0428e-06
1.01825e-07
3.84158e-08
3.91966e-06
6.103e-08
3.82551e-08
3.71061e-06
3.52898e-08
3.22317e-06
9.40133e-08
2.90688e-06
-4.52049e-10
1.17344e-07
3.12728e-06
5.28655e-09
1.31022e-07
3.26384e-06
9.31024e-09
1.32058e-07
3.33426e-06
1.21591e-08
1.19346e-07
3.34927e-06
1.40775e-08
9.36298e-08
3.30803e-06
1.51521e-08
5.64916e-08
3.18154e-06
1.53747e-08
2.80892e-06
1.40982e-08
2.121e-07
1.00622e-07
3.26695e-06
-9.97291e-08
2.68134e-07
1.02089e-07
3.53165e-06
-9.9977e-08
3.07748e-07
1.00785e-07
3.71542e-06
-9.78971e-08
3.21691e-07
9.88096e-08
3.8386e-06
-9.53678e-08
3.0194e-07
9.6505e-08
3.91189e-06
-9.26972e-08
2.43334e-07
9.37748e-08
3.93205e-06
-9.00451e-08
1.48589e-07
8.96821e-08
3.85651e-06
-8.61991e-08
8.09797e-08
3.52172e-06
-7.75418e-08
1.8177e-07
9.52322e-08
4.37914e-06
2.63823e-07
9.89911e-08
4.47939e-06
3.22701e-07
1.02003e-07
4.52706e-06
3.49189e-07
1.02631e-07
4.53382e-06
3.36218e-07
1.01151e-07
4.50575e-06
2.78212e-07
9.85026e-08
4.43531e-06
1.76309e-07
9.42137e-08
4.27399e-06
8.49124e-08
3.84257e-06
1.63185e-07
8.79438e-08
5.11503e-06
2.5568e-07
9.71188e-08
5.08872e-06
3.2525e-07
1.02915e-07
5.0307e-06
3.60973e-07
1.04902e-07
4.94865e-06
3.54582e-07
1.04101e-07
4.84476e-06
2.99192e-07
1.01633e-07
4.70835e-06
1.94205e-07
9.74203e-08
4.48625e-06
8.78758e-08
3.98869e-06
1.6114e-07
7.9029e-08
5.27849e-06
2.54888e-07
9.3545e-08
5.21206e-06
3.26337e-07
1.00125e-07
5.11917e-06
3.64326e-07
1.02176e-07
5.0066e-06
3.59679e-07
1.01419e-07
4.87579e-06
3.05345e-07
9.89411e-08
4.71543e-06
2.00079e-07
9.48844e-08
4.4718e-06
8.52982e-08
3.95638e-06
1.7239e-07
6.83203e-08
4.84154e-06
2.59627e-07
8.28662e-08
4.83189e-06
3.24964e-07
8.81925e-08
4.78311e-06
3.5796e-07
8.9726e-08
4.70495e-06
3.50196e-07
8.87713e-08
4.6011e-06
2.95304e-07
8.63058e-08
4.4624e-06
1.93106e-07
8.25762e-08
4.23878e-06
7.37801e-08
3.75487e-06
1.92907e-07
5.09635e-08
3.96786e-06
2.67565e-07
5.98077e-08
4.07146e-06
3.21164e-07
6.32114e-08
4.1179e-06
3.44554e-07
6.40485e-08
4.11933e-06
3.3066e-07
6.2924e-08
4.08255e-06
2.74221e-07
6.06996e-08
4.0017e-06
1.76864e-07
5.76885e-08
3.83311e-06
5.12451e-08
3.42262e-06
2.12262e-07
2.87195e-06
1.95717e-08
2.71726e-07
3.10467e-06
2.30486e-08
3.12597e-07
3.26117e-06
2.50653e-08
3.26456e-07
3.35848e-06
2.59353e-08
3.06106e-07
3.40643e-06
2.59636e-08
2.47342e-07
3.40209e-06
2.53057e-08
1.54104e-07
3.30862e-06
2.39645e-08
2.99305e-06
2.10951e-08
6.30485e-07
1.18774e-07
-1.28818e-07
3.14514e-06
7.57118e-07
1.15849e-07
-1.21687e-07
3.41075e-06
8.66142e-07
1.10954e-07
-1.13878e-07
3.60937e-06
9.44442e-07
1.05447e-07
-1.06442e-07
3.76135e-06
9.712e-07
1.00693e-07
-9.92058e-08
3.88371e-06
9.07389e-07
9.72448e-08
-9.22506e-08
3.99085e-06
6.56427e-07
9.5328e-08
-8.41706e-08
4.09633e-06
9.34407e-08
-7.0786e-08
4.15542e-06
6.52454e-07
1.29243e-07
4.22268e-06
7.91413e-07
1.25356e-07
4.33103e-06
9.09547e-07
1.2083e-07
4.39925e-06
9.94321e-07
1.14042e-07
4.44055e-06
1.02565e-06
1.07038e-07
4.46811e-06
9.62724e-07
1.00974e-07
4.4946e-06
7.00426e-07
9.57828e-08
4.53599e-06
8.9086e-08
4.5473e-06
6.55825e-07
1.47243e-07
4.93841e-06
8.01727e-07
1.44785e-07
4.92353e-06
9.27347e-07
1.3853e-07
4.88746e-06
1.01969e-06
1.29229e-07
4.84108e-06
1.05854e-06
1.18819e-07
4.7942e-06
1.00112e-06
1.08329e-07
4.75856e-06
7.34257e-07
9.74157e-08
4.75153e-06
8.23523e-08
4.72971e-06
6.48917e-07
1.61791e-07
5.10109e-06
7.97924e-07
1.60463e-07
5.04744e-06
9.26127e-07
1.525e-07
4.9771e-06
1.021e-06
1.41262e-07
4.89979e-06
1.06242e-06
1.28123e-07
4.82499e-06
1.00742e-06
1.13827e-07
4.76507e-06
7.40581e-07
9.75944e-08
4.73864e-06
7.36853e-08
4.70584e-06
6.33307e-07
1.63727e-07
4.68323e-06
7.79329e-07
1.58857e-07
4.6875e-06
9.04062e-07
1.48866e-07
4.66201e-06
9.95476e-07
1.36624e-07
4.61817e-06
1.03429e-06
1.22411e-07
4.56793e-06
9.78982e-07
1.06421e-07
4.52534e-06
7.17949e-07
8.74373e-08
4.51035e-06
5.88328e-08
4.48751e-06
5.98893e-07
1.28129e-07
3.84558e-06
7.44398e-07
1.2244e-07
3.96252e-06
8.65544e-07
1.13999e-07
4.03168e-06
9.51359e-07
1.04103e-07
4.06592e-06
9.84263e-07
9.25107e-08
4.07958e-06
9.2562e-07
7.90779e-08
4.08788e-06
6.73336e-07
6.23576e-08
4.11065e-06
3.74416e-08
4.11718e-06
5.66192e-07
5.44337e-08
2.79186e-06
7.07102e-07
5.32965e-08
3.03286e-06
8.23055e-07
5.09908e-08
3.20805e-06
9.03195e-07
4.78161e-08
3.3345e-06
9.29966e-07
4.39802e-08
3.42822e-06
8.67414e-07
3.95604e-08
3.50425e-06
6.23949e-07
3.43192e-08
3.58013e-06
2.66671e-08
3.62785e-06
5.38681e-08
-1.25887e-07
3.07147e-06
9.97441e-08
7.79901e-08
-1.22252e-07
3.27995e-06
9.73001e-08
9.13913e-08
-1.18519e-07
3.39418e-06
9.56601e-08
9.50412e-08
-1.16613e-07
3.43542e-06
9.4954e-08
8.83899e-08
-1.15046e-07
3.41843e-06
9.45329e-08
7.15513e-08
-1.13879e-07
3.3456e-06
9.3925e-08
4.32977e-08
-1.11867e-07
3.18837e-06
9.21521e-08
-1.03963e-07
2.7776e-06
8.55327e-08
1.10238e-07
-1.31624e-07
4.3344e-06
1.31508e-07
-1.28328e-07
4.39886e-06
1.38519e-07
-1.2407e-07
4.3856e-06
1.33742e-07
-1.22331e-07
4.31249e-06
1.17798e-07
-1.21493e-07
4.1922e-06
9.12565e-08
-1.2148e-07
4.02476e-06
5.28753e-08
-1.21147e-07
3.77399e-06
-1.15252e-07
3.23626e-06
2.13369e-07
-1.09379e-07
5.38432e-06
2.28594e-07
-1.09159e-07
5.32024e-06
2.25458e-07
-1.05972e-07
5.19388e-06
2.07487e-07
-1.04235e-07
5.02163e-06
1.75873e-07
-1.04563e-07
4.8181e-06
1.31779e-07
-1.05951e-07
4.57557e-06
7.41107e-08
-1.07115e-07
4.25251e-06
-1.03482e-07
3.61636e-06
2.76326e-07
-8.28211e-08
5.84475e-06
2.9117e-07
-7.76489e-08
5.80256e-06
2.85906e-07
-7.22249e-08
5.61624e-06
2.57446e-07
-6.99484e-08
5.40662e-06
2.15641e-07
-7.05632e-08
5.1668e-06
1.59775e-07
-7.26487e-08
4.89335e-06
8.88743e-08
-7.45088e-08
4.54086e-06
-7.24475e-08
3.86156e-06
2.7066e-07
-4.83817e-08
5.66278e-06
2.79474e-07
-3.86051e-08
5.67074e-06
2.68964e-07
-3.46286e-08
5.53279e-06
2.40807e-07
-3.28073e-08
5.35129e-06
2.01533e-07
-3.43428e-08
5.147e-06
1.49654e-07
-3.73434e-08
4.90217e-06
8.33669e-08
-4.00535e-08
4.57506e-06
-4.00607e-08
3.92067e-06
1.94627e-07
-5.49888e-09
4.88376e-06
1.95812e-07
-2.69254e-09
4.94865e-06
1.87169e-07
-3.81732e-09
4.93857e-06
1.69776e-07
-5.84051e-09
4.87105e-06
1.43736e-07
-1.03575e-08
4.75719e-06
1.08609e-07
-1.53005e-08
4.59536e-06
6.18252e-08
-1.96835e-08
4.34474e-06
-2.23801e-08
3.78039e-06
9.15505e-08
3.58921e-06
1.08603e-08
1.01233e-07
3.84505e-06
8.92832e-09
1.04292e-07
3.99825e-06
5.89737e-09
1.01275e-07
4.07313e-06
2.04058e-09
9.02013e-08
4.08531e-06
-2.36143e-09
7.0635e-08
4.03636e-06
-7.05387e-09
4.12295e-08
3.89252e-06
-1.19273e-08
3.45826e-06
-1.76749e-08
1.23905e-07
-1.46915e-07
3.08069e-06
1.04634e-07
1.40843e-07
-1.33293e-07
3.29639e-06
9.97522e-08
1.45455e-07
-1.24569e-07
3.4176e-06
9.65061e-08
1.38751e-07
-1.1881e-07
3.4665e-06
9.45015e-08
1.20795e-07
-1.14573e-07
3.45802e-06
9.30269e-08
9.18735e-08
-1.11505e-07
3.39442e-06
9.14864e-08
5.18271e-08
-1.08029e-07
3.24734e-06
8.89206e-08
-9.91696e-08
2.84679e-06
8.16443e-08
2.06338e-07
-1.65089e-07
4.33197e-06
2.08769e-07
-1.45581e-07
4.40879e-06
1.99864e-07
-1.3479e-07
4.4048e-06
1.80995e-07
-1.28201e-07
4.3408e-06
1.52033e-07
-1.23813e-07
4.23038e-06
1.12548e-07
-1.20993e-07
4.07367e-06
6.19242e-08
-1.18209e-07
3.83459e-06
-1.10119e-07
3.30879e-06
3.36363e-07
-1.46455e-07
5.35976e-06
3.22003e-07
-1.28508e-07
5.31762e-06
2.93844e-07
-1.17796e-07
5.20501e-06
2.5497e-07
-1.12169e-07
5.04435e-06
2.07169e-07
-1.09537e-07
4.85141e-06
1.4916e-07
-1.08505e-07
4.62061e-06
8.01582e-08
-1.07428e-07
4.31044e-06
-1.01439e-07
3.68772e-06
4.3223e-07
-1.00188e-07
5.88187e-06
4.04396e-07
-8.72837e-08
5.78932e-06
3.6199e-07
-7.81139e-08
5.61915e-06
3.08912e-07
-7.41714e-08
5.42161e-06
2.47177e-07
-7.50416e-08
5.19395e-06
1.7613e-07
-7.70727e-08
4.93281e-06
9.39605e-08
-7.82822e-08
4.59378e-06
-7.47488e-08
3.92891e-06
4.27301e-07
-4.40337e-08
5.7006e-06
3.94108e-07
-3.80057e-08
5.65458e-06
3.50113e-07
-3.39362e-08
5.53266e-06
2.95976e-07
-3.44404e-08
5.36562e-06
2.36932e-07
-3.87546e-08
5.16937e-06
1.69304e-07
-4.34285e-08
4.93617e-06
9.04896e-08
-4.66536e-08
4.62206e-06
-4.56458e-08
3.98216e-06
3.22918e-07
1.41003e-09
4.85422e-06
2.94997e-07
-4.68937e-10
4.93888e-06
2.63076e-07
-3.65079e-09
4.94013e-06
2.26699e-07
-8.51409e-09
4.88154e-06
1.84144e-07
-1.58378e-08
4.77669e-06
1.33513e-07
-2.21322e-08
4.62486e-06
7.24894e-08
-2.66617e-08
4.38586e-06
-2.79322e-08
3.83507e-06
1.92927e-07
3.57984e-06
8.32262e-09
1.87923e-07
3.8444e-06
5.15951e-09
1.77037e-07
4.00383e-06
1.54421e-09
1.6011e-07
4.08461e-06
-3.03109e-09
1.3399e-07
4.10327e-06
-7.66261e-09
9.85347e-08
4.06191e-06
-1.23033e-08
5.33477e-08
3.92753e-06
-1.67425e-08
3.50504e-06
-2.13703e-08
4.97536e-08
-1.26057e-07
3.07629e-06
9.69092e-08
7.29694e-08
-1.18457e-07
3.2972e-06
9.44934e-08
8.66673e-08
-1.14656e-07
3.42611e-06
9.26336e-08
8.8865e-08
-1.11422e-07
3.48485e-06
9.11083e-08
7.90534e-08
-1.08841e-07
3.48709e-06
8.96101e-08
5.85166e-08
-1.0639e-07
3.4337e-06
8.77585e-08
2.96902e-08
-1.03126e-07
3.29459e-06
8.47583e-08
-9.44217e-08
2.89391e-06
7.69373e-08
8.71403e-08
-1.36588e-07
4.31712e-06
1.0535e-07
-1.26505e-07
4.39879e-06
1.15397e-07
-1.22861e-07
4.40301e-06
1.14246e-07
-1.19821e-07
4.35046e-06
1.00142e-07
-1.17626e-07
4.25308e-06
7.38684e-08
-1.15588e-07
4.10896e-06
3.80842e-08
-1.12798e-07
3.88008e-06
-1.04439e-07
3.35682e-06
1.59062e-07
-1.20402e-07
5.33261e-06
1.67886e-07
-1.11908e-07
5.29442e-06
1.68222e-07
-1.08401e-07
5.19019e-06
1.57333e-07
-1.07707e-07
5.04306e-06
1.34555e-07
-1.07217e-07
4.86387e-06
9.81607e-08
-1.06736e-07
4.64784e-06
5.09393e-08
-1.05199e-07
4.34996e-06
-9.80956e-08
3.73254e-06
2.19179e-07
-8.05796e-08
5.85011e-06
2.17741e-07
-7.6785e-08
5.75562e-06
2.06021e-07
-7.57173e-08
5.59804e-06
1.89314e-07
-7.71155e-08
5.40748e-06
1.59119e-07
-8.00298e-08
5.19697e-06
1.15716e-07
-8.21222e-08
4.95152e-06
6.05701e-08
-8.21914e-08
4.62586e-06
-7.64801e-08
3.96808e-06
2.14223e-07
-3.40745e-08