/*--------------------------------*- C++ -*----------------------------------*\
| =========                 |                                                 |
| \\      /  F ield         | OpenFOAM: The Open Source CFD Toolbox           |
|  \\    /   O peration     | Version:  plus.master.MPPICInterFoam            |
|   \\  /    A nd           | Web:      www.OpenFOAM.com                      |
|    \\/     M anipulation  |                                                 |
\*---------------------------------------------------------------------------*/
FoamFile
{
    version     2.0;
    format      ascii;
    class       volScalarField;
    location    "6.8";
    object      k;
}
// * * * * * * * * * * * * * * * * * * * * * * * * * * * * * * * * * * * * * //

dimensions      [0 2 -2 0 0 0 0];

internalField   nonuniform List<scalar> 
11822
(
0.0533373
0.0593444
0.0624249
0.0627429
0.0612131
0.0565377
0.0499819
0.059574
0.0645157
0.0647955
0.0643244
0.0659991
0.0628765
0.0556844
0.063009
0.0647166
0.0618093
0.0632467
0.0671614
0.066654
0.0592699
0.063769
0.0662776
0.0636878
0.0618913
0.0686526
0.0674274
0.0597957
0.061492
0.0673332
0.0693572
0.0695982
0.069613
0.0651907
0.0572364
0.0562046
0.0629189
0.0672776
0.0679615
0.0654162
0.0596136
0.0524015
0.0493251
0.0550325
0.0587503
0.0594509
0.0570379
0.0522825
0.0462703
0.053214
0.0595774
0.0637305
0.0643863
0.0619427
0.0568171
0.0500718
0.0596518
0.0656468
0.0677749
0.0679455
0.067823
0.0637648
0.0558621
0.0638126
0.0681863
0.0673362
0.0670632
0.0700842
0.0677998
0.0595354
0.0646741
0.0687674
0.0683413
0.0676259
0.0716504
0.0685038
0.0600883
0.061792
0.0687593
0.0720265
0.0724384
0.070832
0.0659901
0.0574633
0.0562525
0.0634312
0.0682478
0.0691261
0.066161
0.0599869
0.0525385
0.0491386
0.0549897
0.0588386
0.059608
0.0571672
0.0523632
0.0462659
0.0528114
0.0596855
0.0640509
0.0649587
0.0623776
0.056843
0.0497772
0.059618
0.0672118
0.0699938
0.0698306
0.0699045
0.0641525
0.0556233
0.0638899
0.069711
0.0691591
0.0698782
0.0710197
0.0687532
0.0593048
0.0646987
0.0708007
0.0708203
0.0704516
0.0715938
0.0695588
0.0598715
0.0617422
0.070265
0.0732732
0.0730987
0.0725908
0.0663738
0.0572163
0.0557868
0.0634503
0.0685814
0.0697066
0.0663149
0.0599143
0.0522148
0.0484301
0.0543458
0.0582354
0.0591047
0.0567129
0.0519524
0.0458537
0.0516521
0.0584853
0.0630043
0.0641338
0.0618931
0.0562884
0.0491387
0.0583386
0.0662437
0.0703081
0.0721852
0.0706551
0.0638728
0.055056
0.0626901
0.0704813
0.0717345
0.0713593
0.0743068
0.0686823
0.058837
0.0634732
0.0716532
0.0713887
0.0722613
0.0745278
0.0692794
0.0593529
0.0603354
0.0691089
0.073399
0.0748057
0.0729555
0.0659823
0.0566028
0.0544316
0.0620333
0.0673617
0.0686649
0.0656855
0.059246
0.0514938
0.0472126
0.0530444
0.056968
0.0579824
0.055783
0.0511318
0.0451044
0.0503301
0.0573048
0.0619141
0.0632791
0.0610949
0.055421
0.0482944
0.0569987
0.0650929
0.0686292
0.0700939
0.067751
0.0627699
0.0542382
0.0612279
0.0685795
0.0700993
0.0686767
0.0727672
0.0670244
0.0580741
0.0617692
0.0693425
0.0688114
0.0686837
0.0744174
0.0679133
0.0585805
0.0586877
0.0673105
0.0709179
0.0730047
0.0717222
0.0648474
0.0556876
0.0528318
0.0603095
0.0654547
0.0670238
0.0643838
0.0581264
0.0505162
0.0458826
0.0515972
0.0555416
0.0566968
0.0546099
0.0500723
0.0442417
0.0485015
0.054852
0.0591454
0.0603498
0.0582603
0.0535048
0.0471544
0.0544484
0.0607688
0.0639338
0.0648471
0.0626911
0.0599544
0.0528084
0.0581574
0.0636993
0.0613787
0.063606
0.0639859
0.0631645
0.0564035
0.0588049
0.0650165
0.0643563
0.0646349
0.065115
0.063976
0.0568796
0.0559386
0.0627313
0.0663266
0.0664117
0.0651121
0.0617226
0.0541341
0.0508056
0.0574931
0.0624076
0.0634369
0.0612555
0.0560332
0.0492925
0.0445456
0.0499389
0.0537503
0.0548634
0.0529906
0.0488302
0.0434086
0.0429991
0.0376164
0.0325421
0.0278085
0.0233526
0.0189803
0.0141367
0.00655331
0.04739
0.0407788
0.0348268
0.0294428
0.0244956
0.0197508
0.0146161
0.00667867
0.0502172
0.0428653
0.0363113
0.0304696
0.0251813
0.0201853
0.0148626
0.00672017
0.0506531
0.0431501
0.0364698
0.0305356
0.0251855
0.0201522
0.0148118
0.00666008
0.0486044
0.0415308
0.0352178
0.0295832
0.0244736
0.0196336
0.0144579
0.00649935
0.0447236
0.0385016
0.0329166
0.0278669
0.0232186
0.0187428
0.0138699
0.00626641
0.0398257
0.0348243
0.0301466
0.0257936
0.02169
0.0176447
0.0131316
0.0059849
0.0429932
0.0375462
0.0324268
0.0276679
0.0232061
0.0188439
0.0140257
0.00651311
0.0474591
0.0407506
0.0347296
0.0293079
0.0243509
0.019618
0.0145118
0.00664515
0.0503412
0.0428687
0.03623
0.0303426
0.0250404
0.0200575
0.0147647
0.00669108
0.050783
0.0431531
0.0363868
0.0304083
0.0250499
0.0200327
0.0147236
0.00663744
0.048687
0.0415011
0.0351179
0.0294532
0.024345
0.0195261
0.0143824
0.00648429
0.0447292
0.0384244
0.0327956
0.0277345
0.0230981
0.0186473
0.0138059
0.00625769
0.0397482
0.0347045
0.0300109
0.0256626
0.0215777
0.0175582
0.0130743
0.00597848
0.0426172
0.03717
0.0320742
0.0273579
0.0229519
0.0186512
0.0138963
0.00646898
0.0470862
0.040358
0.0343572
0.0289831
0.0240913
0.0194295
0.0143929
0.00661069
0.0499719
0.0424707
0.0358484
0.0300094
0.0247793
0.0198744
0.0146553
0.00666432
0.0504129
0.0427544
0.0360077
0.030084
0.0248015
0.0198648
0.0146291
0.00661972
0.0483073
0.041104
0.0347518
0.0291498
0.0241203
0.0193804
0.0143056
0.00647502
0.044331
0.0380359
0.0324543
0.0274625
0.0229037
0.0185261
0.0137461
0.00625476
0.0393434
0.0343386
0.0297037
0.0254254
0.021412
0.0174572
0.0130261
0.0059782
0.0419692
0.0365765
0.0315701
0.0269632
0.022671
0.0184755
0.0138115
0.00647517
0.0464245
0.039728
0.0338202
0.0285692
0.023806
0.0192604
0.0143198
0.00662667
0.0493194
0.0418256
0.0352927
0.0295845
0.0244961
0.0197157
0.0145959
0.00669081
0.0497481
0.0421062
0.0354583
0.0296742
0.0245359
0.0197255
0.0145874
0.00665663
0.0476185
0.040466
0.0342319
0.0287752
0.0238878
0.0192684
0.0142838
0.00652086
0.0436362
0.0374375
0.0319898
0.0271409
0.0227138
0.0184446
0.0137434
0.00630743
0.0387046
0.0338159
0.0293122
0.0251634
0.0212653
0.0174036
0.0130394
0.00603558
0.0412492
0.0359773
0.0311185
0.0266662
0.0225176
0.0184443
0.0138737
0.0065652
0.0456491
0.0390809
0.0333379
0.0282586
0.0236535
0.0192406
0.0143998
0.00673858
0.0485159
0.0411486
0.0347943
0.0292746
0.0243555
0.0197155
0.0146989
0.00682331
0.0489362
0.04143
0.0349727
0.0293855
0.024423
0.0197546
0.0147168
0.00680396
0.0467927
0.0398209
0.0337936
0.028536
0.0238206
0.0193363
0.0144421
0.00667653
0.042875
0.036881
0.0316379
0.0269759
0.022706
0.0185568
0.01393
0.00646448
0.0380961
0.0333926
0.0290692
0.025083
0.02132
0.0175586
0.01325
0.00618736
0.0405826
0.0355694
0.0309666
0.0267652
0.0228513
0.0189813
0.0145576
0.00760309
0.0448325
0.038598
0.03315
0.0283505
0.0240044
0.019815
0.0151337
0.00783024
0.0476049
0.0406247
0.034597
0.029382
0.0247423
0.0203417
0.0154942
0.00797332
0.0480142
0.0409162
0.0348046
0.0295367
0.0248649
0.0204429
0.0155757
0.0080007
0.0459438
0.0393772
0.0336992
0.028762
0.0243348
0.020092
0.0153598
0.00790178
0.0422181
0.0365858
0.0316693
0.0273083
0.0233079
0.0193823
0.0148986
0.0076986
0.0377188
0.0333032
0.0292602
0.0255382
0.022013
0.0184473
0.0142561
0.00741433
0.0425193
0.0371045
0.0320119
0.0272773
0.022839
0.0185036
0.0137235
0.00624746
0.0482288
0.0415283
0.035396
0.0298246
0.0247158
0.0198451
0.0146188
0.00659194
0.052825
0.0452668
0.0382955
0.0320062
0.0263129
0.0209773
0.0153657
0.0068928
0.0552472
0.0472634
0.0398786
0.033213
0.0272161
0.0216335
0.0158129
0.00709593
0.0546098
0.0468122
0.0395871
0.0330534
0.0271456
0.0216234
0.015838
0.00714682
0.0511808
0.0441235
0.0375873
0.0316266
0.0261654
0.0209806
0.0154547
0.00704885
0.0459827
0.0401761
0.0346403
0.0294711
0.0246313
0.0199283
0.014785
0.00684196
0.0422232
0.0367543
0.0316534
0.0269426
0.0225482
0.0182683
0.0135539
0.00619127
0.0480299
0.0411901
0.035005
0.0294373
0.0243683
0.0195591
0.0144103
0.00651937
0.0527158
0.0449506
0.0378828
0.0315737
0.0259119
0.0206393
0.0151141
0.00679878
0.0552561
0.0469907
0.0394674
0.0327635
0.0267862
0.0212629
0.0155314
0.00698539
0.0546147
0.0465518
0.0391936
0.0326145
0.0267227
0.0212542
0.0155538
0.00703275
0.0510373
0.0438283
0.0372117
0.031225
0.0257804
0.0206429
0.0151922
0.00694276
0.045758
0.0398728
0.0342967
0.0291198
0.0242986
0.019635
0.0145536
0.00674629
0.0415007
0.0360846
0.0310732
0.0264698
0.022187
0.0180125
0.0133943
0.00614329
0.0473028
0.0404362
0.0343187
0.028862
0.0239209
0.0192382
0.0142076
0.00645637
0.0520263
0.0441345
0.0371018
0.030899
0.025378
0.0202501
0.0148637
0.00671678
0.0545342
0.0461359
0.03863
0.0320354
0.0261981
0.0208266
0.0152449
0.00688666
0.0539212
0.0457232
0.0383816
0.0318983
0.0261378
0.0208125
0.0152576
0.00692671
0.0504046
0.0430769
0.0364816
0.0305781
0.0252463
0.0202328
0.0149107
0.00683789
0.0451161
0.0392034
0.0336666
0.0285632
0.0238337
0.0192702
0.014296
0.00664539
0.0404626
0.0352152
0.0303844
0.0259641
0.0218491
0.0178161
0.0133102
0.0061593
0.0460921
0.0393889
0.0334633
0.0282178
0.0234788
0.0189702
0.0140794
0.00645725
0.0507095
0.0429526
0.0361054
0.0301301
0.0248366
0.0199109
0.0146903
0.0067014
0.0531877
0.0448932
0.0375624
0.0311942
0.0255916
0.020436
0.0150353
0.00685606
0.0526117
0.0445124
0.0373309
0.0310598
0.0255242
0.0204075
0.0150313
0.0068855
0.0491896
0.0419712
0.035526
0.0298086
0.0246746
0.0198463
0.0146872
0.00679109
0.0440439
0.0382393
0.0328385
0.0278924
0.0233274
0.0189198
0.014088
0.00659877
0.0394173
0.0344249
0.0298491
0.0256568
0.0217323
0.0178461
0.0134367
0.00627708
0.0447422
0.038328
0.0327106
0.0277457
0.0232433
0.0189197
0.0141587
0.00657143
0.0491808
0.0416895
0.0351705
0.0295111
0.0244905
0.0197818
0.01472
0.00680648
0.0516171
0.0435493
0.036532
0.030483
0.0251708
0.020248
0.0150227
0.00694806
0.0511156
0.0431974
0.036304
0.0303377
0.0250777
0.0201894
0.0149905
0.00696152
0.0478147
0.0407712
0.0345836
0.0291372
0.0242495
0.0196286
0.0146345
0.00685004
0.0428362
0.0372088
0.032029
0.027311
0.0229552
0.0187267
0.0140402
0.00664445
0.0386216
0.033998
0.0297712
0.0258986
0.0222547
0.0185967
0.0143336
0.00744587
0.0434647
0.0375456
0.032363
0.0277846
0.0236168
0.019566
0.014989
0.00773272
0.0475158
0.0406155
0.034593
0.0293706
0.0247275
0.0203275
0.0154808
0.00795102
0.0498239
0.0423435
0.0358304
0.0302294
0.025309
0.0207096
0.0157149
0.00805983
0.0493259
0.041994
0.0355828
0.0300476
0.0251665
0.0205922
0.015621
0.00802726
0.0462423
0.0397039
0.0339439
0.0288838
0.0243383
0.0200033
0.0152191
0.00786545
0.0416333
0.0363705
0.0315374
0.0271461
0.0230853
0.0191066
0.014606
0.00762218
0.0458922
0.0401063
0.0345867
0.0294351
0.0246124
0.0199248
0.0147934
0.00686013
0.0510569
0.0440604
0.0375577
0.0316269
0.0261936
0.0210345
0.0155295
0.00713276
0.0545099
0.0468066
0.0396358
0.0331462
0.0272726
0.0217754
0.0160118
0.00730564
0.0552597
0.0473938
0.0400707
0.0334607
0.0274947
0.0219262
0.0160988
0.00732544
0.0530604
0.0456027
0.0386825
0.0324216
0.0267398
0.0213959
0.015748
0.00718002
0.0486832
0.0420597
0.0359564
0.030389
0.0252633
0.0203586
0.0150651
0.00691552
0.0431819
0.0377962
0.0327055
0.0279519
0.0234744
0.0190797
0.0142088
0.00658626
0.0457001
0.0398343
0.0342728
0.0291104
0.0243023
0.0196494
0.0145738
0.00676818
0.0510317
0.0438807
0.0372936
0.0313255
0.0258932
0.0207652
0.0153111
0.00704101
0.0546826
0.046734
0.0394324
0.0328795
0.0269899
0.0215119
0.0157924
0.0072116
0.0554725
0.0473709
0.0399153
0.0332324
0.0272412
0.0216856
0.0158989
0.00724039
0.0532146
0.0455808
0.0385513
0.0322281
0.0265245
0.0211917
0.0155768
0.00711036
0.0487739
0.0420212
0.0358378
0.0302241
0.0250848
0.0201904
0.0149271
0.00686236
0.0431809
0.037724
0.032586
0.0278058
0.0233217
0.0189365
0.0140913
0.00654243
0.0450899
0.0391949
0.03367
0.0285763
0.0238543
0.0192956
0.0143215
0.00666745
0.0505194
0.0432437
0.0366694
0.0307683
0.0254275
0.020403
0.0150568
0.00694146
0.0542356
0.046122
0.038811
0.0323164
0.0265198
0.0211523
0.0155409
0.0071169
0.0551337
0.046834
0.0393464
0.0327056
0.026797
0.0213403
0.015661
0.00715194
0.052929
0.0451192
0.0380615
0.0317725
0.0261376
0.0208904
0.0153706
0.00703628
0.0484518
0.0416131
0.0354248
0.0298475
0.0247677
0.0199446
0.0147584
0.00680206
0.0428109
0.0373461
0.0322276
0.0274869
0.0230563
0.0187316
0.0139501
0.00649243
0.0440462
0.0382567
0.0328652
0.0279211
0.0233566
0.0189479
0.0141116
0.00661593
0.0494249
0.0422555
0.0358138
0.030067
0.0248994
0.0200391
0.0148396
0.00688993
0.0531631
0.045144
0.0379487
0.0316037
0.0259831
0.0207849
0.0153273
0.0070725
0.0542111
0.0459493
0.0385429
0.0320314
0.0262858
0.0209929
0.0154637
0.00711584
0.0521713
0.0443499
0.0373529
0.0311757
0.0256874
0.0205894
0.015203
0.00701194
0.0477655
0.0409363
0.0348181
0.0293457
0.024394
0.019697
0.0146228
0.0067868
0.0421647
0.036749
0.0317132
0.0270738
0.0227549
0.0185351
0.0138476
0.00648914
0.0428731
0.037248
0.0320655
0.0273423
0.0229802
0.0187454
0.0140521
0.00665312
0.0482195
0.0411736
0.0349375
0.0294277
0.0244785
0.0198051
0.0147625
0.0069354
0.0520542
0.0440822
0.0370637
0.0309491
0.0255525
0.0205521
0.0152555
0.00713214
0.053265
0.0449753
0.0377066
0.0314081
0.025878
0.0207847
0.0154062
0.00718554
0.0512449
0.0434472
0.0365974
0.0306242
0.0253352
0.0204126
0.0151701
0.00708831
0.0468746
0.0401393
0.0341812
0.0288965
0.0241205
0.0195739
0.0146209
0.00686396
0.0414102
0.0361099
0.0312212
0.0267412
0.0225685
0.018474
0.0138854
0.00656825
0.0416991
0.0364284
0.0315813
0.0271751
0.0230996
0.0191066
0.0145947
0.00761528
0.0467616
0.0401815
0.0343293
0.0291702
0.0245359
0.0201262
0.0152833
0.00791152
0.0504987
0.043033
0.0364117
0.0306584
0.0255882
0.0208638
0.0157708
0.00812466
0.0516978
0.0439345
0.0370697
0.0311321
0.0259256
0.0210985
0.0159338
0.00819542
0.049804
0.0425291
0.03606
0.0304247
0.0254405
0.0207766
0.0157242
0.00810275
0.0457681
0.0394353
0.0338003
0.0288134
0.024309
0.0199889
0.0152112
0.00787684
0.0406997
0.0356624
0.0310296
0.0267998
0.0228607
0.0189665
0.0145259
0.00758197
0.0398058
0.0347942
0.0301077
0.0257484
0.0216422
0.0175983
0.0130906
0.00595417
0.0445265
0.0382697
0.0326706
0.0276228
0.0229895
0.0185396
0.0137041
0.00615716
0.048254
0.0411014
0.0347596
0.0291325
0.0240549
0.019266
0.0141609
0.00630784
0.0501201
0.0425274
0.0358211
0.0299015
0.0245988
0.0196381
0.0143966
0.00639356
0.0495224
0.0420992
0.0355313
0.0297132
0.0244824
0.0195717
0.0143647
0.0063981
0.0466224
0.0399646
0.0340079
0.0286528
0.0237637
0.0191038
0.0140862
0.00632918
0.0422413
0.0368373
0.0317669
0.0270617
0.0226574
0.0183601
0.0136229
0.00620437
0.0397109
0.0346598
0.0299608
0.0256099
0.0215258
0.0175105
0.0130342
0.00594954
0.0444555
0.038123
0.0324948
0.0274524
0.0228465
0.018434
0.0136386
0.00615099
0.0481943
0.040934
0.0345481
0.0289224
0.0238771
0.019134
0.0140781
0.00629532
0.0500532
0.0423308
0.0355686
0.0296494
0.0243845
0.0194773
0.0142933
0.00637221
0.0493982
0.0418545
0.0352372
0.029427
0.0242402
0.0193878
0.0142437
0.00636856
0.046415
0.0396689
0.0336853
0.0283481
0.0235049
0.0189036
0.0139506
0.00629191
0.0419487
0.0365013
0.0314283
0.0267492
0.0223898
0.018147
0.0134718
0.00615656
0.0392882
0.0342808
0.0296453
0.0253688
0.0213598
0.0174116
0.0129895
0.00595213
0.0439677
0.0376653
0.0321075
0.0271555
0.0226431
0.0183142
0.0135856
0.00615377
0.0476261
0.0403865
0.0340791
0.0285601
0.0236267
0.0189843
0.0140088
0.00629398
0.0494035
0.0416991
0.0350247
0.0292288
0.0240906
0.0192969
0.0142044
0.00636351
0.0486783
0.0411683
0.0346507
0.0289724
0.0239178
0.0191842
0.0141373
0.00635139
0.0456792
0.0389817
0.0331006
0.0278886
0.0231724
0.0186857
0.0138292
0.00626537
0.0412316
0.0358492
0.0308722
0.026304
0.0220568
0.0179175
0.0133336
0.00611802
0.0386332
0.0337485
0.0292498
0.0251075
0.021217
0.0173637
0.0130087
0.00601363
0.0431845
0.0370114
0.0316164
0.0268286
0.0224613
0.0182472
0.0135982
0.00621568
0.0467152
0.0396093
0.033487
0.0281604
0.0233981
0.0188908
0.014009
0.00635359
0.048361
0.0408167
0.0343508
0.0287691
0.0238203
0.0191764
0.014189
0.00641762
0.0475519
0.0402329
0.0339399
0.028482
0.0236219
0.0190428
0.0141061
0.00639762
0.0445617
0.0380643
0.0324004
0.027399
0.022868
0.0185302
0.0137831
0.00630207
0.0402109
0.0350064
0.0302185
0.0258351
0.0217535
0.0177507
0.0132721
0.00614446
0.0380167
0.0333239
0.0290119
0.0250368
0.0212842
0.0175324
0.0132319
0.00617157
0.0423736
0.0364385
0.0312745
0.0266916
0.0224915
0.0184002
0.0138212
0.00638754
0.0457452
0.0388984
0.0330428
0.0279554
0.023388
0.0190238
0.0142266
0.00653264
0.0472746
0.0400062
0.033831
0.0285105
0.0237748
0.0192879
0.0143952
0.00659527
0.0464074
0.0393847
0.0333898
0.0281977
0.0235542
0.0191353
0.0142971
0.00656538
0.043451
0.0372469
0.0318667
0.0271167
0.0227913
0.018607
0.0139554
0.00645216
0.0392268
0.034274
0.0297341
0.0255739
0.0216773
0.0178146
0.0134243
0.0062718
0.0376367
0.033239
0.0292138
0.0255086
0.0219986
0.0184458
0.0142639
0.00741618
0.0417119
0.0361675
0.0313552
0.0270922
0.0231755
0.0193163
0.0148802
0.00767967
0.0448366
0.0384611
0.0330149
0.0282925
0.0240446
0.0199412
0.0153079
0.00786577
0.0462094
0.0394601
0.0337305
0.0288024
0.0244069
0.0201964
0.0154786
0.00794112
0.0453442
0.0388248
0.0332706
0.0284681
0.0241615
0.0200152
0.0153495
0.00788357
0.0424947
0.0367516
0.0317795
0.0273922
0.023381
0.0194503
0.014958
0.00771432
0.0384888
0.0339048
0.0297141
0.0258731
0.0222559
0.0186195
0.0143707
0.00746867
0.000891209
0.00203062
0.00275439
0.0034185
0.00398536
0.00438342
0.00457625
0.00456738
0.0008881
0.00202052
0.00273599
0.00339047
0.00394908
0.00434188
0.00453254
0.00452307
0.000884865
0.00200927
0.00271545
0.00335953
0.0039095
0.00429729
0.00448682
0.00447809
0.000882986
0.00199972
0.0026984
0.00333471
0.00387867
0.00426352
0.00445347
0.00444693
0.000881375
0.00199288
0.00268689
0.0033186
0.00385955
0.00424354
0.0044348
0.00443111
0.000879095
0.00198701
0.00267837
0.00330796
0.00384801
0.00423271
0.00442618
0.00442622
0.000876275
0.00197957
0.00266779
0.00329513
0.00383447
0.00422023
0.00441634
0.00442058
0.00123008
0.00283706
0.0038969
0.00485498
0.00559146
0.0060101
0.00612369
0.00598006
0.00122114
0.00281121
0.00385637
0.00480233
0.00553176
0.00594869
0.00606291
0.00592145
0.00121117
0.00278131
0.00380964
0.0047422
0.00546408
0.00587974
0.00599526
0.00585691
0.00120328
0.00275589
0.0037704
0.00469215
0.00540823
0.00582367
0.00594183
0.00580816
0.00119707
0.00273742
0.00374289
0.00465773
0.00537037
0.00578635
0.00590826
0.00578053
0.00119097
0.00272268
0.00372252
0.00463318
0.00534416
0.00576143
0.00588825
0.00576788
0.00118395
0.00270595
0.00369964
0.00460623
0.00531586
0.00573461
0.00586629
0.00575291
0.00176749
0.00418125
0.00584852
0.00721176
0.00804921
0.00837928
0.00829412
0.00789102
0.00174825
0.00413094
0.0057791
0.00713269
0.00796852
0.00830014
0.00821928
0.00782234
0.00172595
0.00407205
0.00569875
0.00704242
0.00787688
0.00821023
0.0081335
0.00774192
0.00170639
0.00402002
0.0056286
0.00696309
0.00779604
0.00813182
0.00806038
0.00767564
0.00169084
0.00398039
0.00557551
0.00690244
0.00773273
0.00807158
0.00800762
0.0076332
0.0016771
0.00394855
0.00553343
0.0068531
0.00768009
0.00802273
0.00796793
0.00760655
0.00166227
0.00391464
0.00548871
0.0068017
0.00762609
0.00797282
0.00792662
0.00757639
0.0025997
0.00645292
0.00920475
0.0109037
0.0116869
0.0117469
0.0112582
0.0103902
0.00256788
0.00637782
0.00911443
0.0108084
0.0115916
0.0116547
0.0111727
0.0103158
0.00253017
0.00629052
0.00901432
0.010705
0.0114891
0.0115558
0.0110798
0.0102315
0.00249438
0.00621004
0.00892519
0.0106113
0.011395
0.011465
0.0109956
0.0101555
0.00246318
0.00614071
0.00884598
0.010523
0.0113052
0.0113804
0.0109219
0.0100965
0.0024345
0.00607887
0.00877253
0.0104372
0.0112168
0.0112981
0.0108527
0.0100453
0.0024052
0.00601525
0.00869667
0.0103514
0.0111299
0.0112181
0.0107856
0.00999359
0.00397599
0.0112173
0.0147731
0.0164727
0.0168872
0.0163575
0.0151433
0.0134881
0.00393703
0.0111423
0.0146753
0.0163624
0.0167764
0.0162516
0.0150442
0.0134028
0.00389371
0.0110533
0.0145702
0.0162523
0.0166691
0.0161494
0.014949
0.0133223
0.00385442
0.0109819
0.0144863
0.0161625
0.0165761
0.0160572
0.014862
0.0132465
0.00381698
0.0109094
0.0143983
0.0160625
0.0164709
0.0159544
0.0147704
0.0131721
0.00378044
0.0108308
0.0143037
0.0159557
0.0163568
0.0158431
0.0146727
0.0130917
0.00374101
0.0107429
0.0142036
0.0158487
0.0162458
0.0157365
0.0145809
0.0130183
0.00856547
0.0196809
0.0234767
0.0246251
0.0240917
0.0224234
0.0200071
0.0170863
0.00873598
0.0196893
0.0234042
0.0244879
0.0239374
0.022287
0.019888
0.0169754
0.00889725
0.0196439
0.0232974
0.0243477
0.0237973
0.0221628
0.0197736
0.0168797
0.00906575
0.0196204
0.0232307
0.0242585
0.0236997
0.0220644
0.019676
0.0167984
0.00919705
0.0195956
0.0231745
0.0241774
0.0235982
0.0219542
0.0195737
0.0167154
0.00924991
0.0195242
0.0230884
0.0240831
0.023488
0.021835
0.0194684
0.0166279
0.00922574
0.0193978
0.0229671
0.0239748
0.0233779
0.0217182
0.0193605
0.0165458
0.000849454
0.00191588
0.00258942
0.00320147
0.00373878
0.00413109
0.00433967
0.00436154
0.000843894
0.00190713
0.00258127
0.00319466
0.00373444
0.00412896
0.0043388
0.00436129
0.000839566
0.00190231
0.00257765
0.00319231
0.00373401
0.00412995
0.00434003
0.004362
0.000838319
0.0019056
0.00258443
0.00320205
0.00374635
0.00414356
0.00435318
0.00437382
0.000842034
0.00191725
0.00260278
0.00322757
0.00377724
0.0041769
0.00438617
0.00440498
0.000849623
0.00193583
0.0026306
0.00326578
0.00382301
0.00422625
0.00443528
0.00445174
0.000858813
0.00195839
0.00266259
0.00330836
0.00387266
0.00427873
0.00448678
0.00450002
0.00114339
0.00261201
0.0035717
0.00446142
0.00516653
0.00558917
0.00573482
0.00564326
0.00113964
0.00260807
0.00356987
0.00446166
0.00516932
0.0055928
0.00573805
0.00564524
0.00113707
0.00260839
0.00357358
0.00446833
0.00517873
0.00560266
0.00574632
0.00565053
0.00113842
0.00261934
0.00359144
0.00449143
0.00520501
0.00562864
0.00576975
0.00566983
0.0011468
0.00264448
0.00362898
0.00453938
0.00525809
0.00568164
0.00581992
0.00571518
0.001161
0.00268125
0.00368238
0.00460761
0.00533344
0.00575743
0.0058927
0.00578244
0.001177
0.00272157
0.00373974
0.00468056
0.00541377
0.00583814
0.00596979
0.00585306
0.0016034
0.00377151
0.00527772
0.00656349
0.00737598
0.00772913
0.00770275
0.0073825
0.00160453
0.00377694
0.00528233
0.00657284
0.00738686
0.0077385
0.00770904
0.00738506
0.0016082
0.00379009
0.00529872
0.00659585
0.0074128
0.00776263
0.00772829
0.00739776
0.00161758
0.00381897
0.00533701
0.00664087
0.00745972
0.00780691
0.00776634
0.00742741
0.00163678
0.00387021
0.00540682
0.0067184
0.00753851
0.0078829
0.00783614
0.00748866
0.0016636
0.0039391
0.00550288
0.0068248
0.00764667
0.00798862
0.00793546
0.00757865
0.0016919
0.00401141
0.00560609
0.00694079
0.00776609
0.00810569
0.00804499
0.00767702
0.00231269
0.00576412
0.00831837
0.0099261
0.0107027
0.010815
0.0104229
0.00967969
0.00232243
0.00578112
0.00832397
0.00993452
0.0107128
0.0108229
0.0104263
0.00967784
0.00233958
0.00581588
0.00835517
0.00997343
0.0107543
0.010861
0.0104568
0.00969919
0.00236479
0.00587334
0.00841721
0.0100425
0.010824
0.0109256
0.0105116
0.00974116
0.00240059
0.00595692
0.0085139
0.0101442
0.0109256
0.0110227
0.0106001
0.00981762
0.00244375
0.00606263
0.00864544
0.0102827
0.0110648
0.011158
0.0107265
0.00993075
0.0024884
0.00617531
0.00879538
0.0104447
0.0112294
0.0113182
0.0108753
0.0100627
0.00355326
0.0101173
0.0134802
0.0151018
0.0155342
0.0150956
0.0140295
0.0125599
0.00355361
0.0100699
0.0134325
0.0150683
0.0155184
0.0150892
0.0140226
0.0125487
0.0035694
0.0100633
0.0134356
0.0150894
0.0155547
0.0151299
0.0140572
0.0125753
0.00360208
0.0101165
0.0135046
0.0151688
0.0156386
0.0152109
0.0141277
0.0126308
0.00364959
0.010217
0.0136199
0.0152886
0.0157575
0.0153256
0.014234
0.0127227
0.00371024
0.0103598
0.0137837
0.015457
0.0159235
0.015487
0.0143871
0.0128602
0.00377952
0.0105324
0.013986
0.0156687
0.0161333
0.0156901
0.0145775
0.0130296
0.00854709
0.0186153
0.0220468
0.0229686
0.0223844
0.0208109
0.0185855
0.0159331
0.008346
0.0184797
0.0218861
0.0228282
0.0222986
0.0207746
0.0185651
0.0159095
0.00809217
0.0183081
0.0217408
0.0227457
0.0222807
0.0207974
0.0185921
0.0159292
0.00787675
0.0182514
0.0217352
0.0227865
0.0223527
0.0208822
0.018672
0.0159954
0.00773852
0.0182943
0.0218293
0.0229056
0.0224782
0.0210058
0.0187922
0.0161035
0.0076708
0.0184157
0.0220155
0.0231069
0.022669
0.0211829
0.0189638
0.0162632
0.00770232
0.0185902
0.0222666
0.0233844
0.0229325
0.0214226
0.0191871
0.0164637
0.000867261
0.00197821
0.0026886
0.00334048
0.00390744
0.00431318
0.00451859
0.00452758
0.000873701
0.00199254
0.00270419
0.00335742
0.0039225
0.00432497
0.00452657
0.00453089
0.000879095
0.0020024
0.00271452
0.00336802
0.00393094
0.00433023
0.00452832
0.00452828
0.000883159
0.00201128
0.00272452
0.00337971
0.0039423
0.00433988
0.00453535
0.00453157
0.000886702
0.00201938
0.00273653
0.00339636
0.00396131
0.00435933
0.00455341
0.00454697
0.000889768
0.00202723
0.00275018
0.0034153
0.00398382
0.00438327
0.00457677
0.00456856
0.000891811
0.00203295
0.00275942
0.00342735
0.00399776
0.0043981
0.00459173
0.00458305
0.00119031
0.0027532
0.00378172
0.00473038
0.00546612
0.0058891
0.00601639
0.00589328
0.00119963
0.00277271
0.00380345
0.00475095
0.00548396
0.00590422
0.00602711
0.00589865
0.00120727
0.00278659
0.003819
0.00476381
0.00549431
0.00591263
0.00603204
0.00589915
0.00121446
0.00280178
0.00383918
0.00478425
0.00551463
0.00593218
0.00604877
0.00591155
0.00122211
0.00281922
0.00386649
0.0048173
0.00555083
0.00596868
0.00608327
0.0059422
0.001229
0.0028368
0.00389531
0.00485426
0.00559208
0.00601066
0.00612395
0.00597993
0.00123285
0.00284629
0.00391118
0.00487442
0.00561423
0.00603347
0.0061466
0.00600176
0.00171318
0.00406202
0.00567453
0.00701503
0.007842
0.00817845
0.00811068
0.00773311
0.00172582
0.0040858
0.00569962
0.0070373
0.0078642
0.00819747
0.00812447
0.00774056
0.00173492
0.00410031
0.00571363
0.00704981
0.00787817
0.00820999
0.00813351
0.0077449
0.00174497
0.00412122
0.00574177
0.00708187
0.00791274
0.00824408
0.00816467
0.00777127
0.00175773
0.00415266
0.00579057
0.00714032
0.00797496
0.00830599
0.00822353
0.00782489
0.00176954
0.00418581
0.00584553
0.00720678
0.00804426
0.00837479
0.00828954
0.00788627
0.00177492
0.00420145
0.00587451
0.00724194
0.00808049
0.00841039
0.0083236
0.007918
0.00252044
0.00625
0.00889126
0.0105511
0.0113373
0.0114205
0.0109663
0.010139
0.0025384
0.00627848
0.00891747
0.010584
0.0113702
0.0114484
0.010986
0.0101492
0.00255029
0.00629372
0.00892939
0.010603
0.0113916
0.0114683
0.0110009
0.0101571
0.00256494
0.00632568
0.00897272
0.010654
0.0114455
0.0115209
0.0110496
0.0102003
0.00258488
0.00638147
0.00905881
0.0107483
0.0115408
0.0116141
0.0111379
0.010282
0.0026042
0.00644522
0.0091641
0.0108605
0.011651
0.011719
0.0112363
0.0103731
0.00261254
0.00647972
0.00923009
0.0109309
0.0117172
0.0117789
0.0112897
0.0104195
0.00382473
0.0106468
0.0141222
0.0158159
0.0162813
0.0158297
0.0147004
0.0131308
0.00383914
0.0106863
0.0141733
0.0158747
0.0163405
0.0158804
0.0147358
0.0131478
0.00384506
0.0107016
0.0141961
0.0159058
0.016377
0.0159163
0.0147638
0.0131603
0.00386438
0.0107602
0.0142632
0.015979
0.0164529
0.0159898
0.0148302
0.0132173
0.00390297
0.0108887
0.014406
0.0161222
0.0165892
0.0161167
0.014947
0.013324
0.00395219
0.0110686
0.0146072
0.0163171
0.0167634
0.0162689
0.0150813
0.0134446
0.00398478
0.0112054
0.0147654
0.0164727
0.0168974
0.0163771
0.0151685
0.0135147
0.00773298
0.0187061
0.0224174
0.0235579
0.0231155
0.0215993
0.0193439
0.0165887
0.00771848
0.0187435
0.0224658
0.0236259
0.0232003
0.0216841
0.0194105
0.0166249
0.00770638
0.0187665
0.0224935
0.0236635
0.0232525
0.0217463
0.0194703
0.0166594
0.00775833
0.0188548
0.0225868
0.0237584
0.0233502
0.0218434
0.0195588
0.016728
0.00792931
0.0190817
0.0228223
0.0239781
0.0235443
0.0220121
0.0197052
0.0168526
0.00821687
0.0194225
0.02319
0.024325
0.0238335
0.0222384
0.0198844
0.0169985
0.0084271
0.019629
0.0234422
0.0246024
0.0240822
0.0224279
0.0200228
0.0171048
0.000872961
0.00196858
0.00265066
0.00327254
0.00380822
0.00419272
0.00438987
0.00439693
0.000870725
0.00195726
0.00263151
0.00324572
0.00377544
0.00415655
0.0043531
0.00436112
0.000868999
0.00194782
0.00261549
0.00322297
0.00374747
0.00412549
0.004321
0.00432915
0.000867018
0.00194116
0.00260575
0.00320884
0.00373052
0.00410728
0.00430279
0.00431178
0.000864476
0.00193644
0.00260133
0.00320391
0.00372674
0.00410531
0.0043032
0.00431507
0.000860359
0.00193091
0.00259841
0.00320305
0.00372981
0.00411248
0.00431396
0.00432967
0.000855107
0.00192421
0.00259543
0.00320381
0.00373617
0.00412421
0.00432996
0.00434976
0.00117552
0.00268321
0.00366619
0.0045649
0.00527051
0.00568905
0.00582385
0.00571594
0.00116829
0.00265944
0.00362893
0.00451724
0.00521661
0.00563325
0.0057687
0.00566367
0.00116248
0.00263977
0.00359782
0.00447793
0.00517227
0.00558706
0.00572217
0.00561831
0.00115759
0.00262617
0.00357652
0.00445239
0.00514387
0.00555779
0.00569337
0.00559113
0.00115369
0.00261883
0.00356639
0.00444242
0.00513428
0.00554898
0.00568698
0.00558824
0.00114991
0.00261522
0.00356516
0.00444351
0.00513827
0.00555525
0.00569668
0.00560193
0.00114648
0.00261376
0.00356864
0.00445244
0.00515226
0.00557246
0.00571704
0.00562537
0.00164504
0.00387133
0.00542784
0.00673078
0.00755159
0.00790082
0.00786148
0.00752101
0.00162922
0.00382614
0.00536145
0.00665255
0.00746896
0.00781798
0.00778184
0.00744733
0.00161694
0.00379019
0.00530881
0.00659173
0.00740495
0.00775263
0.00771704
0.00738486
0.00160786
0.00376601
0.00527256
0.00654931
0.00735988
0.00770685
0.00767244
0.00734294
0.00160247
0.00375428
0.00525338
0.00652563
0.00733366
0.00768197
0.00765102
0.0073264
0.00159986
0.00375253
0.00524899
0.00652107
0.00732877
0.00767984
0.00765341
0.0073342
0.00160064
0.00376031
0.00526065
0.00653798
0.00734752
0.0077005
0.00767582
0.00735824
0.00237334
0.00593712
0.00859491
0.0102384
0.0110156
0.0111103
0.0106902
0.00991432
0.00234342
0.0058552
0.00848304
0.0101146
0.0108908
0.0109903
0.0105786
0.00981456
0.00232126
0.00579291
0.00839905
0.0100246
0.0108005
0.0109009
0.0104916
0.00973128
0.0023052
0.00574873
0.00833525
0.00995548
0.0107306
0.0108319
0.0104255
0.00966931