/*--------------------------------*- C++ -*----------------------------------*\
| =========                 |                                                 |
| \\      /  F ield         | OpenFOAM: The Open Source CFD Toolbox           |
|  \\    /   O peration     | Version:  plus.master.MPPICInterFoam            |
|   \\  /    A nd           | Web:      www.OpenFOAM.com                      |
|    \\/     M anipulation  |                                                 |
\*---------------------------------------------------------------------------*/
FoamFile
{
    version     2.0;
    format      ascii;
    class       volScalarField;
    location    "11.6";
    object      p_rgh;
}
// * * * * * * * * * * * * * * * * * * * * * * * * * * * * * * * * * * * * * //

dimensions      [1 -1 -2 0 0 0 0];

internalField   nonuniform List<scalar> 
11822
(
5741.06
5740.98
5740.83
5740.61
5740.37
5740.12
5739.91
5290.07
5337.55
5373.63
5678.69
5740.67
5740.37
5740.11
3375
2991.16
3715.51
5093.3
5683.95
5740.66
5740.31
2391.01
2369.37
2757.09
3974.31
5446.77
5740.98
5740.48
2917.37
3117.19
3513.19
3684.19
5426.15
5741.03
5740.54
2516.62
2367.19
2366.32
3808.77
5370.43
5741.02
5740.55
3274.49
3153.99
3154.04
4497.12
5530.86
5740.73
5740.4
5742.88
5742.92
5743.02
5743.18
5743.34
5743.43
5743.5
5276.98
5325.28
5360.52
5677.99
5743.16
5743.38
5743.49
3303.44
2903.04
3645.59
5065.65
5683.7
5743.34
5743.49
2297.9
2297.58
2434.35
3888.23
5436.94
5743.36
5743.49
3273.18
2294.58
3357.02
3562.42
5410.3
5743.27
5743.45
3152.82
2295.72
2294.99
3725.27
5358.5
5743.24
5743.43
3312.08
3122.84
3114
4430.32
5522.37
5743.13
5743.37
5745.81
5745.87
5746.09
5746.36
5746.66
5746.92
5747.13
5174.96
5228.81
5296.04
5671.46
5746.3
5746.71
5747.01
2930.07
2609.75
3379.16
4959.95
5678.21
5746.53
5746.89
2232.34
2232.24
2233.36
3615.01
5391.34
5746.45
5746.81
2767.81
2231.2
2328.91
3146.59
5335.72
5746.32
5746.75
3049.52
2229.54
2229.29
3327.42
5287.99
5746.23
5746.72
3041.4
2641.92
2836.44
4171.77
5482.05
5746.24
5746.75
5752.22
5752.19
5752.29
5752.29
5752.4
5752.57
5752.78
5090.6
5155.53
5270.58
5676.21
5752.31
5752.47
5752.65
2489.58
2289.57
3205.49
4916.55
5684.12
5752.47
5752.58
2176.12
2177.28
2175.71
3483.24
5375.64
5752.56
5752.56
2217.15
3811.55
2176.2
2793.96
5289.99
5752.53
5752.54
2220.06
2172.57
2173.39
2992.62
5251.34
5752.44
5752.53
2436.57
2173.21
2313.35
3979.86
5473.3
5752.34
5752.55
5759.33
5759.13
5758.83
5758.31
5757.79
5757.32
5756.85
5127.15
5205.27
5309.43
5691.48
5758.45
5757.83
5757.26
2497.01
2357.56
3352.62
4982.47
5699.73
5758.4
5757.66
2124.09
2146.48
2482.02
3662.32
5402.16
5758.9
5758
2395.56
3891.6
2266.04
2926.86
5320.39
5759.08
5758.17
2119.79
2120.15
2120.29
3082.76
5290.83
5759.1
5758.23
2130.63
2120.71
2178.06
4062.07
5505.97
5758.82
5758.12
5768.47
5768.08
5767.79
5767.3
5766.71
5766.19
5765.87
5278.09
5367.44
5397.08
5711.84
5767.53
5766.8
5766.21
2988.62
3035.01
3831.76
5104.52
5718.81
5767.55
5766.72
2070.08
3514.48
3471.75
4102.48
5464.65
5768.18
5767.18
2231.33
3861.48
3709.93
3694.87
5427.27
5768.48
5767.48
2064.9
2065.85
2066.69
3600.89
5399.76
5768.65
5767.65
2246.32
2157.29
2412.85
4473.04
5577
5768.41
5767.65
5739.74
5739.66
5739.61
5739.59
5739.59
5739.61
5739.09
5739.12
5739.9
5739.77
5739.68
5739.64
5739.62
5739.62
5739.66
5739.7
5740.04
5739.87
5739.76
5739.68
5739.65
5739.65
5739.68
5739.72
5740.17
5739.96
5739.82
5739.73
5739.69
5739.68
5739.7
5739.74
5740.22
5740.01
5739.87
5739.78
5739.73
5739.72
5739.74
5739.77
5740.23
5740.04
5739.92
5739.84
5739.8
5739.79
5739.81
5739.83
5740.08
5739.95
5739.88
5739.85
5739.76
5737.76
5739
5739.81
5743.54
5743.61
5743.68
5743.75
5743.81
5743.86
5743.51
5743.53
5743.56
5743.63
5743.7
5743.76
5743.81
5743.86
5743.91
5743.96
5743.57
5743.63
5743.69
5743.74
5743.79
5743.85
5743.9
5743.95
5743.58
5743.63
5743.68
5743.73
5743.78
5743.83
5743.88
5743.92
5743.55
5743.61
5743.67
5743.71
5743.76
5743.8
5743.85
5743.88
5743.5
5743.58
5743.65
5743.71
5743.76
5743.81
5743.8
5743.88
5743.33
5743.42
5743.53
5743.64
5743.64
5742.58
5743.43
5743.79
5747.27
5747.4
5747.53
5747.65
5747.76
5747.87
5747.67
5747.62
5747.2
5747.37
5747.51
5747.63
5747.75
5747.87
5748
5748.1
5747.13
5747.31
5747.47
5747.6
5747.73
5747.86
5748
5748.11
5747.08
5747.28
5747.44
5747.59
5747.72
5747.85
5748
5748.1
5747.05
5747.25
5747.42
5747.57
5747.71
5747.82
5747.97
5748.02
5747
5747.23
5747.42
5747.57
5747.7
5747.82
5747.71
5748.04
5746.88
5747.09
5747.31
5747.51
5747.57
5747.55
5747.76
5747.94
5752.92
5753.03
5753.12
5753.2
5753.28
5753.36
5753.23
5753.07
5752.77
5752.88
5752.98
5753.09
5753.2
5753.31
5753.39
5753.47
5752.67
5752.77
5752.88
5752.99
5753.1
5753.22
5753.31
5753.4
5752.63
5752.72
5752.82
5752.92
5753.02
5753.12
5753.2
5753.27
5752.62
5752.71
5752.79
5752.88
5752.97
5753.01
5753.09
5753.05
5752.63
5752.72
5752.8
5752.87
5752.93
5752.73
5752.72
5753.04
5752.62
5752.7
5752.79
5752.85
5752.82
5752.86
5752.67
5752.96
5756.32
5755.95
5755.63
5755.39
5755.29
5755.33
5755.53
5755.47
5756.65
5756.2
5755.84
5755.56
5755.41
5755.45
5755.73
5756
5756.97
5756.49
5756.09
5755.78
5755.59
5755.59
5755.85
5756.12
5757.25
5756.76
5756.35
5756.02
5755.81
5755.79
5756.04
5756.27
5757.44
5756.95
5756.55
5756.23
5756.03
5756
5756.25
5756.28
5757.54
5757.06
5756.69
5756.41
5756.23
5755.48
5756.11
5756.48
5757.53
5757.16
5756.84
5756.58
5756.39
5755.87
5755.81
5756.88
5765.82
5765.84
5765.92
5766.2
5766.69
5767.33
5768.13
5768.87
5765.85
5765.65
5765.63
5765.87
5766.35
5767.09
5768.04
5768.81
5766.14
5765.8
5765.68
5765.8
5766.18
5766.84
5767.75
5768.52
5766.46
5766.04
5765.82
5765.84
5766.1
5766.61
5767.38
5768.02
5766.74
5766.31
5766.06
5766
5766.15
5766.5
5767.05
5767.36
5766.99
5766.58
5766.33
5766.24
5766.3
5765.73
5766.43
5766.83
5767.36
5767.14
5766.89
5766.73
5766.69
5760.31
5764.61
5766.8
4660.8
5700.85
5740.56
5740.46
5740.38
5740.36
5740.4
5740.49
3703.31
4929.83
5740.82
5741
5740.7
5740.57
5740.61
5740.67
3761.83
4660.98
5723.43
5741.2
5740.87
5740.72
5739.7
5740.65
3290.71
4928.79
5741.67
5741.18
5740.83
5740.69
5738.6
5740.67
4567.47
5678.96
5741.07
5740.78
5739.9
5739.73
5738.62
5738.37
5644.86
5739.71
5740.62
5739.8
5739.63
5739.83
5739.78
5735.56
5740.69
5740.52
5740.43
5740.29
5740.23
5740.12
5740.23
5738.69
4587.89
5690.2
5742.23
5742.65
5742.94
5743.15
5743.29
5743.43
3842.3
4845.52
5741.32
5742.87
5743.07
5743.24
5742.64
5743.4
3834.62
4562.88
5723.63
5742.81
5743.09
5743.27
5741.51
5743.22
3283.07
4883.8
5742.65
5743.07
5743.24
5743.42
5741.61
5743.7
4512.87
5673.24
5742.81
5743.16
5743.03
5743.3
5742.49
5738.79
5642.08
5741.49
5743.12
5742.96
5743.41
5743.07
5743.17
5738.81
5742.97
5743.21
5743.38
5743.49
5743.61
5743.59
5743.75
5742.95
4356.17
5670.38
5744.85
5745.58
5746.11
5746.49
5746.73
5746.96
3418.5
4592.45
5743.45
5745.36
5745.92
5746.33
5744.69
5746.7
3167.58
4235.97
5719
5745.11
5745.72
5746.17
5744.57
5746.41
2954.09
4632.75
5744.67
5745.5
5745.98
5746.4
5746.36
5747
4254.77
5642.66
5745.35
5745.97
5746.4
5746.65
5746.54
5742.14
5617.46
5743.74
5746.15
5746.57
5746.88
5746.56
5746.94
5742.37
5746.01
5746.44
5746.74
5746.99
5747.21
5747.3
5747.51
5747.15
4084.89
5660.49
5751.02
5751.22
5751.4
5751.56
5751.73
5751.96
2587.72
4296.4
5750.26
5751.07
5751.17
5751.34
5749.83
5751.68
2385.97
3872.19
5700.09
5750.84
5750.95
5751.14
5749.44
5751.45
2279.34
4252.92
5750.88
5751.07
5751.13
5751.35
5751.62
5751.93
3995.42
5605.05
5751.27
5751.22
5751.52
5751.58
5751.62
5747.01
5602.13
5749.28
5751.73
5751.86
5751.97
5751.59
5752.11
5747.25
5751.97
5752.12
5752.21
5752.28
5752.34
5752.36
5752.46
5752.46
4042.71
5670.2
5758.32
5757.47
5756.88
5756.58
5756.67
5756.97
2231.62
4224.84
5758.49
5757.81
5756.96
5756.55
5756.32
5756.94
2325.31
3807.55
5687.13
5757.87
5756.98
5756.57
5755.22
5756.97
2121.97
4200.03
5759.47
5758.02
5757.18
5756.81
5756.93
5757.07
4024.07
5608.2
5758.52
5757.44
5757.16
5756.73
5756.73
5752.13
5616.7
5756.25
5757.94
5757.46
5757.11
5756.9
5756.99
5754.38
5758.46
5758.07
5757.68
5757.3
5757.03
5756.96
5756.84
5757.19
4206.63
5693.02
5767.51
5765.66
5764.03
5762.61
5761.56
5761.16
2307.8
4352.51
5768.52
5766.07
5764.1
5762.4
5761.24
5760.8
2349.33
3928.88
5702.02
5766.4
5764.34
5762.64
5761.36
5760.86
2299.02
4450.44
5768.79
5766.49
5764.67
5763.13
5761.99
5758.19
4361.59
5644.88
5767.43
5765.83
5764.82
5763.52
5762.18
5756.97
5654.64
5765.86
5766.85
5765.98
5765.14
5764.38
5762.75
5761.16
5767.79
5767.34
5766.78
5766.2
5765.67
5765.21
5763.86
5762.82
5740.55
5740.32
5740.16
5740.04
5740.05
5740.05
5740.06
5740.08
5740.62
5740.36
5740.12
5740.04
5739.99
5739.96
5739.96
5739.97
5740.49
5740.25
5740.07
5739.95
5739.87
5739.84
5739.84
5739.86
5740.32
5740.11
5739.95
5739.85
5739.79
5739.76
5735.93
5738.44
5740.12
5739.94
5739.82
5739.74
5739.7
5739.69
5733.74
5738.41
5739.92
5739.79
5739.71
5739.66
5739.63
5738.92
5725.62
5734.65
5739.76
5739.67
5739.63
5739.61
5739.61
5739.64
5727.36
5725.23
5742.91
5743.08
5743.23
5743.43
5743.59
5743.68
5743.74
5743.78
5743.19
5743.37
5743.46
5743.6
5743.68
5743.73
5743.77
5743.81
5743.3
5743.45
5743.55
5743.63
5743.69
5743.73
5743.77
5743.81
5743.4
5743.5
5743.58
5743.65
5743.7
5743.75
5739.03
5743.78
5743.47
5743.54
5743.61
5743.67
5743.72
5743.77
5743.21
5742.01
5743.51
5743.58
5743.64
5743.7
5743.75
5743.06
5729.53
5739.44
5743.55
5743.6
5743.68
5743.74
5743.8
5743.86
5735.97
5729.19
5746.07
5746.44
5746.74
5747.08
5747.32
5747.49
5747.62
5747.7
5746.38
5746.76
5747.03
5747.3
5747.48
5747.62
5747.73
5747.82
5746.58
5746.91
5747.17
5747.37
5747.53
5747.67
5747.79
5747.89
5746.77
5747.03
5747.26
5747.44
5747.59
5747.73
5743
5747.96
5746.95
5747.17
5747.35
5747.51
5747.64
5747.76
5747.29
5742.57
5747.12
5747.3
5747.45
5747.58
5747.7
5747.03
5733.33
5741.05
5747.27
5747.4
5747.53
5747.65
5747.75
5747.86
5743.46
5733.04
5752.22
5752.31
5752.38
5752.44
5752.5
5752.55
5752.59
5752.65
5752.27
5752.35
5752.43
5752.52
5752.58
5752.63
5752.67
5752.7
5752.33
5752.41
5752.49
5752.57
5752.62
5752.66
5752.71
5752.75
5752.38
5752.48
5752.57
5752.64
5752.7
5752.75
5750.8
5752.83
5752.5
5752.6
5752.68
5752.75
5752.81
5751.75
5752.32
5740.22
5752.68
5752.78
5752.86
5752.92
5752.99
5752.25
5741.21
5737.8
5752.88
5752.99
5753.06
5753.13
5753.2
5753.26
5749.05
5738.03
5758.6
5758.07
5757.57
5757.18
5756.94
5756.91
5757.09
5757.28
5758.3
5757.71
5757.27
5756.96
5756.75
5756.73
5756.94
5757.11
5757.98
5757.45
5757.05
5756.73
5756.52
5756.47
5756.7
5756.87
5757.6
5757.13
5756.75
5756.43
5756.21
5756.18
5756.4
5756.58
5757.21
5756.77
5756.39
5756.07
5755.87
5754.22
5755.49
5740.74
5756.81
5756.38
5756.02
5755.73
5755.56
5755.03
5748.37
5740.51
5756.36
5756
5755.68
5755.44
5755.34
5755.43
5752.08
5740.39
5768.05
5767.54
5766.96
5766.48
5766.12
5765.82
5765.54
5764.75
5767.35
5766.76
5766.3
5765.97
5765.75
5765.6
5765.46
5765.24
5766.94
5766.38
5765.98
5765.72
5765.58
5765.53
5765.46
5765.39
5766.52
5766.01
5765.64
5765.44
5765.41
5765.42
5765.41
5765.61
5766.13
5765.71
5765.42
5765.33
5765.44
5764.36
5764.17
5750.59
5765.83
5765.52
5765.37
5765.42
5765.7
5766.07
5765.21
5751.92
5765.74
5765.67
5765.7
5765.92
5766.35
5766.96
5767.03
5754.66
5740.24
5740.16
5740.07
5740
5738.16
5729.46
5734.26
5739.67
5740.43
5740.29
5740.17
5740.02
5739.95
5731.7
5732.53
5739.61
5729.09
5740.54
5740.39
5740.26
5740.17
5739.66
5739.78
5736.6
5465.25
5740.83
5740.61
5740.42
5740.29
5739.81
5739.85
5730.03
4563.5
5723.05
5740.83
5740.56
5740.38
5740.18
5737.9
5740.36
4388.84
5692.33
5740.83
5740.55
5740.4
5740.33
5737.95
5740.13
4962.29
5740.73
5740.62
5740.47
5740.37
5740.33
5740.33
5740.28
5743.44
5743.55
5743.62
5743.69
5741.49
5733.11
5738.44
5743.46
5743.21
5743.37
5743.5
5743.52
5743.57
5733.01
5733.05
5743.32
5730.07
5743.18
5743.4
5743.53
5743.24
5743.66
5741.87
5741.34
5452.6
5742.81
5743.18
5743.38
5743.5
5743.2
5743.12
5733.3
4507.34
5724.16
5742.95
5743.2
5743.35
5743.16
5742.55
5743.66
4304.84
5689.29
5742.72
5743.03
5743.22
5743.35
5741.03
5743.35
4912.43
5741.48
5742.23
5742.68
5742.98
5743.19
5743.27
5743.4
5746.91
5747.14
5747.33
5747.51
5744.8
5737.63
5743.83
5747.23
5746.46
5746.79
5747.08
5747.25
5747.28
5736.77
5736.82
5747.19
5729.15
5746.31
5746.73
5747.04
5746.8
5747.43
5737.32
5745.5
5383.27
5745.6
5746.25
5746.68
5746.95
5747
5744.23
5736.9
4222.19
5710.02
5745.77
5746.31
5746.67
5746.62
5747.15
5747.32
3946.82
5660.94
5745.51
5746.12
5746.51
5746.79
5746.3
5747.12
4701.58
5743.7
5744.95
5745.71
5746.23
5746.61
5746.63
5746.99
5752.53
5752.65
5752.73
5752.79
5749.45
5749.93
5751.22
5751.8
5752.25
5752.36
5752.47
5752.55
5751.8
5741.68
5741.57
5749.14
5734.81
5752.03
5752.17
5752.28
5751.9
5752.42
5741.42
5750.55
5330.14
5751.64
5751.81
5751.95
5751.82
5752.2
5742.41
5741.61
3916.14
5693.95
5751.49
5751.63
5751.75
5751.81
5752.06
5748.97
3504.66
5618.87
5751.25
5751.43
5751.57
5751.73
5751.91
5752.08
4469.82
5750.76
5751.13
5751.33
5751.5
5751.68
5751.54
5751.98
5757.63
5757.36
5757.08
5756.83
5752.96
5755.79
5755.97
5756.1
5758.2
5757.82
5757.47
5757.18
5752.25
5745.7
5750.19
5751.18
5745.37
5758.23
5757.81
5757.46
5756.89
5757.12
5745.99
5755.26
5356.77
5758.7
5758.07
5757.61
5757
5757.17
5747.47
5748.14
3940.87
5704.39
5758.26
5757.61
5757.18
5757
5757.16
5748.38
3469.25
5621.7
5758.08
5757.4
5756.96
5756.58
5756.94
5757.21
4460.43
5759.26
5758.29
5757.51
5756.97
5756.74
5756.53
5757.06
5767.36
5767.12
5766.82
5766.56
5763.45
5759.8
5765
5765.88
5767.9
5767.41
5766.9
5766.44
5755.6
5754.31
5762.76
5759.3
5762.98
5767.89
5767.18
5766.52
5765.63
5765.37
5756.31
5758.74
5475.89
5768.49
5767.5
5766.57
5765.61
5764.92
5760.01
5759.27
4346.31
5739.93
5767.87
5766.53
5765.39
5764.37
5763.52
5753.8
3878.05
5674.39
5767.84
5766.2
5764.85
5763.43
5762.71
5762.03
4707.67
5769.73
5767.78
5766.05
5764.57
5763.19
5761.98
5761.85
5702.86
5703.02
5703.15
5703.26
5703.34
5703.38
5703.39
5703.38
5702.9
5703.01
5703.13
5703.24
5703.31
5703.35
5703.36
5703.34
5702.89
5702.99
5703.11
5703.22
5703.29
5703.32
5703.32
5703.31
5702.88
5702.98
5703.1
5703.2
5703.26
5703.29
5703.29
5703.28
5702.88
5702.99
5703.1
5703.19
5703.24
5703.26
5703.26
5703.23
5702.92
5703.02
5703.12
5703.2
5703.26
5703.28
5703.27
5703.25
5702.99
5703.08
5703.17
5703.25
5703.3
5703.32
5703.32
5703.3
5702.54
5702.72
5702.95
5703.15
5703.28
5703.33
5703.33
5703.3
5702.51
5702.69
5702.92
5703.12
5703.26
5703.31
5703.31
5703.28
5702.49
5702.67
5702.9
5703.09
5703.22
5703.26
5703.25
5703.21
5702.47
5702.66
5702.87
5703.06
5703.18
5703.22
5703.21
5703.17
5702.47
5702.66
5702.86
5703.04
5703.14
5703.18
5703.16
5703.11
5702.51
5702.68
5702.87
5703.05
5703.16
5703.19
5703.18
5703.14
5702.6
5702.74
5702.92
5703.09
5703.2
5703.23
5703.22
5703.18
5701.82
5702.22
5702.67
5703.05
5703.28
5703.35
5703.33
5703.29
5701.78
5702.19
5702.64
5703.02
5703.25
5703.33
5703.32
5703.29
5701.75
5702.16
5702.6
5702.97
5703.19
5703.24
5703.21
5703.15
5701.72
5702.13
5702.56
5702.92
5703.13
5703.19
5703.17
5703.12
5701.71
5702.11
5702.53
5702.89
5703.1
5703.16
5703.13
5703.09
5701.74
5702.11
5702.53
5702.89
5703.1
5703.17
5703.16
5703.12
5701.83
5702.16
5702.56
5702.92
5703.14
5703.2
5703.18
5703.15
5700.64
5701.67
5702.49
5703.13
5703.47
5703.51
5703.41
5703.46
5700.6
5701.63
5702.45
5703.09
5703.44
5703.5
5703.42
5703.48
5700.55
5701.58
5702.39
5703.02
5703.33
5703.34
5703.19
5703.12
5700.49
5701.51
5702.31
5702.94
5703.25
5703.28
5703.15
5703.1
5700.45
5701.45
5702.25
5702.89
5703.22
5703.29
5703.21
5703.18
5700.45
5701.4
5702.21
5702.87
5703.23
5703.32
5703.27
5703.21
5700.51
5701.4
5702.22
5702.89
5703.26
5703.33
5703.23
5703.18
5698.5
5701
5702.61
5703.77
5704.23
5703.92
5601.91
5682.94
5698.47
5700.98
5702.55
5703.69
5704.13
5703.83
5633.04
5653.07
5698.33
5700.86
5702.44
5703.59
5704.04
5703.75
5629.85
5552.67
5698.19
5700.68
5702.28
5703.45
5703.92
5703.66
5639.11
5536.22
5698.13
5700.5
5702.14
5703.35
5703.85
5703.62
5671.86
5509.41
5698.13
5700.31
5702.02
5703.3
5703.85
5703.67
5700.49
5506.75
5698.2
5700.15
5701.96
5703.34
5703.95
5703.76
5650.39
5490.68
5681.24
5697.59
5703.69
5706.22
5706.65
5428.39
4821.17
5234.07
5681.04
5697.69
5703.65
5706
5706.27
5445.97
4864.18
5164.27
5680.82
5697.46
5703.47
5705.89
5706.19
5461.02
4867.13
5053.67
5680.8
5697.08
5703.17
5705.65
5705.98
5451.8
4894.55
5078.49
5681.16
5696.68
5702.86
5705.41
5705.74
5427.78
4966.4
5082.1
5681.79
5696.2
5702.55
5705.31
5705.78
5434.57
5033.57
5080.21
5682.58
5695.64
5702.28
5705.53
5706.33
5414.93
4931.28
5032.88
5703.93
5703.9
5703.95
5704.05
5704.14
5704.2
5704.25
5704.26
5703.27
5701.87
5704
5704.09
5704.19
5704.25
5704.29
5704.31
5700.13
5698.36
5703.94
5704.11
5704.2
5704.27
5704.32
5704.34
5701.52
5698.38
5703.78
5704.08
5704.17
5704.23
5704.27
5704.29
5703.11
5698.22
5700.23
5703.81
5704.09
5704.15
5704.19
5704.21
5703.68
5698.12
5700.7
5703.84
5704
5704.05
5704.08
5704.09
5703.56
5700.55
5702.88
5703.8
5703.88
5703.93
5703.95
5703.97
5703.75
5703.67
5703.75
5703.94
5704.11
5704.21
5704.25
5704.23
5703.01
5702.38
5703.82
5704.01
5704.17
5704.28
5704.32
5704.31
5698.57
5698.75
5703.85
5704.03
5704.19
5704.3
5704.33
5704.32
5700.76
5702.68
5703.8
5703.99
5704.15
5704.25
5704.28
5704.26
5702.26
5697.91
5703.36
5703.91
5704.06
5704.14
5704.17
5704.16
5702.49
5697.77
5702.94
5703.81
5703.95
5704.02
5704.03
5704.02
5703.14
5697.86
5703.09
5703.69
5703.81
5703.87
5703.88
5703.87
5703.14
5703.03
5703.29
5703.72
5704.08
5704.28
5704.31
5704.26
5702.5
5702.56
5703.38
5703.81
5704.17
5704.37
5704.4
5704.34
5699.71
5702.52
5703.42
5703.84
5704.19
5704.37
5704.39
5704.32
5702.29
5703.06
5703.35
5703.81
5704.14
5704.3
5704.3
5704.24
5701.21
5701.48
5703.33
5703.73
5704.02
5704.16
5704.16
5704.1
5696.46
5698.34
5703.24
5703.64
5703.9
5704
5703.99
5703.92
5697.92
5701.07
5703.08
5703.5
5703.73
5703.79
5703.76
5703.69
5701.27
5701.6
5702.48
5703.46
5704.2
5704.53
5704.52
5704.29
5700.79
5701.49
5702.57
5703.58
5704.32
5704.66
5704.63
5704.36
5700.94
5701.74
5702.64
5703.64
5704.34
5704.63
5704.56
5704.25
5700.95
5701.35
5702.63
5703.65
5704.3
5704.55
5704.47
5704.22
5698.4
5701.68
5702.69
5703.59
5704.16
5704.36
5704.3
5704.15
5692.88
5699.8
5702.7
5703.53
5704.02
5704.16
5704.09
5703.93
5692.79
5701.09
5702.63
5703.39
5703.79
5703.85
5703.73
5703.55
5699.57
5699.58
5701.65
5703.53
5704.88
5705.39
5705.03
5525.56
5699.32
5699.7
5701.83
5703.74
5705.11
5705.63
5705.26
5515.51
5698.62
5699.76
5701.98
5703.88
5705.18
5705.6
5705.15
5511.43
5699.16
5699.1
5702.04
5703.95
5705.17
5705.52
5704.99
5557.7
5692.9
5698.97
5702.17
5703.93
5704.99
5705.22
5704.65
5691.05
5691
5698.11
5702.19
5703.9
5704.84
5704.97
5704.52
5704.54
5691.58
5699.36
5702.15
5703.76
5704.54
5704.45
5703.97
5704.02
5687.94
5686.87
5696.73
5703.53
5707.37
5708.12
5564.61
4678.08
5687.36
5686.87
5697
5703.89
5707.82
5708.65
5580.41
4651.86
5685.4
5686.34
5697.49
5704.26
5707.99
5708.64
5560.82
4627.05
5684.93
5687.61
5698.12
5704.63
5708.01
5708.35
5453.54
4706.84
5679.36
5688.6
5698.97
5704.98
5707.67
5707.48
5303.3
5051.06
5678.69
5690.06
5699.82
5705.3
5707.37
5695.9
5303.46
5406.63
5683.79
5692.52
5700.64
5705.56
5707.18
5545.81
5195.45
5051.24
5703.44
5703.31
5703.57
5703.7
5703.78
5703.82
5703.85
5703.86
5703.01
5703.39
5703.49
5703.59
5703.66
5703.7
5703.71
5703.72
5701.95
5703.27
5703.4
5703.49
5703.55
5703.58
5703.59
5703.59
5701.73
5703.03
5703.31
5703.41
5703.47
5703.5
5703.51
5703.51
5701.66
5703.03
5703.25
5703.35
5703.41
5703.45
5703.46
5703.46
5702.46
5703.06
5703.2
5703.31
5703.38
5703.42
5703.44
5703.44
5702.85
5703.04
5703.17
5703.27
5703.34
5703.38
5703.39
5703.39
5702.96
5702.85
5703.35
5703.57
5703.7
5703.75
5703.76
5703.76
5702.91
5703.09
5703.28
5703.45
5703.57
5703.62
5703.62
5703.61
5702.63
5702.98
5703.17
5703.34
5703.44
5703.48
5703.48
5703.46
5701.69
5702.84
5703.09
5703.26
5703.36
5703.4
5703.4
5703.38
5701.74
5702.78
5703.03
5703.21
5703.31
5703.35
5703.35
5703.34
5702.34
5702.76
5702.99
5703.18
5703.3
5703.35
5703.34
5703.32
5702.55
5702.73
5702.95
5703.15
5703.27
5703.32
5703.31
5703.28
5701
5702.27
5703.02
5703.39
5703.61
5703.67
5703.65
5703.61
5702.21
5702.52
5702.92
5703.27
5703.47
5703.52
5703.49
5703.46
5702.07
5702.43
5702.82
5703.15
5703.33
5703.36
5703.33
5703.3
5701.97
5702.35
5702.75
5703.07
5703.24
5703.28
5703.25
5703.24
5701.9
5702.29
5702.7
5703.04
5703.21
5703.25
5703.21
5703.18
5701.85
5702.25
5702.68
5703.04
5703.24
5703.29
5703.27
5703.22
5701.82
5702.22
5702.66
5703.02
5703.23
5703.29
5703.26
5703.21
5699.08
5701.54
5702.6
5703.3
5703.65
5703.68
5703.56
5703.44
5700.87
5701.71
5702.54
5703.18
5703.49
5703.48
5703.33
5703.25
5700.79
5701.68
5702.47
5703.06
5703.32
5703.29
5703.11
5703.02
5700.72
5701.65
5702.42
5702.98
5703.22
5703.19
5703.04
5702.95
5700.68
5701.64
5702.41
5702.98
5703.22
5703.19
5703.04
5702.92
5700.64
5701.64
5702.43
5703.04
5703.34
5703.38
5703.28
5703.3
5700.63
5701.64
5702.45
5703.08
5703.39
5703.42
5703.31
5703.39
5698.19
5700.15
5702.19
5703.68
5704.32
5704.06
5697.52
5662.28
5698.73
5700.33
5702.21
5703.58
5704.11
5703.72
5660.92
5632.19
5698.56
5700.45
5702.23
5703.5
5703.93
5703.47
5651.16
5553.74
5698.44
5700.56
5702.25
5703.42
5703.79
5703.29
5663.07
5533.85
5698.37
5700.69
5702.33
5703.46
5703.79
5703.3
5683.51
5558.45
5698.35
5700.78
5702.41
5703.57
5703.99
5703.66
5631.43
5650.2
5698.44
5700.89
5702.51
5703.68
5704.12
5703.78
5596.49
5665.33
5685.39
5694.25
5701.57
5705.89
5707.1
5501.77
4977.96
5101.1
5684.35
5695.22
5702.27
5706.05
5706.97
5408.54
4855.49
5163.48
5683.38
5695.99
5702.75
5705.98
5706.6
5307.37
4856.74
5092.54
5682.53
5696.58
5703.05
5705.85
5706.14
5266.49
4890.93
4928.32
5681.86
5696.98
5703.27
5705.84
5704.29
5301.97
4931.94
4946.73
5681.47
5697.05
5703.26
5705.8
5705.96
5409.27
4923.66
5310.3
5681.42
5697.31
5703.47
5706.06
5706.41
5404.15
4806.15
5180.48
5703.1
5703.17
5703.25
5703.33
5703.38
5703.4
5703.4
5703.39
5703.23
5703.27
5703.35
5703.44
5703.49
5703.52
5703.53
5703.53
5703.37
5703.39
5703.46
5703.54
5703.6
5703.64
5703.65
5703.65
5703.51
5703.51
5703.58
5703.67
5703.74
5703.79
5703.82
5703.82
5703.65
5703.62
5703.68
5703.77
5703.85
5703.9
5703.93
5703.93
5703.75
5703.35
5703.73
5703.87
5703.95
5704.01
5704.04
5704.05
5703.86
5703.8
5703.87
5703.96
5704.04
5704.1
5704.13
5704.14
5702.73
5702.84
5703
5703.17
5703.27
5703.31
5703.3
5703.28
5702.9
5702.97
5703.12
5703.29
5703.4
5703.45
5703.45
5703.43
5703.07
5703.1
5703.24
5703.41
5703.53
5703.58
5703.59
5703.57
5703.25
5703.24
5703.36
5703.54
5703.68
5703.76
5703.78
5703.77
5703.41
5703.14
5703.47
5703.64
5703.8
5703.88
5703.91
5703.9
5703.5
5702.73
5703.54
5703.75
5703.9
5703.99
5704.02
5704
5703.66
5703.54
5703.66
5703.84
5704
5704.1
5704.13
5704.11
5701.98
5702.24
5702.63
5702.98
5703.2
5703.26
5703.23
5703.2
5702.16
5702.37
5702.75
5703.12
5703.35
5703.43
5703.42
5703.38
5702.34
5702.48
5702.86
5703.23
5703.48
5703.58
5703.57
5703.53
5702.54
5702.17
5702.96
5703.37
5703.66
5703.8
5703.82
5703.78
5702.65
5702.04
5703.03
5703.45
5703.77
5703.93
5703.95
5703.91
5702.85
5702.09
5703.11
5703.53
5703.87
5704.04
5704.06
5704
5703.02
5702.89
5703.19
5703.61
5703.95
5704.13
5704.15
5704.09
5700.59
5701.41
5702.24
5702.92
5703.29
5703.35
5703.2
5703.18
5700.73
5701.41
5702.33
5703.07
5703.49
5703.6
5703.49
5703.52
5700.79
5701.43
5702.4
5703.18
5703.63
5703.76
5703.69
5703.71
5698.66
5700.46
5702.45
5703.31
5703.85
5704.06
5704.07
5704
5697.52
5700.85
5702.42
5703.33
5703.94
5704.2
5704.2
5704.1
5699.42
5701.17
5702.41
5703.34
5704
5704.29
5704.26
5704.08
5700.95
5701.52
5702.4
5703.36
5704.05
5704.35
5704.32
5704.08
5698.13
5700.01
5701.89
5703.33
5703.98
5703.77
5600.5
5525.73
5697.84
5699.91
5701.96
5703.5
5704.24
5704.13
5590.27
5568.26
5697.37
5699.75
5702.01
5703.61
5704.39
5704.29
5646.25
5683.89
5693.08
5698.87
5702.03
5703.73
5704.68
5704.81
5704.41
5704.36
5693.01
5699.09
5701.91
5703.68
5704.77
5705.06
5704.6
5663.16
5694.01
5699.26
5701.76
5703.57
5704.76
5705.12
5704.63
5571.84
5698.65
5699.58
5701.62
5703.46
5704.71
5705.11
5704.61
5489.66
5683
5694.94
5701.85
5705.53
5706.52
5409.73
4958.47
5043.29
5681.28
5694.26
5701.5
5705.64
5706.86
5509.26
4936.51
5159.86
5677.79
5692.9
5701.02
5705.62
5707.05
5578.12
4893.9
5093.03
5683.02
5691.57
5700.22
5705.36
5707.18
5659.43
5298.86
5262.33
5680.51
5689.93
5699.16
5704.87
5707.35
5707.18
5349.95
4968.57
5681.01
5687.18
5698.08
5704.29
5707.39
5707.58
5393.62
4741.19
5686.58
5687.52
5697.18
5703.74
5707.25
5707.71
5470.4
4610.41
5699.92
5703.59
5700.11
5703.38
5703.37
5703.37
5703.37
5703.4
5703.37
5703.39
5703.45
5703.33
5703.32
5703.31
5699.2
5703.36
5703.42
5695.69
5699.12
5703.3
5703.29
5703.29
5699.16
5703.33
5703.39
5699.35
5699.09
5703.26
5703.25
5703.25
5701.84
5703.28
5703.34
5701.72
5700.74
5703.21
5703.2
5703.19
5703.19
5703.21
5703.27
5699.06
5698.87
5703.23
5703.22
5703.21
5703.21
5703.23
5703.29
5699.88
5698.87
5703.28
5703.28
5703.28
5703.29
5703.32
5703.37
5702.41
5699.37
5703.27
5703.26
5703.25
5693.81
5680.96
5698.88
5703.45
5703.42
5703.24
5703.22
5702.76
5686.36
5682.93
5700.66
5682.22
5700.69
5703.18
5703.16
5702.63
5693.03
5687.87
5700.33
5682.15
5701.38
5703.14
5703.13
5702.25
5692.89
5688.12
5698.09
5683.06
5701.79
5703.06
5703.03
5701.28
5698.91
5688.53
5697.62
5675.07
5701.53
5703.11
5703.08
5699.96
5697.97
5685.15
5697.2
5675.11
5699.53
5703.14
5703.12
5700.01
5699.95
5692.19
5700.08
5680.07
5701.44
5703.26
5681.29
5700.48
5640.25
5596.02
5689.21
5703.57
5703.59
5703.25
5651.1
5665.03
5680.78
5594.59
5675.8
5683.59
5703.78
5703.12
5668.51
5676.06
5690.18
5598.15
5664.66
5685.91
5703.68
5703.09
5675.05
5670.41
5686.01
5601.67
5655.19
5685
5703.65
5703.05
5678.45
5665.94
5678.5
5590.03
5629.62
5680.8
5703.61
5703.1
5688.02
5650.24
5680.12
5628.17
5616.02
5687.7
5703.59
5703.15
5663.88
5634.56
5680.52
5640.65
5634.45
5686.6
5703.64
5653.45
5566.45
5666.18
5614.86
5593.26
5657.89
5665.18
5704.13
5664.79
5568.33
5660.15
5679.73
5558.74
5614.99
5683.84
5704.31
5656.52
5574.04
5674.05
5675.66
5558.63
5622.9
5692.01
5704.19
5628.57
5582.83
5668.08
5686.4
5563.3
5636.84
5691.55
5704.13
5631.94
5549.99
5664.8
5673.09
5568.93
5575.29
5666.41
5704.22
5637.14
5534.18
5651.75
5686.62
5623.94
5570.15
5697.13
5703.97
5676.19
5529.82
5623.81
5686.69
5632.96
5587.65
5685.42
5704.1
5256.45
5577.38
5687.42
5687.45
5660.62
5498.52
5526.08
5618.84
5277.98
5644.13
5687.42
5687.58
5634.22
5422.91
5583.35
5658.91
5320.18
5670.23
5687.09
5687.46
5557.1
5479.32
5583.88
5656.99
5334.93
5686.6
5687.17
5687.55
5551.05
5472.38
5588.41
5656.45
5335.27
5627.47
5687.2
5687.54
5675.3
5533.87
5635.25
5635.83
5359.17
5548.24
5687.25
5687.3
5687.03
5568.43
5617.75
5660.9
5321.09
5619.09
5687.52
5687.37
5686.93
5441.02
5542.45
5665.33
5192.97
5385.87
5691.7
5574.3
5202.32
5204.3
5537.24
5287.9
5239.33
5294.49
5676.69
5627.86
5357.75
5230.95
5475.25
5273.72
5314.82
5252.75
5399.46
5642.25
5386.08
5218.49
5451.05
5280.12
5330.9
5268.67
5420.44
5622.74
5388.91
5262.41
5425.14
5292.7
5349.18
5324.43
5364.78
5666.66
5392.84
5277.37
5300.22
5331.41
5358.06
5261.59
5601.14
5690.92
5297.8
5278.56
5432.51
5284.23
5266.89
5671.26
5679.58
5490.24
5343.83
5440.44
5517.06
5299.05
5704.28
5704.28
5704.29
5704.31
5704.35
5704.38
5704.17
5704.66
5704.32
5704.32
5704.33
5704.35
5704.38
5704.46
5704.19
5704.7
5704.36
5704.37
5704.38
5704.41
5704.45
5704.54
5704.09
5704.77
5704.3
5704.32
5704.33
5704.26
5704.4
5704.49
5704.55
5704.75
5704.23
5704.24
5704.26
5703.97
5704.34
5704.42
5704.53
5704.65
5704.1
5704.12
5704.13
5704.15
5704.2
5704.27
5704.37
5704.47
5703.98
5703.99
5704.01
5704.04
5704.08
5704.14
5704.21
5704.31
5704.23
5704.22
5704.22
5704.24
5676.32
5679.07
5702.67
5704.69
5704.3
5704.3
5704.3
5704.32
5685.74
5678.78
5701.04
5704.76
5704.33
5704.33
5704.34
5704.35
5687.84
5686.01
5702.65
5704.83
5704.26
5704.27
5704.28
5704.3
5693.86
5695.77
5704.19
5704.75
5704.15
5704.16
5704.17
5703.97
5698.51
5701.07
5704.43
5704.6
5704.01
5704.01
5704.03
5702.2
5701.63
5703.52
5704.31
5704.41
5703.87
5703.88
5703.9
5703.93
5703.96
5703.61
5704.13
5704.24
5704.25
5704.24
5688.37
5698.06
5630.93
5643.57
5702.34
5704.88
5704.33
5704.33
5697.59
5704.32
5635.76
5634.49
5697.3
5704.92
5704.33
5704.33
5704.36
5704.42
5630.16
5654.58
5703.53
5704.96
5704.21
5704.2
5704.22
5704.3
5635.76
5668.93
5704.66
5704.81
5704.05
5704.03
5704.07
5704.13
5643.43
5682.66
5704.51
5704.61
5703.86
5703.84
5703.91
5699.01
5646.27
5693.05
5704.31
5704.38
5703.66
5703.67
5703.75
5691.49
5680.66
5701.87
5704.14
5704.19
5704.45
5672.94
5542.47
5637.45
5629.98
5633.15
5694.86
5705.28
5704.51
5672.75
5554.01
5650.78
5624.91
5623.07
5687.32
5705.37
5704.38
5694.6
5624.27
5663.93
5624.83
5632.68
5699.56
5705.25
5704.28
5667.98
5603.76
5670.49
5624.7
5640.26
5702.67
5705.06
5704.06
5649.5
5612.79
5681.51
5624.46
5656.67
5704.52
5704.75
5701.92
5620.32
5635.71
5678.56
5624.26
5669.23
5704.37
5704.47
5687.16
5647.48
5680.17
5610.71
5655.39
5704.17
5704.22
5704.28
5629.74
5532.53
5522.9
5686.33
5679.38
5554.92
5679.93
5671.48
5615.7
5532.66
5493.48
5686.42
5680.06
5555.11
5686.98
5666.04
5599.2
5577.68
5454.86
5686.24
5671.21
5537.72
5674.05
5668.2
5677.44
5483.04
5448.7
5686.27
5656.74
5510.77
5622.19
5665.84
5704.88
5298.95
5451.3
5686.07
5685.47
5511.93
5581.07
5663.99
5542.31
5256.04
5469.2
5685.86
5685.7
5502.9
5558.59
5657.7
5338.94
5322.43
5468.34
5620.9
5676.58
5559.34
5574.74
5634.88
5159.65
5452.94
5363.29
5683.52
5543.34
5169.92
5122.79
5378.94
5124.73
5458.56
5343.86
5683.6
5575.36
5174.05
5119.99
5343.29
5109.64
5461.92
5367
5669.63
5553.56
5186.37
5141.47
5316.98
5273.92
5376.33
5334.32
5690.45
5591.72
5197.18
5259.42
5292.16
5467.2
5120.94
5532.36
5689.96
5497.32
5194.87
5316.01
5246
5254.34
5101.22
5459.29
5689.76
5487.6
5250.26
5327.64
5252.17
5105.87
5368.96
5349.28
5641.41
5517.28
5247.82
5287.57
5281
5703.87
5703.89
5703.9
5703.93
5703.97
5703.95
5704.09
5704.16
5703.73
5703.74
5703.75
5703.77
5703.81
5703.67
5703.9
5703.99
5703.59
5703.6
5703.6
5703.62
5703.65
5703.41
5703.75
5703.83
5703.51
5703.51
5703.52
5703.53
5703.56
5703.31
5703.66
5703.75
5703.47
5703.47
5703.48
5703.5
5703.53
5703.58
5703.64
5703.7
5703.44
5703.44
5703.45