/*--------------------------------*- C++ -*----------------------------------*\
| =========                 |                                                 |
| \\      /  F ield         | OpenFOAM: The Open Source CFD Toolbox           |
|  \\    /   O peration     | Version:  plus.master.MPPICInterFoam            |
|   \\  /    A nd           | Web:      www.OpenFOAM.com                      |
|    \\/     M anipulation  |                                                 |
\*---------------------------------------------------------------------------*/
FoamFile
{
    version     2.0;
    format      ascii;
    class       surfaceScalarField;
    location    "11.6";
    object      phi;
}
// * * * * * * * * * * * * * * * * * * * * * * * * * * * * * * * * * * * * * //

dimensions      [0 3 -1 0 0 0 0];

internalField   nonuniform List<scalar> 
34319
(
-6.26823e-08
-4.02789e-08
6.30904e-06
7.56399e-08
5.32746e-08
-4.57733e-08
-2.54231e-08
6.19455e-06
4.07041e-08
-2.52047e-08
-2.04306e-08
5.82677e-06
3.52569e-08
-3.62606e-09
-1.9481e-08
5.27874e-06
3.15923e-08
1.70889e-08
-2.46922e-08
4.63343e-06
3.20763e-08
3.28962e-08
-3.02407e-08
3.9615e-06
3.37115e-08
-3.46027e-08
3.30126e-06
4.14468e-08
3.46557e-08
-7.94853e-08
-3.76168e-08
7.64e-06
1.05579e-07
-6.2779e-08
-3.7244e-09
7.53466e-06
-4.26049e-08
1.76765e-09
7.02327e-06
-1.35562e-08
-7.77628e-09
6.24213e-06
1.34812e-08
-1.48156e-08
5.39274e-06
3.3852e-08
-2.17733e-08
4.56065e-06
-2.83379e-08
3.78359e-06
4.51828e-08
-5.69605e-08
-5.17075e-08
9.62601e-06
1.24898e-07
-6.94841e-08
5.7808e-08
9.71659e-06
-3.13536e-08
1.64869e-08
8.70277e-06
1.66731e-09
3.38988e-09
7.34853e-06
2.57276e-08
2.73493e-09
6.15507e-06
4.37744e-08
-4.44409e-09
5.12632e-06
-1.42229e-08
4.21907e-06
5.45688e-08
-3.89046e-08
-1.50753e-07
1.19707e-05
1.70803e-07
5.97024e-09
-1.36919e-07
1.225e-05
1.85878e-08
-4.8265e-08
1.07318e-05
3.40065e-08
2.69916e-08
8.52192e-06
4.44403e-08
3.40662e-08
6.82493e-06
5.5946e-08
2.26318e-08
5.58782e-06
6.63691e-09
4.56785e-06
6.43894e-08
1.64008e-07
-3.19059e-08
1.24479e-05
1.59329e-07
-1.75142e-07
-4.26359e-08
1.30445e-05
-1.91703e-08
-5.37374e-08
1.14279e-05
5.29898e-09
9.14085e-09
9.24886e-06
3.62275e-08
4.08012e-08
7.22752e-06
5.41563e-08
4.3069e-08
5.87034e-06
2.49506e-08
4.78612e-06
6.66586e-08
1.97628e-08
7.30207e-08
1.23162e-05
2.53961e-07
5.021e-08
-5.34004e-08
1.294e-05
2.50472e-08
1.92645e-08
1.1588e-05
2.92048e-08
5.71995e-08
9.13188e-06
3.47039e-08
7.3034e-08
7.25037e-06
4.94414e-08
6.47384e-08
5.91713e-06
3.9416e-08
4.84526e-06
6.46375e-08
-1.50308e-08
1.06557e-05
1.00051e-07
8.85638e-08
-5.26059e-08
1.09741e-05
1.23028e-07
-5.30742e-08
1.00663e-05
9.20882e-08
-3.2958e-08
8.38367e-06
7.10265e-08
8.79304e-10
6.91857e-06
7.27879e-08
3.24908e-08
5.74459e-06
6.55965e-08
4.74529e-06
6.1895e-08
3.60835e-08
-6.93824e-08
1.22774e-07
6.25159e-06
5.00605e-08
-4.59768e-08
-7.26001e-08
1.20715e-07
6.13199e-06
-5.48381e-08
-6.26767e-08
9.66167e-08
5.7638e-06
-4.36487e-08
-4.12286e-08
5.89571e-08
5.22169e-06
-2.35095e-08
-1.42563e-08
2.06036e-08
4.58767e-06
-1.81294e-09
8.36491e-09
-5.36546e-09
3.93024e-06
1.37901e-08
-2.16445e-08
3.28498e-06
2.24205e-08
2.36585e-08
-1.01087e-07
2.07918e-07
7.59479e-06
6.1293e-08
-1.17875e-07
1.95067e-07
7.47702e-06
-1.16087e-07
1.63234e-07
6.95463e-06
-8.07889e-08
9.51927e-08
6.17028e-06
-3.73576e-08
3.93054e-08
5.3305e-06
-1.99874e-09
5.16637e-09
4.51474e-06
-1.5801e-08
3.75543e-06
2.01322e-08
-1.18831e-07
2.50792e-07
9.66996e-06
3.19231e-08
-1.6881e-07
2.40551e-07
9.72072e-06
-1.64044e-07
1.92683e-07
8.66845e-06
-1.11414e-07
1.11865e-07
7.27907e-06
-5.21911e-08
5.32895e-08
6.08166e-06
-6.51568e-09
1.7566e-08
5.06814e-06
-5.29151e-09
4.18047e-06
2.16128e-08
-1.73935e-07
2.6513e-07
1.20433e-05
8.66715e-08
-9.9818e-08
1.41852e-07
1.22742e-05
-1.62485e-07
2.13769e-07
1.0773e-05
-1.19225e-07
1.06899e-07
8.48359e-06
-5.62071e-08
6.53332e-08
6.74989e-06
-7.57025e-09
3.47992e-08
5.52195e-06
9.11839e-09
4.52181e-06
2.39861e-08
-7.07826e-08
-8.77378e-08
1.276e-05
1.11302e-07
-2.29091e-07
-4.48217e-08
1.33896e-05
-2.21647e-07
-1.19446e-07
1.17537e-05
-1.60261e-07
3.77492e-08
9.25683e-06
-7.83926e-08
5.32323e-08
7.15786e-06
-1.79549e-08
4.27735e-08
5.80196e-06
1.96163e-08
4.73661e-06
2.09569e-08
-1.05628e-07
-5.66087e-08
1.21827e-05
2.08125e-07
-1.23057e-07
-5.41319e-08
1.29668e-05
-2.10109e-07
-8.86653e-08
1.16443e-05
-1.74034e-07
-2.21175e-08
9.15568e-06
-9.56605e-08
3.72201e-08
7.18799e-06
-2.98032e-08
4.26005e-08
5.85131e-06
2.25476e-08
4.79639e-06
1.61169e-08
-6.12696e-08
1.07465e-05
3.07023e-08
-1.16615e-07
-2.14198e-07
1.1156e-05
-8.24489e-08
-2.56934e-07
1.01272e-05
-1.06732e-07
-2.09092e-07
8.3744e-06
-6.06504e-08
-1.16119e-07
6.85837e-06
4.28313e-09
-3.93249e-08
5.68415e-06
2.61482e-08
4.7006e-06
1.79161e-08
1.00279e-08
-6.37476e-08
8.64319e-08
6.18436e-06
5.36068e-08
-9.0292e-09
-5.79993e-08
7.78684e-08
6.05976e-06
-1.12633e-08
-3.5381e-08
4.1018e-08
5.69473e-06
5.42438e-09
-6.60159e-09
6.47964e-09
5.16295e-06
2.33709e-08
2.2058e-08
-2.36005e-08
4.5443e-06
3.86372e-08
4.25048e-08
-4.19419e-08
3.90401e-06
4.77645e-08
-5.20497e-08
3.27535e-06
5.21555e-08
5.18029e-08
-1.12407e-07
1.95939e-07
7.51993e-06
7.80178e-08
-1.15969e-07
1.67999e-07
7.39035e-06
-8.64057e-08
1.04765e-07
6.86158e-06
-3.77433e-08
4.31688e-08
6.08493e-06
8.14901e-09
-3.32967e-09
5.26454e-06
4.05526e-08
-3.01983e-08
4.47108e-06
-4.5722e-08
3.73264e-06
5.70838e-08
-1.85968e-07
2.63633e-07
9.71569e-06
7.2366e-08
-1.90869e-07
1.96164e-07
9.69736e-06
-1.34891e-07
1.3105e-07
8.58647e-06
-6.30421e-08
7.50328e-08
7.1751e-06
1.91673e-10
2.05231e-08
5.99455e-06
4.28255e-08
-1.28535e-08
5.00799e-06
-3.22476e-08
4.1457e-06
6.43533e-08
-3.24444e-07
3.31395e-07
1.20849e-05
2.15174e-07
-1.7704e-07
1.59515e-07
1.21632e-05
-1.49489e-07
1.5827e-07
1.07179e-05
-8.01662e-08
9.85522e-08
8.39061e-06
-2.1667e-09
4.29208e-08
6.64944e-06
4.56635e-08
1.20349e-08
5.44933e-06
-1.28644e-08
4.47776e-06
7.03024e-08
-4.64753e-07
2.43481e-07
1.30351e-05
2.77684e-07
-1.58445e-07
2.17181e-07
1.30255e-05
-1.86792e-07
3.88172e-08
1.19015e-05
-1.15896e-07
7.63231e-08
9.20825e-06
-2.37611e-08
5.53456e-08
7.0534e-06
3.68054e-08
3.08601e-08
5.72263e-06
4.33525e-09
4.68747e-06
6.87995e-08
-4.21862e-07
5.12355e-09
1.25809e-05
2.62124e-07
-2.55896e-07
7.63023e-08
1.29417e-05
-2.37772e-07
2.30232e-08
1.16415e-05
-1.54439e-07
6.58811e-09
9.14195e-06
-4.6122e-08
4.29181e-08
7.09198e-06
2.32813e-08
3.82806e-08
5.77441e-06
1.36209e-08
4.74743e-06
6.30072e-08
-1.88739e-07
1.09539e-05
7.92698e-08
-9.24222e-08
-2.66472e-07
1.13784e-05
-6.82778e-08
-2.73101e-07
1.02443e-05
-8.75516e-08
-1.79973e-07
8.32281e-06
-3.50363e-08
-6.66415e-08
6.77143e-06
1.6332e-08
1.10211e-08
5.61522e-06
2.95648e-08
4.6566e-06
6.00149e-08
8.67503e-09
-5.59876e-08
-1.40231e-07
6.14249e-06
9.4126e-08
1.44012e-07
-1.14056e-08
-1.5284e-07
6.01268e-06
1.55299e-07
4.11525e-08
-1.73145e-07
5.65252e-06
1.62831e-07
7.8713e-08
-1.58932e-07
5.13201e-06
1.52377e-07
1.00129e-07
-1.40576e-07
4.52723e-06
1.36322e-07
1.07611e-07
-1.24478e-07
3.90055e-06
1.20322e-07
-1.10074e-07
3.28415e-06
1.03447e-07
1.05425e-07
-1.06163e-07
-1.00898e-07
7.43401e-06
1.52775e-07
-5.01831e-08
-1.11217e-07
7.29265e-06
3.82302e-08
-1.73845e-07
6.77397e-06
9.72847e-08
-1.55607e-07
6.02254e-06
1.25056e-07
-1.3099e-07
5.22723e-06
1.33656e-07
-1.15791e-07
4.45381e-06
-1.04415e-07
3.73128e-06
1.29369e-07
-2.3914e-07
-1.72245e-08
9.61604e-06
2.54936e-07
-1.06476e-07
-8.38433e-08
9.53719e-06
7.17718e-08
-1.75255e-07
8.40955e-06
1.43264e-07
-1.14057e-07
7.06194e-06
1.63068e-07
-8.7634e-08
5.93137e-06
1.65496e-07
-8.58954e-08
4.97562e-06
-8.37608e-08
4.13392e-06
1.56757e-07
-4.15523e-07
8.55938e-08
1.19154e-05
4.82144e-07
-1.26986e-07
-8.36564e-08
1.18743e-05
1.39627e-07
-7.20808e-08
1.03479e-05
1.80529e-07
2.87391e-08
8.2068e-06
1.95518e-07
-1.2996e-08
6.55984e-06
1.91262e-07
-3.52789e-08
5.40297e-06
-4.97929e-08
4.45687e-06
1.78135e-07
-5.16905e-07
4.03156e-07
1.27122e-05
5.22343e-07
-6.67636e-08
1.61761e-07
1.23297e-05
-1.4237e-08
2.80944e-07
1.14956e-05
1.31228e-07
8.40488e-08
9.00743e-06
1.847e-07
4.1039e-08
6.94589e-06
1.92221e-07
1.27957e-08
5.66701e-06
-1.431e-08
4.66045e-06
1.83739e-07
-4.57204e-07
2.23313e-07
1.27729e-05
4.44836e-07
-2.60433e-07
1.71414e-07
1.27351e-05
-3.2499e-09
2.3313e-07
1.14318e-05
1.07295e-07
1.33902e-07
8.98149e-06
1.65159e-07
8.66755e-08
6.98842e-06
1.80035e-07
5.33473e-08
5.71897e-06
1.68442e-08
4.71912e-06
1.77131e-07
-2.52158e-07
1.1039e-05
2.33385e-07
1.57047e-07
-1.52883e-07
1.13631e-05
8.70349e-08
-4.21275e-08
1.01958e-05
1.70868e-07
6.77858e-08
8.19532e-06
1.51452e-07
1.2793e-07
6.68626e-06
1.11686e-07
1.5318e-07
5.56688e-06
7.64778e-08
4.63105e-06
1.60193e-07
3.5361e-08
-5.01773e-08
-3.38188e-07
6.10043e-06
1.43461e-07
2.86951e-07
3.43487e-08
-3.43288e-07
5.9645e-06
3.06809e-07
1.15086e-07
-3.4277e-07
5.60642e-06
3.08122e-07
1.74511e-07
-3.07503e-07
5.0914e-06
2.88741e-07
2.13603e-07
-2.69288e-07
4.49259e-06
2.64697e-07
2.38936e-07
-2.42848e-07
3.87243e-06
2.45719e-07
-2.24559e-07
3.2656e-06
2.50943e-07
2.31387e-07
-8.32952e-08
-3.69866e-07
7.33488e-06
2.13886e-07
2.86901e-08
-3.47824e-07
7.18519e-06
1.48085e-07
-3.76674e-07
6.68847e-06
2.20244e-07
-3.20249e-07
5.96325e-06
2.54055e-07
-2.58018e-07
5.18232e-06
2.71107e-07
-2.23192e-07
4.41708e-06
-2.02737e-07
3.70244e-06
2.78272e-07
-2.47018e-07
-2.073e-07
9.29929e-06
4.01415e-07
4.28855e-08
-2.53647e-07
9.15328e-06
2.49623e-07
-3.44106e-07
8.17007e-06
3.11363e-07
-2.73228e-07
6.95345e-06
3.14924e-07
-2e-07
5.86992e-06
3.12299e-07
-1.74879e-07
4.93013e-06
-1.6198e-07
4.0973e-06
3.08231e-07
-5.21163e-07
4.6191e-08
1.15086e-05
6.74471e-07
-3.01671e-08
2.95531e-08
1.11e-05
3.39036e-07
-9.50964e-08
9.73003e-06
3.85397e-07
-9.58873e-08
7.9833e-06
3.66121e-07
-9.4067e-08
6.47332e-06
3.46246e-07
-9.99702e-08
5.34792e-06
-1.04446e-07
4.4136e-06
3.31951e-07
-5.72683e-07
3.1816e-07
1.23891e-05
6.23753e-07
-2.11755e-07
8.04759e-08
1.19179e-05
1.70924e-07
2.80644e-07
1.07371e-05
3.47759e-07
7.18427e-08
8.66302e-06
3.66381e-07
-4.13531e-09
6.83736e-06
3.52828e-07
-2.33943e-08
5.60393e-06
-4.22435e-08
4.61226e-06
3.38781e-07
-4.10942e-07
3.39394e-07
1.25547e-05
6.07573e-07
-2.31987e-07
2.47903e-07
1.23893e-05
1.55654e-07
3.34658e-07
1.09903e-05
3.52393e-07
1.93056e-07
8.66372e-06
3.59221e-07
1.03168e-07
6.87429e-06
3.44639e-07
5.70526e-08
5.65307e-06
2.14696e-08
4.66903e-06
3.30925e-07
-2.90356e-07
1.08435e-05
4.21878e-07
4.03148e-07
-8.00676e-08
1.11084e-05
2.9245e-07
1.92946e-07
9.84301e-06
4.14853e-07
2.99064e-07
7.98341e-06
2.98845e-07
3.11501e-07
6.59078e-06
1.86204e-07
3.08248e-07
5.50517e-06
1.21955e-07
4.58352e-06
3.02781e-07
7.4483e-08
-6.7533e-08
-3.22203e-07
1.98399e-07
2.92494e-07
5.99921e-06
2.76862e-08
-3.2054e-07
3.24329e-07
5.86558e-06
1.20337e-07
-3.39987e-07
3.4458e-07
5.50916e-06
2.02505e-07
-3.3978e-07
3.54443e-07
4.99481e-06
2.71436e-07
-3.32585e-07
3.58455e-07
4.39765e-06
3.28072e-07
-3.29019e-07
3.62027e-07
3.78312e-06
-3.22713e-07
3.72081e-07
3.59447e-07
3.18517e-06
-5.7766e-08
-3.6932e-07
2.2358e-07
7.21612e-06
3.70082e-08
-3.03374e-07
7.07351e-06
1.45768e-07
-3.53524e-07
6.59322e-06
2.31015e-07
-3.33071e-07
5.87177e-06
2.96477e-07
-3.02301e-07
5.08672e-06
3.5213e-07
-2.88022e-07
4.32044e-06
-2.78465e-07
4.00394e-07
3.61009e-06
-1.48082e-07
-2.45748e-07
3.44281e-07
8.97981e-06
1.03372e-07
-2.75992e-07
8.87492e-06
2.31528e-07
-3.3369e-07
8.02188e-06
2.97761e-07
-3.02511e-07
6.85711e-06
3.36721e-07
-2.44585e-07
5.77342e-06
3.78045e-07
-2.26221e-07
4.82726e-06
-2.17666e-07
4.20342e-07
3.99431e-06
-2.89096e-07
-5.06197e-08
4.89915e-07
1.11127e-05
1.31083e-07
-1.06072e-07
1.05103e-05
3.05825e-07
-2.64285e-07
9.48626e-06
3.56655e-07
-2.11539e-07
7.84165e-06
3.6932e-07
-1.53013e-07
6.36916e-06
3.96679e-07
-1.44575e-07
5.23901e-06
-1.42373e-07
4.32762e-07
4.30251e-06
-3.40252e-07
5.2999e-08
5.18684e-07
1.2107e-05
-4.81396e-08
1.3106e-08
1.15071e-05
2.5658e-07
2.61443e-08
1.01419e-05
3.2823e-07
-5.50147e-08
8.43488e-06
3.64622e-07
-7.03662e-08
6.71825e-06
3.93974e-07
-5.8063e-08
5.48812e-06
-6.02987e-08
4.29335e-07
4.49506e-06
-3.21094e-07
2.16818e-07
6.00628e-07
1.21114e-05
-3.96033e-08
1.32257e-07
1.19896e-05
2.37732e-07
1.40332e-07
1.0599e-05
3.57568e-07
1.00485e-07
8.38841e-06
3.60857e-07
6.10944e-08
6.73964e-06
3.80957e-07
4.52198e-08
5.52983e-06
2.97542e-08
4.12612e-07
4.54743e-06
-2.70339e-07
5.10404e-07
4.40247e-07
1.03797e-05
-6.37164e-10
4.36831e-07
1.05343e-05
2.19588e-07
3.67856e-07
9.39527e-06
2.87154e-07
2.54215e-07
7.76204e-06
3.07332e-07
1.79072e-07
6.4528e-06
3.3536e-07
1.45603e-07
5.37678e-06
3.67386e-07
1.2292e-07
4.45832e-06
5.10772e-08
-7.75699e-09
1.69138e-06
-2.78043e-09
5.67471e-08
-9.6473e-09
1.69793e-06
-3.29998e-09
5.78006e-08
-1.1429e-08
1.62364e-06
-3.97958e-09
5.3865e-08
-1.32365e-08
1.48885e-06
-4.66375e-09
4.50919e-08
-1.50879e-08
1.30843e-06
-5.29609e-09
3.23157e-08
-1.70998e-08
1.08838e-06
-5.84222e-09
1.66429e-08
-1.94127e-08
8.13294e-07
-5.75059e-09
-2.16291e-08
3.80923e-07
-3.7147e-09
5.67829e-08
-1.47019e-08
2.40643e-06
6.37858e-08
-2.04108e-08
2.29521e-06
6.53659e-08
-2.59441e-08
2.11246e-06
6.1312e-08
-3.14575e-08
1.87646e-06
5.19078e-08
-3.68093e-08
1.60156e-06
3.76301e-08
-4.1919e-08
1.29296e-06
1.95088e-08
-4.66558e-08
9.30985e-07
-4.96893e-08
3.92337e-07
6.72994e-08
-1.66902e-08
3.01019e-06
7.46965e-08
-2.65514e-08
2.82311e-06
7.59955e-08
-3.64599e-08
2.56728e-06
7.08824e-08
-4.61494e-08
2.26335e-06
5.97502e-08
-5.53059e-08
1.92594e-06
4.30767e-08
-6.37192e-08
1.5595e-06
2.21623e-08
-7.10397e-08
1.14071e-06
-7.53252e-08
5.28132e-07
7.78355e-08
-1.47312e-08
3.38828e-06
8.55563e-08
-2.8249e-08
3.18609e-06
8.64963e-08
-4.20164e-08
2.91551e-06
8.03588e-08
-5.54298e-08
2.59792e-06
6.74487e-08
-6.79636e-08
2.24802e-06
4.85843e-08
-7.92313e-08
1.86969e-06
2.51089e-08
-8.87502e-08
1.43724e-06
-9.41111e-08
7.97024e-07
8.22431e-08
-1.32642e-08
3.44291e-06
9.12677e-08
-2.83874e-08
3.29886e-06
9.26599e-08
-4.40741e-08
3.08322e-06
8.62342e-08
-5.94625e-08
2.81659e-06
7.23239e-08
-7.38395e-08
2.51323e-06
5.20204e-08
-8.67036e-08
2.17665e-06
2.67493e-08
-9.75731e-08
1.78045e-06
-1.04056e-07
1.16675e-06
8.05069e-08
-1.39563e-08
3.13568e-06
8.99715e-08
-2.87053e-08
3.11747e-06
9.19562e-08
-4.43033e-08
3.02096e-06
8.59794e-08
-5.9566e-08
2.86467e-06
7.22504e-08
-7.38079e-08
2.66257e-06
5.19717e-08
-8.6803e-08
2.41827e-06
2.68038e-08
-9.79796e-08
2.10654e-06
-1.04937e-07
1.57373e-06
7.59453e-08
2.49673e-06
-1.73277e-08
8.48119e-08
2.65338e-06
-3.02303e-08
8.63661e-08
2.71673e-06
-4.32617e-08
8.00532e-08
2.70947e-06
-5.60914e-08
6.61682e-08
2.64614e-06
-6.83323e-08
4.55416e-08
2.53067e-06
-7.95176e-08
2.16378e-08
2.33929e-06
-9.10872e-08
1.92864e-06
-1.02062e-07
3.34103e-08
-9.50852e-09
1.68887e-06
1.00055e-09
4.15731e-08
-1.24427e-08
1.70159e-06
3.3079e-10
4.55219e-08
-1.4339e-08
1.63429e-06
-3.48837e-10
4.4764e-08
-1.61173e-08
1.5065e-06
-8.44087e-10
3.96766e-08
-1.78469e-08
1.33248e-06
-1.12861e-09
3.11773e-08
-1.96962e-08
1.1178e-06
-1.16188e-09
1.96515e-08
-2.17155e-08
8.47253e-07
-5.92727e-10
-2.32714e-08
4.22295e-07
1.68834e-09
3.56634e-08
-1.52164e-08
2.39659e-06
4.64653e-08
-2.25731e-08
2.29444e-06
5.14605e-08
-2.82237e-08
2.12122e-06
5.07582e-08
-3.3504e-08
1.89446e-06
4.50544e-08
-3.84127e-08
1.62791e-06
3.5143e-08
-4.29893e-08
1.32628e-06
2.14729e-08
-4.7021e-08
9.70088e-07
-4.87698e-08
4.39401e-07
4.08236e-08
-1.63737e-08
2.99197e-06
5.34717e-08
-2.81086e-08
2.81589e-06
5.93548e-08
-3.8411e-08
2.57145e-06
5.85625e-08
-4.78599e-08
2.27843e-06
5.1771e-08
-5.64431e-08
1.95081e-06
3.99451e-08
-6.41072e-08
1.59249e-06
2.39686e-08
-7.05036e-08
1.18022e-06
-7.32912e-08
5.7661e-07
4.59207e-08
-1.35771e-08
3.36345e-06
6.00252e-08
-2.88162e-08
3.17264e-06
6.6583e-08
-4.34126e-08
2.91394e-06
6.56791e-08
-5.6727e-08
2.60771e-06
5.79056e-08
-6.86583e-08
2.26799e-06
4.44481e-08
-7.9055e-08
1.89811e-06
2.63654e-08
-8.75472e-08
1.47231e-06
-9.14711e-08
8.41437e-07
4.55513e-08
-1.09679e-08
3.41559e-06
6.1512e-08
-2.75597e-08
3.28153e-06
6.90999e-08
-4.44143e-08
3.0766e-06
6.84427e-08
-5.98357e-08
2.82033e-06
6.02862e-08
-7.36266e-08
2.5263e-06
4.58951e-08
-8.55849e-08
2.19753e-06
2.6586e-08
-9.53723e-08
1.80749e-06
-1.00497e-07
1.20221e-06
4.03102e-08
-1.0233e-08
3.11075e-06
5.69683e-08
-2.6473e-08
3.09972e-06
6.52307e-08
-4.30853e-08
3.01138e-06
6.51498e-08
-5.83032e-08
2.86324e-06
5.74208e-08
-7.19673e-08
2.6686e-06
4.34321e-08
-8.40663e-08
2.43066e-06
2.47563e-08
-9.42078e-08
2.12405e-06
-1.00015e-07
1.59791e-06
3.5713e-08
2.47813e-06
-9.36765e-09
4.95639e-08
2.63826e-06
-2.51419e-08
5.63964e-08
2.70655e-06
-3.96601e-08
5.57757e-08
2.70465e-06
-5.28049e-08
4.81527e-08
2.64638e-06
-6.46256e-08
3.47501e-08
2.53516e-06
-7.51824e-08
1.78844e-08
2.34742e-06
-8.55883e-08
1.94176e-06
-9.52602e-08
6.4857e-08
-1.66142e-08
1.69239e-06
5.00785e-10
7.27796e-08
-1.9037e-08
1.71266e-06
-4.46909e-12
7.42514e-08
-2.03892e-08
1.6538e-06
-4.67708e-10
6.8497e-08
-2.1755e-08
1.53493e-06
-7.61874e-10
5.57776e-08
-2.33046e-08
1.36967e-06
-9.22214e-10
3.7416e-08
-2.52505e-08
1.16263e-06
-9.77734e-10
1.73393e-08
-2.76727e-08
8.95997e-07
-7.93086e-10
-3.00224e-08
4.69983e-07
-1.57952e-10
7.28404e-08
-2.83103e-08
2.39269e-06
8.21338e-08
-3.43189e-08
2.30073e-06
8.40023e-08
-3.90076e-08
2.13828e-06
7.80037e-08
-4.35956e-08
1.9225e-06
6.45135e-08
-4.82104e-08
1.66646e-06
4.48013e-08
-5.29924e-08
1.37386e-06
2.2678e-08
-5.79252e-08
1.02262e-06
-6.18981e-08
4.93964e-07
8.27659e-08
-3.36724e-08
2.9791e-06
9.30657e-08
-4.35795e-08
2.81504e-06
9.50722e-08
-5.24175e-08
2.58303e-06
8.83832e-08
-6.07707e-08
2.30237e-06
7.32244e-08
-6.86863e-08
1.98638e-06
5.08821e-08
-7.61772e-08
1.63794e-06
2.50139e-08
-8.31096e-08
1.23125e-06
-8.78663e-08
6.27604e-07
9.03987e-08
-3.33732e-08
3.34317e-06
1.01165e-07
-4.63682e-08
3.16478e-06
1.02939e-07
-5.90098e-08
2.91879e-06
9.54818e-08
-7.06745e-08
2.62509e-06
7.89204e-08
-8.13434e-08
2.29709e-06
5.44288e-08
-9.08951e-08
1.93717e-06
2.53204e-08
-9.90394e-08
1.51729e-06
-1.03386e-07
8.82273e-07
9.04752e-08
-3.13944e-08
3.39209e-06
1.01908e-07
-4.52473e-08
3.26905e-06
1.03738e-07
-5.98137e-08
3.07547e-06
9.59636e-08
-7.31395e-08
2.8304e-06
7.90416e-08
-8.51368e-08
2.5469e-06
5.40626e-08
-9.56408e-08
2.22716e-06
2.40073e-08
-1.04273e-07
1.84275e-06
-1.08346e-07
1.23113e-06
8.33863e-08
-3.01224e-08
3.08922e-06
9.47865e-08
-4.31388e-08
3.08629e-06
9.67542e-08
-5.70223e-08
3.00659e-06
8.93855e-08
-6.97505e-08
2.86715e-06
7.32711e-08
-8.12728e-08
2.68077e-06
4.96995e-08
-9.15113e-08
2.45e-06
2.16216e-08
-1.00116e-07
2.14794e-06
-1.04182e-07
1.61542e-06
7.3769e-08
2.46274e-06
-2.84748e-08
8.26669e-08
2.62706e-06
-4.08671e-08
8.37801e-08
2.70066e-06
-5.22162e-08
7.67264e-08
2.70444e-06
-6.24225e-08
6.18594e-08
2.65166e-06
-7.17153e-08
4.0503e-08
2.5451e-06
-8.02167e-08
1.58898e-08
2.3603e-06
-8.84988e-08
1.94915e-06
-9.56799e-08
1.18601e-07
-2.58863e-08
1.70122e-06
1.89033e-09
1.24846e-07
-2.53144e-08
1.729e-06
2.83706e-09
1.21001e-07
-2.52379e-08
1.67909e-06
3.90293e-09
1.07412e-07
-2.5646e-08
1.56905e-06
5.2497e-09
8.55074e-08
-2.64783e-08
1.41125e-06
6.90542e-09
5.7292e-08
-2.7581e-08
1.20955e-06
8.99711e-09
2.13967e-08
-2.86027e-08
9.48463e-07
1.21373e-08
-2.83182e-08
5.01944e-07
1.78366e-08
1.43016e-07
-4.63924e-08
2.39966e-06
1.4717e-07
-4.64019e-08
2.31788e-06
1.40981e-07
-4.75626e-08
2.16697e-06
1.24022e-07
-4.90394e-08
1.96295e-06
9.70944e-08
-5.06721e-08
1.71759e-06
6.20884e-08
-5.20626e-08
1.43343e-06
1.87224e-08
-5.22696e-08
1.08975e-06
-4.76508e-08
5.32064e-07
1.6823e-07
-5.93913e-08
2.98083e-06
1.71004e-07
-6.23171e-08
2.82827e-06
1.63465e-07
-6.6024e-08
2.6091e-06
1.44821e-07
-6.98547e-08
2.34182e-06
1.15366e-07
-7.34685e-08
2.03851e-06
7.67337e-08
-7.63556e-08
1.7008e-06
2.87251e-08
-7.73165e-08
1.30444e-06
-7.11939e-08
6.80015e-07
1.87377e-07
-6.39718e-08
3.33853e-06
1.88839e-07
-7.04161e-08
3.17143e-06
1.80663e-07
-7.6926e-08
2.93785e-06
1.62e-07
-8.33394e-08
2.65721e-06
1.32927e-07
-8.92704e-08
2.3419e-06
9.46914e-08
-9.42367e-08
1.99325e-06
4.6109e-08
-9.71271e-08
1.58591e-06
-9.2677e-08
9.49991e-07
1.92985e-07
-6.37382e-08
3.38265e-06
1.94051e-07
-7.15249e-08
3.26914e-06
1.86014e-07
-7.94519e-08
3.08594e-06
1.68516e-07
-8.73515e-08
2.85182e-06
1.4179e-07
-9.47967e-08
2.57914e-06
1.06656e-07
-1.01376e-07
2.26946e-06
6.05867e-08
-1.06256e-07
1.89794e-06
-1.05178e-07
1.30426e-06
1.85892e-07
-6.14769e-08
3.07825e-06
1.86659e-07
-6.77883e-08
3.08187e-06
1.79213e-07
-7.49441e-08
3.00949e-06
1.63456e-07
-8.23204e-08
2.87783e-06
1.39792e-07
-8.96212e-08
2.69929e-06
1.08682e-07
-9.65328e-08
2.47623e-06
6.71625e-08
-1.02427e-07
2.18549e-06
-1.04061e-07
1.68143e-06
1.68023e-07
2.45325e-06
-5.98304e-08
1.69673e-07
2.62056e-06
-6.29775e-08
1.63698e-07
2.69827e-06
-6.65779e-08
1.50174e-07
2.70658e-06
-7.087e-08
1.29457e-07
2.65849e-06
-7.57195e-08
1.02009e-07
2.55685e-06
-8.09661e-08
6.48914e-08
2.38098e-06
-8.61295e-08
1.99921e-06
-8.9264e-08
3.04131e-07
-4.7619e-08
1.70341e-06
-7.68681e-09
3.45516e-07
-4.56199e-08
1.74055e-06
-7.16926e-09
3.72457e-07
-4.55255e-08
1.7043e-06
-6.63579e-09
3.79839e-07
-4.59133e-08
1.61368e-06
-6.16545e-09
3.63352e-07
-4.70155e-08
1.48065e-06
-5.95592e-09
3.20607e-07
-4.89244e-08
1.30764e-06
-6.33291e-09
2.43055e-07
-5.17446e-08
1.08557e-06
-7.68816e-09
-5.38187e-08
8.09919e-07
-1.10753e-08
3.28302e-07
-8.73852e-08
2.38935e-06
3.69799e-07
-8.55732e-08
2.31627e-06
3.99247e-07
-8.69492e-08
2.17892e-06
4.1102e-07
-8.9123e-08
1.99448e-06
3.99867e-07
-9.25342e-08
1.77429e-06
3.62209e-07
-9.75951e-08
1.51986e-06
2.84066e-07
-1.04907e-07
1.22113e-06
-1.13018e-07
8.75407e-07
3.52322e-07
-1.09611e-07
2.95901e-06
3.91271e-07
-1.09941e-07
2.81364e-06
4.19389e-07
-1.12786e-07
2.60686e-06
4.3073e-07
-1.16806e-07
2.35831e-06
4.19208e-07
-1.22188e-07
2.07979e-06
3.8011e-07
-1.2939e-07
1.77181e-06
2.98726e-07
-1.39307e-07
1.42053e-06
-1.51907e-07
1.01775e-06
3.67507e-07
-1.15772e-07
3.30914e-06
4.00073e-07
-1.18694e-07
3.14771e-06
4.22791e-07
-1.22549e-07
2.92507e-06
4.29164e-07
-1.27804e-07
2.66191e-06
4.1274e-07
-1.34286e-07
2.37054e-06
3.68328e-07
-1.42331e-07
2.05082e-06
2.84126e-07
-1.52786e-07
1.68387e-06
-1.66449e-07
1.24859e-06
3.6695e-07
-1.12318e-07
3.3511e-06
3.91453e-07
-1.15702e-07
3.2419e-06
4.06415e-07
-1.19244e-07
3.0679e-06
4.05594e-07
-1.24521e-07
2.84953e-06
3.82403e-07
-1.30986e-07
2.59924e-06
3.31566e-07
-1.38744e-07
2.31689e-06
2.46157e-07
-1.48401e-07
1.97875e-06
-1.60447e-07
1.54445e-06
3.51639e-07
-1.05447e-07
3.05076e-06
3.66864e-07
-1.06448e-07
3.05753e-06
3.72982e-07
-1.08362e-07
2.99255e-06
3.63915e-07
-1.12078e-07
2.87449e-06
3.33499e-07
-1.17086e-07
2.7159e-06
2.77112e-07
-1.23325e-07
2.51712e-06
1.94431e-07
-1.31333e-07
2.25089e-06
-1.4062e-07
1.85612e-06
3.20984e-07
2.43481e-06
-1.05135e-07
3.31544e-07
2.6041e-06
-1.0049e-07
3.31707e-07
2.68732e-06
-9.75357e-08
3.1641e-07
2.70672e-06
-9.69368e-08
2.80529e-07
2.6756e-06
-9.84054e-08
2.20496e-07
2.59516e-06
-1.01803e-07
1.41611e-07
2.43573e-06
-1.07253e-07
2.11424e-06
-1.13899e-07
4.90209e-07
-6.26461e-08
-3.03214e-09
1.65102e-06
5.99489e-07
-5.97099e-08
5.18179e-10
1.69056e-06
6.89941e-07
-5.96279e-08
5.79616e-09
1.66778e-06
7.49826e-07
-6.02666e-08
1.23793e-08
1.60169e-06
7.60219e-07
-6.1057e-08
2.07653e-08
1.51055e-06
6.8775e-07
-6.17366e-08
3.15383e-08
1.41043e-06
4.69339e-07
-6.14557e-08
4.59051e-08
1.3197e-06
-5.72329e-08
6.63081e-08
1.27025e-06
5.22214e-07
-1.14668e-07
2.31949e-06
6.37572e-07
-1.08695e-07
2.24998e-06
7.35244e-07
-1.04612e-07
2.12631e-06
8.01582e-07
-9.95739e-08
1.96759e-06
8.1468e-07
-9.29733e-08
1.7932e-06
7.3707e-07
-8.41422e-08
1.61997e-06
5.03551e-07
-7.15792e-08
1.4648e-06
-4.83254e-08
1.37006e-06
5.36276e-07
-1.4426e-07
2.87285e-06
6.51542e-07
-1.3884e-07
2.72873e-06
7.53365e-07
-1.33076e-07
2.53363e-06
8.2691e-07
-1.25058e-07
2.31038e-06
8.47728e-07
-1.14109e-07
2.08027e-06
7.72423e-07
-9.91501e-08
1.8623e-06
5.31112e-07
-7.74162e-08
1.66784e-06
-4.06983e-08
1.54123e-06
5.37417e-07
-1.51488e-07
3.21198e-06
6.45873e-07
-1.48269e-07
3.04885e-06
7.448e-07
-1.42229e-07
2.83543e-06
8.18911e-07
-1.33285e-07
2.59604e-06
8.44027e-07
-1.20612e-07
2.35211e-06
7.7579e-07
-1.0298e-07
2.12314e-06
5.35316e-07
-7.74032e-08
1.92431e-06
-3.61864e-08
1.77935e-06
5.20508e-07
-1.42104e-07
3.25072e-06
6.16919e-07
-1.39662e-07
3.137e-06
7.06473e-07
-1.32924e-07
2.96923e-06
7.75348e-07
-1.23625e-07
2.77119e-06
8.01738e-07
-1.11044e-07
2.56346e-06
7.43703e-07
-9.43403e-08
2.36638e-06
5.15e-07
-7.12692e-08
2.20122e-06
-3.59633e-08
2.05948e-06
4.89243e-07
-1.23733e-07
2.95578e-06
5.70067e-07
-1.18334e-07
2.95534e-06
6.45848e-07
-1.09104e-07
2.89303e-06
7.04762e-07
-9.77948e-08
2.78987e-06
7.2862e-07
-8.41028e-08
2.66518e-06
6.81596e-07
-6.75409e-08
2.53741e-06
4.81871e-07
-4.7345e-08
2.42704e-06
-1.95603e-08
2.32176e-06
4.3362e-07
-1.08122e-07
2.353e-06
5.02127e-07
-9.39353e-08
2.51126e-06
5.66999e-07
-7.92141e-08
2.59269e-06
6.19744e-07
-6.39487e-08
2.62022e-06
6.45696e-07
-4.69998e-08
2.61263e-06
6.14355e-07
-2.74346e-08
2.58649e-06
4.48134e-07
-4.19127e-09
2.55895e-06
2.8949e-08
2.51396e-06
1.04333e-07
2.53312e-08
5.90265e-06
-2.2006e-08
1.00033e-07
1.70958e-08
6.36281e-06
-1.99404e-08
1.01882e-07
-5.70154e-09
6.74118e-06
-7.49139e-09
1.05228e-07
-2.84333e-08
7.02484e-06
7.39469e-09
9.71675e-08
-3.78917e-08
7.22418e-06
2.01308e-08
7.46152e-08
-4.34835e-08
7.33539e-06
3.1191e-08
3.9893e-08
-5.10309e-08
7.30049e-06
4.17356e-08
-6.25497e-08
6.79422e-06
5.21898e-08
3.53855e-07
5.77947e-08
8.23992e-06
3.2821e-07
4.13123e-08
8.40578e-06
3.04116e-07
4.07025e-09
8.48866e-06
2.74705e-07
-2.06095e-08
8.57863e-06
2.34125e-07
-2.72121e-08
8.61414e-06
1.76255e-07
-2.56544e-08
8.58439e-06
9.79657e-08
-2.33178e-08
8.41802e-06
-2.2301e-08
7.73832e-06
3.5764e-07
7.3378e-08
9.49331e-06
3.78038e-07
2.1896e-08
9.51342e-06
3.67174e-07
-7.41054e-10
9.38769e-06
3.34251e-07
-8.41407e-09
9.33726e-06
2.82634e-07
-3.13472e-09
9.25437e-06
2.09801e-07
8.56728e-09
9.12428e-06
1.15484e-07
2.2416e-08
8.86478e-06
3.69128e-08
8.07349e-06
3.11593e-07
7.09502e-10
9.32842e-06
3.39558e-07
-1.86117e-09
9.18218e-06
3.32632e-07
-9.93043e-10
9.09354e-06
3.05208e-07
7.39327e-09
9.03479e-06
2.5893e-07
2.40394e-08
8.93641e-06
1.93749e-07
4.4262e-08
8.7872e-06
1.07656e-07
6.79441e-08
8.51344e-06
9.48632e-08
7.72024e-06
1.70695e-07
-2.90035e-08
7.55661e-06
1.93987e-07
-1.81112e-08
7.70324e-06
1.9877e-07
-1.45099e-09
7.80983e-06
1.86389e-07
1.88414e-08
7.83978e-06
1.6e-07
4.11347e-08
7.80779e-06
1.19228e-07
6.5086e-08
7.71114e-06
6.55552e-08
9.04107e-08
7.48897e-06
1.17068e-07
6.79719e-06
1.10285e-07
-1.93212e-08
5.54768e-06
1.13624e-07
-8.6125e-09
5.87235e-06
1.10889e-07
1.08337e-08
6.08361e-06
1.01481e-07
3.16582e-08
6.20349e-06
8.42641e-08
5.3475e-08
6.25076e-06
5.96126e-08
7.53817e-08
6.22576e-06
2.98015e-08
9.68745e-08
6.08076e-06
1.16125e-07
5.53725e-06
7.50337e-08
3.71368e-06
-6.34448e-09
7.01459e-08
4.08081e-06
7.39707e-09
6.38479e-08
4.34469e-06
2.45842e-08
5.50399e-08
4.52213e-06
4.23701e-08
4.37276e-08
4.62703e-06
6.00377e-08
3.02739e-08
4.65964e-06
7.73076e-08
1.54205e-08
4.58354e-06
9.42145e-08
4.1811e-06
1.10465e-07
-4.55192e-09
6.20443e-08
5.93953e-06
-6.35209e-08
4.70689e-09
2.12146e-08
6.36947e-06
-3.69851e-08
2.96545e-08
-5.1731e-09
6.73726e-06
-1.57607e-08
4.87331e-08
-1.67309e-08
7.02144e-06
1.20219e-09
5.27349e-08
-2.02802e-08
7.22686e-06
1.37902e-08
4.29843e-08
-2.60775e-08
7.3469e-06
2.45598e-08
2.32479e-08
-3.56335e-08
7.32085e-06
3.50683e-08
-4.98836e-08
6.82153e-06
4.6051e-08
1.28941e-07
3.73046e-08
8.34401e-06
9.79947e-08
-3.34472e-09
8.46157e-06
1.13563e-07
-2.39124e-08
8.49195e-06
1.2744e-07
-2.43168e-08
8.5726e-06
1.26665e-07
-1.69929e-08
8.61179e-06
1.0541e-07
-1.22164e-08
8.59186e-06
6.27076e-08
-1.11798e-08
8.43644e-06
-1.37885e-08
7.76499e-06
4.63984e-08
-1.36504e-07
9.73206e-06
4.22464e-08
-8.9939e-08
9.60422e-06
8.0135e-08
-6.30802e-08
9.38903e-06
1.102e-07
-3.80727e-08
9.32109e-06
1.21677e-07
-1.49865e-08
9.24097e-06
1.06663e-07
3.80239e-09
9.12125e-06
6.64894e-08
1.90951e-08
8.87481e-06
3.24712e-08
8.09371e-06
5.51881e-08
-1.8563e-07
9.40879e-06
5.39038e-08
-1.16932e-07
9.2104e-06
8.13843e-08
-6.81747e-08
9.07137e-06
1.05383e-07
-3.23065e-08
9.00511e-06
1.14359e-07
-1.30719e-09
8.91387e-06
1.01203e-07
2.66452e-08
8.77765e-06
6.3798e-08
5.3448e-08
8.51666e-06
8.12876e-08
7.7352e-06
-6.73693e-10
-1.61346e-07
7.56469e-06
9.88649e-09
-9.77031e-08
7.67356e-06
3.43959e-08
-5.2626e-08
7.76986e-06
5.35659e-08
-1.58385e-08
7.80422e-06
6.06716e-08
1.61591e-08
7.78323e-06
5.33204e-08
4.54592e-08
7.69976e-06
3.25513e-08
7.34259e-08
7.48968e-06
1.0118e-07
6.80982e-06
2.57551e-08
-8.91526e-08
5.51098e-06
2.10605e-08
-5.13333e-08
5.83079e-06
2.42108e-08
-1.81959e-08
6.04612e-06
2.68085e-08
1.0582e-08
6.17461e-06
2.49566e-08
3.64465e-08
6.2324e-06
1.82763e-08
6.02463e-08
6.21778e-06
8.53353e-09
8.2385e-08
6.08143e-06
1.01576e-07
5.54532e-06
2.7547e-08
3.68381e-06
-3.66981e-08
1.69758e-08
4.05207e-06
-1.18878e-08
1.19138e-08
4.32091e-06
1.07562e-08
8.78272e-09
4.50499e-06
3.08536e-08
6.21524e-09
4.61691e-06
4.92459e-08
3.8621e-09
4.65601e-06
6.64337e-08
2.15001e-09
4.58502e-06
8.27622e-08
4.18653e-06
9.82671e-08
6.16081e-08
2.28139e-08
5.98823e-06
-5.38663e-08
9.4838e-08
-8.6353e-09
6.36735e-06
-2.22691e-08
1.2221e-07
-1.20668e-08
6.72881e-06
-6.72589e-09
1.26793e-07
-5.85091e-09
7.01908e-06
3.62699e-09
1.11664e-07
-5.80972e-09
7.23585e-06
1.20389e-08
8.25879e-08
-1.39872e-08
7.36924e-06
2.07633e-08
4.36505e-08
-2.66363e-08
7.3561e-06
3.03997e-08
-4.41765e-08
6.86806e-06
4.13263e-08
1.28649e-07
-8.46035e-08
8.58453e-06
1.19812e-07
-5.94577e-08
8.52147e-06
1.54338e-07
-3.62879e-08
8.48154e-06
1.73081e-07
-1.24957e-08
8.56075e-06
1.68568e-07
-1.27492e-09
8.61194e-06
1.37848e-07
-1.06861e-10
8.60863e-06
8.17681e-08
-3.4958e-09
8.46955e-06
-1.02195e-08
7.8128e-06
5.03407e-08
-1.90507e-07
1.00653e-05
3.07094e-08
-1.25967e-07
9.69062e-06
8.46194e-08
-7.03628e-08
9.36923e-06
1.30413e-07
-3.09504e-08
9.29382e-06
1.4833e-07
-5.16939e-09
9.22701e-06
1.32651e-07
9.91985e-09
9.12617e-06
8.34548e-08