/*--------------------------------*- C++ -*----------------------------------*\
| =========                 |                                                 |
| \\      /  F ield         | OpenFOAM: The Open Source CFD Toolbox           |
|  \\    /   O peration     | Version:  plus.master.MPPICInterFoam            |
|   \\  /    A nd           | Web:      www.OpenFOAM.com                      |
|    \\/     M anipulation  |                                                 |
\*---------------------------------------------------------------------------*/
FoamFile
{
    version     2.0;
    format      ascii;
    class       volScalarField;
    location    "9.6";
    object      p;
}
// * * * * * * * * * * * * * * * * * * * * * * * * * * * * * * * * * * * * * //

dimensions      [1 -1 -2 0 0 0 0];

internalField   nonuniform List<scalar> 
11821
(
2346.64
2351.11
2346.43
2354.4
2348.74
2345.31
2260.82
2261.85
2261.37
2259.54
2257
2254.27
2251.71
2265.45
2268.58
2268.05
2264.29
2260.6
2257.08
2253.73
2274
2282.65
2281.6
2271.55
2264.29
2259.66
2255.55
2285.72
2295.25
2293.42
2280.87
2268.27
2261.62
2256.84
2287.99
2298.72
2295.12
2283.29
2269.08
2262.02
2257.21
2282.31
2291.64
2289.23
2276.34
2266.31
2260.81
2256.53
2269.64
2273.69
2272.34
2266.78
2262.11
2258.51
2255.04
2155.25
2155.77
2155.9
2155.52
2154.92
2154
2152.93
2153.11
2153.45
2154.27
2155.1
2155.5
2154.85
2153.7
2147.14
2149.49
2151.01
2152.42
2155.25
2155.46
2154.33
2149.41
2166.1
2168.33
2151.4
2154.97
2155.93
2154.79
2151.11
2165.54
2167.99
2149.26
2154.32
2155.85
2154.82
2142.03
2146.2
2148.28
2149.09
2153.59
2155.3
2154.45
2149.58
2148.53
2149.2
2152.12
2154.55
2154.83
2153.85
2048.23
2047.6
2047.89
2048.83
2050.09
2051.18
2051.97
2043.95
2040.8
2042.12
2044.74
2047.61
2049.86
2051.26
2040.81
2045.26
2042.26
2039.02
2044.57
2048.4
2050.54
2036.98
2038.99
2036.7
2038.55
2041.29
2047.24
2050
2034.17
2037.07
2039.38
2039.06
2039.7
2046.73
2049.76
2033.86
2033.79
2037.9
2034.52
2042.36
2047.31
2049.93
2040.13
2036.18
2038.01
2041.12
2045.06
2048.55
2050.44
1954.28
1953.03
1953.27
1953.94
1954.77
1955.77
1956.72
1954.29
1951.51
1952.36
1952.52
1953.14
1954.6
1955.92
1956.87
1960.31
1958.1
1953.21
1952.35
1953.66
1955.23
1954.39
1951.34
1950.63
1954.58
1950.49
1952.67
1954.68
1950.76
1956.69
1954.03
1956.55
1949.4
1952.28
1954.5
1956.49
1956.57
1956.51
1954.09
1952.72
1953.51
1955.03
1956.14
1956.41
1957.23
1954.68
1953.37
1954.43
1955.66
1868.73
1867.66
1867.95
1867.87
1867.45
1867.23
1867.15
1872.12
1869.96
1871.3
1870.18
1868.24
1867.53
1867.24
1877.33
1876.81
1876.25
1875.62
1870.33
1868.15
1867.43
1877.54
1870.73
1875.85
1878.14
1871.64
1868.51
1867.53
1879.49
1879.89
1873.27
1880.89
1870.24
1868.22
1867.51
1880.46
1879.73
1880.01
1880.93
1872.97
1869.06
1867.91
1879.45
1881.49
1880.74
1877
1871.28
1868.86
1868.04
1783.58
1783.4
1782.99
1781.9
1780.54
1779.33
1778.35
1788.66
1788.95
1788.29
1785.4
1782.49
1780.59
1779.15
1798.07
1798.01
1797.13
1792.01
1785.38
1781.99
1779.95
1802.36
1800.23
1799.65
1796.91
1787.7
1782.95
1780.5
1802.22
1790.48
1799.37
1797.29
1788.08
1783.11
1780.66
1802.41
1801.49
1800.79
1797.28
1787.6
1782.96
1780.68
1794.93
1795.86
1795.28
1790.4
1784.67
1781.91
1780.23
1690.03
1690.22
1689.9
1689.06
1688.12
1687.16
1686.28
1691.71
1692.72
1692.26
1690.59
1689.25
1688.1
1686.96
1696.32
1700.3
1698.53
1693
1690.51
1688.97
1687.57
1701.32
1704.36
1702.8
1695.6
1691.52
1689.58
1687.99
1700.22
1705.48
1703.83
1695.77
1691.61
1689.68
1688.1
1700.92
1704.1
1702.02
1694.24
1690.93
1689.4
1687.99
1693.96
1694.21
1693.55
1691.32
1689.63
1688.66
1687.58
1590.98
1591.32
1591.63
1591.64
1591.66
1591.56
1591.39
1588.65
1589.38
1590.54
1590.99
1591.5
1591.66
1591.52
1585.4
1589.94
1590.77
1589.82
1591.2
1591.71
1591.63
1583.07
1596.11
1597.45
1589.77
1590.96
1591.81
1591.75
1586.09
1594.23
1597.49
1588.99
1590.62
1591.76
1591.76
1580.12
1587.08
1589.38
1587.6
1590.47
1591.62
1591.68
1586.28
1585.1
1587.49
1589.49
1590.79
1591.57
1591.58
1494.64
1494.29
1494.88
1495.33
1495.79
1496.18
1496.45
1493.15
1490.99
1493.37
1494.33
1495.14
1495.84
1496.27
1492.61
1496.57
1494.84
1493.72
1494.76
1495.63
1496.15
1492.9
1495
1494.88
1493.25
1494.37
1495.55
1496.09
1489.75
1495.01
1495.6
1494.11
1493.47
1495.35
1496.01
1490.18
1494.7
1495.55
1492.53
1494.28
1495.46
1496.04
1493.79
1492.86
1494.54
1494.25
1494.83
1495.74
1496.16
1403.94
1402.51
1402.92
1403.09
1403.2
1403.35
1403.47
1405.95
1401.8
1403.42
1403.31
1403.05
1403.24
1403.42
1409.43
1410.48
1408.69
1405.17
1403.53
1403.33
1403.41
1409.28
1404.83
1403.84
1405.79
1403.51
1403.33
1403.4
1406.98
1406.25
1404.45
1406.87
1402.71
1403.17
1403.35
1411.31
1411.98
1410.49
1407.03
1404.33
1403.59
1403.51
1410.52
1409.94
1409.12
1406.27
1404.14
1403.71
1403.63
1313.84
1312.93
1313.11
1312.75
1312.4
1312.1
1311.88
1316.66
1314.04
1315.44
1313.94
1312.85
1312.4
1312.08
1322.84
1322.77
1321.16
1317.17
1313.93
1312.84
1312.3
1324.73
1317.35
1320.74
1318.87
1314.49
1313.08
1312.43
1327.04
1321.54
1317.57
1318.92
1314.41
1313.07
1312.45
1325.02
1324.13
1321.38
1319.26
1314.77
1313.18
1312.52
1321.03
1319.56
1319.53
1316.56
1313.78
1312.9
1312.45
1221.86
1221.72
1221.58
1221.13
1220.72
1220.37
1220.1
1223.73
1223.58
1223.44
1222.01
1221.18
1220.72
1220.33
1228.99
1230.01
1228.36
1224.29
1222
1221.15
1220.57
1231.11
1229.76
1228.86
1225.84
1222.37
1221.36
1220.71
1233.2
1223.65
1227.24
1224.84
1222.16
1221.34
1220.74
1230.18
1230.54
1228.75
1225.55
1222.45
1221.36
1220.76
1226.08
1225.28
1225.6
1223.46
1221.6
1221.06
1220.64
1127.08
1127.44
1127.69
1127.65
1127.62
1127.57
1127.52
1126.56
1127.47
1128.2
1127.79
1127.72
1127.7
1127.62
1127.7
1131.83
1131.25
1128.84
1128.16
1127.94
1127.75
1125.85
1132.69
1133.33
1129.94
1128.46
1128.17
1127.86
1123.29
1132.01
1136.17
1129.74
1128.38
1128.19
1127.9
1125.97
1132.39
1132.27
1129.08
1128.39
1128.14
1127.9
1127.59
1128.03
1129.24
1128.41
1127.93
1127.95
1127.83
1034.09
1034.23
1034.42
1034.36
1034.46
1034.6
1034.73
1033.86
1033.88
1034.75
1034.34
1034.35
1034.55
1034.69
1034.94
1037.54
1037.04
1035.38
1034.72
1034.71
1034.74
1035.46
1037.54
1040.05
1036.43
1035.2
1034.99
1034.85
1034.48
1039.54
1042.18
1037.66
1035.47
1035.15
1034.92
1034.88
1040.19
1038.83
1036.79
1035.48
1035.09
1034.94
1035.8
1035.34
1036.84
1035.77
1034.92
1034.94
1034.92
942.713
941.84
942.172
942.073
942.136
942.281
942.401
943.876
941.065
943.259
942.305
941.946
942.168
942.337
946.699
947.635
946.044
943.837
942.285
942.214
942.325
947.124
945.803
945.927
943.878
942.311
942.268
942.334
947.297
943.971
941.33
943.447
942.091
942.246
942.345
947.364
948.162
946.059
944.278
942.647
942.377
942.423
946.761
945.171
945.221
943.573
942.325
942.38
942.49
853.179
852.398
852.329
851.792
851.412
851.134
850.916
855.985
853.938
854.818
852.955
851.819
851.416
851.101
861.686
861.727
860.53
855.903
852.844
851.847
851.326
864.565
859.212
862.01
857.452
853.473
852.145
851.477
866.327
860.357
858.779
857.343
853.463
852.184
851.512
863.103
863.173
860.909
856.926
853.503
852.096
851.475
859.45
857.999
857.413
854.643
852.34
851.696
851.318
2336.67
2336.51
2339.09
2338.05
2337.32
2336.84
2336.53
2336.36
2343.01
2340.94
2339.35
2338.2
2337.41
2336.88
2336.56
2336.39
2343.34
2341.15
2339.54
2338.39
2337.59
2337.05
2336.74
2336.59
2343.37
2341.23
2339.69
2338.61
2337.85
2337.36
2337.06
2336.94
2342.89
2341.25
2339.91
2338.92
2338.22
2337.76
2337.5
2337.4
2249.65
2248.13
2246.85
2245.85
2245.12
2244.6
2244.24
2244.04
2250.96
2248.91
2247.32
2246.11
2245.25
2244.64
2244.23
2244.01
2252.15
2249.73
2247.85
2246.43
2245.4
2244.7
2244.24
2244
2253.06
2250.38
2248.31
2246.76
2245.63
2244.86
2244.36
2244.1
2253.36
2250.64
2248.57
2247.02
2245.89
2245.11
2244.61
2244.35
2253.09
2250.59
2248.68
2247.25
2246.2
2245.48
2245.01
2244.77
2252.24
2250.34
2248.75
2247.51
2246.59
2245.95
2245.53
2245.32
2152.05
2151.34
2150.74
2150.26
2149.88
2149.6
2149.38
2149.25
2152.62
2151.71
2150.95
2150.36
2149.91
2149.58
2149.33
2149.16
2153.08
2152.04
2151.18
2150.5
2149.99
2149.61
2149.34
2149.18
2153.44
2152.32
2151.39
2150.65
2150.1
2149.71
2149.43
2149.26
2153.51
2152.43
2151.52
2150.79
2150.24
2149.85
2149.58
2149.43
2153.3
2152.36
2151.57
2150.93
2150.43
2150.07
2149.82
2149.68
2152.75
2152.03
2151.45
2150.96
2150.58
2150.3
2150.1
2149.99
2052.53
2052.92
2053.25
2053.49
2053.66
2053.75
2053.79
2053.81
2052.15
2052.73
2053.13
2053.41
2053.59
2053.71
2053.76
2053.77
2051.77
2052.47
2052.95
2053.28
2053.51
2053.66
2053.73
2053.74
2051.48
2052.28
2052.82
2053.2
2053.45
2053.62
2053.71
2053.74
2051.33
2052.19
2052.77
2053.16
2053.43
2053.61
2053.71
2053.75
2051.32
2052.18
2052.77
2053.17
2053.44
2053.62
2053.73
2053.78
2051.3
2051.96
2052.56
2053.03
2053.36
2053.59
2053.72
2053.81
1957.43
1958.04
1958.58
1959.01
1959.34
1959.57
1959.72
1959.82
1956.93
1957.75
1958.39
1958.88
1959.25
1959.52
1959.68
1959.76
1956.5
1957.43
1958.16
1958.71
1959.13
1959.44
1959.64
1959.75
1956.18
1957.19
1957.99
1958.59
1959.05
1959.39
1959.61
1959.78
1956.07
1957.12
1957.93
1958.54
1959
1959.35
1959.59
1959.74
1956.32
1957.24
1957.99
1958.56
1959.01
1959.34
1959.58
1959.72
1956.51
1957.24
1957.92
1958.49
1958.94
1959.29
1959.55
1959.71
1867.07
1867.15
1867.24
1867.34
1867.44
1867.53
1867.6
1867.68
1867.1
1867.14
1867.22
1867.31
1867.41
1867.5
1867.59
1867.66
1867.18
1867.16
1867.2
1867.28
1867.37
1867.47
1867.57
1867.66
1867.24
1867.19
1867.22
1867.29
1867.38
1867.48
1867.58
1867.68
1867.3
1867.25
1867.28
1867.34
1867.43
1867.53
1867.64
1867.74
1867.6
1867.47
1867.44
1867.48
1867.55
1867.64
1867.75
1867.84
1867.69
1867.58
1867.56
1867.58
1867.66
1867.76
1867.89
1867.99
1777.57
1777.09
1776.7
1776.42
1776.23
1776.12
1776.08
1776.1
1778.06
1777.36
1776.84
1776.48
1776.24
1776.1
1776.03
1776.03
1778.54
1777.66
1777.03
1776.59
1776.3
1776.13
1776.05
1776.05
1778.91
1777.91
1777.21
1776.72
1776.4
1776.21
1776.13
1776.13
1779.09
1778.08
1777.36
1776.86
1776.53
1776.34
1776.27
1776.28
1779.24
1778.24
1777.54
1777.06
1776.74
1776.55
1776.49
1776.49
1779.03
1778.27
1777.67
1777.24
1776.95
1776.8
1776.75
1776.77
1685.56
1685.04
1684.6
1684.26
1684.03
1683.87
1683.79
1683.79
1686.01
1685.3
1684.74
1684.33
1684.04
1683.85
1683.76
1683.73
1686.39
1685.56
1684.91
1684.44
1684.1
1683.89
1683.77
1683.74
1686.69
1685.78
1685.09
1684.57
1684.21
1683.98
1683.85
1683.82
1686.84
1685.92
1685.22
1684.71
1684.34
1684.11
1683.99
1683.97
1686.88
1686.01
1685.35
1684.87
1684.52
1684.3
1684.2
1684.17
1686.58
1685.92
1685.4
1684.99
1684.7
1684.52
1684.43
1684.42
1591.19
1591
1590.85
1590.73
1590.64
1590.6
1590.58
1590.6
1591.31
1591.09
1590.9
1590.75
1590.64
1590.58
1590.56
1590.57
1591.39
1591.15
1590.94
1590.78
1590.66
1590.59
1590.57
1590.59
1591.49
1591.24
1591.01
1590.84
1590.72
1590.64
1590.62
1590.63
1591.54
1591.3
1591.08
1590.91
1590.79
1590.72
1590.69
1590.71
1591.53
1591.31
1591.14
1590.99
1590.89
1590.83
1590.81
1590.83
1591.27
1591.12
1591.04
1590.98
1590.93
1590.91
1590.92
1590.94
1496.58
1496.7
1496.82
1496.93
1497.02
1497.1
1497.17
1497.23
1496.52
1496.69
1496.82
1496.93
1497.02
1497.1
1497.17
1497.24
1496.45
1496.64
1496.79
1496.9
1497.01
1497.1
1497.18
1497.27
1496.44
1496.63
1496.79
1496.92
1497.02
1497.12
1497.21
1497.29
1496.42
1496.64
1496.81
1496.94
1497.05
1497.15
1497.24
1497.32
1496.43
1496.65
1496.84
1496.98
1497.1
1497.2
1497.28
1497.36
1496.28
1496.47
1496.71
1496.91
1497.07
1497.2
1497.3
1497.38
1403.52
1403.65
1403.81
1403.95
1404.08
1404.2
1404.29
1404.37
1403.53
1403.69
1403.84
1403.98
1404.1
1404.2
1404.31
1404.39
1403.55
1403.7
1403.84
1403.97
1404.09
1404.21
1404.32
1404.43
1403.57
1403.71
1403.85
1403.99
1404.11
1404.23
1404.35
1404.46
1403.57
1403.73
1403.88
1404.02
1404.14
1404.26
1404.38
1404.48
1403.67
1403.8
1403.95
1404.08
1404.2
1404.31
1404.42
1404.51
1403.61
1403.72
1403.89
1404.05
1404.2
1404.34
1404.46
1404.55
1311.69
1311.68
1311.71
1311.75
1311.81
1311.88
1311.95
1312.02
1311.86
1311.8
1311.79
1311.8
1311.83
1311.89
1311.96
1312.04
1312.01
1311.89
1311.83
1311.82
1311.84
1311.89
1311.97
1312.07
1312.11
1311.96
1311.89
1311.86
1311.87
1311.93
1312.01
1312.11
1312.16
1312.01
1311.94
1311.91
1311.92
1311.97
1312.06
1312.15
1312.24
1312.09
1312.01
1311.99
1312.01
1312.05
1312.13
1312.2
1312.14
1312.04
1312.01
1312.02
1312.06
1312.12
1312.2
1312.28
1219.85
1219.75
1219.69
1219.66
1219.66
1219.69
1219.75
1219.81
1220.03
1219.87
1219.76
1219.7
1219.67
1219.69
1219.74
1219.81
1220.18
1219.96
1219.81
1219.72
1219.68
1219.69
1219.75
1219.83
1220.29
1220.03
1219.86
1219.76
1219.71
1219.72
1219.78
1219.86
1220.34
1220.08
1219.91
1219.81
1219.77
1219.77
1219.83
1219.91
1220.39
1220.14
1219.99
1219.9
1219.86
1219.86
1219.91
1219.97
1220.27
1220.09
1220
1219.94
1219.93
1219.95
1219.99
1220.05
1127.4
1127.35
1127.32
1127.31
1127.32
1127.36
1127.43
1127.49
1127.49
1127.41
1127.35
1127.32
1127.32
1127.36
1127.43
1127.51
1127.57
1127.45
1127.37
1127.32
1127.32
1127.35
1127.42
1127.51
1127.65
1127.5
1127.41
1127.36
1127.35
1127.38
1127.45
1127.54
1127.7
1127.55
1127.46
1127.41
1127.4
1127.42
1127.49
1127.57
1127.73
1127.6
1127.53
1127.49
1127.47
1127.5
1127.55
1127.62
1127.63
1127.55
1127.52
1127.52
1127.53
1127.56
1127.61
1127.67
1034.72
1034.76
1034.8
1034.84
1034.9
1034.98
1035.07
1035.15
1034.73
1034.77
1034.8
1034.85
1034.9
1034.98
1035.08
1035.17
1034.74
1034.76
1034.79
1034.83
1034.89
1034.97
1035.08
1035.18
1034.81
1034.8
1034.82
1034.86
1034.91
1034.99
1035.1
1035.2
1034.87
1034.85
1034.87
1034.9
1034.95
1035.02
1035.12
1035.22
1034.92
1034.9
1034.92
1034.96
1035.01
1035.07
1035.16
1035.24
1034.86
1034.87
1034.92
1034.98
1035.04
1035.11
1035.18
1035.25
942.392
942.448
942.51
942.577
942.651
942.738
942.835
942.927
942.386
942.459
942.523
942.589
942.661
942.747
942.85
942.946
942.379
942.449
942.514
942.578
942.649
942.738
942.848
942.955
942.401
942.47
942.536
942.599
942.668
942.755
942.864
942.972
942.437
942.504
942.568
942.63
942.697
942.78
942.884
942.984
942.511
942.559
942.616
942.675
942.74
942.817
942.909
942.994
942.536
942.579
942.639
942.703
942.771
942.848
942.931
943
850.687
850.6
850.556
850.54
850.549
850.585
850.751
850.765
850.838
850.71
850.63
850.589
850.583
850.612
850.678
850.756
850.974
850.793
850.677
850.611
850.589
850.61
850.676
850.759
851.085
850.871
850.734
850.652
850.618
850.632
850.694
850.776
851.133
850.912
850.771
850.687
850.651
850.662
850.718
850.791
851.145
850.929
850.799
850.724
850.694
850.703
850.75
850.809
851.062
850.909
850.811
850.753
850.732
850.745
850.784
850.829
2264.02
2261.25
2258.7
2256.36
2254.57
2253.36
2252.72
2252.51
2268.62
2263.31
2260.18
2257.49
2255.37
2253.96
2253.21
2252.99
2272.03
2264.57
2261.27
2258.45
2256.1
2254.43
2253.51
2253.23
2270.59
2263.89
2260.73
2257.97
2255.63
2253.98
2253.02
2252.72
2265.19
2261.51
2258.73
2256.23
2254.22
2252.78
2252.04
2251.73
2261.3
2258.7
2256.26
2254.14
2252.54
2251.44
2250.8
2250.6
2258.21
2256.21
2254.25
2252.53
2251.2
2250.25
2249.73
2249.53
2153.19
2155.02
2155.07
2154.91
2154.66
2154.44
2154.29
2154.25
2148.3
2153.56
2154.98
2155.07
2154.85
2154.58
2154.39
2154.34
2148.99
2154.66
2155.98
2155.77
2155.3
2154.85
2154.53
2154.46
2150.12
2155
2156.07
2155.74
2155.19
2154.71
2154.33
2154.22
2151.94
2154.94
2155.43
2155.1
2154.61
2154.17
2153.96
2153.85
2154.53
2155.29
2155
2154.49
2154.01
2153.68
2153.44
2153.38
2155.35
2155.12
2154.5
2153.92
2153.45
2153.11
2152.9
2152.82
2044.71
2048.06
2050.31
2051.97
2053.15
2053.97
2054.48
2054.8
2041.42
2045.58
2049.07
2051.29
2052.67
2053.56
2054.17
2054.58
2043.67
2043.92
2048.21
2050.68
2052.24
2053.25
2053.93
2054.43
2042.53
2045.42
2048.89
2051.04
2052.42
2053.36
2053.99
2054.44
2044.59
2047.69
2050.21
2051.84
2052.94
2053.7
2054.3
2054.64
2047.27
2049.98
2051.6
2052.72
2053.53
2054.15
2054.5
2054.84
2050.37
2051.7
2052.58
2053.34
2053.91
2054.33
2054.6
2054.81
1954.47
1954.71
1955.85
1957.09
1958.12
1958.97
1959.62
1960.08
1956.43
1954.61
1955.47
1956.61
1957.69
1958.63
1959.4
1960
1955.77
1952.71
1953.99
1955.59
1956.94
1958.09
1959.02
1959.76
1955.63
1953.41
1954.38
1955.78
1957.06
1958.14
1959.06
1959.74
1955.63
1954.39
1955.44
1956.58
1957.65
1958.56
1959.4
1959.91
1954.14
1955.02
1956.2
1957.3
1958.23
1959.06
1959.59
1960.03
1955.23
1956.11
1957.05
1957.95
1958.7
1959.3
1959.75
1960.06
1873.42
1870.34
1869.42
1869.15
1869.11
1869.26
1869.57
1869.92
1878.83
1872.75
1870.41
1869.54
1869.3
1869.47
1869.8
1870.27
1879.83
1873.56
1870.44
1869.39
1869.15
1869.33
1869.76
1870.32
1878.67
1872.83
1870.08
1869.2
1869.04
1869.2
1869.62
1870.15
1875.03
1870.71
1869.29
1868.85
1868.82
1869.01
1869.46
1869.84
1869.94
1868.6
1868.32
1868.33
1868.48
1868.8
1869.06
1869.41
1868.14
1867.94
1868.04
1868.17
1868.32
1868.53
1868.78
1869.04
1787.19
1783.56
1781.98
1780.85
1780.08
1779.73
1779.72
1779.9
1794.67
1786.95
1783.55
1781.82
1780.77
1780.35
1780.26
1780.5
1797.78
1788.74
1784.35
1782.42
1781.26
1780.7
1780.61
1780.84
1797.12
1788.24
1784.15
1782.29
1781.15
1780.53
1780.42
1780.63
1790.8
1785.16
1782.72
1781.31
1780.42
1779.93
1779.91
1780.06
1784.63
1782.24
1780.97
1780.06
1779.46
1779.23
1779.13
1779.3
1781.87
1780.81
1780.01
1779.33
1778.85
1778.6
1778.57
1778.68
1690.4
1689.49
1688.8
1688.04
1687.49
1687.21
1687.16
1687.27
1692.57
1690.29
1689.46
1688.61
1687.93
1687.65
1687.51
1687.65
1693.3
1690.39
1689.82
1689.14
1688.4
1687.93
1687.78
1687.89
1693.62
1690.54
1689.81
1689.05
1688.31
1687.8
1687.64
1687.74
1691.4
1689.83
1689.12
1688.35
1687.71
1687.35
1687.2
1687.3
1689.62
1688.88
1688.2
1687.54
1687.03
1686.8
1686.64
1686.72
1689.04
1688.46
1687.73
1687.07
1686.58
1686.3
1686.2
1686.25
1588
1590.2
1591.17
1591.67
1591.95
1592.17
1592.36
1592.55
1584.33
1588.57
1590.56
1591.37
1591.79
1592.14
1592.29
1592.53
1583.53
1588.59
1590.67
1591.46
1591.82
1592.03
1592.24
1592.47
1583.21
1588.56
1590.71
1591.46
1591.77
1591.95
1592.15
1592.38
1587.07
1589.68
1590.97
1591.47
1591.7
1591.94
1592.04
1592.25
1589.5
1590.85
1591.37
1591.59
1591.7
1591.87
1591.91
1592.07
1591.36
1591.79
1591.79
1591.74
1591.72
1591.74
1591.8
1591.91
1494.23
1495.24
1496.16
1496.89
1497.41
1497.79
1498.1
1498.34
1494.02
1494.46
1495.62
1496.52
1497.08
1497.56
1497.85
1498.18
1494.98
1493.98
1495.11
1495.99
1496.62
1497.1
1497.53
1497.91
1493.86
1494.44
1495.28
1496.01
1496.57
1497.03
1497.45
1497.83
1494.18
1494.6
1495.58
1496.23
1496.72
1497.22
1497.51
1497.84
1494.04
1495.18
1495.96
1496.51
1496.93
1497.34
1497.54
1497.79
1495.43
1496.06
1496.44
1496.79
1497.09
1497.34
1497.55
1497.74
1406.94
1405.3
1405.04
1405.09
1405.19
1405.34
1405.53
1405.74
1410.79
1406.73
1405.6
1405.27
1405.18
1405.32
1405.49
1405.79
1410.82
1406.85
1405.34
1404.92
1404.86
1405
1405.29
1405.66
1411.09
1406.76
1405.25
1404.8
1404.75
1404.89
1405.19
1405.56
1408.46
1405.51
1404.82
1404.63
1404.67
1404.91
1405.11
1405.43
1404.8
1404.15
1404.19
1404.33
1404.52
1404.75
1404.94
1405.19
1403.86
1403.91
1404.06
1404.24
1404.43
1404.61
1404.81
1405.01
1316.18
1314.15
1313.62
1313.35
1313.23
1313.23
1313.35
1313.51
1321.49
1316.4
1314.7
1313.95
1313.54
1313.49
1313.56
1313.82
1322.62
1316.98
1314.86
1314.06
1313.64
1313.53
1313.68
1313.96
1321.92
1316.61
1314.68
1313.94
1313.58
1313.47
1313.61
1313.9
1318.86
1315.18
1314.08
1313.56
1313.3
1313.33
1313.4
1313.65
1314.55
1313.42
1313.14
1312.97
1312.91
1312.94
1313.06
1313.26
1313.16
1312.92
1312.8
1312.71
1312.68
1312.71
1312.82
1312.98
1222.28
1221.22
1220.98
1220.77
1220.65
1220.65
1220.75
1220.89
1225.84
1222.86
1221.83
1221.3
1220.98
1220.88
1220.97
1221.19
1228.59
1224.03
1222.36
1221.69
1221.27
1221.11
1221.2
1221.41
1227.33
1223.59
1222.25
1221.65
1221.26
1221.1
1221.16
1221.39
1224.82
1222.36
1221.69
1221.26
1220.99
1220.97
1220.98
1221.17
1221.82
1221.16
1220.95
1220.76
1220.66
1220.63
1220.71
1220.86
1221.21
1220.99
1220.77
1220.6
1220.5
1220.47
1220.54
1220.66
1125.8
1126.36
1126.87
1127.17
1127.4
1127.6
1127.79
1127.96
1124.97
1126.06
1126.77
1127.15
1127.37
1127.56
1127.81
1128.08
1122.89
1125.44
1126.49
1127.05
1127.31
1127.53
1127.84
1128.1
1124.17
1125.56
1126.55
1127.06
1127.32
1127.53
1127.77
1128.06
1125.95
1126.04
1126.76
1127.13
1127.34
1127.6
1127.74
1127.98
1125.91
1126.46
1126.95
1127.2
1127.4
1127.54
1127.7
1127.88
1126.98
1127.28
1127.38
1127.45
1127.53
1127.61
1127.73
1127.87
1034
1034.11
1034.52
1034.84
1035.06
1035.23
1035.41
1035.57
1034.74
1034.17
1034.37
1034.66
1034.88
1035.11
1035.32
1035.6
1033.25
1033.67
1033.93
1034.27
1034.55
1034.81
1035.18
1035.47
1033.68
1033.7
1033.93
1034.24
1034.49
1034.75
1035.06
1035.38
1034.2
1033.54
1033.98
1034.32
1034.57
1034.84
1035.07
1035.34
1033.28
1033.64
1034.13
1034.44
1034.68
1034.89
1035.09
1035.29
1034.04
1034.39
1034.58
1034.74
1034.88
1035.02
1035.17
1035.32
944.027
943.192
943.249
943.328
943.364
943.419
943.527
943.649
947.094
944.184
943.541
943.396
943.35
943.426
943.568
943.813
947.829
944.653
943.507
943.22
943.162
943.25
943.539
943.809
946.923
944.262
943.323
943.099
943.074
943.179
943.464
943.739
945.473
943.35
943.017
942.983
943.05
943.149
943.358
943.602
942.816
942.438
942.657
942.803
942.928
943.059
943.232
943.415
942.464
942.677
942.817
942.896
942.966
943.059
943.187
943.328
854.973
853.22
852.667
852.261
851.965
851.8
851.761
851.799
859.65
855.086
853.484
852.683
852.198
852.005
851.975
852.125
861.562
856.23
853.908
852.918
852.363
852.114
852.188
852.335
860.818
855.864
853.739
852.833
852.33
852.099
852.177
852.32
857.869
854.242
853.036
852.433
852.098
851.91
851.937
852.08
853.668
852.451
852.133
851.869
851.694
851.606
851.645
851.75
852.278
852.059
851.872
851.66
851.505
851.439
851.466
851.549
2257.38
2254.93
2252.84
2251.19
2249.95
2249.11
2248.62
2248.41
2257.77
2254.68
2252.29
2250.49
2249.16
2248.24
2247.68
2247.44
2257.11
2254
2251.55
2249.69
2248.32
2247.36
2246.78
2246.53
2255.63
2252.73
2250.46
2248.72
2247.43
2246.54
2245.98
2245.73
2253.68
2251.21
2249.22
2247.7
2246.58
2245.83
2245.33
2245.09
2251.69
2249.68
2248.03
2246.77
2245.84
2245.19
2244.76
2244.59
2249.9
2248.42
2247.13
2246.11
2245.36
2244.82
2244.46
2244.31
2154.57
2154.05
2153.59
2153.13
2152.74
2152.44
2152.25
2152.15
2155.17
2154.41
2153.67
2153
2152.45
2152.04
2151.77
2151.63
2155.15
2154.23
2153.34
2152.58
2151.96
2151.52
2151.22
2151.1
2154.65
2153.69
2152.79
2152.03
2151.43
2150.99
2150.73
2150.56
2153.95
2153.01
2152.16
2151.45
2150.91
2150.55
2150.25
2150.11
2153.12
2152.24
2151.49
2150.89
2150.43
2150.1
2149.85
2149.76
2152.31
2151.62
2150.99
2150.49
2150.12
2149.83
2149.62
2149.53
2050.01
2051.34
2052.46
2053.26
2053.87
2054.26
2054.5
2054.67
2050.3
2051.95
2052.99
2053.62
2054.04
2054.32
2054.49
2054.63
2050.61
2052.08
2052.99
2053.59
2053.98
2054.24
2054.4
2054.51
2051.07
2052.27
2053.05
2053.57
2053.91
2054.13
2054.3
2054.35
2051.67
2052.57
2053.18
2053.6
2053.88
2054.07
2054.15
2054.19
2052.19
2052.83
2053.28
2053.6
2053.82
2053.96
2054.01
2054.07
2052.71
2053.09
2053.38
2053.63
2053.79
2053.89
2053.93
2053.95
1955.2
1956.23
1957.24
1958.11
1958.8
1959.33
1959.73
1959.99
1955
1956.42
1957.5
1958.32
1958.95
1959.42
1959.78
1960.01
1955.17
1956.5
1957.55
1958.36
1958.98
1959.44
1959.78
1960
1955.59
1956.79
1957.75
1958.5
1959.06
1959.5
1959.8
1959.98
1956.17
1957.21
1958.05
1958.7
1959.21
1959.54
1959.79
1959.96
1956.81
1957.65
1958.35
1958.9
1959.32
1959.61
1959.82
1959.93
1957.49
1958.11
1958.64
1959.07
1959.39
1959.62
1959.82
1959.89
1867.96
1867.77
1867.76
1867.85
1868.01
1868.21
1868.44
1868.65
1867.41
1867.38
1867.48
1867.62
1867.79
1867.98
1868.18
1868.37
1867.34
1867.26
1867.34
1867.47
1867.61
1867.78
1867.99
1868.14
1867.33
1867.24
1867.3
1867.41
1867.54
1867.73
1867.85
1868
1867.18
1867.18
1867.26
1867.38
1867.51
1867.63
1867.75
1867.85
1867.07
1867.15
1867.26
1867.39
1867.51
1867.62
1867.74
1867.82
1867.1
1867.2
1867.31
1867.4
1867.48
1867.56
1867.71
1867.73
1781.48
1780.19
1779.25
1778.59
1778.17
1777.97
1777.95
1778.02
1781.19
1779.76
1778.76
1778.12
1777.71
1777.49
1777.44
1777.5
1780.69
1779.31
1778.36
1777.72
1777.3
1777.07
1777.03
1777.06
1779.98
1778.78
1777.94
1777.35
1776.98
1776.79
1776.69
1776.73
1779.09
1778.15
1777.47
1777
1776.69
1776.5
1776.44
1776.48
1778.26
1777.58
1777.08
1776.72
1776.48
1776.34
1776.33
1776.31
1777.64
1777.2
1776.83
1776.53
1776.33
1776.21
1776.18
1776.17
1688.65
1687.71
1686.97
1686.39
1685.97
1685.73
1685.64
1685.66
1688.78
1687.62
1686.74
1686.09
1685.63
1685.34
1685.21
1685.21
1688.39
1687.26
1686.38
1685.71
1685.23
1684.93
1684.82
1684.79
1687.74
1686.73
1685.93
1685.32
1684.88
1684.62
1684.46
1684.43
1687.01
1686.15
1685.46
1684.93
1684.56
1684.33
1684.2
1684.2
1686.28
1685.61
1685.04
1684.61
1684.3
1684.14
1684.03
1684.02
1685.69
1685.2
1684.75
1684.39
1684.14
1683.98
1683.9
1683.89
1591.08
1591.22
1591.38
1591.43
1591.45
1591.48
1591.53
1591.6
1591.64
1591.68
1591.64
1591.53
1591.43
1591.37
1591.37
1591.41
1591.77
1591.7
1591.54
1591.38
1591.24
1591.17
1591.16
1591.19
1591.69
1591.56
1591.39
1591.22
1591.08
1591.02
1590.98
1590.99
1591.58
1591.41
1591.22
1591.05
1590.93
1590.87
1590.83
1590.87
1591.45
1591.25
1591.05
1590.9
1590.81
1590.75
1590.72
1590.72
1591.33
1591.14
1590.96
1590.82
1590.73
1590.67
1590.65
1590.68
1495.19
1495.75
1496.29
1496.7
1497
1497.24
1497.44
1497.58
1495.49
1496.19
1496.64
1496.92
1497.11
1497.27
1497.41
1497.53
1495.8
1496.32
1496.66
1496.89
1497.06
1497.25
1497.33
1497.44
1496.03
1496.43
1496.71
1496.9
1497.05
1497.2
1497.29
1497.4
1496.28
1496.57
1496.77
1496.92
1497.04
1497.18
1497.27
1497.34
1496.48
1496.66
1496.81
1496.92
1497.05
1497.1
1497.18
1497.26
1496.68
1496.78
1496.88
1496.98
1497.06
1497.13
1497.19
1497.29
1403.58
1403.65
1403.82
1404.02
1404.22
1404.42
1404.61
1404.76
1403.2
1403.56
1403.81
1404.01
1404.17
1404.34
1404.5
1404.64
1403.26
1403.52
1403.74
1403.93
1404.09
1404.25
1404.4
1404.53
1403.33
1403.55
1403.75
1403.92
1404.08
1404.23
1404.37
1404.51
1403.42
1403.59
1403.77
1403.93
1404.09
1404.26
1404.33
1404.44
1403.47
1403.62
1403.78
1403.93
1404.06
1404.17
1404.32
1404.38
1403.57
1403.7
1403.85
1403.99
1404.11
1404.21
1404.31
1404.43
1312.96
1312.58
1312.38
1312.32
1312.33
1312.4
1312.53
1312.65
1312.6
1312.34
1312.21
1312.16
1312.17
1312.23
1312.33
1312.45
1312.5
1312.22
1312.08
1312.03
1312.03
1312.09
1312.18
1312.33
1312.32
1312.09
1311.98
1311.94
1311.96
1312.02
1312.11
1312.24
1312.09
1311.92
1311.86
1311.86
1311.93
1311.97
1312.06
1312.15
1311.85
1311.78
1311.78
1311.81
1311.85
1311.91
1312.01
1312.09
1311.74
1311.73
1311.76
1311.8
1311.85
1311.91
1311.99
1312.1
1220.99
1220.58
1220.36
1220.23
1220.19
1220.21
1220.29
1220.38
1221.03
1220.59
1220.33
1220.17
1220.09
1220.08
1220.13
1220.22
1220.89
1220.47
1220.21
1220.04
1219.96
1219.95
1220.01
1220.13
1220.63
1220.28
1220.06
1219.93
1219.87
1219.87
1219.93
1220.02
1220.33
1220.07
1219.91
1219.82
1219.83
1219.8
1219.86
1219.94
1220.06
1219.9
1219.81
1219.76
1219.74
1219.76
1219.84
1219.91
1219.91
1219.83
1219.76
1219.73
1219.72
1219.75
1219.81
1219.91
1126.97
1127.05
1127.2
1127.31
1127.41
1127.52
1127.63
1127.74
1127.45
1127.43
1127.45
1127.46
1127.48
1127.53
1127.61
1127.73
1127.6
1127.52
1127.47
1127.44
1127.45
1127.48
1127.56
1127.69
1127.57
1127.49
1127.43
1127.4
1127.41
1127.44
1127.52
1127.61
1127.52
1127.45
1127.39
1127.36
1127.42
1127.41
1127.48
1127.56
1127.47
1127.41
1127.37
1127.36
1127.37
1127.41
1127.5
1127.58
1127.47
1127.43
1127.39
1127.37
1127.38
1127.43
1127.48
1127.57
1034.12
1034.29
1034.52
1034.7
1034.85
1034.99
1035.14
1035.25
1034.44
1034.6
1034.74
1034.84
1034.93
1035.03
1035.15
1035.29
1034.54
1034.65
1034.74
1034.83
1034.92
1035.02
1035.13
1035.28
1034.53
1034.64
1034.74
1034.82
1034.93
1035
1035.11
1035.21
1034.59
1034.69
1034.76
1034.81
1034.93
1034.97
1035.07
1035.16
1034.68
1034.75
1034.8
1034.86
1034.93
1035.01
1035.11
1035.23
1034.79
1034.82
1034.85
1034.89
1034.95
1035.03
1035.11
1035.18
942.604
942.609
942.664
942.741
942.835
942.951
943.084
943.2
942.274
942.437
942.568
942.678
942.782
942.896
943.023
943.145
942.265
942.399
942.524
942.628
942.73
942.845
942.969
943.085
942.243
942.393
942.508
942.601
942.736
942.807
942.921
943.028
942.304
942.427
942.516
942.6
942.706
942.786
942.876
942.988
942.376
942.464
942.542
942.621
942.703
942.797
942.894
943.027
942.45
942.51
942.567
942.625
942.696
942.766
942.856
942.947
852.343
851.849
851.513
851.314
851.219
851.207
851.256
851.327
851.874
851.47
851.23
851.101
851.044
851.047
851.103
851.176
851.638
851.291
851.087
850.964
850.913
850.918
850.975
851.053
851.361
851.11
850.943
850.848
850.854
850.829
850.883
850.955
851.12
850.938
850.82
850.767
850.755
850.768
850.82
850.898
850.91
850.793
850.718
850.682
850.678
850.74
850.792
850.847
850.755
850.682
850.635
850.605
850.599
850.626
850.8
850.804
2343.33
2341.91
2340.67
2339.64
2338.86
2338.36
2338.09
2338
2345.89
2343.75
2341.94
2340.59
2339.66
2339.06
2338.75
2338.65
2349.16
2346.19
2343.88
2342.1
2340.87
2340.04
2339.63
2339.52
2353.76
2348.96
2346.02
2343.8
2342.19
2341.18
2340.68
2340.56
2347.47
2345.07
2343.37
2342.21
2341.68
2341.59
2342.48
2342.43
2253.04
2251.34
2249.75
2248.42
2247.41
2246.7
2246.26
2246.08
2255.82
2253.45
2251.38
2249.72
2248.47
2247.62
2247.09
2246.88
2258.89
2256.13
2253.54
2251.5
2249.99
2248.85
2248.19
2247.91
2261.78
2258.69
2255.8
2253.34
2251.47
2250.16
2249.39
2249.07
2264.4
2260.54
2257.48
2254.9
2252.84
2251.42
2250.59
2250.26
2265.28
2261.24
2258.05
2255.5
2253.64
2252.32
2251.55
2251.26
2264.11
2261.13
2258.26
2255.83
2254.05
2252.86
2252.22
2251.99
2153.46
2152.81
2152.13
2151.56
2151.12
2150.8
2150.59
2150.49
2154.27
2153.55
2152.83
2152.19
2151.67
2151.3
2151.06
2150.95
2154.95
2154.43
2153.71
2153.02
2152.45
2151.97
2151.68
2151.54
2154.61
2154.98
2154.43
2153.76
2153.16
2152.64
2152.32
2152.19
2153.93
2155.24
2154.98
2154.4
2153.8
2153.31
2152.98
2152.86
2153.41
2155.02
2155.04
2154.66
2154.21
2153.83
2153.57
2153.46
2153.47
2154.56
2154.64
2154.47
2154.25
2154.06
2153.92
2153.86
2051.54
2052.23
2052.74
2053.17
2053.49
2053.72
2053.87
2053.96
2050.13
2051.31
2052.21
2052.87
2053.33
2053.65
2053.87
2054.01
2048.21
2050.18
2051.55
2052.51
2053.17
2053.59
2053.88
2054.14
2045.33
2048.65
2050.7