/*--------------------------------*- C++ -*----------------------------------*\
| =========                 |                                                 |
| \\      /  F ield         | OpenFOAM: The Open Source CFD Toolbox           |
|  \\    /   O peration     | Version:  plus.master.MPPICInterFoam            |
|   \\  /    A nd           | Web:      www.OpenFOAM.com                      |
|    \\/     M anipulation  |                                                 |
\*---------------------------------------------------------------------------*/
FoamFile
{
    version     2.0;
    format      ascii;
    class       volScalarField;
    location    "9.6";
    object      p_rgh;
}
// * * * * * * * * * * * * * * * * * * * * * * * * * * * * * * * * * * * * * //

dimensions      [1 -1 -2 0 0 0 0];

internalField   nonuniform List<scalar> 
11821
(
5664.87
5668.35
5664.67
5578.06
5666.93
5663.53
5676.09
5677.07
5676.63
5674.86
5672.34
5669.62
5667.06
5596.28
5592.29
5566.78
5621.37
5675.37
5672.43
5669.08
5357.47
4683.64
4592.88
5460.3
5633.93
5675.01
5670.9
4744.26
3469.05
3458.22
4858.15
5622.93
5676.8
5672.19
4608.43
3471.8
3459.56
4831.99
5614.28
5676.96
5672.56
5168.08
4311.58
4265.24
5245.02
5618.57
5676.12
5671.88
5542.17
5494.63
5421.69
5552.88
5654.94
5673.86
5670.38
5667.72
5668.24
5668.37
5667.99
5667.39
5666.47
5665.41
5482.77
5534.88
5489.93
5570.04
5667.97
5667.32
5666.17
5232.93
4576.25
4546.62
5376.17
5591.29
5667.93
5666.8
5321.28
4194.81
3831.48
4800.12
5578.54
5668.4
5667.26
5320.7
4279.65
3777.31
4839.41
5568.93
5668.32
5667.3
5322.12
4821.61
4537.85
5281.34
5518.31
5667.77
5666.92
5285.83
5397.69
5245.52
5339.2
5631.42
5667.3
5666.32
5657.83
5657.19
5657.48
5658.42
5659.68
5660.76
5661.56
5072.78
5128.96
5085.89
5410.01
5648.95
5659.45
5660.85
4173.16
3619.64
3751.44
4779.98
5454.43
5657.99
5660.13
4337.77
4864.46
4468.38
3928.28
5307.69
5656.82
5659.59
4875.67
4901.26
4852.59
3829.13
5252.57
5656.32
5659.35
4238.25
3956.05
3641.76
4604.05
5145.89
5656.9
5659.52
4380.69
4420.08
4235.51
4660.91
5526.59
5658.14
5660.03
5661.02
5659.76
5660.03
5660.65
5661.48
5662.47
5663.43
4730.91
4575.37
4648.16
5287.12
5637.08
5661.31
5662.62
3418.2
3395.73
3390.33
4057.66
5346.93
5660.36
5661.94
3382.56
4725.35
3979.18
3473.63
4985.93
5659.38
5661.39
3709.37
4898.17
4807.23
3459.32
4854.44
5658.99
5661.21
3352.32
3347.73
3344.28
3454.31
4910.41
5660.22
5661.74
3719.31
3412.81
3390.98
4266.66
5431.36
5661.14
5662.37
5672.54
5671.53
5671.82
5671.7
5671.28
5671.05
5670.98
4845.57
4635.51
4734.74
5349.78
5652.81
5671.35
5671.07
3388.41
3346.9
3334.45
4157.62
5409.65
5671.98
5671.26
3329.09
3838.9
3277.1
3461.49
5071.38
5672.34
5671.36
3313.44
4898.38
4086.82
3435.29
4953.5
5672.05
5671.34
3307.91
3304.15
3304.05
3459.39
5054.24
5672.9
5671.73
3866.1
3488.02
3578
4469.98
5484.1
5672.69
5671.87
5684.54
5684.36
5683.96
5682.85
5681.49
5680.27
5679.29
5234.43
5081.04
5136.87
5510.37
5677.11
5681.54
5680.09
3950.07
3420.21
3521.94
4805.79
5560.73
5682.94
5680.9
3355.18
3218.76
3212.69
3878.99
5399.33
5683.89
5681.45
3406.63
4166.19
3218.15
3799.02
5344.27
5684.05
5681.61
3512.97
3265.01
3260.22
4218.78
5394.66
5683.91
5681.62
4608.94
4292.95
4411.05
5049.59
5598.34
5682.85
5681.18
5688.05
5688.26
5687.97
5687.12
5686.18
5685.22
5684.35
5334.82
5353.71
5313.51
5555.33
5686.8
5686.16
5685.02
4656.01
3742.46
3935.42
5154.79
5611.75
5687.04
5685.63
4097.76
3152.88
3151.21
4371.58
5551.55
5687.62
5686.05
4259.22
3159.49
3152.35
4243.23
5543.1
5687.71
5686.17
4568.47
3545.25
3498.99
4898.99
5481.76
5687.46
5686.05
4923.96
4875.97
4757.85
5167.99
5638.94
5686.73
5685.65
5686.16
5686.51
5686.81
5686.83
5686.85
5686.75
5686.57
5170.68
5295.68
5226.98
5527.33
5684.97
5686.84
5686.71
4450.56
3670.78
3883
5011.47
5595.08
5686.89
5686.82
4541.07
3185.79
3090.9
4296.35
5519.21
5687
5686.93
4687.31
3495.37
3130.33
4116.84
5516
5686.95
5686.94
4628.76
3640.52
3599.33
4736.62
5420.22
5686.81
5686.87
4562.47
4615.71
4420.11
4959.1
5622.87
5686.76
5686.76
5686.94
5686.59
5687.18
5687.63
5688.09
5688.47
5688.75
4805.66
5027.03
4960.83
5462.75
5680.47
5688.15
5688.58
3532.98
3211.84
3467.82
4587.06
5544.98
5687.94
5688.45
3306.85
4246.56
3730.79
3892.86
5398.81
5687.86
5688.39
3936.58
4420.9
4326.31
3682.14
5386.62
5687.65
5688.32
3584.14
3126.35
3203.52
4021.4
5290.7
5687.76
5688.35
3874.85
3788.92
3700.59
4648.21
5576.63
5688.04
5688.46
5693.36
5691.94
5692.36
5692.52
5692.63
5692.76
5692.89
4697.27
4755.49
4778.67
5432.24
5680.84
5692.67
5692.84
3051.04
3041.88
3059.53
4374.03
5516.54
5692.75
5692.84
3075.9
4397.65
3499.31
3494.41
5317.03
5692.75
5692.82
3044.1
4402.93
4339.26
3506.15
5284.27
5692.6
5692.77
3009.84
3003.87
3003.12
3634.73
5258.69
5693.02
5692.93
3739.25
3449.29
3550.2
4612.32
5563.99
5693.14
5693.05
5700.37
5699.49
5699.67
5699.3
5698.94
5698.63
5698.42
4776.29
4754.43
4800.72
5442.04
5686.93
5698.94
5698.62
3138.46
2990.55
3034.75
4453.08
5527.73
5699.38
5698.84
3020.7
3722.86
3007.67
3509.48
5336.42
5699.62
5698.97
2989.7
4385.39
3276.75
3513.61
5312.45
5699.62
5698.99
2970.25
2951.5
2949.57
3813.11
5299.45
5699.72
5699.06
3916.44
3616.49
3740.18
4737.42
5578.49
5699.44
5698.99
5705.2
5705.39
5705.24
5704.79
5704.38
5704.02
5703.76
4842.8
4838.87
4848.29
5447.01
5691.53
5704.38
5703.99
3526.26
2934.75
3202.35
4591.68
5531.6
5704.81
5704.23
3316.98
2934.51
2940.25
3728.53
5362.24
5705.02
5704.37
4051.19
3762.12
2944.27
3655.58
5354.12
5705
5704.4
3378.19
2893.74
2964.5
4153.59
5317.6
5705.03
5704.42
4101.31
3899.65
3976.25
4830.23
5591.95
5704.72
5704.3
5707.56
5708.22
5708.47
5708.43
5708.4
5708.34
5708.3
4755.88
4842.39
4797.11
5425.47
5691.4
5708.48
5708.4
3518.58
2873.45
3290.51
4535.07
5516.6
5708.72
5708.53
3313.59
2874.38
2959.18
3756.18
5340.89
5708.95
5708.64
4203.55
3008.86
2899.2
3647.87
5332.72
5708.98
5708.68
3587.59
2831.57
3088.88
4090.56
5289.87
5708.92
5708.68
3991.65
3839.36
3888.29
4774.04
5590.71
5708.73
5708.61
5711.9
5712.13
5712.32
5712.27
5712.36
5712.5
5712.62
4524.37
4737.57
4608.75
5362.1
5687.02
5712.45
5712.59
3125.45
2817.43
3122.79
4294.09
5475.66
5712.61
5712.63
2856.45
3202.95
2886.26
3549.11
5267.85
5712.89
5712.75
2920.91
3754.86
3404.76
3484.85
5248.68
5713.05
5712.82
3136.28
2775.63
2914.02
3777.22
5235.99
5712.99
5712.84
3713.57
3585.53
3627.23
4634.64
5583.58
5712.84
5712.82
5715.82
5716.85
5717.1
5717.1
5717.15
5717.3
5717.42
4395.13
4507.26
4430.95
5304.72
5684.13
5717.19
5717.35
2754.88
2771.23
2800.5
4101.83
5442.55
5717.23
5717.34
2745.04
3786.95
2796.92
3270.36
5196.82
5717.29
5717.35
2731.31
3790.32
3444.23
3321.62
5166.63
5717.27
5717.36
2718.96
2719.66
2717.28
3595.53
5207.64
5717.4
5717.44
3622.96
3424.75
3496.79
4581.12
5582.47
5717.4
5717.51
5717.19
5724.42
5721.64
5723.93
5723.55
5723.27
5723.05
4433.97
4441.1
4438.12
5305.11
5685.13
5723.55
5723.24
2820.03
2724.19
2739.95
4129.97
5432.52
5723.99
5723.46
2687.02
3560.04
2751.4
3303.84
5195.09
5724.29
5723.61
2676.53
3764.1
3726.25
3408.39
5165.7
5724.32
5723.65
2670.86
2670.92
2668.49
3687.36
5212.22
5724.24
5723.61
3739.33
3523.19
3610.11
4659.16
5593.05
5723.83
5723.45
5654.9
5654.72
5657.33
5656.28
5655.56
5655.08
5654.76
5654.59
5661.24
5659.17
5657.59
5656.43
5655.64
5655.12
5654.79
5654.62
5661.57
5659.38
5657.77
5656.62
5655.82
5655.29
5654.97
5654.82
5661.6
5659.46
5657.92
5656.84
5656.09
5655.59
5655.3
5655.17
5661.11
5659.48
5658.14
5657.15
5656.45
5655.99
5655.74
5655.63
5665
5663.48
5662.2
5661.21
5660.47
5659.94
5659.21
5658.15
5666.31
5664.27
5662.67
5661.47
5660.6
5659.99
5659.58
5659.19
5667.5
5665.09
5663.2
5661.78
5660.76
5660.05
5659.59
5659.36
5668.41
5665.73
5663.66
5662.11
5660.99
5660.21
5659.71
5659.45
5668.71
5665.99
5663.92
5662.37
5661.24
5660.46
5659.96
5659.71
5668.44
5665.94
5664.03
5662.6
5661.56
5660.83
5660.36
5660.12
5667.59
5665.69
5664.1
5662.86
5661.94
5661.3
5660.89
5660.67
5664.52
5663.81
5663.21
5662.73
5662.35
5662.04
5661.4
5660.81
5665.09
5664.18
5663.43
5662.83
5662.38
5662.05
5661.78
5661.24
5665.55
5664.51
5663.65
5662.97
5662.46
5662.08
5661.81
5661.65
5665.91
5664.79
5663.86
5663.12
5662.58
5662.18
5661.9
5661.73
5665.98
5664.9
5663.99
5663.26
5662.72
5662.32
5662.05
5661.91
5665.77
5664.84
5664.04
5663.4
5662.9
5662.54
5662.29
5662.15
5665.22
5664.51
5663.92
5663.43
5663.05
5662.77
5662.57
5662.46
5662.12
5662.51
5662.84
5663.08
5663.25
5663.31
5662.43
5659.03
5661.74
5662.32
5662.72
5663
5663.18
5663.3
5663.34
5662.93
5661.36
5662.06
5662.54
5662.87
5663.09
5663.24
5663.32
5663.33
5661.07
5661.87
5662.41
5662.78
5663.04
5663.21
5663.3
5663.33
5660.92
5661.78
5662.36
5662.75
5663.02
5663.2
5663.29
5663.34
5660.91
5661.77
5662.36
5662.76
5663.03
5663.21
5663.32
5663.36
5660.89
5661.55
5662.15
5662.62
5662.95
5663.18
5663.31
5663.39
5664.14
5664.75
5665.29
5665.72
5666.05
5666.23
5664.35
5657.54
5663.64
5664.45
5665.1
5665.59
5665.96
5666.22
5666.39
5666.13
5663.21
5664.13
5664.86
5665.42
5665.84
5666.15
5666.35
5666.46
5662.89
5663.9
5664.7
5665.3
5665.76
5666.09
5666.32
5666.49
5662.78
5663.83
5664.63
5665.25
5665.71
5666.06
5666.3
5666.45
5663.02
5663.95
5664.7
5665.27
5665.72
5666.05
5666.28
5666.43
5663.22
5663.94
5664.63
5665.2
5665.65
5666
5666.26
5666.34
5670.9
5670.98
5671.07
5671.17
5671.27
5671.26
5668.64
5661.74
5670.93
5670.97
5671.05
5671.14
5671.23
5671.33
5671.41
5671.35
5671.01
5670.99
5671.03
5671.11
5671.2
5671.3
5671.4
5671.49
5671.07
5671.02
5671.05
5671.12
5671.2
5671.31
5671.41
5671.51
5671.13
5671.08
5671.11
5671.17
5671.25
5671.35
5671.47
5671.56
5671.43
5671.29
5671.27
5671.31
5671.38
5671.47
5671.58
5671.67
5671.51
5671.41
5671.38
5671.41
5671.49
5671.59
5671.71
5671.68
5678.52
5678.04
5677.65
5677.37
5677.18
5676.85
5674.3
5666.92
5679.01
5678.3
5677.79
5677.43
5677.19
5677.05
5676.98
5676.97
5679.48
5678.6
5677.98
5677.54
5677.25
5677.07
5677
5676.99
5679.85
5678.86
5678.16
5677.67
5677.35
5677.16
5677.08
5677.08
5680.04
5679.02
5678.31
5677.81
5677.48
5677.29
5677.22
5677.22
5680.18
5679.18
5678.48
5678
5677.68
5677.5
5677.43
5677.44
5679.97
5679.21
5678.62
5678.19
5677.9
5677.75
5677.7
5677.6
5683.63
5683.1
5682.67
5682.33
5682.09
5681.46
5679.71
5672.87
5684.08
5683.37
5682.81
5682.4
5682.11
5681.92
5681.82
5681.79
5684.46
5683.63
5682.98
5682.5
5682.17
5681.95
5681.84
5681.81
5684.76
5683.85
5683.15
5682.64
5682.28
5682.04
5681.92
5681.89
5684.91
5683.99
5683.29
5682.77
5682.41
5682.17
5682.06
5682.03
5684.94
5684.08
5683.42
5682.94
5682.59
5682.37
5682.26
5682.22
5684.64
5683.98
5683.46
5683.06
5682.76
5682.58
5682.5
5682.44
5686.37
5686.19
5686.03
5685.91
5685.83
5684.91
5684.44
5679.52
5686.5
5686.28
5686.08
5685.93
5685.83
5685.77
5685.74
5685.76
5686.58
5686.34
5686.13
5685.96
5685.84
5685.78
5685.76
5685.77
5686.68
5686.42
5686.2
5686.02
5685.9
5685.83
5685.8
5685.82
5686.73
5686.48
5686.26
5686.09
5685.97
5685.9
5685.88
5685.89
5686.71
5686.5
5686.32
5686.18
5686.07
5686.01
5685.99
5685.93
5686.46
5686.3
5686.23
5686.17
5686.12
5686.1
5686.1
5686.08
5688.88
5689
5689.12
5689.23
5689.32
5688.39
5688.73
5685.45
5688.82
5688.99
5689.13
5689.23
5689.32
5689.4
5689.47
5689.55
5688.76
5688.94
5689.09
5689.21
5689.31
5689.4
5689.49
5689.57
5688.74
5688.94
5689.09
5689.22
5689.33
5689.42
5689.51
5689.6
5688.72
5688.94
5689.11
5689.24
5689.35
5689.45
5689.54
5689.62
5688.73
5688.96
5689.14
5689.29
5689.4
5689.5
5689.59
5689.51
5688.59
5688.78
5689.01
5689.21
5689.37
5689.5
5689.61
5689.34
5692.94
5693.08
5693.23
5693.38
5693.5
5692.63
5693.25
5690.91
5692.96
5693.12
5693.27
5693.4
5693.52
5693.63
5693.73
5693.82
5692.98
5693.12
5693.26
5693.39
5693.51
5693.63
5693.75
5693.85
5692.99
5693.13
5693.28
5693.41
5693.53
5693.65
5693.77
5693.88
5693
5693.16
5693.31
5693.44
5693.56
5693.69
5693.8
5693.9
5693.09
5693.22
5693.37
5693.5
5693.62
5693.74
5693.85
5693.8
5693.03
5693.14
5693.31
5693.47
5693.62
5693.76
5693.88
5692.85
5698.23
5698.22
5698.25
5698.3
5698.35
5697.6
5698.22
5696.62
5698.4
5698.34
5698.33
5698.34
5698.37
5698.43
5698.5
5698.58
5698.56
5698.43
5698.38
5698.36
5698.38
5698.43
5698.52
5698.61
5698.65
5698.5
5698.43
5698.4
5698.42
5698.47
5698.55
5698.65
5698.7
5698.55
5698.48
5698.45
5698.47
5698.52
5698.6
5698.69
5698.79
5698.63
5698.56
5698.54
5698.55
5698.6
5698.67
5698.7
5698.69
5698.58
5698.55
5698.56
5698.6
5698.67
5698.74
5697.17
5703.51
5703.41
5703.35
5703.32
5703.29
5702.83
5703.31
5702.36
5703.69
5703.53
5703.42
5703.36
5703.33
5703.35
5703.4
5703.45
5703.84
5703.62
5703.47
5703.38
5703.34
5703.35
5703.41
5703.49
5703.95
5703.69
5703.52
5703.42
5703.37
5703.38
5703.44
5703.52
5704
5703.74
5703.57
5703.47
5703.43
5703.43
5703.49
5703.57
5704.05
5703.8
5703.65
5703.56
5703.52
5703.52
5703.57
5703.63
5703.93
5703.75
5703.66
5703.61
5703.59
5703.61
5703.65
5702.13
5708.18
5708.13
5708.1
5708.09
5707.99
5707.9
5708.19
5707.34
5708.27
5708.19
5708.13
5708.1
5708.1
5708.14
5708.2
5708.24
5708.35
5708.23
5708.15
5708.1
5708.09
5708.13
5708.2
5708.29
5708.43
5708.28
5708.19
5708.14
5708.13
5708.16
5708.23
5708.32
5708.48
5708.33
5708.24
5708.19
5708.18
5708.2
5708.27
5708.35
5708.51
5708.38
5708.31
5708.26
5708.25
5708.28
5708.33
5708.4
5708.41
5708.33
5708.3
5708.3
5708.31
5708.34
5708.35
5707.27
5712.62
5712.66
5712.69
5712.74
5712.59
5712.81
5712.96
5711.91
5712.62
5712.67
5712.7
5712.74
5712.8
5712.88
5712.93
5713.01
5712.64
5712.66
5712.69
5712.73
5712.79
5712.87
5712.98
5713.08
5712.71
5712.7
5712.72
5712.76
5712.81
5712.89
5712.99
5713.1
5712.77
5712.75
5712.77
5712.8
5712.85
5712.92
5713.02
5713.11
5712.81
5712.8
5712.82
5712.86
5712.91
5712.97
5713.06
5713.14
5712.76
5712.77
5712.82
5712.87
5712.93
5713
5713.03
5712.59
5717.41
5717.47
5717.53
5717.59
5717.44
5717.75
5717.26
5716.35
5717.4
5717.48
5717.54
5717.61
5717.68
5717.76
5717.78
5717.86
5717.4
5717.47
5717.53
5717.6
5717.67
5717.76
5717.87
5717.97
5717.42
5717.49
5717.55
5717.62
5717.69
5717.77
5717.88
5717.99
5717.45
5717.52
5717.59
5717.65
5717.71
5717.8
5717.9
5717.99
5717.53
5717.58
5717.63
5717.69
5717.76
5717.83
5717.93
5718
5717.55
5717.6
5717.66
5717.72
5717.79
5717.86
5717.91
5717.88
5722.82
5722.74
5722.69
5722.67
5722.48
5722.72
5706.93
5721.25
5722.97
5722.85
5722.77
5722.73
5722.72
5722.75
5722.73
5722.65
5723.11
5722.93
5722.81
5722.75
5722.73
5722.75
5722.81
5722.9
5723.22
5723.01
5722.87
5722.79
5722.75
5722.77
5722.83
5722.91
5723.27
5723.05
5722.91
5722.82
5722.79
5722.8
5722.85
5722.91
5723.28
5723.07
5722.94
5722.86
5722.83
5722.84
5722.89
5722.87
5723.2
5723.05
5722.95
5722.89
5722.87
5722.86
5722.88
5722.92
5629.65
5676.56
5674.05
5671.72
5669.91
5668.26
5667.71
5667.87
5625.5
5664.71
5675.53
5672.84
5670.72
5669.31
5667.61
5664.01
5581.23
5635.59
5676.41
5673.79
5671.45
5669.12
5657.97
5656.35
5604.01
5645.59
5675.97
5673.26
5670.8
5664.61
5666.46
5666.71
5594.75
5676.28
5674.08
5669.64
5665.62
5666.36
5656.15
5665.63
5660.59
5674.05
5671.61
5665.72
5656.82
5655.3
5654.66
5665.06
5673.56
5671.55
5669.6
5667.75
5665.93
5664.66
5663.61
5664.79
5571.46
5667.49
5667.54
5667.38
5667.13
5666.05
5666.38
5666.72
5367.01
5623.18
5667.45
5667.54
5667.32
5667.05
5665.63
5664.13
5471.98
5548.58
5668.45
5668.24
5667.77
5666.47
5659.37
5654.35
5432.54
5576.86
5668.54
5668.19
5667.59
5662.2
5664.93
5663.79
5399.47
5663.49
5667.9
5666.65
5666.45
5665.03
5654.71
5664.44
5642.4
5667.76
5667.47
5664.81
5658.41
5654.34
5654.19
5665.27
5667.82
5667.58
5666.97
5666.27
5665.55
5664.38
5663.95
5665.24
5394.28
5657.64
5659.9
5661.56
5662.74
5662.66
5663.66
5664.39
4393.84
5484.27
5658.66
5660.88
5662.26
5662.34
5659.66
5663.15
4050.81
5225.42
5657.8
5660.27
5661.83
5659.66
5658.59
5651.1
4269.94
5307.48
5658.48
5660.63
5662
5657.83
5662.35
5659.61
4775.79
5619.99
5659.8
5661.29
5661.77
5661.85
5651.84
5662.37
5576.22
5659.57
5661.19
5661.08
5658.91
5651.61
5654.35
5664.12
5659.96
5661.26
5662.17
5662.84
5663.14
5662.42
5663.06
5664.38
5240.89
5661.45
5662.55
5663.79
5664.83
5664.76
5665.9
5666.79
3754.96
5366.66
5662.2
5663.32
5664.39
5658.56
5660.45
5666.4
3524.67
4879.26
5660.76
5662.3
5663.65
5654.59
5661.57
5653.2
3472.1
5017.71
5661.15
5662.48
5663.76
5662.15
5665.4
5661.94
4316.16
5572.86
5662.15
5662.73
5662.77
5663.7
5653.74
5664.96
5500.07
5661.73
5662.91
5662.52
5661.32
5653.32
5659.52
5666.59
5661.94
5662.79
5663.75
5664.58
5665.02
5664.2
5665.77
5666.77
5282.66
5674.18
5673.25
5672.98
5672.91
5672.05
5672.98
5673.75
3957.82
5435.52
5674.24
5673.37
5673.12
5661.9
5668.02
5673.97
3515.68
4987.78
5674.18
5673.19
5672.63
5661.89
5670.56
5660.54
3534.75
5105.84
5673.86
5673.03
5672.86
5672.22
5673.44
5670.2
4477.36
5597.15
5673.11
5670.12
5670.89
5670.68
5660.61
5672.46
5519.23
5672.42
5672.15
5669.53
5668.38
5659.87
5667.62
5673.17
5671.95
5671.73
5671.86
5671.91
5671.7
5670.16
5672.14
5672.87
5419.69
5684.52
5682.92
5681.79
5680.9
5679.38
5680.3
5680.84
4834.03
5572.37
5684.5
5682.76
5681.56
5669.48
5675.94
5681.33
4399.13
5359.08
5685.2
5683.36
5680.19
5671.38
5680.43
5673.28
4453.05
5416.99
5685.05
5683.23
5681.09
5681.3
5681.36
5679.83
5060.28
5646.04
5683.65
5679.26
5680.23
5676.14
5668.6
5680.45
5580.24
5683.12
5681.91
5678
5676.2
5667.14
5675.62
5680.23
5682.8
5681.72
5680.94
5680.19
5679.23
5676.94
5679.07
5679.63
5440.46
5687.57
5686.87
5686.11
5685.14
5683.65
5684.93
5685.33
5157.07
5565.75
5687.52
5686.68
5684.82
5673.6
5681.04
5685.56
5278.78
5426.41
5685.23
5687.2
5682.96
5681.66
5685.66
5685.58
5230.67
5463.04
5687.31
5687.11
5683.79
5685.86
5685.7
5685.72
5190.04
5648.45
5687.12
5684.09
5685.59
5673.57
5676.89
5685.27
5594.78
5686.87
5686.17
5683.36
5680.8
5671.54
5681.12
5684.79
5687.1
5686.49
5685.77
5685.07
5683.9
5681.58
5683.8
5684.31
5365.94
5685.4
5686.36
5686.85
5686.17
5685.54
5687.31
5687.72
4641.8
5479.2
5685.74
5686.56
5683.1
5674.9
5683.66
5687.44
4777.12
5242.3
5685.28
5686.65
5683.13
5685.89
5687.42
5687.65
4855.51
5302.64
5685.84
5686.64
5685.16
5687.13
5687.33
5687.56
4855.58
5621.71
5685.97
5686.44
5686.88
5673.51
5682.66
5687.44
5559.63
5686.01
5686.27
5686.14
5682.69
5673.43
5684.48
5687.25
5686.55
5686.95
5686.94
5686.91
5685.86
5684.3
5686.58
5687.09
5247.58
5687.56
5688.47
5689.19
5688.21
5688.26
5690.23
5690.64
3766.57
5378.23
5687.93
5688.82
5681.37
5677.14
5686.56
5690.03
3525.11
4936.55
5687.43
5688.29
5686.46
5688.85
5689.6
5689.84
3599.96
5040.3
5687.59
5688.31
5688.53
5689.33
5689.67
5689.7
4273.35
5573.29
5687.87
5688.53
5689.03
5676.16
5686.52
5690.14
5477.5
5687.45
5687.97
5688.8
5685.21
5675.71
5688.18
5690.09
5687.74
5688.34
5688.71
5689.09
5687.98
5687.9
5689.63
5690.05
5222.27
5694.74
5694.46
5694.51
5692.92
5693.03
5694.84
5695.16
3688.5
5382.03
5695.04
5694.7
5684.85
5681.73
5691.2
5694.56
3163.01
4899.88
5694.74
5694.34
5693.35
5694.26
5688.35
5690.22
3183.52
5001.92
5694.69
5694.22
5694.17
5694.31
5693.71
5693.29
4182.69
5559.32
5694.24
5694.05
5694.09
5683.05
5691.37
5694.86
5438.45
5693.26
5693.48
5693.75
5689.46
5685.19
5693.38
5694.61
5693.29
5693.3
5693.46
5693.67
5692.26
5693.37
5694.17
5694.43
5239.49
5700.7
5700.16
5699.89
5698.06
5698.37
5699.81
5700.04
4054.3
5425.41
5701.25
5700.49
5690.39
5686.73
5696.06
5699.6
3562.83
5027.76
5701.37
5700.59
5699.48
5699.92
5690.14
5693.7
3567.62
5106.2
5701.24
5700.48
5700.12
5700.01
5698.29
5698.11
4378.69
5571.26
5700.63
5700.1
5699.83
5688.64
5696.83
5700.19
5444.69
5699.1
5699.68
5699.51
5694.14
5695.19
5699.01
5699.8
5699.7
5699.4
5699.33
5699.25
5697.67
5699.08
5699.36
5699.52
5239.52
5704.89
5704.64
5704.43
5702.67
5703.39
5704.34
5704.54
4437.84
5421.3
5705.5
5704.96
5694.34
5696.95
5699.32
5704.08
4553.22
5105.33
5702.61
5705.35
5704.18
5704.59
5694.54
5699.3
4274.29
5173.9
5705.93
5705.31
5704.92
5704.76
5703.05
5702.78
4544.92
5572.62
5705.35
5704.92
5703.98
5693.01
5701.93
5704.82
5445.47
5703.54
5704.61
5704.42
5698.86
5700.59
5704.02
5704.52
5704.87
5704.58
5704.43
5704.26
5702.98
5704.08
5704.2
5704.32
5209.32
5707.15
5707.65
5707.91
5706.75
5707.86
5708.49
5708.73
4273.48
5363.15
5707.56
5707.54
5696.64
5702.95
5701.59
5708.2
4429.22
5002.07
5705.31
5707.83
5707.27
5708.1
5698.07
5704.48
4171.15
5099.12
5707.35
5707.84
5708.1
5708.3
5707.6
5706.98
4405.36
5546.05
5707.54
5707.91
5705.54
5696.51
5707
5708.69
5411.66
5705.13
5707.73
5707.98
5703
5705.43
5708.33
5708.66
5707.76
5708
5708.16
5708.23
5707.82
5708.36
5708.51
5708.64
5184.15
5712.01
5712.41
5712.59
5711.81
5712.79
5713.18
5713.46
3769.37
5321.09
5712.28
5711.17
5700.7
5701.46
5705.82
5713.15
3462.64
4816.42
5711.85
5712.16
5711.59
5712.43
5702.29
5709.92
3496.75
4941.45
5711.85
5712.13
5712.39
5712.65
5710.96
5711.89
4056.78
5495.32
5711.88
5712.21
5707.39
5705.27
5712.51
5713.03
5339.16
5707.27
5712.03
5712.34
5709.95
5711.33
5712.97
5713.19
5711.94
5712.22
5712.48
5712.62
5712.61
5712.86
5713.06
5713.22
5190.29
5718.23
5718.27
5718.03
5717.5
5718.15
5718.39
5718.66
3584.57
5333.31
5718.57
5716
5706.01
5706.06
5711.02
5718.73
2933.86
4784.5
5718.5
5718.21
5717.32
5717.83
5707.54
5716.07
3058.97
4893.52
5718.33
5718.11
5718.09
5718.19
5708.56
5717.53
3936.46
5472.09
5718.04
5718
5712.65
5717.04
5717.94
5718.35
5301.53
5710.3
5717.67
5717.82
5715.31
5717.6
5718.25
5718.43
5717.46
5717.64
5717.83
5717.87
5717.77
5717.99
5718.2
5718.35
5248.68
5725.34
5724.8
5723.87
5723.5
5723.68
5723.75
5723.93
3737.45
5391.91
5725.62
5722.05
5712.79
5711.51
5716.67
5724.25
3277.72
4871.14
5726.02
5725.03
5723.76
5723.55
5713.07
5722.36
3261.78
4948.73
5725.91
5724.97
5724.46
5724.23
5713.07
5723.46
4041.68
5482.87
5725.18
5724.56
5718.71
5723.81
5723.63
5723.99
5311.5
5716.96
5724.27
5723.97
5720.07
5723.51
5723.78
5723.89
5724.38
5724.14
5724.01
5723.66
5723.18
5723.49
5723.6
5723.69
5672.73
5670.28
5668.19
5666.54
5665.3
5664.47
5663.97
5663.76
5673.12
5670.03
5667.64
5665.84
5664.5
5663.58
5663.03
5662.79
5672.46
5669.35
5666.86
5665.02
5663.37
5662.69
5662.02
5656.66
5670.98
5668.08
5665.75
5663.98
5662.4
5661.26
5656.93
5654.81
5669.03
5666.56
5664.49
5662.82
5660.99
5654.83
5654.67
5659.47
5667.04
5665.02
5663.37
5662.11
5660.5
5658.81
5658.33
5648.12
5665.25
5663.77
5662.49
5661.47
5660.71
5659.91
5655.05
5647.62
5667.04
5666.52
5666.06
5665.6
5665.21
5664.92
5664.72
5664.62
5667.64
5666.88
5666.14
5665.46
5664.91
5664.5
5664.23
5663.99
5667.62
5666.7
5665.81
5665.04
5664.21
5663.91
5663.51
5658.14
5667.12
5666.16
5665.22
5664.46
5663.54
5662.2
5656.59
5660.41
5666.42
5665.48
5664.54
5663.66
5659.55
5656.49
5658.64
5662.33
5665.59
5664.71
5663.94
5663.3
5662.26
5661.86
5660.41
5650.22
5664.78
5664.09
5663.46
5662.96
5662.59
5661.83
5658.16
5650.67
5659.6
5660.93
5662.05
5662.85
5663.46
5663.85
5664.09
5664.26
5659.89
5661.54
5662.58
5663.21
5663.62
5663.91
5664.08
5663.56
5660.2
5661.67
5662.58
5663.17
5663.39
5663.54
5663.56
5658.52
5660.66
5661.86
5662.62
5663.04
5663.13
5661.39
5657.07
5663.03
5661.26
5662.16
5662.73
5662.79
5657.8
5657.21
5659.51
5663.52
5661.78
5662.41
5662.85
5662.98
5663.01
5663.08
5659.6
5651.68
5662.29
5662.68
5662.97
5663.21
5663.38
5662.78
5659.21
5657.6
5661.91
5662.94
5663.95
5664.82
5665.51
5666.04
5666.44
5666.7
5661.71
5663.13
5664.21
5665.03
5665.65
5666.13
5666.49
5665.21
5661.88
5663.21
5664.26
5665.05
5665.47
5665.68
5664.14
5663.03
5662.3
5663.5
5664.46
5664.75
5664.97
5659.08
5659.5
5666.24
5662.88
5663.92
5664.76
5664.53
5660.13
5664.12
5661.07
5666.26
5663.52
5664.36
5665.01
5665.02
5665.93
5665.72
5655.55
5654.07
5664.2
5664.82
5665.35
5665.78
5666.1
5665.41
5655.36
5660.95
5671.78
5671.6
5671.58
5671.68
5671.83
5672.04
5672.27
5672.47
5671.24
5671.21
5671.3
5671.45
5671.62
5671.8
5672.01
5670.49
5671.17
5671.09
5671.17
5671.19
5671.06
5671.13
5666.27
5670.97
5671.16
5671.07
5671.13
5670.64
5667.83
5661.9
5665.48
5671.43
5671.01
5671
5671.09
5669.36
5669.08
5669.68
5666.06
5664.65
5670.9
5670.97
5670.98
5670.49
5671.18
5669.27
5658.64
5658.73
5670.93
5671.03
5671.14
5671.23
5671.28
5669.99
5658.6
5665.77
5682.42
5681.14
5680.19
5679.54
5679.12
5678.91
5678.89
5678.95
5682.13
5680.71
5679.71
5679.06
5678.65
5678.44
5678.32
5676.7
5681.63
5680.26
5679.31
5678.43
5677.69
5677.71
5672.26
5677.3
5680.93
5679.73
5678.88
5677.7
5671.04
5667.83
5673.01
5677.27
5680.03
5679.09
5678.39
5675.75
5675.94
5674.04
5672.62
5664.95
5679.2
5678.53
5677.82
5676.96
5675.95
5668.53
5664.02
5670.08
5678.59
5678.15
5677.78
5677.48
5677.05
5675.13
5663.86
5666.96
5686.71
5685.77
5685.04
5684.45
5684.04
5683.79
5683.71
5683.67
5686.84
5685.68
5684.81
5684.16
5683.69
5683.4
5683.24
5681.49
5686.45
5685.32
5684.44
5683.5
5682.73
5682.79
5677.03
5682.41
5685.81
5684.8
5684
5682.85
5676.23
5672.52
5678.92
5679.17
5685.07
5684.22
5683.48
5680.75
5680.84
5672.2
5678.76
5669.46
5684.35
5683.67
5682.86
5682.04
5676.72
5672.03
5673.64
5678.25
5683.76
5683.25
5682.82
5682.46
5681.72
5679.59
5669.61
5667.72
5686.27
5686.4
5686.56
5686.61
5686.63
5686.66
5686.71
5686.64
5686.82
5686.87
5686.82
5686.71
5686.61
5686.55
5686.49
5685.27
5686.96
5686.88
5686.73
5686.27
5686.12
5681.98
5681.99
5685.95
5686.87
5686.74
5686.57
5686.02
5681.68
5675.76
5684.35
5675.44
5686.77
5686.6
5686.37
5684.34
5683.99
5675.61
5684.1
5672.93
5686.63
5686.43
5686.03
5685.43
5678.63
5679.33
5684
5683.74
5686.51
5686.32
5686.15
5686
5685.41
5682.46
5678.47
5671.28
5687.49
5688.06
5688.6
5689
5689.31
5689.55
5689.74
5689.71
5687.79
5688.5
5688.94
5689.22
5689.41
5689.57
5689.59
5689.71
5688.1
5688.63
5688.97
5688.89
5689.36
5680.48
5687.7
5689.02
5688.33
5688.74
5689.01
5688.94
5687.86
5678.81
5688.55
5677.94
5688.58
5688.87
5689.03
5688.56
5685.98
5678.79
5689.23
5681.37
5688.79
5688.97
5689.03
5688.46
5681.81
5685.84
5687.56
5687.32
5688.98
5689.08
5689.18
5689.21
5688.99
5684.06
5683.46
5674.62
5693
5693.07
5693.24
5693.45
5693.65
5693.84
5694.03
5694.05
5692.63
5692.99
5693.23
5693.43
5693.6
5693.76
5693.76
5694.04
5692.69
5692.94
5693.17
5693.05
5693.51
5689.43
5693.56
5688.04
5692.76
5692.97
5693.17
5693.21
5693.43
5689.15
5693.19
5681.9
5692.84
5693.01
5693.13
5693.34
5687.82
5683.53
5693.44
5692.71
5692.89
5693.04
5693.2
5692.2
5685.77
5690.43
5680.34
5688.29
5692.99
5693.11
5693.25
5693.14
5693.42
5687.32
5686.94
5678.42
5699.5
5699.12
5698.92
5698.86
5698.87
5698.95
5699.07
5699.18
5699.14
5698.89
5698.75
5698.71
5698.71
5698.77
5698.71
5698.98
5699.04
5698.76
5698.63
5698.52
5698.57
5698.63
5698.56
5687.8
5698.86
5698.63
5698.52
5698.47
5698.5
5698.49
5698.21
5688.31
5698.63
5698.46
5698.36
5698.4
5690.63
5693.67
5698.27
5698.37
5698.39
5698.32
5698.32
5695.46
5693.66
5695.22
5682.97
5683.78
5698.28
5698.27
5698.25
5697.85
5698.36
5692.02
5691.55
5682.86
5704.65
5704.24
5704.02
5703.89
5703.85
5703.87
5703.95
5704.04
5704.69
5704.25
5703.98
5703.83
5703.75
5703.74
5703.66
5701.23
5704.56
5704.13
5703.87
5703.7
5703.62
5703.61
5703.29
5692.37
5704.29
5703.94
5703.72
5703.59
5703.53
5703.28
5703.06
5699.18
5703.99
5703.73
5703.57
5703.48
5695.34
5701.46
5703.19
5703.27
5703.72
5703.56
5703.47
5699.09
5701.11
5699.93
5687.55
5687.44
5703.57
5703.49
5703.31
5702.87
5703.16
5696.82
5697.89
5687.44
5707.75
5707.82
5707.98
5708.09
5708.19
5708.3
5708.41
5708.52
5708.23
5708.21
5708.23
5708.24
5708.26
5708.31
5708.3
5701.04
5708.38
5708.3
5708.25
5708.22
5708.22
5708.26
5707.17
5696.79
5708.35
5708.27
5708.21
5708.18
5705.96
5706.67
5707.75
5706.84
5708.3
5708.22
5708.17
5708.08
5699.85
5706.14
5707.92
5708
5708.25
5708.19
5708.15
5703.71
5705.69
5702.93
5692.94
5692.09
5708.25
5708.21
5707.99
5707.72
5707.17
5701.48
5706.28
5697.91
5712.02
5712.19
5712.42
5712.6
5712.75
5712.89
5713.04
5713.15
5712.34
5712.5
5712.64
5712.74
5712.83
5712.93
5712.94
5706.37
5712.44
5712.55
5712.64
5712.73
5712.72
5712.91
5711.16
5702.46
5712.43
5712.54
5712.63
5712.71
5704.73
5709.34
5712.58
5712.77
5712.49
5712.59
5712.65
5711.84
5704.3
5710.65
5711.21
5709.66
5712.58
5712.65
5712.7
5708.23
5710.18
5705.33
5702.55
5696.52
5712.69
5712.72
5712.56
5712.65
5709.86
5708.34
5713
5709.51
5717.62
5717.63
5717.68
5717.76
5717.85
5717.96
5718.1
5718.22
5717.29
5717.45
5717.58
5717.69
5717.8
5717.91
5717.85
5716.03
5717.28
5717.42
5717.54
5717.65
5717.08
5717.74
5716.36
5716
5717.26
5717.41
5717.53
5717.62
5709.05
5713.68
5717.82
5718
5717.32
5717.44
5717.53
5713.09
5709.02
5715.34
5707.59
5705.75
5717.39
5717.48
5717.56
5714.1
5715.17
5709.99
5713.42
5702.32
5717.47
5717.53
5717.39
5717.64
5713.89
5716.12
5715.32
5715.33
5724.48
5723.99
5723.65
5723.45
5723.36
5723.33
5723.39
5723.46
5724.01
5723.61
5723.37
5723.24
5723.18
5723.18
5722.54
5723.31
5723.77
5723.43
5723.22
5723.1
5722.07
5722.27
5722.3
5723.16
5723.5
5723.25
5723.08
5722.98
5714.13
5719.25
5722.94
5723.04
5723.26
5723.07
5722.96
5715.85
5714.6
5720.05
5710.19
5710.27
5723.04
5722.93
5722.85
5721.63
5720.47
5714.89
5721.03
5717.22
5722.89
5722.82
5722.73
5722.74
5718.84
5721.5
5704.65
5719.92
5661.53
5660.12
5658.9
5657.87
5657.1
5656.59
5656.32
5656.22
5664.1
5661.98
5659.8
5658.21
5657.78
5657.28
5656.97
5656.88
5666.63
5664.42
5661.97
5657.67
5654.78
5656.92
5657.86
5657.46
5631.63
5667.19
5664.24
5661.88
5660.24
5658.91
5658.88
5658.47
5665.7
5663.29
5659.2
5659.99
5659.91
5659.82
5660.7
5660.66
5668.36
5666.68
5665.1
5663.78
5662.76
5662.05
5661.61
5661.37
5671.16
5668.79
5666.73
5665.07
5663.78
5662.96
5662.44
5662.1
5674.01
5671.48
5668.82
5664.83
5660.9
5663.54
5663.54
5663.15
5665.8
5674.03
5671.15
5668.52
5665.26
5664.94
5664.74
5664.09
5625.76
5675.88
5672.83
5670.18
5668.07
5666.77
5665.94
5665.6
5635.87
5676.55
5673.4
5670.66
5666.46
5667.63
5666.9
5666.61
5672.63
5676.48
5673.61
5671.16
5667.77
5668.1
5667.57
5667.34
5665.9
5665.27
5664.6
5664.04
5663.59
5663.27
5663.05
5662.9
5666.74
5666.02
5665.29
5664.64
5664.1
5663.76
5663.51
5663.13
5667.42
5666.9
5666.18
5664.07
5660.36
5664.11
5664.15
5663.79
5645.46
5667.45
5666.9
5666.08
5661.13
5664.36
5664.79
5664.31
5542.59
5667.71
5667.45
5666.81
5666.21
5665.76
5665.45
5665.29
5547.57
5667.49
5667.51
5666.93
5666.67
5666.3
5666.04
5665.93
5647.43
5667.03
5667.11
5666.91
5666.45
5666.51
5666.39
5666.33
5661.13
5661.82
5662.33
5662.75
5663.08
5663.31
5663.45
5663.53
5659.72
5660.9
5661.75
5662.41
5662.89
5663.24
5663.43
5663.28
5657.8
5659.77
5661.14
5660.65
5659.87
5663.05
5663.46
5663.37
5569.75
5658.24