/*--------------------------------*- C++ -*----------------------------------*\
| =========                 |                                                 |
| \\      /  F ield         | OpenFOAM: The Open Source CFD Toolbox           |
|  \\    /   O peration     | Version:  plus.master.MPPICInterFoam            |
|   \\  /    A nd           | Web:      www.OpenFOAM.com                      |
|    \\/     M anipulation  |                                                 |
\*---------------------------------------------------------------------------*/
FoamFile
{
    version     2.0;
    format      ascii;
    class       volVectorField;
    location    "9.6";
    object      U;
}
// * * * * * * * * * * * * * * * * * * * * * * * * * * * * * * * * * * * * * //

dimensions      [0 1 -1 0 0 0 0];

internalField   nonuniform List<vector> 
11821
(
(0.0184383 0.00486288 0.454874)
(0.0257815 0.0156633 0.551506)
(0.0168666 0.0104346 0.441332)
(0.022126 0.030868 0.603459)
(0.0176846 0.0207259 0.50503)
(0.0129922 0.0138304 0.407642)
(-0.0168146 -0.00845205 0.572806)
(-0.0141743 -0.0112876 0.59033)
(-0.00948247 -0.0109407 0.575089)
(-0.00595542 -0.00725157 0.529929)
(-0.0047757 -0.00437044 0.465116)
(-0.00421723 -0.00273095 0.390992)
(-0.00365371 -0.0016149 0.315097)
(-0.0230574 -0.0134759 0.677541)
(-0.0179194 -0.018545 0.704924)
(-0.00858548 -0.0179306 0.687976)
(-0.00274205 -0.0113148 0.628878)
(-0.00246638 -0.00589908 0.548205)
(-0.00287927 -0.00320486 0.458365)
(-0.00286727 -0.00180372 0.36848)
(-0.0311616 -0.0191349 0.777332)
(-0.0210132 -0.0250366 0.846576)
(-0.00460767 -0.0223265 0.829876)
(0.00404571 -0.0132212 0.725941)
(0.003318 -0.00639371 0.62332)
(0.000307019 -0.00257535 0.517826)
(-0.00106518 -0.00109965 0.414385)
(-0.0398833 -0.0102154 0.871754)
(-0.0240978 -0.0166459 1.14586)
(0.00314016 -0.0133074 1.14388)
(0.0130085 -0.00547456 0.821366)
(0.0106321 -0.000947278 0.678806)
(0.00452594 0.00101126 0.559565)
(0.00108821 0.00117562 0.446066)
(-0.041973 0.0112589 0.904427)
(-0.0231784 0.0133059 1.20941)
(0.0053318 0.0134981 1.18241)
(0.0143529 0.0114589 0.846952)
(0.0125679 0.00944689 0.69613)
(0.00585714 0.00667756 0.573189)
(0.00194216 0.0044619 0.456984)
(-0.0366052 0.026636 0.822792)
(-0.020894 0.0340345 0.923167)
(0.000393388 0.0325868 0.909609)
(0.00946795 0.024402 0.78086)
(0.00822685 0.0165287 0.667307)
(0.00333443 0.0109888 0.555013)
(0.00134112 0.00695246 0.444844)
(-0.0262831 0.0277471 0.734477)
(-0.0176892 0.036091 0.776824)
(-0.00483045 0.0349544 0.765308)
(0.00142862 0.0256994 0.69811)
(0.000957154 0.0168843 0.610085)
(0.000320179 0.0116042 0.5116)
(0.000516784 0.00751753 0.412307)
(-0.00790896 0.0150114 0.576422)
(-0.0123178 0.0170189 0.591854)
(-0.0141457 0.0155971 0.574116)
(-0.0149541 0.0132469 0.527231)
(-0.0145603 0.00953496 0.46068)
(-0.0125918 0.00631896 0.3857)
(-0.0102777 0.00422104 0.310098)
(-0.0107659 0.0185773 0.690751)
(-0.0165646 0.0178572 0.708984)
(-0.0179983 0.0155469 0.687794)
(-0.0193042 0.0150803 0.629635)
(-0.0193688 0.0110517 0.545529)
(-0.0161673 0.0069679 0.45304)
(-0.0125522 0.00418086 0.36262)
(-0.0159763 0.00936264 0.79379)
(-0.022248 -0.00137012 0.845976)
(-0.0191113 -0.00130729 0.814985)
(-0.019713 0.0103023 0.723021)
(-0.0227424 0.00964362 0.622003)
(-0.0191933 0.0066002 0.512732)
(-0.0142677 0.00403098 0.407797)
(-0.0310577 0.00439155 0.874066)
(-0.0350643 -0.00115081 0.967052)
(-0.0125988 -4.16628e-05 0.927231)
(-0.00822567 0.00854267 0.798546)
(-0.022335 0.0083763 0.67413)
(-0.0204729 0.00593412 0.554321)
(-0.0150647 0.00368761 0.439034)
(-0.0331435 0.0146306 0.920009)
(-0.0338978 0.0237923 0.98801)
(-0.0116609 0.0260884 0.990935)
(-0.00658414 0.0127558 0.819446)
(-0.0225831 0.00852976 0.692115)
(-0.0209879 0.00544286 0.568585)
(-0.0150211 0.00323617 0.450117)
(-0.0175027 0.0119465 0.829119)
(-0.0241942 0.02418 0.909567)
(-0.0188578 0.025817 0.894986)
(-0.0199063 0.00971548 0.784075)
(-0.0241383 0.00557479 0.670797)
(-0.0204131 0.00369506 0.551808)
(-0.0139485 0.0023216 0.438575)
(-0.0103387 -0.00373943 0.760386)
(-0.0172485 0.00115892 0.788472)
(-0.019581 0.00240187 0.776276)
(-0.0221579 -0.00112716 0.71091)
(-0.0223725 -0.000683303 0.612907)
(-0.0170336 0.000821474 0.508009)
(-0.0111023 0.000508356 0.40654)
(-0.00298208 0.0173284 0.568889)
(-0.00888576 0.0233038 0.584135)
(-0.013853 0.0218232 0.564713)
(-0.0161496 0.0169895 0.515605)
(-0.0153761 0.0114947 0.447942)
(-0.0128241 0.00717137 0.373963)
(-0.0100555 0.00439979 0.300759)
(-0.00334618 0.0250165 0.719203)
(-0.0125087 0.0316745 0.740035)
(-0.020294 0.0292049 0.712701)
(-0.0240937 0.0226951 0.633122)
(-0.022309 0.0147658 0.534873)
(-0.0174748 0.00849598 0.439466)
(-0.0128285 0.00457316 0.350821)
(-0.0104519 0.0232377 0.912591)
(-0.019501 0.0251806 0.9644)
(-0.0226485 0.0260628 0.924502)
(-0.0286089 0.0213828 0.765716)
(-0.0293509 0.0153475 0.62194)
(-0.0222678 0.00859133 0.498715)
(-0.0153372 0.00447487 0.39399)
(-0.0198539 0.0139928 0.998464)
(-0.0281994 0.0124042 0.971499)
(-0.0255596 0.0150453 0.958917)
(-0.0325745 0.0147455 0.885855)
(-0.0355221 0.0113846 0.685453)
(-0.0264196 0.00653076 0.54053)
(-0.0172223 0.00340131 0.423891)
(-0.0192186 0.0104412 0.956041)
(-0.0301648 0.0138899 1.01029)
(-0.0242818 0.0150237 0.979165)
(-0.030798 0.00967152 0.921716)
(-0.0370213 0.00474209 0.708504)
(-0.0271941 0.00276468 0.555181)
(-0.0171999 0.00147522 0.434643)
(-0.00793502 0.000839279 1.01048)
(-0.0222928 0.00539641 1.04791)
(-0.0264756 0.00804896 1.02766)
(-0.0300671 0.000925617 0.855081)
(-0.0320093 -0.00216436 0.687588)
(-0.0229937 -0.000677947 0.538439)
(-0.0145073 -0.000252131 0.423824)
(-0.0011674 -0.0142446 0.835276)
(-0.014951 -0.0156266 0.890067)
(-0.0248902 -0.014306 0.873478)
(-0.0282981 -0.0122052 0.755332)
(-0.0244311 -0.00646466 0.611604)
(-0.0171246 -0.00259996 0.49452)
(-0.0105165 -0.00161834 0.393358)
(-0.00478764 -0.000802914 0.557109)
(-0.00651714 0.00472591 0.570547)
(-0.00899912 0.0036529 0.550613)
(-0.0086091 0.0014831 0.501905)
(-0.00659183 0.000375667 0.435676)
(-0.00480993 -0.00043733 0.364557)
(-0.00333339 -0.000773714 0.294496)
(-0.00567428 0.00324049 0.712895)
(-0.00834664 0.0147746 0.744686)
(-0.013275 0.0106241 0.710287)
(-0.0125548 0.00484872 0.620328)
(-0.00888497 0.00220352 0.519534)
(-0.00589551 0.00036211 0.426321)
(-0.00373698 -0.000629619 0.341681)
(-0.0135922 0.00842704 0.917644)
(-0.013711 0.0205947 0.950238)
(-0.013881 0.0200115 0.903561)
(-0.0153297 0.00858139 0.776591)
(-0.0108365 0.00484873 0.607218)
(-0.00659582 0.00172098 0.482693)
(-0.00375888 2.50089e-05 0.382267)
(-0.0111598 0.00851893 1.03237)
(-0.0189388 0.00859751 0.981426)
(-0.0261375 0.0150272 1.00089)
(-0.0262121 0.00557807 0.902797)
(-0.0157006 0.00515098 0.676715)
(-0.00830994 0.00227211 0.522645)
(-0.00400643 0.000568213 0.410406)
(-0.0155417 0.00176989 1.06605)
(-0.0191193 0.00113842 1.01629)
(-0.0189248 0.00313374 0.969221)
(-0.025058 0.00255805 0.940184)
(-0.018393 0.000636218 0.701645)
(-0.00870375 0.000697852 0.536449)
(-0.00351811 0.000262905 0.420608)
(-0.0113289 -0.00333095 1.02026)
(-0.0151515 -0.00270223 1.0646)
(-0.0149656 -0.00368356 1.02675)
(-0.0121441 0.00316527 0.905096)
(-0.00846595 -0.000719727 0.673269)
(-0.00344529 0.000562664 0.520911)
(-0.000682708 0.000549872 0.411028)
(-0.00791735 0.00110857 0.835987)
(-0.0113208 -0.00202748 0.928434)
(-0.0123085 -0.00216648 0.890506)
(-0.00826391 0.00255944 0.745426)
(-0.00355239 0.00307879 0.594978)
(-0.000623245 0.00291368 0.479542)
(0.00133351 0.00172207 0.383117)
(-0.00894284 -0.0158248 0.551143)
(-0.00642019 -0.0134648 0.562547)
(-0.00470683 -0.0140877 0.542095)
(-0.00121731 -0.0126764 0.494263)
(0.00130389 -0.00947097 0.430768)
(0.00207255 -0.00696984 0.362499)
(0.00227804 -0.0051228 0.294514)
(-0.0105183 -0.01568 0.690857)
(-0.00713917 -0.00711811 0.721364)
(-0.00610122 -0.0117807 0.686313)
(-0.000473723 -0.0129401 0.601301)
(0.00364791 -0.00964418 0.508161)
(0.00423218 -0.00694172 0.420861)
(0.00386298 -0.00509799 0.339882)
(-0.0127913 -0.00765184 0.908231)
(-0.00697046 0.00868151 0.950353)
(-0.00722277 -0.000448097 0.895431)
(-0.000252039 -0.00791662 0.743656)
(0.00717495 -0.006544 0.587336)
(0.00741873 -0.00499869 0.473583)
(0.00607468 -0.00393262 0.378598)
(-0.00329358 -0.000759916 1.04933)
(-0.00917558 0.0100611 1.08831)
(-0.0193284 0.00668459 1.03557)
(-0.00658431 -0.00318584 0.873323)
(0.0076838 -0.00139559 0.651733)
(0.0091533 -0.00151749 0.511111)
(0.00772166 -0.00174388 0.405419)
(-0.00608944 -0.00218603 1.0738)
(-0.00935932 -0.001115 0.997876)
(-0.0195057 -0.00329265 1.05385)
(-0.0131389 -0.00209505 0.917477)
(0.00470953 0.000583569 0.67389)
(0.00913613 0.000949078 0.52407)
(0.00849292 0.000268357 0.415288)
(-0.013606 0.00305671 1.01601)
(-0.0078791 -0.00704939 1.05001)
(-0.00911629 -0.00678103 1.01333)
(0.00194744 0.00633289 0.861065)
(0.0124152 0.00503795 0.644803)
(0.0121566 0.00420605 0.509732)
(0.00996624 0.00255291 0.406611)
(-0.0140274 0.0159336 0.803859)
(-0.00627101 0.0113216 0.883726)
(-0.000472889 0.0132243 0.83711)
(0.00739359 0.0179903 0.705872)
(0.0118751 0.0127076 0.576407)
(0.0112309 0.00859635 0.472074)
(0.00976237 0.0050592 0.380755)
(-0.0111069 -0.0171654 0.55027)
(-0.00723455 -0.0175441 0.55882)
(-0.00341445 -0.0167759 0.53793)
(0.000291574 -0.0135424 0.491959)
(0.00216982 -0.00982284 0.430924)
(0.00261168 -0.00715918 0.364192)
(0.00265138 -0.00527803 0.29703)
(-0.0140732 -0.0196401 0.662088)
(-0.00799549 -0.0177253 0.683097)
(-0.00276478 -0.0179533 0.653442)
(0.00274538 -0.0154759 0.584922)
(0.00507654 -0.0106583 0.503151)
(0.00483969 -0.00737759 0.420512)
(0.00416999 -0.00535495 0.341392)
(-0.0163854 -0.0154403 0.813015)
(-0.00580752 -0.00810904 0.893838)
(-0.000994853 -0.0111185 0.83187)
(0.005929 -0.0118042 0.686463)
(0.0100472 -0.00859612 0.571608)
(0.00833128 -0.00583606 0.470307)
(0.00638196 -0.00436186 0.378868)
(-0.011293 -0.00539353 0.995803)
(-0.00136717 0.0045911 1.07578)
(-0.00430741 -0.000459605 0.999798)
(0.00528363 -0.00429526 0.791494)
(0.01281 -0.00302601 0.623086)
(0.0111529 -0.00217151 0.505385)
(0.0082905 -0.00210251 0.404674)
(-0.00528287 0.000715825 1.02757)
(-0.00103394 -0.00239026 1.12331)
(-0.0108918 -0.00100504 1.04377)
(0.00125779 0.00169003 0.821315)
(0.0126156 0.00263679 0.640493)
(0.0118669 0.00188562 0.517547)
(0.00917255 0.00051744 0.41425)
(-0.0173611 0.0110704 0.924292)
(-0.0038008 -0.000749552 1.0289)
(-0.00058593 0.00695783 0.961818)
(0.00783116 0.010854 0.761743)
(0.0142934 0.00872867 0.617526)
(0.0121583 0.00585293 0.504472)
(0.00953094 0.00301545 0.406064)
(-0.0150162 0.0214289 0.740146)
(-0.00578656 0.0199053 0.786669)
(0.0012527 0.022276 0.754934)
(0.00811906 0.0203546 0.663876)
(0.0109109 0.0139172 0.56482)
(0.00995462 0.00898073 0.470114)
(0.00894928 0.00489022 0.381522)
(-0.00968829 -0.00636504 0.551781)
(-0.0082629 -0.00690229 0.558063)
(-0.00569317 -0.00659106 0.535899)
(-0.00337934 -0.00499014 0.490203)
(-0.00205259 -0.00393482 0.43005)
(-0.00106457 -0.00330201 0.364091)
(-0.000322191 -0.00280699 0.297681)
(-0.0138198 -0.00723556 0.660183)
(-0.0110786 -0.00856186 0.674617)
(-0.00652977 -0.00850595 0.645854)
(-0.00319122 -0.00571797 0.580048)
(-0.00185317 -0.00412726 0.500394)
(-0.000872019 -0.00335597 0.419205)
(-0.000130464 -0.00296906 0.341113)
(-0.0187135 -0.00864536 0.780891)
(-0.0122726 -0.00921908 0.844655)
(-0.00462214 -0.00846263 0.794143)
(-0.000292413 -0.00543223 0.674921)
(0.000134769 -0.00350196 0.565932)
(0.000309851 -0.00267499 0.467438)
(0.000690025 -0.0025254 0.377551)
(-0.0231035 -0.00378897 0.888459)
(-0.0107551 -0.00381029 1.05393)
(-0.00146756 -0.00364088 0.980007)
(0.00251949 -0.000920993 0.764935)
(0.00259628 -0.000397649 0.614205)
(0.00183733 -0.000575891 0.501128)
(0.00169595 -0.00128545 0.402475)
(-0.0248487 0.00495721 0.917891)
(-0.0121825 0.00508882 1.1143)
(-0.00212012 0.00507439 1.02831)
(0.00238019 0.00540063 0.793248)
(0.00267188 0.00388652 0.630367)
(0.00226641 0.00210842 0.513053)
(0.00225601 0.000277467 0.411748)
(-0.021935 0.0128984 0.839557)
(-0.0112224 0.0156826 0.938274)
(-0.00223066 0.0149985 0.891944)
(0.0014517 0.0104994 0.73797)
(0.00199417 0.00711919 0.610581)
(0.00198965 0.00415626 0.500654)
(0.00262451 0.00149404 0.403836)
(-0.0147502 0.0150199 0.736749)
(-0.0100474 0.0183675 0.770029)
(-0.0048942 0.0175135 0.742247)
(-0.00158093 0.0120254 0.658452)
(-0.000128411 0.00782722 0.561068)
(0.00162082 0.00490915 0.467822)
(0.00325589 0.00188934 0.379999)
(-0.00606826 0.00344715 0.550482)
(-0.00777685 0.00480295 0.554625)
(-0.00770225 0.00374272 0.531028)
(-0.00685132 0.00266945 0.485086)
(-0.00560968 0.00102309 0.425285)
(-0.00398926 -0.000200068 0.360268)
(-0.00259863 -0.000901589 0.295297)
(-0.0103365 0.00708776 0.665477)
(-0.0125809 0.00634457 0.671291)
(-0.0114626 0.00444766 0.639932)
(-0.00985049 0.00393781 0.574265)
(-0.00809032 0.00166198 0.494514)
(-0.00553254 -2.95738e-05 0.413987)
(-0.00344077 -0.00111946 0.337328)
(-0.0171031 0.00483156 0.790972)
(-0.0188114 -0.000536285 0.829158)
(-0.0134003 -0.001147 0.778256)
(-0.0102754 0.00250844 0.666932)
(-0.00945098 0.00149281 0.558707)
(-0.0064176 7.39132e-05 0.460937)
(-0.00378481 -0.00110376 0.372521)
(-0.029256 0.00282623 0.877372)
(-0.0305191 0.000415046 0.988373)
(-0.0128405 -0.000649737 0.925959)
(-0.00671533 0.00309036 0.747872)
(-0.00905508 0.00209465 0.604853)
(-0.00652219 0.000563057 0.493502)
(-0.00368643 -0.00084902 0.396521)
(-0.0323184 0.00865833 0.924698)
(-0.0309054 0.0137219 0.991698)
(-0.0139995 0.0122851 0.95947)
(-0.00662339 0.00643946 0.776309)
(-0.00953883 0.00328677 0.621322)
(-0.00665599 0.00119522 0.505225)
(-0.00337775 -0.000580793 0.405435)
(-0.0199233 0.00781851 0.834024)
(-0.0223729 0.0150072 0.918398)
(-0.0146873 0.0139376 0.87524)
(-0.0102533 0.005955 0.732627)
(-0.0101289 0.00296979 0.604544)
(-0.00605845 0.0011661 0.49346)
(-0.00245365 -0.000599892 0.397703)
(-0.0108898 0.000158375 0.752222)
(-0.0139146 0.0036214 0.778311)
(-0.0136787 0.00393417 0.750144)
(-0.0116124 0.000883112 0.660457)
(-0.00848251 0.00102023 0.555751)
(-0.0041267 0.000504944 0.461195)
(-0.00053594 -0.00109307 0.374475)
(-0.00236333 0.00208586 0.54444)
(-0.0046383 0.00648454 0.548167)
(-0.00638273 0.00493762 0.523692)
(-0.0061575 0.00288588 0.477489)
(-0.0048728 0.000887178 0.418359)
(-0.00327975 -0.000473331 0.354937)
(-0.00195153 -0.00124499 0.292039)
(-0.00463549 0.00587984 0.674984)
(-0.00848545 0.0118072 0.67851)
(-0.0108658 0.00777505 0.642794)
(-0.00998512 0.00486327 0.568822)
(-0.00757109 0.00173041 0.486379)
(-0.0048177 -0.000278852 0.406682)
(-0.00273961 -0.00148707 0.332225)
(-0.0130974 0.00600682 0.850022)
(-0.0159932 0.00937984 0.87038)
(-0.0124933 0.00440049 0.803618)
(-0.0115246 0.00435402 0.674524)
(-0.00937441 0.00195463 0.55142)
(-0.00581229 -0.000119224 0.45213)
(-0.00308486 -0.00149635 0.365835)
(-0.0221655 0.00375485 0.975047)
(-0.0221032 0.00503465 0.934097)
(-0.0142458 0.00171877 0.887243)
(-0.0109157 0.00226103 0.760564)
(-0.0104517 0.00174027 0.599087)
(-0.00654513 -2.42613e-05 0.48366)
(-0.00316318 -0.00148062 0.3887)
(-0.0221572 0.00468528 0.953474)
(-0.0249569 0.00784941 0.970982)
(-0.0166234 0.00490009 0.908665)
(-0.0128786 0.00232406 0.79162)
(-0.0119899 0.000677493 0.615614)
(-0.00697436 -0.000535947 0.49485)
(-0.00288236 -0.00173985 0.397072)
(-0.0155008 0.00191627 0.964572)
(-0.019822 0.00378438 0.977338)
(-0.0156152 0.00417666 0.911954)
(-0.0116608 0.000685868 0.75918)
(-0.00944659 -0.000801869 0.598813)
(-0.00483647 -0.00115126 0.483109)
(-0.00131781 -0.0020199 0.389538)
(-0.00580456 -0.00260717 0.781655)
(-0.010622 -0.00325231 0.821982)
(-0.011988 -0.00358142 0.776569)
(-0.00980907 -0.00308307 0.661149)
(-0.00614409 -0.00143296 0.546632)
(-0.00219367 -0.00118904 0.45145)
(0.000830768 -0.0022144 0.367315)
(-0.0012187 -0.00579714 0.539042)
(-0.00183465 -0.00093736 0.541339)
(-0.00317606 -0.00214511 0.517038)
(-0.00234986 -0.00278767 0.471449)
(-0.00115203 -0.00298364 0.413461)
(-0.000195707 -0.0030671 0.351688)
(0.00051912 -0.00302882 0.290683)
(-0.00151844 -0.00495793 0.665736)
(-0.00252262 0.004404 0.673797)
(-0.00542034 -9.5445e-05 0.635489)
(-0.00396197 -0.00197702 0.560513)
(-0.00180456 -0.00271593 0.479122)
(-0.000342375 -0.00311861 0.401351)
(0.000589371 -0.00332172 0.329237)
(-0.0068898 -0.00358596 0.852807)
(-0.00429948 0.00859282 0.862142)
(-0.00346333 0.0027944 0.804019)
(-0.00370162 -0.000400291 0.665672)
(-0.00136346 -0.00174331 0.542228)
(0.000154411 -0.002618 0.44499)
(0.00112785 -0.00315553 0.361438)
(-0.00335071 -0.000355662 0.969745)
(-0.00527693 0.00183718 0.929454)
(-0.00743082 0.00075791 0.902162)
(-0.00626098 -0.00114658 0.758087)
(-0.00203129 -0.000925804 0.589267)
(0.000253827 -0.00189209 0.475233)
(0.00161828 -0.00273243 0.383273)
(-0.00714763 -0.000464621 0.994148)
(-0.00676866 -0.00102084 0.96228)
(-0.00700801 -0.00410229 0.893953)
(-0.00881658 -0.00309801 0.784795)
(-0.00344422 -0.00166969 0.605467)
(0.000246298 -0.00180898 0.48572)
(0.00219166 -0.00251511 0.391194)
(-0.00894418 0.00145609 0.937249)
(-0.0051827 -0.00214784 0.964968)
(-0.00360057 -0.00654732 0.899754)
(-0.00223198 -0.00191179 0.74724)
(0.000834995 -0.00135082 0.586641)
(0.00257061 -0.00130891 0.474283)
(0.00362919 -0.00212843 0.383998)
(-0.00414071 0.00534862 0.766591)
(-0.00169296 0.00159696 0.807011)
(-0.00168115 -0.00050445 0.760713)
(-6.42256e-05 0.00129566 0.647796)
(0.00226603 0.000904077 0.535745)
(0.00380407 -3.59271e-06 0.44372)
(0.00487458 -0.00152897 0.362724)
(-0.00222842 -0.00873672 0.5364)
(-0.00161171 -0.0062083 0.538437)
(-0.00140794 -0.00689205 0.513992)
(1.91894e-05 -0.00612835 0.468765)
(0.00100853 -0.00519941 0.411745)
(0.00157673 -0.00458519 0.351242)
(0.00194414 -0.00408682 0.291505)
(-0.00202952 -0.00925757 0.655299)
(-0.00136787 -0.00305151 0.666446)
(-0.00211179 -0.00679951 0.6282)
(0.000119027 -0.00635437 0.554554)
(0.00159627 -0.00543853 0.47523)
(0.00219683 -0.00484085 0.399374)
(0.00249885 -0.00444693 0.328932)
(-0.00311396 -0.00778896 0.828022)
(0.00142591 0.00251263 0.859622)
(0.000937779 -0.0031383 0.795656)
(0.00206203 -0.00449235 0.654565)
(0.00349958 -0.00445099 0.535934)
(0.0036158 -0.00431455 0.441571)
(0.00356154 -0.00423618 0.360125)
(0.00396488 -0.00587484 0.955053)
(0.00471394 0.000113776 0.978516)
(-0.00208611 -0.000494803 0.918566)
(1.60054e-05 -0.00250633 0.747247)
(0.00418706 -0.00279516 0.581212)
(0.00458177 -0.003109 0.470729)
(0.00451102 -0.00352588 0.381198)
(0.00604919 -0.00317244 0.999334)
(0.00642377 -0.00267776 0.949611)
(-0.000740963 -0.00432142 0.953358)
(-0.00173951 -0.00308473 0.773057)
(0.00403527 -0.00193438 0.596211)
(0.00508603 -0.00207625 0.480662)
(0.00523243 -0.0027736 0.388717)
(-0.00427639 0.00400319 0.916796)
(0.00447565 -0.00337856 0.946664)
(0.00436661 -0.00307881 0.889868)
(0.00397393 -0.000525073 0.72603)
(0.00633742 -6.70606e-05 0.576369)
(0.00630293 -0.000694349 0.469155)
(0.00612406 -0.00188501 0.381509)
(-0.00253608 0.00700576 0.742362)
(0.00115601 0.00296198 0.778959)
(0.00155406 0.00507862 0.733596)
(0.00403827 0.00466913 0.630158)
(0.00571387 0.00262976 0.527824)
(0.00625483 0.000908503 0.439421)
(0.00660704 -0.00102892 0.3607)
(-0.00313401 -0.00621056 0.534786)
(-0.00257764 -0.00578154 0.536355)
(-0.0015259 -0.00589555 0.511784)
(-0.000189321 -0.00506653 0.466989)
(0.000681735 -0.00453782 0.410829)
(0.00131907 -0.00423895 0.351314)
(0.00175956 -0.00391464 0.292621)
(-0.00413741 -0.00564986 0.649037)
(-0.00348257 -0.00499086 0.657826)
(-0.00223923 -0.0061663 0.621445)
(-0.000237852 -0.00540164 0.550365)
(0.000890044 -0.004785 0.472636)
(0.00168448 -0.00454252 0.398182)
(0.00218225 -0.00433404 0.329056)
(-0.00494919 -0.00398832 0.795014)
(-0.00185888 -0.00224278 0.844518)
(-0.000927991 -0.00402278 0.773284)
(0.00159104 -0.0044024 0.643947)
(0.00254531 -0.00426562 0.53138)
(0.00285027 -0.00423291 0.4391)
(0.00311575 -0.00426011 0.359317)
(-0.00322184 -0.00340327 0.904535)
(0.000822043 -0.000325797 0.981903)
(-0.00162315 -0.00123159 0.910838)
(0.00161756 -0.00185456 0.727211)
(0.00362114 -0.0026907 0.574602)
(0.00388792 -0.00316733 0.467257)
(0.00402197 -0.00365738 0.379648)
(-0.00366755 -0.00209 0.889756)
(0.00241593 -0.00290765 1.00206)
(-0.00403828 -0.00199235 0.944667)
(-0.00122626 -0.00144015 0.753099)
(0.00328978 -0.00148134 0.588516)
(0.00422619 -0.00205462 0.476617)
(0.0046222 -0.00290266 0.3867)
(-0.00613585 0.000799548 0.856645)
(0.000607121 -0.0038797 0.93378)
(0.000604616 -0.000133145 0.869698)
(0.00269107 0.000167607 0.705694)
(0.00426139 -8.33998e-05 0.569352)
(0.00478459 -0.000903727 0.464947)
(0.00518586 -0.00214733 0.379322)
(-0.00332497 0.00318783 0.727805)
(-0.0018513 0.00211928 0.759205)
(-0.00094712 0.00457973 0.717644)
(0.00171106 0.00302179 0.621215)
(0.00343741 0.00141563 0.521996)
(0.00469374 9.37769e-05 0.435756)
(0.00561082 -0.00160777 0.358759)
(-0.0025508 -0.00310275 0.532471)
(-0.00270473 -0.00289732 0.533407)
(-0.00186794 -0.00304354 0.508506)
(-0.000910879 -0.00295873 0.464212)
(-7.05317e-05 -0.00329057 0.408982)
(0.00074734 -0.0035238 0.350561)
(0.00133586 -0.003506 0.29308)
(-0.00483531 -0.000934297 0.646896)
(-0.005354 -0.00232601 0.653568)
(-0.00363062 -0.00321506 0.616667)
(-0.00203554 -0.00283679 0.545965)
(-0.000698469 -0.00340968 0.469348)
(0.000649428 -0.00384655 0.396127)
(0.00150832 -0.0039923 0.328428)
(-0.00915856 0.0013269 0.79093)
(-0.00902338 -0.00311013 0.838639)
(-0.00383067 -0.00436212 0.764967)
(-0.000802314 -0.00320039 0.637485)
(-1.46923e-05 -0.00341732 0.526472)
(0.00131343 -0.003864 0.435749)
(0.00218409 -0.00411129 0.357667)
(-0.0152787 0.00223201 0.89823)
(-0.014197 -0.00233348 0.989054)
(-0.00396974 -0.00552928 0.900126)
(0.000832459 -0.00241198 0.718119)
(0.00110767 -0.00269717 0.568029)
(0.00218063 -0.00326459 0.462788)
(0.00298826 -0.00378673 0.377171)
(-0.0196362 0.000385705 0.895345)
(-0.02039 0.000306466 1.0021)
(-0.0089409 -0.000887637 0.981069)
(0.000107441 -0.00107135 0.743353)
(0.00109694 -0.00177994 0.581109)
(0.00257269 -0.00244359 0.471456)
(0.00355636 -0.00325275 0.383695)
(-0.0133704 -0.00238562 0.851231)
(-0.011633 -0.00047579 0.918751)
(-0.00425551 0.00288471 0.848988)
(0.000178995 -0.000386456 0.695914)
(0.00115114 -0.00109103 0.562015)
(0.00291141 -0.00173164 0.459733)
(0.00404714 -0.00274717 0.376151)
(-0.00479376 -0.0018017 0.724091)
(-0.00538359 -0.000426438 0.751078)
(-0.00373964 0.00106662 0.709453)
(-0.000964424 -0.000475238 0.613706)
(0.00111307 -0.000726993 0.515589)
(0.0032024 -0.00128252 0.430959)
(0.00462398 -0.0024892 0.355812)
(-0.000708451 -0.00428885 0.529571)
(-0.000856393 -0.0027715 0.529888)
(-0.000666019 -0.00306736 0.504995)
(-2.552e-05 -0.0031181 0.461095)
(0.000645175 -0.00348136 0.406725)
(0.00131569 -0.00370614 0.349565)
(0.0017925 -0.0036565 0.293434)
(-0.00274374 -0.00269381 0.649312)
(-0.00330846 -0.00174837 0.651115)
(-0.0024708 -0.00274171 0.615415)
(-0.00128289 -0.00279115 0.542582)
(2.18944e-05 -0.0035649 0.465687)
(0.00127332 -0.00406237 0.393743)
(0.00201555 -0.00417911 0.327638)
(-0.00903803 -0.00217286 0.809938)
(-0.00785063 -0.00344935 0.830006)
(-0.00218764 -0.00512846 0.76174)
(-0.000522175 -0.00313739 0.637264)
(0.000576598 -0.00364017 0.522075)
(0.00194175 -0.004143 0.432138)
(0.00270862 -0.00435342 0.355831)
(-0.0167703 -0.000239638 0.933001)
(-0.0126359 -0.0026769 0.93066)
(-0.00220974 -0.00681566 0.869144)
(0.00121537 -0.00369675 0.714058)
(0.00155932 -0.00332307 0.563164)
(0.00280668 -0.00375859 0.458218)
(0.00352343 -0.00413482 0.374507)
(-0.0192775 0.00140561 0.963849)
(-0.016233 0.00144978 0.941401)
(-0.00478917 -0.00186212 0.840529)
(0.00209378 -0.00270348 0.733622)
(0.00204682 -0.00276659 0.575287)
(0.00332905 -0.00313586 0.466292)
(0.0041643 -0.00369549 0.380521)
(-0.0134367 -5.31529e-06 0.879947)
(-0.00971453 -7.57994e-05 0.912903)
(-0.00143981 0.00107439 0.841126)
(0.00153363 -0.00172287 0.697008)
(0.00234951 -0.00215365 0.556033)
(0.00385585 -0.0024512 0.454355)
(0.00471529 -0.00318868 0.372814)
(-0.00308508 -0.000272413 0.727298)
(-0.00307128 -0.00229343 0.754405)
(-0.00206656 -0.00113911 0.709118)
(0.000258339 -0.00178972 0.608599)
(0.00233055 -0.0015929 0.508801)
(0.00412006 -0.00188715 0.425778)
(0.00520235 -0.00282113 0.352703)
(0.000861603 -0.00800485 0.527273)
(0.00115193 -0.00520106 0.52724)
(0.00102611 -0.00608725 0.502504)
(0.00191177 -0.00546623 0.45922)
(0.0024031 -0.00496854 0.40585)
(0.0026839 -0.00463053 0.349804)
(0.00286734 -0.00424422 0.29478)
(0.000726842 -0.00831606 0.644503)
(0.000540895 -0.00266945 0.649892)
(-8.90876e-05 -0.0061809 0.611977)
(0.00170117 -0.00555322 0.538802)
(0.00270186 -0.00530626 0.463192)
(0.00320627 -0.00511651 0.39273)
(0.00340439 -0.00479526 0.328011)
(-0.00423472 -0.00810084 0.811888)
(-0.000433572 -0.00130609 0.823345)
(0.00327475 -0.00639556 0.762883)
(0.00354565 -0.00483594 0.632179)
(0.00415165 -0.00500292 0.518061)
(0.00443993 -0.00509482 0.429893)
(0.00440527 -0.00492877 0.355278)
(-0.00386429 -0.00542028 0.918041)
(-0.0014039 -0.00280917 0.907384)
(0.0013856 -0.00493559 0.865547)
(0.0034133 -0.00402652 0.711467)
(0.00508948 -0.00426376 0.558153)
(0.00550111 -0.00449092 0.454944)
(0.00539188 -0.0045938 0.373175)
(-0.00479915 -0.00112269 0.943702)
(-0.00142333 -0.000898617 0.931597)
(0.000904412 -0.00495094 0.862633)
(0.00284347 -0.00444038 0.729781)
(0.00546221 -0.00370846 0.569981)
(0.00617681 -0.00368464 0.462432)
(0.00612758 -0.00399265 0.378687)
(-0.00656183 0.00250796 0.872348)
(0.000412533 -0.00265839 0.900788)
(0.00518156 -0.00503086 0.833875)
(0.00541954 -0.00334392 0.688298)
(0.00660044 -0.00250923 0.549446)
(0.00682568 -0.00259491 0.450247)
(0.00665761 -0.00321103 0.370791)
(-0.000406157 0.00312183 0.715207)
(0.00247808 -0.00106375 0.742298)
(0.00303109 -0.000749273 0.69739)
(0.00461983 -0.000550703 0.599215)
(0.00594556 -0.000872309 0.502486)
(0.00657128 -0.00148627 0.42192)
(0.00676045 -0.00248103 0.35084)
(0.000755431 -0.0098926 0.527105)
(0.00187957 -0.00819724 0.527132)
(0.00231191 -0.00799569 0.50268)
(0.00306741 -0.00657145 0.45989)
(0.00323126 -0.00548455 0.407149)
(0.00322927 -0.00484271 0.351699)
(0.00323593 -0.00428779 0.297254)
(0.00102391 -0.0119326 0.639003)
(0.00233479 -0.0076666 0.64584)
(0.00232751 -0.00923393 0.608819)
(0.00374569 -0.00742796 0.537488)
(0.0041132 -0.00621993 0.463379)
(0.00402847 -0.00551322 0.393828)
(0.00389442 -0.00491806 0.329852)
(-0.0012323 -0.012845 0.795434)
(0.00385489 -0.00679397 0.816905)
(0.0057476 -0.00993093 0.756429)
(0.00663956 -0.00726233 0.627144)
(0.00637371 -0.00620396 0.516737)
(0.00564791 -0.00562491 0.430066)
(0.00504805 -0.00511314 0.35646)
(0.0018008 -0.0110902 0.916732)
(0.00535017 -0.00745903 0.903028)
(0.00440371 -0.00732408 0.856995)
(0.00793665 -0.00597948 0.702732)
(0.00813238 -0.00526123 0.555082)
(0.0071024 -0.00497186 0.454175)
(0.00618048 -0.00476293 0.373707)
(0.00221629 -0.00384047 0.938996)
(0.00647015 -0.00380993 0.915376)
(0.00683157 -0.00597944 0.868176)
(0.00854857 -0.00467418 0.720541)
(0.00891862 -0.00399897 0.565863)
(0.00795916 -0.00387236 0.460913)
(0.0069651 -0.00403759 0.378686)
(-0.00364878 0.0041196 0.856619)
(0.00550726 -0.00158823 0.882114)
(0.00928646 -0.00351834 0.824313)
(0.00945876 -0.00183399 0.67477)
(0.00940968 -0.00199523 0.544472)
(0.00826455 -0.00242394 0.448334)
(0.00731629 -0.00309377 0.370462)
(0.000240881 0.00411998 0.698816)
(0.00455628 0.000687737 0.723783)
(0.00553786 0.00159205 0.681401)
(0.00698245 0.00114247 0.589141)
(0.00756417 -0.000163572 0.498231)
(0.00738555 -0.00119643 0.420099)
(0.0070834 -0.00227362 0.35046)
(-0.00122626 -0.00081341 0.0317342)
(-0.000904859 -0.000654853 -0.000558636)
(0.00226925 -0.00214288 0.192299)
(0.000839792 -0.00185631 0.141891)
(-0.000122399 -0.00181625 0.0997448)
(-0.000676658 -0.001974 0.0642787)
(-0.000976056 -0.00222282 0.0329483)
(-0.00100886 -0.00261445 -0.0016702)
(0.0106883 -0.000678911 0.348583)
(0.00689546 -0.000602819 0.273328)
(0.00426204 -0.000775577 0.209378)
(0.00240736 -0.0012188 0.155785)
(0.00116769 -0.00183267 0.111191)
(0.000404231 -0.00258123 0.0739156)
(-4.52779e-05 -0.00344741 0.0412722)
(-0.000189485 -0.00444893 0.00532461)
(0.0119994 0.00376095 0.35894)
(0.00819527 0.00245689 0.285034)
(0.00553605 0.00125768 0.222039)
(0.00368599 -2.99526e-05 0.169057)
(0.00247544 -0.00134695 0.124874)
(0.00173662 -0.00268615 0.0878742)
(0.00134096 -0.00406272 0.0553591)
(0.00125805 -0.00555482 0.0191357)
(0.0113052 0.00780096 0.352425)
(0.00795658 0.00531469 0.286051)
(0.0057427 0.00326063 0.22892)
(0.00430938 0.00133562 0.180328)
(0.00342253 -0.000475798 0.139386)
(0.00293488 -0.00220431 0.104735)
(0.00275338 -0.00389145 0.0738295)
(0.00287462 -0.00563597 0.0384676)
(0.00944487 0.0099511 0.331241)
(0.00729379 0.00706675 0.278834)
(0.00572501 0.0045865 0.231354)
(0.00478714 0.00232093 0.189811)
(0.00425028 0.000233759 0.154107)
(0.00405141 -0.00170576 0.123308)
(0.00415144 -0.00356357 0.0951099)
(0.00459502 -0.00548395 0.0614921)
(-0.00328404 -0.00119191 0.250609)
(-0.00310774 -0.000668453 0.202852)
(-0.00285676 -0.000297408 0.160359)
(-0.00249512 3.23356e-05 0.123381)
(-0.00201361 0.000315559 0.0915148)
(-0.00140519 0.000563472 0.0638636)
(-0.000708035 0.000840756 0.0385778)
(0.00022622 0.00122427 0.00957587)
(-0.0029176 -0.00128856 0.289887)
(-0.00297382 -0.000793298 0.228408)
(-0.00291109 -0.000661711 0.175958)
(-0.00276667 -0.000612688 0.131387)
(-0.00251243 -0.000634485 0.0936)
(-0.00213874 -0.000719472 0.0612853)
(-0.0017125 -0.000821098 0.0322601)
(-0.00111323 -0.000914712 -0.000404396)
(-0.00167645 -0.000756722 0.324787)
(-0.00200682 -0.000671837 0.254032)
(-0.00217614 -0.000863206 0.193974)
(-0.00222878 -0.00116868 0.143447)
(-0.00215875 -0.00156825 0.101104)
(-0.00196223 -0.00205519 0.0653609)
(-0.00170711 -0.0026062 0.0337166)
(-0.00127746 -0.00321054 -0.00129482)
(-0.000205306 0.000730075 0.350151)
(-0.000763047 0.000179773 0.274924)
(-0.00105822 -0.000511858 0.211014)
(-0.00120987 -0.00130898 0.157399)
(-0.00120345 -0.00218738 0.112687)
(-0.00105932 -0.00313357 0.0751901)
(-0.000850444 -0.00414644 0.0422432)
(-0.0004267 -0.00523772 0.00589816)
(0.000626174 0.00283978 0.360725)
(0.000179361 0.00152704 0.286846)