/*--------------------------------*- C++ -*----------------------------------*\
| =========                 |                                                 |
| \\      /  F ield         | OpenFOAM: The Open Source CFD Toolbox           |
|  \\    /   O peration     | Version:  plus.master.MPPICInterFoam            |
|   \\  /    A nd           | Web:      www.OpenFOAM.com                      |
|    \\/     M anipulation  |                                                 |
\*---------------------------------------------------------------------------*/
FoamFile
{
    version     2.0;
    format      ascii;
    class       surfaceScalarField;
    location    "0.2";
    object      phi;
}
// * * * * * * * * * * * * * * * * * * * * * * * * * * * * * * * * * * * * * //

dimensions      [0 3 -1 0 0 0 0];

internalField   nonuniform List<scalar> 
34004
(
-3.00702e-11
8.16149e-11
2.8387e-08
-8.12124e-11
-1.31435e-11
4.42582e-11
3.44935e-08
-5.2358e-11
1.35751e-11
3.70329e-11
3.93826e-08
-5.01346e-11
2.38061e-11
3.75372e-11
4.41666e-08
-5.14194e-11
6.24831e-12
3.84696e-11
4.9055e-08
-5.24616e-11
-4.40997e-11
3.76174e-11
5.41147e-08
-5.12343e-11
-1.18008e-10
3.09017e-11
5.93954e-08
-4.41555e-11
8.99719e-12
6.49985e-08
-2.23005e-11
-1.74199e-10
-3.41888e-11
7.97841e-11
2.8397e-08
-1.21257e-11
3.23692e-11
3.44999e-08
1.43146e-11
2.67171e-11
3.9391e-08
2.09537e-11
3.19232e-11
4.41804e-08
-3.42278e-12
3.86248e-11
4.90777e-08
-6.43004e-11
4.34013e-11
5.4149e-08
-1.5247e-10
4.22124e-11
5.94408e-08
2.01483e-11
6.50463e-08
-2.25204e-10
-1.35226e-11
6.29277e-11
2.83977e-08
1.11304e-11
1.92338e-11
3.45036e-08
3.90014e-11
1.44537e-11
3.93969e-08
5.16412e-11
1.94973e-11
4.41886e-08
3.89056e-11
2.5948e-11
4.90899e-08
-5.11772e-12
3.08403e-11
5.41662e-08
-7.27327e-11
3.10238e-11
5.94639e-08
1.66507e-11
6.50666e-08
-1.34992e-10
7.03248e-12
3.01856e-11
2.83969e-08
3.40276e-11
2.23075e-12
3.45082e-08
6.47461e-11
-3.06779e-12
3.94025e-08
8.32564e-11
-2.27734e-12
4.41946e-08
7.99538e-11
-1.90864e-12
4.90959e-08
4.83102e-11
-3.37815e-12
5.41714e-08
-6.93999e-12
-5.52615e-12
5.94642e-08
-4.52678e-12
6.50539e-08
-6.608e-11
3.96058e-12
4.28398e-12
2.83967e-08
2.59109e-11
-9.47006e-12
3.45137e-08
4.89507e-11
-1.26742e-11
3.941e-08
5.80122e-11
-1.39764e-11
4.42047e-08
4.22683e-11
-1.59159e-11
4.91094e-08
-5.72457e-12
-1.85706e-11
5.4188e-08
-7.93687e-11
-1.92982e-11
5.94815e-08
-9.84977e-12
6.50632e-08
-1.47482e-10
-3.03063e-12
-1.37145e-11
2.83963e-08
1.04709e-11
-1.35042e-11
3.45162e-08
2.30346e-11
-1.32986e-11
3.9414e-08
1.89349e-11
-1.33123e-11
4.42101e-08
-1.27774e-11
-1.32489e-11
4.91171e-08
-7.8119e-11
-1.25554e-11
5.41988e-08
-1.68357e-10
-8.66744e-12
5.94942e-08
3.5143e-12
6.50759e-08
-2.40026e-10
-5.6334e-12
2.83954e-08
-2.70107e-11
4.76355e-12
3.45173e-08
-1.55457e-11
1.59869e-11
3.94145e-08
-1.37425e-11
1.32404e-11
4.42089e-08
-1.48929e-11
-1.27655e-11
4.91124e-08
-1.63258e-11
-6.5926e-11
5.4187e-08
-1.68757e-11
-1.37703e-10
5.94732e-08
-1.4517e-11
6.50464e-08
-6.00594e-12
-1.87712e-10
2.01425e-12
8.93492e-11
2.83747e-08
-8.47373e-11
-8.72345e-13
4.82287e-11
3.44855e-08
-5.15411e-11
-5.14175e-12
4.19944e-11
3.93801e-08
-4.69941e-11
-2.11031e-11
4.49826e-11
4.4176e-08
-4.89644e-11
-5.73106e-11
4.8634e-11
4.90848e-08
-5.06863e-11
-1.14599e-10
4.97243e-11
5.41679e-08
-5.0042e-11
-1.83475e-10
4.383e-11
5.94648e-08
-4.19411e-11
1.96348e-11
6.50537e-08
-1.7877e-11
-2.26969e-10
9.8656e-12
8.74686e-11
2.83786e-08
1.13663e-11
4.01001e-11
3.44902e-08
9.01799e-12
3.42782e-11
3.93853e-08
-5.32306e-12
3.95656e-11
4.41828e-08
-3.95127e-11
4.66715e-11
4.90942e-08
-9.45995e-11
5.19065e-11
5.41797e-08
-1.61547e-10
4.99934e-11
5.9477e-08
2.52196e-11
6.50565e-08
-2.04989e-10
2.67813e-11
6.87757e-11
2.83807e-08
3.22338e-11
2.79172e-11
3.44956e-08
3.4991e-11
2.2451e-11
3.93921e-08
2.98596e-11
2.60561e-11
4.41919e-08
1.1177e-11
3.0773e-11
4.91061e-08
-2.29441e-11
3.37806e-11
5.41952e-08
-6.51036e-11
3.12409e-11
5.94944e-08
1.36752e-11
6.50663e-08
-9.5123e-11
3.70621e-11
3.69027e-11
2.83829e-08
4.66425e-11
1.15162e-11
3.45012e-08
5.37095e-11
6.74744e-12
3.93995e-08
5.46921e-11
6.67322e-12
4.42023e-08
4.42859e-11
6.74859e-12
4.91207e-08
2.00444e-11
6.30867e-12
5.42149e-08
-1.46159e-11
3.72342e-12
5.95199e-08
1.58297e-12
6.50903e-08
-4.35245e-11
2.69414e-11
1.05554e-11
2.83863e-08
3.24362e-11
-1.0828e-12
3.45054e-08
3.45532e-11
-4.80748e-12
3.94054e-08
2.68907e-11
-6.35784e-12
4.42112e-08
3.27491e-12
-8.51633e-12
4.91342e-08
-3.88671e-11
-1.127e-11
5.42343e-08
-9.45168e-11
-1.26841e-11
5.95418e-08
-4.55357e-12
6.51039e-08
-1.3821e-10
1.55125e-11
-8.12517e-12
2.83901e-08
1.49284e-11
-7.62722e-12
3.45082e-08
9.63084e-12
-8.58379e-12
3.94089e-08
-8.36059e-12
-1.01553e-11
4.42167e-08
-4.632e-11
-1.18558e-11
4.91414e-08
-1.07352e-10
-1.3339e-11
5.42423e-08
-1.84355e-10
-1.3141e-11
5.95485e-08
-5.10367e-12
6.51018e-08
-2.39012e-10
6.28734e-12
2.8394e-08
-2.20539e-11
1.59081e-12
3.45098e-08
-9.58936e-12
-6.95709e-12
3.94105e-08
-8.14842e-12
-2.89576e-11
4.42189e-08
-9.48547e-12
-7.11336e-11
4.91435e-08
-1.07174e-11
-1.37225e-10
5.4243e-08
-1.07521e-11
-2.1968e-10
5.9547e-08
-8.39876e-12
6.51002e-08
-1.07501e-12
-2.76198e-10
9.37226e-12
9.78219e-11
2.83635e-08
-1.00985e-10
-4.6139e-12
5.46542e-11
3.4488e-08
-5.99524e-11
-2.04035e-11
4.76132e-11
3.93877e-08
-5.41901e-11
-4.76777e-11
5.04797e-11
4.41932e-08
-5.59464e-11
-9.25902e-11
5.44365e-11
4.91165e-08
-5.86357e-11
-1.57775e-10
5.56182e-11
5.42163e-08
-5.90079e-11
-2.37801e-10
4.88788e-11
5.95235e-08
-5.18728e-11
2.09665e-11
6.50843e-08
-2.45208e-11
-2.96057e-10
8.89752e-12
9.13866e-11
2.83652e-08
1.61795e-12
4.59444e-11
3.44903e-08
-1.0038e-11
4.00383e-11
3.93907e-08
-3.41133e-11
4.56008e-11
4.41981e-08
-7.56389e-11
5.33601e-11
4.91231e-08
-1.39197e-10
5.9402e-11
5.42257e-08
-2.19724e-10
5.71928e-11
5.95353e-08
2.82339e-11
6.50943e-08
-2.79817e-10
2.01753e-11
7.11871e-11
2.83709e-08
2.02223e-11
3.19495e-11
3.44941e-08
1.62438e-11
2.72914e-11
3.9395e-08
4.18808e-12
3.20284e-11
4.42039e-08
-1.92531e-11
3.80612e-11
4.91316e-08
-5.69367e-11
4.26771e-11
5.42374e-08
-1.06592e-10
4.11309e-11
5.95501e-08
2.09231e-11
6.511e-08
-1.49707e-10
2.72252e-11
3.94341e-11
2.83775e-08
3.25569e-11
1.39845e-11
3.44978e-08
3.57116e-11
9.43485e-12
3.93992e-08
3.33836e-11
1.03444e-11
4.42105e-08
2.19558e-11
1.16685e-11
4.91414e-08
-1.7351e-12
1.15626e-11
5.42511e-08
-3.66635e-11
9.39677e-12
5.95662e-08
5.06549e-12
6.51216e-08
-7.51238e-11
1.65381e-11
1.37031e-11
2.83859e-08
1.90208e-11
-6.83549e-14
3.45014e-08
1.95294e-11
-3.65627e-12
3.94038e-08
1.21109e-11
-4.79103e-12
4.42191e-08
-6.7115e-12
-6.41979e-12
4.91554e-08
-4.06176e-11
-8.9706e-12
5.42716e-08
-8.76289e-11
-1.11975e-11
5.95903e-08
-5.23338e-12
6.51355e-08
-1.31535e-10
4.02481e-12
-5.7583e-12
2.83959e-08
1.70242e-13
-8.11182e-12
3.45046e-08
-6.28634e-12
-9.39407e-12
3.94072e-08
-2.38833e-11
-1.03132e-11
4.42257e-08
-5.79144e-11
-1.14345e-11
4.91661e-08
-1.12888e-10
-1.27787e-11
5.42866e-08
-1.85933e-10
-1.23929e-11
5.96086e-08
-4.59726e-12
6.51466e-08
-2.45176e-10
-5.6286e-12
2.84055e-08
-2.14357e-11
-1.37687e-11
3.45061e-08
-1.22577e-11
-2.42707e-11
3.9408e-08
-1.11859e-11
-4.70807e-11
4.42277e-08
-1.19069e-11
-8.87252e-11
4.91691e-08
-1.2574e-11
-1.55319e-10
5.42899e-08
-1.22541e-11
-2.43033e-10
5.96102e-08
-9.78252e-12
6.51417e-08
-2.39441e-12
-3.13354e-10
-1.78572e-11
1.04926e-10
2.83822e-08
-1.11691e-10
-2.78554e-11
5.94621e-11
3.44885e-08
-6.72447e-11
-3.6423e-11
5.14492e-11
3.93896e-08
-5.95887e-11
-5.88509e-11
5.43268e-11
4.4206e-08
-5.94758e-11
-9.84501e-11
5.82945e-11
4.91433e-08
-6.03769e-11
-1.6128e-10
5.99726e-11
5.42629e-08
-5.86201e-11
-2.4313e-10
5.29466e-11
5.95873e-08
-4.92395e-11
2.4014e-11
6.51313e-08
-2.03466e-11
-3.07684e-10
-2.52462e-11
9.46829e-11
2.8389e-08
-2.75467e-11
4.7221e-11
3.44875e-08
-2.97487e-11
4.12772e-11
3.93873e-08
-4.51168e-11
4.78177e-11
4.42038e-08
-7.89632e-11
5.66036e-11
4.91417e-08
-1.35688e-10
6.38788e-11
5.42607e-08
-2.12936e-10
6.24841e-11
5.95842e-08
3.29539e-11
6.5127e-08
-2.7478e-10
-1.33117e-11
7.43196e-11
2.83945e-08
-9.56346e-12
3.1917e-11
3.44893e-08
-3.96141e-12
2.7088e-11
3.93886e-08
-5.99855e-12
3.32337e-11
4.42049e-08
-1.81353e-11
4.13733e-11
4.91421e-08
-4.2767e-11
4.75316e-11
5.42599e-08
-7.8119e-11
4.65689e-11
5.95808e-08
2.41983e-11
6.5128e-08
-1.1124e-10
-2.93601e-12
4.43493e-11
2.84004e-08
6.13606e-12
1.33528e-11
3.44911e-08
1.81877e-11
9.10009e-12
3.93906e-08
2.65207e-11
1.21861e-11
4.42084e-08
3.0321e-11
1.58729e-11
4.91479e-08
2.67022e-11
1.78412e-11
5.42686e-08
1.74257e-11
1.61629e-11
5.95896e-08
8.60423e-12
6.51353e-08
1.57295e-12
-6.86603e-12
1.95729e-11
2.84073e-08
-4.59738e-13
-1.80305e-12
3.44938e-08
9.05414e-12
-5.48792e-12
3.93941e-08
1.42031e-11
-4.22432e-12
4.42152e-08
1.38245e-11
-3.41846e-12
4.91594e-08
6.11956e-12
-4.20878e-12
5.42852e-08
-7.54823e-12
-5.58579e-12
5.96093e-08
-2.30431e-12
6.51458e-08
-2.42074e-11
-9.76226e-12
-1.23057e-12
2.84162e-08
-9.36525e-12
-1.12469e-11
3.44972e-08
-7.9036e-12
-1.28192e-11
3.93981e-08
-1.22971e-11
-1.19079e-11
4.42223e-08
-2.54711e-11
-1.1473e-11
4.9171e-08
-4.97731e-11
-1.1932e-11
5.43014e-08
-8.31005e-11
-1.16616e-11
5.96297e-08
-5.45387e-12
6.51562e-08
-1.09991e-10
-1.0665e-11
2.84234e-08
-1.87198e-11
-1.52722e-11
3.44998e-08
-1.66453e-11
-1.98696e-11
3.94008e-08
-1.5742e-11
-3.12703e-11
4.42271e-08
-1.48345e-11
-5.38525e-11
4.91791e-08
-1.40658e-11
-9.21586e-11
5.43137e-08
-1.28676e-11
-1.42829e-10
5.96436e-08
-9.85791e-12
6.51626e-08
-2.25482e-12
-1.82938e-10
-1.92312e-11
1.08956e-10
2.83982e-08
-1.11737e-10
-2.59509e-11
5.74374e-11
3.44846e-08
-6.49825e-11
-2.9003e-11
4.89808e-11
3.93844e-08
-5.66169e-11
-3.67608e-11
5.25669e-11
4.42024e-08
-5.75624e-11
-5.05529e-11
5.73689e-11
4.91419e-08
-5.94369e-11
-6.85922e-11
5.93198e-11
5.42615e-08
-5.82569e-11
-8.48683e-11
5.29948e-11
5.958e-08
-4.90094e-11
2.39154e-11
6.51089e-08
-2.05776e-11
-8.72307e-11
-1.57728e-11
9.77573e-11
2.84041e-08
-1.69157e-11
4.5312e-11
3.44829e-08
-1.66822e-11
3.90987e-11
3.93809e-08
-2.03316e-11
4.60829e-11
4.41976e-08
-2.94569e-11
5.52529e-11
4.91359e-08
-4.34511e-11
6.25426e-11
5.42537e-08
-5.55518e-11
6.08172e-11
5.957e-08
3.20698e-11
6.51009e-08
-5.78313e-11
-1.96449e-14
7.90572e-11
2.84025e-08
3.28567e-12
3.20101e-11
3.4482e-08
8.08793e-12
2.72953e-11
3.938e-08
1.43858e-11
3.46386e-11
4.41941e-08
2.30511e-11
4.35895e-11
4.91286e-08
3.7098e-11
5.06161e-11
5.42408e-08
5.96144e-11
4.96919e-11
5.95519e-08
2.6714e-11
6.50918e-08
8.23638e-11
1.42167e-11
5.29508e-11
2.84015e-08
2.19987e-11
1.54625e-11
3.44825e-08
3.22788e-11
1.08806e-11
3.93809e-08
4.85702e-11
1.56149e-11
4.41949e-08
7.29088e-11
2.09727e-11
4.91291e-08
1.10128e-10
2.41364e-11
5.424e-08
1.5737e-10
2.28621e-11
5.95504e-08
1.23486e-11
6.50902e-08
1.96419e-10
1.69263e-11
2.99532e-11
2.84027e-08
2.28755e-11
1.27633e-12
3.44847e-08
3.05438e-11
-2.77716e-12
3.93843e-08
4.45829e-11
-4.56791e-14
4.42006e-08
6.74149e-11
2.27714e-12
4.91383e-08
1.03435e-10
2.69002e-12
5.42527e-08
1.50173e-10
1.66258e-12
5.95649e-08
1.26839e-12
6.50956e-08
1.90663e-10
2.11839e-11
7.64863e-12
2.84066e-08
2.20169e-11
-8.39834e-12
3.44887e-08
2.20606e-11
-1.03888e-11
3.93899e-08
2.73905e-11
-8.61487e-12
4.42095e-08
3.91385e-11
-7.16695e-12
4.91519e-08
6.03117e-11
-6.80481e-12
5.42721e-08
9.2303e-11
-6.40694e-12
5.95873e-08
-2.61867e-12
6.51081e-08
1.24157e-10
2.69332e-11
2.84074e-08
-1.39789e-11
2.44678e-11
3.4492e-08
-1.54734e-11
1.90571e-11
3.9395e-08
-1.49482e-11
1.85839e-11
4.42169e-08
-1.41486e-11
2.3415e-11
4.91636e-08
-1.35836e-11
3.55171e-11
5.42894e-08
-1.27797e-11
5.47631e-11
5.96088e-08
-1.00838e-11
6.5118e-08
-2.64229e-12
7.83378e-11
1.96955e-11
1.07714e-10
2.83737e-08
-1.09072e-10
6.64072e-12
5.25222e-11
3.4482e-08
-5.59698e-11
-5.22947e-12
4.41577e-11
3.93835e-08
-4.80047e-11
-9.53033e-12
4.86162e-11
4.41929e-08
-5.17733e-11
-3.15729e-12
5.42221e-11
4.91198e-08
-5.62585e-11
2.14002e-11
5.6454e-11
5.42192e-08
-5.73619e-11
6.78276e-11
5.01822e-11
5.9514e-08
-5.01469e-11
2.28741e-11
6.50364e-08
-2.22976e-11
1.18623e-10
3.61609e-11
9.69778e-11
2.8366e-08
2.76867e-11
4.42458e-11
3.44804e-08
1.49835e-11
3.83926e-11
3.9382e-08
1.0051e-11
4.45689e-11
4.41889e-08
1.70209e-11
5.25647e-11
4.91123e-08
4.1154e-11
5.84576e-11
5.42084e-08
8.43216e-11
5.56821e-11
5.95013e-08
2.90465e-11
6.5028e-08
1.29299e-10
5.08948e-11
8.08034e-11
2.83564e-08
4.48462e-11
3.52152e-11
3.44787e-08
3.6405e-11
3.03667e-11
3.93797e-08
3.76552e-11
3.71307e-11
4.41831e-08
5.41652e-11
4.561e-11
4.9101e-08
9.1808e-11
5.18061e-11
5.41908e-08
1.48789e-10
5.01055e-11
5.94805e-08
2.72983e-11
6.50194e-08
2.01185e-10
5.93311e-11
6.09323e-11
2.83506e-08
5.90168e-11
2.15841e-11
3.4478e-08
5.74384e-11
1.67922e-11
3.93794e-08
6.89419e-11
2.1501e-11
4.41819e-08
1.00117e-10
2.71842e-11
4.90985e-08
1.5487e-10
3.08115e-11
5.41874e-08
2.29538e-10
2.91595e-11
5.94769e-08
1.59109e-11
6.50193e-08
2.90336e-10
6.18533e-11
3.95156e-11
2.83508e-08
6.09956e-11
9.00933e-12
3.44797e-08
5.84766e-11
4.76881e-12
3.93822e-08
6.91492e-11
7.37129e-12
4.4187e-08
9.95624e-11
1.02462e-11
4.91069e-08
1.53261e-10
1.12667e-11
5.41998e-08
2.26185e-10
9.93898e-12
5.94915e-08
5.66921e-12
6.50274e-08
2.83191e-10
6.56263e-11
1.53852e-11
2.83537e-08
6.18483e-11
-7.03557e-13
3.44838e-08
5.45156e-11
-2.85415e-12
3.93882e-08
5.89178e-11
-1.71492e-12
4.4197e-08
8.06367e-11
-3.45851e-13
4.91228e-08
1.22047e-10
3.97653e-13
5.42227e-08
1.80211e-10
6.73901e-13
5.95187e-08
1.39058e-12
6.50435e-08
2.2757e-10
6.96432e-11
2.83538e-08
-1.20871e-11
6.48985e-11
3.44874e-08
-9.71562e-12
5.60269e-11
3.93939e-08
-9.52083e-12
5.86699e-11
4.4206e-08
-1.05638e-11
7.85943e-11
4.9137e-08
-1.15262e-11
1.1781e-10
5.42436e-08
-1.17103e-11
1.73882e-10
5.95436e-08
-9.74593e-12
6.50554e-08
-2.65399e-12
2.19187e-10
4.20471e-11
1.00227e-10
2.83319e-08
-1.07095e-10
2.07217e-11
5.12694e-11
3.44839e-08
-5.23394e-11
-1.64974e-12
4.35362e-11
3.93896e-08
-4.51166e-11
-1.37098e-11
4.63897e-11
4.41893e-08
-4.88858e-11
-1.13242e-11
5.0602e-11
4.91008e-08
-5.30544e-11
8.26102e-12
5.19765e-11
5.41819e-08
-5.43552e-11
4.10438e-11
4.57173e-11
5.94618e-08
-4.74553e-11
2.10145e-11
6.49876e-08
-2.05112e-11
6.6521e-11
4.97806e-11
8.93264e-11
2.83135e-08
3.44891e-11
4.52057e-11
3.44813e-08
1.35112e-11
3.95815e-11
3.93886e-08
6.32739e-13
4.40676e-11
4.41854e-08
1.20896e-12
5.00636e-11
4.90927e-08
1.70062e-11
5.39613e-11
5.41702e-08
4.46316e-11
4.97827e-11
5.94482e-08
2.5361e-11
6.49809e-08
6.41821e-11
5.23399e-11
7.88066e-11
2.83025e-08
4.11575e-11
3.79469e-11
3.44775e-08
2.55463e-11
3.31943e-11
3.9384e-08
1.84951e-11
3.89931e-11
4.4177e-08
2.43879e-11
4.67915e-11
4.90793e-08
4.4833e-11
5.23119e-11
5.4152e-08
7.40392e-11
5.02354e-11
5.94299e-08
2.79928e-11
6.49767e-08
9.1272e-11
5.48457e-11
6.41574e-11
2.82983e-08
5.07872e-11
2.5703e-11
3.44747e-08
4.44071e-11
2.07808e-11
3.93804e-08
4.85397e-11
2.58929e-11
4.41726e-08
6.79651e-11
3.25831e-11
4.90741e-08
1.04697e-10
3.69641e-11
5.41459e-08
1.49588e-10
3.54937e-11
5.94257e-08
2.01173e-11
6.49788e-08
1.74925e-10
5.62354e-11
4.47108e-11
2.83019e-08
5.29002e-11
1.41126e-11
3.4475e-08
4.75103e-11
9.82113e-12
3.93807e-08
5.30832e-11
1.34971e-11
4.41756e-08
7.49564e-11
1.77432e-11
4.90807e-08
1.13762e-10
2.01811e-11
5.41577e-08
1.60354e-10
1.9033e-11
5.94403e-08
1.08308e-11
6.49876e-08
1.86481e-10
5.98733e-11
1.76209e-11
2.83087e-08
5.58979e-11
3.87226e-12
3.44783e-08
4.87731e-11
1.94028e-12
3.93854e-08
5.20673e-11
3.64873e-12
4.41853e-08
7.00809e-11
6.06314e-12
4.90974e-08
1.0161e-10
8.14104e-12
5.41832e-08
1.38109e-10
8.92625e-12
5.94712e-08
6.33129e-12
6.50081e-08
1.55093e-10
6.11436e-11
2.83137e-08
-1.55491e-11
5.88862e-11
3.44817e-08
-7.81182e-12
5.41094e-11
3.93901e-08
-7.32656e-12
6.08921e-11
4.4194e-08
-9.40377e-12
8.42376e-11
4.91118e-08
-1.12421e-11
1.22917e-10
5.42048e-08
-1.18387e-11
1.67376e-10
5.9497e-08
-1.00328e-11
6.50207e-08
-3.00818e-12
1.88421e-10
1.52507e-11
8.70571e-11
2.83194e-08
-9.68769e-11
-6.05043e-12
5.21296e-11
3.44874e-08
-5.61349e-11
-2.40028e-11
4.51763e-11
3.93934e-08
-4.99957e-11
-3.90836e-11
4.50108e-11
4.41892e-08
-4.92318e-11
-5.08606e-11
4.59793e-11
4.90954e-08
-4.91464e-11
-6.32303e-11
4.52984e-11
5.41746e-08
-4.69992e-11
-8.00788e-11
3.90187e-11
5.94548e-08
-3.76058e-11
1.81745e-11
6.49824e-08
-1.34828e-11
-1.03728e-10
2.74181e-12
7.6789e-11
2.83065e-08
-1.10422e-11
4.32794e-11
3.4482e-08
-2.38089e-11
3.81964e-11
3.93886e-08
-3.63869e-11
4.09488e-11
4.4182e-08
-4.84843e-11
4.5141e-11
4.90848e-08
-6.33193e-11
4.75941e-11
5.4161e-08
-8.2151e-11
4.35028e-11
5.94398e-08
2.22151e-11
6.49734e-08
-1.03498e-10
-6.40695e-12
7.34848e-11
2.82992e-08
-1.60367e-11
3.4964e-11
3.44744e-08
-2.2057e-11
3.02345e-11
3.9379e-08
-2.89115e-11
3.62753e-11
4.41691e-08
-3.61004e-11
4.40394e-11
4.90672e-08
-4.60572e-11
4.98996e-11
5.41382e-08
-5.81436e-11
4.85957e-11
5.94144e-08
2.7646e-11
6.49628e-08
-7.4261e-11
-3.03094e-12
6.38918e-11
2.82979e-08
-6.45229e-12
2.32098e-11
3.44689e-08
-5.32251e-12
1.87372e-11
3.93718e-08
-1.79217e-12
2.57061e-11
4.41602e-08
6.13006e-12
3.44246e-11
4.90554e-08
1.65136e-11
4.08321e-11
5.41233e-08
3.08669e-11
4.0506e-11
5.9397e-08
2.33815e-11
6.49535e-08
3.60126e-11
4.70884e-12
4.66645e-11
2.83014e-08
1.92415e-12
1.28967e-11
3.44671e-08
3.31033e-12
9.32366e-12
3.93698e-08
9.86808e-12
1.57289e-11
4.41596e-08
2.44739e-11
2.30591e-11
4.90571e-08
4.63856e-11
2.83366e-11
5.41269e-08
7.3398e-11
2.83719e-11
5.9403e-08
1.64692e-11
6.49546e-08
8.88706e-11
1.64286e-11
1.78269e-11
2.83081e-08
1.47755e-11
2.18487e-12
3.44698e-08
1.57892e-11
1.16638e-12
3.93736e-08
2.41758e-11
5.38942e-12
4.41679e-08
4.17366e-11
1.04673e-11
4.90721e-08
6.60645e-11
1.51815e-11
5.41507e-08
9.26742e-11
1.71959e-11
5.94334e-08
1.14392e-11
6.4974e-08
1.07396e-10
2.373e-11
2.83143e-08
-1.95419e-11
2.57923e-11
3.44723e-08
-1.14827e-11
3.07661e-11
3.93775e-08
-1.01454e-11
4.68308e-11
4.41752e-08
-1.12548e-11
7.57922e-11
4.90851e-08
-1.21359e-11
1.16067e-10
5.41705e-08
-1.21208e-11
1.60032e-10
5.94579e-08
-1.01126e-11
6.49865e-08
-3.19243e-12
1.84411e-10
-1.51835e-11
7.00498e-11
2.83309e-08
-7.39211e-11
-2.84438e-11
4.65127e-11
3.44863e-08
-5.55561e-11
-3.83877e-11
4.10538e-11
3.93923e-08
-5.02543e-11
-5.20471e-11
3.97718e-11
4.41891e-08
-4.66612e-11
-7.27597e-11
3.94809e-11
4.90985e-08
-4.34928e-11
-1.01575e-10
3.80647e-11
5.41817e-08
-3.89844e-11
-1.32744e-10
3.19102e-11
5.94594e-08
-2.9148e-11
1.44635e-11
6.49679e-08
-8.9799e-12
-1.49498e-10
-3.19562e-11
6.51438e-11
2.83279e-08
-4.09417e-11
3.53943e-11
3.44788e-08
-4.56336e-11
3.03303e-11
3.93831e-08
-5.6396e-11
3.25012e-11
4.41788e-08
-7.69097e-11
3.56352e-11
4.90871e-08
-1.07016e-10
3.71353e-11
5.41689e-08
-1.4036e-10
3.35297e-11
5.94473e-08
1.69149e-11
6.4961e-08
-1.56673e-10
-4.08108e-11
6.83377e-11
2.83229e-08
-4.89186e-11
2.73861e-11
3.44683e-08
-5.18922e-11
2.25285e-11
3.93696e-08
-6.15655e-11
2.88238e-11
4.41619e-08
-8.06111e-11
3.63572e-11
4.9064e-08
-1.0729e-10
4.2076e-11
5.41373e-08
-1.34103e-10
4.14489e-11
5.94095e-08
2.33426e-11
6.49383e-08
-1.41994e-10
-3.21821e-11
6.42554e-11
2.83203e-08
-3.90852e-11
1.89938e-11
3.44619e-08
-4.00007e-11
1.44577e-11
3.93607e-08
-4.39184e-11
2.30733e-11
4.41493e-08
-5.19017e-11
3.29917e-11
4.90452e-08
-5.9002e-11
4.09128e-11
5.41089e-08
-5.9597e-11
4.17856e-11
5.93735e-08
2.39848e-11
6.49144e-08
-4.7142e-11
-1.72565e-11
5.04929e-11
2.83186e-08
-2.44648e-11
1.17917e-11
3.44593e-08
-2.70669e-11
8.94137e-12
3.93578e-08
-2.79661e-11
1.75584e-11
4.41454e-08
-2.69478e-11
2.76749e-11
4.90399e-08
-1.88495e-11
3.56935e-11
5.41014e-08
2.37859e-12
3.69558e-11
5.93628e-08
2.15068e-11
6.49024e-08
3.11193e-11
4.23456e-12
2.15163e-11
2.83191e-08
1.48358e-13
1.79457e-12
3.44616e-08
-1.10472e-12
1.52654e-12
3.93622e-08
3.7253e-12
7.96461e-12
4.4152e-08
1.53571e-11
1.55899e-11
4.9051e-08
3.75142e-11
2.26028e-11
5.4119e-08
7.26076e-11
2.57791e-11
5.93857e-08
1.66976e-11
6.4916e-08
1.09439e-10
1.97988e-11
2.83197e-08
-1.74886e-11
2.04131e-11
3.44641e-08
-1.28134e-11
2.48616e-11
3.93658e-08
-1.13499e-11
4.02471e-11
4.41584e-08
-1.11662e-11
6.91962e-11
4.90613e-08
-1.1161e-11
1.15489e-10
5.41348e-08
-1.06721e-11
1.78674e-10
5.94053e-08
-8.55677e-12
6.49256e-08
-2.20171e-12
2.3258e-10
-1.25587e-11
5.8137e-11
2.83314e-08
-5.41565e-11
-2.9205e-11
3.46191e-11
3.44868e-08
-4.30525e-11
-4.40304e-11
3.02543e-11
3.93957e-08
-4.00857e-11
-6.70079e-11
3.09022e-11
4.41986e-08
-3.90542e-11
-1.00255e-10
3.23312e-11
4.91148e-08
-3.79903e-11
-1.37576e-10
3.17477e-11
5.41988e-08
-3.53245e-11
-1.66634e-10
2.65396e-11
5.94648e-08
-2.78694e-11
1.2004e-11
6.49411e-08
-1.00953e-11
-1.68665e-10
-1.65958e-11
5.9276e-11
2.8327e-08
-3.1108e-11
2.55296e-11
3.44779e-08
-4.49199e-11
1.99441e-11
3.93853e-08
-6.78435e-11
2.18973e-11
4.41885e-08
-1.00883e-10
2.41294e-11
4.91052e-08
-1.40354e-10
2.45246e-11
5.41914e-08
-1.75271e-10
2.11345e-11
5.94624e-08
1.01813e-11
6.49458e-08
-1.85725e-10
-1.93195e-11
6.51007e-11
2.83218e-08
-3.81643e-11
2.12708e-11
3.44679e-08
-5.72005e-11
1.5331e-11
3.93721e-08
-8.59639e-11
2.06383e-11
4.41703e-08
-1.26643e-10
2.67637e-11
4.90794e-08
-1.7442e-10
3.05685e-11
5.41553e-08
-2.18291e-10
2.90537e-11
5.94205e-08
1.5469e-11
6.49213e-08
-2.33734e-10
-1.02895e-11
6.46141e-11
2.83165e-08
-3.11668e-11
1.8095e-11
3.44626e-08
-5.42456e-11
1.34992e-11
3.93645e-08
-8.43551e-11
2.1375e-11
4.41571e-08
-1.22822e-10
3.07784e-11
4.90571e-08
-1.66177e-10
3.81692e-11
5.41209e-08
-2.04955e-10
3.86695e-11
5.93778e-08
2.14452e-11
6.48952e-08
-2.18803e-10
4.64388e-12
5.37828e-11
2.83102e-08
-1.7734e-11
1.55767e-11
3.44608e-08
-4.24773e-11
1.28982e-11
3.93621e-08
-7.07914e-11
2.17971e-11
4.41517e-08
-1.02064e-10
3.24205e-11
4.9047e-08
-1.33205e-10
4.1533e-11
5.41055e-08
-1.57898e-10
4.30859e-11
5.93583e-08
2.48491e-11
6.48774e-08
-1.63399e-10
2.52356e-11
2.65334e-11
2.83065e-08
9.39817e-12
6.78887e-12
3.44628e-08
-9.39544e-12
6.39712e-12
3.93664e-08
-2.66869e-11
1.30084e-11
4.41566e-08
-4.11152e-11
2.13842e-11
4.90539e-08
-4.9112e-11
2.947e-11
5.41154e-08
-4.88707e-11
3.30767e-11
5.93706e-08
2.10053e-11
6.48843e-08
-4.03441e-11
3.88072e-11
2.83046e-08
-1.18106e-11
3.0725e-11
3.44647e-08
-9.22336e-12
2.07784e-11
3.93696e-08
-8.51616e-12
1.81456e-11
4.41611e-08
-8.67499e-12
2.64989e-11
4.90606e-08
-8.75026e-12
5.02641e-11
5.41251e-08
-8.2658e-12
8.91007e-11
5.93809e-08
-6.20331e-12
6.4886e-08
-5.85476e-13
1.23126e-10
-2.17084e-11
5.49999e-11
2.83435e-08
-5.38823e-11
-5.22479e-11
2.53429e-11
3.44964e-08
-2.99899e-11
-7.82337e-11
2.05862e-11
3.94073e-08
-2.82242e-11
-1.16416e-10
2.31628e-11
4.42216e-08
-3.02644e-11
-1.68273e-10
2.58839e-11
4.91496e-08
-3.2263e-11
-2.31112e-10
2.66574e-11
5.42429e-08
-3.25153e-11
-2.98138e-10
2.35545e-11
5.95113e-08
-2.87842e-11
1.1742e-11
6.49598e-08
-1.26436e-11
-3.43781e-10
-2.22561e-11
5.40439e-11
2.83331e-08
-4.98484e-11
1.82392e-11
3.44873e-08
-7.57429e-11
1.18808e-11
3.93973e-08
-1.11406e-10
1.29865e-11
4.42114e-08
-1.58143e-10
1.42288e-11
4.91397e-08
-2.1402e-10
1.34126e-11
5.42356e-08
-2.75083e-10
1.0138e-11
5.95108e-08
4.44637e-12
6.49698e-08
-3.19991e-10
-2.60465e-11
5.97494e-11
2.83268e-08
-6.04635e-11
1.70175e-11
3.44793e-08
-9.45748e-11
1.04315e-11
3.93859e-08
-1.41749e-10
1.40051e-11
4.41942e-08
-2.03273e-10
1.76982e-11
4.91142e-08
-2.79123e-10
1.86205e-11
5.42016e-08
-3.62977e-10
1.55543e-11
5.94734e-08
6.77797e-12
6.49503e-08
-4.22269e-10
-2.00251e-11
6.03013e-11
2.83207e-08
-5.8528e-11
1.84807e-11
3.44754e-08
-9.92352e-11
1.39517e-11
3.93799e-08
-1.53066e-10
2.04208e-11
4.41823e-08
-2.23833e-10
2.81517e-11
4.90942e-08
-3.15003e-10
3.38908e-11
5.41725e-08
-4.19882e-10
3.33002e-11
5.94393e-08
1.75355e-11
6.49323e-08
-4.95666e-10
-1.12666e-11
5.19623e-11
2.83145e-08
-4.83721e-11
1.84102e-11
3.44737e-08
-8.88074e-11
1.68554e-11
3.93778e-08
-1.40333e-10
2.50732e-11
4.41764e-08
-2.07543e-10
3.54078e-11
4.90837e-08
-2.94472e-10
4.42883e-11
5.41576e-08
-3.95363e-10
4.55404e-11
5.94213e-08
2.56925e-11
6.49162e-08
-4.70213e-10
5.1706e-12
2.63889e-11
2.83116e-08
-2.30476e-11
9.70988e-12
3.44755e-08
-5.18377e-11
9.50714e-12
3.93807e-08
-8.76926e-11
1.59374e-11
4.41793e-08
-1.32797e-10
2.44883e-11
4.90867e-08
-1.92014e-10
3.31407e-11
5.41613e-08
-2.63395e-10
3.67643e-11
5.94252e-08
2.27772e-11
6.49168e-08
-3.20909e-10
1.3641e-11
2.8312e-08
-9.83597e-12
-4.26336e-12
3.44765e-08
-8.38368e-12
-2.16924e-11
3.93831e-08
-8.32112e-12
-4.0231e-11
4.41819e-08
-8.53933e-12
-5.98228e-11
4.90899e-08
-8.55442e-12
-8.26791e-11
5.41646e-08
-7.88221e-12
-1.12404e-10
5.94274e-08
-5.60995e-12
6.49113e-08
-5.61886e-14
-1.42818e-10
-6.426e-11
5.09314e-11
2.84042e-08
-5.61117e-11
-9.87114e-11
1.95935e-11
3.45103e-08
-2.49953e-11
-1.24937e-10
1.36044e-11
3.94191e-08
-2.14812e-11
-1.64849e-10
1.55147e-11
4.42462e-08
-2.28433e-11
-2.24929e-10
1.82061e-11
4.9193e-08
-2.51465e-11
-3.11965e-10
1.99643e-11
5.43115e-08
-2.62905e-11
-4.22821e-10
1.92548e-11
5.96008e-08
-2.38787e-11
1.14343e-11
6.5023e-08
-1.01671e-11
-5.15273e-10
-7.3028e-11
4.3959e-11
2.83957e-08
-1.02575e-10
1.08803e-11
3.44999e-08
-1.26172e-10
4.53428e-12
3.94071e-08
-1.58602e-10
4.83662e-12
4.42313e-08
-2.04232e-10
4.91408e-12
4.91746e-08
-2.66414e-10
3.08922e-12
5.42896e-08
-3.43136e-10
4.10747e-13
5.95802e-08
-5.16798e-13
6.5017e-08
-4.06928e-10
-7.97479e-11
4.86631e-11
2.83862e-08
-1.17805e-10
1.11882e-11
3.44925e-08
-1.5185e-10
5.3386e-12
3.93971e-08
-1.97771e-10
7.34237e-12
4.42151e-08
-2.61909e-10
8.88935e-12
4.91509e-08
-3.47943e-10
7.38988e-12
5.42587e-08
-4.49192e-10
3.32857e-12
5.95459e-08
-1.05898e-12
6.49943e-08
-5.20754e-10
-7.35133e-11
4.97291e-11
2.83776e-08
-1.15895e-10
1.54634e-11
3.4489e-08
-1.5764e-10
1.23984e-11
3.93926e-08
-2.14996e-10
1.81373e-11
4.42064e-08
-2.97178e-10
2.45448e-11
4.91373e-08
-4.10944e-10
2.87876e-11
5.42403e-08
-5.46748e-10
2.73658e-11
5.95254e-08
1.32037e-11
6.49836e-08
-6.4048e-10
-6.49694e-11
4.44149e-11
2.83692e-08
-1.04422e-10
1.70347e-11
3.44871e-08
-1.44188e-10
1.70033e-11
3.9391e-08
-2.00011e-10
2.5332e-11
4.42026e-08
-2.8171e-10
3.53194e-11
4.91312e-08
-3.96089e-10
4.37812e-11
5.42325e-08
-5.33661e-10
4.46744e-11
5.95159e-08
2.43116e-11
6.49721e-08
-6.28806e-10
-4.78535e-11
2.21884e-11
2.83661e-08
-7.4856e-11
7.1902e-12
3.44879e-08
-1.0051e-10
8.53319e-12
3.93929e-08
-1.38416e-10
1.55187e-11
4.42046e-08
-1.9723e-10
2.46198e-11
4.91328e-08
-2.84186e-10
3.34195e-11
5.42341e-08
-3.93678e-10
3.69617e-11
5.95167e-08
2.20993e-11
6.497e-08
-4.72728e-10
-3.83989e-11
2.83677e-08
-1.06929e-11
-5.638e-11
3.44892e-08
-1.19649e-11
-6.84958e-11
3.93938e-08
-1.21023e-11
-8.75367e-11
4.42054e-08
-1.13814e-11
-1.19e-10
4.91334e-08
-1.08121e-11
-1.70852e-10
5.42352e-08
-9.83143e-12
-2.41436e-10
5.95167e-08
-7.44635e-12
6.49644e-08
-1.29416e-12
-2.99185e-10
-7.28179e-11
3.77551e-11
2.84685e-08
-3.82032e-11
-1.02313e-10
1.12352e-11
3.45217e-08
-1.87104e-11
-1.21416e-10
5.42915e-12
3.94258e-08
-1.49961e-11
-1.5123e-10
5.90821e-12
4.42634e-08
-1.55045e-11
-2.01352e-10
7.90716e-12
4.92294e-08
-1.73616e-11
-2.77808e-10
9.62077e-12
5.4373e-08
-1.88675e-11
-3.72699e-10
1.01796e-11
5.96774e-08
-1.72877e-11
7.35896e-12
6.50599e-08
-7.23041e-12
-4.37044e-10
-7.4203e-11
2.99899e-11
2.84604e-08
-1.02279e-10
2.48492e-12
3.45115e-08
-1.21031e-10
-3.67127e-12
3.94124e-08
-1.45132e-10
-4.37087e-12
4.4243e-08
-1.79598e-10
-6.08048e-12
4.91995e-08
-2.26293e-10
-9.59389e-12
5.4331e-08
-2.76394e-10
-1.25704e-11
5.96274e-08
-8.76255e-12
6.50297e-08
-3.00715e-10
-7.71312e-11
3.37161e-11
2.84441e-08
-1.16621e-10
5.79315e-12
3.45045e-08
-1.50496e-10
1.29535e-12
3.94043e-08
-1.93306e-10
1.67472e-12
4.42299e-08
-2.51526e-10
8.9567e-13
4.91792e-08
-3.26155e-10
-2.43914e-12
5.43021e-08
-4.02447e-10
-6.5712e-12
5.9591e-08
-7.45497e-12
6.50008e-08
-4.37765e-10
-7.15764e-11
3.80455e-11
2.84293e-08
-1.15316e-10
1.31906e-11
3.45012e-08
-1.57838e-10
1.16763e-11
3.94031e-08
-2.14958e-10
1.64498e-11
4.42268e-08
-2.9583e-10
2.14762e-11
4.91746e-08
-4.03403e-10
2.46449e-11
5.42967e-08
-5.18881e-10
2.29793e-11
5.95861e-08
9.67656e-12
6.50006e-08
-5.80453e-10
-6.35134e-11
3.88188e-11
2.84165e-08
-1.03462e-10
1.65343e-11
3.44996e-08
-1.43663e-10
1.76047e-11
3.94036e-08
-1.99808e-10
2.55381e-11
4.42277e-08
-2.80905e-10
3.46733e-11
4.91762e-08
-3.90001e-10
4.26103e-11
5.42996e-08
-5.0965e-10
4.32413e-11
5.95901e-08
2.24648e-11
6.49998e-08
-5.77462e-10
-4.36291e-11
2.17825e-11
2.84113e-08
-7.10406e-11
7.25763e-12
3.45005e-08
-9.6323e-11
8.63895e-12
3.94055e-08
-1.33461e-10
1.56419e-11
4.42297e-08
-1.92965e-10
2.45823e-11
4.91795e-08
-2.7634e-10
3.32478e-11
5.43029e-08
-3.70221e-10
3.64319e-11
5.95923e-08
2.08758e-11
6.49993e-08
-4.25366e-10
-2.88901e-11
2.84108e-08
-7.93701e-12
-4.47171e-11
3.45009e-08
-1.27692e-11
-5.68236e-11
3.94062e-08
-1.32584e-11
-7.59532e-11
4.42309e-08
-1.2708e-11
-1.09598e-10
4.91812e-08
-1.23925e-11
-1.58994e-10
5.4306e-08
-1.21636e-11
-2.17695e-10
5.95971e-08
-1.04491e-11
6.49993e-08
-3.61237e-12
-2.55474e-10
-1.65247e-11
2.18639e-11
-1.59649e-11
2.84704e-08
-4.32686e-11
2.32047e-12
-7.6938e-12
3.45293e-08
-6.78537e-11
-2.31502e-12
-6.51192e-12
3.94383e-08
-9.65798e-11
-2.40698e-12
-9.39687e-12
4.42828e-08
-1.35472e-10
-2.35988e-12
-1.24963e-11
4.92612e-08
-1.8174e-10
-2.7494e-12
-1.44151e-11
5.44134e-08
-2.21311e-10
-2.9971e-12
-1.32315e-11
5.97091e-08
-1.70363e-12
-6.3132e-12
-2.30716e-10
6.50514e-08
-1.57618e-12
1.62057e-11
2.84509e-08
-3.08979e-11
-2.63174e-12
3.45218e-08
-6.29148e-11
-6.89624e-12
3.94277e-08
-9.64556e-11
-1.03098e-11
4.42629e-08
-1.341e-10
-1.55772e-11
4.9228e-08
-1.69122e-10
-2.21e-11
5.43621e-08
-1.88079e-10
-2.58351e-11
5.9645e-08
-1.72055e-11
-1.77479e-10
6.50083e-08
-7.84365e-12
1.83529e-11
2.84347e-08
-5.22006e-11
4.91331e-12
3.45183e-08
-1.02212e-10
2.00574e-12
3.94249e-08
-1.59384e-10
8.904e-14
4.42558e-08
-2.281e-10
-2.98183e-12
4.92136e-08
-3.02595e-10
-7.24204e-12
5.43391e-08
-3.66636e-10
-1.09107e-11
5.96163e-08
-9.49213e-12
-3.85806e-10
6.49862e-08
-1.36842e-11
2.80035e-11
2.84183e-08
-6.25664e-11
1.53628e-11
3.45166e-08
-1.1876e-10
1.47184e-11
3.9426e-08
-1.88146e-10
1.80256e-11
4.42574e-08
-2.76379e-10
2.20626e-11
4.92161e-08