/*--------------------------------*- C++ -*----------------------------------*\
| =========                 |                                                 |
| \\      /  F ield         | OpenFOAM: The Open Source CFD Toolbox           |
|  \\    /   O peration     | Version:  plus.master.MPPICInterFoam            |
|   \\  /    A nd           | Web:      www.OpenFOAM.com                      |
|    \\/     M anipulation  |                                                 |
\*---------------------------------------------------------------------------*/
FoamFile
{
    version     2.0;
    format      ascii;
    class       volVectorField;
    location    "0.2";
    object      U;
}
// * * * * * * * * * * * * * * * * * * * * * * * * * * * * * * * * * * * * * //

dimensions      [0 1 -1 0 0 0 0];

internalField   nonuniform List<vector> 
11821
(
(5.60603e-07 1.53676e-06 0.000590786)
(4.09946e-07 8.39966e-07 0.000628418)
(5.16467e-07 5.96348e-07 0.00063474)
(6.34953e-07 4.73118e-07 0.000635595)
(5.88462e-07 4.74258e-07 0.000635261)
(3.75751e-07 5.8374e-07 0.0006348)
(-3.81979e-08 7.24936e-07 0.0006348)
(-5.60931e-07 7.58744e-07 0.000636236)
(1.49234e-07 1.64004e-06 0.000590966)
(1.23622e-07 7.41575e-07 0.000628478)
(2.89842e-07 5.18341e-07 0.00063481)
(4.58586e-07 4.99727e-07 0.000635704)
(4.25547e-07 5.94196e-07 0.000635419)
(1.75753e-07 7.41054e-07 0.000635007)
(-3.1836e-07 8.62052e-07 0.000635018)
(-9.57099e-07 6.70135e-07 0.000636325)
(-9.74222e-09 1.46927e-06 0.000591101)
(1.13798e-07 4.84937e-07 0.000628623)
(3.13537e-07 3.28816e-07 0.000634965)
(5.08039e-07 4.00547e-07 0.000635878)
(5.19144e-07 5.42297e-07 0.000635618)
(3.33833e-07 6.84436e-07 0.000635226)
(-8.96574e-08 7.42787e-07 0.000635235)
(-5.4672e-07 4.22489e-07 0.000636427)
(-1.10963e-07 9.18526e-07 0.000591231)
(2.07879e-07 1.93839e-07 0.000628776)
(4.44892e-07 9.95532e-08 0.000635118)
(6.32491e-07 1.54205e-07 0.000636032)
(6.49979e-07 2.16072e-07 0.000635783)
(4.89988e-07 2.45444e-07 0.000635408)
(1.17517e-07 2.27312e-07 0.000635426)
(-2.15855e-07 1.20891e-07 0.000636589)
(-1.78173e-07 2.76591e-07 0.00059136)
(1.60912e-07 -6.07106e-08 0.000628926)
(3.76398e-07 -9.3904e-08 0.000635266)
(5.0158e-07 -8.31577e-08 0.00063618)
(4.59574e-07 -1.24214e-07 0.000635939)
(2.44398e-07 -2.25118e-07 0.000635574)
(-1.97954e-07 -3.47546e-07 0.000635588)
(-6.41475e-07 -2.81949e-07 0.000636688)
(-6.09978e-08 -1.8897e-07 0.000591491)
(1.46741e-07 -2.06056e-07 0.000629062)
(2.71453e-07 -1.70022e-07 0.000635396)
(3.12596e-07 -1.55164e-07 0.000636306)
(1.92519e-07 -2.22957e-07 0.000636064)
(-1.00254e-07 -3.72288e-07 0.000635696)
(-5.64725e-07 -5.60195e-07 0.000635672)
(-1.10732e-06 -5.94867e-07 0.000636709)
(1.26716e-07 -4.30334e-07 0.000591614)
(1.75559e-07 -2.23752e-07 0.000629176)
(2.47698e-07 -1.25942e-07 0.000635502)
(2.79314e-07 -9.36444e-08 0.000636402)
(1.86399e-07 -1.52919e-07 0.000636147)
(-4.36295e-08 -2.96168e-07 0.000635755)
(-3.90633e-07 -4.88398e-07 0.000635706)
(-7.98579e-07 -6.49961e-07 0.000636756)
(9.72711e-07 1.31292e-06 0.000591301)
(5.9399e-07 7.00479e-07 0.000628392)
(4.88185e-07 6.1953e-07 0.000634701)
(4.48408e-07 6.66666e-07 0.000635711)
(3.16202e-07 7.92564e-07 0.000635591)
(6.8254e-08 9.55704e-07 0.000635336)
(-3.19756e-07 1.07756e-06 0.000635408)
(-8.37974e-07 9.5309e-07 0.000636544)
(7.62368e-07 1.55393e-06 0.000591474)
(4.69394e-07 7.05576e-07 0.000628509)
(4.07093e-07 5.97333e-07 0.00063483)
(3.92447e-07 6.919e-07 0.000635877)
(2.77431e-07 8.61266e-07 0.000635816)
(4.20765e-08 1.04057e-06 0.000635626)
(-3.33748e-07 1.13798e-06 0.000635742)
(-8.1323e-07 8.47796e-07 0.000636832)
(5.31582e-07 1.46403e-06 0.000591584)
(4.44585e-07 5.82617e-07 0.000628652)
(4.24615e-07 4.7076e-07 0.000634979)
(4.25352e-07 5.68113e-07 0.000636041)
(3.42916e-07 7.16212e-07 0.000636002)
(1.87494e-07 8.41833e-07 0.000635839)
(-1.03257e-07 8.58409e-07 0.000635967)
(-3.81409e-07 4.54623e-07 0.000636969)
(3.10446e-07 1.04753e-06 0.000591692)
(4.19695e-07 3.84616e-07 0.000628809)
(4.54283e-07 2.75584e-07 0.000635136)
(4.59249e-07 3.02426e-07 0.000636198)
(3.85478e-07 3.40134e-07 0.000636165)
(2.50023e-07 3.4733e-07 0.000636011)
(-1.06859e-08 2.96585e-07 0.000636134)
(-1.71761e-07 1.22207e-07 0.000637067)
(1.20675e-07 4.8559e-07 0.000591803)
(2.66717e-07 1.43522e-07 0.00062895)
(3.06662e-07 6.21099e-08 0.000635283)
(2.75817e-07 2.09909e-08 0.000636359)
(1.49146e-07 -4.8744e-08 0.000636351)
(-4.50762e-08 -1.51527e-07 0.000636222)
(-3.71786e-07 -2.66276e-07 0.000636333)
(-6.6491e-07 -2.09235e-07 0.000637145)
(1.11507e-07 4.36145e-08 0.000591906)
(1.77489e-07 -3.36834e-08 0.000629047)
(1.80665e-07 -7.51456e-08 0.000635384)
(1.12769e-07 -1.40512e-07 0.00063647)
(-5.22823e-08 -2.57524e-07 0.000636479)
(-3.21288e-07 -4.25763e-07 0.000636366)
(-6.99178e-07 -6.05965e-07 0.000636475)
(-1.14663e-06 -6.07417e-07 0.000637253)
(2.08104e-07 -2.19852e-07 0.000591994)
(1.307e-07 -1.07329e-07 0.000629108)
(9.78222e-08 -1.1933e-07 0.000635427)
(2.55533e-08 -1.99992e-07 0.000636497)
(-1.36581e-07 -3.47199e-07 0.000636476)
(-3.97177e-07 -5.52809e-07 0.000636312)
(-7.5248e-07 -7.89308e-07 0.000636365)
(-1.18459e-06 -9.8378e-07 0.000637124)
(1.24428e-06 1.45512e-06 0.000592091)
(6.8095e-07 8.26467e-07 0.00062909)
(5.18897e-07 7.65385e-07 0.000635365)
(4.003e-07 8.76682e-07 0.000636409)
(2.31118e-07 1.04703e-06 0.000636398)
(-3.95179e-08 1.23788e-06 0.000636272)
(-4.53746e-07 1.38147e-06 0.000636382)
(-1.04802e-06 1.26965e-06 0.000637237)
(8.50403e-07 1.62456e-06 0.000592191)
(4.62767e-07 8.47928e-07 0.000629215)
(3.50748e-07 7.5357e-07 0.00063548)
(2.63543e-07 8.78956e-07 0.000636527)
(1.13603e-07 1.06853e-06 0.000636527)
(-1.47091e-07 1.26403e-06 0.000636414)
(-5.64109e-07 1.36683e-06 0.000636518)
(-1.15099e-06 1.05112e-06 0.000637293)
(5.31968e-07 1.52082e-06 0.000592262)
(3.55947e-07 6.9737e-07 0.000629281)
(3.13114e-07 5.94257e-07 0.00063555)
(2.66091e-07 7.12684e-07 0.000636616)
(1.65449e-07 8.78997e-07 0.000636643)
(7.94803e-09 1.01957e-06 0.000636561)
(-2.89195e-07 1.0394e-06 0.000636674)
(-6.33238e-07 5.93493e-07 0.000637385)
(2.49354e-07 1.094e-06 0.000592289)
(2.84608e-07 4.52329e-07 0.000629314)
(3.10779e-07 3.53316e-07 0.000635599)
(2.90044e-07 3.99997e-07 0.0006367)
(2.13614e-07 4.63805e-07 0.000636771)
(1.04373e-07 4.96933e-07 0.000636731)
(-1.28056e-07 4.54672e-07 0.000636865)
(-3.24666e-07 2.3356e-07 0.000637505)
(1.71863e-08 5.22716e-07 0.000592324)
(1.30728e-07 1.48801e-07 0.00062932)
(1.7203e-07 7.13457e-08 0.00063563)
(1.37463e-07 4.90007e-08 0.000636786)
(3.63355e-08 7.3811e-09 0.000636922)
(-1.08492e-07 -6.65716e-08 0.000636949)
(-3.66578e-07 -1.70695e-07 0.000637105)
(-6.27181e-07 -1.62066e-07 0.00063764)
(-9.96078e-09 5.16709e-08 0.000592363)
(5.99137e-08 -8.6174e-08 0.000629294)
(6.27347e-08 -1.34888e-07 0.000635617)
(-8.15959e-09 -1.89629e-07 0.000636815)
(-1.51952e-07 -2.88723e-07 0.000636992)
(-3.7965e-07 -4.39798e-07 0.000637048)
(-7.14784e-07 -6.12311e-07 0.000637206)
(-1.15098e-06 -6.34542e-07 0.000637641)
(1.05257e-07 -2.60282e-07 0.000592384)
(5.77282e-08 -2.11661e-07 0.000629232)
(1.58626e-08 -2.41602e-07 0.000635559)
(-6.5215e-08 -3.16959e-07 0.000636784)
(-2.18876e-07 -4.50068e-07 0.000636981)
(-4.62539e-07 -6.44788e-07 0.000637041)
(-8.21278e-07 -8.89812e-07 0.000637189)
(-1.303e-06 -1.11386e-06 0.000637606)
(1.14493e-06 1.79051e-06 0.000591791)
(5.79331e-07 1.07401e-06 0.000628829)
(4.52689e-07 9.48353e-07 0.000635196)
(3.68509e-07 1.00996e-06 0.000636423)
(2.29827e-07 1.1361e-06 0.000636628)
(-2.77136e-08 1.29609e-06 0.000636716)
(-4.49728e-07 1.42325e-06 0.00063691)
(-1.07584e-06 1.30652e-06 0.00063739)
(5.44145e-07 1.84665e-06 0.00059184)
(2.25124e-07 1.01635e-06 0.000628814)
(1.83926e-07 8.77624e-07 0.000635172)
(1.76153e-07 9.72666e-07 0.000636414)
(9.49154e-08 1.14108e-06 0.000636635)
(-1.10145e-07 1.32447e-06 0.000636737)
(-4.97761e-07 1.41984e-06 0.000636939)
(-1.09202e-06 1.08976e-06 0.000637407)
(1.6787e-07 1.66577e-06 0.000591867)
(6.75784e-08 7.6653e-07 0.0006288)
(1.07138e-07 6.45591e-07 0.000635163)
(1.56941e-07 7.64612e-07 0.000636419)
(1.46525e-07 9.36671e-07 0.000636655)
(7.21406e-08 1.08117e-06 0.000636767)
(-1.39182e-07 1.08993e-06 0.000636971)
(-4.28525e-07 6.05883e-07 0.000637463)
(-1.10161e-07 1.15961e-06 0.000591897)
(1.78849e-08 4.35556e-07 0.000628782)
(1.13127e-07 3.43518e-07 0.000635157)
(1.89381e-07 4.29307e-07 0.000636447)
(2.12034e-07 5.33839e-07 0.000636722)
(2.10365e-07 6.01284e-07 0.00063687)
(1.23519e-07 5.66546e-07 0.000637083)
(5.24086e-08 2.86973e-07 0.000637532)
(-2.82526e-07 5.58092e-07 0.000591959)
(-4.87971e-08 8.06838e-08 0.000628772)
(4.43753e-08 1.98004e-08 0.000635169)
(9.41868e-08 6.57517e-08 0.000636517)
(9.42871e-08 9.58499e-08 0.000636856)
(7.04581e-08 8.76237e-08 0.000637063)
(-1.45401e-08 3.49477e-08 0.000637295)
(-9.94993e-08 1.72906e-08 0.000637621)
(-2.17312e-07 6.85473e-08 0.000592057)
(-4.28834e-09 -1.72264e-07 0.000628766)
(2.95758e-08 -2.08761e-07 0.000635178)
(2.44958e-08 -1.86726e-07 0.00063658)
(-3.04228e-08 -2.02476e-07 0.000636978)
(-1.26107e-07 -2.64942e-07 0.000637233)
(-2.79979e-07 -3.44902e-07 0.00063749)
(-5.11668e-07 -3.151e-07 0.000637715)
(-2.17425e-09 -2.62956e-07 0.000592131)
(9.83705e-08 -2.85589e-07 0.000628738)
(6.56976e-08 -3.11537e-07 0.000635159)
(2.20686e-08 -3.14082e-07 0.000636599)
(-6.95612e-08 -3.62906e-07 0.000637033)
(-2.12137e-07 -4.59397e-07 0.000637313)
(-4.2738e-07 -5.88727e-07 0.000637564)
(-7.44143e-07 -6.93614e-07 0.000637705)
(1.11019e-06 1.86191e-06 0.000591243)
(5.84826e-07 1.03634e-06 0.000628158)
(4.46409e-07 9.10285e-07 0.000634639)
(4.36472e-07 9.33622e-07 0.000636059)
(4.0926e-07 9.91766e-07 0.000636444)
(3.25504e-07 1.02665e-06 0.00063669)
(1.48581e-07 9.65181e-07 0.000636965)
(-1.7964e-07 6.09007e-07 0.000637281)
(6.27739e-07 1.87983e-06 0.000591267)
(2.98234e-07 9.16001e-07 0.000628031)
(2.25864e-07 7.8473e-07 0.00063451)
(2.74395e-07 8.67045e-07 0.000635948)
(2.95694e-07 9.99399e-07 0.00063635)
(2.7148e-07 1.09782e-06 0.0006366)
(1.59757e-07 1.05892e-06 0.000636876)
(-9.4064e-08 5.87623e-07 0.000637215)
(3.03327e-07 1.70034e-06 0.000591253)
(2.08341e-07 7.21972e-07 0.000628011)
(1.87618e-07 6.13662e-07 0.000634493)
(2.66002e-07 7.36785e-07 0.000635918)
(3.41736e-07 8.98873e-07 0.000636297)
(4.30196e-07 1.01117e-06 0.000636514)
(4.98336e-07 9.51285e-07 0.000636769)
(5.40417e-07 4.03989e-07 0.000637208)
(3.79455e-08 1.27835e-06 0.000591312)
(1.83994e-07 4.54937e-07 0.000628043)
(2.19459e-07 3.61134e-07 0.000634528)
(3.18248e-07 4.71264e-07 0.00063596)
(4.29446e-07 6.01807e-07 0.000636348)
(5.88908e-07 6.89814e-07 0.000636571)
(7.97327e-07 6.57562e-07 0.000636821)
(1.08109e-06 3.40725e-07 0.000637259)
(-1.068e-07 7.8226e-07 0.000591432)
(1.67711e-07 1.81649e-07 0.000628118)
(1.95822e-07 1.00241e-07 0.000634612)
(2.60182e-07 1.78935e-07 0.000636076)
(3.43746e-07 2.60072e-07 0.000636503)
(4.89566e-07 3.13889e-07 0.000636762)
(7.05152e-07 3.35853e-07 0.000637021)
(9.81626e-07 3.33158e-07 0.000637361)
(-2.92724e-08 3.72837e-07 0.00059162)
(2.46454e-07 1.5379e-08 0.000628233)
(2.19389e-07 -5.98638e-08 0.000634731)
(2.2036e-07 -1.03002e-08 0.000636226)
(2.38293e-07 3.70178e-08 0.000636694)
(3.13028e-07 7.69875e-08 0.000636991)
(4.45833e-07 1.35469e-07 0.000637263)
(5.68238e-07 2.64153e-07 0.000637484)
(2.12689e-07 7.6858e-08 0.000591778)
(3.67808e-07 -2.20043e-08 0.000628349)
(2.88698e-07 -9.5254e-08 0.00063485)
(2.55813e-07 -8.03179e-08 0.000636363)
(2.35831e-07 -6.18017e-08 0.00063686)
(2.52716e-07 -2.62229e-08 0.000637191)
(3.10072e-07 5.59436e-08 0.000637467)
(3.30677e-07 1.8183e-07 0.000637563)
(1.37906e-06 1.55356e-06 0.000591309)
(7.62415e-07 7.16631e-07 0.000628223)
(5.34481e-07 6.77587e-07 0.000634691)
(5.17782e-07 7.5464e-07 0.000636035)
(5.55518e-07 8.06144e-07 0.00063632)
(6.33827e-07 7.47618e-07 0.000636441)
(7.16647e-07 5.03498e-07 0.000636607)
(6.76956e-07 -7.66778e-08 0.000636951)
(1.16921e-06 1.63673e-06 0.00059128)
(6.85136e-07 6.70844e-07 0.000628179)
(4.76143e-07 6.07556e-07 0.00063465)
(4.49177e-07 7.21738e-07 0.000635979)
(4.87812e-07 8.36481e-07 0.000636244)
(5.92287e-07 8.57306e-07 0.000636344)
(7.31441e-07 6.89772e-07 0.000636499)
(7.92375e-07 1.22149e-07 0.000636885)
(8.70218e-07 1.57173e-06 0.00059124)
(6.47031e-07 6.53915e-07 0.000628214)
(4.72895e-07 5.82919e-07 0.000634675)
(4.39938e-07 7.12045e-07 0.000635958)
(5.01651e-07 8.54876e-07 0.000636166)
(6.67215e-07 9.25231e-07 0.000636207)
(9.17252e-07 8.0987e-07 0.000636334)
(1.16034e-06 2.56439e-07 0.00063685)
(5.72103e-07 1.36943e-06 0.000591267)
(5.96699e-07 5.43617e-07 0.000628283)
(4.89639e-07 4.45156e-07 0.00063474)
(4.83662e-07 5.50499e-07 0.000636008)
(5.77717e-07 6.7891e-07 0.000636201)
(8.02365e-07 7.62804e-07 0.000636226)
(1.1619e-06 7.22144e-07 0.000636346)
(1.58165e-06 3.79054e-07 0.000636881)
(3.69971e-07 1.07428e-06 0.000591377)
(5.46292e-07 4.10219e-07 0.000628388)
(4.47486e-07 2.90331e-07 0.000634848)
(4.20326e-07 3.50206e-07 0.000636133)
(4.92354e-07 4.38072e-07 0.000636354)
(7.0332e-07 5.15633e-07 0.000636407)
(1.0528e-06 5.61358e-07 0.000636529)
(1.45028e-06 5.19181e-07 0.000636976)
(3.53383e-07 7.67554e-07 0.000591549)
(5.58577e-07 3.46112e-07 0.000628536)
(4.36137e-07 2.15217e-07 0.000635)
(3.69713e-07 2.27733e-07 0.000636313)
(3.90871e-07 2.83276e-07 0.000636577)
(5.35973e-07 3.69441e-07 0.000636678)
(7.9164e-07 4.82017e-07 0.000636814)
(1.04019e-06 5.83307e-07 0.000637137)
(5.31552e-07 4.6665e-07 0.00059168)
(6.03673e-07 3.48715e-07 0.000628684)
(4.70533e-07 2.21511e-07 0.000635153)
(4.10396e-07 1.84276e-07 0.000636478)
(4.28348e-07 2.12687e-07 0.000636774)
(5.44805e-07 3.19624e-07 0.00063692)
(7.44858e-07 5.0336e-07 0.000637069)
(9.13478e-07 6.91445e-07 0.000637245)
(1.54529e-06 1.2911e-06 0.000591557)
(8.38735e-07 5.82541e-07 0.000628866)
(5.66195e-07 5.99897e-07 0.000635265)
(4.76154e-07 7.19126e-07 0.000636366)
(4.73597e-07 7.82308e-07 0.000636395)
(5.37745e-07 7.2569e-07 0.000636263)
(5.86929e-07 5.12277e-07 0.000636233)
(4.80515e-07 2.72397e-08 0.000636633)
(1.31676e-06 1.41666e-06 0.000591425)
(7.74806e-07 6.65064e-07 0.000628949)
(5.23499e-07 6.31373e-07 0.000635346)
(4.01875e-07 7.46925e-07 0.000636385)
(3.87274e-07 8.40313e-07 0.00063635)
(4.54089e-07 8.42597e-07 0.000636169)
(5.27554e-07 6.9174e-07 0.000636113)
(5.05871e-07 2.16251e-07 0.000636561)
(9.44402e-07 1.46105e-06 0.000591324)
(6.23823e-07 7.01944e-07 0.00062897)
(4.34148e-07 6.35222e-07 0.000635349)
(3.28731e-07 7.50534e-07 0.000636332)
(3.33672e-07 8.73771e-07 0.000636232)
(4.29766e-07 9.3294e-07 0.000635991)
(5.52781e-07 8.36311e-07 0.00063592)
(6.2634e-07 3.62961e-07 0.000636493)
(5.93104e-07 1.3805e-06 0.000591256)
(5.13822e-07 6.02744e-07 0.000628961)
(4.0391e-07 5.03936e-07 0.000635337)
(3.44742e-07 6.06884e-07 0.00063631)
(3.94486e-07 7.35084e-07 0.000636198)
(5.52244e-07 8.20861e-07 0.000635948)
(7.7645e-07 7.77011e-07 0.00063588)
(1.00487e-06 4.13995e-07 0.000636483)
(3.43191e-07 1.17198e-06 0.000591285)
(4.44443e-07 4.79757e-07 0.000628969)
(3.51188e-07 3.59045e-07 0.000635353)
(2.88517e-07 4.2681e-07 0.00063636)
(3.28253e-07 5.30425e-07 0.000636291)
(4.86141e-07 6.18393e-07 0.000636085)
(7.25661e-07 6.39982e-07 0.000636031)
(9.68508e-07 4.97274e-07 0.000636552)
(2.97163e-07 8.45088e-07 0.000591357)
(4.50773e-07 4.06605e-07 0.000629011)
(3.46214e-07 2.86893e-07 0.000635415)
(2.69258e-07 3.10424e-07 0.00063648)
(2.78919e-07 3.88394e-07 0.000636485)
(3.89027e-07 4.8944e-07 0.000636357)
(5.5897e-07 5.66095e-07 0.000636337)
(6.97533e-07 5.23455e-07 0.000636729)
(4.88378e-07 4.29752e-07 0.000591384)
(4.93275e-07 3.51082e-07 0.000629046)
(3.94927e-07 2.56762e-07 0.000635471)
(3.62304e-07 2.33111e-07 0.00063658)
(4.10602e-07 2.87561e-07 0.000636646)
(5.39354e-07 4.15148e-07 0.00063659)
(7.0455e-07 5.72427e-07 0.000636598)
(8.12144e-07 6.58921e-07 0.000636842)
(1.20653e-06 1.28929e-06 0.000591098)
(6.69814e-07 7.86494e-07 0.000628963)
(4.64016e-07 7.65971e-07 0.000635397)
(3.33397e-07 8.2353e-07 0.00063641)
(2.66674e-07 8.49119e-07 0.000636336)
(2.04883e-07 8.32188e-07 0.000636102)
(3.94551e-08 7.6827e-07 0.000635971)
(-2.4277e-07 5.10904e-07 0.000636328)
(7.18334e-07 1.38832e-06 0.000590896)
(3.66436e-07 8.69257e-07 0.000628981)
(2.37014e-07 7.93829e-07 0.000635413)
(1.4355e-07 8.46725e-07 0.00063637)
(1.03893e-07 8.99907e-07 0.000636237)
(5.45555e-08 9.22106e-07 0.000635958)
(-9.01024e-08 8.69509e-07 0.000635812)
(-3.09415e-07 5.47253e-07 0.000636242)
(2.56452e-07 1.43621e-06 0.000590707)
(5.69545e-08 7.67275e-07 0.000628872)
(8.94236e-09 6.73657e-07 0.000635291)
(-3.22673e-08 7.61256e-07 0.000636206)
(-3.48473e-08 8.68422e-07 0.000636018)
(-4.67261e-08 9.4002e-07 0.00063569)
(-1.3565e-07 9.00733e-07 0.000635542)
(-2.56046e-07 5.22287e-07 0.00063612)
(-6.62546e-08 1.32612e-06 0.000590575)
(-5.12908e-08 5.38991e-07 0.000628739)
(-3.98888e-08 4.44318e-07 0.000635155)
(-3.3374e-08 5.68968e-07 0.000636065)
(1.17933e-08 7.18408e-07 0.000635862)
(8.31565e-08 8.23299e-07 0.000635519)
(1.36588e-07 7.92948e-07 0.000635378)
(1.99136e-07 4.20688e-07 0.000636027)
(-2.44739e-07 1.08315e-06 0.000590543)
(-4.44107e-08 3.36043e-07 0.000628649)
(-3.73344e-08 2.46349e-07 0.000635077)
(-4.20045e-08 3.76028e-07 0.000636026)
(-3.22283e-09 5.31294e-07 0.000635868)
(9.08885e-08 6.51654e-07 0.000635567)
(2.19992e-07 6.66087e-07 0.000635449)
(3.9553e-07 4.46302e-07 0.000636036)
(-1.82637e-07 6.56147e-07 0.00059057)
(7.40718e-08 2.03096e-07 0.00062862)
(5.97117e-08 1.44395e-07 0.000635078)
(4.0409e-08 2.55053e-07 0.000636102)
(5.86094e-08 4.00875e-07 0.000636033)
(1.34406e-07 5.44706e-07 0.000635828)
(2.53986e-07 6.18764e-07 0.000635756)
(4.08653e-07 4.94908e-07 0.000636208)
(1.51007e-07 1.11038e-07 0.000590569)
(2.39963e-07 8.56682e-08 0.00062859)
(2.16694e-07 7.48066e-08 0.000635081)
(2.49911e-07 1.46289e-07 0.000636169)
(3.29277e-07 2.70226e-07 0.000636179)
(4.60807e-07 4.40017e-07 0.000636053)
(6.19143e-07 6.07283e-07 0.000636017)
(7.72365e-07 6.79157e-07 0.000636323)
(7.12774e-07 1.19748e-06 0.000590412)
(4.59946e-07 8.94698e-07 0.000628519)
(3.33834e-07 8.40464e-07 0.000635054)
(2.29664e-07 8.31785e-07 0.000636136)
(1.27768e-07 8.43156e-07 0.000636103)
(-2.16397e-08 8.68585e-07 0.00063589)
(-2.71902e-07 8.68924e-07 0.000635743)
(-5.09768e-07 6.59212e-07 0.000636001)
(2.36765e-07 1.33268e-06 0.000590208)
(3.89035e-08 8.71588e-07 0.000628345)
(-4.4809e-09 7.72313e-07 0.000634893)
(-4.169e-08 7.85843e-07 0.000635975)
(-1.01565e-07 8.27118e-07 0.000635931)
(-2.35279e-07 8.73514e-07 0.000635711)
(-4.60665e-07 8.69366e-07 0.000635585)
(-6.52794e-07 6.22022e-07 0.000635937)
(-1.75719e-07 1.361e-06 0.000589996)
(-2.81313e-07 6.70426e-07 0.000628123)
(-2.79688e-07 5.67015e-07 0.000634657)
(-2.84087e-07 6.44106e-07 0.000635712)
(-3.2688e-07 7.48992e-07 0.00063562)
(-4.38263e-07 8.33502e-07 0.000635347)
(-6.05392e-07 8.23429e-07 0.000635217)
(-7.01527e-07 5.26741e-07 0.000635769)
(-4.00172e-07 1.2769e-06 0.000589894)
(-3.25288e-07 4.15934e-07 0.000627968)
(-3.16209e-07 3.21597e-07 0.000634482)
(-3.15056e-07 4.62119e-07 0.00063551)
(-3.29743e-07 6.24053e-07 0.000635373)
(-3.64223e-07 7.38753e-07 0.000635047)
(-3.91964e-07 7.22274e-07 0.000634902)
(-3.05473e-07 3.71464e-07 0.0006356)
(-4.88187e-07 1.07268e-06 0.000589877)
(-2.33669e-07 2.43687e-07 0.000627903)
(-2.55441e-07 1.56969e-07 0.000634418)
(-2.88925e-07 3.20208e-07 0.000635452)
(-3.1802e-07 5.03577e-07 0.000635323)
(-3.10691e-07 6.44404e-07 0.000635003)
(-2.28139e-07 6.69191e-07 0.000634861)
(3.38139e-09 4.09113e-07 0.00063554)
(-3.41603e-07 6.6051e-07 0.00058994)
(-2.79735e-08 1.47771e-07 0.000627944)
(-6.49452e-08 9.69652e-08 0.000634481)
(-1.10205e-07 2.46717e-07 0.000635556)
(-1.41332e-07 4.27386e-07 0.000635488)
(-1.13516e-07 6.02331e-07 0.000635243)
(2.08525e-08 7.04717e-07 0.00063514)
(3.26381e-07 5.62235e-07 0.000635689)
(6.84558e-08 1.08052e-07 0.000590006)
(2.25041e-07 4.96789e-08 0.000627994)
(1.85348e-07 3.88772e-08 0.00063455)
(2.02232e-07 1.3989e-07 0.000635664)
(2.53881e-07 2.85136e-07 0.000635649)
(3.72663e-07 4.80349e-07 0.00063546)
(5.84214e-07 7.02388e-07 0.000635379)
(9.00318e-07 8.47186e-07 0.000635791)
(5.38081e-07 9.32492e-07 0.000590658)
(3.05965e-07 7.02689e-07 0.000628608)
(1.95548e-07 6.88824e-07 0.000635129)
(8.51398e-08 7.60794e-07 0.000636201)
(-5.4532e-08 8.67898e-07 0.000636145)
(-2.4324e-07 9.72981e-07 0.000635903)
(-4.63514e-07 9.96215e-07 0.000635697)
(-6.32389e-07 7.57636e-07 0.000635818)
(3.29222e-07 1.11704e-06 0.000590461)
(4.37339e-08 6.21046e-07 0.00062837)
(-4.83845e-08 5.54307e-07 0.00063491)
(-1.58039e-07 6.22875e-07 0.000636014)
(-3.09339e-07 7.14204e-07 0.000635986)
(-5.12822e-07 7.94762e-07 0.000635778)
(-7.28897e-07 8.09085e-07 0.000635628)
(-8.53961e-07 6.35198e-07 0.000635826)
(5.99024e-08 1.19886e-06 0.000590307)
(-1.73707e-07 4.76224e-07 0.000628153)
(-2.87204e-07 3.83496e-07 0.000634667)
(-4.38613e-07 4.80832e-07 0.000635737)
(-6.365e-07 5.95573e-07 0.000635657)
(-8.79593e-07 6.79349e-07 0.000635386)
(-1.11425e-06 6.84056e-07 0.000635226)
(-1.24645e-06 5.19239e-07 0.000635643)
(-9.54933e-08 1.25431e-06 0.000590239)
(-1.90715e-07 3.52301e-07 0.000628055)
(-3.3412e-07 2.44013e-07 0.000634538)
(-5.22076e-07 3.65674e-07 0.000635556)
(-7.37496e-07 5.05731e-07 0.0006354)
(-9.65741e-07 5.9603e-07 0.000635038)
(-1.16688e-06 5.71049e-07 0.000634838)
(-1.26603e-06 2.78003e-07 0.000635455)
(-2.10685e-07 1.17524e-06 0.000590217)
(-1.22379e-07 3.09178e-07 0.000628058)
(-2.87511e-07 1.92211e-07 0.00063453)
(-5.08508e-07 3.06738e-07 0.000635517)
(-7.35265e-07 4.48024e-07 0.000635327)
(-9.35221e-07 5.50254e-07 0.00063493)
(-1.05539e-06 5.30578e-07 0.000634706)
(-1.02946e-06 1.89914e-07 0.000635344)
(-1.31241e-07 8.56572e-07 0.000590273)
(4.93462e-08 2.9675e-07 0.000628163)
(-9.41036e-08 1.98117e-07 0.000634651)
(-2.88222e-07 2.8024e-07 0.000635639)
(-4.69745e-07 4.04095e-07 0.000635473)
(-5.99125e-07 5.27446e-07 0.000635113)
(-6.12794e-07 5.64911e-07 0.000634908)
(-4.18288e-07 2.87683e-07 0.000635447)
(2.11791e-07 3.55686e-07 0.00059035)
(2.76748e-07 1.9705e-07 0.000628267)
(1.69563e-07 1.20689e-07 0.000634757)
(7.76058e-08 1.35675e-07 0.000635752)
(1.94472e-08 2.01509e-07 0.000635604)
(3.33528e-08 3.24371e-07 0.000635273)
(1.56612e-07 4.75783e-07 0.00063507)
(4.08698e-07 5.14453e-07 0.000635499)
(5.21616e-07 9.45405e-07 0.000591518)
(1.70354e-08 6.45338e-07 0.000629169)
(-1.08126e-07 6.63752e-07 0.00063559)
(-2.65412e-07 8.52886e-07 0.000636645)
(-4.50347e-07 1.06577e-06 0.000636613)
(-6.85526e-07 1.27182e-06 0.000636395)
(-9.75044e-07 1.41155e-06 0.000636137)
(-1.32e-06 1.32226e-06 0.000635979)
(2.80659e-07 9.97039e-07 0.000591303)
(-1.537e-07 5.28148e-07 0.000629002)
(-2.97572e-07 4.82722e-07 0.000635423)
(-5.00757e-07 6.04376e-07 0.00063649)
(-7.18077e-07 7.3445e-07 0.000636483)
(-9.64425e-07 8.43782e-07 0.000636315)
(-1.2371e-06 9.13563e-07 0.000636125)
(-1.47515e-06 8.83024e-07 0.00063602)
(5.19075e-08 1.1035e-06 0.000591167)
(-3.54368e-07 3.98299e-07 0.000628823)
(-5.56277e-07 3.08615e-07 0.000635211)
(-8.43044e-07 4.07811e-07 0.000636234)
(-1.15167e-06 5.10864e-07 0.000636169)
(-1.5031e-06 5.75857e-07 0.000635933)
(-1.88727e-06 6.04653e-07 0.000635729)
(-2.22938e-06 6.13298e-07 0.000635818)
(-1.15627e-07 1.15723e-06 0.000591044)
(-3.87861e-07 3.21779e-07 0.00062874)
(-6.27734e-07 2.08082e-07 0.000635112)
(-9.74596e-07 2.95938e-07 0.000636081)
(-1.34302e-06 3.93602e-07 0.000635937)
(-1.76264e-06 4.40694e-07 0.000635608)
(-2.25517e-06 3.95323e-07 0.00063536)
(-2.73393e-06 1.73013e-07 0.000635638)
(-2.73352e-07 1.09126e-06 0.000590934)
(-3.6551e-07 2.97467e-07 0.000628725)
(-6.01147e-07 1.7759e-07 0.000635097)
(-9.61579e-07 2.38971e-07 0.00063603)
(-1.3431e-06 3.2771e-07 0.00063584)
(-1.76066e-06 3.67256e-07 0.000635464)
(-2.22432e-06 2.59269e-07 0.000635184)
(-2.61576e-06 -1.88578e-07 0.000635494)
(-2.64889e-07 7.81346e-07 0.000590891)
(-2.21438e-07 2.50238e-07 0.000628774)
(-3.88082e-07 1.55431e-07 0.00063517)
(-6.80775e-07 1.78958e-07 0.000636102)
(-9.82861e-07 2.44923e-07 0.000635919)
(-1.30534e-06 2.81855e-07 0.000635555)
(-1.62179e-06 1.69388e-07 0.000635278)
(-1.78311e-06 -3.32373e-07 0.000635537)
(1.85394e-08 2.28772e-07 0.000590881)
(8.11554e-09 3.42938e-08 0.000628799)
(-8.65077e-08 -3.83085e-08 0.000635209)
(-2.43137e-07 -8.0094e-08 0.000636146)
(-3.85762e-07 -8.10659e-08 0.000635975)
(-5.2593e-07 -7.44883e-08 0.000635623)
(-6.49356e-07 -1.21301e-07 0.00063534)
(-6.88221e-07 -3.43946e-07 0.000635525)
(2.08626e-07 1.23788e-06 0.000591867)
(-3.91577e-07 8.64223e-07 0.000629092)
(-5.14714e-07 8.4512e-07 0.000635553)
(-6.44255e-07 9.98309e-07 0.00063686)
(-8.05898e-07 1.19445e-06 0.000637124)
(-1.06646e-06 1.44799e-06 0.000637159)
(-1.4744e-06 1.73683e-06 0.000636965)
(-2.00495e-06 1.85649e-06 0.000636355)
(-2.88165e-07 1.03124e-06 0.000591643)
(-6.79791e-07 6.20682e-07 0.000628907)
(-8.07509e-07 5.60778e-07 0.000635354)
(-9.30928e-07 6.37413e-07 0.000636652)
(-1.07228e-06 7.28102e-07 0.000636918)
(-1.2862e-06 8.28203e-07 0.00063697)
(-1.60174e-06 9.47414e-07 0.000636826)
(-1.90147e-06 1.02378e-06 0.000636317)
(-5.33673e-07 1.04018e-06 0.000591429)
(-9.22201e-07 3.93932e-07 0.000628732)
(-1.11113e-06 3.02967e-07 0.000635161)
(-1.32194e-06 3.62124e-07 0.000636406)
(-1.57494e-06 4.16602e-07 0.0006366)
(-1.92478e-06 4.42782e-07 0.000636579)
(-2.37655e-06 4.80564e-07 0.000636418)
(-2.78352e-06 6.10044e-07 0.000636073)
(-6.72893e-07 9.40867e-07 0.000591242)
(-9.39429e-07 2.42145e-07 0.000628648)
(-1.16476e-06 1.49826e-07 0.000635078)
(-1.4506e-06 2.16018e-07 0.000636274)
(-1.80197e-06 2.79669e-07 0.000636398)
(-2.28365e-06 2.91024e-07 0.000636302)
(-2.92378e-06 2.29976e-07 0.000636112)
(-3.54923e-06 6.71848e-08 0.000635914)
(-7.87921e-07 7.87975e-07 0.00059107)
(-8.89226e-07 1.4084e-07 0.000628606)
(-1.09567e-06 5.9487e-08 0.000635049)
(-1.39644e-06 1.28676e-07 0.000636214)
(-1.77537e-06 2.0442e-07 0.000636297)
(-2.28402e-06 2.10482e-07 0.000636164)
(-2.9259e-06 5.30421e-08 0.000635951)
(-3.47688e-06 -4.29052e-07 0.000635767)
(-7.17243e-07 4.4645e-07 0.00059098)
(-6.70419e-07 7.71301e-09 0.000628609)
(-7.93328e-07 -3.19339e-08 0.000635076)
(-1.02884e-06 2.83119e-08 0.000636243)
(-1.33715e-06 9.67827e-08 0.000636321)
(-1.75384e-06 9.01608e-08 0.000636186)
(-2.24066e-06 -1.08278e-07 0.00063597)
(-2.53943e-06 -7.02368e-07 0.000635765)
(-3.80647e-07 -1.56242e-07 0.00059095)
(-3.2997e-07 -3.15232e-07 0.000628593)
(-3.7488e-07 -3.31067e-07 0.000635074)
(-4.90136e-07 -3.21374e-07 0.000636249)
(-6.44327e-07 -3.17934e-07 0.000636336)
(-8.7432e-07 -3.77249e-07 0.000636208)
(-1.15602e-06 -5.49732e-07 0.000635984)
(-1.3347e-06 -8.88761e-07 0.000635724)
(-1.53706e-07 1.13243e-06 0.000592043)
(-4.78942e-07 7.70323e-07 0.000628622)
(-6.00218e-07 7.51967e-07 0.000635199)
(-6.6846e-07 8.31184e-07 0.000636859)
(-7.74689e-07 9.79209e-07 0.000637481)
(-9.99962e-07 1.22147e-06 0.000637804)
(-1.35642e-06 1.50644e-06 0.000637709)
(-1.749e-06 1.60797e-06 0.000636637)
(-5.15454e-07 8.48171e-07 0.000591845)
(-7.39733e-07 4.25547e-07 0.000628373)
(-8.77412e-07 3.85541e-07 0.000634943)
(-9.33802e-07 4.20223e-07 0.000636574)
(-1.02731e-06 4.69589e-07 0.000637147)
(-1.20542e-06 5.36558e-07 0.000637411)
(-1.42445e-06 6.27068e-07 0.000637318)
(-1.51514e-06 7.0713e-07 0.000636466)
(-6.57816e-07 7.78723e-07 0.000591595)
(-9.02438e-07 2.59547e-07 0.000628264)
(-1.12748e-06 1.99843e-07 0.000634822)
(-1.30988e-06 2.20876e-07 0.000636377)
(-1.55184e-06 2.29091e-07 0.000636852)
(-1.89241e-06 2.17375e-07 0.000637027)
(-2.2622e-06 2.36215e-07 0.000636903)
(-2.47643e-06 4.09016e-07 0.000636195)
(-7.21416e-07 6.88725e-07 0.000591422)
(-9.05368e-07 1.77084e-07 0.000628256)
(-1.1596e-06 1.13877e-07 0.000634819)
(-1.43245e-06 1.54837e-07 0.000636315)
(-1.79737e-06 1.8478e-07 0.000636729)
(-2.28772e-06 1.70851e-07 0.000636861)
(-2.85311e-06 1.06465e-07 0.000636741)
(-3.32444e-06 -1.64629e-08 0.000636135)
(-7.93685e-07 6.10966e-07 0.000591278)
(-8.55358e-07 1.24051e-07 0.000628278)
(-1.08153e-06 6.67839e-08 0.000634849)
(-1.37313e-06 1.26717e-07 0.000636311)
(-1.76853e-06 1.79863e-07 0.000636693)
(-2.28584e-06 1.72622e-07 0.000636812)
(-2.85947e-06 2.59092e-08 0.000636692)
(-3.27414e-06 -4.26067e-07 0.00063607)
(-7.04148e-07 4.0181e-07 0.000591256)
(-6.15235e-07 3.97432e-08 0.000628333)
(-7.46776e-07 8.65273e-09 0.000634905)
(-9.84011e-07 6.73999e-08 0.000636349)
(-1.31602e-06 1.19044e-07 0.00063672)
(-1.74904e-06 1.02946e-07 0.000636832)
(-2.18951e-06 -7.90059e-08 0.000636704)
(-2.36365e-06 -6.3376e-07 0.000636062)
(-3.50328e-07 -1.03791e-07 0.000591312)
(-2.39131e-07 -2.60605e-07 0.000628382)
(-2.89585e-07 -2.86053e-07 0.000634946)
(-4.06408e-07 -2.78339e-07 0.000636386)
(-5.78886e-07 -2.91939e-07 0.000636754)
(-8.21241e-07 -3.68557e-07 0.000636874)
(-1.07224e-06 -5.265e-07 0.000636745)
(-1.16079e-06 -7.94434e-07 0.000636043)
(6.05063e-08 4.29668e-07 0.000592964)
(-1.39638e-07 2.53139e-07 0.000628998)
(-3.02796e-07 3.30379e-07 0.000635519)
(-4.14125e-07 4.67157e-07 0.000637215)
(-5.36624e-07 6.32099e-07 0.000637896)
(-7.01279e-07 8.1691e-07 0.000638282)
(-8.73259e-07 9.54079e-07 0.000638175)
(-9.99911e-07 9.11295e-07 0.000636771)
(1.43295e-07 2.49718e-07 0.000592754)
(-1.6099e-07 -1.85219e-08 0.000628856)
(-4.14202e-07 1.61684e-08 0.000635359)
(-6.29659e-07 8.39054e-08 0.000636962)
(-8.49941e-07 1.31298e-07 0.000637512)
(-1.06712e-06 1.57802e-07 0.000637748)
(-1.17269e-06 1.83154e-07 0.000637574)
(-1.05537e-06 3.03008e-07 0.000636447)
(9.06706e-08 3.01498e-07 0.000592569)
(-2.72975e-07 8.75016e-08 0.000628872)
(-6.21138e-07 8.03572e-08 0.000635349)
(-1.00115e-06 9.1009e-08 0.000636858)
(-1.40841e-06 7.9738e-08 0.000637304)
(-1.81771e-06 4.90161e-08 0.000637453)
(-2.13054e-06 5.61514e-08 0.000637251)
(-2.26529e-06 2.77605e-07 0.000636252)
(-2.13396e-08 4.5008e-07 0.000592398)
(-3.75188e-07 2.02293e-07 0.000628924)
(-7.24427e-07 1.65702e-07 0.000635411)
(-1.17388e-06 1.69576e-07 0.000636878)
(-1.668e-06 1.69807e-07 0.000637298)
(-2.17914e-06 1.50659e-07 0.000637453)
(-2.64297e-06 9.99923e-08 0.000637284)
(-3.02818e-06 -8.952e-09 0.000636303)