/*--------------------------------*- C++ -*----------------------------------*\
| =========                 |                                                 |
| \\      /  F ield         | OpenFOAM: The Open Source CFD Toolbox           |
|  \\    /   O peration     | Version:  plus.master.MPPICInterFoam            |
|   \\  /    A nd           | Web:      www.OpenFOAM.com                      |
|    \\/     M anipulation  |                                                 |
\*---------------------------------------------------------------------------*/
FoamFile
{
    version     2.0;
    format      ascii;
    class       volScalarField;
    location    "11.2";
    object      k;
}
// * * * * * * * * * * * * * * * * * * * * * * * * * * * * * * * * * * * * * //

dimensions      [0 2 -2 0 0 0 0];

internalField   nonuniform List<scalar> 
11822
(
0.0587229
0.0619878
0.0619604
0.0592937
0.0548439
0.0493803
0.0434085
0.069678
0.0739507
0.0732738
0.0689338
0.0626876
0.0556211
0.0484197
0.0777851
0.0835249
0.0842604
0.0784643
0.0699336
0.0610196
0.0524556
0.0784825
0.0824518
0.090278
0.0859298
0.0754754
0.06476
0.0550408
0.0740169
0.0781812
0.0879439
0.0876356
0.0775059
0.0659046
0.0556646
0.0733259
0.0761934
0.084534
0.084149
0.0747725
0.0638544
0.0540456
0.0700511
0.0740926
0.0780313
0.0755668
0.0678664
0.0589406
0.0502915
0.0582471
0.0614207
0.061446
0.0589213
0.0545936
0.049199
0.0432574
0.0686166
0.0725882
0.0720219
0.0681332
0.0622323
0.0553568
0.0482377
0.0763707
0.081505
0.0816072
0.0767616
0.0691058
0.0606118
0.0522272
0.0773223
0.0855566
0.0852355
0.082894
0.0741096
0.0641698
0.054759
0.071672
0.0817365
0.0838486
0.0840895
0.0757798
0.0652038
0.0553565
0.0691772
0.076067
0.0824788
0.0816013
0.0733746
0.0632467
0.0537723
0.0676093
0.073295
0.0764571
0.0740829
0.0670001
0.0585146
0.0500862
0.0580137
0.0612046
0.0612672
0.0587565
0.0544108
0.0489905
0.0430388
0.0681537
0.0722619
0.0718517
0.0680053
0.0620807
0.0551669
0.048016
0.0761308
0.0819695
0.0820353
0.0767902
0.0689743
0.0604412
0.0520146
0.0782521
0.0859421
0.0888242
0.0833124
0.0739467
0.0639954
0.0545554
0.073301
0.0806756
0.0880687
0.0847212
0.0754617
0.0649946
0.0551561
0.0701892
0.0762612
0.0835997
0.081601
0.0729589
0.0630106
0.0535738
0.0667872
0.0718339
0.0757564
0.0735438
0.0666376
0.0583024
0.0499042
0.0577982
0.0609528
0.0609775
0.0584061
0.0539937
0.0485387
0.0426052
0.0680436
0.0720917
0.0716931
0.067777
0.0617333
0.0547266
0.0475506
0.0767889
0.081716
0.0821599
0.0767934
0.0687562
0.0600603
0.0515565
0.0773751
0.0801201
0.0882852
0.0835431
0.073868
0.0636926
0.0541284
0.0720111
0.0784362
0.088513
0.0855018
0.0755874
0.0647636
0.0547656
0.0694481
0.0757528
0.0837344
0.08223
0.0728987
0.0627471
0.0531998
0.0674254
0.0738738
0.0768241
0.07379
0.0664757
0.0580195
0.0495544
0.057548
0.0606404
0.0605709
0.0579311
0.0535196
0.0481687
0.0424269
0.0678999
0.0720075
0.0714609
0.0673424
0.0611982
0.054222
0.0472076
0.0765748
0.0820349
0.0822702
0.0765854
0.0682915
0.059515
0.0511134
0.0767311
0.0807757
0.0868317
0.0837742
0.0735941
0.0631877
0.0536517
0.074315
0.0806594
0.0825926
0.0858701
0.0754248
0.0643238
0.0543073
0.0725886
0.0762944
0.0821602
0.0823888
0.072734
0.0623526
0.0527916
0.0677348
0.0737335
0.0765072
0.0736265
0.0662129
0.0576535
0.0492172
0.0570402
0.0600338
0.0599253
0.0573864
0.0532174
0.0482068
0.0428904
0.0672907
0.0712605
0.0704487
0.0663671
0.0604876
0.0539052
0.0473539
0.0756333
0.0805738
0.0808784
0.0752947
0.067259
0.0589183
0.051024
0.074585
0.0807778
0.0852406
0.0821364
0.0724169
0.0624282
0.053418
0.0730322
0.0727899
0.0821498
0.0836226
0.0743592
0.0635443
0.0540259
0.0725426
0.0743879
0.0802775
0.0811122
0.0719161
0.0616878
0.0525568
0.0672799
0.073205
0.0756082
0.0729384
0.0655336
0.0571407
0.0490992
0.0376498
0.0331804
0.0289204
0.0248738
0.0209825
0.017076
0.0126394
0.00533266
0.0416157
0.0361446
0.0311657
0.0265689
0.0222408
0.0179804
0.0132405
0.00553246
0.0448392
0.0386781
0.0331266
0.0280657
0.0233597
0.0187865
0.0137719
0.00573405
0.0468969
0.0403442
0.0344658
0.0291305
0.0241917
0.019416
0.0142111
0.00593992
0.0473856
0.0408327
0.0349492
0.0295943
0.0246204
0.0197931
0.0145144
0.00613668
0.0461689
0.0400797
0.0345414
0.0294294
0.0246199
0.0198944
0.0146627
0.0063196
0.0434863
0.0383501
0.0334253
0.0287391
0.0242346
0.0197225
0.014631
0.00647106
0.0375178
0.0330627
0.0288204
0.0247949
0.0209255
0.0170392
0.0126202
0.00534359
0.0414675
0.0360128
0.0310518
0.0264774
0.0221738
0.0179367
0.0132168
0.00554146
0.0446749
0.0385376
0.0330052
0.0279668
0.0232864
0.0187383
0.0137456
0.00574111
0.0467194
0.040203
0.0343457
0.0290321
0.0241178
0.0193668
0.0141842
0.00594512
0.0472076
0.0407005
0.0348402
0.0295052
0.0245528
0.0197476
0.0144892
0.00614025
0.0460118
0.0399666
0.0344508
0.0293559
0.0245636
0.0198556
0.0146403
0.00632175
0.0433604
0.0382594
0.0333551
0.0286833
0.0241917
0.0196917
0.0146116
0.00647084
0.037317
0.032894
0.0286921
0.0247096
0.0208802
0.0170264
0.0126284
0.00534401
0.0412439
0.0358147
0.0308956
0.0263698
0.0221133
0.0179155
0.0132229
0.00554399
0.0444446
0.0383221
0.0328273
0.0278383
0.0232081
0.0187035
0.0137419
0.00574092
0.0464935
0.0399841
0.0341581
0.0288903
0.0240253
0.019318
0.0141678
0.00593965
0.0469922
0.040491
0.0346566
0.0293616
0.0244541
0.0196897
0.0144625
0.00612991
0.0458097
0.0397749
0.0342823
0.0292213
0.0244673
0.0197951
0.014608
0.00630779
0.0431779
0.038092
0.0332089
0.0285647
0.024104
0.0196334
0.0145766
0.00645418
0.0369599
0.0326083
0.0284812
0.0245675
0.0207942
0.016979
0.0126017
0.00538315
0.0408318
0.0354786
0.0306452
0.0262004
0.0220104
0.017858
0.0131872
0.00557623
0.0440057
0.0379504
0.0325441
0.0276442
0.0230901
0.0186395
0.0137062
0.005774
0.046056
0.0396011
0.0338598
0.0286832
0.0238994
0.019253
0.0141389
0.00597831
0.0465766
0.0401211
0.0343642
0.0291564
0.0243293
0.0196283
0.0144423
0.00617223
0.0454245
0.039435
0.0340125
0.0290306
0.0243517
0.019741
0.0145966
0.00634907
0.0428308
0.0377913
0.0329699
0.0283948
0.0240007
0.0195869
0.0145723
0.00649158
0.0370173
0.0328517
0.0289114
0.0251746
0.0215527
0.0178381
0.0134574
0.00580145
0.040731
0.0355952
0.0309776
0.0267393
0.0227328
0.0187154
0.0140758
0.00604403
0.0437835
0.0379517
0.0327727
0.0280913
0.023733
0.019431
0.0145464
0.00623278
0.0457649
0.0395216
0.0340011
0.0290358
0.0244391
0.0199334
0.0148667
0.00637682
0.0462718
0.0400052
0.0344477
0.0294285
0.0247635
0.0201793
0.0150275
0.00648414
0.0451522
0.0393224
0.0340673
0.0292415
0.0246921
0.0201685
0.0150407
0.0065714
0.0426245
0.0377098
0.0330184
0.0285641
0.0242677
0.0199146
0.0149034
0.00664303
0.0379903
0.0342107
0.0306861
0.0273755
0.0241546
0.0207523
0.0164537
0.00837102
0.0414139
0.0367299
0.0325831
0.0288272
0.0252841
0.0216464
0.017154
0.00874243
0.0442311
0.0388728
0.0341855
0.0300094
0.0261433
0.0222577
0.0175653
0.00894335
0.0460542
0.0402786
0.03524
0.0307687
0.026655
0.0225635
0.0177022
0.00897887
0.04649
0.0406594
0.0355459
0.0309771
0.0267484
0.0225351
0.0175641
0.00885668
0.0453806
0.0399268
0.0350525
0.0306084
0.0264232
0.0222026
0.0172133
0.00864163
0.0429076
0.0382808
0.0338871
0.0297306
0.0257129
0.0215835
0.016663
0.00837008
0.0616187
0.0549695
0.0478582
0.0409267
0.0343474
0.0279459
0.0209869
0.010498
0.0679785
0.0601754
0.0521249
0.0442121
0.0367811
0.0297022
0.0221983
0.011023
0.070399
0.0634496
0.0547534
0.0460849
0.0380614
0.0305371
0.0226925
0.0111293
0.0716434
0.0635112
0.0543295
0.0456344
0.0376208
0.0301197
0.0223039
0.0107944
0.0687333
0.059693
0.050974
0.0429074
0.0354957
0.0284841
0.0210761
0.0100683
0.0612438
0.0531764
0.0456587
0.0387294
0.0322893
0.0260677
0.0193314
0.00915892
0.0520773
0.0457488
0.0397508
0.0340974
0.0287109
0.023364
0.017403
0.00819221
0.0603987
0.054246
0.0473003
0.0405015
0.0340343
0.0277207
0.0208325
0.0104612
0.0641438
0.0591568
0.0514822
0.0437388
0.0364474
0.0294724
0.0220438
0.0109865
0.0674858
0.0624341
0.0541027
0.0456275
0.0377636
0.030346
0.0225658
0.0110987
0.0707398
0.0627114
0.0537472
0.0452541
0.0373961
0.0299844
0.0222128
0.010772
0.0677551
0.0590426
0.0505657
0.0426802
0.0353781
0.0284181
0.021027
0.0100673
0.0606114
0.0528016
0.0454578
0.038637
0.032254
0.0260548
0.0193208
0.00916686
0.0517914
0.0455951
0.0396797
0.0340729
0.0287089
0.023369
0.0174058
0.0082039
0.0594379
0.053291
0.0465712
0.0399792
0.0336659
0.0274634
0.0206601
0.0104081
0.0637942
0.0581731
0.0506059
0.0431223
0.0360177
0.0291661
0.0218254
0.0109013
0.0667087
0.0612619
0.0531532
0.0450079
0.0373492
0.0300494
0.0223429
0.0109995
0.069629
0.0616625
0.0530521
0.0448158
0.0370993
0.0297625
0.0220383
0.0106928
0.0671499
0.0585065
0.0502285
0.0424593
0.0352184
0.0282896
0.0209174
0.0100212
0.0602413
0.0525535
0.045303
0.0385329
0.0321763
0.025992
0.0192676
0.00914738
0.0516052
0.0454626
0.0395839
0.0340007
0.0286544
0.0233285
0.0173754
0.00819494
0.0595428
0.052792
0.0461163
0.0396269
0.0334095
0.0272901
0.0205595
0.0103995
0.065455
0.0581298
0.0500975
0.0426696
0.0356584
0.0288972
0.021643
0.0108457
0.0685387
0.0613166
0.0526055
0.0445266
0.0369563
0.0297447
0.0221273
0.0109211
0.0706744
0.061744
0.0526952
0.044453
0.0367894
0.0295205
0.0218692
0.0106378
0.0673584
0.0583656
0.0499947
0.0422272
0.0350198
0.0281384
0.0208165
0.00999896
0.0600857
0.0523698
0.0451246
0.0383762
0.0320543
0.0259122
0.019228
0.0091511
0.0514087
0.0452769
0.0394206
0.0338722
0.0285691
0.0232874
0.0173707
0.00821247
0.0595345
0.052605
0.0459308
0.0394692
0.0332929
0.0272283
0.0205612
0.0104808
0.0664296
0.0579857
0.0497877
0.0423755
0.0354123
0.0287295
0.0215743
0.0109135
0.0698031
0.0611975
0.052288
0.0441968
0.0366586
0.0295323
0.0220338
0.0109865
0.0701319
0.0613446
0.052346
0.0441487
0.0365345
0.029359
0.0218191
0.0107207
0.0670547
0.0580936
0.0497497
0.0420077
0.0348591
0.0280658
0.020831
0.0100898
0.0598895
0.0521724
0.044945
0.0382456
0.0319965
0.0259307
0.0193063
0.00924092
0.0512034
0.0451022
0.0393018
0.0338263
0.0285992
0.0233813
0.0175004
0.00829484
0.058823
0.0522067
0.0456599
0.0392647
0.0331626
0.0271829
0.0206062
0.011163
0.0654794
0.0570742
0.0492531
0.0420386
0.0352021
0.0286419
0.0216081
0.0116247
0.0696533
0.0606992
0.0518658
0.0438954
0.0364848
0.0294961
0.0221283
0.011748
0.0697163
0.060989
0.0519668
0.0439034
0.03645
0.0294314
0.0220229
0.0115348
0.0664903
0.0576377
0.0494296
0.0418637
0.0349035
0.0282795
0.0211718
0.0109448
0.0594179
0.0518468
0.0447921
0.0382836
0.0322236
0.0263215
0.0198083
0.010158
0.0509379
0.0450194
0.0394129
0.0341295
0.0290778
0.0240034
0.0182079
0.00931375
0.0505993
0.0444667
0.0386058
0.0330691
0.0278004
0.0225842
0.0167799
0.00774381
0.0528391
0.0457848
0.0393553
0.0334404
0.0279082
0.0225139
0.0166051
0.00742089
0.0528765
0.0455894
0.0389944
0.0329802
0.0274004
0.0220044
0.0161451
0.00703387
0.0508216
0.0438313
0.0374816
0.0316832
0.0263024
0.0211006
0.0154535
0.00661699
0.0472394
0.0408715
0.0350609
0.0297254
0.024744
0.0198957
0.0145867
0.00619836
0.0427728
0.0372197
0.0321283
0.0274055
0.0229452
0.0185497
0.0136673
0.00578688
0.0378629
0.0333725
0.0290974
0.0250334
0.0211197
0.0171856
0.0127171
0.00540103
0.0503663
0.0443452
0.0385489
0.0330474
0.027796
0.0225852
0.0167795
0.00775068
0.0525794
0.0456563
0.0392935
0.0334119
0.0278957
0.02251
0.016605
0.00742997
0.0526356
0.0454624
0.0389208
0.0329334
0.0273708
0.0219883
0.0161385
0.00704258
0.0506285
0.0437104
0.0373952
0.0316187
0.0262574
0.0210744
0.0154416
0.00662483
0.047084
0.0407535
0.0349647
0.0296486
0.0246874
0.0198583
0.0145654
0.00620845
0.0426363
0.0371032
0.0320299
0.0273273
0.0228884
0.0185118
0.0136431
0.00580059
0.0377367
0.033261
0.0290038
0.0249605
0.0210683
0.0171538
0.0127015
0.00541271
0.0502039
0.0442207
0.0384487
0.0329687
0.0277356
0.0225421
0.0167499
0.00773892
0.0524141
0.045519
0.0391767
0.0333158
0.0278249
0.0224651
0.0165805
0.00742329
0.0524642
0.0453019
0.0387763
0.0328152
0.0272858
0.0219362
0.0161121
0.00703749
0.050445
0.0435283
0.0372314
0.0314877
0.0261659
0.0210198
0.0154151
0.00661906
0.0468824
0.0405587
0.0347967
0.0295195
0.0246002
0.0198082
0.0145434
0.00619837
0.0424259
0.0369132
0.0318757
0.0272159
0.0228187
0.0184759
0.0136282
0.00579504
0.0375389
0.0330937
0.0288755
0.0248735
0.0210195
0.0171357
0.012703
0.00540879
0.0499658
0.0440028
0.0382635
0.0328271
0.0276458
0.0225022
0.0167489
0.0077641
0.0521322
0.0452536
0.0389511
0.0331484
0.0277228
0.022423
0.0165831
0.00745795
0.0521317
0.0449866
0.0385127
0.0326233
0.0271703
0.0218875
0.0161115
0.00707915
0.0500635
0.0431783
0.0369478
0.0312864
0.0260461
0.0209682
0.015412
0.00666625
0.0464722
0.040202
0.0345197
0.0293289
0.0244888
0.0197605
0.0145402
0.00624282
0.042025
0.0365835
0.0316296
0.0270514
0.0227245
0.0184346
0.0136186
0.00584325
0.0371888
0.0328151
0.0286715
0.0247388
0.0209425
0.0171007
0.0126937
0.00545333
0.0497295
0.0438177
0.0381552
0.0328111
0.027717
0.0226389
0.0169136
0.00785677
0.0518229
0.045016
0.0388237
0.0331424
0.0278252
0.0226031
0.0167939
0.00757938
0.0517643
0.0447261
0.0383989
0.0326591
0.0273335
0.0221399
0.0163967
0.00724238
0.0496856
0.0429533
0.0368986
0.0314049
0.0263049
0.0213254
0.0158018
0.00688338
0.0461661
0.0400804
0.0345877
0.029573
0.0248813
0.0202573
0.0150657
0.00651835
0.0418645
0.0366173
0.0318523
0.0274486
0.023269
0.0190784
0.0142712
0.00617159
0.037225
0.0330285
0.0290603
0.0252917
0.0216332
0.0178794
0.0134624
0.00581891
0.0494914
0.043806
0.0383775
0.0332596
0.0283714
0.0234606
0.0178274
0.00901503
0.0515522
0.0450487
0.0391544
0.0337563
0.0286989
0.0236909
0.0179992
0.00897077
0.0515264
0.0448505
0.0388717
0.0334662
0.0284533
0.0235251
0.0179304
0.00889908
0.0495928
0.0432496
0.0375776
0.0324617
0.027724
0.0230564
0.0177033
0.00881887
0.0463249
0.0406388
0.0355513
0.0309477
0.0266573
0.0223789
0.0173643
0.00871395
0.0423668
0.0375191
0.0331667
0.0291867
0.0254188
0.0215738
0.0169186
0.00855841
0.0381502
0.0343219
0.0307508
0.0273903
0.024118
0.0206681
0.016337
0.00829471
0.0445249
0.0392783
0.0342835
0.0295297
0.024946
0.0203337
0.015112
0.00678138
0.0518694
0.0452687
0.0391262
0.033399
0.0279818
0.02265
0.0167655
0.00757832
0.0591256
0.0512735
0.0439637
0.0372243
0.0309535
0.0248937
0.0183462
0.00838805
0.0652449
0.0562618
0.0479932
0.0404103
0.0334395
0.0268032
0.019745
0.00916454
0.0683284
0.0589236
0.050242
0.0422551
0.0349365
0.0280139
0.0206964
0.00980801
0.0670063
0.0584596
0.0500947
0.0423164
0.0351318
0.0282973
0.021029
0.0102004
0.0626076
0.0551817
0.0478048
0.0407574
0.0341257
0.0277052
0.0207493
0.010301
0.044402
0.0391998
0.0342287
0.0294894
0.0249172
0.0203148
0.0150991
0.00678405
0.0516304
0.0451441
0.0390634
0.0333664
0.0279667
0.0226446
0.0167559
0.00757928
0.0586477
0.0510244
0.0438505
0.0371805
0.0309383
0.0248862
0.0183367
0.00838329
0.0644118
0.0558144
0.0477728
0.0403162
0.0334022
0.0267835
0.0197265
0.00915744
0.067327
0.0583247
0.0498992
0.0420804
0.0348536
0.0279691
0.0206611
0.00979841
0.0661319
0.0578482
0.0496758
0.0420514
0.0349722
0.0281992
0.0209643
0.0101897
0.0617568
0.0545795
0.0473399
0.0404119
0.0338785
0.0275312
0.0206299
0.0102739
0.0442367
0.0390487
0.0340965
0.0293813
0.0248358
0.0202591
0.0150639
0.00677476
0.0514626
0.0450028
0.0389397
0.0332605
0.0278825
0.0225815
0.0167127
0.0075649
0.0584124
0.0508651
0.0437283
0.0370781
0.0308526
0.024818
0.0182878
0.00836221
0.0640086
0.0555665
0.0476052
0.0401875
0.0332955
0.0266943
0.0196519
0.00912242
0.0665355
0.0578153
0.0495935
0.0418755
0.0347028
0.0278487
0.0205637
0.00975137
0.0650907
0.0570527
0.0491752
0.0417232
0.0347475
0.0280389
0.0208485
0.0101411
0.0606716
0.0536892
0.0467064
0.0399693
0.0335711
0.0273168
0.0204829
0.0102233
0.0439211
0.0387706
0.033874
0.0292231
0.024741
0.0202181
0.0150657
0.0068015
0.051173
0.0447231
0.0386944
0.0330695
0.0277548
0.0225156
0.0166954
0.00757984
0.0581951
0.0506206
0.0434909
0.0368759
0.0307062
0.0247322
0.0182568
0.00837057
0.0640008
0.0553856
0.0473777
0.0399723
0.0331234
0.0265783
0.0195884
0.00911908
0.0669197
0.0576886
0.0493558
0.0416378
0.0345051
0.0277078
0.0204784
0.00973163
0.0654212
0.0567918
0.0488699
0.0414547
0.0345379
0.0278912
0.0207566
0.0101203
0.0603495
0.0532037
0.0463074
0.0396671
0.0333525
0.0271684
0.020395
0.0102102
0.0436883
0.0386413
0.0338532
0.0293062
0.0249102
0.020443
0.0153018
0.00691102
0.0508507
0.0444694
0.0385365
0.0330175
0.0278042
0.0226427
0.0168595
0.00767948
0.0578835
0.0503248
0.0432539
0.0367264
0.0306521
0.0247753
0.0183628
0.00846504
0.0637299
0.0550987
0.0471168
0.0397744
0.0330089
0.0265561
0.0196384
0.00920863
0.0666308
0.0574196
0.049115
0.0414324
0.0343579
0.0276488
0.0205004
0.00981616
0.0651509
0.0565636
0.0486744
0.0412772
0.0344038
0.0278265
0.020766
0.0101992
0.0602213
0.0530445
0.0461569
0.0395323
0.0332559
0.027125
0.02041
0.0102851
0.0438628
0.0390615
0.0345276
0.0302291
0.0260619
0.0217734
0.0167087
0.00840137
0.0506024
0.044477
0.0388106
0.0335551
0.0285814
0.023607
0.0179233
0.00896959
0.057397
0.0500431
0.0432168
0.0369539
0.0311328
0.0254554
0.0191516
0.00958632
0.0631839
0.0546871
0.0469085
0.0398018
0.0332744
0.027016
0.0202204
0.0102029
0.0662738
0.0570374
0.0488604
0.0413592
0.0344848
0.0279416
0.0209024
0.010699
0.0649539
0.0562831
0.0484562
0.0411751
0.034435
0.0279806
0.0210119
0.0109842
0.0599347
0.0528097
0.045968
0.0394023
0.033204
0.0271612
0.0205319
0.0109955
0.00156118
0.00376907
0.00482105
0.00539474
0.00558796
0.00547585
0.00513606
0.00464426
0.00153108
0.00370385
0.00474082
0.00530893
0.00550413
0.00540077
0.00507551
0.00460163
0.00152795
0.00369633
0.00472799
0.00528917
0.00547653
0.00536615
0.00503713
0.00456492
0.00155627
0.00375385
0.00479737
0.00535759
0.00553564
0.00541145
0.00506804
0.00458443
0.00161929
0.00388336
0.00495379
0.00551921
0.00568801
0.00554515
0.00517846
0.00467155
0.00171427
0.00407713
0.00518324
0.00575647
0.00591392
0.00574584
0.00534522
0.00480083
0.00181845
0.00428642
0.0054255
0.00600368
0.00614746
0.00595257
0.00551726
0.00493516
0.00204937
0.00508741
0.00647205
0.0071469
0.00727387
0.0069823
0.00640012
0.00564605
0.0019969
0.00497985
0.00634019
0.00700502
0.00713247
0.00685089
0.00628823
0.00556067
0.00199233
0.00496677
0.00631894
0.00697326
0.00708782
0.00679273
0.00622002
0.00549161
0.00204037
0.00505933
0.00642628
0.00707659
0.00717475
0.00685606
0.00625809
0.00550876
0.00214042
0.00526117
0.00666313
0.00731762
0.00739963
0.00705105
0.00641575
0.00562852
0.00228553
0.00555701
0.00700645
0.00766975
0.00773384
0.00734733
0.00666062
0.00581557
0.00244005
0.00587148
0.00736363
0.0080316
0.00807473
0.00764899
0.00691247
0.00601408
0.00282001
0.00705193
0.00887007
0.00961282
0.00956855
0.00895622
0.00798312
0.00683213
0.00273048
0.00688679
0.00867108
0.00940034
0.00935564
0.00875371
0.00780484
0.00669292
0.00272435
0.00686679
0.00864142
0.00935828
0.0092965
0.00867272
0.00770157
0.00658008
0.00280092
0.00700463
0.00879733
0.00950724
0.00942151
0.00876271
0.00775172
0.00659477
0.00294793
0.00729414
0.00913056
0.00984484
0.00973674
0.00903623
0.00797101
0.00675656
0.00315136
0.0077137
0.00961036
0.0103367
0.0102056
0.00945418
0.008317
0.00701814
0.00335721
0.00815779
0.0101054
0.0108358
0.0106749
0.00986764
0.00866034
0.00728795
0.00433663
0.0101261
0.0124269
0.0131152
0.0127001
0.0115333
0.00993975
0.00820014
0.00417989
0.00987446
0.0121359
0.012814
0.0124033
0.0112475
0.00967813
0.00799361
0.00417334
0.00984671
0.0120979
0.0127646
0.0123372
0.0111542
0.00954205
0.00782627
0.00428506
0.0100351
0.0123087
0.0129674
0.0125107
0.0112832
0.00961562
0.00784602
0.00447073
0.0104077
0.0127386
0.0134083
0.0129287
0.0116519
0.00991386
0.00805991
0.00470598
0.0109449
0.0133565
0.0140514
0.0135526
0.0122177
0.0103888
0.00841577
0.00491435
0.0115174
0.0139931
0.0146981
0.0141631
0.0127517
0.0108253
0.00875
0.00822715
0.0152661
0.0178153
0.0181114
0.0169488
0.0148393
0.012276
0.0096917
0.00796117
0.0148435
0.01736
0.0176704
0.0165377
0.0144505
0.0118997
0.00939524
0.00795259
0.014798
0.0173017
0.0176035
0.0164618
0.0143533
0.0117208
0.00914092
0.00807197
0.0150374
0.0175696
0.0178639
0.0166881
0.0145268
0.0118218
0.00916541
0.00821063
0.01546
0.0180793
0.0184049
0.0172141
0.0150027
0.0122153
0.00943597
0.0083527
0.0160663
0.0188119
0.0191979
0.0180101
0.0157461
0.012853
0.0099019
0.00841631
0.0167068
0.0195643
0.0199918
0.0187775
0.016413
0.0133815
0.0102739
0.018044
0.0242782
0.0260178
0.0251313
0.0225
0.0187122
0.0146365
0.0109534
0.0176078
0.0235697
0.0252582
0.0244257
0.0218785
0.0181619
0.0141091
0.0106094
0.0175657
0.0234558
0.0251317
0.0243029
0.021761
0.0180433
0.0138451
0.0102594
0.0176841
0.023743
0.0254649
0.0246291
0.0220342
0.0182357
0.013958
0.0103181
0.0177325
0.0241812
0.0260499
0.0252863
0.0226829
0.0188208
0.0144629
0.0107085
0.0177503
0.0247983
0.0268824
0.0262507
0.0236953
0.0197943
0.0153011
0.0113178
0.0176068
0.0253992
0.0277119
0.0272128
0.0246822
0.0206646
0.0159284
0.0116656
0.00279128
0.0062227
0.00789898
0.00880958
0.00911666
0.00891688
0.0083202
0.00745111
0.00279541
0.00625942
0.00796115
0.00889771
0.00923034
0.00905252
0.00847129
0.00760933
0.00274407
0.00617886
0.00787367
0.00881241
0.00915461
0.00899273
0.0084311
0.0075894
0.00265209
0.00600692
0.00765507
0.00856512
0.00889603
0.00873857
0.00819465
0.00737964
0.00252411
0.00575363
0.00732302
0.00818175
0.00848368
0.00832035
0.00779197
0.00700912
0.00238193
0.00546042
0.00693754
0.00773182
0.00799319
0.00781543
0.00729858
0.00654941
0.00223624
0.00515619
0.00653511
0.00725773
0.00747082
0.00727126
0.00676074
0.0060438
0.00375724
0.00842463
0.0106613
0.0118232
0.01212
0.0117075
0.0107548
0.00945531
0.00375601
0.00846184
0.0107339
0.011927
0.0122573
0.0118748
0.0109435
0.00965352
0.0036883
0.00835768
0.0106237
0.0118125
0.0121528
0.0117911
0.0108866
0.00962462
0.00356359
0.00813245
0.010344
0.0114887
0.0118105
0.0114539
0.0105747
0.00935133
0.0033888
0.00780221
0.00991188
0.0109835
0.0112624
0.0108963
0.01004
0.00886385
0.00320338
0.00743345
0.00941777
0.0103988
0.0106187
0.0102305
0.00939056
0.00826305
0.00301403
0.00705292
0.00890189
0.00978358
0.00993407
0.00951216
0.00867874
0.00759524
0.00508538
0.0114838
0.0144514
0.0158918
0.0161112
0.0153499
0.0138507
0.0119068
0.00507556
0.0115121
0.0145189
0.0159975
0.0162617
0.0155438
0.0140765
0.0121463
0.00498789
0.0113782
0.0143689
0.0158337
0.016108
0.0154183
0.0139902
0.0121007
0.00482868
0.0110983
0.0140157
0.0154123
0.0156566
0.0149715
0.01358
0.0117493
0.00459528
0.0106803
0.0134785
0.0147608
0.0149381
0.014235
0.0128761
0.0111182
0.0043599
0.0102401
0.0128688
0.0140232
0.0141101
0.0133671
0.0120286
0.0103434
0.00411815
0.00978457
0.012232
0.0132534
0.0132395
0.0124408
0.0111062
0.00948281
0.00689877
0.0157311
0.0196215
0.0213026
0.0213406
0.0200537
0.0177452
0.0148399
0.00687977
0.0157209
0.0196503
0.0213791
0.0214791
0.0202587
0.0180023
0.0151196
0.00677161
0.0155383
0.019425
0.0211274
0.021237
0.0200551
0.0178596
0.0150426
0.00657813
0.0152093
0.0189724
0.0205762
0.0206391
0.019456
0.0173116
0.0145891
0.00628822
0.0147278
0.0183164
0.0197541
0.0197102
0.0184841
0.0163767
0.0137679
0.00600392
0.0142532
0.0176121
0.018867
0.0186722
0.01736
0.0152657
0.0127663
0.00571629
0.0137481
0.0168723
0.017952
0.0176038
0.0161895
0.0140843
0.0116758
0.00897001
0.0217934
0.0265576
0.0283194
0.0280546
0.0260401
0.0225779
0.0182417
0.00888107
0.0217099
0.0265101
0.0283279
0.0281485
0.0262377
0.0228605
0.0185593
0.00872411
0.0214665
0.0261579
0.0279411
0.0277646
0.0258967
0.0226121
0.0184268
0.0085299
0.0211127
0.0255605
0.0272292
0.0269794
0.0250844
0.0218632
0.0178352
0.00839593
0.0206272
0.0247859
0.026241
0.0258151
0.0238066
0.0205907
0.0167141
0.00842959
0.0201653
0.0240639
0.0252555
0.0245659
0.0223655
0.0191157
0.015389
0.00854411
0.0195868
0.0232564
0.0242181
0.0232895
0.0209002
0.0175929
0.0140063
0.0143757
0.030496
0.0354309
0.0371363
0.0364572
0.0334136
0.0281975
0.0217394
0.0142392
0.0302982
0.0352984
0.0370617
0.0364928
0.0336006
0.0285022
0.0220787
0.0139484
0.0299372
0.034829
0.0365385
0.0359365
0.0330585
0.0280783
0.0218536
0.0139621
0.0295205
0.034129
0.0356966
0.0349648
0.0319606
0.0270357
0.0210698
0.0145836
0.0292052
0.033384
0.0346383
0.0336121
0.0303353
0.0253087
0.0195095
0.0157853
0.028929
0.032773
0.0336229
0.0321547
0.0285137
0.0233367
0.0177062
0.0165998
0.0283437
0.0319073
0.0324201
0.0305828
0.0266497
0.0213513
0.0159118
0.00210294
0.00487643
0.0061673
0.00682593
0.00699509
0.00677425
0.00626776
0.00558016
0.00198347
0.004635
0.00585754
0.00647372
0.00662013
0.00639547
0.00590303
0.00524517
0.00187629
0.00442396
0.00559314
0.00618623
0.00633043
0.00612027
0.00565414
0.00502929
0.00177738
0.00422105
0.00534464
0.00592125
0.00607044
0.00588154
0.00544734
0.00485943
0.00170102
0.00405797
0.00514736
0.00571361
0.00586895
0.0056981
0.00528927
0.0047295
0.00164603
0.00394451
0.00501455
0.00557937
0.00574488
0.00559163
0.00520393
0.00466523
0.00160323
0.00385925
0.00492108
0.00549188
0.00567254
0.00554039
0.00517623
0.00465968
0.00284378
0.00670235
0.00842934
0.00922265
0.00931018
0.00885411
0.00802051
0.0069731
0.0026822
0.00638182
0.00801156
0.00874629
0.00880348
0.00834373
0.00753118
0.00652637
0.00252438
0.00607507
0.00762633
0.00832871
0.00838557
0.00795142
0.00718236
0.00622954
0.0023714
0.00576144
0.00724601
0.00792646
0.00799317
0.00759356
0.0068754
0.00598017
0.00225661
0.00551277
0.0069495
0.00761743
0.00769606
0.0073258
0.00664775
0.00579612
0.00217684
0.0053453
0.00675529
0.00742219
0.0075166
0.00717286
0.00652646
0.00570728
0.00211534
0.0052222
0.00662184
0.00729566
0.0074088
0.00709242
0.00647803
0.00569017
0.00390233
0.00935477
0.0116359
0.0125413
0.0124413
0.0115904
0.0102466
0.00866378
0.0036861
0.00892134
0.0110664
0.0118936
0.0117548
0.0109035
0.00959362
0.00807346
0.00346523
0.00846893
0.0105054
0.0112878
0.0111505
0.0103414
0.00910317
0.00766532
0.00325643
0.00798939
0.00993903
0.0106934
0.0105725
0.00981596
0.00865606
0.00730507
0.00309504
0.00762025
0.00950642
0.0102473
0.0101473
0.00943636
0.0083376
0.0070531
0.00298507
0.0073825
0.00923313
0.00997337
0.00989659
0.00922378
0.00816909
0.00693227
0.0029108
0.00722775
0.00906639
0.00981204
0.00975509
0.0091144
0.00810051
0.00690565
0.00547706
0.0132289
0.0161351
0.0170695
0.0166084
0.0151216
0.0129943
0.0106256
0.00526677
0.0126319
0.0153638
0.0161939
0.01568
0.0141997
0.0121318
0.00986009
0.00506737
0.0119779
0.0145754
0.0153389
0.0148197
0.0133984
0.011445
0.00930286
0.00481967
0.0112995
0.0137795
0.0145018
0.0140013
0.0126517
0.0108138
0.0088002
0.0046185
0.0107831
0.0131772
0.0138831
0.0134154
0.0121324
0.0103824
0.0084691
0.00448655
0.0104757
0.0128214
0.0135232
0.0130864
0.0118581
0.0101645
0.0083118
0.00443903
0.0103299
0.0126576
0.0133548
0.0129315
0.0117354
0.0100904
0.00829175
0.00863589
0.0189138
0.0223585
0.0231305
0.0220431
0.0195651
0.0162222
0.0126876
0.00866509
0.0181516
0.0213682
0.0219777
0.0207912
0.0183212
0.0150954
0.0117357
0.00862463
0.0173482
0.020355
0.0208404
0.0196096
0.0171932
0.0141353
0.0109676
0.00843332
0.0164889
0.0193224
0.0197342
0.0185081
0.0161689
0.0132642
0.0102832
0.00825307
0.0158359
0.0185422
0.0189198
0.0177354
0.0154895
0.0127
0.00985898
0.00819751
0.0155254
0.0181498
0.0184985
0.017344
0.015184
0.0124875
0.00974287
0.00830937
0.0154971
0.0180783
0.0183884
0.0172241
0.0150895
0.01246
0.00979336
0.0170809
0.0276037
0.0308743
0.0310677
0.0289173
0.024861
0.0195571
0.0143199
0.0174873
0.0268523
0.0297607
0.0296403
0.0272311
0.0231179
0.0180798
0.0132322
0.0177387
0.0260633
0.0286137
0.0282453
0.0256985
0.0215639
0.0167434
0.0122384
0.0176579
0.0251336
0.0273976
0.0268744
0.0242839
0.0201873
0.0155534
0.0113963
0.0176104
0.024467
0.0264988
0.0258657
0.0233043
0.0193299
0.0148362
0.0108685
0.0178227
0.0243237
0.0261828
0.0254353
0.0228812
0.0190627
0.0147802
0.0108494
0.0181519
0.0245471
0.0263247
0.0254624
0.0228399
0.0190453
0.0148795
0.0111005
0.00191415
0.00446762
0.00563712
0.00621791
0.0063465
0.00612401
0.00565395
0.00503537
0.00201659
0.00466727
0.00588041
0.0064761
0.00659933
0.00635569
0.00585369
0.00519808
0.00213908
0.00491596
0.00619387
0.00682412
0.0069585
0.0067051
0.00617567
0.00547948
0.0022853
0.00520463
0.00656358
0.00724188
0.0073988
0.00714307
0.00658805
0.00584725
0.00244741
0.00551043
0.00695764
0.00769293
0.00788
0.00762752
0.00704972
0.00626466
0.0025981
0.00580517
0.00733881
0.00813513
0.00835978
0.00811764
0.00752254
0.00669602
0.00271826
0.00605743
0.00767288
0.00853235
0.00879998
0.00857657
0.00797464
0.00711833
0.00258689
0.00613147
0.00766867
0.00833999
0.00836164
0.00789645
0.00710944
0.00615788
0.00274044
0.00640711
0.00801373
0.00870843
0.00872358
0.00822818
0.00739436
0.00638882
0.00291302
0.00674066
0.00844726
0.00919409
0.00922735
0.00872001
0.00784877
0.00678621
0.00310764
0.0071158
0.00894048
0.0097582
0.00982715
0.00932084
0.00841692
0.00729261
0.00331844
0.00750944
0.00944826
0.0103507
0.0104673
0.00997047
0.00903824
0.00785511
0.00351246
0.00788874
0.00993485
0.0109306
0.0111062
0.0106293
0.00967684
0.00843838
0.00366596
0.00821481
0.0103701
0.0114595
0.0116997
0.0112524
0.0102917
0.00901168
0.00356041
0.00851983
0.0105271
0.0112617
0.0110726
0.010211
0.00893123
0.00748337
0.00377383
0.00889852
0.0110075
0.0117767
0.0115807
0.0106766
0.00932723
0.0077988
0.00400717
0.00935107
0.0116059
0.0124491
0.0122795
0.0113595
0.00995923
0.00835058
0.00426009
0.00984253
0.0122634
0.0132071
0.0130907
0.0121774
0.0107364
0.00904205
0.00453414
0.0103489
0.0129104
0.0139781
0.0139339
0.0130391
0.0115603
0.0097847
0.00477953
0.0108203
0.0135277
0.0147318
0.0147759
0.0139156
0.0124117
0.0105587
0.00497389
0.0112295
0.0140889
0.0154285
0.0155672
0.0147528
0.0132385
0.0113238
0.00506105
0.0120105
0.0145434
0.0152598
0.0146953
0.0132131
0.0111791
0.0089982
0.00529527
0.0125216
0.0151914
0.0159617
0.0153972
0.0138602
0.0117235
0.00942208
0.00557962
0.0131377
0.0160104
0.0168818
0.0163552
0.014795
0.0125906
0.0101771
0.00589047
0.0137845
0.0168858
0.0178908
0.0174418
0.0158977
0.0136466
0.0111171
0.0062198
0.0144039
0.0177147
0.018884
0.0185426
0.0170338
0.0147292
0.0120777
0.00652376
0.0149649
0.0184866
0.0198467
0.0196361
0.0181877
0.0158526
0.0130827
0.00676466
0.0154486
0.0191914
0.0207387
0.0206641
0.0192917
0.0169478