/*--------------------------------*- C++ -*----------------------------------*\
| =========                 |                                                 |
| \\      /  F ield         | OpenFOAM: The Open Source CFD Toolbox           |
|  \\    /   O peration     | Version:  plus.master.MPPICInterFoam            |
|   \\  /    A nd           | Web:      www.OpenFOAM.com                      |
|    \\/     M anipulation  |                                                 |
\*---------------------------------------------------------------------------*/
FoamFile
{
    version     2.0;
    format      ascii;
    class       volScalarField;
    location    "11.2";
    object      nut;
}
// * * * * * * * * * * * * * * * * * * * * * * * * * * * * * * * * * * * * * //

dimensions      [0 2 -1 0 0 0 0];

internalField   nonuniform List<scalar> 
11822
(
0.000808982
0.000845179
0.000862227
0.000862448
0.000847273
0.00081811
0.000775153
0.000855354
0.000894665
0.000911342
0.00090909
0.000891046
0.000859265
0.000815485
0.000878702
0.000926125
0.000947842
0.000944247
0.000922471
0.000887151
0.000841116
0.000892356
0.000922597
0.000971603
0.000964451
0.000939682
0.000900608
0.000852444
0.00088161
0.000917166
0.000966232
0.000960537
0.000938784
0.000897891
0.000848792
0.000865041
0.000894268
0.000931773
0.000934554
0.000915935
0.0008774
0.000829339
0.000811042
0.000845635
0.000877244
0.000886119
0.000872739
0.00083966
0.000793031
0.000820048
0.000856936
0.000874036
0.000873805
0.000857686
0.000827272
0.000782931
0.000867314
0.000907444
0.000923839
0.000921704
0.000902884
0.000869723
0.000824373
0.000894099
0.000946417
0.000959421
0.00095637
0.000935247
0.000898665
0.000850917
0.00090923
0.000990077
0.000970366
0.000974198
0.000952393
0.000912733
0.000862876
0.000880463
0.000978252
0.000964052
0.000970487
0.000950659
0.000910089
0.000859453
0.000843437
0.000918491
0.000944145
0.000946033
0.00092814
0.000889448
0.000839815
0.000802437
0.000862929
0.000890904
0.000898445
0.000885252
0.000851167
0.00080286
0.000831603
0.000868929
0.000885776
0.000884341
0.00086666
0.000834759
0.000789085
0.000883311
0.000924353
0.000940867
0.000936016
0.000914204
0.000878717
0.000831547
0.000916784
0.000974191
0.000989695
0.00097788
0.000949631
0.000909315
0.000859075
0.000939997
0.00102068
0.0010369
0.00100687
0.000970231
0.000924913
0.00087186
0.000919544
0.00098876
0.00103724
0.0010085
0.000969978
0.000923085
0.000868881
0.000878303
0.000941421
0.000984921
0.000976102
0.000946347
0.000902115
0.000849092
0.000818071
0.000871595
0.000912321
0.000920613
0.000900999
0.000862672
0.000811391
0.00083904
0.00087583
0.00089213
0.000890084
0.000871673
0.000839105
0.000792957
0.000894611
0.000932977
0.000948654
0.000942939
0.00092008
0.000883603
0.00083569
0.000938252
0.000978188
0.000999586
0.000986621
0.000956467
0.000914826
0.000863558
0.00094856
0.000972843
0.00103879
0.00101742
0.000978103
0.000931048
0.000876682
0.000922882
0.000983949
0.00105394
0.00102744
0.000980654
0.00093001
0.000874004
0.000889863
0.000954862
0.00100532
0.000996072
0.000956805
0.000909165
0.000854292
0.000856737
0.000916992
0.000946439
0.000939629
0.000910981
0.000869415
0.00081638
0.000843159
0.000879665
0.000895799
0.000894034
0.000876387
0.00084518
0.000801091
0.000898386
0.000936569
0.000951559
0.000945818
0.000923535
0.000888239
0.000842165
0.000938885
0.000980881
0.000998735
0.000988202
0.000959015
0.000918418
0.000868826
0.00095249
0.000982808
0.00101537
0.00101592
0.000979979
0.00093395
0.000881188
0.000963255
0.00102405
0.0009929
0.00102007
0.00098168
0.00093261
0.00087819
0.000942011
0.00097318
0.000989714
0.000995948
0.000959259
0.000912181
0.000858618
0.000879443
0.000926571
0.000947204
0.000942135
0.000914052
0.000872928
0.000821115
0.000848503
0.00088519
0.000902517
0.000903379
0.000889912
0.000864541
0.000828162
0.000898128
0.000936474
0.000951854
0.00094924
0.000931583
0.000902124
0.000863519
0.000935209
0.00097106
0.000991342
0.00098552
0.000962314
0.00092814
0.000885977
0.000937369
0.000979756
0.000998126
0.00100558
0.000979347
0.000940766
0.000895519
0.000955365
0.000935955
0.000981762
0.00100181
0.000979018
0.000937873
0.000891033
0.000951154
0.000954673
0.000971989
0.000985946
0.000957613
0.000917641
0.000871383
0.000876491
0.000924161
0.000937507
0.000935519
0.000914173
0.0008799
0.000835155
0.000723579
0.000672707
0.000611288
0.000536681
0.00044433
0.000327177
0.0001765
1.84209e-05
0.000762913
0.000709664
0.000647298
0.000571985
0.000478113
0.000356971
0.000196692
2.08728e-05
0.000787848
0.000733796
0.000670747
0.0005948
0.000499822
0.000376085
0.000209726
2.26663e-05
0.000798678
0.000744234
0.000680799
0.000604443
0.000508855
0.000383912
0.000214977
2.35726e-05
0.000794594
0.000740139
0.000676689
0.00060026
0.00050461
0.000379821
0.000211842
2.34489e-05
0.000775341
0.000721496
0.000658467
0.000582309
0.00048718
0.000363987
0.000200552
2.2309e-05
0.000740301
0.000688804
0.0006267
0.000551089
0.000457029
0.000336881
0.000181623
2.02935e-05
0.000730037
0.000678029
0.000615441
0.000539638
0.000446088
0.000327824
0.000176378
1.84411e-05
0.000770304
0.000715729
0.000652057
0.000575429
0.000480231
0.000357827
0.000196613
2.08912e-05
0.000795999
0.000740479
0.00067601
0.000598642
0.000502227
0.000377103
0.00020969
2.26821e-05
0.000807375
0.000751373
0.000686426
0.000608562
0.000511448
0.00038503
0.000214979
2.35854e-05
0.000803523
0.000747498
0.000682497
0.000604506
0.000507275
0.000380969
0.000211872
2.34589e-05
0.000784123
0.000728772
0.000664215
0.000586487
0.000489761
0.00036507
0.000200583
2.23165e-05
0.0007485
0.000695659
0.000632103
0.000554955
0.000459335
0.000337779
0.000181622
2.02981e-05
0.000735104
0.000682246
0.000618814
0.000542143
0.000447687
0.000328546
0.000176513
1.8439e-05
0.000776082
0.00072045
0.000655829
0.000578268
0.000482101
0.000358716
0.00019678
2.08927e-05
0.000802415
0.000745637
0.000680085
0.000601693
0.000504231
0.000378045
0.000209824
2.26778e-05
0.000814303
0.000756863
0.000690706
0.000611716
0.000513473
0.000385931
0.000215039
2.357e-05
0.000810726
0.000753166
0.00068686
0.000607653
0.000509219
0.000381756
0.000211841
2.34343e-05
0.000791247
0.000734391
0.000668497
0.000589494
0.000491518
0.000365676
0.000200458
2.22871e-05
0.000755111
0.000700939
0.00063608
0.000557634
0.000460746
0.000338098
0.000181367
2.02666e-05
0.000738765
0.000685731
0.000622084
0.000545023
0.000449881
0.000329697
0.000176402
1.85005e-05
0.000779841
0.000724006
0.000659218
0.000581358
0.000484577
0.000360133
0.000196767
2.09466e-05
0.000806305
0.000749226
0.000683477
0.00060481
0.000506786
0.000379571
0.000209886
2.27352e-05
0.000818342
0.000760491
0.000694059
0.000614756
0.000515958
0.000387433
0.000215142
2.36376e-05
0.000814906
0.000756841
0.000690158
0.00061055
0.000511521
0.000383121
0.000211951
2.35051e-05
0.00079548
0.000738067
0.000671699
0.000592189
0.00049356
0.000366828
0.000200556
2.23497e-05
0.000759216
0.000704491
0.00063908
0.000560027
0.000462426
0.000338948
0.000181408
2.03135e-05
0.000749231
0.000698085
0.000635942
0.000559412
0.000463226
0.000340134
0.000182597
1.92095e-05
0.000788692
0.000735173
0.000672477
0.00059584
0.000498593
0.000371401
0.000203453
2.18112e-05
0.000813793
0.000759055
0.00069559
0.000618503
0.000520453
0.000390807
0.000216533
2.3624e-05
0.000824864
0.00076917
0.000704899
0.000627178
0.000528536
0.00039791
0.000221298
2.44136e-05
0.000820904
0.000764693
0.000699833
0.00062153
0.000522581
0.00039232
0.000217274
2.40903e-05
0.000801363
0.000745399
0.000680376
0.000601724
0.000502932
0.000374483
0.000204865
2.27339e-05
0.000765291
0.000711526
0.000646905
0.000568197
0.000470132
0.000345039
0.00018472
2.05426e-05
0.000784614
0.000740141
0.000683646
0.000609919
0.000511204
0.000377218
0.000199175
2.30736e-05
0.000818762
0.000773389
0.000718184
0.00064653
0.000548889
0.000412022
0.000222446
2.62279e-05
0.000839487
0.000793214
0.000738008
0.000667138
0.000570252
0.00043233
0.000236567
2.8294e-05
0.000847411
0.000799893
0.000743797
0.000672589
0.000575896
0.000438191
0.000241067
2.89671e-05
0.000841594
0.000792867
0.000735449
0.000663124
0.000566099
0.000429549
0.000235552
2.81549e-05
0.00082143
0.000771857
0.000713007
0.000639138
0.00054157
0.000407225
0.000220682
2.6069e-05
0.000785825
0.000736775
0.000676562
0.000600929
0.00050288
0.000371954
0.00019713
2.30557e-05
0.00075501
0.000708117
0.000651243
0.0005783
0.000483885
0.000358932
0.000193974
2.58616e-05
0.000809816
0.00074446
0.000686705
0.000615017
0.000520909
0.000393298
0.000217927
2.94711e-05
0.000828766
0.000768285
0.0007102
0.000637955
0.000543324
0.000413994
0.000232679
3.15793e-05
0.0008289
0.000775187
0.000717711
0.000644837
0.000549423
0.000419356
0.000236568
3.17778e-05
0.000823329
0.00077138
0.000710578
0.000635332
0.000538817
0.000408984
0.000229113
3.00329e-05
0.000802136
0.00074853
0.000685767
0.000609333
0.000512582
0.00038473
0.000212077
2.68541e-05
0.000758461
0.000707286
0.000644909
0.000568453
0.000472521
0.000348684
0.000187576
2.28311e-05
0.000755351
0.000712763
0.000656043
0.000581931
0.000485748
0.000359033
0.000193185
2.5834e-05
0.000783035
0.000744745
0.000691355
0.000619414
0.000523789
0.000394245
0.000217528
2.94625e-05
0.000815901
0.000770541
0.000715977
0.000643345
0.00054718
0.000415761
0.000232738
3.15915e-05
0.00084081
0.000784506
0.000725669
0.000651268
0.000553861
0.000421475
0.000236802
3.17942e-05
0.000835004
0.000781481
0.000719115
0.000642073
0.000543379
0.000411202
0.000229429
3.00658e-05
0.000813192
0.000758247
0.000693883
0.000615583
0.000516738
0.000386759
0.00021244
2.68869e-05
0.000768387
0.000715803
0.000651859
0.000573654
0.000475858
0.00035023
0.000187823
2.28603e-05
0.000767879
0.000722371
0.000662531
0.000585546
0.000486849
0.000358284
0.000191913
2.57606e-05
0.000802259
0.000758005
0.00070037
0.000624759
0.000525822
0.000393706
0.000216045
2.93579e-05
0.000830561
0.000783336
0.000725813
0.000649628
0.000549902
0.000415534
0.000231238
3.14728e-05
0.000855007
0.000798282
0.000736059
0.000657995
0.000557083
0.000421729
0.000235602
3.16941e-05
0.000852733
0.000794675
0.000728806
0.000648466
0.000546738
0.000411944
0.000228708
3.00085e-05
0.000826555
0.000768634
0.000701675
0.00062093
0.000519728
0.000387633
0.000212051
2.68617e-05
0.000778201
0.000723578
0.000657759
0.000577687
0.000478035
0.000350765
0.000187469
2.2846e-05
0.000797055
0.000737372
0.00067073
0.000589868
0.000488659
0.000358423
0.000191298
2.57257e-05
0.000851336
0.00078767
0.000713301
0.000630643
0.000527647
0.000393066
0.000214593
2.92484e-05
0.000877521
0.000815615
0.000739563
0.000655854
0.000551643
0.000414461
0.000229278
3.13176e-05
0.000892183
0.000822007
0.000747114
0.000663402
0.000558932
0.000421104
0.000233993
3.15701e-05
0.000873044
0.000807341
0.000736524
0.000653005
0.000548849
0.000412078
0.000227779
2.99422e-05
0.000836643
0.000776266
0.000707281
0.000624773
0.000521898
0.000388247
0.000211686
2.68451e-05
0.000784962
0.000729102
0.000662074
0.000580771
0.000479849
0.000351392
0.000187361
2.28546e-05
0.000810644
0.000744999
0.000675762
0.00059372
0.000491816
0.000360718
0.000192151
2.58033e-05
0.000882283
0.000800478
0.000719064
0.000633853
0.000529654
0.000394197
0.000214653
2.92821e-05
0.000910307
0.000828513
0.000745293
0.000658891
0.000553225
0.000415027
0.000228908
3.13282e-05
0.000895767
0.000826216
0.000750446
0.000666027
0.0005608
0.000422163
0.000233973
3.16142e-05
0.000876073
0.000810841
0.000739969
0.000656185
0.000551559
0.000413977
0.000228345
3.0021e-05
0.000840577
0.000780346
0.000711409
0.000628778
0.000525472
0.000390884
0.000212788
2.69411e-05
0.000789411
0.000733818
0.000666866
0.000585402
0.000483962
0.00035446
0.000188813
2.29466e-05
0.000801707
0.000739986
0.000676121
0.000597986
0.000498781
0.000368304
0.000195517
2.66288e-05
0.000877771
0.00078768
0.000713661
0.000635031
0.000535072
0.000401419
0.000218326
3.01937e-05
0.000914053
0.000822602
0.000741669
0.000660532
0.000559016
0.000422846
0.000233218
3.23509e-05
0.000896424
0.000822164
0.000749225
0.000669586
0.000568145
0.000431232
0.000239086
3.27521e-05
0.000872323
0.000809549
0.000742948
0.000662976
0.000561292
0.000424593
0.000234155
3.1239e-05
0.000841996
0.000785112
0.00071938
0.000639539
0.000538227
0.000403376
0.0002192
2.82283e-05
0.000796856
0.0007441
0.000679776
0.000600574
0.000500308
0.000369121
0.000195789
2.43059e-05
0.000755957
0.00070404
0.000641593
0.000565389
0.000470059
0.000347209
0.000187187
2.22003e-05
0.000790421
0.000736027
0.000672466
0.000595683
0.000499432
0.000373881
0.000206129
2.4176e-05
0.000807773
0.000752881
0.000688901
0.000611824
0.000515134
0.000388353
0.000216788
2.51062e-05
0.000808886
0.000754201
0.000690343
0.000613409
0.000516925
0.00039039
0.000218726
2.48809e-05
0.000794616
0.00074048
0.000677156
0.000600786
0.000505157
0.000380273
0.000211947
2.35665e-05
0.000766408
0.000713151
0.00065065
0.000575099
0.000480856
0.000359097
0.000197755
2.13477e-05
0.000724351
0.000673534
0.00061207
0.000537363
0.000444857
0.000327472
0.000176442
1.85386e-05
0.000765639
0.000712359
0.000648307
0.000570358
0.000473205
0.000348619
0.000187381
2.22209e-05
0.000800713
0.000744802
0.000679599
0.000601045
0.0005029
0.000375504
0.000206382
2.41989e-05
0.000818078
0.00076161
0.000695972
0.000617137
0.000518588
0.000389972
0.000217007
2.51276e-05
0.000818684
0.000762429
0.000696972
0.000618373
0.000520149
0.000391896
0.000218893
2.49e-05
0.000803513
0.000747902
0.00068309
0.000605186
0.000507968
0.000381527
0.000211988
2.35892e-05
0.000774194
0.000719608
0.000655771
0.000578838
0.000483168
0.000360012
0.000197614
2.13746e-05
0.000730921
0.000678965
0.000616327
0.000540405
0.000446675
0.000328156
0.000176344
1.856e-05
0.000774611
0.000719556
0.000653758
0.000574095
0.000475218
0.000349112
0.000187065
2.22008e-05
0.000810039
0.000752245
0.000685337
0.000605099
0.000505271
0.000376316
0.000206212
2.41833e-05
0.0008271
0.000768785
0.000701525
0.000621127
0.000520999
0.000390872
0.000216871
2.51125e-05
0.000826907
0.000769005
0.000702098
0.000622097
0.000522457
0.000392806
0.00021879
2.4883e-05
0.000810698
0.000753712
0.00068766
0.000608538
0.00051008
0.000382424
0.000211991
2.35649e-05
0.00078033
0.000724632
0.000659754
0.000581781
0.000485033
0.000360803
0.000197621
2.13608e-05
0.00073607
0.000683241
0.000619733
0.000542914
0.000448256
0.00032885
0.000176448
1.85502e-05
0.000780533
0.000724501
0.000657718
0.000576985
0.000476971
0.000349757
0.00018696
2.2219e-05
0.000815789
0.000757141
0.000689391
0.000608253
0.000507414
0.000377359
0.000206296
2.42232e-05
0.000832453
0.000773399
0.000705438
0.000624293
0.000523293
0.000392121
0.000217038
2.5172e-05
0.000831768
0.000773255
0.000705797
0.000625207
0.00052483
0.000394199
0.000219016
2.49596e-05
0.000815052
0.000757616
0.000691175
0.000611609
0.000512516
0.000383919
0.000212271
2.36396e-05
0.000784281
0.000728292
0.000663147
0.000584802
0.000487434
0.000362207
0.000197718
2.14418e-05
0.000739773
0.000686752
0.000623001
0.000545783
0.000450457
0.000330052
0.00017646
1.86209e-05
0.000785243
0.000729537
0.000662946
0.000582168
0.000481694
0.000353374
0.000188745
2.23318e-05
0.000820367
0.000762372
0.000695167
0.000614313
0.000513251
0.000382075
0.000208756
2.44051e-05
0.000837141
0.000779021
0.000711953
0.000631442
0.000530427
0.000398058
0.000220266
2.54512e-05
0.000836956
0.000779688
0.000713479
0.000633821
0.000533526
0.000401487
0.000223094
2.53576e-05
0.000821288
0.000765428
0.000700534
0.000622057
0.000522948
0.000392554
0.000217219
2.41532e-05
0.00079217
0.000738004
0.000674504
0.000597126
0.000499367
0.00037182
0.000203247
2.20368e-05
0.000749835
0.000698536
0.000636163
0.000559433
0.000463123
0.000339968
0.000182295
1.92379e-05
0.000795104
0.000742512
0.000678984
0.00060073
0.000501303
0.000370553
0.000196861
2.3918e-05
0.000830835
0.000777001
0.000713943
0.000636742
0.000537633
0.000404087
0.000219806
2.65502e-05
0.000849331
0.000796249
0.000734347
0.000658473
0.000559994
0.000424828
0.00023392
2.82135e-05
0.000852234
0.000800819
0.000740681
0.000666391
0.000568732
0.000432827
0.000238893
2.87038e-05
0.000841259
0.000791988
0.000733786
0.000660824
0.000563616
0.000427511
0.000234376
2.79265e-05
0.000818502
0.000771331
0.000714461
0.000641786
0.000544195
0.000408533
0.000220544
2.59458e-05
0.000783921
0.000738975
0.000682057
0.000608121
0.000509507
0.00037594
0.000198435
2.29658e-05
0.000743232
0.000692057
0.000629826
0.000553816
0.000459075
0.00033798
0.000181902
2.07733e-05
0.0007887
0.000735007
0.000671828
0.000595165
0.000498794
0.000373078
0.000205482
2.4429e-05
0.000819223
0.000764583
0.00070073
0.000623578
0.00052629
0.000397547
0.000221918
2.74154e-05
0.000830719
0.000776634
0.000713557
0.000636745
0.000539377
0.000409423
0.000230021
2.92805e-05
0.000820582
0.000769233
0.000708508
0.000633092
0.000536594
0.000407111
0.000228087
2.96443e-05
0.000794693
0.000746342
0.000687294
0.000613141
0.000517714
0.000389998
0.000215767
2.83438e-05
0.000756994
0.000710036
0.000651987
0.000578331
0.000483705
0.000358862
0.000194002
2.5612e-05
0.000751862
0.000699301
0.000635576
0.000557964
0.000461582
0.000338982
0.000181912
2.0782e-05
0.000799024
0.000743866
0.000679046
0.000600567
0.000502322
0.00037475
0.000205662
2.44404e-05
0.000830852
0.000774807
0.000709244
0.000630106
0.000530579
0.000399572
0.000222259
2.74241e-05
0.000842646
0.00078753
0.000722818
0.00064396
0.000544213
0.000411809
0.000230503
2.92952e-05
0.00083275
0.000780011
0.000717629
0.00064025
0.00054141
0.00040944
0.00022848
2.9663e-05
0.000805155
0.000755637
0.000695163
0.000619256
0.000521674
0.000391695
0.000215833
2.83592e-05
0.000762324
0.000716485
0.000657768
0.000582663
0.000486128
0.000359419
0.000193505
2.56001e-05
0.000758999
0.000704987
0.00063984
0.000560791
0.000462984
0.000339145
0.00018144
2.0757e-05
0.000808559
0.000751434
0.000684776
0.000604497
0.000504469
0.000375224
0.000205188
2.4409e-05
0.000843516
0.000784709
0.000716649
0.000635174
0.000533367
0.000400288
0.000221812
2.73832e-05
0.000859262
0.000800082
0.000731903
0.00065
0.000547493
0.00041269
0.000229967
2.92375e-05
0.000850551
0.000793527
0.000727485
0.000646667
0.000544745
0.000410156
0.000227796
2.9596e-05
0.000819905
0.000767537
0.000704034
0.000624936
0.000524413
0.000392026
0.000215027
2.82965e-05
0.000774405
0.000725969
0.000664541
0.000586639
0.000487586
0.000358966
0.00019241
2.55331e-05
0.000763428
0.000708764
0.000642965
0.000563244
0.000464701
0.000340098
0.000181746
2.0793e-05
0.000814324
0.000756152
0.00068854
0.000607328
0.000506327
0.000376103
0.000205289
2.44203e-05
0.000851665
0.000790948
0.000721314
0.000638471
0.000535352
0.000401008
0.000221695
2.73754e-05
0.000873052
0.000809061
0.000737856
0.000653797
0.00054952
0.000413158
0.000229452
2.92025e-05
0.000874257
0.000806441
0.000735064
0.000650991
0.000546711
0.000410318
0.000227022
2.95318e-05
0.000849267
0.000782624
0.000712577
0.000629589
0.000526455
0.000392187
0.000214265
2.82378e-05
0.000798408
0.0007394
0.000672333
0.000590912
0.000489469
0.000359168
0.000191825
2.54924e-05
0.000768852
0.00071491
0.000649633
0.000570074
0.000471052
0.000345045
0.000184357
2.09516e-05
0.000818449
0.000760962
0.000693882
0.000612889
0.000511626
0.000380342
0.000207461
2.45651e-05
0.000854948
0.000794683
0.000725508
0.000642894
0.000539533
0.000404448
0.000223402
2.7504e-05
0.000875987
0.000812194
0.00074125
0.000657392
0.000552927
0.000415824
0.000230563
2.93048e-05
0.000877228
0.000809737
0.000738347
0.000654146
0.000549501
0.000412416
0.000227786
2.96101e-05
0.000855209
0.000787463
0.000716571
0.000632896
0.000529171
0.000394131
0.000214945
2.83041e-05
0.000808618
0.000746083
0.00067716
0.000594684
0.000492563
0.000361405
0.000192669
2.55577e-05
0.000786256
0.000736224
0.000674676
0.000597902
0.000499288
0.000368672
0.000195315
2.3097e-05
0.000828905
0.000775278
0.000711987
0.000634374
0.000534912
0.000401329
0.000217978
2.65439e-05
0.000859081
0.000802898
0.000737566
0.000658481
0.000557751
0.000422101
0.000232752
2.92622e-05
0.000873898
0.000814881
0.000748407
0.000668364
0.00056684
0.000430159
0.000238528
3.08353e-05
0.000872249
0.000808415
0.000741864
0.000661788
0.000560373
0.000424211
0.000234308
3.08966e-05
0.000850729
0.000784611
0.000718297
0.000638693
0.000538036
0.000403886
0.000220003
2.93582e-05
0.000802472
0.00074343
0.000678899
0.000600007
0.000500405
0.000369678
0.000196457
2.64212e-05
2.3598e-05
0.000136676
0.000196357
0.000235343
0.00026173
0.000278057
0.00028563
0.000285115
2.33671e-05
0.000134859
0.000193507
0.000231993
0.000258288
0.000274865
0.000282945
0.000283072
2.33426e-05
0.000134356
0.000192661
0.000230857
0.000256924
0.000273419
0.000281635
0.000282096
2.35599e-05
0.000135616
0.000194861
0.000233405
0.000259434
0.000275696
0.000283637
0.000283877
2.40361e-05
0.000139339
0.000200919
0.000240459
0.000266652
0.000282556
0.000289844
0.000289298
2.47351e-05
0.000145452
0.00021046
0.000251401
0.000277773
0.000293066
0.000299237
0.000297281
2.5479e-05
0.000152924
0.00022193
0.000264377
0.000290827
0.000305318
0.000310122
0.000306469
2.70387e-05
0.000151612
0.000218473
0.000262904
0.000291897
0.000308222
0.000313864
0.000310296
2.66877e-05
0.000149209
0.000214593
0.000258247
0.000286995
0.000303552
0.00030983
0.000307124
2.66565e-05
0.000148616
0.000213573
0.000256779
0.000285072
0.000301309
0.000307584
0.000305263
2.69779e-05
0.000150603
0.000216732
0.000260269
0.000288369
0.000304129
0.000309871
0.00030713
2.76352e-05
0.000155967
0.000224935
0.000269571
0.000297726
0.000312875
0.00031762
0.000313731
2.85605e-05
0.000164595
0.000237754
0.000283962
0.000312164
0.000326369
0.000329513
0.000323624
2.95135e-05
0.000175135
0.000253077
0.000300857
0.000328916
0.000341953
0.000343271
0.000335169
3.172e-05
0.000168044
0.00024639
0.00029829
0.000329905
0.000345047
0.000347041
0.000338599
3.12092e-05
0.000165008
0.000241352
0.000292142
0.000323301
0.000338599
0.000341365
0.000334126
3.11743e-05
0.000164348
0.000240229
0.00029045
0.000320911
0.00033554
0.000337997
0.000331091
3.16104e-05
0.000167141
0.000244448
0.000295026
0.00032516
0.000339053
0.00034065
0.000333044
3.24312e-05
0.000174243
0.000254927
0.000306778
0.000336909
0.000349951
0.000350173
0.000340992
3.35334e-05
0.00018569
0.000271376
0.000325044
0.000355119
0.000366876
0.000364953
0.000353055
3.4615e-05
0.000199859
0.000290992
0.000346243
0.000375876
0.000386007
0.000381696
0.000366969
3.93361e-05
0.00018804
0.00028436
0.000345724
0.000378959
0.000390481
0.00038603
0.000370307
3.86095e-05
0.000184232
0.000277963
0.000337891
0.000370465
0.000381981
0.000378344
0.00036428
3.85822e-05
0.00018353
0.00027678
0.00033609
0.000367792
0.00037825
0.000373776
0.000359793
3.90953e-05
0.000187056
0.000282049
0.000341801
0.00037311
0.000382637
0.000376984
0.000362002
3.99302e-05
0.000195598
0.000294673
0.000356017
0.000387364
0.000395886
0.000388496
0.00037144
4.09674e-05
0.000209548
0.000314738
0.000378374
0.000409675
0.000416638
0.000406576
0.000385972
4.18729e-05
0.000227173
0.000338638
0.000403972
0.000434508
0.000439307
0.000426167
0.00040194
5.41697e-05
0.000219948
0.000341983
0.000412816
0.00044379
0.000446627
0.000431111
0.000405526
5.32755e-05
0.000214474
0.000333217
0.000402566
0.000432969
0.000435706
0.000420827
0.000397479
5.32539e-05
0.000213707
0.000331881
0.000400569
0.000430003
0.000431321
0.00041452
0.000390715
5.36578e-05
0.000217937
0.000338199
0.000407327
0.00043627
0.000436501
0.000418146
0.000392991
5.41172e-05
0.000227418
0.000352757
0.000423882
0.000452942
0.000452116
0.00043174
0.000403857
5.45987e-05
0.000242986
0.000376172
0.000450361
0.000479522
0.000476988
0.000453473
0.000420915
5.48301e-05
0.000262682
0.000403903
0.0004802
0.000508358
0.000503143
0.000475714
0.000438184
8.01229e-05
0.000292275
0.000442506
0.000512795
0.000529369
0.000510924
0.000476019
0.000440121
7.92268e-05
0.000283228
0.000428438
0.000497824
0.000514764
0.000496602
0.000462671
0.000430067
7.91664e-05
0.000281999
0.000426407
0.000495134
0.000510991
0.000491471
0.000454782
0.000421394
7.94571e-05
0.000287322
0.000434123
0.000502839
0.000517711
0.000496832
0.000458824
0.000424323
7.95967e-05
0.000298158
0.000451008
0.00052187
0.000536613
0.000514529
0.00047452
0.00043696
7.96953e-05
0.000315638
0.000478086
0.000552772
0.000567666
0.000543903
0.000499859
0.000456836
7.94243e-05
0.000337299
0.000509497
0.000586731
0.000600561
0.00057383
0.000524113
0.000474653
3.15779e-05
0.000207488
0.000312003
0.00037025
0.000402058
0.000415696
0.000415381
0.000403376
3.16007e-05
0.00020902
0.000314416
0.000373301
0.000405682
0.000419843
0.00041997
0.000408272
3.13088e-05
0.000208063
0.00031275
0.000371388
0.000403874
0.000418365
0.000418935
0.000407709
3.07775e-05
0.000204694
0.000307013
0.000364608
0.000396793
0.000411392
0.000412306
0.000401553
3.00218e-05
0.000199133
0.000297584
0.000353474
0.000385022
0.000399565
0.000400763
0.000390528
2.91613e-05
0.000191752
0.000285178
0.000338736
0.00036934
0.000383708
0.000385226
0.000375702
2.82531e-05
0.000183169
0.000270759
0.000321503
0.000350873
0.000364932
0.000366796
0.000358171
3.66331e-05
0.000242642
0.0003626
0.000428319
0.000462112
0.000474086
0.000469601
0.000451918
3.66261e-05
0.000244131
0.000365189
0.000431541
0.000466002
0.00047861
0.000474676
0.000457396
3.62942e-05
0.000242743
0.000363107
0.000429026
0.000463614
0.000476645
0.000473271
0.00045659
3.56742e-05
0.00023851
0.00035637
0.00042094
0.000455183
0.000468395
0.000465488
0.000449404
3.47849e-05
0.000231737
0.000345026
0.000407656
0.00044124
0.000454468
0.000451965
0.000436514
3.38184e-05
0.000222811
0.000329985
0.000390071
0.000422723
0.000435838
0.000433737
0.000419111
3.28019e-05
0.000212399
0.0003125
0.000369499
0.000400841
0.000413608
0.000411853
0.000398209
4.26134e-05
0.000284897
0.000422722
0.000496827
0.000532126
0.000541025
0.000530255
0.000504402
4.25705e-05
0.000286272
0.000425192
0.00049999
0.000536099
0.000545796
0.000535721
0.000510356
4.21999e-05
0.000284415
0.000422451
0.000496686
0.000532972
0.000543216
0.000533851
0.000509227
4.1521e-05
0.000279297
0.000414654
0.000487245
0.000523125
0.000533617
0.000524883
0.000501059
4.0504e-05
0.000270796
0.000401663
0.000471869
0.000507008
0.000517533
0.000509334
0.000486365
3.94549e-05
0.000260009
0.000383861
0.000451546
0.000485798
0.000496198
0.000488437
0.000466437
3.83455e-05
0.000247384
0.000363178
0.000427818
0.000460744
0.000470688
0.000463213
0.000442301
4.96271e-05
0.000335108
0.00049434
0.000577127
0.000613186
0.000617334
0.000597594
0.000560084
4.95565e-05
0.000336013
0.000496091
0.00057966
0.000616764
0.000622018
0.000603259
0.000566388
4.91622e-05
0.000333536
0.000492301
0.00057518
0.000612515
0.000618483
0.00060068
0.000564801
4.84536e-05
0.000327717
0.000483338
0.00056435
0.00060116
0.000607346
0.000590335
0.000555592
4.73761e-05
0.000317453
0.000468617
0.000547213
0.000583099
0.000589025
0.000572468
0.000538875
4.63025e-05
0.000304271
0.000448441
0.000524949
0.000559812
0.000565191
0.00054879
0.000516271
4.5182e-05
0.000288794
0.00042506
0.000499035
0.000532413
0.000536859
0.000520398
0.000489127
5.65825e-05
0.000397319
0.000580161
0.000670518
0.000706258
0.000703745
0.000671746
0.000617539
5.63066e-05
0.000397394
0.000580394
0.000671591
0.000708737
0.000707849
0.000677369
0.000624067
5.58066e-05
0.000394844
0.000574973
0.000665496
0.000702852
0.000702778
0.000673594
0.000621796
5.5183e-05
0.000389489
0.000564742
0.000653643
0.0006901
0.000689844
0.000661507
0.000611449
5.47668e-05
0.000377335
0.000548734
0.000636068
0.000671005
0.000669328
0.000640562
0.000591675
5.48974e-05
0.000359404
0.000528068
0.000614078
0.00064717
0.000643507
0.000613708
0.00056581
5.52443e-05
0.000338248
0.000503637
0.000588014
0.000618911
0.000613044
0.000582046
0.000535942
7.16491e-05
0.000479575
0.000682698
0.000779252
0.000812154
0.000799256
0.000747847
0.000667105
7.13386e-05
0.000477616
0.000680861
0.000778302
0.000813052
0.000802358
0.000753016
0.000673474
7.06186e-05
0.000474952
0.000674704
0.000771016
0.000805471
0.000795241
0.000747489
0.000670366
7.07009e-05
0.000470662
0.000665804
0.000759936
0.000792219
0.000780223
0.000732704
0.000658567
7.2293e-05
0.0004617
0.000653818
0.000745434
0.000774399
0.00075818
0.00070766
0.000635208
7.51429e-05
0.000442403
0.000637881
0.000727383
0.000752232
0.000731171
0.000676989
0.000605767
7.69261e-05
0.000419375
0.000616208
0.000703568
0.000724187
0.000698652
0.000641664
0.000574083
2.73973e-05
0.000174481
0.000256234
0.000304089
0.000332128
0.000345834
0.000348114
0.000340586
2.66073e-05
0.000166502
0.00024297
0.000288374
0.000315426
0.000329012
0.000331818
0.000325386
2.58759e-05
0.0001593
0.000231142
0.000274641
0.000301168
0.000314994
0.000318522
0.000313184
2.51834e-05
0.000152741
0.000220731
0.000262669
0.000288899
0.000303164
0.000307577
0.000303417
2.4635e-05
0.000147377
0.000212334
0.000253033
0.000279044
0.000293717
0.000298923
0.00029578
2.42334e-05
0.000143372
0.000206094
0.000245965
0.000271951
0.000287078
0.000293019
0.000290726
2.39159e-05
0.000139881
0.000200888
0.000240275
0.000266477
0.000282237
0.000289027
0.00028765
3.18614e-05
0.000201818
0.000295021
0.000348866
0.000378713
0.000390947
0.000389473
0.000376949
3.09419e-05
0.000191708
0.000278703
0.000330011
0.000358926
0.000371087
0.000370187
0.000358885
3.00145e-05
0.000182034
0.0002635
0.000312885
0.000341508
0.000354224
0.00035437
0.000344464
2.90893e-05
0.000172902
0.000249682
0.000297398
0.000325895
0.000339376
0.000340798
0.000332469
2.83745e-05
0.000165607
0.000238795
0.000285152
0.000313521
0.000327632
0.000330147
0.000323142
2.78679e-05
0.000160407
0.000231021
0.000276511
0.000304953
0.000319694
0.000323176
0.000317266
2.74717e-05
0.000155803
0.000224437
0.000269437
0.000298226
0.000313824
0.000318438
0.000313737
3.73265e-05
0.000234533
0.000342639
0.000404153
0.000435496
0.00044465
0.000437172
0.000417289
3.62757e-05
0.000221384
0.000322638
0.000381785
0.000412395
0.0004216
0.000414773
0.000396263
3.51702e-05
0.000207987
0.000303091
0.000360434
0.000391089
0.000401302
0.000396001
0.000379321
3.40914e-05
0.000195081
0.00028497
0.000340576
0.000371315
0.0003827
0.000379187