/*--------------------------------*- C++ -*----------------------------------*\
| =========                 |                                                 |
| \\      /  F ield         | OpenFOAM: The Open Source CFD Toolbox           |
|  \\    /   O peration     | Version:  plus.master.MPPICInterFoam            |
|   \\  /    A nd           | Web:      www.OpenFOAM.com                      |
|    \\/     M anipulation  |                                                 |
\*---------------------------------------------------------------------------*/
FoamFile
{
    version     2.0;
    format      ascii;
    class       volScalarField;
    location    "11.2";
    object      p;
}
// * * * * * * * * * * * * * * * * * * * * * * * * * * * * * * * * * * * * * //

dimensions      [1 -1 -2 0 0 0 0];

internalField   nonuniform List<scalar> 
11822
(
762.268
762.222
762.319
762.363
762.515
762.717
762.913
761.801
761.98
762.381
762.172
762.306
762.555
762.773
764.249
765.35
764.716
763.033
762.358
762.487
762.676
765.455
767.796
766.592
764.379
762.664
762.538
762.642
761.327
766.237
767.714
764.386
762.387
762.469
762.601
760.765
766.269
766.543
764.403
762.434
762.438
762.616
762.565
764.738
765.189
763.26
762.194
762.37
762.663
673.047
672.604
672.486
672.175
672.006
671.926
671.884
674.37
673.357
673.65
672.582
672.142
671.997
671.897
679.579
680.269
677.52
674.347
672.561
672.168
671.961
683.236
681.457
681.658
676.539
673.137
672.386
672.069
681.275
684.234
682.34
677.99
673.269
672.489
672.145
679.814
680.836
681.944
677.875
673.667
672.561
672.218
679.758
681.06
680.466
676.176
673.136
672.42
672.244
582.749
582.316
582.039
581.634
581.246
580.866
580.491
584.593
583.83
583.361
582.371
581.741
581.253
580.783
590.233
590.036
587.663
584.375
582.477
581.698
581.08
595.081
588.615
589.897
586.792
583.248
582.07
581.344
597.008
590.751
591.489
588.49
583.352
582.216
581.492
596.828
595.724
594.963
588.576
583.851
582.322
581.571
595.432
595.791
593.068
586.954
583.265
582.109
581.503
490.772
490.614
490.387
490.117
489.735
489.29
488.865
492.21
491.751
491.257
490.82
490.344
489.796
489.244
496.356
496.016
494.402
492.331
491.079
490.328
489.62
499.28
499.195
494.744
494.085
491.925
490.784
489.922
505.164
496.661
494.54
494.9
492.202
490.958
490.047
504.07
504.523
500.03
494.794
492.106
490.855
489.995
500.449
499.225
496.937
493.513
491.276
490.396
489.735
395.119
395.341
395.423
395.243
394.86
394.336
393.723
395.081
395.211
395.639
395.646
395.378
394.847
394.223
395.769
396.253
396.601
396.191
395.836
395.302
394.632
398.398
401.424
397.515
396.828
396.223
395.67
394.916
397.657
392.872
396.974
395.107
395.967
395.715
394.99
399.324
399.389
398.588
395.036
395.658
395.551
394.916
396.405
394.814
395.277
395.182
395.281
395.188
394.631
302.356
302.48
302.859
303.063
303.193
303.292
303.485
300.284
300.448
301.749
302.413
302.913
303.145
303.318
299.314
301.101
301.594
301.84
302.624
303.061
303.282
300.077
302.297
302.685
301.71
302.321
303.025
303.287
294.413
298.06
301.999
300.257
301.502
302.827
303.263
289.203
295.43
299.988
298.92
301.193
302.731
303.273
293.248
293.627
297.428
299.478
301.51
302.806
303.362
763.01
763.098
763.164
763.23
763.308
763.4
763.5
763.584
762.883
762.995
763.094
763.188
763.286
763.392
763.506
763.605
762.796
762.923
763.04
763.151
763.262
763.381
763.506
763.614
762.756
762.881
763.007
763.128
763.246
763.369
763.496
763.605
762.736
762.863
762.993
763.116
763.235
763.355
763.478
763.585
762.764
762.884
763.008
763.123
763.235
763.347
763.462
763.56
762.76
762.877
762.996
763.108
763.227
763.346
763.436
763.524
671.81
671.784
671.751
671.743
671.766
671.813
671.874
671.932
671.785
671.739
671.711
671.713
671.741
671.793
671.861
671.926
671.796
671.743
671.718
671.717
671.741
671.79
671.858
671.929
671.861
671.785
671.75
671.74
671.757
671.799
671.864
671.935
671.936
671.834
671.788
671.771
671.781
671.818
671.883
671.954
672.048
671.92
671.854
671.831
671.835
671.867
671.928
671.994
672.128
672.028
671.948
671.91
671.917
671.944
671.989
672.041
580.154
579.974
579.837
579.757
579.73
579.751
579.811
579.869
580.379
580.118
579.93
579.811
579.751
579.75
579.801
579.863
580.586
580.276
580.049
579.895
579.805
579.78
579.821
579.886
580.782
580.431
580.174
579.992
579.881
579.839
579.869
579.929
580.918
580.545
580.279
580.089
579.971
579.925
579.95
580.005
581.045
580.661
580.388
580.205
580.091
580.046
580.064
580.107
581.074
580.767
580.511
580.334
580.234
580.192
580.193
580.209
488.543
488.361
488.236
488.167
488.134
488.115
488.093
488.109
488.814
488.52
488.31
488.178
488.105
488.067
488.048
488.079
489.073
488.677
488.388
488.195
488.075
488.006
487.972
488.001
489.276
488.813
488.468
488.225
488.064
487.96
487.898
487.903
489.365
488.893
488.535
488.272
488.086
487.958
487.873
487.854
489.362
488.924
488.585
488.33
488.141
488.003
487.902
487.86
489.185
488.858
488.582
488.364
488.2
488.069
487.952
487.887
393.123
392.747
392.463
392.245
392.122
392.166
392.398
392.612
393.602
393.132
392.753
392.443
392.236
392.206
392.405
392.62
394.005
393.473
393.026
392.659
392.401
392.326
392.501
392.697
394.278
393.739
393.276
392.895
392.62
392.529
392.685
392.847
394.369
393.887
393.461
393.105
392.845
392.762
392.91
393.044
394.275
393.884
393.541
393.24
393.027
392.975
393.127
393.239
393.92
393.655
393.44
393.244
393.121
393.12
393.278
393.382
303.829
304.118
304.438
304.88
305.475
306.245
307.16
307.885
303.515
303.713
303.991
304.412
305.013
305.825
306.842
307.683
303.473
303.615
303.842
304.212
304.765
305.543
306.544
307.38
303.496
303.636
303.839
304.169
304.662
305.359
306.251
306.961
303.537
303.74
303.954
304.257
304.681
305.25
305.937
306.427
303.534
303.825
304.072
304.341
304.684
305.105
305.556
305.788
303.642
304.006
304.274
304.508
304.76
305
305.196
305.215
761.439
761.051
761.519
761.977
762.394
762.751
763.077
763.353
760.387
761.77
761.347
761.793
762.185
762.564
762.959
763.338
761.157
761.397
761.012
761.518
761.947
762.36
762.807
763.217
764.005
761.915
761.453
761.804
762.139
762.486
762.895
763.272
762.363
761.169
761.616
762.025
762.361
762.679
763.011
763.306
761.354
761.706
762.13
762.434
762.691
762.932
763.165
763.403
762.183
762.498
762.699
762.856
763
763.149
763.305
763.485
676.493
673.736
672.991
672.742
672.631
672.628
672.758
672.947
678.928
676.02
673.285
672.628
672.443
672.486
672.722
673.045
680.183
676.385
673.422
672.569
672.29
672.324
672.605
672.971
680.803
675.883
673.294
672.586
672.324
672.336
672.583
672.899
676.416
673.366
672.583
672.304
672.214
672.268
672.457
672.687
673.043
672.457
672.313
672.227
672.207
672.264
672.39
672.575
672.521
672.449
672.387
672.299
672.254
672.271
672.346
672.479
589.701
585.156
583.617
582.728
582.113
581.767
581.674
581.731
594.862
588.635
584.588
583.074
582.284
581.931
581.916
582.092
595.698
589.236
584.869
583.193
582.345
581.979
581.972
582.177
592.943
587.206
583.961
582.792
582.149
581.851
581.857
582.027
587.263
583.886
582.742
582.13
581.735
581.544
581.544
581.68
583.245
582.409
581.993
581.637
581.387
581.265
581.261
581.359
582.11
581.825
581.58
581.326
581.137
581.041
581.032
581.106
495.03
491.264
490.169
489.388
488.804
488.46
488.316
488.306
500.171
494.572
491.406
490.138
489.335
488.879
488.721
488.757
499.709
494.761
491.598
490.414
489.649
489.171
488.98
489.004
497.6
493.516
491.338
490.388
489.702
489.246
489.044
489.041
493.999
491.528
490.631
489.974
489.453
489.091
488.908
488.905
491.171
490.493
490.005
489.539
489.159
488.892
488.743
488.729
490.222
489.858
489.518
489.191
488.921
488.724
488.605
488.588
394.046
392.863
392.886
392.638
392.41
392.322
392.433
392.6
395.212
394.18
393.79
393.423
392.98
392.686
392.672
392.797
394.91
394.44
394.037
393.787
393.418
393.078
393
393.072
395.252
394.511
394.518
394.195
393.8
393.466
393.385
393.446
395.109
394.501
394.596
394.285
393.959
393.711
393.686
393.776
394.736
394.693
394.52
394.25
393.99
393.84
393.89
394
394.756
394.502
394.242
394.024
393.862
393.816
393.942
394.06
294.822
296.647
298.219
298.638
298.569
298.197
297.727
297.546
291.095
295.346
297.531
298.468
298.342
297.738
297.044
296.766
292.12
295.774
297.849
298.825
298.671
298.006
297.216
296.853
297.069
297.475
299.292
299.873
299.628
298.99
298.247
297.88
298.983
299.527
300.725
300.997
300.796
300.311
299.714
299.365
300.716
301.603
302.044
302.139
302.014
301.708
301.295
300.965
302.572
302.888
303.004
303.081
303.079
302.967
302.752
302.469
762.389
762.568
762.759
762.906
763.052
763.203
763.351
763.468
762.45
762.616
762.783
762.944
763.093
763.24
763.384
763.501
762.496
762.661
762.827
762.979
763.123
763.266
763.408
763.523
762.55
762.727
762.891
763.033
763.167
763.301
763.432
763.541
762.682
762.84
762.97
763.088
763.202
763.324
763.441
763.563
762.846
762.971
763.067
763.158
763.253
763.354
763.531
763.593
763.002
763.095
763.161
763.229
763.31
763.406
763.508
763.633
672.684
672.459
672.273
672.161
672.129
672.16
672.231
672.306
672.374
672.162
672.044
672.005
672.011
672.054
672.125
672.198
672.165
672.008
671.936
671.912
671.924
671.968
672.041
672.11
671.988
671.906
671.86
671.848
671.866
671.911
671.979
672.047
671.898
671.847
671.804
671.795
671.815
671.859
671.921
672.026
671.857
671.821
671.785
671.777
671.799
671.845
671.908
671.98
671.813
671.798
671.778
671.773
671.796
671.843
671.902
671.992
582.107
581.614
581.221
580.977
580.837
580.779
580.781
580.807
581.739
581.262
580.939
580.736
580.615
580.561
580.56
580.584
581.424
581.023
580.739
580.54
580.418
580.364
580.365
580.393
581.125
580.782
580.523
580.34
580.23
580.2
580.201
580.239
580.827
580.524
580.293
580.141
580.056
580.031
580.059
580.141
580.516
580.271
580.086
579.97
579.913
579.91
579.953
580.036
580.186
580.009
579.895
579.827
579.803
579.822
579.875
579.959
490.059
489.576
489.192
488.911
488.702
488.548
488.438
488.381
489.978
489.482
489.09
488.789
488.56
488.387
488.263
488.199
489.773
489.304
488.918
488.613
488.386
488.215
488.091
488.033
489.531
489.074
488.71
488.43
488.225
488.084
487.965
487.919
489.22
488.815
488.503
488.28
488.123
488.01
487.934
487.913
488.882
488.569
488.339
488.185
488.081
488.005
487.946
487.964
488.564
488.355
488.229
488.157
488.115
488.083
488.049
488.076
394.465
394.239
394.084
393.941
393.827
393.816
393.965
394.067
394.862
394.587
394.317
394.052
393.851
393.785
393.913
394.001
394.934
394.551
394.198
393.891
393.661
393.579
393.707
393.796
394.73
394.281
393.895
393.568
393.326
393.245
393.386
393.494
394.333
393.861
393.48
393.163
392.938
392.881
393.089
393.2
393.812
393.355
393.006
392.727
392.544
392.529
392.728
392.936
393.232
392.84
392.549
392.335
392.22
392.269
392.508
392.716
302.88
303.386
303.722
303.922
304.02
304.013
303.904
303.685
303.08
303.537
303.815
303.996
304.135
304.234
304.262
304.131
303.319
303.602
303.809
304.006
304.21
304.423
304.609
304.609
303.38
303.548
303.717
303.929
304.201
304.547
304.934
305.116
303.419
303.542
303.716
303.97
304.338
304.835
305.456
305.777
303.51
303.635
303.834
304.152
304.62
305.248
305.973
306.487
303.827
304.048
304.303
304.694
305.243
305.957
306.802
307.395
762.704
762.881
763.003
763.112
763.226
763.377
763.409
763.518
762.33
762.521
762.705
762.867
763.036
763.16
763.311
763.459
761.911
762.16
762.418
762.641
762.839
763.039
763.234
763.392
761.871
761.75
762.1
762.377
762.618
762.849
763.084
763.299
762.854
761.571
761.908
762.199
762.461
762.723
762.994
763.246
762.285
761.457
761.831
762.175
762.464
762.737
763.036
763.271
761.146
760.467
761.363
761.935
762.36
762.707
763.008
763.245
672.066
672.084
672.05
672.015
672.007
672.065
672.036
672.095
672.093
672.034
671.975
671.938
671.938
672.01
672.061
672.157
672.216
672.032
671.962
671.927
671.943
672.025
672.119
672.242
673.311
672.22
672.027
671.942
671.929
671.986
672.129
672.294
675.899
672.854
672.276
672.057
671.998
672.058
672.23
672.433
675.433
673.083
672.458
672.227
672.158
672.213
672.397
672.592
675.503
673.133
672.798
672.584
672.477
672.491
672.613
672.769
581.144
580.955
580.751
580.568
580.444
580.407
580.321
580.344
581.604
581.293
580.993
580.752
580.589
580.597
580.48
580.52
582.19
581.722
581.346
581.043
580.857
580.741
580.684
580.725
583.789
582.382
581.783
581.343
581.053
580.893
580.9
580.936
587.298
583.635
582.412
581.729
581.319
581.105
581.084
581.167
588.974
584.735
582.962
582.06
581.553
581.316
581.287
581.368
588.488
584.77
583.461
582.559
581.952
581.619
581.514
581.543
489.362
489.065
488.777
488.52
488.353
488.168
488.005
487.944
489.861
489.439
489.052
488.716
488.445
488.325
488.08
488.026
490.428
489.922
489.43
488.997
488.708
488.398
488.215
488.131
491.315
490.385
489.77
489.23
488.806
488.502
488.342
488.251
493.111
490.956
490.038
489.382
488.885
488.542
488.361
488.312
494.237
491.377
490.106
489.341
488.835
488.517
488.36
488.33
493.735
491.078
490.098
489.349
488.809
488.458
488.285
488.244
394.312
393.989
393.71
393.484
393.407
393.333
393.464
393.573
394.805
394.462
394.174
393.906
393.687
393.668
393.674
393.756
395.087
394.884
394.589
394.262
393.991
393.78
393.819
393.845
394.869
394.927
394.724
394.381
394.029
393.794
393.779
393.815
394.629
394.644
394.558
394.224
393.803
393.56
393.517
393.557
393.936
394.015
393.979
393.684
393.363
393.15
393.153
393.241
393.507
392.892
392.931
392.783
392.618
392.54
392.641
392.773
303.64
303.813
303.929
304.069
304.287
304.385
304.429
304.337
303.091
303.303
303.464
303.562
303.621
303.64
303.47
303.271
302.26
302.773
303.023
303.087
303.007
302.826
302.527
302.198
300.503
301.732
302.317
302.444
302.3
301.954
301.491
301.123
298.523
300.265
301.372
301.606
301.431
300.995
300.428
300.038
295.98
298.606
300.214
300.601
300.438
299.966
299.394
299.075
295.367
297.246
298.693
299.238
299.282
298.99
298.568
298.348
734.061
734.168
734.299
734.428
734.53
734.601
734.643
734.665
734.047
734.153
734.281
734.405
734.502
734.566
734.601
734.615
734.034
734.136
734.26
734.378
734.466
734.522
734.547
734.553
734.027
734.131
734.252
734.364
734.446
734.494
734.513
734.513
734.029
734.136
734.253
734.358
734.432
734.471
734.481
734.471
734.043
734.148
734.26
734.361
734.432
734.469
734.478
734.469
734.067
734.165
734.268
734.362
734.426
734.456
734.46
734.447
636.478
636.673
636.916
637.145
637.31
637.406
637.445
637.45
636.47
636.661
636.901
637.124
637.286
637.376
637.411
637.41
636.463
636.652
636.886
637.1
637.249
637.323
637.341
637.329
636.463
636.654
636.885
637.092
637.232
637.298
637.308
637.287
636.475
636.668
636.891
637.09
637.22
637.276
637.275
637.241
636.499
636.686
636.9
637.094
637.221
637.276
637.275
637.245
636.537
636.706
636.903
637.086
637.203
637.247
637.236
637.198
538.514
538.941
539.427
539.853
540.128
540.252
540.279
540.258
538.518
538.934
539.418
539.842
540.118
540.244
540.278
540.266
538.527
538.941
539.416
539.826
540.082
540.183
540.189
540.164
538.539
538.959
539.429
539.83
540.076
540.169
540.169
540.14
538.562
538.985
539.447
539.84
540.076
540.16
540.151
540.114
538.594
539.006
539.456
539.844
540.08
540.166
540.159
540.129
538.633
539.016
539.444
539.82
540.043
540.11
540.081
540.025
439.971
441.099
441.999
442.721
443.136
443.272
443.26
443.208
439.983
441.096
441.995
442.72
443.142
443.29
443.305
443.287
440.018
441.127
442.011
442.71
443.091
443.182
443.126
443.131
440.056
441.166
442.042
442.729
443.097
443.181
443.12
443.144
440.098
441.203
442.079
442.761
443.126
443.207
443.14
443.144
440.138
441.208
442.085
442.775
443.151
443.242
443.18
443.187
440.159
441.166
442.043
442.738
443.105
443.174
443.081
443.034
341.009
343.36
344.921
346.123
346.688
346.561
346.274
346.475
341.193
343.461
344.959
346.128
346.67
346.516
346.359
346.819
341.252
343.524
344.996
346.124
346.594
346.309
345.891
346.489
341.256
343.534
345.027
346.154
346.606
346.297
345.873
346.567
341.265
343.506
345.06
346.223
346.697
346.419
345.991
346.651
341.275
343.393
345.024
346.251
346.776
346.56
346.095
346.656
341.305
343.194
344.919
346.234
346.815
346.61
346.1
346.414
225.361
241.986
248.166
250.901
251.535
251.257
252.034
252.598
225.713
242.345
248.323
250.883
251.449
251.195
252.286
252.9
225.841
242.498
248.457
251.02
251.583
251.22
252.693
253.704
226.007
242.465
248.506
251.084
251.539
251.18
252.708
253.808
226.449
242.317
248.515
251.192
251.655
251.229
252.739
253.821
227.158
242
248.414
251.327
251.964
251.333
252.46
253.647
228.137
241.521
248.235
251.57
252.473
251.905
252.663
253.961
734.398
734.374
734.44
734.543
734.64
734.718
734.771
734.803
734.401
734.385
734.454
734.56
734.658
734.736
734.789
734.821
734.385
734.39
734.465
734.571
734.675
734.757
734.814
734.85
734.346
734.356
734.447
734.559
734.662
734.742
734.795
734.829
734.289
734.317
734.406
734.52
734.618
734.69
734.737
734.766
734.235
734.279
734.374
734.487
734.581
734.647
734.686
734.708
734.186
734.243
734.343
734.455
734.545
734.607
734.645
734.666
636.941
636.876
636.977
637.175
637.352
637.472
637.528
637.542
636.945
636.894
637
637.197
637.373
637.49
637.544
637.555
636.929
636.916
637.032
637.228
637.405
637.524
637.581
637.597
636.875
636.886
637.024
637.223
637.396
637.51
637.56
637.571
636.793
636.824
636.985
637.182
637.344
637.443
637.481
637.485
636.716
636.78
636.954
637.154
637.308
637.394
637.42
637.414
636.643
636.735
636.917
637.118
637.266
637.348
637.375
637.375
539.022
538.934
539.212
539.663
540.032
540.241
540.301
540.28
539.047
538.965
539.244
539.69
540.055
540.256
540.308
540.281
539.047
539.011
539.304
539.748
540.107
540.304
540.354
540.329
538.988
539.009
539.328
539.764
540.105
540.284
540.319
540.281
538.869
538.952
539.332
539.738
540.041
540.181
540.184
540.128
538.752
538.921
539.309
539.721
540
540.112
540.092
540.015
538.634
538.866
539.274
539.68
539.939
540.036
540.017
539.953
439.757
440.134
441.057
442.069
442.813
443.165
443.211
443.138
439.74
440.141
441.073
442.093
442.833
443.173
443.201
443.111
439.756
440.225
441.175
442.191
442.914
443.235
443.247
443.147
439.732
440.275
441.269
442.25
442.922
443.201
443.186
443.063
439.695
440.328
441.364
442.262
442.831
443.015
442.926
442.738
439.683
440.42
441.419
442.286
442.787
442.91
442.784
442.565
439.687
440.49
441.454
442.253
442.683
442.761
442.626
442.421
340.872
340.792
342.868
344.739
346.098
346.62
346.317
345.791
340.918
340.877
342.909
344.78
346.137
346.639
346.297
345.742
341.014
341.093
343.11
344.972
346.284
346.741
346.371
345.75
341.069
341.272
343.304
345.118
346.327
346.697
346.274
345.756
341
341.473
343.483
345.208
346.236
346.42
345.831
345.338
340.897
341.591
343.614
345.294
346.209
346.307
345.739
345.331
340.778
341.698
343.675
345.246
346.019
346.008
345.565
345.309
231.527
230.151
240.321
247.134
250.927
251.479
250.155
251.007
231.592
230.109
240.278
247.131
250.978
251.55
250.116
251
232.005
230.732
240.83
247.588
251.295
251.782
250.344
251.169
231.862
231.8
241.609
248.12
251.493
251.773
250.374
250.695
231.486
233.409
242.693
248.766
251.581
251.516
250.143
250.31
230.71
235.099
243.627
249.227
251.511
251.155
250.089
250.856
230.023
236.621
244.446
249.406
251.07
250.32
249.743
251.775
734.153
734.222
734.325
734.437
734.525
734.583
734.617
734.635
734.129
734.207
734.315
734.43
734.518
734.577
734.609
734.626
734.111
734.197
734.309
734.424
734.511
734.566
734.594
734.605
734.095
734.188
734.306
734.423
734.512
734.568
734.597
734.608
734.086
734.186
734.31
734.432
734.527
734.589
734.624
734.641
734.085
734.186
734.315
734.444
734.546
734.614
734.655
734.676
734.077
734.182
734.314
734.447
734.553
734.627
734.671
734.696
636.597
636.714
636.908
637.111
637.256
637.332
637.356
637.355
636.562
636.702
636.907
637.114
637.261
637.338
637.363
637.362
636.535
636.696
636.91
637.116
637.259
637.331
637.348
637.34
636.513
636.689
636.912
637.121
637.265
637.337
637.356
637.347
636.505
636.689
636.921
637.138
637.288
637.366
637.391
637.39
636.502
636.692
636.932
637.159
637.32
637.408
637.441
637.444
636.492
636.686
636.933
637.166
637.335
637.433
637.475
637.481
538.58
538.872
539.299
539.701
539.949
540.036
540.018
539.977
538.557
538.898
539.336
539.736
539.982
540.074
540.065
540.034
538.55
538.932
539.377
539.767
539.999
540.077
540.061
540.023
538.546
538.945
539.399
539.786
540.014
540.091
540.076
540.043
538.548
538.96
539.423
539.816
540.049
540.126
540.112
540.08
538.545
538.967
539.445
539.857
540.112
540.212
540.212
540.175
538.527
538.956
539.444
539.873
540.149
540.274
540.299
540.274
439.775
440.65
441.584
442.335
442.721
442.772
442.629
442.45
439.862
440.807
441.715
442.431
442.801
442.866
442.756
442.613
439.952
440.945
441.831
442.513
442.85
442.888
442.757
442.583
440.002
441.033
441.899
442.557
442.877
442.907
442.776
442.596
440.036
441.099
441.96
442.618
442.936
442.958
442.817
442.622
440.041
441.132
442.014
442.708
443.078
443.157
443.079
442.99
439.995
441.114
442.016
442.742
443.163
443.307
443.303
443.254
340.788
341.987
343.919
345.397
346.054
345.87
345.299
345.305
340.818
342.328
344.177
345.567
346.172
345.99
345.492
345.621
340.86
342.68
344.445
345.756
346.302
346.075
345.589
345.66
340.936
342.954
344.621
345.85
346.332
346.053
345.646
345.84
341.042
343.188
344.792
345.979
346.436
346.115
345.696
345.922
341.073
343.323
344.923
346.135
346.663
346.459
345.992
346.212
340.95
343.301
344.909
346.149
346.745
346.668
346.411
346.678
229.398
238.186
245.576
250
251.341
250.587
250.367
252.548
228.542
239.44
246.538
250.42
251.438
250.777
250.779
252.239
227.688
240.487
247.357
250.82
251.666
251.095
251.499
253.626
227.094
241.258
247.811
250.882
251.542
251.024
251.762
254.12
226.705
241.868
248.195
251.081
251.727
251.253
252.21
254.186
226.186
242.114
248.377
251.203
251.903
251.59
252.458
253.185
225.436
241.823
248.109
250.928
251.652
251.395
252.188
252.629
734.098
734.184
734.277
734.364
734.423
734.452
734.457
734.451
734.134
734.205
734.291
734.376
734.437
734.471
734.483
734.485
734.173
734.229
734.309
734.396
734.461
734.502
734.52
734.527
734.22
734.254
734.328
734.417
734.489
734.539
734.566
734.578
734.275
734.284
734.354
734.448
734.529
734.589
734.625
734.644
734.326
734.314
734.378
734.473
734.559
734.624
734.665
734.687
734.367
734.345
734.408
734.506
734.598
734.669
734.716
734.745
636.582
636.716
636.894
637.067
637.177
637.219
637.213
637.19
636.626
636.724
636.888
637.058
637.172
637.221
637.223
637.21
636.67
636.736
636.889
637.062
637.187
637.249
637.261
637.25
636.724
636.752
636.893
637.07
637.208
637.286
637.311
637.305
636.795
636.781
636.909
637.095
637.25
637.347
637.385
637.388
636.856
636.811
636.921
637.109
637.271
637.374
637.417
637.42
636.903
636.842
636.943
637.135
637.304
637.416
637.466
637.475
538.665
538.981
539.387
539.754
539.968
540.027
539.996
539.953
538.69
538.938
539.329
539.7
539.925
539.998
539.979
539.945
538.717
538.906
539.287
539.669
539.919
540.018
540.013
539.975
538.763
538.881
539.248
539.643
539.925
540.056
540.073
540.036
538.843
538.884
539.217
539.642
539.968
540.143
540.189
540.172
538.918
538.89
539.191
539.627
539.969
540.156
540.204
540.179
538.975
538.907
539.19
539.632
539.987
540.184
540.236
540.215
440.101
441.036
441.898
442.594
442.946
442.981
442.832
442.801
440.022
440.838
441.723
442.456
442.847
442.916
442.795
442.793
439.921
440.656
441.579
442.367
442.821
442.951
442.9
442.838
439.811
440.463
441.427
442.276
442.805
443.003
442.99
442.899
439.735
440.309
441.284
442.214
442.851
443.149
443.213
443.19
439.726
440.214
441.157
442.125
442.811
443.139
443.202
443.163
439.754
440.165
441.083
442.068
442.779
443.112
443.155
443.1
341.275
342.826
344.622
346.012
346.633
346.409
345.808
346.184
341.152
342.383
344.254
345.74
346.452
346.312
345.694
346.109
341.007
341.997
343.957
345.547
346.371
346.366
345.813
345.972
340.893
341.626
343.647
345.342
346.307
346.497
346.135
346.036
340.906
341.284
343.368
345.172
346.323
346.708
346.428
346.476
340.924
341.047
343.133
344.967
346.214
346.67
346.356
346.225
340.9
340.886
342.961
344.803
346.092
346.536
346.108
345.683
229.073
240.614
247.547
251.314
252.447
251.955
252.914
253.875
229.653
239.28
246.44
250.671
252.043
251.575
252.455
253.059
229.963
237.727
245.332
250.078
251.705
251.121
251.413
252.381
230.225
235.87
244.068
249.374
251.382
250.88
250.449
251.504
230.605
233.939
242.801
248.673
251.287
251.207
250.563
251.332
231.159
232.142
241.713
248.028
251.168
251.406
250.493
251.285
231.456
230.95
240.913
247.542
251.08
251.519
250.362
251.258
832.009
831.862
831.97
734.68
734.689
734.701
734.723
734.766
734.833
734.916
735.002
734.619
734.621
734.624
734.634
734.674
734.738
734.817
734.93
734.553
734.553
734.553
734.563
734.598
734.661
734.741
734.857
734.509
734.506
734.505
734.511
734.544
734.605
734.691
734.808
734.459
734.449
734.442
734.443
734.466
734.523
734.607
734.737
734.46
734.452
734.448
734.45
734.47
734.523
734.604
734.735
734.436
734.428
734.425
734.432
734.456
734.51
734.593
734.716
637.448
637.449
637.447
637.452
637.521
637.643
637.749
637.818
637.396
637.392
637.396
637.454
637.464
637.591
637.741
637.785
637.31
637.303
637.3
637.339
637.345
637.457
637.616
637.668
637.262
637.247
637.235
637.249
637.259
637.358
637.513
637.58
637.203
637.177
637.15
637.137
637.143
637.235
637.462
637.505
637.213
637.193
637.176
637.174
637.187
637.252
637.448
637.5
637.163
637.144
637.132
637.148
637.172
637.241
637.408
637.47
540.25
540.262
540.32
540.49
540.569
540.557
540.667
540.731
540.242
540.243
540.376
540.443
540.609
540.521
540.705
540.784
540.137
540.135
540.23
540.281
540.483
540.375
540.548
540.634
540.11
540.104
540.182
540.235
540.432
540.328
540.476
540.567
540.076
540.058
540.12
540.191
540.432
540.377
540.438
540.545
540.103
540.088
540.149
540.284
540.381
540.454
540.5
540.589
539.978
539.94
540.028
540.178
540.261
540.341
540.415
540.514
443.15
443.388
443.686
444.025
443.883
443.834
443.922
444.046
443.196
443.877
443.985
444.079
444.493
443.977
444.084
444.17
443.07
443.572
443.742
443.833
444.299
443.846
443.928
444.004
443.117
443.614
443.746
443.882
444.014
443.772
443.81
443.871
443.148
443.523
443.776
443.896
444.081
443.973
443.905
444.057
443.289
443.556
443.945
444.118
444.074
444.312
443.912
443.944
443.157
443.494
443.758
443.96
443.907
444.064
443.792
443.864
347.925
348.285
348.417
348.462
348.017
348.202
348.295
348.294
348.151
348.13
348.812
348.804
348.57
348.715
348.252
348.357
347.772
347.714
348.438
348.563
348.419
348.569
348.064
348.187
347.894
347.696
348.355
348.477
348.318
348.668
348.016
348.109
347.658
347.98
348.207
348.328
348.141
348.242
347.961
347.993
347.392
348.276
348.116
348.215
347.971
348.061
347.962
347.936
347.202
348.518
348.019
348.104
347.945
348.59
348.145
348.285
254.145
254.489
255.178
254.864
254.854
255.535
255.467
255.093
253.959
254.172
255.086
255.046
254.709
255.16
255.032
255.008
253.67
253.946
254.659
255.152
254.795
255.058
255.024
254.957
253.641
253.883
254.569
255.028
254.663
254.872
254.931
254.827
253.717
253.967
254.62
254.946
254.422
254.713
255.115
254.776
253.428
253.935
255.067
254.954
254.275
254.666
254.665
254.52
254.194
254.729
254.947
254.186
254.244
254.765
254.744
254.613
734.826
734.841
734.859
734.886
734.934
735.021
735.143
735.275
734.844
734.859
734.877
734.905
734.954
735.043
735.17
735.309
734.877
734.896
734.916
734.946
734.998
735.087
735.214
735.356
734.854
734.872
734.892
734.922
734.973
735.057
735.175
735.31
734.791
734.809
734.83
734.86
734.91
734.986
735.09
735.207
734.728
734.743
734.762
734.79
734.836
734.904
734.995
735.097
734.688
734.705
734.725
734.753
734.794
734.853
734.929
735.015
637.548
637.55
637.558
637.574
637.633
637.744
637.899
638.041
637.561
637.563
637.57
637.587
637.644
637.758
637.921
638.074
637.61
637.615
637.622
637.639
637.69
637.809
637.972
638.134
637.58
637.584
637.593
637.614
637.656
637.771
637.924
638.074
637.494
637.504
637.52
637.55
637.596
637.704
637.833
637.957
637.418
637.427
637.442
637.47
637.527
637.624
637.735
637.839
637.388
637.402
637.425
637.463
637.52
637.597
637.683
637.763
540.262
540.244
540.269
540.331
540.689
540.616
540.747
540.889
540.263
540.248
540.276
540.335
540.63
540.631
540.747
540.9
540.323
540.318
540.331
540.361
540.663
540.612
540.767
540.927
540.263
540.257
540.279
540.316
540.579
540.524
540.682
540.824
540.113
540.127
540.192
540.261
540.469
540.465
540.606
540.713
539.99
540.005
540.091
540.182
540.305
540.371
540.497
540.588
539.947
539.976
540.044
540.111
540.229
540.343
540.434
540.494
443.151
443.189
443.327
443.531
443.696
443.597
443.696
443.881
443.125
443.172
443.28
443.5
443.692
443.637
443.724
443.912
443.165
443.172
443.244
443.436
443.684
443.531
443.64
443.81
443.027
443.022
443.146
443.382
443.643
443.43
443.539
443.683
442.624
442.653
442.947
443.258
443.57
443.311
443.425
443.55
442.402
442.541
442.884
443.178
443.436
443.191
443.31
443.424
442.255
442.407
442.727
443.147
443.162
443.189
443.242
443.323
346.549
347.207
347.648
347.744
347.732
347.299
347.016
347.189
346.537
347.108
347.68
347.694
347.758
347.323
347.047
347.183
346.475
346.895
347.769
347.587
347.66
347.207
346.939
347.068
346.392
347.002
347.652
347.684
347.727
347.243
347.04
347.15
345.829
347.168
346.977
347.669
347.586
347.369
347.134
347.309
345.94
346.942
346.599
347.59
347.398
347.453
347.203
347.373
346.518
346.809
346.832
347.176
347.27
346.899
346.904
347.026
251.489
252.276
253.25
254.503
254.547
254.349
254.778
254.375
251.511
252.268
253.277
254.598
254.642
254.37
254.803
254.368
251.558
252.238
253.265
254.622
254.654
254.411
254.601
254.325
251.336
252.343
253.429
254.842
254.701
254.535
254.506
254.412
251.781
253.155
254.016
255.343
254.664
254.48
254.468
254.365
252.57
253.355
253.911
255.165
254.663
254.326
254.429
254.327
254.082
253.994
253.866
254.989
254.505
254.323
254.527
254.498
734.654
734.669
734.686
734.712
734.75
734.805
734.873
734.947
734.642
734.654
734.667
734.69
734.726
734.779
734.843
734.913
734.616
734.623
734.632
734.65
734.684
734.738
734.805
734.873
734.619
734.625
734.633
734.651
734.686
734.742
734.814
734.888
734.657
734.669
734.682
734.704
734.741
734.796
734.866
734.941