/*--------------------------------*- C++ -*----------------------------------*\
| =========                 |                                                 |
| \\      /  F ield         | OpenFOAM: The Open Source CFD Toolbox           |
|  \\    /   O peration     | Version:  plus.master.MPPICInterFoam            |
|   \\  /    A nd           | Web:      www.OpenFOAM.com                      |
|    \\/     M anipulation  |                                                 |
\*---------------------------------------------------------------------------*/
FoamFile
{
    version     2.0;
    format      ascii;
    class       surfaceScalarField;
    location    "11.2";
    object      phi;
}
// * * * * * * * * * * * * * * * * * * * * * * * * * * * * * * * * * * * * * //

dimensions      [0 3 -1 0 0 0 0];

internalField   nonuniform List<scalar> 
34319
(
-6.13719e-08
-1.52612e-07
6.24627e-06
8.91256e-08
1.70968e-07
-1.67534e-08
-1.69148e-07
6.12431e-06
1.78223e-07
3.89381e-08
-1.84983e-07
5.756e-06
1.79279e-07
7.76306e-08
-1.58969e-07
5.21528e-06
1.57062e-07
9.90974e-08
-1.3411e-07
4.58435e-06
1.32605e-07
1.06208e-07
-1.14136e-07
3.9282e-06
1.11036e-07
-9.7755e-08
3.28071e-06
1.01353e-07
9.32869e-08
-1.30438e-07
-8.10103e-08
7.59681e-06
1.58151e-07
-6.92021e-08
-1.13216e-07
7.47393e-06
2.67921e-08
-1.72366e-07
6.92923e-06
8.76431e-08
-1.42706e-07
6.14421e-06
1.19106e-07
-1.20223e-07
5.3164e-06
1.29389e-07
-1.04054e-07
4.50954e-06
-9.13979e-08
3.75267e-06
1.2459e-07
-3.06583e-07
8.83066e-08
9.79915e-06
2.70923e-07
-1.30419e-07
-2.84148e-08
9.69785e-06
3.70025e-08
-1.29564e-07
8.6489e-06
1.20278e-07
-8.57693e-08
7.23863e-06
1.52944e-07
-7.56761e-08
6.05e-06
1.59901e-07
-7.33054e-08
5.05697e-06
-7.08675e-08
4.17771e-06
1.51474e-07
-6.62786e-07
3.63427e-07
1.2126e-05
5.53157e-07
-1.9594e-07
2.2288e-07
1.17544e-05
6.14841e-08
1.78727e-08
1.06357e-05
1.48206e-07
3.64214e-08
8.43154e-06
1.84897e-07
-2.04906e-09
6.70514e-06
1.87395e-07
-2.27753e-08
5.50572e-06
-3.7671e-08
4.51886e-06
1.75052e-07
-9.07356e-07
3.36055e-07
1.30527e-05
6.77548e-07
-3.78233e-07
4.65225e-07
1.26282e-05
-7.70754e-08
2.84446e-07
1.16609e-05
1.06901e-07
8.39821e-08
9.2479e-06
1.80095e-07
4.83293e-08
7.11692e-06
1.94404e-07
2.36205e-08
5.78366e-06
-3.94405e-09
4.73449e-06
1.85886e-07
-7.0388e-07
2.0269e-07
1.27345e-05
6.15305e-07
-3.31949e-07
3.70147e-07
1.29866e-05
-1.92392e-08
3.1718e-07
1.16997e-05
1.08862e-07
1.55938e-07
9.22163e-06
1.75575e-07
1.00795e-07
7.16273e-06
1.91678e-07
6.55514e-08
5.83952e-06
2.531e-08
4.79758e-06
1.86596e-07
-3.46556e-07
1.11495e-05
2.71604e-07
1.47852e-07
-2.26061e-07
1.15707e-05
2.35734e-07
-4.81714e-08
1.04436e-05
2.19208e-07
8.06948e-08
8.42817e-06
1.66747e-07
1.48287e-07
6.84253e-06
1.27947e-07
1.73532e-07
5.67945e-06
8.73893e-08
4.70549e-06
1.78797e-07
3.79994e-08
-2.02532e-08
-3.30094e-07
6.24051e-06
8.57424e-08
2.70408e-07
3.52281e-08
-3.1078e-07
6.11133e-06
2.68214e-07
9.48679e-08
-3.0581e-07
5.74691e-06
2.55221e-07
1.2637e-07
-2.44691e-07
5.21515e-06
2.13152e-07
1.35902e-07
-1.89068e-07
4.59334e-06
1.70329e-07
1.32199e-07
-1.49453e-07
3.94455e-06
1.36686e-07
-1.20827e-07
3.30326e-06
1.18906e-07
1.11435e-07
-5.0835e-08
-3.69471e-07
7.52322e-06
1.63847e-07
1.73027e-08
-2.89247e-07
7.38377e-06
1.28753e-07
-3.53254e-07
6.86527e-06
1.72141e-07
-2.60481e-07
6.11649e-06
1.79868e-07
-1.91926e-07
5.31147e-06
1.69842e-07
-1.47943e-07
4.51801e-06
-1.19033e-07
3.76977e-06
1.50491e-07
-2.11164e-07
-2.17847e-07
9.52729e-06
3.31001e-07
3.08862e-08
-2.50543e-07
9.4169e-06
2.06014e-07
-3.01655e-07
8.42224e-06
2.54211e-07
-2.12759e-07
7.1424e-06
2.43525e-07
-1.54245e-07
6.02269e-06
2.17557e-07
-1.20741e-07
5.0557e-06
-1.00577e-07
4.18932e-06
1.87158e-07
-4.67732e-07
1.30979e-07
1.16873e-05
5.57514e-07
-1.10711e-07
-3.53887e-08
1.1182e-05
2.14673e-07
-1.26329e-07
1.01344e-05
3.20041e-07
-1.04595e-07
8.21787e-06
3.01358e-07
-7.50159e-08
6.6444e-06
2.61205e-07
-6.87244e-08
5.49398e-06
-6.62647e-08
4.52537e-06
2.2032e-07
-5.87271e-07
3.37526e-07
1.27825e-05
6.50503e-07
-2.71299e-07
1.32929e-07
1.21437e-05
1.38106e-07
1.83501e-07
1.09416e-05
3.18147e-07
4.02892e-08
8.92339e-06
3.24638e-07
2.71583e-09
7.03301e-06
2.83567e-07
-9.07135e-09
5.76513e-06
-2.5724e-08
4.73783e-06
2.39511e-07
-5.02107e-07
3.1223e-07
1.27005e-05
5.60622e-07
-2.37909e-07
2.62579e-07
1.2593e-05
1.8488e-07
2.91503e-07
1.11688e-05
3.49563e-07
1.83841e-07
8.91339e-06
3.34561e-07
1.03338e-07
7.07736e-06
2.8801e-07
5.55336e-08
5.82135e-06
1.58199e-08
4.80085e-06
2.42908e-07
-2.72358e-07
1.10231e-05
3.31098e-07
3.80778e-07
-6.4676e-08
1.12923e-05
3.33379e-07
2.1144e-07
1.00625e-05
3.96268e-07
3.07072e-07
8.24041e-06
2.76158e-07
2.96206e-07
6.78525e-06
1.71465e-07
2.61817e-07
5.66892e-06
1.00292e-07
4.71212e-06
2.27759e-07
4.31336e-08
1.10322e-09
-3.02964e-07
6.24936e-06
6.24205e-08
2.30635e-07
4.92765e-08
-2.77191e-07
6.11677e-06
2.23509e-07
8.72759e-08
-2.47676e-07
5.75361e-06
2.02776e-07
1.08086e-07
-2.00081e-07
5.22438e-06
1.6986e-07
1.15882e-07
-1.59062e-07
4.60478e-06
1.39686e-07
1.15444e-07
-1.31125e-07
3.9588e-06
1.17376e-07
-1.12186e-07
3.32202e-06
1.07041e-07
1.01739e-07
2.17538e-09
-3.72356e-07
7.48422e-06
1.06335e-07
6.92232e-08
-3.04587e-07
7.34371e-06
1.23156e-07
-2.84782e-07
6.84862e-06
1.47954e-07
-2.27906e-07
6.11943e-06
1.50945e-07
-1.706e-07
5.3201e-06
1.43558e-07
-1.34633e-07
4.52901e-06
-1.12877e-07
3.78408e-06
1.29762e-07
-2.43332e-09
-2.94602e-07
9.26222e-06
1.89515e-07
1.08553e-07
-2.20979e-07
9.22174e-06
2.03752e-07
-2.63439e-07
8.30607e-06
2.28046e-07
-2.25195e-07
7.11524e-06
2.08345e-07
-1.54756e-07
6.02657e-06
1.83231e-07
-1.17627e-07
5.06399e-06
-9.97155e-08
4.20021e-06
1.58895e-07
8.49139e-08
-1.9595e-07
1.12861e-05
2.17785e-07
7.74285e-08
-2.83212e-07
1.12519e-05
2.81467e-07
-2.16347e-07
9.88374e-06
3.15986e-07
-1.69408e-07
8.12736e-06
2.67654e-07
-9.8193e-08
6.63565e-06
2.22168e-07
-7.73128e-08
5.49912e-06
-7.20675e-08
4.53337e-06
1.86527e-07
-1.45709e-08
-2.42647e-08
1.2377e-05
2.48815e-07
3.54916e-08
-1.52189e-07
1.19626e-05
2.62106e-07
-9.31109e-08
1.05917e-05
3.22555e-07
-5.10119e-08
8.74469e-06
2.90821e-07
-3.99373e-08
7.00689e-06
2.41264e-07
-2.95823e-08
5.76713e-06
-3.84841e-08
4.74355e-06
2.02074e-07
-5.04154e-08
1.54373e-07
1.22714e-05
3.01472e-07
9.97923e-08
2.67596e-08
1.22633e-05
2.83655e-07
5.82085e-08
1.08346e-05
3.61125e-07
8.80252e-08
8.69702e-06
2.99815e-07
5.63085e-08
7.04265e-06
2.43995e-07
2.69702e-08
5.82058e-06
-2.43239e-09
4.805e-06
2.03709e-07
-2.99249e-08
1.06049e-05
2.52505e-07
3.51142e-07
1.53118e-07
1.07654e-05
3.7038e-07
2.94151e-07
9.6718e-06
3.07439e-07
3.05866e-07
8.1078e-06
2.08972e-07
2.59428e-07
6.76397e-06
1.23981e-07
2.17851e-07
5.66975e-06
6.76314e-08
4.7165e-06
1.90102e-07
2.09939e-08
-9.65335e-09
-8.41244e-08
6.23449e-06
3.83363e-08
7.05028e-08
4.66522e-09
-5.46948e-08
6.10066e-06
5.63813e-08
1.59508e-08
-4.64873e-08
5.73581e-06
5.27291e-08
3.1635e-08
-5.45361e-08
5.20609e-06
5.70382e-08
4.87023e-08
-6.44142e-08
4.58835e-06
6.37319e-08
6.17656e-08
-7.24734e-08
3.94895e-06
6.9294e-08
-7.82202e-08
3.32211e-06
6.69505e-08
7.28725e-08
1.59395e-09
-1.25496e-07
7.47539e-06
4.8619e-08
1.24155e-08
-5.63079e-08
7.33434e-06
1.03857e-08
-3.83832e-08
6.84236e-06
2.79083e-08
-6.01101e-08
6.10747e-06
4.84346e-08
-6.74566e-08
5.3028e-06
6.50989e-08
-7.27241e-08
4.51277e-06
-7.85559e-08
3.77568e-06
7.39261e-08
7.53297e-08
-1.98142e-07
9.21059e-06
4.88892e-08
4.3834e-08
-3.29543e-08
9.22929e-06
3.23184e-08
-4.25254e-08
8.32158e-06
4.76912e-08
-7.85203e-08
7.11835e-06
6.24632e-08
-6.9211e-08
6.01388e-06
7.57396e-08
-6.64311e-08
5.04448e-06
-7.1434e-08
4.18456e-06
8.42611e-08
2.00408e-07
-4.34281e-07
1.12883e-05
3.31018e-08
2.05147e-07
-3.80247e-07
1.15948e-05
1.03406e-07
-1.4411e-07
1.00878e-05
9.76843e-08
-9.7525e-08
8.15191e-06
8.81203e-08
-5.38818e-08
6.62948e-06
8.87133e-08
-4.68846e-08
5.47864e-06
-5.56064e-08
4.5123e-06
9.40199e-08
3.20627e-07
-2.67532e-07
1.20096e-05
-1.19521e-07
3.18763e-07
-3.14259e-07
1.18986e-05
1.3674e-07
-3.22414e-07
1.09516e-05
1.01774e-07
-8.54333e-08
8.76731e-06
8.68651e-08
-3.32915e-08
7.00125e-06
8.74316e-08
-2.59832e-08
5.74576e-06
-3.82624e-08
4.71855e-06
9.53167e-08
2.53384e-07
-3.24937e-08
1.16235e-05
1.60177e-07
3.64709e-07
-2.36714e-07
1.20733e-05
1.35398e-07
-1.40618e-07
1.0883e-05
9.72095e-08
-3.0727e-08
8.68062e-06
7.70461e-08
3.065e-10
7.02918e-06
7.84043e-08
-2.47986e-09
5.79564e-06
-2.19112e-08
4.77675e-06
9.03429e-08
9.82402e-08
1.03017e-05
9.13612e-08
8.08988e-08
1.15906e-07
1.04304e-05
8.04167e-08
5.25652e-08
9.56126e-06
3.27296e-08
3.2577e-08
8.08154e-06
1.52204e-08
3.86531e-08
6.74236e-06
1.56712e-08
5.82534e-08
5.64051e-06
7.0489e-09
4.68557e-06
8.39479e-08
-1.66638e-08
-4.38578e-08
1.45601e-07
6.13679e-06
4.03902e-08
-4.44086e-08
-4.50259e-08
1.5573e-07
6.00106e-06
-5.51246e-08
-2.31658e-08
1.0094e-07
5.63494e-06
-2.20844e-08
1.71717e-08
3.20841e-08
5.10792e-06
2.57281e-08
6.92743e-08
-3.78453e-08
4.49936e-06
7.4753e-08
1.19436e-07
-9.04744e-08
3.87539e-06
1.13884e-07
-1.28604e-07
3.26918e-06
1.58489e-07
1.42487e-07
-5.55522e-08
2.2417e-07
7.4252e-06
2.69215e-08
-9.48774e-08
2.47119e-07
7.28231e-06
-8.99122e-08
1.69777e-07
6.7682e-06
-4.29148e-08
8.31409e-08
6.00949e-06
2.52007e-08
-4.82924e-09
5.20155e-06
9.14442e-08
-6.66152e-08
4.42243e-06
-1.09736e-07
3.70438e-06
1.43819e-07
-1.54748e-08
1.78808e-07
9.31802e-06
-4.66031e-08
-1.5192e-07
2.63694e-07
9.34897e-06
-1.52779e-07
1.30494e-07
8.36132e-06
-1.03628e-07
9.48562e-08
7.05768e-06
-1.79531e-08
1.2821e-08
5.91077e-06
6.45009e-08
-4.65667e-08
4.94171e-06
-8.78783e-08
4.09849e-06
1.28753e-07
-3.5747e-08
2.1379e-08
1.15021e-05
-2.11449e-08
2.60098e-08
-4.79241e-08
1.18449e-05
-1.29044e-07
2.14629e-08
1.03519e-05
-1.43461e-07
8.65959e-08
8.17457e-06
-5.37375e-08
1.56944e-08
6.53692e-06
3.89012e-08
-2.84197e-08
5.36767e-06
-6.46009e-08
4.41484e-06
1.13084e-07
2.38035e-07
-9.48272e-08
1.19054e-05
-1.74672e-08
5.23339e-08
-2.82728e-07
1.23192e-05
-2.56267e-07
-1.88383e-07
1.14699e-05
-2.23277e-07
-5.82414e-08
8.87883e-06
-1.07421e-07
-1.56898e-08
6.91648e-06
4.95059e-09
-2.46763e-08
5.62954e-06
-4.81212e-08
4.61335e-06
9.36875e-08
7.06042e-08
-3.91762e-08
1.12871e-05
2.10492e-07
-4.10629e-08
-1.97205e-07
1.20988e-05
-2.61575e-07
-2.05007e-07
1.11199e-05
-2.60286e-07
-1.47162e-07
8.76818e-06
-1.39952e-07
-5.35135e-08
6.94644e-06
-1.7521e-08
-2.85554e-08
5.67708e-06
-3.70972e-08
4.66823e-06
8.00979e-08
-5.1814e-08
1.03956e-05
7.21433e-08
-1.54326e-07
-1.95271e-07
1.05713e-05
-1.94854e-07
-3.20484e-07
9.71231e-06
-2.30984e-07
-2.80077e-07
8.08008e-06
-1.86241e-07
-1.50156e-07
6.643e-06
-8.4096e-08
-2.29326e-08
5.52044e-06
-3.57106e-08
4.57846e-06
8.12168e-08
-3.4156e-08
-6.61269e-08
9.36663e-08
1.10002e-07
5.31302e-08
5.946e-06
-2.60921e-08
7.83818e-08
6.86341e-08
5.81401e-06
4.03839e-08
-7.72668e-09
1.21332e-07
5.45496e-06
1.1897e-07
-9.44522e-08
1.82409e-07
4.94161e-06
2.0178e-07
-1.74517e-07
2.38029e-07
4.35321e-06
2.75768e-07
-2.3078e-07
2.79653e-07
3.75253e-06
-2.64503e-07
3.37033e-07
3.02559e-07
3.16978e-06
-1.08947e-07
2.59258e-07
1.0487e-07
7.26342e-06
-1.09268e-07
2.3701e-07
7.12444e-06
-4.02914e-08
1.03772e-07
6.58747e-06
5.58255e-08
-3.94912e-09
5.82293e-06
1.62694e-07
-1.09985e-07
5.02984e-06
2.58951e-07
-1.80506e-07
4.27548e-06
-2.23438e-07
3.389e-07
3.58305e-06
-1.9993e-07
3.38031e-07
7.67621e-08
9.36243e-06
-2.2009e-07
3.03956e-07
9.30273e-06
-1.33909e-07
1.35171e-07
8.24328e-06
-1.93255e-08
6.12407e-08
6.87819e-06
1.14365e-07
-5.22843e-08
5.71918e-06
2.33195e-07
-1.29568e-07
4.77154e-06
-1.74873e-07
3.26999e-07
3.95606e-06
-4.07021e-07
4.78504e-07
2.83637e-07
1.1485e-05
-2.77632e-07
4.94074e-07
1.15251e-05
-1.83365e-07
1.78282e-07
1.02137e-05
-9.70881e-08
1.17638e-07
8.03245e-06
6.22615e-08
-1.16486e-08
6.33766e-06
2.01322e-07
-7.92901e-08
5.17847e-06
-1.22108e-07
3.07944e-07
4.25534e-06
-4.46273e-07
4.5388e-07
4.07694e-07
1.19683e-05
-5.4042e-07
2.36494e-07
1.2671e-05
-3.68699e-07
1.16055e-07
1.13603e-05
-2.18888e-07
2.06004e-08
8.82575e-06
-1.04842e-08
-1.91677e-08
6.71529e-06
1.58651e-07
-4.56015e-08
5.42654e-06
-7.25964e-08
2.80211e-07
4.44212e-06
-6.08328e-07
5.2392e-08
3.53141e-07
1.19442e-05
-5.8758e-07
3.83822e-08
1.2277e-05
-4.46377e-07
-3.63854e-08
1.11296e-05
-2.82217e-07
-1.05569e-07
8.72989e-06
-5.62919e-08
-4.03201e-08
6.74141e-06
1.24859e-07
-1.7995e-08
5.46843e-06
-2.63109e-08
2.54998e-07
4.49202e-06
-3.7629e-07
2.44078e-07
-8.93109e-08
1.06684e-05
-4.95882e-07
-1.51288e-07
1.08808e-05
-4.59644e-07
-2.00791e-07
9.84119e-06
-2.85637e-07
-1.50638e-07
7.95127e-06
-6.73019e-08
-3.70858e-08
6.42154e-06
1.06918e-07
1.70913e-08
5.31129e-06
2.31473e-07
2.50898e-08
4.40262e-06
1.13094e-07
-2.03769e-08
1.68377e-06
-3.2887e-09
1.17574e-07
-2.05784e-08
1.69154e-06
-3.00127e-09
1.14462e-07
-2.11783e-08
1.61801e-06
-2.70187e-09
1.03948e-07
-2.22291e-08
1.4835e-06
-2.36516e-09
8.65887e-08
-2.38041e-08
1.30295e-06
-1.99004e-09
6.30401e-08
-2.58089e-08
1.08245e-06
-1.53192e-09
3.37819e-08
-2.80611e-08
8.06787e-07
-6.86217e-10
-2.96456e-08
3.7549e-07
1.10719e-09
1.33917e-07
-3.88673e-08
2.39228e-06
1.35131e-07
-4.04165e-08
2.28419e-06
1.29149e-07
-4.3503e-08
2.10329e-06
1.16099e-07
-4.72188e-08
1.8682e-06
9.62289e-08
-5.14466e-08
1.59359e-06
6.98953e-08
-5.58629e-08
1.28485e-06
3.73563e-08
-5.9937e-08
9.22616e-07
-6.15678e-08
3.85004e-07
1.58711e-07
-5.00942e-08
2.9889e-06
1.57812e-07
-5.49138e-08
2.80702e-06
1.49074e-07
-6.13354e-08
2.55437e-06
1.32796e-07
-6.84543e-08
2.25211e-06
1.09212e-07
-7.57968e-08
1.91536e-06
7.87559e-08
-8.28391e-08
1.54889e-06
4.18086e-08
-8.8846e-08
1.12975e-06
-9.08824e-08
5.18012e-07
1.80988e-07
-5.47855e-08
3.36205e-06
1.78442e-07
-6.35061e-08
3.16644e-06
1.67477e-07
-7.32351e-08
2.89997e-06
1.48386e-07
-8.34546e-08
2.58456e-06
1.21478e-07
-9.35148e-08
2.23548e-06
8.72651e-08
-1.028e-07
1.85702e-06
4.62653e-08
-1.10448e-07
1.42392e-06
-1.12838e-07
7.84231e-07
1.93276e-07
-5.8052e-08
3.4163e-06
1.90749e-07
-6.84569e-08
3.27874e-06
1.78975e-07
-7.98904e-08
3.06725e-06
1.58364e-07
-9.17694e-08
2.80278e-06
1.29435e-07
-1.03246e-07
2.50012e-06
9.27582e-08
-1.13705e-07
2.16314e-06
4.90202e-08
-1.22288e-07
1.76594e-06
-1.25216e-07
1.15244e-06
1.94892e-07
-6.25858e-08
3.11381e-06
1.92948e-07
-7.20843e-08
3.10048e-06
1.81614e-07
-8.31529e-08
3.00729e-06
1.61035e-07
-9.46157e-08
2.85269e-06
1.31696e-07
-1.05651e-07
2.65093e-06
9.44315e-08
-1.15956e-07
2.40587e-06
5.005e-08
-1.24568e-07
2.09268e-06
-1.27625e-07
1.55968e-06
1.87133e-07
2.48267e-06
-7.00042e-08
1.87216e-07
2.64167e-06
-7.73925e-08
1.77233e-07
2.70718e-06
-8.50576e-08
1.57368e-07
2.70127e-06
-9.33599e-08
1.28184e-07
2.63851e-06
-1.0167e-07
9.05541e-08
2.52192e-06
-1.09653e-07
4.68083e-08
2.32792e-06
-1.1838e-07
1.91574e-06
-1.23499e-07
1.29259e-07
-2.46636e-08
1.70044e-06
-2.65021e-09
1.3097e-07
-2.30832e-08
1.71452e-06
-1.78876e-09
1.25013e-07
-2.33143e-08
1.64789e-06
-1.03365e-09
1.12172e-07
-2.42342e-08
1.52048e-06
-3.17262e-10
9.33399e-08
-2.58157e-08
1.34686e-06
4.19761e-10
6.92825e-08
-2.7797e-08
1.13282e-06
1.25315e-09
3.96149e-08
-2.98637e-08
8.63641e-07
2.53163e-09
-3.08859e-08
4.41229e-07
4.7086e-09
1.55276e-07
-4.78997e-08
2.41015e-06
1.52253e-07
-4.59406e-08
2.30955e-06
1.426e-07
-4.7618e-08
2.13671e-06
1.26509e-07
-5.03361e-08
1.90996e-06
1.04356e-07
-5.37965e-08
1.64345e-06
7.66507e-08
-5.74797e-08
1.34217e-06
4.29703e-08
-6.0682e-08
9.87149e-07
-6.10278e-08
4.58261e-07
1.86443e-07
-6.43603e-08
3.0056e-06
1.79561e-07
-6.43827e-08
2.832e-06
1.65878e-07
-6.79148e-08
2.58812e-06
1.45537e-07
-7.29396e-08
2.29489e-06
1.18807e-07
-7.86702e-08
1.9669e-06
8.62283e-08
-8.43442e-08
1.60844e-06
4.76537e-08
-8.90345e-08
1.19682e-06
-8.95566e-08
5.94346e-07
2.14911e-07
-7.33037e-08
3.37617e-06
2.04316e-07
-7.64746e-08
3.18895e-06
1.87051e-07
-8.18305e-08
2.93116e-06
1.62913e-07
-8.88751e-08
2.62463e-06
1.32172e-07
-9.65475e-08
2.2842e-06
9.52683e-08
-1.03956e-07
1.91369e-06
5.22583e-08
-1.10002e-07
1.48801e-06
-1.10921e-07
8.57789e-07
2.32583e-07
-7.80531e-08
3.42782e-06
2.19784e-07
-8.3046e-08
3.29793e-06
2.00324e-07
-8.92195e-08
3.09417e-06
1.73838e-07
-9.72709e-08
2.83761e-06
1.40502e-07
-1.05867e-07
2.54274e-06
1.00636e-07
-1.14084e-07
2.21305e-06
5.45106e-08
-1.20799e-07
1.82277e-06
-1.22046e-07
1.21805e-06
2.36458e-07
-8.13208e-08
3.12348e-06
2.22976e-07
-8.53412e-08
3.1164e-06
2.02923e-07
-9.11978e-08
3.02943e-06
1.75988e-07
-9.8815e-08
2.88125e-06
1.42001e-07
-1.06977e-07
2.68593e-06
1.01416e-07
-1.15017e-07
2.4471e-06
5.4534e-08
-1.2162e-07
2.14015e-06
-1.22827e-07
1.61518e-06
2.26079e-07
2.49113e-06
-8.80679e-08
2.16285e-07
2.65473e-06
-8.84689e-08
1.97991e-07
2.72493e-06
-9.07245e-08
1.71883e-07
2.72389e-06
-9.52261e-08
1.38139e-07
2.66604e-06
-1.00723e-07
9.72917e-08
2.55439e-06
-1.06715e-07
5.11421e-08
2.36595e-06
-1.135e-07
1.96087e-06
-1.1689e-07
1.18262e-07
-2.59888e-08
1.71644e-06
-1.4519e-09
1.20865e-07
-2.50974e-08
1.73772e-06
-8.18322e-10
1.15243e-07
-2.58839e-08
1.6794e-06
-4.23507e-10
1.01623e-07
-2.7331e-08
1.56103e-06
-3.89715e-11
8.06763e-08
-2.93291e-08
1.39647e-06
3.71405e-10
5.36762e-08
-3.17474e-08
1.1906e-06
8.81749e-10
2.44762e-08
-3.45106e-08
9.2585e-07
1.58975e-09
-3.67998e-08
5.00086e-07
2.64608e-09
1.37793e-07
-4.99901e-08
2.42581e-06
1.3839e-07
-4.97522e-08
2.33319e-06
1.31318e-07
-5.23706e-08
2.16983e-06
1.16205e-07
-5.59562e-08
1.95342e-06
9.32979e-08
-6.01915e-08
1.69716e-06
6.37048e-08
-6.4768e-08
1.40493e-06
3.09757e-08
-6.94024e-08
1.05497e-06
-7.2605e-08
5.25238e-07
1.62496e-07
-6.7509e-08
3.01925e-06
1.60267e-07
-6.90994e-08
2.85348e-06
1.50408e-07
-7.36938e-08
2.61929e-06
1.32266e-07
-7.96021e-08
2.33677e-06
1.05862e-07
-8.61204e-08
2.0194e-06
7.21488e-08
-9.2689e-08
1.67025e-06
3.45135e-08
-9.87769e-08
1.26388e-06
-1.02204e-07
6.58401e-07
1.84856e-07
-7.65591e-08
3.387e-06
1.79041e-07
-8.08061e-08
3.20665e-06
1.66057e-07
-8.70253e-08
2.95769e-06
1.44798e-07
-9.47492e-08
2.66115e-06
1.15214e-07
-1.02982e-07
2.33077e-06
7.79775e-08
-1.10942e-07
1.96914e-06
3.60832e-08
-1.17742e-07
1.54865e-06
-1.20218e-07
9.11567e-07
1.97292e-07
-7.9703e-08
3.4359e-06
1.88596e-07
-8.55901e-08
3.31145e-06
1.73353e-07
-9.22718e-08
3.11488e-06
1.50135e-07
-1.00667e-07
2.86669e-06
1.18715e-07
-1.09463e-07
2.58041e-06
7.97117e-08
-1.17738e-07
2.25848e-06
3.58751e-08
-1.24413e-07
1.87296e-06
-1.2571e-07
1.25947e-06
1.97492e-07
-7.9255e-08
3.12946e-06
1.86574e-07
-8.43023e-08
3.12634e-06
1.6984e-07
-9.06101e-08
3.0446e-06
1.46139e-07
-9.84741e-08
2.90275e-06
1.14876e-07
-1.06634e-07
2.71412e-06
7.68594e-08
-1.14405e-07
2.48145e-06
3.45263e-08
-1.20444e-07
2.17844e-06
-1.20932e-07
1.64517e-06
1.86876e-07
2.49581e-06
-8.0547e-08
1.77009e-07
2.66217e-06
-8.16451e-08
1.60106e-07
2.73583e-06
-8.48003e-08
1.36332e-07
2.73912e-06
-9.00454e-08
1.05628e-07
2.68594e-06
-9.59715e-08
6.8967e-08
2.57877e-06
-1.02094e-07
3.00248e-08
2.39328e-06
-1.08531e-07
1.98143e-06
-1.11835e-07
8.34257e-08
-2.44357e-08
1.72055e-06
3.93064e-09
9.22998e-08
-2.54765e-08
1.74977e-06
4.67092e-09
9.19518e-08
-2.69954e-08
1.70126e-06
5.39049e-09
8.26779e-08
-2.88631e-08
1.59259e-06
6.45763e-09
6.58121e-08
-3.08108e-08
1.43612e-06
8.01073e-09
4.33193e-08
-3.27658e-08
1.23579e-06
1.02177e-08
1.47527e-08
-3.45803e-08
9.75936e-07
1.33449e-08
-3.49965e-08
5.30611e-07
1.95318e-08
9.35494e-08
-4.44879e-08
2.42643e-06
1.05138e-07
-4.8421e-08
2.34456e-06
1.06053e-07
-5.22087e-08
2.19413e-06
9.58891e-08
-5.603e-08
1.99084e-06
7.56985e-08
-5.94963e-08
1.74623e-06
4.76021e-08
-6.23286e-08
1.46284e-06
1.21238e-08
-6.38358e-08
1.11996e-06
-6.0524e-08
5.62999e-07
1.0472e-07
-5.93885e-08
3.01384e-06
1.17161e-07
-6.65485e-08
2.85932e-06
1.18919e-07
-7.36393e-08
2.6391e-06
1.09002e-07
-8.03373e-08
2.37121e-06
8.80572e-08
-8.62397e-08
2.06732e-06
5.80492e-08
-9.09501e-08
1.72898e-06
1.9649e-08
-9.34771e-08
1.33188e-06
-8.86406e-08
7.05965e-07
1.12775e-07
-6.59163e-08
3.37508e-06
1.24877e-07
-7.60947e-08
3.20437e-06
1.27119e-07
-8.61791e-08
2.96811e-06
1.18336e-07
-9.56193e-08
2.68527e-06
9.90068e-08
-1.03964e-07
2.36779e-06
7.08178e-08
-1.1077e-07
2.01689e-06
3.35381e-08
-1.14985e-07
1.60707e-06
-1.11147e-07
9.67288e-07
1.11996e-07
-6.55259e-08
3.419e-06
1.23331e-07
-7.72018e-08
3.30132e-06
1.2609e-07
-8.85441e-08
3.11454e-06
1.19052e-07
-9.92537e-08
2.87726e-06
1.02625e-07
-1.0886e-07
2.60142e-06
7.83722e-08
-1.16908e-07
2.28844e-06
4.51283e-08
-1.22474e-07
1.91336e-06
-1.20899e-07
1.31447e-06
1.03643e-07
-5.95778e-08
3.11034e-06
1.12857e-07
-7.08149e-08
3.11082e-06
1.15205e-07
-8.17302e-08
3.03534e-06
1.09664e-07
-9.19576e-08
2.90083e-06
9.6538e-08
-1.01234e-07
2.71936e-06
7.71682e-08
-1.0924e-07
2.49304e-06
4.96512e-08
-1.15122e-07
2.19873e-06
-1.15388e-07
1.68945e-06
9.28445e-08
2.47781e-06
-5.0467e-08
9.83428e-08
2.64468e-06
-5.88328e-08
9.85672e-08
2.72112e-06
-6.75022e-08
9.30609e-08
2.72829e-06
-7.59382e-08
8.17472e-08
2.67919e-06
-8.33622e-08
6.62645e-08
2.57579e-06
-9.06453e-08
4.48474e-08
2.39677e-06
-9.68846e-08
2.00988e-06
-9.93426e-08
2.14575e-07
-3.72197e-08
1.70741e-06
-5.79072e-09
2.64413e-07
-4.14104e-08
1.74775e-06
-6.57473e-09
3.01962e-07
-4.38089e-08
1.71485e-06
-7.27631e-09
3.21142e-07
-4.58182e-08
1.62704e-06
-7.67191e-09
3.17257e-07
-4.7777e-08
1.49589e-06
-7.94865e-09
2.88039e-07
-5.02397e-08
1.32378e-06
-8.37392e-09
2.25561e-07
-5.35717e-08
1.10165e-06
-9.52288e-09
-5.61021e-08
8.2444e-07
-1.21462e-08
2.09633e-07
-6.89723e-08
2.39249e-06
2.691e-07
-7.99508e-08
2.32372e-06
3.15671e-07
-8.72379e-08
2.19116e-06
3.43689e-07
-9.37561e-08
2.01094e-06
3.4846e-07
-1.00147e-07
1.79396e-06
3.26734e-07
-1.07306e-07
1.54168e-06
2.65244e-07
-1.16116e-07
1.24403e-06
-1.25014e-07
8.97065e-07
2.00027e-07
-8.63626e-08
2.96012e-06
2.63313e-07
-1.02497e-07
2.8186e-06
3.1385e-07
-1.1516e-07
2.61645e-06
3.45911e-07
-1.26223e-07
2.37162e-06
3.54486e-07
-1.36553e-07
2.09519e-06
3.35772e-07
-1.47189e-07
1.78754e-06
2.75703e-07
-1.59348e-07
1.43519e-06
-1.72521e-07
1.0291e-06
1.83959e-07
-8.9622e-08
3.30751e-06
2.45827e-07
-1.08113e-07
3.14809e-06
2.94696e-07
-1.24392e-07
2.92829e-06
3.25287e-07
-1.38384e-07
2.66676e-06
3.32578e-07
-1.50901e-07
2.37474e-06
3.13042e-07
-1.62917e-07
2.05202e-06
2.55836e-07
-1.7566e-07
1.6805e-06
-1.89355e-07
1.23996e-06
1.60025e-07
-8.38589e-08
3.34684e-06
2.16913e-07
-1.01199e-07
3.23754e-06
2.60498e-07
-1.17848e-07
3.06425e-06
2.86098e-07
-1.31953e-07
2.84523e-06
2.89129e-07
-1.44331e-07
2.59177e-06
2.66728e-07
-1.55782e-07
2.30371e-06
2.13448e-07
-1.67348e-07
1.9583e-06
-1.79092e-07
1.51768e-06
1.34743e-07
-7.28319e-08
3.04459e-06
1.8223e-07
-8.81194e-08
3.05002e-06
2.17465e-07
-1.02406e-07
2.9845e-06
2.35551e-07
-1.14176e-07
2.86483e-06
2.32555e-07
-1.24357e-07
2.70237e-06
2.06552e-07
-1.33678e-07
2.4971e-06
1.58317e-07
-1.42973e-07
2.22273e-06
-1.51707e-07
1.82019e-06
1.16075e-07
2.42804e-06
-5.80335e-08
1.48534e-07
2.59586e-06
-7.19988e-08
1.72673e-07
2.67829e-06
-8.37379e-08
1.82826e-07
2.69663e-06
-9.2867e-08
1.74186e-07
2.66324e-06
-9.98909e-08
1.45887e-07
2.57768e-06
-1.07249e-07
1.03058e-07
2.4114e-06
-1.14838e-07
2.08227e-06
-1.21242e-07
4.59172e-07
-5.29583e-08
-1.26393e-08
1.65059e-06
5.75414e-07
-5.49622e-08
-1.07536e-08
1.69682e-06
6.72465e-07
-5.57787e-08
-7.71592e-09
1.68134e-06
7.36917e-07
-5.63465e-08
-3.15399e-09
1.62223e-06
7.49586e-07
-5.64949e-08
3.05508e-09
1.53671e-06
6.76481e-07
-5.64605e-08
1.20671e-08
1.44116e-06
4.59023e-07
-5.56603e-08
2.47269e-08
1.34978e-06
-5.17285e-08
4.44491e-08
1.29032e-06
4.73693e-07
-1.07832e-07
2.31234e-06
6.02214e-07
-1.13352e-07
2.2535e-06
7.11489e-07
-1.15169e-07
2.14133e-06
7.86775e-07
-1.14899e-07
1.99417e-06
8.05746e-07
-1.12424e-07
1.83075e-06
7.29799e-07
-1.07541e-07
1.6684e-06
4.96353e-07
-9.87348e-08
1.52023e-06
-7.81902e-08
1.41973e-06
4.63308e-07
-1.40777e-07
2.8566e-06
5.94135e-07
-1.51086e-07
2.72526e-06
7.08176e-07
-1.56116e-07
2.54312e-06
7.90191e-07
-1.56965e-07
2.33145e-06
8.16554e-07
-1.53618e-07
2.10985e-06
7.46014e-07
-1.45458e-07
1.89589e-06
5.10253e-07
-1.30059e-07
1.70231e-06
-9.67458e-08
1.558e-06
4.38075e-07
-1.50169e-07
3.18647e-06
5.62227e-07
-1.62408e-07
3.03499e-06
6.71311e-07
-1.69233e-07
2.83213e-06
7.5156e-07
-1.70097e-07
2.59965e-06
7.81005e-07
-1.6517e-07
2.35689e-06
7.19664e-07
-1.53772e-07
2.12187e-06
4.94944e-07
-1.33253e-07
1.90872e-06
-9.37779e-08
1.7321e-06
3.98629e-07
-1.41227e-07
3.21937e-06
5.10405e-07
-1.50385e-07
3.11385e-06
6.08078e-07
-1.552e-07
2.95248e-06
6.80978e-07
-1.53425e-07
2.75589e-06
7.11233e-07
-1.45924e-07
2.54262e-06
6.62974e-07
-1.32598e-07
2.33119e-06
4.59873e-07
-1.11611e-07
2.13997e-06
-7.5352e-08
1.95885e-06
3.55201e-07
-1.21303e-07
2.92445e-06
4.51263e-07
-1.25083e-07
2.92853e-06
5.352e-07
-1.2421e-07
2.86964e-06
5.98058e-07
-1.17155e-07
2.76575e-06
6.26017e-07
-1.05417e-07
2.63406e-06
5.89501e-07
-8.95763e-08
2.49074e-06
4.16695e-07
-6.89979e-08
2.35279e-06
-3.97613e-08
2.201e-06
3.05377e-07
-9.47585e-08
2.32765e-06
3.83235e-07
-9.43263e-08
2.48717e-06
4.5601e-07
-8.89619e-08
2.57054e-06
5.1545e-07
-7.82267e-08
2.59825e-06
5.48765e-07
-6.25566e-08
2.58694e-06
5.30206e-07
-4.34588e-08
2.54985e-06
3.90565e-07
-1.91548e-08
2.50078e-06
1.50608e-08
2.41845e-06
2.69721e-07
-1.24092e-08
6.06404e-06
-1.25003e-08
3.00589e-07
-4.94727e-08
6.40709e-06
2.84165e-08
3.1325e-07
-4.44209e-08
6.74326e-06
3.54443e-08
2.92524e-07
-3.08144e-08
7.01152e-06
3.86625e-08
2.44855e-07
-2.59498e-08
7.20332e-06
4.1907e-08
1.77583e-07
-3.2209e-08
7.31037e-06
4.8329e-08
9.47703e-08
-4.34106e-08
7.27135e-06
5.63821e-08
-5.92512e-08
6.76148e-06
6.53308e-08
4.61688e-07
-1.09617e-07
8.75069e-06
4.37377e-07
-6.46613e-08
8.63325e-06
4.39697e-07
-3.32074e-08
8.51844e-06
4.15985e-07
-6.94116e-09
8.56353e-06
3.5956e-07
7.71934e-09
8.58193e-06
2.70813e-07
8.70021e-09
8.54561e-06
1.51397e-07
4.61242e-09
8.37486e-06
-2.6796e-09
7.69275e-06
4.33616e-07
-1.74379e-07
1.02383e-05
4.00304e-07
-8.75411e-08
9.83329e-06
4.18529e-07
-2.16238e-08
9.42383e-06
4.13202e-07
1.59263e-08
9.30725e-06
3.71314e-07
3.92273e-08
9.20511e-06
2.87454e-07
5.28704e-08
9.06915e-06
1.6316e-07
6.28395e-08
8.80947e-06
7.1334e-08
8.01841e-06
4.3624e-07
-9.17158e-08
9.74311e-06
4.03855e-07
-2.82684e-08
9.34556e-06
4.09066e-07
2.18729e-08
9.07389e-06
3.9596e-07
5.33707e-08
8.98405e-06
3.51275e-07
7.72355e-08
8.88046e-06
2.70501e-07
9.78556e-08
8.73392e-06
1.53095e-07
1.18863e-07
8.46298e-06
1.40424e-07
7.67213e-06
2.60647e-07
-1.05969e-08
7.63336e-06
2.71559e-07
2.38207e-08
7.68131e-06
2.81389e-07
5.30069e-08
7.75692e-06
2.71776e-07
7.65576e-08
7.78648e-06
2.38261e-07
9.7892e-08
7.76086e-06
1.80735e-07
1.18954e-07
7.67064e-06
1.01219e-07
1.4062e-07
7.45303e-06
1.60593e-07
6.76223e-06
1.62381e-07
3.72273e-08
5.50566e-06
1.68845e-07
5.22385e-08
5.82285e-06
1.69681e-07
6.80861e-08
6.03964e-06
1.59168e-07
8.45719e-08
6.16755e-06
1.35704e-07
1.01587e-07
6.22179e-06
1.00322e-07
1.18984e-07
6.20186e-06
5.49621e-08
1.36268e-07
6.06114e-06
1.5e-07
5.52797e-06
1.01697e-07
3.68287e-06
4.22114e-08
1.07484e-07
4.05327e-06
5.44761e-08
1.06798e-07
4.3223e-06
6.67246e-08
9.91415e-08
4.50409e-06
7.9931e-08
8.44824e-08
4.61203e-06
9.37434e-08
6.33761e-08
4.64682e-06
1.07817e-07
3.59706e-08
4.57326e-06
1.21816e-07
4.18196e-06
1.33616e-07
4.02294e-07
-6.44143e-08
5.99552e-06
6.16786e-08
4.2183e-07
-5.4509e-08
6.38126e-06
6.14257e-08
3.99098e-07
-3.49205e-08
6.75175e-06
4.88617e-08
3.49542e-07
-2.72063e-08
7.0463e-06
4.20179e-08
2.82894e-07
-3.30203e-08
7.26098e-06
4.22463e-08
2.01637e-07
-4.31064e-08
7.388e-06
4.678e-08
1.06329e-07
-5.44642e-08
7.36737e-06
5.36324e-08
-6.85671e-08
6.87458e-06
6.14633e-08
6.39775e-07
-9.89105e-08
8.7047e-06
6.9604e-07
-9.51444e-09
8.53223e-06
6.60447e-07
1.617e-08
8.50248e-06
5.86311e-07
1.91892e-08
8.59095e-06
4.80935e-07
1.06612e-08
8.64338e-06
3.48402e-07
6.47714e-10
8.63409e-06
1.88623e-07
-6.54278e-09
8.48639e-06
-1.20525e-08
7.82484e-06
6.83494e-07
-2.64387e-08
1.01332e-05
7.68249e-07
4.56323e-08
9.69331e-06
7.47755e-07
7.09587e-08
9.38921e-06
6.7463e-07
7.15386e-08
9.32818e-06
5.58446e-07
6.5808e-08
9.26618e-06
4.05439e-07
6.2782e-08
9.15985e-06
2.18746e-07
6.50561e-08
8.92432e-06
7.02742e-08
8.1548e-06
6.49909e-07
1.24546e-07
9.49971e-06
6.99412e-07
1.18025e-07
9.2238e-06
6.76607e-07
1.16937e-07
9.05062e-06
6.10778e-07
1.12552e-07
9.00906e-06
5.05489e-07
1.10949e-07
8.94039e-06
3.66703e-07
1.15229e-07
8.81983e-06
1.98053e-07
1.26394e-07
8.57001e-06
1.4147e-07
7.79887e-06
4.17045e-07
1.60286e-07
7.51155e-06
4.46023e-07
1.30698e-07
7.63974e-06
4.39562e-07
1.20895e-07
7.75954e-06
4.00236e-07
1.19004e-07
7.81926e-06
3.32547e-07
1.22465e-07
7.81665e-06
2.41768e-07
1.31033e-07
7.74528e-06
1.31794e-07
1.44024e-07
7.54531e-06
1.58547e-07
6.87702e-06
2.18409e-07
1.28624e-07
5.48257e-06
2.39371e-07
1.08174e-07
5.8242e-06
2.38845e-07
1.02552e-07
6.05863e-06
2.18803e-07
1.05051e-07
6.2013e-06
1.82098e-07
1.12047e-07
6.26862e-06
1.31848e-07
1.22231e-07
6.26088e-06
7.04228e-08
1.3432e-07
6.13241e-06
1.44326e-07
5.61279e-06
1.26149e-07
3.68705e-06
8.38849e-08
1.41855e-07
4.06656e-06
7.89422e-08
1.42576e-07
4.34359e-06
8.04868e-08
1.31327e-07
4.5332e-06
8.69636e-08
1.10426e-07
4.649e-06
9.59194e-08
8.15328e-08
4.69178e-06
1.06345e-07
4.51825e-08
4.62675e-06
1.17445e-07
4.24469e-06
1.26863e-07
3.35413e-07
-2.99313e-08
5.88014e-06
6.26987e-08
3.18662e-07
4.39832e-09
6.35577e-06
3.84163e-08
2.80846e-07
-1.83237e-09
6.76638e-06
2.46679e-08
2.41175e-07
-2.12033e-08
7.0848e-06
2.20665e-08
1.97129e-07
-3.94627e-08
7.3178e-06
2.6445e-08
1.41849e-07
-4.99373e-08
7.4596e-06
3.34297e-08
7.41615e-08
-5.79317e-08
7.45158e-06
4.13902e-08
-6.7872e-08
6.9668e-06
4.99135e-08
6.19553e-07
7.86053e-08
8.27616e-06
6.81321e-07
9.57533e-08
8.38006e-06
6.26376e-07
6.22568e-08
8.49299e-06
5.39028e-07
2.54564e-08
8.63149e-06
4.31907e-07
-2.65069e-09
8.71355e-06
3.07353e-07
-1.56342e-08
8.72419e-06
1.62974e-07
-1.92559e-08
8.5919e-06
-1.96399e-08
7.93973e-06
6.49868e-07
2.05502e-07
9.60552e-06
8.09723e-07
1.67134e-07
9.46243e-06
7.76133e-07
1.21936e-07
9.36273e-06
6.76768e-07
8.23378e-08
9.37081e-06
5.40168e-07
5.64578e-08
9.34363e-06
3.80211e-07
4.72247e-08
9.25867e-06
1.98207e-07
4.91291e-08