/*--------------------------------*- C++ -*----------------------------------*\
| =========                 |                                                 |
| \\      /  F ield         | OpenFOAM: The Open Source CFD Toolbox           |
|  \\    /   O peration     | Version:  plus.master.MPPICInterFoam            |
|   \\  /    A nd           | Web:      www.OpenFOAM.com                      |
|    \\/     M anipulation  |                                                 |
\*---------------------------------------------------------------------------*/
FoamFile
{
    version     2.0;
    format      ascii;
    class       vectorField;
    location    "5.2/lagrangian/kinematicCloud";
    object      UCorrect;
}
// * * * * * * * * * * * * * * * * * * * * * * * * * * * * * * * * * * * * * //


14
(
(-3.95002e-19 -9.71793e-19 -2.19144e-19)
(5.00774e-19 3.23906e-21 2.07035e-21)
(-1.59045e-18 -4.02338e-21 9.61155e-35)
(-7.38489e-19 -1.45229e-18 -1.94351e-19)
(-5.92257e-19 -4.22896e-19 3.92089e-19)
(-4.43229e-19 -5.31985e-19 -4.15464e-19)
(-8.68545e-19 1.36041e-20 5.24038e-35)
(-6.22917e-19 -2.07135e-18 2.12821e-19)
(6.05529e-20 -8.06592e-19 9.66854e-35)
(5.03958e-21 1.02444e-18 -2.11783e-19)
(6.28282e-19 1.41423e-18 -2.11783e-19)
(-5.03958e-21 -2.32042e-18 -2.12613e-19)
(1.19165e-19 -9.40093e-19 -2.19144e-19)
(-9.28854e-14 7.80068e-10 3.1013e-08)
)


// ************************************************************************* //
