/*--------------------------------*- C++ -*----------------------------------*\
| =========                 |                                                 |
| \\      /  F ield         | OpenFOAM: The Open Source CFD Toolbox           |
|  \\    /   O peration     | Version:  plus.master.MPPICInterFoam            |
|   \\  /    A nd           | Web:      www.OpenFOAM.com                      |
|    \\/     M anipulation  |                                                 |
\*---------------------------------------------------------------------------*/
FoamFile
{
    version     2.0;
    format      ascii;
    class       surfaceScalarField;
    location    "6.6";
    object      alphaPhi;
}
// * * * * * * * * * * * * * * * * * * * * * * * * * * * * * * * * * * * * * //

dimensions      [0 3 -1 0 0 0 0];

internalField   nonuniform List<scalar> 
34018
(
-2.61089e-07
7.62846e-06
-1.4728e-07
-1.93326e-07
-3.53388e-07
7.86537e-06
-2.77115e-07
6.78944e-06
-7.92129e-08
-8.31193e-08
7.61814e-06
-3.03405e-07
-4.13115e-08
6.84597e-06
-2.84615e-07
5.75698e-06
2.11224e-08
-2.44864e-07
1.61682e-07
-1.6436e-08
7.34032e-06
-8.57748e-08
5.25721e-08
6.93365e-08
1.15856e-07
7.00742e-06
-8.70478e-08
-6.29742e-08
9.78237e-08
6.43547e-06
-1.79185e-07
-1.26064e-07
6.60791e-08
5.69403e-06
-1.72778e-07
-1.94335e-07
6.99092e-08
6.60008e-06
-1.17246e-07
-1.43569e-07
6.45228e-08
7.43343e-06
-3.62592e-08
-5.02883e-08
6.51504e-06
2.6527e-09
2.94855e-08
1.62911e-07
-8.93343e-08
7.09924e-06
-1.34333e-07
1.09246e-08
-3.68531e-08
5.49459e-06
-7.26063e-08
-1.67919e-07
4.63524e-06
-1.60813e-07
-2.84487e-07
6.22262e-06
-2.64904e-07
-1.82194e-07
5.76574e-06
-2.92564e-07
-4.55167e-08
6.48539e-06
-1.26193e-07
7.31856e-06
-9.75124e-08
9.52856e-08
-1.62186e-07
6.28561e-06
-1.30995e-07
-2.70662e-07
-1.86723e-07
5.19812e-06
-1.51716e-07
-2.1362e-07
7.89854e-06
-9.98538e-08
-1.47041e-07
7.27125e-06
-1.8854e-07
-1.77907e-07
6.31911e-06
-2.99878e-07
-1.97093e-07
6.67636e-06
-2.01792e-07
7.60705e-06
-1.30875e-07
2.57437e-08
-1.32118e-07
5.90684e-06
-9.15119e-08
-4.82855e-07
-2.04246e-07
7.54594e-06
-1.03288e-07
-1.89293e-08
8.0071e-06
-3.9381e-08
-4.19625e-08
5.69163e-06
-1.03016e-07
-8.35797e-08
5.38149e-06
-2.34501e-07
-2.31678e-07
6.9443e-06
-2.30146e-07
7.61976e-06
-9.52347e-08
6.35517e-08
-2.06472e-07
6.69904e-06
-4.95269e-08
-1.16284e-07
-2.94578e-07
5.25928e-06
-9.95103e-08
-1.58271e-07
4.92323e-06
-1.347e-07
-1.4126e-07
6.9223e-06
-1.77106e-07
-1.91946e-07
6.05158e-06
-2.17063e-07
-3.08837e-07
6.32942e-06
-2.57574e-07
7.34044e-06
-4.85637e-08
1.12409e-07
-1.93137e-07
7.26409e-06
-1.76645e-08
3.45962e-08
-3.47282e-07
6.07685e-06
-8.29926e-08
-3.37471e-07
6.00816e-06
-1.30248e-07
-3.28244e-07
5.68443e-06
-1.61635e-07
-3.38691e-07
6.14143e-06
-1.09475e-07
-3.26993e-07
7.18439e-06
-2.23737e-07
6.61049e-06
3.56962e-08
2.55449e-08
6.37367e-06
1.98459e-08
-5.92042e-08
6.64075e-10
7.19398e-06
-1.75242e-07
-2.83475e-08
7.36041e-06
-2.42035e-07
-4.78977e-08
7.31371e-06
-2.64074e-07
-1.66121e-08
7.23565e-06
-2.35819e-07
4.46614e-08
6.63359e-06
-1.97959e-07
5.61778e-06
1.14522e-07
-1.54299e-07
-2.78841e-07
-4.1048e-07
7.17269e-06
3.76242e-07
4.88558e-07
-1.11835e-07
-2.94352e-07
6.72185e-06
5.83188e-07
-5.89864e-08
-1.40745e-07
5.97442e-06
5.02741e-07
6.13083e-08
-2.10524e-07
5.63274e-06
4.84081e-07
2.52793e-07
-2.56331e-07
6.29684e-06
5.68626e-07
4.1037e-07
-3.45635e-07
7.17847e-06
4.81565e-07
-3.53397e-07
6.45699e-06
4.54531e-07
3.67205e-07
-2.66141e-07
-2.23761e-07
6.81103e-06
5.23218e-07
-1.53115e-07
-1.59674e-07
4.70329e-06
-2.56333e-08
-8.93691e-08
4.9508e-06
2.86026e-08
-1.08494e-07
5.15172e-06
1.27853e-07
-1.64945e-07
4.74601e-06
4.36977e-07
-1.75843e-07
6.21631e-06
-2.69171e-07
7.16047e-06
5.22119e-07
-1.86766e-07
-1.27205e-07
6.09599e-06
5.19459e-07
-1.28868e-07
-9.32057e-08
5.35793e-06
-1.76174e-07
-1.33481e-07
7.66728e-06
-8.84264e-08
-1.48312e-07
5.63767e-06
3.08599e-08
-1.26358e-07
5.10065e-06
3.91158e-07
-1.38201e-07
5.90469e-06
-1.87951e-07
7.39807e-06
5.58176e-07
-2.13614e-07
-3.66875e-08
5.96771e-06
5.23451e-07
-1.88234e-07
-4.91505e-08
5.10467e-06
-2.14265e-07
-1.32644e-07
7.73857e-06
-6.51673e-08
-1.02789e-07
5.49659e-06
6.84565e-08
-5.18305e-08
5.17282e-06
4.39717e-07
-8.57243e-08
6.10812e-06
-7.95744e-08
7.41005e-06
5.84033e-07
-3.19997e-07
1.50518e-07
6.42618e-06
6.25234e-07
-1.6964e-07
4.79344e-08
4.60844e-06
-5.33063e-08
-5.50399e-08
5.03466e-06
-1.30653e-09
-1.80156e-08
5.32595e-06
1.58207e-07
2.43938e-09
4.77604e-06
4.90229e-07
4.0181e-08
6.02032e-06
5.30786e-08
7.14679e-06
5.77733e-07
-3.47348e-07
3.08195e-07
7.00063e-06
4.96833e-07
-1.42173e-07
3.2006e-07
5.87415e-06
-5.39266e-08
2.44688e-07
5.38061e-06
6.89981e-08
2.26988e-07
5.23152e-06
2.83753e-07
2.68081e-07
5.75309e-06
4.87452e-07
2.17172e-07
6.85668e-06
1.44769e-07
6.48985e-06
5.16402e-07
-2.94258e-07
6.25989e-06
3.48376e-07
3.67911e-07
-1.59067e-07
6.96819e-06
4.28133e-07
-1.59141e-08
7.09833e-06
4.44526e-07
1.49467e-07
7.04411e-06
4.35114e-07
3.31561e-07
6.9888e-06
3.84957e-07
4.21929e-07
6.4788e-06
2.78268e-07
5.56771e-06
4.35264e-07
1.81512e-07
-6.12799e-07
-7.0331e-07
7.15674e-06
6.75863e-07
7.71008e-07
-3.18922e-07
-6.81539e-07
7.12856e-06
1.04952e-06
-5.19517e-08
-4.79228e-07
6.75633e-06
1.144e-06
2.32643e-07
-4.53667e-07
6.76086e-06
1.1409e-06
6.10157e-07
-6.90381e-07
6.9879e-06
1.11365e-06
7.8268e-07
-7.17696e-07
7.23778e-06
8.2796e-07
-5.69185e-07
6.5014e-06
7.28914e-07
5.78388e-07
-6.76056e-07
-3.95962e-07
7.15425e-06
9.77283e-07
-2.32768e-07
-2.44628e-07
5.38567e-06
-7.78046e-08
-2.49161e-07
4.76462e-06
1.10418e-07
-2.46777e-07
4.70018e-06
5.69839e-07
-2.52088e-07
5.09614e-06
1.03061e-06
-3.80339e-07
6.96199e-06
-3.99885e-07
7.16947e-06
9.23112e-07
-4.31409e-07
-1.35291e-07
6.91398e-06
1.12227e-06
-2.61958e-07
-1.20087e-07
4.69133e-06
-1.69814e-07
-1.12681e-07
5.42071e-06
3.98166e-08
-1.22164e-07
5.3032e-06
3.9498e-07
-1.03978e-07
4.79e-06
1.09069e-06
-1.31151e-07
6.59221e-06
-1.67036e-07
7.48744e-06
1.04876e-06
-5.35804e-07
1.27688e-07
6.96383e-06
1.13946e-06
-2.61186e-07
5.65597e-08
4.96161e-06
-1.71583e-07
-3.55239e-08
5.65434e-06
2.52675e-08
-4.35084e-08
5.21992e-06
3.77124e-07
3.53213e-08
4.68159e-06
1.12517e-06
1.01897e-07
6.71934e-06
8.41698e-08
7.49642e-06
1.06686e-06
-7.26719e-07
4.54084e-07
6.99377e-06
1.08376e-06
-2.65064e-07
4.2197e-07
5.25285e-06
-8.3499e-08
2.9091e-07
4.81688e-06
1.43914e-07
2.77644e-07
4.77765e-06
6.00834e-07
4.11709e-07
5.01953e-06
1.08142e-06
4.08067e-07
6.8578e-06
3.02848e-07
7.15848e-06
9.75504e-07
-6.83223e-07
6.2982e-07
7.02552e-06
7.91363e-07
-3.42766e-07
8.40385e-07
6.69784e-06
-5.02233e-08
8.77486e-07
6.41341e-06
2.53707e-07
8.68806e-07
6.4813e-06
6.51115e-07
8.3093e-07
6.67586e-06
8.678e-07
6.0799e-07
7.04904e-06
3.90901e-07
6.48007e-06
7.89525e-07
-4.9134e-07
6.24378e-06
5.26964e-07
6.09016e-07
-2.88865e-07
6.94937e-06
7.88552e-07
-3.83968e-09
7.28843e-06
9.04277e-07
3.01584e-07
7.30659e-06
9.05631e-07
5.60201e-07
7.05391e-06
7.81012e-07
6.43069e-07
6.4502e-06
5.65562e-07
5.61101e-06
6.08087e-07
3.82437e-07
-5.05996e-07
-6.02604e-07
7.26572e-06
5.21023e-07
6.17243e-07
-3.21872e-07
-8.00894e-07
7.82614e-06
8.61131e-07
-9.35425e-09
-8.98264e-07
8.22019e-06
1.06791e-06
3.25529e-07
-8.95637e-07
8.32837e-06
1.0845e-06
5.70531e-07
-8.41601e-07
7.94771e-06
9.0155e-07
6.33344e-07
-6.33506e-07
7.47103e-06
6.38165e-07
-4.50651e-07
6.56656e-06
5.77364e-07
4.41618e-07
-7.5285e-07
-4.04591e-07
7.74723e-06
7.73706e-07
-3.87332e-07
-3.84916e-07
7.73624e-06
-3.94849e-08
-2.77559e-07
6.81861e-06
2.80027e-07
-2.56317e-07
6.85973e-06
7.5677e-07
-3.85254e-07
7.94887e-06
8.6912e-07
-4.23366e-07
7.87438e-06
-3.39966e-07
7.22945e-06
7.25565e-07
-8.86884e-07
-1.09424e-07
8.00405e-06
9.85227e-07
-3.11409e-07
-8.08488e-08
6.72281e-06
-5.78388e-08
-9.39295e-08
4.97499e-06
1.57021e-07
-7.02578e-08
4.90167e-06
8.07577e-07
-7.21378e-08
6.74576e-06
1.04408e-06
-1.25261e-07
8.20853e-06
-1.34595e-07
7.60109e-06
8.43206e-07
-9.35173e-07
1.77098e-07
7.90331e-06
9.93405e-07
-3.47813e-07
2.01918e-07
7.09015e-06
-3.73259e-08
1.4724e-07
5.1016e-06
1.48251e-07
1.02804e-07
4.90175e-06
8.3858e-07
1.92657e-07
7.02827e-06
1.04727e-06
1.62123e-07
8.13923e-06
8.31217e-08
7.58354e-06
8.511e-07
-8.0399e-07
3.93996e-07
7.62429e-06
8.26403e-07
-3.84431e-07
5.43629e-07
7.64533e-06
-3.0961e-08
6.22008e-07
6.29715e-06
2.94854e-07
6.26927e-07
6.74577e-06
7.51221e-07
5.37942e-07
7.60553e-06
8.97132e-07
3.71964e-07
7.74982e-06
2.31088e-07
7.20379e-06
7.49975e-07
-5.39999e-07
4.74179e-07
7.20162e-06
5.69881e-07
-3.46433e-07
6.73999e-07
7.56288e-06
-1.40719e-08
8.48352e-07
8.08611e-06
3.35907e-07
8.44174e-07
8.22994e-06
5.94785e-07
6.74794e-07
7.81162e-06
6.69844e-07
4.38276e-07
7.36119e-06
2.78055e-07
6.50339e-06
5.99463e-07
-3.50588e-07
6.24292e-06
3.73576e-07
4.52464e-07
-2.12362e-07
6.97152e-06
5.82238e-07
3.54502e-08
7.42335e-06
6.89218e-07
2.95355e-07
7.4769e-06
6.83746e-07
4.63997e-07
7.11924e-06
5.61098e-07
5.04691e-07
6.46525e-06
3.94816e-07
5.65109e-06
4.70705e-07
2.721e-07
-6.87923e-08
-1.98458e-07
7.2445e-06
1.03275e-07
2.0702e-07
-4.18259e-08
-2.38625e-07
7.78018e-06
2.41383e-07
6.14264e-08
-3.66629e-07
8.20954e-06
3.02419e-07
1.73581e-07
-3.89181e-07
8.28435e-06
2.96419e-07
1.82338e-07
-2.26286e-07
7.86059e-06
2.03135e-07
1.94879e-07
-1.54456e-07
7.47958e-06
1.547e-07
-1.44856e-07
6.55799e-06
2.17324e-07
1.31125e-07
-1.29326e-07
-1.75852e-07
7.69852e-06
1.42795e-07
-1.0812e-07
-1.75805e-07
7.83966e-06
1.99728e-08
-3.1473e-07
7.5434e-06
2.3329e-07
-3.12541e-07
7.9788e-06
2.36117e-07
-2.06609e-07
8.14131e-06
2.02591e-07
-1.67184e-07
7.73844e-06
-1.45637e-07
7.22034e-06
2.16422e-07
-2.58412e-07
-8.49513e-08
7.92686e-06
2.11863e-07
-2.82669e-07
-4.25815e-08
7.18813e-06
1.84102e-08
-2.6824e-08
7.42931e-06
2.92763e-07
-3.52798e-08
6.58532e-06
3.53076e-07
-5.93706e-08
7.92428e-06
2.58155e-07
-1.08415e-07
8.12042e-06
-1.08739e-07
7.58276e-06
2.39164e-07
-2.60257e-07
-7.75071e-09
7.74384e-06
2.13983e-07
-2.95074e-07
1.39498e-08
7.26748e-06
1.80484e-08
1.58592e-07
7.44697e-06
2.77817e-07
1.32344e-07
6.18172e-06
3.42347e-07
-7.74578e-09
7.62493e-06
2.59472e-07
-5.30692e-08
7.99349e-06
-6.08389e-08
7.55106e-06
2.41023e-07
-1.35851e-07
2.51809e-08
7.52253e-06
1.51883e-07
-9.78515e-08
2.44454e-08
7.59852e-06
2.72104e-08
1.35839e-07
6.82986e-06
1.85797e-07
1.40419e-07
7.37258e-06
2.13457e-07
-2.1657e-08
7.63086e-06
2.06126e-07
-6.06783e-08
7.58613e-06
-3.49034e-08
7.16848e-06
2.18074e-07
-6.7065e-08
6.87095e-08
7.15204e-06
1.034e-07
-5.00397e-08
5.78431e-08
7.41514e-06
5.66665e-08
1.05154e-07
8.00133e-06
1.78067e-07
8.89532e-08
8.12367e-06
1.77255e-07
-6.5567e-10
7.65926e-06
1.92048e-07
-3.06631e-08
7.31996e-06
-1.09926e-08
6.46369e-06
2.08036e-07
-5.13485e-08
6.16646e-06
7.68894e-08
1.19898e-07
-1.11096e-08
6.88467e-06
1.0865e-07
7.81714e-08
7.32558e-06
1.19213e-07
1.69298e-07
7.38296e-06
9.87068e-08
1.99353e-07
7.04518e-06
4.78547e-08
2.03688e-07
6.40962e-06
2.13911e-08
5.61347e-06
2.03628e-07
2.6833e-08
2.12197e-07
7.23264e-08
7.13537e-06
-1.44882e-07
-4.71498e-08
1.7085e-07
1.3052e-07
7.44311e-06
-1.3165e-07
9.91322e-08
1.29453e-07
7.69601e-06
-2.01397e-07
1.44863e-08
1.40633e-07
7.66934e-06
-2.26546e-07
-7.36201e-08
1.70329e-07
7.27129e-06
-2.03202e-07
-6.53214e-08
1.48186e-07
7.35863e-06
-1.25424e-07
3.69839e-08
6.47739e-06
2.34737e-08
-4.51121e-08
2.537e-07
1.19521e-08
7.36062e-06
-2.39687e-07
1.42694e-07
-9.70436e-10
6.83211e-06
1.12365e-07
-1.35293e-07
5.63341e-06
2.5121e-08
-1.52447e-07
6.60986e-06
-1.3191e-07
2.21426e-09
6.39479e-06
-1.89511e-07
4.15708e-08
6.91481e-06
-1.72312e-08
7.14707e-06
-6.1947e-08
2.16026e-07
-7.47955e-08
7.35442e-06
-3.02564e-07
4.53004e-08
-7.80098e-08
5.4154e-06
1.01582e-07
-1.17656e-07
7.67477e-06
1.67185e-07
-1.36352e-07
7.81412e-06
-9.53581e-08
-1.14496e-07
6.10252e-06
-2.28243e-07
-9.027e-08
7.03442e-06
-9.21943e-08
7.47747e-06
-1.12331e-07
2.0682e-07
-1.72478e-07
7.05058e-06
-3.05845e-07
2.48096e-08
-1.10707e-07
4.54127e-06
7.94184e-08
-3.82452e-08
7.74563e-06
2.13912e-07
-4.55165e-08
7.76416e-06
-8.99062e-08
-1.42995e-07
4.52277e-06
-2.20677e-07
-2.23834e-07
6.8654e-06
-1.60459e-07
7.42325e-06
-1.10834e-07
2.20569e-07
-2.06091e-07
7.13885e-06
-2.34584e-07
9.73461e-08
-2.43434e-07
6.30997e-06
8.39824e-08
-2.30796e-07
4.84413e-06
4.33426e-08
-2.38097e-07
5.3854e-06
-1.05723e-07
-2.81198e-07
6.06182e-06
-1.78753e-07
-3.11285e-07
6.7351e-06
-1.85093e-07
7.07708e-06
-6.26865e-08
2.13344e-07
-1.5349e-07
7.00879e-06
-1.51534e-07
1.76826e-07
-2.83872e-07
6.94616e-06
9.29142e-08
-3.68027e-07
7.2769e-06
1.11377e-08
-3.9129e-07
7.384e-06
-7.33694e-08
-3.66642e-07
6.93171e-06
-6.87377e-08
-2.79751e-07
7.14559e-06
-1.56338e-07
6.36e-06
6.20651e-09
1.17329e-07
6.0238e-06
-8.2875e-08
-4.51749e-08
1.18074e-07
6.73484e-06
-1.34814e-07
9.62832e-08
7.18286e-06
-2.03475e-07
6.71718e-08
7.24841e-06
-2.27662e-07
4.17612e-08
6.91343e-06
-2.09576e-07
4.01243e-08
6.28957e-06
-1.58059e-07
5.51896e-06
6.54078e-08
-8.71296e-08
1.45071e-07
2.77668e-08
6.9685e-06
-6.25257e-08
1.44695e-08
1.58045e-07
3.23805e-08
6.90007e-06
-2.51517e-08
6.93947e-08
8.82062e-08
6.33946e-06
-1.22935e-07
-2.43241e-08
9.35321e-08
6.29474e-06
-1.41659e-07
-7.54697e-09
2.27751e-08
6.50905e-06
-4.22903e-08
4.3366e-08
4.19622e-08
7.12686e-06
-8.25223e-09
-2.13263e-08
6.39094e-06
1.25792e-07
2.53528e-08
1.37052e-07
2.20134e-08
6.83761e-06
-1.22449e-07
4.60411e-08
-5.91517e-08
4.56336e-06
3.6405e-08
-7.97646e-09
4.67041e-06
5.25838e-08
-6.64578e-08
4.57027e-06
-1.5805e-08
-7.48181e-08
4.35933e-06
-1.58712e-08
2.3912e-08
6.10942e-06
-2.59923e-08
7.04484e-06
8.2776e-08
1.48104e-07
-6.20276e-08
6.07773e-06
-2.32436e-07
1.26029e-07
-8.65561e-08
4.53861e-06
4.85596e-08
-8.9048e-08
7.96245e-06
7.33091e-08
-6.22299e-08
7.87582e-06
-3.85768e-08
-7.06474e-08
4.74321e-06
-9.0125e-08
-6.59402e-08
5.26169e-06
-7.47004e-08
7.26306e-06
3.29367e-08
1.51148e-07
-1.49322e-07
5.88382e-06
-2.08138e-07
1.22836e-07
-3.30959e-08
4.55709e-06
7.6707e-08
-1.40781e-07
7.96349e-06
3.53499e-08
-1.14738e-07
7.98738e-06
-4.39347e-08
-4.32253e-08
4.66899e-06
-8.36258e-08
-1.46172e-07
5.04295e-06
-1.17249e-07
7.18336e-06
3.39996e-08
9.55589e-08
-1.11979e-07
6.7202e-06
-1.01456e-07
3.38983e-08
-1.03269e-07
4.20679e-06
3.47859e-08
-1.32897e-07
4.60803e-06
6.2791e-08
-1.43259e-07
4.64686e-06
-1.35193e-09
-9.75208e-08
4.38244e-06
-4.2529e-09
-1.68215e-07
5.94969e-06
-9.2907e-08
6.95444e-06
8.24242e-08
1.29589e-07
-3.34367e-08
6.8133e-06
-5.29033e-08
1.51727e-07
-1.21625e-07
6.5685e-06
7.83235e-08
-2.24139e-07
5.78446e-06
-1.64274e-08
-2.51418e-07
5.80432e-06
4.85639e-11
-1.74603e-07
6.17302e-06
4.6697e-08
-1.24315e-07
6.91278e-06
-4.9097e-08
6.25229e-06
1.10626e-07
6.83784e-08
5.8823e-06
-2.11431e-08
6.08063e-08
1.07124e-07
6.57111e-06
3.33702e-09
8.883e-08
6.98325e-06
-7.23049e-08
5.79888e-08
7.0511e-06
-9.7524e-08
8.23544e-08
6.7667e-06
-5.22145e-08
1.04996e-07
6.1682e-06
-2.55255e-08
5.4374e-06
1.28748e-07
8.64496e-09
-7.39328e-08
-1.67575e-07
6.82472e-06
1.69988e-07
2.23117e-07
3.3201e-08
-1.40071e-07
6.70382e-06
2.93673e-07
5.7528e-08
-5.67777e-08
5.98621e-06
2.60687e-07
4.55287e-08
-7.6879e-09
6.01023e-06
2.26576e-07
1.94937e-07
-1.60672e-07
6.38065e-06
3.10298e-07
2.99673e-07
-1.83312e-07
6.99006e-06
2.49613e-07
-1.63449e-07
6.33169e-06
3.37232e-07
1.85068e-07
-5.55243e-08
-5.5049e-08
6.64242e-06
2.05535e-07
2.42121e-08
-7.03614e-08
4.17189e-06
1.78098e-08
-3.27106e-10
4.62469e-06
6.79482e-08
7.25292e-09
4.6293e-06
1.43035e-07
-7.62468e-08
4.28672e-06
3.3519e-07
-5.74579e-08
6.03349e-06
-9.65559e-08
6.94771e-06
3.75096e-07
5.37021e-08
-5.52073e-08
5.79234e-06
1.60002e-07
1.22415e-07
-4.70149e-08
4.49474e-06
9.65195e-08
-9.18822e-08
5.41372e-06
-1.36702e-08
-1.33909e-07
8.2171e-06
2.37359e-08
-4.91269e-08
4.66952e-06
2.41745e-07
-4.84796e-08
5.12406e-06
-5.52996e-08
7.12388e-06
3.69055e-07
2.33003e-08
-1.64859e-08
5.70969e-06
1.75873e-07
1.12149e-07
-2.24837e-08
4.48311e-06
9.20372e-08
-1.14899e-07
6.07363e-06
-8.11348e-09
-1.24338e-07
5.88214e-06
3.91698e-08
-2.23797e-08
4.68027e-06
2.40149e-07
-3.00857e-08
4.90116e-06
-3.44784e-09
7.03575e-06
3.69859e-07
-8.05668e-08
1.28208e-07
6.52995e-06
2.3696e-07
2.29629e-08
7.55548e-08
4.07803e-06
3.21937e-08
-2.25786e-08
4.50893e-06
6.65875e-08
-9.26156e-08
4.58087e-06
1.37449e-07
5.23197e-08
4.22862e-06
3.35259e-07
7.35702e-08
5.85396e-06
8.57663e-08
6.84116e-06
3.69414e-07
-9.75011e-08
2.26243e-07
6.64365e-06
1.86464e-07
3.15425e-08
2.45104e-07
6.39436e-06
6.74302e-08
1.72092e-07
5.55599e-06
6.00143e-08
1.24734e-07
5.53899e-06
2.02637e-07
2.02794e-07
6.05663e-06
3.01458e-07
1.69696e-07
6.76605e-06
1.43632e-07
6.1742e-06
3.2159e-07
-7.80788e-08
5.78374e-06
1.3156e-07
2.71265e-07
1.6602e-08
6.42859e-06
2.92963e-07
8.80888e-08
6.8075e-06
2.74097e-07
1.33092e-07
6.87623e-06
2.4724e-07
2.16124e-07
6.63513e-06
2.51526e-07
2.60488e-07
6.08185e-06
2.11684e-07
5.40116e-06
2.66e-07
1.74363e-07
-2.80063e-07
-3.47706e-07
6.74308e-06
3.6161e-07
3.94937e-07
-9.08806e-08
-3.32428e-07
6.76051e-06
5.65677e-07
6.48953e-08
-2.79062e-07
6.1374e-06
6.44513e-07
1.98415e-07
-2.37464e-07
6.23745e-06
6.23867e-07
3.91449e-07
-2.22598e-07
6.66588e-06
5.89449e-07
4.98914e-07
-3.66881e-07
6.93581e-06
4.32319e-07
-2.73187e-07
6.31722e-06
4.89453e-07
2.971e-07
-2.59793e-07
-1.56443e-07
6.73588e-06
4.89398e-07
-5.26858e-08
-1.11322e-07
4.47907e-06
6.6977e-08
-1.46963e-07
4.48583e-06
1.3228e-07
-1.17344e-07
4.51758e-06
2.27357e-07
-1.08169e-07
4.0681e-06
6.38011e-07
-1.68544e-07
6.44938e-06
-1.63087e-07
6.89586e-06
5.95106e-07
-1.72491e-07
-1.61463e-08
6.01528e-06
5.35332e-07
-3.05605e-08
-3.05228e-08
4.31148e-06
1.52442e-07
-7.52871e-08
5.19001e-06
1.3634e-07
-1.12951e-07
5.33199e-06
1.9548e-07
-4.61976e-08
4.5464e-06
5.89524e-07
-3.64502e-08
5.5441e-06
-3.25334e-08
7.09117e-06
6.46128e-07
-1.6245e-07
1.32504e-07
6.04542e-06
5.33628e-07
-2.84236e-08
6.69776e-08
4.27391e-06
1.32455e-07
6.34538e-08
5.77556e-06
1.76308e-07
4.18279e-08
5.05317e-06
2.05418e-07
5.43797e-08
4.5446e-06
5.68436e-07
8.69679e-08
5.28952e-06
1.04067e-07
7.00154e-06
6.41397e-07
-2.721e-07
3.45384e-07
6.73124e-06
4.96437e-07
-4.35196e-08
2.92328e-07
4.62668e-06
6.31791e-08
1.67663e-07
4.29815e-06
1.28214e-07
1.42258e-07
4.41196e-06
2.25344e-07
1.67294e-07
4.01435e-06
6.22737e-07
2.90614e-07
6.22232e-06
2.301e-07
6.77915e-06
5.80996e-07
-2.90731e-07
4.22698e-07
6.56991e-06
3.59977e-07
-8.60685e-08
5.3456e-07
6.68079e-06
6.17257e-08
5.43891e-07
5.8794e-06
1.91853e-07
5.13296e-07
5.82779e-06
3.96861e-07
5.1214e-07
6.41017e-06
4.94873e-07
3.87124e-07
6.77172e-06
2.84458e-07
6.14586e-06
4.68821e-07
-1.89334e-07
5.73908e-06
2.39737e-07
4.16851e-07
-6.51309e-08
6.33743e-06
5.01618e-07
8.38363e-08
6.71686e-06
5.4236e-07
2.16626e-07
6.78909e-06
5.28321e-07
3.33643e-07
6.55137e-06
4.78917e-07
3.76712e-07
6.04723e-06
3.78653e-07
5.41274e-06
3.6026e-07
2.89347e-07
-3.15258e-07
-3.65134e-07
6.72116e-06
3.68322e-07
3.86785e-07
-1.33304e-07
-4.7837e-07
7.10711e-06
5.74415e-07
6.15862e-08
-5.08055e-07
6.9267e-06
7.15277e-07
2.69212e-07
-4.96612e-07
7.07661e-06
7.37976e-07
4.52615e-07
-4.56109e-07
7.13066e-06
6.1675e-07
5.10272e-07
-4.06185e-07
6.93007e-06
4.23938e-07
-2.68214e-07
6.33849e-06
4.76866e-07
2.79154e-07
-3.7777e-07
-1.89526e-07
7.12368e-06
5.0662e-07
-1.43783e-07
-1.87142e-07
5.85474e-06
4.46498e-08
-1.6368e-07
5.2999e-06
2.23818e-07
-2.09542e-07
4.78548e-06
4.62505e-07
-1.63094e-07
5.29248e-06
6.98438e-07
-2.31044e-07
7.06569e-06
-1.71424e-07
6.89243e-06
5.94149e-07
-3.40385e-07
1.4469e-08
6.94701e-06
6.07343e-07
-1.07252e-07
-3.92685e-09
4.34921e-06
8.30219e-08
-4.36431e-08
4.95938e-06
2.69108e-07
-2.68856e-08
4.961e-06
3.38675e-07
-3.39566e-08
4.34446e-06
7.77668e-07
-2.93391e-08
6.63855e-06
-1.51207e-08
7.11534e-06
6.7246e-07
-3.12377e-07
1.96828e-07
6.93484e-06
5.90308e-07
-1.15486e-07
1.82147e-07
4.64604e-06
1.53639e-07
1.81079e-07
6.64204e-06
2.2663e-07
1.42407e-07
4.80734e-06
3.15379e-07
1.13234e-07
4.32214e-06
7.54359e-07
1.55948e-07
6.44904e-06
1.42239e-07
7.03305e-06
6.6389e-07
-4.08805e-07
3.85751e-07
7.05477e-06
5.00002e-07
-1.40831e-07
4.51092e-07
5.88787e-06
3.40555e-08
3.46151e-07
4.54578e-06
1.69483e-07
2.48183e-07
4.16801e-06
4.5719e-07
3.81434e-07
4.88279e-06
6.82305e-07
3.55105e-07
6.7634e-06
2.55643e-07
6.77135e-06
5.76553e-07
-3.08153e-07
4.25379e-07
6.52355e-06
3.45897e-07
-1.29358e-07
5.53671e-07
7.01659e-06
4.9069e-08
6.36461e-07
6.779e-06
2.52797e-07
6.56082e-07
6.77258e-06
4.5541e-07
5.67147e-07
6.97014e-06
4.98262e-07
4.04673e-07
6.80556e-06
2.90506e-07
6.15943e-06
4.49307e-07
-1.84305e-07
5.72509e-06
2.2277e-07
4.0077e-07
-7.63409e-08
6.29357e-06
4.89524e-07
7.22723e-08
6.66776e-06
5.47377e-07
2.31386e-07
6.75226e-06
5.53493e-07
3.41319e-07
6.522e-06
4.86565e-07
3.66736e-07
6.05314e-06
3.73227e-07
5.44811e-06
3.38707e-07
2.83094e-07
-1.48897e-07
-2.07028e-07
6.67219e-06
2.01648e-07
2.15556e-07
-3.89556e-08
-3.10249e-07
7.11787e-06
3.16236e-07
7.39256e-08
-3.25911e-07
6.94572e-06
3.92384e-07
2.16288e-07
-3.9013e-07
7.1067e-06
4.23599e-07
2.97508e-07
-3.44328e-07
7.08237e-06
3.31815e-07
3.1883e-07
-2.06258e-07
6.90045e-06
2.07384e-07
-1.29707e-07
6.34951e-06
3.06461e-07
1.31085e-07
-2.10891e-07
-1.2541e-07
7.17733e-06
2.67818e-07
-7.10429e-08
-1.69084e-07
6.36492e-06
4.77764e-08
-2.54993e-07
5.67109e-06
1.93744e-07
-2.07599e-07
5.12162e-06
3.84897e-07
-1.91287e-07
6.26892e-06
4.20745e-07
-1.57694e-07
7.01784e-06
-8.92339e-08
6.87229e-06
3.65205e-07
-2.0324e-07
5.76545e-09
7.30362e-06
3.26586e-07
-6.95402e-08
-1.08655e-08
5.29049e-06
8.71736e-08
-4.13845e-08
6.42765e-06
2.2482e-07
-6.37362e-08
4.82412e-06
4.0099e-07
-4.42269e-08
4.36439e-06
5.23161e-07
-2.93263e-08
6.8102e-06
-1.81465e-09
7.08397e-06
4.16194e-07
-2.23525e-07
1.4301e-07
7.22634e-06
3.2707e-07
-7.65868e-08
1.5537e-07
5.53354e-06
7.14011e-08
1.06187e-07
6.36764e-06
1.90034e-07
9.27815e-08
5.07782e-06
4.30563e-07
1.22673e-07
5.34305e-06
5.07299e-07
9.67547e-08
6.6564e-06
8.60792e-08
7.00687e-06
4.073e-07
-2.3591e-07
2.44589e-07
7.06862e-06
2.66579e-07
-1.02931e-07
2.96007e-07
6.27885e-06
3.33193e-08
2.59568e-07
5.30861e-06
2.10939e-07
3.1234e-07
5.22572e-06
3.99435e-07
2.88094e-07
5.76936e-06
4.15508e-07
1.79923e-07
6.72217e-06
1.46877e-07
6.76158e-06
3.47879e-07
-1.40871e-07
2.68541e-07
6.46948e-06
1.73361e-07
-4.70382e-08
3.31171e-07
7.03732e-06
6.92923e-08
3.77798e-07
6.96942e-06
2.17496e-07
3.9292e-07
6.99023e-06
3.06285e-07
3.20721e-07
6.96915e-06
3.067e-07
2.16499e-07
6.79402e-06
1.65948e-07
6.17085e-06
2.74031e-07
-7.55476e-08
5.70358e-06
1.04751e-07
2.60695e-07
-9.06476e-09
6.25575e-06
3.02327e-07
8.29529e-08
6.62144e-06
3.32077e-07
1.82325e-07
6.71353e-06
3.32302e-07
2.38414e-07
6.50542e-06
2.81161e-07
2.38251e-07
6.05917e-06
2.10486e-07
5.46933e-06
2.14231e-07
1.68604e-07
1.4602e-08
-3.98154e-08
6.60151e-06
4.59473e-08
5.00732e-08
7.02163e-08
-5.04121e-08
7.03935e-06
6.50121e-08
1.09284e-07
-5.34406e-08
6.78725e-06
7.02769e-08
1.35545e-07
-6.26066e-08
6.84693e-06
5.85025e-08
1.25069e-07
-1.65049e-08
6.63241e-06
1.45092e-08
1.22349e-07
4.30036e-08
6.81608e-06
-2.61619e-08
3.24593e-08
6.33037e-06
1.35428e-07
-2.59704e-08
5.53905e-09
-1.37102e-08
7.09406e-06
5.17342e-08
4.45321e-08
-4.13659e-08
6.23107e-06
7.14379e-08
-1.09437e-07
4.83728e-06
1.48181e-07
-1.47067e-07
4.64053e-06
1.54688e-07
-3.18993e-08
6.15138e-06
1.15228e-07
1.87068e-08
6.38897e-06
2.9093e-08
6.80904e-06
1.25068e-07
-1.48993e-10
2.69642e-08
7.22834e-06
5.72875e-08
2.42556e-08
6.65046e-09
5.2724e-06
1.21568e-07
-1.84014e-08
6.26028e-06
2.55029e-07
-1.92499e-08
6.51718e-06
1.33056e-07
1.67654e-08
4.2941e-06
1.18908e-07
2.09751e-11
6.61049e-06
1.97136e-08
6.88938e-06
1.16224e-07
3.06835e-09
7.11864e-08
7.15141e-06
4.96212e-08
2.00171e-08
4.63286e-08
5.27505e-06
1.24098e-07
8.75696e-08
6.17337e-06
2.25861e-07
5.30816e-08
6.45245e-06
1.52634e-07
2.09335e-08
5.45431e-06
1.06088e-07
-2.60014e-08
6.20001e-06
1.73352e-08
6.87283e-06
1.07733e-07
1.97874e-08
1.0517e-07
6.99761e-06
2.59245e-08
4.62767e-08
7.95841e-08
6.1954e-06
9.21302e-08
5.95101e-08
4.98045e-06
1.5314e-07
3.68023e-08
5.3934e-06
1.1579e-07
8.97958e-09
5.56577e-06
1.00667e-07
-2.19519e-08
6.40145e-06
2.36378e-08
6.72536e-06
9.89196e-08
3.88672e-08
1.20055e-07
6.41007e-06
1.38999e-09
7.91245e-08
1.09863e-07
7.00056e-06
1.14007e-07
1.00399e-07
6.88849e-06
1.26435e-07
7.302e-08
6.91372e-06
1.23283e-07
4.244e-08
6.87695e-06
9.88114e-08
1.57183e-08
6.76928e-06
3.48234e-08
6.16227e-06
9.22337e-08
3.91009e-08
5.66919e-06
-1.31545e-08
1.28373e-07
7.0866e-08
6.21346e-06
1.20255e-07
1.03662e-07
6.57661e-06
1.09196e-07
1.21719e-07
6.67271e-06
8.8813e-08
1.20327e-07
6.48091e-06
6.46156e-08
1.00565e-07
6.04968e-06
4.48436e-08
5.46812e-06
8.56123e-08
5.0839e-08
5.89484e-08
3.8148e-08
6.52618e-06
-4.85202e-09
-2.40602e-08
9.95323e-08
4.67614e-08
6.94976e-06
-3.46567e-08
9.51239e-08
6.14902e-08
6.58067e-06
-7.20628e-08
4.46861e-08
8.64226e-08
6.33551e-06
-1.06387e-07
5.40572e-08
5.76368e-08
6.39007e-06
-8.78553e-08
6.15827e-08
1.0942e-07
6.77531e-06
-9.68503e-08
9.70728e-08
6.29974e-06
7.88505e-08
-8.38855e-08
4.74511e-08
5.91889e-08
6.98558e-06
-6.91602e-09
4.63537e-08
3.786e-08
6.11026e-06
3.03375e-08
5.34389e-08
4.34573e-06
6.65026e-08
4.02999e-08
4.44675e-06
4.68078e-08
3.06402e-08
5.23713e-06
2.8417e-08
8.40608e-08
5.90091e-06
8.85479e-08
6.76142e-06
5.68837e-08
6.7953e-08
6.57031e-08
7.15429e-06
-2.81992e-08
4.56798e-08
4.72233e-08
5.13224e-06
2.31477e-08
9.8941e-08
6.25348e-06
2.15828e-08
8.14664e-08
6.49403e-06
-1.47887e-08
2.36575e-08
4.41942e-06
-1.752e-08
2.20174e-08
5.63461e-06
4.77662e-08
6.79115e-06
2.52881e-08
8.33906e-08
6.32634e-08
7.0892e-06
-4.48119e-08
6.29146e-08
1.75387e-08
4.64873e-06
2.79486e-08
1.12804e-09
6.32642e-06
7.82687e-08
1.75344e-08
6.48399e-06
-9.33492e-09
1.62597e-09
4.09054e-06
-2.07775e-08
-4.01632e-08
5.08684e-06
1.71049e-08
6.84624e-06
1.31881e-08
8.77257e-08
7.24931e-08
6.94543e-06
-5.11487e-08
7.35726e-08
3.12124e-08
6.20264e-06
4.99076e-08
-1.35374e-08
4.57547e-06
6.50717e-08
-4.74747e-08
4.26664e-06
1.7997e-08
-1.92154e-08
4.53547e-06
7.47096e-09
-4.18671e-08
6.3833e-06
6.32734e-09
6.71232e-06
2.20702e-08
9.11838e-08
7.64576e-08
6.36023e-06
-5.90011e-08
1.14597e-07
5.09557e-08
6.99648e-06
1.02064e-07
1.36905e-08
6.83659e-06
5.70753e-08
-2.43411e-08
6.7254e-06
5.0295e-08
-1.11202e-08
6.83799e-06
2.929e-08
-1.60283e-08
6.76434e-06
7.5352e-09
6.15743e-06
2.74688e-08
8.14186e-08
5.64767e-06
-6.24042e-08
7.88942e-08
9.69304e-08
6.18972e-06
5.90486e-08
9.68083e-08
6.54623e-06
3.33637e-08
7.49854e-08
6.62874e-06
6.9744e-09
6.11674e-08
6.45942e-06
6.43787e-09
4.23084e-08
6.0497e-06
2.75485e-09
5.47296e-06
3.0631e-08
1.42622e-08
-7.09461e-10
5.29755e-08
6.49003e-06
1.59095e-08
-3.49273e-08
2.86591e-08
2.80881e-08
6.93018e-06
-1.02498e-08
5.95538e-08
3.40439e-08
6.56945e-06
-2.52129e-09
3.04465e-08
1.4777e-07
6.34018e-06
-4.79505e-08
9.33026e-08
1.43163e-08
6.45411e-06
-1.14605e-08
1.09987e-07
5.98568e-08
6.8056e-06
-5.18299e-08
8.66129e-08
6.30048e-06
9.73532e-08
-7.49955e-08
-4.60181e-08
9.60392e-08
6.94212e-06
3.86145e-08
-7.83282e-09
6.11233e-08
6.25685e-06
-2.91742e-08
5.21879e-08
4.2246e-06
3.5056e-08
9.91467e-08
4.31988e-06
9.75835e-08
1.47858e-08
5.01299e-06
1.31102e-07
7.21322e-08
5.97404e-06
1.04432e-07
6.76916e-06
1.09589e-07
1.39434e-08
9.91193e-08
7.14026e-06
1.59015e-08
3.15404e-08
7.58654e-08
5.32854e-06
-8.25646e-08
1.00797e-07
3.32499e-06
-5.75206e-08
1.64678e-07
6.41713e-06
1.47701e-08
4.0309e-08
5.03862e-06
8.32761e-08
6.35638e-08
5.60189e-06
9.05555e-08
6.81045e-06
9.07526e-08
1.58412e-08
1.02456e-07
7.11073e-06
3.42193e-09
2.62241e-08
5.90717e-08
4.68583e-06
-6.32736e-08
7.90175e-08
3.78916e-06
-1.17958e-08
7.42436e-08
6.53888e-06
-7.02319e-09
6.29703e-08
3.96122e-06
6.47354e-08
3.54768e-08
5.19043e-06
7.6594e-08
6.93008e-06
6.99242e-08
1.48567e-08
1.11013e-07
6.96437e-06
-1.48987e-08
3.69758e-08
1.29138e-07
6.5982e-06
7.23061e-09
6.15455e-08
3.94645e-06
1.80565e-08
5.20023e-09
4.1496e-06
5.90654e-08
9.32709e-08
4.60662e-06
8.42355e-08
7.55142e-08
6.76178e-06
6.55613e-08
6.76567e-06
5.79013e-08
4.40367e-08
9.7493e-08
6.35744e-06
-4.66669e-08
6.02771e-08
1.1123e-07
7.10257e-06
8.12925e-08
1.11253e-07
6.93636e-06
3.46872e-08
5.10832e-08
6.76673e-06
6.56749e-08
8.32091e-08
7.0129e-06
5.52737e-08
5.74103e-08
6.87486e-06
4.17452e-08
6.19839e-06
3.26807e-08
7.25273e-08
5.6677e-06
-6.95851e-08
7.42873e-08
8.16104e-08
6.21761e-06
7.39823e-08
8.60053e-08
6.56322e-06
6.33048e-08
5.66814e-08
6.63271e-06
3.17082e-08
5.04458e-08
6.48706e-06
3.75209e-08
3.52367e-08
6.09639e-06
2.5867e-08
5.51446e-06
1.71405e-08
1.82862e-08
3.28389e-08
1.2107e-07
6.49407e-06
-4.98819e-08
-1.09459e-07
3.17482e-08
8.74151e-08
7.04878e-06
-9.25305e-08
6.48546e-08
4.12139e-08
7.15354e-06
-6.2103e-08
5.21303e-08
9.00863e-08
7.01827e-06
-9.44888e-08
8.1861e-08
6.61033e-08
7.14057e-06
-9.36645e-08
6.26421e-08
1.21509e-07
6.96208e-06
-1.32545e-07
1.5206e-07
6.33022e-06
2.55959e-08
-1.44832e-07
-8.36098e-09
1.4289e-07
6.97405e-06
-3.17098e-08
3.88964e-10
1.08777e-07
7.07325e-06
2.35111e-08
4.77614e-08
4.90388e-06
5.90407e-08
1.69968e-07
6.02209e-06
8.61108e-08
7.42473e-08
5.60894e-06
9.11422e-08
1.12939e-07
6.65748e-06
1.5739e-07
6.84988e-06
3.29474e-08
2.42744e-08
1.35788e-07
7.29794e-06
-4.93299e-08
4.9892e-08
9.8147e-08
6.45825e-06
6.37025e-08
6.63029e-08
3.42667e-06
-2.96192e-08
1.66399e-07
5.40425e-06
2.21234e-08
1.15867e-07
6.50703e-06
5.13515e-08
1.13366e-07
6.34807e-06
1.29064e-07
7.00899e-06
1.52105e-08
2.09466e-08
1.24399e-07
7.33467e-06
-6.3109e-08
5.06976e-08
1.05151e-07
5.5091e-06
5.25708e-08
8.85806e-08
3.73751e-06
-1.79353e-08
2.89754e-08
6.7626e-06
-5.53147e-09
3.96414e-08
3.92706e-06
4.10988e-08
9.52003e-08
6.21858e-06
1.02679e-07
7.19009e-06
-1.64586e-09
3.61029e-08
9.45774e-08
7.0568e-06
-8.92018e-08
1.36819e-08
1.4486e-07
7.60888e-06
3.25994e-08
1.30481e-07
4.50001e-06
1.91415e-08
1.71633e-08
4.23284e-06
5.94646e-08
9.20562e-08
5.7709e-06
4.01913e-08
9.53342e-08
7.64004e-06
5.36757e-08
6.86635e-06
-2.13668e-08
9.4187e-08
4.3585e-08
6.40296e-06
-1.24108e-07
7.80371e-08
6.3521e-08
7.19949e-06
9.38875e-08