/*--------------------------------*- C++ -*----------------------------------*\
| =========                 |                                                 |
| \\      /  F ield         | OpenFOAM: The Open Source CFD Toolbox           |
|  \\    /   O peration     | Version:  plus.master.MPPICInterFoam            |
|   \\  /    A nd           | Web:      www.OpenFOAM.com                      |
|    \\/     M anipulation  |                                                 |
\*---------------------------------------------------------------------------*/
FoamFile
{
    version     2.0;
    format      ascii;
    class       volScalarField;
    location    "6.6";
    object      k;
}
// * * * * * * * * * * * * * * * * * * * * * * * * * * * * * * * * * * * * * //

dimensions      [0 2 -2 0 0 0 0];

internalField   nonuniform List<scalar> 
11821
(
0.0511726
0.0546734
0.0452592
0.0509768
0.0451893
0.0380902
0.0487193
0.0549841
0.0586602
0.0582093
0.0565772
0.0509206
0.0428714
0.0560533
0.0625936
0.0614294
0.0652456
0.0649053
0.0590547
0.0497421
0.059794
0.0643403
0.0602401
0.0619982
0.0673782
0.0654134
0.054407
0.0603205
0.0684717
0.0629178
0.0602758
0.0675149
0.0677054
0.0555313
0.0592199
0.0661796
0.0647736
0.0686997
0.069709
0.0632393
0.0525529
0.0534687
0.0603332
0.0654677
0.0659465
0.0631376
0.0560408
0.046566
0.045149
0.0513607
0.0553638
0.0559623
0.0527151
0.0466068
0.0393804
0.0499073
0.0559957
0.0582481
0.0584836
0.0572458
0.0517345
0.0439707
0.0570978
0.0595555
0.0590758
0.0583383
0.0609435
0.0592102
0.05063
0.0603797
0.0600322
0.0605758
0.057857
0.0613556
0.0633073
0.0550665
0.0616491
0.0590466
0.0597575
0.058247
0.0646626
0.0651373
0.0560926
0.0601618
0.0629053
0.0622804
0.0620502
0.0648783
0.0627096
0.0531836
0.0542862
0.0608963
0.0632545
0.0638483
0.0624637
0.0561116
0.0473541
0.0460815
0.0522308
0.0561272
0.056631
0.0533253
0.0473406
0.0404365
0.0501188
0.0560514
0.0592128
0.0595243
0.0569732
0.0515318
0.0445346
0.0571623
0.0615209
0.0619988
0.0606599
0.0620324
0.0585608
0.0506192
0.0613766
0.0630507
0.0558561
0.057292
0.0634427
0.0630238
0.0546873
0.0622634
0.0624313
0.0581291
0.059077
0.0645458
0.0643549
0.055523
0.0598418
0.0640106
0.0645984
0.063766
0.0652706
0.061357
0.0528105
0.0539993
0.0602271
0.0636041
0.0640547
0.0612302
0.0552255
0.0475953
0.046441
0.0520922
0.0556189
0.0559318
0.0528666
0.0475486
0.0412779
0.0501139
0.0560157
0.0596692
0.0600959
0.0569425
0.051539
0.0450162
0.057014
0.0629196
0.0642918
0.0641327
0.063243
0.0585625
0.0505329
0.0618307
0.0660991
0.0624879
0.0628379
0.0655863
0.0632741
0.0541775
0.0629315
0.0675957
0.0635631
0.064192
0.067365
0.0642921
0.054929
0.0598703
0.066227
0.0674173
0.0677957
0.0665666
0.061328
0.0525696
0.0539908
0.0607506
0.0648774
0.0652431
0.0615593
0.0552645
0.04792
0.0466985
0.0520254
0.0552816
0.0555464
0.0527151
0.0478768
0.0420131
0.0502119
0.0556778
0.0588322
0.0590846
0.056493
0.051704
0.0455951
0.0566456
0.0630696
0.0655689
0.0657911
0.0639067
0.0581546
0.0507569
0.0608935
0.0667397
0.0627197
0.0616061
0.067324
0.0623655
0.054029
0.0618552
0.0679107
0.0627667
0.0614681
0.0684871
0.0632891
0.0547131
0.0593075
0.066247
0.0685792
0.0689389
0.0669116
0.0607286
0.0526348
0.0539428
0.0602586
0.0639705
0.0642125
0.0610227
0.0552717
0.0483434
0.0469052
0.0519822
0.0549188
0.0551488
0.0527008
0.0482777
0.0426509
0.050825
0.0563519
0.0594557
0.0596941
0.057373
0.0526453
0.0464628
0.0572828
0.0633703
0.0654838
0.0659306
0.0641889
0.0591066
0.0516714
0.0615578
0.0661294
0.0632441
0.0637217
0.0672693
0.0633329
0.0549924
0.0625714
0.0663188
0.0639196
0.0643163
0.0667734
0.0643781
0.0556402
0.0597996
0.0665279
0.0676104
0.0682311
0.0671236
0.0616161
0.0534189
0.05429
0.060736
0.0646834
0.0649451
0.0618483
0.0560293
0.0490422
0.0472065
0.0523535
0.0553692
0.0556734
0.0532997
0.0489096
0.0432709
0.0514866
0.0570456
0.0597452
0.0598836
0.057761
0.0534742
0.0472798
0.0578027
0.0623415
0.0593669
0.0585302
0.0606536
0.0590854
0.0525778
0.061411
0.0608305
0.0599252
0.0588853
0.0590329
0.0623156
0.0559316
0.0619042
0.0619148
0.0601384
0.0597533
0.0609277
0.0630651
0.0565153
0.0599354
0.0643374
0.0626165
0.0617969
0.0635221
0.0614028
0.0541979
0.0545653
0.0608138
0.0639629
0.0642661
0.0616833
0.0565502
0.0496799
0.0474168
0.0527233
0.0558896
0.0562858
0.0538959
0.0494747
0.0438346
0.0518331
0.0576453
0.0602074
0.0603376
0.0588013
0.054298
0.0479768
0.0581874
0.0618652
0.0621693
0.0612818
0.0626617
0.0601698
0.0533734
0.0615682
0.063607
0.059592
0.0602391
0.0620258
0.0626283
0.056674
0.0623378
0.0646896
0.0611302
0.0618775
0.0635604
0.0634081
0.0572103
0.0601179
0.064631
0.0653206
0.0648648
0.065644
0.0622803
0.0548454
0.0545535
0.0610065
0.0641691
0.0643932
0.0624082
0.0570857
0.0502004
0.0474753
0.0528771
0.0561742
0.0566534
0.0543768
0.0499354
0.0443425
0.0515538
0.0575561
0.0608274
0.0612067
0.0592286
0.0545131
0.0482867
0.057757
0.0630141
0.0646525
0.0643291
0.064186
0.0605298
0.0536072
0.061368
0.0656376
0.060651
0.0602459
0.0648506
0.0636477
0.056892
0.061968
0.066576
0.0598571
0.0601476
0.0657959
0.0643817
0.057388
0.0593616
0.0652356
0.0674069
0.0670397
0.0671767
0.0623632
0.0549822
0.0540084
0.0604028
0.0641172
0.0646687
0.062353
0.0570596
0.0504035
0.0472584
0.0525553
0.0559417
0.0565524
0.0543728
0.0500939
0.044688
0.0508782
0.0567509
0.0603175
0.0611376
0.0590228
0.0543568
0.0483553
0.0567209
0.0624469
0.0637282
0.0640868
0.0639324
0.0605553
0.0534728
0.060459
0.0648032
0.0614241
0.0616162
0.0662986
0.0642321
0.0567
0.0610262
0.0654072
0.0657142
0.0638072
0.067693
0.0648763
0.0571814
0.0583792
0.0649928
0.0669416
0.0678924
0.0663006
0.062371
0.0547999
0.0532388
0.0596017
0.0636519
0.0645627
0.0620744
0.0568178
0.0504081
0.0468764
0.0519605
0.0552581
0.0560097
0.054023
0.0500481
0.0448957
0.0502333
0.0559738
0.0595277
0.0603753
0.0583615
0.0540864
0.0483623
0.0558477
0.0622725
0.0648522
0.0649072
0.0644731
0.0600044
0.0532617
0.0593484
0.0642041
0.0656738
0.0614504
0.0655206
0.0638661
0.0563023
0.059829
0.0653903
0.0654049
0.062388
0.0656031
0.0643467
0.0567133
0.0572267
0.0641
0.0665141
0.0659769
0.0661847
0.0614787
0.0544671
0.0524325
0.0584862
0.062527
0.0634482
0.0610941
0.0563225
0.0503511
0.0465004
0.0513467
0.0544716
0.0552566
0.0535705
0.0499515
0.0450646
0.049785
0.0552863
0.058874
0.0598813
0.0581921
0.0540992
0.0485272
0.0550227
0.0610692
0.0639542
0.064085
0.0635506
0.0599435
0.0533425
0.0582422
0.0636624
0.0637478
0.0638602
0.0646862
0.0632584
0.0562312
0.0586413
0.0641926
0.0644572
0.0657254
0.0666086
0.0637805
0.0566224
0.0562886
0.0625758
0.0654828
0.0665052
0.0654871
0.0611878
0.0545136
0.0519661
0.0576227
0.0614185
0.0624826
0.0606152
0.0562893
0.0505755
0.0463941
0.0510737
0.0540942
0.0549684
0.0535297
0.0501576
0.0454037
0.0498477
0.0552609
0.0586743
0.059658
0.0581606
0.0544092
0.0489566
0.0549748
0.0606927
0.0619515
0.0623636
0.0634943
0.0596947
0.0537706
0.0580465
0.0629938
0.0629873
0.0629249
0.0642903
0.063176
0.0566925
0.0585456
0.0638936
0.0652831
0.0640802
0.0648628
0.0635256
0.0571509
0.0563729
0.0625166
0.0654015
0.066129
0.0653153
0.0615361
0.0551477
0.0522568
0.0578645
0.0616962
0.0628914
0.0611679
0.0569589
0.0512913
0.0467989
0.0515179
0.0545904
0.0555572
0.0542082
0.0508811
0.0460974
0.0504025
0.0559946
0.0596963
0.0606729
0.0590536
0.055297
0.0497821
0.0557082
0.0617589
0.0642574
0.06372
0.0635005
0.0607445
0.0548194
0.0589748
0.0646647
0.0659951
0.0633981
0.0634252
0.0636684
0.0578506
0.0595344
0.065305
0.0644555
0.0641937
0.0651023
0.0644806
0.0584331
0.0573931
0.063704
0.0660034
0.0658073
0.0661932
0.0628318
0.0565323
0.0533198
0.0591288
0.0631492
0.0643188
0.0626262
0.0584356
0.0526441
0.0477538
0.0527022
0.0559411
0.0569611
0.0556433
0.052238
0.0472496
0.0513189
0.05718
0.060944
0.061999
0.0606259
0.0567528
0.050927
0.0569226
0.0633359
0.0658747
0.0663854
0.0660765
0.0626314
0.0563473
0.0604511
0.0667027
0.0667788
0.0690594
0.0693337
0.0660827
0.0597234
0.061284
0.0676397
0.0683019
0.0720007
0.0698006
0.0672067
0.0605537
0.0593458
0.0663342
0.0694965
0.0701047
0.0693249
0.0657612
0.0587996
0.0550555
0.061358
0.065771
0.0671493
0.0653651
0.061042
0.0546267
0.0490861
0.0544636
0.0580109
0.0591673
0.057811
0.0541671
0.0487311
0.0523899
0.0588723
0.0633695
0.0650874
0.0632363
0.0586048
0.0521167
0.0586619
0.0662049
0.0706178
0.0727153
0.0705947
0.0658024
0.0582447
0.0627833
0.0710156
0.0721344
0.0719547
0.0736553
0.0704199
0.0622854
0.0638447
0.0720422
0.0736628
0.0682186
0.0743776
0.0719514
0.0633727
0.0619992
0.0697413
0.0737786
0.0750983
0.0747287
0.0693228
0.0616322
0.0570813
0.0647121
0.0690661
0.070802
0.069021
0.0642721
0.0567793
0.0503817
0.0564352
0.060411
0.0617924
0.0603162
0.0562001
0.0501221
0.00942621
0.00402418
0.0268492
0.0215289
0.0171566
0.0133678
0.00964664
0.00405181
0.042539
0.033974
0.0271149
0.0216416
0.0171764
0.0133366
0.00959415
0.00399481
0.0402682
0.0323001
0.0258979
0.0207558
0.0165257
0.0128592
0.00926064
0.00385344
0.0358
0.0290995
0.0236502
0.0191786
0.0154125
0.0120768
0.0087378
0.00366498
0.0305664
0.0255178
0.0211645
0.0174272
0.0141703
0.0112058
0.00815834
0.00347701
0.0348281
0.0293838
0.0246446
0.0205134
0.0168422
0.0134311
0.00986234
0.00433539
0.0396521
0.0326036
0.0268413
0.0220288
0.0178822
0.0141264
0.0102965
0.0044299
0.0430978
0.0349467
0.0284044
0.0230599
0.0185485
0.0145398
0.0105288
0.00446011
0.0438863
0.0354245
0.0286619
0.0231729
0.0185716
0.0145108
0.0104766
0.00440091
0.0416214
0.0337676
0.0274486
0.0222751
0.0179023
0.0140167
0.0101316
0.0042525
0.0372073
0.0306052
0.0251962
0.0206621
0.0167443
0.013196
0.00958235
0.00404968
0.0320301
0.0270257
0.0226615
0.0188391
0.0154322
0.0122674
0.00896154
0.00384343
0.0362703
0.0309064
0.0261608
0.0219295
0.018089
0.014464
0.0106341
0.00469768
0.0409981
0.0341093
0.0283816
0.0234837
0.0191646
0.0151853
0.0110834
0.00479663
0.0443256
0.0364078
0.0299434
0.0245315
0.01985
0.0156127
0.0113238
0.00482814
0.0450538
0.0368542
0.0301898
0.0246423
0.0198732
0.015584
0.0112713
0.00476747
0.0428201
0.0352084
0.0289675
0.0237236
0.0191822
0.0150739
0.0109176
0.00461507
0.0385006
0.0320756
0.0266942
0.0220663
0.0179795
0.0142189
0.0103465
0.00440242
0.0334271
0.0284948
0.0241042
0.0201726
0.0166024
0.0132391
0.00968966
0.00417913
0.0373912
0.0322073
0.0274721
0.0231441
0.019151
0.0153438
0.0112935
0.00500712
0.041869
0.0353334
0.0296908
0.02472
0.0202506
0.0160847
0.0117561
0.00511066
0.0449839
0.0375485
0.0312341
0.0257731
0.0209463
0.0165208
0.0120017
0.0051427
0.0456287
0.0379605
0.0314667
0.0258784
0.0209675
0.0164919
0.0119498
0.00508178
0.043528
0.0363665
0.0302487
0.0249467
0.0202631
0.0159737
0.0115927
0.00492806
0.0394889
0.0333258
0.027978
0.0232622
0.0190311
0.0150964
0.0110082
0.00471039
0.0346251
0.0297808
0.0253542
0.0213165
0.0176048
0.0140764
0.0103221
0.00447271
0.0382479
0.0332173
0.0284965
0.0241059
0.0200139
0.016083
0.011866
0.00528036
0.042474
0.0362482
0.0306901
0.0256844
0.021126
0.0168387
0.012341
0.0053898
0.0453537
0.0383627
0.0321964
0.0267262
0.0218206
0.0172776
0.0125898
0.00542328
0.0459429
0.0387448
0.0324133
0.026824
0.0218396
0.0172494
0.0125394
0.00536314
0.0440219
0.0372186
0.0312121
0.0258933
0.0211341
0.0167309
0.0121825
0.00520897
0.0402523
0.0342795
0.0289662
0.0242067
0.0198929
0.0158441
0.0115916
0.00498807
0.0355558
0.0307789
0.0263337
0.0222341
0.0184359
0.0147956
0.0108822
0.00473791
0.0389967
0.0340349
0.0293186
0.024901
0.0207586
0.0167476
0.0123979
0.00554199
0.0430721
0.0370021
0.0314888
0.0264771
0.0218801
0.0175168
0.0128848
0.00565803
0.0457898
0.0390432
0.0329587
0.0275022
0.0225699
0.0179573
0.013137
0.00569452
0.046334
0.0393972
0.0331595
0.0275929
0.0225875
0.0179303
0.0130882
0.00563519
0.0445181
0.0379066
0.0319717
0.0266694
0.0218863
0.0174131
0.0127306
0.00547918
0.0408992
0.0350269
0.0297496
0.0249904
0.0206436
0.0165211
0.0121341
0.00525343
0.0362886
0.0315543
0.0271175
0.0230036
0.0191651
0.0154496
0.0114053
0.00499272
0.0397943
0.0348035
0.0300747
0.0256416
0.0214615
0.017378
0.0129027
0.0057964
0.0438875
0.0377651
0.0322431
0.0272256
0.0225967
0.0181611
0.0134
0.00591821
0.0465977
0.0397806
0.0336907
0.0282408
0.0232865
0.0186058
0.0136566
0.00595836
0.0470998
0.0401068
0.0338767
0.0283259
0.0233034
0.0185798
0.0136086
0.00589933
0.045234
0.038601
0.0326897
0.0274055
0.0226025
0.0180602
0.0132476
0.00574002
0.0415787
0.0357206
0.0304731
0.0257258
0.0213534
0.0171597
0.0126432
0.00550814
0.0369539
0.0322443
0.0278312
0.0237207
0.0198521
0.0160665
0.0118985
0.00523805
0.0405937
0.0355707
0.0308224
0.0263589
0.0221227
0.0179524
0.0133499
0.00602447
0.0447112
0.0385499
0.0330093
0.0279631
0.0232766
0.0187494
0.0138552
0.00615052
0.0474078
0.0405469
0.0344492
0.0289808
0.0239742
0.0192023
0.0141178
0.00619426
0.0478748
0.0408505
0.0346237
0.029062
0.0239912
0.0191778
0.0140711
0.00613565
0.0459653
0.0393276
0.0334291
0.0281361
0.0232844
0.0186529
0.0137064
0.00597351
0.0422653
0.0364282
0.0312006
0.0264441
0.0220223
0.0177409
0.0130941
0.00573672
0.0376147
0.0329321
0.0285359
0.0244122
0.0204957
0.0166281
0.0123368
0.00545948
0.0413061
0.0362686
0.0314995
0.0269907
0.0226828
0.0184191
0.0136982
0.00620365
0.0454579
0.0392716
0.0337113
0.0286199
0.0238575
0.0192302
0.0142118
0.0063338
0.0481363
0.0412628
0.0351559
0.0296493
0.0245685
0.0196945
0.0144822
0.00638108
0.0485694
0.0415473
0.0353231
0.0297304
0.0245888
0.0196744
0.0144395
0.00632404
0.0466209
0.0400051
0.0341181
0.0287966
0.0238763
0.0191465
0.0140743
0.00616154
0.0428884
0.0370952
0.0318795
0.0270913
0.0226014
0.0182257
0.0134581
0.00592301
0.038241
0.033588
0.0291926
0.0250343
0.0210528
0.0170972
0.0126919
0.00564116
0.0417793
0.0367934
0.0320234
0.0274702
0.0230914
0.018744
0.0139291
0.00632501
0.0458848
0.0397903
0.0342511
0.0291225
0.0242876
0.0195718
0.0144541
0.00646044
0.0485292
0.0417696
0.0357023
0.0301671
0.0250152
0.0200505
0.0147349
0.00651177
0.0489386
0.0420456
0.0358709
0.030255
0.0250446
0.0200398
0.0147002
0.00645807
0.0469964
0.0405109
0.0346683
0.0293215
0.0243336
0.0195158
0.0143403
0.00629838
0.0433258
0.0376296
0.0324346
0.0276109
0.0230531
0.0185929
0.0137258
0.00606153
0.0387463
0.0341389
0.0297378
0.0255361
0.0214886
0.0174539
0.0129548
0.00577743
0.0420433
0.0371321
0.0323673
0.027776
0.0233411
0.0189336
0.0140565
0.0063957
0.046057
0.040106
0.0346059
0.0294508
0.0245606
0.0197817
0.0145971
0.00653835
0.0486394
0.0420635
0.0360624
0.0305126
0.0253078
0.0202777
0.0148909
0.00659468
0.049038
0.0423416
0.0362419
0.0306157
0.0253534
0.0202821
0.0148684
0.00654612
0.0471455
0.0408398
0.0350584
0.0296953
0.0246545
0.0197701
0.0145193
0.00639163
0.0435915
0.0380136
0.0328446
0.0279914
0.0233783
0.0188528
0.0139116
0.00615877
0.0391092
0.0345537
0.0301474
0.0259068
0.0218051
0.0177089
0.0131394
0.00587432
0.0421999
0.0373426
0.0325728
0.0279487
0.0234745
0.0190299
0.0141171
0.00643412
0.0461274
0.0403023
0.0348297
0.0296518
0.024722
0.0199018
0.0146754
0.00658469
0.0486229
0.0422385
0.0362985
0.0307368
0.025493
0.0204183
0.0149841
0.00664689
0.0490063
0.0425266
0.0364981
0.0308637
0.0255618
0.0204426
0.0149765
0.00660444
0.0472044
0.0410778
0.035347
0.0299673
0.0248832
0.0199477
0.0146408
0.00645573
0.0437895
0.0383142
0.03316
0.0282774
0.0236176
0.0190403
0.014042
0.00622739
0.0394002
0.0348821
0.030464
0.0261871
0.0220398
0.0178951
0.0132714
0.00594386
0.0424066
0.0375405
0.0327338
0.0280665
0.023554
0.0190782
0.0141394
0.00645212
0.0463263
0.0405325
0.0350367
0.0298141
0.0248377
0.0199766
0.0147149
0.00661002
0.0487853
0.0424853
0.0365404
0.0309377
0.0256419
0.0205183
0.0150403
0.00667873
0.0491838
0.0428047
0.0367771
0.0310991
0.0257402
0.0205655
0.0150487
0.00664254
0.0474611
0.0414039
0.0356598
0.030229
0.0250826
0.0200874
0.0147252
0.00649869
0.0441301
0.0386754
0.0334873
0.0285467
0.0238238
0.0191873
0.0141337
0.00627401
0.039773
0.035239
0.0307754
0.0264419
0.0222376
0.0180399
0.0133653
0.00599208
0.0427938
0.0378411
0.0329402
0.0281893
0.0236113
0.0190895
0.0141225
0.00644612
0.0468003
0.0409363
0.0353347
0.030006
0.024941
0.0200157
0.0147129
0.00660982
0.0493183
0.0429668
0.0369144
0.0311913
0.0257891
0.0205864
0.0150555
0.00668501
0.0497788
0.0433487
0.0372081
0.0314001
0.0259238
0.0206587
0.0150795
0.00665463
0.0481186
0.0419848
0.0361149
0.030548
0.0252809
0.0201928
0.0147654
0.00651466
0.0447988
0.0392394
0.0339203
0.0288493
0.0240147
0.0192927
0.0141782
0.00629306
0.0403762
0.0357326
0.0311501
0.0267054
0.0224083
0.0181392
0.0134117
0.00601342
0.0434184
0.0382677
0.0331867
0.0282924
0.0236155
0.0190368
0.0140482
0.00640924
0.0476552
0.0415539
0.0357204
0.0301981
0.0249957
0.0199889
0.014651
0.00657805
0.0503377
0.0437431
0.0374256
0.0314696
0.0258988
0.0205913
0.0150105
0.00666005
0.0509165
0.0442273
0.0378002
0.0317379
0.0260716
0.0206875
0.0150484
0.00663541
0.0492912
0.0428735
0.0367099
0.0308893
0.0254348
0.0202291
0.0147413
0.0064991
0.0458746
0.0400289
0.0344392
0.0291439
0.0241472
0.0193242
0.0141576
0.00628064
0.0412428
0.0363558
0.0315541
0.0269334
0.0225109
0.0181635
0.0133947
0.00600411
0.0441521
0.03869
0.0333564
0.028287
0.0235135
0.0189014
0.0139234
0.00635911
0.0487408
0.0422334
0.0360566
0.0302868
0.0249399
0.0198747
0.0145368
0.00653324
0.0517332
0.0446658
0.037929
0.0316603
0.0258977
0.020505
0.0149111
0.00662306
0.0525172
0.0452986
0.0384022
0.0319879
0.0261047
0.0206203
0.01496
0.00660482
0.0508927
0.0439174
0.0372874
0.0311262
0.0254653
0.0201651
0.0146576
0.00647152
0.0472196
0.0408769
0.0348886
0.0293123
0.024151
0.019256
0.0140778
0.00625474
0.0422039
0.0369448
0.0318492
0.0270267
0.0224899
0.0180952
0.0133226
0.00598193
0.0447315
0.0388822
0.0332855
0.0280796
0.0232738
0.0186953
0.013783
0.00632452
0.0497961
0.0427177
0.0361435
0.03015
0.024725
0.0196767
0.014402
0.00650635
0.0532414
0.045443
0.0381836
0.031606
0.0257182
0.0203229
0.0147869
0.00660541
0.054297
0.0462421
0.0387467
0.0319767
0.0259442
0.0204472
0.0148413
0.0065914
0.0525232
0.0447551
0.0375706
0.0310887
0.0252997
0.0199953
0.0145428
0.00645752
0.0484151
0.0414406
0.0350258
0.0292167
0.0239745
0.0190921
0.0139696
0.00623859
0.0429076
0.0372275
0.0318547
0.0268917
0.0223186
0.0179494
0.0132296
0.00596715
0.0371415
0.0313959
0.0261946
0.0215456
0.0173994
0.0136231
0.00982135
0.00419213
0.0437973
0.0364024
0.0299482
0.0243152
0.0193849
0.0149915
0.0107038
0.00449736
0.0491951
0.0406743
0.0332051
0.0267346
0.0211257
0.0161928
0.0114768
0.00478598
0.0516889
0.0427219
0.0348136
0.0279677
0.0220515
0.0168628
0.0119298
0.00497896
0.0505534
0.0418785
0.0342448
0.0276222
0.0218768
0.0168071
0.0119437
0.00502961
0.0462584
0.0385769
0.0318301
0.0259272
0.0207437
0.0161003
0.0115474
0.00494357
0.0402087
0.0341111
0.0285558
0.0235716
0.0191077
0.0150205
0.0108889
0.00476727
0.0383028
0.0325775
0.0273656
0.022656
0.0184033
0.0144806
0.0104797
0.00450868
0.0449414
0.0375734
0.0311174
0.0254332
0.0204008
0.0158611
0.011372
0.00482148
0.0505105
0.0419269
0.0344149
0.0278717
0.0221528
0.017068
0.0121459
0.00511177
0.0530756
0.0440592
0.0360794
0.0291426
0.0230989
0.0177455
0.012599
0.00530486
0.0519485
0.0432418
0.0355287
0.0288097
0.022935
0.0176968
0.012616
0.00535792
0.0476791
0.0399131
0.0330929
0.0271036
0.021795
0.0169868
0.0122196
0.00527326
0.041546
0.0353924
0.0297896
0.0247296
0.0201466
0.0158988
0.0115571
0.00509585
0.0390963
0.0335066
0.0283138
0.0235568
0.0192217
0.0151888
0.0110314
0.00477679
0.0454291
0.0383729
0.0320163
0.0263144
0.0212097
0.0165656
0.0119239
0.00509241
0.0507495
0.0425927
0.0352568
0.0287262
0.0229438
0.0177573
0.0126856
0.00537819
0.0534373
0.0447466
0.036937
0.0300087
0.023888
0.0184276
0.0131297
0.00556702
0.0524891
0.044009
0.0364297
0.0297037
0.0237444
0.0183891
0.0131503
0.00562169
0.0482127
0.0407331
0.0340285
0.028022
0.0226261
0.0176954
0.0127639
0.00554206
0.0422851
0.0363244
0.0307776
0.0256756
0.0209954
0.016618
0.0121063
0.00536618
0.0395864
0.0341199
0.0289685
0.0242125
0.0198559
0.0157724
0.0115089
0.0050147
0.0456783
0.0388479
0.0325906
0.0269166
0.0218082
0.0171295
0.0123941
0.0053316
0.0506674
0.0428699
0.0357177
0.0292597
0.0234922
0.0182875
0.0131367
0.00561233
0.0532738
0.0449542
0.0373488
0.0305068
0.0244117
0.0189374
0.0135665
0.00579606
0.0523189
0.0442514
0.0368866
0.0302397
0.0242908
0.0189097
0.0135898
0.00585093
0.0482701
0.0411433
0.0346036
0.0286368
0.0232251
0.0182472
0.0132182
0.00577566
0.0426689
0.0369312
0.0314667
0.0263613
0.0216388
0.0171936
0.0125687
0.0055995
0.039913
0.0345257
0.0294303
0.0247225
0.0203951
0.0163003
0.0119584
0.00524466
0.0458361
0.0391402
0.0329615
0.0273543
0.0222987
0.017632
0.0128345
0.00556359
0.0505322
0.0430049
0.0359835
0.0296162
0.0239251
0.0187562
0.013562
0.00584344
0.0528888
0.0449708
0.0375597
0.0308211
0.0248123
0.0193853
0.0139814
0.00602569
0.0520136
0.0443352
0.0371512
0.0305951
0.0247137
0.0193661
0.014006
0.00608019
0.0482993
0.0414247
0.0349952
0.0290824
0.0237063
0.0187337
0.0136454
0.00600507
0.0429943
0.037387
0.0319722
0.0268859
0.0221692
0.0177033
0.0130017
0.00582543
0.0402284
0.0348711
0.0298396
0.025201
0.0209143
0.01681
0.0123909
0.00547007
0.0461201
0.0394115
0.0332809
0.027758
0.0227708
0.0181186
0.0132588
0.00579144
0.0508043
0.0432317
0.0362353
0.029955
0.0243509
0.0192183
0.013977
0.00607303
0.053173
0.0451799
0.037794
0.0311332
0.0252177
0.0198359
0.0143926
0.00625761
0.0523824
0.0446313
0.0374442
0.0309424
0.0251358
0.0198228
0.014418
0.00631164
0.0487636
0.0418286
0.0353797
0.0295012
0.0241709
0.0192086
0.0140616
0.00623342
0.0435138
0.0378611
0.0324316
0.0273664
0.0226706
0.0181937
0.0134215
0.00604988
0.0405073
0.0352072
0.0302581
0.0256814
0.0214138
0.0172807
0.0127781
0.00567482
0.046346
0.0396468
0.0336055
0.0281728
0.0232326
0.0185709
0.0136382
0.00599747
0.0510721
0.0434333
0.036496
0.0303149
0.0247781
0.0196532
0.0143486
0.00627932
0.0534741
0.0454113
0.0380342
0.0314766
0.0256335
0.0202651
0.0147624
0.0064662
0.0528082
0.0449317
0.0377371
0.0313137
0.0255619
0.0202532
0.0147859
0.00651888
0.0492658
0.0422058
0.0357538
0.029921
0.0246202
0.0196456
0.0144288
0.00643713
0.0440186
0.0382906
0.0328672
0.0278293
0.0231438
0.0186411
0.0137929
0.00625233
0.0407303
0.0355193
0.0306473
0.0261103
0.0218406
0.0176673
0.0130861
0.00584065
0.0464406
0.0398353
0.0339017
0.0285429
0.0236264
0.0189402
0.013937
0.00616222
0.0511709
0.04356
0.0367213
0.0306298
0.0251387
0.0200028
0.0146351
0.00644005
0.0536758
0.0455731
0.0382597
0.0317804
0.025982
0.020605
0.0150414
0.00662504
0.0530616
0.0451528
0.038
0.0316319
0.0259117
0.0205885
0.0150594
0.00667509
0.0495742
0.0424814
0.0360602
0.0302683
0.0249822
0.0199837
0.0147017
0.00659204
0.0443542
0.0386202
0.0332261
0.0282136
0.0235269
0.0189903
0.014072
0.00640878
0.0407787
0.035711
0.030927
0.0264262
0.0221526
0.0179456
0.0133035
0.00596066
0.0462402
0.039858
0.0340762
0.0287971
0.0239033
0.0191988
0.0141431
0.006279
0.0507729
0.0434242
0.0367867
0.0308143
0.0253714
0.0202327
0.0148218
0.00654837
0.0532965
0.0453977
0.0382833
0.0319282
0.026187
0.0208134
0.0152117
0.00672622
0.0527729
0.0450219
0.0380389
0.0317824
0.0261108
0.020788
0.0152209
0.00677242
0.0493558
0.0424383
0.0361601
0.0304522
0.0251965
0.020188
0.0148639
0.00669014
0.0443099
0.0387096
0.0334114
0.0284472
0.0237676
0.0192073
0.0142398
0.00650841
0.040674
0.035772
0.0310826
0.0266231
0.0223556
0.0181306
0.0134484
0.00604278
0.0458417
0.0397304
0.0341189
0.0289282
0.0240683
0.0193621
0.0142759
0.00635721
0.0500753
0.04308
0.03669
0.0308593
0.0254813
0.0203596
0.0149308
0.00661643
0.052387
0.044908
0.0380948
0.031909
0.0262508
0.0209074
0.0152979
0.0067844
0.0519005
0.0445497
0.0378416
0.0317502
0.0261607
0.020868
0.0152952
0.00682559
0.0487247
0.0421306
0.0360611
0.0304686
0.0252669
0.0202741
0.0149382
0.0067434
0.0439809
0.0385895
0.0334201
0.028521
0.0238651
0.0193031
0.0143147
0.00656014
0.0405446
0.0357915
0.0311837
0.0267607
0.0225013
0.0182649
0.0135529
0.00610166
0.0454257
0.0395733
0.0341156
0.0290049
0.0241792
0.0194772
0.0143704
0.00641318
0.0493504
0.0427066
0.0365483
0.0308471
0.0255347
0.020439
0.0150039
0.00666416
0.0514623
0.0443819
0.037843
0.0318226
0.0262536
0.0209523
0.0153487
0.00682321
0.0510072
0.0440294
0.0375853
0.0316492
0.0261448
0.0208947
0.0153314
0.00685817
0.0480893
0.0417648
0.0358839
0.0304035
0.0252637
0.0203006
0.0149691
0.00677308
0.0435949
0.038386
0.0333324
0.0284986
0.0238771
0.0193296
0.0143394
0.00658503
0.0405974
0.0359201
0.0313406
0.0269181
0.022643
0.018381
0.0136342
0.00614405
0.0452712
0.0395833
0.0342061
0.0291255
0.024301
0.0195828
0.0144461
0.0064538
0.0489192
0.0425457
0.0365314
0.0309
0.0256161
0.0205201
0.0150654
0.00669956
0.05084
0.0440866
0.0377301
0.0318155
0.0262932
0.021005
0.0153923
0.00685174
0.0504036
0.0437236
0.0374543
0.0316135
0.0261582
0.0209257
0.0153589
0.0068798
0.0476625
0.0415492
0.0357889
0.0303747
0.0252688
0.0203189
0.0149847
0.00678877
0.0433588
0.0382643
0.0332758
0.028478
0.0238758
0.0193359
0.0143433
0.00659481
0.0409798
0.036258
0.0316164
0.0271269
0.0227893
0.0184736
0.0136818
0.00616423
0.0456031
0.0399038
0.0344804
0.0293374
0.0244497
0.0196759
0.014492
0.00647227
0.0491354
0.0427959
0.0367623
0.0310866
0.0257491
0.0206029
0.0151043
0.00671452
0.0509442
0.0442563
0.0379061
0.0319587
0.0263955
0.0210674
0.015418
0.00686088
0.0504553
0.0438414
0.0375783
0.0317149
0.0262281
0.0209635
0.0153676
0.00688152
0.047743
0.041655
0.035884
0.0304441
0.0253093
0.0203328
0.0149762
0.00678272
0.0434567
0.0383507
0.0333384
0.0285143
0.0238883
0.0193286
0.0143208
0.0065834
0.0416964
0.036782
0.0319652
0.0273322
0.0228898
0.0185057
0.0136741
0.00615867
0.0464362
0.0405239
0.0349
0.0295884
0.0245746
0.0197177
0.0144855
0.00646388
0.0499762
0.0434386
0.0372074
0.0313565
0.0258837
0.0206471
0.0150956
0.0067031
0.0517193
0.0448472
0.0383149
0.032204
0.026512
0.0210982
0.0153998
0.00684412
0.0511401
0.0443486
0.0379175
0.0319073
0.0263066
0.0209679
0.015332
0.00685661
0.0483037
0.0420552
0.0361349
0.0305688
0.0253407
0.0203054
0.0149197
0.00674836
0.0438674
0.038628
0.0334956
0.0285739
0.0238779
0.0192754
0.014249
0.00654304
0.0425572
0.0373146
0.0322373
0.027423
0.0228754
0.0184459
0.0136078
0.00613734
0.0476083
0.0412682
0.0353023
0.0297473
0.0245879
0.0196644
0.0144176
0.00644177
0.0513317
0.044321
0.0377021
0.0315679
0.0259206
0.0206014
0.0150288
0.00668113
0.0530144
0.0457135
0.038806
0.0324145
0.0265468
0.0210489
0.0153294
0.00681953
0.0522483
0.0450835
0.0383222
0.0320636
0.0263072
0.0208969
0.0152467
0.00682374
0.0491666
0.042597
0.036404
0.0306373
0.0252889
0.0202024
0.0148132
0.00670456
0.0444584
0.0389684
0.0336295
0.028561
0.023781
0.0191468
0.0141259
0.00649106
0.0431969
0.0375675
0.0322356
0.0272908
0.0227084
0.0183021
0.0135137
0.00611566
0.0486926
0.0417772
0.0354276
0.0296615
0.0244264
0.0195121
0.0143144
0.00641938
0.0527771
0.0450543
0.0379521
0.0315382
0.0257772
0.0204526
0.0149269
0.00666339
0.0545453
0.0465174
0.0391004
0.0324033
0.0264085
0.0208992
0.0152259
0.00680281
0.0535718
0.0457512
0.0385366
0.0320093
0.026144
0.0207323
0.0151331
0.00680106
0.0500942
0.0430133
0.0364703
0.0305051
0.0250861
0.020014
0.0146813
0.00666962
0.0449679
0.0391319
0.033556
0.0283612
0.0235484
0.0189426
0.0139812
0.00644586
0.0396294
0.0335321
0.0280138
0.0231022
0.0187306
0.0147435
0.0107132
0.00472078
0.0446623
0.0369064
0.0302228
0.024507
0.0195838
0.0152222
0.0109529
0.00479092
0.0481714
0.0392545
0.0316964
0.0253833
0.0200743
0.0154658
0.0110513
0.00482518
0.0487823
0.0395246
0.0317286
0.0253079
0.0199813
0.0154071
0.0110591
0.00478896
0.0460271
0.0373538
0.0301066
0.0241441
0.0191708
0.0148534
0.010679
0.00463991
0.0408439
0.0334964
0.0273943
0.0223038
0.017964
0.0140954
0.0102301
0.00446836
0.0347423
0.0292688
0.0245078
0.0203676
0.0167001
0.0133037
0.00976438
0.004307
0.0410247
0.0348679
0.0293016
0.0243107
0.0198148
0.0156567
0.0114045
0.00505481
0.0462306
0.03841
0.0316608
0.0258534
0.0207878
0.0162369
0.0117227
0.00514298
0.0496814
0.0408557
0.0332436
0.0268366
0.0213682
0.016543
0.0118541
0.00519243
0.0502713
0.0411345
0.0333154
0.0268179
0.0213323
0.0165308
0.0118957
0.00516876
0.0474975
0.0389074
0.0316863
0.025668
0.0205434
0.016003
0.0115473
0.00502627
0.0422231
0.0350155
0.0289606
0.0238074
0.019312
0.0152253
0.0110838
0.00485653
0.0362193
0.0308155
0.0260449
0.0218055
0.0179698
0.0143581
0.0105543
0.00467484
0.0418024
0.0358467
0.0303419
0.0253095
0.0207117
0.016415
0.0119809
0.00533367
0.0468372
0.0393541
0.032757
0.0269452
0.0217839
0.0170874
0.0123764
0.00544687
0.0502602
0.0417787
0.0343829
0.0280044
0.0224404
0.017455
0.0125487
0.00550293
0.0507028
0.0420269
0.0344888
0.028041
0.0224544
0.0174766
0.012607
0.00549083
0.047902
0.0398681
0.0329211
0.0269358
0.0217013
0.0169826
0.0122947
0.00536206
0.0429579
0.0361789
0.0302757
0.0250895
0.0204607
0.0161893
0.0118207
0.00519224
0.0373425
0.0321259
0.0273728
0.0230415
0.0190549
0.0152597
0.011235
0.00499314
0.0422212
0.0365055
0.0310906
0.026055
0.0214086
0.0170317
0.0124712
0.0055768
0.0469753
0.0398949
0.0335057
0.0277464
0.0225557
0.0177829
0.0129365
0.00571832
0.0501262
0.0421829
0.0351182
0.0288462
0.0232678
0.0182081
0.0131632
0.00578097
0.0505367
0.0424316
0.0352627
0.0289342
0.0233267
0.0182574
0.0132275
0.00577879
0.0479178
0.0404669
0.0338169
0.0279029
0.022621
0.0177958
0.0129394
0.00566204
0.0434712
0.0370565
0.0312942
0.0261012
0.0213898
0.0169944
0.0124489
0.00548741
0.0381964
0.0331481
0.0284182
0.0240272
0.0199396
0.0160183
0.0118257
0.00527328
0.042586
0.0370206
0.0316617
0.0266415
0.0219888
0.0175791
0.0129304
0.00581216
0.0470948
0.0403376
0.0340969
0.0283926
0.0232108
0.018404
0.0134601
0.00598553
0.0499283
0.0425197
0.0357065
0.0295301
0.0239762
0.0188899
0.0137499
0.00606602
0.0502964
0.0427934
0.0359026
0.0296711
0.024079
0.0189693
0.0138183
0.00606601
0.0480675
0.0410374
0.0345714
0.0287077
0.023413
0.0185276
0.0135381
0.00595454
0.044025
0.0378274
0.0321366
0.026942
0.022189
0.0177141
0.0130295
0.0057707
0.03896
0.0339922
0.029269
0.024849
0.0207063
0.0167005
0.0123713
0.00553965
0.0431642
0.0375605
0.0321892
0.0271818
0.0225369
0.0181035
0.0133738
0.00604315
0.0477323
0.0409696
0.0347145
0.0290219
0.0238435
0.019001
0.0139646
0.00624405