/*--------------------------------*- C++ -*----------------------------------*\
| =========                 |                                                 |
| \\      /  F ield         | OpenFOAM: The Open Source CFD Toolbox           |
|  \\    /   O peration     | Version:  plus.master                           |
|   \\  /    A nd           | Web:      www.OpenFOAM.com                      |
|    \\/     M anipulation  |                                                 |
\*---------------------------------------------------------------------------*/
FoamFile
{
    version     2.0;
    format      ascii;
    class       vectorField;
    location    "13.8/lagrangian/kinematicCloud";
    object      U;
}
// * * * * * * * * * * * * * * * * * * * * * * * * * * * * * * * * * * * * * //


96597
(
(0.000531281 -0.00216003 0.000171674)
(-0.000421795 0.000128895 -0.000113805)
(-0.000108607 6.77646e-07 -0.00236823)
(-4.36947e-05 0.000606513 0.000190728)
(-0.000248751 -7.93997e-05 -0.00160543)
(9.90542e-05 0.000303039 0.00039532)
(-0.000279069 0.000310786 -0.00115925)
(-0.000551149 -0.00165282 0.000164823)
(-0.000778042 -0.000650925 -0.00217918)
(-0.00019423 8.435e-05 0.000456303)
(-0.000455001 -8.96782e-05 0.000270687)
(-0.00064266 -8.35112e-06 -0.000851801)
(-0.00592411 -0.000276254 -6.59726e-05)
(-0.000523899 0.000192249 0.000183801)
(-0.000244735 8.69775e-06 0.000288521)
(0.000310441 -0.000994778 -0.00290785)
(-0.000893422 -0.000299983 -0.00129096)
(0.000145148 0.000176763 0.000412001)
(-0.000757447 0.000149373 -0.00105845)
(-0.00033876 -4.40589e-05 -0.00134462)
(1.46391e-06 -0.00010255 0.00361446)
(-4.17853e-05 0.000346419 0.00303102)
(0.000131006 0.00031541 -0.00106086)
(0.000384883 0.000403367 -0.000715392)
(-0.000547365 0.000160251 -0.00275757)
(0.000211947 0.000276037 -0.000795985)
(-0.000224166 0.000174605 -0.00482822)
(-2.24826e-05 0.000623378 0.00108876)
(0.000124433 0.000349799 -5.93329e-05)
(-0.000289148 -2.68154e-05 0.000464505)
(0.000262083 -0.000455387 -0.00308581)
(-0.00041129 0.000119389 0.000202889)
(3.78664e-05 -6.42616e-05 0.00213219)
(0.000119801 -0.000197811 0.00146867)
(-0.000276114 -0.000278946 -0.00104292)
(-0.000609806 1.11026e-05 0.00260823)
(-0.000116901 -4.72647e-05 -0.00107208)
(-6.80414e-05 5.0687e-05 0.0003811)
(0.000467253 0.00011953 0.000413052)
(-3.22703e-05 -3.04934e-05 -0.00273083)
(-0.000558526 0.000371818 0.000306327)
(-7.94922e-05 0.000478103 0.000264751)
(-7.02091e-07 -9.75069e-06 0.00524104)
(0.000367731 -0.000100032 -0.00110338)
(5.22471e-06 -0.000763217 0.000154378)
(-0.000378961 2.18383e-05 -0.000693504)
(-8.47117e-05 3.74455e-05 -0.00543853)
(6.10165e-05 -0.000901513 -0.000798997)
(-5.54237e-05 0.000345733 0.00034592)
(0.000130638 -0.000483763 -0.00084229)
(-0.000486146 0.000124543 0.000161498)
(0.000216033 -0.000582149 -0.000175747)
(-0.000825735 -3.08035e-06 -0.00107949)
(-0.000221404 0.00018181 0.000181899)
(-0.000349767 0.000113701 0.00173075)
(-0.000740862 -0.000608949 -0.00157845)
(-0.000646377 -5.28229e-05 0.000209765)
(-0.000104455 -0.000244804 -0.00287242)
(-3.51966e-05 -0.000455159 -0.000822703)
(-0.000414441 -0.000155135 -0.000196069)
(-0.000446999 5.89512e-05 0.000446616)
(-0.000524635 0.000157131 -0.000815744)
(-0.000625959 -3.87976e-05 0.000471385)
(-3.52809e-05 -0.000713886 -0.00363832)
(-0.000916487 0.000386024 -0.00202247)
(0.0001166 0.000385034 0.00038836)
(-1.18302e-05 0.000493859 -0.000226321)
(0.00379935 0.014095 -0.000908575)
(-0.00128782 0.000120319 -0.00364011)
(-0.000317434 4.79595e-05 -0.0010797)
(-0.000776939 -4.98607e-05 0.000587019)
(-0.000562479 -4.0845e-05 -3.11873e-05)
(-0.000544544 -0.000278203 0.000367082)
(-0.000570622 -0.000470955 -0.000213822)
(-0.000278686 -0.000199619 0.0004105)
(-0.000467069 0.000238456 0.0014348)
(-6.20224e-05 8.69259e-06 -0.00432061)
(-0.000740281 0.00426932 0.00115799)
(-0.000323365 -0.000124151 0.000151352)
(-0.000427355 0.000187759 0.000579864)
(-0.000291785 -0.000209863 0.000354933)
(0.000114966 0.000157841 0.00112505)
(0.000735577 -0.000287642 0.000284786)
(-0.000679477 -5.98978e-05 -0.00138354)
(-0.000454575 0.000408227 -0.000607919)
(-0.00017434 -7.2939e-05 -0.00218325)
(-0.000809456 -8.55251e-05 0.000267502)
(-6.15381e-05 1.25205e-05 -0.00143208)
(-0.00766434 -0.000812378 0.000300744)
(0.00049143 -4.34245e-05 -0.00406534)
(-0.000814652 -0.000332957 -0.000302148)
(-0.00121839 0.0141631 0.000267539)
(-0.000591169 0.00039096 0.000278139)
(-9.01403e-05 0.000882391 -0.00185932)
(-3.77205e-05 7.90738e-05 -0.00209696)
(7.80304e-06 3.92533e-05 -0.00734125)
(-0.0005189 5.82778e-05 0.000276754)
(-4.82506e-05 -5.77235e-05 0.000381177)
(0.000571968 0.000211659 -0.00145077)
(-0.000325176 0.000492921 -0.00145545)
(0.000105681 -3.66291e-05 0.000356325)
(-0.000559556 1.02921e-05 0.000256448)
(-0.000456758 -1.14304e-06 -0.00498842)
(-0.00088529 0.000236471 0.00194979)
(-0.00066148 -0.000488815 -0.00128354)
(0.000578911 -0.000181895 -0.000822606)
(-6.53651e-05 4.40066e-05 -0.000243254)
(1.15714e-05 -0.000665581 0.000274606)
(-0.000238851 -0.000138957 -0.00376034)
(-5.00676e-05 -0.000190932 0.00137349)
(0.000112305 -2.24957e-05 0.000244141)
(-0.000623058 -1.40925e-05 0.000269621)
(-0.000282569 0.000218452 -0.00102452)
(-0.000587299 -5.34688e-05 0.000214575)
(-0.000458712 6.47397e-05 0.000229373)
(-0.000447882 0.000685555 -6.17672e-05)
(-0.000468394 -0.000404915 -0.00229827)
(0.000124658 0.000427907 -0.000805234)
(0.000158332 -0.000195351 -0.000821569)
(-0.000524147 0.000798528 0.000232556)
(-0.000459342 1.26709e-05 -0.000295408)
(-7.56599e-05 0.000546044 0.000281586)
(-0.000542772 0.000102158 0.000276714)
(9.18219e-05 0.000283371 0.000180154)
(-0.000276778 0.000430767 -0.00133974)
(0.000160885 -2.54332e-05 0.00282158)
(-0.000227045 0.000132901 -0.00294776)
(-0.000129233 -0.000182804 0.00265602)
(-0.000389361 -0.0001514 0.000256827)
(-0.00038187 1.97874e-05 2.74079e-05)
(-0.00050807 0.000140556 0.000257318)
(-0.000477468 7.69829e-05 2.19905e-05)
(-0.00046557 -0.000238702 0.000218167)
(-0.000539568 -0.000248338 0.000230989)
(-0.00103132 0.000409111 0.000253439)
(-2.33778e-05 0.000593141 -0.00162608)
(-0.000449632 -0.000106177 0.00135853)
(-0.000813136 -2.68134e-05 -0.00105557)
(-8.27643e-05 5.36315e-05 0.00027729)
(-9.89281e-06 -0.000408824 0.000243459)
(1.45718e-05 -0.000114828 0.00479281)
(-0.000172296 0.000198836 -0.00060734)
(0.000450523 0.000474043 -7.6265e-05)
(-0.000181312 0.00010489 -0.00127834)
(-0.000642898 -4.51549e-05 0.000291084)
(0.000513135 0.000470014 -0.000397017)
(0.000316647 -0.000105383 0.00150599)
(-0.000624803 0.000515439 0.000422504)
(0.000206513 0.00059321 -0.00143286)
(-0.000433544 0.000203573 -0.00204297)
(-0.00033058 -0.000267213 0.000181814)
(-0.000136946 -0.000109088 -0.00294702)
(-0.00034024 -0.0003851 -0.00201142)
(-0.000602348 -0.000306155 -0.0018302)
(-0.000244127 -6.58619e-05 0.00396119)
(0.00318289 -0.00197001 -0.00113099)
(-0.000405571 0.000313014 0.000299976)
(0.000206959 0.000459149 -0.00215384)
(-0.000353128 3.85678e-05 0.00082743)
(-0.000682523 -0.00148819 -0.00140192)
(-0.000197802 0.000278697 0.000279791)
(-0.000456246 0.000307551 0.000244073)
(-8.83202e-06 -0.00100864 -0.00438824)
(-0.000746069 0.001337 -0.000948443)
(0.00341307 0.00828587 -0.000759889)
(0.000154476 6.07933e-06 0.000428237)
(4.40851e-08 0.00822009 -0.000528672)
(-0.000160658 0.000309333 -0.00510636)
(-0.00152261 0.00128441 0.000191308)
(-0.000643581 0.000200005 0.00677598)
(-4.63545e-05 0.00249441 1.21018e-05)
(0.000140287 -8.83298e-05 -0.00155866)
(-0.00040217 0.000100407 -0.000894748)
(0.000397469 -0.000417675 -0.000228972)
(0.000266592 -0.000731201 -0.00217819)
(-0.000352915 0.000386429 0.000269879)
(-0.000164643 0.000585129 -0.00129798)
(-0.0008421 1.58857e-05 -0.00257828)
(0.000180245 0.000113459 0.00320586)
(1.61341e-06 1.29794e-05 -0.00473323)
(0.00203817 -0.000200622 -0.000832181)
(0.000461523 -0.000140638 0.000194309)
(0.000754718 -0.000241994 0.000228802)
(0.000677806 0.000769887 -0.000662387)
(-2.13504e-05 -7.53747e-05 -0.00142266)
(-0.000350505 0.000363574 0.00388842)
(-0.000162221 -0.00013163 -0.00495688)
(-0.000185761 5.73601e-05 -0.00143203)
(3.68556e-05 7.19485e-05 0.00032726)
(-0.000446442 0.000125427 0.000359594)
(-0.000362592 0.000361497 -0.00469124)
(-0.000465307 -6.3432e-05 0.000281766)
(-8.20875e-05 -3.19341e-05 -0.0036534)
(-0.000218997 6.03978e-05 -0.00515521)
(0.00027917 0.000115603 -0.00097198)
(-0.000288237 0.000427533 -0.00255861)
(-8.40128e-05 -0.000621448 -0.00217335)
(0.00068492 -0.000239652 -0.00118154)
(-0.000431967 -0.000198458 0.000341946)
(-0.000524438 -0.000449836 0.000427014)
(-0.000561998 -3.07687e-05 0.000356571)
(-5.17369e-05 -0.000122132 0.00032528)
(-0.000652405 -0.000280189 -0.000838937)
(-0.000100413 2.04863e-05 0.00635076)
(-6.18655e-06 0.000745109 0.000275984)
(-0.000379246 -0.000554257 -0.0036341)
(-9.09012e-05 3.6101e-05 -0.00424334)
(-5.85578e-05 2.06791e-05 0.000505215)
(0.000161604 0.000470432 0.001171)
(0.000210642 0.000361842 0.000356339)
(-0.000117946 2.1145e-05 0.00261153)
(-0.000153909 -0.000143617 -0.00427981)
(-0.000532089 8.20849e-06 0.00163131)
(0.000129058 0.000376789 0.00021385)
(-6.70869e-05 8.30442e-06 -0.00433186)
(0.000546377 -0.000452893 -0.00358459)
(0.000296136 8.985e-05 0.000230361)
(0.000272565 0.000472956 0.000250745)
(-0.000333295 0.00016156 -0.00138939)
(4.09713e-05 -1.86093e-06 0.000263675)
(-5.73624e-05 -0.000253705 0.00390665)
(0.000210609 0.000423719 0.0018523)
(-0.000491679 0.00144048 -0.00303127)
(-0.000513715 0.000113732 0.000204702)
(1.00189e-05 -5.38468e-05 0.00342603)
(-0.000168565 5.57773e-05 -0.00142182)
(-8.77976e-05 0.000170472 0.000100044)
(0.000232837 0.000399727 0.000271253)
(-0.000321759 -0.000361947 0.00426513)
(-3.32246e-06 -9.9487e-05 0.00075901)
(-0.000436749 0.00012253 -0.000867345)
(-0.000388271 -4.00183e-05 0.000252821)
(-6.43592e-05 -0.000143015 -0.000403734)
(9.50057e-05 -0.00206178 -8.76701e-07)
(0.00188323 -0.000751888 -0.000412121)
(0.00217548 0.00113547 0.000107929)
(-0.000406246 0.000381699 0.00138436)
(0.000260319 -0.000535569 -0.00257707)
(-0.000869564 -4.42296e-05 0.00171221)
(-0.000423111 6.90535e-05 0.00388876)
(-0.000803636 -0.00028199 0.000321257)
(-0.000672595 -0.000242403 0.000143506)
(-0.00010629 0.000398063 -0.00150365)
(0.000253819 -0.00037203 0.000281539)
(-2.07983e-05 0.000551985 0.000331803)
(-3.54776e-05 -0.00034691 -0.000207022)
(-0.000379872 0.000319979 0.00167709)
(-1.85063e-05 -0.000290299 0.000109896)
(-0.000736454 0.000661748 0.00298)
(-0.000487604 0.00015722 0.00038996)
(0.0016969 -0.000692542 0.000158711)
(-3.19188e-05 0.000153377 -0.00281367)
(-9.19961e-05 0.000978234 0.00016989)
(7.52009e-05 -0.00087702 0.000277673)
(-5.52441e-05 0.000103613 0.000320018)
(0.000229253 -0.000193008 0.000284149)
(0.000136564 -0.000463009 -0.000215031)
(-0.000398019 0.000262295 -0.000906054)
(-0.000849719 9.14452e-06 -0.001122)
(0.000419265 -0.000320483 0.000275419)
(0.000154173 4.76456e-07 0.000238026)
(0.000570462 0.000302138 -0.00341369)
(0.000385945 0.000412993 -9.67549e-05)
(-0.000430381 0.000198987 -0.00100392)
(-0.000326119 -0.000607889 -0.000578037)
(-6.58936e-05 3.5117e-05 -0.00149014)
(0.00180442 -0.00201006 0.000207581)
(-0.000653581 0.000220611 -0.00179487)
(-6.52842e-05 -3.03694e-05 0.00186688)
(2.67606e-05 -6.3494e-05 -0.00314756)
(-8.80556e-05 0.000372085 0.000282487)
(-0.00029529 1.6698e-05 0.00178494)
(0.00132611 0.00131776 0.0028379)
(-0.00548952 0.00291421 -0.00726728)
(-0.000364628 -7.61931e-05 -0.000117928)
(-0.000551899 0.000639817 0.000232784)
(-4.64821e-05 0.000220332 0.000254176)
(-0.000517457 8.77406e-05 0.000664116)
(0.000299433 -7.35975e-05 -2.44451e-05)
(-0.000255144 0.000428805 -0.0047892)
(-0.000678875 -0.000593779 0.000285612)
(-0.000140665 -3.27527e-05 -0.000600187)
(-0.000517757 -0.000454684 -0.00113401)
(-6.23398e-05 -0.000327743 0.000314123)
(0.000196109 -0.00109609 -0.002587)
(0.000560643 -0.000219131 0.000388342)
(0.00333612 0.0109347 0.000562807)
(-0.000721664 -0.000177527 0.000376537)
(-0.000487997 -1.87925e-06 0.000254427)
(-0.000152704 -0.000120131 0.000588838)
(-0.000560835 -4.10117e-05 0.000343823)
(0.000261986 -0.000159959 0.00026736)
(-0.000212481 -3.3428e-05 0.000440428)
(-5.97209e-05 2.16414e-05 0.000158671)
(0.000277645 -0.000170208 -0.00186582)
(-0.00037738 0.000170513 0.000288574)
(-0.000497241 4.87196e-05 -0.00230297)
(-0.000238887 0.000204218 -0.000828013)
(-0.000386838 1.76912e-05 0.000122224)
(7.4179e-05 0.000458932 -0.000514288)
(-0.000336273 9.80524e-06 -0.00197512)
(0.000252129 0.000495853 0.000266618)
(-0.000492635 -0.000414909 -0.00144189)
(0.00141008 -0.00178087 -0.000300133)
(0.000634293 -0.000228298 0.000297205)
(9.02877e-05 0.000300047 -0.000270783)
(-4.14085e-05 0.000415998 0.000274325)
(-0.000650634 -6.90848e-05 -4.80503e-06)
(-0.000584713 -1.66591e-05 0.000265182)
(0.000141043 0.000472071 -0.00167307)
(1.92341e-06 0.000320716 -0.000839996)
(-0.000103538 0.000149946 0.00186564)
(-1.43456e-05 0.000205682 -0.0027745)
(-0.00067764 -0.000572258 -0.000809543)
(-0.000624179 0.000289198 -0.00211752)
(-0.000445903 7.44298e-05 -0.0013682)
(-0.000611364 -0.000504878 0.000271069)
(0.000346235 0.000270464 0.000738853)
(0.000384466 0.000226146 0.00024809)
(-0.000539376 0.000838975 0.000269873)
(0.000565439 -0.000212357 -0.00151331)
(-0.00062835 -0.000101924 0.000242412)
(9.77231e-05 -0.000211282 0.00708812)
(-4.41514e-05 0.000725878 -0.00108876)
(-9.76145e-05 -0.00172213 -0.00340291)
(0.00188576 0.000615629 2.85246e-05)
(-0.000380892 -0.000141612 0.000244764)
(-0.000190253 5.09373e-05 -0.00249229)
(-0.000206665 0.000344778 -0.00109576)
(0.000190088 0.000111164 -0.000846243)
(0.000120072 0.000181206 0.00339523)
(-0.00010827 5.33429e-05 0.00305103)
(-0.000623475 -4.0823e-05 0.000223928)
(0.000144788 -0.000103402 0.000304705)
(0.000282368 5.2009e-05 0.000323195)
(-0.000304933 -0.00135813 -0.003137)
(0.00120783 -0.0018228 -0.000771578)
(-2.483e-05 -0.000431778 -0.00083341)
(-0.000848576 -0.000401539 -0.00182274)
(-0.000660556 -0.000564587 0.000269997)
(7.21065e-05 -0.000354819 0.000237076)
(-0.000497181 6.01518e-05 0.000248817)
(-0.000310377 0.000346536 -0.0018167)
(-0.000952757 5.9025e-05 -0.00311384)
(-0.0006263 -0.000490135 -0.00100969)
(-0.0144498 -0.00387736 -0.00117362)
(0.000728967 -0.000262166 0.000248842)
(0.000298933 4.12006e-05 0.000231764)
(0.000135577 0.000385612 0.000250648)
(-0.000815292 -0.00040595 0.000265939)
(-0.000371318 0.000106409 0.000224623)
(-0.00029498 -9.25174e-05 -0.00419334)
(-2.73429e-05 0.000511356 -0.00083382)
(-3.30911e-05 -0.000127556 0.000385476)
(-0.000212423 7.63087e-06 -5.20923e-05)
(-2.06473e-05 -0.000387438 0.000425268)
(-0.00173107 0.0019801 0.00275882)
(-0.000148081 0.000225049 0.000255041)
(-0.000668456 2.87254e-05 0.000247911)
(-8.62373e-05 -1.50562e-05 -0.000110685)
(-0.000245884 0.000202097 -0.00193751)
(-1.76452e-05 0.000442517 -0.00432067)
(0.000134301 -0.000523483 0.00026978)
(-0.000328071 2.10578e-05 -0.00142505)
(-0.000136775 0.00022463 0.000146691)
(9.27774e-05 -8.40585e-05 -0.000112215)
(4.27848e-05 0.000104139 0.000638323)
(-5.04019e-05 0.000320647 0.000157838)
(-8.43613e-05 -4.0089e-05 0.000294613)
(-6.53582e-05 -0.000452854 0.000288014)
(-0.00027539 0.000309348 0.000269423)
(4.48489e-06 0.000222262 -0.00477793)
(-0.000390531 1.26849e-05 5.14736e-07)
(-1.90024e-05 2.03488e-05 0.000335506)
(5.26184e-06 0.000198423 0.00186584)
(-0.000702567 -0.000572453 -0.000839949)
(0.000414132 -8.45808e-05 0.00193911)
(-0.000749972 0.000179074 0.000264535)
(-0.000422206 6.61304e-05 0.000376178)
(-0.000571582 0.000387864 0.000290356)
(-0.000397145 0.000442907 -0.00126344)
(8.71044e-05 -9.24184e-05 -0.0022162)
(0.0003471 -1.55295e-05 0.000328279)
(-0.000250466 0.000139008 0.00541181)
(-0.000263543 0.000669494 0.000331234)
(0.000123208 0.000350096 -0.00138295)
(-0.000552282 2.58758e-05 0.000296175)
(2.71302e-06 -0.00026493 -0.00264874)
(-0.000395583 0.000288751 0.000179597)
(-9.32794e-05 0.000235714 0.000258241)
(-9.68525e-05 0.000171511 0.000352725)
(-0.000725497 -1.20555e-05 0.000251824)
(-0.000667364 -0.000517236 -0.000472576)
(-3.33276e-05 -0.000361746 0.000244645)
(-0.000158579 0.000226533 -0.00157662)
(0.000156408 0.000431709 0.000264419)
(0.000768911 -1.44059e-05 -0.00302585)
(-6.56834e-05 -4.10072e-05 0.00254038)
(0.00014337 0.000416908 0.000353975)
(-2.40724e-05 0.000776386 0.000290963)
(-0.000244065 3.91226e-05 -0.00309688)
(-0.000597851 0.000183852 0.000299852)
(0.000120413 -3.3907e-05 0.000176578)
(-0.00063565 -0.00322519 -0.000900524)
(-0.000107432 -0.000100691 -0.00230221)
(0.000435733 0.000247527 -0.00186007)
(-0.000410141 0.00031383 -0.00471783)
(-3.29669e-05 0.000121195 -0.00230447)
(-0.00073337 2.43335e-05 -0.000500377)
(-2.16661e-05 -8.40435e-05 0.000359856)
(0.000173872 -0.000140258 -0.000721508)
(0.000543336 -9.48338e-05 -0.00102298)
(-5.41996e-05 -5.36151e-05 0.000226778)
(0.000297237 -8.57007e-05 0.00191419)
(0.000334042 6.95778e-05 -0.00207299)
(-7.24376e-05 -0.000146907 0.00187347)
(0.000416845 0.000444948 0.000272133)
(0.000325743 -0.000192564 -0.00235706)
(-0.000515528 0.000257649 -0.00223764)
(-0.000178153 9.67118e-05 0.000571985)
(0.000131665 -0.000585086 -0.00233)
(-0.000165288 7.27757e-05 -0.00383093)
(-5.56586e-05 0.000617442 0.000306577)
(-0.00119039 0.00027499 0.000361974)
(-0.000183377 0.000266798 0.000164479)
(-0.000650636 -7.23266e-05 -0.000186169)
(0.00193927 -0.00101162 0.000161435)
(-0.000549122 -5.59558e-06 0.000417278)
(0.000312899 0.0006215 0.00150788)
(0.000102367 0.000329909 0.000379951)
(-0.000112449 -6.02118e-05 0.00282009)
(-0.000291092 -8.56235e-05 -0.000785096)
(-0.000203149 9.9682e-05 0.000323144)
(0.000135782 9.51302e-05 0.000146903)
(0.000174047 -0.000181814 -0.000999872)
(-0.000127307 -0.000112223 0.000272984)
(3.68418e-05 -7.11742e-06 -0.00179494)
(0.000767152 -0.00028948 0.00262818)
(-1.59457e-05 -4.15595e-05 -0.00138724)
(6.52056e-05 7.96214e-05 0.000271356)
(-0.00011057 0.000669005 -0.0028046)
(0.00025349 -0.000468588 0.00403603)
(-0.000504693 0.000797227 0.000253581)
(-0.000390336 0.000194646 0.000251327)
(0.00053786 0.000566862 0.000297052)
(-0.000138815 0.000609237 -0.00266574)
(0.000232674 0.000464047 0.00264287)
(-0.000432916 0.000112658 0.00437717)
(0.000401495 -0.000132914 0.000264946)
(-0.000842701 -8.05052e-06 -0.00112548)
(-0.000671709 0.00138624 -0.00184341)
(-0.000579583 2.21082e-05 0.000289088)
(0.000315538 -0.000366872 -0.00591334)
(-0.000479801 0.000196828 0.000384146)
(-0.000537597 6.38218e-05 0.00681036)
(-0.00035256 0.000416485 0.000239211)
(-0.000321263 -0.000232682 0.000198639)
(-0.000385964 6.20482e-05 0.000284035)
(-0.000622581 0.00221305 -7.5359e-05)
(-0.000590858 -0.000307131 0.000275735)
(-0.000325004 -0.000173058 -0.00306594)
(-0.000597222 -1.6672e-05 0.000264554)
(-0.00250914 -0.000587954 -0.0017253)
(-0.000293735 0.000309665 0.000231713)
(-0.000330367 0.000142222 -0.00291529)
(-0.000392939 6.12053e-05 0.000275006)
(0.000144266 0.000472867 -0.000875962)
(-0.000494815 5.73564e-05 0.00133164)
(-0.000304575 -1.28932e-05 -0.00820996)
(0.000117047 0.000320248 -2.64123e-06)
(6.87616e-05 0.000489986 0.00284515)
(-9.58393e-05 0.000215275 0.000370995)
(0.000171034 -0.000137563 -0.00587882)
(-0.000163006 0.000297441 -0.00466132)
(9.47305e-05 1.37486e-05 -0.000662043)
(5.18337e-05 -0.000186523 -0.00102367)
(-0.000348345 -0.000121208 0.000333935)
(0.000127419 0.000374032 -0.00430385)
(-4.82805e-05 4.56182e-06 0.00280356)
(-0.000267116 -0.000264987 -0.000908304)
(-0.000395638 -0.000275005 -0.00705888)
(3.14131e-05 -7.08558e-05 0.000298541)
(0.000439476 -0.000117821 0.000373934)
(-0.000709975 8.86026e-05 -0.00101269)
(-0.000517243 5.5515e-05 0.00011708)
(-3.92998e-05 -2.29657e-05 0.000123297)
(-0.000320347 0.000156856 0.000259355)
(-0.000315897 1.90678e-05 4.00866e-05)
(-0.000165852 -0.000251332 0.00214026)
(3.94948e-05 -0.000124841 -0.00301673)
(-0.000475598 -0.000369329 0.000342266)
(-3.30096e-05 -0.000324224 -0.00103067)
(0.000265124 0.000332247 0.00046063)
(6.50534e-05 0.000128151 0.00259394)
(-0.000705554 0.000155955 -0.000116915)
(-0.000277079 0.000408993 -3.99621e-07)
(4.6231e-05 0.000310266 0.000292321)
(6.51222e-05 -0.000818952 0.00024072)
(-0.000444539 0.000127681 0.000266493)
(-9.45803e-05 0.00217761 3.32855e-05)
(-0.000550059 -2.37817e-06 0.000320288)
(-0.000725605 0.00111661 0.00120213)
(-0.000235413 8.57899e-06 0.000266163)
(0.000117564 0.000416726 0.000257262)
(-0.00128254 0.000311616 -0.000826874)
(0.000305686 -0.00036366 0.000120051)
(-0.000585485 0.000165939 -0.00265725)
(-0.000134029 -7.2222e-05 -0.00306507)
(-7.97547e-05 2.37336e-05 -0.00483401)
(-0.000352196 -0.000171751 -0.000839136)
(0.000167443 -0.000159406 -0.00195384)
(0.000194875 -0.000110584 -0.00593974)
(0.000213947 -0.000333416 -0.00389728)
(8.26548e-05 -4.02103e-05 -0.000253061)
(0.000493092 0.000514794 -0.00163829)
(-8.29648e-05 -4.49272e-05 0.000181589)
(-0.000326291 0.000158242 0.000289505)
(-1.2545e-05 0.0004716 -0.00101791)
(0.00316535 0.000535707 -0.000539622)
(-1.07153e-05 -3.57309e-05 0.000416441)
(0.000202907 -5.11968e-05 -0.000874854)
(-0.000119113 0.000871983 0.000239874)
(-0.000472004 1.45476e-05 0.000384088)
(-0.000521903 2.35224e-05 0.000275527)
(-0.000208999 7.90821e-06 0.000391896)
(-0.000421556 0.000107305 0.000225392)
(-0.00068534 -4.45454e-05 -0.001492)
(-4.85086e-05 -0.000232307 0.000344591)
(-0.000176314 7.37748e-06 -9.96082e-05)
(-0.000550458 -0.000214348 0.000296289)
(-4.73873e-05 -1.38968e-05 0.00024678)
(-6.8205e-05 0.000483529 0.000276409)
(0.000136002 0.000437877 0.00290577)
(-0.000638992 -2.73653e-05 0.00215509)
(-0.000646698 0.000198711 -0.00114409)
(-0.000173302 0.000353635 0.00373905)
(7.81501e-05 -3.51624e-05 0.00396984)
(0.000178768 -0.000143978 -0.00270136)
(0.000160317 0.000205259 0.00141123)
(-1.22979e-05 0.000259375 -0.000929903)
(-0.000306289 0.000228797 0.0037867)
(-0.00036716 9.498e-05 -0.000147529)
(2.51813e-06 0.000743714 0.00208411)
(-5.57028e-06 0.000169285 -0.00264624)
(-0.000975182 6.69146e-05 0.00069405)
(-0.000619417 -0.00028954 -0.00104411)
(-0.000996759 0.00178677 0.000854643)
(1.35222e-05 -5.0048e-06 -0.000609064)
(-8.67401e-05 -0.000271892 -0.00156511)
(-7.8385e-05 0.000312372 0.000185651)
(-1.98256e-05 0.000586779 -0.000805561)
(6.04635e-05 5.04083e-05 0.000292202)
(0.000546252 0.000668524 -0.00114461)
(-4.25572e-05 -0.000647856 0.000279234)
(0.000182521 -0.000124344 0.00275953)
(-0.000110317 -0.00312299 -0.00435167)
(-0.000520143 2.18009e-05 0.000267)
(-6.8514e-05 4.91391e-05 0.00025259)
(-0.00349459 0.00054249 -0.00300337)
(-0.000267363 0.000242267 0.000274959)
(0.00029748 0.00030624 -0.000794967)
(0.000117248 0.000384392 0.000400516)
(-0.000347585 0.000513081 -0.00427232)
(-0.000227923 9.0853e-06 0.000278633)
(9.19705e-05 0.000237987 -8.84169e-05)
(-0.000319796 0.000294757 0.000285315)
(-1.42453e-05 -8.4129e-05 -0.00214272)
(9.2065e-05 0.000337884 4.55568e-05)
(0.000194828 -0.00116894 -0.00289233)
(-0.000396144 -0.000812413 -0.00209671)
(-0.000795603 -0.000679353 0.00118124)
(0.000410576 -0.000113614 -0.000799008)
(0.000542825 0.000608465 -0.000266736)
(0.000679419 -0.000294542 0.000144198)
(-7.1784e-05 -0.000414038 0.000229312)
(0.000168829 0.000492623 -0.00274067)
(-0.000457897 -0.000214225 0.000246512)
(-8.00538e-05 9.94656e-06 0.000273714)
(-0.000648114 1.35907e-05 -0.000105346)
(4.6009e-05 0.000306933 0.000430527)
(0.000737752 -0.000219432 0.000288682)
(-0.000264946 0.000123846 -0.00437461)
(-9.98789e-05 0.000418132 0.000213998)
(-0.000392869 0.00672953 0.000101598)
(0.000302084 0.000187561 0.000384783)
(-5.05043e-05 0.000326358 0.000266232)
(-0.000649171 8.51006e-05 0.000163089)
(-0.000139886 -0.000168112 -0.00243215)
(-6.96183e-06 -7.1709e-05 0.000198396)
(0.000196068 -5.3042e-05 0.00136003)
(0.000344275 0.000241406 0.000624638)
(-0.000582403 3.95125e-05 0.000340658)
(-0.00046714 0.000619595 0.000195007)
(-0.000662754 -0.000214082 -0.00258905)
(-0.00108568 0.000658139 -0.00160804)
(-0.00127639 0.0002855 0.000228681)
(-3.07032e-05 0.00077458 -0.00304967)
(0.000366889 0.00026816 -0.00195257)
(0.00016861 9.47617e-05 0.00154095)
(-0.000677277 -0.000571771 -0.00083652)
(0.000304685 4.82796e-06 0.000278616)
(0.000682887 -0.00118794 0.000594444)
(-0.000157592 -0.000411337 0.000316187)
(-0.000615866 -0.000220388 0.000283432)
(-0.00226274 -5.49798e-05 -0.00113073)
(-0.000248369 0.000274316 0.000365339)
(0.000716759 0.000248313 -0.00314216)
(4.73103e-05 -0.00012084 -0.000905194)
(-0.000341351 0.00028942 0.0038837)
(-0.000172353 0.000362701 -0.00333185)
(-8.08677e-05 4.09658e-05 0.000260796)
(0.000259687 0.000423593 -0.00136432)
(-9.09509e-05 6.7261e-06 0.000635462)
(-0.000575134 0.000896755 -0.00182936)
(-0.000290785 0.000269789 0.000158099)
(-2.59772e-05 -2.42269e-05 8.33263e-05)
(-0.000225819 -0.000173957 0.00305059)
(0.000137918 7.32363e-05 0.000281663)
(-0.00549557 -0.000827409 -0.00197627)
(-0.000508003 0.000150729 -0.00353785)
(4.28553e-05 0.000297937 0.000400126)
(-0.000197915 8.04598e-05 0.00531306)
(-3.41981e-05 6.02159e-05 4.45048e-05)
(-0.000129505 0.0004212 0.000253175)
(-0.00041465 -0.000157886 7.7023e-05)
(-0.000629349 -0.000173031 0.00256445)
(-0.000817143 0.00018777 0.00547321)
(-0.000471405 0.000117543 -0.000804594)
(-7.4971e-05 -3.37754e-05 0.000239196)
(0.000201413 0.000126229 -0.000947683)
(8.46465e-05 -0.000315818 -0.00214222)
(8.46786e-05 -4.39486e-05 0.0001444)
(-0.000214926 0.000697495 0.00263904)
(0.000202231 -6.59816e-05 0.000245372)
(-0.000264509 -0.000492332 -0.00522456)
(-0.000538945 -5.93707e-05 -0.00146513)
(-0.000762274 1.60818e-06 -2.4829e-05)
(-0.000404306 -6.23627e-05 0.00499079)
(-8.69833e-06 -4.78602e-05 0.000272576)
(0.000138832 -0.000439244 0.000166419)
(-3.82638e-05 -3.02361e-05 -0.00461259)
(-0.000427339 -0.000110664 -0.00558719)
(-0.0001737 0.000224738 0.0037682)
(-0.000590972 -0.000304982 0.000273258)
(-0.000289006 0.000308778 0.000304351)
(2.06284e-05 -0.000853391 0.000246105)
(-0.000242637 0.00035724 -0.000747099)
(0.000179362 -5.21159e-05 -0.00115738)
(1.05517e-05 0.000141806 -0.00031549)
(-0.00159004 0.00122978 0.00571783)
(0.000234702 -0.000482445 -0.00525878)
(-0.00025813 8.41789e-05 -0.00148459)
(0.000389381 -0.000294953 0.000157636)
(-0.000729218 2.62795e-05 -0.00360239)
(7.91407e-05 -7.56615e-05 0.000156803)
(6.78245e-06 -0.00037912 -0.00202442)
(-0.000663277 -4.90105e-05 0.000267847)
(-0.00064697 -5.71767e-06 0.00135552)
(-0.000722909 -5.82816e-05 0.000249569)
(-0.000550283 2.39802e-05 -0.00218525)
(-7.03575e-05 -0.000368542 0.000656124)
(-8.55359e-05 -0.000313605 -0.00118353)
(-0.000291421 0.00016588 -0.00191816)
(0.000663802 -0.000244452 0.000332217)
(-0.000284364 0.000120796 0.000255235)
(0.000642279 -0.000202655 0.000190163)
(-0.00026791 9.92695e-06 -0.000187371)
(-1.15354e-05 -0.000114952 0.00740878)
(-0.000393328 0.000872221 -0.00146343)
(-0.000423952 -5.83247e-05 -0.000849981)
(-0.00108789 0.000238366 -0.000964223)
(-0.000732036 -5.4079e-05 -0.00373042)
(-9.92569e-05 5.79624e-05 -0.00118899)
(-0.000229073 0.000171512 -0.00387379)
(-0.000455033 -8.14427e-05 0.000257388)
(-2.68472e-05 0.000711025 -0.00267821)
(6.26348e-05 0.000489693 0.00209964)
(0.0012642 -0.000765751 -0.000471188)
(-0.00076393 -3.36556e-05 0.000300281)
(-8.22658e-05 5.0091e-06 -0.0040427)
(-0.000238483 -0.000200873 0.000250794)
(-0.000430779 -0.000163316 -0.000114502)
(-0.000213708 0.000316278 0.00251531)
(0.000102704 0.000385539 0.000255519)
(-0.000433762 0.00040576 0.00294498)
(-0.000380352 0.000130197 0.00032838)
(-0.000538721 2.22208e-05 0.000333791)
(-9.55949e-05 -3.01242e-05 -0.00351147)
(-0.000255387 0.000103649 -0.00561666)
(-0.000361752 0.000407725 -0.00443832)
(-0.000474087 0.000164858 0.0018118)
(-2.48811e-05 0.000800315 0.00023545)
(0.000162392 -0.000112939 0.0025481)
(-0.000398808 0.000215521 0.00247923)
(-0.000424144 -0.000210587 -0.00249593)
(-0.000203992 0.000169116 0.000264949)
(-0.000256479 0.000306979 0.000196397)
(-0.000864681 0.00148285 -0.00195715)
(0.000114934 0.000128408 0.00349902)
(-0.000480634 2.10273e-05 0.0025686)
(-0.000299631 -0.00140012 0.00189915)
(3.92312e-05 -0.000121572 -0.000587685)
(-0.000341019 -0.000134918 -0.00308269)
(-5.90796e-05 0.000290713 -0.0016085)
(-0.000134067 0.000395674 -0.000971088)
(-1.33098e-05 0.000135303 -0.00455657)
(-0.000612777 0.000186713 0.000365242)
(-0.000385716 0.000332003 -0.0063974)
(-0.000646152 0.000230735 0.000422941)
(-0.000811405 -0.000261116 0.00232925)
(0.000165493 0.00044895 0.00208364)
(6.03151e-05 2.41393e-05 0.000301814)
(0.000237251 0.00062445 -0.00161189)
(-0.000535667 0.000135732 0.00028815)
(0.000146748 -8.3595e-05 0.00147359)
(-0.000576348 -0.000119392 -0.00125787)
(0.000189442 0.000375 0.000931458)
(-0.000245308 0.000907677 0.000180719)
(-9.21392e-05 6.87518e-05 0.00340929)
(-8.26981e-05 5.56643e-05 -0.00081153)
(-0.000586279 1.04053e-05 0.000268891)
(-0.000200575 -0.000143725 -0.000734354)
(-2.80274e-05 -0.000363611 0.000274327)
(0.000166303 0.000157252 0.00235354)
(-0.000519712 0.000344329 -0.00147262)
(-0.000283005 0.000407914 0.000255811)
(-0.000577373 0.000191619 -0.00254859)
(-0.00023587 -0.000264376 -0.00280568)
(-0.000119243 1.60573e-05 -0.00124824)
(-0.000567121 2.34223e-05 0.000308879)
(-0.000154455 0.00032948 -8.49797e-05)
(-8.54493e-05 4.26909e-05 0.000260495)
(-8.03139e-05 0.00305815 -0.000868425)
(-0.000234859 -0.000570321 0.00117272)
(1.84074e-05 0.00038306 0.000272733)
(-0.000472473 -5.60109e-05 0.000264928)
(-0.000764935 -0.000224357 1.1691e-05)
(-0.000486145 0.000759959 0.000261036)
(0.000553051 -2.06433e-05 -0.000414218)
(-0.000336725 -8.1572e-05 0.000229552)
(0.000611894 0.000656868 0.00118684)
(-0.000349396 5.75699e-05 -6.22808e-05)
(-0.000756241 -2.52042e-05 0.000240293)
(3.21691e-05 0.000251277 -0.00223421)
(-0.00142052 -0.000621087 -6.78078e-05)
(0.000142805 -5.4954e-05 0.00188282)
(5.55101e-06 -0.000410621 -0.00389298)
(-0.000667108 -0.000575089 0.000265314)
(-0.00135976 -0.00914769 0.00240968)
(-0.000400965 0.000480931 -0.00445258)
(-0.000408728 -0.000208874 0.000754977)
(-8.48278e-05 0.000468938 -0.000870919)
(-0.000117173 -0.000106294 0.000198569)
(-0.000155282 6.74344e-06 0.000447565)