/*--------------------------------*- C++ -*----------------------------------*\
| =========                 |                                                 |
| \\      /  F ield         | OpenFOAM: The Open Source CFD Toolbox           |
|  \\    /   O peration     | Version:  plus.master                           |
|   \\  /    A nd           | Web:      www.OpenFOAM.com                      |
|    \\/     M anipulation  |                                                 |
\*---------------------------------------------------------------------------*/
FoamFile
{
    version     2.0;
    format      ascii;
    class       vectorField;
    location    "13.8/lagrangian/kinematicCloud";
    object      UCorrect;
}
// * * * * * * * * * * * * * * * * * * * * * * * * * * * * * * * * * * * * * //


96597
(
(0.000609357 0.00392179 4.35943e-05)
(7.7512e-05 -9.59837e-05 3.64446e-05)
(1.46609e-07 7.14746e-06 3.70532e-05)
(-8.68055e-06 3.29304e-05 4.14396e-05)
(3.05354e-05 -5.71002e-05 0.000443108)
(-2.85441e-05 -4.11097e-05 4.20617e-05)
(5.3775e-05 -5.6558e-05 4.13955e-05)
(-0.000267482 -0.000272007 4.45403e-05)
(1.34443e-05 -3.53144e-05 3.82991e-05)
(2.97452e-06 5.95027e-06 3.4952e-05)
(2.93682e-05 3.12998e-05 3.88887e-05)
(8.44794e-05 5.66104e-05 3.72841e-05)
(0.000759201 -0.000125793 5.9628e-05)
(8.8228e-05 0.000137482 4.14825e-05)
(6.56683e-05 8.40153e-17 3.71029e-05)
(-6.37661e-05 7.57998e-05 0.000654769)
(-0.000409062 -2.11504e-05 5.02849e-05)
(-7.5684e-05 3.72631e-05 0.000980696)
(8.96493e-05 0.000121775 3.98121e-05)
(1.88553e-05 7.1367e-06 3.46944e-05)
(-9.15713e-05 9.75928e-05 0.000916648)
(8.43493e-13 4.32455e-05 3.84777e-05)
(-6.37741e-05 -3.0712e-05 3.41728e-05)
(1.24314e-05 7.44672e-06 4.51313e-05)
(7.7512e-05 -9.59837e-05 3.99665e-05)
(8.70073e-06 -7.62183e-06 3.124e-05)
(-0.000121428 0.000126056 0.000943443)
(-2.53203e-12 0.000106856 3.98459e-05)
(-6.37741e-05 -3.0712e-05 4.11568e-05)
(7.02243e-05 -9.89621e-05 4.04952e-05)
(-9.16941e-05 0.000104503 0.000946121)
(7.94702e-05 -3.91429e-05 4.28839e-05)
(-0.000100268 5.10929e-05 0.00104895)
(-8.30876e-05 5.19601e-05 0.000968507)
(-3.5545e-05 6.29509e-05 4.01528e-05)
(8.44794e-05 5.66104e-05 3.78974e-05)
(1.47212e-06 -6.08575e-06 3.68134e-05)
(-2.07832e-07 1.56718e-05 4.00812e-05)
(5.1279e-05 0.00012227 7.13011e-05)
(-1.21698e-05 1.30943e-06 3.58963e-05)
(-2.46461e-05 -1.38151e-05 3.44224e-05)
(-5.40226e-05 -6.77731e-05 4.30267e-05)
(0.000152776 0.000106132 0.00104477)
(-5.77516e-05 2.78117e-05 4.06604e-05)
(-4.0532e-05 6.95989e-05 4.55561e-05)
(9.3243e-05 -0.000109677 4.06984e-05)
(8.43493e-13 1.01845e-05 0.000909203)
(-0.000267482 -0.000272007 5.38236e-05)
(-5.40226e-05 -6.77731e-05 3.71883e-05)
(-6.10372e-05 5.20909e-05 4.34426e-05)
(7.51831e-05 -4.17272e-05 3.91375e-05)
(-5.36022e-05 5.3369e-05 4.25706e-05)
(6.9996e-05 -0.000197583 3.79153e-05)
(-3.57215e-06 -1.29401e-05 3.85529e-05)
(0.000155901 -5.74193e-05 4.08638e-05)
(1.34443e-05 -3.53144e-05 3.52807e-05)
(7.30904e-05 8.36071e-05 4.09292e-05)
(9.42665e-05 -7.92397e-06 0.000244252)
(-3.81628e-05 6.59835e-05 4.06314e-05)
(-1.50861e-06 9.5199e-07 3.54685e-05)
(4.89287e-05 -4.01051e-05 4.0476e-05)
(7.94702e-05 -3.91429e-05 4.09769e-05)
(6.78262e-05 4.88845e-05 3.97242e-05)
(-4.0532e-05 6.95989e-05 4.21339e-05)
(0.000804579 5.27495e-05 6.44127e-05)
(-6.37741e-05 -3.0712e-05 4.43639e-05)
(-2.53203e-12 0.000106856 4.38791e-05)
(0.0021668 -0.00180941 0.00160397)
(-0.000155885 -2.37279e-08 0.000922915)
(4.89287e-05 -4.01051e-05 3.47293e-05)
(6.9996e-05 -0.000197583 4.04547e-05)
(7.30904e-05 8.36071e-05 4.28685e-05)
(2.29683e-05 1.60796e-05 4.23051e-05)
(1.34443e-05 -3.53144e-05 3.49744e-05)
(0.000154413 0.000105637 4.30316e-05)
(9.6421e-05 -7.96884e-05 3.81131e-05)
(8.5941e-05 -6.53998e-17 0.000799602)
(-8.93876e-05 0.000256375 5.08909e-05)
(0.000123195 9.70444e-05 4.36252e-05)
(-3.86523e-05 0.000281882 4.18712e-05)
(-3.5545e-05 6.29509e-05 3.52703e-05)
(2.24267e-05 -1.59951e-05 3.57961e-05)
(-2.24082e-06 8.06453e-07 4.3416e-05)
(8.60088e-05 0.000117131 4.07197e-05)
(-5.76379e-06 0.000183953 3.72013e-05)
(0.000123529 9.99622e-05 0.00102746)
(0.000100379 -0.000176304 4.42713e-05)
(1.46609e-07 7.14746e-06 3.72471e-05)
(0.00537911 -0.000545972 4.37417e-05)
(-0.000136564 3.1791e-05 0.000861992)
(-0.000306301 0.000200959 4.5688e-05)
(-0.000246374 -0.00552627 4.32135e-05)
(-2.46461e-05 -1.38151e-05 3.40273e-05)
(-9.60901e-05 0.000108437 1.9604e-05)
(0.000166908 -7.13757e-05 0.00104737)
(-6.5184e-05 -0.00012461 0.00089765)
(0.000133218 7.35446e-05 4.29457e-05)
(-2.08077e-05 1.04156e-06 3.47402e-05)
(4.03825e-05 1.63286e-05 2.6833e-05)
(0.000217942 0.00019286 5.8205e-05)
(4.60558e-05 -8.99344e-07 3.87191e-05)
(2.35709e-05 0.000138418 4.17695e-05)
(4.64188e-05 8.40153e-17 0.000926957)
(-0.000212448 1.9421e-05 0.000978297)
(0.000419879 -0.00021237 4.79398e-05)
(-2.74457e-05 2.92646e-05 4.59118e-05)
(-2.07832e-07 1.56718e-05 3.72523e-05)
(-4.0532e-05 6.95989e-05 4.3078e-05)
(6.47495e-05 -7.43899e-05 2.79417e-07)
(-4.83598e-05 2.95465e-05 3.90719e-05)
(-3.02441e-05 5.50617e-05 4.19078e-05)
(7.27766e-05 -0.000113315 4.25301e-05)
(-3.51396e-06 -2.78108e-05 4.08641e-05)
(7.97572e-05 4.54911e-05 4.18845e-05)
(2.32219e-05 0.000136547 4.26195e-05)
(4.57319e-06 5.14787e-05 4.0304e-05)
(0.000171724 0.00012992 0.00107229)
(-5.38085e-05 -2.59129e-05 4.08056e-05)
(0.000399832 -0.0001303 0.00107425)
(4.57319e-06 5.14787e-05 3.97082e-05)
(6.72104e-05 6.05873e-11 4.16065e-05)
(-8.68055e-06 3.29304e-05 4.07106e-05)
(9.04811e-05 -0.000118575 4.32646e-05)
(-2.85441e-05 -4.11097e-05 4.2866e-05)
(0.000304354 0.000156427 4.77102e-05)
(-0.000112891 1.52127e-05 0.000932331)
(8.5033e-05 0.000101294 0.00095177)
(8.43493e-13 1.07394e-05 0.000909203)
(0.000123195 9.70444e-05 4.2341e-05)
(9.93683e-05 1.49858e-06 3.83669e-05)
(7.7512e-05 -9.59837e-05 4.10372e-05)
(2.32219e-05 0.000136547 4.36002e-05)
(2.29683e-05 1.60796e-05 3.75537e-05)
(-1.39348e-05 -1.06437e-06 3.25506e-05)
(7.79766e-05 0.000203989 4.34851e-05)
(-2.53203e-12 0.000106856 4.0946e-05)
(9.43412e-05 8.1253e-05 3.93394e-05)
(7.19061e-05 -0.000219719 0.00109288)
(-2.07832e-07 1.56718e-05 3.68565e-05)
(-3.81628e-05 6.59835e-05 3.85634e-05)
(-7.95813e-05 9.92178e-05 0.000868085)
(0.000210588 0.000105733 0.00105706)
(1.24314e-05 7.44672e-06 4.38252e-05)
(0.000179969 0.000244546 5.4255e-05)
(6.9996e-05 -0.000197583 3.91274e-05)
(-1.85459e-05 -0.000131777 0.00095953)
(1.27775e-05 -6.11837e-07 2.73191e-05)
(-4.54698e-05 0.000290811 4.37302e-05)
(-6.37741e-05 -3.0712e-05 4.03905e-05)
(8.28492e-05 -8.19971e-05 3.83098e-05)
(0.000155524 -0.000346973 4.52279e-05)
(0.000147323 8.23827e-05 0.000994062)
(0.0006812 -0.000167503 5.43048e-05)
(2.29683e-05 1.60796e-05 3.7478e-05)
(6.47589e-05 -7.87512e-05 0.000950828)
(-0.000104568 -0.000122143 0.0010071)
(-2.18329e-05 -2.22811e-05 3.42692e-05)
(-6.37741e-05 -3.0712e-05 3.75644e-05)
(0.000151707 3.1828e-06 4.23847e-05)
(-0.000267482 -0.000272007 4.78587e-05)
(-3.74942e-06 1.13682e-05 3.37508e-05)
(-2.18329e-05 -2.22811e-05 3.50778e-05)
(-7.00242e-05 6.25901e-05 0.00102736)
(0.000188311 0.000745077 5.15174e-05)
(0.0021664 -0.00180929 0.00160397)
(4.60558e-05 -8.99344e-07 4.04983e-05)
(0.000374045 -0.00126655 6.61101e-05)
(1.52339e-05 -2.68839e-06 0.000870215)
(-5.85066e-05 0.000634666 4.67022e-05)
(6.5181e-05 -7.93217e-05 0.000950828)
(0.000374045 -0.00126655 6.44547e-05)
(-6.25101e-05 3.09189e-05 3.83118e-05)
(7.51831e-05 -4.17272e-05 4.08538e-05)
(0.00344341 3.45658e-05 4.05707e-05)
(-5.36022e-05 5.3369e-05 3.95511e-05)
(-9.47377e-05 -0.000142708 4.7381e-05)
(0.000217942 0.00019286 5.84519e-05)
(-0.000152069 -1.50571e-07 0.000968472)
(-4.49329e-06 -6.30406e-05 0.000741345)
(0.000155685 -4.8409e-05 0.000999718)
(-0.00395501 -0.000144259 5.73347e-05)
(-5.77516e-05 2.78117e-05 3.69564e-05)
(-2.24082e-06 8.06453e-07 4.25378e-05)
(1.24314e-05 7.44672e-06 4.40951e-05)
(3.58226e-07 -1.38411e-05 3.48566e-05)
(6.30003e-05 0.000108717 0.000845906)
(0.000147278 8.24086e-05 0.000994062)
(5.13252e-07 -3.6375e-05 3.72677e-05)
(-3.7433e-05 -6.07691e-05 3.54067e-05)
(7.7512e-05 -9.59837e-05 4.01437e-05)
(6.30257e-05 0.000108737 0.000845906)
(1.88553e-05 7.1367e-06 3.37248e-05)
(0.000123444 9.99879e-05 0.00102746)
(2.34341e-05 3.39207e-05 0.000647871)
(-3.38815e-05 -0.000155912 4.20978e-05)
(-4.05407e-05 -0.000280728 0.00109887)
(7.46976e-12 -3.20678e-05 3.81316e-05)
(8.49951e-05 0.000101238 0.00095177)
(4.60487e-05 -6.74454e-05 3.7643e-05)
(1.34443e-05 -3.53144e-05 3.74827e-05)
(7.97572e-05 4.54911e-05 4.51634e-05)
(4.65589e-07 2.31918e-05 3.66198e-05)
(7.11263e-05 -9.76061e-05 3.40709e-05)
(-9.4748e-05 0.000101449 0.000946121)
(-2.25051e-05 -1.96508e-05 4.10111e-05)
(0.000165976 -7.30203e-05 0.00104737)
(0.000148397 -7.06598e-05 0.00102182)
(1.46609e-07 7.14746e-06 3.76291e-05)
(-2.85441e-05 -4.11097e-05 4.18972e-05)
(1.97508e-05 1.43027e-06 3.91195e-05)
(6.79015e-05 -8.5892e-05 0.000983794)
(0.00014708 8.25207e-05 0.000994062)
(4.50365e-05 -3.82308e-05 0.000869546)
(-6.37741e-05 -3.0712e-05 4.16416e-05)
(8.60495e-05 -6.53998e-17 0.000799602)
(-7.83097e-05 5.24759e-05 0.000970405)
(-2.36917e-05 -0.000173111 3.64219e-05)
(1.47887e-05 3.76733e-05 2.73848e-05)
(9.6421e-05 -7.96884e-05 3.96394e-05)
(4.60558e-05 -8.99344e-07 3.83305e-05)
(2.51576e-05 1.94378e-05 0.00082908)
(-4.65401e-05 -9.58839e-05 4.05122e-05)
(-0.000155263 1.0595e-05 4.9156e-05)
(9.04811e-05 -0.000118575 4.10047e-05)
(-0.000100321 5.11168e-05 0.00104895)
(0.000217942 0.00019286 6.41641e-05)
(8.43493e-13 4.32455e-05 3.81696e-05)
(1.97508e-05 1.43027e-06 3.48711e-05)
(0.000172194 0.000131665 0.00107229)
(-7.75851e-05 8.59853e-05 0.000921866)
(0.000178644 -6.45594e-05 4.32403e-05)
(7.02243e-05 -9.89621e-05 4.45155e-05)
(-3.89031e-11 -3.58541e-05 3.76015e-05)
(0.000374045 -0.00126655 6.10277e-05)
(-0.00440086 -0.000417794 4.24677e-05)
(-0.00387106 0.000164839 4.74993e-05)
(5.35669e-05 -6.98889e-05 4.40005e-05)
(-8.15525e-05 0.000108164 0.000894563)
(6.9996e-05 -0.000197583 4.07424e-05)
(6.35513e-05 -1.7426e-05 0.000850028)
(-0.000306301 0.000200959 4.40424e-05)
(-2.35628e-05 2.49273e-05 3.29879e-05)
(-5.40226e-05 -6.77731e-05 4.28651e-05)
(-7.45457e-06 2.09974e-05 2.93151e-05)
(-2.53203e-12 0.000106856 4.10672e-05)
(-3.81628e-05 6.59835e-05 4.05176e-05)
(6.29573e-05 0.000108682 0.000845906)
(-3.81628e-05 6.59835e-05 3.9055e-05)
(-0.000152976 6.68792e-07 0.000982776)
(8.96493e-05 0.000121775 4.06997e-05)
(-0.00440086 -0.000417794 4.51896e-05)
(-2.1834e-05 -1.15167e-05 0.000671514)
(-0.00011738 -4.11916e-05 4.12473e-05)
(-6.0463e-05 4.27361e-05 4.56135e-05)
(1.02997e-07 -1.24638e-06 3.94231e-05)
(-9.64929e-05 5.66526e-05 4.27636e-05)
(-5.36022e-05 5.3369e-05 4.65102e-05)
(4.0484e-05 -4.92015e-05 4.45266e-05)
(4.48772e-05 -0.000154381 4.31228e-05)
(-4.08571e-05 2.42865e-05 4.67461e-05)
(-3.38815e-05 -0.000155912 4.35727e-05)
(-1.57672e-05 0.000120168 4.45973e-05)
(1.24314e-05 7.44672e-06 4.30309e-05)
(6.56683e-05 8.40153e-17 3.69052e-05)
(0.000419879 -0.00021237 4.40577e-05)
(-2.07832e-07 1.56718e-05 3.58997e-05)
(0.000608604 0.00367692 5.61199e-05)
(6.85211e-05 0.000124452 3.97729e-05)
(-8.43529e-05 0.000105363 0.000894563)
(-0.000115015 8.10197e-05 0.000977513)
(-3.2616e-05 -2.55368e-05 3.36218e-05)
(9.93683e-05 1.49858e-06 3.84561e-05)
(-0.00346375 -0.000695002 4.03711e-05)
(0.000814584 9.92387e-05 6.64153e-05)
(9.43412e-05 8.1253e-05 4.22118e-05)
(5.08361e-05 -2.85219e-05 4.37617e-05)
(-1.71921e-05 -1.68944e-05 3.48308e-05)
(0.000264054 -5.32125e-06 4.79658e-05)
(-5.77516e-05 2.78117e-05 3.86826e-05)
(1.46989e-05 -9.38198e-06 0.000857175)
(1.34443e-05 -3.53144e-05 4.38583e-05)
(0.000144155 -6.113e-05 0.000999718)
(1.34443e-05 -3.53144e-05 4.05268e-05)
(-3.81628e-05 6.59835e-05 4.5877e-05)
(-5.94235e-05 6.02604e-05 0.00096045)
(-2.24082e-06 8.06453e-07 4.46665e-05)
(0.00216071 -0.00180757 0.00160397)
(-0.000223949 -1.01128e-05 4.33284e-05)
(6.35377e-05 4.5696e-05 3.40248e-05)
(0.000147228 8.24364e-05 0.000994062)
(8.46569e-05 0.000109284 3.72545e-05)
(-7.12537e-06 -1.1424e-05 3.3036e-05)
(0.000123195 9.70444e-05 4.47283e-05)
(1.46609e-07 7.14746e-06 3.67762e-05)
(-7.12537e-06 -1.1424e-05 3.45015e-05)
(8.28492e-05 -8.19971e-05 3.74724e-05)
(-0.000141129 0.000450912 5.55706e-05)
(-3.64477e-05 -0.000143834 3.95819e-05)
(5.02046e-05 -0.0001866 4.93004e-05)
(-4.7158e-05 -2.83197e-05 4.13438e-05)
(0.000904867 -0.000189627 0.00115554)
(-4.65401e-05 -9.58839e-05 3.5594e-05)
(-4.53976e-05 6.25353e-05 4.27083e-05)
(0.000608604 0.00367692 4.70721e-05)
(-2.24082e-06 8.06453e-07 4.39837e-05)
(-5.38085e-05 -2.59129e-05 3.5766e-05)
(-5.02561e-05 -6.38745e-05 3.91897e-05)
(8.60088e-05 0.000117131 3.78264e-05)
(4.48772e-05 -0.000154381 4.11253e-05)
(-5.38085e-05 -2.59129e-05 4.02523e-05)
(-5.02561e-05 -6.38745e-05 3.83417e-05)
(8.43493e-13 4.32455e-05 3.40232e-05)
(5.94572e-05 3.72022e-05 0.00093402)
(1.34443e-05 -3.53144e-05 3.8684e-05)
(-6.7601e-05 -0.000115275 0.00102815)
(0.000264054 -5.32125e-06 4.63564e-05)
(1.34443e-05 -3.53144e-05 3.40394e-05)
(2.2908e-05 1.82221e-06 2.34547e-05)
(-1.86889e-06 -0.000148454 3.75138e-05)
(4.57319e-06 5.14787e-05 4.31485e-05)
(-2.24082e-06 8.06453e-07 4.2268e-05)
(0.000113516 -0.000165586 4.46093e-05)
(-9.30502e-05 9.61138e-05 0.000916648)
(-5.79906e-05 -1.84836e-05 4.54203e-05)
(-0.000186109 -0.000179939 0.000998621)
(-0.00407652 0.0003415 4.11709e-05)
(0.000123195 9.70444e-05 4.26819e-05)
(4.0505e-05 -1.09611e-06 0.000948629)
(-0.000158812 -1.45655e-05 4.39342e-05)
(-2.12211e-05 0.000125387 2.278e-05)
(-7.57405e-05 3.72903e-05 0.000980696)
(8.43493e-13 4.32455e-05 3.61007e-05)
(6.78262e-05 4.88845e-05 3.81576e-05)
(-6.25101e-05 3.09189e-05 3.81161e-05)
(-2.36917e-05 -0.000173111 3.89504e-05)
(0.000734932 0.000821754 5.05142e-05)
(0.000608604 0.00367692 5.35568e-05)
(-4.0532e-05 6.95989e-05 3.96709e-05)
(-0.00036754 0.000134393 4.17988e-05)
(1.34443e-05 -3.53144e-05 3.99159e-05)
(-7.63447e-06 9.10238e-06 3.32716e-05)
(-0.00015578 4.21918e-05 1.1011e-05)
(5.3775e-05 -5.6558e-05 4.13039e-05)
(-4.05407e-05 -0.000278285 0.00109887)
(0.000419879 -0.00021237 5.03257e-05)
(0.00134253 -0.00164426 0.00159823)
(-2.24082e-06 8.06453e-07 3.89956e-05)
(-2.36917e-05 -0.000173111 4.03383e-05)
(-5.79906e-05 -1.84836e-05 4.12995e-05)
(0.000179608 -0.000283146 4.74886e-05)
(0.000150973 -6.39678e-05 3.54342e-05)
(6.17131e-05 9.23776e-06 0.000838727)
(-5.02561e-05 -6.38745e-05 4.04016e-05)
(4.65589e-07 2.31918e-05 3.85834e-05)
(6.56683e-05 8.40153e-17 3.84577e-05)
(-3.81628e-05 6.59835e-05 3.80327e-05)
(-0.000240422 0.000125678 0.000741345)
(1.15591e-17 6.69374e-05 3.95302e-05)
(3.39371e-05 2.89924e-06 3.65569e-05)
(0.000290208 -0.000100738 4.89652e-05)
(-3.57215e-06 -1.29401e-05 3.86761e-05)
(0.000425604 0.000189123 0.00108955)
(-6.10372e-05 5.20909e-05 4.46162e-05)
(9.93683e-05 1.49858e-06 4.71955e-05)
(1.15591e-17 6.69374e-05 4.40332e-05)
(-8.4896e-05 0.00010482 0.000894563)
(5.57622e-05 4.40835e-06 3.99392e-05)
(-5.02561e-05 -6.38745e-05 4.18036e-05)
(-2.08077e-05 1.04156e-06 4.02279e-05)
(-4.0532e-05 6.95989e-05 4.19677e-05)
(0.000304354 0.000156427 4.47966e-05)
(5.94691e-05 3.73077e-05 0.00093402)
(7.02243e-05 -9.89621e-05 3.78362e-05)
(-6.68253e-06 4.80249e-06 3.69854e-05)
(-5.02561e-05 -6.38745e-05 3.80235e-05)
(1.34443e-05 -3.53144e-05 3.64195e-05)
(6.45218e-05 4.30465e-05 4.69421e-05)
(8.60088e-05 0.000117131 4.33383e-05)
(0.000133218 7.35446e-05 4.29975e-05)
(-2.46461e-05 -1.38151e-05 3.40634e-05)
(5.3775e-05 -5.6558e-05 4.25922e-05)
(-7.94424e-05 9.93568e-05 0.000868085)
(8.42812e-06 -2.17046e-05 3.34745e-05)
(8.49942e-05 0.000101236 0.00095177)
(-2.9649e-05 -3.11613e-05 4.38965e-05)
(-2.85441e-05 -4.11097e-05 3.66338e-05)
(8.58651e-05 8.8411e-05 4.07535e-05)
(-7.63447e-06 9.10238e-06 3.55831e-05)
(-7.09298e-06 -5.20402e-06 3.3765e-05)
(-5.02561e-05 -6.38745e-05 4.13881e-05)
(1.15591e-17 6.69374e-05 4.16578e-05)
(8.46569e-05 0.000109284 4.38362e-05)
(5.83076e-05 8.796e-06 4.17774e-05)
(-3.81628e-05 6.59835e-05 4.00984e-05)
(-8.60668e-05 3.2837e-05 5.55196e-05)
(-6.37741e-05 -3.0712e-05 3.99348e-05)
(-5.77516e-05 2.78117e-05 3.8673e-05)
(0.000151151 -1.15868e-06 0.0010336)
(-6.37741e-05 -3.0712e-05 4.089e-05)
(-2.25051e-05 -1.96508e-05 4.37737e-05)
(9.58347e-05 -2.69936e-05 0.000915383)
(8.96493e-05 0.000121775 4.13361e-05)
(4.60558e-05 -8.99344e-07 3.99164e-05)
(0.000734932 0.000821754 4.78375e-05)
(0.00014722 8.24413e-05 0.000994062)
(-1.86889e-06 -0.000148454 4.22549e-05)
(0.000103763 0.000112045 0.000881264)
(3.99296e-05 -1.09611e-06 0.000948629)
(-4.05407e-05 -0.000568635 5.46898e-05)
(3.58226e-07 -1.38411e-05 3.75412e-05)
(-7.46849e-05 8.88855e-05 0.000921866)
(-0.000112874 1.53902e-05 0.000932331)
(-2.08077e-05 1.04156e-06 3.8535e-05)
(-5.77516e-05 2.78117e-05 4.20677e-05)
(2.24267e-05 -1.59951e-05 4.29494e-05)
(-3.89031e-11 -3.58541e-05 3.57882e-05)
(1.24314e-05 7.44672e-06 4.21425e-05)
(-7.12537e-06 -1.1424e-05 3.45937e-05)
(9.6421e-05 -7.96884e-05 3.86666e-05)
(-2.39709e-05 -1.36964e-10 0.000912331)
(-6.24958e-05 6.12619e-05 4.62863e-05)
(0.000106598 -3.10365e-05 0.000973201)
(-2.9649e-05 -3.11613e-05 3.79463e-05)
(-0.000306246 -0.000343773 5.06156e-05)
(-3.74942e-06 1.13682e-05 3.83244e-05)
(7.97572e-05 4.54911e-05 3.88265e-05)
(-0.00378449 -0.000304716 4.62426e-05)
(8.46569e-05 0.000109284 4.29292e-05)
(-4.65401e-05 -9.58839e-05 4.10035e-05)
(-5.38085e-05 -2.59129e-05 3.64386e-05)
(-2.08077e-05 1.04156e-06 3.80691e-05)
(9.51715e-05 8.29771e-05 0.000969363)
(1.30684e-05 -2.43217e-05 3.72938e-05)
(-2.94877e-05 4.56087e-05 4.30439e-05)
(-3.98829e-05 -0.000160698 0.00089765)
(1.47212e-06 -6.08575e-06 3.59192e-05)
(0.000152773 0.000106133 0.00104477)
(-2.24082e-06 8.06453e-07 4.74322e-05)
(-1.21698e-05 1.30943e-06 3.86486e-05)
(-0.000196237 1.56737e-05 4.68608e-05)
(1.54232e-05 -5.40929e-06 2.88775e-05)
(-7.4716e-05 8.88545e-05 0.000921866)
(4.57319e-06 5.14787e-05 4.63502e-05)
(9.6421e-05 -7.96884e-05 3.70774e-05)
(1.24314e-05 7.44672e-06 4.6816e-05)
(3.09069e-05 -0.00012402 0.000244252)
(-4.65401e-05 -9.58839e-05 4.25423e-05)
(-4.26915e-06 4.41377e-05 0.00074887)
(6.45218e-05 4.30465e-05 4.51266e-05)
(4.48772e-05 -0.000154381 4.44814e-05)
(-0.000725738 -4.99096e-05 5.99203e-05)
(8.58651e-05 8.8411e-05 3.94236e-05)
(-8.2829e-05 9.59702e-05 0.000868085)
(2.09935e-08 0.00012097 4.09455e-05)
(0.000107037 6.77674e-05 0.000977511)
(-9.47377e-05 -0.000142708 4.73855e-05)
(0.000154413 0.000105637 4.07444e-05)
(6.35377e-05 4.5696e-05 3.65399e-05)
(-8.93876e-05 0.000256375 4.88621e-05)
(2.29683e-05 1.60796e-05 4.32088e-05)
(0.000146796 0.000214284 0.00110932)
(8.58651e-05 8.8411e-05 3.56689e-05)
(0.000759201 -0.000125793 5.24356e-05)
(6.49512e-05 -6.31998e-05 4.0046e-05)
(5.78742e-05 -1.45402e-05 0.000869546)
(4.89287e-05 -4.01051e-05 3.55993e-05)
(-6.37741e-05 -3.0712e-05 4.76001e-05)
(0.000151707 3.1828e-06 4.8349e-05)
(1.81254e-06 -1.36964e-10 0.000912331)
(-6.37741e-05 -3.0712e-05 4.17677e-05)
(-5.02561e-05 -6.38745e-05 3.80512e-05)
(1.15591e-17 6.69374e-05 3.68984e-05)
(-3.99143e-05 -0.000160723 0.00089765)
(-9.69422e-05 -4.77648e-05 0.00100498)
(2.19056e-05 -4.04854e-08 3.58613e-05)
(-4.83598e-05 2.95465e-05 3.90199e-05)
(0.000110197 7.70133e-05 4.2351e-05)
(8.2097e-06 0.000204459 0.00102836)
(8.65422e-05 -6.53998e-17 0.000799602)
(-8.41877e-06 7.3088e-06 3.10772e-05)
(6.32985e-05 -0.000105756 0.000958358)
(-3.02441e-05 5.50617e-05 4.49822e-05)
(-5.77516e-05 2.78117e-05 3.85233e-05)
(0.000453301 0.00020754 5.48555e-05)
(0.00013099 4.86062e-06 4.33145e-05)
(-1.21698e-05 1.30943e-06 3.64215e-05)
(1.30684e-05 -2.43217e-05 3.46144e-05)
(9.93683e-05 1.49858e-06 4.36522e-05)
(0.000104046 -3.94647e-05 4.01095e-05)
(-7.75577e-05 8.60127e-05 0.000921866)
(5.83076e-05 8.796e-06 4.14456e-05)
(0.000419879 -0.00021237 4.50762e-05)
(-9.63269e-05 -1.72081e-05 3.66759e-05)
(-3.7433e-05 -6.07691e-05 3.10522e-05)
(-6.5586e-05 0.000190755 3.9941e-05)
(-3.74942e-06 1.13682e-05 4.38102e-05)
(-4.7158e-05 -2.83197e-05 3.90943e-05)
(-4.0532e-05 6.95989e-05 4.07893e-05)
(7.7512e-05 -9.59837e-05 3.92034e-05)
(0.000188311 0.000745077 5.8305e-05)
(6.35377e-05 4.5696e-05 3.63568e-05)
(-0.000132952 5.65666e-06 3.82312e-05)
(6.56683e-05 8.40153e-17 3.88438e-05)
(-5.38085e-05 -2.59129e-05 4.11573e-05)
(-0.000306246 -0.000343773 5.13153e-05)
(-7.70855e-05 8.64849e-05 0.000921866)
(7.7512e-05 -9.59837e-05 4.00396e-05)
(9.44784e-05 -9.65796e-05 0.000879939)
(8.47851e-05 -6.39656e-05 0.000928469)
(0.000154413 0.000105637 4.21112e-05)
(-3.99064e-05 -0.000160717 0.00089765)
(-4.32641e-05 -0.000195248 0.000970269)
(-9.19032e-05 0.000104293 0.000946121)
(-6.25101e-05 3.09189e-05 4.26577e-05)
(1.24314e-05 7.44672e-06 4.44679e-05)
(-2.08077e-05 1.04156e-06 3.89875e-05)
(1.30684e-05 -2.43217e-05 3.50209e-05)
(-2.53203e-12 0.000106856 4.27478e-05)
(-0.00440086 -0.000417794 5.57884e-05)
(-1.21698e-05 1.30943e-06 3.82632e-05)
(-1.94372e-05 1.15256e-05 3.56715e-05)
(-2.9649e-05 -3.11613e-05 4.53063e-05)
(-7.27449e-05 -2.37279e-08 4.16345e-05)
(8.44794e-05 5.66104e-05 4.17435e-05)
(6.56683e-05 8.40153e-17 3.89255e-05)
(7.51831e-05 -4.17272e-05 3.78358e-05)
(6.78262e-05 4.88845e-05 3.84088e-05)
(-3.81628e-05 6.59835e-05 4.15442e-05)
(6.56683e-05 8.40153e-17 4.06351e-05)
(-1.50861e-06 9.5199e-07 3.73016e-05)
(-1.21698e-05 1.30943e-06 4.06756e-05)
(-5.40226e-05 -6.77731e-05 4.06213e-05)
(-5.48156e-05 -0.000169857 0.000953862)
(6.78262e-05 4.88845e-05 4.21593e-05)
(7.7512e-05 -9.59837e-05 4.11348e-05)
(-0.000101167 -3.92764e-05 0.0010189)
(-3.84697e-05 0.000186038 0.000738596)
(-6.25101e-05 3.09189e-05 3.42186e-05)
(-6.55328e-05 -0.000168163 0.000895749)
(-0.000151373 -6.79698e-05 0.00107672)
(-9.98891e-05 -0.000102443 0.000998895)
(7.51831e-05 -4.17272e-05 3.67722e-05)
(-2.25051e-05 -1.96508e-05 3.83053e-05)
(0.000210698 0.000105769 0.00105706)
(-0.00035881 0.000189465 3.91023e-05)
(0.000179608 -0.000283146 4.55707e-05)
(-5.84656e-05 0.00018238 0.00101554)
(3.58226e-07 -1.38411e-05 4.0989e-05)
(8.91597e-13 -1.74127e-05 3.91727e-05)
(-2.48873e-05 -5.10708e-05 3.71803e-05)
(-2.53203e-12 0.000106856 4.03921e-05)
(-0.000196237 1.56737e-05 4.61039e-05)
(6.02247e-06 1.82032e-06 4.13172e-05)
(-4.0532e-05 6.95989e-05 4.56228e-05)
(-3.98978e-05 -0.00016071 0.00089765)
(0.000307599 0.000735246 0.00106535)
(8.44794e-05 5.66104e-05 4.08581e-05)
(-2.07832e-07 1.56718e-05 3.85461e-05)
(0.00344341 3.45658e-05 4.46593e-05)
(-3.51396e-06 -2.78108e-05 3.6656e-05)
(-5.0882e-05 -0.000144866 4.11913e-05)
(-6.37741e-05 -3.0712e-05 4.4143e-05)
(-0.000104225 -0.000167979 0.00106843)
(6.56683e-05 8.40153e-17 4.27504e-05)
(-3.82572e-05 -5.85056e-05 4.01751e-05)
(3.83326e-05 -4.38772e-05 4.13149e-05)
(-7.77296e-05 8.58409e-05 0.000921866)
(-5.38085e-05 -2.59129e-05 4.08222e-05)
(-5.9374e-05 6.0266e-05 0.00096045)
(-4.53976e-05 6.25353e-05 3.6998e-05)
(1.34443e-05 -3.53144e-05 4.11341e-05)
(-5.77516e-05 2.78117e-05 4.31049e-05)
(6.02247e-06 1.82032e-06 4.40262e-05)
(-2.24082e-06 8.06453e-07 4.06919e-05)
(7.46976e-12 -3.20678e-05 3.67782e-05)
(-6.37741e-05 -3.0712e-05 4.33979e-05)
(-1.39348e-05 -1.06437e-06 3.48242e-05)
(1.46609e-07 7.14746e-06 3.89591e-05)
(0.000814584 9.92387e-05 6.69488e-05)
(-4.7158e-05 -2.83197e-05 3.82068e-05)
(-2.74457e-05 2.92646e-05 4.72314e-05)
(8.10779e-05 0.000103983 0.000974021)
(-5.40226e-05 -6.77731e-05 4.26123e-05)
(0.000374045 -0.00126655 6.70522e-05)
(2.2908e-05 1.82221e-06 2.38546e-05)
(-3.67617e-05 -3.07877e-05 3.5809e-05)
(0.000198844 0.000101889 4.40261e-05)
(8.73786e-12 -1.25669e-05 0.000886338)
(-9.11359e-05 9.80282e-05 0.000916648)
(-3.83858e-05 0.000185971 0.000738596)
(-4.63213e-06 -6.29017e-05 0.000741345)
(8.58651e-05 8.8411e-05 4.45071e-05)
(5.08361e-05 -2.85219e-05 3.91133e-05)
(4.60487e-05 -6.74454e-05 3.35693e-05)
(-4.05407e-05 -0.000271758 0.00109887)
(-0.000306246 -0.000343773 5.11314e-05)
(-2.53203e-12 0.000106856 4.45223e-05)
(-4.85145e-06 -6.26824e-05 0.000741345)
(-3.02441e-05 5.50617e-05 3.7303e-05)
(1.34443e-05 -3.53144e-05 3.84989e-05)
(-2.36917e-05 -0.000173111 4.33632e-05)
(-0.00403211 0.000110355 0.00136204)
(1.98508e-06 -3.50991e-05 3.73838e-05)
(4.60487e-05 -6.74454e-05 3.57526e-05)
(-0.000725738 -4.99096e-05 5.22357e-05)
(5.3775e-05 -5.6558e-05 3.88453e-05)
(-1.86889e-06 -0.000148454 3.82328e-05)
(-3.02441e-05 5.50617e-05 4.51868e-05)
(0.00010378 0.000112066 0.000881264)
(1.49336e-05 -9.35553e-06 0.000857175)
(-2.07832e-07 1.56718e-05 3.56214e-05)
(-4.65401e-05 -9.58839e-05 4.41725e-05)
(8.62839e-05 -6.53998e-17 0.000799602)
(4.57319e-06 5.14787e-05 4.49879e-05)
(3.83326e-05 -4.38772e-05 3.52712e-05)
(-1.21698e-05 1.30943e-06 3.64174e-05)
(-6.11662e-06 -1.48279e-05 3.99065e-05)
(-3.02441e-05 5.50617e-05 3.73426e-05)
(0.000759201 -0.000125793 6.33208e-05)
(-4.24953e-05 -0.000259635 4.64911e-05)
(-4.7158e-05 -2.83197e-05 4.12811e-05)
(8.57002e-05 -2.13387e-05 0.000964335)
(1.02997e-07 -1.24638e-06 3.65095e-05)
(-5.40226e-05 -6.77731e-05 4.20872e-05)
(-1.50861e-06 9.5199e-07 3.53031e-05)
(8.1363e-05 -7.03124e-05 4.30061e-05)
(5.79265e-05 0.000116003 0.000931201)
(7.51831e-05 -4.17272e-05 4.12938e-05)
(-2.08077e-05 1.04156e-06 3.46074e-05)
(-3.38815e-05 -0.000155912 3.56214e-05)
(-4.22026e-05 2.87961e-05 3.77049e-05)
(-6.25101e-05 3.09189e-05 3.99898e-05)
(0.000104138 9.38343e-06 2.57985e-05)
(-2.21071e-05 2.44047e-05 2.80557e-05)
(4.16585e-06 -1.57443e-05 0.000858641)
(0.000217942 0.00019286 5.88082e-05)
(8.46569e-05 0.000109284 4.3077e-05)
(6.14183e-05 1.00801e-05 0.000838727)
(-1.21698e-05 1.30943e-06 3.54187e-05)
(-5.36022e-05 5.3369e-05 4.29755e-05)
(0.000100753 6.05873e-11 0.000950886)
(8.94331e-05 -0.000114281 0.00090136)
(-2.73797e-05 -1.72237e-05 0.000905737)
(2.29683e-05 1.60796e-05 4.23785e-05)
(6.49512e-05 -6.31998e-05 4.24025e-05)
(-6.0463e-05 4.27361e-05 4.64154e-05)
(-3.74942e-06 1.13682e-05 4.1985e-05)
(-6.25101e-05 3.09189e-05 4.23975e-05)
(-0.000162109 -6.81801e-05 4.18245e-05)
(7.42655e-05 1.50377e-05 0.000878682)
(-8.21536e-05 0.000107563 0.000894563)
(-1.65301e-05 4.13859e-06 4.019e-05)
(-4.08571e-05 2.42865e-05 4.19148e-05)
(-7.27449e-05 -2.37279e-08 4.02527e-05)
(-5.28104e-05 4.09809e-05 3.51984e-05)
(-4.83598e-05 2.95465e-05 3.82067e-05)
(7.97572e-05 4.54911e-05 4.27357e-05)
(8.58651e-05 8.8411e-05 3.75645e-05)
(8.46569e-05 0.000109284 3.72886e-05)
(1.77137e-05 2.20422e-05 2.82059e-05)
(-4.0532e-05 6.95989e-05 4.15047e-05)
(-3.82237e-05 0.000113401 0.000942397)
(3.09481e-05 -0.000374039 5.25881e-05)
(-2.24082e-06 8.06453e-07 4.31672e-05)
(8.28492e-05 -8.19971e-05 3.61801e-05)
(-2.74457e-05 2.92646e-05 4.68544e-05)
(-4.02995e-05 -1.50571e-07 3.77265e-05)
(-3.07221e-06 1.04156e-06 0.000893335)
(-0.000132952 5.65666e-06 3.34217e-05)
(0.000111162 -0.000142544 4.42355e-05)
(0.000814584 9.92387e-05 7.40506e-05)
(8.56868e-05 -2.1377e-05 0.000964335)
(-2.07832e-07 1.56718e-05 3.814e-05)
(8.50077e-05 0.000101256 0.00095177)
(2.93682e-05 3.12998e-05 4.26766e-05)
(-2.53203e-12 0.000106856 4.26664e-05)
(-3.95175e-05 -0.000207365 0.000984543)
(-0.00440086 -0.000417794 5.0291e-05)
(4.48772e-05 -0.000154381 4.49813e-05)
(8.65521e-05 -6.53998e-17 0.000799602)
(-3.5545e-05 6.29509e-05 3.49267e-05)
(9.09757e-05 -0.000119397 0.000974308)
(-3.74942e-06 1.13682e-05 3.13489e-05)
(-5.38085e-05 -2.59129e-05 4.11139e-05)
(-6.72507e-05 -0.000114498 0.00102815)
(0.000198844 0.000101889 4.39594e-05)
(8.58651e-05 8.8411e-05 4.07368e-05)
(3.58226e-07 4.38445e-05 0.00090916)
(5.79519e-05 -1.43182e-05 0.000869546)
(6.29956e-05 0.000108713 0.000845906)
(0.000198844 0.000101889 4.03126e-05)
(-2.25051e-05 -1.96508e-05 4.16442e-05)
(-6.25101e-05 3.09189e-05 3.88939e-05)
(-1.29551e-05 3.58682e-05 0.000933587)
(-0.00014759 -3.2944e-05 0.00103252)
(-3.57215e-06 -1.29401e-05 3.31986e-05)
(0.000304354 0.000156427 4.54083e-05)
(-0.000725738 -4.99096e-05 5.03736e-05)
(-7.56626e-05 3.72528e-05 0.000980696)
(8.44794e-05 5.66104e-05 3.99655e-05)
(8.46569e-05 0.000109284 4.27108e-05)
(-7.35785e-05 7.60632e-05 0.000738596)
(9.81006e-05 2.67019e-06 0.000908463)
(-3.2616e-05 -2.55368e-05 3.34855e-05)
(-2.53203e-12 0.000106856 4.04732e-05)
(3.98602e-05 -1.09611e-06 0.000948629)
(7.94702e-05 -3.91429e-05 4.078e-05)
(9.06861e-05 0.000122543 0.000960097)
(-7.31905e-05 -5.68055e-05 3.4982e-05)
(-0.000223949 -1.01128e-05 4.38235e-05)
(-5.79906e-05 -1.84836e-05 4.01908e-05)
(-1.85361e-07 -4.49507e-05 3.14671e-05)
(0.000188311 0.000745077 5.37612e-05)
(7.51831e-05 -4.17272e-05 3.97916e-05)
(-1.85361e-07 -4.09699e-05 3.14671e-05)
(0.000416528 -0.000497923 0.00121699)
(1.47887e-05 3.76733e-05 2.79758e-05)
(-9.45069e-05 5.67562e-05 9.39972e-06)
(-3.8987e-05 -6.27947e-05 0.000956022)
(-2.07832e-07 1.56718e-05 3.36699e-05)
(8.58651e-05 8.8411e-05 3.91207e-05)
(-9.73901e-06 -4.66351e-06 3.80116e-05)
(-3.81628e-05 6.59835e-05 3.94049e-05)
(0.000163917 0.00014088 0.00104477)
(-2.46461e-05 -1.38151e-05 3.47662e-05)
(-8.14013e-05 -0.000116929 4.06224e-05)
(-8.46105e-05 -0.000120458 0.00121337)
(8.96556e-05 -0.000114458 0.00090136)
(6.78955e-05 -8.58795e-05 0.000983794)
(8.58651e-05 8.8411e-05 4.05663e-05)
(8.48581e-05 -5.14967e-05 0.0010119)
(-2.07832e-07 1.56718e-05 3.73386e-05)
(0.000374045 -0.00126655 6.93265e-05)
(1.98508e-06 -3.50991e-05 3.71264e-05)
(-5.02561e-05 -6.38745e-05 3.79196e-05)
(-5.50161e-05 0.000128348 4.14187e-05)
(-0.000223949 -1.01128e-05 4.34521e-05)
(4.57319e-06 5.14787e-05 4.54902e-05)
(-5.77516e-05 2.78117e-05 4.17555e-05)
(1.34651e-05 9.05105e-06 3.53046e-05)
(1.24314e-05 7.44672e-06 4.36472e-05)
(-0.000129061 -3.0881e-05 8.1861e-06)
(6.9996e-05 -0.000197583 3.84724e-05)
(-3.88392e-05 -6.24878e-05 0.000956022)
(-0.00036754 0.000134393 4.55448e-05)
(1.27775e-05 -6.11837e-07 2.63185e-05)
(-3.81628e-05 6.59835e-05 3.9126e-05)
(1.34443e-05 -3.53144e-05 3.97856e-05)
(0.00566343 -0.0074799 0.000909102)
(6.29098e-05 0.000108645 0.000845906)
(2.29683e-05 1.60796e-05 4.10159e-05)
(-5.40226e-05 -6.77731e-05 4.33057e-05)
(1.47212e-06 -6.08575e-06 3.76898e-05)
(6.56683e-05 8.40153e-17 4.27208e-05)
(-5.77516e-05 2.78117e-05 4.01316e-05)
(-0.000246374 -0.00552627 4.42833e-05)
(-2.85441e-05 -4.11097e-05 3.56792e-05)