/*--------------------------------*- C++ -*----------------------------------*\
| =========                 |                                                 |
| \\      /  F ield         | OpenFOAM: The Open Source CFD Toolbox           |
|  \\    /   O peration     | Version:  plus.master                           |
|   \\  /    A nd           | Web:      www.OpenFOAM.com                      |
|    \\/     M anipulation  |                                                 |
\*---------------------------------------------------------------------------*/
FoamFile
{
    version     2.0;
    format      ascii;
    class       vectorField;
    location    "6/lagrangian/kinematicCloud";
    object      U;
}
// * * * * * * * * * * * * * * * * * * * * * * * * * * * * * * * * * * * * * //


96597
(
(0.000461301 -0.00269885 -0.00253867)
(-0.000203426 0.000210467 0.000333089)
(-0.000119237 0.000220448 -0.00454967)
(-0.000122405 0.000720839 0.000389053)
(-0.000548886 -2.70506e-06 -9.81651e-06)
(0.000171748 -5.35711e-05 0.000348734)
(-0.00034773 -0.000135267 0.000345215)
(-0.000489446 0.000270792 0.00659018)
(-0.000637329 -0.000392217 -0.00135855)
(-8.24883e-05 3.05211e-06 0.000301463)
(-0.000489133 1.00129e-05 0.000355412)
(-0.000452744 0.000433798 0.00138345)
(-0.000591124 0.000791974 -0.00211648)
(-0.000792705 0.000257704 0.000335516)
(-0.000132834 -1.20643e-05 0.000342139)
(0.00102578 -0.000258874 0.000303798)
(-0.000430193 -0.0020086 0.000516245)
(0.000174166 -0.000295922 0.000247721)
(-0.000841673 0.000252257 0.000375011)
(-0.000325134 -4.69826e-05 0.000365575)
(0.000296123 -0.00030644 0.00962657)
(-6.0674e-05 0.000485174 0.000341629)
(0.000217559 0.000219793 0.000274421)
(0.000641186 0.000452305 0.00152081)
(-0.000156937 0.00020996 0.000378813)
(0.000408038 0.00016658 -0.00152599)
(0.000434895 -0.000457493 0.00233201)
(5.33185e-05 -0.000763118 -0.00261052)
(-6.98718e-06 0.000139808 -0.00391255)
(-0.00117056 -0.000163061 -0.00521929)
(3.81504e-05 -0.000984871 0.00150892)
(-0.000934303 -0.00038341 0.000372618)
(0.000862932 -0.00055888 0.000279438)
(0.00034902 -0.000246012 -0.00496287)
(-0.000992189 -0.000107267 0.000387651)
(-0.000776827 0.000274378 -0.000646387)
(-8.15129e-05 -0.000137483 7.12498e-05)
(-8.25307e-05 1.46677e-05 0.000302882)
(0.000834258 9.25487e-05 0.000511559)
(-0.000265034 4.95449e-06 -0.00203986)
(-0.00140165 0.000279672 -0.00513753)
(0.000238077 0.000226093 -0.000998148)
(-0.00090014 -0.000598951 0.000323713)
(0.000184922 -0.000285491 -0.00220831)
(0.000356947 -0.000335991 -0.00157971)
(-0.000918596 -0.000321453 -0.00335366)
(0.000332253 0.00404789 -0.0102937)
(-0.00090462 -0.000125016 -0.00160217)
(0.000229107 0.000161732 0.000332946)
(0.000493449 -0.000673509 0.000544029)
(-0.00115202 -0.000507142 -0.00311493)
(0.000193881 -6.14036e-05 -0.00348323)
(0.000861798 0.00191077 -0.00198199)
(-0.000120807 -0.000162338 0.000336599)
(-0.000936143 -0.000300727 0.00028229)
(-0.000441187 -0.000269477 0.000177372)
(0.000169285 0.000262693 0.000243706)
(-0.000246153 0.00261824 -0.00226325)
(0.000319678 -0.000304463 -0.00207109)
(-0.000569474 -0.000225314 -0.00168957)
(-0.000261751 -0.000760065 -0.000868419)
(-0.000741921 -0.000295535 -0.000952615)
(-0.000890174 0.000297024 0.000709112)
(0.000338279 -0.000326867 -0.0021137)
(-0.000160839 -0.000452596 -0.00287284)
(0.000289307 0.000315724 0.000327514)
(-0.000118541 -0.000649498 0.000287453)
(-0.00135301 -0.000109052 5.75116e-05)
(0.000601042 0.000293524 0.00205058)
(-0.000650338 -0.00023128 -0.00107135)
(-0.000334298 8.70535e-05 -0.00233942)
(-1.39182e-05 -0.000117477 0.000542526)
(-0.000577633 -0.000337907 -0.00122548)
(-0.000398995 -0.00023569 0.000272494)
(-0.000880021 -0.000603514 0.000347892)
(-0.000589455 -1.46436e-05 0.00178572)
(-0.000498482 -9.22018e-06 0.000551418)
(-0.00286451 0.00143919 3.88365e-05)
(-0.000584908 -0.000482064 -0.000111504)
(-0.000805423 -9.23272e-05 -0.000472525)
(-0.000952557 -0.000153178 0.000778288)
(0.000728906 0.000411537 -0.00258896)
(0.000448358 -0.0003894 0.000245699)
(-0.000702024 -0.000133216 0.000323927)
(0.0008093 0.000598428 0.00391531)
(-0.00100602 -0.000947145 0.000553498)
(-0.000838222 0.000321851 0.000324931)
(-0.000102384 0.000127613 0.000891299)
(0.00186795 -0.000771237 -0.00198256)
(0.000423944 -0.000443416 0.000638956)
(0.000254756 0.00139462 -0.0041525)
(-0.00070043 -0.00072839 0.000348692)
(-0.000428691 -8.98887e-05 0.000368197)
(0.000453739 0.000319595 0.000534207)
(-0.00128673 -0.00020266 -0.0011672)
(0.000378913 0.000261859 -0.00815247)
(-0.000844369 0.000127272 0.000300224)
(-0.000300325 7.75803e-06 0.00031739)
(0.000717305 -0.000454978 -2.15214e-05)
(0.00255082 0.000305077 -0.00245639)
(0.000424923 -1.40623e-05 0.000155688)
(-0.00103727 -0.000977717 0.000272998)
(-8.79305e-05 -9.71354e-06 0.000113496)
(-0.00016962 -0.00188798 0.00121956)
(-0.00101155 -0.000362329 0.00340094)
(0.000513337 -0.000472046 0.00282403)
(-0.000105905 0.000125559 -0.000700319)
(0.000375029 -0.000360965 0.000345828)
(-0.000274006 -0.000178744 -0.0023214)
(3.56051e-05 -0.000255295 0.000213175)
(0.000350772 -0.000152552 0.000354989)
(-0.000772687 -0.000337307 0.000590625)
(0.00125836 -0.00526794 0.296412)
(-0.00012125 0.000102041 0.000358224)
(-0.000823404 0.000477479 -0.00206206)
(-0.00115864 -0.00108855 -0.000594701)
(-0.000496469 0.000268034 0.000256487)
(-0.000723178 -0.000324335 0.00154083)
(0.00018469 0.00026494 0.000523926)
(-0.00124288 -0.000292933 0.000744818)
(-0.000442177 0.000237385 0.000115572)
(-0.000382831 -3.48166e-05 -0.00128622)
(-9.18028e-05 0.000554695 0.000397817)
(-4.15316e-06 -0.00132307 0.000871815)
(0.000210319 -4.71726e-05 0.000446181)
(-0.000650084 0.000430701 -0.000132556)
(0.000424845 -0.000505583 0.00775643)
(-0.000740591 -4.25246e-05 0.000284229)
(-0.000101544 0.000495746 -5.40365e-05)
(-7.13329e-05 -0.000146269 0.000451044)
(-0.000384633 -3.16697e-05 0.00024582)
(-0.000210172 5.40971e-05 0.00156013)
(-0.000896228 -0.000844903 -0.00211136)
(-0.000250293 1.98875e-05 -0.00483358)
(-0.000480401 -0.000162414 0.000408071)
(-0.00125021 0.000200465 0.000255531)
(0.000119117 -0.000670536 0.000250546)
(-0.000540091 -0.000506699 0.000296725)
(-0.000430572 0.00123488 -0.00456884)
(-0.000107841 0.000130346 -0.00248035)
(0.00029412 -0.000280815 0.000657883)
(3.85325e-05 1.50232e-05 -0.00320944)
(-0.000974894 0.000169143 0.000631076)
(0.000413914 0.000294868 -0.000878241)
(-0.000117522 -9.2541e-05 -0.00458694)
(-0.000882897 0.000318762 -0.00187387)
(0.00040432 0.000366949 0.00595847)
(0.000336284 -0.000582386 0.000308527)
(-0.000541031 -0.000113982 0.00163662)
(0.000446371 0.000648108 -0.00270221)
(-0.000114629 0.000402871 0.000397366)
(-0.0010851 -9.89942e-05 -0.0053031)
(-0.000404085 -0.00029224 0.000625234)
(-0.00110237 -0.000174876 0.000287643)
(-0.000522247 -0.000316265 0.000337984)
(-8.28553e-05 0.000160115 0.000177886)
(0.00188044 0.00132915 0.000233495)
(-0.000787233 0.000396489 -0.00218099)
(0.00083479 0.00141692 -0.000909957)
(-0.00134681 5.59412e-05 -0.00120851)
(0.000482637 0.00269787 -1.84007e-05)
(-0.000123634 0.00012907 -0.00248436)
(-0.000248738 -0.00010891 -4.79547e-05)
(0.000342133 -0.00046706 0.000362444)
(-0.000828077 0.000735756 -0.0023983)
(-0.00161465 -0.00149606 9.67201e-05)
(0.000425002 -1.99858e-05 0.000535329)
(-0.00130906 0.00291709 3.02152e-06)
(-0.000439888 0.000172691 0.000714572)
(0.000353553 0.000247099 -0.00066243)
(-0.00012255 0.00017689 -0.00139674)
(-0.000167415 0.00164544 -0.000555191)
(6.15429e-05 -0.000252386 0.000542021)
(-0.000564133 -0.000263138 0.000116104)
(-0.0023495 -0.00113851 8.53005e-05)
(0.000176676 -5.64125e-05 0.0020948)
(0.000781592 0.000635427 -0.00123566)
(0.00270071 0.000311844 -3.93505e-05)
(0.000691983 0.000339485 0.000290106)
(0.000138444 4.31394e-05 -0.00110334)
(-0.000615975 -0.000364527 0.000259147)
(0.00126863 -0.00131365 -0.000390843)
(0.000408968 -0.000347749 0.000476449)
(-0.000420704 -0.000208171 -0.00233332)
(0.000555109 0.000393125 0.000305777)
(-3.5316e-05 0.000145547 -3.30593e-05)
(-0.000883778 7.55758e-05 0.000381353)
(-0.000414122 -0.00197878 0.00104736)
(-0.000102408 -0.000181965 0.000625557)
(0.000468237 -8.01443e-06 -0.00165014)
(-0.000112481 0.000180897 0.000338945)
(-0.000795518 5.74967e-05 -0.000114309)
(-0.000355959 -5.43709e-05 -0.00197233)
(-0.00117504 -0.00127868 0.000232782)
(-0.000490797 5.10444e-05 0.000537916)
(-5.84697e-05 3.41009e-05 -0.00821384)
(-0.000862535 -0.000200448 0.000298861)
(-0.00012203 -0.000423238 0.00036141)
(-0.000917958 -8.01076e-05 -0.0014028)
(-0.00118382 -0.00265885 0.000773327)
(-0.000499905 -0.000298686 0.000413792)
(-0.000942215 0.000308522 0.00119039)
(-0.000944067 -0.00104768 -0.0140271)
(-0.000445887 -0.000525006 0.000207437)
(0.000341974 -0.000359396 0.00598169)
(0.000453831 0.000592416 0.000386107)
(-0.00107188 -0.00030546 -6.52032e-05)
(-0.00116565 -0.000228945 -0.00123443)
(-0.000103681 0.000129372 -3.34415e-05)
(0.000273973 -1.89992e-05 -0.00255178)
(0.000275771 0.000223122 0.00032036)
(-0.000506671 0.000265075 0.000320615)
(-0.000576923 -0.000458454 -0.00379194)
(-0.000336907 -0.000568934 0.00234445)
(0.000255846 0.000265767 -0.0015333)
(-7.91868e-05 -1.7571e-05 -0.000331841)
(0.000122375 -0.000129329 0.00147281)
(-0.000155033 -4.22661e-05 -0.00562635)
(0.000600435 0.000805237 -0.00348415)
(-0.000235847 0.000165116 -0.00117984)
(0.000471467 -2.82185e-05 0.000875806)
(-0.000712675 -0.000376098 0.000398056)
(0.000204465 0.000179804 -0.00107813)
(0.000974312 0.00127394 0.000424765)
(-0.000232843 0.000252517 0.000278447)
(0.000795874 -0.000514078 0.000318326)
(0.00261949 0.000334299 -0.0013269)
(-5.75193e-05 0.000441844 -0.00234021)
(0.000288272 0.000254199 0.000455566)
(-0.000888917 -0.00042358 -0.00283965)
(0.000167353 -0.00019367 -0.00612946)
(-0.00107289 -0.000294613 0.000268119)
(-0.00104348 -0.000218996 0.00175878)
(-9.22759e-05 -0.000547256 -0.00267482)
(0.000530869 0.00254159 0.000386683)
(0.00230811 0.000234219 0.00154101)
(-0.00149519 0.000467196 0.00064774)
(-0.000826132 0.000838229 0.000292471)
(8.21885e-05 -3.48641e-05 -0.00194797)
(-0.00077822 0.000278369 -0.00122445)
(-0.000518318 -0.000505938 -0.00279066)
(0.000301328 -0.00069882 -0.00129842)
(-0.00045418 -0.000146794 0.000724835)
(0.000261287 0.000176245 0.000592077)
(4.51763e-06 -0.000310512 0.000351505)
(8.81343e-06 -0.00101106 0.000157445)
(0.000348395 -0.000338477 -0.00114398)
(-0.000943177 0.000288133 0.00122552)
(0.000350636 -0.000342708 0.000277133)
(0.000202261 -4.83655e-05 0.000530075)
(-0.000869741 0.000273664 0.00034143)
(0.00294455 0.000181379 -0.00127304)
(-5.56619e-05 -0.000211959 0.00682281)
(0.000941423 0.000819657 0.000508501)
(0.000290136 -0.000392527 -1.3031e-05)
(-5.7432e-05 0.000443454 -0.00260054)
(0.00073318 -0.000473348 0.000163253)
(0.000375954 -0.000503436 -0.0015009)
(-0.000521393 -0.000173897 0.000404994)
(-0.000471261 0.000123631 0.00118902)
(0.000885097 -0.000574176 0.000329108)
(0.000517071 0.000225313 -0.00694984)
(-2.86178e-05 -0.000443559 0.00285355)
(0.000387087 0.000275303 0.000617718)
(-0.000163068 -1.28794e-05 -0.00244759)
(-0.000468036 -0.00043036 -0.00422824)
(-0.000108779 0.000123851 -0.0017669)
(0.00041977 0.00270343 0.00026784)
(-0.000769799 0.000253725 0.000317459)
(-9.08837e-05 2.70076e-05 -0.00213601)
(0.000119688 -0.000834144 0.0002246)
(-5.30256e-05 0.000285422 -0.00198986)
(-0.00038638 -3.17644e-05 0.000326318)
(-0.000199559 -0.00024806 -0.00445617)
(-0.00317076 0.00263528 0.000313392)
(-0.000450176 -0.000422194 0.000582061)
(-0.000822982 0.000833419 0.00029993)
(-0.000128851 0.000229707 0.000627653)
(-0.0013096 6.74308e-05 0.000342489)
(0.00021656 -0.000317778 0.000281561)
(-0.000642083 0.000247839 0.000382044)
(-0.000508539 -0.000286331 -0.00207431)
(-0.000646296 -0.000351859 0.00024495)
(-0.000471054 -0.000274307 0.000609529)
(0.000426484 -0.000300638 0.00450404)
(-0.000195741 -0.000476337 -0.00193839)
(0.000294362 -0.000261663 -0.00124317)
(0.000502232 0.00165887 0.000513066)
(0.000558369 -0.00058392 0.000402696)
(-0.000330841 0.000368001 -0.00215392)
(-0.000425348 -0.00031554 0.00120651)
(-0.000524197 -0.000133458 -0.00286841)
(0.000352327 -0.000231804 0.000371716)
(-0.000708318 -0.000582557 0.000294301)
(-0.000100207 0.000191324 0.00282323)
(0.000273207 -0.000183231 0.000499982)
(-7.59866e-05 0.000349541 0.000257041)
(0.000412647 -0.000249515 0.000567579)
(-0.00143646 0.00115959 -5.48392e-05)
(-0.00146414 0.000550843 0.00100398)
(0.000113118 0.000320577 0.000400565)
(-0.000712719 -0.0002833 -0.00392217)
(0.00056493 -0.000376806 0.00259794)
(-0.00116305 0.000143389 0.00232206)
(0.000403622 0.00050218 0.00115045)
(0.000343209 -0.000303765 0.000531595)
(0.000288436 0.000287656 -2.18419e-05)
(0.000316784 0.000227728 0.000314498)
(-0.000802329 -0.00016789 -0.00228033)
(-0.000364913 0.000305475 0.00149691)
(0.000310106 0.000378091 -0.00150919)
(0.00021997 -6.69783e-06 -5.57005e-05)
(-6.45277e-05 0.000428299 0.00274133)
(9.32281e-05 -0.000145584 -0.00167827)
(-0.00050552 -0.00030126 -0.0020162)
(0.000485723 0.000636292 0.000411205)
(-0.00120415 6.1274e-05 0.000415749)
(-0.000522806 -0.000322 0.000282253)
(0.000710992 -0.000449309 -0.00265417)
(-4.39882e-05 9.80337e-06 -0.00220479)
(-0.00042893 0.000219483 0.000198046)
(0.000495872 -0.000424594 -0.00125982)
(-0.000952673 -0.000305939 -0.00121466)
(0.000268931 -0.000291755 -0.00736847)
(0.00077116 0.000453523 0.000166471)
(-0.000332246 -0.000948648 -0.00110694)
(-0.00300564 0.000376922 6.63462e-05)
(-0.00073772 -0.000610964 0.000274283)
(0.000616119 -2.1932e-05 -0.00300213)
(0.000392316 0.000806695 0.000245053)
(-0.000881796 -6.70723e-07 0.000111933)
(0.000214608 -0.000323235 -0.00205992)
(-0.000133535 0.00045419 0.000563326)
(-0.000886486 0.000228512 -0.00123634)
(6.53773e-05 -0.000253423 -0.00200593)
(0.0002773 0.000347307 0.00236977)
(-0.00108007 0.000989631 -0.00331796)
(0.0013069 0.00136848 0.000362638)
(0.000275481 -0.00026725 -0.00119344)
(0.000143046 -8.76951e-05 -0.00225321)
(-0.000583673 -0.000343873 -3.17338e-05)
(-0.000126623 -0.000429002 4.8857e-05)
(-0.000434711 -0.000192762 -0.000162644)
(-0.000363739 -0.0001189 -0.0012092)
(-0.00150182 -0.00112162 -0.00016374)
(-0.0011336 -0.000305179 -0.00309989)
(0.00082836 0.000440266 0.0015136)
(0.000463181 -0.000394516 0.00023231)
(-8.37198e-05 -9.02369e-06 -0.000209659)
(0.00075676 0.000444336 0.00013673)
(-0.000656569 0.000223391 -0.00118029)
(-0.000677803 -0.000316493 -0.00127934)
(-0.000540474 0.000453141 -0.00145105)
(0.000263339 0.000180415 0.000193621)
(-0.000769408 -0.000563478 -0.0154214)
(-0.000126308 -1.22331e-05 0.000303074)
(0.000302706 -0.000291614 0.000595792)
(0.000433228 0.000562826 0.000534357)
(-8.35433e-05 0.000584696 -0.00228586)
(-0.000653848 -4.70351e-05 0.000187996)
(-0.00112932 -0.000350153 0.000340662)
(-0.000110191 -0.00014887 0.000259367)
(-0.00032654 0.000274078 -0.00349013)
(0.000590233 -0.000807095 0.000289152)
(-0.00034279 -3.80598e-05 0.000360421)
(-7.41397e-05 0.000564018 -0.000195481)
(6.20675e-06 4.89375e-05 -0.00744459)
(0.000477836 1.73217e-05 0.000360071)
(0.000290562 0.000198672 -0.00199822)
(-0.000182147 -6.56962e-07 0.000481339)
(0.000394353 -0.000386499 -0.00122043)
(-0.00114481 0.000185214 -0.00363733)
(0.00012958 -0.000207481 0.000347456)
(-0.000860123 -0.000127911 0.000124491)
(-0.000387307 3.00395e-05 0.000367464)
(0.000214845 -6.46925e-06 0.000536473)
(-0.000435221 -0.000257962 -0.00137421)
(-1.00547e-05 -0.000207793 0.00727785)
(-9.1657e-05 -0.000165956 0.00264524)
(-0.000854743 0.000370562 7.99465e-05)
(-0.000634454 0.000248732 0.000325863)
(-0.000343703 -0.000145053 0.000328744)
(-0.000156767 -0.000727427 -0.00292222)
(0.000331407 -0.000223244 0.000374119)
(-0.00106697 -6.77121e-05 -0.00313929)
(0.00047228 0.000618446 0.00294489)
(0.000213448 3.48529e-06 -0.000117121)
(0.000459291 0.00126838 -0.00453632)
(-0.000260841 -0.00039844 0.00193367)
(-0.000549943 0.000132884 0.000352175)
(0.000301227 0.000208378 0.000262192)
(-0.000107607 0.000716968 -0.000576979)
(-0.00094246 -0.000165921 0.000402997)
(-0.000563996 -0.000527878 -0.00125186)
(0.000386152 -0.000306584 0.00581228)
(0.00445969 -0.00358898 0.00205848)
(0.00025629 0.000267778 0.000530943)
(0.000384844 -0.000332816 0.000577211)
(-0.00133403 6.31675e-05 4.25097e-06)
(0.00020181 0.000219338 0.000386533)
(0.000485627 0.000633832 0.000230557)
(-0.000474528 -0.000598331 0.000303788)
(-0.000923418 0.000284058 -0.00270965)
(0.000471185 -1.28226e-05 0.000423585)
(-0.000876727 0.000365822 0.000366279)
(-0.000467303 -0.000334038 -0.0010117)
(1.07267e-05 0.000118689 -0.00529033)
(-0.000211403 -7.48363e-05 0.00392672)
(0.00057711 5.86144e-06 -7.38306e-05)
(-0.000855998 -0.000220233 0.000299195)
(-4.33948e-05 0.000174482 9.02578e-05)
(0.000253643 -0.000275842 -0.00627713)
(0.000397748 -0.0015945 -0.00122945)
(0.00248323 -7.59873e-05 -0.0147869)
(0.000186995 -0.000299957 0.00042853)
(0.000650405 0.000344669 -0.000223049)
(-0.000106913 -0.000485451 0.000801775)
(-0.000151615 -0.000495686 -0.000167126)
(0.000310268 -0.00020588 -0.000275865)
(-0.000197693 0.000173257 0.000899973)
(0.000759626 4.72148e-05 -0.000893179)
(0.000789595 -0.000937015 -0.00310231)
(-0.000988357 -0.000390168 0.000298099)
(0.000361042 0.000474901 0.000258653)
(0.000533975 -0.00293147 -7.42285e-05)
(-0.000113419 0.000104218 0.000369294)
(-0.000962952 0.000232703 -0.00295074)
(-0.00117266 -0.000191281 -0.000705908)
(-0.000606414 -0.000371749 -0.00170711)
(-9.86796e-05 6.35867e-06 -0.00558705)
(0.000209225 0.000281775 -0.000148439)
(-0.000317155 6.07531e-06 0.000312128)
(-0.000474267 -0.000447134 0.000362799)
(-0.000643812 5.78006e-05 -0.00274925)
(0.000317088 -0.000127984 0.000988289)
(-0.000129088 -7.17527e-05 -0.00552447)
(-9.9888e-05 -0.000168924 0.000312855)
(-0.000877739 -0.000603258 0.00033584)
(0.000440271 -0.000390519 0.000255941)
(-0.000281843 5.72726e-06 0.000340048)
(-0.000795953 0.000838649 -0.00249851)
(8.34735e-05 -0.000272819 0.000378125)
(0.000712451 0.000248193 -0.00212256)
(-0.000466149 0.000229817 0.000467923)
(-0.000132764 0.000126351 -0.000837841)
(0.00053469 0.000379564 -0.00109203)
(-0.000427754 0.00246802 -0.00027664)
(0.00058656 0.000608991 -0.00171339)
(0.000129616 -0.000203226 0.000393237)
(0.0006438 -0.00070931 -0.00432287)
(-0.000260682 0.000259339 0.000264177)
(-0.000427921 0.00189054 0.000461508)
(2.05491e-05 -0.000206961 0.00100286)
(0.000194229 -7.97956e-05 -0.00632818)
(-0.000552415 -0.000517112 0.000365262)
(-0.000912509 0.000326901 0.000879102)
(0.000696129 0.000551256 -0.00195835)
(-0.00097512 -0.000799734 0.00155616)
(-0.000362677 0.000383725 0.000750883)
(-0.00206105 0.00138297 -2.76782e-05)
(-0.000507725 -0.000147566 0.000332556)
(-0.000786611 -0.000307761 0.000230544)
(-2.88224e-05 -7.79994e-05 -0.00220162)
(-0.00244424 -0.000987333 -0.00048609)
(-0.00073319 0.000743194 -0.0020302)
(-0.000423861 -0.000693 0.000368693)
(-0.000406357 -0.000565369 0.000328988)
(0.000347117 0.000369335 -0.00112681)
(-0.00138242 6.55965e-05 0.000339416)
(-0.00267348 -0.000723118 -0.00217529)
(0.000248016 0.000263284 -3.78256e-05)
(-1.76214e-05 0.000209307 0.000472393)
(-0.000105175 0.000650802 -0.00351618)
(-0.000210634 0.000418289 9.1373e-05)
(0.000848827 0.000498828 0.00028564)
(-5.44367e-05 -1.83928e-05 0.00153856)
(4.63745e-05 -0.00029694 0.000339741)
(-0.000478514 -0.00045102 0.000182748)
(-0.000212602 0.00167692 -0.00261265)
(-0.000514517 -8.77191e-06 -0.00205524)
(9.63304e-05 -0.000168065 -0.000285463)
(-0.000776517 -0.000324948 0.000450041)
(0.000318188 -0.00021199 0.000492295)
(0.000152792 -0.00024436 0.000479137)
(-0.00100133 0.000121589 -0.00214335)
(0.000803629 0.000194236 -0.00227696)
(-0.000367878 2.95944e-05 0.000363067)
(-0.000515503 0.000121811 0.000276402)
(-0.000397286 -3.64377e-05 -0.00122681)
(-0.000635022 -0.000265189 -0.000350662)
(0.000219995 -0.000243041 -0.00429742)
(-0.000586926 -0.00054279 0.00091078)
(-0.000677046 -0.000507238 -0.00135569)
(0.00186464 0.00159599 0.000563144)
(0.000437876 1.04211e-05 0.000341061)
(-0.000787739 -0.000130389 -0.00197282)
(-8.97652e-05 6.88889e-05 0.000266538)
(6.81881e-05 0.000185446 -0.00799742)
(0.000321345 -0.000307862 0.000530244)
(-0.000248173 6.94676e-05 0.00183966)
(-0.00116744 0.000977663 -0.00124464)
(-0.000351155 8.08489e-05 0.00034942)
(0.000451355 0.000590161 0.000271662)
(-0.000100888 -1.15044e-05 0.000415002)
(0.000310755 0.000325722 0.000312368)
(0.000494986 -0.00294426 0.000271482)
(0.000274547 -0.000315863 -0.000997326)
(-0.000151746 0.000203151 0.000332554)
(-9.92322e-05 0.000121952 -0.0010213)
(-0.000201577 0.000153248 0.00150316)
(-0.000836992 -0.000281148 -0.00130457)
(2.11087e-05 0.000106609 -0.006374)
(0.000315912 0.00063234 0.000977965)
(0.000506753 -0.00050034 0.00189524)
(7.8087e-05 -0.000334311 -1.29331e-06)
(0.000536208 0.000381668 0.00229956)
(-0.000141962 1.17828e-07 0.000936183)
(-0.000408093 9.04342e-05 -0.000126154)
(-0.000197224 -0.00106245 -0.00265505)
(0.00258067 0.000363721 0.000175246)
(-0.000263108 7.5389e-06 3.03223e-05)
(0.000299857 -5.76483e-05 0.000375186)
(0.000492939 0.000645727 0.00026871)
(0.000732271 0.000174696 -0.00451766)
(-0.000509096 0.000513789 -4.50501e-05)
(-0.000112752 -1.24007e-05 0.000361164)
(-0.000776414 -0.000282512 0.00196858)
(-0.000812017 0.000227082 0.0003171)
(0.000330344 -0.000231536 0.000309373)
(-7.13756e-05 -1.05831e-05 9.8542e-05)
(-0.000455848 -0.000178273 2.53931e-07)
(-0.000339677 6.37179e-06 -0.000121103)
(0.000277093 0.000193373 0.000137199)
(0.00133813 -0.000734875 0.00104807)
(-0.000731507 0.000257125 0.000552955)
(-0.000539979 -3.74535e-05 -0.00280233)
(0.000675277 0.000397752 0.000632743)
(0.000821346 0.000269271 -0.000276835)
(2.35689e-05 -0.000313205 -0.0055444)
(2.42146e-05 0.000127064 0.00832579)
(0.000715902 0.00088688 0.000309969)
(0.000709617 0.000406723 0.000612393)
(-0.000660145 -0.000257115 0.00027306)
(0.000471099 0.000616311 0.000250908)
(-0.000916506 0.000164181 0.000377382)
(0.000292883 -0.000706808 -2.69432e-05)
(-0.000808624 0.000272389 0.000364533)
(-0.000501758 0.00025287 0.000377493)
(-4.5353e-05 0.000201457 0.000357698)
(-0.000101388 -0.00056013 0.000513685)
(-0.000121958 0.00070276 -7.50977e-05)
(-2.29253e-06 -0.000849343 0.00145875)
(-0.00064536 0.000679958 0.000447993)
(0.000712553 0.0004182 -0.00201951)
(0.000748103 -0.000278792 -0.000705527)
(0.000300715 0.000260462 -0.00567481)
(-0.000163113 8.6509e-05 -0.00550455)
(-0.000434121 0.000187001 0.00057073)
(-0.000110513 0.00013477 -0.00300842)
(-0.00194828 -0.000294852 0.00123616)
(-0.000126112 0.000124381 -0.000660594)
(0.00247835 0.00212826 -0.00609369)
(0.000263992 0.000280658 -0.00154247)
(0.00046524 -3.9221e-05 -0.000191215)
(-6.71733e-05 -1.30305e-05 0.000386159)
(0.000370374 -0.000127819 0.000169175)
(-0.000267929 -0.000121031 0.000510449)
(-0.00200194 -0.000481121 -0.00175077)
(0.000304331 0.00029831 0.000301391)
(0.000999776 -0.000249286 0.000434425)
(-0.000364346 -0.000319278 -0.0012179)
(-0.000451222 -0.000261313 0.000274753)
(0.000230645 -0.000332932 -0.00486495)
(0.000468974 0.000336942 0.000399438)
(0.000383047 -0.000327515 -0.00168935)
(-0.000169337 -0.000415898 -0.00263398)
(0.000307136 0.000324395 0.000330817)
(-0.000650492 -0.000384591 0.000371635)
(-7.90289e-05 0.000163234 0.000865307)
(-0.00296539 0.00134401 -0.00174446)
(0.00021413 0.000293111 0.000399588)
(0.000331799 -0.000339904 0.0060515)
(-0.000382889 -0.00016891 0.0014255)
(0.000318356 0.000226988 -0.0015363)
(-0.000208072 0.00162996 0.000362842)
(0.000592702 -0.000438011 -0.00196139)
(-1.60095e-06 0.000220132 -0.00134981)
(-0.000975831 0.00029701 0.000143671)
(-0.00010222 -0.000624245 -0.00227694)
(0.000355092 -0.00038194 0.00688322)
(7.49904e-05 -3.49345e-05 0.0069339)
(0.000216096 3.8272e-05 -0.00092974)
(0.000147899 9.94058e-06 0.00027383)
(-0.000782859 0.000659502 0.00492563)
(-0.000463176 -0.000590381 0.000280214)
(-0.00116416 0.000900978 0.000425713)
(0.00119527 -0.00212026 0.000169372)
(7.97211e-05 -0.000478058 0.000673795)
(-0.000201474 -0.000107791 -0.00055023)
(0.000346881 -0.000173312 -0.000249769)
(-0.000542385 -0.00032456 0.000338478)
(-9.16083e-05 3.20744e-05 -0.00616438)
(-0.000732147 -0.000751548 -0.00450629)
(0.00043282 -0.000612149 -0.00203251)
(-0.00045672 -0.000634353 0.000368455)
(0.000387706 0.00257887 -0.000107546)
(-0.000387114 -8.69952e-05 -0.0010237)
(0.000239554 0.000267891 -0.00720728)
(-2.94309e-05 0.00025921 -5.38187e-05)
(3.05578e-05 -0.000274509 -0.00816108)
(-0.000160793 0.000221635 0.00632992)
(-8.86431e-05 0.000108512 0.000424987)
(0.000130687 -0.000202668 -0.00574288)
(-0.000604423 -1.03304e-05 0.000347242)
(-0.000412527 0.000208298 8.35718e-05)
(-0.000334619 -7.2692e-05 0.000150376)
(-0.000300333 5.59854e-06 -0.00124394)
(-0.000113516 -0.000386252 0.000553481)
(0.000234926 -0.000253829 0.000363533)
(-0.000618945 0.000695795 0.000314532)
(-7.60209e-05 -9.09315e-05 0.000412085)
(0.00014487 0.000220461 0.000646397)
(-0.000744934 -0.000328159 0.000314303)
(-5.26079e-05 0.000402537 -0.00222334)
(0.000264037 0.000180327 0.00086964)
(-0.000507809 -0.000199877 0.000392948)
(-0.00110332 -0.0004518 -0.000815027)
(-0.000851481 0.000243406 0.000359543)
(-0.00602918 0.00070458 -0.000425086)
(-0.00055967 -0.000273784 0.000367938)
(-0.00017304 -6.35125e-07 0.000317718)
(-0.00057326 0.000614747 -0.000928056)
(-2.97934e-05 -0.000257423 -0.000281761)
(8.08692e-05 -0.000310486 0.000308696)
(-1.02883e-05 0.000307216 -0.00176335)
(0.000221357 -1.44696e-06 0.000365389)
(0.000502256 -0.000715945 -2.43286e-05)
(0.00246748 0.00031449 6.867e-05)
(-0.000305615 -0.000128053 -0.00205912)
(-0.000371592 0.000455677 0.00026748)
(-0.000274148 6.52379e-06 0.00043068)
(0.000361647 -0.000487241 0.00032899)
(0.00132613 5.97468e-05 0.000476645)
(-0.000629457 -0.000116334 0.000343904)
(0.000492711 -0.000363846 -0.00188679)
(-0.000264229 4.79083e-05 0.000332274)
(-0.000837147 0.000845766 -0.00123533)
(0.000296651 -0.000399619 0.000565048)
(-0.000116023 0.000100939 0.000334097)
(0.000215115 -0.000336664 -0.00125932)
(0.000302243 0.000660645 -0.00204463)
(-0.000354135 0.000410454 0.000418928)
(0.000128753 -0.000150544 -0.00121127)
(0.000434849 1.5791e-05 0.000256692)
(0.000706807 -0.000457244 0.00055817)
(0.000609043 8.50658e-06 -0.00303558)
(7.56309e-05 -0.000254325 -0.00197067)
(-2.56747e-05 -0.000273903 0.000352149)
(-0.000589781 0.000227669 -0.000298628)
(-0.000613632 9.64259e-05 -7.65121e-05)
(-0.000317214 -0.000287082 0.0013959)
(-0.000426613 4.75594e-05 0.000140336)
(0.000333362 -0.000321569 -0.00204398)
(-0.000195494 0.000114595 -0.0079584)
(-0.000481667 -0.000668164 -0.00331479)
(0.000416932 -0.000364502 0.000163002)
(-6.26048e-05 0.000204903 -0.00286357)
(0.000248183 -0.000251667 -0.0069869)
(0.000688043 0.000200714 0.000256121)
(-0.000155434 1.15737e-06 0.000622639)
(0.000498016 0.000649703 0.000268609)
(-0.000622897 -7.86118e-06 -0.00198567)
(0.00048164 0.000228164 0.000312392)
(-0.000917892 -0.000391174 0.000444312)
(-9.44439e-05 0.000117684 0.000812627)
(-7.52929e-05 -0.000140329 0.000141075)
(-0.000438212 -6.71935e-05 0.000382112)
(6.88795e-05 -0.000665009 0.000153955)
(0.000742211 -0.00102831 -0.000792497)
(0.00267882 -5.81787e-05 -0.000992647)
(-0.000237602 0.00026043 0.00374634)
(-0.000538275 -9.07158e-06 -5.57683e-05)
(-0.00115138 -0.000202382 0.000307058)
(-0.00017422 0.000177303 -0.00134477)
(-9.97655e-05 0.000111632 0.00026814)
(0.000332104 0.000344742 -0.00230866)
(0.000493933 0.000647302 0.000265943)
(-0.0010348 0.000189961 0.000248791)
(0.000162571 0.000253651 -0.00258113)
(-0.00301064 0.000105349 -0.00794742)
(-0.000345818 -0.0005338 -0.00149497)
(-0.0218695 1.98891e-05 0.411604)
(-0.000710895 0.000257802 -0.00198139)
(-0.00100158 0.000161846 0.000206008)
(0.000455492 0.000596292 0.000398024)
(6.66185e-05 -0.000263749 -0.00209043)
(0.000209568 -0.000154216 -0.00486911)
(-0.000462846 5.923e-06 0.000574382)
(-0.00011289 -0.000122717 0.000279682)
(-0.000976296 0.000174647 0.000288132)
(-0.000226801 0.00249699 -0.00169763)
(0.000211844 -0.000325747 -0.000260813)
(-0.000798423 0.000254988 0.000352556)
(-0.000782288 -0.000140187 0.000264116)
(0.000220045 0.000269683 0.000289206)
(-0.000426438 0.000412008 0.000380915)
(-5.70564e-05 0.000314638 0.000401483)
(9.73812e-05 -0.000653791 0.00048675)
(0.000590224 8.08165e-06 0.000345311)
(-0.000995294 -0.000408544 0.000351043)
(-0.000929462 0.000134222 0.000351498)
(-0.000441794 0.000236868 -0.000111252)
(0.00234145 -0.00150877 0.000982065)
(0.000709986 0.000417302 0.00045378)
(-6.86442e-05 -0.000768861 0.000513327)
(0.00037417 -0.00107439 0.00280535)
(-0.000703695 -0.000296616 0.000384777)
(-6.20156e-06 -0.000811754 -0.00109536)
(-0.00112459 -0.000229013 -0.00235843)
(0.000496562 0.000654038 0.000222658)
(0.000340948 0.000233526 0.00131734)
(0.000252109 -2.00857e-05 -0.00133052)
(3.6328e-05 3.81518e-05 -0.00205215)
(-0.000208318 2.59175e-05 -0.00293666)
(-0.000133852 -0.000439466 0.000384479)
(0.000381734 -0.000372364 0.000329839)
(-0.000268277 -0.000155483 -8.93498e-05)
(-0.000434076 0.000167913 -0.0012123)
(0.000468389 0.000616464 0.0002958)
(-0.000440641 0.00239076 -3.78151e-06)
(-0.000789229 -0.000296561 0.000140446)
(-0.000412578 0.000211163 -1.79611e-05)
(6.96748e-05 -2.61396e-05 0.000395882)
(-0.00167934 0.00134142 0.000331805)
(-8.32496e-05 0.000106723 0.000491517)
(-0.000265529 0.00251384 9.53316e-05)
(0.000432246 -0.000609995 0.000476001)
(0.000242312 6.8666e-06 0.000416517)
(-0.00113548 -0.000174187 0.000361235)
(0.00195555 -0.00126088 -0.000109614)
(-0.00046634 0.000234318 0.000454404)
(0.000568201 -0.00048426 -0.00339776)
(-0.000506883 -0.000199196 0.000387725)
(0.000436961 0.000308978 -0.00137619)
(-1.65591e-06 -0.000743399 -0.00284085)
(-0.000621057 0.000143271 0.000620024)
(0.000249414 3.58967e-05 4.95771e-05)
(0.000324229 -0.000928605 0.000413779)
(0.000372412 -0.000627183 0.00050509)
(0.00032923 -0.000236569 0.000257492)
(-0.000501338 -0.000294462 2.51823e-05)
(-0.00204492 0.00220909 0.000450917)
(-0.000885947 0.000347627 0.000377067)
(-0.000513121 -0.000212095 0.000362997)
(0.000274381 0.00018348 -0.00201096)
(-8.2905e-05 -0.000144617 0.000386203)