/*--------------------------------*- C++ -*----------------------------------*\
| =========                 |                                                 |
| \\      /  F ield         | OpenFOAM: The Open Source CFD Toolbox           |
|  \\    /   O peration     | Version:  plus.master.MPPICInterFoam            |
|   \\  /    A nd           | Web:      www.OpenFOAM.com                      |
|    \\/     M anipulation  |                                                 |
\*---------------------------------------------------------------------------*/
FoamFile
{
    version     2.0;
    format      ascii;
    class       labelField;
    location    "3.8/lagrangian/kinematicCloud";
    object      origId;
}
// * * * * * * * * * * * * * * * * * * * * * * * * * * * * * * * * * * * * * //


1238
(
10853
4108
31099
20525
8235
2982
12294
12267
2655
20111
8091
14171
6790
24797
1699
8178
16580
12544
16179
6457
11325
8134
7433
4878
1067
5649
19748
9321
9879
2991
2254
2073
10519
17691
16737
52770
3911
9371
24420
3305
4297
10838
22836
5675
15587
13058
13518
17118
7584
11066
15508
12076
1498
4966
13176
6400
8188
22887
7964
11386
16656
16907
33206
20160
22985
23910
41518
4919
6028
4106
18659
50138
4784
6680
22750
4244
776
27908
10429
23945
8142
6734
19349
32726
20873
18431
15159
50834
2102
34001
17488
16138
4464
6596
18513
3200
6412
19632
26890
4780
4717
24632
17856
12870
14755
20247
16890
8671
11369
1481
20814
9395
825
8860
56240
2792
6048
28786
15362
38293
1045
23812
507
20739
4237
11490
18931
14484
17372
1756
5280
2827
24545
310
24100
1908
11163
9663
22728
20803
38571
16309
4425
29717
30303
9742
17743
3492
32951
135
48166
51131
4564
28889
2535
9472
4358
20756
1277
2139
8790
7732
16272
27843
16562
5557
3946
12834
31053
11546
12788
32944
9959
880
28026
15259
21313
2048
14760
5749
27201
15950
10206
9835
3469
16197
24684
39761
2679
4559
2134
2204
15817
14252
2650
16112
1897
3585
4268
103
13717
4502
19954
683
36102
7345
2436
46691
2447
4596
2986
29800
41911
41420
19150
16224
19258
41907
983
37183
8424
27732
8742
750
51624
4688
16811
8745
15527
5442
2114
10607
22710
4183
25726
31340
19959
6624
1599
4942
6363
11402
5791
37301
16729
3483
13603
14620
15609
20917
7854
10001
20051
21687
3414
9072
54657
30265
10132
18314
4324
32163
30848
21730
8436
7774
35001
43056
16130
6526
139
18728
7616
6360
11496
21836
1316
1951
8667
18251
27894
28107
30643
15473
2386
13712
34216
30581
166
27418
8988
19505
21560
4969
20661
904
10415
6153
19578
1243
12335
566
5506
2890
4212
30742
5078
2873
2184
29597
29987
1322
3717
2350
5006
28665
2772
5811
40367
34833
33303
39324
26594
18887
22155
41301
26817
40490
16303
30754
47613
13296
3634
22368
28831
5586
21097
8422
11220
3443
31855
10503
13752
2738
57821
44189
19913
2642
1073
16680
34897
19252
2750
506
802
26170
24902
1187
23550
16057
33805
56723
36651
5927
26684
7281
6018
41948
2206
3099
27090
19399
46978
36106
12101
26635
52021
15128
5752
17716
18190
32713
10334
9223
1390
59027
28955
31895
17797
14338
3835
37848
8282
20062
86
8776
14061
6875
16938
27087
8330
44568
16868
35041
18872
14759
31853
30173
20900
3732
20869
1193
4281
25410
530
21064
12146
12311
11328
6691
32426
22291
37841
4704
4987
17449
9061
11089
13984
36848
10031
52595
10699
10279
50740
16450
12331
28677
17182
3265
11775
7360
13009
50785
20483
1058
14138
22819
9277
47026
13862
2215
23665
3969
12687
38042
53376
3890
36649
3221
23403
1062
16590
16382
35371
17110
25274
29236
2973
24843
23795
12431
25842
28377
6708
12507
49350
16728
22389
10145
18149
38658
17088
25137
3674
728
13676
26627
42390
13435
16408
38985
15845
26585
494
15910
569
3859
11296
16011
4138
9357
23943
6092
17941
5543
9698
19643
7025
7491
17575
38197
33893
21372
50025
42423
15134
12012
14553
21744
13507
16630
3201
6772
6823
10967
11889
30708
3862
16727
28541
10979
10859
37365
11677
7542
5340
19935
851
51058
15060
181
13093
34264
22794
2985
4874
2893
18049
3870
37165
27710
24893
12676
47266
20364
15635
2219
21471
8700
20210
14628
3148
10790
38343
997
14201
32288
18016
20937
10204
14307
23326
16771
1843
3459
15294
16041
6120
26910
12255
2779
3985
7246
6697
5200
1195
37801
15575
167
428
11514
1030
15122
28910
14196
14239
21548
17061
28593
28799
10632
3975
46558
6017
8001
4525
5589
16239
25296
47322
33000
18793
17994
22030
33914
6867
43690
4036
3880
6670
21024
19727
1176
6839
33716
13156
10508
1994
10225
13700
1643
9278
15012
23440
9399
46347
19738
5714
7650
1456
17598
8786
5499
34912
36054
12927
3686
16260
14363
12363
14763
1027
42968
25337
4738
4774
11659
22196
32271
13164
8537
2405
2175
25625
3372
28552
416
15890
27622
29411
9809
11693
5860
33992
108
38207
5294
1154
3949
5225
3931
21960
14082
39371
35346
9993
13380
15592
918
39322
17217
43475
15700
4799
3120
4771
32930
10408
3268
16019
6634
31582
20422
1901
11407
29484
21331
20748
13542
16999
25280
11485
1355
2101
4556
7523
9303
11928
15044
163
15072
57470
23407
15515
13123
39739
3350
43984
1189
16946
33420
9743
8806
4545
36966
18620
12461
11039
40795
20174
14495
11910
950
32057
5354
26818
25963
11483
22685
13868
20362
25864
10252
18663
19102
30336
22438
25993
12724
31769
16755
31495
8731
11199
18538
11955
52016
7799
10187
21469
20083
6449
6008
4102
27753
15264
20886
2107
33411
1978
5685
9388
3439
408
2609
6316
3042
5481
14965
8321
14524
9492
17034
17383
9267
5064
4551
38611
28
8304
3603
5480
32828
37298
2639
899
14240
36820
18245
49244
48309
1985
42961
25556
46736
6580
42430
5703
3905
8453
14518
18046
8256
5202
34783
1755
4910
59
27811
38899
42517
15712
7587
30204
39243
11634
26004
4308
5966
2551
4265
31335
22534
20328
670
2869
5437
4437
9928
23966
15557
36201
361
2150
17302
42562
2858
5794
21959
2651
8034
11992
3724
16355
1460
1319
8701
15435
4837
22445
2415
2828
12521
14013
7642
4133
33005
20188
35226
7083
20024
37975
2605
5025
17796
1979
10651
20656
4908
28921
30465
23846
29506
6414
47344
5405
12314
9297
37408
21412
618
31805
6677
781
11192
26970
49911
7068
12345
16389
30523
49370
23793
525
3806
4344
34620
32335
11486
55959
11409
8015
17931
4159
18613
21388
9727
3006
28684
4104
13092
37199
15474
5213
20085
2323
2867
7487
26591
20718
14729
5603
433
4997
42854
27953
9945
3075
38591
6354
20003
3774
45239
3909
1927
48357
26423
35283
4853
16760
5619
12852
16856
32112
8348
29233
18519
403
348
9708
4786
15913
2979
49098
33639
10016
11686
28650
11858
4357
22684
1302
10961
3321
13074
46309
36038
6182
2685
3783
4586
10157
34501
3942
26785
16149
34903
26315
17982
7227
31040
18470
1113
44882
23685
8201
1848
33923
2329
498
19031
23848
12735
5419
9954
3772
1217
48633
7309
3749
1013
40801
32362
29953
10006
18718
19383
16460
9969
10574
1018
27314
6096
3613
30397
7745
9059
1257
18944
19033
17015
31950
15643
23216
15623
22948
16097
24384
2672
14671
3945
6281
7053
2421
32234
15064
1983
31501
8716
1598
705
49380
15078
11962
19357
4889
5402
7006
29762
35328
5876
7625
2821
3330
42030
10664
111
57544
10516
4405
20618
48080
39423
17291
14595
17080
14756
25322
27388
38921
5350
19410
1760
5048
29365
34914
27041
55933
8994
14316
24490
15387
12780
33758
5686
25872
27730
13333
333
1559
558
32060
4321
9652
3122
7065
42650
777
23045
9023
4953
17035
2967
37530
28845
29216
9004
9384
3887
8526
19682
31149
3324
37882
27703
29319
22919
25912
26055
48222
9276
2096
10309
56936
17945
2909
6468
30866
4250
7969
24247
16655
27295
1281
11198
10044
26057
8758
12926
21276
23310
32322
6119
18234
939
20823
23628
11805
7697
4399
24799
2607
20884
38964
31568
9968
9995
55012
13450
19750
25008
27224
13605
17337
3263
28165
13053
40833
13743
31329
5838
3771
421
8544
14688
30263
28152
4993
18281
45055
23586
25531
29390
6739
12014
14612
1115
2692
11073
8437
35794
2455
4076
22465
21636
429
25591
13386
7894
19702
7493
17451
2085
9088
1623
9269
8429
446
10069
15403
31373
2895
449
29972
11658
11786
27974
)


// ************************************************************************* //
