/*--------------------------------*- C++ -*----------------------------------*\
| =========                 |                                                 |
| \\      /  F ield         | OpenFOAM: The Open Source CFD Toolbox           |
|  \\    /   O peration     | Version:  plus.master.MPPICInterFoam            |
|   \\  /    A nd           | Web:      www.OpenFOAM.com                      |
|    \\/     M anipulation  |                                                 |
\*---------------------------------------------------------------------------*/
FoamFile
{
    version     2.0;
    format      ascii;
    class       surfaceScalarField;
    location    "6.4";
    object      alphaPhi;
}
// * * * * * * * * * * * * * * * * * * * * * * * * * * * * * * * * * * * * * //

dimensions      [0 3 -1 0 0 0 0];

internalField   nonuniform List<scalar> 
34155
(
1.1529e-06
1.19443e-06
3.75455e-07
-1.39238e-06
-1.3297e-06
1.07344e-06
6.93679e-07
5.91819e-07
-1.20592e-06
6.66944e-08
1.23767e-06
9.65956e-07
-1.19688e-06
-1.20431e-06
1.33978e-06
1.12755e-06
-1.19587e-06
-1.93609e-06
9.47638e-07
8.16794e-07
-1.03304e-06
-1.83923e-06
3.75978e-07
5.09576e-07
-9.81739e-07
9.15153e-07
3.46359e-07
-2.0325e-06
-1.0694e-06
6.45965e-07
1.25041e-06
5.68667e-07
-1.26952e-06
6.76272e-07
7.69086e-07
1.72982e-06
3.13457e-07
5.7742e-07
2.56978e-06
-1.11202e-06
1.11161e-06
3.03417e-06
-1.03232e-06
3.40254e-07
2.30084e-06
-1.06769e-06
6.39289e-07
1.54112e-06
1.00376e-06
4.64775e-07
-1.62123e-06
1.26852e-06
3.16633e-07
9.40389e-07
-1.2755e-06
4.7187e-07
6.38726e-07
2.57845e-06
1.32359e-07
1.67402e-07
1.50628e-06
-1.83772e-07
7.04981e-08
1.76675e-06
-8.50811e-07
1.56729e-07
1.53188e-06
-1.40479e-06
5.17083e-07
1.99838e-06
2.30632e-07
6.86233e-07
-1.31779e-06
1.49422e-06
-8.47517e-07
1.2032e-06
-1.53326e-06
1.14833e-06
-8.92399e-07
3.13718e-06
6.97737e-08
-1.77559e-07
1.49338e-06
-5.79908e-08
-6.24942e-08
2.6075e-07
-1.38247e-06
-1.71246e-07
2.01176e-06
-1.29687e-06
-7.33765e-07
2.28867e-06
-6.09759e-07
8.20376e-07
-1.27685e-06
1.20253e-06
-1.52045e-06
8.80905e-07
-1.41052e-06
4.22331e-07
-8.87951e-07
2.48982e-06
1.25868e-07
-6.30458e-07
1.50045e-06
-1.95816e-07
-1.05547e-06
1.61771e-06
-7.93436e-07
-3.93701e-07
1.54469e-06
-1.35698e-06
-7.50991e-07
1.95538e-06
-1.2642e-06
6.44114e-07
-1.34667e-06
5.6267e-07
-1.41213e-06
5.29403e-07
-1.20044e-06
6.40799e-07
-8.39741e-07
1.67627e-06
2.38059e-07
-1.27723e-06
2.52446e-06
-1.1452e-06
-1.28286e-06
2.97475e-06
-1.04337e-06
-1.00535e-06
2.22907e-06
-1.02205e-06
-5.28391e-07
1.48942e-06
-1.08717e-06
4.40458e-07
-1.63952e-06
1.12927e-06
3.48439e-07
-1.34247e-06
-1.54734e-06
9.97974e-07
5.34607e-07
-1.2429e-06
-4.87716e-08
8.89925e-07
-1.12055e-06
-1.236e-06
1.04655e-06
-1.14222e-06
-1.99293e-06
7.30487e-07
-9.78918e-07
-1.85211e-06
4.64961e-07
-1.13414e-06
3.32115e-07
-1.97515e-06
-1.29583e-06
1.50455e-06
1.23761e-06
8.61676e-07
-1.76359e-06
-1.46479e-06
9.4477e-07
1.58142e-06
1.20155e-06
-1.63151e-06
8.04372e-08
1.45833e-06
1.88918e-06
-1.51731e-06
-9.55489e-07
1.36614e-06
2.2349e-06
-1.43758e-06
-1.69632e-06
1.35696e-06
1.642e-06
-1.44134e-06
-2.13787e-06
1.24306e-06
1.07906e-06
-1.37099e-06
9.24946e-07
8.25202e-07
-2.36082e-06
-1.18089e-06
1.75301e-06
7.88281e-07
1.14573e-06
-1.88089e-06
1.35285e-06
1.22429e-06
2.45227e-06
3.14819e-07
8.31275e-07
3.92551e-06
-1.13713e-06
8.5831e-07
4.73037e-06
-2.04018e-06
9.56085e-07
3.52221e-06
-2.26545e-06
1.03664e-06
1.9929e-06
5.60556e-07
1.00911e-06
-2.44557e-06
1.47722e-06
1.246e-07
1.78306e-06
-1.65628e-06
8.04567e-07
3.72426e-07
4.01489e-06
7.68232e-08
5.7741e-08
2.97776e-06
-2.10617e-07
9.24882e-09
2.63336e-06
-1.60253e-06
2.70971e-07
3.71158e-06
-2.08512e-06
4.51566e-07
3.06614e-06
7.99714e-08
1.38959e-06
-2.30796e-06
1.11728e-06
-6.36144e-07
2.28766e-06
-1.44102e-06
2.01204e-07
-7.82146e-07
4.84574e-06
-1.24883e-07
-7.41604e-08
1.89508e-06
-3.29207e-07
2.80054e-08
4.93481e-07
-1.82425e-06
-3.29803e-07
4.21168e-06
-1.98806e-06
-8.48156e-07
3.75221e-06
-4.75585e-07
1.60524e-06
-2.21744e-06
1.38415e-06
-1.17628e-06
1.66791e-06
-1.63104e-06
6.92922e-07
-1.56783e-06
3.87073e-06
4.48969e-08
-9.62704e-07
3.06495e-06
-1.76911e-07
-6.38814e-07
2.39181e-06
-1.52835e-06
-1.1357e-06
3.80082e-06
-2.02384e-06
-1.33627e-06
2.93895e-06
-8.87368e-07
1.30852e-06
-2.27651e-06
1.53985e-06
-1.52668e-06
1.07274e-06
-1.7328e-06
1.07805e-06
-1.75563e-06
2.29649e-06
1.26274e-07
-1.48912e-06
3.8102e-06
-1.11267e-06
-1.24882e-06
4.5769e-06
-1.90585e-06
-1.44163e-06
3.19808e-06
-2.12952e-06
-1.45117e-06
1.85334e-06
-1.19677e-06
9.57033e-07
-2.33677e-06
1.28371e-06
8.20643e-07
-1.59321e-06
-1.68949e-06
7.20565e-07
1.11744e-06
-1.77538e-06
-5.67383e-08
1.74744e-06
-1.5694e-06
-9.02481e-07
2.07737e-06
-1.43397e-06
-1.54335e-06
1.48342e-06
-1.55379e-06
-1.97606e-06
1.00574e-06
-1.55933e-06
7.97237e-07
-2.22231e-06
-1.41576e-06
2.0102e-06
1.51414e-06
1.57923e-06
-2.34051e-06
-1.90144e-06
1.40326e-06
1.89343e-06
1.94653e-06
-2.03166e-06
4.12853e-07
2.17513e-06
2.76244e-06
-2.05801e-06
-8.91871e-07
2.2676e-06
3.33281e-06
-2.0608e-06
-1.94835e-06
2.31996e-06
2.52496e-06
-2.14647e-06
-2.61659e-06
1.92216e-06
1.82794e-06
-2.00275e-06
1.47277e-06
1.5246e-06
-2.97172e-06
-1.81705e-06
2.39354e-06
8.62964e-07
1.85975e-06
-2.45657e-06
2.14999e-06
1.49927e-06
3.08985e-06
7.87437e-07
1.60411e-06
5.05236e-06
-1.22281e-06
1.64423e-06
6.39354e-06
-2.56701e-06
2.16853e-06
4.64369e-06
-3.0185e-06
1.67511e-06
2.69138e-06
9.44252e-07
1.72735e-06
-3.20829e-06
2.31954e-06
1.03898e-07
2.49746e-06
-2.27497e-06
1.86312e-06
3.46176e-07
5.04088e-06
2.51888e-07
9.54181e-08
3.83207e-06
-4.01675e-07
7.99405e-09
3.47367e-06
-3.23879e-06
5.96122e-07
5.04159e-06
-3.20272e-06
6.2249e-07
4.08269e-06
2.23335e-07
2.1567e-06
-3.24883e-06
1.90882e-06
-6.0568e-07
3.09623e-06
-2.00784e-06
8.23233e-07
-8.61218e-07
6.1185e-06
-2.90681e-11
-1.38889e-07
2.36046e-06
-3.52693e-07
-5.4475e-09
9.08478e-07
-3.70591e-06
-7.97726e-07
5.82708e-06
-3.30122e-06
-1.13089e-06
5.10093e-06
-6.45019e-07
2.42952e-06
-3.25713e-06
2.2238e-06
-1.28116e-06
2.37014e-06
-2.25059e-06
1.78429e-06
-1.91301e-06
4.83361e-06
2.19208e-07
-1.86007e-06
3.94989e-06
-3.96189e-07
-1.60687e-06
3.18902e-06
-3.10573e-06
-2.67714e-06
5.16874e-06
-3.12402e-06
-2.06224e-06
3.88851e-06
-1.31584e-06
2.06352e-06
-3.20809e-06
2.14644e-06
-1.82952e-06
1.78354e-06
-2.3089e-06
1.82198e-06
-2.15136e-06
2.85941e-06
5.94859e-07
-2.24083e-06
4.80291e-06
-1.11387e-06
-2.22603e-06
6.04934e-06
-2.36524e-06
-2.46931e-06
4.24164e-06
-2.84625e-06
-2.20889e-06
2.48097e-06
-1.79704e-06
1.66761e-06
-3.07558e-06
1.78688e-06
1.53454e-06
-2.17454e-06
-2.15584e-06
1.14237e-06
1.8406e-06
-2.23e-06
2.74965e-07
2.52316e-06
-2.14916e-06
-7.85953e-07
3.02366e-06
-2.1114e-06
-1.74794e-06
2.28447e-06
-2.30838e-06
-2.42631e-06
1.73308e-06
-2.25798e-06
1.49011e-06
-2.8088e-06
-2.10749e-06
2.70453e-06
2.11581e-06
2.877e-06
-3.33675e-06
-2.78143e-06
1.82094e-06
2.39389e-06
3.15663e-06
-2.7203e-06
6.25531e-07
2.7037e-06
3.87457e-06
-2.62026e-06
-9.33626e-07
2.82681e-06
4.59438e-06
-2.52921e-06
-2.25641e-06
2.84089e-06
3.72682e-06
-2.71997e-06
-3.20915e-06
2.42892e-06
3.08379e-06
-2.73198e-06
2.09538e-06
2.8241e-06
-3.8501e-06
-2.75396e-06
3.14182e-06
1.19954e-06
3.06389e-06
-3.42957e-06
2.79797e-06
1.84387e-06
3.98383e-06
1.13657e-06
2.25253e-06
6.02305e-06
-1.30802e-06
1.85587e-06
7.0172e-06
-2.98577e-06
2.73253e-06
5.78165e-06
-3.67204e-06
2.00895e-06
3.79777e-06
1.28916e-06
2.98332e-06
-4.12165e-06
3.25027e-06
1.98308e-07
3.49558e-06
-3.24711e-06
3.03402e-06
4.28969e-07
5.76008e-06
3.68305e-07
1.23228e-07
4.38933e-06
-4.42991e-07
4.1814e-08
3.54421e-06
-4.16946e-06
6.54283e-07
5.74152e-06
-3.97671e-06
6.40349e-07
5.25854e-06
3.05696e-07
3.34785e-06
-4.18418e-06
2.93842e-06
-6.69746e-07
3.96459e-06
-2.93875e-06
1.73391e-06
-1.0768e-06
6.75669e-06
1.51014e-08
-2.18697e-07
2.62614e-06
-4.29982e-07
-7.69816e-08
1.24617e-06
-3.58859e-06
-9.33843e-07
6.10565e-06
-4.06116e-06
-1.29409e-06
6.55886e-06
-7.85969e-07
3.62744e-06
-4.16727e-06
3.17296e-06
-1.63521e-06
3.4005e-06
-3.23792e-06
2.98529e-06
-2.32634e-06
5.5224e-06
3.87527e-07
-2.72602e-06
4.77768e-06
-5.27635e-07
-2.27112e-06
3.66953e-06
-3.90472e-06
-3.56977e-06
6.14342e-06
-3.86794e-06
-2.45357e-06
5.01119e-06
-1.73328e-06
3.26924e-06
-4.12614e-06
2.9615e-06
-2.50388e-06
3.01383e-06
-3.32311e-06
2.52524e-06
-2.782e-06
3.75164e-06
1.01749e-06
-2.9541e-06
5.6558e-06
-1.2662e-06
-2.99391e-06
6.823e-06
-2.79324e-06
-3.12893e-06
5.32793e-06
-3.50415e-06
-2.84382e-06
3.58216e-06
-2.53365e-06
2.93991e-06
-3.97594e-06
2.5559e-06
2.84408e-06
-3.22918e-06
-3.14024e-06
1.63519e-06
3.06834e-06
-3.08892e-06
5.14304e-07
3.60616e-06
-2.91613e-06
-8.40704e-07
4.16974e-06
-2.78495e-06
-2.08198e-06
3.47175e-06
-3.07483e-06
-3.03178e-06
3.00345e-06
-3.16443e-06
2.7998e-06
-3.68747e-06
-3.18758e-06
2.55347e-06
2.2984e-06
-3.33447e-06
-3.18539e-06
4.54496e-06
1.55401e-06
2.26888e-06
-2.89331e-06
4.78054e-06
4.99553e-07
1.93788e-06
-2.4398e-06
5.43094e-06
-7.85227e-07
1.70909e-06
-2.04937e-06
6.21931e-06
-1.96159e-06
2.08361e-06
-2.54472e-06
5.36427e-06
-2.91973e-06
2.20416e-06
-2.90554e-06
4.74332e-06
2.25967e-06
-3.63822e-06
-3.21744e-06
4.50018e-06
2.86726e-06
1.28669e-06
-3.4617e-06
4.67005e-06
2.20647e-06
1.54069e-06
5.37275e-06
9.88771e-07
1.32751e-06
7.04502e-06
-9.12273e-07
7.1858e-07
6.40593e-06
-2.35449e-06
1.61281e-06
7.02687e-06
-3.24157e-06
1.51736e-06
5.37162e-06
1.29279e-06
-3.92763e-06
4.63627e-06
2.81439e-06
2.61336e-07
-3.27143e-06
4.97786e-06
2.30502e-06
3.41502e-07
6.7288e-06
1.53271e-07
8.2854e-08
3.86322e-06
-1.4068e-07
-4.53081e-08
1.24601e-06
-2.28131e-06
3.76263e-07
4.91686e-06
-3.26213e-06
4.82183e-07
6.79393e-06
3.36588e-07
-3.93675e-06
4.97877e-06
2.42858e-06
-5.69268e-07
-2.94867e-06
5.31517e-06
1.54229e-06
-9.53635e-07
7.33433e-06
-4.02647e-08
-1.7607e-07
1.83736e-06
3.11129e-08
8.21135e-08
9.41958e-07
-1.91841e-06
-5.56658e-07
4.15527e-06
-3.19909e-06
-1.08884e-06
7.58866e-06
-7.05088e-07
-3.86056e-06
5.33054e-06
2.80774e-06
-1.58608e-06
-3.29061e-06
4.90003e-06
2.24085e-06
-1.94074e-06
6.51453e-06
2.4686e-07
-1.7154e-06
4.82009e-06
-2.57105e-07
-1.31931e-06
1.69252e-06
-2.48606e-06
-1.98112e-06
6.03415e-06
-3.2066e-06
-1.89339e-06
6.53615e-06
-1.62392e-06
-3.91818e-06
4.89962e-06
2.80543e-06
-2.54973e-06
-3.45031e-06
4.6223e-06
2.07453e-06
-2.61693e-06
5.15875e-06
9.89907e-07
-2.3175e-06
6.72965e-06
-9.92631e-07
-2.0831e-06
7.06042e-06
-2.28002e-06
-2.46173e-06
6.70689e-06
-3.16969e-06
-2.5766e-06
5.15492e-06
-2.565e-06
-3.87428e-06
4.58552e-06
2.55622e-06
-3.39385e-06
-3.37249e-06
4.50437e-06
1.53039e-06
-3.20713e-06
4.68443e-06
4.66229e-07
-2.80389e-06
5.15567e-06
-7.30884e-07
-2.46611e-06
5.75067e-06
-1.89177e-06
-2.92816e-06
5.09906e-06
-2.85775e-06
-3.25647e-06
4.6492e-06
-3.62837e-06
-3.45871e-06
4.46412e-06
-2.2843e-06
-3.92769e-07
1.78285e-07
4.67271e-07
-2.48248e-06
-4.94873e-07
1.97388e-07
4.9714e-07
-2.75839e-06
-3.9361e-07
2.03913e-07
4.66151e-07
-3.06725e-06
-3.48656e-07
2.01387e-07
4.54065e-07
-3.38673e-06
-3.31422e-07
1.91063e-07
4.58777e-07
-3.70587e-06
-3.16829e-07
1.71851e-07
4.65854e-07
-4.01614e-06
-3.04441e-07
1.44846e-07
4.68974e-07
-2.95398e-07
1.1271e-07
4.73754e-07
-4.30807e-06
-2.1221e-06
-1.23436e-07
2.3156e-07
-2.51115e-06
-3.52215e-07
2.46286e-07
-2.87553e-06
-2.77069e-07
2.49359e-07
-3.2335e-06
-2.33447e-07
2.40422e-07
-3.58559e-06
-2.06301e-07
2.25141e-07
-3.90495e-06
-1.95054e-07
2.00244e-07
-4.18454e-06
-1.91391e-07
1.68156e-07
-1.84264e-07
1.30844e-07
-4.4286e-06
-1.64915e-06
-5.63915e-08
2.64321e-07
-2.1266e-06
-1.38113e-07
2.63765e-07
-2.54636e-06
-1.23075e-07
2.65774e-07
-2.94608e-06
-9.9182e-08
2.64072e-07
-3.31276e-06
-8.57098e-08
2.47098e-07
-3.65873e-06
-6.86764e-08
2.19653e-07
-3.97451e-06
-6.27872e-08
1.8626e-07
-6.05395e-08
1.46473e-07
-4.2438e-06
-1.58946e-06
-3.84392e-08
2.94685e-07
-2.05508e-06
5.61586e-08
2.71004e-07
-2.46084e-06
4.32463e-09
2.7904e-07
-2.83309e-06
-2.19609e-09
2.75814e-07
-3.17626e-06
-7.15829e-10
2.57516e-07
-3.47527e-06
1.8259e-09
2.29647e-07
-3.73724e-06
5.18115e-09
1.92976e-07
1.0944e-08
1.55165e-07
-3.96486e-06
-1.66794e-06
1.99183e-08
2.62884e-07
-2.11125e-06
2.36995e-07
2.6293e-07
-2.54098e-06
1.66288e-07
2.68121e-07
-2.9471e-06
1.33648e-07
2.69113e-07
-3.31825e-06
1.18115e-07
2.52168e-07
-3.65398e-06
1.13114e-07
2.25277e-07
-3.95389e-06
1.14741e-07
1.90439e-07
1.17642e-07
1.51224e-07
-4.21176e-06
-2.10619e-06
2.53058e-07
2.33447e-07
-2.447e-06
3.37936e-07
2.40064e-07
-2.81898e-06
2.91973e-07
2.47727e-07
-3.17415e-06
2.47361e-07
2.40232e-07
-3.51152e-06
2.30878e-07
2.23914e-07
-3.82032e-06
2.23779e-07
1.9893e-07
-4.0945e-06
2.21021e-07
1.67044e-07
2.19558e-07
1.30985e-07
-4.32645e-06
-2.22098e-06
1.73444e-07
3.24748e-07
-2.45399e-06
1.92015e-07
3.77816e-07
-2.73542e-06
1.97302e-07
3.7693e-07
-3.05392e-06
1.94409e-07
3.72459e-07
-3.38273e-06
1.82141e-07
3.76668e-07
-3.70431e-06
1.61465e-07
3.83007e-07
-4.00309e-06
1.33609e-07
3.8709e-07
1.00623e-07
3.91428e-07
-4.27555e-06
-2.78723e-06
-3.83357e-07
4.43673e-07
5.44275e-07
-3.22913e-06
-3.70265e-07
4.76844e-07
5.32655e-07
-3.67251e-06
-3.53853e-07
4.83971e-07
5.17138e-07
-4.10007e-06
-3.38589e-07
4.64248e-07
5.03204e-07
-4.4949e-06
-3.24048e-07
4.20148e-07
4.89586e-07
-4.84501e-06
-3.09598e-07
3.56051e-07
4.75336e-07
-5.14274e-06
-2.95096e-07
2.77649e-07
4.59918e-07
-2.80408e-07
1.90852e-07
4.43332e-07
-5.38397e-06
-2.9174e-06
-2.6856e-07
5.88434e-07
-3.38637e-06
-2.52881e-07
5.97715e-07
-3.85207e-06
-2.30789e-07
5.91852e-07
-4.29601e-06
-2.13197e-07
5.59024e-07
-4.69677e-06
-1.97598e-07
4.99215e-07
-5.03923e-06
-1.84137e-07
4.17175e-07
-5.31397e-06
-1.72182e-07
3.19877e-07
-1.61046e-07
2.14402e-07
-5.51689e-06
-2.85803e-06
-1.68923e-07
7.14617e-07
-3.37691e-06
-1.53364e-07
6.83014e-07
-3.87684e-06
-1.36603e-07
6.71381e-07
-4.33968e-06
-1.216e-07
6.35088e-07
-4.75012e-06
-1.0864e-07
5.68328e-07
-5.09351e-06
-9.71766e-08
4.75967e-07
-5.35848e-06
-8.72085e-08
3.6604e-07
-7.8653e-08
2.47005e-07
-5.54148e-06
-2.79218e-06
-7.70191e-08
7.77412e-07
-3.33377e-06
-5.61824e-08
7.15352e-07
-3.84422e-06
-4.87411e-08
7.0147e-07
-4.31376e-06
-4.1619e-08
6.65311e-07
-4.72825e-06
-3.41103e-08
5.97421e-07
-5.07122e-06
-2.67233e-08
5.02054e-07
-5.33447e-06
-1.96103e-08
3.88582e-07
-1.29194e-08
2.65728e-07
-5.5109e-06
-2.81944e-06
2.54174e-08
7.03252e-07
-3.3389e-06
4.21169e-08
6.8396e-07
-3.83783e-06
4.29295e-08
6.75286e-07
-4.29568e-06
4.49866e-08
6.40223e-07
-4.69989e-06
4.77077e-08
5.74416e-07
-5.03526e-06
5.10616e-08
4.82752e-07
-5.29273e-06
5.46332e-08
3.73531e-07
5.804e-08
2.55158e-07
-5.46777e-06
-2.82822e-06
1.69464e-07
5.80746e-07
-3.31128e-06
1.70495e-07
5.94626e-07
-3.78202e-06
1.71411e-07
5.89923e-07
-4.2236e-06
1.69733e-07
5.5707e-07
-4.61824e-06
1.68322e-07
4.97755e-07
-4.95167e-06
1.66818e-07
4.16616e-07
-5.21559e-06
1.65095e-07
3.20415e-07
1.63008e-07
2.15865e-07
-5.4055e-06
-2.68038e-06
4.3246e-07
3.68399e-07
-3.14573e-06
4.63385e-07
3.64207e-07
-3.60243e-06
4.67489e-07
3.57767e-07
-4.03376e-06
4.44862e-07
3.50446e-07
-4.42508e-06
3.98646e-07
3.43042e-07
-4.76536e-06
3.33348e-07
3.35046e-07
-5.04744e-06
2.54342e-07
3.26286e-07
1.671e-07
3.16863e-07
-5.2679e-06
-3.61899e-06
-2.66153e-07
8.48861e-07
5.08185e-07
-4.28376e-06
-2.56431e-07
9.24376e-07
4.73598e-07
-4.96496e-06
-2.31293e-07
9.54256e-07
4.42154e-07
-5.64523e-06
-2.05632e-07
9.36358e-07
4.13767e-07
-6.30236e-06
-1.82856e-07
8.72343e-07
3.87705e-07
-6.91106e-06
-1.6341e-07
7.64497e-07
3.63599e-07
-7.44325e-06
-1.47099e-07
6.15535e-07
3.41303e-07
-1.33567e-07
4.31304e-07
3.20749e-07
-7.87098e-06
-3.84107e-06
-1.58177e-07
1.11304e-06
-4.51348e-06
-1.44396e-07
1.15804e-06
-5.20091e-06
-1.22919e-07
1.1708e-06
-5.88051e-06
-1.01051e-07
1.13397e-06
-6.528e-06
-8.16413e-08
1.04531e-06
-7.11538e-06
-6.54122e-08
9.065e-07
-7.61075e-06
-5.24224e-08
7.2043e-07
-4.26049e-08
4.94161e-07
-7.98154e-06
-3.90145e-06
-1.20853e-07
1.32988e-06
-4.58198e-06
-1.07589e-07
1.32685e-06
-5.27298e-06
-9.17758e-08
1.33117e-06
-5.95271e-06
-7.5243e-08
1.28887e-06
-6.59622e-06
-5.98398e-08
1.18993e-06
-7.17422e-06
-4.62664e-08
1.03466e-06
-7.65189e-06
-3.48457e-08
8.2597e-07
-2.56096e-08
5.71807e-07
-7.9938e-06
-3.89117e-06
-1.34295e-07
1.42482e-06
-4.56704e-06
-1.05393e-07
1.38899e-06
-5.25861e-06
-9.01216e-08
1.39134e-06
-5.93952e-06
-7.91329e-08
1.35003e-06
-6.5836e-06
-6.85431e-08
1.25018e-06
-7.161e-06
-5.82626e-08
1.09128e-06
-7.63507e-06
-4.86097e-08
8.76312e-07
-3.97622e-08
6.135e-07
-7.96882e-06
-3.85582e-06
-1.01754e-07
1.31835e-06
-4.53121e-06
-7.64819e-08
1.33033e-06
-5.21761e-06
-6.76922e-08
1.33917e-06
-5.89421e-06
-6.22798e-08
1.29984e-06
-6.53558e-06
-5.6681e-08
1.20379e-06
-7.11221e-06
-5.04171e-08
1.05141e-06
-7.58921e-06
-4.36859e-08
8.45454e-07
-3.6646e-08
5.93517e-07
-7.93083e-06
-3.7351e-06
3.17748e-08
1.10668e-06
-4.41513e-06
3.7873e-08
1.16014e-06
-5.10466e-06
3.48059e-08
1.17685e-06
-5.78356e-06
3.00077e-08
1.14352e-06
-6.42819e-06
2.65939e-08
1.05897e-06
-7.01189e-06
2.50642e-08
9.24768e-07
-7.50387e-06
2.5244e-08
7.43376e-07
2.6733e-08
5.21271e-07
-7.87276e-06
-3.48461e-06
8.37838e-07
3.02176e-07
-4.17425e-06
9.12638e-07
2.78191e-07
-4.87099e-06
9.41296e-07
2.57691e-07
-5.55868e-06
9.23057e-07
2.39363e-07
-6.21641e-06
8.59841e-07
2.23021e-07
-6.82059e-06
7.53862e-07
2.08674e-07
-7.34507e-06
6.07558e-07
1.96391e-07
4.2624e-07
1.86175e-07
-7.76376e-06
-4.97006e-06
-1.2528e-07
1.65155e-06
4.42641e-07
-6.17488e-06
-8.8471e-08
1.85107e-06
3.66655e-07
-7.44906e-06
-3.20375e-08
1.95575e-06
3.04809e-07
-8.72077e-06
1.39724e-08
1.94121e-06
2.52932e-07
-9.88689e-06
4.45814e-08
1.78433e-06
2.09623e-07
-1.08311e-05
6.53259e-08
1.47122e-06
1.72272e-07
-1.14392e-05
7.84774e-08
1.00618e-06
1.38887e-07
8.69359e-08
4.08176e-07
1.07775e-07
-1.16107e-05
-5.20352e-06
-4.86032e-08
2.11821e-06
-6.41677e-06
-1.59214e-08
2.29887e-06
-7.70075e-06
2.912e-08
2.39372e-06
-8.98159e-06
6.7388e-08
2.36147e-06
-1.01533e-05
9.27045e-08
2.16885e-06
-1.10827e-05
1.07431e-07
1.7939e-06
-1.16326e-05
1.1316e-07
1.23566e-06
1.11625e-07
5.11307e-07
-1.16743e-05
-5.25866e-06
-9.75558e-08
2.45348e-06
-6.47588e-06
-7.47974e-08
2.60322e-06
-7.76713e-06
-4.74362e-08
2.69908e-06
-9.05645e-06
-2.22345e-08
2.66784e-06
-1.02358e-05
-2.0421e-09
2.46406e-06
-1.11634e-05
1.24574e-08
2.0572e-06
-1.16865e-05
2.18102e-08
1.44049e-06
2.68213e-08
6.27364e-07
-1.16572e-05
-5.22301e-06
-2.05316e-07
2.58843e-06
-6.44197e-06
-1.81365e-07
2.71458e-06
-7.73812e-06
-1.72555e-07
2.81266e-06
-9.03272e-06
-1.63251e-07
2.78573e-06
-1.02163e-05
-1.50217e-07
2.58203e-06
-1.11454e-05
-1.34397e-07
2.16717e-06
-1.16623e-05
-1.1673e-07
1.53178e-06
-9.77304e-08
6.87194e-07
-1.16115e-05
-5.19887e-06
-2.62391e-07
2.44823e-06
-6.40969e-06
-2.5098e-07
2.6108e-06
-7.69778e-06
-2.5686e-07
2.71157e-06
-8.98706e-06
-2.58211e-07
2.6841e-06
-1.0166e-05
-2.5155e-07
2.48406e-06
-1.10921e-05
-2.37689e-07
2.08091e-06
-1.16132e-05
-2.17715e-07
1.46748e-06
-1.92654e-07
6.55652e-07
-1.15804e-05
-5.07712e-06
-1.72787e-07
2.1183e-06
-6.3016e-06
-1.73492e-07
2.30709e-06
-7.59317e-06
-1.9556e-07
2.40708e-06
-8.87711e-06
-2.10847e-07
2.38002e-06
-1.00466e-05
-2.16314e-07
2.19313e-06
-1.09705e-05
-2.13417e-07
1.8243e-06
-1.15125e-05
-2.04408e-07
1.272e-06
-1.90871e-07
5.50911e-07
-1.1544e-05
-4.85259e-06
1.64601e-06
1.84303e-07
-6.08824e-06
1.84583e-06
1.29107e-07
-7.37836e-06
1.95029e-06
8.57209e-08
-8.65198e-06
1.93602e-06
4.98644e-08
-9.80962e-06
1.78015e-06
2.10284e-08
-1.07377e-05
1.46915e-06
-5.79044e-10
-1.13216e-05
1.00713e-06
-2.00984e-08
4.11653e-07
-3.38952e-08
-1.1464e-05
-4.92929e-06
1.64661e-07
1.08768e-07
2.66903e-06
-6.39728e-06
2.66883e-07
-2.95509e-08
3.08169e-06
-8.06488e-06
3.88542e-07
-1.60274e-07
3.39507e-06
-9.91204e-06
4.91979e-07
-2.72055e-07
3.56836e-06
-1.1904e-05
5.72288e-07
-3.65075e-07
3.56916e-06
-1.40016e-05
6.25229e-07
-4.34789e-07
3.37868e-06
-1.61496e-05
6.40646e-07
-4.77423e-07
2.99084e-06
6.12046e-07
-4.86099e-07
-1.83529e-05
2.48555e-06
-5.18443e-06
1.37855e-07
3.40163e-06
-6.6501e-06
2.34151e-07
3.79719e-06
-8.29919e-06
3.2968e-07
4.10167e-06
-1.01148e-05
4.0882e-07
4.26028e-06
-1.20663e-05
4.67319e-07
4.22527e-06
-1.4111e-05
5.01455e-07
3.96256e-06
-1.62007e-05
5.05889e-07
3.46019e-06
4.75885e-07
-1.83725e-05
2.8194e-06
-5.24675e-06
-5.69912e-09
3.90697e-06
-6.73272e-06
5.09053e-08
4.27241e-06
-8.38386e-06
1.03146e-07
4.57671e-06
-1.01963e-05
1.50238e-07
4.73887e-06
-1.2146e-05
1.86306e-07
4.69471e-06
-1.41901e-05
2.08432e-07
4.39431e-06
-1.62746e-05
2.14327e-07
3.81674e-06
2.02646e-07
-1.84527e-05
3.07882e-06
-5.19979e-06
-1.86974e-07
4.10889e-06
-6.71137e-06
-1.68736e-07
4.44564e-06
-8.3815e-06
-1.62941e-07
4.74888e-06
-1.0206e-05
-1.54472e-07
4.91503e-06
-1.21656e-05
-1.43186e-07
4.87119e-06
-1.42187e-05
-1.31326e-07
4.56003e-06
-1.63097e-05
-1.19276e-07
3.95647e-06
-1.05744e-07
-1.84977e-05
3.18369e-06
-5.23628e-06
-3.17801e-07
3.89709e-06
-6.72643e-06
-3.41164e-07
4.27328e-06
-8.38826e-06
-3.71409e-07
4.58179e-06
-1.02144e-05
-3.90987e-07
4.74674e-06
-1.21781e-05
-3.99824e-07
4.70446e-06
-1.42355e-05
-3.98229e-07
4.40521e-06
-1.63327e-05
-3.83242e-07
3.82871e-06
-3.51185e-07
-1.85229e-05
3.09138e-06
-5.16513e-06
-3.01819e-07
3.39321e-06
-6.65433e-06
-3.40027e-07
3.79519e-06
-8.32689e-06
-3.9459e-07
4.10282e-06
-1.01659e-05
-4.35251e-07
4.2633e-06
-1.21403e-05
-4.61953e-07
4.2297e-06
-1.42079e-05
-4.74402e-07
3.96806e-06
-1.63212e-05
-4.65824e-07
3.46779e-06
-4.3283e-07
-1.85178e-05
2.82917e-06
-4.96453e-06
2.35909e-08
2.6568e-06
-6.46361e-06
-6.21313e-08
3.06708e-06
-8.15269e-06
-1.31514e-07
3.37638e-06
-1.00101e-05
-1.86879e-07
3.54506e-06
-1.20053e-05
-2.28444e-07
3.54189e-06
-1.41035e-05
-2.55799e-07
3.34866e-06
-1.62559e-05
-2.67508e-07
2.96124e-06
-2.63177e-07
-1.84723e-05
2.45833e-06
-1.63654e-06
2.87406e-07
1.78303e-07
-1.71637e-07
-1.93727e-06
2.76159e-07
1.90208e-07
-1.66286e-07
-2.29511e-06
2.68805e-07
1.87891e-07
-9.88835e-08
-2.67556e-06
2.72175e-07
1.77841e-07
-6.89816e-08
-3.05853e-06
2.75327e-07
1.57951e-07
-5.03882e-08
-3.41736e-06
2.63631e-07
1.29002e-07
-3.368e-08
-3.7498e-06
2.58897e-07
9.28979e-08
-1.93549e-08
2.53554e-07
5.0126e-08
-9.0332e-09
-4.04453e-06
-1.5331e-06
3.60911e-07
2.59244e-07
-1.78684e-06
2.71349e-07
2.58458e-07
-2.06921e-06
2.96682e-07
2.55356e-07
-2.33265e-06
2.91345e-07
2.44765e-07
-2.5733e-06
2.89312e-07
2.24479e-07
-2.80349e-06
2.99245e-07
1.93998e-07
-3.00983e-06
3.06491e-07
1.61202e-07
3.16232e-07
1.24095e-07
-3.1959e-06
-1.6278e-06
2.30539e-07
3.47813e-07
-1.83689e-06
1.52044e-07
3.27542e-07
-2.0482e-06
1.75865e-07
3.31707e-07
-2.26343e-06
1.78764e-07
3.28811e-07
-2.48861e-06
1.93885e-07
3.20696e-07
-2.70597e-06
2.15592e-07
3.00812e-07
-2.88997e-06
2.2194e-07
2.68579e-07
2.36313e-07
2.39119e-07
-3.04904e-06
-1.73803e-06
1.48559e-08
4.20493e-07
-1.96967e-06
4.53456e-09
3.79699e-07
-2.17852e-06
-9.8322e-09
3.94477e-07
-2.38734e-06
-2.29776e-08
4.10046e-07
-2.56007e-06
-5.1958e-08
4.18668e-07
-2.66815e-06
-9.20176e-08
4.15708e-07
-2.73183e-06
-1.14115e-07
3.99763e-07
-1.31924e-07
3.78437e-07
-2.74199e-06
-1.49576e-06
-1.17466e-07
3.52684e-07
-1.79394e-06
-3.93309e-08
3.42606e-07
-2.02026e-06
-1.29361e-07
3.46285e-07
-2.24652e-06
-1.45857e-07
3.49173e-07
-2.47742e-06
-1.64556e-07
3.43037e-07
-2.70841e-06
-1.89684e-07
3.28742e-07
-2.89024e-06
-2.30263e-07
2.98036e-07
-2.5095e-07
2.5807e-07
-3.02919e-06
-1.59011e-06
-6.75462e-08
2.70556e-07
-1.85259e-06
-4.72717e-08
2.68966e-07
-2.13976e-06
-1.10579e-07
2.6855e-07
-2.40174e-06
-1.38236e-07
2.54501e-07
-2.64602e-06
-1.52182e-07
2.32036e-07
-2.88402e-06
-1.48836e-07
1.97738e-07
-3.13274e-06
-1.4688e-07
1.65918e-07
-1.57873e-07
1.27892e-07
-3.3543e-06
-1.67476e-06
1.86764e-07
2.81332e-08
-1.96531e-06
1.97537e-07
4.58017e-08
-2.32758e-06
1.97525e-07
5.42273e-08
-2.71668e-06
1.87315e-07
6.4374e-08
-3.11225e-06
1.66359e-07
7.71041e-08
-3.49045e-06
1.371e-07
9.14281e-08
-3.83832e-06
1.00528e-07
1.00495e-07
5.67285e-08
1.03626e-07
-4.15654e-06
-2.05112e-06
2.48958e-07
4.40249e-07
-5.30775e-08
-2.52716e-06
2.42447e-07
4.64766e-07
-4.1054e-08
-3.00393e-06
2.30261e-07
4.61208e-07
-2.69956e-08
-3.46009e-06
2.2102e-07
4.28889e-07
-1.6042e-08
-3.87953e-06
2.13829e-07
3.70803e-07
-7.40396e-09
-4.24994e-06
2.0789e-07
2.92018e-07
-6.23556e-10
-4.56185e-06
2.02667e-07
1.98351e-07
3.73354e-09
1.98032e-07
9.39952e-08
6.37566e-09
-4.81027e-06
-2.12217e-06
2.76445e-07
6.20995e-07
-2.53143e-06
2.79828e-07
6.30252e-07
-2.95201e-06
2.81128e-07
6.24991e-07
-3.35965e-06
2.82543e-07
5.91006e-07
-3.73436e-06
2.85229e-07
5.27871e-07
-4.06203e-06
2.89053e-07
4.40411e-07
-4.32649e-06
2.93199e-07
3.35166e-07
2.96479e-07
2.19174e-07
-4.52e-06
-2.0125e-06
1.96322e-07
8.09249e-07
-2.37081e-06
1.84162e-07
7.81473e-07
-2.72722e-06
1.8081e-07
7.88171e-07
-3.06626e-06
1.76418e-07
7.73882e-07
-3.36403e-06
1.73133e-07
7.30481e-07
-3.60537e-06
1.7047e-07
6.60627e-07
-3.78292e-06
1.68227e-07
5.7102e-07
1.66798e-07
4.68309e-07
-3.88245e-06
-1.90195e-06
1.30802e-07
9.46904e-07
-2.27369e-06
7.42028e-08
8.61369e-07
-2.61471e-06
3.8989e-08
8.77404e-07
-2.91869e-06
1.00672e-08
8.80423e-07
-3.16814e-06
-1.50623e-08
8.56309e-07
-3.34833e-06
-3.82658e-08
8.04665e-07
-3.45313e-06
-5.91515e-08
7.31894e-07
-7.78467e-08
6.46996e-07
-3.47707e-06
-2.03276e-06
1.56289e-08
8.44228e-07
-2.38487e-06
-3.34852e-08
8.02319e-07
-2.73492e-06
-7.17722e-08
8.07014e-07
-3.06915e-06
-9.91522e-08
7.92573e-07
-3.36596e-06
-1.24668e-07
7.49383e-07
-3.60557e-06
-1.48337e-07
6.78392e-07
-3.78058e-06
-1.70637e-07
5.84465e-07
-1.90228e-07
4.77655e-07
-3.88784e-06
-2.23007e-06
-7.3789e-09
6.4283e-07
-2.61325e-06
-2.92728e-08
6.47886e-07
-3.01642e-06
-4.15301e-08
6.41412e-07
-3.41654e-06
-5.03851e-08
6.05837e-07
-3.79143e-06
-5.81313e-08
5.40347e-07
-4.12651e-06
-6.56713e-08
4.50144e-07
-4.40004e-06
-7.2881e-08
3.41721e-07
-8.03022e-08
2.22062e-07
-4.60408e-06
-2.17187e-06
4.57142e-07
1.30293e-07
-2.61842e-06
4.83759e-07
1.30905e-07
-3.07643e-06
4.82088e-07
1.31775e-07
-3.52362e-06
4.50724e-07
1.3334e-07
-3.94264e-06
3.92863e-07
1.34369e-07
-4.31871e-06
3.13638e-07
1.33804e-07
-4.64144e-06
2.19133e-07
1.31165e-07
1.14578e-07
1.26299e-07
-4.90593e-06
-2.8562e-06
2.6897e-07
8.58101e-07
-5.32762e-09
-3.55715e-06
2.46122e-07
9.27177e-07
-7.55476e-09
-4.27134e-06
2.35079e-07
9.4786e-07
-7.61873e-09
-4.97851e-06
2.24364e-07
9.19092e-07
-7.36466e-09
-5.65574e-06
2.12332e-07
8.42945e-07
-7.38116e-09
-6.27772e-06
1.99583e-07
7.2224e-07
-7.86755e-09
-6.81792e-06
1.8704e-07
5.60371e-07
-8.79984e-09
1.75645e-07
3.63895e-07
-9.89496e-09
-7.25366e-06
-2.89845e-06
3.11645e-07
1.16781e-06
-3.54347e-06
2.9968e-07
1.22165e-06
-4.21055e-06
2.87764e-07
1.23932e-06
-4.87553e-06
2.75019e-07
1.20536e-06
-5.51314e-06
2.60181e-07
1.11767e-06
-6.09482e-06
2.44137e-07
9.77486e-07
-6.58802e-06
2.2797e-07
7.87412e-07
2.13075e-07
5.54454e-07
-6.96078e-06
-2.76817e-06
1.95707e-07
1.44282e-06
-3.33446e-06
1.79084e-07
1.46838e-06
-3.92832e-06
1.67134e-07
1.50261e-06
-4.52511e-06
1.54171e-07
1.49147e-06
-5.09898e-06
1.40004e-07
1.42443e-06
-5.61192e-06
1.25357e-07
1.29852e-06
-6.04083e-06
1.11626e-07
1.11526e-06
9.87746e-08
8.81313e-07
-6.34057e-06
-2.56291e-06
9.10423e-08
1.60659e-06
-3.13132e-06
2.96555e-08
1.57916e-06
-3.70265e-06
-7.46025e-09
1.62328e-06
-4.26477e-06
-3.2424e-08
1.62964e-06
-4.79667e-06
-5.29389e-08
1.5812e-06
-5.27193e-06
-6.9841e-08
1.47462e-06
-5.65551e-06
-8.24603e-08
1.30951e-06
-9.17386e-08
1.09314e-06
-5.91124e-06
-2.77834e-06
-3.22563e-08
1.4709e-06
-3.33922e-06
-8.72834e-08
1.47996e-06
-3.93208e-06
-1.16889e-07
1.50917e-06
-4.52883e-06
-1.36772e-07
1.49357e-06
-5.09751e-06
-1.50416e-07
1.42073e-06
-5.62005e-06
-1.5863e-07
1.28866e-06
-6.05403e-06
-1.63017e-07
1.09786e-06
-1.64635e-07
8.5631e-07
-6.36089e-06
-2.99907e-06
-3.24521e-08
1.18549e-06
-3.61941e-06
-5.12166e-08
1.23204e-06
-4.27265e-06
-6.78435e-08
1.24541e-06
-4.93069e-06
-7.92319e-08
1.20615e-06
-5.56615e-06
-8.6411e-08
1.11181e-06
-6.1483e-06
-9.05017e-08
9.64046e-07
-6.64314e-06
-9.26231e-08
7.66047e-07
-9.34815e-08
5.25611e-07
-7.01789e-06
-2.96803e-06
8.74473e-07
1.77514e-07
-3.63665e-06
9.448e-07
1.56283e-07
-4.33015e-06
9.66356e-07
1.4128e-07
-5.02554e-06
9.3715e-07
1.29606e-07
-5.69751e-06
8.59323e-07
1.1908e-07
-6.31911e-06
7.35954e-07
1.08737e-07
-6.86177e-06
5.70767e-07
9.83064e-08
3.70812e-07
8.79646e-08
-7.2995e-06
-4.40618e-06
3.46523e-07
1.67081e-06
1.77329e-08
-5.65654e-06
3.06664e-07
1.86875e-06
2.21385e-09
-6.9591e-06
2.89457e-07
1.96996e-06
-9.00753e-09
-8.23987e-06
2.67017e-07
1.95126e-06
-1.83436e-08
-9.39803e-06
2.38097e-07
1.78919e-06
-2.62552e-08
-1.03165e-05
2.05073e-07
1.46874e-06
-3.31428e-08
-1.08795e-05
1.70308e-07
9.92474e-07
-3.93228e-08
1.35927e-07
3.79669e-07
-4.4977e-08
-1.09862e-05
-4.38332e-06
3.96788e-07
2.17785e-06
-5.59102e-06
3.61953e-07
2.37398e-06
-6.8753e-06
3.32639e-07
2.48038e-06
-8.1577e-06
2.95966e-07
2.45882e-06
-9.3297e-06
2.52818e-07
2.27504e-06
-1.02553e-05
2.03836e-07
1.90422e-06
-1.07928e-05
1.53757e-07
1.34148e-06
1.03302e-07
5.99818e-07
-1.08055e-05
-4.16959e-06
2.16649e-07
2.55483e-06
-5.28019e-06
1.92754e-07
2.74814e-06
-6.49447e-06
1.71294e-07
2.87901e-06
-7.736e-06
1.45722e-07
2.88292e-06
-8.88978e-06
1.16786e-07
2.71384e-06
-9.81397e-06
8.91265e-08
2.33579e-06
-1.03462e-05
6.24437e-08
1.73652e-06
3.72727e-08
9.18302e-07
-1.03162e-05
-3.88384e-06
3.96248e-08
2.72872e-06
-4.99122e-06
-1.79245e-08
2.89743e-06
-6.19101e-06
-4.74497e-08
3.04203e-06
-7.41588e-06
-6.62502e-08
3.06602e-06
-8.55858e-06
-7.45405e-08
2.91544e-06
-9.47146e-06
-7.52647e-08
2.55166e-06
-9.9892e-06
-6.95564e-08
1.95918e-06
-5.92723e-08
1.13505e-06
-9.93465e-06
-4.16902e-06
-1.3514e-07
2.56763e-06
-5.28617e-06
-1.68188e-07
2.74762e-06
-6.51161e-06
-1.86546e-07
2.87133e-06
-7.76432e-06
-1.88389e-07
2.86845e-06
-8.92736e-06
-1.76829e-07
2.69133e-06
-9.86842e-06
-1.54535e-07
2.30602e-06
-1.04116e-05
-1.26085e-07
1.69834e-06
-9.37305e-08
8.75127e-07
-1.03959e-05
-4.45356e-06
-1.10296e-07
2.1847e-06
-5.64512e-06
-1.17576e-07
2.37301e-06
-6.92504e-06
-1.34148e-07
2.47281e-06
-8.21054e-06
-1.40595e-07
2.44373e-06
-9.39015e-06
-1.37152e-07