/*--------------------------------*- C++ -*----------------------------------*\
| =========                 |                                                 |
| \\      /  F ield         | OpenFOAM: The Open Source CFD Toolbox           |
|  \\    /   O peration     | Version:  plus.master                           |
|   \\  /    A nd           | Web:      www.OpenFOAM.com                      |
|    \\/     M anipulation  |                                                 |
\*---------------------------------------------------------------------------*/
FoamFile
{
    version     2.0;
    format      ascii;
    class       scalarField;
    location    "1.8/lagrangian/kinematicCloud";
    object      age;
}
// * * * * * * * * * * * * * * * * * * * * * * * * * * * * * * * * * * * * * //


96597
(
1.80119
1.80117
1.80115
1.80113
1.80111
1.80109
1.80107
1.80106
1.80104
1.80102
1.801
1.80098
1.80096
1.80095
1.80093
1.80091
1.80089
1.80088
1.80086
1.80084
1.80083
1.80081
1.80079
1.80078
1.80076
1.80075
1.80073
1.80072
1.8007
1.80068
1.80067
1.80065
1.80064
1.80063
1.80061
1.8006
1.80058
1.80057
1.80056
1.80054
1.80053
1.80052
1.8005
1.80049
1.80048
1.80047
1.80045
1.80044
1.80043
1.80042
1.80041
1.80039
1.80038
1.80037
1.80036
1.80035
1.80034
1.80033
1.80032
1.80031
1.8003
1.80029
1.80028
1.80027
1.80026
1.80025
1.80024
1.80023
1.80022
1.80022
1.80021
1.8002
1.80019
1.80018
1.80017
1.80017
1.80016
1.80015
1.80015
1.80014
1.80013
1.80013
1.80012
1.80011
1.80011
1.8001
1.8001
1.80009
1.80008
1.80008
1.80007
1.80007
1.80006
1.80006
1.80006
1.80005
1.80005
1.80004
1.80004
1.80004
1.80003
1.80003
1.80003
1.80002
1.80002
1.80002
1.80002
1.80001
1.80001
1.80001
1.80001
1.80001
1.80001
1.8
1.8
1.8
1.8
1.8
1.8
1.8
1.80023
1.80021
1.80019
1.80017
1.80015
1.80013
1.80011
1.80009
1.80008
1.80006
1.80004
1.80002
1.8
1.79998
1.79997
1.79995
1.79993
1.79991
1.79989
1.79988
1.79986
1.79984
1.79983
1.79981
1.79979
1.79978
1.79976
1.79974
1.79973
1.79971
1.7997
1.79968
1.79967
1.79965
1.79963
1.79962
1.7996
1.79959
1.79958
1.79956
1.79955
1.79953
1.79952
1.7995
1.79949
1.79948
1.79946
1.79945
1.79944
1.79942
1.79941
1.7994
1.79938
1.79937
1.79936
1.79935
1.79934
1.79932
1.79931
1.7993
1.79929
1.79928
1.79927
1.79925
1.79924
1.79923
1.79922
1.79921
1.7992
1.79919
1.79918
1.79917
1.79916
1.79915
1.79914
1.79913
1.79912
1.79911
1.7991
1.79909
1.79909
1.79908
1.79907
1.79906
1.79905
1.79904
1.79904
1.79903
1.79902
1.79901
1.799
1.799
1.79899
1.79898
1.79898
1.79897
1.79896
1.79896
1.79895
1.79894
1.79894
1.79893
1.79893
1.79892
1.79892
1.79891
1.7989
1.7989
1.79889
1.79889
1.79889
1.79888
1.79888
1.79887
1.79887
1.79886
1.79886
1.79886
1.79885
1.79885
1.79885
1.79884
1.79884
1.79884
1.79883
1.79883
1.79883
1.79883
1.79883
1.79882
1.79882
1.79882
1.79882
1.79882
1.79882
1.79881
1.79881
1.79881
1.79881
1.79881
1.79881
1.79881
1.79881
1.79909
1.79907
1.79905
1.79903
1.79901
1.79899
1.79897
1.79895
1.79894
1.79892
1.7989
1.79888
1.79886
1.79884
1.79882
1.79881
1.79879
1.79877
1.79875
1.79873
1.79872
1.7987
1.79868
1.79866
1.79865
1.79863
1.79861
1.7986
1.79858
1.79856
1.79855
1.79853
1.79851
1.7985
1.79848
1.79847
1.79845
1.79843
1.79842
1.7984
1.79839
1.79837
1.79836
1.79834
1.79833
1.79831
1.7983
1.79828
1.79827
1.79826
1.79824
1.79823
1.79821
1.7982
1.79819
1.79817
1.79816
1.79815
1.79813
1.79812
1.79811
1.79809
1.79808
1.79807
1.79806
1.79804
1.79803
1.79802
1.79801
1.79799
1.79798
1.79797
1.79796
1.79795
1.79794
1.79793
1.79791
1.7979
1.79789
1.79788
1.79787
1.79786
1.79785
1.79784
1.79783
1.79782
1.79781
1.7978
1.79779
1.79778
1.79777
1.79776
1.79775
1.79774
1.79773
1.79773
1.79772
1.79771
1.7977
1.79769
1.79768
1.79767
1.79767
1.79766
1.79765
1.79764
1.79764
1.79763
1.79762
1.79761
1.79761
1.7976
1.79759
1.79759
1.79758
1.79757
1.79757
1.79756
1.79755
1.79755
1.79754
1.79753
1.79753
1.79752
1.79752
1.79751
1.79751
1.7975
1.7975
1.79749
1.79749
1.79748
1.79748
1.79747
1.79747
1.79746
1.79746
1.79746
1.79745
1.79745
1.79745
1.79744
1.79744
1.79744
1.79743
1.79743
1.79743
1.79742
1.79742
1.79742
1.79742
1.79741
1.79741
1.79741
1.79741
1.7974
1.7974
1.7974
1.7974
1.7974
1.7974
1.7974
1.79739
1.79739
1.79739
1.79739
1.79739
1.79739
1.79739
1.79739
1.79739
1.79773
1.79771
1.79769
1.79767
1.79765
1.79763
1.79761
1.79759
1.79757
1.79755
1.79753
1.79751
1.79749
1.79747
1.79746
1.79744
1.79742
1.7974
1.79738
1.79736
1.79735
1.79733
1.79731
1.79729
1.79727
1.79726
1.79724
1.79722
1.79721
1.79719
1.79717
1.79715
1.79714
1.79712
1.7971
1.79709
1.79707
1.79705
1.79704
1.79702
1.79701
1.79699
1.79697
1.79696
1.79694
1.79693
1.79691
1.7969
1.79688
1.79686
1.79685
1.79683
1.79682
1.7968
1.79679
1.79678
1.79676
1.79675
1.79673
1.79672
1.7967
1.79669
1.79668
1.79666
1.79665
1.79663
1.79662
1.79661
1.79659
1.79658
1.79657
1.79655
1.79654
1.79653
1.79652
1.7965
1.79649
1.79648
1.79647
1.79645
1.79644
1.79643
1.79642
1.7964
1.79639
1.79638
1.79637
1.79636
1.79635
1.79634
1.79632
1.79631
1.7963
1.79629
1.79628
1.79627
1.79626
1.79625
1.79624
1.79623
1.79622
1.79621
1.7962
1.79619
1.79618
1.79617
1.79616
1.79615
1.79614
1.79613
1.79612
1.79611
1.7961
1.79609
1.79608
1.79608
1.79607
1.79606
1.79605
1.79604
1.79603
1.79603
1.79602
1.79601
1.796
1.79599
1.79599
1.79598
1.79597
1.79596
1.79596
1.79595
1.79594
1.79593
1.79593
1.79592
1.79591
1.79591
1.7959
1.79589
1.79589
1.79588
1.79588
1.79587
1.79586
1.79586
1.79585
1.79585
1.79584
1.79584
1.79583
1.79583
1.79582
1.79582
1.79581
1.79581
1.7958
1.7958
1.79579
1.79579
1.79578
1.79578
1.79577
1.79577
1.79577
1.79576
1.79576
1.79575
1.79575
1.79575
1.79574
1.79574
1.79574
1.79573
1.79573
1.79573
1.79573
1.79572
1.79572
1.79572
1.79572
1.79571
1.79571
1.79571
1.79571
1.79571
1.7957
1.7957
1.7957
1.7957
1.7957
1.7957
1.79569
1.79569
1.79569
1.79569
1.79569
1.79569
1.79569
1.79569
1.79569
1.79569
1.79569
1.79569
1.79607
1.79605
1.79603
1.79601
1.79599
1.79597
1.79595
1.79593
1.79591
1.79589
1.79587
1.79586
1.79584
1.79582
1.7958
1.79578
1.79576
1.79574
1.79572
1.79571
1.79569
1.79567
1.79565
1.79563
1.79562
1.7956
1.79558
1.79556
1.79554
1.79553
1.79551
1.79549
1.79547
1.79546
1.79544
1.79542
1.79541
1.79539
1.79537
1.79536
1.79534
1.79532
1.79531
1.79529
1.79527
1.79526
1.79524
1.79522
1.79521
1.79519
1.79518
1.79516
1.79514
1.79513
1.79511
1.7951
1.79508
1.79507
1.79505
1.79504
1.79502
1.79501
1.79499
1.79498
1.79496
1.79495
1.79493
1.79492
1.7949
1.79489
1.79488
1.79486
1.79485
1.79483
1.79482
1.79481
1.79479
1.79478
1.79477
1.79475
1.79474
1.79473
1.79471
1.7947
1.79469
1.79467
1.79466
1.79465
1.79463
1.79462
1.79461
1.7946
1.79458
1.79457
1.79456
1.79455
1.79454
1.79452
1.79451
1.7945
1.79449
1.79448
1.79446
1.79445
1.79444
1.79443
1.79442
1.79441
1.7944
1.79439
1.79437
1.79436
1.79435
1.79434
1.79433
1.79432
1.79431
1.7943
1.79429
1.79428
1.79427
1.79426
1.79425
1.79424
1.79423
1.79422
1.79421
1.7942
1.79419
1.79418
1.79417
1.79416
1.79415
1.79415
1.79414
1.79413
1.79412
1.79411
1.7941
1.79409
1.79408
1.79408
1.79407
1.79406
1.79405
1.79404
1.79404
1.79403
1.79402
1.79401
1.794
1.794
1.79399
1.79398
1.79397
1.79397
1.79396
1.79395
1.79395
1.79394
1.79393
1.79393
1.79392
1.79391
1.79391
1.7939
1.79389
1.79389
1.79388
1.79387
1.79387
1.79386
1.79386
1.79385
1.79384
1.79384
1.79383
1.79383
1.79382
1.79382
1.79381
1.79381
1.7938
1.7938
1.79379
1.79379
1.79378
1.79378
1.79377
1.79377
1.79376
1.79376
1.79376
1.79375
1.79375
1.79374
1.79374
1.79374
1.79373
1.79373
1.79373
1.79372
1.79372
1.79371
1.79371
1.79371
1.79371
1.7937
1.7937
1.7937
1.79369
1.79369
1.79369
1.79369
1.79368
1.79368
1.79368
1.79368
1.79368
1.79367
1.79367
1.79367
1.79367
1.79367
1.79366
1.79366
1.79366
1.79366
1.79366
1.79366
1.79366
1.79366
1.79365
1.79365
1.79365
1.79365
1.79365
1.79365
1.79365
1.79365
1.79365
1.79365
1.79365
1.79413
1.79411
1.79409
1.79407
1.79405
1.79403
1.79401
1.79399
1.79397
1.79395
1.79393
1.79391
1.79389
1.79387
1.79385
1.79383
1.79382
1.7938
1.79378
1.79376
1.79374
1.79372
1.7937
1.79368
1.79367
1.79365
1.79363
1.79361
1.79359
1.79358
1.79356
1.79354
1.79352
1.7935
1.79349
1.79347
1.79345
1.79343
1.79342
1.7934
1.79338
1.79336
1.79335
1.79333
1.79331
1.7933
1.79328
1.79326
1.79325
1.79323
1.79321
1.7932
1.79318
1.79316
1.79315
1.79313
1.79312
1.7931
1.79308
1.79307
1.79305
1.79304
1.79302
1.793
1.79299
1.79297
1.79296
1.79294
1.79293
1.79291
1.7929
1.79288
1.79287
1.79285
1.79284
1.79282
1.79281
1.79279
1.79278
1.79276
1.79275
1.79273
1.79272
1.79271
1.79269
1.79268
1.79266
1.79265
1.79263
1.79262
1.79261
1.79259
1.79258
1.79257
1.79255
1.79254
1.79253
1.79251
1.7925
1.79249
1.79247
1.79246
1.79245
1.79243
1.79242
1.79241
1.7924
1.79238
1.79237
1.79236
1.79235
1.79233
1.79232
1.79231
1.7923
1.79228
1.79227
1.79226
1.79225
1.79224
1.79222
1.79221
1.7922
1.79219
1.79218
1.79217
1.79216
1.79214
1.79213
1.79212
1.79211
1.7921
1.79209
1.79208
1.79207
1.79206
1.79205
1.79204
1.79202
1.79201
1.792
1.79199
1.79198
1.79197
1.79196
1.79195
1.79194
1.79193
1.79192
1.79191
1.7919
1.79189
1.79188
1.79188
1.79187
1.79186
1.79185
1.79184
1.79183
1.79182
1.79181
1.7918
1.79179
1.79178
1.79178
1.79177
1.79176
1.79175
1.79174
1.79173
1.79172
1.79172
1.79171
1.7917
1.79169
1.79168
1.79168
1.79167
1.79166
1.79165
1.79165
1.79164
1.79163
1.79162
1.79162
1.79161
1.7916
1.79159
1.79159
1.79158
1.79157
1.79157
1.79156
1.79155
1.79155
1.79154
1.79153
1.79153
1.79152
1.79151
1.79151
1.7915
1.7915
1.79149
1.79148
1.79148
1.79147
1.79147
1.79146
1.79145
1.79145
1.79144
1.79144
1.79143
1.79143
1.79142
1.79142
1.79141
1.79141
1.7914
1.7914
1.79139
1.79139
1.79138
1.79138
1.79137
1.79137
1.79137
1.79136
1.79136
1.79135
1.79135
1.79134
1.79134
1.79134
1.79133
1.79133
1.79133
1.79132
1.79132
1.79131
1.79131
1.79131
1.7913
1.7913
1.7913
1.7913
1.79129
1.79129
1.79129
1.79128
1.79128
1.79128
1.79128
1.79127
1.79127
1.79127
1.79127
1.79126
1.79126
1.79126
1.79126
1.79126
1.79125
1.79125
1.79125
1.79125
1.79125
1.79125
1.79124
1.79124
1.79124
1.79124
1.79124
1.79124
1.79124
1.79124
1.79123
1.79123
1.79123
1.79123
1.79123
1.79123
1.79123
1.79123
1.79123
1.79123
1.79123
1.79123
1.79123
1.79176
1.79174
1.79172
1.7917
1.79168
1.79166
1.79164
1.79162
1.7916
1.79158
1.79156
1.79154
1.79152
1.7915
1.79148
1.79146
1.79144
1.79142
1.7914
1.79139
1.79137
1.79135
1.79133
1.79131
1.79129
1.79127
1.79125
1.79124
1.79122
1.7912
1.79118
1.79116
1.79114
1.79113
1.79111
1.79109
1.79107
1.79105
1.79104
1.79102
1.791
1.79098
1.79097
1.79095
1.79093
1.79091
1.7909
1.79088
1.79086
1.79084
1.79083
1.79081
1.79079
1.79078
1.79076
1.79074
1.79073
1.79071
1.79069
1.79068
1.79066
1.79064
1.79063
1.79061
1.79059
1.79058
1.79056
1.79055
1.79053
1.79051
1.7905
1.79048
1.79047
1.79045
1.79043
1.79042
1.7904
1.79039
1.79037
1.79036
1.79034
1.79033
1.79031
1.7903
1.79028
1.79027
1.79025
1.79024
1.79022
1.79021
1.79019
1.79018
1.79016
1.79015
1.79013
1.79012
1.7901
1.79009
1.79007
1.79006
1.79005
1.79003
1.79002
1.79
1.78999
1.78998
1.78996
1.78995
1.78993
1.78992
1.78991
1.78989
1.78988
1.78987
1.78985
1.78984
1.78983
1.78981
1.7898
1.78979
1.78977
1.78976
1.78975
1.78974
1.78972
1.78971
1.7897
1.78968
1.78967
1.78966
1.78965
1.78963
1.78962
1.78961
1.7896
1.78959
1.78957
1.78956
1.78955
1.78954
1.78953
1.78951
1.7895
1.78949
1.78948
1.78947
1.78946
1.78944
1.78943
1.78942
1.78941
1.7894
1.78939
1.78938
1.78937
1.78936
1.78934
1.78933
1.78932
1.78931
1.7893
1.78929
1.78928
1.78927
1.78926
1.78925
1.78924
1.78923
1.78922
1.78921
1.7892
1.78919
1.78918
1.78917
1.78916
1.78915
1.78914
1.78913
1.78912
1.78911
1.7891
1.78909
1.78908
1.78907
1.78906
1.78905
1.78904
1.78903
1.78903
1.78902
1.78901
1.789
1.78899
1.78898
1.78897
1.78896
1.78896
1.78895
1.78894
1.78893
1.78892
1.78891
1.78891
1.7889
1.78889
1.78888
1.78887
1.78886
1.78886
1.78885
1.78884
1.78883
1.78883
1.78882
1.78881
1.7888
1.7888
1.78879
1.78878
1.78877
1.78877
1.78876
1.78875
1.78875
1.78874
1.78873
1.78873
1.78872
1.78871
1.78871
1.7887
1.78869
1.78869
1.78868
1.78867
1.78867
1.78866
1.78865
1.78865
1.78864
1.78864
1.78863
1.78862
1.78862
1.78861
1.78861
1.7886
1.7886
1.78859
1.78858
1.78858
1.78857
1.78857
1.78856
1.78856
1.78855
1.78855
1.78854
1.78854
1.78853
1.78853
1.78852
1.78852
1.78851
1.78851
1.7885
1.7885
1.7885
1.78849
1.78849
1.78848
1.78848
1.78847
1.78847
1.78847
1.78846
1.78846
1.78846
1.78845
1.78845
1.78844
1.78844
1.78844
1.78843
1.78843
1.78843
1.78842
1.78842
1.78842
1.78841
1.78841
1.78841
1.7884
1.7884
1.7884
1.7884
1.78839
1.78839
1.78839
1.78839
1.78838
1.78838
1.78838
1.78838
1.78837
1.78837
1.78837
1.78837
1.78837
1.78836
1.78836
1.78836
1.78836
1.78836
1.78835
1.78835
1.78835
1.78835
1.78835
1.78835
1.78835
1.78834
1.78834
1.78834
1.78834
1.78834
1.78834
1.78834
1.78834
1.78834
1.78834
1.78833
1.78833
1.78833
1.78833
1.78833
1.78833
1.78833
1.78833
1.78833
1.78833
1.78833
1.78893
1.78891
1.78889
1.78887
1.78885
1.78883
1.78881
1.78879
1.78877
1.78875
1.78873
1.78871
1.78869
1.78867
1.78865
1.78863
1.78861
1.78859
1.78857
1.78856
1.78854
1.78852
1.7885
1.78848
1.78846
1.78844
1.78842
1.78841
1.78839
1.78837
1.78835
1.78833
1.78831
1.78829
1.78828
1.78826
1.78824
1.78822
1.7882
1.78818
1.78817
1.78815
1.78813
1.78811
1.7881
1.78808
1.78806
1.78804
1.78802
1.78801
1.78799
1.78797
1.78795
1.78794
1.78792
1.7879
1.78788
1.78787
1.78785
1.78783
1.78782
1.7878
1.78778
1.78777
1.78775
1.78773
1.78772
1.7877
1.78768
1.78767
1.78765
1.78763
1.78762
1.7876
1.78758
1.78757
1.78755
1.78753
1.78752
1.7875
1.78749
1.78747
1.78745
1.78744
1.78742
1.78741
1.78739
1.78738
1.78736
1.78734
1.78733
1.78731
1.7873
1.78728
1.78727
1.78725
1.78724
1.78722
1.78721
1.78719
1.78718
1.78716
1.78715
1.78713
1.78712
1.7871
1.78709
1.78707
1.78706
1.78704
1.78703
1.78701
1.787
1.78698
1.78697
1.78696
1.78694
1.78693
1.78691
1.7869
1.78689
1.78687
1.78686
1.78684
1.78683
1.78682
1.7868
1.78679
1.78677
1.78676
1.78675
1.78673
1.78672
1.78671
1.78669
1.78668
1.78667
1.78665
1.78664
1.78663
1.78661
1.7866
1.78659
1.78658
1.78656
1.78655
1.78654
1.78652
1.78651
1.7865
1.78649
1.78647
1.78646
1.78645
1.78644
1.78642
1.78641
1.7864
1.78639
1.78638
1.78636
1.78635
1.78634
1.78633
1.78632
1.7863
1.78629
1.78628
1.78627
1.78626
1.78625
1.78623
1.78622
1.78621
1.7862
1.78619
1.78618
1.78617
1.78616
1.78614
1.78613
1.78612
1.78611
1.7861
1.78609
1.78608
1.78607
1.78606
1.78605
1.78604
1.78603
1.78601
1.786
1.78599
1.78598
1.78597
1.78596
1.78595
1.78594
1.78593
1.78592
1.78591
1.7859
1.78589
1.78588
1.78587
1.78586
1.78585
1.78584
1.78583
1.78582
1.78581
1.78581
1.7858
1.78579
1.78578
1.78577
1.78576
1.78575
1.78574
1.78573
1.78572
1.78571
1.7857
1.7857
1.78569
1.78568
1.78567
1.78566
1.78565
1.78564
1.78563
1.78563
1.78562
1.78561
1.7856
1.78559
1.78558
1.78558
1.78557
1.78556
1.78555
1.78554
1.78554
1.78553
1.78552
1.78551
1.7855
1.7855
1.78549
1.78548
1.78547
1.78547
1.78546
1.78545
1.78544
1.78544
1.78543
1.78542
1.78542
1.78541
1.7854
1.78539
1.78539
1.78538
1.78537
1.78537
1.78536
1.78535
1.78535
1.78534
1.78533
1.78533
1.78532
1.78531
1.78531
1.7853
1.7853
1.78529
1.78528
1.78528
1.78527
1.78527
1.78526
1.78525
1.78525
1.78524
1.78524
1.78523
1.78522
1.78522
1.78521
1.78521
1.7852
1.7852
1.78519
1.78519
1.78518
1.78518
1.78517
1.78517
1.78516
1.78516
1.78515
1.78515
1.78514
1.78514
1.78513
1.78513
1.78512
1.78512
1.78511
1.78511
1.7851
1.7851
1.7851
1.78509
1.78509
1.78508
1.78508
1.78507
1.78507
1.78507
1.78506
1.78506
1.78505
1.78505
1.78505
1.78504
1.78504
1.78504
1.78503
1.78503
1.78503
1.78502
1.78502
1.78502
1.78501
1.78501
1.78501
1.785
1.785
1.785
1.78499
1.78499
1.78499
1.78499
1.78498
1.78498
1.78498
1.78497
1.78497
1.78497
1.78497
1.78496
1.78496
1.78496
1.78496
1.78496
1.78495
1.78495
1.78495
1.78495
1.78495
1.78494
1.78494
1.78494
1.78494
1.78494
1.78493
1.78493
1.78493
1.78493
1.78493
1.78493
1.78493
1.78492
1.78492
1.78492
1.78492
1.78492
1.78492
1.78492
1.78492
1.78492
1.78491
1.78491
1.78491
1.78491
1.78491
1.78491
1.78491
1.78491
1.78491
1.78491
1.78491
1.78491
1.78491
1.78491
1.78491
1.78491
1.78491
1.78565
1.78563
1.78561
1.78559
1.78557
1.78555
1.78553
1.78551
1.78549
1.78547
1.78545
1.78543
1.78541
1.78539
1.78537
1.78535
1.78533
1.78531
1.78529
1.78528
1.78526
1.78524
1.78522
1.7852
1.78518
1.78516
1.78514
1.78512
1.7851
1.78509
1.78507
1.78505
1.78503
1.78501
1.78499
1.78497
1.78495
1.78494
1.78492
1.7849
1.78488
1.78486
1.78484
1.78483
1.78481
1.78479
1.78477
1.78475
1.78474
1.78472
1.7847
1.78468
1.78466
1.78465
1.78463
1.78461
1.78459
1.78458
1.78456
1.78454
1.78452
1.78451
1.78449
1.78447
1.78445
1.78444
1.78442
1.7844
1.78438
1.78437
1.78435
1.78433
1.78432
1.7843
1.78428
1.78427
1.78425
1.78423
1.78422
1.7842
1.78418
1.78417
1.78415
1.78413
1.78412
1.7841
1.78408
1.78407
1.78405
1.78403
1.78402
1.784
1.78399
1.78397
1.78395
1.78394
1.78392
1.78391
1.78389
1.78387
1.78386
1.78384
1.78383
1.78381
1.78379
1.78378
1.78376
1.78375
1.78373
1.78372
1.7837
1.78369
1.78367
1.78366
1.78364
1.78363
1.78361
1.7836
1.78358
1.78357
1.78355
1.78354
1.78352
1.78351
1.78349
1.78348
1.78346
1.78345
1.78343
1.78342
1.7834
1.78339
1.78337
1.78336
1.78334
1.78333
1.78332
1.7833
1.78329
1.78327
1.78326
1.78325
1.78323
1.78322
1.7832
1.78319
1.78318
1.78316
1.78315
1.78313
1.78312
1.78311
1.78309
1.78308
1.78307
1.78305
1.78304
1.78303
1.78301
1.783
1.78299
1.78297
1.78296
1.78295
1.78293
1.78292
1.78291
1.78289
1.78288
1.78287
1.78285
1.78284
1.78283
1.78282
1.7828
1.78279
1.78278
1.78277
1.78275
1.78274
1.78273
1.78272
1.7827
1.78269
1.78268
1.78267
1.78265
1.78264
1.78263
1.78262
1.78261
1.78259
1.78258
1.78257
1.78256
1.78255
1.78253
1.78252
1.78251
1.7825
1.78249
1.78248
1.78246
1.78245
1.78244
1.78243
1.78242
1.78241
1.7824
1.78239
1.78237
1.78236
1.78235
1.78234
1.78233
1.78232
1.78231
1.7823
1.78229
1.78228
1.78226
1.78225
1.78224
1.78223
1.78222
1.78221
1.7822
1.78219
1.78218
1.78217
1.78216
1.78215
1.78214
1.78213
1.78212
1.78211
1.7821
1.78209
1.78208
1.78207
1.78206
1.78205
1.78204
1.78203
1.78202
1.78201
1.782
1.78199
1.78198
1.78197
1.78196
1.78195
1.78194
1.78193
1.78192
1.78191
1.7819
1.7819
1.78189
1.78188
1.78187
1.78186
1.78185
1.78184
1.78183
1.78182
1.78181
1.78181
1.7818
1.78179
1.78178
1.78177
1.78176
1.78175
1.78174
1.78174
1.78173
1.78172
1.78171
1.7817
1.78169
1.78169
1.78168
1.78167
1.78166
1.78165
1.78165
1.78164
1.78163
1.78162
1.78161
1.78161
1.7816
1.78159
1.78158
1.78158
1.78157
1.78156
1.78155
1.78155
1.78154
1.78153
1.78152
1.78152
1.78151
1.7815
1.78149
1.78149
1.78148
1.78147
1.78147
1.78146
1.78145
1.78145
1.78144
1.78143
1.78143
1.78142
1.78141
1.78141
1.7814
1.78139
1.78139
1.78138
1.78137
1.78137
1.78136
1.78135
1.78135
1.78134
1.78134
1.78133
1.78132
1.78132
1.78131
1.78131
1.7813
1.78129
1.78129
1.78128
1.78128
1.78127
1.78126
1.78126
1.78125
1.78125
1.78124
1.78124
1.78123
1.78123
1.78122
1.78122
1.78121
1.78121
1.7812
1.7812
1.78119
1.78118
1.78118
1.78118
1.78117
1.78117
1.78116
1.78116
1.78115
1.78115
1.78114
1.78114
1.78113
1.78113
1.78112
1.78112
1.78111
1.78111
1.78111
1.7811
1.7811
1.78109
1.78109
1.78109
1.78108
1.78108
1.78107
1.78107
1.78107
1.78106
1.78106
1.78105
1.78105
1.78105
1.78104
1.78104
1.78104
1.78103
1.78103
1.78103
1.78102
1.78102
1.78102
1.78101
1.78101
1.78101
1.781
1.781
1.781
1.78099
1.78099
1.78099
1.78098
1.78098
1.78098
1.78098
1.78097
1.78097
1.78097
1.78097
1.78096
1.78096
1.78096
1.78096
1.78095
1.78095
1.78095
1.78095
1.78094
1.78094
1.78094
1.78094
1.78094
1.78093
1.78093
1.78093
1.78093
1.78093
1.78092
1.78092
1.78092
1.78092
1.78092
1.78092
1.78091
1.78091
1.78091
1.78091
1.78091
1.78091
1.78091
1.78091
1.7809
1.7809
1.7809
1.7809
1.7809
1.7809
1.7809
1.7809
1.7809
1.7809
1.78089
1.78089
1.78089
1.78089
1.78089
1.78089
1.78089
1.78089
1.78089
1.78089
1.78089
1.78089
1.78089
1.78089
1.78089
1.78089
1.78089
1.78089
1.78181
1.78179
1.78177
1.78175
1.78173
1.78171
1.78169
1.78167
1.78165
1.78163
1.78161
1.78159
1.78157
1.78155
1.78153
1.78151
1.78149
1.78147
1.78146
1.78144
1.78142
1.7814
1.78138
1.78136
1.78134
1.78132
1.7813
1.78128
1.78126
1.78124
1.78123
1.78121
1.78119
1.78117
1.78115
1.78113
1.78111
1.78109
1.78108
1.78106
1.78104
1.78102
1.781
1.78098
1.78096
1.78095
1.78093
1.78091
1.78089
1.78087
1.78085
1.78084
1.78082
1.7808
1.78078
1.78076
1.78075
1.78073
1.78071
1.78069
1.78067
1.78066
1.78064
1.78062
1.7806
1.78058
1.78057
1.78055
1.78053
1.78051
1.7805
1.78048
1.78046
1.78044
1.78043
1.78041
1.78039
1.78038
1.78036
1.78034
1.78032
1.78031
1.78029
1.78027
1.78026
1.78024
1.78022
1.7802
1.78019
1.78017
1.78015
1.78014
1.78012
1.7801
1.78009
1.78007
1.78005
1.78004
1.78002
1.78
1.77999
1.77997
1.77995
1.77994
1.77992
1.77991
1.77989
1.77987
1.77986
1.77984
1.77982
1.77981
1.77979
1.77978
1.77976
1.77974
1.77973
1.77971
1.7797
1.77968
1.77967
1.77965
1.77963
1.77962
1.7796
1.77959
1.77957
1.77956
1.77954
1.77952
1.77951
1.77949
1.77948
1.77946
1.77945
1.77943
1.77942
1.7794
1.77939
1.77937
1.77936
1.77934
1.77933
1.77931
1.7793
1.77928
1.77927
1.77925
1.77924
1.77922
1.77921
1.77919
1.77918
1.77916
1.77915
1.77914
1.77912
1.77911
1.77909
1.77908
1.77906
1.77905
1.77903
1.77902
1.77901
1.77899
1.77898
1.77896
1.77895
1.77894
1.77892
1.77891
1.77889
1.77888
1.77887
1.77885
1.77884
1.77882
1.77881
1.7788
1.77878
1.77877
1.77876
1.77874
1.77873
1.77871
1.7787
1.77869
1.77867
1.77866
1.77865
1.77863
1.77862
1.77861
1.7786
1.77858
1.77857
1.77856
1.77854
1.77853
1.77852
1.7785
1.77849
1.77848
1.77847
1.77845
1.77844
1.77843
1.77841
1.7784
1.77839
1.77838
1.77836
1.77835
1.77834
1.77833
1.77831
1.7783
1.77829
1.77828
1.77826
1.77825
1.77824
1.77823
1.77822
1.7782
1.77819
1.77818
1.77817
1.77816
1.77814
1.77813
1.77812
1.77811
1.7781
1.77808
1.77807
1.77806
1.77805
1.77804
1.77803
1.77802
1.778
1.77799
1.77798
1.77797
1.77796
1.77795
1.77794
1.77792
1.77791
1.7779
1.77789
1.77788
1.77787
1.77786
1.77785
1.77784
1.77782
1.77781
1.7778
1.77779
1.77778
1.77777
1.77776
1.77775
1.77774
1.77773
1.77772
1.77771
1.7777
1.77769
1.77768
1.77766
1.77765
1.77764
1.77763
1.77762
1.77761
1.7776
1.77759
1.77758
1.77757
1.77756
1.77755
1.77754
1.77753
1.77752
1.77751
1.7775
1.77749
1.77748
1.77747
1.77746
1.77745
1.77744
1.77744
1.77743
1.77742
1.77741
1.7774
1.77739
1.77738
1.77737
1.77736
1.77735
1.77734
1.77733
1.77732
1.77731
1.7773
1.7773
1.77729
1.77728
1.77727
1.77726
1.77725
1.77724
1.77723
1.77722
1.77722
1.77721
1.7772
1.77719
1.77718
1.77717
1.77716
1.77715
1.77715
1.77714
1.77713
1.77712
1.77711
1.7771
1.7771
1.77709
1.77708
1.77707
1.77706
1.77706
1.77705
1.77704
1.77703
1.77702
1.77702
1.77701
1.777
1.77699
1.77698
1.77698
1.77697
1.77696
1.77695
1.77695
1.77694
1.77693
1.77692
1.77692
1.77691
1.7769
1.77689
1.77689
1.77688
1.77687
1.77686
1.77686
1.77685
1.77684
1.77684
1.77683
1.77682
1.77682
1.77681
1.7768
1.77679
1.77679
1.77678
1.77677
1.77677
1.77676
1.77675
1.77675
1.77674
1.77673
1.77673
1.77672
1.77671
1.77671
1.7767
1.7767
1.77669
1.77668
1.77668
1.77667
1.77666
1.77666
1.77665
1.77665
1.77664
1.77663
1.77663
1.77662
1.77662
1.77661
1.77661
1.7766
1.77659
1.77659
1.77658
1.77658
1.77657
1.77657
1.77656
1.77655
1.77655
1.77654
1.77654
1.77653
1.77653
1.77652
1.77652
1.77651
1.77651
1.7765
1.7765
1.77649
1.77649
1.77648
1.77648
1.77647
1.77647
1.77646
1.77646
1.77645
1.77645
1.77644
1.77644
1.77643
1.77643
1.77642
1.77642
1.77641
1.77641
1.77641
1.7764
1.7764
1.77639
1.77639
1.77638
1.77638
1.77638
1.77637
1.77637
1.77636
1.77636
1.77636
1.77635
1.77635
1.77634
1.77634
1.77634
1.77633
1.77633
1.77632
1.77632
1.77632
1.77631
1.77631
1.77631
1.7763
1.7763
1.7763
1.77629
1.77629
1.77629
1.77628
1.77628
1.77628
1.77627
1.77627
1.77627
1.77626
1.77626
1.77626
1.77625
1.77625
1.77625
1.77625
1.77624
1.77624
1.77624
1.77623
1.77623
1.77623
1.77623
1.77622
1.77622
1.77622
1.77622
1.77621
1.77621
1.77621
1.77621
1.7762
1.7762
1.7762
1.7762
1.77619
1.77619
1.77619
1.77619
1.77619
1.77618
1.77618
1.77618
1.77618
1.77618
1.77617
1.77617
1.77617
1.77617
1.77617
1.77617
1.77616
1.77616
1.77616
1.77616
1.77616
1.77616
1.77616
1.77615
1.77615
1.77615
1.77615
1.77615
1.77615
1.77615
1.77615
1.77614
1.77614
1.77614
1.77614
1.77614
1.77614
1.77614
1.77614
1.77614
1.77614
1.77613
1.77613
1.77613
1.77613
1.77613
1.77613
1.77613
1.77613
1.77613
1.77613
1.77613
1.77613
1.77613
1.77613
1.77613
1.77613
1.77613
1.77613
1.77613
1.77613
1.77613
1.777
1.77698
1.77696
1.77694
1.77692
1.7769
1.77688
1.77686
1.77684
1.77682
1.7768
1.77678
1.77676
1.77674
1.77672
1.7767
1.77668
1.77667
1.77665
1.77663
1.77661
1.77659
1.77657
1.77655
1.77653
1.77651
1.77649
1.77647
1.77645
1.77643
1.77641
1.7764
1.77638
1.77636
1.77634
1.77632
1.7763
1.77628
1.77626
1.77624
1.77623
1.77621
1.77619
1.77617
1.77615
1.77613
1.77611
1.77609
1.77608
1.77606
1.77604
1.77602
1.776
1.77598
1.77596
1.77595
1.77593
1.77591
1.77589
1.77587
1.77586
1.77584
1.77582
1.7758
1.77578
1.77576
1.77575
1.77573
1.77571
1.77569
1.77568
1.77566
1.77564
1.77562
1.7756
1.77559
1.77557
1.77555
1.77553
1.77552
1.7755
1.77548
1.77546
1.77545
1.77543
1.77541
1.77539
1.77538
1.77536
1.77534
1.77532
1.77531
1.77529
1.77527
1.77525
1.77524
1.77522
1.7752
1.77519
1.77517
1.77515
1.77514
1.77512
1.7751
1.77508
1.77507
1.77505
1.77503
1.77502
1.775
1.77498
1.77497
1.77495
1.77493
1.77492
1.7749
1.77488
1.77487
1.77485
1.77484
1.77482
1.7748
1.77479
1.77477
1.77475
1.77474
1.77472
1.77471
1.77469
1.77467
1.77466
1.77464
1.77463
1.77461
1.77459
1.77458
1.77456
1.77455
1.77453
1.77451
1.7745
1.77448
1.77447
1.77445
1.77444
1.77442
1.7744
1.77439
1.77437
1.77436
1.77434
1.77433
1.77431
1.7743
1.77428
1.77427
1.77425
1.77424
1.77422
1.7742
1.77419
1.77417
1.77416
1.77414
1.77413
1.77411
1.7741
1.77408
1.77407
1.77405
1.77404
1.77403
1.77401
1.774
1.77398
1.77397
1.77395
1.77394
1.77392
1.77391
1.77389
1.77388
1.77386
1.77385
1.77384
1.77382
1.77381
1.77379
1.77378
1.77376
1.77375
1.77374
1.77372
1.77371
1.77369
1.77368
1.77366
1.77365
1.77364
1.77362
1.77361
1.7736
1.77358
1.77357
1.77355
1.77354
1.77353
1.77351
1.7735
1.77349
1.77347
1.77346
1.77344
1.77343
1.77342
1.7734
1.77339
1.77338
1.77336
1.77335
1.77334
1.77332
1.77331
1.7733
1.77328
1.77327
1.77326
1.77324
1.77323
1.77322
1.77321
1.77319
1.77318
1.77317
1.77315
1.77314
1.77313
1.77312
1.7731
1.77309
1.77308
1.77306
1.77305
1.77304
1.77303
1.77301
1.773
1.77299
1.77298
1.77296
1.77295
1.77294
1.77293
1.77292
1.7729
1.77289
1.77288
1.77287
1.77285
1.77284
1.77283
1.77282
1.77281
1.77279
1.77278
1.77277
1.77276
1.77275
1.77273
1.77272
1.77271
1.7727
1.77269
1.77268
1.77266
1.77265
1.77264
1.77263
1.77262
1.77261
1.77259
1.77258
1.77257
1.77256
1.77255
1.77254
1.77253
1.77252
1.7725
1.77249
1.77248
1.77247
1.77246
1.77245
1.77244
1.77243
1.77242
1.7724
1.77239
1.77238
1.77237
1.77236
1.77235
1.77234
1.77233
1.77232
1.77231
1.7723
1.77229
1.77228
1.77226
1.77225
1.77224
1.77223
1.77222
1.77221
1.7722
1.77219
1.77218
1.77217
1.77216
1.77215
1.77214
1.77213
1.77212
1.77211
1.7721
1.77209
1.77208
1.77207
1.77206
1.77205
1.77204
1.77203
1.77202
1.77201
1.772
1.77199
1.77198
1.77197
1.77196
1.77195
1.77194
1.77193
1.77192
1.77191
1.7719
1.7719
1.77189
1.77188
1.77187
1.77186
1.77185
1.77184
1.77183
1.77182
1.77181
1.7718
1.77179
1.77178
1.77178
1.77177
1.77176
1.77175
1.77174
1.77173
1.77172
1.77171
1.7717
1.7717
1.77169
1.77168
1.77167
1.77166
1.77165
1.77164
1.77164
1.77163
1.77162
1.77161
1.7716
1.77159
1.77158
1.77158
1.77157
1.77156
1.77155
1.77154
1.77154
1.77153
1.77152
1.77151
1.7715
1.77149
1.77149
1.77148
1.77147
1.77146
1.77145
1.77145
1.77144
1.77143
1.77142
1.77142
1.77141
1.7714
1.77139
1.77139
1.77138
1.77137
1.77136
1.77136
1.77135
1.77134
1.77133
1.77133
1.77132
1.77131
1.7713
1.7713
1.77129
1.77128
1.77128
1.77127
1.77126
1.77125
1.77125
1.77124
1.77123
1.77123
1.77122
1.77121
1.77121
1.7712
1.77119
1.77119
1.77118
1.77117
1.77117
1.77116
1.77115
1.77115
1.77114
1.77113
1.77113
1.77112
1.77111
1.77111
1.7711
1.77109
1.77109
1.77108
1.77108
1.77107
1.77106
1.77106
1.77105
1.77104
1.77104
1.77103
1.77103
1.77102
1.77101
1.77101
1.771
1.771
1.77099
1.77099
1.77098
1.77097
1.77097
1.77096
1.77096
1.77095
1.77095
1.77094
1.77094
1.77093
1.77092
1.77092
1.77091
1.77091
1.7709
1.7709
1.77089
1.77089
1.77088
1.77088
1.77087
1.77087
1.77086
1.77086
1.77085
1.77085
1.77084
1.77084
1.77083
1.77083
1.77082
1.77082
1.77081
1.77081
1.7708
1.7708
1.77079
1.77079
1.77078
1.77078
1.77078
1.77077
1.77077
1.77076
1.77076
1.77075
1.77075
1.77075
1.77074
1.77074
1.77073
1.77073
1.77072
1.77072
1.77072
1.77071
1.77071
1.7707
1.7707
1.7707
1.77069
1.77069
1.77068
1.77068
1.77068
1.77067
1.77067
1.77067
1.77066
1.77066
1.77065
1.77065
1.77065
1.77064
1.77064
1.77064
1.77063
1.77063
1.77063
1.77062
1.77062
1.77062
1.77061
1.77061
1.77061
1.7706
1.7706
1.7706
1.7706
1.77059
1.77059
1.77059
1.77058
1.77058
1.77058
1.77058
1.77057
1.77057
1.77057
1.77056
1.77056
1.77056
1.77056
1.77055
1.77055
1.77055
1.77055
1.77054
1.77054
1.77054
1.77054
1.77053
1.77053
1.77053
1.77053
1.77052
1.77052
1.77052
1.77052
1.77052
1.77051
1.77051
1.77051
1.77051
1.77051
1.7705
1.7705
1.7705
1.7705
1.7705
1.7705
1.77049
1.77049
1.77049
1.77049
1.77049
1.77049
1.77048
1.77048
1.77048
1.77048
1.77048
1.77048
1.77048
1.77047
1.77047
1.77047
1.77047
1.77047
1.77047
1.77047
1.77047
1.77046
1.77046
1.77046
1.77046
1.77046
1.77046
1.77046
1.77046
1.77046
1.77046
1.77046
1.77045
1.77045
1.77045
1.77045
1.77045
1.77045
1.77045
1.77045
1.77045
1.77045
1.77045
1.77045
1.77045
1.77045
1.77045
1.77045
1.77045
1.77045
1.77045
1.77045
1.77045
1.77045
1.77045
1.77045
1.77169
1.77167
1.77165
1.77163
1.77161
1.77159
1.77157
1.77155
1.77154
1.77152
1.7715
1.77148
1.77146
1.77144
1.77142
1.7714
1.77138
1.77136
1.77134
1.77132
1.7713
1.77128
1.77126
1.77124
1.77122
1.7712
1.77118
1.77116
1.77114
1.77112
1.77111
1.77109
1.77107
1.77105
1.77103
1.77101
1.77099
1.77097
1.77095
1.77093
1.77091
1.7709
1.77088
1.77086
1.77084
1.77082
1.7708
1.77078
1.77076
1.77074
1.77073
1.77071
1.77069
1.77067
1.77065
1.77063
1.77061
1.7706
1.77058
1.77056
1.77054
1.77052
1.7705
1.77048
1.77047
1.77045
1.77043
1.77041
1.77039
1.77037
1.77036
1.77034
1.77032
1.7703
1.77028
1.77027
1.77025
1.77023
1.77021
1.77019
1.77018
1.77016
1.77014
1.77012
1.7701
1.77009