/*--------------------------------*- C++ -*----------------------------------*\
| =========                 |                                                 |
| \\      /  F ield         | OpenFOAM: The Open Source CFD Toolbox           |
|  \\    /   O peration     | Version:  plus.master.MPPICInterFoam            |
|   \\  /    A nd           | Web:      www.OpenFOAM.com                      |
|    \\/     M anipulation  |                                                 |
\*---------------------------------------------------------------------------*/
FoamFile
{
    version     2.0;
    format      ascii;
    class       vectorField;
    location    "3.8/lagrangian/kinematicCloud";
    object      U;
}
// * * * * * * * * * * * * * * * * * * * * * * * * * * * * * * * * * * * * * //


93714
(
(0.00196551 0.0035271 0.000388934)
(0.000567707 0.00049108 -0.00282443)
(-3.18906e-05 0.000379457 0.000962451)
(-3.22025e-06 0.00110524 0.000666817)
(0.00286883 0.00173056 0.00245349)
(-1.66579e-05 -0.000144748 0.000404483)
(3.55533e-05 -0.000223226 0.000492929)
(0.00134297 -0.00119375 -0.00355016)
(-8.37717e-05 -3.55586e-05 -0.000413111)
(-6.77279e-05 -0.000704891 0.00939646)
(-3.35722e-05 0.000150161 0.000327234)
(-0.000182096 -2.97465e-05 0.000378848)
(-0.000982276 0.00101612 0.000291715)
(-0.00272232 0.00132172 -0.00037327)
(-0.000653989 0.00059686 0.00041236)
(0.000179828 -9.86218e-06 -0.00279983)
(0.000972187 -5.55265e-05 0.000404438)
(-0.00569753 -0.00125539 -0.0011183)
(1.87593e-05 0.000116195 -4.54858e-05)
(-0.000304835 0.000660839 -0.00186938)
(-0.000160148 1.53268e-06 0.000198336)
(-0.000287754 0.000210986 -0.0073304)
(-7.42495e-05 0.000412451 -0.00273517)
(0.000217756 -0.000232926 0.000138536)
(5.03242e-05 -0.000184868 0.000354963)
(0.000108945 -0.000220634 -0.00643835)
(0.000165612 -2.68703e-05 -0.00220213)
(-0.000107636 -7.63324e-05 0.0062347)
(0.00316854 -0.000648618 5.16083e-05)
(8.58431e-05 -0.000268767 0.00619758)
(-0.000147365 -0.000799117 0.000467942)
(-0.000339283 -0.000505472 0.000229226)
(-0.000370226 -0.00102443 -0.00439265)
(0.000365145 0.000363661 0.00075157)
(0.00317328 0.00269615 -0.00254155)
(-0.000906071 0.000131101 0.000117828)
(-0.000871729 0.00100376 0.00040843)
(-3.34443e-05 -8.08729e-05 0.000442613)
(-2.56677e-05 0.000130263 0.000874166)
(0.000872245 0.000206275 -0.00258362)
(-0.000490083 -1.28357e-05 -0.00343999)
(-0.000170267 8.85938e-05 0.00615147)
(4.83998e-05 -0.000128976 0.000273725)
(-0.000303089 -0.00086272 -0.000163242)
(-6.57708e-05 0.000163221 -0.00183516)
(6.39707e-05 -8.53882e-05 0.000467103)
(-0.000190894 -0.000754174 0.00174206)
(0.00161274 -0.00817865 -0.00151463)
(0.000985197 0.000852222 -0.00235254)
(6.02193e-05 -6.67992e-05 0.000267125)
(0.000113854 -0.000517953 0.000788005)
(2.92277e-05 -0.000867909 0.000365208)
(0.00015568 -0.00059028 -0.000743098)
(6.96515e-06 -6.38748e-05 -0.0034018)
(-5.16571e-05 -0.000404678 -0.00284788)
(-0.000492511 -0.000248928 -0.0004796)
(-0.00013357 -0.00010609 0.000245484)
(-0.000552603 0.000285124 -0.00183391)
(9.49551e-05 0.00280375 -2.79997e-05)
(0.000138448 -0.000219332 -0.00157938)
(-0.000232716 -0.000175982 0.000711609)
(-0.000171487 -0.000632222 -0.00248411)
(-0.00025004 -0.00087308 0.000266265)
(-0.000331271 0.000570032 0.000399428)
(0.0001237 -0.000189166 0.000365058)
(-0.000206698 0.000244173 -0.00777973)
(0.000204707 -0.000170325 0.000393965)
(0.00400732 0.00204415 -0.0156608)
(-0.00104174 0.000668772 -0.00161983)
(-0.000816893 0.00197427 0.000307183)
(7.66189e-06 -0.00080674 0.000386032)
(-0.00139775 0.00111408 -0.00611089)
(0.000335425 -9.96314e-05 5.36254e-05)
(-0.000166361 -0.000137615 -0.00438437)
(-0.00014291 -0.000111492 -9.4991e-05)
(-0.000326368 -0.000868208 0.000241625)
(8.53878e-05 -0.000243243 -0.00652121)
(-0.000518626 -1.98669e-05 -0.00237884)
(-0.00345417 0.00168866 5.63826e-05)
(-0.000359606 -0.00118901 -0.00435799)
(-0.000705388 -0.000544992 0.000347023)
(-0.000800485 8.43682e-05 0.00303624)
(0.000497315 0.000465163 0.000697388)
(8.78714e-05 0.000348676 0.000359997)
(-0.000434043 0.000250043 0.000740072)
(0.000794215 0.000821632 7.5634e-05)
(-0.000381785 -0.000880076 -0.00176413)
(-0.000724836 -0.000254284 -0.0015728)
(-3.6851e-05 0.000307561 0.000376152)
(-0.0011125 -0.0011221 -0.00159416)
(0.000753473 0.000534476 -0.00132737)
(0.000770439 -0.000252675 -0.00164632)
(0.000653153 -0.000770054 -0.000245187)
(-0.000128496 -0.000127739 0.000630911)
(0.000128442 -0.000521061 0.000346227)
(-0.000525732 -0.000347557 -0.000128778)
(-0.000434621 -0.000270043 -0.00422054)
(-0.000245588 0.000602012 -0.00176282)
(-0.000431213 -2.52865e-05 -0.00388742)
(0.000923574 -0.000527827 -0.000197734)
(0.00293068 -0.00127127 0.00068076)
(0.000616954 -0.000806141 -0.000285097)
(-0.000330658 -0.000782752 0.00017127)
(0.000176038 -1.27779e-05 0.000693413)
(0.00125308 -0.00160736 0.000270589)
(-0.000880289 0.000228938 -0.000327392)
(0.000104519 0.000394211 0.00153259)
(-2.46299e-05 0.000242976 5.3253e-05)
(8.41611e-05 -0.000122416 0.00161287)
(-0.000250328 -0.000436956 0.000439402)
(1.21808e-06 -6.16342e-05 0.000356632)
(7.24042e-05 -8.06154e-05 -0.00279799)
(-0.000209916 -0.000828035 0.000857507)
(0.000656289 -0.0145685 0.000329337)
(-4.4076e-05 -0.000190731 -0.00289984)
(-0.000386771 0.00077759 0.000389667)
(-0.000357476 -0.000840485 0.000284471)
(-1.85285e-05 -8.61797e-05 -0.00012873)
(-5.53039e-05 -0.000305046 -0.000107045)
(0.000142542 -0.000123536 0.000347631)
(-0.000747649 2.85667e-05 0.00107276)
(-7.50625e-05 -3.7923e-05 0.000212797)
(1.00658e-05 -3.92815e-05 0.000345566)
(9.092e-06 0.000692727 0.000330616)
(0.00018127 -0.000215685 -0.00703092)
(-3.19756e-05 -0.000161665 0.00020447)
(-0.00117407 9.067e-05 -0.00169481)
(0.000196413 0.000371298 -0.000114634)
(-0.000339697 0.000410048 0.00031325)
(-5.01166e-05 0.000786963 0.000422875)
(0.00027322 -0.000115578 0.000324017)
(-8.66958e-06 -3.10649e-05 -0.00028593)
(-8.88499e-06 -0.000145315 0.00678784)
(-0.000360788 -0.000853378 0.000296515)
(-0.000250356 -0.000269484 -0.00236172)
(-0.000232002 -0.000251075 -0.00338552)
(-0.000751296 0.000387111 0.000334578)
(0.0016278 0.00149986 -0.0145157)
(-0.000256243 -0.000573178 -0.00252834)
(-0.00153582 0.000984302 0.000244625)
(-3.10685e-05 0.000292276 0.000178961)
(0.000132733 -0.000202636 -0.000890462)
(-0.000314437 0.000342851 -0.00126734)
(-0.00178675 -0.00173015 0.000373577)
(0.00162641 -0.0032522 0.00137613)
(3.91565e-05 -0.000263331 -0.00211581)
(-7.11566e-05 -0.000868989 0.00555423)
(7.77464e-06 -8.12214e-05 0.000618726)
(-6.59621e-06 -4.18348e-05 -0.00306351)
(-0.000385162 -0.00322557 0.000450903)
(-0.00114208 -0.00024874 7.53355e-05)
(0.000185886 -0.000227766 7.70971e-05)
(0.000692369 0.00101782 0.000964773)
(-7.73095e-05 0.000719466 0.000557314)
(-0.00224798 -0.00330538 -0.00316283)
(-0.00048047 -2.47367e-05 0.00203122)
(-9.34161e-05 -5.49459e-05 0.000459864)
(0.000692063 0.000550665 1.15487e-05)
(0.00064268 0.000851468 -0.00103462)
(-0.000420752 0.000368317 0.000147642)
(0.000272395 -0.000249039 -0.00486471)
(-0.000740957 2.27983e-05 0.000274257)
(-0.000381833 0.00302139 -0.0018953)
(-3.86934e-05 -0.00015868 -2.50066e-05)
(-5.24883e-05 -3.21641e-05 0.000267825)
(0.000141545 -0.000359753 0.000643393)
(-0.000549517 0.000485216 0.00510237)
(-0.000534665 -0.000775809 0.000104228)
(0.00129559 -8.39664e-05 -0.00457323)
(-0.000212942 0.00309759 9.42366e-05)
(-0.000319004 9.66645e-05 0.000629025)
(0.00442614 -0.00248439 -0.00118595)
(0.000147268 -0.000300914 -0.00293305)
(8.81587e-05 0.00266119 -0.000676251)
(5.2648e-06 0.000236042 6.79586e-05)
(-0.000385746 -0.000846662 0.00030293)
(-0.00104075 -0.000227754 0.000437931)
(0.000104441 -4.45203e-05 5.43274e-05)
(0.000241066 0.000368513 0.000191225)
(0.00173166 -0.0011898 -0.000108293)
(-0.000739439 0.00188711 -0.00265223)
(0.000867343 -0.00109901 0.000780743)
(-0.000293871 -0.000385125 0.0025015)
(-0.000255872 0.00323601 -0.00300356)
(0.000112796 0.00037453 -0.00143485)
(0.000104672 0.000492368 0.000375395)
(4.97653e-05 -0.000144256 -0.000391241)
(-0.00045276 0.00274053 -0.00276906)
(-0.000323698 0.000712802 -0.00218768)
(3.94721e-05 -0.000373443 -0.001645)
(-4.69758e-05 -0.000534045 -0.00237556)
(0.000282718 -0.000100434 -0.00411827)
(0.000360324 -0.000423239 -0.00637749)
(-0.000252852 0.000627005 0.000414466)
(-0.000404129 0.000145477 0.000248711)
(-0.000303368 -0.000493544 -0.000527155)
(-0.000248357 -2.57771e-06 0.000459832)
(0.000817324 -0.00114041 0.0003071)
(-0.00172067 -0.000930572 -0.000244937)
(-0.000904814 0.00907253 -0.0152958)
(-0.000241916 0.000349616 0.00096201)
(-0.000185425 -0.000589407 -0.00267746)
(-0.000107069 -6.73076e-05 -0.00011536)
(-0.000390346 0.00067326 -0.00142897)
(-0.00335315 0.00110081 -0.00250896)
(-4.06765e-05 -0.000744306 0.000332137)
(0.000177935 9.31856e-05 -0.00328808)
(0.000205388 0.000324098 7.30642e-05)
(-0.000654207 -0.000340627 0.000245159)
(-0.000741836 -0.000646942 -0.00164122)
(-4.14532e-05 0.000351261 -0.00243988)
(-3.14021e-05 -0.000160222 -0.00249319)
(0.000256363 6.25569e-05 0.000409554)
(-6.51527e-05 -6.37016e-05 0.000335232)
(-2.00951e-05 -2.55142e-05 -0.00660896)
(2.92173e-05 -0.000932106 -0.00158173)
(0.000234294 -0.000269282 0.000322783)
(-4.7681e-05 -2.0957e-05 -0.00179798)
(-0.000104724 -1.10946e-05 0.00381329)
(0.000907793 -0.000853387 0.00874155)
(0.000227322 0.000525437 -0.00180278)
(0.000178831 -0.000332977 -0.00652429)
(0.0010987 -0.000116074 0.000537918)
(-0.000641649 -0.000526711 -0.00347026)
(-0.000169027 -0.000261623 -0.00448132)
(0.000907873 0.000591666 0.00034215)
(0.000408743 0.00051398 0.000326381)
(0.000422415 0.000282588 0.000332468)
(0.00304067 -9.88742e-05 0.000489353)
(-5.67035e-05 0.000304943 0.000902149)
(0.000247313 7.11748e-05 0.000377031)
(-4.59075e-05 -0.000286736 0.000307056)
(-8.11073e-05 -9.67045e-05 0.00601889)
(-0.000379862 -5.2948e-05 0.00568952)
(-0.000847078 -0.000236065 0.000445395)
(-6.56162e-05 -0.00141191 -0.00343521)
(-0.000190335 0.00306428 0.000330933)
(0.00342599 -0.000166428 -0.00214887)
(-0.000932453 -0.000119234 0.000418519)
(-0.000414897 0.000584089 0.000209479)
(-0.000602615 0.00045924 -0.0061295)
(0.000201438 0.000507459 4.89679e-05)
(-0.000173614 -0.000548725 -0.00033201)
(0.000230435 -0.000414079 -0.00151636)
(-0.000217034 -0.000237645 0.000331045)
(2.41212e-05 -0.000140638 0.000657348)
(0.000353513 0.000179115 0.00477783)
(0.000880659 0.00295147 -0.01274)
(0.000114637 -0.000176922 0.000567183)
(-0.000353491 0.000701084 -0.00260414)
(0.000106025 -0.000157619 0.000378525)
(9.86319e-06 -0.0001368 0.00157197)
(-0.000377092 0.000720452 -0.00173085)
(0.0046818 0.000150545 -0.00216343)
(-0.000122297 -0.000517693 -0.00784407)
(0.000448694 0.000178623 0.000392093)
(0.000201971 -0.000507797 0.000519485)
(-0.000396469 0.00183376 -0.00255472)
(0.000369321 0.000254134 -5.47157e-05)
(0.000206835 -0.000526333 -0.00160488)
(-0.000289704 -0.000248839 -0.00181558)
(-8.32395e-05 1.62817e-05 0.00303653)
(0.000436347 0.000391496 -0.00253179)
(-0.000219367 -0.00113772 -0.000786432)
(0.000122651 -0.00021412 -0.00165941)
(8.37314e-05 -0.00013438 -0.00161799)
(0.000164891 -1.29797e-05 0.00025618)
(-0.000878837 0.000128288 -0.00321423)
(-2.61942e-05 0.000267283 -0.000701812)
(-0.00026041 0.000333831 0.000669906)
(-0.000439404 0.000773135 -0.00247348)
(-0.00049067 0.000413172 0.00486374)
(-0.000291838 -0.000517414 0.000317526)
(-8.13202e-05 4.76323e-05 -0.000295462)
(0.000114577 0.000243403 0.000277078)
(-0.000315983 -0.000640074 -0.0012868)
(-0.00523889 -0.000709682 -0.00244755)
(-0.000263788 -0.000594098 0.00024732)
(-0.000419675 0.000577011 0.000188381)
(-0.000218352 6.95676e-06 0.000346619)
(-0.000320805 -8.79834e-06 0.00512881)
(0.000113503 0.000290987 0.000263661)
(-0.000345788 0.000152464 0.000424087)
(-0.000113008 -3.94375e-05 0.000477707)
(-0.000480042 -0.000210325 -0.00210371)
(-9.694e-05 -4.76583e-05 0.000112706)
(8.58924e-05 -0.000124734 0.000482926)
(-0.000127935 -0.00060438 0.00029816)
(9.7167e-05 0.000334221 -0.00165277)
(-0.000179349 0.0032379 -0.000351812)
(0.000174186 0.000455317 -0.00148044)
(-0.000118581 0.000511474 0.00155828)
(-0.000274577 -3.03455e-05 -0.000157431)
(-0.000115701 -4.4659e-05 0.00664565)
(0.000154205 -0.000202242 0.000421565)
(-0.000285266 -0.00102837 0.000319155)
(3.04055e-05 0.000276375 0.00320945)
(0.000142668 -0.000190361 0.00032674)
(0.000640327 0.000874477 0.000179158)
(9.34338e-05 -4.62787e-06 -0.000144708)
(-0.000827689 0.000576272 0.000736505)
(-0.00130526 0.000296952 0.000507564)
(-1.31649e-05 5.53408e-05 0.000497451)
(-0.000162795 -3.15944e-06 0.000502919)
(0.000732071 -0.000736657 0.000681407)
(-0.00118745 1.6804e-05 0.00298189)
(0.000226257 -0.000126033 0.00138126)
(0.00248753 -0.00143451 -0.00144609)
(5.59144e-05 0.000355539 0.000188984)
(0.000238623 -0.000243892 0.000238303)
(0.000363517 0.000602527 -0.00094307)
(-0.000513351 0.000215612 0.000251697)
(-0.000110988 -8.10883e-05 -0.00714881)
(0.000180869 -3.66481e-05 -0.00276505)
(1.06525e-06 -0.00010191 -0.00346077)
(-4.28506e-05 0.000612766 0.00040729)
(2.65704e-05 -4.65299e-05 0.00041942)
(-0.000130054 -8.50264e-05 0.000316609)
(0.000215895 0.000339153 0.000104386)
(-0.000275476 -0.000323451 -0.00355545)
(-0.000129037 -0.000102499 0.000390675)
(0.000282009 -0.000365354 -0.0027503)
(-8.15176e-05 -0.000176918 0.00426149)
(-3.52987e-05 -7.58572e-05 -0.000491864)
(9.81759e-05 0.000367529 0.000309135)
(-0.000470243 -0.000327591 -0.00142539)
(-0.000135439 -3.1422e-05 0.00730476)
(0.000275338 -0.000357046 0.000346986)
(-0.000142615 -0.000354021 -0.00166512)
(-0.00131126 -0.00150712 -0.001766)
(-0.000282875 -0.000997051 0.000292003)
(-0.0031729 -0.00249066 -0.0169337)
(0.000497627 0.000541438 0.000329403)
(-0.00106425 9.58869e-05 -0.00033303)
(8.44939e-05 0.000152315 0.000281121)
(-4.82707e-05 0.000672976 0.000369171)
(-0.000539402 0.000908271 -0.00657394)
(-3.33555e-05 -5.28989e-05 0.000697425)
(-0.000828665 0.000653073 0.000380999)
(-0.00083157 0.000643843 -0.00525724)
(-0.000220655 0.000377674 -0.00190726)
(0.000103298 -0.000160247 0.00074509)
(0.000528463 -0.00118205 0.000195735)
(-0.000128019 -8.23906e-05 -0.00198346)
(-9.4028e-05 -0.000586379 -0.00316935)
(0.000518325 0.00422037 0.000217568)
(1.43975e-05 -0.00023508 -0.00261522)
(-0.00261373 -0.000984267 0.00119808)
(-0.000358446 0.000315381 0.000184457)
(-0.00164692 -0.00174926 0.0003902)
(7.26371e-05 0.000333781 -0.00263893)
(-1.46885e-06 -0.000243365 0.00172978)
(0.000241359 -0.00030351 0.000315922)
(-0.000971867 -0.000316681 -0.0017411)
(-0.000581317 -0.000228103 0.000184667)
(-5.25854e-05 0.000746487 -0.000466764)
(3.08689e-05 -0.000119983 -0.00173301)
(0.00138796 -0.00205332 -0.00125632)
(0.000183746 -1.12807e-05 -0.00287015)
(0.000130974 -0.000206068 -0.00386169)
(0.000248657 0.000387004 0.000257072)
(-4.49443e-05 0.000688162 0.000395454)
(-0.000274607 -8.2498e-05 -0.000309635)
(-0.00134144 -0.000471913 4.23778e-05)
(-4.71313e-05 -0.00045764 0.00048654)
(-0.00115394 -0.000266311 0.000221241)
(0.000244079 -0.000477107 0.000585037)
(6.47483e-05 -4.13395e-05 0.000496126)
(0.00324667 0.000451963 0.00365263)
(-0.000342941 0.000341857 -0.00811798)
(0.000492263 -3.52735e-06 0.000406936)
(6.78764e-05 -0.000105055 -0.00176622)
(-0.00018482 4.5769e-05 0.000407589)
(0.000143658 -0.00022515 0.00151478)
(-0.000149131 9.60333e-05 0.00949166)
(2.22119e-05 -3.92225e-05 0.000383754)
(1.80351e-05 -0.00116725 -0.00444189)
(-0.000494973 9.63299e-06 0.000357843)
(-1.97633e-05 -0.000102664 -0.00212386)
(-0.000134434 -9.96385e-05 -0.00260591)
(0.000802162 0.000612858 4.13433e-05)
(0.000200542 -0.000388433 0.0103064)
(-0.000403252 0.000653572 0.000385578)
(-0.000352575 0.000178618 -0.00178585)
(2.74319e-05 -0.000241513 0.000373675)
(-0.000302402 -0.000871095 0.000317086)
(0.000165337 -0.000226908 0.000375485)
(-0.00034427 0.000481071 0.000382247)
(0.00019173 0.000300906 -0.0016584)
(2.99128e-05 -8.9426e-05 -0.00173292)
(0.000500228 0.000775264 -0.00611981)
(-0.000630619 -0.000504772 -0.00309803)
(-0.000265256 -2.3935e-05 0.000403121)
(3.59221e-05 -0.000121677 0.000351501)
(-4.14391e-05 0.000690224 0.000725916)
(-0.000344065 0.000477758 -0.001621)
(-0.000270302 -0.000613276 0.000210125)
(0.000103491 -0.000153248 0.000363979)
(0.00111475 -0.00297518 -0.00305983)
(0.000220985 -0.000254437 0.000491045)
(5.84286e-05 0.000343474 0.000813231)
(-0.00078346 2.76078e-05 0.000316504)
(0.000232483 -0.000243816 0.000328836)
(0.000257901 0.000402658 -0.00302509)
(-4.16683e-05 -0.000809057 -0.0017772)
(-0.000264004 0.000665124 -0.000188421)
(0.00121631 -3.81447e-05 -2.3516e-05)
(0.000222909 0.000744073 -0.00321794)
(-0.000285245 -0.000281944 -0.00180744)
(-0.000148996 -0.000261085 0.00508763)
(0.000518726 0.000385772 -0.000640867)
(-0.00558588 0.00222589 -0.0159255)
(-0.00221519 -0.000356087 -0.00588285)
(-0.000607188 0.00315618 0.000262382)
(0.000676131 0.00111549 -0.00151836)
(0.000190943 0.000465158 0.000198177)
(0.00818306 -0.00244999 0.0113877)
(9.91455e-06 -0.000167147 0.00019654)
(0.000438816 0.000397634 0.00073262)
(-9.69072e-05 -0.00127831 0.000362989)
(4.85948e-05 -0.000231258 7.24543e-05)
(0.000148741 -0.000198932 0.000467618)
(0.000232616 -0.000370821 -0.00472103)
(0.000865958 0.00191841 -0.00269411)
(0.000813576 -0.000715224 0.00354011)
(-0.000275615 -0.000509516 -0.00198187)
(0.00022109 0.000346226 -0.00234029)
(0.00201573 0.00395857 0.000188568)
(-2.8077e-05 -0.000193843 0.000301737)
(-0.00031194 0.000627707 0.000752522)
(-0.000602644 0.000177415 -0.00594141)
(-0.00259048 0.00170173 -0.00333437)
(4.11027e-05 -0.00027881 0.0034838)
(0.000179583 -0.000234071 -0.00329068)
(-0.000357334 -0.000619721 0.00163236)
(-0.000237356 -0.00053442 8.51754e-06)
(-0.000313855 -0.000100955 0.00169252)
(7.25633e-05 -7.76254e-05 0.000448185)
(0.000595398 -0.000929486 -0.00480344)
(-4.05565e-05 -9.2717e-05 0.000372991)
(-0.000322205 -0.000847947 0.000189219)
(5.80322e-05 0.000367488 0.000359705)
(-0.000514783 -1.37992e-05 0.00107053)
(-0.000534312 -0.00275268 -0.00127118)
(0.0017154 -0.00100496 -0.00353651)
(0.000864196 0.000781676 -0.00143966)
(-1.86488e-05 -0.000102633 4.15627e-05)
(0.000237214 -0.000350338 0.00582875)
(3.62031e-05 -0.000138304 0.000346032)
(0.000622653 0.00306578 -0.000422294)
(-0.0001819 -0.000287553 -0.0035453)
(1.60956e-05 -1.54176e-05 -0.00129613)
(0.000868907 0.000805922 0.000298097)
(0.000132742 -0.000199358 0.000434441)
(-0.000311239 0.00325685 -4.44356e-06)
(0.00031255 0.000457361 -0.00510523)
(-0.000599022 0.000446175 -0.00565253)
(-0.000288316 -0.000658947 -0.00190973)
(-0.000444116 0.000682168 -0.00178591)
(0.00020162 0.000307117 0.000652559)
(-0.000380866 -0.00107847 0.00324924)
(-0.00015824 0.000811357 -0.00437006)
(-0.00253167 0.00236731 -0.00139648)
(-0.000163955 -0.000162006 -0.00260959)
(-0.00030035 -0.00054889 -0.000724245)
(0.000231713 0.000443914 0.00289611)
(-0.00103625 -0.00112246 0.000474767)
(-0.000396431 0.000547038 0.000420357)
(8.40619e-05 -0.00089809 0.000333163)
(-2.42953e-06 -0.000814433 -0.00170083)
(0.000289806 -0.000292432 -0.00439342)
(-0.000832583 2.87161e-05 0.00453837)
(0.00021971 -0.00221385 -0.00499614)
(0.000138021 -0.000476102 -0.00308088)
(-2.31135e-06 -0.00011518 0.000668573)
(-4.96389e-05 0.000689473 0.000357098)
(-0.000667406 0.000504265 -0.00011551)
(0.000275409 -0.000340563 0.00026753)
(-0.000247887 -1.52202e-05 0.00145008)
(-1.14776e-05 -4.33503e-05 0.000142002)
(-0.000273328 -0.000609655 0.00040971)
(0.000862531 -0.000260329 -0.00243131)
(-0.00037371 -1.45183e-05 0.000685233)
(2.61988e-05 -1.93018e-05 0.000682972)
(-0.000309014 -0.000903306 -0.00176436)
(8.1368e-05 -0.000119156 0.000449093)
(0.000126844 0.000483991 0.000168831)
(-0.000525939 -0.000138572 0.000364197)
(-0.000363553 -9.25684e-05 0.00851235)
(-0.000553693 9.45664e-06 0.000319268)
(-0.000353164 -1.62846e-05 0.000232244)
(1.86944e-05 -4.00956e-05 0.000401702)
(-0.000256941 -0.000822574 6.72884e-05)
(-0.00115059 -0.000246438 -0.00717186)
(-0.000259973 -0.000590385 0.00371569)
(-0.00096384 0.000288579 0.000368621)
(-0.00134746 0.00694538 -0.00201979)
(0.000203645 -7.30966e-05 -0.00248076)
(-0.00137236 5.18889e-05 -0.00760811)
(-3.86e-05 -0.000277882 -0.00401689)
(1.39852e-06 5.71115e-05 0.000212142)
(0.000129378 -0.000202623 0.000357086)
(-0.000108464 -3.18988e-05 -0.00545123)
(-0.0015513 0.0010071 0.000171354)
(0.000153359 0.000867628 -0.00209693)
(0.000230068 0.000356684 0.000533668)
(0.000187956 -1.12001e-05 6.56239e-05)
(0.000225046 -0.000251333 0.00108105)
(0.00207203 0.00409918 0.000204787)
(-0.000506021 0.000379055 -0.00265134)
(0.000215322 -0.000330907 0.00735687)
(0.000664544 0.000551721 0.000118572)
(-1.50894e-05 -0.000236248 0.00401432)
(-5.87339e-06 -0.000277634 0.000183505)
(0.000785067 -0.000938271 -0.00160691)
(-0.00070631 0.000354199 0.000252737)
(3.88415e-05 -0.00026944 -0.00662795)
(-4.12094e-05 0.000109272 0.000526325)
(7.68135e-05 -0.000262423 -0.00339635)
(-0.000400672 -3.98283e-05 -0.000407993)
(-0.00019796 -3.59536e-05 0.000610999)
(0.00340953 0.00311563 -0.0149336)
(0.00528481 -0.000891688 -0.00815927)
(-0.000536158 7.00429e-06 0.000619337)
(0.000100341 8.32617e-06 0.000414492)
(0.000190761 0.000286897 0.000738031)
(-0.00120475 0.00165806 0.000691096)
(-2.30124e-05 0.000748584 0.000501239)
(0.000185187 -1.25076e-05 0.00147225)
(-0.000183954 -0.000882059 0.000139279)
(-0.000458545 0.00061 -0.0031079)
(6.19567e-05 -8.9896e-05 6.83408e-05)
(0.000220899 -1.4532e-05 0.000461814)
(-0.000158689 -0.000131262 0.000465525)
(-0.00055259 -1.58483e-05 -0.00353146)
(5.05098e-05 -0.000107508 0.000480231)
(0.000586788 0.000347397 -0.00170522)
(-0.000545002 0.000950924 0.00369104)
(0.000201781 -0.000323884 0.00600194)
(0.000242262 -0.000377436 -7.19763e-05)
(0.000896622 0.000877233 -0.000553192)
(-0.000155601 0.000196934 -0.00361725)
(-6.54845e-05 -0.000217293 -0.00654713)
(-0.00314105 0.00433971 0.000293787)
(2.41392e-05 0.0018877 0.000341362)
(-3.26103e-05 -0.000798022 0.000996098)
(0.000211833 0.0003364 -0.00147233)
(-0.00107529 4.90903e-05 0.000426878)
(0.00023793 -0.00043855 0.000274616)
(-0.00087044 -0.000407927 0.000567974)
(-0.000160947 -7.98677e-05 -0.00202449)
(-0.000305424 0.00339879 0.000334833)
(7.98112e-05 0.00432731 0.00177697)
(-4.85692e-05 0.00112162 0.00131032)
(0.00318967 -0.00101727 -0.00246809)
(-0.00015839 -0.00636864 0.000146231)
(0.000298467 -0.000491904 0.000259931)
(8.47545e-05 -0.000119832 0.000947328)
(-0.000294522 -0.000293199 0.00280411)
(-0.000469691 0.000261644 -0.00566839)
(-0.00119382 0.00109712 -0.00178374)
(-2.55676e-05 0.000263842 0.00061836)
(-0.00252051 0.00602332 -2.97236e-05)
(-4.61818e-05 -0.00018962 -0.00306997)
(-0.000224166 -0.000214135 -0.00201998)
(0.000185859 -0.000148737 0.000542233)
(0.000586609 0.000595971 -0.00192826)
(0.000258627 -1.48612e-05 0.000415791)
(1.17829e-05 -0.000307509 0.000460186)
(-3.47387e-05 -0.000231827 -0.00408197)
(-0.000145679 -5.45384e-05 0.000698805)
(5.20025e-05 -0.000203804 -0.000747385)
(0.00101617 -7.95681e-05 -8.16548e-05)
(-0.000198614 -0.000673601 -0.00170851)
(-0.000121439 -7.38458e-05 0.000355205)
(6.0992e-05 0.000272041 0.000144935)
(6.5291e-05 -0.000304859 0.000273513)
(4.87217e-05 0.000305569 0.00163478)
(-0.00140736 0.00890911 -0.0146358)
(0.000229517 -0.000175282 -0.00298387)
(-0.000349964 -0.000394052 0.000324092)
(-3.39047e-05 0.000417243 -0.000117954)
(-0.00319383 0.00194153 0.000124992)
(0.000144606 -9.91407e-05 0.000322436)
(6.57899e-05 0.000438275 0.000336242)
(-2.16743e-05 1.18402e-05 0.00282663)
(4.27976e-05 -0.000108238 -0.00132188)
(2.24804e-06 0.00334212 -0.00215325)
(0.000310162 -0.000404597 0.000376227)
(-8.09016e-05 -2.73796e-05 0.000487594)
(-0.000965314 1.8607e-05 0.00110079)
(-6.67733e-05 -0.0012731 0.000329371)
(-0.000286779 0.000279966 -0.00397426)
(-0.000626076 0.000441091 -0.00859354)
(0.000797555 -0.00118462 0.00585798)
(0.000333409 0.000406546 -0.00195865)
(-0.000314202 0.000434405 -0.00117738)
(-3.00659e-05 -0.000799174 -0.0015765)
(-0.0018416 0.00094214 8.95042e-05)
(0.00192787 0.00379442 -0.00155039)
(0.00591536 0.000691644 -0.015648)
(-0.000276061 -0.000361172 -0.0067079)
(7.37106e-05 -8.68246e-05 0.000285486)
(-9.21858e-05 -4.68789e-05 3.86643e-05)
(-0.000356519 -0.000397234 0.00774353)
(-0.000748836 -0.000769519 -0.00179856)
(0.000466036 -0.000550705 -0.00149717)
(4.97852e-05 -0.00078893 0.000154725)
(-0.000154313 0.00414408 -0.00232344)
(1.51296e-05 -0.000199758 -0.00180156)
(5.36605e-05 -0.000347949 0.00281194)
(8.51852e-05 -0.000124492 0.000413547)
(-1.35543e-05 -0.00058227 -0.00240126)
(-0.000266336 9.38228e-05 0.000174041)
(-2.84432e-05 0.000287592 -0.00278554)
(-0.000223388 -0.000274059 -0.00259991)
(-0.000422659 -1.68155e-05 -0.00263398)
(-6.18212e-05 -8.05747e-05 0.000309086)
(-1.10524e-05 -0.000174665 -6.44309e-05)
(-0.000359468 -8.30207e-06 0.000312027)
(-4.25433e-05 -0.00010676 0.000392382)
(9.42871e-05 -0.000114243 -0.00197981)
(-0.0018236 0.00182858 0.000403581)
(-0.0018152 -0.000936797 0.000204119)
(0.000120611 -2.55751e-05 0.000453894)
(-0.00027335 -0.000545168 0.000262827)
(-0.000118024 0.00057935 0.000272457)
(2.49799e-05 -0.000132773 0.000655764)
(-0.000191956 -0.000151924 3.63156e-06)
(-0.000253228 -0.000601231 0.000433007)
(-0.000363731 0.000672417 -0.00248488)
(-0.0220678 -0.000889675 -0.00278239)
(-0.000317141 -0.000408641 0.000305911)
(-0.000355669 -1.70101e-05 -0.00079605)
(-0.00132555 0.000816773 -0.00397168)
(4.89116e-05 -0.000152293 -0.000489261)
(4.15588e-05 0.000278718 -0.00336259)
(0.000258175 0.000935575 -0.000397189)
(0.000121238 -1.3147e-05 -0.00271764)
(0.000351279 -0.000420013 0.000463494)
(0.00276532 4.4104e-05 0.00175634)
(-0.000350801 0.000493219 -0.00450714)
(-3.57496e-05 0.000570025 0.000396755)
(-0.000357786 -2.59681e-05 0.000755148)
(0.000208123 -0.00052492 0.000291)
(-2.91855e-05 -3.56832e-05 0.000266586)
(-0.000743316 -0.000708657 -0.00637299)
(0.000307934 -0.000401427 0.000364981)
(-0.00012173 -0.000163954 -0.000922887)
(-0.000268044 0.000407898 -0.00162122)
(0.000189277 -0.000479063 0.000552493)
(-4.17412e-05 -0.00025753 0.000349768)
(9.44295e-05 0.000153025 -0.00177312)
(-0.00171726 0.00947888 0.000143217)
(-4.8137e-05 0.000509084 0.00039926)
(-0.000418623 0.000326668 0.00781492)
(0.000470021 -2.12832e-06 -4.58521e-05)
(0.000346527 0.000239237 0.000648471)
(-0.00096185 0.00148718 -0.00244545)
(-3.63749e-06 -7.52519e-05 0.000254887)
(-0.000243534 -0.00029287 -0.00175677)
(-0.000359851 0.000757941 -0.00314449)
(-0.000483226 0.000392325 0.000332609)
(9.30251e-06 0.000379232 -0.00481183)
(-0.000245799 -6.61073e-06 -0.0031357)
(0.000124679 -0.000191786 0.000329441)
(1.82519e-05 -0.000828708 0.00329844)
(-0.000793523 -0.000222527 -0.00155934)
(9.58264e-05 0.000393327 0.00029754)
(0.000702479 0.000682617 -0.00195045)
(4.20223e-05 0.000485079 0.000693347)
(-0.000458942 0.00194008 -0.00355979)
(-0.000396904 -4.45371e-05 0.000716857)
(0.000246225 0.000379327 0.000301927)
(-0.000436448 -0.000394659 0.000348943)
(-0.00142153 0.00032895 -0.000337223)
(-0.000203664 -0.000498743 0.000401195)
(-2.38305e-05 0.000243095 -0.000165559)
(0.000384036 0.000738636 -0.00321356)
(-0.000125252 -7.09217e-05 0.000657584)
(0.00166339 0.002033 -0.0141754)
(0.00114172 0.00102793 0.000581873)
(0.00364942 -0.000308145 -0.00208326)
(-0.000162482 0.000132555 0.00379871)
(-0.000387603 -1.46712e-05 -0.00137568)
(-0.000892877 5.97117e-05 0.000328093)
(0.000162305 -0.000179032 -0.00485643)
(-4.61207e-05 -0.000172364 -0.00355116)
(0.000228108 -0.000260752 0.00034118)
(0.000248617 0.000385756 -0.00346741)
(-0.000166317 7.92171e-05 0.00307823)
(0.00119212 0.00294461 -0.00623608)
(-0.00080534 -0.00472698 0.00300039)
(8.15312e-05 -0.000679913 0.000495823)
(0.0339641 0.00745075 -0.021458)
(-0.000377317 0.000810777 0.000375912)
(-0.000762905 5.74225e-05 0.000129627)
(0.000241216 0.000374061 0.00021534)
(-2.08015e-05 -7.18212e-05 0.000612538)
(2.12524e-05 -2.53251e-05 0.000100513)
(-0.00292496 0.00628348 -4.72608e-05)
(-3.77773e-05 -0.000183819 -0.00332854)
(-0.000312257 0.000442732 -0.00539445)
(0.000102315 0.00231135 0.000341627)
(4.5384e-05 2.07786e-05 4.5828e-06)
(-0.000578801 0.000796749 0.000329677)
(-0.000464889 0.000267089 -0.000190334)
(-0.000361482 -0.0010627 0.00161684)
(-9.27243e-05 0.000708927 0.000382748)
(-7.94114e-05 8.65838e-05 -0.00055663)
(0.00378038 -0.00126817 0.00025534)
(-0.00531268 0.0021829 -0.0131283)
(-0.000273629 -0.000566374 0.000358854)
(-0.000571138 0.000838949 0.000169879)
(-8.01929e-05 -1.63409e-05 -0.00175231)
(0.00103244 -0.000874683 -0.00326214)
(0.000245367 -0.000288675 0.000448218)
(-6.88835e-05 -0.000451178 0.000392752)
(-0.00174372 0.000888275 0.000261632)
(4.23395e-05 -0.000873376 0.000346308)
(0.000142745 -0.000437479 -0.00253403)
(-0.000692834 0.000105608 0.000664387)
(0.000426216 0.000493593 0.000465817)
(2.23564e-05 -0.000166669 -0.00249537)
(-1.80957e-05 -0.000145217 -0.00181266)
(-2.93403e-05 0.000142115 0.000273733)
(0.000740357 1.79527e-05 -0.00172099)
(-5.56553e-05 -0.000476794 -0.0027295)
(0.000120387 -0.000181187 0.00154207)
(9.38984e-06 -0.000238712 -0.000251947)
(-0.000310028 0.000145016 3.70543e-05)
(0.000193109 0.000294876 0.000456783)
(-0.000248816 0.00310807 -1.07999e-05)
(-0.000174672 -0.000737513 -0.000303366)
(-6.24373e-05 -6.88955e-05 0.000291783)
(0.000361895 0.00060039 -0.00171569)
(-0.000901926 0.000623246 -0.00124911)
(-2.96972e-05 0.000300743 0.0002507)
(8.18178e-05 0.00304795 -0.000134775)
(0.000449748 -0.000532619 0.000403997)
(1.67699e-05 -0.000101271 0.000271218)
(-0.0010938 -6.05713e-05 0.000197185)
(0.000928885 -0.000872598 0.000403003)
(-6.77642e-05 -6.57012e-05 -0.00162535)
(0.000121099 0.000565663 0.000301379)
(-0.000230464 -0.000173185 -0.00344909)
(6.58438e-05 -0.000165829 0.000321042)
(0.00786792 0.0028103 -0.0217464)
(-0.000614293 -0.000320413 -0.000132447)
(4.14652e-06 -0.000116988 0.000285983)
(0.000561503 -0.00125665 0.000343171)
(-0.000802932 -0.00397501 0.000341524)
(9.71273e-05 -0.000145252 0.000402212)
(-0.000121426 -7.05921e-05 0.000423703)
(0.000400913 -0.000921972 -0.00483371)
(-0.000382382 0.00092582 0.000354474)
(-0.000150449 -0.000144381 -0.000184393)