/*--------------------------------*- C++ -*----------------------------------*\
| =========                 |                                                 |
| \\      /  F ield         | OpenFOAM: The Open Source CFD Toolbox           |
|  \\    /   O peration     | Version:  plus.master.MPPICInterFoam            |
|   \\  /    A nd           | Web:      www.OpenFOAM.com                      |
|    \\/     M anipulation  |                                                 |
\*---------------------------------------------------------------------------*/
FoamFile
{
    version     2.0;
    format      ascii;
    class       Cloud<basicKinematicMPPICParcel>;
    location    "4.4/lagrangian/kinematicCloud";
    object      positions;
}
// * * * * * * * * * * * * * * * * * * * * * * * * * * * * * * * * * * * * * //

2845
(
(-0.0319931 -0.0600918 0.54303) 2547
(-0.0326994 -0.0511531 0.546685) 2538
(-0.0462147 -0.0541149 0.539551) 2484
(-0.0356727 -0.0527035 0.545517) 2538
(-0.0451632 -0.0537344 0.538954) 2483
(-0.0458921 -0.0517843 0.538489) 2483
(-0.0456232 -0.053797 0.53833) 2483
(-0.0442789 -0.0457025 0.543977) 2538
(-0.0507479 -0.0466042 0.539188) 2195
(-0.0557074 -0.0413012 0.536524) 2195
(-0.0527921 -0.0469043 0.53767) 2195
(-0.0562213 -0.0414385 0.537421) 2195
(-0.0445238 -0.0446419 0.544428) 2538
(-0.0696908 -0.0138844 0.537933) 2180
(-0.0435333 -0.0528777 0.540493) 2483
(-0.042068 -0.0548711 0.54082) 2483
(-0.0620894 -0.0321838 0.538526) 2187
(-0.0562747 -0.0396644 0.538366) 2195
(-0.0406109 -0.0564958 0.541508) 2539
(-0.069258 0.00253269 0.538162) 2171
(-0.0684665 -0.0116904 0.538921) 2179
(-0.0690157 -0.0139955 0.538581) 2179
(-0.0456386 -0.0480624 0.543979) 2539
(-0.0571917 -0.0394295 0.539839) 2195
(-0.0582901 -0.040071 0.539429) 2195
(-0.0459245 -0.0487868 0.543482) 2539
(-0.0621082 -0.0327991 0.538013) 2187
(-0.0708128 0.00381604 0.539039) 2172
(-0.069951 0.00390864 0.539444) 2171
(-0.0441312 -0.0475594 0.54312) 2538
(-0.0679137 0.0055221 0.54088) 2171
(-0.0393599 -0.0567756 0.542622) 2539
(-0.0664114 0.00955438 0.542947) 2219
(-0.069612 0.00393249 0.539664) 2171
(-0.0682852 -0.0131624 0.539514) 2179
(-0.0541053 -0.0459245 0.539256) 2196
(-0.0637888 -0.0284722 0.539196) 2187
(-0.0387995 -0.0550996 0.542719) 2539
(-0.0677031 0.0134376 0.540316) 2163
(-0.0633407 -0.0269097 0.538709) 2187
(-0.0449891 -0.0494738 0.542724) 2539
(-0.0568235 -0.0392594 0.541254) 2251
(-0.0680859 0.00222947 0.539957) 2171
(-0.0571486 -0.0380251 0.541354) 2251
(-0.055475 -0.0441047 0.538702) 2196
(-0.0697424 -0.000214624 0.53949) 2171
(-0.0693241 -0.0144121 0.539243) 2180
(-0.0319076 -0.0505749 0.546811) 2537
(-0.0679518 0.000348149 0.54041) 2171
(-0.0681114 -0.017842 0.539886) 2179
(-0.0632858 -0.0265339 0.53889) 2187
(-0.0640643 -0.0265587 0.540311) 2187
(-0.0277761 -0.0566587 0.545058) 2546
(-0.061465 -0.0212894 0.544217) 2234
(-0.0444611 -0.0478174 0.543374) 2539
(-0.067991 -0.0125117 0.539535) 2179
(-0.054554 -0.0413194 0.541012) 2195
(-0.0428058 -0.0569112 0.540953) 2484
(-0.0305302 -0.0596038 0.543907) 2547
(-0.0685707 0.00576128 0.541005) 2171
(-0.0659926 0.00454916 0.541236) 2227
(-0.0467588 -0.0449916 0.543496) 2250
(-0.0555808 -0.0384166 0.542142) 2251
(-0.032495 -0.0526461 0.546571) 2546
(-0.0456759 -0.051582 0.542293) 2539
(-0.0693217 -0.0166675 0.539797) 2180
(-0.0570298 -0.0411761 0.539811) 2195
(-0.0419628 -0.0547169 0.541816) 2539
(-0.0540524 -0.0409697 0.541228) 2251
(-0.0566953 -0.0419911 0.540349) 2195
(-0.0564893 -0.0427923 0.540548) 2196
(-0.0705042 -0.0128775 0.539943) 2180
(-0.0557333 -0.0368024 0.542343) 2251
(-0.0699591 0.00116802 0.539643) 2171
(-0.0677204 0.0164991 0.539899) 2163
(-0.063862 -0.00811155 0.544897) 2234
(-0.0608051 -0.0215668 0.544583) 2242
(-0.0592864 -0.0327463 0.53933) 2187
(-0.0543084 -0.0428373 0.540885) 2195
(-0.0531857 -0.0370935 0.543701) 2250
(-0.0304923 -0.0596474 0.544056) 2547
(-0.0677228 0.00563075 0.541456) 2227
(-0.0632088 0.00623514 0.54429) 2226
(-0.0664991 -0.0117801 0.540851) 2179
(-0.0408787 -0.054394 0.542561) 2539
(-0.0665269 -0.0162152 0.541525) 2235
(-0.0561044 -0.034545 0.542942) 2243
(-0.0555253 -0.0382078 0.541608) 2251
(-0.0680401 -0.0141942 0.539863) 2179
(-0.0625674 -0.0316583 0.540522) 2187
(-0.0459825 -0.0515929 0.542525) 2539
(-0.065577 -0.0177446 0.542315) 2235
(-0.0673385 -0.0160971 0.541605) 2235
(-0.0624165 -0.018013 0.543282) 2234
(-0.0631053 0.0059289 0.544309) 2226
(-0.04519 -0.0545391 0.540535) 2484
(-0.0433024 -0.056581 0.540826) 2484
(-0.0644464 0.0104243 0.543039) 2219
(-0.0683571 -0.0113283 0.54132) 2235
(-0.060649 0.00506601 0.547181) 2226
(-0.0639767 -0.00957434 0.543429) 2234
(-0.0630416 -0.00942115 0.545605) 2234
(-0.0666152 0.0112245 0.542716) 2219
(-0.0647998 0.00984223 0.543647) 2219
(-0.0668423 0.0150657 0.540873) 2163
(-0.0513589 -0.0446464 0.5414) 2251
(-0.0641563 -0.0272602 0.539423) 2187
(-0.068168 0.000221684 0.540726) 2171
(-0.059981 -0.0325152 0.541504) 2243
(-0.0456168 -0.0447978 0.544552) 2250
(-0.0539586 0.0432054 0.541413) 2203
(-0.0397142 -0.0521686 0.54301) 2539
(-0.054804 -0.0428209 0.541207) 2251
(-0.0639398 -0.0108646 0.54289) 2234
(-0.0659099 -0.0181634 0.542412) 2235
(-0.0686674 0.00464622 0.542265) 2227
(-0.0648678 -0.0251562 0.541133) 2187
(-0.0676006 0.0150868 0.540183) 2163
(-0.0451403 -0.0541036 0.54063) 2483
(-0.0629439 0.0266972 0.541777) 2211
(-0.0429303 -0.0551463 0.541285) 2539
(-0.0642218 -0.0284035 0.54058) 2187
(-0.0675684 -0.0167789 0.54104) 2179
(-0.0280911 -0.0592175 0.544851) 2547
(-0.0675974 -0.0171681 0.541297) 2235
(-0.0652269 -0.0178458 0.541815) 2235
(-0.0602097 -0.0250881 0.544667) 2243
(-0.0652512 -0.015959 0.541736) 2235
(-0.0622892 -0.0270812 0.5425) 2243
(-0.0679126 -0.011605 0.541492) 2235
(-0.052205 -0.045526 0.541251) 2251
(-0.0448315 -0.0527872 0.541134) 2483
(-0.0630108 -0.00990346 0.544267) 2234
(-0.0638793 -0.0103983 0.542695) 2234
(-0.0636963 -0.0102956 0.542784) 2234
(-0.0685767 0.00541848 0.541657) 2227
(-0.0675879 -0.0131498 0.541312) 2235
(-0.06409 -0.0161977 0.542026) 2235
(-0.0646583 -0.0159936 0.54185) 2235
(-0.0656171 -0.0171031 0.541796) 2235
(-0.0649133 -0.0192784 0.543046) 2235
(-0.0658692 -0.0114297 0.541991) 2235
(-0.0586872 0.00788774 0.548233) 2217
(-0.0452473 -0.0537654 0.540748) 2483
(-0.0395032 -0.0543715 0.542544) 2539
(-0.056383 -0.0405294 0.542452) 2251
(-0.0274156 -0.0587031 0.545064) 2546
(-0.0433425 -0.0542216 0.542369) 2539
(-0.0603112 -0.0102809 0.546734) 2234
(-0.0635929 -0.0103056 0.542719) 2234
(-0.0590851 -0.0249623 0.54504) 2242
(-0.0672391 0.0118915 0.541834) 2219
(-0.0662408 0.0043631 0.543716) 2227
(-0.0587303 -0.00995626 0.546673) 2233
(-0.0626913 -0.0148588 0.542826) 2234
(-0.0618629 -0.0259764 0.543777) 2243
(-0.0636697 0.00407332 0.545537) 2226
(-0.0679406 -0.0124114 0.540214) 2179
(-0.0687414 0.000232868 0.540691) 2171
(-0.0658038 0.0163789 0.540709) 2163
(-0.0549536 -0.0431312 0.541106) 2195
(-0.0225174 -0.0575826 0.546837) 2546
(-0.0628751 0.0028657 0.545107) 2226
(-0.0449882 -0.0513689 0.543651) 2539
(-0.0612138 0.00439474 0.547129) 2226
(-0.0662393 -0.0105225 0.543249) 2235
(-0.068245 -0.0122071 0.541978) 2235
(-0.0543531 -0.0372232 0.541976) 2251
(-0.0446006 -0.0492903 0.542725) 2539
(-0.0540061 -0.0417284 0.541496) 2251
(-0.0385525 -0.0541256 0.543234) 2539
(-0.065345 -0.0195611 0.542059) 2235
(-0.0424085 -0.0550136 0.541951) 2539
(-0.0306168 -0.0485671 0.548014) 2537
(-0.0648987 0.0200205 0.541766) 2219
(-0.0652344 0.0178111 0.541612) 2219
(-0.060765 -0.0258798 0.543908) 2243
(-0.0613144 -0.0105539 0.546057) 2234
(-0.0571336 -0.0233111 0.547489) 2242
(-0.0638646 -0.0182356 0.54391) 2235
(-0.0555278 -0.0406568 0.542617) 2251
(-0.0650366 0.00111767 0.544861) 2227
(-0.0677108 0.00418709 0.543587) 2227
(-0.0315803 -0.050266 0.547363) 2545
(-0.0680199 -0.0121946 0.541254) 2235
(-0.0396358 0.0421624 0.549709) 2921
(-0.0590003 -0.0320389 0.541774) 2243
(-0.0658688 -0.0184169 0.542618) 2235
(-0.0588305 -0.0101265 0.547295) 2234
(-0.0379413 -0.0528685 0.544923) 2538
(-0.054063 -0.0393084 0.543122) 2251
(-0.0494296 -0.0436617 0.542204) 2251
(-0.0658694 -0.0165625 0.543545) 2235
(-0.0397336 -0.0519875 0.54242) 2539
(-0.0301725 -0.0476619 0.5484) 2537
(-0.0685566 -0.0136937 0.540832) 2179
(-0.0457063 -0.0450137 0.544909) 2250
(-0.0669642 0.016835 0.541292) 2219
(-0.0566458 -0.0223389 0.547082) 2242
(-0.0567305 -0.0218888 0.547104) 2242
(-0.0684526 0.00426291 0.541736) 2227
(-0.0686077 0.003005 0.541319) 2227
(-0.0607314 0.0289293 0.542852) 2211
(-0.0366829 -0.0530964 0.545457) 2538
(-0.0626535 0.0193563 0.544297) 2219
(-0.0642339 -0.0117302 0.545167) 2235
(-0.0645568 -0.0116232 0.545084) 2235
(-0.0649001 0.00408396 0.54448) 2226
(-0.0663133 -0.0140073 0.543588) 2235
(-0.0589597 0.00337754 0.547987) 2225
(-0.069351 -0.00315449 0.541256) 2227
(-0.0660749 -0.0120939 0.541537) 2235
(-0.0292137 -0.0588731 0.544889) 2547
(-0.0521679 -0.046379 0.542644) 2251
(-0.0439243 -0.0502277 0.544001) 2539
(-0.0226409 -0.0559714 0.547257) 2546
(-0.0635157 -0.000472891 0.54459) 2226
(-0.0630628 -0.0113759 0.545695) 2234
(-0.0668328 -0.0163754 0.542863) 2235
(-0.0603784 -0.0112027 0.545998) 2234
(-0.0592661 -0.0266939 0.545542) 2242
(-0.0617239 0.00292096 0.546853) 2226
(-0.0307213 -0.0484534 0.547897) 2537
(-0.0627829 -0.0189676 0.544148) 2235
(-0.0211954 -0.0535857 0.549107) 2545
(-0.0642399 -0.015653 0.54362) 2235
(-0.0640828 -0.0168681 0.544036) 2235
(-0.0643906 -0.0116179 0.545281) 2235
(-0.0524585 0.0169038 0.551324) 2273
(-0.0622312 0.0185403 0.545192) 2218
(-0.0429793 -0.0542125 0.541881) 2539
(-0.0443483 -0.0537494 0.541533) 2539
(-0.0557415 -0.0336868 0.544313) 2242
(-0.0639817 -0.0166162 0.542455) 2235
(-0.066414 -0.0173741 0.542363) 2235
(-0.047985 -0.0323388 0.547503) 2249
(-0.0666295 -0.0114996 0.54471) 2235
(-0.0604972 -0.0105694 0.546303) 2234
(-0.0638778 -0.0117086 0.545221) 2234
(-0.065735 0.00155955 0.545872) 2227
(-0.0551693 -0.0419532 0.54194) 2251
(-0.0533494 -0.0439966 0.542845) 2251
(-0.0635127 0.0196784 0.543492) 2219
(-0.0388609 0.0415958 0.550036) 2921
(-0.0614269 -0.0179997 0.544573) 2234
(-0.0618882 -0.0262722 0.544182) 2243
(-0.0431073 -0.0485689 0.54494) 2538
(-0.0504995 -0.0439584 0.543385) 2251
(-0.0542318 -0.0215686 0.548705) 2241
(-0.053937 -0.0218673 0.548805) 2241
(-0.0675288 0.000976571 0.544386) 2227
(-0.0625324 -0.0276882 0.541562) 2243
(-0.0668608 -0.0166979 0.541896) 2235
(-0.0658663 0.0161772 0.54266) 2219
(-0.0619241 -0.00975205 0.544975) 2234
(-0.0628081 -0.0171974 0.543898) 2235
(-0.0118075 -0.0551089 0.550404) 2553
(-0.0429531 -0.0496798 0.544455) 2539
(-0.0630725 0.00418912 0.545201) 2226
(-0.0538462 -0.0402236 0.544505) 2251
(-0.00261484 -0.0570469 0.550499) 2561
(-0.056633 -0.0082257 0.549783) 2233
(-0.0641181 -0.0121695 0.545602) 2235
(-0.0618619 -0.0166694 0.545061) 2234
(-0.0640527 -0.00963426 0.545611) 2234
(-0.0653927 -0.0165899 0.542119) 2235
(-0.0438709 -0.0543229 0.541821) 2539
(-0.0531993 -0.0185755 0.548466) 2233
(-0.0565842 -0.0233455 0.54721) 2242
(-0.0577948 0.02672 0.54551) 2210
(-0.0638569 -0.015109 0.54476) 2235
(-0.0583646 -0.0324157 0.545195) 2243
(-0.0650515 -0.012194 0.545422) 2235
(-0.0293536 -0.0559456 0.545459) 2546
(-0.0643735 -0.0010251 0.544841) 2226
(-0.0592071 0.0157678 0.546516) 2218
(-0.0525111 0.0055069 0.552396) 2280
(-0.0304699 -0.0577429 0.545224) 2547
(-0.0603801 0.0019915 0.547011) 2226
(-0.0625513 -0.000730324 0.546424) 2226
(-0.0657197 0.0138733 0.542794) 2219
(-0.0442053 -0.0523635 0.542124) 2539
(-0.0546725 -0.0432967 0.541826) 2251
(-0.0325952 0.0461818 0.550685) 2921
(-0.0542626 -0.040826 0.543592) 2251
(-0.0167443 -0.0500538 0.55092) 2552
(-0.0137903 -0.0566359 0.549715) 2553
(-0.0642103 -0.0138015 0.544513) 2235
(-0.0639072 -0.0167342 0.544734) 2235
(-0.0402409 0.0431618 0.549036) 2921
(-0.0563218 -0.0242026 0.546716) 2242
(-0.042358 -0.0490995 0.544615) 2538
(-0.0536238 0.017183 0.550833) 2217
(-0.0437946 -0.0425198 0.546292) 2250
(-0.0630715 0.00327932 0.54643) 2226
(-0.0613238 -0.0181906 0.547453) 2234
(-0.0653665 -0.0188957 0.541919) 2235
(-0.0331145 0.0461054 0.550443) 2921
(-0.0427809 -0.0493987 0.544334) 2539
(-0.0549827 0.0304009 0.546768) 2210
(-0.0520664 -0.0391558 0.545203) 2251
(-0.0584694 0.0237127 0.545778) 2210
(-0.0639928 -0.0130599 0.544314) 2235
(-0.0517874 -0.0190445 0.550312) 2241
(-0.0291078 -0.0573596 0.545161) 2546
(-0.0627827 -0.0156842 0.54689) 2234
(-0.0331375 -0.0518741 0.547033) 2538
(-0.0363959 -0.0529806 0.545629) 2538
(-0.0497906 0.0378478 0.546559) 2202
(-0.0622002 -0.0132452 0.544968) 2234
(-0.0643409 -0.0149463 0.544756) 2235
(-0.0615253 -0.0133641 0.54524) 2234
(-0.0592424 -0.0110825 0.54713) 2234
(-0.0661616 -0.0116563 0.545383) 2235
(-0.00227125 -0.0570315 0.550469) 2561
(-0.0581841 -0.0268656 0.545166) 2242
(-0.0622697 -0.0158722 0.545969) 2234
(-0.0631241 -0.00776662 0.544971) 2234
(-0.0408369 -0.0510243 0.543431) 2539
(-0.0305395 0.0451621 0.552119) 2977
(-0.0533878 -0.0397705 0.542324) 2251
(-0.0304762 -0.0527013 0.546871) 2546
(-0.0527431 -0.0405228 0.54281) 2251
(-0.0604898 -0.0257673 0.544391) 2243
(-0.065983 0.0169477 0.543366) 2219
(5.33164e-05 -0.0589806 0.550126) 2561
(-0.0183974 -0.0569265 0.548806) 2554
(-0.0494087 -0.0351049 0.546612) 2250
(-0.0622589 -0.0151522 0.545841) 2234
(-0.0551465 0.0076446 0.550071) 2217
(-0.0612417 -0.0139881 0.546132) 2234
(-0.0303236 -0.0555657 0.545893) 2546
(-0.0386005 -0.0538409 0.54549) 2539
(-0.060778 -0.0135094 0.546399) 2234
(-0.062745 -0.0239752 0.542238) 2243
(-0.0297194 -0.0513778 0.547217) 2545
(-0.0390073 -0.0528298 0.545135) 2539
(-0.0489747 0.0372591 0.546714) 2202
(-0.0284443 -0.0593733 0.545294) 2547
(-0.0519759 -0.0408068 0.544966) 2251
(-0.0483527 0.0364543 0.547207) 2202
(-0.064815 -0.0163977 0.544472) 2235
(-0.0626713 -0.0130943 0.545177) 2234
(-0.00216234 -0.0565958 0.550643) 2561
(-0.0560227 -0.0170168 0.548163) 2233
(-0.0620532 -0.025244 0.543516) 2243
(-0.064321 -0.00900021 0.544463) 2234
(-0.0648184 -0.0189001 0.543063) 2235
(-0.0523737 0.0296375 0.547866) 2210
(-0.0658364 -0.0161736 0.542903) 2235
(-0.0532828 -0.0405164 0.543862) 2251
(-0.0646266 -0.0146507 0.544097) 2235
(-0.0527107 -0.0412687 0.54506) 2251
(-0.0517947 -0.0401347 0.545032) 2251
(-0.0598204 0.0272851 0.544917) 2211
(-0.0156175 -0.055297 0.549637) 2553
(-0.0621919 -0.0110138 0.546268) 2234
(-0.0598195 -0.0177517 0.546361) 2234
(-0.0632601 0.00100969 0.545459) 2226
(-0.0455577 -0.0434466 0.545836) 2250
(-0.0424711 -0.0491322 0.544793) 2538
(-0.0463974 -0.0419768 0.544957) 2250
(-0.0695361 0.00267091 0.542014) 2227
(-0.0589795 0.00461742 0.548026) 2225
(-0.0574792 0.0258387 0.5459) 2210
(-0.0293382 -0.0514599 0.54695) 2545
(-0.0302839 -0.0569681 0.545491) 2546
(-0.0640302 -0.0102285 0.546835) 2234
(-0.0389877 -0.0514222 0.544954) 2538
(-0.0274562 -0.0584521 0.54569) 2546
(-0.0255614 -0.0576523 0.546119) 2546
(-0.0262549 -0.0574972 0.545911) 2546
(-0.0498351 -0.0422381 0.544725) 2251
(-0.0223669 -0.0577504 0.54721) 2546
(-0.00333748 -0.0535155 0.551641) 2616
(-0.0432839 0.0394577 0.548518) 2201
(-0.0572839 0.0231259 0.547352) 2210
(-0.00824379 -0.0531693 0.551823) 2608
(-0.0280161 -0.0564167 0.545522) 2546
(-0.0625687 -0.0134818 0.546563) 2234
(-0.0605562 -0.0158524 0.546491) 2234
(-0.0596443 0.00169113 0.547306) 2226
(-0.0538253 -0.0192861 0.550303) 2241
(-0.0273253 0.0481398 0.551503) 2969
(-0.0417801 -0.0494364 0.543956) 2538
(-0.0589457 -0.0250373 0.546233) 2242
(-0.0300121 -0.0552162 0.545873) 2546
(-0.0275283 -0.0553766 0.545867) 2546
(-0.0265654 -0.0577527 0.545976) 2546
(-0.0419862 -0.0483174 0.544832) 2538
(-0.0584269 -0.0247027 0.54519) 2242
(-0.0650713 -0.0136657 0.544113) 2235
(-0.0658848 -0.0139012 0.543863) 2235
(-0.0264861 -0.0573969 0.546047) 2546
(-0.0053402 -0.0479259 0.555175) 2615
(-0.0454412 0.0324846 0.551945) 2257
(-0.0599638 -0.0127137 0.546754) 2234
(-0.0644797 -0.0131275 0.546293) 2235
(-0.0527576 -0.0311355 0.546854) 2242
(-0.0609179 0.0148954 0.546414) 2218
(-0.0484083 0.0070781 0.558703) 2272
(-0.0599521 -0.0165353 0.547129) 2234
(-0.0598091 -0.00921001 0.548684) 2234
(-0.0641822 -0.0123112 0.547248) 2235
(-0.0523852 -0.00645402 0.553064) 2288
(-0.0599274 -0.00422789 0.548211) 2226
(-0.0523193 0.0294141 0.548236) 2210
(-0.0602825 -0.0281875 0.545028) 2243
(-0.0237062 -0.0572556 0.546927) 2546
(-0.0394082 -0.0522225 0.545209) 2539
(-0.047452 -0.0426679 0.544984) 2250
(-0.0658197 -0.00164397 0.545312) 2227
(-0.0577566 -0.00808278 0.549653) 2233
(-0.0502067 -0.0417335 0.544837) 2251
(-0.0504215 -0.0384386 0.545422) 2250
(-0.0284538 -0.0570085 0.545728) 2546
(-0.060643 0.0170106 0.546307) 2218
(-0.0583183 -0.00947715 0.548614) 2233
(-0.0620217 0.0123001 0.546049) 2218
(-0.00747863 -0.0531227 0.552338) 2608
(-0.00525763 -0.0515694 0.553135) 2616
(-0.0288347 -0.0564014 0.545539) 2546
(-0.0359444 -0.0524801 0.54592) 2538
(-0.0521773 0.0169413 0.551676) 2273
(-0.0593054 -0.0145194 0.547104) 2234
(-0.0572652 -0.0170854 0.54778) 2234
(-0.0592047 -0.0105065 0.548035) 2234
(-0.0661201 0.00518357 0.543477) 2227
(-0.0476335 -0.0322625 0.547888) 2249
(-0.0410323 -0.0513467 0.544881) 2539
(-0.022733 0.0542838 0.551091) 2913
(-0.0646684 -0.00101257 0.545152) 2226
(-0.0232583 -0.0549242 0.547831) 2546
(-0.0315899 -0.0487331 0.547799) 2537
(-0.0617489 -0.00473366 0.547149) 2226
(-0.0279339 -0.0561197 0.545901) 2546
(-0.0552639 -0.0310396 0.546139) 2242
(-0.0589688 -0.0147218 0.547107) 2234
(-0.034953 -0.0515601 0.546295) 2538
(-0.062283 -0.0156286 0.547637) 2234
(-0.0648085 -0.0129137 0.543528) 2235
(-0.0241942 -0.0546409 0.547452) 2546
(-0.0244631 0.0503261 0.55123) 2969
(-0.0665975 0.000290545 0.543719) 2227
(-0.0473147 0.033305 0.550003) 2201
(-0.0509799 -0.0399449 0.544877) 2250
(-0.0400881 -0.050248 0.544908) 2538
(-0.0332844 0.0458163 0.550381) 2921
(-0.0586493 -0.00573725 0.549073) 2225
(-0.0555188 -0.00843676 0.550199) 2233
(-0.062346 -0.0108027 0.547251) 2234
(-0.0584993 -0.00952294 0.548599) 2233
(-0.0621661 -0.0146794 0.546566) 2234
(-0.0536128 -0.031228 0.546665) 2242
(-0.0112877 -0.0544115 0.550604) 2553
(-0.0064957 -0.0505068 0.554068) 2608
(-0.0593482 -0.0176921 0.547179) 2234
(-0.0595944 -0.017824 0.547157) 2234
(-0.0467911 0.0349509 0.548916) 2201
(0.00187006 -0.0580065 0.55041) 2561
(-0.0433258 -0.0416926 0.546475) 2250
(-0.0586772 -0.0132422 0.54764) 2234
(-0.0626109 -0.013899 0.547774) 2234
(-0.0679543 -0.0015299 0.543097) 2227
(-0.0577459 -0.0250422 0.546163) 2242
(-0.0262819 -0.0589198 0.546213) 2546
(-0.0388634 0.0418045 0.551667) 2977
(-0.0629472 -0.0119104 0.546492) 2234
(-0.0519194 -0.0427316 0.545283) 2251
(-0.0441511 0.039397 0.548287) 2201
(-0.0502194 -0.040162 0.544926) 2250
(-0.00819963 -0.051567 0.552471) 2608
(-0.00822855 -0.052178 0.552216) 2608
(-0.00142287 -0.0562391 0.550834) 2561
(-0.0119903 -0.0556821 0.550263) 2553
(-0.0576763 -0.0140475 0.547568) 2233
(-0.058871 -0.0161024 0.547563) 2234
(-0.0461375 -0.0419852 0.545342) 2250
(-0.0561844 -0.00964818 0.549516) 2233
(-0.0234402 -0.0564734 0.547416) 2546
(-0.0230893 -0.05543 0.548064) 2546
(-0.0540385 -0.0173454 0.549625) 2233
(-0.0586635 -0.011024 0.548225) 2234
(-0.0582231 0.00253695 0.548614) 2225
(-0.0566946 0.00406858 0.549667) 2225
(-0.0555082 0.0166588 0.548992) 2217
(-0.000814509 -0.0565585 0.550697) 2561
(-0.0429676 -0.0492028 0.545427) 2539
(-0.00481 -0.0443268 0.556445) 2615
(0.000710661 -0.0569803 0.550613) 2561
(-0.061734 -0.015467 0.547447) 2234
(-0.028094 -0.055012 0.546087) 2546
(-0.0359085 -0.0513029 0.545896) 2538
(-0.0230546 -0.0537733 0.548613) 2545
(-0.0285094 -0.0553291 0.54603) 2546
(-0.0557516 -0.0223869 0.548897) 2242
(-0.058761 -0.0131502 0.547887) 2234
(-0.0591683 -0.0136427 0.547739) 2234
(-0.0155312 0.0510828 0.553109) 2960
(-0.0344868 0.0473388 0.549967) 2921
(-0.0222866 -0.053267 0.549162) 2545
(-0.0241238 -0.0565137 0.547176) 2546
(-0.0601123 -0.000464883 0.548092) 2226
(-0.0592577 -0.0116976 0.54811) 2234
(-0.0606033 0.000289269 0.548152) 2226
(-0.0543015 -0.0203779 0.549743) 2241
(-0.0241049 -0.0553886 0.547437) 2546
(-0.0384655 -0.0530166 0.545871) 2539
(-0.0393682 -0.0506274 0.545588) 2538
(-0.0567542 -0.0167479 0.548151) 2233
(-0.0455454 0.0304034 0.552202) 2257
(-0.0471994 0.0383994 0.547609) 2202
(-0.0245796 -0.0559103 0.54716) 2546
(-0.0590418 -0.0259635 0.547523) 2242
(0.0550615 -0.0209168 0.546052) 1873
(0.05352 -0.019459 0.547383) 1873
(-0.0608436 -0.00238899 0.546754) 2226
(-0.0590504 -0.00960239 0.548398) 2234
(-0.0399192 -0.0500315 0.545434) 2538
(-0.00261029 -0.0563165 0.550781) 2561
(-0.0605126 -0.0141168 0.54707) 2234
(-0.0494825 -0.0386336 0.545856) 2250
(-0.000772779 -0.0581739 0.550303) 2561
(-0.0603072 -0.0123584 0.547439) 2234
(-0.0545393 -0.02877 0.546664) 2242
(-0.0590685 0.00302582 0.548751) 2225
(-0.0249995 -0.0566391 0.546956) 2546
(-0.0542299 0.00483703 0.551933) 2281
(-0.0578253 -0.00597471 0.550678) 2225
(-0.0643225 0.0143186 0.544939) 2219
(-0.0634958 -0.0122432 0.545288) 2234
(-0.0569527 -0.00947101 0.548991) 2233
(-0.0569937 -0.0271411 0.546113) 2242
(-0.0568291 -0.00432312 0.549014) 2225
(-0.0573401 -0.0246012 0.546946) 2242
(-0.0607171 -0.00984743 0.547995) 2234
(-0.0257349 -0.0557151 0.54706) 2546
(-0.0265633 -0.0429775 0.551808) 2600
(-0.0379956 -0.0496542 0.546074) 2538
(-0.0167647 -0.0535924 0.549716) 2553
(8.60416e-05 -0.0555559 0.551206) 2617
(-0.0463044 0.0331283 0.550377) 2201
(6.81317e-05 -0.0519796 0.552469) 2616
(-0.0537456 -0.0213722 0.549587) 2241
(-0.0596827 -0.0143096 0.547308) 2234
(-0.0256583 -0.0565652 0.546955) 2546
(-0.0539521 0.00692851 0.55194) 2273
(-0.0252237 -0.055156 0.547283) 2546
(-0.0254382 -0.0558151 0.547064) 2546
(-0.0590262 -0.0117073 0.548343) 2234
(-0.0639215 0.00102396 0.545177) 2226
(-0.0120878 0.0525731 0.552686) 2960
(-0.04882 -0.0353899 0.547178) 2250
(-0.0486493 -0.0346073 0.547638) 2250
(-0.0241615 -0.0544218 0.548229) 2545
(-0.0384344 -0.0471441 0.546742) 2538
(-0.0372315 -0.0510121 0.546097) 2538
(-0.0390527 -0.0495073 0.546134) 2538
(-0.0289427 -0.0501334 0.548318) 2545
(-0.0249753 -0.0532224 0.548075) 2545
(-0.0570734 -0.0046737 0.549637) 2225
(-0.0531744 -0.0212244 0.549838) 2241
(-0.0274676 -0.054541 0.547206) 2546
(-0.0508928 -0.041089 0.545544) 2251
(-0.0464198 0.0359221 0.54851) 2201
(-0.0490569 -0.0391372 0.546276) 2250
(-0.0413929 -0.0444283 0.546685) 2538
(-0.0582208 -0.0121654 0.548614) 2233
(-0.064911 -0.000415161 0.545078) 2226
(-0.0546089 0.0227446 0.549052) 2209
(-0.0633981 0.0119425 0.545798) 2218
(-0.0249784 -0.0556873 0.547734) 2546
(-0.0382786 -0.0478156 0.546926) 2538
(-0.022693 -0.0545981 0.548929) 2545
(-0.0490462 -0.0371961 0.546693) 2250
(-0.0236107 -0.0552593 0.548556) 2546
(-0.0369583 -0.0460877 0.547685) 2537
(-0.0226527 -0.0529154 0.549284) 2545
(-0.0467664 -0.0417855 0.547028) 2250
(-0.0495438 -0.0186706 0.552205) 2296
(-0.00348396 -0.0525609 0.552155) 2616
(-0.0370368 -0.0454424 0.548814) 2537
(-9.39102e-05 -0.057003 0.550616) 2561
(-0.00301499 -0.0542082 0.551504) 2617
(-0.037845 0.0442349 0.549949) 2921
(-0.0538124 0.016333 0.550511) 2217
(-0.0085928 -0.0541329 0.551498) 2609
(-0.0600927 -0.0113651 0.548383) 2234
(-0.0242143 -0.0532652 0.548455) 2545
(-0.0464138 -0.0401933 0.5472) 2250
(-0.0287798 -0.0539055 0.5487) 2546
(-0.0579768 -0.0155697 0.54854) 2234
(-0.0664477 -0.000745505 0.545142) 2227
(-0.0259096 0.0492264 0.55124) 2969
(-0.0325586 -0.0466464 0.549809) 2537
(-0.0259026 -0.0560414 0.547527) 2546
(-0.0458196 0.0331661 0.550628) 2201
(-0.0461554 -0.0396615 0.546791) 2250
(-0.0243116 -0.0531802 0.548593) 2545
(-0.0555521 -0.0237104 0.54781) 2242
(-0.0616315 -0.0118119 0.547414) 2234
(-0.0241001 -0.0536234 0.548711) 2545
(-0.0575935 -0.0146389 0.548133) 2233
(-0.0234836 -0.0513932 0.549217) 2545
(-0.0226209 -0.0533193 0.549361) 2545
(0.0502456 -0.0166741 0.549684) 1880
(0.00113189 -0.0566679 0.550785) 2561
(0.00115951 -0.0559217 0.551134) 2617
(-0.0245029 -0.0537911 0.548652) 2545
(-0.0463079 0.0276288 0.552228) 2264
(-0.0468836 -0.0356969 0.549017) 2249
(-0.0547448 0.0158621 0.550044) 2217
(-0.0165238 -0.0528471 0.550151) 2553
(-0.0377117 -0.041534 0.550444) 2537
(-0.0442828 -0.036003 0.549587) 2249
(-0.0565098 -0.00878595 0.550835) 2233
(-0.0603028 0.00125585 0.549516) 2226
(-0.0662848 -0.000954862 0.544943) 2227
(0.0501898 -0.0166591 0.549732) 1880
(-0.0651074 -0.00417942 0.545396) 2227
(0.0451435 -0.0159739 0.552753) 1927
(0.0457455 -0.0164379 0.552279) 1927
(-0.0257122 -0.0536219 0.548562) 2545
(-0.0240502 -0.0532701 0.548835) 2545
(-0.0240603 -0.0523932 0.548982) 2545
(-0.0250029 -0.0511601 0.549508) 2545
(-0.00799378 -0.0499075 0.553077) 2608
(-0.0202522 -0.051352 0.550258) 2545
(-0.0561346 -0.0158654 0.548836) 2233
(-0.0546307 -0.00558321 0.550954) 2225
(-0.0617887 -0.0129274 0.547655) 2234
(-0.000283489 -0.056733 0.550713) 2561
(-0.00214429 -0.055091 0.551306) 2617
(-0.0531017 -0.0217007 0.549831) 2241
(0.00195915 -0.0530597 0.55212) 2616
(-0.0537205 -0.0241587 0.549376) 2241
(-0.057071 -0.00990209 0.549851) 2233
(-0.0583621 -0.0134466 0.549073) 2234
(-0.058615 -0.0101254 0.549813) 2233
(-0.056124 -0.00894459 0.550883) 2233
(-0.0629397 -0.00175126 0.545906) 2226
(-0.0251825 -0.052524 0.54895) 2545
(-0.0247981 -0.0517746 0.549654) 2545
(-0.0518315 0.0280817 0.549151) 2209
(-0.0448955 -0.038983 0.548058) 2249
(-0.0559488 -0.00471532 0.550214) 2225
(-0.0029123 -0.0559096 0.551122) 2617
(-0.0490534 -0.0182159 0.553326) 2296
(-0.0505054 -0.017363 0.551708) 2288
(-0.0354154 -0.0473021 0.549206) 2537
(-0.0528807 -0.0174908 0.550774) 2233
(-0.0503304 0.0282468 0.549923) 2209
(-0.0451429 0.0366088 0.549167) 2201
(-0.0483109 -0.0288698 0.550477) 2241
(-0.0532122 -0.0232508 0.549305) 2241
(-0.0276778 -0.0476598 0.550231) 2545
(-0.0381573 0.0394712 0.551784) 2977
(-0.054337 -0.0279036 0.548286) 2242
(-0.057679 -0.0118874 0.549389) 2233
(-0.0590501 -0.00247946 0.549712) 2225
(-0.0594572 -0.00132596 0.549863) 2225
(-0.0582805 -0.0118909 0.549564) 2233
(-0.0608917 -0.00206374 0.549815) 2226
(-0.061572 -0.00839777 0.546327) 2234
(-0.0224282 0.0513921 0.55128) 2969
(0.056379 -0.0164243 0.548011) 1881
(-0.0396749 -0.0388667 0.550684) 2249
(-0.0558332 -0.0171881 0.549091) 2233
(-0.0612533 0.000265975 0.54728) 2226
(-0.0234871 -0.055878 0.548858) 2546
(-0.0435204 -0.038497 0.54951) 2249
(-0.0349931 -0.0462844 0.549601) 2537
(-0.0528273 -0.0213998 0.55011) 2241
(-0.0465753 0.0334334 0.55083) 2201
(-0.0613427 -0.0108798 0.549092) 2234
(-0.0359185 -0.0437515 0.549892) 2537
(-0.0196544 -0.0512244 0.550536) 2545
(-0.0235984 -0.0507527 0.549327) 2545
(-0.0235734 -0.0509792 0.549359) 2545
(-0.0520593 0.00484819 0.553732) 2280
(-0.0568873 -0.0137851 0.549735) 2233
(-0.056235 0.00321099 0.550736) 2225
(-0.0593482 -0.00111435 0.550034) 2225
(0.0563027 -0.015502 0.546749) 1881
(-0.0621131 -0.00543874 0.546311) 2226
(-0.061597 0.00210013 0.546296) 2226
(0.0459238 -0.01628 0.552934) 1927
(-0.0604975 0.0179954 0.546285) 2218
(-0.0607768 -0.00914258 0.547546) 2234
(-0.0615556 0.0139803 0.546529) 2218
(0.0502498 -0.0171914 0.550103) 1880
(-0.0548293 -0.0234548 0.548781) 2242
(-0.0624423 -0.00198975 0.547568) 2226
(-0.0606553 -0.00196532 0.547764) 2226
(-0.0601447 -0.0111091 0.5477) 2234
(-0.0364046 -0.043605 0.549932) 2537
(-0.00138602 -0.0517614 0.552522) 2616
(-0.0452181 0.0306697 0.552451) 2257
(-0.022916 -0.0524899 0.549651) 2545
(-0.0366004 -0.0440651 0.549833) 2537
(0.00132588 -0.0546768 0.551668) 2617
(-0.0586746 0.0026875 0.548924) 2225
(-0.0454388 0.0341625 0.550478) 2201
(-0.0493963 -0.0291568 0.550526) 2241
(-0.0506959 0.0168708 0.553288) 2272
(-0.0288171 -0.0485556 0.550702) 2545
(-0.0576911 7.18818e-05 0.55059) 2225
(-0.0586651 0.000480619 0.550329) 2225
(-0.0578215 0.00247286 0.550922) 2225
(0.0572593 -0.0151361 0.546238) 1881
(-0.0604293 0.0023885 0.547427) 2226
(-0.0365235 0.043952 0.550534) 2921
(-0.0252784 -0.0518165 0.549935) 2545
(-0.0355125 -0.0433524 0.550026) 2537
(-0.0362702 0.0444427 0.550416) 2921
(-0.0434275 -0.0375129 0.549731) 2249
(-0.0362522 -0.0460077 0.549724) 2537
(0.000255558 -0.0547225 0.551576) 2617
(-0.0158442 -0.0530323 0.54979) 2553
(-0.0244524 -0.0517905 0.549988) 2545
(-0.0439517 -0.0275387 0.552979) 2296
(-0.0248667 -0.0518151 0.54997) 2545
(-0.0453411 -0.0360376 0.5493) 2249
(-0.0544586 0.0157666 0.550412) 2217
(-0.0547702 -0.0243644 0.549212) 2242
(-0.0587483 -0.00258339 0.549942) 2225
(-0.050326 -0.0198284 0.553219) 2296
(-0.0578022 -0.0121839 0.549795) 2233
(-0.0580477 -0.00274218 0.550134) 2225
(-0.0582529 -0.000978565 0.550669) 2225
(-0.0437174 -0.0382801 0.549607) 2249
(-0.056672 -0.0153905 0.550466) 2233
(0.0553648 -0.0129794 0.54827) 1881
(-0.031057 0.0449471 0.551912) 2977
(-0.0134685 0.0540249 0.551952) 2961
(-0.0447422 0.0376245 0.548901) 2201
(-0.0615946 0.000125314 0.547432) 2226
(0.0554278 -0.0137923 0.548103) 1881
(0.0559809 -0.0135781 0.548007) 1881
(-0.0216739 -0.0526333 0.55002) 2545
(-0.0372529 -0.0432289 0.549998) 2537
(-0.0454201 -0.0335275 0.550134) 2249
(-0.0566993 -0.0154587 0.54921) 2233
(-0.0413057 -0.0380118 0.550159) 2249
(-0.0280231 -0.0485063 0.550461) 2545
(-0.014994 -0.0431953 0.556112) 2607
(-0.0246143 -0.051972 0.550002) 2545
(-0.0245362 -0.051793 0.550104) 2545
(-0.0604042 -0.0123682 0.548585) 2234
(-0.024829 -0.0511991 0.549969) 2545
(-0.0276979 -0.044784 0.551813) 2600
(-0.0253282 -0.0521081 0.549964) 2545
(-0.026185 -0.0512791 0.550054) 2545
(-0.0540266 0.0154505 0.550507) 2217
(-0.0536954 -0.0228127 0.549957) 2241
(-0.0535424 -0.0239614 0.549666) 2241
(-0.0246557 -0.0512412 0.550044) 2545
(-0.043965 -0.0341541 0.549927) 2249
(-0.0367336 -0.0439907 0.549898) 2537
(-0.055053 -0.0140997 0.550373) 2233
(-0.0586387 0.000707812 0.550116) 2225
(-0.0548446 -0.0163 0.5507) 2233
(-0.0570103 -0.00975581 0.550714) 2233
(-0.0563425 -0.0045125 0.551852) 2281
(-0.0556956 0.00375753 0.551617) 2281
(0.0569662 -0.0129567 0.546683) 1881
(0.0538391 -0.0126253 0.548774) 1881
(-0.0604396 -0.000461369 0.547929) 2226
(0.0537223 -0.0133763 0.54889) 1881
(-0.0075996 0.0509884 0.556536) 2960
(-0.0584875 -0.00472828 0.549493) 2225
(-0.0604243 -0.00287287 0.548285) 2226
(-0.0592049 0.00167701 0.549007) 2225
(-0.042368 -0.0368101 0.549673) 2249