/*--------------------------------*- C++ -*----------------------------------*\
| =========                 |                                                 |
| \\      /  F ield         | OpenFOAM: The Open Source CFD Toolbox           |
|  \\    /   O peration     | Version:  plus.master                           |
|   \\  /    A nd           | Web:      www.OpenFOAM.com                      |
|    \\/     M anipulation  |                                                 |
\*---------------------------------------------------------------------------*/
FoamFile
{
    version     2.0;
    format      ascii;
    class       scalarField;
    location    "7.2/lagrangian/kinematicCloud";
    object      age;
}
// * * * * * * * * * * * * * * * * * * * * * * * * * * * * * * * * * * * * * //


96597
(
7.20119
7.20117
7.20115
7.20113
7.20111
7.20109
7.20107
7.20106
7.20104
7.201
7.20098
7.20096
7.20095
7.20093
7.20091
7.20088
7.20086
7.20084
7.20083
7.20081
7.20079
7.20078
7.20076
7.20075
7.20073
7.20068
7.20067
7.20065
7.20064
7.20063
7.20061
7.2006
7.20058
7.20057
7.20056
7.20054
7.20053
7.20052
7.2005
7.20049
7.20048
7.20047
7.20045
7.20044
7.20043
7.20042
7.20041
7.20039
7.20038
7.20037
7.20036
7.20035
7.20034
7.20033
7.20032
7.2003
7.20029
7.20028
7.20027
7.20026
7.20025
7.20024
7.20023
7.20022
7.20022
7.2002
7.20018
7.20017
7.20017
7.20015
7.20015
7.20014
7.20013
7.20013
7.20012
7.20011
7.20011
7.2001
7.20009
7.20008
7.20008
7.20007
7.20007
7.20006
7.20006
7.20006
7.20005
7.20005
7.20004
7.20004
7.20004
7.20003
7.20003
7.20003
7.20002
7.20002
7.20002
7.20001
7.20001
7.20001
7.20001
7.2
7.2
7.2
7.2
7.20023
7.20021
7.20019
7.20015
7.20011
7.20008
7.20006
7.20002
7.2
7.19998
7.19997
7.19993
7.19991
7.19989
7.19986
7.19984
7.19983
7.19981
7.19979
7.19978
7.19976
7.19974
7.19973
7.19971
7.1997
7.19968
7.19967
7.19965
7.19963
7.1996
7.19959
7.19958
7.19956
7.19953
7.19952
7.19949
7.19944
7.19942
7.19941
7.1994
7.19938
7.19936
7.19934
7.19932
7.19931
7.1993
7.19929
7.19927
7.19925
7.19924
7.19922
7.1992
7.19919
7.19918
7.19917
7.19916
7.19915
7.19914
7.19913
7.19912
7.19911
7.1991
7.19909
7.19909
7.19907
7.19906
7.19905
7.19904
7.19904
7.19902
7.19901
7.199
7.199
7.19899
7.19898
7.19898
7.19897
7.19896
7.19894
7.19893
7.19892
7.19892
7.19891
7.1989
7.19889
7.19889
7.19889
7.19888
7.19887
7.19887
7.19886
7.19886
7.19886
7.19885
7.19885
7.19884
7.19884
7.19883
7.19883
7.19883
7.19883
7.19883
7.19882
7.19882
7.19882
7.19882
7.19882
7.19882
7.19881
7.19881
7.19881
7.19881
7.19881
7.19881
7.19881
7.19909
7.19907
7.19905
7.19903
7.19901
7.19899
7.19897
7.19895
7.19894
7.19892
7.1989
7.19888
7.19886
7.19884
7.19881
7.19879
7.19877
7.19875
7.19873
7.19872
7.1987
7.19868
7.19866
7.19865
7.19863
7.19861
7.1986
7.19858
7.19856
7.19855
7.19853
7.1985
7.19845
7.19843
7.19842
7.1984
7.19839
7.19837
7.19836
7.19834
7.19831
7.1983
7.19827
7.19826
7.19824
7.19823
7.19821
7.19819
7.19817
7.19816
7.19815
7.19813
7.19812
7.19809
7.19807
7.19806
7.19804
7.19803
7.19802
7.19801
7.19799
7.19797
7.19796
7.19795
7.19794
7.19793
7.19791
7.1979
7.19789
7.19788
7.19787
7.19786
7.19785
7.19784
7.19783
7.19781
7.1978
7.19779
7.19778
7.19777
7.19776
7.19775
7.19774
7.19773
7.19771
7.19769
7.19768
7.19767
7.19767
7.19766
7.19765
7.19764
7.19763
7.19762
7.19761
7.19761
7.1976
7.19759
7.19759
7.19758
7.19757
7.19757
7.19756
7.19755
7.19755
7.19754
7.19753
7.19753
7.19752
7.19752
7.19751
7.19751
7.1975
7.1975
7.19749
7.19749
7.19748
7.19748
7.19747
7.19747
7.19746
7.19746
7.19746
7.19745
7.19745
7.19744
7.19744
7.19744
7.19743
7.19742
7.19742
7.19742
7.19742
7.19741
7.19741
7.19741
7.1974
7.1974
7.1974
7.1974
7.1974
7.1974
7.19739
7.19739
7.19739
7.19739
7.19773
7.19771
7.19769
7.19767
7.19765
7.19763
7.19761
7.19759
7.19757
7.19755
7.19753
7.19751
7.19747
7.19742
7.1974
7.19738
7.19736
7.19735
7.19733
7.19731
7.19729
7.19727
7.19726
7.19724
7.19722
7.19721
7.19719
7.19717
7.19715
7.19714
7.19712
7.19709
7.19707
7.19705
7.19704
7.19702
7.19701
7.19699
7.19697
7.19696
7.19694
7.19693
7.19691
7.1969
7.19688
7.19686
7.19685
7.19683
7.19682
7.1968
7.19679
7.19678
7.19676
7.19675
7.19673
7.19672
7.19669
7.19668
7.19666
7.19663
7.19662
7.19661
7.19659
7.19658
7.19657
7.19655
7.19652
7.1965
7.19649
7.19648
7.19647
7.19645
7.19644
7.19643
7.19642
7.1964
7.19639
7.19638
7.19637
7.19636
7.19635
7.19634
7.19632
7.1963
7.19629
7.19628
7.19627
7.19625
7.19624
7.19623
7.19622
7.19621
7.19619
7.19618
7.19617
7.19615
7.19614
7.19613
7.19612
7.19611
7.1961
7.19609
7.19608
7.19607
7.19606
7.19605
7.19604
7.19603
7.19603
7.19602
7.19601
7.19599
7.19598
7.19597
7.19596
7.19596
7.19595
7.19593
7.19593
7.19591
7.19591
7.1959
7.19589
7.19589
7.19588
7.19588
7.19587
7.19586
7.19586
7.19585
7.19585
7.19584
7.19584
7.19583
7.19582
7.19582
7.19581
7.19581
7.1958
7.1958
7.19579
7.19579
7.19578
7.19578
7.19577
7.19577
7.19577
7.19576
7.19576
7.19575
7.19575
7.19575
7.19574
7.19574
7.19574
7.19573
7.19573
7.19573
7.19573
7.19572
7.19572
7.19572
7.19572
7.19571
7.19571
7.19571
7.1957
7.1957
7.1957
7.1957
7.1957
7.19569
7.19569
7.19569
7.19569
7.19569
7.19569
7.19569
7.19569
7.19569
7.19569
7.19569
7.19607
7.19605
7.19603
7.19601
7.19599
7.19597
7.19595
7.19593
7.19591
7.19587
7.19586
7.19584
7.19582
7.1958
7.19578
7.19576
7.19574
7.19572
7.19571
7.19569
7.19567
7.19565
7.19563
7.19562
7.1956
7.19558
7.19556
7.19554
7.19553
7.19551
7.19549
7.19544
7.19542
7.19541
7.19539
7.19537
7.19536
7.19534
7.19532
7.19531
7.19529
7.19527
7.19524
7.19522
7.19521
7.19519
7.19518
7.19516
7.19514
7.19513
7.19511
7.1951
7.19508
7.19507
7.19505
7.19504
7.19502
7.19501
7.19499
7.19498
7.19496
7.19493
7.1949
7.19489
7.19488
7.19486
7.19485
7.19483
7.19482
7.19481
7.19479
7.19478
7.19477
7.19475
7.19474
7.19473
7.19471
7.1947
7.19469
7.19467
7.19466
7.19465
7.19463
7.19462
7.1946
7.19458
7.19457
7.19455
7.19454
7.19452
7.1945
7.19449
7.19448
7.19446
7.19445
7.19444
7.19443
7.19442
7.19441
7.1944
7.19439
7.19437
7.19436
7.19434
7.19433
7.19432
7.1943
7.19429
7.19426
7.19425
7.19424
7.19422
7.19421
7.1942
7.19419
7.19418
7.19417
7.19416
7.19415
7.19414
7.19413
7.19412
7.19411
7.19408
7.19408
7.19407
7.19405
7.19404
7.19404
7.19403
7.19402
7.19401
7.194
7.194
7.19399
7.19398
7.19397
7.19397
7.19396
7.19395
7.19395
7.19393
7.19392
7.19391
7.1939
7.19389
7.19389
7.19388
7.19387
7.19386
7.19386
7.19385
7.19384
7.19384
7.19383
7.19383
7.19382
7.19382
7.19381
7.19381
7.1938
7.1938
7.19379
7.19379
7.19378
7.19377
7.19376
7.19376
7.19376
7.19375
7.19375
7.19374
7.19374
7.19373
7.19373
7.19373
7.19372
7.19372
7.19371
7.19371
7.19371
7.19371
7.1937
7.1937
7.19369
7.19369
7.19368
7.19368
7.19368
7.19368
7.19368
7.19367
7.19367
7.19367
7.19366
7.19366
7.19366
7.19366
7.19366
7.19366
7.19366
7.19366
7.19365
7.19365
7.19365
7.19365
7.19365
7.19365
7.19365
7.19365
7.19413
7.19411
7.19409
7.19407
7.19405
7.19403
7.19401
7.19399
7.19393
7.19391
7.19387
7.19385
7.19382
7.1938
7.19376
7.19374
7.19372
7.19367
7.19365
7.19363
7.19361
7.19359
7.19358
7.19356
7.19354
7.19352
7.1935
7.19349
7.19347
7.19345
7.19342
7.1934
7.19338
7.19336
7.19335
7.19333
7.19331
7.1933
7.19328
7.19326
7.19325
7.19323
7.19321
7.19318
7.19316
7.19315
7.19313
7.19312
7.1931
7.19307
7.19305
7.19304
7.19302
7.193
7.19299
7.19297
7.19296
7.19294
7.19293
7.1929
7.19288
7.19287
7.19285
7.19284
7.19282
7.19281
7.19279
7.19278
7.19276
7.19275
7.19273
7.19272
7.19269
7.19268
7.19266
7.19265
7.19263
7.19262
7.19261
7.19259
7.19258
7.19257
7.19255
7.19254
7.19253
7.19251
7.1925
7.19249
7.19247
7.19246
7.19243
7.19242
7.19241
7.1924
7.19238
7.19237
7.19233
7.19232
7.19231
7.1923
7.19228
7.19226
7.19225
7.19224
7.19222
7.19221
7.1922
7.19219
7.19218
7.19216
7.19214
7.19213
7.19212
7.19211
7.1921
7.19207
7.19206
7.19205
7.19202
7.19201
7.192
7.19199
7.19198
7.19196
7.19193
7.19192
7.1919
7.19189
7.19188
7.19188
7.19187
7.19186
7.19185
7.19184
7.19182
7.19181
7.1918
7.19179
7.19178
7.19177
7.19176
7.19175
7.19174
7.19173
7.19172
7.19172
7.19171
7.19169
7.19168
7.19168
7.19165
7.19165
7.19163
7.19162
7.19162
7.19161
7.19159
7.19158
7.19157
7.19155
7.19154
7.19153
7.19152
7.19151
7.19151
7.1915
7.1915
7.19149
7.19148
7.19148
7.19147
7.19147
7.19146
7.19145
7.19144
7.19144
7.19143
7.19143
7.19142
7.19141
7.19141
7.1914
7.1914
7.19139
7.19139
7.19138
7.19138
7.19137
7.19137
7.19136
7.19136
7.19135
7.19134
7.19133
7.19133
7.19133
7.19132
7.19131
7.19131
7.1913
7.1913
7.1913
7.1913
7.19129
7.19129
7.19128
7.19128
7.19128
7.19128
7.19127
7.19127
7.19127
7.19126
7.19126
7.19126
7.19126
7.19126
7.19125
7.19125
7.19125
7.19124
7.19124
7.19124
7.19124
7.19124
7.19124
7.19123
7.19123
7.19123
7.19123
7.19123
7.19123
7.19123
7.19123
7.19123
7.19123
7.19123
7.19123
7.19176
7.19174
7.19172
7.1917
7.19168
7.19164
7.19162
7.1916
7.19158
7.19156
7.19152
7.1915
7.19148
7.19146
7.19139
7.19137
7.19135
7.19127
7.19125
7.19122
7.1912
7.19118
7.19116
7.19114
7.19113
7.19111
7.19109
7.19107
7.19105
7.19104
7.191
7.19098
7.19097
7.19095
7.19093
7.19091
7.19088
7.19086
7.19084
7.19083
7.19079
7.19078
7.19076
7.19074
7.19073
7.19071
7.19069
7.19068
7.19066
7.19061
7.19059
7.19056
7.19055
7.19053
7.1905
7.19048
7.19045
7.19043
7.19042
7.1904
7.19039
7.19037
7.19036
7.19034
7.19033
7.19028
7.19024
7.19022
7.19021
7.19019
7.19018
7.19016
7.19015
7.19012
7.1901
7.19009
7.19007
7.19006
7.19005
7.19003
7.19002
7.19
7.18999
7.18998
7.18995
7.18993
7.18992
7.18989
7.18988
7.18987
7.18985
7.18983
7.18981
7.1898
7.18979
7.18977
7.18976
7.18974
7.18972
7.1897
7.18968
7.18967
7.18966
7.18965
7.18962
7.18961
7.1896
7.18957
7.18956
7.18955
7.18954
7.18951
7.1895
7.18949
7.18948
7.18946
7.18944
7.18942
7.18941
7.18939
7.18938
7.18937
7.18936
7.18934
7.18933
7.18932
7.18931
7.1893
7.18929
7.18928
7.18927
7.18926
7.18925
7.18924
7.18923
7.18922
7.18921
7.1892
7.18919
7.18918
7.18917
7.18916
7.18915
7.18914
7.18913
7.18911
7.1891
7.18909
7.18908
7.18907
7.18905
7.18904
7.18903
7.18903
7.18902
7.18901
7.189
7.18899
7.18898
7.18897
7.18896
7.18895
7.18894
7.18893
7.18892
7.18891
7.18891
7.1889
7.18889
7.18887
7.18886
7.18886
7.18885
7.18884
7.18883
7.18883
7.18882
7.18881
7.1888
7.1888
7.18879
7.18877
7.18876
7.18875
7.18875
7.18874
7.18873
7.18873
7.18872
7.18871
7.18871
7.1887
7.18869
7.18868
7.18867
7.18867
7.18865
7.18865
7.18864
7.18864
7.18863
7.18862
7.18862
7.18861
7.18861
7.1886
7.1886
7.18859
7.18858
7.18858
7.18857
7.18857
7.18856
7.18855
7.18854
7.18854
7.18853
7.18853
7.18852
7.18852
7.18851
7.18851
7.1885
7.1885
7.1885
7.18849
7.18848
7.18848
7.18847
7.18847
7.18847
7.18846
7.18846
7.18846
7.18845
7.18845
7.18844
7.18844
7.18844
7.18843
7.18843
7.18842
7.18842
7.18842
7.18841
7.18841
7.1884
7.1884
7.1884
7.18839
7.18839
7.18839
7.18838
7.18838
7.18838
7.18838
7.18837
7.18837
7.18837
7.18837
7.18837
7.18836
7.18836
7.18836
7.18836
7.18835
7.18835
7.18835
7.18835
7.18835
7.18835
7.18835
7.18834
7.18834
7.18834
7.18834
7.18834
7.18834
7.18834
7.18834
7.18833
7.18833
7.18833
7.18833
7.18833
7.18833
7.18833
7.18833
7.18833
7.18833
7.18833
7.18891
7.18889
7.18887
7.18885
7.18883
7.18881
7.18879
7.18877
7.18875
7.18873
7.18871
7.18869
7.18867
7.18865
7.18863
7.18861
7.18859
7.18857
7.18856
7.18854
7.18852
7.18848
7.18846
7.18844
7.18842
7.18841
7.18839
7.18833
7.18831
7.18829
7.18828
7.18826
7.18824
7.18822
7.1882
7.18818
7.18813
7.18811
7.1881
7.18808
7.18804
7.18802
7.18801
7.18799
7.18797
7.18795
7.18794
7.18792
7.1879
7.18788
7.18787
7.18785
7.18783
7.18782
7.1878
7.18778
7.18777
7.18775
7.18773
7.1877
7.18768
7.18767
7.18765
7.18763
7.1876
7.18758
7.18757
7.18755
7.18753
7.18752
7.1875
7.18749
7.18747
7.18745
7.18744
7.18742
7.18738
7.18736
7.18734
7.18733
7.18731
7.1873
7.18728
7.18727
7.18725
7.18724
7.18722
7.18721
7.18719
7.18718
7.18716
7.18715
7.18713
7.18712
7.1871
7.18709
7.18707
7.18706
7.18704
7.18701
7.187
7.18698
7.18697
7.18696
7.18694
7.18693
7.18691
7.1869
7.18689
7.18687
7.18686
7.18684
7.18683
7.18682
7.1868
7.18679
7.18677
7.18676
7.18673
7.18672
7.18671
7.18667
7.18665
7.18664
7.18663
7.18661
7.1866
7.18658
7.18656
7.18655
7.18654
7.18652
7.18651
7.1865
7.18649
7.18647
7.18646
7.18645
7.18644
7.18642
7.18641
7.1864
7.18639
7.18638
7.18636
7.18635
7.18634
7.18633
7.18632
7.1863
7.18627
7.18626
7.18625
7.18623
7.18622
7.18621
7.1862
7.18619
7.18618
7.18617
7.18616
7.18614
7.18613
7.18612
7.18611
7.1861
7.18609
7.18608
7.18606
7.18605
7.18603
7.18601
7.186
7.18599
7.18598
7.18597
7.18596
7.18595
7.18594
7.18593
7.18592
7.18591
7.1859
7.18589
7.18588
7.18587
7.18586
7.18585
7.18584
7.18583
7.18582
7.18581
7.18581
7.1858
7.18579
7.18578
7.18577
7.18576
7.18575
7.18574
7.18573
7.18572
7.18571
7.1857
7.1857
7.18569
7.18568
7.18567
7.18566
7.18565
7.18564
7.18563
7.18563
7.18562
7.18561
7.1856
7.18559
7.18558
7.18558
7.18557
7.18556
7.18555
7.18553
7.18551
7.1855
7.18549
7.18548
7.18547
7.18547
7.18546
7.18544
7.18544
7.18543
7.18542
7.18542
7.18541
7.1854
7.18539
7.18539
7.18538
7.18537
7.18537
7.18536
7.18535
7.18535
7.18534
7.18533
7.18533
7.18532
7.18531
7.18531
7.1853
7.1853
7.18529
7.18528
7.18528
7.18527
7.18527
7.18525
7.18525
7.18524
7.18524
7.18523
7.18522
7.18522
7.18521
7.18521
7.1852
7.1852
7.18519
7.18519
7.18518
7.18518
7.18517
7.18517
7.18516
7.18516
7.18515
7.18515
7.18514
7.18514
7.18513
7.18513
7.18512
7.18512
7.18511
7.18511
7.1851
7.1851
7.1851
7.18509
7.18509
7.18508
7.18508
7.18507
7.18507
7.18507
7.18506
7.18505
7.18505
7.18505
7.18504
7.18504
7.18503
7.18503
7.18503
7.18502
7.18502
7.18501
7.18501
7.18501
7.185
7.185
7.18499
7.18499
7.18499
7.18499
7.18498
7.18498
7.18498
7.18497
7.18497
7.18497
7.18497
7.18496
7.18496
7.18496
7.18496
7.18495
7.18495
7.18495
7.18495
7.18495
7.18494
7.18494
7.18494
7.18494
7.18494
7.18493
7.18493
7.18493
7.18493
7.18493
7.18493
7.18493
7.18492
7.18492
7.18492
7.18492
7.18492
7.18492
7.18492
7.18491
7.18491
7.18491
7.18491
7.18491
7.18491
7.18491
7.18491
7.18491
7.18491
7.18491
7.18491
7.18491
7.18491
7.18565
7.18563
7.18561
7.18557
7.18555
7.18551
7.18547
7.18545
7.18543
7.18539
7.18537
7.18535
7.18533
7.18531
7.18529
7.18526
7.18524
7.18522
7.1852
7.18518
7.18516
7.18514
7.18512
7.1851
7.18509
7.18507
7.18505
7.18503
7.18501
7.18499
7.18497
7.18494
7.18492
7.1849
7.18488
7.18486
7.18484
7.18481
7.18479
7.18477
7.18475
7.18474
7.18472
7.1847
7.18468
7.18466
7.18465
7.18463
7.18461
7.18459
7.18458
7.18456
7.18454
7.18452
7.18449
7.18444
7.18442
7.18437
7.18433
7.18432
7.1843
7.18428
7.18427
7.18425
7.18423
7.18422
7.18418
7.18417
7.18415
7.18413
7.18412
7.1841
7.18408
7.18407
7.18405
7.18402
7.184
7.18399
7.18397
7.18395
7.18394
7.18392
7.18391
7.18389
7.18387
7.18386
7.18384
7.18383
7.18381
7.18378
7.18376
7.18375
7.18373
7.18372
7.1837
7.18369
7.18367
7.18366
7.18364
7.18363
7.18361
7.1836
7.18358
7.18355
7.18354
7.18352
7.18351
7.18349
7.18348
7.18345
7.18343
7.18342
7.1834
7.18339
7.18337
7.18334
7.18333
7.18332
7.1833
7.18329
7.18327
7.18326
7.18325
7.18323
7.18322
7.1832
7.18319
7.18318
7.18316
7.18315
7.18313
7.18312
7.18311
7.18309
7.18308
7.18307
7.18305
7.18304
7.183
7.18299
7.18297
7.18296
7.18295
7.18293
7.18292
7.18291
7.18289
7.18288
7.18287
7.18284
7.18282
7.1828
7.18279
7.18278
7.18277
7.18275
7.18274
7.18273
7.1827
7.18269
7.18268
7.18267
7.18263
7.18262
7.18261
7.18259
7.18255
7.18253
7.18252
7.18251
7.18249
7.18248
7.18246
7.18245
7.18244
7.18242
7.18241
7.1824
7.18239
7.18237
7.18236
7.18235
7.18234
7.18233
7.18232
7.18231
7.1823
7.18229
7.18226
7.18225
7.18223
7.18221
7.1822
7.18219
7.18218
7.18217
7.18216
7.18215
7.18214
7.18213
7.18212
7.1821
7.18209
7.18208
7.18207
7.18205
7.18204
7.18203
7.18202
7.18201
7.182
7.18199
7.18198
7.18197
7.18196
7.18195
7.18194
7.18193
7.18192
7.18191
7.1819
7.18189
7.18188
7.18186
7.18185
7.18184
7.18183
7.18182
7.18181
7.18181
7.1818
7.18178
7.18176
7.18175
7.18174
7.18173
7.18172
7.18171
7.1817
7.18169
7.18169
7.18168
7.18167
7.18166
7.18165
7.18165
7.18164
7.18163
7.18161
7.1816
7.18159
7.18158
7.18158
7.18157
7.18156
7.18155
7.18155
7.18152
7.18152
7.1815
7.18149
7.18149
7.18148
7.18147
7.18147
7.18146
7.18145
7.18145
7.18144
7.18143
7.18143
7.18142
7.18141
7.18141
7.18139
7.18139
7.18138
7.18137
7.18136
7.18135
7.18135
7.18134
7.18134
7.18133
7.18132
7.18132
7.18131
7.18131
7.18129
7.18128
7.18127
7.18126
7.18126
7.18125
7.18125
7.18124
7.18124
7.18123
7.18123
7.18122
7.18122
7.18121
7.18121
7.1812
7.1812
7.18119
7.18118
7.18118
7.18117
7.18117
7.18116
7.18116
7.18115
7.18115
7.18114
7.18114
7.18113
7.18113
7.18112
7.18112
7.18111
7.18111
7.18111
7.1811
7.1811
7.18109
7.18109
7.18109
7.18108
7.18108
7.18107
7.18107
7.18106
7.18105
7.18105
7.18105
7.18104
7.18104
7.18104
7.18103
7.18103
7.18103
7.18102
7.18102
7.18102
7.18101
7.18101
7.18101
7.181
7.181
7.18099
7.18099
7.18099
7.18098
7.18098
7.18097
7.18097
7.18096
7.18096
7.18096
7.18096
7.18095
7.18095
7.18095
7.18095
7.18094
7.18094
7.18094
7.18094
7.18094
7.18093
7.18093
7.18093
7.18093
7.18093
7.18092
7.18092
7.18092
7.18092
7.18091
7.18091
7.18091
7.18091
7.18091
7.18091
7.18091
7.1809
7.1809
7.1809
7.1809
7.1809
7.1809
7.1809
7.1809
7.1809
7.1809
7.18089
7.18089
7.18089
7.18089
7.18089
7.18089
7.18089
7.18089
7.18089
7.18089
7.18089
7.18089
7.18089
7.18089
7.18089
7.18089
7.18181
7.18179
7.18177
7.18175
7.18173
7.18171
7.18167
7.18165
7.18163
7.18161
7.18159
7.18157
7.18155
7.18151
7.18147
7.18146
7.18144
7.18142
7.1814
7.18138
7.18136
7.18132
7.1813
7.18128
7.18126
7.18124
7.18121
7.18119
7.18117
7.18115
7.18111
7.18109
7.18108
7.18106
7.18104
7.18102
7.181
7.18098
7.18096
7.18093
7.18091
7.18089
7.18087
7.18085
7.18084
7.18082
7.1808
7.18078
7.18076
7.18073
7.18071
7.18069
7.18067
7.18066
7.18064
7.18062
7.18058
7.18057
7.18055
7.18053
7.18051
7.1805
7.18048
7.18046
7.18043
7.18041
7.18039
7.18038
7.18036
7.18034
7.18032
7.18031
7.18027
7.18026
7.18024
7.18022
7.1802
7.18019
7.18017
7.18015
7.18014
7.18012
7.1801
7.18009
7.18007
7.18005
7.18004
7.18
7.17999
7.17997
7.17995
7.17994
7.17992
7.17991
7.17989
7.17987
7.17986
7.17984
7.17982
7.17981
7.17978
7.17976
7.17974
7.17971
7.1797
7.17967
7.17965
7.17963
7.17962
7.1796
7.17959
7.17957
7.17956
7.17954
7.17952
7.17951
7.17949
7.17948
7.17946
7.17945
7.17943
7.17942
7.1794
7.17939
7.17937
7.17936
7.17934
7.17933
7.17931
7.17928
7.17927
7.17925
7.17924
7.17922
7.17921
7.17919
7.17918
7.17916
7.17915
7.17914
7.17912
7.17911
7.17909
7.17908
7.17905
7.17903
7.17901
7.17899
7.17896
7.17895
7.17894
7.17892
7.17891
7.17889
7.17888
7.17885
7.17884
7.17882
7.17881
7.1788
7.17878
7.17877
7.17876
7.17874
7.17873
7.17871
7.1787
7.17869
7.17867
7.17866
7.17865
7.17863
7.17862
7.17861
7.1786
7.17858
7.17857
7.17854
7.17852
7.1785
7.17849
7.17848
7.17847
7.17845
7.17844
7.17843
7.17841
7.1784
7.17839
7.17838
7.17835
7.17833
7.1783
7.17828
7.17826
7.17825
7.17824
7.17823
7.1782
7.17819
7.17818
7.17817
7.17816
7.17814
7.17813
7.17812
7.17811
7.17808
7.17807
7.17806
7.17805
7.17804
7.17803
7.17802
7.178
7.17799
7.17798
7.17797
7.17796
7.17795
7.17792
7.17791
7.17789
7.17788
7.17787
7.17786
7.17785
7.17784
7.17782
7.17779
7.17777
7.17775
7.17774
7.17773
7.17772
7.17771
7.17769
7.17768
7.17766
7.17765
7.17764
7.17763
7.17762
7.17761
7.1776
7.17759
7.17756
7.17755
7.17754
7.17753
7.17752
7.1775
7.17749
7.17748
7.17747
7.17746
7.17744
7.17744
7.17743
7.17741
7.1774
7.17738
7.17737
7.17736
7.17735
7.17734
7.17733
7.17732
7.17731
7.1773
7.1773
7.17729
7.17728
7.17727
7.17726
7.17725
7.17723
7.17722
7.17722
7.17721
7.1772
7.17719
7.17718
7.17717
7.17716
7.17715
7.17715
7.17713
7.17712
7.17711
7.1771
7.17709
7.17708
7.17707
7.17706
7.17706
7.17705
7.17704
7.17703
7.17702
7.17702
7.17701
7.177
7.17698
7.17698
7.17696
7.17695
7.17695
7.17694
7.17693
7.17692
7.17692
7.17691
7.17689
7.17689
7.17687
7.17686
7.17686
7.17685
7.17684
7.17684
7.17683
7.17682
7.17682
7.17681
7.1768
7.17679
7.17678
7.17677
7.17676
7.17675
7.17674
7.17673
7.17673
7.17672
7.17671
7.17671
7.1767
7.17669
7.17668
7.17668
7.17667
7.17666
7.17665
7.17665
7.17664
7.17663
7.17663
7.17662
7.17661
7.17661
7.1766
7.17659
7.17659
7.17658
7.17657
7.17657
7.17656
7.17655
7.17655
7.17654
7.17654
7.17653
7.17653
7.17652
7.17652
7.17651
7.17651
7.1765
7.1765
7.17649
7.17649
7.17648
7.17648
7.17646
7.17646
7.17645
7.17645
7.17644
7.17643
7.17642
7.17642
7.17641
7.17641
7.17641
7.1764
7.1764
7.17639
7.17639
7.17638
7.17638
7.17638
7.17637
7.17637
7.17636
7.17636
7.17636
7.17635
7.17635
7.17634
7.17634
7.17633
7.17633
7.17632
7.17632
7.17631
7.17631
7.1763
7.1763
7.1763
7.17629
7.17629
7.17629
7.17628
7.17628
7.17627
7.17627
7.17626
7.17626
7.17625
7.17625
7.17625
7.17625
7.17624
7.17624
7.17624
7.17623
7.17623
7.17623
7.17622
7.17622
7.17622
7.17621
7.17621
7.1762
7.1762
7.1762
7.17619
7.17619
7.17619
7.17619
7.17619
7.17618
7.17618
7.17618
7.17618
7.17618
7.17617
7.17617
7.17617
7.17617
7.17616
7.17616
7.17616
7.17616
7.17616
7.17616
7.17616
7.17615
7.17615
7.17615
7.17615
7.17615
7.17615
7.17615
7.17615
7.17614
7.17614
7.17614
7.17614
7.17614
7.17614
7.17614
7.17614
7.17613
7.17613
7.17613
7.17613
7.17613
7.17613
7.17613
7.17613
7.17613
7.17613
7.17613
7.17613
7.17613
7.17613
7.17613
7.17613
7.17613
7.17613
7.17613
7.177
7.17698
7.17694
7.17692
7.1769
7.17688
7.17684
7.17682
7.1768
7.17678
7.17676
7.17672
7.1767
7.17668
7.17661
7.17659
7.17655
7.17653
7.17645
7.17643
7.17641
7.17638
7.17636
7.17634
7.17632
7.1763
7.17628
7.17626
7.17624
7.17623
7.17621
7.17619
7.17617
7.17615
7.17613
7.17609
7.17608
7.17606
7.17604
7.17602
7.176
7.17598
7.17596
7.17595
7.17593
7.17591
7.17589
7.17587
7.17586
7.17584
7.17582
7.1758
7.17578
7.17576
7.17575
7.17573
7.17569
7.17568
7.17566
7.17564
7.17562
7.1756
7.17559
7.17557
7.17555
7.17553
7.17552
7.1755
7.17548
7.17545
7.17543
7.17541
7.17538
7.17536
7.17534
7.17532
7.17531
7.17529
7.17527
7.17524
7.17522
7.1752
7.17519
7.17517
7.17515
7.17514
7.17512
7.1751
7.17508
7.17507
7.17505
7.17503
7.17502
7.175
7.17498
7.17497
7.17495
7.17493
7.17492
7.17488
7.17487
7.17485
7.17484
7.17482
7.1748
7.17479
7.17477
7.17475
7.17474
7.17472
7.17471
7.17469
7.17467
7.17466
7.17464
7.17463
7.17461
7.17459
7.17458
7.17455
7.17453
7.1745
7.17448
7.17447
7.17445
7.17444
7.17442
7.1744
7.17439
7.17437
7.17436
7.17434
7.17433
7.17431
7.1743
7.17428
7.17427
7.17425
7.17424
7.17422
7.1742
7.17414
7.17413
7.17411
7.17408
7.17407
7.17405
7.17404
7.17403
7.17401
7.174
7.17398
7.17397
7.17395
7.17394
7.17392
7.17391
7.17389
7.17388
7.17386
7.17385
7.17384
7.17382
7.17381
7.17379
7.17376
7.17375
7.17374
7.17372
7.17371
7.17369
7.17368
7.17366
7.17365
7.17364
7.17362
7.17361
7.1736
7.17358
7.17357
7.17355
7.17354
7.17353
7.17351
7.1735
7.17349
7.17347
7.17346
7.17344
7.17343
7.17342
7.1734
7.17339
7.17338
7.17336
7.17335
7.17334
7.17331
7.1733
7.17328
7.17327
7.17326
7.17324
7.17323
7.17322
7.17321
7.17319
7.17318
7.17317
7.17315
7.17314
7.17312
7.17309
7.17305
7.17304
7.17303
7.17301
7.173
7.17299
7.17298
7.17296
7.17295
7.17294
7.17293
7.17292
7.1729
7.17289
7.17288
7.17285
7.17284
7.17283
7.17279
7.17277
7.17276
7.17275
7.17272
7.17271
7.1727
7.17269
7.17268
7.17266
7.17265
7.17264
7.17263
7.17262
7.17261
7.17259
7.17258
7.17257
7.17256
7.17255
7.17254
7.17253
7.17252
7.1725
7.17249
7.17248
7.17247
7.17246
7.17245
7.17244
7.17243
7.17242
7.1724
7.17239
7.17238
7.17237
7.17236
7.17235
7.17233
7.17231
7.1723
7.17228
7.17226
7.17225
7.17224
7.17223
7.17222
7.17221
7.1722
7.17219
7.17218
7.17217
7.17216
7.17215
7.17214
7.17213
7.17212
7.17211
7.1721
7.17208
7.17207
7.17206
7.17205
7.17203
7.17202
7.17201
7.172
7.17199
7.17198
7.17197
7.17196
7.17195
7.17194
7.17193
7.1719
7.1719
7.17189
7.17188
7.17187
7.17186
7.17185
7.17184
7.17183
7.17182
7.17181
7.1718
7.17179
7.17178
7.17178
7.17176
7.17175
7.17173
7.17172
7.1717
7.1717
7.17168
7.17167
7.17166
7.17165
7.17164
7.17164
7.17163
7.17162
7.17161
7.1716
7.17159
7.17158
7.17158
7.17157
7.17156
7.17155
7.17154
7.17154
7.17153
7.17151
7.1715
7.17149
7.17149
7.17147
7.17146
7.17145
7.17145
7.17144
7.17143
7.17142
7.17142
7.17141
7.1714
7.17139
7.17138
7.17137
7.17136
7.17136
7.17134
7.17133
7.17133
7.17132
7.17131
7.1713
7.1713
7.17129
7.17128
7.17128
7.17126
7.17125
7.17125
7.17124
7.17123
7.17123
7.17122
7.17121
7.17121
7.1712
7.17119
7.17119
7.17118
7.17117
7.17117
7.17116
7.17115
7.17115
7.17114
7.17113
7.17113
7.17112
7.17111
7.17111
7.17109
7.17109
7.17108
7.17108
7.17107
7.17106
7.17104
7.17104
7.17103
7.17103
7.17102
7.17101
7.17101
7.171
7.171
7.17099
7.17099
7.17098
7.17097
7.17097
7.17095
7.17095
7.17094
7.17094
7.17093
7.17092
7.17091
7.1709
7.17089
7.17089
7.17088
7.17088
7.17087
7.17086
7.17086
7.17085
7.17085
7.17084
7.17084
7.17083
7.17083
7.17082
7.17081
7.17081
7.1708
7.1708
7.17079
7.17078
7.17078
7.17078
7.17077
7.17076
7.17076
7.17075
7.17075
7.17074
7.17074
7.17073
7.17073
7.17072
7.17072
7.17072
7.17071
7.1707
7.1707
7.1707
7.17069
7.17069
7.17068
7.17068
7.17067
7.17067
7.17067
7.17066
7.17066
7.17065
7.17065
7.17064
7.17064
7.17064
7.17063
7.17063
7.17062
7.17062
7.17061
7.17061
7.1706
7.1706
7.1706
7.1706
7.17059
7.17059
7.17059
7.17058
7.17058
7.17058
7.17058
7.17057
7.17057
7.17057
7.17056
7.17056
7.17056
7.17055
7.17055
7.17055
7.17054
7.17054
7.17054
7.17053
7.17053
7.17053
7.17053
7.17052
7.17052
7.17052
7.17052
7.17052
7.17051
7.17051
7.17051
7.17051
7.17051
7.1705
7.1705
7.1705
7.1705
7.1705
7.17049
7.17049
7.17049
7.17049
7.17049
7.17048
7.17048
7.17048
7.17048
7.17048
7.17048
7.17048
7.17047
7.17047
7.17047
7.17047
7.17047
7.17047
7.17047
7.17047
7.17046
7.17046
7.17046
7.17046
7.17046
7.17046
7.17046
7.17046
7.17046
7.17046
7.17045
7.17045
7.17045
7.17045
7.17045
7.17045
7.17045
7.17045
7.17045
7.17045
7.17045
7.17045
7.17045
7.17045
7.17045
7.17045
7.17045
7.17045
7.17045
7.17045
7.17169
7.17167
7.17165
7.17163
7.17161
7.17159
7.17157
7.17155
7.17154
7.17152
7.1715
7.17148
7.17144
7.17142
7.1714
7.17138
7.17136
7.17134
7.1713
7.17128
7.17126
7.17124
7.17122
7.1712
7.17118
7.17116
7.17114
7.17112
7.17109
7.17107
7.17103
7.17101
7.17099
7.17097
7.17095
7.17093
7.17091
7.1709
7.17088
7.17086
7.17084
7.17082
7.1708
7.17074
7.17073
7.17071
7.17069
7.17067
7.17063
7.17061
7.1706
7.17058
7.17054
7.17052
7.1705
7.17048
7.17047
7.17045
7.17043
7.17041
7.17039
7.17037
7.17032
7.1703
7.17025
7.17023
7.17021
7.17019
7.17018
7.17016
7.17014
7.17012
7.1701
7.17009
7.17007
7.17005
7.17003
7.17002
7.17
7.16994
7.16993
7.16989
7.16987
7.16986
7.16984
7.16982
7.1698
7.16977
7.16973
7.16972
7.1697
7.16968
7.16965
7.16963
7.16961
7.1696
7.16958
7.16956
7.16955
7.16951
7.16949
7.16948
7.16946
7.16943
7.16941
7.16939
7.16938
7.16936
7.16934
7.16933
7.16929
7.16928
7.16926
7.16923
7.16921
7.16919
7.16916
7.16914
7.16913
7.16911
7.1691
7.16908
7.16901
7.169
7.16898
7.16897
7.16895
7.16893
7.16892
7.1689
7.16885
7.16882
7.16881
7.16879
7.16877
7.16876
7.16874
7.16873
7.16871
7.16868
7.16866
7.16863
7.16862
7.1686
7.16859
7.16857
7.16855
7.16854
7.16852
7.16851
7.16849
7.16845
7.16843
7.16842
7.1684
7.16839
7.16837
7.16836
7.16833
7.1683
7.16828
7.16827
7.16825
7.16824
7.16822
7.16821
7.16819
7.16818
7.16816
7.16815
7.16813
7.16812
7.1681
7.16809
7.16807
7.16806
7.16804
7.16803
7.16801
7.168
7.16799
7.16797
7.16796
7.16794
7.16793
7.1679
7.16787
7.16786
7.16784
7.16783
7.16781
7.1678
7.16778
7.16777
7.16776
7.16774
7.16773
7.16771
7.1677
7.16769
7.16767
7.16766
7.16764
7.16763
7.16762
7.1676
7.16759
7.16756
7.16755
7.16752
7.16751
7.16749
7.16748
7.16747
7.16745
7.16744
7.16741
7.1674
7.16739
7.16737
7.16736
7.16735
7.16733
7.16732
7.16728
7.16727
7.16725
7.16724
7.16723
7.16719
7.16717
7.16715
7.16714
7.16712
7.16711
7.1671
7.16707
7.16706
7.16705
7.16703
7.16702
7.16701
7.167
7.16698
7.16696
7.16694
7.16693
7.16691
7.16688
7.16687
7.16686
7.16685
7.16683
7.16682
7.1668
7.16678
7.16677
7.16676
7.16675
7.16674
7.16671
7.1667
7.16669
7.16668
7.16666
7.16664
7.16663
7.16662
7.1666
7.16659
7.16657
7.16655
7.16653
7.1665
7.16646
7.16645
7.16643
7.16642
7.16641
7.1664
7.16638
7.16637
7.16636
7.16635
7.16634
7.16633
7.16632
7.16631
7.1663
7.16628
7.16627
7.16626
7.16625
7.16624
7.16623
7.16621
7.16619
7.16617
7.16616
7.16614
7.16613
7.16612
7.16611
7.1661
7.16609
7.16608
7.16607
7.16604
7.16603
7.16602
7.166
7.16599
7.16598
7.16596
7.16595
7.16594
7.16593
7.16592
7.16591
7.1659
7.16589
7.16588
7.16587
7.16586
7.16585
7.16584
7.16583
7.16582
7.16581
7.1658
7.16579
7.16577
7.16576
7.16575
7.16574
7.16573
7.16572
7.16571
7.1657
7.16568
7.16567
7.16567
7.16566
7.16565
7.16563
7.16562
7.16561
7.1656
7.16559
7.16558
7.16557
7.16556
7.16555
7.16553
7.16552
7.16552
7.16551
7.1655
7.16549
7.16548
7.16547
7.16546
7.16545
7.16544
7.16543
7.16543
7.16541
7.1654
7.16539
7.16537
7.16536
7.16536
7.16535
7.16534
7.16533
7.16532
7.16531
7.1653
7.16529
7.16528
7.16527
7.16526
7.16525
7.16525
7.16524
7.16523
7.16522
7.16521
7.1652
7.16519
7.16517
7.16516
7.16515
7.16515
7.16514
7.16512
7.16511
7.1651
7.16509
7.16508
7.16508
7.16507
7.16506
7.16505
7.16504
7.16503
7.16502
7.16501
7.16501
7.165
7.16498
7.16497
7.16495
7.16494
7.16493
7.16492
7.16492
7.16491
7.1649
7.1649
7.16489
7.16488
7.16487
7.16487
7.16486
7.16485
7.16484
7.16483
7.16483
7.16482
7.16481
7.1648
7.1648
7.16479
7.16478
7.16478
7.16476
7.16476
7.16475
7.16474
7.16473
7.16472
7.16472
7.16471
7.1647
7.1647
7.16469
7.16469
7.16468
7.16467
7.16467
7.16466
7.16465
7.16465
7.16464
7.16464
7.16462
7.16462
7.16461
7.1646
7.16459
7.16458
7.16457
7.16457
7.16456
7.16456
7.16455
7.16455
7.16454
7.16453
7.16453
7.16452
7.16452
7.16451
7.16451
7.1645
7.16449
7.16449
7.16448
7.16448
7.16447
7.16446
7.16446
7.16445
7.16445
7.16444
7.16443
7.16443
7.16442
7.16441
7.16441
7.1644
7.16439
7.16439
7.16438
7.16438
7.16437
7.16436
7.16436
7.16435
7.16434
7.16434
7.16433
7.16433
7.16432
7.16432
7.16431
7.16431
7.1643
7.1643
7.16429
7.16429
7.16428
7.16428
7.16427
7.16427
7.16427
7.16426
7.16426
7.16425
7.16425
7.16424
7.16424
7.16424
7.16423
7.16423
7.16422
7.16422
7.16421
7.16421
7.1642
7.1642
7.16419
7.16419
7.16419
7.16418
7.16417
7.16417
7.16417
7.16416
7.16416
7.16415
7.16415
7.16415
7.16414
7.16414
7.16413
7.16413
7.16412
7.16412
7.16412
7.16411
7.16411
7.1641
7.1641
7.16409
7.16409
7.16409
7.16408
7.16408
7.16408
7.16407
7.16407
7.16407
7.16406
7.16406