/*--------------------------------*- C++ -*----------------------------------*\
| =========                 |                                                 |
| \\      /  F ield         | OpenFOAM: The Open Source CFD Toolbox           |
|  \\    /   O peration     | Version:  plus.master                           |
|   \\  /    A nd           | Web:      www.OpenFOAM.com                      |
|    \\/     M anipulation  |                                                 |
\*---------------------------------------------------------------------------*/
FoamFile
{
    version     2.0;
    format      ascii;
    class       vectorField;
    location    "7.2/lagrangian/kinematicCloud";
    object      U;
}
// * * * * * * * * * * * * * * * * * * * * * * * * * * * * * * * * * * * * * //


96597
(
(-0.000369585 -0.00202673 0.000147373)
(-0.000948198 0.00151577 -0.000522361)
(-0.000112267 0.000162845 0.000276979)
(-0.000213563 0.000666105 -0.00244519)
(-0.000641308 7.15246e-05 0.00127489)
(0.000182163 4.72689e-05 0.000305684)
(-0.000282288 -5.16119e-05 0.000274562)
(0.000384342 0.00035938 -0.000844883)
(-0.000453564 -0.000193837 -0.00136197)
(-9.96849e-05 4.85277e-06 0.000250893)
(-0.000464668 7.53755e-05 0.000295756)
(-0.000645678 0.000231561 0.00498698)
(0.000420034 0.000790933 -0.00297742)
(-0.000865332 0.00012892 -0.000830283)
(-0.000186657 -0.000311967 -0.00183916)
(0.000808522 -0.000168152 -0.000102093)
(-0.000522324 -0.00202891 0.000114285)
(0.000209541 -0.0003981 0.0015708)
(-0.000800033 0.000144789 0.000317436)
(-0.000494174 -3.05687e-05 -0.00247601)
(-0.00185811 -0.00146805 -0.00194387)
(-6.27854e-05 0.000213299 0.00175797)
(0.000227529 0.000332891 0.000478168)
(0.000469763 0.000461937 0.00028057)
(-0.000394917 5.74525e-05 -0.000923721)
(0.000454221 0.000357924 0.000366461)
(0.000406964 -0.000480131 0.00612325)
(0.000211169 -0.000401622 0.00025616)
(-2.52315e-05 0.000211165 0.00700165)
(-0.000739447 -8.75845e-05 0.00025996)
(0.000537141 -0.000570167 -0.00583646)
(-0.000999863 -6.07649e-05 0.00126933)
(0.000488837 -0.000425786 0.000282206)
(3.8169e-05 -2.49978e-05 -0.000228973)
(-0.0011879 -3.57847e-05 -0.000132769)
(-0.000657111 0.000207164 0.000288851)
(-0.000121634 -0.00013374 -0.00237352)
(-0.00010753 8.05238e-06 -0.00234017)
(0.000874674 0.00011615 -6.39419e-05)
(-0.000223678 5.17574e-05 0.000265942)
(-0.000761399 0.000366191 0.00067698)
(0.000275368 0.000395275 0.000423314)
(-0.000799789 -4.37511e-05 0.00037761)
(0.000294461 -0.000490529 -0.00301957)
(0.00032004 -0.000262243 0.000333801)
(-0.000799455 -5.54516e-05 -0.00123167)
(-0.00338208 0.000297706 -0.0108412)
(-0.000217336 -0.000183999 0.000205152)
(0.000290306 0.000409384 0.000813816)
(0.000401918 -0.000493371 0.000144309)
(-0.000662626 -0.000156478 0.000330488)
(0.000390953 -0.000476307 0.000262722)
(-0.000728073 3.08449e-05 -0.00205063)
(-0.000194027 -9.46034e-05 0.000281474)
(-0.000988496 -0.000122716 0.000267904)
(-0.000549702 -0.000240061 0.000296049)
(-0.000128336 0.000302197 0.000432832)
(-0.000412897 0.00190035 -0.000963759)
(0.000316692 -0.000266685 0.000172987)
(-0.000519523 -0.000150436 -0.000897415)
(-0.000288308 -0.000158353 0.00177112)
(-0.000808429 -5.83244e-05 0.000290414)
(-0.000619989 0.000117277 -0.00266426)
(0.00041818 -0.00036486 -0.00203301)
(-0.000464305 -0.000237088 -0.00154968)
(0.000271734 0.000439842 0.000451609)
(0.000148683 -0.000256766 0.00016592)
(-0.00162705 0.000858708 0.000266319)
(0.000307686 0.000184823 -0.00233585)
(-0.000553214 -0.00012454 0.000289874)
(-0.000670007 1.4672e-05 0.000227994)
(-0.00034767 0.000302213 0.00157742)
(-0.00058815 -0.000244211 -0.000961456)
(-0.000556585 -0.000359623 0.000237481)
(-0.00102317 -0.000148097 -0.000365206)
(-0.000364322 0.000306311 0.00143168)
(-0.00039312 1.26873e-05 -0.000150583)
(-0.00197109 0.000261477 0.000176243)
(-0.000911187 -0.000374953 0.000368744)
(0.00052013 -0.000666518 0.00208588)
(-0.00106422 -5.23485e-05 0.000290831)
(0.000593936 0.000343587 0.000319728)
(0.000324715 -0.000353309 0.000385941)
(-0.000568982 -6.58947e-05 -0.00182929)
(0.00124992 0.00160706 -4.56016e-05)
(-0.00105731 -0.000640595 -8.7389e-05)
(-7.79998e-05 2.95684e-05 0.00474606)
(-7.90919e-05 9.04082e-05 0.000482809)
(0.000948114 -0.000306195 -0.000802982)
(-0.00117796 -0.000794341 0.000279831)
(0.000349336 -0.000213413 -0.00146846)
(-0.0012913 -0.000609198 0.000227665)
(-0.000464895 -2.10556e-05 -0.000941165)
(0.000420394 0.000405782 0.000241469)
(-0.000789053 -0.000269844 0.00031033)
(0.000516574 0.000403634 -0.00639296)
(-0.000959991 0.000188004 0.000287911)
(-0.000217248 5.13109e-05 0.000199964)
(0.000569715 -0.000324692 0.00191884)
(0.00233752 0.000362578 0.000153518)
(0.000469092 3.50425e-05 0.00221338)
(-0.00106808 -0.000261489 -0.00161199)
(-0.000182634 -0.000345692 0.000269642)
(-0.0004139 -0.00130525 -0.00299548)
(-0.000709467 -0.000385408 0.00015986)
(0.000336014 -0.000296767 0.000385795)
(0.00188115 -0.000502145 -0.000414842)
(0.000309054 -0.000258388 0.000218717)
(-0.000317893 -0.000219614 0.000356665)
(-1.45497e-05 -0.000331503 0.000289585)
(0.00027694 -9.06689e-05 0.000435886)
(-0.000986471 -5.36456e-05 -0.000917153)
(-0.000198888 0.000222015 0.000662706)
(-0.0007276 0.000146409 0.000422631)
(-0.00098148 -0.000397441 0.00292683)
(-0.000580382 0.000426048 0.000264971)
(-0.00102661 3.72446e-05 0.00151577)
(0.000245455 0.00052391 -0.00233674)
(-0.000630414 -0.00034885 0.000509811)
(-0.000484622 0.000355189 0.000405397)
(-0.000431164 -7.46323e-06 0.000298852)
(-0.00024879 0.000771067 0.000300515)
(-0.000718112 -0.000113111 0.000574223)
(0.000155361 3.63911e-05 8.40936e-05)
(-0.000676279 0.000296217 0.000273693)
(0.000338922 -0.000934155 -0.00211465)
(-0.000644231 0.00012174 0.000161317)
(-0.000127293 0.000895277 -0.00055207)
(-0.000342473 0.000262014 0.000284903)
(-0.000282377 -4.63797e-06 0.000274595)
(-0.000323218 3.7079e-05 0.000413542)
(-0.000709447 4.97894e-05 0.000162334)
(-0.000271475 6.45342e-05 0.00363882)
(-0.000409117 -6.74201e-05 -0.00127775)
(-0.00089485 4.78533e-05 0.00429186)
(0.000156168 -0.000268022 0.000268765)
(-0.000337946 -0.000223354 0.00107728)
(0.000110963 0.000179771 0.000350028)
(-7.28465e-05 8.02338e-05 -0.00173137)
(0.000340977 -0.000293958 0.000239167)
(0.000115805 -8.59042e-05 -0.00246638)
(-0.000937567 0.000230608 0.000287568)
(0.000373001 0.000368318 0.000726229)
(-0.0022616 -0.00115335 -0.00303513)
(-0.000730058 4.27746e-05 0.00212107)
(0.000568153 0.000468902 -0.00228932)
(0.000273177 -0.000639521 0.00257911)
(-0.000259999 -0.000104669 0.000260543)
(4.96174e-06 0.000231995 0.00374451)
(-0.000294206 0.000223365 0.00028492)
(-0.00137396 0.000375535 0.000268277)
(-0.000595165 -5.35745e-05 0.000264853)
(-0.00130814 -9.78788e-06 0.00103415)
(-0.000386607 -0.000157932 0.000310439)
(-0.000273369 2.77006e-05 -0.000165099)
(0.00106486 0.000748415 0.000243903)
(-0.00102084 0.000506818 -0.00301326)
(0.000382994 0.000370414 0.000405084)
(-0.000407691 -0.000808508 0.000356602)
(-0.000290273 0.00197445 -0.00053443)
(-0.000163703 0.000182302 0.000255346)
(-0.000363089 -2.15204e-05 0.000272696)
(0.000219511 -0.000276126 -0.00127682)
(-0.00150084 0.000359091 -0.000205772)
(-0.000751656 0.000494253 0.000265002)
(0.000369884 1.54951e-05 -0.00186615)
(-8.90874e-05 0.00181034 0.000331414)
(-0.000613747 0.00027602 0.00028769)
(0.000327088 0.000488314 -0.000962605)
(-0.000235755 1.25752e-05 0.000509258)
(-0.000345048 0.00182917 -0.000209429)
(7.69858e-05 -0.000352538 0.000305788)
(-0.000866763 -0.000187214 -0.00176873)
(-0.00128255 -5.3749e-05 0.000423642)
(0.000329684 -0.000406392 -0.00130752)
(0.000420484 0.000324657 -0.00101942)
(0.00198773 0.000353164 -0.00141028)
(0.000280116 0.000169339 -4.71209e-05)
(7.16914e-05 2.1801e-05 -0.00203839)
(-0.00055171 -0.000475859 0.000244497)
(0.000464117 -0.00154578 0.000454952)
(0.000327018 -0.000343157 -0.000134974)
(0.000454903 -0.000412257 -0.00200273)
(0.000358446 0.000364683 0.00028517)
(-6.07091e-05 -3.96462e-05 -0.00236104)
(-0.000719808 0.000104947 -4.61379e-05)
(-0.000250877 0.000121757 0.00564321)
(-0.000162193 -0.000147204 0.000307349)
(0.000311932 4.44657e-05 -2.33069e-05)
(-0.00137416 0.00297665 -0.000431111)
(-0.000650974 9.46553e-05 0.000428745)
(-0.000355663 -2.15288e-05 -0.000799854)
(-0.000979768 -0.000574105 -0.00167294)
(-0.000540116 0.000112226 0.000302746)
(-0.000110048 -7.05347e-05 0.000496355)
(-0.000554772 -0.0024822 0.00053703)
(-7.23563e-05 -0.000650963 -0.000969644)
(-0.000601169 0.000106684 0.000478521)
(-0.000219695 -0.000665823 -0.00637611)
(-0.000576563 -0.000262682 0.000265281)
(-0.000820571 0.000176178 -0.00168372)
(-7.06358e-05 -3.15853e-05 -0.000304434)
(-0.000538774 -0.000341618 0.000193602)
(0.000241918 -0.000274548 -0.00340715)
(0.00031631 0.000476663 -0.0010482)
(-0.000253514 0.00010182 0.00316536)
(-0.000566091 0.000298673 0.00589929)
(-1.05391e-05 0.000208147 -0.00272205)
(0.000184157 5.02316e-05 0.000260695)
(0.00015797 0.000266476 -0.000870122)
(-0.00052092 0.000380622 2.34509e-05)
(-0.000519583 1.36936e-05 0.000443646)
(-0.000704506 -0.000530488 0.00426174)
(0.000238169 0.000381085 0.00244389)
(-9.46762e-05 2.22513e-05 0.00161593)
(0.000676429 -0.000612776 0.00198745)
(0.000316667 0.000612956 -0.000699192)
(0.000398318 0.000706535 0.000276878)
(0.00015849 0.000186051 0.00204683)
(0.000409185 1.69094e-05 -2.51381e-06)
(-0.000761359 -0.000305858 0.000335626)
(0.000339799 0.00025094 -0.00180474)
(0.000428402 0.00120444 0.000515913)
(-0.000507969 -0.000107871 0.000354807)
(0.000463571 -0.000404346 0.000325442)
(0.00231325 0.000393961 0.000170861)
(-8.05684e-05 0.000275859 0.00286335)
(0.000212268 0.000387661 0.000647524)
(-0.000898281 4.71546e-05 0.000339286)
(0.000479036 -0.000615015 -0.00552949)
(-0.000321913 -0.00046109 0.00372749)
(-0.000795787 -0.000131388 0.000842935)
(-8.76955e-05 -0.00042464 -4.4063e-05)
(-0.000707741 0.00193302 -0.000375783)
(0.00249274 0.000319565 7.37433e-05)
(-0.000793429 0.000527957 -0.0020655)
(-0.000677443 0.000223449 0.00719846)
(0.000413445 -0.000322156 0.0049911)
(-0.000631189 5.18145e-06 0.000263447)
(-0.000237786 -0.000601861 0.00314583)
(1.01343e-05 -0.000315847 0.000418405)
(-0.000727656 -0.000290323 -7.89875e-05)
(0.000300486 0.00043044 -0.00167157)
(-1.16823e-05 -0.000367452 -0.00018398)
(0.000219297 -0.00052246 0.000478091)
(0.000411676 -0.000360923 -0.000946811)
(-0.000658412 8.47189e-05 0.00017902)
(0.000300085 -0.000253412 0.000150577)
(0.000144626 3.59576e-05 -0.00105621)
(-0.000918515 0.000156022 0.000644027)
(0.00252232 1.73534e-05 -0.000255508)
(-1.0783e-05 4.97451e-05 -0.00100463)
(0.000480839 5.37114e-05 -0.00377598)
(0.000281888 -0.000354298 0.00287821)
(-9.67985e-05 0.000291019 0.000813565)
(0.00190605 -0.000718797 -0.000793586)
(0.000170504 -5.07275e-05 -0.000831797)
(-0.000487282 -0.000102496 0.000330399)
(-0.000507244 -0.000104722 0.00040735)
(0.000453037 -0.000400134 0.000229565)
(-0.00010226 0.000320113 0.00247844)
(8.90369e-05 0.000264405 -0.00079222)
(0.000436139 0.000426481 0.000388912)
(-0.000264988 -0.000406859 -0.0024445)
(-0.00163398 -0.0010259 -0.00156028)
(-0.000116633 0.000118664 -0.00017813)
(0.000385602 0.000209881 -0.0017242)
(-0.000859311 0.000156203 0.000248994)
(0.00010523 -9.04225e-05 0.006334)
(-0.000141387 -0.000663036 0.000302703)
(-0.00013217 0.000397496 0.000308128)
(-0.000429667 -5.57291e-06 0.000264258)
(-0.000950447 -0.000793876 -0.00356604)
(-0.00229175 0.000171337 -0.00236805)
(-0.000462466 -0.000292402 0.000444914)
(-0.00103922 0.00055764 -0.00128324)
(-0.00010761 0.000217966 0.000268512)
(-7.45742e-05 4.47887e-05 0.00344741)
(0.000203081 -0.000360183 0.000279283)
(-0.000774816 0.000348278 -0.000904045)
(-0.000413172 -0.000284604 -0.00517916)
(-0.00100588 -9.86381e-05 -0.000945731)
(-0.00044115 -0.000181518 0.000464925)
(0.000463162 -0.00024217 -0.000897466)
(-0.000312697 -0.000135663 -0.000312287)
(0.000278819 -0.000310008 0.000281416)
(-6.90854e-05 0.00193628 -0.00382998)
(0.0011248 -0.000372517 0.000311718)
(0.00216206 0.00103554 0.0016562)
(-0.000536663 -2.42826e-05 0.0003967)
(-0.000458029 0.000209984 0.00127727)
(0.000371046 -0.00019947 -0.00168894)
(-0.00106328 -0.00105189 0.000317233)
(-8.62979e-05 0.000128538 0.000208557)
(0.000332483 -0.000181024 0.00026927)
(-0.000262849 0.000201633 0.000320945)
(0.000552909 -0.000221635 0.000473849)
(-0.000862729 -0.0010914 0.000290865)
(-0.000391832 0.00120055 -0.00182131)
(4.7233e-05 0.000355726 0.000310692)
(-0.000503477 -0.000212745 -0.00164293)
(0.000194147 0.00017416 -0.00507745)
(-0.000297791 0.000195701 0.000298374)
(0.000701199 0.000750404 -0.000935923)
(0.000472086 -0.000499 -0.000980651)
(0.000261851 0.000385602 0.000266649)
(0.000323021 0.000456961 0.00289193)
(-0.000645149 3.6414e-05 -0.000923603)
(-0.000579872 -8.58662e-05 0.0029541)
(0.000184063 0.000419385 0.000294611)
(0.000118561 3.50124e-05 3.37501e-05)
(-8.78649e-05 0.000258565 -0.000474548)
(6.46909e-05 -0.000205581 0.000375492)
(-0.000549307 -0.000232064 0.000252085)
(8.77052e-05 8.43785e-05 0.00429)
(-0.000663344 9.58622e-05 0.000274636)
(-0.000538524 -0.000239003 -0.0021026)
(0.000497047 -0.000279983 0.000413615)
(-5.76087e-05 0.000673923 -0.00146856)
(-0.000624612 0.00045815 -0.000350457)
(0.000345637 -0.000371798 0.000245103)
(-0.000661688 -0.000240976 0.000335012)
(8.85532e-05 -0.000325922 -0.00346509)
(0.000666172 0.000546297 0.000637087)
(0.000229014 -5.72361e-05 0.00167542)
(-0.005239 0.00138411 0.000113272)
(-0.001051 -0.00103526 0.00027356)
(3.87794e-06 5.05585e-05 -0.00162539)
(0.000876166 0.000927124 0.000175603)
(-0.000499869 -0.000199401 -0.00707756)
(0.000211995 -0.000377781 -0.00093934)
(-0.000108395 0.000708027 0.00220301)
(-0.000799937 0.000121319 -0.000113667)
(7.6893e-05 -0.000350837 0.000475141)
(0.000488356 0.000388832 -0.00457348)
(-0.00152705 0.000286579 -0.000786795)
(0.000370179 0.0020432 0.000194378)
(0.000312614 -0.000269912 0.000248406)
(4.18117e-05 -0.000442495 0.000346082)
(-0.00068279 -0.000297558 -0.000459993)
(-0.000207434 -0.000442741 0.000260466)
(0.000106398 -9.98568e-05 3.24983e-05)
(-0.000349882 -2.85524e-05 -0.0022217)
(-0.00176449 0.00252404 -0.00403911)
(-0.000581396 -0.000571978 -0.000187731)
(0.000832261 0.000216602 -0.000756705)
(0.000333446 -0.000353835 0.000121396)
(0.000174061 0.000267319 0.00248219)
(0.000572878 0.000470351 0.000304067)
(-0.000667788 0.000299796 -0.00300947)
(-0.000524454 -0.000403873 0.000165929)
(-0.000545332 0.00037184 0.000338157)
(0.000324427 0.000460936 0.000266841)
(-8.74676e-05 -3.97261e-05 -0.00270923)
(-0.000142879 -0.000271467 -0.00243605)
(0.000328481 -0.000282791 0.000302793)
(0.000408381 0.00061264 0.000268275)
(-9.19925e-05 0.000701198 -0.00210112)
(-0.000776291 -3.02907e-06 0.00213448)
(0.000587982 -8.10317e-05 0.000427389)
(-0.000154675 -9.07338e-05 -0.00129239)
(-0.000658849 0.000351743 0.000274168)
(0.00040494 -0.000493546 0.000239915)
(-0.000463929 -9.17599e-06 -0.000968192)
(-0.000112893 0.000868522 -5.01959e-05)
(-3.80542e-06 -1.28119e-05 7.34674e-05)
(0.000338251 5.16447e-05 0.00024065)
(0.000356404 0.000505309 0.00152641)
(-0.000126249 3.88344e-05 0.000379967)
(0.000347472 -0.000293432 4.4162e-05)
(-0.000599178 0.000176645 -0.000317787)
(6.29734e-05 -0.000202985 0.000190507)
(-0.000540421 -5.9721e-05 -0.00139944)
(-0.000305818 7.37178e-05 0.000298822)
(0.000202797 8.66174e-05 0.000286024)
(-0.00044734 -0.000286501 0.000243846)
(0.00203294 -0.00105811 0.00027462)
(-0.000110585 6.00629e-05 0.00460155)
(-0.000805042 0.000188839 0.000264123)
(-0.000538675 0.000238138 0.000437317)
(-0.000418733 -3.4469e-05 -0.000139268)
(-0.000148021 -0.00058441 0.000398253)
(0.000524768 -0.000348374 -0.000785332)
(-0.000403432 -5.3277e-05 0.000283449)
(0.000462168 0.0006905 -0.00170711)
(0.000198297 8.8201e-05 0.000317395)
(-0.00016941 0.000345331 0.000306602)
(-0.000252625 -0.000564377 -0.00364881)
(-0.000487528 0.000128225 0.000235316)
(0.000308892 0.000440285 0.000187017)
(-0.000137121 0.000983754 -0.00264696)
(-0.000443213 -4.61121e-05 9.76751e-05)
(-0.000467887 -0.000295436 5.02044e-05)
(0.000347572 -0.000298333 -0.00203873)
(0.00165515 0.000470034 -0.00135429)
(0.000304412 0.000452439 0.00122509)
(0.00038867 -0.000408351 0.000267499)
(-0.000864287 -1.6106e-05 0.000694146)
(3.954e-05 0.000267256 0.0055703)
(0.000414776 0.000621786 0.000268815)
(-0.000584273 -0.00039462 0.000282243)
(-0.000706617 0.00014304 0.000420927)
(0.00051471 4.15695e-05 -0.000924902)
(-0.0012366 0.00024558 0.000223551)
(-0.000228504 0.000180211 -0.00217002)
(0.000191169 0.000220528 0.00544056)
(-9.58323e-05 -0.000100928 0.00444919)
(0.000433489 1.53744e-05 0.000236578)
(-0.000706516 -0.00013702 -0.00200116)
(-8.59152e-05 -5.50768e-05 -0.000843923)
(0.000520798 -0.000663147 -0.000969503)
(-0.00111647 -0.000751882 -0.000827292)
(0.00146787 0.000383056 -0.0110306)
(0.000150656 -0.000302152 0.000434134)
(0.000478476 0.000260156 -0.000790537)
(-0.000105771 -0.000448076 -0.00208769)
(0.000461991 0.000449034 -0.000893166)
(0.000242577 -0.000132859 0.000133208)
(-0.000259298 0.000108536 0.00036851)
(0.000222917 0.000115454 -0.000770806)
(0.000403623 -0.000486774 0.000316654)
(-0.000591985 -0.000586464 0.0023662)
(0.000374087 0.000558389 0.000193085)
(-0.000502004 0.000103355 -0.000673781)
(-0.000168886 0.000182496 0.00025438)
(-0.000884704 0.000132013 -0.00136385)
(-0.000635925 -9.89336e-05 -0.00229015)
(-0.000401019 0.000284912 -0.00678724)
(0.000272229 0.000338226 0.00232999)
(0.000158743 0.000331489 -0.000966948)
(-0.000232088 5.18489e-05 -0.00180755)
(-0.000476019 -0.000303041 0.000441539)
(-0.000531072 0.000133533 -0.000108165)
(0.000292457 -8.7935e-05 0.000212748)
(2.8856e-05 3.31741e-05 -0.00813374)
(-0.000137538 -0.000148194 -0.000443611)
(-0.000831987 -7.98101e-05 0.000365024)
(0.000317684 -0.000355384 0.000438854)
(-0.000228354 5.20715e-05 -0.00188251)
(0.000185681 0.000821403 0.000636518)
(-0.000461751 -2.71814e-06 -0.00203116)
(0.000742593 0.000211595 0.000239353)
(-0.000532335 0.000389823 -7.34753e-05)
(-0.00019281 0.000100103 0.000241227)
(0.000392128 0.00039103 0.000308735)
(-0.000698239 0.00274406 -0.0011869)
(0.000131194 9.52207e-05 -0.00694186)
(5.87421e-05 -0.000183241 0.000437649)
(0.00196483 -0.00102614 0.000289363)
(-0.00037626 -0.000110815 0.000499998)
(-0.000321657 0.00188361 -0.000953445)
(0.000117779 -5.65497e-05 0.00169374)
(0.000156366 -0.000169447 -0.00280378)
(-0.000583316 -0.000369588 0.000299936)
(-0.00087832 0.000310885 -0.00090264)
(0.000395024 0.000296776 0.000644779)
(-0.000818014 -8.6925e-05 0.000274571)
(-0.000573771 0.00102646 0.000218978)
(-0.00112092 0.000210813 0.000277067)
(-0.000667515 -0.000108734 -0.000796553)
(-0.000408655 8.48418e-05 0.00135246)
(-0.000215745 0.000263721 0.000314906)
(-0.00155218 -6.23882e-05 0.000308594)
(-0.000424307 -0.000138015 -0.00483209)
(-0.000558289 -0.000463485 0.000315661)
(-0.000578779 -0.000410488 0.000308804)
(0.000214459 0.000377095 0.000387732)
(-0.000643946 5.04585e-05 -0.000938628)
(-0.000230026 0.000477816 -0.00102374)
(1.06362e-05 0.000266014 -0.00426127)
(0.000214638 9.49219e-05 0.000283842)
(-9.86968e-05 0.000679121 0.000662991)
(0.000329308 0.000495753 0.00445357)
(0.000577994 0.000474752 -0.00171311)
(-3.32787e-05 4.07898e-05 -0.00156339)
(-1.59734e-05 -0.000317871 0.00025527)
(-0.000829372 -0.000747914 -0.000791144)
(0.000150867 -0.000125173 0.0028874)
(-0.000407824 1.30842e-05 -0.000856726)
(7.49067e-05 -0.000230844 0.000291451)
(-0.000641054 -5.08421e-05 5.44797e-05)
(0.000321908 -0.000178111 0.000304296)
(7.13344e-06 -0.000154618 -0.00339778)
(-0.000612587 0.000283209 -0.00154216)
(-0.00110007 4.17966e-05 -0.000272861)
(-0.000250027 6.08175e-05 0.000726883)
(-0.000477907 0.00012094 0.000241687)
(-0.000519799 -7.65918e-06 -0.000476622)
(-0.000625185 -4.61077e-05 -7.47201e-05)
(0.000194438 -0.000213591 0.00193969)
(-0.00042599 -0.000267544 0.00043256)
(-0.000827862 -0.000393939 0.00255606)
(-0.000406952 0.000659929 -0.00128669)
(0.000272354 5.20885e-05 -4.57801e-05)
(-0.000197867 -1.7232e-05 2.15661e-05)
(-0.0001811 0.000192918 0.000284383)
(0.000183469 0.000429197 -0.00202669)
(0.000225823 -0.000185836 0.000478753)
(-0.000277105 3.02848e-05 0.000335422)
(-0.000709543 0.000163586 0.000364995)
(-0.000649592 0.000215775 0.000273268)
(0.000347096 0.000520081 0.00024229)
(-0.000239787 -0.000434209 0.000162056)
(0.000251054 0.000395241 0.000269742)
(-0.00120778 -0.00187537 -0.0014253)
(0.000490837 -0.000623736 -0.000887155)
(-0.000240633 1.68836e-05 0.000152875)
(-0.000192683 0.000114387 0.000294442)
(0.000143794 0.000189285 0.00433992)
(-0.000782112 5.39576e-05 0.000472311)
(0.000119096 0.000211379 -0.00116009)
(-0.000441045 0.00120765 0.00205411)
(0.000283586 -0.000296509 -0.00774272)
(-6.70627e-05 -0.000338727 0.000192601)
(0.000476401 0.000467161 0.00289109)
(-0.000133158 4.01166e-05 -0.00110632)
(-0.000595049 0.000158109 -0.00189294)
(0.000199849 -0.000433543 0.000197373)
(0.00227626 0.000328727 -0.00102626)
(-0.00028264 6.52806e-05 -0.00272396)
(0.000242506 -1.58589e-05 0.00036284)
(5.90261e-05 4.85676e-05 0.000459572)
(0.000221176 0.000177166 0.00123838)
(-0.000471571 0.000349928 0.000295749)
(-0.000125589 -0.000275644 -0.0011534)
(-0.000673855 -0.000139195 -0.00238535)
(-0.000692737 0.000116852 -3.5154e-05)
(0.000159196 -1.07603e-05 -0.0004256)
(-0.000156211 -0.000385967 0.000313318)
(-0.000510268 -0.000147348 0.000303788)
(-0.000185672 3.84213e-05 0.000543787)
(0.000321473 0.000456178 0.000256423)
(0.000735803 -0.0003415 0.000912973)
(-0.000964719 0.000160864 -0.000361227)
(-0.000283996 2.72345e-05 0.000193995)
(0.000514922 0.000425626 -0.000896135)
(0.0004672 -0.000419715 -0.00353942)
(-1.66131e-05 -0.000276754 0.000317869)
(0.000418465 0.000210979 -0.00121241)
(0.000258972 -2.18967e-05 -0.00292458)
(-0.00117783 -5.17497e-05 -0.00171125)
(-0.000695564 -0.00014191 0.000300593)
(0.000360842 0.000542178 0.000332973)
(-0.00057248 0.000429681 0.000266152)
(2.2775e-05 -0.000385254 0.00028444)
(-0.000625868 0.00027748 -0.00121589)
(-0.000577225 0.000421513 0.000242446)
(-9.94357e-05 -4.77007e-05 0.000203089)
(-5.12024e-05 -0.000568365 0.000240834)
(-0.000184732 0.000622531 -7.89379e-05)
(0.000249196 -0.000488244 -0.00140342)
(0.000252911 0.000808937 -0.000867121)
(0.000652297 0.000531205 0.00145385)
(0.000384146 -0.000324564 0.000661499)
(0.000353645 0.000275373 -0.0028759)
(-0.00125387 0.000274333 -0.000348079)
(-0.000656729 0.000233504 0.000294955)
(-8.27202e-05 9.0382e-05 0.000439974)
(-0.0019107 -4.03138e-05 -9.03064e-05)
(-0.000174163 0.000192154 0.000266324)
(6.864e-05 0.00298936 -0.00400592)
(0.00022352 0.000376026 0.000219407)
(0.000839014 0.000861449 0.000282382)
(-7.72642e-05 -0.000208986 -0.00101085)
(0.000218274 -4.10484e-05 -0.000895044)
(-0.000468902 -1.56694e-05 0.00126243)
(0.000674368 -0.000110932 0.00369674)
(0.000250331 0.00039268 0.000292467)
(0.000906747 -0.000193644 0.000281664)
(-0.000403321 -6.9293e-05 0.00145109)
(-0.000435878 -0.000176014 0.000283015)
(-1.17065e-05 -0.000164195 -0.00434441)
(0.000742534 0.000623619 0.00548896)
(0.000460229 -0.000394867 -0.00209225)
(-7.94136e-05 -0.000668935 -0.00121442)
(0.000234689 0.000389142 0.000318175)
(-0.000649324 -0.000301855 0.000271684)
(-9.49897e-05 0.000142936 -7.68421e-05)
(-0.00223082 0.000178727 0.000382098)
(0.000154862 0.000355058 -0.00168499)
(0.000421285 -0.000371192 0.000322005)
(-0.000372987 0.00020623 -0.000986632)
(0.00039914 0.000565608 -0.00137955)
(-0.000428844 0.0018264 0.000126688)
(0.000357857 -0.000236879 0.00016773)
(-7.01972e-05 0.000315413 -0.00100072)
(-0.00106692 0.000195066 -0.000855643)
(-9.82293e-05 -0.000467668 -0.00206949)
(0.000605052 -0.000667993 -0.00519303)
(-1.53617e-06 1.79782e-05 0.005548)
(0.000154145 -2.75632e-05 0.00397454)
(-5.82764e-05 0.000325375 0.000308876)
(-0.000848228 0.000461346 0.000151182)
(-0.000575369 -0.000390035 0.000304518)
(-0.000738926 -0.000754962 0.00153487)
(0.00108771 -0.00256367 -0.00171727)
(0.00024556 -0.000285969 -0.00211103)
(-3.94732e-05 2.17557e-06 -0.00502931)
(0.000283884 -0.000109929 1.29647e-05)
(-0.000560524 -0.000237459 0.000286079)
(0.000260232 0.00038186 -0.00764267)
(-0.00152741 -0.000597648 0.000290906)
(0.000370886 -0.000631828 0.00031627)
(-0.000597931 -0.000407617 -0.000894892)
(0.000220281 0.00218053 -0.000959771)
(-0.000392219 -6.18332e-06 -0.00199109)
(0.000197406 0.000239756 0.0018611)
(0.000373838 -0.000217283 0.000678222)
(-1.15531e-05 -0.000117467 -0.00324524)
(-0.000115691 0.00024337 0.00817493)
(-8.26408e-05 8.63564e-05 -0.000307554)
(-2.30289e-06 0.000123239 -0.00640793)
(-0.000543989 1.68705e-05 0.000298498)
(-0.000512901 0.000375171 -1.73357e-05)
(-0.000371219 1.2003e-05 -0.00102365)
(-0.000244078 5.7391e-05 0.000620107)
(-0.000146865 -0.000359023 0.000293648)
(0.000335048 -0.000130218 0.000253962)
(0.000390494 0.000802248 0.00123021)
(-0.00043864 -0.000567651 0.000287464)
(0.000185068 0.000435061 -0.000907699)
(-0.000679215 -0.000262549 0.000187325)
(-6.38935e-05 0.000224037 0.000152451)
(0.000284995 0.00040899 0.000392037)
(-0.000510114 -0.000147639 0.000308564)
(-0.000897526 -0.000343042 0.000762518)
(-0.000764603 0.000131761 0.000330362)
(-0.0327789 0.00123631 0.0981886)
(-0.000673355 -0.000171715 0.000268273)
(-0.000129968 4.56761e-05 0.00024852)
(5.46449e-05 0.000125939 -1.27583e-05)
(-0.000111008 -0.000427793 -0.00265535)
(4.28456e-05 -0.000250465 -0.000946317)
(-0.000222885 0.00020241 -0.00136042)
(0.000327773 5.58064e-06 0.000248543)
(0.000454435 -0.000773247 -0.00142522)
(0.00221323 0.00036775 0.000151719)
(-0.000315513 0.000292453 0.00032499)
(-0.000491215 0.000421179 -0.000944936)
(-0.000211071 5.16038e-05 0.000614974)
(0.000343595 -0.000362629 -0.00535533)
(-0.000537068 -5.77224e-06 -0.00135641)
(-0.000587012 -5.53817e-05 -0.00157516)
(0.000498595 -0.000332602 0.00171226)
(-0.000322722 9.76915e-05 0.000221515)
(-0.000446336 -0.000166365 -0.00635298)
(0.000245653 -0.000306503 0.000167371)
(-0.000140341 0.000147999 0.00062529)
(0.00018429 -0.000362107 0.000312499)
(-4.96968e-05 0.000459436 0.00027636)
(-0.000368801 0.000338458 0.00016426)
(0.00013719 -0.000144161 0.000132837)
(0.000341968 5.1771e-05 0.000311571)
(0.000480421 -0.000416072 0.000247012)
(0.00018885 9.19578e-05 -0.00247239)
(5.58275e-05 -0.000267823 -0.000955765)
(-7.45995e-05 -0.000206295 -4.40712e-05)
(-0.000989046 0.000171806 -0.00351004)
(-0.000721634 0.00012426 -0.000933524)
(-0.000269863 0.000204184 0.000442567)
(-0.000522613 0.000110679 0.000319475)
(0.000342557 -0.000291989 0.000745458)
(-6.25393e-05 0.000364784 0.00181737)
(-0.000242756 -0.000197332 -0.00212349)
(0.000343342 -0.000372819 0.000178622)
(-0.000238656 -4.98311e-05 -0.00431495)
(0.000488462 -0.000428645 0.000312471)
(0.000347411 0.000194661 -0.00249995)
(-0.000139441 4.41339e-05 0.00031974)
(0.000372135 0.000556685 0.000364688)
(-0.0006424 -1.05673e-06 0.000295558)
(-0.00213635 0.00242747 0.00024676)
(-0.000737612 -0.000289781 0.000331082)
(-0.000132864 0.000132114 -0.000432519)
(-0.000316751 0.000278534 0.00031734)
(-0.000623136 -1.56184e-05 -0.00040163)
(0.000207911 -0.000419876 -0.0019787)
(0.000533968 -0.000370889 0.000233969)
(0.0016039 -0.000513573 -0.000514687)
(-0.000615666 -0.000125654 0.000315539)
(-0.000461715 1.54142e-05 -0.00155022)
(-0.000816728 -3.31837e-05 -0.00127883)
(-0.000620817 -7.64573e-05 -0.000334473)
(-0.000161747 0.000179593 0.000258459)
(0.000231295 0.000374432 0.000331153)
(0.000415378 0.000619211 0.000291119)
(-0.000937288 0.000231306 -0.000862591)
(-0.00011624 0.000288876 0.000291825)
(-0.00159099 -0.00267682 -0.0132618)
(-0.000496024 -0.000368451 -0.000281534)
(-0.000671486 0.000149549 0.000455517)
(-0.000803 0.000190728 0.000321776)
(0.000378713 0.000566358 0.000239264)
(2.33278e-05 -0.000226887 0.000423416)
(0.000118858 -0.000122491 -0.00720304)
(0.000293905 0.000221816 0.00203452)
(-0.000147795 -6.3497e-05 2.63646e-05)
(-3.8522e-05 0.000422307 -0.00220423)
(3.823e-05 0.00127267 -0.000454008)
(0.000224737 -0.000415933 -0.00193298)
(-0.000739379 0.000145084 0.000257985)
(0.000100389 0.000441768 0.00678086)
(-0.000483777 -0.000448749 0.000297779)
(-0.000652664 0.000388811 0.000268167)
(-0.000130675 0.000394006 0.000322525)
(0.000198277 -0.000374732 0.000209378)
(0.000508565 2.22818e-05 0.00235901)
(-0.00123793 -4.92824e-05 0.00306598)
(-0.000319194 0.000418592 -0.00443676)
(-0.000486922 0.000356665 0.000420737)
(0.000895022 -0.000605482 0.00026203)
(0.000578467 0.000473675 0.000259952)
(3.55091e-05 -1.36352e-05 -0.000927235)
(0.00049907 -0.00121151 -0.00217264)
(-0.000499434 -0.000135406 0.00012764)
(-2.77052e-05 2.74834e-06 0.000274073)
(-0.000748679 -0.000373531 -0.00135346)
(0.000403149 0.000716595 0.000285129)
(0.000321797 0.000462277 0.000280596)
(0.000244038 9.0033e-05 -0.00131242)
(-5.41235e-05 5.30389e-05 -4.66739e-05)
(-0.000175112 0.00028653 0.00206446)
(-0.000139967 -0.000332777 0.000670009)
(0.000287985 -0.000241831 8.07046e-05)
(-0.000570835 1.7071e-05 -0.000414956)
(-0.000781165 0.000354554 -0.00242253)
(0.000182376 1.17295e-05 -0.00388238)
(-0.000373421 0.00151361 -0.00121135)
(-0.000807596 -4.80008e-05 0.000308652)
(-0.000645815 0.000472429 -0.00132808)
(-0.000161094 0.00033391 0.000337469)
(-0.000721321 0.000468967 0.000260596)
(-0.00010342 0.00010642 -0.00213975)
(-0.000701005 0.000765595 -0.000353255)
(0.000275988 -0.000468385 0.0002824)
(0.000258765 0.000133962 0.000167338)
(-0.00065913 -4.8528e-05 -0.00446087)
(0.00129854 -0.000797933 0.00384796)
(-0.000603028 0.000440705 0.000376263)
(0.000376653 -0.000401764 0.000235018)
(-0.000501854 -0.000145428 0.000314514)
(0.000441187 0.000432944 0.000245339)
(-0.000177542 -0.000147392 0.00150706)
(-0.000389788 0.000145744 -0.000194057)
(0.00018991 7.11396e-05 0.000206066)
(7.53155e-05 -0.00067651 -0.0017342)
(0.000395419 -0.000391463 -0.00463848)
(0.000429036 -0.00024497 -0.00508734)
(-0.000582148 -0.000245119 0.000274949)
(-0.00212773 0.000269725 -0.000860656)
(-0.000769703 0.000189477 0.000370093)
(-0.000365004 -5.07836e-05 -0.000652181)
(0.000295452 0.000423249 1.59448e-05)
(-0.000111387 -0.000121663 0.00050436)
(-0.00010041 -0.00033809 0.00040142)