/*--------------------------------*- C++ -*----------------------------------*\
| =========                 |                                                 |
| \\      /  F ield         | OpenFOAM: The Open Source CFD Toolbox           |
|  \\    /   O peration     | Version:  plus.master.MPPICInterFoam            |
|   \\  /    A nd           | Web:      www.OpenFOAM.com                      |
|    \\/     M anipulation  |                                                 |
\*---------------------------------------------------------------------------*/
FoamFile
{
    version     2.0;
    format      ascii;
    class       surfaceScalarField;
    location    "0.4";
    object      alphaPhi;
}
// * * * * * * * * * * * * * * * * * * * * * * * * * * * * * * * * * * * * * //

dimensions      [0 3 -1 0 0 0 0];

internalField   nonuniform List<scalar> 
34004
(
-2.50431e-11
6.81223e-11
2.46657e-08
-6.38106e-11
-3.55635e-11
4.45252e-11
3.04499e-08
-4.83527e-11
-3.1381e-11
3.76439e-11
3.5055e-08
-4.14467e-11
-3.30102e-11
3.68443e-11
3.94657e-08
-4.09373e-11
-5.45099e-11
3.75176e-11
4.39011e-08
-3.64713e-11
-9.80613e-11
3.62033e-11
4.8468e-08
-3.01723e-11
-1.51619e-10
2.72282e-11
5.32402e-08
-1.50843e-11
1.0734e-11
5.82827e-08
1.86358e-11
-1.92923e-10
-2.98219e-11
6.21105e-11
2.46744e-08
-3.53013e-11
3.59538e-11
3.04569e-08
-2.95919e-11
2.97516e-11
3.50632e-08
-3.42908e-11
3.11301e-11
3.94763e-08
-6.09198e-11
3.45647e-11
4.39156e-08
-1.11255e-10
3.55095e-11
4.84859e-08
-1.74346e-10
2.85158e-11
5.32578e-08
6.27728e-12
5.82913e-08
-2.16536e-10
-1.57273e-11
4.68969e-11
2.46779e-08
-1.45282e-11
2.22546e-11
3.04629e-08
-3.93352e-12
1.68463e-11
3.50714e-08
-8.50646e-13
1.81792e-11
3.9487e-08
-1.55667e-11
2.16969e-11
4.39293e-08
-5.13281e-11
2.35247e-11
4.85027e-08
-9.90306e-11
1.96351e-11
5.32746e-08
5.86886e-12
5.83002e-08
-1.36631e-10
-1.27165e-12
2.00829e-11
2.46793e-08
4.18459e-12
4.14014e-12
3.04682e-08
1.77653e-11
-9.4766e-13
3.50787e-08
2.54452e-11
-2.3429e-12
3.9496e-08
1.79124e-11
-2.90789e-12
4.39406e-08
-9.1505e-12
-3.82402e-12
4.8516e-08
-5.04189e-11
-4.75474e-12
5.3288e-08
-4.31964e-12
5.83096e-08
-8.79019e-11
-4.21332e-12
-1.66105e-12
2.46806e-08
-4.6652e-12
-8.94765e-12
3.04737e-08
4.71175e-13
-1.17527e-11
3.50855e-08
-1.92581e-12
-1.36969e-11
3.95044e-08
-2.19677e-11
-1.51983e-11
4.3951e-08
-6.32165e-11
-1.57699e-11
4.85279e-08
-1.17245e-10
-1.26745e-11
5.32984e-08
-3.78385e-12
5.83129e-08
-1.5905e-10
-1.1091e-11
-1.54738e-11
2.4681e-08
-2.01561e-11
-1.44552e-11
3.04776e-08
-2.39464e-11
-1.41164e-11
3.50901e-08
-3.81737e-11
-1.40895e-11
3.951e-08
-7.25633e-11
-1.3663e-11
4.39578e-08
-1.28857e-10
-1.21453e-11
4.85353e-08
-1.92393e-10
-8.7774e-12
5.33043e-08
1.64571e-12
5.83128e-08
-2.33346e-10
-1.49311e-11
2.4681e-08
-2.3912e-11
-2.69976e-11
3.04796e-08
-1.71009e-11
-3.17431e-11
3.50921e-08
-1.5099e-11
-4.47968e-11
3.9512e-08
-1.50253e-11
-7.4646e-11
4.39591e-08
-1.546e-11
-1.22735e-10
4.85351e-08
-1.48739e-11
-1.7902e-10
5.33025e-08
-1.0641e-11
5.83117e-08
-1.78949e-12
-2.12384e-10
-4.49731e-12
7.59783e-11
2.46512e-08
-7.11546e-11
-2.94571e-11
5.07705e-11
3.04378e-08
-5.69825e-11
-4.56642e-11
4.42409e-11
3.50418e-08
-5.27656e-11
-6.74937e-11
4.38825e-11
3.94574e-08
-5.26962e-11
-1.03043e-10
4.47447e-11
4.39035e-08
-5.25856e-11
-1.52131e-10
4.24861e-11
4.84806e-08
-4.99779e-11
-2.03203e-10
3.18195e-11
5.32504e-08
-3.9244e-11
8.23165e-12
5.82626e-08
-1.76019e-11
-2.2984e-10
-3.07899e-12
6.93732e-11
2.46551e-08
-2.27897e-11
4.16644e-11
3.04427e-08
-3.73888e-11
3.5789e-11
3.50478e-08
-5.92144e-11
3.78458e-11
3.94656e-08
-9.52889e-11
4.20669e-11
4.39148e-08
-1.46061e-10
4.33784e-11
4.84952e-08
-1.99216e-10
3.55774e-11
5.32658e-08
1.1723e-11
5.82726e-08
-2.27637e-10
1.10225e-11
5.23652e-11
2.46584e-08
-2.04566e-12
2.81469e-11
3.04488e-08
-9.79816e-12
2.28165e-11
3.50553e-08
-2.14907e-11
2.37742e-11
3.9475e-08
-4.32053e-11
2.66815e-11
4.39269e-08
-7.61789e-11
2.75142e-11
4.85098e-08
-1.12727e-10
2.18448e-11
5.32807e-08
5.55288e-12
5.82825e-08
-1.37441e-10
1.97783e-11
2.48347e-11
2.46615e-08
1.07992e-11
1.03318e-11
3.04544e-08
7.73483e-12
5.52762e-12
3.50624e-08
1.17072e-12
4.57186e-12
3.94844e-08
-1.4218e-11
4.52423e-12
4.39392e-08
-3.99737e-11
3.67492e-12
4.85248e-08
-7.12655e-11
1.91836e-12
5.32964e-08
3.75181e-13
5.82927e-08
-9.59223e-11
1.14079e-11
2.85692e-12
2.46655e-08
-7.7044e-13
-4.19294e-12
3.04597e-08
-8.51897e-12
-7.34813e-12
3.50694e-08
-2.179e-11
-9.51935e-12
3.94943e-08
-4.65549e-11
-1.15063e-11
4.39526e-08
-8.4352e-11
-1.30195e-11
4.85413e-08
-1.27465e-10
-1.15268e-11
5.33118e-08
-2.88952e-12
5.82983e-08
-1.56786e-10
3.43498e-13
-1.15472e-11
2.46694e-08
-1.86508e-11
-1.12979e-11
3.0463e-08
-3.44279e-11
-1.17013e-11
3.50734e-08
-5.85041e-11
-1.26197e-11
3.94997e-08
-9.7787e-11
-1.34437e-11
4.39599e-08
-1.53005e-10
-1.32881e-11
4.85498e-08
-2.12314e-10
-1.02424e-11
5.33193e-08
-2.04346e-12
5.83007e-08
-2.47965e-10
-8.09912e-12
2.46728e-08
-2.0898e-11
-3.11221e-11
3.0465e-08
-1.43237e-11
-5.02955e-11
3.50752e-08
-1.24086e-11
-7.77797e-11
3.95016e-08
-1.22925e-11
-1.20418e-10
4.39614e-08
-1.23517e-11
-1.78479e-10
4.85499e-08
-1.1198e-11
-2.38961e-10
5.3317e-08
-7.48777e-12
5.82949e-08
-1.31708e-13
-2.71325e-10
-2.39218e-12
8.30708e-11
2.46358e-08
-8.02629e-11
-3.05892e-11
5.61449e-11
3.04288e-08
-6.17234e-11
-5.4315e-11
4.94288e-11
3.50343e-08
-5.56555e-11
-8.55237e-11
4.94464e-11
3.94561e-08
-5.50529e-11
-1.29637e-10
5.09062e-11
4.39123e-08
-5.53029e-11
-1.86622e-10
4.90504e-11
4.84992e-08
-5.18615e-11
-2.44905e-10
3.79762e-11
5.32673e-08
-3.8861e-11
1.23094e-11
5.825e-08
-1.06662e-11
-2.77911e-10
-2.57514e-12
7.37969e-11
2.46384e-08
-2.54874e-11
4.69194e-11
3.04321e-08
-4.58991e-11
4.13439e-11
3.5038e-08
-7.4361e-11
4.38763e-11
3.94606e-08
-1.16305e-10
4.87174e-11
4.39183e-08
-1.71827e-10
5.04431e-11
4.85065e-08
-2.29674e-10
4.18172e-11
5.32746e-08
1.5204e-11
5.8254e-08
-2.63718e-10
7.77131e-12
5.54774e-11
2.46428e-08
-6.61862e-12
3.25661e-11
3.04362e-08
-1.77605e-11
2.78669e-11
3.50427e-08
-3.31706e-11
2.97032e-11
3.94667e-08
-5.70125e-11
3.36068e-11
4.39262e-08
-8.97508e-11
3.51769e-11
4.85163e-08
-1.25273e-10
2.92989e-11
5.32853e-08
1.10867e-11
5.82631e-08
-1.49188e-10
1.44143e-11
2.81011e-11
2.46483e-08
5.54547e-12
1.39321e-11
3.04406e-08
1.52315e-12
9.35454e-12
3.50476e-08
-5.54586e-12
8.90426e-12
3.94742e-08
-1.87823e-11
9.38943e-12
4.39368e-08
-3.96159e-11
8.97337e-12
4.853e-08
-6.44851e-11
6.69273e-12
5.32999e-08
2.16988e-12
5.82734e-08
-8.44192e-11
5.66983e-12
6.16684e-12
2.46557e-08
-5.58121e-12
-1.36284e-12
3.0445e-08
-1.32236e-11
-4.44448e-12
3.50536e-08
-2.49977e-11
-6.20897e-12
3.94831e-08
-4.49587e-11
-7.67672e-12
4.39499e-08
-7.41744e-11
-9.01197e-12
4.85468e-08
-1.073e-10
-8.457e-12
5.33163e-08
-2.56599e-12
5.82796e-08
-1.31837e-10
-5.50965e-12
-8.86e-12
2.46639e-08
-2.37668e-11
-1.00101e-11
3.04486e-08
-3.89565e-11
-1.07757e-11
3.50577e-08
-6.13803e-11
-1.15659e-11
3.94894e-08
-9.61278e-11
-1.22346e-11
4.39594e-08
-1.43853e-10
-1.22205e-11
4.85589e-08
-1.95185e-10
-9.56709e-12
5.33278e-08
-2.16396e-12
5.82834e-08
-2.26355e-10
-1.35567e-11
2.46712e-08
-1.97653e-11
-3.62304e-11
3.0451e-08
-1.4632e-11
-5.55895e-11
3.50596e-08
-1.31632e-11
-8.31407e-11
3.94924e-08
-1.29186e-11
-1.24634e-10
4.39637e-08
-1.27448e-11
-1.80891e-10
4.85637e-08
-1.14564e-11
-2.40447e-10
5.33309e-08
-7.80594e-12
5.8281e-08
-4.3031e-13
-2.7624e-10
-1.64946e-11
8.88132e-11
2.46376e-08
-8.85988e-11
-4.03559e-11
6.03707e-11
3.04152e-08
-6.62552e-11
-5.79416e-11
5.29424e-11
3.50205e-08
-5.9011e-11
-8.28555e-11
5.28501e-11
3.94477e-08
-5.76106e-11
-1.19929e-10
5.44142e-11
4.39122e-08
-5.71545e-11
-1.69062e-10
5.24977e-11
4.85067e-08
-5.29444e-11
-2.20025e-10
4.07108e-11
5.32724e-08
-3.94159e-11
1.34656e-11
5.82279e-08
-1.15302e-11
-2.48608e-10
-2.19013e-11
7.7164e-11
2.46425e-08
-3.85603e-11
5.0062e-11
3.04156e-08
-5.10847e-11
4.43322e-11
3.50201e-08
-7.15866e-11
4.72196e-11
3.94474e-08
-1.04772e-10
5.27093e-11
4.39123e-08
-1.5043e-10
5.50099e-11
4.8507e-08
-1.99067e-10
4.6385e-11
5.3273e-08
1.87197e-11
5.82287e-08
-2.27389e-10
-1.2319e-11
5.95312e-11
2.46463e-08
-2.04999e-11
3.57571e-11
3.0417e-08
-2.29263e-11
3.06781e-11
3.50211e-08
-2.93636e-11
3.35631e-11
3.94483e-08
-4.19343e-11
3.86195e-11
4.39127e-08
-6.06235e-11
4.10356e-11
4.85068e-08
-8.10368e-11
3.48411e-11
5.32728e-08
1.40251e-11
5.82322e-08
-9.39884e-11
-3.51537e-12
3.38969e-11
2.46511e-08
-5.07357e-12
1.69695e-11
3.04193e-08
-1.5333e-12
1.26321e-11
3.50245e-08
2.09926e-12
1.31195e-11
3.94526e-08
3.57004e-12
1.50685e-11
4.39188e-08
2.1247e-12
1.57169e-11
4.85146e-08
-1.48108e-12
1.29953e-11
5.32811e-08
5.85393e-12
5.82388e-08
-7.02441e-12
-6.56468e-12
1.24786e-11
2.46573e-08
-1.0731e-11
1.13988e-12
3.04233e-08
-9.14419e-12
-2.36476e-12
3.50294e-08
-8.34281e-12
-3.27111e-12
3.94603e-08
-1.01776e-11
-3.4652e-12
4.39301e-08
-1.51066e-11
-3.93632e-12
4.85292e-08
-2.15369e-11
-3.75563e-12
5.32951e-08
-7.8328e-13
5.82434e-08
-2.70777e-11
-1.09305e-11
-3.74634e-12
2.46647e-08
-2.18113e-11
-8.78156e-12
3.04278e-08
-2.78837e-11
-1.04221e-11
3.50342e-08
-3.70709e-11
-1.0846e-11
3.94678e-08
-5.15625e-11
-1.09126e-11
4.39412e-08
-7.13978e-11
-1.06688e-11
4.85434e-08
-9.18472e-11
-8.62561e-12
5.33089e-08
-2.66766e-12
5.82479e-08
-1.02822e-10
-1.29102e-11
2.46708e-08
-1.67554e-11
-2.8484e-11
3.04312e-08
-1.50969e-11
-4.03401e-11
3.50379e-08
-1.44252e-11
-5.63721e-11
3.94732e-08
-1.39893e-11
-7.94308e-11
4.3949e-08
-1.33876e-11
-1.10201e-10
4.85534e-08
-1.179e-11
-1.42007e-10
5.33177e-08
-7.91623e-12
5.82481e-08
-5.4399e-13
-1.5968e-10
-1.28041e-11
9.23294e-11
2.4634e-08
-9.10232e-11
-3.18548e-11
6.09013e-11
3.03961e-08
-6.70943e-11
-4.28345e-11
5.28846e-11
3.4999e-08
-5.87412e-11
-5.46148e-11
5.27641e-11
3.94251e-08
-5.71836e-11
-6.82401e-11
5.45071e-11
4.38876e-08
-5.67801e-11
-8.2216e-11
5.27006e-11
4.8478e-08
-5.25405e-11
-9.14428e-11
4.10666e-11
5.32349e-08
-3.89912e-11
1.38457e-11
5.81745e-08
-1.13153e-11
-8.869e-11
-1.27269e-11
8.02673e-11
2.46374e-08
-2.56603e-11
5.09684e-11
3.03945e-08
-3.32747e-11
4.44372e-11
3.49968e-08
-4.21198e-11
4.72918e-11
3.94218e-08
-5.29395e-11
5.27336e-11
4.38835e-08
-6.45576e-11
5.49428e-11
4.84731e-08
-7.25187e-11
4.62851e-11
5.32303e-08
1.90676e-11
5.81732e-08
-7.17648e-11
-8.15964e-13
6.4296e-11
2.46365e-08
-6.05814e-12
3.78018e-11
3.03934e-08
-6.91812e-12
3.28362e-11
3.49956e-08
-4.4149e-12
3.58225e-11
3.94185e-08
1.8389e-12
4.13891e-11
4.38773e-08
1.3091e-11
4.41999e-11
4.84637e-08
2.89459e-11
3.78678e-11
5.32207e-08
1.62769e-11
5.8172e-08
4.30503e-11
1.09302e-11
4.1462e-11
2.46364e-08
1.01968e-11
2.08838e-11
3.03949e-08
1.64812e-11
1.59286e-11
3.49971e-08
2.87078e-11
1.71668e-11
3.94203e-08
4.91845e-11
2.01128e-11
4.38791e-08
7.87341e-11
2.13913e-11
4.84654e-08
1.12293e-10
1.81134e-11
5.32226e-08
8.21215e-12
5.81749e-08
1.35442e-10
1.23484e-11
2.13124e-11
2.46386e-08
1.04562e-11
5.68003e-12
3.03984e-08
1.48821e-11
1.3226e-12
3.50016e-08
2.56389e-11
1.18188e-12
3.94268e-08
4.49259e-11
2.03362e-12
4.38884e-08
7.36126e-11
2.21727e-12
4.84772e-08
1.06787e-10
1.64953e-12
5.32337e-08
1.40581e-12
5.8178e-08
1.30151e-10
1.31382e-11
3.72524e-12
2.46426e-08
6.34778e-12
-5.14606e-12
3.04034e-08
3.68969e-12
-7.52418e-12
3.50077e-08
5.9913e-12
-7.59941e-12
3.94355e-08
1.47374e-11
-7.03167e-12
4.3901e-08
3.08405e-11
-6.35012e-12
4.84933e-08
5.23467e-11
-4.81067e-12
5.32491e-08
-1.05281e-12
5.81833e-08
7.0587e-11
1.63826e-11
2.46445e-08
-1.29955e-11
6.52602e-12
3.04077e-08
-1.38466e-11
-6.03589e-13
3.50133e-08
-1.3812e-11
-3.44134e-12
3.94434e-08
-1.3699e-11
-9.30038e-13
4.39122e-08
-1.32587e-11
7.73046e-12
4.85077e-08
-1.18464e-11
2.11238e-11
5.32629e-08
-8.10866e-12
5.81859e-08
-8.92716e-13
3.43303e-11
1.49966e-11
9.26968e-11
2.46026e-08
-9.15655e-11
-5.41106e-12
5.89101e-11
3.03777e-08
-6.47996e-11
-1.97635e-11
5.09155e-11
3.49794e-08
-5.56661e-11
-2.64528e-11
5.06387e-11
3.93967e-08
-5.48988e-11
-2.31796e-11
5.24102e-11
4.38466e-08
-5.56662e-11
-7.55519e-12
5.07268e-11
4.84212e-08
-5.26537e-11
1.84929e-11
3.95945e-11
5.31641e-08
-4.01695e-11
1.3747e-11
5.81002e-08
-1.2996e-11
4.29233e-11
2.32734e-11
8.00649e-11
2.45968e-08
6.59918e-12
5.02428e-11
3.03755e-08
-6.08353e-12
4.3657e-11
3.4977e-08
-1.24372e-11
4.56787e-11
3.93928e-08
-9.1167e-12
5.01794e-11
4.38405e-08
5.92366e-12
5.15172e-11
4.84135e-08
3.02187e-11
4.27975e-11
5.31571e-08
1.74277e-11
5.80992e-08
5.0781e-11
3.41411e-11
6.58833e-11
2.45898e-08
2.22861e-11
3.99008e-11
3.03732e-08
1.47842e-11
3.44826e-11
3.4974e-08
1.54503e-11
3.72475e-11
3.93872e-08
2.88256e-11
4.24494e-11
4.38307e-08
5.6417e-11
4.4815e-11
4.83999e-08
9.26629e-11
3.8171e-11
5.31439e-08
1.67303e-11
5.80972e-08
1.18926e-10
4.20851e-11
4.73475e-11
2.45861e-08
3.64854e-11
2.51801e-11
3.03728e-08
3.59663e-11
2.00044e-11
3.49738e-08
4.62506e-11
2.15163e-11
3.93866e-08
7.24062e-11
2.49297e-11
4.38296e-08
1.14886e-10
2.6431e-11
4.83984e-08
1.6495e-10
2.2453e-11
5.31432e-08
1.02926e-11
5.80997e-08
1.97342e-10
4.36435e-11
2.84285e-11
2.45871e-08
3.84827e-11
1.11183e-11
3.03753e-08
3.79342e-11
6.65901e-12
3.49772e-08
4.8189e-11
6.9405e-12
3.9392e-08
7.43841e-11
8.52523e-12
4.38378e-08
1.16723e-10
9.1359e-12
4.84093e-08
1.66353e-10
7.66091e-12
5.31538e-08
4.00423e-12
5.81033e-08
1.98028e-10
4.46266e-11
9.2186e-12
2.45904e-08
3.71714e-11
-2.95825e-13
3.03799e-08
3.25536e-11
-2.70666e-12
3.49834e-08
3.69466e-11
-2.53657e-12
3.94015e-08
5.51951e-11
-1.55996e-12
4.3852e-08
8.74917e-11
-6.25985e-13
4.84278e-08
1.26916e-10
1.42531e-13
5.31721e-08
1.22377e-12
5.81102e-08
1.53464e-10
4.73223e-11
2.45919e-08
-1.23004e-11
3.9983e-11
3.03841e-08
-1.16632e-11
3.45358e-11
3.49894e-08
-1.16513e-11
3.78589e-11
3.94104e-08
-1.20529e-11
5.48341e-11
4.38651e-08
-1.22721e-11
8.53873e-11
4.8445e-08
-1.13884e-11
1.22707e-10
5.31886e-08
-8.02973e-12
5.81143e-08
-1.05897e-12
1.47352e-10
2.79612e-11
8.71849e-11
2.45616e-08
-8.94955e-11
3.57807e-12
5.65646e-11
3.03625e-08
-6.19603e-11
-1.55296e-11
4.89296e-11
3.49637e-08
-5.3159e-11
-2.71888e-11
4.81173e-11
3.93729e-08
-5.22493e-11
-2.79862e-11
4.90962e-11
4.38098e-08
-5.29557e-11
-1.68489e-11
4.70011e-11
4.83698e-08
-5.01913e-11
2.14368e-12
3.64763e-11
5.31012e-08
-3.83153e-11
1.30065e-11
5.80381e-08
-1.23812e-11
1.42295e-11
3.15576e-11
7.40002e-11
2.45483e-08
1.16428e-11
4.86168e-11
3.03588e-08
-5.57795e-12
4.25236e-11
3.49606e-08
-1.69588e-11
4.3761e-11
3.9368e-08
-1.86251e-11
4.69976e-11
4.38021e-08
-9.4139e-12
4.7298e-11
4.83599e-08
6.92545e-12
3.86824e-11
5.30924e-08
1.57645e-11
5.80362e-08
1.6911e-11
3.34876e-11
6.39515e-11
2.45393e-08
1.84686e-11
4.0283e-11
3.03538e-08
6.17403e-12
3.52296e-11
3.49549e-08
4.07348e-13
3.77924e-11
3.93594e-08
4.68053e-12
4.26626e-11
4.37896e-08
1.97643e-11
4.47419e-11
4.83441e-08
4.05578e-11
3.81573e-11
5.30782e-08
1.7405e-11
5.80344e-08
5.197e-11
3.72236e-11
4.9854e-11
2.45359e-08
2.88021e-11
2.78972e-11
3.03509e-08
2.46836e-11
2.29772e-11
3.49516e-08
2.90192e-11
2.51124e-11
3.93555e-08
4.59454e-11
2.93324e-11
4.37848e-08
7.56606e-11
3.13685e-11
4.83387e-08
1.10057e-10
2.70364e-11
5.30744e-08
1.28209e-11
5.80361e-08
1.28537e-10
3.84515e-11
3.28059e-11
2.45386e-08
3.21325e-11
1.51647e-11
3.03516e-08
3.00235e-11
1.10665e-11
3.49526e-08
3.67181e-11
1.23984e-11
3.93586e-08
5.66783e-11
1.5264e-11
4.37907e-08
8.95912e-11
1.67629e-11
4.83477e-08
1.26774e-10
1.45659e-11
5.30836e-08
7.24979e-12
5.8039e-08
1.46941e-10
4.01554e-11
1.14405e-11
2.45446e-08
3.43592e-11
3.02474e-12
3.03551e-08
3.11142e-11
1.23125e-12
3.49579e-08
3.55972e-11
2.24967e-12
3.93677e-08
5.18984e-11
4.2736e-12
4.38055e-08
7.93424e-11
5.98622e-12
4.83679e-08
1.10125e-10
6.25846e-12
5.31042e-08
4.14591e-12
5.80475e-08
1.26249e-10
4.21615e-11
2.45492e-08
-1.50454e-11
3.93973e-11
3.03585e-08
-1.13601e-11
3.89551e-11
3.49631e-08
-1.06363e-11
4.70972e-11
3.93763e-08
-1.11881e-11
6.82605e-11
4.38188e-08
-1.17916e-11
1.01327e-10
4.83858e-08
-1.12284e-11
1.37126e-10
5.31217e-08
-8.11048e-12
5.80522e-08
-1.33323e-12
1.54911e-10
7.88456e-12
7.48275e-11
2.45422e-08
-7.86317e-11
-1.52667e-11
5.25283e-11
3.03466e-08
-5.86744e-11
-3.32106e-11
4.62589e-11
3.49476e-08
-5.14831e-11
-4.88576e-11
4.4731e-11
3.93532e-08
-4.92924e-11
-6.12917e-11
4.42662e-11
4.37842e-08
-4.78815e-11
-7.05375e-11
4.12497e-11
4.83374e-08
-4.33914e-11
-7.69295e-11
3.14347e-11
5.30614e-08
-3.12192e-11
1.10141e-11
5.79898e-08
-7.90018e-12
-8.14901e-11
-2.11487e-12
6.34813e-11
2.45314e-08
-1.98083e-11
4.41013e-11
3.03399e-08
-3.39071e-11
3.92613e-11
3.49413e-08
-4.73834e-11
4.00186e-11
3.93453e-08
-5.97174e-11
4.2326e-11
4.37739e-08
-7.04486e-11
4.20732e-11
4.83255e-08
-7.80858e-11
3.42415e-11
5.30507e-08
1.42894e-11
5.79862e-08
-8.19867e-11
-7.80154e-12
5.95738e-11
2.45238e-08
-2.23165e-11
3.76092e-11
3.03318e-08
-3.15258e-11
3.29572e-11
3.49315e-08
-3.99377e-11
3.57901e-11
3.93324e-08
-4.70827e-11
4.07623e-11
4.37568e-08
-5.24231e-11
4.31373e-11
4.83047e-08
-5.47956e-11
3.72135e-11
5.30318e-08
1.76788e-11
5.79819e-08
-5.57061e-11
-3.95978e-12
5.07432e-11
2.45215e-08
-1.26682e-11
2.79026e-11
3.03263e-08
-1.4907e-11
2.3244e-11
3.49247e-08
-1.33617e-11
2.65173e-11
3.93236e-08
-6.85163e-12
3.21233e-11
4.37454e-08
4.92954e-12
3.53749e-11
4.82911e-08
2.02148e-11
3.12648e-11
5.30193e-08
1.52871e-11
5.79784e-08
3.017e-11
2.21141e-12
3.62147e-11
2.45237e-08
-3.39747e-12
1.68996e-11
3.03252e-08
-3.35779e-12
1.34835e-11
3.49234e-08
2.36736e-12
1.64161e-11
3.93232e-08
1.56255e-11
2.13698e-11
4.37467e-08
3.68022e-11
2.44847e-11
4.82938e-08
6.19874e-11
2.20458e-11
5.30219e-08
1.09924e-11
5.79764e-08
7.88215e-11
1.09875e-11
1.33647e-11
2.45292e-08
7.10484e-12
4.30913e-12
3.03285e-08
8.45776e-12
3.38452e-12
3.49277e-08
1.5781e-11
5.80257e-12
3.93313e-08
3.15839e-11
9.55604e-12
4.37599e-08
5.53069e-11
1.26486e-11
4.83124e-08
8.18885e-11
1.27114e-11
5.30411e-08
7.40074e-12
5.79844e-08
9.84777e-11
1.78464e-11
2.45346e-08
-1.71007e-11
1.85542e-11
3.03314e-08
-1.24395e-11
2.52199e-11
3.49322e-08
-1.1283e-11
4.01601e-11
3.93389e-08
-1.14915e-11
6.66389e-11
4.37721e-08
-1.18014e-11
1.03598e-10
4.8329e-08
-1.1089e-11
1.42651e-10
5.30576e-08
-8.01112e-12
5.79889e-08
-1.42336e-12
1.64756e-10
-1.04012e-11
6.03002e-11
2.45365e-08
-5.98e-11
-3.358e-11
4.49853e-11
3.03313e-08
-5.20463e-11
-5.02388e-11
4.05761e-11
3.49316e-08
-4.73787e-11
-6.75553e-11
3.89119e-11
3.93361e-08
-4.46182e-11
-8.68435e-11
3.77069e-11
4.37655e-08
-4.16635e-11
-1.0688e-10
3.43097e-11
4.83152e-08
-3.60707e-11
-1.22597e-10
2.54759e-11
5.303e-08
-2.45341e-11
8.44828e-12
5.79389e-08
-4.62269e-12
-1.25416e-10
-2.44137e-11
5.35398e-11
2.4532e-08
-4.42507e-11
3.68324e-11
3.03228e-08
-5.7292e-11
3.23983e-11
3.4922e-08
-7.24728e-11
3.27211e-11
3.93256e-08
-9.19304e-11
3.42856e-11
4.37542e-08
-1.14165e-10
3.37087e-11
4.83037e-08
-1.32717e-10
2.71271e-11
5.3021e-08
1.1226e-11
5.79367e-08
-1.36714e-10
-3.11737e-11
5.52609e-11
2.45259e-08
-5.09074e-11
3.24861e-11
3.03126e-08
-6.26947e-11
2.76057e-11
3.4909e-08
-7.65824e-11
3.02129e-11
3.93089e-08
-9.44769e-11
3.49619e-11
4.37323e-08
-1.14256e-10
3.73459e-11
4.82771e-08
-1.29448e-10
3.23607e-11
5.29958e-08
1.53856e-11
5.79283e-08
-1.30388e-10
-2.44803e-11
5.16212e-11
2.45222e-08
-4.14088e-11
2.6589e-11
3.03059e-08
-4.99183e-11
2.17813e-11
3.48999e-08
-5.78758e-11
2.57341e-11
3.92961e-08
-6.58538e-11
3.22882e-11
4.37143e-08
-7.14019e-11
3.64255e-11
4.82538e-08
-7.0828e-11
3.26101e-11
5.29724e-08
1.56845e-11
5.79192e-08
-6.22202e-11
-1.29059e-11
4.02344e-11
2.45206e-08
-2.72282e-11
1.8814e-11
3.0304e-08
-3.38898e-11
1.53236e-11
3.48975e-08
-3.73796e-11
1.97495e-11
3.92928e-08
-3.6667e-11
2.65696e-11
4.371e-08
-2.96439e-11
3.12324e-11
4.82482e-08
-1.53804e-11
2.86645e-11
5.29655e-08
1.43548e-11
5.79125e-08
-4.48921e-13
2.23409e-12
1.74694e-11
2.45223e-08
-6.4657e-12
6.26526e-12
3.03065e-08
-9.83652e-12
5.68059e-12
3.49017e-08
-7.41411e-12
9.38257e-12
3.92993e-08
2.6136e-12
1.48238e-11
4.372e-08
2.12817e-11
1.92996e-11
4.82619e-08
4.65209e-11
1.92097e-11
5.29793e-08
1.07787e-11
5.7916e-08
6.81259e-11
1.58978e-11
2.45238e-08
-1.50654e-11
1.29654e-11
3.03095e-08
-1.21643e-11
1.70851e-11
3.49059e-08
-1.12235e-11
3.07025e-11
3.93059e-08
-1.10974e-11
5.70081e-11
4.37299e-08
-1.09533e-11
9.63826e-11
4.82751e-08
-9.94968e-12
1.41965e-10
5.29921e-08
-6.87737e-12
5.79185e-08
-6.87721e-13
1.73487e-10
-1.02867e-11
5.05889e-11
2.45262e-08
-4.56295e-11
-4.10841e-11
3.61139e-11
3.03231e-08
-4.26219e-11
-6.47007e-11
3.22549e-11
3.49231e-08
-3.96891e-11
-9.055e-11
3.12163e-11
3.93287e-08
-3.81192e-11
-1.20878e-10
3.06448e-11
4.37597e-08
-3.63387e-11
-1.52947e-10
2.80861e-11
4.83074e-08
-3.21828e-11
-1.78417e-10
2.09366e-11
5.3011e-08
-2.26853e-11
7.09213e-12
5.78939e-08
-5.40018e-12
-1.85066e-10
-1.68057e-11
4.74552e-11
2.45213e-08
-4.60615e-11
2.88645e-11
3.03141e-08
-6.85732e-11
2.36039e-11
3.49126e-08
-9.38229e-11
2.31796e-11
3.93179e-08
-1.24593e-10
2.38706e-11
4.37491e-08
-1.58787e-10
2.28449e-11
4.82987e-08
-1.8774e-10
1.77134e-11
5.30065e-08
6.93192e-12
5.78966e-08
-1.98316e-10
-2.09894e-11
5.1642e-11
2.45152e-08
-5.40541e-11
2.70504e-11
3.03042e-08
-8.11347e-11
2.11648e-11
3.48995e-08
-1.11805e-10
2.26108e-11
3.93002e-08
-1.49026e-10
2.60242e-11
4.37257e-08
-1.90078e-10
2.73733e-11
4.82699e-08
-2.24913e-10
2.30615e-11
5.29792e-08
1.0294e-11
5.78872e-08
-2.37387e-10
-1.46801e-11
5.13987e-11
2.45097e-08
-4.82461e-11
2.55803e-11
3.02976e-08
-7.69695e-11
2.03545e-11
3.48903e-08
-1.08516e-10
2.39143e-11
3.92864e-08
-1.45074e-10
3.01155e-11
4.37051e-08
-1.84128e-10
3.39587e-11
4.82425e-08
-2.1644e-10
3.01437e-11
5.29517e-08
1.39317e-11
5.78765e-08
-2.27651e-10
-3.96305e-12
4.32808e-11
2.45052e-08
-3.42085e-11
2.11089e-11
3.02954e-08
-6.11456e-11
1.8015e-11
3.48876e-08
-8.90358e-11
2.29916e-11
3.92817e-08
-1.18527e-10
3.05487e-11
4.36973e-08
-1.476e-10
3.58734e-11
4.82315e-08
-1.69903e-10
3.2914e-11
5.29391e-08
1.60192e-11
5.78662e-08
-1.75934e-10
1.3371e-11
2.15501e-11
2.45032e-08
-9.76376e-12
9.61251e-12
3.02978e-08
-2.94672e-11
9.10533e-12
3.48912e-08
-4.65526e-11
1.34087e-11
3.92861e-08
-6.07094e-11
1.97537e-11
4.37032e-08
-7.06157e-11
2.49789e-11
4.82389e-08
-7.46529e-11
2.45243e-11
5.29457e-08
1.33806e-11
5.78664e-08
-7.26626e-11
2.66148e-11
2.45026e-08
-1.12991e-11
1.23664e-11
3.03002e-08
-1.01189e-11
3.52783e-12
3.48945e-08
-9.75207e-12
1.67313e-12
3.92908e-08
-9.6253e-12
9.05606e-12
4.37098e-08
-9.27978e-12
2.63124e-11
4.82471e-08
-8.08922e-12
4.94607e-11
5.29525e-08
-5.07843e-12
5.78648e-08
6.5448e-13
6.56083e-11
-2.22961e-11
4.76306e-11
2.45298e-08
-4.44964e-11
-6.36399e-11
2.92819e-11
3.03246e-08
-3.4697e-11
-9.63716e-11
2.43622e-11
3.49235e-08
-3.12745e-11
-1.34862e-10
2.38184e-11
3.93346e-08
-3.10729e-11
-1.83743e-10
2.43044e-11
4.3774e-08
-3.14039e-11
-2.41255e-10
2.32746e-11
4.83276e-08
-2.96844e-11
-2.96712e-10
1.83226e-11
5.30251e-08
-2.27616e-11
7.3904e-12
5.78763e-08
-7.29716e-12
-3.2876e-10
-2.49904e-11
4.20811e-11
2.45213e-08
-6.38758e-11
2.17915e-11
3.03156e-08
-9.57643e-11
1.55307e-11
3.49131e-08
-1.32184e-10
1.41543e-11
3.93232e-08
-1.77151e-10
1.38815e-11
4.37622e-08
-2.2906e-10
1.24276e-11
4.83172e-08
-2.78677e-10
8.85562e-12
5.30194e-08
3.3618e-12
5.78795e-08
-3.07949e-10
-3.07308e-11
4.62388e-11
2.45144e-08
-7.60645e-11
2.17862e-11
3.03065e-08
-1.16116e-10
1.51586e-11
3.4901e-08
-1.63008e-10
1.50734e-11
3.93065e-08
-2.20996e-10
1.65225e-11
4.37396e-08
-2.87978e-10
1.62727e-11
4.82895e-08
-3.51126e-10
1.24862e-11
5.29931e-08
4.56616e-12
5.78695e-08
-3.84555e-10
-2.76223e-11
4.77512e-11
2.45084e-08
-7.56884e-11
2.39e-11
3.03006e-08
-1.21091e-10
1.88952e-11
3.48931e-08
-1.75194e-10
2.16425e-11
3.92943e-08
-2.4285e-10
2.66655e-11
4.37212e-08
-3.22398e-10
2.94779e-11
4.82654e-08
-3.98608e-10
2.54963e-11
5.29693e-08
1.08157e-11
5.78604e-08
-4.38645e-10
-1.98218e-11
4.15655e-11
2.45039e-08
-6.42033e-11
2.24975e-11
3.02982e-08
-1.07197e-10
2.00109e-11
3.48907e-08
-1.5819e-10
2.49722e-11
3.92897e-08
-2.21597e-10
3.24795e-11
4.37135e-08
-2.96334e-10
3.7668e-11
4.82547e-08
-3.6848e-10
3.41845e-11
5.29569e-08
1.58913e-11
5.78499e-08
-4.07208e-10
-6.52417e-12
2.14182e-11
2.45025e-08
-3.97158e-11
1.14555e-11
3.0299e-08
-7.1177e-11
1.12633e-11
3.48925e-08
-1.0754e-10
1.5923e-11
3.92918e-08
-1.51589e-10
2.26261e-11
4.37157e-08
-2.03356e-10
2.80665e-11
4.82568e-08
-2.54077e-10
2.71534e-11
5.29579e-08
1.41739e-11
5.78469e-08
-2.82717e-10
3.73693e-12
2.45031e-08
-1.02049e-11
-1.85443e-11
3.03004e-08
-9.48088e-12
-3.67232e-11
3.48944e-08
-9.37548e-12
-5.47485e-11
3.92944e-08
-9.2484e-12
-7.38984e-11
4.3719e-08
-8.75854e-12
-9.4976e-11
4.82602e-08
-7.41844e-12
-1.15994e-10
5.29594e-08
-4.36897e-12
5.78418e-08
1.19316e-12
-1.29972e-10
-5.40067e-11
4.29454e-11
2.45691e-08
-4.38183e-11
-9.89491e-11
2.29197e-11
3.03306e-08
-2.86075e-11
-1.32629e-10
1.72505e-11
3.49253e-08
-2.41571e-11
-1.74603e-10
1.65847e-11
3.93449e-08
-2.41191e-11
-2.32741e-10
1.74752e-11
4.3799e-08
-2.5224e-11
-3.07301e-10
1.75814e-11
4.83664e-08
-2.47534e-11
-3.849e-10
1.48421e-11
5.30624e-08
-1.9607e-11
7.33473e-12
5.78742e-08
-6.64076e-12
-4.32169e-10
-6.07602e-11
3.3314e-11
2.45615e-08
-1.01815e-10
1.43677e-11
3.0321e-08
-1.32852e-10
7.95415e-12
3.49137e-08
-1.69147e-10
5.83313e-12
3.93301e-08
-2.16143e-10
4.67846e-12
4.37804e-08
-2.72883e-10
2.95816e-12
4.83451e-08
-3.28676e-10
1.0147e-12
5.30436e-08
1.97078e-13
5.78681e-08
-3.59578e-10
-6.9041e-11
3.72133e-11
2.45525e-08
-1.18115e-10
1.56923e-11
3.03119e-08
-1.59452e-10
9.34094e-12
3.49027e-08
-2.0891e-10
8.10712e-12
3.93147e-08
-2.72276e-10
7.81724e-12
4.37591e-08
-3.47443e-10
6.18787e-12
4.83188e-08
-4.18957e-10
3.0649e-12
5.30178e-08
-5.04896e-13
5.78551e-08
-4.52858e-10
-6.6644e-11
4.02184e-11
2.4545e-08
-1.20024e-10
2.06945e-11
3.03066e-08
-1.69249e-10
1.66351e-11
3.48968e-08
-2.30458e-10
1.88733e-11
3.93058e-08
-3.10792e-10
2.28298e-11
4.37458e-08
-4.08382e-10
2.46664e-11
4.83019e-08
-5.02864e-10
2.05601e-11
5.30015e-08
7.31699e-12
5.78485e-08
-5.47764e-10
-5.88667e-11
3.68535e-11
2.4539e-08
-1.08187e-10
2.1526e-11
3.03043e-08
-1.5464e-10
2.0167e-11
3.48953e-08
-2.13361e-10
2.50862e-11
3.93032e-08
-2.91696e-10
3.2329e-11
4.37417e-08
-3.88331e-10
3.71525e-11
4.82961e-08
-4.83418e-10
3.32139e-11
5.29946e-08
1.43606e-11
5.78409e-08
-5.30335e-10
-4.38489e-11
1.90992e-11
2.4537e-08
-8.0974e-11
1.091e-11
3.03044e-08
-1.14074e-10
1.12932e-11
3.48962e-08
-1.56563e-10
1.621e-11
3.93042e-08
-2.14593e-10
2.3047e-11
4.37423e-08
-2.88103e-10
2.84199e-11
4.82964e-08
-3.62564e-10
2.70911e-11
5.29937e-08
1.31043e-11
5.78373e-08
-4.00729e-10
-3.2559e-11
2.45381e-08
-1.03773e-11
-5.80953e-11
3.03052e-08
-1.07076e-11
-7.70436e-11
3.48972e-08
-1.08407e-11
-1.00326e-10
3.93055e-08
-1.06378e-11
-1.3283e-10
4.37439e-08
-1.00941e-11
-1.76108e-10
4.8298e-08
-8.77852e-12
-2.22385e-10
5.29937e-08
-5.68493e-12
5.78322e-08
3.01693e-13
-2.48866e-10
-5.80332e-11
3.08708e-11
2.46114e-08
-3.04568e-11
-1.00875e-10
1.41812e-11
3.03365e-08
-2.07001e-11
-1.31419e-10
9.25017e-12
3.49262e-08
-1.72905e-11
-1.67739e-10
8.19885e-12
3.93522e-08
-1.73396e-11
-2.17346e-10
8.54206e-12
4.38187e-08
-1.8448e-11
-2.80511e-10
8.69769e-12
4.83977e-08
-1.84582e-11
-3.44153e-10
7.60123e-12
5.30896e-08
-1.49115e-11
4.27085e-12
5.7859e-08
-5.48692e-12
-3.74999e-10
-6.32511e-11
2.1501e-11
2.46047e-08
-1.04105e-10
6.04283e-12
3.0327e-08
-1.33975e-10
5.23552e-13
3.49138e-08
-1.6576e-10
-2.6706e-12
3.93338e-08
-2.03955e-10
-5.20438e-12
4.37919e-08
-2.47181e-10
-7.78129e-12
4.83627e-08
-2.84911e-10
-8.71936e-12
5.30536e-08
-5.18754e-12
5.78402e-08
-2.95492e-10
-6.94979e-11
2.55951e-11
2.45914e-08
-1.20929e-10
9.48951e-12
3.03188e-08
-1.64248e-10
4.31559e-12
3.49051e-08
-2.13388e-10
2.35391e-12
3.9321e-08
-2.72873e-10
7.57928e-13
4.37732e-08
-3.39771e-10
-1.78701e-12
4.83383e-08
-3.98011e-10
-4.41296e-12
5.30283e-08
-4.9347e-12
5.78257e-08
-4.16221e-10
-6.78298e-11
3.1779e-11
2.45802e-08
-1.24908e-10
1.74863e-11
3.03145e-08
-1.77675e-10
1.4792e-11
3.4902e-08
-2.4088e-10
1.68486e-11
3.93166e-08
-3.20877e-10
2.00416e-11
4.37671e-08
-4.14792e-10
2.12345e-11
4.83314e-08
-5.01049e-10
1.70449e-11
5.30229e-08
4.46406e-12
5.78257e-08
-5.35022e-10
-6.00138e-11
3.29037e-11
2.45715e-08
-1.12884e-10
2.05897e-11
3.0313e-08
-1.6236e-10
2.00702e-11
3.49024e-08
-2.22811e-10
2.5001e-11
3.93177e-08
-3.01216e-10
3.19187e-11
4.37687e-08
-3.95414e-10
3.63911e-11
4.83338e-08
-4.84547e-10
3.20638e-11
5.30253e-08
1.26127e-11
5.78248e-08
-5.24025e-10
-4.31505e-11
1.88302e-11
2.45678e-08
-8.31812e-11
1.0874e-11
3.03131e-08
-1.18632e-10
1.13392e-11
3.49033e-08
-1.62351e-10
1.62328e-11
3.93189e-08
-2.20735e-10
2.28748e-11
4.37703e-08
-2.92806e-10
2.79781e-11
4.83355e-08
-3.63058e-10
2.62384e-11
5.30264e-08
1.16192e-11
5.78239e-08
-3.95994e-10
-2.84475e-11
2.45674e-08
-8.50188e-12
-5.63777e-11
3.03137e-08
-1.07827e-11
-7.74189e-11
3.49041e-08
-1.16295e-11
-1.01696e-10
3.93201e-08
-1.19249e-11
-1.34678e-10
4.37722e-08
-1.19027e-11
-1.77037e-10
4.83381e-08
-1.1117e-11
-2.20855e-10
5.30286e-08
-8.181e-12
5.7822e-08
-1.43209e-12
-2.45004e-10
-1.8754e-11
1.70641e-11
-1.57573e-11
2.4614e-08
-5.97959e-11
5.38317e-12
-1.2506e-11
3.03429e-08
-9.25316e-11
1.47618e-12
-1.09199e-11
3.49323e-08
-1.25418e-10
-5.74426e-13
-1.15741e-11
3.93606e-08
-1.62954e-10
-1.6971e-12
-1.29113e-11
4.38326e-08
-2.03827e-10
-2.84619e-12
-1.33634e-11
4.84147e-08
-2.38431e-10
-3.29966e-12
-1.12004e-11
5.30966e-08
-2.18535e-12
-4.78376e-12
-2.48479e-10
5.78306e-08
-1.74451e-11
9.15917e-12
2.46016e-08
-6.12004e-11
-8.04248e-13
3.03358e-08
-9.88612e-11
-5.95276e-12
3.4922e-08
-1.35348e-10
-1.01059e-11
3.93425e-08
-1.72498e-10
-1.45518e-11
4.38032e-08
-2.07832e-10
-1.85266e-11
4.83733e-08
-2.32573e-10
-1.87561e-11
5.30516e-08
-1.09962e-11
-2.32675e-10
5.78033e-08
-2.5859e-11
1.30864e-11
2.45879e-08
-8.23753e-11
4.98635e-12
3.03301e-08
-1.36611e-10
1.72748e-12
3.49161e-08
-1.94899e-10
-4.70492e-13
3.93334e-08
-2.60129e-10
-3.02571e-12
4.37891e-08
-3.2851e-10
-5.92343e-12
4.83545e-08
-3.85292e-10
-7.61133e-12
5.30324e-08
-6.31772e-12
-4.03066e-10
5.77934e-08
-3.21848e-11
2.36293e-11
2.45763e-08
-9.47501e-11
1.58486e-11
3.03268e-08
-1.56456e-10
1.49202e-11
3.49149e-08