/*--------------------------------*- C++ -*----------------------------------*\
| =========                 |                                                 |
| \\      /  F ield         | OpenFOAM: The Open Source CFD Toolbox           |
|  \\    /   O peration     | Version:  plus.master                           |
|   \\  /    A nd           | Web:      www.OpenFOAM.com                      |
|    \\/     M anipulation  |                                                 |
\*---------------------------------------------------------------------------*/
FoamFile
{
    version     2.0;
    format      ascii;
    class       volScalarField;
    location    "4.6";
    object      p_rgh;
}
// * * * * * * * * * * * * * * * * * * * * * * * * * * * * * * * * * * * * * //

dimensions      [1 -1 -2 0 0 0 0];

internalField   nonuniform List<scalar> 
47285
(
5701.17
5703.17
5704.11
5704.36
5704.03
5703.31
5701.17
5703.17
5680.24
5683.77
5688.77
5684.56
5681.37
5702.79
5703.34
5685.53
5651.1
5648.98
5651.42
5685.85
5703.05
5703.12
5687.53
5648.91
5645.16
5649.06
5690.87
5702.93
5703
5684.64
5650.99
5650.13
5651.28
5686.17
5702.79
5702.55
5680.75
5684.88
5689.23
5684.51
5681.62
5702.41
5700.66
5702.1
5702.21
5702.2
5702.45
5702.34
5700.63
5691.99
5690.87
5690.22
5690.4
5690.77
5691.5
5692.42
5690.59
5670.1
5673.15
5689.11
5687.1
5677.75
5691.29
5689.25
5684.04
5538.2
5530.25
5546.08
5687.17
5690.3
5688.54
5671.09
5522.44
5513.59
5546.69
5688.04
5689.87
5689
5685.05
5544.63
5529.83
5555.78
5688.2
5690.03
5690.1
5675.99
5681.84
5675.94
5686.86
5681.45
5690.71
5691.35
5689.97
5688.82
5688.43
5689.19
5690.43
5691.7
5685.9
5683.23
5680.99
5680.45
5681.04
5683.04
5685.54
5683.2
5678.37
5663.29
5667.88
5673.19
5678.05
5682.63
5680.75
5672.1
5419.84
5397.71
5450.58
5672.03
5679.84
5679.9
5633.11
5375.97
5366.34
5414.82
5660.17
5678.38
5680.27
5668.73
5422.78
5384.93
5452.71
5670.51
5679.22
5682.37
5677.01
5661.26
5617.61
5669.15
5676.41
5681.67
5684.97
5681.83
5678.7
5676.98
5678.58
5681.48
5684.52
5687.25
5686
5684.85
5684.11
5683.8
5684.74
5686.08
5686.41
5683.82
5673.7
5664.78
5676.61
5681.41
5684.52
5685.84
5680.9
5376.31
5302.45
5413.66
5675.25
5682.86
5686.12
5636.47
5258.82
5249.37
5287.82
5623.65
5681.96
5685.33
5674.6
5352.13
5248.72
5375.23
5671.03
5682.66
5685.87
5682.9
5667.79
5538.07
5667.06
5680.87
5684.17
5686.8
5685.41
5683.82
5682.16
5682.76
5684.27
5685.75
5680.82
5681.42
5681.89
5681.8
5681.39
5681.06
5680.59
5681.71
5681.87
5681.02
5668.48
5679.39
5680.88
5681.21
5682.6
5682.06
5458.75
5254.98
5423.45
5676.77
5681.4
5683.53
5666.3
5179.96
5129.35
5155.44
5596.55
5681.63
5682.55
5679.8
5376.49
5124.93
5326.23
5674.18
5681.38
5681.76
5681.77
5674.16
5496.72
5668.71
5680.85
5681.22
5680.95
5681.56
5681.53
5681.87
5680.98
5681.17
5680.67
5699.95
5699.25
5698.62
5698.14
5697.79
5697.55
5697.41
5697.33
5700.49
5699.58
5698.79
5698.19
5697.76
5697.5
5697.35
5697.27
5700.87
5700.13
5698.95
5698.2
5697.7
5697.42
5697.26
5697.16
5700.96
5700.22
5698.92
5698.16
5697.64
5697.34
5697.2
5697.1
5700.78
5699.98
5698.85
5698.14
5697.62
5697.34
5697.22
5697.14
5700.24
5699.38
5698.64
5698.05
5697.66
5697.41
5697.27
5697.21
5699.58
5698.96
5698.37
5697.91
5697.6
5697.4
5697.28
5697.22
5693.34
5693.91
5694.39
5694.79
5695.14
5695.45
5695.73
5695.99
5692.54
5693.38
5694
5694.51
5694.94
5695.31
5695.64
5695.94
5691.94
5692.97
5693.7
5694.28
5694.76
5695.18
5695.55
5695.88
5691.63
5692.77
5693.54
5694.15
5694.67
5695.11
5695.49
5695.84
5691.7
5692.76
5693.53
5694.14
5694.65
5695.08
5695.47
5695.81
5692.1
5693.01
5693.7
5694.26
5694.73
5695.13
5695.49
5695.81
5692.81
5693.46
5694
5694.46
5694.86
5695.21
5695.52
5695.81
5687.67
5689.11
5690.3
5691.26
5692.05
5692.7
5693.26
5693.78
5685.9
5688
5689.54
5690.75
5691.7
5692.48
5693.13
5693.72
5684.37
5687.06
5688.92
5690.33
5691.42
5692.28
5693
5693.64
5683.59
5686.61
5688.63
5690.12
5691.27
5692.18
5692.94
5693.6
5683.96
5686.74
5688.68
5690.14
5691.27
5692.16
5692.91
5693.57
5685.23
5687.47
5689.13
5690.42
5691.43
5692.26
5692.94
5693.56
5686.93
5688.51
5689.8
5690.85
5691.7
5692.4
5693.01
5693.56
5686.99
5687.69
5688.45
5689.25
5690.12
5691.15
5692.39
5693.87
5686.25
5687.22
5688.04
5688.88
5689.79
5690.86
5692.18
5693.77
5685.59
5686.89
5687.74
5688.59
5689.54
5690.64
5692.01
5693.69
5685.28
5686.81
5687.68
5688.51
5689.46
5690.57
5691.96
5693.66
5685.43
5686.75
5687.63
5688.51
5689.47
5690.59
5691.97
5693.66
5685.98
5686.99
5687.85
5688.74
5689.69
5690.78
5692.13
5693.75
5686.75
5687.52
5688.33
5689.17
5690.08
5691.13
5692.39
5693.89
5679.71
5678.99
5678.37
5677.78
5677.09
5675.99
5674.31
5673.69
5680.54
5679.64
5678.82
5678.11
5677.37
5676.23
5674.4
5673.59
5681.1
5680.14
5679.14
5678.32
5677.53
5676.33
5674.4
5673.46
5681.53
5680.54
5679.4
5678.5
5677.67
5676.44
5674.46
5673.49
5681.11
5680.13
5679.14
5678.33
5677.54
5676.34
5674.41
5673.48
5680.52
5679.64
5678.85
5678.15
5677.41
5676.25
5674.41
5673.61
5679.83
5679.15
5678.55
5677.94
5677.23
5676.09
5674.38
5673.74
5699.63
5698.93
5698.35
5697.91
5697.61
5697.42
5697.3
5697.23
5700.45
5699.34
5698.47
5697.86
5697.46
5697.21
5697.03
5696.96
5700.98
5699.71
5698.64
5698.02
5697.61
5697.33
5697.15
5697.07
5701.06
5699.65
5698.67
5698.04
5697.67
5697.5
5697.38
5697.32
5701.16
5699.93
5698.83
5698.13
5697.74
5697.48
5697.31
5697.22
5700.7
5699.38
5698.56
5697.97
5697.62
5697.38
5697.19
5697.1
5699.91
5699.2
5698.59
5698.14
5697.82
5697.6
5697.45
5697.37
5692.56
5693.3
5693.91
5694.42
5694.85
5695.22
5695.54
5695.83
5691.73
5692.78
5693.57
5694.19
5694.7
5695.14
5695.51
5695.85
5691.16
5692.44
5693.36
5694.08
5694.65
5695.13
5695.53
5695.87
5691.08
5692.38
5693.19
5694.06
5694.73
5695.21
5695.63
5695.99
5691.38
5692.64
5693.53
5694.23
5694.79
5695.25
5695.64
5695.98
5692.12
5693.12
5693.86
5694.45
5694.93
5695.33
5695.69
5696
5693.05
5693.73
5694.28
5694.74
5695.12
5695.46
5695.75
5696.02
5687.32
5688.86
5690.12
5691.15
5691.97
5692.65
5693.24
5693.76
5685.79
5687.94
5689.54
5690.78
5691.75
5692.54
5693.19
5693.78
5684.74
5687.35
5689.2
5690.59
5691.67
5692.53
5693.23
5693.85
5684.69
5687.33
5689.16
5690.64
5691.73
5692.6
5693.31
5693.94
5685.12
5687.65
5689.44
5690.8
5691.85
5692.68
5693.37
5693.98
5686.4
5688.44
5689.96
5691.14
5692.06
5692.81
5693.43
5693.99
5688.02
5689.45
5690.63
5691.58
5692.35
5692.99
5693.53
5694.03
5687.66
5688.33
5689.06
5689.83
5690.68
5691.68
5692.9
5694.35
5687.19
5688
5688.75
5689.53
5690.39
5691.43
5692.72
5694.28
5687.16
5687.99
5688.68
5689.43
5690.28
5691.32
5692.64
5694.27
5687.67
5688.27
5688.84
5689.5
5690.31
5691.32
5692.63
5694.28
5687.44
5688.2
5688.85
5689.56
5690.38
5691.39
5692.7
5694.32
5687.57
5688.31
5688.99
5689.72
5690.54
5691.54
5692.81
5694.35
5687.97
5688.57
5689.25
5689.97
5690.78
5691.75
5692.96
5694.38
5680.13
5679.46
5678.84
5678.21
5677.49
5676.36
5674.65
5673.99
5680.81
5679.91
5679.11
5678.4
5677.64
5676.48
5674.66
5673.83
5681.56
5680.39
5679.4
5678.58
5677.76
5676.54
5674.61
5673.67
5682.16
5680.75
5679.61
5678.69
5677.82
5676.57
5674.59
5673.65
5681.54
5680.38
5679.38
5678.56
5677.75
5676.54
5674.6
5673.66
5680.77
5679.87
5679.07
5678.35
5677.6
5676.46
5674.64
5673.8
5679.96
5679.26
5678.64
5678.03
5677.34
5676.25
5674.57
5673.93
5699.99
5699.24
5698.63
5698.2
5697.9
5697.7
5697.57
5697.5
5700.97
5699.88
5698.92
5698.22
5697.82
5697.54
5697.35
5697.24
5701.7
5700.35
5699.34
5698.63
5698.12
5697.75
5697.51
5697.36
5701.97
5700.57
5699.52
5698.83
5698.38
5698.09
5697.9
5697.78
5701.7
5700.38
5699.32
5698.6
5698.09
5697.72
5697.47
5697.31
5701.12
5699.96
5699.04
5698.35
5697.86
5697.56
5697.39
5697.26
5700.08
5699.34
5698.73
5698.28
5697.97
5697.77
5697.65
5697.59
5693.13
5693.81
5694.36
5694.81
5695.19
5695.52
5695.8
5696.06
5692.46
5693.43
5694.13
5694.67
5695.11
5695.48
5695.79
5696.06
5692.16
5693.3
5694.11
5694.73
5695.22
5695.61
5695.93
5696.2
5692.27
5693.4
5694.22
5694.85
5695.34
5695.74
5696.08
5696.36
5692.41
5693.44
5694.17
5694.74
5695.2
5695.58
5695.89
5696.15
5692.81
5693.65
5694.27
5694.76
5695.16
5695.49
5695.79
5696.05
5693.38
5693.98
5694.46
5694.87
5695.22
5695.53
5695.8
5696.05
5688.06
5689.51
5690.68
5691.63
5692.39
5693.02
5693.56
5694.05
5686.51
5688.57
5690.09
5691.26
5692.17
5692.9
5693.5
5694.05
5685.38
5687.98
5689.78
5691.1
5692.12
5692.91
5693.56
5694.12
5685.03
5687.78
5689.69
5691.08
5692.15
5692.99
5693.68
5694.25
5685.3
5687.86
5689.65
5690.98
5692
5692.79
5693.45
5694.01
5686.32
5688.38
5689.9
5691.08
5692
5692.74
5693.36
5693.92
5687.76
5689.22
5690.41
5691.38
5692.16
5692.81
5693.36
5693.87
5687.91
5688.56
5689.23
5689.94
5690.73
5691.68
5692.86
5694.26
5687.2
5688.01
5688.71
5689.44
5690.25
5691.22
5692.44
5693.93
5686.79
5687.83
5688.55
5689.26
5690.05
5691.01
5692.23
5693.68
5686.48
5687.71
5688.49
5689.21
5689.96
5690.9
5692.18
5693.76
5686.2
5687.4
5688.21
5688.97
5689.81
5690.8
5692.04
5693.52
5686.41
5687.38
5688.18
5688.98
5689.85
5690.87
5692.14
5693.66
5687.06
5687.81
5688.56
5689.35
5690.2
5691.2
5692.42
5693.87
5680.01
5679.41
5678.8
5678.19
5677.49
5676.38
5674.71
5674.1
5680.46
5679.64
5678.89
5678.22
5677.52
5676.41
5674.67
5673.81
5681.07
5680.09
5679.16
5678.41
5677.69
5676.59
5674.82
5674.42
5681.29
5680.34
5679.31
5678.46
5677.63
5676.53
5674.78
5674.59
5680.87
5679.97
5679.05
5678.32
5677.62
5676.53
5674.77
5674.37
5680.28
5679.47
5678.73
5678.09
5677.41
5676.31
5674.57
5673.92
5679.82
5679.22
5678.63
5678.03
5677.34
5676.24
5674.57
5673.99
5699.62
5698.95
5698.37
5697.93
5697.63
5697.45
5697.35
5697.29
5700.48
5699.49
5698.57
5697.96
5697.58
5697.32
5697.15
5697.05
5700.99
5700.01
5698.71
5698.03
5697.61
5697.34
5697.16
5697.06
5700.9
5700.05
5698.82
5698.17
5697.74
5697.47
5697.3
5697.22
5700.69
5700.02
5698.78
5698.13
5697.7
5697.43
5697.27
5697.16
5700.31
5699.45
5698.54
5697.94
5697.52
5697.27
5697.12
5697.04
5699.62
5698.95
5698.34
5697.9
5697.6
5697.4
5697.28
5697.21
5692.74
5693.41
5693.96
5694.43
5694.83
5695.19
5695.51
5695.8
5691.88
5692.85
5693.57
5694.16
5694.64
5695.06
5695.42
5695.75
5691.15
5692.39
5693.27
5693.96
5694.53
5695
5695.4
5695.74
5690.76
5692.19
5693.17
5693.94
5694.55
5695.05
5695.47
5695.82
5690.98
5692.31
5693.24
5693.97
5694.55
5695.04
5695.45
5695.8
5691.62
5692.7
5693.49
5694.12
5694.63
5695.06
5695.43
5695.76
5692.54
5693.29
5693.89
5694.4
5694.83
5695.2
5695.52
5695.81
5686.88
5688.47
5689.77
5690.83
5691.69
5692.4
5693.01
5693.56
5685.06
5687.33
5689.02
5690.34
5691.38
5692.21
5692.91
5693.53
5683.52
5686.44
5688.48
5690.01
5691.19
5692.13
5692.89
5693.55
5682.88
5686.23
5688.41
5689.99
5691.21
5692.16
5692.94
5693.6
5683.68
5686.61
5688.64
5690.15
5691.32
5692.24
5692.99
5693.64
5685.33
5687.58
5689.24
5690.54
5691.55
5692.36
5693.04
5693.64
5687.22
5688.79
5690.06
5691.09
5691.92
5692.61
5693.19
5693.72
5686.75
5687.55
5688.38
5689.23
5690.15
5691.21
5692.48
5693.98
5686.02
5687.04
5687.92
5688.82
5689.78
5690.89
5692.25
5693.88
5685.54
5686.84
5687.74
5688.65
5689.63
5690.77
5692.18
5693.87
5685.81
5687.29
5688.01
5688.78
5689.69
5690.79
5692.17
5693.84
5686.1
5687.22
5688.05
5688.9
5689.85
5690.96
5692.34
5694
5686.75
5687.63
5688.42
5689.25
5690.15
5691.22
5692.53
5694.12
5687.53
5688.24
5688.99
5689.76
5690.62
5691.63
5692.86
5694.31
5679.84
5679.22
5678.64
5678.04
5677.35
5676.22
5674.52
5673.89
5680.43
5679.61
5678.87
5678.22
5677.52
5676.41
5674.62
5673.85
5680.86
5680
5679.11
5678.38
5677.64
5676.49
5674.62
5673.81
5681.96
5680.8
5679.55
5678.61
5677.78
5676.58
5674.68
5673.92
5681.17
5680.2
5679.24
5678.49
5677.73
5676.57
5674.69
5673.87
5680.68
5679.84
5679.08
5678.4
5677.68
5676.55
5674.75
5673.96
5680.08
5679.44
5678.84
5678.23
5677.52
5676.39
5674.69
5674.04
5697.3
5697.28
5697.16
5697.07
5697.14
5697.21
5697.2
5696.25
5696.23
5696.18
5696.15
5696.12
5696.11
5696.09
5694.29
5694.27
5694.23
5694.2
5694.17
5694.14
5694.1
5695.3
5695.28
5695.28
5695.27
5695.26
5695.3
5695.35
5677.9
5678
5678.02
5678.1
5678.05
5678.03
5677.94
5697.21
5696.97
5697.06
5697.33
5697.21
5697.13
5697.32
5696.11
5696.15
5696.17
5696.28
5696.27
5696.29
5696.27
5694.28
5694.31
5694.41
5694.51
5694.53
5694.51
5694.52
5695.74
5695.75
5695.8
5695.81
5695.84
5695.81
5695.74
5678.12
5678.18
5678.2
5678.32
5678.19
5678.14
5678.06
5697.47
5697.21
5697.29
5697.73
5697.23
5697.23
5697.55
5696.3
5696.3
5696.42
5696.58
5696.37
5696.29
5696.29
5694.53
5694.54
5694.6
5694.69
5694.5
5694.42
5694.37
5695.61
5695.3
5694.95
5695.07
5694.84
5695.08
5695.27
5678.26
5678.14
5679.39
5680.63
5679.89
5678.42
5678.2
5697.26
5697.04
5697.03
5697.21
5697.13
5697.04
5697.19
5696.08
5696.04
5696.04
5696.12
5696.09
5696.06
5696.09
5694.11
5694.1
5694.13
5694.17
5694.21
5694.19
5694.24
5695.44
5695.41
5695.41
5695.37
5695.53
5695.62
5695.7
5678.06
5678.23
5678.53
5678.84
5678.57
5678.3
5678.17
5697.28
5697.35
5697.47
5697.62
5697.77
5697.9
5698.02
5698.1
5697.36
5697.42
5697.52
5697.67
5697.81
5697.94
5698.05
5698.13
5697.27
5697.41
5697.52
5697.64
5697.79
5697.92
5698.03
5698.11
5697.16
5697.37
5697.54
5697.7
5697.81
5697.92
5698.03
5698.1
5697.21
5697.38
5697.51
5697.61
5697.76
5697.89
5698
5698.08
5697.26
5697.33
5697.45
5697.6
5697.75
5697.87
5697.98
5698.06
5697.19
5697.27
5697.39
5697.54
5697.68
5697.82
5697.92
5698
5696.64
5696.99
5697.26
5697.48
5697.66
5697.81
5697.93
5698.02
5696.64
5697.01
5697.3
5697.52
5697.71
5697.86
5697.98
5698.07
5696.6
5697
5697.29
5697.52
5697.71
5697.86
5697.98
5698.06
5696.58
5697
5697.31
5697.54
5697.72
5697.87
5697.98
5698.07
5696.56
5696.96
5697.26
5697.49
5697.68
5697.83
5697.95
5698.03
5696.54
5696.93
5697.23
5697.47
5697.65
5697.8
5697.92
5698.01
5696.51
5696.89
5697.18
5697.41
5697.59
5697.74
5697.86
5697.94
5695.09
5696.02
5696.69
5697.16
5697.48
5697.71
5697.87
5697.98
5695.1
5696.03
5696.72
5697.2
5697.54
5697.77
5697.93
5698.04
5695.08
5696.01
5696.7
5697.2
5697.54
5697.77
5697.93
5698.04
5695.06
5696
5696.7
5697.2
5697.54
5697.78
5697.94
5698.04
5695.03
5695.97
5696.67
5697.17
5697.51
5697.75
5697.91
5698.01
5695.01
5695.95
5696.65
5697.14
5697.49
5697.72
5697.88
5697.99
5694.96
5695.9
5696.6
5697.09
5697.42
5697.65
5697.81
5697.91
5696.81
5697.15
5697.35
5697.52
5697.66
5697.78
5697.88
5697.96
5696.84
5697.22
5697.43
5697.6
5697.75
5697.87
5697.96
5698.04
5696.84
5697.24
5697.46
5697.63
5697.77
5697.88
5697.98
5698.04
5696.85
5697.26
5697.48
5697.65
5697.79
5697.9
5697.99
5698.06
5696.84
5697.24
5697.46
5697.63
5697.77
5697.87
5697.96
5698.03
5696.86
5697.25
5697.46
5697.62
5697.75
5697.86
5697.95
5698.01
5696.86
5697.22
5697.41
5697.56
5697.68
5697.78
5697.86
5697.93
5687.27
5692.68
5695.13
5696.38
5697.08
5697.48
5697.72
5697.87
5687.28
5692.7
5695.17
5696.45
5697.16
5697.56
5697.81
5697.95
5687.26
5692.69
5695.16
5696.44
5697.15
5697.56
5697.81
5697.95
5687.3
5692.71
5695.18
5696.46
5697.17
5697.58
5697.83
5697.97
5687.27
5692.69
5695.16
5696.44
5697.14
5697.55
5697.79
5697.94
5687.27
5692.69
5695.16
5696.43
5697.14
5697.55
5697.79
5697.93
5687.24
5692.66
5695.11
5696.38
5697.07
5697.47
5697.7
5697.84
5697.19
5697.27
5697.4
5697.54
5697.67
5697.79
5697.88
5697.95
5697.11
5697.26
5697.39
5697.54
5697.67
5697.78
5697.86
5697.91
5697.1
5697.2
5697.32
5697.45
5697.56
5697.66
5697.7
5697.71
5697.37
5697.44
5697.54
5697.62
5697.67
5697.73
5697.79
5697.82
5697.24
5697.33
5697.44
5697.55
5697.64
5697.71
5697.75
5697.76
5697.24
5697.35
5697.47
5697.61
5697.76
5697.88
5697.96
5698.01
5697.28
5697.35
5697.48
5697.63
5697.77
5697.9
5697.99
5698.06
5696.53
5696.9
5697.17
5697.38
5697.54
5697.67
5697.77
5697.84
5696.59
5696.97
5697.24
5697.44
5697.59
5697.7
5697.78
5697.84
5696.59
5696.96
5697.22
5697.4
5697.53
5697.6
5697.62
5697.61
5696.68
5697.05
5697.31
5697.48
5697.6
5697.67
5697.71
5697.74
5696.67
5697.03
5697.28
5697.46
5697.58
5697.65
5697.68
5697.67
5696.7
5697.07
5697.33
5697.53
5697.68
5697.78
5697.86
5697.92
5696.65
5697
5697.26
5697.46
5697.62
5697.75
5697.86
5697.93
5695.07
5695.98
5696.64
5697.09
5697.39
5697.59
5697.72
5697.8
5695.1
5696.01
5696.66
5697.1
5697.39
5697.59
5697.71
5697.79
5695.21
5696.07
5696.69
5697.11
5697.36
5697.51
5697.53
5697.32
5695.31
5696.12
5696.74
5697.15
5697.39
5697.53
5697.59
5697.6
5695.32
5696.16
5696.77
5697.17
5697.42
5697.56
5697.58
5697.42
5695.27
5696.15
5696.77
5697.19
5697.47
5697.66
5697.78
5697.86
5695.3
5696.15
5696.76
5697.18
5697.47
5697.66
5697.79
5697.88
5697.17
5697.37
5697.47
5697.56
5697.64
5697.71
5697.77
5697.82
5697.2
5697.41
5697.5
5697.58
5697.64
5697.69
5697.74
5697.77
5697.24
5697.49
5697.57
5697.63
5697.68
5697.7
5697.35
5697.23
5697.27
5697.58
5697.64
5697.68
5697.7
5697.69
5697.63
5697.5
5697.27
5697.51
5697.59
5697.66
5697.72
5697.75
5697.44
5697.3
5697.22
5697.41
5697.5
5697.59
5697.66
5697.72
5697.78
5697.82
5697.13
5697.31
5697.43
5697.54
5697.64
5697.73
5697.81
5697.87
5687.35
5692.72
5695.14
5696.38
5697.05
5697.43
5697.65
5697.78
5687.35
5692.71
5695.12
5696.35
5697
5697.36
5697.55
5697.65
5687.35
5692.74
5695.19
5696.44
5697.11
5697.49
5697.58
5697.55
5687.44
5692.81
5695.24
5696.46
5697.09
5697.41
5697.44
5696.75
5687.36
5692.76
5695.21
5696.47
5697.15
5697.53
5697.66
5697.61
5687.37
5692.74
5695.16
5696.38
5697.04
5697.4
5697.6
5697.71
5687.39
5692.75
5695.17
5696.4
5697.08
5697.46
5697.69
5697.82
5697.43
5697.45
5697.55
5697.66
5697.77
5697.88
5697.98
5698.06
5697.29
5697.4
5697.5
5697.6
5697.68
5697.76
5697.84
5697.91
5697.25
5697.27
5697.35
5697.46
5697.55
5697.62
5697.66
5697.69
5697.67
5697.64
5697.67
5697.72
5697.76
5697.79
5697.82
5697.87
5697.18
5697.2
5697.3
5697.41
5697.51
5697.59
5697.64
5697.68
5697.26
5697.37
5697.48
5697.57
5697.67
5697.75
5697.83
5697.89
5697.49
5697.49
5697.57
5697.67
5697.77
5697.88
5697.97
5698.05
5696.67
5697
5697.25
5697.44
5697.6
5697.73
5697.83
5697.92
5696.65
5696.99
5697.23
5697.4
5697.53
5697.64
5697.73
5697.81
5696.71
5696.99
5697.19
5697.34
5697.44
5697.52
5697.56
5697.59
5696.86
5697.13
5697.31
5697.46
5697.57
5697.65
5697.71
5697.76
5696.66
5696.94
5697.15
5697.3
5697.41
5697.49
5697.55
5697.59
5696.62
5696.96
5697.2
5697.38
5697.52
5697.63
5697.73
5697.81
5696.65
5696.99
5697.25
5697.45
5697.61
5697.75
5697.86
5697.95
5695.27
5696.1
5696.7
5697.12
5697.4
5697.61
5697.75
5697.86
5695.27
5696.02
5696.58
5696.98
5697.26
5697.46
5697.61
5697.71
5695.31
5695.98
5696.48
5696.83
5697.09
5697.28
5697.43
5697.28
5695.42
5696.11
5696.61
5696.96
5697.25
5697.42
5697.52
5697.56
5695.22
5695.9
5696.4
5696.77
5697.04
5697.23
5697.39
5697.24
5695.17
5695.92
5696.52
5696.93
5697.23
5697.44
5697.59
5697.71
5695.15
5696.01
5696.65
5697.09
5697.4
5697.63
5697.79
5697.9
5696.99
5697.19
5697.31
5697.44
5697.56
5697.66
5697.76
5697.84
5696.67
5696.95
5697.05
5697.16
5697.28
5697.38
5697.47
5697.62
5696.33
5696.77
5696.98
5697.14
5697.14
5696.41
5696.53
5696.88
5696.44
5696.89
5697.06
5697.16
5697.31
5697.36
5697.41
5696.86
5696.25
5696.69
5696.9
5697.07
5697.21
5696.69
5696.64
5696.76
5696.51
5696.87
5696.99
5697.13
5697.26
5697.38
5697.49
5697.62
5696.73
5697.06
5697.25
5697.41
5697.56
5697.69
5697.8
5697.89
5687.52
5692.8
5695.16
5696.36
5697.02
5697.4
5697.63
5697.77
5687.2
5692.59
5694.76
5695.81
5696.32
5696.52
5696.87
5697.47
5685.79
5689.15
5691.19
5692.13
5692.87
5696.42
5697.36
5697.57
5689.24
5693.67
5695.56
5695.74
5694.15
5694.25
5695.48
5696.9
5687.28
5689.13
5691.16
5692.06
5692.73
5696.69
5697.22
5697.44
5687.39
5692.52
5694.75
5695.8
5696.27
5696.46
5696.82
5697.45
5687.47
5692.76
5695.14
5696.36
5697.03
5697.42
5697.67
5697.82
5697.24
5697.3
5697.41
5697.54
5697.66
5697.77
5697.87
5697.94
5697.12
5697.21
5697.32
5697.45
5697.57
5697.67
5697.74
5697.8
5697.03
5697.09
5697.2
5697.32
5697.42
5697.5
5697.55
5697.57
5697.23
5697.27
5697.34
5697.42
5697.49
5697.56
5697.61
5697.67
5697.12
5697.16
5697.26
5697.36
5697.46
5697.53
5697.57
5697.57
5697.08
5697.18
5697.32
5697.45
5697.58
5697.68
5697.76
5697.82
5697.18
5697.25
5697.37
5697.51
5697.64
5697.76
5697.85
5697.92
5696.5
5696.87
5697.15
5697.37
5697.54
5697.68
5697.78
5697.86
5696.46
5696.84
5697.12
5697.32
5697.47
5697.58
5697.67
5697.73
5696.44
5696.82
5697.07
5697.24
5697.36
5697.43
5697.47
5697.48
5696.5
5696.85
5697.1
5697.26
5697.37
5697.46
5697.52
5697.57
5696.48
5696.86
5697.1
5697.28
5697.39
5697.45
5697.48
5697.49
5696.48
5696.86
5697.13
5697.33
5697.47
5697.59
5697.67
5697.74
5696.51
5696.87
5697.14
5697.35
5697.51
5697.64
5697.74
5697.81
5694.95
5695.89
5696.57
5697.05
5697.37
5697.59
5697.74
5697.84
5694.94
5695.83
5696.49
5696.95
5697.25
5697.46
5697.59
5697.68
5694.96
5695.77
5696.42
5696.85
5697.12
5697.24
5697.21
5697.21
5694.99
5695.79
5696.37
5696.77
5697.04
5697.21
5697.31
5697.38
5695.02
5695.82
5696.47
5696.89
5697.15
5697.29
5697.28
5697.29
5694.99
5695.88
5696.52
5696.97
5697.27
5697.46
5697.59
5697.68
5695.03
5695.95
5696.6
5697.05
5697.36
5697.56
5697.7
5697.78
5696.93
5697.26
5697.43
5697.56
5697.66
5697.75
5697.83
5697.88
5696.9
5697.21
5697.34
5697.44
5697.51
5697.57
5697.62
5697.66
5696.95
5697.35
5697.45
5697.5
5697.51
5696.78
5696.46
5696.55
5696.93
5697.31
5697.43
5697.44
5697.35
5697.3
5697.3
5697.21
5697.04
5697.41
5697.49
5697.54
5697.57
5697.12
5696.29
5696.46
5697.06
5697.3
5697.39
5697.45
5697.51
5697.56
5697.61
5697.65
5697.13
5697.35
5697.45
5697.55
5697.63
5697.7
5697.77
5697.82
5687.32
5692.7
5695.14
5696.4
5697.09
5697.49
5697.72
5697.85
5687.39
5692.69
5695.07
5696.27
5696.91
5697.25
5697.43
5697.53
5687.58
5692.84
5695.23
5696.44
5696.82
5696.21
5696.5
5697.74
5687.77
5692.94
5695.25
5696.37
5696.3
5694.04
5693.93
5696.57
5687.61
5692.86
5695.24
5696.46
5697.05
5696.33
5695.99
5697.62
5687.43
5692.72
5695.09
5696.29
5696.92
5697.26
5697.44
5697.54
5687.38
5692.73
5695.14
5696.37
5697.05
5697.43
5697.65
5697.77
5698.15
5698.18
5698.2
5698.21
5698.22
5698.22
5698.22
5698.21
5698.17
5698.2
5698.22
5698.24
5698.24
5698.25
5698.25
5698.24
5698.16
5698.19
5698.21
5698.22
5698.23
5698.24
5698.23
5698.23
5698.15
5698.18
5698.2
5698.21
5698.22
5698.23
5698.22
5698.22
5698.12
5698.15
5698.17
5698.19
5698.19
5698.2
5698.2
5698.19
5698.1
5698.13
5698.15
5698.17
5698.17
5698.18
5698.18
5698.17
5698.05
5698.07
5698.09
5698.11
5698.11
5698.12
5698.12
5698.11
5698.08
5698.11
5698.14
5698.16
5698.17
5698.17
5698.17
5698.17
5698.12
5698.15
5698.18
5698.2
5698.21
5698.21
5698.21
5698.21
5698.12
5698.15
5698.17
5698.19
5698.2
5698.21
5698.21
5698.2
5698.11
5698.15
5698.17
5698.19
5698.2
5698.2
5698.2
5698.2
5698.08
5698.11
5698.14
5698.16
5698.17
5698.17
5698.17
5698.17
5698.06
5698.09
5698.12
5698.13
5698.14
5698.15
5698.15
5698.14
5697.99
5698.02
5698.05
5698.07
5698.08
5698.08
5698.08
5698.08
5698.04
5698.08
5698.11
5698.13
5698.14
5698.14
5698.14
5698.14
5698.09
5698.13
5698.16
5698.18
5698.19
5698.19
5698.19
5698.19
5698.09
5698.13
5698.16
5698.18
5698.19
5698.19
5698.19
5698.18
5698.1
5698.14
5698.16
5698.18
5698.19
5698.19
5698.19
5698.19
5698.07
5698.1
5698.13
5698.15
5698.16
5698.16
5698.16
5698.15
5698.04
5698.08
5698.11
5698.13
5698.14
5698.14
5698.14
5698.13
5697.97
5698
5698.03
5698.05
5698.06
5698.06
5698.06
5698.06
5698.01
5698.04
5698.06
5698.08
5698.09
5698.1
5698.1
5698.09
5698.08
5698.11
5698.14
5698.15
5698.16
5698.16
5698.16
5698.16
5698.09
5698.12
5698.14
5698.15
5698.16
5698.16
5698.16
5698.16
5698.1
5698.13
5698.15
5698.16
5698.17
5698.17
5698.17
5698.17
5698.07
5698.09
5698.11
5698.13
5698.14
5698.14
5698.14
5698.13
5698.05
5698.08
5698.1
5698.11
5698.12
5698.12
5698.12
5698.12
5697.96
5697.99
5698.01
5698.02
5698.03
5698.04
5698.03
5698.03
5697.95
5697.99
5698.03
5698.05
5698.07
5698.08
5698.08
5698.08
5698.03
5698.07
5698.1
5698.13
5698.14
5698.15
5698.15
5698.15
5698.03
5698.07
5698.1
5698.12
5698.14
5698.15
5698.15
5698.14
5698.04
5698.08
5698.12
5698.14
5698.15
5698.16
5698.16
5698.16
5698.01
5698.05
5698.08
5698.1
5698.12
5698.12
5698.12
5698.12
5698
5698.05
5698.08
5698.1
5698.11
5698.12
5698.12
5698.12
5697.91
5697.95
5697.98
5698
5698.01
5698.02
5698.02
5698.02
5697.99
5698.01
5698.02
5698.03
5698.04
5698.04
5698.03
5698.03
5697.94
5697.95
5697.96
5697.96
5697.94
5697.93
5697.87
5697.84
5697.71
5697.71
5697.71
5697.71
5697.71
5697.72
5697.73
5697.78
5697.86
5697.89
5697.91
5697.94
5697.96
5697.96
5697.97
5698.02
5697.76
5697.75
5697.74
5697.74
5697.75
5697.76
5697.77
5697.82
5698.03
5698.05
5698.05
5698.05
5698.04
5698.03
5697.96
5697.92
5698.1
5698.13
5698.14
5698.15
5698.16
5698.15
5698.15
5698.14
5697.88
5697.91
5697.93
5697.94
5697.95
5697.96
5697.96
5697.95
5697.87
5697.9
5697.92
5697.93
5697.94
5697.95
5697.92
5697.85
5697.59
5697.59
5697.59
5697.57
5697.55
5697.58
5697.6
5697.63
5697.77
5697.78
5697.79
5697.79
5697.81
5697.83
5697.85
5697.89
5697.65
5697.64
5697.61
5697.58
5697.58
5697.61
5697.62
5697.64
5697.96
5697.98
5698
5698.02
5698.03
5698.03
5698.01
5697.95
5697.98
5698
5698.03
5698.05
5698.06
5698.06
5698.06
5698.06
5697.84
5697.87
5697.89
5697.91
5697.91
5697.92
5697.91
5697.91
5697.83
5697.86
5697.89
5697.91
5697.92
5697.93
5697.94
5697.93
5697.23
5697.38
5697.45
5697.21
5696.92
5696.85
5697.18
5696.74
5697.6
5697.63
5697.64
5697.6
5697.58
5697.33
5697.69
5697.68
5697.37
5697.46
5697.34
5697.1
5696.87
5696.77
5696.89
5696.43
5697.9
5697.93
5697.96
5697.98
5697.99
5698
5698.01
5698.01
5697.93
5697.96
5697.98
5698
5698.01
5698.01
5698.01
5698
5697.85
5697.87
5697.88
5697.89
5697.9
5697.9
5697.9
5697.89
5697.79
5697.8
5697.82
5697.83
5697.83
5697.84
5697.84
5697.84
5697.19
5697.52
5697.59
5697.54
5697.05
5695.47
5695.2
5695.15
5697.46
5697.52
5697.58
5697.57
5697.52
5696.84
5696.7
5697.35
5697.29
5697.59
5697.72
5697.7
5697.53
5696.25
5695.77
5695.77
5697.84
5697.86
5697.88
5697.89
5697.89
5697.9
5697.9
5697.9
5697.91
5697.94
5697.96
5697.97
5697.98
5697.98
5697.98
5697.98
5697.84
5697.88
5697.9
5697.92
5697.93
5697.94
5697.94
5697.94
5697.7
5697.72
5697.74
5697.75
5697.74
5697.74
5697.74
5697.75
5697.82
5697.83
5697.81
5697.79
5697.25
5695.53
5694.84
5694.84
5696.83
5697.4
5697.48
5697.39
5697.41
5696.66
5695.6
5695.86
5697.86
5697.92
5697.92
5697.76
5697.38
5696.81
5695.81
5695.55
5697.75
5697.78
5697.8
5697.81
5697.81
5697.8
5697.8
5697.81
5697.89
5697.94
5697.97
5697.99
5698
5698.01
5698.01
5698.01
5698.11
5698.14
5698.16
5698.17
5698.17
5698.18
5698.17
5698.16
5697.96
5697.99
5698.01
5698.03
5698.04
5698.04
5698.04
5698.04
5697.7
5697.71
5697.71
5697.71
5697.71
5697.7
5697.7
5697.61
5697.9
5697.92
5697.95
5697.98
5697.99
5697.96
5697.95
5697.93
5697.69
5697.71
5697.72
5697.72
5697.73
5697.73
5697.73
5697.65
5697.94
5697.97
5698
5698.01
5698.03
5698.03
5698.04
5698.04
5698.1
5698.13
5698.15
5698.17
5698.18
5698.18
5698.18
5698.18
5697.97
5698.01
5698.03
5698.06
5698.07
5698.08
5698.08
5698.07
5697.86
5697.89
5697.92
5697.95
5697.96
5697.97
5697.97
5697.97
5697.61
5697.62
5697.63
5697.64
5697.62
5697.37
5697.22
5697.17
5697.79
5697.81
5697.83
5697.84
5697.85
5697.81
5697.72
5697.61
5697.61
5697.64
5697.65
5697.67
5697.63
5697.47
5697.35
5697.34
5697.86
5697.9
5697.93
5697.95
5697.97
5697.98
5697.98
5697.98
5698.01
5698.04
5698.08
5698.1
5698.11
5698.12
5698.12
5698.12
5697.92
5697.96
5697.99
5698.01
5698.03
5698.03
5698.03
5698.03
5697.77
5697.81
5697.85
5697.87
5697.89
5697.9
5697.9
5697.89
5696.97
5697.02
5697.07
5697.14
5697.7
5697.77
5697.33
5697.11
5697.5
5697.55
5697.55
5697.53
5697.6
5697.51
5697.46
5697.51
5697.11
5697.17
5697.21
5697.48
5697.77
5697.7
5697.56
5697.54
5697.77
5697.82
5697.85
5697.88
5697.9
5697.91
5697.91
5697.91
5697.97
5698.01
5698.04
5698.07
5698.08
5698.09
5698.09
5698.09
5697.89
5697.93
5697.96
5697.98
5697.99
5698
5698
5697.99
5697.67
5697.71
5697.73
5697.75
5697.76
5697.77
5697.77
5697.77
5697.84
5697.77
5697.3
5697.5
5697.99
5697.98
5697.85
5697.76
5696.79
5696.77
5697.09
5697.26
5697.24
5697.34
5697.33
5697.35
5697.59
5697.78
5697.67
5697.57
5697.84
5697.84
5697.77
5697.73
5697.68
5697.72
5697.75
5697.78
5697.79
5697.8
5697.8
5697.8
5697.95
5697.99
5698.02
5698.04
5698.05
5698.06
5698.06
5698.05
5697.85
5697.9
5697.94
5697.96
5697.98
5697.99
5697.99
5697.99
5697.59
5697.65
5697.69
5697.72
5697.74
5697.75
5697.76
5697.76
5697.72
5697.67
5697.47
5697.47
5697.8
5697.61
5697.61
5697.61
5696.7
5696.38
5696.82
5697.02
5697.01
5697.16
5697.17
5697.18
5697.58
5697.36
5697.28
5697.5
5697.58
5697.45
5697.45
5697.44
5697.58
5697.64
5697.69
5697.73
5697.75
5697.76
5697.77
5697.77
5697.9
5697.96
5698
5698.02
5698.04
5698.05
5698.05
5698.05
5697.98
5698.01
5698.03
5698.04
5698.05
5698.05
5698.05
5698.05
5697.83
5697.85
5697.86
5697.87
5697.86
5697.85
5697.83
5697.81
5697.59
5697.59
5697.6
5697.6
5697.61
5697.62
5697.63
5697.66
5697.7
5697.73
5697.76
5697.79
5697.82
5697.81
5697.82
5697.87
5697.58
5697.58
5697.58
5697.58
5697.59
5697.59
5697.61
5697.64
5697.85
5697.87
5697.89
5697.89
5697.88
5697.86
5697.84
5697.82
5697.96
5697.99
5698.01
5698.02
5698.02
5698.02
5698.02
5698.01
5697.91
5697.94
5697.96
5697.98
5697.99
5698
5698
5697.99
5697.78
5697.8
5697.83
5697.84
5697.86
5697.87
5697.87
5697.85
5697.49
5697.48
5697.47
5697.46
5697.46
5697.49
5697.5
5697.53
5697.6
5697.61
5697.62
5697.66
5697.67
5697.68
5697.71
5697.74
5697.48
5697.47
5697.45
5697.45
5697.46
5697.46
5697.47
5697.24
5697.78
5697.81
5697.83
5697.85
5697.87
5697.88
5697.88
5697.88
5697.86
5697.89
5697.91
5697.93
5697.94
5697.94
5697.94
5697.94
5697.89
5697.92
5697.95
5697.96
5697.97
5697.98
5697.98
5697.97
5697.73
5697.76
5697.79
5697.81
5697.82
5697.83
5697.83
5697.83
5697.31
5697.3
5697.11
5696.82
5696.7
5696.87
5697.07
5696.46
5697.41
5697.4
5697.37
5697.29
5697.3
5697.25
5697.46
5697.47
5697.33
5697.23
5697.04
5696.87
5696.79
5696.64
5696.56
5696.26
5697.73
5697.76
5697.78
5697.8
5697.82
5697.83
5697.83
5697.83
5697.83
5697.86
5697.89
5697.9
5697.91
5697.92
5697.92
5697.91
5697.92
5697.94
5697.96
5697.97
5697.98
5697.98
5697.98
5697.97
5697.69
5697.7
5697.72
5697.73
5697.73
5697.74
5697.74
5697.74
5697.45
5697.56
5697.52
5697.48
5696.74
5695.45
5695.28
5695.23
5697.24
5697.32
5697.33
5697.27
5697.15
5696.3
5696.51
5696.9
5697.37
5697.66
5697.66
5697.64
5697.46
5696.68
5695.99
5695.99
5697.68
5697.7
5697.71
5697.72
5697.72
5697.73
5697.74
5697.73
5697.85
5697.87
5697.89
5697.9
5697.91
5697.91
5697.91
5697.9
5697.92
5697.96
5697.99
5698.01
5698.02
5698.02
5698.02