/*--------------------------------*- C++ -*----------------------------------*\
| =========                 |                                                 |
| \\      /  F ield         | OpenFOAM: The Open Source CFD Toolbox           |
|  \\    /   O peration     | Version:  plus.master.MPPICInterFoam            |
|   \\  /    A nd           | Web:      www.OpenFOAM.com                      |
|    \\/     M anipulation  |                                                 |
\*---------------------------------------------------------------------------*/
FoamFile
{
    version     2.0;
    format      ascii;
    class       surfaceScalarField;
    location    "5.2";
    object      alphaPhi;
}
// * * * * * * * * * * * * * * * * * * * * * * * * * * * * * * * * * * * * * //

dimensions      [0 3 -1 0 0 0 0];

internalField   nonuniform List<scalar> 
34004
(
1.14499e-08
9.05083e-08
-1.63011e-06
-1.08519e-07
2.04866e-08
8.26435e-08
-2.00237e-06
-9.92277e-08
2.75987e-08
7.79864e-08
-2.30715e-06
-9.39668e-08
3.29376e-08
7.45984e-08
-2.60472e-06
-9.02439e-08
3.64878e-08
7.16018e-08
-2.90621e-06
-8.70132e-08
3.81812e-08
6.87915e-08
-3.21492e-06
-8.4001e-08
3.79363e-08
6.61283e-08
-3.5319e-06
-8.11346e-08
6.36122e-08
-3.85661e-06
-7.84342e-08
3.5707e-08
1.62711e-08
6.36242e-08
-1.6471e-06
2.86034e-08
5.82078e-08
-2.02207e-06
3.79423e-08
5.4781e-08
-2.32975e-06
4.4676e-08
5.22174e-08
-2.63025e-06
4.89258e-08
4.9919e-08
-2.93473e-06
5.07464e-08
4.77638e-08
-3.24651e-06
5.01681e-08
4.57428e-08
-3.56663e-06
4.38857e-08
-3.89462e-06
4.71724e-08
1.78353e-08
3.27411e-08
-1.65867e-06
3.11427e-08
2.99753e-08
-2.03557e-06
4.0867e-08
2.81611e-08
-2.34501e-06
4.75197e-08
2.67609e-08
-2.64716e-06
5.13467e-08
2.54624e-08
-2.95321e-06
5.25294e-08
2.42198e-08
-3.26647e-06
5.12162e-08
2.30486e-08
-3.58798e-06
2.19707e-08
-3.91728e-06
4.75241e-08
1.85455e-08
-1.59825e-10
-1.66505e-06
3.22205e-08
-1.43862e-10
-2.04305e-06
4.21224e-08
-2.39215e-10
-2.35342e-06
4.88388e-08
-3.97502e-10
-2.65644e-06
5.26657e-08
-6.18536e-10
-2.96332e-06
5.38236e-08
-8.60735e-10
-3.27737e-06
5.24861e-08
-1.08078e-09
-3.59967e-06
-1.24604e-09
-3.92976e-06
4.87587e-08
1.71711e-08
-3.2187e-08
-1.6658e-06
2.96349e-08
-2.96403e-08
-2.04404e-06
3.84966e-08
-2.81922e-08
-2.35437e-06
4.43973e-08
-2.73145e-08
-2.65726e-06
4.76771e-08
-2.66893e-08
-2.96391e-06
4.85799e-08
-2.6183e-08
-3.27765e-06
4.72837e-08
-2.57157e-08
-3.59959e-06
-2.52469e-08
-3.92928e-06
4.39006e-08
1.51471e-08
-6.19806e-08
-1.66192e-06
2.5853e-08
-5.70893e-08
-2.03944e-06
3.34684e-08
-5.45173e-08
-2.3489e-06
3.86375e-08
-5.30204e-08
-2.65086e-06
4.16873e-08
-5.19439e-08
-2.95652e-06
4.28275e-08
-5.10385e-08
-3.26922e-06
4.21766e-08
-5.01651e-08
-3.59008e-06
-4.9225e-08
-3.91871e-06
3.97292e-08
8.57744e-09
-1.65217e-06
-8.41044e-08
1.38486e-08
-2.02822e-06
-7.78662e-08
1.69439e-08
-2.33552e-06
-7.48659e-08
1.85424e-08
-2.63501e-06
-7.34601e-08
1.9064e-08
-2.93782e-06
-7.272e-08
1.88333e-08
-3.24733e-06
-7.23051e-08
1.80416e-08
-3.56467e-06
-7.198e-08
-3.8895e-06
-7.16242e-08
1.6788e-08
9.0883e-09
7.30559e-08
-1.62524e-06
-8.71072e-08
1.64193e-08
6.67094e-08
-1.99682e-06
-7.96287e-08
2.2191e-08
6.30874e-08
-2.30055e-06
-7.54729e-08
2.65387e-08
6.05281e-08
-2.59697e-06
-7.26054e-08
2.94513e-08
5.83112e-08
-2.8972e-06
-7.018e-08
3.08747e-08
5.62529e-08
-3.20456e-06
-6.79625e-08
3.07437e-08
5.43042e-08
-3.52011e-06
-6.58763e-08
5.24494e-08
-3.84333e-06
-6.39206e-08
2.90175e-08
1.34408e-08
5.15173e-08
-1.63907e-06
2.3837e-08
4.71246e-08
-2.0129e-06
3.18255e-08
4.44802e-08
-2.31912e-06
3.77008e-08
4.25619e-08
-2.61811e-06
4.15278e-08
4.08728e-08
-2.92101e-06
4.33089e-08
3.92996e-08
-3.23117e-06
4.30237e-08
3.78233e-08
-3.54964e-06
3.64592e-08
-3.87591e-06
4.06226e-08
1.513e-08
2.62517e-08
-1.64862e-06
2.66834e-08
2.40367e-08
-2.02407e-06
3.53068e-08
2.26822e-08
-2.33184e-06
4.13896e-08
2.16731e-08
-2.63233e-06
4.50824e-08
2.07488e-08
-2.93672e-06
4.64751e-08
1.98634e-08
-3.24833e-06
4.56326e-08
1.90228e-08
-3.56821e-06
1.82399e-08
-3.89587e-06
4.2605e-08
1.60099e-08
-1.02425e-09
-1.65386e-06
2.81211e-08
-9.05266e-10
-2.03024e-06
3.7105e-08
-8.6876e-10
-2.33884e-06
4.34155e-08
-8.96462e-10
-2.64014e-06
4.72381e-08
-9.83407e-10
-2.94532e-06
4.86867e-08
-1.09996e-09
-3.25772e-06
4.78386e-08
-1.21123e-09
-3.57841e-06
-1.29049e-09
-3.9069e-06
4.47328e-08
1.49562e-08
-2.75611e-08
-1.65429e-06
2.61523e-08
-2.5306e-08
-2.03083e-06
3.43411e-08
-2.40097e-08
-2.33939e-06
4.00093e-08
-2.32017e-08
-2.64056e-06
4.33776e-08
-2.26166e-08
-2.94555e-06
4.45839e-08
-2.21433e-08
-3.25768e-06
4.37195e-08
-2.17145e-08
-3.57805e-06
-2.12949e-08
-3.90618e-06
4.08378e-08
1.32825e-08
-5.21568e-08
-1.65066e-06
2.30433e-08
-4.79154e-08
-2.02657e-06
3.02108e-08
-4.56798e-08
-2.33436e-06
3.52761e-08
-4.43523e-08
-2.63471e-06
3.84504e-08
-4.33928e-08
-2.93881e-06
3.98431e-08
-4.25915e-08
-3.25002e-06
3.94972e-08
-4.18329e-08
-3.56944e-06
-4.10331e-08
-3.89664e-06
3.73718e-08
7.81177e-09
-1.64207e-06
-7.01105e-08
1.30827e-08
-2.01666e-06
-6.47166e-08
1.65025e-08
-2.32253e-06
-6.20378e-08
1.85658e-08
-2.62068e-06
-6.06539e-08
1.95626e-08
-2.92226e-06
-5.98285e-08
1.97026e-08
-3.23063e-06
-5.92767e-08
1.91058e-08
-3.5469e-06
-5.8818e-08
-3.87069e-06
-5.83555e-08
1.78399e-08
7.29579e-09
5.89165e-08
-1.62136e-06
-7.00957e-08
1.33e-08
5.37536e-08
-1.99238e-06
-6.39831e-08
1.79933e-08
5.08936e-08
-2.2953e-06
-6.06339e-08
2.15145e-08
4.89254e-08
-2.59083e-06
-5.83643e-08
2.38637e-08
4.72581e-08
-2.89008e-06
-5.64837e-08
2.50019e-08
4.57312e-08
-3.19637e-06
-5.47929e-08
2.48776e-08
4.42941e-08
-3.51076e-06
-5.32183e-08
4.29242e-08
-3.83275e-06
-5.17466e-08
2.34711e-08
1.10773e-08
4.15888e-08
-1.63273e-06
1.97797e-08
3.79997e-08
-2.00565e-06
2.65151e-08
3.593e-08
-2.3107e-06
3.15268e-08
3.4472e-08
-2.60846e-06
3.48541e-08
3.32124e-08
-2.91007e-06
3.6479e-08
3.20494e-08
-3.21888e-06
3.63623e-08
3.09587e-08
-3.53594e-06
2.9946e-08
-3.86077e-06
3.44488e-08
1.27089e-08
2.09717e-08
-1.64065e-06
2.25784e-08
1.9184e-08
-2.01495e-06
3.00349e-08
1.81607e-08
-2.32135e-06
3.53931e-08
1.74282e-08
-2.62045e-06
3.87494e-08
1.6769e-08
-2.92341e-06
4.01438e-08
1.61395e-08
-3.23357e-06
3.95954e-08
1.55392e-08
-3.55198e-06
1.4975e-08
-3.87814e-06
3.71277e-08
1.36095e-08
-1.46795e-09
-1.64497e-06
2.40984e-08
-1.3047e-09
-2.02005e-06
3.19951e-08
-1.20209e-09
-2.3272e-06
3.76627e-08
-1.15625e-09
-2.62703e-06
4.12214e-08
-1.16497e-09
-2.93074e-06
4.27241e-08
-1.20369e-09
-3.24166e-06
4.21947e-08
-1.24598e-09
-3.56086e-06
-1.27065e-09
-3.88785e-06
3.96405e-08
1.28045e-08
-2.33016e-08
-1.64519e-06
2.26013e-08
-2.13363e-08
-2.02039e-06
2.98891e-08
-2.01966e-08
-2.32749e-06
3.50552e-08
-1.94708e-08
-2.62721e-06
3.82449e-08
-1.89389e-08
-2.93075e-06
3.95338e-08
-1.8509e-08
-3.24144e-06
3.89618e-08
-1.81254e-08
-3.56037e-06
-1.77575e-08
-3.88706e-06
3.65534e-08
1.14205e-08
-4.34357e-08
-1.64186e-06
2.00434e-08
-3.97965e-08
-2.0165e-06
2.64942e-08
-3.78703e-08
-2.32291e-06
3.11612e-08
-3.6708e-08
-2.62191e-06
3.41827e-08
-3.58641e-08
-2.92468e-06
3.56103e-08
-3.51648e-08
-3.23456e-06
3.54456e-08
-3.45144e-08
-3.55266e-06
-3.38423e-08
-3.87852e-06
3.36386e-08
6.95163e-09
-1.63438e-06
-5.79704e-08
1.19254e-08
-2.00784e-06
-5.33376e-08
1.53206e-08
-2.31259e-06
-5.09718e-08
1.75117e-08
-2.60968e-06
-4.96651e-08
1.87008e-08
-2.91025e-06
-4.88238e-08
1.90254e-08
-3.21766e-06
-4.82163e-08
1.8562e-08
-3.53301e-06
-4.77017e-08
-3.85589e-06
-4.72032e-08
1.73645e-08
5.93372e-09
4.7347e-08
-1.61823e-06
-5.63124e-08
1.0852e-08
4.31075e-08
-1.98881e-06
-5.12645e-08
1.46658e-08
4.08142e-08
-2.29111e-06
-4.85327e-08
1.75124e-08
3.92711e-08
-2.58597e-06
-4.67091e-08
1.94014e-08
3.79925e-08
-2.88448e-06
-4.52261e-08
2.03089e-08
3.68396e-08
-3.18995e-06
-4.39159e-08
2.01997e-08
3.57631e-08
-3.50348e-06
-4.27111e-08
3.47374e-08
-3.82455e-06
-4.15929e-08
1.90667e-08
9.11496e-09
3.34045e-08
-1.6277e-06
1.63208e-08
3.04472e-08
-1.99992e-06
2.19188e-08
2.88046e-08
-2.30404e-06
2.61103e-08
2.76796e-08
-2.60082e-06
2.89223e-08
2.67288e-08
-2.90139e-06
3.03315e-08
2.5862e-08
-3.20909e-06
3.02957e-08
2.50528e-08
-3.52498e-06
2.43007e-08
-3.84858e-06
2.8766e-08
1.05929e-08
1.66631e-08
-1.63434e-06
1.8885e-08
1.52026e-08
-2.00775e-06
2.52e-08
1.44152e-08
-2.31306e-06
2.97922e-08
1.38746e-08
-2.61103e-06
3.27263e-08
1.33993e-08
-2.91282e-06
3.4017e-08
1.29492e-08
-3.22175e-06
3.36611e-08
1.25197e-08
-3.53891e-06
1.21132e-08
-3.86377e-06
3.16648e-08
1.14278e-08
-1.64087e-09
-1.63794e-06
2.03219e-08
-1.4713e-09
-2.01202e-06
2.70841e-08
-1.34201e-09
-2.31798e-06
3.20061e-08
-1.26249e-09
-2.6166e-06
3.51668e-08
-1.22854e-09
-2.91907e-06
3.65868e-08
-1.22267e-09
-3.22872e-06
3.62623e-08
-1.22482e-09
-3.54662e-06
-1.21768e-09
-3.87228e-06
3.41824e-08
1.08139e-08
-1.9447e-08
-1.63803e-06
1.91834e-08
-1.77589e-08
-2.0122e-06
2.54805e-08
-1.67742e-08
-2.31811e-06
3.00114e-08
-1.61373e-08
-2.61664e-06
3.28756e-08
-1.56666e-08
-2.91897e-06
3.41124e-08
-1.52866e-08
-3.22844e-06
3.37334e-08
-1.49513e-08
-3.54612e-06
-1.46349e-08
-3.87152e-06
3.17443e-08
9.66958e-09
-3.57771e-08
-1.63502e-06
1.70779e-08
-3.26833e-08
-2.00869e-06
2.2688e-08
-3.10396e-08
-2.31401e-06
2.68053e-08
-3.00351e-08
-2.6119e-06
2.95223e-08
-2.93038e-08
-2.91355e-06
3.08589e-08
-2.8703e-08
-3.2223e-06
3.07971e-08
-2.81536e-08
-3.53924e-06
-2.75965e-08
-3.86391e-06
2.92838e-08
6.07736e-09
-1.62855e-06
-4.74971e-08
1.05611e-08
-2.00117e-06
-4.35393e-08
1.37154e-08
-2.30505e-06
-4.1475e-08
1.58244e-08
-2.60131e-06
-4.02801e-08
1.70304e-08
-2.90107e-06
-3.94728e-08
1.74254e-08
-3.20769e-06
-3.88666e-08
1.7059e-08
-3.52228e-06
-3.835e-08
-3.84438e-06
-3.7862e-08
1.59734e-08
4.8626e-09
3.77547e-08
-1.61581e-06
-4.49195e-08
8.83179e-09
3.42375e-08
-1.98607e-06
-4.07289e-08
1.19041e-08
3.23748e-08
-2.2879e-06
-3.84848e-08
1.41898e-08
3.1147e-08
-2.58225e-06
-3.70046e-08
1.56995e-08
3.01536e-08
-2.88018e-06
-3.58219e-08
1.64181e-08
2.92753e-08
-3.18504e-06
-3.47954e-08
1.63216e-08
2.84653e-08
-3.49789e-06
-3.38644e-08
2.76975e-08
-3.81825e-06
-3.30079e-08
1.54072e-08
7.45178e-09
2.65857e-08
-1.62382e-06
1.33246e-08
2.41284e-08
-1.99552e-06
1.7906e-08
2.28074e-08
-2.29892e-06
2.13518e-08
2.19263e-08
-2.59493e-06
2.36802e-08
2.11998e-08
-2.89466e-06
2.48678e-08
2.05489e-08
-3.20147e-06
2.48745e-08
1.99469e-08
-3.51641e-06
1.9389e-08
-3.839e-06
2.36522e-08
8.72947e-09
1.31154e-08
-1.62947e-06
1.55621e-08
1.19054e-08
-2.00222e-06
2.08013e-08
1.12864e-08
-2.30666e-06
2.46442e-08
1.08786e-08
-2.60372e-06
2.71343e-08
1.05312e-08
-2.90455e-06
2.82729e-08
1.02074e-08
-3.21247e-06
2.80458e-08
9.90023e-09
-3.52857e-06
9.60898e-09
-3.85235e-06
2.6444e-08
9.45972e-09
-1.64545e-09
-1.63251e-06
1.6833e-08
-1.4951e-09
-2.00584e-06
2.24849e-08
-1.36691e-09
-2.31085e-06
2.66401e-08
-1.27744e-09
-2.60849e-06
2.9351e-08
-1.22505e-09
-2.90994e-06
3.062e-08
-1.19707e-09
-3.21852e-06
3.04289e-08
-1.17761e-09
-3.53531e-06
-1.15429e-09
-3.85981e-06
2.87522e-08
8.99236e-09
-1.59996e-08
-1.63253e-06
1.59661e-08
-1.45697e-08
-2.00593e-06
2.12606e-08
-1.37337e-08
-2.31091e-06
2.51114e-08
-1.31874e-08
-2.60847e-06
2.75856e-08
-1.27814e-08
-2.9098e-06
2.87008e-08
-1.24545e-08
-3.21823e-06
2.84529e-08
-1.21688e-08
-3.53484e-06
-1.19024e-08
-3.85913e-06
2.6831e-08
8.04863e-09
-2.90897e-08
-1.62982e-06
1.42374e-08
-2.64813e-08
-2.00279e-06
1.89699e-08
-2.50924e-08
-2.30724e-06
2.24779e-08
-2.42355e-08
-2.60424e-06
2.48226e-08
-2.36115e-08
-2.90497e-06
2.60066e-08
-2.31037e-08
-3.21276e-06
2.60029e-08
-2.26468e-08
-3.52872e-06
-2.21918e-08
-3.85235e-06
2.47562e-08
5.20228e-09
-1.62421e-06
-3.84642e-08
9.07814e-09
-1.99624e-06
-3.50999e-08
1.18643e-08
-2.29946e-06
-3.33203e-08
1.37696e-08
-2.59506e-06
-3.22563e-08
1.48933e-08
-2.89418e-06
-3.15161e-08
1.52969e-08
-3.20016e-06
-3.09491e-08
1.50121e-08
-3.5141e-06
-3.04662e-08
-3.83555e-06
-3.00186e-08
1.40677e-08
3.94771e-09
2.96682e-08
-1.61401e-06
-3.53343e-08
7.0903e-09
2.67243e-08
-1.98406e-06
-3.18416e-08
9.53951e-09
2.51977e-08
-2.28554e-06
-2.99888e-08
1.13627e-08
2.42114e-08
-2.57949e-06
-2.87804e-08
1.25654e-08
2.34347e-08
-2.87698e-06
-2.78338e-08
1.31362e-08
2.2765e-08
-3.18135e-06
-2.70296e-08
1.30574e-08
2.21586e-08
-3.49368e-06
-2.63132e-08
2.15896e-08
-3.81349e-06
-2.56621e-08
1.23222e-08
5.99202e-09
2.08276e-08
-1.62093e-06
1.06985e-08
1.87702e-08
-1.99226e-06
1.43881e-08
1.76964e-08
-2.29511e-06
1.71747e-08
1.69981e-08
-2.5905e-06
1.90689e-08
1.64392e-08
-2.88957e-06
2.00481e-08
1.59507e-08
-3.19564e-06
2.00766e-08
1.55063e-08
-3.50981e-06
1.50982e-08
-3.83158e-06
1.91059e-08
7.05949e-09
1.01537e-08
-1.62583e-06
1.25796e-08
9.13559e-09
-1.9981e-06
1.68396e-08
8.63718e-09
-2.30186e-06
1.99867e-08
8.32169e-09
-2.59819e-06
2.20494e-08
8.06353e-09
-2.89823e-06
2.3021e-08
7.82988e-09
-3.20533e-06
2.28828e-08
7.61176e-09
-3.52055e-06
7.40632e-09
-3.84341e-06
2.16142e-08
7.67188e-09
-1.55373e-09
-1.62844e-06
1.36511e-08
-1.43859e-09
-2.00123e-06
1.82666e-08
-1.32639e-09
-2.30549e-06
2.16874e-08
-1.24284e-09
-2.60234e-06
2.39474e-08
-1.18833e-09
-2.90294e-06
2.50384e-08
-1.15191e-09
-3.21062e-06
2.49369e-08
-1.12345e-09
-3.52648e-06
-1.09349e-09
-3.85e-06
2.3608e-08
7.31654e-09
-1.29323e-08
-1.62843e-06
1.29884e-08
-1.17391e-08
-2.00128e-06
1.73289e-08
-1.10424e-08
-2.30551e-06
2.05127e-08
-1.05844e-08
-2.6023e-06
2.25836e-08
-1.02434e-08
-2.90281e-06
2.35473e-08
-9.96991e-09
-3.21037e-06
2.33916e-08
-9.73299e-09
-3.52608e-06
-9.51439e-09
-3.84944e-06
2.20951e-08
6.5459e-09
-2.32509e-08
-1.626e-06
1.15831e-08
-2.10698e-08
-1.99845e-06
1.54675e-08
-1.99088e-08
-2.30223e-06
1.83692e-08
-1.9188e-08
-2.59852e-06
2.03278e-08
-1.86648e-08
-2.89848e-06
2.13366e-08
-1.8244e-08
-3.20549e-06
2.13671e-08
-1.78718e-08
-3.52061e-06
-1.75076e-08
-3.84337e-06
2.03652e-08
4.32245e-09
-1.62109e-06
-3.06348e-08
7.55641e-09
-1.99271e-06
-2.77906e-08
9.9211e-09
-2.29542e-06
-2.62758e-08
1.15654e-08
-2.59051e-06
-2.53509e-08
1.25574e-08
-2.88911e-06
-2.46976e-08
1.29375e-08
-3.19456e-06
-2.41939e-08
1.27263e-08
-3.50797e-06
-2.37679e-08
-3.82887e-06
-2.33795e-08
1.19416e-08
3.10512e-09
2.27172e-08
-1.61272e-06
-2.71192e-08
5.58222e-09
2.02432e-08
-1.98263e-06
-2.41825e-08
7.51754e-09
1.89867e-08
-2.28383e-06
-2.26439e-08
8.95614e-09
1.81921e-08
-2.57746e-06
-2.16547e-08
9.90279e-09
1.75868e-08
-2.87461e-06
-2.09006e-08
1.03503e-08
1.70828e-08
-3.1786e-06
-2.0279e-08
1.02869e-08
1.66389e-08
-3.49052e-06
-1.97397e-08
1.623e-08
-3.8099e-06
-1.92592e-08
9.70422e-09
4.69594e-09
1.58899e-08
-1.61883e-06
8.42051e-09
1.41545e-08
-1.9899e-06
1.13433e-08
1.32731e-08
-2.29231e-06
1.3554e-08
1.27148e-08
-2.58721e-06
1.50609e-08
1.22845e-08
-2.88575e-06
1.58458e-08
1.19221e-08
-3.19124e-06
1.58805e-08
1.16019e-08
-3.50479e-06
1.13136e-08
-3.82591e-06
1.51227e-08
5.55958e-09
7.63955e-09
-1.62315e-06
9.94557e-09
6.7683e-09
-1.99508e-06
1.33385e-08
6.35639e-09
-2.29831e-06
1.58555e-08
6.10534e-09
-2.59406e-06
1.75178e-08
5.9107e-09
-2.89348e-06
1.83182e-08
5.74293e-09
-3.19991e-06
1.82396e-08
5.59169e-09
-3.51443e-06
5.45239e-09
-3.83654e-06
1.72601e-08
6.0547e-09
-1.41174e-09
-1.62545e-06
1.08114e-08
-1.33986e-09
-1.99786e-06
1.44942e-08
-1.25493e-09
-2.30154e-06
1.72369e-08
-1.18746e-09
-2.59775e-06
1.90646e-08
-1.13943e-09
-2.89767e-06
1.99681e-08
-1.10374e-09
-3.20463e-06
1.99257e-08
-1.07387e-09
-3.51972e-06
-1.04299e-09
-3.84244e-06
1.89047e-08
5.78549e-09
-1.01997e-08
-1.62543e-06
1.03044e-08
-9.22116e-09
-1.99789e-06
1.37734e-08
-8.65386e-09
-2.30155e-06
1.63298e-08
-8.28045e-09
-2.59772e-06
1.80061e-08
-8.00341e-09
-2.89757e-06
1.88045e-08
-7.78279e-09
-3.20445e-06
1.87125e-08
-7.5937e-09
-3.51943e-06
-7.42101e-09
-3.84201e-06
1.77097e-08
5.16931e-09
-1.81235e-08
-1.62324e-06
9.18206e-09
-1.63163e-08
-1.99535e-06
1.22867e-08
-1.53593e-08
-2.2986e-06
1.46146e-08
-1.47643e-08
-2.59432e-06
1.61948e-08
-1.43361e-08
-2.89369e-06
1.70204e-08
-1.39978e-08
-3.20005e-06
1.70671e-08
-1.37047e-08
-3.5145e-06
-1.34231e-08
-3.83655e-06
1.62909e-08
3.46115e-09
-1.6189e-06
-2.37786e-08
6.09016e-09
-1.99024e-06
-2.13906e-08
8.02766e-09
-2.29256e-06
-2.01202e-08
9.38675e-09
-2.58725e-06
-1.93365e-08
1.02174e-08
-2.88545e-06
-1.87819e-08
1.05492e-08
-3.19049e-06
-1.83573e-08
1.03979e-08
-3.50348e-06
-1.80036e-08
-3.82395e-06
-1.76874e-08
9.77745e-09
2.34378e-09
1.6622e-08
-1.61181e-06
-1.99064e-08
4.29784e-09
1.45414e-08
-1.9816e-06
-1.74109e-08
5.79652e-09
1.35065e-08
-2.28259e-06
-1.61313e-08
6.89753e-09
1.28679e-08
-2.576e-06
-1.53276e-08
7.61407e-09
1.24031e-08
-2.87289e-06
-1.47396e-08
7.9476e-09
1.2036e-08
-3.17661e-06
-1.42776e-08
7.89446e-09
1.17276e-08
-3.48824e-06
-1.38942e-08
1.14533e-08
-3.80731e-06
-1.35643e-08
7.45238e-09
3.57477e-09
1.15779e-08
-1.61732e-06
6.47454e-09
1.01024e-08
-1.98821e-06
8.72811e-09
9.37265e-09
-2.29028e-06
1.0423e-08
8.92373e-09
-2.58483e-06
1.15742e-08
8.59525e-09
-2.88297e-06
1.2174e-08
8.3345e-09
-3.18804e-06
1.22049e-08
8.11588e-09
-3.50112e-06
7.92726e-09
-3.82174e-06
1.16398e-08
4.24612e-09
5.45952e-09
-1.62123e-06
7.65759e-09
4.70042e-09
-1.99292e-06
1.02775e-08
4.35041e-09
-2.29575e-06
1.22158e-08
4.14454e-09
-2.59107e-06
1.34979e-08
3.99599e-09
-2.89002e-06
1.4124e-08
3.87797e-09
-3.19595e-06
1.40842e-08
3.77885e-09
-3.50994e-06
3.69247e-09
-3.83149e-06
1.33658e-08
4.63034e-09
-1.25344e-09
-1.6233e-06
8.32461e-09
-1.22815e-09
-1.99545e-06
1.11675e-08
-1.17704e-09
-2.29869e-06
1.32806e-08
-1.13073e-09
-2.59443e-06
1.46934e-08
-1.09558e-09
-2.89384e-06
1.5404e-08
-1.06618e-09
-3.20027e-06
1.53988e-08
-1.03956e-09
-3.51478e-06
-1.01143e-09
-3.83688e-06
1.46568e-08
4.42743e-09
-7.75124e-09
-1.62329e-06
7.9343e-09
-6.9668e-09
-1.9955e-06
1.06073e-08
-6.51956e-09
-2.29874e-06
1.25721e-08
-6.2273e-09
-2.59445e-06
1.38622e-08
-6.01301e-09
-2.89381e-06
1.44854e-08
-5.84489e-09
-3.20017e-06
1.44354e-08
-5.70304e-09
-3.5146e-06
-5.57513e-09
-3.83661e-06
1.37006e-08
3.95026e-09
-1.35708e-08
-1.62132e-06
7.06057e-09
-1.20918e-08
-1.99319e-06
9.44894e-09
-1.13191e-08
-2.29605e-06
1.12327e-08
-1.08421e-08
-2.59136e-06
1.24427e-08
-1.05057e-08
-2.89029e-06
1.30798e-08
-1.02473e-08
-3.19619e-06
1.31291e-08
-1.00302e-08
-3.51014e-06
-9.82653e-09
-3.83166e-06
1.25613e-08
2.66576e-09
-1.6174e-06
-1.76832e-08
4.73306e-09
-1.98857e-06
-1.56979e-08
6.24229e-09
-2.29062e-06
-1.46538e-08
7.29465e-09
-2.58503e-06
-1.40109e-08
7.9358e-09
-2.88294e-06
-1.35627e-08
8.1941e-09
-3.1877e-06
-1.32282e-08
8.08595e-09
-3.5004e-06
-1.29581e-08
-3.82056e-06
-1.27239e-08
7.62555e-09
1.70786e-09
1.11717e-08
-1.61125e-06
-1.3391e-08
3.17759e-09
9.41639e-09
-1.98098e-06
-1.12688e-08
4.26431e-09
8.56401e-09
-2.28183e-06
-1.02159e-08
5.0437e-09
8.05481e-09
-2.57509e-06
-9.5777e-09
5.54091e-09
7.70873e-09
-2.87183e-06
-9.14012e-09
5.76836e-09
7.45907e-09
-3.17538e-06
-8.82391e-09
5.73126e-09
7.26822e-09
-3.48682e-06
-8.58322e-09
7.11164e-09
-3.80567e-06
-8.3919e-09
5.43443e-09
2.63146e-09
7.7264e-09
-1.61634e-06
4.77755e-09
6.46144e-09
-1.98713e-06
6.4113e-09
5.85267e-09
-2.28899e-06
7.62323e-09
5.49142e-09
-2.5833e-06
8.44012e-09
5.24643e-09
-2.88118e-06
8.86783e-09
5.07084e-09
-3.18596e-06
8.90067e-09
4.93878e-09
-3.49874e-06
4.83607e-09
-3.81901e-06
8.52554e-09
3.12186e-09
3.51751e-09
-1.61998e-06
5.63703e-09
2.84279e-09
-1.99155e-06
7.53411e-09
2.53678e-09
-2.2941e-06
8.92286e-09
2.36277e-09
-2.58913e-06
9.83863e-09
2.24875e-09
-2.88778e-06
1.02936e-08
2.16991e-09
-3.19338e-06
1.02871e-08
2.11315e-09
-3.50701e-06
2.07065e-09
-3.82817e-06
9.81494e-09
3.40109e-09
-1.10033e-09
-1.62192e-06
6.11673e-09
-1.12833e-09
-1.99393e-06
8.1712e-09
-1.1122e-09
-2.29687e-06
9.68453e-09
-1.09177e-09
-2.5923e-06
1.06956e-08
-1.07271e-09
-2.89137e-06
1.12147e-08
-1.05277e-09
-3.19743e-06
1.12383e-08
-1.03227e-09
-3.51155e-06
-1.00834e-09
-3.83323e-06
1.07546e-08
3.24632e-09
-5.53931e-09
-1.62194e-06
5.80855e-09
-4.93225e-09
-1.99402e-06
7.72638e-09
-4.59715e-09
-2.29697e-06
9.1193e-09
-4.38272e-09
-2.59238e-06
1.00294e-08
-4.22971e-09
-2.89142e-06
1.04751e-08
-4.11318e-09
-3.19744e-06
1.04577e-08
-4.01748e-09
-3.5115e-06
-3.9327e-09
-3.83312e-06
9.97323e-09
2.89057e-09
-9.4699e-09
-1.62013e-06
5.15252e-09
-8.28142e-09
-1.9919e-06
6.85588e-09
-7.67771e-09
-2.29451e-06
8.1117e-09
-7.31284e-09
-2.58955e-06
8.95944e-09
-7.06572e-09
-2.8882e-06
9.41156e-09
-6.88591e-09
-3.19379e-06
9.46379e-09
-6.74279e-09
-3.50741e-06
-6.61343e-09
-3.82857e-06
9.0977e-09
1.95159e-09
-1.61653e-06
-1.21636e-08
3.44706e-09
-1.98763e-06
-1.05372e-08
4.50626e-09
-2.28951e-06
-9.70397e-09
5.22567e-09
-2.58376e-06
-9.2005e-09
5.65458e-09
-2.8815e-06
-8.86368e-09
5.82565e-09
-3.18609e-06
-8.62701e-09
5.75817e-09
-3.49861e-06
-8.44881e-09
-3.81857e-06
-8.30374e-09
5.46389e-09
1.18201e-09
6.18866e-09
-1.61116e-06
-7.35551e-09
2.115e-09
4.69535e-09
-1.98089e-06
-5.57499e-09
2.78031e-09
3.99402e-09
-2.28168e-06
-4.72668e-09
3.24196e-09
3.59412e-09
-2.57486e-06
-4.23739e-09
3.53229e-09
3.35128e-09
-2.87151e-06
-3.93607e-09
3.67206e-09
3.206e-09
-3.17496e-06
-3.75315e-09
3.67335e-09
3.12095e-09
-3.48629e-06
-3.64421e-09
3.07099e-09
-3.80501e-06
-3.58211e-09
3.54008e-09
1.80963e-09
4.19349e-09
-1.61602e-06
3.19841e-09
3.10006e-09
-1.9868e-06
4.22784e-09
2.58938e-09
-2.28853e-06
4.97824e-09
2.30039e-09
-2.5827e-06
5.48446e-09
2.12647e-09
-2.88043e-06
5.76468e-09
2.02503e-09
-3.18504e-06
5.82097e-09
1.96924e-09
-3.49762e-06
1.94283e-09
-3.81767e-06
5.64475e-09
2.12855e-09
1.72979e-09
-1.6195e-06
3.75175e-09
1.11841e-09
-1.99105e-06
4.94386e-09
8.43599e-10
-2.29345e-06
5.80098e-09
6.9258e-10
-2.58832e-06
6.36689e-09
6.05657e-10
-2.88678e-06
6.66414e-09
5.5917e-10
-3.19218e-06
6.69993e-09
5.38315e-10
-3.50559e-06
5.33598e-10
-3.82651e-06
6.46987e-09
2.30825e-09
-9.75641e-10
-1.62137e-06
4.05452e-09
-1.05395e-09
-1.99336e-06
5.34252e-09
-1.07868e-09
-2.29614e-06
6.275e-09
-1.08464e-09
-2.59138e-06
6.90005e-09
-1.0831e-09
-2.89026e-06
7.23902e-09
-1.07336e-09
-3.1961e-06
7.29659e-09
-1.05898e-09
-3.50998e-06
-1.03944e-09
-3.8314e-06
7.0621e-09
2.18036e-09
-3.52185e-09
-1.62143e-06
3.80455e-09
-3.07737e-09
-1.99349e-06
4.97988e-09
-2.84707e-09
-2.29629e-06
5.81316e-09
-2.70632e-09
-2.59153e-06
6.35385e-09
-2.61181e-09
-2.89039e-06
6.6308e-09
-2.54447e-09
-3.19621e-06
6.65252e-09
-2.49226e-09
-3.51006e-06
-2.4475e-09
-3.83143e-06
6.41448e-09
1.92896e-09
-5.7136e-09
-1.61975e-06
3.34086e-09
-4.78497e-09
-1.99151e-06
4.3682e-09
-4.33686e-09
-2.29399e-06
5.10832e-09
-4.0782e-09
-2.58889e-06
5.60878e-09
-3.91728e-09
-2.88738e-06
5.89335e-09
-3.81348e-09
-3.1928e-06
5.96663e-09
-3.74125e-09
-3.50622e-06
-3.6818e-09
-3.82715e-06
5.81368e-09
1.27219e-09
-1.61636e-06
-7.06136e-09
2.14738e-09
-1.98748e-06
-5.75732e-09
2.72645e-09
-2.28929e-06
-5.12104e-09
3.0943e-09
-2.58345e-06
-4.75393e-09
3.30464e-09
-2.88112e-06
-4.53067e-09
3.39534e-09
-3.18562e-06
-4.39646e-09
3.38809e-09
-3.49805e-06
-4.3151e-09
-3.81789e-06
-4.26363e-09
3.28863e-09
6.78957e-10
1.49328e-09
-1.61162e-06
-1.65455e-09
1.03595e-09
2.13691e-10
-1.9814e-06
-1.79879e-10
1.2902e-09
-3.72983e-10
-2.28215e-06
4.7271e-10
1.43971e-09
-6.71524e-10
-2.57528e-06
8.35389e-10
1.53761e-09
-8.28423e-10
-2.87189e-06
1.0149e-09
1.60278e-09
-8.73772e-10
-3.17528e-06
1.07445e-09
1.66234e-09
-8.6596e-10
-3.48655e-06
1.05614e-09
-8.15665e-10
-3.80521e-06
9.96517e-10
1.7091e-09
1.01951e-09
8.57832e-10
-1.61642e-06
1.65644e-09
-9.49234e-11
-1.98726e-06
2.09362e-09
-5.22199e-10
-2.28894e-06
2.40458e-09
-7.49466e-10
-2.58305e-06
2.61725e-09
-8.56872e-10
-2.8807e-06
2.77279e-09
-8.93328e-10
-3.18523e-06
2.86853e-09
-8.75331e-10
-3.49772e-06
-8.31941e-10
-3.81768e-06
2.90255e-09
1.17699e-09
3.10042e-11
-1.61986e-06
1.91603e-09
-5.36707e-10
-1.99147e-06
2.41968e-09
-7.8822e-10
-2.2938e-06
2.75822e-09
-9.22482e-10
-2.58858e-06
2.98628e-09
-9.8693e-10
-2.88696e-06
3.13256e-09
-1.00571e-09
-3.19227e-06
3.21696e-09
-9.94721e-10
-3.50559e-06
-9.66657e-10
-3.8264e-06
3.22988e-09
1.25954e-09
-8.7912e-10
-1.62173e-06
2.04983e-09
-1.01849e-09
-1.99378e-06
2.58801e-09
-1.07856e-09
-2.29649e-06
2.95245e-09
-1.11212e-09
-2.59165e-06
3.20047e-09
-1.12793e-09
-2.89043e-06
3.36671e-09
-1.12926e-09
-3.19618e-06
3.46495e-09
-1.12037e-09
-3.50997e-06
-1.10357e-09
-3.83128e-06
3.48359e-09
1.15297e-09
-1.6522e-09
-1.62182e-06
1.84218e-09
-1.3579e-09
-1.99395e-06
2.28868e-09
-1.22497e-09
-2.29668e-06
2.56843e-09
-1.15321e-09
-2.59184e-06
2.74514e-09
-1.11367e-09
-2.89062e-06
2.85803e-09
-1.09228e-09
-3.19637e-06
2.92579e-09
-1.08024e-09
-3.51014e-06
-1.0719e-09
-3.83143e-06
2.94462e-09
9.89303e-10
-2.1967e-09
-1.62021e-06
1.55515e-09
-1.50115e-09
-1.99204e-06
1.91785e-09
-1.1949e-09
-2.29448e-06
2.15068e-09
-1.0341e-09
-2.58931e-06
2.31466e-09
-9.53521e-10
-2.88774e-06
2.4455e-09
-9.21025e-10
-3.1931e-06
2.55784e-09
-9.15386e-10
-3.50646e-06
-9.21601e-10
-3.82731e-06
2.64107e-09
5.72919e-10
-1.61692e-06
-2.24051e-09
8.03414e-10
-1.9881e-06
-1.22945e-09
8.88993e-10
-2.28989e-06
-7.81399e-10
8.96235e-10
-2.58402e-06
-5.53254e-10
8.86044e-10
-2.88165e-06
-4.49037e-10
9.01657e-10
-3.18614e-06
-4.22307e-10
9.68932e-10
-3.49855e-06
-4.41371e-10
-3.81839e-06
-4.84932e-10
1.09184e-09
1.26768e-10
-3.09549e-09
-1.61258e-06
3.86345e-09
-9.53313e-12
-4.16345e-09
-1.98241e-06
5.07342e-09
-1.8326e-10
-4.61802e-09
-2.28312e-06
5.5986e-09
-3.47028e-10
-4.83512e-09
-2.57624e-06
5.84856e-09
-4.66606e-10
-4.89586e-09
-2.87283e-06
5.92348e-09
-4.95957e-10
-4.85149e-09
-3.17625e-06
5.87456e-09
-4.0278e-10
-4.74129e-09
-3.48758e-06
5.74565e-09
-4.59377e-09
-3.80631e-06
5.56751e-09
-1.79384e-10
2.09604e-10
-2.39009e-09
-1.6175e-06
1.46688e-10
-3.21482e-09
-1.98837e-06
1.44158e-11
-3.57293e-09
-2.29002e-06
-1.25999e-10
-3.74786e-09
-2.58409e-06
-2.19545e-10
-3.8052e-09
-2.88174e-06
-2.17388e-10
-3.7809e-09
-3.18629e-06
-9.02703e-11
-3.70485e-09
-3.49884e-06
-3.59716e-09
-3.81885e-06
1.62675e-10
2.25767e-10
-1.6332e-09
-1.62099e-06
1.36083e-10
-2.15944e-09
-1.99266e-06
-4.45158e-11
-2.39248e-09
-2.29497e-06
-2.37586e-10
-2.51223e-09
-2.58974e-06
-3.79771e-10
-2.55748e-09
-2.88812e-06
-4.13681e-10
-2.55049e-09
-3.19348e-06
-3.0325e-10
-2.50846e-09
-3.50687e-06
-2.44513e-09
-3.82776e-06
-4.52494e-11
2.16528e-10
-8.1326e-10
-1.62291e-06
1.00345e-10
-1.0041e-09
-1.99503e-06
-1.11221e-10
-1.10731e-09
-2.29771e-06
-3.33483e-10
-1.16689e-09
-2.59287e-06
-4.92807e-10
-1.20133e-09
-2.89167e-06
-5.30392e-10
-1.21389e-09
-3.19747e-06
-4.05557e-10
-1.21153e-09
-3.51135e-06
-1.19875e-09
-3.83274e-06
-1.16276e-10
1.21449e-10
1.29471e-10
-1.62302e-06
-7.48249e-11
2.87288e-10
-1.99522e-06
-3.73762e-10
3.30482e-10
-2.29794e-06
-6.65486e-10
3.37681e-10
-2.59311e-06
-8.86764e-10
3.26509e-10
-2.89193e-06
-9.70308e-10
3.04999e-10
-3.19774e-06
-8.74505e-10
2.79205e-10
-3.51162e-06
2.51784e-10
-3.83302e-06
-5.88376e-10
3.88229e-11
1.17801e-09
-1.62142e-06
-1.96712e-10
1.66074e-09
-1.99332e-06
-5.14674e-10
1.8301e-09
-2.29574e-06
-8.0862e-10
1.89185e-09
-2.59059e-06
-1.01144e-09
1.8891e-09
-2.88905e-06
-1.06177e-09
1.84645e-09
-3.19449e-06
-9.22754e-10
1.78163e-09
-3.50796e-06
1.70741e-09
-3.82894e-06
-5.89292e-10
-1.68052e-10
-1.61811e-06
2.42735e-09
-5.2948e-10
-1.98936e-06
3.17413e-09
-9.57394e-10
-2.29114e-06
3.46204e-09
-1.34526e-09
-2.58531e-06
3.57733e-09
-1.62596e-09
-2.883e-06
3.58517e-09
-1.73365e-09
-3.18759e-06
3.52061e-09
-1.62694e-09
-3.50015e-06
3.41192e-09
-3.82016e-06
3.27753e-09
-1.28896e-09
-4.76931e-10
-7.64963e-09
-1.61391e-06
9.34929e-09
-1.05055e-09
-8.56213e-09
-1.98367e-06
1.03828e-08
-1.66384e-09
-8.9191e-09
-2.28433e-06
1.07841e-08
-2.23697e-09
-9.05515e-09
-2.57745e-06
1.09321e-08
-2.67654e-09
-9.03282e-09
-2.87413e-06
1.08963e-08
-2.89605e-09
-8.89863e-09
-3.17771e-06
1.07283e-08
-2.8233e-09
-8.69435e-09
-3.48928e-06
1.04747e-08
-8.45006e-09
-3.80828e-06
1.01695e-08
-2.41549e-09
-5.84113e-10
-5.61379e-09
-1.61902e-06
-1.30426e-09
-6.34299e-09
-1.98987e-06
-2.0578e-09
-6.64909e-09
-2.29149e-06
-2.74245e-09
-6.78191e-09
-2.5856e-06
-3.25451e-09
-6.79087e-09
-2.88336e-06
-3.4983e-09
-6.71065e-09
-3.18811e-06
-3.40032e-09
-6.57278e-09
-3.50093e-06
-6.39972e-09
-3.82124e-06
-2.9249e-09
-7.21217e-10
-3.27831e-09
-1.62269e-06
-1.60822e-09
-3.78157e-09
-1.99436e-06
-2.52599e-09
-4.01512e-09
-2.29667e-06
-3.35607e-09
-4.13227e-09
-2.59151e-06
-3.98041e-09
-4.16553e-09
-2.89005e-06
-4.29103e-09
-4.1371e-09
-3.19564e-06
-4.20569e-09
-4.06716e-09
-3.50935e-06
-3.97098e-09
-3.83059e-06
-3.68523e-09
-8.16432e-10
-7.51709e-10
-1.62472e-06
-1.81327e-09
-1.00016e-09
-1.99686e-06
-2.83604e-09
-1.14813e-09
-2.29956e-06
-3.7537e-09
-1.24376e-09
-2.5948e-06
-4.43854e-09
-1.2998e-09
-2.89377e-06
-4.77359e-09
-1.32665e-09
-3.19985e-06
-4.67215e-09
-1.33245e-09
-3.51406e-06
-1.32488e-09
-3.83583e-06
-4.09074e-09
-9.01325e-10
1.90212e-09
-1.62486e-06
-1.97606e-09
1.92416e-09
-1.99709e-06
-3.07701e-09
1.87713e-09
-2.29983e-06
-4.06888e-09
1.8182e-09
-2.59511e-06
-4.8136e-09
1.75354e-09
-2.89412e-06
-5.19321e-09
1.68678e-09
-3.20023e-06
-5.11864e-09
1.62041e-09
-3.51448e-06
1.55442e-09
-3.83628e-06
-4.54152e-09
-9.00981e-10
4.52965e-09
-1.62321e-06
-1.94506e-09
4.81234e-09
-1.99513e-06
-3.00849e-09
4.85595e-09
-2.29757e-06
-3.95621e-09
4.82393e-09
-2.59252e-06
-4.65521e-09
4.73946e-09
-2.89118e-06
-4.99454e-09
4.62076e-09
-3.1969e-06
-4.89286e-09
4.48255e-09
-3.51075e-06
4.33541e-09
-3.83214e-06
-4.30776e-09
-8.93709e-10
-1.6198e-06
7.08356e-09
-1.89432e-09
-1.99104e-06
7.58534e-09
-2.91592e-09
-2.29285e-06
7.71132e-09
-3.83262e-09
-2.58711e-06
7.70652e-09
-4.51787e-09
-2.885e-06
7.6069e-09
-4.86394e-09
-3.18988e-06
7.44113e-09
-4.78985e-09
-3.50283e-06
7.23487e-09
-3.82327e-06
7.00456e-09
-4.24984e-09
-1.05656e-09
-1.23571e-08
1.50376e-08
-1.61554e-06
-2.18989e-09
-1.3111e-08
1.59034e-08
-1.98506e-06
-3.4479e-09
-1.33719e-08
1.61763e-08
-2.28564e-06
-4.65095e-09
-1.34317e-08
1.62133e-08
-2.57881e-06
-5.62937e-09
-1.33284e-08
1.60599e-08
-2.87569e-06
-6.21279e-09
-1.31051e-08
1.57663e-08
-3.17964e-06
-6.24795e-09
-1.28057e-08
1.53821e-08
-3.4917e-06
-1.24601e-08
1.49461e-08
-5.62527e-09
-3.81129e-06
-1.35951e-09
-8.94424e-09
-1.62095e-06
-2.86911e-09
-9.59096e-09
-1.99163e-06
-4.44638e-09
-9.85017e-09
-2.29321e-06
-5.90515e-09
-9.94578e-09
-2.58744e-06
-7.05569e-09