/*--------------------------------*- C++ -*----------------------------------*\
| =========                 |                                                 |
| \\      /  F ield         | OpenFOAM: The Open Source CFD Toolbox           |
|  \\    /   O peration     | Version:  plus.master.MPPICInterFoam            |
|   \\  /    A nd           | Web:      www.OpenFOAM.com                      |
|    \\/     M anipulation  |                                                 |
\*---------------------------------------------------------------------------*/
FoamFile
{
    version     2.0;
    format      ascii;
    class       scalarField;
    location    "13.8/lagrangian/kinematicCloud";
    object      d;
}
// * * * * * * * * * * * * * * * * * * * * * * * * * * * * * * * * * * * * * //


119
(
0.000647611
0.000608935
0.000607321
0.000462391
0.000485423
0.000487394
0.000495608
0.000487844
0.000500558
0.000499356
0.000512034
0.000511315
0.000513364
0.000509178
0.0005184
0.000522276
0.000519241
0.000502746
0.000513441
0.000489421
0.000520992
0.000532167
0.000493746
0.000494459
0.000569859
0.000527116
0.000454735
0.000518415
0.000517004
0.000536623
0.000467898
0.000533968
0.000496352
0.000531777
0.000475278
0.000564226
0.000511071
0.000520874
0.00051359
0.000494988
0.000495604
0.000519188
0.000500515
0.000486949
0.00049017
0.000492113
0.00050792
0.000499852
0.000516252
0.000534898
0.00050812
0.000508644
0.000546633
0.000510995
0.000577597
0.00050445
0.000530529
0.000554682
0.00051754
0.000558624
0.000558161
0.000511555
0.000527264
0.000523018
0.000504637
0.000537683
0.000510325
0.000531058
0.000515565
0.000522776
0.000540854
0.000532928
0.000528282
0.000515257
0.000514318
0.000525533
0.000525313
0.000543662
0.000542553
0.000452641
0.000548766
0.000523602
0.000562217
0.000529771
0.000512088
0.000522264
0.000501437
0.000475088
0.000536468
0.000533644
0.000567394
0.000554962
0.000498723
0.000534965
0.000470618
0.000531265
0.000509873
0.000566408
0.000502964
0.000552666
0.000489802
0.000554539
0.000528804
0.000481269
0.000509154
0.000542377
0.000560085
0.000471096
0.000515883
0.00050393
0.000561656
0.000505673
0.000428366
0.000506439
0.000540526
0.000512436
0.000524442
0.000536603
0.000543782
)


// ************************************************************************* //
