/*--------------------------------*- C++ -*----------------------------------*\
| =========                 |                                                 |
| \\      /  F ield         | OpenFOAM: The Open Source CFD Toolbox           |
|  \\    /   O peration     | Version:  plus.master                           |
|   \\  /    A nd           | Web:      www.OpenFOAM.com                      |
|    \\/     M anipulation  |                                                 |
\*---------------------------------------------------------------------------*/
FoamFile
{
    version     2.0;
    format      ascii;
    class       volScalarField;
    location    "7.4";
    object      k;
}
// * * * * * * * * * * * * * * * * * * * * * * * * * * * * * * * * * * * * * //

dimensions      [0 2 -2 0 0 0 0];

internalField   nonuniform List<scalar> 
47285
(
0.000341302
0.00103845
0.00372519
0.00484766
0.00222562
0.000553828
0.000230182
0.000871688
0.00437573
0.020856
0.0282187
0.0151027
0.00314115
0.000647992
0.00310352
0.019254
0.0199332
0.0452494
0.0171028
0.0168284
0.0027776
0.00520449
0.0291291
0.041367
0.0460262
0.0624832
0.0246047
0.0045707
0.00317276
0.019813
0.0206932
0.0463935
0.0174815
0.017072
0.00278507
0.000899395
0.00459835
0.0218194
0.0303255
0.0157169
0.00322957
0.000657581
0.000364553
0.00113331
0.00400642
0.00523986
0.00237902
0.00058077
0.000233666
0.000965286
0.00253889
0.00740401
0.00962835
0.00450537
0.00137597
0.000729432
0.0022447
0.00933709
0.0291398
0.045458
0.0224773
0.0067331
0.00141517
0.00603255
0.0265414
0.0412201
0.142376
0.042776
0.0247082
0.00495973
0.00878594
0.0400986
0.156756
0.126639
0.134294
0.0486782
0.00945132
0.00628626
0.0277666
0.0426868
0.133074
0.0439063
0.0255292
0.00506646
0.00237344
0.0100379
0.0315069
0.0505277
0.0242974
0.00714215
0.00146789
0.00100575
0.00276295
0.00813632
0.0109401
0.00497757
0.00146107
0.000747091
0.00232093
0.00441651
0.00995543
0.0136126
0.00705169
0.00270074
0.0018733
0.00409835
0.0123234
0.0301297
0.0519027
0.0275096
0.0094009
0.00261879
0.0081684
0.0268906
0.060539
0.144822
0.0690676
0.0282443
0.00634925
0.0109669
0.0405125
0.178202
0.144865
0.12992
0.0584843
0.0126615
0.0084798
0.0281582
0.0627316
0.135125
0.0718027
0.0290781
0.00648451
0.00433485
0.0132865
0.0326706
0.0569166
0.0296489
0.0100021
0.0027197
0.00242967
0.00480797
0.0109216
0.0153441
0.00783138
0.0028967
0.00193354
0.00451379
0.00634273
0.0117845
0.0153954
0.00852333
0.00462195
0.00398269
0.00615256
0.0143129
0.0320034
0.0518122
0.028697
0.0100323
0.00445116
0.0101241
0.0283731
0.0695567
0.126116
0.0733233
0.0263709
0.00677105
0.0132627
0.0422151
0.159335
0.137006
0.117789
0.0503513
0.0110793
0.0103542
0.0292602
0.0714872
0.120784
0.07579
0.026768
0.00685879
0.00634798
0.0150109
0.0337705
0.0551771
0.0301824
0.0104642
0.00455269
0.00464336
0.00667267
0.0125209
0.0166299
0.00915383
0.00482726
0.00407254
0.00545633
0.00715539
0.0120976
0.0153265
0.00871556
0.00539951
0.00482146
0.00707781
0.0149947
0.031829
0.0478314
0.025987
0.00927857
0.00515319
0.0111318
0.0292802
0.0669479
0.110576
0.0633158
0.0212059
0.00645482
0.0147743
0.0433281
0.132022
0.116337
0.10904
0.0351892
0.00867581
0.0112911
0.0297231
0.0681809
0.108778
0.064584
0.0215145
0.00652536
0.00721126
0.0153949
0.0327623
0.049694
0.0269574
0.00958889
0.00522152
0.00554425
0.00737806
0.0125441
0.0161324
0.00917502
0.00556313
0.00488512
0.000179439
0.00017247
0.000169208
0.000164856
0.000161461
0.000157922
0.000154608
0.000152134
0.000268455
0.000191895
0.000170532
0.000163223
0.000158158
0.000153622
0.000149797
0.000147097
0.000802205
0.000280324
0.000183698
0.000165924
0.000159191
0.000153901
0.000150319
0.000147234
0.00137761
0.000401041
0.000195445
0.000161907
0.000154062
0.000148407
0.000142562
0.00014062
0.00079565
0.000279723
0.000182824
0.000164549
0.000157371
0.000151675
0.00014786
0.00014483
0.000269606
0.000189891
0.000173014
0.000162484
0.000156953
0.000152249
0.000148093
0.000145554
0.000183266
0.00017613
0.000172022
0.000166927
0.00016298
0.000159248
0.000156099
0.000153409
0.000635413
0.000599589
0.000563403
0.000527989
0.000495755
0.000467181
0.000441617
0.000418125
0.000686245
0.000608388
0.000570141
0.000533744
0.00049958
0.000469106
0.000442023
0.000417346
0.000936025
0.000620691
0.000572695
0.000535829
0.000500715
0.000468366
0.000439657
0.000413217
0.00130414
0.000627729
0.000572081
0.000536981
0.00050242
0.000469574
0.000439559
0.000412587
0.000945885
0.000622749
0.000574055
0.000536838
0.000501711
0.00046922
0.000440221
0.000413439
0.000694712
0.000613964
0.000574651
0.000538029
0.000503619
0.000472705
0.000444923
0.000419568
0.000646472
0.000610001
0.000574089
0.000539287
0.00050749
0.000479109
0.000453478
0.000429506
0.00173994
0.0016773
0.00157986
0.00145261
0.00130509
0.00114691
0.000988405
0.000840997
0.0017947
0.0016972
0.00160589
0.00148293
0.00133447
0.0011708
0.00100352
0.000846022
0.00201192
0.00169722
0.00161165
0.00149957
0.00135545
0.00119043
0.00101762
0.00085237
0.00239003
0.00169216
0.00160921
0.00150566
0.00136475
0.00119935
0.00102389
0.000854915
0.00203544
0.00170763
0.0016202
0.00150726
0.00136217
0.00119567
0.00102097
0.000853773
0.00182498
0.00171915
0.00162565
0.00150104
0.0013501
0.00118325
0.00101245
0.00085163
0.00177763
0.00171247
0.00161312
0.00148292
0.00133126
0.00116834
0.00100535
0.00085448
0.00377835
0.00359129
0.00331987
0.00301552
0.00272476
0.00247342
0.00225963
0.00204393
0.00384621
0.00367736
0.0034183
0.00310169
0.0027852
0.00250903
0.00227991
0.0020568
0.00392402
0.00367649
0.00345716
0.0031555
0.00283296
0.0025441
0.00230576
0.00207877
0.00411959
0.00366674
0.00347219
0.00318342
0.00285932
0.00256411
0.0023205
0.00209078
0.0039501
0.00369229
0.00347146
0.00316965
0.00284684
0.00255745
0.00231851
0.00209054
0.00388895
0.00371013
0.00344817
0.00313026
0.00281303
0.00253639
0.00230667
0.00208173
0.00383845
0.00364606
0.00337165
0.00306571
0.00277428
0.00252231
0.0023065
0.00208509
0.00454878
0.00429781
0.00398563
0.00363691
0.00325674
0.00282201
0.00230441
0.00174163
0.00463229
0.00438169
0.00405479
0.00368361
0.00329079
0.00285859
0.00234817
0.00178097
0.0046575
0.00439273
0.00409749
0.00373523
0.00334428
0.00291555
0.00240511
0.00182749
0.00472313
0.00438919
0.00412078
0.00376811
0.00337764
0.00294752
0.00243343
0.00184817
0.00467392
0.00440121
0.00410481
0.00374221
0.00335033
0.00291951
0.00240568
0.00182436
0.00465463
0.00439368
0.00406199
0.00368729
0.00329074
0.00285382
0.00233785
0.00176606
0.00458278
0.00432093
0.00399836
0.0036383
0.00324542
0.00279768
0.00226886
0.00169937
0.000222099
0.0002044
0.000200718
0.000197903
0.000195381
0.000193461
0.000191745
0.000190501
0.000332315
0.000212177
0.000192148
0.000185852
0.000179961
0.000175672
0.000172518
0.000169295
0.000935028
0.000333699
0.000206029
0.000181417
0.000173042
0.000165575
0.00016123
0.000156653
0.00155412
0.000473062
0.00022494
0.000178993
0.000165748
0.000156194
0.000148217
0.000142255
0.000931536
0.000336758
0.000209552
0.000184631
0.000174832
0.000166296
0.000158394
0.000156071
0.000328197
0.000212136
0.00019241
0.000183373
0.000179418
0.000177212
0.000175187
0.000173062
0.000213453
0.00019784
0.000195602
0.000194546
0.000192196
0.000189896
0.000188
0.000186205
0.000766938
0.000713501
0.000670828
0.000626956
0.000584794
0.000546349
0.000511878
0.000480518
0.000915603
0.000749703
0.000704279
0.000663757
0.000621389
0.000580033
0.000540523
0.000504177
0.00144471
0.000806781
0.000732638
0.000696413
0.000655242
0.000610119
0.000565506
0.000521885
0.00187137
0.000824291
0.000718212
0.000681597
0.000639941
0.00059414
0.000548717
0.00050529
0.00141256
0.00079939
0.000726105
0.000689351
0.000648864
0.000605895
0.000563964
0.00052426
0.000897095
0.000741998
0.000697274
0.000656717
0.000615688
0.000574976
0.000537679
0.00050271
0.000752006
0.000699758
0.000655988
0.000610489
0.000567165
0.000528148
0.000493744
0.000462939
0.00199507
0.00190677
0.00181605
0.00168663
0.00152131
0.00133266
0.00113773
0.000955613
0.00222642
0.00193933
0.00185619
0.00175979
0.00162381
0.00145195
0.00125704
0.00105813
0.00280957
0.0019331
0.00182408
0.00175926
0.00165695
0.00151352
0.00133771
0.0011449
0.00316155
0.00187094
0.00174809
0.00169604
0.00160289
0.00146696
0.00129805
0.00111057
0.00274874
0.00191993
0.0018166
0.00175213
0.00164912
0.00150444
0.00132718
0.00113354
0.00217486
0.0019159
0.00183698
0.0017403
0.00160259
0.001429
0.00123373
0.00103667
0.0019513
0.00187248
0.00178555
0.00165888
0.00149645
0.00131086
0.00111876
0.000938715
0.00416476
0.00397367
0.0037125
0.0033969
0.00307528
0.00278312
0.0025245
0.00225809
0.00438335
0.00405997
0.00384327
0.00356834
0.00326279
0.00297667
0.00273255
0.00249541
0.00481468
0.00399403
0.00380695
0.0035919
0.00332144
0.00305609
0.00283914
0.00264792
0.00506438
0.0038592
0.00369538
0.00350975
0.0032472
0.00297641
0.00275123
0.00255619
0.00477227
0.00399218
0.00380925
0.00359405
0.00332369
0.00305824
0.00283888
0.00264074
0.00433247
0.00403192
0.00381668
0.00353809
0.00322697
0.00293364
0.00267968
0.00242935
0.00410207
0.00392075
0.00366371
0.00334901
0.00302712
0.00273509
0.00247847
0.00221756
0.00501263
0.00473062
0.00439399
0.00399894
0.00355278
0.00303884
0.00243263
0.00177835
0.00533675
0.00493033
0.00463194
0.00428796
0.00389076
0.00341751
0.0028202
0.00212141
0.00586149
0.00499352
0.00473089
0.00446707
0.00415231
0.0037619
0.00322502
0.00254512
0.00619629
0.00492167
0.00467825
0.0044487
0.0041658
0.00381894
0.00333782
0.00271008
0.00582621
0.00498532
0.00471959
0.00444548
0.0041159
0.00370752
0.00315408
0.00245998
0.00529757
0.00490346
0.00459834
0.00424052
0.0038273
0.00334063
0.00273858
0.00204715
0.00497657
0.00470711
0.00437842
0.00398892
0.0035476
0.00303787
0.00243478
0.00178259
0.000216176
0.000189543
0.00018383
0.000180755
0.000176821
0.000173362
0.000170447
0.000167973
0.000422633
0.000226977
0.000177926
0.000164464
0.000155879
0.000151044
0.000147753
0.000143492
0.00116603
0.000391179
0.000201654
0.000163022
0.000150817
0.000141232
0.00013144
0.000123283
0.00146262
0.000429459
0.000200411
0.000156969
0.000142146
0.000133248
0.000125671
0.00011879
0.000664806
0.00025361
0.000174217
0.000156417
0.000148329
0.000142609
0.000136158
0.000128104
0.000235391
0.000177889
0.000166303
0.00015888
0.000152999
0.000148
0.000143343
0.000138817
0.000176334
0.000171386
0.000168134
0.000165414
0.000163047
0.000160185
0.000157052
0.00015365
0.000761795
0.000704234
0.000656948
0.000607121
0.000559089
0.000515596
0.000477293
0.000443573
0.000993929
0.000774171
0.000714677
0.000659297
0.00060025
0.000542675
0.000488829
0.000441692
0.00169547
0.00082893
0.000731803
0.000683643
0.000628326
0.000569278
0.000512548
0.000460827
0.00174387
0.000788237
0.000704475
0.000661252
0.000610369
0.000555797
0.000502789
0.000453484
0.00103159
0.000730453
0.00068344
0.000638252
0.000585992
0.000531776
0.000479828
0.000432251
0.000745672
0.000676171
0.000631455
0.000583099
0.00053493
0.000490082
0.000449893
0.000414143
0.0006657
0.00062549
0.000582114
0.000538831
0.000499407
0.000465332
0.000436345
0.000411272
0.00192423
0.00184935
0.00176721
0.00164715
0.00149214
0.00131265
0.00112295
0.000940065
0.00217586
0.00186538
0.00178623
0.00169337
0.00156214
0.00139608
0.00120594
0.00100846
0.00291693
0.00180193
0.00169385
0.00163287
0.00153201
0.0013918
0.00122058
0.00103146
0.00306748
0.00172354
0.0016354
0.00158023
0.00147791
0.00133543
0.00116445
0.000978828
0.00217605
0.00173865
0.00168357
0.00160982
0.00149397
0.00134231
0.00116413
0.000973183
0.00183326
0.00174783
0.00167993
0.00157632
0.00143914
0.00127608
0.00109718
0.000916733
0.00176226
0.00171099
0.00162005
0.00149579
0.00134767
0.00118521
0.00101918
0.000862161
0.00403034
0.00386254
0.00361538
0.00331172
0.00300109
0.00272085
0.0024784
0.00223706
0.00421491
0.00389726
0.00369459
0.00342788
0.00312571
0.00284115
0.00260053
0.00237346
0.00472304
0.0037424
0.00357536
0.00336689
0.00308498
0.00279538
0.0025465
0.00232209
0.00487423
0.0036076
0.00348014
0.00329337
0.00301286
0.00271269
0.00244886
0.00220924
0.00410952
0.00370617
0.00356757
0.0033338
0.00303124
0.00272707
0.00246403
0.00222392
0.0038818
0.00375654
0.00355108
0.00326644
0.00295683
0.00267227
0.00243318
0.00220895
0.00381548
0.00365439
0.00339189
0.00308924
0.00279547
0.00253928
0.00232171
0.00210537
0.00491616
0.00466113
0.00434521
0.00397465
0.00355792
0.00307477
0.00249266
0.00184887
0.00518703
0.00481053
0.00453898
0.00422078
0.00385304
0.00341115
0.00283998
0.00216024
0.00566141
0.00475203
0.00451018
0.0042459
0.00392381
0.00353583
0.00302054
0.00238076
0.00578107
0.00461292
0.00439874
0.00414046
0.00381462
0.00343746
0.00295883
0.00238032
0.00504482
0.00463189
0.00441711
0.00412759
0.00378436
0.00339136
0.00289243
0.00229258
0.00477452
0.0045822
0.00431675
0.00399239
0.00363341
0.00322554
0.00271469
0.00211206
0.00461878
0.00438389
0.00407367
0.00372854
0.00335755
0.00293493
0.00242362
0.00185199
0.000181899
0.000176525
0.000173808
0.000171807
0.000169049
0.000166179
0.000163201
0.000159643
0.00025397
0.000190657
0.000176773
0.000169717
0.000163533
0.000159225
0.000155735
0.000151436
0.000745328
0.000285174
0.00019236
0.000173489
0.000164636
0.000157041
0.00015025
0.000143853
0.00163917
0.000492293
0.000227885
0.000178231
0.000163775
0.000154643
0.000146418
0.000138593
0.00131075
0.000443794
0.000227661
0.000182919
0.000169105
0.000160441
0.000153017
0.000146181
0.000480559
0.000263185
0.00020253
0.00018696
0.000179397
0.000172556
0.000168272
0.000165264
0.000238204
0.000208102
0.000198959
0.000195193
0.000192362
0.000189808
0.000187687
0.000186277
0.000680857
0.000642086
0.000601668
0.000561454
0.000524898
0.000493069
0.000465436
0.000440518
0.000770891
0.000697469
0.000656023
0.000612778
0.000569984
0.000530455
0.000494192
0.000461232
0.00110144
0.000759584
0.000713343
0.000673751
0.00062789
0.0005804
0.000534487
0.000491321
0.00194315
0.000841062
0.000751648
0.0007132
0.000665769
0.000612988
0.000560778
0.000511582
0.00184701
0.000880273
0.000775884
0.000731747
0.000682477
0.000629431
0.000577786
0.000529132
0.00105216
0.000807133
0.000748697
0.000699513
0.000648701
0.000598831
0.000552938
0.000510769
0.00078623
0.000728054
0.000684939
0.000640349
0.000597005
0.000556822
0.00052035
0.000486678
0.00181667
0.00176615
0.0016763
0.00155062
0.0013984
0.00122999
0.00105765
0.000895513
0.00191763
0.00182271
0.00175946
0.00166076
0.00152579
0.00136158
0.001179
0.000994078
0.00235482
0.00183573
0.00178091
0.00171726
0.00161174
0.00146753
0.00129259
0.00110066
0.00344321
0.00185613
0.0017504
0.00170254
0.00160938
0.00147332
0.00130422
0.00111536
0.00320206
0.00194254
0.00181751
0.00175999
0.00166395
0.0015254
0.00135241
0.00115885
0.00231955
0.0019619
0.00187517
0.00178124
0.00164818
0.00147812
0.00128268
0.00108059
0.00199351
0.00190754
0.00182048
0.00169476
0.00153254
0.00134557
0.0011503
0.000965739
0.00390665
0.00374492
0.00348441
0.00318403
0.00289236
0.00263705
0.00241659
0.00218928
0.00401921
0.00388846
0.00369171
0.00342168
0.00313122
0.00286847
0.00265017
0.00243807
0.00433916
0.00387532
0.00374022
0.00352713
0.00325819
0.0029999
0.00279268
0.00261111
0.00526289
0.00382089
0.00367254
0.00349313
0.00323286
0.00296467
0.00274306
0.00255124
0.00504376
0.00396773
0.003781
0.00357841
0.0033189
0.00306542
0.0028622
0.00268443
0.00440943
0.00405438
0.0038392
0.00356934
0.00326961
0.00299025
0.00275331
0.00252188
0.00413944
0.00395595
0.00369929
0.00338788
0.00307014
0.00278179
0.00252728
0.00226564
0.0046885
0.00445065
0.00413474
0.00377539
0.00337901
0.00292293
0.00237615
0.00177659
0.00490719
0.00471845
0.00446837
0.00415636
0.00379498
0.00335903
0.00279667
0.00213017
0.00527349
0.00483512
0.00465304
0.00441617
0.00412437
0.00375541
0.00323663
0.00256924
0.00613077
0.00485815
0.004655
0.00444495
0.00417888
0.00385029
0.0033843
0.00276535
0.00593816
0.00497209
0.00472626
0.00448091
0.00417786
0.00378683
0.00323191
0.0025208
0.00533626
0.00492447
0.00463233
0.00429328
0.00389577
0.00341464
0.00280264
0.00208848
0.00498519
0.00471007
0.00437642
0.00398357
0.00353866
0.0030252
0.00241923
0.00176601
0.00015007
0.000144707
0.000143192
0.00013993
0.000140832
0.000143885
0.000151144
0.00039551
0.000393645
0.000388139
0.000386311
0.00038798
0.000395027
0.000406
0.000716183
0.000713113
0.000712391
0.000711632
0.000712283
0.000716165
0.000727519
0.00175104
0.0017425
0.00175124
0.00175769
0.00176065
0.00176227
0.00177978
0.00113704
0.00111971
0.0011199
0.00112021
0.0011147
0.00110512
0.00109751
0.000189214
0.00016869
0.000148571
0.000136818
0.00015231
0.000170979
0.000184553
0.000450538
0.000470231
0.000481992
0.000465654
0.000486016
0.000470668
0.000434031
0.000803566
0.000879169
0.000961087
0.000930621
0.000950397
0.000861635
0.000787787
0.00189849
0.002154
0.00236114
0.00227184
0.00234077
0.00207327
0.00186962
0.00109243
0.00129434
0.00164782
0.00182569
0.00155385
0.00123592
0.00109506
0.000165752
0.000140376
0.000117687
0.000112535
0.000121528
0.000136572
0.000150531
0.000413155
0.000401349
0.000415424
0.000410253
0.000390931
0.000382764
0.000388616
0.00078131
0.000826532
0.000848916
0.000803595
0.000793334
0.00075422
0.000727166
0.0019148
0.00205701
0.00201664
0.00188823
0.00190748
0.0019055
0.00181434
0.00115275
0.00133578
0.00152574
0.00159143
0.00149791
0.00136394
0.00121553
0.000155977
0.000148977
0.000138376
0.000131319
0.000139627
0.000161696
0.000185064
0.0004168
0.000430891
0.000451948
0.000467979
0.000485709
0.00047299
0.000454237
0.000757282
0.000827848
0.000916959
0.0009329
0.000971206
0.000896707
0.000809545
0.00187295
0.00212107
0.00233342
0.00226695
0.00240484
0.0021808
0.00191126
0.0011347
0.00133091
0.00167412
0.00188042
0.00158864
0.00125284
0.00108253
0.000148154
0.00014476
0.000137039
0.000127827
0.000117191
0.000105956
9.4562e-05
8.30455e-05
0.000142663
0.000139267
0.000131833
0.000122274
0.000111762
0.000100743
8.96037e-05
7.83969e-05
0.000140136
0.000135888
0.000128927
0.00011862
0.00010793
9.72163e-05
8.64346e-05
7.55921e-05
0.000137125
0.000132915
0.000128301
0.000119496
0.000108066
9.60975e-05
8.49817e-05
7.42829e-05
0.000137803
0.000134254
0.000128083
0.000117948
0.000107198
9.65607e-05
8.58881e-05
7.51792e-05
0.000141842
0.000138433
0.000130999
0.000121167
0.000110586
9.96334e-05
8.86447e-05
7.76497e-05
0.000149091
0.000145669
0.000138003
0.000128007
0.000116747
0.000105152
9.36501e-05
8.22382e-05
0.000371883
0.000334472
0.00029312
0.00025385
0.000219029
0.000188148
0.000160341
0.000135275
0.000370119
0.000332647
0.000290585
0.000250942
0.000215574
0.000184283
0.000156304
0.000131311
0.000364184
0.000327531
0.000285351
0.000246376
0.000211632
0.000180854
0.000153345
0.000128764
0.000362017
0.000326304
0.00028469
0.00024514
0.000209634
0.000178734
0.000151508
0.000127307
0.000363611
0.000326512
0.00028379
0.000244634
0.000210034
0.000179494
0.000152305
0.000128039
0.000370585
0.000331728
0.000288411
0.000248244
0.000212736
0.000181644
0.000154099
0.000129623
0.000380717
0.000339708
0.000294504
0.000252766
0.00021643
0.000184924
0.000157188
0.00013262
0.000612332
0.000510064
0.000412388
0.000329729
0.000264616
0.000213799
0.000173735
0.000142054
0.000609248
0.000506975
0.00040981
0.000327532
0.000262541
0.000211718
0.000171637
0.00013999
0.000606957
0.000503677
0.000407596
0.000325925
0.000261111
0.000210334
0.000170274
0.000138655
0.000605039
0.000501114
0.000406003
0.000324898
0.000260176
0.000209393
0.00016942
0.000137944
0.000605828
0.000502239
0.00040594
0.000324161
0.000259439
0.000208915
0.000169187
0.000137892
0.000610293
0.000506686
0.000407632
0.000324242
0.000258944
0.000208352
0.000168804
0.000137782
0.00062178
0.00051633
0.000412455
0.000326144
0.000259509
0.000208461
0.00016894
0.000138177
0.00139894
0.000897604
0.000560472
0.000382509
0.000280085
0.000214291
0.000168782
0.000136235
0.00138618
0.000888647
0.000556031
0.000380672
0.000279268
0.00021373
0.000168199
0.000135591
0.00139095
0.000892215
0.000557869
0.000381348
0.000279339
0.00021344
0.000167671
0.000134911
0.00139477
0.000894415
0.000558625
0.000381286
0.000278963
0.00021299
0.00016727
0.000134603
0.00139689
0.000893691
0.000557049
0.000379763
0.000277696
0.000212016
0.000166562
0.000134112
0.00139854
0.000891265
0.000553878
0.000376919
0.000275245
0.000210016
0.000165074
0.000133136
0.00141296
0.000896377
0.000554367
0.000375494
0.000273135
0.00020788
0.000163284
0.000131853
0.00106951
0.000864333
0.000565294
0.000378889
0.000267824
0.000198825
0.00015416
0.000124578
0.00105145
0.000857808
0.000565142
0.000380059
0.000268819
0.000199316
0.000154223
0.000124432
0.00104921
0.000858829
0.000567028
0.000381269
0.000269325
0.000199327
0.000153931
0.000123991
0.00104803
0.000858521
0.000567175
0.00038128
0.000269225
0.000199206
0.000153844
0.000123966
0.00104367
0.000854551
0.000564052
0.000378922
0.000267452
0.000197892
0.000152894
0.000123281
0.00103715
0.0008478
0.000558207
0.000374488
0.000264181
0.00019554
0.000151288
0.000122266
0.0010316
0.000840036
0.000550263
0.000367992
0.000259168
0.00019181
0.000148642
0.000120426
0.000187004
0.000179239
0.000167241
0.000152509
0.000137378
0.000122747
0.000108922
9.58682e-05
0.000167869
0.000163024
0.000157109
0.000146446
0.000133403
0.000119623
0.000105753
9.25528e-05
0.000142105
0.000133993
0.000125572
0.000116417
0.000107026
9.81348e-05
8.89479e-05
7.92883e-05
0.00013154
0.000122458
0.000113114
0.000103586
9.39272e-05
8.52575e-05
7.75344e-05
6.87315e-05
0.000146115
0.000138384
0.00013025
0.000121003
0.000111407
0.000102399
9.29885e-05
8.27518e-05
0.000170753
0.000167746
0.000161511
0.000150183
0.000136974
0.000123245
0.000109148
9.54371e-05
0.000182372
0.00017488
0.000163905
0.000150264
0.000135975
0.000121883
0.000108307
9.53152e-05
0.00041861
0.000368718
0.000314882
0.000266393
0.000225426
0.000191254
0.000162427
0.000137606
0.00043592
0.000389444
0.00033729
0.000286967
0.000241807
0.000202185
0.00016813
0.000139489
0.000441402
0.000387833
0.000336776
0.000290671
0.000249694
0.000212965
0.000179374
0.000149119
0.00042494
0.000371574
0.000321896
0.000277703
0.000238614
0.00020487
0.000173645
0.00014627
0.000447522
0.000396241
0.000346081
0.000300241
0.000258704
0.00022103
0.000185976
0.00015422
0.000438126
0.000392696
0.000340011
0.000289998
0.000245194
0.000205797
0.000171593
0.000142514
0.000404277
0.000358783
0.000308813
0.000263224
0.000224024
0.000190698
0.000162075
0.000137202
0.000681515
0.000546581
0.00042087
0.000323531
0.000252554
0.00020085
0.000162562
0.00013362
0.000729193
0.000589087
0.00047145
0.000373196
0.000296265
0.000237046
0.000191257
0.00015583
0.000794508
0.000623781
0.000503631
0.000412901
0.000339186
0.000278178
0.000228368
0.000187766
0.00076573
0.000594742
0.000475818
0.000388902
0.000320829
0.000265973
0.000221133
0.000184113
0.000788297
0.000627096
0.000515052
0.000430681
0.000356669
0.00029207
0.000237849
0.000194224
0.000717366
0.000584381
0.000465693
0.000367747
0.000292038
0.000234133
0.000189423
0.000154589
0.000665139
0.000537631
0.000418636
0.000324753
0.000255008
0.000203316
0.000164486
0.000134927
0.00147459
0.000915031
0.000551701
0.000363736
0.00025946
0.000195614
0.0001538
0.000125206
0.00173109
0.00112036
0.000694837
0.000465518
0.000336963
0.000257772
0.000203937
0.000165128
0.0019901
0.00139057
0.000928158
0.000647368
0.000471714
0.000353861
0.000275589
0.000221892
0.00190939
0.00132594
0.000873327
0.000596722
0.000430477
0.000326386
0.000257603
0.000209542
0.001956
0.00135495
0.000897301
0.000623789
0.000461226
0.000354937
0.000278667
0.000223881
0.00164852
0.00105159
0.00064809
0.000434885
0.000315464
0.000241551
0.000191932
0.000156388
0.00145942
0.000909454
0.00055177
0.000366641
0.000262852
0.00019847
0.000155762
0.000126367
0.00101175
0.000815529
0.000527697
0.000349689
0.000245363
0.000182393
0.000143103
0.00011773
0.00119649
0.00098152
0.000659946
0.000455803
0.000333503
0.000256686
0.000204222
0.000166394
0.00154155
0.00132656
0.000966639
0.000721994
0.000554199
0.000416987
0.000309693
0.00024105
0.00173015
0.00150557
0.00111576
0.00082729
0.000617472
0.000458026
0.000339598
0.000260012
0.00144529
0.00122561
0.000872924
0.000641219
0.000496001
0.00039092
0.000300372
0.00023414
0.00114144
0.000929074
0.000616114
0.00041942
0.000302666
0.000231241
0.000185039
0.000152306
0.00101508
0.000814453
0.000526675
0.000349857
0.000246021
0.000182902
0.000143144
0.000117354
0.00016344
0.000159487
0.000151706
0.000140766
0.000128514
0.000116154
0.00010394
9.1831e-05
0.000137253
0.000131778
0.00012725
0.000122687
0.000115381
0.000106406
9.68505e-05
8.67382e-05
0.000113492
0.000106968
0.000101376
9.58132e-05
8.96238e-05
8.28926e-05
7.60521e-05
6.90619e-05
0.000107766
0.000100259
9.28697e-05
8.5825e-05
7.90721e-05
7.22196e-05
6.56193e-05
5.91701e-05
0.000117522
0.0001108
0.000105363
9.95631e-05
9.29462e-05
8.54209e-05
7.78049e-05
7.04147e-05
0.000134886
0.000129727
0.000125728
0.000120675
0.000113448
0.000104395
9.47103e-05
8.46097e-05
0.000147023
0.000142
0.000137128
0.000129321
0.000119538
0.000108905
9.7888e-05
8.65869e-05
0.000382574
0.000340595
0.00029497
0.000252886
0.000216579
0.000185591
0.000158671
0.000134827
0.000364423
0.000322289
0.000285383
0.000251164
0.000219234
0.000190389
0.000164356
0.0001404
0.000371891
0.000319068
0.000273621
0.000236297
0.000205084
0.000178113
0.000153934
0.000131625
0.000367865
0.000314115
0.000266094
0.000224417
0.000188431
0.000158034
0.000132168
0.000110401
0.000351701
0.00030262
0.000259774
0.000224154
0.000193751
0.000167751
0.000144529
0.000122394
0.000352979
0.000316465
0.000279573
0.000245393
0.000213156
0.000184385
0.000158544
0.000134901
0.000365728
0.000333078
0.000293571
0.000254828
0.000219795
0.000188794
0.000161175
0.000136385
0.0006477
0.000526163
0.000418136
0.000328878
0.000260455
0.000208775
0.00016934
0.000138948
0.000671686
0.000526878
0.000436037
0.00035702
0.000290346
0.000236582
0.000193553
0.000159108
0.000686321
0.000521939
0.00041281
0.000339276
0.000286875
0.000245673
0.000208026
0.000172568
0.000647767
0.000487702
0.000378346
0.000301203
0.000243223
0.00019774
0.000161226
0.000131428
0.000637678
0.000479351
0.000374415
0.000303844
0.000254107
0.00021399
0.000178549
0.000147387
0.000619047
0.000489223
0.000405338
0.000334297
0.00027397
0.000224447
0.000184059
0.000151216
0.000614391
0.000506848
0.000413442
0.00033261
0.000267486
0.000216241
0.000175832
0.000143942
0.0015199
0.00096087
0.000585397
0.000388467
0.000278559
0.000210644
0.000165391
0.000133939
0.00167521
0.00111518
0.000698306
0.000463536
0.000330739
0.000249064
0.00019489
0.000157135
0.00166146
0.0011534
0.00077072
0.000532139
0.000383512
0.000286488
0.000220934
0.000175051
0.00152492
0.00102735
0.000675359
0.000468304
0.000344978
0.000265899
0.000209804
0.000166284
0.00155451
0.001063
0.000702767
0.00048344
0.000348214
0.000262165
0.000204952
0.000164624
0.00155299
0.00103831
0.000656646
0.000440822
0.000317558
0.000240896
0.000189274
0.000152633
0.00145761
0.000944391
0.000588685
0.000397666
0.000288768
0.000219992
0.00017311
0.000139856
0.00106798
0.000849642
0.000549529
0.000365991
0.000258307
0.000192517
0.000150552
0.000122906
0.00122975
0.000976473
0.000636352
0.000425402
0.000300619
0.000224268
0.00017549
0.000143106
0.00141857
0.00111943
0.000745767
0.000504605
0.00035774
0.000267751
0.000210618
0.000173042
0.00149971
0.00117314
0.00078772
0.000548419
0.000410172
0.000329416
0.000277443
0.000239675
0.00140118
0.00109955
0.000725097
0.000489998
0.000349551
0.000263618
0.000208933
0.000172306
0.00127165
0.00100945
0.000654927
0.000435835
0.000306799
0.00022779
0.000177116
0.000143423
0.00114034
0.00091004
0.000589667
0.000392413
0.00027627
0.000205
0.000159235
0.00012894
0.000153026
0.000150161
0.000143907
0.000134005
0.000122272
0.000110046
9.79696e-05
8.61451e-05
0.000147196
0.000141944
0.000137487
0.000130426
0.000120548
0.000109075
9.70484e-05
8.49508e-05
0.000133984
0.000126343
0.000119008
0.000111223
0.000102841
9.39946e-05
8.4795e-05
7.54165e-05
0.000125162
0.000115608
0.000106574
9.79568e-05
8.95953e-05
8.15053e-05
7.33899e-05
6.55042e-05
0.000134489
0.000126646
0.000119298
0.000111656
0.000103444
9.49352e-05
8.61317e-05
7.68442e-05
0.000158573
0.000152806
0.000148546
0.000140886
0.000130122
0.000117799
0.000104958
9.19668e-05
0.000183381
0.00017652
0.00016514
0.000150901
0.000136008
0.00012158
0.000107906
9.48844e-05
0.000391527
0.000351629
0.000304486
0.000259759
0.000220408
0.000186526
0.000157292
0.000131967
0.000400182
0.000358366
0.000313099
0.000268131
0.000226938
0.000190369
0.000158247
0.000130015
0.000412105
0.000360164
0.000311338
0.000267539
0.000228513
0.000193447
0.000161782
0.0001331
0.000423422
0.000367228
0.000315852
0.000270826
0.000231593
0.000197164
0.000166441
0.000138845
0.000441889
0.00038706
0.000336196
0.000290398
0.000249652
0.000212679
0.000179026
0.000148236
0.000435708
0.000388219
0.000338709
0.00029012
0.000246315
0.000207909
0.000174338
0.000144744
0.000420125
0.000368723
0.000314275
0.000265556
0.000224654
0.000190626
0.000161828
0.000136946
0.000642303
0.000531622
0.000422933
0.000331511
0.000260801
0.000207021
0.000165969
0.000134534
0.00068956
0.00056
0.000455918
0.000364937
0.000290708
0.00023193
0.000185449
0.000148429
0.000752499
0.000586279
0.000472056
0.000387846
0.000320157
0.000262347
0.000212759
0.000171201
0.000763888
0.000588575
0.000467406
0.000380154
0.000312253
0.000257109
0.000211874
0.000174389
0.000799783
0.000629173
0.000513699
0.000429156
0.000360662
0.000300593
0.000247183
0.00020034
0.000741384
0.000599777
0.000484495
0.000387165
0.000310281
0.000250921
0.000204838
0.000168267
0.00068233
0.000547861
0.000423175
0.000325928
0.000254651
0.000202513
0.000163769
0.000134452
0.00148821
0.000941384
0.000575029
0.000382532
0.000273732
0.000205451
0.000159608
0.000127839
0.00172181
0.00113182
0.000707198
0.000473646
0.000341189
0.000259004
0.000203223
0.000162663
0.00197368
0.00138773
0.000935179
0.000662175
0.000492794
0.000376346
0.000287794
0.000220486
0.00190171
0.00132097
0.000873559
0.000597559
0.000428602
0.000321604
0.00025054
0.000200106
0.00203433
0.00143221
0.000969809
0.000693628
0.00052753
0.000417165
0.000331503