/*--------------------------------*- C++ -*----------------------------------*\
| =========                 |                                                 |
| \\      /  F ield         | OpenFOAM: The Open Source CFD Toolbox           |
|  \\    /   O peration     | Version:  plus.master                           |
|   \\  /    A nd           | Web:      www.OpenFOAM.com                      |
|    \\/     M anipulation  |                                                 |
\*---------------------------------------------------------------------------*/
FoamFile
{
    version     2.0;
    format      ascii;
    class       volVectorField;
    location    "7.4";
    object      U;
}
// * * * * * * * * * * * * * * * * * * * * * * * * * * * * * * * * * * * * * //

dimensions      [0 1 -1 0 0 0 0];

internalField   nonuniform List<vector> 
47285
(
(0.0484038 0.0557835 -0.00510134)
(0.0347109 0.0593296 0.0011877)
(0.0132831 0.0617483 0.0150274)
(-0.0187797 0.0554583 0.0204542)
(-0.0434441 0.0580115 0.00702094)
(-0.0604439 0.0528417 -0.0050306)
(-0.0693958 0.0482428 -0.00855424)
(0.0540017 0.046746 0.000529408)
(0.0901292 0.101133 0.0596276)
(0.0640445 0.0997546 0.11428)
(-0.0241607 0.0854095 0.140426)
(-0.0998211 0.0962139 0.108728)
(-0.106782 0.0839621 0.044508)
(-0.0718853 0.0371669 -0.00693586)
(0.0591215 0.0272603 0.0135969)
(0.098399 0.0798982 0.120448)
(0.21798 0.21734 0.554876)
(-0.0163316 0.217911 0.747365)
(-0.228144 0.223803 0.481935)
(-0.0999195 0.0643034 0.0853977)
(-0.0718837 0.0214021 0.00305319)
(0.0548564 0.000254122 0.0231979)
(0.0840112 0.00193136 0.13854)
(0.216794 0.00491089 0.695499)
(-0.0123105 0.0123433 2.02731)
(-0.196913 0.00353049 0.657236)
(-0.0850185 0.000794167 0.119412)
(-0.0626179 -0.000405549 0.0122967)
(0.0595324 -0.0267786 0.0136573)
(0.0988084 -0.0764157 0.120124)
(0.219557 -0.211499 0.565865)
(-0.015444 -0.211921 0.786291)
(-0.22805 -0.21949 0.488397)
(-0.100382 -0.063307 0.0857875)
(-0.0698561 -0.0215542 0.00305976)
(0.0545426 -0.0461889 0.000216676)
(0.0922153 -0.0983915 0.0592383)
(0.0667775 -0.0980789 0.117818)
(-0.0237093 -0.0847908 0.145906)
(-0.101137 -0.0950486 0.110334)
(-0.107292 -0.0832376 0.0442874)
(-0.0681772 -0.0364565 -0.00699615)
(0.0495502 -0.0568627 -0.00598649)
(0.0368459 -0.0608777 -0.000221444)
(0.0140285 -0.0626992 0.0144121)
(-0.0194008 -0.0561718 0.0203495)
(-0.044766 -0.0597965 0.00645928)
(-0.0621294 -0.0547172 -0.00578128)
(-0.0721381 -0.0485953 -0.00903558)
(0.0203109 0.0251976 0.025214)
(0.00804846 0.0218781 0.0440195)
(-0.00424392 0.00322545 0.0814745)
(-0.0179901 -0.00239029 0.0922242)
(-0.0287942 0.00333792 0.0567942)
(-0.0352827 0.0125139 0.0269863)
(-0.0405121 0.0136156 0.0186411)
(0.0186667 0.0184122 0.0397832)
(0.0108561 0.0233485 0.156939)
(0.00665094 0.00272705 0.244716)
(-0.0125544 -0.00235599 0.29435)
(-0.0315327 -0.00322608 0.229747)
(-0.0338091 0.00614461 0.12209)
(-0.0360917 0.00439081 0.0224648)
(0.00376681 0.0115823 0.0711041)
(-0.000793081 0.0221432 0.244347)
(0.0105372 0.00318436 0.924894)
(0.0059083 0.000376089 1.1677)
(-0.00905762 0.0137188 0.821656)
(-0.00644274 0.00540996 0.20031)
(-0.0185153 -0.000626766 0.0459189)
(0.00220155 -0.000176489 0.0887985)
(-0.000426333 0.000244736 0.26126)
(0.0331238 0.00207798 1.08112)
(0.069445 0.01037 3.3058)
(0.0197161 0.000624993 1.18707)
(0.00189523 -0.000483809 0.299001)
(-0.004246 -0.000573969 0.0738358)
(0.00277401 -0.0119237 0.0722584)
(-0.00129033 -0.021162 0.248173)
(0.00739612 -0.00226206 0.939988)
(0.00673197 0.00893991 1.24766)
(-0.00591032 -0.0138407 0.838453)
(-0.00547813 -0.00607054 0.203814)
(-0.017281 -0.000157833 0.0463522)
(0.0176646 -0.0188272 0.0396057)
(0.0105607 -0.0220137 0.158459)
(0.00612187 -0.0021775 0.253928)
(-0.0115584 0.0034873 0.312269)
(-0.0293946 0.00362065 0.235498)
(-0.0323326 -0.00601273 0.123279)
(-0.0347648 -0.00473434 0.0222801)
(0.019474 -0.0257157 0.0234133)
(0.00756173 -0.0219282 0.0426252)
(-0.00427165 -0.0022906 0.0826819)
(-0.0172876 0.00454809 0.0966468)
(-0.02775 -0.00284087 0.0575806)
(-0.0342279 -0.012686 0.0258322)
(-0.0394072 -0.0137274 0.0173605)
(0.0171033 0.0231446 0.0804887)
(0.00311323 0.0156354 0.110608)
(-0.0115517 -0.000690549 0.161798)
(-0.0202759 -0.0145796 0.183533)
(-0.024812 -0.00719981 0.133844)
(-0.0306549 0.00385843 0.0881651)
(-0.0374785 0.0112019 0.0718813)
(0.011794 0.0161259 0.103834)
(-0.00209523 0.00980899 0.194197)
(-0.011762 -0.0100608 0.303789)
(-0.0159042 -0.0258853 0.388428)
(-0.0164722 -0.0224224 0.28812)
(-0.0203029 -0.00994561 0.155639)
(-0.0312961 -0.00111307 0.0816999)
(0.00210234 0.0105667 0.143752)
(-0.0130371 0.0110423 0.290329)
(-0.0171407 -0.00883097 0.708659)
(0.00171122 -0.0517085 1.16739)
(0.0108507 -0.0243932 0.684145)
(0.00731028 -0.014895 0.262348)
(-0.0142325 -0.00990754 0.112338)
(0.00284269 -0.00076195 0.16605)
(-0.0100549 -0.000864078 0.329455)
(0.00565776 -0.00033627 0.934469)
(0.0694925 0.0036061 2.91212)
(0.0685832 -0.00171111 1.27592)
(0.0267961 -0.00134446 0.388672)
(0.00834984 -0.000988729 0.153119)
(0.000349155 -0.0115766 0.145087)
(-0.0148125 -0.0115785 0.294797)
(-0.0210686 0.00871218 0.729546)
(0.00221149 0.0600893 1.24769)
(0.0145078 0.0232588 0.696511)
(0.00921039 0.0130917 0.265421)
(-0.012691 0.00846798 0.112592)
(0.0101214 -0.0167809 0.103714)
(-0.00386844 -0.00955004 0.196674)
(-0.0135308 0.0105067 0.310751)
(-0.0146035 0.0278627 0.404)
(-0.0129693 0.0222157 0.293449)
(-0.017813 0.00927964 0.157207)
(-0.0294015 0.000313802 0.0810572)
(0.0160046 -0.023696 0.078083)
(0.0019961 -0.0158623 0.109431)
(-0.0120218 0.00143167 0.163082)
(-0.0188809 0.0171487 0.188776)
(-0.0221752 0.0075578 0.135422)
(-0.0284504 -0.00415325 0.0868217)
(-0.0357092 -0.0114576 0.0698386)
(0.0335811 0.0389711 0.170188)
(0.013503 0.0277461 0.200372)
(-0.00935484 0.0106827 0.253847)
(-0.0215527 -0.00735315 0.277049)
(-0.0276811 0.00380889 0.224339)
(-0.0393918 0.0184133 0.181953)
(-0.0521412 0.0300861 0.163242)
(0.0262928 0.0267216 0.193884)
(0.00584226 0.0180597 0.267552)
(-0.0153764 0.000470427 0.384615)
(-0.0220164 -0.0239723 0.465666)
(-0.0211874 -0.0161513 0.357301)
(-0.0312716 -0.00209311 0.230168)
(-0.0477098 0.011884 0.174688)
(0.0167161 0.0155088 0.23397)
(-0.00244881 0.0132584 0.362186)
(-0.0172654 0.000143652 0.673842)
(-0.0148827 -0.049076 1.07728)
(-0.00319268 -0.0258389 0.640519)
(-0.00816642 -0.016314 0.32821)
(-0.0344506 -0.00541669 0.198416)
(0.0144881 -0.000988878 0.260945)
(-0.00059466 -0.00160143 0.417252)
(-0.000703639 -0.00179532 0.86843)
(0.0326611 -0.00096166 2.36679)
(0.037426 -0.00235948 1.13086)
(0.0168163 -0.00172889 0.423777)
(-0.0142473 -0.00129583 0.226974)
(0.0149239 -0.0169552 0.235107)
(-0.00456138 -0.0152181 0.364926)
(-0.0202355 -0.00204329 0.684435)
(-0.0144945 0.0519718 1.12386)
(0.000286918 0.0232428 0.645809)
(-0.00618488 0.0131948 0.328589)
(-0.0331867 0.00286137 0.198401)
(0.0245975 -0.0279286 0.194028)
(0.00412916 -0.0193429 0.268597)
(-0.0167609 -0.00105788 0.387305)
(-0.020474 0.0247124 0.473313)
(-0.0176139 0.0145322 0.359616)
(-0.028709 -0.00042273 0.230614)
(-0.0457766 -0.0140649 0.174406)
(0.0331901 -0.0402744 0.168418)
(0.0130692 -0.0294563 0.198628)
(-0.00920318 -0.0117789 0.253009)
(-0.01964 0.00780379 0.278919)
(-0.0247254 -0.00507511 0.224828)
(-0.0371513 -0.0202344 0.180983)
(-0.0505242 -0.0317437 0.161965)
(0.0469063 0.0533227 0.323413)
(0.024561 0.042592 0.347771)
(-0.00156901 0.026157 0.39028)
(-0.0189687 0.00961728 0.410054)
(-0.0291918 0.0244694 0.36539)
(-0.0452139 0.0400703 0.332696)
(-0.060513 0.0512294 0.31611)
(0.0411201 0.0368579 0.34288)
(0.017219 0.0286372 0.400155)
(-0.0101791 0.014515 0.503264)
(-0.0232954 -0.0113138 0.566719)
(-0.0283986 0.00184936 0.464456)
(-0.0438028 0.0172728 0.363223)
(-0.0613179 0.0296392 0.325804)
(0.0321198 0.020549 0.376279)
(0.0114605 0.0175635 0.485007)
(-0.01147 0.0086329 0.731057)
(-0.0208174 -0.0350407 1.04021)
(-0.0204635 -0.0136591 0.669184)
(-0.0305582 -0.00316272 0.433579)
(-0.0560272 0.00792777 0.340741)
(0.0271466 -0.000163928 0.402598)
(0.00993709 -0.0012875 0.543839)
(-0.00511105 -0.00184183 0.920414)
(-0.00679663 -0.000777976 2.10119)
(-0.00630131 -0.00175283 0.956988)
(-0.00881361 -0.00163104 0.493926)
(-0.0450054 -0.000939562 0.35701)
(0.0309276 -0.020616 0.377157)
(0.0100138 -0.0192533 0.485515)
(-0.0134528 -0.0107394 0.733675)
(-0.0196725 0.0355103 1.05975)
(-0.0175459 0.0110804 0.670055)
(-0.0290152 0.000469056 0.43363)
(-0.0552112 -0.00922447 0.340694)
(0.0405211 -0.0367296 0.342813)
(0.0166087 -0.0298283 0.399711)
(-0.0105884 -0.0156954 0.502641)
(-0.0215177 0.0112082 0.56856)
(-0.0255065 -0.00339592 0.465163)
(-0.0421321 -0.0188329 0.363232)
(-0.0604631 -0.0301265 0.325305)
(0.0482039 -0.0529989 0.32166)
(0.0256463 -0.0437034 0.345532)
(-0.000268106 -0.0276868 0.387858)
(-0.0168591 -0.00996483 0.40974)
(-0.026942 -0.0252598 0.364901)
(-0.0440687 -0.0405704 0.331374)
(-0.0602464 -0.0509159 0.314658)
(-0.0651669 0.0298861 -0.00654411)
(-0.0612293 0.023992 -0.00456975)
(-0.0566285 0.0235332 -0.00314618)
(-0.0525997 0.0221748 -0.0023634)
(-0.049735 0.0213448 -0.00207146)
(-0.0474413 0.0207029 -0.00218939)
(-0.045751 0.0203238 -0.00260488)
(-0.0440189 0.0197543 -0.00319859)
(-0.0669824 0.0202391 -0.00877113)
(-0.070869 0.0134637 -0.00591657)
(-0.0621862 0.0136928 -0.00391977)
(-0.057104 0.0136817 -0.00274076)
(-0.0544088 0.0136414 -0.00214318)
(-0.0517891 0.0133074 -0.00202345)
(-0.0497783 0.0128739 -0.00221286)
(-0.0474137 0.0123697 -0.00258559)
(-0.0619673 0.00983594 -0.00885065)
(-0.0696489 0.00723449 -0.00744214)
(-0.0622886 0.00746936 -0.005014)
(-0.0584474 0.00765267 -0.00315702)
(-0.0548597 0.00757702 -0.00220214)
(-0.0530956 0.00779134 -0.0017433)
(-0.0498733 0.00764802 -0.00170074)
(-0.0485552 0.00738418 -0.001929)
(-0.0594744 0.000894353 -0.00794859)
(-0.0667701 0.00115993 -0.0077345)
(-0.0605379 0.000529938 -0.00522884)
(-0.0562196 0.000569038 -0.00321638)
(-0.0529826 0.000646573 -0.00217415)
(-0.0513982 0.000727618 -0.00166988)
(-0.0507921 0.000792506 -0.00153074)
(-0.0464848 0.000761905 -0.00157577)
(-0.0641427 -0.00814399 -0.0092877)
(-0.0675015 -0.00467885 -0.00766711)
(-0.0616756 -0.00643859 -0.00517972)
(-0.0576777 -0.00625751 -0.00318655)
(-0.0541913 -0.00597387 -0.00222915)
(-0.0522519 -0.00596749 -0.0018146)
(-0.0490571 -0.00566665 -0.00176864)
(-0.047724 -0.00513953 -0.00201548)
(-0.0706068 -0.0206581 -0.00918465)
(-0.0637048 -0.0118611 -0.00631397)
(-0.0641853 -0.013726 -0.00406506)
(-0.0563125 -0.0126137 -0.00287385)
(-0.0535487 -0.0124663 -0.00228531)
(-0.050741 -0.0120355 -0.00218071)
(-0.0490963 -0.0117048 -0.00235962)
(-0.0462664 -0.0110001 -0.00271489)
(-0.065236 -0.0318472 -0.00707735)
(-0.0615672 -0.0230319 -0.00491784)
(-0.0565192 -0.0221045 -0.00350605)
(-0.0518644 -0.020756 -0.00277187)
(-0.0490173 -0.0197472 -0.00255436)
(-0.0468101 -0.0188868 -0.00275538)
(-0.0450546 -0.0181756 -0.00324064)
(-0.0434615 -0.0173001 -0.00389172)
(-0.043501 0.0139028 0.0198949)
(-0.04526 0.0165369 0.0209744)
(-0.0466641 0.0187685 0.020601)
(-0.0476193 0.02041 0.0192685)
(-0.0480375 0.021523 0.0172525)
(-0.0479391 0.0221813 0.014762)
(-0.0473821 0.0224534 0.0119736)
(-0.0463988 0.0223722 0.00902578)
(-0.0425732 0.00606058 0.0168703)
(-0.0457708 0.00930906 0.0192106)
(-0.0480447 0.011742 0.0196962)
(-0.0497449 0.0135086 0.0189426)
(-0.0506551 0.0146766 0.017244)
(-0.050794 0.0153502 0.0149183)
(-0.0502692 0.0156311 0.0122076)
(-0.0491488 0.0155839 0.00928657)
(-0.036796 -0.000674902 0.0149234)
(-0.0426949 0.00288113 0.0172575)
(-0.0466288 0.00501471 0.0190827)
(-0.0495325 0.00644262 0.019203)
(-0.0512298 0.00738645 0.0178065)
(-0.0518332 0.00795996 0.0155518)
(-0.0515065 0.00824171 0.0128204)
(-0.0504325 0.00829211 0.00978813)
(-0.0321393 -0.000194992 0.0168602)
(-0.039847 2.02815e-05 0.016425)
(-0.0448399 0.000125282 0.0187075)
(-0.0484599 0.000238032 0.0192223)
(-0.0507033 0.000350915 0.0180107)
(-0.0516618 0.000456903 0.0157234)
(-0.051569 0.000551661 0.012839)
(-0.050592 0.000635681 0.00977164)
(-0.0360759 0.000505222 0.0144045)
(-0.0418761 -0.00270463 0.016793)
(-0.0458713 -0.00462167 0.0187919)
(-0.0487959 -0.00578481 0.0191109)
(-0.0505291 -0.00647329 0.0177836)
(-0.0511761 -0.00680983 0.0155373)
(-0.0509001 -0.00687639 0.0128306)
(-0.0498861 -0.00673385 0.00980442)
(-0.0414673 -0.00611686 0.0160464)
(-0.0444899 -0.00906852 0.0185572)
(-0.0469168 -0.0112711 0.0193486)
(-0.0485841 -0.0127717 0.0186175)
(-0.0495248 -0.0136949 0.0169771)
(-0.0497064 -0.01413 0.0146825)
(-0.0492416 -0.0141809 0.0119791)
(-0.0481857 -0.0139106 0.00906294)
(-0.0423056 -0.0137824 0.0187134)
(-0.0440064 -0.0160875 0.0199466)
(-0.0453842 -0.0180244 0.0196466)
(-0.0462974 -0.0193968 0.0183351)
(-0.0467116 -0.0202317 0.0163461)
(-0.0466296 -0.0206129 0.013888)
(-0.0461056 -0.0206145 0.0111334)
(-0.0451681 -0.0202715 0.00819713)
(-0.0441163 0.0169458 0.0641658)
(-0.0487123 0.0234578 0.0579149)
(-0.052607 0.0285667 0.0503229)
(-0.0556606 0.0324965 0.0416576)
(-0.0578754 0.0354501 0.0323649)
(-0.0593003 0.0375602 0.0228827)
(-0.0599293 0.0388769 0.013673)
(-0.0596572 0.0393522 0.00526535)
(-0.0412817 0.00669006 0.066934)
(-0.0488423 0.0133685 0.0600892)
(-0.0547381 0.0181577 0.0527522)
(-0.0594094 0.0217215 0.0441749)
(-0.0628546 0.024316 0.0346691)
(-0.0651687 0.0261137 0.0247252)
(-0.066363 0.0272014 0.0149067)
(-0.0663049 0.0275814 0.00587869)
(-0.0337821 -0.0017043 0.0709178)
(-0.0450092 0.00430555 0.0620771)
(-0.0533807 0.00794038 0.0550176)
(-0.0599616 0.0104843 0.0467226)
(-0.0647967 0.0122846 0.0371897)
(-0.0680598 0.013529 0.0269578)
(-0.0698504 0.0143162 0.0166871)
(-0.070075 0.0146564 0.00715804)
(-0.0257294 -0.000371619 0.0746651)
(-0.041043 -5.10534e-05 0.0625845)
(-0.0512063 0.000147301 0.0556382)
(-0.0589857 0.000327447 0.0475972)
(-0.0646697 0.000500825 0.038142)
(-0.0685089 0.000651363 0.027848)
(-0.0706888 0.000763741 0.0174412)
(-0.0711403 0.000836242 0.00775691)
(-0.0327837 0.00119356 0.0706693)
(-0.0441567 -0.00428358 0.0617761)
(-0.0526189 -0.00750954 0.0547465)
(-0.0592792 -0.00967535 0.0464886)
(-0.0641963 -0.0111391 0.0369739)
(-0.0675483 -0.0120919 0.0267455)
(-0.0694335 -0.0126276 0.0164726)
(-0.0697519 -0.0127657 0.00693954)
(-0.0397834 -0.00696065 0.0660161)
(-0.0474774 -0.0132024 0.0591643)
(-0.0535059 -0.017604 0.0518639)
(-0.058309 -0.020812 0.0433101)
(-0.0618922 -0.0230931 0.0338204)
(-0.0643416 -0.0246232 0.0238849)
(-0.065667 -0.0254871 0.014075)
(-0.0657387 -0.0256738 0.00506814)
(-0.0425858 -0.0168843 0.0622264)
(-0.0472957 -0.0230409 0.0558482)
(-0.051314 -0.0278114 0.0481445)
(-0.0544901 -0.0314196 0.0393838)
(-0.0568268 -0.0340679 0.0300202)
(-0.0583701 -0.0358921 0.0205003)
(-0.0591126 -0.0369433 0.0112985)
(-0.0589504 -0.0371726 0.00295569)
(-0.0645307 0.0393286 0.150912)
(-0.0725834 0.0500344 0.140538)
(-0.0799271 0.0586751 0.12896)
(-0.0858469 0.0653171 0.116345)
(-0.0899617 0.0700109 0.102854)
(-0.0918451 0.0726353 0.0884766)
(-0.090946 0.072899 0.0728398)
(-0.0866641 0.0704233 0.0551313)
(-0.0631309 0.0214759 0.157525)
(-0.0754932 0.0309406 0.146193)
(-0.0860732 0.0384342 0.134455)
(-0.0949032 0.044239 0.121603)
(-0.101459 0.0483883 0.107674)
(-0.105155 0.0507896 0.0926464)
(-0.10522 0.0512118 0.0760997)
(-0.100832 0.0493547 0.0570274)
(-0.0568896 0.00573582 0.163866)
(-0.0733461 0.0130845 0.150726)
(-0.0871904 0.0182875 0.138995)
(-0.0987332 0.0221004 0.126216)
(-0.1074 0.0247519 0.11217)
(-0.112613 0.0262947 0.0968278)
(-0.113516 0.0266493 0.0797506)
(-0.109146 0.0256757 0.0598103)
(-0.0495788 -0.000685826 0.168065)
(-0.0697397 -0.000352979 0.15264)
(-0.0856082 -7.37197e-05 0.14085)
(-0.0987571 0.000202045 0.128162)
(-0.108592 0.00043824 0.114116)
(-0.11458 0.000621543 0.0986852)
(-0.11592 0.000752842 0.08143)
(-0.111642 0.000838888 0.061182)
(-0.0560178 -0.00714648 0.163949)
(-0.0725605 -0.0138133 0.150868)
(-0.0864828 -0.0184146 0.139225)
(-0.0980949 -0.0217132 0.126533)
(-0.10684 -0.0239327 0.112553)
(-0.112128 -0.0251201 0.0972493)
(-0.113102 -0.0251848 0.0801733)
(-0.108808 -0.0239771 0.0601886)
(-0.061667 -0.0227962 0.157326)
(-0.0741879 -0.0315893 0.1461)
(-0.0849327 -0.038538 0.134484)
(-0.0939329 -0.0438504 0.121757)
(-0.100634 -0.0475609 0.107925)
(-0.104458 -0.0495733 0.0929493)
(-0.104642 -0.0496458 0.0763925)
(-0.100382 -0.0474739 0.0572284)
(-0.0632384 -0.0403926 0.149838)
(-0.0715094 -0.050607 0.139425)
(-0.0790226 -0.0588069 0.127827)
(-0.0850508 -0.0650404 0.115182)
(-0.0892529 -0.0693417 0.101639)
(-0.0912033 -0.0715691 0.0871592)
(-0.0903634 -0.0714193 0.0713441)
(-0.0861668 -0.0685221 0.0533425)
(-0.0737825 0.0596366 0.301892)
(-0.0816864 0.071696 0.286452)
(-0.0901371 0.0826298 0.264759)
(-0.0983581 0.0923422 0.235059)
(-0.106354 0.100972 0.195849)
(-0.115066 0.10932 0.146184)
(-0.12586 0.118398 0.0862603)
(-0.13548 0.125341 0.0186893)
(-0.0771704 0.0372251 0.309631)
(-0.0894608 0.0470824 0.294798)
(-0.101283 0.0558459 0.274815)
(-0.112712 0.0634915 0.246868)
(-0.123655 0.0700543 0.20872)
(-0.135211 0.0760593 0.158729)
(-0.14934 0.0824202 0.0964722)
(-0.162316 0.0873847 0.0242251)
(-0.0757178 0.0160968 0.315686)
(-0.0915696 0.0228378 0.300496)
(-0.106388 0.0282757 0.281783)
(-0.120467 0.0327794 0.255378)
(-0.133703 0.0364768 0.218311)
(-0.147331 0.0396854 0.168342)
(-0.163692 0.0429565 0.104595)
(-0.178826 0.0454642 0.0291501)
(-0.0720735 -1.30036e-05 0.319308)
(-0.0904457 0.00055612 0.302976)
(-0.10711 0.00101829 0.284574)
(-0.122589 0.00138756 0.258722)
(-0.136866 0.00162883 0.222065)
(-0.151333 0.00172913 0.172107)
(-0.168515 0.00169992 0.107802)
(-0.184397 0.00156993 0.0311651)
(-0.0752835 -0.0159606 0.315671)
(-0.0913429 -0.0217489 0.300518)
(-0.106353 -0.0263947 0.281846)
(-0.120596 -0.0302757 0.25545)
(-0.133964 -0.0335563 0.218347)
(-0.147692 -0.0365619 0.168292)
(-0.164117 -0.0398253 0.104429)
(-0.179279 -0.0424867 0.0288711)
(-0.0767376 -0.0366598 0.30923)
(-0.0893662 -0.0455992 0.294368)
(-0.101534 -0.0535211 0.274342)
(-0.113297 -0.0604765 0.246314)
(-0.12453 -0.0665552 0.208028)
(-0.136305 -0.0723042 0.157851)
(-0.150573 -0.0786329 0.0954051)
(-0.163618 -0.0837805 0.0230249)
(-0.0739796 -0.0585227 0.300436)
(-0.0822735 -0.0697471 0.284697)
(-0.0910787 -0.0799039 0.262676)
(-0.0996158 -0.0889501 0.232612)
(-0.107867 -0.0970651 0.193022)
(-0.116755 -0.105073 0.14299)
(-0.127664 -0.11402 0.0827561)
(-0.137379 -0.121095 0.014998)
(0.0447809 -0.0440567 -0.00546704)
(0.0391837 -0.0391394 -0.0041018)
(0.0354982 -0.036326 -0.00332684)
(0.0329332 -0.0348008 -0.00314192)
(0.0310942 -0.0342126 -0.00340136)
(0.0293994 -0.0338688 -0.00397478)
(0.0280031 -0.0335935 -0.00471507)
(0.0264073 -0.0330125 -0.00553194)
(0.0534188 -0.0322051 -0.00536965)
(0.0457447 -0.0273212 -0.00391309)
(0.0394582 -0.0263194 -0.00245739)
(0.0358109 -0.0249614 -0.00159928)
(0.0339313 -0.0242277 -0.00118379)
(0.0312128 -0.0226069 -0.00122863)
(0.031118 -0.0223105 -0.00131048)
(0.029472 -0.0208109 -0.00145523)
(0.0541529 -0.0134874 -0.00520649)
(0.0522763 -0.012885 -0.00383363)
(0.0408144 -0.0136978 -0.0017199)
(0.0358023 -0.0136229 -0.000202111)
(0.0323204 -0.0137794 0.000752822)
(0.0304112 -0.0148313 0.00132014)
(0.0266948 -0.0150553 0.00137181)
(0.0255455 -0.0172941 0.00171578)
(0.0532566 0.000192896 -0.00289837)
(0.0551198 0.000462814 -0.00174073)
(0.0433265 0.000600127 0.0010755)
(0.0387996 0.000447748 0.00369337)
(0.0352295 0.000187703 0.00571069)
(0.0324232 -0.000193202 0.00688712)
(0.0294609 -0.000202154 0.00709423)
(0.0270537 0.00114212 0.00699052)
(0.0534922 0.0134833 -0.00551396)
(0.0527952 0.0133897 -0.00401048)
(0.041286 0.0143939 -0.0016353)
(0.0364217 0.0148616 0.000320546)
(0.0324056 0.0163014 0.00158837)
(0.0302443 0.0178755 0.0021196)
(0.0280569 0.0186976 0.0018118)
(0.0247264 0.018294 0.00114436)
(0.053259 0.0318082 -0.00555449)
(0.0461439 0.026089 -0.00414921)
(0.0403741 0.0258084 -0.00260237)
(0.0379717 0.0253656 -0.0016347)
(0.0341284 0.0232598 -0.00144465)
(0.0341512 0.0234319 -0.00130877)
(0.0314158 0.0222272 -0.00139285)
(0.0319031 0.022889 -0.00155868)
(0.0446586 0.0426274 -0.00511954)
(0.0408393 0.0381217 -0.00367417)
(0.0365818 0.0355837 -0.00293537)
(0.0347099 0.035219 -0.00265885)
(0.0327782 0.0348859 -0.0028389)
(0.0311773 0.0345484 -0.00336281)
(0.029668 0.0342807 -0.00411845)
(0.0282899 0.033831 -0.00500329)
(0.0236043 -0.0254614 0.0227221)
(0.0256806 -0.0271613 0.022408)
(0.027763 -0.0285648 0.0210621)
(0.0294211 -0.0296309 0.0187966)
(0.0305068 -0.0303096 0.0159111)
(0.0310363 -0.0305925 0.01265)
(0.0310555 -0.030489 0.00917831)
(0.0305943 -0.0300099 0.00557764)
(0.024148 -0.0180154 0.0256075)
(0.0263869 -0.0198962 0.0251635)
(0.0284284 -0.0213056 0.0250071)
(0.0301911 -0.0224265 0.0238237)
(0.0313666 -0.0232696 0.0216917)
(0.0318871 -0.0238047 0.0189479)
(0.0318274 -0.0240632 0.0157883)
(0.0311699 -0.0240207 0.0124369)
(0.019104 -0.00846619 0.033747)
(0.0234384 -0.00987588 0.0295713)
(0.026117 -0.0109868 0.0300929)
(0.0282978 -0.0118376 0.0302724)
(0.029662 -0.0125858 0.0294506)
(0.0301994 -0.0132312 0.027796)
(0.0299253 -0.0137274 0.0257372)
(0.0289856 -0.0140984 0.0232548)
(0.017648 -0.00023871 0.0405213)
(0.0229082 0.000100769 0.032593)
(0.0257868 0.000402304 0.0332788)
(0.0281683 0.000667757 0.0341551)
(0.0295594 0.000926874 0.0340724)
(0.0299882 0.001179 0.0331443)
(0.0295623 0.00144085 0.031685)
(0.028441 0.00172291 0.0298556)
(0.0195642 0.00804585 0.0337388)
(0.0241449 0.00991894 0.0296403)
(0.0269479 0.0114802 0.0300339)
(0.0292023 0.0127577 0.0299327)
(0.0305381 0.0139039 0.0288087)
(0.0310069 0.0148634 0.0268151)
(0.0306877 0.0155871 0.0243389)
(0.0297149 0.0160956 0.0216739)
(0.025079 0.0175367 0.0261287)
(0.0275375 0.0196234 0.0255516)
(0.0297517 0.0213225 0.0249918)
(0.0316447 0.0227048 0.0234388)
(0.0328844 0.0237692 0.0210832)
(0.033494 0.0245717 0.0180702)
(0.033394 0.0250595 0.0147394)
(0.0327073 0.025258 0.011167)
(0.0245951 0.0249927 0.0240944)
(0.0267879 0.0268748 0.0236507)
(0.028919 0.0284904 0.0222035)
(0.0306238 0.0297781 0.0198289)
(0.0317248 0.0306586 0.0168619)
(0.0322519 0.0311425 0.0135555)
(0.0322451 0.0312578 0.0100618)
(0.031739 0.0310191 0.0064752)
(0.0250542 -0.0273411 0.0674659)
(0.0309167 -0.0320541 0.0595882)
(0.035998 -0.0357914 0.0509114)
(0.0401745 -0.0386861 0.0410562)
(0.043392 -0.0408133 0.0304494)
(0.0456926 -0.0422471 0.0196377)
(0.047082 -0.0430088 0.00920328)
(0.0474773 -0.0430365 -0.000212675)
(0.0217132 -0.0193343 0.0781638)
(0.0295625 -0.0230422 0.0687264)
(0.0357283 -0.025738 0.0610756)
(0.0408794 -0.0278784 0.0524253)
(0.0449856 -0.0294972 0.0425735)
(0.0480463 -0.030611 0.0319437)
(0.0500212 -0.0312267 0.02116)
(0.0507593 -0.0312983 0.0110063)
(0.0155037 -0.0103653 0.0932956)
(0.0246632 -0.0118097 0.0791151)
(0.0316824 -0.0129757 0.0723408)
(0.037428 -0.013996 0.0656114)
(0.042008 -0.014842 0.0576048)
(0.045401 -0.0154562 0.048413)
(0.047564 -0.0158156 0.0385897)
(0.0483617 -0.0158917 0.028934)
(0.0140256 -0.000109134 0.102322)
(0.0226279 0.000611976 0.0844853)
(0.0297857 0.00111488 0.077789)
(0.0357016 0.00152859 0.0719274)
(0.0404593 0.00191121 0.0649216)
(0.0440082 0.00226341 0.0566295)
(0.0462922 0.00256986 0.0475082)
(0.0471805 0.00282714 0.038335)
(0.0165916 0.010213 0.0929144)
(0.0257114 0.0126158 0.0786473)
(0.0327606 0.0145209 0.0714695)
(0.0385478 0.0161414 0.0642326)
(0.0431564 0.0174881 0.0556947)
(0.0465716 0.018501 0.045981)
(0.0487574 0.0191491 0.035668)
(0.0495708 0.0194154 0.0256059)
(0.0231406 0.019197 0.0786651)
(0.0308937 0.0234629 0.0690276)
(0.0370239 0.0266743 0.0609477)
(0.042135 0.0292557 0.0518168)
(0.0461706 0.031236 0.0415159)
(0.049127 0.0326318 0.0305066)
(0.0509605 0.0334429 0.0194393)
(0.0515271 0.0336262 0.00910266)
(0.0259669 0.0271409 0.0696407)
(0.0316003 0.0321706 0.0618596)
(0.0365197 0.0362236 0.0531832)
(0.0405474 0.0394176 0.0433009)
(0.043622 0.0418301 0.0326592)
(0.0457806 0.0435323 0.0218045)
(0.0470232 0.0445383 0.0113118)
(0.0472673 0.0447838 0.00181443)
(0.048748 -0.0462241 0.153804)
(0.05934 -0.0543377 0.141816)
(0.0687382 -0.0609773 0.129098)
(0.0765095 -0.0660205 0.11532)
(0.0822176 -0.0693422 0.100619)
(0.0854378 -0.0707219 0.0850061)
(0.0856256 -0.0697886 0.0680971)
(0.0822208 -0.0661425 0.0490119)
(0.0427593 -0.031409 0.16815)
(0.0570052 -0.0368176 0.154727)
(0.0691215 -0.0411361 0.142869)
(0.0796562 -0.0444211 0.130183)
(0.0880185 -0.0465015 0.116328)
(0.093518 -0.0471721 0.101274)
(0.0952869 -0.0461209 0.084657)
(0.0923983 -0.0429753 0.0654893)
(0.034208 -0.0163911 0.185234)
(0.049806 -0.0182365 0.168103)
(0.0632439 -0.0198942 0.157246)
(0.0751321 -0.0213039 0.146516)
(0.0848436 -0.022252 0.134671)
(0.0914566 -0.0225456 0.121506)
(0.0938816 -0.0219737 0.106644)
(0.0910179 -0.0203076 0.0890377)
(0.0308887 0.000288325 0.194735)
(0.0462972 0.00118944 0.174132)
(0.0600445 0.00172306 0.163281)
(0.0723101 0.00207836 0.153286)
(0.0824819 0.00230684 0.142307)
(0.0895227 0.00242156 0.129979)
(0.092244 0.00243881 0.115882)
(0.0894517 0.0023767 0.0989239)
(0.0358102 0.0167845 0.183971)
(0.0514536 0.0199614 0.166394)
(0.0649844 0.0225141 0.154883)
(0.0769571 0.0245257 0.143388)
(0.0867228 0.0258353 0.130735)
(0.0933648 0.026286 0.116752)
(0.0957932 0.0257062 0.101079)
(0.0928966 0.0239056 0.082676)
(0.0444211 0.031542 0.16748)
(0.0585256 0.0379531 0.153516)
(0.0705637 0.0431148 0.140969)
(0.0809801 0.047073 0.127537)
(0.0891673 0.0496665 0.112952)
(0.0944402 0.0507075 0.0972219)
(0.0959357 0.0499044 0.0799948)
(0.0927488 0.0469155 0.0602813)
(0.0489538 0.0459091 0.154979)
(0.0591507 0.0546771 0.142986)
(0.0682679 0.0619613 0.1302)
(0.0757742 0.0676212 0.116348)
(0.0812284 0.0715323 0.101602)
(0.0841991 0.073471 0.0859986)
(0.0841354 0.0730651 0.0691769)
(0.0804635 0.0699061 0.0502819)
(0.0657826 -0.0578228 0.305889)
(0.0775315 -0.0663663 0.28927)
(0.0890589 -0.0739386 0.266975)
(0.0999188 -0.0806397 0.236801)
(0.110001 -0.0867434 0.197014)
(0.120198 -0.0931697 0.146423)
(0.131898 -0.101061 0.0849856)
(0.141913 -0.10769 0.0152639)
(0.0610522 -0.038646 0.320698)
(0.0774738 -0.0435789 0.304796)
(0.0928297 -0.0476856 0.285424)
(0.107786 -0.0511148 0.258396)
(0.122038 -0.0540566 0.220832)
(0.136429 -0.0572306 0.170616)
(0.152688 -0.0617205 0.106957)
(0.166887 -0.0660524 0.0319444)
(0.0525433 -0.0194379 0.336289)
(0.071011 -0.0208161 0.318756)
(0.0885438 -0.0221055 0.301729)
(0.106047 -0.023282 0.278012)
(0.123239 -0.0243431 0.243382)
(0.140925 -0.0256673 0.194812)
(0.160936 -0.0278941 0.130878)
(0.178582 -0.0300889 0.0535203)
(0.0481049 0.00127134 0.345124)
(0.0672084 0.00189446 0.32492)
(0.0854138 0.00201666 0.308516)
(0.103651 0.00181452 0.286327)
(0.121767 0.00135017 0.253438)
(0.140566 0.000720961 0.206377)
(0.161954 8.31989e-05 0.143356)
(0.180849 -0.000452365 0.0659757)
(0.0538226 0.0216055 0.334958)
(0.072279 0.0241381 0.316963)
(0.0897128 0.0259372 0.299368)
(0.106978 0.0271198 0.275053)
(0.123784 0.0277557 0.239901)
(0.140973 0.0283263 0.190938)
(0.160485 0.0296056 0.126728)
(0.177767 0.0310082 0.0490641)
(0.0616794 0.0406631 0.320061)
(0.0777724 0.0468759 0.303724)
(0.092748 0.0519987 0.283879)
(0.107177 0.0561392 0.256443)
(0.120808 0.0594652 0.218621)
(0.134572 0.0627027 0.168327)
(0.150309 0.0669675 0.104723)
(0.164221 0.070718 0.0298687)
(0.0641004 0.059626 0.307312)
(0.0752755 0.0693285 0.290893)
(0.0863089 0.0780167 0.26877)
(0.0966727 0.085709 0.23874)
(0.106303 0.0926153 0.199059)
(0.116133 0.0995993 0.148529)
(0.127566 0.107753 0.0871008)
(0.137404 0.11429 0.0173375)
(0.0342723 0.0499058 -0.00486197)
(0.0311537 0.0447577 -0.00332438)
(0.0305405 0.0394335 -0.00251067)
(0.0306906 0.0365887 -0.00213757)
(0.031 0.0342604 -0.00221242)
(0.0310992 0.032367 -0.00265993)
(0.0310952 0.0307097 -0.00336381)
(0.0309487 0.029156 -0.00423633)
(0.0173791 0.0564133 -0.00575506)
(0.0152516 0.0504143 -0.00397306)
(0.0171806 0.0426879 -0.00219769)
(0.0173961 0.038081 -0.00102547)
(0.0178266 0.036383 -0.000450599)
(0.0168797 0.0327647 -0.000432599)
(0.0176891 0.032905 -0.000243692)
(0.0176349 0.0311896 -0.000269423)
(0.000446705 0.0549137 -0.00524823)
(0.000951888 0.0566164 -0.00353214)
(0.0033974 0.0434999 -0.000808954)
(0.00562162 0.0376018 0.0015475)
(0.0072969 0.0328854 0.00352139)
(0.00960907 0.029573 0.00514108)
(0.0115794 0.0269944 0.00576655)
(0.0127835 0.0245889 0.0052657)
(-0.0143126 0.0508019 -0.00469928)
(-0.015262 0.0559825 -0.00255552)
(-0.0152107 0.0415788 0.000871755)
(-0.0153104 0.0385181 0.00442641)
(-0.0149038 0.0338437 0.00626631)
(-0.0145372 0.031196 0.00733606)
(-0.0134081 0.0284508 0.0076757)
(-0.0117195 0.0260233 0.00759414)
(-0.0255112 0.0504451 -0.00696528)
(-0.0242954 0.050329 -0.00465413)
(-0.0245723 0.0387476 -0.00231784)
(-0.0241156 0.0350935 -0.000522061)
(-0.0236685 0.0313097 0.000513734)
(-0.0242721 0.0287705 0.00137788)
(-0.0262133 0.0267726 0.00208389)
(-0.0282471 0.0254581 0.00229104)
(-0.0468658 0.0513248 -0.00688674)
(-0.0405382 0.0441285 -0.00427384)
(-0.0408272 0.0374468 -0.00229762)
(-0.0398388 0.0335422 -0.00106279)
(-0.0380771 0.0306857 -0.000450438)
(-0.0361774 0.0291957 -0.000142853)
(-0.0339658 0.0283313 -0.000175135)
(-0.0319343 0.0281546 -0.000374632)
(-0.0548316 0.0429955 -0.00627766)
(-0.0522102 0.0382208 -0.00410425)
(-0.0489169 0.0334116 -0.00266189)
(-0.0470961 0.0304523 -0.00174376)
(-0.046835 0.02826 -0.00118974)
(-0.0467591 0.0260243 -0.0010034)
(-0.0467198 0.0237536 -0.00114268)
(-0.0464005 0.0214698 -0.00158073)
(0.0195073 0.0277255 0.0256301)
(0.0220259 0.0293573 0.0254923)
(0.0241874 0.0309538 0.0244239)
(0.025954 0.0323119 0.0224221)
(0.027202 0.0332148 0.0197634)
(0.0279273 0.0336784 0.0167028)
(0.0281618 0.0337433 0.0133969)
(0.0279485 0.0334364 0.00994417)
(0.00721951 0.0262213 0.0305844)
(0.0107877 0.0276515 0.0304415)
(0.013312 0.0291594 0.0307521)
(0.0152563 0.0308025 0.0300792)
(0.0167534 0.0321064 0.0283975)
(0.0178324 0.0328975 0.0261095)
(0.0185741 0.0332553 0.0233197)
(0.018946 0.0330673 0.0202217)
(-0.00691331 0.0189657 0.0392525)
(-0.00286219 0.0230139 0.0348167)
(-4.47102e-05 0.0252376 0.036212)
(0.00213549 0.0273436 0.0372402)
(0.00412942 0.0287405 0.0369984)
(0.0059063 0.0294208 0.0355694)
(0.00737295 0.0293885 0.0333231)
(0.00849616 0.0287636 0.0306765)