/*--------------------------------*- C++ -*----------------------------------*\
| =========                 |                                                 |
| \\      /  F ield         | OpenFOAM: The Open Source CFD Toolbox           |
|  \\    /   O peration     | Version:  plus.master.MPPICInterFoam            |
|   \\  /    A nd           | Web:      www.OpenFOAM.com                      |
|    \\/     M anipulation  |                                                 |
\*---------------------------------------------------------------------------*/
FoamFile
{
    version     2.0;
    format      ascii;
    class       volScalarField;
    location    "8.4";
    object      epsilon;
}
// * * * * * * * * * * * * * * * * * * * * * * * * * * * * * * * * * * * * * //

dimensions      [0 2 -3 0 0 0 0];

internalField   nonuniform List<scalar> 
11821
(
5.04284e-05
1.64951e-05
1.15501e-05
1.04022e-05
1.00983e-05
1.00033e-05
9.92112e-06
9.79771e-06
5.06844e-05
1.65863e-05
1.15925e-05
1.04308e-05
1.01233e-05
1.00281e-05
9.94638e-06
9.82274e-06
5.08305e-05
1.66369e-05
1.16205e-05
1.04529e-05
1.01443e-05
1.00496e-05
9.96832e-06
9.84434e-06
5.08473e-05
1.66564e-05
1.16378e-05
1.04694e-05
1.01607e-05
1.00659e-05
9.98418e-06
9.8592e-06
5.07153e-05
1.66212e-05
1.16345e-05
1.04757e-05
1.01698e-05
1.00748e-05
9.99176e-06
9.86507e-06
5.04304e-05
1.6528e-05
1.16065e-05
1.04686e-05
1.0169e-05
1.00745e-05
9.98992e-06
9.86136e-06
5.00141e-05
1.63343e-05
1.15378e-05
1.04428e-05
1.01578e-05
1.0067e-05
9.9818e-06
9.85206e-06
5.03557e-05
1.65396e-05
1.16281e-05
1.05049e-05
1.02217e-05
1.01424e-05
1.00685e-05
9.94304e-06
5.06303e-05
1.66274e-05
1.16758e-05
1.05444e-05
1.02615e-05
1.01848e-05
1.01132e-05
9.98801e-06
5.07962e-05
1.66756e-05
1.17078e-05
1.05753e-05
1.02947e-05
1.02209e-05
1.01514e-05
1.00264e-05
5.08289e-05
1.66901e-05
1.17252e-05
1.05955e-05
1.03174e-05
1.02454e-05
1.01768e-05
1.00516e-05
5.07075e-05
1.66503e-05
1.17185e-05
1.05995e-05
1.03248e-05
1.02532e-05
1.01839e-05
1.00575e-05
5.04297e-05
1.65574e-05
1.16861e-05
1.05853e-05
1.03151e-05
1.02431e-05
1.01717e-05
1.00437e-05
5.00189e-05
1.63777e-05
1.16159e-05
1.05496e-05
1.0289e-05
1.02175e-05
1.01439e-05
1.00146e-05
5.03882e-05
1.6621e-05
1.17552e-05
1.06713e-05
1.04222e-05
1.03699e-05
1.0312e-05
1.01868e-05
5.06948e-05
1.67113e-05
1.18145e-05
1.07294e-05
1.0486e-05
1.04405e-05
1.03877e-05
1.0264e-05
5.08935e-05
1.67631e-05
1.18566e-05
1.07759e-05
1.05394e-05
1.05005e-05
1.04527e-05
1.03306e-05
5.09521e-05
1.6778e-05
1.18789e-05
1.0805e-05
1.05741e-05
1.05396e-05
1.04947e-05
1.03734e-05
5.08473e-05
1.6738e-05
1.18718e-05
1.08091e-05
1.0582e-05
1.05485e-05
1.05035e-05
1.03816e-05
5.05775e-05
1.66468e-05
1.18349e-05
1.07866e-05
1.05615e-05
1.05259e-05
1.0478e-05
1.03544e-05
5.01695e-05
1.6479e-05
1.17605e-05
1.07372e-05
1.05156e-05
1.04763e-05
1.04236e-05
1.0298e-05
5.05398e-05
1.67598e-05
1.19574e-05
1.09331e-05
1.07377e-05
1.07295e-05
1.07e-05
1.05802e-05
5.0895e-05
1.68615e-05
1.20379e-05
1.10211e-05
1.08388e-05
1.08435e-05
1.08238e-05
1.07076e-05
5.11411e-05
1.69245e-05
1.20987e-05
1.10935e-05
1.09244e-05
1.09412e-05
1.09307e-05
1.08186e-05
5.12365e-05
1.69463e-05
1.21325e-05
1.11387e-05
1.09791e-05
1.1004e-05
1.09995e-05
1.08902e-05
5.11534e-05
1.69101e-05
1.21281e-05
1.11454e-05
1.09902e-05
1.10168e-05
1.1013e-05
1.09039e-05
5.08897e-05
1.68203e-05
1.20851e-05
1.11121e-05
1.09555e-05
1.09776e-05
1.09695e-05
1.08583e-05
5.04775e-05
1.66598e-05
1.20015e-05
1.10426e-05
1.08816e-05
1.08943e-05
1.08777e-05
1.07629e-05
5.08385e-05
1.69854e-05
1.22713e-05
1.13352e-05
1.12213e-05
1.12818e-05
1.12997e-05
1.11947e-05
5.12629e-05
1.71106e-05
1.23869e-05
1.14693e-05
1.13783e-05
1.14605e-05
1.14949e-05
1.13973e-05
5.15748e-05
1.7196e-05
1.24791e-05
1.1582e-05
1.15128e-05
1.16149e-05
1.16649e-05
1.15753e-05
5.17206e-05
1.72336e-05
1.25336e-05
1.16532e-05
1.1599e-05
1.17143e-05
1.17747e-05
1.1691e-05
5.16646e-05
1.72057e-05
1.25357e-05
1.16662e-05
1.16168e-05
1.17349e-05
1.17972e-05
1.17148e-05
5.14026e-05
1.71158e-05
1.2484e-05
1.16182e-05
1.15629e-05
1.16733e-05
1.17293e-05
1.1644e-05
5.09748e-05
1.69584e-05
1.23844e-05
1.15178e-05
1.14486e-05
1.15426e-05
1.15851e-05
1.14935e-05
5.13301e-05
1.73395e-05
1.2748e-05
1.19383e-05
1.19438e-05
1.21076e-05
1.22001e-05
1.21255e-05
5.18505e-05
1.75056e-05
1.29183e-05
1.21407e-05
1.21822e-05
1.23792e-05
1.24977e-05
1.24362e-05
5.22534e-05
1.76303e-05
1.30599e-05
1.2314e-05
1.23881e-05
1.26157e-05
1.27586e-05
1.27109e-05
5.24678e-05
1.7697e-05
1.31489e-05
1.24251e-05
1.25208e-05
1.27689e-05
1.29285e-05
1.2891e-05
5.24458e-05
1.76839e-05
1.31636e-05
1.24485e-05
1.25499e-05
1.28026e-05
1.29662e-05
1.29313e-05
5.21788e-05
1.7595e-05
1.3099e-05
1.23792e-05
1.24699e-05
1.27114e-05
1.28662e-05
1.28275e-05
5.17169e-05
1.74355e-05
1.29658e-05
1.2232e-05
1.22986e-05
1.25152e-05
1.265e-05
1.26012e-05
5.20849e-05
1.78808e-05
1.34565e-05
1.28228e-05
1.29974e-05
1.33103e-05
1.35149e-05
1.34937e-05
5.27387e-05
1.81136e-05
1.37093e-05
1.3123e-05
1.33492e-05
1.37109e-05
1.39538e-05
1.39534e-05
5.32685e-05
1.83039e-05
1.39271e-05
1.3382e-05
1.36551e-05
1.40616e-05
1.43409e-05
1.4362e-05
5.3578e-05
1.84287e-05
1.40667e-05
1.3549e-05
1.38535e-05
1.42903e-05
1.45947e-05
1.46316e-05
5.35989e-05
1.84476e-05
1.4096e-05
1.3587e-05
1.38997e-05
1.43443e-05
1.46554e-05
1.4697e-05
5.33132e-05
1.83484e-05
1.4008e-05
1.34883e-05
1.37855e-05
1.4215e-05
1.45147e-05
1.45511e-05
5.27839e-05
1.81477e-05
1.38213e-05
1.32753e-05
1.35366e-05
1.39308e-05
1.42026e-05
1.42244e-05
5.32085e-05
1.8692e-05
1.44896e-05
1.40898e-05
1.44959e-05
1.50178e-05
1.53837e-05
1.54478e-05
5.40502e-05
1.90364e-05
1.48599e-05
1.45221e-05
1.50001e-05
1.559e-05
1.60094e-05
1.61034e-05
5.47581e-05
1.93435e-05
1.5179e-05
1.48967e-05
1.54404e-05
1.60933e-05
1.65636e-05
1.66885e-05
5.51908e-05
1.95392e-05
1.53844e-05
1.51396e-05
1.57275e-05
1.64232e-05
1.69289e-05
1.70763e-05
5.52574e-05
1.9578e-05
1.54316e-05
1.51983e-05
1.57987e-05
1.65064e-05
1.70225e-05
1.71773e-05
5.4933e-05
1.94497e-05
1.53103e-05
1.50611e-05
1.5641e-05
1.63297e-05
1.68319e-05
1.69806e-05
5.42983e-05
1.9182e-05
1.50483e-05
1.47598e-05
1.52903e-05
1.59318e-05
1.63972e-05
1.65263e-05
5.48586e-05
1.99004e-05
1.59574e-05
1.58594e-05
1.65758e-05
1.73814e-05
1.79701e-05
1.81602e-05
5.59597e-05
2.04095e-05
1.648e-05
1.64641e-05
1.72766e-05
1.81723e-05
1.88312e-05
1.9061e-05
5.68985e-05
2.08457e-05
1.6931e-05
1.69896e-05
1.78902e-05
1.88697e-05
1.9596e-05
1.98671e-05
5.74897e-05
2.11235e-05
1.72222e-05
1.73317e-05
1.8292e-05
1.93288e-05
2.01019e-05
2.04029e-05
5.76113e-05
2.11852e-05
1.7293e-05
1.74186e-05
1.8397e-05
1.94513e-05
2.02394e-05
2.05509e-05
5.72257e-05
2.10158e-05
1.71285e-05
1.72336e-05
1.81869e-05
1.92186e-05
1.9991e-05
2.02963e-05
5.64373e-05
2.0655e-05
1.67668e-05
1.68188e-05
1.77081e-05
1.86802e-05
1.9407e-05
1.96882e-05
5.7248e-05
2.16429e-05
1.79858e-05
1.82732e-05
1.93939e-05
2.05721e-05
2.14566e-05
2.18229e-05
5.86872e-05
2.23418e-05
1.87015e-05
1.90938e-05
2.03367e-05
2.16278e-05
2.25992e-05
2.3014e-05
5.99331e-05
2.29421e-05
1.93203e-05
1.98084e-05
2.11636e-05
2.25601e-05
2.3615e-05
2.40809e-05
6.0734e-05
2.33272e-05
1.9721e-05
2.02745e-05
2.17062e-05
2.31751e-05
2.42884e-05
2.47914e-05
6.09255e-05
2.34194e-05
1.98233e-05
2.03985e-05
2.18549e-05
2.33476e-05
2.4481e-05
2.49981e-05
6.04509e-05
2.31965e-05
1.96055e-05
2.01568e-05
2.15845e-05
2.30525e-05
2.41698e-05
2.46819e-05
5.94455e-05
2.27116e-05
1.91174e-05
1.96025e-05
2.09522e-05
2.23492e-05
2.34138e-05
2.38989e-05
6.06486e-05
2.4053e-05
2.07222e-05
2.14897e-05
2.31219e-05
2.47737e-05
2.60381e-05
2.66398e-05
6.2536e-05
2.49924e-05
2.16753e-05
2.25687e-05
2.43474e-05
2.61324e-05
2.74968e-05
2.81531e-05
6.41906e-05
2.58031e-05
2.25005e-05
2.35091e-05
2.54226e-05
2.73324e-05
2.87939e-05
2.95086e-05
6.52679e-05
2.63253e-05
2.30355e-05
2.41229e-05
2.61288e-05
2.81249e-05
2.96547e-05
3.04125e-05
6.55494e-05
2.64572e-05
2.31775e-05
2.42927e-05
2.63306e-05
2.83573e-05
2.99127e-05
3.06884e-05
6.49506e-05
2.61673e-05
2.28972e-05
2.39873e-05
2.59953e-05
2.79974e-05
2.95387e-05
3.03123e-05
6.36464e-05
2.55238e-05
2.22562e-05
2.32705e-05
2.51895e-05
2.71125e-05
2.85971e-05
2.93434e-05
6.54285e-05
2.73133e-05
2.4332e-05
2.56787e-05
2.79384e-05
3.0175e-05
3.19132e-05
3.28198e-05
6.7904e-05
2.85504e-05
2.55643e-05
2.70508e-05
2.94747e-05
3.18578e-05
3.37025e-05
3.46645e-05
7.01e-05
2.96218e-05
2.66322e-05
2.82465e-05
3.0822e-05
3.33432e-05
3.52929e-05
3.63166e-05
7.1541e-05
3.03119e-05
2.73232e-05
2.90261e-05
3.17068e-05
3.43249e-05
3.63499e-05
3.74202e-05
7.19391e-05
3.04936e-05
2.75129e-05
2.92494e-05
3.19696e-05
3.46252e-05
3.66814e-05
3.77737e-05
7.11709e-05
3.01236e-05
2.71633e-05
2.88771e-05
3.15693e-05
3.4204e-05
3.6251e-05
3.73467e-05
6.94654e-05
2.92878e-05
2.63482e-05
2.79831e-05
3.0581e-05
3.31333e-05
3.51235e-05
3.61945e-05
7.20735e-05
3.16335e-05
2.89911e-05
3.10136e-05
3.40223e-05
3.69635e-05
3.92801e-05
4.05745e-05
7.53155e-05
3.32241e-05
3.05352e-05
3.26982e-05
3.58771e-05
3.8967e-05
4.13873e-05
4.27303e-05
7.82504e-05
3.46055e-05
3.18743e-05
3.41664e-05
3.7503e-05
4.07343e-05
4.32593e-05
4.46614e-05
8.01787e-05
3.54911e-05
3.27367e-05
3.51208e-05
3.85702e-05
4.19045e-05
4.45076e-05
4.5957e-05
8.07298e-05
3.57314e-05
3.29802e-05
3.54032e-05
3.88993e-05
4.22782e-05
4.49181e-05
4.63937e-05
7.97296e-05
3.52708e-05
3.25581e-05
3.49656e-05
3.84404e-05
4.18059e-05
4.44451e-05
4.59328e-05
7.7481e-05
3.42146e-05
3.15568e-05
3.38912e-05
3.72732e-05
4.0559e-05
4.31467e-05
4.46162e-05
8.1267e-05
3.72406e-05
3.48796e-05
3.7668e-05
4.15518e-05
4.53281e-05
4.83451e-05
5.01298e-05
8.55001e-05
3.92282e-05
3.67519e-05
3.96638e-05
4.37075e-05
4.76201e-05
5.07249e-05
5.25445e-05
8.92687e-05
4.09571e-05
3.83788e-05
4.14055e-05
4.55981e-05
4.96425e-05
5.28407e-05
5.47082e-05
9.16719e-05
4.20513e-05
3.9417e-05
4.25321e-05
4.68393e-05
5.09876e-05
5.42623e-05
5.61721e-05
9.23708e-05
4.23546e-05
3.97173e-05
4.28759e-05
4.72373e-05
5.14374e-05
5.47551e-05
5.66959e-05
9.11517e-05
4.18005e-05
3.92248e-05
4.23803e-05
4.67321e-05
5.09313e-05
5.42612e-05
5.62261e-05
8.83669e-05
4.05125e-05
3.80371e-05
4.11344e-05
4.5403e-05
4.9533e-05
5.28229e-05
5.47809e-05
4.69352e-05
1.55722e-05
1.11744e-05
1.01838e-05
9.9307e-06
9.8492e-06
9.76917e-06
9.64956e-06
4.68803e-05
1.54946e-05
1.11371e-05
1.01649e-05
9.92065e-06
9.84406e-06
9.76898e-06
9.6579e-06
4.69745e-05
1.5494e-05
1.11575e-05
1.02066e-05
9.98207e-06
4.72805e-05
1.5404e-05
4.72385e-05
4.69016e-05
1.55902e-05
1.1205e-05
1.02235e-05
9.9778e-06
9.9016e-06
9.82372e-06
9.7018e-06
4.68164e-05
1.55188e-05
1.11688e-05
1.02026e-05
9.96384e-06
9.89123e-06
9.81687e-06
9.70143e-06
4.68672e-05
1.55161e-05
1.11761e-05
1.02202e-05
9.99126e-06
9.92796e-06
9.86194e-06
9.75228e-06
4.70437e-05
1.54288e-05
1.11457e-05
1.02275e-05
1.00253e-05
9.98611e-06
9.95009e-06
9.88821e-06
4.70637e-05
1.55225e-05
1.11715e-05
1.02169e-05
9.99057e-06
9.93031e-06
9.86771e-06
9.76247e-06
4.71887e-05
1.55645e-05
1.11856e-05
1.02164e-05
9.97915e-06
9.90887e-06
9.83631e-06
9.72135e-06
4.73845e-05
1.56619e-05
1.12307e-05
1.02397e-05
9.99253e-06
9.9175e-06
9.84104e-06
9.7192e-06
4.69415e-05
1.56331e-05
1.12629e-05
1.02963e-05
1.00638e-05
9.99776e-06
9.92504e-06
9.80089e-06
4.68393e-05
1.55679e-05
1.12283e-05
1.02743e-05
1.00477e-05
9.98473e-06
9.91507e-06
9.79636e-06
4.68556e-05
1.55626e-05
1.12284e-05
1.02797e-05
1.00582e-05
1.00004e-05
9.9351e-06
9.81872e-06
4.69583e-05
1.54879e-05
1.1195e-05
1.02722e-05
1.0067e-05
1.00221e-05
9.97262e-06
9.88265e-06
4.69984e-05
1.55638e-05
1.12217e-05
1.02741e-05
1.00546e-05
9.99878e-06
9.93575e-06
9.82206e-06
4.7124e-05
1.5597e-05
1.12343e-05
1.02778e-05
1.00522e-05
9.99107e-06
9.92292e-06
9.80466e-06
4.73137e-05
1.56852e-05
1.12761e-05
1.03009e-05
1.00672e-05
1.00026e-05
9.93167e-06
9.80815e-06
4.70499e-05
1.5709e-05
1.13605e-05
1.04178e-05
1.02077e-05
1.01597e-05
1.00977e-05
9.9727e-06
4.69381e-05
1.56485e-05
1.13264e-05
1.03943e-05
1.01892e-05
1.01444e-05
1.00856e-05
9.96587e-06
4.69252e-05
1.56393e-05
1.13215e-05
1.03928e-05
1.01912e-05
1.01501e-05
1.00946e-05
9.97646e-06
4.69826e-05
1.55784e-05
1.12903e-05
1.03791e-05
1.01874e-05
1.01531e-05
1.01057e-05
1.00025e-05
4.70222e-05
1.56355e-05
1.1312e-05
1.03839e-05
1.01834e-05
1.01434e-05
1.00891e-05
9.97243e-06
4.71384e-05
1.56613e-05
1.13219e-05
1.03877e-05
1.0183e-05
1.01394e-05
1.00815e-05
9.96201e-06
4.7318e-05
1.57459e-05
1.13613e-05
1.041e-05
1.01984e-05
1.01517e-05
1.00916e-05
9.96774e-06
4.72343e-05
1.5832e-05
1.15169e-05
1.06123e-05
1.04388e-05
1.04219e-05
1.03802e-05
1.02584e-05
4.71147e-05
1.57735e-05
1.14815e-05
1.0586e-05
1.04172e-05
1.0404e-05
1.03664e-05
1.02504e-05
4.70771e-05
1.57595e-05
1.14723e-05
1.05797e-05
1.04143e-05
1.04051e-05
1.03715e-05
1.0258e-05
4.7104e-05
1.57101e-05
1.14442e-05
1.05634e-05
1.04037e-05
1.03976e-05
1.03675e-05
1.02623e-05
4.71328e-05
1.575e-05
1.1459e-05
1.05664e-05
1.04009e-05
1.03915e-05
1.03576e-05
1.02444e-05
4.72344e-05
1.57701e-05
1.1466e-05
1.05681e-05
1.03988e-05
1.03856e-05
1.03479e-05
1.02316e-05
4.74037e-05
1.58578e-05
1.15044e-05
1.05896e-05
1.04138e-05
1.03976e-05
1.03575e-05
1.02372e-05
4.75132e-05
1.60234e-05
1.17599e-05
1.09147e-05
1.07997e-05
1.08342e-05
1.08289e-05
1.07185e-05
4.73841e-05
1.59639e-05
1.1721e-05
1.08838e-05
1.0774e-05
1.08135e-05
1.08141e-05
1.07113e-05
4.73256e-05
1.5944e-05
1.17071e-05
1.08735e-05
1.07679e-05
1.08127e-05
1.08192e-05
1.07212e-05
4.73295e-05
1.59029e-05
1.16815e-05
1.08554e-05
1.07527e-05
1.07983e-05
1.08055e-05
1.07115e-05
4.73431e-05
1.59282e-05
1.16889e-05
1.08541e-05
1.07467e-05
1.07895e-05
1.07938e-05
1.06944e-05
4.74276e-05
1.59436e-05
1.16928e-05
1.08525e-05
1.07402e-05
1.07776e-05
1.07764e-05
1.06721e-05
4.75843e-05
1.60319e-05
1.17295e-05
1.08729e-05
1.07543e-05
1.07882e-05
1.07838e-05
1.0675e-05
4.79183e-05
1.63144e-05
1.2129e-05
1.13741e-05
1.13499e-05
1.14664e-05
1.15226e-05
1.14389e-05
4.77759e-05
1.62501e-05
1.20836e-05
1.13365e-05
1.13188e-05
1.14429e-05
1.15085e-05
1.14358e-05
4.76989e-05
1.62233e-05
1.20644e-05
1.1322e-05
1.13102e-05
1.14421e-05
1.15166e-05
1.14522e-05
4.76833e-05
1.61873e-05
1.20396e-05
1.13019e-05
1.12911e-05
1.1422e-05
1.14954e-05
1.14322e-05
4.76806e-05
1.62005e-05
1.20398e-05
1.12944e-05
1.12785e-05
1.14056e-05
1.14752e-05
1.14069e-05
4.77471e-05
1.62118e-05
1.20403e-05
1.12881e-05
1.1265e-05
1.13838e-05
1.14446e-05
1.13684e-05
4.78891e-05
1.62955e-05
1.20738e-05
1.13074e-05
1.12778e-05
1.13919e-05
1.14478e-05
1.13655e-05
4.84994e-05
1.67496e-05
1.26785e-05
1.20572e-05
1.21699e-05
1.24127e-05
1.2568e-05
1.25358e-05
4.83381e-05
1.66757e-05
1.26228e-05
1.20103e-05
1.21323e-05
1.23872e-05
1.25577e-05
1.25424e-05
4.82431e-05
1.66408e-05
1.25973e-05
1.19913e-05
1.21219e-05
1.23884e-05
1.25724e-05
1.25705e-05
4.82097e-05
1.66069e-05
1.25717e-05
1.19683e-05
1.20985e-05
1.23629e-05
1.25446e-05
1.2542e-05
4.81913e-05
1.66101e-05
1.25646e-05
1.19531e-05
1.20763e-05
1.23342e-05
1.25095e-05
1.25001e-05
4.82406e-05
1.6618e-05
1.25615e-05
1.19408e-05
1.20533e-05
1.22985e-05
1.24601e-05
1.2438e-05
4.83668e-05
1.66901e-05
1.25922e-05
1.19595e-05
1.20645e-05
1.23028e-05
1.24565e-05
1.24255e-05
4.93332e-05
1.73915e-05
1.34818e-05
1.30533e-05
1.33667e-05
1.37978e-05
1.41059e-05
1.41628e-05
4.91446e-05
1.7302e-05
1.34113e-05
1.29942e-05
1.33217e-05
1.37721e-05
1.41042e-05
1.41872e-05
4.90298e-05
1.72569e-05
1.33781e-05
1.29702e-05
1.33105e-05
1.3778e-05
1.41303e-05
1.42338e-05
4.89795e-05
1.72228e-05
1.33503e-05
1.29434e-05
1.32824e-05
1.37474e-05
1.40968e-05
1.41986e-05
4.89474e-05
1.7218e-05
1.33361e-05
1.29194e-05
1.3248e-05
1.37023e-05
1.4041e-05
1.41324e-05
4.89822e-05
1.72232e-05
1.33292e-05
1.28999e-05
1.32129e-05
1.36484e-05
1.39667e-05
1.40389e-05
4.90944e-05
1.72796e-05
1.33594e-05
1.29192e-05
1.32228e-05
1.36478e-05
1.39538e-05
1.40126e-05
5.05356e-05
1.83259e-05
1.46368e-05
1.44795e-05
1.50789e-05
1.5782e-05
1.6316e-05
1.65153e-05
5.03071e-05
1.82132e-05
1.4546e-05
1.44047e-05
1.5026e-05
1.57593e-05
1.63301e-05
1.65686e-05
5.01679e-05
1.81554e-05
1.45033e-05
1.43754e-05
1.50157e-05
1.57741e-05
1.63746e-05
1.66434e-05
5.01011e-05
1.81189e-05
1.44721e-05
1.43446e-05
1.49834e-05
1.57396e-05
1.63377e-05
1.66048e-05
5.00587e-05
1.81083e-05
1.44514e-05
1.4311e-05
1.49352e-05
1.56752e-05
1.62568e-05
1.65086e-05
5.00842e-05
1.81128e-05
1.44416e-05
1.42841e-05
1.48862e-05
1.55999e-05
1.61526e-05
1.63766e-05
5.01917e-05
1.81635e-05
1.44755e-05
1.43067e-05
1.48962e-05
1.55941e-05
1.61285e-05
1.63326e-05
5.22784e-05
1.96695e-05
1.62714e-05
1.64856e-05
1.74822e-05
1.85664e-05
1.9422e-05
1.9835e-05
5.19909e-05
1.95236e-05
1.61531e-05
1.63911e-05
1.74213e-05
1.8551e-05
1.94611e-05
1.99311e-05
5.18188e-05
1.94492e-05
1.60989e-05
1.63567e-05
1.74147e-05
1.8581e-05
1.95337e-05
2.00469e-05
5.17359e-05
1.94092e-05
1.60642e-05
1.63228e-05
1.73806e-05
1.85464e-05
1.94988e-05
2.00121e-05
5.16894e-05
1.93956e-05
1.6039e-05
1.62811e-05
1.73192e-05
1.84629e-05
1.93925e-05
1.98845e-05
5.17148e-05
1.9403e-05
1.6029e-05
1.62486e-05
1.72572e-05
1.83654e-05
1.92561e-05
1.97103e-05
5.18343e-05
1.94633e-05
1.6073e-05
1.62792e-05
1.72705e-05
1.83566e-05
1.92209e-05
1.96469e-05
5.48103e-05
2.15769e-05
1.85485e-05
1.92592e-05
2.07929e-05
2.23957e-05
2.36935e-05
2.44111e-05
5.44346e-05
2.13846e-05
1.83941e-05
1.91401e-05
2.07236e-05
2.23924e-05
2.37675e-05
2.45646e-05
5.42164e-05
2.12886e-05
1.83261e-05
1.91014e-05
2.07253e-05
2.24459e-05
2.38804e-05
2.47373e-05
5.41189e-05
2.12451e-05
1.82896e-05
1.90679e-05
2.06951e-05
2.24196e-05
2.38585e-05
2.47197e-05
5.40788e-05
2.12335e-05
1.82643e-05
1.9023e-05
2.06259e-05
2.23231e-05
2.37336e-05
2.45678e-05
5.41203e-05
2.12505e-05
1.826e-05
1.89904e-05
2.05561e-05
2.22083e-05
2.35693e-05
2.43548e-05
5.42737e-05
2.13321e-05
1.83233e-05
1.9037e-05
2.05798e-05
2.2202e-05
2.35273e-05
2.42745e-05
5.84818e-05
2.4249e-05
2.16713e-05
2.30279e-05
2.52686e-05
2.75568e-05
2.94432e-05
3.05776e-05
5.79754e-05
2.39932e-05
2.14697e-05
2.28782e-05
2.51899e-05
2.75697e-05
2.95608e-05
3.08012e-05
5.76915e-05
2.38691e-05
2.13857e-05
2.28366e-05
2.52055e-05
2.76567e-05
2.97281e-05
3.10479e-05
5.75835e-05
2.38245e-05
2.1352e-05
2.28112e-05
2.51902e-05
2.76535e-05
2.97378e-05
3.10697e-05
5.75685e-05
2.38235e-05
2.13357e-05
2.27735e-05
2.5126e-05
2.75593e-05
2.96121e-05
3.09132e-05
5.76528e-05
2.38618e-05
2.1348e-05
2.27526e-05
2.50612e-05
2.7441e-05
2.94346e-05
3.06765e-05
5.78732e-05
2.398e-05
2.14438e-05
2.28277e-05
2.51073e-05
2.74486e-05
2.93962e-05
3.05883e-05
6.37772e-05
2.7941e-05
2.58856e-05
2.80593e-05
3.12057e-05
3.43752e-05
3.70224e-05
3.87075e-05
6.30789e-05
2.75996e-05
2.56232e-05
2.78706e-05
3.1114e-05
3.44045e-05
3.71875e-05
3.90084e-05
6.27021e-05
2.74395e-05
2.5521e-05
2.78286e-05
3.11501e-05
3.45356e-05
3.74226e-05
3.93454e-05
6.25928e-05
2.73997e-05
2.54991e-05
2.78243e-05
3.11674e-05
3.45778e-05
3.74909e-05
3.94372e-05
6.26343e-05
2.74241e-05
2.5507e-05
2.78121e-05
3.11309e-05
3.45133e-05
3.73962e-05
3.93113e-05
6.28044e-05
2.75021e-05
2.55539e-05
2.7823e-05
3.10939e-05
3.44173e-05
3.72339e-05
3.90808e-05
6.3143e-05
2.76789e-05
2.57013e-05
2.79451e-05
3.11809e-05
3.44574e-05
3.72174e-05
3.90027e-05
4.85639e-05
4.89462e-05
1.60333e-05
4.9348e-05
1.61749e-05
1.14085e-05
1.03113e-05
1.0023e-05
4.97339e-05
1.62625e-05
1.1447e-05
1.03372e-05
1.00449e-05
9.95224e-06
9.86981e-06
9.74733e-06
5.01039e-05
1.63998e-05
1.1507e-05
1.03735e-05
1.00734e-05
9.97872e-06
9.89599e-06
9.77271e-06
4.76815e-05
1.57917e-05
1.1284e-05
1.02654e-05
1.00066e-05
9.92595e-06
9.84623e-06
9.72179e-06
4.80413e-05
1.59177e-05
1.13341e-05
1.02901e-05
1.00219e-05
9.93808e-06
9.85764e-06
9.73323e-06
4.84248e-05
1.60263e-05
1.13805e-05
1.0318e-05
1.00438e-05
9.95827e-06
9.87733e-06
9.75199e-06
4.88163e-05
1.60808e-05
1.1404e-05
1.03385e-05
1.00659e-05
9.98296e-06
9.90433e-06
9.78069e-06
4.92253e-05
1.62158e-05
1.14663e-05
1.03808e-05
1.01031e-05
1.002e-05
9.94169e-06
9.81682e-06
4.96269e-05
1.63116e-05
1.15139e-05
1.04182e-05
1.01391e-05
1.00572e-05
9.98022e-06
9.85531e-06
5.00111e-05
1.64428e-05
1.15778e-05
1.04643e-05
1.01815e-05
1.01e-05
1.00242e-05
9.89868e-06
4.76059e-05
1.58128e-05
1.13299e-05
1.03291e-05
1.00853e-05
1.00161e-05
9.94275e-06
9.81719e-06
4.79602e-05
1.59428e-05
1.13863e-05
1.03617e-05
1.01097e-05
1.00383e-05
9.96453e-06
9.83872e-06
4.83445e-05
1.60594e-05
1.14416e-05
1.04e-05
1.01434e-05
1.00715e-05
9.99812e-06
9.87153e-06
4.87505e-05
1.61408e-05
1.14845e-05
1.04375e-05
1.01825e-05
1.01139e-05
1.00431e-05
9.91758e-06
4.91752e-05
1.62767e-05
1.15554e-05
1.04933e-05
1.02366e-05
1.01701e-05
1.01014e-05
9.97515e-06
4.95995e-05
1.63842e-05
1.16169e-05
1.0548e-05
1.02935e-05
1.02311e-05
1.01655e-05
1.00395e-05
5.00109e-05
1.65173e-05
1.16914e-05
1.06112e-05
1.03577e-05
1.02994e-05
1.0237e-05
1.0111e-05
4.76004e-05
1.58696e-05
1.1416e-05
1.04414e-05
1.02211e-05
1.0171e-05
1.0109e-05
9.98338e-06
4.79469e-05
1.6001e-05
1.14787e-05
1.04831e-05
1.02566e-05
1.02057e-05
1.01442e-05
1.00183e-05
4.83351e-05
1.61251e-05
1.15449e-05
1.05352e-05
1.03068e-05
1.02577e-05
1.0198e-05
1.00718e-05
4.87583e-05
1.62304e-05
1.16086e-05
1.05942e-05
1.03695e-05
1.03257e-05
1.02702e-05
1.0145e-05
4.92068e-05
1.63743e-05
1.16949e-05
1.06714e-05
1.045e-05
1.04123e-05
1.03616e-05
1.02368e-05
4.96645e-05
1.64991e-05
1.17775e-05
1.07523e-05
1.0538e-05
1.05088e-05
1.04641e-05
1.03405e-05
5.01175e-05
1.66424e-05
1.18714e-05
1.08428e-05
1.06361e-05
1.06161e-05
1.05782e-05
1.04559e-05
4.76725e-05
1.59736e-05
1.15599e-05
1.06252e-05
1.04425e-05
1.0424e-05
1.03827e-05
1.02605e-05
4.80128e-05
1.61065e-05
1.16305e-05
1.06787e-05
1.04928e-05
1.04756e-05
1.04362e-05
1.0314e-05
4.84094e-05
1.62407e-05
1.17119e-05
1.07505e-05
1.05666e-05
1.05545e-05
1.05193e-05
1.03978e-05
4.88562e-05
1.63701e-05
1.18007e-05
1.08382e-05
1.06624e-05
1.06598e-05
1.06316e-05
1.0512e-05
4.93396e-05
1.65305e-05
1.19117e-05
1.09478e-05
1.07821e-05
1.07914e-05
1.07721e-05
1.06548e-05
4.98441e-05
1.66805e-05
1.20253e-05
1.10673e-05
1.09161e-05
1.09402e-05
1.09316e-05
1.08175e-05
5.0354e-05
1.68434e-05
1.215e-05
1.11991e-05
1.10643e-05
1.1105e-05
1.11085e-05
1.0998e-05
4.78399e-05
1.61429e-05
1.17875e-05
1.09144e-05
1.0791e-05
1.0824e-05
1.08188e-05
1.07078e-05
4.81779e-05
1.62799e-05
1.18696e-05
1.09843e-05
1.08615e-05
1.08988e-05
1.08975e-05
1.07873e-05
4.859e-05
1.64291e-05
1.19726e-05
1.10836e-05
1.09685e-05
1.10157e-05
1.10221e-05
1.09142e-05
4.90709e-05
1.65871e-05
1.20945e-05
1.12111e-05
1.1111e-05
1.11738e-05
1.11918e-05
1.10878e-05
4.96042e-05
1.67747e-05
1.22427e-05
1.1368e-05
1.12873e-05
1.13701e-05
1.1403e-05
1.13044e-05
5.01736e-05
1.69606e-05
1.24009e-05
1.15427e-05
1.14867e-05
1.15932e-05
1.16435e-05
1.15515e-05
5.07574e-05
1.71568e-05
1.25729e-05
1.17349e-05
1.1707e-05
1.18401e-05
1.19098e-05
1.18251e-05
4.81337e-05
1.64054e-05
1.21369e-05
1.13573e-05
1.13255e-05
1.14399e-05
1.14953e-05
1.14103e-05
4.84756e-05
1.65513e-05
1.22356e-05
1.14497e-05
1.14234e-05
1.15461e-05
1.16081e-05
1.15249e-05
4.89136e-05
1.6723e-05
1.23693e-05
1.15876e-05
1.15763e-05
1.17153e-05
1.17898e-05
1.17113e-05
4.94439e-05
1.69186e-05
1.25365e-05
1.177e-05
1.17833e-05
1.19463e-05
1.20387e-05
1.19674e-05
5.00479e-05
1.71477e-05
1.27384e-05
1.19935e-05
1.20382e-05
1.22319e-05
1.23474e-05
1.22858e-05
5.07039e-05
1.73841e-05
1.29599e-05
1.22455e-05
1.23285e-05
1.25576e-05
1.26995e-05
1.26496e-05
5.13889e-05
1.76346e-05
1.32022e-05
1.25238e-05
1.26495e-05
1.29177e-05
1.30884e-05
1.30509e-05
4.86044e-05
1.68032e-05
1.26623e-05
1.20215e-05
1.21271e-05
1.23666e-05
1.25197e-05
1.2485e-05
4.89586e-05
1.69646e-05
1.27848e-05
1.21444e-05
1.22617e-05
1.25143e-05
1.26772e-05
1.26458e-05
4.94372e-05
1.71696e-05
1.29612e-05
1.23348e-05
1.24764e-05
1.27532e-05
1.29344e-05
1.29106e-05
5.00391e-05
1.74171e-05
1.31906e-05
1.25917e-05
1.27699e-05
1.30814e-05
1.32886e-05
1.32765e-05
5.07407e-05
1.77059e-05
1.34674e-05
1.29059e-05
1.31307e-05
1.3486e-05
1.37265e-05
1.37301e-05
5.15133e-05
1.80156e-05
1.3778e-05
1.32643e-05
1.35433e-05
1.39486e-05
1.42267e-05
1.42484e-05
5.23411e-05
1.8349e-05
1.41204e-05
1.36606e-05
1.39993e-05
1.4459e-05
1.47775e-05
1.48177e-05
4.93309e-05
1.73978e-05
1.34411e-05
1.29989e-05
1.33052e-05
1.37319e-05
1.40366e-05
1.409e-05
4.97091e-05
1.7584e-05
1.35952e-05
1.31629e-05
1.34877e-05
1.39326e-05
1.42504e-05
1.43084e-05
5.02485e-05
1.78368e-05
1.38299e-05
1.34229e-05
1.37827e-05
1.42607e-05
1.46031e-05
1.4672e-05
5.09526e-05
1.81548e-05
1.41422e-05
1.37772e-05
1.41878e-05
1.47131e-05
1.5091e-05
1.51768e-05
5.17852e-05
1.85296e-05
1.45221e-05
1.42122e-05
1.46866e-05
1.52711e-05
1.5694e-05
1.58021e-05
5.27231e-05
1.89442e-05
1.49559e-05
1.471e-05
1.52574e-05
1.59088e-05
1.63823e-05
1.65156e-05
5.37502e-05
1.94007e-05
1.54368e-05
1.52608e-05
1.58875e-05
1.66108e-05
1.71373e-05
1.72955e-05
5.04348e-05
1.8283e-05
1.45775e-05
1.44109e-05
1.50045e-05
1.57039e-05
1.62351e-05
1.64311e-05
5.08527e-05
1.85016e-05
1.47759e-05
1.46284e-05
1.52472e-05
1.59694e-05
1.65165e-05
1.67177e-05
5.14812e-05
1.882e-05
1.50866e-05
1.49771e-05
1.56419e-05
1.64063e-05
1.69839e-05
1.71985e-05
5.23243e-05
1.92337e-05
1.55078e-05
1.54551e-05
1.61862e-05
1.70112e-05
1.76339e-05
1.78702e-05
5.33411e-05
1.97314e-05
1.60243e-05
1.60434e-05
1.6857e-05
1.77577e-05
1.84373e-05
1.87022e-05
5.45101e-05
2.03009e-05
1.66163e-05
1.67172e-05
1.7624e-05
1.86095e-05
1.93525e-05
1.96497e-05
5.58166e-05
2.09436e-05
1.72731e-05
1.74621e-05
1.84693e-05
1.95445e-05
2.03526e-05
2.06801e-05
5.21035e-05
1.96036e-05
1.6205e-05
1.64161e-05
1.74119e-05
1.84979e-05
1.93559e-05
1.97692e-05
5.25819e-05
1.98628e-05
1.64627e-05
1.67004e-05
1.77269e-05
1.8839e-05
1.97139e-05
2.01311e-05
5.33341e-05
2.02652e-05
1.68697e-05
1.71564e-05
1.82393e-05
1.9401e-05
2.03103e-05
2.07418e-05
5.43684e-05
2.08113e-05
1.74276e-05
1.77851e-05
1.89489e-05
2.01833e-05
2.11451e-05
2.16005e-05
5.56433e-05
2.14822e-05
1.8114e-05
1.85596e-05
1.98239e-05
2.11488e-05
2.21775e-05
2.2666e-05
5.71257e-05
2.2255e-05
1.89016e-05
1.94457e-05
2.08224e-05
2.22482e-05
2.33509e-05
2.38766e-05
5.87963e-05
2.31165e-05
1.97745e-05
2.04239e-05
2.19203e-05
2.34512e-05
2.46281e-05
2.51871e-05
5.45964e-05
2.15131e-05
1.84971e-05
1.92163e-05
2.07625e-05
2.23812e-05
2.36948e-05
2.44224e-05
5.51741e-05
2.18436e-05
1.88293e-05
1.95796e-05
2.11594e-05
2.28049e-05
2.41331e-05
2.48604e-05
5.60946e-05
2.23598e-05
1.93528e-05
2.01598e-05
2.18026e-05
2.35009e-05
2.48637e-05
2.56023e-05
5.73858e-05
2.30702e-05
2.00739e-05
2.0962e-05
2.26965e-05
2.44747e-05
2.58919e-05
2.6653e-05
5.89966e-05
2.39467e-05
2.09621e-05
2.19503e-05
2.37987e-05
2.56775e-05
2.71663e-05
2.79606e-05
6.08819e-05
2.49569e-05
2.19801e-05
2.3079e-05
2.5054e-05
2.70441e-05
2.86124e-05
2.94449e-05
6.30253e-05
2.60839e-05
2.31072e-05
2.43231e-05
2.64313e-05
2.85358e-05
3.01817e-05
3.10462e-05
5.82839e-05
2.42187e-05
2.16726e-05
2.30606e-05
2.53403e-05
2.76722e-05
2.95997e-05
3.07626e-05
5.90014e-05
2.4641e-05
2.20931e-05
2.35123e-05
2.58245e-05
2.81789e-05
3.01136e-05
3.12669e-05
6.01434e-05
2.52966e-05
2.27497e-05
2.42266e-05
2.66013e-05
2.90053e-05
3.09677e-05
3.21232e-05
6.17652e-05
2.62026e-05
2.36544e-05
2.52147e-05
2.76834e-05
3.01651e-05
3.21769e-05
3.33478e-05
6.38051e-05
2.73227e-05
2.47691e-05
2.6432e-05
2.90187e-05
3.16013e-05
3.36809e-05
3.48805e-05
6.62046e-05
2.86137e-05
2.60447e-05
2.78199e-05
3.05371e-05
3.3232e-05
3.53879e-05
3.66218e-05
6.89536e-05
3.00562e-05
2.74564e-05
2.93482e-05
3.22014e-05
3.501e-05
3.72387e-05
3.84981e-05
6.36889e-05
2.79954e-05
2.60004e-05
2.82441e-05
3.14736e-05
3.47313e-05
3.74594e-05
3.92023e-05
6.45936e-05
2.85282e-05
2.65198e-05
2.87891e-05
3.20433e-05
3.5312e-05
3.80326e-05
3.97504e-05
6.60162e-05
2.93443e-05
2.73175e-05
2.96349e-05
3.29419e-05
3.62466e-05
3.89781e-05
4.0681e-05
6.80482e-05
3.04713e-05
2.84142e-05
3.08037e-05
3.41932e-05
3.75624e-05
4.03277e-05
4.20313e-05
7.06248e-05
3.1866e-05
2.97649e-05
3.22443e-05
3.57409e-05
3.91984e-05
4.20183e-05
4.37395e-05
7.36692e-05
3.34732e-05
3.13094e-05
3.38861e-05
3.75022e-05
4.10593e-05
4.39437e-05
4.56901e-05
7.71965e-05
3.52708e-05
3.30192e-05
3.56951e-05
3.94351e-05
4.30922e-05
4.60361e-05
4.77977e-05
4.95348e-05
1.6134e-05
1.14627e-05
1.04092e-05
1.0139e-05
1.00531e-05
9.9699e-06
9.84234e-06
4.90968e-05
1.59755e-05
1.13907e-05
1.03681e-05
1.01098e-05
1.00286e-05
9.94903e-06
9.82971e-06
4.86532e-05
1.58549e-05
1.13399e-05
1.03455e-05
1.01054e-05
1.00397e-05
9.97548e-06
9.87216e-06
4.83174e-05
1.56738e-05
1.12674e-05
1.03206e-05
1.01092e-05
1.00676e-05
1.00337e-05
9.98008e-06
4.77108e-05
1.5683e-05
1.12382e-05
1.02477e-05
1.00001e-05
9.9239e-06
9.84892e-06
9.73544e-06
4.73709e-05
1.56083e-05
1.11862e-05
1.01936e-05
9.93912e-06
9.85595e-06
9.77581e-06
9.66057e-06
4.7069e-05
1.56107e-05
1.11898e-05
1.01904e-05
9.93247e-06
9.84772e-06
9.76514e-06
9.64326e-06
4.95379e-05
1.61966e-05
1.15411e-05
1.05053e-05
1.02526e-05
1.01815e-05
1.01069e-05
9.97841e-06
4.90802e-05
1.60419e-05
1.14626e-05
1.04494e-05
1.02021e-05
1.01303e-05
1.00552e-05
9.93166e-06
4.86012e-05
1.59207e-05
1.14002e-05
1.04043e-05
1.01647e-05
1.00983e-05
1.00291e-05
9.91317e-06
4.82184e-05
1.5743e-05
1.13116e-05
1.03484e-05
1.01239e-05
1.00675e-05
1.00122e-05
9.92388e-06
4.76749e-05
1.57309e-05
1.12834e-05
1.02929e-05
1.00463e-05
9.97021e-06
9.89228e-06
9.77047e-06
4.73465e-05
1.5647e-05
1.12318e-05
1.02462e-05
9.99865e-06
9.92052e-06
9.8417e-06
9.72202e-06
4.7045e-05
1.56322e-05
1.12239e-05
1.02342e-05
9.98424e-06
9.90513e-06
9.82489e-06
9.70077e-06
4.96826e-05
1.63127e-05
1.16804e-05
1.06755e-05
1.04539e-05
1.04094e-05
1.0352e-05
1.02254e-05
4.91995e-05
1.6155e-05
1.15892e-05
1.05984e-05
1.03753e-05
1.03242e-05
1.02614e-05
1.01363e-05
4.86853e-05
1.60252e-05
1.15105e-05
1.05287e-05
1.0305e-05
1.02516e-05
1.01881e-05
1.00656e-05
4.82603e-05
1.58482e-05
1.14081e-05
1.04477e-05
1.0229e-05
1.0176e-05
1.01159e-05
1.00084e-05
4.77393e-05
1.58072e-05
1.13664e-05
1.03879e-05
1.01537e-05
1.00874e-05
1.00135e-05
9.88643e-06
4.74019e-05
1.57115e-05
1.13072e-05
1.03356e-05
1.01014e-05
1.00338e-05
9.95961e-06
9.83569e-06
4.70999e-05
1.56797e-05