/*--------------------------------*- C++ -*----------------------------------*\
| =========                 |                                                 |
| \\      /  F ield         | OpenFOAM: The Open Source CFD Toolbox           |
|  \\    /   O peration     | Version:  plus.master.MPPICInterFoam            |
|   \\  /    A nd           | Web:      www.OpenFOAM.com                      |
|    \\/     M anipulation  |                                                 |
\*---------------------------------------------------------------------------*/
FoamFile
{
    version     2.0;
    format      ascii;
    class       volScalarField;
    location    "8.4";
    object      p;
}
// * * * * * * * * * * * * * * * * * * * * * * * * * * * * * * * * * * * * * //

dimensions      [1 -1 -2 0 0 0 0];

internalField   nonuniform List<scalar> 
11821
(
3941.76
3941.76
3941.76
3941.76
3941.76
3941.76
3941.76
3941.76
3941.76
3941.76
3941.76
3941.76
3941.76
3941.76
3941.76
3941.76
3941.76
3941.76
3941.76
3941.76
3941.76
3941.76
3941.76
3941.76
3941.77
3941.77
3941.77
3941.77
3941.77
3941.77
3941.77
3941.77
3941.78
3941.78
3941.78
3941.78
3941.78
3941.78
3941.78
3941.78
3941.79
3941.8
3941.8
3941.8
3941.8
3941.8
3941.8
3941.79
3941.82
3941.82
3941.82
3941.82
3941.82
3941.82
3941.82
3941.82
3844.66
3844.66
3844.66
3844.66
3844.66
3844.66
3844.66
3844.66
3844.66
3844.66
3844.66
3844.66
3844.66
3844.66
3844.66
3844.66
3844.66
3844.66
3844.66
3844.66
3844.66
3844.66
3844.66
3844.66
3844.67
3844.67
3844.67
3844.67
3844.67
3844.67
3844.67
3844.67
3844.68
3844.68
3844.68
3844.68
3844.68
3844.68
3844.68
3844.68
3844.7
3844.7
3844.7
3844.7
3844.7
3844.7
3844.7
3844.69
3844.71
3844.72
3844.72
3844.72
3844.72
3844.72
3844.72
3844.72
3747.56
3747.56
3747.56
3747.56
3747.56
3747.56
3747.56
3747.56
3747.56
3747.56
3747.56
3747.56
3747.56
3747.56
3747.56
3747.56
3747.57
3747.57
3747.57
3747.57
3747.57
3747.56
3747.56
3747.56
3747.57
3747.57
3747.57
3747.57
3747.57
3747.57
3747.57
3747.57
3747.58
3747.58
3747.58
3747.58
3747.58
3747.58
3747.58
3747.58
3747.6
3747.6
3747.6
3747.6
3747.6
3747.6
3747.59
3747.59
3747.61
3747.61
3747.61
3747.61
3747.61
3747.61
3747.61
3747.61
3650.47
3650.47
3650.47
3650.47
3650.47
3650.46
3650.46
3650.46
3650.47
3650.47
3650.47
3650.47
3650.46
3650.46
3650.46
3650.46
3650.47
3650.47
3650.47
3650.47
3650.47
3650.47
3650.47
3650.47
3650.48
3650.48
3650.48
3650.47
3650.47
3650.47
3650.47
3650.47
3650.49
3650.49
3650.48
3650.48
3650.48
3650.48
3650.48
3650.48
3650.5
3650.5
3650.5
3650.5
3650.5
3650.49
3650.49
3650.49
3650.51
3650.51
3650.51
3650.51
3650.51
3650.51
3650.51
3650.51
3553.37
3553.37
3553.37
3553.37
3553.37
3553.36
3553.36
3553.36
3553.37
3553.37
3553.37
3553.37
3553.36
3553.36
3553.36
3553.36
3553.37
3553.37
3553.37
3553.37
3553.37
3553.37
3553.37
3553.36
3553.38
3553.38
3553.38
3553.37
3553.37
3553.37
3553.37
3553.37
3553.39
3553.39
3553.38
3553.38
3553.38
3553.38
3553.38
3553.38
3553.4
3553.4
3553.39
3553.39
3553.39
3553.39
3553.39
3553.39
3553.41
3553.41
3553.41
3553.41
3553.41
3553.41
3553.41
3553.4
3456.27
3456.27
3456.27
3456.26
3456.26
3456.26
3456.26
3456.26
3456.27
3456.27
3456.27
3456.26
3456.26
3456.26
3456.26
3456.26
3456.27
3456.27
3456.27
3456.27
3456.27
3456.26
3456.26
3456.26
3456.28
3456.28
3456.27
3456.27
3456.27
3456.27
3456.27
3456.27
3456.28
3456.28
3456.28
3456.28
3456.28
3456.28
3456.28
3456.28
3456.29
3456.29
3456.29
3456.29
3456.29
3456.29
3456.29
3456.29
3456.3
3456.3
3456.3
3456.3
3456.3
3456.3
3456.3
3456.3
3359.16
3359.16
3359.16
3359.16
3359.16
3359.16
3359.16
3359.15
3359.16
3359.16
3359.16
3359.16
3359.16
3359.16
3359.16
3359.15
3359.17
3359.17
3359.17
3359.16
3359.16
3359.16
3359.16
3359.16
3359.17
3359.17
3359.17
3359.17
3359.17
3359.17
3359.16
3359.16
3359.18
3359.18
3359.18
3359.18
3359.17
3359.17
3359.17
3359.17
3359.19
3359.19
3359.19
3359.18
3359.18
3359.18
3359.18
3359.18
3359.2
3359.2
3359.2
3359.19
3359.19
3359.19
3359.19
3359.19
3262.06
3262.06
3262.06
3262.05
3262.05
3262.05
3262.05
3262.05
3262.06
3262.06
3262.06
3262.05
3262.05
3262.05
3262.05
3262.05
3262.06
3262.06
3262.06
3262.06
3262.06
3262.05
3262.05
3262.05
3262.07
3262.07
3262.06
3262.06
3262.06
3262.06
3262.06
3262.05
3262.07
3262.07
3262.07
3262.07
3262.07
3262.06
3262.06
3262.06
3262.08
3262.08
3262.08
3262.08
3262.07
3262.07
3262.07
3262.07
3262.09
3262.09
3262.09
3262.08
3262.08
3262.08
3262.08
3262.08
3164.95
3164.95
3164.95
3164.95
3164.94
3164.94
3164.94
3164.94
3164.95
3164.95
3164.95
3164.95
3164.94
3164.94
3164.94
3164.94
3164.96
3164.95
3164.95
3164.95
3164.95
3164.94
3164.94
3164.94
3164.96
3164.96
3164.96
3164.95
3164.95
3164.95
3164.95
3164.94
3164.97
3164.96
3164.96
3164.96
3164.96
3164.96
3164.95
3164.95
3164.97
3164.97
3164.97
3164.97
3164.96
3164.96
3164.96
3164.96
3164.98
3164.98
3164.98
3164.97
3164.97
3164.97
3164.97
3164.97
3067.84
3067.84
3067.84
3067.83
3067.83
3067.83
3067.83
3067.82
3067.84
3067.84
3067.84
3067.84
3067.83
3067.83
3067.83
3067.83
3067.85
3067.84
3067.84
3067.84
3067.84
3067.83
3067.83
3067.83
3067.85
3067.85
3067.85
3067.84
3067.84
3067.84
3067.84
3067.83
3067.86
3067.85
3067.85
3067.85
3067.85
3067.84
3067.84
3067.84
3067.86
3067.86
3067.86
3067.85
3067.85
3067.85
3067.85
3067.85
3067.87
3067.87
3067.86
3067.86
3067.86
3067.86
3067.86
3067.85
2970.73
2970.73
2970.72
2970.72
2970.72
2970.72
2970.71
2970.71
2970.73
2970.73
2970.73
2970.72
2970.72
2970.72
2970.71
2970.71
2970.74
2970.73
2970.73
2970.72
2970.72
2970.72
2970.72
2970.71
2970.74
2970.74
2970.73
2970.73
2970.73
2970.72
2970.72
2970.72
2970.75
2970.74
2970.74
2970.73
2970.73
2970.73
2970.73
2970.72
2970.75
2970.75
2970.74
2970.74
2970.74
2970.74
2970.73
2970.73
2970.76
2970.75
2970.75
2970.75
2970.74
2970.74
2970.74
2970.74
2873.61
2873.61
2873.61
2873.6
2873.6
2873.6
2873.59
2873.59
2873.62
2873.61
2873.61
2873.6
2873.6
2873.6
2873.6
2873.59
2873.62
2873.62
2873.61
2873.61
2873.6
2873.6
2873.6
2873.6
2873.62
2873.62
2873.62
2873.61
2873.61
2873.61
2873.6
2873.6
2873.63
2873.62
2873.62
2873.62
2873.61
2873.61
2873.61
2873.61
2873.64
2873.63
2873.63
2873.62
2873.62
2873.62
2873.61
2873.61
2873.64
2873.64
2873.63
2873.63
2873.63
2873.62
2873.62
2873.62
2776.49
2776.49
2776.49
2776.48
2776.48
2776.48
2776.47
2776.47
2776.5
2776.49
2776.49
2776.48
2776.48
2776.48
2776.47
2776.47
2776.5
2776.5
2776.49
2776.49
2776.48
2776.48
2776.48
2776.47
2776.51
2776.5
2776.49
2776.49
2776.49
2776.48
2776.48
2776.48
2776.51
2776.5
2776.5
2776.5
2776.49
2776.49
2776.49
2776.48
2776.52
2776.51
2776.5
2776.5
2776.5
2776.49
2776.49
2776.49
2776.52
2776.52
2776.51
2776.51
2776.5
2776.5
2776.5
2776.5
2679.37
2679.36
2679.36
2679.36
2679.35
2679.35
2679.34
2679.34
2679.37
2679.37
2679.36
2679.36
2679.35
2679.35
2679.35
2679.34
2679.38
2679.37
2679.36
2679.36
2679.36
2679.35
2679.35
2679.35
2679.38
2679.37
2679.37
2679.36
2679.36
2679.36
2679.35
2679.35
2679.39
2679.38
2679.37
2679.37
2679.37
2679.36
2679.36
2679.36
2679.39
2679.38
2679.38
2679.37
2679.37
2679.37
2679.37
2679.36
2679.4
2679.39
2679.39
2679.38
2679.38
2679.37
2679.37
2679.37
3941.92
3941.92
3941.92
3941.92
3941.92
3941.92
3941.93
3941.93
3941.93
3941.93
3941.93
3941.93
3941.94
3941.94
3941.94
3941.95
3941.92
3941.92
3941.92
3941.92
3941.92
3941.93
3941.93
3941.9
3844.81
3844.81
3844.81
3844.81
3844.81
3844.81
3844.81
3844.81
3844.81
3844.81
3844.81
3844.82
3844.82
3844.82
3844.82
3844.82
3844.8
3844.8
3844.8
3844.81
3844.81
3844.81
3844.81
3844.81
3844.81
3844.81
3844.81
3844.82
3844.83
3844.84
3844.85
3844.86
3844.79
3844.79
3844.79
3844.79
3844.79
3844.8
3844.8
3844.8
3844.77
3844.78
3844.78
3844.78
3844.78
3844.79
3844.79
3844.79
3844.75
3844.76
3844.76
3844.76
3844.76
3844.76
3844.76
3844.76
3747.69
3747.69
3747.69
3747.69
3747.7
3747.7
3747.7
3747.7
3747.7
3747.7
3747.7
3747.7
3747.7
3747.71
3747.71
3747.71
3747.69
3747.69
3747.69
3747.69
3747.69
3747.69
3747.7
3747.7
3747.69
3747.69
3747.7
3747.7
3747.71
3747.71
3747.72
3747.73
3747.67
3747.68
3747.68
3747.68
3747.68
3747.68
3747.68
3747.69
3747.66
3747.66
3747.67
3747.67
3747.67
3747.67
3747.68
3747.68
3747.65
3747.65
3747.65
3747.65
3747.65
3747.65
3747.65
3747.65
3650.58
3650.58
3650.58
3650.58
3650.58
3650.58
3650.58
3650.59
3650.58
3650.58
3650.58
3650.59
3650.59
3650.59
3650.59
3650.59
3650.58
3650.58
3650.58
3650.58
3650.58
3650.58
3650.58
3650.58
3650.58
3650.58
3650.58
3650.58
3650.59
3650.59
3650.6
3650.6
3650.56
3650.56
3650.56
3650.57
3650.57
3650.57
3650.57
3650.57
3650.55
3650.55
3650.56
3650.56
3650.56
3650.56
3650.56
3650.57
3650.54
3650.54
3650.54
3650.54
3650.54
3650.54
3650.54
3650.54
3553.47
3553.47
3553.47
3553.47
3553.47
3553.47
3553.47
3553.47
3553.47
3553.47
3553.47
3553.47
3553.47
3553.48
3553.48
3553.48
3553.47
3553.47
3553.47
3553.47
3553.47
3553.47
3553.47
3553.47
3553.46
3553.46
3553.47
3553.47
3553.47
3553.47
3553.48
3553.48
3553.45
3553.45
3553.45
3553.45
3553.46
3553.46
3553.46
3553.46
3553.44
3553.44
3553.45
3553.45
3553.45
3553.45
3553.45
3553.45
3553.43
3553.43
3553.43
3553.43
3553.43
3553.43
3553.43
3553.43
3456.36
3456.36
3456.36
3456.36
3456.36
3456.36
3456.36
3456.36
3456.36
3456.36
3456.36
3456.36
3456.36
3456.36
3456.36
3456.36
3456.35
3456.35
3456.35
3456.35
3456.35
3456.35
3456.36
3456.36
3456.35
3456.35
3456.35
3456.35
3456.36
3456.36
3456.36
3456.36
3456.34
3456.34
3456.34
3456.34
3456.34
3456.34
3456.34
3456.35
3456.33
3456.33
3456.33
3456.33
3456.34
3456.34
3456.34
3456.34
3456.32
3456.32
3456.32
3456.32
3456.32
3456.32
3456.32
3456.32
3359.24
3359.24
3359.24
3359.24
3359.24
3359.24
3359.24
3359.24
3359.24
3359.24
3359.24
3359.24
3359.24
3359.25
3359.25
3359.25
3359.24
3359.24
3359.24
3359.24
3359.24
3359.24
3359.24
3359.24
3359.24
3359.24
3359.24
3359.24
3359.24
3359.24
3359.24
3359.25
3359.23
3359.23
3359.23
3359.23
3359.23
3359.23
3359.23
3359.23
3359.22
3359.22
3359.22
3359.22
3359.22
3359.22
3359.22
3359.23
3359.21
3359.21
3359.21
3359.21
3359.21
3359.21
3359.21
3359.21
3262.13
3262.13
3262.13
3262.13
3262.13
3262.13
3262.13
3262.13
3262.13
3262.13
3262.13
3262.13
3262.13
3262.13
3262.13
3262.13
3262.13
3262.13
3262.13
3262.13
3262.13
3262.13
3262.13
3262.13
3262.12
3262.12
3262.12
3262.12
3262.12
3262.13
3262.13
3262.13
3262.12
3262.12
3262.12
3262.12
3262.12
3262.12
3262.12
3262.12
3262.11
3262.11
3262.11
3262.11
3262.11
3262.11
3262.11
3262.11
3262.1
3262.1
3262.1
3262.1
3262.1
3262.1
3262.1
3262.1
3165.02
3165.02
3165.02
3165.01
3165.01
3165.01
3165.01
3165.01
3165.02
3165.02
3165.01
3165.01
3165.01
3165.01
3165.01
3165.01
3165.01
3165.01
3165.01
3165.01
3165.01
3165.01
3165.01
3165.01
3165.01
3165.01
3165.01
3165.01
3165.01
3165.01
3165.01
3165.01
3165
3165
3165
3165
3165
3165
3165
3165
3165
3165
3165
3165
3165
3165
3165
3164.99
3164.99
3164.99
3164.99
3164.99
3164.99
3164.99
3164.99
3164.98
3067.9
3067.9
3067.9
3067.9
3067.9
3067.9
3067.9
3067.9
3067.9
3067.9
3067.9
3067.9
3067.9
3067.9
3067.9
3067.9
3067.9
3067.9
3067.9
3067.9
3067.89
3067.89
3067.89
3067.89
3067.9
3067.89
3067.89
3067.89
3067.89
3067.89
3067.89
3067.89
3067.89
3067.89
3067.89
3067.89
3067.89
3067.89
3067.88
3067.88
3067.88
3067.88
3067.88
3067.88
3067.88
3067.88
3067.88
3067.88
3067.88
3067.88
3067.88
3067.87
3067.87
3067.87
3067.87
3067.87
2970.79
2970.78
2970.78
2970.78
2970.78
2970.78
2970.78
2970.78
2970.78
2970.78
2970.78
2970.78
2970.78
2970.78
2970.78
2970.78
2970.78
2970.78
2970.78
2970.78
2970.78
2970.78
2970.77
2970.77
2970.78
2970.78
2970.78
2970.77
2970.77
2970.77
2970.77
2970.77
2970.77
2970.77
2970.77
2970.77
2970.77
2970.77
2970.77
2970.76
2970.77
2970.77
2970.77
2970.76
2970.76
2970.76
2970.76
2970.76
2970.76
2970.76
2970.76
2970.76
2970.76
2970.75
2970.75
2970.75
2873.67
2873.67
2873.66
2873.66
2873.66
2873.66
2873.66
2873.66
2873.67
2873.66
2873.66
2873.66
2873.66
2873.66
2873.66
2873.65
2873.66
2873.66
2873.66
2873.66
2873.66
2873.65
2873.65
2873.65
2873.66
2873.66
2873.66
2873.65
2873.65
2873.65
2873.65
2873.65
2873.66
2873.65
2873.65
2873.65
2873.65
2873.65
2873.64
2873.64
2873.65
2873.65
2873.65
2873.64
2873.64
2873.64
2873.64
2873.64
2873.64
2873.64
2873.64
2873.64
2873.64
2873.63
2873.63
2873.63
2776.55
2776.54
2776.54
2776.54
2776.54
2776.53
2776.53
2776.53
2776.54
2776.54
2776.54
2776.54
2776.53
2776.53
2776.53
2776.53
2776.54
2776.54
2776.54
2776.53
2776.53
2776.53
2776.53
2776.53
2776.54
2776.54
2776.53
2776.53
2776.53
2776.53
2776.53
2776.52
2776.53
2776.53
2776.53
2776.53
2776.52
2776.52
2776.52
2776.52
2776.53
2776.53
2776.52
2776.52
2776.52
2776.52
2776.51
2776.51
2776.52
2776.52
2776.52
2776.51
2776.51
2776.51
2776.51
2776.51
2679.42
2679.42
2679.41
2679.41
2679.41
2679.41
2679.4
2679.4
2679.42
2679.42
2679.41
2679.41
2679.41
2679.4
2679.4
2679.4
2679.42
2679.41
2679.41
2679.41
2679.4
2679.4
2679.4
2679.4
2679.41
2679.41
2679.41
2679.4
2679.4
2679.4
2679.4
2679.39
2679.41
2679.4
2679.4
2679.4
2679.4
2679.39
2679.39
2679.39
2679.4
2679.4
2679.4
2679.39
2679.39
2679.39
2679.38
2679.38
2679.4
2679.39
2679.39
2679.39
2679.38
2679.38
2679.38
2679.38
3941.75
3941.76
3941.75
3941.78
3941.77
3941.77
3941.77
3941.77
3941.77
3941.77
3941.77
3941.77
3941.77
3941.77
3941.77
3941.78
3941.76
3941.76
3941.76
3941.76
3941.76
3941.76
3941.76
3941.76
3844.74
3844.74
3844.74
3844.74
3844.74
3844.74
3844.74
3844.74
3844.71
3844.72
3844.72
3844.73
3844.73
3844.73
3844.73
3844.73
3844.69
3844.69
3844.69
3844.7
3844.71
3844.71
3844.71
3844.71
3844.69
3844.69
3844.68
3844.68
3844.69
3844.69
3844.7
3844.7
3844.69
3844.69
3844.68
3844.68
3844.68
3844.68
3844.68
3844.68
3844.67
3844.67
3844.67
3844.67
3844.68
3844.67
3844.68
3844.68
3844.67
3844.67
3844.67
3844.67
3844.67
3844.67
3844.67
3844.67
3747.63
3747.63
3747.63
3747.63
3747.63
3747.64
3747.64
3747.64
3747.62
3747.62
3747.62
3747.62
3747.62
3747.62
3747.62
3747.62
3747.61
3747.6
3747.6
3747.6
3747.61
3747.61
3747.61
3747.61
3747.59
3747.59
3747.59
3747.59
3747.59
3747.59
3747.6
3747.6
3747.58
3747.58
3747.58
3747.58
3747.58
3747.58
3747.58
3747.58
3747.57
3747.57
3747.57
3747.57
3747.57
3747.57
3747.57
3747.58
3747.57
3747.57
3747.57
3747.57
3747.57
3747.57
3747.57
3747.57
3650.53
3650.53
3650.53
3650.53
3650.53
3650.53
3650.53
3650.53
3650.51
3650.51
3650.51
3650.51
3650.51
3650.51
3650.51
3650.52
3650.5
3650.5
3650.5
3650.5
3650.5
3650.5
3650.5
3650.5
3650.49
3650.49
3650.49
3650.49
3650.49
3650.49
3650.49
3650.49
3650.48
3650.48
3650.48
3650.48
3650.48
3650.48
3650.48
3650.48
3650.47
3650.48
3650.47
3650.47
3650.47
3650.47
3650.47
3650.47
3650.47
3650.47
3650.47
3650.47
3650.47
3650.47
3650.47
3650.47
3553.42
3553.42
3553.42
3553.42
3553.42
3553.42
3553.42
3553.42
3553.41
3553.41
3553.41
3553.41
3553.41
3553.41
3553.41
3553.41
3553.4
3553.4
3553.4
3553.4
3553.4
3553.4
3553.4
3553.4
3553.39
3553.39
3553.39
3553.39
3553.39
3553.39
3553.39
3553.39
3553.38
3553.38
3553.38
3553.38
3553.38
3553.38
3553.38
3553.38
3553.37
3553.37
3553.37
3553.37
3553.37
3553.37
3553.37
3553.37
3553.37
3553.37
3553.37
3553.37
3553.37
3553.37
3553.37
3553.37
3456.31
3456.31
3456.31
3456.31
3456.31
3456.31
3456.31
3456.31
3456.3
3456.3
3456.3
3456.3
3456.3
3456.3
3456.3
3456.3
3456.29
3456.29
3456.29
3456.29
3456.29
3456.29
3456.29
3456.29
3456.28
3456.28
3456.28
3456.28
3456.28
3456.28
3456.28
3456.28
3456.28
3456.28
3456.28
3456.28
3456.28
3456.27
3456.27
3456.27
3456.27
3456.27
3456.27
3456.27
3456.27
3456.27
3456.27
3456.27
3456.27
3456.27
3456.27
3456.27
3456.27
3456.26
3456.26
3456.26
3359.2
3359.2
3359.2
3359.2
3359.2
3359.2
3359.2
3359.2
3359.19
3359.19
3359.19
3359.19
3359.19
3359.19
3359.19
3359.19
3359.19
3359.19
3359.19
3359.18
3359.18
3359.18
3359.18
3359.18
3359.18
3359.18
3359.18
3359.18
3359.18
3359.18
3359.17
3359.17
3359.17
3359.17
3359.17
3359.17
3359.17
3359.17
3359.17
3359.17
3359.17
3359.17
3359.17
3359.17
3359.16
3359.16
3359.16
3359.16
3359.16
3359.16
3359.16
3359.16
3359.16
3359.16
3359.16
3359.16
3262.09
3262.09
3262.09
3262.09
3262.09
3262.09
3262.09
3262.09
3262.09
3262.09
3262.08
3262.08
3262.08
3262.08
3262.08
3262.08
3262.08
3262.08
3262.08
3262.08
3262.07
3262.07
3262.07
3262.07
3262.07
3262.07
3262.07
3262.07
3262.07
3262.07
3262.07
3262.06
3262.07
3262.07
3262.06
3262.06
3262.06
3262.06
3262.06
3262.06
3262.06
3262.06
3262.06
3262.06
3262.06
3262.06
3262.05
3262.05
3262.06
3262.06
3262.06
3262.06
3262.05
3262.05
3262.05
3262.05
3164.98
3164.98
3164.98
3164.98
3164.98
3164.98
3164.98
3164.98
3164.98
3164.97
3164.97
3164.97
3164.97
3164.97
3164.97
3164.97
3164.97
3164.97
3164.97
3164.97
3164.96
3164.96
3164.96
3164.96
3164.96
3164.96
3164.96
3164.96
3164.96
3164.96
3164.95
3164.95
3164.96
3164.96
3164.95
3164.95
3164.95
3164.95
3164.95
3164.95
3164.95
3164.95
3164.95
3164.95
3164.95
3164.95
3164.94
3164.94
3164.95
3164.95
3164.95
3164.95
3164.94
3164.94
3164.94
3164.94
3067.87
3067.87
3067.87
3067.87
3067.87
3067.86
3067.86
3067.86
3067.86
3067.86
3067.86
3067.86
3067.86
3067.86
3067.85
3067.85
3067.86
3067.86
3067.85
3067.85
3067.85
3067.85
3067.85
3067.85
3067.85
3067.85
3067.85
3067.85
3067.84
3067.84
3067.84
3067.84
3067.85
3067.85
3067.84
3067.84
3067.84
3067.84
3067.84
3067.83
3067.84
3067.84
3067.84
3067.84
3067.84
3067.83
3067.83
3067.83
3067.84
3067.84
3067.84
3067.84
3067.83
3067.83
3067.83
3067.83
2970.76
2970.75
2970.75
2970.75
2970.75
2970.75
2970.75
2970.74
2970.75
2970.75
2970.75
2970.74
2970.74
2970.74
2970.74
2970.74
2970.74
2970.74
2970.74
2970.74
2970.74
2970.73
2970.73
2970.73
2970.74
2970.74
2970.73
2970.73
2970.73
2970.73
2970.72
2970.72
2970.73
2970.73
2970.73
2970.73
2970.72
2970.72
2970.72
2970.72
2970.73
2970.73
2970.73
2970.72
2970.72
2970.72
2970.72
2970.71
2970.73
2970.73
2970.72
2970.72
2970.72
2970.72
2970.71
2970.71
2873.64
2873.64
2873.63
2873.63
2873.63
2873.63
2873.63
2873.62
2873.63
2873.63
2873.63
2873.63
2873.62
2873.62
2873.62
2873.62
2873.63
2873.62
2873.62
2873.62
2873.62
2873.61
2873.61
2873.61
2873.62
2873.62
2873.62
2873.61
2873.61
2873.61
2873.61
2873.6
2873.62
2873.62
2873.61
2873.61
2873.61
2873.6
2873.6
2873.6
2873.62
2873.61
2873.61
2873.61
2873.6
2873.6
2873.6
2873.59
2873.61
2873.61
2873.61
2873.6
2873.6
2873.6
2873.59
2873.59
2776.52
2776.51
2776.51
2776.51
2776.51
2776.5
2776.5
2776.5
2776.51
2776.51
2776.51
2776.5
2776.5
2776.5
2776.49
2776.49
2776.51
2776.5
2776.5
2776.5
2776.49
2776.49
2776.49
2776.49
2776.5
2776.5
2776.49
2776.49
2776.49
2776.48
2776.48
2776.48
2776.5
2776.49
2776.49
2776.49
2776.48
2776.48
2776.48
2776.47
2776.5
2776.49
2776.49
2776.48
2776.48
2776.48
2776.47
2776.47
2776.49
2776.49
2776.49
2776.48
2776.48
2776.48
2776.47
2776.47
2679.39
2679.39
2679.38
2679.38
2679.38
2679.37
2679.37
2679.37
2679.39
2679.38
2679.38
2679.37
2679.37
2679.37
2679.36
2679.36
2679.38
2679.38
2679.37
2679.37
2679.36
2679.36
2679.36
2679.36
2679.38
2679.37
2679.37
2679.36
2679.36
2679.36
2679.35
2679.35
2679.37
2679.37
2679.36
2679.36
2679.36
2679.35
2679.35
2679.35
2679.37
2679.37
2679.36
2679.36
2679.35
2679.35
2679.35
2679.34
2679.37
2679.36
2679.36
2679.36
2679.35
2679.35
2679.34
2679.34
3941.84
3941.84
3941.84
3941.84
3941.84
3941.84
3941.84
3941.84
3941.87
3941.87
3941.87
3941.87
3941.88
3941.88
3941.88
3941.88
3941.89
3941.89
3941.89
3941.89
3941.89
3941.9
3941.9
3941.9
3941.91
3941.91
3941.92
3941.92
3941.93
3941.94
3941.95
3941.96
3941.91
3941.91
3941.91
3941.91
3941.91
3941.92
3941.92
3941.92
3941.92
3941.92
3941.92
3941.93
3941.93
3941.93
3941.93
3941.94
3941.92
3941.92
3941.92
3941.92
3941.92
3941.92
3941.92
3941.92
3844.73
3844.74
3844.74
3844.74
3844.74
3844.74
3844.74
3844.74
3844.76
3844.76
3844.76
3844.76
3844.76
3844.77
3844.77
3844.77
3844.77
3844.77
3844.78
3844.78
3844.78
3844.78
3844.78
3844.79
3844.8
3844.8
3844.8
3844.8
3844.81
3844.82
3844.82
3844.83
3844.8
3844.8
3844.8
3844.8
3844.8
3844.8
3844.8
3844.8
3844.81
3844.81
3844.81
3844.81
3844.81
3844.81
3844.82
3844.82
3844.81
3844.81
3844.81
3844.81
3844.81
3844.81
3844.81
3844.81
3747.63
3747.63
3747.63
3747.63
3747.63
3747.63
3747.63
3747.63
3747.65
3747.65
3747.65
3747.65
3747.65
3747.66
3747.66
3747.66
3747.66
3747.66
3747.66
3747.67
3747.67
3747.67
3747.67
3747.67
3747.68
3747.68
3747.68
3747.69
3747.69
3747.7
3747.7
3747.71
3747.68
3747.68
3747.68
3747.68
3747.69
3747.69
3747.69
3747.69
3747.69
3747.69
3747.69
3747.69
3747.7
3747.7
3747.7
3747.7
3747.69
3747.69
3747.69
3747.69
3747.69
3747.7
3747.7
3747.7
3650.53
3650.53
3650.53
3650.53
3650.53
3650.53
3650.53
3650.53
3650.54
3650.54
3650.54
3650.54
3650.55
3650.55
3650.55
3650.55
3650.55
3650.55
3650.55
3650.56
3650.56
3650.56
3650.56
3650.56
3650.57
3650.57
3650.57
3650.57
3650.58
3650.58
3650.58
3650.59
3650.57
3650.57
3650.57
3650.57
3650.57
3650.57
3650.58
3650.58
3650.58
3650.58
3650.58
3650.58
3650.58
3650.58
3650.59
3650.59
3650.58
3650.58
3650.58
3650.58
3650.58
3650.58
3650.58
3650.58
3553.42
3553.42
3553.42
3553.42
3553.42
3553.42
3553.42
3553.42
3553.43
3553.43
3553.43
3553.44
3553.44
3553.44
3553.44
3553.44
3553.44
3553.44
3553.44
3553.45
3553.45
3553.45
3553.45
3553.45
3553.46
3553.46
3553.46
3553.46
3553.46
3553.46
3553.47
3553.47
3553.46
3553.46
3553.46
3553.46
3553.46
3553.46
3553.46
3553.46
3553.47
3553.47
3553.47
3553.47
3553.47
3553.47
3553.47
3553.47
3553.47
3553.47
3553.47
3553.47
3553.47
3553.47
3553.47
3553.47
3456.31
3456.31
3456.31
3456.31
3456.31
3456.31
3456.31
3456.31
3456.33
3456.33
3456.33
3456.33
3456.33
3456.33
3456.33
3456.33
3456.33
3456.33
3456.33
3456.33
3456.33
3456.33
3456.33
3456.34
3456.35
3456.34
3456.35
3456.35
3456.35
3456.35
3456.35
3456.35
3456.35
3456.35
3456.35
3456.35
3456.35
3456.35
3456.35
3456.35
3456.35
3456.35
3456.35
3456.36
3456.36
3456.36
3456.36
3456.36
3456.36
3456.36
3456.36
3456.36
3456.36
3456.36
3456.36
3456.36
3359.21
3359.21
3359.2
3359.2
3359.2
3359.2
3359.2
3359.2
3359.22
3359.22
3359.22
3359.22
3359.22
3359.21
3359.21
3359.21
3359.22
3359.22
3359.22
3359.22
3359.22
3359.22
3359.22
3359.22
3359.23
3359.23
3359.23
3359.23
3359.23
3359.23
3359.24
3359.24
3359.24
3359.24
3359.24
3359.24
3359.24
3359.24
3359.24
3359.24
3359.24
3359.24
3359.24
3359.24
3359.24
3359.24
3359.24
3359.24
3359.24
3359.24
3359.24
3359.24
3359.24
3359.24
3359.24
3359.24
3262.1
3262.1
3262.1
3262.09
3262.09
3262.09
3262.09
3262.09
3262.11
3262.11
3262.1
3262.1
3262.1
3262.1
3262.1
3262.1
3262.11
3262.11
3262.11
3262.11
3262.11
3262.11
3262.11
3262.11
3262.12
3262.12
3262.12
3262.12
3262.12
3262.12
3262.12
3262.12
3262.12
3262.12
3262.12
3262.12
3262.12
3262.12
3262.12
3262.12
3262.13
3262.13
3262.13
3262.13
3262.13
3262.13
3262.13
3262.13
3262.13
3262.13
3262.13
3262.13
3262.13
3262.13
3262.13
3262.13
3164.99
3164.99
3164.98
3164.98
3164.98
3164.98
3164.98
3164.98
3165
3164.99
3164.99
3164.99
3164.99
3164.99
3164.99
3164.99
3165
3165
3165
3165
3165
3165
3164.99
3164.99
3165.01
3165.01
3165.01
3165
3165
3165
3165
3165
3165.01
3165.01
3165.01
3165.01
3165.01
3165.01
3165.01
3165.01
3165.01
3165.01
3165.01
3165.01
3165.01
3165.01
3165.01
3165.01
3165.02
3165.02
3165.01
3165.01
3165.01
3165.01
3165.01
3165.01
3067.88
3067.87
3067.87
3067.87
3067.87
3067.87
3067.86
3067.86
3067.88
3067.88
3067.88
3067.88
3067.88
3067.87
3067.87
3067.87
3067.89
3067.89
3067.88
3067.88
3067.88
3067.88
3067.88
3067.88
3067.89
3067.89
3067.89
3067.89
3067.89
3067.89
3067.89
3067.89
3067.9
3067.9
3067.89
3067.89
3067.89
3067.89
3067.89
3067.89
3067.9
3067.9
3067.9
3067.9
3067.9
3067.89
3067.89
3067.89
3067.9
3067.9
3067.9
3067.9
3067.9
3067.9
3067.9
3067.89
2970.76
2970.76
2970.76
2970.75
2970.75
2970.75
2970.75
2970.75
2970.77
2970.77
2970.76
2970.76
2970.76
2970.76
2970.76
2970.75
2970.77
2970.77
2970.77
2970.77
2970.76
2970.76
2970.76
2970.76
2970.78
2970.78
2970.77
2970.77
2970.77
2970.77
2970.77
2970.77
2970.78
2970.78
2970.78
2970.78
2970.77
2970.77
2970.77
2970.77
2970.78
2970.78
2970.78
2970.78
2970.78
2970.78
2970.78
2970.77
2970.79
2970.78
2970.78
2970.78
2970.78
2970.78
2970.78
2970.78
2873.65
2873.64
2873.64
2873.64
2873.63
2873.63
2873.63
2873.63
2873.65
2873.65
2873.64
2873.64
2873.64
2873.64
2873.64
2873.63
2873.66
2873.65
2873.65
2873.65
2873.64
2873.64
2873.64
2873.64
2873.66
2873.66
2873.65
2873.65
2873.65
2873.65
2873.65
2873.65
2873.66
2873.66
2873.66
2873.66
2873.65
2873.65
2873.65
2873.65
2873.67
2873.66
2873.66
2873.66
2873.66
2873.66
2873.65
2873.65
2873.67
2873.67
2873.66
2873.66
2873.66
2873.66
2873.66
2873.65
2776.53
2776.52
2776.52
2776.51
2776.51
2776.51
2776.51
2776.5
2776.53
2776.53
2776.52
2776.52
2776.52
2776.51
2776.51
2776.51
2776.54
2776.53
2776.53
2776.53
2776.52
2776.52
2776.52
2776.52
2776.54
2776.54
2776.53
2776.53
2776.53
2776.53
2776.52
2776.52
2776.54
2776.54
2776.54
2776.53
2776.53
2776.53
2776.53
2776.53
2776.55
2776.54
2776.54
2776.54
2776.53
2776.53
2776.53
2776.53
2776.55
2776.54
2776.54
2776.54
2776.54
2776.53
2776.53
2776.53
2679.4
2679.4
2679.39
2679.39
2679.38
2679.38
2679.38
2679.38
2679.41
2679.4
2679.4
2679.39
2679.39
2679.39
2679.38
2679.38
2679.41
2679.41
2679.4
2679.4
2679.4
2679.39
2679.39
2679.39
2679.42
2679.41
2679.41
2679.4
2679.4
2679.4
2679.4
2679.39
2679.42
2679.41
2679.41
2679.41
2679.4
2679.4
2679.4
2679.4
2679.42
2679.42
2679.41
2679.41
2679.41
2679.41
2679.4
2679.4
2679.42
2679.42
2679.41
2679.41
2679.41
2679.41
2679.4
2679.4
3868.8
3874.29
3877.08
3876.24
3871.88
3866.26
3861.02
3877.7
3886.5
3890.14
3888.9
3881.85
3873.08
3865.34
3886.45
3897.89
3896.78
3896.97
3890.03
3879.27
3869.17
3890.06
3896.84
3914.1
3897
3891.95
3881.83
3871.09
3887.25
3896.75
3897.8
3893.93
3890.26
3880.38
3870.02
3879.57
3888.07
3891.97
3890.31
3884.3
3875.38
3866.79
3870.86
3877.23
3880.52
3879.91
3875.27
3868.67
3862.56
3731.22
3731.07
3731.85
3731.44
3732.5
3733.97
3735.4
3727.62
3723
3721.55
3719.95
3727.39
3732.48
3734.66
3721.69
3706.82
3704.48
3700.79
3720.32
3730.8
3734.61
3719.75
3707.02
3706.45
3704.7
3724.54
3730.63
3735.07
3716.72
3699.33
3701.88
3700.08
3719.99
3730.27
3734.55
3722.49
3714.17
3719.1
3714.28
3724.66
3731.43
3734.21
3728.1
3726.38
3727.43
3727.29
3730.49
3733.12
3734.84
3584.53
3573.51
3568.21
3569.64
3580.04
3593.4
3605.72
3565.09
3552.19
3548.91
3549.44
3559.54
3577.77
3596
3551.98
3549.04
3547.14
3549.36
3547.58
3564.09
3587.51
3549.17
3543.7
3548.8
3544.43
3541.86
3561.6
3583.62
3550.52
3548.15
3547.35
3552.13
3544.98
3562.07
3585.69
3560.05
3550.88
3543.17
3548.65
3557.02
3572.76
3593
3578.06
3565.26
3561.51
3562.03
3572.66
3588.39
3602.61
3497.34
3487.63
3481.71
3485.38
3493.69
3503.74
3513.94
3484.75
3477.79
3475.68
3478.04
3481.26
3491.44
3505.32
3479.34
3477.42
3474.88
3478.8
3478.02
3480.76
3497.36
3479.35
3477.52
3482.72
3479.79
3473.87
3473.97
3492.28
3482.93
3481.85
3481.29
3481.85
3479.91
3481.1
3496.76
3487.13
3484.74
3480.51
3483.8
3483.91
3490.68
3504.21
3496.34
3487.64
3481.06
3485.45
3492.2
3501.93
3512.53
3458.8
3461.43
3461.84
3461.87
3459.01
3456.37
3454.69
3465.04
3474.08
3474.31
3475.72
3467.71
3459.47
3455.94
3475.02
3480.96
3475.78
3481.15
3479.16
3464.69
3457.26
3475.9
3475.87
3469.99
3476.99
3480.41
3467.24
3457.83
3478.19
3482.97
3479.01
3482.81
3482.8
3467.17
3458.16
3469.69
3481.37
3484.12
3483.07
3474.16
3462.39
3457.23
3461.86
3466.81
3469.52
3468.07
3462.75
3458.36
3455.83
3396.39
3402.66
3406.27
3402.74
3396.99
3389.99
3383.06
3407.04
3422.94
3436.1
3425.12
3409.61
3398.03
3388.7
3422.82
3461.03
3479.65
3465.05
3429.49
3405.99
3393.42
3437.62
3476.15
3479.47
3476.39
3448.67
3412.32
3396.03
3424.94
3465.12
3478.44
3468.72
3432.97
3407.13
3394.05
3408.75
3427.16
3443.49
3430.22
3412.02
3399.31
3389.73
3398.23
3404.53
3409.17
3404.73
3398.56
3391.4
3384.27
3295.85
3299.27
3301.18
3299.4
3296.21
3291.66
3286.58
3300.51
3304.25
3307.3
3304.41
3301.11
3296.56
3290.65
3303.05
3310.21
3326.15
3310.25
3303.8
3299.83
3293.83
3307.46
3332.22
3382.05
3333.32
3310.44
3302.48
3295.87
3303
3312.19
3332.74
3313.2
3304.61
3300.08
3294.11
3300.81
3303.79
3307.39
3304.74
3301.63
3297.06
3291.22
3296.72
3299.57
3301.46
3299.76
3296.88
3292.47
3287.31
3175.8
3176.22
3176.52
3176.47
3176.34
3175.57
3174.3
3174.53
3171.23
3168.55
3171.25
3174.76
3176.11
3175.27
3169.58
3156.82
3158.17
3154.93
3167.87
3175.3
3175.88
3163.95
3156.56
3156.79
3151.36
3161.15
3174.47
3176.23
3167.4
3151.91
3148.33
3148.52
3164.83
3174.32
3175.64
3172.3
3165.23
3160.29
3163.49
3171.3
3175.04
3174.94
3174.59
3173.78
3173.15
3173.48
3174.77
3174.94
3174.06
3046.53
3041.83
3040.06
3041.59
3046.19
3051.75
3056.51
3037.22
3029.73
3031.15
3028.89
3036.23
3045.42
3053
3030.4
3026.2
3021.95
3026.29
3030.01
3039.75
3050.22
3036.18
3022.64
3027.92
3023.74
3032.81
3037.62
3049.21
3030.92
3026.61
3024.09
3029.92
3029.82
3039.48
3049.96
3036.7
3032.27
3031.66
3031.37
3036.55
3044.57
3052.47
3045.32
3040.43
3038.9
3040.16
3044.81
3050.85
3055.93
2944.67
2939.9
2938.04
2939.61
2943.93
2949.71
2955.83
2939.35
2938.63
2940.14
2938.56
2939.14
2943.35
2951.27
2939.41
2942.18
2939.02
2943.1
2940.68
2939.9
2947.75
2942.78
2939.13
2948.13
2942.47
2943.94
2939.29
2946.16
2940.43
2943.76
2943.61
2945.79
2941.96
2940.46
2947.73
2940.63
2941.85
2943.76
2942.89
2941.88
2943.78
2951.11
2944.56
2941.08
2940.31
2941.46
2944.34
2949.52
2955.45
2879.38
2880.12
2879.49
2880.07
2878.86
2878.07
2878.66
2883.74
2887.25
2886.48
2887.41
2883.56
2878.58
2877.88
2887.19
2886.05
2885.4
2885.85
2886.52
2879.87
2877.4
2885.66
2883.93
2882.41
2882.92
2884.97
2879.77
2876.89
2886.84
2884.42
2882.08
2884.04
2886.28
2880.05
2877.39
2884.16
2886.14
2884.63
2886.04
2883.99
2878.82
2877.87
2879.64
2880.42
2879.92
2880.34
2879.01
2877.96
2878.56
2811.97
2815.89
2817.39
2815.61
2811.46
2807.41
2803.98
2820.76
2831.12
2833.35
2831.31
2821.14
2811.89
2806.54
2832.16
2840.33
2839.54
2840.15
2832.33
2817
2808.6
2835.91
2839.66
2834.28
2839.46
2835.04
2819.14
2809.35
2833.29
2840.8
2839.67
2840.86
2833.53
2817.66
2808.84
2822.6
2833.75
2836.17
2833.77
2823
2812.65
2806.89
2813.17
2817.75
2819.44
2817.58
2812.57
2807.95
2804.35
2723.31
2726.33
2727.74
2726.22
2723.27
2719.62
2715.51
2728.35
2735.64
2740.54
2735.55
2728.91
2723.8
2718.8
2735.7
2755.14
2763.96
2754.6
2736.97
2727.75
2721.33
2742.07
2768.45
2779.7
2766.89
2744.03
2729.83
2722.5
2736.77
2757.83
2769.06
2758.12
2738.67
2728.14
2721.59
2729.27
2737.77