/*--------------------------------*- C++ -*----------------------------------*\
| =========                 |                                                 |
| \\      /  F ield         | OpenFOAM: The Open Source CFD Toolbox           |
|  \\    /   O peration     | Version:  plus.master.MPPICInterFoam            |
|   \\  /    A nd           | Web:      www.OpenFOAM.com                      |
|    \\/     M anipulation  |                                                 |
\*---------------------------------------------------------------------------*/
FoamFile
{
    version     2.0;
    format      ascii;
    class       volScalarField;
    location    "7";
    object      p;
}
// * * * * * * * * * * * * * * * * * * * * * * * * * * * * * * * * * * * * * //

dimensions      [1 -1 -2 0 0 0 0];

internalField   nonuniform List<scalar> 
11821
(
2331.16
2332.3
2329.82
2331.32
2329.9
2328.64
2237.02
2237.81
2238.96
2239.15
2237.89
2236.81
2235.62
2238.14
2240.8
2245.04
2246.03
2241.42
2238.09
2236.62
2239.53
2246.46
2252.11
2251.49
2246.61
2239.59
2237.18
2239.95
2249.22
2251.97
2250.59
2247.01
2239.38
2237.1
2238.34
2241.85
2246.98
2246.81
2242.93
2238.36
2236.66
2237.09
2238.38
2239.78
2239.49
2238.42
2236.94
2235.69
2235.84
2236.82
2237.3
2237.21
2236.73
2235.75
2234.64
2133.49
2131.73
2130.15
2129.92
2131.59
2133.19
2134.86
2131.33
2127.1
2128.02
2127.25
2127.05
2131.46
2134.2
2129.18
2124.33
2133.38
2136.28
2129.19
2129.24
2133.94
2128.46
2122.11
2132.94
2137.68
2131.2
2129.49
2133.95
2130.13
2125.14
2128.35
2127.98
2127.12
2131.04
2134.08
2132.29
2130.08
2127.51
2127.85
2130.23
2132.69
2134.66
2134.33
2133.35
2133.08
2133.28
2133.78
2134.62
2135.34
2038.06
2037.09
2036.08
2036.71
2037.3
2037.67
2039.3
2036.99
2035.65
2036
2034.71
2035.33
2037.31
2038.26
2036.25
2033.53
2034.95
2034.83
2035.31
2035.62
2037.7
2036.97
2031.38
2036.66
2037.38
2036.15
2035.88
2037.86
2036.98
2035.74
2036.75
2035.07
2035.14
2037
2038.1
2037.6
2037.27
2035.98
2036.13
2036.82
2037.31
2039.01
2039.22
2038.08
2037.93
2037.88
2038.02
2038.97
2040.26
1956.17
1958.82
1960.06
1961.01
1959.13
1955.84
1954.33
1959.02
1962.18
1962.27
1962.19
1961.97
1958.74
1954.74
1961.05
1963.81
1960.44
1959.27
1961.83
1959.68
1954.96
1962.06
1965.9
1962.52
1960.67
1961.62
1959.34
1954.96
1960.22
1963.38
1962.93
1962.18
1961.93
1958.93
1954.75
1956.94
1960.6
1962.27
1962.14
1960
1956.24
1954.22
1955
1955.72
1956.22
1956.13
1955.34
1954.33
1953.93
1872.89
1877.02
1879.71
1880.17
1877.35
1872.89
1870.24
1876.77
1883.86
1885.29
1885.66
1883.76
1877.06
1871.56
1879.13
1885.4
1883.66
1884.76
1885.13
1879.26
1872.35
1878.87
1884.83
1881.68
1884.05
1884.77
1879.05
1872.28
1876.83
1883.33
1884.89
1885.29
1883.56
1877.18
1871.46
1873.03
1877.56
1880.23
1880.56
1877.89
1873.07
1869.98
1870.41
1871.85
1872.8
1872.87
1871.77
1870.03
1868.72
1782.17
1784.51
1786.6
1786.62
1784.69
1782.18
1780.54
1784.51
1790.02
1794.42
1794.48
1790.72
1784.88
1781.72
1786.22
1793.51
1799.32
1799.53
1794.62
1787.05
1782.54
1785.81
1792.66
1799.21
1799.03
1794.34
1786.99
1782.52
1784.67
1790.46
1794.85
1794.2
1791.06
1785.02
1781.66
1782.34
1785.05
1787.25
1787.2
1785.1
1782.27
1780.33
1780.59
1781.73
1782.56
1782.5
1781.63
1780.32
1779.08
1684.55
1684.22
1684.26
1684.14
1683.83
1684.42
1684.48
1684.22
1682.35
1682.78
1682.44
1681.8
1683.95
1684.71
1683.93
1681.8
1688.3
1688.82
1681.6
1683.51
1684.96
1683.95
1680.75
1686.95
1689.44
1682.39
1683.7
1684.94
1683.94
1680.93
1681.77
1681.11
1681.32
1683.73
1684.6
1684.18
1683.57
1682.99
1682.95
1683.12
1684.11
1684.32
1684.37
1684.42
1684.67
1684.68
1684.42
1684.31
1684.02
1588.05
1587.54
1586.43
1586.35
1587.38
1587.66
1588.27
1587.74
1585.48
1585.95
1585.72
1585.75
1587.42
1588.1
1587.35
1587.26
1586.63
1586.47
1586.38
1586.47
1587.99
1588.62
1590.94
1587.28
1587.83
1586.64
1586.36
1587.97
1588.67
1587.82
1588.62
1587.45
1586.81
1587.63
1588.14
1588.33
1588.43
1585.99
1585.77
1587.51
1587.73
1588.35
1588.75
1588.49
1588.19
1588.12
1588.3
1588.49
1588.67
1495.97
1496.49
1495.26
1495.25
1496.45
1495.43
1495.39
1497.17
1498.64
1499.89
1499.68
1498.51
1496.61
1495.44
1497.62
1500.69
1497.87
1497.49
1499.99
1496.45
1495.31
1498.8
1501.78
1498.69
1496.89
1498.94
1496.24
1495.32
1498.84
1501.06
1501.65
1500.39
1499.06
1497.29
1495.71
1497.04
1498.85
1497.61
1497.45
1497.77
1496.14
1495.74
1496.55
1496.77
1496.41
1496.26
1496.34
1496.04
1496
1404.78
1405.95
1405.39
1405.22
1405.73
1404.31
1404
1406.43
1410.16
1409.56
1409.58
1409.13
1406.03
1404.19
1407.06
1410.78
1406.54
1407.39
1409.81
1406.27
1404.09
1407.38
1411.6
1410.62
1406.55
1410.49
1406.38
1404.18
1407.52
1410.61
1411.34
1410.79
1409.74
1406.75
1404.49
1405.67
1407.74
1407.6
1407.27
1407.01
1405
1404.33
1405.03
1405.33
1405.1
1404.9
1404.88
1404.5
1404.39
1314.34
1315.81
1316.69
1316.72
1315.83
1314.22
1313.64
1316.14
1320.11
1321.5
1321.41
1319.79
1316.32
1314.18
1317.41
1321.27
1321.77
1320.89
1320.89
1317.55
1314.5
1317.07
1320.81
1319
1321.27
1321.99
1317.78
1314.55
1316.37
1319.71
1320.53
1321.04
1320.12
1316.71
1314.26
1314.65
1316.57
1317.5
1317.52
1316.6
1314.6
1313.74
1314.02
1314.45
1314.63
1314.59
1314.29
1313.76
1313.5
1222.06
1223
1223.96
1224.07
1223.3
1222.18
1221.84
1223.08
1226.16
1227.73
1227.77
1225.74
1223.62
1222.2
1224.03
1228.03
1230.28
1230.07
1227.96
1224.44
1222.49
1223.74
1227.03
1226.75
1229.88
1229
1224.53
1222.5
1223.1
1225.61
1226.04
1227.09
1226.25
1223.82
1222.17
1222.18
1223.35
1224.08
1224.29
1223.75
1222.32
1221.83
1221.96
1222.29
1222.52
1222.54
1222.28
1221.87
1221.67
1128.51
1128.82
1128.96
1128.97
1129.03
1128.56
1128.67
1128.73
1130.04
1128.56
1128.38
1129.72
1129.28
1128.64
1129.21
1131.22
1129.97
1131.58
1133.87
1129.69
1128.79
1129.57
1130.64
1129.96
1131.33
1135.13
1130.07
1128.87
1129.5
1131.25
1131.43
1131.29
1131.36
1130.03
1128.92
1129.01
1129.76
1130.07
1130.13
1130.2
1129.09
1128.92
1129.05
1129.21
1129.33
1129.36
1129.28
1129.03
1128.98
1036.35
1037.07
1037.09
1036.69
1037.4
1036.52
1036.38
1036.79
1038.93
1038.34
1039.34
1039.2
1037.62
1036.44
1036.76
1040.68
1038.63
1038.85
1041.22
1037.76
1036.34
1036.66
1040.79
1038.6
1038.73
1041.68
1038.15
1036.41
1037.11
1039.91
1041.8
1041.35
1040.18
1038.05
1036.63
1036.38
1037.05
1036.37
1036.25
1037.69
1036.7
1036.51
1036.4
1036.45
1036.23
1036.24
1036.61
1036.51
1036.54
944.823
945.906
945.552
945.356
946.632
945.265
944.78
945.643
949.145
951.417
951.681
950.081
947.049
945.065
945.165
951.47
948.671
949.184
950.957
947.118
944.85
945.166
951.92
948.815
949.167
950.99
947.292
944.844
945.668
949.655
951.65
951.428
949.967
946.916
945.022
944.662
945.641
945.079
944.814
946.277
945.094
944.671
944.484
944.661
944.436
944.405
944.827
944.634
944.598
853.399
854.422
854.883
853.777
854.925
853.627
853.237
854.238
857.976
859.38
859.754
858.517
855.349
853.396
854.513
859.286
855.784
856.482
859.461
855.615
853.109
854.622
859.51
855.514
856.597
859.731
855.887
853.138
854.181
858.055
859.422
859.755
858.364
855.128
853.231
853.242
854.228
854.924
853.394
854.474
853.415
852.977
853.079
853.278
853.252
852.911
853.201
852.996
852.97
2325.45
2325.41
2326.75
2326.19
2325.81
2325.57
2325.44
2325.38
2329.26
2327.82
2326.87
2326.23
2325.81
2325.56
2325.4
2325.34
2329.04
2327.72
2326.78
2326.15
2325.75
2325.5
2325.35
2325.28
2328.33
2327.27
2326.5
2325.99
2325.65
2325.43
2325.3
2325.22
2327.55
2326.83
2326.28
2325.86
2325.58
2325.39
2325.27
2325.19
2234.41
2233.59
2232.96
2232.5
2232.18
2231.98
2231.85
2231.79
2235.11
2233.99
2233.17
2232.58
2232.18
2231.93
2231.78
2231.72
2235.51
2234.23
2233.29
2232.62
2232.17
2231.88
2231.72
2231.66
2235.5
2234.21
2233.24
2232.56
2232.1
2231.82
2231.65
2231.59
2235.13
2233.93
2233.05
2232.42
2232
2231.74
2231.58
2231.52
2234.44
2233.47
2232.76
2232.24
2231.89
2231.67
2231.53
2231.46
2233.7
2233.02
2232.48
2232.09
2231.8
2231.61
2231.49
2231.42
2135.6
2136.07
2136.45
2136.76
2137
2137.2
2137.34
2137.45
2135.39
2136
2136.44
2136.75
2136.98
2137.17
2137.31
2137.44
2135.32
2135.94
2136.36
2136.67
2136.91
2137.11
2137.27
2137.41
2135.32
2135.91
2136.32
2136.63
2136.87
2137.08
2137.24
2137.38
2135.35
2135.92
2136.33
2136.63
2136.88
2137.07
2137.22
2137.36
2135.56
2136.05
2136.42
2136.7
2136.92
2137.09
2137.21
2137.33
2135.89
2136.23
2136.51
2136.76
2136.96
2137.11
2137.21
2137.29
2040.59
2041.61
2042.48
2043.19
2043.75
2044.21
2044.56
2044.8
2039.98
2041.26
2042.27
2043.07
2043.68
2044.16
2044.55
2044.82
2039.62
2040.99
2042.07
2042.91
2043.58
2044.1
2044.51
2044.8
2039.65
2040.98
2042.05
2042.89
2043.56
2044.09
2044.49
2044.79
2039.9
2041.17
2042.19
2042.99
2043.63
2044.12
2044.5
2044.78
2040.49
2041.6
2042.49
2043.2
2043.75
2044.19
2044.52
2044.76
2041.3
2042.12
2042.83
2043.42
2043.89
2044.26
2044.54
2044.74
1953.81
1953.84
1953.95
1954.09
1954.27
1954.49
1954.74
1954.95
1953.86
1953.74
1953.81
1953.96
1954.16
1954.39
1954.66
1954.89
1953.84
1953.62
1953.69
1953.85
1954.05
1954.3
1954.58
1954.83
1953.81
1953.59
1953.65
1953.8
1954.01
1954.25
1954.52
1954.77
1953.77
1953.6
1953.66
1953.81
1954.01
1954.23
1954.48
1954.72
1953.67
1953.62
1953.71
1953.85
1954.03
1954.24
1954.47
1954.67
1953.65
1953.72
1953.82
1953.95
1954.1
1954.27
1954.47
1954.65
1868.53
1867.62
1866.88
1866.34
1865.99
1865.84
1865.86
1865.96
1869.22
1867.86
1866.91
1866.27
1865.88
1865.71
1865.71
1865.81
1869.52
1868.01
1866.97
1866.26
1865.82
1865.6
1865.58
1865.69
1869.45
1867.96
1866.91
1866.19
1865.73
1865.5
1865.48
1865.58
1869.02
1867.67
1866.7
1866.03
1865.6
1865.39
1865.37
1865.47
1868.24
1867.16
1866.36
1865.81
1865.46
1865.29
1865.29
1865.38
1867.46
1866.74
1866.15
1865.69
1865.39
1865.25
1865.26
1865.34
1779.02
1777.94
1777.04
1776.33
1775.83
1775.54
1775.43
1775.45
1779.79
1778.32
1777.18
1776.34
1775.76
1775.41
1775.28
1775.3
1780.23
1778.61
1777.33
1776.39
1775.72
1775.32
1775.16
1775.17
1780.2
1778.57
1777.28
1776.31
1775.63
1775.22
1775.05
1775.06
1779.65
1778.16
1776.97
1776.08
1775.46
1775.08
1774.92
1774.94
1778.74
1777.52
1776.53
1775.78
1775.26
1774.94
1774.82
1774.83
1777.82
1776.93
1776.16
1775.56
1775.12
1774.87
1774.77
1774.78
1684.11
1683.76
1683.43
1683.17
1682.98
1682.88
1682.85
1682.89
1684.37
1683.97
1683.58
1683.22
1682.95
1682.79
1682.75
1682.8
1684.5
1684.08
1683.62
1683.21
1682.9
1682.72
1682.67
1682.72
1684.54
1684.06
1683.58
1683.16
1682.84
1682.65
1682.6
1682.65
1684.33
1683.86
1683.41
1683.03
1682.74
1682.57
1682.53
1682.57
1683.99
1683.59
1683.2
1682.88
1682.65
1682.51
1682.47
1682.51
1683.65
1683.31
1683
1682.75
1682.58
1682.47
1682.45
1682.48
1588.51
1588.75
1588.95
1589.12
1589.25
1589.38
1589.5
1589.62
1588.54
1588.87
1589.07
1589.17
1589.25
1589.34
1589.46
1589.59
1588.49
1588.83
1589.01
1589.11
1589.19
1589.29
1589.41
1589.56
1588.5
1588.81
1588.98
1589.08
1589.17
1589.26
1589.39
1589.54
1588.62
1588.84
1589
1589.1
1589.18
1589.27
1589.39
1589.52
1588.69
1588.89
1589.04
1589.13
1589.21
1589.3
1589.4
1589.52
1588.84
1588.96
1589.06
1589.17
1589.25
1589.33
1589.43
1589.53
1495.44
1495.67
1495.93
1496.16
1496.37
1496.57
1496.75
1496.91
1495.55
1495.78
1496
1496.2
1496.38
1496.56
1496.75
1496.92
1495.54
1495.76
1495.97
1496.17
1496.34
1496.52
1496.72
1496.92
1495.58
1495.79
1496
1496.18
1496.35
1496.52
1496.72
1496.92
1495.76
1495.91
1496.09
1496.25
1496.41
1496.57
1496.75
1496.93
1495.84
1496.01
1496.19
1496.34
1496.48
1496.63
1496.79
1496.95
1496.05
1496.19
1496.33
1496.46
1496.58
1496.72
1496.86
1496.99
1403.88
1403.99
1404.12
1404.25
1404.38
1404.55
1404.73
1404.9
1404.02
1404.05
1404.13
1404.25
1404.38
1404.53
1404.73
1404.91
1403.98
1404.03
1404.13
1404.23
1404.35
1404.51
1404.7
1404.91
1404.04
1404.07
1404.15
1404.25
1404.36
1404.51
1404.7
1404.91
1404.21
1404.19
1404.24
1404.32
1404.42
1404.55
1404.73
1404.92
1404.21
1404.25
1404.31
1404.39
1404.49
1404.61
1404.78
1404.93
1404.35
1404.42
1404.47
1404.52
1404.6
1404.7
1404.84
1404.98
1313.22
1313.06
1312.94
1312.88
1312.88
1312.95
1313.08
1313.23
1313.5
1313.16
1312.97
1312.88
1312.86
1312.93
1313.06
1313.23
1313.63
1313.22
1312.99
1312.87
1312.84
1312.9
1313.03
1313.21
1313.66
1313.23
1313
1312.88
1312.85
1312.89
1313.02
1313.2
1313.55
1313.2
1312.99
1312.89
1312.86
1312.9
1313.03
1313.19
1313.32
1313.1
1312.97
1312.9
1312.88
1312.94
1313.05
1313.19
1313.25
1313.14
1313.03
1312.97
1312.95
1313
1313.1
1313.21
1221.51
1221.35
1221.21
1221.12
1221.09
1221.14
1221.25
1221.38
1221.73
1221.44
1221.24
1221.12
1221.08
1221.11
1221.22
1221.36
1221.88
1221.51
1221.26
1221.12
1221.06
1221.08
1221.19
1221.34
1221.88
1221.51
1221.27
1221.12
1221.05
1221.07
1221.17
1221.33
1221.73
1221.43
1221.23
1221.1
1221.04
1221.07
1221.17
1221.31
1221.52
1221.32
1221.18
1221.08
1221.05
1221.08
1221.17
1221.29
1221.44
1221.32
1221.2
1221.12
1221.09
1221.12
1221.2
1221.29
1128.66
1128.71
1128.76
1128.81
1128.88
1128.97
1129.11
1129.24
1128.74
1128.78
1128.8
1128.83
1128.87
1128.95
1129.08
1129.23
1128.86
1128.85
1128.83
1128.83
1128.85
1128.93
1129.06
1129.22
1128.9
1128.87
1128.84
1128.83
1128.85
1128.92
1129.05
1129.21
1128.91
1128.87
1128.84
1128.83
1128.86
1128.92
1129.04
1129.19
1128.88
1128.86
1128.84
1128.84
1128.87
1128.93
1129.04
1129.17
1128.9
1128.9
1128.87
1128.87
1128.89
1128.95
1129.05
1129.15
1036.32
1036.42
1036.53
1036.63
1036.74
1036.86
1037.01
1037.15
1036.47
1036.54
1036.6
1036.66
1036.74
1036.84
1036.98
1037.14
1036.5
1036.55
1036.6
1036.65
1036.71
1036.81
1036.96
1037.13
1036.54
1036.57
1036.61
1036.65
1036.71
1036.81
1036.96
1037.12
1036.59
1036.6
1036.62
1036.66
1036.71
1036.81
1036.94
1037.1
1036.51
1036.55
1036.6
1036.65
1036.71
1036.8
1036.92
1037.06
1036.52
1036.56
1036.6
1036.65
1036.71
1036.8
1036.91
1037.02
944.539
944.582
944.657
944.736
944.831
944.945
945.09
945.228
944.781
944.718
944.724
944.76
944.821
944.919
945.062
945.218
944.744
944.689
944.687
944.717
944.773
944.87
945.021
945.19
944.721
944.673
944.67
944.698
944.753
944.849
944.998
945.165
944.753
944.672
944.663
944.689
944.743
944.837
944.977
945.131
944.569
944.578
944.611
944.659
944.725
944.821
944.95
945.083
944.512
944.55
944.589
944.639
944.709
944.802
944.918
945.03
853.006
853.037
853.061
853.081
853.126
853.208
853.331
853.453
853.13
853.052
853.025
853.026
853.054
853.128
853.256
853.398
852.985
852.95
852.945
852.955
852.985
853.057
853.19
853.338
852.954
852.917
852.909
852.915
852.94
853.008
853.135
853.281
852.981
852.929
852.904
852.901
852.922
852.987
853.105
853.241
852.869
852.866
852.865
852.875
852.907
852.975
853.082
853.197
852.852
852.873
852.872
852.875
852.903
852.964
853.056
853.149
2234.85
2233.98
2233.29
2232.75
2232.35
2232.1
2231.95
2231.89
2235.8
2234.56
2233.66
2232.99
2232.5
2232.19
2232.01
2231.97
2236.95
2235.41
2234.23
2233.36
2232.75
2232.35
2232.14
2232.09
2237.75
2236.02
2234.65
2233.65
2232.96
2232.51
2232.28
2232.22
2237.62
2236.02
2234.71
2233.75
2233.07
2232.62
2232.39
2232.34
2236.78
2235.47
2234.42
2233.62
2233.05
2232.68
2232.48
2232.42
2235.83
2234.88
2234.08
2233.44
2232.98
2232.68
2232.52
2232.47
2135.42
2136.05
2136.46
2136.75
2136.99
2137.19
2137.34
2137.47
2134.39
2135.47
2136.14
2136.59
2136.91
2137.14
2137.32
2137.49
2133.52
2135.05
2135.92
2136.47
2136.85
2137.12
2137.34
2137.53
2133.07
2134.92
2135.87
2136.47
2136.86
2137.14
2137.38
2137.59
2133.42
2135.15
2136.04
2136.61
2136.98
2137.25
2137.47
2137.68
2134.15
2135.54
2136.31
2136.81
2137.13
2137.38
2137.58
2137.75
2135.11
2135.97
2136.53
2136.94
2137.24
2137.46
2137.63
2137.77
2040.52
2041.64
2042.51
2043.21
2043.79
2044.25
2044.61
2044.87
2039.26
2040.8
2042.01
2042.91
2043.61
2044.15
2044.58
2044.9
2038.3
2040.08
2041.5
2042.59
2043.4
2044.03
2044.54
2044.92
2037.53
2039.6
2041.19
2042.38
2043.28
2043.97
2044.52
2044.93
2037.66
2039.74
2041.3
2042.47
2043.35
2044.03
2044.57
2044.97
2038.49
2040.35
2041.74
2042.78
2043.56
2044.17
2044.65
2045
2039.64
2041.05
2042.16
2043.04
2043.73
2044.27
2044.69
2044.98
1954.37
1954.31
1954.33
1954.41
1954.55
1954.73
1954.97
1955.19
1954.94
1954.49
1954.4
1954.45
1954.58
1954.78
1955.05
1955.31
1955.94
1954.83
1954.54
1954.52
1954.62
1954.83
1955.13
1955.43
1956.45
1954.94
1954.55
1954.52
1954.63
1954.85
1955.17
1955.51
1956.16
1954.87
1954.54
1954.53
1954.66
1954.89
1955.21
1955.54
1955.5
1954.72
1954.54
1954.58
1954.72
1954.94
1955.25
1955.54
1954.65
1954.5
1954.52
1954.61
1954.77
1954.98
1955.26
1955.51
1868.89
1868.01
1867.27
1866.71
1866.33
1866.15
1866.15
1866.25
1870.18
1868.79
1867.77
1867.05
1866.59
1866.36
1866.35
1866.47
1871.87
1869.77
1868.44
1867.51
1866.91
1866.6
1866.57
1866.7
1872.8
1870.26
1868.79
1867.78
1867.12
1866.78
1866.73
1866.87
1872.86
1870.26
1868.78
1867.79
1867.16
1866.83
1866.8
1866.94
1871.8
1869.73
1868.46
1867.6
1867.07
1866.81
1866.8
1866.94
1870.19
1869.06
1868.13
1867.44
1866.99
1866.78
1866.79
1866.92
1779.28
1778.27
1777.38
1776.66
1776.13
1775.82
1775.7
1775.72
1780.46
1779.12
1777.97
1777.08
1776.45
1776.07
1775.92
1775.94
1781.85
1780.15
1778.72
1777.62
1776.84
1776.36
1776.17
1776.19
1782.62
1780.74
1779.19
1778
1777.13
1776.59
1776.37
1776.38
1782.6
1780.67
1779.16
1778
1777.17
1776.65
1776.45
1776.47
1781.64
1780.02
1778.73
1777.73
1777.03
1776.61
1776.45
1776.48
1780.46
1779.36
1778.31
1777.48
1776.89
1776.54
1776.42
1776.45
1684.31
1684.08
1683.75
1683.45
1683.24
1683.12
1683.1
1683.15
1684.48
1684.32
1684.02
1683.7
1683.44
1683.28
1683.25
1683.31
1684.76
1684.66
1684.33
1683.97
1683.66
1683.46
1683.4
1683.47
1685.08
1684.92
1684.56
1684.16
1683.81
1683.59
1683.52
1683.59
1685.13
1684.86
1684.55
1684.18
1683.85
1683.64
1683.58
1683.64
1684.84
1684.65
1684.38
1684.06
1683.79
1683.62
1683.58
1683.64
1684.68
1684.43
1684.15
1683.89
1683.68
1683.57
1683.55
1683.6
1589.12
1589.32
1589.44
1589.54
1589.63
1589.73
1589.84
1589.96
1588.9
1589.28
1589.49
1589.61
1589.69
1589.78
1589.89
1590.03
1588.81
1589.26
1589.5
1589.63
1589.71
1589.81
1589.94
1590.1
1588.68
1589.2
1589.48
1589.63
1589.72
1589.82
1589.96
1590.13
1588.41
1589.14
1589.46
1589.63
1589.73
1589.83
1589.97
1590.13
1588.52
1589.16
1589.46
1589.62
1589.73
1589.84
1589.97
1590.11
1588.67
1589.02
1589.29
1589.5
1589.65
1589.79
1589.92
1590.04
1496.47
1496.55
1496.66
1496.78
1496.9
1497.04
1497.18
1497.32
1496.57
1496.57
1496.66
1496.77
1496.89
1497.03
1497.19
1497.36
1496.97
1496.74
1496.71
1496.77
1496.87
1497.01
1497.19
1497.39
1496.65
1496.57
1496.59
1496.69
1496.8
1496.95
1497.15
1497.37
1496.36
1496.43
1496.53
1496.64
1496.77
1496.93
1497.13
1497.34
1496.26
1496.36
1496.49
1496.62
1496.76
1496.92
1497.11
1497.29
1495.85
1496.05
1496.28
1496.49
1496.68
1496.87
1497.05
1497.21
1404.78
1404.77
1404.78
1404.82
1404.87
1404.97
1405.11
1405.25
1404.93
1404.79
1404.75
1404.77
1404.83
1404.94
1405.1
1405.27
1405.35
1404.95
1404.8
1404.77
1404.81
1404.91
1405.09
1405.29
1405.02
1404.74
1404.66
1404.65
1404.72
1404.85
1405.05
1405.26
1404.91
1404.65
1404.58
1404.59
1404.67
1404.81
1405.01
1405.23
1404.79
1404.59
1404.55
1404.59
1404.67
1404.81
1404.99
1405.19
1404.3
1404.35
1404.43
1404.52
1404.63
1404.77
1404.95
1405.12
1313.63
1313.46
1313.31
1313.21
1313.16
1313.19
1313.28
1313.4
1313.87
1313.55
1313.31
1313.18
1313.13
1313.17
1313.28
1313.42
1314.39
1313.78
1313.43
1313.23
1313.14
1313.16
1313.28
1313.44
1314.52
1313.8
1313.43
1313.21
1313.12
1313.14
1313.26
1313.44
1314.61
1313.8
1313.39
1313.17
1313.09
1313.11
1313.24
1313.43
1314.2
1313.62
1313.31
1313.14
1313.07
1313.11
1313.23
1313.4
1313.61
1313.39
1313.21
1313.1
1313.06
1313.1
1313.22
1313.36
1221.68
1221.55
1221.4
1221.27
1221.21
1221.22
1221.29
1221.39
1221.8
1221.58
1221.38
1221.25
1221.18
1221.19
1221.28
1221.41
1222.1
1221.75
1221.47
1221.29
1221.2
1221.2
1221.3
1221.44
1222.3
1221.84
1221.52
1221.32
1221.21
1221.2
1221.3
1221.46
1222.37
1221.84
1221.51
1221.31
1221.19
1221.19
1221.29
1221.45
1222
1221.66
1221.4
1221.24
1221.16
1221.17
1221.27
1221.42
1221.67
1221.52
1221.35
1221.22
1221.16
1221.18
1221.27
1221.4
1129.01
1129
1128.95
1128.92
1128.92
1128.97
1129.06
1129.16
1128.96
1128.95
1128.92
1128.89
1128.89
1128.95
1129.05
1129.18
1129.07
1129
1128.94
1128.9
1128.9
1128.95
1129.07
1129.22
1129.04
1128.97
1128.92
1128.88
1128.88
1128.94
1129.07
1129.23
1128.87
1128.88
1128.86
1128.85
1128.86
1128.92
1129.05
1129.22
1128.62
1128.75
1128.78
1128.8
1128.83
1128.91
1129.04
1129.19
1128.58
1128.69
1128.73
1128.77
1128.82
1128.91
1129.04
1129.17
1036.41
1036.49
1036.53
1036.58
1036.65
1036.73
1036.84
1036.96
1036.38
1036.46
1036.52
1036.57
1036.64
1036.73
1036.86
1036.99
1036.59
1036.55
1036.58
1036.62
1036.67
1036.75
1036.89
1037.04
1036.44
1036.51
1036.55
1036.6
1036.66
1036.75
1036.9
1037.06
1036.46
1036.52
1036.56
1036.59
1036.65
1036.75
1036.9
1037.07
1036.42
1036.49
1036.55
1036.59
1036.66
1036.76
1036.9
1037.06
1036.26
1036.35
1036.44
1036.54
1036.65
1036.77
1036.91
1037.05
944.365
944.411
944.469
944.538
944.616
944.712
944.829
944.947
944.43
944.442
944.484
944.542
944.619
944.719
944.848
944.984
944.778
944.62
944.595
944.621
944.667
944.756
944.89
945.04
944.654
944.592
944.593
944.625
944.678
944.771
944.917
945.08
944.679
944.627
944.613
944.63
944.693
944.794
944.945
945.112
944.838
944.705
944.671
944.687
944.744
944.844
944.988
945.141
944.488
944.509
944.576
944.657
944.753
944.87
945.014
945.154
852.873
852.848
852.832
852.841
852.861
852.912
852.999
853.096
852.957
852.91
852.864
852.844
852.859
852.911
853.008
853.119
853.324
853.112
852.987
852.919
852.902
852.944
853.044
853.162
853.462
853.148
853.003
852.927
852.915
852.967
853.079
853.214
853.452
853.147
853.013
852.964
852.958
853.014
853.132
853.275
853.379
853.149
853.043
853.005
853.02
853.086
853.205
853.337
853.055
853.043
853.046
853.059
853.093
853.163
853.278
853.399
2235.79
2234.83
2234.05
2233.43
2232.99
2232.66
2232.49
2232.43
2236.63
2235.37
2234.34
2233.57
2233.02
2232.68
2232.44
2232.38
2237.34
2235.81
2234.57
2233.64
2232.97
2232.61
2232.32
2232.26
2237.44
2235.77
2234.47
2233.54
2232.87
2232.43
2232.18
2232.13
2236.94
2235.31
2234.09
2233.26
2232.67
2232.32
2232.09
2232.03
2235.68
2234.49
2233.58
2232.91
2232.49
2232.2
2231.97
2231.94
2234.77
2233.9
2233.2
2232.68
2232.32
2232.13
2231.91
2231.87
2135.23
2136
2136.58
2136.97
2137.26
2137.48
2137.63
2137.76
2134.34
2135.66
2136.39
2136.86
2137.2
2137.4
2137.55
2137.7
2133.96
2135.52
2136.26
2136.72
2137.02
2137.32
2137.44
2137.62
2133.9
2135.44
2136.16
2136.61
2136.91
2137.15
2137.34
2137.56
2134.24
2135.53
2136.19
2136.61
2136.92
2137.16
2137.34
2137.51
2134.95
2135.82
2136.35
2136.71
2137
2137.23
2137.33
2137.47
2135.8
2136.26
2136.6
2136.86
2137.08
2137.27
2137.36
2137.47
2039.68
2041.07
2042.17
2043.04
2043.73
2044.26
2044.67
2044.96
2038.52
2040.34
2041.71
2042.74
2043.57
2044.1
2044.56
2044.89
2037.62
2039.7
2041.27
2042.41
2043.33
2043.94
2044.45
2044.83
2037.51
2039.55
2041.13
2042.29
2043.18
2043.85
2044.38
2044.8
2038.22
2040.04
2041.43
2042.49
2043.32
2043.92
2044.4
2044.74
2039.31
2040.79
2041.95
2042.85
2043.53
2044.08
2044.47
2044.8
2040.54
2041.61
2042.48
2043.19
2043.77
2044.21
2044.55
2044.84
1954.54
1954.42
1954.46
1954.57
1954.73
1954.93
1955.21
1955.47
1955.33
1954.54
1954.38
1954.42
1954.64
1954.79
1955.08
1955.37
1955.62
1954.43
1954.2
1954.25
1954.47
1954.67
1954.98
1955.31
1955.74
1954.38
1954.12
1954.18
1954.36
1954.61
1954.93
1955.27
1955.1
1954.23
1954.08
1954.15
1954.33
1954.55
1954.86
1955.17
1954.26
1953.98
1954.01
1954.15
1954.32
1954.55
1954.83
1955.11
1953.83
1953.9
1954.02
1954.17
1954.35
1954.58
1954.82
1955.07
1870.05
1868.92
1868.04
1867.37
1866.94
1866.73
1866.76
1866.87
1871.82
1869.66
1868.36
1867.48
1866.94
1866.64
1866.63
1866.76
1873.03
1870.18
1868.62
1867.62
1866.97
1866.62
1866.58
1866.7
1873.11
1870.17
1868.62
1867.59
1866.93
1866.57
1866.51
1866.64
1871.8
1869.55
1868.2
1867.28
1866.68
1866.39
1866.34
1866.49
1870
1868.55
1867.55
1866.85
1866.39
1866.18
1866.18
1866.29
1868.62
1867.77
1867.06
1866.52
1866.17
1866.06
1866.03
1866.13
1780.3
1779.22
1778.24
1777.44
1776.85
1776.51
1776.38
1776.41
1781.5
1779.9
1778.61
1777.62
1776.91
1776.47
1776.31
1776.38
1782.48
1780.49
1778.99
1777.84
1777
1776.47
1776.25
1776.31
1782.47
1780.49
1779
1777.81
1776.96
1776.42
1776.19
1776.18
1781.54
1779.88
1778.52
1777.45
1776.68
1776.22
1776.01
1776.05
1780.28
1778.94
1777.81
1776.95
1776.33
1775.97
1775.84
1775.85
1779.13
1778.14
1777.25
1776.54
1776.03
1775.8
1775.63
1775.65
1684.6
1684.42
1684.15
1683.88
1683.67
1683.6
1683.53
1683.58
1684.68
1684.62
1684.32
1684
1683.72
1683.55
1683.52
1683.57
1684.99
1684.85
1684.5
1684.09
1683.74
1683.52
1683.43
1683.53
1685.01
1684.78
1684.43
1684.03
1683.68
1683.44
1683.35
1683.37
1684.69
1684.48
1684.17
1683.83
1683.53
1683.33
1683.26
1683.34
1684.49
1684.24
1683.9
1683.58
1683.34
1683.22
1683.15
1683.22
1684.23
1683.95
1683.63
1683.35
1683.15
1683.11
1683
1683.05
1588.73
1589.1
1589.34
1589.51
1589.65
1589.83
1589.91
1590.03
1588.39
1589.01
1589.34
1589.52
1589.64
1589.75
1589.93
1590.02
1588.25
1588.92
1589.27
1589.44
1589.54
1589.64
1589.75
1589.95
1588.21
1588.85
1589.17
1589.35
1589.45
1589.55
1589.66
1589.81
1588.3
1588.83
1589.13
1589.3
1589.42
1589.53
1589.66
1589.85
1588.42
1588.89
1589.14
1589.29
1589.41
1589.58
1589.65
1589.75
1588.66
1588.9
1589.08
1589.23
1589.36
1589.57
1589.58
1589.69
1495.92
1496.12
1496.3
1496.48
1496.66
1496.91
1497.03
1497.2
1495.84
1496
1496.19
1496.38
1496.56
1496.79
1496.97
1497.14
1495.43
1495.73
1495.97
1496.2
1496.41
1496.61
1496.82
1497.08
1495.31
1495.62
1495.88
1496.1
1496.3
1496.51
1496.72
1496.95
1495.64
1495.75
1495.94
1496.14
1496.33
1496.52
1496.73
1496.93
1495.46
1495.71
1495.95
1496.17
1496.39
1496.65
1496.74
1496.91
1495.53
1495.75
1495.98
1496.2
1496.41
1496.61
1496.76
1496.91
1404.38
1404.41
1404.45
1404.51
1404.61
1404.83
1404.93
1405.11
1404.49
1404.3
1404.29
1404.36
1404.47
1404.7
1404.84
1405.04
1404.19
1404.06
1404.09
1404.2
1404.34
1404.52
1404.74
1405.03
1404.02
1403.95
1403.99
1404.11
1404.25
1404.42
1404.64
1404.89
1404.24
1404.07
1404.08
1404.16
1404.27
1404.43
1404.63
1404.85
1403.93
1403.98
1404.07
1404.19
1404.34
1404.58
1404.66
1404.85
1403.94
1404.03
1404.13
1404.25
1404.4
1404.54
1404.71
1404.87
1313.67
1313.45
1313.24
1313.1
1313.06
1313.13
1313.21
1313.36
1314.01
1313.46
1313.15
1312.99
1312.95
1313.07
1313.14
1313.31
1314.32
1313.55
1313.16
1312.97
1312.91
1312.96
1313.11
1313.37
1314.27
1313.53
1313.13
1312.93
1312.85
1312.89
1313.02
1313.23
1313.95
1313.39
1313.06
1312.88
1312.82
1312.85
1313.08
1313.22
1313.41
1313.14
1312.96
1312.86
1312.84
1312.92
1313.02
1313.19
1313.25
1313.09
1312.96
1312.89
1312.89
1312.94
1313.06
1313.21
1221.74
1221.58
1221.39
1221.24
1221.17
1221.19
1221.28
1221.4
1221.95
1221.6
1221.33
1221.17
1221.1
1221.2
1221.24
1221.4
1222.34
1221.79
1221.44
1221.22
1221.14
1221.15
1221.27
1221.44
1222.41
1221.85
1221.47
1221.23
1221.12
1221.11
1221.28
1221.42
1222.1
1221.68
1221.37
1221.17
1221.09
1221.09
1221.31
1221.42
1221.67
1221.45
1221.26
1221.13
1221.08
1221.1
1221.29
1221.4
1221.53
1221.4
1221.26
1221.15
1221.11
1221.13
1221.32
1221.41
1128.69
1128.79
1128.8
1128.8
1128.85
1128.95
1129.06
1129.19
1128.67
1128.75
1128.77
1128.79
1128.83
1128.99
1129.05
1129.21
1128.8
1128.85
1128.84
1128.84
1128.87
1128.95
1129.09
1129.27
1128.88
1128.9
1128.88
1128.87
1128.89
1128.96
1129.19
1129.32
1128.83
1128.86
1128.86
1128.87
1128.89
1128.97
1129.22
1129.33
1128.64
1128.76
1128.81
1128.84
1128.89
1128.97
1129.21
1129.31
1128.68
1128.79
1128.83
1128.86
1128.91
1129
1129.22
1129.31
1036.39
1036.47
1036.53
1036.58
1036.68
1036.81
1036.94
1037.08
1036.57
1036.58
1036.61
1036.65
1036.71
1036.88
1036.95
1037.11
1036.66
1036.64
1036.67
1036.7
1036.74
1036.83
1037
1037.18
1036.55
1036.62
1036.68
1036.73
1036.78
1036.88
1037.14
1037.26
1036.68
1036.66
1036.7
1036.74
1036.8
1036.91
1037.12
1037.27
1036.4
1036.54
1036.63
1036.7
1036.78
1036.9
1037.15
1037.25
1036.37
1036.51
1036.6
1036.68
1036.79
1036.91
1037.14
1037.23
944.581
944.594
944.625
944.686
944.786
944.907
945.039
945.187
944.94
944.78
944.743
944.757
944.812
944.929
945.063
945.223
944.892
944.783
944.756
944.772
944.821
944.916
945.168
945.288
944.809
944.777
944.765
944.78
944.854
944.971
945.23
945.352
945.161
944.932
944.865
944.862
944.908
945.005
945.183
945.356
944.756
944.734
944.762
944.815
944.895
945.01
945.248
945.346
944.576
944.634
944.699
944.783
944.894
944.999
945.18
945.316
853.104
853.086
853.074
853.08
853.115
853.178
853.309
853.436
853.399
853.182
853.108
853.09
853.115
853.189
853.384
853.47
853.482
853.227
853.121
853.089
853.104
853.171
853.395
853.502
853.14
853.117
853.078
853.081
853.124
853.213
853.364
853.528
853.5
853.296
853.2
853.159
853.167
853.231
853.462
853.556
853.158
853.127
853.124
853.14
853.185
853.27
853.479
853.553
853.055
853.086
853.102
853.133
853.196
853.261
853.39
853.516
2327.62
2326.92
2326.33
2325.9
2325.6
2325.4
2325.28
2325.21
2328.37
2327.32
2326.54
2326
2325.66
2325.44
2325.3
2325.23
2329.18
2327.87
2326.9
2326.24
2325.81
2325.54
2325.37
2325.29
2329.61
2328.16
2327.12
2326.41
2325.93
2325.73
2325.45
2325.37
2327.16
2326.47
2326.01
2325.71
2325.52
2325.43
2325.66
2325.56
2233.76
2233.09
2232.52
2232.1
2231.81
2231.6
2231.47
2231.41
2234.49
2233.53
2232.79
2232.26
2231.89
2231.67
2231.5
2231.43
2235.28
2234.08
2233.16
2232.51
2232.06
2231.81
2231.57
2231.49
2235.72
2234.43
2233.43
2232.7
2232.2
2231.95
2231.67
2231.58
2235.76
2234.49
2233.49
2232.77
2232.34
2231.96
2231.75
2231.66
2235.34
2234.18
2233.34
2232.73
2232.31
2232.02
2231.84
2231.76
2234.63
2233.78
2233.12
2232.62
2232.26
2232.02
2231.88
2231.82
2135.94
2136.28
2136.55
2136.77
2136.96
2137.1
2137.19
2137.25
2135.53
2136.05
2136.42
2136.69
2136.9
2137.08
2137.17
2137.24
2135.25
2135.9
2136.34
2136.65
2136.93
2137.1
2137.17
2137.26
2135.06
2135.82
2136.3
2136.64
2136.88
2137.11
2137.17
2137.32
2134.98
2135.79
2136.31
2136.65
2136.98
2137.1
2137.22
2137.36
2135.01
2135.8
2136.33
2136.68
2136.94
2137.12
2137.26
2137.39
2135.35
2135.9
2136.36
2136.71
2136.97
2137.16
2137.3
2137.41
2041.32
2042.15
2042.85
2043.42
2043.88
2044.24
2044.52
2044.72
2040.47
2041.6
2042.5
2043.21
2043.8
2044.16
2044.47
2044.69
2039.83
2041.16
2042.2
2042.99
2043.68
2044.11
2044.45
2044.69
2039.56
2040.94