/*--------------------------------*- C++ -*----------------------------------*\
| =========                 |                                                 |
| \\      /  F ield         | OpenFOAM: The Open Source CFD Toolbox           |
|  \\    /   O peration     | Version:  plus.master.MPPICInterFoam            |
|   \\  /    A nd           | Web:      www.OpenFOAM.com                      |
|    \\/     M anipulation  |                                                 |
\*---------------------------------------------------------------------------*/
FoamFile
{
    version     2.0;
    format      ascii;
    class       volScalarField;
    location    "7";
    object      p_rgh;
}
// * * * * * * * * * * * * * * * * * * * * * * * * * * * * * * * * * * * * * //

dimensions      [1 -1 -2 0 0 0 0];

internalField   nonuniform List<scalar> 
11821
(
5643.51
5573.09
5648.06
5631.75
5648.13
5646.87
5636.7
5508.85
5417.65
5396.37
5469.12
5612.6
5650.97
5528.92
5291.5
4569.9
4542.89
5220.83
5465.79
5651.81
5463.48
5010.46
3739.1
3737.87
4269.76
5423.59
5608.98
5449.23
4889.23
3738.57
3735.75
3982.08
5377.2
5593.28
5475.19
5164.37
4245.08
4162.04
4905.51
5411.26
5645.58
5613.29
5443.96
5400.54
5348.27
5428.29
5568.17
5651.04
5651.19
5646.93
5582.08
5554.28
5624.12
5651.1
5649.99
5583.25
5101.43
5063.8
4965.76
4987.05
5521.75
5647.33
5158.23
4837.25
4420.79
4562.32
4897.27
5003.99
5631.87
4993.76
4887.21
4139.46
3984.01
4264.11
5136.33
5535.85
4833.11
4898.19
3960.16
3665.08
3944.19
5118.46
5515.61
5038.33
4748.7
4174.67
4246.34
4750.75
4965.97
5611.76
5505.29
4921.44
5097.47
5006.54
4974.86
5438.48
5647.13
5646.8
5601.48
5425.2
5385.67
5554.34
5647.09
5647.81
5498.95
4589.98
4170.04
3983.55
4393.4
5377.68
5648.89
4671.44
3820.17
3754.81
3790.01
3846.26
4411.9
5587.58
4172.7
3812.35
4240.21
4234.12
3795.14
4210.02
5432.82
4025.33
4031.13
4247.89
3669.71
3762.47
4264.75
5419.27
4473.04
3773.38
3755.5
3846.55
3876.83
4310.16
5553
5339.47
4246.62
4019.93
3943.22
4212.5
5223.24
5648.6
5648.81
5520.87
5243.29
5198.32
5457.74
5643.89
5649.85
5504.46
4616.68
4075.33
3957.09
4447.63
5391.62
5661.03
4689.88
3725.23
3724.88
3721.09
3714.43
4473.66
5605.16
4171.42
3730.28
4058.31
3779.47
3710.33
4065.26
5464.12
4144.77
3727.3
4233.25
3724.4
3711.95
4108.96
5456.59
4519.73
3722.56
3720.4
3715.22
3712.25
4373.13
5577.08
5345.63
4306.24
3837.3
3819.52
4248.49
5241.91
5660.92
5661.07
5541.1
5289.99
5257.05
5490.09
5654.63
5660.64
5571.3
5061.03
4651.2
4646.54
5010.86
5520.34
5674.06
5091.42
4009.63
3694.23
3694.46
3977.4
5030.33
5656.39
4737.16
3732.13
3669.18
3668.72
3678.93
4637.66
5601.26
4868.45
3900.03
3797.62
3668.01
3684.78
4642.72
5597.09
5014.37
3971.18
3692.83
3693.91
3916.18
4959.55
5648.7
5457.75
4883.03
4491.1
4507.54
4869.13
5430.15
5673.8
5673.25
5624.88
5511.43
5504.33
5609.86
5669.91
5672.53
5634.8
5407.34
5340.46
5360.9
5425.41
5620.73
5681.48
5373.28
4918.54
4273.14
4327.37
4886.37
5400.69
5681.24
5217.1
4359.97
3628.69
3628.8
4220.69
5282.32
5664.67
5176.7
4701.77
3628.28
3628.45
4153.5
5233.32
5656.34
5245.55
4767.69
4158.42
4248.66
4675.13
5301.55
5679.47
5540.91
5201.7
5215.71
5246.53
5295.6
5549.12
5681.26
5681.27
5675.8
5631.08
5631.7
5676.23
5680.78
5680.01
5635.62
5345.04
5334.24
5334.17
5354.43
5615.58
5682.55
5287.6
4985.05
4563.59
4669.91
4959.37
5283.11
5682.78
5086.07
4516.83
4065.25
4025.61
4537.9
5203.22
5656
4836.7
4515.98
4010.48
3824.67
4394.57
5137.67
5644.06
5063.88
4655.56
4212.11
4438.3
4643.34
5132.94
5676.96
5525.93
4989.81
5133.1
5153.13
5152.11
5524.31
5682.39
5682.44
5677.15
5628.16
5629.04
5678.95
5682.37
5682.08
5615.92
5108.14
5030.21
4981.07
5053.09
5568.58
5683.45
5013.5
4381.29
3887.16
3934.68
4287.8
4880.11
5681.01
4560.89
3769.67
4366.58
4374.36
4015.08
4620.83
5615.33
4134.58
3479.9
4371.64
4374.17
3898.71
4542.36
5593.39
4675.02
3837.53
3562.29
3687.19
3916.19
4645.78
5662.14
5471.9
4549.74
4587.9
4562.7
4685.52
5425.24
5683.54
5683.94
5663.38
5603.4
5604.36
5664.86
5683.67
5683.82
5600.95
4960.67
4570.28
4489.8
4822.71
5510.28
5687.7
4862.78
3503.98
3430.4
3430.48
3476.21
4636.18
5678.02
4186.04
3414.16
4351.71
4351.49
3386.46
4067.08
5573.46
3997.21
3419.11
4351.03
4350.89
3369.82
4037.15
5542.2
4590.14
3425.36
3439.32
3442.04
3435.41
4422.89
5653.92
5465.83
4477.14
4137.91
4068.96
4447.97
5352.4
5688.05
5688.86
5662.37
5593.28
5591.86
5654.74
5688.31
5688.27
5610.36
4987.07
4500.56
4439.07
4834.95
5496.46
5693.43
4908.63
3443.74
3378.44
3382.13
3442.47
4666.5
5677.97
4237.39
3366.36
3652.77
4145.25
3324.01
4097.14
5578.1
4202.65
3369.83
4327.01
3894.72
3320.87
4059.39
5542.78
4735.87
3461.64
3402.89
3400.64
3422.06
4480.97
5662.03
5518.98
4642.49
4198.66
4125.67
4504.2
5360.57
5693.76
5694.46
5678.65
5618.9
5617.47
5666.54
5693.92
5693.78
5636.64
5105.84
4609.33
4597.99
4926.44
5499.31
5700.18
5082.72
3696.05
3327.83
3330.09
3760.71
4750.22
5680.51
4523.97
3321.16
3304.91
3281.55
3391
4273.97
5596.19
4596.2
3348.22
3721.85
3274.88
3274.4
4143.26
5555.75
5030.9
3737.35
3515.76
3354.61
3589.21
4603.83
5676
5605.88
4939.89
4464.87
4410.08
4669.23
5403.5
5700.28
5700.56
5698.98
5668.6
5669.04
5689.03
5700.31
5700.02
5658.34
5164.57
4704.1
4725.93
4929.37
5497.66
5705.5
5206.1
3887.97
3719.09
3779.32
3941.92
4707.59
5682.99
4764.46
3348.76
3275.25
3237.88
3250.11
4246.46
5599.48
4749.11
3573.51
3750.5
3232.96
3113.12
4076.9
5556.18
5161.76
3781.64
3651.27
3493.53
3625.07
4586.85
5684.71
5647.92
5064.6
4610.04
4586.73
4733.74
5442.14
5705.49
5705.62
5705.95
5697.92
5694.75
5704.05
5705.53
5705.33
5666.48
5152.86
4660.49
4644.05
4845.15
5481.5
5709.45
5228.67
3770.6
4008.7
3944.47
3706.52
4554.05
5682.48
4809.18
3326.99
3981.87
3588.49
3046.14
4049.54
5581.8
4756.54
3537.29
3958.25
3820.61
3048.06
3870.91
5533.46
5187.05
3571.85
3390.37
3381.76
3424.9
4517.54
5686.72
5656.99
5101.44
4611.54
4619.09
4740.02
5457.1
5709.7
5709.83
5709.99
5706.56
5699.77
5710.06
5709.81
5709.76
5672.17
5142.16
4576.16
4468.5
4720.14
5454.68
5714.28
5239.32
3475.33
3408.72
3151.17
3185.46
4419.57
5676.37
4820.17
3076.82
3927.38
3925.86
2993.68
3777.32
5532.04
4768.55
3080.61
3926.66
3925.81
2994.27
3688.3
5478.48
5219.59
3285.15
2963.09
2962.11
3087.24
4476.61
5680.66
5660.86
5153.76
4597.73
4622.97
4776.08
5456.08
5714.37
5714.3
5714.35
5709.99
5699.45
5714.51
5714.41
5714.44
5679.46
5155.68
4499.54
4322.72
4660.33
5440.72
5719.8
5278.29
3327.82
2907.89
2907.69
2953.88
4385.68
5673.18
4844.52
2930.34
3896.69
3897.37
2943.59
3676.77
5469.33
4804.51
2927.77
3897.06
3897.15
2943.53
3630.36
5415.14
5299.96
3285.46
2900.36
2899.93
2987.29
4486.68
5668.86
5666.47
5257.56
4620.65
4619.94
4862.39
5449.94
5718.85
5719.5
5719.68
5712.05
5692.17
5719.85
5719.65
5719.62
5689.8
5210.3
4438.92
4240.2
4644.32
5442.29
5725.38
5349.28
3417.07
2853.41
2854.13
2915.55
4377.78
5680.3
4904.22
2875.01
3453.85
3791.93
2892.52
3651.95
5446.47
4868.67
2872.44
3545.9
3819.68
2892.73
3612.66
5394.25
5388.45
3680.62
2847.21
2847.73
2992.35
4551.42
5672.52
5675.48
5359.65
4705.6
4613.2
4935.4
5444.67
5723.64
5725.22
5725.41
5718.86
5693.85
5725.35
5725.13
5725.11
5643.68
5643.64
5644.99
5644.42
5644.04
5643.8
5643.67
5643.62
5647.5
5646.06
5645.11
5644.46
5644.05
5643.79
5643.64
5643.57
5647.27
5645.95
5645.01
5644.39
5643.99
5643.74
5643.58
5643.51
5646.56
5645.5
5644.73
5644.22
5643.88
5643.66
5643.53
5643.46
5645.79
5645.06
5644.51
5644.09
5643.81
5643.62
5643.5
5643.42
5649.75
5648.94
5648.31
5647.8
5647.1
5645.94
5646.48
5647.1
5650.47
5649.34
5648.52
5647.93
5647.53
5647.28
5647.12
5647.07
5650.86
5649.58
5648.64
5647.97
5647.52
5647.23
5647.07
5647.01
5650.85
5649.56
5648.59
5647.91
5647.45
5647.17
5647
5646.94
5650.48
5649.29
5648.4
5647.78
5647.36
5647.09
5646.93
5646.87
5649.79
5648.82
5648.11
5647.59
5647.25
5647.02
5646.88
5646.81
5649.05
5648.37
5647.83
5647.43
5647.16
5646.97
5646.84
5646.78
5648.07
5648.54
5648.92
5649.18
5648.95
5648.71
5649.18
5649.79
5647.86
5648.47
5648.91
5649.22
5649.45
5649.64
5649.78
5649.91
5647.79
5648.41
5648.83
5649.14
5649.38
5649.58
5649.74
5649.88
5647.79
5648.38
5648.79
5649.1
5649.35
5649.55
5649.71
5649.85
5647.82
5648.39
5648.8
5649.1
5649.35
5649.54
5649.69
5649.83
5648.03
5648.52
5648.89
5649.17
5649.39
5649.56
5649.69
5649.8
5648.37
5648.7
5648.99
5649.23
5649.43
5649.58
5649.68
5649.76
5650.18
5651.2
5652.07
5652.72
5652.75
5653.02
5653.76
5654.25
5649.57
5650.85
5651.86
5652.66
5653.27
5653.75
5654.13
5654.41
5649.21
5650.58
5651.66
5652.5
5653.17
5653.69
5654.1
5654.39
5649.25
5650.57
5651.64
5652.48
5653.15
5653.67
5654.08
5654.38
5649.49
5650.76
5651.78
5652.58
5653.22
5653.71
5654.09
5654.37
5650.08
5651.19
5652.08
5652.79
5653.34
5653.78
5654.11
5654.35
5650.89
5651.71
5652.42
5653.01
5653.48
5653.85
5654.13
5654.33
5660.51
5660.54
5660.66
5660.74
5660.42
5660.26
5661.18
5661.57
5660.57
5660.45
5660.52
5660.67
5660.87
5661.1
5661.37
5661.6
5660.54
5660.33
5660.4
5660.56
5660.76
5661.01
5661.28
5661.54
5660.51
5660.29
5660.36
5660.51
5660.72
5660.96
5661.23
5661.48
5660.48
5660.31
5660.37
5660.52
5660.72
5660.94
5661.19
5661.43
5660.38
5660.33
5660.42
5660.56
5660.74
5660.94
5661.17
5661.38
5660.36
5660.43
5660.53
5660.66
5660.8
5660.98
5661.18
5661.35
5672.36
5671.44
5670.71
5670.09
5669.39
5668.2
5669.37
5669.78
5673.05
5671.69
5670.74
5670.1
5669.71
5669.53
5669.54
5669.64
5673.35
5671.84
5670.8
5670.09
5669.65
5669.43
5669.41
5669.52
5673.28
5671.78
5670.74
5670.02
5669.56
5669.33
5669.3
5669.41
5672.85
5671.5
5670.52
5669.85
5669.43
5669.22
5669.2
5669.3
5672.06
5670.99
5670.19
5669.64
5669.29
5669.12
5669.12
5669.2
5671.29
5670.57
5669.97
5669.51
5669.22
5669.08
5669.09
5669.17
5679.96
5678.88
5677.98
5677.21
5676.52
5674.59
5675.97
5676.39
5680.73
5679.27
5678.13
5677.29
5676.71
5676.36
5676.23
5676.24
5681.17
5679.55
5678.28
5677.33
5676.67
5676.27
5676.1
5676.12
5681.15
5679.51
5678.22
5677.26
5676.58
5676.16
5675.99
5676
5680.6
5679.11
5677.92
5677.03
5676.4
5676.02
5675.87
5675.88
5679.69
5678.46
5677.47
5676.73
5676.2
5675.89
5675.77
5675.78
5678.76
5677.88
5677.11
5676.5
5676.07
5675.81
5675.72
5675.73
5682.17
5681.82
5681.5
5681.22
5680.87
5679.05
5680.51
5680.96
5682.43
5682.04
5681.64
5681.28
5681.02
5680.86
5680.81
5680.87
5682.57
5682.15
5681.69
5681.28
5680.97
5680.78
5680.73
5680.79
5682.61
5682.13
5681.64
5681.22
5680.9
5680.71
5680.66
5680.71
5682.39
5681.93
5681.48
5681.1
5680.81
5680.64
5680.59
5680.64
5682.06
5681.65
5681.27
5680.95
5680.71
5680.57
5680.54
5680.58
5681.72
5681.37
5681.07
5680.82
5680.64
5680.54
5680.51
5680.55
5683.69
5683.93
5684.13
5684.3
5684.26
5683.02
5684.39
5684.8
5683.72
5684.06
5684.25
5684.36
5684.44
5684.53
5684.64
5684.78
5683.68
5684.02
5684.2
5684.3
5684.38
5684.47
5684.6
5684.74
5683.68
5683.99
5684.17
5684.27
5684.35
5684.45
5684.57
5684.72
5683.8
5684.03
5684.18
5684.28
5684.36
5684.46
5684.57
5684.71
5683.88
5684.08
5684.22
5684.32
5684.4
5684.48
5684.59
5684.7
5684.02
5684.14
5684.25
5684.35
5684.44
5684.52
5684.61
5684.71
5687.74
5687.98
5688.23
5688.46
5688.4
5687.69
5688.9
5689.11
5687.85
5688.08
5688.31
5688.51
5688.69
5688.86
5689.04
5689.23
5687.84
5688.06
5688.28
5688.47
5688.65
5688.82
5689.02
5689.22
5687.89
5688.1
5688.3
5688.48
5688.65
5688.83
5689.02
5689.22
5688.06
5688.21
5688.39
5688.56
5688.71
5688.87
5689.06
5689.24
5688.15
5688.32
5688.49
5688.64
5688.79
5688.94
5689.1
5689.25
5688.35
5688.49
5688.63
5688.76
5688.89
5689.02
5689.16
5689.29
5693.31
5693.41
5693.54
5693.67
5693.19
5692.77
5693.92
5693.85
5693.44
5693.47
5693.56
5693.67
5693.8
5693.96
5694.14
5694.34
5693.4
5693.45
5693.55
5693.65
5693.77
5693.93
5694.13
5694.33
5693.46
5693.49
5693.57
5693.67
5693.79
5693.93
5694.13
5694.33
5693.63
5693.61
5693.66
5693.74
5693.84
5693.98
5694.16
5694.34
5693.64
5693.67
5693.74
5693.81
5693.91
5694.04
5694.2
5694.36
5693.77
5693.84
5693.89
5693.94
5694.02
5694.13
5694.26
5694.4
5699.76
5699.6
5699.48
5699.42
5698.31
5698.24
5698.57
5699.13
5700.04
5699.7
5699.51
5699.42
5699.4
5699.47
5699.6
5699.77
5700.17
5699.76
5699.53
5699.41
5699.39
5699.44
5699.58
5699.75
5700.2
5699.77
5699.54
5699.42
5699.39
5699.43
5699.56
5699.74
5700.09
5699.74
5699.54
5699.43
5699.4
5699.45
5699.57
5699.73
5699.86
5699.65
5699.51
5699.44
5699.43
5699.48
5699.59
5699.73
5699.79
5699.68
5699.58
5699.51
5699.5
5699.54
5699.64
5699.75
5705.18
5705.01
5704.87
5704.78
5703.41
5703.64
5702.75
5704.4
5705.39
5705.1
5704.9
5704.78
5704.74
5704.77
5704.88
5705.02
5705.54
5705.17
5704.92
5704.78
5704.72
5704.74
5704.85
5705
5705.54
5705.17
5704.93
5704.78
5704.71
5704.73
5704.83
5704.99
5705.39
5705.09
5704.89
5704.76
5704.71
5704.73
5704.83
5704.97
5705.18
5704.99
5704.84
5704.75
5704.71
5704.74
5704.83
5704.95
5705.1
5704.98
5704.86
5704.78
5704.75
5704.78
5704.86
5704.95
5709.44
5709.49
5709.54
5709.59
5708.26
5708.94
5707.59
5709.48
5709.52
5709.56
5709.58
5709.61
5709.65
5709.73
5709.86
5710
5709.64
5709.62
5709.61
5709.61
5709.63
5709.7
5709.84
5710
5709.68
5709.65
5709.62
5709.61
5709.63
5709.7
5709.83
5709.99
5709.69
5709.65
5709.62
5709.61
5709.64
5709.7
5709.82
5709.97
5709.65
5709.64
5709.62
5709.62
5709.65
5709.71
5709.82
5709.95
5709.68
5709.67
5709.65
5709.65
5709.67
5709.73
5709.83
5709.93
5714.21
5714.32
5714.43
5714.53
5713.28
5714.41
5713.12
5714.7
5714.37
5714.43
5714.5
5714.56
5714.64
5714.74
5714.88
5715.03
5714.4
5714.45
5714.5
5714.55
5714.61
5714.71
5714.86
5715.03
5714.44
5714.47
5714.5
5714.55
5714.61
5714.71
5714.85
5715.02
5714.49
5714.5
5714.52
5714.55
5714.61
5714.7
5714.84
5715
5714.41
5714.45
5714.5
5714.55
5714.61
5714.7
5714.82
5714.96
5714.42
5714.46
5714.5
5714.55
5714.61
5714.69
5714.8
5714.91
5719.56
5719.6
5719.67
5719.75
5718.77
5719.92
5719.3
5720.1
5719.8
5719.74
5719.74
5719.78
5719.84
5719.94
5720.08
5720.23
5719.76
5719.71
5719.7
5719.73
5719.79
5719.89
5720.04
5720.21
5719.74
5719.69
5719.69
5719.72
5719.77
5719.87
5720.02
5720.18
5719.77
5719.69
5719.68
5719.71
5719.76
5719.85
5719.99
5720.15
5719.59
5719.6
5719.63
5719.68
5719.74
5719.84
5719.97
5720.1
5719.53
5719.57
5719.61
5719.66
5719.73
5719.82
5719.94
5720.05
5725.14
5725.17
5725.2
5725.16
5724.74
5725.33
5724.88
5725.54
5725.27
5725.19
5725.16
5725.16
5725.19
5725.26
5725.39
5725.53
5725.12
5725.09
5725.08
5725.09
5725.12
5725.19
5725.33
5725.47
5725.09
5725.05
5725.05
5725.05
5725.08
5725.14
5725.27
5725.42
5725.12
5725.07
5725.04
5725.04
5725.06
5725.12
5725.24
5725.38
5725.01
5725
5725
5725.01
5725.04
5725.11
5725.22
5725.33
5724.99
5725.01
5725.01
5725.01
5725.04
5725.1
5725.19
5725.29
5650.2
5649.33
5648.64
5648.1
5647.71
5647.45
5647.3
5647.24
5651.15
5649.91
5649.02
5648.34
5647.85
5647.54
5647.37
5647.32
5652.29
5650.76
5649.58
5648.71
5648.1
5647.7
5647.49
5647.44
5638.55
5651.37
5650
5649
5648.31
5647.86
5647.63
5647.57
5644.51
5651.37
5650.06
5649.1
5648.42
5647.98
5647.75
5647.69
5652.11
5650.83
5649.77
5648.97
5648.4
5648.03
5647.83
5647.77
5651.18
5650.23
5649.38
5648.57
5648.16
5647.94
5647.84
5647.8
5647.89
5648.53
5648.93
5649.22
5649.46
5649.66
5649.81
5649.94
5646.86
5647.94
5648.61
5649.06
5649.38
5649.61
5649.79
5649.96
5638.62
5647.52
5648.39
5648.94
5649.32
5649.59
5649.81
5650
5565.36
5647.4
5648.34
5648.94
5649.33
5649.62
5649.85
5650.06
5591.78
5647.62
5648.51
5649.08
5649.45
5649.72
5649.94
5650.15
5646.62
5648.01
5648.78
5649.28
5649.61
5649.85
5650.05
5650.22
5647.58
5648.44
5648.92
5649.29
5649.64
5649.81
5649.99
5650.22
5650.11
5651.23
5652.1
5652.8
5653.38
5653.84
5654.2
5654.46
5648.86
5650.39
5651.6
5652.5
5653.2
5653.74
5654.17
5654.49
5616.3
5649.67
5651.09
5652.18
5652.99
5653.62
5654.13
5654.51
5468.97
5649.2
5650.78
5651.97
5652.87
5653.56
5654.11
5654.52
5509.74
5649.33
5650.89
5652.06
5652.94
5653.62
5654.15
5654.56
5645.51
5649.94
5651.33
5652.36
5653.15
5653.76
5654.24
5654.58
5649.23
5650.64
5651.68
5652.59
5653.26
5653.72
5654.13
5654.56
5661.08
5661.02
5661.04
5661.12
5661.26
5661.44
5661.67
5661.89
5661.65
5661.2
5661.11
5661.16
5661.29
5661.49
5661.76
5662.02
5636.32
5661.54
5661.25
5661.22
5661.33
5661.54
5661.84
5662.14
5506.48
5661.64
5661.26
5661.22
5661.34
5661.56
5661.88
5662.22
5533.01
5661.57
5661.25
5661.24
5661.37
5661.6
5661.92
5662.25
5661.17
5661.43
5661.25
5661.28
5661.43
5661.65
5661.96
5662.25
5661.35
5661.21
5661.22
5661.31
5661.4
5661.56
5661.83
5662.21
5672.72
5671.84
5671.09
5670.54
5670.16
5669.98
5669.97
5670.07
5674.01
5672.62
5671.6
5670.88
5670.41
5670.19
5670.18
5670.29
5670.39
5673.59
5672.27
5671.34
5670.74
5670.43
5670.39
5670.53
5614.34
5674.09
5672.62
5671.61
5670.95
5670.6
5670.56
5670.7
5629.86
5674.09
5672.61
5671.62
5670.99
5670.66
5670.63
5670.77
5675.61
5673.56
5672.29
5671.43
5670.9
5670.64
5670.63
5670.77
5674.02
5672.89
5671.96
5671.25
5670.7
5670.52
5670.5
5670.74
5680.22
5679.22
5678.32
5677.6
5677.08
5676.76
5676.65
5676.66
5681.41
5680.07
5678.92
5678.03
5677.4
5677.01
5676.87
5676.89
5681.65
5681.1
5679.67
5678.57
5677.79
5677.31
5677.11
5677.14
5642.29
5681.69
5680.14
5678.95
5678.08
5677.53
5677.31
5677.33
5669.61
5681.62
5680.11
5678.95
5678.12
5677.6
5677.39
5677.42
5682.4
5680.97
5679.67
5678.68
5677.98
5677.55
5677.39
5677.42
5681.41
5680.3
5679.26
5678.41
5677.69
5677.43
5677.29
5677.39
5682.38
5682.14
5681.81
5681.51
5681.3
5681.19
5681.17
5681.21
5682.55
5682.39
5682.09
5681.77
5681.5
5681.35
5681.31
5681.37
5682.83
5682.73
5682.4
5682.04
5681.72
5681.52
5681.47
5681.53
5629.94
5682.98
5682.63
5682.22
5681.88
5681.65
5681.59
5681.65
5663.98
5682.93
5682.62
5682.24
5681.91
5681.7
5681.64
5681.7
5682.9
5682.72
5682.44
5682.13
5681.85
5681.69
5681.65
5681.7
5682.74
5682.49
5682.22
5681.93
5681.61
5681.56
5681.57
5681.66
5684.31
5684.51
5684.63
5684.72
5684.82
5684.92
5685.03
5685.14
5684.09
5684.47
5684.68
5684.79
5684.87
5684.96
5685.08
5685.21
5681.49
5684.44
5684.69
5684.82
5684.9
5684.99
5685.13
5685.28
5595.69
5684.38
5684.66
5684.81
5684.9
5685
5685.14
5685.31
5642.39
5684.32
5684.64
5684.81
5684.91
5685.01
5685.15
5685.31
5683.71
5684.34
5684.64
5684.81
5684.91
5685.02
5685.15
5685.29
5683.85
5684.21
5684.48
5684.64
5684.72
5684.85
5685.06
5685.22
5688.78
5688.86
5688.96
5689.08
5689.21
5689.34
5689.49
5689.63
5688.88
5688.88
5688.97
5689.07
5689.19
5689.33
5689.5
5689.66
5686.61
5689.04
5689.01
5689.07
5689.17
5689.31
5689.5
5689.69
5591.68
5688.87
5688.9
5688.99
5689.1
5689.26
5689.46
5689.67
5631.98
5688.74
5688.83
5688.95
5689.07
5689.23
5689.43
5689.64
5688.57
5688.66
5688.79
5688.92
5689.07
5689.23
5689.41
5689.6
5688.15
5688.36
5688.58
5688.74
5688.92
5689.03
5689.31
5689.51
5694.2
5694.19
5694.2
5694.24
5694.3
5694.39
5694.53
5694.67
5694.35
5694.22
5694.17
5694.19
5694.25
5694.36
5694.52
5694.69
5694.59
5694.38
5694.23
5694.19
5694.23
5694.34
5694.51
5694.71
5627.61
5694.16
5694.08
5694.08
5694.15
5694.27
5694.47
5694.69
5650.08
5694.07
5694
5694.01
5694.1
5694.23
5694.43
5694.65
5694.22
5694.01
5693.98
5694.01
5694.09
5694.23
5694.42
5694.61
5693.72
5693.78
5693.85
5693.89
5694.01
5694.07
5694.33
5694.52
5700.17
5700
5699.85
5699.75
5699.71
5699.73
5699.82
5699.94
5700.41
5700.09
5699.85
5699.72
5699.67
5699.71
5699.82
5699.96
5700.93
5700.32
5699.97
5699.77
5699.68
5699.7
5699.82
5699.99
5683.54
5700.35
5699.97
5699.75
5699.66
5699.68
5699.8
5699.98
5688.54
5700.35
5699.93
5699.71
5699.63
5699.65
5699.78
5699.97
5700.74
5700.17
5699.85
5699.68
5699.61
5699.65
5699.77
5699.94
5700.15
5699.93
5699.75
5699.61
5699.55
5699.52
5699.73
5699.87
5705.34
5705.21
5705.06
5704.93
5704.87
5704.88
5704.95
5705.05
5705.46
5705.24
5705.04
5704.9
5704.84
5704.85
5704.94
5705.07
5705.76
5705.41
5705.14
5704.95
5704.86
5704.86
5704.96
5705.1
5704.48
5705.5
5705.18
5704.98
5704.87
5704.86
5704.96
5705.12
5705.8
5705.5
5705.17
5704.97
5704.85
5704.85
5704.95
5705.11
5705.67
5705.32
5705.06
5704.9
5704.82
5704.83
5704.93
5705.08
5705.33
5705.18
5705.01
5704.87
5704.76
5704.73
5704.91
5705.02
5709.79
5709.78
5709.73
5709.69
5709.7
5709.75
5709.84
5709.94
5709.74
5709.73
5709.7
5709.67
5709.67
5709.73
5709.83
5709.96
5709.85
5709.78
5709.72
5709.68
5709.68
5709.73
5709.85
5710
5709.81
5709.75
5709.7
5709.66
5709.66
5709.72
5709.85
5710.01
5709.66
5709.66
5709.64
5709.63
5709.64
5709.7
5709.83
5710
5709.41
5709.53
5709.56
5709.57
5709.61
5709.69
5709.82
5709.97
5709.36
5709.46
5709.51
5709.54
5709.51
5709.57
5709.8
5709.91
5714.31
5714.38
5714.43
5714.48
5714.55
5714.63
5714.74
5714.86
5714.28
5714.36
5714.42
5714.47
5714.54
5714.63
5714.75
5714.89
5714.49
5714.45
5714.48
5714.51
5714.56
5714.65
5714.79
5714.94
5714.35
5714.41
5714.45
5714.5
5714.56
5714.65
5714.79
5714.96
5714.37
5714.42
5714.46
5714.49
5714.55
5714.65
5714.8
5714.96
5714.32
5714.39
5714.44
5714.49
5714.56
5714.66
5714.8
5714.96
5714.15
5714.24
5714.34
5714.43
5714.39
5714.55
5714.8
5714.92
5719.38
5719.43
5719.49
5719.56
5719.63
5719.73
5719.85
5719.96
5719.45
5719.46
5719.5
5719.56
5719.64
5719.74
5719.87
5720
5719.79
5719.64
5719.61
5719.64
5719.68
5719.77
5719.91
5720.06
5719.68
5719.61
5719.61
5719.64
5719.7
5719.79
5719.93
5720.1
5719.7
5719.64
5719.63
5719.65
5719.71
5719.81
5719.96
5720.13
5719.86
5719.72
5719.69
5719.7
5719.76
5719.86
5720.01
5720.16
5719.51
5719.53
5719.59
5719.67
5719.6
5719.8
5720.03
5720.14
5725.01
5724.98
5724.97
5724.98
5725
5725.05
5725.14
5725.23
5725.09
5725.05
5725
5724.98
5725
5725.05
5725.14
5725.26
5725.46
5725.25
5725.12
5725.05
5725.04
5725.08
5725.18
5725.3
5725.61
5725.28
5725.14
5725.06
5725.05
5725.1
5725.22
5725.35
5725.6
5725.28
5725.15
5725.1
5725.09
5725.15
5725.27
5725.41
5725.51
5725.29
5725.18
5725.14
5725.16
5725.22
5725.34
5725.47
5725.19
5725.18
5725.18
5725.19
5725.06
5725.25
5725.41
5725.51
5651.14
5650.18
5649.4
5647.51
5643.68
5646.64
5646.91
5647.75
5651.95
5650.73
5649.7
5648.92
5640.07
5637.27
5640.79
5647.65
5631.53
5651.16
5649.92
5648.98
5648.11
5637.2
5643.91
5647.42
5611.48
5651.12
5649.82
5648.79
5648.16
5647.56
5647.37
5643
5650.9
5650.66
5649.44
5648.46
5646.78
5638.83
5641.23
5647.14
5651.02
5649.84
5648.93
5645.46
5636.32
5636.02
5643.81
5647.29
5650.12
5649.25
5648.55
5646.75
5641.93
5635.96
5645.2
5647.22
5647.71
5648.47
5649.05
5648.26
5647.53
5647.84
5649.5
5650.17
5646.81
5648.13
5648.87
5649.25
5641
5643.23
5647.98
5650.11
5544.58
5647.99
5648.73
5649.19
5647.87
5639.51
5645.72
5649.95
5473.03
5647.91
5648.63
5649.06
5649.36
5649.14
5649.64
5641.24
5627.8
5648
5648.66
5648.87
5646.88
5646.16
5647.49
5649.73
5647.42
5648.29
5648.82
5644.62
5640.47
5637.88
5648.14
5648.43
5648.27
5648.73
5649.07
5648.76
5644.26
5641.1
5648.09
5647.76
5649.27
5650.66
5651.76
5651.76
5650.95
5651.48
5653.8
5654.31
5641.35
5649.93
5651.3
5651.71
5644.25
5651.46
5654.05
5654.41
5430.19
5649.29
5650.86
5652
5644.48
5650.66
5650.25
5654.27
5325.57
5649.14
5650.72
5651.88
5648.24
5652.72
5653.76
5645.35
5583.53
5649.63
5651.02
5651.67
5648.15
5652.69
5653.62
5652.17
5648.91
5650.38
5651.54
5647.82
5650.04
5642.21
5651.99
5640.15
5650.13
5651.19
5652.07
5652.63
5648.39
5648.68
5650.73
5643.17
5661.25
5661.13
5661.17
5660.67
5658.39
5660.71
5659.06
5661.61
5658.06
5661.24
5661.08
5659.48
5652.21
5660.16
5661.73
5662.01
5456.44
5661.13
5660.91
5660.96
5654.42
5660.77
5658.56
5661.95
5371.6
5661.08
5660.83
5660.88
5657.26
5660.71
5661.53
5652.79
5602.57
5660.94
5660.79
5660.3
5656.15
5657.46
5660.6
5647.89
5660.97
5660.68
5660.71
5658.6
5659.48
5649.7
5646.33
5643.94
5660.54
5660.6
5660.72
5660.88
5656.63
5651.35
5656.41
5648.67
5673.88
5672.74
5671.87
5670.81
5667.52
5670.03
5666.18
5670.03
5675.61
5673.49
5672.18
5668.51
5665.69
5665.68
5669.66
5662.5
5595.03
5674
5672.45
5671.4
5669.91
5668.88
5665.27
5668.7
5569.31
5674
5672.44
5671.42
5670.58
5670.19
5670.29
5664.56
5656.82
5673.37
5672.03
5670.23
5667.31
5657.4
5667.83
5651.97
5673.83
5672.38
5671.17
5670.55
5668.74
5657.14
5651.66
5651.77
5672.45
5671.6
5670.87
5670.35
5665.56
5656.67
5664.64
5661.01
5681.25
5680.16
5679.19
5678.27
5674.88
5671.39
5672.8
5676.72
5682.42
5680.85
5679.55
5675.45
5677.25
5668.94
5661.86
5654.38
5677.68
5681.43
5679.94
5678.43
5677.94
5670.51
5671.92
5658.42
5676.6
5681.43
5679.94
5678.76
5677.9
5677.23
5677.1
5675.31
5681.65
5680.82
5679.46
5677.42
5676.45
5666.13
5674.55
5658.18
5681.23
5679.88
5678.47
5677.89
5674.75
5663.37
5659.27
5657.98
5680.07
5679.08
5678.18
5677.49
5672.69
5663.19
5672.17
5673.83
5682.67
5682.49
5682.22
5681.95
5679.19
5671.31
5676.97
5681.06
5682.73
5682.68
5682.39
5679.43
5681.67
5672.84
5658.05
5658.1
5683.04
5682.91
5682.56
5681.29
5681.79
5672.81
5675.57
5658.06
5683.07
5682.84
5682.49
5681.97
5681.7
5681.3
5681.38
5678.11
5682.75
5682.54
5682.24
5681.5
5681.45
5678.4
5679.59
5662.13
5682.55
5682.3
5681.67
5681.65
5676.08
5667.39
5676.6
5663.18
5682.29
5682.01
5681.68
5681.41
5677.7
5667.28
5678.33
5680.67
5683.92
5684.28
5684.53
5684.7
5682.69
5674.41
5680.58
5684.78
5683.58
5684.2
5684.53
5684.53
5684.7
5675.89
5661.07
5664.58
5683.43
5684.11
5684.45
5684.03
5684.72
5676.06
5678.72
5661.03
5683.4
5684.03
5684.36
5684.15
5684.53
5684.54
5684.83
5676.55
5683.49
5684.01
5684.31
5684.49
5684.6
5684.35
5684.48
5668.51
5683.61
5684.07
5684.27
5684.47
5677.98
5670.53
5684.21
5678.3
5683.84
5684.08
5684.26
5684.42
5681.43
5671.32
5683.63
5684.87
5688.23
5688.42
5688.6
5688.78
5687.56
5678.35
5685.64
5689.32
5688.16
5688.31
5688.48
5688.68
5688.38
5678.44
5683.49
5685.23
5684.83
5688.03
5688.28
5688.48
5688.71
5683.58
5683.09
5664.71
5680.87
5687.93
5688.18
5688.06
5688.52
5688.7
5689
5678.56
5687.96
5688.05
5688.24
5688.44
5688.63
5688.38
5689.01
5684.49
5687.77
5688.01
5688.25
5688.48
5682.25
5674.39
5688.12
5688.92
5687.83
5688.04
5688.28
5688.5
5684.76
5682.31
5688.76
5689.12
5693.8
5693.83
5693.87
5693.94
5693.72
5683.15
5692.25
5694.49
5693.92
5693.72
5693.69
5693.78
5692.12
5682.99
5692
5694.42
5689.11
5693.48
5693.52
5693.63
5693.74
5692.2
5689.14
5669.21
5685.37
5693.38
5693.42
5693.48
5693.64
5693.83
5694.04
5684.52
5693.66
5693.49
5693.5
5693.59
5693.38
5693.24
5690.58
5692.49
5693.35
5693.4
5693.5
5693.62
5688.11
5679.11
5693.66
5693.8
5693.35
5693.45
5693.56
5693.67
5688.38
5689.94
5693.9
5693.06
5700.22
5699.99
5699.78
5699.65
5699.4
5694.2
5698.9
5699.86
5700.56
5700
5699.68
5699.53
5696.88
5688.22
5696.92
5699.81
5696.92
5700.1
5699.71
5699.51
5698.36
5698.03
5696.75
5678.58
5695.14
5700.07
5699.67
5699.47
5699.39
5699.43
5697.61
5694
5700.5
5699.93
5699.6
5699.42
5696.67
5698.23
5682.53
5696.87
5699.96
5699.68
5699.5
5699.4
5693.67
5691.12
5697.28
5697.22
5699.79
5699.63
5699.51
5699.43
5693.72
5695.07
5697.98
5697.2
5705.4
5705.24
5705.05
5704.9
5704.44
5702.04
5704.59
5704.76
5705.62
5705.26
5704.98
5704.83
5702.12
5693.22
5702.14
5705.01
5699.04
5705.45
5705.1
5704.89
5702.22
5702.93
5703.79
5701.01
5695.89
5705.51
5705.13
5704.89
5704.76
5704.76
5689.65
5702.21
5705.77
5705.34
5705.03
5704.83
5701.29
5703.12
5687.45
5700.98
5705.33
5705.11
5704.92
5704.79
5698.89
5702.71
5688.31
5701.28
5705.19
5705.06
5704.92
5704.81
5698.95
5700.06
5688.78
5702.45
5709.47
5709.57
5709.58
5709.58
5708.1
5706.07
5709.61
5708.99
5709.46
5709.53
5709.55
5709.57
5707.21
5697.87
5708.01
5709.94
5702.8
5709.63
5709.62
5709.62
5706.99
5707.19
5709.34
5709.61
5698.03
5709.68
5709.66
5709.65
5709.57
5709.73
5692.07
5707.73
5709.62
5709.64
5709.64
5709.64
5707.76
5708.27
5692.09
5705.92
5709.42
5709.54
5709.59
5709.62
5705.11
5707.16
5692.06
5706.12
5709.46
5709.57
5709.61
5709.64
5703.59
5704.85
5692.08
5707.57
5714.29
5714.37
5714.42
5714.48
5710.81
5709.39
5714.6
5713.86
5714.47
5714.48
5714.51
5714.55
5712.85
5702.63
5713.66
5711.9
5712.54
5714.54
5714.56
5714.59
5712.11
5712.22
5705.99
5712.71
5704.7
5714.52
5714.58
5714.63
5714.54
5714.76
5696.78
5713.18
5714.59
5714.56
5714.6
5714.64
5714.54
5713.81
5701.97
5711.48
5714.3
5714.44
5714.53
5714.6
5712.71
5710.86
5696.73
5711.36
5714.27
5714.4
5714.49
5714.58
5708.35
5710.35
5696.77
5713.21
5719.6
5719.61
5719.64
5719.7
5715.07
5714.56
5718.6
5719.09
5719.96
5719.8
5719.76
5719.77
5718.95
5708.18
5710.09
5712.93
5719.91
5719.8
5719.77
5719.79
5718.59
5717.4
5700.93
5714.53
5709.84
5719.79
5719.78
5719.79
5719.75
5719.98
5702.3
5718.93
5720.2
5719.95
5719.88
5719.88
5719.93
5719.05
5711.61
5717.29
5719.78
5719.75
5719.78
5719.83
5718.11
5714.27
5701.56
5717.13
5719.59
5719.65
5719.72
5719.8
5713.45
5717.66
5711.43
5719.24
5725.24
5725.22
5725.21
5725.19
5720.43
5721.77
5718.41
5724.51
5725.53
5725.32
5725.24
5725.23
5724.5
5716.03
5705.86
5719.26
5725.7
5725.36
5725.26
5725.22
5725.07
5722.53
5705.87
5718.68
5715.3
5725.25
5725.21
5725.2
5725.18
5725.34
5722.74
5724.57
5725.67
5725.43
5725.34
5725.24
5725.3
5724.04
5707.06
5722.77
5725.3
5725.26
5725.26
5725.28
5722.74
5718.82
5706.53
5723.08
5725.19
5725.22
5725.24
5725.23
5720.86
5725.2
5720.93
5725.16
5645.86
5645.15
5644.56
5644.13
5643.82
5643.58
5643.36
5643.45
5646.6
5645.55
5644.77
5644.23
5643.61
5642.75
5643.17
5643.46
5647.42
5646.1
5645.14
5644.48
5643.87
5641.47
5643
5643.52
5647.84
5646.39
5645.35
5644.64
5643.85
5633.77
5641.59
5643.6
5645.39
5644.68
5643.59
5642.8
5642.86
5643.66
5643.66
5643.79
5649.12
5648.44
5647.86
5647.39
5647.16
5646.85
5646.78
5646.76
5649.84
5648.88
5648.13
5647.61
5646.46
5643.21
5646.7
5646.78
5650.63
5649.43
5648.52
5647.85
5642.59
5637.94
5646.36
5646.84
5651.08
5649.78
5648.78
5648.05
5646.48
5636.8
5644.96
5646.93
5651.11
5649.84
5648.84
5648.02
5638.54
5644.23
5646.67
5647.01
5650.69
5649.53
5648.69
5647.95
5646.34
5646.91
5647.06
5647.11
5649.98
5649.13
5648.47
5647.96
5647.61
5647.37
5647.23
5647.18
5648.41
5648.75
5648.99
5648.94
5649.37
5649.33
5649.65
5649.72
5648
5648.52
5648.89
5648.41
5647.06
5645.16
5649.58
5649.71
5647.72
5648.37
5648.81
5648.93
5637.19
5638.49
5649.22
5649.74
5647.53
5648.29
5648.77
5649.11
5644.06
5638.78
5648.09
5649.79
5647.45
5648.26
5648.78
5648.54
5637.88
5644.75
5649.59
5649.83
5647.48
5648.27
5648.8
5648.3
5648.1
5649.04
5649.69
5649.86
5647.82
5648.38
5648.83
5649.18
5649.44
5649.63
5649.77
5649.88
5650.91
5651.74
5652.36
5652.49
5652.89
5653.47
5654.11
5654.31
5650.06
5651.19
5652.09
5648.46
5641.6
5649.79
5654.06
5654.28
5649.42
5650.75
5651.79
5650.37
5640.24
5643.45
5653.85
5654.28
5649.15
5650.53
5651.64
5652.48
5640.92
5643.47