/*--------------------------------*- C++ -*----------------------------------*\
| =========                 |                                                 |
| \\      /  F ield         | OpenFOAM: The Open Source CFD Toolbox           |
|  \\    /   O peration     | Version:  plus.master.MPPICInterFoam            |
|   \\  /    A nd           | Web:      www.OpenFOAM.com                      |
|    \\/     M anipulation  |                                                 |
\*---------------------------------------------------------------------------*/
FoamFile
{
    version     2.0;
    format      ascii;
    class       volScalarField;
    location    "1.4";
    object      epsilon;
}
// * * * * * * * * * * * * * * * * * * * * * * * * * * * * * * * * * * * * * //

dimensions      [0 2 -3 0 0 0 0];

internalField   nonuniform List<scalar> 
11821
(
0.00516465
0.00573814
0.0052031
0.00351399
0.00608466
0.00531038
0.00481095
0.00564409
0.0395093
0.0809323
0.0205345
0.0729965
0.0166645
0.00532119
0.00534964
0.114636
0.098274
0.0789312
0.121652
0.0197525
0.00546153
0.00479091
0.10787
0.0905621
0.119417
0.145029
0.0225863
0.0057426
0.00535061
0.0426963
0.0495384
0.045602
0.0559984
0.0191061
0.00564716
0.00532689
0.0183473
0.0463748
0.0396593
0.0255066
0.0111342
0.00552604
0.00528255
0.00530429
0.00525682
0.00512026
0.00557077
0.00529616
0.0045795
0.045313
0.0664308
0.117086
0.0917711
0.0565402
0.0388294
0.0344725
0.0632867
0.148764
0.260412
0.116217
0.156174
0.0637125
0.0395354
0.108487
0.419898
0.386121
0.462461
0.398054
0.115792
0.041706
0.0897459
0.245712
0.420417
0.95517
0.422937
0.103094
0.0465191
0.0774515
0.153158
0.257674
0.305213
0.117693
0.0713017
0.0466
0.0608237
0.074981
0.139738
0.104
0.0580163
0.0540712
0.0490343
0.0624153
0.0541925
0.0505185
0.0355663
0.0447979
0.0535987
0.0328772
0.00777281
0.0123286
0.0204843
0.0319264
0.0158188
0.0109534
0.00778665
0.0117472
0.0228398
0.0473277
0.0637298
0.0310358
0.0164763
0.0109548
0.0187057
0.0458801
0.115216
0.131168
0.0587843
0.025498
0.0138543
0.0327283
0.0744974
0.162935
0.201469
0.0877205
0.0400448
0.0214014
0.0190249
0.0380304
0.0824385
0.0887802
0.044416
0.0242434
0.0152117
0.0172096
0.0234266
0.0365115
0.0486182
0.0266705
0.0195064
0.0139015
0.0147976
0.017994
0.0203566
0.0286137
0.0200361
0.0161631
0.00956805
0.00123732
0.00188234
0.00263266
0.00452022
0.00255529
0.00210631
0.00135428
0.00182332
0.00315633
0.00566012
0.0102348
0.0048539
0.00315565
0.00196572
0.00243273
0.00542441
0.0122436
0.0202044
0.00862627
0.00445977
0.00243187
0.00437625
0.0107851
0.0237333
0.0349888
0.0143957
0.00721027
0.00365363
0.00274007
0.0054158
0.0109852
0.0165146
0.00796695
0.00466368
0.00262513
0.00315483
0.00463321
0.00651002
0.0103402
0.00598833
0.0042367
0.00242455
0.00224781
0.00351641
0.00389618
0.00606361
0.0039831
0.00285915
0.00151425
0.000527543
0.000573171
0.000652636
0.000816125
0.000660139
0.00059319
0.000534546
0.000570646
0.000683709
0.000922089
0.00125901
0.000927136
0.000717681
0.000585029
0.000643942
0.000900952
0.00142147
0.00204452
0.00133685
0.00093001
0.00066071
0.000792627
0.00125127
0.00220384
0.00344609
0.0018129
0.00120849
0.000799929
0.000654287
0.000919437
0.00144947
0.00197417
0.00137866
0.000932888
0.000664098
0.000638356
0.000806955
0.0010384
0.00150825
0.00104441
0.000788938
0.00060647
0.000567086
0.000662299
0.000736145
0.000969821
0.000749559
0.000628188
0.000542637
0.00354151
0.00266938
0.0023664
0.00183613
0.00136666
0.000991628
0.00074879
0.000626823
0.0049676
0.00391992
0.00325129
0.00314969
0.00289298
0.00231296
0.00165658
0.00118918
0.00502914
0.00431359
0.00369182
0.00346027
0.00342159
0.00335216
0.00298224
0.0022908
0.00502019
0.00426795
0.00377252
0.00369086
0.00391572
0.00476786
0.0049089
0.00424837
0.00505322
0.00414171
0.00351501
0.00334594
0.00334448
0.00335811
0.00311881
0.00245156
0.00482361
0.00357676
0.00298405
0.00297246
0.00264175
0.00204004
0.00151715
0.00111712
0.00322794
0.00259752
0.00223026
0.00177617
0.00130697
0.0009476
0.000730251
0.000624407
0.013827
0.00606526
0.00362551
0.00265922
0.00188492
0.00124145
0.000855734
0.000675505
0.0202266
0.00883706
0.00355344
0.00205431
0.00153922
0.00117251
0.000916399
0.000731928
0.0190074
0.00837594
0.00370994
0.00203394
0.00143053
0.00115583
0.00102279
0.000882985
0.0205831
0.00817996
0.00336991
0.00179615
0.00129604
0.00111207
0.00105977
0.000881006
0.0223818
0.00914498
0.00380622
0.0020595
0.00145831
0.00117411
0.0010359
0.000873751
0.0215402
0.00816323
0.00324835
0.0020542
0.00159461
0.00123339
0.000970614
0.000757895
0.0112444
0.00496398
0.00330749
0.00257351
0.00182049
0.00121155
0.000848092
0.0006751
0.00440801
0.00256949
0.00158682
0.0010805
0.000806728
0.000660751
0.000587455
0.000551274
0.00600775
0.00313166
0.00176305
0.00115887
0.000859404
0.000690587
0.000598643
0.000552538
0.00687275
0.00319947
0.00167634
0.00111869
0.000871429
0.000724239
0.000632522
0.000576372
0.00992051
0.0040033
0.00175603
0.00104643
0.000817135
0.000711001
0.000636007
0.000588149
0.00755787
0.00345825
0.00175995
0.00114599
0.000883125
0.000730325
0.000635561
0.000578551
0.00712238
0.00347434
0.00185711
0.00118472
0.000865451
0.000694541
0.000601738
0.000554636
0.00482691
0.00261399
0.00155584
0.00104884
0.000787156
0.000651309
0.000583621
0.0005495
0.000858525
0.000686972
0.000605658
0.000560841
0.000534642
0.000519803
0.000512106
0.000508652
0.00106885
0.000741428
0.000621006
0.000566828
0.000536971
0.000520164
0.000511634
0.000508006
0.00120928
0.000773842
0.000629406
0.000569275
0.000538413
0.000521609
0.000513143
0.000509491
0.00157648
0.000850497
0.000642519
0.000569595
0.000537424
0.000521622
0.000514012
0.000510566
0.00127297
0.000791669
0.000634143
0.000571065
0.000539425
0.000522413
0.00051385
0.000510147
0.00118444
0.000770522
0.00062705
0.000567481
0.000537058
0.000520432
0.000511965
0.000508326
0.000894747
0.000693757
0.000604821
0.000558731
0.000532956
0.000518744
0.000511453
0.000508204
0.000503591
0.000490073
0.000480609
0.000475304
0.000476445
0.000488031
0.000517597
0.000581607
0.000521329
0.000496411
0.000483094
0.000475303
0.000473832
0.000482661
0.000510113
0.000575165
0.000544331
0.000503811
0.000486029
0.000476343
0.000473153
0.000480138
0.000506043
0.000571564
0.000582183
0.000512989
0.000488258
0.00047685
0.000472896
0.000479255
0.000504648
0.000570433
0.000546441
0.000504557
0.000486344
0.000476418
0.000473048
0.000479814
0.000505433
0.000570767
0.000526372
0.00049776
0.00048347
0.000475225
0.000473408
0.000481803
0.00050868
0.000573289
0.000505694
0.000490779
0.000480569
0.000474788
0.000475469
0.000486441
0.000515213
0.0005786
0.00457267
0.00317899
0.00255772
0.00209273
0.00154936
0.00108387
0.00079018
0.000653569
0.00543276
0.00504386
0.00391317
0.00326435
0.00302342
0.00273392
0.00215484
0.00152148
0.0053594
0.00513415
0.00432836
0.00373211
0.00343382
0.00333927
0.00331706
0.00324466
0.00495838
0.00496872
0.00441561
0.00397153
0.00378049
0.00370946
0.00388897
0.00423504
0.0051051
0.00481555
0.00422127
0.00368447
0.00343483
0.00334142
0.00331747
0.00326889
0.00508856
0.00464194
0.00380458
0.00324456
0.00308197
0.00283439
0.00227521
0.00162001
0.00441816
0.0032469
0.00252108
0.0020397
0.00161541
0.00112218
0.000818468
0.000662492
0.0271579
0.0111585
0.00498511
0.00325203
0.00228404
0.00147947
0.000954693
0.000706576
0.0384285
0.0203786
0.00844548
0.00339147
0.0019094
0.00142988
0.00113057
0.000906289
0.0382716
0.0182748
0.00811694
0.00380568
0.0021596
0.00152578
0.00122117
0.00103321
0.0455599
0.0191588
0.00743844
0.00333637
0.00191748
0.00138991
0.00116882
0.00106104
0.036293
0.0144595
0.00644991
0.00334651
0.00206902
0.00151491
0.00123009
0.00104699
0.0294747
0.0147045
0.00651119
0.00300604
0.00183853
0.00143413
0.00113813
0.0009191
0.0198496
0.00859067
0.00426145
0.00301727
0.0022721
0.00145258
0.000941382
0.000698261
0.00785971
0.00404924
0.00212526
0.00127077
0.000879761
0.000690663
0.000600299
0.000557554
0.0105714
0.00549568
0.00269331
0.00152122
0.00104003
0.000803207
0.000664093
0.000588456
0.00981742
0.0045341
0.00221056
0.0013594
0.00103263
0.000851535
0.000723205
0.000636747
0.0143837
0.00556031
0.00228111
0.00124792
0.000911916
0.000766367
0.000681465
0.000624365
0.00819941
0.00364143
0.00187162
0.00125174
0.00100313
0.00084823
0.000728497
0.000641847
0.00619408
0.00335996
0.00194454
0.0013113
0.00098757
0.000785991
0.000660444
0.000588343
0.00434805
0.00262344
0.00168434
0.00115659
0.000848923
0.000680488
0.000596411
0.000556043
0.00115572
0.000782408
0.000638648
0.000573786
0.000540255
0.000522325
0.0005132
0.000509
0.00163475
0.00090644
0.000672192
0.000588272
0.00054949
0.000527754
0.000516307
0.000511115
0.00139442
0.000833267
0.000658315
0.00058881
0.000552623
0.000531645
0.000520377
0.000515314
0.00180435
0.000910778
0.00067197
0.000589322
0.000550799
0.000530483
0.000520147
0.00051574
0.00121472
0.000784762
0.000647129
0.000586411
0.00055251
0.000532418
0.000521248
0.000515985
0.00105014
0.000745915
0.000631913
0.0005775
0.000546343
0.000527306
0.000516637
0.000511551
0.000823541
0.000681887
0.000608764
0.000564857
0.000537743
0.000521894
0.000513443
0.000509441
0.000513956
0.000493625
0.000482133
0.000476034
0.000476765
0.000488113
0.000517512
0.000581225
0.000539398
0.000501521
0.00048493
0.000476551
0.000474922
0.000483788
0.000511498
0.000576802
0.000546559
0.000505501
0.000486976
0.000477445
0.00047456
0.000482012
0.000508748
0.000575202
0.000588846
0.000516956
0.000489803
0.000477961
0.000474382
0.000481472
0.000508143
0.00057536
0.000542036
0.000504536
0.000486747
0.000477398
0.000474752
0.000482489
0.000509559
0.000576358
0.000518259
0.00049591
0.000483267
0.000476111
0.000475175
0.000484651
0.000513076
0.000579038
0.000501444
0.000489271
0.000480571
0.000475815
0.00047742
0.000489582
0.000519943
0.000584464
0.00458241
0.00327843
0.00244642
0.00211229
0.00165426
0.00124859
0.000895598
0.000703044
0.00517467
0.00481646
0.00404157
0.00355997
0.00310433
0.0028675
0.00243399
0.0019368
0.00522971
0.00487585
0.00431686
0.00397504
0.00356067
0.00339051
0.00321734
0.00301747
0.00468706
0.00466257
0.00380444
0.00333911
0.0033794
0.00357253
0.00372147
0.00388206
0.00504149
0.00455438
0.00417524
0.00395927
0.00374273
0.00357184
0.00343714
0.00322222
0.00474807
0.00462564
0.00399747
0.00350579
0.00321517
0.00328751
0.00315862
0.00243339
0.00429922
0.00322403
0.00252586
0.00206092
0.00162926
0.00129019
0.000978802
0.0007423
0.0205563
0.00944647
0.00446214
0.00315515
0.00246091
0.00174094
0.00113771
0.000805852
0.0330135
0.0179071
0.00866519
0.00419803
0.00243131
0.00170669
0.00133165
0.00105281
0.0446563
0.0192791
0.00917141
0.00508025
0.00328813
0.00238679
0.00187056
0.00155272
0.043383
0.0172422
0.00770435
0.00414097
0.00279144
0.00226402
0.00198664
0.00172075
0.025553
0.0139853
0.00794457
0.00486221
0.0033242
0.00246579
0.00192833
0.00157808
0.0244214
0.0155213
0.00823564
0.00423539
0.00251936
0.00174021
0.00132177
0.00104028
0.0162245
0.00772526
0.00389938
0.00279705
0.00224726
0.00166614
0.00116802
0.000821196
0.00439881
0.00265912
0.00172879
0.00120331
0.00089273
0.000715001
0.000617989
0.000568988
0.00677557
0.00368173
0.00210993
0.0014197
0.00108381
0.000883467
0.000739577
0.000643942
0.00969584
0.00442235
0.00221001
0.0013987
0.00111267
0.000971789
0.000851374
0.000742433
0.014774
0.00650198
0.00283064
0.00149037
0.00103277
0.000877401
0.000820551
0.00078236
0.00865028
0.00449607
0.00231381
0.00141672
0.00109559
0.000961607
0.000856737
0.000754125
0.00689749
0.0040353
0.00229701
0.00149201
0.00111333
0.000894451
0.000749963
0.000651811
0.00450636
0.00271626
0.00172816
0.00119368
0.000890195
0.000718983
0.000621863
0.000571537
0.00082811
0.000686961
0.000614311
0.000570193
0.000542337
0.000525433
0.000516248
0.000511853
0.00109225
0.000765701
0.000647224
0.000591588
0.000558731
0.000537968
0.00052577
0.000519629
0.00132915
0.000822621
0.000668822
0.000606598
0.000572682
0.000550984
0.000537284
0.000529702
0.00197663
0.00101193
0.00070772
0.00061795
0.000578995
0.000557059
0.000543284
0.000535351
0.00138245
0.000852573
0.000675887
0.000607869
0.000572694
0.000550994
0.000537565
0.000530148
0.0012351
0.000813819
0.000660793
0.000595749
0.0005606
0.000539281
0.000526956
0.000520738
0.000872883
0.000699018
0.000616125
0.000570041
0.000542367
0.000525656
0.000516539
0.00051225
0.000502036
0.000489914
0.000481218
0.00047648
0.000478134
0.000490411
0.000520983
0.00058578
0.000520355
0.000497479
0.000484754
0.000477749
0.000477061
0.000486952
0.000516051
0.00058288
0.000546356
0.000507134
0.000488885
0.000479697
0.000477517
0.00048607
0.000514424
0.000582876
0.0005972
0.000522176
0.0004935
0.000481155
0.000478049
0.00048629
0.000514942
0.000585241
0.000550598
0.000508799
0.000489507
0.000479931
0.0004775
0.000485898
0.000514111
0.000582502
0.000527398
0.000499702
0.000485586
0.000477984
0.000476932
0.000486501
0.000515199
0.000581854
0.000504255
0.000490823
0.000481479
0.000476287
0.00047758
0.000489416
0.000519378
0.000583879
0.00335545
0.00257154
0.00235096
0.00191999
0.00144357
0.00103769
0.000778548
0.000648571
0.00514222
0.00418058
0.00341295
0.00301285
0.00276675
0.00251377
0.00208894
0.00157905
0.00522454
0.00506357
0.00431941
0.00372032
0.00335353
0.00314788
0.00301927
0.00289733
0.00514299
0.00502663
0.00470399
0.00414016
0.00385654
0.00373516
0.00362037
0.00345488
0.0052623
0.00530085
0.00468762
0.00397379
0.00351605
0.00327014
0.00312216
0.00299244
0.00536242
0.00524576
0.00419959
0.00346621
0.00316348
0.00284272
0.00240148
0.00185926
0.00452562
0.00319567
0.00249539
0.00203793
0.00153692
0.00110258
0.000813313
0.000666149
0.0126485
0.00541941
0.00345079
0.00273101
0.00206489
0.00141259
0.000957903
0.000722242
0.0281217
0.0124885
0.00516985
0.00258818
0.00175875
0.0013751
0.00109927
0.00089021
0.03566
0.0190015
0.00848882
0.00397229
0.00225947
0.00159062
0.00127189
0.00107928
0.0277939
0.0181413
0.0089702
0.00452855
0.00256462
0.00171215
0.00133406
0.00114724
0.0329639
0.0204667
0.00998242
0.00469182
0.00249852
0.00165819
0.00129063
0.00108962
0.0379014
0.0219793
0.00975346
0.0039657
0.00207611
0.00150513
0.00114916
0.000914596
0.0287425
0.012126
0.00514007
0.00329835
0.00239497
0.00158293
0.00101411
0.000733303
0.00501357
0.00275468
0.00164973
0.00111456
0.000831038
0.000677502
0.000598622
0.000558964
0.00896376
0.00447469
0.00230329
0.00142238
0.00103246
0.000812586
0.000678951
0.000603205
0.0129021
0.00626739
0.0028534
0.00157629
0.00112157
0.00090216
0.00075858
0.000662698
0.0180698
0.00896727
0.00370214
0.00171999
0.00109339
0.000866903
0.000743169
0.00066403
0.0133192
0.00685608
0.00315274
0.00167719
0.00115428
0.000920213
0.000772264
0.000672322
0.0121779
0.00656158
0.00315055
0.00169902
0.00112804
0.000852107
0.000696388
0.000610051
0.00807932
0.00418948
0.00220062
0.00131566
0.000908023
0.000706644
0.0006089
0.000562628
0.000907573
0.000702769
0.000611872
0.000563898
0.00053668
0.000521484
0.000513594
0.000509984
0.00139032
0.000843277
0.000661796
0.000588788
0.000551574
0.000530673
0.000519626
0.000514532
0.00196488
0.0010004
0.00071153
0.00061197
0.000566072
0.000540869
0.000527289
0.000520937
0.00290894
0.0012694
0.000768075
0.000627249
0.000572683
0.000544703
0.000529775
0.000522907
0.00202754
0.00103171
0.000722995
0.000618056
0.000570062
0.000543347
0.000528665
0.000521641
0.0018718
0.000992623
0.000706128
0.000605051
0.000559265
0.000534294
0.000521006
0.000514787
0.00117636
0.000793366
0.000645593
0.000578369
0.000543147
0.000524205
0.000514543
0.000510063
0.000506267
0.000491392
0.000481135
0.000475298
0.000475957
0.000486966
0.000515854
0.000579409
0.000535447
0.000501719
0.000485886
0.000477049
0.000474959
0.000483339
0.000510501
0.000575671
0.00057855
0.00051567
0.000491382
0.000479682
0.000475623
0.000482297
0.000508385
0.000574761
0.000649627
0.000533401
0.00049574
0.000481071
0.000476018
0.000482156
0.000508128
0.000575349
0.000577816
0.000516153
0.000491607
0.000479951
0.000475956
0.000482715
0.000508955
0.000575358
0.000551196
0.000506486
0.000487412
0.00047797
0.000475732
0.000484213
0.00051168
0.00057702
0.000515282
0.000494599
0.000482818
0.00047646
0.000476996
0.000488213
0.000517534
0.000581263
0.00057039
0.000910038
0.00171869
0.00360714
0.00188851
0.000875682
0.000572537
0.00059581
0.000616549
0.000749324
0.000768903
0.000739747
0.000627905
0.000595672
0.000532182
0.000530897
0.00054462
0.000557928
0.000546958
0.000532076
0.000530875
0.000506698
0.000506025
0.000507449
0.000508331
0.000507959
0.000506299
0.000506302
0.000712979
0.000713337
0.000714244
0.000714948
0.000713814
0.000712191
0.000710989
0.000586971
0.00106434
0.00304657
0.00481217
0.00319112
0.00113589
0.000589921
0.000601443
0.000732746
0.00090164
0.000994679
0.000923866
0.000745458
0.000596099
0.000535649
0.000550826
0.000585669
0.000586867
0.000588754
0.000551479
0.000535341
0.000506628
0.000508311
0.0005126
0.000513618
0.00051311
0.000508695
0.000507108
0.000712892
0.000714744
0.000717154
0.000718944
0.000717906
0.000716114
0.000714826
0.000607402
0.00150739
0.00282984
0.00385423
0.00301778
0.00188015
0.000626374
0.000645382
0.000844222
0.00133826
0.0015456
0.00136081
0.000845207
0.000651997
0.000543453
0.000588543
0.000662816
0.00074166
0.000673384
0.000593867
0.000545123
0.000509222
0.000516176
0.000525402
0.00053201
0.000526039
0.000517261
0.000509713
0.00071581
0.000719203
0.000723402
0.000727359
0.000723341
0.000718607
0.000714633
0.000583771
0.00114597
0.00271632
0.00352188
0.00282617
0.00134856
0.000593816
0.000612218
0.000733411
0.000947922
0.00105754
0.00096429
0.000747533
0.000611965
0.000537297
0.000562769
0.000605219
0.000616293
0.000611228
0.000565434
0.000538948
0.00050779
0.000511599
0.000517595
0.000519659
0.000518
0.000511421
0.000507513
0.000711537
0.000713913
0.000716881
0.000719115
0.000717397
0.000714925
0.000712914
0.000539471
0.000513517
0.000501967
0.000496841
0.000494118
0.000492064
0.000489451
0.000484595
0.00063065
0.000539992
0.000510406
0.000499707
0.000495079
0.000492208
0.000489253
0.000484298
0.00099638
0.000669059
0.000552955
0.000512619
0.000499992
0.000494704
0.000490689
0.000485142
0.0019832
0.00116351
0.000753527
0.000573473
0.000514834
0.00049937
0.00049301
0.000486636
0.00108603
0.000707065
0.000564828
0.000515751
0.000501092
0.000495316
0.000491113
0.000485461
0.000632372
0.000545287
0.000512838
0.000500832
0.000495759
0.000492646
0.000489487
0.000484344
0.000542004
0.000514663
0.000502332
0.000496712
0.000493668
0.000491464
0.00048878
0.000483899
0.000543495
0.000510618
0.00049317
0.000484821
0.00048068
0.000477832
0.000474159
0.000467297
0.000538798
0.000511507
0.000495225
0.000485733
0.000480879
0.000477808
0.000474125
0.000467306
0.000588919
0.000529986
0.00050802
0.00049251
0.000483797
0.000479009
0.000474651
0.000467586
0.000648814
0.000578359
0.000537091
0.000507367
0.000490692
0.000481903
0.000475906
0.000468237
0.000588668
0.000533597
0.000510568
0.000493822
0.000484372
0.000479255
0.000474763
0.000467651
0.000542345
0.00051335
0.000495918
0.000485892
0.000480914
0.000477808
0.000474106
0.000467276
0.000542342
0.000508955
0.000491657
0.000483667
0.000479943
0.000477384
0.000473891
0.000467126
0.000515525
0.000503814
0.000497363
0.00049402
0.000491971
0.000489742
0.000485769
0.00047786
0.000514794
0.000503579
0.000496974
0.000493592
0.000491635
0.000489531
0.00048567
0.000477839
0.000520236
0.00050775
0.000499389
0.000494596
0.000491975
0.000489631
0.000485708
0.000477878
0.000525803
0.000513529
0.0005043
0.00049715
0.000493002
0.000490005
0.000485865
0.00047798
0.000521126
0.000508507
0.0004999
0.000494853
0.000492088
0.000489684
0.000485743
0.000477908
0.000515077
0.000503592
0.000496968
0.000493595
0.000491642
0.000489543
0.000485686
0.000477854
0.000514187
0.000502583
0.000496499
0.000493496
0.000491673
0.00048959
0.000485708
0.000477842
0.000497836
0.000492569
0.000491813
0.00049247
0.000492825
0.000491822
0.000488285
0.000480283
0.000497402
0.000492214
0.000491514
0.000492246
0.000492679
0.000491737
0.000488244
0.000480269
0.000498507
0.000492815
0.00049175
0.000492308
0.000492679
0.000491729
0.00048825
0.000480292
0.000499597
0.000493852
0.000492335
0.000492549
0.000492763
0.000491766
0.000488283
0.000480332
0.000498787
0.000492934
0.000491787
0.000492314
0.00049268
0.000491735
0.000488262
0.000480307
0.000497453
0.000492146
0.000491431
0.000492184
0.000492643
0.000491724
0.000488248
0.000480283
0.000497376
0.000492103
0.000491451
0.000492232
0.000492689
0.000491753
0.000488256
0.000480273
0.000516132
0.000474696
0.000474785
0.000481571
0.000486999
0.000489156
0.000487278
0.000479999
0.00051636
0.000474656
0.000474675
0.000481476
0.000486934
0.00048912
0.000487267
0.000480005
0.000516754
0.000474768
0.000474686
0.000481456
0.000486913
0.000489108
0.000487269
0.000480016
0.000516996
0.000474856
0.000474717
0.000481462
0.000486912
0.000489109
0.000487274
0.000480026
0.000516739
0.000474695
0.000474619
0.000481414
0.000486891
0.0004891
0.000487269
0.000480023
0.000516298
0.000474479
0.000474503
0.000481363
0.00048687
0.000489089
0.00048726
0.000480012
0.000515906
0.000474344
0.000474465
0.000481363
0.00048688
0.000489097
0.00048726
0.000480005
0.000546723
0.000520032
0.000504974
0.000497914
0.000494418
0.000491939
0.000489098
0.00048415
0.000700142
0.000581523
0.000532921
0.000508673
0.000499593
0.00049506
0.000491206
0.000485681
0.00228962
0.00120351
0.000710058
0.000565548
0.000516289
0.000501525
0.00049472
0.000487941
0.00648441
0.00454827
0.00187517
0.000943975
0.000619835
0.00052408
0.000501069
0.000490991
0.00271034
0.00149336
0.000777833
0.000580832
0.00051918
0.00050214
0.000494871
0.000487935
0.000741368
0.000593338
0.000539335
0.000510424
0.00049994
0.000495092
0.000491152
0.000485584
0.000545729
0.000520122
0.000505002
0.00049792
0.000494398
0.000491978
0.000489193
0.000484259
0.000546756
0.000517386
0.000497482
0.000486637
0.000481284
0.000477997
0.000474211
0.000467338
0.000585123
0.000534834
0.000514519
0.000496393
0.000485839
0.000480067
0.000475211
0.0004679
0.000722755
0.000587206
0.000558973
0.000529466
0.000503246
0.000487739
0.00047858
0.000469526
0.000885995
0.00077571
0.000726168
0.000605145
0.000540144
0.000506161
0.000486429
0.000472944
0.000749222
0.000605719
0.000570921
0.000535703
0.000506428
0.000489021
0.000479052
0.000469713
0.000593559
0.000538671
0.000519473
0.000499375
0.000487176
0.000480622
0.000475434
0.000467994
0.000544289
0.000517852
0.000498867
0.000487857
0.00048208
0.000478471
0.000474473
0.000467474
0.000517512
0.000504972
0.000497891
0.000494179
0.000491965
0.000489698
0.000485744
0.000477862
0.000524905
0.000510504
0.000501255
0.000495815
0.000492675
0.00049
0.000485893
0.000477969
0.000543899
0.000525297
0.000512798
0.000502247
0.000495649
0.000491305
0.000486492
0.00047828
0.000552441
0.000536487
0.000529857
0.000515298
0.000502646
0.000494325
0.000487746
0.000478875
0.000545093
0.000527281
0.000514878
0.000503369
0.000496075
0.000491427
0.000486512
0.000478273
0.000526148
0.00051204
0.000502364
0.0004964
0.000492934
0.000490075
0.00048589
0.000477957
0.000518296
0.000506154
0.000498823
0.000494751
0.000492288
0.000489853
0.000485792
0.000477867
0.000497879
0.000492602
0.000491769
0.000492393
0.000492755
0.000491774
0.000488259
0.000480274
0.000499182
0.000493425
0.000492211
0.000492602
0.000492851
0.000491823
0.000488299
0.000480319
0.000502947
0.00049604
0.000493703
0.00049336
0.000493223
0.000492019
0.000488421
0.00048041
0.000505069
0.000499119
0.000496366
0.000494918
0.000493985
0.000492381
0.000488611
0.000480525
0.000503429
0.000496489
0.000493989
0.000493485
0.000493259
0.00049202
0.000488412
0.000480398
0.000499556
0.000493789
0.000492481
0.000492763
0.00049292
0.00049184
0.000488293
0.000480303
0.000498382
0.000493115
0.000492178
0.000492648
0.000492884
0.000491836
0.000488291
0.000480287
0.000515698
0.000474567
0.00047467
0.000481482
0.00048694
0.000489121
0.000487266
0.000480004
0.000516051
0.000474773
0.000474797
0.000481554
0.000486978
0.000489143
0.000487282
0.000480019
0.00051657
0.000475139
0.000475057
0.000481712
0.000487063
0.000489188
0.00048731
0.000480041
0.000517001
0.000475511
0.000475366
0.000481907
0.000487172
0.000489247
0.000487343
0.000480062
0.000516642
0.00047527
0.000475163
0.000481768
0.000487088
0.000489197
0.000487308
0.000480032
0.000516114
0.000474994
0.000474993
0.00048168
0.000487049
0.000489174
0.000487283
0.000480005
0.000515802
0.000474895
0.000474975
0.000481681
0.000487052
0.000489175
0.000487277
0.000479989
0.000553909
0.00052675
0.000509622
0.00050131
0.000497021
0.000494043
0.000490872
0.000485677
0.000930838
0.000659311
0.000568715
0.00053107
0.000513093
0.000502502
0.000495411
0.000488564
0.00246547
0.00203908
0.00141338
0.000890171
0.000660854
0.000575948
0.000526764
0.000501458
0.00373488
0.00363468
0.00338136
0.00331937
0.00312346
0.00235351
0.0011878
0.000649041
0.00262328
0.0022336
0.00163417
0.00100607
0.000686382
0.000578886
0.000528137
0.000502345
0.00108987
0.00072081
0.000591761
0.000539681
0.000516554
0.000504131
0.000496529
0.000489394
0.000561281
0.000533429
0.000513533
0.000503455
0.000498463
0.000495164
0.000491763
0.000486358
0.000555061
0.000522479
0.000503454
0.00049129
0.000484261
0.000479713
0.000475172
0.000467907
0.000635878
0.000554537
0.000532116
0.000514083
0.000499602
0.000489181
0.000480493
0.000470784
0.00102481
0.000776667
0.000671288
0.000619332
0.000577114
0.000544235
0.000515778
0.000489268
0.00137069
0.0013566
0.00142114
0.00141942
0.00120344
0.000911875
0.000724929
0.000579498
0.00106535
0.000821383
0.000696408
0.000632158
0.000583141
0.000547201
0.000517553
0.000490236
0.00064399
0.000560267
0.000537914
0.000519074
0.000502615
0.000490759
0.000481304
0.000471186
0.000557311
0.000525011
0.00050559
0.000492545
0.00048496
0.000480126
0.00047539
0.000467996
0.000523182
0.000509641
0.000501201
0.000496244
0.000493168
0.000490312
0.000486023
0.000477995
0.000546356
0.000526095
0.000513227
0.00050366
0.000497405
0.000492671
0.000487294
0.000478695
0.000589139
0.000560989
0.000547735
0.00053009
0.000515115
0.000504023
0.000494271
0.000482683
0.000676836
0.000672883
0.000701139
0.00067278
0.000613766
0.000564309
0.000527905
0.000499123
0.000594645
0.000563213
0.000550589
0.00053336
0.000517089
0.000505073
0.000494826
0.000482982
0.000549094
0.000528626
0.000515532
0.000505291
0.000498253
0.000493092
0.000487516
0.00047881
0.000524135
0.00051018
0.000501593
0.000496499
0.000493318
0.000490442
0.000486128
0.000478059
0.000499854
0.000494119
0.000492871
0.000493121
0.000493184
0.000492004
0.000488373
0.000480321
0.000505306
0.000497927
0.000495308
0.000494572
0.000494048
0.000492529
0.00048869
0.000480518
0.000513133
0.000505348
0.000501482
0.000498882
0.000496964
0.000494505
0.000490017
0.000481395
0.000524509
0.000526375
0.000523639
0.000515417
0.000508054
0.000501403
0.000494178
0.000483819
0.000513784
0.000506238
0.000502428
0.000499559
0.000497338
0.00049472
0.000490149
0.000481485
0.000506006
0.000498374
0.000495616
0.000494787
0.000494183
0.000492605
0.000488738
0.000480564
0.00050003
0.000494136
0.000492869
0.000493124
0.000493208
0.000492037
0.0004884
0.000480344
0.000516029
0.000475172
0.000475233
0.00048188
0.000487188
0.000489255
0.000487316
0.000480003
0.000516896
0.000475923
0.00047583
0.000482282
0.000487435
0.000489402
0.0004874
0.00048005
0.00051827
0.000477248
0.000476974
0.000483122
0.000488024
0.00048981
0.000487682
0.000480247
0.000519303
0.000478944
0.000478857
0.000484654
0.000489199
0.000490682
0.000488314
0.000480699
0.000518476
0.00047735
0.000477041
0.000483166
0.000488058
0.000489847
0.000487726
0.000480294
0.00051711
0.000475919
0.000475815
0.000482277
0.000487435
0.000489409
0.000487419
0.000480076
0.000516298
0.000475054
0.000475122
0.000481809
0.000487152
0.000489248
0.000487331
0.000480029
0.000546121
0.00052123
0.000506812
0.000499423
0.000495558
0.000492916
0.000489912
0.000484806
0.000702016
0.000582226
0.000542514
0.000515742
0.000502841
0.00049695
0.000492506
0.000486653
0.0022489
0.00158527
0.000903388
0.00062911
0.000540904
0.000509572
0.000498208
0.000490024
0.00393778
0.00463735
0.00432242
0.00219771
0.000941238
0.000611513
0.000520306
0.000497013
0.00245481
0.00183972
0.00102835
0.000649193
0.000543865
0.000509967
0.00049822
0.000489942
0.000783576
0.00060242
0.000548629
0.000517837
0.000503248
0.00049689
0.000492366
0.000486477
0.000550289
0.00052272
0.000507225
0.000499278
0.000495227
0.000492529
0.000489561
0.00048449
0.00054927
0.000518292
0.000498665
0.000487542
0.000481827
0.000478298
0.000474362
0.0004674
0.000592929
0.000541669
0.000523612
0.000505586
0.000491285
0.000482707
0.000476452
0.000468505
0.000758881
0.000623091
0.000587816
0.000562008
0.000527663
0.000501412
0.000484999
0.000472442
0.000961179
0.000936803
0.000895057
0.000813842
0.00064866
0.000551492
0.000509393
0.000483314
0.00078543
0.00064105
0.000596439
0.000565648
0.000529878
0.00050236
0.000485295
0.000472517
0.000596265
0.000542849
0.000526647
0.000508031
0.000492396
0.000483113
0.000476591
0.000468557
0.000549401
0.000520829
0.000501178
0.000488857
0.00048233
0.000478478
0.000474429
0.000467434
0.00051864
0.000505681
0.000498382
0.000494519
0.0004922
0.00048986
0.00048585
0.000477924
0.000532892
0.000516139
0.000505345
0.000498347
0.000494044
0.000490711
0.000486267
0.00047817
0.000556834
0.000535382
0.000523821
0.000511518
0.000501324
0.000494262
0.000487945
0.000479005
0.000570849
0.000556885
0.000557419
0.000544206
0.000520854
0.000504089
0.000492385
0.00048101
0.000559302
0.000536423
0.000524909
0.000512297
0.000501581
0.000494262
0.000487876
0.000478941
0.000533859
0.000517024
0.000506021
0.000498651
0.0004941
0.000490664
0.000486191
0.000478105
0.000519677
0.000506525
0.00049888
0.000494727
0.000492242
0.000489819
0.000485784
0.000477872
0.000498426
0.00049279
0.000491876
0.000492477
0.000492824
0.00049183
0.000488302
0.000480303
0.000501287
0.000494653
0.000492989
0.000493089
0.000493148
0.000492006
0.00048841
0.000480384
0.000506668
0.00049889
0.000495871
0.00049481
0.000494109
0.000492541
0.000488728
0.000480595
0.000509811
0.000504564