/*--------------------------------*- C++ -*----------------------------------*\
| =========                 |                                                 |
| \\      /  F ield         | OpenFOAM: The Open Source CFD Toolbox           |
|  \\    /   O peration     | Version:  plus.master.MPPICInterFoam            |
|   \\  /    A nd           | Web:      www.OpenFOAM.com                      |
|    \\/     M anipulation  |                                                 |
\*---------------------------------------------------------------------------*/
FoamFile
{
    version     2.0;
    format      ascii;
    class       volScalarField;
    location    "1.4";
    object      nut;
}
// * * * * * * * * * * * * * * * * * * * * * * * * * * * * * * * * * * * * * //

dimensions      [0 2 -1 0 0 0 0];

internalField   nonuniform List<scalar> 
11821
(
6.61619e-05
6.84346e-05
7.36683e-05
6.38772e-05
7.43459e-05
6.45962e-05
6.32565e-05
6.82149e-05
8.66578e-05
7.2973e-05
3.66047e-05
9.2788e-05
7.39388e-05
6.60314e-05
7.72549e-05
0.000108138
8.84124e-05
8.30977e-05
0.000119654
8.05939e-05
6.74468e-05
7.28581e-05
9.09505e-05
7.73734e-05
8.93759e-05
0.000103354
7.56721e-05
6.80968e-05
7.032e-05
7.59223e-05
5.36246e-05
5.03505e-05
8.1085e-05
7.34019e-05
6.7362e-05
6.6649e-05
6.72208e-05
8.61057e-05
7.44276e-05
6.94101e-05
6.79207e-05
6.57174e-05
6.47804e-05
6.61043e-05
7.05059e-05
6.94012e-05
6.5454e-05
6.48117e-05
6.25129e-05
0.000172253
0.000154386
0.000148753
0.000119143
0.000111391
0.000146648
0.000161735
0.000151217
0.000158667
0.000166453
0.000118303
0.000136701
0.000128162
0.000156594
0.000132757
0.000247634
0.00024714
0.000404412
0.000214782
0.000128885
0.000127934
0.000113172
0.000147693
0.000354258
0.000612075
0.000195026
0.000118249
0.00012748
0.000134309
0.000127283
0.000151846
0.000207091
0.000102248
0.000119959
0.000149926
0.000163215
0.000120885
0.000124472
0.000106483
9.51344e-05
0.000141706
0.000170729
0.00017883
0.0001559
0.000113191
9.70622e-05
0.000133099
0.000171446
0.000159646
0.000122066
0.000107101
0.000104509
0.000118173
0.000107908
0.000115413
0.000129868
0.000105686
9.00542e-05
0.000109713
0.000129411
9.90814e-05
9.79327e-05
0.000122829
0.000100359
0.000101401
0.000156751
0.00016302
0.000106431
9.75498e-05
0.000123435
0.000111589
0.000119544
0.0001704
0.000191939
0.000119305
0.000107432
0.000130253
0.000108282
0.000102718
0.000131012
0.0001361
0.000109748
0.00010615
0.00012625
0.000121586
9.95329e-05
0.000103836
0.000114607
0.000107188
0.000114954
0.000129632
0.000139577
0.000130848
0.00012793
0.000139631
0.00013758
0.000135891
0.000133065
9.40461e-05
8.63411e-05
8.02113e-05
7.35112e-05
8.57323e-05
9.10436e-05
9.64826e-05
8.69749e-05
7.40026e-05
6.62561e-05
6.31008e-05
7.4519e-05
8.46414e-05
9.38277e-05
8.12647e-05
6.56196e-05
5.78693e-05
6.05822e-05
6.55138e-05
8.15855e-05
9.40715e-05
7.12642e-05
5.79836e-05
5.91403e-05
7.05706e-05
6.35453e-05
7.50721e-05
9.05496e-05
8.13337e-05
6.84964e-05
6.1771e-05
6.63431e-05
7.29592e-05
8.30425e-05
9.26029e-05
8.72948e-05
7.99016e-05
7.66117e-05
7.74584e-05
8.48563e-05
8.67864e-05
9.25657e-05
9.33375e-05
9.13287e-05
9.17676e-05
9.4781e-05
9.55424e-05
9.34135e-05
9.59606e-05
8.28274e-05
8.48632e-05
8.67604e-05
8.55645e-05
8.71741e-05
8.50525e-05
8.31177e-05
8.4911e-05
8.60667e-05
8.59776e-05
7.51448e-05
8.80613e-05
8.68849e-05
8.54165e-05
8.68919e-05
8.57399e-05
7.691e-05
6.06699e-05
8.31674e-05
8.92123e-05
8.79401e-05
8.48443e-05
7.3432e-05
5.74774e-05
4.45653e-05
6.8611e-05
8.2819e-05
8.83999e-05
8.58715e-05
8.48697e-05
7.99465e-05
6.40764e-05
8.60725e-05
8.78186e-05
8.72003e-05
8.29508e-05
8.23052e-05
8.39246e-05
7.60011e-05
8.53628e-05
8.41315e-05
8.47571e-05
8.25298e-05
8.28795e-05
8.52178e-05
8.36388e-05
8.57405e-05
8.44607e-05
8.32445e-05
5.73057e-05
5.23351e-05
5.08007e-05
4.67585e-05
4.20556e-05
3.76858e-05
3.4295e-05
3.22501e-05
6.44123e-05
5.91743e-05
5.5226e-05
5.44314e-05
5.24691e-05
4.91036e-05
4.41706e-05
3.9714e-05
6.50436e-05
6.18063e-05
5.82243e-05
5.62701e-05
5.5418e-05
5.44269e-05
5.24029e-05
4.87405e-05
6.33289e-05
6.15135e-05
5.84763e-05
5.7237e-05
5.7882e-05
6.08818e-05
6.14642e-05
5.93722e-05
6.57572e-05
6.14712e-05
5.7524e-05
5.58e-05
5.51097e-05
5.44964e-05
5.31632e-05
4.96695e-05
6.41094e-05
5.77246e-05
5.39002e-05
5.34657e-05
5.11729e-05
4.71532e-05
4.29513e-05
3.89416e-05
5.61644e-05
5.23813e-05
4.99874e-05
4.60532e-05
4.12526e-05
3.7054e-05
3.39452e-05
3.21747e-05
0.000128494
0.000115696
0.000117551
0.000115297
0.000106662
9.53834e-05
8.52656e-05
7.81849e-05
0.000139208
0.000114514
0.000102102
0.000102257
9.87337e-05
9.15956e-05
8.38097e-05
7.68091e-05
0.0001313
0.000111995
9.6443e-05
9.07414e-05
8.6821e-05
8.27632e-05
8.04353e-05
7.72246e-05
0.000123329
0.000100487
8.50387e-05
8.00199e-05
7.69676e-05
7.39992e-05
7.3311e-05
7.03072e-05
0.000135779
0.000109079
9.41154e-05
9.07303e-05
8.74395e-05
8.29886e-05
8.04378e-05
7.67783e-05
0.000134146
0.000106552
0.000100408
0.000104176
0.000100769
9.35509e-05
8.56475e-05
7.80801e-05
0.000121062
0.000115549
0.00011977
0.000115789
0.000106139
9.48765e-05
8.51544e-05
7.83718e-05
0.000122449
0.000117605
0.00011281
0.000106465
9.94126e-05
9.34555e-05
8.93714e-05
8.69595e-05
0.000122548
0.000115398
0.000111722
0.000107309
0.000100711
9.41308e-05
8.92551e-05
8.62959e-05
0.00012549
0.000114673
0.000109167
0.000105373
9.99383e-05
9.43715e-05
8.98661e-05
8.66973e-05
0.000127772
0.000110801
0.000103386
0.000101408
9.75171e-05
9.30554e-05
8.92818e-05
8.65208e-05
0.000123594
0.000112591
0.00010821
0.000105401
0.000100221
9.45946e-05
8.99857e-05
8.6773e-05
0.000120402
0.000112376
0.000110411
0.00010719
0.000100803
9.42684e-05
8.94048e-05
8.6443e-05
0.000119271
0.000115001
0.000111534
0.000105657
9.87454e-05
9.29942e-05
8.91419e-05
8.68713e-05
9.5843e-05
9.34674e-05
9.01255e-05
8.70952e-05
8.46236e-05
8.27006e-05
8.12778e-05
8.03648e-05
9.56655e-05
9.44538e-05
9.10311e-05
8.77414e-05
8.50355e-05
8.29221e-05
8.13597e-05
8.03656e-05
9.67145e-05
9.56037e-05
9.17904e-05
8.81514e-05
8.52825e-05
8.30682e-05
8.14212e-05
8.03657e-05
9.39946e-05
9.51372e-05
9.20745e-05
8.83301e-05
8.53496e-05
8.31117e-05
8.14677e-05
8.04201e-05
9.55994e-05
9.53537e-05
9.18532e-05
8.82466e-05
8.53448e-05
8.3102e-05
8.14344e-05
8.03678e-05
9.4176e-05
9.40803e-05
9.1065e-05
8.77662e-05
8.5032e-05
8.29048e-05
8.13247e-05
8.03086e-05
9.53964e-05
9.34379e-05
9.0082e-05
8.69907e-05
8.4506e-05
8.25936e-05
8.11764e-05
8.02589e-05
8.00559e-05
7.6886e-05
7.30978e-05
6.8532e-05
6.30617e-05
5.65882e-05
4.91295e-05
4.09659e-05
8.24942e-05
7.91015e-05
7.52585e-05
7.06916e-05
6.51374e-05
5.84087e-05
5.04461e-05
4.15134e-05
8.44544e-05
8.06318e-05
7.66371e-05
7.20568e-05
6.64652e-05
5.95911e-05
5.13136e-05
4.18764e-05
8.55517e-05
8.14349e-05
7.72013e-05
7.2556e-05
6.69428e-05
6.00256e-05
5.16481e-05
4.20357e-05
8.43861e-05
8.06863e-05
7.6703e-05
7.21227e-05
6.65385e-05
5.96732e-05
5.13971e-05
4.19302e-05
8.25411e-05
7.92255e-05
7.53739e-05
7.08083e-05
6.52733e-05
5.85671e-05
5.06089e-05
4.16188e-05
8.02299e-05
7.7034e-05
7.32285e-05
6.86751e-05
6.32393e-05
5.68052e-05
4.93549e-05
4.11177e-05
6.28528e-05
5.61088e-05
5.26731e-05
4.92889e-05
4.3902e-05
3.87599e-05
3.49217e-05
3.27241e-05
6.75347e-05
6.59781e-05
5.98421e-05
5.5229e-05
5.30529e-05
5.14694e-05
4.79883e-05
4.31436e-05
6.75819e-05
6.68801e-05
6.24876e-05
5.85245e-05
5.60991e-05
5.49894e-05
5.44661e-05
5.39454e-05
6.69532e-05
6.6421e-05
6.30495e-05
5.96976e-05
5.74077e-05
5.66914e-05
5.70337e-05
5.80686e-05
6.75366e-05
6.55012e-05
6.16524e-05
5.81128e-05
5.60477e-05
5.49989e-05
5.45157e-05
5.40537e-05
6.65915e-05
6.49667e-05
5.95727e-05
5.49046e-05
5.32262e-05
5.20825e-05
4.87379e-05
4.40586e-05
6.25038e-05
5.63329e-05
5.2048e-05
4.84642e-05
4.47436e-05
3.95223e-05
3.54454e-05
3.28839e-05
0.00014583
0.000122163
0.000117302
0.00011923
0.000112058
0.000100083
8.82219e-05
7.96013e-05
0.000159426
0.000137156
0.000109468
9.89669e-05
9.95839e-05
9.5953e-05
8.93043e-05
8.23298e-05
0.000137026
0.000127475
0.000107543
9.5011e-05
8.99238e-05
8.62335e-05
8.18221e-05
7.77323e-05
0.000116692
0.000104837
8.89227e-05
8.21362e-05
7.90068e-05
7.55725e-05
7.1777e-05
6.85846e-05
0.000114294
0.000113314
0.000104152
9.61146e-05
9.0603e-05
8.60917e-05
8.15967e-05
7.75225e-05
0.000147588
0.000133705
0.000112243
0.000102726
0.000100469
9.58024e-05
8.89467e-05
8.20538e-05
0.000142119
0.000123192
0.000119455
0.000119963
0.00011301
0.000100126
8.78411e-05
7.89984e-05
0.000126648
0.000117637
0.000112765
0.000108179
0.000101454
9.48642e-05
9.01448e-05
8.73537e-05
0.000125472
0.000117622
0.000110878
0.000109154
0.000105036
9.85401e-05
9.24412e-05
8.82331e-05
0.00011624
0.000113276
0.000109232
0.000107783
0.000104078
9.87666e-05
9.3508e-05
8.92493e-05
0.000113479
0.000108368
0.000103756
0.000103223
9.98796e-05
9.5017e-05
9.07078e-05
8.7384e-05
0.000109505
0.000111476
0.000110093
0.000107954
0.000103692
9.858e-05
9.35908e-05
8.93667e-05
0.000115917
0.00011693
0.000114284
0.000110683
0.000104793
9.79526e-05
9.21112e-05
8.80728e-05
0.000120372
0.000119189
0.000115516
0.000108843
0.000101042
9.44353e-05
8.98867e-05
8.72066e-05
9.39015e-05
9.41358e-05
9.1189e-05
8.78473e-05
8.50793e-05
8.29905e-05
8.15003e-05
8.05716e-05
8.97849e-05
9.32314e-05
9.18259e-05
8.87143e-05
8.58145e-05
8.3488e-05
8.17854e-05
8.07304e-05
9.01865e-05
9.4804e-05
9.26143e-05
8.91523e-05
8.61422e-05
8.37499e-05
8.19755e-05
8.08757e-05
8.43557e-05
9.37482e-05
9.29026e-05
8.93408e-05
8.61681e-05
8.37348e-05
8.19701e-05
8.0901e-05
9.18358e-05
9.53952e-05
9.25644e-05
8.9064e-05
8.61072e-05
8.37626e-05
8.20083e-05
8.0916e-05
9.347e-05
9.44935e-05
9.15155e-05
8.83078e-05
8.55964e-05
8.34164e-05
8.17891e-05
8.07701e-05
9.53464e-05
9.34588e-05
9.02857e-05
8.73224e-05
8.48553e-05
8.29214e-05
8.15023e-05
8.06098e-05
8.02332e-05
7.7084e-05
7.3218e-05
6.86197e-05
6.31438e-05
5.66821e-05
4.92446e-05
4.10929e-05
8.20599e-05
7.92015e-05
7.53419e-05
7.07506e-05
6.51787e-05
5.84307e-05
5.04659e-05
4.15692e-05
8.39396e-05
8.05891e-05
7.66239e-05
7.20374e-05
6.64276e-05
5.95166e-05
5.12213e-05
4.18565e-05
8.49981e-05
8.14455e-05
7.71759e-05
7.24718e-05
6.68205e-05
5.98513e-05
5.14482e-05
4.19441e-05
8.4135e-05
8.0554e-05
7.65628e-05
7.19677e-05
6.63475e-05
5.94244e-05
5.11204e-05
4.17846e-05
8.22224e-05
7.8964e-05
7.51442e-05
7.05832e-05
6.50062e-05
5.8241e-05
5.02671e-05
4.14315e-05
7.98526e-05
7.67255e-05
7.29557e-05
6.83909e-05
6.29024e-05
5.64137e-05
4.89669e-05
4.08985e-05
6.34332e-05
5.70828e-05
5.20659e-05
4.89211e-05
4.52071e-05
4.1099e-05
3.66311e-05
3.36646e-05
6.6991e-05
6.64887e-05
6.22568e-05
5.77669e-05
5.36548e-05
5.17002e-05
4.94925e-05
4.60192e-05
6.75783e-05
6.56617e-05
6.26203e-05
5.97084e-05
5.70751e-05
5.58689e-05
5.46369e-05
5.32189e-05
6.50354e-05
6.94528e-05
6.04451e-05
5.8291e-05
5.65958e-05
5.88653e-05
5.72736e-05
5.73176e-05
6.66777e-05
6.34298e-05
6.13087e-05
5.99147e-05
5.83121e-05
5.68296e-05
5.58577e-05
5.44518e-05
6.35736e-05
6.39704e-05
6.11545e-05
5.77938e-05
5.50185e-05
5.40909e-05
5.3282e-05
4.94956e-05
6.09471e-05
5.55654e-05
5.21763e-05
4.83486e-05
4.45181e-05
4.14395e-05
3.77337e-05
3.42932e-05
0.000144304
0.000125145
0.000119069
0.000121861
0.000116659
0.000105739
9.32584e-05
8.32792e-05
0.000154182
0.00014465
0.000122584
0.000109464
0.000104494
0.000100154
9.43192e-05
8.72924e-05
0.000125527
0.000122744
0.000114422
0.00010706
0.000101502
9.70618e-05
9.30025e-05
8.88283e-05
0.000111144
9.87718e-05
9.27456e-05
9.04836e-05
8.9163e-05
8.80162e-05
8.62824e-05
8.31994e-05
0.000115617
0.000123438
0.000116707
0.000107863
0.000101613
9.67651e-05
9.24783e-05
8.82552e-05
0.000148873
0.000140668
0.000120878
0.000107931
0.000102909
9.80927e-05
9.25865e-05
8.61309e-05
0.000135919
0.000120208
0.00011577
0.000117118
0.000112765
0.000104045
9.35008e-05
8.35781e-05
0.000120459
0.000119356
0.000116309
0.000110102
0.000102562
9.59227e-05
9.11016e-05
8.80884e-05
0.000117063
0.000118276
0.000115255
0.000112108
0.000107188
0.000101414
9.57477e-05
9.11388e-05
0.000111354
0.000114237
0.000111323
0.000108716
0.000105429
0.000101744
9.76824e-05
9.34459e-05
0.000113852
0.00011091
0.000107168
0.00010428
0.000100765
9.70909e-05
9.42559e-05
9.17242e-05
0.000117911
0.000119208
0.000113009
0.000108339
0.000104635
0.000101144
9.75374e-05
9.3636e-05
0.000122426
0.000121036
0.00011528
0.000111652
0.000107128
0.000101499
9.60072e-05
9.14103e-05
0.000122846
0.000119235
0.000115232
0.00010939
0.000102393
9.60188e-05
9.12294e-05
8.81959e-05
9.5387e-05
9.36629e-05
9.05517e-05
8.75915e-05
8.50885e-05
8.3094e-05
8.16148e-05
8.06774e-05
9.28661e-05
9.4769e-05
9.21248e-05
8.8994e-05
8.62299e-05
8.39382e-05
8.21701e-05
8.10274e-05
8.99025e-05
9.51875e-05
9.32839e-05
9.00341e-05
8.70977e-05
8.46271e-05
8.26692e-05
8.13756e-05
8.35478e-05
9.19817e-05
9.33495e-05
9.05146e-05
8.74865e-05
8.49534e-05
8.29703e-05
8.17085e-05
9.21075e-05
9.55109e-05
9.34212e-05
9.00856e-05
8.71093e-05
8.46311e-05
8.26727e-05
8.13659e-05
9.37739e-05
9.50467e-05
9.23506e-05
8.91296e-05
8.6297e-05
8.39633e-05
8.21655e-05
8.09939e-05
9.5962e-05
9.39214e-05
9.06121e-05
8.75663e-05
8.50359e-05
8.30229e-05
8.1519e-05
8.05546e-05
7.98762e-05
7.67489e-05
7.29676e-05
6.83847e-05
6.28726e-05
5.63587e-05
4.88938e-05
4.08356e-05
8.22644e-05
7.90299e-05
7.51898e-05
7.05909e-05
6.49541e-05
5.81135e-05
5.00745e-05
4.1258e-05
8.41337e-05
8.06501e-05
7.66387e-05
7.19898e-05
6.62813e-05
5.92419e-05
5.08271e-05
4.15095e-05
8.49499e-05
8.15684e-05
7.73096e-05
7.25079e-05
6.67339e-05
5.96081e-05
5.10586e-05
4.16052e-05
8.4279e-05
8.07539e-05
7.67029e-05
7.20361e-05
6.632e-05
5.92804e-05
5.08644e-05
4.15291e-05
8.24483e-05
7.9185e-05
7.53016e-05
7.068e-05
6.50396e-05
5.82001e-05
5.01537e-05
4.12822e-05
8.00642e-05
7.68893e-05
7.30822e-05
6.84893e-05
6.29867e-05
5.64812e-05
4.90097e-05
4.08807e-05
5.69698e-05
5.2119e-05
5.0861e-05
4.72745e-05
4.26766e-05
3.82569e-05
3.47595e-05
3.26229e-05
6.55308e-05
6.09308e-05
5.63463e-05
5.35437e-05
5.13887e-05
4.98964e-05
4.72236e-05
4.34885e-05
6.54478e-05
6.60233e-05
6.20671e-05
5.83209e-05
5.57069e-05
5.40824e-05
5.31422e-05
5.22372e-05
6.60972e-05
6.47366e-05
6.41148e-05
6.10101e-05
5.81667e-05
5.68781e-05
5.69073e-05
5.53401e-05
6.62928e-05
6.70804e-05
6.44016e-05
6.00483e-05
5.68419e-05
5.48987e-05
5.38277e-05
5.2908e-05
6.66387e-05
6.70547e-05
6.17116e-05
5.61876e-05
5.36323e-05
5.21145e-05
4.9403e-05
4.59124e-05
6.20247e-05
5.60126e-05
5.24826e-05
4.86866e-05
4.37195e-05
3.9096e-05
3.52904e-05
3.29294e-05
0.00012428
0.000115378
0.000120489
0.000118585
0.000110276
9.92178e-05
8.8565e-05
8.04999e-05
0.000149
0.00012094
0.000104462
0.000102334
0.000101575
9.65475e-05
8.95426e-05
8.26818e-05
0.000158495
0.00014121
0.000113902
9.84713e-05
9.27634e-05
8.92343e-05
8.49454e-05
8.04976e-05
0.000135941
0.000139798
0.000116118
9.80273e-05
8.79531e-05
8.22866e-05
7.79473e-05
7.40635e-05
0.000147592
0.000148272
0.000121906
0.000101872
9.27856e-05
8.86718e-05
8.45832e-05
8.02774e-05
0.000162098
0.000144707
0.000115223
9.98605e-05
9.92689e-05
9.6698e-05
8.97739e-05
8.26094e-05
0.000146329
0.000122295
0.000114694
0.000118826
0.000113469
0.000102
8.9895e-05
8.07332e-05
0.00012087
0.000116701
0.000113296
0.000107511
0.000100428
9.43198e-05
9.0069e-05
8.74988e-05
0.000130426
0.000119049
0.000113707
0.000111173
0.000105966
9.92517e-05
9.33226e-05
8.91681e-05
0.000144941
0.000128817
0.000114376
0.000110051
0.000106297
0.000100818
9.52527e-05
9.06586e-05
0.000155999
0.000139904
0.000115589
0.00010633
0.000103166
9.86064e-05
9.35711e-05
8.93722e-05
0.000144946
0.000134662
0.000117586
0.000110784
0.000106717
0.000101299
9.57069e-05
9.09891e-05
0.000138285
0.000127459
0.000114952
0.00011095
0.000107033
0.000100424
9.40227e-05
8.94156e-05
0.0001288
0.000118994
0.000113635
0.000109073
0.00010235
9.56027e-05
9.06671e-05
8.77016e-05
9.56476e-05
9.38336e-05
9.0451e-05
8.72933e-05
8.47396e-05
8.27672e-05
8.13084e-05
8.03687e-05
9.43086e-05
9.51076e-05
9.23581e-05
8.88918e-05
8.59015e-05
8.35403e-05
8.17913e-05
8.0683e-05
9.50467e-05
9.64089e-05
9.40848e-05
9.02891e-05
8.6898e-05
8.42101e-05
8.22233e-05
8.09816e-05
9.41257e-05
9.45413e-05
9.42797e-05
9.09283e-05
8.73717e-05
8.45089e-05
8.24153e-05
8.11341e-05
9.38236e-05
9.61824e-05
9.42787e-05
9.05518e-05
8.71311e-05
8.43943e-05
8.23652e-05
8.1098e-05
9.19237e-05
9.44133e-05
9.28293e-05
8.9524e-05
8.63768e-05
8.38578e-05
8.20156e-05
8.08696e-05
9.41716e-05
9.44626e-05
9.14973e-05
8.80959e-05
8.52556e-05
8.31016e-05
8.15644e-05
8.06052e-05
8.02661e-05
7.70704e-05
7.32532e-05
6.86847e-05
6.32319e-05
5.67819e-05
4.93227e-05
4.10959e-05
8.27039e-05
7.94351e-05
7.55123e-05
7.0889e-05
6.52963e-05
5.85323e-05
5.05313e-05
4.15591e-05
8.44655e-05
8.11475e-05
7.70043e-05
7.22966e-05
6.66087e-05
5.96472e-05
5.1295e-05
4.18431e-05
8.47863e-05
8.19622e-05
7.76259e-05
7.27961e-05
6.70512e-05
6.00167e-05
5.15469e-05
4.1957e-05
8.42011e-05
8.10945e-05
7.6986e-05
7.22809e-05
6.65912e-05
5.96238e-05
5.12719e-05
4.18434e-05
8.2267e-05
7.94737e-05
7.554e-05
7.0886e-05
6.5266e-05
5.84811e-05
5.04809e-05
4.15502e-05
8.03038e-05
7.71582e-05
7.32841e-05
6.86744e-05
6.31852e-05
5.6708e-05
4.92542e-05
4.10868e-05
3.11941e-05
3.63616e-05
4.45046e-05
5.65294e-05
4.58548e-05
3.58625e-05
3.1212e-05
7.40783e-05
7.18434e-05
7.3382e-05
6.85294e-05
7.28884e-05
7.27257e-05
7.43734e-05
8.56815e-05
8.48319e-05
8.48331e-05
8.47153e-05
8.48978e-05
8.49528e-05
8.56448e-05
8.01266e-05
8.01453e-05
8.0153e-05
8.02247e-05
8.01507e-05
8.00734e-05
8.00135e-05
3.34585e-05
3.3465e-05
3.34796e-05
3.34912e-05
3.3474e-05
3.34489e-05
3.343e-05
3.14801e-05
3.85609e-05
5.27916e-05
5.9788e-05
5.33538e-05
3.94418e-05
3.15485e-05
7.45262e-05
7.61414e-05
7.45152e-05
6.70286e-05
7.43976e-05
7.59054e-05
7.39033e-05
8.58726e-05
8.59338e-05
8.65174e-05
8.51799e-05
8.65369e-05
8.58306e-05
8.57884e-05
8.03248e-05
8.04862e-05
8.06711e-05
8.07512e-05
8.07177e-05
8.05443e-05
8.03848e-05
3.34602e-05
3.34888e-05
3.35258e-05
3.35527e-05
3.35364e-05
3.35078e-05
3.34867e-05
3.19436e-05
4.26246e-05
5.197e-05
5.70904e-05
5.31594e-05
4.58084e-05
3.22804e-05
7.66534e-05
8.06453e-05
8.45766e-05
8.02762e-05
8.42771e-05
8.00355e-05
7.68421e-05
8.64052e-05
8.81853e-05
8.99893e-05
8.90583e-05
9.02337e-05
8.83858e-05
8.64813e-05
8.04289e-05
8.07465e-05
8.10812e-05
8.15375e-05
8.10663e-05
8.06971e-05
8.02902e-05
3.3501e-05
3.35533e-05
3.36184e-05
3.36795e-05
3.36181e-05
3.35446e-05
3.34831e-05
3.14252e-05
3.94863e-05
5.11468e-05
5.52245e-05
5.19045e-05
4.17463e-05
3.16107e-05
7.54356e-05
7.68722e-05
7.68296e-05
7.16471e-05
7.66311e-05
7.65511e-05
7.51652e-05
8.60677e-05
8.67792e-05
8.76752e-05
8.65924e-05
8.78444e-05
8.67901e-05
8.61084e-05
8.01126e-05
8.04145e-05
8.0724e-05
8.09069e-05
8.08252e-05
8.05848e-05
8.03429e-05
3.34386e-05
3.3476e-05
3.35224e-05
3.35574e-05
3.35311e-05
3.34922e-05
3.34606e-05
3.05861e-05
3.00367e-05
2.97745e-05
2.96537e-05
2.95889e-05
2.9541e-05
2.94835e-05
2.93812e-05
3.21583e-05
3.05046e-05
2.99167e-05
2.96926e-05
2.95957e-05
2.95361e-05
2.94751e-05
2.9373e-05
3.7507e-05
3.28696e-05
3.07991e-05
2.99705e-05
2.96992e-05
2.95877e-05
2.95045e-05
2.93903e-05
4.70758e-05
3.996e-05
3.45918e-05
3.13512e-05
3.00553e-05
2.96949e-05
2.9556e-05
2.94234e-05
3.86456e-05
3.35446e-05
3.1046e-05
3.00397e-05
2.97232e-05
2.96007e-05
2.95136e-05
2.93972e-05
3.21965e-05
3.06193e-05
2.99695e-05
2.97168e-05
2.96101e-05
2.95453e-05
2.948e-05
2.93741e-05
3.06193e-05
3.00554e-05
2.97827e-05
2.96526e-05
2.95808e-05
2.95296e-05
2.94707e-05
2.93679e-05
7.09131e-05
7.01042e-05
7.03104e-05
7.08351e-05
7.13256e-05
7.1553e-05
7.12843e-05
7.01771e-05
6.75148e-05
6.73982e-05
6.85429e-05
6.97242e-05
7.06448e-05
7.11533e-05
7.10665e-05
7.00738e-05
6.75522e-05
6.56455e-05
6.69064e-05
6.85424e-05
6.98475e-05
7.06429e-05
7.07589e-05
6.99032e-05
6.66323e-05
6.43293e-05
6.49244e-05
6.67992e-05
6.861e-05
6.98271e-05
7.02471e-05
6.96032e-05
6.73571e-05
6.55417e-05
6.68148e-05
6.84875e-05
6.98204e-05
7.06324e-05
7.07575e-05
6.99083e-05
6.81341e-05
6.78396e-05
6.8842e-05
6.99441e-05
7.08184e-05
7.12924e-05
7.11765e-05
7.016e-05
7.12474e-05
7.04163e-05
7.06047e-05
7.11103e-05
7.15789e-05
7.17758e-05
7.14744e-05
7.03354e-05
8.46569e-05
8.44305e-05
8.45387e-05
8.46974e-05
8.47194e-05
8.4411e-05
8.34941e-05
8.15262e-05
8.37816e-05
8.37752e-05
8.40998e-05
8.44188e-05
8.45517e-05
8.43188e-05
8.34526e-05
8.15162e-05
8.32561e-05
8.32066e-05
8.36733e-05
8.41228e-05
8.4357e-05
8.41984e-05
8.33847e-05
8.14846e-05
8.27575e-05
8.24939e-05
8.30911e-05
8.37144e-05
8.40832e-05
8.40225e-05
8.328e-05
8.14295e-05
8.3245e-05
8.31797e-05
8.36567e-05
8.41162e-05
8.43551e-05
8.41997e-05
8.33894e-05
8.14917e-05
8.3856e-05
8.38274e-05
8.41488e-05
8.44667e-05
8.45955e-05
8.43577e-05
8.34868e-05
8.15453e-05
8.46399e-05
8.4428e-05
8.4563e-05
8.47428e-05
8.47752e-05
8.44701e-05
8.35523e-05
8.15786e-05
8.14445e-05
8.36616e-05
8.53994e-05
8.65301e-05
8.7059e-05
8.69453e-05
8.60102e-05
8.3861e-05
8.14329e-05
8.36137e-05
8.53485e-05
8.64918e-05
8.70357e-05
8.69346e-05
8.60088e-05
8.38655e-05
8.14615e-05
8.36126e-05
8.53262e-05
8.64652e-05
8.70142e-05
8.69216e-05
8.60047e-05
8.38683e-05
8.15287e-05
8.36416e-05
8.53175e-05
8.64403e-05
8.69901e-05
8.69055e-05
8.5998e-05
8.38692e-05
8.14635e-05
8.36129e-05
8.53244e-05
8.64636e-05
8.70141e-05
8.69237e-05
8.60085e-05
8.38731e-05
8.13827e-05
8.35861e-05
8.53361e-05
8.64891e-05
8.70391e-05
8.69419e-05
8.60184e-05
8.38757e-05
8.13495e-05
8.35954e-05
8.53628e-05
8.65169e-05
8.7061e-05
8.6956e-05
8.60249e-05
8.38762e-05
5.26063e-05
6.87102e-05
7.77745e-05
8.27964e-05
8.54085e-05
8.63805e-05
8.59707e-05
8.40339e-05
5.25939e-05
6.86822e-05
7.77523e-05
8.27822e-05
8.54011e-05
8.63786e-05
8.59732e-05
8.40394e-05
5.26434e-05
6.87066e-05
7.77587e-05
8.27813e-05
8.5399e-05
8.63783e-05
8.59754e-05
8.40435e-05
5.27136e-05
6.87484e-05
7.77757e-05
8.27869e-05
8.54004e-05
8.6379e-05
8.5977e-05
8.40463e-05
5.25989e-05
6.86686e-05
7.77372e-05
8.27706e-05
8.53945e-05
8.63772e-05
8.59765e-05
8.40459e-05
5.24731e-05
6.8584e-05
7.76967e-05
8.27545e-05
8.53885e-05
8.63748e-05
8.59747e-05
8.40438e-05
5.24121e-05
6.85467e-05
7.76808e-05
8.27499e-05
8.5388e-05
8.63748e-05
8.59735e-05
8.40413e-05
3.07213e-05
3.01777e-05
2.98464e-05
2.96773e-05
2.95916e-05
2.95351e-05
2.94745e-05
2.93715e-05
3.34307e-05
3.128e-05
3.04579e-05
2.99182e-05
2.97033e-05
2.96019e-05
2.95198e-05
2.94049e-05
4.90771e-05
4.14179e-05
3.41292e-05
3.1345e-05
3.01431e-05
2.97627e-05
2.96042e-05
2.9459e-05
6.62788e-05
6.54086e-05
5.06211e-05
3.91926e-05
3.30892e-05
3.04724e-05
2.97861e-05
2.95394e-05
5.15534e-05
4.48472e-05
3.55944e-05
3.17539e-05
3.02309e-05
2.97816e-05
2.96092e-05
2.94598e-05
3.41008e-05
3.15164e-05
3.06148e-05
2.99706e-05
2.97151e-05
2.96043e-05
2.95195e-05
2.94033e-05
3.07154e-05
3.01824e-05
2.98482e-05
2.96772e-05
2.95915e-05
2.95366e-05
2.94768e-05
2.93737e-05
7.1019e-05
7.03035e-05
7.04165e-05
7.08322e-05
7.1276e-05
7.14968e-05
7.12423e-05
7.01532e-05
6.9431e-05
6.77777e-05
6.85956e-05
6.94826e-05
7.02807e-05
7.0804e-05
7.07842e-05
6.98665e-05
7.03475e-05
6.51849e-05
6.60871e-05
6.78631e-05
6.90937e-05
6.98957e-05
7.01399e-05
6.94507e-05
6.71426e-05
6.61215e-05
6.63005e-05
6.63002e-05
6.75466e-05
6.87714e-05
6.93241e-05
6.89221e-05
7.04384e-05
6.4953e-05
6.57999e-05
6.75881e-05
6.88912e-05
6.97382e-05
7.00258e-05
6.93748e-05
6.92159e-05
6.74075e-05
6.83449e-05
6.92524e-05
7.00698e-05
7.06253e-05
7.06394e-05
6.97545e-05
7.04489e-05
6.98718e-05
7.00818e-05
7.05537e-05
7.10351e-05
7.12915e-05
7.10702e-05
7.00111e-05
8.47087e-05
8.44268e-05
8.45089e-05
8.46591e-05
8.46848e-05
8.43876e-05
8.34836e-05
8.15258e-05
8.41908e-05
8.39189e-05
8.41085e-05
8.43465e-05
8.44511e-05
8.4224e-05
8.3378e-05
8.14649e-05
8.39848e-05
8.32947e-05
8.35967e-05
8.39601e-05
8.41514e-05
8.40031e-05
8.32288e-05
8.13732e-05
8.30135e-05
8.18924e-05
8.25844e-05
8.34213e-05
8.38086e-05
8.375e-05
8.30504e-05
8.12686e-05
8.38504e-05
8.31194e-05
8.34946e-05
8.3891e-05
8.40954e-05
8.39584e-05
8.31961e-05
8.13505e-05
8.41199e-05
8.38711e-05
8.40629e-05
8.42925e-05
8.43962e-05
8.41708e-05
8.33309e-05
8.14287e-05
8.46804e-05
8.44209e-05
8.44904e-05
8.46199e-05
8.46343e-05
8.43324e-05
8.34282e-05
8.14763e-05
8.1558e-05
8.36991e-05
8.54016e-05
8.65218e-05
8.70514e-05
8.69419e-05
8.60112e-05
8.38656e-05
8.16828e-05
8.37457e-05
8.53994e-05
8.65005e-05
8.70276e-05
8.6923e-05
8.60004e-05
8.38627e-05
8.19007e-05
8.38656e-05
8.54309e-05
8.64881e-05
8.70027e-05
8.69012e-05
8.59871e-05
8.38583e-05
8.2e-05
8.3937e-05
8.54698e-05
8.64929e-05
8.69877e-05
8.6883e-05
8.59748e-05
8.38534e-05
8.19425e-05
8.38937e-05
8.54426e-05
8.64884e-05
8.69971e-05
8.68942e-05
8.59809e-05
8.38532e-05
8.17383e-05
8.37853e-05
8.54203e-05
8.65067e-05
8.7023e-05
8.69131e-05
8.59891e-05
8.3852e-05
8.16269e-05
8.37592e-05
8.54396e-05
8.65367e-05
8.70491e-05
8.69315e-05
8.59985e-05
8.38526e-05
5.2693e-05
6.87237e-05
7.77637e-05
8.27866e-05
8.54032e-05
8.63793e-05
8.59732e-05
8.40394e-05
5.2846e-05
6.88225e-05
7.78107e-05
8.28072e-05
8.54113e-05
8.63824e-05
8.59751e-05
8.40415e-05
5.30809e-05
6.89789e-05
7.78917e-05
8.2844e-05
8.54258e-05
8.63875e-05
8.59772e-05
8.40436e-05
5.32839e-05
6.91286e-05
7.79752e-05
8.28818e-05
8.54412e-05
8.63933e-05
8.59794e-05
8.40451e-05
5.3152e-05
6.90359e-05
7.79232e-05
8.28579e-05
8.54312e-05
8.6389e-05
8.59764e-05
8.40415e-05
5.2984e-05
6.8929e-05
7.78693e-05
8.28361e-05
8.54242e-05
8.63862e-05
8.59731e-05
8.40368e-05
5.28872e-05
6.88799e-05
7.78513e-05
8.283e-05
8.5422e-05
8.63844e-05
8.59699e-05
8.40316e-05
3.08894e-05
3.03091e-05
2.99324e-05
2.97415e-05
2.96443e-05
2.95788e-05
2.95119e-05
2.9404e-05
3.68257e-05
3.28061e-05
3.10591e-05
3.03197e-05
2.99804e-05
2.97679e-05
2.96149e-05
2.94668e-05
4.97018e-05
4.71074e-05
4.23925e-05
3.65923e-05
3.28751e-05
3.13486e-05
3.0417e-05
2.98179e-05
5.64531e-05
5.6756e-05
5.49153e-05
5.45732e-05
5.45056e-05
5.18698e-05
4.42971e-05
3.42514e-05
5.07684e-05
4.84451e-05
4.44123e-05
3.82709e-05
3.34477e-05
3.13961e-05
3.04445e-05
2.98381e-05
3.88723e-05
3.39462e-05
3.15392e-05
3.04874e-05
3.00498e-05
2.98026e-05
2.96393e-05
2.94857e-05
3.10318e-05
3.04352e-05
3.00143e-05
2.9783e-05
2.96729e-05
2.96026e-05
2.95315e-05
2.94198e-05
7.13815e-05
7.01158e-05
7.01334e-05
7.04956e-05
7.09083e-05
7.11284e-05
7.09046e-05
6.98679e-05
7.21948e-05
6.84169e-05
6.84232e-05
6.91524e-05
6.98179e-05
7.02161e-05
7.01447e-05
6.92828e-05
7.76034e-05
7.04872e-05
6.81532e-05
6.8616e-05
6.95515e-05
7.02058e-05
7.01029e-05
6.90472e-05
7.57537e-05
7.25602e-05
7.20553e-05
7.31045e-05
7.28863e-05
7.17332e-05
7.09028e-05
6.80263e-05
7.77589e-05
7.10482e-05
6.82248e-05
6.82935e-05
6.92987e-05
7.0002e-05
6.99825e-05
6.89747e-05
7.19904e-05
6.81618e-05
6.81443e-05
6.89171e-05
6.96712e-05
7.01261e-05
7.00961e-05
6.92592e-05
7.14005e-05
7.01523e-05
7.01723e-05
7.05343e-05
7.09551e-05
7.11822e-05
7.09571e-05
6.99141e-05
8.50527e-05
8.4652e-05
8.46169e-05
8.46725e-05
8.46383e-05
8.43049e-05
8.33881e-05
8.14379e-05
8.55573e-05
8.47294e-05
8.45783e-05
8.45407e-05
8.44583e-05
8.41172e-05
8.32212e-05
8.131e-05
8.61071e-05
8.44226e-05
8.42138e-05
8.43642e-05
8.44122e-05
8.41075e-05
8.32029e-05
8.1276e-05
8.44707e-05
8.04696e-05
8.04557e-05
8.22009e-05
8.32948e-05
8.36618e-05
8.29603e-05
8.10518e-05
8.61843e-05
8.4278e-05
8.4034e-05
8.42263e-05
8.43485e-05
8.40726e-05
8.31833e-05
8.12656e-05
8.56343e-05
8.47855e-05
8.46288e-05
8.45812e-05
8.44754e-05
8.41233e-05
8.32253e-05
8.13135e-05
8.50985e-05
8.46951e-05
8.46637e-05
8.47159e-05
8.46745e-05
8.43388e-05
8.34189e-05
8.14619e-05
8.17007e-05
8.38336e-05
8.54935e-05
8.65705e-05
8.70651e-05
8.69331e-05
8.5991e-05
8.38416e-05
8.20416e-05
8.4079e-05
8.56277e-05
8.66235e-05
8.70752e-05
8.69248e-05
8.59766e-05
8.38286e-05
8.24513e-05
8.44391e-05
8.58904e-05
8.67896e-05
8.7173e-05
8.69816e-05
8.60105e-05
8.38522e-05
8.28658e-05
8.45842e-05
8.59514e-05
8.69143e-05
8.73101e-05
8.70847e-05
8.60819e-05
8.39017e-05
8.24529e-05
8.44605e-05
8.59161e-05
8.68072e-05
8.71827e-05
8.69869e-05
8.60137e-05
8.38553e-05
8.20257e-05
8.40878e-05
8.56411e-05
8.66353e-05
8.70824e-05
8.69277e-05
8.59782e-05
8.38319e-05
8.16145e-05
8.37978e-05
8.54824e-05
8.65695e-05
8.70697e-05
8.69399e-05
8.59974e-05
8.38469e-05
5.29759e-05
6.89659e-05
7.79072e-05
8.28633e-05
8.54399e-05
8.63917e-05
8.59701e-05
8.40281e-05
5.32704e-05
6.91936e-05
7.80377e-05
8.29309e-05
8.54713e-05
8.64037e-05
8.5972e-05
8.40256e-05
5.36729e-05
6.95083e-05
7.82339e-05
8.30423e-05
8.55318e-05
8.64349e-05
8.59877e-05
8.40343e-05
5.42021e-05
6.99368e-05
7.85027e-05
8.32013e-05
8.56264e-05
8.6493e-05
8.60255e-05
8.40613e-05
5.366e-05
6.95076e-05
7.82353e-05
8.30425e-05
8.55315e-05
8.64358e-05
8.59905e-05
8.40385e-05
5.31807e-05
6.91463e-05
7.80174e-05
8.29217e-05
8.54663e-05
8.64015e-05
8.59724e-05
8.40277e-05
5.27964e-05
6.88606e-05
7.78593e-05
8.28402e-05
8.54293e-05
8.63882e-05
8.59711e-05
8.40314e-05
3.07019e-05
3.01854e-05
2.988e-05
2.97103e-05
2.96182e-05
2.95572e-05
2.94935e-05
2.93873e-05
3.35809e-05
3.13176e-05
3.05711e-05
3.00821e-05
2.97864e-05
2.96475e-05
2.95505e-05
2.94282e-05
4.83226e-05
4.43084e-05
3.74486e-05
3.26539e-05
3.08136e-05
2.99944e-05
2.96968e-05
2.95125e-05
5.63635e-05
5.98335e-05
6.17669e-05
5.46533e-05
4.0073e-05
3.31963e-05
3.04478e-05
2.97205e-05
4.96019e-05
4.63506e-05
3.93574e-05
3.31587e-05
3.08812e-05
3.00039e-05
2.96969e-05
2.95101e-05
3.4928e-05
3.17115e-05
3.06569e-05
3.0131e-05
2.97957e-05
2.96456e-05
2.95464e-05
2.94232e-05
3.07903e-05
3.02202e-05
2.98916e-05
2.97068e-05
2.96082e-05
2.95482e-05
2.94848e-05
2.93791e-05
7.16007e-05
7.06703e-05
7.07195e-05
7.1079e-05
7.14671e-05
7.16435e-05
7.13528e-05
7.02375e-05
7.03654e-05
6.83155e-05
6.89309e-05
6.97642e-05
7.03927e-05
7.08001e-05
7.07422e-05
6.98249e-05
7.16087e-05
6.66219e-05
6.64956e-05
6.82804e-05
6.93969e-05
6.99552e-05
7.00375e-05
6.93132e-05
6.94781e-05
6.85918e-05
6.79496e-05
6.99684e-05
6.90903e-05
6.86627e-05
6.89987e-05
6.85646e-05
7.1467e-05
6.64093e-05
6.61983e-05
6.79526e-05
6.9163e-05
6.9788e-05
6.99174e-05
6.92319e-05
6.97494e-05
6.77193e-05
6.85121e-05
6.94503e-05
7.01331e-05
7.05948e-05
7.05864e-05
6.97114e-05
7.12342e-05
7.04358e-05