/*--------------------------------*- C++ -*----------------------------------*\
| =========                 |                                                 |
| \\      /  F ield         | OpenFOAM: The Open Source CFD Toolbox           |
|  \\    /   O peration     | Version:  plus.master.MPPICInterFoam            |
|   \\  /    A nd           | Web:      www.OpenFOAM.com                      |
|    \\/     M anipulation  |                                                 |
\*---------------------------------------------------------------------------*/
FoamFile
{
    version     2.0;
    format      ascii;
    class       volScalarField;
    location    "1.4";
    object      p_rgh;
}
// * * * * * * * * * * * * * * * * * * * * * * * * * * * * * * * * * * * * * //

dimensions      [1 -1 -2 0 0 0 0];

internalField   nonuniform List<scalar> 
11821
(
5669.35
5666.69
5647
5628.54
5657.67
5670.86
5673.07
5666.04
5648.94
5613.04
5611.38
5641.22
5669.65
5673.41
5659.98
5619.64
5604.21
5605.83
5634.52
5670.84
5673.78
5651.27
5616.85
5605.47
5606.01
5632.74
5670.37
5674.01
5665.21
5631.19
5609.22
5612.23
5640.48
5670.12
5673.09
5667.51
5661.78
5649.22
5646.55
5661.27
5668.55
5672.72
5669.26
5670.27
5674.1
5668.46
5672.72
5672.04
5671.34
5582.21
5536.63
5531.81
5502.29
5527.19
5544
5607.02
5542.05
5516.21
5499.5
5496.62
5503.17
5534.9
5567.61
5556.54
5504.62
5501.86
5500.52
5501.72
5526.26
5581.52
5505.74
5497.92
5501.76
5500.97
5501.27
5511.21
5550.41
5538.2
5497.7
5497.21
5496.55
5496.3
5516.84
5576.86
5534.1
5511.31
5501.39
5503.76
5501.76
5528.24
5587.28
5571.42
5521.71
5522.75
5513.55
5519.15
5553.58
5646.25
5677.12
5646.48
5673.78
5597.68
5651.03
5617.63
5667.66
5648.44
5633.92
5632.53
5526.14
5600.15
5595.7
5641.39
5684.07
5643.03
5575.11
5491.86
5561.93
5617.79
5664.39
5620.45
5547.92
5481.5
5429.27
5488.15
5559.32
5629.69
5670.52
5624.85
5546.57
5469.91
5543.45
5607.88
5659.81
5583.83
5548.57
5579.82
5499.29
5546.07
5563.74
5642.68
5624.67
5562.89
5612.24
5541.04
5582.21
5614.19
5676.55
5719.93
5722.32
5723.72
5723.7
5722.55
5719.68
5717.52
5722.44
5724.79
5725.58
5720.29
5724.45
5722.09
5719.32
5724.03
5725.86
5721.2
5708.37
5722.03
5724.01
5721.18
5725.06
5722.57
5704.5
5667.1
5707.26
5720.48
5721.06
5723.57
5725.94
5722
5706.81
5722.17
5723.84
5720.87
5715.95
5714.27
5725.21
5711.62
5721.97
5716.88
5717.73
5717.35
5715.11
5722.98
5714.64
5719.96
5717.97
5716.61
5717.57
5718.92
5719.9
5720.67
5719.5
5718.22
5716.64
5718.94
5720.58
5721.85
5722.89
5721.29
5719.7
5717.83
5719.97
5721.89
5723
5723.79
5722.51
5720.77
5718.65
5720.78
5722.95
5723.86
5724.29
5723.16
5721.48
5719.13
5719.82
5721.63
5722.83
5723.35
5721.97
5720.39
5718.43
5718.88
5720.44
5721.34
5721.99
5720.74
5719.32
5717.52
5717.42
5718.77
5719.5
5720
5719.02
5717.77
5716.21
5676.33
5682.97
5692.6
5695.89
5697.45
5698.11
5698.24
5698.42
5676.38
5679.33
5683.13
5687.74
5691.42
5695.04
5697.4
5698.56
5677
5682.43
5686.69
5689.68
5691.62
5692.85
5694.94
5697.19
5667.91
5672.07
5675.5
5677.57
5682.26
5690.37
5693.81
5697.03
5677.03
5681.79
5685.96
5688.96
5690.91
5691.97
5694.54
5697.21
5676.21
5679.2
5682.52
5687.61
5691.61
5694.81
5697.09
5698.2
5677.89
5685.14
5691.48
5694.7
5696.19
5697
5697.46
5698.03
5676.82
5683.48
5688.52
5692.13
5694.73
5696.63
5698.06
5699.16
5656.06
5680.91
5686.91
5691.32
5694.5
5696.72
5698.28
5699.4
5663.23
5679.19
5685.37
5689.96
5693.32
5695.8
5697.68
5698.97
5650.59
5677.65
5684.51
5689.46
5692.92
5695.48
5697.78
5698.96
5662.98
5678.27
5684.67
5689.32
5692.76
5695.31
5697.29
5698.65
5668.43
5679.88
5686.04
5690.56
5693.73
5695.99
5697.6
5698.78
5675.78
5682.41
5687.39
5690.98
5693.62
5695.57
5697.08
5698.27
5704.78
5704.99
5705.17
5705.17
5705.06
5704.91
5704.76
5704.65
5702.7
5704.98
5705.01
5704.99
5704.88
5704.73
5704.61
5704.51
5703.87
5704.99
5704.9
5704.83
5704.69
5704.51
5704.35
5704.24
5700.68
5704.89
5704.88
5704.77
5704.56
5704.37
5704.21
5704.11
5702.29
5703.95
5704.08
5704.16
5704.14
5704.06
5703.98
5703.93
5702.78
5703.16
5703.57
5703.78
5703.85
5703.86
5703.86
5703.86
5702.07
5702.84
5703.34
5703.57
5703.66
5703.68
5703.69
5703.71
5715.11
5713.42
5712.05
5710.95
5710.05
5709.31
5708.68
5708.14
5716.62
5714.4
5712.66
5711.3
5710.23
5709.38
5708.67
5708.07
5717.67
5715.02
5712.99
5711.45
5710.27
5709.33
5708.57
5707.93
5718.37
5715.6
5713.35
5711.63
5710.34
5709.33
5708.53
5707.87
5717.39
5714.76
5712.76
5711.24
5710.06
5709.13
5708.38
5707.75
5716.15
5713.89
5712.15
5710.81
5709.77
5708.95
5708.27
5707.69
5714.44
5712.75
5711.41
5710.32
5709.44
5708.72
5708.12
5707.6
5715.12
5714.03
5713.06
5712.2
5711.42
5710.72
5710.06
5709.43
5716.04
5714.65
5713.47
5712.46
5711.58
5710.79
5710.06
5709.37
5716.64
5715.07
5713.74
5712.62
5711.66
5710.8
5710.03
5709.3
5716.97
5715.27
5713.85
5712.68
5711.68
5710.8
5710.01
5709.26
5716.47
5714.9
5713.58
5712.48
5711.52
5710.68
5709.91
5709.19
5715.74
5714.33
5713.16
5712.17
5711.3
5710.52
5709.81
5709.14
5714.69
5713.6
5712.65
5711.79
5711.03
5710.34
5709.7
5709.09
5670.79
5675.29
5687.67
5694.22
5695.82
5696.74
5697.58
5698.44
5670.41
5674.99
5679.87
5683.32
5685.63
5688.33
5690.75
5692.73
5671.05
5676.7
5682.03
5685.47
5687.34
5688.19
5688.35
5687.97
5661.2
5668.98
5675.28
5679.01
5678.46
5676.86
5676.21
5674.54
5669.1
5676.38
5682.39
5686.36
5688.09
5688.53
5688.66
5688.18
5671.38
5677.05
5681.61
5684.41
5687.04
5689.85
5691.61
5693.6
5673.91
5678.38
5684.55
5691.44
5695.71
5696.65
5697.58
5698.29
5670.47
5680
5685.97
5690.08
5692.98
5695.12
5696.75
5698.03
5601.62
5675.23
5684.11
5689.15
5692.81
5695.34
5697.05
5698.31
5618.97
5676.6
5683.91
5688.59
5691.83
5694.05
5695.58
5696.61
5579.16
5672.18
5683.05
5688.48
5691.94
5694.15
5695.39
5695.98
5633.52
5680.78
5686.33
5690.37
5693.15
5695.03
5696.27
5697.06
5614.49
5681.75
5688.3
5692.46
5695.51
5697.49
5698.8
5699.7
5675.85
5686.24
5690.93
5694.23
5696.42
5697.97
5699.12
5700.01
5702.67
5704.71
5705.02
5705.09
5705.02
5704.89
5704.77
5704.67
5678.97
5706.56
5706.23
5706
5705.73
5705.42
5705.16
5704.96
5700.32
5708.89
5707.85
5707.1
5706.47
5705.93
5705.47
5705.09
5693.44
5711.07
5709.61
5708.47
5707.52
5706.73
5706.04
5705.47
5708.81
5711.21
5709.62
5708.46
5707.53
5706.78
5706.15
5705.63
5698.02
5710.75
5709.45
5708.51
5707.72
5707.04
5706.49
5706.06
5710
5709.51
5708.88
5708.26
5707.65
5707.09
5706.63
5706.26
5716.59
5714.61
5713.02
5711.75
5710.72
5709.88
5709.19
5708.59
5718.43
5716.21
5714.16
5712.56
5711.31
5710.32
5709.51
5708.83
5720.08
5717.22
5714.96
5713.16
5711.75
5710.62
5709.72
5708.97
5721.78
5718.73
5716.09
5713.89
5712.25
5710.98
5709.99
5709.18
5720.49
5717.7
5715.42
5713.57
5712.12
5710.97
5710.03
5709.25
5719.24
5716.73
5714.73
5713.16
5711.9
5710.89
5710.05
5709.34
5717.21
5715.35
5713.83
5712.57
5711.54
5710.68
5709.95
5709.32
5715.89
5714.7
5713.65
5712.73
5711.92
5711.18
5710.5
5709.86
5717.12
5715.65
5714.38
5713.28
5712.34
5711.5
5710.74
5710.03
5717.89
5716.29
5714.88
5713.67
5712.64
5711.74
5710.92
5710.16
5718.54
5716.78
5715.25
5713.95
5712.86
5711.91
5711.06
5710.28
5718.01
5716.42
5715.02
5713.82
5712.8
5711.89
5711.07
5710.3
5717.23
5715.84
5714.61
5713.54
5712.61
5711.78
5711.02
5710.3
5716.14
5715.02
5714
5713.11
5712.31
5711.58
5710.9
5710.25
5674.56
5677.2
5682.27
5690.33
5695.95
5698.53
5699.23
5699.69
5671.87
5676.19
5680.96
5685.22
5688.12
5690.82
5694.18
5695.68
5660.74
5668.18
5674.03
5685.56
5691.11
5693.67
5695.36
5696.71
5640.41
5645.05
5653.92
5658.21
5664.09
5674.58
5688
5695.83
5660.5
5665.3
5670.66
5681.26
5690.15
5694.01
5695.68
5696.93
5674.06
5677.07
5681.21
5685.17
5688.04
5689.95
5693
5695.05
5676.41
5679.35
5684.74
5689.81
5693.91
5697.5
5699.22
5699.28
5674.7
5686.26
5690.97
5694.36
5696.72
5698.37
5699.56
5700.46
5604.08
5679.13
5687.51
5691.9
5695.15
5697.73
5699.3
5700.3
5604.52
5669.17
5684.5
5689.43
5693.04
5695.61
5697.38
5698.61
5547.69
5615.24
5660.7
5685.77
5691.06
5694.13
5695.98
5697.13
5584.39
5651.18
5681.15
5687.08
5691.31
5694.3
5696.36
5697.79
5593.09
5670.12
5683.33
5688.61
5692.51
5695.39
5697.59
5698.94
5674.13
5682.38
5687.89
5691.82
5694.69
5696.71
5698.16
5699.24
5709.71
5709.52
5708.9
5708.33
5707.75
5707.21
5706.74
5706.36
5696
5711.06
5709.76
5708.82
5708.04
5707.33
5706.73
5706.24
5704.34
5711.8
5710.13
5708.92
5707.98
5707.24
5706.6
5706.06
5677.1
5710.27
5710.38
5709.39
5708.48
5707.62
5706.8
5706.08
5692.16
5708.5
5707.89
5707.32
5706.8
5706.31
5705.84
5705.41
5681.28
5706.42
5706.22
5706.09
5705.89
5705.62
5705.33
5705.06
5701.82
5704.97
5705.27
5705.36
5705.3
5705.16
5705.01
5704.87
5717.15
5715.3
5713.79
5712.54
5711.51
5710.65
5709.92
5709.28
5719.12
5716.63
5714.66
5713.11
5711.85
5710.82
5709.97
5709.24
5720.27
5717.45
5715.15
5713.31
5711.86
5710.71
5709.77
5708.97
5721.29
5718.45
5715.91
5713.73
5712.09
5710.83
5709.83
5709.01
5719.34
5716.65
5714.48
5712.74
5711.36
5710.27
5709.37
5708.6
5717.53
5715.23
5713.38
5711.94
5710.79
5709.87
5709.11
5708.46
5715.31
5713.6
5712.23
5711.13
5710.22
5709.47
5708.83
5708.27
5716.12
5715
5713.99
5713.1
5712.29
5711.55
5710.86
5710.21
5717.2
5715.8
5714.57
5713.5
5712.56
5711.71
5710.94
5710.21
5717.93
5716.34
5714.94
5713.72
5712.67
5711.74
5710.89
5710.08
5718.43
5716.68
5715.15
5713.85
5712.75
5711.79
5710.92
5710.12
5717.59
5716.02
5714.63
5713.45
5712.41
5711.5
5710.66
5709.87
5716.57
5715.18
5713.97
5712.93
5712.01
5711.19
5710.43
5709.72
5715.27
5714.17
5713.2
5712.33
5711.55
5710.84
5710.18
5709.55
5675.23
5681.31
5690.97
5694.37
5695.96
5696.81
5697.47
5698.12
5675.39
5679.33
5683.79
5687.03
5688.99
5690.51
5691.61
5692.89
5677.07
5680.97
5685.17
5688.3
5690.13
5691.12
5691.44
5691.28
5669.08
5674.39
5680.4
5685.42
5689.64
5690.73
5688.17
5681.59
5675.14
5679.45
5684.68
5688.4
5690.23
5691.18
5691.61
5691.44
5673.81
5677.72
5681.67
5684.45
5687.05
5690.02
5690.95
5692.34
5672.94
5676.14
5684.35
5690.75
5693.77
5695.43
5696.63
5697.64
5674.33
5681.6
5686.74
5690.42
5693.1
5695.08
5696.58
5697.76
5647.44
5675.45
5682.43
5687.52
5691.19
5693.76
5695.55
5696.82
5596.72
5669.62
5678.54
5684.47
5688.58
5691.4
5693.3
5694.57
5553.77
5644.98
5676.13
5682.73
5687.22
5690.24
5692.18
5693.35
5581.81
5662.87
5677.72
5683.83
5688.11
5691.06
5693.05
5694.38
5583.75
5668.01
5680.19
5686.06
5690.38
5693.26
5695.24
5696.66
5666.45
5678.81
5684.88
5689.16
5692.25
5694.49
5696.19
5697.51
5701.67
5702.52
5703.09
5703.38
5703.49
5703.53
5703.54
5703.55
5697.91
5702.27
5702.88
5703.23
5703.36
5703.37
5703.34
5703.31
5672.9
5702.34
5702.82
5703.2
5703.34
5703.34
5703.25
5703.12
5636.8
5703.11
5703.49
5703.75
5703.77
5703.66
5703.49
5703.28
5672.4
5704.34
5704.06
5704.07
5704
5703.85
5703.67
5703.46
5663.59
5704.42
5704.36
5704.4
5704.33
5704.19
5704.05
5703.93
5700.66
5704.06
5704.46
5704.63
5704.62
5704.53
5704.43
5704.34
5714.5
5712.78
5711.43
5710.34
5709.44
5708.71
5708.1
5707.58
5716.72
5714.33
5712.44
5710.99
5709.85
5708.95
5708.22
5707.61
5718.49
5715.72
5713.41
5711.64
5710.27
5709.2
5708.35
5707.65
5719.3
5716.98
5714.35
5712.3
5710.71
5709.51
5708.59
5707.85
5719.59
5716.56
5714.13
5712.24
5710.76
5709.61
5708.7
5707.95
5718.09
5715.89
5713.72
5712.05
5710.74
5709.71
5708.89
5708.21
5716.45
5714.45
5712.86
5711.58
5710.54
5709.69
5708.98
5708.38
5714.75
5713.64
5712.68
5711.83
5711.06
5710.37
5709.72
5709.11
5716.02
5714.56
5713.34
5712.31
5711.41
5710.61
5709.88
5709.18
5717.07
5715.39
5713.95
5712.76
5711.74
5710.84
5710.03
5709.28
5717.85
5715.99
5714.39
5713.08
5711.99
5711.04
5710.2
5709.42
5717.48
5715.79
5714.32
5713.08
5712.03
5711.1
5710.28
5709.5
5716.91
5715.38
5714.06
5712.94
5711.97
5711.12
5710.35
5709.63
5715.8
5714.59
5713.53
5712.61
5711.79
5711.04
5710.36
5709.72
5698.82
5699.4
5697.83
5698.09
5697.88
5698.95
5698.67
5700.02
5700.21
5699.82
5699.84
5699.54
5699.64
5699.2
5704.58
5704.45
5704.19
5704.06
5703.92
5703.88
5703.73
5707.66
5707.57
5707.42
5707.36
5707.26
5707.22
5707.15
5708.81
5708.72
5708.63
5708.58
5708.52
5708.5
5708.48
5699.11
5695.58
5687.52
5672.68
5687.71
5695.78
5698.81
5699.04
5699.22
5697.32
5696.14
5697.56
5700.33
5700.71
5704.6
5704.84
5704.85
5705.06
5705.28
5705.79
5705.98
5708.08
5708.28
5708.38
5708.58
5708.65
5708.76
5708.77
5709.23
5709.37
5709.47
5709.58
5709.61
5709.63
5709.61
5700.03
5696.65
5697.6
5696.86
5697.69
5695.91
5699.58
5701.13
5700.89
5699.38
5697.71
5698.67
5699.74
5700.06
5706.06
5705.87
5705.62
5705.49
5705.06
5704.85
5704.75
5708.72
5708.64
5708.33
5708.38
5707.99
5707.91
5707.78
5709.57
5709.52
5709.35
5709.39
5709.14
5709.04
5708.91
5698.75
5694.33
5690.93
5679.39
5690.98
5693.86
5698.51
5698.7
5697.73
5695.35
5693.85
5695.2
5697.65
5698.56
5703.57
5703.31
5703.01
5703.01
5703.29
5703.87
5704.29
5707.12
5707.12
5707.11
5707.31
5707.38
5707.67
5707.87
5708.49
5708.53
5708.59
5708.72
5708.81
5708.96
5709.09
5699.83
5701.15
5702.08
5702.68
5703.15
5703.54
5703.85
5704.1
5700.26
5701.24
5702.09
5702.74
5703.23
5703.61
5703.9
5704.13
5699.11
5700.74
5701.68
5702.38
5702.92
5703.35
5703.68
5703.93
5697.93
5700.48
5702.94
5703.76
5703.98
5704.14
5704.27
5704.37
5698.92
5700.88
5701.78
5702.4
5702.92
5703.32
5703.64
5703.88
5699.72
5700.82
5701.77
5702.49
5703.03
5703.44
5703.75
5703.99
5699.77
5700.9
5701.77
5702.46
5703.01
5703.44
5703.77
5704.03
5701.16
5702.17
5702.85
5703.33
5703.7
5703.98
5704.21
5704.38
5701.27
5702.25
5702.95
5703.44
5703.8
5704.06
5704.26
5704.41
5700.86
5701.91
5702.62
5703.13
5703.5
5703.78
5704.01
5704.18
5700.81
5701.82
5702.7
5703.38
5703.81
5704.09
5704.28
5704.43
5700.6
5701.69
5702.41
5702.94
5703.36
5703.67
5703.92
5704.11
5700.77
5701.84
5702.62
5703.19
5703.6
5703.9
5704.13
5704.3
5700.47
5701.64
5702.45
5703.04
5703.49
5703.82
5704.08
5704.27
5704.49
5704.47
5704.49
5704.55
5704.62
5704.69
5704.76
5704.83
5704.42
5704.43
5704.48
5704.55
5704.63
5704.7
5704.77
5704.82
5704.19
5704.26
5704.34
5704.43
5704.52
5704.6
5704.67
5704.73
5704.06
5704.26
5704.42
5704.54
5704.62
5704.7
5704.76
5704.81
5703.98
5704.12
5704.27
5704.39
5704.48
5704.55
5704.62
5704.67
5703.94
5704.06
5704.19
5704.32
5704.44
5704.54
5704.63
5704.7
5703.8
5703.93
5704.08
5704.23
5704.37
5704.49
5704.6
5704.68
5706.96
5706.32
5705.91
5705.65
5705.47
5705.37
5705.31
5705.27
5706.88
5706.27
5705.87
5705.61
5705.45
5705.34
5705.28
5705.24
5706.75
5706.14
5705.75
5705.49
5705.36
5705.26
5705.2
5705.17
5706.72
5706.14
5705.79
5705.57
5705.44
5705.34
5705.27
5705.23
5706.61
5706.03
5705.66
5705.43
5705.28
5705.2
5705.15
5705.12
5706.58
5706.01
5705.64
5705.42
5705.29
5705.21
5705.16
5705.13
5706.51
5705.95
5705.59
5705.4
5705.27
5705.19
5705.15
5705.14
5707.93
5707.12
5706.58
5706.21
5705.96
5705.79
5705.67
5705.6
5707.85
5707.05
5706.52
5706.16
5705.92
5705.75
5705.63
5705.55
5707.76
5706.98
5706.45
5706.1
5705.86
5705.69
5705.58
5705.5
5707.72
5706.95
5706.44
5706.1
5705.86
5705.7
5705.59
5705.52
5707.66
5706.89
5706.38
5706.03
5705.8
5705.64
5705.53
5705.46
5707.64
5706.87
5706.36
5706.03
5705.8
5705.64
5705.54
5705.47
5707.62
5706.86
5706.35
5706.02
5705.8
5705.65
5705.55
5705.48
5699.69
5701.01
5702.21
5703.15
5703.84
5704.34
5704.7
5704.97
5699.15
5699.66
5701.54
5703.27
5704.36
5704.95
5705.29
5705.48
5688.31
5695.48
5704.53
5705.84
5706.26
5706.3
5706.3
5706.28
5673.71
5689.14
5700.48
5712.84
5714.82
5712.67
5710.79
5709.5
5688.09
5694.09
5704.62
5706.88
5707.1
5706.86
5706.69
5706.56
5698.68
5699.21
5700.95
5703.1
5704.37
5705.05
5705.36
5705.58
5699.3
5700.93
5702.36
5703.31
5703.97
5704.43
5704.8
5705.08
5700.46
5701.87
5702.91
5703.67
5704.23
5704.64
5704.93
5705.15
5700.44
5701.83
5703.06
5703.94
5704.58
5705.02
5705.32
5705.52
5698.42
5700.77
5703.15
5704.35
5705.09
5705.54
5705.81
5705.98
5696.32
5700.21
5704.54
5706.56
5707.58
5707.85
5707.79
5707.61
5698.26
5700.62
5703.49
5704.7
5705.41
5705.79
5706.02
5706.16
5701.17
5702.21
5703.33
5704.16
5704.76
5705.18
5705.46
5705.65
5701.66
5702.72
5703.53
5704.11
5704.54
5704.88
5705.12
5705.3
5704.55
5704.63
5704.79
5704.97
5705.14
5705.29
5705.41
5705.5
5704.77
5704.85
5705.05
5705.28
5705.44
5705.57
5705.69
5705.78
5704.66
5704.92
5705.24
5705.53
5705.75
5705.9
5706.02
5706.09
5704.68
5704.76
5705.49
5706.23
5706.68
5706.87
5706.92
5706.92
5704.95
5705.15
5705.48
5705.76
5705.95
5706.08
5706.17
5706.23
5705.5
5705.36
5705.43
5705.56
5705.66
5705.77
5705.86
5705.93
5705.63
5705.43
5705.38
5705.42
5705.48
5705.56
5705.63
5705.7
5707.35
5706.71
5706.37
5706.13
5706
5705.93
5705.9
5705.88
5707.54
5706.91
5706.57
5706.35
5706.22
5706.15
5706.11
5706.08
5707.63
5707.12
5706.79
5706.58
5706.45
5706.37
5706.33
5706.3
5707.83
5707.36
5707.1
5706.97
5706.89
5706.83
5706.77
5706.73
5707.87
5707.3
5706.97
5706.73
5706.59
5706.49
5706.44
5706.4
5707.97
5707.28
5706.86
5706.59
5706.44
5706.33
5706.26
5706.22
5707.96
5707.22
5706.79
5706.48
5706.29
5706.17
5706.1
5706.06
5708.33
5707.53
5707
5706.65
5706.42
5706.27
5706.18
5706.12
5708.46
5707.66
5707.14
5706.8
5706.57
5706.42
5706.33
5706.27
5708.57
5707.78
5707.27
5706.93
5706.71
5706.58
5706.49
5706.43
5708.68
5707.89
5707.41
5707.1
5706.91
5706.79
5706.7
5706.65
5708.7
5707.89
5707.36
5707.02
5706.81
5706.66
5706.56
5706.5
5708.71
5707.89
5707.34
5706.97
5706.73
5706.57
5706.46
5706.39
5708.69
5707.85
5707.29
5706.9
5706.64
5706.47
5706.35
5706.27
5700.55
5701.39
5702.36
5703.04
5703.49
5703.89
5704.28
5704.62
5698.14
5699.81
5700.78
5701.53
5702.3
5703.27
5704.28
5705.1
5698.51
5699.04
5699.32
5699.68
5700.07
5700.39
5700.84
5702.09
5697.25
5694.28
5683.68
5680.8
5680.74
5689.17
5704.27
5714.9
5698.43
5698.96
5699.24
5699.75
5700.27
5700.51
5700.77
5701.92
5697.26
5699.61
5700.64
5701.42
5702.07
5702.92
5703.86
5704.63
5700.05
5700.89
5701.89
5702.58
5702.98
5703.36
5703.73
5704.06
5702.01
5702.84
5703.46
5703.9
5704.25
5704.54
5704.76
5704.97
5701.53
5702.19
5702.83
5703.42
5703.89
5704.35
5704.81
5705.22
5700.21
5700.68
5701.03
5701.5
5702.07
5702.55
5702.85
5703.22
5698.15
5697.98
5696.44
5695.81
5697.55
5701.04
5704.19
5707.04
5699.62
5700.19
5700.58
5701.09
5701.73
5702.27
5702.65
5703.03
5700.62
5701.46
5702.16
5702.79
5703.29
5703.77
5704.27
5704.69
5701.13
5702.09
5702.76
5703.26
5703.62
5703.93
5704.17
5704.36
5705.66
5705.38
5705.26
5705.24
5705.28
5705.34
5705.42
5705.49
5705.45
5705.16
5705.08
5705.1
5705.2
5705.35
5705.5
5705.64
5705.05
5704.56
5704.32
5704.23
5704.2
5704.22
5704.3
5704.41
5704.65
5703.81
5703.67
5704.08
5704.85
5705.61
5706.36
5707.03
5704.58
5704.16
5703.97
5703.92
5703.96
5704.02
5704.11
5704.23
5704.61
5704.48
5704.47
5704.55
5704.68
5704.85
5705.02
5705.16
5704.6
5704.51
5704.52
5704.57
5704.64
5704.72
5704.81
5704.9
5707.91
5707.16
5706.68
5706.35
5706.15
5706.03
5705.96
5705.92
5707.81
5707.12
5706.61
5706.29
5706.11
5706.01
5705.97
5705.96
5707.48
5706.71
5706.17
5705.8
5705.57
5705.39
5705.29
5705.24
5707.59
5706.95
5706.61
5706.41
5706.31
5706.36
5706.52
5706.69
5707.18
5706.44
5705.94
5705.63
5705.39
5705.22
5705.13
5705.09
5707.15
5706.53
5706.07
5705.78
5705.62
5705.54
5705.51
5705.51
5707.06
5706.4
5705.99
5705.71
5705.53
5705.43
5705.38
5705.36
5708.63
5707.78
5707.2
5706.8
5706.56
5706.37
5706.25
5706.17
5708.59
5707.73
5707.15
5706.76
5706.49
5706.32
5706.22
5706.15
5708.37
5707.48
5706.87
5706.44
5706.15
5705.95
5705.82
5705.74
5708.44
5707.61
5707.08
5706.73
5706.55
5706.47
5706.46
5706.48
5708.18
5707.3
5706.71
5706.29
5706
5705.82
5705.7
5705.62
5708.12
5707.28
5706.73
5706.35
5706.1
5705.93
5705.83
5705.76
5708.01
5707.19
5706.65
5706.27
5706.02
5705.85
5705.74
5705.66
5699.67
5700.61
5701.44
5702.25
5702.94
5703.46
5703.85
5704.13
5696.83
5699.28
5699.89
5701.32
5702.7
5703.68
5704.24
5704.54
5690.39
5690.35
5694.85
5700.14
5702.33
5703.61
5704.29
5704.68
5676.43
5673.69
5681.32
5696.32
5712.98
5714.58
5713.6
5711.45
5690.35
5690.48
5694.94
5700.96
5703.14
5704.16
5704.68
5705
5696.71
5700.16
5700.46
5701.7
5703.09
5704.09
5704.65
5704.98
5699.65
5700.68
5701.77
5702.75
5703.5
5704.06
5704.47
5704.77
5700
5701.26
5702.17
5702.87
5703.4
5703.81
5704.12
5704.34
5698.92
5700.34
5701.45
5702.43
5703.25
5703.86
5704.28
5704.57
5696.19
5697.2
5699.47
5701.66
5702.78
5703.6
5704.18
5704.59
5694.24
5694.44
5697.27
5701.58
5705.2
5707.03
5707.6
5707.64
5696.17
5697.11
5699.28
5701.73
5702.97
5703.81
5704.4
5704.8
5698.93
5700.44
5701.6
5702.64
5703.54
5704.2
5704.66
5704.97
5700
5701.37
5702.47
5703.3
5703.9
5704.36
5704.69
5704.94
5703.62
5703.78
5703.97
5704.16
5704.34
5704.51
5704.64
5704.76
5703.38
5703.58
5703.83
5704.13
5704.38
5704.59
5704.77
5704.91
5702.91
5703.09
5703.5
5703.88
5704.24
5704.55
5704.8
5705
5702.75
5702.92
5703.58
5704.41
5705.36
5706.04
5706.29
5706.47
5703.13
5703.27
5703.69
5704.08
5704.44
5704.75
5704.99
5705.18
5703.86
5704.03
5704.25
5704.54
5704.76
5704.98
5705.16
5705.3
5704.25
5704.34
5704.52
5704.72
5704.91
5705.07
5705.21
5705.33
5706.47
5705.91
5705.59
5705.39
5705.28
5705.22
5705.2
5705.2
5706.46
5705.9
5705.59
5705.42
5705.35
5705.32
5705.31
5705.32
5706.42
5705.9
5705.61
5705.47
5705.41
5705.4
5705.42
5705.45
5706.66
5706.3
5706.09
5706
5706.05
5706.12
5706.17
5706.2
5706.64
5706.09
5705.79
5705.65
5705.58
5705.57
5705.58
5705.61
5706.95
5706.34
5706
5705.82
5705.74
5705.69
5705.68
5705.68
5707.14
5706.5
5706.18
5705.95
5705.83
5705.77
5705.76
5705.74
5707.63
5706.86
5706.36
5706.03
5705.82
5705.67
5705.59
5705.54
5707.66
5706.89
5706.4
5706.07
5705.86
5705.75
5705.67
5705.63
5707.71
5706.93
5706.43
5706.15
5705.96
5705.85
5705.78
5705.75
5707.84
5707.07
5706.63
5706.38
5706.25
5706.18
5706.15
5706.14
5707.9
5707.1
5706.58
5706.31
5706.11
5706
5705.93
5705.89
5708.06
5707.27
5706.74
5706.4
5706.22
5706.09
5706
5705.95
5708.19
5707.38
5706.86
5706.52
5706.29
5706.16
5706.07
5706.01
5704.25
5704.34
5704.41
5704.47
5704.52
5704.55
5704.57
5704.58
5704.27
5704.35
5704.42
5704.47
5704.5
5704.53
5704.54
5704.55
5704.07
5704.17
5704.24
5704.29
5704.34
5704.37
5704.38
5704.39
5704.43
5704.48
5704.51
5704.54
5704.56
5704.57
5704.58
5704.59
5704.03
5704.12
5704.19
5704.25
5704.29
5704.32
5704.34
5704.35
5704.13
5704.23
5704.3
5704.35
5704.4
5704.43
5704.45
5704.46
5704.18
5704.27
5704.34
5704.4
5704.44
5704.47
5704.49
5704.5
5704.49
5704.56
5704.61
5704.65
5704.68
5704.7
5704.71
5704.72
5704.5
5704.55
5704.59
5704.62
5704.64
5704.66
5704.67
5704.68
5704.28
5704.35
5704.41
5704.45
5704.48
5704.51
5704.52
5704.53
5704.51
5704.57
5704.61
5704.64
5704.66
5704.68
5704.69
5704.69
5704.23
5704.3
5704.36
5704.4
5704.43
5704.45
5704.47
5704.48
5704.4
5704.46
5704.5
5704.54
5704.57
5704.59
5704.6
5704.6
5704.39
5704.46
5704.52
5704.56
5704.59
5704.61
5704.62
5704.63
5704.87
5704.9
5704.93
5704.95
5704.97
5704.98
5704.99
5704.99
5704.86
5704.88
5704.9
5704.91
5704.92
5704.93
5704.93
5704.93
5704.76
5704.78
5704.8
5704.81
5704.82
5704.82
5704.83
5704.83
5704.85
5704.87
5704.88
5704.9
5704.91
5704.91
5704.92
5704.92
5704.69
5704.71
5704.73
5704.74
5704.75
5704.76
5704.77
5704.77
5704.74
5704.77
5704.79
5704.8
5704.81
5704.82
5704.83
5704.83
5704.74
5704.77
5704.8
5704.82
5704.83
5704.84
5704.85
5704.85
5705.26
5705.26
5705.26
5705.25
5705.25
5705.25
5705.25
5705.25
5705.22
5705.22
5705.21
5705.22
5705.21
5705.21
5705.21
5705.21
5705.15
5705.15
5705.15
5705.15
5705.15
5705.15
5705.14
5705.14
5705.21
5705.2
5705.19
5705.18
5705.18
5705.18
5705.18
5705.18
5705.1
5705.1
5705.1
5705.1
5705.1
5705.1
5705.1
5705.1
5705.12
5705.12
5705.12
5705.12
5705.12
5705.12
5705.12
5705.12
5705.14
5705.14
5705.14
5705.15
5705.15
5705.15
5705.15
5705.15
5705.56
5705.53
5705.51
5705.5
5705.49
5705.49
5705.48
5705.48
5705.51
5705.49
5705.47
5705.46
5705.45
5705.44
5705.44
5705.44
5705.46
5705.44
5705.42
5705.41
5705.4
5705.4
5705.39
5705.39
5705.48
5705.46
5705.44
5705.43
5705.42
5705.42
5705.41
5705.41
5705.42
5705.4
5705.38
5705.37
5705.37
5705.36
5705.36
5705.36
5705.43
5705.41
5705.4
5705.39
5705.38
5705.38
5705.37
5705.37
5705.45
5705.43
5705.42
5705.41
5705.41
5705.4
5705.4
5705.4
5705.13
5705.23
5705.3
5705.36
5705.4
5705.43
5705.45
5705.45
5705.59
5705.66
5705.71
5705.74
5705.77
5705.78
5705.79
5705.8
5706.27
5706.26
5706.26
5706.25
5706.25
5706.25
5706.25
5706.26
5708.78
5708.35
5708.02
5707.78
5707.61
5707.5
5707.43
5707.4
5706.5
5706.46
5706.43
5706.41
5706.4
5706.39
5706.38
5706.39
5705.7
5705.77
5705.82
5705.86
5705.89
5705.91
5705.92
5705.93
5705.24
5705.35
5705.43
5705.49
5705.53
5705.56
5705.58
5705.59
5705.27
5705.35
5705.41
5705.46
5705.49
5705.52
5705.53
5705.54
5705.63
5705.69
5705.74
5705.78
5705.81
5705.82
5705.83
5705.84
5706.06
5706.11
5706.14
5706.17
5706.18
5706.2
5706.2
5706.21
5707.46
5707.35
5707.26
5707.19
5707.14
5707.1
5707.07
5707.07
5706.22
5706.25
5706.28
5706.29
5706.3
5706.31
5706.32
5706.32
5705.76
5705.83
5705.87
5705.91
5705.94
5705.95
5705.96
5705.97
5705.42
5705.49
5705.55
5705.59
5705.62
5705.65
5705.66
5705.67
5705.56
5705.6
5705.63
5705.65
5705.67
5705.68
5705.69
5705.69
5705.83
5705.86
5705.89
5705.9
5705.92
5705.93
5705.93
5705.94
5706.14
5706.16
5706.18
5706.2
5706.21
5706.22
5706.22
5706.22
5706.9
5706.88
5706.86
5706.84
5706.82
5706.81
5706.8
5706.8
5706.26
5706.28
5706.29
5706.3
5706.31
5706.31
5706.32
5706.32
5705.97
5706
5706.02
5706.03
5706.04
5706.05
5706.06
5706.06
5705.74
5705.77
5705.79
5705.8
5705.82
5705.82
5705.83
5705.83
5705.88
5705.87
5705.87
5705.87
5705.87
5705.87
5705.87
5705.87
5706.07
5706.07
5706.07
5706.07
5706.06
5706.06
5706.06
5706.06
5706.29
5706.28
5706.28
5706.28
5706.28
5706.28
5706.28
5706.28
5706.7
5706.68
5706.67
5706.66
5706.65
5706.64
5706.64
5706.64
5706.38
5706.37
5706.36
5706.36
5706.36
5706.35
5706.35
5706.35
5706.2
5706.19
5706.19
5706.18
5706.18
5706.18
5706.17
5706.17
5706.04
5706.02
5706.02
5706.01
5706.01
5706
5706
5706
5706.09
5706.07
5706.06
5706.05
5706.04
5706.04
5706.03
5706.03
5706.24
5706.22
5706.21
5706.2
5706.19
5706.18
5706.18
5706.18
5706.39
5706.37
5706.36
5706.35
5706.34
5706.34
5706.33
5706.33
5706.61
5706.59
5706.58
5706.57
5706.56
5706.55
5706.55
5706.55
5706.46
5706.44
5706.42
5706.41
5706.4
5706.39
5706.39
5706.39
5706.35
5706.32
5706.3
5706.29
5706.28
5706.27
5706.27
5706.27
5706.23
5706.2
5706.18
5706.17
5706.16
5706.15
5706.14
5706.14
5704.83
5704.97
5705.08
5705.17
5705.23
5705.28
5705.31
5705.32
5705.5
5705.71
5705.83
5705.92
5705.98
5706.02
5706.04
5706.05
5702.69
5703.06
5703.33
5703.54
5703.7
5703.81
5703.88
5703.95
5715.45
5715.01
5714
5713.16
5712.54
5712.09
5711.82
5711.71
5702.51
5702.88
5703.15
5703.36
5703.53
5703.64
5703.72
5703.78
5705
5705.19
5705.32
5705.4
5705.46
5705.49
5705.51
5705.52
5704.26
5704.39
5704.49
5704.58
5704.64
5704.68
5704.71
5704.72
5705.11
5705.21
5705.28
5705.35
5705.39
5705.43
5705.45
5705.46
5705.46
5705.61
5705.72
5705.8
5705.85
5705.89
5705.91
5705.93
5703.5
5703.69
5703.85
5703.98
5704.08
5704.15
5704.2
5704.23
5708.29
5708.8
5709.05
5709.16
5709.2
5709.21
5709.22
5709.23
5703.31
5703.51
5703.68
5703.81
5703.92
5703.99
5704.04
5704.07
5704.94
5705.09
5705.2
5705.28
5705.33
5705.37
5705.39
5705.41
5704.51
5704.6
5704.68
5704.74
5704.79
5704.82
5704.84
5704.85
5705.53
5705.57
5705.59
5705.62
5705.63
5705.65
5705.66
5705.66
5705.74
5705.79
5705.84
5705.88
5705.9
5705.92
5705.93
5705.93
5704.49
5704.54
5704.59
5704.64
5704.67
5704.7
5704.71
5704.73
5707.36
5707.55
5707.67
5707.75
5707.8
5707.84
5707.86
5707.86
5704.32
5704.39
5704.44
5704.49
5704.53
5704.56
5704.58
5704.59
5705.25
5705.31
5705.35
5705.39
5705.41
5705.43
5705.44
5705.44
5704.95
5704.99
5705.02
5705.04
5705.06
5705.07
5705.08
5705.08
5705.9
5705.89
5705.88
5705.88
5705.88
5705.88
5705.88
5705.87
5705.96
5705.96
5705.97
5705.97
5705.98
5705.98
5705.98
5705.98
5705.22
5705.22
5705.22
5705.22
5705.22
5705.22
5705.22
5705.22
5706.8
5706.87
5706.92
5706.96
5707
5707.02
5707.03
5707.04
5705.08
5705.08
5705.09
5705.09
5705.09
5705.1
5705.1
5705.1
5705.51
5705.52
5705.53
5705.53
5705.54
5705.54
5705.54
5705.54
5705.34
5705.34
5705.33
5705.33
5705.33
5705.33
5705.33
5705.33
5706.12
5706.1
5706.08
5706.07
5706.06
5706.05
5706.04
5706.04
5706.12
5706.1
5706.09
5706.08
5706.07
5706.07
5706.06
5706.06
5705.69
5705.67
5705.64
5705.63
5705.62
5705.61
5705.6
5705.6
5706.51
5706.53
5706.55
5706.57
5706.58
5706.59
5706.6
5706.6
5705.58
5705.55
5705.53
5705.52
5705.51
5705.5
5705.5
5705.5
5705.73
5705.72
5705.7
5705.69
5705.69
5705.68
5705.68
5705.68
5705.62
5705.6
5705.58
5705.57
5705.56
5705.56
5705.55
5705.55
5704.3
5704.41
5704.49
5704.55
5704.59
5704.63
5704.65
5704.66
5704.7
5704.79
5704.86
5704.91
5704.94
5704.96
5704.98
5704.99
5704.89
5705.01
5705.1
5705.17
5705.22
5705.25
5705.28
5705.3
5710.21
5709.47
5708.89
5708.45
5708.14
5707.93
5707.8
5707.75
5705.16
5705.26
5705.33
5705.39
5705.43
5705.46
5705.48
5705.5
5705.14
5705.23
5705.3
5705.34
5705.38
5705.4
5705.41
5705.42
5704.95
5705.05
5705.13
5705.2
5705.24
5705.28
5705.3
5705.31
5704.48
5704.56
5704.63
5704.68
5704.71
5704.74
5704.76
5704.76
5704.73
5704.82
5704.89
5704.94
5704.98
5705.01
5705.02
5705.03
5704.82
5704.96
5705.06
5705.14
5705.2
5705.24
5705.27
5705.29
5707.53
5707.42
5707.31
5707.22
5707.14
5707.09
5707.06
5707.04
5705.02
5705.16
5705.26
5705.33
5705.39
5705.43
5705.46
5705.47
5705.14
5705.23
5705.31
5705.36
5705.4
5705.42
5705.44
5705.45
5705.08
5705.17
5705.24
5705.3
5705.34
5705.36
5705.38
5705.39
5704.82
5704.86
5704.9
5704.92
5704.94
5704.96
5704.97
5704.97
5704.99
5705.05
5705.09
5705.12
5705.14
5705.16
5705.17
5705.17
5705.12
5705.2
5705.26
5705.31
5705.34
5705.37
5705.39
5705.4
5706.53
5706.55
5706.55
5706.55
5706.54
5706.54
5706.54
5706.54
5705.3
5705.38
5705.43
5705.48
5705.52
5705.54
5705.56
5705.57
5705.38
5705.44
5705.48
5705.51
5705.53
5705.55
5705.56
5705.56
5705.4
5705.44
5705.48
5705.51
5705.53
5705.54
5705.55
5705.55
5705.21
5705.21
5705.21
5705.22
5705.22
5705.22
5705.23
5705.23
5705.33
5705.34
5705.35
5705.36
5705.37
5705.37
5705.37
5705.37
5705.48
5705.5
5705.51
5705.53
5705.54
5705.55
5705.56
5705.56
5706.22
5706.23
5706.24
5706.24
5706.25
5706.25
5706.25
5706.25
5705.63
5705.65
5705.67
5705.68
5705.7
5705.71
5705.71
5705.71
5705.69
5705.7
5705.71
5705.72
5705.72
5705.72
5705.73
5705.73
5705.74
5705.74
5705.74
5705.75
5705.75
5705.75
5705.75
5705.75
5705.51
5705.49
5705.48
5705.48
5705.47
5705.47
5705.47