/*--------------------------------*- C++ -*----------------------------------*\
| =========                 |                                                 |
| \\      /  F ield         | OpenFOAM: The Open Source CFD Toolbox           |
|  \\    /   O peration     | Version:  plus.master.MPPICInterFoam            |
|   \\  /    A nd           | Web:      www.OpenFOAM.com                      |
|    \\/     M anipulation  |                                                 |
\*---------------------------------------------------------------------------*/
FoamFile
{
    version     2.0;
    format      ascii;
    class       volScalarField;
    location    "3";
    object      epsilon;
}
// * * * * * * * * * * * * * * * * * * * * * * * * * * * * * * * * * * * * * //

dimensions      [0 2 -3 0 0 0 0];

internalField   nonuniform List<scalar> 
11822
(
0.372277
0.526816
0.639548
0.548211
0.411559
0.294254
0.208198
0.546987
0.735752
0.933607
0.790639
0.592491
0.3892
0.255557
0.701624
0.883332
0.811026
1.09265
0.774778
0.45976
0.285326
0.654309
0.954095
0.978967
1.06996
0.703133
0.433512
0.276364
0.47935
0.675244
0.78597
0.708442
0.510915
0.34987
0.239351
0.33389
0.44276
0.511854
0.454412
0.356777
0.265438
0.195782
0.234006
0.28565
0.315185
0.294359
0.248126
0.198917
0.15677
0.32235
0.444518
0.547714
0.464592
0.357105
0.263871
0.193992
0.460273
0.616776
0.78697
0.667175
0.503727
0.34136
0.234042
0.608403
0.87579
0.828304
0.986187
0.65467
0.403306
0.260794
0.571433
0.886049
0.93382
0.940664
0.608803
0.387417
0.255628
0.424601
0.590226
0.712554
0.618233
0.455334
0.319375
0.225506
0.303303
0.39711
0.458456
0.40971
0.326584
0.248772
0.188603
0.218476
0.26684
0.291058
0.273346
0.234017
0.191633
0.154371
0.272774
0.3588
0.421386
0.378061
0.305211
0.235857
0.181543
0.373516
0.514722
0.607605
0.553298
0.414956
0.295416
0.213738
0.484257
0.679475
0.713692
0.698159
0.530718
0.342808
0.235625
0.470064
0.620084
0.76014
0.652136
0.504862
0.334525
0.233357
0.358828
0.49902
0.591593
0.516496
0.390388
0.285479
0.21085
0.267283
0.340233
0.386584
0.353851
0.291678
0.230702
0.181103
0.200864
0.239188
0.260196
0.248411
0.218191
0.183836
0.151851
0.237741
0.300088
0.341274
0.317635
0.268381
0.216812
0.173568
0.309055
0.424326
0.512803
0.446853
0.347261
0.262581
0.200026
0.377473
0.463828
0.552038
0.508121
0.419247
0.296839
0.217804
0.364706
0.456032
0.559211
0.504568
0.407361
0.293769
0.217338
0.302251
0.40213
0.484061
0.423343
0.336759
0.259904
0.200386
0.238853
0.293036
0.329
0.308872
0.264735
0.217377
0.175827
0.186891
0.218901
0.23642
0.229432
0.206511
0.178131
0.150177
0.220215
0.268863
0.301961
0.287246
0.250237
0.207939
0.17012
0.273027
0.355538
0.433225
0.382094
0.312283
0.246831
0.194013
0.315052
0.398991
0.443957
0.449091
0.3637
0.275106
0.209855
0.311964
0.411437
0.441902
0.448989
0.360489
0.274757
0.210243
0.272583
0.345846
0.410978
0.372704
0.310183
0.247855
0.195719
0.224466
0.269
0.298352
0.286125
0.251678
0.211114
0.173436
0.181205
0.208873
0.224323
0.220121
0.200828
0.175549
0.149623
0.216255
0.260583
0.290491
0.279293
0.246039
0.205921
0.16895
0.263984
0.335569
0.400748
0.363718
0.303709
0.243955
0.193133
0.301501
0.386404
0.408166
0.41967
0.352711
0.271767
0.209133
0.301128
0.387976
0.409481
0.422713
0.352173
0.272503
0.209801
0.266426
0.332519
0.388591
0.362035
0.305549
0.246581
0.195192
0.222262
0.264101
0.292174
0.282497
0.24995
0.210117
0.172491
0.18014
0.206232
0.222518
0.218626
0.199609
0.174577
0.147955
0.156441
0.126229
0.103865
0.087319
0.0753943
0.0681062
0.0688608
0.114125
0.180115
0.137775
0.109244
0.0892234
0.0750321
0.0659386
0.064532
0.102387
0.194661
0.144659
0.112211
0.0899654
0.0742929
0.0639833
0.0611438
0.0943972
0.190729
0.142202
0.110423
0.0883883
0.0726476
0.0620712
0.0587134
0.0899169
0.171864
0.131704
0.104324
0.0846699
0.0702558
0.0604482
0.0575679
0.089123
0.147754
0.117744
0.0961633
0.0799721
0.0677868
0.0595625
0.058084
0.0925998
0.124822
0.104348
0.0883335
0.0756999
0.0660344
0.0598342
0.060484
0.100574
0.15012
0.12374
0.103561
0.0881629
0.0768063
0.0697939
0.0707492
0.116584
0.170935
0.13423
0.108577
0.0898976
0.0762531
0.0673271
0.0659841
0.104238
0.18439
0.140892
0.111549
0.0906026
0.0753188
0.0649775
0.0619914
0.0952527
0.182233
0.139418
0.110251
0.0891766
0.0735612
0.0627397
0.0590334
0.0898802
0.166654
0.130527
0.104886
0.0857289
0.0711797
0.0609476
0.0575616
0.0885074
0.145675
0.11804
0.0973897
0.0813318
0.0688355
0.0600939
0.0580545
0.0919243
0.124961
0.10568
0.0900672
0.0773413
0.0673029
0.0606154
0.0608005
0.100531
0.145335
0.122276
0.103947
0.0894816
0.07856
0.0717535
0.0729286
0.119697
0.162763
0.13149
0.10842
0.0908524
0.0775827
0.0686924
0.0673447
0.106064
0.174461
0.137545
0.111104
0.0912493
0.0761789
0.0656585
0.062395
0.095479
0.173631
0.136721
0.110024
0.0897297
0.0740769
0.0628432
0.0586072
0.0886971
0.161296
0.12924
0.105202
0.0863901
0.0715276
0.0606638
0.0565242
0.0862309
0.1434
0.118119
0.0982982
0.0822048
0.0691824
0.059662
0.0567352
0.0891333
0.124932
0.106782
0.0914396
0.0784361
0.0677868
0.0603274
0.0596983
0.0981858
0.141963
0.121466
0.104674
0.0909398
0.0803196
0.0736291
0.0750251
0.123419
0.157575
0.130012
0.108729
0.0918609
0.0787093
0.0696574
0.0681338
0.107527
0.167853
0.135512
0.110975
0.0917124
0.0765687
0.0656393
0.0618617
0.0947005
0.167754
0.13492
0.10977
0.0898057
0.0738508
0.0619787
0.056938
0.0859775
0.157586
0.128252
0.105138
0.0863013
0.0708751
0.0591284
0.0538845
0.0817682
0.141887
0.11805
0.0985654
0.08212
0.0682974
0.0576783
0.0533955
0.0834145
0.124985
0.107433
0.0920037
0.0784226
0.0668479
0.0582285
0.056228
0.0924138
0.141575
0.122039
0.105951
0.0925969
0.0821714
0.0756774
0.0776829
0.129334
0.155735
0.129976
0.109546
0.0929755
0.0798031
0.0706313
0.0692724
0.110867
0.165229
0.134978
0.111265
0.0921771
0.0768502
0.0656027
0.0617074
0.095863
0.165351
0.134272
0.109712
0.0897504
0.0734744
0.0611523
0.0558065
0.0854946
0.156035
0.127803
0.10495
0.0859189
0.070025
0.0576829
0.0519219
0.079774
0.141261
0.117918
0.0984068
0.0815827
0.0671386
0.055758
0.0507143
0.0800334
0.125051
0.107598
0.091923
0.0778129
0.0655017
0.0560299
0.0531709
0.0883896
0.141207
0.121419
0.105635
0.0923853
0.0821282
0.0764388
0.0823405
0.168743
0.155699
0.130088
0.109669
0.0929917
0.0797446
0.0709809
0.0726424
0.145335
0.165245
0.135129
0.111329
0.0920459
0.0765634
0.0656059
0.0643044
0.126301
0.16527
0.134164
0.10943
0.0892351
0.0728153
0.0608092
0.0578799
0.11297
0.155656
0.127217
0.104129
0.0848566
0.0688697
0.0569322
0.0535693
0.105326
0.140376
0.116815
0.0969931
0.0799138
0.065431
0.0545666
0.052035
0.104836
0.123709
0.105964
0.0899335
0.0755666
0.0632898
0.0544887
0.0544991
0.114498
0.177772
0.140887
0.114933
0.0957097
0.0819804
0.0740185
0.0763577
0.136049
0.238512
0.175387
0.134172
0.106458
0.087866
0.0770096
0.0773321
0.133723
0.320567
0.222739
0.159849
0.120335
0.0954521
0.0812573
0.0797983
0.134926
0.409146
0.269024
0.184324
0.133127
0.102326
0.0852145
0.0826303
0.139583
0.42996
0.278619
0.189343
0.13601
0.104139
0.0866379
0.0844471
0.145288
0.349077
0.238578
0.169655
0.126482
0.0999451
0.0853465
0.0853873
0.1521
0.257662
0.191337
0.144731
0.114204
0.0949345
0.0845192
0.0880447
0.16446
0.168848
0.136643
0.11268
0.0946964
0.0817896
0.0743242
0.0767989
0.135198
0.221464
0.166481
0.130174
0.105044
0.0879054
0.0778249
0.0784536
0.134061
0.289181
0.206505
0.152324
0.117638
0.095263
0.0823185
0.0814065
0.13615
0.361257
0.244001
0.172491
0.128469
0.101306
0.0859633
0.0841487
0.140717
0.37465
0.250238
0.175826
0.130335
0.102436
0.0868685
0.0855174
0.146093
0.30575
0.216578
0.158839
0.121829
0.0983484
0.0852293
0.0859011
0.152648
0.232409
0.177361
0.137764
0.11127
0.0937135
0.0840682
0.0878266
0.164232
0.159834
0.132022
0.110535
0.0941101
0.082209
0.0753816
0.0782272
0.136263
0.200473
0.157045
0.126086
0.103884
0.088378
0.0792095
0.0803092
0.135349
0.253106
0.18788
0.144284
0.114966
0.0953513
0.0838188
0.0835796
0.137568
0.304065
0.215276
0.159438
0.123563
0.100423
0.0870547
0.086121
0.141654
0.310872
0.218517
0.161096
0.124335
0.10077
0.0873189
0.0868789
0.14632
0.259824
0.19261
0.147113
0.116781
0.096589
0.0850748
0.086393
0.151958
0.205261
0.162651
0.130338
0.107732
0.09195
0.0832009
0.0871418
0.161384
0.15279
0.128748
0.109481
0.0944509
0.0834484
0.07722
0.0805231
0.139017
0.186901
0.150559
0.12363
0.103762
0.089678
0.0813482
0.0830129
0.13819
0.224893
0.17462
0.138979
0.113726
0.0963642
0.0860839
0.086607
0.140554
0.257242
0.193445
0.150223
0.120588
0.100646
0.0889587
0.0889499
0.144142
0.260267
0.194542
0.150469
0.120401
0.100214
0.0885188
0.0889789
0.147752
0.226041
0.174875
0.13875
0.113255
0.0955636
0.0854108
0.0873857
0.151916
0.185036
0.150674
0.124512
0.104652
0.0903935
0.0825226
0.0867704
0.159029
0.149761
0.127495
0.109476
0.0953228
0.0849406
0.0791973
0.0830397
0.143112
0.179689
0.147476
0.122952
0.104635
0.0913072
0.083583
0.0858547
0.142517
0.211055
0.168543
0.136947
0.114206
0.0980071
0.0885214
0.0897561
0.145186
0.234188
0.183219
0.146306
0.120115
0.101884
0.0912222
0.0919968
0.148411
0.234026
0.182658
0.145548
0.118995
0.100751
0.0901553
0.091373
0.150887
0.208571
0.166137
0.13483
0.111737
0.0954456
0.086143
0.0887029
0.153309
0.175341
0.14513
0.121316
0.102848
0.0894914
0.0822546
0.0869083
0.158477
0.149394
0.127205
0.109368
0.0954853
0.0853183
0.0799258
0.0857363
0.170018
0.178787
0.147197
0.122992
0.104825
0.0918509
0.0845685
0.0887652
0.171359
0.208702
0.167737
0.136997
0.114412
0.0987327
0.0897803
0.0929387
0.176091
0.229482
0.181433
0.145979
0.120333
0.102698
0.0925975
0.095246
0.17937
0.228172
0.180355
0.144869
0.119241
0.101399
0.0912383
0.0940275
0.178624
0.20475
0.165021
0.134239
0.111383
0.0955501
0.0866046
0.0904259
0.1764
0.173114
0.144124
0.120377
0.102083
0.0890044
0.0820556
0.0878669
0.178368
0.254665
0.189268
0.144551
0.114775
0.0958116
0.0853419
0.0884887
0.163358
0.331452
0.229585
0.165636
0.126228
0.101746
0.087571
0.0870227
0.151207
0.383168
0.255214
0.179638
0.133429
0.10503
0.0884777
0.0854263
0.140522
0.349734
0.239231
0.171269
0.12879
0.101881
0.0858702
0.082124
0.130478
0.279721
0.200487
0.149513
0.116176
0.0942059
0.0807992
0.0779378
0.122764
0.212688
0.16082
0.125863
0.101796
0.0852574
0.0750594
0.0739781
0.118563
0.160837
0.129253
0.106253
0.0893938
0.0773645
0.0701252
0.0711532
0.117879
0.230536
0.176293
0.137536
0.111638
0.0942145
0.0844283
0.0877537
0.16249
0.291684
0.208297
0.155087
0.121216
0.0991243
0.0861446
0.0860317
0.149345
0.334675
0.229742
0.166892
0.127367
0.102144
0.0872353
0.0848118
0.138431
0.306497
0.216734
0.160168
0.123704
0.0999084
0.0854856
0.0823843
0.129491
0.250837
0.185707
0.142519
0.113386
0.0936456
0.0813921
0.0790579
0.123369
0.196826
0.15312
0.122688
0.101104
0.0858953
0.0764024
0.0757132
0.120502
0.153583
0.126195
0.105591
0.0900559
0.0787367
0.0718838
0.073193
0.120574
0.203864
0.161727
0.130238
0.108007
0.0922177
0.0832455
0.0867422
0.159758
0.249509
0.186564
0.144981
0.116282
0.0966552
0.0849723
0.0853401
0.14712
0.279576
0.202855
0.153887
0.12145
0.0997235
0.0865816
0.0849315
0.137379
0.263237
0.195022
0.149898
0.119363
0.0986316
0.0858032
0.0835062
0.130085
0.223662
0.172286
0.136585
0.111428
0.0937844
0.082657
0.0809543
0.125324
0.182537
0.146574
0.120405
0.101117
0.0871352
0.0783226
0.078108
0.123616
0.147622
0.124095
0.105645
0.0912783
0.0805882
0.074107
0.0757981
0.124378
0.185116
0.150965
0.125157
0.10505
0.0905019
0.082272
0.08602
0.15747
0.220255
0.171805
0.137524
0.112574
0.0949332
0.0843743
0.0852828
0.146053
0.242727
0.184918
0.145407
0.11773
0.0985128
0.0867589
0.0858839
0.137957
0.233546
0.18057
0.1434
0.116985
0.0984474
0.0868571
0.0853105
0.13217
0.205415
0.163694
0.133275
0.110838
0.0946855
0.0844329
0.083358
0.128654
0.173292
0.142716
0.119551
0.101886
0.0888122
0.080561
0.0808738
0.128004
0.144064
0.123251
0.106368
0.0928694
0.082657
0.0764907
0.0786295
0.129345
0.175835
0.146279
0.122001
0.103054
0.0893011
0.0816373
0.0857377
0.156709
0.205423
0.164413
0.133509
0.110457
0.0939673
0.0841709
0.0856246
0.146519
0.224759
0.176343
0.141357
0.116003
0.0981315
0.0872576
0.0871009
0.140257
0.219248
0.17379
0.140417
0.116105
0.0987907
0.0880158
0.087232
0.135958
0.196881
0.15985
0.131849
0.11093
0.0957289
0.0861346
0.0858077
0.133564
0.169216
0.141289
0.119659
0.102931
0.0904713
0.0827305
0.0838265
0.134086
0.142921
0.123522
0.107514
0.0945728
0.0847487
0.078994
0.0819914
0.136491
0.173524
0.144294
0.120483
0.101986
0.0886166
0.0813116
0.086685
0.176417
0.201827
0.162167
0.132006
0.109505
0.0934644
0.0840868
0.0870026
0.168602
0.220264
0.174055
0.139964
0.115211
0.0978021
0.0874037
0.089113
0.16702
0.215857
0.172011
0.139417
0.115484
0.0985682
0.0882737
0.0897548
0.166589
0.194869
0.158549
0.131116
0.110482
0.095559
0.0864615
0.0888357
0.167349
0.167978
0.14044
0.119138
0.10263
0.0903703
0.0832525
0.0876439
0.171111
0.142213
0.122744
0.107129
0.0944088
0.0848289
0.0799565
0.0870338
0.177335
0.125219
0.104812
0.0889421
0.0765095
0.0670821
0.0611457
0.0621353
0.103263
0.151139
0.120936
0.0993965
0.0834838
0.0717589
0.064161
0.0637141
0.102476
0.179551
0.138306
0.110356
0.0906486
0.0766015
0.0675232
0.0660744
0.104069
0.204732
0.153085
0.11946
0.0965165
0.0805905
0.0704555
0.068581
0.107725
0.215518
0.159249
0.123755
0.0996057
0.0829056
0.0724219
0.0708279
0.113359
0.201877
0.153475
0.121683
0.0991765
0.083247
0.0733633
0.0729206
0.121682
0.175073
0.140036
0.114902
0.0959075
0.0821204
0.0739274
0.0758158
0.134106
0.125351
0.106194
0.0907908
0.0783447
0.0686306
0.0622964
0.0629212
0.10387
0.149022
0.12139
0.101017
0.0854691
0.0736689
0.0657932
0.0650449
0.103614
0.174077
0.137117
0.111257
0.0924281
0.0786163
0.0694631
0.0678373
0.105595
0.195628
0.149927
0.11925
0.0977034
0.0823674
0.0724194
0.0705506
0.109453
0.204392
0.155055
0.122508
0.0999286
0.084069
0.0740131
0.0725965
0.114748
0.192169
0.149142
0.119667
0.0985773
0.0835542
0.074221
0.074018
0.121985
0.167011
0.136197
0.112719
0.0948646
0.0818639
0.0741548
0.0761549
0.133016
0.125324
0.107407
0.092358
0.0797187
0.0694806
0.0624692
0.0624044
0.10246
0.146712
0.121835
0.102542
0.0871957
0.0751059
0.0667032
0.0653835
0.103228
0.16805
0.135769
0.112085
0.094072
0.0803671
0.0709792
0.0690117
0.106191
0.185237
0.146392
0.118978
0.0988805
0.0840978
0.0742732
0.072351
0.110868
0.190648
0.149631
0.121046
0.100365
0.0854366
0.0758396
0.0746429
0.11652
0.179285
0.143415
0.117473
0.0982669
0.084334
0.0756534
0.0758325
0.123482
0.158313
0.131668
0.110605
0.0942501
0.082228
0.0751433
0.0774733
0.133676
0.125516
0.108246
0.0931895
0.0800308
0.068924
0.0608246
0.0595092
0.0976786
0.144922
0.122181
0.103545
0.088088
0.0753888
0.0660983
0.0637691
0.100436
0.163812
0.135175
0.112896
0.0952501
0.0813277
0.0714202
0.0688431
0.105502
0.17773
0.144063
0.119038
0.0999314
0.0854336
0.0755422
0.0734399
0.11193
0.180863
0.145964
0.120333
0.10109
0.0868645
0.0776073
0.0766093
0.118805
0.170297
0.139565
0.116349
0.0986632
0.0856357
0.0775379
0.0781552
0.126239
0.151842
0.128529
0.10954
0.0945049
0.0833646
0.0768916
0.0796974
0.136346
0.125487
0.108455
0.0932665
0.0795928
0.0677189
0.0587133
0.0564628
0.0933977
0.144775
0.12238
0.104012
0.088238
0.0748741
0.064768
0.0617107
0.0982012
0.161783
0.135107
0.11342
0.0957661
0.0814472
0.0709833
0.0680086
0.105352
0.174176
0.143144
0.119297
0.100613
0.0861077
0.0760259
0.0738911
0.113657
0.176222
0.144393
0.120294
0.101821
0.0879643
0.0788832
0.0781673
0.121939
0.166145
0.137945
0.116291
0.0994174
0.0869739
0.0792996
0.0803761
0.12989
0.148979
0.127315
0.109519
0.0952913
0.084771
0.0787852
0.0821235
0.140266
0.124121
0.106807
0.0913194
0.0773579
0.0654409
0.0570347
0.0577348
0.120967
0.143956
0.121076
0.102571
0.0865327
0.072915
0.0630169
0.0623828
0.125594
0.160897
0.133627
0.112216
0.0946462
0.0801124
0.0697202
0.0690593
0.13476
0.173334
0.142726
0.118924
0.100238
0.0855352
0.0754982
0.0756643
0.145012
0.175318
0.144067
0.120229
0.10189
0.0880026
0.0790799
0.0806832
0.153816
0.165023
0.137352
0.115899
0.0994737
0.0872338
0.079878
0.0831912
0.159727
0.148154
0.126549
0.108825
0.0951396
0.0849554
0.0793996
0.0848825
0.167555
0.000175714
0.000102187
0.000102839
0.000107948
0.000111788
0.00011341
0.000112448
0.000108695
0.000174883
0.000102057
0.000102717
0.000107794
0.000111576
0.000113124
0.000112094
0.000108312
0.000174146
0.00010194
0.00010261
0.000107659
0.000111392
0.000112877
0.000111793
0.000107989
0.000173592
0.00010185
0.00010253
0.000107565
0.00011127
0.00011272
0.000111604
0.000107789
0.000173275
0.000101797
0.000102488
0.000107526
0.000111231
0.000112679
0.000111563
0.000107753
0.000173182
0.000101777
0.000102478
0.000107529
0.000111251
0.00011272
0.000111624
0.000107826
0.000173248
0.000101782
0.00010249
0.000107557
0.000111303
0.000112799
0.000111728
0.000107942
0.000199656
0.000116832
0.000118566
0.000125349
0.000131666
0.000136385
0.000137772
0.000133659
0.00019859
0.000116636
0.00011834
0.000124986
0.000131059
0.00013544
0.000136478
0.000132172
0.000197648
0.000116463
0.000118138
0.000124668
0.000130536
0.000134642
0.000135405
0.000130953
0.000196932
0.000116321
0.000117985
0.000124449
0.000130199
0.000134144
0.000134748
0.000130215
0.000196524
0.000116232
0.000117905
0.000124367
0.000130106
0.000134034
0.000134628
0.000130105
0.000196408
0.000116185
0.000117883
0.000124385
0.000130186
0.000134196
0.000134874
0.000130408
0.000196494
0.000116177
0.000117902
0.000124461
0.000130351
0.00013448
0.000135287
0.000130903
0.000233489
0.000142324
0.000148027
0.000161281
0.000178805
0.000199277
0.000215491
0.000215851
0.000232033
0.000142083
0.000147652
0.000160432
0.000177054
0.000196126
0.000210767
0.000210193
0.000230716
0.000141871
0.000147314
0.000159694
0.000175577
0.000193569
0.000207028
0.000205734
0.000229649
0.000141661
0.000147046
0.0001592
0.000174655
0.000192028
0.000204816
0.000203116
0.000228944
0.000141487
0.000146896
0.000159034
0.000174436
0.000191736
0.000204471
0.00020279
0.000228666
0.000141345
0.000146837
0.000159114
0.000174732
0.000192339
0.000205424
0.000204
0.000228682
0.000141255
0.000146848
0.000159313
0.000175252
0.000193331
0.000206977
0.000205947
0.000364431
0.000203008
0.000204851
0.000232389
0.000287986
0.000368147
0.000442724
0.000466237
0.000364492
0.000203101
0.000204081
0.000230129
0.000282472
0.000356676
0.000424897
0.000445597
0.000364329
0.000203387
0.000203712
0.000228381
0.000278203
0.000348398
0.000412315
0.000430594
0.000363715
0.000203458
0.000203446
0.0002273
0.000275721
0.000343805
0.000405388
0.000422195
0.00036285
0.000203287
0.000203272
0.000226985
0.000275218
0.000343049
0.000404404
0.000421231
0.000361988
0.000202913
0.000203171
0.000227277
0.000276248
0.000345201
0.000407773
0.000425439
0.000361361
0.000202577
0.000203201
0.000227837
0.000277871
0.00034863
0.000413333
0.000432396
0.000485188
0.000409439
0.000383468
0.000417415
0.000568879
0.000819568
0.00104272
0.0011126
0.000463702
0.000327426
0.000329409
0.000389853
0.00053338
0.000755101
0.000958829
0.00103454
0.000454211
0.000295688
0.000310783
0.000377118
0.000512052
0.000718128
0.000910808
0.000986332
0.000451113
0.000286058
0.000304319
0.000371297
0.000502044
0.000701442
0.000888492
0.000962105
0.000449117
0.000282623
0.000301956
0.000369614
0.000500402
0.000699095
0.000885208
0.000958866
0.000448764
0.000285816
0.000303394
0.000371441
0.000505759
0.000708884
0.00089749
0.000971586
0.000452264
0.000298705
0.000308857
0.000374754
0.000512654
0.00072291
0.00091759
0.000993541
0.0214452
0.0138395
0.00684645
0.00303644
0.0024007
0.00261948
0.00275475
0.00261166
0.0137872
0.00791458
0.00349222
0.00186339
0.00173214
0.00199047
0.00221349
0.0022484
0.00868904
0.00488378
0.00220247
0.00139302
0.0013905
0.00167098
0.00194811
0.00206406
0.00673628
0.00380824
0.00178291
0.00120893
0.00125259
0.001548
0.00184615
0.00198724
0.00631627
0.00354314
0.001671
0.00117047
0.00123707
0.00153713
0.00183414
0.0019758
0.00756892
0.00407182
0.001833
0.00125038
0.00132261
0.00162395
0.00190236
0.00202057
0.0112489
0.00555234
0.00227406
0.00137045
0.0014125
0.00171991
0.00199405
0.00209315
0.000177449
0.000102718
0.00010342
0.000108593
0.0001125
0.000114207
0.000113328
0.000109606
0.000178236
0.000102842
0.000103519
0.000108695
0.000112619
0.000114352
0.000113496
0.000109781
0.000178954
0.000102939
0.000103586
0.000108764
0.000112709
0.000114477
0.000113656
0.000109955
0.000179495
0.000103024
0.000103651
0.000108832
0.000112795
0.000114594
0.000113803
0.000110118
0.000179795
0.000103117
0.000103746
0.000108932
0.000112909
0.000114734
0.000113974
0.000110307
0.00017983
0.000103213
0.000103867
0.000109058
0.000113034
0.000114863
0.000114115
0.000110459
0.000179624
0.000103277
0.000103958
0.000109141
0.000113091
0.000114891
0.000114123
0.000110461
0.000202017
0.000117921
0.000119843
0.000126843
0.000133487
0.000138733
0.000140772
0.000137057
0.000203117
0.000118135
0.000120018
0.000127054
0.000133788
0.00013916
0.000141312
0.000137647
0.000204201
0.000118281
0.000120102
0.000127178
0.000134032
0.000139599
0.000141952
0.000138368
0.000205033
0.000118421
0.000120196
0.000127305
0.000134258
0.000139981
0.000142502
0.000139014
0.000205561
0.000118631
0.0001204
0.000127531
0.00013456
0.00014043
0.000143131
0.000139766
0.000205692
0.000118906
0.000120731
0.000127856
0.000134884
0.000140798
0.00014361
0.000140362
0.000205449
0.000119161
0.000121032
0.000128095
0.000135003
0.000140781
0.000143515
0.000140289
0.00023625
0.000144408
0.000150707
0.000164698
0.000183608
0.000206825
0.000226886
0.000229587
0.000238206
0.000144798
0.000150976
0.000165132
0.000184369
0.000208026
0.000228478
0.000231398
0.000240344
0.000145002
0.000151011
0.000165379
0.000185162
0.000209847
0.000231428
0.000234713
0.000241976
0.000145288
0.000151194
0.000165659
0.000185815
0.000211144
0.000233475
0.000237259
0.000243141
0.000145913
0.000151783
0.000166272
0.000186732
0.000212744
0.000235934
0.000240345
0.000243616
0.000146823
0.00015269
0.000167088
0.000187553
0.000213801
0.000237658
0.000242826
0.000243501
0.000147849
0.000153608
0.000167647
0.000187603
0.000213178
0.000236669
0.00024216
0.000373106
0.000207667
0.000209534
0.000239204
0.000300071
0.000395074
0.000491386
0.000524609
0.000374938
0.000207819
0.000209801
0.000240273
0.000302143
0.00039837
0.000495411
0.000529148
0.000375814
0.000207064
0.000209999
0.000241521
0.000305823
0.000407836
0.000511178
0.000545664
0.00037695
0.000207683
0.000213119
0.000243944
0.000308725
0.000412403
0.000518218
0.000554994
0.000380236
0.000209449
0.000217541
0.000248515
0.00031366
0.000419516
0.000528305
0.000567587
0.000384937
0.000211565
0.000217975
0.000250402
0.000315963
0.000422312
0.000534373
0.000578066
0.00038982
0.000214908
0.000217158
0.000248917
0.000313481
0.000416184
0.000526708
0.000573711
0.000459957
0.000290903
0.00031667
0.000393999
0.000569629
0.000916101
0.0012608
0.00135788
0.000469826
0.000331785
0.000338508
0.000408341
0.000585389
0.000936976
0.00127849
0.0013703
0.000483949
0.000407692
0.000423193
0.000442871
0.000614914
0.000998198
0.00137072
0.00145667
0.000506399
0.000609515
0.000653498
0.000536523
0.000653971
0.00102255
0.00139402
0.00148799
0.000514203
0.000605018
0.000793083
0.000652599
0.000718078
0.0010663
0.00143657
0.00153843
0.000514064
0.000441798
0.000673565
0.000648449
0.000729391
0.0010682
0.00145095
0.00157714
0.000519579
0.000351892
0.00046556
0.000540486
0.000676469
0.00100674
0.00139059
0.00154621
0.00266791
0.00344194
0.00221812
0.00124463
0.00153308
0.00275218
0.00358851
0.00352127
0.00486319
0.00916063
0.00561646
0.00217268
0.00197833
0.00311358
0.00381464
0.00361827
0.00783418
0.0157988
0.00978067
0.00353121
0.00238989
0.00352325
0.00429378
0.0040339
0.0125797
0.0239616
0.017045
0.00683732
0.00335544
0.0038563
0.00443663
0.0041492
0.00921937
0.0201197
0.0171401
0.00872268
0.00436039
0.00416577
0.0045962
0.00433452
0.0055781
0.0134075
0.0138302
0.00811952
0.00441175
0.00410624
0.00457738
0.00443754
0.00291544
0.00615334
0.00841783
0.00554048
0.00344095
0.00350637
0.00414385
0.00421891
0.000179441
0.000103241
0.000103924
0.0001091
0.000113039
0.000114823
0.000114039
0.000110369
0.000179325
0.000103098
0.00010375
0.000108922
0.000112869
0.000114659
0.000113874
0.000110194
0.000179052
0.000102924
0.000103545
0.000108705
0.000112641
0.000114412
0.000113598
0.000109902
0.000178622
0.000102758
0.000103363
0.00010851
0.00011243
0.000114172
0.000113323
0.00010961
0.000178016
0.00010261
0.000103218
0.000108357
0.000112261
0.000113976
0.000113099
0.000109374
0.000177305
0.000102468
0.00010309
0.000108224
0.000112115
0.000113807
0.000112908
0.000109176
0.000176531
0.000102323
0.00010296
0.00010809
0.000111968
0.00011364
0.000112723
0.000108987
0.000205182
0.000119112
0.000120976
0.000128013
0.000134867
0.000140568
0.000143218
0.000139933
0.000204971
0.000118713
0.000120518
0.000127569
0.000134467
0.000140209
0.000142835
0.000139419
0.000204512
0.000118265
0.000120005
0.000127033
0.000133876
0.000139467
0.000141844
0.000138256
0.000203823
0.00011789
0.000119594
0.000126583
0.000133333
0.000138728
0.000140843
0.000137096
0.000202866
0.000117603
0.00011931
0.000126254
0.0001329
0.000138113
0.000140018
0.000136163
0.000201804
0.000117341
0.000119066
0.000125973
0.000132533
0.000137604
0.000139353
0.000135418
0.000200744
0.000117064
0.000118802
0.000125677
0.000132164
0.000137127
0.000138762
0.000134772
0.000243127
0.000147831
0.000153539
0.000167457
0.000187201
0.000212469
0.000235575
0.000240761
0.000242662
0.000146624
0.000152349
0.000166458
0.000186482
0.000212218
0.000235448
0.000239716
0.000241831
0.000145466
0.000151143
0.000165206
0.000184933
0.000209731
0.000231306
0.000234487
0.000240619
0.000144583
0.000150152
0.000164099
0.000183393
0.000207062
0.000227035
0.000229345
0.00023883
0.000143913
0.000149498
0.0001633
0.000182107
0.000204772
0.000223523
0.000225269
0.000236867
0.000143346
0.00014902
0.000162686
0.00018111
0.000203063
0.000220964
0.000222268
0.000235162
0.000142744
0.000148478
0.000162047
0.000180228
0.000201776
0.00021917
0.000220123
0.000389379
0.000214904
0.00021655
0.000247767
0.000311721
0.000413547
0.000522759
0.000568524
0.000383372
0.000211231
0.000216381
0.000248151
0.000313075
0.000419523
0.000531281
0.000570964
0.000377688
0.000210345
0.000217834
0.000247131
0.000309542
0.000410347
0.000511736
0.00054552
0.000373543
0.000209008
0.000213778
0.000242389
0.000303531
0.000398127
0.000490406
0.000520776
0.000370469
0.00020581
0.000208819
0.000237951
0.000297661
0.00038699
0.000472913
0.000501642
0.000367791
0.000204322
0.000207064
0.000235916
0.00029429
0.000380322
0.000462081
0.000489094
0.000365447
0.000203775
0.000206508
0.000234964
0.000293026
0.00037825
0.000457985
0.000482891
0.000517786
0.000340482
0.000433042
0.000511612
0.000656633
0.000991553
0.00137569
0.00152915
0.000506322
0.000404443
0.000593483
0.000602301
0.000709146
0.00106892
0.00146611
0.0015784
0.000507999
0.000655392
0.000799965
0.000662552
0.00072087
0.00104457
0.00138187
0.00146239
0.00051513
0.000728355
0.000706136
0.00057714
0.000671481
0.000974746
0.00126982
0.00134335
0.00050066
0.000567558
0.000515851
0.0004776
0.000612353
0.000900091
0.0011714
0.00125008
0.000493584
0.000478586
0.000453464
0.000451464
0.000594807
0.000869008
0.00112153
0.00119665
0.000514284
0.000513935
0.000474782
0.000466991
0.0006135
0.000888136
0.00112755
0.00118586
0.00258486
0.00518136
0.00736752
0.00486268
0.00310754
0.00334785
0.00406144
0.00416573
0.00464337
0.0108671
0.0115748
0.00699108
0.00403995
0.00405553
0.0046691
0.00452995
0.00968061
0.0181133
0.0152227
0.00822499
0.00442199
0.00412477
0.00442671
0.00411835
0.0177667
0.0194578
0.0136999
0.00657118
0.00368853
0.0036471
0.00388592
0.0036029
0.0194191
0.0170862
0.0101808
0.00437966
0.00278793
0.00304934
0.00333965
0.00316357
0.0198451
0.0161983
0.00930325
0.00401212
0.0027089
0.00292689
0.00313492
0.00294989
0.0266
0.0191341
0.0110012
0.00492088
0.00329979
0.00334304
0.00335626
0.0030055
0.000173417
0.000101812
0.000102519
0.000107592
0.000111345
0.000112851
0.000111787
0.000108004
0.000173674
0.000101866
0.000102567
0.000107631
0.000111373
0.000112865
0.000111787
0.000107992
0.000174027
0.000101945
0.00010264
0.000107699
0.000111433
0.000112915
0.000111827
0.000108024
0.000174505
0.00010206
0.000102753
0.000107816
0.000111554
0.000113042
0.000111958
0.000108151
0.000175111
0.000102213
0.000102912
0.000107995
0.000111759
0.000113281
0.000112225
0.000108427
0.000175825
0.000102389
0.000103098
0.000108212
0.000112021
0.000113597
0.000112592
0.000108813
0.000176595
0.000102564
0.00010328
0.000108429
0.00011229
0.000113933
0.000112992
0.000109242
0.000196745
0.000116227
0.000117957
0.000124536
0.000130459
0.000134632
0.000135484
0.000131124
0.000197132
0.00011634
0.000118053
0.00012461
0.000130501
0.000134632
0.000135434
0.000131033
0.000197644
0.000116495
0.000118199
0.000124745
0.000130619
0.000134733
0.000135515
0.000131091
0.000198289
0.000116712
0.000118433
0.000125003
0.000130916
0.000135085
0.000135922
0.000131518
0.000199057
0.000117003
0.000118776
0.000125422
0.000131453
0.00013579
0.000136812
0.000132516
0.000199932
0.000117337
0.000119185
0.000125947
0.000132162
0.000136765
0.000138078
0.000133953
0.000200869
0.000117666
0.000119582
0.000126472
0.000132903
0.000137826
0.000139507
0.000135603
0.000229129
0.000141347
0.000146955
0.000159489
0.000175552
0.000193815
0.000207665
0.000206765
0.000229862
0.000141625
0.000147172
0.000159635
0.000175591
0.000193695
0.000207339
0.000206268
0.000230763
0.000141957
0.000147478
0.000159906
0.000175832
0.000193918
0.00020753
0.000206394
0.000231708
0.000142375
0.00014796
0.000160474
0.000176574
0.000194954
0.000208897
0.000207925
0.000232595
0.000142905
0.000148672
0.000161428
0.000177973
0.000197088
0.000211927
0.000211546
0.000233526
0.000143498
0.000149522
0.000162658
0.000179896
0.000200164
0.00021643
0.00021695
0.000234528
0.000144053
0.000150319
0.000163876
0.000181919
0.000203599
0.00022174
0.000223443
0.00036192
0.000202638
0.000203358
0.000228254
0.000278702
0.000350076
0.000415501
0.000435081
0.000363608
0.000203141
0.000203692
0.000228477
0.000278578
0.000349254
0.000413848
0.000432907
0.000365488