/*--------------------------------*- C++ -*----------------------------------*\
| =========                 |                                                 |
| \\      /  F ield         | OpenFOAM: The Open Source CFD Toolbox           |
|  \\    /   O peration     | Version:  plus.master.MPPICInterFoam            |
|   \\  /    A nd           | Web:      www.OpenFOAM.com                      |
|    \\/     M anipulation  |                                                 |
\*---------------------------------------------------------------------------*/
FoamFile
{
    version     2.0;
    format      ascii;
    class       volScalarField;
    location    "3";
    object      p;
}
// * * * * * * * * * * * * * * * * * * * * * * * * * * * * * * * * * * * * * //

dimensions      [1 -1 -2 0 0 0 0];

internalField   nonuniform List<scalar> 
11822
(
743.444
741.476
743.099
742.51
740.833
741.017
741.939
742.724
746.794
746.94
747.589
742.991
740.376
741.135
745.708
747.501
747.164
747.219
744.968
739.957
740.611
745.487
747.065
746.677
746.871
744.199
739.74
740.518
741.733
745.642
746.419
744.873
740.965
739.954
740.868
741.459
740.625
740.335
740.25
739.994
740.546
741.569
741.888
741.959
741.734
740.98
740.947
741.573
742.644
664.36
663.136
664.879
662.352
658.703
656.9
656.577
664.887
672.591
673.204
671.848
663.27
657.645
656.283
669.387
673.536
672.936
672.64
667.438
658.215
655.888
668.131
672.429
672.303
671.565
666.068
657.625
655.567
662.089
669.116
670.985
667.544
660.4
656.501
655.275
659.334
659.761
660.388
658.823
656.746
655.49
655.077
660.468
657.848
657.323
656.454
655.626
655.2
655.258
575.995
576.823
577.7
574.48
571.236
568.934
567.934
578.681
589.836
593.233
586.818
575.173
569.988
568.1
585.056
594.777
595.148
593.595
582.16
571.487
568.107
583.088
593.74
594.435
592.784
580.674
571.1
567.841
576.028
585.387
590.053
583.584
573.868
569.376
567.176
572.762
573.812
575.165
572.718
569.844
567.75
566.437
572.732
571.75
570.212
569.303
567.868
566.676
565.95
482.186
482.194
481.745
479.664
477.708
476.085
474.474
482.632
489.089
493.288
486.617
479.21
476.783
475.204
487.408
503.167
505.109
501.596
484.757
478.077
475.557
485.533
501.463
504.987
499.684
483.566
477.851
475.336
481.313
486.677
491.603
485.279
479.009
476.418
474.587
479.465
479.481
480.441
478.852
476.879
475.107
473.768
479.872
479.924
477.718
476.873
475.358
474.004
473.027
385.473
385.686
385.449
383.563
381.761
380.14
378.144
385.262
387.473
390.319
385.678
382.439
380.746
379.113
386.507
399.717
403.876
396.826
384.247
381.412
379.547
385.122
393.372
405.082
393.342
383.246
381.027
379.292
383.53
384.314
386.232
383.673
381.377
380.034
378.596
383.157
382.818
382.954
381.899
380.391
379.067
377.717
382.483
383.698
381.908
380.89
379.409
377.836
376.977
289.815
290.067
289.879
288.532
287.102
285.5
283.261
289.571
289.459
289.757
287.891
286.955
285.92
284.43
289.786
295.262
302.309
294.739
287.116
286.279
284.961
289.172
290.972
302.172
292.265
286.333
285.986
284.848
288.915
288.094
288.186
286.66
286.023
285.474
284.374
288.771
288.302
288.138
287.228
286.092
284.899
283.587
287.558
289.357
287.897
286.749
285.476
283.786
283.984
743.099
743.828
744.296
744.683
744.989
745.234
745.412
745.505
742.24
743.183
743.838
744.445
744.92
745.276
745.515
745.631
741.771
742.814
743.68
744.39
744.942
745.35
745.624
745.763
741.722
742.817
743.732
744.462
745.022
745.435
745.72
745.871
742.037
743.1
743.961
744.635
745.151
745.536
745.803
745.948
742.657
743.579
744.314
744.883
745.321
745.651
745.881
746.005
743.399
744.101
744.67
745.103
745.446
745.72
745.923
746.039
656.749
656.369
655.864
655.485
655.259
655.152
655.125
655.137
655.688
655.255
654.973
654.896
654.885
654.906
654.941
654.968
655.029
654.737
654.658
654.682
654.732
654.79
654.848
654.889
654.745
654.575
654.553
654.599
654.662
654.731
654.801
654.852
654.719
654.62
654.594
654.622
654.675
654.74
654.806
654.854
654.913
654.826
654.753
654.733
654.755
654.797
654.844
654.882
655.22
655.167
655.052
654.936
654.885
654.887
654.917
654.951
567.483
566.649
565.714
564.945
564.43
564.119
563.959
563.899
566.87
565.495
564.729
564.233
563.903
563.701
563.595
563.555
566.145
565.078
564.394
563.956
563.661
563.471
563.373
563.339
565.859
564.861
564.198
563.766
563.481
563.308
563.224
563.198
565.605
564.721
564.082
563.658
563.39
563.233
563.157
563.134
565.447
564.658
564.046
563.631
563.371
563.218
563.142
563.116
565.298
564.732
564.177
563.727
563.438
563.273
563.195
563.173
480.082
473.899
472.968
472.201
471.671
471.321
471.107
471.009
474.176
473.04
472.15
471.546
471.131
470.849
470.672
470.59
473.696
472.584
471.799
471.232
470.832
470.561
470.391
470.313
473.409
472.322
471.539
470.991
470.614
470.366
470.211
470.142
473.04
472.056
471.323
470.817
470.484
470.27
470.131
470.065
472.825
471.821
471.157
470.704
470.414
470.228
470.102
470.035
472.39
471.676
471.112
470.682
470.408
470.237
470.123
470.066
385.712
377.634
376.869
376.25
375.833
375.634
375.664
375.741
378.3
377.413
376.536
375.912
375.484
375.269
375.289
375.371
378.083
377.096
376.292
375.662
375.214
374.982
374.995
375.08
377.795
376.79
375.991
375.379
374.947
374.728
374.752
374.851
377.283
376.362
375.633
375.083
374.705
374.526
374.575
374.69
376.907
375.872
375.244
374.783
374.477
374.352
374.433
374.563
376.139
375.362
374.86
374.494
374.273
374.221
374.344
374.491
290.327
282.963
282.508
282.144
281.897
281.822
281.971
282.224
283.841
283.302
282.645
282.14
281.8
281.671
281.835
282.181
284.022
283.262
282.566
281.992
281.599
281.449
281.648
282.096
283.856
283.017
282.302
281.738
281.364
281.245
281.503
282.045
283.408
282.579
281.943
281.462
281.171
281.133
281.461
282.052
282.924
282.059
281.523
281.158
280.986
281.051
281.439
282.015
282.294
281.513
281.129
280.927
280.895
281.057
281.459
281.95
746.366
743.59
743.46
743.912
744.385
744.812
745.177
745.427
741.704
742.402
742.518
743.071
743.662
744.204
744.655
744.951
741.125
741.189
741.749
742.412
743.093
743.713
744.225
744.553
740.656
740.808
741.234
741.936
742.653
743.311
743.867
744.239
740.35
740.628
741.149
741.809
742.512
743.131
743.665
744.025
740.692
741.006
741.492
741.958
742.575
743.133
743.588
743.884
742.43
742.949
746.215
742.192
742.62
743.103
743.502
743.773
659.743
657.763
657.112
656.66
656.401
656.309
656.356
656.44
658.85
657.483
656.656
656.216
656.054
656.067
656.19
656.324
658.741
657.648
656.666
656.177
655.955
655.946
656.08
656.236
659.871
657.649
656.599
656.097
655.867
655.852
656.01
656.199
660.334
657.867
656.646
656.028
655.813
655.758
655.918
656.116
659.463
657.825
656.915
656.083
655.777
655.711
655.827
655.994
660.483
661.777
660.733
657.004
656.21
655.921
655.935
656.082
570.499
569.496
568.466
567.539
566.862
566.452
566.267
566.195
571.812
569.77
568.471
567.57
566.996
566.653
566.499
566.461
572.142
570.779
569.044
568.002
567.302
566.903
566.735
566.702
573.998
570.946
569.372
568.255
567.511
567.082
566.924
566.915
574.742
571.371
569.479
568.269
567.568
567.119
566.986
567.003
573.452
571.349
569.645
568.28
567.49
567.065
566.926
566.944
573.571
576.738
571.582
569.135
567.992
567.361
567.129
567.13
477.876
477.185
476.255
475.358
474.643
474.165
473.869
473.686
478.929
477.727
476.551
475.688
475.071
474.623
474.326
474.13
479.508
478.578
477.229
476.268
475.567
475.076
474.763
474.53
480.804
479.043
477.775
476.752
475.966
475.434
475.121
474.891
481.663
479.535
478.001
476.899
476.134
475.611
475.315
475.173
480.685
480.324
478.022
476.837
476.084
475.576
475.312
475.209
482.082
486.662
478.618
477.309
476.381
475.778
475.462
475.35
381.579
381.06
380.377
379.767
379.245
378.922
378.776
378.69
382.654
381.973
381.137
380.734
379.964
379.592
379.393
379.255
383.414
382.824
381.884
381.188
380.604
380.166
379.931
379.723
384.331
383.62
382.678
381.829
381.21
380.688
380.422
380.196
385.207
384.199
383.18
382.303
381.602
381.077
380.802
380.596
385.033
385.225
383.169
382.328
381.661
381.197
380.981
380.814
386.206
387.225
383.384
382.477
381.757
381.271
381.042
380.933
287.195
286.664
286.011
285.48
284.926
284.439
284.074
283.937
288.726
288.273
287.499
287.386
285.759
285.089
284.527
284.244
289.651
289.103
288.245
288.198
286.381
285.573
284.857
284.458
290.274
289.913
288.898
288.551
287.03
286.128
285.291
284.768
290.677
290.239
289.343
288.476
287.518
286.598
285.735
285.19
290.356
290.131
289.287
288.5
287.71
286.891
286.123
285.646
292.144
289.574
288.941
288.333
287.696
287.025
286.402
286.051
743.242
743.408
746.765
741.92
742.537
743.079
743.486
743.746
743.317
743.083
746.438
742.695
743.101
743.557
743.919
744.139
741.489
742.062
742.882
742.692
743.232
743.76
744.155
744.38
741.163
741.604
742.293
742.894
743.532
744.066
744.449
744.647
740.896
741.754
742.58
743.295
743.906
744.39
744.719
744.873
741.496
742.396
743.16
743.808
744.33
744.721
744.983
745.09
742.546
743.283
743.893
744.355
744.712
744.992
745.188
745.272
660.75
661.938
661.3
656.882
656.104
655.806
655.785
655.888
660.588
659.062
658.769
656.287
655.783
655.628
655.646
655.732
659.58
657.405
656.529
655.857
655.594
655.511
655.536
655.593
658.245
656.842
656.115
655.685
655.499
655.44
655.446
655.461
656.795
656.251
655.796
655.512
655.382
655.337
655.332
655.311
656.36
656.047
655.67
655.442
655.319
655.258
655.237
655.193
656.388
656.195
655.886
655.558
655.318
655.192
655.144
655.121
573.452
576.229
571.32
568.718
567.619
567.018
566.776
566.755
572.785
571.558
569.045
567.565
566.833
566.44
566.264
566.232
572.324
569.746
568.128
567.082
566.453
566.072
565.865
565.77
570.609
568.902
567.552
566.651
566.071
565.696
565.47
565.271
569.038
567.906
566.843
566.091
565.586
565.241
565.015
564.837
568.105
567.192
566.27
565.614
565.139
564.812
564.605
564.454
567.411
566.817
566.065
565.33
564.783
564.44
564.254
564.126
481.6
482.229
478.381
476.9
475.993
475.389
475.065
474.946
480.171
478.753
476.924
475.893
475.233
474.775
474.491
474.329
479.098
477.595
476.222
475.314
474.678
474.215
473.897
473.652
477.762
476.55
475.452
474.657
474.059
473.6
473.258
472.993
476.397
475.476
474.557
473.891
473.356
472.934
472.615
472.369
475.467
474.695
473.883
473.228
472.701
472.307
472.025
471.819
474.407
474.138
473.367
472.644
472.096
471.729
471.492
471.322
385.379
384.428
383.114
382.186
381.465
380.988
380.763
380.625
384.57
383.465
382.384
381.561
380.903
380.42
380.199
380.003
383.92
382.764
381.721
380.895
380.216
379.713
379.439
379.21
382.576
381.597
380.694
379.954
379.321
378.85
378.595
378.375
381.197
380.358
380.038
378.839
378.295
377.892
377.738
377.578
379.794
379.133
378.421
377.788
377.293
376.969
376.861
376.827
378.137
377.837
377.207
376.662
376.267
376.058
376.05
376.097
289.756
289.289
288.7
288.114
287.505
286.86
286.271
285.961
289.831
289.297
288.652
287.937
287.168
286.378
285.662
285.232
289.475
288.807
288.067
287.275
286.436
285.596
284.859
284.406
288.361
287.69
286.967
286.191
285.436
284.689
284.067
283.707
287.156
286.478
286.329
285.012
284.387
283.808
283.385
283.186
285.443
284.861
284.317
283.751
283.272
282.883
282.688
282.684
283.169
282.893
282.561
282.289
282.05
281.913
281.948
282.102
743.425
744.176
744.736
745.148
745.467
745.725
745.933
746.072
742.572
743.489
744.217
744.793
745.242
745.595
745.868
746.04
742.061
743.026
743.84
744.514
745.057
745.487
745.814
746.012
742.012
742.812
743.608
744.311
744.894
745.372
745.739
745.957
742.656
743.052
743.555
744.22
744.803
745.29
745.668
745.89
744.904
743.691
743.804
744.333
744.843
745.293
745.649
745.858
748.991
744.347
743.953
744.338
744.757
745.152
745.489
745.704
655.302
655.349
655.229
655.087
655.009
654.993
655.027
655.077
655.037
655.02
654.96
654.946
654.973
655.028
655.107
655.181
655.105
654.998
654.951
654.974
655.043
655.135
655.24
655.325
655.539
655.213
655.116
655.116
655.192
655.301
655.421
655.512
656.352
655.723
655.425
655.379
655.429
655.535
655.662
655.755
657.705
656.581
655.993
655.822
655.788
655.852
655.959
656.046
660.34
657.987
657.084
656.575
656.312
656.227
656.263
656.328
565.438
564.99
564.419
563.937
563.613
563.425
563.345
563.338
565.724
565.022
564.473
564.072
563.801
563.637
563.564
563.558
566.358
565.494
564.856
564.428
564.151
563.982
563.899
563.878
567.193
566.077
565.351
564.862
564.558
564.374
564.284
564.257
568.119
566.772
565.922
565.37
565.034
564.842
564.752
564.722
569.267
567.668
566.614
566.003
565.593
565.378
565.277
565.238
570.793
569.195
567.994
567.038
566.405
566.04
565.866
565.799
472.583
471.965
471.335
470.874
470.565
470.368
470.248
470.197
472.926
473.067
471.595
471.149
470.824
470.602
470.458
470.401
473.828
472.888
472.195
471.685
471.311
471.041
470.856
470.762
474.85
473.69
472.883
472.304
471.875
471.563
471.351
471.23
475.817
474.462
473.581
472.94
472.488
472.168
471.955
471.793
476.812
475.302
474.293
473.612
473.14
472.818
472.602
472.413
477.753
476.655
475.544
474.632
473.985
473.561
473.291
473.09
377.045
375.619
375.08
374.688
374.442
374.367
374.479
374.631
378.354
377.035
375.841
375.318
374.962
374.793
374.848
374.97
378.07
377.255
376.57
376.05
375.627
375.381
375.369
375.437
379.283
378.245
377.493
376.883
376.399
376.09
376.017
376.034
380.107
379.082
378.279
377.643
377.15
376.83
376.729
376.711
380.691
379.717
378.882
378.275
377.825
377.531
377.422
377.375
381.235
380.483
379.738
378.978
378.51
378.219
378.103
378.012
283.059
281.703
281.279
281.038
280.972
281.094
281.453
281.903
285.34
283.152
282.122
281.61
281.307
281.24
281.489
281.933
284.262
285.564
282.705
282.194
281.746
281.5
281.584
281.924
285.472
284.416
283.625
282.985
282.405
281.99
281.89
282.075
286.234
285.343
284.531
283.789
283.133
282.617
282.369
282.406
286.625
285.984
285.501
284.327
283.722
283.195
282.863
282.779
286.579
285.966
285.259
284.732
284.23
283.757
283.437
283.349
739.213
739.194
739.194
739.203
739.219
739.239
739.263
739.286
739.376
739.355
739.349
739.35
739.355
739.363
739.373
739.381
739.506
739.482
739.472
739.465
739.46
739.456
739.453
739.448
739.598
739.571
739.556
739.543
739.529
739.515
739.501
739.485
739.648
739.619
739.601
739.582
739.562
739.541
739.52
739.496
739.656
739.627
739.607
739.585
739.562
739.538
739.512
739.485
739.624
739.595
739.574
739.552
739.528
739.503
739.477
739.45
642.219
642.194
642.197
642.214
642.24
642.274
642.314
642.354
642.437
642.407
642.401
642.405
642.414
642.427
642.444
642.46
642.61
642.575
642.561
642.553
642.546
642.542
642.538
642.532
642.731
642.693
642.673
642.656
642.636
642.616
642.596
642.574
642.801
642.761
642.736
642.711
642.682
642.651
642.62
642.587
642.819
642.778
642.75
642.72
642.685
642.649
642.612
642.574
642.785
642.743
642.714
642.682
642.646
642.609
642.572
642.533
545.189
545.165
545.175
545.194
545.223
545.273
545.343
545.416
545.499
545.466
545.459
545.456
545.457
545.476
545.509
545.541
545.744
545.703
545.681
545.658
545.636
545.626
545.626
545.624
545.917
545.869
545.836
545.796
545.754
545.721
545.695
545.666
546.015
545.963
545.921
545.868
545.812
545.764
545.721
545.676
546.041
545.986
545.938
545.878
545.815
545.759
545.71
545.658
545.999
545.943
545.895
545.834
545.769
545.711
545.662
545.612
447.689
447.788
447.935
448.031
448.097
448.192
448.329
448.476
448.138
448.228
448.335
448.395
448.429
448.479
448.556
448.633
448.492
448.563
448.64
448.673
448.678
448.69
448.714
448.732
448.729
448.785
448.844
448.857
448.835
448.816
448.801
448.777
448.846
448.895
448.94
448.945
448.905
448.864
448.825
448.776
448.857
448.911
448.951
448.947
448.904
448.853
448.803
448.746
448.782
448.859
448.908
448.901
448.854
448.799
448.748
448.694
351.019
351.21
351.329
351.292
351.156
351.145
351.327
351.601
351.768
351.864
351.917
351.803
351.634
351.564
351.663
351.815
352.358
352.37
352.371
352.198
351.987
351.879
351.896
351.945
352.772
352.705
352.692
352.472
352.188
352.061
352.018
351.996
352.985
352.874
352.811
352.624
352.294
352.123
352.037
351.977
352.99
352.913
352.825
352.606
352.319
352.107
351.999
351.925
352.87
352.87
352.807
352.581
352.281
352.051
351.935
351.864
249.829
252.697
254.552
254.928
254.438
254.195
254.467
254.955
251.122
254.126
255.434
255.386
254.937
254.776
254.971
255.241
252.251
255.002
255.907
255.756
255.39
255.236
255.32
255.413
252.97
255.469
256.211
256.041
255.682
255.492
255.491
255.468
253.301
255.739
256.394
256.168
255.772
255.543
255.493
255.416
253.182
255.821
256.477
256.177
255.725
255.463
255.401
255.322
252.722
255.942
256.758
256.341
255.731
255.396
255.32
255.252
738.406
738.378
738.369
738.371
738.383
738.403
738.43
738.459
738.252
738.226
738.222
738.232
738.254
738.286
738.325
738.366
738.123
738.098
738.099
738.117
738.15
738.194
738.246
738.301
738.021
737.997
738.002
738.027
738.068
738.122
738.185
738.251
737.951
737.928
737.936
737.966
738.013
738.074
738.145
738.219
737.922
737.9
737.91
737.944
737.996
738.062
738.139
738.219
737.94
737.919
737.931
737.966
738.021
738.09
738.17
738.253
641.25
641.211
641.202
641.21
641.232
641.27
641.322
641.38
641.046
641.01
641.009
641.03
641.068
641.125
641.197
641.274
640.868
640.837
640.845
640.881
640.936
641.011
641.103
641.202
640.723
640.695
640.712
640.76
640.83
640.922
641.032
641.148
640.619
640.594
640.616
640.673
640.755
640.859
640.982
641.112
640.572
640.547
640.573
640.636
640.725
640.838
640.971
641.111
640.586
640.562
640.59
640.655
640.749
640.867
641.005
641.149
544.004
543.964
543.954
543.957
543.978
544.038
544.137
544.252
543.727
543.695
543.7
543.724
543.77
543.858
543.989
544.136
543.479
543.458
543.48
543.528
543.6
543.716
543.878
544.059
543.264
543.252
543.29
543.362
543.459
543.601
543.79
543.998
543.096
543.085
543.134
543.225
543.346
543.511
543.722
543.953
543.006
542.994
543.048
543.152
543.291
543.473
543.7
543.948
543.008
542.993
543.051
543.161
543.309
543.502
543.737
543.991
446.437
446.383
446.406
446.443
446.491
446.606
446.81
447.057
445.993
445.965
446.046
446.138
446.231
446.393
446.644
446.937
445.565
445.575
445.736
445.887
446.021
446.219
446.513
446.855
445.205
445.24
445.464
445.667
445.842
446.072
446.401
446.787
444.946
444.965
445.213
445.457
445.673
445.937
446.297
446.721
444.855
444.846
445.072
445.328
445.572
445.866
446.251
446.703
444.905
444.881
445.071
445.317
445.576
445.893
446.295
446.756
349.286
349.386
349.425
349.28
349.067
349.038
349.307
349.82
348.695
348.87
348.972
348.913
348.784
348.812
349.137
349.703
348.056
348.36
348.576
348.635
348.566
348.615
348.969
349.604
347.487
347.885
348.167
348.334
348.335
348.427
348.816
349.515
347.006
347.347
347.666
347.929
348.038
348.209
348.65
349.413
346.768
346.989
347.332
347.621
347.817
348.07
348.569
349.369
346.767
346.899
347.2
347.464
347.722
348.07
348.632
349.443
249.234
250.387
251.546
251.652
250.973
250.827
251.492
252.567
248.11
249.181
250.998
251.487
250.793
250.61
251.315
252.474
246.547
247.693
250.512
251.501
250.809
250.437
251.084
252.318
245.112
246.239
249.69
251.25
250.887
250.436
250.967
252.206
244.443
245.142
248.559
250.441
250.635
250.406
250.886
252.089
244.895
244.947
247.917
249.804
250.301
250.296
250.834
252.041
245.485
245.487
247.589
249.275
249.942
250.214
250.926
252.173
738.003
737.984
737.997
738.034
738.09
738.16
738.242
738.326
738.108
738.089
738.103
738.141
738.197
738.268
738.349
738.432
738.251
738.233
738.247
738.284
738.339
738.408
738.486
738.566
738.425
738.408
738.421
738.456
738.508
738.571
738.642
738.715
738.621
738.604
738.616
738.646
738.691
738.746
738.808
738.87
738.824
738.808
738.817
738.842
738.878
738.923
738.973
739.023
739.025
739.008
739.013
739.031
739.058
739.091
739.128
739.166
640.656
640.634
640.663
640.731
640.827
640.947
641.086
641.232
640.777
640.756
640.786
640.855
640.95
641.069
641.208
641.353
640.95
640.93
640.962
641.029
641.122
641.237
641.369
641.506
641.174
641.155
641.185
641.248
641.333
641.437
641.557
641.681
641.431
641.413
641.439
641.494
641.567
641.657
641.76
641.866
641.702
641.683
641.704
641.747
641.806
641.879
641.963
642.048
641.97
641.948
641.96
641.992
642.034
642.088
642.151
642.215
543.087
543.074
543.135
543.249
543.4
543.595
543.832
544.086
543.23
543.222
543.285
543.398
543.546
543.738
543.973
544.225
543.444
543.436
543.507
543.621
543.763
543.945
544.168
544.406
543.748
543.741
543.806
543.908
544.034
544.198
544.4
544.615
544.102
544.095
544.148
544.232
544.337
544.477
544.651
544.835
544.471
544.46
544.502
544.567
544.649
544.762
544.905
545.054
544.839
544.821
544.846
544.889
544.945
545.028
545.137
545.251
445.009
444.993
445.189
445.44
445.7
446.015
446.414
446.871
445.132
445.141
445.365
445.619
445.875
446.182
446.576
447.035
445.329
445.337
445.659
445.925
446.163
446.449
446.823
447.25
445.713
445.794
446.076
446.31
446.517
446.776
447.118
447.504
446.199
446.299
446.54
446.737
446.912
447.136
447.436
447.767
446.7
446.792
447.005
447.176
447.322
447.51
447.763
448.037
447.197
447.285
447.465
447.601
447.709
447.853
448.053
448.27
346.896
347.03
347.35
347.641
347.91
348.25
348.796
349.593
347.127
347.323
347.644
347.934
348.153
348.442
348.957
349.798
347.527
347.919
348.154
348.431
348.567
348.801
349.301
350.044
348.103
348.463
348.73
348.957
349.022
349.219
349.689
350.365
348.812
349.139
349.373
349.521
349.535
349.694
350.113
350.696
349.515
349.8
349.989
350.096
350.085
350.204
350.569
351.047
350.242
350.482
350.619
350.66
350.593
350.653
350.939
351.33
245.677
245.773
247.861
249.6
250.274
250.511
251.179
252.374
245.494
245.588
248.33
250.107
250.644
250.752
251.355
252.569
244.94
245.999
249.17
250.928
251.255
251.214
251.755
252.916
245.383
247.336
250.316
251.765
251.78
251.672
252.228
253.329
246.529
248.883
251.513
252.604
252.361
252.217
252.759
253.745
247.741
249.996
252.33
253.34
253.108
252.96
253.414
254.23
248.81
251.226
253.221
254
253.734
253.543
253.9
254.58
739.554
739.525
739.504
739.483
739.46
739.436
739.411
739.384
739.446
739.417
739.397
739.378
739.359
739.339
739.32
739.301
739.307
739.277
739.258
739.242
739.226
739.211
739.197
739.18
739.141
739.112
739.095
739.082
739.071
739.062
739.054
739.044
738.958
738.928
738.913
738.903
738.897
738.893
738.891
738.889
738.767
738.738
738.724
738.717
738.715
738.718
738.723
738.729
738.578
738.55
738.538
738.535
738.539
738.548
738.563
738.579
642.698
642.655
642.626
642.596
642.562
642.529
642.496
642.463
642.561
642.518
642.491
642.465
642.437
642.41
642.383
642.354
642.386
642.344
642.321
642.302
642.283
642.265
642.248
642.229
642.182
642.142
642.123
642.11
642.098
642.089
642.083
642.075
641.957
641.918
641.901
641.892
641.887
641.887
641.892
641.897
641.718
641.68
641.664
641.658
641.66
641.67
641.688
641.708
641.477
641.438
641.424
641.423
641.433
641.455
641.488
641.525
545.888
545.832
545.786
545.729
545.669
545.617
545.574
545.53
545.711
545.657
545.617
545.57
545.52
545.48
545.449
545.416
545.488
545.439
545.407
545.37
545.334
545.309
545.293
545.275
545.231
545.187
545.16
545.133
545.11
545.1
545.102
545.102
544.942
544.9
544.877
544.856
544.842
544.847
544.87
544.892
544.631
544.588
544.568
544.551
544.546
544.566
544.611
544.66
544.309
544.265
544.249
544.239
544.243
544.28
544.35
544.431
448.648
448.727
448.781
448.778
448.736
448.69
448.651
448.607
448.441
448.511
448.574
448.584
448.553
448.529
448.511
448.485
448.189
448.248
448.313
448.335
448.328
448.322
448.332
448.332
447.901
447.939
448.004
448.035
448.044
448.065
448.105
448.136
447.579
447.569
447.642
447.676
447.693
447.734
447.812
447.882
447.248
447.206
447.243
447.265
447.284
447.345
447.458
447.582
446.864
446.804
446.816
446.832
446.857
446.94
447.095
447.29
352.671
352.682
352.634
352.422
352.132
351.92
351.824
351.773
352.356
352.344
352.346
352.158
351.852
351.714
351.669
351.652
351.931
351.959
351.957
351.799
351.605
351.439
351.457
351.491
351.495
351.55
351.532
351.385
351.209
351.131
351.184
351.27
351.06
351.17
351.089
350.914
350.727
350.66
350.81
350.954
350.521
350.624
350.532
350.342
350.144
350.107
350.28
350.546
349.864
349.925
349.923
349.746
349.532
349.499
349.696
350.187
252.341
255.672
256.538
256.164
255.574
255.255
255.201
255.162
251.986
255.018
255.903
255.709
255.286
255.071
255.073
255.068
251.528
254.368
255.336
255.244
254.915
254.773
254.855
254.924
251.135
253.705
254.781
254.728
254.418
254.334
254.507
254.679
250.902
252.925
254.124
254.09
253.733
253.674
253.958
254.274
250.734
252.115
253.254
253.214
252.764
252.709
253.152
253.709
250.095
251.32
252.281
252.251
251.74
251.697
252.286
253.117
836.332
836.303
836.299
739.302
739.313
739.322
739.328
739.331
739.332
739.33
739.325
739.384
739.387
739.388
739.388
739.387
739.383
739.379
739.374
739.442
739.437
739.431
739.426
739.42
739.414
739.408
739.403
739.471
739.461
739.45
739.441
739.432
739.424
739.418
739.412
739.476
739.461
739.448
739.436
739.425
739.416
739.408
739.401
739.462
739.446
739.43
739.416
739.402
739.39
739.38
739.373
739.428
739.411
739.396
739.382
739.369
739.357
739.348
739.341
642.381
642.399
642.412
642.422
642.427
642.429
642.428
642.423
642.467
642.472
642.474
642.474
642.472
642.469
642.464
642.459
642.524
642.516
642.508
642.499
642.49
642.482
642.474
642.468
642.552
642.536
642.519
642.502
642.488
642.475
642.464
642.456
642.557
642.534
642.511
642.49
642.471
642.455
642.442
642.433
642.54
642.514
642.489
642.465
642.443
642.424
642.41
642.401
642.501
642.476
642.452
642.429
642.408
642.391
642.377
642.368
545.463
545.494
545.516
545.531
545.54
545.546
545.546
545.544
545.557
545.565
545.567
545.566
545.563
545.56
545.555
545.55
545.612
545.6
545.586
545.569
545.554
545.542
545.531
545.523
545.634
545.608
545.579
545.552
545.527
545.507
545.491
545.481
545.632
545.596
545.559
545.524
545.493
545.467
545.449
545.437
545.609
545.57
545.531
545.493
545.46
545.432
545.413
545.401
545.564
545.527
545.489
545.453
545.422
545.396
545.378
545.366
448.57
448.626
448.661
448.679
448.688
448.694
448.698
448.703
448.671
448.687
448.687
448.676
448.66
448.65
448.642
448.642
448.724
448.708
448.68
448.636
448.602
448.578
448.557
448.551
448.735
448.694
448.642
448.584
448.536
448.499
448.465
448.455
448.716
448.66
448.595
448.529
448.47
448.427
448.395
448.382
448.681
448.623
448.555
448.487
448.427
448.381
448.349
448.336
448.632
448.577
448.513
448.447
448.391
448.348
448.315
448.304
351.783
351.873
351.911
351.907
351.884
351.867
351.871
351.896
351.893
351.909
351.882
351.825
351.76
351.713
351.696
351.709
351.939
351.894
351.814
351.711
351.609
351.535
351.499
351.502
351.933
351.847
351.729
351.594
351.467
351.373
351.324
351.32
351.886
351.78
351.645
351.495
351.357
351.254
351.201
351.194
351.829
351.721
351.586
351.437
351.299
351.197
351.144
351.138
351.774
351.672
351.543
351.401
351.269
351.172
351.123
351.12
255.214
255.282
255.235
255.119
254.975
254.867
254.847
254.915
255.305
255.24
255.087
254.882
254.667
254.504
254.445
254.49
255.328
255.159
254.917
254.633
254.353
254.14
254.047
254.071
255.288
255.052
254.747
254.409
254.086
253.84
253.725
253.736
255.193
254.929
254.6
254.243
253.905
253.649
253.527
253.535
255.101
254.839
254.515
254.165
253.833
253.583
253.466
253.477
255.046
254.794
254.482
254.145
253.826
253.587
253.477
253.494
738.481
738.497
738.511
738.521
738.528
738.53
738.529
738.524
738.398
738.421
738.44
738.455
738.466
738.471
738.471
738.468
738.342
738.372
738.397
738.417
738.432
738.44
738.442
738.439
738.301
738.337
738.368
738.392
738.41
738.421
738.425
738.423
738.277
738.318
738.353
738.382
738.403
738.416
738.42
738.419
738.281
738.326
738.364
738.396
738.419
738.433
738.439
738.438
738.317
738.363
738.402
738.434
738.458
738.473
738.479
738.478
641.422
641.452
641.477
641.495
641.508
641.514
641.515
641.511
641.332
641.373
641.408
641.434
641.453
641.465
641.469
641.467
641.276
641.329
641.372
641.407
641.433
641.45
641.457
641.456
641.235
641.297
641.35
641.392
641.423
641.443
641.453
641.453
641.211
641.28
641.339
641.387
641.422
641.445
641.457
641.458
641.218
641.293
641.357
641.408
641.447
641.472
641.485
641.487
641.258
641.335
641.4
641.453
641.493
641.519
641.532
641.535
544.335
544.392
544.437
544.472
544.497
544.513
544.519
544.519
544.242
544.316
544.377
544.425
544.461
544.485
544.497
544.499
544.192
544.284
544.361
544.423
544.47
544.502
544.519
544.523
544.152
544.261
544.351
544.424
544.48
544.518
544.539
544.546
544.125
544.246
544.348
544.43
544.493
544.537
544.561
544.569
544.134
544.264
544.375
544.464
544.533
544.581
544.608
544.617
544.181
544.314
544.426
544.517
544.587
544.636
544.664
544.674
447.227
447.338
447.422
447.481
447.522
447.551
447.568
447.579
447.143
447.281
447.389
447.469
447.527
447.569
447.594
447.608
447.104
447.272
447.407
447.509
447.586
447.641
447.676
447.694
447.072
447.267
447.424
447.546
447.637
447.703
447.745
447.767
447.039
447.258
447.436
447.575
447.679
447.755
447.802
447.827
447.045
447.281
447.475
447.627
447.742
447.825
447.878
447.906
447.103
447.342
447.539
447.694
447.812
447.897
447.951
447.98
350.172
350.384
350.524
350.601
350.639
350.666
350.697
350.735
350.11
350.364
350.542
350.653
350.72
350.769
350.814
350.86
350.083
350.392
350.619
350.77
350.869
350.942
351.004
351.057
350.057
350.415
350.685
350.87
350.993
351.084
351.158
351.218
350.011
350.416
350.726
350.941
351.087
351.194
351.278
351.344
350.01
350.447
350.787
351.027
351.192
351.312
351.406
351.476
350.09
350.53
350.872
351.115
351.285
351.409
351.504
351.575
253.285
253.637
253.791
253.815
253.778
253.749
253.781
253.878
253.271
253.684
253.895
253.975
253.988
254.001
254.062
254.174
253.245
253.77
254.073
254.22
254.288
254.344
254.436
254.565
253.223
253.839
254.224
254.429
254.535
254.62
254.733
254.874
253.165
253.862
254.326
254.586
254.725
254.832
254.961
255.113
253.161
253.911
254.433
254.736
254.906
255.035
255.179
255.339
253.29
254.032
254.549
254.856
255.034
255.171
255.318
255.477
738.39
738.436
738.476
738.508
738.532
738.546
738.552
738.552
738.496
738.541
738.58
738.611
738.634
738.649
738.655
738.654
738.626
738.668
738.705
738.734
738.757
738.77
738.776
738.776
738.769
738.808
738.841
738.868
738.888
738.901
738.906
738.905
738.916
738.949
738.978