/*--------------------------------*- C++ -*----------------------------------*\
| =========                 |                                                 |
| \\      /  F ield         | OpenFOAM: The Open Source CFD Toolbox           |
|  \\    /   O peration     | Version:  plus.master.MPPICInterFoam            |
|   \\  /    A nd           | Web:      www.OpenFOAM.com                      |
|    \\/     M anipulation  |                                                 |
\*---------------------------------------------------------------------------*/
FoamFile
{
    version     2.0;
    format      ascii;
    class       volScalarField;
    location    "14";
    object      p;
}
// * * * * * * * * * * * * * * * * * * * * * * * * * * * * * * * * * * * * * //

dimensions      [1 -1 -2 0 0 0 0];

internalField   nonuniform List<scalar> 
11822
(
784.967
784.791
784.794
784.686
784.509
784.349
784.19
785.879
785.409
785.714
785.201
784.786
784.563
784.352
790.295
791.035
790.078
787.424
785.407
784.856
784.525
792.884
786.559
788.881
789.439
785.982
785.058
784.648
794.304
787.759
788.413
789.763
785.807
785.075
784.671
792.883
792.193
792.589
789.395
785.863
785.064
784.691
792.577
792.928
791.566
787.927
785.43
784.885
784.616
693.009
692.905
692.923
692.741
692.52
692.303
692.092
693.875
693.517
693.847
693.261
692.858
692.571
692.283
698.201
698.087
697.663
694.945
693.446
692.884
692.475
699.425
699.74
700.945
697.23
694.215
693.186
692.63
702.02
695.888
699.14
697.12
693.919
693.186
692.661
702.103
701.646
700.377
697.026
694.051
693.143
692.653
698.78
698.299
698.258
695.128
693.327
692.814
692.511
600.064
600.045
599.945
599.776
599.523
599.259
598.997
600.94
600.979
600.844
600.274
599.862
599.527
599.214
604.696
605.689
603.894
601.43
600.284
599.816
599.424
605.739
608.304
607.854
603.177
600.872
600.101
599.608
606.942
610.9
605.255
603.871
600.825
600.192
599.703
607.272
609.222
606.497
603.432
601.078
600.214
599.738
604.092
604.744
604.433
601.737
600.354
599.891
599.608
506.495
506.537
506.525
506.5
506.44
506.364
506.276
506.585
506.527
506.652
506.569
506.58
506.524
506.397
509.165
509.986
508.621
507.058
506.788
506.712
506.544
511.726
514.871
512.817
508.926
507.324
506.991
506.715
507.707
509.527
509.636
510.206
507.564
507.14
506.816
507.477
514.234
510.346
509.523
507.637
507.108
506.826
508.419
509.772
509.777
507.862
506.951
506.792
506.692
412.089
412.086
412.096
412.014
411.813
411.463
410.963
412.091
411.505
412.03
412.137
412.113
411.872
411.428
414.206
415.044
413.355
412.541
412.425
412.231
411.803
418.785
417.245
416.594
414.701
412.845
412.568
412.105
417.208
415.183
416.802
414.257
412.829
412.689
412.257
412.152
418.702
416.077
414.528
413.074
412.738
412.299
414.471
416.1
415.453
413.621
412.707
412.488
412.128
322.743
322.645
322.797
322.778
322.666
322.55
322.584
322.549
321.871
322.83
322.918
322.857
322.717
322.607
324.515
325.575
324.406
323.58
323.185
322.982
322.787
329.242
324.273
323.782
324.938
323.308
323.18
322.966
328.012
324.357
327.12
323.424
322.766
323.183
323.093
326.401
329.102
327.655
324.535
323.443
323.371
323.243
326.451
327.078
325.882
324.02
323.328
323.266
323.326
783.979
783.861
783.766
783.699
783.663
783.662
783.693
783.747
784.096
783.93
783.806
783.719
783.671
783.662
783.694
783.749
784.219
784.017
783.868
783.763
783.702
783.687
783.72
783.782
784.322
784.097
783.934
783.82
783.752
783.735
783.767
783.832
784.368
784.15
783.99
783.88
783.816
783.802
783.836
783.899
784.389
784.194
784.055
783.96
783.909
783.902
783.937
783.997
784.279
784.147
784.061
784.007
783.985
783.999
784.042
784.096
691.868
691.712
691.577
691.474
691.405
691.37
691.365
691.39
691.982
691.767
691.6
691.478
691.398
691.358
691.354
691.38
692.107
691.853
691.658
691.516
691.421
691.373
691.369
691.398
692.222
691.939
691.728
691.574
691.472
691.42
691.414
691.444
692.269
691.993
691.787
691.639
691.541
691.491
691.487
691.517
692.28
692.033
691.853
691.723
691.637
691.595
691.592
691.619
692.137
691.976
691.859
691.771
691.714
691.692
691.699
691.726
598.739
598.568
598.425
598.314
598.243
598.22
598.24
598.267
598.899
598.669
598.485
598.347
598.258
598.223
598.241
598.269
599.062
598.796
598.585
598.426
598.322
598.279
598.296
598.332
599.214
598.927
598.703
598.535
598.424
598.378
598.393
598.436
599.31
599.028
598.81
598.65
598.544
598.499
598.514
598.557
599.357
599.103
598.912
598.771
598.679
598.639
598.649
598.685
599.228
599.066
598.94
598.841
598.78
598.759
598.772
598.803
506.233
506.173
506.102
506.055
506.037
506.038
506.045
506.113
506.273
506.159
506.059
505.994
505.97
505.978
506.006
506.097
506.362
506.203
506.07
505.977
505.929
505.919
505.935
506.041
506.472
506.278
506.117
505.996
505.918
505.875
505.865
505.927
506.553
506.347
506.176
506.04
505.939
505.865
505.818
505.838
506.581
506.392
506.231
506.097
505.988
505.897
505.823
505.809
506.465
506.348
506.233
506.127
506.032
505.944
505.864
505.835
410.418
409.981
409.545
409.13
408.77
408.528
408.456
408.446
410.866
410.364
409.876
409.398
408.959
408.624
408.47
408.413
411.253
410.744
410.236
409.731
409.256
408.878
408.685
408.585
411.553
411.06
410.568
410.077
409.614
409.248
409.064
408.93
411.721
411.269
410.824
410.381
409.969
409.661
409.526
409.389
411.753
411.35
410.972
410.602
410.272
410.051
409.993
409.889
411.577
411.289
411.005
410.729
410.499
410.377
410.403
410.358
322.953
323.251
323.601
324.151
324.95
326.02
327.282
328.164
322.675
322.803
323.087
323.62
324.458
325.65
327.138
328.285
322.732
322.764
322.975
323.445
324.24
325.43
326.992
328.286
322.852
322.852
323.018
323.423
324.136
325.233
326.702
327.924
323.018
323.051
323.212
323.571
324.192
325.132
326.369
327.34
323.196
323.281
323.448
323.768
324.288
325.035
325.968
326.635
323.514
323.739
323.925
324.207
324.6
325.125
325.73
326.103
787.941
785.506
785.273
785.146
785.077
785.095
785.205
785.372
791.574
787.343
785.844
785.363
785.141
785.111
785.264
785.533
791.979
787.246
785.637
785.171
784.96
784.949
785.14
785.454
790.611
786.522
785.336
785.006
784.849
784.847
785.02
785.306
787.27
785.169
784.887
784.736
784.66
784.704
784.837
785.05
784.812
784.567
784.533
784.487
784.468
784.508
784.614
784.762
784.518
784.479
784.429
784.376
784.353
784.377
784.45
784.556
694.121
692.13
692.218
692.238
692.234
692.278
692.386
692.534
698.051
694.405
693.141
692.702
692.487
692.441
692.557
692.78
698.411
694.256
692.998
692.657
692.468
692.431
692.561
692.81
697.561
694.041
693.029
692.671
692.464
692.412
692.529
692.742
694.942
692.986
692.635
692.439
692.324
692.322
692.394
692.551
692.835
692.5
692.357
692.254
692.183
692.174
692.228
692.328
692.548
692.447
692.318
692.19
692.108
692.082
692.109
692.173
599.977
598.511
598.662
598.683
598.689
598.747
598.866
599.017
603.36
600.894
599.705
599.269
599.038
598.975
599.069
599.269
604.298
601.041
599.86
599.433
599.183
599.095
599.179
599.371
603.373
600.778
599.883
599.502
599.271
599.204
599.247
599.412
601.635
599.967
599.64
599.389
599.227
599.18
599.209
599.325
599.897
599.596
599.422
599.269
599.167
599.129
599.155
599.224
599.661
599.53
599.366
599.232
599.141
599.101
599.112
599.157
505.556
504.46
504.558
504.558
504.56
504.606
504.717
504.864
506.697
505.645
504.966
504.788
504.672
504.653
504.761
504.962
507.141
505.66
505.16
504.998
504.865
504.811
504.895
505.066
508.578
506.235
505.611
505.374
505.197
505.121
505.141
505.278
506.955
505.737
505.677
505.543
505.413
505.354
505.333
505.407
505.922
505.889
505.84
505.738
505.632
505.555
505.527
505.543
506.222
506.199
506.079
505.955
505.844
505.757
505.705
505.692
411.694
410.131
409.855
409.569
409.345
409.276
409.451
409.682
412.362
410.831
410
409.643
409.34
409.205
409.367
409.642
412.801
410.841
410.236
409.92
409.594
409.413
409.542
409.771
414.788
411.688
410.922
410.518
410.147
409.927
409.99
410.164
412.334
411.169
411.085
410.826
410.538
410.394
410.43
410.538
411.477
411.427
411.296
411.068
410.84
410.72
410.796
410.858
411.689
411.565
411.368
411.15
410.967
410.896
410.991
411.04
322.971
320.618
319.678
318.678
317.74
316.903
316.293
316.157
325.397
322.121
320.143
318.727
317.467
316.384
315.632
315.515
325.623
322.073
320.41
319.02
317.721
316.586
315.782
315.626
325.431
321.907
320.663
319.587
318.498
317.507
316.77
316.596
322.69
321.371
320.952
320.272
319.545
318.884
318.323
318.144
322.018
321.873
321.576
321.186
320.794
320.438
320.157
319.993
322.52
322.489
322.355
322.227
322.137
322.075
322.021
321.873
784.557
784.369
784.255
784.191
784.17
784.192
784.251
784.32
784.543
784.362
784.222
784.126
784.074
784.069
784.107
784.165
784.505
784.291
784.131
784.021
783.96
783.945
783.974
784.026
784.402
784.193
784.036
783.929
783.866
783.848
783.871
783.918
784.256
784.071
783.931
783.835
783.779
783.764
783.788
783.835
784.125
783.962
783.84
783.757
783.711
783.701
783.727
783.805
783.984
783.871
783.781
783.715
783.68
783.68
783.71
783.789
692.534
692.302
692.137
692.017
691.944
691.917
691.931
691.964
692.567
692.311
692.108
691.955
691.852
691.799
691.791
691.813
692.518
692.23
692.007
691.843
691.729
691.666
691.65
691.666
692.387
692.109
691.897
691.737
691.624
691.56
691.54
691.552
692.208
691.965
691.773
691.627
691.526
691.469
691.452
691.465
692.047
691.84
691.672
691.546
691.462
691.417
691.406
691.46
691.885
691.732
691.6
691.495
691.425
691.388
691.381
691.428
599.58
599.367
599.209
599.093
599.02
598.988
598.991
599.011
599.669
599.409
599.208
599.055
598.951
598.894
598.88
598.893
599.569
599.295
599.082
598.923
598.811
598.75
598.737
598.751
599.416
599.144
598.935
598.777
598.668
598.611
598.605
598.625
599.21
598.958
598.763
598.616
598.518
598.472
598.478
598.504
599.001
598.776
598.604
598.477
598.398
598.37
598.387
598.441
598.775
598.604
598.465
598.357
598.29
598.269
598.29
598.343
506.261
506.163
506.068
505.975
505.888
505.811
505.745
505.708
506.405
506.267
506.142
506.025
505.915
505.812
505.722
505.673
506.377
506.236
506.103
505.977
505.862
505.755
505.661
505.614
506.327
506.187
506.052
505.928
505.818
505.721
505.637
505.608
506.291
506.144
506.01
505.9
505.81
505.736
505.677
505.677
506.25
506.121
506.011
505.928
505.87
505.832
505.807
505.84
506.222
506.134
506.055
506.002
505.975
505.964
505.96
506.033
411.671
411.522
411.35
411.165
411.01
410.957
411.053
411.061
411.826
411.661
411.461
411.235
411.03
410.916
410.957
410.902
411.856
411.626
411.369
411.093
410.836
410.666
410.654
410.55
411.72
411.419
411.1
410.769
410.459
410.238
410.181
410.056
411.446
411.071
410.691
410.309
409.955
409.7
409.614
409.504
411.037
410.604
410.19
409.786
409.423
409.166
409.081
409.01
410.496
410.05
409.639
409.257
408.93
408.721
408.676
408.698
322.885
322.993
323.015
323.064
323.167
323.304
323.431
323.377
322.731
322.819
322.908
323.057
323.301
323.635
324.018
324.19
322.769
322.803
322.904
323.119
323.478
323.994
324.642
325.09
322.708
322.702
322.811
323.084
323.562
324.277
325.211
325.913
322.644
322.645
322.793
323.147
323.751
324.646
325.812
326.714
322.645
322.713
322.934
323.38
324.096
325.114
326.393
327.384
322.886
323.11
323.432
323.962
324.733
325.77
326.998
327.919
784.379
784.298
784.217
784.158
784.13
784.14
784.187
784.259
784.589
784.467
784.367
784.293
784.256
784.266
784.323
784.412
784.817
784.698
784.583
784.48
784.422
784.425
784.494
784.606
785.628
785.081
784.873
784.705
784.603
784.592
784.68
784.825
787.479
785.616
785.195
784.932
784.782
784.754
784.851
785.034
788.138
786.053
785.451
785.135
784.966
784.934
785.032
785.214
787.241
785.642
785.363
785.167
785.07
785.073
785.168
785.31
692.24
692.12
691.999
691.903
691.841
691.816
691.826
691.863
692.428
692.25
692.11
692.004
691.935
691.911
691.932
691.983
692.629
692.446
692.281
692.153
692.066
692.036
692.062
692.132
693.188
692.715
692.497
692.307
692.184
692.144
692.189
692.286
694.493
693.008
692.657
692.41
692.26
692.213
692.274
692.41
694.547
693.108
692.683
692.439
692.303
692.273
692.347
692.492
693.981
692.681
692.495
692.359
692.292
692.299
692.382
692.5
599.363
599.238
599.104
598.994
598.922
598.891
598.897
598.926
599.523
599.342
599.195
599.08
599.006
598.974
598.982
599.019
599.7
599.501
599.331
599.19
599.094
599.05
599.058
599.104
600.045
599.647
599.432
599.25
599.127
599.073
599.097
599.165
601.059
599.757
599.435
599.211
599.072
599.02
599.059
599.17
601.063
599.722
599.313
599.088
598.965
598.937
599.004
599.133
599.787
598.817
598.812
598.771
598.762
598.801
598.895
599.015
506.53
506.443
506.308
506.172
506.051
505.945
505.858
505.82
506.512
506.376
506.234
506.094
505.971
505.866
505.786
505.748
506.431
506.303
506.16
506.011
505.878
505.771
505.705
505.683
506.369
506.125
505.991
505.839
505.705
505.611
505.574
505.59
506.827
505.8
505.666
505.534
505.422
505.356
505.358
505.431
506.518
505.484
505.301
505.193
505.111
505.08
505.13
505.239
505.126
504.421
504.65
504.706
504.732
504.775
504.863
504.976
411.802
411.56
411.29
411.024
410.805
410.699
410.753
410.735
412.139
411.893
411.638
411.369
411.132
411.004
411.048
411.019
412.232
412.06
411.832
411.563
411.309
411.158
411.195
411.181
412.205
411.954
411.754
411.481
411.216
411.057
411.104
411.137
412.754
411.62
411.395
411.116
410.85
410.7
410.78
410.886
412.518
411.252
410.896
410.591
410.326
410.198
410.316
410.486
411.084
410.067
410.046
409.865
409.684
409.635
409.806
410.011
323.413
323.496
323.543
323.673
323.928
324.276
324.676
324.882
323.208
323.123
323.022
322.973
323.012
323.147
323.357
323.46
323.015
322.877
322.651
322.416
322.226
322.108
322.087
322.062
322.801
322.523
322.18
321.758
321.359
321.015
320.783
320.671
323.415
322.197
321.668
321.037
320.432
319.886
319.482
319.342
323.466
321.958
321.08
320.236
319.462
318.772
318.268
318.132
322.493
320.978
320.236
319.386
318.582
317.86
317.327
317.189
733.51
733.655
733.777
733.863
733.903
733.9
733.865
733.807
733.494
733.643
733.766
733.855
733.897
733.898
733.867
733.813
733.453
733.607
733.728
733.813
733.854
733.853
733.824
733.775
733.415
733.565
733.685
733.771
733.812
733.813
733.784
733.736
733.39
733.523
733.636
733.72
733.759
733.758
733.726
733.674
733.384
733.488
733.595
733.676
733.715
733.715
733.687
733.641
733.398
733.474
733.575
733.657
733.7
733.708
733.689
733.652
636.158
636.428
636.652
636.823
636.902
636.903
636.853
636.774
636.135
636.408
636.634
636.81
636.897
636.904
636.864
636.791
636.084
636.361
636.583
636.753
636.833
636.835
636.793
636.724
636.037
636.309
636.53
636.701
636.783
636.788
636.75
636.684
636.012
636.261
636.475
636.643
636.722
636.722
636.678
636.604
636.017
636.224
636.428
636.594
636.673
636.679
636.643
636.579
636.05
636.207
636.403
636.573
636.665
636.692
636.684
636.652
538.514
539.153
539.574
539.892
540.026
540.024
539.971
539.918
538.462
539.107
539.535
539.867
540.017
540.027
539.986
539.926
538.397
539.042
539.463
539.785
539.92
539.911
539.846
539.746
538.343
538.98
539.399
539.719
539.856
539.854
539.805
539.73
538.328
538.932
539.342
539.658
539.792
539.788
539.734
539.608
538.351
538.895
539.292
539.601
539.731
539.723
539.644
539.374
538.403
538.868
539.254
539.57
539.717
539.746
539.719
539.469
440.622
442.094
442.738
443.211
443.35
443.23
443.026
442.81
440.489
441.997
442.656
443.159
443.342
443.274
443.176
442.926
440.402
441.907
442.561
443.052
443.219
443.123
443.02
442.764
440.351
441.827
442.472
442.953
443.111
443.014
442.931
442.702
440.367
441.774
442.425
442.911
443.078
443.001
442.985
442.837
440.417
441.718
442.385
442.887
443.076
443.043
443.079
443.276
440.465
441.642
442.319
442.831
443.022
442.983
443.01
443.359
342.258
345.132
346.176
347.103
347.209
346.558
346.461
347.558
342.115
344.999
346.024
346.999
347.211
346.578
346.68
347.674
342.111
344.9
345.918
346.878
347.06
346.38
346.571
348.041
341.986
344.715
345.752
346.694
346.834
346.11
346.354
347.842
341.95
344.548
345.672
346.656
346.818
346.048
346.337
348.099
342.024
344.357
345.599
346.641
346.816
346.112
346.45
348.596
342.199
344.141
345.478
346.567
346.698
346.053
346.452
348.56
218.592
243.287
250.033
253.054
253.003
252.954
254.489
255.707
217.957
242.975
249.646
252.691
252.771
253.225
254.102
255.319
218.121
242.831
249.505
252.545
252.704
253.248
253.754
255.838
218.408
242.508
249.255
252.264
252.28
252.774
253.281
255.093
219.064
242.168
249.123
252.244
252.234
252.915
253.361
255.163
220.084
241.663
248.895
252.101
251.969
252.691
253.136
255.157
221.419
241.04
248.59
251.94
251.755
252.394
252.877
255.259
733.724
733.675
733.762
733.848
733.905
733.924
733.902
733.853
733.744
733.69
733.779
733.866
733.924
733.941
733.914
733.856
733.724
733.674
733.76
733.842
733.895
733.906
733.876
733.817
733.714
733.669
733.765
733.857
733.918
733.939
733.918
733.868
733.658
733.649
733.736
733.812
733.855
733.858
733.827
733.778
733.63
733.639
733.734
733.817
733.864
733.872
733.847
733.805
733.583
733.619
733.712
733.787
733.824
733.821
733.792
733.752
636.589
636.445
636.61
636.782
636.91
636.956
636.922
636.846
636.619
636.459
636.625
636.8
636.931
636.976
636.935
636.843
636.577
636.424
636.592
636.758
636.88
636.917
636.87
636.775
636.542
636.412
636.596
636.778
636.912
636.964
636.935
636.855
636.441
636.38
636.536
636.693
636.786
636.794
636.736
636.653
636.383
636.369
636.538
636.702
636.796
636.808
636.761
636.693
636.306
636.343
636.51
636.658
636.724
636.705
636.635
636.55
539.139
539.007
539.337
539.759
540.055
540.161
540.113
540.019
539.171
539.016
539.344
539.786
540.102
540.227
540.189
540.093
539.105
538.974
539.299
539.719
540.02
540.132
540.086
539.988
539.05
538.967
539.327
539.764
540.073
540.199
540.173
540.076
538.914
538.909
539.28
539.626
539.826
539.842
539.732
539.577
538.845
538.93
539.307
539.646
539.827
539.835
539.738
539.601
538.765
538.94
539.302
539.606
539.729
539.679
539.546
539.356
440.993
441.237
442.129
442.96
443.515
443.674
443.54
443.433
440.999
441.217
442.12
442.999
443.624
443.87
443.829
443.837
440.924
441.192
442.08
442.935
443.528
443.75
443.694
443.702
440.842
441.201
442.128
442.998
443.601
443.844
443.826
443.782
440.757
441.199
442.105
442.792
443.156
443.142
442.878
442.571
440.798
441.313
442.176
442.827
443.12
443.06
442.805
442.449
440.829
441.481
442.262
442.84
443.045
442.903
442.629
442.475
343.882
342.198
344.781
346.402
347.528
347.697
346.586
346.54
343.892
342.12
344.746
346.402
347.629
347.917
346.898
346.911
343.807
342.192
344.613
346.343
347.56
347.832
346.802
346.81
343.535
342.246
344.671
346.445
347.669
348.035
347.447
347.488
343.289
342.433
344.711
346.348
347.224
347.055
346.051
346.831
343.207
342.649
344.85
346.436
347.15
346.714
345.931
347.691
342.777
343.203
345.129
346.581
347.09
346.245
345.759
347.878
230.012
229.204
242.244
249.586
253.318
252.958
251.305
250.993
230.043
228.727
241.932
249.347
253.204
252.961
251.363
251.025
229.321
229.034
242.054
249.483
253.275
253.063
251.565
251.216
228.375
230.218
242.604
249.866
253.415
253.185
251.73
251.506
227.883
232.434
243.807
250.596
253.31
252.064
252.511
253.661
227.303
234.952
245.092
251.229
253.125
251.629
252.718
255.57
226.353
237.333
246.541
252.009
253.305
252.124
252.623
254.136
733.556
733.616
733.717
733.797
733.837
733.838
733.811
733.771
733.526
733.608
733.71
733.787
733.821
733.818
733.791
733.759
733.513
733.612
733.72
733.799
733.835
733.835
733.813
733.785
733.517
733.63
733.745
733.833
733.878
733.886
733.867
733.835
733.516
733.638
733.756
733.844
733.888
733.892
733.867
733.824
733.512
733.641
733.758
733.841
733.876
733.867
733.822
733.751
733.512
733.65
733.77
733.856
733.895
733.89
733.85
733.786
636.248
636.338
636.521
636.68
636.756
636.753
636.703
636.638
636.18
636.322
636.507
636.655
636.715
636.695
636.633
636.58
636.142
636.326
636.521
636.671
636.733
636.721
636.677
636.642
636.141
636.357
636.569
636.735
636.815
636.819
636.78
636.723
636.144
636.381
636.596
636.763
636.841
636.84
636.789
636.701
636.151
636.398
636.614
636.777
636.846
636.83
636.757
636.637
636.158
636.415
636.635
636.802
636.875
636.868
636.807
636.707
538.686
538.96
539.338
539.651
539.789
539.774
539.698
539.591
538.575
538.955
539.317
539.592
539.677
539.602
539.453
539.278
538.499
538.969
539.333
539.596
539.668
539.597
539.485
539.393
538.484
539.023
539.421
539.723
539.844
539.823
539.723
539.503
538.487
539.069
539.48
539.793
539.927
539.922
539.842
539.645
538.5
539.106
539.522
539.839
539.975
539.972
539.89
539.677
538.512
539.131
539.549
539.865
539.997
539.99
539.904
539.712
440.797
441.617
442.352
442.911
443.113
443.009
442.768
442.65
440.699
441.68
442.342
442.818
442.93
442.733
442.329
442.712
440.621
441.728
442.354
442.776
442.825
442.548
442.223
442.602
440.587
441.833
442.498
442.991
443.167
443.104
443.036
443.094
440.586
441.933
442.607
443.117
443.321
443.299
443.257
443.061
440.599
442.007
442.681
443.197
443.415
443.421
443.424
443.244
440.612
442.051
442.71
443.205
443.387
443.349
443.268
442.856
342.569
343.543
345.318
346.708
347.188
346.477
346.184
347.75
342.357
343.82
345.408
346.68
347.037
346.251
345.915
348.44
342.192
344.084
345.508
346.645
346.784
345.893
346.169
348.115
342.123
344.353
345.681
346.778
346.998
346.341
346.435
348.72
342.166
344.633
345.868
346.923
347.166
346.578
346.703
348.497
342.254
344.846
345.99
346.988
347.178
346.639
346.832
348.357
342.304
344.997
346.071
347.014
347.141
346.584
346.582
348.417
224.93
238.897
247.572
252.419
253.226
252.212
252.793
254.482
223.405
240.031
248.378
252.599
252.909
252.455
254.61
255.591
221.956
240.928
248.877
252.608
252.623
253.345
255.092
255.657
220.688
241.478
248.932
252.217
252.132
252.494
253.343
255.518
219.96
242.054
249.164
252.273
252.193
252.521
253.197
255.358
219.569
242.514
249.366
252.33
252.15
252.431
253.005
255.031
219.192
242.93
249.649
252.586
252.431
252.455
253.572
255.601
733.416
733.464
733.551
733.619
733.649
733.64
733.605
733.554
733.457
733.47
733.553
733.622
733.653
733.645
733.609
733.558
733.506
733.487
733.571
733.645
733.683
733.682
733.648
733.596
733.553
733.518
733.601
733.675
733.715
733.714
733.676
733.618
733.601
733.56
733.64
733.714
733.754
733.752
733.711
733.647
733.651
733.604
733.688
733.77
733.823
733.837
733.812
733.761
733.696
733.648
733.735
733.821
733.879
733.898
733.879
733.832
636.089
636.189
636.366
636.517
636.587
636.585
636.539
636.479
636.151
636.196
636.369
636.526
636.608
636.614
636.573
636.518
636.224
636.217
636.394
636.563
636.663
636.686
636.652
636.598
636.299
636.254
636.427
636.593
636.693
636.712
636.667
636.599
636.377
636.304
636.469
636.632
636.733
636.749
636.697
636.614
636.461
636.357
636.524
636.696
636.816
636.858
636.831
636.766
636.543
636.416
636.583
636.759
636.889
636.938
636.911
636.836
538.469
538.82
539.193
539.493
539.613
539.593
539.495
539.227
538.552
538.802
539.187
539.511
539.663
539.663
539.585
539.393
538.637
538.815
539.213
539.572
539.775
539.828
539.783
539.626
538.728
538.829
539.228
539.586
539.79
539.828
539.754
539.633
538.834
538.864
539.259
539.626
539.847
539.896
539.821
539.669
538.95
538.915
539.29
539.684
539.946
540.039
540.021
539.979
539.07
538.978
539.328
539.745
540.037
540.147
540.114
540.032
440.497
441.546
442.225
442.742
442.921
442.816
442.592
443.384
440.546
441.433
442.171
442.743
442.962
442.865
442.58
443.337
440.588
441.348
442.168
442.819
443.125
443.103
442.783
443.083
440.621
441.263
442.132
442.803
443.117
443.071
442.727
442.389
440.691
441.214
442.135
442.841
443.208
443.222
443.006
442.856
440.784
441.208
442.136
442.883
443.326
443.427
443.35
443.388
440.917
441.239
442.14
442.949
443.473
443.616
443.48
443.237
342.377
343.861
345.319
346.508
346.78
346.214
346.581
348.549
342.475
343.521
345.151
346.48
346.927
346.141
345.758
348.476
342.583
343.23
345.074
346.576
347.256
346.924
346.161
348.483
342.75
342.934
344.924
346.477
347.195
346.917
346.07
347.984
343.265
342.566
344.811
346.411
347.167
346.817
345.814
347.348
343.483
342.461
344.747
346.337
347.182
347.031
345.953
346.184
343.748
342.364
344.754
346.416
347.497
347.683
346.949
346.18
222.861
240.183
248.107
251.811
251.783
251.699
253.476
255.339
224.103
239.019
247.425
251.931
252.657
252.081
253.347
255.414
225.164
237.638
246.611
251.946
253.292
252.346
254.423
255.618
226.333
235.825
245.565
251.54
253.349
252.116
253.739
255.564
227.621
233.779
244.55
251.026
253.237
251.778
253.106
254.095
228.559
231.766
243.53
250.36
253.021
251.524
251.144
251.613
229.411
230.224
242.764
250
253.591
253.259
251.546
253.239
830.854
830.851
830.869
733.763
733.735
733.741
733.769
733.816
733.892
733.952
733.955
733.772
733.747
733.754
733.783
733.865
733.918
733.987
734
733.74
733.72
733.728
733.761
733.806
733.875
733.931
733.94
733.702
733.684
733.694
733.763
733.766
733.85
733.895
733.896
733.64
733.621
733.629
733.72
733.699
733.785
733.835
733.834
733.619
733.621
733.696
733.768
733.757
733.83
733.868
733.851
733.629
733.632
733.85
733.796
733.815
733.871
733.897
733.874
636.712
636.765
636.866
636.937
637.288
636.979
637.005
637.026
636.736
636.779
636.894
636.976
637.322
637.048
637.09
637.098
636.685
636.716
636.831
636.905
637.184
636.952
637.003
636.991
636.639
636.681
636.808
636.904
637.098
636.903
636.945
636.936
636.56
636.584
636.702
636.831
636.763
636.816
636.845
636.846
636.582
636.687
636.839
636.896
636.826
636.876
636.903
636.907
636.709
636.925
636.982
636.981
636.927
636.944
636.965
636.954
539.988
540.485
540.366
540.434
540.513
540.355
540.306
540.414
539.982
540.441
540.413
540.467
540.642
540.445
540.403
540.48
539.767
540.339
540.286
540.379
540.57
540.274
540.245
540.259
539.793
540.28
540.205
540.344
540.499
540.191
540.164
540.196
539.709
540.205
540.138
540.225
540.351
540.045
540.019
540.032
540.127
540.045
540.268
540.243
540.536
540.242
540.21
540.273
540.216
540.153
540.234
540.227
540.527
540.122
540.126
540.203
444.574
444.115
444.115
444.079
444.029
444.061
444.021
444.035
444.632
444.186
444.157
444.099
444.016
444.22
444.012
444.205
444.258
443.948
443.949
443.898
443.794
443.897
443.648
443.769
444.221
443.767
443.773
443.757
443.704
443.862
443.641
443.82
444.159
443.648
443.73
443.692
443.643
443.743
443.693
443.928
443.817
443.693
443.63
443.579
443.542
443.742
443.687
443.961
443.648
443.614
443.459
443.478
443.546
443.691
443.396
443.498
348.176
348.355
348.189
347.993
348.068
348.373
348.244
348.173
348.367
348.368
348.157
347.95
347.963
348.072
347.99
348.022
348.265
348.217
348.116
347.885
347.903
347.971
347.882
347.949
348.019
348.007
347.818
347.704
347.737
347.752
347.721
347.735
348.063
348.107
347.836
347.78
347.889
347.893
347.847
347.928
347.976
347.923
347.712
347.699
347.802
347.852
347.804
347.86
347.931
347.745
347.471
347.708
347.905
347.761
347.714
347.639
255.257
255.541
254.863
254.843
256.053
255.131
255.126
255.035
255.676
255.39
254.668
255.162
255.143
254.897
255.144
255.05
255.905
255.418
254.99
255.728
255.151
255.185
255.256
255.163
255.234
254.746
254.744
254.862
254.625
254.727
254.833
254.746
255.022
254.486
254.656
254.919
254.618
254.606
254.614
254.633
254.527
254.091
254.376
254.677
254.532
254.508
254.539
254.56
254.225
253.929
254.916
254.373
254.354
254.518
254.51
254.417
733.805
733.78
733.78
733.818
733.902
734.225
734.197
734.238
733.797
733.762
733.752
733.782
733.859
734.196
734.203
734.249
733.758
733.724
733.716
733.754
733.829
734.143
734.179
734.22
733.817
733.786
733.777
733.798
733.857
734.179
734.167
734.218
733.748
733.734
733.735
733.765
733.814
734.038
734.02
734.054
733.782
733.775
733.78
733.819
733.887
734.019
734.042
734.051
733.739
733.743
733.762
733.799
733.888
733.941
733.971
733.975
636.76
636.687
636.694
636.885
637.291
637.375
637.399
637.338
636.735
636.641
636.637
636.827
637.23
637.344
637.375
637.308
636.663
636.564
636.55
636.763
637.074
637.285
637.307
637.239
636.763
636.687
636.679
636.812
637.148
637.322
637.337
637.286
636.617
636.614
636.656
636.786
637.116
637.104
637.123
637.091
636.667
636.676
636.798
636.936
637.183
637.111
637.131
637.098
636.513
636.517
636.597
636.782
636.933
636.942
636.948
636.905
539.925
539.911
540.642
540.521
540.622
540.678
540.656
540.636
539.969
539.962
540.632
540.526
540.624
540.688
540.662
540.623
539.872
539.856
540.697
540.313
540.444
540.517
540.495
540.457
539.95
539.9
540.444
540.452
540.535
540.593
540.572
540.55
539.564
539.707
540.258
540.291
540.321
540.322
540.296
540.283
539.671
540.165
540.307
540.324
540.394
540.319
540.296
540.307
539.421
539.714
539.941
539.919
539.998
540.014
539.977
539.952
443.483
444.424
444.676
444.215
444.095
443.95
443.954
444.095
444.017
444.459
444.917
444.113
444.066
443.937
443.946
444.064
443.885
444.245
444.737
443.82
443.774
443.63
443.621
443.778
443.821
444.461
444.822
444.133
444.059
443.883
443.84
443.985
443.52
443.693
443.801
443.858
443.777
443.627
443.556
443.605
443.675
443.961
443.912
443.848
443.775
443.744
443.611
443.688
443.45
443.629
443.384
443.296
443.252
443.24
443.171
443.232
347.741
348.567
348.408
348.259
347.805
347.636
347.679
347.777
348.029
348.805
348.55
348.468
347.992
347.769
347.806
347.916
347.836
348.746
348.286
348.17
347.742
347.543
347.528
347.664
348.013
349.069
348.455
348.293
347.869
347.654
347.645
347.827
348.296
348.125
348.239
347.912
347.722
347.693
347.809
347.744
348.043
348.213
347.972
347.633
347.593
347.683
347.83
347.686
347.989
348.116
347.814
347.544
347.449
347.468
347.465
347.433
252.679
253.704
254.552
254.296
253.949
254.35
254.099
254.111
252.985
253.994
254.779
254.412
253.992
254.54
254.225
254.231
252.859
253.825
254.61
254.23
254.003
254.322
254.29
254.235
253.141
254.286
254.745
254.102
254.012
254.314
254.327
254.253
254.923
254.971
254.621
254.277
255.218
254.732
254.785
254.703
254.928
254.476
254.282
254.738
254.85
254.633
254.594
254.451
254.762
254.548
254.208
254.649
254.805
254.491
254.556
254.486
733.753
733.747
733.76
733.79
733.926
733.945
733.978
733.977
733.753
733.754
733.762
733.776
733.882
733.909
733.936
733.932
733.778
733.776
733.774
733.783
733.866
733.918
733.939
733.926
733.827
733.827
733.826
733.831
733.896
733.962
733.986
733.976
733.807
733.802
733.812