/*--------------------------------*- C++ -*----------------------------------*\
| =========                 |                                                 |
| \\      /  F ield         | OpenFOAM: The Open Source CFD Toolbox           |
|  \\    /   O peration     | Version:  plus.master.MPPICInterFoam            |
|   \\  /    A nd           | Web:      www.OpenFOAM.com                      |
|    \\/     M anipulation  |                                                 |
\*---------------------------------------------------------------------------*/
FoamFile
{
    version     2.0;
    format      ascii;
    class       volVectorField;
    location    "14";
    object      U;
}
// * * * * * * * * * * * * * * * * * * * * * * * * * * * * * * * * * * * * * //

dimensions      [0 1 -1 0 0 0 0];

internalField   nonuniform List<vector> 
11822
(
(-0.00298759 -0.00416842 0.475991)
(-0.00177793 -0.00382109 0.469074)
(-0.000748083 -0.00393703 0.442824)
(0.000503614 -0.0035749 0.402634)
(0.00143271 -0.00301305 0.354594)
(0.00195086 -0.00256156 0.304189)
(0.00220847 -0.00221976 0.254342)
(-0.003475 -0.00441209 0.576252)
(-0.00193765 -0.00329996 0.571312)
(-0.000794701 -0.0038933 0.534349)
(0.000944393 -0.00372036 0.475476)
(0.00217264 -0.00292344 0.41182)
(0.00265641 -0.00240175 0.34943)
(0.00283938 -0.00205433 0.290896)
(-0.00429862 -0.00209158 0.737279)
(-0.0014445 0.00158926 0.741832)
(0.000398338 -2.26116e-05 0.668656)
(0.00235703 -0.0024087 0.561061)
(0.00369334 -0.00200107 0.469437)
(0.00375959 -0.00170696 0.391873)
(0.00366231 -0.00151554 0.323648)
(-0.000262703 0.000505253 0.916746)
(0.00264977 -2.48761e-05 0.891812)
(0.00138372 -0.00167164 0.825885)
(0.0013415 -0.000940078 0.654791)
(0.00459173 -0.000359528 0.520297)
(0.00464245 -0.000420679 0.426057)
(0.00434778 -0.000565607 0.349535)
(-0.00259091 0.00361647 1.007)
(-0.00092058 -0.000362713 0.968736)
(-0.00184379 -0.00252626 0.880858)
(0.000738294 0.000523717 0.710905)
(0.00454781 0.0011253 0.549936)
(0.0048199 0.000933118 0.446328)
(0.00459626 0.000503483 0.365267)
(-0.00770462 0.0060327 0.972105)
(-0.00378883 0.000729055 0.984792)
(-0.00171834 -0.000813229 0.884245)
(0.00220732 0.0022868 0.699987)
(0.00497501 0.00259148 0.549366)
(0.00482113 0.00225914 0.448463)
(0.00454574 0.00154332 0.368735)
(-0.00428086 0.00551529 0.811519)
(-0.0016106 0.0034232 0.844074)
(-7.6808e-05 0.00421562 0.765358)
(0.00230656 0.00508798 0.632471)
(0.00378372 0.00421123 0.521151)
(0.00394735 0.00343354 0.434018)
(0.00404099 0.00238114 0.360173)
(-0.00311976 -0.00276384 0.47407)
(-0.0021161 -0.00261832 0.466512)
(-0.00115502 -0.00263598 0.440178)
(-0.000136783 -0.00234039 0.400379)
(0.000626139 -0.00205136 0.352995)
(0.00112778 -0.00185046 0.303337)
(0.00142181 -0.001703 0.254254)
(-0.00353618 -0.00285581 0.571429)
(-0.00231036 -0.00219813 0.565608)
(-0.00131903 -0.00255719 0.528956)
(0.00010633 -0.00237544 0.471557)
(0.0010838 -0.00197279 0.409095)
(0.00160943 -0.00175225 0.347745)
(0.00189211 -0.00161238 0.290161)
(-0.00318568 -0.00220914 0.720407)
(-0.00121853 0.0010333 0.729965)
(-0.000718295 -0.00112791 0.655911)
(0.00126598 -0.00170086 0.55363)
(0.00223233 -0.00140903 0.465409)
(0.00248391 -0.00128433 0.389409)
(0.00256888 -0.0012312 0.322351)
(-0.00037009 -0.00346428 0.887622)
(0.00305973 -0.000570459 0.921656)
(0.000791138 -0.000836016 0.820128)
(0.00275721 -0.000198955 0.644687)
(0.0034688 9.20371e-06 0.515018)
(0.00343105 -0.000219604 0.423058)
(0.00323578 -0.000456706 0.347865)
(0.00377956 -0.00183352 0.980022)
(0.00297875 -0.00339001 0.959554)
(-0.00308025 -0.000953059 0.875748)
(0.00210387 0.000990005 0.701415)
(0.00332429 0.00133551 0.544549)
(0.00358333 0.00101295 0.44324)
(0.00347189 0.000492299 0.363496)
(-0.00320455 0.0029476 0.963007)
(0.0009143 -0.0019355 0.979561)
(5.26907e-05 0.000529682 0.869817)
(0.00329722 0.00253377 0.68722)
(0.00371892 0.00265843 0.544382)
(0.00354005 0.00222884 0.445656)
(0.00339362 0.00142483 0.367153)
(-0.0026498 0.00515017 0.793471)
(-0.000817107 0.00406725 0.8229)
(-0.000787805 0.00513917 0.747842)
(0.0011857 0.00495655 0.623797)
(0.0021358 0.004013 0.517466)
(0.00253986 0.00319562 0.431913)
(0.00286948 0.0020973 0.359046)
(-0.00319779 -0.000593999 0.471963)
(-0.00253287 -0.000623991 0.463835)
(-0.0017775 -0.000655737 0.437314)
(-0.000994267 -0.000779844 0.397742)
(-0.000236197 -0.000999958 0.350888)
(0.000387113 -0.00119939 0.301828)
(0.000819124 -0.0013552 0.253342)
(-0.00410274 0.000177558 0.567851)
(-0.00327695 0.000107408 0.561063)
(-0.00238894 3.90163e-05 0.524333)
(-0.00134959 -0.000421206 0.467742)
(-0.000304867 -0.000793479 0.406133)
(0.00049444 -0.00109378 0.345571)
(0.00102841 -0.00130335 0.288732)
(-0.00474822 0.00151378 0.713455)
(-0.00341684 0.00188939 0.72462)
(-0.00259206 0.0012737 0.648736)
(-0.00112249 -1.57712e-05 0.547994)
(0.000117527 -0.000444724 0.461508)
(0.000927072 -0.000802899 0.386601)
(0.00143203 -0.00104755 0.320455)
(-0.0061693 -0.00131468 0.876645)
(-0.00368704 -0.000819142 0.928798)
(-0.00280026 0.00193743 0.814957)
(-0.000137997 0.000527026 0.637794)
(0.00106262 0.000386543 0.510119)
(0.00165074 -7.72843e-05 0.41981)
(0.00194344 -0.000481932 0.345648)
(-0.00447689 -0.00121516 0.932282)
(-0.00467883 -0.0010798 1.00156)
(-0.00566602 0.00123333 0.8685)
(-7.33307e-05 0.00147828 0.69448)
(0.00131831 0.00140521 0.53933)
(0.00191144 0.000910567 0.439874)
(0.00217322 0.000287883 0.361184)
(-0.00681644 0.00267309 0.914407)
(-0.0017403 0.00442547 0.969199)
(-0.000900416 0.00287182 0.849593)
(0.00132684 0.00336261 0.679069)
(0.00159798 0.00263828 0.539667)
(0.00187758 0.00195521 0.442592)
(0.00211778 0.00107441 0.365008)
(-0.00486447 0.00525549 0.786307)
(-0.00362537 0.00682601 0.814708)
(-0.00299577 0.00526101 0.739744)
(-0.00134841 0.00455389 0.618494)
(2.12904e-05 0.0035132 0.514081)
(0.00096117 0.00265591 0.429503)
(0.00169429 0.00157248 0.357283)
(-0.00327073 0.0012475 0.469451)
(-0.00286327 0.00126297 0.460798)
(-0.00234522 0.000900227 0.434174)
(-0.00168429 0.000267762 0.395015)
(-0.000911862 -0.000409757 0.348898)
(-0.000200371 -0.00092846 0.300791)
(0.000314416 -0.0012693 0.2534)
(-0.00447175 0.0025724 0.564248)
(-0.00411312 0.00247198 0.556085)
(-0.00349384 0.0020368 0.519392)
(-0.00255834 0.000966347 0.463603)
(-0.00137959 -2.73756e-05 0.403051)
(-0.000333366 -0.000732026 0.343593)
(0.000427418 -0.00117855 0.28789)
(-0.00653787 0.00450161 0.709648)
(-0.00648014 0.00394104 0.718775)
(-0.00486636 0.00227347 0.643225)
(-0.00307553 0.0011242 0.54226)
(-0.00155627 0.000247111 0.457358)
(-0.000271321 -0.000488924 0.383821)
(0.000627994 -0.000963567 0.318887)
(-0.0142459 0.00738858 0.893388)
(-0.0137169 0.00934784 0.936815)
(-0.00721573 0.00822567 0.817863)
(-0.00198542 0.00192746 0.63112)
(-0.00093387 0.000815224 0.505113)
(0.000125018 3.96548e-05 0.416513)
(0.000933285 -0.00052866 0.343588)
(-0.0135284 0.00745401 0.928839)
(-0.0141376 0.0119631 0.970182)
(-0.00457873 0.00715094 0.83965)
(-0.00316992 0.00313861 0.681833)
(-0.00076271 0.00165876 0.53387)
(0.000269822 0.000814855 0.436472)
(0.00105578 8.24235e-05 0.358931)
(-0.0118134 0.00581653 0.898473)
(-0.00872077 0.00945242 0.959778)
(-0.00411023 0.00566191 0.837127)
(-0.00290986 0.00406593 0.671936)
(-0.00095066 0.00249849 0.535134)
(0.000107335 0.00158521 0.439465)
(0.000961156 0.000706831 0.362851)
(-0.0075902 0.00366156 0.789177)
(-0.00773082 0.00603516 0.81754)
(-0.00656365 0.00359423 0.738444)
(-0.00442312 0.00351505 0.614938)
(-0.00216183 0.0027034 0.510805)
(-0.000579401 0.00201679 0.426914)
(0.000646696 0.00109714 0.355482)
(-0.00369115 0.000770701 0.463943)
(-0.0029254 0.000925514 0.454938)
(-0.00207417 -9.78696e-05 0.428285)
(-0.000810728 -0.00125629 0.389359)
(0.00064777 -0.00233669 0.343591)
(0.00208676 -0.00324316 0.295915)
(0.00331789 -0.00397128 0.24892)
(-0.0046969 0.0025674 0.558199)
(-0.00420593 0.00308621 0.548952)
(-0.00341225 0.00147272 0.512595)
(-0.00186088 -6.88873e-05 0.457303)
(-8.15908e-05 -0.00136271 0.397179)
(0.0016503 -0.00245609 0.338197)
(0.00314537 -0.00328633 0.283042)
(-0.00779856 0.00496318 0.703997)
(-0.00747759 0.00464277 0.704259)
(-0.00450307 0.00151841 0.633907)
(-0.00226505 0.000745993 0.534936)
(-0.000587687 -0.000367824 0.450915)
(0.00129691 -0.00155734 0.377913)
(0.00299275 -0.00242471 0.313623)
(-0.0155689 0.0122911 0.891652)
(-0.01418 0.013594 0.871516)
(-0.00657628 0.00849229 0.762721)
(-0.00241095 0.0031856 0.620939)
(-0.00111025 0.000707666 0.497972)
(0.00095995 -0.00060963 0.410181)
(0.00282977 -0.00147727 0.337961)
(-0.0168699 0.0153896 0.971997)
(-0.0172209 0.0177344 0.958593)
(-0.00995639 0.0110101 0.858062)
(-0.00653831 0.00382066 0.668392)
(-0.00197755 0.00125193 0.526084)
(0.00056916 0.000218433 0.429883)
(0.00262812 -0.000531831 0.353059)
(-0.0162534 0.00949353 0.913502)
(-0.0139893 0.0119441 0.967742)
(-0.00702913 0.00536463 0.842832)
(-0.00509296 0.00256082 0.663994)
(-0.0017978 0.00157712 0.528086)
(0.000519136 0.00104919 0.432977)
(0.00249799 0.000443954 0.356932)
(-0.0101395 0.00364718 0.800686)
(-0.00992042 0.00477511 0.828558)
(-0.00753488 0.00219059 0.737767)
(-0.00491583 0.00217638 0.609126)
(-0.00222028 0.002065 0.50454)
(0.000157264 0.0018923 0.420747)
(0.00223591 0.00134063 0.349651)
(-0.00524787 -0.00038297 0.458517)
(-0.00353612 -0.000878514 0.448738)
(-0.00184121 -0.00264807 0.422138)
(0.000351415 -0.00420843 0.38368)
(0.00257688 -0.00553677 0.338962)
(0.00463468 -0.00660742 0.293008)
(0.00643987 -0.00733597 0.248529)
(-0.00574883 0.00173329 0.551943)
(-0.00447092 0.0020708 0.541939)
(-0.00295259 -0.000567891 0.505513)
(-0.000530534 -0.00236704 0.450328)
(0.00197481 -0.00384406 0.390835)
(0.00437678 -0.00510315 0.333288)
(0.00658249 -0.00596285 0.280282)
(-0.00807066 0.00428198 0.697758)
(-0.00677297 0.00445126 0.695881)
(-0.00332337 0.00129287 0.624517)
(-0.000860635 -0.000445806 0.527297)
(0.00134823 -0.00194669 0.44351)
(0.00392553 -0.00340702 0.371603)
(0.00641936 -0.00437556 0.309244)
(-0.0116913 0.00907265 0.883823)
(-0.0091801 0.00622306 0.846678)
(-0.00440905 0.00220828 0.738458)
(-0.00333133 0.00202784 0.611163)
(-0.000123062 -0.00031677 0.489889)
(0.00309786 -0.00177645 0.402944)
(0.00599117 -0.00269156 0.332576)
(-0.0174697 0.0122524 0.985662)
(-0.0150144 0.00965245 0.946425)
(-0.0118348 0.00436042 0.851784)
(-0.00621257 0.00177194 0.659671)
(-0.00144531 0.000160372 0.517529)
(0.00225428 -0.000518589 0.422185)
(0.00543439 -0.00107684 0.347257)
(-0.0206573 0.0110453 0.964042)
(-0.01465 0.00902945 0.969856)
(-0.0063825 0.00276245 0.849255)
(-0.00401313 0.000611437 0.6564)
(-0.000918676 0.000811096 0.519771)
(0.00215059 0.000951107 0.425467)
(0.00501297 0.000663124 0.351355)
(-0.0124315 0.00676219 0.806988)
(-0.00997811 0.00536874 0.827672)
(-0.00709873 0.00296189 0.731778)
(-0.00428423 0.00237759 0.601677)
(-0.00149346 0.00264894 0.49696)
(0.00143501 0.0028756 0.414024)
(0.00411627 0.00259691 0.344981)
(0.00204196 -0.00198478 0.212164)
(0.00175215 -0.00179199 0.179624)
(0.00145735 -0.00159307 0.149646)
(0.00113919 -0.00139126 0.122435)
(0.000798872 -0.00118915 0.0978265)
(0.000446042 -0.0009972 0.0752091)
(9.31155e-05 -0.000834757 0.052918)
(-0.000273765 -0.000730236 0.0249035)
(0.00261271 -0.00191989 0.240586)
(0.00224091 -0.00184418 0.200043)
(0.00185093 -0.00178106 0.164281)
(0.0014224 -0.00172828 0.132591)
(0.000959202 -0.00168089 0.104397)
(0.000477867 -0.0016386 0.0788559)
(6.21782e-06 -0.00160576 0.0540645)
(-0.000435938 -0.00155799 0.0232717)
(0.00331836 -0.00153377 0.266763)
(0.00289372 -0.0016213 0.221163)
(0.00242877 -0.00173839 0.181314)
(0.00192242 -0.00187346 0.146379)
(0.00138083 -0.00201564 0.115588)
(0.000822871 -0.00215688 0.0879419)
(0.000281503 -0.0022904 0.0613561)
(-0.000213349 -0.00236905 0.0285616)
(0.0039191 -0.000801422 0.288561)
(0.0034815 -0.00108169 0.240749)
(0.00299635 -0.00140454 0.199118)
(0.00247619 -0.00175065 0.162745)
(0.00192828 -0.00210236 0.130779)
(0.00137023 -0.00244425 0.102144)
(0.000833247 -0.00275836 0.0746387)
(0.000343156 -0.00297171 0.0405616)
(0.00419391 8.72615e-05 0.303482)
(0.00380008 -0.000354139 0.256859)
(0.003367 -0.000859008 0.216195)
(0.00291433 -0.00139644 0.180566)
(0.00244629 -0.00193919 0.149138)
(0.00197527 -0.00246382 0.120843)
(0.00152468 -0.00294347 0.0934399)
(0.0011027 -0.0032897 0.058909)
(0.0041414 0.000978172 0.310211)
(0.00378727 0.000419378 0.268492)
(0.00344807 -0.000216915 0.231706)
(0.00312531 -0.000887066 0.199073)
(0.00280855 -0.00155933 0.169947)
(0.00249878 -0.00220475 0.143386)
(0.00220427 -0.00279002 0.117204)
(0.00190835 -0.00321376 0.0832232)
(0.00382901 0.0015537 0.308453)
(0.00358929 0.000916027 0.275969)
(0.00338779 0.000224465 0.245599)
(0.00322494 -0.000490343 0.217824)
(0.00308369 -0.00120868 0.192475)
(0.00296437 -0.00190551 0.168829)
(0.00287125 -0.0025543 0.144806)
(0.00277722 -0.00307628 0.11206)
(0.00136941 -0.00160029 0.212752)
(0.00118558 -0.00149731 0.180753)
(0.000981002 -0.0013824 0.151266)
(0.000745389 -0.00125787 0.124493)
(0.000486402 -0.00113046 0.100268)
(0.000214328 -0.0010099 0.0779856)
(-6.70626e-05 -0.000906192 0.0560026)
(-0.000341442 -0.000858431 0.0283299)
(0.00181054 -0.00158693 0.240672)
(0.00158094 -0.00158366 0.200804)
(0.00131287 -0.00158741 0.165633)
(0.000995134 -0.00159029 0.134456)
(0.000640522 -0.00159048 0.1067)
(0.00026748 -0.00158872 0.0815343)
(-0.000106591 -0.00158165 0.0570815)
(-0.000420956 -0.00154847 0.0266902)
(0.00240006 -0.00132533 0.266411)
(0.0021354 -0.00146198 0.221571)
(0.00181696 -0.00161703 0.182379)
(0.00144489 -0.00177887 0.148004)
(0.00103231 -0.00193953 0.117683)
(0.000599961 -0.00209327 0.0904261)
(0.000169466 -0.00222988 0.0641718)
(-0.000193252 -0.00229987 0.0317356)
(0.0029545 -0.000742169 0.287901)
(0.00266863 -0.00104522 0.240882)
(0.00233433 -0.00137538 0.199927)
(0.00195859 -0.00171695 0.164126)
(0.00155041 -0.00205625 0.132633)
(0.00112681 -0.00238126 0.104379)
(0.000708079 -0.00267556 0.0771792)
(0.000342079 -0.00286356 0.0433897)
(0.00320902 2.49573e-05 0.302706)
(0.00295659 -0.000423306 0.256845)
(0.00267106 -0.000913059 0.216828)
(0.00236322 -0.0014185 0.181743)
(0.00203563 -0.00191867 0.150762)
(0.00169807 -0.00239567 0.122821)
(0.00136478 -0.00282849 0.0956898)
(0.00105328 -0.0031314 0.061382)
(0.00313246 0.000808656 0.309528)
(0.00291753 0.000257827 0.268481)
(0.00272197 -0.00034248 0.232265)
(0.00253739 -0.000954755 0.200114)
(0.00235134 -0.00155519 0.171385)
(0.00216212 -0.00212257 0.145139)
(0.00197173 -0.002632 0.119194)
(0.00176627 -0.00298945 0.0853847)
(0.00282115 0.00127078 0.308046)
(0.00270237 0.000667956 0.276089)
(0.00262731 3.80936e-05 0.246181)
(0.00258156 -0.000592329 0.218807)
(0.00254794 -0.00121105 0.193794)
(0.00252433 -0.00180144 0.17042)
(0.0025107 -0.00234617 0.146612)
(0.0024798 -0.00277675 0.114051)
(0.000911268 -0.00143149 0.212346)
(0.000822783 -0.00141888 0.180728)
(0.000674708 -0.00136274 0.151544)
(0.00046555 -0.00127163 0.12497)
(0.000206862 -0.00115671 0.100809)
(-7.82515e-05 -0.00103998 0.0784199)
(-0.000348903 -0.00096368 0.0560776)
(-0.000644648 -0.000907445 0.0274484)
(0.00117439 -0.00147762 0.239891)
(0.00110185 -0.00158826 0.200536)
(0.000932605 -0.00167357 0.165777)
(0.000670858 -0.00173377 0.13489)
(0.000333979 -0.00177647 0.107278)
(-4.56114e-05 -0.00181823 0.082071)
(-0.000406222 -0.00189155 0.0573104)
(-0.000789819 -0.00196119 0.0259964)
(0.00158115 -0.00130819 0.265275)
(0.00153448 -0.00154367 0.221041)
(0.00136794 -0.00177097 0.182345)
(0.00109352 -0.00198839 0.148341)
(0.000730986 -0.00219768 0.118243)
(0.000317195 -0.00240638 0.0910321)
(-7.88664e-05 -0.00263139 0.064575)
(-0.000492263 -0.00284567 0.0313816)
(0.00201336 -0.00086651 0.286504)
(0.00197063 -0.0012246 0.240127)
(0.00181881 -0.00159321 0.199705)
(0.00157154 -0.00196611 0.164318)
(0.00124333 -0.00233691 0.133105)
(0.000866067 -0.00270125 0.104974)
(0.000503366 -0.00305545 0.0776913)
(0.000128735 -0.00335811 0.0433962)
(0.00222904 -0.000233417 0.301198)
(0.00220819 -0.00069311 0.255954)
(0.00210673 -0.00118285 0.216452)
(0.00193735 -0.00168486 0.181777)
(0.00170614 -0.0021844 0.151093)
(0.00143436 -0.00266694 0.123321)
(0.00116897 -0.00311178 0.0962012)
(0.000883922 -0.00345829 0.0616165)
(0.00215602 0.000436031 0.308084)
(0.00214907 -9.03175e-05 0.267567)
(0.00212109 -0.000654329 0.231802)
(0.0020663 -0.00122719 0.20002)
(0.00197583 -0.00179113 0.171571)
(0.00185745 -0.00232624 0.145504)
(0.00173528 -0.00280204 0.119622)
(0.00157515 -0.00313811 0.0856769)
(0.0019012 0.000788733 0.306813)
(0.00193498 0.000243852 0.27526)
(0.00199199 -0.000317284 0.245712)
(0.0020497 -0.000874796 0.218645)
(0.00209505 -0.00142181 0.193875)
(0.00213255 -0.00194227 0.170673)
(0.0021751 -0.00241331 0.14696)
(0.00219436 -0.00277463 0.114391)
(0.000539284 -0.00146812 0.21351)
(0.000530808 -0.00155955 0.182877)
(0.000413495 -0.00157849 0.154719)
(0.000188875 -0.0015348 0.129204)
(-0.000106181 -0.00145518 0.106152)
(-0.000443609 -0.00136163 0.0849833)
(-0.000852267 -0.00123287 0.0641921)
(-0.00109923 -0.00127021 0.0383072)
(0.000798574 -0.00145935 0.240217)
(0.000887246 -0.00163239 0.201964)
(0.000801232 -0.00174628 0.168318)
(0.000560769 -0.00179757 0.138568)
(0.000212149 -0.00179655 0.112133)
(-0.000201539 -0.00175236 0.0882095)
(-0.00069479 -0.00163284 0.0650713)
(-0.000899689 -0.00150744 0.0367684)
(0.00109551 -0.00132809 0.264903)
(0.00127482 -0.00161271 0.221788)
(0.00124757 -0.00185128 0.184217)
(0.00104038 -0.00204262 0.15135)
(0.000697646 -0.00218714 0.122412)
(0.000260944 -0.00228233 0.0964339)
(-0.000290744 -0.00229217 0.0714971)
(-0.000558374 -0.00215894 0.0410802)
(0.00139745 -0.000982333 0.285623)
(0.00163729 -0.00135906 0.240319)
(0.00168267 -0.00171507 0.200965)
(0.00155952 -0.00204651 0.166642)
(0.00130163 -0.00234673 0.136493)
(0.000940199 -0.00260563 0.109455)
(0.000453333 -0.002793 0.0834589)
(0.000162026 -0.00274753 0.0514402)
(0.00152964 -0.000465307 0.300047)
(0.00181493 -0.000896819 0.255772)
(0.00194476 -0.00133264 0.217225)
(0.00194061 -0.00176305 0.183487)
(0.00182595 -0.0021772 0.153717)
(0.0016194 -0.00256296 0.12685)
(0.00129112 -0.00290352 0.10074)
(0.00103791 -0.00301614 0.067854)
(0.00143588 0.000107485 0.306905)
(0.00172959 -0.000327682 0.267213)
(0.00193173 -0.000779923 0.232252)
(0.00204902 -0.00123658 0.201248)
(0.00209239 -0.00168686 0.173542)
(0.00206873 -0.00212011 0.148182)
(0.00194212 -0.00253393 0.123043)
(0.00179158 -0.00276763 0.0902612)
(0.00120662 0.000474455 0.305822)
(0.00145422 0.00010734 0.2749)
(0.00168734 -0.000274407 0.245983)
(0.00187693 -0.000662767 0.219526)
(0.00202783 -0.00105391 0.195329)
(0.00214311 -0.00144355 0.172653)
(0.00219465 -0.0018457 0.14946)
(0.00219215 -0.00215711 0.117643)
(0.00398993 -0.00448225 0.209224)
(0.00417623 -0.00480084 0.178524)
(0.00417914 -0.00494923 0.150005)
(0.00396522 -0.00492332 0.123651)
(0.00352632 -0.00472074 0.0990332)
(0.00292074 -0.00439411 0.0751897)
(0.00235033 -0.00412038 0.049848)
(0.000953377 -0.00318795 0.0149133)
(0.00407683 -0.00392537 0.235784)
(0.00453779 -0.00440701 0.197688)
(0.00473404 -0.00475901 0.163907)
(0.00465737 -0.0049827 0.133555)
(0.00428617 -0.00508677 0.10579)
(0.00367313 -0.00512122 0.0793909)
(0.00307303 -0.00524334 0.0517873)
(0.0012788 -0.00489763 0.0140583)
(0.00413699 -0.00311142 0.260161)
(0.00484204 -0.00366959 0.217335)
(0.00525345 -0.00413165 0.179795)
(0.00535916 -0.00451521 0.146542)
(0.00512998 -0.00484042 0.116556)
(0.00461314 -0.00515523 0.0884595)
(0.00411262 -0.0055809 0.0595064)
(0.00216551 -0.00584844 0.020342)
(0.00410606 -0.00212466 0.280557)
(0.00495334 -0.0026402 0.23558)
(0.00550401 -0.00311942 0.196333)
(0.00574566 -0.00357876 0.16176)
(0.00564591 -0.00404143 0.130796)
(0.00525805 -0.00454403 0.102033)
(0.00492882 -0.00514256 0.0727048)
(0.00309914 -0.00590256 0.0333667)
(0.00394623 -0.00106598 0.294721)
(0.00479518 -0.00144905 0.250729)
(0.0053745 -0.00186438 0.212274)
(0.00567451 -0.00231789 0.178332)
(0.00566318 -0.00283012 0.1479)
(0.00539943 -0.00341781 0.119658)
(0.00523885 -0.00405257 0.0909407)
(0.00371681 -0.00511462 0.0524267)
(0.00368436 2.79057e-05 0.301436)
(0.0043665 -0.000216967 0.261922)
(0.00485022 -0.000538786 0.226985)
(0.00511882 -0.000943247 0.19577)
(0.00513773 -0.00145258 0.167503)
(0.00496469 -0.00206209 0.141063)
(0.00492304 -0.00265867 0.113982)
(0.00380378 -0.00384768 0.0771777)
(0.00330401 0.000948957 0.300284)
(0.00370907 0.000815451 0.2694)
(0.00403316 0.000587217 0.240425)
(0.00421141 0.00024484 0.213735)
(0.00422076 -0.000243028 0.189047)
(0.00411381 -0.000853436 0.165515)
(0.00414001 -0.00141282 0.140877)
(0.00345402 -0.0026198 0.106249)
(0.00785992 -0.00812107 0.212022)
(0.00848247 -0.00894658 0.18488)
(0.00877768 -0.00950454 0.161034)
(0.00853645 -0.00970496 0.140709)
(0.00766585 -0.00949455 0.123945)
(0.00609092 -0.00884539 0.110791)
(0.00388391 -0.00786304 0.101902)
(-0.00015703 -0.00554251 0.101108)
(0.00840685 -0.00662268 0.235906)
(0.00963692 -0.00728931 0.201229)
(0.0104095 -0.00775197 0.171877)
(0.0105924 -0.00791593 0.147305)
(0.0100565 -0.00769493 0.127219)
(0.00870238 -0.00702322 0.11151)
(0.00668514 -0.0059339 0.100836)
(0.00263938 -0.00358354 0.099796)
(0.00846252 -0.0050671 0.258419)
(0.0100383 -0.00564084 0.21873)
(0.0111718 -0.00601741 0.185313)
(0.0117234 -0.00614537 0.157522)
(0.0115103 -0.00596486 0.134918)
(0.0103487 -0.00540962 0.117287)
(0.00834542 -0.00444072 0.105165)
(0.00395407 -0.00249079 0.103148)
(0.00822838 -0.00327409 0.277669)
(0.00997852 -0.00364753 0.235599)
(0.0113011 -0.00386461 0.200201)
(0.0120582 -0.00390496 0.170764)
(0.01205 -0.00374594 0.146771)
(0.0110569 -0.00334491 0.127936)
(0.00908784 -0.00259805 0.114689)
(0.0043014 -0.00123259 0.110986)
(0.0077097 -0.00140494 0.291371)
(0.00939902 -0.00146311 0.25012)
(0.0106905 -0.0014309 0.215285)
(0.0114611 -0.00130818 0.186163)
(0.0115354 -0.00110369 0.162253)
(0.0106988 -0.000811731 0.143272)
(0.00882809 -0.000340503 0.129545)
(0.0038137 0.00011285 0.123945)
(0.00704796 0.000538728 0.298329)
(0.00840837 0.000799582 0.26144)
(0.0094472 0.00110682 0.229946)
(0.0100453 0.00141945 0.203274)
(0.0100701 0.00169442 0.181091)
(0.00934651 0.00187994 0.163197)
(0.00766763 0.00196096 0.149836)
(0.00286731 0.00110254 0.142809)
(0.00583846 0.00272487 0.298109)
(0.00656239 0.00343296 0.269659)
(0.00713935 0.00412131 0.243952)
(0.00737219 0.00472311 0.221551)
(0.00717618 0.00518256 0.202544)
(0.00641328 0.00542386 0.186894)
(0.00488022 0.00535279 0.174779)
(0.000678481 0.00352662 0.166697)
(-0.00599202 0.00517783 0.712735)
(-0.00526257 0.00470477 0.641555)
(-0.00419341 0.00429857 0.590668)
(-0.00317168 0.00392795 0.547794)
(-0.00216485 0.00356665 0.510277)
(-0.00113047 0.00314283 0.475729)
(-4.34536e-05 0.00272984 0.439464)
(0.00101475 0.00246911 0.383294)
(-0.00983505 0.00408292 0.826149)
(-0.0107674 0.00403803 0.702776)
(-0.00934127 0.00424504 0.628204)
(-0.00748715 0.00426084 0.574378)
(-0.00557105 0.00402044 0.529624)
(-0.00373172 0.00353167 0.490028)
(-0.00195322 0.00293471 0.450106)
(-0.000358589 0.00236501 0.3907)
(-0.00786421 0.00138326 0.870134)
(-0.0115684 0.00126422 0.720906)
(-0.0112114 0.00167998 0.633133)
(-0.00960796 0.00195839 0.574127)
(-0.00756566 0.00192241 0.525906)
(-0.0054294 0.00154313 0.483904)
(-0.0033332 0.000933236 0.442283)
(-0.00149951 0.000179726 0.381683)
(-0.00791834 -0.000120757 0.790737)
(-0.010663 -0.000592991 0.671753)
(-0.010297 -0.000656752 0.596653)
(-0.00893519 -0.000576427 0.542183)
(-0.00713249 -0.000640407 0.496633)
(-0.00515562 -0.000927461 0.456447)
(-0.00315995 -0.00141342 0.416431)
(-0.00137567 -0.00206455 0.358075)
(-0.00717823 -0.00211908 0.653813)
(-0.00775591 -0.00231343 0.58295)
(-0.00713465 -0.00237857 0.530958)
(-0.00606392 -0.00239647 0.486681)
(-0.00470909 -0.00249463 0.447939)
(-0.00318983 -0.00272577 0.412729)
(-0.00162074 -0.00313303 0.376792)
(-0.000161109 -0.00377605 0.323478)
(-0.00476115 -0.00317968 0.539395)
(-0.00460168 -0.00281538 0.495963)
(-0.00405647 -0.00272603 0.457319)
(-0.00326293 -0.0027937 0.422348)
(-0.00227212 -0.00291935 0.390558)
(-0.00115446 -0.00310663 0.36075)
(2.24259e-05 -0.00338932 0.329555)
(0.00114589 -0.0038171 0.282594)
(-0.00346875 -0.00323354 0.454132)
(-0.00299566 -0.00296038 0.420229)
(-0.002355 -0.00292335 0.389029)
(-0.00157243 -0.00298577 0.360192)
(-0.000686663 -0.00307514 0.333475)
(0.000268153 -0.00319427 0.307946)
(0.00126754 -0.00336377 0.280781)
(0.00225545 -0.00363637 0.239623)
(-0.00503844 0.00422205 0.706155)
(-0.0042589 0.00357372 0.640951)
(-0.00337695 0.00336944 0.592223)
(-0.00260509 0.00326714 0.550682)
(-0.00183897 0.00302831 0.514076)
(-0.00099785 0.00267946 0.480164)
(-6.71501e-05 0.00234284 0.444333)
(0.000884302 0.00216381 0.388345)
(-0.00963072 0.00360613 0.802796)
(-0.0101717 0.00388592 0.697671)
(-0.0082745 0.00406679 0.628454)
(-0.00642402 0.00415926 0.576809)
(-0.00474547 0.00382031 0.533311)
(-0.00319735 0.00323594 0.494524)
(-0.00169098 0.00260768 0.455125)
(-0.000313819 0.00206569 0.395966)
(-0.00756265 -0.000320227 0.833186)
(-0.0112141 0.00109635 0.711396)
(-0.0100732 0.00191316 0.632398)
(-0.00831279 0.00230986 0.576043)
(-0.00643962 0.00216522 0.529223)
(-0.00459494 0.00165968 0.488089)
(-0.0028168 0.000986673 0.447069)
(-0.00125703 0.000228515 0.386755)
(-0.00816231 -0.00169127 0.768532)
(-0.0100396 -0.000546708 0.666033)
(-0.00918289 -1.39255e-05 0.596301)
(-0.007746 0.000172262 0.543798)
(-0.00609328 3.41137e-05 0.499442)
(-0.00437602 -0.000355437 0.460078)
(-0.00267914 -0.000916108 0.420632)
(-0.00116812 -0.00162157 0.36256)
(-0.00643786 -0.0017254 0.646078)
(-0.0068543 -0.00139086 0.580948)
(-0.00620767 -0.00128593 0.531059)
(-0.00522186 -0.00131542 0.488033)
(-0.00403189 -0.00150219 0.45018)
(-0.00273091 -0.0018395 0.415642)
(-0.00139577 -0.002346 0.380181)
(-0.000136438 -0.00309002 0.327212)
(-0.00450675 -0.0018531 0.537111)
(-0.00427216 -0.0015595 0.495346)
(-0.003725 -0.00154145 0.457733)
(-0.00297632 -0.00169018 0.423548)
(-0.00207992 -0.00191546 0.392386)
(-0.00109136 -0.00220425 0.363082)
(-5.84739e-05 -0.0025799 0.332287)
(0.000942722 -0.00310096 0.285632)
(-0.00336359 -0.00205637 0.453309)
(-0.00286243 -0.00191096 0.420201)
(-0.00224358 -0.00194721 0.389628)
(-0.00151948 -0.00208249 0.36131)
(-0.000715508 -0.00225257 0.335034)
(0.000136558 -0.00244985 0.309871)
(0.00102086 -0.00269028 0.283002)
(0.00190517 -0.00302548 0.24207)
(-0.00537552 0.00400247 0.705384)
(-0.00428531 0.00346655 0.642834)
(-0.00357276 0.0032883 0.594937)
(-0.00293117 0.00309582 0.553937)
(-0.00221262 0.00270807 0.517788)
(-0.00136355 0.00228339 0.484272)
(-0.000412789 0.0019298 0.448758)
(0.000588827 0.00178014 0.392925)
(-0.0107995 0.00460456 0.789016)
(-0.00922958 0.00441714 0.697108)
(-0.00718564 0.0042234 0.630628)
(-0.00567295 0.00389056 0.579935)
(-0.00434358 0.00326172 0.536997)
(-0.0030379 0.00259358 0.498665)
(-0.00170699 0.00200019 0.459632)
(-0.000433746 0.00158102 0.400667)
(-0.00967027 0.00128343 0.814701)
(-0.00936545 0.00253641 0.709977)
(-0.00785457 0.00293077 0.63395)
(-0.00650136 0.00274981 0.578574)
(-0.00512516 0.00220651 0.532371)
(-0.00373995 0.00154396 0.491769)
(-0.00234772 0.00085565 0.451211)
(-0.00108075 0.000171431 0.391133)
(-0.00827007 0.000557568 0.761296)
(-0.00805527 0.0016469 0.664662)
(-0.00712516 0.00169237 0.597106)
(-0.00601607 0.00136897 0.545472)
(-0.00478483 0.000861741 0.50178)
(-0.00350094 0.000265981 0.463035)
(-0.00219408 -0.000395116 0.42404)
(-0.000989221 -0.00115399 0.36629)
(-0.00564752 0.00150926 0.642811)
(-0.00542771 0.00104716 0.580082)
(-0.00488252 0.000598673 0.531261)
(-0.00412978 0.000172092 0.488964)
(-0.00322764 -0.000303054 0.451754)
(-0.00222132 -0.000835405 0.417764)
(-0.00115948 -0.00147234 0.38274)
(-0.000128316 -0.00232841 0.330135)
(-0.0041691 0.000740824 0.535308)
(-0.00368716 0.000424281 0.494563)
(-0.00316281 6.79898e-05 0.457639)
(-0.00253434 -0.000332951 0.424056)
(-0.0017969 -0.000747793 0.393422)
(-0.000980345 -0.00117709 0.364557)
(-0.000121771 -0.0016618 0.334128)
(0.000726125 -0.0022868 0.287776)
(-0.00308554 -0.000230486 0.452098)
(-0.00253914 -0.000437715 0.419552)
(-0.00197067 -0.000691208 0.389476)
(-0.00134352 -0.000984146 0.361597)
(-0.000664888 -0.0012758 0.335687)
(5.23076e-05 -0.00156987 0.310842)
(0.000796824 -0.00189421 0.284232)
(0.00155142 -0.00231365 0.243499)
(-0.00623501 0.00364413 0.710764)
(-0.00521028 0.00372043 0.647022)
(-0.00474486 0.00362948 0.598626)
(-0.00415502 0.0031667 0.557732)
(-0.00334306 0.0025892 0.521945)
(-0.00234214 0.00205806 0.488873)
(-0.00121051 0.0016253 0.453753)
(3.14751e-05 0.00139827 0.398152)
(-0.0103541 0.00602531 0.790244)
(-0.00770964 0.00501825 0.702239)
(-0.00659438 0.00432695 0.634592)
(-0.0057818 0.00349456 0.583693)
(-0.0047949 0.00272999 0.541002)
(-0.00358105 0.00210632 0.503126)
(-0.00220565 0.00159877 0.464541)
(-0.000760645 0.0012647 0.405866)
(-0.008934 0.00644798 0.815312)
(-0.00659802 0.00526832 0.713173)
(-0.00601007 0.0041722 0.636948)
(-0.00549338 0.00313819 0.581389)
(-0.00470581 0.00227844 0.535516)
(-0.00366646 0.00157532 0.495476)
(-0.00244224 0.000940705 0.455472)
(-0.00116339 0.000322401 0.395792)
(-0.0091751 0.00615134 0.764152)
(-0.00674485 0.0048468 0.666243)
(-0.00589991 0.00356501 0.598324)
(-0.00520686 0.00254065 0.546943)
(-0.00439638 0.00171113 0.503851)
(-0.00341258 0.00100371 0.465803)
(-0.00227573 0.000318662 0.427425)
(-0.00107474 -0.00045543 0.370156)
(-0.00537076 0.00465488 0.641045)
(-0.00464306 0.00333829 0.579223)
(-0.00425443 0.00232366 0.531025)
(-0.00381337 0.00154255 0.489433)
(-0.00321745 0.000879243 0.452981)
(-0.00243812 0.000260263 0.419699)
(-0.0015049 -0.000409002 0.385235)
(-0.000461703 -0.00128589 0.33309)
(-0.00404048 0.00296481 0.533114)
(-0.0035227 0.00218701 0.493197)
(-0.00316254 0.00152413 0.457027)
(-0.00275395 0.000932222 0.424173)
(-0.00222317 0.000409941 0.39422)
(-0.00156572 -7.17669e-05 0.365939)
(-0.000798117 -0.000572857 0.335941)
(6.67066e-05 -0.00119707 0.289953)
(-0.00309478 0.00136265 0.450405)
(-0.00265568 0.000837379 0.418502)
(-0.00226295 0.000385559 0.389051)
(-0.00181695 -2.27564e-05 0.361762)
(-0.00130621 -0.000385428 0.336376)
(-0.000729683 -0.000718715 0.311936)