/*--------------------------------*- C++ -*----------------------------------*\
| =========                 |                                                 |
| \\      /  F ield         | OpenFOAM: The Open Source CFD Toolbox           |
|  \\    /   O peration     | Version:  plus.master.MPPICInterFoam            |
|   \\  /    A nd           | Web:      www.OpenFOAM.com                      |
|    \\/     M anipulation  |                                                 |
\*---------------------------------------------------------------------------*/
FoamFile
{
    version     2.0;
    format      ascii;
    class       volScalarField;
    location    "4";
    object      epsilon;
}
// * * * * * * * * * * * * * * * * * * * * * * * * * * * * * * * * * * * * * //

dimensions      [0 2 -3 0 0 0 0];

internalField   nonuniform List<scalar> 
11821
(
0.000105177
5.29612e-05
4.90922e-05
5.02513e-05
5.18643e-05
5.28596e-05
5.28879e-05
5.18317e-05
0.000105266
5.30274e-05
4.90898e-05
5.02291e-05
5.18413e-05
5.28443e-05
5.28839e-05
5.18395e-05
0.00010536
5.30529e-05
4.90847e-05
5.02157e-05
5.18283e-05
5.28352e-05
5.28794e-05
5.18394e-05
0.000105425
5.30652e-05
4.90809e-05
5.02081e-05
5.18208e-05
5.28296e-05
5.28765e-05
5.18392e-05
0.000105467
5.30551e-05
4.90776e-05
5.02078e-05
5.18214e-05
5.28296e-05
5.28753e-05
5.18365e-05
0.000105477
5.30365e-05
4.90769e-05
5.02134e-05
5.18273e-05
5.28333e-05
5.2876e-05
5.18342e-05
0.000105475
5.29834e-05
4.90733e-05
5.02259e-05
5.18415e-05
5.28424e-05
5.28769e-05
5.18263e-05
0.000105039
5.29236e-05
4.90751e-05
5.02396e-05
5.18548e-05
5.28518e-05
5.28819e-05
5.18274e-05
0.000105122
5.29818e-05
4.90749e-05
5.02223e-05
5.18366e-05
5.28398e-05
5.28791e-05
5.18344e-05
0.000105207
5.30077e-05
4.9072e-05
5.02116e-05
5.18258e-05
5.28324e-05
5.2876e-05
5.18354e-05
0.000105266
5.30212e-05
4.90697e-05
5.02053e-05
5.18196e-05
5.28278e-05
5.28737e-05
5.18355e-05
0.000105303
5.30147e-05
4.90673e-05
5.0205e-05
5.18198e-05
5.28277e-05
5.28729e-05
5.18338e-05
0.000105312
5.29991e-05
4.90665e-05
5.02092e-05
5.18244e-05
5.28305e-05
5.28731e-05
5.18315e-05
0.000105306
5.2956e-05
4.90632e-05
5.02189e-05
5.18355e-05
5.28377e-05
5.2874e-05
5.18254e-05
0.000104951
5.28973e-05
4.90643e-05
5.02329e-05
5.18495e-05
5.28472e-05
5.28779e-05
5.18239e-05
0.000105029
5.29468e-05
4.90649e-05
5.02194e-05
5.18351e-05
5.28378e-05
5.2876e-05
5.18302e-05
0.000105105
5.29714e-05
4.90634e-05
5.02106e-05
5.18261e-05
5.28316e-05
5.28736e-05
5.18314e-05
0.000105158
5.29847e-05
4.9062e-05
5.02055e-05
5.18209e-05
5.28279e-05
5.2872e-05
5.1832e-05
0.000105192
5.29808e-05
4.90602e-05
5.0205e-05
5.18208e-05
5.28277e-05
5.28713e-05
5.18307e-05
0.000105199
5.2968e-05
4.90594e-05
5.02083e-05
5.18244e-05
5.28299e-05
5.28715e-05
5.1829e-05
0.000105192
5.29336e-05
4.90566e-05
5.02157e-05
5.18331e-05
5.28354e-05
5.2872e-05
5.18238e-05
0.000104895
5.28787e-05
4.90575e-05
5.02295e-05
5.18469e-05
5.28447e-05
5.28754e-05
5.18214e-05
0.000104968
5.292e-05
4.90584e-05
5.02187e-05
5.18354e-05
5.28372e-05
5.2874e-05
5.18266e-05
0.000105037
5.29423e-05
4.90576e-05
5.02115e-05
5.18279e-05
5.28322e-05
5.28722e-05
5.1828e-05
0.000105086
5.29547e-05
4.90568e-05
5.02072e-05
5.18236e-05
5.28291e-05
5.2871e-05
5.18287e-05
0.000105116
5.29525e-05
4.90554e-05
5.02067e-05
5.18233e-05
5.28288e-05
5.28704e-05
5.18279e-05
0.000105123
5.29422e-05
4.90545e-05
5.02091e-05
5.18261e-05
5.28305e-05
5.28706e-05
5.18264e-05
0.000105114
5.2915e-05
4.90523e-05
5.02149e-05
5.18328e-05
5.28348e-05
5.28709e-05
5.18224e-05
0.000104861
5.28653e-05
4.90533e-05
5.02278e-05
5.18459e-05
5.28435e-05
5.28738e-05
5.18194e-05
0.000104929
5.28991e-05
4.90541e-05
5.02192e-05
5.18367e-05
5.28376e-05
5.28728e-05
5.18237e-05
0.000104993
5.29188e-05
4.90536e-05
5.02133e-05
5.18305e-05
5.28334e-05
5.28714e-05
5.18251e-05
0.000105038
5.29298e-05
4.90531e-05
5.02098e-05
5.18269e-05
5.28309e-05
5.28704e-05
5.18258e-05
0.000105066
5.29288e-05
4.90519e-05
5.02091e-05
5.18264e-05
5.28305e-05
5.287e-05
5.18252e-05
0.000105072
5.29205e-05
4.90511e-05
5.02109e-05
5.18285e-05
5.28318e-05
5.28701e-05
5.18241e-05
0.000105062
5.28993e-05
4.90493e-05
5.02153e-05
5.18336e-05
5.28351e-05
5.28703e-05
5.1821e-05
0.00010484
5.28554e-05
4.90506e-05
5.02273e-05
5.18458e-05
5.28431e-05
5.28729e-05
5.1818e-05
0.000104906
5.28828e-05
4.90512e-05
5.02204e-05
5.18384e-05
5.28384e-05
5.28721e-05
5.18214e-05
0.000104965
5.28996e-05
4.90509e-05
5.02156e-05
5.18334e-05
5.2835e-05
5.2871e-05
5.18226e-05
0.000105008
5.29092e-05
4.90505e-05
5.02127e-05
5.18303e-05
5.28329e-05
5.28702e-05
5.18232e-05
0.000105034
5.29089e-05
4.90495e-05
5.02119e-05
5.18298e-05
5.28325e-05
5.28698e-05
5.18228e-05
0.000105039
5.29022e-05
4.90487e-05
5.02132e-05
5.18313e-05
5.28334e-05
5.28699e-05
5.1822e-05
0.000105029
5.28856e-05
4.90472e-05
5.02165e-05
5.18352e-05
5.28359e-05
5.28701e-05
5.18197e-05
0.000104829
5.2848e-05
4.9049e-05
5.02275e-05
5.18462e-05
5.28432e-05
5.28724e-05
5.1817e-05
0.000104893
5.28698e-05
4.90493e-05
5.0222e-05
5.18404e-05
5.28395e-05
5.28718e-05
5.18196e-05
0.00010495
5.2884e-05
4.90491e-05
5.02181e-05
5.18363e-05
5.28367e-05
5.28708e-05
5.18205e-05
0.000104991
5.28921e-05
4.90487e-05
5.02156e-05
5.18338e-05
5.28349e-05
5.28701e-05
5.1821e-05
0.000105015
5.28922e-05
4.90478e-05
5.02148e-05
5.18332e-05
5.28345e-05
5.28698e-05
5.18207e-05
0.000105019
5.28868e-05
4.90469e-05
5.02156e-05
5.18342e-05
5.28351e-05
5.28699e-05
5.18201e-05
0.000105009
5.28739e-05
4.90457e-05
5.02181e-05
5.18371e-05
5.2837e-05
5.28701e-05
5.18185e-05
0.000104826
5.28426e-05
4.90482e-05
5.02281e-05
5.18469e-05
5.28436e-05
5.28722e-05
5.18162e-05
0.000104888
5.28597e-05
4.90482e-05
5.02237e-05
5.18424e-05
5.28406e-05
5.28716e-05
5.18181e-05
0.000104944
5.28714e-05
4.9048e-05
5.02206e-05
5.18391e-05
5.28383e-05
5.28708e-05
5.18187e-05
0.000104984
5.28781e-05
4.90476e-05
5.02185e-05
5.1837e-05
5.28369e-05
5.28702e-05
5.18191e-05
0.000105007
5.28784e-05
4.90467e-05
5.02177e-05
5.18364e-05
5.28364e-05
5.28699e-05
5.18189e-05
0.000105012
5.2874e-05
4.90458e-05
5.02182e-05
5.18371e-05
5.28369e-05
5.287e-05
5.18186e-05
0.000105001
5.28642e-05
4.90448e-05
5.022e-05
5.18392e-05
5.28383e-05
5.28702e-05
5.18174e-05
0.000104829
5.28391e-05
4.90481e-05
5.0229e-05
5.18478e-05
5.2844e-05
5.28722e-05
5.18156e-05
0.000104891
5.28521e-05
4.90478e-05
5.02255e-05
5.18443e-05
5.28418e-05
5.28716e-05
5.18169e-05
0.000104947
5.28614e-05
4.90474e-05
5.0223e-05
5.18417e-05
5.28399e-05
5.28709e-05
5.18173e-05
0.000104988
5.28669e-05
4.9047e-05
5.02213e-05
5.184e-05
5.28387e-05
5.28704e-05
5.18175e-05
0.000105011
5.28673e-05
4.90462e-05
5.02205e-05
5.18394e-05
5.28383e-05
5.28701e-05
5.18174e-05
0.000105015
5.2864e-05
4.90453e-05
5.02207e-05
5.18398e-05
5.28386e-05
5.28702e-05
5.18172e-05
0.000105004
5.28569e-05
4.90447e-05
5.02221e-05
5.18414e-05
5.28396e-05
5.28703e-05
5.18164e-05
0.00010484
5.2838e-05
4.90488e-05
5.02302e-05
5.18488e-05
5.28445e-05
5.28721e-05
5.18151e-05
0.000104903
5.28473e-05
4.90481e-05
5.02274e-05
5.18462e-05
5.28428e-05
5.28717e-05
5.18159e-05
0.00010496
5.28547e-05
4.90477e-05
5.02254e-05
5.18441e-05
5.28413e-05
5.2871e-05
5.18161e-05
0.000105002
5.28591e-05
4.90472e-05
5.0224e-05
5.18427e-05
5.28403e-05
5.28705e-05
5.18161e-05
0.000105026
5.28599e-05
4.90465e-05
5.02233e-05
5.18422e-05
5.28399e-05
5.28702e-05
5.1816e-05
0.000105031
5.28578e-05
4.90458e-05
5.02234e-05
5.18424e-05
5.284e-05
5.28702e-05
5.18159e-05
0.000105022
5.28533e-05
4.90456e-05
5.02243e-05
5.18434e-05
5.28406e-05
5.28702e-05
5.18153e-05
0.000104862
5.28403e-05
4.90504e-05
5.02316e-05
5.18498e-05
5.2845e-05
5.2872e-05
5.18146e-05
0.000104927
5.28463e-05
4.90495e-05
5.02296e-05
5.1848e-05
5.28438e-05
5.28717e-05
5.1815e-05
0.000104988
5.28523e-05
4.90491e-05
5.0228e-05
5.18464e-05
5.28426e-05
5.2871e-05
5.18149e-05
0.000105032
5.28563e-05
4.90486e-05
5.02269e-05
5.18453e-05
5.28417e-05
5.28704e-05
5.18147e-05
0.000105059
5.28576e-05
4.90481e-05
5.02263e-05
5.18447e-05
5.28412e-05
5.28701e-05
5.18146e-05
0.000105066
5.28568e-05
4.90477e-05
5.02262e-05
5.18446e-05
5.28411e-05
5.28699e-05
5.18145e-05
0.000105058
5.28544e-05
4.90477e-05
5.02268e-05
5.18452e-05
5.28414e-05
5.28699e-05
5.18141e-05
0.000104891
5.28443e-05
4.90527e-05
5.02333e-05
5.1851e-05
5.28455e-05
5.28718e-05
5.18139e-05
0.000104968
5.28507e-05
4.90523e-05
5.0232e-05
5.18497e-05
5.28445e-05
5.28714e-05
5.1814e-05
0.000105034
5.28563e-05
4.90522e-05
5.0231e-05
5.18485e-05
5.28435e-05
5.28706e-05
5.18135e-05
0.000105084
5.28601e-05
4.90519e-05
5.02301e-05
5.18476e-05
5.28426e-05
5.28699e-05
5.18131e-05
0.000105113
5.28617e-05
4.90515e-05
5.02295e-05
5.1847e-05
5.28421e-05
5.28695e-05
5.18128e-05
0.000105121
5.28613e-05
4.90509e-05
5.02292e-05
5.18467e-05
5.28419e-05
5.28693e-05
5.18128e-05
0.00010511
5.28594e-05
4.90507e-05
5.02294e-05
5.1847e-05
5.2842e-05
5.28693e-05
5.18127e-05
0.000104927
5.28497e-05
4.90555e-05
5.02355e-05
5.18524e-05
5.2846e-05
5.28715e-05
5.1813e-05
0.000105018
5.28576e-05
4.9056e-05
5.02349e-05
5.18515e-05
5.28452e-05
5.28709e-05
5.18126e-05
0.000105096
5.28642e-05
4.90564e-05
5.02343e-05
5.18507e-05
5.28442e-05
5.28699e-05
5.18117e-05
0.000105152
5.28687e-05
4.90565e-05
5.02337e-05
5.18499e-05
5.28434e-05
5.28691e-05
5.18112e-05
0.000105185
5.28705e-05
4.9056e-05
5.02331e-05
5.18493e-05
5.28428e-05
5.28686e-05
5.18109e-05
0.000105191
5.28698e-05
4.90553e-05
5.02326e-05
5.18489e-05
5.28425e-05
5.28685e-05
5.18109e-05
0.000105175
5.28672e-05
4.90546e-05
5.02325e-05
5.1849e-05
5.28426e-05
5.28686e-05
5.18111e-05
0.000104971
5.2857e-05
4.90594e-05
5.02383e-05
5.18542e-05
5.28467e-05
5.28711e-05
5.18116e-05
0.000105078
5.28665e-05
4.90607e-05
5.02383e-05
5.18537e-05
5.28459e-05
5.28703e-05
5.1811e-05
0.000105168
5.28745e-05
4.90617e-05
5.02382e-05
5.18531e-05
5.2845e-05
5.28691e-05
5.18098e-05
0.000105234
5.28797e-05
4.90621e-05
5.02378e-05
5.18525e-05
5.28442e-05
5.28682e-05
5.18091e-05
0.00010527
5.28818e-05
4.90618e-05
5.02373e-05
5.18519e-05
5.28436e-05
5.28677e-05
5.18087e-05
0.000105276
5.28809e-05
4.90608e-05
5.02367e-05
5.18514e-05
5.28433e-05
5.28676e-05
5.18088e-05
0.000105254
5.28775e-05
4.90597e-05
5.02362e-05
5.18513e-05
5.28433e-05
5.28678e-05
5.18092e-05
0.000105082
5.28939e-05
4.90858e-05
5.0258e-05
5.18664e-05
5.28509e-05
5.28681e-05
5.18038e-05
0.000105275
5.29085e-05
4.90998e-05
5.02719e-05
5.1875e-05
5.2851e-05
5.28575e-05
5.17847e-05
0.000105138
5.29035e-05
4.91014e-05
5.02748e-05
5.18873e-05
0.000105815
5.29644e-05
0.000104939
0.000104893
5.28634e-05
4.90706e-05
5.02471e-05
5.18591e-05
5.28473e-05
5.2868e-05
5.1806e-05
0.000105002
5.28708e-05
4.90796e-05
5.02564e-05
5.18649e-05
5.28469e-05
5.28604e-05
5.17931e-05
0.000104883
5.28655e-05
4.90792e-05
5.02558e-05
5.18662e-05
5.28529e-05
5.28688e-05
5.18041e-05
0.000105322
5.29014e-05
4.91115e-05
5.02897e-05
5.18906e-05
5.2858e-05
5.28543e-05
5.17741e-05
0.000104755
5.28605e-05
4.90809e-05
5.02571e-05
5.18657e-05
5.28497e-05
5.28665e-05
5.18018e-05
0.000104888
5.28729e-05
4.90903e-05
5.0265e-05
5.18693e-05
5.2847e-05
5.28568e-05
5.17869e-05
0.000104709
5.28735e-05
4.90896e-05
5.0261e-05
5.18663e-05
5.28482e-05
5.28637e-05
5.1798e-05
0.000104774
5.28443e-05
4.90614e-05
5.02408e-05
5.1855e-05
5.28456e-05
5.28685e-05
5.18079e-05
0.000104828
5.28472e-05
4.90672e-05
5.02471e-05
5.1859e-05
5.28453e-05
5.28632e-05
5.17988e-05
0.000104729
5.28432e-05
4.90672e-05
5.02467e-05
5.1859e-05
5.2847e-05
5.28674e-05
5.18054e-05
0.000105008
5.28642e-05
4.90867e-05
5.02671e-05
5.18734e-05
5.28496e-05
5.28557e-05
5.17824e-05
0.000104636
5.28418e-05
4.90703e-05
5.02489e-05
5.18599e-05
5.28469e-05
5.28666e-05
5.1804e-05
0.000104735
5.28508e-05
4.9078e-05
5.02557e-05
5.18635e-05
5.28456e-05
5.28597e-05
5.17928e-05
0.000104633
5.28554e-05
4.90798e-05
5.02546e-05
5.18624e-05
5.28467e-05
5.28643e-05
5.18001e-05
0.000104698
5.28324e-05
4.90557e-05
5.02369e-05
5.18527e-05
5.28447e-05
5.28689e-05
5.18092e-05
0.000104714
5.28324e-05
4.90593e-05
5.02412e-05
5.18554e-05
5.28446e-05
5.28654e-05
5.18032e-05
0.000104633
5.28291e-05
4.90597e-05
5.02412e-05
5.18555e-05
5.28456e-05
5.2868e-05
5.18072e-05
0.000104805
5.28417e-05
4.90722e-05
5.02542e-05
5.18643e-05
5.28464e-05
5.28591e-05
5.17907e-05
0.000104561
5.28291e-05
4.90633e-05
5.02436e-05
5.18564e-05
5.28454e-05
5.28668e-05
5.18054e-05
0.000104632
5.2836e-05
4.90696e-05
5.02493e-05
5.18598e-05
5.28451e-05
5.28624e-05
5.17978e-05
0.000104582
5.28424e-05
4.90726e-05
5.02498e-05
5.18596e-05
5.28456e-05
5.28647e-05
5.18014e-05
0.000104649
5.28246e-05
4.9052e-05
5.02345e-05
5.18512e-05
5.28443e-05
5.28693e-05
5.18103e-05
0.000104639
5.28228e-05
4.90543e-05
5.02373e-05
5.1853e-05
5.28442e-05
5.2867e-05
5.18061e-05
0.000104571
5.28201e-05
4.90548e-05
5.02376e-05
5.18532e-05
5.28448e-05
5.28685e-05
5.18087e-05
0.000104672
5.28272e-05
4.9063e-05
5.02461e-05
5.18588e-05
5.28449e-05
5.28621e-05
5.1797e-05
0.000104513
5.28206e-05
4.90586e-05
5.02403e-05
5.18544e-05
5.28447e-05
5.28675e-05
5.18068e-05
0.000104561
5.28258e-05
4.90635e-05
5.02447e-05
5.18571e-05
5.28447e-05
5.28643e-05
5.18013e-05
0.000104543
5.28326e-05
4.9067e-05
5.0246e-05
5.18575e-05
5.28451e-05
5.28654e-05
5.18031e-05
0.000104615
5.28194e-05
4.90495e-05
5.02328e-05
5.18503e-05
5.28441e-05
5.28698e-05
5.18111e-05
0.000104587
5.28166e-05
4.9051e-05
5.02348e-05
5.18515e-05
5.2844e-05
5.28681e-05
5.18083e-05
0.000104528
5.28143e-05
4.90517e-05
5.02352e-05
5.18517e-05
5.28444e-05
5.28691e-05
5.18098e-05
0.000104581
5.28177e-05
4.9057e-05
5.02408e-05
5.18553e-05
5.28443e-05
5.28646e-05
5.18018e-05
0.000104477
5.28144e-05
4.90552e-05
5.02378e-05
5.1853e-05
5.28444e-05
5.2868e-05
5.1808e-05
0.000104508
5.28183e-05
4.9059e-05
5.02413e-05
5.18551e-05
5.28444e-05
5.28658e-05
5.18041e-05
0.000104509
5.28246e-05
4.90624e-05
5.02429e-05
5.18558e-05
5.28447e-05
5.28662e-05
5.18046e-05
0.000104589
5.28161e-05
4.90479e-05
5.02317e-05
5.18497e-05
5.2844e-05
5.28702e-05
5.18118e-05
0.00010455
5.28127e-05
4.90488e-05
5.0233e-05
5.18504e-05
5.28439e-05
5.28691e-05
5.181e-05
0.000104497
5.28109e-05
4.90497e-05
5.02335e-05
5.18506e-05
5.28441e-05
5.28695e-05
5.18107e-05
0.000104516
5.28114e-05
4.9053e-05
5.02373e-05
5.18531e-05
5.2844e-05
5.28665e-05
5.18053e-05
0.000104447
5.28102e-05
4.90527e-05
5.02359e-05
5.18518e-05
5.28441e-05
5.28685e-05
5.1809e-05
0.000104464
5.28126e-05
4.90555e-05
5.02385e-05
5.18534e-05
5.28443e-05
5.28671e-05
5.18063e-05
0.000104475
5.28179e-05
4.90585e-05
5.02402e-05
5.18543e-05
5.28445e-05
5.28671e-05
5.18062e-05
0.00010457
5.28144e-05
4.90469e-05
5.02308e-05
5.18491e-05
5.2844e-05
5.28705e-05
5.18126e-05
0.000104522
5.28108e-05
4.90475e-05
5.02317e-05
5.18496e-05
5.28438e-05
5.28698e-05
5.18113e-05
0.000104473
5.28098e-05
4.90486e-05
5.02323e-05
5.18497e-05
5.28438e-05
5.28698e-05
5.18116e-05
0.000104467
5.28076e-05
4.90505e-05
5.02348e-05
5.18514e-05
5.28439e-05
5.28679e-05
5.1808e-05
0.00010442
5.28081e-05
4.90511e-05
5.02344e-05
5.18508e-05
5.28438e-05
5.2869e-05
5.181e-05
0.000104427
5.28087e-05
4.90529e-05
5.02363e-05
5.18521e-05
5.28441e-05
5.28681e-05
5.18082e-05
0.000104441
5.28124e-05
4.90553e-05
5.02378e-05
5.18529e-05
5.28443e-05
5.28679e-05
5.18078e-05
0.000104555
5.28145e-05
4.90464e-05
5.02302e-05
5.18487e-05
5.28439e-05
5.28709e-05
5.18133e-05
0.0001045
5.2811e-05
4.9047e-05
5.02308e-05
5.18489e-05
5.28437e-05
5.28704e-05
5.18125e-05
0.000104453
5.28108e-05
4.90482e-05
5.02313e-05
5.18489e-05
5.28435e-05
5.28702e-05
5.18124e-05
0.00010443
5.28067e-05
4.90491e-05
5.02329e-05
5.18501e-05
5.28436e-05
5.2869e-05
5.18101e-05
0.000104397
5.28085e-05
4.90503e-05
5.0233e-05
5.18497e-05
5.28434e-05
5.28694e-05
5.18111e-05
0.000104395
5.28072e-05
4.90513e-05
5.02344e-05
5.18508e-05
5.28438e-05
5.28689e-05
5.18099e-05
0.000104407
5.2809e-05
4.90529e-05
5.02358e-05
5.18516e-05
5.28441e-05
5.28687e-05
5.18094e-05
0.00010454
5.28152e-05
4.90463e-05
5.02297e-05
5.18483e-05
5.28439e-05
5.28713e-05
5.18141e-05
0.000104483
5.28131e-05
4.90471e-05
5.02301e-05
5.18483e-05
5.28436e-05
5.28709e-05
5.18136e-05
0.000104435
5.28131e-05
4.90484e-05
5.02305e-05
5.18482e-05
5.28432e-05
5.28705e-05
5.18134e-05
0.000104402
5.28089e-05
4.90489e-05
5.02316e-05
5.18489e-05
5.28433e-05
5.28698e-05
5.18119e-05
0.000104375
5.28108e-05
4.90502e-05
5.02319e-05
5.18487e-05
5.2843e-05
5.28697e-05
5.18122e-05
0.000104368
5.28089e-05
4.90508e-05
5.02329e-05
5.18495e-05
5.28434e-05
5.28695e-05
5.18115e-05
0.000104378
5.28091e-05
4.90518e-05
5.0234e-05
5.18503e-05
5.28437e-05
5.28694e-05
5.18109e-05
0.000104525
5.28164e-05
4.90464e-05
5.02293e-05
5.1848e-05
5.28439e-05
5.28718e-05
5.1815e-05
0.000104464
5.28157e-05
4.90475e-05
5.02296e-05
5.18478e-05
5.28435e-05
5.28714e-05
5.18146e-05
0.000104414
5.28161e-05
4.90489e-05
5.023e-05
5.18476e-05
5.28431e-05
5.2871e-05
5.18145e-05
0.000104378
5.28135e-05
4.90496e-05
5.02307e-05
5.18479e-05
5.2843e-05
5.28704e-05
5.18134e-05
0.000104351
5.28148e-05
4.90507e-05
5.0231e-05
5.18477e-05
5.28427e-05
5.28701e-05
5.18134e-05
0.000104342
5.28128e-05
4.90511e-05
5.02317e-05
5.18483e-05
5.28429e-05
5.287e-05
5.18129e-05
0.00010435
5.28121e-05
4.90517e-05
5.02326e-05
5.1849e-05
5.28432e-05
5.28699e-05
5.18124e-05
0.00010451
5.28182e-05
4.90469e-05
5.02293e-05
5.1848e-05
5.28441e-05
5.28723e-05
5.18159e-05
0.000104445
5.28188e-05
4.90483e-05
5.02294e-05
5.18475e-05
5.28436e-05
5.28719e-05
5.18156e-05
0.000104391
5.28198e-05
4.90498e-05
5.02297e-05
5.18471e-05
5.2843e-05
5.28715e-05
5.18154e-05
0.000104352
5.28188e-05
4.90508e-05
5.02301e-05
5.18471e-05
5.28427e-05
5.28709e-05
5.18146e-05
0.000104325
5.28197e-05
4.90519e-05
5.02304e-05
5.18469e-05
5.28423e-05
5.28705e-05
5.18145e-05
0.000104314
5.28184e-05
4.90522e-05
5.02309e-05
5.18472e-05
5.28424e-05
5.28704e-05
5.18142e-05
0.000104322
5.28174e-05
4.90526e-05
5.02316e-05
5.18479e-05
5.28427e-05
5.28704e-05
5.18138e-05
0.000104494
5.28208e-05
4.90478e-05
5.02294e-05
5.1848e-05
5.28444e-05
5.28728e-05
5.18166e-05
0.000104423
5.28224e-05
4.90495e-05
5.02294e-05
5.18473e-05
5.28436e-05
5.28723e-05
5.18164e-05
0.000104366
5.28242e-05
4.90512e-05
5.02296e-05
5.18468e-05
5.28429e-05
5.28718e-05
5.18162e-05
0.000104323
5.28245e-05
4.90525e-05
5.02299e-05
5.18465e-05
5.28424e-05
5.28712e-05
5.18156e-05
0.000104294
5.28256e-05
4.90536e-05
5.02301e-05
5.18462e-05
5.2842e-05
5.28709e-05
5.18155e-05
0.000104283
5.28248e-05
4.90539e-05
5.02304e-05
5.18463e-05
5.2842e-05
5.28708e-05
5.18154e-05
0.000104291
5.2824e-05
4.90542e-05
5.0231e-05
5.18468e-05
5.28422e-05
5.28707e-05
5.18151e-05
0.000104477
5.2824e-05
4.90492e-05
5.023e-05
5.18484e-05
5.28447e-05
5.28732e-05
5.1817e-05
0.0001044
5.28267e-05
4.90512e-05
5.02299e-05
5.18474e-05
5.28437e-05
5.28726e-05
5.1817e-05
0.000104338
5.28294e-05
4.90533e-05
5.02299e-05
5.18466e-05
5.28429e-05
5.28721e-05
5.18169e-05
0.000104291
5.2831e-05
4.90548e-05
5.02301e-05
5.18462e-05
5.28423e-05
5.28715e-05
5.18165e-05
0.00010426
5.28325e-05
4.9056e-05
5.02302e-05
5.18458e-05
5.28418e-05
5.28712e-05
5.18164e-05
0.000104247
5.28323e-05
4.90564e-05
5.02304e-05
5.18457e-05
5.28417e-05
5.28711e-05
5.18164e-05
0.000104257
5.28317e-05
4.90567e-05
5.02308e-05
5.18461e-05
5.28419e-05
5.28711e-05
5.18161e-05
0.000105505
0.000106673
5.31804e-05
0.00010569
5.30566e-05
4.92052e-05
5.0355e-05
5.19366e-05
0.000105711
5.30254e-05
4.91751e-05
5.03291e-05
5.1916e-05
5.2875e-05
5.28674e-05
5.1784e-05
0.000105137
5.29359e-05
4.91118e-05
5.0279e-05
5.18871e-05
5.28734e-05
5.28929e-05
5.18298e-05
0.0001048
5.28942e-05
4.91044e-05
5.02725e-05
5.18741e-05
5.28523e-05
5.28648e-05
5.17972e-05
0.000105238
5.29603e-05
4.91435e-05
5.03016e-05
5.18903e-05
5.28525e-05
5.28489e-05
5.17693e-05
0.00010519
5.29611e-05
4.91484e-05
5.03073e-05
5.18975e-05
5.28624e-05
5.28626e-05
5.17865e-05
0.000106004
5.30642e-05
4.92166e-05
5.03708e-05
5.19475e-05
5.28896e-05
5.2863e-05
5.17659e-05
0.000105364
5.29827e-05
4.91561e-05
5.03142e-05
5.19056e-05
5.28716e-05
5.28731e-05
5.17979e-05
0.000105405
5.29621e-05
4.91356e-05
5.02984e-05
5.18942e-05
5.28632e-05
5.28649e-05
5.17886e-05
0.000104986
5.28965e-05
4.90881e-05
5.02607e-05
5.18725e-05
5.2862e-05
5.28845e-05
5.18237e-05
0.000104705
5.28709e-05
4.90907e-05
5.02627e-05
5.18676e-05
5.28489e-05
5.28639e-05
5.1798e-05
0.00010504
5.29204e-05
4.91197e-05
5.02845e-05
5.188e-05
5.28495e-05
5.28526e-05
5.17779e-05
0.000104999
5.29206e-05
4.9121e-05
5.02857e-05
5.18821e-05
5.28538e-05
5.286e-05
5.17882e-05
0.000105573
5.2987e-05
4.91637e-05
5.03249e-05
5.19118e-05
5.28675e-05
5.28548e-05
5.17679e-05
0.000105148
5.29341e-05
4.9124e-05
5.02887e-05
5.18867e-05
5.28601e-05
5.28677e-05
5.17969e-05
0.000105193
5.29193e-05
4.9109e-05
5.02779e-05
5.188e-05
5.2856e-05
5.28644e-05
5.17931e-05
0.000104893
5.28714e-05
4.90733e-05
5.02494e-05
5.18636e-05
5.28552e-05
5.28794e-05
5.182e-05
0.000104641
5.28547e-05
4.90809e-05
5.02559e-05
5.18634e-05
5.28471e-05
5.28642e-05
5.17997e-05
0.000104898
5.28915e-05
4.91022e-05
5.0272e-05
5.18726e-05
5.28477e-05
5.28558e-05
5.17848e-05
0.000104872
5.28921e-05
4.91022e-05
5.02714e-05
5.18727e-05
5.28496e-05
5.28604e-05
5.17917e-05
0.000105278
5.2936e-05
4.91289e-05
5.02959e-05
5.18908e-05
5.28566e-05
5.28543e-05
5.17752e-05
0.000105
5.29013e-05
4.91026e-05
5.02723e-05
5.18752e-05
5.28537e-05
5.28659e-05
5.17982e-05
0.000105046
5.28903e-05
4.90909e-05
5.0264e-05
5.18706e-05
5.28517e-05
5.2865e-05
5.17973e-05
0.000104838
5.28554e-05
4.9064e-05
5.02423e-05
5.1858e-05
5.28509e-05
5.28761e-05
5.18174e-05
0.000104593
5.28425e-05
4.90734e-05
5.02506e-05
5.18602e-05
5.2846e-05
5.28647e-05
5.18013e-05
0.000104792
5.28701e-05
4.9089e-05
5.02625e-05
5.18671e-05
5.28465e-05
5.28587e-05
5.17905e-05
0.000104781
5.28716e-05
4.90889e-05
5.02616e-05
5.18667e-05
5.28475e-05
5.28617e-05
5.17954e-05
0.000105074
5.29011e-05
4.91057e-05
5.02769e-05
5.18778e-05
5.28511e-05
5.28564e-05
5.17828e-05
0.000104899
5.28787e-05
4.90878e-05
5.02611e-05
5.18678e-05
5.28502e-05
5.28658e-05
5.18004e-05
0.000104944
5.28706e-05
4.90784e-05
5.02545e-05
5.18643e-05
5.2849e-05
5.28658e-05
5.18007e-05
0.000104806
5.28457e-05
4.90582e-05
5.02381e-05
5.18547e-05
5.28484e-05
5.28742e-05
5.18158e-05
0.000104552
5.28329e-05
4.90674e-05
5.02464e-05
5.18578e-05
5.28453e-05
5.28655e-05
5.18031e-05
0.000104708
5.28537e-05
4.90789e-05
5.02552e-05
5.18629e-05
5.28458e-05
5.28611e-05
5.17951e-05
0.000104712
5.28564e-05
4.9079e-05
5.02545e-05
5.18625e-05
5.28463e-05
5.28632e-05
5.17986e-05
0.000104929
5.28769e-05
4.90897e-05
5.02642e-05
5.18694e-05
5.28482e-05
5.28591e-05
5.17896e-05
0.000104827
5.28629e-05
4.90774e-05
5.02533e-05
5.18628e-05
5.28482e-05
5.28663e-05
5.18025e-05
0.000104872
5.28572e-05
4.90699e-05
5.0248e-05
5.186e-05
5.28474e-05
5.28667e-05
5.18035e-05
0.000104787
5.28398e-05
4.90547e-05
5.02355e-05
5.18527e-05
5.28468e-05
5.28729e-05
5.18148e-05
0.000104515
5.28249e-05
4.90625e-05
5.0243e-05
5.18558e-05
5.28449e-05
5.28664e-05
5.18049e-05
0.000104639
5.28409e-05
4.9071e-05
5.02494e-05
5.18597e-05
5.28453e-05
5.28632e-05
5.1799e-05
0.000104658
5.28448e-05
4.90715e-05
5.02491e-05
5.18594e-05
5.28457e-05
5.28647e-05
5.18015e-05
0.000104824
5.28596e-05
4.90784e-05
5.02552e-05
5.18638e-05
5.28467e-05
5.28616e-05
5.17951e-05
0.000104773
5.28515e-05
4.907e-05
5.02478e-05
5.18594e-05
5.28469e-05
5.2867e-05
5.18045e-05
0.000104822
5.2848e-05
4.9064e-05
5.02434e-05
5.18571e-05
5.28464e-05
5.28677e-05
5.18058e-05
0.000104778
5.28363e-05
4.90526e-05
5.0234e-05
5.18516e-05
5.2846e-05
5.28723e-05
5.18142e-05
0.000104478
5.28183e-05
4.90584e-05
5.024e-05
5.18542e-05
5.28446e-05
5.28674e-05
5.18067e-05
0.00010458
5.28307e-05
4.90647e-05
5.02448e-05
5.18571e-05
5.2845e-05
5.28651e-05
5.18024e-05
0.000104613
5.28355e-05
4.90657e-05
5.02449e-05
5.18571e-05
5.28453e-05
5.2866e-05
5.1804e-05
0.000104745
5.28469e-05
4.90702e-05
5.02489e-05
5.18599e-05
5.28459e-05
5.28639e-05
5.17996e-05
0.000104733
5.28431e-05
4.90646e-05
5.02438e-05
5.1857e-05
5.28463e-05
5.28678e-05
5.18064e-05
0.000104786
5.28417e-05
4.906e-05
5.02404e-05
5.18552e-05
5.2846e-05
5.28685e-05
5.18077e-05
0.000104775
5.28346e-05
4.90516e-05
5.02333e-05
5.18511e-05
5.28456e-05
5.28719e-05
5.18138e-05
0.000104441
5.28133e-05
4.90552e-05
5.02375e-05
5.18527e-05
5.28444e-05
5.28683e-05
5.18085e-05
0.000104526
5.28224e-05
4.90598e-05
5.02411e-05
5.1855e-05
5.28448e-05
5.28667e-05
5.18053e-05
0.000104571
5.28279e-05
4.9061e-05
5.02415e-05
5.18552e-05
5.28451e-05
5.28674e-05
5.18063e-05
0.000104683
5.28373e-05
4.90642e-05
5.02443e-05
5.18572e-05
5.28456e-05
5.28659e-05
5.18033e-05
0.0001047
5.28369e-05
4.90606e-05
5.02409e-05
5.18553e-05
5.2846e-05
5.28687e-05
5.18081e-05
0.000104761
5.28375e-05
4.90573e-05
5.02383e-05
5.1854e-05
5.28458e-05
5.28693e-05
5.18092e-05
0.000104777
5.2834e-05
4.90513e-05
5.02331e-05
5.1851e-05
5.28455e-05
5.28717e-05
5.18136e-05
0.000104408
5.28111e-05
4.90532e-05
5.02355e-05
5.18514e-05
5.28441e-05
5.28692e-05
5.18102e-05
0.000104478
5.28164e-05
4.90561e-05
5.02382e-05
5.18533e-05
5.28447e-05
5.28682e-05
5.1808e-05
0.000104532
5.28221e-05
4.90575e-05
5.02389e-05
5.18538e-05
5.28451e-05
5.28686e-05
5.18085e-05
0.000104632
5.283e-05
4.90598e-05
5.02409e-05
5.18553e-05
5.28455e-05
5.28677e-05
5.18064e-05
0.000104674
5.28322e-05
4.90577e-05
5.02388e-05
5.18542e-05
5.28459e-05
5.28697e-05
5.18097e-05
0.000104744
5.28348e-05
4.90556e-05
5.0237e-05
5.18533e-05
5.28458e-05
5.28701e-05
5.18104e-05
0.000104783
5.28345e-05
4.90514e-05
5.02333e-05
5.18511e-05
5.28455e-05
5.28717e-05
5.18136e-05
0.000104379
5.28127e-05
4.90527e-05
5.02339e-05
5.18501e-05
5.28438e-05
5.28699e-05
5.18119e-05
0.000104436
5.28141e-05
4.9054e-05
5.0236e-05
5.18519e-05
5.28446e-05
5.28694e-05
5.18102e-05
0.000104496
5.28188e-05
4.90552e-05
5.02369e-05
5.18527e-05
5.28451e-05
5.28697e-05
5.18104e-05
0.000104589
5.28249e-05
4.90567e-05
5.02384e-05
5.18539e-05
5.28456e-05
5.28692e-05
5.18089e-05
0.000104651
5.28288e-05
4.90557e-05
5.02373e-05
5.18534e-05
5.2846e-05
5.28705e-05
5.1811e-05
0.000104732
5.28332e-05
4.90546e-05
5.02362e-05
5.18529e-05
5.28459e-05
5.28707e-05
5.18115e-05
0.000104792
5.28358e-05
4.90521e-05
5.02338e-05
5.18514e-05
5.28457e-05
5.28718e-05
5.18136e-05
0.000104351
5.28172e-05
4.90532e-05
5.02327e-05
5.18489e-05
5.28433e-05
5.28704e-05
5.18133e-05
0.000104404
5.28167e-05
4.90538e-05
5.02345e-05
5.18506e-05
5.28443e-05
5.28703e-05
5.18121e-05
0.000104468
5.28197e-05
4.90547e-05
5.02356e-05
5.18517e-05
5.2845e-05
5.28705e-05
5.18119e-05
0.000104555
5.28227e-05
4.90551e-05
5.02369e-05
5.1853e-05
5.28457e-05
5.28704e-05
5.18109e-05
0.000104633
5.28271e-05
4.90547e-05
5.02364e-05
5.1853e-05
5.28462e-05
5.28712e-05
5.18121e-05
0.000104725
5.28327e-05
4.90543e-05
5.0236e-05
5.18529e-05
5.28462e-05
5.28713e-05
5.18123e-05
0.000104806
5.2838e-05
4.90532e-05
5.02346e-05
5.18521e-05
5.28461e-05
5.2872e-05
5.18136e-05
0.000104322
5.28237e-05
4.90547e-05
5.0232e-05
5.18478e-05
5.28428e-05
5.28707e-05
5.18145e-05
0.000104375
5.28224e-05
4.9055e-05
5.02336e-05
5.18495e-05
5.28438e-05
5.28708e-05
5.18135e-05
0.000104444
5.2824e-05
4.90555e-05
5.02349e-05
5.18509e-05
5.28448e-05
5.2871e-05
5.18131e-05
0.000104531
5.28246e-05
4.90553e-05
5.02361e-05
5.18524e-05
5.28458e-05
5.28712e-05
5.18123e-05
0.000104619
5.28278e-05
4.90549e-05
5.02363e-05
5.1853e-05
5.28465e-05
5.28719e-05
5.1813e-05
0.000104723
5.28336e-05
4.90549e-05
5.02364e-05
5.18533e-05
5.28467e-05
5.28719e-05
5.18129e-05
0.000104825
5.28413e-05
4.90551e-05
5.0236e-05
5.1853e-05
5.28467e-05
5.28721e-05
5.18133e-05
0.00010429
5.28314e-05
4.90571e-05
5.02319e-05
5.18471e-05
5.28424e-05
5.28711e-05
5.18156e-05
0.000104347
5.28304e-05
4.90574e-05
5.02335e-05
5.18488e-05
5.28435e-05
5.28712e-05
5.18146e-05
0.000104422
5.28308e-05
4.90577e-05
5.0235e-05
5.18506e-05
5.28447e-05
5.28715e-05
5.18141e-05
0.000104513
5.28299e-05
4.90573e-05
5.02364e-05
5.18524e-05
5.2846e-05
5.28718e-05
5.18134e-05
0.000104612
5.28316e-05
4.90567e-05
5.02371e-05
5.18535e-05
5.2847e-05
5.28724e-05
5.18135e-05
0.000104727
5.28362e-05
4.90567e-05
5.02377e-05
5.18543e-05
5.28475e-05
5.28724e-05
5.18131e-05
0.00010485
5.28464e-05
4.9058e-05
5.02381e-05
5.18545e-05
5.28474e-05
5.28721e-05
5.18128e-05
0.000105458
5.2947e-05
4.9077e-05
5.02414e-05
5.18565e-05
5.28518e-05
5.28796e-05
5.18233e-05
0.0001058
5.29569e-05
4.91062e-05
5.02739e-05
5.1878e-05
5.28544e-05
5.28617e-05
5.17897e-05
0.000105771
5.29727e-05
4.91219e-05
5.02866e-05
5.18879e-05
5.28633e-05
5.28717e-05
5.18019e-05
0.000106449
5.30437e-05
4.91798e-05
5.03444e-05
5.19328e-05
5.28835e-05
5.28619e-05
5.17688e-05
0.00010557
5.29586e-05
4.91202e-05
5.02847e-05
5.18848e-05
5.28593e-05
5.28669e-05
5.17961e-05
0.000105628
5.29562e-05
4.91192e-05
5.02839e-05
5.1881e-05
5.28501e-05
5.28511e-05
5.1775e-05
0.000105146
5.29033e-05
4.90898e-05
5.02607e-05
5.18684e-05
5.28522e-05
5.28688e-05
5.18039e-05
0.000105281
5.29233e-05
4.90648e-05
5.02307e-05
5.18473e-05
5.2845e-05
5.28757e-05
5.1822e-05
0.000105475
5.29096e-05
4.90803e-05
5.02538e-05
5.18642e-05
5.28486e-05
5.2864e-05
5.1798e-05
0.00010544
5.29206e-05
4.90919e-05
5.02628e-05
5.18705e-05
5.28533e-05
5.28687e-05
5.18035e-05
0.000105887
5.29658e-05
4.91289e-05
5.02991e-05
5.18968e-05
5.28615e-05
5.28552e-05
5.1773e-05
0.00010528
5.29122e-05
4.90932e-05
5.02634e-05
5.18694e-05
5.28507e-05
5.28649e-05
5.17989e-05
0.000105317
5.29095e-05
4.90938e-05
5.0265e-05
5.18692e-05
5.28466e-05
5.28558e-05
5.17853e-05
0.000104953
5.28718e-05
4.90734e-05
5.02488e-05
5.18603e-05
5.28482e-05
5.28687e-05
5.18066e-05
0.000105164
5.29051e-05
4.90571e-05
5.0225e-05
5.18425e-05
5.28414e-05
5.28734e-05
5.18209e-05
0.000105261
5.28798e-05
4.90643e-05
5.02414e-05
5.18557e-05
5.28453e-05
5.28659e-05
5.18037e-05
0.000105228
5.28877e-05
4.90733e-05
5.02485e-05
5.18605e-05
5.28482e-05
5.28683e-05
5.18063e-05
0.000105516
5.29163e-05
4.90976e-05
5.0272e-05
5.18766e-05
5.28514e-05
5.28562e-05
5.17821e-05
0.000105095
5.28823e-05
4.90764e-05
5.02507e-05
5.18608e-05
5.28468e-05
5.28654e-05
5.18023e-05
0.000105108
5.28789e-05
4.90773e-05
5.02529e-05
5.18619e-05
5.28451e-05
5.28599e-05
5.17935e-05
0.000104833
5.28518e-05
4.90633e-05
5.02416e-05