/*--------------------------------*- C++ -*----------------------------------*\
| =========                 |                                                 |
| \\      /  F ield         | OpenFOAM: The Open Source CFD Toolbox           |
|  \\    /   O peration     | Version:  plus.master.MPPICInterFoam            |
|   \\  /    A nd           | Web:      www.OpenFOAM.com                      |
|    \\/     M anipulation  |                                                 |
\*---------------------------------------------------------------------------*/
FoamFile
{
    version     2.0;
    format      ascii;
    class       surfaceScalarField;
    location    "13.8";
    object      alphaPhi;
}
// * * * * * * * * * * * * * * * * * * * * * * * * * * * * * * * * * * * * * //

dimensions      [0 3 -1 0 0 0 0];

internalField   nonuniform List<scalar> 
34018
(
4.08449e-07
6.27528e-06
2.71391e-07
3.47012e-07
6.62894e-07
7.75627e-06
5.29022e-07
6.14224e-06
2.53673e-07
2.75436e-07
8.32377e-06
9.21995e-07
2.35116e-07
7.15063e-06
7.2337e-07
5.72015e-06
1.87835e-07
5.61499e-07
-5.759e-07
-2.96793e-07
7.53968e-06
6.31189e-07
2.43984e-07
-4.39481e-07
-3.8067e-07
7.76964e-06
2.99544e-07
-2.76806e-07
-3.82006e-07
7.56696e-06
3.09166e-07
-1.42311e-07
-2.90331e-07
6.96552e-06
2.55418e-07
-6.07687e-08
-1.6535e-07
6.08014e-06
1.70523e-07
-1.21511e-08
-7.71373e-08
5.06004e-06
9.71777e-08
-1.18555e-08
4.0092e-06
1.87684e-08
3.24503e-08
-6.2477e-07
-3.02663e-07
8.65688e-06
7.82406e-07
-4.10673e-07
-2.68703e-07
8.86776e-06
-2.10825e-07
-2.63017e-07
8.54872e-06
-6.27733e-08
-2.58178e-07
8.27028e-06
9.00263e-09
-1.09159e-07
7.33982e-06
3.87961e-08
-1.4471e-08
6.06506e-06
4.39388e-08
4.80869e-06
5.10141e-08
-4.04314e-07
-9.07983e-08
8.17024e-06
9.47568e-07
-1.60042e-07
1.6381e-08
5.75866e-06
-5.54403e-08
1.75126e-08
5.79317e-06
9.9858e-08
-2.07922e-08
8.45666e-06
1.35853e-07
5.30889e-08
8.29531e-06
1.20357e-07
1.2128e-07
6.96928e-06
1.46734e-07
5.4997e-06
1.02581e-07
-1.4921e-07
6.15535e-08
6.16006e-06
8.00764e-07
-9.18566e-08
3.14346e-08
5.10085e-06
-6.89775e-08
4.39907e-08
4.92254e-06
1.6996e-07
1.11433e-07
6.63221e-06
2.41433e-07
2.76447e-07
8.69522e-06
1.86819e-07
3.10024e-07
7.61743e-06
2.79057e-07
5.99025e-06
1.45644e-07
-1.81142e-07
3.10425e-07
6.45023e-06
8.24401e-07
-7.4824e-08
1.95233e-07
5.62674e-06
-4.47594e-08
1.95675e-07
5.4674e-06
1.83806e-07
3.3624e-07
6.79579e-06
2.55741e-07
5.13522e-07
9.01163e-06
1.96593e-07
4.85177e-07
7.87086e-06
3.99625e-07
6.19703e-06
1.5411e-07
-3.39533e-07
8.01753e-07
8.42707e-06
1.03115e-06
-1.06809e-07
5.85063e-07
5.00465e-06
-1.59684e-08
5.7749e-07
4.95765e-06
2.12298e-07
7.91901e-07
8.24775e-06
2.15415e-07
7.1796e-07
8.7097e-06
1.61706e-07
6.12871e-07
7.68251e-06
4.80645e-07
6.09085e-06
1.3208e-07
-5.20269e-07
8.68382e-06
7.67866e-07
8.72021e-07
-2.71214e-07
8.78879e-06
1.07133e-06
-9.2487e-08
8.34133e-06
1.07396e-06
1.63529e-08
8.54099e-06
9.49145e-07
6.34535e-08
8.40397e-06
7.6023e-07
8.07908e-08
7.12659e-06
6.19533e-07
5.70235e-06
9.63938e-08
4.82679e-07
-5.02407e-07
1.73294e-07
7.46855e-06
4.59475e-07
-5.92072e-08
-4.54128e-07
1.09329e-07
7.65784e-06
-4.59643e-08
-3.5811e-07
6.20384e-08
7.42455e-06
-1.57339e-08
-2.67995e-07
7.64814e-08
6.81396e-06
-1.49911e-08
-1.85182e-07
7.79247e-08
5.93844e-06
-1.9155e-08
-1.11808e-07
7.2293e-08
4.93981e-06
-2.54956e-08
7.50481e-08
3.91748e-06
-5.18419e-08
-4.35308e-08
-5.84304e-07
2.08656e-07
8.59929e-06
5.38e-07
-4.89071e-07
7.96089e-08
8.77494e-06
-3.78789e-07
4.46897e-08
8.38742e-06
-2.99644e-07
1.27825e-07
8.09549e-06
-2.08736e-07
1.53867e-07
7.17246e-06
-1.2547e-07
1.378e-07
5.91636e-06
1.27026e-07
4.69212e-06
-6.07568e-08
-4.92886e-07
1.47917e-07
8.0987e-06
6.27916e-07
-2.787e-07
4.22275e-08
5.98953e-06
-1.98382e-07
3.11567e-08
5.94307e-06
-2.40323e-07
1.33897e-07
8.23849e-06
-1.99778e-07
2.4426e-07
8.10708e-06
-1.21079e-07
2.2983e-07
6.79855e-06
1.99165e-07
5.36334e-06
-5.69881e-08
-3.40061e-07
2.73415e-07
7.49072e-06
8.11327e-07
-1.99108e-07
1.44364e-07
4.78537e-06
-8.1098e-08
1.39729e-07
4.61905e-06
-1.20482e-07
2.49529e-07
6.49055e-06
-1.65286e-07
3.83241e-07
8.4863e-06
-1.09927e-07
3.51212e-07
7.44054e-06
2.84853e-07
5.8455e-06
-5.08918e-08
-4.28669e-07
5.70953e-07
8.89428e-06
9.21183e-07
-2.08331e-07
3.32494e-07
5.14188e-06
-6.57312e-08
3.13175e-07
5.07367e-06
-1.30445e-07
4.38096e-07
6.57813e-06
-1.91301e-07
5.10128e-07
8.83561e-06
-1.26488e-07
4.45222e-07
7.7119e-06
3.51663e-07
6.06042e-06
-5.67614e-08
-6.20365e-07
5.43753e-07
9.54931e-06
7.07046e-07
-2.50361e-07
7.07012e-07
6.75715e-06
-1.30021e-07
6.94316e-07
6.18628e-06
-2.33349e-07
6.21576e-07
8.30425e-06
-2.55738e-07
5.10607e-07
8.57037e-06
-1.5365e-07
4.70138e-07
7.55539e-06
3.76964e-07
5.97638e-06
-6.46265e-08
-4.96738e-07
8.48929e-06
4.01706e-07
3.125e-07
-4.01824e-07
8.73584e-06
5.10345e-07
-3.5201e-07
8.15798e-06
5.35411e-07
-3.75497e-07
8.40407e-06
4.6589e-07
-2.91328e-07
8.34471e-06
4.64487e-07
-1.61349e-07
7.0331e-06
4.33454e-07
5.61761e-06
-4.91376e-08
3.49314e-07
-4.16286e-07
3.48086e-07
7.34083e-06
3.44979e-07
-1.49015e-07
-4.27039e-07
3.47883e-07
7.50014e-06
-1.79886e-07
-3.71773e-07
2.65494e-07
7.2434e-06
-1.39772e-07
-2.9667e-07
2.14951e-07
6.6287e-06
-1.04922e-07
-2.09205e-07
1.58007e-07
5.76839e-06
-7.55894e-08
-1.25835e-07
1.14635e-07
4.7995e-06
-5.77744e-08
9.25764e-08
3.81488e-06
-5.7876e-08
-5.80836e-08
-4.87062e-07
3.84149e-07
8.16827e-06
3.85537e-07
-4.94239e-07
2.84824e-07
8.32474e-06
-4.42977e-07
1.98054e-07
7.87345e-06
-3.82742e-07
2.73093e-07
7.82472e-06
-2.73226e-07
2.47927e-07
6.96578e-06
-1.63682e-07
1.823e-07
5.73916e-06
1.41586e-07
4.55831e-06
-7.88944e-08
-4.92117e-07
2.97514e-07
6.5591e-06
3.9172e-07
-3.06188e-07
5.13274e-08
5.29756e-06
-2.61151e-07
4.09213e-08
5.34826e-06
-3.7578e-07
2.02599e-07
7.25829e-06
-3.23962e-07
3.13434e-07
7.81105e-06
-1.93391e-07
2.56183e-07
6.59415e-06
1.99196e-07
5.20508e-06
-9.27671e-08
-8.802e-07
4.68287e-07
6.27158e-06
5.36012e-07
-3.13959e-07
3.06654e-07
7.19702e-06
-6.37537e-08
2.32449e-07
7.80128e-06
-2.65505e-07
2.71874e-07
5.61256e-06
-3.56107e-07
3.94379e-07
7.9408e-06
-2.17425e-07
3.34045e-07
7.22373e-06
2.56982e-07
5.67426e-06
-1.04095e-07
-9.8823e-07
5.66757e-07
7.20714e-06
5.39901e-07
-4.00948e-07
7.01866e-07
8.21701e-06
-1.05801e-07
5.93129e-07
7.22046e-06
-3.1812e-07
4.38071e-07
5.36263e-06
-4.22727e-07
4.18927e-07
8.24175e-06
-2.50408e-07
3.70147e-07
7.50341e-06
2.90474e-07
5.89195e-06
-1.15505e-07
-6.49191e-07
2.27289e-07
7.07491e-06
2.96361e-07
-4.44053e-07
4.21921e-07
6.2713e-06
-2.5333e-07
4.59466e-07
5.45279e-06
-4.03001e-07
3.64362e-07
6.68821e-06
-4.44494e-07
3.5112e-07
7.92018e-06
-2.48297e-07
3.58561e-07
7.37064e-06
2.96163e-07
5.82642e-06
-1.04183e-07
-3.28028e-07
6.45164e-06
2.06754e-07
9.70176e-08
-3.90046e-07
6.35944e-06
1.25242e-07
-3.86634e-07
5.764e-06
1.70798e-07
-4.80573e-07
7.0811e-06
2.26029e-07
-3.81353e-07
8.03751e-06
3.16024e-07
-2.03935e-07
6.88276e-06
3.3136e-07
5.49945e-06
-6.37463e-08
2.73997e-07
-3.32629e-07
1.31171e-07
7.21511e-06
3.24153e-07
2.97147e-09
-3.54054e-07
2.39177e-07
7.33975e-06
-5.76843e-08
-2.98018e-07
1.4619e-07
7.06659e-06
-2.54532e-08
-2.09673e-07
8.21348e-08
6.45626e-06
1.87423e-09
-1.21889e-07
5.57536e-08
5.61754e-06
7.23272e-09
-4.83348e-08
4.14739e-08
4.6814e-06
3.06041e-09
3.92406e-08
3.73483e-06
4.18355e-09
-1.15387e-08
-3.28374e-07
1.5966e-07
7.87037e-06
3.66613e-07
-4.07411e-07
2.64392e-07
7.84854e-06
-3.59714e-07
1.44443e-07
7.52376e-06
-2.71756e-07
1.50037e-07
7.58059e-06
-1.59067e-07
1.39472e-07
6.76275e-06
-6.44695e-08
1.05684e-07
5.58032e-06
8.58731e-08
4.44803e-06
-7.87878e-10
-3.03288e-07
6.76748e-08
4.91465e-06
3.0495e-07
-1.59601e-07
1.16592e-07
4.46744e-06
-1.83336e-07
8.76475e-08
4.44305e-06
-2.57167e-07
1.17897e-07
6.79582e-06
-1.82823e-07
2.19561e-07
7.55165e-06
-7.26444e-08
1.86769e-07
6.4029e-06
1.46116e-07
5.07102e-06
1.10974e-09
-2.69667e-07
1.32911e-07
4.5901e-06
1.87349e-07
-3.24752e-07
2.63518e-07
7.93173e-06
-1.23348e-07
1.74271e-07
6.70543e-06
-2.05484e-07
1.00946e-07
4.8406e-06
-2.28218e-07
2.87738e-07
7.58766e-06
-9.12041e-08
2.59952e-07
7.01349e-06
2.03406e-07
5.52666e-06
-1.02489e-09
-3.70401e-07
2.51689e-07
4.74967e-06
2.03334e-07
-4.71187e-07
2.46779e-07
8.57612e-06
-1.88155e-07
1.98637e-07
8.1128e-06
-2.98237e-07
2.4326e-07
5.02682e-06
-3.07818e-07
2.50284e-07
7.80143e-06
-1.1878e-07
2.80529e-07
7.29381e-06
2.35946e-07
5.74575e-06
-5.24924e-09
-3.67979e-07
1.54836e-07
4.45352e-06
2.58973e-07
-2.1906e-07
1.13097e-07
4.45427e-06
-7.34011e-08
1.12172e-07
4.16431e-06
-2.05895e-07
2.00522e-07
4.77748e-06
-2.19561e-07
2.97177e-07
7.61321e-06
-7.57401e-08
3.20833e-07
7.18644e-06
2.66894e-07
5.69963e-06
1.99461e-08
-1.87235e-07
5.86921e-06
2.98701e-07
2.86973e-07
-1.90608e-07
4.75174e-06
2.13806e-07
-1.74148e-07
4.80677e-06
2.10239e-07
-2.32701e-07
6.70673e-06
3.45098e-07
-1.51155e-07
7.78648e-06
3.73527e-07
-3.62686e-08
6.74188e-06
3.46698e-07
5.40547e-06
5.14004e-08
2.73094e-07
-3.15233e-07
-1.39171e-07
7.13034e-06
3.63758e-07
1.75354e-07
-2.76559e-07
-6.45308e-08
7.22295e-06
1.429e-07
-1.94883e-07
-9.72292e-08
6.93281e-06
1.49454e-07
-9.79124e-08
-1.05628e-07
6.32618e-06
1.38765e-07
-1.97131e-08
-7.17386e-08
5.50693e-06
1.04279e-07
3.50867e-08
-4.20779e-08
4.59845e-06
7.03655e-08
-1.85183e-08
3.68287e-06
6.76318e-08
3.81447e-08
-3.00588e-07
-5.87721e-08
7.74632e-06
4.33954e-07
-2.83867e-07
7.22573e-08
7.69937e-06
-2.21685e-07
1.81484e-08
7.36014e-06
-1.06227e-07
-3.98032e-08
7.42668e-06
-1.2549e-08
-6.34871e-09
6.60416e-06
4.84354e-08
1.4482e-08
5.46279e-06
2.53759e-08
4.3716e-06
8.10506e-08
-1.64047e-07
2.01178e-08
4.92842e-06
3.71483e-07
-1.17289e-07
7.39287e-08
4.445e-06
-1.0914e-07
5.54428e-08
4.4144e-06
-6.81469e-08
3.74069e-08
6.77729e-06
1.84381e-08
9.63282e-08
7.38784e-06
7.56386e-08
1.03935e-07
6.25631e-06
9.25272e-08
4.97567e-06
1.0395e-07
-8.59272e-08
-8.26967e-09
4.2095e-06
1.52922e-07
-1.79604e-07
6.84497e-09
5.98604e-06
-7.68576e-08
1.67747e-08
4.9671e-06
-6.33016e-08
4.71007e-08
4.84093e-06
2.04438e-08
1.87767e-07
7.42594e-06
8.67779e-08
2.00801e-07
6.85043e-06
1.65299e-07
5.42148e-06
1.19282e-07
-2.54044e-07
9.96094e-08
4.52484e-06
1.36934e-07
-2.66653e-07
2.89742e-08
8.79135e-06
-1.55928e-07
-6.16754e-09
8.2664e-06
-1.94033e-07
8.51429e-08
4.93917e-06
-3.34184e-08
2.10635e-07
7.63842e-06
7.22057e-08
2.55792e-07
7.13329e-06
2.18273e-07
5.64327e-06
1.21737e-07
-2.12691e-07
1.87335e-07
4.20197e-06
2.96939e-07
-9.96618e-08
6.62709e-08
4.30106e-06
-6.64743e-08
7.74409e-08
4.03085e-06
-2.40668e-08
2.41402e-07
4.83812e-06
5.4944e-08
3.45015e-07
7.55472e-06
1.05915e-07
3.43815e-07
7.04752e-06
2.7331e-07
5.6135e-06
1.37014e-07
-1.68576e-07
5.98338e-06
4.13279e-07
4.94397e-07
-1.01897e-07
4.8919e-06
4.03275e-07
-7.35993e-08
4.94813e-06
3.89836e-07
-2.75011e-08
6.8665e-06
5.2923e-07
4.93757e-08
7.64636e-06
4.66357e-07
1.02367e-07
6.64306e-06
3.89679e-07
5.34622e-06
1.44358e-07
2.90578e-07
-3.16748e-07
-1.69271e-07
7.05657e-06
3.66999e-07
1.92776e-07
-2.46531e-07
-1.54231e-07
7.11886e-06
1.88483e-07
-1.52089e-07
-1.63255e-07
6.81386e-06
1.87846e-07
-5.8369e-08
-1.39875e-07
6.21071e-06
1.61684e-07
1.21582e-08
-9.34496e-08
5.41001e-06
1.19961e-07
5.89067e-08
-5.87641e-08
4.52726e-06
8.32699e-08
-3.42268e-08
3.63908e-06
8.53624e-08
5.16271e-08
-3.20787e-07
-9.36714e-08
7.83825e-06
4.44151e-07
-2.4823e-07
-1.41616e-08
7.81303e-06
-1.64314e-07
-4.42275e-08
7.42316e-06
-5.20755e-08
-8.34368e-08
7.33147e-06
2.73112e-08
-3.4296e-08
6.46711e-06
7.58223e-08
-6.28229e-09
5.36178e-06
6.87651e-09
4.30545e-06
1.00848e-07
-1.58177e-07
1.61998e-08
5.72529e-06
4.21853e-07
-9.65738e-08
3.18819e-08
4.37161e-06
-8.10824e-08
6.59983e-08
4.74796e-06
-7.70143e-09
2.72135e-08
7.18364e-06
6.85751e-08
7.20914e-08
7.3026e-06
1.08534e-07
8.1833e-08
6.12828e-06
7.33114e-08
4.89138e-06
1.2652e-07
-9.36416e-08
1.16031e-08
4.12896e-06
1.93641e-07
-7.47683e-08
9.61911e-08
4.50048e-06
-9.47891e-08
1.04507e-07
4.30859e-06
-5.59342e-09
6.91535e-08
5.25104e-06
9.3923e-08
1.82198e-07
7.49057e-06
1.30458e-07
1.88335e-07
6.70757e-06
1.51101e-07
5.32814e-06
1.46197e-07
2.94594e-08
5.26473e-08
5.06407e-06
1.75852e-07
-1.6053e-07
-5.24526e-08
9.35658e-06
-9.96357e-08
-2.72289e-08
4.20083e-06
-5.67662e-08
9.80846e-08
5.02191e-06
6.04525e-08
2.49787e-07
7.79726e-06
1.20837e-07
2.66813e-07
6.99454e-06
2.13988e-07
5.55271e-06
1.48648e-07
-7.16977e-08
2.40205e-07
4.91114e-06
3.9362e-07
-4.67654e-08
3.9883e-08
4.18615e-06
-2.73977e-08
1.6877e-07
4.0582e-06
4.92201e-09
3.19428e-07
5.91668e-06
8.62859e-08
3.69742e-07
7.68862e-06
1.23989e-07
3.47768e-07
6.929e-06
2.66566e-07
5.53604e-06
1.49032e-07
-1.56893e-07
6.83752e-06
3.86401e-07
4.66747e-07
-1.32716e-07
6.03527e-06
4.29526e-07
-8.54701e-08
5.96274e-06
4.67758e-07
-2.95968e-08
7.25638e-06
5.31378e-07
4.40743e-08
7.60093e-06
4.5375e-07
1.0033e-07
6.55821e-06
3.76509e-07
5.29134e-06
1.47313e-07
2.74593e-07
-3.1158e-07
-6.39635e-08
6.97934e-06
3.3105e-07
1.21732e-07
-2.46673e-07
-8.61282e-08
7.01356e-06
1.26712e-07
-1.56787e-07
-1.01436e-07
6.6944e-06
1.31095e-07
-7.22704e-08
-7.9648e-08
6.09357e-06
1.12364e-07
-4.52213e-09
-5.47209e-08
5.31042e-06
8.66524e-08
4.37086e-08
-3.80057e-08
4.45322e-06
6.38768e-08
-2.56269e-08
3.59276e-06
7.31544e-08
4.25993e-08
-3.53961e-07
7.40956e-09
7.76191e-06
4.06541e-07
-2.71474e-07
-2.3421e-09
7.77275e-06
-1.82139e-07
-2.95719e-08
7.32405e-06
-8.44069e-08
-2.52495e-08
7.19112e-06
-4.92209e-09
1.30707e-09
6.33171e-06
4.98415e-08
9.85587e-09
5.25936e-06
1.12007e-08
4.23655e-06
8.21206e-08
-2.23022e-07
3.38456e-08
5.93769e-06
4.27784e-07
-1.18716e-07
7.41734e-08
4.47002e-06
-9.07262e-08
1.61255e-08
5.01822e-06
-4.55421e-08
4.44594e-08
7.12525e-06
2.05603e-08
9.36696e-08
7.15874e-06
7.05997e-08
8.71396e-08
6.00107e-06
6.90615e-08
4.80401e-06
1.00195e-07
-1.46349e-07
1.00288e-07
4.74545e-06
3.83039e-07
-1.34399e-07
9.64604e-08
4.6606e-06
-2.59335e-08
7.66993e-08
4.43131e-06
-1.37905e-08
1.05354e-07
5.52456e-06
4.73073e-08
2.00615e-07
7.40074e-06
8.92617e-08
1.84825e-07
6.56803e-06
1.39128e-07
5.23135e-06
1.16125e-07
-2.14195e-07
1.91981e-07
5.83004e-06
4.13784e-07
-1.745e-07
1.5603e-07
5.4701e-06
-4.15636e-08
1.68688e-07
4.32714e-06
-3.99e-08
1.94482e-07
5.1028e-06
2.77333e-08
2.89704e-07
7.69808e-06
8.25706e-08
2.65848e-07
6.85877e-06
1.98889e-07
5.45776e-06
1.17949e-07
-1.47576e-07
3.27561e-07
6.83928e-06
5.23823e-07
-1.01262e-07
1.75632e-07
4.12902e-06
-4.66248e-08
2.74267e-07
4.22473e-06
-5.38559e-08
3.66107e-07
6.15821e-06
2.23018e-09
3.52366e-07
7.5761e-06
6.61811e-08
3.19766e-07
6.81151e-06
2.37268e-07
5.4525e-06
1.11588e-07
-2.2426e-07
6.81862e-06
3.39347e-07
3.31408e-07
-1.78356e-07
6.08206e-06
4.05838e-07
-1.42467e-07
5.89357e-06
4.17088e-07
-1.25305e-07
7.14664e-06
4.15817e-07
-4.09338e-08
7.49751e-06
3.80048e-07
4.50624e-08
6.46791e-06
3.2428e-07
5.22768e-06
1.13531e-07
2.32694e-07
-2.80555e-07
2.02623e-08
6.89527e-06
2.77335e-07
6.70589e-08
-2.33863e-07
-9.71669e-10
6.90597e-06
6.18699e-08
-1.62786e-07
-1.6086e-08
6.57341e-06
6.60093e-08
-8.89699e-08
-1.64501e-08
5.97499e-06
6.12626e-08
-2.35459e-08
-1.64766e-08
5.20855e-06
5.29603e-08
2.67458e-08
-1.73606e-08
4.37666e-06
4.37135e-08
-1.62732e-08
3.54498e-06
5.87634e-08
3.20904e-08
-3.4901e-07
7.98603e-08
7.61481e-06
3.49417e-07
-2.8069e-07
3.53288e-08
7.64855e-06
-2.12326e-07
2.8808e-08
7.17888e-06
-1.23879e-07
3.32778e-08
7.03853e-06
-4.05193e-08
3.63769e-08
6.19544e-06
2.21547e-08
2.54513e-08
5.15415e-06
1.56002e-08
4.16583e-06
6.13343e-08
-2.90823e-07
5.73522e-08
5.68827e-06
3.71375e-07
-1.34704e-07
2.84625e-08
4.50424e-06
-1.21908e-07
2.0822e-08
4.88797e-06
-1.03436e-07
6.52148e-08
6.95487e-06
-3.59686e-08
1.12547e-07
6.99693e-06
2.95834e-08
8.85824e-08
5.87247e-06
6.26371e-08
4.71505e-06
7.15548e-08
-2.90289e-07
1.85241e-07
4.96937e-06
4.6005e-07
-1.52362e-07
9.65388e-08
4.49958e-06
-4.0164e-08
7.04276e-08
5.09206e-06
-6.75343e-08
1.12598e-07
5.38292e-06
-2.44437e-08
1.94072e-07
7.23491e-06
3.90958e-08
1.65555e-07
6.42749e-06
1.18737e-07
5.13251e-06
8.19029e-08
-4.00882e-07
3.21679e-07
5.31232e-06
5.25829e-07
-1.56331e-07
2.93511e-07
5.03514e-06
-2.49065e-08
2.44058e-07
5.89532e-06
-8.13721e-08
2.23475e-07
5.14236e-06
-3.91775e-08
2.618e-07
7.5376e-06
3.42201e-08
2.30148e-07
6.72089e-06
1.66929e-07
5.3596e-06
8.43458e-08
-2.82536e-07
2.61759e-07
6.65725e-06
4.67863e-07
-1.61508e-07
1.9368e-07
4.12701e-06
-6.28537e-08
2.82822e-07
4.19953e-06
-1.11191e-07
2.94937e-07
5.93079e-06
-6.59065e-08
2.91812e-07
7.41462e-06
2.12577e-08
2.66149e-07
6.68846e-06
1.9471e-07
5.36452e-06
8.16202e-08
-2.63065e-07
5.96447e-06
2.73213e-07
1.98816e-07
-2.08919e-07
5.44093e-06
2.87117e-07
-1.71697e-07
5.21431e-06
2.83563e-07
-1.79865e-07
6.75132e-06
2.96706e-07
-9.0033e-08
7.35028e-06
2.96503e-07
1.29179e-08
6.36793e-06
2.63297e-07
5.15796e-06
9.09452e-08
1.86549e-07
-2.20575e-07
1.38526e-08
6.80631e-06
2.24576e-07
7.11089e-08
-1.93709e-07
3.57477e-08
6.79755e-06
4.5662e-08
-1.40993e-07
2.10411e-08
6.45509e-06
4.46409e-08
-7.93321e-08
8.57373e-09
5.86088e-06
4.39267e-08
-1.95491e-08
-5.12776e-09
5.11121e-06
4.2671e-08
2.78184e-08
-1.44537e-08
4.30449e-06
3.92899e-08
-1.82791e-08
3.50123e-06
5.77119e-08
3.22185e-08
-2.663e-07
6.97517e-08
7.37481e-06
2.78334e-07
-2.46873e-07
8.05737e-08
7.43551e-06
-2.00702e-07
6.10563e-08
6.99416e-06
-1.25795e-07
6.47402e-08
6.88585e-06
-4.39365e-08
4.60879e-08
6.06239e-06
1.9596e-08
2.34541e-08
5.05278e-06
9.07803e-09
4.09976e-06
5.84645e-08
-2.35854e-07
4.41996e-08
4.79584e-06
2.56079e-07
-1.22358e-07
1.96395e-08
4.36807e-06
-1.39255e-07
3.82502e-08
4.66349e-06
-1.32087e-07
8.08025e-08
6.76545e-06
-5.33792e-08
1.03208e-07
6.83068e-06
2.10103e-08
7.39691e-08
5.74763e-06
4.79921e-08
4.63125e-06
6.59438e-08
-4.50707e-07
5.58707e-08
4.48007e-06
2.62201e-07
-6.61542e-08
1.32672e-07
5.80031e-06
-5.96314e-08
6.63747e-08
3.72816e-06
-1.02063e-07
8.34918e-08
5.2055e-06
-5.42139e-08
1.58789e-07
7.05371e-06
2.55417e-08
1.31968e-07
6.28976e-06
9.2866e-08
5.03879e-06
7.44275e-08
-2.14197e-07
1.79281e-07
4.44943e-06
2.32778e-07
-2.26682e-07
1.93902e-07
7.02051e-06
-7.33593e-08
1.40705e-07
6.4451e-06
-1.22145e-07
1.50489e-07
5.00692e-06
-6.79159e-08
1.86207e-07
7.33956e-06
2.37585e-08
1.77847e-07
6.58343e-06
1.31592e-07
5.26561e-06
7.90861e-08
-2.60021e-07
1.4018e-07
4.41799e-06
3.04182e-07
-1.39383e-07
9.10574e-08
4.13303e-06
-5.32009e-08
1.17696e-07
3.91234e-06
-1.16279e-07
1.59958e-07
5.1934e-06
-6.91666e-08
2.13998e-07
7.21412e-06
2.26941e-08
2.11064e-07
6.56342e-06
1.57006e-07
5.27976e-06
8.20715e-08
-1.66534e-07
5.1125e-06
2.08566e-07
1.63806e-07
-1.42606e-07
4.41135e-06
1.72545e-07
-1.34568e-07
4.54756e-06
1.53061e-07
-1.54737e-07
6.50255e-06
2.14554e-07
-7.25225e-08
7.18148e-06
2.34199e-07
2.33792e-08
6.26587e-06
2.17253e-07
5.09073e-06
9.42664e-08
1.53403e-07
-1.73563e-07
-6.93822e-08
6.72761e-06
2.02438e-07
1.19192e-07
-1.42751e-07
-2.22145e-08
6.69966e-06
8.95034e-08
-9.69595e-08
-1.90202e-08
6.35048e-06
7.8033e-08
-4.32799e-08
-2.45775e-08
5.76216e-06
6.97242e-08
8.81545e-09
-3.15917e-08
5.0286e-06
6.22075e-08
4.79957e-08
-3.41876e-08
4.2454e-06
5.41698e-08
-3.36019e-08
3.46743e-06
7.09056e-08
4.46374e-08
-1.83841e-07
-5.30488e-09
7.21687e-06
2.44634e-07
-1.72141e-07
5.47214e-08
7.20995e-06
-1.44346e-07
4.78482e-08
6.81623e-06
-7.69073e-08
3.29983e-08
6.74697e-06
-5.3976e-09
1.43049e-08
5.94522e-06
4.69342e-08
-5.598e-10
4.96681e-06
-9.23212e-09
4.04585e-06
7.65102e-08
-1.02114e-07
5.11004e-09
4.46744e-06
1.98379e-07
-7.97369e-08
3.01033e-08
3.79456e-06
-1.05172e-07
3.94548e-08
4.48227e-06
-8.18945e-08
5.99193e-08
6.61316e-06
-5.84472e-09
6.86442e-08
6.68041e-06
5.53122e-08
4.67897e-08
5.63917e-06
2.78456e-08
4.56099e-06
8.85877e-08
-1.16014e-07
-2.9086e-08
3.78732e-06
1.5213e-07
-8.11996e-08
4.88277e-09
4.9119e-06
-5.44378e-08
5.88713e-08
3.81717e-06
-6.79624e-08
4.94529e-08
4.93116e-06
-1.32516e-09
1.13122e-07
6.87642e-06
6.48321e-08
1.018e-07
6.16866e-06
7.15636e-08
4.95931e-06
1.00641e-07
-1.43699e-07
7.75994e-08
4.18992e-06
6.27381e-08
-1.8989e-07
4.35531e-08
7.13689e-06
-5.66316e-08
1.59913e-08
6.51415e-06
-8.15618e-08
7.53334e-08
4.73993e-06
-1.16089e-08
1.41437e-07
7.14729e-06
6.5345e-08
1.47048e-07
6.46131e-06
1.10356e-07
5.18533e-06
1.06882e-07
-1.25483e-07
1.16469e-07
3.96449e-06
2.11111e-07
-6.53727e-08
2.50869e-08
4.10763e-06
-2.81024e-08
3.7139e-08
3.72869e-06
-5.95102e-08
1.12216e-07
4.89688e-06
-8.21803e-10
1.87213e-07
7.06308e-06
6.75075e-08
1.89432e-07
6.45277e-06
1.40022e-07
5.20772e-06
1.09901e-07
-7.03827e-08
5.08528e-06
1.85658e-07
2.17504e-07
-6.77256e-08
4.32891e-06
1.73269e-07
-7.93754e-08
4.51219e-06
1.50311e-07
-8.67224e-08
6.41211e-06
2.19727e-07
-1.33704e-08
7.04011e-06
2.25197e-07
6.14843e-08
6.177e-06
2.03507e-07
5.03453e-06
1.16524e-07
1.41204e-07
-1.67007e-07
-1.21477e-07
6.66303e-06
2.02899e-07
1.50193e-07
-1.16489e-07
-1.06178e-07
6.61741e-06
1.37957e-07
-6.14037e-08
-9.3766e-08
6.26402e-06
1.2511e-07
-7.38914e-09
-8.19063e-08
5.68271e-06
1.07282e-07
3.78228e-08
-7.00413e-08
4.96427e-06
8.91347e-08
6.86399e-08
-5.98823e-08
4.20124e-06
7.32351e-08
-5.15272e-08
3.44442e-06
8.41778e-08
5.90412e-08
-1.84405e-07
-5.47873e-08
7.12677e-06
2.52092e-07
-1.31381e-07
-1.61898e-08
7.09134e-06
-8.81448e-08
-1.41742e-08
6.69976e-06
-1.74193e-08
-3.92974e-08
6.63616e-06
4.05638e-08
-3.32764e-08
5.85058e-06
7.81834e-08
-3.07943e-08
4.90003e-06
-2.98487e-08
4.00576e-06
9.65802e-08
-9.32563e-08
-4.81142e-09
4.44056e-06
2.37984e-07
-4.79453e-08
9.99357e-09
3.47969e-06
-4.73991e-08
4.29376e-08
4.42936e-06
5.58407e-10
2.06731e-08
6.49486e-06
6.09057e-08
2.97404e-08
6.55905e-06
9.86637e-08
1.85815e-08
5.552e-06
7.53507e-09
4.50649e-06
1.15788e-07
-1.23149e-07
5.01918e-09
3.73711e-06
1.66643e-07
-3.88027e-08
2.92945e-08
4.13367e-06
-4.65229e-08
7.645e-08
3.66183e-06
1.03423e-08
4.69291e-08
4.86156e-06
8.23311e-08
9.53624e-08
6.74623e-06
1.18235e-07
8.2943e-08
6.06848e-06
5.53161e-08
4.89614e-06
1.33648e-07
-4.5875e-08
7.51986e-08
6.07584e-06
1.62557e-07
-5.07448e-08
5.55502e-08
7.21926e-06
-3.40714e-08
4.46729e-08
4.15378e-06
-1.55188e-08
7.99118e-08
4.41056e-06
7.52344e-08
1.43493e-07
7.01359e-06
1.21056e-07
1.40045e-07
6.35841e-06
9.96674e-08
5.12074e-06
1.41278e-07
-8.46365e-08
9.38078e-08
3.87736e-06
1.66597e-07
-3.05033e-08
5.45277e-08
4.06181e-06
-2.69962e-08
8.67591e-08
3.696e-06
3.09404e-09
1.64375e-07
4.86327e-06
7.52228e-08
2.03679e-07
6.9467e-06
1.17517e-07
1.90077e-07
6.36048e-06
1.34098e-07
5.15007e-06
1.40738e-07
-6.13349e-08
5.14972e-06
1.82929e-07
2.14713e-07
-5.68709e-08
4.30988e-06
2.11274e-07
-5.04573e-08
4.48028e-06
2.12723e-07
-2.86809e-08
6.32759e-06
2.72688e-07
4.33017e-08
6.93808e-06
2.44865e-07
9.94373e-08
6.10484e-06
2.06145e-07
4.99062e-06
1.3899e-07
1.3847e-07
-1.64336e-07
-1.15638e-07
6.60973e-06
1.92623e-07
1.40659e-07
-1.12584e-07
-1.21368e-07
6.5499e-06
1.36868e-07
-5.2245e-08
-1.20367e-07
6.19275e-06
1.31049e-07
3.2818e-09
-1.06223e-07
5.61755e-06
1.15725e-07
4.45927e-08
-8.50456e-08
4.91244e-06
9.5434e-08
7.12374e-08
-6.9532e-08
4.16621e-06
7.78926e-08
-5.82464e-08
3.42754e-06
8.33844e-08
6.28724e-08
-2.01943e-07
-5.40982e-08
7.06902e-06
2.51908e-07
-1.36934e-07
-4.65003e-08
7.07683e-06
-7.08525e-08
-6.44586e-08
6.64526e-06
5.61847e-09
-8.94665e-08
6.55789e-06
5.56155e-08
-5.96387e-08
5.775e-06
8.56084e-08
-4.59357e-08
4.84644e-06
-4.0066e-08
3.97434e-06
9.87914e-08
-1.44063e-07
1.26296e-08
4.5139e-06
2.70877e-07
-4.94644e-08
-1.14768e-09
3.49188e-06
-1.61271e-08
-2.00515e-08
4.61859e-06
5.15493e-08
-1.94661e-08
6.495e-06
8.81796e-08
4.56604e-09
6.47863e-06
1.11542e-07
6.68612e-10
5.48197e-06
-5.93315e-09
4.46299e-06
1.20858e-07
-2.01237e-07
8.19994e-08
3.67858e-06
1.90047e-07
-1.22824e-07
1.06269e-07
3.94659e-06
-6.14003e-09
4.47522e-08
5.65878e-06
5.53853e-08
3.93584e-08
5.03246e-06
1.17241e-07
7.27024e-08
6.67871e-06
1.35809e-07
6.32027e-08
5.98732e-06
3.98155e-08
4.84512e-06
1.41063e-07
-3.8206e-07
1.01817e-07
4.97046e-06
3.74008e-07
-1.74618e-07
1.73377e-07
5.75672e-06
-1.19383e-08
1.2667e-07
3.91967e-06
5.39816e-08
1.07366e-07
4.37025e-06
1.26234e-07
1.46961e-07
6.97936e-06
1.44526e-07
1.27923e-07
6.27532e-06
8.53314e-08
5.06874e-06
1.50959e-07
-1.50541e-07
1.43465e-07
4.58022e-06
3.30104e-07
-6.05508e-08
1.31398e-07
4.01288e-06
-1.45055e-08
1.57786e-07
3.62593e-06
5.76333e-08
2.15474e-07
4.98009e-06
1.15361e-07
2.09253e-07
6.88783e-06
1.37939e-07
1.79045e-07
6.28671e-06
1.20289e-07
5.10393e-06
1.49058e-07
-1.17701e-07
5.12339e-06
2.22954e-07
2.07567e-07
-7.26331e-08
4.17367e-06
2.547e-07
-3.52087e-08
4.40431e-06
2.71991e-07
8.2534e-09
6.26933e-06
3.01052e-07
7.37377e-08
6.86513e-06
2.44489e-07
1.1555e-07
6.04775e-06
1.94241e-07
4.95592e-06
1.44573e-07
1.25848e-07
-1.34814e-07
-6.09117e-08
6.55542e-06
1.52622e-07
9.73722e-08
-1.07285e-07
-4.22323e-08
6.48315e-06
8.13569e-08
-6.19825e-08
-5.61858e-08
6.12192e-06
8.16906e-08
-1.21141e-08
-6.35018e-08
5.55203e-06
7.91564e-08
2.7022e-08
-5.6758e-08
4.86015e-06
6.98991e-08
5.36263e-08
-5.19193e-08
4.13059e-06
6.08997e-08
-4.79424e-08
3.40965e-06
6.69987e-08
5.23896e-08
-1.6808e-07
-1.21568e-08
7.03011e-06
2.03671e-07
-1.46029e-07
1.97514e-08
7.08705e-06
-9.23394e-08
-1.34687e-08
6.62591e-06
-2.04896e-08
-4.7043e-08
6.48298e-06
2.91607e-08
-3.21778e-08
5.70063e-06
6.17064e-08
-3.09155e-08
4.79293e-06
-3.23119e-08
3.94234e-06
7.80584e-08
-1.46851e-07
3.08324e-08
4.50722e-06
2.22388e-07
-4.95353e-08
1.37136e-08
3.9044e-06
-3.74813e-08
1.09818e-08
4.79287e-06
9.45325e-09
-4.67927e-10
6.51308e-06
5.02181e-08
2.10112e-08
6.404e-06
7.96488e-08
8.36978e-09
5.41324e-06
-3.91501e-09
4.41927e-06
9.49145e-08
-1.62071e-07
5.55174e-08
3.64551e-06
1.72006e-07
-3.6915e-08
1.05929e-07
5.25144e-06
-2.85465e-08
8.4425e-09
5.20637e-06
9.24624e-09
3.34871e-08
5.31972e-06
6.38164e-08
7.35947e-08
6.63065e-06
9.42704e-08
5.62397e-08
5.90889e-06
3.17972e-08
4.794e-06
1.0961e-07
-2.66908e-07
1.48882e-07
3.99493e-06
2.56118e-07
-1.32986e-07
1.84293e-07
5.98872e-06
-2.49648e-08
8.82665e-08
5.67646e-06
-8.57962e-09
9.38424e-08
4.77733e-06
6.14471e-08
1.11227e-07
6.96492e-06
9.81966e-08
9.88883e-08
6.19581e-06
6.52234e-08
5.01646e-06
1.16955e-07
-1.87691e-07
1.21888e-07
4.66482e-06
3.36821e-07
-8.13607e-08
1.10343e-07
3.98205e-06
-4.38125e-08
1.13661e-07
3.56233e-06
4.69343e-09
1.56221e-07
5.21262e-06
6.19311e-08
1.53775e-07
6.84763e-06
9.70303e-08
1.35872e-07
6.21447e-06
9.15563e-08
5.05673e-06
1.17771e-07
-1.33101e-07
4.78551e-06
2.059e-07
1.49129e-07
-7.26855e-08
3.87827e-06
1.85804e-07
-4.80531e-08
4.35221e-06
1.88941e-07
-2.11689e-08
6.2496e-06
2.1296e-07
3.99156e-08
6.81167e-06
1.79854e-07
8.5337e-08
5.98948e-06
1.48559e-07
4.91918e-06
1.17965e-07
9.54962e-08
-1.04372e-07
-2.56891e-08
6.49709e-06
1.17282e-07
7.10973e-08
-9.16456e-08
7.18957e-09
6.41415e-06
4.92085e-08
-5.8138e-08
-1.18911e-08
6.04982e-06
5.06027e-08
-1.85064e-08
-2.50685e-08
5.48621e-06
5.13114e-08
1.66174e-08
-3.28326e-08
4.80816e-06
4.9734e-08
4.17059e-08
-3.79027e-08
4.09556e-06
4.77691e-08
-4.0498e-08
3.39178e-06
5.51853e-08
4.48774e-08
-1.23848e-07
2.20957e-08
6.96168e-06
1.46921e-07
-1.28596e-07
6.2407e-08
7.00294e-06
-9.4762e-08
3.02242e-08
6.55795e-06
-3.82777e-08
8.47243e-09
6.39908e-06
1.08776e-08
-6.53157e-09
5.62514e-06
4.47138e-08
-1.89685e-08
4.74006e-06
-2.71394e-08
3.9108e-06
6.27824e-08
-8.93851e-08
3.17274e-08
4.43987e-06
1.26481e-07
-5.68862e-08
3.74884e-08
4.01763e-06
-6.70485e-08
3.02309e-08
4.7072e-06
-3.25483e-08
3.54373e-08
6.44437e-06
1.90079e-08
3.38898e-08
6.31766e-06
5.63387e-08
1.20642e-08
5.34482e-06
-3.842e-09
4.37631e-06
7.59203e-08
-6.95578e-08
3.37608e-08
3.62447e-06
9.40917e-08
-2.60618e-08
6.69593e-08
5.37578e-06
-3.96366e-08
5.17002e-09
3.27077e-06
-3.25919e-08
3.73507e-08
5.21147e-06
2.43149e-08
6.62481e-08
6.5449e-06
6.63508e-08
4.76528e-08
5.83119e-06
2.46011e-08
4.74384e-06
8.7976e-08
-1.22161e-07
5.97934e-08
4.00287e-06
8.34017e-08
-1.03182e-07
3.51362e-08
6.20094e-06
-5.48214e-08
-6.11492e-09
6.18407e-06
-5.35493e-08
3.57826e-08
5.02569e-06
1.48905e-08
7.08448e-08
6.86998e-06
6.76039e-08
7.31842e-08
6.11755e-06
4.95521e-08
4.9651e-06
9.40057e-08
-1.38936e-07
4.73044e-08
3.90544e-06
2.0524e-07
-6.33482e-08
1.15947e-08
3.94885e-06
-3.29527e-08
1.9743e-08
3.50778e-06
-2.92551e-08
6.30956e-08
5.16978e-06
2.51616e-08
9.84701e-08
6.7772e-06
6.97416e-08
1.00921e-07
6.14215e-06
7.03246e-08
5.00972e-06
9.6007e-08
-7.80403e-08
4.56589e-06
1.37292e-07
9.54615e-08
-5.04176e-08
3.83573e-06
9.32442e-08
-5.27075e-08
4.32182e-06
8.44613e-08
-4.34766e-08
6.19728e-06
1.20161e-07
1.3669e-08
6.74163e-06
1.22091e-07
6.2351e-08
5.92959e-06
1.1214e-07
4.88166e-06
9.70798e-08
7.31765e-08
-8.92638e-08
-8.18127e-08
6.45516e-06
1.14038e-07
9.89937e-08
-6.58086e-08
-5.44384e-08
6.36269e-06
8.24333e-08
-3.15602e-08
-5.64322e-08
5.99674e-06
7.52704e-08
1.06016e-09
-5.10658e-08
5.43865e-06
6.59639e-08
2.87529e-08
-4.95457e-08
4.77129e-06
5.86696e-08
4.76562e-08
-4.8636e-08
4.0716e-06
5.35915e-08
-4.76087e-08
3.38113e-06
5.66646e-08
4.91939e-08
-1.00737e-07
-4.17386e-08
6.90421e-06
1.43828e-07
-8.70006e-08
6.94305e-09
6.91729e-06
-5.10538e-08
-1.37271e-08
6.50529e-06
-4.66531e-09
-2.83243e-08
6.33486e-06
3.26643e-08
-3.19475e-08
5.57021e-06
5.65496e-08
-3.49301e-08
4.70236e-06
-3.72906e-08
3.88936e-06
6.76033e-08
-5.89836e-08
-7.26806e-09
4.36551e-06
1.24646e-07
-3.71775e-08
1.35774e-08
3.90144e-06
-2.73837e-08
1.08263e-08
4.61142e-06
1.6184e-08
8.4205e-09
6.3883e-06
5.40288e-08
2.76582e-09
6.25138e-06
7.66142e-08
-7.88256e-09
5.29513e-06
-1.57192e-08
4.34592e-06
8.54308e-08
-2.69065e-08
-1.90795e-08
3.59562e-06
7.89602e-08
-1.62491e-08
-1.77353e-08
3.6852e-06
-9.85586e-09
9.84033e-09
3.26542e-06
3.81906e-08
2.29657e-08
4.97527e-06
8.15991e-08
4.37178e-08
6.47636e-06
9.83213e-08
3.25173e-08
5.7741e-06
1.51292e-08
4.70788e-06
1.03459e-07
-1.6495e-08
3.42589e-08
3.92711e-06
4.32355e-08
-2.95658e-08
-1.79198e-08
4.93998e-06
-9.34048e-09
-5.06262e-09
5.88259e-06
2.26451e-08
2.86641e-08
4.9147e-06
8.46514e-08
6.75752e-08
6.78386e-06
1.05252e-07
6.96766e-08
6.05984e-06
4.55427e-08
4.92808e-06
1.11946e-07
-8.1776e-08
4.87065e-08
3.82357e-06
1.37415e-07
-1.23793e-08