/*--------------------------------*- C++ -*----------------------------------*\
| =========                 |                                                 |
| \\      /  F ield         | OpenFOAM: The Open Source CFD Toolbox           |
|  \\    /   O peration     | Version:  plus.master.MPPICInterFoam            |
|   \\  /    A nd           | Web:      www.OpenFOAM.com                      |
|    \\/     M anipulation  |                                                 |
\*---------------------------------------------------------------------------*/
FoamFile
{
    version     2.0;
    format      ascii;
    class       volScalarField;
    location    "13.8";
    object      k;
}
// * * * * * * * * * * * * * * * * * * * * * * * * * * * * * * * * * * * * * //

dimensions      [0 2 -2 0 0 0 0];

internalField   nonuniform List<scalar> 
11821
(
0.0526931
0.0619528
0.0502342
0.0652592
0.0551872
0.0454885
0.0565535
0.0612761
0.0620866
0.0592141
0.0540323
0.0477397
0.0410003
0.0695785
0.0771591
0.0779992
0.0724564
0.0642122
0.0554172
0.046875
0.0816794
0.0875438
0.0897561
0.0862733
0.0742425
0.0622319
0.0516232
0.0825384
0.0809656
0.0860977
0.0934358
0.0818205
0.0667885
0.0544893
0.0807278
0.0713881
0.0769332
0.0929945
0.0828578
0.0673421
0.0547423
0.0818387
0.0815479
0.0844082
0.0877557
0.0768755
0.0636415
0.0522722
0.0738192
0.0818637
0.0826548
0.0765647
0.0670506
0.0570619
0.0475612
0.0578659
0.0624457
0.0633013
0.060677
0.0557731
0.0496316
0.0428947
0.0705367
0.0777963
0.0786932
0.0734665
0.0656934
0.0572297
0.0487933
0.0828957
0.0924619
0.0943077
0.0871977
0.0753476
0.0638605
0.0534972
0.0902049
0.0886859
0.0931128
0.09674
0.0826832
0.0682446
0.0563104
0.0907207
0.0838684
0.0876418
0.0969034
0.083833
0.068861
0.0565818
0.0869789
0.089501
0.0911271
0.0899202
0.0782178
0.0653437
0.0541529
0.0751479
0.0823056
0.0834098
0.0780019
0.0687284
0.0589235
0.0494322
0.0594183
0.0638815
0.0647059
0.0622358
0.0574554
0.0513348
0.0445375
0.0720345
0.0784587
0.0791242
0.0745399
0.0672355
0.0589374
0.0504886
0.0836059
0.0888746
0.0905322
0.086733
0.0764477
0.0654809
0.055202
0.0903359
0.0811168
0.0871758
0.0930157
0.0831184
0.0697423
0.0580041
0.0901258
0.0793981
0.0809801
0.0928317
0.0845419
0.0704465
0.0582916
0.0865847
0.0879517
0.0901224
0.0903461
0.0796975
0.0671665
0.0558814
0.0757109
0.0824588
0.0834132
0.0789493
0.0706069
0.0607434
0.0510946
0.0609046
0.0654462
0.0662878
0.0638502
0.059066
0.0528753
0.0459685
0.0731701
0.0792935
0.0800646
0.0758679
0.0688352
0.0605449
0.0519949
0.0802817
0.0846365
0.0885282
0.0865747
0.0777435
0.0670928
0.056754
0.0771984
0.0855678
0.0903901
0.0906152
0.0838983
0.0713091
0.0595685
0.0721952
0.0800485
0.0863188
0.0896715
0.0848647
0.0719854
0.059844
0.0758561
0.0758139
0.0811088
0.0864487
0.0808536
0.0687844
0.0574124
0.0746729
0.0774089
0.0793682
0.0788971
0.0718948
0.0622931
0.0525611
0.0623646
0.0670603
0.0678922
0.0653807
0.0604861
0.0541615
0.0471357
0.0748314
0.0812505
0.0818373
0.0774886
0.0703429
0.0619144
0.0532421
0.0827014
0.0883319
0.0912499
0.0884389
0.07931
0.0685541
0.0580827
0.0800761
0.0859338
0.0896588
0.0934259
0.0855974
0.0728452
0.060951
0.0749833
0.0783105
0.0845501
0.0912191
0.0865116
0.0735115
0.0612304
0.0780216
0.0770755
0.0832333
0.0882848
0.0822496
0.070222
0.0587645
0.0763399
0.0794962
0.0814412
0.080294
0.0732366
0.0636573
0.0538527
0.0634878
0.0683199
0.06914
0.0665365
0.0615091
0.0550669
0.047944
0.0763108
0.083167
0.0836611
0.0789989
0.0715391
0.0629105
0.0541042
0.0857992
0.0928474
0.0955605
0.0911517
0.0808257
0.069672
0.0590104
0.0857532
0.0826201
0.0939817
0.0982266
0.0875362
0.0740864
0.0619453
0.0814895
0.084573
0.0899471
0.0969847
0.088962
0.074846
0.062268
0.0812678
0.0831682
0.0899766
0.092648
0.0840476
0.0714379
0.0597775
0.0785019
0.0836956
0.086152
0.0829311
0.0747235
0.064803
0.0548271
0.0642109
0.0690322
0.0697975
0.0671156
0.0620251
0.0555443
0.0483928
0.0773027
0.0843322
0.0846876
0.0797596
0.0721084
0.063394
0.0545464
0.0887785
0.0960271
0.0992168
0.0927685
0.0816124
0.0701926
0.0594602
0.0902446
0.0926994
0.101107
0.102014
0.0886864
0.0746966
0.0624349
0.0893719
0.0817756
0.0952784
0.101668
0.0903327
0.0755629
0.062815
0.0877927
0.0893923
0.0953925
0.0970102
0.085349
0.0721906
0.0603585
0.0797159
0.0868049
0.0887372
0.0846545
0.0757587
0.065542
0.0554242
0.0646497
0.0693142
0.0699643
0.0672575
0.0621761
0.0557172
0.0485895
0.077787
0.08443
0.0845583
0.0796853
0.0721332
0.0634928
0.0546936
0.0894811
0.0973905
0.0985709
0.0922615
0.0814506
0.0702168
0.0595734
0.0935403
0.0949579
0.104011
0.101077
0.0883652
0.0746919
0.0625518
0.0915948
0.080334
0.0958426
0.101808
0.0900866
0.0756294
0.0629814
0.0892085
0.090556
0.0966995
0.0973003
0.0855465
0.0724176
0.0605982
0.080693
0.0877514
0.0895493
0.0852254
0.0761779
0.0658682
0.0557229
0.0649493
0.069489
0.0700128
0.0672505
0.0621652
0.0557248
0.0486381
0.0780483
0.0843266
0.0843287
0.0794362
0.0719647
0.0634016
0.0546811
0.088926
0.0958041
0.0978587
0.0916409
0.0810962
0.0700399
0.0595229
0.0929435
0.0951126
0.103037
0.100329
0.0879013
0.0744805
0.0624989
0.0853565
0.091611
0.100488
0.100899
0.0897397
0.0754819
0.0629706
0.0874497
0.0888677
0.0964694
0.0965636
0.085395
0.0723775
0.060652
0.0793334
0.0855555
0.0877957
0.0846909
0.0761166
0.0659219
0.0558449
0.065163
0.0696495
0.0700472
0.0672185
0.0620931
0.0556498
0.0485941
0.0781213
0.0844466
0.0841161
0.0792338
0.0717822
0.063248
0.0545855
0.0879998
0.0956492
0.0970479
0.0911467
0.0807914
0.0698352
0.0594029
0.0888709
0.0965523
0.0992923
0.0992572
0.0874547
0.074263
0.0623899
0.0851201
0.089609
0.0975013
0.099855
0.089332
0.0753068
0.0628983
0.0830546
0.0877181
0.095075
0.0953208
0.0851092
0.0722718
0.0606305
0.0792195
0.0848696
0.0876735
0.0845452
0.0760498
0.0659159
0.0558854
0.065271
0.0696742
0.0700046
0.0670985
0.0619223
0.0554817
0.0484575
0.0782414
0.0844598
0.0840916
0.0790538
0.0715314
0.0630126
0.054397
0.08846
0.0952402
0.0978749
0.0910992
0.0805142
0.0695605
0.0591852
0.0896573
0.09193
0.103202
0.10026
0.0873441
0.0740205
0.0621834
0.0855881
0.0927966
0.102137
0.101122
0.0894494
0.0751348
0.0627299
0.084117
0.0885066
0.0969745
0.0962286
0.0851347
0.0721513
0.060516
0.07977
0.0859647
0.0887427
0.0849809
0.0760915
0.0658661
0.0558351
0.0651671
0.0694395
0.0696993
0.0667788
0.0616063
0.055194
0.0482194
0.0781334
0.0840944
0.0835505
0.0785758
0.0711006
0.0626403
0.0540945
0.0889893
0.0959168
0.0971517
0.0903548
0.0799303
0.069105
0.0588342
0.0915666
0.0958597
0.104741
0.0989196
0.0865493
0.0734965
0.0618101
0.0899
0.0856912
0.0957991
0.100805
0.0886801
0.0746292
0.0623794
0.0855316
0.0886288
0.0970504
0.0961406
0.0847077
0.0717856
0.0602398
0.0798433
0.0864004
0.0891699
0.0850514
0.0759113
0.065645
0.0556497
0.0649051
0.0690405
0.069242
0.0663074
0.0611609
0.0548002
0.0478984
0.0778248
0.0834798
0.0829626
0.0779786
0.0705414
0.0621491
0.0536966
0.0888685
0.094852
0.0967969
0.0897332
0.0792726
0.0685338
0.0583798
0.0914788
0.0975437
0.106023
0.0984181
0.0857512
0.0728576
0.0613271
0.0853039
0.0894692
0.097934
0.0989178
0.0876674
0.0739661
0.0619107
0.0865386
0.0886853
0.0968101
0.0957625
0.0840163
0.071248
0.0598415
0.0798875
0.0860025
0.0888242
0.0846618
0.0754788
0.065256
0.0553475
0.0645895
0.0686136
0.0687158
0.0657629
0.0606619
0.0543764
0.0475585
0.0774125
0.0828882
0.082202
0.0772196
0.0698813
0.0616107
0.053277
0.0884969
0.095025
0.0957252
0.0887656
0.0784704
0.0679011
0.0579016
0.0911719
0.0966569
0.101574
0.0975896
0.0849102
0.0721901
0.0608296
0.0856435
0.0923793
0.102234
0.0995331
0.0869695
0.0733546
0.0614438
0.0853585
0.0890181
0.0972903
0.0953979
0.0833635
0.0707035
0.0594318
0.078932
0.0852124
0.0882541
0.0840486
0.074929
0.0648139
0.0550188
0.0643365
0.0682867
0.0682997
0.0653212
0.0602456
0.0540121
0.0472531
0.0770729
0.0825252
0.081583
0.0765971
0.0693392
0.0611651
0.0529148
0.0882636
0.0954028
0.0950725
0.0879154
0.0778037
0.0673922
0.0575034
0.0917104
0.099621
0.100941
0.0968125
0.0842177
0.0716739
0.0604299
0.0862896
0.0917439
0.10247
0.0991993
0.0864015
0.0728883
0.0610752
0.0839944
0.0890655
0.0974003
0.094608
0.0827642
0.0702758
0.059105
0.0783933
0.0849128
0.0876183
0.0833867
0.0744332
0.0644597
0.0547503
0.0640933
0.0679612
0.0679433
0.0649485
0.0598764
0.0536658
0.0469486
0.0766854
0.0819913
0.0811097
0.0761497
0.0689125
0.0607691
0.0525647
0.0875272
0.0943786
0.0945421
0.0873818
0.0773297
0.0669645
0.0571273
0.0900503
0.0941185
0.1013
0.0962036
0.0837154
0.071241
0.0600524
0.0807783
0.0883344
0.101217
0.0982996
0.0859045
0.0724812
0.0607215
0.0833716
0.0882866
0.0967171
0.0939525
0.0823232
0.0699194
0.0587938
0.0778488
0.084752
0.0872884
0.083003
0.0741164
0.0641777
0.0544964
0.00951505
0.00386421
0.0273566
0.0223064
0.0179182
0.0139615
0.00997052
0.00399384
0.0424879
0.0349879
0.0286498
0.0232456
0.0185789
0.0144079
0.0102493
0.00403552
0.0427126
0.0352458
0.0289062
0.02347
0.0187563
0.0145383
0.0103399
0.00402743
0.0408798
0.0340802
0.0281938
0.0230472
0.0185148
0.0144135
0.0102973
0.00411441
0.0376518
0.032067
0.0269233
0.0222501
0.0180292
0.0141366
0.0101628
0.00419683
0.0341909
0.0293447
0.0248983
0.0208463
0.0171297
0.0135993
0.00984313
0.00405003
0.0386962
0.0325917
0.0272729
0.0225875
0.0183976
0.0145066
0.0104569
0.00426507
0.0424343
0.0354125
0.0293595
0.0241043
0.0194774
0.01525
0.0109301
0.00439802
0.0446793
0.0371329
0.0306524
0.0250515
0.0201499
0.0157084
0.0112186
0.00444228
0.0448745
0.037357
0.0308767
0.0252509
0.0203129
0.0158344
0.0113105
0.00444491
0.0430062
0.0361327
0.0300982
0.024768
0.0200258
0.0156816
0.0112555
0.00453588
0.0397278
0.0340316
0.02873
0.0238789
0.0194642
0.0153492
0.0110874
0.00461217
0.0360393
0.0310895
0.0265097
0.0223
0.0184037
0.014668
0.0106536
0.0043982
0.040601
0.034406
0.0289552
0.0241046
0.0197213
0.0156094
0.0112875
0.00461779
0.0443385
0.0372496
0.0310746
0.0256562
0.0208319
0.0163761
0.011775
0.00475369
0.0465645
0.0389664
0.0323725
0.026615
0.0215207
0.0168516
0.0120767
0.00480405
0.0467571
0.0391743
0.032577
0.0268025
0.0216831
0.0169853
0.0121789
0.00482984
0.0448795
0.0379107
0.0317539
0.0262853
0.0213765
0.016826
0.0121262
0.00492701
0.0415406
0.0357296
0.0303091
0.0253302
0.0207647
0.016462
0.0119437
0.00500435
0.03764
0.0325938
0.0278954
0.0235478
0.0194961
0.0155841
0.0113486
0.00469359
0.0422632
0.0359758
0.0304032
0.025405
0.0208535
0.0165522
0.0119982
0.00491727
0.0460177
0.0388482
0.032557
0.0269911
0.0219945
0.0173424
0.0125002
0.0050587
0.0482394
0.0405686
0.0338676
0.0279727
0.0227093
0.0178412
0.012818
0.00512124
0.0484259
0.0407643
0.0340726
0.0281714
0.0228894
0.0179948
0.0129392
0.0051737
0.0465323
0.0394768
0.0332333
0.0276459
0.0225834
0.017844
0.0128987
0.00527998
0.0431226
0.0372372
0.0317339
0.0266479
0.0219455
0.0174695
0.0127165
0.00536339
0.0390138
0.0338683
0.0290579
0.0245876
0.0204033
0.0163443
0.0119255
0.00493931
0.0437079
0.0373157
0.0316213
0.0264879
0.021791
0.0173311
0.0125842
0.00516631
0.0475013
0.0402315
0.0338179
0.0281116
0.0229616
0.0181424
0.0130983
0.00531266
0.0497361
0.0419772
0.0351615
0.0291254
0.0237056
0.0186658
0.0134344
0.00538341
0.0499182
0.0421838
0.0353846
0.0293473
0.023911
0.0188452
0.0135792
0.00546753
0.048017
0.040893
0.0345454
0.0288287
0.0236186
0.0187115
0.0135556
0.00558425
0.0445569
0.0386042
0.0330085
0.0278092
0.0229741
0.0183399
0.0133811
0.0056755
0.0401137
0.0348765
0.0299714
0.0254042
0.0211189
0.0169479
0.0123861
0.00513436
0.044875
0.0383759
0.0325739
0.027333
0.0225264
0.0179473
0.0130507
0.00536279
0.0487231
0.0413358
0.0348058
0.028985
0.0237195
0.0187751
0.0135753
0.00551253
0.0509987
0.0431197
0.036184
0.0300298
0.0244906
0.0193219
0.0139294
0.00559349
0.051199
0.0433513
0.0364346
0.0302797
0.0247242
0.0195285
0.0140987
0.00571084
0.0492895
0.042063
0.0356059
0.029777
0.0244512
0.019415
0.014093
0.00583738
0.0457813
0.0397437
0.0340537
0.0287551
0.0238119
0.0190524
0.0139286
0.00593672
0.0408789
0.0355896
0.0306312
0.0260075
0.021659
0.0174116
0.0127443
0.00528422
0.0456728
0.0391108
0.0332504
0.02795
0.0230779
0.0184193
0.0134135
0.00551375
0.049553
0.0420924
0.0354998
0.0296185
0.0242858
0.0192598
0.0139473
0.00566706
0.0518677
0.0439065
0.0369039
0.0306869
0.0250797
0.0198277
0.0143186
0.00576558
0.0521025
0.0441701
0.0371843
0.0309653
0.0253413
0.0200613
0.0145122
0.00591079
0.0502007
0.0428992
0.0363766
0.0304852
0.0250912
0.0199699
0.0145252
0.00604669
0.0466757
0.0405774
0.0348289
0.0294722
0.024463
0.0196191
0.0143721
0.00615375
0.0413453
0.0360509
0.0310803
0.0264356
0.0220546
0.0177592
0.013017
0.00539674
0.0461292
0.0395667
0.0336993
0.0283818
0.0234789
0.0187721
0.0136896
0.00562737
0.0500037
0.0425458
0.0359515
0.0300574
0.0246966
0.0196227
0.0142314
0.00578493
0.0523369
0.0443758
0.0373725
0.0311445
0.0255108
0.0202111
0.0146213
0.00591239
0.0526114
0.0446723
0.0376825
0.0314514
0.0258001
0.0204709
0.0148374
0.00607467
0.0507473
0.0434347
0.0369042
0.0309988
0.025576
0.0204031
0.0148698
0.00621958
0.0472429
0.041133
0.0353743
0.030002
0.0249632
0.0200671
0.0147296
0.00633433
0.0416026
0.0363312
0.0313727
0.0267284
0.0223351
0.0180122
0.013219
0.00547876
0.0463524
0.039828
0.033983
0.0286725
0.0237605
0.0190271
0.0138931
0.00570999
0.0502004
0.0427934
0.0362315
0.030351
0.0249851
0.0198861
0.0144424
0.0058729
0.0525363
0.0446316
0.0376652
0.0314546
0.0258184
0.0204946
0.0148517
0.00603394
0.0528481
0.0449603
0.038005
0.0317902
0.0261352
0.0207794
0.0150879
0.00620737
0.0510383
0.0437648
0.037262
0.031369
0.0259393
0.0207362
0.0151395
0.00636072
0.047575
0.0414933
0.0357569
0.0303939
0.0253461
0.0204175
0.0150135
0.00648273
0.0417241
0.0364844
0.0315479
0.0269153
0.0225224
0.0181868
0.0133617
0.005535
0.0464345
0.0399581
0.0341455
0.028853
0.0239449
0.0192004
0.0140348
0.00576613
0.0502545
0.0429083
0.0363878
0.0305317
0.025174
0.0200661
0.0145907
0.00593827
0.0525911
0.0447541
0.0378334
0.0316506
0.0260248
0.0206931
0.0150183
0.00612964
0.0529374
0.0451148
0.0382033
0.0320145
0.0263678
0.021001
0.0152726
0.00631168
0.051182
0.0439634
0.0374983
0.0316265
0.0262009
0.0209821
0.0153427
0.00647287
0.0477645
0.0417262
0.0360221
0.0306768
0.0256298
0.0206821
0.0152311
0.00660155
0.0417459
0.0365386
0.0316285
0.027015
0.0226322
0.0182955
0.0134535
0.00556889
0.0464193
0.0399875
0.0342099
0.0289423
0.0240483
0.0193054
0.0141246
0.0058001
0.0502165
0.0429223
0.0364435
0.0306184
0.0252795
0.0201764
0.0146877
0.00599523
0.0525596
0.0447765
0.0378996
0.0317499
0.0261445
0.0208182
0.0151291
0.00620083
0.0529391
0.0451685
0.0382981
0.0321401
0.0265114
0.0211467
0.0153993
0.00638993
0.0512328
0.0440601
0.0376313
0.0317851
0.0263724
0.0211508
0.0154866
0.00655824
0.0478595
0.0418608
0.0361879
0.0308636
0.0258251
0.02087
0.0153892
0.00669322
0.0416736
0.0365043
0.0316277
0.0270417
0.0226786
0.0183523
0.0135087
0.00560999
0.0463065
0.0399237
0.034188
0.0289541
0.0240844
0.0193546
0.0141729
0.00582645
0.0500759
0.0428384
0.036409
0.0306242
0.0253149
0.0202289
0.0147423
0.00603901
0.0524214
0.0446962
0.0378711
0.0317642
0.0261901
0.0208811
0.0151927
0.00625014
0.0528319
0.0451164
0.0382953
0.0321776
0.0265775
0.0212272
0.0154762
0.00644482
0.0511775
0.0440528
0.0376664
0.0318543
0.0264648
0.0212523
0.0155787
0.00661928
0.047855
0.0418971
0.0362593
0.0309627
0.0259415
0.0209901
0.0154947
0.00675981
0.0415103
0.0363902
0.0315574
0.0270082
0.0226739
0.0183672
0.0135331
0.00563891
0.0460926
0.0397729
0.0340914
0.0289024
0.0240675
0.0193616
0.0141921
0.00585322
0.0498238
0.0426606
0.0362949
0.0305624
0.0252934
0.020235
0.0147625
0.0060676
0.052157
0.0445136
0.0377574
0.0317064
0.0261748
0.0208942
0.015219
0.00628173
0.0525914
0.0449569
0.0382029
0.0321392
0.0265794
0.0212547
0.0155131
0.00648059
0.0509938
0.0439389
0.0376108
0.0318457
0.0264906
0.0212983
0.0156287
0.00665998
0.0477357
0.0418327
0.0362421
0.030984
0.0259903
0.0210532
0.0155562
0.00680473
0.0412792
0.0362195
0.0314388
0.0269332
0.0226338
0.0183529
0.0135355
0.00565749
0.0458022
0.0395604
0.0339437
0.0288075
0.0240142
0.0193388
0.0141892
0.00587052
0.0494882
0.0424162
0.0361261
0.0304547
0.0252333
0.0202094
0.014759
0.00608512
0.0518036
0.0442599
0.0375853
0.0315996
0.0261181
0.0208732
0.0152197
0.00630116
0.0522576
0.0447228
0.0380492
0.0320489
0.0265371
0.0212456
0.0155227
0.00650331
0.0507144
0.0437479
0.0374912
0.0317826
0.0264697
0.0213055
0.0156493
0.00668676
0.0475246
0.0416915
0.0361597
0.030949
0.0259906
0.0210758
0.0155869
0.00683475
0.0410307
0.0360296
0.0312999
0.0268378
0.0225739
0.0183208
0.0135237
0.00566879
0.0454966
0.0393313
0.0337774
0.0286929
0.0239414
0.0192982
0.014172
0.00588052
0.0491391
0.0421572
0.0359399
0.0303275
0.0251532
0.0201652
0.0147403
0.00609488
0.0514403
0.0439934
0.0373962
0.0314726
0.0260402
0.0208322
0.0152042
0.00631223
0.0519167
0.0444756
0.0378769
0.0319367
0.0264718
0.0212149
0.0155147
0.0065171
0.050422
0.0435395
0.0373502
0.0316954
0.026424
0.0212895
0.0156514
0.00670416
0.0472912
0.0415266
0.036052
0.0308878
0.0259649
0.0210744
0.0155986
0.00685541
0.0407948
0.0358408
0.0311548
0.0267318
0.0225015
0.0182758
0.0135006
0.00567262
0.045217
0.0391098
0.0336079
0.0285693
0.0238567
0.0192452
0.0141437
0.00588327
0.0488301
0.041913
0.0357535
0.0301923
0.0250612
0.0201081
0.0147101
0.00609718
0.0511276
0.0437467
0.0372085
0.0313374
0.0259494
0.020777
0.0151758
0.00631526
0.0516271
0.0442482
0.0377053
0.0318146
0.0263918
0.0211682
0.0154925
0.00652219
0.050172
0.0433461
0.0372068
0.031596
0.0263617
0.0212562
0.0156383
0.0067123
0.0470861
0.0413702
0.0359393
0.0308131
0.0259217
0.0210549
0.0155942
0.00686692
0.04055
0.0356412
0.0309982
0.026614
0.0224174
0.01822
0.0134684
0.00567178
0.0449308
0.0388775
0.0334266
0.0284338
0.0237606
0.0191815
0.0141066
0.00588153
0.048517
0.0416576
0.0355544
0.0300442
0.024957
0.0200398
0.0146706
0.00609462
0.0508096
0.0434865
0.0370057
0.0311873
0.0258448
0.0207093
0.0151373
0.00631268
0.0513287
0.0440044
0.0375157
0.0316752
0.0262959
0.0211074
0.0154589
0.00652076
0.0499122
0.0431352
0.0370439
0.0314777
0.026282
0.0212076
0.0156129
0.00671303
0.046873
0.0411985
0.0358079
0.0307193
0.0258604
0.0210194
0.0155771
0.00687047
0.0614904
0.0526127
0.0443944
0.0368255
0.0299144
0.0235484
0.0171633
0.00796917
0.0712977
0.059588
0.0493967
0.0403744
0.0323491
0.0251472
0.0181592
0.00831484
0.0772908
0.0640166
0.0523612
0.0422824
0.0334949
0.0257648
0.0184424
0.00832908
0.0763687
0.0631603
0.0515478
0.0415124
0.0327903
0.0251482
0.0179427
0.00801717
0.0687519
0.0572217
0.047092
0.0381747
0.0303338
0.0233847
0.0167329
0.0074229
0.0583936
0.0490845
0.0408101
0.0334259
0.0268404
0.0208943
0.0150494
0.00666913
0.0479393
0.04093
0.0344821
0.0285902
0.0232347
0.0182873
0.013265
0.00591307
0.0627816
0.0540151
0.0457925
0.0381346
0.0311073
0.0246006
0.0180091
0.00840791
0.0728584
0.0607662
0.0506797
0.0416356
0.0335312
0.0262132
0.0190311
0.00877161
0.0784173
0.0649288
0.053475
0.0434542
0.0346364
0.0268215
0.0193202
0.00878699
0.0773893
0.0640289
0.0526198
0.0426535
0.0339172
0.0262
0.0188182
0.00846966
0.0697403
0.0583198
0.0482956
0.0393769
0.0314849
0.0244352
0.01759
0.00785933
0.0596427
0.0504328
0.0421347
0.0346782
0.027999
0.0219239
0.0158708
0.007077
0.0493684
0.0423298
0.0357973
0.0298095
0.0243473
0.0192624
0.0140349
0.00628549
0.0642118
0.0557121
0.0472936
0.0394825
0.0323254
0.0256732
0.0188701
0.00886204
0.0729171
0.0624011
0.0522396
0.0430405
0.0348061
0.0273423
0.0199413
0.00925417
0.0785448
0.0664173
0.0549902
0.0448425
0.0359201
0.0279745
0.0202553
0.00927894
0.078012
0.0654394
0.054039
0.0439955
0.0351807
0.0273421
0.0197423
0.00895065
0.070953
0.0598088
0.049709
0.0407011
0.0327163
0.0255325
0.0184657
0.00830872
0.0612426
0.0519479
0.0435214
0.0359614
0.029176
0.022958
0.0166878
0.00748736
0.0508769
0.0437266
0.0370944
0.031017
0.0254512
0.0202266
0.0147927
0.00665593
0.0650889
0.0570443
0.0486318
0.0407457
0.0334816
0.026685
0.0196707
0.00928738
0.0716769
0.0636329
0.0536589
0.0444043
0.0360513
0.0284241
0.0207902
0.00970188
0.0739263
0.0672655
0.0563602
0.0462377
0.0372146
0.0291015
0.0211351
0.00973665
0.0746269
0.066268
0.0553995
0.0453862
0.03647
0.0284609
0.0206106
0.00939669
0.0711688
0.0611317
0.0511343
0.0420555
0.0339444
0.026587
0.0192803
0.0087233
0.0626825
0.0534207
0.0449074
0.0372377
0.0303221
0.0239396
0.017446
0.0078676
0.052349
0.0451077
0.0383803
0.0322002
0.0265134
0.0211389
0.0154967
0.00700023
0.0663071
0.0580966
0.0496908
0.0417784
0.034446
0.027534
0.0203399
0.00964748
0.0733046
0.0648311
0.0547987
0.0455112
0.037077
0.0293172
0.0214856
0.0100714
0.0759407
0.0685048
0.0575517
0.0474086
0.0382973
0.030033
0.0218516
0.0101103
0.076856
0.0676575
0.0566938
0.0466054
0.0375683
0.029394
0.0213225
0.00976235
0.0727711
0.0625187
0.0524266
0.0432416
0.0349981
0.0274788
0.0199609
0.00907028
0.0641712
0.0547711
0.0461525
0.0383691
0.0313227
0.0247883
0.0180949
0.00819424
0.0537277
0.0463757
0.0395464
0.033258
0.027453
0.021937
0.0161074
0.00730055
0.0674749
0.0589155
0.0505089
0.0425827
0.0352048
0.0282092
0.0208782
0.00994713
0.0758821
0.0657479
0.0556398
0.0463318
0.0378498
0.0300047
0.0220343
0.0103765
0.0793996
0.0695736
0.0584755
0.0482821
0.0390983
0.0307356
0.0224081
0.0104156
0.0797476
0.0689278
0.0577092
0.0475151
0.0383835
0.030101
0.0218781
0.0100617
0.0746088
0.0636728
0.0534274
0.044143
0.0358056
0.0281781
0.0205102
0.00936006
0.0653977
0.0558425
0.047135
0.039265
0.0321252
0.0254801
0.0186328
0.00847241
0.0548256
0.0473912
0.0404854
0.0341168
0.0282241
0.0226012
0.0166225
0.00755921
0.06841
0.0596342
0.0511849
0.043221
0.0357999
0.0287434
0.0213121
0.0102002
0.0775547
0.0666059
0.056317
0.046959
0.0384402
0.0305469
0.022485
0.0106442
0.0827476
0.0707501
0.0592267
0.0489225
0.0396884
0.0312826
0.0228668
0.0106871
0.0822961
0.069974
0.0584396
0.0481518
0.0389765
0.0306493
0.0223372
0.0103282
0.075904
0.0645093
0.0541354
0.0447937
0.0364168
0.028738
0.0209688
0.00961717
0.0662719
0.0566161
0.0478571
0.0399445
0.0327584
0.0260478
0.0190885
0.00871738
0.0556021
0.048133
0.0411936
0.0347877
0.0288477
0.0231552
0.0170626
0.0077867
0.0689268
0.0601935
0.0517056
0.0437018
0.036252
0.0291602
0.0216603
0.0104147
0.0785326
0.0670663
0.0568179
0.0474395
0.0389065
0.0309921
0.0228683
0.0108847
0.0836288
0.0713387
0.0597555
0.0494065
0.0401626
0.0317446
0.023271
0.0109391
0.0833558
0.0705629
0.0589302
0.0486211
0.0394516
0.031118
0.0227466
0.0105769
0.0766243
0.0650527
0.0546448
0.0452944
0.0369175
0.0292178
0.0213739
0.00985302
0.0668517
0.0571749
0.0484014
0.0404815
0.033282
0.0265325
0.0194851
0.008937
0.0561435
0.0486782
0.0417393
0.0353281
0.0293679
0.0236281
0.0174438
0.00798872
0.0687951
0.0604529
0.0519942
0.0440104
0.0365744
0.0294776
0.0219357
0.0105961
0.0766142
0.0672148
0.0570962
0.0477706
0.0392673
0.0313546
0.0231861
0.0110928
0.0808512
0.0712172
0.059987
0.0497425
0.0405497
0.0321408
0.0236204
0.0111613
0.0821347
0.0705612
0.0591924
0.0489865
0.0398658
0.0315363
0.0231054
0.0107986
0.0764966
0.0653161
0.0550142
0.0457151
0.0373569
0.0296395
0.0217251
0.0100605
0.0671938
0.057577
0.0488358
0.0409319
0.0337312
0.0269496
0.0198247
0.00912891
0.0565391
0.0491043
0.0421845
0.0357813
0.0298085
0.0240296
0.0177674
0.00816412
0.0688088
0.0605374
0.0521429
0.0442081
0.0368051
0.0297173
0.0221494
0.0107486
0.0764126
0.0672822
0.0572619
0.0480029
0.0395385
0.0316327
0.0234295
0.011262
0.0805591
0.0713122
0.0601729
0.0500144
0.0408652
0.0324571
0.0238897
0.0113404
0.0813333
0.0705945
0.0594298
0.049315
0.0402233
0.0318777
0.0233883
0.0109787
0.076446
0.0655353
0.0553431
0.0460856
0.0377309
0.0299857
0.0220041
0.0102298
0.067427
0.0578977
0.0492006
0.0413102
0.0341019
0.027288
0.0200965
0.00928724
0.0568511
0.0494488
0.0425475
0.036149
0.0301638
0.0243519
0.0180264
0.00830891
0.069053
0.0606139
0.0522517
0.0443499
0.0369701
0.0298881
0.0223018
0.0108703
0.0769284
0.0674298
0.0574072
0.048178
0.0397295
0.0318229
0.0235947
0.0113917
0.0807342
0.071328
0.0603386
0.0502349
0.0410944
0.0326733
0.0240703
0.0114739
0.0816373
0.0708113
0.059685
0.0495863
0.0404844
0.0321145
0.0235786
0.0111114
0.0767365
0.0657966
0.0556265
0.0463681
0.0380001
0.0302289
0.0221986
0.0103571
0.0676428
0.0581479
0.0494701
0.0415841
0.0343685
0.0275325
0.0202942
0.00940948
0.0570644
0.0496855
0.0428007
0.0364087
0.0304192
0.0245876
0.0182182
0.00842147
0.069132
0.0606337
0.052299
0.0444132
0.0370457
0.0299699
0.0223777
0.0109512
0.0777285
0.0676065
0.0574847
0.0482477
0.0398053
0.0319059
0.0236742
0.0114785
0.082659
0.0718121
0.0604961
0.0503328
0.0411835
0.0327656
0.0241571
0.0115628
0.0824244
0.0710569
0.0598023
0.0496874
0.0405876
0.0322215
0.0236767
0.0112006
0.0769923
0.0659159
0.0557368
0.0464853
0.038128
0.0303605
0.0223139
0.0104466
0.0676817
0.0582251
0.0495791
0.0417168
0.0345178
0.0276845
0.0204252
0.00949946
0.0570983
0.0497638
0.0429147
0.0365493
0.0305755
0.0247438
0.0183513
0.00850546
0.0689853
0.0605072
0.052199
0.0443366
0.0369986
0.0299512
0.0223789
0.0109935
0.0779761
0.0673659
0.0573287
0.0481383
0.0397402
0.0318824
0.0236791
0.0115287
0.0825033
0.0715272
0.0603173
0.050212
0.041119
0.0327524
0.0241759
0.0116204
0.0825632
0.0708678
0.0596301
0.0495804
0.0405459
0.0322339
0.0237157
0.0112628
0.0768463
0.0657527
0.0556278
0.0464385
0.0381397
0.0304124
0.0223779
0.0105124
0.0675148
0.0581183
0.0495354
0.0417316
0.0345793
0.0277725
0.0205129
0.00956867
0.0569745
0.0497074
0.042918
0.0366016
0.030662
0.0248459
0.0184458
0.00857086
0.0684636
0.0601765
0.0519241
0.044134
0.0368662
0.0298768
0.0223466
0.0110207
0.0764119
0.0669225
0.0569764
0.0478923
0.039588
0.0318037
0.0236503
0.0115627
0.0802763
0.0709228
0.0599318
0.0499711
0.0409869
0.0326994
0.0241698
0.0116652
0.0816732
0.0703553
0.0592943
0.0493847
0.040456
0.0322153
0.0237348
0.0113147
0.0763899
0.0654195
0.0554145
0.0463308
0.0381139
0.0304385
0.0224234
0.0105684
0.0672193
0.057919
0.0494284
0.0417038
0.0346091
0.0278348
0.0205805
0.00962728
0.0567868
0.0495999
0.0428811
0.03662
0.0307183
0.024921
0.0185189
0.00862545
0.0679429
0.0597509
0.0516086
0.0439197
0.0367343
0.0298058
0.0223172
0.0110473
0.0756713
0.0663916
0.0565922
0.0476379
0.0394361
0.0317241
0.0236164
0.0115892
0.0801135
0.0705719
0.0596083
0.0497524
0.0408649
0.0326442
0.0241516
0.011696
0.0812612
0.0699819
0.0590287
0.0492315
0.0403888
0.0322028
0.0237432
0.0113532
0.0760554
0.0651529
0.0552498
0.046256
0.0381014
0.0304605
0.0224552
0.0106114
0.0669661
0.0577572
0.0493507
0.041689
0.0346356
0.0278827
0.0206297
0.00967249
0.0566343
0.0495149
0.0428518
0.0366316
0.0307572
0.0249737
0.0185701
0.00866671
0.0674778
0.0593556
0.0513439
0.0437483
0.0366292
0.029747
0.0222899
0.0110686
0.0748446
0.0658094
0.0562316
0.0474182
0.0393018
0.0316443
0.0235728
0.0116034
0.0790014
0.0697653
0.059192
0.04953
0.0407369
0.0325677
0.0241068
0.0117052
0.0804002
0.0695074
0.0587772
0.049096
0.0403133
0.0321585
0.0237197
0.011369
0.0756452
0.0649193
0.0551232
0.0461902
0.0380719
0.0304535
0.0224584
0.0106351
0.0667504
0.0576328
0.0492833
0.0416595
0.0346335
0.0278984
0.0206503
0.00970016
0.056496
0.0494262
0.0428012
0.036612
0.0307621
0.0249946
0.0185957
0.00869269
0.0467736
0.0398133
0.0333755
0.0275184
0.0222455
0.0174241
0.0125697
0.00549344
0.0496985
0.0413592
0.0341215
0.0277831
0.0222191
0.0172356
0.012321
0.00519448
0.0503657
0.0415448
0.0339989
0.0274966
0.0218641
0.0168692
0.0119852
0.00489684
0.0483893
0.0399788
0.0327428
0.0265078
0.0211049
0.0162966
0.0115667
0.0046172
0.0444627
0.036992
0.0305102
0.024883
0.0199566
0.0155093
0.01105
0.00435784
0.0395169
0.0332169
0.0277142
0.0228694
0.0185497
0.0145648
0.0104571
0.00415027
0.0341714
0.0292975
0.0248416
0.0207897
0.0170781
0.0135547
0.00980691
0.00400199
0.048251
0.0412456
0.0347232
0.0287755
0.0233973
0.0184332
0.0133623
0.00587088
0.0511703
0.0428692
0.0355767
0.0291544
0.0234765
0.0183301
0.0131707
0.00558556
0.051894
0.0431471
0.0355647
0.0289758
0.0232132
0.0180323
0.0128786
0.00529728
0.0500683
0.0417008
0.0344132
0.0280705
0.0225119
0.0174959
0.0124799
0.00501775
0.0462947
0.0388057
0.0322374
0.0264743
0.0213682
0.0166997
0.0119512
0.00474754
0.041413
0.0350425
0.0294218
0.0244206
0.0199141
0.0157077
0.0113191
0.00451933
0.0360284
0.0310541
0.0264652
0.0222556
0.0183625
0.0146302
0.0106192
0.0043503
0.0497395
0.0426375
0.0360417
0.0300166
0.0245345
0.0194236
0.014135
0.00624208
0.0527115
0.0443588
0.0370021
0.0304976
0.0246999
0.0193842
0.0139824
0.00596334
0.0534721
0.0447106
0.0370708
0.0303922
0.0244934
0.0191255
0.0137129
0.00567642
0.0517195
0.0433262
0.0359679
0.0295178
0.023806
0.0185921
0.0133115
0.00538988
0.0479985
0.0404551
0.0337934
0.0278996
0.0226298
0.0177619
0.0127552
0.0050987
0.0431083
0.0366574
0.0309232
0.0257807
0.021108
0.0167074
0.012074
0.00484057
0.0376521
0.0325811
0.027874
0.0235255
0.0194742
0.0155614
0.0113245
0.00464912
0.0511854
0.0440227
0.0373487
0.0312248
0.0256185
0.0203496
0.0148462
0.00658448
0.0542578
0.0458438
0.0384051
0.0317866
0.0258452
0.0203531
0.0147197
0.00630843
0.0550607
0.046245
0.0385178
0.0317151
0.0256617
0.0201089
0.0144575
0.00601783
0.0533234
0.0448633
0.0374068
0.0308234
0.0249532
0.0195543
0.0140382
0.00571953
0.0495762
0.041947
0.0351742
0.0291448
0.0237202
0.0186747
0.0134447
0.00540963
0.0446162
0.0380671
0.0322158
0.0269417
0.0221216
0.0175547
0.0127141
0.00511662
0.0390558
0.0338858
0.0290665
0.0245931
0.0204057
0.0163416
0.0119163
0.00489746
0.0525552
0.0452957
0.0385229
0.0322918
0.0265652
0.0211534
0.0154615
0.00688264
0.0557399
0.0472051
0.0396489
0.0329075
0.0268327
0.0211878
0.015356
0.00660911
0.0565447
0.0476139
0.0397681
0.032839
0.0266497
0.0209428
0.0150919
0.00631235
0.0547526
0.0461835
0.0386114
0.0319047
0.0259032
0.0203555
0.0146472
0.00600029
0.0509175
0.0431837
0.0362989
0.0301548
0.0246069
0.0194218
0.0140128
0.00567189
0.0458507
0.0392036
0.0332512
0.0278698
0.0229348
0.0182388
0.0132335
0.00535114
0.0401857
0.0349251
0.0300109
0.0254385
0.0211465
0.0169657
0.0123915
0.00509897
0.0536132
0.0462911
0.039451
0.0331475
0.0273379
0.0218221
0.0159819
0.0071401
0.0568593
0.0482406
0.0406095
0.0337918
0.027631
0.0218785
0.0158924
0.00686774
0.0576422
0.0486288
0.0407116
0.0337092
0.0274364
0.0216232
0.0156193