/*--------------------------------*- C++ -*----------------------------------*\
| =========                 |                                                 |
| \\      /  F ield         | OpenFOAM: The Open Source CFD Toolbox           |
|  \\    /   O peration     | Version:  plus.master.MPPICInterFoam            |
|   \\  /    A nd           | Web:      www.OpenFOAM.com                      |
|    \\/     M anipulation  |                                                 |
\*---------------------------------------------------------------------------*/
FoamFile
{
    version     2.0;
    format      ascii;
    class       scalarField;
    location    "12.6/lagrangian/kinematicCloud";
    object      age;
}
// * * * * * * * * * * * * * * * * * * * * * * * * * * * * * * * * * * * * * //


140
(
12.5473
12.1264
12.5665
11.881
12.5947
12.0483
12.4211
12.0035
11.7032
12.0056
11.7287
12.2963
11.9811
11.8001
11.9315
11.7
11.8703
11.7913
11.8801
12.0752
12.584
11.7945
11.812
12.4303
11.9001
12.0001
11.8645
12.051
12.1571
11.6726
11.9747
12.0142
11.7235
11.7175
12.0878
12.3901
11.8901
11.8765
12.3096
12.5095
11.8036
11.6707
12.0397
12.3849
11.9259
11.7301
11.8354
12.5138
12.0608
12.1159
11.8211
11.8807
11.9002
12.5325
12.201
11.8956
12.5289
11.7848
11.9182
11.8027
11.9207
11.7538
12.5471
11.7818
11.7304
12.0098
11.8335
12.0149
12.1155
11.8814
11.8955
12.2073
11.9129
11.6881
11.9301
11.8303
11.6759
12.066
11.7913
12.2445
11.7102
12.5385
12.4241
12.0198
11.8305
12.0594
12.238
11.9609
11.7838
11.7379
11.8912
11.7305
12.1049
12.01
11.94
12.2571
12.2809
12.2797
11.7753
11.8815
12.4243
12.2708
11.9701
11.6945
12.2218
12.3336
11.7701
11.7763
12.206
11.7896
11.8648
11.7903
11.824
11.81
11.8248
12.5435
11.9558
11.8416
12.1081
12.1162
12.0102
11.7252
11.8411
11.7076
11.7902
12.029
12.0824
12.5003
11.7802
11.6851
11.8507
11.9676
12.0335
12.0264
11.8666
12.2414
12.5765
11.8667
12.2762
12.0378
)


// ************************************************************************* //
