/*--------------------------------*- C++ -*----------------------------------*\
| =========                 |                                                 |
| \\      /  F ield         | OpenFOAM: The Open Source CFD Toolbox           |
|  \\    /   O peration     | Version:  plus.master.MPPICInterFoam            |
|   \\  /    A nd           | Web:      www.OpenFOAM.com                      |
|    \\/     M anipulation  |                                                 |
\*---------------------------------------------------------------------------*/
FoamFile
{
    version     2.0;
    format      ascii;
    class       vectorField;
    location    "12.6/lagrangian/kinematicCloud";
    object      UCorrect;
}
// * * * * * * * * * * * * * * * * * * * * * * * * * * * * * * * * * * * * * //


140
(
(1.22185e-19 2.78818e-20 -6.51788e-49)
(4.23039e-23 -3.37371e-23 -4.35794e-35)
(2.97941e-19 -4.73644e-19 6.79866e-35)
(-4.7808e-19 -3.26667e-19 -2.35707e-34)
(3.59761e-19 -8.21131e-20 -1.67453e-19)
(4.35052e-20 1.90609e-19 -2.9582e-19)
(3.26249e-19 -1.62628e-19 1.86071e-19)
(-1.10636e-21 -4.84727e-21 1.67453e-19)
(-1.06206e-20 -4.65317e-20 1.67453e-19)
(1.20309e-19 3.85888e-19 1.86071e-19)
(-4.11988e-20 -1.80504e-19 4.74725e-20)
(8.38201e-20 -4.43231e-19 -5.2762e-19)
(-4.11988e-20 -1.80504e-19 2.01959e-20)
(-4.11988e-20 -1.80504e-19 3.95639e-20)
(-4.11988e-20 -1.80504e-19 3.52428e-20)
(-1.97019e-19 -3.28799e-19 -5.07153e-37)
(-4.11988e-20 -1.80504e-19 3.1063e-20)
(-4.11988e-20 -1.80504e-19 3.39614e-20)
(-2.50146e-19 -5.61565e-19 -1.50693e-37)
(-4.11988e-20 -1.80504e-19 4.40357e-20)
(2.49424e-20 -1.82335e-19 3.80175e-35)
(-4.11988e-20 -1.80504e-19 1.5993e-21)
(-1.97019e-19 -3.28799e-19 -4.39033e-37)
(-7.24795e-20 -3.42831e-19 -1.50693e-37)
(-1.58253e-19 -1.58956e-19 -1.50693e-37)
(-4.23414e-20 -4.0018e-19 3.6342e-22)
(1.60494e-19 -1.07301e-19 -9.30355e-20)
(-3.29358e-20 -4.0124e-19 3.6342e-22)
(-1.18791e-19 1.39398e-20 -1.50693e-37)
(2.48974e-20 -1.91618e-19 0)
(-3.32435e-20 -4.01205e-19 3.6342e-22)
(2.31099e-20 1.82542e-19 -1.67453e-19)
(2.97715e-20 1.81791e-19 -1.67453e-19)
(2.96474e-19 -8.53068e-20 8.35628e-20)
(2.96474e-19 -3.56602e-19 1.12442e-20)
(1.78024e-19 -2.42872e-20 -1.63528e-22)
(1.78024e-19 -1.77372e-19 -2.42571e-22)
(6.2508e-19 -3.19577e-19 8.35628e-20)
(2.29568e-20 1.82559e-19 -1.67453e-19)
(2.30798e-20 1.82545e-19 -1.67453e-19)
(-2.5364e-19 -1.62932e-19 3.6342e-22)
(1.78024e-19 -2.26458e-19 -1.63528e-22)
(2.55525e-19 -1.6864e-19 -1.63528e-22)
(-1.43884e-19 -1.75299e-19 3.6342e-22)
(-3.85866e-30 -2.91438e-21 3.6342e-22)
(1.78024e-19 -8.18742e-20 -1.63528e-22)
(1.78024e-19 -1.88412e-20 -1.63528e-22)
(1.78024e-19 -6.9569e-20 -1.63528e-22)
(-1.20192e-19 2.08552e-19 -2.29685e-37)
(-1.20192e-19 1.36124e-20 -1.16344e-37)
(-5.93412e-20 7.77365e-21 4.37896e-37)
(1.78024e-19 -1.77372e-19 -1.25397e-23)
(1.78024e-19 -1.77372e-19 -1.33938e-23)
(-1.20192e-19 3.3819e-21 -1.16344e-37)
(-5.93412e-20 3.86275e-21 -2.71451e-37)
(-1.20192e-19 6.30625e-20 -1.16344e-37)
(-1.18682e-19 -1.90328e-19 -4.38248e-34)
(-5.93412e-20 1.59614e-21 -2.71451e-37)
(9.63874e-20 2.53201e-20 -2.71451e-37)
(-1.18682e-19 -7.74048e-20 -1.21091e-34)
(-1.18682e-19 -6.95107e-20 -1.21091e-34)
(9.04004e-20 -3.95542e-19 -1.29242e-34)
(6.06356e-20 -3.98896e-19 -8.22162e-35)
(-5.50983e-19 3.95346e-20 -8.38899e-20)
(4.53739e-20 -1.9774e-19 8.88659e-37)
(-5.52164e-19 2.90536e-20 -8.38899e-20)
(-5.52741e-19 2.39292e-20 -8.38899e-20)
(9.04004e-20 -3.95542e-19 -2.74197e-35)
(-5.54274e-19 1.03239e-20 -8.38899e-20)
(5.93412e-20 7.77365e-21 -1.05671e-20)
(-1.20192e-19 2.08552e-19 -5.36194e-39)
(-5.55437e-19 3.19706e-30 -2.0004e-20)
(-1.80229e-19 8.52883e-21 -6.42317e-22)
(-1.80229e-19 2.22924e-21 -3.6342e-22)
(-1.80229e-19 8.52883e-21 -6.0218e-22)
(-3.8834e-20 2.44603e-20 -3.6342e-22)
(-1.80229e-19 8.52883e-21 -7.13492e-22)
(-1.80229e-19 6.53961e-21 -3.6342e-22)
(9.30667e-20 8.01e-19 1.86071e-19)
(-1.80229e-19 8.52883e-21 -5.92539e-22)
(4.14413e-20 3.81817e-19 -2.32882e-35)
(6.00372e-20 -1.08793e-18 1.85708e-19)
(3.00957e-20 3.83095e-19 -2.32882e-35)
(6.00372e-20 -2.05713e-19 8.87448e-21)
(-1.74781e-19 -4.38849e-30 2.50098e-22)
(-1.74781e-19 -4.38849e-30 2.86548e-22)
(-1.74781e-19 -4.38849e-30 3.03006e-22)
(-6.20593e-31 -4.3884e-30 3.24686e-22)
(9.24526e-20 8.0107e-19 1.86071e-19)
(4.29866e-20 -2.07634e-19 1.85708e-19)
(9.35492e-20 8.00946e-19 1.86071e-19)
(3.40011e-20 -2.08646e-19 1.85708e-19)
(2.59468e-20 -2.09554e-19 1.85708e-19)
(-1.44942e-30 -1.17445e-29 1.63528e-22)
(2.00485e-19 -3.38244e-19 1.8171e-22)
(-3.75474e-19 -1.18682e-19 2.7647e-20)
(1.78934e-21 2.08756e-20 2.79106e-19)
(-1.19096e-19 2.62837e-20 -2.08186e-19)
(-1.1262e-19 -4.72472e-20 -9.28538e-20)
(-1.1291e-19 -4.59769e-20 -9.28538e-20)
(7.25274e-20 3.17763e-19 1.86071e-19)
(-7.34143e-20 -2.19017e-19 -1.27162e-19)
(-1.08265e-19 -6.63264e-20 -9.28538e-20)
(-1.63498e-19 6.15272e-19 1.86071e-19)
(5.65508e-20 2.47765e-19 1.86071e-19)
(3.59968e-29 1.58739e-29 -5.84233e-19)
(-2.19766e-19 -4.15849e-19 3.90324e-22)
(1.32812e-19 5.81886e-19 3.67267e-20)
(-2.19766e-19 -4.15849e-19 3.17184e-22)
(-1.79267e-20 1.91791e-19 -8.69503e-22)
(-2.52541e-19 -4.12156e-19 -6.96752e-36)
(3.71817e-19 7.71538e-19 -2.46858e-36)
(-1.23949e-19 3.95151e-21 -6.96752e-36)
(-2.29771e-19 3.62858e-19 -9.30355e-20)
(2.22476e-19 6.29679e-19 -1.8851e-36)
(-2.19766e-19 -4.15849e-19 -3.03775e-22)
(-1.42751e-19 -7.84276e-20 -6.96752e-36)
(-2.19766e-19 -4.15849e-19 -3.65061e-22)
(2.77358e-20 7.54549e-20 9.30355e-20)
(-6.9689e-20 -2.11462e-19 -2.03505e-22)
(-2.07903e-19 3.70215e-19 1.86071e-19)
(-1.63445e-19 -4.39906e-19 6.27931e-35)
(2.32144e-28 -1.19187e-28 1.79244e-19)
(-1.17506e-19 3.32518e-20 -4.60172e-37)
(-1.29274e-19 -8.84572e-21 9.30355e-20)
(-2.16874e-19 6.80221e-20 -5.33055e-36)
(1.1468e-18 8.15615e-19 8.20287e-20)
(-7.01108e-20 4.22872e-19 3.60919e-35)
(1.15369e-28 -2.14366e-29 -2.74477e-19)
(7.89466e-29 -8.69203e-30 -2.08389e-19)
(1.29534e-21 1.62691e-19 2.79106e-19)
(-2.61807e-19 5.97558e-20 2.79106e-19)
(-3.03218e-19 6.92076e-20 2.79106e-19)
(6.71962e-21 -2.94406e-20 -1.34742e-19)
(1.15369e-28 -2.14366e-29 -6.5636e-20)
(-1.66084e-20 3.79075e-21 7.47905e-20)
(3.03039e-20 -2.80471e-20 6.95928e-36)
(1.0716e-19 -5.85655e-20 2.9749e-37)
(-1.98236e-19 1.06948e-19 -2.83305e-20)
(1.08378e-19 -5.60379e-20 9.26793e-37)
)


// ************************************************************************* //
