/*--------------------------------*- C++ -*----------------------------------*\
| =========                 |                                                 |
| \\      /  F ield         | OpenFOAM: The Open Source CFD Toolbox           |
|  \\    /   O peration     | Version:  plus.master.MPPICInterFoam            |
|   \\  /    A nd           | Web:      www.OpenFOAM.com                      |
|    \\/     M anipulation  |                                                 |
\*---------------------------------------------------------------------------*/
FoamFile
{
    version     2.0;
    format      ascii;
    class       volVectorField;
    location    "4.4";
    object      U;
}
// * * * * * * * * * * * * * * * * * * * * * * * * * * * * * * * * * * * * * //

dimensions      [0 1 -1 0 0 0 0];

internalField   nonuniform List<vector> 
11821
(
(0.0421892 0.0372956 -0.0009154)
(0.032182 0.0433129 0.00236073)
(0.0194844 0.0445995 0.0128705)
(-0.00331116 0.0450692 0.0207792)
(-0.025065 0.045076 0.0106355)
(-0.0391275 0.0432628 0.000251642)
(-0.0487264 0.0388713 -0.00286769)
(0.0446515 0.0252385 0.00264357)
(0.0652469 0.0564441 0.0611971)
(0.0648276 0.079751 0.0970553)
(-0.00127378 0.0852076 0.112966)
(-0.0666743 0.079883 0.0926145)
(-0.0668657 0.0589724 0.0534929)
(-0.0514442 0.0308838 -0.00156404)
(0.0468779 0.0128579 0.0123026)
(0.0833789 0.0517948 0.0885398)
(0.166515 0.149045 0.391897)
(0.00949458 0.167462 0.500821)
(-0.155612 0.147631 0.400355)
(-0.0803802 0.0565284 0.0851923)
(-0.0493851 0.0190231 0.00734918)
(0.0440665 -0.00826041 0.0182567)
(0.0811701 -0.0145295 0.102433)
(0.178915 -0.0163917 0.462183)
(0.0683153 0.0163074 1.66612)
(-0.150342 -0.0107771 0.576781)
(-0.0772 -0.00712866 0.113887)
(-0.0451571 -0.00433338 0.0156643)
(0.0447842 -0.0244599 0.00965609)
(0.0785294 -0.0691078 0.0876098)
(0.146932 -0.160639 0.383542)
(0.00268149 -0.162948 0.50045)
(-0.143679 -0.155955 0.389752)
(-0.0765645 -0.064284 0.082982)
(-0.0483626 -0.0250008 0.0062835)
(0.0429564 -0.0359505 0.00147071)
(0.0572944 -0.0657453 0.0561932)
(0.0528888 -0.076644 0.0868464)
(-0.00904038 -0.0697005 0.105901)
(-0.063905 -0.076917 0.0838203)
(-0.0646101 -0.0623477 0.0503661)
(-0.0505768 -0.0360354 -0.00175759)
(0.0376351 -0.0445636 -0.00106068)
(0.0288528 -0.0498972 0.000871672)
(0.0151972 -0.0470947 0.00973291)
(-0.00765168 -0.0430067 0.0163927)
(-0.0261809 -0.0485447 0.00719654)
(-0.0392458 -0.0481325 -0.00071318)
(-0.0487063 -0.0435933 -0.00250349)
(0.0304922 0.0252518 0.0280577)
(0.0232826 0.0277033 0.0390092)
(0.0119237 0.0214466 0.0673293)
(-0.00582203 0.0147945 0.0930448)
(-0.0201132 0.0166184 0.0654756)
(-0.0290327 0.0219732 0.0368915)
(-0.0345088 0.0201973 0.0264587)
(0.0316753 0.0188898 0.0387142)
(0.0328561 0.0278794 0.133511)
(0.025411 0.0273674 0.211753)
(-0.00461915 0.0218273 0.275446)
(-0.0312727 0.0200978 0.214419)
(-0.0346798 0.0204441 0.127867)
(-0.0337729 0.0129723 0.0340507)
(0.0265799 0.00982404 0.0640038)
(0.0290095 0.0210194 0.196183)
(0.0448219 0.0399418 0.634644)
(0.00492848 0.0143962 1.04948)
(-0.0415921 0.0242206 0.701268)
(-0.023535 0.0102607 0.19994)
(-0.0233357 0.00319179 0.056276)
(0.025076 -0.00652729 0.0804698)
(0.0263968 -0.0112345 0.229795)
(0.0554924 -0.0202633 0.800592)
(0.074677 -0.0530403 2.49835)
(0.00251464 -0.0200227 1.23349)
(-0.0142848 -0.00654251 0.276953)
(-0.00912367 -0.00354635 0.0769443)
(0.0253125 -0.0194475 0.0578885)
(0.0246795 -0.0348915 0.184629)
(0.0342351 -0.0589212 0.586065)
(-0.00474768 -0.0600212 0.870003)
(-0.0377667 -0.0411444 0.642494)
(-0.0220821 -0.0174856 0.185631)
(-0.0229291 -0.00879473 0.0510816)
(0.028406 -0.0265953 0.036957)
(0.0256748 -0.0352356 0.120793)
(0.0164601 -0.0267944 0.179441)
(-0.0114827 -0.0156412 0.217834)
(-0.0309864 -0.019359 0.178385)
(-0.0331182 -0.0240209 0.114651)
(-0.0323232 -0.0179845 0.0331118)
(0.0266588 -0.0310721 0.0285256)
(0.0180618 -0.0322394 0.0370621)
(0.00637571 -0.0260995 0.0578369)
(-0.00853078 -0.0204622 0.0713215)
(-0.0187946 -0.0219918 0.0536707)
(-0.0266333 -0.025883 0.0349547)
(-0.0322292 -0.0250238 0.0275579)
(0.0295273 0.0249378 0.0688456)
(0.0191022 0.0240747 0.0874587)
(0.00425448 0.0175736 0.132261)
(-0.00691784 0.00189088 0.176176)
(-0.0134833 0.0115803 0.127178)
(-0.0239765 0.0181675 0.084965)
(-0.0326823 0.019863 0.0695921)
(0.0287737 0.0176424 0.085838)
(0.0187382 0.0186516 0.170159)
(0.00473026 0.011726 0.294952)
(-0.00955336 -0.00420433 0.426596)
(-0.0169765 0.00241987 0.292324)
(-0.0220487 0.0103177 0.155013)
(-0.0309228 0.0112587 0.0820355)
(0.0238913 0.00906132 0.126511)
(0.0132472 0.0127392 0.274729)
(0.0058628 0.0126531 0.775789)
(-0.0135239 -0.0411325 1.34249)
(-0.0202459 -0.00676259 0.834177)
(-0.00907686 -0.00159109 0.254001)
(-0.0237649 0.000236232 0.109741)
(0.0205975 -0.00195063 0.156193)
(0.0106948 -0.00634434 0.343986)
(-0.00210762 -0.0191435 1.04747)
(0.00448643 -0.0803993 2.5321)
(0.0149161 -0.014279 1.38442)
(0.00327082 -0.00161819 0.347391)
(-0.0103321 0.00104732 0.134197)
(0.0274754 -0.0131679 0.118163)
(0.0170579 -0.0212563 0.24925)
(0.012208 -0.0360195 0.631019)
(-0.0162861 -0.0418469 0.920855)
(-0.0298406 -0.0129747 0.674272)
(-0.0175731 -0.000817534 0.228406)
(-0.0285551 -0.00121509 0.104145)
(0.0303433 -0.0234871 0.0831838)
(0.0212238 -0.0263987 0.147711)
(0.00928553 -0.0205364 0.233002)
(-0.0132476 -0.0130134 0.280465)
(-0.0266905 -0.0107616 0.220985)
(-0.0292298 -0.0159328 0.133479)
(-0.0341461 -0.0159149 0.0805458)
(0.0295019 -0.0313872 0.0693047)
(0.0194872 -0.0319712 0.0844572)
(0.0070473 -0.0291674 0.114672)
(-0.00799894 -0.0256957 0.13278)
(-0.0185293 -0.0246609 0.108796)
(-0.0266866 -0.0260185 0.0822591)
(-0.0339223 -0.026133 0.070068)
(0.0381536 0.0330852 0.147387)
(0.0219981 0.0265484 0.169065)
(0.00228558 0.0149187 0.216317)
(-0.00396101 -0.0049811 0.265866)
(-0.00727511 0.0137325 0.208949)
(-0.0253852 0.0261854 0.166262)
(-0.0413313 0.0324046 0.148618)
(0.0330974 0.0201056 0.167322)
(0.0136434 0.0136695 0.24619)
(-0.00596882 0.00135118 0.384904)
(-0.0103442 -0.0181096 0.525239)
(-0.00596402 -0.0025818 0.36574)
(-0.0188817 0.0133356 0.221372)
(-0.0380041 0.0194746 0.162743)
(0.0230675 0.00861569 0.212768)
(0.00387912 0.00772421 0.373942)
(-0.0144713 7.65831e-05 0.847505)
(-0.0269652 -0.0601832 1.46251)
(-0.011436 -0.0130503 0.811728)
(-0.00665156 0.00190037 0.314974)
(-0.0315464 0.00661223 0.187588)
(0.0161833 0.00230626 0.247936)
(-0.000875262 -8.92488e-05 0.466009)
(-0.0310276 -0.00835471 1.16613)
(-0.0444487 -0.0722415 2.32166)
(-0.00624626 -0.00163138 1.27671)
(0.00391122 0.00362777 0.377512)
(-0.0244541 0.00371869 0.206656)
(0.0307994 -0.00781149 0.204829)
(0.0147369 -0.00929317 0.341464)
(0.00303403 -0.0167243 0.654416)
(-0.0221522 -0.0238923 0.87912)
(-0.0295274 -0.000737577 0.632438)
(-0.0210499 0.000657518 0.292237)
(-0.037932 -0.00458787 0.18382)
(0.0383691 -0.0248069 0.164819)
(0.0229747 -0.0218648 0.22448)
(0.00851759 -0.0156953 0.316281)
(-0.0113892 -0.0121584 0.36202)
(-0.0235788 -0.01081 0.295325)
(-0.0304519 -0.0189741 0.204772)
(-0.0432936 -0.0234393 0.161547)
(0.0410702 -0.0400524 0.147514)
(0.0265649 -0.0370093 0.165501)
(0.0113251 -0.0317079 0.197491)
(-0.00443665 -0.0289368 0.216465)
(-0.0178624 -0.0309756 0.191257)
(-0.0312318 -0.0360635 0.16329)
(-0.0447399 -0.0391847 0.1486)
(0.0454119 0.0426735 0.283567)
(0.0279812 0.0354633 0.302354)
(0.0074472 0.0237631 0.33992)
(0.000261613 0.00662609 0.376339)
(-0.00771665 0.0270417 0.333249)
(-0.029865 0.0392678 0.29996)
(-0.0483767 0.0455914 0.284364)
(0.0413982 0.0262909 0.300819)
(0.0195055 0.018278 0.365229)
(-0.00345048 0.00593397 0.488393)
(-0.00702429 -0.0117032 0.606185)
(-0.00501873 0.00893634 0.460475)
(-0.0255108 0.0247148 0.340294)
(-0.0474575 0.0302542 0.296772)
(0.0315864 0.0110744 0.34034)
(0.00907498 0.0090554 0.488547)
(-0.0160574 0.00190676 0.908856)
(-0.0261766 -0.0395859 1.44883)
(-0.0162015 -0.000623776 0.775139)
(-0.0188374 0.0128275 0.417671)
(-0.0446435 0.0154845 0.315844)
(0.0227532 0.00380333 0.375192)
(0.00102699 0.00334478 0.591504)
(-0.0376603 0.00090818 1.27725)
(-0.0717239 -0.0388659 2.19237)
(-0.0319584 0.0037117 1.00988)
(-0.0144995 0.00581494 0.458575)
(-0.0431901 0.00374855 0.329317)
(0.0389797 -0.00818784 0.335201)
(0.0206584 -0.00661628 0.463819)
(0.00276974 -0.00948511 0.728464)
(-0.022591 -0.0113471 0.892366)
(-0.0318996 -0.00493617 0.642731)
(-0.0319217 -0.00823297 0.400468)
(-0.0499442 -0.0125559 0.313919)
(0.0465951 -0.0289033 0.299632)
(0.0286244 -0.0245407 0.351223)
(0.0111698 -0.0192473 0.436183)
(-0.00792145 -0.0169157 0.475366)
(-0.0217614 -0.0206682 0.410517)
(-0.0349781 -0.0286703 0.330972)
(-0.0521399 -0.0322995 0.296162)
(0.0493582 -0.0471951 0.283515)
(0.032905 -0.0437696 0.300056)
(0.0157454 -0.0381725 0.327797)
(-0.00103167 -0.0353673 0.344636)
(-0.0176427 -0.0408861 0.322098)
(-0.0353079 -0.046928 0.29789)
(-0.0523177 -0.0498971 0.284155)
(-0.0449274 0.0249248 -0.00159983)
(-0.0438287 0.0193245 -0.000648559)
(-0.0413837 0.0182518 -4.04229e-05)
(-0.0396433 0.0179038 0.000239498)
(-0.038465 0.0175842 0.000263469)
(-0.0375097 0.0170692 8.7564e-05)
(-0.0366931 0.0167495 -0.000261405)
(-0.0355937 0.0163065 -0.000785993)
(-0.0485827 0.0164763 -0.00285874)
(-0.0467202 0.0107744 -0.00139143)
(-0.0456489 0.0124625 -0.000600285)
(-0.0435182 0.0124753 -0.000148083)
(-0.0424107 0.012333 0.000126013)
(-0.0408588 0.0115857 0.000143743)
(-0.0400978 0.0111766 4.79018e-06)
(-0.0392978 0.0106869 -0.000265987)
(-0.0400049 0.00460494 -0.00168083)
(-0.0484555 0.00256107 -0.00146043)
(-0.0444578 0.0043757 -0.000847301)
(-0.0420681 0.00481071 -0.000414257)
(-0.0416478 0.00527416 -0.000170196)
(-0.0395353 0.00504433 -9.47903e-05)
(-0.0393834 0.00517286 -0.000115852)
(-0.0385981 0.00516945 -0.000154605)
(-0.0359874 -0.00318734 -0.000856056)
(-0.0482883 -0.00276389 -0.00194002)
(-0.0416206 -0.00234106 -0.00125867)
(-0.039809 -0.00214347 -0.000646292)
(-0.039984 -0.00185251 -0.000357713)
(-0.0374431 -0.00167407 -0.000188745)
(-0.0373529 -0.00149847 -0.000177919)
(-0.0363931 -0.00120899 -0.000191579)
(-0.0375574 -0.00931165 -0.0016254)
(-0.0499396 -0.00770894 -0.00145062)
(-0.0424065 -0.00856454 -0.000730589)
(-0.0423421 -0.00897509 -0.000293587)
(-0.0419077 -0.00903019 -9.34181e-05)
(-0.0395101 -0.00830913 -2.23854e-06)
(-0.0394697 -0.00811775 -6.26331e-05)
(-0.0390029 -0.00789967 -0.000130824)
(-0.0480869 -0.0212539 -0.00272844)
(-0.045312 -0.0149363 -0.00114332)
(-0.045444 -0.0165352 -0.000324322)
(-0.0429403 -0.0162124 0.000244933)
(-0.0414093 -0.0158146 0.000477443)
(-0.0401033 -0.0149131 0.000464496)
(-0.0390653 -0.014189 0.000257515)
(-0.0380465 -0.0135617 -0.00012989)
(-0.0449641 -0.0307297 -0.00126164)
(-0.04167 -0.0237126 -0.000313186)
(-0.0404439 -0.0232085 0.000340108)
(-0.0372555 -0.0218607 0.000579362)
(-0.0362809 -0.0214135 0.000633436)
(-0.0350956 -0.0206808 0.000471384)
(-0.0339539 -0.0200086 8.73617e-05)
(-0.0327171 -0.0192633 -0.000468596)
(-0.036592 0.0180005 0.0255189)
(-0.0372858 0.018787 0.025314)
(-0.0381002 0.0196625 0.0243106)
(-0.0387734 0.0203303 0.0226246)
(-0.0391573 0.0207064 0.0204529)
(-0.0391949 0.0207862 0.017979)
(-0.0388869 0.0205946 0.0153182)
(-0.0382432 0.0201478 0.0125483)
(-0.0378331 0.0103036 0.0249972)
(-0.0392768 0.0113393 0.0251198)
(-0.0406713 0.0124954 0.0246475)
(-0.0418768 0.0133671 0.023257)
(-0.0426529 0.0138995 0.0212506)
(-0.0428943 0.0141016 0.0187833)
(-0.0426206 0.0140242 0.0160484)
(-0.0418509 0.0137039 0.0131773)
(-0.0351619 0.000839364 0.0257589)
(-0.0381581 0.00292108 0.0253945)
(-0.0403427 0.00439048 0.0250324)
(-0.0422791 0.00534106 0.0238115)
(-0.0436146 0.00595256 0.0218405)
(-0.0442006 0.00628318 0.0193671)
(-0.0441189 0.00639763 0.0165815)
(-0.0433853 0.00632867 0.0136636)
(-0.0299994 -0.00247397 0.0266154)
(-0.0355435 -0.00229383 0.0250634)
(-0.0387534 -0.00209471 0.0248966)
(-0.0414573 -0.00192224 0.0239297)
(-0.0432761 -0.00175533 0.022032)
(-0.0441369 -0.00160159 0.0196143)
(-0.0442094 -0.00145851 0.0168163)
(-0.0435399 -0.00132471 0.0138557)
(-0.0344331 -0.00606655 0.0265899)
(-0.0376644 -0.00766964 0.0263571)
(-0.0398626 -0.00871734 0.0258407)
(-0.0418547 -0.00932907 0.0245279)
(-0.0431663 -0.009629 0.0224241)
(-0.0437257 -0.00967873 0.0199153)
(-0.0436187 -0.00954353 0.0170621)
(-0.0428551 -0.00925417 0.0140812)
(-0.0364819 -0.0155143 0.026347)
(-0.0380306 -0.01613 0.0265319)
(-0.0394762 -0.0169322 0.0259457)
(-0.040639 -0.0174925 0.0245022)
(-0.0413432 -0.0177615 0.0223934)
(-0.0415185 -0.0177275 0.0198497)
(-0.0411827 -0.0174347 0.0170456)
(-0.0403714 -0.0169202 0.0140983)
(-0.0346391 -0.0230576 0.0268359)
(-0.0352712 -0.0236245 0.0265126)
(-0.0360393 -0.0242818 0.0254217)
(-0.0365961 -0.0247147 0.0236848)
(-0.0368848 -0.0248697 0.0215364)
(-0.0368307 -0.0247264 0.0190774)
(-0.0364465 -0.0243175 0.01643)
(-0.0357513 -0.0236641 0.0136863)
(-0.0386518 0.0214183 0.0630833)
(-0.0420939 0.0248314 0.057693)
(-0.045227 0.0277306 0.0511809)
(-0.0478523 0.030024 0.0435499)
(-0.0498947 0.0317459 0.0351335)
(-0.0513326 0.0329333 0.0263417)
(-0.0521264 0.0335863 0.0176414)
(-0.0521747 0.0336441 0.00957771)
(-0.0384625 0.0128044 0.0674045)
(-0.0438464 0.0157894 0.0611078)
(-0.0482954 0.0182834 0.054715)
(-0.052036 0.0202593 0.0471468)
(-0.0549511 0.0217271 0.0385242)
(-0.0570144 0.0227251 0.0292605)
(-0.058182 0.0232674 0.0199049)
(-0.0583306 0.0233198 0.0111297)
(-0.0356839 0.00300604 0.0726679)
(-0.0429899 0.0059243 0.06383)
(-0.0487477 0.00787895 0.0573314)
(-0.05356 0.00929215 0.0498987)
(-0.0573165 0.0103107 0.0412294)
(-0.0599784 0.0110081 0.0316909)
(-0.0615147 0.0114174 0.0218877)
(-0.0618033 0.0115336 0.0125913)
(-0.0305533 -0.000183514 0.0764025)
(-0.0406963 -0.000952377 0.0650808)
(-0.0477674 -0.00119882 0.0584099)
(-0.053419 -0.0012573 0.0510399)
(-0.057728 -0.00123011 0.0423778)
(-0.0607395 -0.00115862 0.0327633)
(-0.0624833 -0.00106396 0.0228187)
(-0.0628648 -0.000958496 0.0133522)
(-0.0374226 -0.00530861 0.0729405)
(-0.0438418 -0.0087816 0.0645775)
(-0.0491396 -0.0108219 0.0580851)
(-0.0536457 -0.0121615 0.0506225)
(-0.0572114 -0.0130363 0.041924)
(-0.0597633 -0.0135562 0.0323662)
(-0.0612353 -0.0137749 0.0225465)
(-0.0614832 -0.0137011 0.0132328)
(-0.0397343 -0.0171026 0.0683988)
(-0.0442383 -0.0197761 0.0623269)
(-0.0481936 -0.0219459 0.0559615)
(-0.0516002 -0.0236348 0.0484049)
(-0.0542973 -0.0248489 0.039788)
(-0.0562231 -0.0256192 0.0305248)
(-0.0573068 -0.0259601 0.0211579)
(-0.0574055 -0.0258395 0.0123534)
(-0.0390178 -0.0267779 0.064015)
(-0.0418082 -0.0297079 0.0586748)
(-0.0444751 -0.0321768 0.0522242)
(-0.0467495 -0.034108 0.0446766)
(-0.0485332 -0.0355202 0.0363593)
(-0.0497849 -0.0364431 0.0276673)
(-0.0504518 -0.0368751 0.0190524)
(-0.0504185 -0.0367487 0.0110446)
(-0.0538335 0.0375292 0.138094)
(-0.061623 0.0448387 0.129061)
(-0.0687411 0.051108 0.118976)
(-0.0746284 0.0560834 0.107851)
(-0.0788952 0.0595942 0.0958706)
(-0.081134 0.0614102 0.0831002)
(-0.0808709 0.0612187 0.0692985)
(-0.0776206 0.0586866 0.0538228)
(-0.0529858 0.0235814 0.145744)
(-0.0642718 0.0292574 0.135485)
(-0.0740184 0.0342208 0.12525)
(-0.0822898 0.0382461 0.114013)
(-0.0885691 0.0411656 0.10174)
(-0.0922952 0.0427795 0.0884846)
(-0.0927848 0.0428107 0.0739863)
(-0.0893323 0.040959 0.0574722)
(-0.0503394 0.0100665 0.15299)
(-0.0642288 0.0137302 0.14026)
(-0.0760221 0.016709 0.129755)
(-0.0861227 0.019079 0.118504)
(-0.0939433 0.020801 0.106094)
(-0.0988137 0.0217809 0.0925271)
(-0.09991 0.0218669 0.0775329)
(-0.0963704 0.0208915 0.0602567)
(-0.0475505 0.000989379 0.157203)
(-0.0631945 -0.000132778 0.142412)
(-0.0761367 -0.000551756 0.131637)
(-0.0871275 -0.00071189 0.120365)
(-0.0956203 -0.000752184 0.107917)
(-0.100956 -0.00072943 0.0942564)
(-0.102294 -0.000673281 0.0791044)
(-0.098735 -0.000599862 0.0615781)
(-0.053145 -0.0102968 0.153045)
(-0.0657655 -0.0149376 0.140786)
(-0.0768685 -0.0182439 0.130439)
(-0.0865624 -0.0206975 0.119303)
(-0.0941552 -0.0223946 0.10699)
(-0.0988941 -0.0232966 0.0935115)
(-0.0999093 -0.0232816 0.0785979)
(-0.096321 -0.0221977 0.0613936)
(-0.0556252 -0.0269129 0.146375)
(-0.0657078 -0.032291 0.136546)
(-0.0747131 -0.036942 0.126604)
(-0.0825282 -0.040705 0.115626)
(-0.0885346 -0.043397 0.103588)
(-0.0921011 -0.0448085 0.0905432)
(-0.0925031 -0.0446606 0.0762348)
(-0.0890083 -0.0426499 0.0598915)
(-0.0557532 -0.0425379 0.138973)
(-0.0626159 -0.0490561 0.130353)
(-0.0691095 -0.0546974 0.120705)
(-0.0745709 -0.0591783 0.110024)
(-0.0785403 -0.0622932 0.098477)
(-0.0805747 -0.0637975 0.0861213)
(-0.0801813 -0.0633685 0.072709)
(-0.0768494 -0.0606514 0.0575978)
(-0.0624659 0.0509325 0.272033)
(-0.0711108 0.0598252 0.258556)
(-0.0799772 0.0683615 0.239675)
(-0.0884692 0.0763254 0.2135)
(-0.0965343 0.0837466 0.178527)
(-0.104936 0.0912113 0.134021)
(-0.114792 0.0994486 0.0804727)
(-0.123274 0.105891 0.0204388)
(-0.0640548 0.0338398 0.280778)
(-0.0765132 0.0402905 0.267601)
(-0.0883463 0.046634 0.250407)
(-0.0997228 0.0525932 0.226149)
(-0.110508 0.0580793 0.192492)
(-0.1216 0.0634307 0.147936)
(-0.134578 0.0692644 0.0924175)
(-0.146085 0.073907 0.0283272)
(-0.0638117 0.0172345 0.287905)
(-0.0786178 0.0205904 0.273532)
(-0.0925304 0.023978 0.257238)
(-0.105899 0.0272064 0.234397)
(-0.118543 0.0301715 0.201891)
(-0.131437 0.0330058 0.157556)
(-0.14644 0.0360328 0.100832)
(-0.159889 0.0383951 0.0339739)
(-0.0635835 0.00138273 0.291737)
(-0.0794232 0.000611062 0.276042)
(-0.0941422 0.000409805 0.259867)
(-0.108247 0.000415988 0.237504)
(-0.121569 0.000499775 0.205452)
(-0.135106 0.00058645 0.161268)
(-0.150812 0.000620436 0.104191)
(-0.164897 0.000571484 0.0363975)
(-0.0662147 -0.0161215 0.287943)
(-0.0802207 -0.0200632 0.273868)
(-0.0937378 -0.0234752 0.257727)
(-0.106942 -0.0265318 0.235007)
(-0.119552 -0.0292756 0.202605)
(-0.132474 -0.0319299 0.158357)
(-0.147516 -0.0348863 0.101706)
(-0.160945 -0.0373138 0.0348771)
(-0.0668546 -0.0351539 0.281154)
(-0.0786171 -0.041122 0.268313)
(-0.0901508 -0.0469287 0.251385)
(-0.101498 -0.0523912 0.227361)
(-0.112405 -0.0574598 0.193904)
(-0.123687 -0.0625204 0.149519)
(-0.13684 -0.0682299 0.0941451)
(-0.148387 -0.0729034 0.0301364)
(-0.0655271 -0.0534616 0.272488)
(-0.0738747 -0.0613764 0.259317)
(-0.0827495 -0.069029 0.240736)
(-0.0914635 -0.0762428 0.21485)
(-0.0998648 -0.0830769 0.180162)
(-0.108638 -0.0901621 0.135943)
(-0.118806 -0.0982485 0.082679)
(-0.127399 -0.104725 0.0228735)
(0.0349355 -0.0365923 -0.000210909)
(0.0318076 -0.0320013 0.000497248)
(0.0312547 -0.0297396 0.000976241)
(0.030088 -0.0276945 0.00105268)
(0.0288549 -0.0255458 0.000846392)
(0.0282187 -0.0244554 0.000468348)
(0.0271457 -0.0235569 -8.64611e-05)
(0.026114 -0.0227006 -0.000785642)
(0.0408217 -0.0279811 -0.0009154)
(0.0355691 -0.0219729 -0.000368961)
(0.0349795 -0.0200727 -5.37401e-05)
(0.0335371 -0.0177621 1.33217e-05)
(0.030588 -0.0154187 -8.46323e-05)
(0.0305231 -0.0151384 -0.000221499)
(0.0301531 -0.0151797 -0.000325881)
(0.0286557 -0.0148627 -0.000513548)
(0.0425063 -0.0153533 0.000239946)
(0.0421307 -0.0137921 -0.000306076)
(0.039126 -0.0122887 0.000167273)
(0.0356834 -0.010558 0.000165058)
(0.0360103 -0.0112058 -0.000261897)
(0.0328479 -0.0113326 -0.000961015)
(0.0314164 -0.0118895 -0.00170436)
(0.0299931 -0.0127008 -0.00237443)
(0.0472913 -0.00626842 0.00331258)
(0.0433721 -0.00433216 0.00127565)
(0.0401594 -0.00346677 0.00169991)
(0.0378228 -0.00238055 0.00204917)
(0.0363267 -0.00107284 0.00188131)
(0.034664 -0.000870197 0.00131731)
(0.0328816 -0.000898897 0.000650165)
(0.0308415 -0.00102999 -0.000118964)
(0.0448811 0.00579402 0.00130818)
(0.0418651 0.00552119 0.000489683)
(0.0414737 0.00681561 0.000882155)
(0.0357661 0.00656538 0.000651267)
(0.0343837 0.00723082 0.000121489)
(0.0340978 0.00824798 -0.000577926)
(0.0318308 0.00913667 -0.00134097)
(0.0301566 0.010003 -0.00208288)
(0.0436101 0.0180466 -0.000869054)
(0.0360778 0.0139312 -0.000522995)
(0.0365578 0.015164 -0.000152566)
(0.0340371 0.0141789 -2.96626e-05)
(0.0328299 0.013673 -0.00011149)
(0.0319709 0.0138367 -0.000259197)
(0.0315468 0.0144768 -0.000413209)
(0.0301283 0.0146399 -0.000554867)
(0.0355413 0.0278483 -0.000360159)
(0.0350098 0.0255853 0.000312757)
(0.0337119 0.023999 0.000596044)
(0.0322931 0.0224728 0.000545869)
(0.0313392 0.0214223 0.000245754)
(0.0306531 0.0210857 -0.000278662)
(0.0298452 0.0208059 -0.000977637)
(0.0289816 0.0201457 -0.00175113)
(0.0297948 -0.0280933 0.0272165)
(0.0304653 -0.0279009 0.0264106)
(0.0313439 -0.0279409 0.0249932)
(0.0319835 -0.0279604 0.0229357)
(0.0323008 -0.027847 0.0204894)
(0.0322678 -0.0275716 0.017789)
(0.0318843 -0.0271135 0.0149365)
(0.0311786 -0.0264646 0.0120194)
(0.0329006 -0.0217661 0.0280208)
(0.0337143 -0.0209167 0.0266156)
(0.0347755 -0.0207363 0.0251598)
(0.0356502 -0.0207348 0.023044)
(0.0361443 -0.0207448 0.0204968)
(0.0362048 -0.020705 0.0176421)
(0.0357701 -0.0205287 0.0146042)
(0.0348586 -0.0201833 0.0114913)
(0.0349482 -0.0128635 0.0303528)
(0.0356776 -0.012074 0.0274317)
(0.036757 -0.0118136 0.0263669)
(0.0376958 -0.0117911 0.0247105)
(0.0382274 -0.01189 0.0223277)
(0.0381194 -0.0119833 0.0194829)
(0.0374663 -0.0120412 0.0164221)
(0.036271 -0.0120272 0.0132326)
(0.0361129 -0.00372669 0.0334052)
(0.0365842 -0.00295679 0.0279867)
(0.0375401 -0.00254027 0.0271543)
(0.0384361 -0.00224251 0.0259761)
(0.0388879 -0.00201227 0.024071)
(0.0386986 -0.00186991 0.0215745)
(0.0378563 -0.00177854 0.0187999)
(0.0364118 -0.00170423 0.0158153)
(0.0359898 0.00546716 0.0310792)
(0.0366826 0.00601609 0.0277428)
(0.0375975 0.00663368 0.0264675)
(0.0383546 0.00726432 0.0247086)
(0.0388241 0.00785918 0.0224157)
(0.0387358 0.00834053 0.0196062)
(0.0380333 0.00869334 0.0165227)
(0.0367974 0.00890841 0.0133398)
(0.0353034 0.0149709 0.0274883)
(0.0358135 0.0150209 0.0258583)
(0.0366885 0.0155636 0.0244674)
(0.0374397 0.0161343 0.0223925)
(0.0378847 0.0165886 0.0197963)
(0.0378857 0.0168711 0.0168497)
(0.0374192 0.016956 0.0137331)
(0.036489 0.0168304 0.0105964)
(0.0327127 0.0224862 0.0263297)
(0.0331796 0.022697 0.025484)
(0.0339293 0.0231338 0.0238942)
(0.0345298 0.023526 0.0216871)
(0.0348524 0.0237489 0.0190875)
(0.0348428 0.0237605 0.0162235)
(0.0345063 0.0235439 0.0132238)
(0.0338563 0.0230967 0.0102118)
(0.0352321 -0.0307656 0.062904)
(0.0380977 -0.0328778 0.0574542)
(0.0408643 -0.0348631 0.0508278)
(0.0432229 -0.036497 0.0430308)
(0.0450658 -0.0377255 0.0344297)
(0.0463472 -0.0385391 0.0254433)
(0.0470088 -0.0389102 0.0165412)
(0.0469409 -0.0387612 0.0082744)
(0.0366734 -0.0220784 0.0676733)
(0.0407872 -0.023391 0.0612395)
(0.0444619 -0.024824 0.0548075)
(0.0477075 -0.0260975 0.047119)
(0.0503097 -0.0270643 0.0383158)
(0.0521736 -0.0276819 0.0288298)
(0.0532117 -0.0279211 0.0192145)
(0.0532822 -0.0277284 0.0101544)
(0.0366846 -0.0110108 0.0742001)
(0.0415512 -0.0121789 0.0641743)
(0.0458182 -0.0131125 0.0578633)
(0.0496536 -0.0139207 0.0506433)
(0.0527626 -0.0145384 0.0420625)
(0.0549729 -0.0149441 0.0324971)
(0.0561863 -0.0151331 0.0225674)
(0.0562523 -0.015091 0.0130539)
(0.0341781 -0.00111366 0.0816665)
(0.0406303 -0.0014756 0.0655102)
(0.0454459 -0.00154249 0.0590613)
(0.0496197 -0.00150559 0.0523241)
(0.05296 -0.00142457 0.0441697)
(0.0552731 -0.00132384 0.0348896)
(0.0564748 -0.00121546 0.0251597)
(0.0564339 -0.00110594 0.015775)
(0.0355027 0.00744588 0.0749491)
(0.0411809 0.00867575 0.0638439)
(0.0457576 0.0098057 0.057473)
(0.0497674 0.0108535 0.0502864)
(0.0529768 0.011715 0.0417445)
(0.0552354 0.0123546 0.0322081)
(0.0564691 0.0127632 0.0222989)
(0.0565432 0.0129217 0.0128038)
(0.036398 0.0171225 0.0670347)
(0.0410518 0.0189319 0.0603079)
(0.0450168 0.0207769 0.0538593)
(0.0484569 0.022389 0.0461545)
(0.0511761 0.0236333 0.0373227)
(0.0531019 0.0244871 0.0278068)
(0.0541623 0.0249335 0.0181722)
(0.0542262 0.0249273 0.00911052)
(0.0356833 0.0253904 0.0618835)
(0.0389324 0.028058 0.056373)
(0.0419785 0.0305216 0.0496446)
(0.0445408 0.0325522 0.0417139)
(0.0465269 0.0341126 0.0329734)
(0.0479067 0.0352012 0.0238575)
(0.0486313 0.0357938 0.0148503)
(0.0486053 0.0358241 0.00651488)
(0.0523925 -0.0429494 0.137349)
(0.0595961 -0.0492492 0.128653)
(0.0663968 -0.0547827 0.118866)
(0.0721386 -0.0591955 0.107942)
(0.0763414 -0.0622626 0.0960954)
(0.0785576 -0.0637281 0.0834113)
(0.0782853 -0.0632578 0.0696533)
(0.0750173 -0.060502 0.0541691)
(0.0513722 -0.0275996 0.145323)
(0.0616856 -0.032581 0.135054)
(0.0709355 -0.0369839 0.125111)
(0.0790805 -0.0405506 0.114032)
(0.0854181 -0.0430457 0.101784)
(0.0892854 -0.0442551 0.0884606)
(0.089927 -0.0438973 0.0738312)
(0.0865915 -0.0416719 0.0571224)
(0.048056 -0.0110969 0.155023)
(0.0608192 -0.0152537 0.140172)
(0.071909 -0.0182379 0.129893)
(0.0818113 -0.0204971 0.119017)
(0.0897157 -0.02203 0.106853)
(0.0947806 -0.0227812 0.093436)
(0.0960977 -0.0226335 0.0785542)
(0.0927637 -0.0214452 0.0613749)
(0.041616 0.0010487 0.163905)
(0.057852 -0.000101046 0.142604)
(0.0704076 -0.000496451 0.13179)
(0.0813079 -0.000624029 0.121151)
(0.0899694 -0.000636347 0.109251)
(0.0955298 -0.00059172 0.0960416)
(0.0970793 -0.00052092 0.0813272)
(0.0937013 -0.000440618 0.0642807)
(0.0448995 0.0105456 0.155584)
(0.0591946 0.0139676 0.139747)
(0.0709466 0.0167583 0.129307)
(0.0812378 0.0190276 0.118358)
(0.0893693 0.0206549 0.106125)
(0.0945659 0.0215336 0.092641)
(0.0959658 0.0215209 0.0776958)
(0.0926902 0.0204637 0.0604629)
(0.0488605 0.0239489 0.144771)
(0.0603184 0.0294043 0.133992)
(0.0702184 0.0342298 0.123784)
(0.0787802 0.038132 0.112449)
(0.0853717 0.040898 0.0999476)
(0.0893892 0.042336 0.0863796)
(0.0901129 0.0421748 0.0715181)
(0.0868292 0.0401294 0.05459)
(0.0507104 0.0379177 0.136304)
(0.0586989 0.0450945 0.127236)
(0.0660351 0.0513254 0.11703)
(0.0721434 0.0562724 0.105657)
(0.0765961 0.0597583 0.0933638)
(0.0789775 0.0615524 0.0802502)
(0.0788021 0.0613397 0.066087)
(0.0755936 0.058804 0.0502234)
(0.0626341 -0.0509824 0.271222)
(0.0714677 -0.0589538 0.25808)
(0.0807176 -0.0665768 0.239607)
(0.0897608 -0.0737057 0.213785)
(0.0984143 -0.0804262 0.179073)
(0.107349 -0.087395 0.134694)
(0.117604 -0.0954107 0.0811074)
(0.126287 -0.101945 0.0208433)
(0.0618394 -0.0324468 0.280615)
(0.0742434 -0.0385283 0.26736)
(0.0863064 -0.0442128 0.250628)
(0.0981896 -0.0494105 0.226829)
(0.109562 -0.0541272 0.193448)
(0.121195 -0.0588139 0.148859)
(0.134596 -0.0642054 0.0929161)
(0.146425 -0.0687382 0.0280165)
(0.0585265 -0.0129838 0.290484)
(0.0737555 -0.0177115 0.27385)
(0.0880151 -0.0212483 0.25773)
(0.102062 -0.0241781 0.235408)
(0.115523 -0.0266556 0.203305)
(0.129221 -0.029006 0.159065)
(0.14495 -0.0317125 0.102051)
(0.159071 -0.0340482 0.0345635)
(0.0517161 0.00194724 0.298901)
(0.070531 0.000937676 0.277059)
(0.0863991 0.00068586 0.260638)
(0.101586 0.0006906 0.238924)
(0.115959 0.000782135 0.207521)
(0.130433 0.000871564 0.163672)
(0.146974 0.000895714 0.106466)
(0.161856 0.000819287 0.0380944)
(0.0553819 0.0143527 0.29086)
(0.0717507 0.0185258 0.273606)
(0.0865004 0.0221001 0.257325)
(0.100788 0.0252663 0.234914)
(0.114337 0.0280176 0.202741)
(0.128047 0.030583 0.158443)
(0.143767 0.0333749 0.101384)
(0.15791 0.035634 0.03388)
(0.0587883 0.0309473 0.280232)
(0.0719194 0.0376999 0.266635)
(0.0842893 0.0440652 0.249683)
(0.0962215 0.0498561 0.225689)
(0.107487 0.0550559 0.192141)
(0.11895 0.0600822 0.147421)
(0.132202 0.0656338 0.0913871)
(0.143996 0.0701436 0.0264638)
(0.0594364 0.0484007 0.270659)
(0.0685257 0.0574865 0.257272)
(0.0777293 0.0661003 0.238563)
(0.0865127 0.0740552 0.212506)
(0.0947987 0.0814317 0.177552)
(0.10334 0.0888468 0.132919)
(0.113267 0.0970703 0.0790754)
(0.121818 0.103597 0.0186208)
(0.031966 0.0325508 -0.000294618)
(0.0316164 0.0326308 0.000436545)
(0.0303645 0.0286907 0.00085371)
(0.0304497 0.0270567 0.00101138)
(0.0302708 0.0253529 0.000964631)
(0.0298965 0.0240295 0.000702105)
(0.0294345 0.0229096 0.000256724)
(0.0285614 0.0216232 -0.000315701)
(0.0220834 0.0365104 -0.000782614)
(0.0188126 0.0344278 -0.000252715)
(0.0191734 0.0318615 9.73226e-05)
(0.0189606 0.0298022 0.000340247)
(0.0180725 0.0276776 0.000308203)
(0.017697 0.0268483 0.000203146)
(0.0171126 0.0255826 2.90172e-05)
(0.0170658 0.0250555 -0.000155059)
(0.0112441 0.0414638 0.00119354)
(0.0107416 0.0387062 0.0006554)
(0.0119452 0.0345441 0.00159033)
(0.0121666 0.0292678 0.00208906)
(0.0132591 0.0275009 0.00217602)
(0.0136286 0.0249101 0.00172311)
(0.0140853 0.0234682 0.00112274)
(0.0144899 0.0222454 0.00054808)
(-0.00488203 0.0468206 0.0040562)
(-0.00507471 0.0422569 0.00251291)
(-0.00503467 0.0378062 0.00382676)
(-0.00423366 0.0334224 0.00479239)
(-0.00347605 0.0304795 0.00519222)
(-0.00284053 0.0276044 0.00512337)
(-0.00248101 0.0249672 0.0047623)
(-0.00214395 0.0226492 0.00428154)
(-0.0151312 0.038241 2.27966e-05)
(-0.0148768 0.038938 -0.000167124)
(-0.0148757 0.0325606 0.000789172)
(-0.015876 0.0295123 0.00160443)
(-0.0174629 0.0270113 0.00188851)
(-0.0183524 0.0246095 0.00158813)
(-0.0184091 0.022868 0.00102831)
(-0.0187495 0.0218002 0.000483985)
(-0.0309389 0.0386297 -0.00157723)
(-0.0272152 0.0348139 -0.000586976)
(-0.0265081 0.0312711 3.8421e-05)
(-0.0254958 0.0294934 0.000392349)
(-0.0231821 0.0272698 0.000320382)
(-0.0218627 0.026226 0.000210528)
(-0.0213708 0.0261301 0.000103344)
(-0.0203037 0.0249106 -8.20287e-06)
(-0.0391767 0.0333695 -0.00133946)
(-0.0378421 0.0305375 -0.000241638)
(-0.0365116 0.0271198 0.000525944)
(-0.0363485 0.0252043 0.000972312)
(-0.0358909 0.0233003 0.00112426)
(-0.0351854 0.0215726 0.00110164)
(-0.0346288 0.0201927 0.000919018)
(-0.0339414 0.0187613 0.000546)
(0.0275464 0.0269695 0.0270783)
(0.0280875 0.0272014 0.0264186)
(0.0288511 0.0276397 0.0250725)
(0.0295533 0.0280103 0.0231092)
(0.0300129 0.0281442 0.0206853)
(0.0301809 0.0280028 0.0179618)
(0.0300637 0.0275791 0.0150685)
(0.0296789 0.0268754 0.0121294)
(0.0187808 0.0296738 0.0289259)
(0.018988 0.029498 0.0280325)
(0.0197123 0.029815 0.0270298)
(0.0205544 0.0302092 0.0254315)
(0.0212989 0.0303889 0.0232144)
(0.0218859 0.0302365 0.0205882)
(0.0222754 0.0296843 0.0177122)
(0.0224691 0.0287363 0.0147608)
(0.00663323 0.03012 0.0329383)
(0.00772508 0.0296105 0.0300956)
(0.00863659 0.0298688 0.029639)
(0.00952153 0.0301974 0.0286818)
(0.0103681 0.0302998 0.0270056)