/*--------------------------------*- C++ -*----------------------------------*\
| =========                 |                                                 |
| \\      /  F ield         | OpenFOAM: The Open Source CFD Toolbox           |
|  \\    /   O peration     | Version:  plus.master.MPPICInterFoam            |
|   \\  /    A nd           | Web:      www.OpenFOAM.com                      |
|    \\/     M anipulation  |                                                 |
\*---------------------------------------------------------------------------*/
FoamFile
{
    version     2.0;
    format      ascii;
    class       scalarField;
    location    "6.6/lagrangian/kinematicCloud";
    object      age;
}
// * * * * * * * * * * * * * * * * * * * * * * * * * * * * * * * * * * * * * //


2942
(
6.55663
6.47984
6.5318
6.37171
6.34156
6.25611
6.42376
6.49302
6.3232
6.59962
6.58975
6.48081
6.59195
6.50798
6.34533
6.55683
6.43995
6.51619
6.34484
6.40619
6.17038
6.44984
6.31785
6.4844
6.4535
6.52757
6.57049
6.51857
6.56485
6.28652
6.41826
6.34289
6.32417
6.37186
6.57898
6.51854
6.46732
6.40932
6.54335
6.51206
6.58169
6.29621
6.59808
6.51723
6.37156
6.58492
6.47256
6.5194
6.40848
6.31612
6.14678
6.57332
6.49344
6.51096
6.52029
6.37886
6.46879
6.19228
6.52433
6.49551
6.56504
6.56197
6.44008
6.46659
6.43926
6.55618
6.48837
6.41545
6.26799
6.59013
6.48685
6.33672
6.54367
6.59847
6.30267
6.47281
6.35323
6.54064
6.39766
6.50017
6.42064
6.51604
6.59124
6.59125
6.41034
6.48657
6.39243
6.3339
6.51247
6.51925
6.585
6.58815
6.46876
6.47843
6.25725
6.52474
6.43174
6.35015
6.48104
6.50995
6.53131
6.45908
6.47375
6.48863
6.56383
6.53699
6.47739
6.51824
6.43128
6.50592
6.43043
6.59903
6.29948
6.48833
6.5937
6.59145
6.36165
6.48842
6.5543
6.56651
6.52777
6.32003
6.40026
6.51774
6.37445
6.49991
6.59773
6.5903
6.56525
6.59102
6.58526
6.55616
6.53022
6.46374
6.13696
6.59885
6.57273
6.37152
6.4788
6.52772
6.57045
6.37344
6.43249
6.2346
6.51957
6.54378
6.5957
6.44547
6.57571
6.5777
6.51281
6.55002
6.46997
6.42976
6.18519
6.45029
6.37344
6.56991
6.55745
6.58772
6.57313
6.57209
6.42051
6.4204
6.59394
6.39814
6.55588
6.54695
6.39101
6.52314
6.44475
6.51871
6.37784
6.45905
6.56975
6.54727
6.39075
6.34413
6.40512
6.5577
6.58206
6.39538
6.40805
6.47083
6.40579
6.53819
6.58483
6.53299
6.21911
6.52738
6.51048
6.4711
6.50223
6.54262
6.54425
6.55301
6.47457
6.47422
6.46756
6.49015
6.43939
6.38251
6.59888
6.44447
6.57075
6.54739
6.59608
6.43918
6.16196
6.11528
6.48157
6.51936
6.39457
6.49168
6.2286
6.5184
6.49374
6.56407
6.58089
6.57665
6.51252
6.52588
6.45048
6.3641
6.37913
6.3495
6.57887
6.47866
6.55801
6.33206
6.59833
6.41039
6.47041
6.51754
6.47899
6.55046
6.30562
6.58357
6.58912
6.27477
6.39135
6.58228
6.38643
6.56268
6.58817
6.57036
6.58552
6.35318
6.13944
6.37957
6.09559
6.57979
6.44208
6.60013
6.56096
6.57171
6.55693
6.51004
6.47884
6.43938
6.51452
6.57757
6.45428
6.55132
6.4098
6.53679
6.40668
6.58075
6.54692
6.56848
6.3687
6.40994
6.32848
6.47969
6.58888
6.19119
6.29849
6.53011
6.25944
6.53711
6.49823
6.57778
6.33366
6.38107
6.42288
6.34423
6.36242
6.43697
6.51762
6.56542
6.20214
6.1256
6.40553
6.46949
6.33999
6.43289
6.21306
6.26855
6.49813
6.49212
6.29533
6.39082
6.58162
6.54457
6.48901
6.44919
6.21015
6.46627
6.50781
6.5989
6.58174
6.58113
6.24771
6.52264
6.52845
6.4949
6.23934
6.32404
6.45951
6.15508
6.28883
6.59367
6.35238
6.37865
6.47139
6.45131
6.51994
6.48266
6.48824
6.49926
6.55638
6.5478
6.47851
6.57666
6.09664
6.37206
6.58283
6.44857
6.33482
6.46047
6.35239
6.4409
6.38108
6.36657
6.47591
6.56513
6.21945
6.57061
6.50234
6.4198
6.23197
6.41066
6.51956
6.51807
6.42096
6.57106
6.34497
6.52763
6.54704
6.54871
6.54465
6.38114
6.22857
6.29949
6.53755
6.38288
6.43592
6.53753
6.2703
6.43944
6.56421
6.18118
6.35578
6.38005
6.46995
6.39191
6.55816
6.59937
6.45922
6.21457
6.56672
6.41726
6.59616
6.52017
6.43918
6.36196
6.50795
6.56996
6.41831
6.40982
6.42947
6.54325
6.55861
6.46109
6.27462
6.19287
6.5669
6.22861
6.59236
6.42075
6.29835
6.45939
6.52739
6.29675
6.55242
6.40008
6.30962
6.58495
6.48512
6.25757
6.57456
6.22579
6.33526
6.50999
6.59893
6.56918
6.45952
6.53738
6.55918
6.57968
6.36717
6.45421
6.26057
6.27638
6.52528
6.48623
6.49239
6.32423
6.46112
6.4981
6.57699
6.43313
6.42948
6.36812
6.46907
6.52139
6.3367
6.58029
6.46856
6.53837
6.58491
6.49827
6.50435
6.56656
6.46856
6.53975
6.56169
6.28493
6.56402
6.2585
6.5813
6.32519
6.52302
6.57613
6.41288
6.56389
6.53187
6.44007
6.41122
6.33898
6.52078
6.56518
6.56906
6.5781
6.54776
6.28981
6.34605
6.28578
6.35264
6.51336
6.55626
6.40022
6.13775
6.44897
6.37148
6.4098
6.5484
6.3289
6.1334
6.35521
6.52073
6.58947
6.32188
6.581
6.36654
6.54209
6.47207
6.58669
6.4098
6.14341
6.30816
6.58098
6.58996
6.5108
6.56432
6.43701
6.49151
6.21121
6.34436
6.39048
6.40044
6.43971
6.59908
6.4839
6.49746
6.51803
6.24774
6.21112
6.56394
6.57657
6.22512
6.58492
6.22069
6.50965
6.47073
6.59589
6.29898
6.53857
6.16298
6.58107
6.46775
6.43984
6.58607
6.47565
6.01906
6.14252
6.48519
6.32611
6.59374
6.21605
6.13635
6.37269
6.40302
6.26315
6.27629
6.58869
6.2773
6.51064
6.49419
6.38096
6.54992
6.56228
6.33128
6.32472
6.50773
6.1757
6.52979
6.52006
6.49987
6.20551
6.37706
6.3172
6.47937
6.26755
6.54388
6.57046
6.53156
6.53795
6.44898
6.31757
6.55621
6.54476
6.38376
6.5764
6.40982
6.53543
6.42743
6.41983
6.47232
6.49102
6.47393
6.5373
6.52768
6.48462
6.52317
6.18935
6.18478
6.33859
6.55505
6.48894
6.0294
6.45283
6.49906
6.38438
6.56389
6.46006
6.60021
6.58878
6.5598
6.58971
6.53536
6.60072
6.4184
6.51766
6.56435
6.55323
6.33377
6.23528
6.4686
6.22149
6.52816
6.52733
6.58491
6.4531
6.28272
6.46176
6.51013
6.27205
6.35581
6.57287
6.3299
6.59495
6.16411
6.47029
6.25776
6.59378
6.59391
6.40212
6.50037
6.43956
6.2286
6.4714
6.57902
6.391
6.47081
6.4349
6.25268
6.43998
6.45939
6.22894
6.59123
6.40471
6.59127
6.4
6.40025
6.31857
6.31829
6.23741
6.05016
6.5584
6.48449
6.54744
6.54087
6.40669
6.45802
6.5731
6.54767
6.07932
6.57675
6.30007
6.34549
6.29883
6.58089
6.40988
6.4884
6.53953
6.38522
6.43019
6.54739
6.46861
6.28655
6.39793
6.33333
6.5374
6.55256
6.48165
6.23165
6.59654
6.57776
6.41559
6.41166
6.42932
6.56743
6.36506
6.46875
6.56681
6.27516
6.30398
6.55845
6.52251
6.5287
6.51621
6.29649
6.50349
6.48871
6.59851
6.59183
6.58559
6.57146
6.163
6.56391
6.57662
6.5916
6.43666
6.47865
6.52614
6.4199
6.14344
6.57539
6.58849
6.19524
6.58179
6.50838
6.57378
6.47001
6.44299
6.39083
6.47324
6.57045
6.44712
6.41965
6.50775
6.43153
6.59546
6.44318
6.35377
6.55738
6.53416
6.08713
6.47886
6.43919
6.53414
6.23891
6.2381
6.4106
6.53765
6.51766
6.47943
6.44514
6.36129
6.58739
6.43818
6.35006
6.48362
6.34293
6.57306
6.35593
6.42476
6.58403
6.32383
6.44401
6.35294
6.43084
6.37189
6.4059
6.54693
6.4947
6.43067
6.27767
6.56931
6.28474
6.40911
6.35173
6.50596
6.37074
6.59383
6.26999
6.59739
6.38138
6.50433
6.2362
6.47844
6.54927
6.44505
6.30075
6.3862
6.59397
6.22333
6.59154
6.37017
6.58097
6.36423
6.45026
6.44684
6.59451
6.56474
6.52758
6.1347
6.56468
6.47034
6.54751
6.58675
6.37143
6.49921
6.43833
6.55032
6.45148
6.4982
6.38348
6.21039
6.21937
6.17184
6.20853
6.54691
6.38206
6.44902
6.59764
6.46597
6.38339
6.0788
6.552
6.39742
6.4416
6.04678
6.55195
6.40587
6.52421
6.37789
6.17846
6.58668
6.41259
6.45206
6.50987
6.47273
6.08202
6.56034
6.4005
6.32422
6.38046
6.39077
6.5709
6.54022
6.45174
6.48794
6.44992
6.34188
6.41758
6.48734
6.53722
6.11429
6.20123
6.56944
6.40043
6.58301
6.54988
6.52398
6.59461
6.42949
6.544
6.58834
6.50921
6.44168
6.14989
6.40007
6.53725
6.54045
6.5844
6.59027
6.10493
6.58984
6.47162
6.32649
6.33996
6.524
6.44986
6.298
6.52737
6.54068
6.48819
6.44644
6.59741
6.50112
6.54048
6.46421
6.41554
6.49914
6.39086
6.59427
6.38147
6.51416
6.30941
6.21522
6.30484
6.35568
6.46516
6.59144
6.58128
6.09904
6.11463
6.47066
6.41419
6.57614
6.34492
6.55096
6.5347
6.56394
6.436
6.4874
6.55734
6.55603
6.41393
6.43967
6.56606
6.4784
6.29817
6.5814
6.55624
6.58257
6.58837
6.54624
6.51159
6.57062
6.39072
6.53851
6.41066
6.50946
6.53721
6.51582
6.50386
6.41355
6.55913
6.46697
6.56538
6.45956
6.35323
6.47685
6.50111
6.46771
6.32404
6.42016
6.54561
6.54778
6.23881
6.5522
6.25717
6.38484
6.48041
6.38404
6.59955
6.51298
6.47911
6.55239
6.4826
6.57065
6.40061
6.58092
6.58554
6.42227
6.53948
6.22924
6.54035
6.56447
6.49736
6.44306
6.57232
6.4991
6.59125
6.52134
6.35342
6.59166
6.3868
6.46071
6.45278
6.45876
6.45876
6.5008
6.51753
6.44967
6.48008
6.52736
6.50115
6.50773
6.10601
6.46001
6.57644
6.49278
6.59133
6.38561
6.47044
6.32382
6.56605
6.55333
6.3596
6.397
6.28461
6.50153
6.55441
6.43972
6.29059
6.47196
6.55933
6.53179
6.58545
6.46525
6.4688
6.58451
6.48668
6.34205
6.57139
6.38129
6.18096
6.54715
6.58224
6.59135
6.07848
6.24789
6.45632
6.28713
6.31817
6.59848
6.55759
6.55669
6.50779
6.34292
6.49544
6.44957
6.5769
6.46484
6.39352
6.22435
6.59047
6.46719
6.54308
6.42067
6.59051
6.4342
6.44898
6.46155
6.49395
6.52402
6.59124
6.55668
6.36236
6.39568
6.4
6.57724
6.52309
6.57055
6.56442
6.48644
6.56325
6.49804
6.56644
6.41968
6.49803
6.53109
6.42498
6.25255
6.33082
6.42225
6.56366
6.46058
6.0842
6.4518
6.57634
6.42079
6.28095
6.34118
6.1537
6.42556
6.41962
6.4654
6.42975
6.40052
6.33221
6.53074
6.59142
6.4889
6.37145
6.36194
6.52297
6.38157
6.44033
6.47784
6.4053
6.44034
6.13334
6.53878
6.0796
6.49063
6.57621
6.5771
6.34287
6.52778
6.49817
6.48243
6.49175
6.45018
6.37133
6.15364
6.15249
6.49423
6.43935
6.20178
6.14441
6.59739
6.16223
6.38048
6.24418
6.53409
6.51782
6.30525
6.26816
6.4155
6.5793
6.49595
6.57308
6.36198
6.46201
6.42242
6.41751
6.60017
6.46875
6.41961
6.52262
6.55063
6.49796
6.47715
6.58243
6.59031
6.45944
6.54392
6.59894
6.53779
6.42149
6.50839
6.40355
6.50806
6.58336
6.51813
6.48815
6.28013
6.41769
6.37496
6.49362
6.51768
6.55417
6.35547
6.35615
6.47918
6.60019
6.56392
6.46909
6.50659
6.57622
6.56564
6.57027
6.55755
6.53719
6.57065
6.58044
6.37143
6.49194
6.46866
6.54707
6.55113
6.54139
6.51997
6.54767
6.47348
6.10032
6.51662
6.48974
6.31493
6.44897
6.16558
6.49972
6.39794
6.57281
6.56015
6.36618
6.31735
6.1728
6.25094
6.13416
6.51908
6.56162
6.16084
6.42217
6.50254
6.45241
6.41235
6.57132
6.45538
6.59377
6.5917
6.44296
6.36239
6.50534
6.548
6.2983
6.07685
6.55611
6.39102
6.23813
6.42322
6.41047
6.58834
6.35338
6.46001
6.56697
6.39667
6.46249
6.2762
6.21924
6.5481
6.57204
6.48356
6.59592
6.38823
6.45839
6.5779
6.53246
6.53827
6.59423
6.37389
6.37376
6.42939
6.38858
6.38149
6.25075
6.3056
6.54256
6.50177
6.5501
6.52967
6.55624
6.49132
6.49912
6.59081
6.45947
6.57714
6.47698
6.33529
6.51623
6.37658
6.44899
6.58264
6.60002
6.39422
6.59245
6.42671
6.44397
6.13712
6.58506
6.42077
6.47857
6.54694
6.57028
6.44933
6.58496
6.46808
6.29105
6.55247
6.47492
6.54899
6.52734
6.49251
6.09134
6.29782
6.4585
6.59995
6.56395
6.5842
6.41978
6.10386
6.35281
6.5741
6.53808
6.54691
6.22045
6.57677
6.30833
6.33386
6.6
6.52829
6.45767
6.5653
6.48717
6.52395
6.44898
6.44563
6.55079
6.44029
6.49254
6.30178
6.24783
6.59124
6.57651
6.51955
6.5711
6.5819
6.54808
6.21927
6.50778
6.46865
6.36399
6.55804
6.34286
6.22902
6.53406
6.59428
6.3696
6.5641
6.398
6.55617
6.22657
6.57674
6.50845
6.48957
6.04869
6.53977
6.38104
6.44131
6.50463
6.54883
6.44016
6.48867
6.58629
6.55678
6.47971
6.36336
6.55768
6.45528
6.58528
6.53767
6.32006
6.45435
6.16544
6.20367
6.28867
6.18331
6.48053
6.36902
6.45541
6.60001
6.52951
6.53009
6.38185
6.6
6.42011
6.47315
6.53716
6.56658
6.41959
6.48582
6.56648
6.56406
6.30509
6.27783
6.50917
6.52531
6.46963
6.38347
6.5372
6.55713
6.38362
6.59137
6.5639
6.31711
6.59456
6.33334
6.59197
6.36209
6.54698
6.59387
6.40765
6.55213
6.57647
6.48169
6.55992
6.39367
6.51484
6.56905
6.28509
6.59368
6.5894
6.52736
6.44799
6.55786
6.3911
6.49401
6.19953
6.38802
6.56099
6.37146
6.59431
6.59923
6.37214
6.58118
6.18201
6.20144
6.39223
6.2584
6.57191
6.23425
6.36316
6.39873
6.59571
6.46865
6.42529
6.59271
6.50818
6.27694
6.38753
6.40149
6.52648
6.36268
6.09848
6.47045
6.47277
6.47428
6.2673
6.40276
6.42943
6.58256
6.54539
6.54135
6.54947
6.09185
6.57621
6.56418
6.47855
6.52041
6.56463
6.41313
6.59583
6.5639
6.34914
6.53151
6.4614
6.20025
6.37273
6.51647
6.59415
6.46099
6.46082
6.50078
6.45891
6.32605
6.47237
6.5574
6.42014
6.52732
6.2477
6.44972
6.10697
6.54402
6.4784
6.47443
6.58092
6.23823
6.35239
6.59895
6.34296
6.47932
6.33374
6.43941
6.39049
6.49883
6.47331
6.28187
6.55361
6.31532
6.54697
6.59569
6.47843
6.50806
6.47002
6.35938
6.51494
6.3812
6.26673
6.55711
6.47887
6.5561
6.34596
6.59389
6.29016
6.59882
6.41087
6.5639
6.57742
6.55623
6.56047
6.53018
6.37268
6.50183
6.4
6.59235
6.21117
6.54338
6.19049
6.31938
6.59626
6.3352
6.48064
6.35953
6.27464
6.54006
6.44691
6.34014
6.43165
6.42835
6.39684
6.59132
6.55625
6.32385
6.55757
6.52757
6.32698
6.23904
6.50886
6.52673
6.18975
6.51042
6.58896
6.58856
6.57632
6.53402
6.51177
6.28828
6.43807
6.51065
6.15837
6.53752
6.45429
6.32355
6.59157
6.2579
6.54212
6.39176
6.31088
6.2774
6.53571
6.44113
6.57751
6.59571
6.50642
6.54599
6.39048
6.24766
6.52739
6.54054
6.55612
6.59064
6.42994
6.15688
6.36341
6.31395
6.09621
6.28585
6.21444
6.40301
6.38284
6.57192
6.45277
6.5178
6.6
6.45123
6.58835
6.5937
6.30933
6.36634
6.23927
6.40535
6.59653
6.31773
6.193
6.33167
6.2552
6.47429
6.59811
6.51192
6.2413
6.45251
6.53718
6.55868
6.37146
6.48815
6.46969
6.53979
6.49933
6.51893
6.4415
6.56391
6.38186
6.4793
6.35409
6.32726
6.55702
6.37814
6.50655
6.48843
6.51752
6.24069
6.56979
6.4684
6.5967
6.143
6.48883
6.27619
6.26157
6.26125
6.18534
6.45562
6.58628
6.57525
6.42636
6.50019
6.45779
6.49417
6.55996
6.24071
6.56285
6.59378
6.25829
6.51262
6.48854
6.2291
6.39052
6.27846
6.46912
6.3732
6.45222
6.57856
6.50409
6.52149
6.4133
6.36209
6.49778
6.25825
6.4003
6.43843
6.47578
6.53213
6.48086
6.54804
6.5646
6.25476
6.19048
6.46533
6.47251
6.50141
6.27794
6.58504
6.40005
6.53412
6.52007
6.54696
6.4736
6.47946
6.53576
6.56273
6.3256
6.54732
6.43922
6.4596
6.56067
6.58091
6.502
6.39151
6.42066
6.59191
6.57282
6.31296
6.58836
6.59945
6.52085
6.56218
6.5982
6.56569
6.5705
6.4314
6.29868
6.57127
6.44999
6.57078
6.58604
6.40055
6.33612
6.30025
6.59164
6.57626
6.19438
6.47367
6.58893
6.44932
6.17304
6.58137
6.55818
6.5072
6.52835
6.42012
6.57105
6.44815
6.59739
6.58161
6.59227
6.21027
6.57091
6.36575
6.48896
6.5562
6.55959
6.4476
6.52759
6.41232
6.52657
6.57973
6.56788
6.48065
6.55191
6.30285
6.43402
6.51453
6.59129
6.27777
6.57829
6.27014
6.60089
6.50816
6.57623
6.4237
6.57667
6.56385
6.4592
6.50369
6.28869
6.33333
6.57649
6.50276
6.55609
6.45827
6.23923
6.21376
6.50816
6.43927
6.47958
6.50894
6.59131
6.39488
6.36191
6.34478
6.54747
6.5401
6.56189
6.55145
6.32944
6.36043
6.56401
6.43932
6.56615
6.58265
6.49845
6.49409
6.57647
6.59129
6.41255
6.33386
6.44729
6.43942
6.50548
6.55815
6.38097
6.19048
6.41113
6.45166
6.55676
6.4364
6.56499
6.37143
6.59058
6.35271
6.59896
6.4498
6.42114
6.37051
6.46568
6.42965
6.43049
6.27736
6.23844
6.57077
6.30736
6.17154
6.5644
6.30396
6.58002
6.3449
6.54792
6.48616
6.26105
6.46877
6.44618
6.55699
6.45762
6.33446
6.5471
6.56731
6.45145
6.59743
6.50773
6.55622
6.40863
6.53747
6.55975
6.57087
6.35239
6.34019
6.55578
6.39053
6.4037
6.43256
6.56005
6.51755
6.49263
6.49794
6.59946
6.48142
6.13888
6.59435
6.48257
6.40004
6.44903
6.54762
6.5561
6.36863
6.40663
6.38127
6.50799
6.55654
6.14526
6.54692
6.42571
6.54559
6.54081
6.51012
6.50776
6.53868
6.43829
6.04173
6.5276
6.42193
6.30555
6.59369
6.1775
6.57071
6.43876
6.32382
6.57169
6.37931
6.23324
6.46963
6.36345
6.59167
6.50419
6.49958
6.55911
6.54667
6.39574
6.37839
6.51684
6.57082
6.40416
6.45999
6.21141
6.38297
6.48099
6.52746
6.52599
6.46445
6.40286
6.48209
6.38952
6.5767
6.58841
6.5561
6.49799
6.57076
6.55453
6.52881
6.449
6.44794
6.51006
6.58095
6.35391
6.52245
6.53144
6.5337
6.46383
6.3365
6.45218
6.43949
6.47915
6.45897
6.08717
6.04222
6.48138
6.38054
6.41714
6.14221
6.35222
6.58435
6.45591
6.55855
6.54799
6.28925
6.57045
6.50816
6.4705
6.357
6.55715
6.52904
6.56464
6.30296
6.343
6.56998
6.53966
6.49442
6.40237
6.57229
6.50269
6.54072
6.32788
6.52813
6.48942
6.57417
6.53296
6.56953
6.56716
6.3729
6.52724
6.41966
6.59025
6.35768
6.38263
6.42281
6.41033
6.40092
6.42975
6.52744
6.54177
6.44035
6.55969
6.57794
6.56865
6.56077
6.57054
6.36899
6.40197
6.58877
6.51778
6.58943
6.48858
6.38489
6.40002
6.51752
6.43922
6.50888
6.30299
6.5244
6.46261
6.5646
6.41813
6.04821
6.26965
6.32176
6.20026
6.59063
6.57278
6.55829
6.44723
6.33635
6.44937
6.26667
6.49297
6.50821
6.51944
6.51331
6.47807
6.43143
6.52789
6.3732
6.5471
6.47208
6.56884
6.52994
6.53738
6.48139
6.56758
6.44902
6.46226
6.55819
6.28971
6.59928
6.38314
6.59217
6.13431
6.57034
6.50997
6.18191
6.58211
6.30483
6.50132
6.52418
6.55067
6.31986
6.47823
6.46858
6.56416
6.53455
6.58953
6.52582
6.40803
6.33091
6.43452
6.5855
6.32237
6.51885
6.55787
6.29534
6.25836
6.52004
6.14398
6.2213
6.37985
6.55066
6.57174
6.58106
6.4863
6.42941
6.52796
6.06077
6.52008
6.55925
6.391
6.46929
6.49108
6.56967
6.55839
6.54691
6.23812
6.56315
6.59178
6.53783
6.53046
6.54199
6.44784
6.26915
6.2803
6.55322
6.6007
6.53133
6.55176
6.54721
6.56903
6.59881
6.29686
6.47841
6.28683
6.4675
6.34288
6.57451
6.3435
6.54721
6.09674
6.45051
6.57631
6.37317
6.57628
6.51797
6.32558
6.44779
6.57686
6.39838
6.50745
6.57092
6.51092
6.30556
6.596
6.22675
6.2865
6.5977
6.33868
6.42055
6.37216
6.48895
6.55929
6.40979
6.33781
6.52371
6.47974
6.51627
6.25552
6.48319
6.47838
6.41408
6.31474
6.44903
6.23776
6.53693
6.34768
6.59798
6.33689
6.56251
6.5572
6.57068
6.40096
6.39334
6.60001
6.55685
6.37197
6.27619
6.51952
6.45282
6.53902
6.48847
6.34752
6.20016
6.59134
6.44991
6.22111
6.49848
6.58445
6.46519
6.35275
6.37519
6.45099
6.38155
6.40842
6.35247
6.56013
6.40046
6.31429
6.55429
6.4802
6.57546
6.14426
6.49808
6.56498
6.44178
6.3708
6.43002
6.31456
6.43892
6.15705
6.48111
6.58379
6.55645
6.50845
6.18293
6.31815
6.44928
6.58272
6.53183
6.36474
6.29273
6.3947
6.59739
6.51447
6.42939
6.51465
6.35266
6.21564
6.55469
6.46129
6.24931
6.57419
6.26809
6.5652
6.4022
6.29641
6.45886
6.46004
6.56622
6.59343
6.04835
6.11453
6.37764
6.47886
6.42081
6.23533
6.44879
6.01913
6.45153
6.58906
6.50258
6.43963
6.59782
6.5778
6.12458
6.34684
6.33131
6.58866
6.49711
6.46113
6.43917
6.39252
6.24788
6.36344
6.48874
6.59134
6.54901
6.47847
6.44019
6.48648
6.53773
6.46192
6.52024
6.21923
6.57416
6.36126
6.46057
6.46146
6.30526
6.18143
6.5084
6.51518
6.56184
6.42221
6.48839
6.5974
6.52261
6.55589
6.5004
6.50077
6.53274
6.29393
6.39127
6.51666
6.36613
6.56652
6.25937
6.58843
6.58991
6.31918
6.38261
6.53639
6.59365
6.58151
6.28685
6.53111
6.53755
6.11515
6.43934
6.42274
6.5672
6.5806
6.35255
6.50156
6.28576
6.40019
6.57234
6.59744
6.56241
6.51615
6.46004
6.54702
6.24917
6.55724
6.15978
6.5204
6.35403
6.41086
6.50833
6.16233
6.58134
6.17266
6.37179
6.50587
6.5325
6.53003
6.46858
6.5941
6.58222
6.32994
6.52549
6.55153
6.55264
6.56729
6.50774
6.31443
6.22907
6.4828
6.25328
6.60031
6.42133
6.54827
6.48652
6.41058
6.58285
6.59204
6.42943
6.59156
6.48861
6.52941
6.43918
6.57135
6.34811
6.58438
6.11626
6.47503
6.29861
6.43387
6.56411
6.59743
6.23199
6.49082
6.53007
6.56445
6.45399
6.51964
6.2748
6.58541
6.59308
6.50182
6.58703
6.5168
6.30575
6.42938
6.39185
6.53713
6.55045
6.41967
6.58187
6.22788
6.56665
6.44091
6.03858
6.58741
6.28581
6.59194
6.52631
6.51472
6.3741
6.55617
6.58258
6.53322
6.49054
6.40799
6.41073
6.45357
6.56495
6.43026
6.33446
6.47327
6.59749
6.29583
6.21441
6.51543
6.56753
6.58447
6.3925
6.41949
6.41046
6.50674
6.18825
6.05771
6.48548
6.47008
6.29535
6.46926
6.26761
6.12433
6.45877
6.58502
6.56519
6.56834
6.59631
6.20028
6.40372
6.54001
6.31449
6.5762
6.47908
6.18299
6.50822
6.57611
6.29404
6.55622
6.3152
6.31531
6.4588
6.33501
6.53319
6.54773
6.40622
6.45333
6.4742
6.52734
6.48815
6.59409
6.51032
6.55641
6.51181
6.41052
6.25891
6.40121
6.45232
6.55364
6.5376
6.54932
6.3833
6.37166
6.56399
6.50812
6.36271
6.56391
6.58097
6.49406
6.58177
6.59599
6.36354
6.42202
6.46648
6.34419
6.59492
6.25828
6.42525
6.38128
6.18095
6.27047
6.56721
6.32868
6.46869
6.42093
6.46233
6.3489
6.32569
6.51787
6.48238
6.55363
6.53101
6.5437
6.42949
6.50222
6.36192
6.53872
6.41945
6.33632
6.4006
6.15483
6.55437
6.5995
6.57831
6.20232
6.40645
6.48965
6.49839
6.49292
6.30487
6.44088
6.53917
6.26122
6.28771
6.37253
6.31522
6.47505
6.50408
6.59209
6.54643
6.35445
6.27113
6.56924
6.59746
6.46275
6.56791
6.45185
6.54881
6.40915
6.51937
6.58963
6.3426
6.40053
6.52379
6.30732
6.28596
6.58123
6.51981
6.5241
6.56496
6.54768
6.54486
6.4392
6.44435
6.5457
6.49792
6.59159
6.55439
6.51753
6.51301
6.59291
6.34969
6.29528
6.12515
6.34287
6.14166
6.43504
6.33391
6.48914
6.57647
6.57836
6.4683
6.56554
6.5909
6.58303
6.53711
6.55619
6.42942
6.25636
6.46087
6.46773
6.53277
6.36799
6.48878
6.28574
6.57177
6.46072
6.38805
6.3221
6.43302
6.34071
6.38278
6.55717
6.47838
6.26833
6.56396
6.59739
6.59142
6.4232
6.44387
6.12276
6.45118
6.5181
6.52235
6.47137
6.57617
6.47854
6.18222
6.57152
6.54944
6.22874
6.37143
6.41375
6.51773
6.58549
6.53713
6.50776
6.51664
6.56477
6.27893
6.30768
6.47844
6.555
6.45878
6.33434
6.55778
6.5914
6.30476
6.44916
6.32345
6.54867
6.50543
6.58491
6.45106
6.29535
6.6001
6.28624
6.46024
6.56869
6.50818
6.17899
6.34955
6.5622
6.1921
6.55494
6.3716
6.5749
6.1082
6.48011
6.40006
6.46859
6.52893
6.43001
6.54055
6.44014
6.42598
6.433
6.18294
6.5971
6.56233
6.44583
6.54462
6.56887
6.44294
6.06671
6.34016
6.42581
6.49539
6.39308
5.69524
6.5825
6.59665
6.44036
6.55156
6.57781
6.5278
6.57056
6.50855
6.3318
6.5575
6.1735
6.22903
6.37588
6.09968
6.07548
6.47836
6.58098
6.53071
6.53328
6.49047
6.56507
6.48707
6.46254
6.2191
6.52397
6.43261
6.57096
5.9448
6.30502
6.04001
6.49287
6.4407
6.56392
6.49294
6.43919
6.47925
6.54437
6.54126
6.38129
6.50091
6.57613
6.42049
6.59828
6.31518
6.2131
6.23361
6.17911
6.45041
6.13417
6.24752
6.55597
6.29608
6.56888
6.30747
6.08956
6.37393
6.25715
6.56511
6.47056
6.54279
6.52965
6.59406
6.56692
6.37076
6.21913
6.52735
6.34991
6.59369
6.30498
6.51783
6.47713
6.21708
6.59884
6.58153
6.43032
6.59547
6.57758
6.21717
6.54554
6.31431
6.29249
6.51805
6.45376
6.32761
6.17354
6.31018
6.34681
6.43522
6.20117
6.469
6.53712
6.2193
6.50833
6.60009
6.28824
6.55896
5.84003
6.48553
6.58154
6.4893
6.58806
6.39423
6.35425
6.50693
6.53754
6.40231
6.46209
6.50998
6.54731
6.42127
6.4895
5.84891
6.50794
6.50345
6.05161
6.42805
6.50865
6.57148
6.48823
6.57643
6.36566
6.52045
6.40615
6.54703
6.48425
6.26703
6.40008
6.29786
6.55092
6.43019
6.46121
6.57834
6.33762
6.51857
6.2371
6.5442
6.56167
6.49817
6.57096
6.56578
5.72257
6.44853
6.49081
6.03184
6.42592
6.28254
6.57056
6.51527
5.77859
6.22973
6.10935
6.45599
6.54409
5.84062
6.51088
6.3544
6.59166
6.22862
6.59365
6.43419
6.57614
6.35446
6.57617
6.1678
5.93003
6.25376
6.0956
6.48814
6.24421
5.83682
6.53713
6.50801
6.58129
6.36284
6.52735
6.58839
6.44899
6.46728
6.34292
6.57745
5.88108
6.45637
6.18541
6.59367
6.32936
6.32799
6.59208
6.04412
6.50775
6.58659
6.50812
6.57739
6.57105
6.57679
6.20082
6.53541
6.59988
6.45878
6.2762
6.28572
6.45927
6.52999
6.296
6.394
6.25254
6.47963
6.44849
6.42156
6.43958
6.44361
6.40872
6.38352
6.55804
6.3829
6.17709
6.42305
6.35498
6.4665
6.17202
6.55285
6.58346
5.85496
6.22928
6.41341
6.59921
6.44523
6.44929
6.59935
6.1716
6.57045
5.85745
6.58554
6.39557
6.00755
6.56437
6.26674
6.42952
6.45879
6.23407
6.47268
6.35325
6.57688
5.74
6.49948
6.39052
6.58553
6.58959
6.57697
6.41154
6.53759
5.81099
6.51754
6.55756
6.53104
6.38354
6.57906
5.96982
6.4686
6.50938
5.74097
5.8102
6.40154
6.38731
6.53742
5.84238
6.2023
6.44017
6.26293
6.13499
6.51078
5.77346
6.3823
5.75075
6.24941
6.5662
6.16476
6.32512
6.11456
6.32427
6.34573
6.17347
6.14889
5.80857
6.4205
6.39331
6.07668
6.11218
6.59526
6.52862
6.45876
6.17942
6.57853
6.38231
6.381
6.10602
6.36386
6.30042
5.92311
6.56846
6.40752
6.22952
6.10417
5.89163
5.76043
6.04124
6.49829
6.51983
6.5885
5.94216
6.39912
6.28874
5.70669
6.13077
5.86178
5.77
6.4978
5.77916
6.5932
6.59125
6.09163
6.59393
6.16332
5.6961
6.34828
5.87171
6.59594
6.33752
5.93343
6.11387
6.04857
6.34332
6.32165
6.5962
6.26349
6.58762
6.56422
5.99861
6.54007
6.37189
6.32397
6.3895
5.9508
6.03277
5.77016
5.6801
6.51067
6.26554
6.23009
6.49805
6.48496
)


// ************************************************************************* //
