/*--------------------------------*- C++ -*----------------------------------*\
| =========                 |                                                 |
| \\      /  F ield         | OpenFOAM: The Open Source CFD Toolbox           |
|  \\    /   O peration     | Version:  plus.master.MPPICInterFoam            |
|   \\  /    A nd           | Web:      www.OpenFOAM.com                      |
|    \\/     M anipulation  |                                                 |
\*---------------------------------------------------------------------------*/
FoamFile
{
    version     2.0;
    format      ascii;
    class       volScalarField;
    location    "7";
    object      alpha.water;
}
// * * * * * * * * * * * * * * * * * * * * * * * * * * * * * * * * * * * * * //

dimensions      [0 0 0 0 0 0 0];

internalField   nonuniform List<scalar> 
11822
(
0.994882
0.912754
0.750716
0.708548
0.79464
0.948217
1
0.938953
0.655397
0.408612
0.408676
0.437081
0.745765
0.994025
0.870494
0.411692
0.40868
0.409816
0.460127
0.613924
0.946828
0.860958
0.411579
0.408319
0.409094
0.505887
0.611628
0.936724
0.936812
0.764904
0.4075
0.407398
0.477438
0.791814
0.99202
0.991984
0.929849
0.838906
0.794722
0.855707
0.94527
0.999752
1
0.999768
0.999483
0.994594
1
1
1
0.9979
0.935291
0.833354
0.791253
0.858228
0.966642
1
0.951348
0.867
0.450362
0.445722
0.507124
0.814759
0.998728
0.934049
0.527627
0.408824
0.40914
0.645377
0.724269
0.967349
0.924417
0.503454
0.408838
0.408565
0.71278
0.730118
0.961486
0.940112
0.916416
0.51667
0.423874
0.560928
0.848349
0.99778
0.995831
0.930386
0.915384
0.870219
0.889751
0.958976
0.999931
1
0.999284
1
0.997459
1
1
1
0.999839
0.96028
0.942414
0.912335
0.940401
0.985159
1
0.965064
0.963709
0.732516
0.677495
0.652792
0.907353
0.999976
0.98899
0.788539
0.408839
0.408877
0.661327
0.853716
0.994782
0.98278
0.74488
0.408836
0.428488
0.695749
0.854113
0.99268
0.952647
0.952672
0.793749
0.682934
0.663583
0.908473
0.999984
0.999375
0.936206
0.961057
0.940454
0.930237
0.977732
1
1
0.99994
1
0.999848
1
1
1
1
0.969273
0.969603
0.964184
0.971828
0.989605
1
0.9702
0.969792
0.952917
0.835735
0.737519
0.947176
1
1
0.935167
0.536287
0.422603
0.568205
0.92035
1
1
0.894309
0.408836
0.579691
0.513427
0.912675
1
0.963859
0.928846
0.922469
0.896001
0.687125
0.927369
1
0.999217
0.945847
0.944512
0.94231
0.942005
0.981908
1
1
1
1
1
1
1
1
0.996972
0.954327
0.905911
0.941647
0.942273
0.97896
1
0.956626
0.769769
0.902082
0.777475
0.717333
0.91636
1
0.907454
0.928609
0.810771
0.571301
0.366174
0.907137
0.996437
0.917282
0.890257
0.579228
0.634393
0.277424
0.903178
0.9971
0.944328
0.605992
0.737848
0.750105
0.642972
0.878065
0.999976
0.992281
0.925721
0.81373
0.851141
0.887371
0.961545
1
1
1
1
0.998048
1
1
1
0.969507
0.796188
0.618713
0.699309
0.692974
0.885907
0.999613
0.800241
0.291914
0.339472
0.311361
0.539808
0.673934
0.962442
0.495871
0.743013
0.785432
0.617963
0.214461
0.69507
0.909711
0.493652
0.731509
0.685243
0.552637
0.205026
0.718796
0.93222
0.755405
0.243502
0.230085
0.248815
0.435841
0.612638
0.95852
0.944367
0.751691
0.506156
0.549892
0.623606
0.833507
0.99568
1
0.995225
0.95824
0.948082
0.971275
0.999525
1
1
1
0.999999
0.999938
0.999957
0.999861
0.999846
0.999999
1
1
1
1
1
1
1
1
1
1
1
1
1
1
1
1
1
1
1
1
1
1
1
1
1
1
1
1
1
1
1
1
1
1
1
1
1
1
1
1
1
1
1
1
1
1
1
1
1
1
0.999994
0.999905
0.999957
0.999537
0.999759
1
1
1
1
1
1
1
1
1
1
1
1
1
1
1
1
1
1
1
1
1
1
1
1
1
1
1
1
1
1
1
1
1
1
1
1
1
1
1
1
1
1
1
1
1
1
1
1
1
1
1
0.999989
0.99991
0.999954
0.999399
0.999728
1
1
1
1
1
1
1
1
1
0.999999
1
1
1
1
1
1
1
1
1
1
1
1
1
1
1
1
1
1
1
1
1
1
1
1
1
1
1
1
1
1
1
1
1
1
1
1
1
1
1
1
1
0.999989
0.999934
0.999961
0.999464
0.999754
1
1
1
1
1
1
1
1
1
1
1
1
1
1
1
1
1
1
1
1
1
1
1
1
1
1
1
1
1
1
1
1
1
1
1
1
1
1
1
1
1
1
1
1
1
1
1
1
1
1
1
0.999995
0.999972
0.999987
0.999708
0.99985
0.999999
1
1
1
1
1
1
1
1
1
1
1
1
1
1
1
1
1
1
1
1
1
1
1
1
1
1
1
1
1
1
1
1
1
1
1
1
1
1
1
1
1
1
1
1
1
1
1
1
1
1
0.999999
0.999996
0.999996
0.999948
0.999959
0.999999
1
1
1
1
1
1
1
1
1
1
1
1
1
1
1
1
1
1
1
1
1
1
1
1
1
1
1
1
1
1
1
1
1
1
1
1
1
1
1
1
1
1
1
1
1
1
1
1
1
1
1
1
1
1
1
1
1
1
1
1
1
1
1
1
0.999999
1
1
1
1
1
1
1
0.999999
1
1
1
1
1
1
1
0.999999
1
1
1
1
1
1
1
1
1
1
1
1
1
1
1
1
1
1
0.999997
0.999973
0.999997
1
0.999996
1
1
1
1
1
1
1
1
1
1
1
1
1
1
1
1
0.999573
1
1
1
1
1
1
1
1
1
1
1
1
1
1
1
1
1
1
1
1
1
1
1
0.999934
1
1
1
1
1
1
1
1
1
1
0.999997
0.999985
0.999999
1
0.999998
0.999998
1
1
1
1
1
1
1
1
1
1
1
1
1
1
1
0.999964
1
1
1
1
1
1
1
0.999995
1
1
1
1
1
1
1
0.999997
1
1
1
1
1
1
1
0.999967
1
1
1
1
1
1
1
1
1
1
0.999997
0.999996
1
1
1
0.999997
1
1
1
1
1
1
1
1
1
1
1
1
1
1
1
1
1
1
1
1
1
1
1
1
1
1
1
1
1
1
1
1
1
1
1
1
1
1
1
1
1
1
1
1
1
1
1
1
1
1
0.999998
1
1
1
1
0.999997
1
1
1
1
1
1
1
1
1
1
1
1
1
1
1
1
1
1
1
1
1
1
1
0.999453
1
1
1
1
1
1
1
1
1
1
1
1
1
1
1
1
1
1
1
1
1
1
1
1
1
1
0.999999
1
1
0.999999
1
0.999999
1
1
1
1
1
1
1
1
1
1
1
1
1
1
1
0.989163
1
1
1
1
1
1
1
0.951687
1
1
1
1
1
1
1
0.958872
1
1
1
1
1
1
1
0.997042
1
1
1
1
1
1
1
1
1
1
0.999999
1
1
0.999998
1
1
1
1
0.999993
0.999079
0.999692
0.998109
0.999827
0.999999
1
1
1
0.999832
0.998295
0.995959
0.999024
0.999998
1
1
0.999996
0.999994
0.999404
0.995959
0.998641
0.999089
1
1
0.999991
0.999979
0.999843
0.999821
0.999799
1
1
0.999998
0.999927
1
0.999434
0.996078
0.999434
1
1
1
0.999995
0.999108
0.998763
0.996078
0.999621
1
1
0.999998
0.999891
0.999578
0.999777
0.998869
0.999974
1
1
1
0.999985
0.999761
0.999901
0.998633
0.999902
0.999781
1
1
0.999999
0.999679
0.998399
0.995959
0.999342
0.999999
1
1
0.999989
0.99999
0.999399
0.995958
0.998841
0.999986
1
0.999999
0.999987
0.999963
0.998709
0.999208
0.99981
1
1
0.999991
0.999927
1
0.999119
0.996078
0.999521
1
1
1
0.999953
0.999018
0.999072
0.996078
0.999811
1
1
0.999986
0.999589
0.999442
0.997351
0.998718
0.999998
1
1
1
0.999974
0.999879
0.999972
0.999494
0.999963
0.999965
1
1
0.999972
0.999222
0.99896
0.995958
0.999614
0.999988
1
1
0.99999
0.999978
0.999442
0.995958
0.999113
0.999985
1
0.999999
0.999989
0.99996
0.99831
0.997602
0.999833
1
1
0.999989
0.999935
1
0.999108
0.996079
0.999682
1
1
1
0.999912
0.999018
0.998776
0.996986
0.999959
1
1
0.99997
0.999377
0.999202
0.996971
0.99876
1
1
1
1
0.999925
0.999799
0.999968
0.999814
0.999992
1
1
1
0.999935
0.998926
0.999352
0.996061
0.999847
1
1
1
0.999995
0.999934
0.999518
0.995958
0.999334
1
1
1
0.999995
0.999966
0.998292
0.997479
0.999861
1
1
0.999992
0.999972
0.999999
0.999406
0.996782
0.999878
1
1
1
0.999833
0.999033
0.997051
0.998851
1
1
1
0.999967
0.999376
0.999213
0.996971
0.99893
1
1
1
1
0.999811
0.999677
0.999815
0.999817
0.999999
1
1
1
0.999965
0.998886
0.998112
0.998125
0.999978
0.999209
1
1
0.999999
0.999903
0.999626
0.995959
0.99946
0.99729
1
1
0.999999
0.999982
0.998371
0.998216
0.999887
1
1
0.999998
0.999997
0.999996
0.9999
0.999761
0.999983
1
1
0.999998
0.999555
0.999133
0.996971
0.999024
1
1
1
0.999978
0.999451
0.999483
0.996971
0.999319
1
1
1
1
0.999822
0.999699
0.999249
0.999762
1
0.99744
1
1
1
0.998851
0.997723
0.998512
1
0.946395
1
1
0.999997
0.999939
0.999717
0.995959
0.999363
0.927518
1
1
1
1
0.99913
0.999286
0.999945
0.971514
1
1
1
1
0.999382
0.999884
0.999998
1
1
1
0.999465
0.999304
0.996973
0.998702
1
1
1
1
0.999671
0.999814
0.99794
0.999442
1
1
1
0.999993
0.999999
1
1
1
1
1
0.999998
0.999938
0.999958
0.999999
1
1
1
1
1
0.999955
0.999232
0.999946
1
1
1
1
1
0.999934
0.999168
0.999905
1
1
1
1
1
0.999988
0.999969
0.999999
1
1
1
1
0.999997
0.999939
0.99998
1
1
1
1
1
1
1
1
1
1
1
1
1
0.999999
0.999993
0.999998
1
1
1
1
1
0.999992
0.999926
0.999974
1
1
1
1
1
0.999999
0.999933
0.999792
0.999991
1
1
1
1
1
0.999928
0.999271
0.999972
1
1
1
1
0.999996
0.99993
0.999968
1
1
1
1
1
0.999995
0.999939
0.999986
1
1
1
1
1
1
1
1
1
1
1
1
1
0.999999
0.999994
0.999998
1
1
1
1
1
0.999988
0.999926
0.999986
1
1
1
1
1
0.999993
0.999926
0.999994
0.999997
0.999998
1
1
1
0.999997
0.999926
0.999938
0.999986
0.999998
1
1
1
0.999989
0.999926
0.999966
1
1
1
1
1
0.999994
0.999963
0.999994
1
1
1
1
1
1
1
1
1
1
1
1
1
0.999999
0.999995
0.999998
1
1
1
1
1
0.999991
0.999943
0.999994
1
1
1
1
1
0.999988
0.999926
0.999985
0.999997
0.999997
1
1
1
0.99999
0.999926
0.999986
0.999986
0.999994
1
1
1
0.999989
0.999926
0.999973
1
1
1
1
1
0.999997
0.999994
0.999999
1
1
1
1
1
1
1
1
1
1
1
1
1
0.999999
0.999997
0.999999
1
1
1
1
1
0.999997
0.999988
0.999998
1
1
1
1
1
0.999992
0.999926
0.999977
0.999993
0.999997
1
1
1
0.999992
0.999926
0.999956
0.999978
0.999993
1
1
1
0.999996
0.999963
0.999988
1
1
1
1
1
1
1
1
1
1
1
1
1
1
1
1
1
1
1
1
1
0.999999
0.999999
1
1
1
1
1
1
0.999999
1
1
1
1
1
1
1
0.999999
0.999967
0.999983
0.999972
0.999994
1
1
1
0.999998
0.999956
0.999955
0.999961
0.999989
1
1
1
1
0.999998
0.999999
0.999999
1
1
1
1
1
1
1
1
1
1
1
1
1
1
1
1
1
1
1
1
1
1
1
1
1
1
1
1
1
1
1
1
1
1
1
1
1
1
1
1
1
1
1
1
1
1
1
1
1
1
1
1
1
1
1
1
1
1
1
1
1
1
1
1
1
1
1
1
1
1
1
1
1
1
1
1
1
1
1
1
1
1
1
1
1
1
1
1
1
1
1
1
1
1
1
1
1
1
1
1
1
1
1
1
1
1
1
1
1
1
1
1
1
1
1
1
1
1
1
1
1
1
1
1
1
1
1
1
1
1
1
1
1
1
1
1
1
1
1
1
1
1
1
1
1
1
1
1
1
1
1
1
1
1
1
1
1
1
1
1
1
1
1
1
1
1
1
1
1
1
1
1
1
1
1
1
1
1
1
1
1
1
1
1
1
1
1
1
1
1
1
1
1
1
1
1
1
1
1
1
1
1
1
1
1
1
1
1
1
1
1
1
1
1
1
1
1
1
1
1
1
1
1
1
1
1
1
1
1
1
1
1
1
1
1
1
1
1
1
1
1
1
1
1
1
1
1
1
1
1
1
1
1
1
1
1
1
1
1
1
1
1
1
1
1
1
1
1
1
1
1
1
1
1
1
1
1
1
1
1
1
1
1
1
1
1
1
1
1
1
1
1
1
1
1
1
1
1
1
1
1
1
1
1
0.999999
0.999999
0.999982
1
1
1
1
1
0.999999
0.999999
0.999998
1
1
1
1
1
0.999999
0.999999
0.999999
1
1
1
1
1
0.999999
0.999999
0.999999
1
1
1
1
1
0.999999
0.999999
0.999999
1
1
1
1
1
0.999999
0.999999
0.999998
1
1
1
1
1
0.999999
0.999999
0.999998
1
1
1
1
1
1
1
1
1
1
1
1
1
1
1
1
1
1
1
1
1
1
1
1
1
1
1
1
1
1
1
1
1
1
1
1
1
1
1
1
1
1
1
1
1
1
1
1
1
1
1
1
1
1
1
1
1
1
1
1
1
1
1
1
1
1
1
1
1
1
1
1
1
1
1
1
1
1
1
1
1
1
1
1
1
1
1
1
1
1
1
1
1
1
1
1
1
1
1
1
1
1
1
1
1
1
1
1
1
1
1
1
1
1
1
1
1
1
1
1
1
1
1
1
1
1
1
1
1
1
1
1
1
1
1
1
1
1
1
1
1
1
1
1
1
1
1
1
1
1
1
1
1
1
1
1
1
1
1
1
1
1
1
1
1
1
1
1
1
1
1
1
1
1
1
1
1
1
1
1
1
1
1
1
1
1
1
1
1
1
1
1
1
1
1
1
1
1
1
1
1
1
1
1
1
1
1
1
1
1
1
1
1
1
1
1
1
1
1
1
1
1
1
1
1
1
1
1
1
1
1
1
1
1
1
1
1
1
1
1
1
1
1
1
1
1
1
1
1
1
1
1
1
1
1
1
1
1
1
1
1
1
1
1
1
1
1
1
1
1
1
1
1
1
1
1
1
1
1
1
1
1
1
1
1
0.999999
0.999999
0.999999
1
1
1
1
1
0.999999
0.999999
0.999999
1
1
1
1
1
0.999999
0.999999
0.999999
1
1
1
1
1
0.999999
0.999999
0.999999
1
1
1
1
1
0.999999
0.999999
0.999999
1
1
1
1
1
0.999999
0.999999
0.999999
1
1
1
1
1
0.999999
0.999999
0.999999
1
1
1
1
1
1
1
1
1
1
1
1
1
1
1
1
1
1
1
1
1
1
1
1
1
1
1
1
1
1
1
1
1
1
1
1
1
1
1
1
1
1
1
1
1
1
1
1
1
1
1
1
1
1
1
1
1
1
1
1
1
1
1
1
1
1
1
1
1
1
1
1
1
1
1
1
1
1
1
1
1
1
1
1
1
1
1
1
1
1
1
1
1
1
1
1
1
1
1
1
1
1
1
1
1
1
1
1
1
1
1
1
1
1
1
1
1
1
1
1
1
1
1
1
1
1
1
1
1
1
1
1
1
1
1
1
1
1
1
1
1
1
1
1
1
1
1
1
1
1
1
1
1
1
1
1
1
1
1
1
1
1
1
1
1
1
1
1
1
1
1
1
1
1
1
1
1
1
1
1
1
1
1
1
1
1
1
1
1
1
1
1
1
1
1
1
1
1
1
1
1
1
1
1
1
1
1
1
1
1
1
1
1
1
1
1
1
1
1
1
1
1
1
1
1
1
1
1
1
1
1
1
1
1
1
1
1
1
1
1
1
1
1
1
1
1
1
1
1
1
1
1
1
1
1
1
1
1
1
1
1
1
1
1
1
1
1
1
1
1
1
1
1
1
1
1
1
1
1
1
1
1
1
1
1
0.999999
0.999999
0.999999
1
1
1
1
1
0.999999
0.999999
0.999999
1
1
1
1
1
0.999999
0.999999
0.999999
1
1
1
1
1
0.999999
0.999999
0.999999
0.999999
1
1
1
1
0.999999
0.999999
0.999998
0.999998
1
1
1
1
0.999999
0.999999
0.999998
0.999999
1
1
1
1
0.999999
0.999999
0.999998
1
1
1
1
1
1
1
1
1
1
1
1
1
1
1
1
1
1
1
1
1
1
1
1
1
1
1
1
1
1
1
1
1
1
1
1
1
1
1
1
1
1
1
1
1
1
1
1
1
1
1
1
1
1
1
1
1
1
1
1
1
1
1
1
1
1
1
1
1
1
1
1
1
1
1
1
1
1
1
1
1
1
1
1
1
1
1
1
1
1
1
1
1
1
1
1
1
1
1
1
1
1
1
1
1
1
1
1
1
1
1
1
1
1
1
1
1
1
1
1
1
1
1
1
1
1
1
1
1
1
1
1
1
1
1
1
1
1
1
1
1
1
1
1
1
1
1
1
1
1
1
1
1
1
1
1
1
1
1
1
1
1
1
1
1
1
1
1
1
1
1
1
1
1
1
1
1
1
1
1
1
1
1
1
1
1
1
1
1
1
1
1
1
1
1
1
1
1
1
1
1
1
1
1
1
1
1
1
1
1
1
1
1
1
1
1
1
1
1
1
1
1
1
1
1
1
1
1
1
1
1
1
1
1
1
1
1
1
1
1
1
1
1
1
1
1
1
1
1
1
1
1
1
1
1
1
1
1
1
1
1
1
1
1
1
1
1
1
1
1
1
1
1
1
1
1
1
1
1
1
1
1
1
1
1
0.999999
0.999999
0.999998
1
1
1
1
1
0.999999
0.999999
0.999998
1
1
1
1
1
0.999999
0.999999
0.999998
1
1
1
1
1
0.999999
0.999999
0.999998
1
1
1
1
1
0.999999
0.999999
0.999998
1
1
1
1
1
0.999999
0.999999
0.999998
1
1
1
1
1
0.999999
0.999999
0.999998
1
1
1
1
1
1
1
1
1
1
1
1
1
1
1
1
1
1
1
1
1
1
1
1
1
1
1
1
1
1
1
1
1
1
1
1
1
1
1
1
1
1
1
1
1
1
1
1
1
1
1
1
1
1
1
1
1
1
1
1
1
1
1
1
1
1
1
1
1
1
1
1
1
1
1
1
1
1
1
1
1
1
1
1
1
1
1
1
1
1
1
1
1
1
1
1
1
1
1
1
1
1
1
1
1
1
1
1
1
1
1
1
1
1
1
1
1
1
1
1
1
1
1
1
1
1
1
1
1
1
1
1
1
1
1
1
1
1
1
1
1
1
1
1
1
1
1
1
1
1
1
1
1
1
1
1
1
1
1
1
1
1
1
1
1
1
1
1
1
1
1
1
1
1
1
1
1
1
1
1
1
1
1
1
1
1
1
1
1
1
1
1
1
1
1
1
1
1
1
1
1
1
1
1
1
1
1
1
1
1
1
1
1
1
1
1
1
1
1
1
1
1
1
1
1
1
1
1
1
1
0.997627
0.998344
0.999939
0.999351
1
1
1
1
0.98321
0.982448
0.997577
0.997791
1
1
1
1
0.985331
0.99169
0.999858
0.99567
1
1
1
0.999217
0.985742
0.99466
1
0.996123
1
1
1
1
0.985676
0.993561
0.999988
0.995498
1
1
1
1
0.983738
0.986661
0.999154
0.996183
1
1
1
1
0.984855
0.977327
0.995633
0.99979
1
0.999338
0.999377
0.994075
0.937358
0.911225
0.93917
0.950816
0.968048
0.999999
0.999059
0.991063
0.909578
0.91234
0.951926
0.941497
0.965334
0.999999
1
0.964531
0.885114
0.944409
0.944344
0.933692
0.965015
0.999999
0.999999
0.94131
0.884961
0.957021
0.942296
0.934035
0.966266
0.999999
1
0.950472
0.885114
0.952678
0.944303
0.931267
0.966225
0.999999
0.999999
0.992088
0.901788
0.918162
0.949905
0.933854
0.964854
0.999999
0.999629
0.996075
0.930393
0.893063
0.956019
0.948464
0.968138
1
1
1
1
1
1
1
1
1
1
1
1
1
1
1
1
1
1
1
1
1
1
1
1
1
1
1
1
1
1
1
1
1
1
1
1
1
1
1
1
1
1
1
1
1
1
1
1
1
1
1
1
1
1
1
1
1
1
1
1
1
1
1
1
1
1
1
1
1
1
1
1
1
1
1
1
1
1
1
1
1
1
1
1
1
1
1
1
1
1
1
1
1
1
1
1
1
1
1
1
1
1
1
1
1
1
1
1
1
1
1
1
1
1
1
1
1
1
1
1
1
1
1
1
1
1
1
1
1
1
1
1
1
1
1
1
1
1
1
1
1
1
1
1
1
1
1
1
1
1
1
1
1
1
1
1
1
1
1
1
1
1
1
1
1
1
1
1
1
1
1
1
1
1
1
1
1
1
1
1
1
1
1
1
1
1
1
1
1
1
1
1
1
1
1
1
1
1
1
1
1
1
1
1
1
1
1
1
1
1
1
1
1
1
1
1
1
1
1
1
1
1
1
1
1
1
1
1
1
1
1
1
1
1
1
1
1
1
1
1
1
1
1
1
1
1
1
1
1
1
1
1
1
1
1
1
1
1
1
1
1
1
1
1
1
1
1
1
1
1
1
1
1
1
1
1
1
1
1
1
0.998643
0.999999
0.993626
0.965136
0.941904
0.954666
0.960989
0.975256
0.995093
0.995839
0.990742
0.975926
0.956247
0.952887
0.961245
0.975811
0.998923
0.991373
0.983149
0.97816
0.964315
0.953005
0.961748
0.976537
0.999004
0.985748
0.980028
0.979644
0.965058
0.95377
0.962373
0.977153
0.998711
0.983913
0.980031
0.979161
0.963607
0.95489
0.962806
0.977457
0.998359
0.983631
0.980272
0.977355
0.961842
0.95604
0.962575
0.977279
0.999091
0.984618
0.978656
0.975706
0.962838
0.957004
0.962473
0.976875
1
1
1
1
1
1
1
1
1
1
1
1
1
1
1
1
1
1
1
1
1
1
1
1
1
1
1
1
1
1
1
1
1
1
1
1
1
1
1
1
1
1
1
1
1
1
1
1
1
1
1
1
1
1
1
1
1
1
1
1
1
1
1
1
1
1
1
1
1
1
1
1
1
1
1
1
1
1
1
1
1
1
1
1
1
1
1
1
1
1
1
1
1
1
1
1
1
1
1
1
1
1
1
1
1
1
1
1
1
1
1
1
1
1
1
1
1
1
1
1
1
1
1
1
1
1
1
1
1
1
1
1
1
1
1
1
1
1
1
1
1
1
1
1
1
1
1
1
1
1
1
1
1
1
1
1
1
1
1
1
1
1
1
1
1
1
1
1
1
1
1
1
1
1
1
1
1
1
1
1
1
1
1
1
1
1
1
1
1
1
1
1
1
1
1
1
1
1
1
1
1
1
1
1
1
1
1
1
1
1
1
1
1
1
1
1
1
1
1
1
1
1
1
1
1
1
1
1
1
1
1
1
1
1
1
1
1
1
1
1
1
1
1
1
1
1
1
1
1
1
1
1
1
1
1
1
1
1
1
0.997618
0.998969
1
1
1
1
1
1
0.992141
0.993765
0.999669
1
1
1
1
1
0.995011
0.996238
0.999876
1
1
0.99942
0.98504
0.976157
0.973271
0.961766
0.95601
0.961564
0.975952
0.998077
0.984387
0.979477
0.972024
0.957576
0.954198
0.960385
0.974839
0.995855
0.991447
0.987884
0.969991
0.944586
0.945942
0.95948
0.973377
0.99897
0.997268
0.992926
0.956827
0.93473
0.945936
0.959402
0.972194
0.999994
0.998394
0.995729
0.94236
0.920142
0.949279
0.957143
0.971171
0.999999
0.997861
0.997536
0.930651
0.912387
0.95471
0.954403
0.969536
0.999895
0.998615
0.995852
0.933834
0.910774
0.950206
0.953247
0.969287
1
1
1
1
1
1
1
1
1
1
1
1
1
1
1
1
1
1
1
1
1
1
1
1
1
1
1
1
1
1
1
1
1
1
1
1
1
1
1
1
1
1
1
1
1
1
1
1
1
1
1
1
1
1
1
1
1
1
1
1
1
1
1
1
1
1
1
1
1
1
1
1
1
1
1
1
1
1
1
1
1
1
1
1
1
1
1
1
1
1
1
1
1
1
1
1
1
1
1
1
1
1
1
1
1
1
1
1
1
1
1
1
1
1
1
1
1
1
1
1
1
1
1
1
1
1
1
1
1
1
1
1
1
1
1
1
1
1
1
1
1
1
1
1
1
1
1
1
1
1
1
1
1
1
1
1
1
1
1
1
1
1
1
1
1
1
1
1
1
1
1
1
1
1
1
1
1
1
1
1
1
1
1
1
1
1
1
1
1
1
1
1
1
1
1
1
1
1
1
1
1
1
1
1
1
1
1
1
1
1
1
1
1
1
1
1
1
1
1
1
1
1
1
1
1
1
1
1
1
1
0.98246
0.976365
0.9962
0.999072
1
1
1
1
0.983857
0.985859
0.999216
0.999067
1
1
1
1
0.987359
0.989472
0.999481
0.999708
1
1
1
1
0.99067
0.992334
0.999598
0.999829
1
1
1
1
0.997108
0.997484
0.999968
1
1
1
1
1
0.996941
0.997578
0.999996
1
1
1
1
1
1
1
1
1
1
0.999999
0.999975
0.994867
0.915526
0.904384
0.960025
0.942612
0.967107
0.999999
0.999974
0.994813
0.909058
0.914519
0.960172
0.942473
0.968587
0.999999
0.999319
0.998551
0.918595
0.911901
0.959252
0.947839
0.969874
0.999999
0.998958
0.997209
0.931899
0.91042
0.955407
0.951431
0.970345
0.999999
0.999739
0.995361
0.952173
0.90955
0.95438
0.957685
0.972084
0.999999
0.999914
0.99601
0.947369
0.911175
0.959364
0.959991
0.973879
0.99974
0.999999
0.994146
0.96392
0.925926
0.954866
0.96052
0.974948
0.845011
0.419331
0.236346
0.25472
0.29008
0.602452
0.974531
0.420787
0.211055
0.210381
0.209516
0.227592
0.273972
0.78041
0.242118
0.272642
0.387917
0.422262
0.205586
0.265884
0.634109
0.238764
0.281494
0.469896
0.292683
0.204607
0.284968
0.696502
0.372467
0.206262
0.205136
0.203845
0.208235
0.26059
0.795329
0.786867
0.443145
0.277734
0.246249
0.300373
0.572293
0.960497
0.999989
0.951694
0.851393
0.8123
0.865528
0.979211
1
0.843261
0.416092
0.237653
0.249787
0.299155
0.592149
0.968682
0.405692
0.210292
0.209514
0.207805
0.205517
0.249311
0.765993
0.218541
0.209129
0.208697
0.20555
0.204499
0.205537
0.600635
0.216484
0.206611
0.205551
0.204403
0.20333
0.204607
0.627277
0.346984
0.205495
0.204274
0.203005
0.202063
0.233154
0.775329
0.78742
0.453947
0.317244
0.270249
0.307927
0.588372
0.965142
0.999909
0.959343
0.877191
0.833167
0.875866
0.982642
0.99998
0.793643
0.624651
0.644133
0.681836
0.655746
0.763074
0.952491
0.58731
0.282257
0.398293
0.39915
0.275733
0.495657
0.910457
0.561098
0.390173
0.372759
0.359716
0.203035
0.352768
0.870087
0.553329
0.376987
0.353846
0.260471
0.202077
0.267522
0.830781
0.55864
0.20417
0.202773
0.201751
0.200969
0.328657
0.895948
0.744042
0.476512
0.43123
0.418689
0.451934
0.68346
0.976198
0.994548
0.985063
0.973118
0.963393
0.976468
0.999762
0.99997
0.351681
0.419356
0.644354
0.669054
0.559332
0.398514
0.425599
0.454742
0.685535
0.726585
0.721561
0.649123
0.392308
0.480733
0.73689
0.736971
0.733274
0.726572
0.557743
0.427465
0.588927
0.736961
0.736889
0.732927
0.715663
0.457566
0.351755
0.566532
0.545235
0.582187
0.572011
0.585439
0.431385
0.288378
0.502805
0.482798
0.474515
0.459199
0.459919
0.468407
0.397103
0.425124
0.472437
0.519735
0.5984
0.612988
0.636347
0.555744
0.467991
0.350289
0.143444
0.143115
0.170312
0.107325
0.126348
0.28616
0.401727
0.380758
0.469402
0.510577
0.309962
0.094615
0.154085
0.569798
0.647153
0.665064
0.660675
0.476451
0.137421
0.146272
0.580385
0.692038
0.725513
0.725546
0.551905
0.172607
0.14512
0.530168
0.671911
0.693969
0.698601
0.629046
0.287681
0.184685
0.532702
0.557523
0.517875
0.530095
0.506489
0.402376
0.327949
0.498383
0.358904
0.296497
0.293993
0.262255
0.264351
0.351643
-9.2645e-08
0.0164596
0.0286768
0.0242847
0.0157623
0.000528343
-8.73941e-10
0.0133151
0.0620826
0.0690453
0.0477535
0.0529265
0.0275578
-2.99096e-07
0.0274181
0.0634787
0.0685475
0.0515211
0.0587389
0.0432758
0.000675241
0.0286517
0.0561436
0.0608706
0.0498292
0.0556256
0.0439953
0.00170403
0.0190554
0.0474364
0.0543841
0.0444076
0.0440342
0.0258609
-1.43941e-07
-1.89402e-07
0.0201393
0.0367252
0.0308313
0.01791
-2.74883e-07
-7.62384e-10
-1.11629e-09
-7.03192e-08
-9.11572e-07
-2.02346e-06
-7.18216e-08
-6.323e-10
1.20531e-11
5.11777e-12
3.93467e-12
3.64199e-12
3.50548e-12
3.6371e-12
4.09773e-12
7.48937e-12
3.93467e-12
3.64199e-12
3.50548e-12
3.45044e-12
3.49596e-12
3.6371e-12
5.74635e-12
3.76853e-12
3.52337e-12
3.45044e-12
3.44615e-12
3.45044e-12
3.49596e-12
3.70076e-12
4.04467e-12
3.72327e-12
3.52336e-12
3.45044e-12
3.49596e-12
3.62561e-12
3.93838e-12
4.60316e-12
4.04467e-12
3.72327e-12
3.52336e-12
3.62561e-12
3.93838e-12
5.48943e-12
6.66482e-12
4.60316e-12
4.12533e-12
3.75448e-12
3.979e-12
5.38617e-12
1.06053e-11
1.08302e-11
-1.61948e-14
1.31377e-11
1.87734e-11
5.50991e-12
1.06216e-11
1.97132e-11
7.87457e-11
6.39752e-11
3.95535e-11
2.43096e-11
3.28984e-11
8.41908e-11
1.62679e-10
4.16814e-11
2.35988e-11
1.18543e-11
6.74365e-12
1.18658e-11
2.83744e-11
1.01876e-10
4.31398e-11
2.02733e-11
8.47457e-12
3.44615e-12
6.37349e-12
1.58274e-11
5.61275e-11
4.31573e-11
2.37161e-11
1.54083e-11
8.08257e-12
1.12937e-11
2.20343e-11
6.97489e-11
8.3753e-11
4.09577e-11
2.95677e-11
1.75843e-11
2.59872e-11
4.93175e-11
1.50406e-10
3.23918e-10
7.82818e-11
4.75975e-11
2.95282e-11
5.11359e-11
1.37071e-10
3.13878e-10
7.61628e-10
4.82507e-10
1.50129e-10
1.1928e-10
1.52417e-10
3.42273e-10
4.40436e-10
6.5795e-11
7.17713e-11
4.77291e-11
2.9499e-11
4.01446e-11
6.88425e-11
1.1115e-10
3.57977e-11
2.48376e-11
1.36214e-11
7.65444e-12
1.48218e-11
3.62711e-11
7.48957e-11
3.81379e-11
1.81022e-11
7.00975e-12
2.43881e-12
6.32152e-12
1.84523e-11
4.3713e-11
3.44408e-11
2.00394e-11
1.22145e-11
6.19571e-12
1.13916e-11
2.57601e-11
5.35067e-11
5.21005e-11
3.50216e-11
2.4381e-11
1.36873e-11
2.71027e-11
5.56892e-11
1.04804e-10
7.96984e-11
5.74414e-11
4.21534e-11
2.20164e-11
5.21115e-11
9.88402e-11
1.94625e-10
1.38518e-10
9.40442e-11
7.23052e-11
3.13761e-11
9.8128e-11
1.54019e-10
2.83347e-10
8.74952e-12
3.57319e-12
1.45997e-12
1.50544e-12
4.2558e-12
1.38141e-11
3.84741e-11
1.15577e-11
4.36302e-12
1.39393e-12
6.4268e-13
2.31972e-12
8.67255e-12
2.31658e-11
1.05448e-11
4.44672e-12
1.507e-12
4.12174e-13
1.27008e-12
5.14652e-12
1.45454e-11
1.07984e-11
6.5294e-12
3.51859e-12
1.52781e-12
2.89949e-12
8.30353e-12
1.89814e-11
1.6003e-11
1.37321e-11
8.28899e-12
4.09124e-12
7.91455e-12
1.97197e-11
3.7641e-11
2.97422e-11
2.67736e-11
1.53638e-11
7.68135e-12
1.53811e-11
3.70909e-11
7.31717e-11
3.81576e-11
4.24362e-11
2.26685e-11
1.04817e-11
2.17269e-11
4.79431e-11
1.13978e-10
1
1
0.999999
1
0.999998
0.999997
0.999993
1
1.00001
1
1
1
1
1
1
1
0.997587
1
1
1
1
1
1
1
0.999983
1
1
1
1
1
1
1
1.00001
1
1
1
1
1
1
1
1
1
1
1
1
1
1
1
1
1
1
1
1
1
1
1
0.999975
0.999999
0.999999
0.999999
0.999999
1
1
1
0.999887
0.999996
1
1
1
1
1
1
0.997805
0.999995
1
1
1
1
1
1
0.999342
0.999996
1
1
1
1
1
1
0.999917
0.999997
1
1
1
1
1
1
0.999983
0.999999
1
1
1
1
1
1
0.999999
1
1
1
1
1
1
1
0.999939
0.999995
0.999999
0.999999
0.999999
1
0.992066
0.974895
0.999906
0.999995
0.999999
1
1
1
0.996616
0.936394
0.999881
0.999994
0.999999
1
1
1
0.993984
0.899268
0.99986
0.999993
0.999999
1
1
1
0.989842
0.885448
0.999907
0.999995
1
1
1
1
0.991899
0.909086
0.999969
0.999998
1
1
1
1
0.989098
0.943624
0.999998
1
1
1
1
1
0.978973
0.952135
0.760044
0.996685
0.982296
0.942278
0.912108
0.843662
0.382629
-0.000297153
0.689221
0.971826
0.983717
0.950312
0.914053
0.837729
0.388192
4.71449e-06
0.752702
0.977492
0.98616
0.95396
0.908714
0.832039
0.43155
0.00376779
0.740406
0.96551
0.981179
0.948369
0.898522
0.814793
0.407652
0.00164543
0.650114
0.904631
0.966929
0.93013
0.874538
0.793087
0.394751
0.00138322
0.591731
0.910542
0.944841
0.899784
0.847672
0.762205
0.341404
-0.000267581
0.709629
0.951598
0.937532
0.871345
0.82381
0.748474
0.348782
-0.000286908
0.580108
0.527601
0.261291
-7.6893e-05
-1.09545e-06
-8.24238e-09
9.38629e-10
8.27829e-09
0.449534
0.562282
0.36508
0.0197899
-2.59637e-06
-1.75323e-08
-5.75774e-11
-5.61284e-09
0.395615
0.566717
0.377442
0.025313
-2.87827e-06
-3.26714e-08
-3.83886e-10
-5.48784e-08
0.364164
0.499312
0.316069
0.0125083
-1.42097e-06
-1.60741e-08
-3.53884e-10
-4.08546e-08
0.358082
0.382392
0.205166
3.6873e-05
-3.82668e-07
-4.36189e-09
3.78494e-11
-2.08348e-08
0.376172
0.313469
0.0957371
-1.64305e-05
-1.52091e-07
-9.25993e-10
1.60112e-10
8.06724e-10
0.345527
0.271729
0.0705902
-1.23431e-05
-1.44301e-07
-9.62881e-10
7.5073e-11
4.91749e-10
-8.84958e-11
1.75291e-11
2.76318e-11
4.32029e-11
4.37971e-11
6.62979e-11
4.02663e-10
3.70584e-09
-1.53556e-09
6.15584e-12
2.1932e-11
3.04138e-11
-3.7591e-10
2.30148e-10
1.46397e-10
1.12684e-09
-4.07753e-09
-4.14749e-12
1.42101e-11
2.5198e-11
-6.63661e-10
2.70726e-10
2.3402e-10
2.74095e-10
-3.62155e-09
-7.33267e-12
1.45266e-11
-1.2551e-10
-4.65078e-10
2.44521e-10
2.46455e-10
2.57466e-10
-2.77576e-10
1.17742e-11
2.94939e-11
1.37751e-10
2.01324e-10
2.36828e-10
2.41769e-10
2.54004e-10
1.05435e-11
3.06942e-11
4.2279e-11
-2.15022e-10
1.87982e-10
2.04057e-10
2.09742e-10
3.87233e-10
3.31877e-11
4.6501e-11
5.72761e-11
1.07101e-10
1.26047e-10
8.83505e-11
1.63742e-10
2.29701e-10
1.40491e-11
2.13232e-11
2.78565e-11
3.98942e-11
4.20318e-11
2.17593e-08
7.97171e-08
1.13801e-07
9.56522e-12
1.65282e-11
2.39722e-11
3.04897e-11
3.7548e-11
5.75892e-09
2.1976e-08
3.17916e-08
5.98357e-12
1.2029e-11
1.87352e-11
2.51092e-11
4.17087e-11
2.63752e-10
2.19597e-09
1.89899e-08
6.75757e-12
1.36869e-11
2.17412e-11
3.01449e-11
1.55092e-10
2.63986e-10
2.62412e-10
2.68647e-08
1.16355e-11
2.11889e-11
3.0139e-11
5.11515e-11
3.21408e-10
2.99749e-10
5.08245e-10
1.78214e-08
2.12143e-11
3.14044e-11
4.04232e-11
1.33686e-10
2.79639e-10
1.35765e-09
8.58752e-09
1.89823e-08
3.52269e-11
4.50191e-11
5.44162e-11
4.7108e-10
1.97422e-09
6.01397e-09
3.94448e-09
2.57141e-10
2.01604e-10
2.18092e-10
2.07675e-10
1.70213e-10
8.76936e-11
8.76451e-11
7.03649e-09
2.47261e-08
1.83508e-10
2.33402e-10
2.54764e-10
1.62893e-10
4.59207e-11
9.14012e-09
3.33722e-08
3.57201e-08
1.47926e-10
1.95066e-10
2.31133e-10
2.36122e-10
1.71742e-10
1.78609e-10
7.36454e-09
3.58351e-08
1.69965e-10
2.3485e-10
3.08196e-10
3.77264e-10
3.98404e-10
2.66089e-10
2.15837e-09
2.78855e-08
2.4681e-10
3.18891e-10
3.88266e-10
4.45423e-10
4.50854e-10
3.09567e-10
3.0021e-09
2.67216e-08
3.98654e-10
4.62342e-10
4.73709e-10
4.28527e-10
2.91595e-10
2.00689e-09
2.46064e-08
3.18465e-08
5.31066e-10
5.6684e-10
5.21828e-10
4.37046e-10
5.01977e-09
1.5847e-08
1.63123e-08
3.42443e-09
1.49316e-10
1.78224e-10
1.88736e-10
1.76365e-10
1.40168e-10
8.09174e-11
3.11567e-11
2.83402e-11
1.28424e-10
1.81477e-10
2.21671e-10
2.59878e-10
1.56924e-10
5.45695e-11
2.83206e-11
2.51719e-11
8.63578e-11
1.38661e-10
1.92806e-10
2.30943e-10
2.31257e-10
1.78167e-10
8.41524e-11
2.24538e-11
1.00777e-10
1.63475e-10
2.41945e-10
3.2806e-10
3.93847e-10
3.68267e-10
1.61622e-10
1.95883e-11
1.6321e-10
2.3842e-10
3.27025e-10
4.26134e-10
5.1735e-10
5.58853e-10
2.70403e-10
2.39468e-11
2.94495e-10
3.85253e-10
4.63806e-10
5.22855e-10
5.59191e-10
5.71577e-10
5.6887e-10
1.35606e-09
4.33728e-10
5.24511e-10
5.68366e-10
5.46308e-10
4.43857e-10
2.92781e-10
6.25453e-10
1.37012e-09
6.73295e-11
1.00645e-10
1.40001e-10
1.81715e-10
2.20095e-10
2.47843e-10
2.58255e-10
1.98683e-10
4.49401e-11
7.00567e-11
9.27225e-11
9.64074e-11
1.23429e-10
1.37689e-10
1.23634e-10
9.06697e-11
3.21169e-11
5.55937e-11
8.57386e-11
1.19069e-10
1.49599e-10
1.70472e-10
1.77178e-10
1.34057e-10
3.70576e-11
6.17751e-11
9.1673e-11
1.19725e-10
1.37041e-10
1.43348e-10
1.7012e-10
1.80933e-10
5.70003e-11
8.76704e-11
1.25076e-10
1.6149e-10
1.87068e-10
1.95519e-10
2.53141e-10
3.07045e-10
1.00975e-10
1.47897e-10
2.09936e-10
2.80623e-10
3.46723e-10
3.9109e-10
3.94769e-10
3.42251e-10
1.61384e-10
2.14568e-10
2.679e-10
3.01028e-10
2.9243e-10
2.34132e-10
1.31665e-10
5.97441e-11
1
1
1
1
1
1
1
1
0.999984
1
1
1
1
1
1
1
0.894912
1
1
1
1
1
1
1
0.711136
1.00002
1
1
1
1
1
1
0.726954
1.00003
1
1
1
1
1
1
0.939039
1
1
1
1
1
1
1
1
1
1
0.999999
0.999999
1
0.999999
1
0.999996
1
1
1
1
1
1
1
0.99991
0.999996
1
1
1
1
1
1
0.885183
0.999951
0.999998
1
1
1
1
1
0.695518
0.999869
0.999995
1
1
1
1
1
0.708228
0.999868
0.999995
1
1
1
1
1
0.93495
0.999962
0.999998
1
1
1
1
1
0.999941
0.999997
1
0.999999
0.999999
1
1
1
0.999982
0.999999
1
1
1
1
0.988727
0.950745
0.999789
0.999989
0.999999
1
1
1
0.995524
0.964687
0.990002
0.999972
0.999998
1
1
1
1
0.969502
0.949561
0.999932
0.999996
1
1
1
1
0.971454
0.939907
0.999922
0.999996
1
1
1
1
0.973073
0.991816
0.999972
0.999998
1
1
1
1
0.965466
0.999777
0.999987
0.999999
1
1
1
0.996164
0.982551
0.46796
0.697627
0.888933
0.837112
0.772964
0.735085
0.512048
0.0465553
0.496099
0.615696
0.852448
0.837685
0.788304
0.748982
0.554952
0.08149
0.548235
0.642287
0.881648
0.877482
0.817753
0.766526
0.62297
0.173009
0.528721
0.57504
0.866057
0.907341
0.847589
0.78484
0.658689
0.238929
0.506211
0.588747
0.898822
0.928686
0.869468
0.802627
0.672585
0.254938
0.489602
0.659903
0.930884
0.933397
0.882838
0.823118
0.629627
0.128055
0.47141
0.818458
0.983771
0.9551
0.915007
0.852884
0.428074
0.00236133
0.419211
0.182403
-6.39278e-05
-6.8913e-07
-6.97829e-09
-2.18385e-11
2.20441e-10
5.11147e-10
0.404898
0.204186
-3.07729e-05
-6.56449e-07
-5.39339e-09
2.84745e-11
6.9354e-10
1.94049e-09
0.374807
0.225436
0.0341452
-3.68913e-06
-2.72694e-08
-2.12327e-10
4.7789e-10
1.6193e-09
0.413689
0.257491
0.0690943
-9.97282e-06
-7.29942e-08
-6.67494e-10
1.21824e-10
7.36088e-10
0.436047
0.302546
0.105279
-1.97754e-05
-1.40675e-07
-1.48338e-09
1.30004e-10
4.9263e-10
0.475162
0.382337
0.132119
-2.93138e-05
-2.16689e-07
-2.76059e-09
1.22962e-09
2.42425e-09
0.481019
0.432399
0.142832
-2.977e-05
-3.29659e-07
-4.14148e-09
3.49529e-09
-1.86264e-09
1.18387e-11
2.91102e-11
-8.08983e-09
8.19765e-11
1.73221e-10
1.70814e-10
1.77775e-10
2.72321e-10
-3.78557e-09
1.07106e-11
-1.72062e-09
-2.08982e-10
7.05186e-11
1.38898e-10
1.84721e-10
1.39827e-09
-7.31089e-08
-9.29896e-11
-1.2016e-08
-5.10899e-09
1.86905e-11
1.53402e-10
1.86307e-10
9.35918e-10
-4.82038e-07
-4.03541e-10
-1.06008e-08
-2.05613e-08
-7.63656e-13
1.53845e-10
1.71717e-10
2.19643e-10
-4.54722e-07
-3.93511e-10
5.73945e-12
-4.24778e-08
-2.85869e-11
1.33935e-10
1.51634e-10
2.27156e-10
-5.79819e-08
-1.00712e-10
4.3769e-12
-3.31064e-08
-5.32473e-11
1.01e-10
1.5951e-10
4.80425e-10
-9.19346e-10
3.02497e-12
9.95702e-12
-3.91055e-09
1.62451e-10
8.91588e-11
1.03027e-09
1.14689e-08
2.63498e-11
3.07331e-11
5.98956e-11
9.27962e-11
2.74755e-10
1.88144e-10
7.79539e-09
2.56297e-08
1.63746e-11
2.38629e-11
3.10088e-11
4.14224e-11
5.58776e-11
6.52393e-10
4.52708e-08
7.54077e-08
6.86147e-12
1.63333e-11
2.38737e-11
3.35146e-11
4.06801e-11
5.3944e-11
2.94475e-08
7.53876e-08
5.87056e-12
1.13907e-11
1.62565e-11
3.04668e-11
2.97913e-11
6.87469e-11
1.72483e-09
5.06143e-08
5.48897e-12
9.07758e-12
1.06457e-11
1.77547e-11
2.27908e-11
3.04056e-11
3.98628e-09
2.18051e-08
5.11933e-12
7.12105e-12
9.06687e-12
1.06669e-11
1.28318e-11
1.18125e-09
8.28702e-08
1.68554e-07
7.12231e-12
9.06496e-12