/*--------------------------------*- C++ -*----------------------------------*\
| =========                 |                                                 |
| \\      /  F ield         | OpenFOAM: The Open Source CFD Toolbox           |
|  \\    /   O peration     | Version:  plus.master.MPPICInterFoam            |
|   \\  /    A nd           | Web:      www.OpenFOAM.com                      |
|    \\/     M anipulation  |                                                 |
\*---------------------------------------------------------------------------*/
FoamFile
{
    version     2.0;
    format      ascii;
    class       surfaceScalarField;
    location    "7";
    object      alphaPhi;
}
// * * * * * * * * * * * * * * * * * * * * * * * * * * * * * * * * * * * * * //

dimensions      [0 3 -1 0 0 0 0];

internalField   nonuniform List<scalar> 
34319
(
-2.89866e-07
-2.37562e-07
6.58209e-06
2.92287e-07
2.57881e-07
-1.56783e-07
-3.68042e-07
6.78563e-06
3.93197e-07
-1.32519e-08
-2.09251e-07
6.15707e-06
4.91385e-07
9.04328e-08
-1.88544e-07
5.947e-06
4.68386e-07
2.20774e-07
-2.52196e-07
6.24243e-06
4.14385e-07
2.94362e-07
-2.61371e-07
6.58522e-06
2.9168e-07
-1.87483e-07
6.1253e-06
2.80285e-07
1.95475e-07
-4.01516e-07
-1.19706e-07
6.81105e-06
4.03412e-07
-1.13624e-07
-1.08894e-07
6.33908e-06
-2.80464e-08
-1.48107e-07
3.92754e-06
5.59672e-08
-1.44154e-07
4.05011e-06
2.48573e-07
-1.49833e-07
4.31748e-06
4.35226e-07
-1.35186e-07
5.97193e-06
-9.97544e-08
6.56659e-06
3.8059e-07
-2.61037e-07
1.08143e-08
6.77929e-06
4.55375e-07
-1.23805e-07
6.76281e-09
4.02246e-06
-1.75669e-08
1.30245e-09
4.3052e-06
3.96213e-08
4.41721e-09
4.39805e-06
3.1459e-07
-3.76243e-09
5.41168e-06
4.45282e-07
-2.98619e-10
5.59279e-06
1.06687e-08
6.53063e-06
4.33664e-07
-2.34134e-07
1.36957e-07
6.65e-06
4.43134e-07
-1.33531e-07
1.14278e-07
3.86837e-06
-1.72487e-08
1.25633e-07
4.2645e-06
3.46248e-08
1.42339e-07
4.38111e-06
3.37699e-07
1.83124e-07
6.0835e-06
4.16983e-07
1.46406e-07
5.59649e-06
1.15135e-07
6.41915e-06
4.19059e-07
-3.92905e-07
2.44139e-07
6.59937e-06
3.69271e-07
-1.57299e-07
3.73455e-07
6.90153e-06
-2.44237e-08
2.63095e-07
4.03153e-06
4.4952e-08
1.63995e-07
3.86523e-06
2.51602e-07
2.44069e-07
4.59953e-06
4.00831e-07
2.65639e-07
6.13883e-06
1.93136e-07
6.39922e-06
3.44433e-07
-2.5032e-07
2.57827e-07
6.31822e-06
2.48288e-07
-1.54609e-07
3.58757e-07
6.53699e-06
-1.56795e-08
4.31337e-07
6.57409e-06
8.11998e-08
4.08938e-07
6.27513e-06
1.89281e-07
3.54624e-07
6.33865e-06
2.48388e-07
2.65556e-07
6.28868e-06
1.9209e-07
5.89255e-06
2.35957e-07
-1.46952e-07
5.65094e-06
1.50041e-07
2.29511e-07
-9.39803e-08
6.10546e-06
2.9346e-07
-6.9741e-09
6.39346e-06
3.36348e-07
7.35124e-08
6.41468e-06
3.26811e-07
1.38657e-07
6.22632e-06
2.87997e-07
1.6307e-07
5.80778e-06
2.23316e-07
5.26569e-06
1.59275e-07
1.65522e-07
-2.43443e-07
-1.66805e-07
6.63419e-06
2.12818e-07
1.6945e-07
-1.66047e-07
-3.11279e-07
6.95131e-06
2.81143e-07
-2.61603e-08
-2.77862e-07
6.9512e-06
3.8724e-07
9.27301e-08
-2.62494e-07
6.78661e-06
3.83927e-07
1.71687e-07
-1.88499e-07
6.81212e-06
2.94076e-07
1.98792e-07
-1.87708e-07
6.74274e-06
1.88228e-07
-1.19362e-07
6.16188e-06
1.72349e-07
1.09237e-07
-3.92594e-07
-8.76573e-08
6.90472e-06
3.17377e-07
-2.07009e-07
-1.23133e-07
7.59158e-06
-3.55422e-08
-6.19363e-08
4.96419e-06
1.08551e-07
-3.76146e-08
5.06516e-06
2.44842e-07
-6.49651e-08
5.24015e-06
3.38263e-07
-9.54191e-08
6.59105e-06
-6.35772e-08
6.61755e-06
2.56343e-07
-3.37708e-07
2.12824e-08
7.21604e-06
3.60047e-07
-7.8049e-08
1.67276e-08
5.74177e-06
1.50251e-08
2.39753e-08
4.16003e-06
1.04036e-07
3.17318e-08
4.23296e-06
3.62382e-07
5.91045e-08
6.17469e-06
3.66595e-07
2.91985e-08
6.59886e-06
2.34855e-08
6.73591e-06
3.06331e-07
-3.07039e-07
1.19932e-07
7.10603e-06
3.39098e-07
-8.58762e-08
1.52807e-07
5.37039e-06
1.9809e-08
9.54108e-08
4.07937e-06
1.0918e-07
7.73873e-08
4.22575e-06
3.49017e-07
1.50106e-07
6.4313e-06
3.31829e-07
1.46017e-07
6.63303e-06
1.01817e-07
6.66548e-06
2.88295e-07
-3.22828e-07
1.74816e-07
6.66315e-06
2.57115e-07
-2.14697e-07
3.0385e-07
7.31207e-06
-3.46769e-08
3.07109e-07
5.61872e-06
8.36795e-08
2.4289e-07
4.60238e-06
2.24434e-07
1.91455e-07
5.39797e-06
2.82982e-07
1.99592e-07
6.57131e-06
1.37468e-07
6.47082e-06
2.121e-07
-1.80913e-07
1.6494e-07
6.39165e-06
1.55357e-07
-1.39858e-07
2.45199e-07
6.57543e-06
-3.09982e-08
3.22963e-07
7.06083e-06
6.86275e-08
3.18048e-07
6.90367e-06
1.13896e-07
2.38954e-07
6.6173e-06
1.39721e-07
1.66657e-07
6.4424e-06
1.11454e-07
5.93984e-06
1.19665e-07
-8.65689e-08
5.70374e-06
6.96637e-08
1.29004e-07
-6.43327e-08
6.1562e-06
1.76791e-07
-9.9471e-09
6.44676e-06
2.15177e-07
4.54618e-08
6.48438e-06
2.07123e-07
7.2831e-08
6.2762e-06
1.61865e-07
7.61852e-08
5.85744e-06
1.13671e-07
5.31007e-06
6.75474e-08
7.56205e-08
-3.6687e-08
2.00542e-08
6.70718e-06
-7.92672e-09
-4.23914e-08
-5.12827e-08
-3.32334e-08
7.13595e-06
-1.27609e-08
-2.27922e-08
-7.29649e-08
7.53841e-06
1.83586e-08
-3.86328e-09
-2.94495e-08
7.54795e-06
-9.66829e-10
-2.57124e-08
2.03149e-08
7.30737e-06
-4.26591e-08
-4.83073e-08
3.02757e-08
6.87806e-06
-6.62982e-08
4.24539e-08
6.20259e-06
-5.3994e-08
-7.78412e-08
-1.06696e-07
1.77817e-08
7.04389e-06
2.95771e-08
-1.20595e-07
-6.48357e-09
7.72382e-06
-1.1652e-08
1.70691e-08
7.75494e-06
3.50531e-08
7.85585e-08
7.20166e-06
3.15698e-09
6.09475e-08
6.31357e-06
-1.04136e-08
7.85725e-09
7.16226e-06
2.17162e-08
6.67768e-06
-4.85128e-08
-1.16743e-07
2.44068e-08
7.45812e-06
3.46914e-08
-3.77477e-08
3.28592e-08
7.74874e-06
2.27187e-08
3.91857e-08
4.06955e-06
8.48411e-08
2.05175e-08
4.27904e-06
8.08851e-08
5.72555e-08
5.83473e-06
2.9262e-08
3.01811e-08
7.3084e-06
2.21557e-08
6.91808e-06
-3.70774e-08
-7.59209e-08
8.65987e-09
7.39675e-06
2.2669e-09
-2.27357e-08
4.57389e-08
7.37639e-06
9.35704e-09
3.13244e-08
4.04767e-06
1.39323e-07
-4.22013e-09
4.95037e-06
6.33102e-08
-3.79821e-09
5.68633e-06
6.24199e-09
3.45319e-08
7.23691e-06
1.37115e-08
6.87084e-06
-5.74924e-08
-4.06701e-08
-1.98438e-08
6.8515e-06
-3.31872e-08
-8.71087e-08
3.03153e-08
7.45548e-06
-4.35767e-08
8.67874e-08
7.6781e-06
1.91254e-08
6.32263e-08
7.35139e-06
-3.2916e-08
-9.20445e-09
5.87892e-06
-6.07967e-08
-2.19241e-08
6.92107e-06
-2.51051e-08
6.54652e-06
-9.62023e-08
2.19782e-08
-5.79215e-08
6.49098e-06
-7.38372e-08
-1.44287e-08
-4.04533e-08
6.72247e-06
-2.87874e-08
-1.52729e-08
7.20781e-06
-3.58996e-08
-2.74691e-08
7.19359e-06
-7.75844e-08
-6.55729e-08
6.89376e-06
-1.05822e-07
-8.07124e-08
6.6029e-06
-7.26934e-08
5.99504e-06
-1.1365e-07
5.65412e-08
5.75599e-06
-9.50899e-08
-7.16942e-08
2.1161e-08
6.2399e-06
-8.62311e-08
-4.03097e-09
6.54184e-06
-8.53917e-08
-3.10693e-08
6.58719e-06
-9.68251e-08
-6.4614e-08
6.36026e-06
-1.15975e-07
-8.93381e-08
5.91589e-06
-1.14578e-07
5.33961e-06
-9.47536e-08
-9.72648e-08
2.66591e-07
3.09773e-07
6.77926e-06
-3.16281e-07
-3.36703e-07
1.36315e-07
3.8782e-07
7.23053e-06
-4.46204e-07
-2.06153e-08
3.97236e-07
7.46112e-06
-5.08115e-07
-1.83293e-07
4.14267e-07
7.72675e-06
-5.40093e-07
-3.257e-07
3.93344e-07
7.45584e-06
-5.09821e-07
-3.7715e-07
3.56673e-07
6.94481e-06
-4.15875e-07
2.65785e-07
6.2103e-06
-3.30538e-07
-3.20494e-07
3.17531e-07
1.99253e-07
7.15187e-06
-4.00665e-07
1.11337e-07
2.18682e-07
8.01781e-06
-1.81328e-08
1.70312e-07
8.42493e-06
-1.80766e-07
1.91567e-07
7.52141e-06
-3.89209e-07
1.82171e-07
6.47231e-06
-4.98787e-07
1.99673e-07
7.28667e-06
1.58845e-07
6.73425e-06
-4.48281e-07
3.56733e-07
3.26133e-08
7.73248e-06
-4.64225e-07
1.01359e-07
7.36958e-08
8.31138e-06
2.85225e-08
7.8637e-08
6.72079e-06
-6.27484e-09
9.78829e-08
5.25753e-06
-3.34307e-07
5.82999e-08
4.51052e-06
-5.40902e-07
4.94314e-08
7.55207e-06
2.92606e-08
7.02046e-06
-5.13749e-07
4.14125e-07
-1.59948e-07
7.68229e-06
-5.073e-07
1.75273e-07
-1.12557e-07
7.99832e-06
2.32826e-08
-3.56618e-08
4.33921e-06
-2.98255e-08
-6.00248e-08
6.72635e-06
-3.7258e-07
-1.0065e-07
3.33568e-06
-5.84311e-07
-1.47056e-07
7.47954e-06
-1.23152e-07
6.98469e-06
-5.45796e-07
4.1082e-07
-3.21573e-07
7.01071e-06
-4.91164e-07
1.80715e-07
-3.96186e-07
6.41345e-06
-7.76134e-08
-3.82983e-07
8.06669e-06
-2.34951e-07
-3.68279e-07
7.93217e-06
-4.39878e-07
-3.40436e-07
5.92702e-06
-5.75823e-07
-3.49759e-07
7.01232e-06
-2.54432e-07
6.61524e-06
-5.13459e-07
3.54816e-07
-3.73305e-07
6.57988e-06
-4.08342e-07
1.95799e-07
-5.01695e-07
6.89178e-06
-2.74878e-08
-5.60691e-07
6.90547e-06
-2.26161e-07
-5.66796e-07
7.1991e-06
-3.89896e-07
-5.35827e-07
7.02005e-06
-4.54843e-07
-4.41035e-07
6.68189e-06
-3.18689e-07
6.01697e-06
-4.12506e-07
2.63837e-07
5.75544e-06
-3.1362e-07
-3.23103e-07
1.51836e-07
6.30021e-06
-4.49641e-07
7.91125e-09
6.64408e-06
-5.18965e-07
-1.38057e-07
6.70004e-06
-5.33751e-07
-2.5181e-07
6.43756e-06
-4.99458e-07
-3.01426e-07
5.93943e-06
-4.14921e-07
5.31043e-06
-2.85054e-07
-3.05936e-07
6.12487e-07
5.87252e-07
6.67819e-06
-5.94313e-07
-5.86616e-07
3.49018e-07
7.862e-07
7.04992e-06
-9.0208e-07
-1.0568e-08
8.27618e-07
6.5542e-06
-1.03955e-06
-3.48188e-07
7.82488e-07
7.38614e-06
-1.06502e-06
-6.1209e-07
6.77008e-07
6.87987e-06
-9.75943e-07
-6.73793e-07
6.73686e-07
6.74907e-06
-7.4906e-07
4.64886e-07
6.0875e-06
-5.14622e-07
-5.01077e-07
7.12834e-07
3.40746e-07
7.00626e-06
-8.33474e-07
3.13335e-07
2.79284e-07
4.30759e-06
-7.39497e-08
1.66867e-07
6.30539e-06
-4.34682e-07
1.40188e-07
5.84475e-06
-7.20434e-07
1.73842e-07
6.27322e-06
-9.5788e-07
3.67147e-07
6.66843e-06
2.84936e-07
6.6865e-06
-7.70027e-07
6.1638e-07
2.04967e-08
5.75382e-06
-9.54437e-07
2.31958e-07
2.74686e-08
8.45906e-06
-4.13922e-08
-1.92789e-09
8.25723e-06
-1.75001e-07
6.16755e-08
6.75363e-06
-6.67121e-07
1.27353e-08
2.66433e-06
-1.0759e-06
3.45363e-08
7.43202e-06
1.9473e-08
6.88948e-06
-9.20718e-07
6.17118e-07
-3.21124e-07
5.85982e-06
-9.57378e-07
2.19975e-07
-2.01535e-07
8.13646e-06
-1.67265e-08
-1.12311e-07
7.12558e-06
-1.49647e-07
-1.03422e-07
6.65077e-06
-6.92572e-07
-9.06897e-08
2.1767e-06
-1.12484e-06
-3.20883e-07
7.45069e-06
-2.5912e-07
6.89779e-06
-9.51029e-07
6.55894e-07
-5.79644e-07
6.77572e-06
-8.87317e-07
2.9326e-07
-6.96408e-07
3.03406e-06
-3.14506e-08
-6.31236e-07
3.74869e-06
-4.13354e-07
-6.41579e-07
4.3817e-06
-6.85439e-07
-5.69086e-07
5.40961e-06
-9.90909e-07
-6.56117e-07
6.19602e-06
-4.53823e-07
6.56355e-06
-8.28331e-07
6.69282e-07
-6.06763e-07
6.43747e-06
-6.65864e-07
3.97425e-07
-9.39755e-07
6.66726e-06
6.99575e-09
-1.08724e-06
5.46207e-06
-3.43278e-07
-1.05988e-06
6.01718e-06
-6.43953e-07
-1.00346e-06
6.20433e-06
-7.52707e-07
-7.77496e-07
6.37008e-06
-4.9065e-07
5.9008e-06
-5.99668e-07
4.27838e-07
5.59754e-06
-4.39182e-07
-4.37279e-07
2.81967e-07
6.20326e-06
-6.96069e-07
3.76258e-08
6.60865e-06
-8.59068e-07
-2.15614e-07
6.64175e-06
-8.8601e-07
-3.83655e-07
6.38893e-06
-7.87719e-07
-4.27855e-07
5.81496e-06
-6.09047e-07
5.13771e-06
-3.54078e-07
-3.91741e-07
4.64411e-07
4.0451e-07
-3.43987e-07
-3.43691e-07
6.04228e-06
2.5638e-07
3.73331e-07
-6.22484e-07
4.92238e-06
2.32912e-08
2.76826e-07
-7.16716e-07
3.36707e-06
-2.16223e-07
3.01765e-07
-7.26477e-07
4.09335e-06
-3.82731e-07
3.0035e-07
-6.74407e-07
3.83467e-06
-4.44712e-07
4.69221e-07
-5.57304e-07
5.42609e-06
3.54545e-07
-1.96079e-07
-2.80674e-07
5.73556e-06
3.0556e-07
1.69643e-07
-5.44065e-07
4.91202e-06
7.13702e-08
2.3656e-07
2.25534e-06
6.95058e-09
1.63771e-07
2.63423e-06
-1.42305e-07
1.14367e-07
2.68907e-06
-3.16633e-07
6.29453e-08
3.44441e-06
-6.47267e-07
2.69239e-07
3.68901e-06
2.26595e-07
-4.58978e-07
5.90342e-06
3.76865e-07
-3.95257e-09
-6.41216e-07
2.28772e-06
1.75832e-07
-7.62445e-08
5.02612e-06
-3.16591e-07
-1.99896e-07
7.27714e-06
-3.31042e-07
-1.20802e-07
6.61141e-06
-2.71389e-07
-5.62791e-08
2.34968e-06
-6.83268e-07
-7.05088e-09
4.2681e-06
1.42567e-09
-6.20337e-07
5.55448e-06
3.3148e-07
-1.59097e-07
-6.36159e-07
2.1801e-06
1.36111e-07
-2.93269e-07
5.16779e-06
-2.41503e-07
-2.66739e-07
7.07516e-06
-3.00151e-07
-2.89552e-07
5.15975e-06
-3.37192e-07
-8.42268e-08
2.32442e-06
-7.40727e-07
-3.05e-07
4.59887e-06
-2.11313e-07
-6.2377e-07
5.81341e-06
2.32136e-07
-3.57637e-07
-5.31033e-07
4.39377e-06
3.49914e-08
-3.49727e-07
2.0753e-06
4.02317e-08
-1.56733e-07
2.23931e-06
-7.97162e-08
-1.87669e-07
2.19718e-06
-2.18778e-07
-2.56616e-07
2.63556e-06
-6.19256e-07
-4.4712e-07
3.23969e-06
-3.17106e-07
-4.66491e-07
5.76376e-06
4.13517e-07
-3.01783e-07
-3.6053e-07
5.62843e-06
2.02984e-07
-5.75735e-07
4.5216e-06
3.60925e-08
-6.33312e-07
2.88904e-06
-1.5051e-07
-6.59691e-07
3.03132e-06
-3.3616e-07
-6.17479e-07
3.40145e-06
-4.63969e-07
-5.25264e-07
4.83347e-06
-2.42776e-07
-2.40125e-07
5.51043e-06
2.33184e-07
-1.47579e-07
-4.74422e-08
5.25711e-06
1.91156e-07
-2.71374e-07
5.80443e-06
4.96198e-08
-4.36769e-07
5.8183e-06
-1.06601e-07
-4.82172e-07
5.7761e-06
-1.89574e-07
-3.95292e-07
5.72443e-06
-1.61872e-07
-2.44168e-07
5.46191e-06
-2.51475e-08
-5.48205e-08
4.81297e-06
2.82262e-07
2.11664e-08
3.37223e-06
-3.86677e-08
2.71638e-07
2.69604e-08
3.65157e-06
-4.01617e-08
2.49827e-07
3.54367e-08
3.82039e-06
-4.34192e-08
2.18372e-07
4.39668e-08
3.90347e-06
-4.75762e-08
1.77691e-07
5.18653e-08
3.91996e-06
-5.21277e-08
1.27231e-07
5.88087e-08
3.87346e-06
-5.67436e-08
6.74302e-08
6.45002e-08
3.73698e-06
-6.18657e-08
6.61578e-08
3.32666e-06
-6.71111e-08
3.62065e-07
2.6508e-08
4.47492e-06
3.30942e-07
3.0701e-08
4.60646e-06
2.94268e-07
3.67177e-08
4.6377e-06
2.52742e-07
4.3876e-08
4.59185e-06
2.04812e-07
5.16517e-08
4.48801e-06
1.48308e-07
5.91142e-08
4.33156e-06
8.10438e-08
6.54903e-08
4.08914e-06
6.83349e-08
3.55363e-06
4.0855e-07
4.11025e-08
5.17714e-06
3.6946e-07
3.98765e-08
5.20235e-06
3.24762e-07
4.14976e-08
5.13063e-06
2.76305e-07
4.57225e-08
4.98845e-06
2.22686e-07
5.18257e-08
4.79622e-06
1.60988e-07
5.87738e-08
4.55961e-06
8.79055e-08
6.57051e-08
4.24238e-06
7.06376e-08
3.62126e-06
3.93684e-07
5.38498e-08
5.32189e-06
3.55878e-07
4.55008e-08
5.30605e-06
3.12211e-07
4.29928e-08
5.19408e-06
2.65131e-07
4.41617e-08
5.01414e-06
2.1333e-07
4.80098e-08
4.78762e-06
1.54111e-07
5.35702e-08
4.52057e-06
8.42943e-08
6.00973e-08
4.1765e-06
6.62947e-08
3.53045e-06
3.25758e-07
5.35621e-08
4.89218e-06
2.96533e-07
4.17456e-08
4.90524e-06
2.62163e-07
3.6801e-08
4.82196e-06
2.24483e-07
3.54626e-08
4.66957e-06
1.82e-07
3.70903e-08
4.46906e-06
1.3239e-07
4.08768e-08
4.22639e-06
7.30898e-08
4.61877e-08
3.90717e-06
5.23894e-08
3.29965e-06
2.33032e-07
3.33413e-08
4.02077e-06
2.18221e-07
2.54089e-08
4.11526e-06
1.97763e-07
2.09785e-08
4.11329e-06
1.72663e-07
1.89784e-08
4.03905e-06
1.42044e-07
1.92939e-08
3.91177e-06
1.04513e-07
2.13601e-08
3.73716e-06
5.82783e-08
2.48097e-08
3.48508e-06
2.98098e-08
2.96895e-06
1.68268e-07
2.90453e-06
3.67757e-09
1.65309e-07
3.11205e-06
2.79602e-09
1.54596e-07
3.21853e-06
1.82585e-09
1.3733e-07
3.24772e-06
1.3255e-09
1.13906e-07
3.21758e-06
1.39776e-09
8.4055e-08
3.13371e-06
2.05036e-09
4.67755e-08
2.97153e-06
3.33785e-09
2.57537e-06
5.62451e-09
1.6345e-07
1.68007e-08
3.39378e-06
-2.95546e-08
1.49529e-07
2.59928e-08
3.67364e-06
-3.41391e-08
1.33297e-07
3.55406e-08
3.84086e-06
-3.9739e-08
1.14252e-07
4.50464e-08
3.92304e-06
-4.56414e-08
9.16606e-08
5.33076e-08
3.94064e-06
-5.14118e-08
6.39721e-08
6.01868e-08
3.8963e-06
-5.64227e-08
3.27285e-08
6.50896e-08
3.76564e-06
-6.27979e-08
6.54007e-08
3.36253e-06
-6.85102e-08
2.21424e-07
2.25406e-08
4.50378e-06
1.88288e-07
2.90361e-08
4.63648e-06
1.60886e-07
3.58981e-08
4.66504e-06
1.36687e-07
4.41413e-08
4.61718e-06
1.11591e-07
5.25078e-08
4.51407e-06
8.21189e-08
5.99958e-08
4.36122e-06
4.55643e-08
6.58689e-08
4.12483e-06
6.76718e-08
3.59715e-06
2.57758e-07
3.66787e-08
5.21164e-06
2.15327e-07
3.52547e-08
5.23877e-06
1.80703e-07
3.76781e-08
5.16373e-06
1.51668e-07
4.31437e-08
5.01859e-06
1.23545e-07
5.02945e-08
4.82666e-06
9.14335e-08
5.78778e-08
4.59384e-06
5.15706e-08
6.50262e-08
4.28324e-06
6.98073e-08
3.67071e-06
2.40508e-07
4.62641e-08
5.36045e-06
1.99438e-07
3.73146e-08
5.34533e-06
1.66252e-07
3.58507e-08
5.22924e-06
1.39207e-07
3.85839e-08
5.04602e-06
1.1353e-07
4.39149e-08
4.81993e-06
8.4547e-08
5.06246e-08
4.55707e-06
4.81751e-08
5.79759e-08
4.22017e-06
6.4935e-08
3.58325e-06
1.78548e-07
4.22806e-08
4.92976e-06
1.49024e-07
3.05264e-08
4.94161e-06
1.259e-07
2.69881e-08
4.85398e-06
1.07395e-07
2.76263e-08
4.69922e-06
8.92096e-08
3.11914e-08
4.50013e-06
6.74978e-08
3.66128e-08
4.26235e-06
3.87403e-08
4.32696e-08
3.95063e-06
5.08431e-08
3.35236e-06
1.06247e-07
2.39574e-08
4.05231e-06
9.19733e-08
1.58251e-08
4.14404e-06
8.09218e-08
1.25683e-08
4.13886e-06
7.16509e-08
1.21964e-08
4.06398e-06
6.13748e-08
1.4158e-08
3.93943e-06
4.74141e-08
1.77128e-08
3.77027e-06
2.75584e-08
2.24999e-08
3.52567e-06
2.896e-08
3.01845e-06
6.69426e-08
2.92548e-06
3.31489e-09
6.19819e-08
3.13163e-06
1.05822e-09
5.66725e-08
3.23712e-06
-6.23023e-10
5.07665e-08
3.26737e-06
-1.2256e-09
4.33502e-08
3.24064e-06
-1.0163e-09
3.32084e-08
3.16205e-06
-1.20766e-10
1.90298e-08
3.0068e-06
1.49016e-09
2.6189e-06
4.30472e-09
-6.43451e-08
1.5485e-08
3.4034e-06
-1.50298e-08
-6.62754e-08
2.85467e-08
3.67285e-06
-2.59768e-08
-5.9948e-08
3.93484e-08
3.83104e-06
-3.57091e-08
-4.98531e-08
4.90164e-08
3.90805e-06
-4.43743e-08
-3.89109e-08
5.69729e-08
3.92429e-06
-5.20043e-08
-2.93074e-08
6.32007e-08
3.88134e-06
-5.80104e-08
-1.86989e-08
6.70151e-08
3.75291e-06
-6.49771e-08
6.60776e-08
3.34842e-06
-7.03018e-08
-7.12202e-08
1.48078e-08
4.52698e-06
-7.53218e-08
2.61532e-08
4.64319e-06
-6.51566e-08
3.63076e-08
4.65815e-06
-4.80669e-08
4.63029e-08
4.6028e-06
-3.062e-08
5.52739e-08
4.49813e-06
-1.65721e-08
6.26787e-08
4.34762e-06
-7.39713e-09
6.79812e-08
4.11507e-06
6.88751e-08
3.58721e-06
-7.26305e-08
1.51472e-08
5.24719e-06
-8.18083e-08
2.10192e-08
5.25338e-06
-7.20235e-08
2.9345e-08
5.16094e-06
-5.23065e-08
3.89522e-08
5.0061e-06
-3.12299e-08
4.86257e-08
4.81208e-06
-1.42823e-08
5.75768e-08
4.58218e-06
-4.37878e-09
6.5282e-08
4.27654e-06
6.9984e-08
3.66493e-06
-9.2711e-08
1.04901e-08
5.40066e-06
-1.0082e-07
1.21733e-08
5.36227e-06
-8.88441e-08
1.87043e-08
5.22774e-06
-6.62111e-08
2.74768e-08
5.03476e-06
-4.17603e-08
3.69575e-08
4.80712e-06
-2.12035e-08
4.63653e-08
4.54801e-06
-8.13625e-09
5.54041e-08
4.21682e-06
6.35227e-08
3.58119e-06
-1.19061e-07
9.61078e-10
4.962e-06
-1.19479e-07
1.00036e-09
4.95291e-06
-1.02621e-07
5.70681e-09
4.84988e-06
-7.76787e-08
1.35387e-08
4.68819e-06
-5.18704e-08
2.20523e-08
4.48946e-06
-3.00718e-08
3.07518e-08
4.25633e-06
-1.44381e-08
3.96193e-08
3.95045e-06
4.88096e-08
3.35274e-06
-1.25016e-07
-5.97461e-09
4.07009e-06
-1.20106e-07
-6.9469e-09
4.14646e-06
-1.03539e-07
-3.72311e-09
4.13141e-06
-8.08803e-08
1.28646e-09
4.05355e-06
-5.7507e-08
7.10969e-09
3.93139e-06
-3.69922e-08
1.33267e-08
3.76735e-06
-1.98477e-08
2.0016e-08
3.52807e-06
2.77688e-08
3.01967e-06
-1.0306e-07
2.92983e-06
-2.81044e-09
-1.01622e-07
3.12792e-06
-5.17051e-09
-9.13151e-08
3.22887e-06
-5.93678e-09
-7.59532e-08
3.25892e-06
-5.57823e-09
-5.8789e-08
3.23526e-06
-4.47498e-09
-4.16312e-08
3.16126e-06
-2.83792e-09
-2.44043e-08
3.01019e-06
-6.28632e-10
2.61924e-06
2.74227e-09
-3.24482e-07
2.61383e-08
3.37401e-06
-2.87276e-09
-2.92531e-07
3.99439e-08
3.6223e-06
-2.14381e-08
-2.44189e-07
4.98368e-08
3.76816e-06
-3.50332e-08
-1.89345e-07
5.76331e-08
3.84139e-06
-4.58414e-08
-1.3467e-07
6.41772e-08
3.85973e-06
-5.46955e-08
-8.3842e-08
6.93478e-08
3.82272e-06
-6.12872e-08
-3.66443e-08
7.22924e-08
3.70152e-06
-6.7836e-08
7.09143e-08
3.31281e-06
-7.15145e-08
-4.23975e-07
1.71974e-08
4.51174e-06
-3.63884e-07
3.00728e-08
4.59341e-06
-2.87931e-07
4.28028e-08
4.58914e-06
-2.09711e-07
5.33897e-08
4.52843e-06
-1.38159e-07
6.21315e-08
4.42802e-06
-7.6784e-08
6.90019e-08
4.28657e-06
-2.75175e-08
7.37057e-08
4.06506e-06
7.3884e-08
3.55659e-06
-4.89197e-07
-7.09569e-09
5.24734e-06
-4.21154e-07
7.65434e-09
5.20777e-06
-3.31209e-07
2.35855e-08
5.08987e-06
-2.37706e-07
3.78061e-08
4.92784e-06
-1.52865e-07
4.98439e-08
4.7392e-06
-8.17797e-08
5.97713e-08
4.52082e-06
-2.74766e-08
6.76146e-08
4.22869e-06
7.18867e-08
3.63907e-06
-5.16263e-07
-3.91891e-08
5.40315e-06
-4.44681e-07
-1.83762e-08
5.3165e-06
-3.49872e-07
1.68614e-10
5.15613e-06
-2.51445e-07
1.69285e-08
4.95697e-06
-1.61754e-07
3.10748e-08
4.73631e-06
-8.68047e-08
4.29936e-08
4.49027e-06
-2.9836e-08
5.32151e-08
4.17386e-06
6.17845e-08
3.56138e-06
-4.83695e-07
-5.77214e-08
4.95071e-06
-4.1508e-07
-3.60446e-08
4.90187e-06
-3.27001e-07
-1.77397e-08
4.77975e-06
-2.36881e-07
-1.06711e-09
4.61609e-06
-1.54671e-07
1.28125e-08
4.42607e-06
-8.57663e-08
2.43523e-08
4.20618e-06
-3.13974e-08
3.45297e-08
3.91455e-06
4.39845e-08
3.33939e-06
-3.92401e-07
-4.80279e-08
4.04031e-06
-3.38775e-07
-3.51995e-08
4.09182e-06
-2.70799e-07
-2.19486e-08
4.06742e-06
-2.00471e-07
-9.87649e-09
3.99202e-06
-1.34758e-07
-7.21361e-11
3.87904e-06
-7.75194e-08
7.99404e-09
3.72662e-06
-2.95725e-08
1.52494e-08
3.49943e-06
2.22397e-08
3.01174e-06
-2.84088e-07
2.89211e-06
-1.16325e-08
-2.57229e-07
3.07804e-06
-1.24244e-08
-2.15102e-07
3.17601e-06
-1.14317e-08
-1.66351e-07
3.20975e-06
-9.61867e-09
-1.17053e-07
3.19332e-06
-7.4693e-09
-7.02405e-08
3.12763e-06
-5.13586e-09
-2.78159e-08
2.98538e-06
-2.47262e-09
2.61241e-06
1.13521e-09
-4.41907e-07
3.94895e-08
3.2682e-06
-6.3276e-09
-3.35126e-07
5.00463e-08
3.49544e-06
-2.98783e-08
-2.21479e-07
5.75449e-08
3.64151e-06
-4.46929e-08
-1.1851e-07
6.23021e-08
3.73143e-06
-5.49975e-08
-3.95964e-08
6.65443e-08
3.77747e-06
-6.31211e-08
8.16829e-09
7.02217e-08
3.77499e-06
-6.90412e-08
2.83702e-08
7.26101e-08
3.68327e-06
-7.38307e-08
7.22055e-08
3.34398e-06
-7.49582e-08
-6.32576e-07
1.86234e-08
4.39554e-06
-4.57481e-07
3.19068e-08
4.43686e-06
-2.86617e-07
4.71214e-08
4.4284e-06
-1.4172e-07
5.76958e-08
4.38774e-06
-3.47603e-08
6.50451e-08
4.32208e-06
2.92513e-08
7.04381e-08
4.22258e-06
5.28083e-08
7.39521e-08
4.0407e-06
7.42869e-08
3.60687e-06
-7.60487e-07
-2.7625e-08
5.1336e-06
-5.56666e-07
3.72917e-10
5.03541e-06
-3.52178e-07
2.5064e-08
4.90714e-06
-1.76014e-07
4.29123e-08
4.76651e-06
-4.44459e-08
5.54281e-08
4.61725e-06
3.63461e-08
6.44919e-08
4.44663e-06
6.63008e-08
7.11972e-08
4.20129e-06
7.48161e-08
3.70467e-06
-7.83337e-07
-7.68916e-08
5.28421e-06
-5.73608e-07
-3.04023e-08
5.13757e-06
-3.61753e-07
1.25637e-09
4.96835e-06
-1.78919e-07
2.39417e-08
4.79316e-06
-4.14239e-08
4.01712e-08
4.61454e-06
4.25971e-08
5.23998e-08
4.41869e-06
7.35575e-08
6.21504e-08
4.1516e-06
6.94074e-08
3.64054e-06
-6.80121e-07
-9.34892e-08
4.8192e-06
-4.92053e-07
-4.44699e-08
4.72807e-06
-3.03943e-07
-1.32944e-08
4.60665e-06
-1.43188e-07
9.37341e-09
4.47004e-06
-2.34241e-08
2.54086e-08
4.32174e-06
4.80659e-08
3.70396e-08
4.14998e-06
7.30829e-08
4.68236e-08
3.90479e-06
5.435e-08
3.42765e-06
-4.91866e-07
-6.87779e-08
3.90808e-06
-3.4814e-07
-3.80842e-08
3.94198e-06
-2.05958e-07
-1.59679e-08
3.92782e-06
-8.48799e-08
2.49962e-10
3.88014e-06
3.68718e-09
1.10544e-08
3.80515e-06
5.34995e-08
1.85501e-08
3.69528e-06
6.74429e-08
2.48343e-08
3.50727e-06
2.97221e-08
3.10368e-06
-3.00728e-07
2.78771e-06
-1.77787e-08
-2.15112e-07
2.96968e-06
-1.54774e-08
-1.22388e-07
3.07971e-06
-1.26418e-08
-3.96243e-08
3.13707e-06
-9.92042e-09
2.02887e-08
3.15185e-06
-7.42552e-09
5.0628e-08
3.12079e-06
-5.01062e-09
5.51845e-08
3.00799e-06
-2.41108e-09
2.69631e-06
1.10286e-09
-8.61734e-09
6.39017e-08
-5.12891e-08
3.06789e-06
1.95707e-07
6.81387e-08
-6.36367e-08
3.28648e-06
3.86727e-07
6.98591e-08
-6.79622e-08
3.44847e-06
5.4616e-07
7.05483e-08
-7.01611e-08
3.57212e-06
6.54204e-07
7.09886e-08
-7.15582e-08
3.67038e-06
6.76551e-07
7.2819e-08
-7.16712e-08
3.75207e-06
5.27083e-07
7.59394e-08
-6.95591e-08
3.82688e-06
7.9639e-08
-6.27531e-08
3.85407e-06
-1.77463e-07
3.9055e-08
4.1391e-06
1.07473e-07
4.97091e-08
4.17058e-06
3.58529e-07
6.08255e-08
4.18628e-06
5.57814e-07
6.75558e-08
4.19134e-06
6.89569e-07
6.98078e-08
4.19133e-06
7.22867e-07
7.11385e-08
4.19118e-06
5.6653e-07
7.22255e-08
4.2008e-06
7.22718e-08
4.1807e-06
-2.92051e-07
-4.98308e-09
4.84956e-06
3.3901e-08
2.73722e-08
4.73208e-06
3.24034e-07
4.79389e-08
4.62992e-06
5.57029e-07
5.98467e-08
4.54163e-06
7.13515e-07
6.45537e-08
4.46612e-06
7.60697e-07
6.58311e-08
4.40498e-06
6.01089e-07
6.47987e-08
4.36778e-06
6.03619e-08
4.31796e-06
-2.92207e-07
-4.11882e-08
4.98872e-06
3.88078e-08
8.99482e-09
4.82523e-06
3.34824e-07
3.55744e-08
4.68514e-06
5.73003e-07
4.92144e-08
4.5656e-06
7.33091e-07
5.52398e-08
4.46393e-06
7.79916e-07
5.64511e-08
4.38107e-06
6.14879e-07
5.40716e-08
4.32749e-06
4.5923e-08
4.27019e-06
-1.75201e-07
-4.38902e-08
4.53083e-06
1.19194e-07
4.56299e-09
4.43819e-06
3.84346e-07
2.7006e-08
4.35027e-06
5.97236e-07
3.77311e-08
4.26838e-06
7.38395e-07
4.13631e-08
4.19454e-06
7.72097e-07
3.97444e-08
4.13285e-06
6.0159e-07
3.39983e-08
4.09568e-06
2.12074e-08
4.05402e-06
-1.14036e-08
-2.74978e-08
3.66304e-06
2.27821e-07
1.61091e-09
3.70588e-06
4.44366e-07
1.42918e-08
3.7237e-06
6.17997e-07
2.0208e-08
3.72404e-06
7.29198e-07
2.00351e-08
3.71517e-06
7.43594e-07
1.54162e-08
3.7053e-06
5.68993e-07
7.49372e-09
3.70838e-06
-5.27946e-09
3.69932e-06
1.33061e-07
-1.29657e-08
2.61504e-06
3.12449e-07
-9.61786e-09
2.80129e-06
4.81106e-07
-8.10714e-09
2.93324e-06
6.19396e-07
-7.55475e-09
3.02661e-06
7.04519e-07
-7.65606e-09
3.09434e-06
7.0163e-07
-8.25659e-09
3.14732e-06
5.27192e-07
-9.15261e-09
3.19937e-06
-9.79142e-09
3.22805e-06
1.5879e-07
-6.87239e-08
3.15916e-06
4.02735e-08
1.52081e-07
-6.22731e-08
3.41208e-06
4.45454e-08
1.37409e-07
-6.16954e-08
3.55776e-06
4.97314e-08
1.18139e-07
-6.51707e-08
3.6188e-06
5.63816e-08
9.55457e-08
-7.15612e-08
3.61315e-06
6.37313e-08
6.96529e-08
-7.94859e-08
3.54612e-06
7.12272e-08
3.87786e-08
-8.78236e-08
3.39061e-06
7.84777e-08
-9.49399e-08
2.97407e-06
8.37495e-08
2.45027e-07
-8.33415e-08
4.39374e-06
2.23804e-07
-7.02386e-08
4.54446e-06
1.94696e-07
-6.64355e-08
4.59006e-06
1.62304e-07
-6.81495e-08
4.55308e-06
1.27821e-07
-7.38851e-08
4.45254e-06
9.08023e-08
-8.18961e-08
4.29426e-06
4.92467e-08
-9.0996e-08
4.04505e-06
-9.95949e-08
3.49618e-06
3.51572e-07
-7.41204e-08
5.37238e-06
3.15556e-07
-6.17312e-08
5.44622e-06
2.71219e-07
-5.82419e-08
5.41497e-06
2.22366e-07
-6.07613e-08
5.30114e-06
1.72888e-07
-6.6684e-08
5.1311e-06
1.21676e-07
-7.4747e-08
4.90402e-06
6.54973e-08
-8.34542e-08
4.58449e-06
-9.05799e-08
3.93397e-06
4.26337e-07
-4.45823e-08
5.86152e-06
3.83629e-07
-4.14261e-08
5.90621e-06
3.29515e-07
-4.12435e-08
5.84381e-06
2.70224e-07
-4.51483e-08
5.70444e-06
2.08127e-07
-5.18274e-08
5.5103e-06
1.4525e-07
-5.93126e-08
5.26091e-06
7.73691e-08
-6.65551e-08
4.91545e-06
-7.12061e-08
4.22157e-06
4.40138e-07
-1.42012e-08
5.69985e-06
3.97479e-07
-1.84757e-08
5.78369e-06
3.43844e-07
-2.20222e-08
5.76392e-06
2.84052e-07
-2.73446e-08
5.66038e-06
2.21523e-07
-3.37611e-08
5.50176e-06
1.5541e-07
-3.98454e-08
5.28242e-06
8.32062e-08
-4.45977e-08
4.96571e-06
-4.54599e-08
4.29974e-06
3.89954e-07
-7.03621e-11
4.90748e-06
3.55219e-07
-5.53515e-09
5.09509e-06
3.10221e-07
-1.0694e-08
5.1761e-06
2.59957e-07
-1.5186e-08
5.17089e-06
2.04851e-07
-1.91802e-08
5.09714e-06
1.44397e-07
-2.21166e-08
4.95964e-06
7.69146e-08
-2.39152e-08
4.72143e-06
-2.25783e-08
4.15037e-06
2.97847e-07
3.67555e-06
-1.62213e-08
2.85629e-07
4.00545e-06
-1.5171e-08
2.59353e-07
4.21899e-06
-1.30006e-08
2.23255e-07
4.33923e-06
-1.085e-08
1.78442e-07
4.38388e-06
-8.72801e-09
1.26135e-07
4.35774e-06
-6.76046e-09
6.62526e-08
4.22857e-06
-5.4036e-09
3.79406e-06
-5.47667e-09
5.96384e-08
-4.79498e-08
3.18476e-06
3.22109e-08
4.42355e-08
-4.62194e-08
3.43409e-06
3.95581e-08
3.10855e-08
-5.08419e-08
3.57422e-06
4.74785e-08
2.17217e-08
-5.85474e-08
3.63083e-06
5.60748e-08
1.52891e-08
-6.80609e-08
3.62308e-06
6.44858e-08
1.08555e-08
-7.80818e-08
3.55649e-06
7.23692e-08
6.25497e-09
-8.78957e-08
3.40395e-06
7.93428e-08
-9.61279e-08
2.99325e-06
8.33113e-08
1.26277e-07
-5.85552e-08
4.43314e-06
9.35359e-08
-4.97988e-08
4.58087e-06
6.71348e-08
-5.21637e-08
4.61792e-06
4.85829e-08
-5.90922e-08
4.57238e-06
3.52418e-08
-6.83854e-08
4.46632e-06
2.47178e-08
-7.89629e-08
4.306e-06
1.40019e-08
-9.00444e-08
4.05815e-06
-1.00327e-07
3.51426e-06
2.14804e-07
-5.55301e-08
5.41318e-06
1.64123e-07
-4.63649e-08
5.49358e-06
1.23259e-07
-4.68873e-08
5.44912e-06
9.20466e-08
-5.35156e-08
5.32697e-06
6.78224e-08
-6.26948e-08
5.14993e-06
4.75614e-08
-7.28168e-08
4.91816e-06
2.68638e-08
-8.28173e-08
4.59798e-06
-9.10008e-08
3.95126e-06
2.83945e-07
-3.99739e-08
5.90135e-06
2.23255e-07
-3.64925e-08
5.95705e-06
1.69899e-07
-3.77146e-08
5.88801e-06
1.28043e-07
-4.32166e-08
5.73593e-06
9.37268e-08
-5.15618e-08
5.53378e-06
6.5019e-08
-6.00474e-08
5.277e-06
3.58962e-08
-6.75559e-08
4.92928e-06
-7.18117e-08
4.23817e-06
3.06973e-07
-2.1081e-08
5.7342e-06
2.46329e-07
-2.28539e-08
5.8305e-06
1.92508e-07
-2.52632e-08
5.80364e-06
1.48553e-07
-3.01688e-08
5.69298e-06
1.11073e-07
-3.66778e-08
5.52421e-06
7.76523e-08
-4.23242e-08
5.29814e-06
4.25581e-08
-4.59174e-08
4.97902e-06
-4.46536e-08
4.31542e-06
2.71711e-07
-8.59612e-09
4.93859e-06
2.22097e-07
-1.20365e-08
5.13385e-06
1.76855e-07
-1.4574e-08
5.21048e-06
1.3929e-07
-1.80384e-08
5.19658e-06
1.05635e-07
-2.10827e-08
5.1149e-06
7.33611e-08
-2.29837e-08
4.97245e-06
3.91773e-08
-2.32394e-08
4.73302e-06
-1.95306e-08
4.165e-06
1.95838e-07
3.70192e-06
-1.81647e-08
1.69999e-07
4.0335e-06
-1.42939e-08
1.4189e-07
4.24276e-06
-1.06373e-08
1.14212e-07
4.35681e-06
-7.74594e-09
8.64868e-08
4.39623e-06
-5.61679e-09
5.82127e-08
4.36701e-06
-3.92922e-09
2.88895e-08
4.23778e-06
-2.90848e-09
3.80722e-06
-3.64332e-09
-1.23588e-07
-2.62068e-09
3.19719e-06
1.8077e-08
-1.38287e-07
-1.53616e-08
3.43225e-06
3.17648e-08
-1.36863e-07
-3.16273e-08
3.56023e-06
4.4153e-08
-1.23153e-07
-4.77626e-08
3.60939e-06
5.53208e-08
-1.01266e-07
-6.2661e-08
3.59852e-06
6.50951e-08
-7.38027e-08
-7.59406e-08
3.53159e-06
7.34116e-08
-4.17143e-08
-8.78027e-08
3.37973e-06
7.99766e-08
-9.67042e-08
2.96558e-06
8.24717e-08
-1.19221e-07
2.27842e-09
4.47284e-06
-1.42832e-07
-7.49266e-09
4.59647e-06
-1.43372e-07
-2.45609e-08
4.61159e-06
-1.27095e-07
-4.21111e-08
4.55076e-06
-1.0128e-07
-5.86681e-08
4.43655e-06
-7.10241e-08
-7.37638e-08
4.27328e-06
-3.8087e-08
-8.77005e-08
4.02523e-06
-9.96195e-08
3.47898e-06
-9.61177e-08
-3.39639e-09
5.48317e-06
-1.3122e-07
-1.14337e-08
5.53254e-06
-1.40289e-07
-2.50458e-08
5.45721e-06
-1.25432e-07
-4.03745e-08