/*--------------------------------*- C++ -*----------------------------------*\
| =========                 |                                                 |
| \\      /  F ield         | OpenFOAM: The Open Source CFD Toolbox           |
|  \\    /   O peration     | Version:  plus.master.MPPICInterFoam            |
|   \\  /    A nd           | Web:      www.OpenFOAM.com                      |
|    \\/     M anipulation  |                                                 |
\*---------------------------------------------------------------------------*/
FoamFile
{
    version     2.0;
    format      ascii;
    class       volScalarField;
    location    "8";
    object      epsilon;
}
// * * * * * * * * * * * * * * * * * * * * * * * * * * * * * * * * * * * * * //

dimensions      [0 2 -3 0 0 0 0];

internalField   nonuniform List<scalar> 
11822
(
0.309223
0.349926
0.374735
0.375783
0.354919
0.318391
0.271216
0.35426
0.403368
0.434554
0.439673
0.417079
0.368672
0.31118
0.38967
0.43147
0.446395
0.47502
0.464467
0.408299
0.339007
0.401221
0.439177
0.458211
0.491418
0.480402
0.422499
0.348391
0.387321
0.443409
0.483474
0.479023
0.457863
0.403461
0.336088
0.350876
0.400131
0.434536
0.437016
0.409783
0.363352
0.306542
0.30439
0.343903
0.367908
0.369492
0.34869
0.311918
0.265562
0.320348
0.358722
0.379248
0.38271
0.365496
0.329512
0.27965
0.365194
0.408458
0.429903
0.435416
0.417263
0.380792
0.322237
0.394536
0.432831
0.443983
0.465408
0.460706
0.417295
0.351274
0.401007
0.445028
0.469259
0.488509
0.473002
0.429135
0.360953
0.391146
0.438318
0.48018
0.490259
0.470866
0.418241
0.349531
0.362863
0.410183
0.442629
0.449505
0.425548
0.379357
0.31848
0.315449
0.356368
0.3817
0.384583
0.363471
0.324416
0.273863
0.347191
0.394164
0.415551
0.419499
0.398745
0.353894
0.294211
0.400384
0.46315
0.470092
0.477465
0.461488
0.4178
0.344722
0.427534
0.467086
0.482923
0.505811
0.515797
0.462109
0.379933
0.432189
0.469246
0.483827
0.517965
0.5366
0.47895
0.392188
0.429136
0.484771
0.488793
0.529475
0.521413
0.465694
0.378
0.396954
0.453725
0.498021
0.504139
0.474207
0.415401
0.339448
0.33776
0.387172
0.41868
0.42189
0.395152
0.34662
0.28617
0.380004
0.44135
0.468269
0.471978
0.442003
0.382128
0.307595
0.448827
0.47712
0.536521
0.553645
0.52525
0.465247
0.369112
0.477961
0.521591
0.553044
0.563364
0.571388
0.529857
0.415443
0.489912
0.539592
0.541948
0.521139
0.604523
0.553757
0.431231
0.487505
0.535667
0.539126
0.57983
0.585232
0.527472
0.409793
0.440224
0.51512
0.569922
0.583862
0.53656
0.457103
0.359154
0.362195
0.424403
0.462955
0.467208
0.430618
0.367803
0.295125
0.407395
0.490925
0.534067
0.534899
0.484292
0.402059
0.312528
0.501893
0.523823
0.554795
0.582291
0.596996
0.506931
0.384416
0.543017
0.535608
0.563232
0.560349
0.582653
0.591184
0.439845
0.571764
0.551543
0.563654
0.546513
0.58948
0.624088
0.458531
0.552154
0.562894
0.590739
0.602587
0.619687
0.579627
0.42979
0.476215
0.57795
0.639695
0.648546
0.592193
0.48475
0.367651
0.377428
0.453828
0.500757
0.503079
0.454704
0.377251
0.294934
0.3862
0.463457
0.492133
0.49145
0.456041
0.380571
0.297205
0.471532
0.531865
0.517593
0.537805
0.536679
0.471348
0.367002
0.495105
0.495862
0.454689
0.512059
0.577517
0.533069
0.418618
0.50551
0.498259
0.453348
0.52512
0.588859
0.549735
0.435084
0.510998
0.556441
0.569882
0.590563
0.602959
0.522099
0.406
0.447493
0.523234
0.556557
0.561485
0.533756
0.445825
0.346314
0.356635
0.429202
0.470775
0.469735
0.425609
0.353827
0.278457
0.222532
0.186959
0.155613
0.129583
0.109769
0.0976388
0.0993934
0.174829
0.253135
0.208056
0.169476
0.137883
0.113797
0.0982732
0.0965941
0.163001
0.275123
0.224051
0.180242
0.14446
0.117189
0.0992373
0.0952746
0.155832
0.28242
0.229259
0.183625
0.1464
0.118053
0.0992933
0.0945363
0.152798
0.272452
0.221631
0.178122
0.1427
0.115773
0.0980661
0.0941062
0.153443
0.24862
0.203887
0.165833
0.134863
0.111353
0.0962146
0.0944558
0.158346
0.216825
0.18182
0.151218
0.125988
0.106863
0.0951392
0.0966491
0.168306
0.22698
0.188867
0.155832
0.128948
0.108925
0.0969921
0.0991804
0.174886
0.259982
0.211382
0.170354
0.137468
0.112977
0.0975953
0.0963542
0.163131
0.28367
0.228535
0.181686
0.144237
0.11639
0.0985309
0.0950108
0.156015
0.291532
0.234092
0.185204
0.146196
0.117235
0.0985639
0.0942576
0.153009
0.28107
0.225894
0.17934
0.142331
0.114903
0.0973282
0.0938214
0.153615
0.25526
0.206768
0.166335
0.134216
0.110419
0.0954822
0.0941729
0.158442
0.220698
0.183138
0.151004
0.125101
0.105894
0.0944303
0.0963805
0.168317
0.233447
0.191059
0.155623
0.12775
0.107621
0.0960521
0.09886
0.175184
0.271047
0.215747
0.170977
0.13648
0.11166
0.0965947
0.0959895
0.16355
0.298646
0.234875
0.183103
0.143476
0.115088
0.0974972
0.0946282
0.156536
0.307825
0.240994
0.186802
0.145465
0.115919
0.0975115
0.0938622
0.153555
0.295186
0.231528
0.180344
0.141379
0.113531
0.0962696
0.0934134
0.154072
0.264815
0.21005
0.166341
0.13294
0.10899
0.0944341
0.0937558
0.158738
0.225542
0.184237
0.15018
0.123609
0.104466
0.0934241
0.0959806
0.16849
0.237415
0.190776
0.153488
0.12528
0.105572
0.0947208
0.0984765
0.177679
0.280096
0.217402
0.169376
0.134032
0.109514
0.0951741
0.0955387
0.166035
0.31261
0.238491
0.1821
0.14112
0.1129
0.0960291
0.0941592
0.159107
0.323228
0.245101
0.185907
0.143098
0.113703
0.0960217
0.0933763
0.156136
0.307169
0.234093
0.178862
0.13884
0.111285
0.0947807
0.0929108
0.156547
0.271163
0.210225
0.164049
0.130229
0.106762
0.0929806
0.093252
0.161093
0.227103
0.182611
0.147413
0.120892
0.10233
0.0920424
0.0955166
0.170888
0.236019
0.187267
0.149931
0.12256
0.103893
0.0941288
0.0995018
0.185876
0.281969
0.214636
0.165724
0.131112
0.107698
0.0945038
0.0965171
0.174428
0.31781
0.23669
0.178527
0.138114
0.111028
0.0953512
0.0951725
0.167778
0.329281
0.243462
0.182307
0.140062
0.111837
0.0953782
0.0944415
0.164891
0.310296
0.231377
0.175011
0.135807
0.109479
0.0942031
0.0940378
0.165192
0.270115
0.206209
0.160055
0.127326
0.105099
0.0925149
0.0944587
0.169474
0.223459
0.178209
0.143661
0.118279
0.100883
0.0917361
0.09686
0.179103
0.22721
0.181288
0.146358
0.120938
0.103957
0.0962567
0.107273
0.241578
0.271458
0.207865
0.161876
0.129449
0.107826
0.0966928
0.104116
0.228291
0.306447
0.229507
0.174555
0.136484
0.111298
0.0977507
0.102993
0.221574
0.317046
0.235875
0.17819
0.138447
0.11223
0.0979993
0.102623
0.219455
0.297417
0.223627
0.170881
0.134249
0.10998
0.0970217
0.102645
0.221097
0.258377
0.199193
0.156323
0.126002
0.105777
0.0955764
0.103633
0.227557
0.214548
0.172544
0.140607
0.11733
0.101838
0.0951759
0.106965
0.241167
0.254344
0.217116
0.183365
0.154551
0.132047
0.118013
0.120327
0.211074
0.293126
0.246853
0.205451
0.170124
0.142185
0.123714
0.122146
0.206603
0.322241
0.269936
0.223112
0.182923
0.150875
0.129122
0.124914
0.205696
0.334345
0.279508
0.23058
0.188521
0.154867
0.131841
0.126731
0.206971
0.324832
0.272201
0.225333
0.185023
0.152782
0.130885
0.126832
0.209632
0.296992
0.250896
0.209525
0.173955
0.14564
0.126905
0.125653
0.213995
0.259814
0.2228
0.188845
0.159547
0.136489
0.122122
0.124939
0.221216
0.261613
0.221538
0.185414
0.154966
0.131574
0.117228
0.119573
0.209755
0.302965
0.253716
0.2093
0.171655
0.142298
0.123187
0.121486
0.205399
0.331919
0.27817
0.228408
0.18551
0.151627
0.128943
0.124464
0.2048
0.342987
0.287963
0.236489
0.191665
0.156001
0.131897
0.126438
0.206284
0.334295
0.280806
0.231219
0.188129
0.153897
0.13093
0.126517
0.208802
0.307096
0.258789
0.214464
0.176326
0.146298
0.126695
0.12517
0.212849
0.26825
0.228618
0.192108
0.16083
0.136562
0.121648
0.124347
0.219872
0.274039
0.227818
0.187552
0.154723
0.130272
0.115697
0.118238
0.207957
0.32343
0.265168
0.214417
0.172901
0.141601
0.121823
0.120154
0.203638
0.358217
0.294261
0.236572
0.188473
0.151768
0.127941
0.123314
0.20335
0.370477
0.305962
0.246227
0.195639
0.156699
0.131176
0.125452
0.20507
0.361273
0.29812
0.240462
0.19184
0.154484
0.130164
0.125485
0.207381
0.33013
0.27269
0.221381
0.178709
0.146231
0.125637
0.123967
0.211068
0.284153
0.237598
0.196068
0.161676
0.135835
0.120379
0.123111
0.218017
0.285305
0.231594
0.187006
0.152257
0.127365
0.113102
0.116321
0.207634
0.346355
0.275292
0.216902
0.171559
0.138902
0.119095
0.11805
0.203217
0.392996
0.311532
0.242909
0.188886
0.149701
0.125368
0.121263
0.203262
0.409523
0.326903
0.2549
0.197268
0.155172
0.128802
0.123494
0.205218
0.396715
0.317297
0.248298
0.193134
0.15284
0.127751
0.123469
0.207242
0.358474
0.286557
0.226169
0.178598
0.144071
0.123065
0.121833
0.210448
0.300777
0.244926
0.197605
0.160248
0.133323
0.117832
0.121071
0.217352
0.288585
0.229314
0.182522
0.147666
0.123558
0.110378
0.115159
0.212835
0.360752
0.277796
0.213805
0.166838
0.134511
0.115765
0.116388
0.208851
0.424667
0.321753
0.242929
0.184987
0.145228
0.121728
0.119355
0.209754
0.454305
0.342892
0.257349
0.19422
0.150852
0.12507
0.121491
0.212209
0.436721
0.331142
0.249954
0.18987
0.148487
0.123993
0.121367
0.213723
0.3821
0.293644
0.225242
0.17464
0.139702
0.119446
0.119737
0.215747
0.310338
0.246203
0.194693
0.156036
0.129295
0.114599
0.119218
0.221759
0.27481
0.218791
0.174867
0.142409
0.120265
0.109165
0.119121
0.263568
0.343395
0.265214
0.2045
0.160389
0.130347
0.113683
0.118907
0.25554
0.402932
0.309315
0.233177
0.17802
0.140653
0.119189
0.121042
0.254766
0.431697
0.332125
0.24807
0.187279
0.146162
0.122329
0.122742
0.256535
0.410718
0.31977
0.240719
0.182923
0.143658
0.121018
0.122327
0.257272
0.363008
0.2816
0.215843
0.167593
0.134722
0.116307
0.120659
0.258745
0.295458
0.234774
0.185767
0.149392
0.124533
0.111692
0.120686
0.266199
0.258327
0.220929
0.186693
0.157192
0.13402
0.119566
0.122132
0.216666
0.288849
0.241763
0.200006
0.164478
0.136453
0.11795
0.116203
0.198929
0.308382
0.255297
0.208429
0.168816
0.137652
0.116691
0.112369
0.186537
0.30965
0.255337
0.207312
0.166899
0.13526
0.113952
0.108878
0.17848
0.292222
0.240959
0.195756
0.157962
0.128599
0.109052
0.105027
0.173742
0.261534
0.216231
0.176921
0.144357
0.119293
0.103088
0.10164
0.173163
0.223092
0.187584
0.15629
0.130283
0.11046
0.0983575
0.100366
0.177657
0.266528
0.226516
0.189743
0.158327
0.134026
0.119107
0.12165
0.215577
0.298013
0.24864
0.20398
0.166125
0.136708
0.117651
0.11593
0.198214
0.317024
0.262484
0.21274
0.170655
0.138002
0.116468
0.112229
0.186327
0.318646
0.262364
0.211326
0.16847
0.135423
0.113608
0.108636
0.178563
0.301224
0.247008
0.198784
0.158861
0.128393
0.108546
0.104739
0.173775
0.269073
0.220475
0.178593
0.144458
0.118725
0.102451
0.101309
0.17305
0.227765
0.189717
0.156691
0.129757
0.109643
0.0976488
0.0999856
0.177616
0.281976
0.235094
0.193409
0.159014
0.133268
0.117919
0.120608
0.214188
0.31926
0.260589
0.209374
0.167594
0.136303
0.116707
0.115212
0.197494
0.34028
0.276063
0.219052
0.172545
0.137784
0.115656
0.111694
0.186192
0.341528
0.275343
0.217121
0.170004
0.135004
0.112699
0.108058
0.17868
0.320619
0.257153
0.202756
0.159425
0.127557
0.107514
0.104171
0.173933
0.282288
0.22656
0.180312
0.143998
0.117533
0.10136
0.100749
0.173133
0.23465
0.19222
0.156682
0.128659
0.108357
0.0966661
0.0995661
0.177832
0.29788
0.241955
0.194695
0.157528
0.130843
0.115562
0.118851
0.214163
0.343637
0.271642
0.212474
0.166824
0.134212
0.114641
0.113871
0.198395
0.369421
0.289862
0.223378
0.172242
0.13591
0.113788
0.110618
0.187866
0.3698
0.288248
0.220814
0.169354
0.133001
0.110835
0.107086
0.180686
0.342122
0.265822
0.204292
0.157902
0.125313
0.105658
0.10328
0.175915
0.29453
0.230182
0.179611
0.14176
0.115239
0.0996543
0.0999541
0.175371
0.23914
0.192238
0.154698
0.126238
0.106299
0.0952961
0.0991072
0.180069
0.306857
0.242864
0.191733
0.153523
0.127122
0.112677
0.117408
0.219384
0.361832
0.276048
0.210693
0.163158
0.130709
0.11206
0.1129
0.205275
0.395949
0.297272
0.222595
0.168939
0.132654
0.111517
0.110072
0.196096
0.394415
0.294576
0.219505
0.165926
0.129854
0.108775
0.106806
0.189181
0.356511
0.26795
0.201535
0.154214
0.122341
0.103851
0.103204
0.184104
0.29908
0.228426
0.175874
0.138254
0.112733
0.098298
0.100195
0.183145
0.238105
0.188902
0.15112
0.123407
0.104476
0.0945421
0.0999128
0.187714
0.293795
0.232233
0.183453
0.147404
0.122849
0.110261
0.119365
0.264275
0.349503
0.266206
0.203197
0.157912
0.127324
0.110433
0.115342
0.249484
0.384834
0.288808
0.216102
0.164604
0.130139
0.110642
0.113128
0.240827
0.38236
0.285733
0.21318
0.162032
0.127882
0.108507
0.110596
0.234629
0.343201
0.258387
0.195281
0.150671
0.120796
0.104135
0.10782
0.231014
0.286185
0.219823
0.170561
0.135438
0.111825
0.0993435
0.106038
0.232407
0.229129
0.182768
0.147412
0.121636
0.104367
0.0964451
0.107248
0.241509
0.217917
0.182876
0.152269
0.127023
0.107861
0.0961064
0.0976581
0.169741
0.255231
0.210235
0.171636
0.139992
0.115814
0.100153
0.0983244
0.164559
0.285731
0.234282
0.189516
0.152563
0.124136
0.105248
0.100974
0.164266
0.303128
0.248545
0.20077
0.161094
0.130398
0.1098
0.104468
0.168381
0.302141
0.248822
0.202157
0.16325
0.133028
0.112796
0.108185
0.17632
0.283315
0.235893
0.194324
0.159435
0.132226
0.114338
0.112233
0.188594
0.253524
0.215828
0.18172
0.152641
0.129969
0.11579
0.117719
0.206111
0.221933
0.1843
0.152131
0.126174
0.106897
0.0953764
0.0973483
0.169665
0.262549
0.213665
0.172497
0.139515
0.114894
0.099336
0.0979084
0.164397
0.295701
0.239712
0.191548
0.152617
0.123375
0.104432
0.100496
0.16406
0.31431
0.255187
0.203663
0.161621
0.129835
0.109013
0.103959
0.168093
0.312891
0.255452
0.205195
0.163939
0.132563
0.112034
0.107619
0.17582
0.292579
0.24152
0.196875
0.159955
0.131725
0.11355
0.111586
0.187768
0.260585
0.219948
0.183476
0.152834
0.129369
0.114967
0.117004
0.204924
0.226978
0.185519
0.151366
0.12469
0.105437
0.0943133
0.0968682
0.16968
0.273194
0.217661
0.172847
0.138304
0.113355
0.0981079
0.0972679
0.164313
0.312308
0.247038
0.193454
0.151957
0.121911
0.103091
0.0997304
0.163922
0.334822
0.264951
0.206854
0.161503
0.128522
0.107656
0.1031
0.167822
0.333407
0.265526
0.208737
0.164056
0.13134
0.110647
0.106651
0.175266
0.309556
0.249881
0.199741
0.159869
0.130442
0.1121
0.110483
0.186752
0.272334
0.225669
0.185193
0.152339
0.127967
0.113454
0.115786
0.203438
0.228702
0.183977
0.148611
0.121927
0.103219
0.0928252
0.0962562
0.171705
0.280571
0.218316
0.170614
0.135396
0.110822
0.096321
0.0964183
0.166067
0.326874
0.251025
0.192396
0.149239
0.119218
0.101095
0.0987106
0.165623
0.354776
0.27174
0.206972
0.159118
0.125784
0.105488
0.101909
0.169381
0.353789
0.272942
0.209292
0.161847
0.128598
0.108374
0.105297
0.176511
0.326075
0.255653
0.199754
0.157518
0.127639
0.109728
0.108954
0.187481
0.282548
0.228749
0.184256
0.149732
0.125094
0.111003
0.114104
0.203725
0.225174
0.179583
0.144756
0.119169
0.101613
0.0923592
0.0974229
0.17961
0.279794
0.214108
0.166078
0.131898
0.108609
0.095372
0.0971658
0.173895
0.331559
0.248425
0.187846
0.145244
0.116495
0.0997068
0.0990954
0.173537
0.364886
0.271202
0.202869
0.154918
0.122705
0.103745
0.101976
0.17728
0.36503
0.273067
0.205397
0.157556
0.125289
0.106345
0.105055
0.184032
0.333548
0.254546
0.195551
0.153143
0.124199
0.107498
0.108432
0.194251
0.284974
0.226038
0.179715
0.145348
0.121604
0.108644
0.113372
0.209711
0.215995
0.173739
0.141567
0.118081
0.102418
0.0956217
0.10728
0.241315
0.266399
0.205794
0.161435
0.129862
0.108667
0.0977892
0.105514
0.23098
0.315945
0.238458
0.181999
0.142385
0.11589
0.101405
0.106311
0.227798
0.34874
0.260479
0.196258
0.151423
0.12151
0.104803
0.108283
0.229688
0.349905
0.262408
0.198459
0.153582
0.12354
0.106788
0.110632
0.235404
0.319468
0.244214
0.188495
0.148759
0.121925
0.107377
0.113475
0.245444
0.271843
0.215962
0.172555
0.140578
0.118833
0.10804
0.118181
0.262181
0.00637378
0.0049208
0.00612601
0.00743312
0.00825992
0.00849794
0.00822381
0.00758316
0.00629296
0.00487218
0.00607326
0.00737236
0.00819066
0.00842451
0.00815158
0.00751662
0.00619645
0.00480202
0.00599568
0.00728633
0.00809821
0.00832974
0.00806027
0.007434
0.00610826
0.00473757
0.00592532
0.00721075
0.00802019
0.00825357
0.00799097
0.00737558
0.00605217
0.00469801
0.00588384
0.00716849
0.00798049
0.00822027
0.00796664
0.00736111
0.00602251
0.0046803
0.00586859
0.00715706
0.00797526
0.00822361
0.00797913
0.00738112
0.00599478
0.00466217
0.0058547
0.00715005
0.00797718
0.00823539
0.00799995
0.00740855
0.0107879
0.00876828
0.0109956
0.0128806
0.0137038
0.0135172
0.0125752
0.01117
0.0105982
0.00866334
0.0108924
0.0127631
0.013573
0.0133826
0.0124471
0.0110564
0.0103854
0.00852722
0.0107627
0.0126271
0.0134269
0.0132321
0.0123016
0.0109246
0.0101936
0.00840054
0.0106399
0.0125003
0.0132959
0.0131032
0.0121831
0.0108236
0.0100649
0.00831459
0.0105495
0.0124053
0.0132035
0.0130226
0.0121208
0.0107818
0.0099919
0.00826759
0.0104952
0.0123473
0.0131532
0.0129893
0.0121088
0.0107893
0.009934
0.00822918
0.0104565
0.0123138
0.0131331
0.0129875
0.0121258
0.0108221
0.018219
0.0164076
0.0202039
0.0224337
0.0226871
0.0213735
0.0190534
0.0162465
0.0177975
0.016233
0.020031
0.0222247
0.0224517
0.0211349
0.0188317
0.016054
0.0173733
0.0160446
0.0198776
0.022054
0.022255
0.0209235
0.0186223
0.0158615
0.0170036
0.0158604
0.0197234
0.0218884
0.0220718
0.0207337
0.0184414
0.015703
0.0167316
0.015694
0.0195495
0.0217025
0.0218872
0.0205685
0.0183097
0.0156106
0.0165588
0.0155631
0.0193897
0.0215334
0.0217317
0.020446
0.0182312
0.015576
0.0164453
0.015464
0.0192762
0.0214293
0.0216518
0.020399
0.0182201
0.015598
0.0316676
0.0316254
0.0371686
0.0387342
0.0371399
0.0333609
0.0283981
0.0231174
0.0308023
0.0314315
0.0369116
0.0383607
0.0367036
0.0329277
0.0280118
0.0227955
0.0299909
0.0313292
0.0368033
0.0381657
0.0364411
0.0326343
0.027721
0.0225323
0.0293205
0.0312276
0.0367175
0.0380154
0.036228
0.0323859
0.0274697
0.0223038
0.02877
0.0309972
0.0364829
0.0377443
0.0359385
0.0321112
0.027241
0.0221383
0.0283875
0.0307156
0.0361964
0.0374501
0.0356528
0.0318627
0.0270556
0.0220257
0.0281392
0.0304488
0.0359553
0.0372517
0.0354966
0.031751
0.0269936
0.0220138
0.0558884
0.06528
0.0672384
0.0650829
0.0594112
0.0510395
0.0413745
0.0319
0.0551731
0.0654929
0.0670633
0.0645306
0.0586477
0.0502543
0.0406985
0.0313824
0.0549235
0.0659303
0.0671579
0.0643004
0.0582319
0.049782
0.0402539
0.0310203
0.0548277
0.0663476
0.067331
0.0642339
0.0580011
0.0494633
0.039916
0.030714
0.0545261
0.0663475
0.0672195
0.0639881
0.0576596
0.0490946
0.0395896
0.0304738
0.0541305
0.0660407
0.0669465
0.0637013
0.0573409
0.0487717
0.039316
0.0302774
0.0535402
0.0653789
0.0664748
0.0633959
0.0571424
0.0486329
0.0392237
0.0302298
0.207802
0.127846
0.113308
0.1035
0.0913686
0.075865
0.058396
0.0419687
0.217262
0.130537
0.114312
0.103369
0.090464
0.0746474
0.0572841
0.0411786
0.226089
0.133557
0.115616
0.103506
0.0899175
0.0738635
0.0565402
0.0406409
0.232109
0.135631
0.11645
0.103619
0.0896329
0.0733996
0.0560495
0.0402323
0.234661
0.136341
0.116592
0.103441
0.0892421
0.0729226
0.0556268
0.0399459
0.233484
0.135629
0.116022
0.103053
0.08892
0.0725937
0.0553391
0.039722
0.228344
0.133561
0.114604
0.102204
0.0885293
0.0724392
0.0552799
0.0396948
0.00605866
0.00461882
0.00581029
0.00714109
0.00803021
0.00833783
0.0081337
0.00755631
0.0061036
0.00464247
0.00583758
0.00717505
0.00806961
0.00837669
0.00816656
0.00758003
0.0061462
0.00466563
0.00586121
0.0071996
0.00809542
0.00839784
0.0081788
0.00758087
0.00619368
0.00469851
0.00589516
0.00723378
0.00812624
0.00842044
0.00818917
0.0075778
0.0062553
0.00475015
0.00595217
0.00729418
0.00818248
0.00846931
0.00822702
0.00760345
0.00632058
0.00480967
0.00601793
0.00736271
0.00824734
0.0085288
0.00827878
0.0076468
0.00637777
0.00485972
0.00606968
0.00741325
0.00829332
0.00857017
0.00831508
0.00767804
0.0102848
0.00829536
0.0105422
0.0125142
0.0134351
0.0133431
0.012492
0.0111723
0.01042
0.00837199
0.0106331
0.0126282
0.0135596
0.0134608
0.0125901
0.0112449
0.0105452
0.00843912
0.0107032
0.0127127
0.0136501
0.0135421
0.0126521
0.0112823
0.0106768
0.00852209
0.0107882
0.012803
0.0137399
0.0136204
0.0127074
0.0113095
0.0108246
0.00863327
0.0109053
0.0129234
0.0138591
0.0137257
0.0127898
0.0113651
0.0109626
0.0087456
0.0110203
0.0130373
0.013967
0.0138242
0.012873
0.0114305
0.0110672
0.00882471
0.0110919
0.013101
0.0140252
0.0138767
0.0129184
0.0114678
0.0176774
0.0157929
0.0197481
0.0221595
0.0225464
0.0213213
0.0190738
0.0163461
0.0180247
0.0159835
0.0199893
0.0224515
0.0228534
0.0216049
0.0193074
0.0165187
0.0183431
0.016119
0.0201365
0.0226372
0.0230562
0.0217973
0.0194658
0.0166308
0.018667
0.01628
0.0202971
0.0228236
0.0232555
0.0219818
0.0196127
0.0167261
0.0190025
0.0164878
0.020504
0.0230468
0.0234821
0.0221898
0.0197805
0.0168428
0.0192846
0.0166773
0.0206864
0.0232336
0.0236667
0.0223579
0.0199202
0.0169481
0.0194645
0.0167769
0.0207617
0.0233046
0.0237373
0.0224248
0.0199788
0.016995
0.0312295
0.0310992
0.0370837
0.0389764
0.0375273
0.0337618
0.0287575
0.0234617
0.0320048
0.0315231
0.0375993
0.0395726
0.0381382
0.0343236
0.0292241
0.0238108
0.0326649
0.0316806
0.0377818
0.0398445
0.0384706
0.0346652
0.0295259
0.0240437
0.0333456
0.0318673
0.0379739
0.0401175
0.0387989
0.0349981
0.0298155
0.0242576
0.0340446
0.0321623
0.0382666
0.0404654
0.0391773
0.0353624
0.0301234
0.024483
0.0346352
0.032455
0.0385642
0.0407933
0.0395123
0.0356665
0.0303719
0.0246665
0.0349678
0.0325346
0.038617
0.0408687
0.0396125
0.0357725
0.0304662
0.0247408
0.0562829
0.0650111
0.0678842
0.0662819
0.0608089
0.0523703
0.0424684
0.0327409
0.0576024
0.06572
0.0688073
0.0673168
0.0618316
0.0532944
0.0432397
0.0333361
0.0583768
0.0654789
0.0688269
0.0675691
0.0622331
0.0537604
0.0436871
0.0337077
0.059188
0.0652474
0.0688155
0.067801
0.0626322
0.0542299
0.0441357
0.0340753
0.0601549
0.0653592
0.069065
0.0682313
0.0631834
0.0548017
0.0446422
0.0344668
0.0610851
0.0657216
0.0694934
0.0687763
0.0637877
0.0553679
0.0451018
0.0348039
0.0614464
0.065594
0.0693775
0.0687687
0.0639034
0.0555532
0.0452869
0.0349548
0.19682
0.126227
0.114127
0.105513
0.0938818
0.0784088
0.0606592
0.0436586
0.194813
0.126937
0.115639
0.107284
0.095554
0.0798005
0.0617394
0.0444741
0.18734
0.125331
0.115404
0.107576
0.0960593
0.0803729
0.0622884
0.0449161
0.180417
0.123505
0.114842
0.107642
0.0964911
0.0809631
0.0628757
0.0454036
0.176538
0.122479
0.114638
0.107959
0.0971621
0.0817698
0.0636198
0.0459815
0.175606
0.122241
0.114753
0.108455
0.0979784
0.0826818
0.064407
0.0465661
0.173243
0.121171
0.113981
0.107948
0.0978239
0.0828524
0.0647109
0.0468538
0.00642432
0.0048952
0.00610417
0.0074459
0.0083229
0.00859591
0.00833603
0.00769349
0.00646191
0.00491604
0.00612293
0.0074634
0.00833847
0.00860665
0.00833997
0.00768952
0.00647712
0.00492212
0.00612672
0.00746486
0.00833681
0.00859952
0.00832672
0.00767012
0.00647128
0.00492224
0.0061263
0.00746052
0.00832712
0.00858472
0.0083088
0.00765072
0.00645686
0.00492537
0.00613153
0.00746192
0.00832107
0.00857509
0.00829944
0.00764469
0.00643859
0.0049344
0.0061441
0.00747033
0.00831997
0.00856948
0.00829453
0.00764429
0.00641917
0.00494101
0.00615136
0.00747016
0.00830913
0.00855325
0.0082786
0.00763268
0.0111381
0.008871
0.0111286
0.0131308
0.0140512
0.0139005
0.0129392
0.0114834
0.011182
0.00889414
0.0111492
0.0131504
0.0140667
0.0139106
0.0129419
0.011477
0.0111823
0.00889257
0.0111491
0.0131477
0.0140569
0.0138931
0.0129174
0.0114464
0.0111399
0.00887835
0.0111363
0.0131229
0.0140208
0.013851
0.012875
0.0114071
0.0110781
0.00886683
0.0111248
0.0130921
0.0139756
0.0138022
0.0128323
0.011376
0.0110092
0.00886022
0.0111141
0.0130579
0.013922
0.0137442
0.0127828
0.0113421
0.0109261
0.00884033
0.0110834
0.0129981
0.0138416
0.0136591
0.0127067
0.0112827
0.0195459
0.0168043
0.0207534
0.0232811
0.0237158
0.0224145
0.0199791
0.0169993
0.0195639
0.0168173
0.0207519
0.0232634
0.0236913
0.0223922
0.019959
0.0169755
0.0194872
0.0168031
0.020739
0.0232302
0.0236416
0.0223348
0.0198976
0.0169112
0.0193143
0.0167654
0.0206955
0.0231493
0.0235357
0.0222227
0.0197948
0.0168248
0.0190983
0.0167199
0.0206304
0.0230366
0.0233915
0.022078
0.0196735
0.0167377
0.018865
0.0166711
0.0205478
0.022893
0.0232137
0.0218994
0.0195222
0.016628
0.0185914
0.016587
0.0204251
0.0227112
0.022995
0.0216773
0.0193257
0.0164733
0.0349899
0.0324189
0.0384339
0.0406728
0.0394432
0.0356527
0.0303974
0.0247068
0.0348612
0.0323569
0.0383183
0.0405057
0.0392657
0.0355043
0.0302895
0.0246243
0.0345582
0.0323101
0.038225
0.0403426
0.0390729
0.0353197
0.0301243
0.0244699
0.0340925
0.0322532
0.03811
0.040135
0.0388093
0.0350525
0.0298895
0.0242821
0.0335724
0.0321672
0.0379596
0.0398707
0.0384794
0.0347205
0.0296101
0.0240832
0.0330489
0.0320858
0.0378061
0.039591
0.0381176
0.0343415
0.0292763
0.023832
0.0324687
0.0319607
0.0376043
0.0392755
0.0377257
0.0339273
0.0288959
0.0235232
0.0610574
0.0651029
0.0688762
0.0682915
0.0634872
0.0552361
0.0450853
0.034846
0.0604464
0.0650056
0.0686997
0.0679834
0.0630913
0.0548521
0.0447877
0.0346311
0.0596657
0.0650016
0.0684926
0.0675769
0.0625941
0.0543812
0.0443942
0.0342802
0.0588211
0.0651363
0.06833
0.0671654
0.0620528
0.0538289
0.0439135
0.0339022
0.0580321
0.0653197
0.0682246
0.0667747
0.0614881
0.0532172
0.0433722
0.0335085
0.057386
0.0656424
0.0682347
0.0664917
0.0609945
0.0526202
0.0427954
0.0330517
0.0568015
0.0657392
0.0680017
0.0660486
0.0604364
0.0520078
0.0422028
0.0325491
0.171297
0.12028
0.11325
0.107272
0.0972075
0.0823446
0.0643685
0.0466703
0.173828
0.121249
0.113833
0.107502
0.0970368
0.0818965
0.0638881
0.0462875
0.178109
0.122428
0.114203
0.107264
0.0963655
0.081095
0.063163
0.0456614
0.184635
0.123924
0.114461
0.106816
0.0955342
0.08016
0.0623192
0.0450051
0.191665
0.125669
0.114852
0.106497
0.0947821
0.0792257
0.061427
0.0443335
0.199628
0.127504
0.115215
0.106246
0.0941883
0.0784283
0.0605818
0.0436395
0.204958
0.127993
0.114445
0.105135
0.0931262
0.0774784
0.0597264
0.0429348
0.00596248
0.00463158
0.00582545
0.00712749
0.00796529
0.00823448
0.00800883
0.00742476
0.00592957
0.00459145
0.00578367
0.0070906
0.0079386
0.00821659
0.00799821
0.00741959
0.00590802
0.00455681
0.00574612
0.00705745
0.00791453
0.0081995
0.00798606
0.00741044
0.00590327
0.00453879
0.00572531
0.00703938
0.0079039
0.00819482
0.00798552
0.00741215
0.00592275
0.00454333
0.00572873
0.0070455
0.00791642
0.00821352
0.00800856
0.00743764
0.00595604
0.00456026
0.00574375
0.00706081
0.00793568
0.00823743
0.00803605
0.00746723
0.00600526
0.00458701
0.00577102
0.0070912
0.00797155
0.00827717
0.00807709
0.00750745
0.0098716
0.00817427
0.0104043
0.0122735
0.0131098
0.0129827
0.0121383
0.0108489
0.00981352
0.00811417
0.0103556
0.0122435
0.0130954
0.0129791
0.0121425
0.0108589
0.00978368
0.00806791
0.0103219
0.012232
0.0130979
0.0129875
0.0121524
0.0108681
0.00979663
0.00805048
0.0103078
0.0122336
0.0131115
0.0130069
0.0121729
0.0108873
0.00986851
0.00807542
0.0103264
0.0122605
0.0131497
0.0130527
0.0122213
0.0109349
0.00997919
0.00812335
0.0103571
0.0122919
0.01319
0.0131011
0.0122739
0.010988
0.010125
0.00819616
0.0104222
0.0123658
0.0132734
0.0131873
0.012356
0.0110619
0.0163473
0.0153551
0.0191629
0.0213365
0.0215896
0.0203702
0.018223
0.0156282
0.0162927
0.0152956
0.019137
0.0213427
0.0216149
0.0204053
0.0182626
0.0156712
0.0163073
0.0152768
0.0191671
0.0214104
0.0216989
0.0204863
0.0183311
0.0157263
0.0164078
0.0152858
0.0192046
0.0214817
0.0217867
0.0205729
0.018406
0.0157869
0.0166205
0.0153379
0.0192513
0.0215529
0.0218813
0.0206765
0.0185057
0.0158764
0.0169126
0.0154048
0.0192865
0.0216056
0.0219596
0.0207707
0.0186046
0.0159721
0.0172759
0.0155407
0.019425
0.021777
0.0221511
0.0209584
0.0187714
0.0161117
0.0279151
0.0301384
0.0356676
0.0370223
0.0353333
0.031654
0.0269559
0.0220264
0.0278429
0.0300486
0.0356231
0.0370311
0.0353829
0.0317285
0.0270402
0.0221148
0.0279456
0.0300787
0.0357255
0.0371953
0.0355791
0.0319227
0.0272072
0.0222482
0.0282475
0.0301352
0.0358478
0.037384
0.0358
0.0321362
0.027387
0.0223872
0.0287709
0.0301874
0.0359317
0.0375412
0.0360075
0.0323559
0.0275867
0.022553
0.0294616
0.0302171
0.0359864
0.0376815
0.0362037
0.0325677
0.0277863
0.0227303
0.0302963
0.0304671
0.0363115
0.0381109
0.0366685
0.0329974
0.02814
0.0230005
0.0526312
0.0645361
0.0658151
0.062893
0.0567781
0.048399
0.0391023
0.0301966
0.0520956
0.0640421
0.0654487
0.0626564
0.0566706
0.0483999
0.0391694
0.0302981
0.051715
0.0636731
0.065259
0.0626498
0.0568125
0.048627
0.0394074
0.0305022
0.0517601
0.0635079
0.0652945
0.0628621
0.0571397
0.0489872
0.0397282
0.03075
0.0522442
0.0634073
0.0654151
0.063173
0.0575598
0.0494319
0.040121
0.0310505
0.0530469
0.0633303
0.065642
0.0636382
0.0581221
0.0499734
0.0405724
0.0313977
0.0544409
0.0637056
0.0663499
0.0646138
0.0591804
0.0509379
0.0413324
0.0319231
0.224591
0.131932
0.113519
0.101394
0.087916
0.0720158
0.0550491
0.039612
0.22073
0.130452
0.112622
0.100728
0.0874298
0.0717344
0.0549468
0.0396335
0.214286
0.128347
0.111472
0.100077
0.0871559
0.0717446
0.0551039
0.0398168
0.209289
0.126963
0.110998
0.100084
0.0874685
0.0722054
0.0555598
0.0401672
0.205577
0.126086
0.111033
0.10061
0.0882392
0.0730503
0.0563172
0.0407096
0.201239
0.12519
0.111275
0.101523
0.0894519
0.074257
0.0573133
0.0413991
0.196497
0.124669
0.111962
0.102953
0.0912609
0.0760599
0.0587962
0.0423724
0.00721656
0.00387391
0.00724699
0.00690209
0.0063235
0.00575953
0.00525047
0.00484734
0.00465265
0.00504228
0.00948923
0.00684248
0.00626931
0.00571057
0.00520602
0.004806
0.00461189
0.00499639
0.00940848
0.00676969
0.00620489
0.00565443
0.00515745
0.00476363
0.00457354
0.00495763
0.00934368
0.00672194
0.00616564
0.00562325
0.0051334
0.0047454
0.00455962
0.00494628
0.00933118
0.00671467
0.00616328
0.00562494
0.00513839
0.0047532
0.00457022
0.00496142
0.00936881
0.00673812
0.00618799
0.00564971
0.00516255
0.00477672
0.00459394
0.00498876
0.00942656
0.00676815
0.00621852
0.00567945
0.00519057
0.00480256
0.00461785
0.00501328
0.00947461
0.00988913
0.00885038
0.00787793
0.00702441
0.00635378
0.00599464
0.00643011
0.012194
0.00979118
0.00876482
0.00780471
0.0069627
0.00630137
0.00594683
0.00637667
0.012098
0.00967522
0.00866266
0.00771654
0.00688738
0.00623612
0.00588728
0.00631486
0.0119878
0.00959191
0.00859376
0.0076615
0.00684457
0.00620292
0.00586032
0.00628968
0.0119488
0.00956487
0.00857676
0.00765258
0.00684207
0.00620561
0.00586761
0.00630263