/*--------------------------------*- C++ -*----------------------------------*\
| =========                 |                                                 |
| \\      /  F ield         | OpenFOAM: The Open Source CFD Toolbox           |
|  \\    /   O peration     | Version:  plus.master.MPPICInterFoam            |
|   \\  /    A nd           | Web:      www.OpenFOAM.com                      |
|    \\/     M anipulation  |                                                 |
\*---------------------------------------------------------------------------*/
FoamFile
{
    version     2.0;
    format      ascii;
    class       volVectorField;
    location    "8";
    object      U;
}
// * * * * * * * * * * * * * * * * * * * * * * * * * * * * * * * * * * * * * //

dimensions      [0 1 -1 0 0 0 0];

internalField   nonuniform List<vector> 
11822
(
(-0.00223781 -0.00332684 0.523928)
(-0.00214123 -0.00662863 0.564746)
(-0.000229666 -0.00827839 0.583172)
(0.00161004 -0.00678062 0.576931)
(0.00197155 -0.0030143 0.54136)
(0.000999316 -0.000945569 0.487075)
(0.000482291 -0.000472629 0.430382)
(-0.00556944 -0.00489566 0.580071)
(-0.00515996 -0.00981296 0.633125)
(-0.00117272 -0.0121915 0.666152)
(0.00384013 -0.0110466 0.653632)
(0.00567237 -0.00770104 0.605286)
(0.00276363 -0.0025876 0.53538)
(0.00114376 -0.00130697 0.463723)
(-0.00971874 -0.00398746 0.610287)
(-0.0101396 -0.0111772 0.703304)
(-0.00225288 -0.0180347 0.758368)
(0.00866068 -0.0124647 0.726356)
(0.00981586 -0.0070367 0.642725)
(0.00734183 -0.00281 0.561597)
(0.0025577 -0.00159296 0.483554)
(-0.0111896 -0.000103484 0.61189)
(-0.0120987 -0.00137374 0.695586)
(-0.00516244 -0.0029056 0.740418)
(0.00618716 -0.000887773 0.710957)
(0.0106091 -0.000305074 0.641849)
(0.00888002 -0.000928399 0.56162)
(0.00330016 -0.000882582 0.485997)
(-0.00730396 0.00236817 0.590183)
(-0.0093394 0.00653458 0.652671)
(-0.00678452 0.010944 0.679153)
(0.00206601 0.00852215 0.669633)
(0.00747867 0.00434455 0.613719)
(0.00544431 0.000540799 0.544379)
(0.00219738 -0.000451137 0.470053)
(-0.00264839 0.00113982 0.543948)
(-0.00407697 0.00498422 0.59246)
(-0.00229506 0.00895956 0.60726)
(0.00125327 0.00762549 0.59646)
(0.00308693 0.00268204 0.561245)
(0.00197131 -0.000379743 0.500573)
(0.00109468 -0.00103856 0.438967)
(-0.000572552 0.000380112 0.480812)
(-0.00104849 0.00157767 0.513471)
(-0.000119478 0.00357537 0.527523)
(0.00174213 0.00269376 0.519039)
(0.00231368 -0.000181878 0.489953)
(0.00150367 -0.00142839 0.447313)
(0.000986255 -0.00175498 0.397535)
(0.00534206 0.00569757 0.527979)
(0.00362635 0.00613753 0.571255)
(0.00161113 0.00682784 0.592838)
(-0.000986817 0.00760285 0.585083)
(-0.00350573 0.00818694 0.547598)
(-0.00531934 0.00682062 0.491592)
(-0.0058009 0.00515931 0.432716)
(0.00542707 0.00478039 0.586133)
(0.00368022 0.00462372 0.634105)
(0.0023517 0.00603078 0.669015)
(-0.000235176 0.00665379 0.660185)
(-0.00350216 0.00614901 0.621043)
(-0.00652652 0.00550489 0.543011)
(-0.00704193 0.00376502 0.468134)
(0.0054652 0.00293649 0.619896)
(0.0051265 0.00336136 0.691887)
(0.00611173 0.00378333 0.748213)
(0.00330172 0.00642761 0.718087)
(-0.00244668 0.00485462 0.646863)
(-0.00583802 0.00348033 0.574924)
(-0.00790785 0.00192641 0.489741)
(0.00721225 -0.000621768 0.630978)
(0.00645152 -0.000291777 0.69646)
(0.00429789 0.00218384 0.729152)
(0.000429379 0.0037925 0.693914)
(-0.0041661 0.00214211 0.647209)
(-0.00688171 0.000245495 0.578144)
(-0.00873991 -0.000569373 0.492645)
(0.00835653 -0.00507573 0.606531)
(0.00726664 -0.00493611 0.661655)
(0.00231627 -0.00255257 0.687259)
(-0.00335056 -0.00356429 0.678697)
(-0.00585609 -0.00385189 0.621108)
(-0.00814404 -0.00423225 0.554373)
(-0.00824279 -0.00345365 0.475571)
(0.00796862 -0.00787326 0.549737)
(0.0062932 -0.00953631 0.600355)
(0.00271198 -0.0103075 0.61836)
(-0.00198287 -0.0100095 0.608064)
(-0.00547552 -0.00972914 0.571051)
(-0.00710242 -0.0076108 0.506863)
(-0.0070075 -0.00577505 0.442418)
(0.00658842 -0.00798832 0.482972)
(0.00481625 -0.00995003 0.51774)
(0.00244554 -0.01061 0.532969)
(-0.000317037 -0.0107219 0.524845)
(-0.00291232 -0.0105617 0.494905)
(-0.00467592 -0.00877322 0.45056)
(-0.00505024 -0.0070195 0.398774)
(0.0127007 0.0140166 0.53383)
(0.00840546 0.0189499 0.579902)
(0.00280781 0.0198861 0.604186)
(-0.00316766 0.0201125 0.594538)
(-0.00861183 0.0187564 0.554291)
(-0.0117655 0.0141411 0.496854)
(-0.011889 0.0101973 0.434243)
(0.0172411 0.0112867 0.597479)
(0.00979588 0.0131259 0.646332)
(0.00326417 0.0176183 0.68708)
(-0.00394888 0.0198503 0.680351)
(-0.0124351 0.0182915 0.638393)
(-0.0164015 0.0122253 0.551461)
(-0.0153919 0.00787579 0.472999)
(0.0189674 0.00534662 0.641858)
(0.015302 0.00747079 0.717705)
(0.0101579 0.0134285 0.762704)
(-0.000979043 0.0166761 0.753311)
(-0.0126039 0.0121221 0.671868)
(-0.0192349 0.00747353 0.590793)
(-0.0178255 0.00410376 0.497511)
(0.0211056 -0.00212576 0.653022)
(0.0188015 -0.000332549 0.728733)
(0.0145459 0.00406542 0.776816)
(-0.000421921 0.00384049 0.778737)
(-0.0156964 0.00160624 0.684876)
(-0.0212393 -0.000509744 0.599248)
(-0.0189333 -0.00115083 0.501391)
(0.0204662 -0.00965985 0.619769)
(0.0180567 -0.0110586 0.690159)
(0.0113134 -0.0116116 0.777155)
(-0.00324397 -0.0138844 0.738342)
(-0.0142988 -0.0117585 0.665288)
(-0.0193349 -0.00903025 0.570692)
(-0.0170282 -0.00648498 0.482738)
(0.0161037 -0.0143111 0.556085)
(0.0132228 -0.02026 0.614315)
(0.0064829 -0.0238564 0.642749)
(-0.00310968 -0.0229293 0.633288)
(-0.0112475 -0.0202635 0.587861)
(-0.0144938 -0.014063 0.516476)
(-0.0138342 -0.00999354 0.446059)
(0.0120277 -0.0146586 0.485202)
(0.00881892 -0.0190785 0.523201)
(0.00397036 -0.0211026 0.541977)
(-0.00177191 -0.0208336 0.534568)
(-0.00678342 -0.0188456 0.5022)
(-0.00955831 -0.0150953 0.45421)
(-0.00985093 -0.0114911 0.39878)
(0.0204587 0.0227734 0.538087)
(0.0137644 0.0333191 0.593528)
(0.00404943 0.0347131 0.620046)
(-0.00615224 0.0340361 0.608804)
(-0.0148711 0.0296169 0.564816)
(-0.0189055 0.0222088 0.500999)
(-0.0180805 0.0150586 0.432292)
(0.0300189 0.0186883 0.614799)
(0.020927 0.0272785 0.731883)
(0.00608071 0.0272157 0.72062)
(-0.00891214 0.0289704 0.708851)
(-0.0241232 0.0292953 0.664885)
(-0.0277348 0.0189396 0.563837)
(-0.024807 0.0117716 0.475471)
(0.0331475 0.00769808 0.666598)
(0.0232377 0.0110023 0.751413)
(0.0108806 0.0138173 0.798718)
(-0.00604717 0.0173788 0.813027)
(-0.0260351 0.0167413 0.746703)
(-0.0339587 0.00996296 0.612673)
(-0.0286956 0.00548355 0.502933)
(0.0350224 -0.00516463 0.674483)
(0.0247908 -0.00530728 0.752811)
(0.0145491 -0.00330144 0.827891)
(-0.000757801 -0.00233159 0.891409)
(-0.025252 -0.00372115 0.760925)
(-0.0339493 -0.00315632 0.624083)
(-0.0289884 -0.00264794 0.507671)
(0.0316045 -0.0160163 0.637101)
(0.0234022 -0.0226096 0.74539)
(0.0132986 -0.0262333 0.834197)
(-0.00298459 -0.0238403 0.825199)
(-0.0223308 -0.0229158 0.726092)
(-0.0290326 -0.0148572 0.588932)
(-0.0258291 -0.00989918 0.487237)
(0.0240336 -0.021992 0.564833)
(0.0180181 -0.0325285 0.633467)
(0.006971 -0.0350433 0.666594)
(-0.00560526 -0.0313984 0.662165)
(-0.0169616 -0.0292942 0.608512)
(-0.0218547 -0.0209765 0.525803)
(-0.0207187 -0.0143192 0.446919)
(0.0170871 -0.0221514 0.485371)
(0.0116581 -0.0290784 0.527995)
(0.00411504 -0.0316749 0.549704)
(-0.00398525 -0.0300872 0.542999)
(-0.0107182 -0.0271968 0.508324)
(-0.0143269 -0.0218207 0.455506)
(-0.0141745 -0.0157413 0.395452)
(0.0186293 0.0200883 0.536332)
(0.0129446 0.0283204 0.600435)
(0.00355321 0.0331102 0.640618)
(-0.00639174 0.0304986 0.628739)
(-0.0142252 0.0272284 0.574338)
(-0.017451 0.0213482 0.499103)
(-0.0149306 0.0128251 0.420428)
(0.0247346 0.0173791 0.628688)
(0.020951 0.0293712 0.783778)
(0.00675215 0.0275562 0.832147)
(-0.00885314 0.0250736 0.819573)
(-0.0217463 0.0234737 0.699489)
(-0.0253864 0.0181904 0.576533)
(-0.0226908 0.010465 0.469353)
(0.0310412 0.00796905 0.716288)
(0.021591 0.0127184 0.881089)
(0.00374344 0.00944845 0.890928)
(-0.0142539 0.00905264 0.939876)
(-0.0284973 0.011674 0.84716)
(-0.0288587 0.0082859 0.634253)
(-0.0264599 0.00462089 0.502982)
(0.0300331 -0.00574049 0.713298)
(0.0205768 -0.00799723 0.894864)
(0.00334787 -0.00811692 0.913491)
(-0.0123077 -0.00799758 0.994683)
(-0.0232099 -0.00523994 0.893344)
(-0.0269021 -0.0041439 0.65111)
(-0.0259062 -0.00292482 0.509703)
(0.0264686 -0.0161718 0.660216)
(0.0181435 -0.0256996 0.836468)
(0.00423988 -0.0278572 0.909501)
(-0.00729188 -0.0191096 0.916611)
(-0.0203946 -0.0196896 0.79904)
(-0.0238616 -0.0145207 0.609946)
(-0.0231883 -0.00928891 0.486045)
(0.023895 -0.0219067 0.577179)
(0.0171316 -0.02886 0.656373)
(0.00448799 -0.0303152 0.700302)
(-0.00801376 -0.0248848 0.700738)
(-0.016931 -0.0244744 0.631743)
(-0.0209169 -0.0206768 0.535901)
(-0.0183781 -0.0127691 0.438856)
(0.0160617 -0.0208632 0.478149)
(0.0112898 -0.0284142 0.531179)
(0.00323936 -0.0307663 0.557677)
(-0.00457003 -0.0284554 0.552113)
(-0.0102981 -0.025717 0.511448)
(-0.0124649 -0.0204927 0.448584)
(-0.0104974 -0.0127504 0.382084)
(-0.000637694 -0.0037974 0.54153)
(0.000311344 -0.00299049 0.638193)
(4.25468e-05 -0.00289064 0.687246)
(0.00208557 -0.00419972 0.676249)
(0.00384422 -0.00251009 0.604086)
(0.00615875 -0.00300786 0.497156)
(0.0107809 -0.0060087 0.403292)
(-0.00141122 -0.0016462 0.669545)
(0.000891584 0.00165777 0.814883)
(0.00106094 -0.000644227 0.878017)
(0.00460719 -0.00496802 0.856585)
(0.004515 -0.00144803 0.77149)
(0.0042048 0.00119514 0.612588)
(0.00915317 -0.00281912 0.458812)
(-0.000961808 -0.00174012 0.771472)
(-0.000738608 -0.0010925 0.92226)
(-0.00250575 -0.00269962 1.02679)
(-0.00140438 -0.0047921 0.987141)
(0.0037646 -0.00255263 0.878344)
(0.00592107 -6.12826e-05 0.688076)
(0.00853437 -0.0014512 0.502044)
(-0.0026579 -0.000877636 0.792383)
(-0.00309668 -0.00118376 0.938439)
(-0.00328653 -0.00524842 1.06127)
(-0.00249512 -0.0025442 1.02319)
(0.00547616 -0.00131763 0.90631)
(0.00859911 -0.00200885 0.713279)
(0.00931366 -0.00047266 0.513083)
(-0.00145201 -0.00239146 0.717175)
(-0.000912824 -0.00399994 0.867415)
(-0.000825927 -0.00411039 0.947217)
(0.00131145 0.00157914 0.937506)
(0.00476499 0.000949356 0.830537)
(0.00705708 -0.00170286 0.66063)
(0.00975013 0.00113119 0.482681)
(0.000556059 -0.000713862 0.593517)
(0.00426677 -0.00188098 0.723702)
(0.00171986 0.00129828 0.780865)
(0.00116124 0.00475994 0.775873)
(0.00252263 0.00201226 0.687772)
(0.00524843 0.000203009 0.552777)
(0.0106197 0.00354573 0.424035)
(-0.00182263 0.00573261 0.461502)
(0.00141926 0.00326186 0.533147)
(0.00193263 0.00307884 0.573506)
(0.0032373 0.00432318 0.567211)
(0.00553979 0.0046133 0.513027)
(0.00850196 0.00546343 0.433606)
(0.0124801 0.00729066 0.364272)
(0.000434439 -0.000159412 0.380869)
(0.000456769 9.18119e-05 0.343648)
(0.000464844 0.000133918 0.308794)
(0.000512402 0.000110818 0.277153)
(0.000506658 7.41011e-05 0.248656)
(0.000435904 4.1045e-05 0.222439)
(0.000310098 1.77572e-05 0.195983)
(7.34585e-05 5.16641e-05 0.15937)
(0.000695032 -0.000827948 0.40557)
(0.000434181 -0.000394715 0.359189)
(0.000399868 -0.000292215 0.317561)
(0.000402195 -0.000326845 0.280579)
(0.000380144 -0.000392121 0.247807)
(0.000287263 -0.000459837 0.218181)
(0.000122142 -0.000530829 0.188994)
(-0.000178218 -0.000597804 0.150006)
(0.00141411 -0.00115161 0.420014)
(0.000846591 -0.000867319 0.368359)
(0.000649423 -0.000822124 0.322206)
(0.000576788 -0.000862238 0.281525)
(0.000516306 -0.000926127 0.245804)
(0.000391854 -0.000994091 0.213873)
(0.000196623 -0.00106359 0.182899)
(-0.000116564 -0.00110945 0.142387)
(0.00176663 -0.000975626 0.421244)
(0.00109595 -0.00105272 0.367888)
(0.000855487 -0.00114916 0.32025)
(0.000778933 -0.0012473 0.278357)
(0.00072811 -0.00134294 0.241682)
(0.000615001 -0.00143473 0.20903)
(0.000435194 -0.00151369 0.177541)
(0.000137516 -0.00152097 0.136708)
(0.00130139 -0.000907367 0.408149)
(0.000948503 -0.0013093 0.356858)
(0.000894748 -0.00147883 0.311047)
(0.000943121 -0.00160107 0.270689)
(0.000977057 -0.00170308 0.235262)
(0.000932176 -0.00179673 0.203608)
(0.000808263 -0.00186233 0.172943)
(0.000530572 -0.00181761 0.133019)
(0.000860026 -0.00135294 0.383407)
(0.000847186 -0.00180824 0.33749)
(0.000993106 -0.00190824 0.296319)
(0.00116815 -0.00197806 0.259776)
(0.00129193 -0.00203362 0.227416)
(0.00133118 -0.0020847 0.198196)
(0.00128493 -0.00210456 0.169509)
(0.00103565 -0.00200816 0.131605)
(0.00102551 -0.00185908 0.350974)
(0.0012054 -0.00207799 0.313805)
(0.0013805 -0.00211935 0.279175)
(0.00158957 -0.00215529 0.247773)
(0.00174467 -0.00219857 0.219496)
(0.00183846 -0.0022452 0.19351)
(0.00186983 -0.0022624 0.167461)
(0.00170255 -0.00220307 0.132218)
(-0.00499479 0.00411853 0.381459)
(-0.00405746 0.00344326 0.343332)
(-0.00316205 0.00271452 0.308057)
(-0.00235556 0.00203995 0.27638)
(-0.00166214 0.00143513 0.248072)
(-0.00110627 0.000901735 0.22213)
(-0.000703853 0.000442061 0.195921)
(-0.000458296 2.74695e-05 0.159548)
(-0.00627498 0.00306429 0.407333)
(-0.0051447 0.00251718 0.359495)
(-0.00400164 0.00183918 0.317167)
(-0.00295393 0.00119021 0.28)
(-0.00207569 0.000623906 0.247344)
(-0.00139662 0.000139115 0.21795)
(-0.000922734 -0.000276707 0.188986)
(-0.000634034 -0.000645335 0.150221)
(-0.00712127 0.00131763 0.422765)
(-0.00592559 0.000898001 0.369194)
(-0.00459785 0.000427309 0.322062)
(-0.00336021 5.89593e-10 0.281051)
(-0.00231141 -0.000368434 0.245376)
(-0.00149851 -0.000682691 0.213652)
(-0.000919873 -0.0009535 0.182899)
(-0.000541269 -0.00116874 0.142631)
(-0.00754986 -0.000908557 0.424191)
(-0.00618682 -0.0011036 0.368776)
(-0.00471769 -0.00125041 0.320082)
(-0.00336246 -0.00136102 0.27782)
(-0.00222052 -0.00145768 0.241176)
(-0.00133176 -0.00154552 0.20873)
(-0.00069051 -0.00161746 0.177466)
(-0.000262632 -0.00160785 0.13689)
(-0.00705403 -0.00327404 0.410431)
(-0.00561756 -0.00312337 0.357309)
(-0.00414912 -0.00288003 0.310585)
(-0.00281828 -0.00264434 0.269943)
(-0.00171045 -0.00245039 0.234592)
(-0.000847512 -0.00229697 0.20316)
(-0.000227325 -0.00215667 0.172725)
(0.000156669 -0.0019169 0.13306)
(-0.00581406 -0.00513146 0.384432)
(-0.00439366 -0.00464675 0.337155)
(-0.0030649 -0.00409147 0.295371)
(-0.00190226 -0.00358879 0.258711)
(-0.00093634 -0.00316504 0.226503)
(-0.000175966 -0.00281262 0.197531)
(0.00036984 -0.00249601 0.169081)
(0.0006652 -0.00208701 0.131426)
(-0.00406475 -0.0059857 0.350624)
(-0.00290999 -0.00530219 0.312655)
(-0.00186538 -0.00464607 0.277725)
(-0.000944784 -0.00406969 0.246359)
(-0.000147281 -0.00356953 0.218292)
(0.000517169 -0.00313737 0.192568)
(0.00102315 -0.00275105 0.166756)
(0.00131078 -0.00229596 0.131756)
(-0.00987839 0.00788399 0.380136)
(-0.00782515 0.00629301 0.340548)
(-0.00602776 0.00483267 0.304657)
(-0.00450829 0.00359471 0.272885)
(-0.0032251 0.00254551 0.244743)
(-0.00217736 0.00166057 0.219041)
(-0.00135581 0.00092359 0.192992)
(-0.000692371 0.000211666 0.156764)
(-0.0127766 0.00623535 0.407909)
(-0.0100078 0.00484063 0.357712)
(-0.00757586 0.00349446 0.314263)
(-0.00554501 0.00235506 0.276765)
(-0.00390008 0.00142032 0.244186)
(-0.00261678 0.000659116 0.215014)
(-0.00165931 2.88814e-05 0.186254)
(-0.000900095 -0.00054001 0.14769)
(-0.0147391 0.00297134 0.424871)
(-0.011698 0.00208303 0.368214)
(-0.0088465 0.00127792 0.319538)
(-0.00641064 0.000603672 0.277982)
(-0.00443259 4.94628e-05 0.242298)
(-0.00289326 -0.00040564 0.210781)
(-0.00174515 -0.000784788 0.18025)
(-0.000826231 -0.00109844 0.140229)
(-0.0153516 -0.00136051 0.426653)
(-0.0120994 -0.00143868 0.367908)
(-0.00908483 -0.00148662 0.317569)
(-0.00649318 -0.00152099 0.274716)
(-0.004391 -0.00156189 0.238053)
(-0.0027523 -0.00160749 0.205819)
(-0.00152733 -0.00164284 0.174792)
(-0.000550308 -0.00159028 0.134483)
(-0.0139075 -0.00557276 0.411899)
(-0.0108014 -0.00476381 0.355845)
(-0.00798447 -0.00406155 0.30773)
(-0.00558409 -0.00346986 0.266636)
(-0.00364307 -0.00301019 0.231326)
(-0.00212822 -0.0026543 0.200123)
(-0.000998237 -0.00235049 0.169923)
(-0.000125818 -0.00194421 0.130516)
(-0.0111876 -0.00843882 0.383976)
(-0.00841084 -0.00699243 0.334616)
(-0.00603279 -0.00579482 0.291931)
(-0.00406443 -0.00477985 0.25507)
(-0.00247294 -0.00397394 0.223004)
(-0.00122091 -0.00333331 0.194282)
(-0.000287179 -0.00278909 0.166051)
(0.00039677 -0.00215358 0.128614)
(-0.00793944 -0.00941219 0.348207)
(-0.00589596 -0.00784446 0.309057)
(-0.00410948 -0.00653931 0.273702)
(-0.00263472 -0.00544662 0.242354)
(-0.00138102 -0.00453967 0.214503)
(-0.000345114 -0.00378418 0.189031)
(0.000460254 -0.00313471 0.163408)
(0.00105731 -0.00239339 0.128569)
(-0.0137653 0.0110157 0.374997)
(-0.0100537 0.00815145 0.334273)
(-0.00713468 0.0058963 0.298471)
(-0.00493806 0.00415056 0.267372)
(-0.0032405 0.00280662 0.240062)
(-0.00194128 0.00177415 0.215128)
(-0.000986122 0.00101605 0.189642)
(-0.000181308 0.000278258 0.153826)
(-0.0187417 0.00876316 0.404764)
(-0.0135175 0.00631169 0.352313)
(-0.0094015 0.00439933 0.308362)
(-0.00632932 0.00286506 0.271321)
(-0.00406551 0.00170641 0.239561)
(-0.00243485 0.000845913 0.211219)
(-0.00131457 0.000211553 0.18314)
(-0.000400328 -0.000344922 0.145128)
(-0.022066 0.00391416 0.423498)
(-0.0161565 0.00267078 0.363599)
(-0.011328 0.00169546 0.313907)
(-0.00757781 0.000888309 0.272577)
(-0.00480883 0.000248551 0.23766)
(-0.00283035 -0.000244973 0.206999)
(-0.00148822 -0.00061632 0.177203)
(-0.000400549 -0.000913877 0.13781)
(-0.0224199 -0.00220342 0.425784)
(-0.0165102 -0.00189677 0.363518)
(-0.0115549 -0.00169415 0.312016)
(-0.00766287 -0.00159459 0.269329)
(-0.00476501 -0.00155914 0.233426)
(-0.00269114 -0.00155559 0.202067)
(-0.00128745 -0.00155032 0.171799)
(-0.000158056 -0.00145643 0.132162)
(-0.0199578 -0.00765233 0.409985)
(-0.0144954 -0.00592893 0.350991)
(-0.00998795 -0.00469133 0.302041)
(-0.00648206 -0.00378501 0.261268)
(-0.00387276 -0.00313931 0.226766)
(-0.00200234 -0.00268117 0.196436)
(-0.000737591 -0.00232861 0.166983)
(0.000268596 -0.00187664 0.128243)
(-0.0156526 -0.011105 0.380102)
(-0.0109413 -0.00847102 0.32892)
(-0.00727861 -0.00656937 0.286021)
(-0.00450812 -0.0051321 0.249754)
(-0.00244792 -0.00409748 0.218562)
(-0.000954209 -0.00335749 0.190689)
(6.20761e-05 -0.00280188 0.163158)
(0.000858791 -0.00215938 0.126337)
(-0.0106096 -0.0119796 0.342537)
(-0.00732578 -0.00924581 0.302698)
(-0.00470648 -0.0072109 0.267686)
(-0.00272499 -0.0056804 0.237126)
(-0.00117413 -0.00453613 0.210157)
(1.34821e-05 -0.00367535 0.185475)
(0.000859629 -0.0030142 0.160479)
(0.00151838 -0.00223423 0.126159)
(-0.00846952 0.00754234 0.360618)
(-0.00396774 0.00414428 0.320115)
(-0.00107492 0.00193884 0.285867)
(0.000680529 0.000556559 0.256587)
(0.00154441 -0.000176201 0.230849)
(0.00181121 -0.000427965 0.207017)
(0.00182597 -0.000479249 0.182004)
(0.00117013 -0.000104957 0.145625)
(-0.0140896 0.00621721 0.391765)
(-0.00737195 0.00332127 0.338186)
(-0.00287639 0.00147744 0.295445)
(-8.28589e-05 0.000249179 0.26033)
(0.00136759 -0.000538085 0.230443)
(0.00187797 -0.000889989 0.203522)
(0.00198011 -0.00104978 0.176215)
(0.00113378 -0.000742603 0.137899)
(-0.0176918 0.00251216 0.412162)
(-0.00997564 0.00120544 0.349725)
(-0.00442116 0.000316645 0.300749)
(-0.000814983 -0.000292624 0.261303)
(0.00120267 -0.000774858 0.228427)
(0.00202968 -0.00103871 0.199379)
(0.00230277 -0.0011839 0.170516)
(0.00138631 -0.00100692 0.130894)
(-0.0179561 -0.00207337 0.415065)
(-0.0102188 -0.00152607 0.349785)
(-0.00449926 -0.00123059 0.298834)
(-0.000731485 -0.00113332 0.258018)
(0.00143521 -0.00112568 0.22419)
(0.00234336 -0.00114413 0.194474)
(0.00266169 -0.00114069 0.165146)
(0.00168886 -0.0010239 0.125228)
(-0.015385 -0.00580361 0.398241)
(-0.00830575 -0.00369219 0.337071)
(-0.00320647 -0.00238605 0.289)
(0.000107373 -0.00169157 0.250152)
(0.00196125 -0.00127537 0.217615)
(0.0026834 -0.00110048 0.188773)
(0.00289747 -0.000979932 0.160084)
(0.00189548 -0.000961907 0.120854)
(-0.010824 -0.00780507 0.366485)
(-0.00495791 -0.00469317 0.314796)
(-0.00105177 -0.0027849 0.273334)
(0.00138601 -0.00170078 0.23902)
(0.00264999 -0.00112513 0.209551)
(0.00304845 -0.000949818 0.182858)
(0.00308608 -0.000868085 0.155772)
(0.00211649 -0.00106263 0.118143)
(-0.00533984 -0.00769159 0.327935)
(-0.00156068 -0.00452042 0.288818)
(0.000945665 -0.00258492 0.255517)
(0.00248635 -0.00149993 0.226701)
(0.0032528 -0.00103114 0.201084)
(0.00344281 -0.000989462 0.177187)
(0.0033823 -0.00101371 0.152241)
(0.00254038 -0.00130908 0.116723)
(0.014871 -0.00831754 0.347195)
(0.016584 -0.0099889 0.311938)
(0.0171586 -0.0107747 0.283992)
(0.0169555 -0.0108901 0.261319)
(0.0160109 -0.0104409 0.242918)
(0.0143326 -0.00934542 0.228045)
(0.0117068 -0.00746739 0.216208)
(0.00713237 -0.00409831 0.206259)
(0.0147606 -0.00554165 0.375764)
(0.0177834 -0.00692447 0.326724)
(0.0191586 -0.00756539 0.290507)
(0.01934 -0.00773704 0.262381)
(0.0185303 -0.00757828 0.240126)
(0.0167313 -0.00689063 0.222439)
(0.0137399 -0.00559646 0.208673)
(0.00824446 -0.00307736 0.198215)
(0.0147757 -0.00292573 0.395367)
(0.018535 -0.00364367 0.336331)
(0.020467 -0.00403894 0.293689)
(0.0209812 -0.00424404 0.261422)
(0.0203206 -0.00435728 0.236332)
(0.01845 -0.00419529 0.216663)
(0.0151719 -0.00371769 0.201549)
(0.00889006 -0.0025605 0.190595)
(0.015061 -6.00193e-05 0.398461)
(0.0189756 4.16616e-05 0.335947)
(0.021063 -5.61329e-05 0.291255)
(0.021692 -0.000293199 0.257663)
(0.0211067 -0.000564805 0.231681)
(0.0192367 -0.000844356 0.211407)
(0.0158993 -0.00112119 0.195937)
(0.00936888 -0.00136577 0.185076)
(0.0153007 0.0030909 0.381471)
(0.0188073 0.00383842 0.324103)
(0.0206326 0.00396365 0.282489)
(0.0211374 0.00365751 0.250804)
(0.0205275 0.00320892 0.226061)
(0.0187286 0.00249038 0.206632)
(0.0155608 0.00147678 0.191792)
(0.00935982 -0.000157324 0.181543)
(0.0155877 0.00620799 0.35064)
(0.0182305 0.00728061 0.304301)
(0.0194681 0.00749275 0.269489)
(0.0196957 0.00710903 0.242132)
(0.0190034 0.00638516 0.2203)
(0.0173481 0.00518261 0.202908)
(0.0145547 0.00343177 0.189553)
(0.00919806 0.000503069 0.180365)
(0.0157519 0.00916864 0.315613)
(0.0171519 0.0102376 0.282181)
(0.0177308 0.0104628 0.255196)
(0.0176633 0.0100827 0.232972)
(0.0169009 0.00918666 0.214724)
(0.0153997 0.00770503 0.199912)
(0.0129804 0.00554889 0.188408)
(0.00852191 0.00200466 0.180137)
(0.000108361 0.000768739 0.438602)
(0.000527443 0.000622098 0.399372)
(0.000701856 0.000553162 0.362139)
(0.0008242 0.000669636 0.327765)
(0.000908903 0.000855793 0.296358)
(0.000993604 0.0010453 0.267116)
(0.00107738 0.00121795 0.237315)
(0.00120515 0.00128012 0.195581)
(-0.000889823 0.000914257 0.487414)
(-0.000250675 0.00051948 0.439375)
(0.000106773 0.000282661 0.395169)
(0.000231865 0.000239811 0.35502)
(0.000283549 0.000366619 0.318773)
(0.0003213 0.000549231 0.285493)
(0.000382406 0.00076569 0.252199)
(0.000573067 0.00099404 0.206485)
(-0.00267025 0.00114312 0.526648)
(-0.00125908 0.000570193 0.472141)
(-0.000494374 0.000274948 0.422608)
(-0.000141433 0.000100224 0.377825)
(-4.87976e-05 0.0001063 0.337672)
(-3.62962e-05 0.000181993 0.301149)
(-2.7031e-05 0.000296137 0.265075)
(0.000114859 0.00044201 0.216183)
(-0.00487292 -0.000348322 0.546995)
(-0.0024555 -0.000374255 0.489788)
(-0.00113698 -0.000322925 0.437989)
(-0.000504944 -0.000243156 0.391158)
(-0.000273002 -0.000178183 0.349258)
(-0.000189991 -0.000151397 0.311278)
(-0.000162585 -0.000170478 0.273945)
(-2.06462e-05 -0.000254384 0.223568)
(-0.00471959 -0.00255895 0.544595)
(-0.00245418 -0.00172247 0.487872)
(-0.00128748 -0.00112969 0.437533)
(-0.000691222 -0.000709661 0.392029)
(-0.000417351 -0.000532136 0.351204)
(-0.00025983 -0.000522075 0.314055)
(-0.000134513 -0.000653132 0.277337)
(0.000139056 -0.000931121 0.227415)
(-0.00265721 -0.003088 0.517665)
(-0.00151148 -0.00215356 0.468018)
(-0.000854481 -0.00139404 0.422707)
(-0.000485807 -0.000993487 0.38149)
(-0.000211567 -0.000886972 0.344198)
(2.1921e-05 -0.000958513 0.309908)
(0.000283118 -0.00117708 0.275516)
(0.000708028 -0.00154285 0.227928)
(-0.00130656 -0.00255908 0.47695)
(-0.000729367 -0.00197578 0.436957)
(-0.000312405 -0.00159561 0.398843)
(5.04859e-05 -0.00142155 0.363495)
(0.000397443 -0.00141214 0.331094)
(0.00071173 -0.00147738 0.300807)
(0.00102716 -0.00160059 0.269742)
(0.00142079 -0.00170723 0.225573)
(0.00652513 -0.00595182 0.438651)
(0.00569336 -0.00479005 0.397879)
(0.00482987 -0.00363255 0.359617)
(0.00400076 -0.00252058 0.324729)
(0.00321107 -0.00150805 0.293167)
(0.00250018 -0.000612797 0.263981)
(0.00190113 0.000134089 0.234336)
(0.00137721 0.000710695 0.19295)
(0.00780162 -0.00562949 0.489827)
(0.00682566 -0.00459323 0.439537)
(0.00566096 -0.00362339 0.393768)
(0.00444053 -0.00266499 0.352689)
(0.00330264 -0.00176757 0.316007)
(0.00228789 -0.000944636 0.282602)
(0.00147974 -0.000207768 0.249345)
(0.000898002 0.000477565 0.203914)
(0.00925465 -0.00366806 0.531725)
(0.00820983 -0.00302149 0.474083)
(0.00693247 -0.00248254 0.422375)
(0.00544085 -0.00196892 0.376243)
(0.00392706 -0.00143531 0.335372)
(0.00255335 -0.000940347 0.298551)
(0.00142112 -0.000486697 0.262414)
(0.000587335 -3.86904e-05 0.213756)
(0.00947866 -0.000758491 0.553625)
(0.00870874 -0.000694451 0.492866)
(0.00749886 -0.00056421 0.438529)
(0.0059639 -0.000446629 0.390098)
(0.00432789 -0.000397062 0.347311)
(0.00281637 -0.000400712 0.308924)
(0.00154872 -0.000454591 0.27146)
(0.00058868 -0.000561114 0.221273)
(0.00799996 0.00176741 0.549876)
(0.00752085 0.00142959 0.490839)
(0.00655959 0.00123952 0.43821)
(0.00525746 0.00103518 0.391129)
(0.00385754 0.00063699 0.349422)
(0.00258205 0.000161371 0.311868)
(0.00153694 -0.000375579 0.275022)
(0.000796162 -0.00100753 0.225287)
(0.00667733 0.00342133 0.521569)
(0.00611937 0.00294117 0.469903)
(0.00525531 0.00243434 0.422712)
(0.00424699 0.0018229 0.380223)
(0.00325952 0.0010657 0.34226)
(0.00238605 0.000267749 0.307706)
(0.00171584 -0.000551433 0.273278)
(0.00130732 -0.00143461 0.225935)
(0.00561496 0.00428144 0.47898)
(0.00504247 0.00354568 0.437277)
(0.00439843 0.00270619 0.397788)
(0.00377702 0.00181077 0.361638)
(0.003181 0.000904369 0.328885)
(0.00264417 5.17373e-05 0.298534)
(0.00221401 -0.000723208 0.26756)
(0.00188929 -0.00139061 0.223713)
(0.0112192 -0.0109652 0.437092)
(0.00931571 -0.00869132 0.393768)
(0.00759209 -0.0065533 0.353994)
(0.0060204 -0.00472978 0.318432)
(0.00462796 -0.0031352 0.286695)
(0.00341368 -0.00176955 0.257582)
(0.0023924 -0.000650461 0.228111)
(0.00143286 0.000281095 0.187082)
(0.0148325 -0.0105981 0.492199)
(0.0123819 -0.00851261 0.437989)
(0.00988998 -0.00662506 0.389683)
(0.00754402 -0.00497331 0.347159)
(0.00542016 -0.00347827 0.309856)
(0.00363712 -0.00216832 0.276297)
(0.00221882 -0.00103598 0.243102)
(0.00106963 8.62309e-06 0.198017)
(0.018493 -0.00725385 0.537478)
(0.0159267 -0.00586585 0.475227)
(0.0130105 -0.00475409 0.419953)
(0.00994147 -0.00371761 0.371663)
(0.00705221 -0.00277524 0.329696)
(0.0045401 -0.00193058 0.292454)
(0.00251995 -0.00118967 0.256249)
(0.000910484 -0.000472197 0.207913)
(0.0203236 -0.00180537 0.561547)
(0.0177885 -0.00137583 0.495593)
(0.0146642 -0.00104535 0.437115)
(0.0113218 -0.000807664 0.386131)
(0.00806479 -0.000714317 0.341983)
(0.00521471 -0.000701037 0.303025)
(0.00289309 -0.000752349 0.265417)
(0.00102832 -0.000849622 0.215518)
(0.0189516 0.00393389 0.557626)
(0.0164103 0.00325109 0.493529)
(0.0134468 0.0028125 0.436756)
(0.0103761 0.00221733 0.387179)
(0.00743762 0.00146718 0.34417)
(0.00491395 0.000656809 0.306078)
(0.00288512 -0.000175942 0.269095)
(0.00128571 -0.00107684 0.219645)
(0.015888 0.00826278 0.526812)
(0.01322 0.00668226 0.470529)
(0.0106326 0.00531891 0.420001)
(0.00820009 0.00393107 0.375599)
(0.00605048 0.0025545 0.336727)
(0.00422427 0.00122633 0.301859)
(0.00280579 -2.56052e-05 0.267413)
(0.00171114 -0.00129067 0.22039)
(0.0118961 0.0100931 0.480209)
(0.00992957 0.00793983 0.435112)
(0.00814407 0.00593341 0.39349)
(0.0065922 0.00414632 0.356253)
(0.00521146 0.00254387 0.323082)
(0.00402161 0.00113834 0.292688)
(0.00304317 -6.3809e-05 0.261835)
(0.00215851 -0.0011107 0.218338)
(0.0154084 -0.0154975 0.432123)
(0.0118548 -0.0111311 0.385846)
(0.00894283 -0.00795975 0.344962)
(0.00658777 -0.00559727 0.309377)
(0.00475376 -0.0036552 0.278139)
(0.0032865 -0.00207426 0.249712)
(0.0021266 -0.00084345 0.220895)
(0.00101072 0.000199936 0.180486)
(0.0222534 -0.0155354 0.4924)
(0.0177574 -0.0116089 0.432969)
(0.0132141 -0.00871524 0.381771)
(0.00940104 -0.00655871 0.338167)
(0.00628547 -0.00457111 0.300856)
(0.00392541 -0.00288829 0.267794)
(0.0021736 -0.00149496 0.235227)
(0.000736123 -0.000237048 0.190842)
(0.0285994 -0.0110002 0.542506)
(0.0243683 -0.00853131 0.473413)
(0.0188694 -0.00665531 0.413639)
(0.0136041 -0.00520002 0.363144)
(0.00908543 -0.00383745 0.320571)
(0.00550406 -0.00265501 0.283563)
(0.00283434 -0.00166484 0.247897)
(0.000724487 -0.000731516 0.200278)
(0.0324102 -0.00339044 0.569153)
(0.0280324 -0.00238924 0.495684)
(0.0220483 -0.00168952 0.431851)
(0.0160822 -0.00124771 0.378079)
(0.0108434 -0.00102989 0.332964)
(0.0066224 -0.000959155 0.294058)
(0.00345128 -0.000986841 0.256919)
(0.000944614 -0.00106102 0.207733)
(0.0313007 0.00550846 0.56463)
(0.0264301 0.00452778 0.493013)
(0.020448 0.00386472 0.431196)
(0.0148359 0.00314372 0.379074)
(0.0100349 0.00214713 0.335224)
(0.00625631 0.00105414 0.29724)
(0.00344456 -2.93751e-05 0.260729)
(0.00124104 -0.00114955 0.211966)
(0.0255415 0.0125183 0.529697)
(0.0202538 0.00948716 0.467016)
(0.0151911 0.00724255 0.412888)
(0.010937 0.00544806 0.366907)
(0.00752554 0.0036148 0.327767)
(0.00492043 0.00188652 0.293274)
(0.0030401 0.000321138 0.25941)
(0.00156181 -0.00121265 0.213067)
(0.0179391 0.0149821 0.477341)
(0.0138172 0.0107382 0.428272)
(0.0105108 0.007495 0.384879)
(0.00789612 0.00514245 0.347216)
(0.00586253 0.00314734 0.314357)
(0.00426466 0.0014866 0.28459)
(0.00303612 0.00013753 0.254399)
(0.00189114 -0.00104541 0.211533)
(0.0124706 -0.0113898 0.41745)
(0.0076785 -0.00576909 0.368885)
(0.00435057 -0.00258484 0.328591)
(0.00206702 -0.00106266 0.294426)
(0.000908273 5.05393e-05 0.264783)
(0.000340105 0.000758798 0.237773)
(5.41297e-05 0.00123047 0.209923)
(0.000304658 0.00124026 0.16968)
(0.0210034 -0.0133256 0.485654)
(0.0147258 -0.00786234 0.417898)