/*--------------------------------*- C++ -*----------------------------------*\
| =========                 |                                                 |
| \\      /  F ield         | OpenFOAM: The Open Source CFD Toolbox           |
|  \\    /   O peration     | Version:  plus.master                           |
|   \\  /    A nd           | Web:      www.OpenFOAM.com                      |
|    \\/     M anipulation  |                                                 |
\*---------------------------------------------------------------------------*/
FoamFile
{
    version     2.0;
    format      ascii;
    class       volScalarField;
    location    "13.2";
    object      p;
}
// * * * * * * * * * * * * * * * * * * * * * * * * * * * * * * * * * * * * * //

dimensions      [1 -1 -2 0 0 0 0];

internalField   nonuniform List<scalar> 
47285
(
5614.74
5608.35
5608.13
5609.22
5608.85
5610.09
5615.89
5607.5
5617.87
5608.05
5609.48
5610.62
5619.46
5609.41
5606.77
5609.81
5609.5
5607.34
5610.61
5609.59
5609
5608.7
5608.61
5607.66
5607.16
5607.52
5610.68
5609.79
5608.43
5610.3
5610.22
5607.53
5609.57
5608.27
5608.33
5608.85
5619.16
5609.87
5608.47
5610.52
5617.08
5609.55
5615.77
5608.67
5608.72
5608.11
5606.51
5608.7
5615.06
5513.33
5515.49
5517.1
5517.29
5515.78
5513.63
5511.87
5515.66
5521.94
5527.14
5527.51
5523.01
5518.3
5513.79
5518.24
5529.77
5545.34
5543.17
5540.8
5521.38
5515.82
5518.84
5529.8
5544.3
5548.55
5541.16
5523.47
5516.8
5518.47
5528.37
5543.87
5544.89
5542.37
5523.55
5516.56
5515.7
5525.33
5527.44
5530.26
5527.51
5519.05
5514.94
5513.73
5515.82
5517.58
5518.31
5517.42
5514.93
5512.68
5393.65
5397.89
5400.68
5401.41
5399.05
5395.13
5390.87
5398.09
5404.8
5410.37
5414
5407.38
5400.92
5394.84
5401.72
5414.01
5429
5432.37
5421.25
5406.08
5398.09
5403.51
5418.69
5434.42
5441.01
5425.68
5407.17
5399.22
5402.37
5415.27
5430.61
5435.74
5424.69
5406.8
5398.9
5399.21
5407.18
5413.97
5418.77
5410.48
5402.01
5395.6
5394.85
5399.33
5402.36
5403.6
5400.64
5396.44
5391.86
5260.71
5266
5269.61
5270.12
5266.97
5261.99
5256.61
5266.51
5273.91
5280.92
5282.77
5276.43
5268.99
5261.57
5271.46
5283
5297.35
5301.83
5287.77
5275.5
5265.88
5274.01
5289.39
5305.79
5312.53
5292.34
5278.39
5267.91
5272.54
5284.75
5300.27
5306.74
5292.62
5278.03
5267.32
5268.16
5276.21
5284.2
5288.54
5280
5271.5
5263.37
5262.56
5268.06
5271.99
5272.82
5269.45
5264.11
5258.19
5100.46
5106.72
5111.42
5112.3
5108
5101.94
5095.97
5107.61
5117.21
5125.66
5128
5119.64
5109.97
5101.29
5114.19
5128.1
5141.54
5145.17
5131.59
5117.9
5106.21
5117.89
5135.02
5151.75
5156.86
5136.52
5122.15
5108.72
5116.02
5131.22
5146.16
5151.11
5136.33
5120.74
5107.68
5109.97
5120.58
5130.61
5134.26
5124.08
5113.03
5103.14
5102.79
5109.74
5115.26
5116.55
5111.33
5104.35
5097.53
5620.86
5624.46
5627.46
5629.4
5630.88
5632
5632.86
5633.52
5617.7
5623.33
5626.78
5629.04
5630.73
5631.99
5632.94
5633.67
5616.66
5622.62
5626.53
5628.97
5630.73
5632.05
5633.03
5633.77
5616.97
5623.19
5626.76
5628.91
5630.67
5632.01
5633.01
5633.74
5616.89
5622.95
5626.53
5628.98
5630.74
5632.05
5633.02
5633.76
5617.65
5623.29
5626.82
5629.1
5630.77
5632.03
5632.98
5633.7
5620.59
5624.63
5627.38
5629.39
5630.9
5632.05
5632.92
5633.6
5510.4
5509.36
5508.6
5508.05
5507.67
5507.41
5507.25
5507.16
5511.73
5510.14
5509.04
5508.3
5507.81
5507.48
5507.28
5507.16
5513.1
5511.1
5509.64
5508.66
5508.02
5507.6
5507.34
5507.2
5513.74
5511.54
5509.93
5508.84
5508.14
5507.69
5507.41
5507.26
5513.53
5511.39
5509.85
5508.83
5508.16
5507.73
5507.46
5507.31
5512.45
5510.7
5509.46
5508.63
5508.08
5507.72
5507.49
5507.37
5511.04
5509.89
5509.04
5508.42
5507.99
5507.7
5507.51
5507.4
5387.36
5384.9
5382.91
5381.32
5380.07
5379.1
5378.39
5377.91
5390.06
5386.61
5383.98
5381.97
5380.44
5379.29
5378.46
5377.92
5392.25
5388.09
5384.92
5382.56
5380.79
5379.49
5378.56
5377.96
5393.21
5388.79
5385.39
5382.87
5380.99
5379.62
5378.64
5378
5392.8
5388.5
5385.22
5382.78
5380.97
5379.63
5378.67
5378.04
5390.69
5387.14
5384.41
5382.33
5380.74
5379.54
5378.66
5378.08
5388.09
5385.48
5383.38
5381.7
5380.38
5379.36
5378.59
5378.07
5252.33
5249.28
5246.96
5245.3
5244.3
5243.94
5244.27
5245.26
5255.52
5251.25
5248.09
5245.86
5244.46
5243.87
5244.11
5245.13
5258.37
5253.07
5249.19
5246.48
5244.76
5243.97
5244.1
5245.11
5259.82
5254.05
5249.81
5246.87
5244.99
5244.1
5244.17
5245.17
5259.34
5253.73
5249.63
5246.8
5245
5244.15
5244.25
5245.23
5256.74
5252.1
5248.71
5246.33
5244.83
5244.18
5244.36
5245.35
5253.27
5249.98
5247.49
5245.72
5244.63
5244.21
5244.5
5245.47
5091.68
5088.49
5086.01
5084.15
5082.75
5081.36
5079.72
5079.73
5094.88
5090.41
5087.08
5084.68
5082.96
5081.41
5079.6
5079.45
5097.81
5092.2
5088.15
5085.28
5083.28
5081.55
5079.59
5079.3
5099.31
5093.13
5088.72
5085.64
5083.5
5081.69
5079.66
5079.31
5098.64
5092.72
5088.48
5085.51
5083.44
5081.67
5079.68
5079.37
5095.98
5091.14
5087.59
5085.05
5083.25
5081.64
5079.79
5079.59
5092.56
5089.06
5086.41
5084.45
5082.99
5081.57
5079.92
5079.91
5621.66
5625.44
5628.39
5630.34
5631.83
5632.94
5633.79
5634.44
5617.46
5623.62
5628.21
5630.17
5631.77
5632.98
5633.89
5634.55
5616.45
5622.97
5627.89
5630.06
5631.88
5633.17
5634.1
5634.79
5617.03
5622.9
5627.32
5629.88
5631.84
5633.22
5634.22
5634.96
5614.98
5622.2
5628.25
5630.08
5631.76
5632.99
5633.9
5634.57
5616.75
5623.26
5627.62
5629.74
5631.44
5632.64
5633.55
5634.25
5620.9
5624.88
5627.92
5629.94
5631.47
5632.61
5633.49
5634.16
5512.24
5511.06
5510.17
5509.5
5509
5508.64
5508.37
5508.19
5513.69
5512.01
5510.77
5509.87
5509.22
5508.75
5508.41
5508.17
5515.58
5513.22
5511.59
5510.43
5509.63
5509.06
5508.66
5508.37
5516.22
5513.58
5511.8
5510.55
5509.71
5509.12
5508.7
5508.41
5515.4
5512.96
5511.31
5510.14
5509.34
5508.78
5508.39
5508.11
5513.48
5511.71
5510.45
5509.54
5508.91
5508.45
5508.12
5507.89
5511.84
5510.64
5509.75
5509.08
5508.59
5508.24
5507.99
5507.83
5390.81
5387.84
5385.42
5383.51
5382
5380.82
5379.91
5379.26
5393.8
5389.85
5386.72
5384.3
5382.45
5381.04
5379.98
5379.24
5396.1
5391.57
5387.94
5385.1
5382.95
5381.34
5380.15
5379.33
5396.79
5392
5388.23
5385.28
5383.03
5381.36
5380.15
5379.31
5395.5
5391
5387.43
5384.66
5382.56
5380.99
5379.84
5379.04
5392.92
5389.09
5386.07
5383.74
5381.95
5380.58
5379.57
5378.86
5389.84
5387
5384.69
5382.86
5381.41
5380.27
5379.42
5378.81
5257.1
5253.21
5250.2
5248.05
5246.65
5245.98
5246.04
5246.83
5261.03
5255.75
5251.63
5248.68
5246.76
5245.77
5245.67
5246.42
5264.08
5257.95
5253.04
5249.42
5247.07
5245.82
5245.61
5246.32
5264.93
5258.53
5253.43
5249.61
5247.09
5245.74
5245.46
5246.1
5263.17
5257.13
5252.35
5248.88
5246.62
5245.44
5245.25
5245.97
5259.64
5254.57
5250.67
5247.89
5246.08
5245.17
5245.12
5245.89
5255.61
5251.98
5249.2
5247.18
5245.88
5245.28
5245.4
5246.22
5096.62
5092.37
5089.13
5086.76
5085.02
5083.42
5081.68
5081.7
5101.07
5094.95
5090.42
5087.27
5085.11
5083.32
5081.46
5081.46
5104.81
5097.23
5091.58
5087.67
5085.07
5083.06
5081.09
5081.25
5105.9
5097.89
5091.91
5087.71
5084.95
5082.85
5080.86
5081.21
5103.61
5096.35
5090.95
5087.2
5084.71
5082.75
5080.81
5081
5099.4
5093.71
5089.51
5086.57
5084.52
5082.8
5080.98
5081.03
5095.03
5091.16
5088.16
5085.94
5084.29
5082.76
5081.07
5081.11
5620.96
5625.04
5627.74
5629.69
5631.2
5632.34
5633.19
5633.83
5617.69
5623.02
5626.61
5629.09
5630.93
5632.27
5633.24
5633.97
5616.78
5622.85
5626.54
5628.98
5630.94
5632.34
5633.37
5634.12
5617.4
5622.79
5626.52
5629.02
5630.9
5632.27
5633.28
5634.03
5616.81
5622.61
5627
5629.14
5630.88
5632.16
5633.13
5633.86
5617.72
5623.2
5627.31
5629.32
5630.91
5632.1
5633.01
5633.67
5621.1
5624.72
5627.72
5629.58
5631.01
5632.11
5632.96
5633.62
5511.68
5510.51
5509.61
5508.94
5508.46
5508.12
5507.89
5507.74
5513.06
5511.32
5510.05
5509.16
5508.55
5508.13
5507.84
5507.65
5514.11
5511.96
5510.41
5509.33
5508.61
5508.14
5507.82
5507.62
5514.29
5511.97
5510.34
5509.22
5508.48
5507.99
5507.66
5507.45
5513.25
5511.23
5509.83
5508.86
5508.21
5507.77
5507.48
5507.29
5511.75
5510.24
5509.18
5508.44
5507.93
5507.58
5507.36
5507.23
5510.46
5509.43
5508.67
5508.12
5507.72
5507.45
5507.28
5507.18
5389.67
5386.82
5384.51
5382.68
5381.25
5380.14
5379.3
5378.71
5392.53
5388.66
5385.63
5383.32
5381.58
5380.26
5379.29
5378.63
5394.4
5389.93
5386.4
5383.73
5381.75
5380.29
5379.24
5378.55
5394.68
5389.99
5386.34
5383.59
5381.56
5380.07
5379
5378.3
5393.07
5388.78
5385.5
5383.02
5381.17
5379.8
5378.82
5378.17
5390.38
5386.91
5384.25
5382.21
5380.65
5379.48
5378.62
5378.05
5387.51
5385.02
5383.03
5381.42
5380.16
5379.18
5378.46
5377.97
5255.33
5251.67
5248.92
5246.95
5245.7
5245.16
5245.34
5246.21
5259.08
5254.04
5250.23
5247.56
5245.87
5245.06
5245.12
5246.01
5261.52
5255.63
5251.08
5247.89
5245.87
5244.87
5244.84
5245.73
5261.73
5255.68
5251
5247.72
5245.64
5244.61
5244.57
5245.47
5259.46
5254
5249.91
5247.05
5245.22
5244.34
5244.39
5245.33
5256
5251.68
5248.47
5246.2
5244.76
5244.14
5244.32
5245.3
5252.48
5249.44
5247.12
5245.44
5244.42
5244.05
5244.36
5245.33
5094.65
5090.72
5087.76
5085.61
5084.02
5082.54
5080.86
5080.87
5098.57
5093.06
5089.05
5086.24
5084.28
5082.59
5080.72
5080.57
5101.42
5094.71
5089.86
5086.53
5084.27
5082.42
5080.42
5080.2
5101.87
5094.91
5089.89
5086.45
5084.13
5082.24
5080.21
5080
5099.26
5093.26
5088.91
5085.88
5083.77
5081.99
5080.02
5079.79
5095.51
5090.96
5087.56
5085.11
5083.36
5081.79
5079.98
5079.85
5091.87
5088.69
5086.19
5084.31
5082.89
5081.49
5079.85
5079.86
5620.83
5624.6
5627.58
5629.61
5631.13
5632.28
5633.15
5633.84
5617.05
5623.34
5627.64
5629.7
5631.35
5632.56
5633.46
5634.14
5615.09
5622.13
5628.12
5629.94
5631.59
5632.8
5633.71
5634.39
5616.93
5622.57
5627.07
5629.69
5631.6
5632.95
5633.94
5634.68
5617.23
5623.05
5627.18
5629.72
5631.56
5632.95
5633.95
5634.68
5618.01
5623.61
5627.37
5629.76
5631.56
5632.87
5633.82
5634.52
5621.65
5625.48
5628.32
5630.31
5631.77
5632.88
5633.72
5634.35
5511.19
5510.05
5509.19
5508.56
5508.11
5507.79
5507.57
5507.43
5512.77
5511.1
5509.87
5509.01
5508.41
5507.99
5507.7
5507.51
5514.58
5512.22
5510.69
5509.6
5508.85
5508.33
5507.97
5507.72
5515.78
5513.08
5511.31
5510.1
5509.28
5508.72
5508.34
5508.07
5515.09
5512.88
5511.3
5510.19
5509.41
5508.87
5508.49
5508.23
5513.71
5512.03
5510.76
5509.83
5509.16
5508.69
5508.35
5508.11
5512.2
5511.03
5510.12
5509.45
5508.96
5508.6
5508.34
5508.17
5388.35
5385.74
5383.63
5381.92
5380.57
5379.52
5378.73
5378.19
5391.5
5387.83
5385
5382.81
5381.13
5379.85
5378.91
5378.26
5394.46
5389.98
5386.5
5383.84
5381.84
5380.35
5379.27
5378.53
5396.37
5391.42
5387.61
5384.67
5382.47
5380.85
5379.68
5378.88
5395.93
5391.36
5387.69
5384.84
5382.69
5381.09
5379.94
5379.14
5393.87
5389.84
5386.66
5384.21
5382.35
5380.94
5379.9
5379.16
5390.76
5387.79
5385.37
5383.46
5381.95
5380.78
5379.88
5379.23
5253.59
5250.34
5247.84
5246
5244.85
5244.37
5244.6
5245.52
5257.49
5252.76
5249.23
5246.73
5245.12
5244.35
5244.42
5245.31
5261.34
5255.48
5250.98
5247.79
5245.74
5244.71
5244.65
5245.48
5263.75
5257.41
5252.41
5248.76
5246.41
5245.18
5245
5245.72
5263.52
5257.41
5252.54
5249
5246.72
5245.55
5245.4
5246.17
5260.86
5255.57
5251.46
5248.54
5246.65
5245.7
5245.64
5246.42
5257.01
5253.11
5250.11
5247.97
5246.58
5245.92
5246
5246.79
5092.95
5089.53
5086.82
5084.78
5083.26
5081.82
5080.17
5080.2
5097.01
5091.94
5088.19
5085.52
5083.65
5082.04
5080.27
5080.29
5101.45
5094.68
5089.72
5086.29
5083.99
5082.13
5080.21
5080.32
5104.61
5096.76
5091.02
5087.06
5084.47
5082.48
5080.51
5080.77
5104.04
5096.6
5091.11
5087.32
5084.82
5082.85
5080.88
5080.93
5100.77
5094.69
5090.23
5087.13
5085
5083.23
5081.35
5081.29
5096.49
5092.22
5088.99
5086.64
5084.92
5083.33
5081.59
5081.62
5634.05
5634.2
5634.29
5634.26
5634.28
5634.24
5634.12
5507.14
5507.13
5507.15
5507.21
5507.27
5507.33
5507.36
5377.67
5377.67
5377.69
5377.72
5377.75
5377.79
5377.79
5246.58
5246.53
5246.53
5246.59
5246.64
5246.72
5246.77
5086
5086.04
5086.08
5086.14
5086.14
5086.16
5086.18
5634.92
5635.01
5635.24
5635.46
5635
5634.72
5634.66
5508.07
5508.01
5508.19
5508.23
5507.94
5507.75
5507.74
5378.85
5378.8
5378.84
5378.83
5378.58
5378.44
5378.44
5247.97
5247.59
5247.46
5247.11
5247.11
5247.08
5247.41
5088.03
5088.3
5088.89
5089.54
5088.75
5087.99
5087.44
5634.32
5634.51
5634.62
5634.54
5634.34
5634.16
5634.14
5507.66
5507.55
5507.51
5507.34
5507.21
5507.18
5507.16
5378.36
5378.28
5378.2
5377.97
5377.85
5377.76
5377.72
5247.44
5247.3
5247.07
5246.8
5246.71
5246.66
5246.64
5087.18
5087.19
5087.12
5087.11
5086.67
5086.45
5086.13
5634.36
5634.61
5634.84
5635.18
5635.17
5635.02
5634.83
5507.37
5507.39
5507.57
5507.92
5508.06
5507.96
5508.05
5377.88
5377.9
5378.12
5378.44
5378.69
5378.73
5378.82
5246.8
5246.6
5246.72
5246.84
5247.36
5247.63
5247.95
5086.52
5087.16
5087.87
5088.82
5088.38
5088.05
5087.95
5634.75
5635.41
5635.88
5636.19
5636.38
5636.5
5636.55
5636.56
5634.87
5635.51
5635.94
5636.22
5636.4
5636.5
5636.54
5636.55
5634.93
5635.54
5635.96
5636.23
5636.41
5636.51
5636.55
5636.55
5634.95
5635.58
5635.98
5636.27
5636.45
5636.53
5636.57
5636.57
5634.92
5635.56
5635.99
5636.28
5636.47
5636.57
5636.62
5636.62
5634.94
5635.61
5636.05
5636.34
5636.52
5636.63
5636.68
5636.68
5634.87
5635.54
5636.01
5636.32
5636.53
5636.65
5636.71
5636.71
5507.14
5507.09
5507.07
5507.05
5507.03
5507.02
5507
5506.97
5507.12
5507.1
5507.09
5507.07
5507.05
5507.03
5507.01
5506.97
5507.13
5507.11
5507.1
5507.08
5507.06
5507.04
5507.01
5506.98
5507.19
5507.19
5507.17
5507.14
5507.1
5507.07
5507.04
5507.01
5507.25
5507.19
5507.15
5507.12
5507.1
5507.08
5507.06
5507.03
5507.3
5507.23
5507.18
5507.15
5507.13
5507.11
5507.09
5507.06
5507.28
5507.2
5507.16
5507.13
5507.11
5507.1
5507.09
5507.07
5377.42
5377.29
5377.29
5377.33
5377.36
5377.39
5377.41
5377.4
5377.44
5377.31
5377.3
5377.34
5377.37
5377.4
5377.41
5377.41
5377.45
5377.32
5377.32
5377.35
5377.38
5377.41
5377.42
5377.41
5377.47
5377.34
5377.33
5377.36
5377.4
5377.42
5377.44
5377.43
5377.48
5377.35
5377.35
5377.38
5377.41
5377.44
5377.46
5377.45
5377.5
5377.37
5377.37
5377.4
5377.44
5377.47
5377.48
5377.48
5377.48
5377.35
5377.35
5377.38
5377.42
5377.45
5377.47
5377.47
5247.95
5247.85
5247.72
5247.66
5247.65
5247.67
5247.7
5247.73
5247.91
5247.83
5247.71
5247.65
5247.64
5247.67
5247.7
5247.73
5247.91
5247.82
5247.7
5247.64
5247.64
5247.66
5247.7
5247.74
5247.95
5247.84
5247.72
5247.66
5247.65
5247.68
5247.72
5247.75
5247.99
5247.86
5247.72
5247.66
5247.66
5247.69
5247.73
5247.76
5248.07
5247.91
5247.76
5247.69
5247.68
5247.71
5247.75
5247.79
5248.12
5247.94
5247.78
5247.71
5247.69
5247.71
5247.75
5247.78
5099.67
5108.4
5112.74
5115.08
5116.4
5117.16
5117.61
5117.88
5099.64
5108.38
5112.73
5115.07
5116.39
5117.16
5117.61
5117.88
5099.63
5108.37
5112.72
5115.07
5116.39
5117.16
5117.61
5117.88
5099.66
5108.39
5112.73
5115.08
5116.4
5117.17
5117.63
5117.9
5099.69
5108.41
5112.75
5115.09
5116.41
5117.18
5117.64
5117.91
5099.76
5108.47
5112.8
5115.13
5116.45
5117.21
5117.66
5117.93
5099.87
5108.55
5112.87
5115.18
5116.48
5117.23
5117.67
5117.93
5635.57
5636.17
5636.55
5636.78
5636.93
5637.01
5637.05
5637.06
5635.6
5636.15
5636.47
5636.67
5636.79
5636.85
5636.87
5636.85
5635.78
5636.21
5636.46
5636.61
5636.68
5636.71
5636.72
5636.7
5636.04
5636.46
5636.71
5636.8
5636.84
5636.85
5636.83
5636.82
5635.52
5635.97
5636.25
5636.43
5636.53
5636.58
5636.6
5636.6
5635.36
5635.94
5636.26
5636.48
5636.61
5636.69
5636.72
5636.71
5635.31
5635.94
5636.34
5636.58
5636.73
5636.82
5636.86
5636.87
5507.89
5507.71
5507.59
5507.5
5507.43
5507.39
5507.36
5507.32
5507.82
5507.67
5507.58
5507.48
5507.39
5507.31
5507.26
5507.21
5507.95
5507.73
5507.57
5507.44
5507.33
5507.25
5507.18
5507.12
5508
5507.79
5507.62
5507.49
5507.38
5507.29
5507.23
5507.18
5507.72
5507.52
5507.39
5507.28
5507.19
5507.12
5507.06
5507.02
5507.57
5507.44
5507.37
5507.29
5507.22
5507.16
5507.12
5507.07
5507.63
5507.47
5507.37
5507.31
5507.26
5507.22
5507.2
5507.17
5378.35
5378.04
5377.9
5377.83
5377.79
5377.76
5377.74
5377.71
5378.3
5377.91
5377.75
5377.66
5377.62
5377.61
5377.6
5377.58
5378.32
5377.98
5377.82
5377.72
5377.65
5377.61
5377.57
5377.53
5378.32
5377.95
5377.76
5377.66
5377.6
5377.56
5377.53
5377.52
5378.08
5377.75
5377.6
5377.51
5377.45
5377.43
5377.42
5377.4
5377.98
5377.64
5377.5
5377.44
5377.43
5377.43
5377.44
5377.44
5378
5377.73
5377.63
5377.6
5377.59
5377.59
5377.58
5377.57
5249.08
5248.7
5248.39
5248.19
5248.08
5248.04
5248.02
5248.02
5248.77
5248.57
5248.28
5248.09
5247.99
5247.94
5247.92
5247.91
5248.79
5248.74
5248.5
5248.29
5248.16
5248.08
5248.02
5247.99
5248.26
5248.33
5248.25
5248.14
5248.04
5247.97
5247.93
5247.89
5248.47
5248.49
5248.32
5248.15
5248.04
5247.96
5247.91
5247.88
5248.37
5248.31
5248.09
5247.94
5247.85
5247.81
5247.8
5247.8
5248.6
5248.36
5248.12
5247.98
5247.91
5247.88
5247.89
5247.89
5101.28
5109.52
5113.57
5115.72
5116.9
5117.57
5117.96
5118.17
5101.45
5109.58
5113.59
5115.71
5116.88
5117.54
5117.91
5118.11
5101.84
5109.77
5113.7
5115.79
5116.94
5117.6
5117.97
5118.18
5102.52
5110.25
5114.04
5116.02
5117.11
5117.7
5118.04
5118.2
5101.77
5109.71
5113.65
5115.74
5116.89
5117.54
5117.91
5118.11
5101.23
5109.41
5113.45
5115.59
5116.77
5117.44
5117.82
5118.03
5100.83
5109.2
5113.32
5115.52
5116.74
5117.43
5117.83
5118.06
5635.03
5635.7
5636.15
5636.46
5636.65
5636.77
5636.83
5636.84
5635.2
5635.76
5636.16
5636.43
5636.59
5636.66
5636.7
5636.7
5635.24
5635.79
5636.14
5636.35
5636.47
5636.54
5636.57
5636.56
5635.16
5635.71
5636.05
5636.24
5636.36
5636.43
5636.45
5636.46
5634.93
5635.48
5635.86
5636.12
5636.29
5636.38
5636.41
5636.41
5634.86
5635.52
5635.93
5636.22
5636.4
5636.48
5636.53
5636.53
5634.83
5635.49
5635.94
5636.23
5636.41
5636.52
5636.57
5636.57
5507.53
5507.42
5507.34
5507.29
5507.25
5507.23
5507.21
5507.18
5507.45
5507.4
5507.32
5507.26
5507.2
5507.15
5507.11
5507.08
5507.38
5507.3
5507.26
5507.23
5507.2
5507.15
5507.1
5507.05
5507.22
5507.12
5507.07
5507.03
5506.99
5506.96
5506.93
5506.91
5507.12
5507.08
5507.06
5507.03
5506.98
5506.94
5506.9
5506.87
5507.15
5507.12
5507.09
5507.06
5507.03
5506.99
5506.97
5506.94
5507.14
5507.1
5507.07
5507.05
5507.03
5507.01
5507
5506.97
5377.96
5377.73
5377.64
5377.62
5377.61
5377.61
5377.61
5377.59
5377.92
5377.68
5377.6
5377.57
5377.56
5377.56
5377.54
5377.52
5377.88
5377.69
5377.63
5377.59
5377.57
5377.56
5377.55
5377.53
5377.67
5377.5
5377.44
5377.44
5377.44
5377.43
5377.42
5377.4
5377.56
5377.35
5377.33
5377.34
5377.35
5377.37
5377.37
5377.36
5377.49
5377.33
5377.31
5377.34
5377.36
5377.39
5377.39
5377.38
5377.45
5377.31
5377.31
5377.34
5377.37
5377.4
5377.41
5377.4
5248.66
5248.37
5248.13
5247.98
5247.91
5247.89
5247.9
5247.91
5248.55
5248.33
5248.1
5247.96
5247.9
5247.88
5247.88
5247.88
5248.38
5248.27
5248.08
5247.95
5247.89
5247.88
5247.89
5247.9
5248.2
5248.2
5248.08
5247.96
5247.9
5247.89
5247.89
5247.9
5248.09
5248.06
5247.89
5247.78
5247.74
5247.73
5247.75
5247.76
5248.04
5247.96
5247.81
5247.73
5247.7
5247.71
5247.73
5247.74
5248
5247.9
5247.76
5247.68
5247.67
5247.68
5247.71
5247.74
5100.62
5109.07
5113.24
5115.47
5116.7
5117.41
5117.83
5118.06
5100.54
5109
5113.18
5115.42
5116.67
5117.39
5117.81
5118.05
5100.44
5108.91
5113.11
5115.37
5116.64
5117.37
5117.8
5118.06
5100.38
5108.85
5113.07
5115.34
5116.62
5117.37
5117.81
5118.07
5100.09
5108.66
5112.92
5115.21
5116.5
5117.25
5117.69
5117.95
5099.94
5108.57
5112.86
5115.17
5116.46
5117.21
5117.66
5117.91
5099.76
5108.47
5112.79
5115.11
5116.42
5117.18
5117.63
5117.89
5635.05
5635.68
5636.1
5636.37
5636.55
5636.65
5636.71
5636.72
5635.2
5635.72
5636.07
5636.3
5636.44
5636.52
5636.55
5636.54
5635.37
5635.81
5636.1
5636.29
5636.41
5636.46
5636.48
5636.48
5635.78
5636.24
5636.5
5636.63
5636.69
5636.71
5636.71
5636.7
5635.75
5636.2
5636.47
5636.61
5636.68
5636.71
5636.71
5636.69
5635.64
5636.14
5636.45
5636.65
5636.78
5636.85
5636.87
5636.87
5635.5
5636.11
5636.49
5636.73
5636.89
5636.99
5637.04
5637.05
5507.28
5507.19
5507.15
5507.11
5507.09
5507.08
5507.07
5507.05
5507.26
5507.19
5507.13
5507.08
5507.02
5506.98
5506.95
5506.92
5507.4
5507.24
5507.14
5507.07
5507.01
5506.97
5506.93
5506.9
5507.72
5507.54
5507.41
5507.31
5507.23
5507.17
5507.12
5507.09
5507.85
5507.65
5507.51
5507.4
5507.31
5507.24
5507.19
5507.13
5507.77
5507.62
5507.54
5507.45
5507.36
5507.3
5507.25
5507.21
5507.87
5507.69
5507.57
5507.49
5507.43
5507.39
5507.36
5507.33
5377.54
5377.38
5377.37
5377.4
5377.43
5377.45
5377.47
5377.47
5377.53
5377.26
5377.21
5377.22
5377.25
5377.28
5377.31
5377.31
5377.72
5377.47
5377.38
5377.32
5377.34
5377.35
5377.35
5377.34
5377.99
5377.69
5377.55
5377.49
5377.46
5377.44
5377.43
5377.43
5378.23
5377.95
5377.82
5377.74
5377.7
5377.67
5377.63
5377.59
5378.26
5377.9
5377.74
5377.66
5377.63
5377.61
5377.6
5377.59
5378.32
5378.02
5377.88
5377.82
5377.78
5377.76
5377.74
5377.72
5248.13
5247.99
5247.84
5247.75
5247.73
5247.74
5247.76
5247.79
5248.02
5248.04
5247.89
5247.78
5247.73
5247.71
5247.71
5247.72
5248.17
5248.25
5248.15
5248.07
5247.96
5247.9
5247.87
5247.84
5248.13
5248.3
5248.31
5248.23
5248.13
5248.05
5247.98
5247.93
5248.7
5248.63
5248.42
5248.25
5248.12
5248.05
5248.02
5247.99
5248.8
5248.58
5248.3
5248.12
5248.02
5247.97
5247.95
5247.94
5249.06
5248.69
5248.38
5248.18
5248.08
5248.03
5248.02
5248.02
5100.14
5108.73
5112.99
5115.27
5116.55
5117.28
5117.71
5117.96
5100.58
5109
5113.16
5115.38
5116.62
5117.32
5117.73
5117.96
5101.11
5109.31
5113.38
5115.55
5116.76
5117.45
5117.85
5118.07
5101.98
5109.92
5113.76
5115.83
5116.99
5117.64
5118.03
5118.22
5101.46
5109.55
5113.56
5115.69
5116.87
5117.54
5117.94
5118.16
5101.26
5109.49
5113.54
5115.69
5116.87
5117.54
5117.93
5118.14
5101.23
5109.48
5113.55
5115.7
5116.89
5117.56
5117.95
5118.17
5636.54
5636.52
5636.5
5636.48
5636.46
5636.46
5636.45
5636.46
5636.52
5636.51
5636.49
5636.47
5636.46
5636.45
5636.45
5636.46
5636.53
5636.51
5636.49
5636.48
5636.47
5636.46
5636.46
5636.47
5636.55
5636.53
5636.52
5636.5
5636.49
5636.48
5636.48
5636.49
5636.59
5636.57
5636.55
5636.53
5636.52
5636.51
5636.51
5636.52
5636.65
5636.63
5636.6
5636.58
5636.56
5636.55
5636.55
5636.56
5636.69
5636.67
5636.64
5636.62
5636.6
5636.58
5636.58
5636.59
5506.94
5506.93
5506.91
5506.9
5506.88
5506.87
5506.87
5506.87
5506.95
5506.93
5506.91
5506.9
5506.89
5506.88
5506.88
5506.88
5506.96
5506.94
5506.92
5506.91
5506.9
5506.89
5506.89
5506.89
5506.98
5506.96
5506.94
5506.93
5506.92
5506.91
5506.91
5506.91
5507
5506.98
5506.97
5506.95
5506.94
5506.93
5506.93
5506.93
5507.04
5507.02
5507
5506.99
5506.97
5506.96
5506.96
5506.96
5507.05
5507.03
5507.02
5507
5506.99
5506.98
5506.97
5506.98
5377.39
5377.39
5377.39
5377.39
5377.38
5377.38
5377.38
5377.38
5377.4
5377.4
5377.4
5377.39
5377.39
5377.39
5377.38
5377.38
5377.41
5377.41
5377.4
5377.4
5377.4
5377.4
5377.39
5377.39
5377.43
5377.43
5377.43
5377.42
5377.42
5377.42
5377.41
5377.41
5377.45
5377.45
5377.44
5377.44
5377.44
5377.44
5377.44
5377.43
5377.47
5377.47
5377.47
5377.47
5377.47
5377.47
5377.47
5377.47
5377.47
5377.47
5377.48
5377.48
5377.48
5377.48
5377.48
5377.48
5247.75
5247.77
5247.79
5247.8
5247.81
5247.82
5247.82
5247.82
5247.76
5247.78
5247.8
5247.81
5247.82
5247.83
5247.83
5247.83
5247.77
5247.79
5247.81
5247.82
5247.83
5247.84
5247.84
5247.84
5247.78
5247.81
5247.83
5247.84
5247.85
5247.86
5247.86
5247.86
5247.79
5247.82
5247.84
5247.85
5247.86
5247.87
5247.88
5247.87
5247.81
5247.84
5247.85
5247.87
5247.88
5247.89
5247.89
5247.89
5247.81
5247.83
5247.85
5247.86
5247.87
5247.88
5247.88
5247.88
5118.01
5118.09
5118.15
5118.19
5118.22
5118.24
5118.25
5118.25
5118.02
5118.1
5118.16
5118.2
5118.23
5118.25
5118.26
5118.26
5118.02
5118.1
5118.17
5118.21
5118.24
5118.26
5118.27
5118.27
5118.04
5118.12
5118.18
5118.22
5118.26
5118.27
5118.28
5118.28
5118.04
5118.13
5118.19
5118.23
5118.26
5118.28
5118.29
5118.29
5118.06
5118.14
5118.2
5118.24
5118.27
5118.29
5118.3
5118.3
5118.06
5118.14
5118.2
5118.24
5118.26
5118.28
5118.29
5118.29
5637.04
5637.02
5636.99
5636.96
5636.93
5636.91
5636.89
5636.89
5636.83
5636.81
5636.79
5636.78
5636.76
5636.75
5636.75
5636.76
5636.68
5636.67
5636.66
5636.66
5636.65
5636.66
5636.66
5636.68
5636.8
5636.8
5636.79
5636.79
5636.8
5636.8
5636.8
5636.82
5636.59
5636.58
5636.58
5636.57
5636.58
5636.58
5636.59
5636.61
5636.69
5636.68
5636.66
5636.64
5636.63
5636.62
5636.62
5636.63
5636.85
5636.84
5636.81
5636.78
5636.76
5636.74
5636.72
5636.73
5507.3
5507.28
5507.26
5507.25
5507.23
5507.22
5507.21
5507.21
5507.18
5507.16
5507.15
5507.14
5507.12
5507.12
5507.11
5507.12
5507.09
5507.07
5507.05
5507.05
5507.04
5507.05
5507.05
5507.07
5507.16
5507.15
5507.14
5507.14
5507.14
5507.14
5507.14
5507.15
5506.99
5506.97
5506.96
5506.96
5506.96
5506.97
5506.97
5506.99
5507.05
5507.04
5507.03
5507.02
5507.01
5507.01
5507
5507.01
5507.15
5507.14
5507.13
5507.11
5507.1
5507.09
5507.08
5507.08
5377.69
5377.68
5377.68
5377.67
5377.66
5377.66
5377.66
5377.66
5377.57
5377.57
5377.57
5377.57
5377.58
5377.58
5377.58
5377.57
5377.5
5377.49
5377.48
5377.47
5377.47
5377.47
5377.46
5377.47
5377.52
5377.52
5377.53
5377.53
5377.54
5377.54
5377.55
5377.55
5377.38
5377.37
5377.37
5377.36
5377.36
5377.37
5377.37
5377.37
5377.44
5377.44
5377.45
5377.45
5377.45
5377.46
5377.46
5377.46
5377.56
5377.56
5377.56
5377.55
5377.55
5377.55
5377.55
5377.55
5248.02
5248.02
5248.03
5248.03
5248.03
5248.03
5248.03
5248.03
5247.91
5247.91
5247.92
5247.93
5247.93
5247.94
5247.94
5247.94
5247.97
5247.96
5247.94
5247.94
5247.93
5247.92
5247.91
5247.91
5247.88
5247.88
5247.88
5247.89
5247.9
5247.9
5247.91
5247.91
5247.87
5247.86
5247.86
5247.85
5247.85
5247.84
5247.84
5247.83
5247.8
5247.81
5247.81
5247.82
5247.82
5247.82
5247.83
5247.83
5247.91
5247.92
5247.93
5247.93
5247.94
5247.94
5247.94
5247.94
5118.27
5118.33
5118.37
5118.4
5118.42
5118.43
5118.44
5118.44
5118.2
5118.26
5118.29
5118.31
5118.33
5118.34
5118.35
5118.35
5118.28
5118.34
5118.37
5118.38
5118.38
5118.38
5118.38
5118.38
5118.26
5118.29
5118.31
5118.32
5118.32
5118.33
5118.33
5118.33
5118.2
5118.26
5118.29
5118.32
5118.33
5118.33
5118.32
5118.32
5118.12
5118.18
5118.21
5118.24
5118.25
5118.26
5118.27
5118.27
5118.17
5118.24
5118.28
5118.32
5118.34
5118.35
5118.36
5118.36
5636.83
5636.81
5636.78
5636.76
5636.73
5636.71
5636.7
5636.71
5636.68
5636.66
5636.64
5636.62
5636.6
5636.59
5636.59
5636.59
5636.54
5636.53
5636.52
5636.52
5636.52
5636.51
5636.51
5636.52
5636.46
5636.47
5636.47
5636.47
5636.48
5636.48
5636.49
5636.5
5636.4
5636.4
5636.39
5636.39
5636.39
5636.4
5636.4
5636.41
5636.52
5636.5
5636.48
5636.46
5636.44
5636.43
5636.43
5636.44
5636.55
5636.53
5636.51
5636.49
5636.48
5636.46
5636.46
5636.47
5507.16
5507.14
5507.13
5507.11
5507.1
5507.09
5507.08
5507.08
5507.05
5507.04
5507.03
5507.02
5507.01
5507.01
5507
5507
5507.02
5507
5506.99
5506.98
5506.98
5506.98
5506.98
5506.98
5506.89
5506.89
5506.89
5506.89
5506.89
5506.9
5506.9
5506.91
5506.85
5506.84
5506.83
5506.83
5506.82
5506.83
5506.83
5506.84
5506.91
5506.89
5506.88
5506.87
5506.86
5506.85
5506.85
5506.86
5506.95
5506.93
5506.91
5506.9
5506.89
5506.88
5506.87
5506.88
5377.58
5377.58
5377.58
5377.57
5377.57
5377.57
5377.57
5377.57
5377.51
5377.5
5377.49
5377.49
5377.49
5377.48
5377.48
5377.48
5377.51
5377.51
5377.5
5377.49
5377.48
5377.48
5377.47
5377.47
5377.39
5377.39
5377.39
5377.39
5377.39
5377.39
5377.39
5377.39
5377.35
5377.35
5377.34
5377.34
5377.33
5377.33
5377.33
5377.33
5377.37
5377.37
5377.36
5377.36
5377.36
5377.36
5377.35
5377.35
5377.4
5377.4
5377.39
5377.39
5377.39
5377.39
5377.39
5377.38
5247.92
5247.93
5247.94
5247.95
5247.96
5247.96
5247.96
5247.96
5247.89
5247.9
5247.91
5247.91
5247.91
5247.91
5247.91
5247.91
5247.92
5247.93
5247.95
5247.95
5247.96
5247.96
5247.95
5247.95
5247.9
5247.9
5247.89
5247.89
5247.89
5247.88
5247.88
5247.88
5247.78
5247.79
5247.8
5247.8
5247.81
5247.8
5247.8
5247.8
5247.76
5247.77
5247.78
5247.79
5247.79
5247.8
5247.8
5247.79
5247.76
5247.78
5247.79
5247.8
5247.81
5247.81
5247.82
5247.82
5118.18
5118.25
5118.3
5118.33
5118.36
5118.37
5118.38
5118.38
5118.17
5118.24
5118.29
5118.32
5118.34
5118.36
5118.36
5118.36
5118.19
5118.27
5118.33
5118.37
5118.4
5118.41
5118.42
5118.42
5118.2
5118.28
5118.33
5118.36
5118.38
5118.38
5118.38
5118.37
5118.08
5118.16
5118.21
5118.25
5118.28
5118.29
5118.3
5118.3
5118.04
5118.12
5118.17
5118.21
5118.23
5118.25
5118.25
5118.25
5118.02
5118.1
5118.16
5118.2
5118.22
5118.24
5118.25
5118.25
5636.7
5636.68
5636.66
5636.63
5636.61
5636.6
5636.59
5636.6
5636.53
5636.51
5636.49
5636.48
5636.47
5636.47
5636.48
5636.5
5636.48
5636.48
5636.48
5636.48
5636.49
5636.5
5636.51
5636.53
5636.7
5636.7
5636.7
5636.7
5636.7
5636.71
5636.71
5636.73
5636.67
5636.65
5636.64
5636.64
5636.63
5636.63
5636.64
5636.65
5636.85
5636.83
5636.81
5636.78
5636.76
5636.75
5636.74
5636.75
5637.03
5637.01
5636.99
5636.95
5636.93
5636.9
5636.88
5636.89
5507.03
5507.02
5507.01
5507
5506.99
5506.99
5506.98
5506.99
5506.9
5506.89
5506.88
5506.88
5506.87
5506.87
5506.87
5506.89
5506.88
5506.88
5506.87
5506.87
5506.88
5506.89
5506.91
5506.92
5507.07
5507.07
5507.06
5507.06
5507.07
5507.07
5507.08
5507.08
5507.09
5507.07
5507.06
5507.05
5507.04
5507.04
5507.04
5507.05
5507.19
5507.17
5507.16
5507.15
5507.14
5507.13
5507.12
5507.12
5507.3
5507.28
5507.27
5507.25
5507.23
5507.22
5507.21
5507.21
5377.46
5377.46
5377.47
5377.47
5377.47
5377.47
5377.47
5377.47
5377.32
5377.32
5377.33
5377.34
5377.35
5377.35
5377.36
5377.36
5377.33
5377.32
5377.32
5377.32
5377.31
5377.32
5377.32
5377.33
5377.43
5377.44
5377.45
5377.46
5377.47
5377.48
5377.48
5377.49
5377.56
5377.54
5377.53
5377.51
5377.5
5377.5
5377.49
5377.49
5377.58
5377.57
5377.57
5377.58
5377.58
5377.58
5377.58
5377.58
5377.7
5377.69
5377.69
5377.68
5377.68
5377.67
5377.67
5377.67
5247.81
5247.83
5247.84
5247.85
5247.86
5247.87
5247.87
5247.87
5247.72
5247.73
5247.74
5247.74
5247.75
5247.75
5247.75
5247.75
5247.83
5247.82
5247.82
5247.81
5247.81
5247.8
5247.8
5247.79
5247.9
5247.89
5247.88
5247.88
5247.88
5247.88
5247.88
5247.89
5247.99
5247.99
5247.98
5247.98
5247.98
5247.97
5247.96
5247.96
5247.94
5247.94
5247.94
5247.94
5247.94
5247.94
5247.94
5247.94
5248.02
5248.03
5248.03
5248.04
5248.04
5248.04
5248.04
5248.04
5118.08
5118.15
5118.2
5118.24
5118.27
5118.28
5118.29
5118.29
5118.06
5118.12