/*--------------------------------*- C++ -*----------------------------------*\
| =========                 |                                                 |
| \\      /  F ield         | OpenFOAM: The Open Source CFD Toolbox           |
|  \\    /   O peration     | Version:  plus.master.MPPICInterFoam            |
|   \\  /    A nd           | Web:      www.OpenFOAM.com                      |
|    \\/     M anipulation  |                                                 |
\*---------------------------------------------------------------------------*/
FoamFile
{
    version     2.0;
    format      ascii;
    class       volScalarField;
    location    "3.6";
    object      epsilon;
}
// * * * * * * * * * * * * * * * * * * * * * * * * * * * * * * * * * * * * * //

dimensions      [0 2 -3 0 0 0 0];

internalField   nonuniform List<scalar> 
11821
(
0.00011943
6.34961e-05
6.06663e-05
6.29101e-05
6.53069e-05
6.67363e-05
6.68499e-05
6.55252e-05
0.000119469
6.35395e-05
6.06562e-05
6.28865e-05
6.52855e-05
6.67239e-05
6.68486e-05
6.55348e-05
0.000119527
6.35574e-05
6.06495e-05
6.2874e-05
6.52743e-05
6.67167e-05
6.6846e-05
6.55362e-05
0.000119569
6.35671e-05
6.06461e-05
6.28674e-05
6.52681e-05
6.67124e-05
6.6844e-05
6.55367e-05
0.000119598
6.35617e-05
6.06454e-05
6.28686e-05
6.52694e-05
6.67129e-05
6.68435e-05
6.55348e-05
0.000119609
6.35515e-05
6.06484e-05
6.28752e-05
6.52753e-05
6.67164e-05
6.68438e-05
6.55324e-05
0.000119617
6.35197e-05
6.06528e-05
6.28898e-05
6.52891e-05
6.67244e-05
6.68441e-05
6.55247e-05
0.000119286
6.34686e-05
6.06523e-05
6.28992e-05
6.52983e-05
6.67306e-05
6.68473e-05
6.55254e-05
0.000119329
6.35073e-05
6.06455e-05
6.28806e-05
6.52809e-05
6.67201e-05
6.68458e-05
6.55331e-05
0.00011938
6.35253e-05
6.06407e-05
6.28701e-05
6.52712e-05
6.67139e-05
6.68437e-05
6.55348e-05
0.000119418
6.35353e-05
6.06381e-05
6.28644e-05
6.52658e-05
6.67102e-05
6.68422e-05
6.55356e-05
0.000119444
6.3532e-05
6.06376e-05
6.28651e-05
6.52666e-05
6.67105e-05
6.68418e-05
6.55343e-05
0.000119454
6.35233e-05
6.06398e-05
6.28703e-05
6.52714e-05
6.67133e-05
6.68421e-05
6.55322e-05
0.000119458
6.34974e-05
6.06428e-05
6.28817e-05
6.52823e-05
6.67198e-05
6.68426e-05
6.55264e-05
0.000119194
6.345e-05
6.06439e-05
6.28932e-05
6.52935e-05
6.67271e-05
6.68453e-05
6.55249e-05
0.000119236
6.34829e-05
6.0639e-05
6.28784e-05
6.52794e-05
6.67185e-05
6.6844e-05
6.55312e-05
0.000119282
6.34999e-05
6.06354e-05
6.28694e-05
6.5271e-05
6.67131e-05
6.68423e-05
6.5533e-05
0.000119316
6.35094e-05
6.06334e-05
6.28646e-05
6.52664e-05
6.671e-05
6.68412e-05
6.55339e-05
0.000119339
6.35077e-05
6.06329e-05
6.28648e-05
6.52667e-05
6.67101e-05
6.68408e-05
6.5533e-05
0.000119347
6.35005e-05
6.06345e-05
6.28689e-05
6.52705e-05
6.67123e-05
6.68411e-05
6.55314e-05
0.000119349
6.34799e-05
6.06368e-05
6.28778e-05
6.52791e-05
6.67175e-05
6.68416e-05
6.55268e-05
0.000119136
6.34372e-05
6.06391e-05
6.28902e-05
6.52911e-05
6.67252e-05
6.68441e-05
6.55243e-05
0.000119176
6.34646e-05
6.06353e-05
6.28783e-05
6.52797e-05
6.67182e-05
6.6843e-05
6.55294e-05
0.000119217
6.348e-05
6.06325e-05
6.28708e-05
6.52726e-05
6.67137e-05
6.68417e-05
6.55312e-05
0.000119247
6.34887e-05
6.0631e-05
6.28666e-05
6.52687e-05
6.67111e-05
6.68408e-05
6.55321e-05
0.000119267
6.3488e-05
6.06305e-05
6.28665e-05
6.52687e-05
6.6711e-05
6.68405e-05
6.55316e-05
0.000119274
6.34822e-05
6.06316e-05
6.28697e-05
6.52716e-05
6.67127e-05
6.68407e-05
6.55303e-05
0.000119273
6.3466e-05
6.06333e-05
6.28765e-05
6.52782e-05
6.67168e-05
6.68411e-05
6.55268e-05
0.0001191
6.34285e-05
6.06364e-05
6.28891e-05
6.52903e-05
6.67245e-05
6.68434e-05
6.55237e-05
0.000119136
6.34508e-05
6.06335e-05
6.28794e-05
6.5281e-05
6.67188e-05
6.68424e-05
6.55278e-05
0.000119173
6.34644e-05
6.06312e-05
6.28731e-05
6.52751e-05
6.6715e-05
6.68414e-05
6.55294e-05
0.0001192
6.34721e-05
6.063e-05
6.28696e-05
6.52717e-05
6.67128e-05
6.68407e-05
6.55303e-05
0.000119217
6.3472e-05
6.06295e-05
6.28692e-05
6.52714e-05
6.67125e-05
6.68405e-05
6.553e-05
0.000119223
6.34674e-05
6.06302e-05
6.28716e-05
6.52736e-05
6.67138e-05
6.68407e-05
6.55291e-05
0.000119221
6.34547e-05
6.06315e-05
6.28768e-05
6.52787e-05
6.6717e-05
6.6841e-05
6.55264e-05
0.000119077
6.34223e-05
6.06352e-05
6.2889e-05
6.52903e-05
6.67243e-05
6.68429e-05
6.5523e-05
0.000119111
6.34404e-05
6.06327e-05
6.28811e-05
6.52828e-05
6.67197e-05
6.68422e-05
6.55263e-05
0.000119144
6.3452e-05
6.06309e-05
6.28759e-05
6.52778e-05
6.67165e-05
6.68413e-05
6.55277e-05
0.000119168
6.34587e-05
6.06297e-05
6.28728e-05
6.52749e-05
6.67146e-05
6.68407e-05
6.55285e-05
0.000119183
6.3459e-05
6.06292e-05
6.28723e-05
6.52744e-05
6.67143e-05
6.68406e-05
6.55284e-05
0.000119188
6.34552e-05
6.06296e-05
6.28739e-05
6.5276e-05
6.67152e-05
6.68407e-05
6.55277e-05
0.000119185
6.34453e-05
6.06306e-05
6.28779e-05
6.52799e-05
6.67176e-05
6.6841e-05
6.55258e-05
0.000119063
6.34178e-05
6.06346e-05
6.28893e-05
6.52907e-05
6.67244e-05
6.68427e-05
6.55224e-05
0.000119095
6.34322e-05
6.06324e-05
6.2883e-05
6.52846e-05
6.67206e-05
6.6842e-05
6.5525e-05
0.000119125
6.3442e-05
6.06309e-05
6.28786e-05
6.52804e-05
6.6718e-05
6.68413e-05
6.55262e-05
0.000119147
6.34476e-05
6.06299e-05
6.2876e-05
6.52779e-05
6.67163e-05
6.68408e-05
6.55269e-05
0.000119159
6.3448e-05
6.06293e-05
6.28753e-05
6.52774e-05
6.6716e-05
6.68407e-05
6.55269e-05
0.000119163
6.34448e-05
6.06294e-05
6.28764e-05
6.52785e-05
6.67166e-05
6.68408e-05
6.55265e-05
0.000119159
6.34371e-05
6.063e-05
6.28794e-05
6.52814e-05
6.67185e-05
6.6841e-05
6.5525e-05
0.000119055
6.34145e-05
6.06344e-05
6.289e-05
6.52913e-05
6.67247e-05
6.68426e-05
6.5522e-05
0.000119084
6.34257e-05
6.06324e-05
6.28848e-05
6.52864e-05
6.67217e-05
6.68421e-05
6.5524e-05
0.000119112
6.34337e-05
6.06311e-05
6.28812e-05
6.5283e-05
6.67195e-05
6.68415e-05
6.5525e-05
0.000119132
6.34383e-05
6.06302e-05
6.28789e-05
6.52809e-05
6.67181e-05
6.68411e-05
6.55256e-05
0.000119143
6.34387e-05
6.06296e-05
6.28782e-05
6.52802e-05
6.67177e-05
6.6841e-05
6.55257e-05
0.000119145
6.3436e-05
6.06294e-05
6.28788e-05
6.52809e-05
6.67182e-05
6.6841e-05
6.55254e-05
0.00011914
6.343e-05
6.06299e-05
6.2881e-05
6.52831e-05
6.67195e-05
6.68412e-05
6.55244e-05
0.000119052
6.34124e-05
6.06347e-05
6.28909e-05
6.52922e-05
6.67253e-05
6.68428e-05
6.55218e-05
0.000119078
6.34207e-05
6.06328e-05
6.28867e-05
6.52883e-05
6.67229e-05
6.68424e-05
6.55235e-05
0.000119104
6.34271e-05
6.06317e-05
6.28837e-05
6.52855e-05
6.67211e-05
6.68419e-05
6.55242e-05
0.000119122
6.34308e-05
6.06308e-05
6.28818e-05
6.52837e-05
6.672e-05
6.68416e-05
6.55247e-05
0.000119132
6.34311e-05
6.06301e-05
6.2881e-05
6.5283e-05
6.67195e-05
6.68414e-05
6.55248e-05
0.000119134
6.34289e-05
6.06298e-05
6.28813e-05
6.52834e-05
6.67198e-05
6.68415e-05
6.55247e-05
0.000119129
6.34243e-05
6.06301e-05
6.28829e-05
6.5285e-05
6.67207e-05
6.68416e-05
6.5524e-05
0.000119054
6.34117e-05
6.06354e-05
6.2892e-05
6.52931e-05
6.6726e-05
6.68431e-05
6.55218e-05
0.000119078
6.34174e-05
6.06336e-05
6.28886e-05
6.52901e-05
6.67241e-05
6.68428e-05
6.55231e-05
0.000119102
6.34224e-05
6.06325e-05
6.28862e-05
6.52878e-05
6.67226e-05
6.68424e-05
6.55236e-05
0.000119119
6.34254e-05
6.06317e-05
6.28846e-05
6.52863e-05
6.67216e-05
6.6842e-05
6.5524e-05
0.000119129
6.34256e-05
6.06311e-05
6.28837e-05
6.52856e-05
6.67212e-05
6.68419e-05
6.55241e-05
0.000119129
6.34238e-05
6.06307e-05
6.28838e-05
6.52857e-05
6.67212e-05
6.68419e-05
6.55241e-05
0.000119124
6.34205e-05
6.06309e-05
6.28849e-05
6.52867e-05
6.67219e-05
6.6842e-05
6.55236e-05
0.00011906
6.34119e-05
6.06364e-05
6.28931e-05
6.52941e-05
6.67266e-05
6.68435e-05
6.55219e-05
0.000119083
6.34159e-05
6.06346e-05
6.28903e-05
6.52916e-05
6.67251e-05
6.68431e-05
6.55227e-05
0.000119107
6.34196e-05
6.06336e-05
6.28883e-05
6.52897e-05
6.67238e-05
6.68426e-05
6.5523e-05
0.000119124
6.34219e-05
6.06328e-05
6.28869e-05
6.52884e-05
6.67228e-05
6.68423e-05
6.55232e-05
0.000119132
6.34221e-05
6.06321e-05
6.2886e-05
6.52876e-05
6.67224e-05
6.68421e-05
6.55234e-05
0.000119132
6.34206e-05
6.06316e-05
6.28858e-05
6.52875e-05
6.67223e-05
6.68421e-05
6.55235e-05
0.000119127
6.34181e-05
6.06317e-05
6.28865e-05
6.52882e-05
6.67227e-05
6.68422e-05
6.55232e-05
0.000119068
6.34125e-05
6.06372e-05
6.2894e-05
6.52948e-05
6.67271e-05
6.68437e-05
6.55219e-05
0.000119094
6.34156e-05
6.06357e-05
6.28917e-05
6.52928e-05
6.67257e-05
6.68432e-05
6.55223e-05
0.000119118
6.34185e-05
6.06348e-05
6.289e-05
6.52911e-05
6.67245e-05
6.68426e-05
6.55223e-05
0.000119135
6.34202e-05
6.06339e-05
6.28887e-05
6.52899e-05
6.67236e-05
6.68423e-05
6.55225e-05
0.000119143
6.34202e-05
6.06331e-05
6.28878e-05
6.52891e-05
6.67232e-05
6.68421e-05
6.55228e-05
0.000119142
6.34187e-05
6.06324e-05
6.28874e-05
6.52888e-05
6.6723e-05
6.68422e-05
6.5523e-05
0.000119135
6.34165e-05
6.06324e-05
6.28878e-05
6.52892e-05
6.67232e-05
6.68422e-05
6.55229e-05
0.000119079
6.34133e-05
6.06381e-05
6.28949e-05
6.52956e-05
6.67276e-05
6.68439e-05
6.55218e-05
0.000119107
6.3416e-05
6.06368e-05
6.28931e-05
6.52939e-05
6.67264e-05
6.68434e-05
6.5522e-05
0.000119133
6.34184e-05
6.06359e-05
6.28916e-05
6.52924e-05
6.67252e-05
6.68427e-05
6.55219e-05
0.000119151
6.34196e-05
6.06351e-05
6.28904e-05
6.52913e-05
6.67244e-05
6.68423e-05
6.5522e-05
0.000119158
6.34193e-05
6.06342e-05
6.28894e-05
6.52905e-05
6.67239e-05
6.68422e-05
6.55223e-05
0.000119156
6.34177e-05
6.06333e-05
6.28888e-05
6.52901e-05
6.67237e-05
6.68422e-05
6.55226e-05
0.000119147
6.34155e-05
6.0633e-05
6.2889e-05
6.52902e-05
6.67238e-05
6.68423e-05
6.55226e-05
0.000119093
6.34149e-05
6.06393e-05
6.28961e-05
6.52966e-05
6.67282e-05
6.6844e-05
6.55214e-05
0.000119125
6.34173e-05
6.06383e-05
6.28946e-05
6.52952e-05
6.67272e-05
6.68436e-05
6.55219e-05
0.000119153
6.34194e-05
6.06375e-05
6.28934e-05
6.52939e-05
6.67261e-05
6.6843e-05
6.55216e-05
0.000119172
6.34204e-05
6.06367e-05
6.28923e-05
6.52929e-05
6.67254e-05
6.68426e-05
6.55217e-05
0.000119179
6.34199e-05
6.06358e-05
6.28914e-05
6.52921e-05
6.67248e-05
6.68424e-05
6.55219e-05
0.000119176
6.34181e-05
6.06348e-05
6.28907e-05
6.52915e-05
6.67245e-05
6.68424e-05
6.55222e-05
0.000119165
6.34157e-05
6.06343e-05
6.28905e-05
6.52915e-05
6.67246e-05
6.68425e-05
6.55223e-05
0.000119446
6.34961e-05
6.0688e-05
6.29294e-05
6.53155e-05
6.67323e-05
6.68348e-05
6.55026e-05
0.000119581
6.35121e-05
6.07011e-05
6.29411e-05
6.53228e-05
6.67326e-05
6.68272e-05
6.54885e-05
0.00011947
6.35045e-05
6.06989e-05
6.294e-05
6.53222e-05
0.000119946
6.35595e-05
0.000119366
0.000119259
6.34624e-05
6.06702e-05
6.2917e-05
6.53078e-05
6.67296e-05
6.68367e-05
6.55078e-05
0.000119336
6.34719e-05
6.06788e-05
6.29248e-05
6.53127e-05
6.67299e-05
6.68316e-05
6.54985e-05
0.00011925
6.34664e-05
6.06773e-05
6.29235e-05
6.53123e-05
6.6731e-05
6.68356e-05
6.5505e-05
0.000119554
6.3502e-05
6.07046e-05
6.29483e-05
6.53288e-05
6.67346e-05
6.68233e-05
6.54796e-05
0.000119184
6.34669e-05
6.06805e-05
6.29256e-05
6.5313e-05
6.67313e-05
6.68353e-05
6.55045e-05
0.000119286
6.34804e-05
6.06902e-05
6.29335e-05
6.53174e-05
6.67306e-05
6.68291e-05
6.54936e-05
0.000119212
6.34838e-05
6.06916e-05
6.29326e-05
6.53164e-05
6.67315e-05
6.68329e-05
6.55001e-05
0.000119142
6.3441e-05
6.0659e-05
6.29094e-05
6.53031e-05
6.67281e-05
6.6838e-05
6.55113e-05
0.000119181
6.34466e-05
6.06648e-05
6.29147e-05
6.53064e-05
6.67282e-05
6.68346e-05
6.55048e-05
0.000119117
6.34433e-05
6.06644e-05
6.2914e-05
6.5306e-05
6.67289e-05
6.68371e-05
6.55091e-05
0.00011931
6.34661e-05
6.06823e-05
6.29302e-05
6.53167e-05
6.67305e-05
6.6828e-05
6.54911e-05
0.000119076
6.34465e-05
6.06689e-05
6.29172e-05
6.53077e-05
6.67293e-05
6.68365e-05
6.55078e-05
0.000119148
6.34572e-05
6.06769e-05
6.29237e-05
6.53116e-05
6.67294e-05
6.68324e-05
6.55003e-05
0.00011912
6.34632e-05
6.06801e-05
6.29247e-05
6.53117e-05
6.67299e-05
6.68342e-05
6.55034e-05
0.000119069
6.34275e-05
6.0652e-05
6.29047e-05
6.53004e-05
6.67273e-05
6.68391e-05
6.55136e-05
0.000119084
6.34307e-05
6.0656e-05
6.29083e-05
6.53027e-05
6.67275e-05
6.68368e-05
6.55092e-05
0.000119036
6.3429e-05
6.06565e-05
6.29084e-05
6.53026e-05
6.67279e-05
6.68383e-05
6.55119e-05
0.000119157
6.34441e-05
6.06685e-05
6.29191e-05
6.53095e-05
6.67287e-05
6.68318e-05
6.54994e-05
0.000119011
6.34337e-05
6.06616e-05
6.2912e-05
6.53046e-05
6.67284e-05
6.68375e-05
6.55103e-05
0.000119062
6.34423e-05
6.0668e-05
6.29172e-05
6.53077e-05
6.67286e-05
6.68346e-05
6.55047e-05
0.000119061
6.34492e-05
6.0672e-05
6.29192e-05
6.53086e-05
6.67291e-05
6.68353e-05
6.5506e-05
0.000119023
6.34191e-05
6.06477e-05
6.29018e-05
6.52988e-05
6.6727e-05
6.68399e-05
6.55152e-05
0.000119024
6.34209e-05
6.06506e-05
6.29044e-05
6.53004e-05
6.67271e-05
6.68383e-05
6.55122e-05
0.000118988
6.34203e-05
6.06515e-05
6.29049e-05
6.53006e-05
6.67274e-05
6.68392e-05
6.55137e-05
0.000119061
6.34305e-05
6.06599e-05
6.29122e-05
6.53052e-05
6.67278e-05
6.68347e-05
6.55051e-05
0.000118972
6.34256e-05
6.06568e-05
6.29086e-05
6.53026e-05
6.67279e-05
6.68383e-05
6.55119e-05
0.000119008
6.34326e-05
6.0662e-05
6.29128e-05
6.53051e-05
6.67282e-05
6.68362e-05
6.55079e-05
0.00011902
6.34393e-05
6.0666e-05
6.29151e-05
6.53063e-05
6.67286e-05
6.68363e-05
6.5508e-05
0.000118993
6.34138e-05
6.06449e-05
6.28999e-05
6.52978e-05
6.67269e-05
6.68405e-05
6.55163e-05
0.000118986
6.34149e-05
6.06472e-05
6.29019e-05
6.52989e-05
6.67269e-05
6.68393e-05
6.55141e-05
0.000118958
6.3415e-05
6.06484e-05
6.29027e-05
6.52993e-05
6.67272e-05
6.68398e-05
6.55149e-05
0.000119001
6.3422e-05
6.06544e-05
6.29077e-05
6.53024e-05
6.67274e-05
6.68367e-05
6.55091e-05
0.000118947
6.34203e-05
6.06536e-05
6.29063e-05
6.53013e-05
6.67276e-05
6.68389e-05
6.55131e-05
0.000118973
6.34259e-05
6.06577e-05
6.29096e-05
6.53033e-05
6.67279e-05
6.68374e-05
6.55102e-05
0.000118991
6.34321e-05
6.06615e-05
6.29119e-05
6.53045e-05
6.67282e-05
6.68372e-05
6.55097e-05
0.000118974
6.34105e-05
6.06432e-05
6.28987e-05
6.52972e-05
6.67268e-05
6.6841e-05
6.55171e-05
0.000118961
6.34114e-05
6.0645e-05
6.29002e-05
6.5298e-05
6.67268e-05
6.68401e-05
6.55155e-05
0.00011894
6.34121e-05
6.06466e-05
6.29012e-05
6.52985e-05
6.6727e-05
6.68403e-05
6.55158e-05
0.000118962
6.34167e-05
6.06508e-05
6.29048e-05
6.53007e-05
6.67272e-05
6.68382e-05
6.55118e-05
0.00011893
6.34169e-05
6.06513e-05
6.29046e-05
6.53004e-05
6.67274e-05
6.68394e-05
6.5514e-05
0.000118948
6.34212e-05
6.06546e-05
6.29072e-05
6.53019e-05
6.67277e-05
6.68384e-05
6.55119e-05
0.000118968
6.34265e-05
6.06578e-05
6.29093e-05
6.5303e-05
6.6728e-05
6.6838e-05
6.55112e-05
0.000118961
6.34085e-05
6.0642e-05
6.28979e-05
6.52967e-05
6.67268e-05
6.68414e-05
6.55178e-05
0.000118945
6.34096e-05
6.06438e-05
6.28992e-05
6.52974e-05
6.67268e-05
6.68407e-05
6.55166e-05
0.000118927
6.3411e-05
6.06456e-05
6.29003e-05
6.52979e-05
6.6727e-05
6.68407e-05
6.55165e-05
0.000118937
6.34139e-05
6.06487e-05
6.2903e-05
6.52996e-05
6.67272e-05
6.68393e-05
6.55138e-05
0.000118918
6.34151e-05
6.06498e-05
6.29034e-05
6.52996e-05
6.67273e-05
6.68398e-05
6.55148e-05
0.00011893
6.34182e-05
6.06523e-05
6.29054e-05
6.53008e-05
6.67276e-05
6.68391e-05
6.55133e-05
0.000118948
6.34224e-05
6.0655e-05
6.29072e-05
6.53019e-05
6.67278e-05
6.68386e-05
6.55124e-05
0.000118951
6.34075e-05
6.06414e-05
6.28974e-05
6.52965e-05
6.67269e-05
6.68417e-05
6.55184e-05
0.000118934
6.34092e-05
6.06433e-05
6.28986e-05
6.5297e-05
6.67269e-05
6.68412e-05
6.55174e-05
0.000118919
6.3411e-05
6.06452e-05
6.28997e-05
6.52975e-05
6.67269e-05
6.6841e-05
6.55171e-05
0.000118921
6.34133e-05
6.06477e-05
6.29018e-05
6.52988e-05
6.67271e-05
6.684e-05
6.55151e-05
0.000118909
6.3415e-05
6.06491e-05
6.29024e-05
6.5299e-05
6.67272e-05
6.68401e-05
6.55155e-05
0.000118917
6.3417e-05
6.0651e-05
6.2904e-05
6.53e-05
6.67274e-05
6.68396e-05
6.55144e-05
0.000118932
6.34198e-05
6.06529e-05
6.29055e-05
6.53008e-05
6.67276e-05
6.68393e-05
6.55136e-05
0.000118942
6.34071e-05
6.06411e-05
6.2897e-05
6.52963e-05
6.6727e-05
6.68421e-05
6.5519e-05
0.000118926
6.34094e-05
6.06431e-05
6.28982e-05
6.52967e-05
6.67269e-05
6.68416e-05
6.55181e-05
0.000118912
6.34118e-05
6.06451e-05
6.28993e-05
6.52972e-05
6.67269e-05
6.68413e-05
6.55177e-05
0.00011891
6.34142e-05
6.06474e-05
6.29009e-05
6.52981e-05
6.6727e-05
6.68405e-05
6.55162e-05
0.000118903
6.3416e-05
6.06489e-05
6.29017e-05
6.52984e-05
6.6727e-05
6.68404e-05
6.55161e-05
0.000118907
6.34174e-05
6.06503e-05
6.29029e-05
6.52992e-05
6.67272e-05
6.68401e-05
6.55154e-05
0.000118919
6.34189e-05
6.06516e-05
6.29041e-05
6.52999e-05
6.67274e-05
6.68398e-05
6.55148e-05
0.000118934
6.34068e-05
6.06408e-05
6.28966e-05
6.52961e-05
6.67271e-05
6.68425e-05
6.55197e-05
0.000118918
6.34098e-05
6.0643e-05
6.28977e-05
6.52964e-05
6.67269e-05
6.6842e-05
6.55189e-05
0.000118905
6.34128e-05
6.06452e-05
6.28988e-05
6.52968e-05
6.67268e-05
6.68416e-05
6.55184e-05
0.000118902
6.34155e-05
6.06474e-05
6.29002e-05
6.52975e-05
6.67268e-05
6.68409e-05
6.55172e-05
0.000118896
6.34176e-05
6.06488e-05
6.2901e-05
6.52978e-05
6.67268e-05
6.68407e-05
6.55169e-05
0.000118899
6.34187e-05
6.065e-05
6.29019e-05
6.52984e-05
6.6727e-05
6.68406e-05
6.55164e-05
0.000118909
6.34196e-05
6.06509e-05
6.29029e-05
6.52991e-05
6.67273e-05
6.68404e-05
6.5516e-05
0.000118926
6.34065e-05
6.06404e-05
6.28962e-05
6.52959e-05
6.67273e-05
6.68431e-05
6.55206e-05
0.000118909
6.34103e-05
6.06429e-05
6.28973e-05
6.52962e-05
6.67271e-05
6.68426e-05
6.55199e-05
0.000118898
6.3414e-05
6.06453e-05
6.28984e-05
6.52965e-05
6.67269e-05
6.68421e-05
6.55193e-05
0.000118893
6.34172e-05
6.06475e-05
6.28996e-05
6.5297e-05
6.67268e-05
6.68415e-05
6.55182e-05
0.000118888
6.34195e-05
6.0649e-05
6.29004e-05
6.52973e-05
6.67268e-05
6.68413e-05
6.55179e-05
0.00011889
6.34207e-05
6.065e-05
6.29012e-05
6.52978e-05
6.6727e-05
6.68412e-05
6.55176e-05
0.000118899
6.34213e-05
6.06507e-05
6.29019e-05
6.52984e-05
6.67272e-05
6.68411e-05
6.55172e-05
0.000118917
6.34065e-05
6.06403e-05
6.28961e-05
6.5296e-05
6.67277e-05
6.68438e-05
6.55216e-05
0.0001189
6.34112e-05
6.06431e-05
6.28972e-05
6.52962e-05
6.67275e-05
6.68434e-05
6.5521e-05
0.000118889
6.34157e-05
6.06458e-05
6.28983e-05
6.52965e-05
6.67273e-05
6.68429e-05
6.55203e-05
0.000118884
6.34196e-05
6.06481e-05
6.28995e-05
6.52969e-05
6.67271e-05
6.68422e-05
6.55194e-05
0.00011888
6.34223e-05
6.06497e-05
6.29002e-05
6.52972e-05
6.6727e-05
6.68419e-05
6.5519e-05
0.000118881
6.34236e-05
6.06506e-05
6.29008e-05
6.52975e-05
6.67271e-05
6.68419e-05
6.55188e-05
0.000118889
6.34241e-05
6.06512e-05
6.29014e-05
6.5298e-05
6.67273e-05
6.68418e-05
6.55184e-05
0.000118909
6.34072e-05
6.06408e-05
6.28964e-05
6.52964e-05
6.67282e-05
6.68446e-05
6.55225e-05
0.000118892
6.34129e-05
6.06439e-05
6.28975e-05
6.52966e-05
6.6728e-05
6.68441e-05
6.55219e-05
0.000118881
6.34185e-05
6.06469e-05
6.28986e-05
6.52968e-05
6.67277e-05
6.68436e-05
6.55213e-05
0.000118875
6.34231e-05
6.06494e-05
6.28997e-05
6.52971e-05
6.67275e-05
6.68429e-05
6.55204e-05
0.000118872
6.34263e-05
6.06512e-05
6.29004e-05
6.52972e-05
6.67273e-05
6.68426e-05
6.55199e-05
0.000118873
6.34278e-05
6.0652e-05
6.29009e-05
6.52975e-05
6.67274e-05
6.68425e-05
6.55198e-05
0.00011888
6.34283e-05
6.06524e-05
6.29014e-05
6.52978e-05
6.67275e-05
6.68424e-05
6.55195e-05
0.000119987
0.00012098
6.37833e-05
0.000120063
6.36416e-05
6.07909e-05
6.30101e-05
6.53706e-05
0.000120082
6.36132e-05
6.07656e-05
6.29906e-05
6.53564e-05
6.67489e-05
6.6827e-05
6.54766e-05
0.000119506
6.35131e-05
6.06972e-05
6.2938e-05
6.53255e-05
6.67448e-05
6.68501e-05
6.55204e-05
0.000119291
6.35016e-05
6.07042e-05
6.29421e-05
6.53226e-05
6.67344e-05
6.68331e-05
6.54988e-05
0.000119707
6.35689e-05
6.07449e-05
6.29724e-05
6.53399e-05
6.67359e-05
6.68187e-05
6.54722e-05
0.000119633
6.35658e-05
6.07457e-05
6.29731e-05
6.53419e-05
6.67409e-05
6.68281e-05
6.54861e-05
0.000120318
6.36562e-05
6.08087e-05
6.30299e-05
6.53839e-05
6.67598e-05
6.68202e-05
6.54562e-05
0.000119725
6.35682e-05
6.07435e-05
6.2973e-05
6.53446e-05
6.67457e-05
6.68346e-05
6.54936e-05
0.000119745
6.35482e-05
6.07259e-05
6.29606e-05
6.53364e-05
6.67401e-05
6.68291e-05
6.54868e-05
0.000119324
6.34738e-05
6.06746e-05
6.29212e-05
6.53134e-05
6.67374e-05
6.68469e-05
6.55202e-05
0.000119178
6.34768e-05
6.06896e-05
6.29318e-05
6.53162e-05
6.67318e-05
6.6834e-05
6.5502e-05
0.000119486
6.35249e-05
6.07191e-05
6.29541e-05
6.53291e-05
6.67332e-05
6.68235e-05
6.54825e-05
0.000119423
6.35194e-05
6.07163e-05
6.29517e-05
6.53282e-05
6.67352e-05
6.68293e-05
6.5492e-05
0.000119904
6.35795e-05
6.0756e-05
6.29868e-05
6.53533e-05
6.67445e-05
6.68203e-05
6.54678e-05
0.000119501
6.35211e-05
6.07135e-05
6.29502e-05
6.53288e-05
6.67377e-05
6.68336e-05
6.54976e-05
0.000119515
6.35039e-05
6.0699e-05
6.29406e-05
6.53234e-05
6.6735e-05
6.68316e-05
6.5495e-05
0.000119209
6.34487e-05
6.06602e-05
6.29107e-05
6.5306e-05
6.67328e-05
6.68449e-05
6.552e-05
0.000119105
6.34596e-05
6.06792e-05
6.29245e-05
6.53118e-05
6.67303e-05
6.68349e-05
6.55046e-05
0.000119336
6.34947e-05
6.07005e-05
6.29407e-05
6.53212e-05
6.67313e-05
6.68273e-05
6.54903e-05
0.00011929
6.34906e-05
6.06976e-05
6.2938e-05
6.53197e-05
6.67321e-05
6.68312e-05
6.54972e-05
0.00011962
6.35291e-05
6.07223e-05
6.29598e-05
6.53351e-05
6.6737e-05
6.68236e-05
6.54792e-05
0.000119349
6.34887e-05
6.0693e-05
6.29351e-05
6.53191e-05
6.67336e-05
6.68345e-05
6.55018e-05
0.000119357
6.34738e-05
6.06806e-05
6.29269e-05
6.53147e-05
6.67319e-05
6.68339e-05
6.55013e-05
0.000119139
6.34329e-05
6.06513e-05
6.29042e-05
6.53014e-05
6.67301e-05
6.68437e-05
6.55199e-05
0.000119057
6.34475e-05
6.06715e-05
6.29191e-05
6.53086e-05
6.67293e-05
6.68358e-05
6.55068e-05
0.000119228
6.34729e-05
6.06868e-05
6.29307e-05
6.53155e-05
6.67301e-05
6.68303e-05
6.54964e-05
0.000119198
6.34701e-05
6.06843e-05
6.29283e-05
6.5314e-05
6.67304e-05
6.68331e-05
6.55015e-05
0.000119426
6.34944e-05
6.06993e-05
6.29418e-05
6.53233e-05
6.67329e-05
6.68272e-05
6.54887e-05
0.000119246
6.34665e-05
6.06787e-05
6.29247e-05
6.53127e-05
6.67313e-05
6.68356e-05
6.55053e-05
0.000119249
6.34537e-05
6.06682e-05
6.29176e-05
6.53089e-05
6.673e-05
6.68358e-05
6.55059e-05
0.000119095
6.34233e-05
6.06459e-05
6.29004e-05
6.52988e-05
6.67285e-05
6.6843e-05
6.55197e-05
0.000119022
6.34387e-05
6.06657e-05
6.29149e-05
6.53062e-05
6.67287e-05
6.68367e-05
6.55086e-05
0.00011915
6.34569e-05
6.06765e-05
6.29232e-05
6.53111e-05
6.67292e-05
6.68327e-05
6.55011e-05
0.000119134
6.34554e-05
6.06747e-05
6.29213e-05
6.53099e-05
6.67294e-05
6.68347e-05
6.55049e-05
0.000119292
6.34706e-05
6.06835e-05
6.29294e-05
6.53156e-05
6.67306e-05
6.68305e-05
6.54961e-05
0.000119175
6.34511e-05
6.06688e-05
6.29175e-05
6.53083e-05
6.67298e-05
6.68367e-05
6.55081e-05
0.000119176
6.34402e-05
6.06597e-05
6.29113e-05
6.5305e-05
6.67289e-05
6.68373e-05
6.55093e-05
0.000119069
6.34174e-05
6.06426e-05
6.28981e-05
6.52972e-05
6.67276e-05
6.68426e-05
6.55196e-05
0.000118995
6.3432e-05
6.06611e-05
6.29116e-05
6.53044e-05
6.67283e-05
6.68375e-05
6.55103e-05
0.000119092
6.34451e-05
6.06688e-05
6.29176e-05
6.53079e-05
6.67287e-05
6.68346e-05
6.55049e-05
0.000119087
6.34447e-05
6.06675e-05
6.29162e-05
6.5307e-05
6.67288e-05
6.6836e-05
6.55075e-05
0.000119198
6.3454e-05
6.06724e-05
6.29209e-05
6.53103e-05
6.67294e-05
6.68331e-05
6.55017e-05
0.000119125
6.34404e-05
6.06617e-05
6.29123e-05
6.53052e-05
6.67289e-05
6.68377e-05
6.55104e-05
0.000119126
6.34311e-05
6.06539e-05
6.2907e-05
6.53023e-05
6.67281e-05
6.68384e-05
6.55118e-05
0.000119053
6.34139e-05
6.06407e-05
6.28968e-05
6.52963e-05
6.67271e-05
6.68423e-05
6.55194e-05
0.000118973
6.34269e-05
6.06576e-05
6.2909e-05
6.53029e-05
6.6728e-05
6.68383e-05
6.55117e-05
0.000119047
6.34365e-05
6.0663e-05
6.29133e-05
6.53054e-05
6.67283e-05
6.68362e-05
6.55078e-05
0.000119052
6.34369e-05
6.06622e-05
6.29123e-05
6.53048e-05
6.67284e-05
6.68372e-05
6.55097e-05
0.000119132
6.34425e-05
6.06647e-05
6.29149e-05
6.53067e-05
6.67286e-05
6.68353e-05
6.55059e-05
0.000119089
6.34328e-05
6.06567e-05
6.29086e-05
6.5303e-05
6.67283e-05
6.68386e-05
6.55121e-05
0.000119092
6.3425e-05
6.065e-05
6.2904e-05
6.53006e-05
6.67277e-05
6.68393e-05
6.55137e-05
0.000119044
6.34119e-05
6.06396e-05
6.28961e-05
6.52959e-05
6.67269e-05
6.68422e-05
6.55194e-05
0.000118954
6.34233e-05
6.06549e-05
6.2907e-05
6.53017e-05
6.67278e-05
6.6839e-05
6.5513e-05
0.000119012
6.34301e-05
6.06587e-05
6.291e-05
6.53036e-05
6.67281e-05
6.68375e-05
6.55102e-05
0.000119025
6.34311e-05
6.06582e-05
6.29094e-05
6.53032e-05
6.67282e-05
6.68382e-05
6.55114e-05
0.000119084
6.34345e-05
6.06592e-05
6.29107e-05
6.53043e-05
6.67283e-05
6.68369e-05
6.55091e-05
0.000119063
6.34275e-05
6.06532e-05
6.2906e-05
6.53016e-05
6.67281e-05
6.68393e-05
6.55136e-05
0.000119068
6.34211e-05
6.06475e-05
6.29021e-05
6.52995e-05
6.67276e-05
6.68401e-05
6.55151e-05
0.000119039
6.3411e-05
6.06392e-05
6.28959e-05
6.52958e-05
6.67269e-05
6.68423e-05
6.55195e-05
0.000118938
6.34213e-05
6.0653e-05
6.29053e-05
6.53007e-05
6.67277e-05
6.68396e-05
6.55143e-05
0.000118984
6.34258e-05
6.06555e-05
6.29074e-05
6.53021e-05
6.6728e-05
6.68386e-05
6.55122e-05
0.000119002
6.3427e-05
6.06552e-05
6.29071e-05
6.5302e-05
6.67281e-05
6.68391e-05
6.5513e-05
0.000119049
6.3429e-05
6.06554e-05
6.29077e-05
6.53025e-05
6.67281e-05
6.68383e-05
6.55116e-05
0.000119043
6.34239e-05
6.06507e-05
6.29041e-05
6.53005e-05
6.6728e-05
6.68401e-05
6.55148e-05
0.000119053
6.34187e-05
6.06458e-05
6.29009e-05
6.52988e-05
6.67276e-05
6.68408e-05
6.55163e-05
0.000119039
6.3411e-05
6.06393e-05
6.2896e-05
6.5296e-05
6.67271e-05
6.68426e-05
6.55197e-05
0.000118926
6.34209e-05
6.06518e-05
6.29038e-05
6.52998e-05
6.67276e-05
6.68403e-05
6.55155e-05
0.000118961
6.34233e-05
6.06533e-05
6.29054e-05
6.5301e-05
6.67279e-05
6.68397e-05
6.55141e-05
0.000118984
6.34243e-05
6.0653e-05
6.29054e-05
6.5301e-05
6.67281e-05
6.68399e-05
6.55145e-05
0.000119023
6.34251e-05
6.06526e-05
6.29055e-05
6.53013e-05
6.67281e-05
6.68395e-05
6.55137e-05
0.000119029
6.34214e-05
6.06488e-05
6.29028e-05
6.52998e-05
6.6728e-05
6.68408e-05
6.55161e-05
0.000119043
6.34173e-05
6.06448e-05
6.29e-05
6.52984e-05
6.67277e-05
6.68415e-05
6.55174e-05
0.000119041
6.34114e-05
6.06395e-05
6.28962e-05
6.52963e-05
6.67274e-05
6.68429e-05
6.55201e-05
0.000118915
6.34221e-05
6.06513e-05
6.29028e-05
6.52991e-05
6.67276e-05
6.6841e-05
6.55168e-05
0.000118945
6.3423e-05
6.06521e-05
6.2904e-05
6.53001e-05
6.67279e-05
6.68406e-05
6.55158e-05
0.000118969
6.34233e-05
6.06517e-05
6.2904e-05
6.53003e-05
6.67282e-05
6.68409e-05
6.5516e-05
0.000119003
6.34229e-05
6.06508e-05
6.29039e-05
6.53005e-05
6.67283e-05
6.68407e-05
6.55156e-05
0.000119017
6.34199e-05
6.06476e-05
6.29018e-05
6.52994e-05
6.67283e-05
6.68417e-05
6.55174e-05
0.000119037
6.34165e-05
6.06441e-05
6.28995e-05
6.52983e-05
6.6728e-05
6.68422e-05
6.55185e-05
0.000119045
6.3412e-05
6.06398e-05
6.28965e-05
6.52966e-05
6.67278e-05
6.68433e-05
6.55205e-05
0.000118905
6.34246e-05
6.06516e-05
6.29022e-05
6.52986e-05
6.67276e-05
6.68417e-05
6.55181e-05
0.000118933
6.34248e-05
6.06519e-05
6.29031e-05
6.52995e-05
6.67281e-05
6.68415e-05
6.55173e-05
0.000118958
6.34243e-05
6.06514e-05
6.29033e-05
6.52999e-05
6.67284e-05
6.68417e-05
6.55174e-05
0.000118989
6.34226e-05
6.06499e-05
6.2903e-05
6.53001e-05
6.67286e-05
6.68418e-05
6.55172e-05
0.00011901
6.34193e-05
6.06469e-05
6.29013e-05
6.52993e-05
6.67287e-05
6.68425e-05
6.55185e-05
0.000119034
6.34163e-05
6.06438e-05
6.28994e-05
6.52984e-05
6.67285e-05
6.68429e-05
6.55193e-05
0.000119051
6.3413e-05
6.06403e-05
6.2897e-05
6.52971e-05
6.67283e-05
6.68437e-05
6.55209e-05
0.000118897
6.34285e-05
6.06526e-05
6.2902e-05
6.52984e-05
6.67278e-05
6.68423e-05
6.55191e-05
0.000118923
6.34282e-05
6.06527e-05
6.29028e-05
6.52992e-05
6.67282e-05
6.68422e-05
6.55185e-05
0.000118951
6.3427e-05
6.0652e-05
6.2903e-05
6.52997e-05
6.67286e-05
6.68424e-05
6.55184e-05
0.000118981
6.34242e-05
6.06502e-05
6.29027e-05
6.53e-05
6.6729e-05
6.68426e-05
6.55183e-05
0.000119006
6.34202e-05
6.06471e-05
6.29013e-05
6.52995e-05
6.67291e-05
6.68432e-05
6.55192e-05
0.000119034
6.34169e-05
6.06441e-05
6.28997e-05
6.52988e-05
6.6729e-05
6.68435e-05
6.55199e-05
0.00011906
6.34146e-05
6.06412e-05
6.28979e-05
6.52979e-05
6.67289e-05
6.68441e-05
6.5521e-05
0.000119614
6.3502e-05
6.06633e-05
6.29063e-05
6.53024e-05
6.67311e-05
6.68444e-05
6.55203e-05
0.000119933
6.35363e-05
6.07006e-05
6.29397e-05
6.53231e-05
6.67343e-05
6.68295e-05
6.54912e-05
0.000119911
6.35517e-05
6.07142e-05
6.29493e-05
6.53291e-05
6.67386e-05
6.68341e-05
6.54975e-05
0.000120457
6.36248e-05
6.07685e-05
6.29978e-05
6.53632e-05
6.675e-05
6.6819e-05
6.54604e-05
0.000119794
6.3548e-05
6.07168e-05
6.29507e-05
6.5329e-05
6.67373e-05
6.6832e-05
6.54947e-05
0.000119871
6.35531e-05
6.07208e-05
6.29545e-05
6.53302e-05
6.67338e-05
6.68224e-05
6.54797e-05
0.000119488
6.35031e-05
6.06913e-05
6.29317e-05
6.53172e-05
6.67337e-05
6.68359e-05
6.55037e-05
0.000119448
6.34797e-05
6.06497e-05
6.28944e-05
6.52932e-05
6.67259e-05
6.68434e-05
6.55227e-05
0.000119626
6.3486e-05
6.06724e-05
6.29188e-05
6.53096e-05
6.67297e-05
6.68335e-05
6.55018e-05
0.00011961
6.34981e-05
6.06835e-05
6.29266e-05
6.53143e-05
6.67324e-05
6.68358e-05
6.55049e-05
0.000119972
6.35469e-05
6.07198e-05
6.29585e-05
6.53357e-05
6.67376e-05
6.68224e-05
6.54759e-05
0.000119525
6.34989e-05
6.06885e-05
6.293e-05
6.53156e-05
6.67319e-05
6.68341e-05
6.55021e-05
0.000119577
6.35023e-05
6.06923e-05
6.29339e-05
6.53178e-05
6.67305e-05
6.68279e-05
6.54917e-05
0.000119297
6.34679e-05
6.06723e-05
6.29182e-05
6.53087e-05
6.67303e-05
6.68374e-05
6.55087e-05
0.000119337
6.34637e-05
6.06416e-05
6.28879e-05
6.52881e-05
6.67227e-05
6.68424e-05
6.55237e-05
0.000119423
6.34538e-05
6.06546e-05
6.29055e-05
6.53012e-05
6.67269e-05
6.68364e-05
6.55091e-05
0.000119414
6.34635e-05
6.06639e-05
6.29124e-05
6.53053e-05
6.6729e-05
6.68377e-05
6.55103e-05
0.000119651
6.34962e-05
6.06886e-05
6.29339e-05
6.53193e-05
6.67316e-05
6.68272e-05
6.5489e-05
0.000119351
6.34667e-05
6.06702e-05
6.2917e-05
6.53076e-05
6.67292e-05
6.68362e-05
6.55076e-05
0.00011938
6.34687e-05
6.06734e-05
6.29204e-05
6.53097e-05
6.67286e-05
6.6832e-05
6.55001e-05
0.000119177
6.34453e-05
6.06602e-05