/*--------------------------------*- C++ -*----------------------------------*\
| =========                 |                                                 |
| \\      /  F ield         | OpenFOAM: The Open Source CFD Toolbox           |
|  \\    /   O peration     | Version:  plus.master.MPPICInterFoam            |
|   \\  /    A nd           | Web:      www.OpenFOAM.com                      |
|    \\/     M anipulation  |                                                 |
\*---------------------------------------------------------------------------*/
FoamFile
{
    version     2.0;
    format      ascii;
    class       volScalarField;
    location    "3.6";
    object      nut;
}
// * * * * * * * * * * * * * * * * * * * * * * * * * * * * * * * * * * * * * //

dimensions      [0 2 -1 0 0 0 0];

internalField   nonuniform List<scalar> 
11821
(
5.52102e-06
2.86344e-05
4.60817e-05
5.63691e-05
6.23193e-05
6.52757e-05
6.58111e-05
6.41007e-05
5.52165e-06
2.85268e-05
4.59864e-05
5.63021e-05
6.22773e-05
6.52549e-05
6.58085e-05
6.41138e-05
5.52255e-06
2.84754e-05
4.59393e-05
5.62687e-05
6.22562e-05
6.52437e-05
6.58052e-05
6.41165e-05
5.5232e-06
2.8451e-05
4.59175e-05
5.62531e-05
6.2246e-05
6.52381e-05
6.58034e-05
6.41178e-05
5.52367e-06
2.84622e-05
4.59275e-05
5.62602e-05
6.22506e-05
6.52404e-05
6.58035e-05
6.4116e-05
5.52383e-06
2.84939e-05
4.59572e-05
5.62815e-05
6.22641e-05
6.52474e-05
6.58051e-05
6.41133e-05
5.52395e-06
2.8567e-05
4.60229e-05
5.63283e-05
6.2294e-05
6.52625e-05
6.58074e-05
6.41041e-05
5.51879e-06
2.86318e-05
4.60724e-05
5.63591e-05
6.23118e-05
6.52719e-05
6.58113e-05
6.41044e-05
5.51947e-06
2.85429e-05
4.59937e-05
5.63035e-05
6.22764e-05
6.52537e-05
6.58081e-05
6.41145e-05
5.52028e-06
2.84967e-05
4.59516e-05
5.62736e-05
6.22574e-05
6.52436e-05
6.58051e-05
6.4117e-05
5.52087e-06
2.84739e-05
4.59313e-05
5.62591e-05
6.2248e-05
6.52384e-05
6.58034e-05
6.41184e-05
5.52128e-06
2.84809e-05
4.59376e-05
5.62636e-05
6.22509e-05
6.52399e-05
6.58035e-05
6.41172e-05
5.52142e-06
2.85065e-05
4.59614e-05
5.62808e-05
6.22619e-05
6.52456e-05
6.58049e-05
6.4115e-05
5.52148e-06
2.85643e-05
4.60135e-05
5.6318e-05
6.22859e-05
6.52582e-05
6.58074e-05
6.41083e-05
5.51737e-06
2.86337e-05
4.60698e-05
5.63551e-05
6.23083e-05
6.52699e-05
6.58111e-05
6.41061e-05
5.51804e-06
2.85609e-05
4.60053e-05
5.63093e-05
6.2279e-05
6.52546e-05
6.5808e-05
6.41139e-05
5.51876e-06
2.85203e-05
4.59684e-05
5.62831e-05
6.22622e-05
6.52456e-05
6.58054e-05
6.41164e-05
5.51929e-06
2.84996e-05
4.59499e-05
5.62699e-05
6.22537e-05
6.52409e-05
6.5804e-05
6.41178e-05
5.51965e-06
2.85034e-05
4.59534e-05
5.62724e-05
6.22553e-05
6.52417e-05
6.5804e-05
6.41169e-05
5.51977e-06
2.85235e-05
4.59721e-05
5.62859e-05
6.2264e-05
6.52463e-05
6.58052e-05
6.41153e-05
5.51979e-06
2.85689e-05
4.6013e-05
5.63152e-05
6.2283e-05
6.52564e-05
6.58073e-05
6.41101e-05
5.51647e-06
2.8638e-05
4.60711e-05
5.63546e-05
6.23074e-05
6.52692e-05
6.58111e-05
6.41067e-05
5.5171e-06
2.85788e-05
4.60185e-05
5.63172e-05
6.22833e-05
6.52566e-05
6.58084e-05
6.41129e-05
5.51774e-06
2.85436e-05
4.59867e-05
5.62945e-05
6.22688e-05
6.52488e-05
6.58061e-05
6.41152e-05
5.51821e-06
2.85251e-05
4.59701e-05
5.62827e-05
6.22612e-05
6.52446e-05
6.58049e-05
6.41165e-05
5.51852e-06
2.85266e-05
4.59715e-05
5.62837e-05
6.22619e-05
6.5245e-05
6.58049e-05
6.4116e-05
5.51863e-06
2.85422e-05
4.59859e-05
5.62941e-05
6.22686e-05
6.52485e-05
6.58058e-05
6.41147e-05
5.51862e-06
2.85773e-05
4.60176e-05
5.6317e-05
6.22835e-05
6.52565e-05
6.58075e-05
6.41108e-05
5.5159e-06
2.86434e-05
4.60744e-05
5.63561e-05
6.2308e-05
6.52695e-05
6.58112e-05
6.41069e-05
5.51649e-06
2.85954e-05
4.60317e-05
5.63257e-05
6.22884e-05
6.52591e-05
6.58089e-05
6.41118e-05
5.51706e-06
2.85654e-05
4.60046e-05
5.63064e-05
6.2276e-05
6.52524e-05
6.5807e-05
6.41139e-05
5.51748e-06
2.85491e-05
4.599e-05
5.62959e-05
6.22692e-05
6.52488e-05
6.5806e-05
6.41151e-05
5.51775e-06
2.8549e-05
4.59898e-05
5.62958e-05
6.22692e-05
6.52487e-05
6.58059e-05
6.41148e-05
5.51784e-06
2.85608e-05
4.60007e-05
5.63037e-05
6.22743e-05
6.52514e-05
6.58066e-05
6.41138e-05
5.51781e-06
2.85878e-05
4.60251e-05
5.63213e-05
6.22858e-05
6.52576e-05
6.58079e-05
6.41109e-05
5.51555e-06
2.86491e-05
4.60785e-05
5.63586e-05
6.23094e-05
6.52701e-05
6.58114e-05
6.41067e-05
5.51609e-06
2.86104e-05
4.6044e-05
5.63339e-05
6.22935e-05
6.52617e-05
6.58095e-05
6.41106e-05
5.51661e-06
2.85851e-05
4.60212e-05
5.63176e-05
6.2283e-05
6.5256e-05
6.58079e-05
6.41124e-05
5.51699e-06
2.85709e-05
4.60085e-05
5.63085e-05
6.22771e-05
6.52528e-05
6.58069e-05
6.41134e-05
5.51722e-06
2.85697e-05
4.60073e-05
5.63077e-05
6.22766e-05
6.52525e-05
6.58068e-05
6.41134e-05
5.51729e-06
2.85784e-05
4.60153e-05
5.63134e-05
6.22803e-05
6.52545e-05
6.58073e-05
6.41127e-05
5.51724e-06
2.8599e-05
4.60338e-05
5.63268e-05
6.2289e-05
6.52592e-05
6.58084e-05
6.41105e-05
5.51534e-06
2.86546e-05
4.60829e-05
5.63614e-05
6.23111e-05
6.5271e-05
6.58115e-05
6.41063e-05
5.51584e-06
2.86235e-05
4.60551e-05
5.63415e-05
6.22982e-05
6.52641e-05
6.581e-05
6.41094e-05
5.5163e-06
2.86024e-05
4.60361e-05
5.63279e-05
6.22894e-05
6.52594e-05
6.58086e-05
6.4111e-05
5.51665e-06
2.85903e-05
4.60251e-05
5.632e-05
6.22843e-05
6.52566e-05
6.58078e-05
6.41119e-05
5.51685e-06
2.85883e-05
4.60233e-05
5.63186e-05
6.22834e-05
6.52561e-05
6.58077e-05
6.41119e-05
5.5169e-06
2.85946e-05
4.60289e-05
5.63226e-05
6.2286e-05
6.52575e-05
6.58081e-05
6.41115e-05
5.51684e-06
2.86101e-05
4.60429e-05
5.63327e-05
6.22926e-05
6.52611e-05
6.58089e-05
6.41098e-05
5.51522e-06
2.86596e-05
4.60871e-05
5.63642e-05
6.23128e-05
6.52718e-05
6.58118e-05
6.4106e-05
5.51567e-06
2.86348e-05
4.60648e-05
5.63482e-05
6.23025e-05
6.52664e-05
6.58105e-05
6.41085e-05
5.5161e-06
2.86175e-05
4.60492e-05
5.63369e-05
6.22952e-05
6.52625e-05
6.58094e-05
6.41098e-05
5.51642e-06
2.86072e-05
4.60398e-05
5.63302e-05
6.22908e-05
6.52601e-05
6.58087e-05
6.41106e-05
5.51659e-06
2.86049e-05
4.60376e-05
5.63285e-05
6.22897e-05
6.52595e-05
6.58086e-05
6.41107e-05
5.51663e-06
2.86092e-05
4.60414e-05
5.63312e-05
6.22915e-05
6.52604e-05
6.58088e-05
6.41104e-05
5.51655e-06
2.86207e-05
4.60517e-05
5.63387e-05
6.22963e-05
6.52631e-05
6.58095e-05
6.41092e-05
5.51517e-06
2.8664e-05
4.60909e-05
5.63669e-05
6.23145e-05
6.52727e-05
6.5812e-05
6.41057e-05
5.51558e-06
2.86445e-05
4.60734e-05
5.63542e-05
6.23063e-05
6.52685e-05
6.58111e-05
6.41078e-05
5.51598e-06
2.86305e-05
4.60606e-05
5.6345e-05
6.23004e-05
6.52653e-05
6.58103e-05
6.41089e-05
5.51628e-06
2.86219e-05
4.60528e-05
5.63393e-05
6.22967e-05
6.52633e-05
6.58097e-05
6.41095e-05
5.51643e-06
2.86194e-05
4.60503e-05
5.63375e-05
6.22955e-05
6.52626e-05
6.58095e-05
6.41097e-05
5.51645e-06
2.86221e-05
4.60526e-05
5.63391e-05
6.22965e-05
6.52632e-05
6.58097e-05
6.41095e-05
5.51637e-06
2.86304e-05
4.606e-05
5.63444e-05
6.23e-05
6.52651e-05
6.58101e-05
6.41087e-05
5.5152e-06
2.86678e-05
4.60943e-05
5.63693e-05
6.23161e-05
6.52736e-05
6.58122e-05
6.41054e-05
5.51557e-06
2.86528e-05
4.60807e-05
5.63594e-05
6.23097e-05
6.52703e-05
6.58117e-05
6.41072e-05
5.51595e-06
2.86416e-05
4.60705e-05
5.6352e-05
6.23049e-05
6.52678e-05
6.5811e-05
6.41081e-05
5.51623e-06
2.86345e-05
4.60639e-05
5.63472e-05
6.23018e-05
6.5266e-05
6.58105e-05
6.41085e-05
5.51638e-06
2.86319e-05
4.60614e-05
5.63453e-05
6.23005e-05
6.52653e-05
6.58102e-05
6.41087e-05
5.51639e-06
2.86333e-05
4.60625e-05
5.6346e-05
6.23009e-05
6.52656e-05
6.58103e-05
6.41087e-05
5.51631e-06
2.86391e-05
4.60675e-05
5.63496e-05
6.23033e-05
6.52668e-05
6.58106e-05
6.41081e-05
5.51528e-06
2.8671e-05
4.60973e-05
5.63715e-05
6.23174e-05
6.52742e-05
6.58123e-05
6.41049e-05
5.51566e-06
2.86595e-05
4.60868e-05
5.63637e-05
6.23124e-05
6.52717e-05
6.58119e-05
6.41064e-05
5.51603e-06
2.86507e-05
4.60787e-05
5.63578e-05
6.23085e-05
6.52696e-05
6.58113e-05
6.41071e-05
5.5163e-06
2.86448e-05
4.60732e-05
5.63537e-05
6.23058e-05
6.52681e-05
6.58108e-05
6.41075e-05
5.51643e-06
2.86422e-05
4.60705e-05
5.63516e-05
6.23045e-05
6.52674e-05
6.58106e-05
6.41077e-05
5.51644e-06
2.86426e-05
4.60707e-05
5.63516e-05
6.23045e-05
6.52673e-05
6.58106e-05
6.41077e-05
5.51635e-06
2.86464e-05
4.60739e-05
5.63539e-05
6.2306e-05
6.52681e-05
6.58108e-05
6.41073e-05
5.51541e-06
2.86738e-05
4.61e-05
5.63734e-05
6.23186e-05
6.52747e-05
6.58122e-05
6.41044e-05
5.51582e-06
2.86649e-05
4.60918e-05
5.63672e-05
6.23146e-05
6.52727e-05
6.58119e-05
6.41056e-05
5.5162e-06
2.8658e-05
4.60853e-05
5.63624e-05
6.23114e-05
6.52709e-05
6.58114e-05
6.41061e-05
5.51647e-06
2.86531e-05
4.60806e-05
5.63588e-05
6.2309e-05
6.52695e-05
6.58109e-05
6.41064e-05
5.51659e-06
2.86504e-05
4.60779e-05
5.63567e-05
6.23075e-05
6.52687e-05
6.58106e-05
6.41066e-05
5.51658e-06
2.86501e-05
4.60773e-05
5.63562e-05
6.23072e-05
6.52685e-05
6.58106e-05
6.41068e-05
5.51647e-06
2.86524e-05
4.60792e-05
5.63575e-05
6.2308e-05
6.5269e-05
6.58107e-05
6.41066e-05
5.51558e-06
2.86764e-05
4.61026e-05
5.63753e-05
6.23197e-05
6.52752e-05
6.58121e-05
6.41038e-05
5.51603e-06
2.86696e-05
4.60962e-05
5.63704e-05
6.23166e-05
6.52736e-05
6.5812e-05
6.41049e-05
5.51643e-06
2.86641e-05
4.6091e-05
5.63664e-05
6.23138e-05
6.52721e-05
6.58114e-05
6.41052e-05
5.51671e-06
2.86599e-05
4.60869e-05
5.63632e-05
6.23117e-05
6.52708e-05
6.58109e-05
6.41054e-05
5.51683e-06
2.86574e-05
4.60842e-05
5.63611e-05
6.23102e-05
6.527e-05
6.58107e-05
6.41056e-05
5.5168e-06
2.86565e-05
4.60831e-05
5.63601e-05
6.23095e-05
6.52696e-05
6.58106e-05
6.41058e-05
5.51666e-06
2.86578e-05
4.60839e-05
5.63607e-05
6.231e-05
6.52699e-05
6.58107e-05
6.41058e-05
5.51579e-06
2.86791e-05
4.61056e-05
5.63775e-05
6.23212e-05
6.52759e-05
6.5812e-05
6.41031e-05
5.5163e-06
2.86741e-05
4.61007e-05
5.63738e-05
6.23187e-05
6.52747e-05
6.58121e-05
6.41042e-05
5.51674e-06
2.86697e-05
4.60965e-05
5.63704e-05
6.23164e-05
6.52734e-05
6.58116e-05
6.41044e-05
5.51704e-06
2.86662e-05
4.6093e-05
5.63676e-05
6.23144e-05
6.52722e-05
6.58111e-05
6.41045e-05
5.51716e-06
2.86638e-05
4.60904e-05
5.63655e-05
6.23129e-05
6.52713e-05
6.58107e-05
6.41047e-05
5.51711e-06
2.86626e-05
4.60888e-05
5.63642e-05
6.23121e-05
6.52708e-05
6.58106e-05
6.41049e-05
5.51693e-06
2.8663e-05
4.60888e-05
5.63642e-05
6.23121e-05
6.52709e-05
6.58107e-05
6.4105e-05
5.52122e-06
2.87177e-05
4.61572e-05
5.64208e-05
6.23473e-05
6.52829e-05
6.58016e-05
6.40793e-05
5.52333e-06
2.8747e-05
4.61875e-05
5.64431e-05
6.23597e-05
6.52842e-05
6.57916e-05
6.40589e-05
5.52161e-06
2.87412e-05
4.61824e-05
5.64399e-05
6.23572e-05
5.52903e-06
2.88272e-05
5.52e-06
5.51833e-06
2.87049e-05
4.61386e-05
5.64051e-05
6.23378e-05
6.52802e-05
6.58053e-05
6.40879e-05
5.51954e-06
2.87246e-05
4.61588e-05
5.642e-05
6.23461e-05
6.52813e-05
6.57988e-05
6.40746e-05
5.5182e-06
2.8721e-05
4.61553e-05
5.64176e-05
6.23449e-05
6.52817e-05
6.58022e-05
6.40816e-05
5.52295e-06
2.87787e-05
4.62152e-05
5.64623e-05
6.23705e-05
6.52862e-05
6.5784e-05
6.40421e-05
5.51717e-06
2.87251e-05
4.61585e-05
5.64194e-05
6.23458e-05
6.52824e-05
6.58027e-05
6.40821e-05
5.51875e-06
2.87468e-05
4.61796e-05
5.64346e-05
6.2354e-05
6.52835e-05
6.57964e-05
6.40688e-05
5.51758e-06
2.87421e-05
4.61743e-05
5.64301e-05
6.23515e-05
6.5284e-05
6.58012e-05
6.4078e-05
5.51652e-06
2.86969e-05
4.6127e-05
5.63953e-05
6.23318e-05
6.52786e-05
6.58076e-05
6.40932e-05
5.51715e-06
2.87102e-05
4.61406e-05
5.64054e-05
6.23375e-05
6.52793e-05
6.58032e-05
6.40842e-05
5.51614e-06
2.87089e-05
4.61389e-05
5.6404e-05
6.23367e-05
6.52798e-05
6.58057e-05
6.40892e-05
5.51915e-06
2.87471e-05
4.61788e-05
5.64339e-05
6.23538e-05
6.52825e-05
6.57932e-05
6.40625e-05
5.51548e-06
2.87154e-05
4.61448e-05
5.6408e-05
6.23389e-05
6.52805e-05
6.58054e-05
6.40883e-05
5.51662e-06
2.8732e-05
4.61614e-05
5.64201e-05
6.23456e-05
6.52817e-05
6.58008e-05
6.40784e-05
5.51616e-06
2.87331e-05
4.61621e-05
5.64201e-05
6.23454e-05
6.52823e-05
6.58033e-05
6.4083e-05
5.51539e-06
2.86918e-05
4.61198e-05
5.63892e-05
6.23282e-05
6.52777e-05
6.58091e-05
6.40966e-05
5.51564e-06
2.8701e-05
4.6129e-05
5.63961e-05
6.23321e-05
6.52782e-05
6.58062e-05
6.40906e-05
5.51489e-06
2.87013e-05
4.61289e-05
5.63958e-05
6.23318e-05
6.52786e-05
6.58078e-05
6.40937e-05
5.51677e-06
2.87268e-05
4.61555e-05
5.64158e-05
6.23432e-05
6.52803e-05
6.57993e-05
6.40758e-05
5.51448e-06
2.8709e-05
4.61361e-05
5.64009e-05
6.23346e-05
6.52794e-05
6.58072e-05
6.40921e-05
5.51528e-06
2.87217e-05
4.6149e-05
5.64103e-05
6.234e-05
6.52804e-05
6.58038e-05
6.40846e-05
5.51524e-06
2.87259e-05
4.61529e-05
5.64128e-05
6.23412e-05
6.52812e-05
6.58049e-05
6.40866e-05
5.51468e-06
2.86885e-05
4.61151e-05
5.63854e-05
6.2326e-05
6.52772e-05
6.58101e-05
6.40988e-05
5.5147e-06
2.86951e-05
4.61216e-05
5.63902e-05
6.23286e-05
6.52776e-05
6.58082e-05
6.40947e-05
5.51414e-06
2.86963e-05
4.61225e-05
5.63907e-05
6.23289e-05
6.52779e-05
6.58091e-05
6.40966e-05
5.51528e-06
2.87136e-05
4.61404e-05
5.64041e-05
6.23365e-05
6.52791e-05
6.58034e-05
6.40845e-05
5.51388e-06
2.87044e-05
4.61302e-05
5.63962e-05
6.23319e-05
6.52788e-05
6.58083e-05
6.40945e-05
5.51445e-06
2.87142e-05
4.61402e-05
5.64035e-05
6.23361e-05
6.52796e-05
6.58058e-05
6.4089e-05
5.51463e-06
2.87197e-05
4.61456e-05
5.64071e-05
6.23379e-05
6.52804e-05
6.58061e-05
6.40893e-05
5.51423e-06
2.86861e-05
4.61119e-05
5.63828e-05
6.23245e-05
6.52768e-05
6.58108e-05
6.41003e-05
5.51411e-06
2.86909e-05
4.61165e-05
5.63862e-05
6.23264e-05
6.52771e-05
6.58095e-05
6.40974e-05
5.51368e-06
2.86927e-05
4.6118e-05
5.63872e-05
6.23269e-05
6.52774e-05
6.581e-05
6.40984e-05
5.51434e-06
2.87047e-05
4.61304e-05
5.63965e-05
6.23322e-05
6.52783e-05
6.58062e-05
6.40903e-05
5.5135e-06
2.87007e-05
4.61258e-05
5.63927e-05
6.233e-05
6.52783e-05
6.58091e-05
6.40961e-05
5.5139e-06
2.87084e-05
4.61337e-05
5.63985e-05
6.23333e-05
6.5279e-05
6.58073e-05
6.40921e-05
5.51417e-06
2.8714e-05
4.61393e-05
5.64024e-05
6.23353e-05
6.52797e-05
6.58071e-05
6.40915e-05
5.51393e-06
2.86841e-05
4.61094e-05
5.63809e-05
6.23234e-05
6.52766e-05
6.58113e-05
6.41013e-05
5.51373e-06
2.86876e-05
4.61128e-05
5.63834e-05
6.23248e-05
6.52769e-05
6.58104e-05
6.40993e-05
5.51339e-06
2.86896e-05
4.61146e-05
5.63846e-05
6.23255e-05
6.52771e-05
6.58106e-05
6.40996e-05
5.51373e-06
2.86983e-05
4.61234e-05
5.63912e-05
6.23292e-05
6.52778e-05
6.58081e-05
6.40942e-05
5.51323e-06
2.86973e-05
4.6122e-05
5.639e-05
6.23284e-05
6.5278e-05
6.58097e-05
6.40974e-05
5.51351e-06
2.87035e-05
4.61284e-05
5.63946e-05
6.23311e-05
6.52786e-05
6.58084e-05
6.40945e-05
5.51381e-06
2.87088e-05
4.61338e-05
5.63984e-05
6.23331e-05
6.52792e-05
6.5808e-05
6.40935e-05
5.51373e-06
2.86822e-05
4.61073e-05
5.63793e-05
6.23225e-05
6.52764e-05
6.58117e-05
6.41021e-05
5.51348e-06
2.86847e-05
4.61098e-05
5.63812e-05
6.23236e-05
6.52766e-05
6.5811e-05
6.41006e-05
5.5132e-06
2.86866e-05
4.61115e-05
5.63825e-05
6.23243e-05
6.52768e-05
6.5811e-05
6.41005e-05
5.51334e-06
2.86932e-05
4.61181e-05
5.63874e-05
6.23271e-05
6.52774e-05
6.58093e-05
6.40968e-05
5.51304e-06
2.86938e-05
4.61184e-05
5.63875e-05
6.23271e-05
6.52776e-05
6.58101e-05
6.40984e-05
5.51323e-06
2.8699e-05
4.61237e-05
5.63913e-05
6.23293e-05
6.52782e-05
6.58092e-05
6.40963e-05
5.51351e-06
2.87039e-05
4.61287e-05
5.63948e-05
6.23312e-05
6.52788e-05
6.58088e-05
6.40952e-05
5.51357e-06
2.86803e-05
4.61054e-05
5.6378e-05
6.23218e-05
6.52762e-05
6.5812e-05
6.41027e-05
5.51331e-06
2.86821e-05
4.61071e-05
5.63794e-05
6.23226e-05
6.52764e-05
6.58114e-05
6.41016e-05
5.51306e-06
2.86837e-05
4.61087e-05
5.63806e-05
6.23232e-05
6.52765e-05
6.58112e-05
6.41012e-05
5.51309e-06
2.86886e-05
4.61135e-05
5.63842e-05
6.23254e-05
6.5277e-05
6.58101e-05
6.40986e-05
5.51291e-06
2.86899e-05
4.61148e-05
5.6385e-05
6.23257e-05
6.52772e-05
6.58104e-05
6.40992e-05
5.51302e-06
2.86944e-05
4.61193e-05
5.63883e-05
6.23276e-05
6.52778e-05
6.58099e-05
6.40977e-05
5.51326e-06
2.8699e-05
4.61238e-05
5.63915e-05
6.23294e-05
6.52783e-05
6.58095e-05
6.40967e-05
5.51343e-06
2.86785e-05
4.61035e-05
5.63767e-05
6.23211e-05
6.5276e-05
6.58122e-05
6.41032e-05
5.51317e-06
2.86795e-05
4.61046e-05
5.63777e-05
6.23216e-05
6.52761e-05
6.58117e-05
6.41023e-05
5.51296e-06
2.86806e-05
4.61058e-05
5.63787e-05
6.23222e-05
6.52761e-05
6.58114e-05
6.41018e-05
5.51292e-06
2.86841e-05
4.61094e-05
5.63814e-05
6.23237e-05
6.52764e-05
6.58106e-05
6.40999e-05
5.5128e-06
2.86857e-05
4.61109e-05
5.63824e-05
6.23243e-05
6.52766e-05
6.58106e-05
6.40999e-05
5.51287e-06
2.86895e-05
4.61146e-05
5.63851e-05
6.23258e-05
6.52772e-05
6.58103e-05
6.40989e-05
5.51305e-06
2.86937e-05
4.61188e-05
5.6388e-05
6.23275e-05
6.52778e-05
6.581e-05
6.40981e-05
5.51331e-06
2.86765e-05
4.61016e-05
5.63753e-05
6.23203e-05
6.52757e-05
6.58124e-05
6.41038e-05
5.51305e-06
2.86767e-05
4.6102e-05
5.63759e-05
6.23207e-05
6.52757e-05
6.5812e-05
6.41031e-05
5.51285e-06
2.86773e-05
4.61028e-05
5.63767e-05
6.2321e-05
6.52757e-05
6.58116e-05
6.41024e-05
5.51278e-06
2.86797e-05
4.61053e-05
5.63786e-05
6.23221e-05
6.52759e-05
6.58109e-05
6.41009e-05
5.51269e-06
2.86811e-05
4.61068e-05
5.63797e-05
6.23227e-05
6.5276e-05
6.58107e-05
6.41007e-05
5.51273e-06
2.86841e-05
4.61098e-05
5.63819e-05
6.2324e-05
6.52765e-05
6.58106e-05
6.41e-05
5.51288e-06
2.86879e-05
4.61135e-05
5.63845e-05
6.23255e-05
6.52771e-05
6.58104e-05
6.40993e-05
5.51317e-06
2.86743e-05
4.60995e-05
5.6374e-05
6.23196e-05
6.52756e-05
6.58127e-05
6.41044e-05
5.51291e-06
2.86738e-05
4.60994e-05
5.63742e-05
6.23197e-05
6.52755e-05
6.58123e-05
6.41038e-05
5.51272e-06
2.86738e-05
4.60996e-05
5.63747e-05
6.23199e-05
6.52753e-05
6.58118e-05
6.41032e-05
5.51264e-06
2.86751e-05
4.61013e-05
5.6376e-05
6.23207e-05
6.52754e-05
6.58112e-05
6.41019e-05
5.51257e-06
2.86762e-05
4.61025e-05
5.63769e-05
6.23212e-05
6.52755e-05
6.5811e-05
6.41015e-05
5.51259e-06
2.86786e-05
4.61048e-05
5.63787e-05
6.23222e-05
6.52759e-05
6.58109e-05
6.41011e-05
5.51272e-06
2.86818e-05
4.6108e-05
5.63809e-05
6.23236e-05
6.52764e-05
6.58108e-05
6.41005e-05
5.51304e-06
2.86721e-05
4.60976e-05
5.63728e-05
6.23191e-05
6.52756e-05
6.58131e-05
6.41052e-05
5.51277e-06
2.86708e-05
4.60968e-05
5.63727e-05
6.23191e-05
6.52755e-05
6.58128e-05
6.41047e-05
5.51258e-06
2.86701e-05
4.60965e-05
5.63728e-05
6.23191e-05
6.52752e-05
6.58123e-05
6.4104e-05
5.51249e-06
2.86706e-05
4.60974e-05
5.63737e-05
6.23195e-05
6.52751e-05
6.58116e-05
6.41029e-05
5.51243e-06
2.86711e-05
4.60982e-05
5.63744e-05
6.23199e-05
6.52751e-05
6.58113e-05
6.41024e-05
5.51244e-06
2.86729e-05
4.61e-05
5.63757e-05
6.23207e-05
6.52754e-05
6.58113e-05
6.41021e-05
5.51257e-06
2.86756e-05
4.61027e-05
5.63777e-05
6.23218e-05
6.52759e-05
6.58112e-05
6.41016e-05
5.51291e-06
2.86701e-05
4.6096e-05
5.63721e-05
6.23189e-05
6.52758e-05
6.58136e-05
6.41058e-05
5.51264e-06
2.8668e-05
4.60946e-05
5.63715e-05
6.23187e-05
6.52756e-05
6.58133e-05
6.41054e-05
5.51245e-06
2.86664e-05
4.60936e-05
5.63713e-05
6.23185e-05
6.52752e-05
6.58127e-05
6.41047e-05
5.51236e-06
2.86661e-05
4.60938e-05
5.63717e-05
6.23186e-05
6.5275e-05
6.5812e-05
6.41037e-05
5.51229e-06
2.86661e-05
4.60941e-05
5.63721e-05
6.23188e-05
6.52749e-05
6.58117e-05
6.41032e-05
5.5123e-06
2.86672e-05
4.60954e-05
5.63731e-05
6.23194e-05
6.5275e-05
6.58116e-05
6.41029e-05
5.51242e-06
2.86695e-05
4.60977e-05
5.63747e-05
6.23203e-05
6.52754e-05
6.58115e-05
6.41025e-05
5.52953e-06
5.54491e-06
2.90408e-05
5.53078e-06
2.88746e-05
4.6323e-05
5.65431e-05
6.24178e-05
5.53106e-06
2.88427e-05
4.62883e-05
5.65167e-05
6.24021e-05
6.52979e-05
6.57808e-05
6.4029e-05
5.52216e-06
2.87186e-05
4.61594e-05
5.64227e-05
6.23498e-05
6.52872e-05
6.58086e-05
6.4089e-05
5.5188e-06
2.87624e-05
4.61957e-05
5.64458e-05
6.23603e-05
6.5287e-05
6.57995e-05
6.40733e-05
5.52525e-06
2.88349e-05
4.62704e-05
5.64996e-05
6.23896e-05
6.5292e-05
6.5782e-05
6.40366e-05
5.5241e-06
2.88267e-05
4.62662e-05
5.6498e-05
6.23898e-05
6.52947e-05
6.57888e-05
6.40487e-05
5.53475e-06
2.89374e-05
4.63817e-05
5.65846e-05
6.24406e-05
6.53068e-05
6.57611e-05
6.3984e-05
5.52556e-06
2.88224e-05
4.62624e-05
5.64955e-05
6.23894e-05
6.52961e-05
6.57919e-05
6.40532e-05
5.52587e-06
2.87981e-05
4.62363e-05
5.64763e-05
6.23779e-05
6.52907e-05
6.57889e-05
6.40495e-05
5.51934e-06
2.87041e-05
4.61388e-05
5.64052e-05
6.23384e-05
6.52825e-05
6.58098e-05
6.40946e-05
5.51706e-06
2.87486e-05
4.61785e-05
5.6432e-05
6.23522e-05
6.52845e-05
6.58019e-05
6.40793e-05
5.52184e-06
2.88019e-05
4.62336e-05
5.64718e-05
6.23739e-05
6.52884e-05
6.57891e-05
6.40523e-05
5.52088e-06
2.87927e-05
4.62268e-05
5.64676e-05
6.2372e-05
6.52894e-05
6.57941e-05
6.4062e-05
5.52834e-06
2.88653e-05
4.6303e-05
5.65246e-05
6.2405e-05
6.52963e-05
6.5774e-05
6.40167e-05
5.5221e-06
2.87865e-05
4.62211e-05
5.64635e-05
6.23701e-05
6.52897e-05
6.57963e-05
6.40656e-05
5.52231e-06
2.87662e-05
4.61998e-05
5.64482e-05
6.23615e-05
6.5286e-05
6.57951e-05
6.40643e-05
5.51758e-06
2.8695e-05
4.61259e-05
5.63942e-05
6.23313e-05
6.52795e-05
6.58105e-05
6.4098e-05
5.51594e-06
2.87376e-05
4.61655e-05
5.64219e-05
6.23463e-05
6.52828e-05
6.58037e-05
6.40836e-05
5.51953e-06
2.87765e-05
4.62059e-05
5.64511e-05
6.23623e-05
6.52857e-05
6.57943e-05
6.40638e-05
5.51882e-06
2.87685e-05
4.61992e-05
5.64466e-05
6.23599e-05
6.5286e-05
6.57982e-05
6.40716e-05
5.52395e-06
2.88158e-05
4.62491e-05
5.64839e-05
6.23813e-05
6.52901e-05
6.57841e-05
6.40405e-05
5.51974e-06
2.87609e-05
4.61921e-05
5.64415e-05
6.23573e-05
6.52858e-05
6.58e-05
6.40749e-05
5.51988e-06
2.87433e-05
4.6174e-05
5.64285e-05
6.23501e-05
6.5283e-05
6.57996e-05
6.40751e-05
5.51649e-06
2.86893e-05
4.6118e-05
5.63875e-05
6.2327e-05
6.52778e-05
6.58109e-05
6.41001e-05
5.51519e-06
2.87287e-05
4.61553e-05
5.64141e-05
6.23418e-05
6.52815e-05
6.58051e-05
6.4087e-05
5.51786e-06
2.87568e-05
4.61846e-05
5.64354e-05
6.23535e-05
6.52836e-05
6.57983e-05
6.40725e-05
5.5174e-06
2.87505e-05
4.61791e-05
5.64315e-05
6.23514e-05
6.52838e-05
6.58013e-05
6.40786e-05
5.52094e-06
2.87808e-05
4.62113e-05
5.64555e-05
6.23651e-05
6.52861e-05
6.57916e-05
6.40575e-05
5.51814e-06
2.87422e-05
4.61713e-05
5.64258e-05
6.23483e-05
6.52832e-05
6.58028e-05
6.40817e-05
5.51821e-06
2.87269e-05
4.61556e-05
5.64146e-05
6.23421e-05
6.5281e-05
6.5803e-05
6.40828e-05
5.51582e-06
2.86859e-05
4.61131e-05
5.63834e-05
6.23245e-05
6.52768e-05
6.58113e-05
6.41013e-05
5.51465e-06
2.87211e-05
4.61469e-05
5.64079e-05
6.23383e-05
6.52806e-05
6.58063e-05
6.40897e-05
5.51665e-06
2.87414e-05
4.61681e-05
5.64233e-05
6.23468e-05
6.52821e-05
6.58014e-05
6.40792e-05
5.5164e-06
2.87367e-05
4.6164e-05
5.64203e-05
6.23451e-05
6.52821e-05
6.58036e-05
6.40838e-05
5.51886e-06
2.87557e-05
4.61844e-05
5.64355e-05
6.23538e-05
6.52835e-05
6.5797e-05
6.40697e-05
5.51705e-06
2.87283e-05
4.6156e-05
5.64145e-05
6.23419e-05
6.52814e-05
6.5805e-05
6.40867e-05
5.51707e-06
2.8715e-05
4.61426e-05
5.64048e-05
6.23365e-05
6.52796e-05
6.58055e-05
6.40884e-05
5.51542e-06
2.86838e-05
4.61102e-05
5.6381e-05
6.2323e-05
6.52763e-05
6.58115e-05
6.4102e-05
5.51423e-06
2.87145e-05
4.61398e-05
5.64028e-05
6.23355e-05
6.52799e-05
6.58074e-05
6.4092e-05
5.51574e-06
2.87291e-05
4.61552e-05
5.64139e-05
6.23416e-05
6.5281e-05
6.58038e-05
6.40844e-05
5.51568e-06
2.87257e-05
4.61523e-05
5.64117e-05
6.23403e-05
6.5281e-05
6.58054e-05
6.40877e-05
5.51741e-06
2.87374e-05
4.61649e-05
5.64212e-05
6.23457e-05
6.52817e-05
6.58011e-05
6.40785e-05
5.51627e-06
2.87178e-05
4.61447e-05
5.64062e-05
6.23373e-05
6.52802e-05
6.58066e-05
6.40904e-05
5.51629e-06
2.87064e-05
4.61332e-05
5.63978e-05
6.23326e-05
6.52787e-05
6.58073e-05
6.40923e-05
5.51517e-06
2.86825e-05
4.61085e-05
5.63796e-05
6.23222e-05
6.5276e-05
6.58116e-05
6.41025e-05
5.51389e-06
2.87086e-05
4.61337e-05
5.63984e-05
6.23331e-05
6.52793e-05
6.58083e-05
6.4094e-05
5.51505e-06
2.87192e-05
4.61449e-05
5.64065e-05
6.23376e-05
6.52802e-05
6.58057e-05
6.40885e-05
5.51513e-06
2.87169e-05
4.6143e-05
5.64051e-05
6.23367e-05
6.52801e-05
6.58068e-05
6.40908e-05
5.51638e-06
2.87239e-05
4.61507e-05
5.64108e-05
6.234e-05
6.52805e-05
6.5804e-05
6.40849e-05
5.51571e-06
2.87097e-05
4.61362e-05
5.64e-05
6.23339e-05
6.52794e-05
6.58079e-05
6.40933e-05
5.51576e-06
2.87001e-05
4.61265e-05
5.63929e-05
6.23299e-05
6.52781e-05
6.58086e-05
6.40952e-05
5.51503e-06
2.86818e-05
4.61075e-05
5.63789e-05
6.23218e-05
6.5276e-05
6.58118e-05
6.41028e-05
5.5136e-06
2.87031e-05
4.61282e-05
5.63945e-05
6.23311e-05
6.52789e-05
6.58091e-05
6.40957e-05
5.5145e-06
2.87109e-05
4.61365e-05
5.64005e-05
6.23344e-05
6.52795e-05
6.58073e-05
6.40917e-05
5.5147e-06
2.87097e-05
4.61356e-05
5.63998e-05
6.23339e-05
6.52795e-05
6.5808e-05
6.40932e-05
5.51564e-06
2.87138e-05
4.61402e-05
5.64032e-05
6.23358e-05
6.52797e-05
6.58062e-05
6.40895e-05
5.5153e-06
2.87035e-05
4.61297e-05
5.63954e-05
6.23314e-05
6.52789e-05
6.5809e-05
6.40954e-05
5.5154e-06
2.86956e-05
4.61217e-05
5.63895e-05
6.2328e-05
6.52778e-05
6.58097e-05
6.40974e-05
5.51496e-06
2.86815e-05
4.61072e-05
5.63786e-05
6.23218e-05
6.52761e-05
6.5812e-05
6.4103e-05
5.51335e-06
2.86976e-05
4.61228e-05
5.63908e-05
6.23291e-05
6.52783e-05
6.58098e-05
6.40973e-05
5.51406e-06
2.87038e-05
4.61294e-05
5.63955e-05
6.23317e-05
6.52789e-05
6.58085e-05
6.40944e-05
5.51435e-06
2.87035e-05
4.61293e-05
5.63954e-05
6.23315e-05
6.5279e-05
6.5809e-05
6.40953e-05
5.51509e-06
2.8706e-05
4.61322e-05
5.63975e-05
6.23327e-05
6.52791e-05
6.58079e-05
6.4093e-05
5.515e-06
2.86986e-05
4.61247e-05
5.63918e-05
6.23295e-05
6.52785e-05
6.58098e-05
6.40972e-05
5.51516e-06
2.86923e-05
4.61183e-05
5.6387e-05
6.23267e-05
6.52776e-05
6.58105e-05
6.4099e-05
5.51495e-06
2.86815e-05
4.61072e-05
5.63787e-05
6.23219e-05
6.52762e-05
6.58122e-05
6.41032e-05
5.51315e-06
2.86917e-05
4.61173e-05
5.63871e-05
6.2327e-05
6.52777e-05
6.58103e-05
6.40987e-05
5.51371e-06
2.86972e-05
4.61229e-05
5.63911e-05
6.23293e-05
6.52784e-05
6.58095e-05
6.40966e-05
5.51406e-06
2.86978e-05
4.61237e-05
5.63916e-05
6.23295e-05
6.52786e-05
6.58098e-05
6.40971e-05
5.51468e-06
2.86997e-05
4.61259e-05
5.6393e-05
6.23303e-05
6.52787e-05
6.58092e-05
6.40957e-05
5.51477e-06
2.86947e-05
4.61208e-05
5.63891e-05
6.23281e-05
6.52783e-05
6.58106e-05
6.40987e-05
5.51501e-06
2.86898e-05
4.61158e-05
5.63853e-05
6.23259e-05
6.52776e-05
6.58112e-05
6.41002e-05
5.51499e-06
2.86816e-05
4.61074e-05
5.63789e-05
6.23221e-05
6.52764e-05
6.58124e-05
6.41034e-05
5.51298e-06
2.86854e-05
4.61117e-05
5.63835e-05
6.23251e-05
6.52771e-05
6.58108e-05
6.41e-05
5.51345e-06
2.86905e-05
4.61167e-05
5.6387e-05
6.23271e-05
6.52779e-05
6.58104e-05
6.40985e-05
5.51383e-06
2.86923e-05
4.61185e-05
5.63881e-05
6.23278e-05
6.52782e-05
6.58106e-05
6.40987e-05
5.51437e-06
2.86944e-05
4.61207e-05
5.63895e-05
6.23285e-05
6.52785e-05
6.58103e-05
6.40979e-05
5.5146e-06
2.86914e-05
4.61176e-05
5.6387e-05
6.23271e-05
6.52782e-05
6.58114e-05
6.41001e-05
5.51491e-06
2.8688e-05
4.61141e-05
5.63841e-05
6.23254e-05
6.52777e-05
6.58118e-05
6.41013e-05
5.51505e-06
2.86819e-05
4.61078e-05
5.63793e-05
6.23224e-05
6.52767e-05
6.58126e-05
6.41035e-05
5.51282e-06
2.86791e-05
4.61062e-05
5.63801e-05
6.23233e-05
6.52765e-05
6.58112e-05
6.41011e-05
5.51325e-06
2.8684e-05
4.61109e-05
5.63833e-05
6.23252e-05
6.52774e-05
6.5811e-05
6.41e-05
5.51366e-06
2.86868e-05
4.61137e-05
5.63851e-05
6.23262e-05
6.52779e-05
6.58113e-05
6.41001e-05
5.51415e-06
2.86897e-05
4.61163e-05
5.63867e-05
6.23272e-05
6.52784e-05
6.58113e-05
6.40997e-05
5.51448e-06
2.86887e-05
4.61151e-05
5.63854e-05
6.23264e-05
6.52784e-05
6.58121e-05
6.41012e-05
5.51486e-06
2.86867e-05
4.6113e-05
5.63836e-05
6.23252e-05
6.5278e-05
6.58124e-05
6.41021e-05
5.51514e-06
2.86825e-05
4.61086e-05
5.638e-05
6.23229e-05
6.52771e-05
6.58128e-05
6.41035e-05
5.51269e-06
2.8673e-05
4.61011e-05
5.6377e-05
6.23217e-05
6.5276e-05
6.58115e-05
6.4102e-05
5.5131e-06
2.86778e-05
4.61057e-05
5.63802e-05
6.23236e-05
6.52769e-05
6.58115e-05
6.41011e-05
5.51354e-06
2.86817e-05
4.61093e-05
5.63825e-05
6.2325e-05
6.52777e-05
6.58117e-05
6.4101e-05
5.51403e-06
2.86854e-05
4.61127e-05
5.63846e-05
6.23262e-05
6.52783e-05
6.5812e-05
6.41008e-05
5.51441e-06
2.86864e-05
4.61133e-05
5.63845e-05
6.23261e-05
6.52786e-05
6.58126e-05
6.41018e-05
5.51487e-06
2.86861e-05
4.61127e-05
5.63836e-05
6.23255e-05
6.52784e-05
6.58128e-05
6.41025e-05
5.51528e-06
2.86835e-05
4.611e-05
5.63812e-05
6.23239e-05
6.52776e-05
6.5813e-05
6.41033e-05
5.52389e-06
2.86344e-05
4.60855e-05
5.63723e-05
6.23204e-05
6.52743e-05
6.58079e-05
6.40969e-05
5.52881e-06
2.87372e-05
4.61828e-05
5.64406e-05
6.23583e-05
6.52836e-05
6.57909e-05
6.40579e-05
5.52848e-06
2.87565e-05
4.62039e-05
5.64562e-05
6.23676e-05
6.52883e-05
6.5794e-05
6.40619e-05
5.53693e-06
2.88591e-05
4.63113e-05
5.65371e-05
6.24146e-05
6.5298e-05
6.57645e-05
6.39959e-05
5.52665e-06
2.87599e-05
4.62063e-05
5.64579e-05
6.23686e-05
6.52888e-05
6.57942e-05
6.40621e-05
5.52783e-06
2.87765e-05
4.62201e-05
5.64669e-05
6.23729e-05
6.52875e-05
6.57864e-05
6.40473e-05
5.52189e-06
2.87192e-05
4.61601e-05
5.64233e-05
6.2349e-05
6.52839e-05
6.58021e-05
6.40796e-05
5.52132e-06
2.862e-05
4.60649e-05
5.63545e-05
6.23085e-05
6.52692e-05
6.58091e-05
6.4103e-05
5.52407e-06
2.8706e-05
4.61445e-05
5.64102e-05
6.23403e-05
6.52787e-05
6.57984e-05
6.40755e-05
5.52382e-06
2.87235e-05
4.6163e-05
5.64237e-05
6.23482e-05
6.52825e-05
6.58004e-05
6.40778e-05
5.52944e-06
2.87945e-05
4.62372e-05
5.64792e-05
6.23801e-05
6.52886e-05
6.57796e-05
6.40319e-05
5.52249e-06
2.87313e-05
4.61699e-05
5.64286e-05
6.2351e-05
6.52836e-05
6.58003e-05
6.40769e-05
5.52328e-06
2.87445e-05
4.61815e-05
5.64367e-05
6.23553e-05
6.52833e-05
6.57945e-05
6.40652e-05
5.51893e-06
2.87055e-05
4.61402e-05
5.64065e-05
6.23387e-05
6.52808e-05
6.58057e-05
6.40884e-05
5.5196e-06
2.86148e-05
4.60552e-05
5.63453e-05
6.2302e-05
6.52659e-05
6.58092e-05
6.41061e-05
5.52093e-06
2.86856e-05
4.61194e-05
5.63904e-05
6.23285e-05
6.52756e-05
6.58034e-05
6.40871e-05
5.52078e-06
2.8702e-05
4.61365e-05
5.64027e-05
6.23357e-05
6.52789e-05
6.58047e-05
6.40881e-05
5.52447e-06
2.87517e-05
4.61882e-05
5.64413e-05
6.23579e-05
6.52831e-05
6.57903e-05
6.40565e-05
5.5198e-06
2.87126e-05
4.61463e-05
5.64097e-05
6.23398e-05
6.52805e-05
6.58044e-05
6.40865e-05
5.52024e-06
2.87227e-05
4.61555e-05
5.64164e-05
6.23435e-05
6.52806e-05
6.58001e-05
6.40775e-05
5.51708e-06
2.86969e-05
4.61278e-05