/*--------------------------------*- C++ -*----------------------------------*\
| =========                 |                                                 |
| \\      /  F ield         | OpenFOAM: The Open Source CFD Toolbox           |
|  \\    /   O peration     | Version:  plus.master.MPPICInterFoam            |
|   \\  /    A nd           | Web:      www.OpenFOAM.com                      |
|    \\/     M anipulation  |                                                 |
\*---------------------------------------------------------------------------*/
FoamFile
{
    version     2.0;
    format      ascii;
    class       scalarField;
    location    "9/lagrangian/kinematicCloud";
    object      d;
}
// * * * * * * * * * * * * * * * * * * * * * * * * * * * * * * * * * * * * * //


117
(
0.000454611
0.000525572
0.000500766
0.000506768
0.000513012
0.000535059
0.000539632
0.000492714
0.000480865
0.000570733
0.00051517
0.000516321
0.000549076
0.000472068
0.000470064
0.000507009
0.000494478
0.000492775
0.000483469
0.000536405
0.000500934
0.000462391
0.000523926
0.00047863
0.000495763
0.000492263
0.000483937
0.000529925
0.000498421
0.000442743
0.000540846
0.00047997
0.000475656
0.00051107
0.000459687
0.000553038
0.000520515
0.000512661
0.000543624
0.000515515
0.000552261
0.000464738
0.000555916
0.000522088
0.000527484
0.000533879
0.000521358
0.000487033
0.000554025
0.000510622
0.000541711
0.000519017
0.000509335
0.000593728
0.000500676
0.000586225
0.000535349
0.000562179
0.000529224
0.000460299
0.000489728
0.000527975
0.000538784
0.000485423
0.000485719
0.000521937
0.000522315
0.000514798
0.0004879
0.000539356
0.00058269
0.00050334
0.000545981
0.000520124
0.000521799
0.000472173
0.00049725
0.000555304
0.000529045
0.000499017
0.000568978
0.000514842
0.00055291
0.000501864
0.000446729
0.000515464
0.000524238
0.000495608
0.000597647
0.000487394
0.000523191
0.000492085
0.000523423
0.000505423
0.000457915
0.000511342
0.000550991
0.00047707
0.000465786
0.000579212
0.000536544
0.000523505
0.000487059
0.000539754
0.000533719
0.00057331
0.000494763
0.000527097
0.000505006
0.000524711
0.000509286
0.000532195
0.000497927
0.000522341
0.000517582
0.000499351
0.000540306
)


// ************************************************************************* //
