/*--------------------------------*- C++ -*----------------------------------*\
| =========                 |                                                 |
| \\      /  F ield         | OpenFOAM: The Open Source CFD Toolbox           |
|  \\    /   O peration     | Version:  plus.master.MPPICInterFoam            |
|   \\  /    A nd           | Web:      www.OpenFOAM.com                      |
|    \\/     M anipulation  |                                                 |
\*---------------------------------------------------------------------------*/
FoamFile
{
    version     2.0;
    format      ascii;
    class       vectorField;
    location    "9/lagrangian/kinematicCloud";
    object      U;
}
// * * * * * * * * * * * * * * * * * * * * * * * * * * * * * * * * * * * * * //


117
(
(-0.00385466 0.0119516 0.411364)
(-0.0035033 0.0155054 0.393555)
(-0.00578771 0.011749 0.384562)
(-0.00712492 0.00630086 0.364786)
(-0.00701842 0.00495045 0.375777)
(-0.00760286 -0.00188917 0.382215)
(-0.00762922 -0.00553409 0.381618)
(-0.00146746 0.000308003 -0.0540202)
(-0.00147743 0.000326595 -0.0536279)
(-0.00836937 -0.0122095 0.394416)
(-0.00141972 0.000307867 -0.0545948)
(-0.00142166 0.000296458 -0.0546318)
(-0.00850467 -0.00363822 0.415889)
(-0.00147176 0.000316994 -0.0532055)
(-0.00145027 0.000457167 -0.0533505)
(-0.00141713 0.00034752 -0.0543324)
(-0.00169442 -0.000714228 -0.0536423)
(0.00113079 -0.000158002 -0.0510093)
(-0.00178668 -0.000988522 -0.0534028)
(-0.00979453 0.0628086 0.396219)
(-0.00177795 -0.0010853 -0.0538197)
(-0.0082074 0.0166585 0.355784)
(-0.00129751 0.000366718 -0.0562292)
(-0.0100066 0.0160775 0.373489)
(-0.00175537 -0.000985578 -0.0536787)
(0.00143467 -0.000168547 -0.0505902)
(0.0012039 -0.000148411 -0.0510753)
(-0.00175996 -0.00113467 -0.0556529)
(-0.00174405 -0.00105801 -0.0542029)
(-0.00141051 0.00043497 -0.0519976)
(-0.00174523 -0.000750001 -0.0556563)
(-0.00170343 -0.000938527 -0.0531053)
(-0.00126618 0.000439153 -0.0530307)
(0.00130496 -0.000169943 -0.051587)
(-0.00162479 -0.000997152 -0.0512797)
(-0.00171471 -0.0011281 -0.0558052)
(0.00145233 -2.85834e-05 -0.0513282)
(-0.00138462 0.000425588 -0.0549773)
(-0.00174651 -0.000859007 -0.0557739)
(-0.00126579 0.000398773 -0.054785)
(-0.00175685 -0.00101629 -0.0560701)
(-0.00163569 -0.00105742 -0.0514761)
(-0.00133189 6.74177e-06 -0.0550265)
(0.00139586 1.75515e-07 -0.0511066)
(0.00137272 -1.23163e-05 -0.0511956)
(0.00137613 -3.17124e-05 -0.0514905)
(0.00143575 -3.53933e-05 -0.0512618)
(0.00116106 -0.000158358 -0.0509294)
(-0.0016807 -0.00110343 -0.0556944)
(-0.00159564 -0.000988474 -0.0534302)
(-0.00132402 -1.9244e-06 -0.0545449)
(-0.00144693 -1.59776e-05 -0.0547519)
(-0.00160089 -0.00089227 -0.0535361)
(-0.00118195 -6.30255e-05 -0.0557292)
(0.00140041 -3.0068e-05 -0.0501171)
(-0.00111203 0.000474366 -0.0569331)
(0.00142773 -0.000191444 -0.0523245)
(-0.00814146 -0.00713606 0.447185)
(-0.00109199 0.00034945 -0.0526287)
(0.000908006 -0.000147745 -0.05016)
(-0.00118134 0.000445737 -0.0525437)
(0.00138217 -0.000162028 -0.0520683)
(0.0014365 -0.000197699 -0.052438)
(-0.00833522 -0.00218054 0.43266)
(-0.00118908 0.000453208 -0.052378)
(-0.00142297 2.26316e-05 -0.0548451)
(0.00126039 -0.00018248 -0.0519126)
(-0.00156298 -0.0010167 -0.0534121)
(-0.00117764 0.000384381 -0.0521559)
(-0.00131106 -3.05118e-07 -0.0543418)
(-0.00105028 0.000608074 -0.0554165)
(0.00111341 -0.000170197 -0.0513292)
(-0.00129105 -6.00101e-06 -0.0544049)
(-0.00833965 0.00797809 0.443654)
(0.00105206 -0.000150103 -0.0518282)
(0.00155245 0.000485054 -0.0480662)
(-0.00162669 -0.000807509 -0.0533955)
(-0.00134506 -0.00012842 -0.055571)
(0.00140978 0.000346037 -0.0499423)
(-0.00113248 0.000326779 -0.0526973)
(-0.00117782 0.000440597 -0.0558403)
(-0.00155466 -0.000902486 -0.0534775)
(-0.00133566 -5.17273e-05 -0.0554926)
(0.00148421 0.000414752 -0.04906)
(0.00144065 3.7163e-05 -0.0477731)
(0.00138307 -4.57291e-05 -0.0505988)
(-0.00139868 -0.000110319 -0.0550099)
(-0.00510352 0.020554 0.443926)
(-0.00123203 -0.000132544 -0.0561919)
(-0.00567757 0.0173651 0.426449)
(0.00143857 0.00038557 -0.0495258)
(-0.00117058 0.000194824 -0.0515139)
(-0.0082202 0.0229395 0.445287)
(0.00145422 0.000342101 -0.0491324)
(0.00139505 3.38512e-05 -0.0479711)
(-0.00152975 -0.00077019 -0.0535372)
(-0.00132262 -5.41763e-05 -0.0553747)
(0.00134157 6.22461e-05 -0.0482057)
(-0.00135331 -4.49671e-05 -0.0522804)
(-0.00125163 -0.000171299 -0.0552012)
(-0.00152498 -0.000917973 -0.055576)
(0.00153313 -0.000139479 -0.0517356)
(0.00156614 0.000675313 -0.0485852)
(0.0013884 -0.000286239 -0.0518856)
(0.00151069 -0.000177402 -0.0518492)
(-0.00137022 -0.000547698 -0.0549814)
(-0.00134005 -0.000534342 -0.051198)
(-0.00132277 -0.000633579 -0.0533021)
(0.00167621 0.000562897 -0.0488669)
(-0.00145844 -0.000798241 -0.0528875)
(-0.00138819 -0.000260971 -0.0535535)
(0.00135173 -4.85197e-05 -0.0511068)
(0.00184219 0.000175172 -0.0499194)
(0.00155606 -0.000194621 -0.0516656)
(-0.00129229 -2.84805e-05 -0.0533213)
(0.00149792 -0.00018903 -0.051092)
(0.00396856 -0.000756294 -0.0533992)
)


// ************************************************************************* //
