/*--------------------------------*- C++ -*----------------------------------*\
| =========                 |                                                 |
| \\      /  F ield         | OpenFOAM: The Open Source CFD Toolbox           |
|  \\    /   O peration     | Version:  plus.master.MPPICInterFoam            |
|   \\  /    A nd           | Web:      www.OpenFOAM.com                      |
|    \\/     M anipulation  |                                                 |
\*---------------------------------------------------------------------------*/
FoamFile
{
    version     2.0;
    format      ascii;
    class       vectorField;
    location    "9/lagrangian/kinematicCloud";
    object      UCorrect;
}
// * * * * * * * * * * * * * * * * * * * * * * * * * * * * * * * * * * * * * //


117
(
(-6.3006e-10 3.79804e-09 -5.58185e-07)
(-5.18476e-10 2.95412e-09 -5.58185e-07)
(1.92275e-09 -1.04269e-08 8.00609e-07)
(1.62521e-19 1.01647e-18 -3.99515e-35)
(-0.000386548 0.00239427 9.49073e-16)
(-0.00036181 0.00220718 9.49073e-16)
(-0.000356539 0.00216731 9.49073e-16)
(4.80107e-07 -6.36107e-08 -1.42052e-06)
(4.80029e-07 -6.43087e-08 -1.42052e-06)
(5.59428e-10 -1.16904e-10 -1.66706e-08)
(8.64526e-07 -1.97184e-07 -1.42052e-06)
(8.70575e-07 -1.98564e-07 -1.42052e-06)
(6.40664e-13 -2.84753e-13 -4.36921e-13)
(4.80602e-07 -5.92228e-08 -1.42052e-06)
(3.86623e-08 -8.68545e-09 -1.42052e-06)
(4.79017e-07 -7.32887e-08 -1.42052e-06)
(4.75073e-07 -1.08293e-07 -2.80531e-06)
(-0.000103598 -4.14471e-05 -0.00010892)
(-0.000103776 -0.000384594 -2.64829e-06)
(-4.47834e-19 -1.707e-20 -1.88111e-38)
(-0.000103776 -0.000384594 -2.6028e-06)
(1.1084e-20 -1.3849e-21 1.75315e-18)
(-2.54274e-06 5.80364e-07 -0.000790765)
(1.34747e-20 -1.15538e-21 1.75315e-18)
(-0.000103776 -0.000384594 -1.80117e-06)
(-1.63841e-05 -4.14471e-05 -5.80385e-05)
(-0.000103598 -4.14471e-05 -8.60323e-05)
(-8.71952e-05 -0.000388378 -3.08028e-11)
(-8.79819e-05 -0.000388199 -3.08028e-11)
(4.30039e-06 -9.81148e-07 -1.93201e-11)
(-0.000103776 -0.000384594 -9.09795e-07)
(-9.35447e-05 -0.000386929 -3.08028e-11)
(-1.63289e-06 3.72697e-07 -0.000433951)
(-5.00966e-05 -4.14471e-05 -5.80385e-05)
(-9.24201e-05 -0.000387186 -3.08028e-11)
(-9.85143e-05 -0.000385795 -3.08028e-11)
(3.21558e-07 -8.23311e-13 -7.76677e-07)
(4.74115e-06 -1.08175e-06 -1.93201e-11)
(-9.66633e-05 -0.00032147 -3.08028e-11)
(-2.04894e-06 4.67658e-07 -0.000433951)
(-0.000103776 -0.000384594 -2.98573e-07)
(-9.19217e-05 -0.0003873 -3.08028e-11)
(2.81338e-08 7.65338e-07 -2.2766e-10)
(2.36452e-07 -8.23311e-13 -7.76677e-07)
(1.9042e-07 -4.97784e-09 -7.76677e-07)
(1.89824e-07 -1.02703e-08 -7.76677e-07)
(3.02427e-07 -8.23311e-13 -7.76677e-07)
(-0.000102335 -5.26585e-05 -5.80385e-05)
(-9.74847e-05 -0.00038603 -3.08028e-11)
(-9.28891e-05 -0.000387079 -3.08028e-11)
(1.50312e-08 7.65338e-07 -2.2766e-10)
(2.80108e-08 1.01353e-06 -5.13641e-10)
(-9.63293e-05 -0.000386294 -3.08028e-11)
(5.13491e-10 7.65338e-07 -2.2766e-10)
(1.89891e-07 -9.67452e-09 -7.76677e-07)
(-3.2038e-06 7.31247e-07 -0.000433951)
(-9.56334e-06 -4.14471e-05 -5.80385e-05)
(1.61549e-09 -8.93956e-09 8.30426e-07)
(-3.01505e-06 6.88292e-07 -7.20406e-07)
(-0.000195285 -4.14471e-05 -5.80385e-05)
(-2.54274e-06 5.80364e-07 -0.000275277)
(-2.01646e-05 -4.14471e-05 -5.80385e-05)
(-6.58848e-06 -4.14471e-05 -5.80385e-05)
(8.54698e-09 3.85954e-09 5.00245e-11)
(-2.54274e-06 5.80364e-07 -0.000248918)
(2.51521e-08 1.01353e-06 -5.13641e-10)
(-4.15201e-05 -4.14471e-05 -5.80385e-05)
(-9.08926e-05 -0.000387535 -3.08028e-11)
(-2.54274e-06 5.80364e-07 -0.000228272)
(1.40083e-08 7.65338e-07 -2.2766e-10)
(-8.98684e-07 -1.29463e-06 -5.50165e-10)
(-0.000103598 -4.14471e-05 -2.90861e-05)
(3.54185e-08 7.65338e-07 -1.20934e-10)
(-0.000283875 0.00204779 -0.0003793)
(-0.000103598 -4.14471e-05 -2.59809e-05)
(-2.7178e-13 -1.3987e-13 -2.2317e-12)
(-0.000103776 -0.000384594 1.58692e-06)
(2.03251e-08 1.01353e-06 -5.13641e-10)
(-1.39368e-08 1.55243e-08 -3.04986e-07)
(-3.26289e-06 7.44733e-07 -0.000433951)
(-2.54274e-06 5.80364e-07 -0.000179654)
(-9.3685e-05 -0.000386897 -3.08028e-11)
(4.51602e-08 1.01353e-06 -1.87976e-10)
(-5.0973e-13 -3.73938e-13 -2.2317e-12)
(2.57485e-08 5.85768e-09 -2.11762e-11)
(1.90981e-07 -8.23311e-13 -1.31126e-06)
(1.35753e-08 1.01353e-06 -5.13641e-10)
(0.00161189 0.000178052 -0.0003793)
(3.54185e-08 7.65338e-07 -7.74565e-11)
(2.09836e-05 7.0046e-06 -2.43838e-08)
(-1.39368e-08 1.55243e-08 -3.33604e-07)
(-2.54274e-06 5.80364e-07 -0.000112251)
(-8.28309e-05 1.5355e-05 -0.000753278)
(-1.30006e-08 1.62709e-08 -1.89021e-07)
(2.57485e-08 5.85768e-09 -1.99399e-11)
(-0.000103776 -0.000384594 2.20519e-06)
(4.51602e-08 1.01353e-06 -1.21635e-10)
(2.57485e-08 5.85768e-09 -1.96042e-11)
(-1.62341e-06 3.70533e-07 -0.000433951)
(-2.54274e-06 5.80364e-07 -9.69682e-05)
(-8.38166e-05 -0.00038915 -3.08028e-11)
(1.29079e-08 7.05741e-08 -8.33903e-12)
(-2.6746e-08 -3.3584e-08 -7.54602e-12)
(1.4211e-10 -1.54899e-11 -1.21159e-07)
(1.29079e-08 7.05741e-08 -8.10098e-12)
(-2.54274e-06 5.80364e-07 -7.40874e-05)
(-2.54274e-06 5.80364e-07 -5.42967e-05)
(-3.4789e-06 7.94038e-07 -0.000433951)
(-1.39368e-08 1.55243e-08 -3.66976e-07)
(-2.54274e-06 5.80364e-07 -4.13567e-05)
(-0.000103776 -0.000384594 2.64513e-06)
(1.90981e-07 -8.23311e-13 -1.49051e-06)
(2.54699e-11 2.84233e-12 -1.23037e-06)
(1.29079e-08 7.05741e-08 -7.09851e-12)
(-0.000234427 -0.000757976 -3.08028e-11)
(-1.40611e-11 3.98948e-12 -1.00639e-06)
(-8.71907e-10 1.99787e-10 -2.00714e-06)
)


// ************************************************************************* //
