/*--------------------------------*- C++ -*----------------------------------*\
| =========                 |                                                 |
| \\      /  F ield         | OpenFOAM: The Open Source CFD Toolbox           |
|  \\    /   O peration     | Version:  plus.master.MPPICInterFoam            |
|   \\  /    A nd           | Web:      www.OpenFOAM.com                      |
|    \\/     M anipulation  |                                                 |
\*---------------------------------------------------------------------------*/
FoamFile
{
    version     2.0;
    format      ascii;
    class       labelField;
    location    "9.6/lagrangian/kinematicCloud";
    object      origId;
}
// * * * * * * * * * * * * * * * * * * * * * * * * * * * * * * * * * * * * * //


1237
(
20801
28788
2661
9506
3710
2134
6435
38050
39426
51254
9198
9692
2673
17460
28107
28677
19954
24545
32426
11053
10306
16811
12636
1908
16771
4212
17182
21286
38658
17726
2204
3707
19092
14629
4383
14061
2738
4644
14252
12331
2447
12788
859
38042
13717
11582
28910
47039
44311
20937
358
18149
37301
20160
1254
8745
35041
802
36102
2772
9301
13603
18872
325
15729
29800
22758
10859
20015
8820
14836
3870
46691
8911
17494
8095
12237
15940
22291
9247
797
20873
3148
52842
8917
1599
3201
12335
23377
13704
26236
19886
9000
25561
13484
13676
31340
46978
1897
6412
47026
4121
14194
38571
33936
9560
3563
26615
30591
4358
13979
25683
2982
28377
11546
30708
10053
43871
4138
21097
20190
3925
13296
25706
12101
15592
7589
8415
17615
25837
2426
38293
25137
26309
19578
47266
22380
6708
23278
23033
2189
2947
5714
22919
8967
29001
17110
4183
17337
31129
3414
8671
15422
1896
23650
14201
8803
21056
19981
5752
6697
3597
30888
2991
8436
16974
9309
4688
28945
11321
1951
20803
8711
46864
34001
20210
2750
21372
1322
15609
14700
11066
1265
6537
24100
2557
30920
21622
11089
12687
23612
13416
16108
3753
20288
2386
42228
6104
7258
4596
9010
40234
21757
19763
6019
1067
15796
18386
28606
46063
12939
27908
1316
24684
14234
7288
8785
6763
3196
9663
27
6867
18190
23721
5586
11496
11296
6490
5222
6684
26323
4425
33914
16792
298
48166
57821
19252
21064
14940
21730
20756
4877
1699
416
4942
1091
20082
6946
8667
1026
20814
6680
19399
12252
125
7964
13435
12004
3911
52021
18314
4784
3985
13199
9396
1193
15845
27055
8042
7584
4969
16309
18513
25410
14862
47549
30848
15122
5090
18725
18743
27247
35001
4578
7506
8168
50740
22030
41433
7110
25199
2655
20716
8891
19713
5872
22728
5225
12768
8171
549
14632
19959
5441
26119
1187
7345
10751
41237
12659
11879
3046
3265
6018
34912
8808
19150
4464
6894
15128
23962
22985
16770
2087
18659
16224
10132
3905
38207
27390
59027
26916
44592
11514
14138
3511
37532
15732
369
13503
3181
37183
506
2048
44189
21227
16656
4237
10399
52595
27689
22934
22750
5811
11220
3634
34045
72739
46290
41907
9995
7540
4277
34672
18887
12220
30303
10204
30195
1277
5548
26585
16020
20739
19258
983
19774
39761
6048
1256
6790
36848
46558
7697
16580
18705
3287
26170
70851
20059
44446
8493
5335
16787
1439
11369
4502
14933
14411
6921
38343
16272
13288
8490
22710
14688
32306
647
16048
17311
736
13490
12259
71261
5052
41969
30265
6624
15159
16907
39616
30904
23772
31855
36106
33000
5048
38977
23568
9800
34897
15817
1918
569
4717
23404
40653
4095
7278
8054
5635
33421
11215
425
4324
18793
12676
25008
4535
13752
56240
22196
2890
4559
7083
14861
14318
19714
22620
2985
29319
25531
29365
16926
2324
42260
27418
40616
50357
27191
24420
24893
1680
2609
27622
35296
41496
13063
12931
29911
33014
28889
22155
8091
21313
9649
17040
2978
37248
12504
16450
7437
3946
1195
27448
10723
24309
13582
26829
7175
10853
14312
45367
8988
32726
494
18718
16328
5557
5749
3737
2254
5572
8501
5675
16138
21024
2101
558
28391
51071
37559
8435
28919
28684
11450
9085
16282
18881
12834
12581
17587
5559
14303
219
24902
16197
41301
22973
12020
17854
11401
6901
6449
13507
23812
207
4780
10429
30937
2973
20244
29597
69102
85394
26185
13658
22345
24558
8094
30742
40801
82311
11479
19987
14171
23082
12927
10339
51656
16590
9297
333
12034
41650
22320
2893
14028
904
28831
33420
5064
28165
17565
28968
11891
4205
32550
160
12146
757
4281
618
49350
1542
36036
11897
6166
8742
2642
39610
21836
16382
4993
9736
2786
7070
34487
8488
17941
6627
16630
6151
8784
13757
13009
36651
5025
33413
40547
19505
9023
23586
903
3028
45215
31841
10065
7360
9115
27201
6734
23703
9469
1402
825
19255
2350
16935
6488
12654
35371
16946
10331
34633
33758
81642
7729
33243
52873
11560
6282
9835
4104
31053
35501
22683
37365
29717
35346
4959
8422
12780
24779
1349
7364
5499
2137
14851
5791
14307
24843
3585
18851
728
21636
1145
33206
44449
10838
21560
39322
3717
28541
1760
59293
12366
1097
24712
5649
4297
35328
9745
1647
19087
52794
50138
20944
426
135
3305
9371
27710
13380
5592
8537
16149
21083
44698
2374
28374
9321
6138
47347
15294
899
2206
5419
89852
8733
4244
8235
7191
21596
87816
14118
8786
10030
3469
12870
28650
25591
10755
5006
3221
111
23216
1293
2397
1168
297
19632
3534
17855
17488
2625
703
23605
26594
18594
23943
8860
11199
16239
6470
21685
2034
21540
20247
2535
20376
8282
1058
6281
24799
30797
39313
17691
1994
2792
12700
45620
2102
4910
626
5603
38858
7169
23330
5200
2085
71268
82578
3719
49223
12974
6406
5399
37913
24296
7155
3949
16729
11398
50025
27730
155
32109
6463
26890
15302
428
10157
15643
4470
16923
16347
16534
23879
1643
3984
9494
1976
108
72631
31087
12825
9727
1115
18361
6573
3669
8700
16999
69472
307
15098
4600
51624
37877
1030
7760
12374
3627
1286
11677
41911
1257
7309
8178
10632
13176
16890
3324
4893
15134
18049
11516
2679
19643
77412
3474
3217
20159
27623
17118
1182
27399
49380
59847
2155
4832
1039
15793
10031
38917
42217
5505
8533
13712
28786
16130
3975
15575
9267
3613
18944
5231
30876
222
22836
1296
7433
21744
27843
3330
14363
11962
14316
9741
22887
18931
15508
3304
14595
29110
33868
12877
167
10503
14763
27953
17598
46309
28845
37530
29390
26738
3228
13543
14753
9959
25158
31805
13862
30204
11951
1376
16201
28070
7013
17088
11073
17035
82394
8391
6417
7137
32103
19724
991
17372
3268
8526
35141
12588
5702
27732
11402
6073
4050
2473
31761
24128
53089
12784
51131
32271
449
25355
1982
13212
26818
9698
11163
14524
6909
5740
21748
19349
507
11407
49188
1796
240
6224
1756
44824
7616
56936
12271
45375
31853
4545
1113
3943
2565
28955
9395
10967
5280
2639
28799
12899
6985
4966
28026
39371
20364
2455
6739
12380
12211
4064
20581
20445
33716
24058
23849
5589
5193
1062
36966
3887
71663
93238
49520
40588
23758
16011
5686
16655
7626
1579
2653
12074
42718
9726
6759
10961
9276
15147
6700
20422
1985
1045
40125
67905
22477
3096
22254
43455
754
10821
20051
6670
181
26910
19357
22958
2503
2184
23794
8438
997
8256
3042
5149
19482
23114
41948
3774
6119
7718
12412
25842
28552
1243
14759
42562
2967
12014
10574
33575
8608
55959
23403
30397
17994
54328
1554
43179
9596
30893
41420
10607
1198
1553
25487
14269
15240
2851
1934
7037
4878
4159
7625
45055
13450
40367
185
18702
7969
7006
37848
6692
24632
4583
6580
127
1210
24797
9879
1623
23376
15367
2073
9212
12738
808
41882
2873
17217
10006
9472
20618
9352
19095
36088
33392
45856
23819
6596
5685
5519
6457
42390
11910
4786
4250
27753
23846
15913
25556
13630
3685
28426
30395
166
18251
620
11141
29821
8321
92109
18458
40507
27681
15744
30643
38907
4679
530
17716
16019
15703
11325
18797
2436
5838
3263
39270
7673
5840
1460
9743
11658
19702
20259
3327
24693
10661
4875
10790
4874
7799
9530
13024
3939
10381
19419
2240
8716
28428
33307
14033
52016
4853
6438
38415
22641
10138
13062
25315
22819
23861
3459
33703
201
9677
3292
118
3937
6304
14965
9223
295
26815
13164
8731
26055
3509
7590
5959
13984
31040
28921
13827
42847
10519
10573
28512
36368
28213
24116
1390
1319
31769
8696
13760
12012
889
18789
13074
17080
11955
)


// ************************************************************************* //
