/*--------------------------------*- C++ -*----------------------------------*\
| =========                 |                                                 |
| \\      /  F ield         | OpenFOAM: The Open Source CFD Toolbox           |
|  \\    /   O peration     | Version:  plus.master.MPPICInterFoam            |
|   \\  /    A nd           | Web:      www.OpenFOAM.com                      |
|    \\/     M anipulation  |                                                 |
\*---------------------------------------------------------------------------*/
FoamFile
{
    version     2.0;
    format      ascii;
    class       surfaceScalarField;
    location    "3.4";
    object      alphaPhi;
}
// * * * * * * * * * * * * * * * * * * * * * * * * * * * * * * * * * * * * * //

dimensions      [0 3 -1 0 0 0 0];

internalField   nonuniform List<scalar> 
34018
(
4.41488e-07
5.77288e-06
-3.44791e-08
-1.53525e-07
4.3213e-07
6.15458e-06
4.329e-07
5.2212e-06
-1.20873e-07
-2.46759e-07
5.90419e-06
3.58495e-07
-2.01444e-07
5.30101e-06
3.81697e-07
4.56743e-06
-1.54493e-07
3.95507e-07
-4.81684e-08
4.70875e-07
6.023e-06
4.88134e-08
-4.30771e-07
-1.31799e-07
5.94561e-07
6.69902e-06
-5.30802e-07
-2.84207e-07
6.79524e-07
7.13365e-06
-6.01919e-07
-4.05069e-07
6.40694e-07
7.13048e-06
-5.82798e-07
-4.63695e-07
6.10097e-07
6.61902e-06
-5.30026e-07
-4.13576e-07
5.02009e-07
5.76237e-06
-4.32128e-07
3.94295e-07
4.79488e-06
-2.99564e-07
-3.41407e-07
1.22732e-07
3.93816e-07
6.80061e-06
-9.82407e-08
3.43107e-08
4.57715e-07
7.63977e-06
-2.24462e-07
4.14193e-07
7.58338e-06
-4.06508e-07
2.81864e-07
7.67747e-06
-6.39282e-07
3.48765e-07
6.96687e-06
-5.78443e-07
4.36422e-07
6.67767e-06
3.71315e-07
5.45567e-06
-4.19566e-07
2.36962e-07
2.38857e-07
7.30732e-06
-2.18446e-07
8.99911e-08
2.14801e-07
8.20929e-06
-1.10637e-07
1.63742e-07
8.02001e-06
-2.21246e-07
1.79574e-08
5.03148e-06
-6.00037e-07
1.04286e-07
5.95936e-06
-6.6303e-07
2.53006e-07
7.23729e-06
3.03754e-07
5.90837e-06
-5.01856e-07
3.06578e-07
5.74656e-08
7.37767e-06
-2.89112e-07
1.48258e-07
-6.26464e-08
8.28586e-06
-1.34498e-08
-1.41726e-07
7.49768e-06
-3.37839e-08
-7.795e-08
1.53203e-06
-4.19074e-07
2.79787e-08
4.67086e-06
-6.41549e-07
1.39277e-07
7.20052e-06
2.45926e-07
6.00249e-06
-5.14613e-07
2.95346e-07
-7.32897e-08
6.98335e-06
-2.85127e-07
1.63472e-07
-2.64767e-07
7.81164e-06
-1.0013e-07
-3.89262e-07
7.73844e-06
-3.66816e-07
-3.19032e-07
7.15264e-06
-6.36125e-07
-1.56873e-07
6.86428e-06
-6.56158e-07
1.14678e-08
6.87211e-06
1.84591e-07
5.69713e-06
-5.1895e-07
1.81999e-07
-9.34936e-08
6.27648e-06
-2.08604e-07
4.18689e-08
-2.63496e-07
7.01062e-06
-2.08824e-07
-3.66383e-07
7.51548e-06
-4.46439e-07
-3.2473e-07
7.56955e-06
-5.77634e-07
-1.72434e-07
7.01982e-06
-5.64736e-07
2.60844e-09
6.14926e-06
1.60424e-07
5.13651e-06
-4.56174e-07
9.3883e-08
5.47795e-06
-1.56949e-07
-3.63538e-08
-3.34423e-08
5.98528e-06
-1.73575e-07
-2.12143e-07
6.30154e-06
-2.46588e-07
-3.69715e-07
6.29151e-06
-2.13379e-07
-4.44752e-07
5.90728e-06
-1.00146e-07
-4.36924e-07
5.25503e-06
4.08291e-08
4.49737e-06
-3.6428e-07
1.57723e-07
1.91988e-07
7.46457e-07
5.85444e-06
-1.41076e-07
-6.28797e-07
7.672e-08
1.10062e-06
6.55988e-06
-8.45295e-07
-2.27572e-07
1.41436e-06
7.0592e-06
-1.03518e-06
-5.4038e-07
1.33972e-06
7.06371e-06
-1.03618e-06
-6.65707e-07
1.17551e-06
6.44185e-06
-8.72538e-07
-5.7885e-07
7.97848e-07
5.5086e-06
-6.30844e-07
5.21832e-07
4.54735e-06
-4.18404e-07
-4.33068e-07
5.94366e-07
6.62265e-07
6.70963e-06
-4.18092e-07
4.281e-07
9.47975e-07
7.54957e-06
-1.11633e-07
9.53389e-07
6.20609e-06
-6.80894e-07
6.15902e-07
6.8252e-06
-1.04272e-06
6.21177e-07
6.19392e-06
-8.91695e-07
7.30121e-07
6.48773e-06
4.9065e-07
5.19797e-06
-6.0215e-07
9.39582e-07
3.43007e-07
7.35326e-06
-6.92618e-07
5.36587e-07
3.67946e-07
7.3358e-06
-1.56418e-07
3.04249e-07
7.76359e-06
-4.51242e-07
5.66997e-08
5.38446e-06
-1.07536e-06
1.74447e-07
4.87885e-06
-1.14654e-06
3.40819e-07
6.85384e-06
3.40855e-07
5.67404e-06
-7.62298e-07
1.05794e-06
-6.58797e-08
7.44735e-06
-8.1247e-07
5.65553e-07
-3.72116e-07
7.31617e-06
-4.99826e-08
-4.35214e-07
7.74255e-06
-1.07418e-07
-2.39435e-07
1.79094e-06
-9.16599e-07
-1.47983e-07
4.90274e-06
-1.19241e-06
-4.07217e-08
6.78704e-06
1.65703e-07
5.78923e-06
-8.0346e-07
9.09056e-07
-2.85464e-07
6.99233e-06
-6.97976e-07
5.95475e-07
-7.36592e-07
7.49767e-06
-4.72916e-08
-9.86133e-07
6.64204e-06
-6.52912e-07
-9.06138e-07
6.8792e-06
-1.11593e-06
-6.33396e-07
5.38112e-06
-1.07796e-06
-2.82925e-07
6.63543e-06
4.65443e-08
5.48911e-06
-7.51045e-07
5.19437e-07
-2.6432e-07
6.20476e-06
-4.68958e-07
3.35442e-07
-5.83021e-07
7.04078e-06
-1.28883e-07
-8.22857e-07
7.58737e-06
-6.18092e-07
-8.17065e-07
7.49174e-06
-8.73494e-07
-5.69276e-07
6.84173e-06
-7.92165e-07
-2.32798e-07
5.9991e-06
2.99923e-08
4.9533e-06
-5.91727e-07
2.80486e-07
5.39855e-06
-3.19913e-07
-1.45374e-07
1.26315e-07
5.91038e-06
-3.53675e-07
-1.4417e-07
6.24284e-06
-4.93359e-07
-4.12313e-07
6.22319e-06
-4.80158e-07
-5.47141e-07
5.79781e-06
-3.24639e-07
-5.30451e-07
5.1163e-06
-1.10481e-07
4.36811e-06
-4.25206e-07
5.4102e-08
-2.86546e-08
5.43499e-07
5.67501e-06
7.47159e-08
-4.10013e-07
-6.90688e-08
7.93462e-07
6.33031e-06
-5.22831e-07
-2.58648e-07
8.84976e-07
6.75306e-06
-6.28638e-07
-4.46495e-07
8.03256e-07
6.54866e-06
-6.0547e-07
-4.38598e-07
6.67186e-07
6.11753e-06
-4.61037e-07
-3.16257e-07
4.85298e-07
5.22188e-06
-3.20866e-07
2.95405e-07
4.33708e-06
-2.01431e-07
-2.00023e-07
2.58994e-07
5.70793e-07
6.53134e-06
-1.07273e-07
1.44748e-07
6.62902e-07
6.71535e-06
-1.43702e-07
5.00006e-07
4.41012e-06
-3.99103e-07
2.37507e-07
4.01927e-06
-6.71114e-07
3.20955e-07
5.28927e-06
-5.02892e-07
5.21569e-07
6.05065e-06
3.4291e-07
4.92766e-06
-2.80269e-07
5.31548e-07
3.57785e-07
7.03176e-06
-3.47158e-07
1.90322e-07
2.6062e-07
4.53182e-06
-2.13188e-07
3.12866e-07
2.95367e-06
-3.09137e-07
7.44283e-08
3.2318e-06
-6.07998e-07
1.45831e-07
2.46858e-06
-6.96678e-07
2.90671e-07
5.93859e-06
3.0997e-07
5.37895e-06
-3.68578e-07
6.42913e-07
4.85205e-08
6.99388e-06
-4.83253e-07
2.29899e-07
-1.48988e-07
3.73233e-06
-1.35653e-07
-2.00503e-07
3.95794e-06
-8.88283e-08
-7.34515e-08
1.87656e-06
-5.19348e-07
-5.48757e-08
2.86398e-06
-7.66695e-07
7.50089e-08
5.7001e-06
2.41562e-07
5.50185e-06
-4.10811e-07
5.565e-07
-6.77135e-08
6.84671e-06
-3.92406e-07
2.77686e-07
-3.87366e-07
5.78807e-06
-9.50361e-08
-5.09586e-07
3.36766e-06
-4.1072e-07
-4.1825e-07
3.63578e-06
-7.16685e-07
-2.87844e-07
3.23471e-06
-6.84946e-07
-3.18725e-08
6.04202e-06
1.96871e-07
5.23825e-06
-3.89139e-07
2.82816e-07
-1.33117e-08
6.10452e-06
-2.37277e-07
1.69031e-07
-2.19736e-07
6.88888e-06
-1.62007e-07
-3.82268e-07
6.86196e-06
-4.73055e-07
-3.57629e-07
6.46554e-06
-6.1319e-07
-1.67507e-07
6.26748e-06
-4.79156e-07
5.06609e-08
5.74537e-06
1.99025e-07
4.77643e-06
-3.04246e-07
1.30396e-07
5.34281e-06
-1.66138e-07
7.81927e-08
3.13945e-08
5.82579e-06
-3.56868e-08
-1.42344e-07
6.13862e-06
-1.04184e-07
-2.97957e-07
6.09971e-06
-7.82582e-08
-3.42876e-07
5.65046e-06
2.46872e-08
-2.94407e-07
4.98118e-06
1.37453e-07
4.27285e-06
-2.01848e-07
2.01844e-07
-5.47755e-07
-4.79609e-09
5.64171e-06
5.22041e-07
6.39358e-08
-4.75898e-07
-1.73857e-07
6.21074e-06
2.22214e-07
-3.18734e-07
-2.50242e-07
6.45568e-06
3.65995e-07
-1.23411e-07
-2.89266e-07
6.2045e-06
4.39004e-07
8.58676e-08
-3.8141e-07
5.89015e-06
3.9299e-07
1.58007e-07
-2.09038e-07
5.10417e-06
2.5516e-07
-1.18833e-07
4.27946e-06
1.43145e-07
1.9327e-07
-6.50632e-07
1.32926e-07
6.43874e-06
6.03862e-07
-3.82767e-07
3.82976e-08
6.21804e-06
-1.79021e-07
1.64283e-08
4.10679e-06
-7.35044e-08
5.83983e-09
3.50232e-06
1.70191e-07
-4.24972e-08
4.95358e-06
2.92232e-07
-3.76584e-08
5.77629e-06
1.02223e-08
4.81362e-06
2.78789e-07
-4.98089e-07
2.6208e-07
6.71499e-06
6.25481e-07
-1.60524e-07
7.88017e-08
3.67447e-06
-1.26745e-07
3.71138e-08
1.91346e-06
-3.14764e-08
2.76891e-08
1.78385e-06
9.32505e-08
3.64892e-08
2.05297e-06
4.11254e-07
1.71163e-07
5.53294e-06
2.05818e-07
5.22362e-06
3.71171e-07
-3.37532e-07
3.60156e-07
6.60486e-06
5.50218e-07
-1.1023e-07
1.52577e-07
2.82387e-06
-1.16293e-07
1.17866e-07
1.94891e-06
-6.08232e-08
5.60501e-08
1.78757e-06
4.43258e-08
1.09434e-07
1.76853e-06
3.97509e-07
3.56424e-07
5.30725e-06
3.95373e-07
5.34237e-06
3.67899e-07
-4.52551e-07
4.88943e-07
6.71131e-06
4.46037e-07
-1.68849e-07
5.26641e-07
5.0688e-06
-1.01696e-07
3.48968e-07
2.40597e-06
-5.92129e-08
3.67566e-07
2.07498e-06
6.0283e-08
4.90641e-07
2.98805e-06
2.85447e-07
5.88098e-07
5.7292e-06
4.98288e-07
5.13412e-06
2.86655e-07
-3.71607e-07
5.13722e-07
6.13823e-06
3.13126e-07
-3.24188e-07
6.27272e-07
6.74391e-06
-2.15054e-07
7.52496e-07
6.36859e-06
-1.13165e-07
8.08965e-07
5.94247e-06
6.8509e-08
7.7748e-07
6.00408e-06
1.6252e-07
6.29436e-07
5.62594e-06
5.05462e-07
4.74837e-06
1.85979e-07
-2.38334e-07
5.43141e-06
1.81267e-07
4.82665e-07
-2.41569e-07
5.88141e-06
5.74936e-07
-1.73857e-07
6.14438e-06
6.79006e-07
-6.13295e-08
6.06963e-06
7.26493e-07
5.54389e-08
5.62446e-06
6.86662e-07
1.04683e-07
4.98478e-06
5.76606e-07
4.30134e-06
1.30322e-07
4.52575e-07
-7.32373e-07
-2.32881e-07
5.70257e-06
6.67309e-07
2.37527e-07
-6.29978e-07
-6.03916e-07
6.20631e-06
5.05948e-07
-3.20325e-07
-8.97528e-07
6.44339e-06
7.69958e-07
5.72127e-08
-9.36936e-07
6.25381e-06
8.5629e-07
2.72259e-07
-8.44822e-07
5.83646e-06
6.9361e-07
2.77415e-07
-4.81463e-07
5.10608e-06
4.74538e-07
-3.08956e-07
4.32322e-06
1.74088e-07
3.67184e-07
-1.01631e-06
-9.1441e-08
6.44797e-06
8.61991e-07
-6.64354e-07
-2.86693e-07
6.38919e-06
-2.13254e-07
-1.57436e-07
5.07385e-06
1.17262e-07
-2.09732e-07
4.398e-06
5.52609e-07
-3.65759e-07
5.95767e-06
5.30429e-07
-3.12406e-07
5.76876e-06
-1.61825e-07
4.80602e-06
3.91225e-07
-1.04537e-06
2.13313e-07
6.68814e-06
1.04291e-06
-2.36408e-07
4.01678e-08
3.89841e-06
-1.0183e-07
-1.2787e-08
1.5476e-06
4.0409e-08
-1.83296e-08
1.44485e-06
5.39345e-07
2.10246e-09
3.14218e-06
7.78617e-07
7.64168e-08
5.98028e-06
9.93206e-08
5.1849e-06
5.56784e-07
-8.54578e-07
5.23426e-07
6.62388e-06
1.0132e-06
-2.18487e-07
3.10959e-07
3.03822e-06
-1.01894e-07
1.52793e-07
1.66216e-06
-1.74336e-08
9.70488e-08
1.58412e-06
4.27414e-07
2.34452e-07
2.16426e-06
8.16169e-07
4.77076e-07
5.92746e-06
3.70312e-07
5.3026e-06
5.85981e-07
-9.53548e-07
7.32909e-07
6.76733e-06
7.95023e-07
-4.05171e-07
9.71525e-07
5.37256e-06
-1.11005e-07
7.67956e-07
2.50681e-06
4.91639e-08
7.43122e-07
2.09477e-06
5.20817e-07
9.39695e-07
4.39047e-06
6.13538e-07
7.67832e-07
6.02553e-06
5.11076e-07
5.1386e-06
4.68705e-07
-6.41295e-07
7.10704e-07
6.27812e-06
5.23652e-07
-5.44722e-07
9.64342e-07
6.79261e-06
-2.41525e-07
1.22182e-06
6.46876e-06
9.65057e-08
1.28902e-06
6.07123e-06
3.50661e-07
1.06767e-06
6.25286e-06
3.68297e-07
7.54642e-07
5.66509e-06
5.13637e-07
4.80082e-06
3.1204e-07
-3.80445e-07
5.59838e-06
3.1648e-07
6.08558e-07
-3.47832e-07
6.03024e-06
7.82722e-07
-1.81458e-07
6.25003e-06
9.50017e-07
4.69547e-08
6.13871e-06
9.91771e-07
1.84679e-07
5.69833e-06
8.56282e-07
2.11047e-07
5.06762e-06
6.45563e-07
4.37799e-06
2.03581e-07
4.43153e-07
-5.19956e-07
-2.6445e-08
5.75169e-06
4.5482e-07
4.24922e-08
-4.86496e-07
-2.90091e-07
6.24181e-06
2.20468e-07
-2.8771e-07
-6.42553e-07
6.49013e-06
4.39275e-07
-2.68983e-08
-7.55635e-07
6.34408e-06
5.24586e-07
5.17742e-08
-4.75592e-07
5.81685e-06
4.17596e-07
2.98832e-08
-3.00791e-07
5.0928e-06
3.36408e-07
-2.65128e-07
4.34447e-06
-5.7818e-08
3.30759e-07
-6.89164e-07
4.92773e-08
6.50668e-06
5.58936e-07
-6.12002e-07
-1.86854e-07
6.93731e-06
-2.4858e-07
-2.73454e-07
6.86419e-06
1.10319e-07
-2.88142e-07
6.28411e-06
2.38445e-07
-3.46382e-07
6.5547e-06
1.8242e-07
-2.03529e-07
5.76422e-06
-1.59109e-07
4.79668e-06
8.47759e-08
-8.98228e-07
2.45703e-07
6.82173e-06
6.85376e-07
-3.49142e-07
7.47587e-08
5.79909e-06
-3.74467e-08
1.16953e-08
1.95099e-06
1.15008e-07
-1.64103e-08
1.34314e-06
4.96185e-07
8.34773e-09
5.71391e-06
3.41315e-07
6.43631e-08
6.26577e-06
1.75071e-08
5.15388e-06
1.9727e-07
-8.21865e-07
4.57278e-07
7.01182e-06
6.55945e-07
-1.55605e-07
3.66358e-07
5.31292e-06
-4.74762e-08
1.13073e-07
1.44827e-06
2.37072e-08
8.24661e-08
1.41051e-06
4.48418e-07
3.24768e-07
5.08383e-06
3.55767e-07
3.39439e-07
6.4338e-06
1.79591e-07
5.27812e-06
2.16945e-07
-6.51339e-07
5.3128e-07
6.93756e-06
4.74213e-07
-4.12163e-07
7.27e-07
6.66633e-06
-1.16872e-07
8.0354e-07
4.90401e-06
7.77072e-08
7.67936e-07
4.13107e-06
2.86596e-07
6.79162e-07
6.32366e-06
2.16901e-07
4.37393e-07
6.19963e-06
2.46631e-07
5.13552e-06
1.53323e-07
-3.95092e-07
4.74586e-07
6.43499e-06
2.9647e-07
-4.01139e-07
6.32408e-07
6.95978e-06
-2.16816e-07
8.10164e-07
7.00887e-06
1.49623e-08
8.38704e-07
6.55262e-06
8.42139e-08
6.18702e-07
6.45379e-06
8.35136e-08
4.02944e-07
5.71405e-06
2.33759e-07
4.8187e-06
7.60324e-08
-2.43144e-07
5.73656e-06
1.90572e-07
3.8954e-07
-2.54206e-07
6.17956e-06
4.94365e-07
-1.77719e-07
6.38688e-06
5.96913e-07
-5.40477e-08
6.24392e-06
6.10022e-07
-4.45352e-09
5.7764e-06
4.91371e-07
9.60776e-09
5.11769e-06
3.39026e-07
4.40314e-06
3.18326e-08
1.85523e-07
-2.13631e-07
3.15755e-07
5.73642e-06
1.55627e-07
-2.42534e-07
-2.87985e-07
2.7838e-07
6.24183e-06
-2.04116e-07
-3.00644e-07
1.1314e-07
6.48085e-06
-9.11643e-08
-2.65489e-07
-1.165e-08
6.30678e-06
1.67652e-08
-2.85122e-07
1.73655e-08
5.75784e-06
6.11852e-08
-2.99279e-07
-6.6695e-08
5.02124e-06
1.52388e-07
-1.81719e-07
4.27965e-06
-3.18205e-07
2.64769e-07
-1.63187e-07
3.41972e-07
6.54965e-06
9.01057e-08
-2.84826e-07
2.64295e-07
7.04943e-06
-2.70405e-07
2.85856e-08
7.12963e-06
-2.29529e-07
-5.54201e-08
6.5451e-06
-2.82082e-07
5.52343e-08
6.54783e-06
-2.69571e-07
-1.26235e-08
5.69797e-06
-1.23061e-07
4.72475e-06
-2.55991e-07
-1.68819e-07
3.08381e-07
6.86278e-06
4.7502e-08
-2.38319e-07
1.93138e-07
6.08386e-06
-4.7769e-08
2.59149e-08
3.94671e-06
-4.7004e-08
1.23278e-08
2.23733e-06
-2.06609e-07
9.64691e-08
6.11189e-06
-2.4308e-07
5.52874e-08
6.23408e-06
-5.61401e-08
5.06556e-06
-2.2303e-07
-1.1696e-07
2.59643e-07
7.17535e-06
-1.51205e-08
-1.3382e-07
2.2964e-07
6.1392e-06
-1.54434e-08
1.21176e-07
1.59044e-06
-6.58394e-08
9.53035e-08
1.40645e-06
-2.29461e-07
1.37547e-07
5.88467e-06
-2.64436e-07
7.96553e-08
6.44465e-06
-2.05967e-08
5.19768e-06
-2.20824e-07
5.0273e-09
1.54673e-07
7.10753e-06
-7.46302e-08
-1.73498e-07
1.45365e-07
6.8051e-06
-1.48389e-07
2.32277e-07
6.29329e-06
-2.04634e-07
2.17744e-07
4.97845e-06
-3.44522e-07
6.79257e-08
6.478e-06
-3.06239e-07
2.85316e-08
6.2125e-06
-3.39005e-08
5.06886e-06
-2.26305e-07
9.06775e-09
7.93059e-08
6.55913e-06
-5.82743e-08
-1.17105e-07
5.28736e-08
7.08909e-06
-2.13831e-07
7.45295e-08
7.16661e-06
-3.04953e-07
7.78513e-08
6.62887e-06
-3.47467e-07
1.00181e-08
6.52522e-06
-2.92356e-07
-1.32668e-08
5.70075e-06
-5.86031e-08
4.75714e-06
-2.04831e-07
-4.41704e-08
5.80037e-06
4.02365e-09
5.53858e-08
-1.31106e-07
6.27918e-06
4.02254e-08
-2.08913e-07
6.49287e-06
4.65031e-08
-2.48512e-07
6.31475e-06
4.70186e-08
-2.7176e-07
5.7927e-06
1.7162e-08
-2.43569e-07
5.08457e-06
-8.34045e-09
4.34435e-06
-1.79201e-07
-6.31223e-08
-5.26204e-08
5.05893e-07
5.64865e-06
2.09851e-09
-3.68088e-07
-1.88914e-07
6.31126e-07
6.15877e-06
-4.11452e-07
-3.40504e-07
5.94617e-07
6.39865e-06
-3.60718e-07
-4.36287e-07
4.26668e-07
6.20129e-06
-2.25419e-07
-4.84828e-07
2.58758e-07
5.62197e-06
-7.43495e-08
-4.63243e-07
1.16245e-09
4.88467e-06
1.13615e-07
-2.09479e-07
4.1541e-06
-4.13049e-07
2.86875e-07
1.73464e-07
5.38294e-07
6.48678e-06
-1.92654e-07
-4.92867e-08
5.78366e-07
6.90157e-06
-2.98516e-07
3.85725e-07
6.90959e-06
-5.30434e-07
2.23456e-07
6.25277e-06
-6.24022e-07
3.1258e-07
6.35201e-06
-5.22123e-07
5.41805e-08
5.54271e-06
-1.50424e-07
4.57251e-06
-4.28974e-07
3.08929e-07
3.39293e-07
6.62891e-06
-3.8874e-07
1.06933e-09
2.94064e-07
5.2126e-06
-9.65728e-08
6.56084e-08
4.33889e-06
-2.80879e-07
1.95797e-08
2.51168e-06
-7.37283e-07
1.67403e-07
5.87932e-06
-5.76329e-07
1.42346e-08
6.11288e-06
-1.34116e-07
4.90035e-06
-4.28981e-07
3.87878e-07
8.30772e-08
7.03991e-06
-4.85679e-07
2.17511e-08
4.25821e-08
6.18536e-06
-3.36252e-08
1.92879e-08
2.14314e-06
-2.21856e-07
1.22585e-08
1.62006e-06
-7.28002e-07
-1.01529e-07
5.81385e-06
-6.20734e-07
-1.17826e-07
6.34289e-06
-1.64233e-07
5.038e-06
-4.29854e-07
4.37183e-07
-1.53083e-07
7.07619e-06
-4.39931e-07
5.87604e-08
-3.02324e-07
5.43835e-06
-1.83729e-07
-2.36301e-07
6.42231e-06
-4.62102e-07
-1.95346e-07
4.84034e-06
-8.25477e-07
-3.42846e-07
5.99659e-06
-6.04352e-07
-2.48677e-07
6.12228e-06
-2.15936e-07
4.92161e-06
-4.05368e-07
2.79695e-07
-2.15269e-07
6.58279e-06
-2.58275e-07
6.10576e-08
-4.02048e-07
6.91092e-06
-2.42728e-07
-5.01822e-07
6.36125e-06
-5.67337e-07
-4.93164e-07
5.58229e-06
-6.49389e-07
-4.15127e-07
6.39062e-06
-4.97796e-07
-2.88183e-07
5.58875e-06
-2.42677e-07
4.61931e-06
-3.33191e-07
4.55552e-08
5.77727e-06
-6.41403e-08
-1.74031e-07
-8.42161e-08
6.27998e-06
-2.73107e-07
-2.66231e-07
6.51138e-06
-3.38179e-07
-4.08502e-07
6.3026e-06
-3.38655e-07
-4.447e-07
5.71252e-06
-2.98791e-07
-3.72161e-07
4.96839e-06
-2.44558e-07
4.22294e-06
-2.51347e-07
-2.42189e-07
-1.732e-07
2.95273e-07
5.56845e-06
1.28642e-07
-1.7044e-07
-2.60477e-07
3.55474e-07
6.03941e-06
-1.48504e-07
-3.67066e-07
3.14178e-07
6.25953e-06
-6.82199e-08
-4.13283e-07
1.37294e-07
6.04355e-06
6.71028e-08
-4.16624e-07
-2.46142e-08
5.46222e-06
1.87805e-07
-3.81278e-07
-2.29451e-07
4.75409e-06
3.24359e-07
-3.85593e-07
4.0542e-06
-3.26273e-07
4.34787e-07
3.57047e-08
3.63307e-07
6.32507e-06
-1.98377e-08
-9.90819e-08
3.50811e-07
6.33413e-06
-2.76966e-07
2.20498e-07
5.74187e-06
-4.50344e-07
9.95567e-08
5.10696e-06
-4.91052e-07
1.00124e-07
6.01536e-06
-3.83063e-07
-1.42158e-07
5.34698e-06
-3.07108e-07
4.42306e-06
-3.12997e-07
1.8828e-07
2.32322e-07
6.285e-06
-1.80459e-07
1.15134e-08
1.90952e-07
3.37812e-06
-1.11974e-07
5.66462e-08
3.44954e-06
-1.8301e-07
1.8031e-08
1.96673e-06
-4.94693e-07
6.16991e-08
4.77383e-06
-3.81301e-07
-1.17309e-07
5.86294e-06
-2.48764e-07
4.72644e-06
-2.64636e-07
2.46653e-07
2.96916e-08
6.42033e-06
-2.57637e-07
2.04296e-08
-2.39404e-08
3.82894e-06
-7.21169e-08
1.70194e-08
2.25419e-06
-1.50771e-07
3.15044e-08
1.69291e-06
-4.99886e-07
-1.03366e-07
3.87674e-06
-3.91949e-07
-1.73962e-07
5.96906e-06
-2.24024e-07
4.85891e-06
-2.37374e-07
2.44246e-07
-1.38519e-07
6.6751e-06
-1.88598e-07
7.0673e-08
-2.29054e-07
3.31942e-06
-2.05566e-07
-1.99172e-07
4.18476e-06
-2.71143e-07
-1.15831e-07
2.50188e-06
-6.2984e-07
-2.74146e-07
4.8927e-06
-3.78632e-07
-2.30058e-07
5.92731e-06
-2.18932e-07
4.75808e-06
-2.20027e-07
7.67345e-08
-1.51463e-07
6.49657e-06
-2.03678e-08
-2.99309e-08
-2.9017e-07
6.28201e-06
-2.219e-07
-3.60883e-07
4.82266e-06
-4.34488e-07
-3.29706e-07
4.25875e-06
-4.78252e-07
-3.09544e-07
6.00441e-06
-3.18362e-07
-2.18078e-07
5.41713e-06
-2.10435e-07
4.48066e-06
-1.8843e-07
-1.28286e-07
5.7359e-06
1.33543e-07
-1.15309e-07
-1.87153e-07
6.20959e-06
-1.60671e-07
-3.02583e-07
6.39803e-06
-2.16568e-07
-3.7197e-07
6.11657e-06
-2.18332e-07
-3.44376e-07
5.57053e-06
-1.95106e-07
-2.5667e-07
4.83445e-06
-1.71621e-07
4.11079e-06
-1.63197e-07
-1.91598e-07
-4.88739e-07
-2.00899e-07
5.61666e-06
4.30079e-07
2.11234e-07
-4.58813e-07
-4.11021e-07
6.01781e-06
4.03109e-07
-3.69298e-07
-5.88679e-07
6.17724e-06
5.813e-07
-2.38421e-07
-7.14159e-07
5.94083e-06
6.85341e-07
-1.87716e-07
-6.55798e-07
5.39753e-06
6.70054e-07
-1.81111e-07
-6.35071e-07
4.72429e-06
6.58365e-07
-6.33954e-07
4.03673e-06
-1.96891e-07
6.62291e-07
-4.91838e-07
-1.09469e-07
6.28112e-06
4.7079e-07
-3.59365e-07
-1.44449e-07
6.11912e-06
-2.32576e-07
-1.64497e-07
5.43887e-06
-1.28973e-07
-1.89035e-07
4.85205e-06
-3.43436e-08
-4.55975e-07
5.80927e-06
-2.83592e-08
-5.41575e-07
5.2471e-06
-5.42254e-07
4.37102e-06
-7.05093e-08
-3.37801e-07
1.13233e-08
6.17466e-06
5.43913e-07
-1.24265e-07
2.3226e-08
3.19233e-06
-5.75699e-08
1.98952e-09
2.20321e-06
-2.1572e-08
-3.98749e-08
1.52457e-06
1.59306e-07
-1.39938e-07
4.50455e-06
1.45174e-07
-3.37377e-07
5.67685e-06
-3.95944e-07
4.65049e-06
7.52372e-08
-2.99418e-07
7.18096e-08
6.22719e-06
5.6773e-07
-5.72968e-08
1.76664e-08
2.67493e-06
-7.5951e-09
6.83787e-08
1.85655e-06
-3.34491e-09
3.63463e-08
1.59211e-06
1.92341e-07
-1.25927e-08
3.47934e-06
2.29415e-07
-1.37776e-07
5.75063e-06
-2.36146e-07
4.7739e-06
1.54993e-07
-3.49371e-07
1.59461e-07
6.52869e-06
5.73016e-07
-1.20902e-07
1.28684e-07
3.1994e-06
-6.10553e-08
5.08331e-08
1.67381e-06
-1.89366e-08
5.28655e-08
1.63935e-06
1.82841e-07
1.25835e-07
4.65587e-06
1.9341e-07
1.10751e-08
5.76342e-06
-1.15778e-07
4.68538e-06
1.45279e-07
-5.11249e-07
1.74147e-07
6.47104e-06
5.19556e-07
-2.95835e-07
3.01687e-07
6.04243e-06
-1.80592e-07
3.10325e-07
4.6236e-06
-1.01235e-07
2.87728e-07
4.12709e-06
3.78401e-08
1.79576e-07
5.80036e-06
8.95324e-08
5.47223e-08
5.3221e-06
-5.64018e-08
4.42607e-06
7.96768e-08
-4.89667e-07
5.79269e-06
4.90503e-07
1.172e-07
-4.15847e-07
6.19939e-06
2.38299e-07
-3.07737e-07
6.29533e-06
2.90562e-07
-1.73561e-07
5.99726e-06
2.66183e-07
-6.86612e-08
5.49767e-06
1.47801e-07
1.01609e-08
4.78702e-06
2.34212e-08
4.0157e-06
6.05462e-08
-7.0065e-08
-6.38386e-07
-4.19218e-07
5.77895e-06
5.45937e-07
3.49685e-07
-5.93298e-07
-7.49633e-07
6.12926e-06
5.93174e-07
-4.12907e-07
-1.04636e-06
6.22678e-06
8.16718e-07
-2.19005e-07
-1.11945e-06
5.96911e-06
8.97506e-07
-1.69667e-07
-9.089e-07
5.43738e-06
8.19938e-07
-1.77547e-07
-7.83618e-07
4.76359e-06
7.52846e-07
-7.08954e-07
4.05624e-06
-1.95004e-07
7.07638e-07
-7.79775e-07
-3.86934e-07
6.44265e-06
6.80612e-07
-5.75989e-07
-5.33024e-07
6.55638e-06
-2.5902e-07
-5.33298e-07
6.09411e-06
5.38237e-09
-4.91026e-07
5.69015e-06
8.82313e-08
-8.06914e-07
5.99567e-06
2.89873e-08
-7.30414e-07
5.25301e-06
-6.44534e-07
4.38198e-06
-4.67264e-08
-8.05045e-07
-1.73662e-07
6.68682e-06
8.92073e-07
-2.87847e-07
-9.16683e-08
4.32053e-06
-3.84168e-08
-5.00532e-08
2.18301e-06
1.30034e-07
-7.11934e-08
1.92626e-06
4.63119e-07
-3.17759e-07
5.48208e-06
2.77342e-07
-4.90642e-07
5.66293e-06
-4.88395e-07
4.64784e-06
1.24643e-07
-7.31112e-07
6.32138e-08
6.59658e-06
1.01133e-06
-1.15658e-07
4.24039e-08
2.74231e-06
1.29584e-08
3.15626e-08
1.63585e-06
7.94504e-08
1.66699e-08
1.42773e-06
6.19071e-07
8.53701e-09
4.50764e-06
4.27389e-07
-1.53314e-07
5.8107e-06
-2.78028e-07
4.76099e-06
2.30131e-07
-8.85216e-07
2.57791e-07
6.86274e-06
9.55778e-07
-2.51314e-07
3.78699e-07
4.31091e-06
-1.6361e-08
2.90795e-07
1.67748e-06
1.78429e-07
2.54111e-07
1.64777e-06
5.34307e-07
3.3137e-07
5.55769e-06
3.59869e-07
7.01447e-08
5.71875e-06
-1.15269e-07
4.67311e-06
2.07278e-07
-8.38901e-07
2.34916e-07
6.57713e-06
7.72623e-07
-5.0818e-07
5.14223e-07
6.32374e-06
-1.77504e-07
6.93657e-07
5.26552e-06
6.60647e-08
6.13727e-07
4.92951e-06
2.31642e-07
3.44608e-07
5.9559e-06
1.86392e-07
1.18059e-07
5.31617e-06
-4.41115e-08
4.39364e-06
1.16221e-07
-6.81572e-07
5.93942e-06
6.55485e-07
1.15255e-07
-5.74168e-07
6.29462e-06
3.12001e-07
-3.4021e-07
6.33447e-06
4.42823e-07
-1.15052e-07
6.05453e-06
4.07925e-07
-8.45689e-09
5.50859e-06
2.26803e-07
4.63453e-08
4.78935e-06
5.2403e-08
3.87931e-06
5.47119e-08
-3.88523e-08
-5.1295e-07
-1.86934e-07
5.95267e-06
3.79804e-07
1.46324e-07
-5.79693e-07
-3.72819e-07
6.29388e-06
2.7482e-07
-5.38113e-07
-6.14304e-07
6.35744e-06
4.42144e-07
-4.58501e-07
-7.12023e-07
6.06393e-06
5.37773e-07
-4.28285e-07
-6.2405e-07
5.48441e-06
5.46528e-07
-3.9699e-07
-5.97827e-07
4.77094e-06
5.59405e-07
-5.85417e-07
4.02995e-06
-3.53985e-07
5.69206e-07
-5.85385e-07
-2.24734e-07
6.66794e-06
4.31563e-07
-6.01452e-07
-4.03213e-07
7.06462e-06
-4.30272e-07
-5.52504e-07
6.99678e-06
-2.89294e-07
-6.286e-07
6.47582e-06
-2.85826e-07
-6.45236e-07
6.11542e-06
-2.93022e-07
-5.99937e-07
5.26254e-06
-5.67161e-07
4.35952e-06
-2.84878e-07
-6.94244e-07
-1.92018e-07
7.11194e-06
5.45599e-07
-3.55302e-07
-1.45079e-07
6.61329e-06
-1.23674e-07
-4.31709e-08
4.31469e-06
-4.6782e-09
-1.50271e-07
4.08906e-06
-3.23153e-08
-4.50437e-07
6.36713e-06
-1.35245e-07
-4.95788e-07
5.6696e-06
-4.90885e-07
4.61604e-06
-1.79434e-07
-7.17904e-07
-7.98913e-08
7.28616e-06
6.44026e-07
-9.48501e-08
-1.26826e-08
4.96867e-06
1.54415e-08
-3.11782e-08
1.50491e-06
1.72812e-07
-2.08187e-09
1.43127e-06
2.14441e-07
-7.16436e-08
6.25636e-06
-4.62982e-09
-2.674e-07
5.84222e-06
-3.58158e-07
4.71986e-06
-9.61661e-08
-8.06602e-07
-5.56484e-08
7.21705e-06
6.24982e-07
-3.24563e-07
1.20472e-07
6.90428e-06
-5.63576e-08
1.82857e-07
3.26785e-06
4.27693e-08
1.71452e-07
3.40321e-06
4.87038e-08
4.35502e-08
6.46461e-06
-5.16505e-08
-1.49011e-07
5.70353e-06
-2.58191e-07
4.62029e-06
-1.01765e-07
-6.35508e-07
-1.4923e-07
6.74406e-06
5.39654e-07
-5.41691e-07
5.41568e-09
6.62216e-06
-3.20917e-07
1.65199e-07
6.40992e-06
-1.88036e-07
1.45857e-07
6.00156e-06
-1.49603e-07
-1.22092e-08
6.13275e-06
-1.43875e-07
-1.36104e-07
5.29732e-06
-2.07389e-07
4.24206e-06
-1.28536e-07
-5.7792e-07
6.08197e-06
5.18236e-07
-2.31704e-07
-5.72985e-07
6.42724e-06
-1.2831e-07
-4.60456e-07
6.45532e-06
-2.7191e-08
-3.36156e-07
6.12374e-06
-1.67126e-08
-2.56825e-07
5.51047e-06
-9.30847e-08
-1.7458e-07
4.71967e-06
-1.72707e-07
3.78329e-06
-1.11847e-07
-1.76716e-07
-3.02426e-07
2.23718e-07
6.07668e-06
1.216e-07
-1.66949e-07
-5.20315e-07
2.68843e-07
6.44515e-06
-2.02328e-07
-6.83405e-07
1.57842e-07
6.48215e-06
-1.19598e-07
-7.46763e-07
-1.09592e-08
6.12292e-06
1.54453e-08
-7.30737e-07
-1.55359e-07
5.46886e-06
1.54591e-07
-6.44226e-07
-3.03019e-07
4.70062e-06
2.86589e-07
-3.89171e-07
3.93889e-06
-5.18297e-07
3.54012e-07
-2.1213e-07
1.58228e-07
6.90943e-06
1.48116e-08
-4.80892e-07
1.88824e-07
7.3352e-06
-6.52349e-07
4.72641e-08
7.26223e-06
-7.86505e-07
-1.06954e-07
6.61388e-06
-7.95623e-07
-2.1619e-07
6.15841e-06
-6.87668e-07
-3.50429e-07
5.20191e-06
-4.18763e-07
4.25386e-06
-5.52178e-07
-1.51911e-07
-4.57189e-08
7.36064e-06
-6.88106e-08
-3.09441e-07
-8.25205e-09
7.14258e-06
-3.76665e-07
-1.04756e-08
5.39352e-06
-5.7674e-07
-1.18603e-07
4.76125e-06
-7.72505e-07
-3.29741e-07
6.47541e-06
-6.74452e-07
-4.05769e-07
5.62636e-06
-4.38902e-07
4.50101e-06
-5.39469e-07
-1.55304e-07
-2.88451e-07
7.64044e-06
-8.04082e-08
-9.22079e-08
-2.22548e-07
6.43043e-06
-4.21582e-08
-1.3146e-07
1.56891e-06
-2.64517e-07
-5.9169e-08
2.40607e-06
-6.4445e-07
-2.92421e-07
6.52616e-06
-6.10714e-07
-4.01934e-07
5.80463e-06
-4.27714e-07
4.59486e-06
-4.97025e-07
-2.21737e-07
-5.52945e-07
7.22954e-06
-1.59134e-08
-3.17303e-07
-4.54996e-07
7.59555e-06
-3.01011e-07
-2.85646e-07
4.90404e-06
-5.31401e-07
-2.59173e-07
4.12096e-06
-7.11185e-07
-4.38702e-07
6.57118e-06
-6.05369e-07
-4.39784e-07
5.63578e-06
-4.17036e-07
4.47186e-06
-4.69526e-07
-2.1199e-07
-7.27654e-07
6.87991e-06
9.3396e-08
-4.32087e-07
-7.99613e-07
6.38858e-06
-5.66629e-07
-7.19219e-07
6.64442e-06
-6.95084e-07
-6.19974e-07
6.16584e-06
-6.85533e-07
-5.27374e-07
6.14182e-06
-5.61013e-07
-4.53237e-07
5.18647e-06
-4.01634e-07
4.03156e-06
-4.07725e-07
-3.63326e-07
6.15255e-06
2.60644e-07
-6.96196e-07
-5.12729e-07
6.52926e-06
-7.52478e-07
-6.22622e-07
6.5494e-06
-7.03186e-07
-6.40481e-07
6.13497e-06
-6.11194e-07
-5.7929e-07
5.42854e-06
-5.06428e-07
-4.49526e-07
4.51432e-06
-4.14881e-07
3.61753e-06
-3.28633e-07
-3.55995e-07
-1.38353e-07
5.8854e-07
6.06315e-06
-6.54964e-08
-3.71163e-07
-4.77145e-07
8.58906e-07
6.46729e-06
-5.42379e-07
-7.89875e-07
8.22785e-07
6.48838e-06
-5.16322e-07
-9.33203e-07
5.42655e-07
6.05026e-06
-3.26902e-07
-8.86675e-07
1.81721e-07
5.32589e-06
-8.50099e-08
-7.34673e-07
-1.11489e-07
4.53588e-06
1.24424e-07
-2.63667e-07
3.74698e-06
-5.55329e-07
2.23247e-07
1.22316e-07
5.5198e-07
6.93368e-06
-3.45365e-07
-3.96993e-07
6.85379e-07
7.01156e-06
-8.72635e-07
4.94458e-07
6.83158e-06
-1.19454e-06
2.97332e-07
6.10942e-06
-1.14663e-06
1.25255e-07
6.0061e-06
-8.92203e-07
-1.72599e-07
5.00813e-06
-3.14695e-07
4.06542e-06
-6.52131e-07
2.57033e-07
1.02829e-07
6.59677e-06
-6.6448e-07
-3.3815e-07
1.19212e-07
6.61602e-06
-6.3386e-07
5.24516e-08
5.66831e-06
-1.02113e-06
-1.56816e-08
4.51516e-06
-1.34327e-06
-1.57602e-07
6.10773e-06
-9.8984e-07
-3.29977e-07
5.42964e-06
-3.87596e-07
4.2824e-06
-6.9876e-07
2.36414e-07
-5.075e-07
6.76381e-06
-7.3776e-07
-1.4883e-07
-4.29412e-07
6.98645e-06
-1.05743e-07
-2.16493e-07
1.7963e-06
-7.24912e-07
-1.41384e-07
2.74966e-06
-1.3313e-06
-4.70856e-07
6.18947e-06
-9.75242e-07
-4.88407e-07
5.60687e-06
-4.48066e-07
4.36087e-06
-6.81171e-07
2.3712e-07
-1.01324e-06
5.84434e-06
-5.91576e-07
-4.31403e-07
-9.78677e-07
6.45111e-06
-5.54815e-07
-5.80165e-07
5.139e-06
-9.55119e-07
-5.42897e-07
4.09059e-06
-1.24385e-06
-7.91871e-07
6.18119e-06
-8.99366e-07
-6.12622e-07
5.41542e-06
-4.68576e-07
4.17655e-06
-6.29901e-07
1.27502e-07
-1.24212e-06
6.69532e-06
-2.90065e-07
-3.215e-07
-1.53895e-06
5.17391e-06
-7.5315e-07
-1.32673e-06
5.74664e-06
-1.0771e-06
-1.20638e-06
5.75934e-06
-1.01391e-06
-8.66291e-07
5.9517e-06
-7.36623e-07
-6.17753e-07
4.9281e-06
-4.49807e-07
3.79237e-06
-5.36347e-07
-2.00232e-07
6.04826e-06
7.22329e-08
-1.01067e-06
-4.9113e-07
6.47381e-06
-1.19268e-06
-7.71088e-07
6.47705e-06
-1.14783e-06
-8.5172e-07
5.98473e-06
-9.7156e-07
-7.41901e-07
5.19505e-06
-7.43682e-07
-5.77968e-07
4.1429e-06
-5.14515e-07
3.41378e-06
-3.95788e-07
-3.97446e-07
-2.34731e-07
2.63356e-07
5.97646e-06
1.11676e-07
-5.3561e-08
-4.71796e-07
5.14796e-07
6.36563e-06
-1.76029e-07
-6.85634e-07
4.28439e-07
6.34007e-06
-1.62118e-07
-7.34371e-07
2.41551e-07
5.87092e-06
-1.34873e-08
-6.37243e-07
-5.71955e-08
5.13192e-06
1.54213e-07
-4.85011e-07
-2.61514e-07
4.37966e-06
2.67787e-07
-3.31221e-07
3.63675e-06
-3.42573e-07
2.85953e-07
-7.16739e-09
2.73778e-07
6.35895e-06
-9.20572e-08
-3.53846e-07
3.08838e-07
5.15683e-06
-6.28131e-07
1.91531e-07
4.51797e-06
-9.13792e-07
1.22822e-07
4.73e-06
-8.43633e-07
-2.93869e-08
5.61415e-06
-5.89602e-07
-2.74944e-07
4.76701e-06
-3.60371e-07
3.90064e-06
-3.95959e-07
6.89273e-08
3.01136e-09
4.1758e-06
-3.1919e-07
-3.57722e-07
4.83307e-08
2.65623e-06
-4.30869e-07
-8.46092e-09
3.05224e-06
-6.49967e-07
-6.21197e-08
2.4522e-06
-1.03418e-06
-1.7687e-07
5.12041e-06
-6.47222e-07
-3.6218e-07
5.12925e-06
-3.91552e-07
4.07061e-06
-4.04892e-07
8.72129e-08
-3.84547e-07
3.2784e-06
-3.70229e-07
-1.8627e-07
-4.21559e-07
4.39883e-06
-1.56549e-07
-2.3425e-07
2.00728e-06
-3.71181e-07
-9.37634e-08
2.07382e-06
-1.02215e-06
-3.72644e-07
4.58762e-06
-6.18062e-07
-4.45507e-07
5.28616e-06
-4.00812e-07