/*--------------------------------*- C++ -*----------------------------------*\
| =========                 |                                                 |
| \\      /  F ield         | OpenFOAM: The Open Source CFD Toolbox           |
|  \\    /   O peration     | Version:  plus.master.MPPICInterFoam            |
|   \\  /    A nd           | Web:      www.OpenFOAM.com                      |
|    \\/     M anipulation  |                                                 |
\*---------------------------------------------------------------------------*/
FoamFile
{
    version     2.0;
    format      ascii;
    class       volScalarField;
    location    "3.4";
    object      epsilon;
}
// * * * * * * * * * * * * * * * * * * * * * * * * * * * * * * * * * * * * * //

dimensions      [0 2 -3 0 0 0 0];

internalField   nonuniform List<scalar> 
11821
(
0.363102
0.381813
0.293746
0.323991
0.279328
0.221455
0.242187
0.30943
0.371191
0.408977
0.393951
0.339229
0.263706
0.291857
0.379982
0.478206
0.546744
0.523771
0.4376
0.334792
0.32572
0.438341
0.561265
0.645718
0.635128
0.525636
0.388395
0.333671
0.458914
0.60561
0.640194
0.696199
0.558269
0.401445
0.306302
0.411122
0.535337
0.646917
0.5967
0.481934
0.35865
0.257712
0.336289
0.416745
0.472297
0.44781
0.376347
0.28903
0.201252
0.256635
0.307282
0.335108
0.320811
0.275446
0.216523
0.257527
0.338534
0.412672
0.45356
0.424624
0.351369
0.261422
0.321019
0.429369
0.534245
0.614635
0.575453
0.470699
0.341839
0.365153
0.501534
0.636343
0.700054
0.688446
0.577008
0.404938
0.374533
0.525838
0.681087
0.69091
0.754199
0.610658
0.418527
0.33715
0.461296
0.595786
0.711912
0.64039
0.515115
0.367823
0.276265
0.368029
0.460104
0.516694
0.478571
0.390962
0.289724
0.21002
0.271607
0.327569
0.354594
0.332596
0.278237
0.213589
0.267526
0.364481
0.461539
0.504346
0.448931
0.350828
0.251177
0.349763
0.493523
0.614219
0.689095
0.643789
0.494877
0.337166
0.416807
0.579738
0.692791
0.773968
0.742655
0.641055
0.411905
0.43204
0.592708
0.74788
0.747791
0.84921
0.682901
0.429456
0.373961
0.529098
0.661611
0.796216
0.674039
0.552043
0.368682
0.293781
0.407528
0.528648
0.58666
0.515218
0.399815
0.284754
0.217597
0.285553
0.349746
0.376278
0.341926
0.2774
0.209063
0.265755
0.363708
0.464673
0.50262
0.431757
0.32939
0.234976
0.355114
0.509308
0.677697
0.758532
0.640013
0.468181
0.314974
0.434165
0.612458
0.675804
0.741653
0.793158
0.623004
0.388651
0.454306
0.633542
0.617712
0.761397
0.818752
0.683281
0.408965
0.384946
0.552167
0.687262
0.75847
0.699118
0.53181
0.349097
0.299025
0.416891
0.54958
0.608138
0.508607
0.383826
0.271842
0.221421
0.28952
0.354805
0.378938
0.336114
0.268935
0.202763
0.254372
0.340988
0.42875
0.452875
0.38663
0.298789
0.217186
0.337705
0.480443
0.654084
0.700356
0.56576
0.413998
0.285904
0.415408
0.604145
0.745147
0.836898
0.726391
0.533758
0.346313
0.436166
0.633091
0.716675
0.794495
0.765964
0.579851
0.364007
0.370792
0.531177
0.677519
0.738288
0.633381
0.469977
0.319164
0.292193
0.398541
0.516592
0.555638
0.461549
0.353341
0.256265
0.220786
0.282556
0.339196
0.356103
0.315942
0.255952
0.196109
0.241675
0.314652
0.382527
0.398919
0.346798
0.273014
0.202624
0.315085
0.43715
0.586542
0.621899
0.502772
0.371485
0.262883
0.380005
0.557766
0.639344
0.732167
0.681705
0.467998
0.314184
0.40045
0.602504
0.684844
0.767996
0.744897
0.501115
0.33008
0.350711
0.496476
0.644816
0.689277
0.588072
0.426337
0.297853
0.284355
0.375444
0.467668
0.49193
0.423842
0.330963
0.245371
0.220258
0.274996
0.320918
0.331841
0.298991
0.246141
0.191424
0.234394
0.299474
0.353603
0.364235
0.321635
0.256714
0.193559
0.302945
0.407123
0.513997
0.543507
0.456896
0.346282
0.249579
0.361447
0.50833
0.615392
0.651317
0.615389
0.43166
0.297548
0.383414
0.566153
0.606317
0.691731
0.703764
0.466195
0.315005
0.345309
0.478758
0.625104
0.662756
0.555195
0.406792
0.288862
0.285465
0.369547
0.449617
0.468667
0.407943
0.322147
0.241179
0.223964
0.276253
0.316889
0.324134
0.293523
0.243005
0.189811
0.232547
0.29709
0.347445
0.353843
0.311131
0.247697
0.187524
0.305289
0.40749
0.506024
0.528432
0.444761
0.336873
0.242569
0.367028
0.503823
0.60936
0.642764
0.600606
0.423892
0.291337
0.393629
0.556139
0.604972
0.672309
0.697645
0.464475
0.31153
0.358917
0.487381
0.614241
0.65731
0.561033
0.409103
0.288006
0.297862
0.384773
0.463773
0.479788
0.416792
0.325692
0.241368
0.232211
0.28775
0.328657
0.333426
0.299144
0.24516
0.190372
0.230213
0.29711
0.34882
0.350603
0.30336
0.240217
0.18238
0.310463
0.420782
0.518386
0.53115
0.441671
0.329637
0.235937
0.383929
0.49951
0.632501
0.666881
0.605298
0.423553
0.285639
0.421398
0.568607
0.616627
0.684385
0.710407
0.472588
0.308653
0.383296
0.488946
0.644835
0.67296
0.585135
0.41984
0.287555
0.313085
0.411183
0.487487
0.498041
0.433264
0.330618
0.241329
0.239792
0.301386
0.347292
0.347583
0.305955
0.247221
0.191155
0.22442
0.288423
0.339636
0.337447
0.290143
0.231076
0.177353
0.304516
0.413511
0.522356
0.514527
0.420265
0.314919
0.22795
0.38399
0.50605
0.602425
0.641933
0.583409
0.405361
0.275819
0.434863
0.548244
0.570092
0.708534
0.689146
0.456734
0.299946
0.392451
0.514443
0.576822
0.631047
0.590608
0.412183
0.282431
0.317927
0.423472
0.529681
0.516315
0.430791
0.326204
0.239356
0.242928
0.306156
0.356094
0.351096
0.30535
0.246475
0.19199
0.217126
0.271984
0.314252
0.311117
0.272686
0.221786
0.172811
0.289856
0.38039
0.470961
0.457205
0.384712
0.296933
0.220102
0.36128
0.471302
0.5584
0.567722
0.519113
0.374757
0.263896
0.409586
0.525057
0.553386
0.684694
0.618363
0.42181
0.286987
0.376253
0.489976
0.560066
0.596991
0.541834
0.388012
0.273411
0.311781
0.407067
0.503182
0.485581
0.40801
0.315595
0.23602
0.242636
0.300528
0.345127
0.339223
0.298147
0.244255
0.192238
0.214904
0.262888
0.29567
0.293397
0.261441
0.215583
0.168928
0.283973
0.361516
0.426822
0.421758
0.363637
0.286432
0.214737
0.349061
0.458325
0.541534
0.547568
0.481926
0.356353
0.256034
0.388131
0.510866
0.539569
0.611421
0.578853
0.397794
0.27775
0.366825
0.479751
0.533667
0.567974
0.505279
0.371091
0.266792
0.311761
0.397488
0.471454
0.461131
0.394357
0.309669
0.233424
0.246166
0.299354
0.335503
0.331086
0.294815
0.243704
0.191827
0.22092
0.267891
0.296015
0.291008
0.258721
0.212259
0.164756
0.293886
0.36992
0.424515
0.416724
0.361009
0.283858
0.210522
0.363163
0.474257
0.564261
0.555206
0.475211
0.353874
0.252033
0.403571
0.53842
0.55156
0.610322
0.557059
0.393704
0.273806
0.387465
0.502384
0.575584
0.5782
0.499848
0.370049
0.263591
0.328904
0.419474
0.478822
0.467122
0.398433
0.310865
0.23051
0.257606
0.312571
0.346019
0.338494
0.299141
0.244356
0.188807
0.233154
0.284838
0.311791
0.300488
0.261193
0.209017
0.159413
0.320821
0.407943
0.462901
0.443805
0.373862
0.284025
0.20442
0.405691
0.530674
0.612147
0.590998
0.503396
0.359932
0.246796
0.458867
0.593923
0.598847
0.659915
0.597431
0.403836
0.269511
0.433542
0.569865
0.622803
0.618417
0.532909
0.377999
0.258972
0.362847
0.459913
0.528163
0.504431
0.417067
0.313316
0.224595
0.273822
0.337542
0.372442
0.355845
0.305216
0.241973
0.181722
0.24284
0.304173
0.331771
0.307976
0.258238
0.201426
0.15204
0.353914
0.459989
0.511862
0.471993
0.380971
0.275702
0.193723
0.455557
0.567129
0.665517
0.644278
0.533614
0.356513
0.234397
0.506595
0.651855
0.639324
0.731426
0.640868
0.40499
0.256852
0.485579
0.557186
0.695274
0.684015
0.565113
0.375011
0.245972
0.397622
0.516077
0.570157
0.538851
0.424083
0.303598
0.211784
0.281403
0.359027
0.393523
0.362024
0.299151
0.230391
0.170801
0.237789
0.302122
0.328667
0.295908
0.242411
0.188974
0.144825
0.350941
0.467112
0.525498
0.454986
0.353331
0.253388
0.18048
0.45642
0.563447
0.608017
0.607671
0.503394
0.326293
0.215823
0.50734
0.511067
0.625555
0.74978
0.609068
0.370489
0.235826
0.491121
0.599744
0.649227
0.667473
0.527402
0.342437
0.226353
0.388109
0.528905
0.588914
0.511053
0.387375
0.276936
0.195328
0.266404
0.343368
0.375343
0.337913
0.275717
0.212322
0.159771
0.0452854
0.0676769
0.138419
0.0974725
0.0702998
0.0535355
0.0463999
0.066944
0.284709
0.201017
0.140122
0.098648
0.0712215
0.0544031
0.0472268
0.0677775
0.256678
0.182568
0.129022
0.0924923
0.0683982
0.0534937
0.0475055
0.0699499
0.21029
0.152916
0.111474
0.0828051
0.0634532
0.0514531
0.0474626
0.0734542
0.162713
0.123778
0.0944387
0.0732172
0.0585368
0.0495516
0.0479416
0.0789503
0.18875
0.140617
0.104171
0.0779167
0.0598765
0.0487122
0.0454327
0.0723334
0.236151
0.168991
0.120544
0.0872246
0.0650042
0.0512958
0.0461633
0.0696225
0.27237
0.191355
0.133335
0.0945558
0.0692521
0.0537819
0.0474626
0.069209
0.279564
0.194826
0.135236
0.0959153
0.0705047
0.054932
0.0485202
0.0703182
0.251277
0.176966
0.125026
0.090717
0.0682487
0.0543548
0.0490375
0.072847
0.205033
0.148475
0.108813
0.0818685
0.0638025
0.0525954
0.0492031
0.0766902
0.158556
0.120906
0.0930716
0.0731095
0.0593153
0.0509167
0.0498626
0.082591
0.182715
0.134878
0.100211
0.0758236
0.0591836
0.0489329
0.0462795
0.0743915
0.231878
0.163017
0.116131
0.0849642
0.0643533
0.0516552
0.047166
0.0718884
0.27141
0.1858
0.128921
0.0923247
0.0687262
0.0542553
0.0485299
0.0715256
0.279119
0.189967
0.131377
0.0942398
0.0703429
0.0556448
0.0497303
0.0727932
0.248889
0.172514
0.122133
0.0897833
0.0685594
0.0553797
0.0504801
0.0755412
0.201298
0.14513
0.107212
0.0817835
0.0646938
0.0540098
0.0509879
0.0799317
0.155574
0.11908
0.0926077
0.0737481
0.0606456
0.0526408
0.0519579
0.0863927
0.174456
0.129223
0.097148
0.074623
0.0591468
0.0495847
0.0474192
0.0768958
0.22327
0.156414
0.112759
0.0836233
0.0643195
0.0523371
0.0482892
0.0743369
0.264381
0.179032
0.12519
0.090932
0.0687209
0.0549275
0.0495725
0.0737216
0.273351
0.183959
0.128246
0.0931608
0.0705395
0.0564435
0.0508277
0.0750026
0.242324
0.167718
0.120257
0.089568
0.0693348
0.0565434
0.0518224
0.0779688
0.196145
0.142428
0.106834
0.0827545
0.0661828
0.0556585
0.0527403
0.0829398
0.152949
0.118243
0.0933771
0.0753048
0.0625498
0.054655
0.0541078
0.0901668
0.165386
0.124374
0.0950979
0.0740764
0.0595233
0.0505174
0.0488231
0.0798457
0.210606
0.149642
0.109674
0.0827227
0.0645575
0.0531223
0.0494412
0.0767085
0.249801
0.171437
0.122302
0.0901766
0.0689481
0.0555983
0.0505014
0.0755458
0.259926
0.177121
0.125917
0.0929641
0.0710968
0.0572342
0.051747
0.0766639
0.231662
0.163318
0.119502
0.0902025
0.0703833
0.0576511
0.0529557
0.0797455
0.190074
0.140467
0.107242
0.0839422
0.067714
0.0572099
0.05427
0.0851115
0.150531
0.117934
0.0943006
0.0769551
0.0644916
0.0566123
0.0560474
0.0929147
0.156464
0.119999
0.0931911
0.0737115
0.059983
0.051456
0.050213
0.0828935
0.196249
0.143029
0.107049
0.0819864
0.0646943
0.0536963
0.0503541
0.078748
0.23053
0.16309
0.118963
0.0890862
0.0688605
0.0559339
0.0510956
0.0768828
0.24066
0.169435
0.123401
0.0922448
0.0711646
0.0575969
0.0522653
0.0776683
0.219012
0.158622
0.118264
0.0903612
0.0709814
0.0583455
0.0536803
0.0807761
0.183629
0.138443
0.107313
0.0849669
0.0689416
0.0584027
0.0554056
0.0864055
0.148001
0.117574
0.095182
0.0784791
0.0661837
0.0582724
0.0576453
0.0945132
0.149336
0.116312
0.0916336
0.0733198
0.0602198
0.052065
0.0511903
0.0853093
0.185089
0.137708
0.104696
0.0810983
0.0644893
0.0538368
0.0507661
0.0801623
0.215739
0.156411
0.116079
0.0879113
0.0684123
0.0558114
0.0511869
0.0776685
0.226112
0.163358
0.120827
0.0912921
0.0708009
0.0574674
0.0522709
0.0781151
0.209869
0.155043
0.117066
0.0901355
0.0710581
0.0585003
0.0538678
0.0812107
0.179037
0.136964
0.107323
0.0855385
0.0696159
0.0590432
0.0560183
0.0871877
0.146245
0.117493
0.0959866
0.0796846
0.0674308
0.0594804
0.0588823
0.0960871
0.144429
0.113451
0.0900597
0.0726314
0.0600433
0.0522057
0.0516337
0.0869105
0.178376
0.13403
0.102543
0.0799039
0.0638306
0.053474
0.0506191
0.0807051
0.207747
0.152193
0.113674
0.0865394
0.0675342
0.0551903
0.0507254
0.0776501
0.219149
0.159754
0.118941
0.090174
0.0700163
0.0568402
0.0517263
0.0778188
0.205818
0.153132
0.116142
0.0895921
0.0706407
0.0581077
0.0534669
0.0809134
0.17743
0.136737
0.107454
0.0857494
0.0697662
0.0590986
0.0559992
0.0872739
0.14597
0.118014
0.0969032
0.0805831
0.0682066
0.0601074
0.0594298
0.097016
0.140932
0.111254
0.0887583
0.0718562
0.0595934
0.0519643
0.0515721
0.0876658
0.173893
0.131041
0.100534
0.0785549
0.0628642
0.0527385
0.0500254
0.0805154
0.203185
0.148972
0.111395
0.0849189
0.0663113
0.0541953
0.0498432
0.0769566
0.215849
0.15726
0.117011
0.0886978
0.0688356
0.0558071
0.0507353
0.0768291
0.204282
0.151895
0.1151
0.088691
0.0697914
0.0572467
0.0525387
0.07985
0.17727
0.136695
0.107392
0.0855735
0.0694148
0.0585873
0.0553245
0.0864534
0.146829
0.119148
0.0977758
0.0811478
0.0684573
0.0600854
0.0591885
0.0968488
0.138113
0.10934
0.0874974
0.0709865
0.0589723
0.0515022
0.0512208
0.0876672
0.169754
0.128249
0.0986149
0.0771342
0.0617523
0.0518342
0.0492395
0.0798367
0.198702
0.145874
0.109225
0.0832564
0.0649598
0.053048
0.0487979
0.075847
0.21236
0.154776
0.11517
0.0871847
0.0674921
0.0545747
0.0495335
0.0753717
0.202702
0.150718
0.114069
0.087631
0.0686662
0.0560756
0.0512773
0.07816
0.177218
0.136883
0.107281
0.0851238
0.068666
0.0576183
0.0541246
0.0847213
0.148062
0.120322
0.0985381
0.0813523
0.0681718
0.0594288
0.0581791
0.0953678
0.135424
0.107708
0.0863196
0.0700306
0.0582337
0.0509463
0.0507658
0.0870174
0.165636
0.125749
0.0968227
0.0756625
0.0605684
0.0509036
0.0484602
0.0787418
0.193832
0.143015
0.107127
0.0815053
0.0635028
0.0518657
0.0477866
0.0744179
0.208105
0.152276
0.113206
0.0854394
0.0659334
0.0532315
0.0483225
0.0735965
0.200426
0.149321
0.112739
0.0861727
0.0671793
0.0546639
0.0498929
0.0760259
0.177055
0.136727
0.106754
0.0841141
0.067382
0.0562251
0.0525984
0.0821643
0.149221
0.121116
0.0986859
0.0808218
0.0671748
0.058149
0.0565881
0.0924007
0.132852
0.105796
0.0847528
0.0688244
0.0573691
0.0503863
0.0504182
0.0863295
0.161674
0.123057
0.0946412
0.0739137
0.0592678
0.0500045
0.047838
0.077731
0.188352
0.13951
0.104405
0.0793238
0.061848
0.0506839
0.0469294
0.0731215
0.202508
0.148785
0.110408
0.0830752
0.0640506
0.0518146
0.0472276
0.0719725
0.196517
0.146654
0.110295
0.083885
0.065207
0.0530598
0.0485441
0.0739751
0.175408
0.13527
0.10496
0.0820947
0.0654332
0.054481
0.0509804
0.0795336
0.149129
0.120568
0.0974552
0.0791331
0.065349
0.0563551
0.0547467
0.0890598
0.129577
0.103103
0.082693
0.067396
0.0564952
0.0499469
0.050305
0.0861488
0.157576
0.119545
0.091833
0.0718891
0.0579577
0.0492497
0.0474679
0.0772344
0.183325
0.135351
0.100991
0.0767815
0.0601368
0.049624
0.0463072
0.0723116
0.197099
0.144352
0.106672
0.0801858
0.0620123
0.0504599
0.0463244
0.0707676
0.192142
0.142646
0.106642
0.0808813
0.0629429
0.0514253
0.047322
0.0722799
0.172631
0.132013
0.101658
0.0791531
0.0630388
0.0525974
0.0494209
0.077228
0.147224
0.11804
0.0946322
0.0764012
0.0629513
0.0543185
0.0529101
0.0860794
0.125641
0.0999886
0.0805295
0.066076
0.0558124
0.0496987
0.0503597
0.0863285
0.152724
0.115329
0.0887642
0.0699439
0.0568686
0.0487255
0.0472978
0.0771134
0.177951
0.13025
0.0970933
0.0742137
0.0586163
0.0487931
0.0458814
0.0718637
0.19155
0.138804
0.102244
0.0771399
0.0600977
0.0493024
0.0456006
0.0699216
0.186797
0.137127
0.102076
0.0775787
0.0607158
0.0499399
0.046258
0.0709492
0.167525
0.126873
0.0972632
0.0757941
0.0605966
0.0508097
0.0479953
0.075319
0.142611
0.113421
0.0905938
0.073143
0.0604107
0.0523075
0.0511681
0.0835476
0.121237
0.0969686
0.0787623
0.0652194
0.055522
0.0497186
0.0505516
0.0868008
0.146577
0.110829
0.086014
0.0684987
0.0562307
0.0485257
0.0473172
0.0773409
0.170685
0.124423
0.0933536
0.0721268
0.0575714
0.0483201
0.0456856
0.0717916
0.183853
0.13222
0.0978135
0.0745145
0.0586444
0.0485092
0.0451266
0.0694946
0.179054
0.130443
0.0973957
0.07462
0.0589091
0.0488061
0.0454521
0.0700792
0.160041
0.120656
0.0927427
0.0727272
0.0585317
0.0493501
0.0468192
0.0738808
0.135923
0.107998
0.0864664
0.070131
0.0581925
0.0505742
0.0496197
0.0814612
0.116908
0.0947015
0.0778556
0.0650818
0.0557514
0.0500845
0.050953
0.0876153
0.139587
0.106931
0.0842077
0.0678766
0.056193
0.0487403
0.0476249
0.0779409
0.161375
0.118899
0.0905731
0.0709378
0.0571919
0.0483132
0.0458284
0.0721819
0.173374
0.125676
0.0942929
0.0728038
0.0578887
0.0482198
0.0450395
0.06961
0.168528
0.123742
0.0935722
0.0725494
0.0578015
0.0482006
0.0450773
0.0698461
0.150768
0.11464
0.0890636
0.0705026
0.0571448
0.0484248
0.0461034
0.0731683
0.128606
0.103005
0.0831427
0.0678941
0.05661
0.0493569
0.0485284
0.0801293
0.113807
0.0937155
0.0779842
0.065691
0.056516
0.0508704
0.0517329
0.0888371
0.133471
0.104491
0.0836317
0.0681302
0.0567684
0.0494271
0.0483591
0.0790456
0.152258
0.114853
0.0891567
0.0707339
0.0574965
0.0488225
0.0464359
0.0731613
0.162551
0.120521
0.092168
0.0721288
0.057864
0.0484887
0.0454601
0.0703941
0.158092
0.118488
0.0911397
0.0715185
0.0574482
0.0481892
0.0452575
0.0703714
0.142323
0.110141
0.0867168
0.0692741
0.0565035
0.0481153
0.045989
0.0733215
0.122663
0.0994709
0.081032
0.0665788
0.055746
0.0487632
0.0480791
0.0797809
0.149062
0.116382
0.0916035
0.0733413
0.0604853
0.05284
0.0532094
0.0926732
0.18772
0.140575
0.106158
0.0815722
0.0645927
0.0541335
0.0522253
0.0873234
0.222872
0.164228
0.120827
0.0900238
0.0689902
0.0558937
0.05211
0.0843672
0.24326
0.178733
0.130197
0.0955051
0.0718552
0.0570585
0.0521636
0.0832831
0.238858
0.176836
0.129656
0.0954024
0.0717406
0.0568545
0.051922
0.083474
0.214335
0.160875
0.120014
0.0899283
0.0687548
0.0553712
0.0515076
0.0851818
0.179057
0.138936
0.106738
0.0822265
0.0646339
0.053603
0.0516272
0.0891942
0.154361
0.120115
0.0946698
0.0759982
0.0628356
0.0549789
0.0554434
0.0971732
0.197004
0.145781
0.109713
0.0843997
0.0669653
0.0561988
0.0542858
0.091429
0.238356
0.171865
0.125146
0.0930477
0.0713414
0.0578388
0.0539825
0.0881461
0.263838
0.188478
0.135193
0.0985793
0.0740522
0.0588151
0.0538089
0.0867623
0.258683
0.186182
0.134161
0.0979598
0.0735547
0.0582886
0.0532903
0.0865787
0.227851
0.167037
0.122967
0.0916591
0.0700158
0.0564013
0.0525642
0.0878388
0.185731
0.141821
0.108109
0.0831127
0.0653434
0.0542597
0.0524044
0.0914249
0.159777
0.124316
0.0981305
0.0789099
0.0652592
0.0570283
0.0574457
0.101487
0.205345
0.150819
0.113466
0.0874234
0.0693821
0.0581525
0.0560909
0.0952828
0.252857
0.17868
0.129309
0.096089
0.0736424
0.0596186
0.0555439
0.0915216
0.285304
0.19732
0.139801
0.101484
0.076104
0.0603041
0.0550554
0.089615
0.277867
0.193807
0.137863
0.10029
0.0751384
0.0593976
0.0541742
0.0888917
0.238708
0.171474
0.125194
0.0930639
0.0709772
0.0570522
0.0530864
0.0896085
0.189991
0.143493
0.108943
0.0836491
0.065715
0.0545111
0.0526331
0.092728
0.16419
0.128359
0.101699
0.081839
0.0675942
0.0589439
0.0592943
0.105219
0.210073
0.155052
0.117171
0.0904367
0.0717038
0.0599452
0.0577015
0.0984314
0.259052
0.183102
0.132937
0.0989367
0.0757584
0.0611601
0.0568245
0.0939505
0.294233
0.202138
0.143008
0.103808
0.0777645
0.0614226
0.0559146
0.091289
0.28501
0.197295
0.140094
0.101852
0.0761234
0.0599907
0.0546126
0.0899436
0.241272
0.172746
0.126118
0.0936883
0.0712746
0.057167
0.0531365
0.0901047
0.189701
0.14317
0.10876
0.0834849
0.0655078
0.0542909
0.0524302
0.0928502
0.166414
0.131418
0.104594
0.0842188
0.069479
0.0605595
0.0609595
0.108366
0.209895
0.157381
0.119949
0.0927672
0.073487
0.0613806
0.0591078
0.10094
0.254882
0.183614
0.134879
0.100803
0.0771821
0.0622508
0.0578486
0.0956448
0.286356
0.200212
0.143446
0.104772
0.0785006
0.0619878
0.0564792
0.092172
0.276146
0.1942
0.139426
0.101863
0.0761473
0.0600042
0.0547155
0.0901364
0.233734
0.169661
0.124744
0.0928315
0.0706429
0.0567296
0.0528927
0.0898053
0.184375
0.140392
0.107068
0.0822058
0.064533
0.0536305
0.0520287
0.0923449
0.16805
0.133719
0.106658
0.0859134
0.070925
0.0619062
0.0625109
0.111474
0.209049
0.159037
0.12189
0.0943583
0.0747727
0.0625365
0.0604101
0.103444
0.248564
0.182988
0.135847
0.101834
0.0780086
0.0630294
0.0588072
0.097454
0.273178
0.196312
0.142669
0.10468
0.078596
0.0622382
0.0569891
0.0932239
0.261876
0.188886
0.137301
0.100696
0.075447
0.059696
0.05478
0.0904858
0.223473
0.164771
0.121958
0.0909904
0.0694304
0.0560528
0.0526778
0.0897456
0.17763
0.136273
0.104161
0.0801176
0.0631477
0.0528404
0.0517457
0.0922146
0.171183
0.136183
0.108501
0.0873463
0.07216
0.0631193
0.0640052
0.115008
0.212044
0.16181
0.123871
0.0957847
0.0759004
0.0636043
0.061712
0.106437
0.249066
0.184899
0.137366
0.102848
0.0787989
0.0638052
0.059844
0.0999477
0.268809
0.195817
0.142707
0.10487
0.0787674
0.0625543
0.0576544
0.0951163
0.255156
0.186356
0.135956
0.0997011
0.0748264
0.0595047
0.0550771
0.0917689
0.217785
0.161367
0.119501
0.0892015
0.0683068
0.0555575
0.0527614
0.090697
0.172751
0.132498
0.101217
0.0780198
0.0618741
0.0522802
0.0518062
0.0931533
0.175994
0.139213
0.110581
0.088974
0.0735034
0.0643248
0.0653737
0.118719
0.219152
0.165772
0.126183
0.097357
0.0771677
0.0647542
0.0630136
0.109909
0.257857
0.189655
0.139758
0.104224
0.0798381
0.0647743
0.0609982
0.103102
0.276237
0.199623
0.144331
0.105588
0.0792629
0.0631638
0.0585619
0.0977655
0.258847
0.187542
0.135845
0.0993112
0.0746843
0.0597232
0.0557062
0.0939784
0.217861
0.160016
0.117948
0.0880946
0.0677801
0.0555252
0.053226
0.0926655
0.170051
0.129737
0.0990126
0.0766354
0.06122
0.0521993
0.0522835
0.0952548
0.180739
0.142484
0.113083
0.0908961
0.0749795
0.0654739
0.0664822
0.121816
0.226374
0.169808
0.128959
0.0994646
0.0787562
0.06599
0.064213
0.113167
0.268534
0.194568
0.142588
0.106223
0.0813472
0.066005
0.0622365
0.106417
0.288245
0.204248
0.14657
0.107047
0.0804529
0.0642005
0.0597024
0.100896
0.265059
0.189325
0.136397
0.0997389
0.0753197
0.0604772
0.056707
0.0969176
0.218459
0.159297
0.117372
0.0879104
0.0679896
0.0560282
0.054097
0.0954749
0.16802
0.127905
0.0979368
0.0762118
0.0612675
0.05262
0.0531452
0.0981016
0.184295
0.145613
0.11561
0.0927666
0.0762935
0.0664237
0.0673073
0.123653
0.230346
0.17323
0.13182
0.10165
0.0803239
0.067125
0.0652416
0.115545
0.273258
0.197955
0.145397
0.108496
0.0830583
0.0673077
0.0634764
0.109183
0.292499
0.206705
0.14871
0.108929
0.0819606
0.0655047
0.0610487
0.103868
0.265203
0.189736
0.137349
0.101043
0.0765206
0.0616226
0.0580366
0.0999599
0.216112
0.1585
0.117484
0.0884962
0.068761
0.0569723
0.0553848
0.0986346
0.165649
0.126836
0.0976989
0.0764563
0.0618207
0.0534414
0.0543766
0.10122
0.186595
0.148188
0.117553
0.0940033
0.0771127
0.0670457
0.0679622
0.12458
0.230743
0.175658
0.134176
0.103322
0.0814189
0.0679493
0.0661387
0.11722
0.269452
0.198984
0.147581
0.110375
0.0844271
0.0684159
0.0647139
0.111545
0.284549
0.205935
0.150151
0.110471
0.08338
0.0667864
0.0625519
0.106771
0.257741
0.188605
0.138286
0.10228
0.0777412
0.0628986
0.0596624
0.103171
0.21148
0.157625
0.117899
0.0893222
0.0697512
0.0581862
0.0570736
0.10218
0.16321
0.126191
0.097797
0.0769358
0.0625873
0.0545414
0.0560201
0.104748
0.190055
0.150605
0.118727
0.094411
0.0772864
0.0673629
0.0686362
0.125598
0.234
0.179063
0.136374
0.104372
0.0819411
0.0684782
0.0670554
0.119036
0.269631
0.202062
0.150353
0.112031
0.0854312
0.0693453
0.0660687
0.114322
0.28048
0.207712
0.152777
0.112325
0.0846674
0.0680359
0.064291
0.110339
0.255532
0.18999
0.14021
0.103802
0.0789935
0.0642856
0.0616337
0.107219
0.210849
0.158613
0.119089
0.0903731
0.0708607
0.0596126
0.059175
0.106582
0.162979
0.126485
0.0982608
0.0775533
0.0635106
0.0559117
0.0581363
0.109245
0.195951
0.15303
0.119169
0.0941907
0.077109
0.0676047
0.0694889
0.127579
0.2444
0.184709
0.138575
0.104901
0.0820891
0.068901
0.0681453
0.121752
0.282806
0.210582
0.154643
0.113802
0.0862837
0.0702551
0.0676509
0.118239
0.293318
0.216739
0.157758
0.114743
0.0860269
0.0693921
0.0663247
0.11521
0.266136
0.197403
0.144378
0.105864
0.080424
0.0658663
0.063957
0.112574
0.217935
0.16291
0.121387
0.0917859
0.0721982
0.0612829
0.0616571
0.112201
0.166356
0.128197
0.0992194
0.0784257
0.0646786
0.0575811
0.0606914
0.115021
0.201987
0.15409
0.118512
0.0934586
0.0768655
0.067951
0.070498
0.130248
0.26082
0.190943
0.139898
0.104836
0.0820823
0.0693873
0.0693764
0.125274
0.309307
0.223247
0.159169
0.115192
0.0870224
0.0712528
0.0694198
0.123295
0.324097
0.232137
0.163828
0.117114
0.0874219
0.0708608
0.0685307
0.121341
0.290064
0.209229
0.149104
0.108031
0.0819939
0.067596
0.0664285
0.119076
0.232071
0.169329
0.1241
0.0933711
0.0737178
0.063142
0.064306
0.118871
0.172002
0.130535
0.100422
0.079593
0.066168
0.0595189
0.0634738
0.121886
0.202306
0.151926
0.116629
0.0925746
0.0769239
0.0686733
0.071656
0.132699
0.272122
0.192556
0.139018
0.10411
0.0820897
0.0700705
0.0707474
0.128644
0.338678
0.23243
0.161175
0.11569
0.0876809
0.0723539
0.0712146
0.127979
0.363843
0.246273
0.168052
0.118805
0.0887857
0.0724563
0.070813
0.127629
0.318366
0.219039
0.152121
0.109706
0.0836082
0.0694691
0.0689543
0.126048
0.244878
0.173519
0.125779
0.0948039
0.0754014
0.0651534
0.0669978
0.126057
0.175663
0.13189
0.101471
0.0809713
0.0679076
0.0616039
0.0662606
0.129126
0.193049
0.145978
0.113646
0.0920194
0.0776648
0.0699259
0.0730519
0.134073
0.263581
0.185803
0.134954
0.102373
0.081915
0.071184
0.0724012
0.130628
0.336779
0.228446
0.158178
0.114412
0.0878196
0.073462
0.072958
0.130676
0.37072
0.246106
0.16697
0.118551
0.0895194
0.0738279
0.0728708
0.131538
0.319359
0.217585
0.151229
0.109938
0.0847609
0.0711927
0.0713971
0.131614
0.241845
0.171198
0.125054
0.0954172
0.0768605
0.0670935
0.0695666
0.132184
0.17298
0.130618
0.101611
0.0820948
0.069616
0.0636684
0.0688929
0.135364
0.183328
0.141704
0.108361
0.0829615
0.0646817
0.0531184
0.0505278
0.0856346
0.232234
0.173702
0.127677
0.0936565
0.0697026
0.0544188
0.0488843
0.0779899
0.276697
0.203563
0.145723
0.103448
0.074298
0.055838
0.0480807
0.0729886
0.299674
0.217441
0.153349
0.106971
0.0755008
0.0557595
0.0471021
0.0697907
0.28546
0.206021
0.145011
0.101373
0.0719099
0.0535187
0.0455926
0.0679104
0.242808
0.1756
0.125248
0.0895096
0.0652996
0.0501919
0.0442621
0.0680944
0.188158
0.140124
0.103584
0.0771501
0.0589593
0.0476651
0.0442992
0.0712571
0.189326
0.143953
0.109132
0.0832945
0.0649553
0.0534499
0.0509896
0.0871505
0.243804
0.177218
0.128094
0.0933615
0.0695043
0.0544146
0.0490893
0.0791161
0.294108
0.208255
0.145563
0.102358
0.0734797
0.0554568
0.0480579
0.0738856
0.316691
0.220738
0.151851
0.104918
0.0740911
0.0550426
0.046905
0.0705584
0.294284
0.205096
0.141514
0.0984425
0.0701412
0.0526865
0.0454143
0.0687949
0.242139
0.170887
0.120761
0.0865109
0.0637117
0.04961
0.0443653
0.0693214
0.182805
0.134713
0.0996791
0.0749278
0.058049
0.0476401
0.0449164
0.0731734
0.192256
0.144577
0.109077
0.0831839
0.0648831
0.053394
0.0509755
0.0880243
0.250065
0.177738
0.127232
0.0925494
0.068946
0.0540815
0.0489305
0.0797702
0.30528
0.208446
0.143636
0.100701
0.0724298
0.054871
0.0477956
0.0745214
0.326711
0.219196
0.148489
0.102374
0.0725506
0.0542453
0.04661
0.0712933
0.29463
0.199962
0.136797
0.0953822
0.0684725
0.0519618
0.0453132
0.0699017
0.235197
0.164092
0.116079
0.0838687
0.0625092
0.0493427
0.0447388
0.0710606
0.175019
0.129071
0.0963442
0.0734118
0.0577463
0.0480885
0.0459359
0.075858
0.190535
0.143231
0.108244
0.0825995
0.0644194
0.0530347
0.0507246
0.088139
0.246834
0.174519
0.125021
0.091166
0.0680556
0.0535274
0.048636
0.0798874
0.300347
0.20329
0.140079
0.0984471
0.0710654
0.0541033
0.0474786
0.0747738
0.318097
0.211654
0.143328
0.0992919
0.0708303
0.0534098
0.0463995
0.0718897
0.281432
0.190693
0.131112
0.0922219
0.0668955
0.0514089
0.0454747
0.0711241
0.222502
0.155924
0.111491
0.0815989
0.0616955
0.0494739
0.0455781
0.0733381
0.166051
0.123781
0.0938453
0.072626
0.0579327
0.0489685
0.0474469
0.0794412
0.184406
0.139769
0.106099
0.081046
0.0633245
0.0523552
0.0503984
0.0879143
0.234379
0.167582
0.121299
0.088771
0.0665326
0.0526791
0.0483246
0.0798831
0.280423
0.192537
0.13414
0.0949633
0.0690441
0.0531022
0.0472162
0.0750522
0.292379
0.19786
0.135909
0.0951759
0.0686298
0.0524817
0.0463552
0.072665
0.258073
0.177831
0.124256
0.0885715
0.0652044
0.0509866
0.0459558
0.0727095
0.206019
0.14692
0.106763
0.0793278
0.0611164
0.0499419
0.0468486
0.0762294
0.156585
0.118843
0.0915521
0.0719397
0.0583608
0.0500756
0.0492285
0.0836718
0.177292
0.135302
0.102913
0.0788092
0.0618918
0.0516067
0.0502495
0.0882544
0.220907
0.160124
0.116583
0.085741
0.0647115
0.0518022
0.0482095
0.0804917
0.257696
0.18053
0.127344
0.0909736
0.0668406
0.0521481
0.0471957
0.0760078
0.26534
0.183517
0.128042
0.0907511
0.0664153
0.0517312
0.0466462
0.0741459
0.236059
0.165544
0.117385
0.0849283
0.0637022
0.0508976
0.0468723
0.0750827
0.191105
0.138647
0.10224
0.0774614
0.0608933
0.0507131
0.048434
0.079905
0.148619
0.114594
0.0896796
0.0715261
0.0588196
0.0510949
0.0508635
0.0876685
0.172019
0.131324
0.0998174
0.0766565
0.0606247
0.0511064
0.0504462
0.0896178
0.212122
0.15449
0.112489
0.0830164
0.0631687
0.0512149
0.0484337
0.0820935
0.243338
0.172052
0.121864
0.0875729
0.065042
0.0515528
0.0475429
0.0779279
0.247732
0.173193
0.121659
0.0871197
0.0647839
0.0514661
0.0473897
0.0765989
0.221302
0.156495
0.111831
0.0820799
0.0628237
0.0513541
0.0482536
0.0783886
0.181084
0.132511
0.0988838
0.0761584
0.060902
0.0516469
0.0500656
0.0839101
0.143153
0.111545
0.0881588
0.0711191
0.0591114
0.0518347
0.0521085
0.0910368
0.168587
0.127987
0.0972828
0.075087
0.0598829
0.0510067
0.0509538
0.0918622
0.207816
0.150427
0.109255
0.0809906
0.0622073
0.0510612
0.0489868
0.0845309
0.237377
0.166731
0.117734
0.0851019
0.0639855
0.0514925
0.0482878
0.0806934
0.239384
0.166515
0.117063
0.0846831
0.0639859
0.0517816
0.0485616
0.0798826
0.212709
0.150224
0.107987
0.080503
0.0628843
0.0522991
0.0499361
0.0825012
0.174761
0.128482
0.0967872
0.0755041
0.0612957
0.0525543
0.0514166
0.0871762
0.139485
0.109353
0.0870896
0.0708387
0.0592681
0.0522621
0.052839
0.0933557
0.165503
0.125511
0.0958111
0.0744352
0.0598206
0.0513966
0.0518469
0.0949694
0.204244
0.146745
0.106965
0.0799129
0.0619592
0.0514054
0.0499122
0.087627
0.232901
0.162203
0.114826
0.0836999
0.0636539
0.0519249
0.0493728
0.0837915
0.233445
0.161572
0.113878
0.0832261
0.0638121
0.0525805
0.050067
0.0834268
0.206317
0.145805
0.105527
0.0797458
0.0631123
0.053443
0.0517395
0.0871282
0.170185
0.12589
0.0957131
0.0755124
0.0617055
0.0532638
0.0524312
0.089721
0.136843