/*--------------------------------*- C++ -*----------------------------------*\
| =========                 |                                                 |
| \\      /  F ield         | OpenFOAM: The Open Source CFD Toolbox           |
|  \\    /   O peration     | Version:  plus.master.MPPICInterFoam            |
|   \\  /    A nd           | Web:      www.OpenFOAM.com                      |
|    \\/     M anipulation  |                                                 |
\*---------------------------------------------------------------------------*/
FoamFile
{
    version     2.0;
    format      ascii;
    class       surfaceScalarField;
    location    "3.4";
    object      phi;
}
// * * * * * * * * * * * * * * * * * * * * * * * * * * * * * * * * * * * * * //

dimensions      [0 3 -1 0 0 0 0];

internalField   nonuniform List<scalar> 
34018
(
5.32925e-07
5.76996e-06
1.38452e-07
-7.67771e-09
5.84844e-07
6.14377e-06
5.29928e-07
5.2277e-06
1.22076e-09
-1.70524e-07
5.89781e-06
5.24031e-07
-1.11995e-07
5.30523e-06
5.04888e-07
4.58075e-06
-7.38313e-08
4.80275e-07
-1.466e-07
3.73521e-07
6.03358e-06
1.33855e-07
-3.46436e-07
-2.15032e-07
4.35348e-07
6.68144e-06
-4.04457e-07
-3.20806e-07
4.6304e-07
7.0913e-06
-4.32473e-07
-3.64882e-07
3.95925e-07
7.08271e-06
-3.93375e-07
-3.80724e-07
4.03812e-07
6.60054e-06
-3.70501e-07
-3.29489e-07
3.68406e-07
5.77747e-06
-3.22587e-07
3.17531e-07
4.83467e-06
-2.34017e-07
-2.7358e-07
-4.1473e-08
3.17415e-07
6.77802e-06
3.16315e-08
-1.26068e-07
3.33103e-07
7.6308e-06
-3.1572e-07
3.09587e-07
8.29551e-06
-3.81144e-07
2.02226e-07
8.39255e-06
-4.90276e-07
3.20385e-07
7.79601e-06
-4.37487e-07
3.22269e-07
6.64659e-06
3.1031e-07
5.47889e-06
-3.19323e-07
1.86794e-08
2.18197e-07
7.25305e-06
-4.83399e-08
-1.0325e-07
1.81695e-07
8.2264e-06
-3.13776e-07
1.51573e-07
9.18527e-06
-3.32903e-07
3.60232e-08
1.00566e-05
-4.85817e-07
1.31329e-07
8.96113e-06
-4.68592e-07
2.23109e-07
7.28021e-06
2.84647e-07
5.91659e-06
-3.65481e-07
7.366e-08
1.04756e-07
7.31798e-06
-1.09073e-07
-5.23344e-08
2.72206e-08
8.30922e-06
-2.37433e-07
-3.73405e-08
9.47323e-06
-1.55665e-07
4.87096e-08
1.14859e-05
-3.11978e-07
2.00989e-07
9.35599e-06
-4.26923e-07
2.28467e-07
7.42673e-06
2.84032e-07
6.00804e-06
-3.66649e-07
1.08773e-07
8.44663e-09
6.94858e-06
-1.3604e-07
4.68388e-09
-1.22151e-07
7.84145e-06
-2.10106e-07
-2.01175e-07
8.59707e-06
-3.76636e-07
-1.03091e-07
8.9202e-06
-4.99231e-07
3.37649e-08
8.21306e-06
-4.86514e-07
1.38938e-07
6.95654e-06
2.50712e-07
5.71306e-06
-3.96374e-07
6.29747e-08
-1.39831e-08
6.27399e-06
-1.05934e-07
-6.03771e-08
-1.37637e-07
6.97202e-06
-2.55602e-07
-1.96449e-07
7.44485e-06
-4.01202e-07
-1.28808e-07
7.50418e-06
-4.7068e-07
-3.31349e-09
7.01809e-06
-4.53423e-07
1.14308e-07
6.15156e-06
2.30161e-07
5.16555e-06
-3.70673e-07
2.14921e-08
5.49366e-06
-8.91134e-08
2.55821e-08
-9.35477e-08
5.98987e-06
-8.02815e-08
-2.38899e-07
6.2954e-06
-1.24034e-07
-3.47231e-07
6.2862e-06
-7.72184e-08
-3.87565e-07
5.91485e-06
2.02918e-08
-3.74556e-07
5.27876e-06
1.28077e-07
4.52982e-06
-3.10076e-07
2.16535e-07
1.51793e-07
6.97914e-07
5.9037e-06
-1.1648e-07
-6.03529e-07
3.57412e-08
9.9162e-07
6.60223e-06
-7.96153e-07
-2.36741e-07
1.239e-06
7.08254e-06
-9.56772e-07
-5.09842e-07
1.22863e-06
7.08024e-06
-9.52472e-07
-6.29091e-07
1.05176e-06
6.48476e-06
-8.16292e-07
-5.60204e-07
7.42432e-07
5.57022e-06
-6.03959e-07
5.02755e-07
4.61048e-06
-4.17263e-07
-4.23868e-07
4.9481e-07
6.04491e-07
6.74381e-06
-3.66629e-07
3.78827e-07
8.60212e-07
7.87941e-06
-1.51736e-07
9.8531e-07
9.08042e-06
-7.38612e-07
9.99603e-07
9.20922e-06
-9.97529e-07
9.4204e-07
8.16546e-06
-8.38741e-07
6.71682e-07
6.55955e-06
4.67863e-07
5.26219e-06
-5.88456e-07
7.79531e-07
3.22636e-07
7.35618e-06
-6.002e-07
5.07988e-07
3.52756e-07
9.0059e-06
-1.63654e-07
3.24301e-07
1.05182e-05
-8.1348e-07
3.128e-07
1.13932e-05
-1.23722e-06
3.24843e-07
1.00025e-05
-1.05036e-06
3.43892e-07
7.42199e-06
3.32077e-07
5.73403e-06
-7.32665e-07
8.99506e-07
-3.07537e-08
7.47894e-06
-7.06434e-07
5.99611e-07
-2.96065e-07
9.25858e-06
5.10446e-08
-4.432e-07
1.07893e-05
-7.04859e-07
-5.82781e-07
1.31381e-05
-1.19124e-06
-1.9462e-07
1.03628e-05
-1.08062e-06
3.36522e-09
7.65647e-06
1.77889e-07
5.84792e-06
-7.67877e-07
7.66594e-07
-2.38264e-07
7.01444e-06
-6.24558e-07
5.63748e-07
-6.15131e-07
8.364e-06
-4.67411e-08
-8.86759e-07
9.65134e-06
-7.49363e-07
-8.82413e-07
9.9229e-06
-1.15992e-06
-6.15698e-07
9.04397e-06
-9.99662e-07
-2.27571e-07
7.02692e-06
6.47484e-08
5.55191e-06
-7.2677e-07
4.58591e-07
-2.36982e-07
6.24658e-06
-4.32342e-07
2.76256e-07
-5.2064e-07
7.06085e-06
-1.34795e-07
-7.24913e-07
7.69493e-06
-5.79293e-07
-7.16523e-07
7.78261e-06
-8.15842e-07
-4.974e-07
7.1363e-06
-7.58809e-07
-1.98832e-07
6.06588e-06
4.15289e-08
5.01265e-06
-5.82938e-07
2.56153e-07
5.43844e-06
-3.02582e-07
-1.34823e-07
1.03052e-07
5.9535e-06
-3.31251e-07
-1.51261e-07
6.28373e-06
-4.58652e-07
-4.01701e-07
6.26442e-06
-4.44051e-07
-5.31819e-07
5.84643e-06
-2.9859e-07
-5.22267e-07
5.16851e-06
-9.74816e-08
4.41499e-06
-4.25329e-07
5.96794e-08
9.0705e-08
6.66341e-07
5.70839e-06
-3.71917e-08
-5.24414e-07
1.40898e-08
9.93577e-07
6.37801e-06
-6.92596e-07
-2.49389e-07
1.32279e-06
6.86958e-06
-8.45321e-07
-5.05962e-07
1.29897e-06
6.86744e-06
-8.28787e-07
-5.54592e-07
9.94858e-07
6.19396e-06
-6.55007e-07
-4.39495e-07
6.33936e-07
5.27574e-06
-4.54599e-07
3.86144e-07
4.3779e-06
-3.05478e-07
-2.88063e-07
4.59311e-07
6.55548e-07
6.57227e-06
-2.76274e-07
3.81868e-07
1.06757e-06
7.88373e-06
-1.84308e-07
1.51463e-06
9.45547e-06
-8.94353e-07
1.48449e-06
9.73439e-06
-9.67862e-07
1.12118e-06
8.11335e-06
-6.92835e-07
6.60548e-07
6.25903e-06
4.0563e-07
4.97916e-06
-4.29777e-07
8.95494e-07
3.80318e-07
7.29597e-06
-5.5952e-07
7.49657e-07
5.05443e-07
9.71442e-06
-3.85366e-07
6.14226e-07
1.25541e-05
-1.32311e-06
4.00154e-07
1.3415e-05
-1.4025e-06
4.94907e-07
1.07089e-05
-9.39114e-07
3.73919e-07
7.24642e-06
3.17465e-07
5.43768e-06
-5.55186e-07
1.09584e-06
-1.33393e-08
7.47883e-06
-7.01622e-07
9.32754e-07
-3.95931e-07
1.03238e-05
-5.39243e-07
-6.94996e-07
1.35705e-05
-1.21572e-06
-6.46798e-07
1.4863e-05
-1.46365e-06
-3.67232e-07
1.1474e-05
-1.00912e-06
1.27203e-08
7.56337e-06
1.93612e-07
5.56183e-06
-5.99293e-07
8.36859e-07
-1.86216e-07
6.9299e-06
-5.79281e-07
7.27433e-07
-6.28652e-07
8.70644e-06
-1.4473e-07
-1.01048e-06
1.08397e-05
-1.16987e-06
-9.78006e-07
1.12797e-05
-1.28186e-06
-6.62939e-07
9.45179e-06
-8.97161e-07
-1.67147e-07
6.82183e-06
1.09659e-07
5.29323e-06
-5.57232e-07
4.30143e-07
-1.37701e-07
6.13642e-06
-3.68235e-07
2.84848e-07
-4.11743e-07
6.99039e-06
-1.60194e-07
-6.30401e-07
7.76104e-06
-6.10105e-07
-6.11868e-07
7.86651e-06
-7.72469e-07
-3.82175e-07
7.01792e-06
-6.24625e-07
-9.22806e-08
5.84294e-06
1.08155e-07
4.81596e-06
-4.26522e-07
2.19127e-07
5.36052e-06
-2.50814e-07
-2.48831e-08
9.31775e-08
5.8536e-06
-1.85954e-07
-1.34875e-07
6.17407e-06
-2.92448e-07
-3.49693e-07
6.13905e-06
-2.71491e-07
-4.35237e-07
5.69137e-06
-1.41449e-07
-3.91852e-07
5.01438e-06
1.91614e-08
4.29703e-06
-2.86561e-07
1.24018e-07
-3.92361e-07
1.60195e-07
5.62519e-06
3.89062e-07
-7.30053e-08
-3.56957e-07
1.2179e-07
6.21389e-06
7.30701e-09
-3.17305e-07
1.21102e-07
6.63007e-06
7.91302e-08
-2.25751e-07
5.33249e-08
6.57937e-06
1.43632e-07
-6.60512e-08
-6.40351e-08
5.93749e-06
1.60912e-07
2.15839e-08
-2.23751e-08
5.1056e-06
1.04883e-07
-1.57395e-08
4.29665e-06
4.36784e-08
9.97752e-08
-3.76373e-07
2.77131e-07
6.44272e-06
3.89332e-07
-3.48351e-07
3.62935e-07
7.61486e-06
-3.94046e-07
6.32776e-07
8.98964e-06
-3.88706e-07
5.92335e-07
9.1908e-06
-9.37569e-08
2.44261e-07
7.51024e-06
6.79335e-08
1.29399e-07
5.94609e-06
9.35318e-08
4.82473e-06
1.24574e-07
-2.34103e-07
3.19416e-07
7.16244e-06
3.25585e-07
-1.47689e-07
3.7525e-07
9.61605e-06
-6.77223e-07
5.08758e-07
1.32084e-05
-8.11252e-07
3.44212e-07
1.37979e-05
-2.39232e-07
3.80062e-07
1.00012e-05
9.41854e-08
2.67046e-07
6.77563e-06
2.24663e-07
5.23513e-06
1.66336e-07
-7.94182e-08
2.83169e-07
7.36674e-06
2.27876e-07
4.45311e-08
1.58094e-07
1.04176e-05
-8.38493e-07
8.34887e-08
1.48793e-05
-8.65582e-07
9.56932e-08
1.51387e-05
-3.80278e-07
1.5586e-07
1.12134e-05
5.50283e-08
3.29038e-07
7.06639e-06
3.35694e-07
5.35727e-06
1.49054e-07
-1.36825e-07
3.16697e-07
6.84397e-06
1.89185e-07
-8.80046e-08
2.66518e-07
8.54927e-06
-3.90159e-07
2.09076e-07
1.10164e-05
-7.20762e-07
2.1933e-07
1.14869e-05
-2.76346e-07
3.71644e-07
8.79222e-06
9.10596e-09
4.06839e-07
6.45842e-06
3.99013e-07
5.13645e-06
1.02733e-07
-1.70534e-07
3.56897e-07
6.11828e-06
1.48662e-07
-1.87656e-07
3.74304e-07
6.90027e-06
-2.46721e-07
4.13419e-07
7.6162e-06
-2.76291e-07
4.63836e-07
7.65178e-06
-1.36133e-07
5.02783e-07
6.74655e-06
-1.58326e-08
4.56172e-07
5.67314e-06
4.0772e-07
4.73609e-06
5.56184e-08
-1.29831e-07
5.402e-06
8.13783e-08
3.64189e-07
-1.58772e-07
5.8587e-06
3.98529e-07
-1.64039e-07
6.14074e-06
4.52002e-07
-1.32038e-07
6.07726e-06
4.93557e-07
-5.53591e-08
5.6204e-06
4.97065e-07
-1.82038e-09
4.9694e-06
4.47753e-07
4.28488e-06
4.48844e-08
3.73147e-07
-7.20107e-07
-2.24442e-07
5.67552e-06
6.62316e-07
2.33286e-07
-6.19962e-07
-5.77405e-07
6.19679e-06
4.95083e-07
-3.34181e-07
-9.17721e-07
6.51708e-06
7.44307e-07
3.78251e-08
-1.03891e-06
6.41331e-06
8.32618e-07
2.62819e-07
-8.18335e-07
5.84317e-06
6.88534e-07
2.79136e-07
-4.74808e-07
5.09481e-06
4.76469e-07
-3.07389e-07
4.33622e-06
1.82239e-07
3.65838e-07
-9.92073e-07
-8.30191e-08
6.44567e-06
8.47468e-07
-9.04647e-07
-4.01613e-07
7.35105e-06
-4.53166e-07
-6.30572e-07
8.25058e-06
1.62127e-07
-7.16619e-07
8.25251e-06
5.44329e-07
-6.55966e-07
6.96454e-06
5.24471e-07
-3.18432e-07
5.8098e-06
-1.5915e-07
4.81775e-06
3.975e-07
-1.26135e-06
2.27312e-07
7.10005e-06
1.01307e-06
-1.10537e-06
1.48928e-07
8.90954e-06
-6.80485e-07
-7.50475e-08
1.22276e-05
1.48083e-07
-4.05662e-08
1.22927e-05
8.27831e-07
3.62208e-08
8.62931e-06
7.64711e-07
9.35811e-08
6.4261e-06
1.00612e-07
5.18325e-06
5.59492e-07
-1.23527e-06
5.50843e-07
7.29298e-06
9.85163e-07
-9.64281e-07
7.04798e-07
9.58987e-06
-6.49741e-07
8.13336e-07
1.36751e-05
-1.41171e-07
6.87685e-07
1.38996e-05
8.2605e-07
7.74956e-07
9.50719e-06
8.00283e-07
5.43285e-07
6.64218e-06
3.70975e-07
5.30143e-06
5.90257e-07
-9.8076e-07
7.14325e-07
6.88198e-06
7.79094e-07
-9.15586e-07
1.02451e-06
8.16339e-06
-4.81035e-07
1.33659e-06
1.00586e-05
1.04435e-07
1.40127e-06
1.01877e-05
6.22228e-07
1.15733e-06
7.89169e-06
6.03984e-07
7.6701e-07
6.25292e-06
5.14318e-07
5.12781e-06
4.72576e-07
-6.30881e-07
7.01075e-07
6.24356e-06
5.1896e-07
-5.8288e-07
9.47352e-07
6.92833e-06
-2.9339e-07
1.2021e-06
7.46074e-06
9.38327e-08
1.26859e-06
7.39697e-06
3.41112e-07
1.05937e-06
6.59706e-06
3.64607e-07
7.53371e-07
5.66309e-06
5.20244e-07
4.7801e-06
3.15802e-07
-3.7999e-07
5.55842e-06
3.1572e-07
6.06614e-07
-3.47509e-07
5.99483e-06
7.79009e-07
-1.83015e-07
6.23531e-06
9.42754e-07
4.13354e-08
6.13583e-06
9.85369e-07
1.83737e-07
5.6792e-06
8.57845e-07
2.13135e-07
5.04178e-06
6.51002e-07
4.35707e-06
2.07237e-07
4.51864e-07
-6.00202e-07
-1.19641e-07
5.74001e-06
5.32763e-07
1.2248e-07
-5.42846e-07
-4.32598e-07
6.23186e-06
3.40877e-07
-2.95876e-07
-8.08532e-07
6.49236e-06
5.85739e-07
1.72246e-08
-9.22672e-07
6.35193e-06
6.70533e-07
1.30042e-07
-6.2135e-07
5.81726e-06
5.35622e-07
1.08768e-07
-3.91416e-07
5.09837e-06
4.14843e-07
-3.15396e-07
4.35196e-06
6.01717e-09
3.75218e-07
-8.22361e-07
-2.88667e-08
6.50249e-06
6.74518e-07
-7.99168e-07
-3.64799e-07
7.25963e-06
-3.56831e-07
-8.19115e-07
7.81826e-06
2.23038e-07
-9.50495e-07
7.6996e-06
3.6378e-07
-5.73229e-07
6.77446e-06
2.99597e-07
-2.86658e-07
5.7683e-06
-1.96136e-07
4.81755e-06
1.76307e-07
-1.12159e-06
2.34357e-07
7.12405e-06
8.34025e-07
-1.11231e-06
1.27824e-07
8.40732e-06
-3.73176e-07
-3.11256e-08
1.0702e-05
4.31159e-07
-2.24047e-07
1.07615e-05
6.91526e-07
-1.80481e-08
7.81443e-06
4.92245e-07
4.08181e-08
6.29749e-06
1.1216e-08
5.16073e-06
3.10202e-07
-1.12341e-06
5.20346e-07
7.32092e-06
8.0904e-07
-9.8735e-07
6.98594e-07
8.88217e-06
-4.74585e-07
7.32451e-07
1.2398e-05
1.65775e-07
7.24315e-07
1.23067e-05
7.10513e-07
6.6399e-07
8.2797e-06
5.16593e-07
4.00691e-07
6.47601e-06
2.11718e-07
5.28036e-06
3.39106e-07
-8.13684e-07
6.11767e-07
6.99355e-06
6.10875e-07
-8.18853e-07
8.7497e-07
7.99104e-06
-3.5791e-07
1.19105e-06
9.1402e-06
2.43249e-07
1.23665e-06
9.07369e-06
4.51726e-07
8.65666e-07
7.4816e-06
3.58697e-07
5.34165e-07
6.21258e-06
3.05154e-07
5.13758e-06
2.58557e-07
-5.01553e-07
5.61096e-07
6.40323e-06
3.92877e-07
-5.01941e-07
7.60767e-07
7.0411e-06
-2.58443e-07
9.6801e-07
7.4398e-06
7.51935e-08
1.00208e-06
7.29755e-06
1.89054e-07
7.56415e-07
6.59236e-06
1.83363e-07
5.0045e-07
5.70244e-06
2.9806e-07
4.81533e-06
1.54707e-07
-3.06663e-07
5.71117e-06
2.51391e-07
4.63688e-07
-2.9888e-07
6.14907e-06
5.99144e-07
-1.81956e-07
6.3595e-06
7.26737e-07
-1.26942e-08
6.22417e-06
7.44106e-07
6.07304e-08
5.75802e-06
6.03889e-07
7.57102e-08
5.10649e-06
4.20155e-07
4.40102e-06
8.57448e-08
2.43172e-07
-2.92057e-07
2.19251e-07
5.74602e-06
2.31048e-07
-1.64614e-07
-3.3976e-07
1.23312e-07
6.2446e-06
-8.89524e-08
-3.00407e-07
-8.43906e-08
6.4837e-06
5.35786e-08
-2.0856e-07
-2.14927e-07
6.31682e-06
1.58056e-07
-2.08672e-07
-1.19988e-07
5.77209e-06
1.65753e-07
-2.28765e-07
-1.42165e-07
5.04513e-06
2.15941e-07
-2.21077e-07
4.30383e-06
-2.63729e-07
3.00312e-07
-3.01191e-07
2.57838e-07
6.55514e-06
2.0993e-07
-4.00249e-07
1.51151e-07
7.33097e-06
-3.21391e-07
-1.63739e-07
7.81862e-06
-1.40987e-07
-3.36544e-07
7.64028e-06
-1.57472e-07
-8.21711e-08
6.75307e-06
-1.6527e-07
-7.93855e-08
5.71251e-06
-1.53288e-07
4.75163e-06
-1.79607e-07
-3.68938e-07
2.95522e-07
7.24288e-06
2.12544e-07
-5.59104e-07
2.38384e-07
8.51029e-06
-2.2127e-07
2.05157e-07
9.99628e-06
4.63794e-08
4.30657e-08
1.01149e-05
-3.71739e-08
8.08937e-08
7.73575e-06
-1.03845e-07
3.68867e-08
6.24765e-06
-6.00772e-08
5.08847e-06
-1.25851e-07
-3.36038e-07
3.12035e-07
7.4764e-06
1.6404e-07
-5.368e-07
3.92045e-07
8.92883e-06
-1.62834e-07
4.77606e-07
1.17527e-05
1.62253e-09
4.68051e-07
1.1716e-05
-5.18547e-08
2.76435e-07
8.13726e-06
-1.14217e-07
1.28924e-07
6.4461e-06
8.72494e-09
5.21591e-06
-1.18654e-07
-1.83015e-07
2.47862e-07
7.16372e-06
7.74311e-08
-3.40294e-07
2.93812e-07
8.24657e-06
-2.76956e-07
4.24148e-07
9.1314e-06
-1.7494e-07
4.30751e-07
9.00875e-06
-1.93441e-07
2.18159e-07
7.55861e-06
-1.76913e-07
1.14555e-07
6.21044e-06
1.75019e-08
5.08635e-06
-1.36256e-07
-1.04243e-07
1.74838e-07
6.53866e-06
4.20786e-08
-2.04528e-07
1.94917e-07
7.23981e-06
-2.41769e-07
2.54708e-07
7.64631e-06
-2.34692e-07
2.5896e-07
7.46205e-06
-2.3896e-07
1.50174e-07
6.66482e-06
-1.99796e-07
7.67232e-08
5.70123e-06
-1.63355e-09
4.77129e-06
-1.37986e-07
-1.05138e-07
5.79583e-06
6.35183e-08
1.31929e-07
-1.71624e-07
6.26179e-06
1.49022e-07
-2.07129e-07
6.46984e-06
1.80163e-07
-2.02215e-07
6.29659e-06
1.81695e-07
-2.06542e-07
5.78787e-06
1.24721e-07
-1.82788e-07
5.09281e-06
6.6548e-08
4.3593e-06
-1.32571e-07
-1.1464e-08
-8.13311e-08
4.70059e-07
5.67949e-06
2.60395e-08
-3.48862e-07
-2.10581e-07
5.62822e-07
6.18891e-06
-3.78044e-07
-3.39284e-07
5.00431e-07
6.42696e-06
-3.14861e-07
-4.14094e-07
3.42238e-07
6.23275e-06
-1.83063e-07
-4.59781e-07
2.08598e-07
5.65814e-06
-4.8753e-08
-4.44874e-07
-1.73949e-08
4.92094e-06
1.23713e-07
-2.12445e-07
4.19107e-06
-4.10116e-07
2.90556e-07
1.11394e-07
5.04918e-07
6.55437e-06
-1.45114e-07
-1.0367e-07
6.39928e-07
7.4696e-06
-3.51725e-07
5.13609e-07
8.05389e-06
-5.28054e-07
3.41765e-07
7.81749e-06
-5.72833e-07
2.90902e-07
6.71631e-06
-4.90415e-07
3.19597e-08
5.58125e-06
-1.54308e-07
4.61067e-06
-4.12407e-07
3.12162e-07
3.47248e-07
7.39753e-06
-3.08595e-07
-8.09847e-08
4.01439e-07
9.14245e-06
-3.48234e-07
3.32486e-07
1.0445e-05
-5.58165e-07
1.95174e-07
1.04721e-05
-6.55295e-07
1.97944e-07
7.92664e-06
-5.294e-07
9.05239e-09
6.14502e-06
-1.31268e-07
4.9399e-06
-4.06315e-07
3.88611e-07
1.1469e-07
7.71507e-06
-3.94191e-07
-2.81436e-09
1.0613e-07
9.61608e-06
-1.95521e-07
1.10587e-07
1.21681e-05
-6.48873e-07
8.24945e-08
1.2284e-05
-7.29156e-07
-8.74757e-08
8.50373e-06
-5.66039e-07
-9.39684e-08
6.3859e-06
-1.50735e-07
5.07414e-06
-4.07155e-07
4.00619e-07
-1.04039e-07
7.3526e-06
-3.70515e-07
1.2637e-08
-2.71625e-07
9.01307e-06
-3.14608e-07
-2.43393e-07
9.81349e-06
-6.83982e-07
-2.69526e-07
9.73086e-06
-7.44402e-07
-3.10503e-07
7.84212e-06
-5.59637e-07
-2.09598e-07
6.14138e-06
-1.96229e-07
4.95465e-06
-3.85303e-07
2.26806e-07
-1.74365e-07
6.60426e-06
-2.21892e-07
2.40811e-08
-3.27548e-07
7.49958e-06
-2.88754e-07
-4.00944e-07
8.11717e-06
-5.80403e-07
-3.95333e-07
7.87966e-06
-6.02409e-07
-3.50379e-07
6.72701e-06
-4.70843e-07
-2.54238e-07
5.61458e-06
-2.24226e-07
4.64886e-06
-3.20032e-07
2.4744e-08
5.79452e-06
-4.99241e-08
-1.47346e-07
-1.00012e-07
6.29132e-06
-2.32104e-07
-2.63467e-07
6.51601e-06
-2.83193e-07
-3.87128e-07
6.30965e-06
-2.84364e-07
-4.22292e-07
5.73296e-06
-2.59997e-07
-3.57203e-07
4.99454e-06
-2.20549e-07
4.24841e-06
-2.42705e-07
-2.27305e-07
-1.23583e-07
3.74866e-07
5.59233e-06
7.54209e-08
-2.39859e-07
-2.3667e-07
4.75178e-07
6.07375e-06
-2.46759e-07
-3.73716e-07
4.45671e-07
6.29845e-06
-1.7976e-07
-4.49683e-07
2.6732e-07
6.08381e-06
-4.18896e-08
-4.69133e-07
8.12888e-08
5.4979e-06
9.87785e-08
-4.30436e-07
-1.59286e-07
4.78012e-06
2.61461e-07
-3.401e-07
4.07615e-06
-3.75147e-07
3.99775e-07
1.09888e-07
4.52364e-07
6.46597e-06
-9.84092e-08
-7.97434e-08
6.81551e-07
7.4536e-06
-4.01398e-07
6.79441e-07
8.14248e-06
-6.09971e-07
4.65612e-07
7.82862e-06
-5.80815e-07
2.25929e-07
6.54373e-06
-4.60322e-07
-8.34537e-08
5.38632e-06
-2.68532e-07
4.45149e-06
-3.72319e-07
4.38439e-07
3.03648e-07
7.39815e-06
-2.89696e-07
7.82516e-08
5.48386e-07
9.63648e-06
-5.52081e-07
4.86073e-07
1.12691e-05
-7.56471e-07
2.54114e-07
1.08893e-05
-6.98597e-07
1.7347e-07
7.92228e-06
-4.85122e-07
-8.95086e-08
5.9385e-06
-2.28846e-07
4.75581e-06
-3.41369e-07
5.66858e-07
1.98538e-08
7.81262e-06
-3.79925e-07
2.08899e-07
-7.88674e-08
1.06023e-05
-5.48315e-07
4.35548e-08
1.33691e-05
-9.73457e-07
8.52334e-08
1.28813e-05
-7.88565e-07
-2.30468e-07
8.72398e-06
-5.08921e-07
-1.85991e-07
6.20335e-06
-2.29065e-07
4.88776e-06
-3.24495e-07
4.82622e-07
-1.97879e-07
7.3953e-06
-3.07505e-07
2.48691e-07
-4.77898e-07
9.64771e-06
-5.59619e-07
-6.31272e-07
1.12975e-05
-8.83917e-07
-6.07946e-07
1.07499e-05
-7.60007e-07
-4.3299e-07
7.92135e-06
-4.88592e-07
-2.75916e-07
5.96015e-06
-2.45484e-07
4.78256e-06
-3.0089e-07
1.69625e-07
-2.21695e-07
6.56822e-06
-1.09615e-07
8.81394e-09
-3.97956e-07
7.58226e-06
-3.78125e-07
-5.35111e-07
8.40916e-06
-6.43635e-07
-5.11604e-07
8.04978e-06
-5.7293e-07
-4.00687e-07
6.62426e-06
-4.02225e-07
-2.77176e-07
5.4453e-06
-2.46372e-07
4.50011e-06
-2.5204e-07
-7.34886e-08
5.74699e-06
7.43057e-08
-1.7375e-07
-1.60108e-07
6.22758e-06
-2.47472e-07
-3.10044e-07
6.44687e-06
-3.15539e-07
-4.09357e-07
6.21128e-06
-3.13537e-07
-3.99793e-07
5.5937e-06
-2.70647e-07
-3.11286e-07
4.85309e-06
-2.23468e-07
4.12567e-06
-2.08875e-07
-2.25089e-07
-4.13795e-07
-8.65713e-08
5.60554e-06
3.59788e-07
1.28192e-07
-4.1297e-07
-2.28438e-07
6.02418e-06
2.77947e-07
-3.79662e-07
-3.67319e-07
6.2044e-06
4.28369e-07
-2.95287e-07
-5.14547e-07
5.97246e-06
5.42085e-07
-2.52933e-07
-5.13686e-07
5.40561e-06
5.63811e-07
-2.34387e-07
-5.49112e-07
4.72136e-06
5.89483e-07
-5.84993e-07
4.03283e-06
-2.38265e-07
6.32403e-07
-3.73062e-07
1.05991e-09
6.40063e-06
3.51179e-07
-3.65815e-07
-2.46413e-08
7.24279e-06
-3.87269e-07
-4.40586e-08
7.84138e-06
-2.80743e-07
-2.47259e-07
7.45592e-06
-1.58723e-07
-3.8568e-07
6.29444e-06
-1.19371e-07
-4.55465e-07
5.25459e-06
-4.95926e-07
4.37323e-06
-1.30306e-07
-2.79836e-07
7.17415e-08
7.24314e-06
3.64477e-07
-2.05785e-07
2.3307e-07
9.3054e-06
-5.58638e-07
1.67862e-07
1.14107e-05
-3.1742e-07
-1.18031e-07
1.05203e-05
-3.97176e-08
-2.01017e-07
7.46024e-06
1.08599e-08
-3.07102e-07
5.74001e-06
-3.71465e-07
4.65035e-06
-7.69954e-09
-2.09352e-07
4.5302e-08
7.68829e-06
3.60596e-07
-1.19546e-07
-2.20671e-08
1.07693e-05
-4.925e-07
1.14224e-07
1.37967e-05
-3.47562e-07
1.62228e-07
1.24583e-05
-1.28259e-09
-8.80612e-08
8.26555e-06
7.44747e-08
-1.60258e-07
5.98131e-06
-2.4311e-07
4.77404e-06
6.04178e-08
-3.11697e-07
6.28087e-08
7.30039e-06
3.89091e-07
-1.55427e-07
2.44599e-08
9.44618e-06
-5.48877e-07
-1.30763e-07
1.19366e-05
-3.24989e-07
-1.00941e-07
1.07914e-05
-2.73528e-08
9.53208e-10
7.53555e-06
5.13687e-08
-6.34343e-08
5.78496e-06
-1.48966e-07
4.68258e-06
5.76229e-08
-3.79716e-07
7.42041e-08
6.54054e-06
3.96377e-07
-3.38954e-07
1.29561e-07
7.43742e-06
-3.65436e-07
1.1383e-07
8.19224e-06
-2.63212e-07
1.08793e-07
7.73885e-06
-9.22188e-08
4.41395e-08
6.41021e-06
-8.56033e-09
-2.27098e-08
5.3212e-06
-9.68416e-08
4.42379e-06
1.60746e-08
-4.11704e-07
5.77191e-06
4.15678e-07
4.61405e-08
-3.70532e-07
6.193e-06
1.23377e-07
-3.21859e-07
6.36674e-06
1.45538e-07
-2.33127e-07
6.10229e-06
1.29186e-07
-1.38398e-07
5.49392e-06
4.95333e-08
-4.85692e-08
4.77828e-06
-3.71999e-08
4.06741e-06
2.10199e-08
-1.07551e-07
-6.34722e-07
-4.19488e-07
5.7509e-06
5.50669e-07
3.59135e-07
-5.82409e-07
-7.45513e-07
6.11287e-06
6.04529e-07
-4.03147e-07
-1.0338e-06
6.23398e-06
8.24435e-07
-2.05881e-07
-1.11075e-06
5.98001e-06
9.05689e-07
-1.51908e-07
-9.0294e-07
5.42704e-06
8.27515e-07
-1.5873e-07
-7.82989e-07
4.75199e-06
7.59464e-07
-7.11366e-07
4.04967e-06
-1.78601e-07
7.14416e-07
-7.84781e-07
-3.93422e-07
6.48033e-06
6.78833e-07
-6.77738e-07
-7.19091e-07
7.10878e-06
-3.51921e-07
-1.0048e-06
7.48636e-06
-8.31259e-10
-1.10027e-06
7.09416e-06
9.91411e-08
-8.77496e-07
6.16835e-06
4.92105e-08
-7.20566e-07
5.24189e-06
-6.39478e-07
4.3774e-06
-2.58827e-08
-1.02393e-06
-1.85248e-07
7.1754e-06
8.83069e-07
-7.77275e-07
-2.26569e-07
8.5664e-06
-3.04162e-07
-2.61454e-07
1.0194e-05
3.29673e-07
-5.09168e-07
9.2953e-06
4.55733e-07
-5.33539e-07
6.99004e-06
2.93101e-07
-4.83972e-07
5.66577e-06
-4.7957e-07
4.6374e-06
1.4648e-07
-1.13064e-06
7.52219e-08
7.56395e-06
9.94208e-07
-5.38535e-07
1.12578e-07
9.83822e-06
-2.4517e-08
1.86965e-07
1.28337e-05
4.99242e-07
1.01019e-07
1.13235e-05
6.54473e-07
4.98509e-09
7.57243e-06
4.33414e-07
-1.52379e-07
5.87112e-06
-2.70617e-07
4.74981e-06
2.48978e-07
-1.1051e-06
2.6668e-07
7.26935e-06
9.44549e-07
-8.39128e-07
5.3473e-07
8.75738e-06
-1.86616e-07
6.88464e-07
1.0783e-05
4.40788e-07
6.23883e-07
9.64098e-06
5.28346e-07
3.61402e-07
7.0916e-06
3.71948e-07
7.5042e-08
5.71426e-06
-1.07093e-07
4.6641e-06
2.27094e-07
-8.36361e-07
2.48544e-07
6.62806e-06
7.67215e-07
-6.89642e-07
5.09128e-07
7.3152e-06
-3.01735e-07
6.91767e-07
7.80104e-06
8.61965e-08
6.24349e-07
7.35067e-06
2.33331e-07
3.48045e-07
6.27674e-06
2.01434e-07
1.27926e-07
5.30035e-06
-3.40187e-08
4.41728e-06
1.34854e-07
-6.7277e-07
5.90184e-06
6.5415e-07
1.37049e-07
-5.65629e-07
6.26418e-06
3.30758e-07
-3.34017e-07
6.37428e-06
4.52625e-07
-1.09313e-07
6.08151e-06
4.20362e-07
2.3633e-09
5.48841e-06
2.41839e-07
5.85184e-08
4.78094e-06
6.8934e-08
4.05614e-06
6.82152e-08
-3.25715e-08
-5.66598e-07
-2.8411e-07
5.93141e-06
4.4439e-07
2.2616e-07
-5.98547e-07
-5.16896e-07
6.2693e-06
3.92102e-07
-5.07844e-07
-7.74295e-07
6.3392e-06
5.78016e-07
-3.89867e-07
-8.51609e-07
6.05043e-06
6.62557e-07
-3.52075e-07
-7.28044e-07
5.4781e-06
6.39057e-07
-3.30635e-07
-6.64588e-07
4.77361e-06
6.21635e-07
-6.2691e-07
4.03921e-06
-3.04339e-07
6.10904e-07
-6.81371e-07
-3.17498e-07
6.66563e-06
5.28762e-07
-6.87674e-07
-5.8274e-07
7.18013e-06
-4.41153e-07
-9.24625e-07
7.3895e-06
-1.91688e-07
-1.01135e-06
7.00367e-06
-1.69318e-07
-7.62634e-07
6.17986e-06
-1.95235e-07
-6.55395e-07
5.25785e-06
-5.98816e-07
4.36631e-06
-2.12019e-07
-8.75954e-07
-2.39853e-07
7.29366e-06
6.79443e-07
-7.80786e-07
-3.30744e-07
8.21877e-06
-3.45562e-07
-3.11292e-07
9.14567e-06
1.29958e-07
-6.35429e-07
8.44316e-06
1.29261e-07
-6.09914e-07
6.83765e-06
-6.4303e-09
-5.15103e-07
5.66045e-06
-5.02111e-07
4.61968e-06
-8.54915e-08
-1.04586e-06
-4.52244e-08
7.62096e-06
7.93582e-07
-6.51791e-07
2.39555e-08
9.08883e-06
1.55062e-07
-9.66404e-09
1.17256e-05
6.03571e-07
3.2865e-08
1.02044e-05
3.97845e-07
-5.16105e-08
7.21927e-06
1.47678e-07
-2.37201e-07
5.84326e-06
-3.36278e-07
4.72276e-06
8.78722e-09
-9.6356e-07
3.99983e-08
7.38687e-06
7.6078e-07
-8.38664e-07
2.74857e-07
8.38033e-06
-2.48021e-07
4.97657e-07
9.68442e-06
2.34901e-07
4.32547e-07
8.75744e-06
2.14179e-07
1.52378e-07
6.90824e-06
7.9914e-08
-8.13779e-08
5.69273e-06
-2.15213e-07
4.63024e-06
-7.25981e-09
-7.40173e-07
-3.59635e-08
6.80525e-06
6.38937e-07
-6.98003e-07
1.73255e-07
7.37251e-06
-3.8295e-07
3.45476e-07
7.63743e-06
-9.87038e-08
3.09473e-07
7.18901e-06
-3.00651e-08
1.08287e-07
6.25231e-06
-4.3516e-08
-5.79991e-08
5.29037e-06
-1.64133e-07
4.38265e-06
-6.02508e-08
-6.32288e-07
6.05017e-06
5.80506e-07
-1.3315e-07
-5.90627e-07
6.38819e-06
7.34831e-09
-4.32986e-07
6.43917e-06
1.22732e-07
-2.71421e-07
6.10999e-06
1.19057e-07
-1.81257e-07
5.49809e-06
8.15205e-09
-1.13817e-07
4.76007e-06
-1.05122e-07
3.98816e-06
-6.92092e-08
-1.41267e-07
-3.61751e-07
1.07153e-07
6.07564e-06
1.91225e-07
-8.11836e-08
-5.41378e-07
9.39612e-08
6.42997e-06
-7.56887e-08
-6.53095e-07
-4.2866e-08
6.46672e-06
2.64856e-08
-6.78732e-07
-1.91856e-07
6.11993e-06
1.4738e-07
-6.59483e-07
-2.75303e-07
5.48279e-06
2.51136e-07
-5.86518e-07
-3.7472e-07
4.72593e-06
3.49258e-07
-4.30754e-07
3.96607e-06
-4.78519e-07
3.95591e-07
-3.1896e-07
4.44165e-08
6.91582e-06
1.30757e-07
-5.40204e-07
3.15063e-08
7.46326e-06
-6.51507e-07
-1.54396e-07
7.61168e-06
-6.90147e-07
-3.12534e-07
7.16225e-06
-6.71738e-07
-3.44791e-07
6.23052e-06
-5.93747e-07
-4.15565e-07
5.21985e-06
-4.52782e-07
4.28319e-06
-4.89363e-07
-3.0285e-07
-1.04909e-07
7.64721e-06
9.8331e-08
-5.15451e-07
-9.69877e-08
8.55939e-06
-6.16911e-07
-1.45518e-07
9.23799e-06
-5.8517e-07
-4.46127e-07
8.54426e-06
-5.88962e-07
-4.31779e-07
6.92798e-06
-5.43818e-07
-4.34099e-07
5.63316e-06
-4.52047e-07
4.5293e-06
-4.54654e-07
-3.41774e-07
-2.56948e-07
7.99588e-06
1.18614e-07
-4.65429e-07
-2.28522e-07
9.3431e-06
-2.12566e-07
-3.35366e-07
1.16623e-05
-2.21161e-07
-1.99897e-07
9.96534e-06
-4.32202e-07
-2.62726e-07
7.26007e-06
-4.60733e-07
-3.70915e-07
5.80798e-06
-4.10793e-07
4.6224e-06
-4.02047e-07
-3.7999e-07
-4.4973e-07
7.78945e-06
1.70013e-07
-5.7131e-07
-3.87149e-07
8.72932e-06
-5.72187e-07
-3.32772e-07
9.68168e-06
-5.35917e-07
-3.05958e-07
8.82588e-06
-5.21224e-07
-3.34848e-07
6.96507e-06
-4.72645e-07
-3.68932e-07
5.64179e-06
-3.85787e-07
4.51877e-06
-3.8643e-07
-3.46956e-07
-5.83987e-07
7.06317e-06
2.23057e-07
-5.39036e-07
-5.8992e-07
7.7663e-06
-6.14847e-07
-5.06017e-07
7.88545e-06
-6.17262e-07
-4.34055e-07
7.31863e-06
-5.63276e-07
-3.99987e-07
6.26317e-06
-4.81395e-07
-3.74008e-07
5.21331e-06
-3.73012e-07
4.25491e-06
-3.66734e-07
-4.27613e-07
6.14504e-06
3.35423e-07
-5.87376e-07
-5.35898e-07
6.50447e-06
-5.98492e-07
-5.86392e-07
6.51776e-06
-5.34494e-07
-5.669e-07
6.11979e-06
-4.63768e-07
-5.06904e-07
5.44096e-06
-4.03208e-07
-4.0962e-07
4.65084e-06
-3.62443e-07
3.83054e-06
-2.98602e-07
-3.26884e-07
-1.70438e-07
5.24602e-07
6.10836e-06
-3.765e-08
-3.49665e-07
-4.89369e-07
7.41195e-07
6.50317e-06
-4.95576e-07
-7.76453e-07
6.90492e-07
6.52217e-06
-4.5883e-07
-9.0923e-07
4.37618e-07
6.09442e-06
-2.79765e-07
-8.71974e-07
1.27092e-07
5.37627e-06
-5.81679e-08
-7.34514e-07
-1.34008e-07
4.5842e-06
1.37581e-07
-2.71632e-07
3.83354e-06
-5.6127e-07
2.30334e-07
5.01212e-08
4.8974e-07
7.17817e-06
-2.77842e-07
-4.42657e-07
6.85387e-07
8.01192e-06
-9.32525e-07
6.00055e-07
8.19131e-06
-1.18194e-06
3.65213e-07
7.48334e-06
-1.09329e-06
6.19588e-08
6.20692e-06
-8.72289e-07
-1.99786e-07
5.06397e-06
-3.23452e-07
4.11305e-06
-6.51596e-07
2.16774e-07
7.01513e-08
8.38316e-06
-5.32758e-07
-4.5272e-07
1.20065e-07
9.79329e-06
-1.08257e-06
1.48458e-07
1.03184e-05
-1.35867e-06
-9.68379e-08
9.28172e-06
-1.23919e-06
-2.19283e-07
7.08948e-06
-9.49346e-07
-3.41515e-07
5.48486e-06
-3.90336e-07
4.33604e-06
-6.89891e-07
2.36134e-07
-5.25521e-07
8.98024e-06
-6.24616e-07
-3.95067e-07
-4.38099e-07
1.05314e-05
-8.30227e-07
-6.3164e-07
1.2876e-05
-1.21731e-06
-5.3379e-07
1.0789e-05
-1.20873e-06
-4.9472e-07
7.52584e-06
-9.25822e-07
-4.71645e-07
5.65436e-06
-4.41325e-07
4.41609e-06
-6.69309e-07
1.91693e-07
-1.03994e-06
8.61148e-06
-4.99875e-07
-6.03937e-07
-1.22612e-06
1.03123e-05
-1.11022e-06
-1.17975e-06
1.07351e-05
-1.31765e-06
-1.00794e-06
9.50604e-06
-1.16068e-06
-7.72995e-07
7.08532e-06
-8.7413e-07
-5.85169e-07
5.46781e-06
-4.79366e-07
4.30925e-06
-6.27232e-07
7.3392e-08
-1.15415e-06
7.32083e-06
-2.17406e-07
-4.41283e-07
-1.3956e-06
8.45099e-06
-9.52266e-07
-1.33265e-06
8.5488e-06
-1.12019e-06
-1.09989e-06
7.57739e-06
-9.86361e-07
-8.22422e-07
6.17791e-06
-7.57598e-07
-6.05587e-07
5.00435e-06
-4.65496e-07
4.02734e-06
-5.44235e-07
-2.35557e-07
6.09398e-06
1.0374e-07
-9.71288e-07
-5.04608e-07
6.50596e-06
-1.129e-06
-7.50873e-07
6.51405e-06
-1.08317e-06
-8.25649e-07
6.01874e-06
-9.24612e-07
-7.42917e-07
5.25464e-06
-7.19262e-07
-5.94202e-07
4.43282e-06
-5.36364e-07
3.59804e-06
-4.19183e-07
-4.08148e-07
-1.72459e-07
4.45653e-07
6.02375e-06
1.60635e-08
-2.04776e-07
-4.69289e-07
7.49259e-07
6.42029e-06
-3.69265e-07
-7.41428e-07
7.32925e-07
6.42081e-06
-3.59143e-07
-8.34306e-07
4.43059e-07
5.92761e-06
-1.83505e-07
-7.44283e-07
7.67713e-08
5.17877e-06
3.05685e-08
-5.84789e-07
-1.75109e-07
4.41005e-06
1.88921e-07
-2.79587e-07
3.70553e-06
-4.16849e-07
2.38901e-07
8.32465e-08
5.38986e-07
7.2411e-06
-2.39317e-07
-4.67342e-07
9.00398e-07
8.41172e-06
-1.07046e-06
8.79804e-07
8.64699e-06
-1.23259e-06
5.33136e-07
7.55426e-06
-9.98148e-07
6.79052e-08
5.98139e-06
-7.19879e-07
-2.06708e-07
4.81742e-06
-3.20071e-07
3.92766e-06
-4.95224e-07
3.57455e-07
9.09079e-08
9.05284e-06
-5.78054e-07
-6.15903e-07
2.53094e-07
1.14124e-05
-1.51381e-06
3.67137e-08
1.20571e-05
-1.61898e-06
-1.18605e-07
1.00376e-05
-1.2307e-06
-2.03715e-07
6.97245e-06
-8.08649e-07
-3.35947e-07
5.19225e-06
-3.74943e-07
4.107e-06
-5.25318e-07
4.30649e-07
-8.33519e-07
1.02288e-05
-7.54079e-07
-8.41444e-07
-1.06663e-06
1.3121e-05
-1.39972e-06
-8.52192e-07
1.43211e-05
-1.61172e-06
-6.274e-07
1.15085e-05
-1.22942e-06
-5.6945e-07
7.50801e-06
-7.91641e-07
-4.66395e-07
5.34624e-06
-4.15122e-07
4.16831e-06
-5.04448e-07
3.44772e-07