/*--------------------------------*- C++ -*----------------------------------*\
| =========                 |                                                 |
| \\      /  F ield         | OpenFOAM: The Open Source CFD Toolbox           |
|  \\    /   O peration     | Version:  plus.master.MPPICInterFoam            |
|   \\  /    A nd           | Web:      www.OpenFOAM.com                      |
|    \\/     M anipulation  |                                                 |
\*---------------------------------------------------------------------------*/
FoamFile
{
    version     2.0;
    format      ascii;
    class       volScalarField;
    location    "3.6";
    object      epsilon;
}
// * * * * * * * * * * * * * * * * * * * * * * * * * * * * * * * * * * * * * //

dimensions      [0 2 -3 0 0 0 0];

internalField   nonuniform List<scalar> 
11821
(
0.376836
0.459286
0.31542
0.446932
0.33572
0.248561
0.214295
0.277732
0.330611
0.332696
0.291279
0.24178
0.196928
0.29682
0.412228
0.518414
0.513401
0.420269
0.322425
0.247102
0.400629
0.574517
0.635188
0.645176
0.575105
0.420656
0.299618
0.486591
0.639541
0.638517
0.664369
0.639964
0.501254
0.337489
0.459702
0.654187
0.709514
0.712736
0.659255
0.479712
0.329213
0.361745
0.52187
0.663348
0.664599
0.532453
0.390612
0.287815
0.269026
0.361836
0.445805
0.448749
0.37887
0.302329
0.237426
0.197682
0.243539
0.279219
0.285402
0.264719
0.233702
0.198897
0.25521
0.330165
0.395617
0.399334
0.350624
0.293315
0.241562
0.320362
0.44098
0.535922
0.538959
0.459518
0.359393
0.281416
0.373415
0.533575
0.532053
0.560637
0.547367
0.412957
0.308928
0.360408
0.511738
0.556408
0.564567
0.535437
0.402694
0.30611
0.306185
0.413017
0.518524
0.523731
0.437933
0.350053
0.27857
0.245303
0.312343
0.368678
0.376572
0.338576
0.288752
0.237498
0.196714
0.236304
0.265244
0.275057
0.265528
0.242665
0.209846
0.243339
0.297776
0.340815
0.351233
0.330539
0.295397
0.252874
0.288782
0.367187
0.434491
0.446435
0.403843
0.347212
0.289864
0.322657
0.426837
0.453516
0.456083
0.473433
0.386519
0.31424
0.32081
0.418985
0.492094
0.505227
0.464404
0.386042
0.314983
0.28991
0.366341
0.433302
0.44723
0.407837
0.351982
0.29202
0.243614
0.301202
0.345528
0.358734
0.338395
0.300047
0.250809
0.207845
0.250661
0.281807
0.295763
0.289981
0.266325
0.22795
0.25588
0.30921
0.350217
0.366765
0.357622
0.326198
0.279183
0.298415
0.368656
0.421973
0.438186
0.425746
0.384372
0.322573
0.329304
0.412847
0.490761
0.505148
0.481729
0.425742
0.35147
0.333373
0.421017
0.512381
0.531812
0.493132
0.431993
0.353863
0.307633
0.385651
0.448792
0.471607
0.451021
0.395987
0.326533
0.259862
0.323522
0.372538
0.394021
0.376604
0.334731
0.275443
0.225424
0.279124
0.319043
0.337911
0.331439
0.299645
0.248806
0.284533
0.350771
0.403017
0.431141
0.419352
0.378911
0.315142
0.335869
0.420062
0.484749
0.509079
0.507771
0.452787
0.373358
0.373932
0.471573
0.549343
0.586446
0.568837
0.510654
0.413385
0.381165
0.487137
0.576412
0.605052
0.588613
0.519075
0.416491
0.347792
0.445079
0.526951
0.559936
0.540059
0.471514
0.375936
0.28565
0.369042
0.43514
0.462812
0.4446
0.386537
0.304725
0.240674
0.309836
0.365509
0.390218
0.378588
0.331122
0.264462
0.315347
0.405552
0.470977
0.494926
0.496055
0.439023
0.347507
0.385274
0.465131
0.540918
0.5893
0.553161
0.525496
0.427827
0.433371
0.535472
0.595122
0.63786
0.617462
0.561669
0.48466
0.441144
0.569297
0.55053
0.630118
0.612072
0.596863
0.484605
0.390124
0.509396
0.604371
0.615727
0.590566
0.553617
0.418796
0.304041
0.415152
0.508305
0.541945
0.521085
0.431843
0.321128
0.246534
0.325396
0.398688
0.431578
0.41045
0.346231
0.270333
0.328031
0.442956
0.539854
0.565274
0.563819
0.475843
0.359992
0.413154
0.525014
0.545974
0.607566
0.609684
0.593027
0.454772
0.474037
0.568444
0.544001
0.653309
0.590599
0.648894
0.523896
0.472173
0.599917
0.580472
0.543115
0.641591
0.669554
0.511937
0.397764
0.550974
0.632537
0.638394
0.66077
0.591404
0.423478
0.297932
0.419549
0.541956
0.596943
0.548007
0.432811
0.3139
0.244641
0.32276
0.400334
0.440146
0.412833
0.344889
0.268916
0.321231
0.444412
0.577293
0.645133
0.597079
0.47768
0.354885
0.40364
0.568352
0.656059
0.647746
0.732657
0.62865
0.447219
0.464746
0.634665
0.636364
0.533412
0.75258
0.730237
0.51335
0.450647
0.639397
0.696606
0.690174
0.78312
0.713196
0.49007
0.368733
0.532487
0.680765
0.721017
0.713323
0.564595
0.395807
0.274787
0.384106
0.503583
0.566066
0.508665
0.398943
0.29206
0.241382
0.314201
0.383821
0.421154
0.397691
0.337048
0.26466
0.308842
0.423564
0.550623
0.627138
0.571612
0.45966
0.344317
0.375695
0.546669
0.699437
0.732564
0.75772
0.605343
0.423101
0.418718
0.629551
0.69605
0.647089
0.813051
0.724704
0.473921
0.398802
0.595216
0.719401
0.775036
0.800888
0.665135
0.444279
0.330414
0.474347
0.639216
0.734471
0.665814
0.508414
0.360194
0.250776
0.34088
0.43536
0.488784
0.44586
0.358218
0.268073
0.243083
0.31478
0.380626
0.414318
0.392672
0.334869
0.26167
0.305781
0.413694
0.530605
0.593789
0.549463
0.449635
0.338897
0.361021
0.516856
0.688383
0.751239
0.724878
0.575424
0.408426
0.388301
0.57299
0.703677
0.707708
0.799383
0.659485
0.443068
0.364842
0.529127
0.686052
0.744136
0.75921
0.594728
0.409628
0.305976
0.425966
0.563996
0.658639
0.588117
0.459015
0.333217
0.235384
0.312452
0.388123
0.429547
0.39771
0.327253
0.248521
0.248833
0.326388
0.395389
0.42747
0.401946
0.337437
0.25727
0.315241
0.422908
0.528145
0.592654
0.553662
0.455334
0.336319
0.367556
0.510705
0.679287
0.727551
0.702502
0.576267
0.404401
0.386325
0.554027
0.711111
0.703179
0.782906
0.637841
0.430248
0.357777
0.502908
0.647629
0.721607
0.711153
0.562682
0.391102
0.298419
0.406682
0.527395
0.609026
0.545937
0.431671
0.314247
0.22794
0.300144
0.367509
0.401771
0.371907
0.306596
0.231915
0.249016
0.333185
0.412985
0.438251
0.404563
0.328942
0.244854
0.323626
0.432491
0.517048
0.557303
0.539213
0.452103
0.322864
0.384971
0.503746
0.555409
0.696625
0.639595
0.575893
0.393132
0.397772
0.525229
0.669402
0.673242
0.757111
0.62082
0.416417
0.364251
0.48667
0.609167
0.686657
0.672838
0.54442
0.371219
0.294786
0.401565
0.51229
0.583741
0.520255
0.40736
0.291357
0.220379
0.291185
0.359215
0.389156
0.35236
0.28433
0.213738
0.239904
0.321235
0.404829
0.433846
0.3837
0.302854
0.225582
0.314884
0.430034
0.509515
0.547627
0.531416
0.418569
0.29413
0.383317
0.494756
0.523877
0.59943
0.631272
0.543469
0.358099
0.399823
0.510411
0.564117
0.609238
0.695494
0.586227
0.377928
0.354554
0.486249
0.537944
0.627252
0.619404
0.49113
0.331189
0.278478
0.381125
0.499386
0.556636
0.470022
0.360221
0.259971
0.20782
0.270566
0.333549
0.357601
0.316676
0.254514
0.195041
0.224681
0.291853
0.360316
0.381912
0.335482
0.269091
0.206043
0.288448
0.392957
0.495423
0.517273
0.464286
0.359934
0.260267
0.347925
0.483565
0.518179
0.565388
0.573572
0.453897
0.3075
0.362227
0.493363
0.504614
0.592319
0.61037
0.481029
0.319881
0.315696
0.433455
0.509927
0.549325
0.516884
0.40276
0.284144
0.252185
0.332912
0.422343
0.456235
0.388368
0.307016
0.231148
0.193577
0.242528
0.288141
0.303559
0.27297
0.226711
0.180288
0.213738
0.266465
0.313631
0.328465
0.295933
0.2446
0.192649
0.264877
0.348382
0.431629
0.456224
0.402656
0.315084
0.236814
0.306678
0.420904
0.457833
0.498345
0.508599
0.378341
0.271259
0.315416
0.434858
0.446656
0.525825
0.529688
0.391942
0.278551
0.281863
0.376934
0.465571
0.486795
0.438045
0.340977
0.253538
0.233517
0.29578
0.354656
0.373057
0.333355
0.272574
0.213589
0.184938
0.223622
0.255154
0.264486
0.24461
0.209833
0.172087
0.214237
0.259614
0.294264
0.302847
0.277722
0.234094
0.186373
0.260079
0.326964
0.386268
0.405039
0.363217
0.293937
0.226603
0.293656
0.382992
0.436629
0.449891
0.442888
0.341148
0.255461
0.298433
0.391258
0.424013
0.45763
0.458663
0.349824
0.26099
0.27133
0.346414
0.41445
0.436101
0.390698
0.312913
0.240748
0.230177
0.281739
0.324664
0.336517
0.307438
0.25823
0.206539
0.185043
0.219618
0.24483
0.25085
0.234352
0.203997
0.168985
0.0552716
0.0845512
0.132773
0.102329
0.0795028
0.0634932
0.0561412
0.0823021
0.262238
0.190081
0.142523
0.10823
0.0828133
0.0650409
0.0564699
0.0814947
0.255787
0.187638
0.141292
0.107298
0.0819587
0.0642825
0.0559023
0.0817359
0.224408
0.170093
0.130546
0.100346
0.0774921
0.0616325
0.054749
0.0832782
0.185929
0.147028
0.115823
0.090831
0.0716507
0.0585362
0.0539672
0.086723
0.156589
0.12825
0.104363
0.0846454
0.0692744
0.0588175
0.0561001
0.0900676
0.190277
0.151121
0.119896
0.0947786
0.0753008
0.0616997
0.0563247
0.0855283
0.222966
0.173179
0.134801
0.104463
0.0810482
0.0645662
0.0569996
0.083064
0.244167
0.186747
0.143721
0.109992
0.0841094
0.065927
0.0572163
0.0821802
0.240464
0.184954
0.142384
0.108748
0.0829752
0.0649864
0.0565657
0.0824997
0.216558
0.16946
0.131747
0.101429
0.0781774
0.0621402
0.0553342
0.0841568
0.183547
0.147566
0.116781
0.0914658
0.0720098
0.0588604
0.0544768
0.0876505
0.16063
0.132135
0.107302
0.0866975
0.0707116
0.0599159
0.0571406
0.091491
0.192879
0.155309
0.123371
0.0971214
0.0768029
0.0627465
0.0572576
0.0867616
0.221875
0.176785
0.138459
0.106907
0.082521
0.0655387
0.0578728
0.0842047
0.239907
0.189685
0.147173
0.112288
0.0854483
0.0668132
0.0580713
0.0833521
0.238045
0.188075
0.145502
0.110653
0.0840753
0.065748
0.0573908
0.0837399
0.217914
0.172872
0.134225
0.102742
0.0788993
0.0627016
0.0560841
0.0854508
0.186463
0.15021
0.11832
0.0921512
0.0723354
0.0592157
0.0551422
0.0889974
0.168681
0.137583
0.110688
0.0887353
0.0719824
0.0608118
0.0579918
0.0928402
0.203282
0.162809
0.12791
0.0996661
0.0782287
0.0636467
0.0580491
0.0880002
0.233636
0.185902
0.143955
0.109802
0.0840651
0.0664797
0.0587151
0.0855562
0.252003
0.199604
0.15312
0.115321
0.0870144
0.0677631
0.0589708
0.0848813
0.250882
0.197745
0.150959
0.113465
0.0854147
0.066587
0.0582847
0.0853844
0.229914
0.180568
0.138207
0.104661
0.0797709
0.0633274
0.0569139
0.0871425
0.195187
0.155175
0.120611
0.0930448
0.0727344
0.0596396
0.0559269
0.0908141
0.179287
0.143688
0.114008
0.0905223
0.0729346
0.0613529
0.0584357
0.0938859
0.219901
0.172096
0.132551
0.10194
0.0793368
0.0642058
0.0584513
0.0889222
0.256007
0.198793
0.150206
0.112768
0.0853793
0.0671136
0.059182
0.0866576
0.278216
0.214578
0.160234
0.118509
0.0883284
0.0684139
0.0595228
0.0861929
0.276776
0.211899
0.157285
0.115885
0.0864037
0.0671338
0.0588782
0.0868643
0.250322
0.190874
0.142463
0.106107
0.0803252
0.0637195
0.0575046
0.0887343
0.207825
0.16112
0.122823
0.0937013
0.0729751
0.0599419
0.0565698
0.092645
0.189625
0.148893
0.116587
0.0917886
0.0734958
0.0615211
0.0584116
0.0945107
0.238077
0.18054
0.136311
0.103547
0.0799355
0.064336
0.0583845
0.0894639
0.283751
0.211565
0.155382
0.114649
0.0859866
0.0672248
0.0591159
0.0873319
0.312853
0.230347
0.166205
0.120461
0.088919
0.0685431
0.0595336
0.0870685
0.309893
0.226217
0.162323
0.117435
0.0867705
0.0672081
0.0589578
0.0878953
0.273552
0.200113
0.145345
0.106842
0.0804184
0.0637584
0.0576822
0.0899815
0.219912
0.165523
0.123926
0.0938037
0.0729534
0.0600517
0.0569271
0.0942508
0.197077
0.152599
0.118477
0.0927077
0.0738484
0.0615114
0.05817
0.0948282
0.251653
0.186024
0.138535
0.104433
0.0801847
0.0642407
0.0580934
0.0897679
0.306176
0.219775
0.158192
0.115504
0.0860913
0.0670104
0.0587503
0.0876417
0.341828
0.240283
0.169151
0.121233
0.0888891
0.0682603
0.0591558
0.0874537
0.335356
0.23412
0.164293
0.117681
0.086538
0.0669244
0.0586796
0.0884374
0.287631
0.203701
0.145762
0.106483
0.0800953
0.063598
0.0576426
0.090898
0.224647
0.166043
0.123439
0.0933741
0.0728084
0.0601419
0.0571937
0.0957162
0.200572
0.154701
0.119732
0.0933386
0.0740519
0.0615012
0.058101
0.095197
0.256331
0.188102
0.139759
0.104917
0.080207
0.0640696
0.0578872
0.0899462
0.313514
0.221808
0.158699
0.11548
0.085785
0.066594
0.0583458
0.0874035
0.350553
0.241618
0.168871
0.120487
0.0881452
0.0676405
0.0586487
0.0869908
0.339462
0.233213
0.162955
0.116515
0.0856988
0.0663605
0.0582842
0.0880194
0.285315
0.200651
0.143617
0.105299
0.0794906
0.0633356
0.0575747
0.0908924
0.220052
0.162584
0.12138
0.0923851
0.0724763
0.0602226
0.0575097
0.0963892
0.199953
0.15456
0.119575
0.0929071
0.0736606
0.0613176
0.0582336
0.0956685
0.253251
0.186715
0.138751
0.103951
0.079429
0.0635661
0.0577168
0.0898714
0.30653
0.217708
0.156603
0.113911
0.0845375
0.065736
0.0578776
0.0867336
0.339083
0.234489
0.164901
0.118071
0.0865194
0.0665761
0.0580514
0.0860347
0.323561
0.223879
0.157964
0.113615
0.0839606
0.065362
0.0578055
0.087069
0.269321
0.19157
0.139024
0.102546
0.0780072
0.0626841
0.0574383
0.0902515
0.207775
0.155222
0.117374
0.09012
0.0714843
0.0600309
0.0577671
0.0962376
0.196966
0.152319
0.117615
0.0914108
0.0726982
0.0609097
0.058416
0.0967652
0.247174
0.182775
0.135828
0.101694
0.0778624
0.062689
0.0574746
0.0901913
0.29386
0.210713
0.152013
0.11051
0.0822785
0.0644316
0.057325
0.0865251
0.31847
0.223264
0.158447
0.113672
0.0837768
0.0650493
0.0573785
0.0854945
0.299675
0.210703
0.150311
0.108929
0.0812644
0.0639934
0.0573033
0.086538
0.249221
0.179744
0.131722
0.0984237
0.0758751
0.0618039
0.057335
0.0899654
0.193009
0.145805
0.111504
0.086982
0.0700554
0.0596778
0.0580621
0.0960981
0.192953
0.148379
0.114366
0.0891062
0.0712971
0.0602359
0.058372
0.0978155
0.241739
0.177595
0.131394
0.0984179
0.075757
0.0615035
0.0569805
0.0904676
0.284616
0.203298
0.145964
0.106256
0.0795761
0.0628873
0.0565695
0.0864023
0.302774
0.212753
0.150877
0.108751
0.0807805
0.0633982
0.0565857
0.0852241
0.280773
0.198707
0.142405
0.103996
0.0784484
0.0625644
0.0567203
0.0863387
0.232611
0.168752
0.124915
0.0943868
0.0737601
0.0609138
0.057194
0.0901133
0.179979
0.137064
0.106154
0.0840491
0.0687295
0.0593815
0.058444
0.0967006
0.1871
0.143115
0.110316
0.0864976
0.0697533
0.0593859
0.0579988
0.0985345
0.234881
0.170607
0.125787
0.094723
0.073519
0.0601727
0.0561726
0.0903961
0.276536
0.194743
0.139132
0.101726
0.0768285
0.0612532
0.0555357
0.0859268
0.290849
0.202564
0.143137
0.10378
0.0778526
0.0617104
0.0555371
0.0845892
0.266282
0.187509
0.134638
0.0992987
0.0758221
0.0611415
0.055895
0.0858123
0.218355
0.158675
0.118359
0.0906775
0.0718569
0.060023
0.0568061
0.0900284
0.168616
0.129524
0.101569
0.0816252
0.0676778
0.0591033
0.0585872
0.0973256
0.178228
0.136919
0.10642
0.0841835
0.0683527
0.0584781
0.057335
0.0986409
0.222925
0.162005
0.120243
0.0914543
0.0715372
0.0588754
0.0551815
0.0898489
0.262344
0.183849
0.132141
0.0975981
0.074387
0.0597077
0.0543769
0.0850277
0.274482
0.1904
0.13536
0.0992874
0.0752682
0.0601337
0.054373
0.0835176
0.248949
0.175689
0.12753
0.0953426
0.073628
0.0598377
0.054928
0.0848691
0.203065
0.149424
0.112973
0.0878715
0.0703834
0.0591983
0.056196
0.0894594
0.158044
0.123396
0.0983065
0.0800645
0.0670179
0.058848
0.0584351
0.097417
0.167438
0.130655
0.102849
0.0819961
0.0668696
0.0573596
0.0563265
0.0971502
0.206286
0.152489
0.114993
0.0883669
0.0695499
0.0574688
0.0540074
0.0881743
0.240117
0.171093
0.125174
0.0937065
0.0720432
0.058143
0.0531307
0.08322
0.249966
0.175921
0.127734
0.0951675
0.0728938
0.0585948
0.053156
0.081649
0.226121
0.1633
0.121079
0.0919174
0.0716599
0.0585596
0.053888
0.0831951
0.186733
0.140978
0.108716
0.0856583
0.0691036
0.0583424
0.055446
0.08816
0.148859
0.118684
0.0960294
0.079039
0.0664699
0.0584767
0.0580416
0.0966039
0.156936
0.124589
0.0991493
0.0794748
0.0650387
0.0559685
0.055129
0.0949313
0.188968
0.143329
0.109863
0.0851326
0.0673545
0.0558966
0.0527418
0.0860426
0.215354
0.15859
0.118573
0.0898727
0.0696113
0.056484
0.0518424
0.081092
0.222095
0.162084
0.120763
0.0912729
0.0705086
0.0569931
0.0519134
0.0795927
0.203591
0.152214
0.115435
0.088751
0.0696822
0.0571897
0.052775
0.0813026
0.172883
0.134069
0.105241
0.0836169
0.0677337
0.0573104
0.0545232
0.0864617
0.141501
0.115205
0.0944029
0.0780329
0.0657014
0.0578104
0.0573457
0.095062
0.149247
0.119684
0.0956489
0.0768672
0.0630993
0.0545276
0.053974
0.0930043
0.176795
0.136402
0.105421
0.0820618
0.0651806
0.0543375
0.0515332
0.0842055
0.198039
0.149482
0.113223
0.0864419
0.067296
0.0548662
0.0506136
0.0793381
0.202798
0.152661
0.115425
0.0879432
0.0682798
0.0554223
0.050699
0.0779178
0.188796
0.144571
0.111082
0.0859713
0.067758
0.0557676
0.0516162
0.079685
0.163849
0.12927
0.102395
0.0816275
0.066229
0.0560993
0.0534517
0.0848529
0.137072
0.112709
0.0927612
0.0767307
0.0645986
0.0568379
0.0564093
0.0934495
0.144589
0.115881
0.0925932
0.0745187
0.0613555
0.0532436
0.0529704
0.0915441
0.170569
0.131803
0.101917
0.0794389
0.0632675
0.0529386
0.0504392
0.0827154
0.189775
0.144132
0.109413
0.0836671
0.0652902
0.0533974
0.0494582
0.0778415
0.194165
0.147377
0.111731
0.0852642
0.066317
0.0539467
0.0495002
0.0763901
0.182105
0.140263
0.107974
0.0836294
0.0659589
0.0543352
0.0503792
0.0780673
0.159886
0.126378
0.100089
0.0797396
0.0646649
0.0547574
0.0522061
0.0831092
0.134885
0.110988
0.091182
0.0752839
0.063292
0.0556347
0.0552184
0.0916107
0.192225
0.144516
0.107703
0.0800863
0.0605685
0.0484103
0.0450523
0.0759931
0.244901
0.174048
0.124241
0.0888981
0.0646397
0.0495909
0.0442245
0.0713183
0.294698
0.200181
0.138226
0.0962458
0.0682177
0.0510172
0.0443087
0.0692566
0.307561
0.205505
0.140357
0.0972085
0.0687185
0.0513346
0.0445226
0.0691351
0.263704
0.181808
0.127369
0.0902798
0.0654429
0.0501898
0.0446447
0.0706872
0.206318
0.148984
0.108719
0.0802607
0.060717
0.0486432
0.0451679
0.0744409
0.157263
0.120355
0.0924281
0.0716691
0.056982
0.0479944
0.0468616
0.0810493
0.181777
0.140042
0.105797
0.0794499
0.0607621
0.0492902
0.0466637
0.0790531
0.221619
0.164851
0.120853
0.0878693
0.0648195
0.0505966
0.0459758
0.0745696
0.252749
0.183775
0.132371
0.0945115
0.0682904
0.0520933
0.0461769
0.0726305
0.258346
0.186128
0.133571
0.0952971
0.0688656
0.0525315
0.0465022
0.0726395
0.229228
0.168459
0.122971
0.0894467
0.0661197
0.0516532
0.0467687
0.0743972
0.189002
0.142757
0.10722
0.080667
0.0619625
0.0503816
0.0474356
0.0783731
0.150636
0.118549
0.0927123
0.0728327
0.0585752
0.0498984
0.0492318
0.0851948
0.182183
0.140738
0.106211
0.0798825
0.0615181
0.050529
0.0485785
0.0828397
0.218047
0.164924
0.12148
0.0885581
0.0657873
0.0519706
0.0479666
0.078382
0.241059
0.181547
0.132556
0.0952324
0.0693667
0.0535964
0.0482722
0.0765371
0.24231
0.182398
0.133434
0.0960453
0.0700942
0.0541727
0.0486992
0.0766528
0.219807
0.166925
0.123608
0.0906462
0.0676294
0.0534668
0.0490598
0.0784965
0.186678
0.143531
0.108739
0.0823301
0.0637358
0.0523335
0.0498025
0.0825776
0.15185
0.120458
0.09465
0.0747321
0.0604867
0.0519263
0.0516658
0.0895907
0.190452
0.144718
0.107968
0.0809369
0.0625802
0.0518626
0.0504633
0.086781
0.229976
0.171445
0.124474
0.0901664
0.0671117
0.0534509
0.0499171
0.0823243
0.253438
0.189448
0.136561
0.0973847
0.0709898
0.0552486
0.0503259
0.0806194
0.252817
0.190014
0.137642
0.0984882
0.0719363
0.0559823
0.0508511
0.0808603
0.229972
0.173851
0.127605
0.0931304
0.0696091
0.0553766
0.0512698
0.0827449
0.195771
0.149265
0.112237
0.084784
0.0658026
0.0543057
0.0520392
0.0868432
0.158716
0.124902
0.097694
0.077085
0.0625305
0.053896
0.053917
0.0939298
0.201244
0.149017
0.109623
0.0819137
0.0635798
0.0530351
0.0520059
0.0905725
0.24966
0.17973
0.127604
0.0916627
0.0683198
0.0547342
0.0515002
0.0860944
0.279924
0.201583
0.141358
0.0995461
0.0725105
0.0566921
0.051991
0.0845082
0.279319
0.202882
0.143112
0.101127
0.0737451
0.0575803
0.0526011
0.0848516
0.251796
0.184444
0.132493
0.0958472
0.0715696
0.0570761
0.0530539
0.0867094
0.210807
0.156797
0.116231
0.0873602
0.0677819
0.0560067
0.0538027
0.0907206
0.167869
0.130088
0.100935
0.0794471
0.0644533
0.0555559
0.0556235
0.0977335
0.2073
0.150614
0.110179
0.0825398
0.0644447
0.0540626
0.0532676
0.094231
0.265013
0.184378
0.12903
0.0925781
0.069312
0.0558228
0.0527772
0.0896964
0.305463
0.210425
0.144307
0.101046
0.0737766
0.0579179
0.0533232
0.0881981
0.307302
0.213444
0.147086
0.103159
0.0753058
0.0589539
0.0539915
0.0885901
0.273613
0.193081
0.136328
0.0981525
0.0733197
0.0585177
0.0544346
0.0903525
0.224132
0.162851
0.119589
0.0896791
0.0695785
0.0574456
0.0551141
0.0941804
0.175522
0.134504
0.103932
0.0817003
0.066169
0.0568746
0.0568033
0.100981
0.203745
0.148301
0.109333
0.0826385
0.065055
0.0549775
0.0544862
0.0973057
0.263759
0.182136
0.128033
0.0926269
0.0699425
0.0567582
0.0539873
0.0926815
0.311255
0.210251
0.143961
0.101424
0.0745911
0.0589233
0.0545187
0.0910134
0.317588
0.215547
0.147874
0.104174
0.0764375
0.0600871
0.055161
0.0912761
0.281507
0.19579
0.138049
0.0997036
0.074715
0.0597155
0.0555693
0.0929072
0.229203
0.165785
0.121913
0.0915947
0.0710646
0.0586008
0.0561284
0.0965153
0.179659
0.137649
0.106451
0.0836222
0.0675619
0.0578841
0.0576344
0.103012
0.191982
0.142191
0.106579
0.0817227
0.0651483
0.0556829
0.0557099
0.0997344
0.247141
0.17355
0.124216
0.0912958
0.0699045
0.057419
0.0551684
0.0949681
0.293771
0.200593
0.139724
0.100012
0.0745444
0.0595577
0.0556172
0.0929702
0.304474
0.208014
0.144694
0.103331
0.0766177
0.0607587
0.0561905
0.0929826
0.273222
0.191946
0.136956
0.0998337
0.0752952
0.0604755
0.0565002
0.0943946
0.226041
0.165255
0.122442
0.0923583
0.0718209
0.0593249
0.0569262
0.0977745
0.179944
0.138891
0.107763
0.0846122
0.0682732
0.0584676
0.05824
0.103936
0.179106
0.1353
0.103127
0.0803024
0.0649584
0.0562909
0.0570442
0.102517
0.227414
0.163682
0.119578
0.0894533
0.0695627
0.0579558
0.0564257
0.0975495
0.268146
0.188483
0.134332
0.0978753
0.0740657
0.0600097
0.0567552
0.0952058
0.28132
0.197425
0.140352
0.101663
0.0763052
0.0611826
0.0571956
0.0948776
0.259594
0.186162
0.13472
0.0990748
0.0752458
0.0609081
0.0574054
0.0960453
0.220527
0.163261
0.121812
0.0922166
0.0719526
0.0597232
0.0576855
0.0991397
0.178686
0.138689
0.107717
0.0845677
0.0683486
0.0587495
0.0588315
0.105015
0.170377
0.130224
0.100447
0.0792331
0.0649619
0.0570367
0.0585376
0.106205
0.215044
0.157144
0.116317
0.0881553
0.0694643
0.0586343
0.0578191
0.101001
0.253022
0.181301
0.130934
0.0965221
0.0739199
0.0606095
0.0580164
0.0983682
0.268806
0.191983
0.137855
0.10068
0.0762267
0.0617292
0.0583214
0.0976941
0.254085
0.183875
0.133534
0.0986137
0.0753303
0.0614292
0.0583947
0.098567
0.219618
0.162798
0.121347
0.0919759
0.0720197
0.0601243
0.0585118
0.101341
0.178853
0.138369
0.107176
0.0842135
0.0682702
0.0589934
0.0595221
0.107029
0.165544
0.127057
0.0989371
0.0789546
0.0654534
0.0580138
0.0600842
0.110579
0.210397
0.153955
0.114674
0.0877862
0.0699275
0.0595797
0.0592642
0.10505
0.25043
0.179222
0.129672
0.0962604
0.0743977
0.0615151
0.0593597
0.102182
0.269725
0.191916
0.137479
0.100721
0.076764
0.062585
0.0595293
0.101186
0.25858
0.185334
0.133835
0.0988923
0.0758971
0.06219
0.0594324
0.101687
0.223542
0.163777
0.121455
0.0921762
0.0724499
0.0607199
0.0593605
0.104105
0.180382
0.1384
0.106928
0.0841494
0.0684844
0.0594024
0.0602284
0.109667
0.161702
0.125119
0.098491
0.0794069
0.0663528
0.0591244
0.0615135
0.11464
0.207084
0.151866
0.11413
0.0882339
0.0708565
0.0607003
0.0606421
0.108901
0.251088
0.178441
0.129587
0.0969443
0.0754442
0.062667
0.0606683
0.105806
0.274348
0.193001
0.138212
0.101682
0.0779096
0.0637287
0.0607274
0.104532
0.263932
0.186774
0.134747
0.0999616
0.0769767
0.0631909
0.0604602
0.104703
0.225588
0.164212
0.122032
0.0929349
0.0732901
0.0615132
0.0601839
0.106795
0.180192
0.13806
0.107028
0.0845887
0.0690627
0.0599751
0.0608807
0.112241
0.156387
0.123076
0.098285
0.0800466
0.0673029
0.0601835
0.0627499
0.117491
0.199087
0.148532
0.113419
0.0887607
0.071829
0.0618001
0.0618902
0.111718
0.243236
0.174615
0.12868
0.0975083
0.0764979
0.0638059
0.0618984
0.108415
0.269952
0.190137
0.137638
0.102442
0.0790668
0.0648439
0.0618569
0.106824
0.259648
0.184389
0.134467
0.100772
0.0780574
0.0642154
0.0614463
0.106785
0.220645
0.16227
0.121914
0.093627
0.0741597
0.0623045
0.0609579
0.108626
0.176533
0.136817
0.107006
0.0851209
0.0696727
0.0605299
0.0614424
0.113818
0.150382
0.120908
0.0979355
0.0804341
0.0679866
0.0610453
0.0638343
0.119415
0.187505
0.144123
0.112326
0.0890219
0.0725441
0.0626961
0.0630034
0.113751
0.225223
0.167447
0.126645
0.0975375
0.0772119
0.0647267
0.0630213
0.110328
0.249833
0.181787
0.135114
0.102465
0.0797644
0.0657451
0.0629232
0.108477
0.241919
0.17743
0.132688
0.100867
0.0787338
0.0650277
0.0624036
0.108327
0.208853
0.157945
0.120909
0.0938362
0.0746882
0.0629261
0.0617206
0.109991
0.170172
0.134475
0.106514
0.0852524
0.0699761
0.0609069
0.0619675
0.11482
0.146919
0.119803
0.0978041
0.0807354
0.0685428
0.0618221
0.0649188
0.121218
0.179839
0.141624
0.111952
0.0893591
0.0731465
0.0634806
0.0640896
0.115728
0.211122
0.162584
0.125688
0.097831
0.0778553
0.065554
0.0641435
0.112359
0.230766
0.175192
0.133586
0.102642
0.0804321
0.0665802
0.064041
0.110458
0.225594
0.172129
0.1317
0.101168
0.0793511
0.0657962
0.0634641
0.110266
0.199637
0.155142
0.120555
0.094142
0.0751367
0.0635054
0.0626078
0.111799
0.165834
0.133013
0.106198
0.0852633
0.0701036
0.0612172
0.0626146
0.116252
0.147678
0.120554
0.0984106
0.0813279
0.0692605
0.062721
0.0661471
0.123506
0.180216
0.142857
0.113084
0.0902573
0.0739647
0.0643706
0.0652797
0.118191
0.209751
0.164046
0.127333
0.0991073
0.0788553
0.0665204
0.065383
0.115005
0.227642
0.176615
0.135685
0.104138
0.0815131
0.0676043
0.0653577
0.113288
0.224045
0.174105
0.133776
0.102679
0.0804329
0.066789
0.064746
0.113112
0.200532
0.157211
0.12225
0.0952525
0.0759367
0.064297
0.0637452
0.114498
0.167206
0.134297
0.106997
0.0856975
0.0704576
0.0617102
0.0635248
0.118616
0.156021
0.120258
0.0929892
0.0726351
0.0581556
0.049241
0.048099
0.0821949
0.193171
0.14262
0.107071
0.0815267
0.0635593
0.0521791
0.048992
0.0794011
0.22296
0.160984
0.119116
0.0895738
0.0688337
0.0554208
0.0506302
0.0787083
0.22759
0.165965
0.123755
0.0935291
0.0719603
0.057728
0.052202
0.0794646
0.208606
0.157307
0.120218
0.0925584
0.0722214
0.0585674
0.053334
0.0813313
0.181278
0.141848
0.111582
0.0880234
0.0702497
0.058206
0.0541361
0.0844247
0.152979
0.124821
0.101333
0.0821829
0.0674142
0.0574731
0.0551522
0.0891755
0.150247
0.118951
0.0936045
0.0739955
0.0598553
0.0511769
0.0504314
0.0861544
0.181214
0.139524
0.107331
0.0829445
0.0653384
0.0540948
0.0511666
0.0828521
0.205297
0.15658
0.119418
0.0912155
0.0707162
0.0573165
0.0526594
0.081686
0.212301
0.163161
0.125046
0.0956837
0.0740388
0.0596135
0.0540815
0.0820745
0.202036
0.158109
0.122888
0.0951697
0.0743819
0.0603606
0.0550154
0.083609
0.181946
0.14513
0.114876
0.0906276
0.0722207
0.0597658
0.0555726
0.0864391
0.156632
0.128529
0.104298
0.0843863
0.0690161
0.0587351
0.0563617
0.0909639
0.152078
0.121255
0.0958257
0.076082
0.0618517
0.0532064
0.0527974
0.0903511
0.182277
0.142385
0.110203
0.0853926
0.0674676
0.0560757
0.0533146
0.0864758
0.205503
0.160215
0.123034
0.0941008
0.0730112
0.0592674
0.0546199
0.0848468
0.214885
0.168388
0.129589
0.0990197
0.0764315
0.0614738
0.0558195
0.0847844
0.208762
0.164821
0.127869
0.0985296
0.076644
0.0620051
0.0564809
0.0858724
0.19068
0.151832
0.11937
0.0935439
0.0741237
0.0610991
0.056741
0.0883079
0.164388
0.13396
0.107798
0.0865806
0.0704423
0.0597693
0.0573504
0.0926565
0.159263
0.125953
0.0990338
0.0785071
0.0638876
0.0550854
0.0548604
0.0941857
0.192918
0.149331
0.114542
0.0883535
0.0696661
0.0578788
0.0551169
0.0897095
0.21942
0.169477
0.128685
0.0976268
0.0753545
0.0609943
0.0561842
0.087607
0.231535
0.179389
0.136088
0.102809
0.0787766
0.0630362
0.0571054
0.0870381
0.226076
0.175705
0.134129
0.102022
0.0786884
0.0632737
0.0574416
0.0876399
0.205469
0.160703
0.124406
0.0963308
0.0756898
0.0620059
0.0573917
0.0896817
0.174881
0.140174
0.111322
0.0885483
0.0715506
0.0604271
0.0578935
0.0940136
0.16854
0.131284
0.10235
0.0808678
0.0657085
0.0565638
0.0562977
0.0973365
0.208346
0.157597
0.119156
0.0911563
0.0715489
0.0592508
0.0562847
0.0922916
0.24119
0.181033
0.134737
0.100984
0.0773664
0.0622501
0.0570926
0.089709
0.25654
0.192555
0.142796
0.106314
0.0806818
0.0640815
0.0577281
0.0886764
0.249374
0.187802
0.140166
0.105125
0.0802762
0.0640036
0.0577437
0.0888358
0.22282
0.169596
0.128889
0.098623
0.07679
0.0624155
0.0574552
0.0905658
0.185464
0.145752
0.114234
0.0900521
0.0722709
0.0606851
0.05794
0.0949636
0.17641
0.135878
0.105378
0.0830244
0.067263
0.0576749
0.0571605
0.0997733
0.222497
0.164584
0.12312
0.0936681
0.0731799
0.0602396
0.0569019
0.0942223
0.263109
0.1913
0.139913
0.103863
0.0789974
0.0630922
0.0574647
0.0911989
0.281979
0.204397
0.148527
0.109298
0.0822086
0.0647101
0.0578401
0.0897982
0.271515
0.198154
0.14516
0.107661
0.0814365
0.0643313
0.0576024
0.0896551
0.237321
0.176594
0.132373
0.100353
0.0775031
0.0625072
0.0571997
0.0912182
0.19341
0.149966
0.116475
0.0912088
0.0727793
0.0607664
0.0577868
0.0957735
0.180997
0.139225
0.107964
0.0848974
0.0685248
0.0584976
0.0577441
0.101331
0.230211
0.169246
0.126306
0.0957745
0.0744217
0.0609185
0.0572558
0.095312
0.27615
0.197836
0.143774
0.106135
0.0801816
0.0635952
0.057591
0.091887
0.298248
0.21207
0.152636
0.111493
0.0832059
0.0649835
0.0577395
0.0902199
0.284596
0.204539
0.148616
0.109414
0.0820906
0.0643678
0.057352
0.0899612
0.245068
0.180794
0.134707
0.101475
0.0778301
0.0624345
0.0569921
0.0916293
0.19782
0.152598
0.118041
0.0921151
0.0731284
0.0608475
0.0578174
0.096618
0.181929
0.14077
0.109362
0.085856
0.0691433
0.0589486
0.0581936
0.102006
0.230608
0.170878
0.12776
0.0966698
0.0748759
0.0611524
0.057454
0.0955535
0.276493
0.199262
0.145181
0.106902
0.0804429
0.0635853
0.0575472
0.0917942
0.299511
0.213357
0.153777
0.111976
0.0831458
0.0647028
0.0574852
0.0899541
0.285183
0.205404
0.149246
0.109414
0.0817091
0.0639274
0.0570571
0.0897596
0.245249
0.181178
0.134745
0.101078
0.0773382
0.0620895
0.0569351
0.0919082
0.197832
0.152616
0.117943
0.091693
0.0727734
0.0607443
0.0580771
0.0975728
0.181288
0.140899
0.109361
0.0857265
0.0690837
0.0590901
0.0586616
0.103059
0.228405
0.170748
0.127671
0.0963459
0.0745526
0.060998
0.0576235
0.0961428
0.271617
0.198253
0.144566
0.106187
0.0797308
0.0631217
0.0574676
0.0921274
0.293007
0.211465
0.1527
0.110807
0.0820656
0.063982
0.0572407
0.0901745
0.27972
0.203253
0.147509
0.107763
0.0804186
0.0631675
0.0568937
0.0901714
0.24153
0.17879
0.132641
0.0994092
0.0762683
0.0616709
0.0572
0.0931838
0.194915
0.150444
0.11608
0.0903229
0.0720032
0.0605768
0.0586044