/*--------------------------------*- C++ -*----------------------------------*\
| =========                 |                                                 |
| \\      /  F ield         | OpenFOAM: The Open Source CFD Toolbox           |
|  \\    /   O peration     | Version:  plus.master.MPPICInterFoam            |
|   \\  /    A nd           | Web:      www.OpenFOAM.com                      |
|    \\/     M anipulation  |                                                 |
\*---------------------------------------------------------------------------*/
FoamFile
{
    version     2.0;
    format      ascii;
    class       volScalarField;
    location    "3.6";
    object      k;
}
// * * * * * * * * * * * * * * * * * * * * * * * * * * * * * * * * * * * * * //

dimensions      [0 2 -2 0 0 0 0];

internalField   nonuniform List<scalar> 
11821
(
0.0464624
0.0519105
0.0420194
0.0506482
0.0432885
0.0365032
0.0320685
0.0376355
0.0420244
0.0427549
0.0402035
0.0365175
0.032559
0.0387738
0.0475925
0.0550769
0.055577
0.0501355
0.0433685
0.0373662
0.0462648
0.0576619
0.0607656
0.062621
0.0603777
0.0508679
0.041869
0.0518929
0.0605084
0.0617485
0.0643926
0.0634924
0.0564603
0.0448559
0.0503565
0.0620185
0.0658887
0.067098
0.0651964
0.0551304
0.0442433
0.0438292
0.0552379
0.0640521
0.0651378
0.0581827
0.0487905
0.0408333
0.036744
0.044409
0.0508564
0.0517152
0.0473306
0.0417158
0.0361853
0.0314098
0.0359386
0.039353
0.0403685
0.039107
0.0365974
0.0332624
0.0365686
0.0431889
0.0487061
0.049633
0.0465213
0.0421472
0.0376022
0.0418488
0.0516144
0.058575
0.059682
0.0551409
0.0477745
0.0412966
0.0457869
0.057593
0.0573709
0.0607617
0.0611096
0.0519766
0.0436317
0.0448738
0.0563784
0.0588522
0.0605403
0.0605377
0.0511592
0.0433046
0.0406971
0.0496057
0.0576537
0.058795
0.0533958
0.0467878
0.0406869
0.0354416
0.0416173
0.0465481
0.0477183
0.0452177
0.0412326
0.0365489
0.0318908
0.0360725
0.0391101
0.0404022
0.0398862
0.0379004
0.0346329
0.0363273
0.041672
0.0458335
0.0472283
0.0459466
0.0430379
0.0390433
0.0403012
0.0475574
0.0536735
0.0551804
0.0523455
0.0477571
0.0425658
0.0430125
0.0521703
0.0544943
0.0553143
0.0579737
0.0510595
0.0446781
0.0427934
0.0515983
0.0580707
0.059732
0.0572281
0.0508554
0.0445345
0.0400287
0.0471347
0.0532098
0.0548965
0.0521825
0.0475756
0.0421273
0.0356662
0.0412785
0.0455416
0.0471094
0.0457363
0.0424722
0.0378735
0.0333412
0.0378371
0.0411099
0.0427237
0.0424335
0.0403139
0.0365561
0.0379242
0.0433614
0.0475592
0.0494252
0.0488956
0.0460741
0.0416029
0.0417354
0.0487399
0.054154
0.0559846
0.0551601
0.051508
0.0456143
0.0442469
0.0524131
0.0604969
0.0620366
0.0599912
0.0549601
0.0480333
0.0443299
0.0528227
0.062017
0.0640658
0.0606201
0.0551283
0.0479016
0.0417823
0.0492674
0.0553629
0.0577663
0.0562328
0.051405
0.045049
0.0372335
0.0432914
0.0479861
0.0502461
0.0489629
0.0453488
0.0400188
0.0352834
0.0405665
0.0444507
0.046424
0.0460261
0.0433129
0.0386288
0.0406172
0.0469682
0.0521785
0.0550623
0.0540116
0.0503245
0.0446952
0.0449201
0.0533355
0.0597199
0.0620962
0.0622413
0.0568982
0.0495561
0.0478621
0.0571843
0.0652724
0.0691588
0.0672612
0.0617789
0.0526043
0.0479843
0.057682
0.0669553
0.0697236
0.0682311
0.0615972
0.0523577
0.0448506
0.0534596
0.0609016
0.0642343
0.0628774
0.0565402
0.048635
0.0394331
0.0465882
0.0522665
0.0548979
0.0535369
0.0489927
0.0423668
0.037003
0.0432822
0.0480129
0.0502299
0.0495661
0.0459611
0.0402211
0.0432712
0.0506199
0.0561276
0.0585465
0.0584251
0.0542536
0.0473009
0.048361
0.0548991
0.0624986
0.0670636
0.0634255
0.0601924
0.0531778
0.0516028
0.0600372
0.0668047
0.0706346
0.068833
0.0624341
0.0568046
0.0516829
0.0611217
0.0611582
0.0692068
0.0671188
0.063669
0.0563553
0.0477283
0.0561445
0.0631793
0.0650592
0.0625934
0.0602015
0.051412
0.0410479
0.0495114
0.0560348
0.0585223
0.0574086
0.0517838
0.0437003
0.0380863
0.0450978
0.0509571
0.0535785
0.0523332
0.0476028
0.0411371
0.044846
0.0534033
0.0596642
0.0613952
0.0619804
0.0569576
0.048703
0.0507543
0.0573668
0.0584744
0.0643826
0.0634475
0.0632857
0.0554127
0.0543795
0.0590545
0.0582575
0.0691114
0.0615694
0.0652913
0.05957
0.0539201
0.0603969
0.058422
0.057524
0.0624131
0.0661266
0.0584366
0.0487671
0.0580926
0.0617279
0.0619361
0.0642627
0.06221
0.0522037
0.0411388
0.0502519
0.0581298
0.0615367
0.0591915
0.0522656
0.0435903
0.0387088
0.0459618
0.052393
0.0555443
0.0536992
0.048371
0.0415871
0.0454579
0.0552394
0.0643022
0.0685449
0.0661633
0.0585457
0.0491886
0.0516184
0.0625798
0.0670504
0.0648877
0.0726514
0.067739
0.0561527
0.0554884
0.0653313
0.0645238
0.0565852
0.0722605
0.0726739
0.0603983
0.0541815
0.0653868
0.0680464
0.0680214
0.0737935
0.0715218
0.0584978
0.0480462
0.0592159
0.0673578
0.0693826
0.0702966
0.062692
0.0513938
0.0402626
0.0491461
0.0575599
0.0616876
0.0584722
0.0511196
0.0426461
0.0390764
0.0462586
0.0524519
0.0555226
0.053674
0.0484599
0.0416047
0.0455564
0.0557248
0.0656395
0.070859
0.0671411
0.0587611
0.0490597
0.0511691
0.0648889
0.0746238
0.0758227
0.0785224
0.0692414
0.0555328
0.0541832
0.0695659
0.0728754
0.0690155
0.080595
0.076478
0.0591534
0.0523056
0.0668756
0.0738393
0.0775785
0.079372
0.0723617
0.0566704
0.0464821
0.0581249
0.0694275
0.0752175
0.0717304
0.061287
0.0497025
0.0391415
0.0472718
0.0548402
0.0588243
0.0559526
0.0491859
0.0412808
0.0395009
0.0467008
0.0527673
0.0555946
0.053652
0.0484379
0.0414078
0.0457937
0.0559251
0.0658876
0.0703385
0.0666956
0.0584701
0.0487537
0.0508235
0.0645737
0.0779242
0.0812846
0.0792915
0.0681974
0.0546816
0.0529055
0.0682393
0.0774192
0.0775886
0.0829076
0.0737225
0.0572921
0.0506242
0.064367
0.0756959
0.0787385
0.0801678
0.0689379
0.0544794
0.0451942
0.0557297
0.0664394
0.0728606
0.0681332
0.0584259
0.0478725
0.0382756
0.0456415
0.0521275
0.0553999
0.0529919
0.0471188
0.0398249
0.0399557
0.0473418
0.0533799
0.056065
0.0538461
0.0483044
0.0408979
0.0463736
0.0561129
0.0652364
0.0700736
0.0663813
0.0582847
0.0482452
0.0511274
0.0639097
0.0780869
0.0802609
0.0777764
0.0675839
0.0539482
0.0527549
0.0671021
0.0792936
0.0780436
0.0819297
0.0718265
0.0559632
0.0500957
0.0625211
0.0734381
0.0777305
0.0767542
0.0662774
0.052797
0.044661
0.0542055
0.0637617
0.0692965
0.0648889
0.056099
0.046235
0.0377768
0.0446957
0.0504932
0.053211
0.0508808
0.0453856
0.0384002
0.0399
0.0474079
0.0536988
0.0556764
0.0532301
0.0472943
0.0397602
0.0467002
0.0550021
0.0610254
0.0645116
0.0627766
0.0569967
0.0469325
0.0517624
0.0603842
0.064971
0.0759584
0.0702912
0.0657706
0.0526855
0.0528801
0.0629151
0.0743564
0.0744589
0.0783819
0.0688067
0.0544983
0.0501529
0.0593674
0.0693168
0.0737314
0.0724097
0.0636821
0.0510032
0.0442616
0.0529196
0.0610509
0.0659147
0.0617109
0.0537539
0.0442989
0.0371954
0.0438742
0.0495702
0.0519298
0.0491408
0.0435102
0.0368586
0.0393885
0.0467736
0.0533772
0.0555515
0.0519739
0.0454588
0.0382823
0.0463481
0.0548735
0.0596297
0.0620619
0.0620311
0.0548132
0.0448747
0.0519468
0.0587732
0.0599614
0.0661193
0.068271
0.0636152
0.0503303
0.0532346
0.0598319
0.0638428
0.0678354
0.0722586
0.0664507
0.0519432
0.0497644
0.0587515
0.0612831
0.0677215
0.0676005
0.0601494
0.0482302
0.0432578
0.0516396
0.0599626
0.0638531
0.0583087
0.0504996
0.0419752
0.0363577
0.0424962
0.0479388
0.0498936
0.0467051
0.0413239
0.0354351
0.0385172
0.0451823
0.0511311
0.052836
0.0491303
0.0432222
0.0368379
0.0449962
0.0538306
0.0609367
0.0621672
0.0590991
0.0514792
0.0425556
0.0503806
0.0603874
0.0618769
0.0648507
0.0661811
0.0589671
0.0470179
0.0515938
0.0608366
0.0604435
0.0677873
0.0686723
0.0610532
0.048175
0.0476632
0.0569823
0.0614615
0.0643108
0.0628727
0.0552481
0.045091
0.0416952
0.0491283
0.0562823
0.0588039
0.0538843
0.0472272
0.0399943
0.035474
0.0407254
0.0450903
0.0464993
0.0438713
0.0394559
0.0344199
0.0378227
0.0436058
0.04824
0.0495606
0.0465498
0.0414453
0.035749
0.0435942
0.0519915
0.059109
0.0607347
0.0565603
0.0486502
0.0408016
0.0479559
0.0586354
0.0604798
0.0636578
0.0650848
0.0545026
0.044433
0.0488678
0.0597163
0.0596789
0.0661261
0.0667815
0.0557811
0.0452566
0.0456671
0.0550254
0.062305
0.0637229
0.0600821
0.0514988
0.0429182
0.0405792
0.0472096
0.0528189
0.0544133
0.050893
0.0449992
0.038745
0.0349692
0.0395331
0.0429324
0.0439213
0.0420032
0.0383183
0.033882
0.037896
0.0430781
0.0467206
0.0475171
0.0450323
0.0405133
0.0351425
0.0433271
0.0506071
0.056361
0.0576809
0.0536451
0.0468958
0.0398849
0.0472317
0.0567194
0.0616247
0.0618845
0.0609579
0.0515765
0.0430891
0.047878
0.0576331
0.060438
0.0627205
0.0624349
0.0525367
0.0438065
0.0450522
0.0531969
0.0597143
0.0613432
0.0568855
0.0492954
0.0418649
0.0404657
0.0463014
0.0507489
0.0518331
0.0489347
0.0438865
0.0381847
0.0351172
0.0393573
0.0422631
0.0429828
0.0412891
0.0379315
0.0336741
0.0095485
0.0041165
0.0252174
0.0211429
0.0173666
0.0137562
0.00997169
0.00422369
0.0377179
0.0313517
0.0262978
0.021888
0.0178578
0.0140556
0.010129
0.00425838
0.0372263
0.0310907
0.0260898
0.0216863
0.0176603
0.0138767
0.00998662
0.00420685
0.0345056
0.029245
0.0247217
0.020627
0.0168451
0.0132756
0.00958265
0.0040809
0.0307301
0.0265643
0.0226929
0.0190639
0.0156639
0.0124199
0.00901178
0.00390602
0.0283757
0.024988
0.0216974
0.0185094
0.0154362
0.0124094
0.0091115
0.00399784
0.0320518
0.0278186
0.0239017
0.020199
0.0166855
0.0132864
0.00967294
0.00414809
0.0352395
0.0302492
0.0257597
0.0215883
0.017675
0.0139479
0.0100705
0.00424856
0.0371283
0.0315976
0.0267456
0.022278
0.0181256
0.0142169
0.01021
0.00428086
0.0367502
0.03132
0.0264817
0.0220154
0.0178798
0.0140068
0.0100521
0.00423152
0.0344143
0.0295401
0.0250638
0.0208844
0.0170077
0.0133709
0.00963219
0.00410797
0.0309007
0.0268674
0.0229587
0.0192426
0.0157685
0.0124776
0.00904089
0.0039321
0.0291397
0.0256664
0.0222253
0.0188963
0.0157095
0.0125931
0.00921882
0.00403546
0.032752
0.0285494
0.0244947
0.0206234
0.0169722
0.0134719
0.00977912
0.00418346
0.0356919
0.030936
0.0263643
0.0220151
0.0179528
0.0141215
0.0101674
0.0042824
0.0373492
0.0322143
0.0273076
0.0226716
0.0183774
0.0143744
0.0103009
0.00431604
0.0370405
0.0318971
0.0269753
0.022344
0.0180927
0.0141427
0.0101354
0.00426854
0.0348859
0.030081
0.0254618
0.0211315
0.0171651
0.0134734
0.00969992
0.00414511
0.0314012
0.0272867
0.0232375
0.0194064
0.015864
0.0125406
0.00908612
0.00396743
0.0302103
0.0264635
0.0227842
0.0192788
0.0159728
0.0127725
0.0093291
0.00407582
0.0340311
0.0295371
0.0251676
0.0210627
0.0172576
0.0136582
0.0098901
0.00422361
0.0370815
0.0320412
0.0271085
0.0224769
0.0182458
0.0143104
0.0102826
0.00432741
0.0387341
0.0333508
0.028067
0.0231315
0.0186666
0.0145616
0.0104204
0.0043669
0.0384245
0.0329738
0.0276687
0.0227828
0.0183497
0.014311
0.0102498
0.00432171
0.0361412
0.0309523
0.0259968
0.021463
0.0173575
0.0136061
0.0097973
0.00419657
0.0323435
0.0278964
0.0235899
0.0196035
0.0159856
0.0126339
0.00916271
0.00401743
0.0314838
0.0273139
0.0233387
0.0196466
0.0162199
0.0129423
0.00943898
0.00410838
0.0357971
0.0306657
0.0258477
0.021483
0.0175261
0.0138338
0.00999832
0.00425484
0.0392604
0.0334528
0.0279278
0.0229719
0.0185384
0.0144974
0.0104016
0.00436589
0.0411519
0.034881
0.0289369
0.0236377
0.0189536
0.0147489
0.0105471
0.00441275
0.0407548
0.0343974
0.0284385
0.0231736
0.0185875
0.0144789
0.0103745
0.00437206
0.0380141
0.0320408
0.0265648
0.0217447
0.0175368
0.0137458
0.00990996
0.00424775
0.0335991
0.0286048
0.0239535
0.0197998
0.0161206
0.0127506
0.00926507
0.00407099
0.0327023
0.0280651
0.0238151
0.0199636
0.0164365
0.0130945
0.00953955
0.00412962
0.0376103
0.0316895
0.0264412
0.0218408
0.0177491
0.0139809
0.0100932
0.00427466
0.0417009
0.0348008
0.0286399
0.0233465
0.0187621
0.014647
0.0105008
0.00439066
0.0439898
0.0364181
0.0296974
0.0240136
0.0191784
0.0149037
0.0106563
0.00444439
0.0434236
0.0357857
0.0290994
0.0235173
0.0187892
0.0146248
0.0104853
0.00440814
0.0399912
0.0330238
0.0270229
0.0219979
0.0177
0.0138777
0.0100174
0.00428842
0.0347802
0.0291836
0.0242313
0.0199669
0.0162572
0.0128786
0.00937821
0.00411851
0.0336545
0.0286696
0.0242193
0.0202397
0.016625
0.013217
0.00961298
0.00414128
0.0390108
0.0324472
0.0268824
0.0221172
0.0179281
0.014094
0.0101601
0.00428609
0.0436228
0.0357497
0.0291356
0.0236325
0.0189361
0.0147523
0.0105614
0.00440236
0.0462061
0.0374542
0.0301982
0.0243008
0.0193445
0.0150052
0.0107163
0.00445844
0.0453737
0.0366409
0.0295048
0.0237451
0.0189311
0.0147236
0.0105497
0.00442676
0.0412218
0.0335403
0.0272745
0.0221468
0.0178213
0.0139819
0.0100983
0.00431748
0.0353626
0.0294327
0.0243769
0.0200952
0.016387
0.0130014
0.00947987
0.00416069
0.0343005
0.0291369
0.0245552
0.0204688
0.0167643
0.0132905
0.00964572
0.00415252
0.0397964
0.0329514
0.0272513
0.0223514
0.0180577
0.0141549
0.0101819
0.00429317
0.0446224
0.0362785
0.0294529
0.0238342
0.0190444
0.0147908
0.0105626
0.00439812
0.0472734
0.0379402
0.0304614
0.0244302
0.0194044
0.0150202
0.0107046
0.00444837
0.0461034
0.0369363
0.0296718
0.0238355
0.0189834
0.0147451
0.0105471
0.0044195
0.0414536
0.0336168
0.0273347
0.0222318
0.0178984
0.0140341
0.0101255
0.004324
0.0353287
0.029405
0.024403
0.0201684
0.0164706
0.0130782
0.00953911
0.00418668
0.0345999
0.0293656
0.024705
0.0205218
0.0167784
0.013291
0.00964589
0.00416666
0.0400488
0.0331472
0.0273441
0.0223671
0.0180411
0.0141261
0.0101572
0.00429216
0.0447796
0.0363414
0.0295152
0.0238292
0.0189931
0.0147254
0.0105059
0.00437731
0.0472503
0.0378353
0.030391
0.0243739
0.0193308
0.0149363
0.0106341
0.00441775
0.0457312
0.0366494
0.0295182
0.0237328
0.0188955
0.0146639
0.0104841
0.00438931
0.0408451
0.0332443
0.0271848
0.0221054
0.0178131
0.0139788
0.0100922
0.00430533
0.0347462
0.02904
0.0242231
0.0200461
0.0164156
0.0130641
0.00954242
0.00418476
0.034543
0.0292861
0.0245836
0.0204127
0.0167054
0.0132606
0.00965061
0.00419329
0.0398703
0.0329697
0.0271629
0.0221903
0.0179017
0.0140397
0.0101188
0.00429671
0.0442673
0.0359808
0.0292018
0.0235341
0.0187719
0.0145834
0.0104309
0.00436409
0.0463039
0.0371865
0.0299432
0.0239892
0.0190584
0.0147653
0.0105422
0.00439291
0.0444848
0.03582
0.0289394
0.023317
0.0186263
0.0145065
0.0104054
0.00436487
0.0396596
0.0324289
0.0265698
0.0217241
0.0175961
0.0138701
0.0100489
0.00428995
0.03376
0.0283327
0.0237159
0.0197541
0.0162663
0.0130046
0.00952846
0.00417479
0.0342111
0.0289271
0.0242788
0.0201981
0.016588
0.0132226
0.00966487
0.00422232
0.0394444
0.0325135
0.0267438
0.0218679
0.0176971
0.0139358
0.0100854
0.00430419
0.0435801
0.0353486
0.0286238
0.0231079
0.0184954
0.0144325
0.0103677
0.00435804
0.0451799
0.0363191
0.0292362
0.0235014
0.0187494
0.0145984
0.0104708
0.00438038
0.0430897
0.0348233
0.0282127
0.0228277
0.0183358
0.0143614
0.0103508
0.00435443
0.0383735
0.0314884
0.0259563
0.021332
0.0173856
0.013785
0.0100348
0.0042902
0.0326885
0.0275621
0.0232243
0.0194742
0.01614
0.0129784
0.00955208
0.00418669
0.033631
0.0284104
0.0238781
0.0199571
0.0164686
0.0131854
0.00967524
0.0042426
0.0387362
0.0318195
0.0261782
0.0215008
0.0174903
0.0138362
0.0100514
0.0043019
0.0427403
0.0345214
0.0279602
0.0226594
0.0182289
0.0142927
0.0103069
0.00434206
0.0440362
0.0353693
0.0285001
0.0230123
0.018463
0.0144494
0.0104052
0.00435865
0.0417836
0.0337907
0.027468
0.0223683
0.0180857
0.0142445
0.0103089
0.00433683
0.037111
0.0305577
0.0253227
0.0209801
0.0172246
0.0137357
0.0100404
0.00428742
0.0316782
0.0268726
0.0227999
0.0192694
0.0160862
0.0130089
0.00961715
0.0042043
0.0328208
0.027834
0.0235247
0.0197636
0.0163657
0.0131338
0.00965256
0.0042481
0.0376579
0.0310332
0.0256638
0.0212041
0.0173156
0.0137306
0.00998851
0.00428632
0.0414654
0.0335363
0.0273161
0.0222733
0.0179991
0.0141524
0.0102213
0.00431326
0.0425862
0.0342851
0.0277785
0.0225878
0.0182157
0.0143032
0.0103171
0.00432319
0.0402932
0.0327488
0.0268302
0.0220138
0.0178933
0.014138
0.0102478
0.00430589
0.0357971
0.0297525
0.0248582
0.0207627
0.0171292
0.0136988
0.0100273
0.00426998
0.0307694
0.0263562
0.022555
0.0191959
0.0161014
0.0130561
0.00966519
0.0042077
0.031943
0.0273082
0.0232219
0.019568
0.0162178
0.0130121
0.00955478
0.00421235
0.0363666
0.0302479
0.0252136
0.0209176
0.0171073
0.0135681
0.0098648
0.00423907
0.0398016
0.032507
0.026715
0.0219091
0.0177522
0.013969
0.0100855
0.00425776
0.0407927
0.0331113
0.0271257
0.0222071
0.0179702
0.0141247
0.0101843
0.00426395
0.0385769
0.0317644
0.0262978
0.0217166
0.0177037
0.0139996
0.0101417
0.0042543
0.034542
0.0290939
0.0245417
0.0206074
0.0170342
0.0136269
0.00996635
0.00423366
0.0301012
0.0260424
0.022441
0.0191882
0.0161119
0.0130602
0.00965627
0.00418962
0.0310985
0.0267745
0.0228599
0.0192823
0.0159783
0.0128118
0.00939898
0.00414902
0.0350463
0.0294815
0.0247304
0.0205612
0.0168258
0.0133444
0.00969773
0.00417115
0.037992
0.0314975
0.0261127
0.0215003
0.017448
0.0137356
0.00991389
0.00418524
0.0387734
0.0320029
0.0265058
0.0218038
0.0176795
0.0139031
0.0100201
0.00419204
0.0369381
0.0308957
0.0258117
0.0214019
0.0174718
0.0138175
0.0100011
0.00418943
0.0335487
0.0285804
0.0242769
0.0204301
0.0168911
0.0135032
0.00986182
0.00417952
0.0295892
0.0258356
0.022382
0.0191486
0.0160599
0.012997
0.00958897
0.00414604
0.0304003
0.0262843
0.0224613
0.0189465
0.0157023
0.0125949
0.00924092
0.00408855
0.0340087
0.0288179
0.0242399
0.0201743
0.0165212
0.0131128
0.00953359
0.00410767
0.036591
0.0306607
0.0255432
0.0210801
0.0171297
0.0134979
0.00974659
0.00412041
0.0372328
0.0311722
0.0259583
0.0214082
0.0173806
0.013678
0.00985868
0.0041287
0.0357672
0.0302223
0.0253739
0.0210796
0.0172214
0.013622
0.00985475
0.00413024
0.0328264
0.0281754
0.0240111
0.0202138
0.0167074
0.0133482
0.00973699
0.00412461
0.0292817
0.0256604
0.0222567
0.0190267
0.0159394
0.0128832
0.0094882
0.00409594
0.02991
0.0258455
0.0220804
0.0186329
0.015457
0.0124118
0.0091143
0.00404247
0.0333871
0.0283044
0.0238117
0.0198279
0.0162541
0.012915
0.00939703
0.00405681
0.0358044
0.0300888
0.0250914
0.0207209
0.0168538
0.0132938
0.00960542
0.00406713
0.0364455
0.0306307
0.0255335
0.0210699
0.0171174
0.0134799
0.00971861
0.00407432
0.0351659
0.02979
0.0250244
0.0207912
0.0169884
0.0134391
0.00971959
0.00407427
0.0324987
0.0279013
0.0237641
0.0199923
0.0165163
0.0131889
0.00961184
0.00406833
0.0291204
0.0255252
0.0221083
0.0188731
0.0157943
0.0127538
0.00937993
0.00404246
0.0297554
0.0249033
0.0206088
0.0168369
0.0135479
0.0106129
0.00769189
0.00357235
0.0343258
0.0278026
0.0224952
0.0180597
0.0143168
0.0110831
0.00797444
0.00367508
0.0380899
0.030052
0.0238979
0.0189485
0.0148768
0.0114321
0.0081895
0.00376168
0.0389291
0.030449
0.0241048
0.0190916
0.0149919
0.0115327
0.00827653
0.00381063
0.0356787
0.0284839
0.0229037
0.0183711
0.0145983
0.011347
0.00821024
0.00381043
0.0310515
0.0255238
0.0210019
0.0171898
0.0139087
0.0109773
0.00803499
0.00377637
0.0265705
0.0225876
0.0190791
0.0159631
0.0131647
0.0105539
0.00781223
0.00372178
0.0292537
0.0247727
0.0206325
0.0169282
0.0136751
0.0107585
0.00783002
0.00366144
0.0330511
0.0273896
0.0224502
0.0181553
0.0144764
0.0112719
0.00815002
0.00378002
0.0357203
0.0292074
0.0237154
0.0190242
0.0150564
0.0116497
0.00839158
0.00387691
0.036169
0.0294524
0.0238947
0.0191829
0.0151998
0.0117759
0.00849709
0.00393268
0.0338248
0.027913
0.0228916
0.0185704
0.0148674
0.0116235
0.00844712
0.00393775
0.0302885
0.0254501
0.021215
0.0174964
0.0142308
0.0112791
0.0082812
0.00390421
0.0265083
0.0228212
0.0194198
0.0163222
0.0135062
0.0108574
0.00805183
0.00384404
0.0295806
0.0250829
0.0208818
0.0171448
0.0138878
0.0109723
0.00801859
0.00377113
0.0331581
0.0277032
0.0227629
0.0184349
0.0147453
0.0115288
0.00837032
0.00390131
0.0353446
0.0294089
0.024038
0.0193411
0.0153603
0.0119394
0.00863704
0.00400775
0.0355508
0.0295919
0.0242293
0.0195267
0.0155357
0.0120911
0.00875931
0.00406932
0.0336687
0.0282352
0.0233024
0.0189664
0.0152376
0.0119596
0.0087191
0.00407497
0.0306219
0.0259381
0.0216969
0.017932
0.0146227
0.0116233
0.00855313
0.00403743
0.0270679
0.0233755
0.0199182
0.0167644
0.0138967
0.0111929
0.00831264
0.00397033
0.0305662
0.0257133
0.0212958
0.0174659
0.0141772
0.011242
0.00824773
0.00388889
0.0344592
0.0285795
0.0233237
0.0188438
0.0150905
0.0118385
0.00862623
0.00403022
0.0367437
0.0304357
0.0247226
0.0198309
0.0157599
0.012286
0.00891695
0.00414761
0.036884
0.0306461
0.0249651
0.0200661
0.0159709
0.0124639
0.00905545
0.00421485
0.0350057
0.0292622
0.0240369
0.0195149
0.0156878
0.0123411
0.00901806
0.00421866
0.0318792
0.0268724
0.022383
0.0184711
0.0150742
0.0120019
0.00884487
0.00417366
0.0281244
0.0241772
0.0205422
0.0172746
0.0143274
0.0115542
0.00858986
0.00409667
0.0317669
0.0264055
0.021738
0.0178168
0.0145001
0.0115381
0.00849477
0.00400189
0.0363085
0.0296237
0.0239339
0.0192788
0.0154619
0.0121686
0.00889437
0.0041529
0.0390995
0.0318148
0.0255124
0.0203579
0.0161865
0.0126511
0.0092068
0.00428044
0.0393145
0.0321283
0.0258426
0.0206588
0.0164405
0.0128535
0.00935805
0.00435286
0.0371732
0.0305995
0.024878
0.0201196
0.0161705
0.0127375
0.0093192
0.004353
0.0336014
0.0279786
0.0231392
0.0190481
0.0155433
0.0123833
0.00913195
0.00429795
0.0293846
0.0250622
0.0212028
0.0178066
0.0147717
0.0119159
0.00885873
0.00420802
0.0326042
0.0268861
0.0221021
0.0181553
0.0148234
0.0118269
0.00872441
0.00410885
0.0377989
0.03039
0.0244214
0.0196842
0.0158277
0.0124851
0.00914152
0.00426793
0.0412442
0.0329334
0.0261695
0.0208511
0.0166055
0.0130015
0.00947317
0.00440414
0.0416761
0.0334184
0.0266165
0.0212175
0.0168991
0.0132265
0.00963627
0.00447995
0.0392434
0.0317784
0.0256442
0.0206994
0.0166404
0.0131095
0.00959045
0.00447443
0.0351573
0.0289577
0.0238446
0.0196067
0.0159975
0.0127398
0.00938589
0.00440725
0.0305102
0.0258788
0.0218452
0.0183313
0.0151929
0.0122397
0.00908687
0.00430184
0.0327864
0.0270892
0.0223654
0.0184409
0.0150918
0.0120576
0.00889954
0.0042028
0.038245
0.0306844
0.024738
0.020013
0.0161327
0.0127421
0.00933324
0.00436757
0.0422313
0.0334576
0.0265965
0.0212523
0.0169587
0.0132858
0.00967789
0.00450484
0.0430088
0.0341553
0.0271603
0.021693
0.0172937
0.013533
0.00984487
0.00457878
0.0404619
0.0325593
0.0262549
0.0212058
0.0170479
0.0134134
0.00979382
0.00456718
0.0361582
0.0297135
0.0244679
0.0201154
0.0163866
0.0130203
0.00956713
0.00448818
0.0313817
0.0265935
0.0224352
0.0187973
0.0155396
0.0124823
0.00923867
0.00436742
0.03241
0.0269819
0.0224243
0.0185742
0.0152465
0.0122048
0.00901848
0.00427531
0.0377728
0.0305246
0.0247905
0.0201595
0.016308
0.0129076
0.00946525
0.00444253
0.0419354
0.0333448
0.0266892
0.0214376
0.01716
0.0134638
0.00981208
0.0045736
0.0430813
0.0342434
0.0273629
0.021944
0.0175247
0.013719
0.00997686
0.00464093
0.0407646
0.032881
0.0266055
0.0215277
0.0173066
0.0136021
0.00991442
0.0046212
0.036647
0.0301972
0.0248937
0.0204492
0.0166321
0.0131876
0.00966889
0.00453243
0.0319606
0.027118
0.0228637
0.0191054
0.0157454
0.0126121
0.00931136
0.0043985
0.0318075
0.0266944
0.0223208
0.0185835
0.0153223
0.0123112
0.00912723
0.00435009
0.0368986
0.0301173
0.0246515
0.0201709
0.016395
0.013026
0.00958306
0.00451851
0.0408731
0.0328785
0.0265486
0.0214525
0.017248
0.013582
0.00992533
0.00464247
0.0422757
0.0339334
0.027342
0.0220158
0.0176353
0.0138352
0.0100801
0.00470003
0.0405278
0.0328995
0.0267306
0.0216644
0.0174278
0.0137113
0.0100068
0.00467152
0.0368065
0.030417
0.025099
0.020607
0.0167503
0.0132806
0.00974207
0.0045717
0.0322682
0.0273873
0.023053
0.0192249
0.0158276
0.0126747
0.00935727
0.00442588
0.0313222
0.0264288
0.0222117
0.0185915
0.0154138
0.0124499
0.00927382
0.00444694
0.0362491
0.0297973
0.0245316
0.0201831
0.0164931
0.0131723
0.00973595
0.00461756
0.0401425
0.0325735
0.0264535
0.0214784
0.0173515
0.0137272
0.0100729
0.00473724
0.0417965
0.0337977
0.0273364
0.0220805
0.0177443
0.0139737
0.0102166
0.00478496
0.0405045
0.0329789
0.0268136
0.0217619
0.0175442
0.0138427
0.0101301
0.00474608
0.0370328
0.0305906
0.0252092
0.0207003
0.0168463
0.0133868
0.00984325
0.00463289
0.0324888
0.027511
0.0231117
0.0192766
0.0158878
0.0127487
0.0094332
0.00447641
0.0310312
0.0262627
0.0221899
0.0186887
0.0155836
0.0126491
0.00946364
0.00456516
0.0360005
0.0296634
0.02452
0.0202844
0.0166718
0.0133803
0.00992967
0.00473732
0.040062
0.0325539
0.0264923
0.021601
0.0175398
0.0139391
0.0102681
0.00485619
0.0419709
0.0339459
0.0274564
0.0222302
0.017936
0.0141812
0.0104039
0.00489591
0.0409138
0.0332319
0.0269815
0.0219245
0.0177326
0.0140352
0.010299
0.00484393
0.0374109
0.0307803
0.0253323
0.0208359
0.0170044
0.0135499
0.00998661
0.00471534
0.0326922
0.0276021
0.0231814
0.0193652
0.0160064
0.0128783
0.00955419
0.00454824
0.0308073
0.0262233
0.0222982
0.0188844
0.0158127
0.0128716
0.00965142
0.00468059
0.0358068
0.0296178
0.0246324
0.0204931
0.0169155
0.0136134
0.010123
0.00485657
0.0401339
0.0326243
0.0266613
0.0218478
0.0178086
0.0141883
0.010468
0.00497473
0.0422764
0.0341576
0.0277013
0.022502
0.0182169
0.0144345
0.0106006
0.00500799
0.041288
0.0334631
0.0272268
0.0222005
0.0179976
0.0142651
0.0104766
0.00494381
0.0375887
0.030923
0.02553
0.0210559
0.0172255
0.0137441
0.0101354
0.00480048
0.0327314
0.0276662
0.0233048
0.0195285
0.0161796
0.013033
0.00967697
0.00462364
0.0305408
0.0262202
0.0224477
0.0190919
0.0160201
0.0130498
0.00978682
0.00476555
0.0353767
0.029539
0.0247589
0.0207078
0.0171396
0.0138082
0.0102691
0.00494782
0.0397941
0.0325513
0.026799
0.022087
0.0180566
0.0143982
0.0106215
0.00506494
0.0422361
0.0341874
0.0278804
0.0227715
0.0184836
0.0146443
0.0107468
0.00509041
0.0412496
0.0335183
0.0274228
0.022461
0.018245
0.0144614
0.0106085
0.00501848
0.037438
0.0309735
0.0257054
0.0212776
0.0174308
0.0138997
0.0102385
0.0048639
0.0326148
0.0277286
0.0234497
0.0197042
0.0163327
0.0131465
0.00975003
0.00467568
0.0302356
0.0261952
0.02255
0.0192269
0.0161473
0.0131564
0.0098638
0.00482051
0.0347149
0.0293677
0.0248202
0.0208524
0.0172869
0.0139307
0.0103578
0.00501093
0.0387621
0.0322044
0.0268029
0.0222241
0.0182137
0.0145291
0.0107157
0.00512786
0.0411595
0.0337882
0.0278511
0.0229174
0.0186386
0.0147714
0.0108338
0.00514636
0.0403276
0.0332242
0.0274635
0.0226009
0.0183926
0.0145754
0.010683
0.00507005
0.0368269
0.0308268
0.0257687
0.0214031
0.017544
0.0139826
0.01029
0.00490777
0.0322969
0.0276726
0.0235148
0.0197892
0.0163992
0.0131861
0.00976828
0.0047062
0.0300886
0.0262169
0.0226273
0.0193177
0.0162363
0.0132353
0.00992569
0.00486625
0.0342798
0.0292954
0.0248968
0.0209615
0.0173921
0.0140213
0.0104292
0.00506626
0.0378895
0.0319514
0.0268377
0.0223358
0.0183273
0.0146284
0.0107932
0.00518751
0.0399564
0.0333999
0.0278249
0.0230079
0.0187506
0.0148681
0.0109071
0.00520473
0.0393073
0.0329342
0.027479
0.022699
0.0184926
0.0146611
0.0107499
0.00512625
0.036271
0.0307051
0.0258217
0.0214873
0.0176166
0.0140416
0.010337
0.00495753
0.0320371
0.0276109
0.0235342
0.0198166
0.0164154
0.013199
0.00978089
0.00474132
0.0302761
0.0263893
0.022769
0.0194433
0.016357
0.013345
0.0100176
0.00492211
0.0344409
0.0295161
0.0250959
0.0211236
0.0175307
0.0141422
0.0105286
0.00513269
0.0379131
0.0321923
0.0270836
0.0225387
0.0184884
0.014762
0.010901
0.00526266
0.0398507
0.0336247
0.0281119
0.023227
0.0189158
0.0150067
0.0110229
0.00528633
0.039305
0.0331893
0.0277401
0.0229101
0.0186544
0.0147949
0.0108601
0.00520706
0.0364162
0.0309483
0.0260387
0.0216491
0.0177409
0.0141466
0.0104273
0.00503039
0.0321932
0.0277697
0.0236484
0.0198892
0.0164724
0.0132549
0.00983647
0.00479879
0.0265947
0.0227132
0.0192613
0.0161756
0.0133809
0.0107499
0.00796138
0.00375686
0.0304124
0.0254216
0.0212906
0.0177166
0.014541
0.0116016
0.00854199
0.00394206
0.0333474
0.027571
0.0229512
0.0190139
0.0155376
0.0123346
0.00903316
0.00409234
0.0342045
0.0284342
0.023759
0.0197281
0.0161325
0.0127956
0.00934843
0.00417879
0.0330163
0.0279215
0.023595
0.0197413
0.0162215
0.0129049
0.00943594
0.00418386
0.0307458
0.0264786
0.0226613
0.0191377
0.0158439
0.0126753
0.00929604
0.00410891
0.0278936
0.0245148
0.0212584
0.0181314
0.0151342
0.0121835
0.00896313
0.0039699
0.0266132
0.0229949
0.0196351
0.0165524
0.0137298
0.011052
0.00819298
0.00387234
0.0300804
0.0256264
0.0216705
0.0181246
0.0149186
0.0119207
0.00877904
0.00405141
0.0327086
0.02774
0.023375
0.0194634
0.0159352
0.0126586
0.00926548
0.00419086
0.033755
0.0287425
0.0242749
0.0202278
0.0165492
0.0131182
0.00956927
0.00426581
0.0331476
0.0284829
0.0242071
0.0202661
0.0166336
0.0132097
0.00963457
0.0042577
0.0313467
0.0271863
0.0232867
0.0196301
0.0162137
0.0129401
0.00946244
0.00417006
0.0286388
0.0251891
0.0218019
0.0185474
0.0154358
0.0123932
0.00909147
0.00401879
0.0272323
0.0235854
0.0201587
0.0170109
0.0141255
0.0113838
0.00844427
0.00399305
0.0307163
0.0263121
0.0222881
0.0186403
0.0153454
0.0122642
0.00902973
0.00416481
0.0333392
0.0285271
0.0240756
0.020029
0.0163836
0.0130048
0.009508
0.00429432
0.0345771
0.0296625
0.025055
0.0208332
0.0170024
0.0134521
0.00979287
0.00435587
0.0342496
0.0294972
0.0250026
0.0208526
0.0170579
0.0135108
0.0098285
0.00433225
0.0325503
0.0281562
0.0240023
0.0201476
0.0165814
0.0131945
0.00962135
0.00422997
0.0296985
0.0260002
0.0223863
0.018959
0.015727
0.0125973
0.00922161
0.00406933
0.0283177
0.0244089
0.0207959
0.0175248
0.0145524
0.0117339
0.00870562
0.00410625
0.032125
0.0273663
0.0230538
0.0192263
0.0158028
0.012619
0.00928318
0.00426931
0.0350333
0.0297846
0.0249663
0.0206723
0.0168577
0.0133557
0.00974782
0.00438845
0.0364826
0.0310592
0.0260125
0.0214887
0.0174664
0.01378
0.0100073
0.00443449
0.0361747
0.0308547
0.0259126
0.0214551
0.0174724
0.0137963
0.0100089
0.00439361
0.0342292
0.0293064
0.0247695
0.0206555
0.016925
0.0134272
0.00976602
0.00427603
0.0309824
0.026876
0.0229742
0.0193569
0.0160032
0.0127914
0.00934916
0.00411095
0.0295851
0.0253041
0.0214588
0.0180518
0.0149809
0.0120733
0.00895355
0.00419989
0.0338989
0.0285369
0.0238575
0.019807
0.0162428
0.0129546
0.00951747
0.00435353
0.037285
0.0312285
0.0259033
0.0213101
0.0173124
0.0136801
0.00996295
0.00446115
0.0389574
0.0326078
0.0269854
0.022121
0.0178951
0.0140739
0.0101942
0.00449281
0.0384943
0.0322886
0.0267935
0.0220243
0.0178494
0.0140432
0.0101594
0.00443635
0.0360694
0.0304388
0.0254755
0.0211162
0.0172288
0.0136244
0.00988529
0.00430687
0.0322438
0.0276781
0.0234967
0.0197108
0.0162496
0.0129635
0.0094628