/*--------------------------------*- C++ -*----------------------------------*\
| =========                 |                                                 |
| \\      /  F ield         | OpenFOAM: The Open Source CFD Toolbox           |
|  \\    /   O peration     | Version:  plus.master.MPPICInterFoam            |
|   \\  /    A nd           | Web:      www.OpenFOAM.com                      |
|    \\/     M anipulation  |                                                 |
\*---------------------------------------------------------------------------*/
FoamFile
{
    version     2.0;
    format      ascii;
    class       volScalarField;
    location    "3.6";
    object      nut;
}
// * * * * * * * * * * * * * * * * * * * * * * * * * * * * * * * * * * * * * //

dimensions      [0 2 -1 0 0 0 0];

internalField   nonuniform List<scalar> 
11821
(
0.000515577
0.000528043
0.000503793
0.000516569
0.000502355
0.000482472
0.000431904
0.000458999
0.000480761
0.0004945
0.000499415
0.000496392
0.000484481
0.000455854
0.000494518
0.000526629
0.000541472
0.000538277
0.000525005
0.00050854
0.000480841
0.000520856
0.000523186
0.000547022
0.000570491
0.000553609
0.000526576
0.000498075
0.000515235
0.000537431
0.000561701
0.000566932
0.000572363
0.000536566
0.000496453
0.000529155
0.000550685
0.000568503
0.000580279
0.000570221
0.00053513
0.000477934
0.000526204
0.000556631
0.000574579
0.000572202
0.000548489
0.000521385
0.00045167
0.000490539
0.000522142
0.000536383
0.000532153
0.00051804
0.00049634
0.000449165
0.000477306
0.000499175
0.000513889
0.000519957
0.0005158
0.000500633
0.000471586
0.000508459
0.000539677
0.000555196
0.000555527
0.000545062
0.000526795
0.000492004
0.000543707
0.000576189
0.000594803
0.000595507
0.000571565
0.000545408
0.000505282
0.000559482
0.000556764
0.00059268
0.000614021
0.000588782
0.000554611
0.000502845
0.000559011
0.00056024
0.000584272
0.000616007
0.000584944
0.000551357
0.000486839
0.000536214
0.000576936
0.000594039
0.000585934
0.000562827
0.000534831
0.000460856
0.000499068
0.000528931
0.000544207
0.000543505
0.000529907
0.000506211
0.000465305
0.000495591
0.000519009
0.000534108
0.000539234
0.00053275
0.000514424
0.000488087
0.000524857
0.000554741
0.000571547
0.000574813
0.000564338
0.00054254
0.000506183
0.00055436
0.000596735
0.000613838
0.000610645
0.000591186
0.000562561
0.000516049
0.000573888
0.00058932
0.000603772
0.00063892
0.00060705
0.000571703
0.000513745
0.000571894
0.000616748
0.00063558
0.000634697
0.000602951
0.000566693
0.000497419
0.000545807
0.000588078
0.000606458
0.000600904
0.000578749
0.000546963
0.000469951
0.000509135
0.000540227
0.000556781
0.000556341
0.000541082
0.000514719
0.000481355
0.000514034
0.000539738
0.000555439
0.000558844
0.00054921
0.000527621
0.000505868
0.000547262
0.000581265
0.000599447
0.00060167
0.0005857
0.000557959
0.000525329
0.000579949
0.000625489
0.000643756
0.000643194
0.000621212
0.000580518
0.00053507
0.00059887
0.000671178
0.000685677
0.000672379
0.000638545
0.000590798
0.000530524
0.000596464
0.00067557
0.000694604
0.000670676
0.000633162
0.000583589
0.000510734
0.000566458
0.000614661
0.000636811
0.000630994
0.000600581
0.000559353
0.000480138
0.000521364
0.000556291
0.00057667
0.000572918
0.000552939
0.000523285
0.000497031
0.000530616
0.000557379
0.000574017
0.000575237
0.000563469
0.000539764
0.000521831
0.000566013
0.000607998
0.000632894
0.000626091
0.000601539
0.000570503
0.000540696
0.000609483
0.000662162
0.000681691
0.000686645
0.000643495
0.000591985
0.000551358
0.00062409
0.000698005
0.000734023
0.000715787
0.000672662
0.000602463
0.000543661
0.000614713
0.00069997
0.000723119
0.000711832
0.000657861
0.000592376
0.000520548
0.000577906
0.000633474
0.000663191
0.000658855
0.000610185
0.000566274
0.000489925
0.00052932
0.000565016
0.000586069
0.000580203
0.000558875
0.000530134
0.000512022
0.000544163
0.000567624
0.000581915
0.000584045
0.000574162
0.000550536
0.000534383
0.00056864
0.000601999
0.000623309
0.000619314
0.00060341
0.000579453
0.000546339
0.000583173
0.000649907
0.000686879
0.000654513
0.000620522
0.000594888
0.000553006
0.000605824
0.000674917
0.000703967
0.000690599
0.000624605
0.0005992
0.00054495
0.000590602
0.000611464
0.000684097
0.000662413
0.000611257
0.000589826
0.000525524
0.000556931
0.000594414
0.000618689
0.000597078
0.000589179
0.000568027
0.00049876
0.000531431
0.000555947
0.000568762
0.000569229
0.000558862
0.000535222
0.000529546
0.000562526
0.000586163
0.000598639
0.000600532
0.000589036
0.000563394
0.00055179
0.000579454
0.000593464
0.00060014
0.000613213
0.000613595
0.000593009
0.000561146
0.000564148
0.00056364
0.000614025
0.000594246
0.000607826
0.00060767
0.000561437
0.000552155
0.000561495
0.000657996
0.00057767
0.000591261
0.000609611
0.000554169
0.000547244
0.000529193
0.000548339
0.000546432
0.000587772
0.000600337
0.00053811
0.000551256
0.00054215
0.000540806
0.000562484
0.000588951
0.000579182
0.000511246
0.000541708
0.000561146
0.000570924
0.000575407
0.000568036
0.000544791
0.00055123
0.000589057
0.000617117
0.000630848
0.000628642
0.000610565
0.00057882
0.000578953
0.000617953
0.000644611
0.000655456
0.000659848
0.000645797
0.000613597
0.000594098
0.000620146
0.000616739
0.000585009
0.00064838
0.000656919
0.000634547
0.000596255
0.000605258
0.000588812
0.000540238
0.000624443
0.000650933
0.000639556
0.000586283
0.0006018
0.000598226
0.000603358
0.00062582
0.000645521
0.00062844
0.000563441
0.000592667
0.000599819
0.000600895
0.000623484
0.000626512
0.000600592
0.000530946
0.000565938
0.000592122
0.000605021
0.000604937
0.000589531
0.000560441
0.000569333
0.000612942
0.000645114
0.000658781
0.000651965
0.000627069
0.000588626
0.00060479
0.000659811
0.000704236
0.000720559
0.000709771
0.000676061
0.00062912
0.000627224
0.000693202
0.000716554
0.000706309
0.000732354
0.000712808
0.000655991
0.00063103
0.000691839
0.000686696
0.000662479
0.00071902
0.000726364
0.000664501
0.000617421
0.000676243
0.000682097
0.000698881
0.000707955
0.000708518
0.000650578
0.000588511
0.00064102
0.000678669
0.000693274
0.000695498
0.000664907
0.000617252
0.000549835
0.00058999
0.000621716
0.000637146
0.000631951
0.000607821
0.000572118
0.000577699
0.000623568
0.000658375
0.000671389
0.000659757
0.000630577
0.00058973
0.000617226
0.00068042
0.00073634
0.000749888
0.000728614
0.000684307
0.000631235
0.00064393
0.00072608
0.000793885
0.000791556
0.000780604
0.000727429
0.000658886
0.000648748
0.000731417
0.000766596
0.000765569
0.000773885
0.000741717
0.000666748
0.0006322
0.000704708
0.000751676
0.000749834
0.000761869
0.000719184
0.000652104
0.000600788
0.000656209
0.000704397
0.000725405
0.00071039
0.00066931
0.000618995
0.000560157
0.000600038
0.000630098
0.000643057
0.00063547
0.000610587
0.000574366
0.000577421
0.000618013
0.000648593
0.00066179
0.000649208
0.000622335
0.000585134
0.000613963
0.000670073
0.00072522
0.000745675
0.00071629
0.000671462
0.000622873
0.000640068
0.000719791
0.000807878
0.000796869
0.00077498
0.000713354
0.000647715
0.000648359
0.00073145
0.000795758
0.000779562
0.000771642
0.000727946
0.000655134
0.000631293
0.00069953
0.000749478
0.000753573
0.000745562
0.000702604
0.000641462
0.000601552
0.00065024
0.000693788
0.000709626
0.000694131
0.000656145
0.000612227
0.000563473
0.000599025
0.000624368
0.000634259
0.000626491
0.000604661
0.000572243
0.000575389
0.000607098
0.000628403
0.000636594
0.000630333
0.000611985
0.000581077
0.00060651
0.00062954
0.000648234
0.000672088
0.000657776
0.000646702
0.000614003
0.000626389
0.000651444
0.000684019
0.000745409
0.000695248
0.000676028
0.000635458
0.000632692
0.00067827
0.000743348
0.000741147
0.000730321
0.000686339
0.000641919
0.000621491
0.000651783
0.000709877
0.000712537
0.000701335
0.000670413
0.000630678
0.000598123
0.000627654
0.000654802
0.000669863
0.000658794
0.000638387
0.000606183
0.000565004
0.000594965
0.000615645
0.000623666
0.000616794
0.000599241
0.000572056
0.000582029
0.000612945
0.000633407
0.000640174
0.000633608
0.000614109
0.000584701
0.000613981
0.00063018
0.000628073
0.000633005
0.000651669
0.000646018
0.000616178
0.00063358
0.000628362
0.000617671
0.000656388
0.000664505
0.000670177
0.000636646
0.000637917
0.000631232
0.000650276
0.00067978
0.000675661
0.000677916
0.000642526
0.000628634
0.000638884
0.000628329
0.000658042
0.000664001
0.000662991
0.000632127
0.000604756
0.000629711
0.000647988
0.000659228
0.000651014
0.000637162
0.000609962
0.000572465
0.000600718
0.000620095
0.000626517
0.000619948
0.000603856
0.000579409
0.000594271
0.000629527
0.000653022
0.000657868
0.000647548
0.000624821
0.000592752
0.000631724
0.000663677
0.000674565
0.000672427
0.000677048
0.000662649
0.000626235
0.000656574
0.000678705
0.000664998
0.000669462
0.000687263
0.000689454
0.00064703
0.000661389
0.000675158
0.000651601
0.000698207
0.000695366
0.000697411
0.000652977
0.000647649
0.000674183
0.000666716
0.000677613
0.000688293
0.000682074
0.000643996
0.000620432
0.000652494
0.000675027
0.000682129
0.000672858
0.00065383
0.000622801
0.000585071
0.000615475
0.000635042
0.000641051
0.000634584
0.000618006
0.000591419
0.000602374
0.000642229
0.000667788
0.000673018
0.000658999
0.000632027
0.000597038
0.000645737
0.000698315
0.000728517
0.000727677
0.000715042
0.000676059
0.00063269
0.000674908
0.000735155
0.000719044
0.000731839
0.000749594
0.000706632
0.000655043
0.000681402
0.000738041
0.000717647
0.000748422
0.000757765
0.000714489
0.000661761
0.000665904
0.000722942
0.000750416
0.000750736
0.000741676
0.000700023
0.000653855
0.000634644
0.000678165
0.000707968
0.000714293
0.000699281
0.0006686
0.000632549
0.000595096
0.000628999
0.000650145
0.000656432
0.000649131
0.000629767
0.00060039
0.000603303
0.000643321
0.000667609
0.000670994
0.000657173
0.000631026
0.000596382
0.000649614
0.000704961
0.000740135
0.00073928
0.000713078
0.000673376
0.000631818
0.000683708
0.000755988
0.000782778
0.000766124
0.000755107
0.000701785
0.000654111
0.0006913
0.000764055
0.000775323
0.000773654
0.000764898
0.000710098
0.000661752
0.000673252
0.000735224
0.000774332
0.000776585
0.000745427
0.000698928
0.000655209
0.000640256
0.000684831
0.000713939
0.000718538
0.000701002
0.00067127
0.000635361
0.000599803
0.000634783
0.0006566
0.000662854
0.000654702
0.000634776
0.00060393
0.000148461
1.80376e-05
0.000431056
0.000393163
0.000341422
0.000268232
0.000159404
1.95081e-05
0.00048825
0.000465399
0.000436712
0.000398388
0.000346577
0.000273374
0.000163514
2.00263e-05
0.000487599
0.00046364
0.000433579
0.000394475
0.000342487
0.000269602
0.000160565
1.9487e-05
0.00047751
0.000452542
0.000421345
0.000381608
0.000329557
0.000257359
0.000150952
1.7998e-05
0.000457112
0.000431956
0.000400158
0.000360109
0.000308191
0.000237166
0.000135436
1.58335e-05
0.000462781
0.000438178
0.000405987
0.00036427
0.000309566
0.000235633
0.000133186
1.59708e-05
0.000485916
0.000460878
0.000428839
0.00038743
0.000332752
0.000257497
0.000149507
1.81062e-05
0.000501259
0.000475528
0.000443027
0.000401528
0.000346911
0.000271178
0.000160129
1.95575e-05
0.000508119
0.000481169
0.000447949
0.000406101
0.000351545
0.000275925
0.000163975
2.00695e-05
0.000505491
0.000477333
0.000443277
0.000401118
0.000346751
0.000271706
0.00016077
1.95336e-05
0.000492206
0.000463445
0.000429134
0.000387012
0.000333008
0.000258936
0.000150903
1.80471e-05
0.000468199
0.000440261
0.000406222
0.000364345
0.000310763
0.000238057
0.000135037
1.58759e-05
0.000475758
0.000448702
0.000414313
0.000370674
0.000314106
0.000238213
0.000133859
1.60196e-05
0.000500535
0.000472323
0.000437699
0.000394137
0.000337553
0.000260324
0.000150317
1.81545e-05
0.000516743
0.000487221
0.000451811
0.000408018
0.000351513
0.000273845
0.000160764
1.96011e-05
0.000523312
0.00049239
0.000456018
0.000411976
0.000355721
0.00027833
0.00016445
2.01139e-05
0.000518725
0.000486873
0.000450095
0.000406069
0.000350414
0.000273795
0.000161095
1.95825e-05
0.000502642
0.00047109
0.0004347
0.000391162
0.000336094
0.000260568
0.000150987
1.80967e-05
0.000475931
0.000446114
0.000410738
0.000367816
0.000313122
0.000239024
0.000134746
1.59178e-05
0.000486951
0.000458111
0.000422094
0.000376968
0.000318992
0.00024144
0.000135069
1.61041e-05
0.000512738
0.00048228
0.000445678
0.000400612
0.000342637
0.000263787
0.000151652
1.82442e-05
0.000529686
0.000497023
0.000459436
0.000414101
0.000356412
0.00027724
0.00016207
1.96992e-05
0.000535827
0.000501517
0.000463024
0.000417581
0.000360397
0.000281623
0.00016572
2.02198e-05
0.000529652
0.000494852
0.000456417
0.000411712
0.000354789
0.000276816
0.000162225
1.96868e-05
0.000511307
0.000477515
0.000440102
0.000396129
0.000339916
0.000263098
0.000151788
1.81887e-05
0.000482354
0.000451353
0.000415246
0.000371722
0.000316198
0.000240868
0.000135105
1.5995e-05
0.000497584
0.000467292
0.000429991
0.00038376
0.000324642
0.000245716
0.000137219
1.61802e-05
0.000524457
0.000491788
0.000453631
0.000407464
0.000348448
0.000268256
0.000153923
1.83231e-05
0.000541876
0.000506648
0.000467334
0.000421164
0.000362271
0.000281846
0.000164534
1.97962e-05
0.000547823
0.000510312
0.00047032
0.000424328
0.000366037
0.000286166
0.0001682
2.03325e-05
0.000540097
0.000502533
0.000462772
0.000417065
0.000359877
0.000281042
0.000164521
1.98049e-05
0.000519557
0.000484063
0.000445815
0.000401057
0.000344582
0.000266878
0.000153704
1.83007e-05
0.000488879
0.00045706
0.000420436
0.000376545
0.000320501
0.000244103
0.00013657
1.60998e-05
0.00050758
0.000476102
0.000437819
0.00039078
0.000330826
0.000250841
0.000140217
1.62399e-05
0.000534735
0.00050061
0.000461608
0.00041461
0.000354693
0.000273437
0.000157037
1.83822e-05
0.000551565
0.000515202
0.0004751
0.000427872
0.000368448
0.000287216
0.000167874
1.98669e-05
0.00055668
0.000518196
0.000477568
0.000430834
0.000372282
0.000291653
0.00017167
2.04177e-05
0.000547625
0.00050949
0.000469493
0.00042386
0.000366173
0.00028642
0.000167826
1.9897e-05
0.000526176
0.00049048
0.000452175
0.000407624
0.000350618
0.000271856
0.000156571
1.83943e-05
0.000495062
0.000463085
0.000426416
0.000382511
0.000326054
0.000248575
0.000139048
1.61971e-05
0.000517243
0.000484766
0.000445587
0.000397682
0.000336842
0.000255594
0.000142975
1.6277e-05
0.000544263
0.000509364
0.000469482
0.000421564
0.000360761
0.000278291
0.000159923
1.84181e-05
0.000559368
0.000523369
0.000482957
0.000435174
0.000374857
0.000292295
0.000170873
1.99022e-05
0.000562127
0.000525437
0.00048521
0.000438389
0.000378887
0.000296863
0.000174718
2.04564e-05
0.000552515
0.000516104
0.000476881
0.000431207
0.000372724
0.000291532
0.000170702
1.99425e-05
0.000531694
0.000497029
0.000459316
0.000414555
0.000356873
0.000276652
0.000159218
1.84565e-05
0.000500991
0.000469551
0.000433259
0.000389224
0.000331941
0.000252957
0.000141416
1.62775e-05
0.000527926
0.000493895
0.000453233
0.000403987
0.000341568
0.000258487
0.000144121
1.63021e-05
0.000556069
0.000519511
0.000478231
0.000428556
0.000365895
0.000281454
0.000161183
1.84423e-05
0.000571598
0.000534029
0.000491953
0.000442727
0.00038051
0.000295657
0.000172096
1.99181e-05
0.000573751
0.000536183
0.000494525
0.000445814
0.000384453
0.000300184
0.000175844
2.04725e-05
0.00056353
0.000526497
0.000486254
0.000438845
0.000378457
0.000294868
0.000171774
1.99715e-05
0.000542054
0.00050689
0.000468235
0.000422442
0.000362705
0.000279876
0.000160267
1.85134e-05
0.000510473
0.00047864
0.000441549
0.000396263
0.000336873
0.000255612
0.000142402
1.63664e-05
0.000538846
0.000502139
0.00045938
0.000407966
0.000343961
0.00025928
0.000143798
1.63324e-05
0.000569994
0.00052961
0.000484992
0.000433143
0.000368799
0.000282528
0.000160874
1.8449e-05
0.000588748
0.000545974
0.000500647
0.00044864
0.000384048
0.000296875
0.000171633
1.98824e-05
0.000592578
0.000549431
0.00050409
0.000452845
0.000388712
0.000301586
0.00017532
2.0416e-05
0.000581717
0.000539963
0.000496435
0.000446174
0.000382722
0.000296086
0.000171134
1.99146e-05
0.00055751
0.00051922
0.000478416
0.000428864
0.000366088
0.000280559
0.000159592
1.84842e-05
0.000522954
0.00048897
0.000449914
0.000401312
0.000339271
0.000255876
0.000141866
1.63772e-05
0.000545219
0.000506771
0.000462454
0.000410247
0.000345489
0.000259824
0.000143489
1.63544e-05
0.000578813
0.00053525
0.000488883
0.000435785
0.000370428
0.000282987
0.000160332
1.84226e-05
0.000600161
0.000552956
0.000504874
0.000451059
0.000385453
0.000297071
0.000170821
1.98101e-05
0.000605913
0.000557434
0.000509279
0.00045564
0.000390204
0.000301637
0.000174325
2.03146e-05
0.000594313
0.000548054
0.000501451
0.000449206
0.000384234
0.00029596
0.000170051
1.98143e-05
0.000568008
0.000526565
0.000482348
0.000431544
0.00036726
0.000280148
0.000158512
1.84107e-05
0.000531461
0.000495502
0.000453974
0.000403766
0.000339923
0.000255049
0.000140733
1.63229e-05
0.000545915
0.000507552
0.000463873
0.000412057
0.000347343
0.000261229
0.000144022
1.64036e-05
0.00057925
0.000535723
0.000489906
0.000437305
0.000372071
0.000284187
0.000160658
1.84303e-05
0.000600564
0.000553162
0.000505184
0.000452283
0.000386889
0.0002981
0.000171013
1.97833e-05
0.000606757
0.000558001
0.000509872
0.000457085
0.000391662
0.000302534
0.000174378
2.0263e-05
0.000595162
0.000549248
0.000503045
0.000450973
0.000385707
0.000296692
0.000170002
1.97651e-05
0.000569738
0.000528803
0.000485417
0.000433904
0.00036881
0.000280762
0.000158455
1.83827e-05
0.000534331
0.000498823
0.000457291
0.000406095
0.000341121
0.00025529
0.000140507
1.63138e-05
0.000544062
0.000507587
0.000465164
0.000414413
0.000349938
0.000263478
0.00014526
1.64407e-05
0.000574948
0.000534114
0.000490327
0.000439236
0.000374486
0.000286336
0.000161873
1.84252e-05
0.000594518
0.000550756
0.000505702
0.000454266
0.00038926
0.000300152
0.000172156
1.97472e-05
0.00060006
0.000555819
0.000510722
0.000459252
0.000394068
0.000304499
0.000175454
2.0213e-05
0.000590082
0.000548045
0.000504346
0.000453486
0.000388256
0.000298678
0.000171116
1.97259e-05
0.000567655
0.000529633
0.0004876
0.000436877
0.000371599
0.000282897
0.000159718
1.83762e-05
0.000535628
0.000501777
0.000460627
0.000409408
0.000344115
0.000257699
0.00014208
1.63457e-05
0.000543955
0.000509248
0.000468024
0.000417588
0.000352659
0.000265478
0.000146254
1.64655e-05
0.000572524
0.000535015
0.000492972
0.000442465
0.000377214
0.000288198
0.000162724
1.84034e-05
0.000589854
0.000550568
0.000508208
0.00045748
0.000391963
0.000301908
0.000172919
1.96922e-05
0.000594659
0.000555631
0.000513065
0.000462485
0.000396755
0.000306191
0.000176189
2.01406e-05
0.000586942
0.000549401
0.000508017
0.000457454
0.000391362
0.000300639
0.000172071
1.96616e-05
0.000567942
0.000533177
0.000492276
0.000441531
0.000375188
0.0002853
0.000161029
1.83429e-05
0.000539139
0.000506647
0.000465744
0.000414208
0.000348161
0.000260697
0.000143876
1.63568e-05
0.000548455
0.000513693
0.000471889
0.000420285
0.000353997
0.000265662
0.000145872
1.6438e-05
0.000577004
0.000540002
0.000497557
0.000445631
0.000378712
0.000288305
0.000162168
1.83418e-05
0.000593773
0.00055586
0.000513143
0.000461021
0.000393688
0.000302046
0.000172302
1.96054e-05
0.000599138
0.00056089
0.000518443
0.000466378
0.000398709
0.000306436
0.000175613
2.00409e-05
0.000592322
0.000556079
0.00051406
0.000461773
0.000393634
0.000301215
0.000171779
1.95795e-05
0.000575062
0.000540372
0.000498608
0.000446189
0.000377909
0.000286451
0.00016123
1.8298e-05
0.000547816
0.000514292
0.000471978
0.000419248
0.000351487
0.000262516
0.000144585
1.6353e-05
0.000554626
0.000517852
0.000474354
0.000421048
0.000353289
0.000263951
0.000144219
1.63201e-05
0.000584976
0.000545765
0.000501016
0.000446933
0.000378291
0.00028672
0.000160483
1.81988e-05
0.000603218
0.000563015
0.000517558
0.00046292
0.000393599
0.000300617
0.000170626
1.94404e-05
0.000609216
0.000568698
0.000523588
0.000468776
0.000398971
0.000305243
0.000174063
1.9871e-05
0.00060316
0.000564397
0.000519443
0.000464487
0.00039427
0.000300459
0.000170572
1.94288e-05
0.000585923
0.000548342
0.000504012
0.00044925
0.0003791
0.00028634
0.000160537
1.81832e-05
0.000556864
0.000521444
0.000477589
0.000422901
0.000353308
0.000262982
0.000144306
1.62743e-05
0.000557304
0.000519514
0.000474714
0.0004203
0.000351678
0.000261826
0.000142393
1.61762e-05
0.000588779
0.000547959
0.000501621
0.000446373
0.000376886
0.000284794
0.000158734
1.8034e-05
0.000608471
0.000566001
0.000518633
0.00046266
0.00039242
0.00029886
0.00016892
1.92593e-05
0.000615217
0.000572864
0.000525407
0.00046903
0.00039818
0.000303812
0.000172536
1.96894e-05
0.000609845
0.000568612
0.000521641
0.00046517
0.00039393
0.000299461
0.000169336
1.92671e-05
0.000591897
0.000552692
0.000506746
0.000450508
0.000379326
0.000285843
0.000159636
1.80444e-05
0.000562969
0.000525785
0.000480615
0.000424622
0.000353966
0.000262818
0.000143635
1.61574e-05
0.000556852
0.000518801
0.000473889
0.000419312
0.000350463
0.000260403
0.000141142
1.6066e-05
0.000588165
0.000547048
0.000500696
0.000445415
0.000375826
0.000283569
0.000157563
1.79071e-05
0.000607964
0.000565316
0.000517876
0.000461855
0.000391552
0.000297864
0.000167895
1.91252e-05
0.000615687
0.000572965
0.000525156
0.000468596
0.000397643
0.000303145
0.000171729
1.95576e-05
0.000611173
0.00056943
0.000521976
0.000465203
0.000393797
0.000299157
0.000168767
1.9137e-05
0.000594515
0.000554396
0.00050781
0.00045112
0.000379663
0.000285901
0.00015927
1.79236e-05
0.000565816
0.000528329
0.000482442
0.000425822
0.000354727
0.000263135
0.000143403
1.60541e-05
0.000414539
0.000386225
0.000354913
0.000318575
0.000272736
0.000209398
0.000118193
1.51139e-05
0.000433007
0.000399709
0.000366571
0.000330194
0.000285386
0.000222926
0.000129414
1.70441e-05
0.000443083
0.000406037
0.000371853
0.000335746
0.000291988
0.000230556
0.000136229
1.83885e-05
0.000443466
0.000406038
0.000372576
0.00033746
0.000294363
0.000233182
0.000138471
1.89033e-05
0.000434456
0.000401632
0.000370671
0.00033645
0.00029308
0.000230882
0.000135889
1.84863e-05
0.0004206
0.000393544
0.000365136
0.000331347
0.00028675
0.000222951
0.000128642
1.72417e-05
0.000404032
0.000381519
0.000354449
0.000319995
0.000273732
0.000208871
0.000117213
1.53813e-05
0.000423707
0.000394395
0.000362138
0.000324618
0.000276996
0.000211343
0.000118247
1.52626e-05
0.000443615
0.000409564
0.000375338
0.000337607
0.000290976
0.000226004
0.000130026
1.72452e-05
0.000454342
0.000417775
0.000382394
0.000344644
0.000298763
0.000234473
0.000137248
1.86249e-05
0.000455738
0.000419443
0.00038471
0.00034753
0.000301935
0.000237581
0.000139736
1.91623e-05
0.000449206
0.000416258
0.000383524
0.000346994
0.000300871
0.000235407
0.000137311
1.87578e-05
0.00043685
0.000408341
0.000377794
0.000341543
0.000294151
0.00022726
0.000130114
1.75041e-05
0.000419832
0.000395386
0.000366098
0.000329209
0.000280283
0.000212621
0.000118518
1.56101e-05
0.000432265
0.000402334
0.000369493
0.000331174
0.000282168
0.000214434
0.000119123
1.54506e-05
0.000453808
0.000418813
0.000383878
0.000345381
0.000297444
0.000230171
0.000131458
1.74762e-05
0.000466407
0.000428755
0.000392319
0.000353526
0.000306118
0.000239371
0.000139084
1.88874e-05
0.00046943
0.000432083
0.000395966
0.000357293
0.000309899
0.000242879
0.000141795
1.94427e-05
0.000464147
0.000429834
0.000395362
0.00035716
0.000308988
0.000240766
0.000139463
1.90389e-05
0.00045208
0.000421865
0.000389632
0.000351513
0.000301936
0.000232339
0.000132203
1.7766e-05
0.000434245
0.000408254
0.000377242
0.000338464
0.000287347
0.000217139
0.00012037
1.58355e-05
0.00044151
0.000411183
0.000378037
0.000339217
0.000289061
0.000219317
0.000121321
1.56844e-05
0.000464697
0.000428772
0.000393332
0.000354433
0.000305388
0.000235984
0.000134164
1.77571e-05
0.000479442
0.000440069
0.000402814
0.000363443
0.000314887
0.00024589
0.000142195
1.92043e-05
0.000484297
0.000444846
0.000407531
0.000367946
0.000319121
0.000249746
0.000145132
1.9773e-05
0.000479562
0.000443281
0.000407503
0.00036803
0.000318202
0.000247528
0.00014276
1.93576e-05
0.000467204
0.000435408
0.000401737
0.00036217
0.000310791
0.000238726
0.000135299
1.80527e-05
0.000448528
0.000421198
0.000388748
0.000348408
0.000295451
0.00022293
0.000123166
1.60805e-05
0.000451304
0.00042111
0.000387951
0.000348776
0.000297622
0.000225918
0.00012488
1.59139e-05
0.000475236
0.000439442
0.000404023
0.000364932
0.000314935
0.00024348
0.000138249
1.80289e-05
0.000491526
0.000451905
0.000414404
0.000374699
0.0003252
0.000254082
0.000146734
1.95128e-05
0.00049802
0.000457903
0.000419989
0.000379825
0.000329868
0.000258235
0.000149837
2.0097e-05
0.000493917
0.000456886
0.000420419
0.000380103
0.000328822
0.000255834
0.000147327
1.96677e-05
0.000482028
0.000449321
0.000414588
0.000373794
0.000320787
0.00024642
0.000139497
1.83257e-05
0.000462927
0.000434556
0.000400855
0.00035919
0.00030469
0.000230021
0.000126978
1.63063e-05
0.00046152
0.000431948
0.000399035
0.000359407
0.000306868
0.000232855
0.000128603
1.61246e-05
0.000485215
0.000450813
0.000416
0.000376677
0.000325291
0.000251314
0.000142506
1.82769e-05
0.000501198
0.000463892
0.000427118
0.00038724
0.000336378
0.000262675
0.000151467
1.97928e-05
0.000508687
0.000470903
0.000433483
0.000392758
0.000341304
0.000267067
0.000154787
2.03894e-05
0.00050657
0.000470726
0.000434148
0.000392878
0.000339898
0.000264318
0.000152071
1.99425e-05
0.00049633
0.000463425
0.000427889
0.0003858
0.000331035
0.000254277
0.000143857
1.85617e-05
0.000477311
0.000448119
0.000413243
0.000370172
0.000313954
0.000237062
0.000130827
1.64934e-05
0.000474835
0.000445339
0.000411761
0.000370361
0.000315097
0.000238001
0.000130825
1.63374e-05
0.000499096
0.000465245
0.00043018
0.000389162
0.000334902
0.000257453
0.000145216
1.85237e-05
0.000515699
0.000479174
0.000442227
0.000400787
0.00034701
0.000269608
0.000154617
2.00676e-05
0.000524195
0.000487097
0.000448972
0.00040656
0.000352138
0.000274313
0.000158136
2.06721e-05
0.000523414
0.000487304
0.000449396
0.00040592
0.000350088
0.000271166
0.00015535
2.02064e-05
0.000513378
0.000479298
0.000441964
0.000397583
0.000340068
0.000260363
0.000146765
1.87839e-05
0.000493342
0.000462402
0.000425551
0.000380287
0.000321679
0.000242256
0.000133284
1.6665e-05
0.000492425
0.000460803
0.000424628
0.000379945
0.000321131
0.000240758
0.000131394
1.64943e-05
0.000519584
0.000483191
0.000445281
0.000400636
0.000342403
0.000261144
0.000146156
1.87036e-05
0.000538759
0.000498865
0.000458823
0.000413563
0.00035552
0.000273928
0.000155796
2.02495e-05
0.000548617
0.000507346
0.000465711
0.000419415
0.000360759
0.000278789
0.000159429
2.08474e-05
0.000547387
0.000506936
0.000465162
0.000417793
0.000358013
0.000275346
0.000156577
2.03613e-05
0.000534727
0.000496617
0.000455503
0.000407494
0.000346644
0.000263837
0.000147803
1.89094e-05
0.000510899
0.000476521
0.00043658
0.000388261
0.000326811
0.000244852
0.000133982
1.67527e-05
0.000508384
0.000474005
0.000434801
0.000387054
0.00032528
0.000242329
0.000131434
1.66129e-05
0.000538823
0.000498738
0.000457383
0.000409352
0.000347768
0.000263494
0.000146478
1.88368e-05
0.000560722
0.000516173
0.000472224
0.000423179
0.000361494
0.000276661
0.000156217
2.0374e-05
0.000571774
0.000524923
0.000479385
0.000429092
0.00036682
0.00028157
0.000159887
2.09546e-05
0.000569449
0.000523273
0.00047734
0.000426356
0.000363285
0.000277795
0.000156993
2.04495e-05
0.000552878
0.000510025
0.000465439
0.000414439
0.000350947
0.000265787
0.000148074
1.89736e-05
0.000524447
0.000486742
0.00044403
0.000393338
0.00032987
0.000246102
0.000133946
1.67876e-05
0.000518248
0.000482733
0.000442047
0.000392614
0.000329156
0.000244581
0.000132229
1.67579e-05
0.000549934
0.000508509
0.000465642
0.000415884
0.00035244
0.000266325
0.000147546
1.89995e-05
0.000573183
0.00052671
0.000481012
0.000430149
0.00036657
0.00027981
0.000157398
2.05324e-05
0.000584901
0.000535492
0.000487868
0.000435831
0.00037175
0.000284691
0.000161074
2.10926e-05
0.000581125
0.000532344
0.000484574
0.000432214
0.000367738
0.000280742
0.000158161
2.05675e-05
0.000562014
0.000517332
0.000471339
0.000419297
0.00035465
0.000268254
0.000149031
1.90616e-05
0.000531145
0.000492284
0.000448548
0.00039712
0.000332767
0.000247953
0.00013455
1.685e-05
0.000523512
0.000488565
0.000447913
0.000398127
0.000333924
0.000248217
0.000134152
1.69621e-05
0.000554394
0.000514385
0.000471866
0.000421835
0.000357731
0.000270442
0.000149734
1.92269e-05
0.000576797
0.000532177
0.000487121
0.000436257
0.000372163
0.00028427
0.000159858
2.07712e-05
0.000587783
0.000540387
0.000493508
0.00044158
0.00037717
0.000289201
0.000163644
2.13201e-05
0.000582622
0.000536286
0.000489557
0.00043746
0.000372873
0.000285076
0.000160624
2.07668e-05
0.000563483
0.000520637
0.000475526
0.000423886
0.000359191
0.000272134
0.00015121
1.92219e-05
0.000533256
0.000495443
0.000452302
0.000401084
0.000336695
0.000251278
0.000136404
1.69767e-05
0.000528245
0.000494649
0.000454345
0.000404197
0.000339155
0.000252199
0.000136287
1.71992e-05
0.000557219
0.000519862
0.000478474
0.000428373
0.000363441
0.000274782
0.000152085
1.94926e-05
0.000577349
0.000536822
0.000493679
0.000443133
0.000378335
0.00028911
0.000162558
2.1051e-05
0.000586323
0.000544073
0.000499685
0.000448172
0.000383356
0.000294246
0.00016654
2.15934e-05
0.000581298
0.000539583
0.000495128
0.000443745
0.000378716
0.000289828
0.000163387
2.10091e-05
0.00056369
0.000524084
0.000480696
0.000429349
0.00036437
0.000276381
0.000153618
1.94205e-05
0.000535102
0.00049897
0.000456706
0.000405758
0.000341143
0.000254895
0.000138434
1.71419e-05
0.000536788
0.000502737
0.000461424
0.000409823
0.000343195
0.000254667
0.000137377
1.73967e-05
0.000565765
0.000528706
0.000486427
0.000434802
0.000368083
0.000277668
0.000153349
1.97218e-05
0.000585938
0.000546135
0.000502305
0.000450272
0.000383588
0.000292412
0.000164033
2.12961e-05
0.000594734
0.000553233
0.000508279
0.000455561
0.000388883
0.000297654
0.000168041
2.18312e-05
0.000589791
0.000548367
0.000503325
0.00045057
0.00038381
0.000293106
0.000164836
2.12265e-05
0.000571705
0.000532091
0.000487794
0.000435197
0.000368731
0.000279082
0.000154771
1.9601e-05
0.000542307
0.000505776
0.000462494
0.000410511
0.000344585