/*--------------------------------*- C++ -*----------------------------------*\
| =========                 |                                                 |
| \\      /  F ield         | OpenFOAM: The Open Source CFD Toolbox           |
|  \\    /   O peration     | Version:  plus.master.MPPICInterFoam            |
|   \\  /    A nd           | Web:      www.OpenFOAM.com                      |
|    \\/     M anipulation  |                                                 |
\*---------------------------------------------------------------------------*/
FoamFile
{
    version     2.0;
    format      ascii;
    class       volScalarField;
    location    "3.6";
    object      p_rgh;
}
// * * * * * * * * * * * * * * * * * * * * * * * * * * * * * * * * * * * * * //

dimensions      [1 -1 -2 0 0 0 0];

internalField   nonuniform List<scalar> 
11821
(
5671.77
5522.21
5671.29
5605.61
5670.05
5670.81
5687.02
5689.58
5691.07
5690.89
5689.01
5686.52
5684.68
5666.63
5480.24
5096.41
5203.23
5538.63
5669.77
5686.14
5532.99
4404.82
3302.7
3486.23
4582.47
5556.67
5688.06
5268.24
3440.75
3027.75
3028.12
3389.38
5285.93
5688.89
5448.52
3820.78
3030.07
3028.95
3843.61
5470.08
5688.53
5647.9
5142.12
4198.49
4334.38
5240.11
5655.59
5687.08
5685.94
5671.73
5609.34
5630.35
5681.76
5686.34
5685.38
5692.28
5693.3
5694.45
5694.1
5692.86
5691.78
5690.47
5692.45
5685.71
5647.69
5665.66
5691.44
5692.78
5691.46
5688.17
5461.77
4473.34
4718.19
5524.44
5691.59
5692.34
5671.14
4642.21
2959.7
2958.78
4521.96
5668.32
5693.25
5687.83
5059.03
3132.57
3148.76
5063.72
5689.01
5692.89
5692.73
5641.28
5246.1
5314.98
5652.79
5693.48
5692.19
5693.32
5693.81
5696.08
5695.93
5694.26
5692.41
5691.17
5693.95
5694.76
5695.41
5695.24
5694.51
5693.6
5692.58
5694.9
5695.35
5697.22
5696.97
5695.8
5694.74
5693.47
5695.64
5695.28
5527.22
5568.18
5695.56
5695.78
5694.25
5696.83
5554.1
3348.42
3068.08
5500.14
5696.83
5694.82
5696.46
5643.13
4236.56
4185.15
5646.03
5696.26
5694.59
5695.79
5696.68
5667.38
5672.67
5696.34
5695.31
5693.97
5695.1
5695.83
5696.54
5696.39
5695.28
5694.28
5693.16
5693.87
5694.93
5695.66
5695.75
5695.18
5694.23
5693.04
5695.18
5687.34
5697.69
5697.98
5697.16
5695.93
5694.34
5696.23
5697.85
5698.69
5698.72
5698.85
5697.54
5695.56
5696.23
5697.5
4853.14
4260.14
5696.2
5699.05
5694.63
5696.15
5698.53
5513.07
5450.37
5700.28
5699.02
5696.49
5696.11
5697.76
5699.33
5699.92
5698.82
5678.55
5695.63
5695.01
5696.35
5693.02
5697.51
5691.24
5695.73
5694.07
5689.97
5690.91
5691.55
5691.6
5691.28
5690.43
5689.44
5691.17
5662.59
5637.21
5692.33
5638.96
5690.9
5690.66
5692.05
5533.68
5680.02
5693.57
5667.17
5487.39
5691.72
5661.56
5668.58
5321.85
5433.52
5680.24
5532.51
5685.82
5676.42
5600.76
5363.93
5589.74
5675.48
5431.25
5692.45
5691.56
5495.04
5526.37
5689.62
5419.29
5535.2
5691.58
5690.34
5691.61
5634.05
5516.74
5647.91
5691.51
5690.12
5679.55
5677.94
5676.93
5676.66
5677.29
5678.33
5679.72
5675.89
5527.44
5211.02
4996.51
5288.33
5607.73
5678.08
5658.43
4474.62
4719.79
5518.5
4224.78
4739.83
5675.74
5516.52
4877.31
4514.95
5391.13
4789.15
4020.15
5591.97
5545.57
4754.21
3345.62
4610.4
4163.43
4190.79
5609.89
5673.59
4794.51
4366.8
4351.15
3812.34
5044.29
5675.24
5676.71
5650.82
5360.34
5023.09
5405.51
5668.24
5677.43
5675.8
5672.3
5669.39
5656.97
5670.22
5673.33
5676.64
5661.84
5273.96
4515.76
4018.47
4580.73
5422.59
5673.03
5529.41
3710.39
2860.47
3506.02
2738.15
3951.84
5610.22
5267.4
3346.07
2773.75
4737.68
2775.22
3035.96
5383.66
5320.51
3330.29
2368.48
2707.12
2387.89
3276.98
5453.41
5617.24
4245.19
2958.99
2721.54
2846.22
4573.18
5666.12
5673.54
5572.52
5044.23
4638.57
5115.41
5632.35
5674.94
5689.09
5688.59
5688.19
5673.23
5688.18
5688.6
5689.29
5678.63
5319.79
4572.92
4071.2
4584.15
5440.72
5688.58
5559.91
3952.99
2640.62
2549.44
2636.77
4109.4
5636.58
5328.57
3248.31
2323.04
2544.27
2333.27
3253.39
5463
5397.97
3358.01
2306.81
2272.36
2310.57
3532.57
5537.66
5642.7
4488.07
3058.47
2669.37
3132.58
4815.69
5685.79
5689.18
5609.61
5206.94
4883.61
5288.38
5659.66
5690.26
5703.44
5705.15
5706.7
5695.27
5707.03
5704.98
5703.39
5701.29
5523.04
5161.5
4764.16
5025.19
5571
5705.05
5667.77
5007.57
3477.67
2578.66
3234.94
4942.3
5697.19
5594.28
4201.25
2348.84
2097.94
2320.23
4349.95
5668.47
5631.8
4389.32
2506.87
2212.46
2545.19
4642.31
5687.49
5691.74
5266.54
4257.39
3651.98
4421.34
5424.99
5704.79
5704.21
5686.37
5602.1
5509.76
5635.5
5699.17
5704.66
5707.98
5709.69
5698.84
5671.07
5700.38
5709.46
5708.01
5709.37
5529.7
5289.1
5085.77
5102.22
5602.29
5709.65
5709.58
5401.49
4952
3328.79
3884.38
5322.06
5711.1
5686.78
5204.36
2980.42
2012.56
2751.12
5043.24
5711.72
5709.52
5135.92
3410.29
2364.33
3405.27
5242.75
5711.68
5709.41
5540.16
5209.17
4909.56
5171.82
5614.84
5710.68
5708.57
5710
5710.4
5710.19
5711.71
5710.63
5709.37
5703.48
5690.86
5603.26
5503.71
5627.99
5704.32
5704.71
5703.36
5224.36
4576.58
4558.08
4620.4
5494.77
5704.95
5679.68
4870.77
4874.67
3866.53
3483.9
5130.89
5704.95
5631.28
5069.77
3866.84
1899.78
3044.35
4854.53
5705.72
5695.03
4888.9
3594.79
2543.49
3464.17
5122.09
5706.26
5704.68
5431.96
5075.19
4881.32
5015.43
5580.34
5706.56
5705.01
5705.26
5705.39
5706.15
5706.41
5706.62
5706.67
5696.6
5605.72
5251.08
5009.39
5423.27
5691.79
5700.05
5672.63
4343.11
3026.44
3005.94
3409.65
5201.73
5698.62
5474.46
3371.6
2823.97
3771.71
2407.27
4422.47
5697.23
5352.87
3829.47
3769.19
1787.51
2673.34
4140.89
5689.73
5582.23
3810.95
2899.23
2289.41
2816.42
4667.18
5698.97
5693.88
5038.52
4233.3
4087.13
4412.42
5476.11
5700.99
5700.1
5698.52
5696.87
5674.6
5698.65
5700.79
5702.9
5701.35
5557.95
5073.42
4826.06
5380.45
5688.9
5705.27
5640.75
3948.46
2389.22
2389.72
3050.31
5161.39
5705.62
5300.16
2622.99
1788.93
2423.33
2040.47
4270.15
5705.01
5158.41
2646.57
2490.01
1714.24
2021.67
4069.64
5700.48
5486.23
3191.06
1907.25
1788.63
2271.72
4641.39
5705.77
5686.18
4876.48
3782.95
3576.03
4302.53
5483.6
5706.88
5705.76
5705.02
5687.33
5655.88
5705.45
5706.64
5708.14
5716.47
5622.01
5321.29
5154.88
5556.44
5709.36
5712.27
5677.78
4430.88
2840.97
2528.41
3782.31
5463.24
5716.62
5455.99
3105.08
1713.7
1662.39
2321.64
4958.59
5722.03
5340.24
2863.16
1661.87
1662.23
2254.62
4856.25
5722.21
5572.31
3726.91
2122.27
1847
2860.04
5232.04
5719.68
5702.57
5182.77
4378.7
4168.69
4949.05
5634.12
5718.34
5719.76
5721.34
5719.6
5707.9
5721.92
5720.01
5719.67
5727.04
5706.46
5665.05
5623.34
5707.71
5727.64
5717.58
5714.84
5315.3
4328.83
3704.83
5143.14
5709.63
5718.55
5652.88
4689.01
2136.1
1638.22
3982.54
5659.28
5729.44
5614.55
4242.92
1740.14
1600.74
3918.92
5646.81
5729.59
5678.83
4982.97
3707.9
3048.81
4657.14
5695.33
5724.11
5718.79
5613.33
5422.6
5332.49
5633.56
5722.45
5709.53
5728.02
5729.01
5729.65
5730.62
5728.39
5725.6
5634.07
5729.83
5729.31
5730.01
5718.97
5729.28
5729.39
5723.51
5713.59
5476.96
5033.42
4653.45
5559.77
5730.43
5721.75
5642.44
5447.45
3643.13
2087.18
5201.88
5731.68
5730.08
5621.23
5300.93
2606.59
1711.45
5324.18
5732.05
5730.15
5683.72
5245.58
4849.14
4484.37
5449.48
5730.86
5721.38
5724.03
5707.1
5686.37
5640.07
5728.41
5727.62
5682.55
5729.31
5729.97
5730.41
5730.49
5729.5
5712.7
5535.96
5671.01
5671.22
5670.21
5670.35
5669.16
5670.65
5671.08
5671.3
5670.29
5670.06
5670.15
5670.31
5670.54
5670.76
5671.08
5671.31
5670.38
5670.12
5670.17
5670.33
5670.55
5670.8
5671.09
5671.33
5670.32
5670.19
5670.26
5670.42
5670.62
5670.84
5671.13
5671.37
5670.29
5670.33
5670.42
5670.56
5670.75
5670.97
5671.24
5671.48
5682.72
5681.56
5680.61
5679.48
5676.79
5678.81
5678.99
5678.97
5683.8
5682.1
5680.87
5679.49
5676.85
5678.69
5678.99
5678.97
5684.71
5682.7
5681.24
5680.14
5678.52
5679.08
5679.06
5679.04
5685.09
5682.94
5681.41
5680.35
5679.68
5679.23
5679.12
5679.11
5684.93
5682.83
5681.35
5680.34
5679.69
5679.26
5679.17
5679.19
5684.22
5682.44
5681.16
5680.27
5679.69
5679.32
5679.26
5679.31
5683.32
5682.09
5680.99
5680.29
5679.78
5679.5
5679.45
5679.51
5689.03
5687.87
5686.78
5685.52
5682.59
5684.66
5684.58
5684.46
5689.75
5688.21
5686.97
5685.55
5682.65
5684.65
5684.58
5684.46
5690.35
5688.65
5687.3
5686.19
5685.13
5684.91
5684.67
5684.53
5690.77
5688.98
5687.53
5686.42
5685.62
5685.04
5684.77
5684.64
5690.69
5688.91
5687.44
5686.42
5684.07
5685.13
5684.85
5684.75
5690.23
5688.64
5687.26
5686.36
5683.05
5685.2
5684.97
5684.91
5689.64
5688.42
5687.01
5685.69
5684.17
5685.38
5685.2
5685.15
5691.64
5690.59
5689.42
5688.86
5686.43
5687.88
5687.57
5687.35
5692.1
5690.91
5689.82
5688.94
5686.97
5687.88
5687.57
5687.32
5692.58
5691.23
5690.07
5689.2
5686.46
5688.02
5687.66
5687.39
5692.92
5691.49
5690.15
5689.36
5686.17
5688.13
5687.76
5687.49
5692.85
5691.47
5688.34
5664.46
5680.97
5688.2
5687.86
5687.58
5692.51
5691.2
5687.99
5664.16
5680.83
5688.26
5687.96
5687.75
5692.04
5691.03
5689.24
5682.93
5684.81
5688.39
5688.13
5687.98
5692.15
5691.17
5688.87
5681.41
5688.36
5688.69
5688.35
5688.12
5692.91
5691.66
5690.26
5689.01
5688.37
5688.75
5688.36
5688.1
5693.69
5692.28
5689.01
5670.67
5686.45
5688.88
5688.44
5688.15
5694.3
5692.68
5688.62
5652.12
5681.9
5688.97
5688.52
5688.24
5694.31
5692.69
5682.94
5608.72
5670.44
5689.02
5688.6
5688.35
5693.72
5692.24
5684.18
5608.59
5675.12
5689.04
5688.68
5688.48
5692.77
5691.68
5689.47
5676.83
5685
5689.04
5688.76
5688.59
5688.99
5688.44
5685.84
5668.1
5686.89
5687.43
5687.22
5687.05
5689.71
5688.92
5687.28
5671.91
5686.59
5687.49
5687.23
5687.04
5690.57
5689.6
5684.4
5605.87
5684.07
5687.55
5687.25
5687.04
5691.17
5689.94
5680.84
5604.51
5671.34
5687.53
5687.24
5687.05
5691.04
5689.82
5676.4
5604.43
5661.46
5687.52
5687.26
5687.09
5690.25
5689.29
5681.78
5604.26
5671.31
5687.5
5687.29
5687.15
5689.18
5688.49
5687.23
5675.29
5683.85
5687.38
5687.23
5687.13
5681.48
5682.67
5683.09
5664.51
5684.99
5685.54
5685.7
5685.74
5680.55
5682.15
5683.24
5648.39
5683.9
5685.46
5685.65
5685.7
5679.56
5681.68
5681.35
5616.87
5680.55
5685.32
5685.55
5685.63
5678.56
5681.06
5675.83
5597.83
5666.45
5685.11
5685.4
5685.52
5678.34
5680.83
5673.44
5597.69
5661.34
5685.04
5685.35
5685.48
5678.86
5681.04
5681.26
5609.13
5672.98
5685.04
5685.33
5685.46
5679.7
5681.16
5682.42
5675.64
5682.78
5684.9
5685.2
5685.34
5679.46
5681.55
5683.51
5678.13
5685.86
5686.69
5687.1
5687.3
5677.56
5680.49
5676.08
5651.57
5685.09
5686.56
5687.03
5687.29
5675.68
5679.54
5682.22
5673.5
5683.21
5686.36
5686.92
5687.27
5674.35
5678.76
5681.35
5605.28
5674.67
5686.2
5686.82
5687.16
5675.13
5678.98
5681.39
5597.48
5675.07
5686.17
5686.78
5687.11
5676.45
5679.57
5682.3
5656.57
5681.84
5686.22
5686.77
5687.07
5678.26
5680.62
5682.64
5670.68
5684.81
5686.18
5686.7
5686.99
5689.72
5685.78
5616.61
5691.42
5691.78
5692.32
5692.51
5692.65
5689.3
5688.43
5585.72
5667.59
5692.04
5692.33
5692.55
5692.7
5689.27
5689.3
5690.77
5690.39
5691.85
5692.34
5692.59
5692.75
5689.33
5689.61
5690.43
5676.69
5690.47
5692.37
5692.62
5692.78
5689.91
5689.95
5680.24
5672.61
5691.08
5692.43
5692.67
5692.82
5690.13
5690.63
5636.92
5665.58
5692.19
5692.51
5692.73
5692.86
5690.38
5690.88
5585.74
5655.97
5692.17
5692.55
5692.77
5692.91
5701.87
5656.54
5583.07
5699.35
5698.99
5698.96
5698.82
5698.82
5702.86
5688.55
5583.37
5683.28
5699.42
5699.13
5698.97
5698.94
5703.95
5698.35
5605.51
5697.9
5699.7
5699.34
5699.14
5699.08
5704.86
5699.58
5606.26
5696.97
5699.97
5699.56
5699.32
5699.23
5704.92
5700.54
5615.39
5695.38
5700.11
5699.7
5699.45
5699.36
5703.97
5695.49
5492.76
5670.57
5700.17
5699.8
5699.58
5699.49
5702.95
5697.69
5491.42
5639.15
5700.09
5699.93
5699.75
5699.69
5700.52
5587.03
5584.72
5704.14
5703.57
5703.24
5703.03
5702.97
5707.79
5658.48
5585.2
5694.2
5703.83
5703.42
5703.17
5703.07
5708.76
5697.39
5585.96
5702.21
5704.16
5703.67
5703.36
5703.22
5709.65
5704.05
5634.36
5702.8
5704.49
5703.94
5703.58
5703.41
5709.48
5702.18
5605.2
5701.01
5704.66
5704.13
5703.78
5703.59
5708.9
5693.06
5492.17
5678.46
5704.75
5704.28
5703.95
5703.77
5707.95
5666.19
5491.26
5643.2
5704.77
5704.38
5704.11
5703.95
5670.28
5580.06
5610.62
5704.86
5704.81
5704.78
5704.79
5704.85
5701.65
5588.82
5594.14
5702.17
5705.01
5704.95
5704.93
5704.95
5705.22
5689.88
5655.73
5702.88
5705.23
5705.15
5705.1
5705.1
5706.03
5705.18
5704.08
5704.05
5705.53
5705.41
5705.33
5705.3
5706.38
5697.79
5647.41
5702.68
5705.78
5705.67
5705.58
5705.51
5706.58
5685.89
5510.42
5692.33
5706.02
5705.91
5705.81
5705.72
5706.06
5559.94
5486.58
5658.62
5706.07
5706
5705.92
5705.84
5605.1
5575.85
5670.7
5705.08
5705.69
5706.13
5706.47
5706.84
5687.73
5575.7
5652.74
5705.15
5705.86
5706.3
5706.62
5706.95
5700.68
5684.37
5701.47
5704.56
5705.96
5706.44
5706.77
5707.08
5701.16
5703.34
5704.65
5705.42
5706.2
5706.67
5706.98
5707.23
5701.61
5684.79
5694.23
5705.04
5706.52
5706.96
5707.23
5707.37
5702.77
5575.65
5628.6
5704.02
5706.88
5707.25
5707.46
5707.55
5698.09
5498.07
5492.55
5688.74
5707.04
5707.37
5707.56
5707.63
5584.77
5583.94
5706.29
5709.77
5710.21
5710.59
5710.93
5711.22
5662.08
5589.08
5699.82
5709.79
5710.26
5710.66
5710.99
5711.25
5706.89
5693.75
5708.23
5709.75
5710.29
5710.71
5711.05
5711.29
5707.02
5708.15
5709.16
5709.88
5710.42
5710.84
5711.16
5711.36
5705.01
5677.58
5707.45
5710.13
5710.63
5711.01
5711.28
5711.43
5703.88
5498.76
5693.42
5710.48
5710.89
5711.19
5711.4
5711.52
5622.11
5498.77
5598.14
5709.25
5711.02
5711.29
5711.48
5711.58
5596.91
5661.17
5717.61
5717.24
5717.02
5716.95
5717.03
5717.15
5673.07
5668.31
5716.96
5717.26
5717.04
5716.96
5716.99
5717.08
5719.71
5711.38
5717.62
5717.36
5717.1
5716.98
5716.99
5717.04
5719.79
5718.56
5717.9
5717.45
5717.17
5717.03
5716.99
5717.01
5710.96
5688.69
5717.32
5717.47
5717.2
5717.05
5716.98
5716.97
5668.48
5546.46
5715.53
5717.46
5717.2
5717.05
5716.98
5716.97
5532.29
5507.1
5703.73
5717.42
5717.21
5717.09
5717.04
5717.04
5671.9
5722.28
5723.79
5722.95
5722.39
5722.06
5721.94
5721.93
5703.07
5723.43
5723.72
5722.9
5722.34
5722
5721.83
5721.79
5727.03
5724.37
5723.95
5723.04
5722.41
5722.01
5721.78
5721.69
5727.09
5725.18
5724.08
5723.13
5722.47
5722.02
5721.75
5721.61
5703.62
5708.34
5723.96
5723.07
5722.43
5721.99
5721.71
5721.51
5543.5
5677.55
5723.75
5722.94
5722.35
5721.94
5721.69
5721.48
5531.02
5616.23
5723.58
5722.89
5722.35
5721.97
5721.74
5721.56
5725.57
5727
5726.15
5725.46
5725
5724.69
5724.52
5724.46
5727.06
5727
5726.09
5725.42
5724.94
5724.6
5724.39
5724.29
5728.37
5727.17
5726.23
5725.52
5724.98
5724.59
5724.34
5724.19
5728.46
5726.99
5726.33
5725.59
5725.03
5724.61
5724.32
5724.13
5684.31
5726
5726.28
5725.57
5725.02
5724.61
5724.31
5724.11
5535.46
5725.92
5726.15
5725.49
5724.98
5724.6
5724.31
5724.11
5534.78
5722.64
5726.12
5725.49
5725
5724.63
5724.36
5724.17
5685.48
5683.88
5682.59
5681.64
5681
5680.63
5680.53
5680.59
5687.39
5684.92
5683.14
5681.89
5681.07
5680.61
5680.48
5680.54
5689.24
5685.89
5683.71
5682.2
5681.22
5680.67
5680.49
5680.54
5689.79
5686.14
5683.83
5682.25
5681.21
5680.62
5680.43
5680.48
5688.69
5685.52
5683.4
5681.94
5680.99
5680.47
5680.3
5680.35
5686.5
5684.23
5682.56
5681.41
5680.65
5680.24
5680.13
5680.19
5684.5
5683.03
5681.85
5680.97
5680.38
5680.07
5680.01
5680.07
5691.9
5690.52
5689.23
5688.18
5687.4
5686.89
5686.67
5686.63
5692.76
5690.96
5689.42
5688.25
5687.41
5686.88
5686.64
5686.6
5693.5
5691.62
5689.91
5688.57
5687.6
5686.98
5686.68
5686.62
5693.63
5691.78
5690.04
5688.66
5687.64
5686.97
5686.65
5686.58
5692.79
5691.17
5689.57
5688.31
5687.38
5686.77
5686.48
5686.43
5691.87
5690.31
5688.9
5687.8
5687
5686.5
5686.27
5686.22
5690.61
5689.42
5688.31
5687.37
5686.68
5686.26
5686.06
5686.03
5693.98
5692.91
5691.85
5690.94
5690.25
5689.79
5689.54
5689.43
5694.44
5693.05
5691.86
5690.95
5690.26
5689.78
5689.51
5689.41
5694.9
5693.52
5692.26
5691.23
5690.44
5689.87
5689.55
5689.43
5695.04
5693.66
5692.39
5691.32
5690.47
5689.88
5689.53
5689.4
5694.35
5693.2
5692.01
5691.02
5690.25
5689.71
5689.39
5689.26
5693.75
5692.57
5691.48
5690.59
5689.92
5689.45
5689.19
5689.08
5692.85
5691.92
5691.02
5690.23
5689.63
5689.22
5688.97
5688.88
5693.88
5692.85
5691.91
5691.12
5690.52
5690.08
5689.8
5689.65
5694.59
5693.23
5692.12
5691.26
5690.6
5690.12
5689.8
5689.64
5695.2
5693.71
5692.48
5691.52
5690.77
5690.21
5689.83
5689.65
5695.26
5693.8
5692.58
5691.57
5690.78
5690.2
5689.81
5689.62
5694.69
5693.39
5692.24
5691.31
5690.59
5690.07
5689.71
5689.53
5693.91
5692.72
5691.7
5690.91
5690.31
5689.87
5689.55
5689.39
5692.93
5691.99
5691.19
5690.54
5690.03
5689.65
5689.37
5689.22
5689.65
5689.07
5688.68
5688.39
5688.18
5687.99
5687.84
5687.75
5690.54
5689.74
5689.13
5688.68
5688.35
5688.1
5687.91
5687.8
5691.3
5690.26
5689.47
5688.9
5688.49
5688.19
5687.96
5687.83
5691.5
5690.39
5689.55
5688.95
5688.52
5688.2
5687.96
5687.84
5691.05
5690.05
5689.33
5688.83
5688.45
5688.17
5687.94
5687.83
5690.33
5689.55
5688.98
5688.58
5688.3
5688.08
5687.88
5687.78
5689.56
5688.96
5688.57
5688.31
5688.11
5687.94
5687.76
5687.67
5679.48
5681.16
5682.64
5683.77
5684.6
5685.12
5685.43
5685.56
5678.32
5680.9
5682.68
5683.87
5684.67
5685.19
5685.5
5685.64
5677.63
5680.59
5682.46
5683.73
5684.6
5685.18
5685.52
5685.69
5677.95
5680.69
5682.49
5683.72
5684.61
5685.2
5685.55
5685.72
5678.84
5681.14
5682.79
5683.95
5684.77
5685.32
5685.62
5685.79
5680.23
5681.98
5683.31
5684.29
5685
5685.46
5685.71
5685.83
5681.49
5682.61
5683.63
5684.48
5685.1
5685.51
5685.72
5685.81
5677.5
5680.11
5682.32
5684.03
5685.26
5686.1
5686.64
5686.97
5675.24
5679.11
5681.86
5683.78
5685.11
5686.02
5686.63
5686.98
5673.55
5678.04
5681.14
5683.32
5684.84
5685.89
5686.57
5686.97
5672.74
5677.66
5680.87
5683.13
5684.72
5685.83
5686.54
5686.95
5674.21
5678.41
5681.35
5683.43
5684.93
5685.95
5686.6
5686.97
5676.68
5679.89
5682.3
5684.07
5685.31
5686.17
5686.7
5687.01
5679.02
5681.21
5683.07
5684.53
5685.59
5686.32
5686.78
5687.04
5690.21
5690.74
5691.28
5691.76
5692.13
5692.43
5692.68
5692.86
5690.12
5690.56
5691.12
5691.59
5691.98
5692.3
5692.59
5692.79
5689.98
5690.28
5690.83
5691.35
5691.8
5692.17
5692.5
5692.72
5689.38
5689.92
5690.55
5691.15
5691.65
5692.06
5692.39
5692.62
5689.25
5689.88
5690.57
5691.15
5691.63
5692.01
5692.32
5692.53
5689.25
5690.04
5690.73
5691.28
5691.71
5692.03
5692.28
5692.46
5689.6
5690.28
5690.92
5691.41
5691.78
5692.07
5692.3
5692.45
5703.26
5702.09
5701.13
5700.43
5699.96
5699.67
5699.56
5699.56
5704.21
5702.4
5701.17
5700.38
5699.87
5699.56
5699.44
5699.43
5705.19
5702.9
5701.42
5700.47
5699.87
5699.5
5699.34
5699.32
5705.23
5702.88
5701.46
5700.46
5699.81
5699.4
5699.22
5699.19
5704.41
5702.43
5701.12
5700.21
5699.6
5699.21
5699.04
5699.02
5703
5701.6
5700.6
5699.86
5699.36
5699.04
5698.89
5698.87
5701.8
5700.91
5700.19
5699.6
5699.2
5698.95
5698.81
5698.8
5707.69
5706.62
5705.68
5704.92
5704.37
5704.02
5703.82
5703.76
5708.2
5706.71
5705.62
5704.85
5704.27
5703.89
5703.67
5703.58
5708.8
5707.2
5705.9
5704.95
5704.27
5703.8
5703.53
5703.42
5709.09
5707.32
5706
5704.97
5704.21
5703.7
5703.39
5703.28
5708.58
5706.99
5705.69
5704.73
5704.01
5703.52
5703.22
5703.12
5707.72
5706.35
5705.22
5704.39
5703.76
5703.34
5703.07
5702.98
5706.6
5705.61
5704.75
5704.08
5703.55
5703
5702.95
5702.87
5705.57
5705.5
5705.43
5705.4
5705.39
5705.41
5705.43
5705.48
5705.19
5705.24
5705.26
5705.25
5705.23
5705.23
5705.23
5705.29
5704.89
5705.03
5705.07
5705.06
5705.04
5705.02
5705.02
5705.05
5704.64
5704.88
5704.93
5704.89
5704.83
5704.82
5704.82
5704.86
5704.38
5704.68
5704.73
5704.71
5704.69
5704.65
5704.64
5704.71
5704.24
5704.47
5704.54
5704.55
5704.56
5704.24
5704.54
5704.6
5704.07
5704.13
5704.25
5704.33
5702.92
5702.49
5704.43
5704.45
5702.34
5703.57
5704.61
5705.46
5706.12
5706.62
5706.89
5707.2
5700.78
5702.72
5704.15
5705.15
5705.86
5706.38
5706.75
5707.01
5699.23
5701.69
5703.39
5704.56
5705.4
5706.03
5706.47
5706.77
5698.24
5700.93
5702.9
5704.14
5705.06
5705.74
5706.21
5706.53
5697.95
5700.79
5702.7
5704.02
5704.94
5705.37
5706.01
5706.39
5698.9
5701.3
5702.98
5704.12
5704.49
5703.85
5705.94
5706.27
5700.19
5701.73
5703.06
5704.12
5692.57
5701.62
5705.88
5706.13
5707.34
5708.3
5709.13
5709.83
5710.41
5710.89
5710.96
5711.52
5706.22
5707.63
5708.71
5709.52
5710.09
5710.68
5711.08
5711.41
5705.32
5706.86
5708.1
5709.05
5709.78
5710.41
5710.9
5711.24
5704.37
5706.2
5707.61
5708.7
5709.52
5710.18
5710.71
5711.05
5704.56
5706.19
5707.56
5708.6
5709.4
5709.62
5710.52
5710.93
5705.1
5706.62
5707.85
5708.78
5703.37
5707.58
5710.52
5710.83
5705.99
5707.16
5708.09
5708.79
5694.13
5705.43
5710.5
5710.77
5718.98
5718.4
5717.95
5717.56
5717.5
5717.49
5717.28
5717.73
5719.56
5718.64
5717.99
5717.6
5717.4
5717.48
5717.52
5717.77
5720.45
5719.01
5718.16
5717.69
5717.48
5717.46
5717.59
5717.77
5720.71
5719.07
5718.1
5717.7
5717.49
5717.45
5717.57
5717.73
5720.45
5718.95
5718.15
5717.63
5717.35
5716.92
5717.44
5717.66
5719.59
5718.49
5717.86
5717.51
5706.23
5714.83
5717.4
5717.56
5718.86
5718.27
5717.79
5716.27
5701.56
5713.06
5717.41
5717.54
5726.59
5725.52
5724.52
5723.65
5723.17
5721.8
5722.51
5722.77
5727.43
5725.89
5724.67
5723.54
5723.26
5722.99
5722.78
5722.95
5728.46
5726.55
5725.16
5724.17
5723.54
5723.18
5723.05
5723.08
5729.29
5727.06
5725.43
5724.41
5723.74
5723.33
5723.17
5723.16
5729.09
5727
5725.5
5724.42
5723.65
5722.97
5723.12
5723.15
5728.08
5726.34
5725.07
5724.09
5716.06
5721.13
5723.07
5723.01
5727.18
5725.95
5724.94
5718.52
5709.14
5720.66
5723.06
5723.06
5728.54
5727.75
5726.96
5726.27
5716.47
5720.41
5725.29
5725.31
5729.05
5727.99
5727.14
5726.16
5726
5725.2
5725.42
5725.43
5729.65
5728.53
5727.59
5726.85
5726.34
5725.92
5725.77
5725.72
5730.28
5729.02
5727.99
5727.2
5726.58
5726.16
5725.95
5725.89
5730.25
5729.03
5728
5727.21
5726.58
5726.1
5726.02
5725.84
5729.56
5728.52
5727.64
5726.79
5725.41
5725.07
5725.96
5725.78
5729.13
5728.31
5727.52
5715.58
5720.54
5725.13
5725.9
5725.85
5684.59
5683.1
5681.82
5680.9
5680.29
5679.98
5679.9
5679.98
5685.75
5683.55
5681.95
5680.88
5680.19
5679.83
5679.71
5679.79
5686.56
5683.97
5682.16
5680.93
5680.14
5679.7
5679.55
5679.6
5686.39
5683.84
5682.04
5680.8
5680
5679.55
5679.37
5679.41
5685.39
5683.17
5681.59
5680.51
5679.78
5679.36
5679.21
5679.22
5684
5682.28
5681.01
5680.11
5679.52
5679.17
5679.04
5679.05
5682.71
5681.61
5680.67
5679.92
5679.21
5679.11
5679
5679
5690.71
5689.44
5688.23
5687.22
5686.51
5686.07
5685.85
5685.83
5691.34
5689.6
5688.16
5687.1
5686.34
5685.86
5685.61
5685.58
5691.81
5689.86
5688.31
5687.14
5686.28
5685.72
5685.42
5685.35
5691.57
5689.67
5688.13
5686.96
5686.1
5685.51
5685.2
5685.1
5690.82
5689.11
5687.69
5686.61
5685.79
5685.25
5684.95
5684.84
5689.92
5688.38
5687.13
5686.14
5685.46
5684.95
5684.72
5684.61
5689
5687.88
5686.62
5682.26
5684.48
5684.86
5684.61
5684.51
5692.93
5691.9
5690.91
5690.08
5689.45
5689.03
5688.76
5688.64
5693.33
5692
5690.88
5689.98
5689.32
5688.85
5688.54
5688.41
5693.6
5692.18
5690.98
5690
5689.26
5688.73
5688.39
5688.19
5693.38
5692.01
5690.82
5689.88
5689.12
5688.58
5688.21
5687.95
5692.81
5691.57
5690.46
5689.55
5688.85
5688.32
5688
5687.71
5692.29
5691.06
5689.96
5689.01
5687.67
5688.02
5687.78
5687.55
5691.6
5690.64
5687.12
5683.44
5687.21
5687.93
5687.63
5687.41
5692.91
5691.95
5691.1
5690.43
5689.9
5689.49
5689.19
5689.05
5693.48
5692.28
5691.26
5690.46
5689.86
5689.39
5689.05
5688.87
5693.88
5692.53
5691.42
5690.55
5689.87
5689.34
5688.96
5688.73
5693.85
5692.52
5691.39
5690.49
5689.78
5689.24
5688.84
5688.59
5693.44
5692.17
5691.11
5690.22
5689.47
5688.89
5688.69
5688.44
5692.83
5691.62
5690.52
5689.91
5683.95
5688.79
5688.56
5688.32
5692.11
5690.74
5684.66
5683.97
5688.74
5688.75
5688.42
5688.18
5689.44
5688.92
5688.53
5688.27
5688.07
5687.87
5687.68
5687.57
5689.96
5689.28
5688.76
5688.38
5688.09
5687.85
5687.64
5687.49
5690.44
5689.58
5688.98
5688.5
5688.14
5687.85
5687.6
5687.44
5690.54
5689.62
5688.96
5688.45
5688.07
5687.72
5687.53
5687.36
5690.23
5689.4
5688.78
5688.3
5684.84
5687.45
5687.47
5687.3
5689.61
5688.95
5688.11
5684.48
5682.29
5687.51
5687.4
5687.23
5688.88
5687.77
5682.53
5684.49
5687.61
5687.43
5687.27
5687.1
5681.48
5682.69
5683.73
5684.57
5685.18
5685.56
5685.76
5685.84
5680.59
5682.28
5683.58
5684.51
5685.16
5685.57
5685.79
5685.87
5680.19
5682.07
5683.44
5684.42
5685.09
5685.54
5685.78
5685.88
5680.21
5682.08
5683.41
5684.33
5683.84
5685.11
5685.77
5685.86
5680.43
5682.28
5683.53
5682.48
5679.78
5685.32
5685.8
5685.88
5680.84
5682.54
5683.44
5671.91
5679.87
5685.61
5685.8
5685.86
5681.34
5682.04
5682.49
5683.36
5682.13
5685.4
5685.72
5685.76
5679.1
5681.37
5683.24
5684.67
5685.7
5686.41
5686.85
5687.17
5677.08
5680.31
5682.7
5684.4
5685.57
5686.37
5686.88
5687.23
5675.69
5679.49
5682.18
5684.07
5685.4
5686.08
5686.88
5687.23
5675.32
5679.29
5682.04
5683.56
5678.57
5685.33
5686.9
5687.23
5676.27
5679.87
5682.42
5674.23
5680.58
5686.27
5686.97
5687.27
5677.87
5680.87
5683.09
5671.34
5682
5686.34
5687.02
5687.27
5679.47
5681.38
5683.39
5677.47
5672.14
5686.52
5687.03
5687.23
5689.71
5690.42
5691.01
5691.47
5691.83
5692.1
5692.34
5692.49
5689.14
5690.06
5690.75
5691.28
5691.73
5691.74
5692.32
5692.5
5688.8
5689.75
5690.53
5691.07
5690.04
5690.97
5692.31
5692.5
5688.5
5689.56
5690.43
5688.9
5684.54
5691.01
5692.3
5692.5
5688.88
5689.77
5690.56
5682.76
5687.49
5691.72
5692.31
5692.49
5689.33
5690.05
5688.22
5684.89
5689.86
5690.32
5692.31
5692.48
5689.66
5690.28
5674.23
5596.19
5673.96
5692.16
5692.37
5692.49
5701.89
5701
5700.19
5699.56
5699.16
5698.66
5698.79
5698.77
5702.81
5701.48
5700.35
5699.53
5694.9
5697.78
5698.76
5698.74
5703.75
5701.94
5700.61
5699
5685.78
5696.85
5698.77
5698.74
5704.02
5702.07
5700.74
5696.88
5694.58
5698.52
5698.75
5698.73
5703.62
5701.83
5700.55
5693.73
5693.53
5698.61
5698.68
5698.68
5702.67
5701.15
5686.63
5686.12
5691.92
5696.33
5698.65
5698.64
5701.65
5700.78
5597.13
5592.77
5683.47
5698.77
5698.67
5698.67
5706.69
5705.68
5704.73
5703.88
5700.95
5702.42
5702.88
5702.78
5707.66
5706.35
5705.03
5703.72
5689.17
5700.9
5702.85
5702.75
5708.43
5706.67
5705.33
5702.34
5689.15
5700.4
5702.84
5702.77
5708.73
5706.88
5705.44
5702.59
5703.14
5702.74
5702.81
5702.76
5708.36
5706.62
5705.03
5692.75
5697.38
5702.88
5702.64
5702.74
5707.5
5705.9
5678.43
5569.5
5646.86
5699.79
5702.82
5702.78
5706.56
5699.34
5584.58
5612.06
5698.9
5703.1
5702.91
5702.86
5704.11
5704.15
5704.19
5703.82
5690.32
5703.07
5704.33
5704.34
5704
5704.13
5704.22
5703.01
5689.48
5701.19
5704.27
5704.3
5703.97
5704.16
5704.24
5702.45
5689.41
5701.63
5704.24
5704.31
5704.16
5704.32
5704.3
5704.18
5699.07
5700.89
5704.22
5704.38
5704.39
5704.42
5703.73
5678.12
5698.97
5697.2
5704.06
5704.48
5704.6
5704.33
5655.81
5560.78
5571.56
5698.68
5704.54
5704.67
5704.78
5665.36
5581.84
5634.7
5704.62
5704.62
5704.66
5704.76
5700.17
5701.71
5702.99
5701.66
5689.74
5703.49
5705.78
5706.1
5698.53
5700.79
5702.6
5699.91
5689.52
5702.19
5705.69
5706.1
5697.44
5700.35
5702.18
5702.49
5699.6
5703.61
5705.6
5706.07
5697.6
5700.38
5702.15
5703.45
5672.26
5693.62
5705.68
5706.12
5698.94
5701.07
5702.57
5674.75
5569.93
5669.37
5705.87
5706.28
5700.52
5698.25
5631.75
5557.61
5574.87
5701.44
5706.23
5706.57
5701.16
5589.76
5578.61
5655.78
5705.51
5705.99
5706.37
5706.67
5705.96
5707.14
5708.08
5699.23
5694.05
5708.08
5710.44
5710.74
5704.96
5706.51
5707.67
5700.33
5694.24
5707.7
5710.37
5710.73
5704.47
5706.05
5707.25
5708.23
5709.02
5708.63
5710.06
5710.73
5704.44
5706.03
5707.12
5704.09
5672.65
5688.73
5709.95
5710.73
5705.27
5706.51
5707.71
5656.14
5399.88
5636.93
5710.45
5710.85
5706.21
5698.4
5641.88
5559.12
5610.68
5709.54
5710.69
5711.04
5667.81
5580.24
5580.75
5685.12
5710.04
5710.46
5710.85
5711.16
5718.75
5718.23
5717.74
5702.38
5701.44
5716.09
5717.34
5717.51
5719.29
5718.24
5717.57
5708.55
5709.73
5716.57
5717.2
5717.46
5720.05
5718.4
5717.54
5717.1
5714.71
5712.17
5716.63
5717.37
5720.29
5718.41
5717.46
5679.85
5701.62
5675.34
5716.16
5717.25
5719.49
5718.04
5717.75
5556.12
5400.33
5642.06
5716.97
5717.19
5706.12
5670.57
5656.98
5585.15
5675.77
5716.84
5716.97
5717.18
5594.73
5587.76
5602.71
5714.57
5716.98
5716.93
5717.05
5717.22
5727.03
5725.92
5724.11
5708.63
5710.64
5722.92
5722.97
5723.01
5727.77
5726.05
5724.56
5718.99
5722.72
5722.7
5722.69
5722.88
5728.57
5726.39
5724.76
5723.64
5691.43
5702.46
5721.97
5722.7
5728.55
5726.17
5724.51
5640.49
5465.39
5642.45
5722.4
5722.5
5724.96
5718.43
5724.43
5406.28
5399.01
5670.27
5722.25
5722.33
5678.67
5593.16
5650.82
5691.99
5721.62
5722.25
5722.15
5722.23
5611.22
5592.47
5661.93
5723.14
5722.54
5722.21
5722.1
5722.14
5728.94
5728.1
5726.4
5711.08
5720.89
5725.91
5725.77
5725.75
5729.2
5728.1
5727.04
5725.86
5725.85
5725.24
5725.27
5725.59
5729.44
5728.35
5727.19
5725.18
5648.07
5683.36
5724.26
5725.4
5729.41
5728.09
5726.99
5600.68
5207.69
5599.54
5725.25
5725.28
5719.41
5706.48
5721.26
5362.56
5429.25
5710.1
5725.13
5725.14
5674.6
5593.22
5641.39
5725.9
5725.39
5725.05
5724.92
5724.93
5675.75
5622.09
5707.82
5725.76
5725.26
5724.94
5724.78
5724.75
5670.13
5670.15
5670.3
5670.26
5670.41
5670.85
5671.26
5671.55
5670.48
5670.27
5670.29
5670.32
5670.52
5670.77
5671.23
5671.54
5670.98
5670.36
5670.22
5670.34
5670.58
5670.86
5671.23
5671.55
5671.39
5670.36
5670.13
5670.23
5670.48
5670.79
5671.16
5671.49
5670.29
5670.3
5670.52
5670.85
5671.21
5671.52
5671.3
5671.53
5683.28
5682.1
5681.12
5680.06
5679.59
5679.62
5679.65
5679.73
5684.91
5683.1
5681.75
5680.67
5680
5679.82
5679.84
5679.89
5686.51
5684.13
5682.44
5681.28
5680.53
5680.13
5680.04
5680.1
5687.6
5684.83
5682.94
5681.66
5680.84
5680.38
5680.24
5680.29
5687.83
5685.05
5683.08
5681.75
5680.93
5680.47
5680.33
5680.39
5687
5684.64
5682.95
5681.76
5681.01
5680.57
5680.39
5680.43
5685.52
5683.92
5682.59
5681.57
5680.92
5680.57
5680.48
5680.55
5689.67
5688.54
5687.45
5686.3
5685.69
5685.61
5685.46
5685.43
5690.87
5689.36
5688.04
5686.93
5686.16
5685.9
5685.72
5685.61
5691.98
5690.23
5688.76
5687.61
5686.77
5686.25
5686.01
5685.94
5692.9
5690.95
5689.34
5688.09
5687.18
5686.57
5686.3
5686.24
5693.1
5691.11
5689.47
5688.24
5687.34
5686.75
5686.46
5686.4
5692.66
5690.79
5689.26
5688.12
5687.31
5686.79
5686.54
5686.5
5691.9
5690.48
5689.15
5688.07
5687.3
5686.83
5686.61
5686.58
5692.17
5691.22
5690.3
5689.5
5688.72
5688.59
5688.36
5688.27
5693.07
5691.87
5690.78
5689.78
5689.19
5688.86
5688.62
5688.37
5693.84
5692.58
5691.42
5690.46
5689.72
5689.24
5688.94
5688.77
5694.58