/*--------------------------------*- C++ -*----------------------------------*\
| =========                 |                                                 |
| \\      /  F ield         | OpenFOAM: The Open Source CFD Toolbox           |
|  \\    /   O peration     | Version:  plus.master.MPPICInterFoam            |
|   \\  /    A nd           | Web:      www.OpenFOAM.com                      |
|    \\/     M anipulation  |                                                 |
\*---------------------------------------------------------------------------*/
FoamFile
{
    version     2.0;
    format      ascii;
    class       surfaceScalarField;
    location    "3.6";
    object      phi;
}
// * * * * * * * * * * * * * * * * * * * * * * * * * * * * * * * * * * * * * //

dimensions      [0 3 -1 0 0 0 0];

internalField   nonuniform List<scalar> 
34018
(
5.10402e-07
5.81043e-06
1.08169e-06
1.06433e-06
9.76841e-07
6.33037e-06
6.83498e-07
5.34107e-06
8.65001e-07
6.87401e-07
6.17809e-06
1.27509e-06
7.05047e-07
5.46481e-06
9.46145e-07
4.7507e-06
5.80887e-07
7.02034e-07
-7.39327e-07
-9.74556e-07
5.64234e-06
7.79309e-07
8.1384e-07
-4.75652e-07
-1.46162e-06
6.16182e-06
1.1695e-06
-1.38758e-08
-1.79765e-06
6.50213e-06
1.40808e-06
4.08296e-07
-1.72127e-06
6.48651e-06
1.36923e-06
6.19845e-07
-1.3373e-06
6.13016e-06
1.1034e-06
6.25433e-07
-8.60488e-07
5.59082e-06
7.61383e-07
-5.05189e-07
4.94898e-06
5.40335e-07
4.83021e-07
-1.12716e-06
-9.3583e-07
6.28879e-06
1.09477e-06
-7.40309e-07
-1.46138e-06
7.0219e-06
1.82071e-08
-1.72483e-06
7.64289e-06
6.97597e-07
-1.62113e-06
7.59401e-06
1.0117e-06
-1.3077e-06
6.97113e-06
9.5285e-07
-7.84177e-07
6.22536e-06
-4.15383e-07
5.45411e-06
7.67925e-07
-1.661e-06
-4.92156e-07
6.87745e-06
1.53485e-06
-9.62798e-07
-6.00615e-07
8.14189e-06
7.10826e-08
-2.7925e-07
1.00441e-05
9.51281e-07
-2.728e-07
9.73512e-06
1.47939e-06
-4.926e-07
8.00382e-06
1.32647e-06
-3.44568e-07
6.78301e-06
-1.496e-07
5.83099e-06
1.01668e-06
-1.90535e-06
2.19764e-07
7.26419e-06
1.80166e-06
-6.63273e-07
3.49412e-07
9.53791e-06
-2.29863e-08
5.15292e-07
1.28771e-05
6.60715e-07
5.97402e-07
1.24021e-05
1.68374e-06
4.18827e-07
9.33729e-06
1.54244e-06
3.19556e-07
7.13037e-06
2.37046e-07
6.00083e-06
1.15097e-06
-1.81909e-06
7.9937e-07
6.99438e-06
1.67658e-06
-8.05899e-07
1.28057e-06
8.72861e-06
1.50503e-08
1.3156e-06
1.17313e-05
7.927e-07
1.37988e-06
1.15475e-05
1.61297e-06
1.30086e-06
8.55404e-06
1.43808e-06
8.61619e-07
6.88144e-06
5.6033e-07
5.85265e-06
1.07258e-06
-1.3223e-06
9.58372e-07
6.34768e-06
1.24802e-06
-8.45039e-07
1.50533e-06
7.23381e-06
1.94042e-08
1.90744e-06
8.20704e-06
8.09737e-07
1.89603e-06
8.11785e-06
1.18085e-06
1.50977e-06
7.16024e-06
1.07273e-06
1.0219e-06
6.27783e-06
6.96734e-07
5.45377e-06
8.23599e-07
-8.43942e-07
5.61192e-06
8.48019e-07
8.56528e-07
-5.55651e-07
6.19878e-06
1.25579e-06
-1.53826e-08
6.60823e-06
1.56763e-06
4.86696e-07
6.5915e-06
1.56704e-06
7.15575e-07
6.16923e-06
1.28955e-06
6.86196e-07
5.57772e-06
9.38313e-07
4.89974e-06
5.40274e-07
6.9373e-07
-4.69358e-07
-5.43036e-07
5.71912e-06
4.99516e-07
4.36751e-07
-3.19521e-07
-8.44323e-07
6.20502e-06
6.50964e-07
-2.35667e-08
-1.10767e-06
6.49577e-06
8.18324e-07
2.31838e-07
-1.04165e-06
6.48635e-06
7.86527e-07
3.34715e-07
-7.46099e-07
6.17497e-06
5.98298e-07
3.25642e-07
-4.42225e-07
5.65649e-06
3.86033e-07
-2.23062e-07
5.00414e-06
2.75323e-07
2.19226e-07
-6.95949e-07
-5.51603e-07
6.32891e-06
6.64078e-07
-5.16009e-07
-9.29658e-07
6.92774e-06
1.45463e-08
-1.34476e-06
7.34983e-06
4.60801e-07
-1.23198e-06
7.33865e-06
5.85444e-07
-7.99809e-07
6.90053e-06
5.21759e-07
-4.20456e-07
6.26752e-06
-1.74484e-07
5.52309e-06
4.04536e-07
-1.06949e-06
-3.4489e-07
6.80593e-06
9.34319e-07
-8.27294e-07
-6.11142e-07
7.58152e-06
7.58085e-08
-6.24632e-07
8.42062e-06
7.75058e-07
-5.64233e-07
8.36902e-06
9.23226e-07
-4.89175e-07
7.54555e-06
7.65557e-07
-2.06847e-07
6.72838e-06
-2.50228e-08
5.89185e-06
5.55998e-07
-1.46578e-06
1.57633e-07
7.06292e-06
1.16449e-06
-9.97303e-07
2.84028e-07
8.17496e-06
8.79975e-08
3.38802e-07
1.08281e-05
8.75728e-07
3.21448e-07
1.07314e-05
1.2581e-06
3.3657e-07
8.13012e-06
9.52286e-07
2.59332e-07
6.97005e-06
2.17101e-07
6.05014e-06
6.6102e-07
-1.31986e-06
5.28365e-07
6.87689e-06
1.06665e-06
-1.04459e-06
9.35458e-07
7.80378e-06
3.31988e-08
1.43074e-06
9.56265e-06
9.59965e-07
1.41335e-06
9.53072e-06
1.14397e-06
9.55395e-07
7.75146e-06
8.7798e-07
6.09032e-07
6.79801e-06
4.12554e-07
5.9293e-06
6.06121e-07
-8.55333e-07
5.95063e-07
6.37059e-06
7.65797e-07
-6.80985e-07
9.6173e-07
7.03399e-06
8.47597e-09
1.3671e-06
7.58215e-06
6.17746e-07
1.35055e-06
7.57206e-06
7.35344e-07
9.89119e-07
7.00909e-06
6.17457e-07
6.76848e-07
6.3279e-06
4.83001e-07
5.56177e-06
4.38963e-07
-5.32367e-07
5.69897e-06
5.16879e-07
5.2493e-07
-3.89145e-07
6.24081e-06
7.77098e-07
-2.02433e-08
6.58188e-06
1.0244e-06
3.13505e-07
6.5794e-06
1.0291e-06
4.12264e-07
6.23778e-06
8.21927e-07
3.66763e-07
5.6928e-06
6.07351e-07
5.01287e-06
2.68036e-07
4.68741e-07
-1.99979e-07
-1.15977e-07
5.7675e-06
2.11831e-07
5.58829e-08
-1.51079e-07
-2.50569e-07
6.26585e-06
1.40965e-07
-3.47491e-08
-3.93839e-07
6.5554e-06
2.18439e-07
5.29619e-08
-3.52449e-07
6.55419e-06
1.97503e-07
6.10634e-08
-1.80643e-07
6.24869e-06
9.91017e-08
3.07344e-08
-3.58719e-08
5.71371e-06
9.43026e-09
5.95823e-08
5.02741e-06
1.50605e-09
-5.09928e-08
-2.78566e-07
-1.52612e-07
6.39759e-06
2.46701e-07
-2.28893e-07
-3.47856e-07
6.97649e-06
-3.67939e-10
-6.05852e-07
7.33412e-06
1.80584e-07
-5.42887e-07
7.34867e-06
1.85852e-07
-2.50329e-07
6.96556e-06
1.14666e-07
-5.39238e-08
6.35729e-06
6.80274e-08
5.5867e-06
4.3061e-08
-4.64903e-07
-9.74665e-08
6.86195e-06
3.54007e-07
-4.34924e-07
-2.87593e-07
7.4919e-06
3.93037e-08
-6.6266e-07
8.00322e-06
3.90274e-07
-5.83307e-07
8.05905e-06
3.61011e-07
-1.85025e-07
7.51017e-06
2.41548e-07
1.53391e-08
6.77959e-06
1.13342e-07
5.98462e-06
1.04142e-07
-7.25592e-07
1.25838e-07
7.08292e-06
4.82611e-07
-8.98159e-07
2.18947e-07
7.84156e-06
9.71923e-08
2.46005e-07
8.92459e-06
7.72881e-07
2.48924e-07
9.22532e-06
5.99987e-07
2.79442e-07
7.83915e-06
3.62151e-07
2.27817e-07
6.99583e-06
2.10168e-07
6.15735e-06
1.58452e-07
-5.9582e-07
2.5655e-07
6.92964e-06
4.12654e-07
-6.70704e-07
4.82864e-07
7.61614e-06
4.86089e-08
8.77075e-07
8.21332e-06
5.96132e-07
8.76311e-07
8.35661e-06
4.9621e-07
5.28496e-07
7.60255e-06
3.11615e-07
3.64775e-07
6.84581e-06
2.69677e-07
6.05275e-06
1.28898e-07
-3.51655e-07
2.49077e-07
6.46269e-06
2.67609e-07
-3.27787e-07
4.37574e-07
7.05599e-06
1.7748e-09
6.73521e-07
7.457e-06
2.76887e-07
6.73792e-07
7.50002e-06
2.76928e-07
4.94785e-07
7.04289e-06
1.68345e-07
3.48073e-07
6.45321e-06
2.61603e-07
5.68528e-06
5.29766e-08
-1.93399e-07
5.78042e-06
1.65205e-07
1.96605e-07
-1.6206e-07
6.34718e-06
2.99836e-07
-2.10216e-08
6.67826e-06
4.36116e-07
1.06e-07
6.6765e-06
4.49742e-07
1.06747e-07
6.37886e-06
3.53013e-07
4.77918e-08
5.83054e-06
2.6949e-07
5.1052e-06
-9.54478e-09
2.26805e-07
6.54805e-08
2.81608e-07
5.78569e-06
-6.80146e-08
-2.97431e-07
2.56448e-08
2.94417e-07
6.34018e-06
-3.28758e-07
-2.36994e-08
2.74858e-07
6.67043e-06
-3.39999e-07
-9.22718e-08
2.96215e-07
6.68327e-06
-3.56371e-07
-1.78192e-07
3.46483e-07
6.35973e-06
-3.7163e-07
-2.45826e-07
3.6339e-07
5.77156e-06
-3.54171e-07
3.3099e-07
5.01826e-06
-2.65348e-07
-3.03151e-07
1.21889e-07
2.23235e-07
6.4882e-06
-1.53688e-07
5.90439e-08
1.95672e-07
7.13895e-06
1.85406e-08
1.49336e-07
7.50039e-06
-4.03198e-08
2.06087e-07
7.49753e-06
-1.54629e-07
2.62943e-07
7.16353e-06
-2.65929e-07
3.0965e-07
6.5225e-06
3.08182e-07
5.65609e-06
-3.12546e-07
1.05049e-07
1.58466e-07
7.01437e-06
-1.92411e-07
2.72963e-08
1.3497e-07
7.6304e-06
6.5685e-08
2.18021e-08
8.09214e-06
1.59441e-08
4.47425e-08
8.26995e-06
-8.07707e-08
2.13174e-07
7.65678e-06
-2.43755e-07
2.46498e-07
7.00617e-06
2.57337e-07
6.13479e-06
-3.43201e-07
6.24504e-08
1.1331e-07
7.25722e-06
-1.91502e-07
-1.10217e-07
1.6987e-07
7.97927e-06
3.07958e-08
2.65162e-07
8.54062e-06
2.02663e-07
3.02761e-07
8.79612e-06
-1.64259e-08
2.46524e-07
8.02465e-06
-2.06558e-07
2.29674e-07
7.2028e-06
2.03141e-07
6.35264e-06
-3.47488e-07
1.17355e-07
3.12068e-08
7.11573e-06
-2.21349e-07
-1.99347e-08
1.14269e-07
7.80941e-06
5.27309e-08
2.54147e-07
8.15196e-06
9.88278e-08
2.73002e-07
8.34037e-06
-4.27737e-08
1.94624e-07
7.79586e-06
-2.34756e-07
1.41082e-07
7.12627e-06
1.19131e-07
6.25752e-06
-3.55374e-07
1.67683e-07
-6.55763e-08
6.61927e-06
-2.27073e-07
6.68867e-08
-3.8311e-08
7.30947e-06
4.17165e-08
4.64165e-08
7.68998e-06
-7.9445e-10
7.16474e-08
7.74387e-06
-1.18511e-07
3.74591e-08
7.31771e-06
-2.76931e-07
5.79977e-09
6.74699e-06
2.42303e-08
5.84587e-06
-3.42843e-07
1.5947e-07
5.85207e-06
-1.83832e-07
-1.12701e-07
9.2815e-08
6.52376e-06
-1.48058e-07
2.826e-08
6.92566e-06
-1.36449e-07
-7.05152e-08
6.97255e-06
-1.25679e-07
-1.7679e-07
6.64368e-06
-1.20976e-07
-2.69387e-07
6.01772e-06
-8.86241e-08
5.17509e-06
-2.91011e-07
-2.39892e-08
3.54765e-07
6.84585e-07
5.70978e-06
-3.43155e-07
-6.21143e-07
2.34259e-07
9.12322e-07
6.34011e-06
-7.91219e-07
2.24802e-08
1.04481e-06
6.74593e-06
-9.08295e-07
-2.17151e-07
1.07064e-06
6.78398e-06
-9.31818e-07
-4.24412e-07
1.02406e-06
6.41924e-06
-8.76502e-07
-5.37204e-07
8.64795e-07
5.74504e-06
-7.2609e-07
6.14472e-07
4.91655e-06
-5.27519e-07
-5.24349e-07
6.28011e-07
6.25036e-07
6.50835e-06
-5.88119e-07
4.39136e-07
8.68847e-07
7.37155e-06
1.18642e-07
9.58747e-07
7.90663e-06
-2.25706e-07
9.34907e-07
7.97724e-06
-5.61785e-07
9.86028e-07
7.53739e-06
-7.42742e-07
8.72957e-07
6.69503e-06
5.96965e-07
5.63382e-06
-7.03435e-07
8.7048e-07
4.18508e-07
7.16832e-06
-8.17641e-07
5.397e-07
5.35089e-07
8.2945e-06
1.37595e-07
7.32655e-07
8.72018e-06
-1.17874e-07
7.68829e-07
8.69139e-06
-6.07487e-07
6.75215e-07
8.45689e-06
-9.47922e-07
6.54035e-07
7.565e-06
4.45553e-07
6.22983e-06
-8.91474e-07
1.00684e-06
1.14285e-07
7.49901e-06
-9.44552e-07
7.32885e-07
2.11243e-07
8.57677e-06
1.56962e-07
4.81203e-07
9.36798e-06
-1.35443e-07
4.06652e-07
9.4505e-06
-6.10695e-07
3.70797e-07
8.80399e-06
-1.07852e-06
2.30392e-07
8.09402e-06
1.72484e-07
6.5441e-06
-9.97109e-07
1.06292e-06
-2.2259e-07
7.34209e-06
-9.52617e-07
9.12232e-07
-3.212e-07
8.49233e-06
1.31145e-07
-4.45619e-07
9.85956e-06
-1.7486e-07
-2.75586e-07
9.32848e-06
-7.31015e-07
-2.59104e-07
8.98146e-06
-1.09482e-06
-2.86982e-07
8.00712e-06
-1.20127e-07
6.43398e-06
-9.78615e-07
9.05405e-07
-4.36377e-07
6.71685e-06
-7.8912e-07
6.96266e-07
-6.90337e-07
7.88749e-06
2.10478e-07
-8.17996e-07
8.54731e-06
-1.69691e-07
-8.07331e-07
8.65524e-06
-7.42556e-07
-7.70216e-07
8.40136e-06
-9.4105e-07
-5.74669e-07
7.23343e-06
-2.96297e-07
5.89934e-06
-8.18267e-07
5.93146e-07
5.80688e-06
-5.47473e-07
-4.37832e-07
4.61079e-07
6.64204e-06
-6.76179e-07
1.60445e-07
7.26288e-06
-8.54356e-07
-2.39877e-07
7.45853e-06
-8.93019e-07
-5.46987e-07
6.96775e-06
-7.8684e-07
-6.59298e-07
6.10964e-06
-5.54132e-07
5.1119e-06
-5.86408e-07
-3.06586e-07
4.63833e-07
8.26723e-07
5.51234e-06
-4.0452e-07
-6.89073e-07
3.34212e-07
1.24225e-06
6.15335e-06
-9.25394e-07
4.60093e-08
1.5352e-06
6.61127e-06
-1.11266e-06
-3.01021e-07
1.60622e-06
6.67881e-06
-1.1543e-06
-5.5661e-07
1.42613e-06
6.27403e-06
-1.0254e-06
-6.45957e-07
1.05675e-06
5.5502e-06
-7.735e-07
6.38767e-07
4.71464e-06
-5.8871e-07
-4.96735e-07
9.3717e-07
8.22487e-07
6.32384e-06
-7.48051e-07
7.4186e-07
1.39393e-06
7.41451e-06
1.67015e-07
1.67202e-06
8.34409e-06
-3.5926e-07
1.48016e-06
8.62924e-06
-8.83808e-07
1.60851e-06
7.87908e-06
-1.00211e-06
1.2192e-06
6.65073e-06
6.703e-07
5.42304e-06
-8.23295e-07
1.50897e-06
5.25047e-07
7.09369e-06
-1.13684e-06
1.22149e-06
9.09818e-07
9.06554e-06
1.92675e-07
1.14149e-06
1.02795e-05
-2.99571e-07
9.34785e-07
9.72888e-06
-1.23679e-06
1.10655e-06
9.89498e-06
-1.45658e-06
9.34705e-07
8.06762e-06
4.88331e-07
6.0733e-06
-1.1183e-06
1.78836e-06
4.75394e-08
7.53872e-06
-1.35068e-06
1.40353e-06
1.20373e-07
9.75067e-06
2.12732e-07
3.29271e-07
1.13706e-05
-2.84426e-07
5.0327e-07
1.03782e-05
-1.44651e-06
2.693e-07
1.08037e-05
-1.80777e-06
1.91438e-07
9.19811e-06
5.79548e-08
6.4704e-06
-1.30387e-06
1.77199e-06
-4.25917e-07
7.33278e-06
-1.28931e-06
1.65091e-06
-8.41483e-07
9.57426e-06
5.40037e-07
-1.04044e-06
1.23391e-05
-6.61317e-07
-9.36643e-07
1.19701e-05
-1.62919e-06
-9.84287e-07
1.12017e-05
-1.66077e-06
-6.56357e-07
8.88648e-06
-3.00689e-07
6.31714e-06
-1.1855e-06
1.34521e-06
-6.20165e-07
6.53985e-06
-9.74159e-07
1.27751e-06
-1.14311e-06
8.2563e-06
4.47659e-07
-1.54678e-06
9.88178e-06
-5.18955e-07
-1.74668e-06
1.04306e-05
-1.29204e-06
-1.45076e-06
9.6408e-06
-1.25078e-06
-8.93897e-07
7.42972e-06
-4.28299e-07
5.66891e-06
-8.92688e-07
7.46376e-07
5.56875e-06
-6.14173e-07
-5.14701e-07
6.48609e-07
6.46851e-06
-8.7185e-07
2.41623e-07
7.31621e-06
-1.1927e-06
-3.57455e-07
7.62452e-06
-1.31336e-06
-7.36551e-07
6.96978e-06
-1.07351e-06
-7.47931e-07
5.8958e-06
-6.6858e-07
4.8677e-06
-5.84604e-07
-3.47445e-07
8.12538e-08
3.34703e-07
5.38643e-06
-2.22958e-08
-2.6811e-07
7.52695e-08
5.19264e-07
5.96321e-06
-3.22468e-07
-4.11282e-08
7.14622e-07
6.40106e-06
-3.88322e-07
-2.37147e-07
8.12444e-07
6.47622e-06
-4.14031e-07
-3.18112e-07
5.72667e-07
6.07366e-06
-2.91323e-07
-3.02854e-07
3.22581e-07
5.37579e-06
-1.63676e-07
1.2836e-07
4.59491e-06
-2.58818e-07
-5.50939e-08
3.67675e-07
3.68719e-07
6.11196e-06
-1.8925e-07
4.00132e-07
7.1691e-07
7.18376e-06
9.14164e-08
1.06043e-06
8.30629e-06
-3.42877e-07
1.20704e-06
8.66892e-06
-5.46764e-07
8.40999e-07
7.81439e-06
-4.67997e-07
4.75243e-07
6.41991e-06
1.80985e-07
5.22412e-06
-3.22808e-07
7.68303e-07
2.45887e-07
6.84496e-06
-3.96702e-07
1.02151e-06
5.34964e-07
8.99402e-06
4.63416e-07
5.3911e-07
1.13595e-05
-7.21391e-07
3.80167e-07
1.17406e-05
-1.01127e-06
4.91485e-07
1.05334e-05
-7.38554e-07
3.36568e-07
7.93236e-06
1.27329e-07
5.81331e-06
-4.25079e-07
1.06761e-06
-5.66214e-08
7.30259e-06
-5.28963e-07
1.21934e-06
-1.31817e-07
1.02655e-05
5.91747e-07
-5.35822e-07
1.30727e-05
-7.72653e-07
-7.47362e-07
1.28686e-05
-1.40976e-06
-3.70182e-07
1.23026e-05
-9.54002e-07
-4.94534e-08
9.12881e-06
-6.05828e-08
6.1833e-06
-4.78897e-07
8.1595e-07
-2.12548e-07
7.06345e-06
-3.90789e-07
9.79622e-07
-5.84669e-07
9.86215e-06
5.59585e-07
-8.72955e-07
1.30951e-05
-6.93796e-07
-1.10986e-06
1.35862e-05
-1.17113e-06
-8.69213e-07
1.21764e-05
-6.81777e-07
-3.35587e-07
8.68321e-06
-1.19081e-07
6.00169e-06
-3.08142e-07
4.453e-07
-1.69223e-07
6.25778e-06
-2.06781e-07
6.13578e-07
-4.45459e-07
7.94908e-06
1.95169e-07
-7.19219e-07
1.01452e-05
-4.45402e-07
-1.08002e-06
1.10414e-05
-5.98437e-07
-5.45584e-07
9.4702e-06
-3.52981e-07
-1.98141e-07
7.04649e-06
-3.09857e-08
5.38504e-06
-1.57137e-07
1.63623e-07
5.37608e-06
-9.13663e-08
-4.86397e-08
1.94043e-07
6.16229e-06
-1.69852e-07
9.09426e-08
6.96806e-06
-2.6752e-07
-2.46742e-07
7.25875e-06
-3.76044e-07
-2.64735e-07
6.59961e-06
-1.57605e-07
-1.60192e-07
5.59172e-06
1.49668e-09
4.68063e-06
-7.42052e-08
7.00117e-08
-4.46703e-07
-3.08077e-07
5.48117e-06
4.42359e-07
2.18137e-07
-3.63632e-07
-5.49825e-07
6.01028e-06
4.20068e-07
-2.00146e-07
-7.50216e-07
6.39696e-06
5.9064e-07
-7.99714e-08
-7.33778e-07
6.45488e-06
6.34566e-07
6.37902e-08
-7.78752e-07
6.07563e-06
6.32909e-07
1.1576e-07
-6.09486e-07
5.41712e-06
5.16811e-07
-4.40135e-07
4.66378e-06
8.40145e-08
4.10491e-07
-5.59729e-07
-3.1585e-07
6.13794e-06
5.41671e-07
-4.02753e-07
-5.25763e-07
7.00202e-06
-1.16819e-07
-6.11802e-07
7.88161e-06
-4.93676e-08
-3.58023e-07
8.22643e-06
1.99607e-07
-6.80352e-07
7.46724e-06
3.0035e-07
-5.86611e-07
6.29693e-06
-4.11129e-07
5.23997e-06
2.56228e-07
-7.13776e-07
-1.85293e-07
6.73869e-06
6.89294e-07
-2.80241e-07
-2.65177e-07
8.29985e-06
1.81397e-07
-3.09004e-07
1.0595e-05
-1.92396e-07
-3.55543e-07
1.21118e-05
2.11429e-07
-4.18222e-07
9.86649e-06
5.1421e-07
-3.51917e-07
7.39457e-06
-2.64e-07
5.7341e-06
4.4745e-07
-7.19488e-07
-2.28477e-08
7.08863e-06
7.70679e-07
3.62794e-08
-1.57603e-07
9.40259e-06
4.55602e-07
-5.35155e-07
1.28795e-05
-3.76898e-07
-1.05082e-06
1.43967e-05
-2.70167e-08
-4.27768e-07
1.19625e-05
6.14675e-07
-1.12751e-07
8.24737e-06
-5.60933e-08
6.00358e-06
5.86476e-07
-8.74406e-07
2.41974e-07
6.85267e-06
8.20143e-07
-3.48857e-07
2.66514e-07
8.91202e-06
4.20275e-08
5.16559e-08
1.21159e-05
-5.06559e-09
-2.95226e-07
1.28779e-05
3.7735e-07
1.68595e-07
1.11979e-05
7.8603e-07
3.59792e-07
7.80197e-06
2.36748e-07
5.82745e-06
6.6761e-07
-7.98116e-07
4.32087e-07
6.17617e-06
6.89391e-07
-5.90443e-07
6.41491e-07
7.36736e-06
-1.60792e-07
8.14888e-07
8.95209e-06
1.19908e-07
7.49285e-07
9.71592e-06
5.61741e-07
8.77672e-07
8.3192e-06
7.05133e-07
6.89839e-07
6.57273e-06
4.38971e-07
5.30847e-06
5.79585e-07
-5.38212e-07
5.41563e-06
4.69789e-07
4.61629e-07
-4.39485e-07
6.04962e-06
6.55259e-07
-1.65489e-07
6.62744e-06
8.81916e-07
8.84827e-08
6.81089e-06
9.42972e-07
3.63874e-07
6.28831e-06
9.13265e-07
4.53551e-07
5.49143e-06
7.00188e-07
4.68828e-06
4.04688e-07
4.80791e-07
-5.36966e-07
-3.74605e-07
5.66045e-06
4.90713e-07
2.42534e-07
-4.9396e-07
-7.13568e-07
6.20449e-06
4.76704e-07
-3.0755e-07
-1.06809e-06
6.56159e-06
7.16867e-07
-8.31327e-08
-1.1847e-06
6.59942e-06
8.15303e-07
6.82257e-08
-1.06397e-06
6.22339e-06
7.64512e-07
8.32906e-08
-7.67835e-07
5.56313e-06
6.07683e-07
-5.49027e-07
4.776e-06
2.64213e-08
4.94833e-07
-7.55299e-07
-4.33342e-07
6.3213e-06
6.30572e-07
-6.95112e-07
-8.25223e-07
7.05307e-06
-3.32511e-07
-1.20563e-06
7.65645e-06
8.20489e-08
-1.2976e-06
7.9251e-06
3.44231e-07
-1.18252e-06
7.32392e-06
3.42822e-07
-8.29345e-07
6.3602e-06
-5.48938e-07
5.35392e-06
2.29414e-07
-1.07422e-06
-3.00818e-07
6.83389e-06
8.46121e-07
-9.25114e-07
-5.42903e-07
7.86825e-06
-2.65195e-07
-6.0455e-07
9.33314e-06
2.75125e-07
-4.22748e-07
1.0696e-05
6.86917e-07
-6.85173e-07
8.95648e-06
7.09638e-07
-5.73957e-07
7.11658e-06
-3.86946e-07
5.8e-06
4.83377e-07
-1.28375e-06
3.77069e-09
7.07191e-06
9.95317e-07
-9.19588e-07
-2.2603e-08
8.51829e-06
-6.63941e-08
-1.26382e-07
1.15473e-05
3.94811e-07
1.92356e-08
1.34939e-05
9.06507e-07
-7.48801e-08
1.08393e-05
9.91442e-07
-2.03487e-08
7.60789e-06
-6.29484e-08
5.99147e-06
6.80097e-07
-1.27206e-06
3.21434e-07
6.83969e-06
9.66802e-07
-1.03691e-06
5.42562e-07
8.11198e-06
-1.32735e-07
6.81653e-07
1.04022e-05
3.30585e-07
6.267e-07
1.18063e-05
9.93043e-07
7.62747e-07
9.69736e-06
1.00321e-06
5.31303e-07
7.23969e-06
2.59921e-07
5.80928e-06
7.00097e-07
-9.58438e-07
4.53049e-07
6.25675e-06
7.45901e-07
-9.01265e-07
7.49837e-07
7.10352e-06
-3.69278e-07
1.13321e-06
7.96821e-06
3.04173e-07
1.29333e-06
8.37542e-06
7.33657e-07
1.12492e-06
7.52711e-06
7.21363e-07
7.26946e-07
6.38878e-06
4.16007e-07
5.33464e-06
5.3898e-07
-6.13546e-07
5.54317e-06
4.97437e-07
4.42127e-07
-5.80325e-07
6.10691e-06
6.59078e-07
-2.92169e-07
6.52708e-06
9.45199e-07
1.21729e-07
6.61136e-06
1.07833e-06
3.84835e-07
6.20179e-06
9.47927e-07
4.17014e-07
5.51471e-06
6.71091e-07
4.73643e-06
3.52495e-07
4.3258e-07
-2.33805e-07
-5.61943e-09
5.76781e-06
2.03988e-07
-7.16406e-08
-2.84945e-07
-1.36535e-07
6.39244e-06
-3.358e-10
-2.94054e-07
-3.32705e-07
6.79012e-06
1.13063e-07
-2.89837e-07
-4.18909e-07
6.81306e-06
2.00815e-07
-2.87177e-07
-4.04707e-07
6.38277e-06
2.42289e-07
-2.97817e-07
-3.32533e-07
5.64233e-06
2.64125e-07
-3.3096e-07
4.77805e-06
-2.88603e-07
3.14364e-07
-2.51127e-07
-1.16011e-07
6.50282e-06
1.79911e-07
-3.21746e-07
-3.38751e-07
7.32579e-06
-2.80165e-07
-6.60859e-07
7.94266e-06
-2.12601e-07
-6.93087e-07
8.13138e-06
-2.10036e-07
-6.09983e-07
7.52634e-06
-2.36105e-07
-4.41305e-07
6.49472e-06
-3.65503e-07
5.38666e-06
-2.33302e-07
-3.8516e-07
-1.57663e-07
7.02022e-06
2.40269e-07
-5.15407e-07
-3.77058e-07
8.03624e-06
-2.27269e-07
-5.69271e-07
8.9526e-06
-4.5857e-08
-3.72655e-07
1.01939e-05
-5.51797e-09
-6.32188e-07
8.93774e-06
-6.59038e-08
-4.53758e-07
7.18937e-06
-3.44316e-07
5.8322e-06
-1.19708e-07
-5.14478e-07
-9.05752e-08
7.20127e-06
3.17605e-07
-6.17958e-07
-1.46497e-07
8.39086e-06
2.13053e-08
-1.8538e-07
1.05237e-05
1.64374e-07
7.88491e-08
1.28979e-05
3.5392e-07
-1.76743e-07
1.01918e-05
1.60814e-07
-1.8097e-07
7.52733e-06
-1.99299e-07
5.98521e-06
2.1544e-08
-5.11809e-07
5.64974e-09
6.9376e-06
3.17208e-07
-6.32836e-07
4.87662e-08
8.03777e-06
-2.44487e-07
2.22554e-07
9.6051e-06
1.45517e-07
5.13582e-07
1.098e-05
3.26063e-07
2.82602e-07
9.05578e-06
1.82163e-07
5.17082e-08
7.15019e-06
-4.88837e-08
5.77522e-06
6.576e-08
-3.68422e-07
4.45612e-08
6.33929e-06
2.46734e-07
-4.71222e-07
9.44968e-08
7.16029e-06
-3.79797e-07
2.90663e-07
7.80804e-06
8.33841e-09
4.79754e-07
8.02044e-06
9.91765e-08
3.2904e-07
7.3892e-06
5.33344e-08
1.27584e-07
6.3583e-06
3.31069e-08
5.28566e-06
1.99664e-08
-2.75987e-07
5.59147e-06
1.92896e-07
7.93544e-08
-3.42359e-07
6.16114e-06
1.06329e-07
-2.96527e-07
6.54415e-06
2.27313e-07
-1.2082e-07
6.5797e-06
3.35291e-07
-3.59856e-08
6.17495e-06
2.70843e-07
-2.8337e-08
5.47866e-06
1.55719e-07
4.67702e-06
-1.1274e-08
7.52782e-08
1.04661e-07
3.62151e-07
5.71824e-06
-7.11132e-08
-3.46247e-07
-3.19162e-08
5.61873e-07
6.43918e-06
-4.71878e-07
-2.94865e-07
6.10404e-07
6.97387e-06
-5.31209e-07
-5.48607e-07
4.94353e-07
7.0108e-06
-4.38121e-07
-6.70281e-07
3.22601e-07
6.43278e-06
-2.50729e-07
-6.41332e-07
9.12402e-08
5.54421e-06
-2.20892e-08
-1.47182e-07
4.63081e-06
-5.27117e-07
1.79991e-07
4.01415e-07
2.04168e-07
6.54389e-06
-2.84375e-07
2.22989e-07
2.67847e-07
7.79843e-06
-2.94839e-07
1.29347e-07
8.9414e-06
-6.51556e-07
9.14835e-09
8.97327e-06
-8.94688e-07
-1.16035e-08
8.10337e-06
-8.04571e-07
-5.21421e-08
6.54737e-06
-1.98274e-07
5.23518e-06
-6.0211e-07
5.10407e-07
-5.29606e-08
7.1719e-06
-4.04543e-07
1.84293e-07
-2.4954e-07
8.87983e-06
-5.60364e-07
-6.79853e-07
1.05069e-05
-5.53013e-07
-3.89376e-07
1.05852e-05
-9.42691e-07
-5.23873e-07
9.83965e-06
-8.75224e-07
-3.41089e-07
7.41052e-06
-3.0434e-07
5.68516e-06
-6.2333e-07
4.17258e-07
-2.4541e-07
7.35227e-06
-3.75845e-07
4.17566e-08
-4.50459e-07
8.96737e-06
-1.39585e-07
-5.5391e-07
1.05791e-05
-3.64754e-07
-3.36053e-07
1.30691e-05
-6.58911e-07
-5.07265e-07
1.04686e-05
-7.41012e-07
-4.56796e-07
7.72473e-06
-3.44982e-07
5.82481e-06
-5.43608e-07
3.29642e-07
-3.39036e-07
6.99717e-06
-2.95398e-07
2.36147e-08
-6.16907e-07
8.5099e-06
-3.02398e-07
-6.69852e-07
1.00471e-05
-3.60937e-07
-4.52839e-07
1.11551e-05
-6.39969e-07
-5.66976e-07
9.39393e-06
-6.45458e-07
-4.97303e-07
7.19587e-06
-3.33497e-07
5.58205e-06
-4.64362e-07
2.03493e-07
-3.30033e-07
6.30124e-06
-1.74434e-07
1.98353e-08
-5.71579e-07
7.29804e-06
-2.9286e-07
-6.53977e-07
8.10442e-06
-4.36879e-07
-5.51262e-07
8.26221e-06
-5.90267e-07
-5.20634e-07
7.49591e-06
-5.42019e-07
-4.21583e-07
6.23436e-06
-2.80789e-07
5.0751e-06
-3.84287e-07
5.68918e-09
5.50848e-06
-3.58275e-08
-2.17273e-07
-1.25358e-07
6.08393e-06
-3.63201e-07
-2.87263e-07
6.47006e-06
-4.1782e-07
-3.69841e-07
6.47274e-06
-3.61722e-07
-4.15817e-07
6.02101e-06
-3.20646e-07
-3.88582e-07
5.28727e-06
-2.57433e-07
4.48424e-06
-2.91849e-07
-1.83604e-07
1.31137e-08
2.94917e-07
5.57724e-06
5.28018e-08
-2.19666e-07
-7.40023e-08
5.75463e-07
6.28671e-06
-3.3559e-07
-3.28103e-07
7.25304e-07
6.90735e-06
-4.04597e-07
-6.0202e-07
6.66803e-07
6.94756e-06
-3.28991e-07
-6.56861e-07
3.23171e-07
6.24466e-06
-7.97397e-08
-5.48744e-07
-3.53453e-09
5.29178e-06
1.47933e-07
-2.52174e-07
4.42782e-06
-4.1542e-07
3.22831e-07
3.53236e-07
2.23338e-07
6.40366e-06
-1.41098e-07
2.53092e-07
4.81005e-07
7.99289e-06
-2.82449e-07
4.45023e-07
9.75783e-06
-8.55691e-07
3.10988e-07
9.90375e-06
-9.94766e-07
1.81278e-07
8.3848e-06
-7.31969e-07
-3.06846e-08
6.31213e-06
-2.40426e-07
4.94624e-06
-4.56228e-07
5.89334e-07
-1.984e-08
7.12737e-06
-3.00972e-07
3.11951e-07
-5.39686e-08
9.69318e-06
-6.16045e-07
-3.60304e-07
1.22416e-05
-1.04277e-06
-2.66191e-07
1.15903e-05
-1.2719e-06
-3.80752e-07
1.06312e-05
-8.87859e-07
-3.28742e-07
7.32471e-06
-3.09044e-07
5.35196e-06
-4.86137e-07
5.57003e-07
-2.40281e-07
7.33265e-06
-3.16376e-07
1.54568e-07
-5.46473e-07
9.86379e-06
-5.56396e-07
-7.20497e-07
1.16514e-05
-8.0559e-07
-5.62697e-07
1.36153e-05
-1.08741e-06
-6.57439e-07
1.10291e-05
-8.2554e-07
-5.02125e-07
7.63679e-06
-3.43511e-07
5.47419e-06
-4.40425e-07
4.20488e-07
-3.35245e-07
6.88475e-06
-2.12531e-07
2.18445e-07
-7.90294e-07
8.95603e-06
-5.4559e-07
-1.08157e-06
1.11727e-05
-8.30044e-07
-1.00952e-06
1.18885e-05
-9.85935e-07
-8.40233e-07
9.73329e-06
-7.10378e-07
-5.4562e-07
6.96435e-06
-3.23695e-07
5.22908e-06
-3.76918e-07
1.93686e-07
-2.8313e-07
6.12228e-06
-6.66617e-08
8.62562e-08
-5.94322e-07
7.20959e-06
-3.28667e-07
-8.21429e-07
8.25938e-06
-6.91153e-07
-7.67731e-07
8.38315e-06
-7.53372e-07
-6.35014e-07
7.35339e-06
-5.26375e-07
-4.22139e-07
5.88435e-06
-2.42776e-07
4.76469e-06
-2.96471e-07
-6.53011e-08
5.36519e-06
7.67596e-08
-1.51414e-07
-1.48692e-07
5.87008e-06
-2.96457e-07
-3.2623e-07
6.22055e-06
-3.93795e-07
-4.43899e-07
6.1921e-06
-3.68894e-07
-4.60662e-07
5.70467e-06
-3.01598e-07
-3.69025e-07
4.9881e-06
-2.14405e-07
4.25641e-06
-2.2959e-07
-1.54018e-07
-5.62781e-07
-2.73619e-07
5.56188e-06
5.61693e-07
2.89955e-07
-5.04803e-07
-3.5836e-07
6.13849e-06
4.49136e-07
-4.22321e-07
-4.29535e-07
6.64825e-06
6.06624e-07
-3.5603e-07
-4.64097e-07
6.64925e-06
6.96859e-07
-1.59564e-07
-6.93252e-07
5.96414e-06
7.77868e-07
-3.33667e-08
-6.81569e-07
5.11422e-06
7.3331e-07
-6.5943e-07
4.35064e-06
5.79476e-09
6.97882e-07
-6.17394e-07
-1.81896e-07
6.28077e-06
6.49127e-07
-4.65306e-07
-1.32751e-07
7.6157e-06
-4.45384e-07
-1.959e-08
9.32885e-06
-5.14381e-07
-1.34042e-07
9.64446e-06
-1.58743e-07
-4.26664e-07
7.76371e-06
9.50739e-08
-5.35524e-07
5.91321e-06
-5.25856e-07
4.76698e-06
1.4344e-07
-6.14075e-07
-8.44283e-08
6.93778e-06
7.0677e-07
-3.39167e-07
-8.96724e-08
9.37659e-06
-4.17408e-07
-1.32016e-08
1.2317e-05
-8.73611e-07
-3.40354e-07
1.22543e-05
-3.0118e-07
-3.66987e-07
1.0001e-05
1.57602e-07
-3.97769e-07
6.7291e-06
-3.65228e-07
5.09024e-06
2.59261e-07
-5.5699e-07
-2.53389e-08
7.13276e-06
6.98821e-07
-4.07659e-07
-2.23973e-07
9.85067e-06
-8.62304e-07
-5.76455e-07
1.26709e-05
-7.31348e-07
-2.90215e-07
1.34372e-05
-2.68625e-07
-3.54093e-07
1.05568e-05
2.04472e-07
-1.90685e-07
6.95787e-06
-1.71586e-07
5.17844e-06
3.07267e-07
-6.61722e-07
1.28988e-07
6.69225e-06
7.00562e-07
-4.7133e-07
-3.52847e-09
8.54591e-06
-7.75752e-07
-2.82763e-07
1.11848e-05
-6.30845e-07
-1.6007e-07
1.16166e-05
-1.62133e-07
-4.20902e-08
8.9542e-06
1.92997e-07
4.82152e-08
6.37113e-06
8.99475e-09
4.96496e-06
2.77034e-07
-5.75872e-07
2.24074e-07
6.00729e-06
5.96076e-07
-4.79154e-07
2.45239e-07
6.86531e-06
-4.9872e-07
2.4811e-07
7.7495e-06
-3.78873e-07
3.03243e-07
7.80159e-06
-1.09114e-07
2.90496e-07
6.75192e-06
1.09652e-07
1.99583e-07
5.51471e-06
1.18913e-07
4.58335e-06
1.8178e-07
-5.27196e-07
5.35522e-06
5.11724e-07
2.50127e-07
-4.82402e-07
5.74228e-06
3.28801e-07
-4.0671e-07
5.99554e-06
3.97966e-07
-2.63867e-07
5.92148e-06
4.31592e-07
-9.90734e-08
5.45253e-06
3.78213e-07
1.55577e-08
4.81154e-06
2.62091e-07
4.16264e-06
7.89718e-08
1.48777e-07
-9.82213e-07
-6.97757e-07
5.73191e-06
8.90034e-07
6.21451e-07
-8.743e-07
-1.13104e-06
6.17301e-06
9.88785e-07
-5.26557e-07
-1.54117e-06
6.4934e-06
1.34906e-06
-9.98791e-08
-1.68524e-06
6.42347e-06
1.48439e-06
1.91497e-07
-1.49209e-06
5.83776e-06
1.32739e-06
2.42602e-07
-1.11418e-06
5.1163e-06
1.0616e-06
-8.68566e-07
4.40197e-06
1.8309e-07
8.76194e-07
-1.38645e-06
-5.65994e-07
6.34169e-06
1.19396e-06
-1.18594e-06
-9.00111e-07
7.18518e-06
-6.17611e-07
-1.03193e-06
8.25307e-06
3.00975e-08
-1.08932e-06
8.40323e-06
5.6646e-07
-1.21367e-06
6.95026e-06
5.9979e-07
-9.23807e-07
5.69103e-06
-6.97231e-07
4.75914e-06
4.36245e-07
-1.73937e-06
-2.15033e-07
6.85298e-06
1.47357e-06
-1.29362e-06
-3.5337e-07
8.38595e-06
-7.54191e-07
-5.08354e-07
1.12545e-05
-1.08432e-07
-8.03525e-07
1.13241e-05
8.47495e-07
-5.67312e-07
8.39895e-06
8.95183e-07
-4.45383e-07
6.20414e-06
-3.87004e-07
5.01661e-06
6.5976e-07
-1.80715e-06
1.85957e-07
7.00633e-06
1.53306e-06
-1.31456e-06
1.89326e-07
8.81747e-06
-1.04022e-06
-1.03259e-07
1.19933e-05
-2.38057e-07
-9.8563e-08
1.19369e-05
8.69242e-07
1.38473e-07
8.74576e-06
9.66421e-07
9.00563e-08
6.32581e-06
-3.98227e-08
5.07633e-06
7.24802e-07
-1.62881e-06
4.98019e-07
6.64554e-06
1.36368e-06
-1.43012e-06
7.86713e-07
7.75116e-06
-7.36151e-07
1.00221e-06
9.38517e-06
1.02835e-07
1.04334e-06
9.63752e-06
7.84936e-07
8.39988e-07
7.57123e-06
8.08002e-07
4.99165e-07
5.93912e-06
2.2109e-07
4.89679e-06
6.15696e-07
-1.16457e-06
5.45434e-07
6.08908e-06
1.03591e-06
-1.01744e-06
8.61921e-07
6.64482e-06
-5.49721e-07
1.16105e-06
7.12436e-06
2.74836e-08
1.21746e-06
7.05165e-06
4.23902e-07
9.40953e-07
6.25479e-06
4.89671e-07
5.78854e-07
5.36943e-06
3.07649e-07
4.57578e-06
4.11114e-07
-8.40533e-07
5.50875e-06
7.82362e-07
4.51316e-07
-7.40167e-07
5.81029e-06
6.93524e-07
-4.52389e-07
5.96098e-06
9.08019e-07
-9.1346e-08
5.8341e-06
9.44148e-07
1.49028e-07
5.39616e-06
7.57201e-07
2.35323e-07
4.81247e-06
4.92111e-07
4.19042e-06
2.36628e-07
2.79192e-07
-8.58171e-07
-5.62426e-07
5.94864e-06
7.34492e-07
4.71001e-07
-8.28443e-07
-9.59463e-07
6.32874e-06
7.73983e-07
-5.42607e-07
-1.41213e-06
6.5181e-06
1.1023e-06
-1.38339e-07
-1.58775e-06
6.37131e-06
1.23556e-06
1.12891e-08
-1.2122e-06
5.84637e-06
1.05366e-06
1.8944e-08
-9.01384e-07
5.15981e-06
8.50521e-07
-6.97701e-07
4.43047e-06
-1.76278e-08
7.06354e-07
-1.21577e-06
-5.13632e-07
6.5243e-06
9.84331e-07
-1.15837e-06
-9.08452e-07
7.07773e-06
-5.9628e-07
-1.29516e-06
7.57483e-06
9.14473e-08
-1.41588e-06
7.54528e-06
3.57473e-07
-1.1119e-06
6.58484e-06
2.89243e-07
-7.90748e-07
5.64981e-06
-5.88282e-07
4.77157e-06
1.65246e-07
-1.61908e-06
-2.20869e-07
6.93226e-06
1.24722e-06
-1.51047e-06
-3.59101e-07
7.72855e-06
-4.97516e-07
-4.62038e-07
9.40712e-06
2.97067e-07
-6.57149e-07
9.7701e-06
7.55243e-07
-4.8901e-07
7.31592e-06
5.51369e-07
-3.96427e-07
6.01427e-06
-3.55814e-07
4.99953e-06
3.38082e-07
-1.71429e-06
1.52504e-07
7.0414e-06
1.30578e-06
-1.55747e-06
3.20438e-07
7.98249e-06
-5.71731e-07
3.04392e-07
1.02412e-05
2.7617e-07
2.52185e-07
1.01864e-05
8.23903e-07
2.69181e-07
7.44031e-06
6.1419e-07
5.57494e-08
6.08349e-06
-9.2323e-08
5.04123e-06
3.86675e-07
-1.38234e-06
3.21872e-07
6.75159e-06
1.10669e-06
-1.30814e-06
6.30274e-07
7.36839e-06
-6.21081e-07
9.86314e-07
8.01416e-06
2.27194e-07
1.06067e-06