/*--------------------------------*- C++ -*----------------------------------*\
| =========                 |                                                 |
| \\      /  F ield         | OpenFOAM: The Open Source CFD Toolbox           |
|  \\    /   O peration     | Version:  plus.master.MPPICInterFoam            |
|   \\  /    A nd           | Web:      www.OpenFOAM.com                      |
|    \\/     M anipulation  |                                                 |
\*---------------------------------------------------------------------------*/
FoamFile
{
    version     2.0;
    format      ascii;
    class       volVectorField;
    location    "3.6";
    object      U;
}
// * * * * * * * * * * * * * * * * * * * * * * * * * * * * * * * * * * * * * //

dimensions      [0 1 -1 0 0 0 0];

internalField   nonuniform List<vector> 
11821
(
(0.034593 0.0102616 0.432628)
(0.0314112 0.0249607 0.476708)
(0.0277354 0.0175385 0.394206)
(0.0162857 0.0387562 0.462816)
(0.0206279 0.0282572 0.403578)
(0.0189936 0.0206172 0.348179)
(-0.0226931 -0.0259174 0.415073)
(-0.0181341 -0.0378769 0.455407)
(-0.00734357 -0.0458668 0.483294)
(0.00635614 -0.0442409 0.48196)
(0.0156536 -0.0349565 0.453269)
(0.0180901 -0.0233678 0.412025)
(0.0166647 -0.0144886 0.364632)
(-0.0331028 -0.028355 0.465083)
(-0.0278853 -0.0429894 0.526803)
(-0.0106918 -0.0508181 0.583358)
(0.0112242 -0.0487053 0.577952)
(0.0255949 -0.0390661 0.522173)
(0.0288908 -0.024533 0.460692)
(0.0243903 -0.0136076 0.401804)
(-0.046717 -0.0216731 0.514953)
(-0.0389365 -0.0317589 0.636367)
(-0.0145368 -0.0328769 0.831647)
(0.0173323 -0.0305842 0.796165)
(0.0356584 -0.0277026 0.620637)
(0.0409699 -0.0174781 0.507305)
(0.0331197 -0.00894951 0.43052)
(-0.0530937 -0.00417611 0.550684)
(-0.0406088 -0.00433397 0.780942)
(-0.00853921 0.00648093 1.00262)
(0.00924697 0.00745023 0.976969)
(0.0367737 -0.00193074 0.756577)
(0.0461423 -0.000421541 0.538898)
(0.0381757 0.000923159 0.444034)
(-0.050551 0.0156278 0.526421)
(-0.0406362 0.0261314 0.698744)
(-0.0120496 0.0294479 0.942427)
(0.0134568 0.0318638 0.929495)
(0.0368293 0.0273735 0.679484)
(0.0440344 0.0174969 0.516543)
(0.0354844 0.0119796 0.431916)
(-0.0384107 0.0264181 0.471066)
(-0.0322454 0.0406985 0.549405)
(-0.0126683 0.047382 0.643361)
(0.0135309 0.0476142 0.632986)
(0.0294861 0.0407112 0.541476)
(0.033239 0.0280682 0.464946)
(0.0270828 0.0185208 0.400739)
(-0.0254882 0.0268563 0.412896)
(-0.0211123 0.0404671 0.459223)
(-0.00838718 0.0498315 0.493413)
(0.00736782 0.0496224 0.491661)
(0.0184128 0.0405753 0.456173)
(0.0206902 0.0286721 0.409719)
(0.0175057 0.0202034 0.359068)
(-0.0142348 -0.0139672 0.422989)
(-0.0118599 -0.0210173 0.459446)
(-0.00518502 -0.0270245 0.481889)
(0.00364567 -0.0255843 0.48097)
(0.00879734 -0.0187362 0.456993)
(0.00950237 -0.0117241 0.418433)
(0.00850427 -0.00649901 0.370753)
(-0.0199921 -0.0161789 0.468562)
(-0.0186143 -0.026564 0.515729)
(-0.00761723 -0.0361348 0.55145)
(0.00796599 -0.0337221 0.549671)
(0.0161861 -0.0232238 0.512934)
(0.016111 -0.0128357 0.463647)
(0.0128541 -0.00589823 0.408333)
(-0.0296281 -0.0141875 0.506131)
(-0.0288255 -0.0239157 0.572312)
(-0.0114218 -0.0301693 0.655429)
(0.0139065 -0.0275021 0.646357)
(0.0256161 -0.0203272 0.567868)
(0.0249396 -0.0103866 0.499824)
(0.0181592 -0.00363149 0.435342)
(-0.0383193 -0.00316856 0.528295)
(-0.035601 -0.00543303 0.632536)
(-0.0175725 -0.00864121 0.898038)
(0.0199714 -0.00777852 0.853301)
(0.0304494 -0.00282214 0.626773)
(0.0323293 0.000300267 0.520096)
(0.022332 0.00239957 0.446965)
(-0.0350029 0.0110121 0.512411)
(-0.0343013 0.0190685 0.59647)
(-0.0184396 0.0309045 0.790031)
(0.019559 0.029839 0.77618)
(0.0300302 0.0197209 0.590082)
(0.0296591 0.0133321 0.505392)
(0.0204794 0.00939634 0.437181)
(-0.0240998 0.0170564 0.471472)
(-0.0236456 0.0288893 0.525427)
(-0.0101419 0.0394649 0.5756)
(0.0102856 0.0391026 0.572843)
(0.0208933 0.029418 0.52226)
(0.0198878 0.019232 0.467254)
(0.0146301 0.0130493 0.409301)
(-0.0155941 0.0162569 0.420629)
(-0.0141194 0.0252205 0.461231)
(-0.0063264 0.0343198 0.488117)
(0.00509379 0.0340557 0.487333)
(0.0113582 0.0259793 0.459904)
(0.0113058 0.0183465 0.418667)
(0.00899559 0.0136555 0.368912)
(-0.00574209 -0.0022665 0.427678)
(-0.0051976 -0.00510595 0.463609)
(-0.00272066 -0.00790284 0.484453)
(0.000702925 -0.00704662 0.483976)
(0.00198589 -0.00355521 0.461577)
(0.00128029 -0.000468993 0.422952)
(0.000290584 0.00155117 0.373585)
(-0.00736057 -0.00395574 0.473046)
(-0.0079594 -0.00882933 0.515634)
(-0.00358589 -0.0147249 0.54332)
(0.00340088 -0.0130436 0.543249)
(0.00593585 -0.00639067 0.514162)
(0.00425652 -0.0014633 0.46877)
(0.00188989 0.00176698 0.413205)
(-0.0115968 -0.00446473 0.506935)
(-0.0143994 -0.0108756 0.558218)
(-0.00621044 -0.0192698 0.599613)
(0.00744248 -0.0171167 0.601159)
(0.0119958 -0.00803999 0.556761)
(0.00865196 -0.00152375 0.501743)
(0.00429348 0.00223299 0.4411)
(-0.0172789 3.92463e-05 0.523489)
(-0.0236945 -0.00172004 0.586221)
(-0.0146481 -0.00835244 0.709408)
(0.0168014 -0.00744853 0.736499)
(0.0194943 0.000671826 0.584906)
(0.0139226 0.0031129 0.517797)
(0.00653648 0.00444362 0.452997)
(-0.014403 0.00621328 0.511233)
(-0.0196462 0.0113527 0.567009)
(-0.0100246 0.0182164 0.632109)
(0.011229 0.0182817 0.64019)
(0.0168186 0.0125708 0.565312)
(0.0116792 0.00900395 0.506568)
(0.00547051 0.00699503 0.444781)
(-0.00875688 0.00754111 0.476412)
(-0.0108625 0.0142162 0.522392)
(-0.00511549 0.023418 0.55446)
(0.00502353 0.0232853 0.555437)
(0.00892921 0.0155814 0.521557)
(0.0063909 0.0104861 0.474366)
(0.00266567 0.00756551 0.417991)
(-0.00507515 0.00610624 0.427058)
(-0.00548968 0.0101325 0.467247)
(-0.00290313 0.0153974 0.491233)
(0.00177015 0.0155685 0.491679)
(0.0035471 0.0116215 0.468106)
(0.00217816 0.00842421 0.428165)
(0.000314124 0.00666209 0.376734)
(0.00254399 0.00858631 0.430898)
(0.00152419 0.00937049 0.469501)
(0.000183809 0.00937197 0.491992)
(-0.00144377 0.0098658 0.492399)
(-0.00383191 0.0106332 0.469293)
(-0.00626107 0.0105155 0.428067)
(-0.00774046 0.00924998 0.374934)
(0.00465801 0.00740101 0.479781)
(0.00259063 0.00727787 0.524269)
(0.00113577 0.00622121 0.550603)
(4.88097e-05 0.00729044 0.552984)
(-0.00261824 0.0089489 0.524865)
(-0.00630818 0.00992277 0.478837)
(-0.00887205 0.00928748 0.419046)
(0.00509759 0.00526959 0.515577)
(0.00134072 0.00400072 0.560885)
(0.00103883 0.00130674 0.597182)
(0.00178242 0.00242972 0.602952)
(-0.000436326 0.00619377 0.565582)
(-0.00473808 0.00767348 0.510696)
(-0.00930593 0.00812032 0.450878)
(0.00442058 0.00392724 0.532305)
(-0.00179056 0.00433248 0.585827)
(-0.0017874 0.00366547 0.624282)
(0.00400161 0.00447287 0.643073)
(0.00354313 0.00658102 0.588254)
(-0.00312522 0.0068095 0.527811)
(-0.00911212 0.00660267 0.465164)
(0.00573957 0.0023162 0.521829)
(0.000965942 0.00471247 0.571578)
(-0.000315836 0.00818735 0.598725)
(0.00270516 0.00861155 0.610638)
(0.00166635 0.00675739 0.572844)
(-0.00397946 0.005451 0.516937)
(-0.00962862 0.00450102 0.457826)
(0.00652379 -0.00076437 0.486561)
(0.00325653 0.00112733 0.5313)
(0.00133747 0.00467547 0.560703)
(0.000944814 0.00534879 0.565988)
(-0.00120424 0.00357049 0.532176)
(-0.00599952 0.00189159 0.489322)
(-0.00981006 0.0016778 0.429532)
(0.00549031 -0.00338166 0.433801)
(0.00388849 -0.00380501 0.478698)
(0.00185112 -0.00245481 0.504896)
(-0.000400883 -0.001716 0.504913)
(-0.00349939 -0.00233867 0.48357)
(-0.00680291 -0.00228184 0.441038)
(-0.0086066 -0.000805078 0.383851)
(0.011006 0.0189845 0.428928)
(0.00900714 0.0247684 0.472953)
(0.00406007 0.0284891 0.499812)
(-0.00269986 0.0292188 0.501434)
(-0.00939926 0.0276727 0.47626)
(-0.0141619 0.0229526 0.429755)
(-0.0158553 0.0165811 0.370718)
(0.0186086 0.0192354 0.484688)
(0.0159633 0.0264868 0.537469)
(0.00807318 0.02912 0.566098)
(-0.0013498 0.0284785 0.563958)
(-0.0112585 0.029564 0.541346)
(-0.0195027 0.0258039 0.491019)
(-0.0215464 0.0177043 0.421597)
(0.0260039 0.0152346 0.527487)
(0.0198205 0.0194264 0.57672)
(0.00949158 0.0236599 0.60926)
(0.00030272 0.024741 0.628535)
(-0.00937305 0.0229109 0.576114)
(-0.0224437 0.0217375 0.532558)
(-0.028083 0.0153829 0.461157)
(0.0294586 0.00795306 0.547312)
(0.0252125 0.0114103 0.603383)
(0.011785 0.0179334 0.650059)
(-5.21644e-05 0.0178347 0.665773)
(-0.0102698 0.0156575 0.606451)
(-0.023222 0.0126389 0.546352)
(-0.0320326 0.00907793 0.479489)
(0.0305756 -0.00190085 0.536321)
(0.0289775 -0.0013283 0.591278)
(0.0120989 0.0014494 0.617032)
(-0.00128647 0.00211783 0.632995)
(-0.0115521 0.00171533 0.587207)
(-0.0257508 -0.000423938 0.544413)
(-0.0320059 0.000306586 0.472297)
(0.0257201 -0.0104261 0.497106)
(0.0237089 -0.0153065 0.556556)
(0.01255 -0.0186702 0.584277)
(0.000401411 -0.0157847 0.587844)
(-0.011857 -0.0141034 0.558002)
(-0.0253932 -0.0134175 0.513503)
(-0.0266495 -0.00693738 0.438896)
(0.0172407 -0.013858 0.435542)
(0.0159111 -0.0215341 0.490656)
(0.00939159 -0.0262849 0.524815)
(-0.00109921 -0.0262331 0.532717)
(-0.011619 -0.0250244 0.503961)
(-0.0182376 -0.0180982 0.452879)
(-0.0186157 -0.0099318 0.384762)
(0.0132106 0.0216353 0.416824)
(0.0121032 0.0304361 0.4655)
(0.00600689 0.0369876 0.498339)
(-0.00358634 0.0386028 0.502203)
(-0.0126652 0.0341935 0.473462)
(-0.0175721 0.0257449 0.420477)
(-0.0179103 0.0162905 0.357278)
(0.0247757 0.0240478 0.478485)
(0.0250997 0.0379902 0.552098)
(0.0137789 0.0466125 0.601631)
(-0.00280141 0.04553 0.615638)
(-0.0184504 0.0438375 0.571917)
(-0.0279329 0.0325579 0.498741)
(-0.0263329 0.0190585 0.411908)
(0.037789 0.0198375 0.532397)
(0.0416986 0.0343513 0.644553)
(0.0187501 0.0397043 0.677934)
(-0.00139205 0.0341636 0.659354)
(-0.0208375 0.0394088 0.670785)
(-0.0410869 0.0316396 0.582278)
(-0.0365811 0.0171772 0.459728)
(0.0450284 0.00860515 0.560779)
(0.0477617 0.0150958 0.662823)
(0.0219241 0.0220079 0.731679)
(-0.00167068 0.0213055 0.734525)
(-0.0223943 0.0197508 0.696028)
(-0.0501267 0.0173214 0.644895)
(-0.0435454 0.00788865 0.486991)
(0.0429448 -0.00629082 0.548423)
(0.0499933 -0.0103325 0.660744)
(0.0334221 -0.00998868 0.828013)
(-0.00255502 -0.00461895 0.74335)
(-0.0318818 -0.00868207 0.737028)
(-0.0499879 -0.00794307 0.633149)
(-0.0395513 -0.0042971 0.478095)
(0.032793 -0.0160704 0.495779)
(0.0391525 -0.0307906 0.604896)
(0.0254526 -0.0399379 0.674516)
(-0.000614862 -0.0412969 0.688326)
(-0.0277154 -0.0387636 0.675218)
(-0.0374699 -0.0238631 0.552994)
(-0.0301008 -0.011424 0.432952)
(0.0199166 -0.0171054 0.423585)
(0.0206003 -0.0294169 0.490985)
(0.0138671 -0.0394181 0.547295)
(-0.00183882 -0.0449799 0.566223)
(-0.0165996 -0.0360809 0.524425)
(-0.0219202 -0.0229086 0.44999)
(-0.0192418 -0.0118634 0.371356)
(0.00151219 0.00813329 0.402615)
(0.00259967 0.0108435 0.449005)
(0.00106393 0.013222 0.483822)
(-0.00392839 0.0144776 0.489786)
(-0.00824699 0.0103178 0.4587)
(-0.00870951 0.00626782 0.404455)
(-0.00758908 0.00246672 0.34366)
(0.0075849 0.00998193 0.461372)
(0.0115463 0.0166551 0.549096)
(0.00879043 0.0239953 0.635075)
(-0.0037026 0.0299146 0.658938)
(-0.014154 0.0190398 0.596819)
(-0.0144741 0.0106183 0.489332)
(-0.0104004 0.00441114 0.394146)
(0.0137809 0.00928496 0.521566)
(0.0272929 0.0204414 0.695143)
(0.0254241 0.0288043 0.839604)
(-0.0033972 0.026473 0.786587)
(-0.0294008 0.0238464 0.785601)
(-0.02586 0.0131843 0.612587)
(-0.0136994 0.00491934 0.44285)
(0.0183327 0.00271888 0.558389)
(0.0375382 0.00694126 0.778289)
(0.0295327 0.00124358 0.953529)
(-0.00235934 -0.000858747 0.828394)
(-0.0355061 0.00286077 0.903746)
(-0.0378577 0.00468052 0.710079)
(-0.0154968 0.00097795 0.474336)
(0.0137043 -0.00486949 0.541036)
(0.02765 -0.0132018 0.756992)
(0.0278758 -0.0251014 0.990817)
(-0.00191366 -0.0301173 1.03461)
(-0.0329845 -0.0220951 0.916978)
(-0.0269808 -0.00788855 0.680871)
(-0.0105313 -0.00329018 0.460867)
(0.00757081 -0.00599373 0.47703)
(0.0152777 -0.016042 0.61991)
(0.0153449 -0.0256295 0.786531)
(-0.00430173 -0.0390849 0.848543)
(-0.0187356 -0.0227978 0.747461)
(-0.0126664 -0.00812747 0.550458)
(-0.00568907 -0.00245729 0.410492)
(0.00327265 -0.00287024 0.404918)
(0.00514449 -0.00715035 0.471266)
(0.00523183 -0.0110071 0.539541)
(-0.0022603 -0.0159328 0.564883)
(-0.00812807 -0.00662471 0.51149)
(-0.00591209 -0.00173681 0.427333)
(-0.00273994 0.000984036 0.35289)
(-0.0130583 -0.00797509 0.402211)
(-0.0117471 -0.0143575 0.442667)
(-0.00783986 -0.0195716 0.473892)
(-0.00386387 -0.020275 0.47928)
(4.65013e-05 -0.0204182 0.44991)
(0.00318438 -0.0163292 0.399373)
(0.00349557 -0.0122471 0.343091)
(-0.0163844 -0.00939218 0.452789)
(-0.0140378 -0.0159797 0.526315)
(-0.00686848 -0.0205632 0.608584)
(-0.00243167 -0.0175301 0.639125)
(0.00183554 -0.0217408 0.572761)
(0.00788082 -0.0176618 0.471445)
(0.00883939 -0.0125347 0.387224)
(-0.0211065 -0.00735015 0.503187)
(-0.0155734 -0.0112217 0.653679)
(0.00135126 -0.0113313 0.859839)
(6.73449e-05 -0.00601754 0.969128)
(-0.00227867 -0.0144834 0.795203)
(0.011491 -0.0136553 0.575157)
(0.0150002 -0.00991305 0.427361)
(-0.0231951 -0.00345465 0.5354)
(-0.011848 -0.00655912 0.758351)
(0.0116787 -0.0123453 1.00791)
(0.00112093 -0.021263 1.11349)
(-0.0111237 -0.0130045 0.94082)
(0.0101704 -0.00737238 0.65936)
(0.0190905 -0.00489636 0.451553)
(-0.0253408 0.00279319 0.516817)
(-0.0193935 0.000641301 0.719081)
(-0.00141147 -0.0105088 0.982391)
(0.000701715 -0.0232408 1.00414)
(0.00311716 -0.00626131 0.910058)
(0.0179672 0.00322559 0.620725)
(0.0218628 0.00247783 0.437885)
(-0.0220203 0.00998661 0.459868)
(-0.0206232 0.0137526 0.57153)
(-0.0108878 0.0143203 0.732802)
(-0.000540421 0.00787972 0.806829)
(0.0100342 0.0168821 0.674346)
(0.0188764 0.0157513 0.504796)
(0.0190915 0.01013 0.39559)
(-0.0150829 0.0136436 0.399217)
(-0.0145859 0.0198109 0.451424)
(-0.00885584 0.0260698 0.504287)
(-0.0010434 0.0270248 0.523488)
(0.00672142 0.0271648 0.476943)
(0.0123321 0.0209675 0.409704)
(0.0129212 0.0140713 0.34718)
(-0.0146934 -0.00883634 0.414907)
(-0.0149154 -0.0168297 0.45349)
(-0.0115041 -0.0250885 0.480145)
(-0.00535092 -0.0279754 0.483766)
(0.000443492 -0.0254524 0.456359)
(0.00274951 -0.0192225 0.408534)
(0.00194728 -0.0145767 0.352358)
(-0.0199155 -0.0119595 0.462249)
(-0.0213627 -0.022857 0.518142)
(-0.0146537 -0.0330334 0.568478)
(-0.00326062 -0.03455 0.590794)
(0.00685883 -0.0322044 0.542374)
(0.0105958 -0.0234754 0.4679)
(0.00849625 -0.0158381 0.394337)
(-0.0278308 -0.0111587 0.501242)
(-0.0291734 -0.0200386 0.586074)
(-0.0166618 -0.0263944 0.723519)
(0.0011859 -0.0271776 0.842538)
(0.0145116 -0.0278134 0.681867)
(0.0199366 -0.020695 0.529266)
(0.017352 -0.0139886 0.427828)
(-0.0327874 -0.00470605 0.52139)
(-0.0318679 -0.00880259 0.645795)
(-0.0155412 -0.0130882 0.920064)
(0.00726614 -0.00775887 1.04389)
(0.0204954 -0.0132767 0.851955)
(0.025533 -0.00897197 0.574234)
(0.0240116 -0.00669231 0.443886)
(-0.0321501 0.00490371 0.50448)
(-0.0329225 0.00790805 0.611423)
(-0.0197893 0.0101341 0.830546)
(0.00476989 0.0115852 0.928119)
(0.0215668 0.0122107 0.765171)
(0.0273423 0.0078038 0.544795)
(0.0244571 0.00316815 0.431041)
(-0.0247494 0.0116693 0.46037)
(-0.0274633 0.0193194 0.527293)
(-0.0189849 0.0260798 0.604126)
(-0.000415498 0.0279169 0.644862)
(0.0158318 0.0268147 0.568805)
(0.0215884 0.0188828 0.475507)
(0.0182881 0.0102656 0.395712)
(-0.0161447 0.0133021 0.40788)
(-0.0177285 0.0210006 0.449999)
(-0.01311 0.0304626 0.483582)
(-0.00217367 0.0343071 0.492015)
(0.00805283 0.0302687 0.460453)
(0.0120837 0.0207343 0.408737)
(0.0112118 0.0127205 0.351717)
(-0.00560381 0.00149044 0.426715)
(-0.00708835 -0.000816081 0.469196)
(-0.00815673 -0.00471859 0.495862)
(-0.00811967 -0.00734638 0.497789)
(-0.00790985 -0.00760604 0.468993)
(-0.00828084 -0.00740846 0.418441)
(-0.00828458 -0.00836655 0.357452)
(-0.00528575 -0.00166196 0.477646)
(-0.00826175 -0.00703094 0.531707)
(-0.0088398 -0.0155016 0.572202)
(-0.00672813 -0.0168937 0.588697)
(-0.0051097 -0.0147588 0.547715)
(-0.00644673 -0.0109012 0.477798)
(-0.00685576 -0.00959127 0.401382)
(-0.00799033 -0.00444693 0.514832)
(-0.0140174 -0.0111964 0.58608)
(-0.0101005 -0.0175898 0.66495)
(-0.00361387 -0.0157968 0.739121)
(0.000613831 -0.0185654 0.649423)
(-0.000933419 -0.0135308 0.529499)
(-0.00310183 -0.0104803 0.434078)
(-0.0113332 -0.0040045 0.529861)
(-0.0169218 -0.00808682 0.620773)
(-0.00908829 -0.0121792 0.788246)
(0.00524764 -0.00584195 0.95182)
(0.00736747 -0.0124922 0.751241)
(0.00693055 -0.00945483 0.557315)
(0.00207757 -0.00793052 0.44652)
(-0.0110465 -0.00108634 0.512013)
(-0.0169136 -0.000850456 0.595006)
(-0.0133062 0.001756 0.711484)
(-0.00035819 0.0112269 0.818104)
(0.00750666 0.00270815 0.672317)
(0.00728133 -0.00126583 0.532038)
(0.00298594 -0.00324515 0.432198)
(-0.0081661 0.000865926 0.469286)
(-0.0125186 0.00261478 0.529082)
(-0.0128269 0.00814054 0.580686)
(-0.00467374 0.01272 0.599741)
(0.00289334 0.00942068 0.550893)
(0.00249168 0.00312031 0.47437)
(0.000734131 7.73244e-05 0.396945)
(-0.00619918 0.00167689 0.415772)
(-0.00889877 0.00286017 0.457329)
(-0.0096457 0.00736088 0.486334)
(-0.00580077 0.0115326 0.490711)
(-0.00164057 0.00840041 0.46121)
(-0.000746889 0.00409154 0.410662)
(-0.000695959 0.00169494 0.352129)
(0.0035049 0.0108569 0.428714)
(0.00206362 0.0161656 0.47857)
(-0.00415027 0.0186233 0.510845)
(-0.011982 0.0152178 0.512655)
(-0.0174935 0.00994485 0.47741)
(-0.0189445 0.00291425 0.418163)
(-0.0164485 -0.00372426 0.351176)
(0.0111038 0.00873188 0.486562)
(0.00977193 0.0126324 0.554477)
(-0.00121974 0.0102545 0.605309)
(-0.0132784 0.00564333 0.617807)
(-0.0214271 0.00492441 0.56859)
(-0.024887 0.00164366 0.485203)
(-0.0200144 -0.00424398 0.397356)
(0.0150171 0.00203127 0.526478)
(0.00965186 -0.000865831 0.606357)
(-0.00484358 -0.00838504 0.663527)
(-0.0167876 -0.00445594 0.769794)
(-0.0204524 -0.00789234 0.674831)
(-0.0258484 -0.00562274 0.537297)
(-0.0215782 -0.00703 0.430812)
(0.0128278 -0.00467873 0.538791)
(0.00515759 -0.0104494 0.625777)
(-0.000899624 -0.0184054 0.768166)
(-0.00665566 -0.0120085 0.943488)
(-0.0157022 -0.0154471 0.754715)
(-0.0193049 -0.0116218 0.560023)
(-0.0187091 -0.00933737 0.441167)
(0.0103652 -0.00858058 0.517413)
(0.00470666 -0.0147628 0.599013)
(-0.0037994 -0.0174468 0.71177)
(-0.00967681 -0.0116414 0.800732)
(-0.0140353 -0.0148234 0.66924)
(-0.0182959 -0.013345 0.529354)
(-0.0161729 -0.00963692 0.424376)
(0.00653846 -0.00991872 0.471235)
(0.00380849 -0.0172791 0.533882)
(-0.00426988 -0.0180366 0.579711)
(-0.0102521 -0.0134542 0.592069)
(-0.0142007 -0.014842 0.546652)
(-0.0165482 -0.01316 0.469114)
(-0.0133726 -0.00870993 0.386984)
(0.00144471 -0.0080629 0.413831)
(-0.00115118 -0.0137225 0.456801)
(-0.00591382 -0.0157918 0.484877)
(-0.00941892 -0.0135401 0.485875)
(-0.0111462 -0.0123601 0.45503)
(-0.0116135 -0.00977538 0.402047)
(-0.00974531 -0.0066281 0.34161)
(-8.3199e-05 0.00743048 0.419412)
(-2.21636e-05 0.0124854 0.47583)
(-0.00514636 0.0150015 0.522145)
(-0.0133968 0.0137284 0.52516)
(-0.0182641 0.00548593 0.475443)
(-0.0169831 -0.0017029 0.40379)
(-0.0130437 -0.0077794 0.335718)
(0.00682023 0.00801323 0.483542)
(0.010382 0.0167783 0.599314)
(0.00119873 0.0209802 0.715011)
(-0.0168876 0.016843 0.707577)
(-0.0278353 0.00923948 0.627529)
(-0.0237382 0.000609626 0.484053)
(-0.0157821 -0.0064759 0.378638)
(0.0118982 0.00330718 0.536236)
(0.0167133 0.00658456 0.706311)
(-0.00513018 -0.000652965 0.893188)
(-0.0220738 0.000874462 0.803912)
(-0.0357474 -0.00198285 0.773238)
(-0.0297393 -0.00427537 0.558269)
(-0.0176218 -0.00746592 0.411572)
(0.01262 -0.00402164 0.550481)
(0.0122644 -0.00916701 0.702577)
(-0.00465161 -0.0144608 0.804206)
(-0.0209353 -0.0121128 0.974816)
(-0.0284549 -0.0155689 0.790972)
(-0.0266996 -0.0121449 0.581663)
(-0.0162134 -0.0093079 0.421804)
(0.0087517 -0.00876666 0.519539)
(0.011404 -0.0203623 0.659153)
(-0.00347422 -0.0269325 0.770209)
(-0.0206238 -0.0250003 0.841586)
(-0.0270236 -0.0224117 0.716147)
(-0.0233415 -0.0152843 0.534869)
(-0.014116 -0.00942892 0.402806)
(0.00400192 -0.00906768 0.462994)
(0.00552829 -0.0197425 0.546459)
(-0.00253871 -0.027334 0.618714)
(-0.0150643 -0.0240331 0.629821)
(-0.0212018 -0.020497 0.561362)
(-0.0178943 -0.0135261 0.454163)
(-0.0110642 -0.00784739 0.3654)
(-0.00159007 -0.0060342 0.403268)
(-0.00244922 -0.0119394 0.445112)
(-0.00649327 -0.0156342 0.47385)
(-0.0111471 -0.0145756 0.473137)
(-0.0130589 -0.0120561 0.437195)
(-0.011733 -0.00857081 0.381759)
(-0.00816705 -0.00535015 0.323464)
(-0.0164581 -0.0088772 0.411901)
(-0.0150244 -0.0128599 0.461605)
(-0.0129004 -0.0170506 0.507179)
(-0.0111202 -0.0186655 0.509598)
(-0.00715566 -0.0220069 0.45565)
(-0.00181545 -0.0205703 0.385332)
(0.000513236 -0.0195472 0.324308)
(-0.0188788 -0.00649085 0.471353)
(-0.0152969 -0.00691681 0.590263)
(-0.0117543 -0.00531693 0.733779)
(-0.0147626 -0.00594211 0.763878)
(-0.0102847 -0.015776 0.619026)
(0.00114294 -0.0172398 0.457074)
(0.00452812 -0.0168064 0.359181)
(-0.0204118 -0.00360478 0.52607)
(-0.0127426 -0.00148499 0.732884)
(-0.00917946 0.00312846 0.920353)
(-0.0189551 -0.00630766 0.933795)
(-0.0196974 -0.00995626 0.808007)
(0.00146724 -0.0129818 0.532521)
(0.00749902 -0.0125235 0.386915)
(-0.0194134 -0.00191476 0.5418)
(-0.0116551 -0.005239 0.762488)
(-0.0175401 -0.00792857 0.942526)
(-0.0245653 -0.00889753 1.05913)
(-0.0156509 -0.0116863 0.851114)
(0.00229255 -0.00855994 0.555279)
(0.00879239 -0.00747367 0.394916)
(-0.0203172 0.0011391 0.506816)
(-0.0157427 -0.00474255 0.672482)
(-0.0165747 -0.0168036 0.890305)
(-0.0222338 -0.00988369 0.928418)
(-0.0115278 -0.00654955 0.731356)
(0.00320042 -0.00177252 0.502889)
(0.00779076 -0.00187402 0.377253)
(-0.0171995 0.00550292 0.449713)
(-0.0147907 0.00473413 0.52781)
(-0.0136232 0.00260521 0.610098)
(-0.0130207 0.00469505 0.617846)
(-0.0068759 0.00566206 0.533896)
(0.00123938 0.00440415 0.423525)
(0.00497343 0.00244075 0.345133)
(-0.0151259 0.00742613 0.396281)
(-0.0143149 0.0091713 0.43008)
(-0.0125415 0.0109443 0.453858)
(-0.00957408 0.0120126 0.450355)
(-0.00486369 0.0106251 0.413713)
(-0.000623088 0.00737267 0.362008)
(0.00196901 0.00443858 0.311023)
(-0.0274044 -0.0198635 0.418197)
(-0.026884 -0.0312019 0.454956)
(-0.0201387 -0.0413094 0.485783)
(-0.00845407 -0.044563 0.48387)
(0.00255613 -0.0403423 0.435285)
(0.00736778 -0.0316261 0.378414)
(0.0066856 -0.0252117 0.325206)
(-0.0373523 -0.0186348 0.466446)
(-0.0371411 -0.0295752 0.547268)
(-0.0271084 -0.038065 0.660567)
(-0.00788742 -0.0413719 0.678112)
(0.00983191 -0.0389993 0.541989)
(0.0181578 -0.0295455 0.426571)
(0.0152981 -0.0225736 0.352732)
(-0.0456165 -0.0114761 0.510109)
(-0.0445894 -0.0187414 0.667813)
(-0.0314783 -0.0229695 0.922829)
(-0.0120569 -0.0282233 0.90388)
(0.0127729 -0.0270672 0.690907)
(0.0262839 -0.0197553 0.473796)
(0.0224337 -0.0155538 0.373547)
(-0.0470612 -0.000387812 0.523865)
(-0.0459448 -0.00240809 0.708028)
(-0.0362887 -0.0116547 0.95579)
(-0.0184542 -0.0149878 0.973924)
(0.0122547 -0.0059549 0.730073)
(0.0277278 -0.00475908 0.485816)
(0.0243131 -0.00567832 0.378794)
(-0.0425199 0.010466 0.492742)
(-0.0437664 0.0152038 0.605155)
(-0.0340628 0.015081 0.78529)
(-0.00785157 0.0167547 0.817935)
(0.0152084 0.0160978 0.610762)
(0.0238561 0.00940861 0.450231)
(0.0205144 0.00338618 0.364442)
(-0.0320378 0.0157878 0.447168)
(-0.0316834 0.0247329 0.497938)
(-0.022939 0.0324032 0.548694)
(-0.00696312 0.0335279 0.548489)
(0.00780244 0.0265666 0.476069)
(0.0142104 0.0164671 0.400607)
(0.0132606 0.00823069 0.339305)
(-0.0236418 0.0147458 0.40289)
(-0.0229434 0.0227098 0.427319)
(-0.017235 0.0296271 0.441798)
(-0.00734647 0.0307103 0.434356)
(0.00170225 0.0245638 0.400739)
(0.00612156 0.0158557 0.356468)
(0.0071606 0.00890748 0.310511)
(-0.0229786 -0.0152866 0.434507)
(-0.0245382 -0.0252927 0.463114)
(-0.0198832 -0.0359895 0.480023)
(-0.00918486 -0.0396397 0.471579)
(-0.000453224 -0.0326839 0.43277)
(0.00115702 -0.0251069 0.382477)
(0.000284476 -0.0200056 0.329679)
(-0.0317793 -0.015982 0.476657)
(-0.0347097 -0.0276247 0.522151)
(-0.025829 -0.0379647 0.56917)
(-0.00540325 -0.0412513 0.572592)
(0.00808697 -0.0338403 0.492475)
(0.0104751 -0.0247555 0.419782)
(0.00646797 -0.0185042 0.355015)
(-0.0412153 -0.0110356 0.509111)
(-0.0437485 -0.0187566 0.581361)
(-0.0335924 -0.0288294 0.753462)
(0.00258803 -0.0355452 0.780149)
(0.0150326 -0.0234904 0.559186)
(0.0197432 -0.0172304 0.449228)
(0.0125087 -0.0135515 0.372378)
(-0.0430925 -0.000667119 0.518103)
(-0.0450826 -4.52355e-05 0.604269)
(-0.0372365 -0.000199983 0.824966)
(0.00249594 -0.00276088 0.811656)
(0.0151802 -0.00232781 0.572108)
(0.021791 -0.00414282 0.455503)
(0.0141045 -0.00590753 0.375978)
(-0.0358372 0.00791155 0.495223)
(-0.0391171 0.0149783 0.548332)
(-0.0286667 0.0200865 0.612031)
(-0.00372507 0.020699 0.616475)
(0.0126502 0.0146568 0.516381)
(0.0156669 0.00636604 0.433024)
(0.0103769 0.000573077 0.363667)
(-0.0263756 0.00946602 0.458344)
(-0.0282799 0.0182205 0.490136)
(-0.0214117 0.0268566 0.510993)
(-0.00666032 0.0282469 0.500606)
(0.00448053 0.0194239 0.454267)
(0.006909 0.00980722 0.397736)
(0.00542754 0.00360988 0.341324)
(-0.0197815 0.00739993 0.416575)
(-0.0203267 0.0137388 0.436752)
(-0.0165051 0.0200483 0.444401)
(-0.00852861 0.0212612 0.43295)
(-0.00193348 0.0150149 0.401501)
(0.000753066 0.00828671 0.359294)
(0.00183257 0.0038344 0.313014)
(-0.0119668 -0.004023 0.449831)
(-0.0155156 -0.00752845 0.477708)
(-0.0162973 -0.0131753 0.489004)
(-0.0131982 -0.0172666 0.475701)
(-0.0102022 -0.0147305 0.436336)
(-0.00940979 -0.0129397 0.384421)
(-0.00847202 -0.0117897 0.328731)
(-0.0144606 -0.00589698 0.493421)
(-0.0193957 -0.0114696 0.531289)
(-0.0188494 -0.0188248 0.558242)
(-0.011802 -0.0222952 0.548824)
(-0.00695152 -0.017319 0.487651)
(-0.00661038 -0.0135583 0.420144)
(-0.00687405 -0.0115198 0.354106)
(-0.0188331 -0.00624214 0.522027)
(-0.0257503 -0.0107896 0.569759)
(-0.0213162 -0.0149299 0.640479)
(-0.00558193 -0.0198133 0.661814)
(-0.00235846 -0.0142335 0.529014)
(-0.00257037 -0.0114141 0.44519)
(-0.00484997 -0.00997192 0.370551)
(-0.0200037 -0.00368693 0.529286)
(-0.0269114 -0.00376606 0.583823)
(-0.0225897 -0.0030043 0.689105)
(-0.00254739 -0.000377654 0.689058)
(-0.00219719 -0.0050876 0.534173)
(-0.00172066 -0.0066339 0.449256)
(-0.00433431 -0.00727818 0.373167)
(-0.0156195 -0.00237919 0.508851)
(-0.0213615 0.00118414 0.549071)
(-0.0195724 0.00527497 0.5804)
(-0.0105084 0.00549515 0.568169)
(-0.00514351 0.000670837 0.501682)
(-0.00469686 -0.00333686 0.429802)
(-0.00541637 -0.00504353 0.361237)
(-0.0128145 -0.0038819 0.471792)
(-0.0164512 -0.00169219 0.499465)
(-0.0163068 0.00258743 0.510749)
(-0.0117521 0.00431372 0.495151)
(-0.00818986 0.000111007 0.452201)
(-0.00694572 -0.00273432 0.396793)
(-0.00616909 -0.00385464 0.339269)
(-0.0115149 -0.00493356 0.426822)
(-0.0136701 -0.0037383 0.44631)
(-0.0140486 -0.00131374 0.450521)
(-0.0119132 -0.000102311 0.43532)
(-0.00955511 -0.00184937 0.402121)
(-0.00782239 -0.00330699 0.358341)
(-0.00603315 -0.00333849 0.310185)
(0.00462182 0.00393443 0.127614)
(0.00333247 0.00483525 0.0910513)
(0.0146269 -0.000283057 0.263492)
(0.0110693 0.00182423 0.222629)
(0.00831035 0.00363915 0.186309)
(0.00609024 0.00511176 0.15382)
(0.0042626 0.0061782 0.123063)
(0.00258533 0.00657518 0.0848361)
(0.0279395 0.00163511 0.369949)
(0.0208597 0.00287556 0.313492)
(0.0155784 0.00409849 0.264946)
(0.011394 0.0053905 0.222081)
(0.00807372 0.00656118 0.184266)
(0.00536434 0.00751327 0.150808)
(0.00315252 0.00812792 0.119515)
(0.00123813 0.0079918 0.0811809)
(0.0261097 0.00944151 0.359401)
(0.0193258 0.00863173 0.304959)
(0.0138595 0.00854789 0.25797)
(0.00970035 0.00876826 0.216224)
(0.00630933 0.00907212 0.17949)
(0.00351697 0.00931307 0.147111)
(0.00123857 0.00934223 0.116916)
(-0.000610642 0.00867938 0.0799925)
(0.0209572 0.0148999 0.334017)
(0.0147265 0.0126315 0.286548)
(0.0102515 0.0114262 0.244061)
(0.00664249 0.0106557 0.206141)
(0.00368255 0.0101736 0.172704)
(0.00117373 0.00976462 0.143162)
(-0.000894689 0.00927909 0.115423)
(-0.00247195 0.00826178 0.0811227)
(0.0140007 0.0167718 0.300448)
(0.0099519 0.014449 0.2623)
(0.00657968 0.0127296 0.226735)
(0.00378826 0.0114114 0.194411)
(0.00137126 0.0103119 0.165639)
(-0.000748879 0.00930051 0.139962)
(-0.00252231 0.00832052 0.115442)
(-0.003823 0.00700394 0.084412)
(0.0134527 -0.00991497 0.319723)
(0.0106782 -0.00669639 0.28343)
(0.00848896 -0.00432885 0.248939)
(0.00688911 -0.00240886 0.217109)
(0.00560507 -0.000796612 0.188604)
(0.00453848 0.000570654 0.162376)
(0.0036587 0.00170823 0.136556)
(0.00274491 0.00260937 0.102696)
(0.0184227 -0.00875274 0.348128)
(0.0139563 -0.00486691 0.302877)
(0.0108577 -0.00222786 0.261332)
(0.00852172 -0.000167352 0.223847)
(0.00671431 0.00145459 0.190462)
(0.00525216 0.00272355 0.16038)
(0.00399926 0.00365192 0.131513)
(0.00262209 0.00408432 0.0949156)
(0.0239458 -0.00474249 0.368617)
(0.0177088 -0.00151688 0.317174)
(0.0133232 0.000739826 0.270411)
(0.0100379 0.00253554 0.228444)
(0.00750407 0.00393885 0.19139)
(0.00544132 0.00498551 0.158533)
(0.00370622 0.00561146 0.12762)
(0.00201281 0.00550131 0.0893475)
(0.0269455 0.00250578 0.37656)
(0.0195434 0.00371879 0.322126)
(0.014295 0.00486393 0.272888)
(0.0103323 0.00586401 0.228949)
(0.00725831 0.00665605 0.190404)
(0.00477145 0.0071798 0.156586)
(0.00272476 0.00734076 0.125152)
(0.000897828 0.00668174 0.0867606)
(0.0250594 0.0103112 0.367553)
(0.0177733 0.00919168 0.314761)
(0.0126696 0.00889851 0.266724)
(0.00875199 0.00883407 0.224054)
(0.00566752 0.00882228 0.186736)
(0.00314013 0.00870915 0.154096)
(0.00107389 0.0083539 0.123834)
(-0.000617815 0.00725621 0.0868852)
(0.0191039 0.0151347 0.344176)
(0.0134307 0.0125791 0.29669)
(0.00926153 0.0112048 0.253304)
(0.00602371 0.0103063 0.21466)
(0.00337186 0.00964163 0.180876)
(0.00111894 0.00901099 0.151258)
(-0.00073872 0.00826888 0.12359)
(-0.0021586 0.00695657 0.0893551)
(0.0129822 0.0165788 0.311548)
(0.00915514 0.0139438 0.272754)
(0.00604622 0.0121849 0.236331)
(0.00354818 0.0108087 0.203491)
(0.00137442 0.00961038 0.174582)
(-0.000524023 0.00848146 0.149016)
(-0.00210101 0.0073446 0.124721)
(-0.00323053 0.005815 0.0938827)
(0.00685304 -0.00392796 0.324148)
(0.00543961 -0.00203229 0.286531)
(0.00433994 -0.000806868 0.251092)
(0.00360251 0.000120633 0.21914)