/*--------------------------------*- C++ -*----------------------------------*\
| =========                 |                                                 |
| \\      /  F ield         | OpenFOAM: The Open Source CFD Toolbox           |
|  \\    /   O peration     | Version:  plus.master.MPPICInterFoam            |
|   \\  /    A nd           | Web:      www.OpenFOAM.com                      |
|    \\/     M anipulation  |                                                 |
\*---------------------------------------------------------------------------*/
FoamFile
{
    version     2.0;
    format      ascii;
    class       labelField;
    location    "10.2/lagrangian/kinematicCloud";
    object      origId;
}
// * * * * * * * * * * * * * * * * * * * * * * * * * * * * * * * * * * * * * //


64
(
58219
60412
60258
88075
31122
90441
62677
80895
67624
2006
90938
73848
81645
72928
53393
79559
81339
17747
70925
55631
60917
93497
74336
45051
63319
59340
88415
89139
21930
51939
29798
80407
9797
71936
22252
73203
93737
56760
68238
77269
9440
87889
54654
49145
78676
72739
7540
70851
7853
71261
40653
80488
68745
85394
69102
82311
6151
59293
87816
82578
77412
59847
71268
72631
)


// ************************************************************************* //
