/*--------------------------------*- C++ -*----------------------------------*\
| =========                 |                                                 |
| \\      /  F ield         | OpenFOAM: The Open Source CFD Toolbox           |
|  \\    /   O peration     | Version:  plus.master.MPPICInterFoam            |
|   \\  /    A nd           | Web:      www.OpenFOAM.com                      |
|    \\/     M anipulation  |                                                 |
\*---------------------------------------------------------------------------*/
FoamFile
{
    version     2.0;
    format      ascii;
    class       Cloud<basicKinematicMPPICParcel>;
    location    "10.2/lagrangian/kinematicCloud";
    object      positions;
}
// * * * * * * * * * * * * * * * * * * * * * * * * * * * * * * * * * * * * * //

64
(
(-0.0116076 0.0370841 0.543113) 2902
(0.00957316 0.052096 0.50837) 2664
(-0.0017285 0.0526473 0.5154) 2728
(0.00819284 0.0522875 0.516263) 2720
(0.00970867 0.0510253 0.518013) 2720
(0.00451681 0.0528706 0.515556) 2728
(0.00316754 0.0529956 0.51938) 2728
(0.00190038 0.0534596 0.520918) 2728
(0.0030439 0.0533249 0.521231) 2728
(0.00272416 -0.0533136 0.523729) 2448
(0.00296503 0.0536918 0.522297) 2784
(0.00521558 0.0529534 0.522915) 2784
(0.00454965 0.0528397 0.523867) 2784
(0.00238043 0.0543224 0.523833) 2785
(0.00602627 0.052345 0.524429) 2776
(0.00568044 0.0521386 0.526347) 2784
(0.00326567 0.052434 0.526039) 2784
(-0.000142018 0.0526464 0.529311) 2784
(0.00149402 0.05223 0.531432) 2840
(-0.00396586 0.0503252 0.533446) 2840
(-0.0025808 0.0508586 0.533645) 2840
(-0.000921369 -0.0505058 0.538876) 2504
(0.000481156 0.0511962 0.535278) 2840
(-0.00113388 0.0513326 0.536968) 2840
(-0.00458661 0.0494401 0.543259) 2896
(-0.00215767 0.0508725 0.544357) 2896
(-0.000219228 0.051292 0.544859) 2896
(-0.00831633 0.0491639 0.552386) 2960
(-0.00717633 0.0485166 0.554308) 2960
(-0.0102428 0.0495416 0.554996) 2960
(-0.00289356 0.0480194 0.557196) 2951
(-0.00390346 0.0467978 0.558559) 2951
(-0.00290715 0.0472762 0.559411) 2951
(-0.00875531 0.0475879 0.55986) 2959
(-0.00578306 0.0446611 0.564561) 9055
(-0.0123408 0.0447188 0.563826) 9055
(-0.00916067 0.0453882 0.565249) 9055
(-0.00941781 0.0439739 0.568057) 9055
(-0.00643258 0.0415339 0.571671) 9110
(-0.00671622 0.0396901 0.573658) 9110
(-0.00738429 0.0382228 0.575555) 9110
(-0.00807054 0.0374436 0.576755) 9110
(-0.00631514 0.0338804 0.579271) 6597
(-0.00657795 0.0312755 0.580635) 6596
(-0.00692068 0.0305257 0.581545) 6652
(-0.00819032 0.0284171 0.583281) 6651
(-0.00695257 0.0276078 0.582776) 6651
(-0.00842779 0.0271844 0.582863) 6651
(-0.00713381 -0.0209926 0.561304) 5960
(-0.00673295 0.0248808 0.577223) 6594
(-0.00770132 0.0246966 0.576029) 6594
(-0.00754747 -0.0206066 0.550233) 1208
(-0.00768571 -0.0205232 0.547558) 1208
(-0.00884118 0.0224086 0.561071) 6545
(-0.00795383 0.0223802 0.556706) 1617
(-0.00718231 0.0224686 0.551823) 1617
(-0.00844298 0.0223843 0.549583) 1569
(-0.00900827 0.0227759 0.539303) 1513
(-0.0088596 0.0230416 0.533839) 1513
(-0.0267719 0.00412003 0.536228) 818
(-0.0267152 0.00395903 0.526746) 762
(-0.0263768 0.00425573 0.519315) 706
(-0.00838111 0.0233108 0.513813) 1393
(-0.00822666 0.0233297 0.511652) 1393
)


// ************************************************************************* //
