/*--------------------------------*- C++ -*----------------------------------*\
| =========                 |                                                 |
| \\      /  F ield         | OpenFOAM: The Open Source CFD Toolbox           |
|  \\    /   O peration     | Version:  plus.master.MPPICInterFoam            |
|   \\  /    A nd           | Web:      www.OpenFOAM.com                      |
|    \\/     M anipulation  |                                                 |
\*---------------------------------------------------------------------------*/
FoamFile
{
    version     2.0;
    format      ascii;
    class       vectorField;
    location    "10.2/lagrangian/kinematicCloud";
    object      UCorrect;
}
// * * * * * * * * * * * * * * * * * * * * * * * * * * * * * * * * * * * * * //


64
(
(-2.13192e-20 9.34055e-20 -2.69484e-19)
(1.19526e-19 -2.43985e-20 -1.04195e-19)
(-9.97934e-32 -4.39223e-19 2.08389e-19)
(-6.96326e-20 -4.40196e-19 -6.42402e-36)
(-8.3885e-20 -4.3859e-19 -6.42402e-36)
(-3.74688e-20 -4.4382e-19 2.08389e-19)
(-9.97934e-32 -4.48042e-19 8.50344e-20)
(-9.97934e-32 -4.48042e-19 2.02775e-20)
(-9.97934e-32 -4.48042e-19 7.12312e-21)
(1.21959e-19 4.99247e-19 8.57885e-35)
(-9.97995e-32 -6.77867e-20 7.14905e-38)
(-4.33105e-20 -4.42287e-19 7.14905e-38)
(-3.77072e-20 -4.42918e-19 7.14905e-38)
(-4.7635e-30 -3.04051e-20 1.86071e-19)
(2.24647e-30 1.99018e-29 7.14309e-35)
(-4.80862e-20 -4.41749e-19 7.14905e-38)
(-2.7084e-20 -4.44115e-19 7.14905e-38)
(-9.97995e-32 -4.47167e-19 -5.67853e-38)
(-8.86339e-31 3.54441e-32 -5.42399e-24)
(-4.08473e-31 8.92867e-32 -2.03505e-22)
(-8.86339e-31 3.54441e-32 -9.64095e-23)
(8.86339e-31 2.24021e-19 -3.18922e-19)
(-8.86339e-31 3.54441e-32 -1.63546e-22)
(-7.52219e-31 5.05558e-32 -2.03505e-22)
(-1.59289e-19 -6.8254e-19 2.08186e-19)
(-1.39207e-19 -6.80277e-19 2.08186e-19)
(-1.21959e-19 -6.78333e-19 1.53787e-19)
(2.68592e-30 1.75048e-29 -5.41381e-20)
(6.15294e-30 2.31483e-30 -2.08389e-19)
(3.88593e-30 1.22472e-29 -2.08389e-19)
(-1.23389e-19 -3.39961e-19 -2.35603e-19)
(-3.38521e-20 1.70916e-20 -2.35603e-19)
(-1.23389e-19 7.0032e-21 -3.95591e-19)
(2.32158e-19 9.51171e-20 -4.07299e-35)
(2.54353e-19 -1.96899e-18 7.11772e-35)
(4.44518e-19 -1.94756e-18 4.06364e-35)
(3.95201e-19 -1.95312e-18 7.11772e-35)
(6.15185e-19 -2.6953e-18 7.11772e-35)
(5.65898e-16 -2.43149e-15 4.07505e-16)
(4.20617e-16 -2.44786e-15 2.60942e-15)
(1.04816e-15 -4.54441e-15 2.60942e-15)
(1.1938e-15 -5.18252e-15 2.60942e-15)
(-2.63441e-13 1.71779e-12 7.73225e-11)
(-3.454e-08 1.98841e-07 -1.25783e-11)
(-2.28348e-06 2.95759e-07 6.35211e-11)
(7.95799e-05 -0.000445694 -0.000128975)
(7.95799e-05 -0.000445694 -0.00015537)
(0.000136938 -0.000762679 5.90916e-10)
(6.67312e-19 9.09816e-19 -6.73803e-21)
(2.8089e-08 -9.86698e-08 -7.56193e-07)
(5.3841e-08 -2.06791e-07 -7.56193e-07)
(1.64082e-20 3.94211e-20 1.09572e-19)
(4.40841e-21 4.30548e-20 1.09572e-19)
(1.26987e-14 -6.09485e-14 -6.53634e-15)
(1.81471e-16 -1.89532e-15 -8.17637e-15)
(3.88303e-16 -1.83269e-15 -1.39266e-15)
(-4.59512e-19 -1.18189e-19 -1.85118e-18)
(-8.83093e-19 -1.17174e-18 2.17548e-19)
(-9.79774e-19 -1.20101e-18 2.17548e-19)
(3.33394e-20 -2.19299e-19 3.68457e-19)
(-8.22494e-19 1.12992e-19 -1.80087e-22)
(3.72245e-19 -6.83587e-19 -1.84229e-19)
(-1.26053e-18 1.10763e-18 9.99238e-20)
(-7.73099e-19 1.25523e-18 -3.84322e-19)
)


// ************************************************************************* //
