/*--------------------------------*- C++ -*----------------------------------*\
| =========                 |                                                 |
| \\      /  F ield         | OpenFOAM: The Open Source CFD Toolbox           |
|  \\    /   O peration     | Version:  plus.master.MPPICInterFoam            |
|   \\  /    A nd           | Web:      www.OpenFOAM.com                      |
|    \\/     M anipulation  |                                                 |
\*---------------------------------------------------------------------------*/
FoamFile
{
    version     2.0;
    format      ascii;
    class       volScalarField;
    location    "5.6";
    object      nut;
}
// * * * * * * * * * * * * * * * * * * * * * * * * * * * * * * * * * * * * * //

dimensions      [0 2 -1 0 0 0 0];

internalField   nonuniform List<scalar> 
11822
(
0.000723587
0.000764638
0.000791433
0.000800833
0.000796341
0.000773021
0.000732828
0.00076087
0.000810146
0.000837285
0.000841861
0.000846117
0.00082252
0.000773171
0.000782181
0.000834712
0.000822462
0.000775546
0.000821916
0.00085298
0.0007982
0.00078536
0.000838256
0.00087022
0.000837317
0.000840155
0.000860981
0.000805955
0.000779918
0.000837977
0.000879341
0.000883741
0.000877302
0.000855597
0.000796665
0.000755737
0.000806145
0.000845237
0.000855902
0.000849842
0.000817097
0.000767135
0.00071578
0.000756488
0.000784124
0.000793863
0.000788052
0.000763541
0.000723571
0.000732426
0.000776787
0.000807797
0.000820087
0.000812318
0.000783909
0.000739426
0.000772106
0.000825172
0.000868772
0.000883856
0.000874141
0.000839465
0.000783058
0.000795366
0.00085648
0.000921167
0.000934476
0.000924147
0.000872182
0.000810895
0.000800011
0.000857786
0.000921679
0.000952372
0.000939707
0.000884038
0.00081928
0.000790116
0.000845571
0.00089757
0.00091909
0.000911939
0.000868959
0.000806462
0.000763397
0.000811539
0.00084829
0.000862446
0.000856526
0.000824592
0.000773544
0.000721672
0.000763165
0.000790776
0.000801346
0.000794652
0.000769147
0.000727485
0.000738595
0.000783914
0.000816883
0.000830617
0.000822415
0.000788004
0.000741903
0.000778922
0.000833539
0.000880891
0.000896735
0.000898317
0.000846643
0.000785944
0.000803299
0.000864919
0.000926057
0.000945788
0.000936527
0.000901999
0.000818944
0.000809013
0.000871617
0.000952314
0.000957355
0.000943976
0.000905569
0.000826548
0.000797168
0.000855385
0.000909083
0.000943214
0.000947575
0.00087972
0.000809338
0.000768834
0.000816938
0.000854842
0.000870861
0.000862723
0.000825757
0.000774552
0.000726456
0.000767513
0.00079464
0.000805101
0.000797002
0.000770385
0.000729084
0.000744749
0.000789756
0.000822058
0.000836505
0.000819437
0.000787718
0.000743397
0.000784969
0.000839686
0.000890893
0.000925201
0.000893675
0.000838137
0.000783466
0.000809757
0.000873323
0.000931063
0.000948062
0.000934626
0.000872949
0.000809348
0.000815431
0.000875391
0.000909691
0.000939444
0.00093069
0.000905914
0.000822267
0.000802822
0.000861096
0.000900536
0.000932061
0.000873409
0.000864608
0.000806102
0.000774566
0.000821912
0.000857639
0.000870133
0.000854434
0.000822906
0.000774954
0.0007322
0.000772306
0.000797641
0.000806982
0.000797478
0.00077196
0.000731755
0.000751008
0.000794819
0.000823012
0.00083238
0.000818094
0.000790691
0.000747372
0.000791319
0.000842441
0.000876152
0.000898911
0.000859009
0.000834031
0.000786459
0.00081705
0.000874564
0.000915169
0.000957763
0.000949224
0.000857079
0.000809239
0.000823891
0.000880049
0.00088246
0.000937536
0.000935393
0.000853264
0.000816524
0.0008101
0.000862657
0.000887807
0.000879109
0.000878683
0.00085314
0.000806356
0.000781228
0.000827216
0.000859766
0.000873729
0.00085877
0.000825228
0.000778702
0.000738924
0.00077812
0.000802024
0.000811469
0.000801707
0.00077648
0.000736574
0.000753512
0.000792147
0.000817281
0.00082596
0.000815653
0.000788495
0.000748918
0.000791149
0.000833089
0.000849192
0.000842022
0.00084092
0.000826841
0.000785328
0.000815659
0.000859409
0.000857926
0.000930314
0.000866593
0.000843889
0.000808223
0.000823378
0.000870381
0.000881998
0.000933798
0.000938883
0.000847952
0.000815287
0.000809599
0.000850334
0.000865681
0.000872619
0.000878483
0.000844047
0.000804116
0.000782878
0.000822831
0.000849527
0.000865608
0.00085197
0.000820846
0.000778876
0.000744348
0.000780031
0.000803146
0.000812667
0.000803141
0.000777795
0.000740727
0.000683583
0.000635687
0.000578015
0.000507891
0.000420748
0.000309456
0.000166238
2.00228e-05
0.000720768
0.000670029
0.000611202
0.00054039
0.000452075
0.000337462
0.000185421
2.2611e-05
0.000742569
0.000690582
0.000631019
0.000559699
0.000470686
0.000354244
0.000197172
2.4302e-05
0.00074893
0.000696341
0.000636461
0.000564987
0.000475877
0.000359056
0.000200636
2.48053e-05
0.000739783
0.00068712
0.000627337
0.000556167
0.000467583
0.000351768
0.000195597
2.40414e-05
0.00071427
0.000663018
0.000604202
0.000533862
0.000446378
0.000332919
0.000182564
2.21512e-05
0.000674293
0.000626187
0.000568803
0.000499376
0.000413297
0.000303512
0.000162553
1.94556e-05
0.000687523
0.000637928
0.000579213
0.000508359
0.000420475
0.000308355
0.000164791
1.99142e-05
0.000726515
0.000672946
0.000612522
0.00054087
0.000451918
0.000336539
0.000184032
2.24911e-05
0.000750286
0.000694403
0.000632508
0.000560039
0.000470344
0.000353153
0.000195606
2.41678e-05
0.000757021
0.000700344
0.000637983
0.000565305
0.000475493
0.000357906
0.000199005
2.46758e-05
0.000746078
0.000690257
0.000628626
0.00055654
0.000467318
0.000350707
0.000194033
2.39291e-05
0.000718331
0.000665197
0.000605312
0.000534336
0.000446197
0.000331875
0.00018104
2.20637e-05
0.000676865
0.000627759
0.000569702
0.000499682
0.000412844
0.000302173
0.000160954
1.93862e-05
0.000689915
0.000640544
0.000581979
0.000511082
0.00042271
0.000309529
0.000164731
1.98705e-05
0.000728595
0.000675041
0.000614884
0.000543439
0.000454269
0.000337957
0.000184081
2.24488e-05
0.000753212
0.000696294
0.000634479
0.000562325
0.000472602
0.000354595
0.000195648
2.41281e-05
0.000759836
0.000702177
0.000639881
0.000567541
0.000477734
0.000359348
0.000199036
2.46427e-05
0.000747872
0.000692009
0.000630724
0.000558989
0.000469661
0.000352137
0.000194044
2.39051e-05
0.000719955
0.000667323
0.000607867
0.000537079
0.000448592
0.000333191
0.000181
2.2051e-05
0.000679048
0.000630418
0.000572605
0.000502485
0.000415021
0.000303192
0.000160828
1.9384e-05
0.000692744
0.000644351
0.000586399
0.000515803
0.000427179
0.00031297
0.000166421
1.98629e-05
0.000729692
0.000677852
0.00061871
0.000547906
0.000458776
0.000341574
0.000185855
2.24405e-05
0.000752031
0.000697999
0.000637679
0.000566494
0.000477078
0.000358319
0.000197486
2.41265e-05
0.000759327
0.000703889
0.000643023
0.000571693
0.000482236
0.000363111
0.000200892
2.46512e-05
0.000748396
0.000694387
0.000634323
0.000563429
0.000474266
0.000355852
0.000195847
2.39241e-05
0.000722191
0.000670794
0.000612206
0.000541921
0.000453272
0.000336794
0.000182748
2.20835e-05
0.000682607
0.000634841
0.000577562
0.000507589
0.000419658
0.000306643
0.000162547
1.94316e-05
0.000696942
0.000649478
0.000592568
0.000522858
0.000434416
0.00031909
0.000169821
1.99048e-05
0.000733058
0.000682117
0.000624131
0.000554515
0.000465946
0.000347889
0.000189373
2.24994e-05
0.000754116
0.000701466
0.000642518
0.000572786
0.000484235
0.000364842
0.000201145
2.42118e-05
0.000760372
0.000707043
0.000647759
0.00057801
0.000489482
0.000369751
0.000204622
2.47575e-05
0.000750821
0.000698245
0.000639607
0.000570116
0.000481648
0.000362435
0.00019948
2.40423e-05
0.000726215
0.00067583
0.000618463
0.000549271
0.000460939
0.00034334
0.000186335
2.22054e-05
0.0006878
0.000641099
0.000584854
0.000515591
0.00042754
0.000313109
0.000166107
1.95501e-05
0.000702156
0.000658588
0.000606049
0.000540678
0.000455014
0.000338085
0.000178905
2.16121e-05
0.000735574
0.000688655
0.000635335
0.000570762
0.000486089
0.000367688
0.000199574
2.44422e-05
0.000755467
0.000706673
0.000652457
0.000588064
0.000504061
0.000385167
0.0002122
2.63344e-05
0.000761506
0.000712081
0.000657584
0.000593187
0.000509347
0.000390348
0.000216034
2.69567e-05
0.00075255
0.000704227
0.00065041
0.000586147
0.00050202
0.000383066
0.000210698
2.61963e-05
0.000730289
0.000684135
0.000631432
0.000567033
0.000482187
0.000363829
0.000196937
2.42166e-05
0.000695495
0.000652724
0.000600707
0.000535413
0.000449629
0.00033306
0.000175696
2.13576e-05
0.00066761
0.000620659
0.000564105
0.00049517
0.000409386
0.000300126
0.000160565
1.92383e-05
0.00070501
0.000655642
0.000598233
0.000528762
0.000441717
0.000328777
0.000179966
2.18607e-05
0.000727545
0.000677709
0.000619982
0.000550121
0.000462233
0.000347019
0.000192532
2.36839e-05
0.000734929
0.000685749
0.000628217
0.000558281
0.000470013
0.000353897
0.000197275
2.44044e-05
0.000730064
0.000680491
0.000622814
0.000552797
0.000464546
0.000348832
0.000193668
2.38925e-05
0.000710336
0.000661212
0.000603662
0.000533725
0.000445968
0.000332093
0.000182046
2.22311e-05
0.000675311
0.000628426
0.000571528
0.000501922
0.000415206
0.000304714
0.000163419
1.97094e-05
0.00067235
0.000624245
0.000566701
0.000496777
0.000409838
0.000299374
0.000159299
1.9208e-05
0.000711259
0.000660177
0.000601465
0.000530932
0.00044275
0.000328524
0.000178902
2.18284e-05
0.000735772
0.000683362
0.000623735
0.000552554
0.000463456
0.000346909
0.000191481
2.36372e-05
0.000745193
0.000692411
0.000632416
0.000560876
0.000471321
0.00035384
0.000196242
2.43508e-05
0.000739761
0.00068695
0.000626975
0.000555418
0.000465903
0.000348854
0.00019272
2.38395e-05
0.000718478
0.000666835
0.000607525
0.000536317
0.000447367
0.000332203
0.000181217
2.21898e-05
0.000681789
0.000633141
0.000574909
0.000504179
0.000416286
0.000304549
0.000162493
1.96695e-05
0.000677279
0.000629155
0.000571388
0.000500931
0.000412982
0.000301049
0.000159553
1.92536e-05
0.000716538
0.000665293
0.00060642
0.000535506
0.000446453
0.000330716
0.000179369
2.18791e-05
0.000741807
0.000688767
0.000628806
0.000557283
0.000467426
0.000349401
0.000192081
2.36881e-05
0.000752088
0.000698201
0.000637633
0.000565694
0.000475404
0.000356488
0.000196943
2.43997e-05
0.000746422
0.000692727
0.000632258
0.000560312
0.000470063
0.000351583
0.000193494
2.38839e-05
0.000724567
0.000672456
0.000612839
0.000541246
0.000451522
0.000334901
0.000182014
2.22282e-05
0.000687525
0.000638621
0.000580113
0.000508906
0.00042011
0.000306897
0.000163125
1.96957e-05
0.000683455
0.000635709
0.000578069
0.000507386
0.00041865
0.000305262
0.000161723
1.93537e-05
0.000722618
0.00067173
0.000613109
0.000542178
0.000452514
0.000335327
0.000181727
2.19799e-05
0.000747945
0.000695136
0.000635416
0.000564002
0.000473706
0.000354306
0.0001946
2.37879e-05
0.000758634
0.000704712
0.00064427
0.000572456
0.000481808
0.000361587
0.000199598
2.44961e-05
0.000752859
0.000699237
0.000638939
0.000567109
0.000476504
0.000356731
0.000196199
2.39725e-05
0.000730872
0.000679033
0.000619635
0.000548093
0.000457918
0.000339959
0.00018468
2.23057e-05
0.000693912
0.000645292
0.000586938
0.000515642
0.000426245
0.000311647
0.000165611
1.97604e-05
0.000690629
0.000643746
0.000586927
0.000516723
0.000427636
0.000312577
0.000165747
1.95286e-05
0.000729346
0.00067913
0.000621416
0.000551254
0.000461593
0.000342958
0.000185923
2.2178e-05
0.000754625
0.000702132
0.000643247
0.000572773
0.000482787
0.000362198
0.000199001
2.39956e-05
0.000765467
0.000711537
0.000651841
0.000581045
0.000490884
0.000369635
0.000204153
2.46996e-05
0.000759414
0.000705995
0.000646495
0.000575678
0.000485541
0.000364726
0.000200725
2.41568e-05
0.000737291
0.000685985
0.000627453
0.000556804
0.000466881
0.000347713
0.000189037
2.24561e-05
0.000700452
0.000652596
0.0005951
0.000524481
0.000435025
0.000319006
0.000169736
1.98707e-05
0.000699901
0.000656953
0.000604347
0.000538045
0.000451104
0.00033366
0.000176015
2.14247e-05
0.000735255
0.000689354
0.000636315
0.000570884
0.000484586
0.000364923
0.000197424
2.43051e-05
0.000758403
0.000710317
0.000656304
0.000591047
0.000505252
0.000384628
0.000211344
2.62938e-05
0.00076837
0.000718752
0.000663999
0.000598626
0.000513053
0.000392221
0.000216811
2.70578e-05
0.000762269
0.000713263
0.000658707
0.000593299
0.000507635
0.000387028
0.000213014
2.64352e-05
0.000741467
0.000694481
0.000640757
0.000575166
0.00048905
0.000369267
0.000200322
2.45326e-05
0.000707215
0.000663395
0.000610324
0.000544001
0.000457196
0.000339296
0.000179533
2.16835e-05
0.000676403
0.000629453
0.000572464
0.000502705
0.000415783
0.000305089
0.000163637
1.97473e-05
0.000714718
0.000665443
0.000607647
0.000537321
0.000449066
0.000334575
0.000183608
2.24547e-05
0.000738567
0.000688443
0.000630161
0.000559364
0.000470213
0.000353402
0.00019657
2.43269e-05
0.000747295
0.000697085
0.000638661
0.000567642
0.000478121
0.000360453
0.000201442
2.50426e-05
0.00074221
0.00069147
0.000632689
0.000561539
0.000472169
0.000355104
0.000197654
2.44591e-05
0.000721034
0.000670717
0.000612135
0.000541281
0.000452687
0.000337734
0.000185577
2.26807e-05
0.000683743
0.000635841
0.00057813
0.000507903
0.000420597
0.000309201
0.000166074
2.00188e-05
0.000682933
0.000634166
0.000575823
0.000504943
0.000416877
0.000304958
0.000162717
1.97141e-05
0.000723502
0.000671333
0.000611572
0.000539943
0.000450567
0.000334841
0.000182849
2.24133e-05
0.000749932
0.000695525
0.000634374
0.000561889
0.000471558
0.000353556
0.000195713
2.42635e-05
0.000760049
0.000704593
0.000642743
0.000569807
0.000479105
0.00036033
0.000200414
2.49583e-05
0.000752787
0.000697578
0.000635956
0.000563259
0.000472901
0.000354848
0.000196592
2.4367e-05
0.000728074
0.00067477
0.000614405
0.000542565
0.00045321
0.000337359
0.0001845
2.25928e-05
0.000687934
0.000638312
0.000579538
0.000508561
0.000420512
0.000308275
0.000164735
1.99282e-05
0.000688642
0.00063963
0.000581004
0.000509653
0.000420696
0.000307313
0.00016334
1.97331e-05
0.000729509
0.000676744
0.000616668
0.000544722
0.000454676
0.00033757
0.000183656
2.24287e-05
0.000756456
0.00070073
0.000639043
0.000566316
0.000475521
0.000356315
0.00019654
2.42707e-05
0.00076644
0.000709321
0.000646843
0.000573759
0.000482736
0.000362914
0.00020116
2.4954e-05
0.000758263
0.00070152
0.000639516
0.000566818
0.000476222
0.000357177
0.00019719
2.43498e-05
0.000731441
0.000677942
0.000617674
0.000545917
0.000456252
0.000339362
0.000184909
2.25646e-05
0.000690651
0.000641221
0.000582589
0.000511548
0.000423
0.000309681
0.000164827
1.98917e-05
0.000694896
0.000646228
0.000587751
0.000516315
0.000426772
0.000312014
0.000165778
1.97863e-05
0.000735108
0.000682711
0.000622948
0.000551167
0.000460802
0.000342465
0.000186203
2.24715e-05
0.000760965
0.000705739
0.000644595
0.000572308
0.000481486
0.000361256
0.000199134
2.43046e-05
0.000769961
0.000713436
0.000651713
0.000579284
0.000488424
0.000367735
0.000203705
2.4977e-05
0.000759742
0.000704897
0.000643977
0.000571999
0.000481586
0.000361696
0.000199537
2.43576e-05
0.000733784
0.000681659
0.000622236
0.000551012
0.000461326
0.000343477
0.000186992
2.25608e-05
0.000693764
0.000645301
0.000587262
0.000516502
0.000427685
0.000313316
0.000166638
1.98864e-05
0.000701194
0.00065336
0.000595758
0.000525034
0.000435486
0.000319357
0.00016994
1.9884e-05
0.000740253
0.000688679
0.000629923
0.000559178
0.000469248
0.000349915
0.000190513
2.25705e-05
0.000764283
0.000710478
0.00065057
0.000579603
0.000489606
0.000368728
0.00020353
2.44048e-05
0.000771811
0.000717338
0.000657049
0.000586065
0.000496236
0.000375104
0.000208089
2.50706e-05
0.000762053
0.000708843
0.000649247
0.000578669
0.000489179
0.00036875
0.000203673
2.44307e-05
0.000737397
0.000686235
0.000627928
0.000557863
0.000468751
0.00035008
0.000190768
2.26112e-05
0.000698074
0.000650574
0.000593556
0.000523675
0.000435046
0.000319553
0.000170111
1.99248e-05
0.000707559
0.000663847
0.000610633
0.000544182
0.000457306
0.000339365
0.000179559
2.16612e-05
0.000742554
0.000695624
0.000641684
0.000575979
0.000489964
0.000370294
0.000201021
2.45511e-05
0.000763938
0.000715063
0.000660171
0.00059462
0.000509337
0.000389181
0.000214639
2.65289e-05
0.000770844
0.000721121
0.000665783
0.000600293
0.000515476
0.000395468
0.000219355
2.72348e-05
0.000761886
0.000713074
0.000658352
0.000593169
0.000508424
0.000388779
0.000214519
2.65138e-05
0.000739143
0.000692269
0.000638658
0.000573631
0.000488499
0.000369637
0.000200797
2.45198e-05
0.000703179
0.000659643
0.000606986
0.000541432
0.000455579
0.000338493
0.000179144
2.16157e-05
0.000673194
0.000625134
0.000567842
0.00049858
0.000412699
0.000303114
0.000162339
1.94152e-05
0.000709885
0.000658735
0.000600173
0.0005302
0.000443155
0.000330275
0.000180883
2.19064e-05
0.000731408
0.000679095
0.000619904
0.000549509
0.000461782
0.000346998
0.000192512
2.3572e-05
0.000737177
0.000684972
0.000625914
0.000555574
0.000467724
0.000352384
0.000196315
2.41358e-05
0.000728433
0.00067675
0.000618122
0.000548112
0.000460586
0.000345949
0.000191828
2.34925e-05
0.00070478
0.000654734
0.00059704
0.000527599
0.000440811
0.000328189
0.000179558
2.17578e-05
0.000667415
0.000620361
0.00056382
0.000494992
0.000409334
0.00030016
0.000160572
1.92233e-05
0.000675807
0.000626803
0.00056886
0.000498997
0.000412336
0.000301846
0.000160811
1.93407e-05
0.00071364
0.000661012
0.000601567
0.000530989
0.000443217
0.000329373
0.000179474
2.18309e-05
0.000736535
0.00068221
0.000621727
0.000550539
0.000462021
0.000346194
0.000191072
2.34925e-05
0.000743388
0.000688897
0.000628249
0.000556917
0.000468159
0.000351686
0.000194905
2.40612e-05
0.000734315
0.000680771
0.000620733
0.000549743
0.000461231
0.00034539
0.000190524
2.34315e-05
0.000710089
0.000658578
0.000599758
0.000529388
0.000441547
0.000327694
0.000178362
2.17143e-05
0.000671965
0.000623838
0.000566334
0.00049651
0.000409699
0.000299342
0.000159292
1.91848e-05
0.000678123
0.000629574
0.00057188
0.000501911
0.000414595
0.00030292
0.000160722
1.93469e-05
0.000715737
0.000663662
0.000604634
0.000534165
0.000445904
0.000330845
0.000179531
2.18509e-05
0.000739002
0.000685001
0.000624877
0.000553854
0.000464927
0.000347884
0.000191206
2.35242e-05
0.000746641
0.00069218
0.000631736
0.000560509
0.000471279
0.000353538
0.00019512
2.4103e-05
0.000738039
0.000684564
0.000624657
0.000553628
0.000464522
0.000347323
0.000190798
2.34806e-05
0.000714366
0.000662947
0.000604142
0.000533515
0.000444873
0.000329577
0.000178654
2.17659e-05
0.000676664
0.000628564
0.000570876
0.000500536
0.000412729
0.000300925
0.000159498
1.92302e-05
0.000681871
0.000634133
0.00057697
0.000507132
0.000419319
0.000306422
0.000162467
1.94075e-05
0.000718967
0.000667921
0.000609653
0.000539557
0.000450971
0.00033469
0.000181425
2.19263e-05
0.000741984
0.000689136
0.000629859
0.000559356
0.00047024
0.000352002
0.000193238
2.36151e-05
0.000750135
0.000696632
0.000636956
0.000566217
0.000476785
0.000357831
0.000197253
2.42061e-05
0.00074223
0.000689578
0.000630324
0.00055964
0.0004702
0.000351695
0.000192983
2.359e-05
0.000719567
0.000668732
0.000610352
0.000539803
0.000450593
0.000333891
0.000180839
2.18747e-05
0.000682619
0.000634941
0.000577415
0.000506871
0.000418289
0.000305038
0.000161606
1.93324e-05
0.000687254
0.000640534
0.000584386
0.000515216
0.000427218
0.000312804
0.000165882
1.95538e-05
0.000723902
0.000673781
0.000616673
0.00054755
0.000459102
0.000341448
0.000185057
2.21204e-05
0.000746782
0.000694724
0.000636624
0.000567287
0.000478566
0.000359117
0.00019708
2.38464e-05
0.00075516
0.000702352
0.000643801
0.000574219
0.000485268
0.000365149
0.000201221
2.44579e-05
0.000747553
0.000695766
0.000637641
0.000568021
0.000478874
0.000359059
0.000196984
2.38412e-05
0.000725709
0.000675731
0.000618375
0.000548628
0.000459393
0.000341166
0.000184804
2.21038e-05
0.000689658
0.000642857
0.000586156
0.000516075
0.000427113
0.000312148
0.000165472
1.95209e-05
0.000695098
0.00065223
0.000600339
0.000535173
0.000449476
0.000332952
0.000175632
2.13776e-05
0.000729103
0.000682992
0.000630516
0.00056616
0.00048113
0.000362622
0.000196079
2.41805e-05
0.000750897
0.000702574
0.000649119
0.000584917
0.000500297
0.000380831
0.000208973
2.60865e-05
0.000759125
0.000709956
0.000655998
0.000591636
0.000507019
0.000387134
0.000213477
2.67724e-05
0.000752075
0.00070412
0.000650627
0.000586087
0.000500976
0.000381059
0.00020902
2.61055e-05
0.000731791
0.00068589
0.000633135
0.000568079
0.000482155
0.000362911
0.000196136
2.42114e-05
0.000698868
0.000655906
0.000603408
0.000537247
0.000450455
0.000333157
0.000175708
2.14128e-05
1.49479e-05
0.000117118
0.000177786
0.000210015
0.000230377
0.000246265
0.000258329
0.00026442
1.50144e-05
0.000117614
0.000178588
0.000211089
0.000231666
0.000247702
0.000259773
0.000265758
1.506e-05
0.000117977
0.000179154
0.000211848
0.000232622
0.000248837
0.000260809
0.000266633
1.50884e-05
0.00011835
0.000179784
0.000212671
0.000233504
0.000249688
0.000261686
0.000267477
1.51232e-05
0.000118751
0.000180445
0.00021352
0.000234459
0.000250694
0.000262721
0.000268489
1.51466e-05
0.00011901
0.000180815
0.000213965
0.000234977
0.000251292
0.000263394
0.000269219
1.51382e-05
0.000118982
0.000180671
0.000213718
0.00023468
0.000251006
0.000263145
0.000269028
1.7045e-05
0.000130454
0.000195816
0.000231719
0.00025574
0.000275716
0.000290634
0.000298142
1.7131e-05
0.000131079
0.000196828
0.000233072
0.000257353
0.000277358
0.000292096
0.000299357
1.71846e-05
0.000131503
0.000197536
0.000234034
0.000258479
0.00027842
0.000292934
0.000299961
1.72337e-05
0.000131964
0.000198267
0.000234921
0.0002594
0.000279289
0.00029369
0.000300594
1.72941e-05
0.000132505
0.000199093
0.000235875
0.000260416
0.000280322
0.000294707
0.000301572
1.73432e-05
0.000132909
0.000199632
0.000236438
0.000261028
0.00028102
0.000295504
0.000302437
1.73513e-05
0.000132968
0.000199604
0.000236294
0.000260838
0.000280868
0.000295431
0.00030245
1.98831e-05
0.000147151
0.000218294
0.000259316
0.000289935
0.000313862
0.0003303
0.000338084
2.00047e-05
0.000148032
0.000219748
0.000261068
0.000291686
0.000315439
0.000331632
0.000339122
2.00695e-05
0.000148552
0.000220709
0.000262213
0.000292694
0.000316204
0.00033216
0.0003394
2.01412e-05
0.000149093
0.000221556
0.000263163
0.000293562
0.000316927
0.000332718
0.000339797
2.02312e-05
0.000149762
0.000222491
0.000264205
0.000294658
0.00031802
0.00033377
0.000340781
2.0309e-05
0.000150284
0.000223091
0.000264869
0.000295477
0.000318973
0.0003348
0.000341852
2.03275e-05
0.000150371
0.00022306
0.000264797
0.000295498
0.0003191
0.000335011
0.000342138
2.37556e-05
0.000169019
0.000249303
0.000299504
0.000337601
0.000364164
0.000379999
0.000385601
2.38803e-05
0.000169874
0.00025046
0.000300448
0.000338327
0.000364794
0.000380575
0.00038606
2.39132e-05
0.000170202
0.000251049
0.000300626
0.000338201
0.000364534
0.000380274
0.000385692
2.39851e-05
0.000170681
0.000251769
0.000301196
0.000338603
0.000364817
0.000380447
0.000385746
2.41152e-05
0.00017156
0.000252945
0.000302626
0.00034009
0.000366243
0.000381744
0.000386888
2.4256e-05
0.000172416
0.000254075
0.000304263
0.000341951
0.000368102
0.000383486
0.000388487
2.43121e-05
0.000172748
0.000254577
0.000305133
0.000343012
0.000369169
0.000384454
0.000389351
2.96458e-05
0.000207397
0.000302111
0.000366107
0.000408957
0.00043421
0.000444602
0.000442768
2.96722e-05
0.000207014
0.000301053
0.000364657
0.00040743
0.000432863
0.000443581
0.000442031
2.95528e-05
0.000205924
0.000299149
0.000362219
0.000404888
0.000430525
0.000441635
0.000440475
2.95601e-05
0.000205773
0.000298764
0.000361599
0.000404213
0.00042991
0.000441109
0.00044
2.97593e-05
0.000207071
0.000300602
0.000363664
0.00040628
0.000431833
0.000442806
0.000441435
3.00668e-05
0.000208879
0.000303578
0.000367229
0.000409948
0.000435267
0.00044581
0.000443955
3.02539e-05
0.000210032
0.000305718
0.000369877
0.000412743
0.000437921
0.000448106
0.000445824
4.61339e-05
0.000275011
0.000399175
0.000470662
0.000510157
0.000526837
0.000525305
0.000509188
4.59644e-05
0.000272679
0.000395932
0.000467105
0.000506558
0.000523446
0.000522403
0.000506832
4.55636e-05
0.000269728
0.000391888
0.000462602
0.000501963
0.00051905
0.000518552
0.000503721
4.53209e-05
0.000268006
0.000389885
0.000460599
0.000500089
0.00051739
0.000517147
0.000502638
4.54159e-05
0.000268675
0.00039135
0.000462537
0.000502194
0.000519459
0.000519059
0.000504283
4.56904e-05
0.000270196
0.000394374
0.000466542
0.000506656
0.000523945
0.0005232
0.000507711
4.58812e-05
0.000271422
0.000396717
0.000469653
0.000510251
0.000527709
0.000526738
0.000510773
1.44238e-05
0.000114288
0.00017315
0.00020465
0.000224907
0.000240504
0.00025232
0.000258382
1.42503e-05
0.000113607
0.000172236
0.000203673
0.000223895
0.000239366
0.000251104
0.000257195
1.41512e-05
0.000113271
0.000171766
0.000203096
0.000223201
0.000238514
0.000250168
0.000256231
1.41539e-05
0.000113245
0.00017172
0.000202946
0.000222975
0.000238292
0.000249905
0.000255892
1.42169e-05
0.000113402
0.000171986
0.000203186
0.000223174
0.000238405
0.000249937
0.000255964
1.42977e-05
0.000113623
0.000172332
0.000203523
0.000223496
0.000238697
0.000250259
0.000256342
1.43831e-05
0.000113877
0.000172643
0.00020381
0.000223746
0.000238992
0.000250604
0.00025672
1.65131e-05
0.00012799
0.000192163
0.000227028
0.000250254
0.000269657
0.000284632
0.000292576
1.63049e-05
0.00012705
0.000190839
0.000225447
0.000248485
0.000267716
0.000282716
0.000290855
1.61682e-05
0.000126425
0.000189936
0.000224276
0.00024705
0.000266084
0.000281047
0.000289321
1.61279e-05
0.000126144
0.000189584
0.000223822
0.000246484
0.000265403
0.0002803
0.000288653
1.61577e-05
0.000126114
0.000189617
0.000223809
0.000246389
0.000265239
0.000280174
0.000288638
1.62206e-05
0.000126237
0.000189864
0.000224114
0.000246735
0.000265593
0.000280603
0.000289145
1.63005e-05
0.000126462
0.000190159
0.000224452
0.000247127
0.000266052
0.000281091
0.000289667
1.92007e-05
0.000144124
0.000213548
0.000253246
0.000283326
0.000307953
0.000325197
0.00033369
1.89317e-05
0.000142664
0.000211352
0.000250642
0.000280365
0.000305072
0.000322616
0.000331492
1.87248e-05
0.000141443
0.000209465
0.000248245
0.000277498
0.000302205
0.000319981
0.000329232
1.86103e-05
0.000140689
0.000208408
0.000246858
0.00027575
0.000300424
0.000318405
0.00032797
1.85864e-05
0.000140364
0.000208038
0.000246351
0.000275058
0.000299739
0.000317847
0.000327624
1.86238e-05
0.000140402
0.000208236
0.000246629
0.000275323
0.000300015
0.000318186
0.000328061
1.86991e-05
0.000140623
0.00020858
0.000247037
0.00027576
0.000300427
0.000318608
0.000328519
2.30251e-05
0.000165905
0.000244686
0.000295395
0.000334877
0.000362642
0.000379277
0.000385244
2.26868e-05
0.000163653
0.00024124
0.000291663
0.000331141
0.000359169
0.00037624
0.000382743
2.23789e-05
0.000161347
0.00023758
0.000287414
0.000326746
0.000354996
0.00037255
0.000379692
2.21504e-05
0.000159687
0.000234968
0.000284243
0.000323433
0.000351892
0.000369903
0.00037764
2.204e-05
0.000158865
0.000233736
0.000282731
0.000321843
0.00035043
0.000368704
0.000376797
2.20313e-05
0.000158828
0.000233774
0.00028276
0.000321839
0.000350459
0.000368816
0.000377039
2.20909e-05
0.000159039
0.000234135
0.000283075
0.000322061
0.000350613
0.000368944
0.00037721
2.92983e-05
0.000209701
0.00030521
0.000370306
0.000413967
0.000439961
0.000450935
0.000449079
2.88922e-05
0.000206935
0.000301666
0.000366683
0.000410372
0.000436516
0.000447832
0.000446525
2.84773e-05
0.000203767
0.000297363
0.00036202
0.000405541
0.000431762
0.000443479
0.00044288
2.81265e-05
0.00020128
0.000293956
0.00035829
0.000401679
0.000428021
0.000440153
0.000440226
2.79074e-05
0.00020004
0.000292312
0.000356545
0.000399943
0.000426402
0.000438765
0.000439177
2.78179e-05
0.000199886
0.000292178
0.000356472
0.000399963
0.000426532
0.000438981
0.000439472
2.78275e-05
0.000199629
0.000291921
0.000356219
0.000399809
0.000426452
0.000438902
0.000439397
4.67556e-05
0.00028112
0.000408533
0.000481329
0.000520925
0.000537669
0.000536876
0.000521304
4.64051e-05
0.000277998
0.00040494
0.00047802
0.000517938
0.000534807
0.000534133
0.000518952
4.62097e-05
0.000276367
0.000402407
0.000474901
0.000514311
0.000530764
0.000529996
0.000515248
4.61235e-05
0.000276081
0.000401312
0.000473038
0.00051179
0.000527826
0.000527005
0.000512657
4.60339e-05
0.000276274
0.000401185
0.000472561
0.000511075
0.000527051
0.000526279
0.000512079
4.58887e-05
0.000276169
0.00040108
0.000472585
0.000511365
0.000527655
0.000527081
0.000512934
4.56543e-05
0.000274498
0.000399165
0.00047088
0.000510226
0.000527149
0.000526939
0.000512874
1.44716e-05
0.000114242
0.000173063
0.000204189
0.000224099
0.000239355
0.000250962
0.000257056
1.45597e-05
0.000114659
0.000173556
0.000204618
0.000224462
0.000239809
0.000251409
0.000257343
1.46315e-05
0.000115042
0.000174108
0.000205194
0.000224968
0.000240165
0.000251645
0.000257495
1.4697e-05
0.000115387
0.000174705
0.000205884
0.000225673
0.000240873
0.000252316
0.00025811
1.47493e-05
0.000115739
0.000175431
0.000206884
0.000226726
0.000241993
0.000253551
0.000259394
1.4807e-05
0.000116156
0.000176221
0.000207955
0.000227955
0.0002434
0.000255143
0.000261117
1.48724e-05
0.000116604
0.000176974
0.000208953
0.000229125
0.000244801
0.00025674
0.000262816
1.64009e-05
0.000126866
0.000190656
0.000224988
0.000247684
0.000266643
0.000281658
0.00029015
1.65088e-05
0.000127378
0.000191324
0.000225773
0.00024854
0.000267509
0.000282307
0.000290555
1.66011e-05
0.000127799
0.000191871
0.000226382
0.00024915
0.000268044
0.000282723
0.000290718
1.66841e-05
0.000128213
0.000192469
0.000227153
0.000250003
0.000268902
0.000283507
0.000291308
1.67589e-05
0.000128677
0.000193204
0.000228135
0.000251176
0.000270294
0.000284955
0.000292658
1.6845e-05
0.000129226
0.000194033
0.000229256
0.000252573
0.000272015
0.000286863
0.000294544
1.69408e-05
0.000129799
0.000194857
0.000230436
0.000254109
0.000273871
0.000288826
0.000296458
1.88133e-05
0.000141093
0.000209236
0.000247749
0.000276471
0.000301045
0.000319099
0.000328903
1.89482e-05
0.000141771
0.000210232
0.00024885
0.000277529
0.000301905
0.000319699
0.00032922
1.90753e-05
0.00014238
0.000211175
0.000249987
0.000278629
0.000302731
0.000320158
0.000329302
1.92084e-05
0.000143094
0.000212248