/*--------------------------------*- C++ -*----------------------------------*\
| =========                 |                                                 |
| \\      /  F ield         | OpenFOAM: The Open Source CFD Toolbox           |
|  \\    /   O peration     | Version:  plus.master.MPPICInterFoam            |
|   \\  /    A nd           | Web:      www.OpenFOAM.com                      |
|    \\/     M anipulation  |                                                 |
\*---------------------------------------------------------------------------*/
FoamFile
{
    version     2.0;
    format      ascii;
    class       volScalarField;
    location    "5.6";
    object      p;
}
// * * * * * * * * * * * * * * * * * * * * * * * * * * * * * * * * * * * * * //

dimensions      [1 -1 -2 0 0 0 0];

internalField   nonuniform List<scalar> 
11822
(
773.553
776.114
780.674
784.228
782.075
777.855
775.13
775.693
782.307
797.454
807.847
801.42
785.636
777.787
778.89
794.036
825.422
839.578
832.925
800.365
781.49
778.913
790.634
813.966
840.726
837.242
803.195
782.078
776.563
784.556
801.108
814.852
812.208
791.152
778.38
773.584
777.416
783.87
788.851
787
779.543
774.687
771.481
773.188
775.405
777.134
776.484
774.287
772.329
674.972
675.031
675.098
675.358
675.399
675.546
675.663
675.188
675.14
675.111
676.363
675.428
675.506
675.695
675.71
675.982
682.939
689.496
681.257
675.755
675.885
676.073
676.582
678.018
686.001
680.015
675.897
675.754
675.7
675.878
675.683
676.665
676.111
674.906
675.227
675.142
675.649
675.448
675.706
675.469
675.714
675.158
674.599
675.064
675.39
675.658
675.496
675.175
674.815
576.552
576.997
577.142
577.765
577.186
577.138
576.89
576.913
577.73
576.108
576.207
575.062
579.284
576.995
577.207
576.723
575.112
572.645
572.262
574.357
576.949
577.312
576.699
575.162
571.603
570.475
574.523
577.142
577.306
577.422
575.988
572.999
572.251
576.388
577.003
576.971
577.725
577.398
576.86
576.479
577.807
576.98
576.388
576.965
577.274
577.308
577.122
576.924
576.518
477.009
477.51
477.658
477.822
477.026
477.273
477.01
477.266
477.635
475.552
474.017
478.697
476.881
477.055
477.291
475.996
473.709
473.281
472.714
481.667
476.336
477.024
474.618
483.845
470.293
470.932
472.362
476.475
477.306
476.422
474.434
472.603
486.734
476.002
477.301
477.237
477.242
476.437
474.764
475.143
477.442
477.35
476.842
477.18
477.227
476.894
476.834
477.053
476.88
376.362
376.394
376.045
375.024
375.463
376.484
376.532
376.292
375.303
373.183
374.126
381.416
375.695
376.601
375.863
372.775
372.606
371.264
370.225
381.551
375.949
375.733
371.299
386.479
371.707
376.067
382.598
375.521
376.498
374.955
374.753
381.147
385.528
376.692
377.354
376.885
376.262
375.386
372.258
374.247
376.829
377.347
376.712
376.946
376.921
376.322
376.642
377.034
376.894
277.97
275.625
273.314
271.152
273.077
275.772
277.963
276.052
271.616
268.755
273.327
271.648
272.465
276.159
273.938
267.377
268.448
260.095
266.698
271.732
273.991
273.287
264.405
275.781
266.472
263.264
277.024
272.506
275.286
270.399
270.187
277.539
271.446
271.545
275.406
277.474
274.146
271.428
266.529
270.243
274.096
277.433
279.056
277.85
276.603
275.345
276.122
277.772
279.052
771.945
769.903
767.991
766.363
765.141
764.357
763.97
763.865
773.153
770.074
767.752
766.072
764.907
764.163
763.797
763.716
774.736
771.073
768.368
766.427
765.084
764.226
763.81
763.7
774.946
771.208
768.432
766.445
765.058
764.176
763.749
763.634
773.128
770.114
767.748
766.003
764.76
763.971
763.586
763.496
771.158
768.778
766.866
765.417
764.376
763.723
763.415
763.347
769.895
768.29
766.724
765.343
764.307
763.657
763.359
763.286
675.009
674.046
672.986
672
671.188
670.589
670.205
669.979
675.014
673.852
672.758
671.835
671.078
670.507
670.139
669.9
675.135
674.052
672.954
671.985
671.168
670.545
670.142
669.878
675.017
674.03
672.966
671.985
671.147
670.509
670.088
669.831
674.655
673.731
672.704
671.757
670.955
670.349
669.958
669.726
674.377
673.396
672.37
671.455
670.711
670.163
669.816
669.619
674.189
673.326
672.322
671.376
670.62
670.084
669.751
669.571
576.691
576.078
575.461
574.917
574.448
574.047
573.716
573.487
576.893
576.333
575.718
575.115
574.57
574.114
573.757
573.52
576.937
576.462
575.866
575.251
574.677
574.184
573.791
573.534
576.876
576.452
575.877
575.264
574.68
574.174
573.77
573.508
576.864
576.354
575.74
575.116
574.543
574.059
573.681
573.438
576.684
576.104
575.466
574.859
574.328
573.896
573.565
573.354
576.264
575.661
575.063
574.546
574.109
573.75
573.468
573.284
477.15
476.951
476.827
476.73
476.597
476.398
476.146
475.929
477.512
477.57
477.433
477.181
476.887
476.571
476.256
476.019
477.465
477.666
477.58
477.332
477.009
476.659
476.313
476.057
477.548
477.747
477.629
477.365
477.026
476.665
476.317
476.063
477.81
477.79
477.585
477.282
476.948
476.609
476.285
476.051
477.593
477.48
477.286
477.035
476.759
476.48
476.205
476
476.978
476.744
476.626
476.567
476.47
476.309
476.1
475.923
376.923
376.968
377.134
377.311
377.423
377.502
377.603
377.627
377.517
377.921
378.067
378.031
377.917
377.816
377.817
377.803
377.532
378.114
378.306
378.263
378.109
377.964
377.935
377.91
377.599
378.206
378.363
378.327
378.162
378.011
377.984
377.974
378.191
378.385
378.401
378.309
378.142
378.016
378.006
378.017
377.859
377.997
378.061
378.025
377.937
377.881
377.925
377.962
377.106
377.046
377.181
377.378
377.517
377.627
377.769
377.826
280.043
280.863
281.552
282.148
282.58
282.831
282.968
283.085
279.472
280.984
281.87
282.403
282.689
282.792
282.827
282.91
278.66
280.71
281.757
282.339
282.63
282.712
282.729
282.814
278.289
280.544
281.666
282.305
282.625
282.72
282.746
282.849
279.402
281.076
281.998
282.548
282.833
282.929
282.964
283.092
280.16
281.432
282.236
282.743
283.029
283.161
283.255
283.417
280.723
281.436
282.08
282.665
283.092
283.362
283.56
283.761
769.093
767.498
766.014
764.731
763.758
763.136
762.84
762.768
770.33
767.907
766.026
764.665
763.714
763.098
762.799
762.737
772.022
769.032
766.788
765.165
764.028
763.298
762.942
762.842
773.377
769.882
767.33
765.522
764.265
763.466
763.07
762.951
773.131
769.782
767.312
765.53
764.31
763.541
763.148
763.039
771.748
768.923
766.776
765.242
764.182
763.508
763.17
763.075
770.84
768.941
767.113
765.582
764.427
763.688
763.318
763.2
673.778
672.882
671.909
670.988
670.238
669.703
669.375
669.191
674.044
672.867
671.812
670.943
670.235
669.709
669.382
669.188
674.455
673.25
672.135
671.188
670.414
669.84
669.477
669.246
674.782
673.53
672.381
671.393
670.578
669.976
669.58
669.328
674.663
673.471
672.343
671.38
670.602
670.017
669.63
669.381
674.407
673.238
672.162
671.267
670.555
670.017
669.656
669.424
674.45
673.527
672.475
671.496
670.711
670.139
669.76
669.53
576.043
575.46
574.851
574.316
573.885
573.54
573.265
573.08
576.465
575.837
575.207
574.607
574.083
573.663
573.346
573.145
576.762
576.141
575.474
574.831
574.256
573.786
573.427
573.198
576.858
576.26
575.599
574.943
574.354
573.861
573.481
573.234
576.832
576.208
575.532
574.89
574.325
573.851
573.478
573.224
576.57
575.944
575.306
574.721
574.21
573.787
573.441
573.198
576.243
575.61
575.029
574.531
574.101
573.734
573.418
573.19
476.926
476.717
476.582
476.491
476.394
476.242
476.039
475.866
477.496
477.443
477.257
477
476.716
476.428
476.151
475.952
477.757
477.75
477.541
477.234
476.894
476.548
476.229
476.002
477.714
477.788
477.602
477.286
476.935
476.575
476.243
476
477.806
477.78
477.538
477.212
476.867
476.525
476.197
475.946
477.534
477.465
477.264
476.994
476.692
476.393
476.09
475.851
476.971
476.694
476.58
476.515
476.4
476.216
475.967
475.75
377.054
377.081
377.199
377.369
377.508
377.625
377.782
377.871
377.671
377.998
378.128
378.098
378.011
377.952
378.012
378.052
377.835
378.295
378.439
378.394
378.256
378.137
378.154
378.159
377.543
378.208
378.432
378.412
378.285
378.159
378.164
378.154
377.53
378.14
378.331
378.306
378.179
378.071
378.076
378.067
377.371
377.846
378.026
378.014
377.905
377.831
377.86
377.879
376.811
376.869
377.066
377.267
377.388
377.478
377.593
377.627
280.81
281.553
282.179
282.759
283.205
283.497
283.721
283.953
280.304
281.695
282.518
283.043
283.365
283.528
283.659
283.859
279.501
281.347
282.384
283.013
283.368
283.517
283.622
283.796
278.635
280.895
282.132
282.877
283.295
283.469
283.568
283.73
278.865
280.987
282.174
282.9
283.303
283.486
283.58
283.742
279.576
281.28
282.3
282.935
283.289
283.469
283.588
283.754
280.267
281.229
282.005
282.646
283.106
283.389
283.579
283.762
770.761
768.878
767.154
765.683
764.537
763.781
763.387
763.269
772.1
769.317
767.182
765.617
764.496
763.756
763.368
763.254
774.269
770.815
768.168
766.246
764.899
764.019
763.567
763.421
775.834
771.804
768.83
766.698
765.212
764.257
763.758
763.602
775.008
771.326
768.586
766.582
765.19
764.302
763.842
763.715
773.274
770.212
767.883
766.184
764.99
764.217
763.828
763.725
772.05
770.008
768.055
766.418
765.192
764.384
763.984
763.868
674.343
673.505
672.536
671.595
670.801
670.198
669.802
669.575
674.357
673.357
672.352
671.485
670.756
670.181
669.796
669.564
674.685
673.733
672.685
671.759
670.973
670.35
669.92
669.66
675.025
674.079
672.974
671.988
671.15
670.499
670.048
669.774
674.969
674.016
672.938
671.981
671.171
670.53
670.096
669.837
674.88
673.784
672.727
671.815
671.056
670.471
670.086
669.859
674.958
673.988
672.955
671.989
671.169
670.558
670.171
669.953
576.299
575.736
575.149
574.63
574.182
573.795
573.466
573.234
576.668
576.085
575.483
574.909
574.387
573.937
573.563
573.309
576.954
576.418
575.803
575.189
574.61
574.1
573.676
573.391
577.091
576.6
575.978
575.341
574.74
574.199
573.755
573.457
577.099
576.59
575.96
575.326
574.727
574.193
573.76
573.474
576.908
576.345
575.732
575.132
574.575
574.094
573.713
573.462
576.634
576.029
575.44
574.9
574.416
574.008
573.681
573.459
477.113
476.87
476.703
476.581
476.443
476.248
475.989
475.771
477.743
477.628
477.414
477.129
476.805
476.471
476.129
475.876
478.052
477.982
477.748
477.412
477.021
476.618
476.23
475.947
478.077
478.049
477.827
477.491
477.093
476.676
476.273
475.979
477.877
477.95
477.761
477.442
477.058
476.653
476.261
475.977
477.669
477.677
477.503
477.224
476.89
476.544
476.208
475.958
477.182
476.981
476.839
476.722
476.574
476.368
476.116
475.906
376.935
377.006
377.131
377.258
377.355
377.441
377.549
377.586
377.414
377.834
377.981
377.937
377.81
377.711
377.712
377.704
377.457
378.029
378.219
378.176
378.006
377.847
377.808
377.765
377.156
377.91
378.176
378.18
378.037
377.875
377.821
377.767
377.311
377.969
378.196
378.175
378.013
377.857
377.808
377.763
377.458
377.89
378.023
377.977
377.853
377.75
377.751
377.733
376.974
377.038
377.165
377.308
377.403
377.474
377.575
377.602
280.292
281.225
281.915
282.487
282.925
283.205
283.388
283.576
279.281
280.986
281.931
282.493
282.806
282.936
283.009
283.152
278.262
280.466
281.618
282.265
282.589
282.686
282.723
282.835
277.435
280.042
281.354
282.069
282.419
282.523
282.547
282.648
278.142
280.406
281.549
282.178
282.498
282.591
282.608
282.71
279.271
280.851
281.75
282.313
282.621
282.74
282.794
282.897
280.081
280.94
281.588
282.153
282.571
282.819
282.963
283.091
769.758
768.085
766.522
765.167
764.16
763.523
763.226
763.157
770.736
768.246
766.333
764.927
763.934
763.301
763.007
762.947
771.871
768.983
766.746
765.131
763.987
763.268
762.933
762.851
772.271
769.179
766.838
765.164
763.981
763.238
762.885
762.804
771.264
768.504
766.403
764.869
763.795
763.114
762.79
762.728
770.03
767.616
765.776
764.462
763.556
762.977
762.7
762.641
769.211
767.552
765.988
764.695
763.738
763.123
762.827
762.745
674.118
673.182
672.159
671.234
670.501
669.984
669.667
669.459
674.253
673.115
672.033
671.118
670.393
669.872
669.552
669.345
674.42
673.266
672.162
671.201
670.424
669.862
669.501
669.282
674.488
673.29
672.168
671.19
670.39
669.812
669.441
669.223
674.24
673.05
671.958
671.025
670.266
669.71
669.366
669.159
673.969
672.75
671.693
670.819
670.121
669.618
669.31
669.109
673.892
672.866
671.821
670.893
670.163
669.653
669.344
669.15
576.174
575.533
574.943
574.455
574.044
573.702
573.432
573.247
576.568
575.928
575.263
574.665
574.154
573.749
573.445
573.25
576.725
576.12
575.448
574.803
574.24
573.789
573.453
573.243
576.788
576.171
575.485
574.826
574.247
573.779
573.437
573.228
576.735
576.073
575.369
574.716
574.156
573.707
573.383
573.184
576.461
575.794
575.119
574.514
574.005
573.607
573.315
573.127
576.012
575.366
574.764
574.254
573.84
573.511
573.253
573.076
476.884
476.648
476.557
476.528
476.453
476.305
476.104
475.93
477.412
477.359
477.189
476.964
476.706
476.442
476.188
476.001
477.524
477.59
477.412
477.133
476.816
476.507
476.231
476.03
477.573
477.65
477.456
477.162
476.838
476.523
476.245
476.045
477.694
477.659
477.418
477.108
476.791
476.49
476.221
476.026
477.442
477.37
477.161
476.913
476.653
476.398
476.155
475.968
476.799
476.594
476.508
476.458
476.373
476.228
476.038
475.868
377.031
376.998
377.158
377.371
377.522
377.643
377.812
377.892
377.706
377.952
378.051
378.029
377.947
377.893
378.021
378.066
377.848
378.233
378.337
378.267
378.124
378.019
378.12
378.142
377.814
378.256
378.36
378.284
378.146
378.038
378.13
378.154
377.996
378.311
378.355
378.254
378.106
378.002
378.103
378.131
377.637
377.914
378.005
377.984
377.906
377.857
377.994
378.031
376.86
376.893
377.086
377.312
377.468
377.586
377.779
377.856
280.727
281.425
282.1
282.698
283.147
283.443
283.658
283.88
280.322
281.571
282.379
282.893
283.197
283.353
283.48
283.685
279.744
281.347
282.275
282.816
283.094
283.199
283.288
283.478
279.423
281.178
282.153
282.705
282.992
283.082
283.154
283.343
280.015
281.497
282.337
282.825
283.063
283.143
283.211
283.395
280.315
281.595
282.386
282.874
283.141
283.263
283.373
283.557
280.599
281.3
282.013
282.656
283.121
283.412
283.631
283.864
735.286
735.184
735.163
735.22
735.328
735.473
735.647
735.835
735.309
735.213
735.197
735.257
735.369
735.517
735.692
735.881
735.29
735.198
735.184
735.243
735.35
735.498
735.679
735.869
735.234
735.145
735.133
735.193
735.304
735.452
735.628
735.814
735.145
735.057
735.044
735.103
735.212
735.357
735.528
735.711
735.024
734.932
734.917
734.973
735.078
735.219
735.386
735.567
734.878
734.782
734.762
734.814
734.914
735.051
735.215
735.393
637.559
637.479
637.514
637.662
637.88
638.141
638.436
638.744
637.589
637.514
637.553
637.706
637.927
638.191
638.49
638.8
637.566
637.497
637.539
637.691
637.91
638.175
638.476
638.786
637.506
637.439
637.483
637.636
637.856
638.119
638.417
638.723
637.41
637.342
637.382
637.533
637.751
638.01
638.304
638.606
637.276
637.203
637.239
637.387
637.601
637.857
638.147
638.446
637.11
637.033
637.066
637.21
637.419
637.672
637.957
638.251
539.492
539.489
539.662
539.995
540.398
540.865
541.349
541.817
539.519
539.521
539.698
540.036
540.443
540.915
541.405
541.876
539.49
539.496
539.674
540.013
540.422
540.895
541.386
541.858
539.419
539.425
539.603
539.944
540.354
540.825
541.313
541.782
539.31
539.314
539.492
539.83
540.237
540.704
541.187
541.65
539.167
539.168
539.34
539.675
540.078
540.54
541.017
541.474
538.991
538.991
539.161
539.489
539.884
540.34
540.811
541.262
440.7
440.918
441.382
442.106
442.94
443.766
444.511
445.145
440.707
440.924
441.387
442.119
442.96
443.794
444.55
445.195
440.658
440.873
441.331
442.068
442.913
443.752
444.513
445.163
440.564
440.774
441.223
441.969
442.819
443.661
444.422
445.07
440.441
440.648
441.097
441.845
442.694
443.531
444.285
444.927
440.304
440.51
440.958
441.695
442.536
443.364
444.107
444.736
440.138
440.346
440.791
441.517
442.349
443.166
443.897
444.514
342.021
342.911
343.811
344.951
346.133
347.21
348.108
348.799
342.002
342.842
343.748
344.893
346.091
347.191
348.114
348.826
341.903
342.703
343.629
344.782
345.999
347.117
348.053
348.77
341.765
342.547
343.492
344.642
345.868
346.995
347.935
348.652
341.623
342.398
343.351
344.511
345.738
346.859
347.79
348.497
341.519
342.302
343.243
344.396
345.605
346.704
347.615
348.303
341.409
342.225
343.156
344.29
345.468
346.536
347.419
348.086
237.963
240.041
244.778
248.004
249.876
251.098
251.966
252.525
237.949
239.985
244.62
247.829
249.74
251.016
251.943
252.597
237.814
239.8
244.357
247.601
249.585
250.914
251.875
252.599
237.643
239.589
244.102
247.374
249.397
250.755
251.743
252.461
237.477
239.406
243.921
247.216
249.252
250.604
251.577
252.299
237.467
239.411
243.915
247.169
249.153
250.457
251.383
252.067
237.489
239.485
244.023
247.227
249.122
250.343
251.207
251.795
733.659
733.51
733.443
733.452
733.51
733.611
733.749
733.905
733.617
733.471
733.403
733.407
733.461
733.556
733.689
733.843
733.619
733.475
733.406
733.407
733.458
733.552
733.684
733.838
733.666
733.519
733.448
733.447
733.497
733.592
733.723
733.88
733.755
733.606
733.532
733.53
733.579
733.676
733.811
733.966
733.885
733.733
733.659
733.659
733.712
733.811
733.946
734.103
734.045
733.889
733.816
733.817
733.871
733.976
734.117
734.278
635.645
635.512
635.495
635.589
635.749
635.96
636.213
636.487
635.596
635.465
635.444
635.531
635.684
635.89
636.138
636.412
635.599
635.467
635.441
635.522
635.669
635.872
636.122
636.398
635.65
635.515
635.484
635.557
635.701
635.905
636.159
636.438
635.752
635.612
635.578
635.65
635.794
636.001
636.256
636.537
635.899
635.756
635.723
635.799
635.947
636.157
636.411
636.694
636.079
635.934
635.903
635.983
636.136
636.351
636.61
636.897
537.258
537.201
537.316
537.593
537.925
538.333
538.774
539.21
537.204
537.142
537.249
537.515
537.835
538.236
538.674
539.11
537.205
537.139
537.24
537.499
537.812
538.209
538.648
539.089
537.261
537.191
537.285
537.536
537.843
538.241
538.684
539.129
537.374
537.301
537.393
537.642
537.949
538.347
538.793
539.242
537.542
537.467
537.56
537.815
538.127
538.527
538.975
539.426
537.749
537.674
537.77
538.028
538.347
538.754
539.207
539.661
438.097
438.266
438.66
439.317
440.095
440.863
441.566
442.178
438.053
438.211
438.586
439.217
439.978
440.737
441.438
442.055
438.069
438.221
438.586
439.202
439.952
440.704
441.406
442.029
438.142
438.291
438.649
439.251
439.992
440.742
441.447
442.077
438.279
438.426
438.781
439.378
440.115
440.864
441.573
442.209
438.48
438.627
438.982
439.582
440.32
441.072
441.784
442.422
438.729
438.878
439.236
439.838
440.58
441.336
442.053
442.692
338.906
339.683
340.626
341.785
342.949
343.965
344.81
345.475
338.897
339.623
340.516
341.637
342.783
343.797
344.648
345.326
338.953
339.642
340.505
341.608
342.748
343.76
344.615
345.303
339.056
339.726
340.565
341.653
342.787
343.801
344.663
345.362
339.22
339.881
340.706
341.786
342.917
343.934
344.805
345.513
339.45
340.116
340.935
342.01
343.138
344.158
345.037
345.753
339.751
340.434
341.259
342.326
343.446
344.466
345.348
346.065
234.13
236.225
241.035
244.41
246.336
247.486
248.304
248.909
234.301
236.358
240.988
244.232
246.107
247.26
248.089
248.717
234.428
236.444
240.989
244.187
246.052
247.207
248.04
248.682
234.543
236.535
241.052
244.225
246.079
247.239
248.082
248.736
234.732
236.705
241.205
244.364
246.213
247.383
248.241
248.896
235.053
237.009
241.477
244.615
246.458
247.637
248.51
249.167
235.432
237.417
241.888
245.021
246.846
248.011
248.875
249.517
734.229
734.07
733.998
734.004
734.065
734.175
734.319
734.485
734.426
734.267
734.198
734.209
734.276
734.398
734.554
734.724
734.624
734.47
734.407
734.427
734.505
734.629
734.786
734.961
734.81
734.665
734.61
734.64
734.725
734.856
735.019
735.199
734.975
734.841
734.796
734.834
734.926
735.059
735.226
735.409
735.113
734.991
734.956
735.001
735.1
735.237
735.406
735.591
735.219
735.109
735.082
735.133
735.238
735.378
735.55
735.736
636.286
636.139
636.111
636.195
636.355
636.578
636.844
637.137
636.508
636.363
636.339
636.429
636.596
636.829
637.11
637.411
636.738
636.599
636.581
636.68
636.857
637.102
637.388
637.693
636.962
636.831
636.822
636.928
637.113
637.367
637.659
637.969
637.168
637.048
637.049
637.167
637.367
637.62
637.912
638.222
637.343
637.237
637.25
637.377
637.586
637.842
638.135
638.445
637.479
637.386
637.411
637.551
637.764
638.019
638.315
638.625
537.979
537.904
538.002
538.267
538.595
539.013
539.476
539.936
538.227
538.149
538.25
538.523
538.865
539.297
539.774
540.247
538.486
538.412
538.521
538.807
539.163
539.607
540.092
540.57
538.745
538.679
538.798
539.095
539.464
539.917
540.408
540.891
538.995
538.943
539.075
539.384
539.762
540.22
540.709
541.188
539.217
539.183
539.332
539.654
540.037
540.496
540.98
541.455
539.39
539.375
539.539
539.866
540.26
540.723
541.205
541.674
438.988
439.137
439.5
440.11
440.861
441.627
442.355
443.003
439.255
439.399
439.766
440.387
441.151
441.936
442.684
443.348
439.534
439.684
440.063
440.703
441.48
442.28
443.039
443.712
439.824
439.98
440.37
441.026
441.819
442.63
443.395
444.071
440.116
440.284
440.685
441.359
442.164
442.981
443.743
444.411
440.389
440.575
440.988
441.681
442.496
443.313
444.065
444.718
440.599
440.812
441.257
441.965
442.786
443.603
444.345
444.984
340.028
340.722
341.561
342.634
343.762
344.795
345.69
346.417
340.318
340.992
341.827
342.902
344.049
345.113
346.042
346.797
340.624
341.296
342.142
343.234
344.405
345.495
346.441
347.205
340.943
341.627
342.485
343.587
344.772
345.875
346.83
347.598
341.284
341.994
342.868
343.979
345.169
346.272
347.217
347.969
341.646
342.409
343.296
344.402
345.577
346.664
347.586
348.31
341.928
342.778
343.674
344.795
345.964
347.034
347.931
348.625
235.832
237.792
242.236
245.384
247.229
248.41
249.286
249.932
236.198
238.124
242.493
245.627
247.511
248.753
249.688
250.379
236.523
238.422
242.777
245.943
247.88
249.176
250.143
250.84
236.866
238.748
243.109
246.299
248.266
249.589
250.568
251.274
237.275
239.165
243.541
246.73
248.695
250.01
250.972
251.678
237.735
239.686
244.123
247.275
249.184
250.453
251.366
252.034
237.984
240.038
244.676
247.855
249.708
250.918
251.781
252.365
734.712
734.61
734.584
734.631
734.727
734.859
735.02
735.195
734.534
734.422
734.389
734.43
734.52
734.647
734.804
734.976
734.352
734.229
734.187
734.221
734.306
734.429
734.583
734.752
734.173
734.038
733.987
734.015
734.095
734.214
734.367
734.537
734.006
733.86
733.802
733.824
733.899
734.012
734.159
734.323
733.859
733.708
733.646
733.664
733.734
733.845
733.991
734.155
733.738
733.587
733.523
733.536
733.599
733.701
733.84
733.999
636.918
636.834
636.862
637
637.205
637.451
637.73
638.02
636.703
636.609
636.628
636.757
636.957
637.198
637.475
637.763
636.48
636.373
636.381
636.502
636.694
636.932
637.207
637.495
636.258
636.138
636.136
636.248
636.435
636.669
636.941
637.228
636.054
635.923
635.914
636.021
636.202
636.434
636.704
636.99
635.876
635.741
635.729
635.83
636.003
636.228
636.493
636.775
635.739
635.606
635.592
635.688
635.854
636.072
636.331
636.61
538.771
538.764
538.927
539.25
539.638
540.088
540.552
540.997
538.511
538.489
538.639
538.955
539.339
539.784
540.245
540.69
538.235
538.196
538.336
538.647
539.021
539.463
539.924
540.372
537.964
537.912
538.043
538.347
538.713
539.151
539.612
540.061
537.72
537.662
537.787
538.083
538.44
538.874
539.334
539.781
537.516
537.457
537.578
537.866
538.216
538.643
539.098
539.541
537.363
537.306
537.425
537.707
538.047
538.464
538.911
539.349
439.891
440.091
440.525
441.246
442.071
442.881
443.605
444.216
439.561
439.745
440.167
440.879
441.7
442.509
443.237
443.854
439.212
439.388
439.806
440.506
441.32
442.127
442.858
443.482
438.889
439.06
439.471
440.159
440.965
441.766
442.497
443.123
438.611
438.778
439.183
439.863
440.664
441.461
442.188
442.813
438.379
438.547
438.948
439.621
440.416
441.204
441.923
442.542
438.205
438.379
438.779
439.449
440.238
441.014
441.723
442.335
341.125
341.934
342.868
343.993
345.165
346.225
347.098
347.754
340.664
341.421
342.353
343.494
344.689
345.767
346.656
347.327
340.2
340.932
341.864
343.023
344.232
345.317
346.216
346.902
339.809
340.539
341.47
342.629
343.835
344.916
345.814
346.505
339.486
340.225
341.161
342.321
343.521
344.59
345.48
346.167
339.219
339.983
340.925
342.085
343.27
344.321
345.194
345.868
339.019
339.807
340.767
341.939
343.113
344.139
344.99
345.651
237.198
239.182
243.716
246.912
248.804
250.012
250.855
251.475
236.525
238.427
242.911
246.193
248.176
249.439
250.315
250.989
235.854
237.761
242.289
245.615
247.637
248.923
249.823
250.509
235.351
237.287
241.852
245.192
247.211
248.488
249.392
250.067
234.969
236.95
241.553
244.894
246.893
248.148
249.037
249.687
234.621
236.672
241.356
244.695
246.653
247.867
248.725
249.354
234.261
236.356
241.182
244.585
246.536
247.698
248.517
249.116
833.124
832.969
832.983
735.986
736.099
736.202
736.294
736.375
736.442
736.493
736.549
736.031
736.143
736.247
736.339
736.42
736.488
736.541
736.599
736.018
736.129
736.231
736.323
736.403
736.471
736.525
736.582
735.962
736.071
736.172
736.263
736.343
736.41
736.464
736.52
735.857
735.966
736.066
736.156
736.235
736.301
736.354
736.411
735.711
735.818
735.917
736.006
736.084
736.15
736.204
736.263
735.537
735.643
735.741
735.829
735.907
735.972
736.024
736.082
638.985
639.161
639.323
639.47
639.603
639.726
639.842
639.965
639.04
639.215
639.376
639.522
639.655
639.778
639.894
640.016
639.026
639.2
639.36
639.505
639.637
639.759
639.874
639.994
638.959
639.131
639.289
639.433
639.564
639.685
639.8
639.919
638.84
639.01
639.166
639.308
639.437
639.558
639.673
639.792
638.678
638.845
638.999
639.138
639.267
639.388
639.503
639.623
638.479
638.644
638.796
638.934
639.06
639.18
639.295
639.417
542.169
542.419
542.644
542.848
543.043
543.241
543.452
543.68
542.228
542.476
542.699
542.902
543.095
543.291
543.5
543.723
542.208
542.454
542.676
542.878
543.069
543.261
543.466
543.683
542.129
542.373
542.593
542.792
542.981
543.171
543.373
543.586
541.995
542.235
542.451
542.648
542.833
543.023
543.224
543.436
541.813
542.049
542.26
542.454
542.638
542.827
543.029
543.244
541.597
541.832
542.041
542.232
542.414
542.602
542.805
543.023
445.6
445.908
446.172
446.413
446.655
446.929
447.256
447.62
445.652
445.959
446.221
446.462
446.703
446.973
447.293
447.644
445.617
445.921
446.185
446.426
446.664
446.929
447.241
447.578
445.521
445.823
446.086
446.324
446.558
446.82
447.126
447.454
445.371
445.667
445.923
446.156
446.385
446.643
446.947
447.272
445.173
445.462
445.709
445.936
446.163
446.419
446.724
447.054
444.946
445.232
445.474
445.696
445.919
446.175
446.481
446.817
349.28
349.584
349.824
350.036
350.267
350.586
351.013
351.514
349.306
349.612
349.857
350.071
350.313
350.63
351.052
351.536
349.24
349.554
349.805
350.03
350.269
350.581
351.004
351.464
349.128
349.442
349.688
349.911
350.144
350.458
350.88
351.321
348.959
349.265
349.502
349.714
349.936
350.24
350.661
351.102
348.746
349.033
349.261
349.462
349.677
349.971
350.388
350.843
348.531
348.806
349.019
349.201
349.41
349.704
350.112
350.574
253.077
253.375
253.368
253.55
253.899
254.14
254.638
255.263
253.131
253.304
253.319
253.733
254.017
254.222
254.784
255.365
252.992
253.072
253.437
253.891
253.934
254.22
254.849
255.354
252.745
252.911
253.455
253.73
253.697
254.082
254.742
255.205
252.596
252.705
253.224
253.554
253.499
253.84
254.492
254.958
252.489
252.554
252.78
253.261
253.34
253.555
254.133
254.655
252.244
252.414
252.441
252.749
252.969
253.171
253.725
254.293
734.033
734.131
734.221
734.303
734.374
734.435
734.469
734.519
733.969
734.064
734.154
734.234
734.305
734.366
734.398
734.447
733.965
734.061
734.151
734.231
734.302
734.359
734.393
734.437
734.008
734.105
734.197
734.278
734.348
734.404
734.437
734.479
734.094
734.192
734.283
734.365
734.435
734.49
734.524
734.564
734.233
734.333
734.425
734.508
734.578
734.634
734.668
734.709
734.41
734.51
734.604
734.687
734.759
734.816
734.851
734.893
636.705
636.867
637.016
637.154
637.28
637.396
637.504
637.62
636.631
636.794
636.945
637.083
637.21
637.326
637.432
637.546
636.621
636.785
636.938
637.078
637.205
637.321
637.425
637.537
636.662
636.829
636.984
637.125
637.253
637.369
637.472
637.584
636.764
636.932
637.088
637.231
637.359
637.475
637.579
637.69
636.922
637.091
637.247
637.39
637.519
637.636
637.74
637.853
637.128
637.299
637.457
637.6
637.73
637.846
637.951
638.063
539.543
539.781
539.998
540.197
540.388
540.586
540.798
541.031
539.447
539.689
539.909
540.112
540.307
540.506
540.719
540.952
539.431
539.677
539.902
540.109
540.306
540.506
540.718
540.951
539.477
539.727
539.956
540.166
540.365
540.567
540.779
541.012
539.592
539.845
540.076
540.288
540.489
540.692
540.907
541.142
539.778
540.031
540.263
540.475
540.677
540.881
541.096
541.331
540.015
540.27
540.502
540.715
540.917
541.121
541.336
541.572
442.617
442.915
443.171
443.405
443.641
443.921
444.269
444.669
442.502
442.808
443.073
443.313
443.556
443.841
444.193
444.598
442.486
442.799
443.072
443.319
443.567
443.855
444.21
444.619
442.541
442.862
443.14
443.393
443.646
443.938
444.296
444.709
442.678
443.001
443.283
443.539
443.796
444.091
444.454
444.87
442.892
443.217
443.5
443.757
444.016
444.313
444.677
445.095
443.164
443.491
443.775
444.034
444.294
444.591
444.955
445.372
345.936
346.227
346.437
346.618
346.817
347.119
347.577
348.15
345.804
346.109
346.332
346.525
346.734
347.041
347.507
348.087
345.795
346.113
346.348
346.552
346.768
347.078
347.548
348.138
345.866
346.194
346.44
346.655
346.879
347.194
347.67
348.269
346.025
346.358
346.611
346.832
347.063
347.384
347.868
348.476
346.269
346.605
346.86
347.085
347.322
347.648
348.137
348.75
346.582
346.92
347.177
347.404
347.645
347.975
348.467
349.079
249.357
249.624
249.734
249.669
249.71
249.977
250.489
251.223
249.213
249.513
249.631
249.55
249.602
249.912
250.399
251.138
249.223
249.55
249.671
249.592
249.67
250.004
250.464
251.213
249.303
249.651
249.783
249.704
249.808
250.168
250.611
251.365
249.468
249.827
249.967
249.893
250.004
250.376
250.823
251.584
249.729
250.088
250.233
250.162
250.274
250.656
251.113
251.873
250.075
250.437
250.59
250.521
250.624
251.017
251.487
252.236
734.62
734.722
734.817
734.901
734.974
735.032
735.068
735.11
734.861
734.965
735.061
735.147
735.222
735.28
735.317
735.357
735.102
735.208
735.306
735.393
735.468
735.527
735.565
735.605
735.343
735.451
735.55
735.639
735.716
735.777
735.814
735.857
735.555
735.664
735.764