/*--------------------------------*- C++ -*----------------------------------*\
| =========                 |                                                 |
| \\      /  F ield         | OpenFOAM: The Open Source CFD Toolbox           |
|  \\    /   O peration     | Version:  plus.master                           |
|   \\  /    A nd           | Web:      www.OpenFOAM.com                      |
|    \\/     M anipulation  |                                                 |
\*---------------------------------------------------------------------------*/
FoamFile
{
    version     2.0;
    format      ascii;
    class       vectorField;
    location    "0.4/lagrangian/kinematicCloud";
    object      UCorrect;
}
// * * * * * * * * * * * * * * * * * * * * * * * * * * * * * * * * * * * * * //


40006
(
(7.6852e-05 -0.000904583 0.00488398)
(0.0022364 -0.00389118 0.00633789)
(-4.91733e-05 0.00489401 0.00154878)
(0.00055822 -0.000868011 0.00613995)
(6.66209e-05 -0.000832915 0.00379563)
(-0.00105614 -0.00465026 0.00120727)
(0.000143932 -0.0137378 0.00327179)
(0.000108961 1.49468e-05 0.00620079)
(0.00125496 0.00543259 0.00073012)
(-0.000290964 0.000177162 0.00554596)
(-7.02695e-05 0.00105858 0.00496952)
(0.00054656 0.0047637 0.00073012)
(0.00529241 0.00117532 0.0007028)
(0.000899801 0.00158279 0.00130375)
(0.00469744 0.00176625 0.00235721)
(0.0143913 5.44552e-05 0.00311673)
(0.00010738 -0.000241668 0.00644046)
(-0.000815491 0.000967058 0.00622124)
(0.00010738 -0.000229422 0.00644046)
(-0.000766204 0.000144157 0.00323404)
(0.00462339 0.00157744 0.0007028)
(3.29556e-05 0.000461105 3.03952e-05)
(-0.00347244 0.00372106 0.00458329)
(-9.65045e-05 -0.00565788 0.000820012)
(-0.00487405 -0.00118013 0.000710535)
(-0.00476096 -0.000576442 0.00377868)
(0.00265744 -0.00365256 0.00431614)
(-6.34369e-05 -0.000140785 0.00648377)
(-0.000135163 0.000240705 0.00640178)
(0.00453545 -0.00363975 0.00131096)
(-0.0020073 0.00332748 0.00387265)
(3.56911e-05 0.00604473 0.00371763)
(-0.00407211 -0.00175 0.0043477)
(0.00442307 -0.00200851 0.00215872)
(-0.00222818 0.00381535 0.00436535)
(0.00502124 -0.00057041 0.00370287)
(-0.00458856 0.00205404 0.00238424)
(-0.00458856 0.00205404 0.00227483)
(0.00168524 0.00466183 0.00218953)
(0.00534215 0.00117813 0.0007028)
(0.000108961 0.000890364 0.0047849)
(2.70589e-05 0.00178315 0.00497612)
(-0.00507109 0.00135288 0.000663911)
(-0.00470896 9.13558e-05 0.00148707)
(0.000490799 -0.0014482 0.00613995)
(-0.000550597 -0.00459432 0.00366882)
(0.000358981 0.00285755 0.00159787)
(-0.00460234 0.00173061 0.000663911)
(-0.000460882 0.00396917 0.00371723)
(0.00457855 -0.00164926 0.00146167)
(-9.65045e-05 -0.00479183 0.00135084)
(-0.00051168 0.000967058 0.00434035)
(-0.00106455 -0.00479951 0.000653613)
(-0.00224294 0.00394718 0.00766896)
(0.00517791 -0.00121997 0.0007142)
(-0.00173114 0.00465991 0.000706211)
(0.00195186 -0.0038208 0.00382819)
(-5.6614e-05 -0.00465782 0.00276413)
(0.00880133 -0.000224408 0.00345795)
(1.61565e-05 -0.00030076 0.00644046)
(0.00124847 0.00531735 0.00073012)
(0.00193101 0.000841986 2.01102e-05)
(0.000134509 0.0126663 0.0024882)
(-0.000722804 0.004641 0.00285562)
(0.000129923 0.00152648 0.00478603)
(0.000996772 -0.000123485 0.00341113)
(0.00484193 -0.00120104 0.00120758)
(0.00110287 0.000104588 0.00460218)
(-0.000498596 0.00463856 0.00371723)
(0.000842754 -0.000492918 0.00474874)
(-0.00051168 0.000193051 0.00622124)
(-0.00492119 -0.00118279 0.000710535)
(0.00010738 -0.000229853 0.00644046)
(0.000268548 0.00486351 0.000820966)
(0.00116342 0.00102326 0.0059649)
(-0.0054799 8.81116e-05 0.00380154)
(0.000144556 -8.53689e-05 0.00657919)
(0.00484193 -0.00120104 0.00107029)
(0.00352444 -0.00286486 0.00433884)
(0.00293701 0.00331191 0.00435186)
(0.000129923 0.0014657 0.00478603)
(0.000459455 0.00464085 0.00363487)
(0.000645405 0.00357041 0.00321427)
(0.00346657 -0.00443602 0.00072585)
(0.00437183 0.000166356 0.00304274)
(-0.000898035 -0.000892449 0.00416578)
(6.94648e-05 8.46872e-06 0.00648377)
(0.000248106 0.000815358 0.00321427)
(0.0004444 0.00088684 0.00494303)
(0.00168524 0.00466183 0.00207041)
(-0.000852999 -0.00490125 0.00278795)
(-0.00457577 0.00181836 0.000663911)
(0.00354828 0.00477301 0.00242884)
(-0.00400609 0.00221409 0.00708275)
(0.000358981 0.00285755 0.000583509)
(0.00525791 -0.00122447 0.0007142)
(0.000129923 0.000940856 0.0030305)
(-0.000970386 0.00103145 0.00579437)
(-0.0110261 0.00505382 0.000103198)
(-0.000877755 0.000967058 0.00622124)
(0.00351606 0.00356592 0.00113336)
(0.0013097 -0.00491809 0.00832009)
(-0.00453634 -0.0019123 0.00212628)
(0.000100194 2.78755e-05 0.00652243)
(0.000842754 -0.000628836 0.00621623)
(-0.00229968 -0.00372189 0.00440128)
(0.0130896 0.0041421 0.00242884)
(-0.00367133 9.13558e-05 0.000804646)
(-1.7039e-05 0.000183997 0.00640178)
(-0.00051168 0.000967058 0.00498571)
(0.000842754 -0.000492918 0.0048243)
(0.000144556 -0.000113741 0.00657919)
(-0.00505767 8.81116e-05 0.00380154)
(0.00227345 0.00368797 0.00740497)
(-0.000565843 0.000177162 0.00635904)
(0.00495452 0.000279125 0.00470326)
(-0.000980423 0.000516955 0.00469158)
(0.00505993 -0.00057259 0.00370287)
(0.000547633 -0.000868011 0.00613995)
(0.000100194 7.2132e-05 0.00573225)
(-0.00497214 0.00134731 0.000663911)
(2.70589e-05 0.00109904 0.00336156)
(-0.00020963 0.000900393 0.00371723)
(0.00010738 -0.000331004 0.00644046)
(0.00439516 -0.00227963 0.00433884)
(-1.7039e-05 0.000281058 0.00640178)
(-0.00465419 0.000661849 0.000804646)
(0.000118893 8.46872e-06 0.00648377)
(0.00575474 0.00129288 7.62457e-05)
(0.00465296 -0.00182511 0.0007142)
(-4.91733e-05 0.00558126 0.000820966)
(7.6852e-05 -0.000904583 0.00484214)
(0.00499609 0.000585984 0.00358854)
(0.00168524 0.00466183 0.00218879)
(0.00176288 -0.00478087 0.00460655)
(0.000144556 -9.8272e-05 0.00657919)
(0.00351606 0.00438715 0.000754786)
(-0.0009845 -0.000169999 0.00280117)
(0.00277225 -0.000443698 0.00204485)
(0.000125287 6.28502e-06 0.00657919)
(0.00178803 -0.00402695 0.00431614)
(0.00494665 0.000361152 0.00470326)
(0.000564702 -0.000868011 0.00613995)
(0.00346657 -0.00349535 0.00116683)
(-0.00105614 -0.00465026 0.00118312)
(0.00277715 0.000460966 0.00230333)
(-0.00261215 0.000446964 0.00152834)
(0.00380643 0.00237849 0.00434877)
(0.000430128 -0.00474127 0.000820012)
(0.00227345 0.00368797 0.00731188)
(0.0143913 5.44552e-05 0.00347242)
(0.00346657 -0.00458372 0.00072585)
(0.00168524 0.00466183 0.00218738)
(0.000505374 0.00545587 0.00363487)
(0.00121367 0.00469965 0.00134214)
(-0.000414935 0.000189312 0.00625851)
(0.00241242 8.82852e-05 0.00371091)
(-4.91733e-05 0.00602957 0.000820966)
(0.00169818 0.00455294 0.00073012)
(0.0018974 -0.00446894 0.00229282)
(-0.000119095 -0.000341083 0.00646052)
(2.70589e-05 0.00109904 0.00353316)
(-0.00120515 0.00481919 0.00131271)
(0.00010738 -0.00030076 0.00560174)
(-0.00396256 0.00166477 0.00380203)
(-1.7039e-05 0.000240705 0.00559946)
(1.07303e-05 -0.00030076 0.00644046)
(-0.000119095 -0.000194377 0.00646052)
(0.0045449 0.000560564 0.00358854)
(-0.00406647 -0.00176863 0.0043477)
(0.000279195 0.000890364 0.00620079)
(0.00230925 -0.00218456 0.00383316)
(-0.00233019 -0.00421633 0.00440128)
(0.000126907 1.72807e-05 0.00697463)
(-0.000980423 0.000599038 0.00612958)
(0.000213718 -0.00030076 0.00644046)
(0.000580851 0.00088684 0.00611165)
(-0.00442935 -0.00115508 0.0011028)
(0.00172917 -0.00404477 0.00431614)
(0.0018974 -0.00446894 0.00209954)
(0.00219154 0.00454495 0.003853)
(0.000132037 1.72807e-05 0.00697463)
(0.000842754 -0.000492918 0.0047019)
(0.000445629 0.00439545 0.00363487)
(0.0022364 -0.00389118 0.00697675)
(0.000490799 -0.00024957 0.00613995)
(-0.00374045 -0.00221738 0.0043477)
(5.09885e-05 -0.00030076 0.00644046)
(0.000117453 -0.0127081 0.00401623)
(-0.00408424 -0.00170996 0.0043477)
(0.00104399 -0.000107608 0.00469037)
(-0.00218139 0.00431879 0.0023678)
(-9.65045e-05 -0.00479183 0.00138618)
(0.00041045 -0.000868011 0.00613995)
(-0.00163102 0.00469023 0.000706211)
(0.00346657 -0.00349535 0.00101159)
(0.00446752 0.00356592 0.000754786)
(-0.00540869 9.13558e-05 0.000804646)
(-0.00062166 -0.00137752 0.00150299)
(0.000490799 -0.00147911 0.00613995)
(0.00987895 8.82852e-05 0.00245117)
(4.44766e-05 1.72807e-05 0.00646328)
(0.00346657 -0.00432869 0.00072585)
(0.000959023 0.000527978 0.0048827)
(-0.00175929 8.81116e-05 0.00380154)
(0.00507814 -0.00121434 0.0007142)
(-0.00347244 0.0034139 0.0079971)
(-0.000290964 0.000177162 0.00523503)
(-0.00224294 0.00394718 0.00742595)
(-0.00344176 -0.00628944 0.000661858)
(0.000842754 -0.000613377 0.00621623)
(-0.00567859 9.13558e-05 0.000804646)
(-0.00429137 -0.0019123 0.00115003)
(0.00152906 -0.000492918 0.00621623)
(0.00469744 0.00176625 0.00240182)
(-0.00410617 0.00188355 0.00427113)
(0.000144556 -0.00010827 0.00657919)
(-0.00458856 0.00205404 0.0021838)
(-6.34369e-05 8.74569e-05 0.00648377)
(0.000144556 0.000110967 0.00657919)
(-0.0042711 -0.000548843 0.00377868)
(6.66209e-05 -0.00480975 0.00379563)
(4.44766e-05 0.000114539 0.00697463)
(0.00420266 0.00179739 0.00434877)
(0.00234313 0.00236778 0.003853)
(0.000134725 -0.00118481 0.00500459)
(0.000144556 9.7576e-05 0.00657919)
(-0.000296035 -0.00308134 0.00379563)
(0.00346657 -0.00401672 0.00072585)
(0.0026934 0.000737544 0.00358854)
(3.80188e-05 0.000429072 1.82793e-05)
(-0.000225975 -0.000269733 0.00646052)
(0.000225335 0.00150647 0.00363487)
(0.000457502 0.00484537 0.000820966)
(-0.0038059 -0.0022247 0.0043477)
(-0.000566666 0.00137163 0.00143547)
(-9.65045e-05 -0.00566304 0.000820012)
(0.00401948 0.00240234 0.00750588)
(0.00484193 -0.00120104 0.00141641)
(0.00121367 0.00469965 0.00110937)
(0.000144556 -0.000113022 0.00657919)
(0.000959023 0.000527978 0.00436933)
(4.44766e-05 1.72807e-05 0.00613217)
(0.000418147 -0.00474242 0.000820012)
(0.000996772 -0.000123485 0.00336961)
(-0.00381601 0.00254949 0.00427113)
(-0.00123432 -0.00459631 0.000653613)
(0.00267886 -0.000752085 0.00370287)
(0.00499394 -0.000568872 0.00370287)
(-4.91733e-05 0.00489401 0.00145764)
(-0.000852999 -0.00490125 0.00267687)
(-0.000978843 -0.000315053 0.0062652)
(-0.00392911 -0.00105276 1.1438e-06)
(0.00453496 0.00356592 0.000754786)
(0.00488983 -0.000702148 0.0007142)
(-0.00442935 -0.00115508 0.00112276)
(0.00437183 0.000166356 0.00304305)
(-0.00501467 0.00205404 0.00120112)
(-0.00392436 -0.00223796 0.00602855)
(0.000100194 0.000119102 0.00652243)
(-0.00442935 -0.00115508 0.00135821)
(0.00219713 -0.0035404 0.00431614)
(-0.00541767 8.81116e-05 0.00380154)
(0.0004444 0.00122226 0.00611165)
(-0.00207163 -0.0021669 0.00110954)
(-0.00233987 -0.00430278 0.00440128)
(0.0021948 -0.00351958 0.00431614)
(-0.00507754 0.00135324 0.000663911)
(0.000842754 -0.000492918 0.00488655)
(0.000418152 -0.00474242 0.000820012)
(-0.0046755 -0.000741396 0.00258712)
(0.00286203 0.00335441 0.00435186)
(-0.0020073 0.00361372 0.00387265)
(0.00523675 -0.00122328 0.0007142)
(0.00396759 -0.00191147 0.00433884)
(3.56911e-05 0.00590406 0.00371763)
(0.00470195 0.00356592 0.000754786)
(4.44766e-05 -4.28199e-05 0.00697463)
(0.000959023 0.000863303 0.00611309)
(0.0038561 -0.00227963 0.00806432)
(0.000117401 -0.0127081 0.00245984)
(-0.00284505 0.00360594 0.00436535)
(0.00269299 -0.00363241 0.00431614)
(0.00484193 -0.00120104 0.00142614)
(-0.00224294 0.00394718 0.0077136)
(0.000359652 0.00088684 0.00611165)
(-0.00116717 -0.00461664 0.000653613)
(-0.00464902 0.000715713 0.000804646)
(-4.91733e-05 0.0060713 0.000820966)
(-0.000178682 0.00105858 0.00345465)
(0.00421478 0.00175737 0.00434877)
(-0.000504742 0.00474764 0.00371723)
(0.00425491 -0.00135565 2.36937e-06)
(0.0045698 0.00175443 0.0007028)
(0.000882875 0.000934673 0.0059649)
(3.50025e-05 -0.00030076 0.00644046)
(6.66209e-05 -0.0042206 0.00379563)
(-6.34369e-05 0.00018119 0.00648377)
(-6.34369e-05 -0.00012899 0.00648377)
(-0.000640551 -0.00154727 0.00629238)
(-0.00161754 0.00469431 0.000706211)
(6.66209e-05 -0.00519282 0.00379563)
(-0.00456348 0.00185895 0.000663911)
(-0.000493864 0.00455456 0.00371723)
(0.000417966 -0.00274318 0.00341287)
(0.00439369 -0.00349535 0.00072585)
(-0.00458856 0.00205404 0.00231381)
(9.32382e-05 7.2132e-05 0.00652243)
(-0.00229968 -0.00394374 0.0059987)
(-0.00469002 0.000564035 0.00357809)
(4.44766e-05 -6.38924e-05 0.00697463)
(-0.00122106 -0.000312676 0.00377868)
(0.00550867 1.07957e-05 0.00470326)
(0.000842754 -0.000492918 0.00495053)
(-4.91733e-05 0.00489401 0.00163582)
(-0.00012335 -0.00140758 0.00404297)
(0.00010738 -0.000250738 0.00644046)
(0.00422085 0.00173733 0.00434877)
(-0.0020073 0.00332409 0.00387265)
(-0.00247353 0.0038165 0.00436535)
(-0.00448628 -0.000562005 0.000710535)
(0.00498028 1.07957e-05 0.00940056)
(0.00451977 0.00205813 0.00375018)
(0.000210519 6.28502e-06 0.00657919)
(-0.00109507 -0.00015106 0.00351834)
(-0.000119095 -0.000269733 0.00555453)
(0.000358981 0.00285755 0.000525452)
(0.000578672 -0.0051525 0.00341287)
(-0.0009845 -0.000169999 0.00265564)
(0.00301001 -0.000121111 0.00379204)
(-0.00472266 0.00133325 0.00121353)
(0.000262559 -0.00309734 0.00379563)
(-0.003674 0.00108731 2.07936e-05)
(4.44766e-05 -0.000109775 0.00697463)
(0.00415556 -0.000521636 0.00370287)
(0.0012462 0.00527717 0.00073012)
(-0.00120515 0.00481919 0.00129638)
(0.000108961 0.000890364 0.00479325)
(-0.00455501 0.00188693 0.000663911)
(-0.000290964 0.000165456 0.00635904)
(-0.00338529 0.00214459 0.00427113)
(0.00475433 0.00114501 0.00112881)
(0.00228439 0.00244544 0.00375018)
(0.00225744 0.00249298 0.00375018)
(-0.00051168 0.00165117 0.00622124)
(0.000472694 0.00487582 0.00363487)
(-4.91733e-05 0.00489401 0.00163187)
(-0.00120515 0.00481919 0.00140669)
(1.50032e-05 -3.61273e-05 0.00660365)
(0.00194852 -0.00397835 0.00431614)
(-0.00051168 0.000967058 0.00473361)
(0.000835433 -0.00118187 0.00580831)
(0.000610776 -0.00268993 0.00341287)
(-0.00442935 -0.00115508 0.00135034)
(0.000842754 -0.00059318 0.00621623)
(-0.0038527 -0.00222994 0.0043477)
(0.0004444 0.00088684 0.00461249)
(-0.00453634 -0.00255942 0.00115003)
(-4.00461e-05 -3.61273e-05 0.00660365)
(-0.000640551 -0.000453137 0.00629238)
(-0.00461169 0.00169972 0.000663911)
(0.000105986 7.2132e-05 0.00652243)
(-0.00442935 -0.00115508 0.00117315)
(-0.000543762 -0.00447301 0.00366882)
(0.00382008 0.00275418 0.00434877)
(0.00442426 -0.00349535 0.00072585)
(-0.00442935 -0.00115508 0.00121685)
(-0.000136548 -0.00161076 0.00476932)
(6.66209e-05 -0.00550561 0.00379563)
(-6.34369e-05 -0.000151244 0.00648377)
(-0.00101869 0.000497731 0.00625851)
(0.00126181 0.00555417 0.00073012)
(-0.00202767 -0.00431834 0.00221188)
(0.00107265 3.55618e-05 0.00379204)
(0.000473878 0.00489685 0.00363487)
(-0.000178682 0.00169293 0.00496952)
(-0.00207163 -0.00276083 0.0037737)
(0.0018974 -0.00446894 0.00229393)
(-0.00411877 0.00184196 0.00427113)
(0.00482368 -0.000559279 0.00370287)
(-0.00287263 0.00359032 0.00436535)
(-0.00491969 -0.0011827 0.000710535)
(-0.00276265 0.0034139 0.00458329)
(0.0038561 -0.00227963 0.00783037)
(0.00227345 0.00368797 0.007208)
(-0.00466129 0.000587949 0.000804646)
(-0.00373536 -0.00221681 0.0043477)
(0.0004444 0.0013641 0.00611165)
(-0.000766204 0.000144157 0.00296175)
(0.000304001 -0.00309336 0.00379563)
(0.00510199 0.000591951 0.00358854)
(-0.00472266 0.00133325 0.00108701)
(-0.00232412 -0.00416211 0.00440128)
(0.00442307 -0.00234163 0.00116744)
(-0.00202767 -0.00431834 0.00220652)
(-0.000722804 0.004641 0.00280568)
(-0.00222334 0.00377207 0.00436535)
(0.00125157 0.00537248 0.00073012)
(0.000108961 0.000890364 0.00488261)
(-0.000747123 -0.00472937 0.000820012)
(0.00134048 -0.00546433 0.00460655)
(0.000835433 -0.000918637 0.00387814)
(0.000842754 -0.000628545 0.00621623)
(-3.66283e-05 -3.61273e-05 0.00660365)
(-0.000978843 -0.000906521 0.0062652)
(-0.00460133 0.00173396 0.000663911)
(-0.00217326 -0.0020168 0.00124269)
(0.0004444 0.000186553 0.00611165)
(-1.7039e-05 0.000189504 0.00640178)
(-0.00459757 -0.000567237 0.00377868)
(0.00277225 -0.000443698 0.000160719)
(0.000996772 -0.000123485 0.0029892)
(0.00186457 0.000527978 0.00611309)
(-0.000554924 -0.00467112 0.00366882)
(-9.65045e-05 -0.00537704 0.000820012)
(0.00549901 1.07957e-05 0.00470326)
(-6.34369e-05 8.46872e-06 0.00573812)
(-0.00120515 0.00481919 0.00128751)
(-0.00119329 -0.00460873 0.000653613)
(6.66209e-05 -0.0046267 0.00379563)
(0.00498028 1.07957e-05 0.00794812)
(9.11991e-05 0.000240705 0.00640178)
(0.000842754 -0.000381155 0.00621623)
(-0.00588227 -0.00128206 0.0015948)
(0.00273279 0.000607478 0.00358854)
(7.6852e-05 -3.04104e-05 0.00635466)
(-6.34369e-05 -0.000107744 0.00648377)
(-0.00224294 0.00428486 0.00436535)
(0.000144556 0.0001259 0.00657919)
(-1.7039e-05 0.000277042 0.00640178)
(0.00104399 -0.000107608 0.00452051)
(6.66209e-05 -0.0053282 0.00379563)
(-0.0020073 0.00301623 0.00387265)
(0.000292489 -0.000107608 0.00617122)
(-0.000240873 8.46872e-06 0.00648377)
(-0.00106429 -0.00479494 0.000653613)
(-0.00470896 9.13558e-05 0.00149209)
(-0.000523584 0.00508207 0.00371723)
(0.00277715 0.000460966 0.00262212)
(-0.0030601 -2.0414e-05 0.00380154)
(0.00398343 -0.00185914 0.00433884)
(-0.00101869 0.000189312 0.00492483)
(-0.000136548 -0.000953739 0.00322884)
(0.00125786 0.00548407 0.00073012)
(-0.00342575 0.00214912 0.00427113)
(0.00288172 0.00334325 0.00435186)
(0.000100194 1.61475e-05 0.00652243)
(0.00185448 0.000527978 0.00611309)
(-1.7039e-05 0.000240705 0.00566524)
(0.000144556 6.28502e-06 0.00595196)
(0.00077411 -0.0044446 0.00285302)
(0.0013097 -0.00491809 0.00911243)
(-0.00222931 0.00382545 0.00436535)
(-0.00051168 0.00166044 0.00622124)
(0.00625465 0.005076 0.00242884)
(-0.000640551 -0.00101002 0.00504411)
(-0.000555143 -0.00467501 0.00366882)
(0.00443477 0.00356592 0.000754786)
(0.000342374 0.00088684 0.00611165)
(0.00077411 -0.0044446 0.00286514)
(-0.000852999 -0.00490125 0.00277575)
(-9.65045e-05 -0.00544233 0.000820012)
(0.00381179 0.00237909 0.00434877)
(0.00184672 0.00450796 0.00073012)
(-0.000510421 0.00484843 0.00371723)
(0.000882875 0.00102326 0.00434554)
(-0.00442935 -0.00115508 0.00114054)
(-0.0046241 0.00165874 0.000663911)
(-0.000119095 -0.000269733 0.00515465)
(0.00104399 -0.000107608 0.00426988)
(-0.00273183 -0.000462118 0.00178899)
(-0.0014703 -0.00419488 0.00440128)
(0.00162058 -0.000492918 0.00621623)
(0.00517206 0.00116854 0.0007028)
(-0.00550967 9.13558e-05 0.000804646)
(0.00346657 -0.00418728 0.00072585)
(0.00351606 0.00422941 0.000754786)
(-0.0032993 -0.0020168 0.00390758)
(0.00250389 0.00205813 0.000431495)
(-0.00466603 -0.000355848 0.000804646)
(0.00118042 -0.000918637 0.00580831)
(-9.65045e-05 -0.00574423 0.000820012)
(-0.00400609 0.00221409 0.00643013)
(-0.00458856 0.00205404 0.00234855)
(-0.00470896 9.13558e-05 0.00129456)
(-0.00502232 0.000582757 0.00357809)
(-0.000456338 -0.00101002 0.00629238)
(3.56911e-05 0.00572691 0.00371763)
(-0.00422378 -0.000546177 0.00377868)
(-6.54016e-05 0.000890364 0.00620079)
(0.00383512 -0.0046085 4.96242e-05)
(-0.00554101 9.13558e-05 0.000804646)
(-0.00169505 0.00411309 0.00436535)
(0.00278851 -0.000274292 0.00370287)
(-0.000119095 -0.000343474 0.00646052)
(-0.000289841 -0.00256765 0.00366882)
(-0.00012335 -0.0022587 0.00404297)
(7.37344e-06 -0.00118481 0.00311507)
(0.000100194 1.17548e-05 0.00652243)
(0.00456999 0.00175379 0.0007028)
(0.00401948 0.00240234 0.00849196)
(0.00375168 0.00287488 0.00434877)
(-0.00344685 -0.0020168 0.00390758)
(-0.000978843 -0.000572012 0.00502165)
(-0.000878085 -1.22329e-05 0.00160786)
(0.00168752 0.0038654 0.00435186)
(0.000144556 6.28502e-06 0.00601958)
(-5.37038e-06 1.72807e-05 0.00697463)
(7.37344e-06 -0.00191537 0.00500459)
(-0.000178682 0.00154382 0.00496952)
(-0.00248367 -0.00193339 0.0037737)
(0.000108961 0.000890364 0.00493087)
(0.000643918 0.00355712 0.00321427)
(-0.00496431 0.00134686 0.000663911)
(-0.00470896 9.13558e-05 0.00143362)
(-0.000290964 0.000187551 0.00635904)
(3.56911e-05 0.00315504 0.00204502)
(-0.00365189 0.00217444 0.00427113)
(0.000490799 -0.000868011 0.0044764)
(0.00290033 -0.00351491 0.00431614)
(-0.00461739 -0.000568353 0.00377868)
(0.00213524 0.00356592 0.000754786)
(-0.00247047 -0.00194086 0.0037737)
(-0.00305721 -5.05182e-05 0.00380154)
(-0.00457399 0.00182423 0.000663911)
(0.000108577 1.72807e-05 0.00697463)
(0.00430464 -0.00200477 0.00383316)
(0.00168524 0.00466183 0.00218774)
(0.00240606 0.00107191 0.000716712)
(-0.0020073 0.00382687 0.00387265)
(4.44766e-05 1.72807e-05 0.0060554)
(0.0004444 0.00088684 0.00446268)
(0.00164023 0.000527978 0.00611309)
(-0.000673692 -0.00248157 0.00366882)
(0.000253018 0.000839988 0.00321427)
(0.00480159 0.000652805 0.0007028)
(-0.000214165 -0.000269733 0.00646052)
(-0.0031519 -0.00345355 0.00124013)
(0.00121367 0.00469965 0.00141563)
(0.00351606 0.00440986 0.000754786)
(4.44766e-05 -8.21509e-05 0.00697463)
(0.00219154 0.00413819 0.003853)
(-0.000970386 0.000762429 0.00414221)
(0.00426182 -0.0139699 0.00252076)
(0.00489784 -0.000618719 0.0007142)
(0.00457855 -0.000974656 0.00283102)
(-0.00442935 -0.00115508 0.00116707)
(0.00491315 4.12898e-07 0.000262781)
(-0.00561033 9.13558e-05 0.000804646)
(-0.000170343 8.46872e-06 0.00648377)
(-0.00482748 -0.00117751 0.000710535)
(-0.0010647 -0.00480222 0.000653613)
(6.66209e-05 -0.00443872 0.00379563)
(-0.00229968 -0.00394374 0.00643787)
(-0.00260692 -0.000874634 0.00377868)
(-0.00465018 -0.000520912 0.000804646)
(-0.00476604 0.000881426 0.000663911)
(0.000491704 0.00521325 0.00363487)
(4.44766e-05 1.72807e-05 0.00603095)
(-0.000953239 0.000762429 0.00579437)
(-1.71604e-05 1.72807e-05 0.00697463)
(0.00547972 1.07957e-05 0.00470326)
(-0.00550442 8.81116e-05 0.00380154)
(0.00527889 -0.00122565 0.0007142)
(-0.00120515 0.00481919 0.00130916)
(-0.012497 0.00858881 0.00278153)
(-0.000290964 0.000183394 0.00635904)
(0.000959023 0.000527978 0.0042924)
(0.00104399 -0.000107608 0.00473964)
(-0.000666698 0.000177162 0.00635904)
(-0.00101869 0.000189312 0.00491031)
(0.000235927 -0.0037164 0.000753552)
(0.00549682 1.07957e-05 0.00470326)
(0.000996772 -0.000223968 0.00492981)
(-0.00419322 0.00166477 0.00380203)
(0.00124585 0.00527081 0.00073012)
(0.00437355 -0.000533918 0.00370287)
(-0.000978843 -0.000572012 0.00497122)
(-0.00087257 -0.00466788 0.000653613)
(0.00168524 0.00466183 0.00218994)
(7.37344e-06 -0.00118481 0.00312522)
(-0.00442935 -0.00115508 0.00128894)
(-0.000970386 0.00109906 0.00579437)
(0.0050548 -0.00365377 0.00252076)
(-6.34369e-05 0.000177258 0.00648377)
(0.0018974 -0.00446894 0.0022935)
(0.00475433 0.00114501 0.00121188)
(-0.00118088 -0.00461249 0.000653613)
(0.0143913 5.44552e-05 0.0032862)
(-0.00153392 -0.000572012 0.0062652)
(-0.00086891 -0.000892449 0.00588079)
(-0.0020073 0.00357383 0.00387265)
(0.00346657 -0.00397436 0.00072585)
(0.0022364 -0.00389118 0.00608997)
(0.00213724 -0.00231185 0.00382819)
(0.00227345 0.00393351 0.00435186)
(-0.00379875 -0.0022239 0.0043477)
(-0.00255609 -0.00431834 0.00110734)
(-0.00208866 0.00214329 0.00387265)
(-0.00472266 0.00133325 0.00119444)
(-0.00480795 -0.00117641 0.000710535)
(-0.00470896 9.13558e-05 0.00142695)
(0.000143932 -0.00251354 0.00477835)
(-4.91733e-05 0.00585299 0.000820966)
(0.000182408 -0.000107608 0.00617122)
(-0.00101869 0.000491733 0.00625851)
(-5.19401e-05 0.000890364 0.00620079)
(-0.000640551 -0.00101002 0.00485174)
(-0.00466883 0.000509344 0.000804646)
(0.00179767 0.000527978 0.00611309)
(0.00437183 0.000166356 0.00304636)
(0.00484193 -0.00120104 0.001152)
(0.0052739 0.000601636 0.00358854)
(-0.000344498 0.00187875 0.00239314)
(0.00498028 1.07957e-05 0.00716608)
(0.000131117 1.72807e-05 0.00697463)
(3.56911e-05 0.0050724 0.00371763)
(-0.000920708 -1.55462e-05 0.000942991)
(-7.40353e-06 -3.61273e-05 0.00591971)
(-0.000560802 -0.00477545 0.00366882)
(0.000128854 1.72807e-05 0.00697463)
(-0.00012335 -0.0127341 0.00222391)
(0.00536567 0.00117945 0.0007028)
(0.00205503 -0.00235844 0.00382819)
(-0.00429716 -0.00159162 0.000710535)
(-0.00400609 0.00221409 0.00580546)
(-0.000825271 0.000516955 0.00612958)
(-0.00501949 0.00134997 0.000663911)
(-0.00367493 -0.00345355 0.000653502)
(-0.000978843 -0.000572012 0.00538525)
(-0.00419868 -0.00223796 0.0043477)
(0.00512571 -0.00121702 0.0007142)
(-0.00229968 -0.00394374 0.00740049)
(0.00278355 0.000394323 0.00358854)
(-0.00716073 0.0195404 0.00250965)
(0.00271604 -0.000629323 0.00370287)
(0.00162198 -0.00482353 0.00460655)
(-9.65045e-05 -0.00560647 0.000820012)
(-0.000607745 -0.00474275 0.000820012)
(7.6852e-05 -4.96249e-05 0.00635466)
(3.56911e-05 0.00569533 0.00371763)
(-0.000274546 -0.000269733 0.00646052)
(-0.0090402 -0.00015106 0.00232153)
(-0.000391666 0.00274068 0.000818896)
(-0.00312993 -0.00347321 0.00440128)
(0.00427904 -0.00349535 0.00072585)
(0.00475433 0.00114501 0.00120607)
(7.6852e-05 6.87184e-05 0.00635466)
(2.70589e-05 0.00174509 0.00497612)
(-0.000991949 0.000762429 0.00579437)
(-9.65045e-05 -0.00479183 0.00134723)
(-0.0031519 -0.00383813 0.000653502)
(-0.00487177 -0.00118 0.000710535)
(-0.000435623 -0.00255366 0.00250888)
(0.00498028 1.07957e-05 0.00794)
(-0.000136548 -0.000953739 0.00296466)
(0.00132991 -0.00527681 0.00460655)
(-0.0038287 0.0025271 0.00427113)
(-0.00275196 -0.000252516 0.00377868)
(-0.00224294 0.00394718 0.00827913)
(0.00022176 0.000890364 0.00620079)
(0.00121367 0.00469965 0.00124452)
(-0.00492849 0.00134485 0.000663911)
(-0.0090402 -0.00015106 0.00232135)
(-0.00472278 0.00221409 0.00427113)
(-9.65045e-05 -0.00580007 0.000820012)
(-0.00487448 -0.00118016 0.000710535)
(3.56911e-05 0.00315504 0.00218201)
(0.000223578 0.0042906 0.00275301)
(-0.000898035 -0.000892449 0.00426977)
(5.14282e-05 0.000177162 0.00635904)
(0.000104869 7.2132e-05 0.00652243)
(-0.00156218 -0.000572012 0.0062652)
(-0.00487424 0.000574414 0.00357809)
(0.00444702 0.00205813 0.00375018)
(-0.00118584 -0.00428102 0.00440128)
(0.00987895 8.82852e-05 0.00259061)
(7.26022e-07 0.000585805 3.03952e-05)
(-0.00447993 -0.000628121 0.000710535)
(0.00114692 0.00102326 0.0059649)
(3.56911e-05 0.00530563 0.00371763)
(-0.00400609 0.00221409 0.00593817)
(-0.00274317 0.00366368 0.00436535)
(0.000130074 8.46872e-06 0.00648377)
(-0.00382205 -0.00222651 0.0043477)
(0.00230662 0.00240621 0.00375018)
(0.00522304 -0.00515653 0.00252076)
(0.00484193 -0.00120104 0.00142264)
(0.000835433 -0.000918637 0.00395582)
(-0.000867077 -0.000892449 0.00588079)
(-0.000369673 0.00486324 0.000820966)
(-0.0030847 -0.00349885 0.00440128)
(-0.00120515 0.0044973 0.000706211)
(0.000478344 0.00497612 0.00363487)
(-0.0036191 -0.00345355 0.000653502)
(0.0035738 0.00318876 0.00434877)
(-0.00548431 9.13558e-05 0.000804646)
(0.00484193 -0.00120104 0.00140392)
(-0.000970386 0.000762429 0.00401596)
(0.000410589 -0.00274389 0.00341287)
(-0.00207163 -0.00323599 0.0037737)
(-0.00122039 0.0050897 0.000706211)
(0.00227345 0.00384218 0.00435186)
(9.27923e-06 -0.000492918 0.00621623)
(0.000420794 -0.000904583 0.00635466)
(0.000100194 0.000113605 0.00652243)
(2.70589e-05 0.00109904 0.00357377)
(-0.0031519 -0.00345355 0.00100279)
(0.00498028 1.07957e-05 0.00765896)
(0.00182392 -0.00476238 0.00460655)
(0.000587244 -0.00530463 0.00341287)
(-0.00164346 2.37468e-05 0.00498804)
(0.000108961 0.000890364 0.00458188)
(0.000450117 0.00128487 7.62457e-05)
(-0.00035778 -0.000572012 0.0062652)
(0.000835433 -0.000918637 0.00392723)
(-0.000978843 -0.000572012 0.00488693)
(0.00165111 -0.000492918 0.00621623)
(6.66209e-05 -0.00494987 0.00379563)
(0.00453545 -0.00039734 0.00138183)
(0.00121367 0.00469965 0.0014556)
(0.00493401 -0.000471217 0.00470326)
(0.00451113 0.00240234 0.00434877)
(0.00498028 1.07957e-05 0.00858015)
(0.00484193 -0.00120104 0.00112098)
(-0.00470896 9.13558e-05 0.00144189)
(-0.00229968 -0.00375183 0.00440128)
(-0.00110853 0.00013459 0.00498804)
(7.82688e-05 0.000240705 0.00640178)
(-0.000980423 0.000581307 0.00612958)
(0.0013097 -0.00491809 0.00730368)
(-0.000638155 0.00487362 0.000706211)
(0.00010738 -0.00024085 0.00644046)
(-0.00440236 8.81116e-05 0.00380154)
(0.00120416 -0.000918637 0.00580831)
(0.00351606 0.00401793 0.000754786)
(8.34795e-05 6.28502e-06 0.00657919)
(0.00475433 0.00114501 0.00140363)
(-0.00110853 2.37468e-05 0.00305935)
(-0.00222775 0.00381152 0.00436535)
(0.00110287 0.000129486 0.00460218)
(0.00398814 -0.00184359 0.00433884)
(-0.000196492 0.000967058 0.00622124)
(0.0004444 0.00088684 0.00494836)
(0.000117401 -0.0127081 0.00230049)
(-0.00218139 0.00431879 0.00236959)
(7.6852e-05 -0.000904583 0.00493391)
(-0.00678853 0.000294358 0.00138169)
(-0.000978843 -0.000572012 0.00496403)
(0.00440436 0.000878028 0.0027892)
(-4.00029e-05 -3.61273e-05 0.00660365)
(-0.00347244 0.00385215 0.00458329)
(-0.00568119 9.13558e-05 0.000804646)
(-0.000677736 0.000255616 0.00357809)
(-6.34369e-05 0.000159036 0.00648377)
(-0.00465981 0.00060337 0.000804646)
(-0.00475756 0.00096973 0.000663911)
(-0.000640551 -0.000519138 0.00629238)
(-6.34369e-05 8.46872e-06 0.00521788)
(-0.0046536 0.000668029 0.000804646)
(0.00465764 0.000566915 0.00358854)
(0.00401948 0.00240234 0.00696689)
(-6.12062e-05 0.000177162 0.00635904)
(0.00219154 0.00245369 0.00207852)
(0.000511254 0.00484021 0.000820966)
(-0.0012222 0.00512185 0.000706211)
(0.000108961 0.000247222 0.00620079)
(0.00104399 -0.000107608 0.00489708)
(-0.00461651 0.00168381 0.000663911)
(0.00222124 -0.00375577 0.00431614)
(-0.00409755 0.00191203 0.00427113)
(-3.57229e-05 -3.61273e-05 0.00660365)
(-0.00506434 8.81116e-05 0.00380154)
(-0.00160354 2.37468e-05 0.00498804)
(-0.00063304 -0.00249388 0.00366882)
(0.00357102 -0.00224771 0.00433884)
(4.44766e-05 0.000131065 0.00697463)
(0.000108961 0.000150686 0.00620079)
(-0.000898035 -0.000873093 0.00588079)
(0.000842754 -0.000390462 0.00621623)
(2.70589e-05 0.00168051 0.00497612)
(0.00010738 -0.000251968 0.00644046)
(0.00237388 0.00228753 0.00375018)
(0.000658944 0.00475291 0.00073012)
(-4.91733e-05 0.00562014 0.000820966)
(-0.000845989 -0.00101002 0.00629238)
(0.000882875 0.00102326 0.00459681)
(0.0022974 -0.00220546 0.00383316)
(0.00550937 1.07957e-05 0.00470326)
(0.00168524 0.00466183 0.00218928)
(0.00346657 -0.00455174 0.00072585)
(-0.000374307 -0.000904583 0.00635466)
(-0.00196874 0.00588934 1.78881e-05)
(-0.000560275 -0.0047661 0.00366882)
(0.00458419 0.000562777 0.00358854)
(0.00483452 0.00356592 0.000754786)
(-9.65045e-05 -0.00550972 0.000820012)