/*--------------------------------*- C++ -*----------------------------------*\
| =========                 |                                                 |
| \\      /  F ield         | OpenFOAM: The Open Source CFD Toolbox           |
|  \\    /   O peration     | Version:  plus.master.MPPICInterFoam            |
|   \\  /    A nd           | Web:      www.OpenFOAM.com                      |
|    \\/     M anipulation  |                                                 |
\*---------------------------------------------------------------------------*/
FoamFile
{
    version     2.0;
    format      ascii;
    class       surfaceScalarField;
    location    "0.2";
    object      alphaPhi;
}
// * * * * * * * * * * * * * * * * * * * * * * * * * * * * * * * * * * * * * //

dimensions      [0 3 -1 0 0 0 0];

internalField   nonuniform List<scalar> 
34018
(
-5.81701e-10
9.76154e-09
-6.84776e-10
-9.36346e-10
-6.83985e-10
9.79084e-09
-7.28483e-10
9.32441e-09
-9.20147e-10
-7.27086e-10
9.74507e-09
-4.40376e-10
-8.66803e-10
9.31883e-09
-6.73006e-10
8.72572e-09
-9.11303e-10
-8.10611e-10
-3.51946e-10
-8.33573e-11
8.67128e-09
4.05138e-10
5.87937e-11
-2.56477e-10
-4.78548e-10
9.3334e-09
4.35579e-10
-1.07326e-10
-1.15319e-10
9.80775e-09
-2.29116e-11
1.60435e-10
2.72484e-10
9.94181e-09
-5.41401e-10
5.34297e-10
2.33548e-10
9.73305e-09
-5.92187e-10
9.71485e-10
-4.00413e-11
9.23924e-09
-3.69197e-10
-8.46218e-11
8.63785e-09
1.23661e-09
-1.81524e-10
-7.15713e-10
-5.9265e-11
9.34371e-09
7.42782e-10
-6.26279e-10
-4.72509e-10
9.80957e-09
-3.34124e-10
-3.22425e-10
1.01204e-08
1.82641e-10
-1.54497e-10
1.01914e-08
7.97389e-10
-2.76811e-10
1.00346e-08
1.37783e-09
-5.11068e-10
9.68066e-09
-4.21003e-10
9.23934e-09
1.7866e-09
-2.35236e-10
5.37369e-11
9.82995e-09
1.28049e-10
-4.04426e-10
-2.18585e-10
1.01296e-08
-3.48706e-10
-2.78324e-10
1.03181e-08
-3.96896e-11
-3.51272e-10
1.03534e-08
3.47591e-10
-5.43577e-10
1.02491e-08
6.68746e-10
-7.19096e-10
1.00159e-08
-5.96907e-10
9.71302e-09
9.0973e-10
1.99986e-10
2.96563e-10
9.96982e-09
-4.45343e-10
-2.07423e-10
2.80317e-10
1.02043e-08
-4.02245e-10
3.00651e-11
1.03566e-08
-3.43336e-10
-2.85111e-10
1.0393e-08
-2.19218e-10
-5.41876e-10
1.03213e-08
-1.5637e-10
-6.75398e-10
1.01427e-08
-6.32851e-10
9.89342e-09
-6.89199e-11
1.3582e-10
6.39356e-10
9.75745e-09
-4.55691e-10
-3.38278e-10
8.65967e-10
1.00441e-08
-5.87156e-10
4.05242e-10
1.02489e-08
-5.79528e-10
-1.61951e-10
1.03183e-08
-5.10836e-10
-4.87127e-10
1.02537e-08
-5.1048e-10
-5.77441e-10
1.00543e-08
-6.18638e-10
9.76314e-09
-4.88931e-10
-1.60984e-10
1.0409e-09
9.25362e-09
-1.96239e-10
-5.71782e-10
1.39794e-09
9.68147e-09
-7.36795e-10
6.9415e-10
1.00072e-08
-6.60334e-10
-1.23882e-10
1.01317e-08
-5.17451e-10
-5.22582e-10
1.00478e-08
-4.44546e-10
-5.84347e-10
9.76056e-09
-6.49351e-10
9.35388e-09
-4.08258e-10
-1.70219e-10
8.64149e-09
-5.76954e-11
1.28679e-09
-4.41013e-10
9.23032e-09
1.74863e-09
-5.59139e-10
9.6928e-09
8.94305e-10
-5.38034e-10
9.87603e-09
-7.35693e-11
-4.60673e-10
9.74854e-09
-5.70177e-10
-3.86305e-10
9.34763e-09
-6.53322e-10
8.80801e-09
-3.55633e-10
-7.24562e-10
-1.31186e-09
-1.28488e-09
8.69461e-09
1.28812e-09
1.29055e-09
-1.18069e-09
-1.39528e-09
9.27662e-09
1.35674e-09
-8.8112e-10
-7.20259e-10
9.73502e-09
5.19938e-10
-3.99098e-10
2.47481e-11
9.89516e-09
-4.34744e-10
1.8308e-10
3.11502e-10
9.73042e-09
-8.65206e-10
7.6138e-10
1.97059e-10
9.2957e-09
-8.06081e-10
5.81513e-11
8.77512e-09
1.07591e-09
-4.84109e-10
-1.4468e-09
-1.13618e-09
9.28394e-09
1.39382e-09
-1.35507e-09
-1.30144e-09
9.67038e-09
-9.98299e-10
-8.89604e-10
9.96906e-09
-3.75587e-10
-4.36554e-10
1.00672e-08
3.57787e-10
-3.00874e-10
9.95091e-09
1.02978e-09
-4.06545e-10
9.64931e-09
-3.83477e-10
9.28086e-09
1.46751e-09
-7.64597e-10
-8.09515e-10
9.74856e-09
5.44735e-10
-9.36311e-10
-9.38227e-10
9.97452e-09
-8.38862e-10
-7.88978e-10
1.01482e-08
-4.6788e-10
-6.28362e-10
1.0203e-08
-6.26259e-12
-6.14892e-10
1.01302e-08
3.71723e-10
-6.8053e-10
9.9407e-09
-6.00733e-10
9.70163e-09
6.29286e-10
-1.37412e-11
-3.00596e-10
9.90922e-09
-4.08559e-10
-4.76176e-10
-3.08453e-10
1.00739e-08
-6.71371e-10
-4.1373e-10
1.02049e-08
-5.89822e-10
-5.39969e-10
1.02514e-08
-4.3071e-10
-6.29141e-10
1.02046e-08
-3.42534e-10
-6.6342e-10
1.00651e-08
-6.29798e-10
9.87682e-09
-2.69812e-10
2.97172e-10
3.05167e-10
9.74017e-09
-8.59921e-10
-3.1911e-10
4.33167e-10
9.95535e-09
-6.39209e-10
5.22135e-11
1.01312e-08
-6.61707e-10
-3.74719e-10
1.02037e-08
-6.01319e-10
-5.67822e-10
1.01601e-08
-6.1608e-10
-5.66127e-10
9.99913e-09
-5.85441e-10
9.76968e-09
-6.4015e-10
2.38894e-10
9.16713e-10
9.29982e-09
-8.71496e-10
-3.81169e-10
1.12154e-09
9.65091e-09
-6.70335e-10
4.37377e-10
9.93968e-09
-6.56844e-10
-2.8982e-10
1.00614e-08
-5.45866e-10
-5.98853e-10
9.99539e-09
-5.06634e-10
-5.66572e-10
9.7485e-09
-5.84997e-10
9.40368e-09
-5.29832e-10
1.43794e-10
8.77349e-09
-5.92992e-10
1.26086e-09
-3.26396e-10
9.28064e-09
1.57891e-09
-5.55845e-10
9.69875e-09
6.88497e-10
-5.74541e-10
9.86946e-09
-2.37104e-10
-5.01514e-10
9.76105e-09
-6.57521e-10
-4.46629e-10
9.39929e-09
-6.467e-10
8.9206e-09
-4.59219e-10
-6.55175e-10
-1.52924e-09
-1.53495e-09
8.8698e-09
1.41973e-09
1.47355e-09
-1.45897e-09
-1.38561e-09
9.32271e-09
1.29501e-09
-1.20392e-09
-7.89852e-10
9.7064e-09
5.82238e-10
-7.6015e-10
-3.75054e-11
9.86717e-09
-3.60395e-10
-1.92033e-10
5.40284e-10
9.76206e-09
-1.12177e-09
4.18165e-10
8.08029e-10
9.41718e-09
-1.52142e-09
7.56505e-10
8.9764e-09
7.83126e-10
-1.30414e-09
-1.45591e-09
-1.43885e-09
9.32371e-09
1.34578e-09
-1.41742e-09
-1.35534e-09
9.63409e-09
-1.18049e-09
-9.32748e-10
9.90013e-09
-7.18147e-10
-4.24584e-10
1.0018e-08
-1.02212e-10
-5.60195e-11
9.95744e-09
5.37558e-10
1.17132e-10
9.72671e-09
1.76139e-10
9.41856e-09
1.00721e-09
-8.88102e-10
-1.15835e-09
9.70725e-09
6.67025e-10
-1.01171e-09
-1.13236e-09
9.90061e-09
-9.5004e-10
-8.94879e-10
1.00684e-08
-6.84363e-10
-6.15053e-10
1.0148e-08
-3.00932e-10
-4.08805e-10
1.01196e-08
8.54574e-11
-2.88631e-10
9.98019e-09
-1.79811e-10
9.78098e-09
3.82104e-10
-1.23402e-10
-6.85822e-10
9.86775e-09
-2.89208e-10
-4.95266e-10
-6.79487e-10
1.00188e-08
-6.70204e-10
-6.43357e-10
1.01482e-08
-6.39016e-10
-5.87705e-10
1.02129e-08
-5.11205e-10
-5.1098e-10
1.01987e-08
-3.88128e-10
-4.23662e-10
1.00963e-08
-3.33551e-10
9.93556e-09
-2.74462e-10
4.97333e-10
-8.96376e-11
9.76757e-09
-1.10272e-09
-1.01289e-10
-6.10122e-11
9.96108e-09
-4.57522e-10
-2.56586e-10
1.01203e-08
-5.72114e-10
-4.47101e-10
1.01976e-08
-5.8498e-10
-4.97158e-10
1.0179e-08
-6.14088e-10
-4.29144e-10
1.0053e-08
-3.74228e-10
9.85153e-09
-6.36241e-10
7.87165e-10
5.38956e-10
9.43547e-09
-1.53372e-09
7.60988e-11
5.91298e-10
9.73642e-09
-3.48753e-10
1.46549e-10
9.98139e-09
-5.05661e-10
-3.01259e-10
1.00922e-08
-5.47334e-10
-4.89521e-10
1.00488e-08
-6.1199e-10
-4.41328e-10
9.84401e-09
-3.96684e-10
9.53868e-09
-7.05541e-10
6.67083e-10
9.00801e-09
-1.24734e-09
9.0363e-10
6.62821e-11
9.43251e-09
1.06735e-09
-2.975e-10
9.78012e-09
4.48421e-10
-4.55033e-10
9.92614e-09
-1.81277e-10
-5.1228e-10
9.8411e-09
-4.9362e-10
-5.75278e-10
9.53322e-09
-4.93845e-10
9.10846e-09
-6.75751e-10
-4.63103e-10
-1.11723e-09
-1.16856e-09
9.01185e-09
1.02887e-09
1.11814e-09
-1.04159e-09
-9.30855e-10
9.35008e-09
8.42254e-10
-7.98747e-10
-5.45141e-10
9.65232e-09
3.67013e-10
-4.05411e-10
-1.00575e-10
9.78876e-09
-2.04111e-10
6.50452e-11
2.64307e-10
9.71569e-09
-6.77995e-10
5.35628e-10
4.71381e-10
9.44557e-09
-9.59953e-10
4.76506e-10
9.09179e-09
8.07511e-10
-8.53159e-10
-9.95179e-10
-1.07531e-09
9.34536e-09
8.9469e-10
-9.59731e-10
-9.03141e-10
9.58867e-09
-7.75706e-10
-6.26962e-10
9.81176e-09
-4.41645e-10
-3.25246e-10
9.92285e-09
-1.18944e-11
-8.31204e-11
9.88937e-09
4.22259e-10
6.6856e-11
9.7114e-09
1.36756e-10
9.46451e-09
7.30759e-10
-6.64777e-10
-8.18539e-10
9.64227e-09
4.83327e-10
-7.27781e-10
-7.31174e-10
9.80565e-09
-6.56768e-10
-5.7765e-10
9.959e-09
-4.64796e-10
-4.01877e-10
1.00437e-08
-2.1603e-10
-2.38955e-10
1.00376e-08
1.60053e-11
-1.08046e-10
9.93405e-09
-1.17793e-11
9.77516e-09
1.8129e-10
-2.42014e-10
-4.12591e-10
9.77467e-09
-6.03218e-11
-4.43745e-10
-4.06925e-10
9.91049e-09
-4.95643e-10
-4.02976e-10
1.00363e-08
-4.27355e-10
-3.56392e-10
1.01101e-08
-3.24725e-10
-2.46844e-10
1.01148e-08
-2.55605e-10
-1.09443e-10
1.00391e-08
-1.53767e-11
9.90941e-09
-2.15472e-10
8.36483e-11
6.09236e-11
9.7023e-09
-4.81522e-10
-2.29465e-10
8.34141e-12
9.87292e-09
-3.55504e-10
-1.68958e-10
1.00231e-08
-3.349e-10
-2.75367e-10
1.01069e-08
-2.7932e-10
-2.18657e-10
1.01061e-08
-2.72526e-10
-5.93609e-11
1.00067e-08
3.1598e-11
9.83724e-09
-2.94729e-10
2.14233e-10
5.14134e-10
9.44097e-09
-6.62791e-10
-1.40544e-10
4.18679e-10
9.6954e-09
-2.76429e-10
4.52106e-11
9.91409e-09
-2.45825e-10
-2.27385e-10
1.00244e-08
-1.71975e-10
-2.33459e-10
1.00003e-08
-1.54312e-10
-5.23468e-11
9.82953e-09
5.52146e-11
9.56571e-09
-1.9458e-10
1.51953e-10
9.10424e-09
-4.88065e-10
7.64793e-10
-1.38402e-10
9.45381e-09
7.02455e-10
-2.453e-10
9.75298e-09
1.89908e-10
-2.18261e-10
9.89027e-09
-2.08039e-10
-1.53897e-10
9.8271e-09
-2.73518e-10
-1.33726e-10
9.56137e-09
-9.04815e-11
9.19081e-09
-1.75836e-10
2.64883e-11
-2.54246e-10
-5.73291e-10
9.12463e-09
1.72265e-10
5.44746e-10
-2.75711e-10
-4.11896e-10
9.41098e-09
3.7552e-10
-1.94084e-10
-2.54211e-10
9.65794e-09
1.69494e-10
-4.12518e-11
-1.47339e-10
9.75362e-09
3.2383e-11
1.07948e-10
-1.09967e-10
9.67408e-09
5.02228e-12
1.96453e-10
-1.02081e-10
9.44012e-09
2.1617e-11
-6.27147e-11
9.14864e-09
1.84756e-10
2.02469e-11
-1.84762e-10
-5.24083e-10
9.40651e-09
7.74233e-11
-2.33086e-10
-3.88545e-10
9.6168e-09
-2.0168e-10
-2.69385e-10
9.79828e-09
-1.20036e-10
-1.76893e-10
9.87346e-09
-5.14751e-11
-1.13004e-10
9.82638e-09
-3.98582e-11
-6.60361e-11
9.66626e-09
-2.00101e-11
9.45877e-09
-7.4195e-11
-1.60055e-10
-4.15628e-10
9.65002e-09
4.6495e-11
-2.07473e-10
-3.26196e-10
9.7934e-09
-1.8983e-10
-2.44384e-10
9.91842e-09
-1.49325e-10
-1.46463e-10
9.9748e-09
-1.45494e-10
-2.93575e-11
9.95209e-09
-2.04956e-10
7.60702e-11
9.85334e-09
1.19417e-10
9.72104e-09
-2.88306e-10
-1.32587e-10
-2.68162e-10
9.74672e-09
1.57413e-11
-1.65106e-10
-2.45894e-10
9.86541e-09
-1.22968e-10
-2.1796e-10
9.96984e-09
-6.31162e-11
-1.13407e-10
1.00193e-08
-5.10847e-11
7.08207e-11
1.00047e-08
-1.1023e-10
2.49909e-10
9.92653e-09
2.89231e-10
9.81925e-09
-1.8775e-10
-1.33885e-10
-1.35617e-10
9.66416e-09
4.20993e-11
-1.2199e-10
-1.95196e-10
9.81292e-09
-1.48301e-11
-2.41587e-10
9.94154e-09
1.20472e-10
-1.40045e-10
1.00003e-08
2.11242e-10
1.11571e-10
9.9767e-09
2.27218e-10
3.70932e-10
9.87174e-09
4.23205e-10
9.72929e-09
2.03266e-10
-1.3727e-10
-6.34594e-11
9.41876e-09
9.00147e-11
-7.23128e-11
-2.06613e-10
9.64437e-09
9.70816e-11
-3.32477e-10
9.83759e-09
3.01722e-10
-2.38817e-10
9.92057e-09
4.71008e-10
7.20657e-11
9.87257e-09
5.69768e-10
4.04958e-10
9.6987e-09
4.84796e-10
9.47173e-09
6.04165e-10
-1.81463e-11
9.12047e-09
5.9643e-13
-5.94653e-11
4.63469e-11
9.43486e-09
-2.49517e-10
1.83691e-10
9.70497e-09
-4.19795e-10
3.47994e-10
9.8158e-09
-3.26636e-10
4.89786e-10
9.73464e-09
2.48149e-11
5.90855e-10
9.47612e-09
3.91328e-10
9.15091e-09
6.27672e-10
4.90143e-10
3.17317e-10
3.07713e-10
9.40413e-09
-4.51069e-10
-4.52279e-10
1.19425e-10
3.05308e-10
9.69419e-09
-3.97768e-10
-1.03274e-10
1.29787e-10
9.89001e-09
-1.43937e-10
-3.39629e-10
1.52642e-11
9.93574e-09
3.48235e-11
-5.93545e-10
4.37339e-11
9.8436e-09
3.61807e-11
-8.72229e-10
1.15933e-10
9.62381e-09
-2.5491e-11
1.25538e-10
9.33267e-09
-1.13322e-09
-5.3059e-11
4.34478e-10
1.17879e-10
9.69741e-09
-5.42731e-10
2.62702e-10
1.53756e-10
9.93013e-09
3.06231e-11
8.42363e-11
1.00685e-08
-2.46328e-10
6.67358e-11
1.00911e-08
-5.50751e-10
1.48708e-10
1.00177e-08
-8.71259e-10
2.4343e-10
9.85114e-09
2.35473e-10
9.61976e-09
-1.15033e-09
2.63561e-10
-1.25161e-10
9.89855e-09
-2.73459e-10
2.1568e-10
-8.8335e-11
1.00757e-08
9.41133e-11
-5.04746e-11
1.01687e-08
-9.59139e-11
5.10609e-11
1.01742e-08
-3.24734e-10
2.09352e-10
1.0114e-08
-5.60599e-10
3.36432e-10
9.99001e-09
3.21113e-10
9.81672e-09
-7.47944e-10
1.65845e-10
-4.02243e-10
9.95965e-09
-1.06279e-10
2.20139e-10
-3.97599e-10
1.01125e-08
2.0937e-10
-2.62634e-10
1.01867e-08
1.24828e-10
-3.27737e-11
1.01816e-08
3.26043e-13
2.13812e-10
1.01188e-08
-1.23739e-10
3.77543e-10
1.00038e-08
3.71331e-10
9.85445e-09
-2.14434e-10
3.10227e-10
-6.8172e-10
9.87983e-09
-2.50953e-10
3.8845e-10
-7.23165e-10
1.00524e-08
4.25124e-10
-5.02891e-10
1.0139e-08
3.98928e-10
-1.43506e-10
1.01311e-08
3.40229e-10
1.92606e-10
1.00506e-08
2.90225e-10
3.83888e-10
9.90967e-09
3.87915e-10
9.74123e-09
2.56217e-10
5.78866e-10
-9.40941e-10
9.65487e-09
-5.59918e-10
6.29967e-10
-1.02676e-09
9.88848e-09
6.63901e-10
-7.26446e-10
1.00211e-08
6.5085e-10
-2.40408e-10
1.00245e-08
6.15401e-10
1.75177e-10
9.91965e-09
5.94439e-10
3.70968e-10
9.72703e-09
3.631e-10
9.50572e-09
5.79742e-10
7.38088e-10
9.34536e-09
-7.5456e-10
-1.15397e-09
7.54496e-10
9.64791e-09
-1.26441e-09
7.67529e-10
9.84422e-09
-8.84495e-10
7.56304e-10
9.87623e-09
-2.95272e-10
7.33825e-10
9.75581e-09
1.71098e-10
7.19921e-10
9.51129e-09
3.44601e-10
9.23317e-09
6.94974e-10
2.99708e-10
-6.79301e-10
1.95821e-10
9.58024e-09
6.52334e-10
-3.45137e-10
-6.87507e-10
1.47198e-10
9.83449e-09
-2.94802e-10
-7.0113e-10
3.10877e-11
9.97998e-09
-1.18284e-10
-6.84147e-10
7.21394e-11
1.00087e-08
-1.72064e-10
-6.40196e-10
1.78379e-10
9.93406e-09
-3.23257e-10
-6.16219e-10
1.57472e-10
9.742e-09
-3.10183e-10
-1.29455e-11
9.46438e-09
-6.68059e-10
-7.74389e-11
-4.54112e-10
4.51037e-11
9.84069e-09
4.45975e-10
-4.62148e-10
-2.71344e-12
1.00673e-08
-4.83785e-10
-7.02906e-11
1.01758e-08
-4.79412e-10
-4.15854e-11
1.01839e-08
-4.41881e-10
2.31165e-11
1.01186e-08
-4.14243e-10
-1.76474e-12
9.96592e-09
-1.24042e-10
9.72751e-09
-4.27882e-10
-2.59775e-10
-1.85174e-11
9.99229e-09
2.19337e-10
-2.89336e-10
-9.6443e-11
1.01827e-08
-3.22524e-10
-1.43595e-10
1.02624e-08
-3.34287e-10
-1.26683e-10
1.0258e-08
-3.12485e-10
-9.74611e-11
1.01997e-08
-2.86107e-10
-1.27508e-10
1.00765e-08
-2.0977e-10
9.87902e-09
-2.75277e-10
-6.6671e-11
-2.06293e-12
1.00221e-08
-2.29587e-11
-1.47817e-10
-1.15229e-10
1.01959e-08
-2.13249e-10
-1.69047e-10
1.02647e-08
-2.55539e-10
-1.6876e-10
1.02532e-08
-2.73709e-10
-1.65153e-10
1.01921e-08
-2.80899e-10
-2.05319e-10
1.00769e-08
-2.66841e-10
9.90159e-09
-2.8235e-10
1.84844e-10
8.47126e-11
9.95269e-09
-3.55041e-10
1.62556e-11
-4.84538e-11
1.01379e-08
-1.05318e-10
-1.33767e-10
1.02126e-08
-1.90044e-10
-1.62302e-10
1.01967e-08
-2.54882e-10
-1.86256e-10
1.0124e-08
-3.11213e-10
-2.47947e-10
9.99654e-09
-3.08933e-10
9.81754e-09
-3.57148e-10
4.30642e-10
2.21827e-10
9.77398e-09
-6.96781e-10
1.79468e-10
7.99312e-11
9.99408e-09
1.72873e-11
-5.69725e-11
1.00937e-08
-8.41073e-11
-1.29916e-10
1.0081e-08
-1.62346e-10
-1.93946e-10
9.99337e-09
-2.34674e-10
-2.99789e-10
9.8395e-09
-3.76856e-10
9.63664e-09
-3.09402e-10
4.42933e-10
9.50333e-09
-6.80428e-10
2.90557e-10
2.24719e-10
9.75614e-09
1.7292e-10
1.19003e-10
9.89292e-09
-1.20861e-11
7.3884e-11
9.89848e-09
-1.18997e-10
4.14987e-11
9.80482e-09
-2.22111e-10
-4.76003e-12
9.62826e-09
-3.81618e-10
9.40504e-09
-6.39348e-11
-5.02439e-10
-1.69495e-09
-1.2709e-09
9.39259e-09
1.80055e-09
1.35142e-09
-1.42125e-09
-1.20593e-09
9.54974e-09
1.19519e-09
-9.58598e-10
-7.35685e-10
9.67835e-09
5.59222e-10
-3.2627e-10
-2.10647e-10
9.74051e-09
-1.67762e-10
3.73679e-10
-1.0642e-11
9.70965e-09
-4.7982e-10
1.02023e-09
-1.35347e-10
9.57028e-09
-3.54462e-10
-2.82206e-10
9.37581e-09
1.4273e-09
-5.13963e-11
-1.60992e-09
-1.03057e-09
9.55025e-09
1.63818e-09
-1.41636e-09
-1.05476e-09
9.69383e-09
-1.00174e-09
-7.99094e-10
9.8027e-09
-3.84072e-10
-5.23391e-10
9.8559e-09
3.19862e-10
-4.60632e-10
9.84129e-09
9.68442e-10
-5.84178e-10
9.74297e-09
-6.31797e-10
9.58635e-09
1.43557e-09
-1.00431e-09
-5.29188e-10
9.67544e-09
8.0506e-10
-1.06816e-09
-6.27561e-10
9.79676e-09
-8.94131e-10
-6.15323e-10
9.88694e-09
-5.14232e-10
-5.96098e-10
9.9326e-09
-6.19027e-11
-6.60443e-10
9.92907e-09
3.31627e-10
-7.81808e-10
9.86264e-09
-7.97404e-10
9.7424e-09
6.16246e-10
-4.45476e-10
1.74724e-10
9.71207e-09
3.635e-11
-7.67337e-10
3.80866e-11
9.82905e-09
-8.31268e-10
-2.20947e-10
9.91639e-09
-6.83776e-10
-4.69804e-10
9.96152e-09
-4.85342e-10
-6.47552e-10
9.96334e-09
-3.55349e-10
-7.62652e-10
9.91094e-09
-8.10059e-10
9.80774e-09
-2.64877e-10
-2.4119e-10
9.72789e-10
9.65677e-09
-2.76007e-10
-7.02748e-10
8.22215e-10
9.79261e-09
-8.77056e-10
2.5291e-10
9.89547e-09
-8.2097e-10
-2.93547e-10
9.94665e-09
-7.22701e-10
-5.85647e-10
9.94635e-09
-7.11051e-10
-6.80325e-10
9.88568e-09
-7.58895e-10
9.76972e-09
-7.30843e-10
-2.451e-10
1.77113e-09
9.51962e-09
-3.13083e-10
-7.42826e-10
1.60096e-09
9.68938e-09
-9.25156e-10
6.89639e-10
9.82147e-09
-8.60894e-10
-1.76409e-10
9.88207e-09
-7.44103e-10
-5.94821e-10
9.86872e-09
-7.1269e-10
-6.64461e-10
9.77584e-09
-7.28923e-10
9.61894e-09
-7.41459e-10
-2.25407e-10
9.34471e-09
-1.82393e-10
2.32205e-09
-6.36657e-10
9.54447e-09
2.20028e-09
-7.90358e-10
9.70804e-09
1.01126e-09
-7.65303e-10
9.77621e-09
-9.59106e-11
-6.87715e-10
9.74088e-09
-6.24731e-10
-6.50021e-10
9.60517e-09
-6.94844e-10
9.40454e-09
-6.61666e-10
-7.34977e-10
-4.42933e-10
-1.56319e-09
9.22218e-09
4.21639e-10
1.75275e-09
-3.89602e-10
-1.52682e-09
9.33798e-09
1.65851e-09
-1.11012e-10
-8.07765e-10
9.48367e-09
7.0476e-10
3.60189e-10
-1.13293e-10
9.56861e-09
-2.03788e-10
9.60181e-10
2.62584e-10
9.54858e-09
-7.19994e-10
1.64388e-09
4.93769e-10
9.4304e-09
-1.05614e-09
7.19187e-10
9.28384e-09
2.15186e-09
-1.15395e-09
-7.07584e-10
-1.2724e-09
9.33427e-09
6.05971e-10
-6.99509e-10
-1.2889e-09
9.41257e-09
-4.08446e-10
-8.52196e-10
9.52907e-09
1.27432e-10
-4.31373e-10
9.60974e-09
7.99799e-10
-2.13647e-10
9.61646e-09
1.51582e-09
-5.88485e-11
9.55093e-09
2.17559e-10
9.46685e-09
2.10765e-09
-4.07884e-10
-8.91357e-10
9.4748e-09
2.0933e-10
-5.57486e-10
-8.95408e-10
9.52513e-09
-4.50067e-10
-7.05933e-10
9.61147e-09
-1.22196e-10
-5.29275e-10
9.6802e-09
2.88336e-10
-4.20163e-10
9.70271e-09
6.80637e-10
-2.89594e-10
9.67879e-09
-3.42463e-11
9.64582e-09
1.00696e-09
9.43175e-11
-3.94855e-10
9.55402e-09
-4.51617e-10
-2.66424e-10
-3.35352e-10
9.60134e-09
-3.75632e-10
-3.79436e-10
9.67703e-09
-2.6847e-10
-4.35953e-10
9.73888e-09
-1.1084e-10
-4.00829e-10
9.76464e-09
-8.14235e-12
-2.5563e-10
9.75322e-09
-7.89888e-11
9.73275e-09
9.12491e-11
4.13071e-10
1.98511e-10
9.52957e-09
-8.97883e-10
-9.5966e-11
3.32871e-10
9.60542e-09
-3.21617e-10
2.09842e-11
9.69889e-09
-2.96373e-10
-3.01175e-10
9.76461e-09
-2.12233e-10
-3.40873e-10
9.78034e-09
-2.02238e-10
-1.46637e-10
9.74542e-09
-2.17461e-11
9.69084e-09
-2.01479e-10
5.05821e-10
8.45307e-10
9.41067e-09
-1.06137e-09
-5.83263e-11
1.01615e-09
9.54098e-09
-3.142e-10
3.97505e-10
9.67866e-09
-2.99569e-10
-2.12465e-10
9.75683e-09
-1.97678e-10
-3.43585e-10
9.74808e-09
-1.62246e-10
-8.25668e-11
9.65563e-09
6.36836e-11
9.529e-09
-1.78707e-10
5.28008e-10
9.26609e-09
-9.31706e-10
1.30843e-09
3.15051e-11
9.46199e-09
1.56587e-09
-2.69241e-10
9.65359e-09
7.31419e-10
-3.75759e-10
9.74379e-09
-9.46286e-11
-3.79668e-10
9.6992e-09
-3.18644e-10
-3.86339e-10
9.5336e-09
-2.45244e-11
9.32588e-09
-4.21268e-10
1.53977e-10
8.25668e-10
-1.30811e-11
9.38122e-09
-9.82935e-10
8.76938e-12
6.27341e-10
-2.66829e-11
9.49905e-09
3.08562e-11
5.12857e-10
1.99142e-10
9.62496e-09
-2.4985e-10
4.66362e-10
3.71168e-10
9.67802e-09
-4.56717e-10
5.17012e-10
5.17829e-10
9.63645e-09
-6.79868e-10
7.04892e-10
7.38486e-10
9.51769e-09
-1.03734e-09
9.01555e-10
9.37693e-09
8.41856e-10
-1.15557e-09
5.83511e-10
-4.35854e-11
9.49122e-09
-7.43106e-10
4.18004e-10
-5.36513e-11
9.56066e-09
3.75938e-10
8.70977e-11
9.64877e-09
4.39425e-10
1.84859e-10
9.69647e-09
6.00771e-10
2.5527e-10
9.68107e-09
8.48277e-10
3.92495e-10
9.61276e-09
5.80107e-10
9.53971e-09
1.05939e-09
4.63847e-10
-1.22553e-10
9.61237e-09
-5.4537e-10
3.20843e-10
-6.89287e-11
9.6482e-09
2.68096e-10
1.91498e-11
9.70449e-09
3.01151e-10
6.04254e-11
9.74301e-09
3.8668e-10
9.75613e-11
9.74628e-09
4.94652e-10
2.13907e-10
9.72072e-09
4.18238e-10
9.70215e-09
5.71568e-10
4.92879e-10
-1.99762e-10
9.68587e-09
-5.71309e-10
3.20639e-10
-4.44674e-11
9.71301e-09
2.15829e-10
1.70956e-11
9.75576e-09
1.87145e-10
1.12257e-11
9.7883e-09
1.8727e-10
3.75471e-11
9.79632e-09
1.75382e-10
1.68672e-10
9.78277e-09
3.66859e-10
9.77479e-09
1.57746e-10
5.48451e-10
-2.23957e-10
9.674e-09
-6.92343e-10
3.20528e-10
3.04362e-11
9.72262e-09
1.73953e-10
5.70478e-11
9.77751e-09
1.21414e-10
-1.29442e-11
9.81283e-09
1.01538e-10
-3.13818e-12
9.81232e-09
5.27691e-11
1.58787e-10
9.7761e-09
3.56645e-10
9.73461e-09
-8.47453e-12
4.78514e-10
-2.05026e-10
9.57163e-09
-6.81156e-10
2.28811e-10
1.12831e-10
9.67093e-09
7.71566e-11
9.34093e-11
9.76543e-09
3.11997e-11
-5.27939e-11
9.81417e-09
2.38976e-11
-7.06145e-11
9.7947e-09
-2.75992e-11
1.30732e-10
9.70777e-09
3.4767e-10
9.60181e-09
-1.1928e-10
2.89378e-10
9.43404e-09
-4.55577e-10
-2.31245e-10
7.62338e-11
9.60071e-09
1.49763e-10
-6.23918e-11
9.74804e-09
1.09784e-10
-1.25172e-10
9.81295e-09
-8.69633e-11
-1.51586e-10
9.76751e-09
-1.39918e-10
-2.10854e-10
9.6178e-09
7.87899e-11
9.4378e-09
-3.09638e-10
3.03874e-10
1.79115e-10
8.15257e-10
9.60931e-09
-2.3867e-10
-9.87352e-10
1.46326e-10
9.05056e-10
9.67758e-09
-1.09597e-09
8.63954e-11
6.0131e-10
9.72722e-09
-6.76717e-10
-5.36333e-11
1.927e-10
9.74374e-09
-1.50428e-10
-2.9969e-10
-1.68597e-10
9.72559e-09
2.92368e-10
-6.71522e-10
-4.98315e-10
9.67011e-09
6.8429e-10
-7.4992e-10
9.5939e-09
-1.03656e-09
8.64217e-10
3.11367e-10
6.41417e-10
9.668e-09
-3.59538e-10
2.71249e-10
7.1372e-10
9.73016e-09
1.80054e-10
5.17501e-10
9.77506e-09
-1.71769e-11
2.40148e-10
9.79551e-09
-3.28992e-10
-1.82053e-11
9.79107e-09
-7.50595e-10
-2.70196e-10
9.75468e-09
-5.26716e-10
9.69648e-09
-1.18307e-09
2.15816e-10
5.27996e-10
9.70922e-09
-2.31439e-10
2.04917e-10
5.58221e-10
9.76497e-09
1.48671e-10
4.32315e-10
9.80719e-09
8.02406e-12
2.5129e-10
9.83266e-09
-2.10979e-10
6.69465e-11
9.84016e-09
-4.90485e-10
-1.31965e-10
9.82194e-09
-3.63011e-10
9.78216e-09
-7.74392e-10
-9.56296e-11
3.92676e-10
9.7234e-09
1.60097e-10
-1.65289e-11
3.63076e-10
9.7783e-09
1.42617e-11
2.94948e-10
9.82296e-09
-3.5116e-11
1.93816e-10
9.85523e-09
-1.39864e-10
5.68869e-11
9.87138e-09
-2.79201e-10
-1.09584e-10
9.86067e-09
-2.90991e-10
9.82338e-09
-4.38386e-10
-4.99696e-10
1.67261e-10
9.7078e-09
6.58009e-10
-3.00197e-10
6.64541e-11
9.76919e-09
-1.74596e-10
8.52787e-11
9.82227e-09
-1.53894e-10
8.29892e-11
9.86292e-09
-2.01151e-10
-6.92222e-12
9.88317e-09
-2.89706e-10
-1.51435e-10
9.86693e-09
-2.9217e-10
9.81405e-09
-4.0734e-10
-8.68806e-10
-1.96508e-10
9.65595e-09
1.11583e-09
-5.68314e-10
-3.46052e-10
9.73067e-09
-3.59822e-10
-1.96161e-10
9.79846e-09
-2.80915e-10
-6.96309e-11
9.84789e-09
-2.97222e-10
-1.00275e-10
9.86462e-09
-3.77235e-10
-2.29083e-10
9.82649e-09
-3.47033e-10
9.73991e-09
-4.99997e-10
-1.011e-09
9.59084e-09
1.15786e-09
-5.34475e-10
-7.16085e-10
9.6783e-09
-7.71181e-10
-4.71809e-10
9.75959e-09
-4.91387e-10
-3.24048e-10
9.81156e-09
-2.55455e-10
-2.70583e-10
9.81415e-09
-2.39434e-10
-3.00635e-10
9.7415e-09
-3.61341e-10
9.61357e-09
-3.81684e-10
-4.84373e-10
3.60763e-11
5.23187e-10
9.56888e-09
6.26431e-11
-5.86922e-10
1.02648e-10
4.44737e-10
9.61033e-09
-5.09517e-10
1.04917e-10
2.15722e-10
9.64261e-09
-1.81586e-10
-2.64682e-11
-1.14887e-10
9.66132e-09
2.81731e-10
-3.50746e-10
-5.58988e-10
9.66586e-09
8.94966e-10
-9.0331e-10
-1.00688e-09
9.64568e-09
1.53557e-09
-1.07986e-09
9.61178e-09
-1.37987e-09
1.48994e-09
1.33762e-10
4.37919e-10
9.61141e-09
-5.7417e-11
1.79309e-10
3.70145e-10
9.66912e-09
1.50917e-10
2.3931e-10
9.70911e-09
-4.38997e-11
7.19462e-11
9.73079e-09
-4.70116e-10
-1.52128e-10
9.7371e-09
-1.11409e-09
-3.99245e-10
9.71752e-09
-5.14373e-10
9.67204e-09
-1.72997e-09
1.49801e-10
3.71387e-10
9.64015e-09
-6.15259e-11
2.08722e-10
3.00296e-10
9.70418e-09
2.08251e-10
2.44144e-10
9.74784e-09
7.16527e-11
2.13505e-10
9.77175e-09
-2.37725e-10
1.62387e-10
9.77911e-09
-6.84294e-10
5.32705e-11
9.76018e-09
-9.82192e-11
9.71098e-09
-1.08546e-09
-3.90291e-11
2.21888e-10
9.64347e-09
2.20113e-10
1.31694e-10
1.24085e-10
9.71107e-09
2.40925e-10
1.43434e-10
9.75896e-09
2.22915e-10
2.45245e-10
9.78572e-09
7.69194e-11
3.3054e-10
9.79388e-09
-1.4952e-10
3.11192e-10
9.77475e-09
1.62449e-10
9.72453e-09
-3.65337e-10
-3.53113e-10
-6.72941e-11
9.62999e-09
6.71907e-10
-2.40078e-12
-2.28973e-10
9.69914e-09
2.5988e-10
-1.02678e-10
9.75086e-09
3.63481e-10
1.69167e-10
9.77973e-09
3.38336e-10
3.96428e-10
9.78686e-09
2.5219e-10
4.46401e-10
9.76321e-09
3.15616e-10
9.70715e-09
1.51419e-10
-5.6476e-10
-4.97108e-10
9.6003e-09
1.00301e-09
-7.18059e-11
-7.32948e-10
9.66747e-09
3.07744e-10
-4.60662e-10
9.72123e-09
4.98605e-10
2.11084e-11
9.74963e-09
5.46161e-10
4.08254e-10
9.75038e-09
5.35158e-10
5.17167e-10
9.71294e-09
3.99359e-10
9.64159e-09
4.95203e-10
-4.48976e-10
9.56636e-09
7.65796e-10
-8.38541e-10
8.88227e-12
9.6217e-09
-1.20914e-09
3.72817e-10
9.67275e-09
-7.93122e-10
5.91038e-10
9.69701e-09
-1.37509e-10
6.90025e-10
9.68691e-09
3.82376e-10
7.29856e-10
9.63244e-09
5.32904e-10
9.54761e-09
7.24222e-10
4.12775e-10
6.78491e-10
5.96527e-10
9.36844e-09
-5.52348e-10
-5.30406e-10
6.79594e-10
3.90172e-10
9.4537e-09
-3.23052e-10
6.22114e-10
3.68454e-10
9.53493e-09
-2.67956e-10
4.62626e-10
2.02159e-10
9.55902e-09
-2.71074e-12
2.09983e-10
-1.79482e-10
9.52118e-09
5.14007e-10
-1.07242e-10
-5.08844e-10
9.43892e-09
9.7005e-10
-3.35571e-10
9.37148e-09
-3.52723e-10
7.58303e-10
5.48824e-10
5.4146e-10
9.46121e-09
-4.32108e-10
5.81659e-10
3.78127e-10
9.52905e-09
6.17449e-10
3.64012e-10
9.5855e-09
5.73063e-10
2.8771e-10
9.59628e-09
3.83069e-10
9.29373e-11
9.56116e-09
5.65019e-11
-5.09353e-11
9.49253e-09
1.16728e-10
9.43106e-09
-2.50375e-10
5.47354e-10
4.06682e-10
9.55042e-09
-3.86335e-10
5.84329e-10
3.57789e-10
9.59446e-09
6.27412e-10
3.715e-10
9.62754e-09
6.09828e-10
3.78615e-10
9.62835e-09
4.57459e-10
3.55913e-10
9.59884e-09
1.78589e-10
3.70713e-10
9.548e-09
5.11251e-10
9.50254e-09
-7.75698e-11
4.267e-10
1.64791e-10
9.57639e-09
-1.81359e-10
5.36647e-10
2.54232e-10
9.61152e-09
6.33447e-10
3.27279e-10
9.63686e-09
6.67861e-10
4.2667e-10
9.63416e-09
5.86494e-10
5.56802e-10
9.60617e-09
4.03916e-10
6.98897e-10
9.56209e-09
8.22696e-10
9.52548e-09
2.24787e-10
1.25869e-10
-1.60255e-10
9.53729e-09
2.29091e-10
3.9249e-10
1.3495e-11
9.58088e-09
6.28519e-10
1.58681e-10
9.61458e-09
7.80166e-10
3.72842e-10
9.61339e-09
8.20099e-10
6.55356e-10
9.58044e-09
7.77954e-10
9.08952e-10
9.5285e-09
1.04039e-09
9.48717e-09
7.13469e-10
-1.51106e-10
-5.26794e-10
9.45439e-09
6.02073e-10
2.72639e-10
-3.52565e-10
9.51539e-09
6.43958e-10
-1.29287e-10
9.5687e-09
9.00367e-10
2.25049e-10
9.57284e-09
1.03828e-09
6.70433e-10
9.53035e-09
1.10311e-09
1.03043e-09
9.46089e-09
1.18283e-09
9.40805e-09
1.12741e-09
-5.42655e-11
9.3807e-09
4.26896e-10
-7.77326e-10
3.612e-10
9.44987e-09
-6.91795e-10
7.01819e-10
9.52251e-09
-3.88729e-10
9.33605e-10
9.53523e-09
8.73036e-11
1.07258e-09
9.48716e-09
6.64779e-10
1.15687e-09
9.40666e-09
1.10621e-09
9.35343e-09
1.18956e-09
1.27291e-09
5.80289e-10
4.66521e-10
9.32269e-09
-5.56528e-10
-4.5591e-10
4.82724e-10
4.3578e-10
9.44588e-09
-4.29785e-10
3.19103e-10
4.16241e-10
9.55873e-09
-3.48987e-10
6.29409e-11
2.88279e-10
9.59103e-09
-1.33548e-10
-2.4058e-10
8.74672e-11
9.53837e-09
1.29803e-10
-5.44554e-10
-8.53809e-11
9.42269e-09
3.36846e-10
-7.44048e-11
9.31685e-09
-7.53346e-10
2.68817e-10
3.90108e-10
3.36339e-10
9.44487e-09
-3.43136e-10
3.53952e-10
3.37684e-10
9.53207e-09
2.9201e-10
3.55926e-10
9.60718e-09
1.47485e-10
3.05897e-10
9.62245e-09
-8.10927e-11
1.99147e-10
9.57753e-09
-3.64586e-10
1.02428e-10
9.48745e-09
1.01677e-10
9.40194e-09
-6.14295e-10
2.93352e-10
1.3921e-10
9.56147e-09
-1.78398e-10
3.0255e-10
2.11021e-10
9.61077e-09
2.87486e-10
2.73032e-10
9.65039e-09
2.08633e-10
2.86328e-10
9.65158e-09
5.7951e-11
2.58378e-10
9.61556e-09
-1.3915e-10
2.21144e-10
9.5518e-09
1.98114e-10
9.49147e-09
-2.99865e-10
1.60844e-10
-1.4598e-10
9.60122e-09
2.91433e-11
2.38661e-10
1.01469e-11
9.63413e-09
2.75731e-10
1.38751e-10
9.65948e-09
2.51435e-10
2.15558e-10
9.65506e-09
1.74953e-10
2.44977e-10
9.62268e-09
7.57794e-11
2.40152e-10
9.56989e-09
1.96658e-10
9.52178e-09
8.8658e-12
-9.76835e-11
-5.03948e-10
9.55585e-09
3.68218e-10
9.31714e-11
-2.98199e-10
9.59889e-09
2.15254e-10
-7.59381e-11
9.63329e-09
2.482e-10
9.01229e-11
9.63222e-09
2.25448e-10
1.77208e-10
9.59782e-09
1.88132e-10
1.9438e-10
9.53954e-09
1.38806e-10
9.488e-09
1.73056e-10
-4.02093e-10
-9.25649e-10
9.4444e-09
7.66242e-10
-8.67619e-11
-7.15432e-10
9.51567e-09
1.11327e-10
-3.57205e-10
9.57752e-09
1.73443e-10
-6.04261e-11
9.58789e-09
1.5877e-10
1.01402e-10
9.54855e-09
1.23631e-10
1.4533e-10
9.47398e-09
8.8528e-11
9.40992e-09
9.97639e-11
-3.97403e-10
9.33574e-09
6.58793e-10
-1.21176e-09
-1.10335e-10
9.42966e-09
-1.08513e-09
3.57059e-11
9.5185e-09
-5.7343e-10
4.65709e-11
9.54309e-09
-1.52082e-10
-8.81847e-12
9.50232e-09
6.97822e-11
-6.93266e-11
9.41614e-09
1.24863e-10
9.34777e-09
-1.12047e-10
5.9781e-11
5.8436e-10
2.60217e-10
9.36728e-09
-6.48664e-10
-2.54632e-10
3.87197e-10
2.05295e-10
9.50212e-09
-1.54465e-10
1.46959e-10
2.21214e-10
9.62283e-09
-1.13358e-10
-1.46526e-10
2.25016e-10
9.66184e-09
-6.9576e-11
-4.42839e-10
2.33207e-10
9.61789e-09
-8.35567e-11
-7.00521e-10
2.65977e-10
9.50245e-09
-1.55238e-10
3.52446e-10
9.37102e-09
-8.72347e-10
-3.02069e-10
4.24502e-10
1.464e-10
9.49731e-09
-4.53131e-10
2.91148e-10
1.47658e-10
9.60172e-09
1.39046e-10
1.99025e-10
9.68538e-09
-5.4695e-11
2.35335e-10
9.70908e-09
-2.73977e-10
2.5708e-10
9.67581e-09
-4.91665e-10
2.82729e-10
9.59085e-09
3.30531e-10
9.48576e-09
-6.52079e-10
2.94871e-10
-4.67369e-11
9.61103e-09
-2.19025e-10
2.38815e-10
3.79482e-11
9.67979e-09
1.53719e-10
1.31956e-10
9.72877e-09
3.13959e-11
1.95761e-10
9.73865e-09
-1.12845e-10
2.27753e-10
9.71396e-09
-2.4752e-10
2.3825e-10
9.65583e-09
2.28526e-10
9.57888e-09
-3.08417e-10
2.30155e-10
-3.06687e-10
9.65562e-09
-9.25827e-11
2.28609e-10
-1.30164e-10
9.70645e-09
1.82545e-10
2.37415e-11
9.73903e-09
9.87817e-11
1.17195e-10
9.74152e-09
6.62943e-12
1.4768e-10
9.71875e-09
-5.50342e-11
1.23972e-10
9.67042e-09
5.13727e-11
9.60643e-09
-3.74127e-11
1.73288e-10
-5.84565e-10
9.61995e-09