/*--------------------------------*- C++ -*----------------------------------*\
| =========                 |                                                 |
| \\      /  F ield         | OpenFOAM: The Open Source CFD Toolbox           |
|  \\    /   O peration     | Version:  plus.master.MPPICInterFoam            |
|   \\  /    A nd           | Web:      www.OpenFOAM.com                      |
|    \\/     M anipulation  |                                                 |
\*---------------------------------------------------------------------------*/
FoamFile
{
    version     2.0;
    format      ascii;
    class       volScalarField;
    location    "0.2";
    object      epsilon;
}
// * * * * * * * * * * * * * * * * * * * * * * * * * * * * * * * * * * * * * //

dimensions      [0 2 -3 0 0 0 0];

internalField   nonuniform List<scalar> 
11821
(
0.0122599
0.0122614
0.0122553
0.0122616
0.0122554
0.0122469
0.012246
0.0122526
0.0122544
0.0122547
0.0122544
0.0122526
0.012246
0.0122525
0.012255
0.0122557
0.0122558
0.0122557
0.0122551
0.0122527
0.0122543
0.0122557
0.012256
0.0122561
0.0122561
0.0122559
0.0122547
0.0122547
0.0122558
0.0122561
0.0122562
0.0122562
0.0122563
0.0122554
0.0122544
0.0122557
0.0122561
0.0122563
0.0122565
0.0122565
0.0122549
0.0122526
0.0122552
0.0122559
0.0122563
0.0122565
0.0122556
0.0122528
0.012246
0.0122528
0.0122547
0.0122556
0.0122549
0.0122528
0.012246
0.0122461
0.0122527
0.0122545
0.0122549
0.0122545
0.0122527
0.0122461
0.0122527
0.0122552
0.0122559
0.012256
0.0122559
0.0122552
0.0122527
0.0122545
0.0122559
0.0122562
0.0122562
0.0122562
0.0122559
0.0122545
0.0122549
0.012256
0.0122562
0.0122563
0.0122562
0.012256
0.0122549
0.0122545
0.0122559
0.0122562
0.0122562
0.0122562
0.0122559
0.0122545
0.0122527
0.0122552
0.0122559
0.012256
0.0122559
0.0122553
0.0122527
0.0122461
0.0122527
0.0122545
0.0122549
0.0122545
0.0122527
0.0122461
0.0122462
0.0122528
0.0122546
0.0122549
0.0122545
0.0122527
0.0122461
0.0122528
0.0122553
0.0122559
0.0122561
0.0122559
0.0122553
0.0122528
0.0122545
0.0122559
0.0122562
0.0122563
0.0122562
0.0122559
0.0122546
0.0122549
0.0122561
0.0122563
0.0122563
0.0122563
0.0122561
0.0122549
0.0122545
0.0122559
0.0122562
0.0122563
0.0122562
0.0122559
0.0122546
0.0122527
0.0122553
0.0122559
0.0122561
0.0122559
0.0122553
0.0122527
0.0122461
0.0122528
0.0122546
0.0122549
0.0122546
0.0122528
0.0122461
0.0122461
0.0122527
0.0122545
0.0122549
0.0122545
0.0122527
0.0122461
0.0122527
0.0122552
0.0122559
0.012256
0.0122559
0.0122552
0.0122527
0.0122545
0.0122558
0.0122561
0.0122562
0.0122562
0.0122559
0.0122545
0.0122549
0.012256
0.0122562
0.0122562
0.0122562
0.012256
0.0122549
0.0122545
0.0122559
0.0122561
0.0122562
0.0122562
0.0122559
0.0122545
0.0122527
0.0122552
0.0122559
0.012256
0.0122559
0.0122552
0.0122527
0.0122461
0.0122527
0.0122545
0.0122549
0.0122545
0.0122527
0.0122461
0.0122459
0.0122525
0.0122543
0.0122547
0.0122543
0.0122525
0.0122459
0.0122525
0.012255
0.0122556
0.0122558
0.0122557
0.012255
0.0122525
0.0122543
0.0122556
0.012256
0.012256
0.012256
0.0122557
0.0122543
0.0122547
0.0122558
0.012256
0.0122561
0.012256
0.0122558
0.0122547
0.0122543
0.0122556
0.012256
0.012256
0.012256
0.0122557
0.0122543
0.0122525
0.012255
0.0122557
0.0122558
0.0122557
0.0122551
0.0122525
0.0122459
0.0122525
0.0122543
0.0122547
0.0122543
0.0122525
0.0122459
0.0122457
0.0122523
0.0122541
0.0122545
0.0122541
0.0122523
0.0122456
0.0122522
0.0122547
0.0122554
0.0122555
0.0122554
0.0122548
0.0122522
0.0122541
0.0122554
0.0122557
0.0122558
0.0122558
0.0122555
0.0122541
0.0122545
0.0122555
0.0122558
0.0122559
0.0122558
0.0122556
0.0122545
0.0122541
0.0122554
0.0122558
0.0122558
0.0122558
0.0122555
0.0122541
0.0122523
0.0122548
0.0122555
0.0122556
0.0122555
0.0122549
0.0122523
0.0122456
0.0122522
0.0122541
0.0122545
0.0122541
0.0122523
0.0122457
0.0122455
0.012252
0.0122539
0.0122543
0.0122539
0.0122521
0.0122454
0.012252
0.0122545
0.0122552
0.0122553
0.0122552
0.0122546
0.012252
0.0122539
0.0122552
0.0122556
0.0122556
0.0122556
0.0122553
0.0122539
0.0122543
0.0122553
0.0122556
0.0122557
0.0122557
0.0122555
0.0122543
0.0122539
0.0122552
0.0122556
0.0122557
0.0122556
0.0122553
0.012254
0.0122521
0.0122546
0.0122553
0.0122555
0.0122553
0.0122547
0.0122521
0.0122454
0.012252
0.0122539
0.0122543
0.012254
0.0122521
0.0122455
0.0122455
0.012252
0.0122538
0.0122542
0.0122538
0.012252
0.0122454
0.012252
0.0122544
0.0122551
0.0122553
0.0122552
0.0122545
0.012252
0.0122538
0.0122551
0.0122555
0.0122556
0.0122556
0.0122553
0.0122539
0.0122542
0.0122553
0.0122556
0.0122557
0.0122556
0.0122554
0.0122543
0.0122539
0.0122552
0.0122556
0.0122556
0.0122556
0.0122553
0.0122539
0.012252
0.0122545
0.0122553
0.0122554
0.0122553
0.0122546
0.0122521
0.0122454
0.012252
0.0122539
0.0122543
0.0122539
0.0122521
0.0122454
0.0122456
0.0122521
0.012254
0.0122543
0.012254
0.0122521
0.0122455
0.0122521
0.0122545
0.0122552
0.0122554
0.0122553
0.0122546
0.0122521
0.0122539
0.0122552
0.0122556
0.0122557
0.0122557
0.0122554
0.012254
0.0122543
0.0122554
0.0122557
0.0122558
0.0122557
0.0122555
0.0122544
0.012254
0.0122553
0.0122557
0.0122557
0.0122557
0.0122554
0.012254
0.0122521
0.0122547
0.0122554
0.0122555
0.0122554
0.0122548
0.0122522
0.0122455
0.0122521
0.012254
0.0122544
0.012254
0.0122522
0.0122456
0.0122458
0.0122524
0.0122543
0.0122547
0.0122543
0.0122525
0.0122459
0.0122524
0.0122549
0.0122556
0.0122557
0.0122556
0.012255
0.0122525
0.0122542
0.0122556
0.0122559
0.012256
0.012256
0.0122557
0.0122544
0.0122546
0.0122557
0.012256
0.0122561
0.0122561
0.0122558
0.0122547
0.0122543
0.0122556
0.012256
0.0122561
0.012256
0.0122557
0.0122544
0.0122525
0.012255
0.0122557
0.0122559
0.0122557
0.0122551
0.0122526
0.0122459
0.0122525
0.0122544
0.0122548
0.0122544
0.0122526
0.012246
0.0122464
0.012253
0.0122548
0.0122552
0.0122548
0.012253
0.0122465
0.012253
0.0122556
0.0122562
0.0122564
0.0122562
0.0122556
0.0122531
0.0122548
0.0122562
0.0122565
0.0122566
0.0122565
0.0122562
0.0122548
0.0122552
0.0122564
0.0122566
0.0122566
0.0122566
0.0122563
0.0122552
0.0122548
0.0122562
0.0122565
0.0122566
0.0122565
0.0122562
0.0122548
0.012253
0.0122556
0.0122562
0.0122563
0.0122562
0.0122556
0.012253
0.0122465
0.0122531
0.0122548
0.0122552
0.0122548
0.012253
0.0122464
0.0122469
0.0122536
0.0122553
0.0122557
0.0122553
0.0122535
0.0122469
0.0122536
0.0122563
0.0122568
0.0122569
0.0122567
0.0122561
0.0122535
0.0122554
0.0122568
0.012257
0.012257
0.012257
0.0122566
0.0122552
0.0122557
0.0122569
0.012257
0.012257
0.012257
0.0122567
0.0122556
0.0122553
0.0122567
0.0122569
0.012257
0.0122569
0.0122566
0.0122552
0.0122535
0.0122561
0.0122566
0.0122567
0.0122566
0.0122559
0.0122534
0.0122469
0.0122535
0.0122552
0.0122556
0.0122552
0.0122534
0.0122468
0.0122469
0.0122536
0.0122554
0.0122557
0.0122554
0.0122536
0.012247
0.0122536
0.0122562
0.0122568
0.0122569
0.0122568
0.0122561
0.0122536
0.0122554
0.0122568
0.012257
0.0122571
0.012257
0.0122567
0.0122553
0.0122557
0.0122569
0.012257
0.0122571
0.012257
0.0122568
0.0122557
0.0122554
0.0122568
0.012257
0.012257
0.0122569
0.0122566
0.0122553
0.0122536
0.0122561
0.0122567
0.0122568
0.0122567
0.012256
0.0122535
0.012247
0.0122536
0.0122553
0.0122557
0.0122553
0.0122535
0.0122469
0.0122467
0.0122534
0.0122552
0.0122556
0.0122552
0.0122535
0.0122469
0.0122534
0.012256
0.0122566
0.0122567
0.0122566
0.012256
0.0122535
0.0122552
0.0122566
0.0122569
0.0122569
0.0122568
0.0122566
0.0122552
0.0122556
0.0122567
0.0122569
0.0122569
0.0122569
0.0122567
0.0122556
0.0122552
0.0122566
0.0122568
0.0122569
0.0122568
0.0122565
0.0122552
0.0122535
0.012256
0.0122566
0.0122567
0.0122565
0.0122559
0.0122534
0.0122469
0.0122535
0.0122552
0.0122555
0.0122552
0.0122533
0.0122467
0.0122466
0.0122532
0.012255
0.0122554
0.012255
0.0122532
0.0122465
0.0122532
0.0122557
0.0122563
0.0122564
0.0122563
0.0122556
0.0122531
0.012255
0.0122564
0.0122566
0.0122566
0.0122565
0.0122562
0.0122549
0.0122554
0.0122565
0.0122566
0.0122566
0.0122565
0.0122563
0.0122552
0.012255
0.0122563
0.0122565
0.0122565
0.0122565
0.0122562
0.0122548
0.0122532
0.0122556
0.0122562
0.0122563
0.0122562
0.0122555
0.012253
0.0122465
0.0122531
0.0122548
0.0122552
0.0122548
0.012253
0.0122463
0.0122461
0.0122526
0.0122544
0.0122547
0.0122543
0.0122525
0.0122459
0.0122526
0.012255
0.0122556
0.0122557
0.0122556
0.012255
0.0122525
0.0122544
0.0122556
0.012256
0.012256
0.012256
0.0122557
0.0122544
0.0122547
0.0122557
0.012256
0.0122561
0.012256
0.0122558
0.0122547
0.0122543
0.0122556
0.012256
0.012256
0.012256
0.0122557
0.0122543
0.0122525
0.012255
0.0122557
0.0122558
0.0122557
0.0122551
0.0122526
0.0122459
0.0122525
0.0122543
0.0122547
0.0122544
0.0122526
0.0122461
0.0105385
0.0116072
0.0121912
0.0120728
0.0118206
0.0113451
0.0106381
0.0115548
0.012255
0.0122394
0.0121952
0.0120864
0.0118452
0.0113797
0.0106746
0.0115433
0.0122514
0.0122336
0.0121865
0.012071
0.0118196
0.0113439
0.0106378
0.0115537
0.0122447
0.0122206
0.0121598
0.012021
0.0117387
0.0112349
0.0105322
0.0116072
0.0122275
0.0121877
0.0120987
0.0119184
0.0115875
0.0110464
0.0103641
0.0117302
0.0122274
0.0121878
0.0120987
0.0119182
0.0115868
0.0110451
0.0103619
0.0117251
0.0122441
0.0122208
0.0121603
0.0120215
0.0117395
0.0112361
0.0105334
0.011611
0.0122494
0.0122333
0.0121867
0.0120713
0.0118201
0.0113446
0.0106388
0.0115561
0.0122505
0.012236
0.0121937
0.0120859
0.011845
0.0113796
0.0106744
0.0115422
0.0122491
0.0122326
0.0121861
0.0120709
0.0118196
0.0113438
0.0106377
0.0115527
0.0122439
0.0122204
0.0121598
0.012021
0.0117387
0.0112348
0.0105319
0.0116064
0.0122273
0.0121876
0.0120986
0.0119182
0.011587
0.0110454
0.0103626
0.0117265
0.0122275
0.0121879
0.0120988
0.0119183
0.011587
0.0110454
0.0103624
0.0117254
0.012244
0.0122206
0.0121601
0.0120214
0.0117393
0.0112355
0.0105329
0.0116085
0.012249
0.0122326
0.0121863
0.0120711
0.0118199
0.0113443
0.0106383
0.0115545
0.0122502
0.0122358
0.0121936
0.0120858
0.011845
0.0113794
0.010674
0.0115408
0.012249
0.0122326
0.0121862
0.0120709
0.0118196
0.0113437
0.0106373
0.0115514
0.012244
0.0122205
0.0121599
0.012021
0.0117386
0.0112346
0.0105315
0.0116052
0.0122274
0.0121877
0.0120986
0.0119181
0.0115868
0.0110451
0.010362
0.0117248
0.0122276
0.012188
0.012099
0.0119187
0.0115877
0.0110465
0.010364
0.0117293
0.0122441
0.0122206
0.0121601
0.0120215
0.0117393
0.0112355
0.0105327
0.0116076
0.012249
0.0122326
0.0121863
0.0120711
0.0118198
0.011344
0.0106375
0.0115514
0.0122502
0.0122358
0.0121936
0.0120858
0.0118449
0.0113791
0.0106733
0.0115381
0.012249
0.0122326
0.0121862
0.0120709
0.0118194
0.0113434
0.0106368
0.0115495
0.012244
0.0122205
0.0121599
0.012021
0.0117386
0.0112345
0.0105312
0.0116039
0.0122275
0.0121878
0.0120988
0.0119183
0.0115871
0.0110456
0.0103626
0.011726
0.0122275
0.012188
0.0120991
0.0119189
0.0115881
0.011047
0.0103647
0.0117313
0.012244
0.0122206
0.0121601
0.0120214
0.0117392
0.0112355
0.0105327
0.0116075
0.012249
0.0122326
0.0121862
0.012071
0.0118197
0.0113439
0.0106373
0.0115505
0.0122502
0.0122357
0.0121936
0.0120858
0.0118448
0.0113791
0.0106732
0.0115374
0.012249
0.0122326
0.0121862
0.0120709
0.0118195
0.0113436
0.0106369
0.0115491
0.012244
0.0122205
0.01216
0.0120212
0.0117388
0.0112348
0.0105316
0.0116042
0.0122275
0.0121879
0.0120989
0.0119185
0.0115874
0.0110459
0.010363
0.0117266
0.0122273
0.0121878
0.0120989
0.0119187
0.0115879
0.0110467
0.0103643
0.0117303
0.0122438
0.0122204
0.0121599
0.0120212
0.0117389
0.0112351
0.0105321
0.0116059
0.0122488
0.0122324
0.0121861
0.0120708
0.0118195
0.0113436
0.010637
0.0115497
0.01225
0.0122356
0.0121934
0.0120857
0.0118447
0.0113791
0.0106732
0.0115377
0.0122488
0.0122324
0.0121861
0.0120709
0.0118196
0.0113438
0.0106374
0.0115508
0.0122438
0.0122204
0.0121599
0.0120212
0.011739
0.0112352
0.0105323
0.0116063
0.0122274
0.0121878
0.0120989
0.0119186
0.0115876
0.0110462
0.0103634
0.0117275
0.012227
0.0121874
0.0120985
0.0119183
0.0115874
0.0110461
0.0103635
0.0117285
0.0122435
0.0122201
0.0121595
0.0120206
0.0117382
0.0112341
0.0105307
0.0116025
0.0122486
0.0122322
0.0121858
0.0120704
0.0118189
0.0113428
0.0106359
0.0115468
0.0122498
0.0122354
0.0121932
0.0120854
0.0118444
0.0113785
0.0106724
0.0115354
0.0122486
0.0122322
0.0121859
0.0120707
0.0118194
0.0113434
0.0106367
0.0115489
0.0122436
0.0122202
0.0121598
0.0120211
0.0117389
0.0112351
0.0105322
0.0116064
0.0122271
0.0121876
0.0120988
0.0119187
0.0115879
0.0110469
0.0103647
0.0117316
0.0122268
0.0121872
0.0120984
0.0119181
0.0115872
0.0110458
0.0103629
0.0117267
0.0122433
0.0122199
0.0121594
0.0120206
0.0117382
0.0112341
0.0105306
0.0116015
0.0122484
0.012232
0.0121857
0.0120704
0.011819
0.0113429
0.0106358
0.0115459
0.0122496
0.0122352
0.0121931
0.0120853
0.0118443
0.0113784
0.0106721
0.0115341
0.0122484
0.012232
0.0121857
0.0120704
0.011819
0.0113429
0.010636
0.0115467
0.0122434
0.01222
0.0121595
0.0120208
0.0117385
0.0112345
0.0105312
0.0116037
0.0122269
0.0121873
0.0120985
0.0119184
0.0115877
0.0110466
0.0103645
0.011732
0.0122268
0.0121873
0.0120985
0.0119184
0.0115876
0.0110463
0.0103635
0.0117281
0.0122433
0.01222
0.0121596
0.0120211
0.011739
0.0112354
0.0105327
0.011608
0.0122484
0.012232
0.0121858
0.0120707
0.0118195
0.0113438
0.0106375
0.0115512
0.0122496
0.0122352
0.0121931
0.0120854
0.0118445
0.0113789
0.010673
0.0115368
0.0122483
0.012232
0.0121857
0.0120705
0.0118191
0.0113432
0.0106363
0.0115473
0.0122433
0.0122199
0.0121594
0.0120206
0.0117382
0.0112342
0.0105309
0.0116026
0.0122268
0.0121871
0.0120982
0.0119179
0.0115867
0.0110453
0.0103624
0.0117264
0.0122269
0.0121875
0.0120987
0.0119186
0.0115879
0.0110469
0.0103649
0.0117329
0.0122435
0.0122201
0.0121598
0.0120213
0.0117393
0.0112359
0.0105338
0.0116118
0.0122485
0.0122322
0.0121859
0.0120709
0.0118197
0.0113441
0.0106379
0.0115527
0.0122497
0.0122353
0.0121933
0.0120856
0.0118447
0.0113791
0.0106733
0.0115378
0.0122485
0.0122322
0.0121859
0.0120707
0.0118194
0.0113435
0.0106369
0.011549
0.0122435
0.0122201
0.0121596
0.0120208
0.0117385
0.0112345
0.0105312
0.0116032
0.0122269
0.0121873
0.0120983
0.0119179
0.0115866
0.0110449
0.0103617
0.0117239
0.0122273
0.0121878
0.0120989
0.0119187
0.0115878
0.0110467
0.0103644
0.011731
0.0122438
0.0122204
0.01216
0.0120213
0.0117391
0.0112353
0.0105323
0.0116062
0.0122488
0.0122325
0.0121861
0.0120709
0.0118196
0.0113436
0.0106366
0.0115477
0.01225
0.0122356
0.0121935
0.0120857
0.0118447
0.0113788
0.0106724
0.0115344
0.0122488
0.0122325
0.0121861
0.0120709
0.0118195
0.0113434
0.0106364
0.011547
0.0122438
0.0122204
0.0121599
0.0120211
0.0117387
0.0112346
0.0105313
0.011603
0.0122274
0.0121877
0.0120988
0.0119184
0.0115873
0.0110457
0.0103627
0.0117259
0.0122279
0.0121882
0.0120992
0.0119188
0.0115877
0.0110462
0.0103633
0.0117277
0.0122443
0.0122208
0.0121601
0.0120211
0.0117384
0.0112341
0.0105304
0.0116004
0.0122493
0.0122328
0.0121863
0.0120709
0.0118192
0.0113429
0.0106357
0.0115448
0.0122505
0.012236
0.0121937
0.0120858
0.0118446
0.0113786
0.0106721
0.0115328
0.0122493
0.0122328
0.0121864
0.012071
0.0118194
0.0113432
0.010636
0.0115451
0.0122443
0.0122208
0.0121602
0.0120213
0.0117388
0.0112346
0.0105309
0.0116014
0.0122278
0.0121882
0.0120992
0.0119189
0.0115878
0.0110465
0.0103637
0.0117278
0.0122283
0.0121886
0.0120994
0.0119189
0.0115877
0.0110462
0.0103632
0.0117268
0.0122448
0.0122211
0.0121603
0.0120212
0.0117386
0.0112342
0.0105305
0.0115999
0.0122497
0.0122331
0.0121866
0.0120711
0.0118196
0.0113433
0.0106361
0.0115449
0.0122508
0.0122363
0.012194
0.0120861
0.011845
0.0113791
0.0106726
0.0115331
0.0122496
0.0122332
0.0121868
0.0120714
0.01182
0.0113438
0.0106366
0.0115458
0.0122447
0.0122212
0.0121606
0.0120219
0.0117395
0.0112355
0.0105321
0.0116036
0.0122283
0.0121887
0.0120998
0.0119196
0.0115887
0.0110477
0.0103654
0.0117324
0.0122285
0.0121887
0.0120996
0.0119191
0.0115879
0.0110464
0.0103636
0.0117272
0.0122449
0.0122213
0.0121606
0.0120217
0.0117393
0.0112352
0.0105319
0.0116033
0.0122498
0.0122333
0.0121869
0.0120715
0.0118201
0.011344
0.0106372
0.011548
0.0122509
0.0122364
0.0121942
0.0120864
0.0118453
0.0113795
0.0106732
0.0115352
0.0122498
0.0122333
0.0121869
0.0120716
0.0118203
0.0113443
0.0106375
0.0115488
0.0122448
0.0122214
0.0121608
0.0120221
0.0117399
0.0112361
0.0105334
0.0116081
0.0122284
0.0121888
0.0120999
0.0119198
0.011589
0.0110481
0.0103661
0.0117348
0.0122283
0.0121886
0.0120995
0.011919
0.0115878
0.0110463
0.0103634
0.0117267
0.0122448
0.0122212
0.0121605
0.0120215
0.011739
0.0112348
0.0105312
0.0116017
0.0122497
0.0122332
0.0121867
0.0120713
0.0118198
0.0113437
0.0106364
0.0115456
0.0122508
0.0122364
0.0121941
0.0120862
0.0118452
0.0113792
0.0106727
0.0115333
0.0122496
0.0122332
0.0121868
0.0120714
0.01182
0.0113439
0.0106368
0.0115465
0.0122446
0.0122211
0.0121605
0.0120217
0.0117393
0.0112353
0.0105319
0.0116034
0.0122281
0.0121885
0.0120995
0.0119192
0.0115881
0.0110468
0.0103641
0.0117291
0.0122279
0.0121882
0.0120991
0.0119187
0.0115875
0.011046
0.0103629
0.0117255
0.0122444
0.0122209
0.0121602
0.0120213
0.0117387
0.0112345
0.0105307
0.0116003
0.0122493
0.0122329
0.0121865
0.0120711
0.0118196
0.0113434
0.0106361
0.0115447
0.0122505
0.012236
0.0121939
0.012086
0.011845
0.0113791
0.0106726
0.0115333
0.0122493
0.0122329
0.0121865
0.0120712
0.0118198
0.0113437
0.0106365
0.0115461
0.0122442
0.0122208
0.0121602
0.0120214
0.011739
0.0112349
0.0105313
0.0116018
0.0122277
0.0121881
0.0120991
0.0119188
0.0115877
0.0110463
0.0103634
0.011727
0.0122273
0.0121878
0.012099
0.0119187
0.0115878
0.0110464
0.0103635
0.0117274
0.0122438
0.0122205
0.01216
0.0120213
0.011739
0.0112351
0.0105318
0.0116042
0.0122488
0.0122325
0.0121862
0.012071
0.0118197
0.0113437
0.0106369
0.0115481
0.01225
0.0122356
0.0121936
0.0120858
0.0118449
0.0113791
0.0106728
0.011535
0.0122488
0.0122325
0.0121862
0.012071
0.0118197
0.0113437
0.0106367
0.0115473
0.0122439
0.0122206
0.0121601
0.0120214
0.0117392
0.0112353
0.0105321
0.011605
0.0122275
0.012188
0.0120992
0.0119191
0.0115882
0.0110471
0.0103647
0.0117316
0.0122274
0.0121877
0.0120985
0.0119178
0.0115862
0.0110442
0.0103606
0.0117215
0.0122438
0.0122204
0.0121598
0.0120209
0.0117385
0.0112346
0.0105319
0.0116068
0.0122488
0.0122325
0.0121861
0.0120709
0.0118198
0.0113443
0.0106387
0.0115568
0.01225
0.0122356
0.0121935
0.0120858
0.0118451
0.0113799
0.0106753
0.0115461
0.0122488
0.0122325
0.0121862
0.012071
0.0118199
0.0113445
0.010639
0.0115574
0.0122438
0.0122204
0.0121599
0.0120211
0.0117388
0.011235
0.0105323
0.0116073
0.0122273
0.0121876
0.0120984
0.0119177
0.0115861
0.011044
0.0103605
0.0117208
0.0122274
0.0121877
0.0120984
0.0119177
0.011586
0.0110439
0.0103601
0.01172
0.0122439
0.0122204
0.0121597
0.0120207
0.0117381
0.011234
0.0105309
0.0116042
0.012249
0.0122325
0.0121861
0.0120708
0.0118195
0.0113436
0.0106374
0.0115521
0.0122502
0.0122357
0.0121936
0.0120858
0.011845
0.0113795
0.0106742
0.0115417
0.012249
0.0122326
0.0121863
0.0120711
0.0118199
0.0113443
0.0106383
0.0115546
0.012244
0.0122206
0.01216
0.0120213
0.011739
0.0112352
0.0105323
0.0116069
0.0122275
0.0121879
0.0120988
0.0119182
0.0115867
0.0110448
0.0103612
0.0117219
0.0122275
0.0121877
0.0120986
0.011918
0.0115865
0.0110446
0.0103611
0.0117219
0.012244
0.0122204
0.0121597
0.0120206
0.0117378
0.0112335
0.01053
0.0116011
0.012249
0.0122325
0.012186
0.0120706
0.011819
0.0113428
0.010636
0.011548
0.0122502
0.0122357
0.0121935
0.0120856
0.0118446
0.0113787
0.0106727
0.011537
0.012249
0.0122326
0.0121863
0.012071
0.0118196
0.0113437
0.0106369
0.01155
0.0122441
0.0122206
0.0121601
0.0120214
0.0117391
0.0112352
0.0105321
0.0116058
0.0122276
0.012188
0.0120991
0.0119189
0.0115878
0.0110463
0.0103632
0.0117268
0.0122275
0.0121878
0.0120988
0.0119184
0.0115872
0.0110455
0.0103624
0.0117249
0.012244
0.0122204
0.0121598
0.0120209
0.0117383
0.0112342
0.0105308
0.0116023
0.0122489
0.0122325
0.012186
0.0120707
0.0118192
0.0113431
0.0106362
0.0115475
0.0122501
0.0122357
0.0121935
0.0120856
0.0118445
0.0113786
0.0106725
0.0115356
0.0122489
0.0122325
0.0121862
0.0120709
0.0118195
0.0113434
0.0106366
0.0115485
0.012244
0.0122206
0.0121601
0.0120214
0.0117391
0.0112352
0.0105321
0.0116055
0.0122276
0.012188
0.0120992
0.011919
0.0115882
0.011047
0.0103645
0.0117302
0.0122273
0.0121877
0.0120988
0.0119186
0.0115876
0.0110462
0.0103635
0.0117279
0.0122438
0.0122204
0.0121598
0.0120211
0.0117388
0.0112349
0.0105319
0.0116051
0.0122487
0.0122324
0.012186
0.0120708
0.0118194
0.0113435
0.0106368
0.0115491
0.0122499
0.0122355
0.0121934
0.0120856
0.0118446
0.0113788
0.0106728
0.0115362
0.0122487
0.0122324
0.012186
0.0120708
0.0118194
0.0113434
0.0106367
0.0115487
0.0122438
0.0122204
0.0121599
0.0120212
0.0117389
0.011235
0.010532
0.0116054
0.0122273
0.0121878
0.012099
0.0119189
0.0115881
0.011047
0.0103646
0.0117308
0.012227
0.0121875
0.0120986
0.0119185
0.0115877
0.0110466
0.0103644
0.0117311
0.0122435
0.0122201
0.0121596
0.0120208
0.0117385
0.0112345
0.0105313
0.0116037
0.0122485
0.0122321
0.0121858
0.0120705
0.0118191
0.011343
0.0106361
0.0115474
0.0122497
0.0122353
0.0121932
0.0120853
0.0118443
0.0113784
0.0106723
0.011535
0.0122485
0.0122321
0.0121858
0.0120705
0.011819
0.011343
0.0106361
0.0115471
0.0122434
0.0122201
0.0121596
0.0120209
0.0117386
0.0112346
0.0105314
0.0116038
0.012227
0.0121875
0.0120987
0.0119187
0.011588
0.0110471
0.0103652
0.0117336
0.0122268
0.0121873
0.0120984
0.0119182
0.0115873
0.0110461
0.0103634
0.0117286
0.0122432
0.0122199
0.0121594
0.0120205
0.0117381
0.011234
0.0105305
0.0116017
0.0122483
0.012232
0.0121856
0.0120703
0.0118189
0.0113427
0.0106357
0.011546
0.0122495
0.0122351
0.012193
0.0120852
0.0118442
0.0113783
0.010672
0.0115339
0.0122483
0.012232
0.0121857
0.0120705
0.0118191
0.011343
0.0106359
0.0115463
0.0122432
0.0122199
0.0121596
0.0120209
0.0117387
0.0112348
0.0105317
0.0116044
0.0122267
0.0121873
0.0120986
0.0119187
0.011588
0.0110473
0.0103656
0.0117355
0.0122267
0.0121871
0.0120982
0.0119177
0.0115864
0.0110445
0.0103611
0.0117228
0.0122432
0.0122198
0.0121593
0.0120205
0.011738
0.0112339
0.0105306
0.0116021
0.0122482
0.0122319
0.0121856
0.0120704
0.0118191
0.0113431
0.0106363
0.0115474
0.0122494
0.0122351
0.0121931
0.0120853
0.0118444
0.0113787
0.0106726
0.0115353
0.0122482
0.012232
0.0121857
0.0120706
0.0118194
0.0113435
0.010637
0.0115494
0.0122432
0.0122199
0.0121596
0.012021
0.011739
0.0112353
0.0105326
0.0116077
0.0122267
0.0121873
0.0120986
0.0119185
0.0115877
0.0110465
0.0103639
0.0117302
0.0122268
0.0121872
0.0120981
0.0119174
0.0115859
0.0110438
0.0103601
0.0117197
0.0122433
0.0122199
0.0121593
0.0120204
0.0117378
0.0112335
0.01053
0.0116006
0.0122483
0.012232
0.0121857
0.0120705
0.0118191
0.011343
0.010636
0.0115464
0.0122495
0.0122352
0.0121932
0.0120855
0.0118446
0.0113788
0.0106727
0.0115353
0.0122483
0.0122321
0.0121859
0.0120707
0.0118194
0.0113436
0.010637
0.0115494
0.0122433
0.01222
0.0121596
0.0120209
0.0117385
0.0112345
0.0105313
0.0116039
0.0122268
0.0121873
0.0120983
0.0119178
0.0115864
0.0110445
0.010361
0.011723
0.0122273
0.0121876
0.0120986
0.0119182
0.011587
0.0110453
0.010362
0.0117235
0.0122437
0.0122203
0.0121597
0.0120208
0.0117383
0.0112341
0.0105304
0.0116003
0.0122487
0.0122324
0.012186
0.0120707
0.0118193
0.0113431
0.0106359
0.011545
0.0122499
0.0122355
0.0121934
0.0120857
0.0118447
0.0113788
0.0106723
0.0115335
0.0122487
0.0122324
0.0121861
0.0120708
0.0118194
0.0113433
0.0106361
0.011546
0.0122436
0.0122203
0.0121597
0.0120208
0.0117382
0.011234
0.0105304
0.0116008
0.0122271
0.0121875
0.0120984
0.0119178
0.0115864
0.0110445
0.0103609
0.0117214
0.0122279
0.0121884
0.0120995
0.0119194
0.0115887
0.0110478
0.0103661
0.0117352
0.0122444
0.0122209
0.0121604
0.0120217
0.0117395
0.0112356
0.0105326
0.0116057
0.0122493
0.0122329
0.0121865
0.0120712
0.0118198
0.0113437
0.0106364
0.0115455
0.0122505
0.012236
0.0121938
0.0120859
0.0118448
0.0113788
0.0106722
0.0115324
0.0122493
0.0122329
0.0121864
0.012071
0.0118195
0.0113433
0.010636
0.0115448
0.0122443
0.0122209
0.0121603
0.0120214
0.011739
0.0112349
0.0105314
0.0116023
0.0122279
0.0121883
0.0120994
0.0119192
0.0115883
0.0110472
0.010365
0.011732
0.0122284
0.0121888
0.0120998
0.0119197
0.011589
0.0110482
0.0103667
0.0117371
0.0122449
0.0122214
0.0121608
0.012022
0.0117398
0.0112361
0.0105332
0.0116074
0.0122498
0.0122333
0.0121868
0.0120715
0.0118201
0.0113441
0.010637
0.011547
0.012251
0.0122364
0.0121942
0.0120863
0.0118452
0.0113793
0.0106728
0.0115334
0.0122499
0.0122333
0.0121868
0.0120714
0.01182
0.0113438
0.0106366
0.0115459
0.012245
0.0122214
0.0121607
0.0120219
0.0117395
0.0112355
0.0105323
0.0116047
0.0122286
0.0121888
0.0120998
0.0119195
0.0115887
0.0110477
0.0103659
0.0117349
0.0122285
0.0121888
0.0120998
0.0119195
0.0115885
0.0110474
0.010365
0.011731
0.012245
0.0122214
0.0121608
0.0120221
0.0117398
0.0112361
0.0105333
0.0116079
0.0122499
0.0122334
0.0121869
0.0120717
0.0118204
0.0113446
0.0106381
0.0115509
0.0122511
0.0122365
0.0121943
0.0120864
0.0118455
0.0113798
0.010674
0.0115378
0.0122499
0.0122334
0.0121869
0.0120715
0.0118202
0.0113443
0.0106376
0.0115495
0.0122449
0.0122213
0.0121606
0.0120217
0.0117394
0.0112354
0.0105322
0.011604
0.0122285
0.0121887
0.0120995
0.011919
0.0115878
0.0110464
0.0103637
0.011728
0.0122284
0.0121887
0.0120997
0.0119194
0.0115886
0.0110475
0.0103654
0.0117326
0.0122448
0.0122213
0.0121607
0.012022
0.0117397
0.0112359
0.010533
0.0116071
0.0122497
0.0122333
0.0121868
0.0120715
0.0118202
0.0113443
0.0106375
0.0115489
0.0122509
0.0122364
0.0121941
0.0120863
0.0118453
0.0113795
0.0106734
0.0115357
0.0122497
0.0122332
0.0121868
0.0120714
0.0118201
0.011344
0.0106371
0.0115476
0.0122447
0.0122211
0.0121605
0.0120217
0.0117393
0.0112352
0.0105318
0.0116031
0.0122282
0.0121884
0.0120994
0.011919
0.0115879
0.0110464
0.0103636
0.0117274
0.012228
0.0121883
0.0120993
0.011919
0.011588
0.0110468
0.0103642
0.0117293
0.0122444
0.012221
0.0121604
0.0120216
0.0117392
0.0112352
0.0105317
0.0116031
0.0122494
0.012233
0.0121866
0.0120713
0.0118199
0.0113438
0.0106368
0.0115468
0.0122506
0.0122362
0.012194
0.0120861
0.0118451
0.0113793
0.010673
0.0115346
0.0122494
0.012233
0.0121866
0.0120713
0.0118198
0.0113437
0.0106366
0.0115462
0.0122445
0.012221
0.0121604
0.0120214
0.011739
0.0112348
0.0105311
0.0116014
0.012228
0.0121883
0.0120992
0.0119188
0.0115876
0.0110461
0.010363
0.0117258
0.0122273
0.0121879
0.012099
0.0119187
0.0115877
0.0110463
0.0103634
0.0117273
0.0122437
0.0122204
0.01216
0.0120213
0.011739
0.011235
0.0105316
0.0116035
0.0122487
0.0122325
0.0121862
0.012071
0.0118197
0.0113437
0.0106369
0.0115485
0.0122499
0.0122356
0.0121935
0.0120858
0.0118449
0.0113791
0.010673
0.0115359
0.0122487
0.0122325
0.0121862
0.0120709
0.0118196
0.0113436
0.0106366
0.0115473
0.0122437
0.0122205
0.01216
0.0120212
0.0117389
0.0112349
0.0105314
0.0116027
0.0122273
0.0121878
0.012099
0.0119187
0.0115877
0.0110464
0.0103636
0.0117281
0.0122273
0.0121876
0.0120983
0.0119175
0.0115858
0.0110437
0.0103599
0.0117191
0.0122438
0.0122204
0.0121598
0.012021
0.0117386
0.0112348
0.0105319
0.0116063
0.0122488
0.0122325
0.0121861
0.012071
0.0118198
0.0113444
0.0106388
0.0115569
0.01225
0.0122356
0.0121935
0.0120858
0.0118451
0.0113799
0.0106752
0.0115455
0.0122488
0.0122324
0.0121861
0.0120709
0.0118197
0.0113442
0.0106384
0.0115557
0.0122438
0.0122204
0.0121598
0.0120208
0.0117384
0.0112345
0.0105317
0.0116062
0.0122273
0.0121876
0.0120984
0.0119177
0.0115862
0.0110442
0.0103608
0.0117218
0.0122275
0.0121879
0.0120988
0.0119182
0.0115867
0.0110448
0.0103611
0.0117216
0.012244
0.0122206
0.01216
0.0120213
0.011739
0.0112352
0.0105324
0.011607
0.012249
0.0122326
0.0121863
0.0120711
0.0118199
0.0113443
0.0106384
0.011555
0.0122502
0.0122357
0.0121936
0.0120858
0.011845
0.0113795
0.0106743
0.0115421
0.0122489
0.0122325
0.0121861
0.0120708
0.0118195
0.0113437
0.0106375
0.0115522
0.0122439
0.0122204
0.0121597
0.0120207
0.0117382
0.0112341
0.010531
0.0116045
0.0122274
0.0121877
0.0120984
0.0119177
0.0115861
0.011044
0.0103604
0.0117207
0.0122276
0.012188
0.0120991
0.0119189
0.0115879
0.0110464
0.0103633
0.011727
0.0122441
0.0122206
0.0121601
0.0120214
0.0117392
0.0112353
0.0105323
0.0116062
0.012249
0.0122326
0.0121863
0.012071
0.0118197
0.0113438
0.0106372
0.0115506
0.0122502
0.0122357
0.0121935
0.0120857
0.0118447
0.0113789
0.0106729
0.0115376
0.012249
0.0122325
0.012186
0.0120706
0.0118191
0.011343
0.0106362
0.0115485
0.012244
0.0122204
0.0121596
0.0120205
0.0117379
0.0112335
0.0105301
0.0116015
0.0122275
0.0121877
0.0120985
0.0119178
0.0115863
0.0110443
0.0103607
0.0117211
0.0122276
0.012188
0.0120992
0.0119191
0.0115882
0.0110471
0.0103646
0.0117306
0.012244
0.0122206
0.0121601
0.0120214
0.0117391
0.0112353
0.0105322
0.0116057
0.012249
0.0122326
0.0121862
0.0120709
0.0118195
0.0113435
0.0106367
0.0115487
0.0122501
0.0122357
0.0121935
0.0120856
0.0118445
0.0113786
0.0106725
0.0115358
0.0122489
0.0122325
0.012186
0.0120706
0.0118191
0.011343
0.0106361
0.0115473
0.0122439
0.0122204
0.0121597
0.0120208
0.0117382
0.011234
0.0105305
0.0116016
0.0122275
0.0121878
0.0120987
0.0119182
0.0115868
0.0110451
0.0103617
0.0117229
0.0122273
0.0121878
0.012099
0.011919
0.0115882
0.0110473
0.0103653
0.0117334
0.0122438
0.0122204
0.0121599
0.0120212
0.011739
0.0112352
0.0105323
0.0116064
0.0122487
0.0122324
0.012186
0.0120708
0.0118194
0.0113434
0.0106367
0.0115486
0.0122499
0.0122355
0.0121934
0.0120856
0.0118446
0.0113788
0.0106727
0.011536
0.0122487
0.0122324
0.012186
0.0120708
0.0118194
0.0113435
0.0106367
0.0115485
0.0122438
0.0122204
0.0121599
0.0120211
0.0117388
0.0112349
0.0105318
0.0116047
0.0122273
0.0121877
0.0120988
0.0119186
0.0115877
0.0110463
0.0103636
0.0117278
0.012227
0.0121875
0.0120987
0.0119187
0.011588
0.0110472
0.0103655
0.011735
0.0122435
0.0122201
0.0121596
0.0120209
0.0117386
0.0112346
0.0105314
0.011604
0.0122485
0.0122322
0.0121858
0.0120705
0.0118191
0.011343
0.010636
0.0115471
0.0122497
0.0122353
0.0121932
0.0120854
0.0118443
0.0113785
0.0106723
0.0115351
0.0122485
0.0122322
0.0121859
0.0120706
0.0118192
0.0113432
0.0106365
0.0115481
0.0122435
0.0122201
0.0121597
0.012021
0.0117388
0.0112349
0.0105319