/*--------------------------------*- C++ -*----------------------------------*\
| =========                 |                                                 |
| \\      /  F ield         | OpenFOAM: The Open Source CFD Toolbox           |
|  \\    /   O peration     | Version:  plus.master.MPPICInterFoam            |
|   \\  /    A nd           | Web:      www.OpenFOAM.com                      |
|    \\/     M anipulation  |                                                 |
\*---------------------------------------------------------------------------*/
FoamFile
{
    version     2.0;
    format      ascii;
    class       volScalarField;
    location    "0.2";
    object      k;
}
// * * * * * * * * * * * * * * * * * * * * * * * * * * * * * * * * * * * * * //

dimensions      [0 2 -2 0 0 0 0];

internalField   nonuniform List<scalar> 
11821
(
0.00357944
0.00358016
0.00357745
0.00357985
0.00357749
0.0035723
0.00357206
0.00357677
0.00357809
0.00357838
0.00357809
0.00357677
0.00357207
0.00357676
0.00357863
0.00357913
0.00357923
0.00357913
0.00357865
0.00357682
0.00357809
0.00357913
0.00357937
0.00357942
0.00357939
0.00357919
0.00357819
0.00357838
0.00357923
0.00357942
0.00357947
0.00357946
0.00357934
0.00357855
0.00357809
0.00357913
0.00357939
0.00357948
0.00357949
0.00357932
0.00357823
0.00357677
0.00357866
0.00357919
0.00357936
0.00357934
0.00357878
0.00357684
0.00357207
0.00357683
0.0035782
0.00357858
0.00357824
0.00357684
0.00357207
0.00357211
0.00357682
0.00357814
0.00357842
0.00357813
0.0035768
0.0035721
0.00357681
0.00357869
0.00357918
0.00357928
0.00357918
0.00357868
0.00357682
0.00357813
0.00357918
0.00357942
0.00357946
0.00357942
0.00357919
0.00357815
0.00357842
0.00357928
0.00357946
0.00357949
0.00357947
0.00357929
0.00357843
0.00357813
0.00357918
0.00357942
0.00357946
0.00357943
0.00357919
0.00357814
0.00357681
0.00357868
0.00357918
0.00357929
0.00357919
0.00357869
0.00357681
0.0035721
0.00357682
0.00357814
0.00357843
0.00357814
0.00357681
0.00357208
0.00357214
0.00357684
0.00357815
0.00357843
0.00357814
0.00357681
0.00357211
0.00357684
0.00357871
0.0035792
0.0035793
0.0035792
0.0035787
0.00357683
0.00357815
0.0035792
0.00357943
0.00357948
0.00357943
0.0035792
0.00357816
0.00357843
0.0035793
0.00357948
0.00357951
0.00357948
0.00357929
0.00357844
0.00357814
0.0035792
0.00357944
0.00357948
0.00357943
0.0035792
0.00357815
0.00357682
0.0035787
0.0035792
0.00357929
0.0035792
0.0035787
0.00357682
0.00357212
0.00357683
0.00357815
0.00357844
0.00357815
0.00357682
0.00357211
0.00357212
0.00357682
0.00357813
0.00357841
0.00357812
0.0035768
0.0035721
0.00357681
0.00357868
0.00357917
0.00357927
0.00357917
0.00357868
0.00357681
0.00357813
0.00357917
0.00357941
0.00357945
0.00357941
0.00357917
0.00357813
0.00357841
0.00357927
0.00357945
0.00357948
0.00357945
0.00357927
0.00357842
0.00357812
0.00357917
0.00357941
0.00357945
0.00357941
0.00357917
0.00357813
0.0035768
0.00357868
0.00357917
0.00357927
0.00357917
0.00357868
0.00357681
0.0035721
0.00357681
0.00357813
0.00357842
0.00357813
0.00357681
0.0035721
0.00357207
0.00357676
0.00357808
0.00357836
0.00357807
0.00357675
0.00357206
0.00357676
0.00357862
0.00357911
0.00357921
0.00357911
0.00357862
0.00357676
0.00357807
0.00357911
0.00357935
0.0035794
0.00357936
0.00357912
0.00357808
0.00357836
0.00357921
0.0035794
0.00357943
0.0035794
0.00357922
0.00357837
0.00357807
0.00357911
0.00357936
0.0035794
0.00357936
0.00357912
0.00357808
0.00357675
0.00357862
0.00357912
0.00357922
0.00357913
0.00357863
0.00357676
0.00357205
0.00357676
0.00357808
0.00357837
0.00357808
0.00357676
0.00357206
0.00357199
0.00357668
0.00357801
0.0035783
0.00357801
0.00357668
0.00357197
0.00357668
0.00357853
0.00357904
0.00357914
0.00357904
0.00357855
0.00357668
0.003578
0.00357903
0.00357929
0.00357933
0.0035793
0.00357906
0.00357802
0.00357829
0.00357914
0.00357933
0.00357937
0.00357934
0.00357916
0.00357831
0.00357801
0.00357904
0.0035793
0.00357934
0.0035793
0.00357907
0.00357802
0.00357668
0.00357855
0.00357906
0.00357916
0.00357907
0.00357857
0.0035767
0.00357196
0.00357667
0.00357801
0.00357831
0.00357802
0.0035767
0.003572
0.00357193
0.00357662
0.00357795
0.00357824
0.00357795
0.00357662
0.0035719
0.00357662
0.00357847
0.00357898
0.00357908
0.00357898
0.00357849
0.00357662
0.00357795
0.00357898
0.00357924
0.00357929
0.00357925
0.00357901
0.00357797
0.00357824
0.00357908
0.00357929
0.00357933
0.0035793
0.00357912
0.00357826
0.00357795
0.00357899
0.00357925
0.0035793
0.00357926
0.00357902
0.00357797
0.00357663
0.00357849
0.00357901
0.00357912
0.00357902
0.00357852
0.00357664
0.00357191
0.00357662
0.00357796
0.00357826
0.00357797
0.00357665
0.00357193
0.00357193
0.00357661
0.00357794
0.00357823
0.00357793
0.00357661
0.00357189
0.00357661
0.00357845
0.00357896
0.00357907
0.00357897
0.00357847
0.00357661
0.00357794
0.00357896
0.00357922
0.00357927
0.00357923
0.003579
0.00357795
0.00357823
0.00357907
0.00357927
0.00357931
0.00357928
0.0035791
0.00357825
0.00357794
0.00357897
0.00357923
0.00357928
0.00357924
0.003579
0.00357796
0.00357661
0.00357848
0.003579
0.0035791
0.00357901
0.00357851
0.00357663
0.0035719
0.00357661
0.00357795
0.00357825
0.00357796
0.00357663
0.0035719
0.00357195
0.00357664
0.00357797
0.00357826
0.00357797
0.00357664
0.00357193
0.00357664
0.00357849
0.003579
0.0035791
0.003579
0.00357851
0.00357665
0.00357797
0.003579
0.00357925
0.0035793
0.00357926
0.00357903
0.00357799
0.00357826
0.0035791
0.0035793
0.00357934
0.00357931
0.00357914
0.00357829
0.00357797
0.00357901
0.00357926
0.00357931
0.00357927
0.00357904
0.003578
0.00357664
0.00357851
0.00357903
0.00357914
0.00357904
0.00357855
0.00357667
0.00357193
0.00357665
0.00357799
0.00357829
0.003578
0.00357667
0.00357196
0.00357202
0.00357673
0.00357806
0.00357835
0.00357807
0.00357674
0.00357204
0.00357673
0.00357859
0.0035791
0.0035792
0.00357911
0.00357862
0.00357676
0.00357806
0.0035791
0.00357935
0.0035794
0.00357936
0.00357913
0.00357809
0.00357835
0.0035792
0.0035794
0.00357943
0.00357941
0.00357923
0.00357838
0.00357807
0.00357911
0.00357936
0.00357941
0.00357937
0.00357914
0.0035781
0.00357675
0.00357862
0.00357913
0.00357923
0.00357914
0.00357864
0.00357677
0.00357204
0.00357676
0.00357809
0.00357838
0.0035781
0.00357678
0.00357207
0.00357219
0.00357691
0.00357823
0.00357852
0.00357823
0.00357691
0.00357221
0.00357691
0.00357879
0.00357929
0.00357939
0.00357929
0.00357879
0.00357692
0.00357823
0.00357929
0.00357952
0.00357957
0.00357952
0.00357928
0.00357823
0.00357852
0.00357938
0.00357956
0.00357959
0.00357956
0.00357938
0.00357852
0.00357823
0.00357929
0.00357952
0.00357956
0.00357952
0.00357928
0.00357823
0.00357692
0.00357879
0.00357928
0.00357938
0.00357928
0.00357878
0.0035769
0.00357222
0.00357692
0.00357823
0.00357852
0.00357823
0.0035769
0.0035722
0.00357236
0.00357708
0.00357839
0.00357866
0.00357837
0.00357705
0.00357235
0.00357709
0.00357898
0.00357945
0.00357954
0.00357943
0.00357893
0.00357705
0.00357839
0.00357946
0.00357967
0.0035797
0.00357965
0.0035794
0.00357835
0.00357867
0.00357954
0.0035797
0.00357972
0.00357968
0.00357949
0.00357863
0.00357837
0.00357943
0.00357965
0.00357968
0.00357963
0.00357939
0.00357834
0.00357705
0.00357893
0.0035794
0.00357949
0.00357939
0.00357889
0.00357702
0.00357235
0.00357705
0.00357835
0.00357863
0.00357834
0.00357702
0.00357233
0.00357235
0.00357709
0.0035784
0.00357868
0.00357839
0.00357708
0.00357238
0.00357708
0.00357898
0.00357945
0.00357955
0.00357945
0.00357895
0.00357708
0.00357839
0.00357945
0.00357967
0.00357971
0.00357966
0.00357942
0.00357838
0.00357868
0.00357954
0.0035797
0.00357972
0.00357969
0.00357951
0.00357865
0.00357839
0.00357944
0.00357966
0.00357969
0.00357965
0.00357941
0.00357837
0.00357707
0.00357895
0.00357942
0.00357951
0.00357941
0.00357891
0.00357705
0.00357238
0.00357708
0.00357838
0.00357866
0.00357837
0.00357705
0.00357237
0.00357229
0.00357701
0.00357834
0.00357863
0.00357835
0.00357704
0.00357234
0.00357701
0.0035789
0.00357939
0.00357949
0.0035794
0.00357891
0.00357704
0.00357834
0.00357939
0.00357962
0.00357966
0.00357962
0.00357938
0.00357834
0.00357863
0.00357949
0.00357966
0.00357968
0.00357965
0.00357947
0.00357862
0.00357835
0.00357939
0.00357962
0.00357965
0.00357961
0.00357937
0.00357833
0.00357703
0.0035789
0.00357938
0.00357947
0.00357937
0.00357887
0.003577
0.00357233
0.00357703
0.00357834
0.00357862
0.00357833
0.003577
0.00357229
0.00357226
0.00357697
0.00357828
0.00357856
0.00357827
0.00357694
0.00357223
0.00357697
0.00357883
0.00357932
0.0035794
0.0035793
0.0035788
0.00357693
0.00357829
0.00357932
0.00357955
0.00357957
0.00357952
0.00357928
0.00357824
0.00357857
0.00357941
0.00357957
0.00357959
0.00357955
0.00357937
0.00357852
0.00357828
0.0035793
0.00357952
0.00357955
0.00357951
0.00357927
0.00357822
0.00357695
0.0035788
0.00357928
0.00357937
0.00357927
0.00357877
0.00357689
0.00357223
0.00357693
0.00357824
0.00357851
0.00357822
0.00357689
0.00357218
0.0035721
0.00357678
0.00357809
0.00357836
0.00357807
0.00357676
0.00357206
0.00357678
0.00357861
0.0035791
0.00357919
0.00357909
0.00357861
0.00357676
0.00357809
0.0035791
0.00357935
0.00357939
0.00357936
0.00357913
0.00357809
0.00357837
0.0035792
0.00357939
0.00357943
0.0035794
0.00357922
0.00357837
0.00357808
0.0035791
0.00357936
0.0035794
0.00357936
0.00357913
0.00357809
0.00357676
0.00357862
0.00357913
0.00357922
0.00357913
0.00357864
0.00357678
0.00357206
0.00357676
0.00357808
0.00357837
0.00357809
0.00357679
0.0035721
0.0023348
0.00104101
0.00353305
0.00345749
0.00329644
0.00298269
0.00239633
0.00108279
0.00357617
0.00356581
0.00353692
0.00346617
0.00331084
0.00300215
0.00241759
0.00109751
0.00357474
0.00356303
0.00353185
0.00345696
0.0032961
0.00298232
0.00239622
0.00108269
0.00357084
0.00355476
0.00351508
0.00342682
0.00324962
0.00292194
0.00233289
0.0010409
0.0035594
0.00353327
0.00347668
0.00336514
0.00316243
0.0028154
0.00222521
0.000977215
0.00355939
0.0035333
0.00347664
0.00336495
0.00316201
0.0028147
0.00222427
0.000976924
0.0035707
0.00355483
0.00351524
0.00342704
0.00324992
0.00292234
0.0023332
0.00104114
0.00357425
0.00356295
0.00353192
0.00345709
0.00329628
0.00298257
0.00239649
0.00108286
0.00357507
0.00356496
0.00353655
0.00346605
0.00331082
0.00300214
0.00241756
0.00109743
0.00357416
0.00356276
0.00353176
0.00345694
0.00329609
0.0029823
0.00239617
0.00108262
0.00357062
0.00355469
0.00351506
0.00342679
0.00324955
0.00292182
0.00233272
0.00104085
0.00355933
0.00353323
0.00347659
0.00336495
0.00316211
0.00281491
0.00222459
0.000976996
0.00355941
0.00353332
0.00347669
0.00336502
0.00316214
0.0028149
0.00222454
0.000976937
0.00357067
0.00355478
0.0035152
0.003427
0.00324985
0.0029222
0.00233316
0.00104099
0.00357415
0.0035628
0.00353183
0.00345704
0.00329625
0.00298251
0.00239641
0.00108275
0.00357499
0.0035649
0.00353652
0.00346603
0.00331079
0.00300209
0.0024175
0.00109734
0.00357413
0.00356276
0.00353176
0.00345693
0.00329606
0.00298224
0.00239607
0.00108254
0.00357063
0.00355471
0.00351506
0.00342676
0.00324949
0.00292172
0.0023326
0.00104078
0.00355937
0.00353325
0.00347658
0.0033649
0.00316201
0.00281476
0.00222441
0.000976899
0.00355944
0.00353337
0.00347679
0.00336524
0.00316251
0.00281544
0.0022252
0.000977166
0.00357068
0.0035548
0.00351521
0.00342702
0.00324987
0.00292222
0.00233315
0.00104094
0.00357415
0.0035628
0.00353182
0.00345701
0.00329618
0.00298239
0.00239624
0.00108255
0.003575
0.0035649
0.00353652
0.00346601
0.00331073
0.00300197
0.0024173
0.00109716
0.00357414
0.00356277
0.00353176
0.0034569
0.00329599
0.00298212
0.00239592
0.00108242
0.00357065
0.00355473
0.00351507
0.00342677
0.00324948
0.0029217
0.00233257
0.0010407
0.00355939
0.00353329
0.00347665
0.00336502
0.00316219
0.00281502
0.00222472
0.000976972
0.00355943
0.00353339
0.00347684
0.00336535
0.00316268
0.00281567
0.00222546
0.000977279
0.00357067
0.00355478
0.0035152
0.00342701
0.00324987
0.00292223
0.00233318
0.00104094
0.00357413
0.00356278
0.0035318
0.00345699
0.00329616
0.00298236
0.00239621
0.00108249
0.00357498
0.00356489
0.0035365
0.003466
0.00331073
0.00300199
0.00241735
0.00109711
0.00357413
0.00356276
0.00353177
0.00345694
0.00329607
0.00298224
0.00239606
0.0010824
0.00357064
0.00355474
0.00351512
0.00342686
0.00324963
0.0029219
0.00233279
0.00104073
0.00355941
0.00353333
0.00347672
0.00336513
0.00316234
0.00281519
0.00222489
0.000977011
0.00355938
0.00353334
0.0034768
0.0033653
0.00316261
0.00281556
0.00222532
0.000977224
0.00357061
0.00355472
0.00351513
0.00342691
0.00324973
0.00292205
0.00233299
0.00104083
0.00357408
0.00356272
0.00353174
0.00345692
0.00329607
0.00298226
0.00239611
0.00108244
0.00357493
0.00356484
0.00353647
0.00346597
0.00331071
0.00300199
0.00241737
0.00109714
0.00357408
0.00356273
0.00353176
0.00345695
0.00329613
0.00298235
0.00239623
0.00108251
0.00357061
0.00355473
0.00351515
0.00342694
0.00324978
0.00292212
0.00233307
0.00104086
0.00355938
0.00353333
0.00347678
0.00336523
0.00316248
0.00281536
0.00222506
0.000977063
0.00355927
0.0035332
0.00347663
0.0033651
0.00316239
0.00281533
0.00222511
0.000977125
0.00357051
0.00355459
0.00351495
0.00342665
0.00324937
0.0029216
0.00233249
0.00104062
0.003574
0.00356263
0.00353162
0.00345674
0.0032958
0.00298191
0.00239571
0.00108225
0.00357486
0.00356478
0.00353639
0.00346586
0.00331056
0.00300178
0.00241712
0.00109698
0.00357402
0.00356267
0.0035317
0.00345689
0.00329604
0.00298223
0.00239607
0.00108239
0.00357054
0.00355467
0.0035151
0.00342691
0.00324977
0.00292212
0.00233307
0.00104086
0.00355932
0.00353329
0.00347678
0.00336532
0.00316268
0.00281569
0.00222549
0.000977302
0.00355921
0.00353315
0.00347659
0.00336506
0.00316233
0.00281525
0.00222499
0.000977023
0.00357046
0.00355457
0.00351496
0.0034267
0.00324946
0.00292171
0.00233258
0.00104056
0.00357396
0.0035626
0.00353162
0.00345677
0.00329587
0.00298201
0.0023958
0.00108219
0.00357481
0.00356473
0.00353635
0.00346583
0.00331052
0.00300174
0.00241707
0.0010969
0.00357396
0.00356261
0.00353162
0.00345677
0.00329588
0.00298202
0.00239583
0.00108225
0.00357047
0.00355459
0.003515
0.00342677
0.00324957
0.00292186
0.00233277
0.00104069
0.00355924
0.0035332
0.00347668
0.00336521
0.00316256
0.00281558
0.00222541
0.00097732
0.00355922
0.00353321
0.0034767
0.00336523
0.00316255
0.00281548
0.0022252
0.000977106
0.00357047
0.00355461
0.00351508
0.00342694
0.00324986
0.00292227
0.00233327
0.00104096
0.00357396
0.00356262
0.00353168
0.00345692
0.00329615
0.00298244
0.00239636
0.00108254
0.0035748
0.00356473
0.00353638
0.00346591
0.00331068
0.00300199
0.0024174
0.00109708
0.00357395
0.00356259
0.00353162
0.0034568
0.00329595
0.00298215
0.002396
0.00108228
0.00357045
0.00355455
0.00351493
0.00342666
0.00324943
0.0029217
0.00233261
0.00104063
0.00355918
0.0035331
0.00347649
0.00336489
0.00316208
0.00281493
0.00222465
0.000976997
0.00355927
0.00353325
0.00347675
0.00336529
0.00316265
0.00281566
0.0022255
0.000977369
0.00357051
0.00355466
0.00351514
0.00342703
0.00324999
0.00292246
0.0023335
0.0010412
0.003574
0.00356267
0.00353174
0.00345699
0.00329623
0.00298253
0.00239646
0.00108264
0.00357485
0.00356478
0.00353643
0.00346597
0.00331076
0.00300208
0.00241749
0.00109714
0.003574
0.00356265
0.00353169
0.00345689
0.00329607
0.0029823
0.00239618
0.00108239
0.00357051
0.00355462
0.00351501
0.00342676
0.00324954
0.00292184
0.00233277
0.00104066
0.00355924
0.00353315
0.00347652
0.00336488
0.00316201
0.00281478
0.00222443
0.000976851
0.00355937
0.00353332
0.00347677
0.00336526
0.00316257
0.00281555
0.00222536
0.000977261
0.00357061
0.00355474
0.00351516
0.00342697
0.00324983
0.00292218
0.00233312
0.00104085
0.00357409
0.00356275
0.00353177
0.00345696
0.00329612
0.00298229
0.0023961
0.00108231
0.00357494
0.00356486
0.00353649
0.00346598
0.0033107
0.00300193
0.00241723
0.00109692
0.00357409
0.00356274
0.00353176
0.00345693
0.00329606
0.00298223
0.00239603
0.00108226
0.00357061
0.00355472
0.00351511
0.00342685
0.00324962
0.00292189
0.00233278
0.00104065
0.00355937
0.00353329
0.0034767
0.00336511
0.00316232
0.00281516
0.00222485
0.000976969
0.00355951
0.00353342
0.00347681
0.00336523
0.00316244
0.00281529
0.00222497
0.000977074
0.00357074
0.0035548
0.00351511
0.00342675
0.0032494
0.00292154
0.00233232
0.00104049
0.00357422
0.00356282
0.00353177
0.00345684
0.00329586
0.00298192
0.00239564
0.00108211
0.00357506
0.00356495
0.00353652
0.00346595
0.00331059
0.00300175
0.00241703
0.00109681
0.00357421
0.00356283
0.0035318
0.00345691
0.00329597
0.00298206
0.00239581
0.00108214
0.00357073
0.00355481
0.00351517
0.00342687
0.00324959
0.00292181
0.00233263
0.00104055
0.0035595
0.00353342
0.00347683
0.00336528
0.00316254
0.00281545
0.00222518
0.00097708
0.00355964
0.00353352
0.00347687
0.00336523
0.00316241
0.00281524
0.0022249
0.000977022
0.00357086
0.00355489
0.00351516
0.00342677
0.00324941
0.00292156
0.00233238
0.00104045
0.00357433
0.00356291
0.00353185
0.00345693
0.00329598
0.00298208
0.00239586
0.00108212
0.00357517
0.00356505
0.00353663
0.00346608
0.00331076
0.00300196
0.00241727
0.00109683
0.00357433
0.00356295
0.00353195
0.0034571
0.00329621
0.00298236
0.00239612
0.00108218
0.00357087
0.00355497
0.00351536
0.00342713
0.00324995
0.00292226
0.00233314
0.00104069
0.00355966
0.00353361
0.00347707
0.00336559
0.00316294
0.00281593
0.0022257
0.000977341
0.00355968
0.00353357
0.00347692
0.0033653
0.00316248
0.00281533
0.00222503
0.00097704
0.00357092
0.00355498
0.00351531
0.00342702
0.00324977
0.00292206
0.00233298
0.00104066
0.00357437
0.00356299
0.00353197
0.00345711
0.00329624
0.00298242
0.00239625
0.00108232
0.00357521
0.00356511
0.0035367
0.00346619
0.00331091
0.00300216
0.00241749
0.00109697
0.00357437
0.003563
0.00353201
0.00345719
0.00329635
0.00298255
0.00239637
0.00108238
0.00357091
0.00355502
0.00351543
0.00342724
0.00325011
0.00292247
0.00233341
0.00104096
0.00355971
0.00353367
0.00347715
0.00336568
0.00316305
0.00281606
0.00222584
0.000977482
0.00355963
0.00353353
0.00347689
0.00336527
0.00316247
0.00281533
0.00222503
0.000977011
0.00357087
0.00355493
0.00351526
0.00342694
0.00324965
0.00292187
0.00233272
0.00104056
0.00357434
0.00356295
0.00353193
0.00345705
0.00329613
0.00298226
0.00239603
0.00108216
0.00357518
0.00356507
0.00353667
0.00346614
0.00331084
0.00300205
0.00241734
0.00109684
0.00357433
0.00356295
0.00353195
0.00345711
0.00329623
0.0029824
0.00239618
0.00108222
0.00357084
0.00355493
0.00351531
0.00342706
0.00324984
0.00292211
0.00233298
0.00104067
0.0035596
0.00353352
0.00347693
0.00336538
0.00316263
0.00281554
0.00222525
0.000977145
0.00355951
0.00353341
0.00347678
0.00336516
0.00316235
0.00281521
0.0022249
0.000976941
0.00357076
0.00355483
0.00351517
0.00342685
0.00324956
0.00292177
0.00233261
0.00104047
0.00357423
0.00356286
0.00353185
0.00345698
0.00329607
0.0029822
0.00239598
0.0010821
0.00357507
0.00356498
0.00353659
0.00346607
0.00331079
0.00300203
0.00241736
0.00109684
0.00357422
0.00356286
0.00353186
0.00345703
0.00329617
0.00298234
0.00239614
0.0010822
0.00357073
0.00355482
0.00351521
0.00342695
0.00324972
0.00292198
0.00233285
0.00104057
0.00355947
0.0035334
0.00347681
0.00336524
0.00316249
0.00281538
0.0022251
0.000977023
0.00355938
0.00353335
0.0034768
0.00336527
0.00316255
0.00281549
0.00222524
0.00097705
0.00357061
0.00355474
0.00351516
0.00342696
0.00324979
0.00292212
0.00233306
0.00104072
0.00357409
0.00356275
0.00353179
0.00345699
0.00329616
0.00298238
0.00239624
0.00108233
0.00357494
0.00356487
0.00353651
0.00346603
0.00331078
0.00300206
0.00241743
0.00109696
0.0035741
0.00356276
0.0035318
0.003457
0.00329616
0.00298237
0.0023962
0.00108228
0.00357064
0.00355478
0.00351521
0.00342702
0.00324986
0.00292221
0.00233314
0.00104077
0.00355944
0.00353341
0.0034769
0.00336543
0.00316278
0.00281578
0.00222557
0.000977298
0.00355935
0.00353323
0.00347652
0.00336474
0.00316171
0.00281433
0.0022239
0.000976705
0.0035706
0.00355469
0.00351503
0.00342672
0.00324946
0.00292173
0.00233269
0.00104087
0.00357409
0.00356274
0.00353176
0.00345696
0.00329616
0.00298246
0.00239642
0.00108289
0.00357493
0.00356486
0.0035365
0.00346605
0.00331088
0.00300228
0.00241779
0.00109769
0.00357408
0.00356274
0.00353178
0.003457
0.00329624
0.00298255
0.00239652
0.00108294
0.0035706
0.00355471
0.00351509
0.00342684
0.00324963
0.00292195
0.00233291
0.0010409
0.00355932
0.00353319
0.00347646
0.00336467
0.00316164
0.00281427
0.00222386
0.000976663
0.00355936
0.00353321
0.00347647
0.00336468
0.00316162
0.00281421
0.00222374
0.000976625
0.00357063
0.00355468
0.00351497
0.00342658
0.00324922
0.00292138
0.00233225
0.00104071
0.00357412
0.00356274
0.00353173
0.00345687
0.003296
0.00298218
0.00239603
0.00108258
0.00357497
0.00356489
0.00353651
0.00346601
0.00331078
0.00300209
0.00241751
0.0010974
0.00357413
0.00356278
0.00353181
0.00345701
0.00329622
0.00298248
0.00239639
0.00108276
0.00357066
0.00355477
0.00351517
0.00342693
0.00324975
0.00292206
0.00233297
0.00104089
0.00355941
0.00353332
0.00347667
0.00336496
0.00316201
0.00281467
0.00222422
0.000976734
0.00355938
0.00353324
0.00347654
0.00336482
0.00316188
0.00281459
0.0022242
0.00097674
0.00357064
0.00355466
0.00351493
0.0034265
0.00324908
0.00292118
0.00233199
0.00104052
0.00357413
0.00356272
0.00353166
0.00345672
0.00329572
0.00298178
0.00239554
0.00108232
0.00357499
0.00356488
0.00353646
0.0034659
0.00331056
0.00300173
0.00241701
0.00109709
0.00357415
0.00356279
0.0035318
0.00345697
0.0032961
0.00298225
0.00239601
0.00108246
0.00357069
0.0035548
0.00351521
0.003427
0.00324982
0.00292211
0.00233298
0.00104082
0.00355947
0.00353342
0.00347687
0.00336534
0.00316259
0.00281543
0.00222506
0.00097703
0.0035594
0.00353331
0.00347669
0.00336507
0.00316224
0.00281505
0.00222472
0.000976914
0.00357064
0.0035547
0.00351503
0.0034267
0.00324939
0.00292159
0.00233245
0.0010406
0.00357411
0.00356273
0.00353169
0.00345679
0.00329585
0.00298195
0.00239575
0.00108229
0.00357497
0.00356486
0.00353645
0.0034659
0.00331055
0.00300173
0.00241703
0.001097
0.00357413
0.00356277
0.00353178
0.00345694
0.00329605
0.00298217
0.00239594
0.00108236
0.00357066
0.00355478
0.0035152
0.003427
0.00324983
0.00292214
0.00233303
0.00104081
0.00355945
0.00353343
0.00347691
0.00336544
0.00316278
0.00281575
0.00222549
0.00097723
0.00355937
0.00353331
0.00347674
0.00336519
0.00316246
0.00281537
0.0022251
0.000977087
0.0035706
0.00355471
0.0035151
0.00342687
0.00324967
0.00292199
0.00233294
0.00104078
0.00357407
0.00356271
0.00353173
0.00345689
0.00329603
0.00298222
0.00239608
0.0010824
0.00357491
0.00356483
0.00353644
0.00346592
0.00331063
0.00300187
0.00241723
0.00109704
0.00357406
0.00356271
0.00353173
0.0034569
0.00329602
0.00298219
0.00239602
0.00108237
0.00357059
0.00355472
0.00351513
0.00342692
0.00324974
0.00292206
0.00233298
0.0010408
0.00355938
0.00353335
0.00347684
0.00336537
0.00316272
0.00281572
0.00222549
0.00097726
0.00355927
0.00353322
0.00347668
0.00336519
0.00316254
0.00281556
0.00222537
0.000977266
0.0035705
0.00355461
0.003515
0.00342675
0.00324954
0.00292183
0.00233275
0.0010407
0.00357399
0.00356264
0.00353164
0.00345678
0.00329587
0.00298201
0.00239584
0.00108229
0.00357483
0.00356476
0.00353637
0.00346583
0.00331051
0.00300171
0.00241706
0.00109696
0.00357398
0.00356263
0.00353164
0.00345678
0.00329587
0.002982
0.00239582
0.00108227
0.0035705
0.00355462
0.00351503
0.00342679
0.00324959
0.00292188
0.0023328
0.0010407
0.00355927
0.00353325
0.00347675
0.0033653
0.00316268
0.00281573
0.00222558
0.000977415
0.00355921
0.00353316
0.00347662
0.00336511
0.00316241
0.00281536
0.00222513
0.000977128
0.00357043
0.00355454
0.00351492
0.00342665
0.00324939
0.00292163
0.00233251
0.00104057
0.00357393
0.00356258
0.00353158
0.00345672
0.0032958
0.00298193
0.00239573
0.0010822
0.00357478
0.00356471
0.00353633
0.0034658
0.00331048
0.00300168
0.00241702
0.00109688
0.00357393
0.0035626
0.00353163
0.0034568
0.00329591
0.00298205
0.00239585
0.00108222
0.00357044
0.00355459
0.00351504
0.00342686
0.00324971
0.00292205
0.00233298
0.00104074
0.00355922
0.00353322
0.00347674
0.00336533
0.00316275
0.00281582
0.00222569
0.000977523
0.00355918
0.00353311
0.00347649
0.00336485
0.00316195
0.00281466
0.00222424
0.000976795
0.00357042
0.00355453
0.0035149
0.00342661
0.00324934
0.00292158
0.00233249
0.00104059
0.00357391
0.00356257
0.0035316
0.00345678
0.00329593
0.00298213
0.00239599
0.00108229
0.00357476
0.00356471
0.00353635
0.00346587
0.00331062
0.0030019
0.00241728
0.00109698
0.00357392
0.0035626
0.00353166
0.00345689
0.00329608
0.00298233
0.00239621
0.00108242
0.00357044
0.0035546
0.00351508
0.00342693
0.00324983
0.00292222
0.0023332
0.00104095
0.00355922
0.00353322
0.00347674
0.00336528
0.00316261
0.00281554
0.00222525
0.000977226
0.00355919
0.00353307
0.00347638
0.00336465
0.00316166
0.0028143
0.00222387
0.000976613
0.00357044
0.00355453
0.00351485
0.0034265
0.00324916
0.00292135
0.00233223
0.00104049
0.00357394
0.0035626
0.00353161
0.00345676
0.00329589
0.00298207
0.0023959
0.00108223
0.0035748
0.00356475
0.00353639
0.00346591
0.00331066
0.00300195
0.00241733
0.00109698
0.00357395
0.00356263
0.00353168
0.00345689
0.00329608
0.00298233
0.00239621
0.00108242
0.00357047
0.00355461
0.00351502
0.00342678
0.00324956
0.00292184
0.00233274
0.0010407
0.00355921
0.00353315
0.00347653
0.00336486
0.00316192
0.00281459
0.00222415
0.000976807
0.00355933
0.00353324
0.00347661
0.00336499
0.00316216
0.00281498
0.00222467
0.000976835
0.00357057
0.00355466
0.00351502
0.00342671
0.00324943
0.00292164
0.0023325
0.00104048
0.00357406
0.0035627
0.00353171
0.00345686
0.00329597
0.0029821
0.00239588
0.00108214
0.0035749
0.00356483
0.00353646
0.00346596
0.00331068
0.00300192
0.00241724
0.00109687
0.00357405
0.0035627
0.00353172
0.00345688
0.00329601
0.00298216
0.00239596
0.0010822
0.00357055
0.00355464
0.00351499
0.00342667
0.00324936
0.00292155
0.00233239
0.00104051
0.00355927
0.00353316
0.00347649
0.00336479
0.00316186
0.00281457
0.00222418
0.000976709
0.00355956
0.00353352
0.003477
0.00336555
0.00316295
0.002816
0.00222584
0.000977502
0.00357078
0.00355489
0.00351531
0.00342712
0.00324999
0.00292234
0.00233326
0.00104082
0.00357424
0.00356287
0.00353188
0.00345705
0.00329619
0.00298234
0.0023961
0.00108217
0.00357508
0.00356498
0.00353657
0.00346603
0.0033107
0.00300188
0.00241716
0.00109679
0.00357423
0.00356285
0.00353183
0.00345695
0.00329602
0.00298212
0.00239588
0.00108212
0.00357076
0.00355485
0.00351522
0.00342696
0.00324974
0.00292201
0.00233287
0.00104061
0.00355953
0.00353347
0.00347692
0.00336542
0.00316275
0.00281575
0.00222556
0.000977312
0.0035597
0.00353364
0.0034771
0.00336564
0.00316303
0.00281608
0.00222592
0.000977611
0.00357093
0.00355502
0.00351543
0.00342723
0.0032501
0.00292247
0.0023334
0.00104093
0.00357439
0.003563
0.00353199
0.00345717
0.00329631
0.0029825
0.00239629
0.00108227
0.00357524
0.00356511
0.00353669
0.00346616
0.00331086
0.00300209
0.00241739
0.00109685
0.0035744
0.00356299
0.00353196
0.0034571
0.00329621
0.00298236
0.00239615
0.00108219
0.00357094
0.00355501
0.00351537
0.00342712
0.00324993
0.00292224
0.00233314
0.00104075
0.00355973
0.00353364
0.00347706
0.00336555
0.00316289
0.0028159
0.00222571
0.000977477
0.00355971
0.00353363
0.00347705
0.0033655
0.0031628
0.00281575
0.00222551
0.000977258
0.00357095
0.00355504
0.00351542
0.00342721
0.00325007
0.00292244
0.00233338
0.00104095
0.00357441
0.00356302
0.00353202
0.00345721
0.0032964
0.00298265
0.00239651
0.00108251
0.00357525
0.00356513
0.00353672
0.00346622
0.00331099
0.0030023
0.00241768
0.00109714
0.0035744
0.003563
0.00353198
0.00345715
0.00329631
0.00298253
0.00239638
0.00108242
0.00357092
0.00355498
0.00351532
0.00342705
0.00324983
0.00292215
0.00233306
0.00104071
0.00355968
0.00353354
0.00347688
0.00336525
0.00316244
0.0028153
0.00222501
0.000977078
0.00355966
0.00353359
0.00347702
0.0033655
0.00316281
0.0028158
0.00222559
0.000977342
0.0035709
0.00355499
0.00351539
0.00342718
0.00325003
0.00292238
0.00233332
0.0010409
0.00357436
0.00356298
0.00353198
0.00345716
0.00329633
0.00298254
0.00239636
0.00108238
0.00357519
0.00356508
0.00353668
0.00346618
0.00331092
0.00300219
0.00241753
0.001097
0.00357434
0.00356296
0.00353195
0.00345711
0.00329626
0.00298244
0.00239626
0.0010823
0.00357085
0.00355492
0.00351528
0.00342701
0.00324979
0.00292208
0.00233297
0.00104065
0.0035596
0.00353349
0.00347686
0.00336526
0.00316247
0.00281536
0.00222508
0.000977046
0.00355954
0.00353347
0.00347688
0.00336533
0.0031626
0.00281554
0.00222531
0.000977157
0.00357078
0.00355489
0.00351527
0.00342703
0.00324983
0.00292212
0.002333
0.00104065
0.00357426
0.0035629
0.0035319
0.00345707
0.00329621
0.00298239
0.0023962
0.00108225
0.00357511
0.00356502
0.00353662
0.00346611
0.00331085
0.00300211
0.00241744
0.00109693
0.00357427
0.0035629
0.0035319
0.00345705
0.00329618
0.00298234
0.00239614
0.0010822
0.00357079
0.00355487
0.00351523
0.00342693
0.00324967
0.0029219
0.00233275
0.00104055
0.00355954
0.00353344
0.00347682
0.00336521
0.0031624
0.00281525
0.00222493
0.000976956
0.00355938
0.00353335
0.0034768
0.00336526
0.00316252
0.00281542
0.00222515
0.000977046
0.00357059
0.00355473
0.00351515
0.00342693
0.00324975
0.00292207
0.00233299
0.00104067
0.00357406
0.00356275
0.00353179
0.00345698
0.00329615
0.00298237
0.00239624
0.00108236
0.0035749
0.00356486
0.0035365
0.00346602
0.00331078
0.00300207
0.00241746
0.00109702
0.00357406
0.00356274
0.00353178
0.00345697
0.00329612
0.00298233
0.00239617
0.00108228
0.00357059
0.00355473
0.00351515
0.00342692
0.00324973
0.00292203
0.00233294
0.00104063
0.00355936
0.00353333
0.00347678
0.00336526
0.00316255
0.0028155
0.00222527
0.000977089
0.00355931
0.00353317
0.00347642
0.0033646
0.00316152
0.0028141
0.00222365
0.000976565
0.00357061
0.0035547
0.00351506
0.00342677
0.00324953
0.00292182
0.00233277
0.00104085
0.00357409
0.00356274
0.00353177
0.00345698
0.00329621
0.00298252
0.00239649
0.0010829
0.00357493
0.00356486
0.0035365
0.00346604
0.00331086
0.00300225
0.00241776
0.00109765
0.00357408
0.00356273
0.00353175
0.00345694
0.00329614
0.00298242
0.00239637
0.00108282
0.00357059
0.00355468
0.00351501
0.00342669
0.00324941
0.00292167
0.00233262
0.00104084
0.00355932
0.0035332
0.00347649