/*--------------------------------*- C++ -*----------------------------------*\
| =========                 |                                                 |
| \\      /  F ield         | OpenFOAM: The Open Source CFD Toolbox           |
|  \\    /   O peration     | Version:  plus.master                           |
|   \\  /    A nd           | Web:      www.OpenFOAM.com                      |
|    \\/     M anipulation  |                                                 |
\*---------------------------------------------------------------------------*/
FoamFile
{
    version     2.0;
    format      ascii;
    class       scalarField;
    location    "7.4/lagrangian/kinematicCloud";
    object      age;
}
// * * * * * * * * * * * * * * * * * * * * * * * * * * * * * * * * * * * * * //


96597
(
7.40119
7.40117
7.40115
7.40113
7.40111
7.40109
7.40107
7.40106
7.40104
7.401
7.40098
7.40096
7.40095
7.40093
7.40091
7.40088
7.40086
7.40084
7.40083
7.40081
7.40079
7.40078
7.40076
7.40075
7.40073
7.40068
7.40067
7.40065
7.40064
7.40063
7.40061
7.4006
7.40058
7.40057
7.40056
7.40054
7.40053
7.40052
7.4005
7.40049
7.40048
7.40047
7.40045
7.40044
7.40043
7.40042
7.40041
7.40039
7.40038
7.40037
7.40036
7.40035
7.40034
7.40033
7.40032
7.4003
7.40029
7.40028
7.40027
7.40026
7.40025
7.40024
7.40023
7.40022
7.40022
7.4002
7.40018
7.40017
7.40017
7.40015
7.40015
7.40014
7.40013
7.40013
7.40012
7.40011
7.40011
7.4001
7.40009
7.40008
7.40008
7.40007
7.40007
7.40006
7.40006
7.40006
7.40005
7.40005
7.40004
7.40004
7.40004
7.40003
7.40003
7.40003
7.40002
7.40002
7.40002
7.40001
7.40001
7.40001
7.40001
7.4
7.4
7.4
7.4
7.40023
7.40021
7.40019
7.40015
7.40011
7.40008
7.40006
7.40002
7.4
7.39998
7.39997
7.39993
7.39991
7.39989
7.39986
7.39984
7.39983
7.39981
7.39979
7.39978
7.39976
7.39974
7.39973
7.39971
7.3997
7.39968
7.39967
7.39965
7.39963
7.3996
7.39959
7.39958
7.39956
7.39953
7.39952
7.39949
7.39944
7.39942
7.39941
7.3994
7.39938
7.39936
7.39934
7.39932
7.39931
7.3993
7.39929
7.39927
7.39925
7.39924
7.39922
7.3992
7.39919
7.39918
7.39917
7.39916
7.39915
7.39914
7.39913
7.39912
7.39911
7.3991
7.39909
7.39909
7.39907
7.39906
7.39905
7.39904
7.39904
7.39902
7.39901
7.399
7.399
7.39899
7.39898
7.39898
7.39897
7.39896
7.39894
7.39893
7.39892
7.39892
7.39891
7.3989
7.39889
7.39889
7.39889
7.39888
7.39887
7.39887
7.39886
7.39886
7.39886
7.39885
7.39885
7.39884
7.39884
7.39883
7.39883
7.39883
7.39883
7.39883
7.39882
7.39882
7.39882
7.39882
7.39882
7.39882
7.39881
7.39881
7.39881
7.39881
7.39881
7.39881
7.39881
7.39909
7.39907
7.39905
7.39903
7.39901
7.39899
7.39897
7.39895
7.39894
7.39892
7.3989
7.39888
7.39886
7.39884
7.39881
7.39879
7.39877
7.39875
7.39873
7.39872
7.3987
7.39868
7.39866
7.39865
7.39863
7.39861
7.3986
7.39858
7.39856
7.39855
7.39853
7.3985
7.39845
7.39843
7.39842
7.3984
7.39839
7.39837
7.39836
7.39834
7.39831
7.3983
7.39827
7.39826
7.39824
7.39823
7.39821
7.39819
7.39817
7.39816
7.39815
7.39813
7.39812
7.39809
7.39807
7.39806
7.39804
7.39803
7.39802
7.39801
7.39799
7.39797
7.39796
7.39795
7.39794
7.39793
7.39791
7.3979
7.39789
7.39788
7.39787
7.39786
7.39785
7.39784
7.39783
7.39781
7.3978
7.39779
7.39778
7.39777
7.39776
7.39775
7.39774
7.39773
7.39771
7.39769
7.39768
7.39767
7.39767
7.39766
7.39765
7.39764
7.39763
7.39762
7.39761
7.39761
7.3976
7.39759
7.39759
7.39758
7.39757
7.39757
7.39756
7.39755
7.39755
7.39754
7.39753
7.39753
7.39752
7.39752
7.39751
7.39751
7.3975
7.3975
7.39749
7.39749
7.39748
7.39748
7.39747
7.39747
7.39746
7.39746
7.39746
7.39745
7.39745
7.39744
7.39744
7.39744
7.39743
7.39742
7.39742
7.39742
7.39742
7.39741
7.39741
7.39741
7.3974
7.3974
7.3974
7.3974
7.3974
7.3974
7.39739
7.39739
7.39739
7.39739
7.39773
7.39771
7.39769
7.39767
7.39765
7.39763
7.39761
7.39759
7.39757
7.39755
7.39753
7.39751
7.39747
7.39742
7.3974
7.39738
7.39736
7.39735
7.39733
7.39731
7.39729
7.39727
7.39726
7.39724
7.39722
7.39721
7.39719
7.39717
7.39715
7.39714
7.39712
7.39709
7.39707
7.39705
7.39704
7.39702
7.39701
7.39699
7.39697
7.39696
7.39694
7.39693
7.39691
7.3969
7.39688
7.39686
7.39685
7.39683
7.39682
7.3968
7.39679
7.39678
7.39676
7.39675
7.39673
7.39672
7.39669
7.39668
7.39666
7.39663
7.39662
7.39661
7.39659
7.39658
7.39657
7.39655
7.39652
7.3965
7.39649
7.39648
7.39647
7.39645
7.39644
7.39643
7.39642
7.3964
7.39639
7.39638
7.39637
7.39636
7.39635
7.39634
7.39632
7.3963
7.39629
7.39628
7.39627
7.39625
7.39624
7.39623
7.39622
7.39621
7.39619
7.39618
7.39617
7.39615
7.39614
7.39613
7.39612
7.39611
7.3961
7.39609
7.39608
7.39607
7.39606
7.39605
7.39604
7.39603
7.39603
7.39602
7.39601
7.39599
7.39598
7.39597
7.39596
7.39596
7.39595
7.39593
7.39593
7.39591
7.39591
7.3959
7.39589
7.39589
7.39588
7.39588
7.39587
7.39586
7.39586
7.39585
7.39585
7.39584
7.39584
7.39583
7.39582
7.39582
7.39581
7.39581
7.3958
7.3958
7.39579
7.39579
7.39578
7.39578
7.39577
7.39577
7.39577
7.39576
7.39576
7.39575
7.39575
7.39575
7.39574
7.39574
7.39574
7.39573
7.39573
7.39573
7.39573
7.39572
7.39572
7.39572
7.39572
7.39571
7.39571
7.39571
7.3957
7.3957
7.3957
7.3957
7.3957
7.39569
7.39569
7.39569
7.39569
7.39569
7.39569
7.39569
7.39569
7.39569
7.39569
7.39569
7.39607
7.39605
7.39603
7.39601
7.39599
7.39597
7.39595
7.39593
7.39591
7.39587
7.39586
7.39584
7.39582
7.3958
7.39578
7.39576
7.39574
7.39572
7.39571
7.39569
7.39567
7.39565
7.39563
7.39562
7.3956
7.39558
7.39556
7.39554
7.39553
7.39551
7.39549
7.39544
7.39542
7.39541
7.39539
7.39537
7.39536
7.39534
7.39532
7.39531
7.39529
7.39527
7.39524
7.39522
7.39521
7.39519
7.39518
7.39516
7.39514
7.39513
7.39511
7.3951
7.39508
7.39507
7.39505
7.39504
7.39502
7.39501
7.39499
7.39498
7.39496
7.39493
7.3949
7.39489
7.39488
7.39486
7.39485
7.39483
7.39482
7.39481
7.39479
7.39478
7.39477
7.39475
7.39474
7.39473
7.39471
7.3947
7.39469
7.39467
7.39466
7.39465
7.39463
7.39462
7.3946
7.39458
7.39457
7.39455
7.39454
7.39452
7.3945
7.39449
7.39448
7.39446
7.39445
7.39444
7.39443
7.39442
7.39441
7.3944
7.39439
7.39437
7.39436
7.39434
7.39433
7.39432
7.3943
7.39429
7.39426
7.39425
7.39424
7.39422
7.39421
7.3942
7.39419
7.39418
7.39417
7.39416
7.39415
7.39414
7.39413
7.39412
7.39411
7.39408
7.39408
7.39407
7.39405
7.39404
7.39404
7.39403
7.39402
7.39401
7.394
7.394
7.39399
7.39398
7.39397
7.39397
7.39396
7.39395
7.39395
7.39393
7.39392
7.39391
7.3939
7.39389
7.39389
7.39388
7.39387
7.39386
7.39386
7.39385
7.39384
7.39384
7.39383
7.39383
7.39382
7.39382
7.39381
7.39381
7.3938
7.3938
7.39379
7.39379
7.39378
7.39377
7.39376
7.39376
7.39376
7.39375
7.39375
7.39374
7.39374
7.39373
7.39373
7.39373
7.39372
7.39372
7.39371
7.39371
7.39371
7.39371
7.3937
7.3937
7.39369
7.39369
7.39368
7.39368
7.39368
7.39368
7.39368
7.39367
7.39367
7.39367
7.39366
7.39366
7.39366
7.39366
7.39366
7.39366
7.39366
7.39366
7.39365
7.39365
7.39365
7.39365
7.39365
7.39365
7.39365
7.39365
7.39413
7.39411
7.39409
7.39407
7.39405
7.39403
7.39401
7.39399
7.39393
7.39391
7.39387
7.39385
7.39382
7.3938
7.39376
7.39374
7.39372
7.39367
7.39365
7.39363
7.39361
7.39359
7.39358
7.39356
7.39354
7.39352
7.3935
7.39349
7.39347
7.39345
7.39342
7.3934
7.39338
7.39336
7.39335
7.39333
7.39331
7.3933
7.39328
7.39326
7.39325
7.39323
7.39321
7.39318
7.39316
7.39315
7.39313
7.39312
7.3931
7.39307
7.39305
7.39304
7.39302
7.393
7.39299
7.39297
7.39296
7.39294
7.39293
7.3929
7.39288
7.39287
7.39285
7.39284
7.39282
7.39281
7.39279
7.39278
7.39276
7.39275
7.39273
7.39272
7.39269
7.39268
7.39266
7.39265
7.39263
7.39262
7.39261
7.39259
7.39258
7.39257
7.39255
7.39254
7.39253
7.39251
7.3925
7.39249
7.39247
7.39246
7.39243
7.39242
7.39241
7.3924
7.39238
7.39237
7.39233
7.39232
7.39231
7.3923
7.39228
7.39226
7.39225
7.39224
7.39222
7.39221
7.3922
7.39219
7.39218
7.39216
7.39214
7.39213
7.39212
7.39211
7.3921
7.39207
7.39206
7.39205
7.39202
7.39201
7.392
7.39199
7.39198
7.39196
7.39193
7.39192
7.3919
7.39189
7.39188
7.39188
7.39187
7.39186
7.39185
7.39184
7.39182
7.39181
7.3918
7.39179
7.39178
7.39177
7.39176
7.39175
7.39174
7.39173
7.39172
7.39172
7.39171
7.39169
7.39168
7.39168
7.39165
7.39165
7.39163
7.39162
7.39162
7.39161
7.39159
7.39158
7.39157
7.39155
7.39154
7.39153
7.39152
7.39151
7.39151
7.3915
7.3915
7.39149
7.39148
7.39148
7.39147
7.39147
7.39146
7.39145
7.39144
7.39144
7.39143
7.39143
7.39142
7.39141
7.39141
7.3914
7.3914
7.39139
7.39139
7.39138
7.39138
7.39137
7.39137
7.39136
7.39136
7.39135
7.39134
7.39133
7.39133
7.39133
7.39132
7.39131
7.39131
7.3913
7.3913
7.3913
7.3913
7.39129
7.39129
7.39128
7.39128
7.39128
7.39128
7.39127
7.39127
7.39127
7.39126
7.39126
7.39126
7.39126
7.39126
7.39125
7.39125
7.39125
7.39124
7.39124
7.39124
7.39124
7.39124
7.39124
7.39123
7.39123
7.39123
7.39123
7.39123
7.39123
7.39123
7.39123
7.39123
7.39123
7.39123
7.39123
7.39176
7.39174
7.39172
7.3917
7.39168
7.39164
7.39162
7.3916
7.39158
7.39156
7.39152
7.3915
7.39148
7.39146
7.39139
7.39137
7.39135
7.39127
7.39125
7.39122
7.3912
7.39118
7.39116
7.39114
7.39113
7.39111
7.39109
7.39107
7.39105
7.39104
7.391
7.39098
7.39097
7.39095
7.39093
7.39091
7.39088
7.39086
7.39084
7.39083
7.39079
7.39078
7.39076
7.39074
7.39073
7.39071
7.39069
7.39068
7.39066
7.39061
7.39059
7.39056
7.39055
7.39053
7.3905
7.39048
7.39045
7.39043
7.39042
7.3904
7.39039
7.39037
7.39036
7.39034
7.39033
7.39028
7.39024
7.39022
7.39021
7.39019
7.39018
7.39016
7.39015
7.39012
7.3901
7.39009
7.39007
7.39006
7.39005
7.39003
7.39002
7.39
7.38999
7.38998
7.38995
7.38993
7.38992
7.38989
7.38988
7.38987
7.38985
7.38983
7.38981
7.3898
7.38979
7.38977
7.38976
7.38974
7.38972
7.3897
7.38968
7.38967
7.38966
7.38965
7.38962
7.38961
7.3896
7.38957
7.38956
7.38955
7.38954
7.38951
7.3895
7.38949
7.38948
7.38946
7.38944
7.38942
7.38941
7.38939
7.38938
7.38937
7.38936
7.38934
7.38933
7.38932
7.38931
7.3893
7.38929
7.38928
7.38927
7.38926
7.38925
7.38924
7.38923
7.38922
7.38921
7.3892
7.38919
7.38918
7.38917
7.38916
7.38915
7.38914
7.38913
7.38911
7.3891
7.38909
7.38908
7.38907
7.38905
7.38904
7.38903
7.38903
7.38902
7.38901
7.389
7.38899
7.38898
7.38897
7.38896
7.38895
7.38894
7.38893
7.38892
7.38891
7.38891
7.3889
7.38889
7.38887
7.38886
7.38886
7.38885
7.38884
7.38883
7.38883
7.38882
7.38881
7.3888
7.3888
7.38879
7.38877
7.38876
7.38875
7.38875
7.38874
7.38873
7.38873
7.38872
7.38871
7.38871
7.3887
7.38869
7.38868
7.38867
7.38867
7.38865
7.38865
7.38864
7.38864
7.38863
7.38862
7.38862
7.38861
7.38861
7.3886
7.3886
7.38859
7.38858
7.38858
7.38857
7.38857
7.38856
7.38855
7.38854
7.38854
7.38853
7.38853
7.38852
7.38852
7.38851
7.38851
7.3885
7.3885
7.3885
7.38849
7.38848
7.38848
7.38847
7.38847
7.38847
7.38846
7.38846
7.38846
7.38845
7.38845
7.38844
7.38844
7.38844
7.38843
7.38843
7.38842
7.38842
7.38842
7.38841
7.38841
7.3884
7.3884
7.3884
7.38839
7.38839
7.38839
7.38838
7.38838
7.38838
7.38838
7.38837
7.38837
7.38837
7.38837
7.38837
7.38836
7.38836
7.38836
7.38836
7.38835
7.38835
7.38835
7.38835
7.38835
7.38835
7.38835
7.38834
7.38834
7.38834
7.38834
7.38834
7.38834
7.38834
7.38834
7.38833
7.38833
7.38833
7.38833
7.38833
7.38833
7.38833
7.38833
7.38833
7.38833
7.38833
7.38891
7.38889
7.38887
7.38885
7.38883
7.38881
7.38879
7.38877
7.38875
7.38873
7.38871
7.38869
7.38867
7.38865
7.38863
7.38861
7.38859
7.38857
7.38856
7.38854
7.38852
7.38848
7.38846
7.38844
7.38842
7.38841
7.38839
7.38833
7.38831
7.38829
7.38828
7.38826
7.38824
7.38822
7.3882
7.38818
7.38813
7.38811
7.3881
7.38808
7.38804
7.38802
7.38801
7.38799
7.38797
7.38795
7.38794
7.38792
7.3879
7.38788
7.38787
7.38785
7.38783
7.38782
7.3878
7.38778
7.38777
7.38775
7.38773
7.3877
7.38768
7.38767
7.38765
7.38763
7.3876
7.38758
7.38757
7.38755
7.38753
7.38752
7.3875
7.38749
7.38747
7.38745
7.38744
7.38742
7.38738
7.38736
7.38734
7.38733
7.38731
7.3873
7.38728
7.38727
7.38725
7.38724
7.38722
7.38721
7.38719
7.38718
7.38716
7.38715
7.38713
7.38712
7.3871
7.38709
7.38707
7.38706
7.38704
7.38701
7.387
7.38698
7.38697
7.38696
7.38694
7.38693
7.38691
7.3869
7.38689
7.38687
7.38686
7.38684
7.38683
7.38682
7.3868
7.38679
7.38677
7.38676
7.38673
7.38672
7.38671
7.38667
7.38665
7.38664
7.38663
7.38661
7.3866
7.38658
7.38656
7.38655
7.38654
7.38652
7.38651
7.3865
7.38649
7.38647
7.38646
7.38645
7.38644
7.38642
7.38641
7.3864
7.38639
7.38638
7.38636
7.38635
7.38634
7.38633
7.38632
7.3863
7.38627
7.38626
7.38625
7.38623
7.38622
7.38621
7.3862
7.38619
7.38618
7.38617
7.38616
7.38614
7.38613
7.38612
7.38611
7.3861
7.38609
7.38608
7.38606
7.38605
7.38603
7.38601
7.386
7.38599
7.38598
7.38597
7.38596
7.38595
7.38594
7.38593
7.38592
7.38591
7.3859
7.38589
7.38588
7.38587
7.38586
7.38585
7.38584
7.38583
7.38582
7.38581
7.38581
7.3858
7.38579
7.38578
7.38577
7.38576
7.38575
7.38574
7.38573
7.38572
7.38571
7.3857
7.3857
7.38569
7.38568
7.38567
7.38566
7.38565
7.38564
7.38563
7.38563
7.38562
7.38561
7.3856
7.38559
7.38558
7.38558
7.38557
7.38556
7.38555
7.38553
7.38551
7.3855
7.38549
7.38548
7.38547
7.38547
7.38546
7.38544
7.38544
7.38543
7.38542
7.38542
7.38541
7.3854
7.38539
7.38539
7.38538
7.38537
7.38537
7.38536
7.38535
7.38535
7.38534
7.38533
7.38533
7.38532
7.38531
7.38531
7.3853
7.3853
7.38529
7.38528
7.38528
7.38527
7.38527
7.38525
7.38525
7.38524
7.38524
7.38523
7.38522
7.38522
7.38521
7.38521
7.3852
7.3852
7.38519
7.38519
7.38518
7.38518
7.38517
7.38517
7.38516
7.38516
7.38515
7.38515
7.38514
7.38514
7.38513
7.38513
7.38512
7.38512
7.38511
7.38511
7.3851
7.3851
7.3851
7.38509
7.38509
7.38508
7.38508
7.38507
7.38507
7.38507
7.38506
7.38505
7.38505
7.38505
7.38504
7.38504
7.38503
7.38503
7.38503
7.38502
7.38502
7.38501
7.38501
7.38501
7.385
7.385
7.38499
7.38499
7.38499
7.38499
7.38498
7.38498
7.38498
7.38497
7.38497
7.38497
7.38497
7.38496
7.38496
7.38496
7.38496
7.38495
7.38495
7.38495
7.38495
7.38495
7.38494
7.38494
7.38494
7.38494
7.38494
7.38493
7.38493
7.38493
7.38493
7.38493
7.38493
7.38493
7.38492
7.38492
7.38492
7.38492
7.38492
7.38492
7.38492
7.38491
7.38491
7.38491
7.38491
7.38491
7.38491
7.38491
7.38491
7.38491
7.38491
7.38491
7.38491
7.38491
7.38491
7.38565
7.38563
7.38561
7.38557
7.38555
7.38551
7.38547
7.38545
7.38543
7.38539
7.38537
7.38535
7.38533
7.38531
7.38529
7.38526
7.38524
7.38522
7.3852
7.38518
7.38516
7.38514
7.38512
7.3851
7.38509
7.38507
7.38505
7.38503
7.38501
7.38499
7.38497
7.38494
7.38492
7.3849
7.38488
7.38486
7.38484
7.38481
7.38479
7.38477
7.38475
7.38474
7.38472
7.3847
7.38468
7.38466
7.38465
7.38463
7.38461
7.38459
7.38458
7.38456
7.38454
7.38452
7.38449
7.38444
7.38442
7.38437
7.38433
7.38432
7.3843
7.38428
7.38427
7.38425
7.38423
7.38422
7.38418
7.38417
7.38415
7.38413
7.38412
7.3841
7.38408
7.38407
7.38405
7.38402
7.384
7.38399
7.38397
7.38395
7.38394
7.38392
7.38391
7.38389
7.38387
7.38386
7.38384
7.38383
7.38381
7.38378
7.38376
7.38375
7.38373
7.38372
7.3837
7.38369
7.38367
7.38366
7.38364
7.38363
7.38361
7.3836
7.38358
7.38355
7.38354
7.38352
7.38351
7.38349
7.38348
7.38345
7.38343
7.38342
7.3834
7.38339
7.38337
7.38334
7.38333
7.38332
7.3833
7.38329
7.38327
7.38326
7.38325
7.38323
7.38322
7.3832
7.38319
7.38318
7.38316
7.38315
7.38313
7.38312
7.38311
7.38309
7.38308
7.38307
7.38305
7.38304
7.383
7.38299
7.38297
7.38296
7.38295
7.38293
7.38292
7.38291
7.38289
7.38288
7.38287
7.38284
7.38282
7.3828
7.38279
7.38278
7.38277
7.38275
7.38274
7.38273
7.3827
7.38269
7.38268
7.38267
7.38263
7.38262
7.38261
7.38259
7.38255
7.38253
7.38252
7.38251
7.38249
7.38248
7.38246
7.38245
7.38244
7.38242
7.38241
7.3824
7.38239
7.38237
7.38236
7.38235
7.38234
7.38233
7.38232
7.38231
7.3823
7.38229
7.38226
7.38225
7.38223
7.38221
7.3822
7.38219
7.38218
7.38217
7.38216
7.38215
7.38214
7.38213
7.38212
7.3821
7.38209
7.38208
7.38207
7.38205
7.38204
7.38203
7.38202
7.38201
7.382
7.38199
7.38198
7.38197
7.38196
7.38195
7.38194
7.38193
7.38192
7.38191
7.3819
7.38189
7.38188
7.38186
7.38185
7.38184
7.38183
7.38182
7.38181
7.38181
7.3818
7.38178
7.38176
7.38175
7.38174
7.38173
7.38172
7.38171
7.3817
7.38169
7.38169
7.38168
7.38167
7.38166
7.38165
7.38165
7.38164
7.38163
7.38161
7.3816
7.38159
7.38158
7.38158
7.38157
7.38156
7.38155
7.38155
7.38152
7.38152
7.3815
7.38149
7.38149
7.38148
7.38147
7.38147
7.38146
7.38145
7.38145
7.38144
7.38143
7.38143
7.38142
7.38141
7.38141
7.38139
7.38139
7.38138
7.38137
7.38136
7.38135
7.38135
7.38134
7.38134
7.38133
7.38132
7.38132
7.38131
7.38131
7.38129
7.38128
7.38127
7.38126
7.38126
7.38125
7.38125
7.38124
7.38124
7.38123
7.38123
7.38122
7.38122
7.38121
7.38121
7.3812
7.3812
7.38119
7.38118
7.38118
7.38117
7.38117
7.38116
7.38116
7.38115
7.38115
7.38114
7.38114
7.38113
7.38113
7.38112
7.38112
7.38111
7.38111
7.38111
7.3811
7.3811
7.38109
7.38109
7.38109
7.38108
7.38108
7.38107
7.38107
7.38106
7.38105
7.38105
7.38105
7.38104
7.38104
7.38104
7.38103
7.38103
7.38103
7.38102
7.38102
7.38102
7.38101
7.38101
7.38101
7.381
7.381
7.38099
7.38099
7.38099
7.38098
7.38098
7.38097
7.38097
7.38096
7.38096
7.38096
7.38096
7.38095
7.38095
7.38095
7.38095
7.38094
7.38094
7.38094
7.38094
7.38094
7.38093
7.38093
7.38093
7.38093
7.38093
7.38092
7.38092
7.38092
7.38092
7.38091
7.38091
7.38091
7.38091
7.38091
7.38091
7.38091
7.3809
7.3809
7.3809
7.3809
7.3809
7.3809
7.3809
7.3809
7.3809
7.3809
7.38089
7.38089
7.38089
7.38089
7.38089
7.38089
7.38089
7.38089
7.38089
7.38089
7.38089
7.38089
7.38089
7.38089
7.38089
7.38089
7.38181
7.38179
7.38177
7.38175
7.38173
7.38171
7.38167
7.38165
7.38163
7.38161
7.38159
7.38157
7.38155
7.38151
7.38147
7.38146
7.38144
7.38142
7.3814
7.38138
7.38136
7.38132
7.3813
7.38128
7.38126
7.38124
7.38121
7.38119
7.38117
7.38115
7.38111
7.38109
7.38108
7.38106
7.38104
7.38102
7.381
7.38098
7.38096
7.38093
7.38091
7.38089
7.38087
7.38085
7.38084
7.38082
7.3808
7.38078
7.38076
7.38073
7.38071
7.38069
7.38067
7.38066
7.38064
7.38062
7.38058
7.38057
7.38055
7.38053
7.38051
7.3805
7.38048
7.38046
7.38043
7.38041
7.38039
7.38038
7.38036
7.38034
7.38032
7.38031
7.38027
7.38026
7.38024
7.38022
7.3802
7.38019
7.38017
7.38015
7.38014
7.38012
7.3801
7.38009
7.38007
7.38005
7.38004
7.38
7.37999
7.37997
7.37995
7.37994
7.37992
7.37991
7.37989
7.37987
7.37986
7.37984
7.37982
7.37981
7.37978
7.37976
7.37974
7.37971
7.3797
7.37967
7.37965
7.37963
7.37962
7.3796
7.37959
7.37957
7.37956
7.37954
7.37952
7.37951
7.37949
7.37948
7.37946
7.37945
7.37943
7.37942
7.3794
7.37939
7.37937
7.37936
7.37934
7.37933
7.37931
7.37928
7.37927
7.37925
7.37924
7.37922
7.37921
7.37919
7.37918
7.37916
7.37915
7.37914
7.37912
7.37911
7.37909
7.37908
7.37905
7.37903
7.37901
7.37899
7.37896
7.37895
7.37894
7.37892
7.37891
7.37889
7.37888
7.37885
7.37884
7.37882
7.37881
7.3788
7.37878
7.37877
7.37876
7.37874
7.37873
7.37871
7.3787
7.37869
7.37867
7.37866
7.37865
7.37863
7.37862
7.37861
7.3786
7.37858
7.37857
7.37854
7.37852
7.3785
7.37849
7.37848
7.37847
7.37845
7.37844
7.37843
7.37841
7.3784
7.37839
7.37838
7.37835
7.37833
7.3783
7.37828
7.37826
7.37825
7.37824
7.37823
7.3782
7.37819
7.37818
7.37817
7.37816
7.37814
7.37813
7.37812
7.37811
7.37808
7.37807
7.37806
7.37805
7.37804
7.37803
7.37802
7.378
7.37799
7.37798
7.37797
7.37796
7.37795
7.37792
7.37791
7.37789
7.37788
7.37787
7.37786
7.37785
7.37784
7.37782
7.37779
7.37777
7.37775
7.37774
7.37773
7.37772
7.37771
7.37769
7.37768
7.37766
7.37765
7.37764
7.37763
7.37762
7.37761
7.3776
7.37759
7.37756
7.37755
7.37754
7.37753
7.37752
7.3775
7.37749
7.37748
7.37747
7.37746
7.37744
7.37744
7.37743
7.37741
7.3774
7.37738
7.37737
7.37736
7.37735
7.37734
7.37733
7.37732
7.37731
7.3773
7.3773
7.37729
7.37728
7.37727
7.37726
7.37725
7.37723
7.37722
7.37722
7.37721
7.3772
7.37719
7.37718
7.37717
7.37716
7.37715
7.37715
7.37713
7.37712
7.37711
7.3771
7.37709
7.37708
7.37707
7.37706
7.37706
7.37705
7.37704
7.37703
7.37702
7.37702
7.37701
7.377
7.37698
7.37698
7.37696
7.37695
7.37695
7.37694
7.37693
7.37692
7.37692
7.37691
7.37689
7.37689
7.37687
7.37686
7.37686
7.37685
7.37684
7.37684
7.37683
7.37682
7.37682
7.37681
7.3768
7.37679
7.37678
7.37677
7.37676
7.37675
7.37674
7.37673
7.37673
7.37672
7.37671
7.37671
7.3767
7.37669
7.37668
7.37668
7.37667
7.37666
7.37665
7.37665
7.37664
7.37663
7.37663
7.37662
7.37661
7.37661
7.3766
7.37659
7.37659
7.37658
7.37657
7.37657
7.37656
7.37655
7.37655
7.37654
7.37654
7.37653
7.37653
7.37652
7.37652
7.37651
7.37651
7.3765
7.3765
7.37649
7.37649
7.37648
7.37648
7.37646
7.37646
7.37645
7.37645
7.37644
7.37643
7.37642
7.37642
7.37641
7.37641
7.37641
7.3764
7.3764
7.37639
7.37639
7.37638
7.37638
7.37638
7.37637
7.37637
7.37636
7.37636
7.37636
7.37635
7.37635
7.37634
7.37634
7.37633
7.37633
7.37632
7.37632
7.37631
7.37631
7.3763
7.3763
7.3763
7.37629
7.37629
7.37629
7.37628
7.37628
7.37627
7.37627
7.37626
7.37626
7.37625
7.37625
7.37625
7.37625
7.37624
7.37624
7.37624
7.37623
7.37623
7.37623
7.37622
7.37622
7.37622
7.37621
7.37621
7.3762
7.3762
7.3762
7.37619
7.37619
7.37619
7.37619
7.37619
7.37618
7.37618
7.37618
7.37618
7.37618
7.37617
7.37617
7.37617
7.37617
7.37616
7.37616
7.37616
7.37616
7.37616
7.37616
7.37616
7.37615
7.37615
7.37615
7.37615
7.37615
7.37615
7.37615
7.37615
7.37614
7.37614
7.37614
7.37614
7.37614
7.37614
7.37614
7.37614
7.37613
7.37613
7.37613
7.37613
7.37613
7.37613
7.37613
7.37613
7.37613
7.37613
7.37613
7.37613
7.37613
7.37613
7.37613
7.37613
7.37613
7.37613
7.37613
7.377
7.37698
7.37694
7.37692
7.3769
7.37688
7.37684
7.37682
7.3768
7.37678
7.37676
7.37672
7.3767
7.37668
7.37661
7.37659
7.37655
7.37653
7.37645
7.37643
7.37641
7.37638
7.37636
7.37634
7.37632
7.3763
7.37628
7.37626
7.37624
7.37623
7.37621
7.37619
7.37617
7.37615
7.37613
7.37609
7.37608
7.37606
7.37604
7.37602
7.376
7.37598
7.37596
7.37595
7.37593
7.37591
7.37589
7.37587
7.37586
7.37584
7.37582
7.3758
7.37578
7.37576
7.37575
7.37573
7.37569
7.37568
7.37566
7.37564
7.37562
7.3756
7.37559
7.37557
7.37555
7.37553
7.37552
7.3755
7.37548
7.37545
7.37543
7.37541
7.37538
7.37536
7.37534
7.37532
7.37531
7.37529
7.37527
7.37524
7.37522
7.3752
7.37519
7.37517
7.37515
7.37514
7.37512
7.3751
7.37508
7.37507
7.37505
7.37503
7.37502
7.375
7.37498
7.37497
7.37495
7.37493
7.37492
7.37488
7.37487
7.37485
7.37484
7.37482
7.3748
7.37479
7.37477
7.37475
7.37474
7.37472
7.37471
7.37469
7.37467
7.37466
7.37464
7.37463
7.37461
7.37459
7.37458
7.37455
7.37453
7.3745
7.37448
7.37447
7.37445
7.37444
7.37442
7.3744
7.37439
7.37437
7.37436
7.37434
7.37433
7.37431
7.3743
7.37428
7.37427
7.37425
7.37424
7.37422
7.3742
7.37414
7.37413
7.37411
7.37408
7.37407
7.37405
7.37404
7.37403
7.37401
7.374
7.37398
7.37397
7.37395
7.37394
7.37392
7.37391
7.37389
7.37388
7.37386
7.37385
7.37384
7.37382
7.37381
7.37379
7.37376
7.37375
7.37374
7.37372
7.37371
7.37369
7.37368
7.37366
7.37365
7.37364
7.37362
7.37361
7.3736
7.37358
7.37357
7.37355
7.37354
7.37353
7.37351
7.3735
7.37349
7.37347
7.37346
7.37344
7.37343
7.37342
7.3734
7.37339
7.37338
7.37336
7.37335
7.37334
7.37331
7.3733
7.37328
7.37327
7.37326
7.37324
7.37323
7.37322
7.37321
7.37319
7.37318
7.37317
7.37315
7.37314
7.37312
7.37309
7.37305
7.37304
7.37303
7.37301
7.373
7.37299
7.37298
7.37296
7.37295
7.37294
7.37293
7.37292
7.3729
7.37289
7.37288
7.37285
7.37284
7.37283
7.37279
7.37277
7.37276
7.37275
7.37272
7.37271
7.3727
7.37269
7.37268
7.37266
7.37265
7.37264
7.37263
7.37262
7.37261
7.37259
7.37258
7.37257
7.37256
7.37255
7.37254
7.37253
7.37252
7.3725
7.37249
7.37248
7.37247
7.37246
7.37245
7.37244
7.37243
7.37242
7.3724
7.37239
7.37238
7.37237
7.37236
7.37235
7.37233
7.37231
7.3723
7.37228
7.37226
7.37225
7.37224
7.37223
7.37222
7.37221
7.3722
7.37219
7.37218
7.37217
7.37216
7.37215
7.37214
7.37213
7.37212
7.37211
7.3721
7.37208
7.37207
7.37206
7.37205
7.37203
7.37202
7.37201
7.372
7.37199
7.37198
7.37197
7.37196
7.37195
7.37194
7.37193
7.3719
7.3719
7.37189
7.37188
7.37187
7.37186
7.37185
7.37184
7.37183
7.37182
7.37181
7.3718
7.37179
7.37178
7.37178
7.37176
7.37175
7.37173
7.37172
7.3717
7.3717
7.37168
7.37167
7.37166
7.37165
7.37164
7.37164
7.37163
7.37162
7.37161
7.3716
7.37159
7.37158
7.37158
7.37157
7.37156
7.37155
7.37154
7.37154
7.37153
7.37151
7.3715
7.37149
7.37149
7.37147
7.37146
7.37145
7.37145
7.37144
7.37143
7.37142
7.37142
7.37141
7.3714
7.37139
7.37138
7.37137
7.37136
7.37136
7.37134
7.37133
7.37133
7.37132
7.37131
7.3713
7.3713
7.37129
7.37128
7.37128
7.37126
7.37125
7.37125
7.37124
7.37123
7.37123
7.37122
7.37121
7.37121
7.3712
7.37119
7.37119
7.37118
7.37117
7.37117
7.37116
7.37115
7.37115
7.37114
7.37113
7.37113
7.37112
7.37111
7.37111
7.37109
7.37109
7.37108
7.37108
7.37107
7.37106
7.37104
7.37104
7.37103
7.37103
7.37102
7.37101
7.37101
7.371
7.371
7.37099
7.37099
7.37098
7.37097
7.37097
7.37095
7.37095
7.37094
7.37094
7.37093
7.37092
7.37091
7.3709
7.37089
7.37089
7.37088
7.37088
7.37087
7.37086
7.37086
7.37085
7.37085
7.37084
7.37084
7.37083
7.37083
7.37082
7.37081
7.37081
7.3708
7.3708
7.37079
7.37078
7.37078
7.37078
7.37077
7.37076
7.37076
7.37075
7.37075
7.37074
7.37074
7.37073
7.37073
7.37072
7.37072
7.37072
7.37071
7.3707
7.3707
7.3707
7.37069
7.37069
7.37068
7.37068
7.37067
7.37067
7.37067
7.37066
7.37066
7.37065
7.37065
7.37064
7.37064
7.37064
7.37063
7.37063
7.37062
7.37062
7.37061
7.37061
7.3706
7.3706
7.3706
7.3706
7.37059
7.37059
7.37059
7.37058
7.37058
7.37058
7.37058
7.37057
7.37057
7.37057
7.37056
7.37056
7.37056
7.37055
7.37055
7.37055
7.37054
7.37054
7.37054
7.37053
7.37053
7.37053
7.37053
7.37052
7.37052
7.37052
7.37052
7.37052
7.37051
7.37051
7.37051
7.37051
7.37051
7.3705
7.3705
7.3705
7.3705
7.3705
7.37049
7.37049
7.37049
7.37049
7.37049
7.37048
7.37048
7.37048
7.37048
7.37048
7.37048
7.37048
7.37047
7.37047
7.37047
7.37047
7.37047
7.37047
7.37047
7.37047
7.37046
7.37046
7.37046
7.37046
7.37046
7.37046
7.37046
7.37046
7.37046
7.37046
7.37045
7.37045
7.37045
7.37045
7.37045
7.37045
7.37045
7.37045
7.37045
7.37045
7.37045
7.37045
7.37045
7.37045
7.37045
7.37045
7.37045
7.37045
7.37045
7.37045
7.37169
7.37167
7.37165
7.37163
7.37161
7.37159
7.37157
7.37155
7.37154
7.37152
7.3715
7.37148
7.37144
7.37142
7.3714
7.37138
7.37136
7.37134
7.3713
7.37128
7.37126
7.37124
7.37122
7.3712
7.37118
7.37116
7.37114
7.37112
7.37109
7.37107
7.37103
7.37101
7.37099
7.37097
7.37095
7.37093
7.37091
7.3709
7.37088
7.37086
7.37084
7.37082
7.3708
7.37074
7.37073
7.37071
7.37069
7.37067
7.37063
7.37061
7.3706
7.37058
7.37054
7.37052
7.3705
7.37048
7.37047
7.37045
7.37043
7.37041
7.37039
7.37037
7.37032
7.3703
7.37025
7.37023
7.37021
7.37019
7.37018
7.37016
7.37014
7.37012
7.3701
7.37009
7.37007
7.37005
7.37003
7.37002
7.37
7.36994
7.36993
7.36989
7.36987
7.36986
7.36984
7.36982
7.3698
7.36977
7.36973
7.36972
7.3697
7.36968
7.36965
7.36963
7.36961
7.3696
7.36958
7.36956
7.36955
7.36951
7.36949
7.36948
7.36946
7.36943
7.36941
7.36939
7.36938
7.36936
7.36934
7.36933
7.36929
7.36928
7.36926
7.36923
7.36921
7.36919
7.36916
7.36914
7.36913
7.36911
7.3691
7.36908
7.36901
7.369
7.36898
7.36897
7.36895
7.36893
7.36892
7.3689
7.36885
7.36882
7.36881
7.36879
7.36877
7.36876
7.36874
7.36873
7.36871
7.36868
7.36866
7.36863
7.36862
7.3686
7.36859
7.36857
7.36855
7.36854
7.36852
7.36851
7.36849
7.36845
7.36843
7.36842
7.3684
7.36839
7.36837
7.36836
7.36833
7.3683
7.36828
7.36827
7.36825
7.36824
7.36822
7.36821
7.36819
7.36818
7.36816
7.36815
7.36813
7.36812
7.3681
7.36809
7.36807
7.36806
7.36804
7.36803
7.36801
7.368
7.36799
7.36797
7.36796
7.36794
7.36793
7.3679
7.36787
7.36786
7.36784
7.36783
7.36781
7.3678
7.36778
7.36777
7.36776
7.36774
7.36773
7.36771
7.3677
7.36769
7.36767
7.36766
7.36764
7.36763
7.36762
7.3676
7.36759
7.36756
7.36755
7.36752
7.36751
7.36749
7.36748
7.36747
7.36745
7.36744
7.36741
7.3674
7.36739
7.36737
7.36736
7.36735
7.36733
7.36732
7.36728
7.36727
7.36725
7.36724
7.36723
7.36719
7.36717
7.36715
7.36714
7.36712
7.36711
7.3671
7.36707
7.36706
7.36705
7.36703
7.36702
7.36701
7.367
7.36698
7.36696
7.36694
7.36693
7.36691
7.36688
7.36687
7.36686
7.36685
7.36683
7.36682
7.3668
7.36678
7.36677
7.36676
7.36675
7.36674
7.36671
7.3667
7.36669
7.36668
7.36666
7.36664
7.36663
7.36662
7.3666
7.36659
7.36657
7.36655
7.36653
7.3665
7.36646
7.36645
7.36643
7.36642
7.36641
7.3664
7.36638
7.36637
7.36636
7.36635
7.36634
7.36633
7.36632
7.36631
7.3663
7.36628
7.36627
7.36626
7.36625
7.36624
7.36623
7.36621
7.36619
7.36617
7.36616
7.36614
7.36613
7.36612
7.36611
7.3661
7.36609
7.36608
7.36607
7.36604
7.36603
7.36602
7.366
7.36599
7.36598
7.36596
7.36595
7.36594
7.36593
7.36592
7.36591
7.3659
7.36589
7.36588
7.36587
7.36586
7.36585
7.36584
7.36583
7.36582
7.36581
7.3658
7.36579
7.36577
7.36576
7.36575
7.36574
7.36573
7.36572
7.36571
7.3657
7.36568
7.36567
7.36567
7.36566
7.36565
7.36563
7.36562
7.36561
7.3656
7.36559
7.36558
7.36557
7.36556
7.36555
7.36553
7.36552
7.36552
7.36551
7.3655
7.36549
7.36548
7.36547
7.36546
7.36545
7.36544
7.36543
7.36543
7.36541
7.3654
7.36539
7.36537
7.36536
7.36536
7.36535
7.36534
7.36533
7.36532
7.36531
7.3653
7.36529
7.36528
7.36527
7.36526
7.36525
7.36525
7.36524
7.36523
7.36522
7.36521
7.3652
7.36519
7.36517
7.36516
7.36515
7.36515
7.36514
7.36512
7.36511
7.3651
7.36509
7.36508
7.36508
7.36507
7.36506
7.36505
7.36504
7.36503
7.36502
7.36501
7.36501
7.365
7.36498
7.36497
7.36495
7.36494
7.36493
7.36492
7.36492
7.36491
7.3649
7.3649
7.36489
7.36488
7.36487
7.36487
7.36486
7.36485
7.36484
7.36483
7.36483
7.36482
7.36481
7.3648
7.3648
7.36479
7.36478
7.36478
7.36476
7.36476
7.36475
7.36474
7.36473
7.36472
7.36472
7.36471
7.3647
7.3647
7.36469
7.36469
7.36468
7.36467
7.36467
7.36466
7.36465
7.36465
7.36464
7.36464
7.36462
7.36462
7.36461
7.3646
7.36459
7.36458
7.36457
7.36457
7.36456
7.36456
7.36455
7.36455
7.36454
7.36453
7.36453
7.36452
7.36452
7.36451
7.36451
7.3645
7.36449
7.36449
7.36448
7.36448
7.36447
7.36446
7.36446
7.36445
7.36445
7.36444
7.36443
7.36443
7.36442
7.36441
7.36441
7.3644
7.36439
7.36439
7.36438
7.36438
7.36437
7.36436
7.36436
7.36435
7.36434
7.36434
7.36433
7.36433
7.36432
7.36432
7.36431
7.36431
7.3643
7.3643
7.36429
7.36429
7.36428
7.36428
7.36427
7.36427
7.36427
7.36426
7.36426
7.36425
7.36425
7.36424
7.36424
7.36424
7.36423
7.36423
7.36422
7.36422
7.36421
7.36421
7.3642
7.3642
7.36419
7.36419
7.36419
7.36418
7.36417
7.36417
7.36417
7.36416
7.36416
7.36415
7.36415
7.36415
7.36414
7.36414
7.36413
7.36413
7.36412
7.36412
7.36412
7.36411
7.36411
7.3641
7.3641
7.36409
7.36409
7.36409
7.36408
7.36408
7.36408
7.36407
7.36407
7.36407
7.36406
7.36406