/*--------------------------------*- C++ -*----------------------------------*\
| =========                 |                                                 |
| \\      /  F ield         | OpenFOAM: The Open Source CFD Toolbox           |
|  \\    /   O peration     | Version:  plus.master.MPPICInterFoam            |
|   \\  /    A nd           | Web:      www.OpenFOAM.com                      |
|    \\/     M anipulation  |                                                 |
\*---------------------------------------------------------------------------*/
FoamFile
{
    version     2.0;
    format      ascii;
    class       surfaceScalarField;
    location    "10.4";
    object      alphaPhi;
}
// * * * * * * * * * * * * * * * * * * * * * * * * * * * * * * * * * * * * * //

dimensions      [0 3 -1 0 0 0 0];

internalField   nonuniform List<scalar> 
34004
(
4.58292e-09
-3.87759e-08
-1.70887e-06
2.03727e-08
-3.12457e-09
-3.81264e-08
-2.17692e-06
2.21336e-08
-1.65481e-08
-3.49274e-08
-2.54196e-06
2.01761e-08
-3.1882e-08
-3.12055e-08
-2.89208e-06
1.7105e-08
-4.66874e-08
-2.68654e-08
-3.24703e-06
1.31458e-08
-5.88496e-08
-2.19585e-08
-3.61124e-06
8.45798e-09
-6.64411e-08
-1.67393e-08
-3.98389e-06
3.32022e-09
-1.15993e-08
-4.35972e-06
-1.83138e-09
-6.79009e-08
2.17247e-09
-5.46955e-08
-1.72355e-06
-8.25948e-09
-5.15811e-08
-2.19292e-06
-2.41068e-08
-4.7443e-08
-2.56025e-06
-4.13477e-08
-4.34099e-08
-2.91401e-06
-5.75201e-08
-3.90524e-08
-3.27356e-06
-7.04876e-08
-3.43131e-08
-3.64316e-06
-7.83263e-08
-2.93839e-08
-4.02186e-06
-2.45858e-08
-4.4042e-06
-7.94654e-08
-1.27661e-09
-6.65151e-08
-1.73401e-06
-1.51511e-08
-6.12993e-08
-2.20396e-06
-3.38631e-08
-5.65405e-08
-2.57305e-06
-5.335e-08
-5.25013e-08
-2.9298e-06
-7.11556e-08
-4.84504e-08
-3.29311e-06
-8.51584e-08
-4.42502e-08
-3.66705e-06
-9.33949e-08
-4.00214e-08
-4.05061e-06
-3.60105e-08
-4.43816e-06
-9.42185e-08
-3.89961e-09
-7.5198e-08
-1.73729e-06
-2.03097e-08
-6.82173e-08
-2.20675e-06
-4.11082e-08
-6.31944e-08
-2.57639e-06
-6.22526e-08
-5.94686e-08
-2.93446e-06
-8.12436e-08
-5.60458e-08
-3.29971e-06
-9.58799e-08
-5.271e-08
-3.67619e-06
-1.04168e-07
-4.95115e-08
-4.06272e-06
-4.6599e-08
-4.45345e-06
-1.04468e-07
-6.13049e-09
-8.08386e-08
-1.73272e-06
-2.43615e-08
-7.25538e-08
-2.20091e-06
-4.65404e-08
-6.75995e-08
-2.56977e-06
-6.86924e-08
-6.44668e-08
-2.92733e-06
-8.83023e-08
-6.19475e-08
-3.29225e-06
-1.0315e-07
-5.97479e-08
-3.66858e-06
-1.1125e-07
-5.7841e-08
-4.05501e-06
-5.62795e-08
-4.4456e-06
-1.10982e-07
-7.50824e-09
-8.39922e-08
-1.72006e-06
-2.66082e-08
-7.46598e-08
-2.18637e-06
-4.91975e-08
-7.00342e-08
-2.55308e-06
-7.14234e-08
-6.76921e-08
-2.90822e-06
-9.08101e-08
-6.62458e-08
-3.27045e-06
-1.05183e-07
-6.53094e-08
-3.64383e-06
-1.12626e-07
-6.47608e-08
-4.02708e-06
-6.4532e-08
-4.41426e-06
-1.11614e-07
-1.04493e-08
-1.70081e-06
-8.28284e-08
-3.12853e-08
-2.1642e-06
-7.30464e-08
-5.49992e-08
-2.52718e-06
-6.89541e-08
-7.79785e-08
-2.87784e-06
-6.75117e-08
-9.77753e-08
-3.2348e-06
-6.72302e-08
-1.1222e-07
-3.60214e-06
-6.76425e-08
-1.19395e-07
-3.97862e-06
-6.85315e-08
-4.35841e-06
-6.97389e-08
-1.17761e-07
2.31355e-09
-4.33063e-08
-1.69532e-06
2.74399e-08
-8.21455e-09
-4.01364e-08
-2.15258e-06
2.63266e-08
-2.42797e-08
-3.55154e-08
-2.51296e-06
2.25881e-08
-4.19624e-08
-3.05593e-08
-2.86186e-06
1.80206e-08
-5.88753e-08
-2.50115e-08
-3.21775e-06
1.26392e-08
-7.29273e-08
-1.89163e-08
-3.58484e-06
6.5606e-09
-8.21377e-08
-1.25721e-08
-3.96217e-06
5.81493e-11
-6.44024e-09
-4.34433e-06
-6.09049e-09
-8.50097e-08
-1.03409e-09
-5.5755e-08
-1.71007e-06
-1.49277e-08
-5.08571e-08
-2.16831e-06
-3.37292e-08
-4.57927e-08
-2.53117e-06
-5.34955e-08
-4.09141e-08
-2.8839e-06
-7.18668e-08
-3.57028e-08
-3.2445e-06
-8.67845e-08
-3.01173e-08
-3.61705e-06
-9.63454e-08
-2.43891e-08
-4.00049e-06
-1.88838e-08
-4.38919e-06
-9.89211e-08
-5.35717e-09
-6.32753e-08
-1.72114e-06
-2.31735e-08
-5.72723e-08
-2.17974e-06
-4.50054e-08
-5.22097e-08
-2.54481e-06
-6.69971e-08
-4.78176e-08
-2.90091e-06
-8.68814e-08
-4.33878e-08
-3.26554e-06
-1.02766e-07
-3.88157e-08
-3.64247e-06
-1.12743e-07
-3.42366e-08
-4.0308e-06
-2.99172e-08
-4.42478e-06
-1.15099e-07
-8.47651e-09
-6.74455e-08
-1.72465e-06
-2.90567e-08
-6.08232e-08
-2.18261e-06
-5.31939e-08
-5.61928e-08
-2.54826e-06
-7.70903e-08
-5.26572e-08
-2.90572e-06
-9.84124e-08
-4.93668e-08
-3.2724e-06
-1.15111e-07
-4.61592e-08
-3.65215e-06
-1.25257e-07
-4.30907e-08
-4.04372e-06
-4.03049e-08
-4.44116e-06
-1.27164e-07
-1.08151e-08
-6.86614e-08
-1.72069e-06
-3.32189e-08
-6.19152e-08
-2.17741e-06
-5.88221e-08
-5.80327e-08
-2.54232e-06
-8.38784e-08
-5.56079e-08
-2.89931e-06
-1.05989e-07
-5.36902e-08
-3.26581e-06
-1.23047e-07
-5.20631e-08
-3.64561e-06
-1.33127e-07
-5.07047e-08
-4.03732e-06
-4.96424e-08
-4.43484e-06
-1.34559e-07
-1.17865e-08
-6.78872e-08
-1.70903e-06
-3.48305e-08
-6.11201e-08
-2.16411e-06
-6.07906e-08
-5.81111e-08
-2.52703e-06
-8.59776e-08
-5.68777e-08
-2.88175e-06
-1.07992e-07
-5.6385e-08
-3.24573e-06
-1.24733e-07
-5.63496e-08
-3.62279e-06
-1.34315e-07
-5.66543e-08
-4.01154e-06
-5.71916e-08
-4.40589e-06
-1.35143e-07
-1.35239e-08
-1.69114e-06
-6.40181e-08
-3.75437e-08
-2.14381e-06
-5.74811e-08
-6.41938e-08
-2.50332e-06
-5.53169e-08
-8.98908e-08
-2.85382e-06
-5.51863e-08
-1.12224e-07
-3.21284e-06
-5.60095e-08
-1.29064e-07
-3.5842e-06
-5.74385e-08
-1.38494e-07
-3.96658e-06
-5.92633e-08
-4.35394e-06
-6.12768e-08
-1.38877e-07
-1.10623e-09
-4.59767e-08
-1.68062e-06
3.23788e-08
-1.52579e-08
-4.0215e-08
-2.12632e-06
2.81206e-08
-3.45247e-08
-3.40858e-08
-2.48212e-06
2.25115e-08
-5.50584e-08
-2.78389e-08
-2.82985e-06
1.63653e-08
-7.45342e-08
-2.10353e-08
-3.18672e-06
9.47437e-09
-9.09024e-08
-1.37262e-08
-3.5567e-06
1.94577e-09
-1.02282e-07
-6.26505e-09
-3.93878e-06
-5.76119e-09
7.82636e-10
-4.32741e-06
-1.30754e-08
-1.06929e-07
-5.20471e-09
-5.55494e-08
-1.69529e-06
-2.31339e-08
-4.88176e-08
-2.14178e-06
-4.5235e-08
-4.27604e-08
-2.5004e-06
-6.78268e-08
-3.69976e-08
-2.85216e-06
-8.87136e-08
-3.09041e-08
-3.21376e-06
-1.05958e-07
-2.44566e-08
-3.58909e-06
-1.17686e-07
-1.79385e-08
-3.97711e-06
-1.17437e-08
-4.37213e-06
-1.22247e-07
-1.04599e-08
-5.94154e-08
-1.70682e-06
-3.2543e-08
-5.2569e-08
-2.15391e-06
-5.76042e-08
-4.71342e-08
-2.51538e-06
-8.20774e-08
-4.23681e-08
-2.87108e-06
-1.04036e-07
-3.75718e-08
-3.23693e-06
-1.22035e-07
-3.26681e-08
-3.61628e-06
-1.34176e-07
-2.77872e-08
-4.00883e-06
-2.32049e-08
-4.4089e-06
-1.38618e-07
-1.38344e-08
-6.00595e-08
-1.71017e-06
-3.87173e-08
-5.37158e-08
-2.15658e-06
-6.62156e-08
-4.93986e-08
-2.5185e-06
-9.2855e-08
-4.60361e-08
-2.87541e-06
-1.1659e-07
-4.29031e-08
-3.24334e-06
-1.35592e-07
-3.98719e-08
-3.62595e-06
-1.47991e-07
-3.69857e-08
-4.02214e-06
-3.43737e-08
-4.42597e-06
-1.52033e-07
-1.61191e-08
-5.80293e-08
-1.7066e-06
-4.27441e-08
-5.27328e-08
-2.15176e-06
-7.1756e-08
-4.98454e-08
-2.51285e-06
-9.97243e-08
-4.81221e-08
-2.86925e-06
-1.24438e-07
-4.6835e-08
-3.23716e-06
-1.43935e-07
-4.58212e-08
-3.62017e-06
-1.56363e-07
-4.50517e-08
-4.01683e-06
-4.4524e-08
-4.42106e-06
-1.60008e-07
-1.66846e-08
-5.44994e-08
-1.69587e-06
-4.37577e-08
-5.0211e-08
-2.13955e-06
-7.31012e-08
-4.87572e-08
-2.49877e-06
-1.01285e-07
-4.86456e-08
-2.85303e-06
-1.26043e-07
-4.91527e-08
-3.21865e-06
-1.4538e-07
-5.00683e-08
-3.59921e-06
-1.5746e-07
-5.12691e-08
-3.99325e-06
-5.26065e-08
-4.39465e-06
-1.60631e-07
-1.73804e-08
-1.67938e-06
-4.88712e-08
-4.4869e-08
-2.121e-06
-4.55278e-08
-7.46005e-08
-2.47705e-06
-4.52842e-08
-1.03144e-07
-2.82739e-06
-4.65348e-08
-1.28181e-07
-3.18839e-06
-4.85663e-08
-1.47656e-07
-3.56368e-06
-5.11179e-08
-1.59683e-07
-3.95186e-06
-5.39732e-08
-4.34682e-06
-5.68745e-08
-1.62548e-07
-5.24022e-09
-4.66728e-08
-1.66357e-06
3.4871e-08
-2.33758e-08
-3.83397e-08
-2.09733e-06
2.7488e-08
-4.59486e-08
-3.07383e-08
-2.44879e-06
1.99865e-08
-6.93981e-08
-2.32307e-08
-2.79543e-06
1.22638e-08
-9.15313e-08
-1.52093e-08
-3.15326e-06
3.88631e-09
-1.10417e-07
-6.74903e-09
-3.52608e-06
-4.98393e-09
-1.24168e-07
1.69209e-09
-3.91288e-06
-1.38475e-08
9.73176e-09
-4.30811e-06
-2.21649e-08
-1.31058e-07
-1.00521e-08
-5.40388e-08
-1.67787e-06
-3.19804e-08
-4.54939e-08
-2.1127e-06
-5.72273e-08
-3.84898e-08
-2.4674e-06
-8.24524e-08
-3.18869e-08
-2.81828e-06
-1.05768e-07
-2.49519e-08
-3.18071e-06
-1.25427e-07
-1.76773e-08
-3.55852e-06
-1.39604e-07
-1.04359e-08
-3.95083e-06
-3.61727e-09
-4.35199e-06
-1.46425e-07
-1.6223e-08
-5.48199e-08
-1.68981e-06
-4.24799e-08
-4.714e-08
-2.126e-06
-7.03253e-08
-4.13341e-08
-2.48469e-06
-9.65853e-08
-3.62313e-08
-2.84048e-06
-1.19938e-07
-3.11468e-08
-3.20739e-06
-1.39994e-07
-2.60364e-08
-3.58788e-06
-1.54566e-07
-2.09727e-08
-3.98374e-06
-1.62306e-08
-4.38935e-06
-1.61537e-07
-1.94662e-08
-5.29292e-08
-1.69259e-06
-4.83658e-08
-4.68233e-08
-2.12799e-06
-7.87479e-08
-4.27803e-08
-2.48667e-06
-1.07556e-07
-3.96148e-08
-2.84323e-06
-1.33318e-07
-3.67205e-08
-3.21202e-06
-1.54546e-07
-3.39713e-08
-3.59681e-06
-1.69356e-07
-3.13666e-08
-3.99696e-06
-2.9013e-08
-4.4067e-06
-1.75877e-07
-2.14926e-08
-4.88627e-08
-1.68916e-06
-5.19426e-08
-4.49346e-08
-2.12319e-06
-8.3893e-08
-4.29865e-08
-2.4807e-06
-1.14348e-07
-4.19759e-08
-2.83644e-06
-1.41384e-07
-4.13668e-08
-3.20549e-06
-1.63229e-07
-4.10217e-08
-3.59129e-06
-1.78103e-07
-4.08904e-08
-3.99246e-06
-4.09391e-08
-4.40302e-06
-1.84245e-07
-2.16794e-08
-4.37539e-08
-1.6793e-06
-5.24344e-08
-4.18271e-08
-2.1119e-06
-8.47529e-08
-4.18596e-08
-2.46757e-06
-1.15575e-07
-4.28755e-08
-2.82131e-06
-1.42836e-07
-4.44111e-08
-3.18835e-06
-1.64683e-07
-4.63039e-08
-3.57209e-06
-1.79351e-07
-4.8417e-08
-3.97108e-06
-5.05657e-08
-4.37926e-06
-1.85138e-07
-2.15681e-08
-1.66427e-06
-3.72935e-08
-5.23756e-08
-2.09498e-06
-3.70311e-08
-8.49328e-08
-2.44769e-06
-3.86601e-08
-1.16087e-07
-2.79779e-06
-4.13201e-08
-1.43667e-07
-3.16061e-06
-4.46105e-08
-1.65731e-07
-3.5396e-06
-4.83297e-08
-1.80452e-07
-3.93332e-06
-5.22478e-08
-4.33574e-06
-5.60642e-08
-1.86064e-07
-9.88605e-09
-4.53565e-08
-1.64314e-06
3.48167e-08
-3.17583e-08
-3.46287e-08
-2.06526e-06
2.44335e-08
-5.73119e-08
-2.57284e-08
-2.41269e-06
1.51881e-08
-8.33477e-08
-1.7093e-08
-2.75832e-06
6.01383e-09
-1.079e-07
-7.99049e-09
-3.11704e-06
-3.6771e-09
-1.29175e-07
1.39921e-09
-3.49259e-06
-1.36181e-08
-1.45403e-07
1.07779e-08
-3.88402e-06
-2.34193e-08
1.94013e-08
-4.28578e-06
-3.24736e-08
-1.54674e-07
-1.51358e-08
-5.12352e-08
-1.65685e-06
-4.06604e-08
-4.10431e-08
-2.08075e-06
-6.84636e-08
-3.32698e-08
-2.43205e-06
-9.56724e-08
-2.59511e-08
-2.78221e-06
-1.20995e-07
-1.82742e-08
-3.1451e-06
-1.4293e-07
-1.02602e-08
-3.52493e-06
-1.59464e-07
-2.40237e-09
-3.92112e-06
4.82671e-09
-4.3282e-06
-1.68701e-07
-2.23667e-08
-4.9395e-08
-1.66928e-06
-5.24047e-08
-4.10041e-08
-2.09599e-06
-8.19309e-08
-3.49005e-08
-2.45353e-06
-1.08611e-07
-2.95883e-08
-2.81016e-06
-1.32175e-07
-2.43694e-08
-3.17774e-06
-1.54096e-07
-1.92493e-08
-3.55698e-06
-1.71214e-07
-1.41902e-08
-3.95485e-06
-9.44893e-09
-4.36535e-06
-1.80965e-07
-2.49701e-08
-4.59476e-08
-1.67106e-06
-5.72955e-08
-4.00954e-08
-2.09657e-06
-8.96771e-08
-3.63129e-08
-2.45288e-06
-1.19447e-07
-3.3408e-08
-2.80964e-06
-1.46449e-07
-3.09073e-08
-3.17849e-06
-1.69595e-07
-2.86015e-08
-3.56433e-06
-1.8674e-07
-2.64166e-08
-3.96761e-06
-2.44331e-08
-4.38267e-06
-1.9581e-07
-2.64552e-08
-4.10726e-08
-1.66758e-06
-5.99575e-08
-3.84398e-08
-2.09134e-06
-9.40203e-08
-3.73824e-08
-2.44556e-06
-1.26177e-07
-3.71027e-08
-2.8006e-06
-1.54938e-07
-3.72262e-08
-3.17042e-06
-1.78743e-07
-3.76038e-08
-3.5585e-06
-1.95856e-07
-3.81523e-08
-3.96363e-06
-3.88095e-08
-4.38007e-06
-2.04455e-07
-2.62981e-08
-3.55532e-08
-1.65852e-06
-6.00085e-08
-3.58256e-08
-2.0808e-06
-9.45602e-08
-3.725e-08
-2.43315e-06
-1.27344e-07
-3.9368e-08
-2.78627e-06
-1.56563e-07
-4.19209e-08
-3.15445e-06
-1.80529e-07
-4.47707e-08
-3.54097e-06
-1.97552e-07
-4.77641e-08
-3.94446e-06
-5.06909e-08
-4.35907e-06
-2.05891e-07
-2.56359e-08
-1.64501e-06
-2.91778e-08
-5.92298e-08
-2.06542e-06
-3.17898e-08
-9.40317e-08
-2.41496e-06
-3.5176e-08
-1.2725e-07
-2.76473e-06
-3.92045e-08
-1.56913e-07
-3.12915e-06
-4.37227e-08
-1.81222e-07
-3.51151e-06
-4.85661e-08
-1.98426e-07
-3.9104e-06
-5.34919e-08
-4.31997e-06
-5.81728e-08
-2.06725e-07
-1.4577e-08
-4.20576e-08
-1.61869e-06
3.21859e-08
-3.96201e-08
-2.93088e-08
-2.03005e-06
1.91495e-08
-6.7483e-08
-1.94103e-08
-2.37387e-06
8.4595e-09
-9.54584e-08
-9.87091e-09
-2.71855e-06
-1.91109e-09
-1.2189e-07
-3.13225e-11
-3.07809e-06
-1.24909e-08
-1.45276e-07
1.02248e-08
-3.45625e-06
-2.31849e-08
-1.63699e-07
1.99986e-08
-3.85209e-06
-3.35074e-08
2.88933e-08
-4.26024e-06
-4.29159e-08
-1.75217e-07
-2.00303e-08
-4.71797e-08
-1.6317e-06
-4.84248e-08
-3.5684e-08
-2.04597e-06
-7.78079e-08
-2.74189e-08
-2.39465e-06
-1.06075e-07
-1.95097e-08
-2.74429e-06
-1.32908e-07
-1.1155e-08
-3.10714e-06
-1.56624e-07
-2.62157e-09
-3.48836e-06
-1.75185e-07
5.44714e-09
-3.88801e-06
1.27935e-08
-4.30069e-06
-1.86605e-07
-2.86338e-08
-4.3146e-08
-1.64467e-06
-6.16532e-08
-3.42824e-08
-2.06436e-06
-9.0801e-08
-2.80243e-08
-2.42376e-06
-1.15663e-07
-2.2779e-08
-2.78202e-06
-1.39885e-07
-1.77663e-08
-3.1469e-06
-1.6311e-07
-1.27986e-08
-3.52358e-06
-1.82597e-07
-7.93194e-09
-3.92199e-06
-3.38942e-09
-4.33678e-06
-1.94986e-07
-2.99949e-08
-3.91099e-08
-1.6451e-06
-6.48494e-08
-3.35979e-08
-2.06239e-06
-9.79721e-08
-3.01129e-08
-2.41766e-06
-1.27241e-07
-2.75986e-08
-2.77555e-06
-1.54674e-07
-2.56774e-08
-3.14314e-06
-1.79262e-07
-2.3983e-08
-3.52855e-06
-1.98376e-07
-2.23499e-08
-3.93408e-06
-2.08443e-08
-4.35391e-06
-2.09692e-07
-3.06316e-08
-3.46046e-08
-1.64145e-06
-6.61528e-08
-3.32006e-08
-2.05621e-06
-1.01244e-07
-3.2991e-08
-2.40759e-06
-1.34069e-07
-3.34578e-08
-2.76191e-06
-1.63755e-07
-3.43519e-08
-3.13206e-06
-1.889e-07
-3.54725e-08
-3.52186e-06
-2.07752e-07
-3.67064e-08
-3.93043e-06
-3.79713e-08
-4.35229e-06
-2.18412e-07
-3.01522e-08
-2.97719e-08
-1.63319e-06
-6.58233e-08
-3.20229e-08
-2.0463e-06
-1.01616e-07
-3.47056e-08
-2.39565e-06
-1.35454e-07
-3.78498e-08
-2.74804e-06
-1.65856e-07
-4.13488e-08
-3.11705e-06
-1.91286e-07
-4.50685e-08
-3.50595e-06
-2.10121e-07
-4.88433e-08
-3.91349e-06
-5.24534e-08
-4.33413e-06
-2.20583e-07
-2.91749e-08
-1.62125e-06
-2.4355e-08
-6.47334e-08
-2.03236e-06
-2.9516e-08
-1.00941e-07
-2.379e-06
-3.44618e-08
-1.35436e-07
-2.72836e-06
-3.9726e-08
-1.66476e-07
-3.09412e-06
-4.53389e-08
-1.92411e-07
-3.47948e-06
-5.11572e-08
-2.1157e-07
-3.88316e-06
-5.69318e-08
-4.29954e-06
-6.23312e-08
-2.22132e-07
-1.88904e-08
-3.6836e-08
-1.59003e-06
2.7066e-08
-4.62754e-08
-2.26206e-08
-1.99198e-06
1.19593e-08
-7.55062e-08
-1.21043e-08
-2.33274e-06
2.22254e-10
-1.0459e-07
-2.01991e-09
-2.67666e-06
-1.07738e-08
-1.3235e-07
8.45815e-09
-3.03693e-06
-2.18404e-08
-1.57194e-07
1.88158e-08
-3.41747e-06
-3.27359e-08
-1.77263e-07
2.85319e-08
-3.8175e-06
-4.30486e-08
3.72521e-08
-4.23186e-06
-5.23145e-08
-1.90572e-07
-2.43546e-08
-4.18561e-08
-1.60231e-06
-5.46143e-08
-2.95244e-08
-2.00878e-06
-8.44133e-08
-2.09782e-08
-2.35596e-06
-1.12992e-07
-1.25816e-08
-2.70513e-06
-1.40602e-07
-3.96475e-09
-3.06709e-06
-1.65446e-07
4.5827e-09
-3.44927e-06
-1.85401e-07
1.24827e-08
-3.85199e-06
1.96201e-08
-4.26998e-06
-1.98464e-07
-3.43615e-08
-3.63003e-08
-1.61585e-06
-6.86263e-08
-2.73089e-08
-2.03229e-06
-9.47805e-08
-2.12058e-08
-2.39736e-06
-1.18894e-07
-1.64003e-08
-2.75407e-06
-1.42141e-07
-1.1705e-08
-3.11589e-06
-1.67449e-07
-7.16998e-09
-3.4865e-06
-1.88702e-07
-2.72139e-09
-3.88552e-06
1.41917e-09
-4.30437e-06
-2.02897e-07
-3.40594e-08
-3.26391e-08
-1.61469e-06
-7.01783e-08
-2.765e-08
-2.02591e-06
-1.02491e-07
-2.46169e-08
-2.38192e-06
-1.30561e-07
-2.27152e-08
-2.74115e-06
-1.58189e-07
-2.15291e-08
-3.10567e-06
-1.83456e-07
-2.04505e-08
-3.48999e-06
-2.03767e-07
-1.94066e-08
-3.89707e-06
-1.84343e-08
-4.32123e-06
-2.16575e-07
-3.37536e-08
-2.94849e-08
-1.61084e-06
-7.01091e-08
-2.92551e-08
-2.01824e-06
-1.05039e-07
-2.98585e-08
-2.36741e-06
-1.37444e-07
-3.10525e-08
-2.72115e-06
-1.6726e-07
-3.27055e-08
-3.09105e-06
-1.92983e-07
-3.45202e-08
-3.48206e-06
-2.12832e-07
-3.63749e-08
-3.89359e-06
-3.81878e-08
-4.32051e-06
-2.24846e-07
-3.2979e-08
-2.62476e-08
-1.60345e-06
-6.94617e-08
-3.01977e-08
-2.00886e-06
-1.05361e-07
-3.39539e-08
-2.35564e-06
-1.39234e-07
-3.79853e-08
-2.70722e-06
-1.69928e-07
-4.22858e-08
-3.07676e-06
-1.96006e-07
-4.67091e-08
-3.46767e-06
-2.15881e-07
-5.10882e-08
-3.87889e-06
-5.52128e-08
-4.30522e-06
-2.27746e-07
-3.18729e-08
-1.59306e-06
-2.25529e-08
-6.83749e-08
-1.99623e-06
-2.9815e-08
-1.04987e-07
-2.34029e-06
-3.60316e-08
-1.39829e-07
-2.68919e-06
-4.2298e-08
-1.71385e-07
-3.05607e-06
-4.87647e-08
-1.98134e-07
-3.44413e-06
-5.52994e-08
-2.18475e-07
-3.85223e-06
-6.16585e-08
-4.2751e-06
-6.75297e-08
-2.30575e-07
-2.25161e-08
-2.97981e-08
-1.55741e-06
1.96973e-08
-5.12395e-08
-1.47561e-08
-1.95175e-06
3.27443e-09
-8.08637e-08
-4.04909e-09
-2.29024e-06
-8.8072e-09
-1.10218e-07
6.31201e-09
-2.63365e-06
-1.9948e-08
-1.38491e-07
1.66671e-08
-2.99445e-06
-3.08467e-08
-1.64022e-07
2.65239e-08
-3.37713e-06
-4.13102e-08
-1.84985e-07
3.55867e-08
-3.7811e-06
-5.0996e-08
4.35894e-08
-4.2015e-06
-5.95441e-08
-1.99366e-07
-2.77091e-08
-3.52123e-08
-1.56917e-06
-5.86501e-08
-2.24859e-08
-1.97008e-06
-8.81853e-08
-1.37921e-08
-2.31665e-06
-1.16191e-07
-5.33405e-09
-2.66545e-06
-1.44015e-07
2.95906e-09
-3.02553e-06
-1.69157e-07
1.09144e-08
-3.40849e-06
-1.89683e-07
1.82188e-08
-3.81407e-06
2.46641e-08
-4.23715e-06
-2.03551e-07
-3.81286e-08
-2.93447e-08
-1.58357e-06
-7.12185e-08
-2.06963e-08
-2.00095e-06
-9.47631e-08
-1.51753e-08
-2.37224e-06
-1.17041e-07
-1.09321e-08
-2.7258e-06
-1.42221e-07
-7.02676e-09
-3.08069e-06
-1.6901e-07
-2.85114e-09
-3.44591e-06
-1.90618e-07
1.03758e-09
-3.84669e-06
4.63932e-09
-4.26971e-06
-2.05225e-07
-3.64174e-08
-2.69813e-08
-1.58062e-06
-7.2266e-08
-2.28226e-08
-1.98791e-06
-1.0367e-07
-2.05029e-08
-2.34516e-06
-1.29889e-07
-1.92081e-08
-2.70644e-06
-1.57569e-07
-1.88014e-08
-3.06618e-06
-1.83144e-07
-1.82862e-08
-3.44895e-06
-2.03508e-07
-1.77671e-08
-3.85787e-06
-1.7311e-08
-4.28613e-06
-2.16625e-07
-3.5542e-08
-2.58038e-08
-1.57646e-06
-7.1609e-08
-2.67122e-08
-1.97825e-06
-1.05324e-07
-2.80897e-08
-2.32608e-06
-1.3642e-07
-2.99597e-08
-2.67928e-06
-1.65649e-07
-3.22467e-08
-3.04835e-06
-1.91173e-07
-3.45952e-08
-3.44019e-06
-2.11162e-07
-3.69249e-08
-3.85441e-06
-3.916e-08
-4.28613e-06
-2.23655e-07
-3.45654e-08
-2.47478e-08
-1.56992e-06
-7.07443e-08
-3.0082e-08
-1.96928e-06
-1.05612e-07
-3.46732e-08
-2.31416e-06
-1.38537e-07
-3.93867e-08
-2.66484e-06
-1.68669e-07
-4.42658e-08
-3.03458e-06
-1.94551e-07
-4.91471e-08
-3.4272e-06
-2.14607e-07
-5.38784e-08
-3.84184e-06
-5.82769e-08
-4.27365e-06
-2.27022e-07
-3.34856e-08
-1.56096e-06
-2.33468e-08
-6.98485e-08
-1.95774e-06
-3.21729e-08
-1.05828e-07
-2.29967e-06
-3.9289e-08
-1.40077e-07
-2.64806e-06
-4.62326e-08
-1.71268e-07
-3.0159e-06
-5.32165e-08
-1.97962e-07
-3.40643e-06
-6.01154e-08
-2.18606e-07
-3.81873e-06
-6.6704e-08
-4.24787e-06
-7.27109e-08
-2.31369e-07
-2.51813e-08
-2.11977e-08
-1.52159e-06
1.05734e-08
-5.43357e-08
-5.98839e-09
-1.91033e-06
-6.23115e-09
-8.34555e-08
4.55925e-09
-2.24764e-06
-1.7997e-08
-1.1215e-07
1.46268e-08
-2.59095e-06
-2.85881e-08
-1.40109e-07
2.40236e-08
-2.95184e-06
-3.86447e-08
-1.65526e-07
3.26812e-08
-3.33634e-06
-4.80119e-08
-1.86556e-07
4.04641e-08
-3.74405e-06
-5.644e-08
4.7192e-08
-4.17033e-06
-6.36841e-08
-2.0118e-07
-2.96832e-08
-2.73119e-08
-1.53335e-06
-6.03722e-08
-1.46775e-08
-1.93066e-06
-8.877e-08
-6.2957e-09
-2.27736e-06
-1.16381e-07
2.00254e-09
-2.62518e-06
-1.43576e-07
9.35966e-09
-2.98363e-06
-1.68212e-07
1.60685e-08
-3.3672e-06
-1.88379e-07
2.21472e-08
-3.77554e-06
2.74299e-08
-4.20361e-06
-2.0211e-07
-3.89709e-08
-2.27991e-08
-1.54909e-06
-7.04916e-08
-1.49921e-08
-1.96907e-06
-9.00145e-08
-1.01675e-08
-2.34878e-06
-1.13156e-07
-6.65326e-09
-2.69433e-06
-1.4422e-07
-3.67189e-09
-3.03657e-06
-1.6907e-07
-9.32975e-11
-3.40486e-06
-1.89184e-07
3.15665e-09
-3.80754e-06
5.91989e-09
-4.23464e-06
-2.02686e-07
-3.64802e-08
-2.25672e-08
-1.54435e-06
-7.05526e-08
-1.95621e-08
-1.94922e-06
-1.00198e-07
-1.82195e-08
-2.30742e-06
-1.27348e-07
-1.76277e-08
-2.66846e-06
-1.54859e-07
-1.76768e-08
-3.02464e-06
-1.79207e-07
-1.75063e-08
-3.40714e-06
-1.98458e-07
-1.74063e-08
-3.81801e-06
-1.74349e-08
-4.25036e-06
-2.10815e-07
-3.57534e-08
-2.3657e-08
-1.53959e-06
-7.05077e-08
-2.564e-08
-1.93737e-06
-1.0236e-07
-2.77337e-08
-2.28467e-06
-1.31904e-07
-3.01651e-08
-2.63703e-06
-1.59864e-07
-3.28067e-08
-3.00522e-06
-1.84449e-07
-3.54559e-08
-3.39761e-06
-2.03736e-07
-3.80525e-08
-3.81443e-06
-4.05321e-08
-4.25087e-06
-2.15846e-07
-3.47399e-08
-2.50203e-08
-1.53379e-06
-6.96327e-08
-3.13755e-08
-1.92861e-06
-1.02706e-07
-3.65274e-08
-2.27225e-06
-1.33814e-07
-4.16278e-08
-2.62223e-06
-1.62673e-07
-4.67869e-08
-2.9917e-06
-1.87622e-07
-5.18168e-08
-3.38585e-06
-2.07068e-07
-5.65921e-08
-3.80381e-06
-6.09709e-08
-4.241e-06
-2.19222e-07
-3.37836e-08
-1.52598e-06
-2.6193e-08
-6.90684e-08
-1.91781e-06
-3.5984e-08
-1.0349e-07
-2.25818e-06
-4.35583e-08
-1.36353e-07
-2.606e-06
-5.07889e-08
-1.6642e-07
-2.97469e-06
-5.78848e-08
-1.92276e-07
-3.36762e-06
-6.47326e-08
-2.12399e-07
-3.78401e-06
-7.11381e-08
-4.21931e-06
-7.6886e-08
-2.24983e-07
-2.66306e-08
-1.14248e-08
-1.48382e-06
3.02773e-10
-5.54596e-08
3.24823e-09
-1.86898e-06
-1.57211e-08
-8.35979e-08
1.32775e-08
-2.2062e-06
-2.65394e-08
-1.1078e-07
2.20226e-08
-2.54987e-06
-3.5878e-08
-1.37608e-07
2.9772e-08
-2.91031e-06
-4.44254e-08
-1.62207e-07
3.66609e-08
-3.29625e-06
-5.21026e-08
-1.82542e-07
4.2638e-08
-3.70757e-06
-5.8725e-08
4.76222e-08
-4.13967e-06
-6.41549e-08
-1.96615e-07
-3.01141e-08
-1.83454e-08
-1.49628e-06
-5.97573e-08
-6.38462e-09
-1.89133e-06
-8.70125e-08
1.67803e-09
-2.23846e-06
-1.13835e-07
8.635e-09
-2.58492e-06
-1.40058e-07
1.44707e-08
-2.94206e-06
-1.63472e-07
1.94348e-08
-3.3265e-06
-1.82461e-07
2.38663e-08
-3.73772e-06
2.76239e-08
-4.17079e-06
-1.95212e-07
-3.6072e-08
-1.72221e-08
-1.51412e-06
-6.31491e-08
-1.07215e-08
-1.93761e-06
-8.47409e-08
-7.05572e-09
-2.31876e-06
-1.14409e-07
-4.30398e-09
-2.65204e-06
-1.43946e-07
-1.56766e-09
-2.99093e-06
-1.66547e-07
1.18254e-09
-3.36395e-06
-1.84411e-07
3.48145e-09
-3.76924e-06
5.28181e-09
-4.20068e-06
-1.95965e-07
-3.45399e-08
-1.95763e-08
-1.50742e-06
-6.59142e-08
-1.79032e-08
-1.91062e-06
-9.39934e-08
-1.76829e-08
-2.26867e-06
-1.23231e-07
-1.78465e-08
-2.62582e-06
-1.49969e-07
-1.78157e-08
-2.98159e-06
-1.72185e-07
-1.78314e-08
-3.36586e-06
-1.89647e-07
-1.8104e-08
-3.7789e-06
-1.85832e-08
-4.21556e-06
-2.0052e-07
-3.45186e-08
-2.29945e-08
-1.50163e-06
-6.73557e-08
-2.59015e-08
-1.89649e-06
-9.69717e-08
-2.85819e-08
-2.24411e-06
-1.24684e-07
-3.12431e-08
-2.59584e-06
-1.51356e-07
-3.40416e-08
-2.96228e-06
-1.74363e-07
-3.67542e-08
-3.35563e-06
-1.92228e-07
-3.93914e-08
-3.77522e-06
-4.19151e-08
-4.21646e-06
-2.0324e-07
-3.36619e-08
-2.67737e-08
-1.49632e-06
-6.67335e-08
-3.37062e-08
-1.88769e-06
-9.68643e-08
-3.90428e-08
-2.23161e-06
-1.26247e-07
-4.42844e-08
-2.57976e-06
-1.5325e-07
-4.93518e-08
-2.94934e-06
-1.76682e-07
-5.41774e-08
-3.34494e-06
-1.94874e-07
-5.86629e-08
-3.76629e-06
-6.27076e-08
-4.20892e-06
-2.06111e-07
-3.28175e-08
-1.48939e-06
-3.05238e-08
-6.62773e-08
-1.8774e-06
-4.06036e-08
-9.85056e-08
-2.21678e-06
-4.81638e-08
-1.29418e-07
-2.56409e-06
-5.52352e-08
-1.57809e-07
-2.9336e-06
-6.20066e-08
-1.82223e-07
-3.32896e-06
-6.83675e-08
-2.01167e-07
-3.74951e-06
-7.41649e-08
-4.19099e-06
-7.92474e-08
-2.12899e-07
-2.70932e-08
-1.26158e-09
-1.4455e-06
-9.94888e-09
-5.52719e-08
1.21378e-08
-1.82854e-06
-2.43492e-08
-8.11546e-08
2.07479e-08
-2.16758e-06
-3.34402e-08
-1.06799e-07
2.75808e-08
-2.51075e-06
-4.10097e-08
-1.32156e-07
3.32543e-08
-2.87057e-06
-4.75782e-08
-1.55374e-07
3.79988e-08
-3.25785e-06
-5.31232e-08
-1.74352e-07
4.18513e-08
-3.67284e-06
-5.75495e-08
4.47962e-08
-4.11075e-06
-6.08105e-08
-1.87187e-07
-2.92709e-08
-9.10241e-09
-1.45913e-06
-5.72922e-08
1.41558e-09
-1.85254e-06
-8.30938e-08
8.54206e-09
-2.2004e-06
-1.09394e-07
1.34702e-08
-2.54446e-06
-1.34387e-07
1.73151e-08
-2.90107e-06
-1.56103e-07
2.0553e-08
-3.28729e-06
-1.73336e-07
2.32093e-08
-3.70179e-06
2.52501e-08
-4.14002e-06
-1.84495e-07
-3.07317e-08
-1.27327e-08
-1.47972e-06
-5.34485e-08
-7.70806e-09
-1.90573e-06
-8.35595e-08
-5.44947e-09
-2.27446e-06
-1.14013e-07
-2.90575e-09
-2.6047e-06
-1.40027e-07
-7.38304e-10
-2.94682e-06
-1.61144e-07
9.69852e-10
-3.3232e-06
-1.76761e-07
2.19157e-09
-3.73255e-06
2.94629e-09
-4.16897e-06
-1.86102e-07
-3.14407e-08
-1.77659e-08
-1.47092e-06
-6.00323e-08
-1.73504e-08
-1.87234e-06
-8.79552e-08
-1.79764e-08
-2.22818e-06
-1.16765e-07
-1.83673e-08
-2.58132e-06
-1.42269e-07
-1.85443e-08
-2.93824e-06
-1.62933e-07
-1.88953e-08
-3.32528e-06
-1.78366e-07
-1.953e-08
-3.74169e-06
-2.0413e-08
-4.1831e-06
-1.87408e-07
-3.20099e-08
-2.34894e-08
-1.46387e-06
-6.23851e-08
-2.70697e-08
-1.85635e-06
-9.00533e-08
-3.0072e-08
-2.2043e-06
-1.16701e-07
-3.29004e-08
-2.55489e-06
-1.41665e-07
-3.55229e-08
-2.92029e-06
-1.62623e-07
-3.80673e-08
-3.31545e-06
-1.78553e-07
-4.05459e-08
-3.73823e-06
-4.29226e-08
-4.18446e-06
-1.87984e-07
-3.14625e-08
-2.96065e-08
-1.45871e-06
-6.20139e-08
-3.66656e-08
-1.84749e-06
-9.02502e-08
-4.19291e-08
-2.19148e-06
-1.16898e-07
-4.6806e-08
-2.53916e-06
-1.42144e-07
-5.14583e-08
-2.90811e-06
-1.63647e-07
-5.57454e-08
-3.30572e-06
-1.80105e-07
-5.96228e-08
-3.73071e-06
-6.30394e-08
-4.17889e-06
-1.89961e-07
-3.09371e-08
-1.45233e-06
-3.56962e-08
-6.21665e-08
-1.83743e-06
-4.53621e-08
-9.17724e-08
-2.17665e-06
-5.24133e-08
-1.20532e-07
-2.52319e-06
-5.89125e-08
-1.46923e-07
-2.8937e-06
-6.49256e-08
-1.69488e-07
-3.29171e-06
-7.03918e-08
-1.86795e-07
-3.71659e-06
-7.51964e-08
-4.16431e-06
-7.92505e-08
-1.97214e-07
-2.64051e-08
8.20204e-09
-1.40786e-06
-1.94161e-08
-5.29074e-08
1.93372e-08
-1.79001e-06
-3.13142e-08
-7.79768e-08
2.5976e-08
-2.13017e-06
-3.82703e-08
-1.01271e-07
3.07523e-08
-2.47472e-06
-4.34419e-08
-1.25526e-07
3.4026e-08
-2.83251e-06
-4.77895e-08
-1.46884e-07
3.65068e-08
-3.22198e-06
-5.09708e-08
-1.63902e-07
3.81624e-08
-3.64092e-06
-5.30113e-08
3.89983e-08
-4.08471e-06
-5.39537e-08
-1.74922e-07
-2.71856e-08
-8.92579e-10
-1.42282e-06
-5.29216e-08
7.70919e-09
-1.81513e-06
-7.82973e-08
1.26435e-08
-2.16166e-06
-1.04359e-07
1.57133e-08
-2.50332e-06
-1.27625e-07
1.78954e-08
-2.86163e-06
-1.47357e-07
1.93839e-08
-3.25039e-06
-1.62516e-07
2.02751e-08
-3.66869e-06
2.06079e-08
-4.11234e-06
-1.71749e-07
-2.52378e-08
-9.18022e-09
-1.44617e-06
-4.91845e-08
-5.75355e-09
-1.86828e-06
-8.00216e-08
-3.986e-09
-2.22695e-06
-1.09215e-07
-2.33798e-09
-2.55752e-06
-1.34372e-07
-1.24611e-09
-2.90248e-06
-1.53592e-07
-5.47125e-10
-3.28401e-06
-1.67087e-07
-3.57742e-10
-3.69838e-06
-6.54239e-10
-4.1404e-06
-1.74344e-07
-2.78287e-08
-1.66932e-08
-1.43555e-06
-5.39988e-08
-1.72976e-08
-1.83458e-06
-8.10683e-08
-1.83716e-08
-2.18669e-06
-1.09857e-07
-1.91074e-08
-2.53572e-06
-1.33518e-07
-1.96121e-08
-2.89617e-06
-1.52349e-07
-2.03128e-08
-3.28665e-06
-1.65829e-07
-2.1286e-08
-3.70724e-06
-2.25087e-08
-4.15396e-06
-1.73067e-07
-2.86148e-08
-2.4634e-08
-1.42728e-06
-5.62071e-08
-2.85715e-08
-1.81745e-06
-8.2485e-08
-3.16882e-08
-2.16467e-06
-1.09156e-07
-3.44362e-08
-2.51289e-06
-1.31705e-07
-3.67137e-08
-2.8806e-06
-1.50442e-07
-3.8949e-08
-3.27804e-06
-1.643e-07
-4.11241e-08
-3.70449e-06
-4.32024e-08
-4.15603e-06
-1.72e-07
-2.84327e-08
-3.29201e-08
-1.42197e-06
-5.63923e-08
-3.96153e-08
-1.80845e-06
-8.26852e-08
-4.44771e-08
-2.15237e-06
-1.07889e-07
-4.87497e-08
-2.49961e-06
-1.30979e-07
-5.26377e-08
-2.86907e-06
-1.50284e-07
-5.60984e-08
-3.26923e-06
-1.64732e-07
-5.91185e-08
-3.69824e-06
-6.1679e-08
-4.15215e-06
-1.72959e-07
-2.84217e-08
-1.41584e-06
-4.09648e-08
-5.72406e-08
-1.79862e-06
-4.95788e-08
-8.45568e-08
-2.13806e-06
-5.57185e-08
-1.11204e-07
-2.48402e-06
-6.12398e-08
-1.35417e-07
-2.85596e-06
-6.61306e-08
-1.5588e-07
-3.25695e-06
-7.03701e-08
-1.71276e-07
-3.68639e-06
-7.38869e-08
-4.14047e-06
-7.66451e-08
-1.80121e-07
-2.48225e-08
1.58727e-08
-1.37181e-06
-2.70907e-08
-4.9273e-08
2.40149e-08
-1.75375e-06
-3.57938e-08
-7.2791e-08
2.82769e-08
-2.0946e-06
-4.03067e-08
-9.66302e-08
3.06424e-08
-2.43831e-06
-4.31896e-08
-1.19168e-07
3.19255e-08
-2.79682e-06
-4.50524e-08
-1.38271e-07
3.23385e-08
-3.18935e-06
-4.58362e-08
-1.52901e-07
3.19575e-08
-3.61267e-06
-4.55464e-08
3.0841e-08
-4.06244e-06
-4.42589e-08
-1.61723e-07
-2.47019e-08
5.73214e-09
-1.38795e-06
-4.84957e-08
1.1699e-08
-1.77882e-06
-7.31251e-08
1.45539e-08
-2.12328e-06
-9.87823e-08
1.58518e-08
-2.46285e-06
-1.204e-07
1.62844e-08
-2.82435e-06
-1.38191e-07
1.61422e-08
-3.21637e-06
-1.51275e-07
1.54511e-08
-3.63908e-06
1.42598e-08
-4.08847e-06
-1.58541e-07
-2.05476e-08
-6.3493e-09
-1.41352e-06
-4.48854e-08
-4.46267e-09
-1.82776e-06
-7.4631e-08
-3.71429e-09
-2.17908e-06
-1.0461e-07
-3.05145e-09
-2.50871e-06
-1.27359e-07
-2.83594e-09
-2.86059e-06
-1.44653e-07
-3.11234e-09
-3.24744e-06
-1.56328e-07
-3.86828e-09
-3.66736e-06
-5.05565e-09
-4.11555e-06
-1.6184e-07
-2.45265e-08
-1.60362e-08
-1.40132e-06
-4.879e-08
-1.73727e-08
-1.79739e-06
-7.4579e-08
-1.86904e-08
-2.1459e-06
-1.02324e-07
-1.98551e-08
-2.49115e-06
-1.24207e-07
-2.07142e-08
-2.85639e-06
-1.41334e-07
-2.17277e-08
-3.25088e-06
-1.5315e-07
-2.29734e-08
-3.6763e-06
-2.4437e-08
-4.12886e-06
-1.58844e-07
-2.50571e-08
-2.58678e-08
-1.39238e-06
-5.00445e-08
-2.97624e-08
-1.78005e-06
-7.60083e-08
-3.27337e-08
-2.12465e-06
-1.01118e-07
-3.51063e-08
-2.47236e-06
-1.21869e-07
-3.71471e-08
-2.84339e-06
-1.38654e-07
-3.9031e-08
-3.24393e-06
-1.5063e-07
-4.08049e-08
-3.67467e-06
-4.24729e-08
-4.13188e-06
-1.5672e-07
-2.5012e-08
-3.60342e-08
-1.38677e-06
-5.04383e-08
-4.18885e-08
-1.77088e-06
-7.53098e-08
-4.60493e-08
-2.11416e-06
-9.99399e-08
-4.95745e-08
-2.4605e-06
-1.20615e-07
-5.24488e-08
-2.83307e-06
-1.37723e-07
-5.49085e-08
-3.23623e-06
-1.50167e-07
-5.69259e-08
-3.66965e-06
-5.85002e-08
-4.12952e-06
-1.56747e-07
-2.5579e-08
-1.38071e-06
-4.55671e-08
-5.21058e-08
-1.7614e-06
-5.25604e-08
-7.77893e-08