/*--------------------------------*- C++ -*----------------------------------*\
| =========                 |                                                 |
| \\      /  F ield         | OpenFOAM: The Open Source CFD Toolbox           |
|  \\    /   O peration     | Version:  plus.master.MPPICInterFoam            |
|   \\  /    A nd           | Web:      www.OpenFOAM.com                      |
|    \\/     M anipulation  |                                                 |
\*---------------------------------------------------------------------------*/
FoamFile
{
    version     2.0;
    format      ascii;
    class       volVectorField;
    location    "1.2";
    object      U;
}
// * * * * * * * * * * * * * * * * * * * * * * * * * * * * * * * * * * * * * //

dimensions      [0 1 -1 0 0 0 0];

internalField   nonuniform List<vector> 
11822
(
(-2.72517e-06 -1.91411e-06 0.000727413)
(-7.91533e-07 -4.70945e-06 0.000728942)
(-5.10483e-07 -7.61064e-06 0.000729874)
(-3.45959e-07 -8.86448e-06 0.000730054)
(-3.16707e-07 -8.08253e-06 0.00072934)
(-8.54108e-08 -5.65591e-06 0.00072774)
(1.30164e-07 -3.42569e-06 0.00072511)
(-5.40636e-06 -3.25193e-07 0.00072911)
(-2.11809e-06 -1.62439e-06 0.000730783)
(-1.23404e-06 -3.66612e-06 0.000731887)
(-5.17189e-07 -4.57199e-06 0.000732062)
(-6.91066e-08 -4.00678e-06 0.000731181)
(6.78847e-07 -2.40122e-06 0.000729302)
(2.68413e-06 -1.61338e-06 0.000726607)
(-8.10478e-06 -1.92252e-07 0.000730214)
(-4.09638e-06 -8.37768e-07 0.000732069)
(-2.13295e-06 -1.74179e-06 0.000733156)
(-5.72562e-07 -2.18403e-06 0.00073325)
(7.26897e-07 -1.9553e-06 0.000732284)
(2.49459e-06 -1.24473e-06 0.000730307)
(5.55636e-06 -1.00159e-06 0.00072749)
(-9.2425e-06 -9.6925e-10 0.000730517)
(-4.98117e-06 -1.40303e-07 0.00073237)
(-2.57394e-06 -1.99823e-07 0.000733378)
(-6.15365e-07 -2.69891e-07 0.000733411)
(1.13294e-06 -3.44377e-07 0.000732426)
(3.43589e-06 -4.16029e-07 0.000730465)
(7.02735e-06 -5.98824e-07 0.000727641)
(-8.53489e-06 8.58404e-08 0.000729846)
(-4.50028e-06 2.29214e-07 0.00073155)
(-2.351e-06 1.02354e-06 0.000732473)
(-6.4976e-07 1.38634e-06 0.000732493)
(8.84618e-07 1.05683e-06 0.000731546)
(3.00698e-06 2.23043e-07 0.000729681)
(6.55418e-06 -3.80688e-07 0.000726972)
(-6.52285e-06 -1.1974e-07 0.000728208)
(-3.16627e-06 5.51326e-07 0.000729673)
(-1.67301e-06 2.58384e-06 0.000730499)
(-6.77475e-07 3.54615e-06 0.000730549)
(1.47381e-07 2.98987e-06 0.000729705)
(1.47036e-06 1.26887e-06 0.000728027)
(4.29466e-06 -1.39659e-07 0.00072554)
(-4.08905e-06 -7.03206e-08 0.000725529)
(-2.19622e-06 2.3075e-06 0.000726946)
(-1.23923e-06 5.59875e-06 0.000727643)
(-7.5987e-07 7.06896e-06 0.000727691)
(-3.89517e-07 6.32682e-06 0.000726973)
(1.6698e-07 3.69181e-06 0.000725529)
(1.41583e-06 5.61097e-07 0.00072313)
(-1.80041e-06 -2.21054e-06 0.000708651)
(-3.94012e-07 -3.2458e-06 0.000709685)
(-6.02205e-07 -4.99924e-06 0.000709436)
(-6.12808e-07 -6.17997e-06 0.000709302)
(-9.7555e-07 -6.62918e-06 0.000709168)
(-1.65141e-06 -6.41973e-06 0.000708929)
(-3.26157e-06 -5.91746e-06 0.000707301)
(-2.8169e-06 -8.69458e-07 0.000709741)
(-1.44197e-06 -1.87887e-06 0.00071139)
(-1.51966e-06 -3.28924e-06 0.000711903)
(-1.38187e-06 -4.26458e-06 0.000711943)
(-1.62524e-06 -4.60074e-06 0.000711486)
(-2.09416e-06 -4.36004e-06 0.00071051)
(-2.46788e-06 -4.20855e-06 0.000708184)
(-4.45629e-06 -9.44975e-07 0.000709716)
(-2.91465e-06 -1.78644e-06 0.000712046)
(-2.55302e-06 -2.72362e-06 0.000713021)
(-2.03909e-06 -3.41748e-06 0.000713127)
(-1.80746e-06 -3.70649e-06 0.0007124)
(-1.57298e-06 -3.61054e-06 0.000710811)
(-7.51009e-07 -3.59087e-06 0.000707802)
(-5.69194e-06 -8.12391e-07 0.000709732)
(-4.00075e-06 -1.49839e-06 0.000712193)
(-3.34668e-06 -2.06422e-06 0.000713238)
(-2.54352e-06 -2.4944e-06 0.000713303)
(-1.93542e-06 -2.76293e-06 0.000712447)
(-1.20184e-06 -2.87061e-06 0.000710642)
(3.05176e-07 -3.03643e-06 0.000707433)
(-6.28805e-06 -1.02529e-06 0.000709661)
(-4.48451e-06 -1.65767e-06 0.000711804)
(-3.69987e-06 -1.75093e-06 0.000712583)
(-2.82231e-06 -1.8157e-06 0.000712527)
(-2.12235e-06 -2.02839e-06 0.000711691)
(-1.25135e-06 -2.38518e-06 0.000710043)
(5.26621e-07 -2.7417e-06 0.000707065)
(-6.39771e-06 -1.85424e-06 0.000709395)
(-4.4031e-06 -2.24749e-06 0.000710852)
(-3.5837e-06 -1.52758e-06 0.000711028)
(-2.84927e-06 -1.07917e-06 0.000710766)
(-2.35772e-06 -1.18974e-06 0.000710094)
(-1.69768e-06 -1.82369e-06 0.000708974)
(-5.89418e-08 -2.50821e-06 0.000706664)
(-5.60622e-06 -3.25837e-06 0.000707866)
(-4.14507e-06 -2.61891e-06 0.000708623)
(-3.38622e-06 -6.0656e-07 0.000708046)
(-2.83835e-06 4.703e-07 0.000707565)
(-2.50005e-06 5.35804e-07 0.000707155)
(-2.11715e-06 -4.06445e-07 0.000706755)
(-1.2251e-06 -2.0345e-06 0.000705239)
(-1.31992e-06 -4.00979e-06 0.000695551)
(-4.83148e-07 2.95539e-07 0.000698303)
(-7.96597e-07 2.91737e-06 0.000699842)
(-3.58635e-07 3.32234e-06 0.000700661)
(-2.69373e-07 1.54193e-06 0.000700622)
(-1.65968e-07 -2.24926e-06 0.000699909)
(-1.63206e-07 -6.44741e-06 0.000697952)
(2.11051e-06 -1.5059e-06 0.00069832)
(-5.523e-07 -1.31988e-06 0.00070109)
(-1.12969e-06 2.1641e-07 0.000702889)
(-9.15202e-07 4.44917e-07 0.000703783)
(-7.78136e-07 -7.67329e-07 0.00070368)
(-1.03962e-06 -2.89057e-06 0.000702731)
(-3.06811e-06 -3.79478e-06 0.000700587)
(3.74016e-06 -8.09432e-07 0.00069998)
(4.4911e-07 -1.077e-06 0.000702976)
(-1.03483e-06 -7.19824e-07 0.00070499)
(-1.5335e-06 -8.31914e-07 0.000705933)
(-2.03707e-06 -1.5105e-06 0.000705729)
(-3.05439e-06 -2.50918e-06 0.000704482)
(-5.4342e-06 -2.69464e-06 0.000701966)
(3.6075e-06 1.60967e-07 0.000700881)
(3.19487e-07 -3.38661e-07 0.000703953)
(-1.35302e-06 -7.75252e-07 0.00070603)
(-2.09886e-06 -1.15704e-06 0.000706953)
(-2.83013e-06 -1.44012e-06 0.000706645)
(-4.07581e-06 -1.61404e-06 0.000705207)
(-6.41164e-06 -1.64515e-06 0.00070254)
(1.62541e-06 8.09271e-07 0.00070091)
(-1.03903e-06 2.70017e-07 0.000703951)
(-2.13771e-06 -8.82519e-07 0.000705944)
(-2.48942e-06 -1.50605e-06 0.000706762)
(-2.9019e-06 -1.42868e-06 0.000706329)
(-3.84474e-06 -8.92014e-07 0.000704781)
(-5.90908e-06 -8.77867e-07 0.000702121)
(-1.96557e-06 1.50019e-06 0.000700275)
(-3.06568e-06 5.19502e-07 0.000703123)
(-3.10389e-06 -1.51094e-06 0.000704822)
(-2.67927e-06 -2.38845e-06 0.000705437)
(-2.44923e-06 -1.89984e-06 0.00070489)
(-2.64941e-06 -4.2289e-07 0.000703374)
(-3.97446e-06 2.26779e-07 0.0007009)
(-4.72492e-06 3.24197e-06 0.000698439)
(-3.54351e-06 -1.10519e-06 0.000701132)
(-3.07506e-06 -3.71919e-06 0.000702443)
(-2.59123e-06 -4.53699e-06 0.000702882)
(-2.35411e-06 -3.56481e-06 0.000702337)
(-2.05244e-06 -8.36021e-07 0.000701038)
(-1.36127e-06 2.39475e-06 0.000698792)
(6.70793e-06 4.03471e-06 0.000706085)
(3.71784e-06 8.18897e-06 0.000713219)
(2.01493e-06 1.09352e-05 0.000718945)
(5.44927e-07 1.20197e-05 0.000721406)
(-8.96871e-07 1.22001e-05 0.000720434)
(-1.84781e-06 1.13897e-05 0.00071635)
(-2.27232e-06 8.88664e-06 0.000710193)
(9.6889e-06 3.33131e-06 0.000713491)
(5.01498e-06 4.8283e-06 0.000719027)
(2.59856e-06 6.76933e-06 0.00072349)
(7.28512e-07 7.70672e-06 0.00072549)
(-9.68002e-07 7.71178e-06 0.00072472)
(-2.69706e-06 6.87221e-06 0.000721439)
(-5.67149e-06 6.05162e-06 0.000716758)
(1.12713e-05 2.61254e-06 0.000719281)
(6.49053e-06 3.27893e-06 0.000723696)
(3.32416e-06 4.24636e-06 0.000727293)
(6.56593e-07 4.68305e-06 0.000728938)
(-1.86079e-06 4.52183e-06 0.0007283)
(-4.669e-06 3.87047e-06 0.000725616)
(-8.63203e-06 3.51882e-06 0.000721805)
(1.19734e-05 1.5741e-06 0.000721938)
(7.1471e-06 1.92375e-06 0.000725958)
(3.56786e-06 2.0846e-06 0.000729202)
(3.44035e-07 1.96096e-06 0.00073061)
(-2.76152e-06 1.60272e-06 0.000729886)
(-6.18605e-06 1.10858e-06 0.000727275)
(-1.04735e-05 8.61894e-07 0.0007236)
(1.21538e-05 5.56556e-07 0.000721178)
(7.00205e-06 6.88783e-07 0.00072544)
(3.22177e-06 1.26865e-08 0.000728818)
(-2.0959e-07 -7.16604e-07 0.000730125)
(-3.53644e-06 -1.30049e-06 0.000729116)
(-7.248e-06 -1.64565e-06 0.000726112)
(-1.19801e-05 -1.85463e-06 0.000722043)
(1.11355e-05 -8.19653e-08 0.000717249)
(5.93989e-06 -6.79665e-07 0.00072239)
(2.35611e-06 -2.41464e-06 0.00072637)
(-8.98681e-07 -3.78678e-06 0.000727731)
(-4.08636e-06 -4.5974e-06 0.000726314)
(-7.67693e-06 -4.58354e-06 0.000722566)
(-1.27409e-05 -4.11063e-06 0.000717636)
(8.77053e-06 4.44032e-08 0.000711277)
(5.07007e-06 -3.43285e-06 0.000717921)
(1.86632e-06 -6.14234e-06 0.000722744)
(-1.30425e-06 -7.96019e-06 0.000724213)
(-4.3907e-06 -9.10422e-06 0.000722351)
(-7.44069e-06 -8.69729e-06 0.000717652)
(-1.15947e-05 -6.2254e-06 0.000711214)
(2.11492e-05 2.57076e-05 0.000743446)
(1.36194e-05 2.26894e-05 0.000747036)
(8.00669e-06 1.98148e-05 0.0007493)
(2.31445e-06 1.88314e-05 0.000750866)
(-3.26523e-06 2.02328e-05 0.000751473)
(-9.90226e-06 2.33447e-05 0.000750857)
(-1.91829e-05 2.6457e-05 0.000748428)
(1.95329e-05 1.64873e-05 0.00074757)
(1.44413e-05 1.70486e-05 0.000751882)
(8.28005e-06 1.52268e-05 0.000754495)
(1.95854e-06 1.44589e-05 0.000755919)
(-4.4693e-06 1.49521e-05 0.000756001)
(-1.13285e-05 1.61051e-05 0.000754541)
(-1.80792e-05 1.5498e-05 0.00075119)
(1.76361e-05 1.06207e-05 0.000750266)
(1.29606e-05 1.07987e-05 0.000755003)
(7.41645e-06 9.84916e-06 0.000757656)
(1.53811e-06 9.16237e-06 0.000758801)
(-4.44649e-06 8.91138e-06 0.000758324)
(-1.03483e-05 8.85505e-06 0.000756063)
(-1.57433e-05 7.64676e-06 0.000751666)
(1.68727e-05 4.83795e-06 0.0007525)
(1.22103e-05 4.37995e-06 0.000757142)
(6.67306e-06 3.90432e-06 0.000759432)
(7.94238e-07 3.15907e-06 0.000760104)
(-5.01765e-06 2.29567e-06 0.000759095)
(-1.05118e-05 1.39797e-06 0.000756289)
(-1.54241e-05 3.6677e-07 0.000751311)
(1.83469e-05 -1.32693e-06 0.000753834)
(1.25682e-05 -2.3678e-06 0.000757892)
(6.28302e-06 -2.34224e-06 0.000759506)
(-1.29075e-07 -2.97731e-06 0.000759631)
(-6.17176e-06 -4.20331e-06 0.000758193)
(-1.17898e-05 -5.57836e-06 0.000755162)
(-1.69316e-05 -5.96554e-06 0.000750123)
(2.15964e-05 -8.94459e-06 0.000753771)
(1.34896e-05 -9.62409e-06 0.000756883)
(6.08903e-06 -8.5799e-06 0.000757657)
(-1.04369e-06 -8.88066e-06 0.000757256)
(-7.4135e-06 -1.0412e-05 0.000755616)
(-1.33839e-05 -1.24448e-05 0.000752796)
(-1.91019e-05 -1.2909e-05 0.000748239)
(2.19934e-05 -2.00364e-05 0.000751574)
(1.20701e-05 -1.6438e-05 0.000753647)
(4.60671e-06 -1.43658e-05 0.000753413)
(-2.01803e-06 -1.42954e-05 0.0007525)
(-7.61952e-06 -1.63142e-05 0.000750832)
(-1.34595e-05 -1.97542e-05 0.0007485)
(-2.03596e-05 -2.26262e-05 0.000744667)
(1.04461e-05 1.40675e-05 0.000748661)
(9.69966e-06 1.99416e-05 0.000743819)
(7.05481e-06 2.13171e-05 0.000742476)
(5.8334e-06 2.13423e-05 0.000743829)
(4.33203e-06 1.93225e-05 0.000748017)
(2.39026e-06 1.50318e-05 0.000754571)
(-2.50344e-06 6.97403e-06 0.000763388)
(1.66684e-05 1.28443e-05 0.000744393)
(1.04901e-05 1.38693e-05 0.000745974)
(6.96189e-06 1.49622e-05 0.000746904)
(5.02244e-06 1.47255e-05 0.000748609)
(2.86831e-06 1.2821e-05 0.000751115)
(-9.45124e-08 9.24763e-06 0.000753862)
(-6.3155e-06 4.79017e-06 0.000755833)
(1.81286e-05 1.02962e-05 0.000744028)
(1.15741e-05 1.0476e-05 0.000747805)
(7.05643e-06 1.04506e-05 0.000749589)
(4.04351e-06 9.68595e-06 0.000750921)
(7.18824e-07 7.85793e-06 0.000751925)
(-3.64173e-06 5.05641e-06 0.000752117)
(-9.94175e-06 1.64478e-06 0.000750337)
(1.79037e-05 9.63487e-06 0.000746635)
(1.11495e-05 8.70908e-06 0.000750674)
(6.05474e-06 7.24905e-06 0.000752054)
(2.67899e-06 5.85546e-06 0.000752368)
(-9.8356e-07 4.343e-06 0.000752019)
(-5.67132e-06 2.83587e-06 0.000750653)
(-1.24204e-05 1.33708e-06 0.000747098)
(1.50422e-05 8.06533e-06 0.00075232)
(8.92782e-06 5.91282e-06 0.0007545)
(4.02752e-06 3.29991e-06 0.000754273)
(1.19751e-06 1.62037e-06 0.000753134)
(-1.87262e-06 7.83722e-07 0.000751704)
(-5.74917e-06 8.43331e-07 0.000749865)
(-1.1676e-05 1.0367e-06 0.000746672)
(1.08102e-05 5.01969e-06 0.000760506)
(5.56512e-06 1.73138e-06 0.000758377)
(1.57202e-06 -1.98276e-06 0.000755391)
(3.13462e-08 -3.71628e-06 0.000752585)
(-1.65314e-06 -3.5667e-06 0.000750658)
(-4.00677e-06 -1.77313e-06 0.000749695)
(-8.87718e-06 2.6444e-07 0.000749217)
(7.51717e-06 2.20615e-06 0.000769933)
(1.91576e-06 -6.37912e-06 0.000760781)
(-7.87855e-07 -9.52188e-06 0.000754113)
(-8.1553e-07 -1.10966e-05 0.000749482)
(-1.11235e-06 -1.00387e-05 0.000747917)
(-1.75211e-06 -7.27754e-06 0.000749747)
(-4.3934e-06 -3.00847e-06 0.000754877)
(2.63515e-06 -8.04174e-06 0.000720278)
(6.46924e-06 -1.06629e-05 0.000716016)
(1.00235e-05 -1.19756e-05 0.000709599)
(1.23987e-05 -1.17781e-05 0.000700766)
(1.33952e-05 -1.01789e-05 0.000689127)
(1.30408e-05 -7.44248e-06 0.000673087)
(1.15109e-05 -3.84979e-06 0.000647276)
(8.52076e-06 5.88964e-07 0.000579201)
(3.76712e-06 -8.4275e-06 0.000722654)
(5.04208e-06 -1.07597e-05 0.00071851)
(6.78163e-06 -1.0633e-05 0.000712405)
(8.49703e-06 -8.98798e-06 0.000704269)
(9.71563e-06 -6.54788e-06 0.000693768)
(1.00085e-05 -3.62786e-06 0.000679442)
(9.23243e-06 -3.50871e-07 0.000656506)
(6.99091e-06 3.35323e-06 0.000595722)
(6.63827e-06 -5.67493e-06 0.0007238)
(6.83118e-06 -7.23705e-06 0.000719628)
(7.36084e-06 -7.0273e-06 0.000713953)
(8.14349e-06 -5.81405e-06 0.00070675)
(8.72587e-06 -4.15503e-06 0.000697524)
(8.56819e-06 -2.27811e-06 0.000684745)
(7.40395e-06 -2.12396e-07 0.000663807)
(4.83888e-06 2.13524e-06 0.000606707)
(8.35403e-06 -1.31758e-06 0.000723931)
(8.34085e-06 -1.90443e-06 0.000719696)
(8.42499e-06 -2.0941e-06 0.000714262)
(8.72749e-06 -1.99474e-06 0.000707576)
(8.87072e-06 -1.68305e-06 0.000699037)
(8.34303e-06 -1.18927e-06 0.000687061)
(6.85428e-06 -4.82468e-07 0.000667074)
(3.98629e-06 5.67208e-07 0.000611393)
(7.99747e-06 3.02225e-06 0.000723057)
(8.28478e-06 3.57795e-06 0.000718744)
(8.59545e-06 3.09195e-06 0.000713207)
(8.98447e-06 2.12674e-06 0.000706387)
(9.12754e-06 1.11339e-06 0.000697742)
(8.5761e-06 2.26843e-07 0.000685723)
(7.08049e-06 -4.6941e-07 0.000665744)
(4.18446e-06 -8.62512e-07 0.000609864)
(5.81878e-06 5.84073e-06 0.000721172)
(6.91187e-06 7.65664e-06 0.000716891)
(8.1206e-06 7.52474e-06 0.000711133)
(9.17433e-06 6.20854e-06 0.000703745)
(9.74161e-06 4.40898e-06 0.000694351)
(9.46226e-06 2.42399e-06 0.000681506)
(8.19448e-06 3.67503e-07 0.000660532)
(5.53607e-06 -1.74691e-06 0.000602379)
(3.86438e-06 5.18862e-06 0.00071785)
(6.61347e-06 8.00328e-06 0.000713854)
(9.08235e-06 9.38824e-06 0.000708184)
(1.06763e-05 9.40735e-06 0.000700427)
(1.11526e-05 8.38256e-06 0.000690256)
(1.04597e-05 6.54851e-06 0.00067621)
(8.69112e-06 4.14244e-06 0.00065313)
(5.53704e-06 1.17754e-06 0.000588867)
(-3.27705e-06 -6.63162e-06 0.000699895)
(-1.07119e-06 -6.19445e-06 0.000698509)
(1.44538e-06 -5.38411e-06 0.000695953)
(3.53038e-06 -4.33094e-06 0.000691222)
(4.95623e-06 -3.06786e-06 0.000684395)
(5.71229e-06 -1.55101e-06 0.000674589)
(5.90394e-06 3.42577e-07 0.00065734)
(5.40257e-06 2.78565e-06 0.000601471)
(-3.08212e-06 -7.53199e-06 0.000701856)
(-2.52383e-06 -7.51983e-06 0.000699181)
(-8.68844e-07 -6.10039e-06 0.000696116)
(1.12469e-06 -4.43245e-06 0.00069191)
(2.83417e-06 -2.96785e-06 0.000686256)
(3.82916e-06 -1.62852e-06 0.000678023)
(3.96029e-06 -1.84395e-07 0.000663077)
(3.04024e-06 1.4953e-06 0.000613391)
(-8.86589e-07 -6.24037e-06 0.000702277)
(-8.32246e-07 -6.58302e-06 0.000699328)
(2.39301e-07 -5.70561e-06 0.00069653)
(1.7719e-06 -4.48884e-06 0.000693196)
(3.13606e-06 -3.31008e-06 0.00068869)
(3.83112e-06 -2.13845e-06 0.000681667)
(3.64576e-06 -7.98759e-07 0.000668053)
(2.40617e-06 8.88158e-07 0.000620854)
(6.64714e-07 -3.98744e-06 0.00070225)
(7.31322e-07 -4.61466e-06 0.000699387)
(1.50361e-06 -4.55592e-06 0.000696857)
(2.64594e-06 -4.06502e-06 0.000693932)
(3.63529e-06 -3.29565e-06 0.000689866)
(4.0101e-06 -2.2768e-06 0.000683263)
(3.53977e-06 -9.38691e-07 0.000670072)
(2.03638e-06 9.58311e-07 0.000623575)
(1.19441e-06 -1.79504e-06 0.000701807)
(1.44714e-06 -2.50349e-06 0.000699102)
(2.09513e-06 -3.08832e-06 0.000696478)
(2.92913e-06 -3.2354e-06 0.000693257)
(3.58631e-06 -2.88154e-06 0.000688826)
(3.70336e-06 -2.11011e-06 0.000681873)
(3.04804e-06 -9.38631e-07 0.000668345)
(1.36327e-06 9.20331e-07 0.000621274)
(6.89319e-07 -2.5267e-07 0.000700804)
(1.13976e-06 -6.94494e-07 0.000698429)
(1.78593e-06 -1.4592e-06 0.000695599)
(2.44832e-06 -2.00804e-06 0.000691585)
(2.91398e-06 -2.08884e-06 0.000686086)
(2.96142e-06 -1.78027e-06 0.000677983)
(2.36251e-06 -1.20377e-06 0.000663156)
(7.99142e-07 -1.44273e-07 0.000613545)
(-4.07093e-07 -5.84082e-07 0.000698425)
(2.91463e-07 -4.26167e-07 0.000697066)
(9.46732e-07 -5.39059e-07 0.00069452)
(1.47328e-06 -7.65106e-07 0.000689877)
(1.85238e-06 -9.25184e-07 0.000683171)
(2.03381e-06 -1.03032e-06 0.000673464)
(1.93096e-06 -1.14632e-06 0.000656266)
(1.24953e-06 -1.23001e-06 0.000600414)
(-3.33061e-06 2.93118e-06 0.000690943)
(-6.56134e-06 8.31337e-06 0.000688766)
(-8.09538e-06 1.05693e-05 0.0006857)
(-8.07414e-06 1.01438e-05 0.000681161)
(-6.94599e-06 8.21263e-06 0.000675317)
(-5.21351e-06 5.80478e-06 0.000667337)
(-3.31599e-06 3.47599e-06 0.000652971)
(-1.72482e-06 1.27153e-06 0.00060161)
(-3.67312e-06 5.99795e-06 0.000694872)
(-3.69758e-06 9.21069e-06 0.000691905)
(-3.36631e-06 8.6894e-06 0.000688724)
(-3.03824e-06 6.08739e-06 0.000684826)
(-2.69144e-06 3.11331e-06 0.000680049)
(-2.22408e-06 6.26303e-07 0.000673523)
(-1.60027e-06 -1.21524e-06 0.000661576)
(-1.42373e-06 -2.64454e-06 0.000617011)
(-4.96624e-06 3.30027e-06 0.000697201)
(-3.17206e-06 4.81958e-06 0.000694415)
(-1.51914e-06 4.02847e-06 0.000691653)
(-4.52509e-07 2.20318e-06 0.000688433)
(1.6047e-07 4.53193e-07 0.000684421)
(5.2931e-07 -6.85938e-07 0.000678726)
(7.06834e-07 -1.10082e-06 0.000667876)
(4.08536e-07 -9.98895e-07 0.000625831)
(-5.54728e-06 -1.4055e-06 0.000698379)
(-3.23057e-06 -1.15809e-06 0.000695955)
(-1.27536e-06 -9.89079e-07 0.000693445)
(-9.10823e-08 -8.63826e-07 0.000690401)
(5.40853e-07 -6.87698e-07 0.000686495)
(8.64506e-07 -3.43371e-07 0.000680849)
(9.23013e-07 2.71075e-07 0.000670017)
(6.01958e-07 1.29242e-06 0.000628167)
(-5.18391e-06 -6.19375e-06 0.000698154)
(-3.51377e-06 -6.96164e-06 0.000695978)
(-2.14599e-06 -5.67268e-06 0.000693299)
(-1.36914e-06 -3.57799e-06 0.0006898)
(-9.65369e-07 -1.58031e-06 0.000685292)
(-6.79149e-07 3.61481e-08 0.000678919)
(-4.49846e-07 1.37492e-06 0.000667136)
(-5.13238e-07 2.76395e-06 0.000623687)
(-3.98953e-06 -8.61492e-06 0.000696588)
(-4.13181e-06 -1.07076e-05 0.00069437)
(-4.23566e-06 -9.38433e-06 0.000691128)
(-4.32584e-06 -6.39286e-06 0.000686636)
(-4.24962e-06 -3.32562e-06 0.000680874)
(-3.86029e-06 -8.04247e-07 0.000672967)
(-3.17731e-06 1.21107e-06 0.000659078)
(-2.56847e-06 3.06657e-06 0.000611608)
(-3.4947e-06 -5.21308e-06 0.000693396)
(-6.83956e-06 -8.827e-06 0.000690967)
(-8.79665e-06 -9.63842e-06 0.000687139)
(-9.31827e-06 -8.47825e-06 0.000681666)
(-8.60815e-06 -6.51338e-06 0.000674555)
(-7.03442e-06 -4.45487e-06 0.000664765)
(-4.92501e-06 -2.59795e-06 0.00064779)
(-2.58719e-06 -1.08816e-06 0.00059269)
(-5.55379e-06 1.45806e-05 0.000702666)
(-1.01139e-05 1.56335e-05 0.000695417)
(-1.29732e-05 1.43386e-05 0.000687694)
(-1.39291e-05 1.17365e-05 0.000679474)
(-1.33567e-05 8.87783e-06 0.00067033)
(-1.15697e-05 5.94695e-06 0.000659085)
(-8.97222e-06 2.79577e-06 0.00064153)
(-5.89287e-06 -6.35341e-07 0.000587401)
(-7.13788e-06 1.50904e-05 0.000711483)
(-9.30506e-06 1.38054e-05 0.000705238)
(-1.1823e-05 9.92025e-06 0.000697583)
(-1.37713e-05 6.02013e-06 0.000688872)
(-1.43106e-05 3.13327e-06 0.000679387)
(-1.30805e-05 9.33536e-07 0.000668642)
(-1.03577e-05 -1.11344e-06 0.000653367)
(-6.49373e-06 -3.26293e-06 0.000606821)
(-9.78357e-06 9.4501e-06 0.000717607)
(-1.07657e-05 8.55855e-06 0.00071168)
(-1.25994e-05 5.73006e-06 0.000703812)
(-1.42319e-05 3.063e-06 0.000694859)
(-1.45568e-05 1.18356e-06 0.000685372)
(-1.30049e-05 -1.84552e-07 0.000675066)
(-9.85565e-06 -1.41605e-06 0.00066095)
(-5.32718e-06 -2.75406e-06 0.000617693)
(-1.18286e-05 2.31069e-06 0.000719595)
(-1.28102e-05 3.08968e-06 0.00071358)
(-1.44173e-05 2.76167e-06 0.000705583)
(-1.56678e-05 2.02508e-06 0.000696617)
(-1.55133e-05 1.31658e-06 0.000687236)
(-1.3432e-05 7.63939e-07 0.000677113)
(-9.76711e-06 3.07382e-07 0.00066325)
(-4.67413e-06 -2.24157e-07 0.00062064)
(-1.4089e-05 -4.57988e-06 0.00071747)
(-1.58768e-05 -2.02667e-06 0.000711195)
(-1.75396e-05 -1.03928e-07 0.000703149)
(-1.82929e-05 7.64097e-07 0.000694152)
(-1.74649e-05 9.86925e-07 0.000684651)
(-1.47611e-05 1.13426e-06 0.000674217)
(-1.06225e-05 1.41415e-06 0.00065972)
(-5.183e-06 1.61636e-06 0.000615801)
(-1.59872e-05 -1.01078e-05 0.000711849)
(-1.88046e-05 -7.24794e-06 0.000705103)
(-2.03672e-05 -4.50594e-06 0.00069703)
(-2.0362e-05 -2.69294e-06 0.000687971)
(-1.87311e-05 -1.67455e-06 0.000678137)
(-1.5489e-05 -7.4875e-07 0.000666911)
(-1.11454e-05 4.27769e-07 0.00065084)
(-5.85431e-06 1.77506e-06 0.000603258)
(-1.59743e-05 -1.1299e-05 0.000703301)
(-1.85586e-05 -1.12576e-05 0.000695972)
(-1.89492e-05 -1.03593e-05 0.000687965)
(-1.76725e-05 -8.90843e-06 0.000679142)
(-1.52571e-05 -7.33129e-06 0.000669195)
(-1.19354e-05 -5.51674e-06 0.000657028)
(-8.03298e-06 -3.53898e-06 0.000638393)
(-3.51481e-06 -1.64054e-06 0.000583145)
(-2.33089e-05 1.44166e-05 0.000739759)
(-2.23663e-05 9.02058e-06 0.000732056)
(-2.23998e-05 8.04646e-06 0.000720453)
(-2.24911e-05 9.07949e-06 0.000704874)
(-2.1638e-05 9.41331e-06 0.00068562)
(-1.91537e-05 7.56115e-06 0.000662214)
(-1.51965e-05 3.91159e-06 0.000630816)
(-9.47935e-06 -8.31553e-07 0.000561049)
(-2.60005e-05 8.48781e-07 0.000743476)
(-3.1675e-05 -2.95224e-06 0.000734144)
(-3.51555e-05 -1.06199e-06 0.000720876)
(-3.55328e-05 2.33003e-06 0.000704168)
(-3.30464e-05 3.85033e-06 0.000684449)
(-2.80058e-05 2.52754e-06 0.000661243)
(-2.14763e-05 -6.29083e-07 0.000631084)
(-1.28262e-05 -4.29501e-06 0.000566512)
(-2.45528e-05 -2.55857e-06 0.000744072)
(-3.3055e-05 -5.10451e-06 0.000733355)
(-3.85543e-05 -3.73159e-06 0.000718879)
(-3.98479e-05 -1.46314e-06 0.000701647)
(-3.7162e-05 -4.1361e-07 0.000681998)
(-3.1032e-05 -1.11428e-06 0.000659345)
(-2.28456e-05 -2.93132e-06 0.000630378)
(-1.26323e-05 -4.71081e-06 0.000568835)
(-2.44357e-05 -1.26287e-06 0.000743171)
(-3.34907e-05 -2.44524e-06 0.000731594)
(-3.91936e-05 -2.81158e-06 0.000716641)
(-4.04712e-05 -2.67971e-06 0.000699357)
(-3.75682e-05 -2.4088e-06 0.00067995)
(-3.10201e-05 -2.22287e-06 0.000657756)
(-2.22094e-05 -2.18683e-06 0.000629563)
(-1.1646e-05 -1.9793e-06 0.000569566)
(-2.56339e-05 5.84274e-07 0.00074129)
(-3.35018e-05 2.08435e-07 0.000729566)
(-3.82074e-05 -2.15994e-06 0.000714672)
(-3.8943e-05 -4.215e-06 0.000697421)
(-3.59458e-05 -4.69865e-06 0.000677975)
(-2.96831e-05 -3.66138e-06 0.000655676)
(-2.12904e-05 -1.93209e-06 0.000627331)
(-1.13642e-05 -9.00214e-08 0.000566961)
(-2.64976e-05 -1.41805e-06 0.000738589)
(-3.13471e-05 -1.07765e-06 0.000727788)
(-3.39091e-05 -4.4348e-06 0.000713695)
(-3.36849e-05 -7.8167e-06 0.000696636)
(-3.08344e-05 -8.71032e-06 0.000676865)
(-2.56162e-05 -6.92833e-06 0.000653878)
(-1.87306e-05 -3.76123e-06 0.000624384)
(-1.04665e-05 -3.93673e-07 0.000561424)
(-2.4056e-05 -1.31612e-05 0.00073399)
(-2.29494e-05 -1.17214e-05 0.00072521)
(-2.25999e-05 -1.28426e-05 0.000712559)
(-2.19912e-05 -1.42355e-05 0.00069602)
(-2.04088e-05 -1.3886e-05 0.000676103)
(-1.7336e-05 -1.12808e-05 0.00065244)
(-1.29739e-05 -7.23291e-06 0.00062133)
(-7.44142e-06 -2.58611e-06 0.000552967)
(-1.29869e-05 7.59873e-06 0.000762741)
(-2.08526e-05 1.70629e-05 0.000752092)
(-2.74628e-05 2.23234e-05 0.000727411)
(-3.06447e-05 2.25044e-05 0.000693144)
(-3.03578e-05 1.84347e-05 0.000650501)
(-2.70477e-05 1.15672e-05 0.000598859)
(-2.17062e-05 3.13982e-06 0.00053511)
(-9.69712e-06 -1.15987e-05 0.000433362)
(-1.56122e-05 1.32377e-06 0.000752942)
(-2.26549e-05 8.31768e-06 0.000740756)
(-2.76263e-05 1.15906e-05 0.000716412)
(-3.04041e-05 9.79835e-06 0.000683144)
(-3.06108e-05 4.75132e-06 0.000641837)
(-2.80046e-05 -1.63163e-06 0.00059169)
(-2.2886e-05 -8.09698e-06 0.000529704)
(-7.81543e-06 -1.8403e-05 0.000431761)
(-1.93833e-05 -9.5512e-07 0.000742996)
(-2.67758e-05 2.87694e-06 0.000727603)
(-3.06579e-05 4.35483e-06 0.000702847)
(-3.1704e-05 2.81982e-06 0.000670723)
(-3.0188e-05 -4.37992e-07 0.00063131)
(-2.59686e-05 -4.10145e-06 0.000583352)
(-1.97835e-05 -7.12028e-06 0.000523697)
(-1.7082e-06 -1.16381e-05 0.000429067)
(-2.21338e-05 -4.09149e-07 0.000737835)
(-2.91544e-05 -1.45162e-06 0.000720974)
(-3.20837e-05 -1.90859e-06 0.000696145)
(-3.21855e-05 -2.16456e-06 0.000664728)
(-2.99465e-05 -2.43487e-06 0.000626445)
(-2.51221e-05 -2.7246e-06 0.000579842)
(-1.85534e-05 -2.80321e-06 0.000521697)
(5.12177e-07 -2.3518e-06 0.000429182)
(-2.04528e-05 4.79563e-07 0.00073854)
(-2.67101e-05 -5.06987e-06 0.000722457)
(-2.96963e-05 -7.30137e-06 0.000697388)
(-3.03667e-05 -6.27137e-06 0.000665196)
(-2.88298e-05 -3.8633e-06 0.000625967)
(-2.46055e-05 -1.32741e-06 0.000578452)
(-1.84841e-05 7.42696e-07 0.000519607)
(-2.87629e-07 5.2041e-06 0.000426797)
(-1.6715e-05 -6.01492e-07 0.000745019)
(-2.28446e-05 -9.57664e-06 0.000731438)
(-2.71495e-05 -1.31053e-05 0.00070589)
(-2.94168e-05 -1.12511e-05 0.000671806)
(-2.92208e-05 -6.97205e-06 0.000630133)
(-2.59611e-05 -2.2541e-06 0.000580013)
(-2.02851e-05 1.98478e-06 0.000518639)
(-4.07799e-06 1.08066e-05 0.000423061)
(-1.23989e-05 -6.00541e-06 0.000752673)
(-2.00765e-05 -1.56199e-05 0.000740126)
(-2.63381e-05 -2.06459e-05 0.000713207)
(-2.93347e-05 -2.06126e-05 0.000677463)
(-2.87536e-05 -1.72384e-05 0.000633963)
(-2.48977e-05 -1.21213e-05 0.000581762)
(-1.86841e-05 -6.28356e-06 0.000517894)
(-4.65581e-06 5.93271e-06 0.000417799)
(-7.27844e-06 6.14092e-06 0.000721463)
(-1.02529e-05 1.04693e-05 0.000717071)
(-1.28755e-05 1.28861e-05 0.000710578)
(-1.423e-05 1.34292e-05 0.00070173)
(-1.41237e-05 1.24563e-05 0.000690115)
(-1.25876e-05 1.03621e-05 0.000674091)
(-9.79214e-06 7.5079e-06 0.000648206)
(-5.4897e-06 3.86982e-06 0.000579855)
(-8.35998e-06 6.47913e-06 0.000725037)
(-9.37168e-06 9.99617e-06 0.000720888)
(-1.0592e-05 1.04763e-05 0.000714774)
(-1.17057e-05 9.31474e-06 0.000706707)
(-1.20801e-05 7.31184e-06 0.000696264)
(-1.13952e-05 4.84853e-06 0.00068185)
(-9.57487e-06 2.08808e-06 0.000658501)
(-6.33513e-06 -1.01736e-06 0.000596671)
(-1.02076e-05 4.11332e-06 0.000726929)
(-1.02479e-05 6.06482e-06 0.000722974)
(-1.05305e-05 5.99669e-06 0.000717416)
(-1.09695e-05 5.03005e-06 0.000710299)
(-1.09646e-05 3.73077e-06 0.000701042)
(-1.01009e-05 2.36061e-06 0.000687972)
(-8.17559e-06 1.00422e-06 0.000666261)
(-4.84003e-06 -2.96782e-07 0.000607528)
(-1.09761e-05 1.57642e-08 0.000727696)
(-1.07895e-05 1.5952e-07 0.00072386)
(-1.07773e-05 2.85706e-07 0.000718549)
(-1.09987e-05 3.55319e-07 0.000711769)
(-1.08658e-05 3.89433e-07 0.000702848)
(-9.93983e-06 4.17346e-07 0.000690057)
(-7.96941e-06 4.75401e-07 0.000668571)
(-4.59549e-06 5.94865e-07 0.000610254)
(-9.76802e-06 -4.40599e-06 0.000727399)
(-9.82678e-06 -5.86871e-06 0.000723531)
(-1.02045e-05 -5.35174e-06 0.000717915)
(-1.07678e-05 -4.11027e-06 0.000710597)
(-1.0914e-05 -2.65381e-06 0.000700979)
(-1.0218e-05 -1.16812e-06 0.000687364)
(-8.45343e-06 3.33307e-07 0.000664873)
(-5.25637e-06 1.85396e-06 0.00060502)
(-7.03532e-06 -7.17955e-06 0.000726204)
(-7.93446e-06 -1.02893e-05 0.000722217)
(-9.53726e-06 -9.9804e-06 0.000715962)
(-1.10197e-05 -8.319e-06 0.000707499)
(-1.17247e-05 -6.00693e-06 0.0006964)
(-1.13739e-05 -3.36321e-06 0.00068103)
(-9.89753e-06 -4.99209e-07 0.00065633)
(-6.96644e-06 2.62623e-06 0.000592586)
(-5.36161e-06 -7.1313e-06 0.000723805)
(-8.38775e-06 -1.0743e-05 0.000719525)
(-1.13896e-05 -1.21714e-05 0.000712757)
(-1.33594e-05 -1.20721e-05 0.00070335)
(-1.37617e-05 -1.0598e-05 0.00069086)
(-1.27595e-05 -8.10982e-06 0.000673588)
(-1.05491e-05 -4.91023e-06 0.000645943)
(-6.86369e-06 -1.05038e-06 0.000575123)
(-7.22726e-06 1.50207e-06 0.000701106)
(-7.77083e-06 4.63078e-06 0.000699975)
(-8.20216e-06 6.27259e-06 0.000697552)
(-8.147e-06 6.78099e-06 0.000692879)
(-7.48826e-06 6.70503e-06 0.000686076)
(-6.07939e-06 6.31757e-06 0.000676268)
(-3.8793e-06 5.7577e-06 0.000658971)
(-6.59127e-07 4.92092e-06 0.000602945)
(-7.20096e-06 2.08259e-06 0.000703782)
(-7.18465e-06 4.40124e-06 0.000701491)
(-7.68465e-06 4.6786e-06 0.000698849)
(-8.24204e-06 4.22653e-06 0.000695003)
(-8.23488e-06 3.76821e-06 0.000689693)
(-7.37102e-06 3.4287e-06 0.000681779)
(-5.5455e-06 3.129e-06 0.000667039)
(-2.52953e-06 2.77787e-06 0.000617231)
(-6.89391e-06 1.3189e-06 0.000704643)
(-6.80183e-06 2.4716e-06 0.00070211)
(-7.33814e-06 2.35988e-06 0.000699869)
(-8.04607e-06 2.05572e-06 0.000697095)
(-8.30721e-06 1.95045e-06 0.00069316)
(-7.71789e-06 2.04296e-06 0.00068668)
(-6.09178e-06 2.24119e-06 0.000673482)
(-3.13591e-06 2.48957e-06 0.000626434)
(-6.26484e-06 -6.52013e-07 0.000704894)
(-6.1667e-06 -6.14391e-07 0.000702376)
(-6.80497e-06 -4.80415e-07 0.000700347)
(-7.70782e-06 -2.6104e-07 0.000697931)
(-8.21296e-06 7.76608e-08 0.000694383)
(-7.88727e-06 5.43028e-07 0.000688264)
(-6.52571e-06 1.14263e-06 0.000675443)
(-3.75075e-06 1.8644e-06 0.000629106)
(-4.95166e-06 -2.78621e-06 0.000704715)
(-4.94944e-06 -3.57052e-06 0.000702234)
(-5.88717e-06 -3.00464e-06 0.000699895)
(-7.10186e-06 -2.2304e-06 0.000696908)
(-7.89478e-06 -1.48088e-06 0.000692705)
(-7.85288e-06 -6.72551e-07 0.00068596)
(-6.78966e-06 3.18864e-07 0.000672597)
(-4.27786e-06 1.51572e-06 0.000625592)
(-3.266e-06 -4.14799e-06 0.000704137)
(-3.55161e-06 -5.8285e-06 0.000701885)
(-5.0587e-06 -5.23021e-06 0.00069903)
(-6.65751e-06 -4.27158e-06 0.000694824)
(-7.62934e-06 -3.26079e-06 0.000689076)
(-7.72661e-06 -2.10455e-06 0.000680691)
(-6.90037e-06 -6.56433e-07 0.000665534)
(-4.69187e-06 1.1529e-06 0.000615553)
(-2.74777e-06 -4.55389e-06 0.000702462)
(-3.7721e-06 -6.24291e-06 0.000701091)
(-5.62502e-06 -6.84223e-06 0.00069823)
(-7.05281e-06 -6.84478e-06 0.000693017)
(-7.62359e-06 -6.21256e-06 0.000685652)
(-7.41384e-06 -4.97219e-06 0.000675219)
(-6.5095e-06 -3.10174e-06 0.000657169)
(-4.59449e-06 -3.50003e-07 0.000600278)
(-2.52437e-06 -4.45351e-06 0.00069125)
(1.54865e-06 -8.26095e-06 0.000689738)
(4.39171e-06 -8.84321e-06 0.000687129)
(5.83567e-06 -7.16226e-06 0.000682927)
(6.06289e-06 -4.48558e-06 0.000677377)
(5.52431e-06 -1.71927e-06 0.000669765)
(4.68894e-06 7.60738e-07 0.000655977)