/*--------------------------------*- C++ -*----------------------------------*\
| =========                 |                                                 |
| \\      /  F ield         | OpenFOAM: The Open Source CFD Toolbox           |
|  \\    /   O peration     | Version:  plus.master.MPPICInterFoam            |
|   \\  /    A nd           | Web:      www.OpenFOAM.com                      |
|    \\/     M anipulation  |                                                 |
\*---------------------------------------------------------------------------*/
FoamFile
{
    version     2.0;
    format      ascii;
    class       vectorField;
    location    "2.6/lagrangian/kinematicCloud";
    object      UCorrect;
}
// * * * * * * * * * * * * * * * * * * * * * * * * * * * * * * * * * * * * * //


730
(
(-2.81384e-08 1.83524e-07 6.78748e-07)
(0.000803043 -0.000339483 1.20457e-06)
(0.000697051 -0.00222071 2.52227e-09)
(4.29201e-05 0.000132151 7.38886e-06)
(4.72737e-05 -9.78884e-06 -1.06409e-05)
(0.00153273 0.00200299 9.74057e-06)
(-0.00317377 -0.0121781 2.42646e-08)
(-0.00316117 -0.0120656 2.42646e-08)
(-0.00313397 -0.0118226 2.42646e-08)
(-0.00896562 -0.0118609 0.0019956)
(-0.0032149 -0.0125455 2.42646e-08)
(-0.00660449 -0.0060847 5.01434e-06)
(-0.000117404 -0.00054718 3.60436e-07)
(-3.08836e-07 1.46598e-06 6.34042e-09)
(-1.96863e-06 6.30075e-06 1.61608e-08)
(-3.27742e-07 -5.96732e-06 8.91832e-07)
(0.000873922 -6.26284e-05 -4.46285e-06)
(-0.000468356 0.00291659 0.00119627)
(-0.00122282 0.00299122 0.00119627)
(-1.71967e-05 -3.17663e-06 4.41748e-07)
(9.70545e-08 -4.49075e-07 1.5854e-05)
(1.40266e-06 4.67176e-07 1.49111e-06)
(-0.00780147 -0.00602353 0.00236705)
(-1.65608e-05 3.00446e-05 2.5267e-09)
(-1.0695e-06 -2.86622e-07 3.04928e-08)
(-0.00470719 -0.0069605 0.0019956)
(-7.41623e-07 -1.02785e-05 5.0072e-06)
(-0.00780147 -0.00602353 0.00142025)
(1.75471e-05 2.31672e-05 4.4505e-07)
(-1.09596e-06 3.41882e-06 8.02802e-08)
(-0.00780147 -0.00602353 0.000641334)
(-0.00705957 0.000603271 0.0019956)
(7.58022e-08 1.11675e-06 9.98998e-06)
(0.000808643 -0.00135157 5.26149e-06)
(-0.00131344 0.000132469 -6.75659e-06)
(-1.84181e-05 8.90242e-05 3.12815e-09)
(-0.00837357 0.00189718 5.01434e-06)
(-0.00184715 -0.000407334 0.000877452)
(-1.94656e-08 -2.18444e-08 1.91646e-09)
(-0.00359995 0.000613779 -5.61294e-08)
(-0.00180821 -0.000535927 0.000538621)
(4.52257e-05 0.000262602 2.21689e-05)
(-0.00471878 -0.00952519 2.27373e-05)
(-0.00629789 -0.0174432 -8.23538e-06)
(-2.75718e-05 1.95577e-06 1.27378e-05)
(-3.22951e-07 -1.61968e-07 5.84438e-06)
(-0.00389399 0.000754127 0.00119627)
(-2.81744e-08 -2.50542e-08 -1.00569e-09)
(1.35666e-05 -5.57496e-06 -2.55142e-05)
(-0.00383403 0.00137876 0.00119627)
(-0.00186096 -0.000263488 0.000538621)
(-0.00471878 -0.00952519 -1.42168e-06)
(-0.00483739 -0.00945796 -8.23538e-06)
(-0.00489347 -0.00942619 -8.23538e-06)
(-0.00487789 -0.00943501 -8.23538e-06)
(-0.00346209 -0.00990572 -8.23538e-06)
(-0.000159881 -7.29922e-05 0.00041265)
(-0.00471878 -0.00952519 -2.46686e-05)
(-0.00356925 -0.00987327 -8.23538e-06)
(-0.00471878 -0.00952519 -4.29289e-05)
(0.000173594 -7.71302e-05 -3.0437e-06)
(-0.0048456 -0.00945331 -8.23538e-06)
(-0.000213411 -9.43317e-05 -1.32685e-06)
(-3.27697e-05 -5.49194e-05 2.17339e-09)
(4.62178e-05 -1.1916e-05 2.20933e-06)
(-1.80933e-08 1.8658e-07 5.84438e-06)
(0.000745589 -0.00028799 0.000468046)
(-5.81426e-06 -4.79958e-06 8.2584e-06)
(-0.00339056 0.0018753 -5.61294e-08)
(-3.63032e-07 -1.77919e-06 -0.0001867)
(4.54024e-06 1.02342e-06 1.0524e-08)
(0.00296503 0.00213905 4.16997e-06)
(0.00148663 0.0018529 1.71358e-08)
(6.45493e-06 0.000156536 2.76234e-05)
(-0.00349691 0.0012346 -5.61294e-08)
(-1.05666e-05 1.95577e-06 1.27378e-05)
(0.00296503 0.00213905 3.82528e-06)
(-4.74651e-05 0.000196529 1.89231e-06)
(0.000719878 -0.00841917 0.0013519)
(-0.000245499 -2.44703e-05 0.00041265)
(0.000194141 4.77989e-06 2.20933e-06)
(0.00033964 -0.000613544 5.26149e-06)
(-5.65863e-05 -2.7728e-06 -1.51328e-08)
(-3.26064e-07 1.626e-07 4.04863e-06)
(-7.53411e-06 -3.7271e-08 1.01797e-05)
(-0.0014333 0.00285145 1.27378e-05)
(-0.000889148 -0.0018283 0.000468046)
(8.20569e-06 -3.7271e-08 1.37364e-05)
(0.00228556 0.00132011 0.000466692)
(-0.000112452 -0.00270647 0.000898902)
(-3.65831e-07 -2.41527e-07 0.000105724)
(0.00196365 -0.00421299 0.000898902)
(5.24879e-06 -1.32464e-05 3.23083e-05)
(-0.00148513 0.0018529 -3.44663e-06)
(-6.75924e-06 -8.10863e-06 1.37364e-05)
(4.27921e-05 -1.41963e-08 2.5414e-07)
(-5.81426e-06 -4.79958e-06 6.2062e-06)
(0.000874199 -0.000275366 1.48636e-07)
(2.69815e-06 -9.32883e-06 3.23083e-05)
(-0.00210293 0.00058707 1.50037e-06)
(-2.61432e-05 -1.28777e-06 4.4357e-06)
(-5.84616e-06 1.75451e-05 1.37364e-05)
(0.00196365 -0.00290578 0.00121839)
(-0.00347661 -0.000464242 -1.04781e-06)
(2.74522e-05 -8.39089e-06 -5.81801e-08)
(-3.19607e-05 9.93535e-05 4.48323e-05)
(-5.81426e-06 -4.79958e-06 5.01657e-06)
(4.39146e-06 1.27734e-07 2.96248e-06)
(-2.11333e-08 0.000783605 0.00105403)
(1.32915e-05 -0.00486911 2.24941e-06)
(0.000244177 0.00162951 3.43732e-06)
(-0.000807247 -3.91959e-07 8.85806e-06)
(-0.000734713 -0.00135704 1.31142e-06)
(-1.25903e-07 -5.01947e-08 1.73714e-06)
(-0.00347497 -0.00048136 -1.04781e-06)
(0.00123875 0.00121962 0.000850984)
(0.000373426 -0.000849721 -3.92346e-05)
(-0.00105057 -2.33276e-07 8.85806e-06)
(-2.20848e-05 -0.000184096 1.85998e-06)
(0.000360553 -0.00905321 0.0013519)
(1.3836e-05 -8.04965e-06 3.36209e-06)
(1.0448e-05 7.26832e-07 2.96248e-06)
(0.000180903 0.000506465 5.10564e-06)
(-7.21172e-06 -2.14013e-05 5.87467e-05)
(-5.81426e-06 -4.79958e-06 2.71201e-06)
(-2.02755e-05 -7.30066e-05 -2.62288e-08)
(-8.02928e-05 -0.000148538 3.52905e-07)
(0.00196365 -0.00290578 9.45803e-05)
(-0.0041828 -0.000312064 0.000364649)
(-2.11333e-08 0.00395545 0.000537603)
(-4.91649e-08 -4.25691e-06 -1.9775e-05)
(-1.06321e-05 -5.71927e-06 0.00375539)
(0.00160668 -0.000690484 8.0824e-08)
(1.34337e-05 -8.11001e-05 1.43669e-07)
(1.92034e-05 -3.7271e-08 1.37364e-05)
(0.000298767 3.53624e-05 5.48122e-05)
(0.000942241 0.00108976 -0.00105763)
(-4.91847e-05 9.93535e-05 4.48323e-05)
(0.00271346 -0.00433189 0.00167397)
(0.00113258 0.00223648 -0.0016906)
(0.000166932 0.0002585 5.10564e-06)
(0.000180386 -0.000146682 0.000763556)
(0.000147822 0.00213905 5.84386e-08)
(-7.21172e-06 -2.14013e-05 4.35219e-05)
(7.42803e-06 -3.13874e-05 1.19632e-06)
(-1.12264e-05 2.84894e-05 3.14089e-06)
(2.19334e-05 -0.00203461 0.0013519)
(2.96519e-06 -6.22167e-06 -9.56257e-11)
(-0.000734713 -0.00135704 -8.43844e-07)
(-3.43626e-10 1.21065e-07 -3.92332e-09)
(-1.06321e-05 -5.71927e-06 0.00374404)
(7.89651e-05 6.28379e-05 -2.0473e-06)
(-3.03083e-06 -2.74518e-05 9.78065e-07)
(2.36778e-05 -0.000646336 -2.25696e-06)
(8.3125e-05 6.28379e-05 -2.0473e-06)
(0.000298453 3.53624e-05 5.48122e-05)
(2.11751e-06 -1.26822e-06 1.27659e-09)
(-3.35141e-06 -3.06926e-05 9.78065e-07)
(-4.17519e-06 2.42922e-05 5.55256e-06)
(6.45858e-05 6.28379e-05 -2.0473e-06)
(0.00433819 -0.00203461 7.03012e-05)
(7.07393e-05 6.28379e-05 -2.0473e-06)
(-2.04441e-05 0.000129547 -8.0561e-06)
(1.01377e-05 -7.86965e-05 3.33782e-05)
(-0.00257913 -0.00111563 5.90289e-06)
(4.61977e-05 -5.96524e-05 1.43669e-07)
(-0.00337636 -0.00099172 -1.04781e-06)
(-0.00330678 0.00106642 1.50037e-06)
(8.8802e-05 6.28379e-05 -2.0473e-06)
(0.000163699 -0.00266763 2.24941e-06)
(-0.00134877 0.00559767 6.91506e-07)
(0.00381819 -0.00238256 0.00121473)
(-0.00557323 0.00559767 1.70907e-05)
(8.82488e-05 -1.19586e-05 3.33782e-05)
(0.0021093 -0.000627829 0.000763556)
(-9.08753e-06 5.58769e-07 4.62908e-07)
(-0.000172262 0.000508447 -8.77137e-09)
(-0.003449 -0.000751828 -3.97964e-06)
(0.00616719 -0.00293481 -0.000976854)
(8.37251e-05 6.28379e-05 -2.0473e-06)
(0.00199706 0.000121367 3.3449e-06)
(1.81315e-05 -9.66142e-05 1.43669e-07)
(-6.01348e-05 -1.54945e-05 1.91542e-06)
(2.06881e-05 -6.47398e-05 1.43669e-07)
(0.000531999 0.000269783 1.71405e-05)
(9.55338e-05 1.214e-06 7.83765e-06)
(-7.21172e-06 -2.14013e-05 1.44006e-05)
(-0.000986989 0.000201503 0.000110273)
(8.29993e-06 -6.45097e-06 2.98135e-06)
(-0.00013702 -2.22613e-05 -3.37686e-06)
(0.000102796 0.000800714 0.000423776)
(0.000373426 -0.000849721 -0.000244153)
(-0.00557323 0.00559767 1.68006e-05)
(3.69177e-05 -1.70361e-05 3.33782e-05)
(-5.64408e-05 -0.000539769 -3.87025e-07)
(-0.00557323 0.00559767 1.7229e-05)
(-7.21172e-06 -2.14013e-05 3.95424e-06)
(4.29664e-05 -6.02968e-05 1.43669e-07)
(-2.6453e-09 -9.75703e-06 3.10885e-05)
(-0.000947936 0.00559767 6.91506e-07)
(0.00219466 -0.00034593 7.92842e-05)
(8.71662e-05 0.000131299 2.09267e-06)
(-0.000346992 0.000185538 3.48758e-06)
(-0.000101921 -1.23426e-05 0.00219125)
(0.000104658 -1.03354e-05 3.33782e-05)
(8.20987e-05 6.28379e-05 -2.0473e-06)
(0.000672392 0.000431355 1.78139e-05)
(0.000570342 0.00377509 6.01274e-06)
(0.000198061 -1.09614e-06 3.33782e-05)
(-4.65019e-06 1.42135e-05 2.19709e-05)
(5.28489e-05 1.06085e-05 5.6156e-05)
(-0.00382541 -9.281e-06 1.45775e-05)
(-1.89116e-06 -1.59304e-05 9.12864e-07)
(0.000905866 0.000306765 1.71405e-05)
(-0.00577067 -1.23426e-05 0.00416431)
(0.000139168 -6.92174e-06 3.33782e-05)
(0.000174706 -3.40636e-06 3.33782e-05)
(-7.21172e-06 -2.14013e-05 1.27442e-05)
(0.000175896 -3.28871e-06 3.33782e-05)
(0.000404172 0.00082575 -1.40928e-06)
(-1.06321e-05 -5.71927e-06 0.000798102)
(0.000173529 -3.52285e-06 3.33782e-05)
(-5.96879e-06 0.000783605 0.000537603)
(0.000164531 -4.41287e-06 3.33782e-05)
(-0.000265479 0.00559767 6.91506e-07)
(1.38714e-05 0.00446286 5.10153e-06)
(0.00224968 -0.00126538 -3.69861e-06)
(0.00295725 -0.000629749 5.17596e-06)
(3.02985e-07 -0.000546644 6.06787e-06)
(9.26456e-05 0.000315735 1.78139e-05)
(-0.000186395 0.000254671 -0.000144453)
(0.00351458 0.000952078 1.71405e-05)
(-0.00382541 -1.21994e-05 1.45775e-05)
(-0.00165345 -1.43853e-05 -8.37168e-08)
(-6.54049e-05 -4.66814e-05 -2.10054e-07)
(-0.000827349 0.00559767 6.91506e-07)
(0.00199706 7.32888e-07 3.3449e-06)
(0.00295725 -0.0005452 5.17596e-06)
(0.00378479 -0.00244151 0.00121473)
(-9.31991e-07 1.09375e-06 9.78065e-07)
(-0.00143188 -1.43853e-05 -8.37168e-08)
(0.000183424 -2.54406e-06 3.33782e-05)
(0.000289653 -2.96834e-05 -2.27734e-05)
(0.000173534 -3.52231e-06 3.33782e-05)
(0.000378307 0.000366676 -1.40928e-06)
(-2.86585e-06 1.18968e-05 2.98135e-06)
(-0.0016175 -0.00166062 2.07593e-06)
(0.000178832 -2.99831e-06 3.33782e-05)
(9.3601e-05 1.214e-06 7.83765e-06)
(0.00018105 -2.77889e-06 3.33782e-05)
(-0.00476675 0.00273058 0.00236125)
(2.7583e-05 6.23699e-07 0.00190197)
(0.00220252 0.000736512 2.64138e-05)
(0.000339549 -0.000200887 5.68778e-06)
(8.77707e-05 -0.000166851 -0.000976854)
(-1.89116e-06 -1.59304e-05 7.10862e-07)
(0.00362843 0.000576076 2.67105e-05)
(-0.00273769 0.000433397 3.4107e-07)
(-3.8978e-05 0.000113505 -1.00356e-05)
(0.0066933 2.91509e-05 1.8765e-05)
(-6.44043e-06 6.28379e-05 -2.04656e-05)
(0.00173061 -0.0016563 3.81629e-06)
(0.00809648 0.001293 2.85335e-05)
(-6.01348e-05 -1.54945e-05 1.61519e-06)
(-0.00257913 -0.00111563 -4.4813e-06)
(8.33097e-05 6.28379e-05 -2.0473e-06)
(-7.21172e-06 -2.14013e-05 6.45273e-06)
(-6.01348e-05 -1.54945e-05 -3.5565e-06)
(0.000381048 -0.000113788 1.19571e-06)
(5.68781e-05 -1.07075e-05 -2.6006e-05)
(0.00387332 -0.000931679 -4.34873e-07)
(-0.00314481 0.000266317 -7.75763e-07)
(0.000742251 -0.00206275 3.81629e-06)
(-0.00274005 0.000408802 3.4107e-07)
(-1.63398e-05 -2.96131e-05 -8.52298e-05)
(1.32915e-05 -0.000115575 2.24941e-06)
(-2.90513e-05 -0.000118146 -3.13417e-05)
(8.06775e-05 -1.56563e-06 -3.13417e-05)
(-0.000346992 7.83464e-06 3.48758e-06)
(3.85567e-05 -5.73213e-06 -3.13417e-05)
(0.00060495 -0.000533224 1.87148e-06)
(9.95946e-06 -7.39147e-06 2.98135e-06)
(0.00231413 -0.00115166 -2.64477e-06)
(0.00149795 -0.00189293 -2.63643e-06)
(0.00884265 0.00289372 2.40199e-05)
(-0.00385218 -3.1186e-06 -8.37168e-08)
(0.000128549 0.000504827 6.51734e-05)
(-6.82954e-05 6.95097e-05 -3.13417e-05)
(0.000839017 2.91509e-05 5.43021e-06)
(0.000365801 0.000144713 -1.40928e-06)
(5.46556e-06 -3.86848e-05 8.86888e-06)
(-0.000591263 -1.23426e-05 0.00219125)
(0.00109859 0.00365827 8.05101e-07)
(1.805e-06 -0.000115707 1.09504e-07)
(-0.0018135 -0.00597298 8.2345e-06)
(-0.000736137 -1.23426e-05 0.00219125)
(-0.00385218 -3.12614e-06 -8.37168e-08)
(0.000421755 -0.000154763 2.49092e-09)
(0.00884265 0.00289372 2.51291e-05)
(-0.00476675 0.00273058 0.000982361)
(0.000220298 0.000800714 0.000423776)
(-0.00146605 0.00012412 0.000200949)
(-2.90542e-05 -0.000118136 -3.13417e-05)
(0.00385758 -0.00098367 -4.34873e-07)
(0.00784701 0.00211687 6.51734e-05)
(9.17883e-06 -6.66772e-05 -5.03016e-06)
(0.00116178 -0.00185529 -3.1601e-07)
(-0.00274263 0.000381968 3.4107e-07)
(-0.000690909 -1.23426e-05 0.00219125)
(-1.0218e-05 -2.00018e-05 6.178e-06)
(0.00110873 0.0036552 8.05101e-07)
(0.0078706 0.00203897 6.51734e-05)
(-3.85176e-05 0.00010871 -1.00356e-05)
(-0.00382541 -6.16751e-06 1.98746e-05)
(-0.000686274 0.000254671 -0.000283936)
(-0.00177684 -0.00598407 8.2345e-06)
(1.82602e-08 -4.24891e-06 6.60005e-05)
(1.38714e-05 0.0023245 5.41047e-06)
(-0.00476675 0.00500445 0.00134406)
(0.00841373 -0.000854178 -4.34873e-07)
(-0.00224254 -0.000443747 2.98336e-06)
(0.00782908 0.00217608 6.51734e-05)
(0.00169329 2.91509e-05 5.43021e-06)
(0.00251509 0.00375054 0.00223233)
(-6.01348e-05 -1.54945e-05 -4.81843e-05)
(-0.000659511 8.00133e-06 -7.71724e-05)
(2.14074e-05 -7.4285e-06 -3.13417e-05)
(-0.00314481 0.000523439 -7.75763e-07)
(0.00141993 2.91509e-05 5.43021e-06)
(0.0164205 0.00374209 1.81239e-05)
(0.000492052 -9.8161e-05 4.16875e-06)
(-1.06061e-05 -1.05952e-05 -3.13417e-05)
(0.00122882 2.91509e-05 5.43021e-06)
(8.9356e-05 -7.0717e-07 -3.13417e-05)
(-0.00181867 -0.00597141 8.2345e-06)
(-2.39056e-05 -0.000136067 -5.03016e-06)
(-0.00385218 -1.43853e-05 -7.92179e-06)
(0.00251509 0.00375054 0.0022606)
(-0.00100222 -1.23426e-05 0.00219125)
(0.00299461 0.00234196 -6.99337e-06)
(0.0015147 2.91509e-05 5.43021e-06)
(-6.42724e-05 2.76039e-05 -3.13417e-05)
(-0.000998938 -1.23426e-05 0.00219125)
(-0.000636817 -1.23426e-05 0.00219125)
(0.000200178 -0.0002308 -4.34873e-07)
(-6.01348e-05 -1.54945e-05 -5.04837e-05)
(-0.00496535 -2.07669e-06 -4.32542e-06)
(0.00889161 0.00273205 1.81239e-05)
(1.38714e-05 0.00906899 5.41047e-06)
(-6.01348e-05 -1.54945e-05 -4.68392e-05)
(3.89662e-10 -5.09089e-06 3.67557e-05)
(-0.00172128 -0.0060009 8.2345e-06)
(0.0140612 0.00460881 -6.99337e-06)
(0.0061286 0.00329215 -8.89803e-06)
(-6.01348e-05 -1.54945e-05 -5.99481e-05)
(-3.28408e-05 -0.000105631 -3.13417e-05)
(-2.87295e-05 -0.000119208 -3.13417e-05)
(0.00888416 0.00275666 1.81239e-05)
(0.00143509 2.91509e-05 5.43021e-06)
(-1.12682e-05 2.06355e-06 1.83891e-06)
(-0.00199944 0.00116679 0.000442384)
(-0.00496535 -2.07669e-06 -5.1519e-06)
(-7.11984e-05 9.97486e-05 -3.13417e-05)
(-0.00665132 7.91534e-06 1.90181e-05)
(0.00884265 0.00289372 1.20455e-05)
(-0.00143092 -0.00229598 -0.000569139)
(0.00453489 -0.000443231 2.02378e-06)
(0.000403913 0.00442541 5.41047e-06)
(-2.39914e-05 -0.000134856 -3.13417e-05)
(-6.01348e-05 -1.54945e-05 -5.48153e-05)
(-1.5772e-06 -9.66586e-06 1.23659e-06)
(-0.00382541 -6.16751e-06 2.03563e-05)
(-3.51473e-05 -9.80142e-05 -3.13417e-05)
(0.000149577 0.00069917 1.46857e-06)
(0.00109705 0.00365873 8.05101e-07)
(-5.55709e-05 1.80176e-05 -0.000259805)
(0.00784736 0.0021157 6.51734e-05)
(0.00884265 0.00289372 1.01569e-05)
(-4.48208e-05 6.20439e-05 -1.00356e-05)
(-0.00665132 7.91534e-06 1.59508e-05)
(0.00889957 0.00270575 1.81239e-05)
(-0.00259027 0.00885591 0.00150427)
(1.32225e-05 2.14592e-05 -6.42526e-06)
(-0.00230665 7.91534e-06 7.98598e-06)
(0.00248927 0.000738345 6.51734e-05)
(-0.000720984 -2.07669e-06 4.97409e-06)
(-0.000196316 0.000330384 -3.59791e-05)
(0.000323817 -0.000598796 6.12212e-06)
(0.00165353 -0.000959574 7.61922e-06)
(-0.000225234 0.0135715 6.12212e-06)
(0.00884265 0.00289372 8.95729e-06)
(-7.61941e-06 -2.54512e-05 6.178e-06)
(0.00788473 0.00199229 6.51734e-05)
(-6.66237e-05 -0.000278234 -6.50919e-06)
(0.00787534 0.00202329 6.51734e-05)
(-0.00665132 7.69206e-05 7.98598e-06)
(-4.26889e-05 1.80176e-05 -0.000259805)
(0.00889271 0.00272841 1.81239e-05)
(0.00789012 0.00197448 6.51734e-05)
(-0.000214041 -2.99306e-05 -4.51837e-05)
(2.27023e-05 -4.22676e-05 -0.00136152)
(0.00786193 0.00206761 6.51734e-05)
(-0.00665132 -5.47371e-05 7.98598e-06)
(0.00056896 -0.000524565 1.25844e-05)
(0.00068004 0.000559379 6.51734e-05)
(0.00994836 0.0015924 0.000100026)
(-1.43361e-05 2.40701e-06 4.52031e-07)
(8.7755e-05 -0.00051257 1.77032e-09)
(0.000954835 0.000148416 4.32784e-06)
(0.000555354 0.00577455 1.39422e-06)
(-0.00105367 -0.000275854 8.2345e-06)
(-0.00176498 -0.0015648 1.39522e-06)
(8.38471e-05 -0.000421168 2.84672e-07)
(-3.15394e-05 3.91441e-06 2.26268e-06)
(-0.00458587 0.000368355 -1.65274e-06)
(-0.00138201 -0.00610363 1.4288e-05)
(0.000529102 0.00395392 2.02378e-06)
(0.00210235 -0.00392062 3.76936e-06)
(-0.00153485 -0.000728429 3.94432e-06)
(0.000177284 0.00395392 2.02378e-06)
(-2.88063e-06 -9.19182e-06 1.23659e-06)
(-0.00160158 7.91534e-06 7.98598e-06)
(0.0100246 0.00314869 4.87349e-07)
(-0.000534832 -0.00565995 7.30161e-07)
(-2.58e-06 -9.3622e-06 2.02725e-06)
(-0.000518317 -5.10868e-05 -3.20146e-09)
(-0.00665132 -5.95578e-05 7.98598e-06)
(-0.000165923 0.000102537 1.04421e-06)
(0.00210235 -0.00392062 4.37144e-06)
(0.000380524 -0.00051257 1.77032e-09)
(-0.000405243 -2.07669e-06 4.97409e-06)
(0.00511488 -0.00827823 1.0607e-05)
(-0.00917243 0.010386 -5.07451e-06)
(-0.00208431 3.20575e-06 -1.65274e-06)
(0.00745362 -0.00505527 1.0607e-05)
(-0.00224254 -0.000443747 5.14618e-06)
(-0.000607177 0.000142323 -1.49297e-06)
(-0.00665132 7.91534e-06 5.11049e-06)
(0.00243921 -0.00242326 8.39056e-05)
(0.00250068 0.000855693 3.36249e-05)
(0.00900883 -0.00505527 1.0607e-05)
(0.00994836 0.0015924 8.21576e-05)
(0.0101072 0.00287571 -1.44337e-05)
(0.00972592 0.00232698 3.36249e-05)
(0.00145069 -0.00465487 1.38432e-06)
(0.000565854 0.00577354 1.39422e-06)
(-0.00275416 0.000285469 -8.04044e-05)
(0.000255825 0.00395392 2.02378e-06)
(-0.000613145 8.01601e-05 -1.86042e-06)
(0.0018088 -0.00454643 1.38432e-06)
(-0.00457979 -0.00042528 -1.65274e-06)
(0.00116762 0.000148416 4.32784e-06)
(0.00139061 0.000148416 4.32784e-06)
(0.00267269 0.000872708 3.36249e-05)
(0.0101058 0.00288058 -1.44337e-05)
(0.00994836 0.0015924 8.59556e-05)
(0.000518069 0.00577813 1.39422e-06)
(-6.74051e-06 1.08471e-05 1.84411e-06)
(-2.45929e-05 -5.1699e-06 -2.02255e-06)
(-0.000214256 -2.76875e-05 0.000146624)
(0.00317797 -0.00613678 1.46857e-06)
(-0.00458502 -0.000370842 -1.65274e-06)
(0.00267192 0.000872631 3.36249e-05)
(-1.38513e-05 2.26567e-05 2.26268e-06)
(0.00275098 0.000880452 3.36249e-05)
(0.00165167 0.0156652 6.87675e-06)
(0.000156154 -0.000564195 6.12212e-06)
(0.00226644 0.000832522 3.36249e-05)
(0.000725034 -0.000170128 -3.19437e-06)
(0.00287646 0.000892864 3.36249e-05)
(0.0021833 0.000824298 3.36249e-05)
(0.00119176 0.000148416 4.32784e-06)
(0.00163601 -0.0113118 6.12212e-06)
(0.0100246 0.00314869 -9.54703e-06)
(-0.00119798 0.00125535 -3.38668e-05)
(-0.0012961 0.00240783 0.000105017)
(-3.79066e-05 -0.000160895 -1.49857e-06)
(-7.55392e-05 -0.000157225 4.3289e-06)
(0.000503097 0.000624689 6.87675e-06)
(-0.00221165 -0.000910938 6.04193e-06)
(-0.00665132 7.91534e-06 8.74543e-07)
(1.21391e-05 -5.65353e-05 -2.02255e-06)
(0.0030188 0.000906944 3.36249e-05)
(-0.000850692 -0.00385782 0.000789125)
(0.00971293 0.0023699 3.36249e-05)
(1.06159e-05 -5.5672e-05 -2.02255e-06)
(0.000522371 0.00577772 1.39422e-06)
(-0.000496419 -2.07669e-06 4.97409e-06)
(9.81837e-05 -0.000999914 1.18782e-06)
(0.00107946 0.000148416 4.32784e-06)
(0.00511488 -0.00802467 1.0607e-05)
(-0.000177719 -9.09161e-05 -3.20146e-09)
(0.0095989 0.00389981 -1.44337e-05)
(0.00163272 0.0153287 6.87675e-06)
(-0.00192447 -0.00197525 -0.000569139)
(0.00905599 0.00485778 -1.44337e-05)
(0.001656 0.015742 6.87675e-06)
(0.000284664 0.00580054 1.39422e-06)
(-0.000555114 -0.000869709 0.00103281)
(2.35089e-05 -4.71274e-05 -0.00248784)
(0.00169246 -0.00505527 1.0607e-05)
(0.00166191 0.0158468 6.87675e-06)
(-0.000169965 0.00128755 7.30161e-07)
(-0.000720612 -2.07669e-06 4.97409e-06)
(0.00162303 0.0151568 6.87675e-06)
(0.0100883 0.00293842 -1.44337e-05)
(0.00159441 -0.00461135 1.38432e-06)
(0.00170666 0.00077715 3.36249e-05)
(0.00146607 0.0123708 6.87675e-06)
(2.74248e-05 2.44705e-05 -3.65787e-05)
(0.001765 -0.000487538 -3.19437e-06)
(0.00974357 0.0022687 3.36249e-05)
(0.00511488 -0.00505527 7.61701e-06)
(-0.00665132 7.91534e-06 -1.87267e-06)
(0.00544715 0.0022358 -1.44337e-05)
(-0.000534832 -0.0055524 7.30161e-07)
(0.00315506 0.000920423 3.36249e-05)
(0.00972834 0.002319 3.36249e-05)
(0.00303437 0.000908484 3.36249e-05)
(0.000850447 0.00773226 6.87675e-06)
(-0.000472853 -3.81007e-05 0.00103281)
(0.00975859 0.00221909 3.36249e-05)
(0.00969917 0.00241534 3.36249e-05)
(-1.92028e-05 -4.59893e-05 1.02596e-07)
(0.00971473 0.00236395 3.36249e-05)
(0.00294623 0.000899766 3.36249e-05)
(0.00251016 0.00085663 3.36249e-05)
(0.00317797 -0.00578175 1.46857e-06)
(-2.60757e-05 -1.4103e-05 -2.02255e-06)
(0.00317672 0.000922565 3.36249e-05)
(0.00971226 0.00237211 3.36249e-05)
(-6.76955e-06 1.05877e-05 1.84411e-06)
(-0.00821005 0.00942363 -5.07451e-06)
(-0.00942387 0.000888715 -1.43484e-06)
(0.00969757 0.00242062 3.36249e-05)
(0.00210235 -0.00392062 7.3734e-06)
(0.00994836 0.0015924 -2.28137e-05)
(0.00254386 0.000859964 3.36249e-05)
(1.19084e-05 0.00994337 1.39422e-06)
(0.0100246 0.00314869 -2.95326e-05)
(0.00108646 0.000715801 3.36249e-05)
(0.0100246 0.00314869 -2.71342e-05)
(0.00973759 0.00228843 3.36249e-05)
(0.00994836 0.0015924 -2.09035e-05)
(1.19084e-05 0.00582672 -1.8445e-06)
(-0.0017195 -0.000836676 0.000854981)
(-0.000730193 -0.000430221 2.14186e-05)
(0.0100869 0.0029428 -1.44337e-05)
(-0.00633109 -0.000507211 1.1565e-05)
(-2.92274e-05 -3.30917e-05 -1.83411e-05)
(-0.000827805 -0.00512632 1.89756e-05)
(0.00257855 -3.35115e-05 0.000969683)
(0.00373687 -0.00677558 7.27746e-06)
(-6.31435e-06 1.46536e-05 1.84411e-06)
(-0.000560364 0.00241056 -3.22404e-06)
(0.00120282 0.00769843 -1.3239e-07)
(-0.00853374 0.00974732 -5.07451e-06)
(8.50692e-05 -6.72202e-06 -2.24673e-07)
(0.00994836 0.0015924 -1.89505e-05)
(0.000233689 -0.000626088 6.12212e-06)
(0.0100937 0.00292032 -1.44337e-05)
(0.000439282 -0.00107279 6.46096e-07)
(4.1608e-06 -0.00481345 -3.34231e-06)
(0.0097033 0.00240168 3.36249e-05)
(0.00260676 0.000866185 3.36249e-05)
(-0.00027163 0.00659477 9.44254e-07)
(-0.00633109 -0.0119623 -4.60965e-06)
(-2.09176e-05 2.26567e-05 -6.59066e-06)
(0.0015324 0.0135482 6.87675e-06)
(-1.34984e-05 3.47503e-05 -0.000820785)
(0.00294655 0.000899797 3.36249e-05)
(2.06948e-06 -0.00589195 5.12784e-06)
(-0.00633109 -0.000136952 1.1565e-05)
(0.0009574 -0.00827665 4.7115e-05)
(3.86893e-05 -9.03902e-05 -2.75259e-05)
(-0.00422583 0.0054394 -1.96919e-05)
(-0.000721879 -0.000860525 -3.51032e-05)
(3.86893e-05 -9.03902e-05 -2.88671e-05)
(6.56647e-06 -1.50703e-05 2.41963e-05)
(-0.0147035 -0.00224356 -3.82702e-05)
(-4.55244e-06 9.10273e-08 -1.19455e-06)
(0.00994836 0.0015924 -2.74768e-05)
(-0.000299113 0.00748295 -3.84367e-06)
(-0.00633109 -0.00199615 1.1565e-05)
(-2.22353e-05 7.20243e-06 -1.19455e-06)
(1.57107e-07 8.27718e-05 2.98662e-05)
(0.000474653 -0.00206789 7.52511e-06)
(0.00994836 0.0015924 -3.33388e-05)
(-0.000721879 -0.000860525 -3.48881e-05)
(-5.5074e-05 -0.000107375 -2.05866e-05)
(0.00130519 0.000113352 8.76852e-07)
(-0.000205068 0.00659477 9.44254e-07)
(-3.04181e-05 1.0925e-05 4.89298e-06)
(-0.00633109 -0.00240919 1.1565e-05)
(0.00373687 -0.00677558 6.71126e-06)
(0.00183211 0.000113352 8.76852e-07)
(-0.000721879 -0.000860525 -3.50604e-05)
(-0.00711824 0.00125527 -1.43484e-06)
(-0.000281603 0.00659477 9.44254e-07)
(-0.0147694 -0.00225008 -3.82702e-05)
(6.56647e-06 -1.50703e-05 1.95279e-05)
(-0.000862301 0.005516 -3.03524e-06)
(-0.00121946 0.0118552 8.98153e-07)
(-4.66327e-06 -2.78455e-06 1.17902e-06)
(-0.00633109 -0.00319071 1.1565e-05)
(0.00411368 -0.00219837 7.52511e-06)
(-9.41683e-05 -0.000455894 -3.90574e-06)
(-0.000721879 -0.000860525 -3.55353e-05)
(-0.000721879 -0.000860525 -3.56708e-05)
(4.1608e-06 -0.00497689 -3.34231e-06)
(-0.00227573 0.000546288 -3.34624e-06)
(0.00373687 -0.00677558 4.20614e-06)
(0.00110036 -0.00173687 6.46096e-07)
(-0.0191101 -0.00267945 -3.82702e-05)
(0.00138457 0.000113352 8.76852e-07)
(0.000376794 0.00517713 -4.30526e-06)
(-0.000816372 -0.000548467 -3.82702e-05)
(2.06948e-06 -0.00589195 1.26357e-06)
(0.0010056 0.000113352 8.76852e-07)
(0.00257855 -0.000107433 0.000969683)
(-0.00140769 0.000575229 -1.85763e-06)
(-0.0118226 -0.0119623 1.1565e-05)
(-0.00633109 -0.0058614 1.1565e-05)
(8.62003e-05 -1.85259e-06 2.21069e-06)
(7.40834e-05 -4.64644e-06 1.73442e-06)
(-1.08722e-05 -0.00027061 -2.78998e-05)
(-0.000256104 0.00659477 9.44254e-07)
(-2.67911e-05 4.33222e-05 8.87349e-06)
(-0.0147981 -0.00225291 -3.82702e-05)
(-0.000480392 0.00165513 8.98153e-07)
(-4.66327e-06 -2.78455e-06 1.29837e-05)
(-3.37707e-05 -5.88599e-06 8.87349e-06)
(-2.68116e-05 4.31388e-05 8.87349e-06)
(0.0014708 -0.000533946 2.29391e-06)
(0.000152768 -5.14633e-05 7.3408e-06)
(-0.0154217 -0.0023146 -3.82702e-05)
(0.000422328 0.00517276 -4.30526e-06)
(-0.00134549 0.00536969 8.98153e-07)
(1.12503e-06 2.29702e-08 2.80997e-06)
(-2.8975e-05 3.72369e-05 -0.000820785)
(-2.14328e-06 3.94693e-05 0.00032135)
(-1.06157e-07 7.80992e-05 2.98662e-05)
(-0.0182417 -0.00259355 -3.82702e-05)
(0.00416242 -0.0060247 3.14722e-06)
(-0.00108507 0.000274953 2.72723e-08)
(-0.00521122 8.72858e-07 2.57668e-06)
(-2.62818e-06 3.33362e-05 2.98662e-05)
(2.89174e-05 -0.00589195 -2.11321e-06)
(0.00188853 0.000113352 8.76852e-07)
(0.00150055 -0.00206789 7.52511e-06)
(5.85255e-07 -3.55537e-05 -4.41705e-09)
(0.00058759 0.000523843 0.000229989)
(-0.000819725 -0.000537395 -3.82702e-05)
(-7.68766e-07 0.000417146 2.91941e-07)
(-7.15538e-05 -3.87553e-05 2.21069e-06)
(0.00211646 0.000113352 8.76852e-07)
(-0.017247 -0.00249515 -3.82702e-05)
(-0.000358111 0.00659477 9.44254e-07)
(-4.66327e-06 -2.78455e-06 2.37263e-05)
(2.06948e-06 -0.00959362 -2.11321e-06)
(-0.000758752 0.00400529 8.4322e-06)
(-0.0174492 -0.00251515 -3.82702e-05)
(-0.0169407 -0.00246486 -3.82702e-05)
(-0.000395528 0.00659477 9.44254e-07)
(2.06948e-06 -0.00901366 -2.11321e-06)
(2.06948e-06 -0.00370521 -2.11321e-06)
(-0.0156786 -0.00234001 -3.82702e-05)
(-0.00470322 8.72858e-07 2.57668e-06)
(0.000359018 0.00517884 -4.30526e-06)
(-0.012372 -0.00201293 -3.82702e-05)
(-0.0158171 -0.00235371 -3.82702e-05)
(1.41551e-05 2.75593e-05 -1.23601e-06)
(-0.00580924 -0.00986874 1.89756e-05)
(4.1608e-06 -0.00575227 -3.34231e-06)
(-0.00268458 0.00408132 -1.43484e-06)
(1.86084e-05 -5.01869e-06 2.98662e-05)
(-0.016283 -0.0023998 -3.82702e-05)
(-0.00230592 0.000231811 -3.34624e-06)
(3.18487e-05 -6.28979e-06 2.98662e-05)
(0.00401765 0.00285168 -1.43484e-06)
(-0.000815507 -0.000551325 -3.82702e-05)
(2.66734e-05 5.8842e-07 3.42155e-06)
(-1.4907e-06 5.3525e-05 2.98662e-05)
(-1.88403e-05 -1.56873e-05 -1.40837e-05)
(2.06948e-06 -0.00589195 -7.53662e-06)
(-0.000818159 -0.000542567 -3.82702e-05)
(2.06948e-06 -0.00589195 -7.21671e-06)
(-0.00172463 -0.000515757 -1.43484e-06)
(-0.000565869 -0.000104825 -0.000113995)
(-0.000801003 0.000210011 -1.85763e-06)
(-0.00090763 0.00396268 8.4322e-06)
(-1.07228e-05 -7.75576e-05 -3.98647e-05)
(-2.89587e-06 -5.92305e-06 7.24598e-06)
(-0.000551264 0.00659477 9.44254e-07)
(-0.000797694 -0.000610152 -3.82702e-05)
(6.9397e-05 -0.0001918 8.00179e-06)
(5.09146e-05 1.2756e-05 -6.54302e-05)
(0.00137585 8.72858e-07 9.11146e-06)
(0.00753871 0.000113352 -1.49193e-05)
(6.56647e-06 -1.50703e-05 -2.0238e-05)
(-0.000723648 0.00401229 6.7979e-06)
(-0.000721879 -0.000860525 -4.12491e-05)
(-0.000721879 -0.000860525 -4.12853e-05)
(-0.00633109 -0.0119623 2.68925e-05)
(1.55561e-05 0.00521181 -5.5775e-06)
(-0.0017195 -0.000836676 2.68437e-05)
(-0.000721879 -0.000860525 -4.12578e-05)
(-0.000763523 0.00400434 8.4322e-06)
(-0.000862301 0.005516 7.26081e-06)
(-0.000721879 -0.000860525 -4.08692e-05)
(-0.00663734 0.00659477 -1.26603e-05)
(0.00753871 0.000113352 -1.36363e-05)
(0.000525588 0.000116552 -4.91054e-06)
(1.55561e-05 0.000959023 -4.30526e-06)
(-0.000723648 0.00401229 6.53103e-06)
(-2.20318e-05 3.53919e-05 2.21069e-06)
(-0.000560364 0.00241056 1.02701e-05)
(0.000117506 -0.00265385 0.000969683)
(0.000674674 0.0019307 -2.64128e-06)
(-0.0010328 -0.0050923 2.21968e-05)
(-0.000721879 -0.000860525 -4.08076e-05)
(-0.000446928 0.00659477 9.44254e-07)
(-0.000395682 0.00659477 9.44254e-07)
(-0.0010328 -0.0050923 2.17803e-05)
(-0.000489152 -0.000570231 4.52575e-06)
(-0.00225035 0.00081069 -2.1828e-06)
(-9.41683e-05 -0.000455894 3.9904e-07)
(0.00170996 -0.0019748 2.38201e-06)
(0.000525588 0.000116552 -4.96831e-06)
(-0.000979621 0.000139399 0.000313708)
)


// ************************************************************************* //
