/*--------------------------------*- C++ -*----------------------------------*\
| =========                 |                                                 |
| \\      /  F ield         | OpenFOAM: The Open Source CFD Toolbox           |
|  \\    /   O peration     | Version:  plus.master.MPPICInterFoam            |
|   \\  /    A nd           | Web:      www.OpenFOAM.com                      |
|    \\/     M anipulation  |                                                 |
\*---------------------------------------------------------------------------*/
FoamFile
{
    version     2.0;
    format      ascii;
    class       surfaceScalarField;
    location    "11.8";
    object      alphaPhi;
}
// * * * * * * * * * * * * * * * * * * * * * * * * * * * * * * * * * * * * * //

dimensions      [0 3 -1 0 0 0 0];

internalField   nonuniform List<scalar> 
34018
(
2.66434e-07
5.97813e-06
3.78265e-09
3.51619e-08
3.77536e-07
7.48758e-06
3.3667e-07
5.86883e-06
4.13476e-08
3.49897e-08
7.90361e-06
5.55173e-07
4.02116e-08
6.89579e-06
4.59261e-07
5.4757e-06
3.77597e-08
3.71767e-07
-4.78845e-07
-4.73727e-07
7.29729e-06
5.88222e-07
3.80971e-07
-3.66102e-07
-4.42051e-07
7.50539e-06
3.94383e-07
-2.15141e-07
-4.57365e-07
7.28711e-06
3.95485e-07
-7.11151e-08
-4.00055e-07
6.68164e-06
3.36894e-07
6.52485e-09
-2.50607e-07
5.81178e-06
2.26021e-07
4.0376e-08
-1.3167e-07
4.8297e-06
1.29002e-07
-4.26852e-08
3.82975e-06
5.35925e-08
4.67081e-08
-4.49471e-07
-3.29811e-07
8.07027e-06
7.22274e-07
-3.15471e-07
-1.36185e-07
8.01836e-06
-1.58262e-07
-2.01433e-07
7.82752e-06
2.23703e-08
-3.26983e-07
7.82256e-06
1.03358e-07
-2.08443e-07
7.00613e-06
1.1539e-07
-8.58737e-08
5.78229e-06
3.00021e-10
4.58502e-06
1.02186e-07
-2.36365e-07
-3.63498e-08
5.92563e-06
6.83263e-07
-1.40172e-07
9.3711e-08
4.96518e-06
-6.38615e-08
5.24581e-08
4.9562e-06
1.59145e-07
-2.69485e-08
7.22141e-06
2.55625e-07
-2.42495e-08
7.81142e-06
2.21523e-07
4.6224e-08
6.65507e-06
9.2999e-08
5.2468e-06
1.7281e-07
-1.48039e-07
1.10292e-08
4.97862e-06
3.48226e-07
-1.61732e-07
2.36669e-07
5.46021e-06
-7.09264e-08
2.09019e-07
5.09526e-06
1.0256e-07
5.5212e-08
5.68628e-06
3.44905e-07
1.63493e-07
8.00702e-06
2.94786e-07
2.19367e-07
7.29865e-06
2.13282e-07
5.72485e-06
2.2675e-07
-1.28489e-07
1.0657e-07
5.70331e-06
3.06893e-07
-3.6877e-07
-2.29295e-08
9.92956e-06
-4.4303e-07
-3.78658e-08
5.82471e-06
-4.8787e-09
1.10784e-07
5.62027e-06
3.28098e-07
2.90576e-07
8.09927e-06
3.04994e-07
3.57896e-07
7.55462e-06
3.19543e-07
5.93412e-06
2.42925e-07
-1.82545e-07
3.20511e-07
4.93523e-06
5.06017e-07
-1.18772e-07
1.03365e-07
5.39352e-06
-1.04237e-07
1.51088e-07
5.09499e-06
1.96309e-07
4.32443e-07
5.57272e-06
3.99084e-07
5.79063e-07
8.06664e-06
3.20544e-07
5.29167e-07
7.39481e-06
4.21962e-07
5.8476e-06
2.39585e-07
-2.8012e-07
7.17233e-06
7.45745e-07
8.75369e-07
-1.24174e-07
6.18878e-06
7.37098e-07
-6.15049e-09
6.41826e-06
7.71043e-07
2.40303e-07
7.57227e-06
9.68899e-07
2.92307e-07
7.99663e-06
7.75769e-07
2.43312e-07
6.8737e-06
6.00372e-07
5.4893e-06
1.95431e-07
4.56702e-07
-4.88243e-07
-2.65922e-07
7.2844e-06
5.42414e-07
2.24677e-07
-3.70876e-07
-3.09953e-07
7.44501e-06
2.52667e-07
-2.28143e-07
-3.08979e-07
7.19913e-06
2.54252e-07
-1.11545e-07
-2.28005e-07
6.59126e-06
2.02028e-07
-3.88179e-08
-1.27453e-07
5.73695e-06
1.29558e-07
4.87873e-09
-5.49726e-08
4.77251e-06
6.87171e-08
-8.00446e-10
3.78923e-06
3.21175e-08
1.4159e-08
-5.35793e-07
-2.63602e-07
8.29919e-06
6.79814e-07
-3.56911e-07
-2.04264e-07
8.54462e-06
-1.87637e-07
-2.13808e-07
8.17895e-06
-5.50621e-08
-2.01212e-07
7.82963e-06
1.38544e-08
-8.49179e-08
6.90999e-06
4.40582e-08
-6.70498e-09
5.7043e-06
4.17064e-08
4.53008e-06
5.65981e-08
-3.24924e-07
-9.07236e-08
7.81053e-06
8.33007e-07
-1.43636e-07
4.33064e-08
5.59423e-06
-6.45813e-08
3.44854e-08
6.03121e-06
7.7981e-08
-1.95206e-08
8.17924e-06
1.1822e-07
4.77239e-08
7.8318e-06
1.11913e-07
1.02948e-07
6.55159e-06
1.23167e-07
5.17691e-06
1.00466e-07
-1.13979e-07
4.55118e-08
6.1901e-06
7.59431e-07
-9.9827e-08
8.60882e-08
5.33125e-06
-9.42843e-08
4.96833e-08
5.00904e-06
1.39899e-07
1.04203e-07
6.93499e-06
2.06202e-07
2.33698e-07
8.30785e-06
1.69548e-07
2.60529e-07
7.17795e-06
2.31983e-07
5.64813e-06
1.37552e-07
-9.11226e-08
2.37834e-07
6.64188e-06
7.47492e-07
-1.26581e-07
6.52866e-08
6.19561e-06
-9.37344e-08
1.08728e-07
5.64894e-06
1.20883e-07
2.50153e-07
6.58563e-06
2.07938e-07
4.2131e-07
8.60312e-06
1.72844e-07
4.02195e-07
7.45031e-06
3.29478e-07
5.86595e-06
1.43707e-07
-1.95448e-07
6.16658e-07
7.69822e-06
9.12709e-07
-1.12021e-07
2.97503e-07
4.95367e-06
-2.95419e-08
4.62971e-07
4.95228e-06
1.60757e-07
6.39823e-07
7.98227e-06
1.82524e-07
5.9016e-07
8.32177e-06
1.47431e-07
5.10794e-07
7.32089e-06
3.97159e-07
5.80029e-06
1.27389e-07
-4.33012e-07
8.36259e-06
7.01006e-07
7.82979e-07
-2.18669e-07
8.61449e-06
9.42056e-07
-7.26636e-08
8.14214e-06
9.33919e-07
1.94475e-08
8.20859e-06
8.07984e-07
6.33577e-08
8.05037e-06
6.41325e-07
8.24958e-08
6.84444e-06
5.212e-07
5.4701e-06
1.0318e-07
3.95973e-07
-4.48955e-07
1.50982e-07
7.21067e-06
4.10116e-07
-3.84902e-08
-3.96855e-07
9.35999e-08
7.3355e-06
-3.6075e-08
-2.99657e-07
4.74564e-08
7.06559e-06
-1.09986e-08
-2.13677e-07
6.48622e-08
6.45405e-06
-1.3456e-08
-1.36599e-07
6.63945e-08
5.61184e-06
-1.83567e-08
-7.10019e-08
6.30606e-08
4.66936e-06
-2.53413e-08
6.54943e-08
3.71395e-06
-2.03892e-08
-4.10915e-08
-5.58133e-07
1.81562e-07
8.23923e-06
5.0791e-07
-4.52658e-07
6.13133e-08
8.45419e-06
-3.29693e-07
2.66778e-08
8.02669e-06
-2.45919e-07
1.08482e-07
7.66902e-06
-1.58861e-07
1.28387e-07
6.75851e-06
-8.3156e-08
1.17708e-07
5.57452e-06
1.08111e-07
4.43204e-06
-2.74646e-08
-4.8603e-07
1.19441e-07
7.72563e-06
6.42374e-07
-2.50199e-07
1.32788e-08
5.63561e-06
-1.80709e-07
-1.32316e-09
6.09026e-06
-1.97261e-07
1.20207e-07
7.97054e-06
-1.48992e-07
2.09596e-07
7.66182e-06
-7.83431e-08
1.97898e-07
6.40073e-06
1.69793e-07
5.0603e-06
-2.3247e-08
-4.19677e-07
2.26667e-07
7.1066e-06
8.98414e-07
-2.03319e-07
1.4868e-07
4.91396e-06
-5.77215e-08
1.32056e-07
4.65766e-06
-9.45634e-08
2.22203e-07
6.77694e-06
-1.20511e-07
3.4454e-07
8.12508e-06
-6.95211e-08
3.08173e-07
7.01679e-06
2.44843e-07
5.52191e-06
-1.83911e-08
-5.67111e-07
5.58646e-07
8.91568e-06
1.09412e-06
-2.44587e-07
3.87738e-07
5.56171e-06
-7.62822e-08
3.34121e-07
5.21211e-06
-1.14557e-07
3.93984e-07
6.31701e-06
-1.56936e-07
4.59267e-07
8.44954e-06
-9.20573e-08
3.92193e-07
7.30135e-06
3.02104e-07
5.74446e-06
-2.7648e-08
-6.60389e-07
5.41328e-07
9.13997e-06
8.46118e-07
-2.33804e-07
6.84002e-07
6.15021e-06
-1.109e-07
6.67727e-07
5.55895e-06
-2.08915e-07
5.83749e-07
8.04218e-06
-2.24494e-07
4.59447e-07
8.19501e-06
-1.23166e-07
4.12538e-07
7.19934e-06
3.2095e-07
5.69594e-06
-3.75424e-08
-5.30511e-07
8.20331e-06
4.08438e-07
2.83448e-07
-4.10635e-07
8.62435e-06
5.03239e-07
-3.33559e-07
7.97461e-06
5.10003e-07
-3.53114e-07
8.02798e-06
4.04712e-07
-2.66586e-07
7.98765e-06
4.00818e-07
-1.33472e-07
6.75204e-06
3.71773e-07
5.39032e-06
-2.32227e-08
2.90168e-07
-3.65708e-07
2.53008e-07
7.09036e-06
3.12072e-07
-7.90997e-08
-3.62633e-07
2.61374e-07
7.18851e-06
-1.17886e-07
-2.96719e-07
1.81702e-07
6.90187e-06
-8.39139e-08
-2.19368e-07
1.45809e-07
6.29045e-06
-5.97086e-08
-1.37863e-07
1.07855e-07
5.46483e-06
-4.23687e-08
-6.52817e-08
7.93163e-08
4.5519e-06
-3.42363e-08
6.60908e-08
3.63317e-06
-1.12175e-08
-3.9425e-08
-4.67742e-07
2.79771e-07
7.75801e-06
3.85721e-07
-4.52977e-07
2.16582e-07
8.03016e-06
-3.6476e-07
1.29736e-07
7.57831e-06
-2.89682e-07
1.97683e-07
7.42678e-06
-1.86812e-07
1.838e-07
6.57103e-06
-9.17853e-08
1.37713e-07
5.42133e-06
1.08039e-07
4.32239e-06
-2.40369e-08
-5.17735e-07
2.09289e-07
6.19069e-06
4.56593e-07
-2.68987e-07
2.72509e-08
5.12449e-06
-2.10875e-07
1.33714e-08
5.42208e-06
-2.78111e-07
1.61051e-07
7.12118e-06
-2.17625e-07
2.5312e-07
7.39747e-06
-1.09326e-07
2.09154e-07
6.22091e-06
1.61449e-07
4.92786e-06
-3.03913e-08
-1.00231e-06
4.17394e-07
5.23452e-06
6.69039e-07
-2.54771e-07
2.63895e-07
7.6674e-06
-4.15758e-08
1.68491e-07
7.61106e-06
-1.94945e-07
2.32053e-07
5.76575e-06
-2.42323e-07
3.53034e-07
7.67546e-06
-1.28134e-07
2.88729e-07
6.82311e-06
2.16885e-07
5.37626e-06
-3.78701e-08
-1.24286e-06
5.34472e-07
7.20034e-06
7.31723e-07
-5.15564e-07
7.10594e-07
8.59355e-06
-4.80308e-08
7.24256e-07
8.34131e-06
-2.63202e-07
4.05397e-07
5.66643e-06
-3.16713e-07
3.78081e-07
7.92097e-06
-1.64163e-07
3.26737e-07
7.11075e-06
2.4908e-07
5.59867e-06
-5.05123e-08
-7.15071e-07
3.0695e-07
7.52432e-06
4.79958e-07
-4.31386e-07
4.71062e-07
6.18098e-06
-1.85258e-07
4.87539e-07
5.20824e-06
-3.22933e-07
3.75766e-07
6.61349e-06
-3.43387e-07
3.35261e-07
7.60028e-06
-1.67046e-07
3.21916e-07
7.02784e-06
2.55447e-07
5.56524e-06
-4.27349e-08
-3.6587e-07
5.78789e-06
2.34324e-07
1.12428e-07
-4.00838e-07
6.13372e-06
1.64428e-07
-3.44272e-07
5.62485e-06
2.12267e-07
-4.04844e-07
6.61981e-06
2.13736e-07
-3.0226e-07
7.65077e-06
2.9093e-07
-1.33865e-07
6.60997e-06
2.95532e-07
5.28699e-06
-9.73684e-09
2.34447e-07
-2.68883e-07
-3.38443e-09
6.97634e-06
2.87292e-07
9.8987e-08
-2.7566e-07
1.19684e-07
7.04251e-06
3.30494e-08
-2.10013e-07
3.77359e-08
6.74495e-06
5.35431e-08
-1.21874e-07
-3.31949e-09
6.14203e-06
6.34022e-08
-4.25464e-08
-6.69831e-09
5.34021e-06
5.19751e-08
1.67956e-08
-3.14105e-09
4.46046e-06
3.48735e-08
5.76548e-09
3.57723e-06
5.39648e-08
1.32519e-08
-2.77111e-07
6.75829e-08
7.49402e-06
3.42386e-07
-3.39174e-07
2.08236e-07
7.64064e-06
-2.68862e-07
8.98852e-08
7.28801e-06
-1.64754e-07
6.9883e-08
7.20781e-06
-6.05534e-08
6.40405e-08
6.39272e-06
1.52665e-08
5.07423e-08
5.29145e-06
4.51219e-08
4.23928e-06
5.91657e-08
-2.76219e-07
7.24123e-08
4.90365e-06
2.96086e-07
-1.38432e-07
1.58145e-07
4.89529e-06
-1.5855e-07
8.31714e-08
4.8127e-06
-1.5531e-07
9.08781e-08
6.74901e-06
-6.18444e-08
1.5192e-07
7.16361e-06
2.29881e-08
1.29037e-07
6.05786e-06
1.01682e-07
4.82267e-06
7.16e-08
-2.49753e-07
1.31107e-07
5.07294e-06
2.11454e-07
-3.08125e-07
1.9216e-07
8.00521e-06
-1.22253e-07
9.817e-08
6.21432e-06
-1.40701e-07
9.92851e-08
5.21165e-06
-8.95047e-08
2.32388e-07
7.36988e-06
1.72668e-08
2.05729e-07
6.63973e-06
1.59313e-07
5.25791e-06
7.80186e-08
-3.4902e-07
1.61466e-07
5.45744e-06
2.8427e-07
-4.36479e-07
1.72197e-07
8.8914e-06
-1.90581e-07
1.3797e-07
8.23874e-06
-3.6293e-07
1.82525e-07
5.28842e-06
-1.66258e-07
2.0403e-07
7.5322e-06
-5.9203e-09
2.31958e-07
6.92435e-06
1.94558e-07
5.48028e-06
7.71754e-08
-2.93295e-07
1.37811e-07
5.06139e-06
2.46057e-07
-2.19042e-07
1.41777e-07
5.11878e-06
-6.61429e-08
1.21944e-07
4.72474e-06
-1.32301e-07
1.833e-07
5.10393e-06
-7.74232e-08
2.71249e-07
7.33457e-06
3.49422e-08
2.83827e-07
6.86368e-06
2.31021e-07
5.46355e-06
1.00033e-07
-1.79809e-07
5.15599e-06
2.82147e-07
2.84488e-07
-1.59192e-07
4.61808e-06
2.22425e-07
-1.14247e-07
4.72305e-06
2.28297e-07
-1.13448e-07
6.2972e-06
3.48957e-07
-1.8896e-08
7.41866e-06
3.64367e-07
6.59235e-08
6.48588e-06
3.23036e-07
5.21497e-06
1.23991e-07
2.44975e-07
-2.57449e-07
-2.62503e-07
6.90916e-06
3.28189e-07
2.58959e-07
-1.97544e-07
-1.96892e-07
6.94942e-06
2.30347e-07
-1.07403e-07
-2.07389e-07
6.63883e-06
2.2324e-07
-1.69631e-08
-1.81666e-07
6.04214e-06
1.91044e-07
4.81674e-08
-1.25097e-07
5.26002e-06
1.39997e-07
8.74128e-08
-7.97242e-08
4.40546e-06
9.51488e-08
-4.57936e-08
3.54736e-06
1.06229e-07
5.68738e-08
-2.51327e-07
-1.65132e-07
7.49078e-06
3.98279e-07
-2.02587e-07
-2.01048e-08
7.49392e-06
-1.16807e-07
-7.66739e-08
7.22637e-06
-2.76618e-09
-1.30874e-07
7.09857e-06
7.33253e-08
-7.65162e-08
6.27154e-06
1.13103e-07
-3.61553e-08
5.20757e-06
-1.05321e-08
4.18938e-06
1.27791e-07
-1.1179e-07
-1.51575e-08
4.96547e-06
3.49205e-07
-1.12146e-07
4.8615e-08
4.73183e-06
-6.14291e-08
3.95006e-08
4.78776e-06
4.80072e-08
-4.72241e-09
6.82648e-06
1.24358e-07
2.69804e-08
7.05013e-06
1.5385e-07
4.5742e-08
5.94665e-06
5.01907e-08
4.75612e-06
1.59618e-07
-6.67438e-08
-1.80501e-08
4.80456e-06
1.61457e-07
-1.20397e-07
6.88794e-09
5.42287e-06
-5.5915e-08
3.67759e-08
4.54904e-06
3.52472e-08
3.1078e-08
5.31667e-06
1.51191e-07
1.31637e-07
7.28484e-06
1.81094e-07
1.43899e-07
6.51177e-06
1.22213e-07
5.18254e-06
1.84503e-07
-1.53288e-07
7.02081e-08
5.21786e-06
1.49302e-07
-1.70626e-07
-3.04587e-08
9.04988e-06
-1.55085e-07
-5.68358e-08
8.02512e-06
-6.41449e-08
6.57623e-08
5.10142e-06
1.21467e-07
1.72798e-07
7.49885e-06
1.79133e-07
2.13428e-07
6.79734e-06
1.81146e-07
5.40729e-06
1.93077e-07
-1.70666e-07
1.33366e-07
4.88427e-06
2.39524e-07
-7.33856e-08
5.00006e-08
4.95906e-06
-5.17404e-08
5.87177e-08
4.61592e-06
9.17039e-08
2.31153e-07
5.17211e-06
1.90467e-07
3.17964e-07
7.37784e-06
2.05505e-07
3.0908e-07
6.75291e-06
2.41268e-07
5.40353e-06
2.05247e-07
-1.45337e-07
5.54954e-06
3.80265e-07
4.64186e-07
-4.48078e-08
4.85537e-06
4.10896e-07
-2.43989e-09
5.10505e-06
4.12616e-07
1.22148e-07
6.69018e-06
5.32343e-07
1.79259e-07
7.35813e-06
4.57113e-07
1.95029e-07
6.41105e-06
3.68072e-07
5.17835e-06
2.0605e-07
2.66974e-07
-2.69661e-07
-2.31985e-07
6.85871e-06
3.27034e-07
2.2509e-07
-1.87051e-07
-2.28924e-07
6.87303e-06
2.22681e-07
-9.09706e-08
-2.20649e-07
6.55003e-06
2.13137e-07
-8.49822e-09
-1.69687e-07
5.95612e-06
1.7325e-07
4.82432e-08
-1.11278e-07
5.18942e-06
1.24995e-07
8.32422e-08
-7.01393e-08
4.35463e-06
8.56721e-08
-4.1962e-08
3.51806e-06
1.01017e-07
5.33266e-08
-2.87455e-07
-1.83703e-07
7.63672e-06
4.08072e-07
-1.8628e-07
-1.21328e-07
7.71675e-06
-8.46436e-08
-1.45147e-07
7.30536e-06
1.1167e-08
-1.35055e-07
7.02735e-06
7.12678e-08
-6.96467e-08
6.17211e-06
1.04114e-07
-2.96492e-08
5.13373e-06
-8.91173e-09
4.14205e-06
1.18128e-07
-1.41214e-07
-6.42346e-08
6.11414e-06
4.27481e-07
-7.08006e-08
7.14815e-09
4.65856e-06
-1.81475e-08
-5.79324e-09
5.496e-06
7.99632e-08
-1.72777e-08
7.16897e-06
1.23271e-07
2.53337e-08
6.98403e-06
1.40875e-07
4.77959e-08
5.85157e-06
4.87492e-08
4.69358e-06
1.45594e-07
-1.03445e-07
-4.76253e-09
4.83114e-06
3.48198e-07
-1.29352e-08
2.66384e-08
5.03417e-06
-6.01492e-09
3.62102e-08
4.56723e-06
1.09893e-07
7.64084e-08
6.06425e-06
1.63929e-07
1.4758e-07
7.3398e-06
1.69471e-07
1.50061e-07
6.40383e-06
1.21147e-07
5.1118e-06
1.67687e-07
3.90034e-08
5.13234e-08
4.88953e-06
1.67281e-07
-4.84678e-08
-6.20278e-09
9.31856e-06
-5.43493e-08
3.2459e-08
5.09276e-06
3.12878e-08
9.8811e-08
5.54751e-06
1.40251e-07
2.26789e-07
7.64845e-06
1.63878e-07
2.31584e-07
6.69213e-06
1.82383e-07
5.33832e-06
1.71481e-07
-7.01934e-08
2.36532e-07
5.33464e-06
4.08291e-07
-1.13937e-08
5.31812e-08
4.86855e-06
-2.11327e-08
1.60924e-07
4.51467e-06
9.41586e-08
3.23585e-07
6.43916e-06
1.48856e-07
3.39249e-07
7.49205e-06
1.60743e-07
3.09383e-07
6.66303e-06
2.32508e-07
5.34498e-06
1.69183e-07
-1.35779e-07
7.1123e-06
3.89858e-07
4.68031e-07
-7.97603e-08
6.49902e-06
4.67749e-07
-2.08241e-08
6.35975e-06
5.13827e-07
5.32034e-08
7.1543e-06
5.09699e-07
1.02405e-07
7.35477e-06
4.19847e-07
1.34628e-07
6.34855e-06
3.39607e-07
5.13841e-06
1.65686e-07
2.4153e-07
-2.68695e-07
-1.79887e-08
6.78509e-06
2.74274e-07
8.61458e-08
-2.12097e-07
-4.73221e-08
6.77691e-06
8.65924e-08
-1.31695e-07
-6.42152e-08
6.44243e-06
9.14567e-08
-6.01909e-08
-4.1908e-08
5.85109e-06
7.5635e-08
-1.74819e-09
-2.7866e-08
5.10039e-06
5.8368e-08
4.14323e-08
-2.01525e-08
4.28842e-06
4.32931e-08
-1.3807e-08
3.47711e-06
6.79684e-08
2.79262e-08
-3.30524e-07
3.54836e-08
7.56356e-06
3.4779e-07
-2.52374e-07
1.26212e-10
7.65209e-06
-1.62747e-07
-2.60117e-08
7.18405e-06
-8.17371e-08
7.36459e-09
6.89482e-06
-1.1188e-08
2.05969e-08
6.05291e-06
4.03358e-08
2.03432e-08
5.04192e-06
1.65282e-08
4.08033e-06
7.15314e-08
-2.33829e-07
3.13242e-08
6.22043e-06
3.94486e-07
-1.22659e-07
3.98988e-08
4.77724e-06
-9.25042e-08
3.50653e-09
5.53193e-06
-5.86664e-08
5.21276e-08
7.0359e-06
1.04645e-09
9.53666e-08
6.84587e-06
5.10333e-08
8.41026e-08
5.7377e-06
6.41432e-08
4.61445e-06
8.2491e-08
-1.90606e-07
5.71076e-08
5.22393e-06
4.69428e-07
-1.27829e-07
5.79345e-08
5.02425e-06
-3.25371e-08
6.17846e-08
4.4687e-06
-2.39148e-08
1.16715e-07
6.00844e-06
1.8209e-08
1.90148e-07
7.20262e-06
6.11346e-08
1.66709e-07
6.27828e-06
1.22148e-07
5.02293e-06
9.18266e-08
-3.38306e-07
1.98536e-07
7.25812e-06
6.10692e-07
-1.63221e-07
1.93093e-07
5.3574e-06
-8.39184e-08
1.96049e-07
4.89673e-06
-5.43265e-08
2.00468e-07
5.41752e-06
-1.02263e-08
2.62733e-07
7.52578e-06
4.77885e-08
2.31393e-07
6.56933e-06
1.69534e-07
5.24972e-06
8.91218e-08
-1.81698e-07
3.41272e-07
7.60041e-06
6.47679e-07
-1.06417e-07
2.18693e-07
4.78506e-06
-8.31107e-08
2.43732e-07
4.44671e-06
-8.14769e-08
3.3162e-07
6.49152e-06
-4.09374e-08
3.01117e-07
7.37578e-06
2.90651e-08
2.69545e-07
6.55496e-06
1.96073e-07
5.26539e-06
8.23394e-08
-2.56094e-07
7.12595e-06
3.4513e-07
2.72575e-07
-1.94397e-07
6.73062e-06
3.6967e-07
-1.54522e-07
6.21682e-06
3.6813e-07
-1.55209e-07
7.03078e-06
3.19027e-07
-7.69268e-08
7.26423e-06
3.03232e-07
1.52695e-08
6.26219e-06
2.63841e-07
5.07554e-06
8.91458e-08
1.85018e-07
-2.30974e-07
8.08058e-08
6.69281e-06
2.13112e-07
2.93086e-08
-2.00665e-07
6.57207e-08
6.66581e-06
1.48707e-08
-1.43032e-07
4.03843e-08
6.32266e-06
2.19111e-08
-8.11688e-08
2.76399e-08
5.73683e-06
2.47136e-08
-2.26181e-08
1.19704e-08
5.00363e-06
2.62787e-08
2.3928e-08
7.11587e-10
4.21689e-06
2.44727e-08
-4.05649e-09
3.43371e-06
5.32871e-08
1.7935e-08
-3.16422e-07
1.38986e-07
7.32628e-06
2.8345e-07
-2.71278e-07
9.08715e-08
7.46309e-06
-2.09189e-07
7.22904e-08
6.98797e-06
-1.30753e-07
7.95724e-08
6.7439e-06
-5.08628e-08
6.2369e-08
5.92197e-06
1.14994e-08
3.8831e-08
4.94163e-06
2.26005e-08
4.01457e-06
5.04972e-08
-2.8995e-07
1.02706e-07
5.58654e-06
3.13817e-07
-1.58723e-07
6.71732e-08
4.68797e-06
-1.50391e-07
3.55206e-08
5.17932e-06
-1.37471e-07
9.4099e-08
6.73615e-06
-6.45043e-08
1.24403e-07
6.68719e-06
7.39686e-09
9.03829e-08
5.61406e-06
6.06306e-08
4.53069e-06
5.30524e-08
-3.64955e-07
2.5708e-07
4.76037e-06
4.6107e-07
-2.20009e-07
1.22791e-07
4.79495e-06
-6.43208e-08
8.20716e-08
5.6638e-06
-1.13879e-07
1.30961e-07
5.59246e-06
-7.2059e-08
1.91684e-07
7.00217e-06
4.5083e-09
1.51214e-07
6.14088e-06
1.04221e-07
4.9284e-06
5.54571e-08
-7.55473e-07
3.30399e-07
7.08038e-06
6.45593e-07
-3.4196e-07
2.84688e-07
7.39866e-06
-5.55923e-08
2.45945e-07
6.33035e-06
-1.45499e-07
2.15312e-07
5.29483e-06
-1.04259e-07
2.29368e-07
7.2948e-06
-9.88518e-09
1.94968e-07
6.43114e-06
1.37877e-07
5.15388e-06
5.24926e-08
-5.87535e-07
2.04216e-07
7.26199e-06
5.40651e-07
-2.55017e-07
2.83432e-07
4.95039e-06
-1.74967e-07
2.24745e-07
4.38592e-06
-1.75782e-07
2.29526e-07
5.82667e-06
-1.3195e-07
2.32002e-07
7.14453e-06
-2.20848e-08
2.11978e-07
6.42824e-06
1.52775e-07
5.17749e-06
5.09904e-08
-3.46243e-07
5.82453e-06
2.60734e-07
1.00215e-07
-2.71339e-07
5.86563e-06
1.77051e-07
-2.10444e-07
5.08742e-06
1.92643e-07
-2.3281e-07
6.35097e-06
1.82433e-07
-1.37133e-07
7.08122e-06
2.11965e-07
-1.90199e-08
6.15613e-06
1.99915e-07
5.004e-06
6.62951e-08
1.38707e-07
-1.61153e-07
-1.28002e-08
6.60942e-06
1.68394e-07
8.89875e-08
-1.43932e-07
2.67527e-08
6.56555e-06
5.59594e-08
-9.99108e-08
8.96895e-09
6.2167e-06
5.29713e-08
-4.60755e-08
-5.78487e-09
5.63781e-06
5.07991e-08
5.0982e-09
-1.53922e-08
4.92153e-06
4.62476e-08
4.39217e-08
-2.00701e-08
4.15855e-06
3.9591e-08
-2.05461e-08
3.40071e-06
6.68566e-08
3.07092e-08
-2.0811e-07
5.43629e-08
7.14424e-06
2.22802e-07
-2.04428e-07
9.21885e-08
7.21946e-06
-1.60585e-07
5.9844e-08
6.80838e-06
-8.81482e-08
4.68108e-08
6.60551e-06
-1.6221e-08
2.81798e-08
5.80553e-06
3.72484e-08
1.15314e-08
4.85652e-06
1.89115e-09
3.96157e-06
6.77449e-08
-2.09823e-07
4.13095e-08
4.73449e-06
2.07873e-07
-1.08029e-07
4.08761e-08
4.47114e-06
-1.23523e-07
6.10803e-08
4.87962e-06
-1.00285e-07
6.76758e-08
6.54036e-06
-2.4433e-08
8.12792e-08
6.54207e-06
3.8272e-08
5.59106e-08
5.50675e-06
3.49934e-08
4.46159e-06
7.4218e-08
-1.90858e-07
2.21451e-07
4.24416e-06
2.50673e-07
-1.04362e-07
1.85588e-07
6.6124e-06
-7.90809e-08
5.26664e-08
4.5034e-06
-9.09581e-08
7.19135e-08
5.35052e-06
-3.18762e-08
1.30849e-07
6.81989e-06
3.94624e-08
1.05275e-07
6.02013e-06
7.26631e-08
4.8498e-06
8.04903e-08
-2.89279e-07
2.30183e-07
4.85642e-06
2.97792e-07
-2.97953e-07
1.29413e-07
7.60521e-06
-1.02514e-07
1.40871e-07
6.85117e-06
-1.29063e-07
1.24668e-07
5.18557e-06
-5.63614e-08
1.44461e-07
7.1107e-06
3.31994e-08
1.3868e-07
6.30827e-06
1.02516e-07
5.07402e-06
8.31914e-08
-4.37281e-07
1.02043e-07
4.3851e-06
2.5378e-07
-2.25347e-07
1.20792e-07
5.01833e-06
-1.11826e-07
1.00784e-07
4.31006e-06
-1.10597e-07
1.11676e-07
5.24526e-06
-4.87961e-08
1.66256e-07
6.97723e-06
3.71269e-08
1.65688e-07
6.31527e-06
1.22885e-07
5.10525e-06
8.87999e-08
-2.02239e-07
4.79825e-06
1.83443e-07
1.16955e-07
-1.52412e-07
4.43314e-06
1.19086e-07
-1.13674e-07
4.52572e-06
1.25058e-07
-1.18377e-07
6.16141e-06
1.71452e-07
-3.65234e-08
6.93685e-06
1.91112e-07
4.51198e-08
6.06394e-06
1.75995e-07
4.94761e-06
1.03157e-07
1.21043e-07
-1.2141e-07
-1.41138e-07
6.55213e-06
1.58572e-07
1.6123e-07
-8.97647e-08
-9.20216e-08
6.49366e-06
1.32484e-07
-4.49838e-08
-8.53877e-08
6.1394e-06
1.17862e-07
2.00447e-09
-7.36264e-08
5.56531e-06
9.89974e-08
4.2927e-08
-6.07454e-08
4.86209e-06
7.92522e-08
7.10796e-08
-4.97897e-08
4.11768e-06
6.23616e-08
-4.09735e-08
3.37995e-06
8.55468e-08
4.76076e-08
-1.26841e-07
-8.43691e-08
7.0675e-06
1.97149e-07
-1.12785e-07
2.45912e-09
7.11412e-06
-7.46306e-08
-1.44981e-08
6.70624e-06
-1.38733e-08
-3.09925e-08
6.51299e-06
4.01506e-08
-2.77211e-08
5.71889e-06
7.56939e-08
-2.35417e-08
4.79465e-06
-2.10465e-08
3.92462e-06
9.30826e-08
-6.99547e-08
-8.26323e-09
4.72063e-06
1.67045e-07
-5.06845e-08
2.62977e-08
4.27409e-06
-5.31937e-08
2.47635e-08
4.82411e-06
-7.57671e-09
1.98803e-08
6.46319e-06
5.19258e-08
2.39674e-08
6.44498e-06
8.94853e-08
1.8608e-08
5.42715e-06
1.16585e-08
4.41161e-06
1.06838e-07
-2.9306e-08
-1.98061e-08
4.25591e-06
8.39795e-08
-6.00184e-08
-2.49523e-08
5.80617e-06
-3.61034e-08
4.10699e-08
3.90044e-06
-8.37155e-09
2.70162e-08
5.31961e-06
6.26168e-08
7.19138e-08
6.70328e-06
1.01694e-07
6.95413e-08
5.93014e-06
5.12766e-08
4.79237e-06
1.19659e-07
-8.0819e-08
5.0735e-08
4.82296e-06
8.89155e-08
-8.18531e-08
1.45695e-08
7.70892e-06
-5.40982e-08
-3.7419e-08
7.04429e-06
-2.97516e-08
4.13976e-08
5.09186e-06
5.48188e-08
1.0109e-07
7.03704e-06
1.02669e-07
1.12216e-07
6.21782e-06
8.6262e-08
5.01602e-06
1.25526e-07
-8.8206e-08
8.8988e-08
4.39854e-06
1.37112e-07
-3.75637e-08
9.57539e-09
4.69244e-06
-2.38486e-08
6.71537e-09
4.24943e-06
-1.44984e-09
8.8965e-08
5.21626e-06
6.8103e-08
1.53174e-07
6.91572e-06
1.07293e-07
1.54977e-07
6.23314e-06
1.15152e-07
5.05372e-06
1.29624e-07
-4.61726e-08
4.8591e-06
1.71217e-07
2.39882e-07
-2.48274e-08
4.54705e-06
1.96247e-07
-2.04017e-08
4.60234e-06
1.71038e-07
6.37393e-09
6.28479e-06
2.15652e-07
6.26346e-08
6.86662e-06
2.08009e-07
1.02973e-07
5.99974e-06
1.78654e-07
4.90914e-06
1.35154e-07
1.2145e-07
-1.2277e-07
-1.29561e-07
6.50103e-06
1.56912e-07
1.4652e-07
-8.36652e-08
-1.05799e-07
6.42925e-06
1.31736e-07
-3.41676e-08
-1.03162e-07
6.07049e-06
1.22642e-07
1.20376e-08
-8.33371e-08
5.50021e-06
1.02332e-07
4.9511e-08
-6.62153e-08
4.80875e-06
8.20674e-08
7.43631e-08
-5.37724e-08
4.08124e-06
6.51633e-08
-4.46375e-08
3.36223e-06
8.61458e-08
5.07651e-08
-1.25783e-07
-9.11999e-08
7.05282e-06
1.92059e-07
-9.67313e-08
-2.9989e-08
7.04759e-06
-5.14576e-08
-5.04572e-08
6.6489e-06
5.24881e-09
-4.96272e-08
6.44129e-06
5.12136e-08
-3.56638e-08
5.64276e-06
8.10772e-08
-2.80952e-08
4.73903e-06
-2.53216e-08
3.89165e-06
9.49501e-08
-4.31172e-08
-4.46439e-08
5.02189e-06
1.71714e-07
-3.81497e-08
1.35336e-08
4.18807e-06
-1.93141e-08
2.04535e-09
4.94628e-06
2.59768e-08
6.48162e-09
6.4411e-06
6.86688e-08
1.79421e-08
6.37153e-06
9.68e-08
1.53397e-08
5.35577e-06
7.71191e-09
4.36616e-06
1.09312e-07
2.93241e-09
-6.65865e-08
4.21718e-06
1.1979e-07
-4.70244e-09
-2.79556e-08
4.63006e-06
-1.55165e-09
1.21336e-08
3.91394e-06
3.68658e-08
4.58181e-08
5.36226e-06
8.36803e-08
7.74532e-08
6.6381e-06
1.09443e-07
7.02482e-08
5.84946e-06
4.85837e-08
4.73947e-06
1.21488e-07
9.56917e-08
-5.8006e-09
4.80609e-06
2.6854e-08
3.11002e-10
-4.75163e-08
7.96068e-06
-3.49179e-08
-1.61016e-08
4.56984e-06
-1.04591e-08
2.94103e-08
5.00962e-06
6.44565e-08
1.05424e-07
6.98751e-06
1.03964e-07
1.12262e-07
6.13632e-06
8.30485e-08
4.96187e-06
1.23478e-07
6.9521e-09
7.97333e-08
4.66766e-06
1.6302e-07
4.6801e-08
-4.52782e-09
4.54279e-06
2.09478e-09
5.55084e-08
4.18847e-06
2.70136e-08
1.21533e-07
5.36067e-06
7.03855e-08
1.6036e-07
6.8944e-06
1.01232e-07
1.54151e-07
6.1602e-06
1.10653e-07
5.00496e-06
1.22272e-07
-5.9752e-09
5.80746e-06
1.45736e-07
1.91339e-07
-1.9961e-08
5.16167e-06
1.95187e-07
-1.52505e-08
5.0999e-06
2.00439e-07
-1.57048e-09
6.3563e-06
2.1743e-07
4.49387e-08
6.83717e-06
2.00366e-07
8.72238e-08
5.94187e-06
1.69689e-07
4.87127e-06
1.22943e-07
1.12934e-07
-1.38966e-07
-2.83798e-08
6.4313e-06
1.48768e-07
8.83876e-08
-1.03234e-07
-3.91894e-08
6.3469e-06
8.59084e-08
-4.90732e-08
-6.03886e-08
5.9859e-06
9.09076e-08
8.15518e-10
-5.49406e-08
5.42312e-06
8.23239e-08
4.07781e-08
-5.16526e-08
4.74851e-06
7.19443e-08
6.73095e-08
-4.80648e-08
4.04166e-06
6.10437e-08
-4.37077e-08
3.34343e-06
7.94863e-08
5.00029e-08
-1.75064e-07
2.83218e-08
6.97073e-06
1.92123e-07
-1.40902e-07
1.91421e-08
6.92544e-06
-8.26749e-08
-1.14857e-08
6.54773e-06
-1.80325e-08
-1.17452e-08
6.34347e-06
3.56582e-08
-1.67185e-08
5.55386e-06
7.10428e-08
-2.16253e-08
4.67724e-06
-2.53237e-08
3.85625e-06
8.77819e-08
-1.18053e-07
2.5656e-08
4.93703e-06
1.80158e-07
-6.78096e-08
3.15895e-08
4.06662e-06
-5.22913e-08
3.95243e-09
4.84814e-06
-1.38712e-08
3.04225e-08
6.32103e-06
4.34387e-08
3.87784e-08
6.27002e-06
8.18457e-08
2.1497e-08
5.27411e-06
6.06699e-09
4.31626e-06
1.00256e-07
-1.32902e-07
3.26844e-08
4.19181e-06
1.79961e-07
-5.27862e-08
3.40566e-08
4.5939e-06
-1.33816e-08
2.1974e-08
3.8881e-06
-8.83847e-09
6.79055e-08
5.23818e-06
5.00238e-08
9.9931e-08
6.5266e-06
8.98047e-08
7.58817e-08
5.75524e-06
4.50729e-08
4.68007e-06
1.09916e-07
-2.03514e-07
7.25969e-08
6.64015e-06
3.83099e-07
-9.25248e-08
6.34786e-08
5.52619e-06
-8.95614e-08
8.4753e-08
4.52722e-06
-4.75104e-08
8.5318e-08
4.77372e-06
2.31666e-08
1.30826e-07
6.8616e-06
7.9548e-08
1.1659e-07
6.03897e-06
7.75685e-08
4.89996e-06
1.08876e-07
-9.86582e-08
1.19182e-07
5.93272e-06
3.71745e-07
-5.47705e-08
1.04897e-07
4.52976e-06
-2.32815e-08
1.50085e-07
4.15203e-06
-5.14307e-08
1.38954e-07
5.24747e-06
5.34951e-09
1.58972e-07
6.78711e-06
6.68358e-08
1.44682e-07
6.07058e-06
9.8712e-08
4.94759e-06
1.03149e-07
-9.13286e-08
5.89894e-06
1.68806e-07
8.51714e-08
-9.0253e-08
5.08754e-06
1.47985e-07
-8.64539e-08
4.95953e-06
1.52391e-07
-9.52963e-08
6.17241e-06
1.58137e-07
-2.01462e-08
6.74863e-06
1.66061e-07
5.27519e-08
5.86746e-06
1.46267e-07
4.82457e-06
1.0339e-07
9.47965e-08
-1.27925e-07
-6.08848e-08
6.36067e-06
1.41258e-07
1.18199e-07
-8.37522e-08
-8.07875e-08
6.26372e-06
1.19643e-07
-2.44794e-08
-9.86165e-08
5.90284e-06
1.22548e-07
2.57567e-08
-8.98349e-08
5.35213e-06
1.1065e-07
6.19609e-08
-8.10004e-08
4.6977e-06
9.56811e-08
8.32022e-08
-7.13785e-08
4.01208e-06
7.989e-08
-6.11887e-08
3.33332e-06
8.96741e-08
6.44401e-08
-1.92256e-07
2.1912e-08
6.77302e-06
2.06767e-07
-1.36403e-07
-8.73794e-09
6.73314e-06
-6.03176e-08
-4.49258e-08
6.43142e-06
1.31679e-08
-4.93377e-08
6.24167e-06
6.52833e-08
-5.05002e-08
5.47085e-06
9.4855e-08
-4.91446e-08
4.62554e-06
-4.6038e-08
3.83079e-06
1.04878e-07
-1.73877e-07
5.41803e-08
4.23168e-06
2.16673e-07
-7.86838e-08
1.15586e-08
3.94088e-06
-4.13281e-08
-1.76516e-08
4.53819e-06
2.24435e-08
9.1573e-09
6.12686e-06
8.20214e-08
7.69059e-09
6.16784e-06
1.13627e-07
-7.76725e-09
5.20082e-06
-1.71115e-08
4.27681e-06
1.23835e-07
-2.62343e-07
1.42816e-07
4.15289e-06
2.49267e-07
-8.33644e-08
5.34231e-08
4.40136e-06
-7.87673e-09
1.67866e-08
3.79293e-06
3.32283e-08
6.21274e-08
4.91585e-06
1.00526e-07
8.03902e-08
6.40648e-06
1.30611e-07
5.07703e-08
5.66651e-06
2.29752e-08
4.63082e-06
1.3964e-07
-6.20398e-07
2.54661e-07
5.20006e-06
5.59204e-07
-1.7115e-07
2.14223e-07
8.07616e-06
-6.65632e-08
1.61356e-07
4.30583e-06
-4.92503e-09
1.12311e-07
4.59916e-06
8.30192e-08
1.28118e-07
6.6559e-06
1.27209e-07
9.97897e-08
5.94554e-06
5.94047e-08
4.84778e-06
1.43086e-07
-3.27456e-07
1.47172e-07
5.78999e-06
5.29851e-07
-1.64032e-07
1.61635e-07
4.46041e-06
-6.37224e-08
1.70318e-07
4.06998e-06
-2.70416e-08
1.43211e-07
4.64299e-06
6.05032e-08
1.56466e-07
6.64079e-06
1.14833e-07
1.32284e-07
5.98381e-06
8.41709e-08
4.89947e-06
1.3838e-07
-2.23879e-07
5.05616e-06
2.47718e-07
9.66375e-08
-1.2317e-07
4.1435e-06
1.5089e-07
-7.73993e-08
4.05399e-06
1.5917e-07
-5.9335e-08
5.65797e-06
1.65947e-07
3.52517e-08
6.63845e-06
1.68216e-07
9.949e-08
5.79601e-06
1.39621e-07
4.78692e-06
1.34357e-07
8.69485e-08
-7.81727e-08
-2.24283e-07
6.31844e-06
1.26627e-07
2.18063e-07
-2.54784e-08
-2.11443e-07
6.21028e-06
2.11864e-07
3.46789e-08
-2.11058e-07
5.85169e-06
2.02119e-07
7.80227e-08
-1.77181e-07
5.31382e-06
1.72119e-07
1.02205e-07
-1.40477e-07
4.6755e-06
1.38626e-07
1.11235e-07
-1.1078e-07
4.00483e-06
1.09179e-07
-8.7026e-08
3.33893e-06
1.07557e-07
8.49574e-08
-1.25154e-07
-1.27425e-07
6.68613e-06
2.03284e-07
-6.67057e-08
-6.19638e-08
6.63023e-06
2.84771e-08
-1.57818e-07
6.3946e-06
9.68544e-08
-1.58694e-07
6.1809e-06
1.29034e-07
-1.2501e-07
5.4229e-06
1.38388e-07
-9.70539e-08
4.60249e-06
-7.63065e-08
3.82605e-06
1.32615e-07
-1.40349e-07
-2.06999e-09
4.00573e-06
2.24148e-07
-6.12354e-08
-3.2695e-08
3.84011e-06
3.57242e-08
-3.56753e-08
4.47068e-06
1.43107e-07
-6.94293e-08
6.04285e-06
1.73756e-07
-7.03672e-08
6.11043e-06
1.74881e-07
-5.8519e-08
5.16091e-06
-4.95961e-08
4.26227e-06
1.62504e-07
-2.83721e-07
1.13597e-07
4.0963e-06
2.54657e-07
-5.53282e-08
1.56264e-07
6.17059e-06
1.56725e-08
3.77988e-08
3.67992e-06
1.69072e-07
1.64652e-08
4.84742e-06
2.16136e-07
2.12137e-08
6.3735e-06
2.08175e-07
3.77031e-09
5.61204e-06
-8.24911e-09
4.60881e-06
1.88753e-07
-2.66537e-07
2.0212e-07
4.44754e-06
3.59937e-07
-2.28458e-07
1.69229e-07
8.06679e-06
-2.09265e-09
1.06368e-07
7.04577e-06
6.52723e-08
7.77358e-08
4.44986e-06
2.12995e-07
7.4811e-08
6.54154e-06
2.17043e-07
6.08345e-08
5.88459e-06
3.29272e-08
4.82314e-06
2.00573e-07
-3.21941e-07
1.74115e-07
4.28654e-06
3.74631e-07
-1.34866e-07
1.64929e-07
4.38789e-06