/*--------------------------------*- C++ -*----------------------------------*\
| =========                 |                                                 |
| \\      /  F ield         | OpenFOAM: The Open Source CFD Toolbox           |
|  \\    /   O peration     | Version:  plus.master.MPPICInterFoam            |
|   \\  /    A nd           | Web:      www.OpenFOAM.com                      |
|    \\/     M anipulation  |                                                 |
\*---------------------------------------------------------------------------*/
FoamFile
{
    version     2.0;
    format      ascii;
    class       volScalarField;
    location    "11.8";
    object      epsilon;
}
// * * * * * * * * * * * * * * * * * * * * * * * * * * * * * * * * * * * * * //

dimensions      [0 2 -3 0 0 0 0];

internalField   nonuniform List<scalar> 
11821
(
0.419046
0.575872
0.392942
0.658353
0.478652
0.336596
0.487184
0.543327
0.542171
0.488692
0.408874
0.325432
0.249454
0.697932
0.791388
0.786297
0.687105
0.551866
0.421981
0.313753
0.856287
0.911288
0.941429
0.883623
0.706954
0.520914
0.373933
0.837589
0.692402
0.816026
0.971834
0.829736
0.596051
0.415734
0.759651
0.697897
0.707606
0.93887
0.854927
0.612922
0.424604
0.847128
0.758168
0.831247
0.901632
0.78958
0.568072
0.398403
0.806217
0.831187
0.843756
0.790627
0.639118
0.477006
0.344289
0.478261
0.532274
0.53249
0.483888
0.410683
0.332011
0.25789
0.673261
0.7776
0.772436
0.673239
0.545778
0.424453
0.320709
0.876101
0.977715
1.00718
0.897728
0.694356
0.516813
0.37792
0.898754
0.850075
0.974559
1.05422
0.818445
0.586059
0.417119
0.857204
0.654019
0.826538
1.05706
0.847188
0.601726
0.425488
0.880671
0.852787
0.92113
0.965381
0.764809
0.5576
0.400376
0.778644
0.888465
0.886995
0.78062
0.624206
0.474555
0.349256
0.474145
0.52331
0.523201
0.479075
0.411077
0.33575
0.263168
0.655176
0.750203
0.745659
0.654794
0.538464
0.424718
0.324627
0.839697
0.985388
1.0073
0.865969
0.675796
0.511648
0.37969
0.928384
0.896996
1.00936
1.04469
0.791222
0.575922
0.416989
0.919386
0.75714
0.896046
1.06234
0.820247
0.591931
0.425506
0.872771
0.885731
0.9365
0.937546
0.744363
0.552111
0.402138
0.746688
0.841988
0.848745
0.761304
0.617269
0.47521
0.353073
0.474942
0.519306
0.518151
0.476748
0.411406
0.337925
0.266582
0.650689
0.725657
0.718304
0.641131
0.533736
0.424456
0.326781
0.809867
0.864704
0.894333
0.818507
0.661193
0.507953
0.380346
0.824643
0.769217
0.872763
0.926001
0.761192
0.568642
0.416412
0.81122
0.729267
0.788721
0.919179
0.789615
0.585123
0.424964
0.808557
0.793999
0.840414
0.89031
0.731806
0.550826
0.40297
0.724306
0.789426
0.80659
0.744517
0.61871
0.476805
0.354933
0.474032
0.516707
0.515401
0.475168
0.411126
0.338906
0.26882
0.644915
0.708081
0.702803
0.631877
0.529396
0.423138
0.327791
0.745086
0.793813
0.831217
0.788504
0.650246
0.504048
0.380162
0.70955
0.769655
0.834856
0.855779
0.742038
0.562409
0.415245
0.633792
0.687037
0.769613
0.844408
0.766353
0.578304
0.423401
0.664501
0.677843
0.748486
0.815408
0.72236
0.546582
0.402231
0.699004
0.712743
0.736033
0.725965
0.611393
0.474083
0.355215
0.47039
0.513897
0.512315
0.472323
0.409287
0.3385
0.269577
0.637022
0.702719
0.695115
0.623841
0.523805
0.420549
0.327332
0.746923
0.810936
0.837902
0.77777
0.640205
0.499024
0.378543
0.719395
0.728636
0.802985
0.860144
0.730389
0.555855
0.412894
0.636615
0.650618
0.770314
0.831619
0.753341
0.570871
0.420814
0.687889
0.656643
0.750574
0.803287
0.707479
0.539098
0.399883
0.68657
0.704629
0.730418
0.708046
0.598142
0.468398
0.353966
0.463536
0.507359
0.505845
0.466504
0.40478
0.335437
0.267885
0.62431
0.695993
0.686923
0.615379
0.51659
0.415382
0.324165
0.758275
0.828537
0.85904
0.776396
0.631241
0.491827
0.373992
0.746733
0.722552
0.863923
0.887618
0.721527
0.547245
0.407518
0.663613
0.682609
0.738503
0.892302
0.747257
0.562221
0.415468
0.694849
0.691294
0.797086
0.830647
0.695076
0.530051
0.394989
0.680771
0.725689
0.753795
0.704513
0.587806
0.461793
0.350553
0.45577
0.49772
0.495458
0.456796
0.39694
0.329714
0.264121
0.611372
0.682582
0.672866
0.6014
0.504963
0.406879
0.318445
0.750845
0.837203
0.864189
0.762557
0.616421
0.480501
0.366403
0.75446
0.783521
0.90224
0.88996
0.706055
0.534341
0.398886
0.722179
0.635798
0.811062
0.898887
0.733381
0.549882
0.407057
0.717857
0.723104
0.816224
0.836264
0.681769
0.519326
0.387704
0.658783
0.733555
0.748527
0.695434
0.577509
0.453894
0.345127
0.448009
0.486457
0.482796
0.445279
0.387613
0.322794
0.259501
0.600159
0.662429
0.649555
0.581856
0.490401
0.396606
0.311681
0.733947
0.809252
0.817229
0.730151
0.595269
0.466741
0.357694
0.738977
0.742016
0.871925
0.836413
0.678257
0.517947
0.388944
0.702799
0.651115
0.770888
0.845716
0.704792
0.533511
0.397186
0.679815
0.689695
0.775709
0.806086
0.662377
0.506149
0.379175
0.643029
0.705831
0.727103
0.677899
0.565493
0.444212
0.338497
0.439944
0.475844
0.471388
0.434825
0.378869
0.316084
0.254829
0.586814
0.64129
0.628334
0.564236
0.476983
0.386863
0.305135
0.697682
0.75892
0.774758
0.70126
0.576237
0.454026
0.349558
0.680375
0.740475
0.82653
0.79345
0.65388
0.502982
0.379829
0.617326
0.672292
0.780651
0.801051
0.678997
0.518254
0.388039
0.646677
0.655767
0.740233
0.76374
0.641865
0.492869
0.370999
0.614291
0.65227
0.685737
0.65625
0.550437
0.43379
0.33194
0.432777
0.467724
0.462546
0.426086
0.370944
0.309563
0.249916
0.575948
0.629549
0.614801
0.551472
0.466039
0.378222
0.298693
0.686085
0.743027
0.758291
0.683846
0.562193
0.443503
0.341916
0.675655
0.729103
0.770191
0.776069
0.638047
0.491476
0.371616
0.593132
0.646548
0.76725
0.780237
0.663089
0.50676
0.379905
0.599618
0.631727
0.729378
0.746699
0.62679
0.482134
0.363514
0.602797
0.641647
0.673758
0.64112
0.537815
0.424769
0.325703
0.424727
0.459054
0.453356
0.416748
0.362173
0.302138
0.24427
0.565728
0.620679
0.605129
0.540634
0.455249
0.368807
0.29139
0.684138
0.750559
0.762012
0.675866
0.550647
0.432728
0.333376
0.676534
0.687216
0.803245
0.780562
0.627671
0.480238
0.36249
0.5929
0.631465
0.715437
0.798599
0.655324
0.495967
0.370908
0.605812
0.62443
0.733167
0.749784
0.617089
0.471858
0.355218
0.593177
0.643373
0.678645
0.634751
0.528364
0.415939
0.318735
0.414677
0.447362
0.440867
0.404535
0.35142
0.293649
0.238196
0.553479
0.60756
0.590169
0.525044
0.441042
0.357425
0.283235
0.673423
0.745305
0.753139
0.660337
0.534144
0.418986
0.32346
0.666014
0.711421
0.813655
0.770971
0.61088
0.465339
0.351606
0.624425
0.605243
0.746431
0.791728
0.639961
0.481369
0.360061
0.604429
0.630928
0.734006
0.742141
0.602917
0.458654
0.345342
0.578454
0.636584
0.671125
0.625125
0.516456
0.405104
0.310583
0.402644
0.43233
0.425188
0.390299
0.340133
0.285517
0.232714
0.536892
0.584418
0.565536
0.502807
0.423975
0.345627
0.275589
0.653835
0.716146
0.718277
0.628527
0.510622
0.403345
0.313697
0.643803
0.693236
0.783072
0.731155
0.582538
0.446939
0.340402
0.606356
0.601382
0.6908
0.75498
0.610369
0.462371
0.348631
0.596514
0.60662
0.701378
0.708829
0.578947
0.442112
0.335067
0.566412
0.610686
0.650524
0.604433
0.498963
0.392129
0.30229
0.390031
0.416931
0.41016
0.37784
0.330966
0.279172
0.228407
0.514079
0.55386
0.536747
0.480767
0.409085
0.336154
0.269634
0.61157
0.664237
0.667015
0.591689
0.488137
0.390109
0.305966
0.610478
0.649504
0.716927
0.678014
0.552433
0.430438
0.331267
0.540331
0.622083
0.703019
0.692435
0.576941
0.444796
0.33914
0.535522
0.58397
0.668997
0.663321
0.550828
0.426517
0.326465
0.535276
0.578296
0.608341
0.575458
0.478933
0.380082
0.295384
0.379443
0.405146
0.399514
0.369493
0.324743
0.274487
0.22481
0.493443
0.529862
0.515551
0.466058
0.399504
0.329774
0.265106
0.584663
0.629421
0.629441
0.565815
0.473335
0.381457
0.300431
0.599567
0.657409
0.678399
0.640668
0.531233
0.419354
0.324827
0.536582
0.606079
0.683522
0.654417
0.553011
0.432463
0.332325
0.51971
0.570018
0.649196
0.630444
0.528879
0.415047
0.320103
0.515117
0.555662
0.583496
0.548767
0.462625
0.370981
0.290107
0.045316
0.0631953
0.133479
0.0972804
0.0719587
0.0551731
0.0466516
0.062337
0.28378
0.203383
0.145984
0.105197
0.0767309
0.05784
0.0478973
0.0620703
0.290692
0.209258
0.15082
0.10892
0.0794321
0.0597407
0.0493195
0.0637768
0.274265
0.201435
0.147908
0.108563
0.0803096
0.0612871
0.0517012
0.0705655
0.242961
0.18614
0.141091
0.106335
0.0806412
0.0632261
0.0553664
0.0811565
0.183345
0.142551
0.110469
0.0858709
0.0677113
0.0554483
0.0505027
0.0753991
0.225758
0.168983
0.126869
0.0958423
0.0735262
0.0585657
0.0517274
0.0737309
0.266208
0.195494
0.143772
0.106266
0.0796637
0.0618746
0.0530586
0.0725398
0.294329
0.214456
0.156297
0.11428
0.0845626
0.0646641
0.0543902
0.0721911
0.300788
0.220144
0.161036
0.117982
0.0873134
0.0666826
0.0560066
0.0743431
0.284417
0.212219
0.157983
0.117527
0.088194
0.0683629
0.0586951
0.0819839
0.253652
0.196869
0.150986
0.115162
0.088508
0.0704605
0.0627671
0.0937979
0.192067
0.15093
0.118202
0.0928677
0.074031
0.0613168
0.0566011
0.0860252
0.234141
0.177459
0.134841
0.103067
0.0799764
0.0644242
0.0576258
0.083733
0.273479
0.20363
0.151728
0.113597
0.0862254
0.0677915
0.0589165
0.0822004
0.30049
0.222128
0.164108
0.121626
0.0912201
0.0707022
0.0603502
0.0818036
0.306711
0.227663
0.168753
0.125323
0.0940673
0.072914
0.0622665
0.0846705
0.290865
0.219862
0.165675
0.124858
0.0950395
0.0748184
0.0653519
0.0932784
0.261068
0.204712
0.158635
0.122441
0.0954122
0.0771455
0.0699181
0.106471
0.198383
0.15736
0.124422
0.098702
0.0794472
0.0664646
0.0620676
0.0958426
0.239924
0.18379
0.141147
0.109013
0.0854409
0.0695048
0.0628545
0.0928937
0.278246
0.209538
0.157922
0.11958
0.0917612
0.0729154
0.064112
0.0910669
0.304361
0.22759
0.170126
0.12762
0.0968726
0.0759846
0.0657049
0.0908186
0.310581
0.233009
0.174713
0.131383
0.0998961
0.0784547
0.0679972
0.0946502
0.295469
0.225415
0.171722
0.131028
0.10106
0.0806523
0.071521
0.104264
0.266322
0.210424
0.164684
0.12863
0.101571
0.0832862
0.0766509
0.118967
0.203147
0.162425
0.129471
0.103538
0.0840156
0.0708793
0.0668291
0.104618
0.244086
0.188671
0.146202
0.113892
0.0900051
0.0738278
0.0673933
0.101076
0.281511
0.214021
0.162883
0.124495
0.0963888
0.0772786
0.0686275
0.0990316
0.306862
0.231713
0.175018
0.132617
0.101642
0.0804977
0.0703622
0.0989241
0.312952
0.23708
0.179669
0.136531
0.104883
0.0832501
0.0730565
0.103852
0.298421
0.2298
0.176874
0.136382
0.106309
0.0857802
0.0770329
0.114481
0.269793
0.214974
0.169882
0.134094
0.107055
0.0887847
0.0827471
0.13069
0.206779
0.166332
0.133394
0.107344
0.087685
0.0745146
0.0708463
0.11211
0.24717
0.192394
0.150066
0.117659
0.0936103
0.0773464
0.0711993
0.108026
0.283923
0.217461
0.166659
0.128257
0.100016
0.0808047
0.0723901
0.10574
0.308741
0.234963
0.178788
0.136461
0.105386
0.0841592
0.0742682
0.105831
0.314717
0.240378
0.183576
0.140567
0.10886
0.0871965
0.077371
0.111926
0.300753
0.233411
0.181034
0.14068
0.110579
0.0900657
0.081785
0.123495
0.272607
0.218767
0.174211
0.138634
0.11164
0.0934677
0.0880605
0.141059
0.208657
0.16862
0.135914
0.10999
0.0904127
0.0773711
0.0741324
0.118214
0.248391
0.194313
0.152361
0.120151
0.0962101
0.0800619
0.0742855
0.113696
0.284446
0.218981
0.168737
0.130645
0.102574
0.0834993
0.0754368
0.111225
0.308838
0.236284
0.180797
0.138865
0.108021
0.086979
0.077504
0.111881
0.314824
0.241797
0.185724
0.143137
0.111697
0.0902718
0.0809658
0.11885
0.301246
0.235155
0.18347
0.143523
0.113698
0.0934595
0.0857878
0.131251
0.27373
0.220922
0.176989
0.141798
0.115091
0.0972448
0.0925897
0.15
0.208415
0.169204
0.137091
0.111586
0.0923111
0.0795426
0.0767828
0.123224
0.247138
0.194257
0.153144
0.1215
0.0979329
0.0820709
0.0767323
0.118341
0.282198
0.218279
0.169136
0.131792
0.104203
0.0854687
0.0778516
0.115741
0.306013
0.23522
0.181002
0.139947
0.109688
0.0890723
0.080161
0.117237
0.312064
0.240804
0.186014
0.144337
0.113529
0.0925823
0.0839162
0.124823
0.299022
0.234567
0.184061
0.144979
0.115785
0.0960616
0.0891157
0.137985
0.27247
0.220955
0.177999
0.143575
0.117482
0.100199
0.0964116
0.157826
0.206639
0.168583
0.137314
0.112407
0.0935547
0.081131
0.0788559
0.127342
0.244051
0.192838
0.152893
0.122035
0.0989841
0.0834938
0.0786085
0.122118
0.277831
0.216061
0.168425
0.132086
0.105142
0.0868501
0.0797135
0.119478
0.300883
0.232523
0.180033
0.140147
0.110653
0.090577
0.0822872
0.121943
0.307014
0.238142
0.185095
0.144631
0.114638
0.0942786
0.0862918
0.129998
0.294749
0.232374
0.183446
0.145514
0.117133
0.0980257
0.0918327
0.143853
0.269338
0.219419
0.177783
0.144403
0.119108
0.102488
0.0995811
0.164712
0.204188
0.16733
0.136945
0.112673
0.0942773
0.0822178
0.080394
0.130568
0.240263
0.190797
0.152056
0.122016
0.0995164
0.0844245
0.0799707
0.125043
0.27278
0.213258
0.167154
0.131836
0.105569
0.0877522
0.081103
0.122591
0.295054
0.229266
0.178526
0.139814
0.111104
0.0915922
0.0839199
0.125905
0.301216
0.234916
0.183648
0.144396
0.115224
0.0954637
0.0881403
0.134365
0.289746
0.229605
0.182303
0.145524
0.11795
0.0994549
0.0939805
0.148832
0.265401
0.21723
0.177006
0.144698
0.120195
0.104214
0.102122
0.170582
0.201441
0.165666
0.13612
0.112482
0.094561
0.082883
0.0814883
0.133046
0.236339
0.18841
0.150781
0.121541
0.0996118
0.0849421
0.0809006
0.127176
0.267812
0.210214
0.165481
0.13114
0.105565
0.0882648
0.0821506
0.125422
0.289482
0.225865
0.176659
0.139038
0.111106
0.0921783
0.0851102
0.129089
0.295689
0.231579
0.181858
0.143716
0.115344
0.0961924
0.089512
0.137895
0.284885
0.226697
0.18082
0.145085
0.118282
0.100397
0.0956076
0.152876
0.261451
0.214872
0.175902
0.144554
0.120786
0.105418
0.104076
0.175336
0.198243
0.163536
0.134858
0.111897
0.0945
0.0832573
0.0823743
0.13563
0.232047
0.185558
0.149052
0.120658
0.0993517
0.0851539
0.081573
0.129115
0.26261
0.206725
0.163339
0.130016
0.105189
0.0884505
0.0828894
0.127754
0.283811
0.222041
0.174305
0.137808
0.110706
0.0924006
0.085931
0.131592
0.290097
0.227818
0.17956
0.142551
0.115029
0.0965258
0.0904816
0.140686
0.279867
0.223349
0.178812
0.144132
0.118144
0.100908
0.0967938
0.15609
0.257292
0.212101
0.174289
0.143884
0.120876
0.106152
0.105539
0.179115
0.194482
0.160988
0.133264
0.11103
0.0941808
0.0833798
0.082983
0.137692
0.227062
0.182216
0.146965
0.11949
0.0988444
0.0851441
0.0820592
0.131002
0.256595
0.202655
0.16079
0.128582
0.104546
0.0883835
0.0833587
0.129625
0.277233
0.21755
0.171487
0.136233
0.110016
0.0923461
0.0864527
0.133579
0.283563
0.223333
0.176745
0.141001
0.114393
0.0965564
0.091125
0.142916
0.273936
0.219264
0.176246
0.142749
0.117648
0.101085
0.0976232
0.15869
0.252332
0.208632
0.1721
0.142744
0.120565
0.106514
0.106613
0.182226
0.19056
0.158351
0.131582
0.110044
0.0937083
0.0833121
0.0833465
0.139313
0.221793
0.178781
0.144815
0.118228
0.0982015
0.0849606
0.082322
0.132484
0.250076
0.198429
0.158176
0.127065
0.103773
0.0881392
0.083595
0.131082
0.269955
0.212818
0.168577
0.134568
0.109188
0.0921032
0.0867246
0.135128
0.276245
0.218542
0.1738
0.13934
0.113606
0.0963817
0.0914936
0.144671
0.267275
0.214842
0.173509
0.141227
0.116979
0.101033
0.0981459
0.160776
0.246751
0.204802
0.169687
0.14142
0.120052
0.10662
0.107343
0.184794
0.18708
0.155973
0.129997
0.109039
0.0931382
0.0830939
0.0834934
0.140456
0.21709
0.175724
0.142838
0.116986
0.0974819
0.08464
0.0823824
0.133507
0.244143
0.194677
0.155815
0.125613
0.10294
0.0877611
0.0836262
0.132073
0.263171
0.208587
0.165964
0.132997
0.108311
0.0917215
0.0867771
0.136182
0.269331
0.214229
0.17116
0.137782
0.112769
0.0960559
0.0916191
0.145885
0.260993
0.210851
0.171054
0.139802
0.116255
0.100813
0.0983896
0.162252
0.241516
0.201323
0.167508
0.140175
0.11947
0.106532
0.107739
0.186641
0.184176
0.153849
0.128469
0.107983
0.0924685
0.0827517
0.083472
0.141098
0.213303
0.173096
0.140994
0.115722
0.0966733
0.0842028
0.0822862
0.134049
0.239435
0.191544
0.15368
0.124174
0.102028
0.0872642
0.083495
0.132571
0.257768
0.205105
0.163653
0.131468
0.107356
0.0912109
0.086652
0.136706
0.263779
0.210694
0.16885
0.13628
0.111849
0.0955866
0.091545
0.146505
0.255919
0.207577
0.168918
0.138432
0.115439
0.10043
0.0983981
0.163022
0.237267
0.19846
0.165622
0.138984
0.118793
0.106257
0.107838
0.18756
0.181429
0.151694
0.126834
0.106806
0.0916872
0.0823114
0.0833472
0.141432
0.209953
0.170523
0.139063
0.114338
0.0957538
0.0836694
0.0820909
0.134294
0.235524
0.188606
0.151496
0.122618
0.100997
0.0866658
0.0832648
0.132772
0.253445
0.201943
0.161328
0.129821
0.10627
0.0905883
0.0864205
0.136903
0.259355
0.207521
0.166539
0.13465
0.110784
0.0949912
0.0913495
0.14674
0.251788
0.204613
0.166765
0.136916
0.114459
0.0999036
0.0982678
0.163322
0.233686
0.195827
0.163704
0.13764
0.117937
0.105821
0.107776
0.187842
0.61261
0.478437
0.365001
0.275702
0.208771
0.163673
0.146497
0.233997
0.751101
0.587725
0.435231
0.318933
0.233433
0.175724
0.149796
0.226753
0.792275
0.651477
0.475776
0.341852
0.244512
0.179027
0.147499
0.214309
0.798631
0.629002
0.45668
0.32659
0.232341
0.168936
0.13771
0.196344
0.694692
0.525202
0.384523
0.278049
0.200339
0.147793
0.122227
0.175502
0.527633
0.396919
0.295352
0.218195
0.161284
0.122656
0.104965
0.156076
0.371225
0.286376
0.219163
0.166748
0.127477
0.100926
0.0905746
0.142214
0.591137
0.467991
0.364564
0.280222
0.215399
0.171441
0.155997
0.2519
0.735943
0.564605
0.427817
0.32006
0.238383
0.182603
0.158708
0.24343
0.823336
0.625961
0.464979
0.340911
0.248267
0.185206
0.1559
0.229816
0.80164
0.605781
0.447869
0.326501
0.236364
0.175122
0.145916
0.211333
0.675666
0.511764
0.381809
0.280864
0.20559
0.154346
0.130269
0.190112
0.515916
0.394872
0.298655
0.22363
0.167514
0.129367
0.112709
0.170088
0.371345
0.290533
0.224838
0.172841
0.133696
0.107361
0.0979141
0.155634
0.580033
0.467795
0.368612
0.285679
0.221684
0.178706
0.165273
0.270979
0.710591
0.55471
0.427918
0.323676
0.243681
0.189339
0.167633
0.262016
0.783861
0.608814
0.461338
0.342632
0.252583
0.191463
0.164505
0.24763
0.768839
0.591331
0.444633
0.328185
0.240644
0.181297
0.154252
0.228315
0.657907
0.505792
0.382259
0.284146
0.21057
0.160618
0.138211
0.206039
0.510799
0.39587
0.302118
0.228312
0.173046
0.135628
0.120251
0.184884
0.372944
0.294109
0.229297
0.177904
0.139256
0.11344
0.105116
0.169654
0.58169
0.47674
0.374672
0.290995
0.227426
0.185415
0.173974
0.290457
0.676891
0.562959
0.434856
0.329047
0.249348
0.195971
0.17614
0.281289
0.734713
0.610132
0.46762
0.347638
0.258124
0.19808
0.172899
0.26642
0.740923
0.594298
0.449139
0.332566
0.246022
0.18778
0.162349
0.246022
0.651643
0.509678
0.38606
0.28852
0.215924
0.166844
0.145774
0.222198
0.513859
0.399617
0.30602
0.232941
0.17841
0.141635
0.127393
0.199757
0.375834
0.297487
0.233382
0.182707
0.144617
0.119271
0.111978
0.183684
0.5762
0.475762
0.375485
0.293592
0.231662
0.191065
0.181567
0.307884
0.647978
0.5613
0.435327
0.331531
0.253567
0.201547
0.183427
0.297973
0.665285
0.608116
0.468141
0.350355
0.262622
0.203804
0.180074
0.282474
0.683082
0.587838
0.449139
0.335459
0.250684
0.193501
0.169328
0.261237
0.63736
0.507911
0.38749
0.291938
0.220639
0.172366
0.152381
0.236304
0.512638
0.400763
0.308822
0.236997
0.183291
0.147046
0.133746
0.21308
0.377287
0.300196
0.237156
0.187248
0.149606
0.12459
0.118178
0.196477
0.562595
0.46411
0.370115
0.292871
0.233977
0.195385
0.187929
0.32219
0.639638
0.546599
0.426998
0.329297
0.255129
0.205379
0.189244
0.310802
0.660106
0.592442
0.458483
0.347675
0.264073
0.207517
0.185606
0.294296
0.680236
0.575098
0.442284
0.334283
0.25279
0.197399
0.17478
0.272666
0.627927
0.499782
0.384597
0.292734
0.223522
0.176469
0.157759
0.247451
0.506753
0.398313
0.309473
0.239554
0.186925
0.151398
0.139128
0.224153
0.376545
0.301474
0.239837
0.190754
0.15362
0.129057
0.123579
0.207473
0.54715
0.450386
0.363612
0.291185
0.235286
0.198688
0.193275
0.334345
0.6446
0.526671
0.41619
0.325237
0.255107
0.207884
0.194
0.321545
0.680114
0.570003
0.445405
0.342504
0.263395
0.209578
0.189979
0.303983
0.687688
0.558198
0.432609
0.330602
0.2527
0.199627
0.179091
0.282117
0.618119
0.489232
0.379578
0.291472
0.224591
0.179185
0.162158
0.256935
0.498113
0.393919
0.308348
0.240429
0.189123
0.154649
0.143697
0.233806
0.373745
0.301002
0.240867
0.192803
0.15646
0.132639
0.1283
0.217244
0.534705
0.442444
0.36003
0.290297
0.236261
0.201212
0.197719
0.345324
0.628717
0.514208
0.409416
0.322452
0.254904
0.20973
0.198094
0.332109
0.679888
0.556583
0.436899
0.338503
0.262392
0.210958
0.193811
0.313984
0.676862
0.546601
0.425336
0.327034
0.251869
0.201053
0.18282
0.291768
0.607006
0.480994
0.374944
0.289503
0.224703
0.181076
0.165951
0.266257
0.490478
0.389559
0.306355
0.240198
0.190329
0.157128
0.147685
0.243008
0.369951
0.299215
0.240594
0.193749
0.158444
0.135565
0.132493
0.226477
0.525204
0.440303
0.358537
0.289464
0.236534
0.202836
0.201185
0.355033
0.61225
0.506757
0.407021
0.320837
0.254575
0.211025
0.201466
0.342364
0.657585
0.546922
0.434145
0.336389
0.261683
0.212086
0.197144
0.324309
0.665692
0.540881
0.421705
0.324506
0.251098
0.202197
0.186057
0.301599
0.598158
0.475996
0.371342
0.287515
0.224526
0.182567
0.169219
0.275331
0.484485
0.38555
0.303937
0.239413
0.191056
0.159139
0.151147
0.251726
0.36565
0.296665
0.239623
0.194158
0.159958
0.138017
0.136157
0.235112
0.516243
0.435646
0.354347
0.286703
0.235478
0.203461
0.203684
0.362956
0.571756
0.503022
0.402429
0.317558
0.253193
0.211489
0.203872
0.350665
0.602019
0.542169
0.429742
0.333079
0.260357
0.212647
0.199597
0.332766
0.628963
0.53105
0.415774
0.321125
0.249983
0.202916
0.188501
0.309697
0.582899
0.468209
0.366527
0.285102
0.224096
0.183657
0.171786
0.282891
0.476237
0.380308
0.300982
0.238378
0.191494
0.160721
0.153975
0.259186
0.360756
0.293819
0.238472
0.194313
0.161104
0.13999
0.13919
0.242556
0.503674
0.424521
0.346472
0.281984
0.233327
0.203336
0.205453
0.369212
0.559683
0.490522
0.392786
0.311748
0.250491
0.211056
0.205349
0.35634
0.589573
0.52847
0.419332
0.327083
0.257694
0.212257
0.201001
0.338101
0.617248
0.518427
0.407068
0.316323
0.248011
0.202856
0.189997
0.314981
0.571346
0.459007
0.360693
0.282084
0.223093
0.1841
0.173552
0.288303
0.467925
0.374609
0.297701
0.23693
0.191405
0.161699
0.156084
0.264927
0.355928
0.290801
0.236941
0.193951
0.161678
0.141374
0.141562
0.248515
0.489743
0.411061
0.337976
0.27706
0.230945
0.202833
0.206696
0.374639
0.556476
0.472671
0.381254
0.305262
0.24726
0.210043
0.206189
0.360709
0.584897
0.509221
0.406213
0.319987
0.254185
0.211056
0.201637
0.341767
0.608495
0.50376
0.397303
0.310763
0.245195
0.201961
0.190747
0.318731
0.560915
0.449272
0.354355
0.278347
0.221267
0.183774
0.17464
0.29245
0.45933
0.368453
0.293729
0.234676
0.190534
0.161994
0.157582
0.269547
0.350292
0.286887
0.234511
0.192774
0.161555
0.14217
0.143388
0.253433
0.479061
0.402116
0.331959
0.273233
0.228759
0.202001
0.207319
0.379505
0.552391
0.46201
0.373257
0.300183
0.244256
0.208705
0.206535
0.365185
0.592238
0.49771
0.39721
0.314191
0.250691
0.209425
0.201829
0.345862
0.598575
0.493819
0.389524
0.305492
0.241962
0.200508
0.191042
0.322757
0.550695
0.440678
0.348044
0.274068
0.218778
0.18287
0.17528
0.296599
0.450161
0.361619
0.288911
0.231615
0.189015
0.161782
0.158655
0.273885
0.34341
0.281925
0.231237
0.19096
0.160945
0.142554
0.144818
0.257921
0.470461
0.397081
0.327849
0.269797
0.226281
0.200563
0.207082
0.382907
0.541426
0.453837
0.368722
0.296195
0.241251
0.20694
0.206217
0.36928
0.576598
0.490259
0.392603
0.309767
0.247345
0.207529
0.201546
0.350314
0.589023
0.486976
0.383585
0.300525
0.238593
0.198788
0.190927
0.326925
0.537974
0.432122
0.341335
0.269366
0.216022
0.181725
0.175569
0.300592
0.439225
0.353605
0.283329
0.228195
0.187309
0.161378
0.159416
0.277858
0.335269
0.276323
0.22772
0.18905
0.160229
0.142741
0.1459
0.261864
0.454449
0.388893
0.321066
0.264665
0.222724
0.198355
0.206032
0.38393
0.497424
0.44236
0.361075
0.290335
0.23723
0.204482
0.205064
0.37097
0.523624
0.472828
0.383915
0.303589
0.243314
0.205184
0.200521
0.352509
0.552726
0.469817
0.373722
0.294237
0.234857
0.196829
0.190245
0.329035
0.516612
0.418948
0.332955
0.264318
0.213277
0.180515
0.175458
0.302876
0.424835
0.344403
0.277679
0.224993
0.185761
0.160933
0.159841
0.28052
0.327101
0.271132
0.22461
0.187395
0.159576
0.142799
0.146611
0.264598
0.436788
0.374424
0.31056
0.25759
0.218246
0.195731
0.204667
0.383036
0.479511
0.425534
0.348334
0.281848
0.23198
0.201403
0.203299
0.369389
0.503624
0.457658
0.370775
0.294922
0.238136
0.202225
0.198779
0.350746
0.533047
0.451819
0.361192
0.286622
0.23056
0.194517
0.189014
0.327845
0.495932
0.404555
0.323989
0.259149
0.210497
0.179178
0.174985
0.302784
0.411162
0.335696
0.272484
0.222082
0.184294
0.160399
0.159969
0.281527
0.319921
0.26659
0.221862
0.185848
0.158858
0.142687
0.14702
0.266001
0.352817
0.270805
0.205385
0.154632
0.117001
0.0917261
0.0813483
0.125547
0.3802
0.279503
0.205045
0.149936
0.110185
0.0835609
0.0708941
0.101959
0.379305
0.273907
0.197414
0.142004
0.102717
0.0765292
0.0632504
0.0861199
0.345682
0.249982
0.180108
0.129552
0.0938071
0.0699498
0.0575558
0.0762342
0.292715
0.214291
0.156346
0.114079
0.0839843
0.0637933
0.0533743
0.0708715
0.235893
0.176069
0.131435
0.0984122
0.0745752
0.0584445
0.0505089
0.0694559
0.183355
0.142175
0.109941
0.0852922
0.067103
0.0547663
0.0496151
0.0731854
0.353738
0.275337
0.211276
0.160863
0.123307
0.0981683
0.0885619
0.138625
0.379899
0.283849
0.211103
0.156429
0.116678
0.0899987
0.0777765
0.113771
0.379637
0.27885
0.204023
0.148949
0.109493
0.0830402
0.0699566
0.0971542
0.348688
0.256408
0.18759
0.137015
0.100826
0.0765006
0.0641303
0.0867969
0.299057
0.222279
0.164515
0.121785
0.0910097
0.0702099
0.0597398
0.0812496
0.244241
0.184735
0.139678
0.105936
0.0813343
0.0645863
0.0566249
0.0796844
0.192163
0.150666
0.117804
0.0924117
0.0735174
0.0607
0.0557413
0.0837541
0.35566
0.279052
0.215936
0.166181
0.129076
0.104314
0.0956488
0.15222
0.38006
0.28731
0.216002
0.162087
0.122666
0.0961287
0.0844842
0.125891
0.379621
0.282593
0.209376
0.154984
0.11567
0.0891563
0.0764129
0.108336
0.350675
0.261295
0.193644
0.143395
0.107088
0.0825228
0.0703462
0.0973191
0.303435
0.228284
0.171062
0.128262
0.0971327
0.0759529
0.0655759
0.091272
0.250117
0.191306
0.146291
0.112242
0.0871713
0.0700224
0.0621867
0.0893198
0.198652
0.157266
0.124187
0.0983918
0.0790525
0.0659369
0.0612671
0.0935564
0.35803
0.282499
0.220378
0.17135
0.134662
0.110193
0.102384
0.165699
0.381497
0.29076
0.22082
0.167605
0.128407
0.101927
0.0908162
0.137792
0.380778
0.28627
0.214487
0.160685
0.121434
0.0948274
0.0824284
0.119178
0.35286
0.265552
0.199014
0.149114
0.112722
0.0879686
0.0760393
0.107374
0.306879
0.233136
0.17654
0.133819
0.102468
0.081027
0.0708274
0.100659
0.254525
0.196502
0.151717
0.117541
0.0921678
0.0747703
0.0671607
0.0981996
0.203634
0.162546
0.129428
0.10339
0.0837535
0.0704593
0.0661165
0.102325
0.359952
0.285799
0.224617
0.176183
0.139777
0.115522
0.108484
0.178
0.383186
0.294453
0.225501
0.172681
0.133564
0.107126
0.096551
0.148719
0.382438
0.290058
0.219231
0.165723
0.126466
0.0998202
0.0878222
0.129079
0.354944
0.269426
0.203649
0.153949
0.117496
0.0926637
0.0810691
0.116473
0.309566
0.23709
0.181008
0.138378
0.106908
0.0853624
0.0754636
0.109066
0.257809
0.200558
0.156041
0.121822
0.0962973
0.0788199
0.0715576
0.106235
0.207468
0.166662
0.133553
0.107384
0.0875954
0.0742525
0.0702777
0.109977
0.359974
0.287588
0.227611
0.179867
0.143877
0.120014
0.113855
0.188753
0.383642
0.296635
0.2287
0.176427
0.137629
0.111484
0.10161
0.15841
0.382717
0.292154
0.222322
0.169333
0.130362
0.103956
0.0925407
0.13786
0.355315
0.271445
0.206561
0.157337
0.121134
0.0964992
0.085412
0.124525
0.310417
0.239211
0.183838
0.141569
0.110286
0.0889108
0.0794998
0.116467
0.259347
0.202922
0.158844
0.124842
0.09944
0.0821182
0.0753688
0.113406
0.209575
0.169176
0.136287
0.110228
0.0905079
0.0772825
0.0737394
0.116407
0.357393
0.287219
0.228746
0.182029
0.146819
0.123666
0.118596
0.198455
0.380768
0.296089
0.22974
0.178553
0.140528
0.115019
0.106056
0.167182
0.379622
0.291411
0.223211
0.171329
0.133111
0.107273
0.0966326
0.145754
0.352515
0.270792
0.207416
0.159212
0.12368
0.0995324
0.0891157
0.131738
0.308488
0.239004
0.184845
0.143401
0.112671
0.0917254
0.0829582
0.123065
0.2584
0.203254
0.160063
0.126662
0.10167
0.0846989
0.0785666
0.119791
0.209533
0.169964
0.137665
0.112017
0.0925884
0.0796293
0.076578
0.12186
0.35323
0.285288
0.228498
0.183105
0.148941
0.126684
0.122805
0.207588
0.375338
0.293531
0.229263
0.179572
0.142611
0.117915
0.109948
0.175311
0.373565
0.288506
0.222556
0.172221
0.135034
0.109928
0.10014
0.152933
0.346907
0.268119
0.206824
0.160028
0.125414
0.101899
0.0922131
0.138146
0.30414
0.237021
0.184548
0.144251
0.114284
0.0938946
0.0858251
0.128937
0.25547
0.202092
0.160145
0.12759
0.103168
0.0866355
0.0811297
0.125388
0.207928
0.169526
0.138072
0.113017
0.0940083
0.0814024
0.0788922
0.126766
0.348581
0.282728
0.22769
0.183696
0.150598
0.12921
0.126453
0.215981
0.369129
0.29037
0.228265
0.180098
0.144193
0.120284
0.113261
0.182638
0.366555
0.284956
0.221339
0.172564
0.136404
0.112024
0.103054
0.159273
0.340386
0.264756
0.205613
0.160245
0.126562
0.103697
0.0947281
0.143657
0.298874
0.234299
0.183589
0.144476
0.115297
0.0954822
0.0880874
0.133976
0.251715
0.200217
0.159571
0.127902
0.104084
0.088012
0.0830951
0.129999
0.205626
0.168433
0.137864
0.113443
0.0948989
0.0826885
0.0807466
0.131135
0.343944
0.280143
0.226738
0.183992
0.151831
0.131216
0.129451
0.223121
0.363496
0.287406
0.227136
0.180266
0.145289
0.122104
0.115946
0.188834
0.360282
0.281591
0.219915
0.172476
0.137248
0.113565
0.105368
0.164572
0.334365
0.261378
0.204069
0.15997
0.127171
0.104958
0.0966906
0.148189
0.29372
0.231353
0.182196
0.144177
0.115768
0.096534
0.0897809
0.138026
0.247822
0.197974
0.158516
0.127701
0.104499
0.0889111
0.0845615
0.133647
0.203009
0.166902
0.137171
0.113386
0.0953279
0.0835336
0.0821388
0.134683
0.339373
0.277288
0.225302
0.183695
0.152448
0.132619
0.131802
0.228862
0.358328
0.284181
0.225442
0.179776
0.145742
0.12333
0.118029
0.19385
0.354534
0.277944
0.217903
0.171735
0.137476
0.114548
0.10713
0.168853
0.328553
0.257624
0.201934
0.159084
0.127219
0.10572
0.0981673
0.151823
0.288463
0.227937
0.180235
0.143325
0.115737
0.0971279
0.09102
0.141258
0.243565
0.195216
0.156936
0.127017
0.104486
0.0894274
0.085651