/*--------------------------------*- C++ -*----------------------------------*\
| =========                 |                                                 |
| \\      /  F ield         | OpenFOAM: The Open Source CFD Toolbox           |
|  \\    /   O peration     | Version:  plus.master.MPPICInterFoam            |
|   \\  /    A nd           | Web:      www.OpenFOAM.com                      |
|    \\/     M anipulation  |                                                 |
\*---------------------------------------------------------------------------*/
FoamFile
{
    version     2.0;
    format      ascii;
    class       volScalarField;
    location    "11.8";
    object      rho;
}
// * * * * * * * * * * * * * * * * * * * * * * * * * * * * * * * * * * * * * //

dimensions      [1 -3 0 0 0 0 0];

internalField   nonuniform List<scalar> 
11821
(
1000
999.995
1000
924.745
1000
1000
1000
1000
1000
999.997
1000
1000
1000
868.377
807.882
813.965
936.177
996.232
1000
1000
444.296
382.189
393.116
637.342
931.825
1000
1000
353.12
364.137
337.07
414.459
828.157
1000
1000
350.234
761.151
519.783
391.541
790.729
998.621
1000
346.734
345.108
346.416
394.704
827.797
1000.01
1000
584.779
424.983
449.473
687.357
942.393
1000
1000
1000
999.996
999.989
999.999
999.999
1000
1000
927.048
904.551
903.494
967.93
999.434
1000
1000
650.043
431.253
475.35
817.395
967.903
1000
1000
407.2
336.16
336.028
554.383
916.03
1000
1000
401.504
384.373
337.329
515.961
904.109
999.903
1000
484.906
345.779
346.413
612.202
915.302
999.998
1000
779.706
672.295
685.212
836.311
967.844
999.996
1000
1000
999.999
999.999
1000
1000
1000
1000
929.586
928.73
916.458
971.866
999.862
1000
1000
728.341
480.866
551.24
845.32
972.501
1000
1000
561.284
336.035
336.113
620.914
927.551
1000
1000
635.328
336.167
336.037
546.399
923.76
1000
1000
742.466
401.231
398.439
741.242
916.586
1000
1000
788.718
775.538
738.795
832.53
967.6
1000
1000
1000
1000
1000
1000
1000
999.996
1000
897.962
907.315
893.037
966.238
999.461
1000
1000
645.805
461.266
525.039
792.748
965.887
1000
1000
532.158
383.301
382.104
574.027
906.281
1000
1000
688.181
464.361
399.625
485.673
897.429
1000
1000
732.572
469.035
415.286
674.709
876.906
1000
1000
622.828
653.015
606.886
722.979
949.981
1000
1000
1000
1000
1000
1000
1000
999.966
999.999
862.854
864.593
865.292
961.387
999.108
1000
1000
459.013
417.633
447.602
737.115
959.922
1000
1000
363.901
624.942
527.424
481.657
882.094
1000
1000
399.995
647.21
640.04
457.929
856.72
1000
1000
399.131
395.873
360.451
479.776
846.208
1000
1000
446.403
401.818
401.573
637.117
932.021
1000
1000
1000
1000
1000
1000
1000
999.95
999.999
871.272
863.75
872.257
965.657
999.401
1000
1000
440.958
417.257
443.728
753.506
964.53
1000
1000
363.027
535.832
415.268
490.528
889.082
1000
1000
360.145
648.027
647.178
458.132
866.848
1000
1000
355.483
352.562
351.878
457.841
861.62
1000
1000
467.431
380.678
419.16
670.161
937.394
1000
1000
1000
1000
1000
1000
999.999
999.95
999.999
902.471
895.028
899.443
974.546
999.909
1000
1000
529.893
417.252
502.445
815.557
975.091
1000
1000
364.592
359.271
355.126
565.906
915.382
1000
1000
362.648
647.599
422.696
498.815
904.108
1000
1000
369.498
351.897
351.532
561.287
899.331
1000
1000
605.665
493.645
547.301
763.996
951.536
1000
1000
999.996
1000
1000
1000
1000
999.981
1000
911.583
916.049
909.032
977.73
1000
1000
1000
608.95
433.922
558.337
837.27
978.984
999.999
1000
417.208
355.102
353.466
615.39
925.848
999.998
1000
482.918
418.391
351.564
511.705
919.074
999.998
1000
536.921
351.564
351.109
642.265
908.146
1000
1000
683.115
606.503
596.291
772.27
954.343
1000
1000
1000
1000
1000
1000
1000
1000
1000
900.253
911.374
904.722
977.483
1000
1000
1000
578.945
441.744
545.677
825.465
978.649
1000
1000
422.833
356.725
441.84
598.402
922.893
1000
1000
604.217
383.456
352.679
511.524
913.094
1000
1000
646.08
356.681
350.181
611.609
899.838
1000
1000
610.852
573.073
533.612
722.385
948.333
1000
1000
1000
1000
1000
1000
1000
1000
1000
881.124
895.886
895.986
976.993
999.953
1000
1000
481.404
434.556
509.963
810.329
978.071
1000
1000
348.533
477.067
494.941
567.844
916.522
1000
1000
434.723
586.513
572.819
510.549
904.248
1000
1000
536.346
377.542
349.381
534.768
890.306
1000
1000
448.447
426.575
419.442
681.823
940.969
1000
1000
1000
1000
1000
1000
1000
1000
1000
881.363
889.827
894.708
977.998
999.957
1000
1000
457.646
418.248
509.029
812.889
979.183
1000
1000
342.874
534.903
357.371
571.04
915.943
1000
1000
344.095
587.035
586.451
510.553
907.368
1000
1000
348.56
370.196
349.145
526.976
893.599
1000
1000
430.775
382.92
421.441
696.046
942.364
1000
1000
1000
1000
1000
1000
1000
1000
1000
889.096
892.149
897.788
980.485
999.993
1000
1000
491.433
412.117
529.1
825.667
982.137
1000
1000
342.441
382.536
344.095
590.254
919.533
1000
1000
343.022
586.817
424.149
510.516
917.381
1000
1000
344.684
347.395
346.94
554.464
904.709
1000
1000
499.291
435.006
477.91
728.65
948.328
1000
1000
1000
1000
1000
1000
1000
1000
1000
888.908
890.674
899.523
982.507
1000
1000
1000
503.894
405.66
533.581
826.195
984.32
1000
1000
342.209
342.448
343.779
589.761
921.494
1000
1000
489.204
415.411
343.656
500.529
917.27
1000
1000
432.499
344.78
344.437
555.789
906.278
999.998
1000
561.304
465.634
490.622
722.78
950.016
1000
1000
1000
1000
1000
1000
1000
1000
1000
877.067
879.394
899.7
984.297
1000
1000
1000
460.504
392.554
512.515
816.175
986.337
1000
1000
341.612
342.216
342.522
564.243
922.511
1000
1000
528.665
395.008
342.9
481.326
908.052
1000
1000
508.31
344.326
343.613
511.296
901.903
1000
1000
518.855
410.42
435.464
676.25
948.782
1000
1000
1000
1000
1000
1000
1000
1000
1000
872.829
877.63
905.037
987.085
1000
1000
1000
399.924
392.989
502.258
817.61
989.771
1000
1000
342.19
409.334
342.796
558.576
929.4
1000
1000
353.879
612.953
507.082
480.863
905.61
1000
1000
395.983
345.022
345.973
482.785
904.548
1000
1000
387.476
346.597
359.324
652.865
952.027
1000
1000
1000
1000
1000
1000
1000
1000
1000
891.42
898.548
925.183
990.968
1000
1000
1000
424.587
411.88
545.014
847.582
993.621
1000
1000
342.545
609.686
367.914
605.118
947.107
1000
1000
343.207
623.917
632.048
501.767
923.584
1000
1000
342.286
350.475
351.508
531.613
925.712
1000
1000
359.653
348.538
380.954
687.671
965.278
1000
1000
999.944
999.867
1000
1000
1000
1000
1000
1000
1000
1000
1000
1000
1000
1000
1000
1000
1000
1000
1000
1000
1000
1000
1000
1000
1000
1000
1000
1000
1000
1000
1000
1000
1000
1000
1000
1000
1000
1000
999.999
999.994
1000
1000
1000
1000
1000
1000
999.409
997.011
1000
1000
1000
1000
1000
999.996
999.954
999.89
1000
1000
1000
1000
1000
1000
1000
1000
1000
1000
1000
1000
1000
1000
1000
1000
1000
1000
1000
1000
1000
1000
1000
1000
1000
1000
1000
1000
1000
1000
1000
1000
1000
1000
1000
1000
1000
1000
999.996
999.984
1000
1000
1000
1000
1000
1000
999.386
997.459
1000
1000
1000
1000
1000
999.995
999.97
999.945
1000
1000
1000
1000
1000
1000
1000
1000
1000
1000
1000
1000
1000
1000
1000
1000
1000
1000
1000
1000
1000
1000
1000
1000
1000
1000
1000
1000
1000
1000
1000
1000
1000
1000
1000
1000
1000
1000
999.996
999.927
1000
1000
1000
1000
1000
1000
999.322
997.987
1000
1000
1000
1000
1000
999.996
999.983
999.975
1000
1000
1000
1000
1000
1000
1000
1000
1000
1000
1000
1000
1000
1000
1000
1000
1000
1000
1000
1000
1000
1000
1000
1000
1000
1000
1000
1000
1000
1000
1000
1000
1000
1000
1000
1000
1000
999.998
999.998
999.85
1000
1000
1000
1000
1000
1000
999.343
998.185
1000
1000
1000
1000
1000
999.997
999.994
999.983
1000
1000
1000
1000
1000
1000
1000
1000
1000
1000
1000
1000
1000
1000
1000
1000
1000
1000
1000
1000
1000
1000
1000
1000
1000
1000
1000
1000
1000
1000
1000
1000
1000
1000
1000
1000
1000
999.997
999.999
999.848
1000
1000
1000
1000
1000
1000
999.459
998.082
1000
1000
1000
1000
1000
999.997
999.999
999.987
1000
1000
1000
1000
1000
1000
1000
1000
1000
1000
1000
1000
1000
1000
1000
1000
1000
1000
1000
1000
1000
1000
1000
1000
1000
1000
1000
1000
1000
1000
1000
1000
1000
1000
1000
1000
1000
999.998
1000
999.919
1000
1000
1000
1000
1000
1000
999.641
998.021
1000
1000
1000
1000
1000
999.998
1000
999.997
1000
1000
1000
1000
1000
1000
1000
1000
1000
1000
1000
1000
1000
1000
1000
1000
1000
1000
1000
1000
1000
1000
1000
1000
1000
1000
1000
1000
1000
1000
1000
1000
1000
1000
1000
1000
1000
999.999
1000
999.987
1000
1000
1000
1000
1000
1000
999.743
998.458
1000
1000
1000
1000
1000
1000
1000
1000
1000
1000
1000
1000
1000
1000
1000
1000
1000
1000
1000
1000
1000
1000
1000
1000
1000
1000
1000
1000
1000
1000
1000
1000
1000
1000
1000
1000
1000
1000
1000
1000
1000
1000
1000
1000
1000
1000
1000
1000
1000
1000
1000
1000
1000
1000
999.762
998.811
1000
1000
1000
1000
1000
1000
1000
1000
1000
1000
1000
1000
1000
1000
1000
1000
1000
1000
1000
1000
1000
1000
1000
1000
1000
1000
1000
1000
1000
1000
1000
1000
1000
1000
1000
1000
1000
1000
1000
1000
1000
1000
1000
1000
1000
1000
1000
1000
1000
1000
1000
1000
1000
1000
999.756
999.012
1000
1000
1000
1000
1000
1000
1000
1000
1000
1000
1000
1000
1000
1000
1000
1000
1000
1000
1000
1000
1000
1000
1000
1000
1000
1000
1000
1000
1000
1000
1000
1000
1000
1000
1000
1000
1000
1000
1000
1000
1000
1000
1000
1000
1000
1000
1000
1000
1000
1000
1000
1000
1000
1000
999.733
999.162
1000
1000
1000
1000
1000
1000
1000
1000
1000
1000
1000
1000
1000
1000
1000
1000
1000
1000
1000
1000
1000
1000
1000
1000
1000
1000
1000
1000
1000
1000
1000
1000
1000
1000
1000
1000
1000
1000
1000
1000
1000
1000
1000
1000
1000
1000
999.994
1000
1000
1000
1000
1000
1000
1000
999.689
999.293
1000
1000
1000
1000
1000
1000
1000
1000
1000
1000
1000
1000
1000
1000
1000
1000
1000
1000
1000
1000
1000
1000
1000
1000
1000
1000
1000
1000
1000
1000
1000
1000
1000
1000
1000
1000
1000
1000
1000
1000
1000
1000
1000
1000
1000
1000
999.957
999.987
1000
1000
1000
1000
1000
1000
999.637
999.44
1000
1000
1000
1000
1000
1000
1000
1000
1000
1000
1000
1000
1000
1000
1000
1000
1000
1000
1000
1000
1000
1000
1000
1000
1000
1000
1000
1000
1000
1000
1000
1000
1000
1000
1000
1000
1000
1000
1000
1000
1000
1000
1000
1000
1000
1000
999.927
999.964
1000
1000
1000
1000
1000
1000
999.619
999.568
1000
1000
1000
1000
1000
1000
1000
1000
1000
1000
1000
1000
1000
1000
1000
1000
1000
1000
1000
1000
1000
1000
1000
999.999
1000
1000
1000
1000
1000
1000
1000
1000
1000
1000
1000
1000
1000
1000
1000
1000
1000
1000
1000
1000
1000
1000
999.933
999.964
1000
1000
1000
1000
1000
1000
999.637
999.67
1000
1000
1000
1000
1000
1000
1000
1000
1000
1000
1000
1000
1000
1000
1000
1000
1000
1000
1000
1000
1000
1000
1000
999.999
1000
1000
1000
1000
1000
1000
1000
1000
1000
1000
1000
1000
1000
1000
1000
1000
1000
1000
1000
1000
1000
1000
999.984
999.977
1000
1000
1000
1000
1000
1000
999.699
999.751
1000
1000
1000
1000
1000
1000
1000
1000
1000
1000
1000
1000
1000
1000
1000
1000
1000
1000
1000
1000
1000
1000
1000
999.999
1000
1000
1000
1000
1000
1000
1000
1000
1000
1000
1000
1000
1000
999.995
999.993
999.999
1000
1000
1000
1000
999.99
1000
999.999
999.983
1000
1000
1000
1000
1000
1000
999.782
999.812
1000
1000
1000
1000
1000
1000
1000
1000
1000
1000
1000
1000
1000
1000
1000
1000
1000
1000
1000
1000
1000
1000
1000
999.999
1000
1000
1000
1000
1000
1000
1000
999.999
1000
1000
1000
1000
1000
999.987
999.983
999.996
1000
1000
1000
1000
999.943
999.994
999.878
999.979
937.032
999.995
1000
1000
1000
1000
1000
1000
654.708
979.229
1000
1000
1000
1000
1000
999.991
492.509
916.509
999.994
1000
1000
1000
1000
999.833
554.555
948.034
1000
1000
1000
1000
1000
999.826
819.823
999.989
1000
1000
1000
1000
999.972
999.997
987.626
1000
1000
1000
1000
1000
999.967
999.997
1000
999.999
1000
999.999
1000
1000
1000
1000
947.582
999.997
1000
1000
1000
1000
1000
1000
858.227
983.948
1000
1000
1000
1000
1000
999.982
779.591
955.323
999.997
1000
1000
1000
1000
999.809
773.039
970.301
1000
1000
1000
1000
1000
999.805
901.3
999.995
1000
1000
1000
1000
999.991
999.998
991.67
1000
1000
1000
1000
1000
999.967
999.998
1000
999.999
1000
999.999
1000
999.998
999.999
1000
931.989
999.963
1000
1000
1000
1000
1000
1000
856.595
966.199
1000
1000
1000
1000
1000
999.967
864.97
935.065
1000
1000
1000
1000
1000
999.815
812.914
959.435
1000
1000
1000
1000
999.994
999.8
893.521
999.346
1000
1000
1000
1000
1000
999.874
991.598
1000
1000
1000
1000
1000
999.967
1000
1000
999.999
1000
999.999
1000
999.997
999.998
1000
880.892
999.976
1000
1000
1000
1000
1000
1000
647.307
922.935
1000
1000
1000
1000
1000
999.956
678.128
856.98
1000.01
1000
1000
1000
1000
999.816
670.127
914.854
1000
1000
1000
1000
999.977
999.828
815.005
997.625
1000
1000
1000
1000
1000
999.452
986.527
1000
1000
1000
1000
1000
999.974
999.962
1000
999.998
999.999
1000
1000
999.997
999.998
999.995
851.122
999.997
1000
1000
1000
1000
1000
1000
470.179
905.089
1000
1000
1000
1000
1000
999.955
411.575
808.006
1000.01
1000
1000
1000
1000
999.816
455.994
877.462
1000
1000
1000
1000
999.942
999.929
742.727
996.434
1000
1000
1000
1000
1000
999.375
978.848
1000
1000
1000
1000
1000
999.996
999.568
1000
999.998
999.999
1000
1000
999.998
1000
999.965
861.843
999.996
1000
1000
1000
1000
1000
1000
511.507
920.231
1000
1000
1000
1000
1000
999.964
404.221
829.543
999.994
1000
1000
1000
999.999
999.854
463.978
887.152
1000
1000
1000
1000
999.933
999.991
759.89
996.899
1000
1000
1000
1000
1000
999.374
978.945
1000
1000
1000
1000
1000
1000
999.334
1000
999.998
999.999
1000
1000
1000
1000
999.917
880.899
999.418
1000
1000
1000
1000
1000
1000
703.577
939.518
999.998
1000
1000
1000
1000
999.988
567.137
883.921
999.996
1000
1000
1000
999.992
999.976
598.663
917.269
1000
1000
1000
1000
999.933
1000
820.406
997.015
1000
1000
1000
1000
1000
999.367
982.099
1000
1000
1000
1000
1000
999.999
999.334
1000
999.998
999.999
1000
1000
1000
1000
999.911
868.315
997.487
1000
1000
1000
1000
1000
1000
806.575
921.317
1000.01
1000
1000
1000
1000
1000
770.513
879.026
998.866
1000
1000
1000
999.974
1000
690.589
914.654
1000
1000
1000
1000
999.938
1000
827.253
995.41
1000
1000
1000
1000
999.978
999.34
982.833
1000
1000
1000
1000
1000
999.999
999.334
1000
999.998
999.999
1000
1000
1000
1000
999.942
813.143
996.009
1000
1000
1000
1000
1000
1000
691.573
860.606
1000.01
1000
1000
1000
1000
1000
710.61
807.604
998.721
1000
1000
1000
999.977
1000
631.416
876.41
1000
1000
1000
1000
999.984
999.987
784.836
991.878
1000
1000
1000
1000
999.874
999.311
979.722
999.996
1000
1000
1000
999.999
999.997
999.512
1000
999.998
999.999
1000
1000
1000
1000
999.988
782.606
996.39
1000
1000
1000
1000
1000
1000
449.988
833.929
1000
1000
1000
1000
1000
1000
448.06
745.978
999.776
1000
1000
1000
999.998
1000
471.549
834.786
1000.01
1000
1000
1000
1000
999.729
732.76
989.051
1000
1000
1000
1000
999.67
999.311
974.768
999.974
1000
1000
1000
999.991
999.959
999.801
1000
999.999
1000
1000
999.999
999.995
999.995
1000
794.123
996.776
1000
1000
1000
1000
1000
1000
441.748
848.917
999.998
1000
1000
1000
1000
1000
367.339
758.277
999.996
1000
1000
1000
1000
1000
443.624
837.952
1000
1000
1000
1000
1000
999.352
736.581
988.514
1000
1000
999.999
1000
999.606
999.31
974.569
999.95
1000
1000
1000
999.971
999.686
999.821
1000
999.999
1000
1000
999.999
999.987
999.978
1000
814.923
995.548
1000
1000
1000
1000
1000
1000
573.241
876.364
999.999
1000
1000
1000
1000
1000
476.78
807.686
998.97
1000
1000
1000
1000
1000
504.026
855.702
1000
1000
1000
1000
1000
999.315
759.849
988.413
1000
1000
999.999
1000
999.652
999.31
976.703
999.937
1000
1000
1000
999.963
999.649
999.807
1000
999.999
1000
1000
999.998
999.984
999.964
1000
804.387
990.474
1000
1000
1000
1000
1000
1000
722.58
863.762
998.877
1000
1000
1000
1000
1000
671.436
809.495
995.511
1000
1000
1000
1000
1000
541.818
850.448
999.999
1000
1000
1000
1000
999.36
756.36
986.357
1000
1000
1000
1000
999.775
999.31
977.426
999.906
1000
1000
1000
999.973
999.733
999.824
1000
999.999
999.999
1000
999.998
999.982
999.968
1000
743.548
982.492
1000
1000
1000
1000
1000
1000
665.36
787.39
997.892
1000
1000
1000
1000
999.992
622.107
739.82
991.911
1000
1000
1000
1000
999.991
490.886
797.856
999.999
1000
1000
1000
1000
999.378
709.435
979.461
1000
1000
1000
999.997
999.9
999.311
975.266
999.819
1000
1000
1000
999.948
999.962
999.891
1000
999.999
999.999
1000
999.998
999.978
999.979
1000
688.76
980.939
1000
1000
1000
1000
1000
1000
428.332
721.688
999.03
1000
1000
1000
1000
999.974
397.511
642.326
990.685
1000
1000
1000
1000
999.718
371.808
735.639
1000.01
1000
1000
1000
1000
999.361
670.736
973.837
1000
1000
1000
999.981
999.976
999.323
974.667
999.774
1000
1000
1000
999.827
999.98
999.968
1000
999.999
999.999
1000
999.997
999.97
999.988
1000
703.256
984.479
1000
1000
1000
1000
1000
1000
365.504
739.495
999.924
1000
1000
1000
1000
999.949
345.295
648.829
992.14
1000
1000
1000
1000
999.346
364.758
746.842
999.996
1000
1000
1000
1000
999.33
694.15
976.01
1000
1000
1000
999.967
999.997
999.6
979.567
999.795
1000
1000
999.997
999.825
999.969
999.996
1000
999.999
999.999
1000
999.994
999.966
999.992
1000
1000
1000
999.98
999.987
1000
1000
1000
1000
1000
999.702
999.591
999.972
1000
1000
1000
999.999
999.875
998.932
999.447
999.998
1000
1000
1000
999.999
999.339
998.932
999.925
1000
1000
1000
999.997
999.877
999.753
999.916
1000
1000
1000
1000
999.986
999.977
1000
999.994
1000
1000
1000
1000
999.837
999.026
1000
1000
1000
1000
1000
1000
999.355
996.99
1000
999.999
999.964
999.989
1000
1000
1000
1000
999.993
999.559
999.719
999.99
1000
1000
1000
999.999
999.737
998.935
999.816
1000
1000
1000
1000
1000
999.202
999.129
999.992
1000
1000
1000
999.994
999.896
999.895
999.996
999.997
1000
1000
1000
999.98
999.812
999.992
999.984
1000
1000
1000
1000
999.743
997.607
1000
1000
1000
1000
1000
1000
999.078
996.99
1000
999.997
999.965
999.994
1000
1000
1000
1000
999.981
999.62
999.913
999.999
1000
1000
1000
1000
999.744
999.159
999.975
1000
1000
1000
1000
1000
999.595
999.773
999.999
1000
1000
1000
999.986
999.99
999.978
999.99
999.984
1000
1000
1000
999.969
999.191
999.949
999.984
1000
1000
1000
1000
999.687
996.993
1000
1000
1000
1000
1000
1000
998.675
996.99
1000
999.993
999.987
999.998
1000
1000
1000
1000
999.987
999.891
999.993
1000
1000
1000
1000
1000
999.862
999.935
999.998
1000
1000
1000
1000
999.96
999.994
999.997
999.999
999.998
1000
1000
999.983
999.99
999.991
999.951
999.979
1000
1000
1000
999.947
997.97
999.939
999.988
1000
1000
1000
1000
999.634
996.994
1000
1000
1000
1000
1000
999.998
998.417
997.246
1000
999.994
1000
1000
1000
1000
1000
1000
999.997
1000
1000
1000
1000
1000
1000
1000
999.998
1000
999.999
999.999
1000
1000
1000
999.925
999.999
999.998
999.966
999.995
1000
1000
999.986
999.99
999.987
999.942
999.98
1000
1000
1000
999.892
997.647
999.939
999.995
1000
1000
1000
1000
999.548
996.994
1000
1000
1000
1000
1000
999.991
998.325
997.709
1000
999.999
1000
1000
1000
1000
1000
1000
1000
1000
1000
1000
1000
1000
1000
1000
1000
1000
999.998
999.997
1000
1000
1000
999.924
999.999
999.994
999.948
999.993
1000
1000
999.989
999.99
999.961
999.942
999.985
1000
1000
1000
999.806
997.971
999.949
999.998
1000
1000
1000
1000
999.389
998.215
1000
1000
1000
1000
1000
999.994
998.301
997.145
1000
1000
1000
1000
1000
1000
1000
1000
1000
1000
1000
1000
1000
1000
1000
1000
1000
999.999
999.994
999.994
1000
1000
1000
999.97
999.999
999.973
999.948
999.994
1000
1000
999.993
999.837
999.942
999.942
999.991
1000
1000
1000
999.799
999.057
999.982
999.999
1000
1000
1000
1000
998.809
998.987
1000
1000
1000
1000
1000
1000
998.413
997.144
1000
1000
1000
1000
1000
1000
1000
1000
1000
1000
1000
999.999
1000
1000
1000
1000
1000
999.999
999.975
999.993
1000
1000
1000
1000
999.999
999.949
999.948
999.997
1000
1000
999.993
999.251
999.943
999.942
999.995
1000
1000
1000
999.82
999.905
999.998
1000
1000
1000
1000
1000
998.564
998.663
1000
1000
1000
1000
1000
1000
998.691
997.144
1000
1000
1000
1000
1000
1000
1000
1000
1000
1000
999.999
999.998
1000
1000
1000
1000
1000
999.999
999.967
999.993
1000
1000
1000
1000
999.999
999.948
999.964
999.999
1000
1000
999.968
999.172
999.972
999.97
999.998
1000
1000
1000
999.911
999.917
1000
1000
1000
1000
1000
1000
998.563
997.841
1000
1000
1000
1000
1000
1000
998.789
997.143
1000
1000
1000
1000
1000
1000
1000
1000
1000
1000
999.997
999.997
1000
1000
1000
999.996
1000
999.993
999.967
999.995
1000
1000
1000
1000
999.999
999.948
999.983
1000
1000
1000
999.944
999.172
999.999
999.995
999.999
1000
1000
1000
999.971
999.947
1000
1000
1000
1000
1000
1000
998.537
997.493
1000
1000
1000
1000
1000
1000
998.756
997.143
1000
1000
1000
1000
1000
1000
1000
1000
1000
1000
999.995
999.998
1000
1000
1000
999.992
1000
999.963
999.969
999.997
999.999
1000
1000
1000
999.999
999.948
999.992
1000
1000
1000
999.965
999.48
1000
999.999
1000
1000
1000
1000
999.665
999.995
1000
1000
1000
1000
1000
1000
998.347
997.656
1000
1000
1000
1000
1000
1000
998.582
997.143
1000
1000
1000
1000
1000
1000
1000
1000
1000
1000
999.994
999.999
1000
1000
1000
999.992
1000
999.955
999.982
999.996
999.997
1000
1000
1000
1000
999.953
999.997
1000
1000
1000
1000
999.978
1000
999.999
1000
1000
1000
1000
999.038
999.995
1000
999.999
1000
1000
1000
1000
998.348
998.452
1000
1000
1000
1000
1000
1000
998.291
997.143
1000
1000
1000
1000
1000
1000
1000
1000
1000
999.999
999.997
1000
1000
1000
1000
999.994
1000
999.98
999.997
999.991
999.996
1000
1000
999.991
1000
999.991
999.999
999.999
1000
1000
1000
999.993
1000
999.999
1000
1000
1000
1000
999.414
999.966
1000
1000
1000
1000
1000
999.997
999.028
999.245
1000
1000
1000
1000
1000
1000
998.134
997.143
1000
1000
1000
1000
1000
1000
1000
1000
1000
999.999
1000
1000
999.994
1000
1000
1000
1000
1000
1000
999.991
999.996
1000
999.999
999.931
1000
1000
1000
999.999
1000
1000
1000
999.609
1000
999.999
1000
1000
1000
1000
999.975
999.61
1000
1000
1000
1000
1000
999.947
999.872
999.292
1000
1000
1000
1000
1000
1000
998.007
997.142
1000
1000
1000
1000
1000
1000
1000
999.997
1000
999.999
1000
999.997
999.992
1000
1000
1000
1000
1000
1000
999.991
999.997
1000
999.996
999.859
1000
1000
1000
999.999
1000
999.998
1000
999.215
1000
1000
1000
1000
1000
1000
1000
999.322
1000
1000
1000
1000
1000
999.899
999.98
999.198
1000
1000
1000
1000
1000
1000
997.684
997.142
1000
1000
1000
1000
1000
1000
1000
999.969
1000
1000
1000
999.989
999.992
1000
1000
1000
1000
1000
1000
999.991
999.998
1000
999.991
999.847
1000
1000
1000
1000
1000
999.998
1000
999.21
1000
1000
1000
1000
1000
1000
998.186
999.394
1000
1000
1000
1000
1000
999.906
998.031
998.996
1000
1000
1000
1000
1000
1000
997.21
997.142
1000
1000
1000
1000
1000
1000
999.718
999.911
1000
1000
1000
1000
999.998
999.975
999.622
998.774
1000
1000
1000
999.998
999.995
999.999
999.54
999.542
960.944
1000
1000
1000
999.999
1000
999.85
999.316
1000
1000
1000
999.962
999.916
999.753
999.993
1000
1000
1000
1000
1000
1000
1000
999.672
999.984
1000
1000
1000
1000
999.994
999.977
999.651
998.913
999.919
1000
1000
999.999
999.999
999.976
999.539
999.541
971.816
1000
1000
1000
1000
1000
999.837
999.316
861.665
999.992
1000
1000
999.998
999.942
999.95
999.343
868.724
999.991
1000
1000
1000
999.957
999.992
1000
976.32
1000
1000
1000
1000
1000
1000
1000
1000
1000
1000
1000
1000
999.978
999.818
999.693
1000
1000
1000
1000
999.988
999.984
999.74
999.391
999.921
1000
1000
1000
1000
999.966
999.539
999.54
979.971
1000
1000
1000
1000
1000
999.815
999.316
920.802
999.996
1000
1000
999.98
999.942
999.974
999.316
927.721
999.996
1000
1000
999.993
999.941
999.992
999.964
978.378
1000
1000
1000
1000
999.999
1000
1000
1000
1000
1000
1000
1000
999.94
999.961
998.665
1000
1000
1000
999.998
999.99
999.99
999.861
999.16
1000
1000
1000
1000
1000
999.966
999.579
998.901
974.605
1000
1000
1000
1000
1000
999.745
999.508
900.19
999.938
1000
1000
999.962
999.948
999.995
999.316
903.202
999.626
1000
1000
999.972
999.942
999.997
999.765
962.023
1000
1000
1000
999.999
999.998
1000
1000
1000
1000
1000
1000
999.995
999.937
999.976
998.325
1000
1000
1000
999.996
999.997
999.989
999.894
998.367
999.899
1000
1000
999.999
1000
999.966
999.674
998.293
957.405
1000
1000
1000
1000
1000
999.619
999.903
817.328
999.926
1000
1000
999.962
999.982
1000
999.325
804.711
999.498
1000
1000
999.964
999.966
1000
999.621
926.69
1000
1000
1000
999.998
999.998
1000
1000
1000
1000
1000
1000
999.986
999.941
999.96
998.32
1000
1000
1000
999.997
1000
999.977
999.855
998.241
999.169
1000
1000
999.996
1000
999.967
999.796
998.276
946.87
1000
1000
1000
1000
999.998
999.613
999.982
769.792
999.997
1000
1000
999.985
999.999
1000
999.645
750.59
999.896
1000
1000
999.964
999.99
1000
999.682
910.474
1000
1000
1000
999.998
999.998
1000
1000
1000
1000
1000
1000
999.977
999.973
999.829
998.757
1000
1000
1000
999.999
999.996
999.96
999.625
998.241
998.939
1000
1000
999.995
1000
999.97
999.889
998.26
950.712
1000
1000
1000
1000
999.996
999.613
999.986
794.022
999.995
1000
1000
1000
1000
999.848
999.984
778.285
999.993
1000
1000
999.981
999.999
1000
999.904
918.191
1000
1000
1000
999.998
999.998
1000
1000
1000
1000
1000
1000
999.974
1000
999.476
999.304
1000
1000
1000
1000
999.944
999.955
998.886
998.241
999.181
1000
1000
999.995
1000
999.981
999.935
998.25
956.715
1000
1000
1000
1000
999.999
999.613
999.987
840.789
999.863
1000
1000
1000
1000
999.614
999.987
833.807
999.552
1000
1000
1000
1000
1000
1000
926.173
1000
1000
1000
999.999
1000
1000
999.999
1000
1000
1000
1000
999.976
1000
999.36
999.354
1000
1000
1000
1000
999.923
999.942
998.26
998.241
999.25
1000
1000
999.998
1000
999.996
999.927
998.505
954.294
1000
1000
1000
1000
1000
999.743
999.669
833.323
999.18
1000
1000
1000
1000
999.614
999.997
824.512
997.583
1000
1000
1000
1000
999.999
999.999
908.341
1000.01
1000
1000
1000
1000
1000
999.998
1000
1000
1000
1000
999.985
999.998
999.522
999.358
1000
1000
1000
1000
999.923
999.909
998.241
998.241
998.718
1000
1000
1000
1000
1000
999.616
999.157
944.35
1000
1000
1000
1000
999.999
999.954
998.779
780.735
998.905
1000
1000
1000
1000
999.829
1000
753.599
995.692
1000
1000
1000
1000
999.993
999.996
864.045
1000
1000
1000
1000
1000
1000
999.999
1000
1000
1000
1000
999.996
999.971
999.884
999.481
1000
1000
1000
1000
999.944
999.843
998.562
998.241
997.876
1000
1000
1000
1000
999.999
998.805
999.393
937.891
1000
1000
1000
1000
999.991
1000
998.615
744.462
998.955
1000
1000
1000
1000
1000
1000
707.482
995.744
1000
1000
1000
1000
999.97
999.994
849.64
1000
1000
1000
1000
1000
1000
999.999
1000
1000
1000
1000
1000
999.84
999.957
999.739
1000
1000
1000
1000
999.973
999.647
999.43
998.455
997.78
1000
1000
1000
1000
999.949
998.734
999.396
939.282
1000
1000
1000
1000
999.988
1000
998.615
753.821
998.695
1000
1000
1000
1000
1000
1000
722.585
995.859
1000
1000
1000
1000
999.966
999.995
856.885
999.999
1000
1000
1000
1000
1000
999.999
1000
1000
1000
999.999
1000
999.766
999.277
999.843
1000
1000
1000
1000
999.975
999.531
999.699
999.684
998.025
1000
1000
1000
1000
999.845
998.734
999.57
941.937
1000
1000
1000
1000
999.993
999.986
998.535
770.233
997.652
1000
1000
1000
1000
1000
999.971
749.84
994.709
1000
1000
1000
1000
999.966
999.998
863.383
999.999
1000
1000
1000
1000
1000
999.999
1000
1000
1000
999.999
1000
999.761
998.676
999.784
1000
1000
1000
999.997
999.978
999.531
999.327
999.783
998.107
1000
1000
1000
1000
999.766
998.995
998.843
938.802
1000
1000
1000
1000
1000
999.894
998.476
757.295
995.743
1000
1000
1000
999.998
1000
999.419
736.274
990.64
1000
1000
1000
1000
999.966
1000
845.896
999.84
1000
1000
1000
1000
1000
999.999
1000
1000
1000
999.999
1000
999.773
998.672
999.302
1000
1000
1000
999.994
999.983
999.527
998.01
998.948
997.98
1000
1000
1000
999.997
999.768
999.609
998.091
925.536
1000
1000
1000
1000
1000
999.646
998.662
699.743
992.848
1000
1000
1000
999.997
1000
998.636
663.441
983.268
1000
1000
1000
1000
999.992
1000
788.28
999.727
1000
1000
1000
1000
1000
1000
1000
1000
1000
999.999
1000
999.801
999.213
998.863
1000
1000
1000
999.994
999.983
999.499
998.007
998.006
998.229
1000
1000
1000
999.974
999.852
999.793
998.085
919.104
1000
1000
1000
1000
1000
999.46
999.831
668.02
991.658
1000
1000
1000
999.997
1000
998.574
607.548
979.419
1000
1000
1000
1000
1000
999.904
751.91
999.82
1000
1000
1000
1000
1000
1000
1000
1000
1000
1000
999.93
999.885
999.683
999.121
1000
1000
1000
999.996
999.976
999.48
998.006
998.005
999.04
1000
1000
1000
999.961
999.96
999.736
998.111
928.811
1000
1000
1000
1000
1000
999.459
999.977
696.688
993.276
1000
1000
1000
999.997
1000
998.573
634.872
982.55
1000
1000
1000
999.998
1000
999.033
766.075
1000.01
1000
1000
1000
1000
999.999
1000
1000
1000
1000
1000
1000
1000
1000
1000
1000
1000
1000
1000
1000
1000
1000
1000
1000
1000
1000
1000
1000
1000
1000
1000
1000
1000
1000
1000
1000
1000
1000
1000
1000
1000
1000
1000
1000
1000
1000
1000
1000
1000
1000
1000
1000
1000
1000
1000
1000
1000
1000
1000
1000
1000
1000
1000
1000
1000
1000
1000
1000
1000
1000
1000
1000
1000
1000
1000
1000
1000
1000
1000
1000
1000
1000
1000
1000
1000
1000
1000
1000
1000
1000
1000
1000
1000
1000
1000
1000
1000
1000
1000
1000
1000
1000
1000
1000
1000
1000
1000
1000
1000
1000
1000
1000
1000
1000
1000
1000
1000
1000
1000
1000
1000
1000
1000
1000
1000
1000
1000
1000
1000
1000
1000
1000
1000
1000
1000
1000
1000
1000
1000
1000
1000
1000
1000
1000
1000
1000
1000
1000
1000
1000
1000
1000
1000
1000
1000
1000
1000
1000
1000
1000
1000
1000
1000
1000
1000
1000
1000
1000
1000
1000
1000
1000
1000
1000
1000
1000
1000
1000
1000
1000
1000
1000
1000
1000
1000
1000
1000
1000
1000
1000
1000
1000
1000
1000
1000
1000
1000
1000
1000
1000
1000
1000
1000
1000
1000
1000
1000
1000
1000
1000
1000
1000
1000
1000
1000
1000
1000
1000
1000
1000
1000
1000
1000
1000
1000
1000
1000
1000
1000
1000
1000
1000
1000
1000
1000
1000
1000
1000
1000
1000
1000
1000
1000
1000
1000
1000
1000
1000
1000
1000
1000
1000
1000
1000
1000
1000
1000
1000
1000
1000
1000
1000
1000
1000
1000
1000
1000
1000
1000
1000
1000
1000
1000
1000
1000
1000
1000
1000
1000
1000
1000
1000
1000
1000
1000
1000
1000
1000
1000
1000
1000
1000
1000
1000
1000
1000
1000
1000
1000
1000
1000
1000
1000
1000
1000
1000
1000
1000
1000
1000
1000
1000
1000
1000
1000
1000
1000
1000
1000
1000
1000
1000
1000
1000
1000
1000
1000
1000
1000
1000
1000
1000
1000
1000
1000
1000
1000
1000
1000
1000
1000
1000
1000
1000
1000
1000
1000
1000
1000
1000
1000
1000