/*--------------------------------*- C++ -*----------------------------------*\
| =========                 |                                                 |
| \\      /  F ield         | OpenFOAM: The Open Source CFD Toolbox           |
|  \\    /   O peration     | Version:  plus.master                           |
|   \\  /    A nd           | Web:      www.OpenFOAM.com                      |
|    \\/     M anipulation  |                                                 |
\*---------------------------------------------------------------------------*/
FoamFile
{
    version     2.0;
    format      ascii;
    class       volScalarField;
    location    "5.4";
    object      p_rgh;
}
// * * * * * * * * * * * * * * * * * * * * * * * * * * * * * * * * * * * * * //

dimensions      [1 -1 -2 0 0 0 0];

internalField   nonuniform List<scalar> 
47285
(
5700.13
5699.73
5699.26
5698.9
5698.96
5699.49
5699.74
5699.52
5671.56
5673.15
5677.92
5670.43
5671.67
5698.79
5699.04
5674.67
5641.08
5639.42
5640.89
5676.18
5697.68
5698.93
5679.21
5640.36
5635.83
5638.69
5676.29
5697.47
5699.06
5672.22
5640.71
5638.74
5640.56
5674.62
5697.76
5699.47
5671.69
5674.28
5676.33
5671.55
5672.24
5698.85
5699.87
5698.94
5697.84
5697.66
5697.89
5698.98
5699.6
5700.53
5699.96
5699.77
5699.62
5699.87
5700.37
5701.03
5699.9
5678.36
5679.46
5694.07
5678.73
5686.71
5700.78
5699.44
5693.7
5555.36
5546.22
5553.11
5700.87
5700.78
5699.13
5691.01
5542.81
5526.56
5538.69
5701.9
5701.02
5699.51
5687.66
5552.46
5538.12
5555.97
5701.22
5701
5700.17
5683.24
5700.38
5700.55
5697.55
5690.56
5701.17
5700.92
5700.62
5700.53
5700.64
5700.76
5701.07
5701.47
5701.59
5701.59
5701.55
5701.72
5701.99
5702.19
5702.13
5701.61
5701.29
5694.9
5678.4
5700.99
5702.49
5702.61
5701.49
5701.19
5472.97
5428.2
5491.97
5702.96
5703.16
5701.6
5666.9
5422.64
5402.75
5436.47
5704.08
5703.74
5701.9
5701.83
5481.71
5427.49
5513.07
5703.7
5703.5
5702.21
5702.43
5702.92
5702.31
5703.74
5703.49
5703.14
5702.21
5702.64
5703.16
5703.8
5703.49
5703.13
5702.69
5701.02
5702.53
5703.57
5704.14
5703.2
5701.9
5700.29
5702.84
5704.49
5693.94
5643.45
5705.66
5703.79
5701.96
5704.07
5705.52
5379.06
5305.23
5471.71
5705.74
5703.3
5704.99
5623.93
5297.5
5283.85
5382.84
5706.77
5703.97
5704.12
5706.7
5442.57
5342
5543.6
5705.91
5703.33
5702.78
5704.72
5706.63
5708.07
5706.33
5704.1
5701.98
5701.03
5702.68
5704.04
5704.82
5703.73
5702.11
5700.4
5682.13
5684.06
5685.39
5685.99
5684.65
5682.82
5680.83
5684.34
5686.67
5677.43
5597.03
5687.26
5684.85
5682.54
5685.85
5689.11
5279.34
5166.9
5476.88
5686.59
5683.84
5686.75
5602.04
5161.18
5141.89
5395.85
5687.1
5684.26
5685.55
5688.47
5435.37
5294.87
5578.37
5686.04
5683.51
5683.74
5686.03
5688.05
5689.11
5686.65
5684.26
5682.07
5681.6
5683.39
5684.8
5685.31
5684.05
5682.24
5680.44
5700.39
5700.99
5701.35
5701.63
5701.83
5702
5702.16
5702.31
5699.59
5700.69
5701.16
5701.49
5701.75
5701.96
5702.14
5702.3
5699.17
5700.85
5701.15
5701.46
5701.7
5701.92
5702.13
5702.29
5699.15
5700.88
5701.17
5701.48
5701.72
5701.93
5702.14
5702.29
5699.22
5700.8
5701.19
5701.52
5701.77
5701.99
5702.2
5702.37
5699.64
5700.68
5701.24
5701.57
5701.83
5702.06
5702.25
5702.41
5700.39
5701.03
5701.44
5701.71
5701.93
5702.12
5702.28
5702.43
5701.43
5701.61
5701.76
5701.9
5702.02
5702.14
5702.26
5702.39
5701.34
5701.59
5701.75
5701.9
5702.04
5702.17
5702.31
5702.45
5701.47
5701.72
5701.84
5701.96
5702.08
5702.21
5702.35
5702.49
5701.68
5701.88
5701.95
5702.04
5702.16
5702.28
5702.41
5702.55
5701.64
5701.85
5701.96
5702.07
5702.19
5702.31
5702.44
5702.58
5701.63
5701.83
5701.97
5702.1
5702.22
5702.35
5702.47
5702.6
5701.77
5701.92
5702.04
5702.16
5702.27
5702.38
5702.49
5702.61
5701.82
5701.53
5701.33
5701.19
5701.1
5701.06
5701.08
5701.18
5702.27
5701.86
5701.54
5701.33
5701.2
5701.13
5701.14
5701.24
5702.8
5702.26
5701.8
5701.49
5701.3
5701.2
5701.19
5701.29
5703.19
5702.54
5701.99
5701.62
5701.4
5701.28
5701.25
5701.34
5702.99
5702.41
5701.94
5701.62
5701.41
5701.3
5701.28
5701.37
5702.64
5702.17
5701.82
5701.58
5701.42
5701.33
5701.32
5701.41
5702.26
5701.93
5701.69
5701.52
5701.4
5701.34
5701.34
5701.42
5698.78
5697.8
5697.24
5697.01
5697.11
5697.58
5698.46
5699.73
5700.02
5698.59
5697.65
5697.19
5697.15
5697.54
5698.43
5699.77
5701.08
5699.29
5698.03
5697.35
5697.18
5697.51
5698.38
5699.78
5701.57
5699.62
5698.23
5697.47
5697.25
5697.55
5698.42
5699.84
5701.05
5699.28
5698.07
5697.42
5697.26
5697.6
5698.49
5699.89
5700.06
5698.69
5697.81
5697.37
5697.34
5697.76
5698.66
5700.02
5698.99
5698.08
5697.56
5697.36
5697.5
5697.99
5698.9
5700.18
5679.17
5677.94
5677.02
5676.29
5675.61
5674.58
5672.98
5672.71
5680.45
5678.83
5677.58
5676.64
5675.83
5674.7
5672.91
5672.4
5681.4
5679.44
5677.94
5676.84
5675.93
5674.72
5672.8
5672.17
5681.77
5679.69
5678.1
5676.95
5676.01
5674.77
5672.81
5672.14
5681.18
5679.31
5677.87
5676.79
5675.9
5674.7
5672.77
5672.16
5680.18
5678.68
5677.51
5676.59
5675.79
5674.66
5672.85
5672.36
5679.03
5677.92
5677.04
5676.32
5675.63
5674.56
5672.91
5672.6
5700.69
5701.18
5701.49
5701.73
5701.93
5702.11
5702.27
5702.42
5700.28
5700.91
5701.22
5701.45
5701.66
5701.87
5701.99
5702.14
5700.11
5700.8
5701.19
5701.5
5701.74
5701.92
5702.07
5702.21
5700.16
5701.01
5701.36
5701.68
5701.96
5702.19
5702.38
5702.54
5700.21
5701.08
5701.36
5701.59
5701.83
5702.02
5702.16
5702.3
5700.34
5701.05
5701.31
5701.47
5701.65
5701.89
5702.06
5702.17
5700.78
5701.24
5701.49
5701.69
5701.87
5702.04
5702.19
5702.33
5701.33
5701.58
5701.77
5701.94
5702.08
5702.22
5702.34
5702.47
5700.93
5701.31
5701.57
5701.78
5701.96
5702.13
5702.28
5702.43
5700.66
5701.17
5701.48
5701.72
5701.93
5702.1
5702.25
5702.4
5700.49
5701.11
5701.47
5701.74
5701.97
5702.16
5702.33
5702.49
5700.55
5701.09
5701.43
5701.68
5701.9
5702.09
5702.25
5702.39
5700.71
5701.14
5701.43
5701.66
5701.85
5702.03
5702.19
5702.35
5701.04
5701.32
5701.54
5701.73
5701.89
5702.03
5702.17
5702.3
5701.87
5701.63
5701.47
5701.35
5701.28
5701.25
5701.27
5701.36
5701.99
5701.69
5701.45
5701.3
5701.21
5701.17
5701.2
5701.3
5702.05
5701.8
5701.5
5701.3
5701.18
5701.14
5701.16
5701.27
5702.03
5701.89
5701.56
5701.32
5701.18
5701.13
5701.16
5701.28
5701.83
5701.67
5701.4
5701.22
5701.13
5701.09
5701.13
5701.25
5701.63
5701.42
5701.23
5701.12
5701.06
5701.05
5701.09
5701.21
5701.41
5701.23
5701.13
5701.07
5701.03
5701.03
5701.08
5701.18
5699.46
5698.52
5697.99
5697.78
5697.89
5698.37
5699.24
5700.48
5700.7
5699.21
5698.26
5697.79
5697.74
5698.13
5699
5700.33
5701.9
5699.97
5698.59
5697.85
5697.64
5697.95
5698.81
5700.18
5702.68
5700.58
5698.88
5697.92
5697.62
5697.88
5698.7
5700.07
5701.99
5700.05
5698.58
5697.8
5697.58
5697.89
5698.74
5700.11
5700.77
5699.19
5698.17
5697.67
5697.6
5697.97
5698.83
5700.14
5699.33
5698.3
5697.73
5697.49
5697.58
5698.04
5698.89
5700.11
5679.99
5678.82
5677.91
5677.18
5676.48
5675.42
5673.79
5673.46
5681.41
5679.71
5678.44
5677.48
5676.67
5675.55
5673.79
5673.29
5682.79
5680.52
5678.82
5677.65
5676.72
5675.52
5673.64
5673.07
5683.85
5681.21
5679.16
5677.8
5676.79
5675.55
5673.66
5673.15
5683.07
5680.71
5678.94
5677.74
5676.8
5675.61
5673.76
5673.2
5681.81
5679.94
5678.6
5677.62
5676.81
5675.71
5673.97
5673.49
5680.2
5678.89
5677.96
5677.22
5676.54
5675.53
5673.98
5673.69
5700.81
5701.24
5701.53
5701.75
5701.96
5702.15
5702.31
5702.46
5700.54
5701.19
5701.47
5701.66
5701.8
5701.97
5702.13
5702.25
5700.33
5701.16
5701.55
5701.92
5702.13
5702.24
5702.35
5702.45
5700.3
5701.33
5701.65
5701.95
5702.25
5702.5
5702.69
5702.84
5700.23
5701.07
5701.41
5701.74
5701.96
5702.1
5702.22
5702.33
5700.4
5701.03
5701.37
5701.61
5701.76
5701.92
5702.11
5702.26
5700.6
5701.09
5701.46
5701.74
5701.98
5702.19
5702.38
5702.55
5701.08
5701.36
5701.59
5701.77
5701.93
5702.07
5702.2
5702.33
5700.86
5701.29
5701.58
5701.79
5701.95
5702.09
5702.22
5702.34
5700.88
5701.42
5701.75
5702
5702.2
5702.36
5702.48
5702.59
5700.87
5701.49
5701.86
5702.13
5702.34
5702.5
5702.64
5702.75
5700.96
5701.45
5701.74
5701.96
5702.14
5702.28
5702.4
5702.51
5701.12
5701.48
5701.7
5701.88
5702.02
5702.14
5702.25
5702.36
5701.41
5701.61
5701.78
5701.92
5702.04
5702.16
5702.27
5702.39
5701.43
5701.28
5701.18
5701.11
5701.07
5701.06
5701.09
5701.19
5701.65
5701.49
5701.32
5701.21
5701.13
5701.09
5701.11
5701.2
5701.92
5701.86
5701.67
5701.5
5701.4
5701.34
5701.36
5701.44
5702.17
5702.12
5701.88
5701.67
5701.54
5701.47
5701.49
5701.59
5702.13
5701.94
5701.68
5701.48
5701.34
5701.27
5701.27
5701.34
5701.97
5701.69
5701.45
5701.27
5701.15
5701.09
5701.09
5701.16
5701.78
5701.54
5701.36
5701.22
5701.13
5701.09
5701.1
5701.18
5699.29
5698.31
5697.73
5697.46
5697.51
5697.9
5698.69
5699.84
5700.45
5698.95
5697.92
5697.31
5696.38
5696.68
5697.76
5699.45
5701.54
5699.83
5698.46
5697.6
5697.18
5697.38
5698.22
5699.4
5702.03
5700.28
5698.76
5697.81
5697.41
5697.57
5698.27
5699.42
5701.22
5699.53
5698.2
5697.42
5696.99
5697.02
5697.85
5699.14
5699.95
5698.54
5697.57
5697.04
5696.45
5696.42
5697.18
5698.35
5698.77
5697.87
5697.3
5697.04
5697.1
5697.51
5698.31
5699.51
5680.29
5679.08
5678.13
5677.42
5676.67
5675.63
5674.08
5673.88
5681.5
5679.74
5677.75
5675.11
5675.53
5675.6
5673.96
5673.9
5682.71
5680.49
5678.77
5677.62
5676.75
5675.71
5674.13
5674.38
5683.24
5680.97
5679.05
5677.78
5676.92
5675.83
5674.16
5674.61
5682.14
5680.05
5678.44
5677.34
5676.49
5675.44
5673.87
5673.64
5680.62
5679.04
5677.34
5675.26
5675.99
5675.12
5673.48
5673.02
5679.38
5678.32
5677.42
5676.67
5675.96
5674.9
5673.31
5672.9
5700.54
5701.12
5701.5
5701.78
5702.02
5702.24
5702.43
5702.59
5700.21
5701.08
5701.42
5701.69
5701.9
5702.1
5702.28
5702.43
5699.96
5701.27
5701.43
5701.73
5701.97
5702.16
5702.32
5702.45
5699.82
5701.29
5701.49
5701.85
5702.15
5702.39
5702.58
5702.74
5699.84
5701.38
5701.51
5701.83
5702.08
5702.28
5702.44
5702.57
5700.12
5701.13
5701.43
5701.71
5701.9
5702.09
5702.28
5702.43
5700.67
5701.24
5701.54
5701.77
5701.96
5702.14
5702.3
5702.45
5701.77
5701.93
5702.06
5702.18
5702.29
5702.4
5702.51
5702.63
5701.62
5701.87
5702.03
5702.17
5702.29
5702.4
5702.51
5702.62
5701.58
5701.91
5702.08
5702.22
5702.35
5702.46
5702.57
5702.67
5701.59
5701.96
5702.14
5702.31
5702.45
5702.59
5702.71
5702.82
5701.43
5701.83
5702.04
5702.22
5702.37
5702.5
5702.62
5702.73
5701.32
5701.65
5701.86
5702.04
5702.19
5702.32
5702.44
5702.57
5701.4
5701.64
5701.83
5702
5702.14
5702.28
5702.4
5702.53
5702.27
5701.96
5701.73
5701.56
5701.44
5701.38
5701.37
5701.45
5702.66
5702.23
5701.89
5701.66
5701.5
5701.41
5701.39
5701.46
5703.08
5702.59
5702.15
5701.83
5701.62
5701.49
5701.44
5701.48
5703.37
5702.85
5702.35
5701.98
5701.75
5701.61
5701.55
5701.59
5702.95
5702.53
5702.13
5701.83
5701.64
5701.52
5701.48
5701.53
5702.38
5702.04
5701.76
5701.56
5701.44
5701.37
5701.36
5701.43
5701.94
5701.7
5701.54
5701.42
5701.35
5701.31
5701.33
5701.41
5699.02
5698.17
5697.67
5697.47
5697.6
5698.1
5698.99
5700.27
5700.13
5698.79
5697.9
5697.45
5697.42
5697.82
5698.71
5700.05
5701.41
5699.64
5698.38
5697.67
5697.47
5697.79
5698.63
5699.63
5702.26
5700.25
5698.74
5697.87
5697.56
5697.8
5698.58
5699.79
5701.73
5699.9
5698.59
5697.85
5697.63
5697.93
5698.76
5700.1
5700.57
5699.13
5698.19
5697.72
5697.66
5698.04
5698.89
5700.15
5699.46
5698.54
5698.01
5697.8
5697.91
5698.38
5699.25
5700.48
5679.13
5678.11
5677.26
5676.54
5675.86
5674.8
5673.17
5672.89
5680.22
5678.77
5677.59
5676.72
5676.02
5674.94
5673.24
5672.88
5681.52
5679.56
5678.01
5676.26
5675.28
5674.91
5673.13
5672.88
5682.45
5680.17
5678.38
5676.24
5674.6
5674.95
5673.2
5673.08
5682.06
5679.96
5678.36
5677.23
5675.63
5673.84
5672.05
5671.79
5681.01
5679.4
5678.18
5677.24
5676.41
5675.29
5673.57
5673.26
5679.96
5678.85
5677.95
5677.21
5676.51
5675.45
5673.83
5673.51
5702.45
5702.48
5702.45
5702.43
5702.53
5702.57
5702.57
5702.53
5702.6
5702.65
5702.71
5702.73
5702.75
5702.74
5701.38
5701.46
5701.5
5701.56
5701.59
5701.61
5701.6
5701.04
5701.18
5701.24
5701.32
5701.37
5701.44
5701.52
5678.04
5677.97
5677.93
5677.98
5677.96
5677.98
5677.96
5702.54
5702.33
5702.34
5702.67
5702.43
5702.29
5702.44
5702.61
5702.58
5702.54
5702.63
5702.53
5702.51
5702.44
5701.54
5701.49
5701.48
5701.5
5701.47
5701.41
5701.38
5701.74
5701.68
5701.59
5701.46
5701.51
5701.47
5701.35
5678.64
5678.72
5678.77
5679.08
5678.86
5678.87
5678.84
5702.58
5702.38
5702.54
5702.95
5702.42
5702.39
5702.67
5702.46
5702.45
5702.68
5702.84
5702.6
5702.47
5702.51
5701.36
5701.35
5701.58
5701.75
5701.49
5701.31
5701.36
5701.05
5700.67
5700.5
5700.51
5700.27
5699.97
5700.77
5679.15
5679.98
5681.08
5682.52
5679.61
5677.92
5678.21
5702.71
5702.57
5702.56
5702.86
5702.68
5702.55
5702.57
5702.75
5702.74
5702.77
5702.92
5702.83
5702.69
5702.66
5701.63
5701.63
5701.63
5701.74
5701.68
5701.6
5701.58
5701.59
5701.43
5700.33
5700.85
5701.02
5701.47
5701.74
5678.24
5678.59
5679.18
5679.53
5678.43
5678.93
5678.71
5702.64
5702.86
5703.06
5703.23
5703.38
5703.5
5703.58
5703.63
5702.76
5702.98
5703.16
5703.32
5703.46
5703.56
5703.64
5703.68
5702.76
5703.04
5703.21
5703.35
5703.48
5703.58
5703.66
5703.7
5702.71
5703.05
5703.27
5703.44
5703.53
5703.61
5703.68
5703.72
5702.78
5703.06
5703.25
5703.38
5703.51
5703.6
5703.67
5703.71
5702.83
5703.04
5703.22
5703.38
5703.51
5703.6
5703.67
5703.71
5702.76
5702.98
5703.17
5703.33
5703.46
5703.56
5703.63
5703.67
5702.75
5702.93
5703.08
5703.2
5703.3
5703.39
5703.47
5703.51
5702.83
5703.03
5703.17
5703.29
5703.39
5703.48
5703.54
5703.58
5702.88
5703.08
5703.23
5703.34
5703.43
5703.51
5703.57
5703.61
5702.93
5703.14
5703.29
5703.4
5703.48
5703.55
5703.6
5703.64
5702.95
5703.15
5703.29
5703.39
5703.47
5703.54
5703.6
5703.63
5702.96
5703.14
5703.28
5703.38
5703.46
5703.53
5703.59
5703.62
5702.95
5703.12
5703.24
5703.33
5703.42
5703.48
5703.54
5703.57
5701.74
5702.23
5702.61
5702.88
5703.08
5703.22
5703.32
5703.38
5701.84
5702.33
5702.71
5702.99
5703.18
5703.32
5703.41
5703.47
5701.9
5702.38
5702.76
5703.04
5703.23
5703.36
5703.45
5703.5
5701.95
5702.42
5702.81
5703.08
5703.27
5703.4
5703.49
5703.54
5701.97
5702.44
5702.82
5703.08
5703.27
5703.4
5703.48
5703.53
5701.98
5702.45
5702.82
5703.08
5703.27
5703.39
5703.47
5703.52
5701.96
5702.42
5702.79
5703.04
5703.22
5703.33
5703.41
5703.46
5702.36
5702.51
5702.61
5702.75
5702.89
5703.01
5703.11
5703.19
5702.53
5702.68
5702.77
5702.89
5703.02
5703.13
5703.22
5703.29
5702.61
5702.78
5702.86
5702.97
5703.09
5703.19
5703.27
5703.33
5702.7
5702.87
5702.94
5703.04
5703.15
5703.24
5703.32
5703.37
5702.74
5702.9
5702.96
5703.05
5703.15
5703.24
5703.31
5703.36
5702.8
5702.94
5702.99
5703.07
5703.15
5703.24
5703.31
5703.36
5702.83
5702.92
5702.95
5703.02
5703.1
5703.17
5703.24
5703.29
5689.5
5696.29
5699.41
5701.02
5701.91
5702.42
5702.73
5702.92
5689.43
5696.32
5699.49
5701.12
5702.02
5702.54
5702.85
5703.03
5689.39
5696.33
5699.52
5701.16
5702.07
5702.58
5702.88
5703.06
5689.42
5696.37
5699.56
5701.21
5702.11
5702.62
5702.92
5703.1
5689.43
5696.38
5699.57
5701.21
5702.11
5702.62
5702.92
5703.09
5689.48
5696.42
5699.6
5701.23
5702.12
5702.63
5702.92
5703.09
5689.52
5696.43
5699.59
5701.2
5702.08
5702.57
5702.85
5703.01
5702.7
5702.91
5703.09
5703.24
5703.35
5703.44
5703.5
5703.54
5702.58
5702.81
5703.02
5703.17
5703.29
5703.37
5703.41
5703.42
5702.53
5702.73
5702.88
5703
5703.09
5703.16
5703.18
5703.18
5702.86
5703.02
5703.13
5703.19
5703.21
5703.23
5703.26
5703.26
5702.61
5702.79
5702.94
5703.04
5703.11
5703.17
5703.19
5703.18
5702.56
5702.82
5703
5703.14
5703.27
5703.37
5703.41
5703.43
5702.59
5702.81
5703
5703.17
5703.3
5703.4
5703.48
5703.52
5702.81
5702.96
5703.07
5703.15
5703.22
5703.28
5703.32
5703.35
5702.8
5702.98
5703.09
5703.17
5703.22
5703.25
5703.28
5703.29
5702.74
5702.92
5703.01
5703.07
5703.08
5703.07
5703.05
5703.03
5702.81
5702.96
5703.05
5703.11
5703.12
5703.13
5703.13
5703.14
5702.73
5702.9
5703.01
5703.07
5703.09
5703.08
5703.06
5703.05
5702.73
5702.92
5703.04
5703.13
5703.19
5703.24
5703.27
5703.29
5702.65
5702.81
5702.94
5703.05
5703.13
5703.21
5703.27
5703.31
5701.88
5702.33
5702.66
5702.88
5703.03
5703.12
5703.18
5703.21
5701.83
5702.28
5702.62
5702.85
5702.99
5703.09
5703.14
5703.17
5701.85
5702.24
5702.57
5702.7
5702.69
5702.76
5702.77
5702.78
5701.88
5702.28
5702.58
5702.78
5702.87
5702.84
5702.82
5702.88
5701.85
5702.26
5702.58
5702.68
5702.7
5702.77
5702.78
5702.82
5701.77
5702.23
5702.57
5702.8
5702.95
5703.05
5703.12
5703.15
5701.74
5702.19
5702.53
5702.76
5702.92
5703.03
5703.11
5703.15
5702.94
5702.89
5702.85
5702.87
5702.92
5702.96
5703.01
5703.04
5702.91
5702.91
5702.86
5702.88
5702.91
5702.94
5702.97
5702.99
5702.87
5702.95
5702.91
5702.87
5702.67
5702.61
5702.82
5702.81
5702.82
5702.97
5702.96
5702.94
5702.93
5702.69
5702.38
5702.75
5702.79
5702.88
5702.85
5702.82
5702.64
5702.62
5702.85
5702.82
5702.7
5702.71
5702.71
5702.76
5702.82
5702.88
5702.93
5702.96
5702.51
5702.55
5702.58
5702.66
5702.75
5702.83
5702.91
5702.96
5689.86
5696.54
5699.58
5701.12
5701.95
5702.41
5702.66
5702.81
5689.84
5696.52
5699.56
5701.1
5701.91
5702.35
5702.6
5702.72
5689.84
5696.53
5699.59
5701.13
5701.94
5702.35
5702.54
5702.57
5690.04
5696.67
5699.72
5701.25
5702.05
5702.42
5701.9
5701.47
5689.88
5696.54
5699.58
5701.12
5701.93
5702.36
5702.56
5702.62
5689.92
5696.51
5699.52
5701.04
5701.86
5702.31
5702.56
5702.7
5689.94
5696.48
5699.47
5701
5701.83
5702.31
5702.58
5702.75
5702.72
5702.89
5703.05
5703.18
5703.29
5703.39
5703.47
5703.52
5702.64
5702.87
5703.01
5703.13
5703.19
5703.25
5703.31
5703.35
5702.68
5702.83
5702.95
5703.07
5703.14
5703.17
5703.19
5703.19
5703.08
5703.19
5703.26
5703.31
5703.33
5703.33
5703.32
5703.33
5702.56
5702.72
5702.88
5703
5703.09
5703.14
5703.17
5703.18
5702.59
5702.87
5703.04
5703.14
5703.22
5703.28
5703.33
5703.38
5702.82
5702.98
5703.12
5703.24
5703.35
5703.44
5703.51
5703.56
5702.66
5702.81
5702.93
5703.03
5703.11
5703.19
5703.26
5703.31
5702.61
5702.77
5702.9
5702.99
5703.05
5703.11
5703.15
5703.19
5702.79
5702.89
5702.96
5703.01
5703.04
5703.06
5703.06
5703.05
5702.95
5703.04
5703.1
5703.14
5703.16
5703.18
5703.18
5703.19
5702.72
5702.83
5702.91
5702.97
5703.01
5703.04
5703.05
5703.05
5702.62
5702.79
5702.92
5703.02
5703.09
5703.15
5703.21
5703.25
5702.7
5702.88
5703.01
5703.12
5703.21
5703.29
5703.36
5703.42
5701.67
5702.1
5702.44
5702.69
5702.86
5703
5703.09
5703.16
5701.66
5702
5702.29
5702.54
5702.72
5702.85
5702.95
5703.01
5701.86
5702.15
5702.39
5702.57
5702.71
5702.62
5702.5
5702.56
5702.03
5702.33
5702.55
5702.71
5702.81
5702.86
5702.86
5702.89
5701.77
5702.07
5702.32
5702.5
5702.63
5702.56
5702.63
5702.69
5701.63
5701.98
5702.28
5702.54
5702.73
5702.88
5702.99
5703.06
5701.71
5702.13
5702.48
5702.75
5702.95
5703.1
5703.2
5703.28
5702.26
5702.38
5702.46
5702.57
5702.69
5702.81
5702.91
5702.98
5702.03
5702.2
5702.26
5702.44
5702.53
5702.62
5702.7
5702.76
5701.53
5701.67
5701.85
5702.04
5702.4
5702.84
5702.75
5702.49
5701.61
5702.02
5702.28
5702.44
5702.39
5702.17
5702.16
5702.19
5701.42
5701.66
5701.83
5702.03
5702.25
5702.75
5702.83
5702.83
5701.79
5702.1
5702.19
5702.41
5702.53
5702.65
5702.75
5702.82
5702.06
5702.29
5702.44
5702.6
5702.75
5702.88
5703
5703.09
5690.06
5696.43
5699.34
5700.88
5701.73
5702.23
5702.55
5702.73
5689.75
5695.13
5698.02
5700.17
5701.35
5701.99
5702.32
5702.51
5690.14
5695.02
5699.38
5700.75
5701.6
5702.15
5702.47
5702.14
5692.45
5697.51
5699.7
5700.86
5701.39
5701.35
5701.59
5701.72
5689.86
5695.51
5699.45
5700.6
5701.48
5702
5702.34
5701.89
5688.49
5694.54
5697.3
5699.96
5701.39
5701.95
5702.31
5702.53
5689.64
5696.23
5699.28
5700.84
5701.72
5702.29
5702.63
5702.83
5702.87
5703.05
5703.21
5703.34
5703.45
5703.53
5703.59
5703.62
5702.78
5702.97
5703.12
5703.25
5703.34
5703.4
5703.44
5703.46
5702.71
5702.86
5703
5703.11
5703.19
5703.25
5703.27
5703.26
5703.02
5703.15
5703.24
5703.29
5703.33
5703.34
5703.35
5703.36
5702.82
5702.96
5703.07
5703.16
5703.22
5703.26
5703.27
5703.26
5702.72
5702.91
5703.08
5703.22
5703.31
5703.38
5703.42
5703.44
5702.73
5702.93
5703.1
5703.25
5703.36
5703.45
5703.51
5703.55
5702.95
5703.1
5703.21
5703.29
5703.36
5703.42
5703.46
5703.49
5702.91
5703.07
5703.17
5703.23
5703.28
5703.31
5703.33
5703.35
5702.91
5703.02
5703.09
5703.14
5703.17
5703.18
5703.18
5703.16
5703.04
5703.13
5703.18
5703.22
5703.23
5703.24
5703.24
5703.24
5702.95
5703.06
5703.12
5703.16
5703.18
5703.19
5703.18
5703.15
5702.87
5703.02
5703.12
5703.18
5703.23
5703.26
5703.29
5703.31
5702.84
5702.99
5703.09
5703.17
5703.24
5703.29
5703.34
5703.37
5701.96
5702.41
5702.75
5703
5703.16
5703.27
5703.34
5703.37
5701.95
5702.32
5702.64
5702.87
5703.02
5703.12
5703.18
5703.21
5701.93
5702.26
5702.51
5702.4
5702.46
5702.76
5703.01
5703
5702.02
5702.33
5702.59
5702.72
5702.76
5702.9
5702.98
5703.01
5701.97
5702.3
5702.54
5702.46
5702.39
5702.84
5703.03
5703.01
5701.91
5702.28
5702.59
5702.82
5702.97
5703.06
5703.13
5703.16
5701.9
5702.34
5702.66
5702.89
5703.04
5703.13
5703.2
5703.23
5702.87
5702.95
5702.96
5703.02
5703.08
5703.13
5703.18
5703.22
5702.73
5702.85
5702.85
5702.87
5702.92
5702.96
5703
5703.03
5701.78
5702.02
5702.05
5702.05
5702.59
5702.99
5702.93
5702.88
5702.07
5702.5
5702.63
5702.7
5702.67
5702.64
5702.69
5702.78
5701.77
5701.99
5702
5701.99
5702.18
5702.97
5702.98
5702.93
5702.77
5702.81
5702.8
5702.83
5702.86
5702.89
5702.93
5702.96
5702.93
5702.9
5702.87
5702.89
5702.94
5702.99
5703.04
5703.07
5689.7
5696.53
5699.64
5701.23
5702.08
5702.56
5702.83
5702.98
5689.92
5696.61
5699.63
5701.15
5701.96
5702.38
5702.61
5702.74
5690.33
5696.83
5699.8
5701.28
5701.96
5702.15
5702.23
5702.63
5689.36
5695.34
5698.16
5699.53
5700.41
5702.24
5702.4
5702.47
5690.46
5696.95
5699.88
5701.35
5702.09
5702.29
5702.32
5702.62
5690.08
5696.66
5699.64
5701.13
5701.92
5702.34
5702.57
5702.69
5689.93
5696.59
5699.62
5701.15
5701.97
5702.43
5702.69
5702.84
5703.66
5703.67
5703.68
5703.68
5703.67
5703.67
5703.66
5703.65
5703.7
5703.72
5703.72
5703.72
5703.71
5703.71
5703.7
5703.7
5703.72
5703.73
5703.73
5703.73
5703.73
5703.72
5703.72
5703.71
5703.73
5703.74
5703.75
5703.74
5703.74
5703.73
5703.73
5703.72
5703.73
5703.74
5703.74
5703.74
5703.74
5703.73
5703.73
5703.72
5703.73
5703.74
5703.74
5703.74
5703.73
5703.73
5703.72
5703.71
5703.69
5703.7
5703.7
5703.7
5703.69
5703.68
5703.68
5703.67
5703.54
5703.56
5703.57
5703.58
5703.58
5703.58
5703.58
5703.57
5703.61
5703.62
5703.63
5703.64
5703.64
5703.64
5703.63
5703.63
5703.63
5703.65
5703.66
5703.66
5703.66
5703.66
5703.65
5703.65
5703.66
5703.67
5703.68
5703.68
5703.68
5703.68
5703.67
5703.67
5703.65
5703.66
5703.67
5703.67
5703.67
5703.67
5703.67
5703.66
5703.64
5703.65
5703.66
5703.66
5703.66
5703.66
5703.66
5703.65
5703.59
5703.6
5703.61
5703.61
5703.61
5703.61
5703.61
5703.6
5703.42
5703.44
5703.46
5703.47
5703.48
5703.48
5703.47
5703.47
5703.5
5703.52
5703.54
5703.54
5703.55
5703.55
5703.54
5703.54
5703.53
5703.55
5703.56
5703.57
5703.57
5703.57
5703.57
5703.56
5703.56
5703.58
5703.59
5703.6
5703.6
5703.59
5703.59
5703.58
5703.55
5703.57
5703.58
5703.59
5703.59
5703.59
5703.58
5703.58
5703.54
5703.56
5703.57
5703.57
5703.58
5703.57
5703.57
5703.56
5703.48
5703.5
5703.51
5703.51
5703.52
5703.52
5703.51
5703.51
5703.23
5703.27
5703.29
5703.31
5703.32
5703.32
5703.32
5703.32
5703.33
5703.36
5703.38
5703.39
5703.4
5703.4
5703.4
5703.4
5703.37
5703.39
5703.41
5703.43
5703.43
5703.43
5703.43
5703.43
5703.4
5703.43
5703.44
5703.46
5703.46
5703.46
5703.46
5703.45
5703.4
5703.42
5703.44
5703.45
5703.45
5703.45
5703.45
5703.44
5703.39
5703.41
5703.42
5703.43
5703.44
5703.44
5703.44
5703.43
5703.32
5703.34
5703.35
5703.36
5703.37
5703.37
5703.37
5703.36
5703.01
5703.07
5703.12
5703.15
5703.17
5703.18
5703.18
5703.18
5703.12
5703.17
5703.21
5703.24
5703.25
5703.26
5703.27
5703.27
5703.15
5703.2
5703.24
5703.26
5703.28
5703.29
5703.29
5703.29
5703.18
5703.23
5703.27
5703.3
5703.31
5703.32
5703.32
5703.32
5703.17
5703.22
5703.26
5703.29
5703.3
5703.31
5703.31
5703.31
5703.17
5703.22
5703.26
5703.28
5703.3
5703.31
5703.31
5703.31
5703.09
5703.14
5703.18
5703.2
5703.22
5703.22
5703.23
5703.23
5703.55
5703.55
5703.55
5703.54
5703.54
5703.52
5703.51
5703.51
5703.43
5703.42
5703.42
5703.4
5703.38
5703.37
5703.31
5703.29
5703.17
5703.16
5703.16
5703.15
5703.15
5703.15
5703.16
5703.15
5703.28
5703.29
5703.3
5703.31
5703.32
5703.31
5703.3
5703.32
5703.17
5703.16
5703.15
5703.15
5703.15
5703.15
5703.15
5703.16
5703.44
5703.44
5703.43
5703.42
5703.4
5703.39
5703.33
5703.3
5703.54
5703.55
5703.55
5703.55
5703.54
5703.52
5703.51
5703.5
5703.37
5703.38
5703.38
5703.39
5703.39
5703.39
5703.38
5703.38
5703.3
5703.31
5703.31
5703.31
5703.32
5703.32
5703.27
5703.2
5703.03
5703.02
5703.02
5703.01
5703.02
5703.03
5703.03
5703
5703.15
5703.15
5703.16
5703.16
5703.17
5703.18
5703.2
5703.22
5703.04
5703.03
5703.01
5703
5703.01
5703.02
5703.03
5703.02
5703.3
5703.31
5703.32
5703.32
5703.32
5703.32
5703.29
5703.22
5703.33
5703.35
5703.36
5703.37
5703.37
5703.37
5703.37
5703.36
5703.23
5703.24
5703.25
5703.25
5703.25
5703.25
5703.25
5703.24
5703.19
5703.2
5703.21
5703.22
5703.23
5703.23
5703.23
5703.23
5702.86
5702.89
5702.86
5702.76
5702.62
5702.81
5702.82
5702.83
5702.95
5702.99
5702.97
5702.95
5702.91
5703.05
5703.06
5703.07
5702.92
5702.9
5702.69
5702.56
5702.54
5702.8
5702.82
5702.83
5703.18
5703.19
5703.21
5703.22
5703.23
5703.23
5703.23
5703.23
5703.18
5703.2
5703.21
5703.22
5703.22
5703.22
5703.22
5703.22
5703.05
5703.07
5703.08
5703.09
5703.09
5703.09
5703.09
5703.08
5703.01
5703.02
5703.03
5703.02
5703.04
5703.04
5703.04
5703.05
5702.73
5702.67
5702.61
5702.56
5702.24
5702.15
5702.51
5702.52
5702.82
5702.83
5702.81
5702.76
5702.67
5702.83
5702.85
5702.85
5702.77
5702.72
5702.66
5702.6
5702.22
5701.79
5702.28
5702.46
5702.98
5703
5703.01
5703.01
5703.03
5703.04
5703.04
5703.04
5703
5703.02
5703.04
5703.05
5703.06
5703.06
5703.06
5703.06
5702.87
5702.91
5702.94
5702.96
5702.97
5702.98
5702.98
5702.98
5702.78
5702.81
5702.82
5702.8
5702.79
5702.82
5702.86
5702.86
5702.52
5702.47
5702.26
5701.77
5700.38
5699.53
5699.8
5700.35
5702.65
5702.65
5702.65
5702.58
5702.3
5701.59
5702.57
5702.63
5702.61
5702.58
5702.52
5701.97
5701
5699.92
5699.93
5699.97
5702.76
5702.79
5702.81
5702.8
5702.8
5702.82
5702.84
5702.86
5702.83
5702.87
5702.91
5702.93
5702.95
5702.96
5702.96
5702.96
5703.55
5703.56
5703.57
5703.57
5703.56
5703.55
5703.54
5703.53
5703.38
5703.39
5703.41
5703.41
5703.41
5703.41
5703.41
5703.4
5703.18
5703.17
5703.16
5703.15
5703.14
5703.14
5703.14
5703.13
5703.33
5703.34
5703.34
5703.35
5703.36
5703.33
5703.34
5703.35
5703.18
5703.18
5703.18
5703.17
5703.17
5703.16
5703.16
5703.14
5703.41
5703.42
5703.43
5703.44
5703.44
5703.44
5703.44
5703.44
5703.59
5703.61
5703.62
5703.62
5703.62
5703.61
5703.6
5703.6
5703.34
5703.36
5703.38
5703.39
5703.4
5703.4
5703.39
5703.39
5703.22
5703.24
5703.26
5703.27
5703.28
5703.28
5703.28
5703.28
5703.05
5703.05
5703.04
5703.03
5702.99
5702.87
5702.85
5702.72
5703.19
5703.19
5703.19
5703.19
5703.18
5703.14
5703.13
5703
5703.06
5703.06
5703.06
5703.05
5703.01
5702.93
5702.87
5702.84
5703.28
5703.3
5703.32
5703.33
5703.34
5703.34
5703.34
5703.34
5703.45
5703.47
5703.49
5703.5
5703.5
5703.51
5703.5
5703.5
5703.2
5703.23
5703.25
5703.26
5703.27
5703.27
5703.27
5703.27
5703.05
5703.07
5703.1
5703.11
5703.12
5703.12
5703.12
5703.12
5702.6
5702.73
5703.02
5703.03
5703
5702.52
5702.39
5702.39
5702.91
5702.9
5702.91
5702.96
5702.96
5702.79
5702.6
5702.33
5702.73
5702.96
5702.99
5703.01
5703
5702.81
5702.66
5702.63
5703.1
5703.13
5703.16
5703.17
5703.18
5703.19
5703.19
5703.19
5703.32
5703.35
5703.37
5703.39
5703.4
5703.4
5703.4
5703.39
5703.03
5703.06
5703.09
5703.11
5703.12
5703.12
5703.13
5703.12
5702.79
5702.82
5702.86
5702.88
5702.88
5702.89
5702.89
5702.89
5702.53
5702.94
5703.12
5703.14
5703.16
5702.92
5702.55
5702.41
5702.43
5702.56
5702.61
5702.65
5702.66
5702.49
5702.27
5702.27
5702.44
5702.67
5702.98
5703.01
5702.99
5702.83
5702.72
5702.67
5702.87
5702.91
5702.94
5702.97
5702.98
5702.98
5702.99
5702.99
5703.15
5703.18
5703.21
5703.23
5703.25
5703.25
5703.25
5703.25
5702.83
5702.89
5702.93
5702.96
5702.98
5702.99
5703
5703
5702.6
5702.67
5702.74
5702.78
5702.8
5702.8
5702.8
5702.81
5702.16
5702.25
5702.95
5703.03
5703.03
5702.77
5702.57
5702.87
5702.16
5702.44
5702.49
5702.52
5702.52
5702.51
5702.52
5702.52
5701.75
5701.87
5702.83
5702.88
5702.82
5702.59
5702.48
5702.47
5702.63
5702.7
5702.77
5702.83
5702.85
5702.86
5702.87
5702.87
5702.94
5703
5703.05
5703.09
5703.11
5703.12
5703.13
5703.13
5703.64
5703.64
5703.64
5703.64
5703.63
5703.63
5703.62
5703.61
5703.46
5703.46
5703.46
5703.45
5703.44
5703.42
5703.4
5703.4
5703.25
5703.25
5703.24
5703.24
5703.24
5703.24
5703.24
5703.24
5703.37
5703.38
5703.39
5703.4
5703.4
5703.39
5703.39
5703.42
5703.24
5703.23
5703.22
5703.21
5703.21
5703.21
5703.21
5703.22
5703.45
5703.45
5703.44
5703.44
5703.42
5703.4
5703.38
5703.36
5703.56
5703.57
5703.57
5703.56
5703.56
5703.54
5703.53
5703.53
5703.51
5703.52
5703.53
5703.53
5703.53
5703.53
5703.52
5703.52
5703.36
5703.36
5703.37
5703.37
5703.37
5703.38
5703.37
5703.35
5703.13
5703.11
5703.1
5703.1
5703.1
5703.11
5703.11
5703.11
5703.24
5703.24
5703.24
5703.24
5703.25
5703.26
5703.28
5703.3
5703.12
5703.1
5703.08
5703.07
5703.07
5703.08
5703.08
5703.1
5703.32
5703.33
5703.33
5703.34
5703.34
5703.34
5703.34
5703.33
5703.38
5703.39
5703.4
5703.41
5703.41
5703.41
5703.4
5703.4
5703.39
5703.4
5703.41
5703.42
5703.42
5703.42
5703.41
5703.41
5703.23
5703.24
5703.25
5703.25
5703.26
5703.26
5703.26
5703.26
5702.98
5702.86
5702.71
5702.66
5702.76
5702.89
5702.89
5702.9
5702.98
5702.92
5702.89
5702.84
5703
5703.08
5703.09
5703.1
5702.89
5702.66
5702.6
5702.57
5702.59
5702.84
5702.8
5702.48
5703.18
5703.19
5703.2
5703.2
5703.21
5703.21
5703.21
5703.21
5703.25
5703.26
5703.27
5703.28
5703.28
5703.28
5703.28
5703.27
5703.24
5703.25
5703.26
5703.27
5703.27
5703.27
5703.27
5703.27
5703.04
5703.05
5703.06
5703.04
5703.04
5703.04
5703.05
5703.07
5702.82
5702.77
5702.72
5702.59
5702.08
5702.36
5702.61
5702.56
5702.78
5702.7
5702.6
5702.51
5702.61
5702.83
5702.84
5702.82
5702.88
5702.84
5702.79
5702.67
5702.22
5701.96
5701.75
5701.75
5702.98
5702.99
5703
5702.97
5702.95
5702.97
5702.97
5702.97
5703.09
5703.11
5703.12
5703.13
5703.13
5703.13
5703.13
5703.13
5703.05
5703.09