/*--------------------------------*- C++ -*----------------------------------*\
| =========                 |                                                 |
| \\      /  F ield         | OpenFOAM: The Open Source CFD Toolbox           |
|  \\    /   O peration     | Version:  plus.master                           |
|   \\  /    A nd           | Web:      www.OpenFOAM.com                      |
|    \\/     M anipulation  |                                                 |
\*---------------------------------------------------------------------------*/
FoamFile
{
    version     2.0;
    format      ascii;
    class       volVectorField;
    location    "5.4";
    object      U;
}
// * * * * * * * * * * * * * * * * * * * * * * * * * * * * * * * * * * * * * //

dimensions      [0 1 -1 0 0 0 0];

internalField   nonuniform List<vector> 
47285
(
(0.0441435 0.0396642 0.00060119)
(0.0329768 0.0439977 0.00594373)
(0.0192313 0.0451712 0.019161)
(-0.00816265 0.0454169 0.0270031)
(-0.0314984 0.0430529 0.015542)
(-0.0441304 0.0401404 0.00329591)
(-0.0533371 0.0348629 -0.0011685)
(0.0481919 0.0288184 0.00503653)
(0.0640093 0.059778 0.0687468)
(0.0590624 0.0796636 0.112926)
(-0.0105205 0.0805198 0.126563)
(-0.0723173 0.0756581 0.109122)
(-0.0709249 0.0536873 0.0602329)
(-0.0537551 0.0270132 0.000891682)
(0.0493324 0.0158305 0.0169233)
(0.0828388 0.0545996 0.101283)
(0.157608 0.159947 0.433932)
(-0.00561345 0.172853 0.528107)
(-0.156234 0.143904 0.428537)
(-0.0786686 0.0477383 0.0912352)
(-0.0501343 0.0149609 0.0108208)
(0.0482337 -0.00713396 0.0242106)
(0.0835088 -0.00944042 0.118271)
(0.169606 -0.00402348 0.50267)
(0.0530992 0.028805 1.54083)
(-0.152988 -0.00273216 0.574837)
(-0.0701206 -0.00791028 0.114605)
(-0.0440997 -0.00616541 0.0180322)
(0.0464859 -0.0262719 0.0142022)
(0.0800275 -0.0668889 0.100311)
(0.150139 -0.162542 0.435086)
(-0.0102863 -0.158274 0.568618)
(-0.155251 -0.147709 0.419608)
(-0.0774277 -0.0576132 0.0864224)
(-0.049951 -0.0235397 0.00821199)
(0.0445968 -0.0367669 0.00313757)
(0.0585713 -0.0666201 0.0615272)
(0.0515687 -0.0784125 0.0982641)
(-0.014768 -0.0735715 0.119243)
(-0.0692658 -0.0743876 0.0936397)
(-0.0683058 -0.0593436 0.053876)
(-0.0522383 -0.0341508 -0.000660697)
(0.0404891 -0.0471461 -0.000718217)
(0.029968 -0.0505249 0.00243603)
(0.0151821 -0.0478425 0.0137539)
(-0.0110878 -0.0439556 0.0208113)
(-0.0306015 -0.0464395 0.0100389)
(-0.0431472 -0.0459928 0.000408105)
(-0.0520455 -0.0418617 -0.00206709)
(0.0333526 0.0240401 0.0309546)
(0.025358 0.0264862 0.0467631)
(0.0131896 0.0194096 0.0816668)
(-0.00898767 0.0160545 0.103332)
(-0.0258967 0.0143285 0.0744878)
(-0.0349016 0.0186135 0.0425606)
(-0.040361 0.016635 0.029851)
(0.0334031 0.0171552 0.0445597)
(0.0341486 0.0259654 0.146138)
(0.0257884 0.0275171 0.232606)
(-0.0104783 0.025356 0.27262)
(-0.038388 0.0191266 0.222753)
(-0.0397441 0.015338 0.132032)
(-0.0380039 0.00842864 0.0383093)
(0.0250024 0.00733275 0.0768295)
(0.0293042 0.0189995 0.220166)
(0.0371009 0.0419169 0.664742)
(-0.0123684 0.0431428 0.914128)
(-0.0493184 0.0257178 0.660166)
(-0.0252937 0.00693447 0.193104)
(-0.0264496 -0.000566825 0.0597986)
(0.0197219 -0.00901386 0.0958892)
(0.0248422 -0.0109574 0.270087)
(0.0297173 -0.0085677 0.949392)
(-0.000345244 0.0221304 2.6009)
(-0.0331755 -0.00884072 1.03183)
(-0.0124673 -0.00889457 0.235991)
(-0.0167182 -0.00708736 0.0714238)
(0.0208531 -0.0210827 0.0685104)
(0.0222497 -0.034343 0.213805)
(0.0260355 -0.048557 0.668514)
(-0.0171679 -0.0275797 1.04775)
(-0.0415336 -0.0336714 0.64238)
(-0.0206412 -0.0199178 0.180629)
(-0.024319 -0.0111719 0.0522217)
(0.0264946 -0.0269868 0.0403997)
(0.0211434 -0.0339224 0.135394)
(0.0104331 -0.0237444 0.206111)
(-0.0132338 -0.0137026 0.250125)
(-0.0284824 -0.0167444 0.192769)
(-0.0312061 -0.0221723 0.119172)
(-0.03307 -0.0174436 0.0351053)
(0.026143 -0.0306747 0.0295424)
(0.0165105 -0.0297339 0.0415399)
(0.00397004 -0.0195437 0.0694181)
(-0.00997002 -0.0103519 0.0839168)
(-0.0193789 -0.0157872 0.0600781)
(-0.0279992 -0.0226809 0.0377596)
(-0.0345737 -0.0233217 0.0292471)
(0.0336806 0.0212469 0.0747629)
(0.0238645 0.0192319 0.101753)
(0.0104549 0.0139208 0.155477)
(-0.00637198 0.0064879 0.189665)
(-0.0196358 0.0120946 0.143475)
(-0.03149 0.0165452 0.0952323)
(-0.0407349 0.0182316 0.0748502)
(0.0310141 0.0118159 0.0972191)
(0.021968 0.0117756 0.194913)
(0.010021 0.0102403 0.317821)
(-0.0105865 0.00309366 0.402927)
(-0.0235041 0.00578006 0.288758)
(-0.0296361 0.00852918 0.164368)
(-0.0388118 0.00891276 0.0889059)
(0.0208017 0.000810986 0.14663)
(0.0139313 0.00267169 0.311062)
(0.00337134 0.0031433 0.782058)
(-0.0213341 -0.0198227 1.1652)
(-0.0293452 -0.00294296 0.690867)
(-0.0183578 -0.000426178 0.243384)
(-0.0315564 -0.000164685 0.115316)
(0.00965859 -0.00771717 0.178545)
(0.00238108 -0.0113499 0.413515)
(-0.0306631 -0.0176896 1.2256)
(-0.0557806 -0.0244315 2.79841)
(-0.0205593 -0.0150027 1.06958)
(-0.00641648 -0.00855063 0.286855)
(-0.0254642 -0.00557521 0.128243)
(0.0192537 -0.0138565 0.131853)
(0.00890658 -0.0191007 0.286514)
(-0.00350819 -0.0223794 0.733738)
(-0.0212433 0.000481157 1.16529)
(-0.0221127 -0.014706 0.627038)
(-0.0164954 -0.0132102 0.219657)
(-0.0309982 -0.0103354 0.106004)
(0.0261805 -0.0219273 0.0889653)
(0.0145094 -0.0213401 0.167381)
(0.00142248 -0.0108919 0.263118)
(-0.0104119 -0.000168509 0.317838)
(-0.0170508 -0.00975532 0.233863)
(-0.0253954 -0.017854 0.138879)
(-0.0355703 -0.0184807 0.0837881)
(0.0282254 -0.0290119 0.0725624)
(0.0172423 -0.0263387 0.0914386)
(0.00443325 -0.0189014 0.127472)
(-0.00582605 -0.0113242 0.147264)
(-0.0145598 -0.0190129 0.116597)
(-0.026309 -0.0245013 0.0871266)
(-0.0361827 -0.0265492 0.0732436)
(0.0449071 0.02934 0.157695)
(0.0293874 0.02043 0.187584)
(0.0126106 0.00994239 0.248003)
(-0.000825058 0.000664941 0.289704)
(-0.0147982 0.015231 0.234007)
(-0.0347268 0.0254705 0.180796)
(-0.0519612 0.0325288 0.157178)
(0.0383691 0.0136936 0.181395)
(0.0205841 0.00499449 0.276524)
(0.00621211 -0.000433324 0.418313)
(-0.00629765 -0.00947486 0.518867)
(-0.0150011 0.00427009 0.374672)
(-0.0301617 0.012933 0.238898)
(-0.0496358 0.0187354 0.17253)
(0.0233216 -0.000902463 0.232898)
(0.00825196 -0.0057223 0.408373)
(-0.0098007 -0.0163659 0.864438)
(-0.0190943 -0.0509168 1.25826)
(-0.0214939 -0.00764587 0.681559)
(-0.0223746 0.00231165 0.318208)
(-0.043694 0.00621749 0.197421)
(0.00882835 -0.00468644 0.268479)
(-0.00632801 -0.00937508 0.522788)
(-0.0561054 -0.0194285 1.33794)
(-0.0761096 -0.0503946 2.47513)
(-0.0273667 -0.0146296 0.909275)
(-0.016261 -0.00694693 0.353992)
(-0.0405339 -0.00403842 0.209376)
(0.0266423 -0.00923423 0.216141)
(0.00937261 -0.00899388 0.370259)
(-0.00723386 -0.0100478 0.728539)
(-0.0154248 0.000540771 1.04202)
(-0.0185696 -0.0140298 0.591513)
(-0.0243375 -0.014942 0.291246)
(-0.0448105 -0.0151869 0.189449)
(0.0383107 -0.0247721 0.172879)
(0.0210042 -0.0181456 0.237908)
(0.00554078 -0.00817543 0.337387)
(-0.00449099 -0.00013182 0.38634)
(-0.0138481 -0.0155829 0.305834)
(-0.0304273 -0.0249166 0.211599)
(-0.0485012 -0.0291852 0.168102)
(0.0431956 -0.0399523 0.155339)
(0.0279382 -0.0335423 0.175035)
(0.0121757 -0.0243731 0.209573)
(-0.000112114 -0.018633 0.230567)
(-0.0147201 -0.0294346 0.201392)
(-0.0331655 -0.0380547 0.171847)
(-0.0495681 -0.0433624 0.155579)
(0.0530079 0.0435129 0.300079)
(0.0365129 0.0337086 0.325069)
(0.017713 0.0220498 0.377572)
(0.00262291 0.0132607 0.417821)
(-0.0154274 0.0300726 0.365892)
(-0.0390812 0.0413797 0.320204)
(-0.0579832 0.049328 0.299042)
(0.0502883 0.0242602 0.318658)
(0.0305638 0.0137224 0.397227)
(0.0133886 0.00706015 0.538654)
(-0.00327425 -0.00108279 0.642206)
(-0.0178281 0.0171168 0.495039)
(-0.0385437 0.0259473 0.366334)
(-0.0599376 0.0317222 0.312268)
(0.0390502 0.00538562 0.358417)
(0.019802 -0.00156954 0.521893)
(0.000623111 -0.0116829 0.962369)
(-0.0183557 -0.0449431 1.35152)
(-0.029063 0.0010727 0.746205)
(-0.0370726 0.0111583 0.438331)
(-0.0588635 0.0146593 0.332067)
(0.0264975 -0.00221672 0.39091)
(0.00807002 -0.00737114 0.626699)
(-0.0395874 -0.0199356 1.41911)
(-0.069464 -0.0549879 2.09584)
(-0.0406574 -0.0157292 0.874464)
(-0.0366952 -0.00617106 0.467849)
(-0.0586909 -0.00307397 0.341604)
(0.0441164 -0.0122146 0.345063)
(0.0249692 -0.0110783 0.482157)
(0.00506235 -0.0161322 0.782074)
(-0.014323 -0.0170962 0.963751)
(-0.0281424 -0.0243336 0.643541)
(-0.0398453 -0.0224127 0.410183)
(-0.0602189 -0.0214861 0.32553)
(0.0525463 -0.032875 0.311786)
(0.0345213 -0.0274612 0.360662)
(0.0159556 -0.0208786 0.450973)
(-0.000744936 -0.0162995 0.492418)
(-0.0187655 -0.0309085 0.422165)
(-0.0402894 -0.0371033 0.342153)
(-0.060177 -0.0397501 0.308114)
(0.0547117 -0.0514947 0.296931)
(0.0379795 -0.0465522 0.313641)
(0.0198317 -0.0392827 0.34104)
(0.00264551 -0.0352376 0.358925)
(-0.0180053 -0.0451618 0.335659)
(-0.0397115 -0.0527848 0.311442)
(-0.0583183 -0.0571365 0.296504)
(-0.0506189 0.0211821 -0.000726516)
(-0.0491941 0.0157894 0.000130615)
(-0.0468614 0.0160077 0.000704872)
(-0.0450815 0.0162519 0.000883205)
(-0.0437017 0.0163591 0.000771866)
(-0.0425867 0.0164026 0.000433192)
(-0.0414663 0.0162559 -0.000115893)
(-0.0404694 0.01609 -0.000799994)
(-0.0498902 0.0123353 -0.00186863)
(-0.0518285 0.0073208 -0.000654458)
(-0.0499976 0.00934884 0.000156687)
(-0.0481927 0.00996785 0.000669978)
(-0.0468177 0.0100838 0.000792906)
(-0.0457511 0.00991591 0.000668385)
(-0.0443661 0.00963134 0.000279278)
(-0.0436443 0.00947891 -0.000221341)
(-0.0383977 0.00303714 -0.00137837)
(-0.0514893 0.00094432 -0.00152711)
(-0.0466802 0.00255628 -0.000515406)
(-0.0460016 0.00353522 0.000270888)
(-0.0452949 0.00417676 0.000524122)
(-0.0436005 0.00431088 0.000525231)
(-0.0429828 0.00441283 0.000341024)
(-0.042255 0.00447968 5.20924e-05)
(-0.035838 -0.00325078 -0.000502336)
(-0.0490294 -0.00279275 -0.0019286)
(-0.0446451 -0.00295333 -0.000993551)
(-0.0435091 -0.00265491 8.39497e-05)
(-0.0432585 -0.00238445 0.000388603)
(-0.0419543 -0.0021054 0.000520373)
(-0.0408273 -0.00181572 0.000394031)
(-0.0399268 -0.00151598 0.000134088)
(-0.0399721 -0.00911184 -0.00172976)
(-0.0503278 -0.00637466 -0.00173132)
(-0.0460255 -0.00792302 -0.000855215)
(-0.0459129 -0.00851613 0.000256214)
(-0.0446997 -0.00858241 0.00051749)
(-0.0434001 -0.00832681 0.000558744)
(-0.0425533 -0.00803086 0.000381176)
(-0.041688 -0.00771041 6.92307e-05)
(-0.0508777 -0.0203712 -0.00235823)
(-0.0482993 -0.0130018 -0.000830464)
(-0.0490462 -0.0150762 5.10975e-05)
(-0.0465826 -0.0151535 0.000621979)
(-0.0448536 -0.0148269 0.000757128)
(-0.0436462 -0.0142738 0.00059105)
(-0.0424966 -0.0136674 0.000183751)
(-0.0416637 -0.0131983 -0.000370213)
(-0.0489282 -0.0292328 -0.00108037)
(-0.045878 -0.0220739 -0.000118993)
(-0.0443759 -0.0215368 0.000507005)
(-0.0419496 -0.0209896 0.000680147)
(-0.0403929 -0.0204942 0.000521162)
(-0.0393531 -0.0201667 9.87953e-05)
(-0.0383378 -0.0198211 -0.000505207)
(-0.0370255 -0.019151 -0.00121874)
(-0.0425806 0.0150225 0.0279741)
(-0.0435441 0.016368 0.0273453)
(-0.0445063 0.0176867 0.025927)
(-0.0452529 0.0186937 0.0237777)
(-0.0456359 0.0193463 0.021155)
(-0.0456227 0.0196681 0.0182506)
(-0.0452255 0.0196951 0.0151705)
(-0.0444672 0.0194499 0.0120176)
(-0.0428493 0.00723015 0.0272871)
(-0.0450516 0.00909833 0.0269477)
(-0.0467083 0.0107015 0.0259714)
(-0.0480116 0.0118875 0.0241526)
(-0.0487404 0.0126617 0.0216364)
(-0.0488546 0.0130655 0.0187312)
(-0.0483959 0.0131639 0.0155779)
(-0.0474236 0.0130068 0.0123357)
(-0.0389419 -0.000920482 0.0276512)
(-0.0432937 0.00153564 0.0261735)
(-0.045986 0.00313853 0.0259451)
(-0.0481072 0.00423487 0.0247259)
(-0.0493924 0.00498843 0.02239)
(-0.0498262 0.00545043 0.0194955)
(-0.0495245 0.00567882 0.0162671)
(-0.0485585 0.00571851 0.0129139)
(-0.0348789 -0.00487324 0.0291044)
(-0.0410159 -0.00401734 0.0256949)
(-0.0445988 -0.00351955 0.0256875)
(-0.0472589 -0.00313372 0.0249251)
(-0.0488988 -0.00279143 0.0227419)
(-0.0495488 -0.00248469 0.0199337)
(-0.049352 -0.00221 0.0167128)
(-0.0484295 -0.0019628 0.0133138)
(-0.0372385 -0.00842502 0.027261)
(-0.0415389 -0.00935203 0.0263725)
(-0.0444295 -0.0100459 0.0260913)
(-0.0466728 -0.0104268 0.0251758)
(-0.0480001 -0.0105536 0.0229048)
(-0.0484712 -0.0104715 0.020055)
(-0.0481817 -0.0102264 0.0168488)
(-0.0472258 -0.00985356 0.0134967)
(-0.0391679 -0.0157153 0.0275078)
(-0.0416295 -0.0165605 0.0274062)
(-0.0435839 -0.0174717 0.0265091)
(-0.0449977 -0.0180533 0.0247365)
(-0.0457914 -0.0182875 0.0222876)
(-0.0459585 -0.018199 0.0194137)
(-0.0455561 -0.0178434 0.0162887)
(-0.0446442 -0.0172655 0.0130534)
(-0.0378643 -0.0221951 0.027988)
(-0.0390799 -0.0231044 0.0274022)
(-0.0402684 -0.0239691 0.0259817)
(-0.0410971 -0.0245419 0.0238452)
(-0.0415165 -0.0247804 0.0212822)
(-0.041521 -0.0247061 0.018439)
(-0.0411388 -0.0243524 0.0154378)
(-0.0403982 -0.0237368 0.0123776)
(-0.0468163 0.0202974 0.0662886)
(-0.0501937 0.0242341 0.0600679)
(-0.0532603 0.0275872 0.0528029)
(-0.0557883 0.030279 0.0444481)
(-0.0576895 0.0323408 0.0353787)
(-0.0589381 0.0338075 0.0260382)
(-0.0594824 0.0346697 0.016913)
(-0.0592001 0.0348505 0.00855509)
(-0.046784 0.011262 0.070296)
(-0.0522146 0.0148974 0.0626443)
(-0.0565776 0.0178602 0.0553451)
(-0.0601734 0.0202406 0.0469889)
(-0.0628854 0.0220489 0.0376803)
(-0.0646869 0.0233187 0.0278733)
(-0.0655258 0.0240569 0.018141)
(-0.0652582 0.0242177 0.0091664)
(-0.0436021 0.00223064 0.0756202)
(-0.0510979 0.00511062 0.0651726)
(-0.0568671 0.00718016 0.057804)
(-0.0615602 0.00880487 0.049649)
(-0.0651213 0.0100597 0.0403236)
(-0.0675239 0.0109726 0.0302512)
(-0.0687356 0.0115548 0.0200793)
(-0.0686142 0.0117875 0.0106022)
(-0.0406375 -0.00399068 0.0783859)
(-0.0494937 -0.00351769 0.0663695)
(-0.0560658 -0.00314777 0.0589309)
(-0.0613113 -0.00279893 0.0508743)
(-0.0652951 -0.0024571 0.0415706)
(-0.0680088 -0.0021333 0.031424)
(-0.0694324 -0.00183575 0.0211055)
(-0.0694262 -0.00156759 0.0114515)
(-0.0424509 -0.0106422 0.0749097)
(-0.0496549 -0.0123658 0.0657117)
(-0.0553963 -0.0135954 0.0584829)
(-0.0601147 -0.0144767 0.0503311)
(-0.0637308 -0.0150454 0.0409851)
(-0.0662158 -0.01534 0.0308906)
(-0.0675238 -0.0153778 0.0206916)
(-0.0675004 -0.0151405 0.0111809)
(-0.0437383 -0.0195215 0.070325)
(-0.0491254 -0.0220965 0.0633426)
(-0.0535606 -0.0242232 0.0561191)
(-0.0572388 -0.0258624 0.0477561)
(-0.0600613 -0.0270145 0.0384354)
(-0.0619986 -0.027713 0.0286123)
(-0.0629918 -0.0279657 0.0188545)
(-0.0628888 -0.027726 0.00984456)
(-0.0426932 -0.0280989 0.0658244)
(-0.0460974 -0.0313732 0.0596016)
(-0.0492197 -0.0341004 0.0522349)
(-0.0517732 -0.0362194 0.0438189)
(-0.0537063 -0.0377627 0.0347443)
(-0.0550062 -0.0387604 0.0254439)
(-0.0556315 -0.0392026 0.0163906)
(-0.0554634 -0.0390079 0.0081268)
(-0.0647181 0.0386844 0.144157)
(-0.0722118 0.0468473 0.134025)
(-0.0791051 0.0538399 0.122841)
(-0.084714 0.0593444 0.110577)
(-0.0886163 0.0631838 0.0974275)
(-0.0903701 0.0651548 0.0834447)
(-0.0894707 0.0649824 0.0683321)
(-0.0854457 0.0623855 0.051344)
(-0.0651279 0.0236961 0.151512)
(-0.0761959 0.0300734 0.139808)
(-0.0856721 0.0356064 0.128495)
(-0.0935998 0.0400712 0.11622)
(-0.0993945 0.0433082 0.102885)
(-0.10247 0.045114 0.0885123)
(-0.102129 0.0452107 0.0727673)
(-0.0977053 0.0433331 0.0547295)
(-0.0626597 0.00948268 0.15904)
(-0.0762752 0.0132503 0.14478)
(-0.0877973 0.016482 0.133318)
(-0.0975712 0.0191914 0.121193)
(-0.104936 0.0212095 0.107896)
(-0.109155 0.0223946 0.0933847)
(-0.109392 0.0225883 0.0772955)
(-0.104834 0.0216419 0.058598)
(-0.0609337 -0.00345941 0.162363)
(-0.0755495 -0.00334609 0.146923)
(-0.0878563 -0.00314572 0.135443)
(-0.0983232 -0.00287828 0.123458)
(-0.106283 -0.00256888 0.110259)
(-0.110955 -0.00224469 0.0957752)
(-0.111441 -0.00192152 0.0796327)
(-0.106863 -0.00160597 0.0607644)
(-0.0621253 -0.0171548 0.158572)
(-0.075139 -0.0202195 0.145579)
(-0.0864664 -0.0227781 0.134455)
(-0.0961757 -0.0247637 0.122545)
(-0.103553 -0.0260807 0.10945)
(-0.107837 -0.0266231 0.0951399)
(-0.108163 -0.02624 0.0792407)
(-0.103692 -0.0247717 0.0607122)
(-0.0629478 -0.0322669 0.151982)
(-0.0735732 -0.0375654 0.14127)
(-0.0828766 -0.0421997 0.130428)
(-0.090752 -0.0458809 0.118571)
(-0.0965956 -0.0484003 0.105668)
(-0.0997799 -0.04954 0.0917281)
(-0.0995902 -0.0490201 0.0763919)
(-0.0953401 -0.046554 0.0587175)
(-0.061937 -0.0476247 0.144546)
(-0.0691445 -0.0546166 0.13494)
(-0.075845 -0.0605791 0.124256)
(-0.0813038 -0.0652206 0.112553)
(-0.085081 -0.068339 0.0999972)
(-0.0867418 -0.0696943 0.0866053)
(-0.0858064 -0.068974 0.0720452)
(-0.0818055 -0.0658536 0.0555358)
(-0.0714315 0.0558393 0.284075)
(-0.0789078 0.0660975 0.26904)
(-0.0867145 0.0759787 0.248184)
(-0.094165 0.0851032 0.219501)
(-0.1013 0.0934469 0.181576)
(-0.109098 0.101644 0.133925)
(-0.119011 0.110569 0.0774453)
(-0.128014 0.117381 0.0148649)
(-0.0759135 0.0362938 0.292503)
(-0.0872579 0.0438506 0.277425)
(-0.0980938 0.0513032 0.258162)
(-0.108524 0.0582391 0.231321)
(-0.118462 0.0644884 0.194569)
(-0.129048 0.0704082 0.146652)
(-0.142286 0.0767433 0.087961)
(-0.154578 0.0816736 0.0211365)
(-0.0769981 0.0173509 0.299741)
(-0.0907841 0.021506 0.283425)
(-0.103816 0.0256432 0.265194)
(-0.116415 0.0295547 0.239903)
(-0.1284 0.0330635 0.20435)
(-0.140958 0.036296 0.156583)
(-0.156397 0.0396511 0.0965469)
(-0.170775 0.0422156 0.026804)
(-0.0772065 -0.0024936 0.302848)
(-0.0918224 -0.00203976 0.28585)
(-0.105675 -0.00148253 0.26799)
(-0.119099 -0.000875235 0.243321)
(-0.131879 -0.0002995 0.208287)
(-0.145187 0.000163518 0.160663)
(-0.161418 0.000457338 0.100212)
(-0.176499 0.000566891 0.02945)
(-0.0770309 -0.0224355 0.299025)
(-0.0905798 -0.0253834 0.283757)
(-0.103721 -0.0282881 0.265866)
(-0.116562 -0.0309854 0.240758)
(-0.128851 -0.0334265 0.205328)
(-0.141703 -0.0358454 0.157651)
(-0.157364 -0.0387078 0.0976813)
(-0.171835 -0.0411054 0.0279774)
(-0.0755086 -0.0419887 0.292183)
(-0.0869391 -0.047869 0.277982)
(-0.0981755 -0.0537118 0.259122)
(-0.109204 -0.0591807 0.232561)
(-0.119829 -0.0641995 0.196037)
(-0.131072 -0.0692199 0.148321)
(-0.144818 -0.0750539 0.0898305)
(-0.157347 -0.079881 0.0232011)
(-0.0719065 -0.0610871 0.283387)
(-0.0797836 -0.0694599 0.268665)
(-0.0882427 -0.0775479 0.247953)
(-0.0965327 -0.0850951 0.219394)
(-0.104573 -0.092148 0.181623)
(-0.113233 -0.0994314 0.134197)
(-0.123834 -0.107885 0.0780524)
(-0.133193 -0.114676 0.0159063)
(0.0359112 -0.0376613 -0.000252609)
(0.0340288 -0.0347317 0.000340773)
(0.0312814 -0.032256 0.000441833)
(0.0305675 -0.0313587 0.000230256)
(0.0293237 -0.0299608 -0.000252334)
(0.0288255 -0.0292196 -0.000909078)
(0.0279798 -0.0283861 -0.00170123)
(0.0271563 -0.0273533 -0.00257628)
(0.0384553 -0.026359 -0.000489562)
(0.0385011 -0.0242068 -6.75851e-05)
(0.0355468 -0.022764 0.000268795)
(0.0345967 -0.0214979 0.000284613)
(0.0324179 -0.0196467 0.000107175)
(0.0324789 -0.0192985 -0.000138716)
(0.0333183 -0.0195639 -0.000465826)
(0.0306335 -0.0179899 -0.00060564)
(0.0446626 -0.0176344 0.00179497)
(0.0428542 -0.0158646 0.000854572)
(0.0383388 -0.0158526 0.00132429)
(0.0345042 -0.0157332 0.00148684)
(0.0340396 -0.0170022 0.00128403)
(0.0318389 -0.0171362 0.000636605)
(0.0305197 -0.0170934 -0.00015977)
(0.0291936 -0.0174833 -0.000916064)
(0.047773 -0.00419973 0.00516107)
(0.0471526 -0.00327713 0.0033933)
(0.0429878 -0.00397863 0.00434158)
(0.0384031 -0.00408051 0.00474788)
(0.0366266 -0.00354768 0.00482515)
(0.0339975 -0.00330947 0.00444877)
(0.031726 -0.00303826 0.00385571)
(0.0295498 -0.00274695 0.00322145)
(0.0444813 0.00791127 0.00298954)
(0.045868 0.00758432 0.00243296)
(0.0416468 0.00819844 0.00308198)
(0.0364289 0.00813189 0.00291874)
(0.0342118 0.0090902 0.00248083)
(0.0335286 0.0103696 0.00192167)
(0.0314591 0.0108103 0.00110778)
(0.0296424 0.0111973 0.000272677)
(0.0406675 0.0182024 0.000158246)
(0.0416368 0.0165879 0.000420813)
(0.0382861 0.0171273 0.000628321)
(0.0370103 0.0170736 0.00059674)
(0.0345939 0.0161092 0.000411494)
(0.0337283 0.0159411 0.000216734)
(0.0332839 0.0161241 -4.95596e-05)
(0.0326337 0.0162623 -0.000260726)
(0.0390291 0.0284323 0.000290742)
(0.0387011 0.0260635 0.000714164)
(0.0360279 0.0255273 0.000716197)
(0.0351896 0.0254088 0.000408564)
(0.0341156 0.0245618 -0.000148538)
(0.033969 0.0245088 -0.000896141)
(0.0330697 0.0241874 -0.00177727)
(0.0320976 0.0237375 -0.00273791)
(0.0299989 -0.0284289 0.0276837)
(0.031215 -0.0286785 0.0264535)
(0.0324795 -0.0290428 0.0244673)
(0.0334649 -0.0293124 0.0219095)
(0.0340368 -0.0293619 0.018975)
(0.0341958 -0.0291756 0.0158303)
(0.0339492 -0.0287475 0.0125647)
(0.0333214 -0.0280775 0.00925773)
(0.0322981 -0.0225144 0.0292092)
(0.0338202 -0.022209 0.0276109)
(0.0352223 -0.0223674 0.0259343)
(0.0364192 -0.0226123 0.0235799)
(0.0371388 -0.0227601 0.0207035)
(0.0373355 -0.0227747 0.0174616)
(0.0369823 -0.0226095 0.0139607)
(0.0360792 -0.0222333 0.0105698)
(0.0335415 -0.0141778 0.0329897)
(0.0349052 -0.0136784 0.0294941)
(0.036181 -0.0136822 0.0284439)
(0.0372726 -0.0138412 0.0269023)
(0.0378807 -0.0139961 0.0245999)
(0.0378078 -0.0140419 0.0217841)
(0.0371475 -0.0139965 0.0186821)
(0.0359097 -0.0138772 0.0154467)
(0.0346677 -0.00587498 0.0384004)
(0.0361549 -0.00467896 0.0314543)
(0.037193 -0.00415707 0.0307524)
(0.0380774 -0.00378583 0.0297948)
(0.0384469 -0.00342937 0.028109)
(0.0380976 -0.00310761 0.0258936)
(0.0370922 -0.00282246 0.0233346)
(0.0354835 -0.00256308 0.0205767)
(0.0362522 0.00304685 0.0356375)
(0.037481 0.00454647 0.0307895)
(0.0382894 0.00561383 0.0294356)
(0.0389852 0.00655772 0.0278422)
(0.0392986 0.00744829 0.0256435)
(0.0390294 0.00823205 0.022836)
(0.0381604 0.00885227 0.0197108)
(0.0367741 0.00932513 0.0164589)
(0.0374199 0.0135426 0.0301329)
(0.0383004 0.0142995 0.0280591)
(0.0391724 0.0152442 0.0261906)
(0.0399909 0.0161522 0.0237211)
(0.0404353 0.0168691 0.0207811)
(0.0404212 0.0173691 0.0175209)
(0.0398938 0.0176447 0.0140213)
(0.0388631 0.0176889 0.0105079)
(0.0357572 0.0215371 0.0281993)
(0.0364572 0.0221782 0.0267332)
(0.0373264 0.0230063 0.0245326)
(0.0380643 0.0237214 0.0217512)
(0.0384844 0.0241925 0.0185998)
(0.0385429 0.0244058 0.0152256)
(0.0382175 0.0243566 0.0117431)
(0.0375238 0.0240529 0.00825501)
(0.0351315 -0.030083 0.0646761)
(0.0389841 -0.0331282 0.0581727)
(0.0425142 -0.0357397 0.0504484)
(0.04544 -0.037788 0.0415906)
(0.0476841 -0.0392882 0.0320194)
(0.0492241 -0.040266 0.0221975)
(0.0500121 -0.0407114 0.0126367)
(0.0499426 -0.0405554 0.00392653)
(0.0348388 -0.0219097 0.0706617)
(0.040342 -0.0240561 0.0632822)
(0.0449958 -0.025973 0.0560206)
(0.0489834 -0.0275072 0.0475195)
(0.0521323 -0.0285841 0.0379517)
(0.0543882 -0.0292145 0.0277832)
(0.0556742 -0.0294016 0.017608)
(0.0558396 -0.0291073 0.00815897)
(0.0328414 -0.0119709 0.0792092)
(0.0394202 -0.0134789 0.0681253)
(0.0447533 -0.0145549 0.0614566)
(0.0493824 -0.0153691 0.0538954)
(0.0530853 -0.0158948 0.0449952)
(0.0557094 -0.0161392 0.0351272)
(0.0572091 -0.0161402 0.0249565)
(0.0574185 -0.0159031 0.0152887)
(0.0293031 -0.00466042 0.0889966)
(0.0380647 -0.0037742 0.0708519)
(0.0439465 -0.00326966 0.0642465)
(0.048826 -0.00283578 0.0573441)
(0.0527215 -0.00240374 0.0491677)
(0.0553704 -0.00199149 0.0398922)
(0.0567633 -0.00160997 0.0302102)
(0.0568594 -0.00126506 0.0209761)
(0.0342793 0.00235863 0.0821131)
(0.0409411 0.00581787 0.0687041)
(0.0460979 0.00800914 0.0618578)
(0.0505686 0.00975818 0.0543423)
(0.0541113 0.0111585 0.0454998)
(0.0565805 0.0121936 0.0356736)
(0.0579761 0.0128842 0.025528)
(0.0580425 0.0132147 0.0158268)
(0.0387609 0.0134575 0.071687)
(0.0438585 0.0168411 0.0634178)
(0.0481528 0.0196299 0.0560931)
(0.051871 0.0219042 0.0476025)
(0.0547807 0.0236165 0.0380215)
(0.0568085 0.0248071 0.0278145)
(0.0578749 0.0254918 0.0175814)
(0.0578278 0.0256384 0.00805619)
(0.0396874 0.0230126 0.065403)
(0.0431897 0.0267722 0.0588623)
(0.0464489 0.0300478 0.051183)
(0.0491839 0.0326933 0.042309)
(0.0512714 0.0347158 0.032677)
(0.0526778 0.0361464 0.0227671)
(0.0533502 0.0369784 0.0131039)
(0.0531813 0.0371476 0.00428643)
(0.0556723 -0.0447227 0.143712)
(0.0637901 -0.052095 0.133711)
(0.071216 -0.0582695 0.12258)
(0.0773054 -0.0630183 0.110382)
(0.0816078 -0.0661974 0.0973219)
(0.0836787 -0.0675813 0.0834342)
(0.0830335 -0.0668521 0.0683858)
(0.0792297 -0.0637083 0.0513734)
(0.0530668 -0.0289508 0.152818)
(0.064756 -0.034725 0.141619)
(0.0750471 -0.0395193 0.130591)
(0.0839015 -0.0431497 0.118464)
(0.0906446 -0.0454895 0.10523)
(0.0946258 -0.0463857 0.0909322)
(0.0950984 -0.0455886 0.0752338)
(0.0913684 -0.0428418 0.0571871)
(0.0473369 -0.0130774 0.163737)
(0.0617711 -0.0173052 0.148707)
(0.0741118 -0.0202167 0.137907)
(0.0849391 -0.0222618 0.126462)
(0.0934139 -0.0234797 0.113805)
(0.098717 -0.023856 0.099898)
(0.0999585 -0.023295 0.08443)
(0.096272 -0.0216647 0.0663914)
(0.0396515 -0.00286264 0.174183)
(0.0581037 -0.00267914 0.15231)
(0.0718045 -0.00241331 0.141083)
(0.083634 -0.00206661 0.130249)
(0.0928937 -0.00166869 0.118279)
(0.0986481 -0.00128062 0.104899)
(0.100127 -0.000936766 0.0899687)
(0.0964446 -0.000642643 0.0724599)
(0.0464348 0.00567489 0.166145)
(0.0618128 0.0112865 0.148688)
(0.0744232 0.0151455 0.137434)
(0.0854092 0.0180537 0.125807)
(0.0939455 0.0200494 0.112944)
(0.0992601 0.0211082 0.0988235)
(0.100491 0.0211305 0.0831636)
(0.0967845 0.0199975 0.0649707)
(0.0541949 0.0205714 0.153388)
(0.0663024 0.0277771 0.140854)
(0.0767239 0.0336313 0.129336)
(0.0856591 0.038178 0.116765)
(0.0924113 0.0413002 0.103064)
(0.0963444 0.042878 0.0883048)
(0.0967219 0.0426918 0.0721828)
(0.0928702 0.0405117 0.0537782)
(0.0574814 0.0364074 0.143747)
(0.0657692 0.0451128 0.133228)
(0.073335 0.052387 0.121636)
(0.0795435 0.0580206 0.108891)
(0.0839324 0.0619284 0.0952359)
(0.0860587 0.0639306 0.0807575)
(0.0854073 0.0637471 0.0651702)
(0.0815229 0.0611128 0.0477104)
(0.0683539 -0.0559092 0.283436)
(0.077186 -0.0643775 0.268629)
(0.0863129 -0.0723416 0.247927)
(0.0951374 -0.0796754 0.219392)
(0.10356 -0.0865151 0.181579)
(0.112435 -0.0936369 0.13394)
(0.123091 -0.102037 0.0773387)
(0.13241 -0.108956 0.0145183)
(0.067854 -0.0362002 0.293644)
(0.0805741 -0.0422627 0.279354)
(0.0929606 -0.047834 0.260752)
(0.105064 -0.0527653 0.234463)
(0.116609 -0.0571564 0.198067)
(0.128554 -0.061589 0.150152)
(0.142759 -0.06699 0.090989)
(0.155599 -0.0716728 0.0232245)
(0.0637229 -0.0161557 0.303912)
(0.0791028 -0.0201616 0.287507)
(0.0938776 -0.0231619 0.270157)
(0.108447 -0.0255149 0.245743)
(0.122399 -0.0274271 0.210819)
(0.136756 -0.0293223 0.163215)
(0.153682 -0.031817 0.102739)
(0.169188 -0.0341484 0.0319836)
(0.0567488 -0.00106353 0.31272)
(0.0755068 -0.00071558 0.291641)
(0.0918387 -0.000177555 0.274446)
(0.10762 0.000403835 0.250907)
(0.12263 0.000914409 0.217015)
(0.137964 0.00125965 0.170123)
(0.155943 0.00138975 0.109814)
(0.172367 0.00130491 0.0385173)
(0.0618525 0.0124008 0.305728)
(0.0780564 0.0180595 0.287591)
(0.093003 0.0224224 0.269814)
(0.107564 0.026028 0.2452)
(0.121396 0.0289746 0.210145)
(0.135584 0.0315833 0.162457)
(0.152346 0.0344098 0.101934)
(0.16775 0.0366962 0.031148)
(0.0666307 0.031091 0.294664)
(0.0795204 0.0392274 0.279285)
(0.0917049 0.0466266 0.260269)
(0.103385 0.0531713 0.233702)
(0.114368 0.0588828 0.197081)
(0.125736 0.0642613 0.148977)
(0.139476 0.0701633 0.0896336)
(0.152094 0.0748984 0.0216823)
(0.0664129 0.0510594 0.284612)
(0.0748946 0.0616548 0.269576)
(0.0834589 0.0715746 0.248828)
(0.0915271 0.0806056 0.220246)
(0.099114 0.0888307 0.18232)
(0.10718 0.096934 0.134456)
(0.117189 0.10584 0.0774756)
(0.126199 0.112785 0.0141413)
(0.0341437 0.0347279 0.000618132)
(0.0328224 0.0331029 0.00119176)
(0.0325046 0.0300416 0.00142041)
(0.0331333 0.0283859 0.0013547)
(0.0333618 0.0265133 0.00107456)
(0.0337762 0.0253657 0.000674469)
(0.0337134 0.0240817 8.13754e-05)
(0.0332255 0.0226407 -0.000652128)
(0.0223905 0.0371321 0.000682074)
(0.0201817 0.0356008 0.000952149)
(0.0203775 0.031811 0.00133361)
(0.0199789 0.0295035 0.0014613)
(0.0194151 0.0278996 0.00129633)
(0.0188855 0.0265491 0.00102839)
(0.0190358 0.0263995 0.000831611)
(0.0188995 0.02554 0.000591542)
(0.00859693 0.0405552 0.00300606)
(0.00756936 0.039433 0.00193632)
(0.00956924 0.0336302 0.00291649)
(0.0105571 0.0273286 0.00399867)
(0.0136287 0.0273239 0.00559784)
(0.0147594 0.0233115 0.0054563)
(0.0155595 0.0220874 0.00483418)
(0.0163545 0.0212359 0.00419898)
(-0.00702928 0.0393947 0.0050139)
(-0.00733667 0.042434 0.00460464)
(-0.00771851 0.0370106 0.00700967)
(-0.00713258 0.0316877 0.00829246)
(-0.00660783 0.029281 0.00898049)
(-0.00588555 0.0266613 0.00917296)
(-0.00507741 0.0240804 0.00892257)
(-0.00437012 0.0220455 0.00849458)
(-0.0203025 0.0373355 0.00169119)
(-0.0179411 0.0369887 0.00113984)
(-0.0182874 0.0307635 0.00206769)
(-0.0190014 0.026714 0.00302746)
(-0.0211769 0.0256218 0.00395848)
(-0.0230671 0.0232591 0.00415011)
(-0.0234525 0.0218089 0.00382513)
(-0.0232802 0.0210125 0.00337062)
(-0.0350454 0.0352022 -2.71765e-05)
(-0.0326363 0.0326827 0.000666741)
(-0.0318136 0.0285269 0.00127683)
(-0.0302628 0.0262245 0.00161252)
(-0.0290333 0.0262106 0.00158249)
(-0.0260795 0.0241463 0.0012733)
(-0.0256742 0.0243132 0.00115891)
(-0.0252752 0.0239927 0.00102642)
(-0.0450479 0.0310648 -0.000164205)
(-0.0427345 0.0274821 0.000760453)
(-0.0418025 0.0251239 0.00139718)
(-0.0414899 0.0234293 0.00175528)
(-0.0414075 0.0218968 0.00185617)
(-0.0415483 0.0202882 0.00180102)
(-0.0410765 0.0186132 0.00157546)
(-0.0410885 0.0173543 0.00116028)
(0.0305462 0.0258761 0.0299132)
(0.0313197 0.0263078 0.0288441)
(0.0323015 0.0269879 0.0270796)
(0.0332334 0.0275708 0.0246835)
(0.0339082 0.0279004 0.0218674)
(0.0342489 0.0279515 0.0187902)
(0.0342308 0.0277143 0.0155375)
(0.0338782 0.0272038 0.0122334)
(0.0210999 0.0283412 0.0338718)
(0.0213849 0.0281141 0.0325602)
(0.0220939 0.0283777 0.0315434)
(0.0229623 0.0288445 0.0299681)
(0.0237973 0.0292013 0.0277913)
(0.0245106 0.0292977 0.0251869)
(0.0250367 0.029066 0.0222835)
(0.0253482 0.0284545 0.0192367)
(0.00770372 0.0280235 0.0411914)
(0.0084158 0.0277985 0.0364678)
(0.00924883 0.0278891 0.0361196)
(0.0102108 0.0282381 0.0355316)
(0.011222 0.0284781 0.0339358)
(0.0120842 0.0282191 0.0318171)
(0.0128126 0.0276721 0.0294011)
(0.0134129 0.0267554 0.0267586)