/*--------------------------------*- C++ -*----------------------------------*\
| =========                 |                                                 |
| \\      /  F ield         | OpenFOAM: The Open Source CFD Toolbox           |
|  \\    /   O peration     | Version:  plus.master.MPPICInterFoam            |
|   \\  /    A nd           | Web:      www.OpenFOAM.com                      |
|    \\/     M anipulation  |                                                 |
\*---------------------------------------------------------------------------*/
FoamFile
{
    version     2.0;
    format      ascii;
    class       Cloud<basicKinematicMPPICParcel>;
    location    "12.6/lagrangian/kinematicCloud";
    object      positions;
}
// * * * * * * * * * * * * * * * * * * * * * * * * * * * * * * * * * * * * * //

1976
(
(-0.0483301 0.00471667 0.175327) 806
(0.0177691 -0.053183 0.17524) 1542
(-0.0417417 -0.0101448 0.179212) 807
(0.0175727 -0.0529967 0.1751) 1542
(-0.0357208 0.0353248 0.175676) 786
(-0.0465378 0.0157628 0.178188) 802
(-0.0484794 0.0160624 0.1806) 802
(-0.0263312 0.0436789 0.181168) 2330
(0.0113942 -0.0540416 0.176725) 1542
(0.014742 -0.0503104 0.175216) 1541
(0.0174046 -0.0508671 0.175125) 1541
(-0.045614 0.0109621 0.175843) 801
(-0.0440216 0.0120642 0.179016) 801
(-0.0431847 0.0131277 0.17893) 801
(-0.0444091 0.0136093 0.180651) 801
(-0.0382157 0.0332973 0.180064) 786
(-0.0254765 0.0429612 0.180458) 2330
(-0.0360595 0.0344108 0.180668) 786
(-0.0417811 -0.00985353 0.184254) 807
(-0.0302642 0.0428777 0.183324) 2338
(0.0167927 -0.0512109 0.17847) 1541
(-0.046664 0.0317108 0.177911) 787
(-0.0453714 0.0146818 0.183327) 801
(-0.0432564 0.0120723 0.178271) 801
(-0.0339615 0.0336111 0.17599) 785
(-0.0528515 0.0200115 0.175139) 795
(0.0156327 -0.045738 0.177904) 1540
(-0.0434103 -0.0101474 0.185351) 841
(-0.0455263 0.00445961 0.177797) 806
(-0.0484541 0.0149713 0.17737) 802
(0.0261361 -0.0476358 0.177589) 1547
(-0.0482342 0.0133536 0.181304) 802
(-0.0458471 0.0223348 0.178545) 794
(-0.00102164 -0.0445291 0.175947) 1538
(-0.0267311 0.0399209 0.175949) 2337
(-0.0395049 0.0320023 0.180005) 786
(-0.0468179 0.0321687 0.175993) 787
(-0.0302332 0.0405581 0.174952) 2338
(-0.042097 0.0238233 0.185074) 817
(-0.000904579 -0.0460509 0.176542) 1538
(-0.0430891 0.00120006 0.179762) 805
(-0.0461137 0.000322372 0.176921) 806
(-0.0465484 0.0230745 0.183893) 794
(-0.0300318 0.0427765 0.18439) 2338
(-0.0268057 0.0417774 0.186038) 2394
(-0.0475932 0.0333468 0.177635) 787
(-0.0419112 -0.00863552 0.188306) 840
(-0.040364 0.0413706 0.1768) 2339
(-0.0450077 -0.0101297 0.187551) 841
(-0.0443237 0.0280668 0.18182) 786
(-0.0438055 0.0243381 0.17789) 794
(-0.0455751 0.00166537 0.177975) 806
(-0.0433041 -0.0227531 0.186555) 850
(-0.0410607 -0.0249986 0.186608) 849
(-0.0487749 0.0112623 0.182387) 802
(-0.0352306 0.0355307 0.188946) 2394
(-0.0376621 0.0328402 0.177586) 786
(0.000315558 -0.0450544 0.178716) 1538
(-0.0433882 0.0218517 0.189117) 817
(-0.0447513 0.0164471 0.186048) 817
(0.0144535 -0.0432258 0.18115) 1540
(0.0128032 -0.0512276 0.187365) 1594
(-0.0425079 -0.0133998 0.185062) 841
(0.0413954 -0.036551 0.175695) 3
(-0.0439862 0.0402224 0.176195) 787
(-0.0378288 0.0318003 0.186261) 810
(0.0181429 -0.0508093 0.179814) 1546
(0.0420258 -0.0356964 0.175966) 3
(-0.0239778 -0.0385823 0.188954) 1569
(-0.0260666 0.0420879 0.17755) 2330
(-0.0471557 0.0309634 0.18238) 787
(0.0185676 -0.0511358 0.186827) 1603
(-0.0387959 -0.0195284 0.187738) 848
(-0.0425842 0.0139311 0.185332) 825
(-0.0458614 0.0299174 0.187146) 811
(-0.0550729 0.0089652 0.177067) 803
(-0.0286708 -0.0404582 0.188341) 1562
(-0.0291319 0.0406375 0.190692) 2394
(-0.0340531 0.0394725 0.178254) 2338
(-0.054277 0.013772 0.177257) 803
(-0.0289878 -0.0403703 0.187807) 1562
(-0.0440378 0.0235985 0.191468) 818
(0.0408405 -0.0368383 0.180133) 3
(-0.0461209 -0.000336584 0.17994) 806
(0.0307607 -0.0411291 0.178024) 1554
(-0.0445963 -0.0203669 0.18907) 850
(-0.036941 0.03235 0.188181) 810
(-0.0260642 0.0381375 0.178525) 2337
(-0.0449806 -0.0246798 0.185672) 850
(-0.0465646 0.0316691 0.17746) 787
(-0.0382168 -0.0203265 0.190117) 848
(-0.0456991 0.0300763 0.185872) 811
(0.0174406 -0.0481368 0.182066) 1546
(-0.0438573 0.00293044 0.186922) 833
(-0.0420832 -0.028423 0.190769) 858
(0.0166367 -0.0415359 0.186863) 1601
(0.0163965 -0.0458446 0.181522) 1545
(0.0176848 -0.0481562 0.181315) 1546
(-0.0511466 0.019208 0.183408) 795
(0.0467079 -0.0292864 0.176255) 11
(0.0340593 -0.0407856 0.184643) 1554
(-0.0128127 -0.0416389 0.178046) 1536
(-0.026029 0.0393111 0.183147) 2337
(-0.0356932 0.0407307 0.186291) 2395
(-0.0248435 -0.0387736 0.184821) 1561
(-0.00474987 -0.0481503 0.179589) 1538
(-0.0373167 0.031297 0.179453) 785
(-0.0489613 0.0181568 0.177947) 794
(-0.0305445 -0.033931 0.192463) 1561
(-0.0466649 -0.0230222 0.187821) 850
(-0.0480052 0.017841 0.178029) 794
(-0.045135 0.00504155 0.186907) 833
(-0.0224747 0.0457093 0.177637) 2330
(0.0467717 -0.0322753 0.17893) 3
(-0.0191188 -0.0388201 0.189756) 1568
(-0.0453074 0.004752 0.187704) 833
(-0.0357887 0.0328433 0.192723) 809
(0.00851906 -0.0485963 0.175791) 1541
(-0.044259 -0.0155495 0.189267) 849
(-0.0301919 -0.0318756 0.188229) 1561
(-0.041748 -0.0118718 0.188811) 840
(-0.045648 0.0340246 0.185766) 811
(-0.0271268 0.0467397 0.179877) 2330
(-0.049792 0.00992199 0.182287) 802
(-0.0131667 -0.0420462 0.195498) 1633
(-0.0437436 -0.0157865 0.186335) 849
(-0.0483779 0.0128301 0.187134) 826
(-0.0449271 0.0337898 0.184561) 787
(-0.0419484 -0.00804356 0.194583) 840
(0.00270256 0.0523361 0.180945) 2314
(-0.0436542 -0.0320298 0.185638) 859
(-0.0493497 -0.0215657 0.186325) 850
(-0.0136378 -0.0491325 0.184993) 1578
(0.0450968 -0.0306225 0.179045) 3
(-0.050864 0.0187945 0.187902) 818
(-0.00196588 -0.0453529 0.17692) 1538
(-0.0459864 0.0319142 0.18376) 787
(0.0387338 -0.0324172 0.177752) 2
(0.0117608 -0.0489096 0.192128) 1594
(-0.0127151 -0.0534763 0.185052) 1579
(-0.0453525 0.0202928 0.179516) 794
(-0.0496339 -0.0122182 0.185734) 842
(-0.0337123 -0.0380644 0.185084) 1562
(-0.045029 0.0380354 0.182948) 787
(-0.0296886 -0.0318903 0.190305) 1560
(0.0170044 -0.0436324 0.1858) 1601
(-0.0428619 0.0196836 0.184422) 793
(0.0174126 -0.0470268 0.183245) 1546
(0.01429 -0.0475588 0.182783) 1541
(-0.0337561 -0.0383205 0.191414) 1562
(0.00747918 -0.05076 0.181459) 1541
(-0.0141261 0.0504615 0.182525) 2322
(-0.0360832 -0.0345197 0.185681) 858
(0.0444136 -0.0303979 0.180411) 2
(-0.0415308 -0.0228232 0.188519) 849
(-0.0145209 0.0460937 0.180329) 2321
(0.0142634 -0.0473005 0.184774) 1541
(-0.0112997 -0.052795 0.185158) 1578
(-0.0351525 0.0313488 0.183089) 785
(0.00951303 -0.0531717 0.178666) 1541
(-0.0467093 -0.00304503 0.176861) 806
(0.0277601 -0.0447905 0.180183) 1546
(-0.0414331 0.0122281 0.192368) 824
(-0.0423635 -0.00948059 0.191176) 840
(-0.0114732 0.0486764 0.180997) 2322
(-0.0489107 -0.0123144 0.18665) 842
(-0.0448676 0.0206798 0.193006) 818
(-0.022519 0.0459901 0.183244) 2330
(-0.0135177 0.0495444 0.180709) 2322
(-0.0139159 -0.0520771 0.18764) 1578
(-0.00368998 -0.0478142 0.18537) 1585
(0.0353434 -0.0411745 0.191782) 1611
(-0.0480704 0.00378604 0.176068) 806
(-0.0543834 0.0057513 0.186633) 835
(0.0124098 -0.0444903 0.185647) 1593
(-0.0292947 -0.0416503 0.18483) 1562
(-0.0270135 0.045015 0.188059) 2386
(-0.03741 -0.0232799 0.195854) 905
(-0.0430042 0.000998819 0.189322) 832
(-0.022693 0.0468013 0.184641) 2330
(0.0120424 -0.0512839 0.174928) 1541
(-0.0486177 -0.0126978 0.186569) 842
(-0.0498083 0.00101194 0.185804) 834
(0.0103918 -0.0467731 0.184199) 1540
(0.0549541 -0.0153949 0.175861) 19
(-0.0449373 0.0323639 0.188962) 811
(0.0135732 -0.0473786 0.192725) 1594
(-0.0446363 -0.0234379 0.188153) 850
(0.00996472 -0.0420525 0.189706) 1592
(0.00345148 -0.0523416 0.18773) 1586
(0.0428011 -0.0281461 0.181241) 2
(0.0445528 -0.0314238 0.183453) 3
(-0.027475 0.0417476 0.181364) 2338
(-0.0450162 0.00476907 0.191345) 833
(-0.0480494 0.016344 0.191285) 826
(-0.0478781 0.0153693 0.189593) 826
(-0.0460973 0.012959 0.188681) 825
(-0.0226949 0.0467912 0.178605) 2330
(-0.0468839 -0.0174721 0.185244) 850
(-0.0482767 -0.00373093 0.179507) 806
(-0.0291296 -0.0318733 0.192463) 1560
(-0.0458509 -0.0244932 0.198449) 906
(-0.00535776 -0.0496048 0.195446) 1642
(-0.0216989 0.0439402 0.184279) 2330
(0.014273 -0.0481609 0.19564) 1650
(-0.0126268 0.0474832 0.180875) 2322
(-0.0138997 0.0464969 0.181595) 2321
(-0.0478631 -0.00250187 0.179961) 806
(-0.0480365 0.00192826 0.179381) 806
(0.038092 -0.0360715 0.186035) 58
(-0.0342137 0.0334477 0.196141) 865
(-0.049632 -0.00299999 0.185299) 834
(0.00892282 -0.04243 0.184257) 1539
(-0.0306451 0.0412157 0.182965) 2338
(0.00955467 -0.0530988 0.17817) 1541
(-0.0473666 0.00819375 0.193198) 825
(-0.0245125 -0.042969 0.187942) 1570
(-0.0482348 -0.000165302 0.181371) 806
(0.0173799 -0.0452059 0.184352) 1545
(0.00747737 -0.0481922 0.182347) 1540
(-0.0520256 0.0135238 0.178553) 802
(-0.0474981 0.0162779 0.193443) 826
(0.0164788 -0.0418697 0.193645) 1601
(-0.0430315 0.0316897 0.188755) 810
(-0.0474124 -0.00753442 0.1883) 841
(-0.0481191 0.0031643 0.18812) 833
(-0.0441032 0.0194482 0.192176) 817
(-0.0487798 -0.0112319 0.190026) 842
(0.00268474 -0.0511701 0.195896) 1642
(-0.027219 -0.0426166 0.19321) 1562
(-0.0341535 -0.036813 0.187229) 1562
(0.0475896 -0.00734263 0.17582) 17
(-0.0453625 0.0102897 0.1901) 825
(-0.0504154 -0.00952173 0.191503) 842
(-0.0478168 -0.0135625 0.188057) 842
(-0.015971 0.0491703 0.183197) 2322
(-0.0474459 -0.0146325 0.186779) 842
(-0.0516571 -0.00911747 0.189251) 842
(-0.0293928 0.038202 0.189658) 2393
(-0.0496759 0.0174839 0.187616) 818
(0.0164857 -0.0524956 0.182338) 1542
(0.0144166 -0.0464377 0.191113) 1593
(-0.0495034 -0.00046971 0.18668) 834
(0.0103842 0.0482673 0.176097) 2306
(-0.0419441 -0.00739853 0.199814) 896
(-0.0501863 -0.00402423 0.190925) 834
(-0.0475549 -0.0219631 0.191656) 850
(-0.0259093 -0.0402469 0.185336) 1561
(0.00840728 -0.0438342 0.183216) 1540
(0.0219748 -0.0472665 0.184661) 1546
(-0.0492151 0.0142796 0.180432) 802
(-0.0447315 0.015841 0.196038) 873
(-0.0490912 -0.000348677 0.186025) 834
(-0.00034754 -0.0430711 0.189119) 1584
(0.0465222 -0.00797459 0.177368) 17
(0.0161542 -0.0453265 0.188197) 1601
(-0.0482813 0.0144954 0.186289) 826
(-0.0294707 0.0401591 0.187337) 2394
(-0.0270373 -0.0418244 0.190553) 1562
(0.047072 -0.00648609 0.178093) 17
(-0.0492386 0.000622044 0.189272) 834
(0.0167032 -0.0402535 0.19502) 1657
(0.0128767 -0.0409634 0.197328) 1648
(-0.0470569 -0.0141396 0.186076) 842
(0.0161049 -0.0448318 0.188271) 1601
(-0.0429899 -0.00136846 0.183661) 805
(0.00793576 -0.0511265 0.186196) 1594
(-0.0483286 0.0226721 0.185911) 818
(0.0369903 -0.0397093 0.186788) 1611
(0.00140536 -0.0448165 0.190167) 1585
(-0.0271864 -0.0401229 0.186214) 1561
(-0.0026524 0.0497232 0.175413) 2314
(0.0052287 -0.054438 0.194029) 1587
(0.0145661 -0.0505403 0.188667) 1594
(-0.0379306 -0.0239378 0.199957) 913
(-0.0220266 0.0417955 0.186206) 2385
(-0.00236981 -0.0491204 0.195337) 1642
(-0.0143949 -0.0511809 0.194449) 1578
(-0.0469371 -0.0141341 0.187103) 842
(-0.0110319 -0.0494089 0.188416) 1578
(0.0536392 -0.0151406 0.176807) 19
(-0.0336903 -0.0422098 0.190321) 1562
(0.0478181 -0.00747985 0.177163) 17
(-0.0482995 -0.0115896 0.190067) 842
(-0.046531 0.0104907 0.187878) 825
(-0.0146431 -0.0487415 0.193649) 1578
(-0.0295 -0.0412373 0.188725) 1562
(-0.0432983 -0.0106197 0.190102) 841
(0.0127003 -0.0437215 0.193532) 1593
(-0.0486213 -0.000293982 0.185973) 833
(-0.0219955 -0.0411159 0.18574) 1569
(-0.0166301 -0.04508 0.186639) 1569
(-0.0254488 -0.038025 0.194179) 1561
(0.000170594 0.0491336 0.184234) 2314
(-0.0468523 -0.00983368 0.188978) 841
(0.0141563 -0.0475664 0.197284) 1650
(0.0134423 -0.048012 0.196601) 1650
(-0.0494251 0.000380308 0.189161) 834
(0.0155826 -0.0445072 0.19203) 1601
(0.00965333 0.0478237 0.178366) 2306
(-0.0488979 -0.00315449 0.187037) 834
(-0.0484247 0.000940054 0.185223) 833
(-0.0431473 0.00623289 0.181686) 800
(-0.0389967 0.0310243 0.187156) 810
(-0.0394991 -0.0202489 0.193451) 849
(-0.0256331 -0.0443822 0.194519) 1570
(-0.0494555 -0.00270787 0.189722) 834
(-0.000824212 -0.0441314 0.193036) 1585
(-0.000326057 -0.0443582 0.192524) 1585
(-0.0487746 -0.00459984 0.184975) 834
(0.0462906 -0.0257858 0.175159) 10
(-0.0228281 -0.0384888 0.185915) 1569
(-0.016628 -0.0499307 0.199005) 1634
(-0.0353309 -0.0330192 0.187988) 857
(-0.00302052 -0.0450699 0.19185) 1585
(-0.0482432 -0.010635 0.186803) 842
(-0.0380764 0.0293358 0.187495) 809
(0.0318017 -0.0392515 0.18656) 1610
(-0.0446744 0.0194428 0.183604) 793
(-0.0229994 0.0447806 0.19021) 2386
(0.0510537 -0.0141939 0.181841) 18
(-0.0484821 0.0154065 0.189379) 826
(-0.0495434 -0.0218073 0.19635) 907
(-0.0410136 -0.0284895 0.186856) 858
(-0.0463067 -0.0130844 0.189716) 841
(-0.0251019 -0.0445298 0.1931) 1570
(-0.0022284 -0.0442852 0.193633) 1585
(0.0290088 -0.0448199 0.188934) 1610
(-0.0439697 0.00354138 0.19462) 833
(-0.030997 -0.0304751 0.19501) 912
(-0.0491609 -0.00967709 0.193999) 842
(-0.0487757 0.000634166 0.188019) 834
(-0.0411852 0.031378 0.193766) 810
(-0.0475414 -0.0121317 0.189201) 842
(-0.01155 0.0451578 0.180326) 2321
(-0.00207421 -0.0432258 0.193286) 1584
(-0.0517136 -0.024334 0.187378) 851
(-0.049268 -0.00289053 0.190152) 834
(-0.0464461 -0.0133433 0.186674) 841
(-0.0483619 -0.0107101 0.191613) 842
(-0.0341129 -0.0340257 0.190407) 857
(0.0205293 0.0455383 0.18124) 2298
(-0.0486938 0.0098809 0.186564) 826
(-0.0311788 -0.0421096 0.190524) 1562
(0.0377612 -0.0348853 0.187685) 58
(0.0169713 -0.0542302 0.181419) 1542
(-0.0425534 0.00227419 0.199061) 888
(-0.0330706 -0.0275485 0.197455) 912
(-0.0482605 0.0153036 0.190312) 826
(-0.0116134 0.044587 0.180749) 2321
(-0.0459692 -0.0149437 0.186991) 841
(-0.0239565 -0.0484849 0.189157) 1570
(-0.020222 0.0505269 0.177207) 2331
(-0.0124229 -0.042254 0.204162) 1633
(-0.0245258 -0.0451602 0.195547) 1626
(-0.0432104 -0.0238529 0.192851) 850
(-0.0451324 -0.018086 0.184992) 849
(-0.0320504 -0.0436623 0.189714) 1563
(-0.0344534 0.0307654 0.199219) 865
(-0.0423003 -0.0137802 0.193544) 841
(-0.0471067 -0.0117081 0.191403) 841
(-0.0474973 -0.0115462 0.190915) 842
(0.0176732 -0.0418215 0.193477) 1601
(-0.0325388 -0.0326412 0.190719) 1561
(0.00917012 -0.0481134 0.190336) 1594
(-0.000658145 0.051783 0.179099) 2314
(0.030664 -0.0410172 0.191637) 1610
(-0.0436947 0.0282123 0.184762) 786
(-0.0386093 -0.0191281 0.197424) 904
(-0.0217124 0.045973 0.190792) 2386
(-0.0444131 -0.0122532 0.190353) 841
(-0.0445794 -0.0120039 0.189064) 841
(-0.0150468 0.0445497 0.185449) 2377
(-0.0337517 0.0315498 0.193852) 809
(-0.0412128 0.0214083 0.198917) 873
(-0.0477967 -0.0107379 0.192346) 842
(-0.0463516 -0.0130498 0.190422) 841
(-0.0129614 -0.0487723 0.195344) 1634
(0.00147967 -0.0451709 0.192178) 1585
(-0.0441632 0.00971139 0.189227) 825
(-0.0409374 -0.0282654 0.190832) 858
(-0.0143112 -0.0469522 0.19042) 1578
(-0.0320239 -0.0355902 0.188543) 1561
(-0.0486018 0.0159278 0.190078) 826
(-0.0319541 -0.0283341 0.203675) 912
(-0.0460244 -0.0134216 0.190698) 841
(-0.046511 -0.0153329 0.192247) 842
(-0.0467954 -0.0120551 0.189836) 841
(-0.0459339 -0.0155117 0.189793) 841
(-0.0492637 0.00182359 0.191576) 834
(-0.00846156 0.0518671 0.186793) 2378
(-0.0319326 -0.0349319 0.190381) 1561
(-0.0400909 0.0308803 0.195913) 866
(-0.0415237 -0.0140524 0.201359) 897
(-0.0122201 -0.0416104 0.205811) 1688
(-0.0290025 0.0388164 0.202) 2449
(-0.0459878 -0.0153722 0.193417) 841
(-0.044513 -0.0141767 0.191878) 841
(-0.0473906 -0.0114455 0.19164) 842
(-0.0498071 0.00729051 0.190517) 826
(-0.0323509 -0.0338302 0.190018) 1561
(-0.0450105 -0.0146508 0.185154) 841
(-0.0504038 0.0064687 0.186542) 826
(-0.0393481 0.034593 0.190503) 810
(-0.0393235 -0.0199945 0.196562) 905
(-0.0129406 -0.0467963 0.191906) 1577
(-0.0115732 -0.0418953 0.193255) 1576
(-0.0445463 -0.0232333 0.187463) 850
(0.0211124 -0.0489802 0.191255) 1602
(-0.0471327 -0.0166498 0.185) 850
(-0.0468676 -0.0082173 0.192437) 841
(-0.0423165 -0.0231607 0.190659) 849
(0.0248056 -0.0445886 0.193565) 1602
(-0.0505248 0.0197905 0.187319) 819
(-0.0445521 0.0154086 0.200882) 881
(-0.00344944 -0.0487122 0.199056) 1641
(-0.0458291 -0.0152919 0.19231) 841
(-0.0480707 -0.0104202 0.190846) 842
(0.00188433 -0.044017 0.191854) 1585
(-0.0208288 0.0457571 0.184271) 2330
(0.039313 -0.0316523 0.186071) 58
(-0.0354918 0.0343124 0.210469) 922
(-0.0383895 -0.0185685 0.199291) 904
(-0.0221369 0.0425653 0.191254) 2385
(-0.0488468 0.000179921 0.193057) 834
(-0.0424355 0.0266736 0.19745) 866
(-0.0127008 0.0500428 0.18471) 2322
(0.000606382 -0.046833 0.184604) 1538
(-0.00321746 -0.0487454 0.187875) 1585
(0.0388859 -0.0338277 0.190117) 58
(-0.0198191 -0.0379526 0.201847) 1624
(-0.00254367 0.0473413 0.186737) 2369
(0.00882344 -0.0485513 0.194688) 1594
(-0.0474769 -0.0103603 0.189319) 841
(-0.0328545 0.0382541 0.19572) 2450
(-0.0331929 -0.030177 0.187407) 857
(-0.044228 -0.0311628 0.191456) 858
(0.0128603 -0.0514188 0.184267) 1541
(-0.0488457 -0.00892428 0.195743) 898
(-0.00234722 -0.0435181 0.19661) 1641
(-0.0471039 -0.0247601 0.189107) 850
(-0.0170627 0.0470441 0.187884) 2386
(-0.0312094 -0.0341484 0.194262) 1561
(-0.0210759 0.0469355 0.188077) 2386
(-0.0390603 0.030177 0.197223) 866
(-0.0444027 -0.0157304 0.189131) 849
(0.0146386 0.0477956 0.182918) 2306
(-0.0497383 -0.0202859 0.192487) 850
(-0.042147 0.033919 0.190668) 811
(-0.0444174 -0.025532 0.188402) 850
(-0.0477265 -0.0191115 0.188548) 850
(0.0316527 -0.0432343 0.192673) 1610
(0.0161071 -0.0521502 0.186962) 1595
(-0.0203175 -0.0396818 0.200503) 1625
(-0.0460864 -0.0167667 0.195955) 906
(-0.0476346 -0.0103782 0.192902) 842
(-0.0484215 -0.00970678 0.194269) 842
(-0.0117272 0.0420511 0.181283) 2321
(-0.0447154 -0.0141116 0.189544) 841
(-0.0489827 -0.00480561 0.191841) 834
(-0.0463177 -0.00202313 0.188138) 833
(-0.0493717 0.00137156 0.185667) 834
(-0.0425383 -0.026792 0.198621) 914
(-0.0496012 -0.00523876 0.194269) 834
(-0.0385378 -0.02465 0.191851) 857
(-0.039627 -0.0218591 0.188909) 849
(0.000564159 -0.0485888 0.187901) 1585
(-0.0345528 -0.0382915 0.186112) 1562
(-0.0566461 -0.000955537 0.184951) 835
(-0.0457486 -0.0166153 0.195633) 905
(-0.0251673 0.0375971 0.198858) 2449
(-0.043557 -0.0132769 0.18811) 841
(-0.0403098 -0.0278609 0.192526) 858
(-0.0114586 -0.0431569 0.207377) 1689
(-0.0461537 -0.0191236 0.20076) 906
(0.0020385 0.0473852 0.186564) 2369
(-0.0452131 -0.0126045 0.190337) 841
(-0.0501039 -0.006286 0.196404) 898
(-0.0306594 -0.0425988 0.190758) 1562
(-0.0121728 -0.0500746 0.187437) 1578
(-0.0100894 -0.0432775 0.205955) 1689
(-0.0425906 -0.0219023 0.198059) 905
(-0.0443164 -0.0160627 0.194455) 849
(-0.0449157 -0.00923792 0.191651) 841
(-0.0242628 -0.0450288 0.194903) 1626
(-0.0260033 -0.0404065 0.194689) 1561
(-0.0402384 0.0305348 0.198161) 866
(-0.0103499 0.051608 0.188276) 2378
(-0.046627 -0.00200359 0.189782) 833
(-0.0405614 -0.0302026 0.190511) 858
(-0.0438615 -0.0238873 0.188323) 850
(-0.048742 0.0191996 0.188787) 818
(0.0139423 -0.0550341 0.190089) 1595
(-0.0237039 -0.0363361 0.201329) 1616
(0.0116619 -0.0420546 0.200519) 1649
(0.0181071 -0.041509 0.197809) 1657
(-0.0445162 0.0135628 0.192433) 825
(-0.052696 0.0122471 0.186476) 827
(-0.044026 0.00726627 0.199011) 881
(-0.0490125 -0.00404762 0.194404) 834
(-0.0480826 -0.00972746 0.194132) 842
(-0.0414326 -0.0228695 0.193131) 849
(0.0268385 0.0428383 0.1841) 2298
(0.0272941 -0.0409351 0.191778) 1610
(-0.0262838 -0.0410093 0.197518) 1617
(-0.000881502 -0.0426707 0.200634) 1640
(-0.0458941 -0.0126295 0.192288) 841
(-0.0426472 -0.0235389 0.196038) 905
(-0.032342 -0.0332024 0.192194) 1561
(-0.0137653 0.0483584 0.183958) 2322
(-0.0214092 -0.0414831 0.189108) 1569
(-0.0351468 -0.0308811 0.193851) 857
(-0.0469097 -0.0108882 0.192905) 841
(-0.0418541 -0.023251 0.194376) 849
(-0.0329681 -0.0324028 0.192063) 857
(-0.0113833 -0.0455804 0.191711) 1577
(-0.0147259 0.0441919 0.182206) 2321
(-0.047134 0.00225686 0.187997) 833
(-0.0391885 0.0341818 0.191601) 810
(-0.0333023 -0.0330293 0.197465) 913
(-0.0461085 0.0149006 0.193896) 825
(-0.0466354 -0.0108865 0.191798) 841
(-0.0462133 -0.0176437 0.193607) 850
(-0.0457141 -0.00258148 0.189504) 833
(-0.0328378 -0.0356478 0.197524) 1617
(-0.0491139 0.00231998 0.19568) 890
(-0.0452135 -0.0104431 0.190719) 841
(-0.0304639 0.0387323 0.201194) 2450
(0.0378459 -0.0346847 0.194539) 58
(-0.0029605 0.0482911 0.177412) 2313
(0.00832705 0.0498163 0.179556) 2306
(0.0361947 -0.0335954 0.189512) 58
(-0.0467278 -0.0142239 0.185844) 841
(0.0115784 -0.0511232 0.18667) 1594
(-0.0034287 -0.053921 0.187854) 1586
(-0.0416431 -0.00801682 0.207982) 952
(-0.0478275 -0.00971018 0.194253) 842
(-0.0123651 -0.047393 0.196505) 1634
(-0.00663595 0.0549859 0.185221) 2379
(-0.0336021 -0.0399863 0.185459) 1562
(-0.0535494 -0.0131673 0.188989) 843
(0.0104743 -0.0533216 0.186481) 1595
(-0.0311278 -0.0291725 0.201741) 912
(0.0156118 -0.0403775 0.201642) 1656
(-0.0455988 -0.00981238 0.190089) 841
(-0.0487617 -0.00457035 0.194223) 834
(-0.0415207 -0.0220182 0.19325) 849
(-0.0468915 -0.00422784 0.18813) 833
(0.00609857 -0.0490878 0.192066) 1594
(-0.0506058 -0.000848748 0.187906) 834
(-0.0504399 -0.0179703 0.192149) 850
(-0.0235423 -0.0356849 0.205618) 1672
(-0.0446879 0.0031631 0.199877) 889
(-0.0479038 -0.00790719 0.195854) 897
(-0.0340329 -0.0318762 0.19622) 913
(-0.0470941 -0.0090275 0.193254) 841
(0.0104455 -0.041055 0.202129) 1648
(0.0466479 0.0192703 0.177791) 42
(0.00923614 0.0490813 0.181173) 2306
(-0.0512991 0.00417963 0.185637) 834
(-0.0507849 -0.0143001 0.188347) 842
(-0.0114101 -0.0501145 0.203771) 1634
(-0.0462268 -0.000222546 0.19541) 889
(-0.0441567 -0.0135367 0.192978) 841
(0.0126261 -0.0458352 0.197391) 1649
(-0.0412995 -0.0232823 0.194919) 905
(0.0452907 -0.0251765 0.179705) 10
(-0.0172148 -0.0456394 0.190867) 1569
(-0.0061193 -0.0497982 0.190945) 1578
(-0.0326618 0.0398749 0.193493) 2394
(-0.000805473 -0.0448714 0.204279) 1641
(-0.043376 -0.0226532 0.19837) 906
(-0.0155539 0.0434611 0.185922) 2385
(-0.0445871 -0.0162765 0.19389) 849
(-0.0324565 -0.0331865 0.19362) 1561
(-0.0135459 -0.044055 0.193835) 1577
(-0.0186652 0.051049 0.183846) 2330
(-0.0476331 0.0199545 0.191044) 818
(-0.042411 0.00717442 0.199177) 880
(-0.0198625 -0.0403677 0.20374) 1625
(0.00185278 0.0459219 0.187489) 2369
(-0.0226618 0.0405331 0.187567) 2385
(0.0144464 -0.0450229 0.200983) 1649
(-0.0459606 -0.00960973 0.192923) 841
(0.0133383 -0.0448359 0.19949) 1649
(-0.047775 0.000978994 0.194632) 833
(-0.041486 -0.0226438 0.194686) 849
(0.0160444 -0.0458713 0.195762) 1649
(0.00233485 0.0498534 0.184287) 2314
(-0.0239655 -0.0373689 0.193125) 1561
(-0.0563088 -0.0141105 0.1895) 843
(-0.0116442 -0.0414646 0.210838) 1688
(-0.0411485 -0.0134014 0.200742) 896
(-0.040077 0.0197714 0.205094) 929
(0.0478756 -0.00893339 0.183114) 17
(-0.00774852 0.0490442 0.190716) 2378
(-0.0455432 -0.00935068 0.192828) 841
(-0.00136608 -0.0471609 0.197701) 1641
(-0.0448719 -0.016468 0.195281) 905
(-0.0249251 -0.043732 0.197355) 1626
(-0.0413679 -0.0239394 0.196655) 905
(-0.00237719 -0.0455345 0.199663) 1641
(-0.0438701 -0.0213445 0.196677) 906
(0.0101442 -0.0436105 0.196807) 1649
(-0.00331247 0.0488798 0.184522) 2314
(-0.0455306 -0.00203657 0.189033) 833
(-1.7245e-05 -0.0492394 0.192588) 1586
(-0.00259353 -0.049413 0.191097) 1586
(0.0479832 -0.00892745 0.182934) 18
(-0.0292634 0.0377445 0.203343) 2449
(0.00942628 0.0513086 0.184671) 2306
(0.00788836 0.0497024 0.179698) 2306
(-0.0198494 -0.0405599 0.204351) 1625
(0.012435 0.0463489 0.183619) 2305
(-0.0398663 -0.0220702 0.193153) 849
(-0.0107304 -0.0421552 0.208923) 1689
(-0.0405061 0.0177141 0.205823) 929
(-0.04456 -0.0133556 0.194454) 841
(0.0140497 -0.0452461 0.200443) 1649
(0.011212 -0.0461859 0.199852) 1649
(-0.0252384 -0.0403876 0.198447) 1625
(-0.0272278 -0.039571 0.195632) 1617
(-0.0216148 -0.0377417 0.204229) 1624
(-0.0242407 0.0384604 0.206786) 2505
(-0.0319401 -0.0316214 0.199748) 913
(-0.024783 -0.0394186 0.197255) 1617
(0.0415459 -0.0326312 0.197508) 114
(-0.034087 -0.0407477 0.189795) 1562
(-0.0407233 -0.0118746 0.208913) 952
(-0.00128957 -0.0424277 0.204528) 1640
(0.0474936 -0.00568254 0.177772) 17
(-0.0243858 -0.0390798 0.19763) 1625
(-0.0279198 -0.0395512 0.19685) 1617
(-0.0463878 -0.00987917 0.191635) 841
(-0.0245404 -0.0446706 0.191115) 1570
(-0.0201743 0.0485876 0.183025) 2330
(-0.0292085 -0.0423543 0.190443) 1562
(-0.0509698 0.00228578 0.187901) 834
(-0.0132773 -0.0423444 0.209723) 1689
(-0.0422878 -0.0106441 0.198352) 897
(-0.012463 -0.0473808 0.199373) 1634
(-0.0243978 0.0392337 0.196623) 2441
(-0.00456233 0.0516206 0.186157) 2370
(-0.0126069 -0.0483389 0.192812) 1578
(-0.0477159 -0.018791 0.192933) 850
(0.00368253 -0.0560657 0.193173) 1587
(-0.0563758 -0.0055908 0.19199) 835
(-0.0406943 -0.0122482 0.209077) 952
(-0.0449448 0.00167565 0.200178) 889
(-0.0028176 0.0463257 0.191036) 2369
(0.0116159 -0.0459148 0.199374) 1649
(-0.0314478 -0.0345264 0.194823) 1617
(-0.00520409 -0.0551554 0.187945) 1587
(0.00143993 0.0442718 0.184328) 2313
(-0.0027771 0.0451519 0.189449) 2369
(-0.0377588 0.0209892 0.203949) 872
(-0.00713969 0.0450764 0.187435) 2377
(-0.0145353 -0.0478266 0.200283) 1634
(-0.043919 -0.0165422 0.194702) 905
(-0.0249817 -0.0381033 0.197703) 1617
(-0.0450276 -0.0007579 0.193272) 833
(0.00193431 0.050992 0.18805) 2370
(-0.0497051 -0.00834088 0.196906) 898
(0.0318682 -0.0425587 0.20094) 1666
(-0.0108276 -0.0417351 0.210878) 1688
(0.0470612 -0.00860365 0.185182) 73
(-0.0430491 -0.00100298 0.202276) 888
(-0.00199521 -0.0470649 0.200377) 1641
(-0.0345979 -0.0308247 0.196868) 913
(-0.00178535 -0.0471354 0.199505) 1641
(-0.0477699 -0.00455251 0.197178) 889
(0.0104454 -0.0427061 0.202243) 1649
(-0.0245565 -0.0439592 0.198669) 1626
(0.0115927 -0.0459091 0.199581) 1649
(-0.0225112 -0.0416198 0.19711) 1625
(-0.0341136 -0.0313324 0.19313) 857
(-0.00947356 -0.050178 0.199427) 1634
(-0.0487659 0.0162046 0.192457) 826
(0.0362668 -0.0354887 0.197015) 114
(-0.0465503 0.0194976 0.191818) 818
(-0.0515137 -0.0110416 0.188536) 842
(-0.0313123 -0.0285189 0.206842) 968
(-0.0330759 -0.0309849 0.199295) 913
(-0.0329237 -0.0317127 0.199274) 913
(0.0182702 -0.0417733 0.198429) 1657
(0.0467825 -0.0221604 0.180235) 10
(-0.0560344 -0.00837104 0.189193) 843
(-0.0460329 -0.000312851 0.19824) 889
(0.000150888 -0.0433872 0.199927) 1640
(-0.00150466 -0.0433029 0.199768) 1640
(-0.0244447 -0.0391861 0.198442) 1625
(-0.00724676 0.0511763 0.191151) 2378
(-0.0393408 -0.0232476 0.196975) 905
(-0.00681596 -0.0552204 0.189991) 1579
(-0.0428753 0.00836543 0.194204) 825
(0.0351878 -0.0376303 0.192514) 1610
(-0.0509472 0.00159887 0.190063) 834
(-0.0473043 -0.0071846 0.202343) 897
(-0.0474042 -0.00327785 0.19833) 889
(-0.00043152 -0.0421829 0.204695) 1696
(-0.0480331 -0.00904058 0.196603) 898
(-0.0556466 0.00190338 0.189345) 835
(0.0120364 -0.0409404 0.207649) 1704
(-0.0423084 -0.0211801 0.197202) 905
(-0.0238777 -0.0456542 0.193744) 1570
(-0.0515546 0.0069928 0.193303) 826
(-0.046972 0.0194294 0.193604) 818
(-0.0453339 -0.00239105 0.198503) 889
(-0.0423929 -0.0210591 0.196951) 905
(-0.00639702 0.0527233 0.189448) 2378
(-0.00983807 0.0516554 0.202694) 2434
(-0.0447984 -0.0116734 0.195611) 897
(-0.0450194 -0.00970252 0.194962) 897
(-0.0465655 0.0148255 0.196634) 881
(-0.026212 -0.0385837 0.197597) 1617
(-0.040209 0.0287198 0.19873) 866
(-0.0249162 -0.0390218 0.194197) 1561
(-0.040079 -0.0333838 0.195276) 914
(-0.00641736 -0.0541547 0.19675) 1635
(-0.00656913 -0.0511345 0.189351) 1578
(-0.0458847 0.000420614 0.199855) 889
(-0.00605016 -0.0478622 0.195203) 1633
(-0.0477605 -0.0233383 0.191548) 850
(0.00585762 -0.0506321 0.189177) 1594
(-0.0340945 0.0293435 0.206157) 921
(-0.00161813 -0.0470188 0.203419) 1641
(0.0511086 -0.0144188 0.189042) 74
(-0.0476631 0.00154875 0.196948) 889
(-0.011363 -0.0456184 0.198055) 1633
(-0.0405447 -0.0314983 0.190588) 858
(-0.0396077 0.0188226 0.208024) 929
(0.011516 0.0490921 0.192242) 2362
(0.0484366 0.0203992 0.189602) 98
(0.0410352 0.027291 0.180433) 50
(-0.0427854 0.011964 0.200106) 881
(-0.0404315 0.0223078 0.205616) 929
(-0.047791 0.00191821 0.198951) 889
(-0.0460242 -0.000930776 0.196461) 889
(-0.0254359 -0.0386105 0.19887) 1617
(-0.0487697 0.00988827 0.192067) 826
(-0.0413111 -0.0145488 0.201932) 905
(0.00780414 -0.0488319 0.201149) 1650
(-0.0427842 -0.0208562 0.198731) 905
(-0.038209 -0.0260742 0.197274) 913
(-0.00305851 -0.0437223 0.194301) 1585
(-0.0337182 -0.0422787 0.19528) 1618
(-0.0208027 -0.0459556 0.207954) 1682
(-0.000420384 -0.0473156 0.204321) 1641
(-0.0133076 -0.0470535 0.202585) 1634
(-0.0107549 -0.047306 0.200822) 1633
(-0.0338096 0.0369097 0.192987) 2394
(-0.00503467 -0.051106 0.191726) 1586
(0.0460873 -0.00965624 0.188944) 73
(-0.000553335 -0.0473168 0.203782) 1641
(0.0124905 -0.0451823 0.204096) 1649
(-0.0392216 0.0324368 0.199568) 866
(-0.0317497 -0.0419661 0.195088) 1618
(-0.0503146 -0.0129111 0.195097) 898
(-0.0132188 -0.041736 0.212179) 1689
(-0.0146861 -0.0452397 0.202409) 1633
(0.0226724 -0.046027 0.195254) 1658
(0.0292286 -0.0421973 0.193038) 1610
(-0.0241282 0.0370487 0.210629) 2505
(-0.0432879 -0.0213119 0.204649) 961
(0.0148125 -0.0434148 0.208088) 1705
(-0.0142753 -0.0474672 0.203263) 1634
(0.0280805 -0.0426557 0.203234) 1666
(0.0417515 0.0277715 0.182742) 50
(-0.034963 0.0398389 0.201131) 2450
(-0.0331233 0.0375498 0.186844) 2394
(-0.0451155 -0.000254546 0.200831) 889
(-0.0125888 -0.0462289 0.201793) 1633
(-0.0200033 0.048703 0.194225) 2386
(-0.0147575 0.0475241 0.190173) 2378
(-0.0382613 -0.0229694 0.198812) 905
(-0.0488758 -0.0229336 0.201811) 906
(-0.0428864 0.0245772 0.196631) 874
(0.0471363 -0.00962061 0.190829) 73
(0.0484741 -0.00994482 0.189159) 74
(-0.0475119 0.00309338 0.202269) 889
(-0.0139071 -0.0468872 0.201793) 1634
(0.0491791 -0.00555265 0.176681) 18
(0.0122035 -0.052709 0.194082) 1595
(0.00193653 -0.0550059 0.200485) 1643
(-0.00224203 -0.0423929 0.211901) 1696
(-0.0021026 -0.0452406 0.202522) 1641
(-0.0435041 -0.00924303 0.19539) 897
(-0.0165857 -0.0449796 0.20204) 1625
(-0.0128364 0.044791 0.200286) 2433
(-0.0018311 -0.0423756 0.211018) 1696
(-0.0459147 0.000216071 0.19933) 889