/*--------------------------------*- C++ -*----------------------------------*\
| =========                 |                                                 |
| \\      /  F ield         | OpenFOAM: The Open Source CFD Toolbox           |
|  \\    /   O peration     | Version:  plus.master                           |
|   \\  /    A nd           | Web:      www.OpenFOAM.com                      |
|    \\/     M anipulation  |                                                 |
\*---------------------------------------------------------------------------*/
FoamFile
{
    version     2.0;
    format      ascii;
    class       Cloud<passiveParticle>;
    location    "10.8/lagrangian/kinematicCloud";
    object      positions;
}
// * * * * * * * * * * * * * * * * * * * * * * * * * * * * * * * * * * * * * //

96597
(
(-0.0034928 -0.015683 0.000266045) 821
(0.0221929 -0.0263437 0.000254142) 860
(0.00172224 0.0788855 0.00027754) 2376
(0.00362988 -0.0423934 0.000303973) 2089
(0.0273751 -0.0592153 0.000276556) 2110
(-0.0233589 -0.0457249 0.000291953) 2075
(0.0187287 -0.0455188 0.000279657) 2107
(-0.0038828 0.018778 0.000261128) 1119
(0.0193116 0.0395434 0.00026091) 2354
(-0.00208908 0.0697147 0.000250891) 2374
(0.0304381 0.0514226 0.000304415) 2357
(0.0373743 0.0175541 0.000262099) 1545
(-0.0186639 0.00240911 0.000272638) 542
(0.027081 0.0202229 0.000290147) 300
(0.0586265 -0.00288814 0.000264838) 1532
(-0.00441803 0.039145 0.000276443) 2377
(0.000585977 -0.0157588 0.000265792) 829
(-0.0448834 0.0213516 0.00029056) 1795
(0.0306593 0.0184963 0.000272747) 292
(0.0179237 0.0644563 0.000290765) 2366
(-0.0227321 0.0226554 0.000299762) 531
(-0.00413647 -0.0930978 0.000281335) 3212
(-0.0432686 -0.0223678 0.000229093) 1826
(-0.039606 -0.0170276 0.000291499) 1825
(0.0228753 -0.0243069 0.000280285) 859
(-0.00901633 -0.0576009 0.000245063) 2084
(-0.0213172 0.0211063 0.000314652) 530
(0.00117439 0.100782 0.000262362) 3494
(-0.0418167 -0.0217537 0.000273537) 1826
(0.031584 -0.0240562 0.000298267) 1505
(-0.0225152 0.0224881 0.00026457) 530
(0.0344478 -0.016688 0.000305491) 1513
(-0.032615 0.014887 0.000278072) 540
(-0.0207703 0.0207155 0.000329213) 529
(0.00424343 0.0375453 0.000297045) 1472
(0.0379557 0.0175918 0.000266177) 1545
(-0.00150415 0.060069 0.00026569) 2373
(-0.000370837 0.0706524 0.0002988) 2375
(-0.0299619 0.0270126 0.000291419) 1785
(-0.0804993 5.57369e-05 0.000256599) 1816
(0.0132232 -0.0488618 0.000265853) 2099
(-0.0213653 -0.0388386 0.000281047) 2074
(0.00845289 0.0223237 0.000293681) 1096
(-0.0428861 0.0200169 0.000266786) 1794
(-0.01917 0.0374241 0.000298799) 2385
(0.0300868 -0.0211945 0.000274957) 1365
(-0.00707818 -0.0892763 0.000284089) 3211
(-0.00944863 0.0161252 0.000300913) 1126
(-0.0182489 -0.0404228 0.000242157) 2074
(-0.0141726 0.0296812 0.000274734) 1131
(0.0394435 -0.015495 0.000279817) 1513
(-0.0160253 0.0317062 0.000271032) 1132
(0.0171951 -0.0211565 0.000246437) 857
(-0.00408623 -0.0610568 0.000279089) 2093
(0.0295563 -0.012303 0.000264503) 259
(0.0180671 0.0405037 0.000242784) 2354
(0.0225159 0.0263086 0.00028475) 1092
(0.00165214 0.01753 0.00026629) 1110
(-0.0181119 0.042307 0.000274777) 2386
(0.010675 0.0588793 0.000275362) 2365
(0.0437809 -0.0165346 0.000307523) 1514
(0.0350401 -0.0176708 0.000281981) 1513
(0.0356783 0.0141246 0.000276976) 1545
(-0.0208915 0.0386632 0.000279918) 2386
(0.0196098 -0.00173905 0.000296241) 271
(-0.0415366 -0.0234562 0.000293407) 1826
(0.00484504 0.100707 0.000290655) 3494
(0.0116838 0.0171475 0.000292816) 1086
(-0.100981 0.000371356 0.000279441) 2934
(0.0422422 -0.0168987 0.000264328) 1514
(0.0176339 -0.0214604 0.000263809) 857
(0.0221005 0.026278 0.000299365) 1092
(0.0165269 0.0428728 0.000290139) 2354
(0.0174538 0.0373671 0.000240603) 2353
(0.00891877 0.0216016 0.000271944) 1096
(0.0245331 -0.0254094 0.000271364) 860
(0.059646 -0.000746704 0.000310401) 1533
(-0.0171847 -0.00212672 0.000302147) 550
(0.0128357 0.0272532 0.00028596) 1098
(0.000510285 0.0222148 0.000252812) 1112
(0.00411758 0.0366047 0.000264548) 1473
(-0.0118186 -0.0472207 0.000280776) 2082
(-0.0377611 0.0184108 0.000279784) 1793
(0.0219092 0.0199659 0.000271769) 298
(-0.0256716 0.0256438 0.000290412) 532
(0.0104069 0.0260715 0.00027966) 1097
(0.0214327 -0.0151756 0.000273831) 248
(0.00523271 0.0760507 0.000278929) 2375
(-0.0169058 0.00702366 0.000251557) 534
(-0.0355422 0.00638151 0.000274961) 548
(-0.0060422 0.020017 0.000274816) 1119
(0.0134307 0.0150871 0.000271708) 1086
(0.0180345 -0.0503935 0.000262454) 2107
(-0.0416841 -0.0150986 0.000258422) 1826
(0.0243014 -0.0156535 0.000287289) 258
(-0.0258744 -0.0253414 0.000309616) 580
(0.0299145 0.016817 0.000281754) 292
(-0.081649 0.00512652 0.000257879) 1816
(-0.00858185 0.0491183 0.000260431) 2379
(0.0186679 0.000784741 0.000270127) 270
(-0.0904158 0.00254616 0.000278361) 2931
(0.00911861 0.0287543 0.000268145) 1106
(0.0550542 0.00260169 0.000266662) 1532
(-0.0277342 0.00315304 0.000288832) 554
(0.0190175 -0.00961527 0.000290495) 255
(-0.0360416 0.0183125 0.000298596) 1793
(-0.00153453 0.073594 0.000271031) 2375
(-0.0192267 0.0375577 0.000281135) 2385
(0.0359567 -0.0247589 0.000319574) 1506
(-0.0545529 0.0272845 0.000282087) 1797
(-0.0253685 0.0475457 0.00029191) 2387
(0.0318634 -0.0205995 0.000291128) 1365
(-0.00275168 -0.0537634 0.000300963) 2091
(0.0320154 0.0159727 0.000281095) 292
(0.00832196 0.0310972 0.000276707) 1107
(0.0185329 -0.0385881 0.000263881) 2105
(0.0130057 0.0199345 0.000272871) 1096
(-0.048354 -0.0228105 0.000274491) 1827
(0.0216286 -0.00923013 0.000266445) 256
(0.0185006 -0.0381242 0.000258332) 2105
(0.0506216 0.00333595 0.000287163) 1531
(0.00350798 -0.0441669 0.000299686) 2090
(0.0213463 -0.0233941 0.000301757) 858
(-0.0228071 -0.0454612 0.000295648) 2075
(0.022573 0.011658 0.000290539) 288
(-0.0325366 0.00588507 0.000278302) 547
(0.022725 0.0236088 0.000260075) 1091
(0.00413848 -0.08918 0.00032385) 3211
(0.0168364 0.0267762 0.000278779) 1099
(0.0493122 0.00155274 0.000257702) 1531
(0.0236882 -0.0251661 0.000286765) 860
(0.00780549 0.0316484 0.000284561) 1107
(0.0207572 0.0430711 0.000261113) 2354
(0.0171943 0.0478459 0.000255441) 2355
(0.0225991 0.0166602 0.000274536) 297
(-0.000930092 0.100786 0.000268392) 3494
(0.0143624 0.0342471 0.000267044) 1471
(0.00659677 -0.0189261 0.000279583) 839
(-0.000942319 0.072937 0.000268572) 2375
(-0.0199112 0.0423672 0.000260535) 2386
(-0.0256722 0.0256668 0.000310377) 1400
(0.0238053 0.010608 0.000267768) 289
(-0.0403628 -0.0169984 0.00028352) 1826
(-0.000577821 0.01921 0.00142411) 1111
(0.0175106 -0.0215266 0.000254417) 857
(-0.0244524 -0.0242792 0.000292316) 580
(-0.0524714 0.00601789 0.000265205) 1803
(0.00104779 0.0258587 0.000275503) 1113
(-0.0428234 -0.0183379 0.000266727) 1826
(0.0250941 -0.0299758 0.000287607) 2113
(0.0106312 -0.0182666 0.00027899) 847
(0.0169615 0.0220044 0.000237857) 1089
(0.0213007 -0.0064535 0.000319313) 263
(0.0203645 0.0406034 0.000256916) 2354
(0.0230321 -0.0255314 0.000286059) 860
(-0.0216386 -0.00879621 0.000263252) 568
(0.010064 -0.0447481 0.000255056) 2098
(-0.0416774 -0.0183511 0.000246818) 1826
(0.0342062 0.000101563 0.000266099) 276
(-0.00598084 0.0179464 0.000268414) 1118
(-0.00177558 -0.0554528 0.000245498) 2092
(0.0151627 -0.0445137 0.000261344) 2098
(-0.0166416 0.035963 0.000264522) 2385
(0.00627114 -0.0160871 0.000237549) 838
(0.00862886 0.0161614 0.000250873) 1094
(-0.0918168 -0.00356521 0.000290375) 2931
(0.00318595 0.0164717 0.000279809) 1102
(0.00650828 -0.0569416 0.000268538) 2100
(0.0167041 0.0102841 0.000262249) 286
(0.0236359 -0.0252161 0.000282587) 860
(0.00211209 0.0158445 0.000269718) 1109
(-0.0502991 0.020248 0.00026951) 1796
(0.0390596 -0.016892 0.000291583) 1513
(-0.0166489 0.00111171 0.000255486) 550
(-0.0129338 0.03276 0.000251023) 1132
(-0.0160338 -0.0287213 0.000292743) 819
(0.0186662 0.00080464 0.000281182) 270
(-0.100968 -0.00057162 0.000275052) 2934
(-0.0276738 -0.0268646 0.000323998) 1833
(0.031285 -0.0106273 0.000260723) 267
(0.0155743 0.00552707 0.000277323) 277
(-0.0411649 0.0186966 0.000242711) 1794
(-0.040408 0.0182302 0.000273348) 1794
(-0.0408635 -0.017942 0.000283169) 1826
(-0.000910851 -0.0974388 0.000253882) 3213
(0.0305705 0.0235204 0.00028909) 1553
(0.0175174 0.0231613 0.000243198) 1090
(0.00146441 -0.0674345 0.000279328) 2094
(-0.0282996 -0.0547582 0.000284102) 2077
(0.0227478 -0.0241849 0.000279315) 859
(0.03063 0.0238033 0.000277208) 1553
(0.0176661 0.0637439 0.000279424) 2366
(0.00905745 0.0244756 0.000278044) 1097
(0.0279488 0.0590702 0.000285957) 2358
(-0.0270001 -0.0264584 0.000309316) 1406
(-0.000373712 -0.0197437 0.000283371) 831
(-0.00124309 -0.102769 0.000282592) 3214
(0.0243859 0.0216493 0.000257651) 299
(0.0463436 -0.014621 0.000292122) 1522
(0.0184142 0.0404786 0.000258702) 2354
(0.0336434 0.0157358 0.000304411) 1370
(0.00133668 -0.0997249 0.000260139) 3214
(0.0420406 -0.0119552 0.000243603) 1522
(-0.0218669 0.0219238 0.000291903) 1138
(-0.0179395 -0.0342053 0.000261738) 2073
(0.0242067 -0.0155252 0.000277368) 257
(0.0252407 -0.0161847 0.000291111) 258
(-0.000911541 0.0769606 0.000282595) 2376
(-0.0250157 -0.0451023 0.000289779) 2075
(-0.0639015 -0.0144614 0.000309121) 1822
(0.0199805 -0.0388793 0.000278523) 2106
(0.01761 0.0231083 0.000299895) 1090
(0.0423377 -0.0159343 0.000295017) 1514
(-0.0424381 -0.0228279 0.000275863) 1826
(0.059642 0.00146585 0.000281677) 1533
(-0.0189216 0.0188191 0.000299809) 528
(-0.0256572 -0.0252851 0.000256298) 580
(-0.0571565 -0.0126625 0.000259043) 1820
(0.0243912 -0.0253685 0.000281859) 860
(-0.0921877 0.00193959 0.000275731) 2931
(0.00669456 0.0483083 0.000258514) 2362
(-0.0229813 -0.0225551 0.000277392) 579
(-0.00942231 -0.0208025 0.000292341) 816
(0.0202286 -0.0243145 0.00027794) 859
(-0.0324786 0.0157637 0.00029842) 1401
(0.0186653 0.000938154 0.000305884) 270
(0.00451959 -0.0929008 0.000280314) 3212
(-0.0633876 -0.0161677 0.000277033) 1822
(0.0129456 0.0203448 0.000268346) 1096
(-0.0226724 0.0226627 0.000282555) 531
(0.0255955 -0.0098352 0.000272073) 257
(0.0304907 -0.0252718 0.00032706) 1505
(-0.00123706 0.0899499 0.000277498) 3491
(0.00345522 0.0173492 0.000266913) 1102
(0.0157523 -3.71874e-05 0.000226787) 269
(0.0151277 -0.0093153 0.000262673) 253
(0.0139464 -0.0349546 0.000292762) 1440
(-0.0253278 0.0250892 0.000286558) 532
(0.0172451 -0.0213672 0.000266917) 857
(0.0460292 -0.0151048 0.000290348) 1522
(-0.00908739 0.0210233 0.000264968) 1128
(0.0131639 0.0466216 0.000263568) 2362
(-0.0196825 -0.0374214 0.000279891) 2073
(-0.0740743 0.026124 0.000314214) 1800
(0.000574541 0.100903 0.000270003) 3494
(-0.0178217 0.042437 0.000274089) 2386
(0.0305525 0.0232039 0.000274436) 1553
(-0.022447 0.0411865 0.000262935) 2386
(-0.0244499 -0.041647 0.000292203) 2074
(0.0308022 0.0187399 0.000282446) 292
(0.015756 0.00190658 0.00024041) 269
(-0.00766038 -0.06791 0.000297896) 2086
(-0.00973697 -0.0245511 0.000246583) 817
(-0.0167997 0.0350601 0.000293762) 2385
(0.000603838 -0.0943827 0.000276719) 3212
(-0.0328182 0.0159921 0.000272199) 1401
(-0.0166524 0.0322364 0.000297703) 1475
(0.0254221 -0.0536776 0.000308807) 2108
(0.0195246 -0.0230123 0.000283978) 858
(-0.0316169 0.014755 0.000293808) 540
(-0.0273725 -0.0269021 0.00032007) 1406
(-0.0233511 0.010456 0.000288726) 537
(-0.0408278 -0.0179737 0.000276693) 1826
(0.0568882 -0.00126078 0.000262351) 1532
(0.0201953 -0.00840469 0.0002693) 255
(-0.000215318 0.0744014 0.000262415) 2375
(-0.0082672 -0.0152519 0.000313078) 813
(0.0311331 0.0224025 0.000302284) 1553
(-0.0241801 0.0241821 0.000313494) 1140
(-0.0198238 0.0199674 0.000238344) 1137
(-0.0642646 -0.0360662 0.000300499) 1831
(0.0491494 0.00121317 0.000257033) 1531
(0.0145216 0.0145426 0.000254684) 1086
(-0.0171412 -0.00325749 0.000278119) 558
(0.0169492 0.0335246 0.000286648) 1471
(0.0132653 -0.0293991 0.000286675) 851
(-0.0696881 -0.0166171 0.000273004) 1823
(0.0244241 -0.00136879 0.000282795) 272
(-0.0455098 0.0190289 0.000254703) 1795
(0.00733678 -0.0521922 0.000274556) 2099
(0.0181302 0.0370429 0.00030078) 2353
(0.0302212 -0.0116957 0.000250459) 259
(0.0200078 0.0393592 0.000278715) 2354
(-0.0226255 0.042412 0.000308045) 2386
(-0.00373429 0.0383187 0.000255271) 2369
(-0.0373805 0.0185111 0.000288496) 1793
(-0.000344246 0.0157569 0.000309424) 1109
(-0.0253474 0.00928458 0.000292366) 545
(0.0428089 0.0234868 0.000264927) 1547
(0.0173928 0.0225085 0.000254515) 1089
(0.0197072 0.0237684 0.000252406) 1090
(-0.0101373 0.0622172 0.000253093) 2381
(0.0124709 0.0279515 0.000294807) 1098
(-0.00200509 0.0777845 0.000274877) 2376
(-0.0122021 0.0618108 0.000265103) 2381
(0.0249595 -0.028912 0.000284188) 1441
(-0.00568715 0.0205153 0.000293508) 1119
(0.00542355 -0.032801 0.000266047) 843
(0.00609573 -0.0231063 0.000310139) 840
(-0.0534571 -0.0261317 0.000295225) 1828
(0.0194573 -0.0040553 0.000316115) 263
(-0.0223365 -0.0218483 0.000243492) 578
(0.00225516 0.0340967 0.000292755) 1116
(-0.00979657 -0.015081 0.000262928) 813
(-0.0389578 0.0185515 0.000284049) 1793
(-0.0458993 -0.0217807 0.000244676) 1827
(-0.0223827 -0.0391427 0.000263932) 2074
(0.019984 0.021153 0.000251106) 1089
(0.020446 -0.0231562 0.000274242) 858
(-0.047469 -0.0238867 0.000272322) 1827
(-0.0192562 -0.0440531 0.000258757) 2074
(0.00663384 -0.0928732 0.000247218) 3212
(-0.0646521 0.00784212 0.000267126) 1805
(0.0195245 0.0390559 0.000266043) 2354
(-0.0164036 -0.0323545 0.000301728) 1436
(0.0256589 9.04044e-05 0.000274881) 273
(0.0183171 0.0400215 0.000232867) 2354
(-0.0135238 0.0492688 0.000262301) 2379
(-0.0237796 -0.0233227 0.000258378) 579
(0.015724 -0.0393956 0.000279503) 2105
(-0.0385086 0.0184233 0.000272553) 1793
(0.0239731 -0.0155475 0.000298882) 249
(-0.0226795 0.0226791 0.000306773) 531
(-0.0337235 -0.0169891 0.00029308) 1405
(-0.0174264 0.0174208 0.000309994) 527
(0.0153439 -0.00738351 0.00023481) 253
(0.0137236 0.0270825 0.000280616) 1098
(-0.0960573 0.00680982 0.000289434) 2933
(-0.0284492 -0.00840258 0.00028402) 562
(0.00310443 0.0383725 0.000281479) 2369
(-0.0455983 0.0202425 0.000269926) 1795
(0.00249966 -0.0895348 0.000262618) 3211
(0.0356022 0.0165855 0.000256977) 1545
(-0.0487105 0.0247902 0.00025631) 1796
(-0.0255531 -0.0250895 0.000273215) 580
(0.00821384 -0.015968 0.000284848) 846
(-0.0084521 -0.0152261 0.000299695) 813
(-0.0156317 0.0420031 0.000259907) 2386
(-0.0120002 0.0197791 0.000257774) 1127
(0.0179838 0.038277 0.000274708) 2353
(-0.00239589 0.0449663 0.000243464) 2370
(-0.0232005 -0.0951356 0.000298393) 3205
(0.0226334 -0.0447985 0.000277452) 2107
(-0.000599562 -0.0197655 0.000290627) 831
(0.0194139 -0.00796981 0.000302215) 255
(-0.0170537 -0.00674371 0.000312935) 558
(-0.0401069 0.0185826 0.000250366) 1794
(-0.0257345 -0.0252573 0.000284471) 580
(-0.0337163 -0.0169145 0.000269898) 1405
(0.0203258 -0.0149446 0.000286934) 248
(0.0308942 -0.0113539 0.000236502) 259
(0.0428754 0.014325 0.0002824) 1538
(-0.022377 -0.0397134 0.000268983) 2074
(-0.00210852 -0.0999186 0.000275709) 3214
(0.0581515 0.00108237 0.000273754) 1532
(-0.0196872 0.041438 0.0002565) 2386
(-0.0193386 -0.033356 0.00030289) 2073
(0.00128288 -0.0884446 0.000289356) 3210
(0.0416168 0.00062736 0.000236377) 1529
(0.0242212 -0.00885476 0.000323068) 265
(-0.000225182 -0.0608632 0.000276359) 2093
(0.0209753 0.0101558 0.00025656) 288
(-0.012314 0.0312847 0.00028873) 1132
(0.0493817 -0.00069188 0.000315661) 1531
(0.00367559 -0.087771 0.00032337) 3210
(-0.0257545 0.0257057 0.000321818) 1400
(-0.0652124 0.00455627 0.00028328) 1814
(-0.0221096 -0.0397175 0.000280108) 2074
(-0.0832178 -0.00106707 0.000297723) 2929
(-0.0217786 0.0383465 0.000274902) 2386
(0.0233459 0.0110329 0.00027113) 289
(-0.0655255 0.00746517 0.000312456) 1806
(0.0316866 -0.0240654 0.000278055) 1505
(-0.0746972 0.00100967 0.000268247) 1815
(-0.0188962 -0.045406 0.000258844) 2075
(0.0156172 0.0380325 0.000249665) 2353
(-0.0264495 0.010804 0.000297225) 538
(0.018563 0.0230234 0.000287544) 1090
(0.031 0.01283 0.000309245) 292
(0.0104401 -0.050796 0.000262492) 2099
(0.0177335 -0.0449877 0.000285481) 2106
(-0.02559 0.0257362 0.000269497) 1476
(-0.0138882 0.0560678 0.000289155) 2380
(0.0232901 0.0226622 0.000283161) 299
(-0.0172097 -0.0327269 0.0002817) 1436
(-0.0256575 -0.0447075 0.000252882) 2075
(0.0233976 0.0270995 0.000290958) 1092
(0.00451211 0.0471622 0.00026095) 2370
(0.0102119 -0.0583395 0.000255345) 2100
(-0.0181671 -0.0414843 0.000278508) 2074
(0.00124647 -0.088666 0.000304325) 3210
(0.0204226 0.0233523 0.000297777) 1090
(0.0155582 0.0349772 0.000307869) 2353
(-0.0225555 0.0412034 0.000270549) 2386
(0.0161206 0.00806066 0.000289545) 286
(-0.0430213 -0.0229128 0.000268018) 1826
(-0.0411263 0.0190418 0.000254058) 1794
(0.035333 0.000984868 0.000297534) 276
(-0.0416444 -0.0222629 0.000269969) 1826
(-0.0186594 -0.0336591 0.000279654) 2073
(0.0408906 -0.014126 0.00028445) 1521
(0.0317098 0.0189715 0.000283267) 1370
(-0.089774 0.00112597 0.000286857) 2931
(0.0108492 -0.0156891 0.000282821) 854
(0.0166762 0.0221455 0.000270646) 1089
(-0.0235687 -0.0231253 0.000292921) 579
(0.0246179 0.0265507 0.000327183) 1470
(-0.0961201 -0.00401107 0.000267257) 2933
(-0.00121013 -0.0186426 0.00028361) 830
(-0.00040074 -0.0973618 0.000271808) 3213
(-0.0240906 0.024006 0.000294558) 531
(-0.0358849 0.00496674 0.000297151) 1402
(-0.0827874 0.00331885 0.000284537) 2929
(-0.043379 0.0223033 0.000295118) 1795
(-0.0080062 -0.0461656 0.000315944) 2082
(0.000780576 0.0909791 0.000264461) 3491
(-0.040048 -0.0175718 0.000271562) 1826
(-0.00938833 0.0622426 0.000268801) 2381
(0.0256371 -0.0257102 0.000288312) 1441
(-0.105734 -0.000869536 0.000265635) 2935
(-0.0154983 0.0281519 0.000289309) 1131
(0.0346417 -0.0118131 0.000270343) 1367
(-0.0173002 -0.0328083 0.000243527) 1436
(-0.00601746 -0.0155419 0.000280371) 821
(0.000259968 -0.0571704 0.000278473) 2092
(0.0311297 0.0183271 0.000259005) 292
(0.016291 0.0158144 0.000275351) 294
(0.0197664 0.0236412 0.000293251) 1090
(-0.023367 -0.0228855 0.000277773) 579
(-0.050366 -0.0201627 0.000260425) 1828
(-0.0811981 0.000875848 0.000280886) 1816
(0.0154233 0.0350058 0.000280945) 1471
(0.0153011 -0.062148 0.000290312) 2101
(-0.0228746 0.0532697 0.000309395) 2388
(-0.0261881 -0.0257177 0.000288983) 1406
(0.00258866 0.0621211 0.000257529) 2373
(0.0088771 0.0219082 0.00026792) 1096
(-0.0377379 0.018746 0.000305269) 1793
(-0.0810533 0.00118182 0.000280437) 1816
(-0.0217816 -0.00297479 0.000293175) 559
(0.0176456 0.0924379 0.000315142) 3484
(-0.0249931 0.0247806 0.000255803) 532
(0.0163201 -0.0399248 0.000302302) 2105
(0.0249963 -0.0255506 0.000263385) 860
(-0.0410141 -0.0177689 0.000301494) 1826
(0.00130499 0.0186658 0.000279345) 1110
(-0.0233298 -0.0227987 0.000289986) 579
(-0.0649645 0.00864256 0.000294536) 1806
(-0.0265593 0.0100684 0.000286164) 538
(0.0198433 -0.0229782 0.000292016) 858
(0.0032519 0.0173333 0.000300398) 1102
(0.0246018 0.0265571 0.000296525) 1470
(-0.024951 0.0251775 0.000285833) 1140
(0.0131205 0.0361974 0.000331427) 2353
(0.0360074 0.0134223 0.000302269) 1545
(-0.0159133 -0.028712 0.000294162) 819
(0.00901577 0.0224929 0.00025765) 1096
(0.0423205 0.0163661 0.000274444) 1546
(-0.0169535 -0.00248027 0.000296224) 558
(0.01914 0.0452503 0.000297161) 2355
(0.00692939 0.0212644 0.000265305) 1103
(0.0231978 0.0267501 0.00025115) 1092
(-0.0157217 0.00291566 0.000236174) 541
(0.0156861 -0.0306613 0.000265399) 852
(0.0426366 -0.0148822 0.000321808) 1522
(0.04346 -0.0156188 0.000271751) 1514
(-0.0413036 -0.0228016 0.000313872) 1826
(0.0334931 0.00252447 0.000302069) 276
(-0.105137 0.00250275 0.0132041) 2991
(-0.0424766 -0.020203 0.000276135) 1826
(-0.0238677 -0.0427264 0.000262584) 2075
(-0.00466083 -0.0889273 0.000269222) 3210
(-0.0258677 -0.0255613 0.000260536) 1406
(-0.0343466 -0.0169116 0.000290913) 1825
(-0.0874958 -0.00798215 0.000261748) 2930
(-0.0534726 0.0305021 0.000281092) 1797
(0.0143336 0.0304236 0.000282179) 1100
(-0.00448592 0.0228995 0.000294452) 1120
(0.0596326 0.00158896 0.000274965) 1533
(-0.0627394 0.0105257 0.0002736) 1805
(0.0305927 -0.0203599 0.000283384) 1365
(-0.0245934 0.045168 0.000311717) 2387
(-0.0431889 0.0184639 0.000253461) 1794
(0.0191131 0.00688984 0.000323999) 279
(0.030313 9.77849e-05 0.000264791) 274
(-0.0759993 0.00281362 0.000260775) 1815
(0.0117065 -0.0600014 0.000268744) 2101
(0.0492287 -0.000761437 0.000293352) 1531
(0.0308423 -0.0181844 0.000273558) 260
(-0.0241649 0.0241672 0.000277295) 1140
(0.0172085 0.0341827 0.000307289) 2353
(0.0204033 -0.00892688 0.000262487) 255
(-0.0266341 -0.00513313 0.000236309) 561
(-0.021655 -0.0581279 0.000250714) 2077
(0.00144963 0.0298191 0.000262535) 1114
(-0.000590174 -0.0578565 0.000318771) 2092
(-0.0535512 -0.0232842 0.000271884) 1828
(-0.0150243 0.0396997 0.000269225) 2385
(0.0236478 -0.0252435 0.000272626) 860
(0.00381239 -0.0172403 0.000269175) 838
(0.0430383 0.0176581 0.000273335) 1546
(-0.0189321 -0.0317738 0.000315057) 1436
(0.0577411 -0.00124233 0.000277457) 1532
(-0.0461346 -0.0221417 0.000278598) 1827
(-0.00576721 -0.0155536 0.00028498) 821
(-0.023211 0.0229944 0.000288336) 531
(0.0233658 -0.0248625 0.000278195) 860
(0.0256064 -0.0258779 0.00029061) 1441
(0.0241462 -0.0253016 0.000283369) 860
(0.012291 0.0213888 0.000266194) 1096
(-0.025883 -0.0255065 0.000272334) 1406
(-0.0186144 -0.0186357 0.000281302) 808
(-0.0210581 0.0210638 0.000299104) 1138
(-0.0481409 0.0241551 0.00028775) 1795
(-0.0393838 -0.0165054 0.00028552) 1825
(-0.0838653 0.00027616 0.000288767) 2929
(0.0101447 -0.0599984 0.000274717) 2101
(0.00455138 0.100804 0.000281372) 3494
(0.0157521 -0.00163221 0.00029838) 269
(-0.077755 0.00601685 0.000274989) 1816
(-0.00933212 0.0675094 0.000284235) 2382
(-0.0155141 -0.0332436 0.000290966) 1436
(-0.100916 0.00446184 0.000298304) 2934
(0.0418958 0.0159843 0.000292489) 1546
(0.0584114 -0.00294067 0.000277043) 1532
(0.0392858 -0.0167564 0.000269933) 1513
(0.0355238 0.0148432 0.000257786) 1545
(-0.0187738 0.0439729 0.000279699) 2386
(0.0565065 8.83692e-05 0.000290701) 1532
(0.0144384 0.0571917 0.000288471) 2364
(-0.0786978 -0.00155462 0.000293519) 1816
(-0.0210262 -0.0384771 0.000266893) 2074
(-0.00378307 -0.0316359 0.000248473) 827
(0.0346166 0.0163099 0.000293411) 1545
(0.0236616 -0.0251827 0.000283512) 860
(-0.0344744 -0.0166346 0.000318597) 1825
(-0.0256502 0.0256617 0.000279735) 1140
(-0.0483874 0.023482 0.000231834) 1795
(-0.0239926 -0.0239084 0.000269703) 579
(-0.0211952 -0.00803245 0.000289154) 568
(-0.018355 -0.016538 0.000266294) 575
(0.0402932 -0.0164651 0.000279072) 1513
(-0.0167089 -0.0345585 0.000244752) 2073
(0.0240105 0.00950318 0.000269441) 289
(-0.0130811 0.0213188 0.000263858) 1128
(0.020504 -0.0150247 0.000274555) 248
(0.0190789 -0.0366333 0.000301394) 2105
(-0.00379466 -0.0968955 0.000294468) 3213
(0.00519492 -0.104955 0.000287268) 3215
(0.00221211 -0.0383749 0.000269195) 2089
(0.00188871 0.100798 0.000264266) 3494
(-0.0218233 -0.00278424 0.00031313) 559
(-0.0348406 -0.01585 0.000287855) 1825
(-0.0203295 0.0379802 0.000299089) 2385
(-0.0259417 -0.0254251 0.000275328) 1406
(0.0133698 -0.0176129 0.00024782) 855
(0.0374228 0.0189413 0.000286402) 1545
(0.000950105 0.072739 0.000280792) 2375
(-0.0166535 -0.00105342 0.00028053) 550
(-0.00104119 -0.0541603 0.000286751) 2092
(-0.0209102 -0.0203597 0.000274125) 577
(-0.0414117 -0.0234067 0.000294411) 1826
(-0.0122476 -0.0278577 0.000290425) 818
(0.0582305 -0.00207044 0.000304289) 1532
(-0.0244271 -0.0507559 0.000281211) 2076
(0.0245359 -0.0460954 0.000285751) 2107
(-0.0225581 0.0225858 0.000284215) 1138
(-0.047363 -0.0222226 0.000277911) 1827
(-0.00458343 0.0384429 0.000264482) 2377
(-0.000267535 0.0362145 0.000252632) 1473
(0.0185947 0.0408972 0.000280799) 2354
(-0.0418971 0.020897 0.000282954) 1794
(-0.0360888 -0.0188399 0.00028847) 1825
(-0.0364407 0.0181503 0.000264087) 1793
(0.00382055 -0.103058 0.000262626) 3215
(-0.0416771 -0.0234758 0.000286915) 1826
(0.0117544 0.0519838 0.000273776) 2363
(0.00250906 0.0781045 0.00029166) 2376
(-0.0164564 -0.00396568 0.00027901) 558
(-0.051612 -0.0213479 0.00026631) 1828
(-0.0361217 0.0182536 0.00030571) 1793
(0.0208853 0.0248269 0.000258852) 1091
(-0.0197043 -0.0386177 0.000277478) 2073
(0.00305016 0.0172108 0.000283286) 1102
(-0.00884663 0.0545067 0.000266462) 2380
(-0.0606906 -0.0297218 0.000265975) 1830
(0.0268849 0.0119601 0.000275012) 290
(0.000158315 0.0894935 0.000289903) 3491
(-0.0236206 0.0233964 0.000307218) 531
(-0.0256612 0.0256926 0.000295696) 1476
(-0.0275957 -0.0269466 0.000282127) 1833
(0.0228932 0.0269293 0.000315717) 1092
(0.0142058 -0.0291508 0.000254463) 851
(0.0441264 -0.0126789 0.000261636) 1522
(0.000233495 -0.0211564 0.000302018) 831
(-0.00601131 -0.0155344 0.000283338) 821
(-0.00155792 0.100689 0.000294566) 3494
(-0.0274273 -0.0270352 0.000302262) 1833
(-0.0206998 0.0503199 0.000255764) 2388
(0.02065 0.0394368 0.000263951) 2354
(-0.0258422 -0.0252309 0.000305942) 580
(0.0150936 0.0100908 0.000242883) 285
(-0.0589256 0.011588 0.000286993) 1805
(0.0443728 -0.013647 0.00027762) 1522
(-0.00315143 0.0157046 0.000291353) 1117
(0.019442 -0.044123 0.000260248) 2106
(-0.0235928 -0.0231381 0.000264482) 579
(-0.0251612 0.0447998 0.000312263) 2387
(0.0227655 0.0280276 0.000312651) 1470
(0.00603915 -0.0528525 0.000297383) 2099
(0.000655088 0.0741568 0.000260267) 2375
(-0.0223544 -0.0221499 0.000310456) 578
(0.0597926 -0.000792728 0.00026463) 1533
(0.0191474 -0.0368556 0.000294538) 2105
(0.023568 -0.0461035 0.000241451) 2107
(-0.0802564 0.000242037 0.000261152) 1816
(-0.000485499 0.0577001 0.000290781) 2372
(-0.0216807 0.0500119 0.000258659) 2388
(-0.0186328 0.00238695 0.000287742) 550
(-0.000203615 -0.021284 0.000273374) 831
(-0.0532368 -0.020094 0.000286499) 1828
(0.0355226 -0.0124671 0.00028561) 1366
(-0.000851643 -0.0935489 0.000257006) 3212
(-0.0182422 -0.0380931 0.000274532) 2073
(0.0125845 0.0576091 0.000273932) 2364
(0.0365605 -0.0106931 0.000295848) 1367
(0.0312911 0.0221929 0.000282304) 1553
(0.03889 -0.0188569 0.000294439) 1513
(-0.0827596 -0.000119874 0.000255076) 2929
(-0.027312 -0.0268968 0.000261688) 1406
(-0.0648291 0.0273068 0.0002903) 1798
(-0.0502411 0.0203704 0.000276267) 1796
(0.0263559 -0.0310613 0.000317534) 2113
(-0.0294134 0.0604829 0.000275828) 2390
(-0.0581639 0.00920575 0.000299575) 1804
(0.0184921 -0.00119419 0.000280075) 270
(0.0202414 0.0243394 0.000291031) 1091
(0.0459206 0.0147091 0.00028374) 1538
(-0.0810727 0.00336138 0.000253042) 1816
(-0.0176387 0.0319475 0.000274888) 1475
(0.0499985 0.00340129 0.000260079) 1531
(0.0316377 -0.0238203 0.000261827) 1505
(-0.00692995 0.0559604 0.000263916) 2380
(0.017405 0.0448858 0.000290824) 2354
(0.0121429 -0.0319326 0.000280041) 852
(-0.0171139 0.0354726 0.000298195) 2385
(-0.00212225 -0.0579162 0.00030435) 2092
(-0.0469815 0.0218232 0.000287253) 1795
(-0.0239643 -0.00505204 0.000261604) 560
(0.0458057 0.0160452 0.00029324) 1546
(-0.0253296 0.0252683 0.000296221) 532
(-0.0667253 0.00446092 0.000284459) 1814
(-0.0320382 0.015358 0.00026275) 540
(-0.100943 0.00586211 0.000287447) 2934
(-0.0498521 0.0254525 0.000243727) 1796
(-0.0598668 0.0270379 0.000273029) 1798
(0.0327454 0.0162867 0.000286979) 1370
(0.0265449 0.0246024 0.000272646) 1371
(0.0197628 0.023711 0.000252326) 1090
(0.0288291 0.062679 0.000286041) 2358
(-0.0213262 0.0391002 0.000272329) 2386
(-0.00382179 0.0328853 0.000303821) 1123
(0.0184896 -0.00395026 0.000266155) 262
(-0.0387414 0.0184194 0.000277651) 1793
(0.0271814 -0.0272729 0.000277324) 2113
(-0.0358491 0.0176445 0.000303854) 1793
(-0.10101 0.00174836 0.000257021) 2934
(-0.0849973 0.00626724 0.00028973) 2929
(-0.0194697 -0.031842 0.000277134) 1436
(0.0276894 -0.0213359 0.000291026) 252
(-0.017095 -0.00390102 0.000306112) 558
(0.0374747 -0.0112123 0.000283103) 1521
(-7.08732e-05 0.0731684 0.000278664) 2375
(0.0207079 0.0247305 0.000285354) 1091
(0.0263551 0.0504825 0.000308062) 2356
(0.000541372 0.100794 0.000280228) 3494
(-0.00327499 -0.0276386 0.00026635) 825
(0.0157508 0.00193642 0.000268445) 269
(0.0194487 -0.0230584 0.000298282) 858
(0.0596782 -0.00145746 0.000257744) 1533
(0.00419047 0.0372793 0.000247938) 1473
(0.0207769 -0.0232902 0.000262048) 858
(-0.00580282 -0.0578898 0.000227606) 2092
(-0.0441807 -0.0240113 0.000277296) 1827
(-0.0176908 -0.031632 0.000274414) 1436
(0.024886 0.010347 0.000273824) 289
(0.0229894 0.0267536 0.000288595) 1092
(-0.00423858 -0.0989957 0.000280715) 3213
(0.042998 -0.0149852 0.000298565) 1522
(0.0318267 0.0215385 0.00032157) 1553
(0.0258898 0.0098925 0.000252068) 289
(-0.0191653 -0.0329738 0.000267509) 1436
(-0.048073 0.0255524 0.000262105) 1796
(-0.0662175 0.00754046 0.000303389) 1806
(-0.0192511 0.00237579 0.000290554) 551
(-0.0021764 -0.0601748 0.000238553) 2093
(0.0241404 0.0104302 0.000274791) 289
(0.00314843 0.0164816 0.00028355) 1102
(-0.0441636 0.0230346 0.000280164) 1795
(0.0347655 0.0199838 0.000279986) 1545
(0.0198633 0.0235476 0.000288526) 1090
(-0.025582 0.026268 0.000288158) 1476
(0.0405579 0.0140827 0.0002937) 1537
(-0.0648294 -0.0370298 0.000297106) 1831
(-0.00012569 0.100816 0.000264706) 3494
(-0.0961198 -0.00558101 0.000281957) 2933
(0.0359888 -0.0135431 0.000295146) 1513
(0.0279854 0.0194573 0.00028594) 300
(0.0143198 -0.0396471 0.000259726) 2105
(-0.024659 0.00798849 0.00028465) 545
(-0.0337111 -0.016912 0.00026031) 1405
(0.00098949 0.0960448 0.000322426) 3492
(0.0052706 -0.0171911 0.00024848) 838
(0.0410986 -0.0172876 0.000282395) 1514
(-0.0057963 0.0961321 0.000315915) 3493
(0.0189221 -0.00632407 0.000310336) 263
(-0.0587994 -0.013846 0.000263752) 1821
(-0.0216991 -0.0368429 0.000296093) 2073
(-0.0224743 -0.0442901 0.000290178) 2075
(0.00413094 0.0711331 0.00024569) 2375
(0.0233023 0.0270123 0.000276313) 1092
(0.00338645 0.054222 0.000282132) 2372
(-0.0223729 0.041097 0.000265647) 2386
(0.0145177 0.0196821 0.000285451) 1088
(0.0124373 -0.0523762 0.000268301) 2099
(-0.0171637 -0.0297257 0.000255655) 820
(0.00157591 0.0186343 0.000270983) 1110
(0.0331981 -0.0213792 0.000272334) 1505
(0.0205845 -0.0390947 0.000282326) 2106
(0.023533 0.0271285 0.000287421) 1092
(0.00922286 -0.025193 0.000317658) 841
(-0.00083869 0.0744536 0.000271404) 2375
(0.00204412 0.0157727 0.000302445) 1109