/*--------------------------------*- C++ -*----------------------------------*\
| =========                 |                                                 |
| \\      /  F ield         | OpenFOAM: The Open Source CFD Toolbox           |
|  \\    /   O peration     | Version:  plus.master                           |
|   \\  /    A nd           | Web:      www.OpenFOAM.com                      |
|    \\/     M anipulation  |                                                 |
\*---------------------------------------------------------------------------*/
FoamFile
{
    version     2.0;
    format      ascii;
    class       vectorField;
    location    "10.8/lagrangian/kinematicCloud";
    object      UCorrect;
}
// * * * * * * * * * * * * * * * * * * * * * * * * * * * * * * * * * * * * * //


96597
(
(9.36739e-05 0.00427959 1.31811e-05)
(0.000152434 -9.724e-05 4.34332e-05)
(-3.74711e-07 2.22477e-05 7.6671e-07)
(-1.79078e-06 2.4806e-05 5.12888e-05)
(2.13052e-05 -3.79294e-05 2.0983e-05)
(-5.77459e-05 -8.58888e-05 5.20639e-05)
(1.57887e-05 -6.04805e-06 5.02636e-05)
(-0.000364208 0.000205965 0.00131347)
(2.19653e-05 1.91106e-05 4.62916e-05)
(4.39883e-06 1.33753e-05 4.20928e-05)
(3.40981e-05 4.53466e-05 0.00105133)
(8.29687e-05 6.11222e-05 4.47871e-05)
(0.000150309 -0.000154564 0.00146674)
(0.000164457 0.000183694 0.00117555)
(0.000101117 1.93174e-11 4.54922e-05)
(-4.33515e-05 6.86696e-05 0.000912682)
(0.000549482 0.00454495 5.81117e-05)
(-6.57297e-05 3.16542e-05 5.21593e-05)
(0.000113767 3.2431e-05 4.88277e-05)
(2.3475e-05 5.85068e-06 4.15091e-05)
(-9.79712e-05 0.000122599 0.00110657)
(5.24921e-07 5.09524e-05 4.87556e-05)
(-9.10826e-05 -4.3863e-05 0.00121739)
(-3.43107e-05 -1.02074e-05 5.35898e-05)
(0.000152318 -0.000101357 4.92127e-05)
(6.11922e-06 -1.09877e-05 3.76293e-05)
(-9.39683e-05 0.000110582 0.00113642)
(-4.94429e-12 7.74755e-05 3.48972e-06)
(-3.10145e-05 -1.49358e-05 5.04293e-05)
(8.41433e-05 -0.000117113 4.9581e-05)
(-9.63539e-05 0.000108196 0.00113642)
(0.000143146 -7.26333e-05 0.00111021)
(-4.42713e-05 2.32209e-05 5.24221e-05)
(-0.000117217 0.000143504 0.00115921)
(3.56205e-05 0.000143525 0.00110341)
(8.29687e-05 6.11222e-05 4.54839e-05)
(3.65507e-06 -8.66745e-06 4.48211e-05)
(6.36743e-07 1.99189e-05 0.00109285)
(6.24788e-05 0.000133363 3.02047e-06)
(-3.1571e-05 1.19537e-06 1.07966e-06)
(-4.941e-05 -9.65138e-06 3.7973e-05)
(-6.05085e-05 -3.67123e-05 5.16963e-05)
(0.00023417 0.00014407 0.00124393)
(-4.4312e-05 2.13395e-05 4.8985e-05)
(-4.53707e-05 6.36501e-05 5.5048e-05)
(8.72326e-05 -0.000130858 4.79223e-05)
(7.61288e-12 8.77196e-05 4.64998e-05)
(-1.54816e-05 -3.42278e-05 6.08764e-05)
(-6.05085e-05 -3.67123e-05 4.45428e-05)
(-7.56791e-05 5.08969e-05 5.27602e-05)
(9.09214e-05 -4.74831e-05 4.70476e-05)
(-6.49538e-05 9.49133e-05 5.11879e-05)
(2.75919e-05 -9.68405e-05 4.484e-05)
(-4.56846e-06 -3.4053e-05 4.67666e-05)
(0.000107809 -5.7922e-05 4.76499e-05)
(2.19653e-05 1.91106e-05 4.30756e-05)
(0.000115391 0.000121622 4.85697e-05)
(-0.000276669 -0.000767494 5.90069e-05)
(-4.42326e-05 7.42163e-05 4.9513e-05)
(1.4473e-05 1.73787e-06 4.14014e-05)
(5.32403e-05 -6.15835e-05 4.96764e-05)
(9.09214e-05 -4.74831e-05 4.74115e-05)
(0.000139393 8.82947e-05 0.00112832)
(-4.42326e-05 7.42163e-05 5.04394e-05)
(0.000788647 3.56742e-05 6.20069e-05)
(-3.10145e-05 -1.49358e-05 5.40926e-05)
(-4.94429e-12 7.74755e-05 3.86605e-06)
(0.000843337 -0.000796895 0.00123228)
(-0.000110619 -1.52925e-11 5.12022e-05)
(5.32403e-05 -6.15835e-05 4.26988e-05)
(2.75919e-05 -9.68405e-05 4.80008e-05)
(0.000115391 0.000121622 5.10626e-05)
(2.19653e-05 1.91106e-05 5.14775e-05)
(3.38405e-05 2.42322e-05 4.25253e-05)
(0.000231705 0.000144817 5.12282e-05)
(0.000152434 -9.724e-05 4.63764e-05)
(0.000142795 2.06711e-12 0.000959329)
(0.000294682 0.00068651 6.52288e-05)
(0.0001339 9.89732e-05 5.13832e-05)
(-0.000107341 0.000730834 4.89564e-05)
(3.21396e-05 0.000111494 0.00112204)
(3.40955e-05 -7.79685e-05 0.00109136)
(-4.27231e-05 2.03257e-05 5.17617e-05)
(0.000132661 0.000180098 5.09307e-05)
(-0.000105241 0.000110435 0.00106103)
(0.000161484 0.000144749 5.12909e-05)
(0.000128447 -0.000188442 5.24473e-05)
(6.36743e-07 2.66675e-05 4.6165e-05)
(0.000799556 0.000472061 5.23711e-05)
(-0.000129032 -0.000175433 0.00109218)
(-0.000378229 0.000347707 5.46616e-05)
(0.00013252 -0.000394055 5.07048e-05)
(1.57887e-05 -6.04805e-06 4.71716e-05)
(-3.10145e-05 -1.49358e-05 4.76428e-05)
(0.000155431 -7.31574e-05 0.00121003)
(-1.26244e-05 -0.000218472 0.00113286)
(0.000113767 3.2431e-05 5.04401e-05)
(-3.1571e-05 1.19537e-06 1.08505e-06)
(3.46941e-05 -3.44533e-06 3.84353e-05)
(0.000505347 0.000215574 6.64136e-05)
(6.01041e-05 -1.18541e-06 1.25593e-06)
(3.76667e-05 0.000167435 4.9921e-05)
(0.000101117 1.93174e-11 4.58056e-05)
(-0.000183525 -0.0001058 0.00110692)
(0.000257982 -0.000169059 5.71438e-05)
(-4.27231e-05 2.03257e-05 5.52419e-05)
(6.36743e-07 2.66675e-05 4.4858e-05)
(-4.53707e-05 6.36501e-05 5.17938e-05)
(9.04901e-05 -0.000104922 6.58311e-07)
(-6.57709e-05 4.23125e-05 4.81512e-05)
(-4.94413e-05 7.29381e-05 5.10586e-05)
(8.72326e-05 -0.000130858 5.07407e-05)
(3.06234e-06 -3.11832e-05 4.99639e-05)
(0.000113767 3.2431e-05 5.03222e-05)
(5.63491e-05 0.000251796 5.03306e-05)
(5.34977e-05 -0.000108424 4.89653e-05)
(0.000231705 0.000144817 5.14029e-05)
(-7.83314e-05 -3.77225e-05 4.93337e-05)
(0.000184246 -0.00013005 5.09995e-05)
(5.34977e-05 -0.000108424 4.79357e-05)
(5.97206e-05 1.74111e-06 5.03987e-05)
(1.26138e-05 -1.43636e-05 5.23724e-05)
(6.83971e-05 -0.000151794 0.00118415)
(-5.77459e-05 -8.58888e-05 5.27229e-05)
(0.000358529 9.46712e-05 5.63239e-05)
(-0.000234604 -0.000160916 5.12097e-05)
(2.57726e-05 0.000103802 4.52522e-05)
(7.61288e-12 1.12894e-05 0.00108077)
(5.0632e-05 -1.84896e-05 4.92555e-05)
(5.97206e-05 1.74111e-06 4.52282e-05)
(0.000152434 -9.724e-05 4.90086e-05)
(5.63491e-05 0.000251796 5.17593e-05)
(2.19653e-05 1.91106e-05 4.63277e-05)
(3.79758e-05 5.68044e-05 4.41667e-05)
(0.000141202 0.000207799 5.24853e-05)
(-4.94429e-12 7.74755e-05 3.56992e-06)
(2.50899e-05 1.33037e-05 4.82498e-05)
(0.000148437 -0.000479049 5.51401e-05)
(6.36743e-07 2.66675e-05 4.4451e-05)
(-4.42326e-05 7.42163e-05 4.69467e-05)
(-7.66209e-05 8.57193e-05 0.000926182)
(0.000212584 5.92051e-05 5.0782e-05)
(-3.10145e-05 -1.49358e-05 5.22697e-05)
(-3.85536e-05 6.79934e-05 0.00147507)
(2.75919e-05 -9.68405e-05 4.6292e-05)
(-0.000114376 -0.000303518 0.00113286)
(1.37427e-05 1.16145e-06 8.40958e-07)
(-4.92757e-05 0.00028337 5.17659e-05)
(-3.10145e-05 -1.49358e-05 4.91737e-05)
(0.000135972 2.59073e-07 3.37376e-05)
(0.00028151 -0.0005757 5.34839e-05)
(1.90379e-05 0.000158696 4.26457e-05)
(0.000746609 -0.000245664 6.55856e-05)
(2.19653e-05 1.91106e-05 4.5583e-05)
(0.000152434 -9.724e-05 4.88879e-05)
(0.000152786 -0.000186534 4.85658e-05)
(7.97586e-07 2.91669e-06 4.01019e-05)
(-3.10145e-05 -1.49358e-05 4.55034e-05)
(5.14252e-05 1.57075e-05 5.06711e-05)
(-0.000345973 0.000595131 8.90927e-06)
(-4.73205e-06 7.72665e-06 4.16563e-05)
(7.97586e-07 2.91669e-06 4.10905e-05)
(-4.53707e-05 6.36501e-05 4.87332e-05)
(3.45714e-05 0.000182876 5.15401e-05)
(-0.00116337 -0.00622399 5.47002e-05)
(6.01041e-05 -1.18541e-06 1.31014e-06)
(4.95056e-05 -0.000889045 6.38463e-05)
(3.26808e-05 1.08833e-05 0.00105167)
(0.000218725 0.000210544 5.91295e-05)
(0.000152434 -9.724e-05 4.82945e-05)
(0.000229677 -0.00449588 0.00122543)
(-6.18704e-05 4.33826e-05 0.00115961)
(9.09214e-05 -4.74831e-05 4.90259e-05)
(0.000294682 0.00068651 5.51553e-05)
(-6.49538e-05 9.49133e-05 4.74091e-05)
(-9.12341e-05 -4.96938e-05 5.71641e-05)
(0.000505347 0.000215574 6.91315e-05)
(-0.000110619 -1.52925e-11 5.0398e-05)
(-4.74741e-05 -0.00020786 0.000710932)
(0.000173036 -0.000157858 4.74472e-05)
(-0.00456564 -0.000251385 6.21635e-05)
(-4.4312e-05 2.13395e-05 4.45645e-05)
(-4.4312e-05 2.13395e-05 5.01898e-05)
(-3.10145e-05 -1.49358e-05 5.2205e-05)
(5.91771e-07 -2.3174e-05 4.33221e-05)
(6.74308e-05 0.000122765 4.52192e-05)
(3.14205e-05 0.000162895 0.00116134)
(8.19414e-07 -4.73852e-05 4.49684e-05)
(-4.95608e-05 -8.41461e-05 4.19724e-05)
(0.000152318 -0.000101357 4.90424e-05)
(6.74308e-05 0.000122765 4.33606e-05)
(2.3475e-05 5.85068e-06 3.989e-05)
(0.000170111 0.000142137 0.00121108)
(2.42255e-05 3.33043e-05 3.67928e-05)
(-1.67376e-05 -0.000232342 5.14065e-05)
(2.42406e-06 -0.000666796 5.67136e-05)
(6.72052e-07 3.12454e-06 0.00112983)
(0.000151266 0.000191922 4.71294e-05)
(5.67069e-05 -7.50421e-05 4.82186e-05)
(2.19653e-05 1.91106e-05 4.58999e-05)
(9.26922e-05 5.96937e-05 5.4129e-05)
(6.72052e-07 7.05149e-06 4.45116e-05)
(5.67069e-05 -7.50421e-05 4.02099e-05)
(-0.000112486 0.00012049 0.00113179)
(-1.73768e-05 -2.13899e-05 4.83046e-05)
(0.000181543 -8.29302e-05 0.00123789)
(0.000155428 -7.31633e-05 0.00121003)
(-3.74711e-07 2.22477e-05 7.80672e-07)
(-5.77459e-05 -8.58888e-05 5.16762e-05)
(7.46896e-06 -1.17887e-05 4.98849e-05)
(4.20712e-05 -3.7626e-05 4.85856e-05)
(3.1385e-05 0.000162836 0.00116134)
(5.32403e-05 -6.15835e-05 4.76563e-05)
(-3.10145e-05 -1.49358e-05 5.08581e-05)
(0.000142988 2.06711e-12 0.000959329)
(-0.000119649 0.000153695 0.00119225)
(-0.000116547 -0.000301348 4.39718e-05)
(8.7104e-06 5.39944e-05 2.53789e-05)
(0.000152434 -9.724e-05 4.817e-05)
(6.01041e-05 -1.18541e-06 1.24407e-06)
(-5.55852e-05 2.8848e-05 3.62549e-05)
(-0.000165243 -0.000314923 5.03323e-05)
(-0.000165904 -0.000306282 0.00129984)
(0.000152318 -0.000101357 4.88009e-05)
(-1.36155e-05 2.79165e-05 0.00124202)
(0.000505347 0.000215574 7.52049e-05)
(5.24921e-07 5.09524e-05 4.85786e-05)
(7.46896e-06 -1.17887e-05 4.47067e-05)
(0.000231705 0.000144817 5.05505e-05)
(-9.93933e-05 0.000121177 0.00110657)
(0.00016409 -0.000113727 5.10039e-05)
(8.41433e-05 -0.000117113 5.43673e-05)
(-7.13274e-11 -6.76512e-05 4.56385e-05)
(4.95056e-05 -0.000889045 6.09038e-05)
(-0.00514428 -8.12387e-05 5.29286e-05)
(-0.00423232 0.000214313 6.11843e-05)
(2.55455e-06 3.60716e-05 5.45791e-05)
(-0.000101219 0.000114458 0.00106103)
(2.75919e-05 -9.68405e-05 4.85663e-05)
(5.67069e-05 -7.50421e-05 4.79258e-05)
(-0.000108193 9.63505e-05 5.11368e-05)
(-5.55852e-05 2.8848e-05 3.69637e-05)
(-1.73768e-05 -2.13899e-05 5.16548e-05)
(-7.87466e-06 8.42191e-06 1.97055e-08)
(-4.94429e-12 7.74755e-05 3.59135e-06)
(-4.42326e-05 7.42163e-05 4.9389e-05)
(0.000112629 0.000158809 0.00103281)
(-4.42326e-05 7.42163e-05 4.73791e-05)
(-6.05085e-05 -3.67123e-05 5.37484e-05)
(0.000113767 3.2431e-05 5.0564e-05)
(-0.00514428 -8.12387e-05 5.6108e-05)
(-2.85654e-05 -1.38532e-05 0.000782022)
(-0.00010395 -7.26068e-05 4.93762e-05)
(-4.53707e-05 6.36501e-05 5.41201e-05)
(5.24921e-07 5.09524e-05 4.79557e-05)
(-4.14015e-05 4.12976e-05 5.11972e-05)
(-6.46734e-05 6.40551e-05 5.57176e-05)
(6.80817e-05 -9.60689e-05 5.32791e-05)
(5.96894e-05 -0.000138899 5.09252e-05)
(-4.42713e-05 2.32209e-05 5.53886e-05)
(-1.67376e-05 -0.000232342 5.31938e-05)
(-7.85565e-05 8.83398e-05 0.00121528)
(-3.10145e-05 -1.49358e-05 5.10111e-05)
(0.000101117 1.93174e-11 4.5065e-05)
(0.000257982 -0.000169059 5.29744e-05)
(6.36743e-07 2.66675e-05 4.34319e-05)
(0.000460702 0.00428567 7.74702e-06)
(0.000113435 0.000159452 0.00103281)
(-9.86426e-05 0.000102693 0.00105555)
(-0.000122071 0.000140394 0.00115145)
(-4.63482e-05 -3.33022e-05 4.08882e-05)
(5.97206e-05 1.74111e-06 4.51108e-05)
(0.0156944 0.0170462 0.000789665)
(0.0013015 -0.000409907 7.8489e-05)
(2.50899e-05 1.33037e-05 5.17918e-05)
(1.56883e-05 0.000140388 5.35334e-05)
(-2.95074e-05 -2.60292e-05 4.14924e-05)
(0.000259234 2.15274e-05 5.7356e-05)
(-6.57297e-05 3.16542e-05 4.57225e-05)
(-4.941e-05 -9.65138e-06 3.92161e-05)
(3.38405e-05 2.42322e-05 5.31612e-05)
(0.000107809 -5.7922e-05 4.51198e-05)
(2.19653e-05 1.91106e-05 4.94506e-05)
(-4.42326e-05 7.42163e-05 5.55077e-05)
(-7.56033e-06 0.000106819 1.97918e-05)
(-4.27231e-05 2.03257e-05 5.33734e-05)
(0.00104819 -0.00457446 5.74222e-05)
(-0.000191425 3.81211e-05 0.00121045)
(0.000106911 5.30778e-05 0.000698979)
(1.90379e-05 0.000158696 4.56323e-05)
(1.35997e-05 0.000133266 4.43922e-05)
(-1.16218e-05 -7.31328e-06 3.95954e-05)
(0.0001339 9.89732e-05 5.2973e-05)
(-3.74711e-07 2.22477e-05 7.59352e-07)
(-1.16218e-05 -7.31328e-06 4.14743e-05)
(0.00016363 -6.75784e-05 4.66058e-05)
(-0.000378229 0.000347707 5.83795e-05)
(-8.55709e-05 -0.000233809 4.8904e-05)
(-7.34156e-06 -0.000185902 5.97844e-05)
(-6.48074e-05 -3.44955e-05 0.00115541)
(0.000746609 -0.000245664 6.49288e-05)
(4.7503e-05 -0.000149679 4.52351e-05)
(-1.61608e-05 0.000121035 5.09701e-05)
(0.000460702 0.00428567 6.50605e-06)
(-4.27231e-05 2.03257e-05 5.25507e-05)
(-7.83314e-05 -3.77225e-05 4.39751e-05)
(-6.05085e-05 -3.67123e-05 4.8548e-05)
(1.90379e-05 0.000158696 4.5021e-05)
(5.96894e-05 -0.000138899 4.91793e-05)
(-7.83314e-05 -3.77225e-05 4.89439e-05)
(-6.05085e-05 -3.67123e-05 4.75962e-05)
(5.24921e-07 5.09524e-05 4.28432e-05)
(1.9696e-05 -1.8653e-05 3.88601e-05)
(2.19653e-05 1.91106e-05 4.72024e-05)
(-3.05402e-05 -6.18909e-05 5.63948e-05)
(0.000235788 2.6909e-05 5.41092e-05)
(2.19653e-05 1.91106e-05 4.13162e-05)
(3.46941e-05 -3.44533e-06 3.87112e-05)
(-0.000165243 -0.000314923 4.68822e-05)
(5.34977e-05 -0.000108424 5.18641e-05)
(-4.27231e-05 2.03257e-05 5.04238e-05)
(0.000181969 -8.41316e-05 0.00123774)
(-9.95905e-05 0.00012098 0.00110657)
(-3.58344e-05 -2.442e-05 5.49801e-05)
(-6.43123e-05 0.000129267 0.00121071)
(-0.00423232 0.000214313 5.4694e-05)
(0.0001339 9.89732e-05 5.04229e-05)
(2.66483e-05 -5.90373e-07 0.00113503)
(-0.000224022 6.05274e-05 5.26886e-05)
(-7.56033e-06 6.54085e-05 8.44079e-07)
(-6.57297e-05 3.16542e-05 4.84552e-05)
(7.61288e-12 8.77196e-05 4.29854e-05)
(8.29687e-05 6.11222e-05 4.39119e-05)
(-5.6846e-05 4.0963e-05 4.50118e-05)
(-0.000116547 -0.000301348 4.68741e-05)
(0.000364189 0.000869521 6.19199e-05)
(0.000460702 0.00428567 7.41585e-06)
(-4.42326e-05 7.42163e-05 4.68335e-05)
(-0.000226571 0.000132934 5.0755e-05)
(3.38405e-05 2.42322e-05 4.85531e-05)
(-3.63021e-06 -7.78421e-06 4.87141e-07)
(-2.19646e-05 5.67783e-06 2.35665e-05)
(1.57887e-05 -6.04805e-06 4.98672e-05)
(2.42406e-06 -0.000666796 5.81658e-05)
(0.000257982 -0.000169059 5.94492e-05)
(0.0018253 -0.00213973 0.00186405)
(-4.4312e-05 2.13395e-05 4.59701e-05)
(-0.000116547 -0.000301348 4.88054e-05)
(-3.58344e-05 -2.442e-05 5.06314e-05)
(0.000128447 -0.000188442 5.49571e-05)
(0.000107809 -5.7922e-05 4.26055e-05)
(5.96516e-05 6.71409e-05 4.61298e-05)
(-6.05085e-05 -3.67123e-05 4.94771e-05)
(6.72052e-07 7.05149e-06 4.71756e-05)
(0.000101117 1.93174e-11 4.70238e-05)
(-4.42326e-05 7.42163e-05 4.62196e-05)
(-1.73768e-05 -2.13899e-05 5.58993e-05)
(4.76264e-17 8.08671e-05 4.71154e-05)
(0.000149106 1.70551e-06 4.39377e-05)
(0.000207004 -0.000159733 0.00127049)
(-4.56846e-06 -3.4053e-05 4.63091e-05)
(0.000358529 9.46712e-05 4.97368e-05)
(-8.33757e-05 0.000135742 0.00124714)
(5.97206e-05 1.74111e-06 5.54004e-05)
(4.76264e-17 8.08671e-05 5.26538e-05)
(-7.58206e-05 8.65196e-05 0.000926182)
(1.69752e-05 -5.30789e-07 1.74224e-06)
(-6.05085e-05 -3.67123e-05 5.15235e-05)
(-1.49228e-05 4.09485e-07 4.756e-05)
(-4.42326e-05 7.42163e-05 4.95354e-05)
(0.000212584 5.92051e-05 5.14196e-05)
(-1.29794e-06 3.31971e-05 0.00106887)
(8.41433e-05 -0.000117113 4.62211e-05)
(-2.64941e-05 3.98727e-06 1.24401e-06)
(-5.77459e-05 -8.58888e-05 4.61595e-05)
(3.38405e-05 2.42322e-05 4.41269e-05)
(0.000169018 -3.48345e-05 5.48989e-05)
(1.35997e-05 0.000133266 5.05721e-05)
(0.000177057 6.09876e-05 0.00118212)
(-4.941e-05 -9.65138e-06 3.74929e-05)
(4.20712e-05 -3.7626e-05 4.97993e-05)
(-0.000216619 1.27644e-05 0.000864899)
(8.08733e-06 -9.05056e-06 4.31582e-05)
(0.000151266 0.000191922 5.17956e-05)
(-3.05402e-05 -6.18909e-05 5.26514e-05)
(-5.77459e-05 -8.58888e-05 4.50963e-05)
(0.000115391 0.000121622 4.96287e-05)
(-3.63021e-06 -7.78421e-06 5.22127e-07)
(-9.71642e-06 6.10624e-06 4.06698e-05)
(-6.05085e-05 -3.67123e-05 5.12293e-05)
(4.76264e-17 8.08671e-05 4.95528e-05)
(1.35997e-05 0.000133266 5.23719e-05)
(6.72239e-05 9.35536e-05 0.00116708)
(-4.42326e-05 7.42163e-05 4.87511e-05)
(0.000218725 0.000210544 6.52839e-05)
(-9.14063e-05 -4.40189e-05 0.00121739)
(-4.4312e-05 2.13395e-05 4.66478e-05)
(5.14252e-05 1.57075e-05 5.6657e-05)
(-3.10145e-05 -1.49358e-05 4.97714e-05)
(-1.73768e-05 -2.13899e-05 5.16111e-05)
(9.705e-05 -3.32343e-05 0.00110565)
(9.26922e-05 5.96937e-05 5.03692e-05)
(6.01041e-05 -1.18541e-06 1.29426e-06)
(0.000701826 0.000836927 0.00125252)
(1.90379e-05 0.000158696 4.85245e-05)
(-0.000165243 -0.000314923 5.315e-05)
(0.000169062 0.000130801 0.00105882)
(3.26448e-05 -5.90373e-07 0.00113503)
(-0.0001495 -0.000380144 6.15003e-05)
(5.91771e-07 -2.3174e-05 4.63811e-05)
(-9.78027e-05 0.000122768 0.00110657)
(-0.000122925 -0.000147774 0.00105013)
(-1.49228e-05 4.09485e-07 4.54537e-05)
(-8.08996e-05 3.89597e-05 0.00118537)
(5.12607e-05 -2.76322e-06 5.22202e-05)
(-7.13274e-11 -6.76512e-05 4.34943e-05)
(-3.10145e-05 -1.49358e-05 5.00651e-05)
(-1.16218e-05 -7.31328e-06 4.20528e-05)
(0.000169127 -7.44715e-05 0.00108286)
(-0.000270559 -2.97938e-12 4.19035e-05)
(-7.56791e-05 5.08969e-05 5.55593e-05)
(0.000106205 -0.000137813 4.74618e-05)
(-3.05402e-05 -6.18909e-05 4.55167e-05)
(9.36739e-05 0.00427959 1.38909e-05)
(-4.73205e-06 7.72665e-06 4.72515e-05)
(0.000113767 3.2431e-05 4.63676e-05)
(0.000231386 0.000691865 0.00140409)
(1.35997e-05 0.000133266 5.15759e-05)
(-0.000165243 -0.000314923 5.04014e-05)
(-7.9733e-05 -4.16833e-05 0.00115541)
(-3.1571e-05 1.19537e-06 1.18185e-06)
(6.34744e-05 9.301e-05 0.00119308)
(1.7967e-05 -3.2863e-05 4.4593e-05)
(-4.22747e-05 6.00876e-05 5.22372e-05)
(-1.67376e-05 -0.000232342 4.80274e-05)
(3.65507e-06 -8.66745e-06 4.34444e-05)
(0.000231705 0.000144817 5.04703e-05)
(-4.27231e-05 2.03257e-05 5.64766e-05)
(-3.1571e-05 1.19537e-06 1.17996e-06)
(-0.00160905 -0.000399272 5.72804e-05)
(2.1043e-05 -7.14134e-06 3.51662e-05)
(-0.000101718 0.000113959 0.00106103)
(5.34977e-05 -0.000108424 5.60946e-05)
(0.000152434 -9.724e-05 4.50129e-05)
(-3.10145e-05 -1.49358e-05 5.55834e-05)
(-0.000276669 -0.000767494 6.18997e-05)
(-0.000165243 -0.000314923 5.26174e-05)
(-2.84546e-06 1.94625e-05 4.76792e-05)
(0.000169018 -3.48345e-05 5.28558e-05)
(5.96894e-05 -0.000138899 5.23668e-05)
(4.95056e-05 -0.000889045 6.85444e-05)
(0.000169166 0.000130931 0.00105882)
(-0.000103263 9.80719e-05 0.00105555)
(6.66992e-05 9.2464e-05 0.00116708)
(0.000139569 8.83793e-05 0.00112832)
(-9.12341e-05 -4.96938e-05 5.74413e-05)
(0.000231705 0.000144817 4.85355e-05)
(6.39601e-05 6.34605e-05 4.55889e-05)
(0.0013015 -0.000409907 8.35987e-05)
(3.79758e-05 5.68044e-05 5.13802e-05)
(0.00037829 0.000158729 0.00133142)
(0.000115391 0.000121622 4.28387e-05)
(0.00463769 -0.000421879 4.42263e-05)
(1.20782e-06 5.56578e-06 4.9065e-05)
(6.97071e-05 -3.78895e-05 0.00108991)
(5.32403e-05 -6.15835e-05 4.38979e-05)
(-3.10145e-05 -1.49358e-05 5.78654e-05)
(5.14252e-05 1.57075e-05 5.75205e-05)
(-0.000270559 -2.97938e-12 0.00208293)
(-3.10145e-05 -1.49358e-05 5.09083e-05)
(-6.58353e-05 -0.000102687 0.00117755)
(4.76264e-17 8.08671e-05 4.3837e-05)
(-1.67376e-05 -0.000232342 4.32996e-05)
(-0.000114519 -4.88339e-05 0.00121397)
(4.22682e-05 -1.70838e-11 4.24279e-05)
(-6.57709e-05 4.23125e-05 4.79815e-05)
(-2.32904e-05 -8.63453e-05 5.06058e-05)
(-4.95123e-05 0.000297869 5.52329e-05)
(0.000143438 2.06711e-12 0.000959329)
(1.9696e-05 -1.8653e-05 3.98019e-05)
(8.72326e-05 -0.000130858 4.93911e-05)
(-4.94413e-05 7.29381e-05 5.45231e-05)
(-4.4312e-05 2.13395e-05 4.65383e-05)
(0.000495527 9.28148e-05 6.56713e-05)
(5.37285e-05 2.48821e-05 5.07899e-05)
(-2.64941e-05 3.98727e-06 1.20935e-06)
(1.7967e-05 -3.2863e-05 4.12801e-05)
(5.97206e-05 1.74111e-06 5.14849e-05)
(7.95288e-05 -3.74631e-05 4.86064e-05)
(-9.86487e-05 0.000102686 0.00105555)
(6.72215e-05 9.35486e-05 0.00116708)
(0.000257982 -0.000169059 5.16342e-05)
(-0.000238952 4.10185e-05 4.44665e-05)
(-4.95608e-05 -8.41461e-05 3.70398e-05)
(-5.56689e-05 0.000213154 4.74111e-05)
(-4.73205e-06 7.72665e-06 5.40893e-05)
(-6.71163e-05 -3.56074e-05 4.75737e-05)
(-4.53707e-05 6.36501e-05 4.95997e-05)
(0.000152434 -9.724e-05 4.65921e-05)
(3.45714e-05 0.000182876 5.84019e-05)
(6.39601e-05 6.34605e-05 4.54046e-05)
(-3.05402e-05 -6.18909e-05 5.8886e-05)
(0.000101117 1.93174e-11 4.76599e-05)
(-7.83314e-05 -3.77225e-05 5.00717e-05)
(9.36739e-05 0.00427959 1.41193e-05)
(-9.50006e-05 0.00012557 0.00110657)
(0.000152434 -9.724e-05 4.75439e-05)
(0.00016363 -6.75784e-05 4.76589e-05)
(0.000152434 -9.724e-05 4.84281e-05)
(0.000231705 0.000144817 5.01452e-05)
(-1.67376e-05 -0.000232342 4.52604e-05)
(-0.000140713 -0.000199985 0.00115585)
(-0.000111076 0.0001219 0.00113179)
(-6.57297e-05 3.16542e-05 5.16548e-05)
(-3.43107e-05 -1.02074e-05 5.24905e-05)
(-1.49228e-05 4.09485e-07 4.61294e-05)
(1.7967e-05 -3.2863e-05 4.21975e-05)
(-4.94429e-12 7.74755e-05 3.74257e-06)
(-0.00514428 -8.12387e-05 6.96373e-05)
(-3.1571e-05 1.19537e-06 1.15704e-06)
(-2.49947e-05 1.28253e-05 4.37327e-05)
(-3.05402e-05 -6.18909e-05 5.43832e-05)
(-0.000110619 -1.52925e-11 5.46584e-05)
(6.39601e-05 6.34605e-05 4.85864e-05)
(0.000101117 1.93174e-11 4.75888e-05)
(9.09214e-05 -4.74831e-05 4.53858e-05)
(8.29687e-05 6.11222e-05 4.40501e-05)
(-4.42326e-05 7.42163e-05 5.03999e-05)
(0.000101117 1.93174e-11 4.99348e-05)
(-4.19849e-06 -6.7555e-06 4.23679e-05)
(-3.1571e-05 1.19537e-06 1.23501e-06)
(-6.05085e-05 -3.67123e-05 4.90928e-05)
(0.00016005 -0.000283833 4.17836e-05)
(0.000139572 8.8381e-05 0.00112832)
(0.000152434 -9.724e-05 4.84525e-05)
(-0.000114673 -4.89078e-05 0.00121397)
(-9.88378e-05 0.000102497 0.00105555)
(-6.57297e-05 3.16542e-05 4.16173e-05)
(-4.10703e-05 -0.000439096 0.00119815)
(-5.91191e-05 -0.000301678 0.00129609)
(-0.00029375 -0.000101075 0.00121438)
(4.7008e-05 -2.63355e-05 0.00111021)
(-1.73768e-05 -2.13899e-05 4.51699e-05)
(0.000212584 5.92051e-05 5.10992e-05)
(-0.000108193 9.63505e-05 5.09224e-05)
(0.000128447 -0.000188442 5.25861e-05)
(5.34977e-05 -0.000108424 5.59262e-05)
(5.91771e-07 -2.3174e-05 5.02476e-05)
(1.14964e-11 -0.000153885 4.91953e-05)
(-1.79078e-06 2.4806e-05 4.54208e-05)
(-4.94429e-12 7.74755e-05 3.51505e-06)
(6.69018e-06 -0.000185637 0.00129019)
(-0.000114994 -4.90622e-05 0.00121397)
(-4.53707e-05 6.36501e-05 5.51016e-05)
(-1.67376e-05 -0.000232342 4.5758e-05)
(2.15159e-05 -0.000177271 4.61598e-05)
(8.29687e-05 6.11222e-05 4.894e-05)
(6.36743e-07 2.66675e-05 4.64734e-05)
(0.000294682 0.00068651 6.05619e-05)
(-4.73205e-06 3.64869e-05 0.00112041)
(0.000220573 5.34425e-05 5.02924e-05)
(-3.10145e-05 -1.49358e-05 5.42776e-05)
(-9.75134e-05 -5.61553e-05 5.57588e-05)
(0.000101117 1.93174e-11 5.22688e-05)
(-6.7314e-05 -0.000106104 4.85376e-05)
(1.57887e-05 -6.04805e-06 5.13588e-05)
(-0.000111684 0.000121292 0.00113179)
(-7.83314e-05 -3.77225e-05 4.99483e-05)
(8.96761e-05 8.36582e-05 3.65601e-05)
(-1.15818e-05 0.000116421 4.2929e-05)
(2.19653e-05 1.91106e-05 4.98204e-05)
(-4.4312e-05 2.13395e-05 5.19536e-05)
(-3.43107e-05 -1.02074e-05 5.30329e-05)
(-4.27231e-05 2.03257e-05 4.88576e-05)
(1.14964e-11 -0.000153885 4.49752e-05)
(-3.10145e-05 -1.49358e-05 5.28957e-05)
(-2.52963e-05 3.13787e-06 3.81797e-05)
(-3.74711e-07 2.22477e-05 8.05714e-07)
(0.0013015 -0.000409907 7.87406e-05)
(-6.71163e-05 -3.56074e-05 4.65985e-05)
(-4.27231e-05 2.03257e-05 5.65581e-05)
(2.57726e-05 0.000103802 4.50394e-05)
(-1.73768e-05 -2.13899e-05 5.12094e-05)
(4.95056e-05 -0.000889045 6.46398e-05)
(8.08733e-06 -9.05056e-06 3.97711e-05)
(-5.11813e-05 -4.4337e-05 4.38153e-05)
(0.000152998 2.73818e-05 5.08166e-05)
(-7.13274e-11 -6.76512e-05 4.76785e-05)
(-9.48396e-05 0.000125731 0.00110657)
(-7.63035e-05 8.40243e-05 0.000864899)
(8.45855e-06 -0.000163256 3.0381e-05)
(0.000115391 0.000121622 5.38519e-05)
(1.56883e-05 0.000140388 4.75183e-05)
(5.67069e-05 -7.50421e-05 4.31866e-05)
(2.42406e-06 -0.000666796 6.04456e-05)
(9.36739e-05 0.00427959 1.40379e-05)
(-4.94429e-12 7.74755e-05 3.91808e-06)
(-4.93808e-05 -0.000209381 0.000710932)
(-4.22747e-05 6.00876e-05 4.31824e-05)
(2.19653e-05 1.91106e-05 4.68312e-05)
(-0.000116547 -0.000301348 5.2489e-05)
(-0.00460546 -0.000444667 5.31951e-05)
(1.9696e-05 -1.8653e-05 4.17503e-05)
(5.67069e-05 -7.50421e-05 4.58249e-05)
(0.000727601 -0.00428542 6.74208e-05)
(4.20712e-05 -3.7626e-05 4.53977e-05)
(-0.000165243 -0.000314923 4.79898e-05)
(-4.94413e-05 7.29381e-05 5.46186e-05)
(0.000169069 0.00013081 0.00105882)
(4.04987e-05 4.78886e-07 0.000943076)
(6.36743e-07 2.66675e-05 4.30764e-05)
(0.000201025 -0.0003032 0.00122675)
(1.40181e-05 2.06711e-12 3.84495e-05)
(5.34977e-05 -0.000108424 5.4654e-05)
(1.57887e-05 -6.04805e-06 4.33967e-05)
(-3.1571e-05 1.19537e-06 1.09882e-06)
(1.07265e-06 -2.65725e-05 1.19579e-06)
(-4.22747e-05 6.00876e-05 4.36711e-05)
(0.000213234 -0.00016188 0.00142567)
(2.42406e-06 -0.000666796 5.47127e-05)
(-6.71163e-05 -3.56074e-05 5.0131e-05)
(0.000110712 -3.39434e-05 0.00116201)
(5.24921e-07 5.09524e-05 4.45394e-05)
(-1.73768e-05 -2.13899e-05 5.06658e-05)
(-4.19849e-06 -6.7555e-06 4.02325e-05)
(0.000106205 -0.000137813 5.19395e-05)
(0.000113561 0.000159552 0.00103281)
(9.09214e-05 -4.74831e-05 4.95061e-05)
(-1.49228e-05 4.09485e-07 4.07474e-05)
(-1.67376e-05 -0.000232342 4.34911e-05)
(-5.94239e-05 4.86797e-05 4.64804e-05)
(-6.18688e-05 4.33819e-05 0.00115961)
(0.000135972 2.59073e-07 3.72482e-05)
(-2.90594e-05 3.34181e-05 3.54439e-05)
(7.75522e-06 -5.54052e-05 4.44162e-05)
(0.000505347 0.000215574 6.88594e-05)
(2.57726e-05 0.000103802 5.06383e-05)
(5.96516e-05 6.71409e-05 4.63487e-05)
(-3.1571e-05 1.19537e-06 1.0647e-06)
(-6.46734e-05 6.40551e-05 5.14476e-05)
(5.97206e-05 1.74111e-06 4.56453e-05)
(8.41433e-05 -0.000117113 4.35236e-05)
(8.08733e-06 -9.05056e-06 3.9391e-05)
(2.19653e-05 1.91106e-05 5.15991e-05)
(1.20782e-06 5.56578e-06 5.17719e-05)
(-4.53707e-05 6.36501e-05 5.49368e-05)
(-4.73205e-06 7.72665e-06 5.16423e-05)
(-6.57297e-05 3.16542e-05 5.15656e-05)
(-0.000169793 6.3815e-05 5.13458e-05)
(8.03758e-05 1.65473e-05 0.00109685)
(-0.000104603 0.000111074 0.00106103)
(1.69752e-05 -5.30789e-07 1.74949e-06)
(-4.42713e-05 2.32209e-05 4.95336e-05)
(-0.000110619 -1.52925e-11 5.26692e-05)
(-5.6846e-05 4.0963e-05 4.28021e-05)
(-5.94239e-05 4.86797e-05 4.3715e-05)
(9.26922e-05 5.96937e-05 5.10293e-05)
(0.000138098 0.000195058 0.00113876)
(1.35997e-05 0.000133266 4.4378e-05)
(2.42255e-05 3.33043e-05 3.68036e-05)
(-4.42326e-05 7.42163e-05 4.90719e-05)
(-3.62618e-05 0.000181975 0.00116239)
(0.000253999 -0.000547867 6.34196e-05)
(-4.27231e-05 2.03257e-05 5.1367e-05)
(0.000169247 -4.14671e-05 0.000774458)
(-4.27231e-05 2.03257e-05 5.62148e-05)
(-0.000110619 -1.52925e-11 4.70942e-05)
(-1.49228e-05 4.09485e-07 4.62831e-05)
(-3.05402e-05 -6.18909e-05 5.1798e-05)
(9.08641e-05 -0.000115192 5.1784e-05)
(0.0013015 -0.000409907 8.63892e-05)
(6.83414e-05 -0.000115279 4.74044e-05)
(6.36743e-07 2.66675e-05 4.61212e-05)
(2.57726e-05 0.000103802 4.96506e-05)
(3.5244e-05 4.82137e-05 5.15603e-05)
(-4.94429e-12 7.74755e-05 3.72736e-06)
(-1.52959e-05 -0.00023556 0.0011895)
(-0.00514428 -8.12387e-05 6.26509e-05)
(5.96894e-05 -0.000138899 5.34904e-05)
(1.40181e-05 2.06711e-12 3.74489e-05)
(3.21069e-05 0.000111498 0.00112204)
(5.96894e-05 -0.000138899 4.69926e-05)
(-4.73205e-06 7.72665e-06 3.86203e-05)
(-7.83314e-05 -3.77225e-05 4.98378e-05)
(-3.05402e-05 -6.18909e-05 5.12896e-05)
(0.000212584 5.92051e-05 5.19305e-05)
(0.000115391 0.000121622 4.92257e-05)
(5.91771e-07 -2.3174e-05 4.79008e-05)
(6.96509e-05 -3.805e-05 0.00108991)
(0.000113372 0.000159402 0.00103281)
(0.000212584 5.92051e-05 4.78044e-05)
(-3.05402e-05 -6.18909e-05 4.99991e-05)
(-5.6846e-05 4.0963e-05 4.60295e-05)
(-1.29739e-06 3.3202e-05 0.00106887)
(-0.000831293 -3.48761e-05 0.00127297)
(-4.56846e-06 -3.4053e-05 3.99741e-05)
(0.000212584 5.92051e-05 5.21138e-05)
(4.95056e-05 -0.000889045 6.46999e-05)
(-6.57297e-05 3.16542e-05 5.0293e-05)
(8.29687e-05 6.11222e-05 4.78436e-05)
(1.35997e-05 0.000133266 5.07447e-05)
(-0.000185982 -2.56538e-05 3.77483e-05)
(0.000106215 1.22078e-05 0.00110205)
(-4.63482e-05 -3.33022e-05 4.04265e-05)
(-4.94429e-12 7.74755e-05 3.5209e-06)
(3.26162e-05 -5.90373e-07 0.00113503)
(0.000142675 -7.24063e-05 0.00111021)
(0.000157047 0.00017821 5.09053e-05)
(5.34977e-05 -0.000108424 4.81943e-05)
(-0.000222196 -6.3498e-05 5.21791e-05)
(-3.58344e-05 -2.442e-05 4.88328e-05)
(-2.32038e-06 -1.41605e-05 0.0011216)
(3.45714e-05 0.000182876 5.39116e-05)
(5.32403e-05 -6.15835e-05 4.56173e-05)
(-2.49251e-07 -2.19144e-05 0.00112634)
(0.000746609 -0.000245664 6.37418e-05)
(3.66854e-05 2.03632e-05 3.83347e-05)
(-1.73768e-05 -2.13899e-05 5.46449e-05)
(-5.77459e-05 -8.58888e-05 5.17473e-05)
(6.36743e-07 2.66675e-05 4.06639e-05)
(0.000115391 0.000121622 4.71306e-05)
(1.07265e-06 -2.65725e-05 1.16022e-06)
(-4.42326e-05 7.42163e-05 4.78677e-05)
(-1.14104e-05 0.000149629 5.1842e-05)
(-4.941e-05 -9.65138e-06 3.83227e-05)
(-6.5516e-05 -0.000182518 4.81658e-05)
(-0.000276669 -0.000767494 6.00469e-05)
(8.41433e-05 -0.000117113 4.52701e-05)
(4.20712e-05 -3.7626e-05 4.92489e-05)
(0.000115391 0.000121622 4.90253e-05)
(0.000140159 -0.000159296 0.00124594)
(6.36743e-07 2.66675e-05 4.49197e-05)
(0.000255061 -0.00449832 0.00122543)
(1.9696e-05 -1.8653e-05 4.14247e-05)
(-6.05085e-05 -3.67123e-05 4.69108e-05)
(-4.36842e-05 0.000118359 4.93993e-05)
(-0.000232542 -6.18531e-05 0.00121045)
(5.34977e-05 -0.000108424 5.53729e-05)
(-4.4312e-05 2.13395e-05 4.99264e-05)
(1.4473e-05 1.73787e-06 4.13494e-05)
(-3.10145e-05 -1.49358e-05 5.15012e-05)
(-0.000153204 -3.67441e-05 9.71094e-06)
(2.75919e-05 -9.68405e-05 4.56399e-05)
(-5.77459e-05 -8.58888e-05 4.72857e-05)
(-0.000226571 0.000132934 5.54752e-05)
(5.03472e-05 -2.15565e-05 2.68088e-06)
(-4.42326e-05 7.42163e-05 4.75124e-05)
(2.19653e-05 1.91106e-05 4.90321e-05)
(0.0013015 -0.000409907 7.25955e-05)
(0.000113248 0.000159303 0.00103281)
(2.19653e-05 1.91106e-05 5.00904e-05)
(-6.05085e-05 -3.67123e-05 5.21086e-05)
(3.65507e-06 -8.66745e-06 4.5668e-05)
(0.000101117 1.93174e-11 5.2721e-05)
(-4.4312e-05 2.13395e-05 4.85279e-05)
(0.000846765 -0.000798838 0.00123228)
(-5.77459e-05 -8.58888e-05 4.38275e-05)
(-7.72256e-05 8.79042e-05 0.00121528)
(-9.49093e-05 0.000125661 0.00110657)
(-4.22747e-05 6.00876e-05 5.15565e-05)