/*--------------------------------*- C++ -*----------------------------------*\
| =========                 |                                                 |
| \\      /  F ield         | OpenFOAM: The Open Source CFD Toolbox           |
|  \\    /   O peration     | Version:  plus.master.MPPICInterFoam            |
|   \\  /    A nd           | Web:      www.OpenFOAM.com                      |
|    \\/     M anipulation  |                                                 |
\*---------------------------------------------------------------------------*/
FoamFile
{
    version     2.0;
    format      ascii;
    class       volScalarField;
    location    "1.6";
    object      epsilon;
}
// * * * * * * * * * * * * * * * * * * * * * * * * * * * * * * * * * * * * * //

dimensions      [0 2 -3 0 0 0 0];

internalField   nonuniform List<scalar> 
11821
(
0.00033604
0.000339431
0.00033065
0.00033603
0.000330649
0.00032118
0.000321002
0.000330442
0.000335888
0.00033768
0.000335911
0.000330491
0.000321054
0.000330445
0.000339276
0.000344476
0.000346196
0.000344508
0.000339341
0.000330522
0.000335893
0.000344478
0.000349523
0.000351194
0.00034956
0.000344551
0.000335982
0.000337686
0.0003462
0.000351195
0.00035285
0.000351234
0.000346273
0.00033777
0.000335918
0.000344512
0.000349561
0.000351234
0.000349596
0.000344573
0.000335992
0.000330496
0.000339345
0.000344553
0.000346273
0.000344572
0.000339393
0.00033055
0.000321059
0.000330525
0.000335982
0.000337769
0.000335991
0.00033055
0.000321079
0.00032104
0.000330493
0.000335928
0.000337711
0.000335931
0.000330499
0.000321053
0.000330494
0.00033934
0.000344528
0.000346237
0.000344535
0.000339353
0.000330519
0.000335931
0.00034453
0.000349562
0.00035122
0.000349568
0.000344541
0.000335956
0.000337714
0.00034624
0.000351221
0.000352861
0.000351227
0.000346249
0.000337736
0.000335935
0.000344538
0.00034957
0.000351227
0.000349573
0.000344541
0.000335949
0.000330503
0.000339356
0.000344543
0.00034625
0.000344541
0.00033935
0.000330503
0.000321058
0.000330522
0.000335958
0.000337737
0.000335949
0.000330503
0.000321041
0.00032112
0.000330588
0.000336005
0.000337776
0.000335986
0.000330548
0.000321102
0.000330588
0.000339443
0.000344612
0.000346309
0.000344596
0.000339405
0.000330565
0.000336006
0.000344613
0.000349628
0.000351275
0.000349615
0.000344578
0.000335986
0.000337778
0.000346311
0.000351277
0.000352907
0.000351263
0.000346277
0.000337759
0.000335991
0.0003446
0.000349617
0.000351264
0.000349602
0.000344564
0.000335968
0.000330554
0.000339409
0.000344581
0.000346279
0.000344565
0.000339371
0.000330525
0.000321109
0.00033057
0.000335989
0.000337761
0.00033597
0.000330526
0.00032107
0.000321177
0.000330641
0.000336049
0.000337814
0.000336022
0.000330584
0.000321143
0.00033064
0.000339491
0.00034465
0.000346341
0.000344625
0.000339434
0.000330596
0.000336049
0.00034465
0.000349658
0.000351301
0.000349638
0.000344602
0.000336011
0.000337814
0.000346341
0.000351301
0.000352928
0.000351283
0.000346298
0.000337783
0.000336024
0.000344627
0.000349639
0.000351284
0.000349622
0.000344587
0.000335995
0.000330588
0.000339436
0.000344603
0.000346299
0.000344587
0.000339397
0.000330558
0.000321146
0.000330597
0.000336012
0.000337783
0.000335996
0.000330558
0.000321112
0.000321185
0.000330636
0.000336047
0.000337813
0.000336025
0.000330591
0.000321154
0.000330634
0.000339478
0.000344641
0.000346333
0.000344621
0.000339434
0.000330599
0.000336044
0.000344639
0.000349651
0.000351294
0.000349635
0.000344603
0.000336016
0.00033781
0.00034633
0.000351293
0.000352922
0.000351281
0.0003463
0.000337789
0.000336021
0.000344617
0.000349633
0.00035128
0.000349623
0.000344593
0.000336007
0.000330587
0.000339429
0.0003446
0.000346298
0.000344592
0.000339408
0.000330576
0.000321147
0.000330592
0.000336011
0.000337786
0.000336005
0.000330576
0.000321138
0.000321165
0.000330613
0.000336029
0.000337799
0.000336014
0.000330582
0.000321146
0.000330611
0.000339455
0.000344623
0.000346319
0.00034461
0.000339426
0.000330592
0.000336026
0.000344621
0.000349636
0.000351282
0.000349625
0.000344595
0.000336008
0.000337794
0.000346315
0.000351281
0.000352911
0.000351273
0.000346294
0.000337784
0.000336008
0.000344605
0.000349622
0.000351271
0.000349617
0.000344589
0.000336004
0.000330576
0.000339419
0.00034459
0.000346292
0.000344587
0.000339406
0.000330577
0.000321136
0.000330583
0.000336002
0.00033778
0.000336002
0.000330576
0.000321142
0.000321138
0.000330591
0.000336008
0.00033778
0.000335996
0.000330565
0.000321128
0.000330591
0.000339436
0.000344605
0.000346303
0.000344596
0.000339412
0.000330579
0.000336007
0.000344604
0.000349619
0.000351267
0.00034961
0.00034458
0.000335994
0.000337779
0.000346302
0.000351267
0.000352898
0.000351259
0.00034628
0.000337769
0.000335996
0.000344595
0.00034961
0.000351259
0.000349604
0.000344574
0.000335988
0.000330566
0.000339412
0.00034458
0.00034628
0.000344574
0.00033939
0.000330557
0.000321128
0.000330578
0.000335994
0.00033777
0.000335989
0.000330558
0.000321119
0.000321097
0.000330551
0.00033597
0.000337745
0.000335962
0.00033053
0.000321091
0.000330551
0.000339392
0.000344564
0.000346265
0.000344558
0.000339375
0.000330544
0.000335971
0.000344564
0.000349582
0.000351231
0.000349576
0.000344547
0.000335962
0.000337745
0.000346265
0.000351232
0.000352865
0.000351227
0.000346248
0.000337738
0.000335963
0.00034456
0.000349577
0.000351227
0.000349571
0.000344541
0.000335953
0.000330534
0.000339378
0.000344549
0.00034625
0.000344542
0.000339355
0.000330518
0.000321095
0.000330547
0.000335966
0.000337741
0.000335956
0.00033052
0.000321073
0.000321035
0.000330483
0.000335912
0.000337691
0.000335908
0.000330475
0.00032103
0.000330481
0.000339315
0.000344497
0.000346201
0.000344495
0.000339313
0.00033048
0.00033591
0.000344497
0.000349523
0.000351177
0.000349522
0.000344494
0.000335911
0.000337688
0.0003462
0.000351176
0.000352813
0.000351175
0.000346198
0.000337689
0.000335906
0.000344495
0.000349522
0.000351175
0.00034952
0.000344491
0.000335904
0.000330473
0.000339312
0.000344494
0.000346198
0.000344491
0.000339305
0.000330467
0.000321028
0.000330479
0.000335911
0.000337689
0.000335905
0.000330467
0.000321016
0.00032098
0.000330415
0.000335856
0.000337639
0.000335858
0.000330423
0.000320971
0.000330414
0.000339238
0.000344432
0.000346139
0.000344434
0.00033925
0.000330414
0.000335855
0.000344431
0.000349469
0.000351125
0.000349471
0.000344443
0.000335857
0.000337637
0.000346138
0.000351124
0.000352763
0.000351126
0.000346149
0.000337638
0.000335856
0.000344433
0.00034947
0.000351125
0.000349471
0.000344442
0.000335855
0.00033042
0.000339249
0.000344442
0.000346148
0.000344442
0.000339257
0.000330418
0.000320968
0.000330413
0.000335856
0.000337638
0.000335855
0.000330418
0.000320966
0.000320966
0.000330387
0.000335836
0.000337621
0.000335841
0.000330406
0.000320949
0.000330388
0.000339203
0.000344404
0.000346112
0.000344408
0.000339224
0.000330384
0.000335837
0.000344405
0.000349451
0.000351108
0.000349454
0.000344426
0.000335836
0.000337623
0.000346114
0.000351109
0.000352747
0.000351111
0.000346132
0.000337619
0.000335844
0.000344411
0.000349456
0.000351111
0.000349457
0.000344427
0.000335837
0.000330409
0.000339228
0.000344428
0.000346134
0.000344428
0.000339243
0.000330403
0.000320954
0.000330389
0.000335838
0.00033762
0.000335839
0.000330403
0.00032095
0.000321
0.000330422
0.000335873
0.00033766
0.000335881
0.000330446
0.000320986
0.000330424
0.000339241
0.000344444
0.000346154
0.00034445
0.000339265
0.000330421
0.000335875
0.000344445
0.000349494
0.000351152
0.000349498
0.000344468
0.000335873
0.000337663
0.000346156
0.000351152
0.000352791
0.000351155
0.000346175
0.000337657
0.000335885
0.000344453
0.000349499
0.000351155
0.000349501
0.00034447
0.000335878
0.000330448
0.000339268
0.000344469
0.000346175
0.000344471
0.000339286
0.000330446
0.000320988
0.000330423
0.000335873
0.000337658
0.000335879
0.000330447
0.000320995
0.000321066
0.000330501
0.000335951
0.000337738
0.000335959
0.00033052
0.000321055
0.000330502
0.000339332
0.000344533
0.000346242
0.000344536
0.000339346
0.000330495
0.000335952
0.000344533
0.000349577
0.000351233
0.000349577
0.000344542
0.000335943
0.000337738
0.000346241
0.000351232
0.000352869
0.00035123
0.000346247
0.000337726
0.000335956
0.000344533
0.000349575
0.000351229
0.000349573
0.000344541
0.000335948
0.000330514
0.000339341
0.000344539
0.000346246
0.000344541
0.000339357
0.000330516
0.000321049
0.000330491
0.00033594
0.000337725
0.000335947
0.000330516
0.000321065
0.000321113
0.000330557
0.000336004
0.000337788
0.000336007
0.000330566
0.000321104
0.000330558
0.000339395
0.000344591
0.000346297
0.000344588
0.000339397
0.000330548
0.000336003
0.00034459
0.000349627
0.000351279
0.000349621
0.000344587
0.000335991
0.000337787
0.000346295
0.000351279
0.000352913
0.000351273
0.000346291
0.000337774
0.000336004
0.000344586
0.00034962
0.000351273
0.000349617
0.000344586
0.000335994
0.000330562
0.000339394
0.000344585
0.00034629
0.000344585
0.000339401
0.000330562
0.000321099
0.000330545
0.000335987
0.000337771
0.000335992
0.00033056
0.000321111
0.000321137
0.000330585
0.000336021
0.000337802
0.000336021
0.000330588
0.00032114
0.000330586
0.000339421
0.000344607
0.000346311
0.000344607
0.000339425
0.000330587
0.000336022
0.000344607
0.000349638
0.000351292
0.000349638
0.000344609
0.000336019
0.000337803
0.000346312
0.000351292
0.000352927
0.00035129
0.000346311
0.000337796
0.000336022
0.000344608
0.000349637
0.000351289
0.000349634
0.000344603
0.000336014
0.000330588
0.000339424
0.000344607
0.000346309
0.000344602
0.000339419
0.000330584
0.000321138
0.000330583
0.000336014
0.000337793
0.000336013
0.000330583
0.000321141
0.000321181
0.000330626
0.000336056
0.000337836
0.000336056
0.000330625
0.000321182
0.000330627
0.000339463
0.000344644
0.000346348
0.000344643
0.000339459
0.000330624
0.000336059
0.000344645
0.000349671
0.000351323
0.000349668
0.000344638
0.000336051
0.000337839
0.000346348
0.000351323
0.000352956
0.000351317
0.000346339
0.000337829
0.000336058
0.000344643
0.000349667
0.000351317
0.000349661
0.000344632
0.000336047
0.000330627
0.000339459
0.000344638
0.000346339
0.000344632
0.000339449
0.000330616
0.000321183
0.000330623
0.000336051
0.000337828
0.000336047
0.000330616
0.000321175
0.000230641
0.000359739
0.000295701
0.000277615
0.000257859
0.000238825
0.000231022
0.000346355
0.000326396
0.000313447
0.000297776
0.000279558
0.000259496
0.000239888
0.000230858
0.000341747
0.000324496
0.000311426
0.000295744
0.00027766
0.000257921
0.000238878
0.000230894
0.000346019
0.000318694
0.000305486
0.000289985
0.000272429
0.00025367
0.000236273
0.000231465
0.000359881
0.000308802
0.000296006
0.00028109
0.000264558
0.000247483
0.0002328
0.000233335
0.00038483
0.000308719
0.000295964
0.000281081
0.000264573
0.000247515
0.000232846
0.000233406
0.000385048
0.000318596
0.000305433
0.00028997
0.00027244
0.000253707
0.00023638
0.000231498
0.000360165
0.000324409
0.000311371
0.000295724
0.000277683
0.000257969
0.000238943
0.000231007
0.000346272
0.000326341
0.000313361
0.000297672
0.000279452
0.000259409
0.000239825
0.000230807
0.00034175
0.000324403
0.000311335
0.000295669
0.000277603
0.000257878
0.000238842
0.000230862
0.000346005
0.000318596
0.000305405
0.000289922
0.000272379
0.000253628
0.000236235
0.000231429
0.000359861
0.000308719
0.000295938
0.000281033
0.000264509
0.000247437
0.000232754
0.000233288
0.000384799
0.000308722
0.000295955
0.000281058
0.00026454
0.000247474
0.000232798
0.000233344
0.000384939
0.000318584
0.00030541
0.000289944
0.000272417
0.000253682
0.000236307
0.000231524
0.000360078
0.00032437
0.000311313
0.000295662
0.000277613
0.000257902
0.000238881
0.000230921
0.000346131
0.000326301
0.000313314
0.000297621
0.000279403
0.000259362
0.000239779
0.000230751
0.000341651
0.000324355
0.000311289
0.000295627
0.000277566
0.000257844
0.000238808
0.000230822
0.000345917
0.000318556
0.00030537
0.00028989
0.000272349
0.0002536
0.000236206
0.000231395
0.000359794
0.000308691
0.000295914
0.000281009
0.000264484
0.000247411
0.000232727
0.000233257
0.000384742
0.000308772
0.000295992
0.00028108
0.000264552
0.00024748
0.000232803
0.000233353
0.00038493
0.000318625
0.000305437
0.000289957
0.000272421
0.000253679
0.000236298
0.000231512
0.000360021
0.000324395
0.000311328
0.000295667
0.000277609
0.000257891
0.000238862
0.000230889
0.000346026
0.00032632
0.000313326
0.000297626
0.000279401
0.000259355
0.000239765
0.000230725
0.000341549
0.000324374
0.000311304
0.000295637
0.000277572
0.000257845
0.000238804
0.00023081
0.000345847
0.00031858
0.000305393
0.000289909
0.000272365
0.000253613
0.000236216
0.000231403
0.000359774
0.000308723
0.000295946
0.000281037
0.000264509
0.000247435
0.000232752
0.000233288
0.000384773
0.000308808
0.000296028
0.000281114
0.000264585
0.000247514
0.00023284
0.000233399
0.00038497
0.000318656
0.000305468
0.000289985
0.000272444
0.000253698
0.000236313
0.000231525
0.000359983
0.000324422
0.000311353
0.000295688
0.000277624
0.000257901
0.000238866
0.000230883
0.000345943
0.000326345
0.000313351
0.000297649
0.00027942
0.000259369
0.000239773
0.000230726
0.00034148
0.000324404
0.000311336
0.000295668
0.000277601
0.000257872
0.00023883
0.000230834
0.00034583
0.000318618
0.000305434
0.000289951
0.000272407
0.000253655
0.000236261
0.000231454
0.000359821
0.000308769
0.000295997
0.000281088
0.000264561
0.000247489
0.000232812
0.000233361
0.000384867
0.000308814
0.000296039
0.000281129
0.000264603
0.000247534
0.000232863
0.000233425
0.000384955
0.00031866
0.000305476
0.000289993
0.00027245
0.0002537
0.00023631
0.000231513
0.000359887
0.000324428
0.000311361
0.000295694
0.000277626
0.000257898
0.000238856
0.000230861
0.000345828
0.000326355
0.000313363
0.00029766
0.00027943
0.000259376
0.000239777
0.000230723
0.000341409
0.000324421
0.000311356
0.000295691
0.000277625
0.000257898
0.000238857
0.000230863
0.000345832
0.000318642
0.000305464
0.000289986
0.000272446
0.000253699
0.000236311
0.000231513
0.000359888
0.000308802
0.000296035
0.000281132
0.000264609
0.000247543
0.000232874
0.000233437
0.000384964
0.000308808
0.000296034
0.000281124
0.000264597
0.000247528
0.000232855
0.000233409
0.000384844
0.000318652
0.000305467
0.000289981
0.000272435
0.00025368
0.000236283
0.000231469
0.000359718
0.00032442
0.000311351
0.000295682
0.00027761
0.000257876
0.000238826
0.000230814
0.000345655
0.00032635
0.000313357
0.000297652
0.000279419
0.000259362
0.000239757
0.00023069
0.000341276
0.00032442
0.000311356
0.000295691
0.000277624
0.000257896
0.000238854
0.000230854
0.000345756
0.000318647
0.00030547
0.000289993
0.000272456
0.000253711
0.000236326
0.00023153
0.000359872
0.000308814
0.000296047
0.000281146
0.000264627
0.000247566
0.000232902
0.000233473
0.000384985
0.000308799
0.000296025
0.000281117
0.000264593
0.000247525
0.000232853
0.000233401
0.000384769
0.000318642
0.000305456
0.000289973
0.00027243
0.000253679
0.000236284
0.000231465
0.000359656
0.000324408
0.00031134
0.000295673
0.000277604
0.000257873
0.000238824
0.000230806
0.000345584
0.000326336
0.000313343
0.000297639
0.000279407
0.00025935
0.000239745
0.000230669
0.000341178
0.000324403
0.000311337
0.000295671
0.000277604
0.000257875
0.000238829
0.000230817
0.000345629
0.000318628
0.000305447
0.000289968
0.000272429
0.000253682
0.000236293
0.000231485
0.000359734
0.000308795
0.000296022
0.000281118
0.000264598
0.000247535
0.000232868
0.000233428
0.000384851
0.000308767
0.000296001
0.000281104
0.00026459
0.000247531
0.000232866
0.000233421
0.000384808
0.000318612
0.000305435
0.000289965
0.000272436
0.0002537
0.00023632
0.000231522
0.000359784
0.000324381
0.000311322
0.000295667
0.000277612
0.000257894
0.000238862
0.000230864
0.000345709
0.000326308
0.00031332
0.000297625
0.000279403
0.000259356
0.00023976
0.000230693
0.000341224
0.000324369
0.000311305
0.000295644
0.000277582
0.000257856
0.000238812
0.000230796
0.000345573
0.000318585
0.000305403
0.000289926
0.000272388
0.000253639
0.000236245
0.000231423
0.000359585
0.000308743
0.000295969
0.000281065
0.000264544
0.000247476
0.000232801
0.000233339
0.000384641
0.0003087
0.000295946
0.000281063
0.000264561
0.000247511
0.000232854
0.000233418
0.000384859
0.000318549
0.000305386
0.000289931
0.000272415
0.000253691
0.000236325
0.000231547
0.000359906
0.000324331
0.000311282
0.000295639
0.000277596
0.000257891
0.000238872
0.000230895
0.000345839
0.00032626
0.000313282
0.000297598
0.000279386
0.000259349
0.000239765
0.000230714
0.000341316
0.00032432
0.000311264
0.000295613
0.000277559
0.00025784
0.000238803
0.000230795
0.000345608
0.000318529
0.000305355
0.000289887
0.000272356
0.000253613
0.000236222
0.000231398
0.00035956
0.000308677
0.000295912
0.000281019
0.000264505
0.000247442
0.000232767
0.000233298
0.000384578
0.000308624
0.000295879
0.000281008
0.000264512
0.000247465
0.000232807
0.000233367
0.000384819
0.000318478
0.000305322
0.000289874
0.000272361
0.000253636
0.000236264
0.000231473
0.000359813
0.000324272
0.000311228
0.000295589
0.000277546
0.000257837
0.00023881
0.000230818
0.00034573
0.000326206
0.000313233
0.000297553
0.000279342
0.000259303
0.000239713
0.000230652
0.000341233
0.000324267
0.000311218
0.000295573
0.000277523
0.000257807
0.000238769
0.000230758
0.000345577
0.000318475
0.00030531
0.000289852
0.000272329
0.000253591
0.000236203
0.000231383
0.000359582
0.000308615
0.000295864
0.000280985
0.000264482
0.000247427
0.000232758
0.000233297
0.000384648
0.000308587
0.000295848
0.000280981
0.000264487
0.000247439
0.000232777
0.000233329
0.000384791
0.00031844
0.000305285
0.000289835
0.000272315
0.000253579
0.00023619
0.000231369
0.000359613
0.000324242
0.000311194
0.000295547
0.000277494
0.000257772
0.000238726
0.000230699
0.000345481
0.000326179
0.000313202
0.000297517
0.000279298
0.000259249
0.000239645
0.000230555
0.000341033
0.000324243
0.000311193
0.000295547
0.000277495
0.000257774
0.000238728
0.000230699
0.000345468
0.000318452
0.000305291
0.000289837
0.000272316
0.000253578
0.000236188
0.000231362
0.000359574
0.000308589
0.000295846
0.000280975
0.000264477
0.000247426
0.00023276
0.000233303
0.000384725
0.000308617
0.000295871
0.000280997
0.000264495
0.000247439
0.000232768
0.000233309
0.000384767
0.000318468
0.000305305
0.000289844
0.000272313
0.000253565
0.000236163
0.000231321
0.000359504
0.000324271
0.000311214
0.000295558
0.000277494
0.000257761
0.000238702
0.000230654
0.000345369
0.00032621
0.000313227
0.000297535
0.000279309
0.000259253
0.00023964
0.000230535
0.000340974
0.000324279
0.000311226
0.000295577
0.000277521
0.000257797
0.000238747
0.000230712
0.000345487
0.000318493
0.000305332
0.000289877
0.000272356
0.000253618
0.000236229
0.000231406
0.000359677
0.000308633
0.000295892
0.000281021
0.000264525
0.000247476
0.000232812
0.000233365
0.000384889
0.000308683
0.000295925
0.000281036
0.00026452
0.000247452
0.000232768
0.000233291
0.000384705
0.000318537
0.000305363
0.000289891
0.00027235
0.000253593
0.000236183
0.000231331
0.0003595
0.000324338
0.000311274
0.000295611
0.000277541
0.000257802
0.000238738
0.000230686
0.000345414
0.000326278
0.000313291
0.000297593
0.000279362
0.000259302
0.000239686
0.000230581
0.000341053
0.000324349
0.000311292
0.000295638
0.000277578
0.00025785
0.000238799
0.000230767
0.000345593
0.000318565
0.000305399
0.000289939
0.000272413
0.000253673
0.000236282
0.000231464
0.0003598
0.000308706
0.000295959
0.000281083
0.000264581
0.000247528
0.000232863
0.00023342
0.000385015
0.000308739
0.000295974
0.000281078
0.000264554
0.000247477
0.000232784
0.000233296
0.000384704
0.000318595
0.000305417
0.00028994
0.000272394
0.000253632
0.000236216
0.000231359
0.00035955
0.000324391
0.000311325
0.000295658
0.000277585
0.000257844
0.000238777
0.000230723
0.000345491
0.000326329
0.000313339
0.000297637
0.000279403
0.000259341
0.000239721
0.000230616
0.000341131
0.000324398
0.000311337
0.000295677
0.000277612
0.00025788
0.000238824
0.000230789
0.000345647
0.000318614
0.000305441
0.000289973
0.00027244
0.000253692
0.000236293
0.000231465
0.000359808
0.000308758
0.000296001
0.000281114
0.000264602
0.000247538
0.000232861
0.000233404
0.000384987
0.000308793
0.000296028
0.000281129
0.000264605
0.000247531
0.000232844
0.000233377
0.000384985
0.000318642
0.000305463
0.000289987
0.000272444
0.000253687
0.00023628
0.000231446
0.000359823
0.000324424
0.00031136
0.000295698
0.000277631
0.000257896
0.000238839
0.00023081
0.000345757
0.000326357
0.000313369
0.000297672
0.000279445
0.000259389
0.000239779
0.000230697
0.00034138
0.000324424
0.000311367
0.000295711
0.00027765
0.000257923
0.000238873
0.000230858
0.000345869
0.000318645
0.000305476
0.000290009
0.000272477
0.00025373
0.000236335
0.000231525
0.000360018
0.0003088
0.000296043
0.000281153
0.00026464
0.000247577
0.000232903
0.000233465
0.000385217
0.000308842
0.000296084
0.000281195
0.000264686
0.000247633
0.000232979
0.000233598
0.000385708
0.000318686
0.000305515
0.000290048
0.000272517
0.000253777
0.000236396
0.000231629
0.000360404
0.000324465
0.000311408
0.000295753
0.000277695
0.000257972
0.000238936
0.00023096
0.000346231
0.000326397
0.000313414
0.000297722
0.000279501
0.000259455
0.000239863
0.000230827
0.000341801
0.000324463
0.000311409
0.000295757
0.000277703
0.000257985
0.000238953
0.000230985
0.00034629
0.000318683
0.000305517
0.000290056
0.000272533
0.000253799
0.000236427
0.000231674
0.000360521
0.000308839
0.000296088
0.000281207
0.000264707
0.000247661
0.000233019
0.000233659
0.000385873
0.000308701
0.000295944
0.000281058
0.000264544
0.000247478
0.000232797
0.000233334
0.00038487
0.000318542
0.000305377
0.000289917
0.000272389
0.000253644
0.000236253
0.000231445
0.000359884
0.000324323
0.000311279
0.000295636
0.000277586
0.000257871
0.000238842
0.000230865
0.000346003
0.00032625
0.000313284
0.000297607
0.000279398
0.000259365
0.000239788
0.000230766
0.000341671
0.000324303
0.000311265
0.000295625
0.000277579
0.000257869
0.000238844
0.00023087
0.000345998
0.000318499
0.000305346
0.000289891
0.000272364
0.000253622
0.000236231
0.000231416
0.000359785
0.000308626
0.000295883
0.000281003
0.000264489
0.000247417
0.000232724
0.000233229
0.000384584
0.000308713
0.000295943
0.00028104
0.000264515
0.000247442
0.000232755
0.000233285
0.000384787
0.000318568
0.000305377
0.000289897
0.000272355
0.0002536
0.0002362
0.000231381
0.000359759
0.000324353
0.00031128
0.000295619
0.000277556
0.00025783
0.000238789
0.000230797
0.000345861
0.00032629
0.000313296
0.000297602
0.000279382
0.000259339
0.000239752
0.000230718
0.000341575
0.000324357
0.000311292
0.00029564
0.000277586
0.000257872
0.000238845
0.000230871
0.000346013
0.000318569
0.000305391
0.000289926
0.000272398
0.000253658
0.000236273
0.000231476
0.000359938
0.000308718
0.000295947
0.000281057
0.000264543
0.000247478
0.000232798
0.000233333
0.000384846
0.000308771
0.000295987
0.000281068
0.000264532
0.000247452
0.000232765
0.0002333
0.000384797
0.000318631
0.000305418
0.000289919
0.000272361
0.000253596
0.000236187
0.000231359
0.000359669
0.000324412
0.000311316
0.000295634
0.000277554
0.000257814
0.00023876
0.000230748
0.000345706
0.000326355
0.000313337
0.000297623
0.000279387
0.000259329
0.000239728
0.000230673
0.000341429
0.000324436
0.000311348
0.000295678
0.000277613
0.000257888
0.000238852
0.00023087
0.000345972
0.000318672
0.00030547
0.00028999
0.000272454
0.000253712
0.000236331
0.000231548
0.000360073
0.000308851
0.000296051
0.000281146
0.000264628
0.000247567
0.000232901
0.000233472
0.000385144
0.000308806
0.000296022
0.000281102
0.000264566
0.000247488
0.000232806
0.000233352
0.000384856
0.000318662
0.000305454
0.000289953
0.000272393
0.000253628
0.000236221
0.000231397
0.000359684
0.000324441
0.000311347
0.000295661
0.000277576
0.000257833
0.000238775
0.000230758
0.000345654
0.000326385
0.000313367
0.000297648
0.000279405
0.00025934
0.000239732
0.000230666
0.000341337
0.000324471
0.000311383
0.000295707
0.000277634
0.000257903
0.00023886
0.000230868
0.000345896
0.000318717
0.000305516
0.00029003
0.000272489
0.000253744
0.000236361
0.000231579
0.000360083
0.000308906
0.000296109
0.000281197
0.000264676
0.000247616
0.000232956
0.000233544
0.000385248
0.000308805
0.000296026
0.000281112
0.000264581
0.000247508
0.000232831
0.000233382
0.000384851
0.000318657
0.000305463
0.000289968
0.000272415
0.000253656
0.000236256
0.00023144
0.000359714
0.000324437
0.000311355
0.000295673
0.000277594
0.000257855
0.000238802
0.000230789
0.000345655
0.000326377
0.000313371
0.000297655
0.000279414
0.00025935
0.000239742
0.000230673
0.000341285
0.000324461
0.000311383
0.000295708
0.000277635
0.000257902
0.000238856
0.000230856
0.0003458
0.000318703
0.000305514
0.000290028
0.000272486
0.000253739
0.000236353
0.000231562
0.000359977
0.000308882
0.000296105
0.000281195
0.000264673
0.000247612
0.000232952
0.000233535
0.000385159
0.000308799
0.00029602
0.00028111
0.000264582
0.000247511
0.000232836
0.000233384
0.000384786
0.000318651
0.000305458
0.000289967
0.000272417
0.000253661
0.000236263
0.000231446
0.000359668
0.000324428
0.000311348
0.00029567
0.000277593
0.000257856
0.000238804
0.000230787
0.000345595
0.000326366
0.000313361
0.000297647
0.000279408
0.000259345
0.000239735
0.00023066
0.000341201
0.000324445
0.000311369
0.000295696
0.000277624
0.00025789
0.000238841
0.000230832
0.00034569
0.000318681
0.000305495
0.000290011
0.00027247
0.000253722
0.000236333
0.000231533
0.000359855
0.000308852
0.000296081
0.000281174
0.000264654
0.000247593
0.000232931
0.000233507
0.000385035
0.000308799
0.000296022
0.000281114
0.000264589
0.000247522
0.000232849
0.000233399
0.000384775
0.000318651
0.000305451
0.000289962
0.000272415
0.00025366
0.000236261
0.00023144
0.000359617
0.000324422
0.000311337
0.000295663
0.000277588
0.000257852
0.000238799
0.000230776
0.000345533
0.000326357
0.000313349
0.000297639
0.000279402
0.000259342
0.000239733
0.000230654
0.00034115
0.000324433
0.000311355
0.000295686
0.000277619
0.000257889
0.000238844
0.000230835
0.000345661
0.000318667
0.000305478
0.00029
0.000272464
0.000253722
0.000236339
0.000231542
0.000359844
0.000308841
0.000296063
0.000281161
0.000264647
0.000247591
0.000232935
0.000233513
0.000385019
0.000308766
0.000295995
0.000281094
0.000264575
0.00024751
0.000232839
0.000233385
0.00038474
0.000318616
0.000305418
0.000289935
0.000272392
0.00025364
0.000236241
0.000231414
0.000359561
0.000324387
0.000311306
0.000295639
0.00027757
0.000257837
0.000238786
0.000230762
0.000345498
0.000326322
0.000313319
0.000297617
0.000279387
0.000259333
0.00023973
0.000230655
0.00034115
0.000324396
0.000311324
0.000295664
0.000277604
0.000257883
0.000238846
0.000230845
0.000345691
0.000318626
0.000305442
0.000289974
0.000272447
0.000253712
0.000236337
0.000231548
0.000359875
0.000308801
0.000296023
0.000281132
0.000264625
0.000247577
0.000232925
0.000233507
0.000385032
0.000308686
0.000295925
0.000281034
0.000264521
0.000247458
0.000232782
0.000233314
0.000384611
0.000318534
0.000305352
0.00028988
0.000272343
0.000253593
0.000236192
0.000231354
0.000359458
0.000324315
0.000311249
0.000295591
0.000277528
0.000257799
0.000238749
0.000230719
0.000345432
0.000326253
0.000313263
0.00029757
0.000279346
0.000259296
0.000239696
0.000230618
0.000341103
0.000324323
0.000311263
0.000295611
0.000277556
0.000257837
0.0002388
0.000230794
0.000345617
0.000318544
0.000305371
0.00028991
0.000272386
0.00025365
0.000236269
0.000231467
0.000359745
0.000308706
0.000295941
0.000281059
0.000264556
0.000247505
0.000232847
0.000233412
0.000384877
0.000308614
0.000295866
0.00028099
0.000264487
0.000247431
0.00023276
0.000233294
0.000384625
0.000318458
0.0003053
0.000289844
0.00027232
0.000253578
0.000236183
0.000231351
0.000359497
0.00032425
0.000311205
0.000295559
0.000277505
0.000257781
0.000238735
0.000230706
0.00034544
0.000326187
0.000313216
0.000297531
0.000279312
0.000259265
0.000239663
0.000230579
0.000341052
0.000324251
0.000311207
0.000295561
0.000277508
0.000257787
0.000238743
0.000230722
0.000345492
0.00031846
0.000305302
0.000289848
0.000272323
0.000253583
0.000236193
0.000231369
0.000359564
0.000308599
0.000295858
0.000280984
0.000264483
0.000247428
0.000232758
0.000233299
0.000384683
0.000308594
0.000295859
0.000280995
0.000264504
0.000247459
0.000232801
0.00023336
0.000384852
0.000318434
0.000305298
0.000289857
0.000272345
0.000253616
0.000236236
0.000231428
0.000359726
0.000324232
0.000311206
0.000295571
0.000277525
0.00025781
0.00023877
0.000230753
0.000345579
0.000326166
0.000313211
0.000297534
0.00027932
0.000259275
0.000239674
0.000230589
0.000341091
0.000324223
0.000311194
0.000295555
0.000277504
0.000257783
0.000238738
0.00023071
0.000345486
0.000318423
0.000305282
0.000289833
0.000272312
0.000253574
0.000236183
0.000231357
0.000359576
0.000308545
0.000295827
0.000280962
0.000264465
0.000247413
0.000232745
0.000233288
0.000384724
0.000308625
0.000295888
0.000281021
0.000264526
0.000247478
0.000232819
0.000233379
0.000384933
0.00031847
0.000305335
0.000289893
0.000272379
0.00025365
0.000236272
0.000231469
0.000359837
0.000324272
0.000311246
0.00029561
0.000277563
0.000257848
0.00023881
0.000230797
0.000345682
0.000326204
0.00031325
0.000297571
0.000279356
0.00025931
0.000239708
0.000230623
0.000341166
0.00032426
0.00031123
0.000295587
0.000277534
0.000257811
0.000238764
0.000230735
0.000345543
0.000318456
0.000305314
0.00028986
0.000272335
0.000253594
0.000236201
0.000231375
0.000359631
0.000308572
0.000295853
0.000280983
0.000264481
0.000247425
0.000232754
0.000233297
0.000384779
0.000308686
0.000295933
0.00028105
0.00026454
0.000247477
0.000232802
0.000233339
0.000384817
0.000318541
0.000305389
0.000289932
0.000272407
0.000253667
0.000236277
0.000231459
0.000359788
0.000324345
0.000311305
0.000295657
0.000277602
0.00025788
0.000238836
0.000230816
0.000345704
0.000326282
0.000313312
0.000297623
0.0002794
0.000259348
0.000239742
0.000230655
0.000341217
0.00032434
0.000311294
0.000295639
0.000277576
0.000257845
0.000238791
0.000230757
0.000345571
0.000318538
0.000305376
0.000289907
0.000272368
0.000253615
0.00023621
0.000231369
0.000359589
0.000308653
0.000295912
0.000281023