/*--------------------------------*- C++ -*----------------------------------*\
| =========                 |                                                 |
| \\      /  F ield         | OpenFOAM: The Open Source CFD Toolbox           |
|  \\    /   O peration     | Version:  plus.master.MPPICInterFoam            |
|   \\  /    A nd           | Web:      www.OpenFOAM.com                      |
|    \\/     M anipulation  |                                                 |
\*---------------------------------------------------------------------------*/
FoamFile
{
    version     2.0;
    format      ascii;
    class       volScalarField;
    location    "12";
    object      p_rgh;
}
// * * * * * * * * * * * * * * * * * * * * * * * * * * * * * * * * * * * * * //

dimensions      [1 -1 -2 0 0 0 0];

internalField   nonuniform List<scalar> 
11821
(
5653.6
5653.97
5653.1
5565.78
5653.14
5652.43
5645.67
5644.74
5645.16
5646.2
5647.39
5648.42
5649.25
5173.89
5100.73
5085.43
5456.69
5639.35
5647.37
5648.61
3853.9
3417.39
3549.81
4451.87
5445.01
5646.12
5647.94
3382.19
4604.32
4031.91
3660.63
5070.09
5644.9
5647.37
4127.89
4841.3
4836.8
3413.78
4888
5644.09
5647.04
3430.72
3638.26
3375.23
3788.55
4918.88
5644.63
5647.23
3827.1
3509.47
3482.6
4303.71
5402.38
5645.85
5647.81
5651.88
5650.71
5651.16
5651.53
5652.02
5652.64
5653.28
5112.66
4952
4984.55
5451.31
5643.02
5652.12
5652.87
3421.36
3364.65
3354
4280.1
5438.47
5652.15
5652.62
3296.01
3765.6
3340.77
3395.7
5004.62
5652.11
5652.45
3329.79
4846.54
4689.14
3330.5
4794.77
5651.29
5652.22
3311.7
3315.13
3315.53
3316.13
4879.36
5652.22
5652.62
3618.51
3327.05
3349.82
4155.81
5380.22
5652.58
5653.03
5664.31
5663.94
5663.77
5663.2
5662.44
5661.89
5661.48
5283.39
5148.15
5185.6
5542.17
5659.33
5662.43
5661.8
3709.39
3372.41
3484.38
4646.4
5541.37
5663.24
5662.2
3247.66
3240.67
3245.22
3627.78
5232.91
5663.89
5662.52
3251.35
4744.35
3587.15
3486.88
5094.59
5663.89
5662.61
3255.65
3261.96
3265.73
3566.93
5165.09
5664.3
5662.86
4004.93
3577.95
3716.75
4548.37
5487.61
5663.87
5662.81
5673.83
5673.75
5673.45
5672.56
5671.35
5670.2
5669.18
5504.53
5479.76
5467.59
5623.63
5672.52
5671.32
5669.98
4478.07
3737.26
4076.9
5213.78
5631.4
5672.51
5670.81
3550.81
3187.21
3203.42
4366.51
5510.9
5673.45
5671.44
3494.8
3223.78
3190.13
4013.95
5477.74
5673.62
5671.66
3861.52
3233.9
3312.79
4453.48
5473.24
5673.63
5671.69
4759.42
4501.83
4468.23
5111.12
5601.49
5672.95
5671.3
5677.62
5677.65
5677.44
5676.88
5675.94
5674.95
5674.01
5521.93
5563.62
5503.64
5633.72
5677.22
5675.96
5674.77
4635.35
3983.76
4347.47
5273.87
5641.77
5676.98
5675.51
4106.07
3125.82
3598.19
4613.45
5545.28
5677.79
5676.08
4400.58
3127.57
3128.44
4173.33
5543.76
5677.97
5676.28
4719.9
3640.11
3447.53
4760.52
5493.45
5677.76
5676.19
4717.77
4694.17
4461.87
5092.29
5610.79
5677.08
5675.76
5676.79
5676.97
5677.1
5677.06
5676.95
5676.74
5676.48
5438.77
5506.24
5432.76
5619.07
5677.12
5677.01
5676.73
4281.43
3790.47
4114.24
5127.92
5625.31
5677.23
5676.94
3734.78
3369.64
3535.44
4363.64
5492.81
5677.4
5677.1
4399.08
3704.85
3417.39
3971.5
5484.24
5677.3
5677.12
4434.99
3730.15
3213.26
4457.88
5411.81
5677.11
5677.04
4094.14
4089.16
3914.91
4790.16
5568.35
5676.95
5676.92
5678.2
5678.1
5678.26
5678.51
5678.84
5679.12
5679.33
5277.68
5330.17
5278.62
5589.78
5677.78
5678.87
5679.19
3568.52
3283.76
3563.52
4888.57
5592.45
5678.61
5679.06
2954.56
3996.18
2961
3798.61
5379.76
5678.42
5678.96
3232.79
4267.82
4249.95
3541.55
5329.61
5678.23
5678.88
3018.38
3144.11
2939.15
3708.64
5270.79
5678.25
5678.91
3469.03
3130.96
3236.47
4469.48
5490.68
5678.45
5679.05
5684.58
5684.33
5684.28
5684.18
5684.19
5684.25
5684.32
5226.81
5214.8
5211
5581.05
5682.81
5684.21
5684.27
3375.62
3140.11
3356.83
4829.94
5582.42
5684.31
5684.27
2900.62
3452.34
2893.53
3621.03
5334.38
5684.47
5684.29
2902.57
4251.08
3635.03
3433.63
5254.55
5684.35
5684.27
2893.61
2884.8
2883.86
3473.94
5236.3
5684.49
5684.36
3433.25
3007
3161.94
4451.54
5468.32
5684.43
5684.43
5691.65
5691.55
5691.38
5691.07
5690.76
5690.51
5690.31
5237.67
5225.86
5221.5
5586.5
5689.87
5690.77
5690.47
3485.71
3087.16
3444.11
4884.96
5588.24
5691.14
5690.67
2843.42
2840.34
2833.53
3734.73
5348.32
5691.54
5690.86
3137.28
4229.45
2827.45
3398.34
5278.85
5691.62
5690.94
2837.69
2827.23
2826.59
3624.22
5261.32
5691.71
5691.01
3589.25
3156.95
3272.94
4557.66
5474.98
5691.45
5690.94
5697.14
5697.18
5697.14
5696.82
5696.47
5696.14
5695.87
5233.67
5253.32
5236.11
5589.47
5695.84
5696.49
5696.12
3640.13
3153.88
3640.21
4958.83
5591.11
5696.92
5696.4
2806.16
2784.13
3034.15
3960.42
5362.81
5697.34
5696.65
3376.36
4164.09
3122.22
3535.37
5317.06
5697.39
5696.72
3173.84
2764.75
2765.33
3905.62
5280.08
5697.43
5696.75
3672.36
3285.64
3409.77
4617.91
5476.92
5697.09
5696.59
5701.08
5701.04
5701.06
5701.04
5700.94
5700.69
5700.65
5183.66
5230.37
5210.48
5584.2
5699.99
5700.99
5700.83
3560.23
3143.64
3603.2
4929.63
5582.87
5701.26
5701.02
2883.79
3015.29
3336.53
3929.59
5346.35
5701.5
5701.18
2900.33
3008.15
3636.64
3640.11
5303.55
5701.5
5701.22
3357.36
2699.22
2714.67
3875.54
5257.98
5701.49
5701.21
3559.12
3199.86
3355.77
4561.12
5454.15
5701.22
5701.07
5705.1
5705.09
5705.1
5705.18
5705.26
5705.17
5705.36
5075.53
5123.69
5128.24
5569.87
5703.74
5705.33
5705.4
3293.23
2967.61
3433.54
4817.14
5562.19
5705.43
5705.46
2803.62
3101.14
2981.39
3742.4
5283.59
5705.54
5705.52
2758.65
2721.45
2930.5
3533.89
5231.68
5705.56
5705.53
2944.43
2635.39
2685.13
3658.18
5183.89
5705.48
5705.51
3337.82
3028.61
3203.2
4428.34
5394.78
5705.28
5705.43
5710.47
5710.4
5710.41
5710.41
5710.49
5710.41
5710.63
5010.75
5014.05
5076.62
5566.85
5709.03
5710.55
5710.63
3028.33
2723.6
3261.88
4730.18
5556.64
5710.61
5710.64
2649.24
3031.99
2621.59
3525.08
5231.71
5710.69
5710.66
3237.09
3091.1
2607.32
3270.46
5159.03
5710.63
5710.63
2573.89
2574.38
2606.26
3419.27
5122.92
5710.64
5710.64
3214.68
2891.38
3051.45
4320.89
5355.6
5710.44
5710.58
5716.48
5716.53
5716.56
5716.46
5716.42
5716.29
5716.39
4998.67
5004.56
5077.89
5573.73
5715.66
5716.44
5716.42
2955.2
2616.04
3236.11
4732.96
5563.45
5716.55
5716.46
2592.01
2599.42
2568.79
3487.49
5227.67
5716.67
5716.5
3499.8
3509.95
2806.35
3129.36
5150.82
5716.65
5716.49
2564.11
2515.31
2559.97
3390.19
5115.26
5716.62
5716.49
3144.29
2773.39
3000.44
4276.52
5353.6
5716.41
5716.42
5722.43
5722.46
5722.41
5722.36
5722.32
5722.29
5722.26
4990.92
5022.96
5097.5
5585.82
5722.16
5722.32
5722.28
2907.53
2604.34
3275.53
4771.64
5577.74
5722.41
5722.33
2534.06
2515.69
2512.15
3521.8
5235.16
5722.52
5722.38
2667.45
3469.29
3471.24
3129.05
5161.5
5722.51
5722.38
2723.16
2454.68
2585.56
3416.64
5119.29
5722.47
5722.37
3018.92
2583.42
2951.95
4230.3
5359.46
5722.3
5722.31
5728.55
5728.44
5728.31
5728.23
5728.18
5728.16
5728.15
4990.02
5053.78
5120.11
5599.69
5728.21
5728.19
5728.17
2862.15
2654.05
3332.45
4800.14
5595.93
5728.31
5728.22
2411.2
2561.66
2516.86
3611.77
5251.75
5728.48
5728.29
2366.33
3428.55
3307.51
3219.42
5186.68
5728.51
5728.3
2593.75
2397.53
2524.41
3391.97
5135.64
5728.42
5728.27
2832.3
2435.46
2880.63
4182.27
5375.05
5728.24
5728.21
5648.4
5647.59
5650.23
5649.65
5649.22
5648.91
5648.67
5648.52
5652.31
5651.25
5650.41
5649.77
5649.31
5648.99
5648.75
5648.62
5652.32
5651.34
5650.53
5649.91
5649.45
5649.13
5648.9
5648.78
5652.06
5651.25
5650.58
5650.06
5649.67
5649.39
5649.2
5649.11
5651.51
5650.92
5650.45
5650.07
5649.78
5649.57
5649.43
5649.36
5649.88
5650.28
5650.59
5650.82
5650.98
5651.07
5648.63
5640.87
5649.47
5650.04
5650.44
5650.72
5650.91
5651.02
5650.85
5650.58
5649.05
5649.74
5650.22
5650.56
5650.8
5650.96
5651.04
5651.07
5648.7
5649.5
5650.06
5650.46
5650.74
5650.94
5651.05
5651.11
5648.5
5649.37
5649.98
5650.41
5650.72
5650.94
5651.08
5651.15
5648.59
5649.41
5650.02
5650.46
5650.78
5651.01
5651.15
5651.32
5648.81
5649.45
5650.01
5650.44
5650.76
5651.01
5651.2
5651.36
5653.68
5654.11
5654.45
5654.72
5654.94
5655.11
5652.84
5646.71
5653.42
5653.92
5654.33
5654.64
5654.89
5655.05
5655.06
5655.06
5653.2
5653.72
5654.17
5654.53
5654.82
5655.04
5655.19
5655.32
5653.04
5653.58
5654.06
5654.46
5654.78
5655.04
5655.22
5655.37
5652.95
5653.53
5654.03
5654.45
5654.79
5655.06
5655.27
5655.44
5653.18
5653.69
5654.16
5654.56
5654.89
5655.15
5655.36
5655.53
5653.39
5653.81
5654.22
5654.59
5654.91
5655.19
5655.41
5655.61
5661.05
5660.92
5660.83
5660.78
5660.76
5660.77
5658.22
5653.84
5661.31
5661.07
5660.92
5660.83
5660.79
5660.77
5660.73
5660.73
5661.58
5661.24
5661.03
5660.91
5660.85
5660.85
5660.88
5660.93
5661.82
5661.41
5661.16
5661.02
5660.95
5660.95
5660.99
5661.05
5661.95
5661.54
5661.3
5661.15
5661.09
5661.09
5661.14
5661.22
5662.12
5661.74
5661.5
5661.36
5661.29
5661.29
5661.35
5661.43
5662
5661.73
5661.57
5661.48
5661.46
5661.5
5661.57
5661.54
5668.26
5667.71
5667.29
5666.97
5666.75
5666.61
5663.96
5659.79
5668.87
5668.1
5667.53
5667.12
5666.84
5666.65
5666.53
5666.46
5669.46
5668.53
5667.83
5667.34
5667
5666.78
5666.68
5666.66
5669.95
5668.91
5668.14
5667.58
5667.19
5666.96
5666.85
5666.83
5670.2
5669.16
5668.38
5667.8
5667.41
5667.17
5667.06
5667.06
5670.27
5669.32
5668.59
5668.05
5667.68
5667.45
5667.36
5667.37
5669.88
5669.17
5668.62
5668.2
5667.92
5667.76
5667.7
5666.97
5673.23
5672.7
5672.27
5671.95
5671.73
5671.58
5669.23
5664.05
5673.79
5673.05
5672.49
5672.09
5671.8
5671.61
5671.51
5671.41
5674.31
5673.44
5672.77
5672.29
5671.94
5671.72
5671.6
5671.57
5674.74
5673.78
5673.05
5672.51
5672.13
5671.88
5671.75
5671.73
5674.95
5674.01
5673.27
5672.72
5672.32
5672.07
5671.95
5671.94
5674.97
5674.12
5673.45
5672.94
5672.57
5672.34
5672.23
5672.23
5674.55
5673.91
5673.42
5673.04
5672.77
5672.6
5672.54
5671.3
5676.27
5676.09
5675.96
5675.86
5675.79
5675.75
5674.14
5668.05
5676.46
5676.22
5676.03
5675.89
5675.8
5675.73
5675.72
5675.72
5676.62
5676.35
5676.12
5675.96
5675.84
5675.78
5675.76
5675.8
5676.75
5676.47
5676.23
5676.05
5675.93
5675.86
5675.85
5675.89
5676.81
5676.55
5676.33
5676.16
5676.04
5675.98
5675.98
5676.04
5676.82
5676.61
5676.44
5676.29
5676.2
5676.15
5676.16
5676.22
5676.59
5676.44
5676.35
5676.31
5676.29
5676.28
5676.34
5675.16
5679.5
5679.62
5679.72
5679.81
5679.89
5679.95
5678.93
5674.19
5679.43
5679.58
5679.7
5679.78
5679.85
5679.92
5679.99
5680.07
5679.34
5679.51
5679.64
5679.74
5679.83
5679.91
5680
5680.1
5679.27
5679.47
5679.61
5679.73
5679.84
5679.94
5680.04
5680.16
5679.23
5679.45
5679.61
5679.76
5679.89
5680
5680.12
5680.25
5679.28
5679.5
5679.71
5679.85
5679.99
5680.11
5680.23
5680.35
5679.21
5679.38
5679.63
5679.83
5680
5680.13
5680.3
5679.51
5684.37
5684.46
5684.55
5684.63
5684.71
5684.78
5684
5680.12
5684.34
5684.44
5684.53
5684.61
5684.68
5684.77
5684.85
5684.95
5684.32
5684.4
5684.48
5684.57
5684.67
5684.76
5684.87
5684.99
5684.31
5684.38
5684.47
5684.57
5684.68
5684.79
5684.91
5685.05
5684.32
5684.39
5684.5
5684.61
5684.72
5684.85
5684.98
5685.11
5684.39
5684.49
5684.59
5684.7
5684.82
5684.94
5685.07
5685.21
5684.3
5684.39
5684.55
5684.7
5684.85
5684.97
5685.14
5684.97
5690.13
5690.08
5690.05
5690.04
5690.06
5690.1
5689.32
5685.99
5690.25
5690.14
5690.09
5690.06
5690.07
5690.11
5690.18
5690.26
5690.37
5690.21
5690.13
5690.09
5690.1
5690.14
5690.21
5690.31
5690.49
5690.3
5690.19
5690.14
5690.14
5690.18
5690.26
5690.37
5690.57
5690.36
5690.25
5690.2
5690.2
5690.25
5690.33
5690.44
5690.64
5690.46
5690.35
5690.31
5690.31
5690.35
5690.43
5690.54
5690.5
5690.37
5690.33
5690.32
5690.36
5690.42
5690.5
5690.6
5695.63
5695.52
5695.45
5695.42
5695.42
5695.45
5694.6
5691.77
5695.82
5695.64
5695.54
5695.48
5695.46
5695.48
5695.53
5695.6
5696.01
5695.78
5695.63
5695.55
5695.51
5695.51
5695.56
5695.65
5696.19
5695.91
5695.73
5695.62
5695.56
5695.56
5695.61
5695.7
5696.27
5695.98
5695.8
5695.68
5695.62
5695.62
5695.67
5695.76
5696.31
5696.05
5695.87
5695.76
5695.7
5695.7
5695.76
5695.84
5696.08
5695.89
5695.8
5695.74
5695.73
5695.76
5695.78
5695.92
5700.55
5700.51
5700.5
5700.52
5700.55
5700.59
5699.6
5697.33
5700.69
5700.62
5700.58
5700.57
5700.59
5700.62
5700.68
5700.76
5700.83
5700.72
5700.66
5700.62
5700.62
5700.65
5700.71
5700.8
5700.96
5700.82
5700.73
5700.67
5700.66
5700.68
5700.75
5700.84
5701
5700.85
5700.76
5700.71
5700.69
5700.71
5700.78
5700.88
5701
5700.87
5700.79
5700.74
5700.73
5700.76
5700.83
5700.92
5700.76
5700.68
5700.67
5700.69
5700.72
5700.78
5700.83
5700.95
5705.4
5705.45
5705.51
5705.57
5705.64
5705.71
5704.5
5703.05
5705.44
5705.49
5705.54
5705.59
5705.65
5705.72
5705.8
5705.9
5705.48
5705.51
5705.55
5705.59
5705.65
5705.73
5705.82
5705.93
5705.52
5705.54
5705.57
5705.61
5705.67
5705.74
5705.84
5705.95
5705.53
5705.54
5705.57
5705.62
5705.68
5705.75
5705.85
5705.97
5705.52
5705.53
5705.58
5705.63
5705.7
5705.78
5705.88
5705.98
5705.33
5705.38
5705.46
5705.56
5705.65
5705.76
5705.87
5705.97
5710.68
5710.75
5710.82
5710.89
5710.96
5711.04
5709.55
5708.93
5710.68
5710.75
5710.82
5710.89
5710.95
5711.03
5711.12
5711.22
5710.68
5710.74
5710.8
5710.87
5710.94
5711.03
5711.13
5711.24
5710.68
5710.73
5710.79
5710.86
5710.94
5711.03
5711.14
5711.26
5710.67
5710.72
5710.78
5710.86
5710.95
5711.04
5711.16
5711.28
5710.66
5710.72
5710.79
5710.88
5710.97
5711.07
5711.17
5711.28
5710.51
5710.58
5710.69
5710.81
5710.92
5711.04
5711.16
5711.24
5716.38
5716.41
5716.45
5716.5
5716.55
5716.62
5714.98
5714.98
5716.39
5716.42
5716.46
5716.5
5716.55
5716.62
5716.7
5716.79
5716.41
5716.42
5716.45
5716.49
5716.54
5716.61
5716.7
5716.81
5716.43
5716.42
5716.44
5716.48
5716.54
5716.61
5716.71
5716.82
5716.43
5716.42
5716.44
5716.49
5716.55
5716.62
5716.72
5716.83
5716.42
5716.42
5716.46
5716.51
5716.57
5716.65
5716.74
5716.85
5716.28
5716.31
5716.38
5716.46
5716.54
5716.63
5716.51
5716.71
5722.21
5722.22
5722.23
5722.26
5722.3
5722.36
5720.75
5721.1
5722.22
5722.22
5722.24
5722.26
5722.3
5722.35
5722.42
5722.51
5722.26
5722.24
5722.24
5722.26
5722.29
5722.34
5722.42
5722.52
5722.29
5722.25
5722.25
5722.26
5722.29
5722.35
5722.43
5722.52
5722.29
5722.26
5722.25
5722.26
5722.3
5722.35
5722.44
5722.54
5722.29
5722.26
5722.27
5722.29
5722.32
5722.38
5722.46
5722.55
5722.17
5722.17
5722.21
5722.25
5722.31
5722.37
5721.84
5722.27
5728.09
5728.08
5728.08
5728.09
5728.11
5728.15
5726.76
5727.18
5728.1
5728.07
5728.06
5728.07
5728.09
5728.13
5728.19
5728.26
5728.13
5728.09
5728.07
5728.06
5728.08
5728.12
5728.18
5728.27
5728.17
5728.11
5728.08
5728.07
5728.08
5728.12
5728.18
5728.26
5728.18
5728.11
5728.08
5728.07
5728.08
5728.12
5728.19
5728.28
5728.16
5728.11
5728.09
5728.09
5728.11
5728.15
5728.22
5728.29
5728.07
5728.05
5728.05
5728.07
5728.1
5728.15
5727.59
5727.97
5266.07
5645.69
5647.39
5648.7
5649.7
5650.45
5651.02
5651.5
3920.34
5416.62
5645.6
5647.52
5648.91
5649.96
5650.74
5651.39
3640.1
5087.5
5644.7
5647
5648.58
5649.73
5650.57
5651.28
3848.56
5321.4
5645.55
5647.51
5648.91
5649.96
5650.75
5650.89
4848.11
5643.71
5646.86
5648.42
5649.57
5650.4
5651.03
5651.04
5607.06
5646.92
5648.37
5649.44
5650.23
5650.81
5651.29
5651.15
5647.61
5648.93
5649.77
5650.38
5650.87
5651.27
5651.55
5651.81
5203.24
5653.81
5653.96
5654.38
5654.86
5655.38
5655.93
5656.46
3790.89
5399.01
5653.85
5654.03
5654.52
5655.12
5655.79
5656.47
3413.9
5024.04
5652.93
5653.24
5653.92
5654.67
5655.46
5656.24
3585.19
5266.62
5652.69
5653.19
5653.91
5654.67
5655.44
5655.62
4747.52
5649.26
5652.87
5653.51
5654.2
5654.86
5655.49
5655.57
5593.72
5652.55
5653.24
5653.9
5654.5
5655.06
5655.58
5655.63
5652.66
5653.34
5653.92
5654.43
5654.87
5655.27
5655.65
5655.98
5298.46
5665.2
5664.5
5664.17
5664.05
5664.13
5664.44
5664.86
4266.16
5512.17
5665.64
5664.73
5664.34
5664.29
5664.59
5665.08
3772.25
5236.64
5665.16
5664.33
5664.02
5664.03
5664.38
5664.93
3979.67
5409.24
5665.21
5664.24
5663.86
5663.82
5664.12
5664.1
4993.3
5665.08
5664.37
5663.75
5663.46
5663.45
5663.68
5663.58
5620.82
5663.83
5663.32
5663.03
5662.9
5662.97
5663.2
5663.45
5663.36
5662.97
5662.72
5662.58
5662.54
5662.61
5662.79
5663.03
5405.8
5674.28
5673.43
5672.77
5672.27
5672.04
5672.1
5672.35
5017.91
5575.63
5675.29
5673.95
5673.02
5672.5
5672.44
5672.69
4773.82
5449.31
5675.58
5674.13
5673.12
5672.52
5672.41
5672.66
4817.14
5550.71
5675.36
5673.82
5672.76
5672.14
5672
5671.8
5320.62
5675.39
5673.73
5672.61
5671.79
5671.33
5671.2
5671.19
5655.02
5672.95
5671.95
5671.22
5670.68
5670.4
5670.38
5670.53
5672.45
5671.58
5670.88
5670.3
5669.9
5669.69
5669.67
5669.78
5378.82
5677.68
5677.32
5676.87
5676.5
5676.32
5676.34
5676.5
4908.74
5536.56
5678.44
5677.64
5676.99
5676.62
5676.54
5676.71
4848.25
5397.92
5679.1
5678.1
5677.27
5676.74
5676.57
5676.7
4853.83
5530.79
5678.74
5677.77
5676.96
5676.42
5676.24
5675.97
5304.55
5678.42
5677.59
5676.77
5676.1
5675.71
5675.51
5675.67
5661.16
5677.09
5676.33
5675.66
5675.2
5674.94
5674.81
5674.96
5676.76
5676.13
5675.52
5675.01
5674.6
5674.36
5674.28
5674.35
5254.5
5676.16
5676.9
5677.31
5677.56
5677.77
5678.01
5678.26
4114.71
5430.24
5675.96
5676.75
5677.22
5677.55
5677.85
5678.17
4042.39
5199.08
5676.05
5676.83
5677.25
5677.52
5677.79
5678.06
4313.93
5426.36
5676.5
5677.04
5677.31
5677.49
5677.71
5677.55
5093.6
5675.95
5676.76
5677.07
5677.24
5677.37
5677.45
5677.78
5646.03
5676.74
5676.96
5677.05
5677.11
5677.19
5677.23
5677.5
5677.01
5677.23
5677.22
5677.15
5677.08
5677.08
5677.12
5677.27
5103.86
5677.86
5678.77
5679.36
5679.83
5680.23
5680.59
5680.92
3558.32
5332.94
5677.55
5678.55
5679.27
5679.83
5680.32
5680.76
3252.9
5026.04
5676.98
5678.16
5678.95
5679.58
5680.11
5680.18
3568.16
5289.36
5677.5
5678.46
5679.15
5679.67
5680.15
5679.94
4809.09
5675.74
5678.22
5678.92
5679.44
5679.86
5680.19
5680.63
5615.01
5678.35
5678.96
5679.39
5679.74
5680.04
5680.23
5680.61
5678.78
5679.33
5679.65
5679.85
5680.02
5680.19
5680.36
5680.59
5060.96
5685.45
5685.29
5685.27
5685.33
5685.49
5685.73
5686.02
3604.95
5323.25
5685.58
5685.25
5685.2
5685.33
5685.62
5685.98
3274.08
5025.88
5685.32
5684.95
5684.91
5685.08
5685.41
5685.12
3471.12
5255.24
5684.91
5684.73
5684.78
5684.98
5685.32
5684.96
4758.05
5679.01
5684.64
5684.66
5684.77
5684.97
5685.26
5685.62
5602.25
5684.47
5684.56
5684.67
5684.81
5684.98
5685.13
5685.49
5684.56
5684.71
5684.75
5684.81
5684.9
5685.02
5685.18
5685.41
5046.86
5690.92
5691.45
5691.32
5691.27
5691.33
5691.51
5691.76
3954.99
5315.32
5692.41
5691.79
5691.48
5691.42
5691.59
5691.84
3784.59
5045.18
5692.22
5691.64
5691.34
5691.28
5691.47
5691.1
3623.54
5266.42
5692.02
5691.47
5691.21
5691.16
5691.35
5690.87
4793.99
5680.84
5691.44
5691.13
5690.98
5690.98
5691.14
5690.56
5603.89
5691.16
5690.96
5690.82
5690.76
5690.8
5690.9
5690.56
5691.15
5690.96
5690.8
5690.69
5690.65
5690.68
5690.79
5690.81
5006.18
5692.34
5696.41
5696.41
5696.41
5696.49
5696.66
5696.89
4079.88
5246.57
5697.28
5696.88
5696.66
5696.63
5696.79
5696.92
3924.59
5002.82
5697.1
5696.82
5696.62
5696.58
5696.74
5696.34
3788.61
5256.14
5697.4
5696.95
5696.67
5696.58
5696.7
5696.36
4794.69
5680.57
5696.84
5696.58
5696.42
5696.38
5696.5
5694.45
5601.84
5696.56
5696.4
5696.26
5696.18
5696.18
5696.28
5694.09
5696.62
5696.47
5696.29
5696.14
5696.07
5696.06
5696.14
5695.7
4932.2
5692.67
5700.58
5700.71
5700.82
5700.96
5701.16
5701.38
3858.83
5152.04
5700.79
5700.8
5700.84
5700.95
5701.18
5701.26
3564.44
4882.39
5700.59
5700.7
5700.77
5700.89
5701.12
5700.72
3677.31
5186.39
5701.03
5700.96
5700.92
5700.97
5701.15
5701.24
4709.58
5676.79
5700.86
5700.85
5700.85
5700.92
5701.08
5698.87
5586.01
5700.69
5700.75
5700.76
5700.78
5700.86
5700.99
5698.56
5700.86
5700.91
5700.87
5700.83
5700.82
5700.86
5700.96
5700.26
4859.04
5692.65
5704.77
5705.02
5705.23
5705.44
5705.67
5705.9
3504.19
5105.33
5704.64
5704.88
5705.1
5705.33
5705.61
5705.72
3198.25
4779.02
5704.48
5704.77
5705
5705.24
5705.55
5705.19
3357.27
5065.37
5704.71
5704.93
5705.11
5705.32
5705.51
5705.94
4541.29
5668.2
5704.83
5705.04
5705.21
5705.4
5705.63
5703.62
5559.57
5704.73
5705.01
5705.18
5705.33
5705.49
5705.67
5703.21
5705.03
5705.27
5705.36
5705.43
5705.51
5705.61
5705.74
5705.1
4780.68
5690.19
5709.93
5710.16
5710.36
5710.56
5710.78
5711.01
3449.91
5061.82
5710.17
5710.22
5710.34
5710.52
5710.79
5710.98
3327.18
4719.09
5709.38
5710.27
5710.34
5710.51
5710.79
5710.78
3144.63
4956.87
5710.15
5710.23
5710.36
5710.54
5710.62
5711.17
4416.05
5656.55
5710.17
5710.3
5710.44
5710.62
5710.85
5708.88
5540.63
5709.82
5710.28
5710.43
5710.57
5710.73
5710.91
5708.38
5710.36
5710.53
5710.61
5710.68
5710.76
5710.86
5710.99
5710.6
4663.01
5682.91
5715.55
5715.78
5715.97
5716.17
5716.39
5716.63
3497.26
4965.03
5716.14
5716.03
5716.07
5716.22
5716.47
5716.79
3499.97
4635.95
5711.22
5716.14
5716.13
5716.25
5716.5
5716.85
3120.7
4866.49
5716.22
5716.14
5716.17
5716.29
5716.33
5716.87
4336.74
5643.44
5716.08
5716.13
5716.22
5716.35
5716.56
5714.35
5532.94
5715.25
5716.12
5716.22
5716.31
5716.43
5716.59
5713.99
5716.25
5716.35
5716.39
5716.42
5716.46
5716.54
5716.65
5716.6
4538.28
5676.88
5721.53
5721.74
5721.93
5722.12
5722.35
5722.58
3421.34
4817.71
5721.86
5721.85
5721.94
5722.11
5722.38
5722.72
3246.01
4467.63
5715.77
5721.68
5721.84
5722.05
5722.27
5722.72
3069.57
4763.74
5721.93
5721.95
5722.02
5722.16
5722.21
5722.76
4260.26
5628.69
5721.95
5722.02
5722.11
5722.24
5722.41
5719.74
5531.38
5720.74
5722.04
5722.12
5722.21
5722.31
5722.45
5720.54
5722.13
5722.24
5722.28
5722.3
5722.34
5722.4
5722.49
5722.61
4492.03
5679.05
5728.1
5728.18
5728.27
5728.4
5728.58
5728.79
3123.09
4744.26
5728.33
5728.22
5728.23
5728.36
5728.6
5728.92
2660.81
4342.02
5723.02
5728.04
5728.09
5728.23
5728.39
5728.86
2923.08
4680.72
5728.55
5728.31
5728.24
5728.32
5728.4
5728.86
4220.87
5616.71
5728.29
5728.23
5728.24
5728.33
5728.29
5725.53
5534.74
5726.7
5728.17
5728.2
5728.24
5728.32
5728.11
5727.37
5728.21
5728.26
5728.27
5728.28
5728.3
5728.33
5728.32
5728.56
5647.55
5648.61
5649.48
5650.16
5650.66
5651.04
5651.33
5651.57
5647.23
5648.57
5649.53
5650.23
5650.73
5651.1
5651.32
5651.52
5647.4
5648.72
5649.63
5650.26
5650.71
5651.02
5651.22
5651.42
5647.97
5649.04
5649.68
5650.37
5650.78
5651.04
5651.19
5651.04
5648.68
5648.23
5649.63
5650.58
5650.87
5651.06
5651.13
5651.18
5649.34
5649.97
5650.42
5650.73
5650.93
5651.06
5650.71
5648.49
5649.98
5650.42
5650.71
5650.91
5651.05
5651.12
5648.93
5640.93
5652.47
5653.07
5653.66
5654.2
5654.67
5655.09
5655.44
5655.7
5651.92
5652.79
5653.53
5654.14
5654.63
5655.02
5655.32
5655.56
5652.01
5652.78
5653.49
5654
5654.56
5654.92
5655.2
5655.42
5652.34
5652.15
5650.77
5654.11
5654.61
5654.92
5655.15
5655.04
5652.66
5650.08
5653.46
5654.37
5654.7
5654.95
5655.09
5655.28
5653.22
5653.79
5654.22
5654.56
5654.82
5655.01
5654.43
5647.7
5653.75
5654.22
5654.51
5654.76
5654.97
5655.12
5652.06
5644.77
5662.97
5662.5
5662.22
5662.08
5662.06
5662.12
5662.27
5662.43
5662.81
5662.32
5662
5661.82
5661.75
5661.76
5661.85
5661.97
5662.62
5661.91
5660.67
5661.25
5661.41
5661.4
5661.46
5661.56
5662.24
5658.7
5658.12
5661.13
5661.15
5661.14
5661.18
5661.14
5661.42
5658
5660.87
5661.03
5660.96
5660.95
5660.94
5660.37
5661.38
5661.14
5660.97
5660.88
5660.85
5660.86
5659.95
5650.87
5661.15
5661.01
5660.89
5660.83
5660.81
5660.82
5656.43
5650.08
5671.85
5670.88
5670.14
5669.57
5669.19
5668.98
5668.93
5668.98
5672
5670.85
5669.86
5669.11
5668.74
5668.45
5668.33
5668.34
5671.67
5670.06
5666.34
5668.36
5668.23
5667.92
5667.78
5667.77
5670.71
5666.25
5665.78
5668.19
5667.76
5667.47
5667.32
5667.31
5669.28
5665.51
5668.18
5667.72
5667.34
5667.1
5666.9
5662.98
5669.09
5668.32
5667.73
5667.3
5667.01
5666.83
5665.6
5656.11
5668.36
5667.82
5667.38
5667.05
5666.82
5666.68
5661.27
5656.11
5676.04
5675.3
5674.72
5674.24
5673.91
5673.71
5673.62
5673.63
5676.36
5675.4
5674.37
5673.71
5673.56
5673.27
5673.13
5673.11
5676.09
5674.03
5670.97
5673.22
5673.12
5672.81
5672.66
5672.6
5675.1
5670.9
5671.9
5673.13
5672.7
5672.41
5672.22
5672.22
5673.7
5671.24
5673.17
5672.68
5672.31
5672.06
5671.81
5664.34
5673.98
5673.25
5672.69
5672.28
5671.99
5671.8
5670.37
5660.75
5673.32
5672.8
5672.37
5672.04
5671.8
5671.64
5665.75
5662.13
5676.65
5676.64
5676.64
5676.62
5676.67
5676.71
5676.76
5676.84
5676.98
5676.79
5675.4
5676.3
5676.58
5676.54
5676.55
5676.6
5676.95
5673.96
5673.28
5676.2
5676.37
5676.31
5676.3
5676.19
5676.4
5672.94
5675.65
5676.31
5676.19
5676.13
5676.07
5676.13
5675.61
5675.78
5676.26
5676.14
5676.04
5675.98
5675.72
5668.32
5676.49
5676.26
5676.11
5675.99
5675.91
5675.86
5674.35
5667.38
5676.32
5676.17
5676.03
5675.92
5675.84
5675.79
5669.66
5664.91
5678.62
5678.95
5679.25
5679.51
5679.82
5680.03
5680.21
5680.36
5678.76
5678.87
5676.87
5679.33
5679.86
5680.02
5680.16
5680.29
5678.81
5675.37
5676.42
5679.55
5679.81
5679.95
5680.07
5680.01
5678.01
5675.48
5679.09
5679.68
5679.82
5679.93
5679.99
5680.14
5678.31
5679.3
5679.56
5679.74
5679.85
5679.94
5679.56
5674.42
5679.34
5679.5
5679.69
5679.79
5679.88
5679.95
5677.82
5675.81
5679.54
5679.67
5679.77
5679.85
5679.91
5679.98
5673.85
5668.93
5684.29
5684.29
5684.34
5684.46
5684.7
5684.86
5685.02
5685.18
5684.32
5683.44
5682.29
5684.35
5684.69
5684.81
5684.94
5685.08
5684.14
5680.43
5682.68
5684.51
5684.62
5684.73
5684.85
5684.84
5681.87
5680.5
5684.22
5684.51
5684.61
5684.71
5684.81
5684.76
5683.86
5684.26
5684.39
5684.55
5684.64
5684.73
5684.34
5683.69
5684.23
5684.37
5684.52
5684.6
5684.67
5684.75
5680.54
5680.79
5684.41
5684.5
5684.57
5684.65
5684.72
5684.79
5679.12
5673.53
5690.87
5690.58
5690.32
5690.31
5690.4
5690.46
5690.57
5690.69
5690.97
5688.76
5689.49
5690.33
5690.34
5690.35
5690.43
5690.54
5690.37
5686.58
5689.71
5690.26
5690.22
5690.23
5690.3
5690.39
5688.17
5688.39
5690.16
5690.16
5690.14
5690.15
5690.21
5688.39
5690.36
5690.16
5690.07
5690.11
5690.1
5690.12
5689.73
5689.91
5690.08
5690.12
5690.1
5690.07
5690.07
5690.09
5684.98
5683.27
5690.16
5690.11
5690.07
5690.06
5690.07
5690.11
5685.12
5678.55
5696.4
5696.09
5695.82
5695.81
5695.82
5695.85
5695.93
5696.03
5696.63
5694.46
5695.78
5695.87
5695.78
5695.76
5695.81
5695.89
5695.71
5692.93
5695.78
5695.76
5695.67
5695.65
5695.69
5695.77
5695.29
5695.77
5695.67
5695.62
5695.58
5695.57
5695.6
5692.85
5696.07
5695.63
5695.56
5695.56
5695.51
5695.51
5695.27
5695.26
5695.63
5695.62
5695.55
5695.48
5695.46
5695.47
5690.41
5685.12
5695.66
5695.56
5695.48
5695.44
5695.44
5695.46
5690.44
5683.61
5700.69
5700.57
5700.55
5700.61
5700.66
5700.73
5700.83
5700.94
5700.91
5700.24
5700.7
5700.69
5700.69
5700.72
5700.79
5700.89
5700.14
5700.42
5700.67
5700.64
5700.64
5700.67
5700.74
5700.83
5700.86
5700.7
5700.45
5700.56
5700.61
5700.64
5700.63
5697.89
5700.73
5700.41
5700.5
5700.57
5700.58
5700.61
5700.65
5700.49
5700.42
5700.54
5700.54
5700.54
5700.57
5700.61
5695.33
5689.54
5700.56
5700.53
5700.52
5700.53
5700.56
5700.6
5695.27
5688.49
5705
5705.04
5705.19
5705.32
5705.44
5705.57
5705.7
5705.82
5705.19
5705.26
5705.36
5705.44
5705.52
5705.62
5705.73
5705.84
5705.14
5705.28
5705.35
5705.41
5705.52
5705.61
5705.72
5705.83
5705.25
5705.29
5705.19
5705.42
5705.55
5705.64
5705.68
5703.21
5705.18
5705.11
5705.35
5705.5
5705.57
5705.65
5705.41
5705.77
5705.18
5705.38
5705.47
5705.54
5705.61
5705.69
5699.06
5696.74
5705.4
5705.45
5705.51
5705.57
5705.63
5705.71
5699.49
5693.36
5710.31
5710.36
5710.47
5710.59
5710.71
5710.83
5710.96
5711.08
5710.46
5710.52
5710.6
5710.69
5710.77
5710.87
5710.98
5711.08
5710.47
5710.54
5710.59
5710.65
5710.78
5710.87
5710.98
5711.09
5710.5
5710.49
5710.44
5710.69
5710.82
5710.9
5711
5710.49
5710.3
5710.37
5710.65
5710.78
5710.85
5710.93
5708.36
5711.1
5710.57
5710.68
5710.77
5710.84
5710.91
5710.99
5703.61
5707
5710.69
5710.75
5710.81
5710.88
5710.95
5711.03
5703.62
5698.41
5716.21
5716.2
5716.25
5716.31
5716.39
5716.48
5716.59
5716.7
5716.41
5716.36
5716.36
5716.38
5716.43
5716.5
5716.59
5716.67
5716.43
5716.37
5716.26
5716.34
5716.42
5716.49
5716.58
5716.68
5716.41
5716.19
5716.17
5716.39
5716.44
5716.5
5716.59
5716.69
5716.15
5716.18
5716.38
5716.43
5716.46
5716.52
5713.58
5716.7
5716.37
5716.4
5716.43
5716.47
5716.51
5716.57
5711.31
5713.98
5716.39
5716.41
5716.45
5716.49
5716.54
5716.6
5708.71
5703.7
5722.16
5722.12
5722.15
5722.19
5722.25
5722.33
5722.43
5722.53
5722.35
5722.28
5722.26
5722.25
5722.28
5722.33
5722.41
5722.48
5722.34
5722.27
5722.1
5722.19
5722.25
5722.3
5722.38
5722.45
5722.31
5722.04
5722.08
5722.23
5722.25
5722.3
5722.37
5722.16
5722.21
5722.18
5722.22
5722.23
5722.25
5722.3
5721.42
5721.39
5722.24
5722.23
5722.24
5722.25
5722.27
5722.23
5721.64
5719.39
5722.22
5722.23
5722.25
5722.27
5722.3
5722.35
5713.98
5709.17
5728.21
5728.13
5728.13
5728.15
5728.19
5728.25
5728.34
5728.43
5728.3
5728.21
5728.17
5728.15
5728.18
5728.22
5728.29
5728.37
5728.23
5728.13
5727.98
5728.08
5728.12
5728.17
5728.24
5728.22
5728.17
5727.9
5728.02
5728.09
5728.1
5728.15
5728.21
5725.82
5728.12
5728.07
5728.07
5728.07
5728.09
5728.13
5728.18
5724.95
5728.1
5728.07
5728.07
5728.07
5728.09
5727.9
5728.17
5724.25
5728.09
5728.09
5728.09
5728.1
5728.12
5728.16
5718.13
5714.67
5652.12
5651.59
5651.07
5650.63
5650.29
5650.07
5649.92
5647.61
5652.66
5652.06
5651.49
5651
5650.64
5650.4
5649.89
5646.58
5652.94
5652.57
5652.06
5651.56
5651.16
5650.88
5650.67
5647.62
5579.9
5652.63
5652.38
5651.99
5651.61
5651.33
5651.14
5651.05
5652.49
5652.26
5651.96
5651.7
5651.56
5651.55
5651.91
5651.92
5648.92
5649.7
5650.23
5650.62
5650.93
5651.18
5651.31
5650.14
5647.39
5648.55
5649.43
5650.09
5650.59
5650.98
5650.52
5647.77
5645.44
5647.24
5648.52
5649.49
5650.22
5650.78
5651.12
5648.48
5459.78
5645.65
5647.47
5648.78
5649.76
5650.48
5650.99
5650.59
4891.37
5644.24
5646.61
5648.23
5649.38
5650.23
5650.85
5651.37
4886.39
5643.96
5646.48
5648.17
5649.37
5650.23
5650.85
5651.37
5433.09
5645.37
5647.23
5648.55
5649.57
5650.35
5650.93
5651.4
5653.49
5654.01
5654.42
5654.77
5655.07
5655.34
5655.03
5655.4
5652.83
5653.38
5653.93
5654.42
5654.85
5655.24
5654.46
5651.99
5651.59
5652.89
5653.48
5654.07
5654.6
5655.1
5655.34
5653.51
5451.99
5652.73
5653.15
5653.76
5654.38
5654.96
5655.46
5653.96
4817.73
5652.74
5653
5653.59
5654.25
5654.88
5655.49
5656.06
4797.98
5653.16
5653.35
5653.86
5654.44
5655.03
5655.63
5656.19
5404.77
5653.54
5653.8
5654.25
5654.77
5655.31
5655.85
5656.36
5662.29
5662.1
5661.94
5661.84
5661.8
5661.84
5660.84
5661.95
5662.93
5662.53
5662.27
5662.11
5662.06
5662.11
5661.07
5658.54
5662.62
5663.33
5662.87