/*--------------------------------*- C++ -*----------------------------------*\
| =========                 |                                                 |
| \\      /  F ield         | OpenFOAM: The Open Source CFD Toolbox           |
|  \\    /   O peration     | Version:  plus.master.MPPICInterFoam            |
|   \\  /    A nd           | Web:      www.OpenFOAM.com                      |
|    \\/     M anipulation  |                                                 |
\*---------------------------------------------------------------------------*/
FoamFile
{
    version     2.0;
    format      ascii;
    class       surfaceScalarField;
    location    "12";
    object      phi;
}
// * * * * * * * * * * * * * * * * * * * * * * * * * * * * * * * * * * * * * //

dimensions      [0 3 -1 0 0 0 0];

internalField   nonuniform List<scalar> 
34018
(
2.81335e-07
6.07238e-06
-5.38031e-07
-7.45166e-07
2.30512e-07
7.6504e-06
2.27538e-07
5.9644e-06
-5.04459e-07
-8.79199e-07
8.73996e-06
2.28271e-08
-6.38045e-07
7.05045e-06
1.46379e-07
5.55652e-06
-4.20807e-07
1.66717e-07
-3.00739e-07
6.91177e-07
7.27068e-06
1.97994e-07
-3.85309e-07
-4.75727e-07
9.49894e-07
7.46909e-06
-5.35167e-07
-5.56967e-07
8.27149e-07
7.2278e-06
-4.91678e-07
-5.22746e-07
5.84511e-07
6.59622e-06
-3.71849e-07
-4.26063e-07
3.90767e-07
5.70772e-06
-2.68213e-07
-3.18899e-07
2.62397e-07
4.72572e-06
-1.95874e-07
1.94859e-07
3.74195e-06
-2.21432e-07
-1.65982e-07
-3.09112e-07
9.10071e-07
9.26375e-06
1.75392e-07
-6.54373e-07
1.34682e-06
9.64392e-06
-7.9272e-07
1.07824e-06
9.28762e-06
-7.33025e-07
7.6451e-07
8.24079e-06
-5.74575e-07
5.07192e-07
6.95311e-06
-4.06789e-07
3.24214e-07
5.67798e-06
2.28137e-07
4.48469e-06
-2.73823e-07
-7.3739e-07
8.27243e-07
1.22e-05
1.72102e-07
-6.83893e-07
9.50402e-07
1.28929e-05
-9.08868e-07
9.25166e-07
1.24058e-05
-9.44055e-07
7.07379e-07
1.03854e-05
-7.31149e-07
5.44854e-07
8.26452e-06
-4.9314e-07
3.58479e-07
6.57258e-06
2.54419e-07
5.14473e-06
-3.18127e-07
-8.18165e-07
5.78143e-07
1.43737e-05
1.78836e-07
-9.36154e-07
6.38493e-07
1.41104e-05
-9.67217e-07
5.64433e-07
1.39824e-05
-1.1104e-06
4.54295e-07
1.24377e-05
-9.04346e-07
4.784e-07
9.39426e-06
-5.80212e-07
3.27744e-07
7.2471e-06
2.5277e-07
5.63001e-06
-3.55559e-07
-1.06529e-06
3.38978e-07
1.48233e-05
1.82628e-07
-1.00011e-06
5.35399e-07
1.45915e-05
-7.84803e-07
6.80796e-07
1.39093e-05
-1.33936e-06
6.10985e-07
1.32518e-05
-1.01695e-06
2.21415e-07
9.90675e-06
-6.26377e-07
2.31491e-07
7.53647e-06
2.19184e-07
5.84727e-06
-3.67492e-07
-5.98661e-07
-1.22587e-07
1.44574e-05
7.5802e-08
-9.8176e-07
-3.81347e-08
1.52831e-05
-8.53249e-07
6.06148e-08
1.48171e-05
-1.0466e-06
1.0532e-07
1.27405e-05
-8.49876e-07
1.09959e-07
9.62127e-06
-5.31627e-07
1.81259e-07
7.38253e-06
2.0049e-07
5.76368e-06
-3.12127e-07
-3.3593e-07
1.19896e-05
2.00675e-08
-2.72166e-07
-7.52428e-07
1.33307e-05
-4.33237e-07
-8.8446e-07
1.28754e-05
-3.38959e-07
-8.75927e-07
1.08014e-05
-9.22446e-08
-6.4366e-07
8.55043e-06
6.74782e-08
-4.15248e-07
6.82936e-06
1.74124e-07
5.39925e-06
-2.40209e-07
1.82808e-07
-3.39176e-07
-5.49502e-08
7.15105e-06
3.77136e-07
1.36583e-07
-3.70321e-07
1.28751e-07
7.30957e-06
6.21168e-08
-3.16761e-07
2.99333e-08
7.0572e-06
8.73375e-08
-2.07302e-07
-5.97676e-08
6.43848e-06
1.08225e-07
-1.14973e-07
-4.71235e-08
5.5841e-06
7.84203e-08
-5.08119e-08
-2.38043e-08
4.64266e-06
4.28847e-08
7.88601e-09
3.69245e-06
-8.50159e-09
-3.63439e-10
-3.54454e-07
1.0099e-07
9.01127e-06
4.51252e-07
-4.93416e-07
5.38284e-07
9.3736e-06
-4.27867e-07
2.58432e-07
8.99375e-06
-2.47491e-07
3.48443e-08
7.96627e-06
-1.17325e-07
2.85244e-08
6.7475e-06
-3.49823e-08
2.57479e-08
5.546e-06
4.31316e-08
4.40789e-06
6.67975e-09
-5.59588e-07
2.9881e-07
1.20022e-05
5.59889e-07
-5.44796e-07
6.9119e-07
1.27257e-05
-5.19601e-07
5.63053e-07
1.20761e-05
-2.62764e-07
1.59471e-07
1.00039e-05
-8.55525e-08
1.51179e-07
7.96461e-06
5.58566e-10
1.22117e-07
6.39035e-06
1.09679e-07
5.04103e-06
3.7794e-08
-4.40705e-07
1.74122e-07
1.45026e-05
4.36826e-07
-7.31603e-07
2.88252e-07
1.48042e-05
-7.59738e-07
2.70268e-07
1.43033e-05
-3.27643e-07
8.43512e-08
1.20809e-05
-1.00831e-07
2.79421e-07
9.03923e-06
1.2417e-08
2.21806e-07
7.03414e-06
1.82784e-07
5.50935e-06
5.98894e-08
-8.06557e-07
1.39779e-07
1.51374e-05
5.26696e-07
-5.4908e-07
1.80473e-07
1.44419e-05
-6.91244e-07
9.18366e-08
1.42301e-05
-7.09465e-07
4.26746e-07
1.29276e-05
-2.30868e-07
1.896e-07
9.51772e-06
-1.75406e-08
2.30611e-07
7.31431e-06
2.23238e-07
5.72569e-06
6.36878e-08
-6.45089e-07
1.88649e-07
1.44963e-05
5.57617e-07
-5.55625e-07
1.64861e-07
1.52093e-05
-4.34465e-07
1.54491e-07
1.46335e-05
-2.01907e-07
4.19366e-07
1.25153e-05
-1.80582e-08
3.72139e-07
9.25488e-06
6.71092e-08
3.37022e-07
7.19103e-06
2.88316e-07
5.66497e-06
1.00868e-07
-4.57665e-07
1.17227e-05
4.91458e-07
4.21911e-07
-4.65787e-07
1.3113e-05
3.90715e-07
-3.25099e-07
1.245e-05
4.39244e-07
-9.71586e-08
1.04026e-05
5.90484e-07
3.48078e-08
8.29646e-06
4.94243e-07
8.60904e-08
6.69938e-06
4.15794e-07
5.34054e-06
1.10098e-07
3.23088e-07
-4.07515e-07
-5.31678e-07
7.12499e-06
5.21135e-07
4.44146e-07
-2.89013e-07
-5.02229e-07
7.24458e-06
4.4885e-07
-1.36561e-07
-5.11204e-07
6.97458e-06
4.4146e-07
-2.41293e-10
-4.37639e-07
6.36611e-06
3.7373e-07
7.41474e-08
-2.93386e-07
5.53947e-06
2.63634e-07
1.0436e-07
-1.77181e-07
4.6216e-06
1.68018e-07
-9.08795e-08
3.68789e-06
1.12364e-07
8.75601e-08
-4.7707e-07
-5.03684e-07
8.76923e-06
6.91277e-07
-3.29698e-07
-3.26059e-07
9.05006e-06
-1.1633e-07
-4.03386e-07
8.67266e-06
8.48534e-08
-4.26375e-07
7.75396e-06
1.62099e-07
-2.63001e-07
6.63991e-06
1.7429e-07
-1.39232e-07
5.49584e-06
-5.70247e-08
4.3887e-06
1.59405e-07
-4.95328e-07
-1.08614e-07
1.119e-05
9.12668e-07
-3.77546e-07
2.4663e-07
1.20353e-05
-9.37387e-08
1.11672e-07
1.12772e-05
2.42127e-07
-1.83987e-07
9.42559e-06
3.07258e-07
-9.81596e-08
7.73448e-06
2.76281e-07
-1.82032e-08
6.30039e-06
2.74871e-08
5.00466e-06
2.28078e-07
-3.9462e-07
4.93105e-08
1.38884e-05
8.50701e-07
-4.56366e-07
3.53909e-07
1.47585e-05
-3.19758e-07
3.32675e-07
1.39453e-05
2.72916e-07
8.36754e-08
1.12205e-05
4.07566e-07
1.43655e-07
8.66268e-06
3.55598e-07
1.54971e-07
6.91289e-06
1.45306e-07
5.46145e-06
2.85713e-07
-3.66948e-07
1.91975e-07
1.47453e-05
6.15873e-07
-5.46044e-07
-3.74463e-08
1.5012e-05
-6.54427e-07
-3.94594e-08
1.47108e-05
1.09955e-07
2.52197e-07
1.19942e-05
3.8313e-07
3.05873e-07
9.08216e-06
3.64674e-07
2.95334e-07
7.19234e-06
2.50364e-07
5.68142e-06
3.03951e-07
-4.94731e-07
5.19753e-07
1.37411e-05
9.22432e-07
-4.14442e-07
1.5891e-07
1.49322e-05
-2.37364e-07
3.70163e-07
1.40472e-05
3.46455e-07
7.03232e-07
1.14805e-05
4.56417e-07
5.89301e-07
8.8614e-06
3.84658e-07
4.65107e-07
7.09308e-06
3.5426e-07
5.63796e-06
3.07889e-07
-5.12462e-07
1.10519e-05
8.04985e-07
8.98197e-07
-2.70036e-07
1.20571e-05
9.7211e-07
2.77883e-08
1.1497e-05
1.02534e-06
3.30983e-07
9.81226e-06
9.90492e-07
3.70923e-07
8.10939e-06
7.36476e-07
3.25018e-07
6.65845e-06
5.5202e-07
5.34388e-06
2.78611e-07
3.97392e-07
-4.07912e-07
-4.26159e-07
7.12294e-06
4.88526e-07
3.47709e-07
-2.76268e-07
-4.52649e-07
7.20392e-06
3.61553e-07
-1.25598e-07
-4.37878e-07
6.91368e-06
3.48045e-07
-1.38773e-08
-3.3145e-07
6.30889e-06
2.7686e-07
4.737e-08
-2.08617e-07
5.49709e-06
1.89685e-07
7.79328e-08
-1.1883e-07
4.5928e-06
1.16993e-07
-5.53676e-08
3.67253e-06
9.15205e-08
5.72416e-08
-5.08221e-07
-4.70561e-07
8.64743e-06
6.74326e-07
-3.06319e-07
-4.32579e-07
8.82773e-06
-8.4471e-08
-4.42415e-07
8.4553e-06
5.66197e-08
-3.3922e-07
7.62059e-06
1.10433e-07
-1.87221e-07
6.56468e-06
1.23361e-07
-8.48866e-08
5.44889e-06
-2.44159e-08
4.36078e-06
1.20058e-07
-5.06841e-07
-2.41476e-07
1.05679e-05
8.99659e-07
-3.15572e-07
9.09298e-08
1.13202e-05
-3.10458e-09
-5.8737e-08
1.05809e-05
2.09863e-07
-1.68083e-07
9.04129e-06
2.26094e-07
-5.98841e-08
7.59073e-06
1.97829e-07
1.39921e-08
6.22965e-06
4.63784e-08
4.9636e-06
1.67952e-07
-2.99255e-07
1.21951e-07
1.28126e-05
1.0113e-06
-3.58992e-07
4.07315e-07
1.45016e-05
-8.00063e-08
2.80281e-07
1.3327e-05
3.20969e-07
1.59613e-07
1.04917e-05
3.34093e-07
1.68525e-07
8.42098e-06
2.66508e-07
1.73047e-07
6.82138e-06
1.5076e-07
5.41189e-06
2.11687e-07
-6.753e-08
2.88818e-07
1.37039e-05
9.41703e-07
-5.17773e-07
-5.99734e-08
1.59291e-05
-3.09496e-07
1.6014e-07
1.46224e-05
2.69166e-07
3.35293e-07
1.12395e-05
3.38025e-07
3.75894e-07
8.80586e-06
2.77834e-07
3.20342e-07
7.10515e-06
2.48802e-07
5.63658e-06
2.24547e-07
-3.98547e-07
7.93883e-07
1.25503e-05
1.08435e-06
-3.14655e-07
5.62141e-07
1.42257e-05
-6.4191e-08
6.61534e-07
1.32954e-05
3.1878e-07
7.44559e-07
1.06883e-05
3.24741e-07
5.83165e-07
8.6481e-06
2.62687e-07
4.45546e-07
7.02988e-06
3.25622e-07
5.60772e-06
2.16061e-07
-5.38877e-07
1.06531e-05
8.20568e-07
9.10965e-07
-2.62508e-07
1.13069e-05
1.03558e-06
1.20929e-08
1.08539e-05
1.02998e-06
2.02868e-07
9.49903e-06
8.67015e-07
2.22472e-07
8.02697e-06
6.45925e-07
2.06779e-07
6.63567e-06
4.83983e-07
5.33578e-06
2.00539e-07
3.39868e-07
-3.52081e-07
-1.13391e-08
7.0813e-06
3.4453e-07
6.05716e-08
-2.94354e-07
-3.29152e-08
7.13358e-06
4.53858e-08
-2.0876e-07
-4.27613e-08
6.82339e-06
4.73567e-08
-1.33219e-07
-1.22285e-08
6.21583e-06
2.96616e-08
-7.15011e-08
9.34592e-09
5.41186e-06
1.41042e-08
-2.24059e-08
2.18026e-08
4.52298e-06
-1.12494e-09
3.07789e-08
3.62362e-06
1.38077e-08
-1.82071e-08
-4.78716e-07
2.17128e-08
8.61134e-06
4.8159e-07
-3.68875e-07
-4.12676e-08
8.72605e-06
-2.40585e-07
-4.59799e-08
8.33016e-06
-1.52052e-07
1.49508e-08
7.50473e-06
-8.49153e-08
4.62857e-08
6.46046e-06
-3.21244e-08
5.80927e-08
5.35976e-06
5.91909e-08
4.29394e-06
6.16455e-09
-5.68866e-07
5.89288e-08
1.04831e-05
6.16313e-07
-4.13919e-07
8.03571e-08
1.10433e-05
-2.08687e-07
3.02955e-08
1.02992e-05
-1.18253e-07
8.65985e-08
8.87919e-06
-6.79844e-08
1.21907e-07
7.46487e-06
-2.53117e-08
1.21163e-07
6.12367e-06
1.05116e-07
4.88173e-06
1.05236e-08
-6.26941e-07
1.69633e-07
1.24576e-05
8.70897e-07
-4.35603e-07
2.48484e-07
1.41422e-05
-1.25317e-07
3.49184e-07
1.26977e-05
-5.70007e-08
3.04273e-07
1.02054e-05
-3.69136e-08
2.55811e-07
8.26693e-06
-1.28629e-08
2.14262e-07
6.70423e-06
1.65348e-07
5.32152e-06
1.73546e-08
-7.4293e-07
5.82554e-07
1.29613e-05
1.07254e-06
-4.07764e-07
5.67622e-07
1.52746e-05
-2.45953e-07
5.23755e-07
1.42856e-05
-9.27286e-08
4.25573e-07
1.09651e-05
-5.7896e-08
3.67965e-07
8.65887e-06
-2.35379e-08
2.90471e-07
6.99458e-06
2.14372e-07
5.54871e-06
1.52227e-08
-7.4677e-07
7.04058e-07
1.22523e-05
9.23064e-07
-3.41583e-07
8.23088e-07
1.35647e-05
-2.54616e-07
7.03594e-07
1.30286e-05
-1.47731e-07
5.29417e-07
1.04776e-05
-9.4184e-08
4.14782e-07
8.54778e-06
-3.96373e-08
3.27035e-07
6.93871e-06
2.3746e-07
5.53125e-06
1.35826e-08
-5.61791e-07
1.0868e-05
5.58521e-07
4.92308e-07
-4.06412e-07
1.13576e-05
6.16896e-07
-3.10476e-07
1.0894e-05
5.6754e-07
-2.2067e-07
9.49403e-06
4.44551e-07
-1.27628e-07
7.97192e-06
3.76758e-07
-4.29576e-08
6.56789e-06
3.10035e-07
5.27703e-06
3.51887e-08
2.1787e-07
-2.70013e-07
2.79421e-07
6.97827e-06
2.09369e-07
-1.15785e-07
-2.81417e-07
2.94997e-07
7.01291e-06
-1.63045e-07
-2.51956e-07
2.54129e-07
6.68944e-06
-1.49709e-07
-2.03034e-07
2.09272e-07
6.08079e-06
-1.23203e-07
-1.38456e-07
1.48838e-07
5.28931e-06
-9.08329e-08
-7.6084e-08
1.04023e-07
4.42414e-06
-6.7588e-08
7.5954e-08
3.55469e-06
-2.59046e-08
-5.74415e-08
-3.85158e-07
4.26309e-07
8.56764e-06
2.81785e-07
-4.01012e-07
3.8837e-07
8.64859e-06
-3.62086e-07
3.2654e-07
8.21881e-06
-2.98994e-07
2.91148e-07
7.35954e-06
-2.07961e-07
2.05654e-07
6.3125e-06
-1.20871e-07
1.43347e-07
5.23331e-06
1.02047e-07
4.20082e-06
-5.36856e-08
-5.52624e-07
4.39646e-07
1.07147e-05
3.07635e-07
-5.26317e-07
2.59745e-07
1.11455e-05
-4.54501e-07
2.52562e-07
1.03014e-05
-3.8343e-07
3.17967e-07
8.78129e-06
-2.6935e-07
2.47129e-07
7.30962e-06
-1.59695e-07
1.80684e-07
5.97663e-06
1.30191e-07
4.76916e-06
-7.51862e-08
-1.03606e-06
4.89388e-07
1.29125e-05
5.31519e-07
-4.9222e-07
4.01398e-07
1.34565e-05
-3.7365e-07
2.85108e-07
1.25468e-05
-4.08212e-07
3.77071e-07
1.01807e-05
-3.10706e-07
2.96309e-07
8.12018e-06
-1.89615e-07
2.17591e-07
6.54619e-06
1.56208e-07
5.19715e-06
-9.12592e-08
-1.31553e-06
5.45201e-07
1.35836e-05
6.37602e-07
-7.4474e-07
9.12722e-07
1.41926e-05
-4.42337e-07
8.24098e-07
1.3444e-05
-4.90868e-07
4.35388e-07
1.09557e-05
-3.63275e-07
2.95351e-07
8.53235e-06
-2.1723e-07
2.27737e-07
6.8385e-06
1.66141e-07
5.42289e-06
-1.01333e-07
-8.96507e-07
2.37273e-07
1.30599e-05
3.96537e-07
-7.69762e-07
4.97271e-07
1.38535e-05
-6.19803e-07
4.63862e-07
1.32386e-05
-5.51928e-07
2.39168e-07
1.06058e-05
-3.83929e-07
2.28987e-07
8.44622e-06
-2.17237e-07
2.05859e-07
6.79389e-06
1.56834e-07
5.41391e-06
-9.06633e-08
-4.28873e-07
1.12862e-05
2.12367e-07
3.52276e-08
-5.96903e-07
1.19506e-05
7.26508e-08
-6.20919e-07
1.12958e-05
8.60898e-08
-5.17897e-07
9.54986e-06
8.01828e-08
-3.35557e-07
7.86699e-06
1.51543e-07
-1.74357e-07
6.44115e-06
1.71315e-07
5.17813e-06
-4.57102e-08
1.26993e-07
-1.90945e-07
2.01417e-07
6.86096e-06
1.59536e-07
-5.27642e-08
-2.1883e-07
2.79139e-07
6.87767e-06
-1.16005e-07
-2.02403e-07
2.32708e-07
6.54702e-06
-1.06689e-07
-1.57049e-07
1.7373e-07
5.94436e-06
-8.2583e-08
-9.54745e-08
1.13097e-07
5.17154e-06
-5.68479e-08
-3.85681e-08
7.21894e-08
4.33423e-06
-3.91944e-08
4.89431e-08
3.49617e-06
4.06382e-09
-3.30565e-08
-2.49812e-07
3.49454e-07
8.47036e-06
1.9905e-07
-3.30667e-07
4.61437e-07
8.54729e-06
-3.16128e-07
3.51832e-07
8.08509e-06
-2.51689e-07
2.73831e-07
7.19497e-06
-1.57999e-07
1.73697e-07
6.15837e-06
-7.41089e-08
1.09974e-07
5.11175e-06
7.29138e-08
4.11777e-06
-1.48561e-08
-4.10621e-07
4.04919e-07
1.0884e-05
1.85901e-07
-4.28512e-07
3.76171e-07
1.12488e-05
-4.3765e-07
3.25381e-07
1.03371e-05
-3.5192e-07
3.16011e-07
8.65347e-06
-2.18308e-07
2.13284e-07
7.13643e-06
-1.05393e-07
1.44442e-07
5.8294e-06
9.92623e-08
4.6662e-06
-2.866e-08
-6.54812e-07
4.62564e-07
1.32803e-05
2.29534e-07
-4.63079e-07
3.82003e-07
1.32589e-05
-4.70012e-07
2.30399e-07
1.26489e-05
-4.14896e-07
2.67447e-07
1.01744e-05
-2.71947e-07
2.35916e-07
7.95476e-06
-1.33387e-07
1.68363e-07
6.38375e-06
1.20517e-07
5.08166e-06
-3.91835e-08
-8.47256e-07
2.89939e-07
1.43618e-05
2.41677e-07
-7.60726e-07
4.11679e-07
1.40765e-05
-5.11711e-07
3.72631e-07
1.3053e-05
-5.35736e-07
2.66113e-07
1.09813e-05
-3.2886e-07
1.80722e-07
8.3808e-06
-1.57043e-07
1.62043e-07
6.67306e-06
1.2602e-07
5.30462e-06
-4.42443e-08
-6.0142e-07
1.04396e-08
1.37721e-05
1.68789e-07
-7.47794e-07
1.06597e-07
1.43053e-05
-5.5342e-07
1.12298e-07
1.33045e-05
-4.86352e-07
7.76526e-08
1.07271e-05
-2.98966e-07
1.41146e-07
8.29839e-06
-1.35793e-07
1.54258e-07
6.63849e-06
1.25697e-07
5.30449e-06
-2.60416e-08
-2.49653e-07
1.1432e-05
1.12616e-07
1.88393e-09
-4.8221e-07
1.23224e-05
-3.24021e-08
-5.02652e-07
1.14555e-05
-2.69055e-08
-3.93763e-07
9.47425e-06
4.43276e-08
-2.27391e-07
7.71872e-06
1.23015e-07
-9.01198e-08
6.30878e-06
1.49352e-07
5.08878e-06
1.26539e-08
1.1231e-07
-1.69766e-07
-7.41954e-08
6.78799e-06
1.95283e-07
1.21597e-07
-1.50249e-07
-8.88301e-09
6.78664e-06
8.05768e-08
-1.05906e-07
-1.77869e-08
6.44883e-06
7.17296e-08
-5.23313e-08
-1.89318e-08
5.85099e-06
5.88536e-08
-1.3666e-09
-1.73886e-08
5.09329e-06
4.47156e-08
3.76818e-08
-1.49387e-08
4.27785e-06
3.24025e-08
-1.00629e-08
3.46355e-06
6.19203e-08
1.86073e-08
-1.98032e-07
-2.33595e-08
8.3632e-06
2.54538e-07
-2.04819e-07
1.09957e-07
8.43539e-06
-1.59468e-07
6.85264e-08
7.95351e-06
-8.49282e-08
3.83941e-08
7.06341e-06
-1.64406e-08
2.56455e-08
6.0471e-06
3.49513e-08
1.53013e-08
5.03033e-06
1.14928e-08
4.06663e-06
6.46785e-08
-2.28755e-07
2.19268e-08
1.07702e-05
2.97394e-07
-2.11396e-07
1.89021e-07
1.11527e-05
-1.86118e-07
1.62591e-07
1.0218e-05
-9.61581e-08
1.10683e-07
8.49137e-06
-1.43577e-08
8.39468e-08
6.99635e-06
4.33727e-08
6.05979e-08
5.72658e-06
4.55381e-08
4.60024e-06
7.53026e-08
-1.73072e-07
-4.27578e-08
1.32355e-05
2.82737e-07
-2.6703e-07
-6.69735e-09
1.35488e-05
-2.49108e-07
1.66701e-07
1.2627e-05
-1.20427e-07
1.28674e-07
1.0028e-05
-1.59688e-08
1.32883e-07
7.80158e-06
4.97837e-08
1.10413e-07
6.26824e-06
8.40099e-08
5.00704e-06
8.59183e-08
-2.25406e-07
1.9727e-07
1.41485e-05
1.98819e-07
-2.22167e-07
2.39173e-08
1.4043e-05
-3.38128e-07
-2.99622e-08
1.3366e-05
-1.93311e-07
1.08203e-07
1.0857e-05
-4.46048e-08
1.37431e-07
8.22755e-06
4.42136e-08
1.39968e-07
6.55468e-06
1.12926e-07
5.22897e-06
9.10279e-08
-2.69325e-07
1.77478e-07
1.3712e-05
3.49603e-07
-2.46352e-07
5.23876e-08
1.42542e-05
-2.2006e-07
5.03714e-08
1.31981e-05
-1.0734e-07
1.51914e-07
1.05709e-05
-5.07717e-09
1.87912e-07
8.14565e-06
6.24325e-08
1.80878e-07
6.53013e-06
1.39888e-07
5.23701e-06
1.03067e-07
-1.6527e-07
1.12732e-05
2.51088e-07
2.50852e-07
-1.67962e-07
1.21055e-05
2.72006e-07
-1.41823e-07
1.12385e-05
2.41254e-07
-6.75039e-08
9.2953e-06
2.56659e-07
1.14309e-08
7.5937e-06
2.34067e-07
7.19618e-08
6.22274e-06
2.06479e-07
5.03794e-06
1.17532e-07
1.45285e-07
-1.85515e-07
-1.82597e-07
6.74109e-06
2.25303e-07
1.89765e-07
-1.3003e-07
-1.69759e-07
6.72446e-06
1.76628e-07
-5.75881e-08
-1.69221e-07
6.38016e-06
1.65555e-07
2.9275e-09
-1.27816e-07
5.78613e-06
1.32243e-07
4.71197e-08
-8.92903e-08
5.04065e-06
9.7782e-08
7.60144e-08
-6.26224e-08
4.24115e-06
7.05184e-08
-4.32182e-08
3.44456e-06
9.07703e-08
4.75799e-08
-2.33918e-07
-1.63806e-07
8.27387e-06
3.04593e-07
-1.68286e-07
-1.2536e-07
8.32545e-06
-7.25626e-08
-1.52225e-07
7.84093e-06
7.87818e-09
-1.09726e-07
6.96513e-06
5.94652e-08
-6.37921e-08
5.97014e-06
9.05411e-08
-3.85896e-08
4.97537e-06
-2.38477e-08
4.03343e-06
1.04456e-07
-2.43536e-07
-8.66565e-08
1.0544e-05
3.92708e-07
-1.88459e-07
3.25916e-09
1.09693e-05
-3.47973e-08
-7.22368e-08
9.98449e-06
6.17008e-08
-4.57487e-08
8.33104e-06
1.00288e-07
1.2977e-09
6.8927e-06
1.21171e-07
1.20608e-08
5.65511e-06
1.39427e-08
4.55549e-06
1.28147e-07
-2.00648e-07
-1.25715e-07
1.30533e-05
4.22071e-07
-1.55244e-07
-1.40908e-07
1.3648e-05
3.54005e-09
-2.66044e-08
1.24227e-05
1.07347e-07
8.96154e-08
9.789e-06
1.41025e-07
9.27731e-08
7.67652e-06
1.51039e-07
8.39212e-08
6.18643e-06
6.53018e-08
4.95575e-06
1.51017e-07
-7.48972e-08
1.25264e-07
1.36573e-05
3.15231e-07
2.22651e-09
9.21483e-08
1.3733e-05
-1.75539e-07
1.40062e-07
1.33774e-05
5.7312e-08
1.09408e-07
1.06044e-05
1.32938e-07
1.52071e-07
8.09267e-06
1.55035e-07
1.44541e-07
6.47199e-06
1.11378e-07
5.17772e-06
1.60266e-07
-2.28739e-07
2.3718e-07
1.33458e-05
4.83524e-07
-5.15697e-08
1.27639e-07
1.40418e-05
4.78893e-08
2.86869e-07
1.29522e-05
1.30574e-07
3.08172e-07
1.02897e-05
1.51971e-07
2.5198e-07
8.02447e-06
1.60216e-07
2.0971e-07
6.45684e-06
1.52491e-07
5.19264e-06
1.63587e-07
-1.92016e-07
1.1059e-05
3.17878e-07
3.25751e-07
-1.42658e-07
1.17783e-05
4.05758e-07
-1.0172e-08
1.09542e-05
4.38959e-07
8.05304e-08
9.12544e-06
3.87516e-07
1.1691e-07
7.5072e-06
3.02212e-07
1.41197e-07
6.16822e-06
2.40062e-07
5.00658e-06
1.61862e-07
1.63317e-07
-1.78986e-07
-1.12423e-07
6.69109e-06
2.01999e-07
1.39438e-07
-1.31706e-07
-1.09497e-07
6.6593e-06
1.2744e-07
-6.7095e-08
-1.12205e-07
6.30902e-06
1.18788e-07
-1.14941e-08
-8.51238e-08
5.71901e-06
9.66104e-08
3.20771e-08
-6.32031e-08
4.98502e-06
7.52945e-08
6.30184e-08
-4.8391e-08
4.20055e-06
5.80963e-08
-3.72961e-08
3.4219e-06
8.05959e-08
4.24783e-08
-2.44604e-07
-7.29243e-08
8.20051e-06
2.78546e-07
-1.87544e-07
-6.26596e-08
8.22159e-06
-9.79957e-08
-9.38868e-08
7.73318e-06
-1.94434e-08
-7.09024e-08
6.8724e-06
3.37936e-08
-4.10418e-08
5.89476e-06
6.97364e-08
-2.6832e-08
4.91783e-06
-1.97805e-08
3.99628e-06
8.93737e-08
-3.0809e-07
4.5204e-08
1.03658e-05
3.68154e-07
-2.57644e-07
1.04887e-07
1.07514e-05
-7.39678e-08
-4.06745e-08
9.74761e-06
2.05895e-08
-2.03105e-08
8.186e-06
6.36112e-08
1.19008e-08
6.79674e-06
9.21377e-08
1.66588e-08
5.58305e-06
1.36613e-08
4.50677e-06
1.07434e-07
-4.22416e-07
1.72971e-07
1.28608e-05
4.87129e-07
-3.6361e-07
2.09002e-07
1.34853e-05
-3.96492e-08
1.07346e-07
1.19507e-05
7.4288e-08
1.10667e-07
9.54414e-06
1.02229e-07
1.01608e-07
7.55881e-06
1.17502e-07
8.33674e-08
6.10448e-06
6.06495e-08
4.90009e-06
1.26222e-07
-2.27681e-07
4.9857e-08
1.36154e-05
3.9281e-07
-5.01112e-07
4.20796e-08
1.41735e-05
-1.8868e-07
2.96616e-07
1.28756e-05
2.65763e-08
1.63784e-07
1.03361e-05
9.37861e-08
1.56998e-07
7.97012e-06
1.19906e-07
1.39347e-07
6.38996e-06
1.0323e-07
5.12185e-06
1.33237e-07
-2.46907e-07
2.07922e-07
1.29197e-05
5.1501e-07
-2.42469e-07
1.23812e-07
1.39557e-05
-5.166e-08
3.18927e-07
1.27393e-05
6.85261e-08
2.95959e-07
1.00375e-05
9.73327e-08
2.35359e-07
7.91741e-06
1.17726e-07
1.92568e-07
6.38332e-06
1.37626e-07
5.14278e-06
1.3324e-07
-2.28765e-07
1.09721e-05
2.92157e-07
2.31572e-07
-2.47883e-07
1.16183e-05
3.03093e-07
-9.64648e-08
1.07702e-05
3.51593e-07
3.93162e-10
9.0115e-06
3.13206e-07
5.68944e-08
7.43087e-06
2.55312e-07
9.80103e-08
6.11082e-06
2.08932e-07
4.9684e-06
1.32536e-07
1.4132e-07
-1.46507e-07
-1.49604e-08
6.62699e-06
1.52039e-07
7.35263e-08
-1.21585e-07
8.92299e-10
6.58157e-06
5.18285e-08
-8.25711e-08
-8.54016e-10
6.22591e-06
4.49397e-08
-3.62398e-08
-9.14718e-09
5.63997e-06
4.18079e-08
8.29281e-09
-1.72383e-08
4.91793e-06
3.98151e-08
4.31976e-08
-2.20581e-08
4.15123e-06
3.64929e-08
-2.34144e-08
3.39311e-06
6.48852e-08
3.04673e-08
-2.09101e-07
4.81888e-08
8.13834e-06
2.08057e-07
-1.86484e-07
6.64683e-08
8.13338e-06
-1.40231e-07
5.0806e-08
7.6353e-06
-6.99425e-08
1.94955e-08
6.77333e-06
-8.74108e-09
9.54258e-09
5.80664e-06
3.7911e-08
-1.22433e-10
4.84912e-06
-6.77453e-09
3.95118e-06
6.6252e-08
-3.03676e-07
1.31436e-07
1.03164e-05
2.69846e-07
-2.58117e-07
1.51023e-07
1.06211e-05
-1.59041e-07
7.43017e-08
9.62498e-06
-6.94389e-08
4.23758e-08
8.07354e-06
-5.46444e-09
4.76556e-08
6.69462e-06
4.41747e-08
3.41382e-08
5.49908e-06
2.07589e-08
4.44868e-06
7.47093e-08
-4.16267e-07
3.01881e-07
1.27108e-05
3.95837e-07
-3.1134e-07
3.6809e-07
1.31632e-05
-1.20104e-07
1.55191e-07
1.16785e-05
-4.39872e-08
1.01746e-07
9.40861e-06
9.73712e-09
1.04956e-07
7.44776e-06
5.50978e-08
8.18256e-08
6.01142e-06
5.67987e-08
4.83435e-06
8.48489e-08
-3.51128e-07
1.31049e-07
1.38098e-05
3.27553e-07
-4.3919e-07
8.24024e-08
1.45473e-05
-1.84423e-07
1.25387e-07
1.26505e-05
-7.34708e-08
1.68937e-07
1.01579e-05
9.68814e-10
1.39404e-07
7.86126e-06
5.42804e-08
1.21659e-07
6.29687e-06
8.89267e-08
5.05527e-06
8.87876e-08
-3.26864e-07
9.91706e-08
1.29002e-05
3.78095e-07
-2.60874e-07
7.2206e-08
1.38997e-05
-1.57034e-07
1.62383e-07
1.25984e-05
-6.26184e-08
1.82886e-07
9.92903e-06
-2.07511e-09
1.76885e-07
7.81941e-06
5.08656e-08
1.54577e-07
6.29748e-06
1.12002e-07
5.08166e-06
8.89134e-08
-2.22558e-07
1.09862e-05
2.05623e-07
1.01867e-07
-2.76275e-07
1.15989e-05
1.45381e-07
-2.04407e-07
1.07048e-05
1.55888e-07
-1.14947e-07
8.93371e-06
1.71265e-07
-2.85564e-08
7.3506e-06
1.7082e-07
4.01876e-08
6.03893e-06
1.5772e-07
4.91865e-06
9.32937e-08
1.086e-07
-1.14734e-07
-9.77113e-09
6.55952e-06
1.22041e-07
6.99222e-08
-9.7233e-08
1.46994e-08
6.50247e-06
4.67371e-08
-6.59302e-08
1.0321e-08
6.14246e-06
4.17389e-08
-2.56726e-08
-7.43709e-10
5.56042e-06
4.00174e-08
1.54834e-08
-1.39842e-08
4.85121e-06
3.94664e-08
4.74734e-08
-2.19467e-08
4.10376e-06
3.7346e-08
-2.53569e-08
3.36663e-06
6.66946e-08
3.24208e-08
-1.57657e-07
4.98416e-08
8.07641e-06
1.59778e-07
-1.53084e-07
8.26724e-08
8.06074e-06
-1.20925e-07
6.94104e-08
7.5439e-06
-6.16506e-08
4.20167e-08
6.67114e-06
-3.10724e-09
1.86385e-08
5.71531e-06
4.19769e-08
1.42372e-09
4.78059e-06
-8.69445e-09
3.90803e-06
6.83246e-08
-2.32444e-07
5.31656e-08
1.03511e-05
1.9438e-07
-1.74125e-07
3.85359e-08
1.06068e-05
-1.42504e-07
9.92536e-08
9.56349e-06
-7.82863e-08
7.72212e-08
7.97401e-06
-8.8201e-09
5.64653e-08
6.5873e-06
4.46176e-08
3.34762e-08
5.41355e-06
1.72622e-08
4.39194e-06
7.53369e-08
-3.08533e-07
8.01293e-08
1.27017e-05
2.90572e-07
-9.27034e-08
7.76074e-08
1.29081e-05
-1.36446e-07
7.06334e-08
1.17508e-05
-8.38535e-08
9.21335e-08
9.34099e-06
-8.16199e-09
8.97517e-08
7.33884e-06
4.92995e-08
7.1e-08
5.91641e-06
4.84424e-08
4.76959e-06
8.28612e-08
-2.96227e-07
2.48143e-07
1.36241e-05
3.13806e-07
1.52947e-08
2.3786e-07
1.40753e-05
-1.33653e-07
2.17811e-08
1.28483e-05
-8.86795e-08
1.13247e-07
1.00918e-05
-1.37407e-08
1.17413e-07
7.75864e-06
4.81325e-08
1.04811e-07
6.20115e-06
7.66189e-08
4.98922e-06
8.60137e-08
-3.33199e-07
1.02849e-07
1.30814e-05
2.97107e-07
-1.10477e-07
1.00281e-07
1.38144e-05
-1.20885e-07
9.22665e-08
1.25382e-05
-9.22404e-08
1.12763e-07
9.90082e-06
-1.82323e-08
1.3818e-07
7.72457e-06
4.47076e-08
1.30673e-07
6.20862e-06
9.62232e-08
5.02083e-06
8.59071e-08
-1.46147e-07
1.1018e-05
1.36517e-07
8.04547e-08
-1.82553e-07
1.16203e-05
1.15109e-07
-1.76883e-07
1.06955e-05
9.58348e-08
-1.22477e-07
8.87191e-06
1.20039e-07
-3.52726e-08
7.26719e-06
1.34307e-07
3.68445e-08
5.96392e-06
1.33489e-07
4.86924e-06
8.96168e-08
9.28033e-08
-1.05766e-07
-6.13259e-08
6.50127e-06
1.21771e-07
1.03552e-07
-7.91151e-08
-4.79071e-08
6.43306e-06
9.06541e-08
-3.62554e-08
-5.78395e-08
6.06966e-06
8.7747e-08
5.02853e-09
-4.86307e-08
5.49234e-06
7.54426e-08
4.06992e-08
-4.48368e-08
4.79643e-06
6.38726e-08
6.57822e-08
-4.2424e-08
4.06686e-06
5.41595e-08
-3.93494e-08
3.34843e-06
7.85417e-08
4.46757e-08
-1.37711e-07
-1.1965e-08
8.00633e-06
1.58353e-07
-1.2284e-07
1.55116e-08
7.9824e-06
-6.91836e-08
-1.67506e-08
7.44904e-06
-1.23014e-08
-1.01021e-08
6.57571e-06
3.58389e-08
-1.34727e-08
5.6358e-06
6.92083e-08
-1.94992e-08
4.72431e-06
-2.30551e-08
3.87489e-06
8.60526e-08
-1.5999e-07
-3.14239e-08
1.034e-05
1.90507e-07
-1.26031e-07
-6.85714e-09
1.05953e-05
-5.68209e-08
-1.30057e-09
9.47886e-06
-6.22088e-09
4.88235e-08
7.86444e-06
4.43901e-08
3.58515e-08
6.48733e-06
8.08258e-08
1.69992e-08
5.34061e-06
4.58183e-09
4.34629e-06
9.87939e-08
-1.34024e-07
-1.30106e-07
1.26797e-05
2.54706e-07
-9.21841e-08
-1.03214e-07
1.29625e-05
-4.54207e-08
-3.70576e-08
1.17399e-05
-1.16287e-08
1.04563e-07
9.25142e-06
5.078e-08
8.15381e-08
7.23079e-06
9.05329e-08
6.01987e-08
5.83344e-06
3.85526e-08
4.71618e-06
1.09901e-07
-1.06106e-07
1.76919e-07
1.3073e-05
3.50115e-07
-2.77346e-08
1.73776e-07
1.37198e-05
-1.35052e-07
1.04252e-07
1.28143e-05
-4.95618e-08
7.00684e-08
1.00407e-05
3.8869e-08
1.00233e-07
7.65145e-06
8.88939e-08
9.51237e-08
6.11613e-06
6.87778e-08
4.93419e-06
1.13638e-07
-2.50815e-07
1.10433e-07
1.31026e-05
2.96153e-07
-5.88105e-08
1.20493e-07
1.36757e-05
-1.76859e-08
1.60115e-07
1.24411e-05
-1.46163e-08
1.33407e-07
9.83436e-06
4.25686e-08
1.40446e-07
7.62711e-06
8.63493e-08
1.28777e-07
6.13113e-06
9.23978e-08
4.97089e-06
1.1262e-07
-1.02022e-07
1.09941e-05
1.23734e-07
1.12583e-07
-1.331e-07
1.15918e-05
1.80015e-07
-9.39296e-08
1.06472e-05
1.69209e-07
-5.07105e-08
8.79488e-06
1.67084e-07
1.85659e-08
7.18597e-06
1.523e-07
7.26646e-08
5.90069e-06
1.37855e-07
4.83008e-06
1.11047e-07
9.3151e-08
-1.07792e-07
-7.83872e-08
6.44647e-06
1.24776e-07
1.16199e-07
-7.0523e-08
-8.4402e-08
6.36719e-06
1.13144e-07
-2.14219e-08
-8.94192e-08
6.00198e-06
1.0805e-07
2.08274e-08
-7.32562e-08
5.43204e-06
9.13485e-08
5.29066e-08
-6.13687e-08
4.75028e-06
7.54424e-08
7.36791e-08
-5.41568e-08
4.03741e-06
6.2839e-08
-4.80681e-08
3.33586e-06
8.2671e-08
5.16992e-08
-1.58661e-07
-9.36094e-09
7.92517e-06
1.70915e-07
-1.16634e-07
-2.66216e-08
7.88271e-06
-4.95736e-08
-5.27375e-08
7.34538e-06
1.24031e-08
-4.47259e-08
6.48533e-06
5.49118e-08
-3.42197e-08
5.56624e-06
8.18092e-08
-3.3856e-08
4.67718e-06
-3.36988e-08
3.8489e-06
9.35599e-08
-2.09317e-07
6.37852e-08
1.02454e-05
2.30836e-07
-1.46705e-07
3.54449e-08
1.04709e-05
-3.26311e-08
-1.45014e-08
9.32666e-06
3.18182e-08
1.62298e-08
7.73916e-06
7.31986e-08
1.65266e-08
6.39525e-06
9.93453e-08
2.81151e-09
5.2778e-06
-7.01739e-09
4.30892e-06
1.10048e-07
-2.12748e-07
6.54076e-08
1.25991e-05
2.91844e-07
-2.01297e-07
-3.49123e-08
1.30217e-05
-2.68937e-08
2.2816e-09
1.15489e-05
3.907e-08
9.81557e-08
9.10364e-06
8.93281e-08
7.29832e-08
7.12409e-06
1.1541e-07
4.9714e-08
5.76044e-06
2.82559e-08
4.67146e-06
1.24809e-07
-3.42886e-07
-1.21817e-08
1.31449e-05
3.4877e-07
-2.8826e-07
1.43974e-07
1.34865e-05
-1.18478e-07
1.87012e-07
1.24599e-05
3.67938e-09
9.62519e-08
9.92058e-06
8.20303e-08
1.04152e-07
7.54195e-06
1.16584e-07
9.01101e-08
6.04116e-06
6.0867e-08
4.88794e-06
1.30156e-07
-3.25691e-07
9.04702e-08
1.29552e-05
3.70677e-07
-2.05858e-07
1.89674e-07
1.35105e-05
-3.18394e-08
2.38861e-07
1.22153e-05
2.71797e-08
1.82435e-07
9.68918e-06
8.04504e-08
1.49805e-07
7.52822e-06
1.12134e-07
1.26358e-07
6.06318e-06
8.64001e-08
4.92926e-06
1.28168e-07
-1.69239e-07
1.09685e-05
1.6291e-07
1.22565e-07
-1.87887e-07
1.15685e-05
2.31951e-07
-7.79448e-08
1.05516e-05
2.24488e-07
-9.64787e-09
8.70529e-06
2.03729e-07
5.21659e-08
7.10913e-06
1.64843e-07
9.47946e-08
5.84693e-06
1.37479e-07
4.79834e-06
1.23361e-07
8.95588e-08
-8.98492e-08
-9.34841e-08
6.39405e-06
1.13096e-07
1.22652e-07
-5.06035e-08
-9.09224e-08
6.30304e-06
1.16014e-07
-9.27063e-09
-7.95241e-08
5.93717e-06
1.03126e-07
2.76236e-08
-6.88924e-08
5.37641e-06
8.77061e-08
5.58917e-08
-6.14574e-08
4.70924e-06
7.43529e-08
7.39974e-08
-5.65945e-08
4.0123e-06
6.3696e-08
-5.15494e-08
3.32638e-06
8.1187e-08
5.39616e-08
-1.47932e-07
-3.20716e-08
7.8407e-06
1.71221e-07
-9.64913e-08
-3.00977e-08
7.77068e-06
-4.19377e-08
-2.49917e-08
7.23648e-06
1.76505e-08
-3.99673e-08
6.397e-06
5.76931e-08
-3.72629e-08
5.5022e-06
8.24063e-08
-3.93856e-08
4.6354e-06
-3.96835e-08
3.82696e-06
9.2635e-08
-2.61885e-07
7.82437e-08
1.01216e-05
2.75496e-07
-1.42015e-07
6.39608e-08
1.02572e-05
-4.55618e-08
6.9098e-08
9.13634e-06
3.23588e-08
1.54831e-08
7.606e-06
7.54021e-08
8.45411e-09
6.30662e-06
1.00278e-07
-7.07087e-09
5.22066e-06
-1.61702e-08
4.27618e-06
1.09582e-07
-4.52891e-07
1.98655e-07
1.25057e-05
4.2606e-07
-2.2611e-07
1.46735e-07
1.27126e-05
-7.5468e-08
1.11554e-07
1.1356e-05
4.68802e-08
7.87923e-08
8.91821e-06
9.61679e-08
6.54381e-08
7.0179e-06
1.18753e-07
3.80871e-08
5.69276e-06
1.68511e-08
4.63149e-06
1.25745e-07
-6.09872e-07
5.82558e-08
1.35204e-05
3.75176e-07
-4.68744e-07
2.15308e-07
1.32771e-05
-1.08786e-07
2.32247e-07
1.19794e-05
1.80361e-08
1.56342e-07
9.71641e-06
9.36106e-08
1.01541e-07
7.4304e-06
1.22798e-07
7.8755e-08
5.97139e-06
4.8722e-08
4.84637e-06
1.32508e-07
-4.4887e-07
1.48536e-07
1.28321e-05
4.81751e-07
-3.57366e-07