/*--------------------------------*- C++ -*----------------------------------*\
| =========                 |                                                 |
| \\      /  F ield         | OpenFOAM: The Open Source CFD Toolbox           |
|  \\    /   O peration     | Version:  plus.master.MPPICInterFoam            |
|   \\  /    A nd           | Web:      www.OpenFOAM.com                      |
|    \\/     M anipulation  |                                                 |
\*---------------------------------------------------------------------------*/
FoamFile
{
    version     2.0;
    format      ascii;
    class       volScalarField;
    location    "12";
    object      rho;
}
// * * * * * * * * * * * * * * * * * * * * * * * * * * * * * * * * * * * * * //

dimensions      [1 -3 0 0 0 0 0];

internalField   nonuniform List<scalar> 
11821
(
1000
1000
1000
973.865
1000
1000
1000
1000
1000
1000
1000
1000
1000
862.899
842.38
837.405
945.409
998.203
1000
1000
477.212
347.943
387.443
652.115
941.998
1000
1000
339.221
698.311
530.774
420.711
832.949
1000
1000
559.671
767.229
765.765
347.895
780.3
1000
1000
353.332
415.392
337.449
458.843
788.664
1000
1000
468.644
375.803
367.649
608.52
929.595
1000
1000
1000
1000
1000
1000
1000
1000
1000
846.404
801.439
810.303
943.115
997.64
1000
1000
363.603
347.213
344.466
608.889
939.334
1000
1000
327.38
462.57
341.205
356.543
815.634
1000
1000
336.438
767.229
724.264
336.429
756.288
1000
1000
330.919
331.962
332.452
333.122
779.53
1000
1000
418.865
335.537
342.057
572.714
922.313
1000
1000
1000
1000
1000
999.999
1000
1000
1000
893.539
856.116
866.57
965.863
998.87
1000
1000
455.205
361.71
392.913
716.157
965.627
1000
1000
326.678
325.249
326.397
432.812
879.667
1000
1000
327.378
741.924
422.736
393.324
841.359
1000
1000
328.972
330.946
331.864
415.454
860.63
1000
1000
537.259
418.238
457.222
688.68
950.506
1000
1000
1000
1000
1000
1000
1000
1000
1000
953.429
946.745
943.554
986.162
999.908
1000
1000
674.418
474.255
566.152
874.302
988.259
1000
1000
422.402
325.151
329.345
644.419
955.249
1000
1000
407.225
336.539
326.383
549.198
946.271
1000
1000
506.031
337.164
358.599
667.61
945.035
1000
1000
750.59
680.847
671.863
846.446
980.085
1000
1000
1000
1000
999.999
1000
1000
1000
1000
958.66
969.491
953.735
988.224
1000
1000
1000
724.82
552.799
648.698
893.071
990.314
1000
1000
584.756
325.186
450.332
718.774
964.646
1000
1000
661.309
325.149
325.759
602.968
964.229
1000
1000
746.268
461.213
410.896
757.772
951.114
1000
1000
746.824
740.643
679.424
845.513
982.238
1000
1000
1000
1000
1000
1000
999.999
1000
1000
939.328
956.563
937.529
985.178
1000
1000
1000
643.14
516.965
599.68
859.421
986.712
1000
1000
503.59
408.277
451.457
663.662
952.783
1000
1000
674.814
494.431
420.204
563.342
950.734
1000
1000
684.135
502.343
368.272
688.378
932.226
1000
1000
595.201
594.373
549.125
773.158
972.327
1000
1000
1000
1000
1000
1000
1000
1000
1000
900.167
913.427
900.335
978.035
999.864
1000
1000
472.8
401.271
471.326
802.842
978.663
1000
1000
318.982
580.491
320.095
530.394
925.576
1000
1000
389.792
648.205
643.24
466.074
913.212
1000
1000
335.371
366.967
314.747
507.999
898.409
1000
1000
447.405
362.855
389.182
698.001
953.294
1000
1000
1000
1000
1000
1000
1000
1000
1000
888.051
885.291
884.311
974.8
999.682
1000
1000
435.137
377.472
430.65
791.054
975.119
1000
1000
318.591
454.583
316.91
495.484
914.467
1000
1000
318.236
648.527
499.122
449.594
895.021
1000
1000
316.418
314.549
314.461
459.391
890.442
1000
1000
448.584
344.427
382.543
698.381
947.154
1000
1000
1000
1000
999.992
1000
1000
1000
1000
891.377
888.59
887.573
974.875
999.695
1000
1000
472.257
377.018
462.404
806.965
975.257
1000
1000
318.565
317.956
316.315
531.881
917.812
1000
1000
388.344
648.488
314.501
451.59
901.251
1000
1000
316.816
314.347
314.43
505.288
896.978
1000
1000
496.814
393.507
421.256
728.613
948.119
1000
1000
1000
1000
999.999
1000
1000
999.996
999.998
891.747
896.32
892.258
974.814
999.752
1000
1000
519.343
405.667
519.226
827.365
975.163
1000
1000
324.149
318.694
377.333
594.074
921.758
1000
1000
458.084
641.664
397.746
494.85
911.132
1000
1000
410.22
314.292
314.312
581.168
902.434
1000
1000
526.954
436.595
465.35
747.72
948.486
1000
1000
1000
1000
1000
1000
1000
999.974
999.996
882.013
892.702
888.08
973.311
999.74
1000
1000
511.443
416.184
521.092
823.875
972.939
1000
1000
356.62
386.713
460.188
595.606
918.915
1000
1000
360.765
385.798
528.681
529.499
909.225
1000
1000
465.261
314.292
317.905
583.323
898.797
1000
1000
511.207
429.204
464.616
739.854
943.637
1000
1000
1000
1000
1000
1000
1000
999.963
999.996
859.613
870.405
871.347
969.844
999.671
1000
1000
461.782
388.911
493.019
801.827
968.063
1000
1000
352.334
418.67
392.347
561.938
905.874
1000
1000
342.065
333.319
381.074
515.406
894.319
1000
1000
383.916
314.292
325.772
543.207
883.67
1000
1000
471.539
402.583
441.562
715.136
930.787
1000
1000
1000
1000
1000
1000
1000
999.963
999.996
847.202
847.97
861.564
968.666
999.697
1000
1000
413.877
347.188
464.905
785.812
966.368
1000
1000
330.885
415.187
325.123
522.525
895.377
1000
1000
458.936
427.466
321.706
467.065
879.579
1000
1000
314.344
314.303
321.54
499.409
871.623
1000
1000
454.482
383.928
418.907
696.45
922.521
1000
1000
1000
1000
1000
1000
1000
999.976
999.998
846.485
847.69
863.313
969.441
999.829
1000
1000
408.851
336.059
468.893
789.412
967.213
1000
1000
330.989
332.78
326.097
522.894
895.359
1000
1000
525.261
527.606
376.816
446.388
878.961
1000
1000
324.98
314.351
324.016
502.075
871.331
1000
1000
449.481
370.027
418.552
691.848
922.374
1000
1000
1000
1000
1000
1000
1000
1000
1000
846.742
853.426
869.029
971.379
999.964
1000
1000
409.705
345.909
486.827
800.626
969.66
1000
1000
331.386
327.193
326.492
538.644
897.85
1000
1000
359.986
527.5
527.378
456.289
882.472
1000
1000
371.283
314.459
341.899
516.612
873.589
1000
1000
433.222
341.731
419.013
687.24
923.96
1000
1000
1000
1000
1000
1000
1000
1000
1000
848.298
861.438
875.074
973.594
1000
1000
1000
410.784
367.943
507.582
809.258
972.791
1000
1000
317.957
348.735
339.566
565.002
902.043
1000
1000
308.778
527.407
502.344
484.271
888.698
1000
1000
355.881
315.185
341.362
519.895
878.224
1000
1000
404.735
323.058
414.679
682.332
927.447
1000
1000
999.915
999.716
1000
1000
1000
1000
1000
1000
1000
1000
1000
1000
1000
1000
1000
1000
1000
1000
1000
1000
1000
1000
1000
1000
1000
1000
1000
1000
1000
1000
1000
1000
1000
1000
1000
1000
1000
1000
1000
999.995
1000
1000
1000
1000
1000
1000
999.277
996.996
1000
1000
1000
1000
1000
999.997
999.937
999.854
1000
1000
1000
1000
1000
1000
1000
1000
1000
1000
1000
1000
1000
1000
1000
1000
1000
1000
1000
1000
1000
1000
1000
1000
1000
1000
1000
1000
1000
1000
1000
1000
1000
1000
1000
1000
1000
1000
999.999
1000
1000
1000
1000
1000
1000
1000
999.325
997.56
1000
1000
1000
1000
1000
999.994
999.962
999.941
1000
1000
1000
1000
1000
1000
1000
1000
1000
1000
1000
1000
1000
1000
1000
1000
1000
1000
1000
1000
1000
1000
1000
1000
1000
1000
1000
1000
1000
1000
1000
999.999
1000
1000
1000
1000
1000
1000
999.995
1000
1000
1000
1000
1000
1000
1000
999.286
998.061
1000
1000
1000
1000
1000
999.995
999.978
999.971
1000
1000
1000
1000
1000
1000
1000
1000
1000
1000
1000
1000
1000
1000
1000
1000
1000
1000
1000
1000
1000
1000
1000
1000
1000
1000
1000
1000
1000
1000
1000
999.998
1000
1000
1000
1000
1000
1000
999.991
999.954
1000
1000
1000
1000
1000
1000
999.306
998.183
1000
1000
1000
1000
1000
999.997
999.99
999.978
1000
1000
1000
1000
1000
1000
1000
1000
1000
1000
1000
1000
1000
1000
1000
1000
1000
1000
1000
1000
1000
1000
1000
1000
1000
1000
1000
1000
1000
1000
1000
1000
1000
1000
1000
1000
1000
1000
999.996
999.788
1000
1000
1000
1000
1000
1000
999.406
998.046
1000
1000
1000
1000
1000
999.997
999.998
999.982
1000
1000
1000
1000
1000
1000
1000
1000
1000
1000
1000
1000
1000
1000
1000
1000
1000
1000
1000
1000
1000
1000
1000
1000
1000
1000
1000
1000
1000
1000
1000
1000
1000
1000
1000
1000
1000
999.999
1000
999.669
1000
1000
1000
1000
1000
1000
999.591
998.023
1000
1000
1000
1000
1000
999.997
1000
999.994
1000
1000
1000
1000
1000
1000
1000
1000
1000
1000
1000
1000
1000
1000
1000
1000
1000
1000
1000
1000
1000
1000
1000
1000
1000
1000
1000
1000
1000
1000
1000
1000
1000
1000
1000
1000
1000
999.995
1000
999.68
1000
1000
1000
1000
1000
1000
999.731
998.524
1000
1000
1000
1000
1000
1000
1000
999.999
1000
1000
1000
1000
1000
1000
1000
1000
1000
1000
1000
1000
1000
1000
1000
1000
1000
1000
1000
1000
1000
1000
1000
1000
1000
1000
1000
1000
1000
1000
1000
1000
1000
1000
1000
1000
1000
999.993
1000
999.769
1000
1000
1000
1000
1000
1000
999.791
998.82
1000
1000
1000
1000
1000
1000
1000
1000
1000
1000
1000
1000
1000
1000
1000
1000
1000
1000
1000
1000
1000
1000
1000
1000
1000
1000
1000
1000
1000
1000
1000
1000
1000
1000
1000
1000
1000
1000
1000
1000
1000
1000
1000
1000
1000
999.995
999.999
999.924
1000
1000
1000
1000
1000
1000
999.798
998.983
1000
1000
1000
1000
1000
1000
1000
1000
1000
1000
1000
1000
1000
1000
1000
1000
1000
1000
1000
1000
1000
1000
1000
1000
1000
1000
1000
1000
1000
1000
1000
1000
1000
1000
1000
1000
1000
1000
1000
1000
1000
1000
1000
1000
1000
999.998
999.992
999.991
1000
1000
1000
1000
1000
1000
999.788
999.108
1000
1000
1000
1000
1000
1000
1000
1000
1000
1000
1000
1000
1000
1000
1000
1000
1000
1000
1000
1000
1000
1000
1000
1000
1000
1000
1000
1000
1000
1000
1000
1000
1000
1000
1000
1000
1000
1000
1000
1000
1000
1000
1000
1000
999.999
1000
999.986
1000
1000
1000
1000
1000
1000
1000
999.76
999.225
1000
1000
1000
1000
1000
1000
1000
1000
1000
1000
1000
1000
1000
1000
1000
1000
1000
1000
1000
1000
1000
1000
1000
1000
1000
1000
1000
1000
1000
1000
1000
1000
1000
1000
1000
1000
1000
1000
1000
1000
1000
1000
1000
1000
999.999
1000
999.993
999.999
1000
1000
1000
1000
1000
1000
999.711
999.368
1000
1000
1000
1000
1000
1000
1000
1000
1000
1000
1000
1000
1000
1000
1000
1000
1000
1000
1000
1000
1000
1000
1000
1000
1000
1000
1000
1000
1000
1000
1000
1000
1000
1000
1000
1000
1000
1000
1000
1000
1000
1000
1000
1000
1000
1000
1000
1000
1000
1000
1000
1000
1000
1000
999.656
999.504
1000
1000
1000
1000
1000
1000
1000
1000
1000
1000
1000
1000
1000
1000
1000
1000
1000
1000
1000
1000
1000
1000
1000
1000
1000
1000
1000
1000
1000
1000
1000
1000
1000
1000
1000
1000
1000
1000
999.999
1000
1000
1000
1000
1000
1000
1000
1000
999.996
1000
1000
1000
1000
1000
1000
999.634
999.617
1000
1000
1000
1000
1000
1000
1000
1000
1000
1000
1000
1000
1000
1000
1000
1000
1000
1000
1000
1000
1000
1000
1000
999.999
1000
1000
1000
1000
1000
1000
1000
1000
1000
1000
1000
1000
1000
1000
999.998
1000
1000
1000
1000
1000
1000
999.998
999.95
999.974
1000
1000
1000
1000
1000
1000
999.648
999.708
1000
1000
1000
1000
1000
1000
1000
1000
1000
1000
1000
1000
1000
1000
1000
1000
1000
1000
1000
1000
1000
1000
1000
999.999
1000
1000
1000
1000
1000
1000
1000
1000
1000
1000
1000
1000
1000
1000
1000
1000
1000
1000
1000
1000
1000
999.998
999.87
999.942
1000
1000
1000
1000
1000
1000
999.704
999.776
1000
1000
1000
1000
1000
1000
1000
1000
1000
1000
1000
1000
1000
1000
1000
1000
1000
1000
1000
1000
1000
1000
1000
999.999
1000
1000
1000
1000
1000
1000
1000
1000
1000
1000
1000
1000
1000
1000
1000
1000
1000
1000
1000
1000
1000
999.999
999.869
999.932
889.387
1000
1000
1000
1000
1000
1000
1000
495.891
933.675
1000
1000
1000
1000
1000
1000
413.622
837.912
1000
1000
1000
1000
1000
999.998
475.195
905.953
1000
1000
1000
1000
1000
999.845
767.515
999.743
1000
1000
1000
999.995
999.993
999.839
988.997
1000
1000
1000
999.998
999.994
1000
999.839
1000
999.999
999.999
1000
1000
1000
1000
999.997
871.291
1000
1000
1000
1000
1000
1000
1000
468.083
927.228
1000
1000
1000
1000
1000
1000
360.476
820.558
1000
1000
1000
1000
1000
999.999
409.992
889.916
1000
1000
1000
1000
1000
999.839
741.853
999.071
1000
1000
1000
999.996
999.99
999.839
983.399
1000
1000
1000
999.996
999.997
1000
999.885
1000
999.999
999.998
1000
1000
1000
1000
999.999
897.586
999.998
1000
1000
1000
1000
1000
1000
609.943
956.874
1000
1000
1000
1000
1000
1000
473.096
880.641
999.999
1000
1000
1000
1000
1000
530.427
928.401
999.999
1000
1000
1000
1000
999.853
812.566
999.811
1000
1000
999.997
999.998
999.99
999.846
987.744
1000
1000
1000
999.995
999.998
1000
999.98
1000
999.999
999.998
1000
1000
1000
1000
1000
926.83
999.999
1000
1000
1000
1000
1000
1000
820.491
972.486
1000
1000
1000
1000
1000
1000
754.211
938.205
1000
1000
1000
1000
1000
1000
766.163
965.686
1000
1000
1000
1000
1000
999.887
903.342
999.999
1000
1000
999.996
1000
999.987
999.934
994.743
1000
1000
1000
999.995
999.999
1000
999.999
1000
999.998
999.998
1000
1000
1000
1000
1000
921.292
999.995
1000
1000
1000
1000
1000
1000
797.195
962.527
1000
1000
1000
1000
1000
999.999
780.818
925.848
1000
1000
1000
1000
1000
1000
782.53
960.875
1000
1000
1000
1000
1000
999.898
901.43
1000
1000
1000
999.999
1000
999.979
999.993
995.618
1000
1000
999.999
999.995
1000
999.985
999.999
1000
999.998
999.999
1000
1000
1000
999.999
1000
892.241
999.998
1000
1000
1000
1000
1000
1000
600.668
937.381
1000
1000
1000
1000
1000
999.997
582.5
878.134
1000
1000
1000
1000
1000
999.986
651.734
936.197
1000
1000
1000
1000
1000
999.881
851.071
999.987
1000
1000
1000
1000
999.977
999.996
992.318
1000
1000
999.999
999.997
1000
999.977
999.999
1000
999.998
999.999
1000
1000
1000
999.997
1000
856.526
1000
1000
1000
1000
1000
1000
1000
469.925
914.066
1000
1000
1000
1000
1000
999.994
393.748
837.51
1000
1000
1000
1000
1000
999.889
472.602
903.197
1000
1000
1000
1000
1000
999.826
783.017
999.637
1000
1000
1000
1000
999.987
999.999
984.394
1000
1000
999.999
1000
1000
999.977
1000
1000
999.998
999.999
1000
1000
999.999
999.995
1000
847.06
1000
1000
1000
1000
1000
1000
1000
490.554
911.26
1000
1000
1000
1000
1000
999.99
409.504
838.596
1000
1000
1000
1000
1000
999.816
458.272
894.865
1000
1000
1000
1000
1000
999.804
773.286
998.586
1000
1000
1000
1000
999.999
999.998
979.902
1000
1000
1000
1000
1000
999.979
1000
1000
999.998
1000
1000
1000
999.998
999.996
1000
845.716
999.833
1000
1000
1000
1000
1000
1000
584.297
909.717
1000
1000
1000
1000
1000
999.981
543.629
845.297
1000
1000
1000
1000
1000
999.822
505.337
898.187
1000
1000
1000
1000
1000
999.8
785.25
997.34
1000
1000
1000
1000
1000
999.791
979.066
1000
1000
1000
1000
1000
999.99
999.854
1000
999.999
1000
999.999
1000
999.998
999.999
999.961
838.845
999.084
1000
1000
1000
1000
1000
1000
622.185
894.713
1000
1000
1000
1000
1000
999.962
586.221
838.006
1000
1000
1000
1000
1000
999.831
554.147
896.928
1000
1000
1000
1000
1000
999.85
789.216
996.131
1000
1000
1000
1000
1000
999.465
977.844
1000
1000
1000
1000
1000
1000
999.442
1000
999.999
1000
999.999
1000
999.998
1000
999.863
824.749
998.259
1000
1000
1000
1000
1000
1000
579.747
874.826
1000
1000
1000
1000
1000
999.948
512.777
813.461
1000
1000
1000
1000
1000
999.831
538.244
882.637
1000
1000
1000
1000
1000
999.951
773.85
994.532
1000
1000
1000
1000
1000
999.438
973.877
1000
1000
1000
1000
1000
1000
999.402
1000
999.999
999.999
1000
1000
999.999
1000
999.808
811.301
997.382
1000
1000
1000
1000
1000
1000
508.861
866.31
1000
1000
1000
1000
1000
999.95
440.549
793.563
1000
1000
1000
1000
1000
999.835
476.115
857.425
1000
1000
1000
1000
999.979
999.997
740.427
991.905
1000
1000
1000
1000
1000
999.487
967.679
999.997
1000
1000
1000
1000
1000
999.402
1000
999.998
999.999
1000
1000
1000
1000
999.821
796.967
995.765
1000
1000
1000
1000
1000
1000
506.047
858.352
1000
1000
1000
1000
1000
999.969
478.871
783.416
999.795
1000
1000
1000
1000
999.918
439.388
835.49
1000
1000
1000
1000
999.956
1000
717.253
988.329
1000
1000
1000
1000
1000
999.506
963.028
999.951
1000
1000
1000
1000
1000
999.402
1000
999.998
999.998
1000
1000
1000
1000
999.88
774.816
993.103
1000
1000
1000
1000
1000
1000
525.101
839.267
1000
1000
1000
1000
1000
999.997
525.496
768.83
998.912
1000
1000
1000
999.999
999.997
444.495
818.215
1000
1000
1000
1000
999.956
1000
704.811
984.475
1000
1000
1000
1000
1000
999.469
960.875
999.85
1000
1000
1000
1000
1000
999.402
1000
999.998
999.998
1000
1000
1000
1000
999.959
752.022
990.715
1000
1000
1000
1000
1000
1000
517.78
810.498
1000
1000
1000
1000
1000
1000
481.404
737.339
998.801
1000
1000
1000
999.983
1000
443.947
799.22
1000
1000
1000
1000
999.956
1000
693.569
980.476
1000
1000
1000
1000
999.995
999.378
960.113
999.765
1000
1000
1000
1000
999.997
999.558
1000
999.998
999.998
1000
1000
999.999
999.999
999.996
746.001
989.941
1000
1000
1000
1000
1000
1000
464.663
797.799
1000
1000
1000
1000
1000
1000
369.651
715.276
998.953
1000
1000
1000
999.978
1000
423.371
784.71
1000
1000
1000
1000
999.971
1000
690.196
977.059
1000
1000
1000
1000
999.957
999.339
960.294
999.716
1000
1000
1000
999.999
999.931
999.744
1000
999.998
999.999
1000
1000
999.995
999.977
1000
1000
1000
999.998
999.999
1000
1000
1000
1000
1000
1000
999.999
1000
1000
1000
1000
1000
1000
1000
1000
1000
1000
1000
1000
1000
1000
999.988
999.949
999.992
1000
1000
1000
999.927
999.994
999.613
999.847
1000
1000
999.999
999.991
999.993
1000
1000
1000
1000
1000
1000
999.884
999.233
1000
1000
1000
1000
1000
1000
999.35
996.999
1000
1000
999.998
999.999
1000
1000
1000
1000
1000
1000
999.999
999.999
999.999
1000
1000
1000
1000
999.992
999.995
999.974
999.999
1000
1000
1000
1000
999.744
999.162
999.974
1000
1000
999.999
999.916
999.971
999.046
999.863
1000
1000
1000
999.99
999.993
1000
1000
1000
1000
1000
1000
999.799
997.86
1000
1000
1000
1000
1000
1000
999.101
997
1000
1000
999.999
999.999
999.999
1000
1000
1000
1000
1000
999.996
999.995
999.999
1000
1000
999.999
1000
999.964
999.714
999.931
1000
1000
1000
1000
999.992
999.154
999.08
999.97
1000
1000
999.998
999.968
999.898
999.045
999.917
1000
1000
1000
999.986
999.812
1000
1000
1000
1000
1000
1000
999.736
997.186
1000
1000
1000
1000
1000
1000
998.779
997.001
1000
1000
1000
999.998
999.998
1000
1000
1000
1000
1000
999.982
999.967
999.999
1000
1000
999.999
1000
999.904
999.156
999.901
1000
1000
1000
1000
999.933
999.044
999.159
999.99
1000
1000
999.995
1000
999.803
999.045
999.973
1000
1000
1000
999.982
998.926
1000
1000
1000
1000
1000
1000
999.695
997.124
1000
1000
1000
1000
1000
1000
998.562
997.166
1000
1000
1000
999.994
999.997
1000
1000
1000
1000
999.997
999.93
999.919
999.999
1000
1000
1000
999.999
999.729
999.139
999.903
1000
1000
1000
999.993
999.896
999.044
999.517
1000
1000
1000
999.989
1000
999.72
999.301
999.994
1000
1000
1000
999.972
998.005
1000
1000
1000
1000
1000
1000
999.652
997.124
1000
1000
1000
1000
1000
999.999
998.475
997.527
1000
1000
999.998
999.987
999.997
1000
1000
1000
1000
999.982
999.651
999.906
1000
1000
1000
1000
999.997
999.274
999.139
999.928
1000
1000
1000
999.959
999.882
999.044
999.792
1000
1000
1000
999.989
1000
999.719
999.821
999.993
1000
1000
1000
999.941
998.033
1000
999.994
1000
1000
1000
1000
999.618
997.822
1000
1000
1000
1000
1000
1000
998.432
997.208
1000
1000
999.991
999.98
999.997
1000
1000
1000
1000
999.938
999.355
999.912
1000
1000
1000
1000
999.995
999.044
999.24
999.974
1000
1000
1000
999.953
999.757
999.044
999.892
1000
1000
1000
999.992
1000
999.779
999.968
999.99
1000
1000
1000
999.887
998.571
999.996
999.986
999.999
1000
1000
1000
999.451
998.93
1000
1000
1000
1000
1000
1000
998.457
997.208
1000
1000
999.98
999.978
999.999
1000
1000
1000
1000
999.774
999.465
999.945
1000
1000
1000
1000
999.968
999.045
999.575
999.999
1000
1000
1000
999.965
999.42
999.063
999.951
999.999
1000
1000
1000
999.957
999.898
999.972
999.98
999.999
1000
1000
999.883
999.696
999.975
999.984
999.999
1000
1000
1000
998.952
998.989
999.999
1000
1000
1000
1000
1000
998.597
997.205
1000
1000
999.97
999.981
1000
1000
1000
1000
1000
999.544
999.761
999.988
1000
1000
1000
1000
999.882
999.045
999.844
1000
1000
1000
1000
999.998
999.403
999.515
999.977
999.996
1000
1000
1000
999.542
999.974
999.968
999.974
999.999
1000
1000
999.894
999.917
999.948
999.985
999.999
1000
1000
1000
998.766
998.337
999.997
1000
1000
1000
1000
1000
998.796
997.205
1000
999.999
999.971
999.99
1000
1000
1000
1000
1000
999.576
999.943
1000
1000
1000
1000
1000
999.801
999.239
999.967
1000
1000
1000
1000
1000
999.751
999.939
999.97
999.99
1000
1000
999.999
999.338
999.993
999.951
999.975
999.999
1000
1000
999.937
999.917
999.948
999.987
999.999
1000
1000
1000
998.811
997.557
999.997
1000
1000
1000
1000
1000
998.819
997.205
1000
999.996
999.99
999.998
1000
1000
1000
1000
999.999
999.872
999.994
1000
1000
1000
1000
1000
999.827
999.921
999.996
999.999
1000
1000
1000
1000
999.999
999.993
999.954
999.987
1000
1000
999.984
999.338
999.992
999.944
999.977
1000
1000
1000
999.995
999.94
999.948
999.991
999.999
1000
1000
1000
998.784
997.441
999.997
1000
1000
1000
1000
1000
998.771
997.205
1000
999.996
1000
1000
1000
1000
1000
1000
1000
1000
1000
1000
1000
1000
1000
1000
999.986
1000
999.998
999.993
999.999
1000
1000
1000
1000
999.993
999.954
999.988
1000
1000
999.988
999.413
999.972
999.944
999.981
1000
1000
1000
999.927
999.985
999.963
999.994
1000
1000
1000
1000
998.501
997.962
999.999
1000
1000
1000
1000
1000
998.596
997.205
1000
999.999
1000
1000
1000
1000
1000
1000
1000
1000
1000
1000
1000
1000
1000
999.996
1000
1000
999.994
999.99
1000
1000
1000
1000
1000
999.982
999.954
999.991
1000
1000
1000
999.863
999.944
999.944
999.988
1000
1000
1000
999.416
999.993
999.989
999.997
1000
1000
1000
1000
998.366
999.09
1000
1000
1000
1000
1000
1000
998.366
997.204
1000
1000
1000
1000
1000
1000
1000
1000
1000
1000
1000
999.999
1000
1000
1000
999.995
1000
1000
999.977
999.99
1000
1000
1000
1000
1000
999.959
999.954
999.996
1000
1000
1000
1000
999.95
999.955
999.995
1000
1000
1000
999.352
1000
999.998
999.999
1000
1000
1000
1000
998.857
999.413
1000
1000
1000
1000
1000
1000
998.295
997.204
1000
1000
1000
1000
1000
1000
1000
1000
1000
1000
1000
999.998
1000
1000
1000
999.995
1000
1000
999.97
999.991
1000
1000
1000
999.996
1000
999.955
999.969
999.999
1000
1000
1000
999.938
999.986
999.988
999.999
1000
1000
1000
999.802
999.778
1000
1000
1000
1000
1000
999.981
999.843
999.357
1000
1000
1000
1000
1000
1000
998.232
997.204
1000
1000
1000
1000
1000
1000
1000
1000
1000
1000
999.999
999.997
1000
1000
1000
999.999
1000
999.995
999.97
999.992
999.998
1000
1000
999.98
1000
999.955
999.986
999.999
999.999
1000
1000
999.494
1000
999.998
1000
1000
1000
1000
999.998
999.32
1000
1000
1000
1000
1000
999.953
999.997
999.177
1000
1000
1000
1000
1000
1000
997.929
997.204
1000
1000
1000
1000
1000
1000
999.995
999.307
1000
1000
1000
999.999
999.998
1000
999.885
998.889
1000
1000
1000
1000
1000
1000
999.985
999.064
978.245
1000
1000
1000
1000
1000
999.991
999.967
1000
1000
1000
1000
999.999
1000
1000
999.999
1000
1000
1000
1000
1000
1000
999.983
999.578
1000
1000
1000
999.998
999.998
1000
999.779
998.885
1000
1000
1000
1000
999.999
1000
999.979
999.098
946.326
1000
1000
1000
1000
1000
999.991
999.74
780.401
1000
1000
1000
1000
1000
1000
1000
779.105
1000
1000
1000
1000
1000
1000
1000
938.586
1000
1000
1000
1000
1000
1000
1000
1000
1000
1000
1000
999.999
1000
999.838
999.876
1000
1000
1000
999.998
999.998
1000
999.682
998.885
999.743
1000
1000
1000
999.996
1000
999.94
999.304
942.737
1000
1000
1000
1000
1000
999.988
999.419
761.836
1000
1000
1000
1000
1000
1000
1000
756.097
1000
1000
1000
1000
1000
1000
1000
928.963
1000
1000
1000
1000
1000
1000
1000
1000
1000
1000
1000
1000
1000
999.689
999.952
1000
1000
1000
999.998
999.999
1000
999.672
998.908
999.577
1000
1000
999.999
999.995
1000
999.786
999.658
963.872
1000
1000
1000
1000
1000
999.972
999.36
842.895
1000
1000
1000
1000
1000
999.992
1000
837.219
999.997
1000
1000
1000
1000
999.999
1000
952.175
1000
1000
1000
1000
1000
1000
1000
1000
1000
1000
1000
1000
1000
999.768
999.636
1000
1000
1000
999.999
1000
1000
999.682
999.435
999.83
1000
1000
999.999
999.995
1000
999.675
999.676
981.694
1000
1000
1000
999.996
1000
999.947
999.349
916.619
999.999
1000
1000
1000
1000
999.946
999.999
917.832
999.999
1000
1000
1000
1000
999.998
1000
966.96
1000
1000
1000
1000
1000
1000
1000
1000
1000
1000
1000
1000
999.994
999.919
998.552
1000
1000
1000
1000
999.997
1000
999.753
999.41
1000
1000
1000
999.998
999.995
1000
999.674
999.675
981.479
1000
1000
1000
999.996
1000
999.92
999.322
906.082
1000
1000
1000
1000
1000
999.948
999.753
903.796
999.974
1000
1000
1000
1000
999.997
1000
961.033
1000
1000
1000
1000
1000
1000
1000
1000
1000
1000
1000
1000
999.968
999.983
998.282
1000
1000
1000
1000
999.995
1000
999.867
998.699
999.958
1000
1000
999.998
999.998
1000
999.685
999.483
974.975
1000
1000
1000
999.999
1000
999.92
999.317
853.67
999.999
1000
1000
1000
1000
999.963
999.373
840.174
999.985
1000
1000
1000
1000
999.996
1000
944.304
1000
1000
1000
1000
1000
1000
1000
1000
1000
1000
1000
999.999
999.964
999.982
998.282
1000
1000
1000
1000
999.995
999.998
999.914
998.282
999.477
1000
1000
999.999
1000
1000
999.729
998.57
963.283
1000
1000
1000
1000
1000
999.931
999.457
792.915
1000
1000
1000
1000
999.992
999.981
999.363
776.943
1000
1000
1000
1000
1000
999.991
1000
921.66
1000
1000
1000
1000
1000
1000
1000
1000
1000
1000
1000
999.999
999.964
999.965
998.363
1000
1000
1000
1000
999.996
999.996
999.909
998.282
998.856
1000
1000
1000
1000
1000
999.782
998.282
957.742
1000
1000
1000
1000
1000
999.91
999.841
781.265
1000
1000
1000
1000
999.965
999.994
999.363
771.28
999.999
1000
1000
1000
999.993
999.99
999.937
909.158
1000
1000
1000
1000
1000
1000
1000
1000
1000
1000
1000
1000
999.981
999.849
998.849
1000
1000
1000
999.999
999.999
999.997
999.881
998.281
998.555
1000
1000
1000
1000
1000
999.842
998.369
957.681
1000
1000
1000
1000
1000
999.738
999.979
789.417
999.999
1000
1000
999.998
999.964
999.999
999.37
779.056
999.899
1000
1000
1000
999.968
999.994
999.703
901.313
1000
1000
1000
1000
1000
1000
1000
1000
1000
1000
1000
999.99
1000
999.503
999.074
1000
1000
1000
999.999
1000
1000
999.738
998.281
998.275
1000
1000
1000
1000
999.997
999.911
998.409
957.597
1000
1000
1000
1000
1000
999.721
999.994
795.779
999.923
1000
1000
999.991
999.964
999.999
999.66
778.736
999.448
1000
1000
999.999
999.964
999.998
999.67
891.204
1000
1000
1000
1000
1000
1000
1000
1000
1000
1000
1000
999.973
1000
999.275
999.012
1000
1000
1000
1000
999.997
1000
999.18
998.281
997.555
1000
1000
1000
1000
999.992
999.965
998.363
955.182
1000
1000
1000
999.999
1000
999.721
999.995
788.359
999.691
1000
1000
999.984
999.974
999.999
999.976
765.504
998.995
1000
1000
999.995
999.964
999.999
999.757
883.078
1000
1000
1000
1000
999.999
1000
1000
1000
1000
1000
1000
999.973
1000
999.36
999.05
1000
1000
1000
1000
999.962
1000
998.388
998.281
996.217
1000
1000
999.998
1000
999.993
999.987
998.418
948.27
1000
1000
1000
1000
1000
999.721
999.995
763.494
999.104
1000
1000
999.984
999.995
999.924
999.995
743.66
998.127
1000
1000
999.987
999.964
1000
999.969
874.63
1000
1000
1000
999.999
999.999
1000
1000
1000
1000
1000
1000
999.983
1000
999.69
999.325
1000
1000
1000
1000
999.959
1000
998.289
998.281
995.113
1000
1000
999.998
1000
999.998
999.989
998.906
939.031
1000
1000
1000
1000
1000
999.749
999.939
732.487
997.473
1000
1000
999.988
1000
999.761
999.997
718.533
995.857
1000
1000
999.983
999.985
1000
1000
858.363
1000
1000
1000
999.999
999.998
1000
1000
1000
1000
1000
1000
999.996
999.956
999.933
999.714
1000
1000
1000
1000
999.959
999.988
998.702
998.281
994.935
1000
1000
999.998
1000
1000
999.726
999.742
930.981
1000
1000
1000
1000
1000
999.878
999.333
713.385
995.458
1000
1000
999.998
1000
999.76
1000
685.77
992.362
1000
1000
999.983
999.998
1000
1000
833.447
1000
1000
1000
999.999
999.998
1000
999.999
1000
1000
1000
1000
1000
999.835
999.8
999.855
1000
1000
1000
1000
999.97
999.931
999.644
999.645
994.996
1000
1000
999.999
1000
1000
999.054
999.811
925.234
1000
1000
1000
1000
1000
999.985
998.79
708.088
994.155
1000
1000
1000
1000
999.76
1000
658.556
989.424
1000
1000
999.986
1000
1000
999.997
815.584
1000
1000
1000
999.998
999.999
1000
999.999
1000
1000
1000
1000
1000
999.768
998.586
999.819
1000
1000
1000
1000
999.986
999.677
999.816
999.818
995.205
1000
1000
1000
1000
999.992
999.039
999.816
922.669
1000
1000
1000
1000
999.998
1000
998.47
707.512
993.059
1000
1000
1000
1000
999.923
1000
656.106
987.146
1000
1000
999.999
1000
1000
999.996
811.274
1000
1000
1000
999.999
1000
1000
999.999
1000
1000
1000
1000
1000
1000
1000
1000
1000
1000
1000
1000
1000
1000
1000
1000
1000
1000
1000
1000
1000
1000
1000
1000
1000
1000
1000
1000
1000
1000
1000
1000
1000
1000
1000
1000
1000
1000
1000
1000
1000
1000
1000
1000
1000
1000
1000
1000
1000
1000
1000
1000
1000
1000
1000
1000
1000
1000
1000
1000
1000
1000
1000
1000
1000
1000
1000
1000
1000
1000
1000
1000
1000
1000
1000
1000
1000
1000
1000
1000
1000
1000
1000
1000
1000
1000
1000
1000
1000
1000
1000
1000
1000
1000
1000
1000
1000
1000
1000
1000
1000
1000
1000
1000
1000
1000
1000
1000
1000
1000
1000
1000
1000
1000
1000
1000
1000
1000
1000
1000
1000
1000
1000
1000
1000
1000
1000
1000
1000
1000
1000
1000
1000
1000
1000
1000
1000
1000
1000
1000
1000
1000
1000
1000
1000
1000
1000
1000
1000
1000
1000
1000
1000
1000
1000
1000
1000
1000
1000
1000
1000
1000
1000
1000
1000
1000
1000
1000
1000
1000
1000
1000
1000
1000
1000
1000
1000
1000
1000
1000
1000
1000
1000
1000
1000
1000
1000
1000
1000
1000
1000
1000
1000
1000
1000
1000
1000
1000
1000
1000
1000
1000
1000
1000
1000
1000
1000
1000
1000
1000
1000
1000
1000
1000
1000
1000
1000
1000
1000
1000
1000
1000
1000
1000
1000
1000
1000
1000
1000
1000
1000
1000
1000
1000
1000
1000
1000
1000
1000
1000
1000
1000
1000
1000
1000
1000
1000
1000
1000
1000
1000
1000
1000
1000
1000
1000
1000
1000
1000
1000
1000
1000
1000
1000
1000
1000
1000
1000
1000
1000
1000
1000
1000
1000
1000
1000
1000
1000
1000
1000
1000
1000
1000
1000
1000
1000
1000
1000
1000
1000
1000
1000
1000
1000
1000
1000
1000
1000
1000
1000
1000
1000
1000
1000
1000
1000
1000
1000
1000
1000
1000
1000
1000
1000
1000
1000
1000
1000
1000
1000
1000
1000
1000
1000
1000
1000
1000
1000
1000
1000
1000
1000
999.998
1000
1000
1000
1000
1000
1000
1000
1000
1000
1000
1000
1000
1000
1000
1000
1000
1000
1000
1000
1000
1000
1000
1000
1000
1000
1000
1000
1000
1000
1000
1000
1000
1000
1000
1000
1000
1000
1000
1000
1000
1000
1000
1000
1000
1000
1000
1000
1000
1000
1000
1000
1000
1000
999.999