/*--------------------------------*- C++ -*----------------------------------*\
| =========                 |                                                 |
| \\      /  F ield         | OpenFOAM: The Open Source CFD Toolbox           |
|  \\    /   O peration     | Version:  plus.master.MPPICInterFoam            |
|   \\  /    A nd           | Web:      www.OpenFOAM.com                      |
|    \\/     M anipulation  |                                                 |
\*---------------------------------------------------------------------------*/
FoamFile
{
    version     2.0;
    format      ascii;
    class       volScalarField;
    location    "12.2";
    object      k;
}
// * * * * * * * * * * * * * * * * * * * * * * * * * * * * * * * * * * * * * //

dimensions      [0 2 -2 0 0 0 0];

internalField   nonuniform List<scalar> 
11821
(
5.18032e-05
6.67796e-05
7.97376e-05
8.84716e-05
9.41036e-05
9.69154e-05
9.69456e-05
9.41572e-05
5.31715e-05
6.93904e-05
8.25101e-05
9.12134e-05
9.67905e-05
9.95539e-05
9.95205e-05
9.66346e-05
5.45859e-05
7.23137e-05
8.51905e-05
9.36446e-05
9.91048e-05
0.000101785
0.000101688
9.87236e-05
5.4627e-05
7.22661e-05
8.58746e-05
9.47436e-05
0.000100336
0.000103087
0.000103007
0.000100017
5.43935e-05
7.18425e-05
8.55672e-05
9.46638e-05
0.000100458
0.000103303
0.000103253
0.000100265
5.38965e-05
7.10073e-05
8.46564e-05
9.37658e-05
9.95876e-05
0.000102447
0.000102414
9.94562e-05
5.31233e-05
6.96461e-05
8.30818e-05
9.20712e-05
9.779e-05
0.000100581
0.000100523
9.75886e-05
5.35548e-05
7.21685e-05
8.65615e-05
9.61698e-05
0.000102414
0.000105619
0.000105812
0.000102933
5.4971e-05
7.47753e-05
8.93234e-05
9.89098e-05
0.000105088
0.000108228
0.000108349
0.000105373
5.64335e-05
7.77159e-05
9.19942e-05
0.000101359
0.000107396
0.000110446
0.000110495
0.000107436
5.64637e-05
7.76525e-05
9.26882e-05
0.000102467
0.000108651
0.000111771
0.000111837
0.000108754
5.62163e-05
7.72296e-05
9.24219e-05
0.000102408
0.0001088
0.000112025
0.000112133
0.000109062
5.5732e-05
7.64207e-05
9.15324e-05
0.00010154
0.00010799
0.000111247
0.000111384
0.000108346
5.49812e-05
7.50792e-05
9.00005e-05
9.99195e-05
0.000106285
0.000109486
0.000109601
0.000106584
5.55447e-05
7.79937e-05
9.39115e-05
0.000104499
0.000111394
0.000115022
0.0001154
0.000112445
5.6976e-05
8.05182e-05
9.65846e-05
0.000107144
0.000113998
0.000117559
0.000117861
0.000114809
5.84468e-05
8.32494e-05
9.91591e-05
0.000109556
0.000116259
0.000119726
0.000119952
0.000116815
5.84879e-05
8.33352e-05
9.98841e-05
0.000110637
0.00011751
0.000121051
0.000121296
0.00011814
5.82263e-05
8.29393e-05
9.96964e-05
0.000110641
0.000117699
0.000121349
0.000121647
0.00011851
5.77568e-05
8.2163e-05
9.88668e-05
0.000109849
0.000116974
0.00012067
0.000121006
0.000117907
5.704e-05
8.08904e-05
9.74082e-05
0.000108328
0.000115395
0.000119047
0.000119367
0.000116287
5.77881e-05
8.42427e-05
0.000101813
0.000113461
0.000121071
0.00012516
0.000125749
0.000122729
5.92044e-05
8.66162e-05
0.00010434
0.000115969
0.000123561
0.000127588
0.0001281
0.000124986
6.06637e-05
8.91174e-05
0.000106738
0.000118254
0.000125726
0.000129672
0.000130109
0.00012691
6.07251e-05
8.93215e-05
0.000107526
0.000119337
0.000126966
0.00013098
0.000131439
0.000128225
6.04532e-05
8.89881e-05
0.00010739
0.000119404
0.000127206
0.000131329
0.000131848
0.000128661
5.99962e-05
8.82697e-05
0.000106657
0.000118711
0.000126584
0.000130764
0.000131331
0.000128188
5.93233e-05
8.70909e-05
0.000105323
0.00011733
0.000125158
0.000129308
0.000129865
0.000126739
6.03189e-05
9.09396e-05
0.000110314
0.000123076
0.000131481
0.000136083
0.00013691
0.000133835
6.17076e-05
9.31349e-05
0.000112633
0.000125427
0.00013383
0.000138375
0.000139127
0.00013596
6.31546e-05
9.53333e-05
0.000114816
0.000127549
0.000135872
0.00014035
0.000141034
0.000137787
6.32371e-05
9.56812e-05
0.000115659
0.00012863
0.000137086
0.000141629
0.000142338
0.000139081
6.29576e-05
9.54076e-05
0.000115579
0.000128769
0.000137385
0.000142036
0.00014281
0.000139586
6.25077e-05
9.47656e-05
0.000114948
0.00012819
0.000136881
0.000141598
0.000142428
0.000139253
6.18843e-05
9.37218e-05
0.000113771
0.00012697
0.000135631
0.000140329
0.000141156
0.000137997
6.32128e-05
9.81557e-05
0.000119424
0.000133418
0.000142704
0.000147863
0.000148955
0.00014583
6.458e-05
0.000100128
0.000121547
0.000135602
0.000144884
0.000149998
0.000151021
0.00014781
6.60051e-05
0.000102035
0.000123475
0.000137543
0.000146788
0.000151853
0.000152817
0.000149531
6.60967e-05
0.000102483
0.000124347
0.000138605
0.000147962
0.000153092
0.000154087
0.000150798
6.5827e-05
0.000102272
0.000124345
0.000138813
0.000148325
0.000153562
0.000154626
0.000151375
6.53905e-05
0.000101716
0.000123821
0.000138358
0.00014795
0.00015326
0.000154386
0.000151188
6.48188e-05
0.000100828
0.000122817
0.000137319
0.00014689
0.000152191
0.000153318
0.000150135
6.65641e-05
0.000105909
0.000129226
0.000144583
0.000154818
0.00016059
0.000161975
0.000158804
6.78071e-05
0.000107648
0.000131133
0.000146571
0.000156818
0.000162558
0.000163885
0.000160633
6.91174e-05
0.00010931
0.000132844
0.000148336
0.000158575
0.000164289
0.000165568
0.000162249
6.92096e-05
0.000109797
0.000133718
0.000149373
0.000159703
0.000165485
0.000166804
0.000163489
6.89599e-05
0.000109657
0.000133779
0.000149637
0.000160135
0.000166022
0.00016741
0.000164138
6.85644e-05
0.000109188
0.000133365
0.000149311
0.000159892
0.000165857
0.000167312
0.000164095
6.80925e-05
0.00010847
0.00013255
0.000148464
0.00015903
0.000164991
0.00016645
0.000163247
7.02523e-05
0.000114245
0.000139786
0.000156645
0.000167927
0.000174375
0.000176085
0.000172866
7.1341e-05
0.000115742
0.00014148
0.000158442
0.000169749
0.000176181
0.000177844
0.000174553
7.2528e-05
0.000117192
0.000143017
0.000160045
0.000171368
0.000177792
0.000179422
0.000176071
7.2614e-05
0.000117714
0.000143898
0.000161054
0.000172454
0.000178948
0.000180626
0.000177289
7.23886e-05
0.000117639
0.000144002
0.000161376
0.000172949
0.000179551
0.0001813
0.000178007
7.2037e-05
0.000117269
0.000143692
0.000161166
0.000172832
0.000179516
0.000181335
0.000178099
7.16659e-05
0.000116721
0.000143063
0.000160507
0.000172162
0.000178845
0.000180669
0.000177446
7.42934e-05
0.000123245
0.000151219
0.000169731
0.000182161
0.000189358
0.000191427
0.000188158
7.52255e-05
0.000124526
0.000152721
0.000171348
0.000183821
0.000191017
0.000193052
0.000189718
7.62729e-05
0.000125776
0.000154109
0.000172807
0.000185316
0.000192521
0.000194537
0.000191154
7.63619e-05
0.000126347
0.000154979
0.000173803
0.000186396
0.00019366
0.000195722
0.000192357
7.61688e-05
0.000126338
0.000155129
0.00017416
0.000186919
0.000194308
0.000196453
0.000193138
7.58624e-05
0.000126059
0.00015492
0.000174057
0.000186912
0.000194387
0.000196604
0.000193348
7.55853e-05
0.000125668
0.000154462
0.000173572
0.000186417
0.000193891
0.000196113
0.000192868
7.87244e-05
0.000133022
0.000163664
0.000183986
0.000197685
0.000205708
0.000208176
0.000204851
7.95086e-05
0.000134121
0.000164995
0.000185445
0.000199206
0.000207245
0.000209692
0.00020631
8.04141e-05
0.000135201
0.000166255
0.000186795
0.000200605
0.000208665
0.000211105
0.000207686
8.05132e-05
0.000135802
0.000167099
0.000187793
0.000201673
0.000209784
0.000212277
0.000208882
8.03604e-05
0.000135857
0.000167299
0.000188154
0.000202217
0.000210474
0.000213054
0.000209715
8.00971e-05
0.000135665
0.000167182
0.000188137
0.000202298
0.000210643
0.000213297
0.000210018
7.99011e-05
0.000135408
0.000166869
0.000187797
0.000201947
0.000210289
0.000212947
0.000209677
8.35924e-05
0.000143706
0.000177271
0.000199581
0.000214688
0.00022363
0.00022654
0.000223152
8.42477e-05
0.000144658
0.000178463
0.000200916
0.000216102
0.000225077
0.000227977
0.000224542
8.50216e-05
0.000145602
0.000179613
0.000202188
0.000217436
0.000226439
0.000229345
0.000225884
8.51354e-05
0.000146216
0.000180448
0.000203147
0.00021846
0.000227541
0.000230508
0.000227077
8.50243e-05
0.000146323
0.000180675
0.000203536
0.000219039
0.000228255
0.000231315
0.000227947
8.47983e-05
0.000146202
0.000180627
0.000203579
0.000219178
0.000228481
0.000231617
0.00022831
8.46636e-05
0.000146044
0.000180419
0.000203343
0.000218928
0.000228225
0.000231363
0.000228064
8.89575e-05
0.00015544
0.000192221
0.000216729
0.000233401
0.000243366
0.000246766
0.000243306
8.95104e-05
0.000156284
0.00019331
0.000217976
0.000234744
0.000244757
0.000248162
0.000244665
9.01702e-05
0.000157127
0.000194379
0.000219183
0.000236022
0.000246083
0.000249509
0.000245999
9.02999e-05
0.000157729
0.000195174
0.000220109
0.00023703
0.000247173
0.000250667
0.000247194
9.0224e-05
0.000157874
0.000195432
0.00022051
0.000237611
0.00024789
0.000251482
0.000248079
9.00237e-05
0.000157797
0.00019542
0.000220579
0.00023777
0.000248133
0.0002518
0.000248461
8.99237e-05
0.000157695
0.00019527
0.000220396
0.000237567
0.000247921
0.000251588
0.000248258
9.48932e-05
0.000168386
0.000208726
0.000235679
0.000254096
0.000265203
0.000269147
0.000265602
9.53749e-05
0.000169164
0.000209752
0.000236876
0.000255407
0.000266579
0.000270543
0.000266971
9.59423e-05
0.000169934
0.000210752
0.000238027
0.000256654
0.000267892
0.000271893
0.000268323
9.60805e-05
0.000170502
0.000211504
0.000238919
0.000257639
0.000268968
0.000273044
0.00026952
9.60273e-05
0.000170663
0.000211771
0.000239313
0.000258195
0.000269657
0.000273838
0.000270392
9.5834e-05
0.000170593
0.000211754
0.000239364
0.000258326
0.000269867
0.000274124
0.000270745
9.57358e-05
0.000170493
0.000211601
0.000239172
0.000258107
0.000269635
0.00027389
0.000270523
0.000101488
0.000182739
0.000227041
0.000256728
0.000277099
0.00028948
0.000294026
0.000290376
0.00010193
0.000183489
0.000228044
0.000257916
0.000278419
0.000290884
0.000295465
0.0002918
0.000102426
0.000184207
0.000228993
0.000259031
0.000279653
0.000292204
0.00029684
0.000293192
0.00010256
0.000184724
0.00022969
0.000259868
0.000280602
0.000293254
0.000297976
0.000294387
0.000102509
0.000184867
0.000229929
0.000260226
0.0002811
0.000293882
0.000298715
0.000295213
0.000102297
0.000184756
0.000229855
0.000260204
0.000281145
0.000294001
0.00029891
0.000295483
0.000102162
0.000184598
0.000229632
0.000259931
0.000280838
0.000293676
0.000298583
0.000295172
4.64177e-05
5.72566e-05
6.79326e-05
7.52704e-05
8.00507e-05
8.24333e-05
8.24004e-05
7.99086e-05
4.62618e-05
5.70835e-05
6.76469e-05
7.49392e-05
7.96833e-05
8.20536e-05
8.20311e-05
7.95707e-05
4.64266e-05
5.74665e-05
6.78861e-05
7.5047e-05
7.97476e-05
4.69489e-05
5.84243e-05
4.6846e-05
4.83898e-05
6.29549e-05
7.51135e-05
8.33611e-05
8.87786e-05
9.15664e-05
9.16773e-05
8.90414e-05
4.81856e-05
6.2699e-05
7.47658e-05
8.30084e-05
8.84105e-05
9.1199e-05
9.13355e-05
8.87441e-05
4.83972e-05
6.31987e-05
7.50731e-05
8.31889e-05
8.8494e-05
9.12861e-05
9.14799e-05
8.89576e-05
4.90643e-05
6.43773e-05
7.56522e-05
8.35856e-05
8.87023e-05
9.12775e-05
9.12984e-05
8.86551e-05
4.90005e-05
6.3844e-05
7.52545e-05
8.33548e-05
8.87376e-05
9.15666e-05
9.17717e-05
8.92413e-05
4.87188e-05
6.32568e-05
7.50238e-05
8.33352e-05
8.8885e-05
9.17841e-05
9.19875e-05
8.94185e-05
4.8788e-05
6.32916e-05
7.53043e-05
8.37427e-05
8.93626e-05
9.23333e-05
9.25863e-05
9.00326e-05
5.07098e-05
6.93301e-05
8.31242e-05
9.24186e-05
9.85174e-05
0.000101735
0.000102009
9.92369e-05
5.04537e-05
6.9018e-05
8.27118e-05
9.19992e-05
9.81244e-05
0.000101366
0.000101681
9.89643e-05
5.07074e-05
6.9633e-05
8.30891e-05
9.22338e-05
9.82203e-05
0.000101447
0.000101815
9.91684e-05
5.15179e-05
7.10173e-05
8.37948e-05
9.27036e-05
9.845e-05
0.000101473
0.000101695
9.89483e-05
5.15228e-05
7.05494e-05
8.33957e-05
9.24768e-05
9.84843e-05
0.000101729
0.000102108
9.94559e-05
5.11174e-05
6.97862e-05
8.30683e-05
9.23613e-05
9.8582e-05
0.000101922
0.000102304
9.96143e-05
5.11297e-05
6.97133e-05
8.3286e-05
9.2744e-05
9.90358e-05
0.000102433
0.000102849
0.000100165
5.33837e-05
7.6383e-05
9.1966e-05
0.000102403
0.000109248
0.000112936
0.000113399
0.000110501
5.30832e-05
7.59952e-05
9.15079e-05
0.00010192
0.000108825
0.000112554
0.000113068
0.000110235
5.33704e-05
7.67407e-05
9.19368e-05
0.00010215
0.000108909
0.000112613
0.000113171
0.000110406
5.43017e-05
7.81886e-05
9.27772e-05
0.000102658
0.000109144
0.000112655
0.00011309
0.000110244
5.44108e-05
7.79034e-05
9.23895e-05
0.000102519
0.00010919
0.000112872
0.000113433
0.000110661
5.38907e-05
7.69914e-05
9.19767e-05
0.000102309
0.000109233
0.000113031
0.000113603
0.000110798
5.38331e-05
7.6763e-05
9.20751e-05
0.000102607
0.000109639
0.000113491
0.000114086
0.000111279
5.64302e-05
8.40535e-05
0.000101623
0.000113274
0.000120962
0.000125177
0.000125857
0.000122848
5.61016e-05
8.36165e-05
0.000101128
0.000112765
0.000120515
0.000124771
0.000125508
0.000122569
5.64055e-05
8.44473e-05
0.000101574
0.000112968
0.000120571
0.00012479
0.000125559
0.00012268
5.7446e-05
8.5907e-05
0.000102437
0.000113472
0.000120783
0.000124825
0.000125488
0.000122543
5.76527e-05
8.58596e-05
0.000102232
0.000113419
0.000120838
0.000124994
0.000125749
0.000122861
5.70508e-05
8.48685e-05
0.000101717
0.00011314
0.000120829
0.000125109
0.000125885
0.00012297
5.69397e-05
8.44376e-05
0.000101649
0.000113335
0.000121166
0.000125504
0.000126297
0.000123376
5.98974e-05
9.23321e-05
0.000112035
0.00012504
0.000133681
0.000138476
0.000139408
0.000136302
5.9558e-05
9.19298e-05
0.000111537
0.000124524
0.000133203
0.000138038
0.000139025
0.00013599
5.98704e-05
9.27651e-05
0.000111965
0.000124685
0.000133215
0.000138
0.000139004
0.000136018
6.09923e-05
9.41717e-05
0.00011276
0.000125131
0.00013338
0.000138001
0.000138911
0.00013587
6.12991e-05
9.42202e-05
0.000112707
0.000125132
0.000133423
0.00013811
0.000139081
0.000136079
6.06325e-05
9.33255e-05
0.000112162
0.000124827
0.000133367
0.000138171
0.000139168
0.000136148
6.04697e-05
9.26988e-05
0.000111948
0.000124918
0.000133617
0.000138484
0.000139498
0.000136471
6.38873e-05
0.000101273
0.000123231
0.000137744
0.000147429
0.000152869
0.00015409
0.000150901
6.35404e-05
0.000100923
0.000122743
0.000137231
0.000146922
0.000152392
0.000153664
0.000150544
6.38398e-05
0.000101622
0.000123115
0.000137335
0.000146873
0.00015228
0.000153553
0.000150468
6.5047e-05
0.000102795
0.000123783
0.000137677
0.000146967
0.000152224
0.000153409
0.000150274
6.54587e-05
0.00010276
0.000123816
0.000137681
0.000146971
0.000152256
0.000153473
0.000150362
6.47274e-05
0.00010208
0.000123274
0.000137375
0.000146863
0.000152249
0.000153495
0.000150374
6.45225e-05
0.000101431
0.00012296
0.000137364
0.000147012
0.000152464
0.000153729
0.000150604
6.84844e-05
0.000110902
0.000135281
0.000151443
0.000162255
0.000168412
0.000169966
0.000166706
6.81376e-05
0.000110547
0.000134807
0.000150925
0.000161723
0.000167897
0.000169493
0.000166297
6.83782e-05
0.000111082
0.000135082
0.000150955
0.0001616
0.000167699
0.00016928
0.000166105
6.9618e-05
0.000111909
0.000135582
0.000151163
0.0001616
0.000167561
0.000169057
0.000165832
7.00972e-05
0.000111845
0.0001356
0.000151127
0.000161533
0.000167495
0.000169
0.000165786
6.93234e-05
0.000111318
0.000135106
0.000150811
0.000161366
0.000167405
0.000168937
0.00016572
6.91015e-05
0.000110753
0.000134735
0.000150706
0.000161403
0.000167507
0.000169059
0.000165842
7.34859e-05
0.000121193
0.000148236
0.000166186
0.000178237
0.000185193
0.000187127
0.000183809
7.31038e-05
0.000120841
0.000147782
0.000165665
0.000177685
0.000184646
0.000186614
0.00018335
7.329e-05
0.000121212
0.000147946
0.000165619
0.000177485
0.000184356
0.000186294
0.000183037
7.45107e-05
0.000121731
0.000148239
0.000165693
0.000177376
0.000184117
0.000185968
0.00018266
7.50495e-05
0.000121569
0.000148152
0.000165553
0.000177204
0.000183931
0.000185775
0.000182466
7.42318e-05
0.000121217
0.000147699
0.000165201
0.000176955
0.000183739
0.000185603
0.000182297
7.39956e-05
0.000120691
0.000147328
0.000165012
0.000176873
0.00018371
0.000185594
0.000182291
7.87875e-05
0.000132214
0.000162177
0.000182068
0.000195487
0.000203339
0.000205711
0.000202345
7.83615e-05
0.00013188
0.000161735
0.000181554
0.000194932
0.000202777
0.000205174
0.000201853
7.8529e-05
0.000132105
0.000161809
0.000181441
0.000194652
0.000202395
0.000204749
0.000201423
7.96948e-05
0.000132349
0.00016191
0.000181389
0.000194417
0.000202039
0.000204306
0.000200923
8.02349e-05
0.000132039
0.00016166
0.000181105
0.000194121
0.000201716
0.00020396
0.000200565
7.94141e-05
0.00013177
0.000161206
0.000180679
0.000193771
0.000201401
0.000203654
0.000200263
7.91322e-05
0.000131298
0.000160813
0.000180388
0.000193552
0.000201219
0.000203488
0.000200105
8.43662e-05
0.00014407
0.000177202
0.000199232
0.000214176
0.000223036
0.000225911
0.00022251
8.39435e-05
0.000143742
0.000176786
0.000198747
0.000213645
0.00022249
0.00022538
0.000222012
8.41061e-05
0.00014387
0.000176806
0.000198581
0.00021329
0.000222025
0.000224865
0.00022148
8.51546e-05
0.000143891
0.000176732
0.000198406
0.000212949
0.000221549
0.000224296
0.000220848
8.5651e-05
0.000143441
0.000176315
0.000197979
0.000212501
0.000221074
0.000223781
0.000220309
8.48138e-05
0.000143181
0.000175797
0.00019742
0.00021201
0.000220602
0.000223308
0.00021984
8.45426e-05
0.000142682
0.000175341
0.000197003
0.000211628
0.000220238
0.000222953
0.000219495
9.02868e-05
0.000156859
0.000193471
0.000217884
0.000234542
0.000244545
0.000247999
0.000244573
8.99088e-05
0.00015656
0.000193109
0.000217465
0.000234079
0.000244062
0.000247519
0.000244112
9.00641e-05
0.00015663
0.000193106
0.000217298
0.000233726
0.000243571
0.000246952
0.000243508
9.09744e-05
0.000156493
0.000192908
0.000217013
0.000233311
0.000242983
0.000246256
0.00024274
9.1382e-05
0.000155941
0.00019231
0.000216407
0.000232663
0.00024232
0.000245548
0.000242
9.05236e-05
0.000155605
0.000191675
0.000215669
0.000231941
0.000241626
0.000244857
0.000241319
9.02743e-05
0.000155031
0.000191113
0.000215088
0.000231354
0.000241036
0.000244267
0.00024074
9.66448e-05
0.000170747
0.000211222
0.000238316
0.000256917
0.000268224
0.000272342
0.000268898
9.63391e-05
0.000170518
0.00021096
0.00023802
0.000256585
0.000267866
0.000271977
0.000268537
9.64808e-05
0.000170553
0.000210956
0.000237936
0.000256323
0.00026741
0.000271404
0.0002679
9.72557e-05
0.000170312
0.000210671
0.00023757
0.000255829
0.000266728
0.000270592
0.000266997
9.75637e-05
0.000169654
0.000209898
0.000236711
0.000254932
0.000265816
0.000269648
0.000266025
9.6684e-05
0.000169162
0.000209089
0.000235735
0.000253909
0.000264842
0.000268679
0.000265072
9.64058e-05
0.000168518
0.000208367
0.000234934
0.000253057
0.000263961
0.000267786
0.000264192
0.000103563
0.000185985
0.000230797
0.000260939
0.000281761
0.000294558
0.000299433
0.000295968
0.000103358
0.000185882
0.000230701
0.000260837
0.000281636
0.000294409
0.000299267
0.000295788
0.000103484
0.000185918
0.000230743
0.000260831
0.000281432
0.000294004
0.000298732
0.000295164
0.000104092
0.000185619
0.000230397
0.000260398
0.000280846
0.000293225
0.000297795
0.000294123
0.00010428
0.000184846
0.000229427
0.000259275
0.000279694
0.000292041
0.000296577
0.000292875
0.000103402
0.000184145
0.000228384
0.000258024
0.000278359
0.000290718
0.000295251
0.00029157
0.000103057
0.000183366
0.000227426
0.000256923
0.000277156
0.000289452
0.000293956
0.000290288
4.79138e-05
4.83648e-05
6.02132e-05
4.89687e-05
6.1346e-05
7.31397e-05
8.13146e-05
8.66977e-05
4.96744e-05
6.27845e-05
7.50013e-05
8.34191e-05
8.89146e-05
9.17059e-05
9.18107e-05
8.91896e-05
5.06038e-05
6.45369e-05
7.71946e-05
8.58443e-05
9.14345e-05
9.42445e-05
9.43197e-05
9.16241e-05
4.89991e-05
6.36198e-05
7.5821e-05
8.43388e-05
9.00239e-05
9.30293e-05
9.32862e-05
9.07096e-05
4.93453e-05
6.42379e-05
7.66284e-05
8.5208e-05
9.0917e-05
9.39411e-05
9.42033e-05
9.16093e-05
4.99185e-05
6.50512e-05
7.75336e-05
8.62166e-05
9.20108e-05
9.50842e-05
9.53574e-05
9.27431e-05
5.03034e-05
6.58684e-05
7.86815e-05
8.75524e-05
9.34238e-05
9.65172e-05
9.67797e-05
9.41283e-05
5.0859e-05
6.69324e-05
8.00913e-05
8.91995e-05
9.51923e-05
9.83419e-05
9.86192e-05
9.59436e-05
5.14612e-05
6.82351e-05
8.18896e-05
9.12186e-05
9.73361e-05
0.000100517
0.000100774
9.8043e-05
5.23524e-05
6.99282e-05
8.40141e-05
9.3567e-05
9.97889e-05
0.000102996
0.00010323
0.000100435
5.1354e-05
7.00699e-05
8.37574e-05
9.33178e-05
9.96667e-05
0.000103088
0.0001035
0.00010079
5.16832e-05
7.06675e-05
8.4587e-05
9.41774e-05
0.000100524
0.000103942
0.00010435
0.000101619
5.22878e-05
7.15467e-05
8.54795e-05
9.51141e-05
0.000101528
0.00010499
0.000105408
0.000102659
5.25885e-05
7.21126e-05
8.64471e-05
9.6318e-05
0.000102828
0.000106321
0.000106737
0.00010396
5.3066e-05
7.30407e-05
8.77331e-05
9.78164e-05
0.000104462
0.000108028
0.000108467
0.000105678
5.35268e-05
7.41727e-05
8.9399e-05
9.9702e-05
0.000106492
0.000110101
0.000110533
0.000107703
5.43661e-05
7.58003e-05
9.14125e-05
0.000101933
0.00010884
0.000112482
0.000112901
0.000110022
5.40746e-05
7.70803e-05
9.2523e-05
0.000103149
0.000110218
0.000114087
0.000114673
0.000111838
5.43833e-05
7.76966e-05
9.32947e-05
0.000103949
0.000111005
0.000114859
0.000115432
0.000112572
5.50119e-05
7.85192e-05
9.40721e-05
0.000104802
0.000111902
0.000115786
0.000116366
0.000113489
5.52217e-05
7.88933e-05
9.48652e-05
0.000105821
0.00011305
0.000116983
0.00011757
0.000114676
5.55963e-05
7.96816e-05
9.60433e-05
0.000107167
0.000114528
0.000118539
0.000119161
0.000116266
5.58907e-05
8.06304e-05
9.75183e-05
0.000108886
0.000116413
0.000120482
0.000121111
0.000118192
5.66595e-05
8.21637e-05
9.9408e-05
0.000110974
0.000118618
0.000122733
0.000123363
0.00012041
5.7166e-05
8.47281e-05
0.000102086
0.00011382
0.000121676
0.000126024
0.000126804
0.000123854
5.74516e-05
8.5257e-05
0.000102713
0.000114516
0.000122362
0.000126692
0.000127451
0.000124472
5.80673e-05
8.59419e-05
0.000103362
0.000115244
0.000123124
0.000127477
0.00012824
0.000125244
5.82328e-05
8.61679e-05
0.000104
0.0001161
0.00012411
0.000128518
0.000129296
0.00012629
5.84755e-05
8.68532e-05
0.000105002
0.000117273
0.000125415
0.000129908
0.00013073
0.000127736
5.85885e-05
8.76288e-05
0.000106296
0.000118807
0.000127126
0.000131694
0.000132542
0.000129544
5.92612e-05
8.90209e-05
0.000108041
0.000120739
0.000129171
0.000133795
0.000134659
0.000131643
6.06839e-05
9.29543e-05
0.000112306
0.000125313
0.000134038
0.000138912
0.000139911
0.000136854
6.09463e-05
9.33578e-05
0.000112826
0.000125889
0.000134606
0.000139458
0.000140429
0.000137339
6.15167e-05
9.38936e-05
0.000113396
0.0001265
0.000135227
0.00014009
0.000141058
0.000137948
6.16765e-05
9.40699e-05
0.000113874
0.000127181
0.000136035
0.000140959
0.000141949
0.000138838
6.17602e-05
9.45676e-05
0.000114663
0.000128155
0.000137152
0.00014217
0.000143215
0.000140128
6.16809e-05
9.51788e-05
0.000115751
0.000129511
0.000138682
0.00014379
0.000144881
0.000141808
6.22309e-05
9.64254e-05
0.00011737
0.000131273
0.000140553
0.000145729
0.000146851
0.000143777
6.47454e-05
0.000101566
0.000123193
0.000137652
0.000147328
0.000152783
0.000154031
0.000150877
6.49612e-05
0.00010201
0.000123666
0.000138107
0.000147765
0.000153193
0.000154407
0.000151214
6.5479e-05
0.000102502
0.000124138
0.00013858
0.000148237
0.000153665
0.000154866
0.000151647
6.56602e-05
0.000102494
0.000124419
0.000139088
0.000148865
0.000154355
0.000155584
0.00015237
6.55742e-05
0.000102844
0.000125008
0.000139866
0.000149797
0.000155388
0.000156682
0.000153503
6.52774e-05
0.000103312
0.000125933
0.000141044
0.000151143
0.000156839
0.000158198
0.000155053
6.56742e-05
0.000104421
0.000127414
0.000142638
0.000152843
0.000158616
0.000160021
0.000156891
6.93469e-05
0.00011074
0.000134849
0.000150879
0.000161599
0.000167701
0.000169234
0.000165988
6.94553e-05
0.0001112
0.00013524
0.000151205
0.000161895
0.000167963
0.000169454
0.000166163
6.99433e-05
0.000111662
0.000135579
0.000151534
0.000162215
0.00016827
0.000169738
0.000166414
7.00896e-05
0.000111479
0.000135729
0.000151884
0.000162672
0.000168785
0.000170282
0.000166967
6.98345e-05
0.00011169
0.00013613
0.000152485
0.000163427
0.000169647
0.000171217
0.000167947
6.93159e-05
0.000112066
0.000136914
0.000153492
0.000164597
0.000170936
0.00017259
0.000169372
6.95141e-05
0.000113012
0.000138189
0.000154901
0.000166127
0.000172559
0.000174274
0.000171086
7.42703e-05
0.000120552
0.000147322
0.000165058
0.000176935
0.000183763
0.000185624
0.000182292
7.42738e-05
0.00012094
0.000147577
0.000165245
0.000177081
0.000183865
0.000185674
0.000182291
7.47519e-05
0.000121279
0.000147788
0.000165447
0.000177256
0.000184009
0.000185781
0.000182354
7.47977e-05
0.000121145
0.0001479
0.000165691
0.000177561
0.000184356
0.000186156
0.00018274
7.4429e-05
0.000121182
0.00014812
0.000166098
0.000178144
0.000185059
0.00018694
0.000183578
7.36782e-05
0.000121488
0.000148768
0.000166942
0.000179153
0.000186201
0.000188183
0.000184889
7.37056e-05
0.000122206
0.000149824
0.000168179
0.000180528
0.000187685
0.000189744
0.000186495
7.94312e-05
0.000131033
0.000160679
0.000180298
0.000193464
0.000201111
0.00020335
0.000199937
7.93689e-05
0.000131292
0.000160803
0.000180345
0.000193452
0.00020104
0.000203216
0.000199743
7.98685e-05
0.000131483
0.000160917
0.00018043
0.000193487
0.000201021
0.000203142
0.000199616
7.98037e-05
0.000131464
0.000160982
0.000180582
0.000193657
0.000201213
0.000203355
0.000199839
7.93216e-05
0.000131375
0.000161057
0.000180816
0.000194081
0.00020177
0.000204002
0.000200547
7.83835e-05
0.000131586
0.000161556
0.00018151
0.000194949
0.000202786
0.000205134
0.000201761
7.82737e-05
0.000132134
0.000162447
0.000182599
0.000196193
0.000204155
0.000206596
0.000203279
8.4826e-05
0.000142372
0.000175092
0.000196763
0.000211366
0.000219941
0.000222616
0.000219126
8.47626e-05
0.000142447
0.000175061
0.000196656
0.000211182
0.000219677
0.000222276
0.000218717
8.52261e-05
0.000142555
0.0001751
0.000196626
0.00021107
0.00021949
0.000222015
0.00021839
8.50854e-05
0.000142524
0.00017509
0.000196675
0.00021113
0.000219538
0.000222072
0.000218455
8.45121e-05
0.000142354
0.00017506
0.000196783
0.000211405
0.000219964
0.000222597
0.000219048
8.347e-05
0.0001425
0.000175447
0.000197355
0.000212161
0.00022088
0.000223639
0.000220182
8.32527e-05
0.000142948
0.000176203
0.000198324
0.000213304
0.000222164
0.000225031
0.00022164
9.056e-05
0.00015465
0.000190726
0.000214669
0.000230883
0.000240508
0.000243686
0.000240123
9.04927e-05
0.000154513
0.000190519
0.00021438
0.000230497
0.000240021
0.000243106
0.000239465
9.08738e-05
0.000154547
0.000190453
0.000214232
0.000230235
0.000239651
0.000242641
0.000238922
9.06886e-05
0.00015451
0.000190407
0.000214201
0.000230178
0.000239558
0.000242543
0.000238825
9.00585e-05
0.000154253
0.000190288
0.000214187
0.000230325
0.000239867
0.000242959
0.000239314
8.89777e-05
0.000154386
0.00019059
0.000214671
0.000231004
0.000240712
0.000243935
0.000240387
8.86933e-05
0.000154774
0.000191252
0.000215559
0.000232083
0.000241947
0.000245289
0.000241815
9.66262e-05
0.000168026
0.000207801
0.000234286
0.000252319
0.000263138
0.000266895
0.00026326
9.65974e-05
0.000167672
0.000207396
0.000233779
0.000251686
0.000262377
0.00026602
0.000262298
9.68507e-05
0.000167624
0.000207216
0.000233483
0.000251235
0.000261791
0.000265317
0.000261504
9.66467e-05
0.000167597
0.000207132
0.000233375
0.000251057
0.000261552
0.000265055
0.000261234
9.6055e-05
0.000167284
0.00020695
0.000233294
0.000251117
0.00026176
0.00026537
0.000261623
9.49605e-05
0.000167399
0.000207184
0.000233693
0.000251739
0.000262558
0.000266302
0.000262652
9.46643e-05
0.000167756
0.000207804
0.000234544
0.000252796
0.000263783
0.000267654
0.000264084
0.000103128
0.000182723
0.000226622
0.000255969
0.000276062
0.000288237
0.000292652
0.000288941
0.000103154
0.00018217
0.000225976
0.000255179
0.000275105
0.000287118
0.000291396
0.000287588
0.000103264
0.000181974
0.00022563
0.000254673
0.000274416
0.00028626
0.000290397
0.000286485
0.000103039
0.000181915
0.00022549
0.000254467
0.00027411
0.00028586
0.000289948
0.000286013
0.00010258
0.000181604
0.000225276
0.000254353
0.000274117
0.000285988
0.000290165
0.000286298
0.000101501
0.000181727
0.00022548
0.000254705
0.000274679
0.000286744
0.000291067
0.0002873
0.000101254
0.000182099
0.000226112
0.000255572
0.000275761
0.000288004
0.000292462
0.000288777
5.21713e-05
6.78962e-05
8.09686e-05
8.97153e-05
9.52477e-05
9.79172e-05
9.78034e-05
9.48853e-05
5.11889e-05
6.60136e-05
7.85409e-05
8.69426e-05
9.22272e-05
9.47183e-05
9.44998e-05
9.15676e-05
5.01858e-05
6.41079e-05
7.60334e-05
8.40807e-05
8.91577e-05
9.15187e-05
9.12458e-05
8.83437e-05
4.9247e-05
6.22807e-05
7.36707e-05
8.13925e-05
8.62309e-05
8.84177e-05
8.80405e-05
8.51276e-05
4.81837e-05
6.02958e-05
7.14955e-05
7.91062e-05
8.39101e-05
8.61417e-05
8.58638e-05
8.30772e-05
4.73811e-05
5.88642e-05
6.97879e-05
7.72583e-05
8.20104e-05
8.42416e-05
8.40003e-05
8.12837e-05
4.67612e-05
5.78012e-05
6.8579e-05
7.59963e-05
8.078e-05
8.30992e-05
8.29752e-05
8.03844e-05
5.40657e-05
7.33732e-05
8.79557e-05
9.76591e-05
0.00010385
0.000106931
0.000106986
0.000103973
5.31428e-05
7.15681e-05
8.56079e-05
9.49751e-05
0.00010093
0.000103839
0.000103787
0.000100746
5.22043e-05
6.97529e-05
8.32037e-05
9.21908e-05
9.79294e-05
0.000100704
0.000100585
9.75545e-05
5.13159e-05
6.79725e-05
8.08739e-05
8.95412e-05
9.50552e-05
9.76663e-05
9.7446e-05
9.43947e-05
5.02655e-05
6.60326e-05
7.86981e-05
8.72579e-05
9.27242e-05
9.53545e-05
9.52061e-05
9.22601e-05
4.94431e-05
6.46029e-05
7.69928e-05
8.54049e-05
9.08154e-05
9.34463e-05
9.3336e-05
9.04605e-05
4.87804e-05
6.35296e-05
7.57622e-05
8.41083e-05
8.95417e-05
9.22586e-05
9.2266e-05
8.95189e-05
5.61806e-05
7.9275e-05
9.54723e-05
0.000106207
0.000113112
0.00011665
0.000116906
0.000113818
5.534e-05
7.76038e-05
9.32729e-05
0.000103676
0.000110354
0.000113723
0.000113867
0.000110737
5.44935e-05
7.59424e-05
9.10241e-05
0.000101028
0.00010749
0.000110719
0.000110784
0.000107642
5.3685e-05
7.42571e-05
8.87995e-05
9.84955e-05
0.000104737
0.000107809
0.000107773
0.0001046
5.26902e-05
7.24058e-05
8.66711e-05
9.62618e-05
0.000102449
0.000105523
0.000105535
0.000102445
5.18548e-05
7.10092e-05
8.5006e-05
9.4452e-05
0.000100578
0.00010365
0.0001037
0.000100679
5.11564e-05
6.99333e-05
8.37897e-05
9.31672e-05
9.92971e-05
0.000102445