/*--------------------------------*- C++ -*----------------------------------*\
| =========                 |                                                 |
| \\      /  F ield         | OpenFOAM: The Open Source CFD Toolbox           |
|  \\    /   O peration     | Version:  plus.master.MPPICInterFoam            |
|   \\  /    A nd           | Web:      www.OpenFOAM.com                      |
|    \\/     M anipulation  |                                                 |
\*---------------------------------------------------------------------------*/
FoamFile
{
    version     2.0;
    format      ascii;
    class       scalarField;
    location    "5.2/lagrangian/kinematicCloud";
    object      age;
}
// * * * * * * * * * * * * * * * * * * * * * * * * * * * * * * * * * * * * * //


22
(
4.68009
4.69167
5.10797
5.20102
5.17658
5.17696
4.84295
4.72734
5.19395
5.06567
4.56
4.82419
4.31694
4.72863
4.89533
5.19153
4.8339
4.49193
5.17822
5.13711
4.87413
4.91009
)


// ************************************************************************* //
