/*--------------------------------*- C++ -*----------------------------------*\
| =========                 |                                                 |
| \\      /  F ield         | OpenFOAM: The Open Source CFD Toolbox           |
|  \\    /   O peration     | Version:  plus.master.MPPICInterFoam            |
|   \\  /    A nd           | Web:      www.OpenFOAM.com                      |
|    \\/     M anipulation  |                                                 |
\*---------------------------------------------------------------------------*/
FoamFile
{
    version     2.0;
    format      ascii;
    class       vectorField;
    location    "5.2/lagrangian/kinematicCloud";
    object      UCorrect;
}
// * * * * * * * * * * * * * * * * * * * * * * * * * * * * * * * * * * * * * //


22
(
(-9.20993e-13 2.31536e-06 -6.15357e-06)
(-9.20993e-13 -0.000109844 -1.83945e-05)
(-1.73213e-13 -9.22143e-08 -1.61253e-07)
(-2.02879e-18 8.78205e-19 -1.70552e-20)
(-5.62589e-11 0.00401562 7.84171e-12)
(-5.62589e-11 0.00515991 7.84171e-12)
(-5.62589e-11 0.00373246 7.84171e-12)
(-5.62589e-11 0.00294406 7.84171e-12)
(1.77369e-15 -8.85944e-19 4.13937e-13)
(-8.41963e-19 -5.77685e-15 -2.44142e-12)
(-4.37378e-19 -1.13823e-15 3.1908e-15)
(1.71609e-05 1.45565e-11 0.000335809)
(-1.27144e-09 9.51771e-11 3.8353e-07)
(-5.51656e-05 -0.000753381 0.000205737)
(1.91864e-05 1.60215e-11 3.14568e-08)
(-0.00172032 0.000134937 4.39554e-09)
(-6.49092e-05 -0.000875973 -3.80574e-07)
(-0.00110605 7.5966e-05 4.39554e-09)
(8.90679e-10 3.9405e-09 -4.31698e-07)
(-3.1199e-09 -1.34437e-08 3.96807e-07)
(6.464e-12 0.00103992 -1.23394e-08)
(6.464e-12 0.000993968 -1.23394e-08)
)


// ************************************************************************* //
