/*--------------------------------*- C++ -*----------------------------------*\
| =========                 |                                                 |
| \\      /  F ield         | OpenFOAM: The Open Source CFD Toolbox           |
|  \\    /   O peration     | Version:  plus.master.MPPICInterFoam            |
|   \\  /    A nd           | Web:      www.OpenFOAM.com                      |
|    \\/     M anipulation  |                                                 |
\*---------------------------------------------------------------------------*/
FoamFile
{
    version     2.0;
    format      ascii;
    class       scalarField;
    location    "6/lagrangian/kinematicCloud";
    object      d;
}
// * * * * * * * * * * * * * * * * * * * * * * * * * * * * * * * * * * * * * //


49
(
0.0005982
0.000524072
0.000537933
0.000583548
0.000514237
0.00056241
0.000543029
0.000516374
0.00052073
0.000634917
0.000520153
0.000477691
0.000493274
0.00053391
0.00057193
0.00055691
0.000567671
0.000581622
0.000543786
0.000548291
0.000525529
0.000540958
0.000543659
0.000552668
0.000488346
0.000560065
0.000532361
0.000568397
0.000600509
0.000564914
0.000570112
0.000561906
0.00051036
0.000511321
0.000520051
0.000546782
0.000571198
0.000570217
0.000502559
0.000554629
0.000577708
0.000567314
0.000548693
0.000589449
0.000588145
0.000506874
0.000589207
0.000523275
0.000541301
)


// ************************************************************************* //
