/*--------------------------------*- C++ -*----------------------------------*\
| =========                 |                                                 |
| \\      /  F ield         | OpenFOAM: The Open Source CFD Toolbox           |
|  \\    /   O peration     | Version:  plus.master.MPPICInterFoam            |
|   \\  /    A nd           | Web:      www.OpenFOAM.com                      |
|    \\/     M anipulation  |                                                 |
\*---------------------------------------------------------------------------*/
FoamFile
{
    version     2.0;
    format      ascii;
    class       labelField;
    location    "6/lagrangian/kinematicCloud";
    object      origId;
}
// * * * * * * * * * * * * * * * * * * * * * * * * * * * * * * * * * * * * * //


49
(
3506
64465
359
1188
3645
88832
2603
2913
54231
42429
91283
3432
14074
66314
51783
37893
39158
76063
76956
55581
30933
32561
88500
76759
77181
83080
49822
51251
26984
67956
24468
72678
31164
36385
2765
5529
2041
40678
56392
35511
75303
75144
10170
60138
1921
79693
86696
86998
44248
)


// ************************************************************************* //
