/*--------------------------------*- C++ -*----------------------------------*\
| =========                 |                                                 |
| \\      /  F ield         | OpenFOAM: The Open Source CFD Toolbox           |
|  \\    /   O peration     | Version:  plus.master.MPPICInterFoam            |
|   \\  /    A nd           | Web:      www.OpenFOAM.com                      |
|    \\/     M anipulation  |                                                 |
\*---------------------------------------------------------------------------*/
FoamFile
{
    version     2.0;
    format      ascii;
    class       vectorField;
    location    "6/lagrangian/kinematicCloud";
    object      UCorrect;
}
// * * * * * * * * * * * * * * * * * * * * * * * * * * * * * * * * * * * * * //


49
(
(9.01294e-17 -4.36631e-18 5.24626e-16)
(6.12433e-11 -3.38542e-12 4.69479e-10)
(-8.01525e-06 -4.1331e-06 6.96471e-05)
(-9.92993e-21 -6.29789e-20 -3.6584e-19)
(-8.01525e-06 -4.1331e-06 9.79158e-06)
(9.05045e-11 2.15021e-11 -1.18095e-07)
(4.77276e-15 -3.45875e-15 2.62225e-12)
(-5.65344e-14 -4.85964e-15 9.4259e-13)
(-3.05549e-08 -9.07764e-13 1.25917e-06)
(-4.9434e-05 4.40123e-07 -3.18946e-05)
(1.83823e-17 2.74206e-16 -1.47804e-13)
(-1.00881e-20 -6.29633e-20 1.21947e-19)
(-4.70118e-08 -5.46855e-09 2.30383e-13)
(-5.63603e-05 -1.95618e-09 -5.79121e-07)
(0.00303126 -1.95618e-09 -0.000534479)
(4.67636e-08 3.58583e-09 -3.64341e-11)
(0.00330681 -1.95618e-09 -0.000534479)
(1.33457e-07 1.73648e-06 -1.77738e-06)
(2.86476e-06 8.95329e-11 -5.14524e-06)
(-2.47448e-10 5.50116e-11 4.35636e-06)
(-2.7163e-09 -6.11296e-09 1.25586e-06)
(-0.00277336 0.00118628 1.43486e-06)
(-0.00281589 0.00118628 1.43486e-06)
(9.50927e-05 5.97299e-06 1.61943e-09)
(0.000108738 -4.10204e-06 -1.65555e-06)
(-8.73853e-18 1.18767e-18 2.12613e-19)
(-0.000110313 0.00118628 4.85436e-07)
(3.09656e-06 1.75162e-05 2.92846e-07)
(1.34161e-17 1.04696e-16 -1.16306e-16)
(-0.00285396 -5.06168e-10 -0.000583271)
(-0.00343514 -5.06168e-10 -0.000583271)
(-1.30565e-06 1.50523e-05 9.41977e-08)
(3.92084e-05 1.75514e-06 5.63776e-05)
(-0.00349223 -5.06168e-10 -0.000583271)
(5.08508e-05 2.57768e-06 3.05058e-11)
(3.91151e-05 7.83301e-07 5.63776e-05)
(-0.00016272 -1.89646e-07 0.000117974)
(0.00274398 -1.89646e-07 0.000491787)
(0.00287336 -1.89646e-07 0.000491787)
(-1.03598e-09 -1.23268e-10 1.18513e-11)
(-1.43854e-09 -1.14596e-10 -1.1354e-06)
(-9.9481e-10 1.01405e-10 -9.65159e-08)
(-5.41789e-21 1.19315e-18 1.21323e-18)
(-5.96279e-07 -8.05939e-10 2.54943e-07)
(2.64027e-05 5.36412e-06 -2.99265e-07)
(-0.000144737 0.000273683 -0.000128364)
(-7.59037e-05 0.000273683 -0.000128364)
(8.39093e-05 -9.24749e-08 0.000144585)
(1.78375e-05 -9.24749e-08 0.000144585)
)


// ************************************************************************* //
