/*--------------------------------*- C++ -*----------------------------------*\
| =========                 |                                                 |
| \\      /  F ield         | OpenFOAM: The Open Source CFD Toolbox           |
|  \\    /   O peration     | Version:  plus.master.MPPICInterFoam            |
|   \\  /    A nd           | Web:      www.OpenFOAM.com                      |
|    \\/     M anipulation  |                                                 |
\*---------------------------------------------------------------------------*/
FoamFile
{
    version     2.0;
    format      ascii;
    class       volScalarField;
    location    "11.4";
    object      nut;
}
// * * * * * * * * * * * * * * * * * * * * * * * * * * * * * * * * * * * * * //

dimensions      [0 2 -1 0 0 0 0];

internalField   nonuniform List<scalar> 
11821
(
4.19369e-06
1.59914e-05
2.90085e-05
3.71252e-05
4.13389e-05
4.28246e-05
4.22455e-05
3.98959e-05
4.24129e-06
1.65099e-05
2.9789e-05
3.80378e-05
4.23229e-05
4.3833e-05
4.32363e-05
4.08261e-05
4.28525e-06
1.69963e-05
3.04535e-05
3.87769e-05
4.31027e-05
4.4645e-05
4.40427e-05
4.15881e-05
4.29971e-06
1.72196e-05
3.0848e-05
3.92318e-05
4.35835e-05
4.51123e-05
4.44874e-05
4.19972e-05
4.29692e-06
1.7255e-05
3.093e-05
3.93274e-05
4.36583e-05
4.5163e-05
4.45187e-05
4.20132e-05
4.27741e-06
1.71324e-05
3.07177e-05
3.90424e-05
4.33174e-05
4.47864e-05
4.41281e-05
4.16302e-05
4.24397e-06
1.68738e-05
3.02639e-05
3.84442e-05
4.26176e-05
4.40252e-05
4.33444e-05
4.08645e-05
4.26031e-06
1.73068e-05
3.10617e-05
3.95746e-05
4.40233e-05
4.56205e-05
4.50381e-05
4.25683e-05
4.31244e-06
1.78448e-05
3.18694e-05
4.05305e-05
4.50659e-05
4.66966e-05
4.61018e-05
4.35738e-05
4.36315e-06
1.83603e-05
3.25409e-05
4.12908e-05
4.5902e-05
4.75702e-05
4.69719e-05
4.44002e-05
4.37658e-06
1.85756e-05
3.29665e-05
4.17843e-05
4.64083e-05
4.80728e-05
4.74577e-05
4.48519e-05
4.3732e-06
1.8598e-05
3.30461e-05
4.18912e-05
4.6498e-05
4.81405e-05
4.75069e-05
4.48857e-05
4.35355e-06
1.84694e-05
3.28304e-05
4.16033e-05
4.61535e-05
4.77597e-05
4.71114e-05
4.44972e-05
4.31964e-06
1.82e-05
3.23621e-05
4.09852e-05
4.54293e-05
4.69712e-05
4.62987e-05
4.37015e-05
4.33774e-06
1.87065e-05
3.32572e-05
4.22227e-05
4.69472e-05
4.86815e-05
4.81097e-05
4.55241e-05
4.39384e-06
1.92504e-05
3.4071e-05
4.31962e-05
4.80184e-05
4.97935e-05
4.92143e-05
4.65741e-05
4.45096e-06
1.97754e-05
3.47206e-05
4.39808e-05
4.89059e-05
5.07069e-05
5.01209e-05
4.74375e-05
4.4624e-06
1.99776e-05
3.51795e-05
4.44951e-05
4.94184e-05
5.12309e-05
5.0635e-05
4.79204e-05
4.4582e-06
1.99923e-05
3.52538e-05
4.45926e-05
4.95091e-05
5.13112e-05
5.07018e-05
4.79731e-05
4.43851e-06
1.98627e-05
3.50426e-05
4.4311e-05
4.91716e-05
5.09381e-05
5.03141e-05
4.75917e-05
4.4045e-06
1.95936e-05
3.45782e-05
4.36946e-05
4.84462e-05
5.01461e-05
4.94961e-05
4.67886e-05
4.42553e-06
2.01729e-05
3.55684e-05
4.50358e-05
5.00719e-05
5.19671e-05
5.14203e-05
4.87265e-05
4.48477e-06
2.07052e-05
3.63681e-05
4.60027e-05
5.1143e-05
5.30837e-05
5.25336e-05
4.97899e-05
4.54685e-06
2.12059e-05
3.70194e-05
4.68198e-05
5.2046e-05
5.40064e-05
5.34479e-05
5.06622e-05
4.55622e-06
2.14045e-05
3.74624e-05
4.73135e-05
5.25594e-05
5.45407e-05
5.39777e-05
5.1164e-05
4.55123e-06
2.14188e-05
3.7526e-05
4.73954e-05
5.26508e-05
5.46322e-05
5.4061e-05
5.12359e-05
4.53159e-06
2.12932e-05
3.73245e-05
4.71282e-05
5.23296e-05
5.42774e-05
5.36926e-05
5.08733e-05
4.49785e-06
2.1034e-05
3.68806e-05
4.65331e-05
5.16241e-05
5.3504e-05
5.28915e-05
5.00842e-05
4.52353e-06
2.16906e-05
3.79713e-05
4.79808e-05
5.33608e-05
5.54388e-05
5.49319e-05
5.21396e-05
4.58498e-06
2.21913e-05
3.87387e-05
4.89235e-05
5.44063e-05
5.65309e-05
5.60234e-05
5.31864e-05
4.64993e-06
2.26453e-05
3.94042e-05
4.97272e-05
5.5285e-05
5.74343e-05
5.69183e-05
5.40413e-05
4.6582e-06
2.28446e-05
3.97869e-05
5.01989e-05
5.57957e-05
5.79672e-05
5.74504e-05
5.45489e-05
4.65238e-06
2.28618e-05
3.98465e-05
5.02789e-05
5.58926e-05
5.80689e-05
5.7549e-05
5.46392e-05
4.63284e-06
2.27457e-05
3.96595e-05
5.00281e-05
5.55941e-05
5.77412e-05
5.721e-05
5.43062e-05
4.59969e-06
2.25053e-05
3.92454e-05
4.94696e-05
5.49267e-05
5.7006e-05
5.64458e-05
5.35508e-05
4.6323e-06
2.32462e-05
4.04487e-05
5.10334e-05
5.67839e-05
5.90634e-05
5.86099e-05
5.57296e-05
4.6953e-06
2.36971e-05
4.11644e-05
5.19337e-05
5.77811e-05
6.01053e-05
5.96526e-05
5.67327e-05
4.76225e-06
2.41129e-05
4.17726e-05
5.26811e-05
5.86128e-05
6.09649e-05
6.05046e-05
5.75468e-05
4.77002e-06
2.42887e-05
4.21363e-05
5.31448e-05
5.91125e-05
6.14856e-05
6.10261e-05
5.80473e-05
4.7632e-06
2.43124e-05
4.22072e-05
5.32281e-05
5.92135e-05
6.15959e-05
6.11381e-05
5.81545e-05
4.74353e-06
2.42106e-05
4.20354e-05
5.29974e-05
5.89435e-05
6.13025e-05
6.08368e-05
5.786e-05
4.71112e-06
2.3997e-05
4.16599e-05
5.24835e-05
5.83272e-05
6.06217e-05
6.01272e-05
5.71563e-05
4.7537e-06
2.48247e-05
4.29876e-05
5.41837e-05
6.03206e-05
6.2814e-05
6.24246e-05
5.94657e-05
4.81803e-06
2.52141e-05
4.36313e-05
5.50122e-05
6.12454e-05
6.37829e-05
6.33957e-05
6.04022e-05
4.8849e-06
2.55675e-05
4.41729e-05
5.57064e-05
6.20156e-05
6.45804e-05
6.41858e-05
6.11565e-05
4.89223e-06
2.57397e-05
4.45158e-05
5.61324e-05
6.2487e-05
6.50758e-05
6.46848e-05
6.1638e-05
4.88467e-06
2.57714e-05
4.46054e-05
5.6226e-05
6.25954e-05
6.51949e-05
6.48086e-05
6.17601e-05
4.86601e-06
2.56872e-05
4.44554e-05
5.6025e-05
6.23616e-05
6.49427e-05
6.45518e-05
6.15113e-05
4.835e-06
2.55052e-05
4.41232e-05
5.55647e-05
6.18084e-05
6.43296e-05
6.39111e-05
6.08744e-05
4.89007e-06
2.64232e-05
4.55783e-05
5.74239e-05
6.3956e-05
6.66701e-05
6.6352e-05
6.33217e-05
4.9506e-06
2.67538e-05
4.61438e-05
5.81526e-05
6.47866e-05
6.75475e-05
6.7234e-05
6.41738e-05
5.01242e-06
2.70393e-05
4.66208e-05
5.8776e-05
6.54818e-05
6.82689e-05
6.79484e-05
6.48548e-05
5.01969e-06
2.72173e-05
4.69359e-05
5.91596e-05
6.59154e-05
6.87292e-05
6.84148e-05
6.53074e-05
5.01167e-06
2.72555e-05
4.70357e-05
5.92664e-05
6.60329e-05
6.88569e-05
6.85491e-05
6.54424e-05
4.99463e-06
2.71876e-05
4.69209e-05
5.91049e-05
6.58414e-05
6.8651e-05
6.83415e-05
6.52439e-05
4.96756e-06
2.70391e-05
4.66383e-05
5.87085e-05
6.53604e-05
6.81156e-05
6.77807e-05
6.46855e-05
5.03524e-06
2.8052e-05
4.82379e-05
6.07323e-05
6.76692e-05
7.06141e-05
7.03741e-05
6.7278e-05
5.09019e-06
2.83314e-05
4.87163e-05
6.13586e-05
6.83995e-05
7.13897e-05
7.11555e-05
6.80339e-05
5.14588e-06
2.85544e-05
4.91172e-05
6.18947e-05
6.90083e-05
7.20256e-05
7.17859e-05
6.86337e-05
5.15298e-06
2.8729e-05
4.94133e-05
6.22469e-05
6.94034e-05
7.24457e-05
7.22132e-05
6.90504e-05
5.14516e-06
2.8775e-05
4.95101e-05
6.23615e-05
6.95286e-05
7.25813e-05
7.23566e-05
6.91962e-05
5.12975e-06
2.87257e-05
4.94299e-05
6.22405e-05
6.93822e-05
7.24244e-05
7.22008e-05
6.90505e-05
5.10701e-06
2.86104e-05
4.92045e-05
6.19144e-05
6.89795e-05
7.19731e-05
7.17268e-05
6.8578e-05
5.18928e-06
2.97284e-05
5.09596e-05
6.40996e-05
7.14582e-05
7.46379e-05
7.44805e-05
7.1323e-05
5.23797e-06
2.99575e-05
5.13599e-05
6.46381e-05
7.20852e-05
7.53072e-05
7.51564e-05
7.19774e-05
5.28747e-06
3.01271e-05
5.16886e-05
6.50915e-05
7.26078e-05
7.58554e-05
7.57001e-05
7.24934e-05
5.29405e-06
3.02894e-05
5.19532e-05
6.54039e-05
7.29591e-05
7.62313e-05
7.60845e-05
7.28704e-05
5.287e-06
3.03404e-05
5.20492e-05
6.55235e-05
7.30903e-05
7.63737e-05
7.62356e-05
7.30252e-05
5.27329e-06
3.03094e-05
5.19973e-05
6.54414e-05
7.29892e-05
7.62662e-05
7.61318e-05
7.29323e-05
5.25494e-06
3.02279e-05
5.18271e-05
6.51849e-05
7.26664e-05
7.59013e-05
7.57473e-05
7.25489e-05
5.35366e-06
3.14612e-05
5.3752e-05
6.75483e-05
7.53233e-05
7.87402e-05
7.86695e-05
7.5455e-05
5.39572e-06
3.16395e-05
5.40782e-05
6.79953e-05
7.58486e-05
7.93039e-05
7.92403e-05
7.6008e-05
5.43939e-06
3.17743e-05
5.43401e-05
6.83724e-05
7.62871e-05
7.97664e-05
7.96993e-05
7.64426e-05
5.44543e-06
3.19092e-05
5.45638e-05
6.86442e-05
7.65935e-05
8.00969e-05
8.00398e-05
7.67788e-05
5.43923e-06
3.19633e-05
5.46621e-05
6.87619e-05
7.67285e-05
8.02445e-05
8.0197e-05
7.69409e-05
5.42727e-06
3.19487e-05
5.46368e-05
6.87169e-05
7.66709e-05
8.01846e-05
8.01432e-05
7.68984e-05
5.41314e-06
3.18981e-05
5.45191e-05
6.85278e-05
7.6426e-05
7.99045e-05
7.9847e-05
7.66032e-05
5.53e-06
3.32496e-05
5.66125e-05
7.10723e-05
7.92661e-05
8.29247e-05
8.29471e-05
7.96819e-05
5.5655e-06
3.33777e-05
5.68677e-05
7.14336e-05
7.96951e-05
8.3388e-05
8.34179e-05
8.01386e-05
5.60388e-06
3.34882e-05
5.70831e-05
7.17422e-05
8.00555e-05
8.37698e-05
8.37973e-05
8.04973e-05
5.60914e-06
3.35976e-05
5.72719e-05
7.19735e-05
8.03152e-05
8.40555e-05
8.40951e-05
8.07939e-05
5.60386e-06
3.36526e-05
5.73642e-05
7.20908e-05
8.04561e-05
8.42075e-05
8.42568e-05
8.09615e-05
5.59359e-06
3.36522e-05
5.73614e-05
7.20776e-05
8.04376e-05
8.41912e-05
8.42488e-05
8.09653e-05
5.58329e-06
3.36282e-05
5.72894e-05
7.19495e-05
8.02651e-05
8.39907e-05
8.40359e-05
8.07536e-05
5.71972e-06
3.50881e-05
5.95436e-05
7.46757e-05
8.32923e-05
8.72003e-05
8.73263e-05
8.40205e-05
5.74902e-06
3.51793e-05
5.97406e-05
7.49608e-05
8.36345e-05
8.75721e-05
8.77054e-05
8.4389e-05
5.78178e-06
3.52631e-05
5.99186e-05
7.52088e-05
8.3925e-05
8.78806e-05
8.80127e-05
8.46799e-05
5.78687e-06
3.53615e-05
6.00778e-05
7.53985e-05
8.41485e-05
8.81269e-05
8.82709e-05
8.49397e-05
5.78261e-06
3.5415e-05
6.01658e-05
7.552e-05
8.42857e-05
8.82784e-05
8.84345e-05
8.51107e-05
5.774e-06
3.5427e-05
6.01776e-05
7.55315e-05
8.42995e-05
8.82993e-05
8.84661e-05
8.51548e-05
5.76692e-06
3.54241e-05
6.01427e-05
7.54555e-05
8.41906e-05
8.81701e-05
8.83286e-05
8.50189e-05
5.9239e-06
3.69885e-05
6.25567e-05
7.83649e-05
8.74115e-05
9.15808e-05
9.18257e-05
8.84942e-05
5.94764e-06
3.70533e-05
6.27053e-05
7.85836e-05
8.76766e-05
9.18707e-05
9.21228e-05
8.87846e-05
5.97502e-06
3.71156e-05
6.28467e-05
7.87781e-05
8.79046e-05
9.21144e-05
9.23669e-05
8.90172e-05
5.9803e-06
3.72034e-05
6.29768e-05
7.89458e-05
8.81026e-05
9.23261e-05
9.25895e-05
8.92436e-05
5.9772e-06
3.72579e-05
6.30635e-05
7.90528e-05
8.82264e-05
9.24724e-05
9.27512e-05
8.94154e-05
5.97007e-06
3.72781e-05
6.30883e-05
7.90835e-05
8.82649e-05
9.25226e-05
9.2815e-05
8.94925e-05
5.96541e-06
3.72898e-05
6.30812e-05
7.90493e-05
8.82092e-05
9.24543e-05
9.27426e-05
8.94225e-05
3.9474e-06
1.3967e-05
2.54952e-05
3.2578e-05
3.60998e-05
3.72082e-05
3.65529e-05
3.44275e-05
3.94124e-06
1.40322e-05
2.55313e-05
3.2535e-05
3.5985e-05
3.70416e-05
3.63525e-05
3.42097e-05
3.94054e-06
1.40204e-05
2.55214e-05
3.25228e-05
3.59776e-05
3.94562e-06
1.42532e-05
3.94651e-06
4.00679e-06
1.51329e-05
2.72944e-05
3.46671e-05
3.83459e-05
3.95192e-05
3.88394e-05
3.65929e-05
4.00027e-06
1.516e-05
2.72851e-05
3.45946e-05
3.82233e-05
3.93648e-05
3.86684e-05
3.64172e-05
3.99943e-06
1.5146e-05
2.72629e-05
3.45714e-05
3.82107e-05
3.93703e-05
3.86942e-05
3.64644e-05
4.00637e-06
1.53229e-05
2.74285e-05
3.46486e-05
3.81955e-05
3.92649e-05
3.85064e-05
3.62068e-05
4.00554e-06
1.5147e-05
2.72556e-05
3.4569e-05
3.82106e-05
3.93697e-05
3.86937e-05
3.6463e-05
4.00813e-06
1.51031e-05
2.72293e-05
3.45752e-05
3.8241e-05
3.94125e-05
3.87375e-05
3.64992e-05
4.01507e-06
1.50292e-05
2.71805e-05
3.46076e-05
3.83534e-05
3.95874e-05
3.89556e-05
3.67415e-05
4.08147e-06
1.64827e-05
2.93852e-05
3.71362e-05
4.10358e-05
4.23119e-05
4.16224e-05
3.92477e-05
4.07401e-06
1.64774e-05
2.93392e-05
3.70422e-05
4.09126e-05
4.21759e-05
4.14853e-05
3.9117e-05
4.0737e-06
1.64692e-05
2.93136e-05
3.7015e-05
4.09053e-05
4.21951e-05
4.1533e-05
3.91912e-05
4.08312e-06
1.6613e-05
2.94307e-05
3.70646e-05
4.08962e-05
4.21261e-05
4.14041e-05
3.9009e-05
4.08142e-06
1.64619e-05
2.92907e-05
3.7013e-05
4.09163e-05
4.22134e-05
4.15538e-05
3.92107e-05
4.08262e-06
1.6429e-05
2.92878e-05
3.70353e-05
4.09499e-05
4.22481e-05
4.15809e-05
3.92245e-05
4.08996e-06
1.63935e-05
2.92807e-05
3.70941e-05
4.10713e-05
4.24167e-05
4.17805e-05
3.94395e-05
4.17231e-06
1.79995e-05
3.17406e-05
3.99531e-05
4.41334e-05
4.55471e-05
4.48616e-05
4.23543e-05
4.1632e-06
1.79654e-05
3.16637e-05
3.98427e-05
4.40134e-05
4.54312e-05
4.47583e-05
4.22673e-05
4.16415e-06
1.79667e-05
3.16358e-05
3.98112e-05
4.4013e-05
4.54664e-05
4.48284e-05
4.23678e-05
4.17695e-06
1.80911e-05
3.17189e-05
3.98509e-05
4.40179e-05
4.5434e-05
4.47552e-05
4.22555e-05
4.17511e-06
1.79553e-05
3.15943e-05
3.98118e-05
4.40375e-05
4.55061e-05
4.48748e-05
4.24135e-05
4.17405e-06
1.79249e-05
3.16114e-05
3.98489e-05
4.40747e-05
4.55354e-05
4.48902e-05
4.24112e-05
4.18215e-06
1.79213e-05
3.16356e-05
3.9925e-05
4.41997e-05
4.56945e-05
4.50695e-05
4.25981e-05
4.27965e-06
1.96578e-05
3.43227e-05
4.30747e-05
4.7589e-05
4.91713e-05
4.85031e-05
4.58628e-05
4.26816e-06
1.95964e-05
3.42242e-05
4.29606e-05
4.7477e-05
4.90751e-05
4.84304e-05
4.58149e-05
4.27094e-06
1.96039e-05
3.41848e-05
4.29341e-05
4.74858e-05
4.91241e-05
4.85186e-05
4.59365e-05
4.28821e-06
1.97156e-05
3.423e-05
4.29608e-05
4.75077e-05
4.91258e-05
4.8495e-05
4.58856e-05
4.28721e-06
1.95922e-05
3.41212e-05
4.29126e-05
4.75168e-05
4.91852e-05
4.85931e-05
4.60121e-05
4.28277e-06
1.95612e-05
3.41579e-05
4.29667e-05
4.7559e-05
4.92134e-05
4.86033e-05
4.60017e-05
4.29154e-06
1.95777e-05
3.42122e-05
4.3056e-05
4.76843e-05
4.93615e-05
4.87623e-05
4.61616e-05
4.40329e-06
2.14261e-05
3.7094e-05
4.64489e-05
5.13463e-05
5.31245e-05
5.2487e-05
4.97178e-05
4.38885e-06
2.13392e-05
3.69772e-05
4.63448e-05
5.12458e-05
5.3046e-05
5.24394e-05
4.97016e-05
4.39353e-06
2.13427e-05
3.6932e-05
4.63279e-05
5.12639e-05
5.31051e-05
5.25396e-05
4.98367e-05
4.41632e-06
2.14445e-05
3.69377e-05
4.63456e-05
5.1298e-05
5.31334e-05
5.25556e-05
4.98356e-05
4.41732e-06
2.13326e-05
3.68474e-05
4.62916e-05
5.13003e-05
5.31846e-05
5.26404e-05
4.99419e-05
4.4086e-06
2.13046e-05
3.68894e-05
4.63428e-05
5.13433e-05
5.32144e-05
5.26513e-05
4.9931e-05
4.41719e-06
2.13277e-05
3.69752e-05
4.64551e-05
5.14719e-05
5.33524e-05
5.27917e-05
5.00666e-05
4.54282e-06
2.32683e-05
4.00196e-05
5.00554e-05
5.53592e-05
5.73483e-05
5.67531e-05
5.38625e-05
4.52548e-06
2.31676e-05
3.98808e-05
4.99376e-05
5.52599e-05
5.72813e-05
5.67233e-05
5.38687e-05
4.5316e-06
2.31652e-05
3.98393e-05
4.99317e-05
5.52867e-05
5.73455e-05
5.68274e-05
5.4008e-05
4.55992e-06
2.32435e-05
3.9813e-05
4.99543e-05
5.53284e-05
5.73916e-05
5.6871e-05
5.4043e-05
4.56426e-06
2.31519e-05
3.97438e-05
4.98975e-05
5.53291e-05
5.74396e-05
5.69488e-05
5.41374e-05
4.55116e-06
2.31267e-05
3.97878e-05
4.9937e-05
5.53687e-05
5.74715e-05
5.6965e-05
5.4133e-05
4.55826e-06
2.31477e-05
3.98854e-05
5.00673e-05
5.54979e-05
5.75997e-05
5.7089e-05
5.42479e-05
4.6988e-06
2.51588e-05
4.3066e-05
5.38405e-05
5.95696e-05
6.17857e-05
6.12444e-05
5.82421e-05
4.67913e-06
2.50549e-05
4.29208e-05
5.36982e-05
5.94659e-05
6.17231e-05
6.12236e-05
5.82604e-05
4.68605e-06
2.506e-05
4.28774e-05
5.36923e-05
5.94908e-05
6.17841e-05
6.13225e-05
5.83932e-05
4.71905e-06
2.5095e-05
4.28624e-05
5.37198e-05
5.95364e-05
6.1839e-05
6.13814e-05
5.84499e-05
4.72798e-06
2.50276e-05
4.2773e-05
5.36706e-05
5.95436e-05
6.18868e-05
6.14552e-05
5.85371e-05
4.71068e-06
2.50131e-05
4.28302e-05
5.37044e-05
5.958e-05
6.19224e-05
6.14798e-05
5.8544e-05
4.71557e-06
2.50209e-05
4.29188e-05
5.38227e-05
5.96987e-05
6.2039e-05
6.15896e-05
5.86426e-05
4.87464e-06
2.70849e-05
4.62033e-05
5.77259e-05
6.3918e-05
6.63819e-05
6.59088e-05
6.28064e-05
4.85319e-06
2.69856e-05
4.60682e-05
5.75839e-05
6.3815e-05
6.63204e-05
6.58893e-05
6.28265e-05
4.86046e-06
2.70061e-05
4.60264e-05
5.75678e-05
6.38306e-05
6.63701e-05
6.59738e-05
6.29425e-05
4.89717e-06
2.69963e-05
4.60242e-05
5.7593e-05
6.38731e-05
6.64246e-05
6.60357e-05
6.30064e-05
4.91046e-06
2.69755e-05
4.5959e-05
5.7576e-05
6.38912e-05
6.64729e-05
6.61056e-05
6.30873e-05
4.89055e-06
2.6953e-05
4.59843e-05
5.75945e-05
6.39238e-05
6.65118e-05
6.61393e-05
6.31078e-05
4.8932e-06
2.69421e-05
4.60452e-05
5.76825e-05
6.40253e-05
6.66147e-05
6.62364e-05
6.31939e-05
5.06607e-06
2.90352e-05
4.94025e-05
6.16872e-05
6.83664e-05
7.10945e-05
7.07032e-05
6.7513e-05
5.04538e-06
2.89626e-05
4.92786e-05
6.1557e-05
6.82654e-05
7.10304e-05
7.06782e-05
6.75257e-05
5.05185e-06
2.8989e-05
4.92421e-05
6.1532e-05
6.82683e-05
7.10629e-05
7.07407e-05
6.76159e-05
5.08964e-06
2.89806e-05
4.92144e-05
6.15415e-05
6.8299e-05
7.11074e-05
7.07943e-05
6.7674e-05
5.10493e-06
2.89761e-05
4.91927e-05
6.15474e-05
6.8324e-05
7.11537e-05
7.08574e-05
6.77462e-05
5.08466e-06
2.89479e-05
4.92024e-05
6.15576e-05
6.83533e-05
7.11941e-05
7.08985e-05
6.77791e-05
5.08487e-06
2.89068e-05
4.92238e-05
6.16175e-05
6.84346e-05
7.1282e-05
7.09837e-05
6.78553e-05
5.26861e-06
3.10272e-05
5.26414e-05
6.57077e-05
7.2886e-05
7.58915e-05
7.55957e-05
7.23305e-05
5.24938e-06
3.0986e-05
5.25294e-05
6.55901e-05
7.27859e-05
7.58214e-05
7.55598e-05
7.23284e-05
5.25428e-06
3.09932e-05
5.24866e-05
6.55536e-05
7.27716e-05
7.58313e-05
7.55944e-05
7.23864e-05
5.29171e-06
3.09671e-05
5.24328e-05
6.5545e-05
7.27852e-05
7.58583e-05
7.56303e-05
7.24276e-05
5.30821e-06
3.09178e-05
5.2423e-05
6.55524e-05
7.28071e-05
7.58966e-05
7.56818e-05
7.24866e-05
5.28761e-06
3.09324e-05
5.24272e-05
6.55586e-05
7.28326e-05
7.59358e-05
7.5726e-05
7.25275e-05
5.28699e-06
3.08702e-05
5.24276e-05
6.55966e-05
7.28937e-05
7.60075e-05
7.57989e-05
7.25945e-05
5.482e-06
3.30599e-05
5.59135e-05
6.97749e-05
7.74553e-05
8.07506e-05
8.05658e-05
7.72404e-05
5.46363e-06
3.30228e-05
5.58144e-05
6.96642e-05
7.7355e-05
8.06728e-05
8.05158e-05
7.72192e-05
5.46654e-06
3.30058e-05
5.57577e-05
6.96121e-05
7.73204e-05
8.06572e-05
8.05197e-05
7.72417e-05
5.50231e-06
3.29269e-05
5.56954e-05
6.95828e-05
7.73121e-05
8.0661e-05
8.05311e-05
7.72578e-05
5.52023e-06
3.28548e-05
5.56748e-05
6.95779e-05
7.73227e-05
8.06849e-05
8.05652e-05
7.72979e-05
5.49836e-06
3.28868e-05
5.5671e-05
6.95822e-05
7.73424e-05
8.07186e-05
8.06065e-05
7.73397e-05
5.49747e-06
3.28345e-05
5.56552e-05
6.96004e-05
7.73831e-05
8.07726e-05
8.06651e-05
7.73958e-05
5.70553e-06
3.51026e-05
5.92123e-05
7.38693e-05
8.20605e-05
8.56604e-05
8.56054e-05
8.22385e-05
5.68689e-06
3.50641e-05
5.91234e-05
7.37634e-05
8.19591e-05
8.5575e-05
8.55414e-05
8.21975e-05
5.68821e-06
3.50267e-05
5.90518e-05
7.36953e-05
8.19033e-05
8.55334e-05
8.55143e-05
8.21844e-05
5.72197e-06
3.49137e-05
5.89722e-05
7.36439e-05
8.18703e-05
8.55105e-05
8.54971e-05
8.21705e-05
5.74096e-06
3.48214e-05
5.89245e-05
7.36195e-05
8.18636e-05
8.5515e-05
8.55089e-05
8.21863e-05
5.71739e-06
3.48647e-05
5.89201e-05
7.3617e-05
8.18737e-05
8.55382e-05
8.55404e-05
8.22206e-05
5.71586e-06
3.48226e-05
5.88983e-05
7.362e-05
8.18955e-05
8.55732e-05
8.55818e-05
8.22623e-05
5.93654e-06
3.71572e-05
6.25328e-05
7.79834e-05
8.66956e-05
9.06197e-05
9.0719e-05
8.73347e-05
5.91801e-06
3.71241e-05
6.24498e-05
7.78825e-05
8.65952e-05
9.05296e-05
9.06441e-05
8.72771e-05
5.91903e-06
3.70764e-05
6.2371e-05
7.78014e-05
8.65187e-05
9.04634e-05
9.05884e-05
8.72311e-05
5.95105e-06
3.69437e-05
6.22725e-05
7.77321e-05
8.64607e-05
9.04135e-05
9.05417e-05
8.71855e-05
5.96829e-06
3.68284e-05
6.21974e-05
7.76855e-05
8.64353e-05
9.03964e-05
9.05284e-05
8.71732e-05
5.94406e-06
3.68729e-05
6.21846e-05
7.76714e-05
8.64343e-05
9.04051e-05
9.05436e-05
8.71916e-05
5.94123e-06
3.68361e-05
6.21596e-05
7.76598e-05
8.64373e-05
9.04195e-05
9.05644e-05
8.7214e-05
4.00323e-06
4.03058e-06
1.42657e-05
4.06349e-06
1.45631e-05
2.67879e-05
3.44696e-05
3.84413e-05
4.10189e-06
1.49905e-05
2.74545e-05
3.52749e-05
3.93265e-05
4.07498e-05
4.01985e-05
3.79683e-05
4.14592e-06
1.5462e-05
2.81959e-05
3.61702e-05
4.03098e-05
4.17704e-05
4.12106e-05
3.89255e-05
4.02563e-06
1.50405e-05
2.72544e-05
3.47599e-05
3.85704e-05
3.98471e-05
3.92355e-05
3.70211e-05
4.0413e-06
1.5116e-05
2.74319e-05
3.50381e-05
3.89278e-05
4.02556e-05
3.96672e-05
3.74493e-05
4.06265e-06
1.52707e-05
2.77398e-05
3.54665e-05
3.94424e-05
4.08217e-05
4.02516e-05
3.80194e-05
4.09018e-06
1.55469e-05
2.82038e-05
3.60556e-05
4.01131e-05
4.15331e-05
4.09653e-05
3.86988e-05
4.12366e-06
1.58713e-05
2.87696e-05
3.67806e-05
4.09387e-05
4.24114e-05
4.18528e-05
3.95518e-05
4.1633e-06
1.62975e-05
2.94601e-05
3.76328e-05
4.18866e-05
4.34016e-05
4.28374e-05
4.04845e-05
4.20926e-06
1.67737e-05
3.0229e-05
3.8577e-05
4.29333e-05
4.44938e-05
4.39246e-05
4.15172e-05
4.1005e-06
1.64278e-05
2.93855e-05
3.72721e-05
4.13055e-05
4.26858e-05
4.20639e-05
3.97185e-05
4.11658e-06
1.65275e-05
2.95895e-05
3.75747e-05
4.16853e-05
4.31149e-05
4.25145e-05
4.01644e-05
4.13801e-06
1.66984e-05
2.99146e-05
3.80234e-05
4.22237e-05
4.37067e-05
4.31253e-05
4.07615e-05
4.16508e-06
1.69703e-05
3.03842e-05
3.86291e-05
4.29212e-05
4.44519e-05
4.38782e-05
4.1484e-05
4.1983e-06
1.72977e-05
3.09604e-05
3.93758e-05
4.37742e-05
4.53615e-05
4.47991e-05
4.23719e-05
4.23772e-06
1.77109e-05
3.16531e-05
4.0247e-05
4.47522e-05
4.63889e-05
4.58257e-05
4.33503e-05
4.28433e-06
1.81783e-05
3.24258e-05
4.12108e-05
4.58288e-05
4.75171e-05
4.69525e-05
4.44252e-05
4.19275e-06
1.79725e-05
3.17645e-05
4.01205e-05
4.44416e-05
4.59638e-05
4.53475e-05
4.28686e-05
4.20923e-06
1.80856e-05
3.19806e-05
4.04306e-05
4.48256e-05
4.63941e-05
4.57974e-05
4.3313e-05
4.23063e-06
1.82525e-05
3.23021e-05
4.08765e-05
4.53629e-05
4.69856e-05
4.64086e-05
4.39119e-05
4.25601e-06
1.85132e-05
3.27602e-05
4.14785e-05
4.60587e-05
4.77326e-05
4.71673e-05
4.46451e-05
4.28773e-06
1.88241e-05
3.33268e-05
4.22162e-05
4.6907e-05
4.86404e-05
4.80892e-05
4.55378e-05
4.32506e-06
1.92167e-05
3.40027e-05
4.30802e-05
4.78831e-05
4.96699e-05
4.91222e-05
4.6528e-05
4.37085e-06
1.96629e-05
3.4759e-05
4.40368e-05
4.89575e-05
5.07998e-05
5.02546e-05
4.76133e-05
4.30239e-06
1.96435e-05
3.43519e-05
4.3258e-05
4.79249e-05
4.96226e-05
4.90276e-05
4.64168e-05
4.31917e-06
1.97611e-05
3.45707e-05
4.35596e-05
4.82965e-05
5.00372e-05
4.94595e-05
4.68429e-05
4.34047e-06
1.9911e-05
3.48604e-05
4.3984e-05
4.88113e-05
5.06051e-05
5.00476e-05
4.74209e-05
4.3627e-06
2.01499e-05
3.53035e-05
4.45609e-05
4.94789e-05
5.13252e-05
5.07827e-05
4.81361e-05
4.39177e-06
2.04322e-05
3.58346e-05
4.52595e-05
5.02915e-05
5.22003e-05
5.16756e-05
4.90055e-05
4.42509e-06
2.07956e-05
3.64807e-05
4.60958e-05
5.1238e-05
5.32009e-05
5.26836e-05
4.99774e-05
4.4687e-06
2.12102e-05
3.72016e-05
4.7021e-05
5.22805e-05
5.43009e-05
5.37902e-05
5.10434e-05
4.42862e-06
2.14026e-05
3.71205e-05
4.66456e-05
5.16986e-05
5.35973e-05
5.3038e-05
5.03014e-05
4.44538e-06
2.15147e-05
3.73294e-05
4.69325e-05
5.20466e-05
5.39826e-05
5.34378e-05
5.06952e-05
4.46663e-06
2.16446e-05
3.75862e-05
4.73192e-05
5.25196e-05
5.45074e-05
5.39832e-05
5.12332e-05
4.48443e-06
2.18443e-05
3.79808e-05
4.78447e-05
5.31353e-05
5.51767e-05
5.46707e-05
5.19066e-05
4.51012e-06
2.2096e-05
3.84541e-05
4.84864e-05
5.38905e-05
5.59944e-05
5.55098e-05
5.27288e-05
4.53768e-06
2.2424e-05
3.90598e-05
4.92729e-05
5.4782e-05
5.69401e-05
5.64667e-05
5.36573e-05
4.57835e-06
2.28032e-05
3.97298e-05
5.0134e-05
5.5763e-05
5.79824e-05
5.75206e-05
5.46784e-05
4.57076e-06
2.32199e-05
4.00128e-05
5.02361e-05
5.5705e-05
5.78227e-05
5.73118e-05
5.44586e-05
4.58696e-06
2.33223e-05
4.02152e-05
5.05059e-05
5.60225e-05
5.81693e-05
5.7669e-05
5.48093e-05
4.60807e-06
2.3438e-05
4.04481e-05
5.08402e-05
5.64385e-05
5.86358e-05
5.81566e-05
5.52922e-05
4.62119e-06
2.35772e-05
4.07682e-05
5.1299e-05
5.69876e-05
5.92375e-05
5.87787e-05
5.59054e-05
4.64293e-06
2.37888e-05
4.11656e-05
5.18651e-05
5.76645e-05
5.99788e-05
5.95452e-05
5.6662e-05
4.6636e-06
2.40848e-05
4.17264e-05
5.25752e-05
5.84761e-05
6.0848e-05
6.04306e-05
5.75273e-05
4.70114e-06
2.44284e-05
4.23275e-05
5.33523e-05
5.93757e-05
6.1811e-05
6.14106e-05
5.84828e-05
4.72937e-06
2.5071e-05
4.3011e-05
5.39726e-05
5.9882e-05
6.22359e-05
6.17855e-05
5.88266e-05
4.74474e-06
2.51675e-05
4.319e-05
5.42105e-05
6.01595e-05
6.25358e-05
6.20927e-05
5.91267e-05
4.76602e-06
2.52614e-05
4.33703e-05
5.44857e-05
6.05127e-05
6.29355e-05
6.25125e-05
5.95437e-05
4.77478e-06
2.53375e-05
4.36303e-05
5.48676e-05
6.09827e-05
6.34576e-05
6.30571e-05
6.00841e-05
4.79241e-06
2.55077e-05
4.39707e-05
5.53501e-05
6.15691e-05
6.41099e-05
6.37381e-05
6.07616e-05
4.80563e-06
2.57726e-05
4.44614e-05
5.59702e-05
6.22901e-05
6.48893e-05
6.45387e-05
6.15503e-05
4.84014e-06
2.60777e-05
4.49881e-05
5.66619e-05
6.30961e-05
6.57592e-05
6.54298e-05
6.24249e-05
4.90726e-06
2.69603e-05
4.6123e-05
5.78101e-05
6.41797e-05
6.67818e-05
6.64028e-05
6.33494e-05
4.92198e-06
2.70298e-05
4.62351e-05
5.79956e-05
6.4406e-05
6.70293e-05
6.66556e-05
6.35945e-05
4.94205e-06
2.7071e-05
4.63515e-05
5.82144e-05
6.46925e-05
6.73572e-05
6.70019e-05
6.39389e-05
4.94769e-06
2.712e-05
4.6552e-05
5.85173e-05
6.50787e-05
6.77946e-05
6.74626e-05
6.4399e-05
4.95904e-06
2.72605e-05
4.68481e-05
5.89264e-05
6.55791e-05
6.83545e-05
6.80521e-05
6.499e-05
4.96346e-06
2.74982e-05
4.7262e-05
5.94527e-05
6.62018e-05
6.90372e-05
6.87608e-05
6.56944e-05
4.9918e-06
2.77578e-05
4.77163e-05
6.0056e-05
6.69093e-05
6.98064e-05
6.95543e-05
6.64786e-05
5.09724e-06
2.89073e-05
4.92849e-05
6.17137e-05
6.8557e-05
7.14169e-05
7.11187e-05
6.7981e-05
5.11063e-06
2.89163e-05
4.93359e-05
6.1844e-05
6.87289e-05
7.16092e-05
7.13152e-05
6.81693e-05
5.12823e-06
2.89098e-05
4.94137e-05
6.20084e-05
6.89496e-05
7.1865e-05
7.15863e-05
6.84384e-05
5.13236e-06
2.89651e-05
4.95694e-05
6.22444e-05
6.92563e-05
7.22181e-05
7.19621e-05
6.88158e-05
5.13611e-06
2.90651e-05
4.97979e-05
6.25767e-05
6.9668e-05
7.26855e-05
7.24593e-05
6.93184e-05
5.13181e-06
2.92707e-05
5.01361e-05
6.30148e-05
7.01959e-05
7.32717e-05
7.30749e-05
6.99363e-05
5.15283e-06
2.9481e-05
5.0522e-05
6.353e-05
7.08034e-05
7.3938e-05
7.37678e-05
7.06262e-05
5.29739e-06
3.08561e-05
5.24537e-05
6.56595e-05
7.29825e-05
7.6109e-05
7.59014e-05
7.26894e-05
5.30827e-06
3.08442e-05
5.24842e-05
6.57428e-05
7.31025e-05
7.62471e-05
7.60421e-05
7.28214e-05
5.32318e-06
3.08232e-05
5.25416e-05
6.58591e-05
7.32624e-05
7.6434e-05
7.62399e-05
7.30158e-05
5.32697e-06
3.08536e-05
5.26378e-05
6.60291e-05
7.34931e-05
7.67062e-05
7.65335e-05
7.33125e-05
5.32321e-06
3.09231e-05
5.28025e-05
6.6285e-05
7.38227e-05
7.70864e-05
7.69426e-05
7.37297e-05
5.31088e-06
3.10933e-05
5.3075e-05
6.66457e-05
7.42608e-05
7.75805e-05
7.74684e-05
7.42633e-05
5.32398e-06
3.12687e-05
5.34038e-05
6.70774e-05
7.47729e-05
7.81471e-05
7.80629e-05
7.48601e-05
5.50793e-06
3.27962e-05
5.56516e-05
6.96326e-05
7.74393e-05
8.08408e-05
8.07348e-05
7.74594e-05
5.51506e-06
3.27945e-05
5.56655e-05
6.96781e-05
7.75128e-05
8.09277e-05
8.08219e-05
7.75369e-05
5.52803e-06
3.27908e-05
5.56935e-05
6.97478e-05
7.76157e-05
8.10503e-05
8.09507e-05
7.76604e-05
5.53076e-06
3.27583e-05
5.5739e-05
6.98587e-05
7.77774e-05
8.12483e-05
8.1168e-05
7.78816e-05
5.52031e-06
3.282e-05
5.5856e-05
7.00527e-05
7.80348e-05
8.15502e-05
8.14969e-05
7.82202e-05
5.5012e-06
3.29639e-05
5.60753e-05
7.03429e-05
7.83922e-05
8.19598e-05
8.19393e-05
7.8675e-05
5.50663e-06
3.31121e-05
5.63391e-05
7.06919e-05
7.88145e-05
8.24331e-05
8.24413e-05
7.91838e-05
5.72687e-06
3.47626e-05
5.88744e-05
7.36255e-05
8.19215e-05
8.56091e-05
8.56187e-05
8.22938e-05
5.73115e-06
3.47542e-05
5.88622e-05
7.36368e-05
8.19527e-05
8.56486e-05
8.56555e-05
8.23199e-05
5.74323e-06
3.47541e-05
5.88635e-05
7.367e-05
8.2007e-05
8.57137e-05
8.57214e-05
8.23781e-05
5.74277e-06
3.47178e-05
5.88895e-05
7.37376e-05
8.21093e-05
8.58462e-05
8.58702e-05
8.25308e-05
5.7283e-06
3.47545e-05
5.89648e-05
7.38751e-05
8.23044e-05
8.60795e-05
8.61284e-05
8.27998e-05
5.70259e-06
3.48847e-05
5.91376e-05
7.41018e-05
8.25902e-05
8.64137e-05
8.64957e-05
8.31829e-05
5.70192e-06
3.49897e-05
5.93321e-05
7.43766e-05
8.29308e-05
8.68022e-05
8.69133e-05
8.36112e-05
5.95271e-06
3.67624e-05
6.2117e-05
7.7642e-05
8.64351e-05
9.04242e-05
9.05686e-05
8.72129e-05
5.95453e-06
3.67401e-05
6.20839e-05
7.76245e-05
8.64296e-05
9.04209e-05
9.05589e-05
8.71907e-05
5.96828e-06
3.67147e-05
6.20703e-05
7.76296e-05
8.64433e-05
9.04364e-05
9.05691e-05
8.71903e-05
5.96347e-06
3.67107e-05
6.20777e-05
7.7661e-05
8.64975e-05
9.05121e-05
9.06574e-05
8.72818e-05
5.94648e-06
3.67264e-05
6.21239e-05
7.77516e-05
8.66365e-05
9.06854e-05
9.08538e-05
8.74901e-05
5.91564e-06
3.68406e-05
6.22515e-05
7.79234e-05
8.68603e-05
9.09535e-05
9.11543e-05
8.78089e-05
5.9108e-06
3.69149e-05
6.23977e-05
7.81352e-05
8.71295e-05
9.12664e-05
9.14962e-05
8.81648e-05
4.20038e-06
1.64991e-05
2.96165e-05
3.76065e-05
4.16516e-05
4.29859e-05
4.22847e-05
3.98392e-05
4.15254e-06
1.60922e-05
2.88928e-05
3.66487e-05
4.05281e-05
4.1759e-05
4.10153e-05
3.85928e-05
4.10312e-06
1.56035e-05
2.80811e-05
3.56362e-05
3.93905e-05
4.05586e-05
3.98118e-05
3.74483e-05
4.05778e-06
1.52148e-05
2.73894e-05
3.4723e-05
3.83196e-05
3.93853e-05
3.859e-05
3.62389e-05
4.01524e-06
1.46583e-05
2.6576e-05
3.38427e-05
3.74453e-05
3.85604e-05
3.78501e-05
3.56151e-05
3.98267e-06
1.43328e-05
2.6052e-05
3.32193e-05
3.67717e-05
3.78698e-05
3.71703e-05
3.49738e-05
3.96047e-06
1.4069e-05
2.56629e-05
3.27909e-05
3.63394e-05
3.74564e-05
3.67941e-05
3.46496e-05
4.27514e-06
1.78087e-05
3.16874e-05
4.01085e-05
4.44148e-05
4.58768e-05
4.51795e-05
4.26138e-05
4.22601e-06
1.73691e-05
3.09125e-05
3.90866e-05
4.32191e-05
4.4573e-05
4.38314e-05
4.12887e-05
4.17475e-06
1.68559e-05
3.00512e-05
3.79998e-05
4.19879e-05
4.32657e-05
4.25123e-05
4.00243e-05
4.12717e-06
1.64147e-05
2.92796e-05
3.69914e-05
4.08144e-05
4.19886e-05
4.11907e-05
3.87225e-05
4.08161e-06
1.58748e-05
2.8465e-05
3.60629e-05
3.98475e-05
4.1036e-05
4.02971e-05
3.79286e-05
4.04651e-06
1.55247e-05
2.78992e-05
3.53769e-05
3.90952e-05
4.02572e-05
3.9526e-05
3.71982e-05
4.02156e-06
1.52545e-05
2.74912e-05
3.49106e-05
3.86111e-05
3.97847e-05
3.90885e-05
3.68141e-05
4.35989e-06
1.92034e-05
3.39029e-05
4.28093e-05
4.74155e-05
4.90292e-05
4.8349e-05
4.56678e-05
4.31061e-06
1.87552e-05
3.31112e-05
4.17616e-05
4.61869e-05
4.76877e-05
4.69595e-05
4.42979e-05
4.25899e-06
1.82422e-05
3.22347e-05
4.06402e-05
4.4905e-05
4.63169e-05
4.55671e-05
4.29524e-05
4.21032e-06
1.77776e-05
3.14239e-05
3.95804e-05
4.36732e-05
4.49793e-05
4.41858e-05
4.15933e-05
4.16278e-06
1.7257e-05
3.06175e-05
3.8624e-05
4.26437e-05
4.39361e-05
4.31803e-05
4.06723e-05
4.12556e-06
1.68937e-05
3.00265e-05
3.78969e-05
4.18387e-05
4.30985e-05
4.23487e-05
3.98829e-05
4.09808e-06
1.66194e-05
2.96046e-05