/*--------------------------------*- C++ -*----------------------------------*\
| =========                 |                                                 |
| \\      /  F ield         | OpenFOAM: The Open Source CFD Toolbox           |
|  \\    /   O peration     | Version:  plus.master.MPPICInterFoam            |
|   \\  /    A nd           | Web:      www.OpenFOAM.com                      |
|    \\/     M anipulation  |                                                 |
\*---------------------------------------------------------------------------*/
FoamFile
{
    version     2.0;
    format      ascii;
    class       scalarField;
    location    "4/lagrangian/kinematicCloud";
    object      age;
}
// * * * * * * * * * * * * * * * * * * * * * * * * * * * * * * * * * * * * * //


39
(
3.94409
3.97614
3.97688
3.99208
3.82592
3.82156
3.97096
3.58541
3.65376
3.62973
3.96578
3.5678
3.98129
3.62862
3.98839
3.92045
3.96167
3.57709
3.9442
3.91527
3.99131
3.75325
3.57202
3.63407
3.79557
3.50602
3.50417
3.88847
3.76386
3.97853
3.93742
3.74573
3.73752
3.9885
3.95642
3.79331
3.98762
3.70042
3.83934
)


// ************************************************************************* //
