/*--------------------------------*- C++ -*----------------------------------*\
| =========                 |                                                 |
| \\      /  F ield         | OpenFOAM: The Open Source CFD Toolbox           |
|  \\    /   O peration     | Version:  plus.master.MPPICInterFoam            |
|   \\  /    A nd           | Web:      www.OpenFOAM.com                      |
|    \\/     M anipulation  |                                                 |
\*---------------------------------------------------------------------------*/
FoamFile
{
    version     2.0;
    format      ascii;
    class       surfaceScalarField;
    location    "11.2";
    object      alphaPhi;
}
// * * * * * * * * * * * * * * * * * * * * * * * * * * * * * * * * * * * * * //

dimensions      [0 3 -1 0 0 0 0];

internalField   nonuniform List<scalar> 
34018
(
3.63579e-07
6.11502e-06
-3.37868e-07
-4.59934e-07
4.07394e-07
7.64765e-06
3.45664e-07
6.02597e-06
-3.42259e-07
-5.81994e-07
8.53402e-06
2.98082e-07
-4.4731e-07
7.0964e-06
3.18914e-07
5.63994e-06
-3.07595e-07
2.83176e-07
-3.60745e-07
9.52842e-07
7.29494e-06
1.87725e-07
-6.0484e-07
-5.33296e-07
1.1016e-06
7.48055e-06
-7.31663e-07
-6.09535e-07
9.71724e-07
7.22998e-06
-6.79021e-07
-6.04362e-07
7.80696e-07
6.59574e-06
-5.59953e-07
-5.2604e-07
5.67342e-07
5.70915e-06
-4.2643e-07
-4.18446e-07
4.02284e-07
4.72477e-06
-3.17955e-07
2.9819e-07
3.73774e-06
-3.09693e-07
-2.53644e-07
-3.93737e-07
9.58431e-07
8.36361e-06
1.41895e-07
-6.72624e-07
1.00926e-06
8.83615e-06
-7.88043e-07
8.12187e-07
8.33879e-06
-8.25054e-07
8.47818e-07
7.91812e-06
-7.04777e-07
6.66656e-07
6.94837e-06
-5.38402e-07
4.60906e-07
5.68632e-06
3.3278e-07
4.49046e-06
-3.87435e-07
-4.70195e-07
6.46494e-07
7.44397e-06
7.43191e-08
-4.10699e-07
3.34582e-07
4.85738e-06
-6.41194e-07
2.66633e-07
6.24018e-06
-9.52534e-07
5.80842e-07
7.91696e-06
-8.93946e-07
6.25551e-07
7.93829e-06
-6.59642e-07
4.65768e-07
6.58514e-06
3.44523e-07
5.16124e-06
-4.60531e-07
-9.86199e-07
4.5395e-07
5.31865e-06
1.71535e-07
-6.69849e-07
5.02773e-07
9.2773e-06
-3.47598e-07
2.17086e-07
6.90324e-06
-8.82943e-07
3.56779e-07
7.13271e-06
-1.04417e-06
5.29766e-07
8.39349e-06
-7.58501e-07
4.18756e-07
7.26462e-06
3.27955e-07
5.65884e-06
-5.17058e-07
-8.639e-07
4.08486e-07
1.15683e-05
1.65311e-07
-8.8119e-07
6.84689e-07
1.03154e-05
-2.11462e-07
9.46606e-07
9.72338e-06
-9.09988e-07
4.86495e-07
5.48951e-06
-1.14111e-06
3.47646e-07
8.68204e-06
-8.1461e-07
3.20267e-07
7.57099e-06
2.78893e-07
5.89227e-06
-5.4274e-07
-5.96505e-07
-7.47418e-08
6.76166e-06
-1.27333e-08
-6.99004e-07
7.46445e-08
8.62697e-06
-5.54977e-07
1.93673e-07
5.1489e-06
-9.70762e-07
7.09749e-08
7.94602e-06
-1.10988e-06
1.03922e-07
8.22429e-06
-7.75607e-07
1.93695e-07
7.44e-06
2.1351e-07
5.82313e-06
-5.07302e-07
-3.21377e-07
6.97656e-06
-5.44303e-08
-3.90574e-07
-5.35282e-07
6.12661e-06
-3.92443e-07
-6.98019e-07
5.86803e-06
-3.11423e-07
-9.98019e-07
7.60233e-06
-2.68139e-07
-9.24757e-07
8.21787e-06
-5.14009e-08
-6.54023e-07
6.91004e-06
1.09379e-07
5.47001e-06
-4.18992e-07
1.48499e-07
-3.01343e-07
4.98195e-07
7.1174e-06
2.38085e-07
-2.57393e-07
-4.34835e-07
7.29914e-07
7.2694e-06
-3.85616e-07
-4.62464e-07
5.87708e-07
7.008e-06
-3.37634e-07
-4.07082e-07
4.12347e-07
6.38063e-06
-2.52509e-07
-3.16743e-07
2.87088e-07
5.5204e-06
-1.88639e-07
-2.275e-07
2.04693e-07
4.57699e-06
-1.46221e-07
1.60762e-07
3.63201e-06
-1.52062e-07
-1.30477e-07
-2.67931e-07
3.98575e-07
7.74236e-06
2.30796e-07
-5.14803e-07
6.1041e-07
7.77935e-06
-5.76637e-07
4.17623e-07
7.49976e-06
-5.49945e-07
4.57297e-07
7.57147e-06
-4.16118e-07
3.84339e-07
6.69515e-06
-2.822e-07
2.66452e-07
5.4904e-06
1.99456e-07
4.35145e-06
-1.81802e-07
-3.31929e-07
1.45634e-07
4.58666e-06
1.90667e-07
-1.74093e-07
5.36146e-07
4.61616e-06
-2.93166e-07
2.70478e-07
4.30973e-06
-5.63375e-07
2.34131e-07
6.53595e-06
-5.13942e-07
3.99252e-07
7.56476e-06
-3.32784e-07
3.18709e-07
6.35201e-06
2.38802e-07
4.99384e-06
-2.04654e-07
-2.97862e-07
2.06012e-07
4.87497e-06
1.29831e-07
-4.17418e-07
3.43726e-07
8.62839e-06
-2.49885e-07
2.22091e-07
5.16428e-06
-4.54243e-07
7.20742e-08
4.5436e-06
-6.38577e-07
3.58914e-07
7.61782e-06
-3.92758e-07
3.23946e-07
7.01359e-06
2.58551e-07
5.47424e-06
-2.27542e-07
-5.85361e-07
1.56391e-07
5.64999e-06
7.72876e-08
-6.00124e-07
2.12864e-07
1.06835e-05
-4.71814e-07
1.88332e-07
9.97895e-06
-5.03031e-07
2.74998e-07
4.55192e-06
-7.71663e-07
1.90848e-07
7.56149e-06
-4.4645e-07
2.52376e-07
7.31763e-06
2.40317e-07
5.70642e-06
-2.42088e-07
-2.61188e-07
-8.92503e-09
4.84126e-06
9.21786e-08
-3.17046e-07
-3.98026e-08
5.51754e-06
-1.65522e-07
1.46012e-08
5.11964e-06
-3.8707e-07
1.19305e-07
4.80093e-06
-6.11337e-07
1.63735e-07
7.47465e-06
-3.65814e-07
2.35225e-07
7.21186e-06
2.35576e-07
5.65921e-06
-1.97074e-07
-2.10709e-07
4.91606e-06
9.97738e-08
-3.87081e-08
-2.19613e-07
4.98178e-06
-8.04077e-08
-2.30599e-07
4.32372e-06
-4.62971e-08
-4.74678e-07
6.14892e-06
6.70454e-08
-4.52336e-07
7.75503e-06
1.83832e-07
-2.76357e-07
6.72632e-06
2.43094e-07
5.34506e-06
-1.42425e-07
2.26551e-07
-3.61633e-07
-2.55451e-07
7.03811e-06
4.36739e-07
2.59643e-07
-3.24462e-07
-1.42269e-07
7.15403e-06
2.20622e-07
-2.21132e-07
-2.09822e-07
6.8793e-06
2.35321e-07
-1.01118e-07
-2.1773e-07
6.2652e-06
2.13417e-07
-2.19295e-08
-1.38422e-07
5.43386e-06
1.46133e-07
2.21298e-08
-7.23215e-08
4.52162e-06
8.36262e-08
-1.89928e-08
3.60168e-06
4.32537e-08
2.82663e-08
-3.33748e-07
-9.58432e-08
7.55458e-06
5.20802e-07
-3.32163e-07
1.0994e-07
7.539e-06
-2.3142e-07
-2.76499e-08
7.27806e-06
-7.41406e-08
-1.50207e-07
7.35272e-06
2.51685e-08
-8.24808e-08
6.53922e-06
6.81741e-08
-2.25845e-08
5.39762e-06
2.10447e-08
4.30097e-06
7.85482e-08
-1.9953e-07
7.48481e-08
4.60141e-06
4.20636e-07
-1.53089e-07
2.08522e-07
4.59379e-06
-1.05422e-07
7.65389e-08
4.3914e-06
9.09923e-09
9.01129e-09
6.37458e-06
1.11829e-07
6.58797e-08
7.32831e-06
1.3547e-07
8.86916e-08
6.21723e-06
9.8374e-08
4.92343e-06
1.28811e-07
-1.69831e-07
6.06399e-08
5.02352e-06
2.14349e-07
-2.4264e-07
1.48246e-07
5.38697e-06
-7.12777e-08
1.9126e-07
4.86942e-06
-7.34825e-09
5.73869e-08
4.61743e-06
1.41114e-07
2.17912e-07
7.36338e-06
1.73585e-07
2.20128e-07
6.84948e-06
1.89995e-07
5.39135e-06
1.64889e-07
-4.0194e-07
6.94642e-08
5.48352e-06
3.14057e-07
-3.60659e-07
1.1143e-08
1.10019e-05
-3.03941e-07
-4.41599e-09
8.06788e-06
-3.07777e-07
1.08601e-07
4.51219e-06
2.93962e-08
1.78208e-07
7.32053e-06
1.49938e-07
2.68752e-07
7.14852e-06
2.50773e-07
5.62489e-06
1.70795e-07
-2.30375e-07
9.77666e-08
5.08977e-06
2.50358e-07
-1.62362e-07
6.77869e-08
5.33131e-06
-1.22496e-07
5.97503e-08
4.99085e-06
3.18136e-08
2.53758e-07
4.44186e-06
1.9697e-07
3.93869e-07
7.26128e-06
2.1147e-07
3.98034e-07
7.06818e-06
3.28604e-07
5.59798e-06
1.9483e-07
-1.72449e-07
4.98349e-06
4.28174e-07
4.62186e-07
-1.24115e-07
4.60498e-06
2.6856e-07
-5.08004e-08
4.63765e-06
4.01261e-07
1.04905e-07
6.07806e-06
6.75053e-07
2.02438e-07
7.56207e-06
6.07409e-07
2.00893e-07
6.64095e-06
4.84913e-07
5.31837e-06
1.87706e-07
3.68314e-07
-4.12394e-07
-5.29232e-07
7.02775e-06
5.27646e-07
4.24419e-07
-2.70993e-07
-5.3585e-07
7.10491e-06
4.43892e-07
-1.09625e-07
-5.27937e-07
6.81341e-06
4.32351e-07
1.71378e-08
-4.23154e-07
6.20848e-06
3.53113e-07
8.15928e-08
-2.70564e-07
5.39869e-06
2.41275e-07
1.05101e-07
-1.54765e-07
4.50413e-06
1.48606e-07
-7.41691e-08
3.59707e-06
1.07621e-07
7.65174e-08
-4.30173e-07
-4.17684e-07
7.98496e-06
6.76743e-07
-2.48688e-07
-2.92563e-07
7.99835e-06
-5.00407e-08
-3.49818e-07
7.72141e-06
1.20954e-07
-4.15856e-07
7.39871e-06
1.78207e-07
-2.45084e-07
6.46539e-06
1.78553e-07
-1.157e-07
5.35841e-06
-3.73911e-08
4.28469e-06
1.57956e-07
-2.37366e-07
-8.63818e-08
6.16557e-06
6.85197e-07
-9.09487e-08
1.98385e-08
4.80269e-06
2.02186e-08
-1.77682e-08
5.50383e-06
2.99916e-07
-1.37537e-07
7.47987e-06
3.29532e-07
-8.39795e-08
7.39012e-06
2.8074e-07
3.00265e-09
6.14688e-06
4.65507e-08
4.89358e-06
2.26713e-07
-1.77368e-07
1.46752e-08
4.74475e-06
3.92015e-07
-8.20173e-08
1.57084e-07
5.04183e-06
-3.08651e-08
9.50818e-08
4.63982e-06
2.99714e-07
5.82939e-08
6.05488e-06
4.43198e-07
1.4328e-07
7.79649e-06
3.64545e-07
1.78166e-07
6.75297e-06
1.64821e-07
5.3533e-06
2.84185e-07
-1.23402e-07
9.69483e-08
5.36641e-06
2.84307e-07
-2.33518e-07
3.19128e-08
9.0846e-06
-8.06756e-08
3.94619e-08
5.10255e-06
1.61293e-07
1.34488e-07
5.58918e-06
4.22963e-07
3.06244e-07
7.98892e-06
3.72479e-07
3.25298e-07
7.05156e-06
2.69802e-07
5.59169e-06
3.00524e-07
-1.32697e-07
2.39544e-07
4.65634e-06
3.68988e-07
-9.67001e-08
9.84457e-08
5.1479e-06
-3.44229e-08
1.87201e-07
4.7356e-06
2.94047e-07
4.5554e-07
6.03978e-06
4.60751e-07
5.50972e-07
7.93418e-06
3.77274e-07
4.8177e-07
6.99508e-06
3.66823e-07
5.58036e-06
2.9777e-07
-2.25406e-07
6.89648e-06
6.56262e-07
8.18473e-07
-9.49706e-08
6.15982e-06
7.35365e-07
6.26652e-08
6.43734e-06
8.21962e-07
3.28581e-07
7.56733e-06
9.42511e-07
3.65526e-07
7.75863e-06
7.38066e-07
3.1244e-07
6.61812e-06
5.57556e-07
5.327e-06
2.67301e-07
4.03222e-07
-3.95577e-07
-2.37329e-07
7.00843e-06
4.45728e-07
2.06552e-07
-2.89013e-07
-2.70655e-07
7.05082e-06
2.18309e-07
-1.65194e-07
-2.62709e-07
6.73947e-06
2.12562e-07
-6.9645e-08
-1.83728e-07
6.13394e-06
1.62245e-07
-9.47822e-09
-1.02204e-07
5.33647e-06
1.04117e-07
2.70187e-08
-4.64549e-08
4.45665e-06
5.71726e-08
-9.76619e-09
3.56611e-06
4.75952e-08
2.02834e-08
-4.71375e-07
-2.45164e-07
8.14558e-06
5.86166e-07
-3.04144e-07
-2.26785e-07
8.34008e-06
-1.42052e-07
-2.49473e-07
7.85743e-06
-3.13077e-08
-1.74003e-07
7.33612e-06
2.66233e-08
-7.08178e-08
6.37813e-06
5.4399e-08
-7.89369e-09
5.29241e-06
2.40888e-08
4.239e-06
6.63841e-08
-3.0728e-07
-9.78528e-08
7.50046e-06
7.18517e-07
-1.47198e-07
1.41986e-08
6.00516e-06
-3.42456e-08
-3.5327e-08
6.82925e-06
7.67477e-08
-5.22347e-08
7.87515e-06
1.04474e-07
3.15638e-08
7.32208e-06
1.03859e-07
7.84856e-08
6.06077e-06
8.81596e-08
4.83417e-06
9.91466e-08
-1.26456e-07
5.1381e-08
6.3867e-06
7.26863e-07
-1.21678e-07
5.46021e-08
4.90855e-06
-5.87288e-09
7.90875e-08
5.17129e-06
1.77283e-07
1.14746e-07
7.43528e-06
1.8248e-07
2.07914e-07
7.89409e-06
1.50457e-07
2.10902e-07
6.65251e-06
1.76252e-07
5.28615e-06
1.29317e-07
-1.24861e-07
2.04422e-07
7.09691e-06
7.09883e-07
-8.98439e-08
8.87999e-08
5.76475e-06
-7.5844e-08
1.22712e-07
5.03887e-06
1.28041e-07
2.46182e-07
6.54174e-06
1.75998e-07
3.68788e-07
8.2712e-06
1.52137e-07
3.28155e-07
6.95787e-06
2.54904e-07
5.52906e-06
1.35845e-07
-1.74625e-07
5.41069e-07
7.95361e-06
8.5352e-07
-9.87517e-08
2.55869e-07
4.8368e-06
-1.84174e-08
4.51768e-07
5.01206e-06
1.40434e-07
5.86969e-07
7.83908e-06
1.5421e-07
5.03099e-07
8.07091e-06
1.35876e-07
4.17861e-07
6.92322e-06
3.10693e-07
5.53132e-06
1.2897e-07
-3.74236e-07
7.9556e-06
6.40616e-07
6.99349e-07
-1.74384e-07
7.84154e-06
8.46596e-07
-5.72663e-08
7.27176e-06
8.19348e-07
2.98253e-08
7.98524e-06
6.90347e-07
7.28744e-08
7.78812e-06
5.50162e-07
9.64234e-08
6.57846e-06
4.3368e-07
5.29859e-06
1.24478e-07
3.10911e-07
-3.42415e-07
1.81791e-07
6.93128e-06
3.03771e-07
-6.60226e-08
-3.1463e-07
1.57624e-07
6.94824e-06
-8.28616e-08
-2.52406e-07
1.26389e-07
6.6202e-06
-6.94053e-08
-1.87753e-07
1.19137e-07
6.01282e-06
-6.28091e-08
-1.23146e-07
9.78118e-08
5.22679e-06
-5.28784e-08
-6.67151e-08
7.7765e-08
4.36763e-06
-4.51927e-08
6.26275e-08
3.50342e-06
-2.41365e-08
-4.26819e-08
-4.47936e-07
2.26152e-07
8.08344e-06
3.92179e-07
-3.88502e-07
1.48302e-07
8.25476e-06
-3.18009e-07
1.29569e-07
7.72084e-06
-2.45177e-07
1.68508e-07
7.19608e-06
-1.63609e-07
1.49655e-07
6.24451e-06
-9.22674e-08
1.20237e-07
5.17876e-06
9.422e-08
4.15433e-06
-3.88849e-08
-3.74005e-07
1.45213e-07
7.26865e-06
4.31503e-07
-2.50234e-07
8.62911e-08
5.93148e-06
-2.50922e-07
5.01671e-08
6.60797e-06
-2.56167e-07
1.68659e-07
7.69051e-06
-1.86619e-07
2.08645e-07
7.17262e-06
-1.07749e-07
1.74394e-07
5.92763e-06
1.3519e-07
4.7316e-06
-4.63676e-08
-3.00606e-07
1.62935e-07
6.80271e-06
6.41556e-07
-1.68137e-07
9.72041e-08
4.6756e-06
-9.98811e-08
1.01819e-07
5.25887e-06
-2.09569e-07
2.06371e-07
7.16501e-06
-1.93087e-07
2.87041e-07
7.7312e-06
-1.16717e-07
2.41649e-07
6.509e-06
1.81809e-07
5.17326e-06
-5.05095e-08
-4.45594e-07
4.35382e-07
8.55591e-06
8.87221e-07
-1.96837e-07
2.6336e-07
5.26132e-06
-1.79638e-07
2.35359e-07
4.84422e-06
-2.30924e-07
2.81755e-07
6.31112e-06
-2.29912e-07
3.44012e-07
8.13237e-06
-1.37301e-07
2.87047e-07
6.81989e-06
2.13946e-07
5.4171e-06
-5.75529e-08
-6.1708e-07
4.14641e-07
8.71601e-06
7.21154e-07
-1.88788e-07
5.55333e-07
6.60782e-06
-1.58339e-07
4.2783e-07
4.97858e-06
-2.8443e-07
3.72062e-07
7.62412e-06
-2.61314e-07
3.33829e-07
7.94586e-06
-1.49418e-07
2.95424e-07
6.80283e-06
2.21554e-07
5.4301e-06
-5.58277e-08
-4.09749e-07
7.6944e-06
3.54581e-07
2.02774e-07
-3.41712e-07
7.56452e-06
3.23025e-07
-3.19095e-07
7.03558e-06
3.15453e-07
-3.57983e-07
7.69441e-06
2.61515e-07
-2.64987e-07
7.70611e-06
2.83896e-07
-1.35851e-07
6.47998e-06
2.64655e-07
5.21581e-06
-2.45332e-08
1.93015e-07
-2.68619e-07
2.84336e-07
6.81749e-06
2.12863e-07
-1.14856e-07
-2.79463e-07
2.97288e-07
6.81731e-06
-1.55775e-07
-2.48929e-07
2.52551e-07
6.47809e-06
-1.40857e-07
-1.98797e-07
2.05056e-07
5.87247e-06
-1.14755e-07
-1.34893e-07
1.4405e-07
5.10227e-06
-8.34125e-08
-7.51732e-08
9.82617e-08
4.26953e-06
-5.96918e-08
6.72364e-08
3.43683e-06
-2.98081e-08
-4.60675e-08
-3.61987e-07
3.24685e-07
7.72246e-06
2.66253e-07
-3.76838e-07
2.88372e-07
7.92381e-06
-3.51803e-07
2.42442e-07
7.38278e-06
-2.94672e-07
2.74351e-07
7.0096e-06
-2.01016e-07
2.06013e-07
6.08868e-06
-1.14802e-07
1.40524e-07
5.04998e-06
9.57256e-08
4.0621e-06
-5.10436e-08
-3.43987e-07
1.77951e-07
5.72966e-06
2.35158e-07
-2.5207e-07
5.0243e-08
5.08124e-06
-3.05225e-07
6.86409e-08
5.5307e-06
-3.58106e-07
2.22404e-07
7.13015e-06
-2.63348e-07
2.43248e-07
6.97195e-06
-1.50368e-07
1.80077e-07
5.77546e-06
1.26454e-07
4.61869e-06
-6.81491e-08
-7.14934e-07
2.71033e-07
4.52077e-06
3.71205e-07
-1.09863e-07
1.68944e-07
6.77082e-06
-1.1989e-07
6.02154e-08
4.17793e-06
-3.20026e-07
1.91967e-07
5.98126e-06
-3.08161e-07
2.77501e-07
7.4159e-06
-1.79113e-07
2.15799e-07
6.34425e-06
1.5433e-07
5.04758e-06
-8.11349e-08
-7.91324e-07
3.35958e-07
8.16649e-06
4.71129e-07
-4.61785e-07
4.21766e-07
8.55152e-06
-9.4696e-08
3.7796e-07
7.45662e-06
-3.63424e-07
2.50676e-07
5.44755e-06
-3.62256e-07
2.65076e-07
7.77213e-06
-2.06029e-07
2.24375e-07
6.65545e-06
1.66037e-07
5.28901e-06
-8.93637e-08
-6.77476e-07
1.4061e-07
5.28997e-06
3.00482e-07
-4.62375e-07
2.30073e-07
6.68906e-06
-1.84155e-07
2.2484e-07
4.37598e-06
-3.94538e-07
1.60421e-07
6.16126e-06
-3.75377e-07
2.05224e-07
7.55831e-06
-2.03413e-07
2.06347e-07
6.64908e-06
1.602e-07
5.31027e-06
-7.75719e-08
-2.85096e-07
5.41519e-06
1.58773e-07
2.9487e-09
-2.87724e-07
4.82895e-06
-5.04116e-09
-3.01847e-07
4.9235e-06
4.99422e-08
-4.20817e-07
6.67131e-06
6.40497e-08
-3.21997e-07
7.4375e-06
1.54599e-07
-1.60931e-07
6.34594e-06
1.7947e-07
5.11507e-06
-3.45272e-08
1.34659e-07
-1.99246e-07
6.1878e-08
6.71853e-06
1.97889e-07
3.84464e-08
-1.98088e-07
1.2635e-07
6.69922e-06
-9.52998e-09
-1.62536e-07
9.89211e-08
6.35359e-06
-9.72449e-09
-1.10376e-07
7.01025e-08
5.75499e-06
-4.52187e-09
-5.40742e-08
4.23978e-08
5.00328e-06
3.89183e-10
-8.26072e-09
2.4752e-08
4.19676e-06
2.27623e-09
1.39603e-08
3.39243e-06
2.15409e-08
7.30625e-10
-2.28578e-07
1.11194e-07
7.44953e-06
2.39506e-07
-2.62625e-07
1.83942e-07
7.50638e-06
-2.38684e-07
1.3911e-07
7.11149e-06
-1.71885e-07
1.37031e-07
6.8358e-06
-8.92627e-08
9.68594e-08
5.95187e-06
-2.39192e-08
6.22341e-08
4.94696e-06
3.97689e-08
3.99495e-06
1.73721e-08
-1.65352e-07
7.59813e-08
4.71386e-06
1.7087e-07
-1.34088e-07
6.20037e-08
4.25056e-06
-1.96465e-07
6.71707e-08
4.82091e-06
-2.0838e-07
1.2644e-07
6.84636e-06
-1.17963e-07
1.44661e-07
6.78855e-06
-3.37156e-08
1.06612e-07
5.6472e-06
7.3682e-08
4.53295e-06
1.83147e-08
-1.94748e-07
1.03875e-07
4.53004e-06
1.22757e-07
-1.74428e-07
1.26101e-07
6.49114e-06
-9.63586e-08
1.27913e-07
4.08747e-06
-1.87556e-07
8.33794e-08
5.30051e-06
-1.4384e-07
1.83357e-07
7.1606e-06
-4.33915e-08
1.4965e-07
6.2009e-06
1.0776e-07
4.95034e-06
2.00502e-08
-3.15826e-07
7.60082e-08
5.29006e-06
1.44158e-07
-3.58858e-07
9.90596e-08
8.8064e-06
-1.32808e-07
7.81547e-08
7.62159e-06
-2.45508e-07
1.13189e-07
5.18932e-06
-1.89633e-07
1.59551e-07
7.41708e-06
-5.81597e-08
1.65391e-07
6.50852e-06
1.28522e-07
5.18922e-06
2.11314e-08
-2.03136e-07
1.58339e-08
4.76568e-06
1.03602e-07
-1.90607e-07
-4.01364e-09
4.91083e-06
-1.40966e-07
2.13509e-08
4.37084e-06
-1.92865e-07
7.29637e-08
5.02392e-06
-1.55978e-07
1.70221e-07
7.31462e-06
-3.85892e-08
1.8446e-07
6.51286e-06
1.4396e-07
5.21896e-06
3.74646e-08
-1.38204e-07
4.92283e-06
1.40912e-07
1.0892e-07
-1.16393e-07
4.41011e-06
6.78644e-08
-1.28501e-07
4.44483e-06
8.45891e-08
-1.84612e-07
6.43979e-06
1.60566e-07
-1.07474e-07
7.23205e-06
2.03231e-07
-7.9923e-09
6.23321e-06
1.9793e-07
5.04245e-06
6.7479e-08
1.41233e-07
-1.84304e-07
-1.76882e-07
6.65971e-06
2.29977e-07
1.9002e-07
-1.35706e-07
-1.3833e-07
6.62259e-06
1.66704e-07
-7.30307e-08
-1.33548e-07
6.2715e-06
1.53132e-07
-1.45621e-08
-1.0702e-07
5.67913e-06
1.24647e-07
3.07289e-08
-7.75418e-08
4.94223e-06
9.36517e-08
5.94587e-08
-5.57387e-08
4.15547e-06
6.84958e-08
-4.11395e-08
3.37193e-06
7.25712e-08
4.87367e-08
-1.94554e-07
-1.09271e-07
7.35393e-06
2.88871e-07
-1.53872e-07
-2.69656e-08
7.37234e-06
-9.0879e-08
-5.80077e-08
6.99245e-06
-1.7236e-08
-6.43419e-08
6.71889e-06
3.90606e-08
-4.0209e-08
5.85853e-06
7.27738e-08
-2.43864e-08
4.88218e-06
-1.7459e-08
3.95723e-06
8.69506e-08
-9.15227e-08
-1.81268e-08
4.75558e-06
2.47527e-07
-6.63745e-08
1.83092e-08
4.18678e-06
-5.03743e-08
2.97984e-08
4.82116e-06
9.95011e-09
1.35549e-08
6.71967e-06
6.64924e-08
2.95773e-08
6.66391e-06
9.73776e-08
3.08292e-08
5.56122e-06
2.3561e-08
4.48088e-06
1.08632e-07
-5.70746e-08
-2.75791e-08
4.45238e-06
1.19092e-07
-4.87114e-08
-1.61489e-08
4.62755e-06
-5.57414e-08
4.28845e-08
4.14086e-06
2.01394e-08
6.74173e-08
5.29578e-06
8.70644e-08
1.0923e-07
7.02352e-06
1.17396e-07
1.00117e-07
6.10133e-06
7.36955e-08
4.88968e-06
1.2801e-07
-6.30921e-08
7.22088e-08
5.08654e-06
6.70925e-08
-6.29719e-08
-4.30081e-09
8.979e-06
-7.08567e-08
-1.69466e-09
4.78791e-06
-5.72353e-08
5.49855e-08
4.90153e-06
6.35114e-08
1.4181e-07
7.27252e-06
1.15603e-07
1.51271e-07
6.40531e-06
1.15323e-07
5.1271e-06
1.36218e-07
-8.86081e-08
7.10165e-08
4.64512e-06
1.21798e-07
-4.39236e-08
5.03927e-08
4.72297e-06
-5.35347e-08
5.24253e-08
4.31668e-06
1.62583e-08
1.53728e-07
5.06897e-06
9.1747e-08
2.209e-07
7.18434e-06
1.27815e-07
2.09431e-07
6.41877e-06
1.52759e-07
5.16382e-06
1.45575e-07
-6.33784e-08
5.1188e-06
2.04964e-07
2.54579e-07
-4.48815e-08
4.54577e-06
2.37739e-07
-2.59833e-08
4.65031e-06
2.48894e-07
2.55931e-08
6.5135e-06
3.30682e-07
8.67741e-08
7.12399e-06
2.96886e-07
1.25262e-07
6.16087e-06
2.43418e-07
5.00201e-06
1.54688e-07
1.63782e-07
-1.93554e-07
-2.10605e-07
6.61664e-06
2.39175e-07
2.08095e-07
-1.25912e-07
-2.12596e-07
6.56335e-06
2.0449e-07
-4.73436e-08
-2.08132e-07
6.207e-06
1.94084e-07
1.32065e-08
-1.5796e-07
5.62005e-06
1.56448e-07
5.32012e-08
-1.11424e-07
4.89618e-06
1.17583e-07
7.62637e-08
-8.00627e-08
4.12518e-06
8.73426e-08
-5.99907e-08
3.35884e-06
8.50009e-08
6.45881e-08
-2.22727e-07
-1.61087e-07
7.36314e-06
3.14115e-07
-1.39576e-07
-1.23517e-07
7.36135e-06
-4.44774e-08
-1.70636e-07
6.96069e-06
3.0151e-08
-1.39312e-07
6.63683e-06
7.40035e-08
-8.41186e-08
5.78762e-06
9.66381e-08
-5.32016e-08
4.833e-06
-3.89243e-08
3.92936e-06
1.03506e-07
-1.17553e-07
-5.44002e-08
5.26421e-06
3.15065e-07
-5.28645e-08
-3.74162e-09
4.15509e-06
8.8834e-09
-5.09067e-08
5.31859e-06
9.5263e-08
-5.12499e-08
6.84222e-06
1.20838e-07
-1.03364e-08
6.58034e-06
1.30916e-07
3.46312e-09
5.4943e-06
2.19479e-09
4.44035e-06
1.30421e-07
-1.13143e-07
-1.1577e-08
4.35723e-06
2.26807e-07
-9.40042e-09
4.35662e-08
4.53293e-06
4.1059e-08
1.21533e-08
4.08615e-06
1.35972e-07
5.86843e-08
5.84125e-06
1.63193e-07
9.4574e-08
6.97731e-06
1.6187e-07
8.44249e-08
6.0218e-06
5.76203e-08
4.84115e-06
1.54926e-07
8.12195e-08
5.56627e-08
6.50555e-06
2.30741e-07
-4.83375e-08
3.13562e-08
7.61746e-06
-3.71758e-08
1.02713e-07
4.67817e-06
6.5237e-08
7.76828e-08
4.94416e-06
1.48217e-07
1.61765e-07
7.24706e-06
1.63061e-07
1.5172e-07
6.32301e-06
1.06525e-07
5.07716e-06
1.63975e-07
-4.37259e-08
1.60477e-07
4.95612e-06
3.09602e-07
-1.05091e-08
7.44104e-08
4.63897e-06
1.80886e-08
1.47339e-07
4.23436e-06
1.07768e-07
2.44295e-07
5.62438e-06
1.5378e-07
2.52954e-07
7.19065e-06
1.63153e-07
2.16094e-07
6.34495e-06
1.47532e-07
5.1195e-06
1.66372e-07
-7.36601e-08
5.87716e-06
2.73233e-07
3.01075e-07
-4.90558e-08
4.92005e-06
3.12281e-07
-6.399e-09
4.99921e-06
3.51855e-07
7.11988e-08
6.67701e-06
3.82466e-07
1.16753e-07
7.06966e-06
3.14222e-07
1.4421e-07
6.10521e-06
2.44199e-07
4.96963e-06
1.67372e-07
1.56702e-07
-1.87645e-07
-9.03856e-08
6.56329e-06
2.02157e-07
1.29268e-07
-1.36363e-07
-1.10603e-07
6.49531e-06
1.27243e-07
-6.95036e-08
-1.1789e-07
6.1338e-06
1.24128e-07
-1.45113e-08
-9.14108e-08
5.55272e-06
1.03606e-07
2.63173e-08
-7.09799e-08
4.84289e-06
8.3335e-08
5.35314e-08
-5.79772e-08
4.08876e-06
6.70958e-08
-4.96113e-08
3.34101e-06
6.70507e-08
5.39173e-08
-2.46361e-07
-3.01833e-08
7.30194e-06
2.74975e-07
-1.73451e-07
-5.78087e-08
7.32424e-06
-9.20571e-08
-8.90414e-08
6.87555e-06
-2.07126e-08
-6.9075e-08
6.54316e-06
2.98732e-08
-4.48199e-08
5.71085e-06
6.21548e-08
-3.46896e-08
4.77742e-06
-3.21252e-08
3.8959e-06
7.81565e-08
-1.74118e-07
9.61609e-09
5.31371e-06
2.99137e-07
-8.34152e-08
1.00063e-08
4.50329e-06
-3.89429e-08
-4.41248e-08
5.46477e-06
1.53248e-08
-8.47107e-09
6.79252e-06
5.67476e-08
1.33236e-08
6.4834e-06
8.36235e-08
1.10818e-08
5.42151e-06
1.12267e-09
4.3936e-06
9.7027e-08
-1.83961e-07
5.13776e-08
4.48794e-06
3.92829e-07
-9.90814e-08
4.80115e-08
4.47726e-06
-6.09757e-10
3.51489e-08
4.72445e-06
5.37389e-08
6.11091e-08
5.95467e-06
8.74376e-08
9.76975e-08
6.87225e-06
1.05769e-07
7.78069e-08
5.93678e-06
4.64595e-08
4.7857e-06
1.15758e-07
-3.76122e-07
9.92343e-08
7.16214e-06
6.27315e-07
-1.59727e-07
9.57755e-08
5.67047e-06
-7.25824e-08
1.25264e-07
4.49131e-06
8.24892e-09
1.13661e-07
5.28575e-06
7.47153e-08
1.54712e-07
7.18678e-06
1.06371e-07
1.32484e-07
6.23649e-06
8.64149e-08
5.02007e-06
1.23264e-07
-1.26268e-07
1.94993e-07
6.81137e-06
5.75615e-07
-8.46622e-08
1.27825e-07
4.55561e-06
-3.58611e-08
1.52662e-07
4.14754e-06
1.92875e-08
2.22633e-07
5.76391e-06
7.0545e-08
2.13118e-07
7.10127e-06
1.03658e-07
1.78082e-07
6.26602e-06
1.16609e-07
5.0674e-06
1.25409e-07
-1.64853e-07
5.82893e-06
3.02255e-07
1.98776e-07
-8.99299e-08
4.93009e-06
2.68268e-07
-5.17839e-08
4.90278e-06
2.84947e-07
-2.00085e-08
6.59218e-06
2.82103e-07
4.3314e-08
6.98981e-06
2.41806e-07
9.25783e-08
6.04184e-06
1.91982e-07
4.92866e-06
1.31987e-07
1.18107e-07
-1.46231e-07
-8.33534e-09
6.50189e-06
1.43914e-07
7.20396e-08
-1.22164e-07
-5.65234e-09
6.42177e-06
5.48031e-08
-8.1318e-08
-1.55789e-08
6.05617e-06
5.21599e-08
-3.71618e-08
-2.17924e-08
5.48105e-06
4.91797e-08
2.55086e-09
-2.86927e-08
4.78458e-06
4.70608e-08
3.22528e-08
-3.3719e-08
4.04817e-06
4.43929e-08
-3.68603e-08
3.31978e-06
4.92761e-08
4.07863e-08
-2.05719e-07
4.53512e-08
7.17887e-06
2.02135e-07
-1.7735e-07
3.61452e-08
7.23585e-06
-1.29892e-07
1.9133e-08
6.77592e-06
-6.73241e-08
6.58346e-09
6.44714e-06
-1.13696e-08
-4.1113e-09
5.62986e-06
2.91412e-08
-1.47047e-08
4.7174e-06
-2.33156e-08
3.85872e-06
5.25256e-08
-1.83403e-07
4.25157e-08
5.14841e-06
2.12549e-07
-1.04274e-07
1.63369e-08
4.6719e-06
-1.00753e-07
1.60036e-08
5.3537e-06
-6.17247e-08
2.28196e-08
6.67989e-06
-6.70242e-09
3.33666e-08
6.38414e-06
3.70274e-08
1.78027e-08
5.34523e-06
9.8535e-10
4.34319e-06
6.28519e-08
-3.60544e-07
1.42161e-07
4.07797e-06
3.01788e-07
-4.11975e-08
4.22484e-08
5.54097e-06
-3.65993e-08
1.69241e-08
4.63835e-06
-3.08571e-08
4.50069e-08
5.82469e-06
8.23488e-09
8.71635e-08
6.75499e-06
4.89805e-08
6.32113e-08
5.85025e-06
3.3422e-08
4.72685e-06
7.51245e-08
-5.55528e-07
1.44498e-07
5.25585e-06
4.31226e-07
-2.25934e-07
1.1534e-07
7.23378e-06
-5.09965e-08
1.34272e-07
6.35643e-06
-5.72958e-08
1.04886e-07
5.49716e-06
-3.34336e-09
1.14168e-07
7.08308e-06
4.9032e-08
9.83381e-08
6.14892e-06
6.11956e-08
4.95945e-06
8.17293e-08
-4.51143e-07
7.40723e-08
6.03094e-06
4.08618e-07
-1.29009e-07
1.28765e-07
4.87439e-06
-5.97713e-08
1.27895e-07
4.07374e-06
-4.9501e-08
1.32451e-07
5.65314e-06
-4.66127e-09
1.44149e-07
6.99406e-06
4.96677e-08
1.2577e-07
6.18412e-06
8.04717e-08
5.01101e-06
8.66665e-08
-2.2522e-07
5.20058e-06
2.30417e-07
8.80537e-08
-1.14957e-07
4.83034e-06
1.45692e-07
-8.52866e-08
4.64185e-06
1.54933e-07
-7.69472e-08
6.45047e-06
1.60465e-07
-1.27115e-08
6.88276e-06
1.54427e-07
5.01558e-08
5.9727e-06
1.31928e-07
4.88246e-06
9.90598e-08
7.77187e-08
-9.23373e-08
-2.3944e-08
6.44468e-06
9.8161e-08
7.53166e-08
-8.39627e-08
1.4105e-08
6.35454e-06
4.45032e-08
-6.08703e-08
9.99851e-09
5.98605e-06
3.69096e-08
-2.8438e-08
-4.00403e-09
5.41576e-06
3.6744e-08
5.71764e-09
-1.95158e-08
4.73082e-06
3.88317e-08
3.21221e-08
-2.97595e-08
4.01108e-06
4.00235e-08
-3.61575e-08
3.30094e-06
4.74258e-08
3.92897e-08
-1.1849e-07
2.47561e-08
7.02523e-06
1.28793e-07
-1.25035e-07
6.45738e-08
7.08319e-06
-1.08492e-07
5.07605e-08
6.64264e-06
-6.2776e-08
3.15063e-08
6.35612e-06
-1.18956e-08
4.87017e-09
5.55416e-06
2.64879e-08
-1.26476e-08
4.6615e-06
-2.46378e-08
3.82467e-06
4.86371e-08
-9.43718e-08
2.60152e-08
4.91486e-06
1.09133e-07
-7.34429e-08
4.66661e-08
4.57434e-06
-9.67641e-08
4.06852e-08
5.20676e-06
-7.26061e-08
4.26494e-08
6.52e-06
-1.60254e-08
3.36432e-08
6.28478e-06
2.96714e-08
1.29139e-08
5.27371e-06
-4.5514e-09
4.29652e-06
5.59551e-08
-8.14174e-08
6.22039e-08
4.00993e-06
1.03172e-07
-3.17148e-08
6.14516e-08
5.27138e-06
-5.01246e-08
3.56291e-08
3.677e-06
-5.49766e-08
3.60667e-08
5.63969e-06
-1.02002e-08
6.43717e-08
6.60774e-06
3.71394e-08
4.61483e-08
5.76934e-06
2.16704e-08
4.67207e-06
6.55393e-08
-1.97375e-07
9.39089e-08
4.64148e-06
1.17226e-07
-1.82051e-07
3.4931e-08
7.33916e-06
-6.9582e-08
-6.87939e-09
6.44908e-06
-7.34111e-08
4.94054e-08
5.38667e-06
-2.09456e-08
7.57034e-08
6.95601e-06
3.62994e-08
7.11859e-08
6.06654e-06
4.37383e-08
4.90254e-06
7.10602e-08
-3.01652e-07
-3.41261e-09
4.40262e-06
1.11968e-07
-8.80009e-08
-5.94854e-09
5.18933e-06
-4.61428e-08
4.39731e-09
4.00733e-06
-6.63866e-08
4.05541e-08
5.5347e-06
-1.99109e-08
8.82759e-08
6.85153e-06
3.83307e-08
9.06942e-08
6.10633e-06
5.87421e-08
4.95765e-06
7.66058e-08
-1.08733e-07
5.01639e-06
1.07048e-07
6.14051e-08
-7.31114e-08
4.80092e-06
5.88602e-08
-6.90714e-08
4.61677e-06
5.94627e-08
-7.3301e-08
6.36179e-06
8.41795e-08
-1.75712e-08
6.77769e-06
1.02603e-07
4.21267e-08
5.90647e-06
9.72176e-08
4.8383e-06
8.90178e-08
5.59607e-08
-6.77281e-08
-7.37688e-08
6.40264e-06
8.65578e-08
9.69272e-08
-5.78057e-08
-2.69685e-08
6.30383e-06
6.77862e-08
-3.40607e-08
-3.12763e-08
5.93213e-06
6.14191e-08
-5.49418e-09
-3.25376e-08
5.3643e-06
5.53205e-08
2.31126e-08
-3.78902e-08
4.68826e-06
5.17001e-08
4.40041e-08
-4.14642e-08
3.98259e-06
4.89721e-08
-4.39716e-08
3.2883e-06
5.47737e-08
4.5855e-08
-6.71963e-08
-5.08797e-08
6.93743e-06
1.05601e-07
-7.88114e-08
2.45166e-08
6.93934e-06
-6.41031e-08
9.29893e-09
6.5425e-06
-2.5953e-08
-3.80985e-09
6.28735e-06
1.41517e-08
-1.69515e-08
5.49312e-06
4.32887e-08
-2.57955e-08
4.61665e-06
-3.34075e-08
3.79852e-06
5.87252e-08
-1.54467e-08
-3.38008e-08
4.86078e-06
8.50876e-08
-4.05499e-08
2.07586e-08
4.40026e-06
-4.6594e-08
1.15341e-08
5.07073e-06
-2.45733e-08
1.60004e-08
6.37833e-06
1.85603e-08
1.25274e-08
6.20987e-06
5.08512e-08
2.13484e-10
5.21532e-06
-1.3359e-08
4.2591e-06
6.81893e-08
3.43285e-09
-7.15035e-08
3.97578e-06
5.83436e-08
8.156e-09
-3.09432e-08
4.13769e-06
-7.95556e-09
1.93923e-08
3.60269e-06
-5.67355e-09
3.37022e-08
5.46167e-06
3.11651e-08
5.06499e-08
6.51734e-06
6.1075e-08
3.65464e-08
5.7031e-06
1.39042e-08
4.6272e-06
7.8632e-08
4.62026e-08
3.21732e-08
4.50302e-06
-2.20343e-08
5.34117e-09
4.03534e-09
7.4392e-06
-3.56752e-08
-3.03851e-08
3.98983e-06
-3.66897e-08
2.36227e-08
5.26704e-06
1.26031e-08
6.08579e-08
6.84798e-06
5.66921e-08
6.06098e-08
5.9983e-06
3.59359e-08
4.85518e-06
8.20083e-08
8.14655e-09
5.05713e-08
4.28482e-06
6.73651e-08
1.17213e-08
-1.21656e-08
4.31221e-06
-1.23445e-08
-5.28303e-09
3.95863e-06
-1.99585e-08
4.39357e-08
5.38737e-06
1.77627e-08
8.41068e-08
6.75539e-06
5.756e-08
8.45134e-08
6.04267e-06
5.25007e-08
4.91308e-06
8.55895e-08
1.58797e-08
5.26813e-06
5.86619e-08
9.09284e-08
-1.89903e-08
4.86925e-06
6.61792e-08
-3.52011e-08
4.79594e-06
6.27477e-08
-3.81654e-08
6.28285e-06
8.82046e-08
5.95059e-09
6.71102e-06
1.00875e-07
5.3724e-08
5.85214e-06
9.11337e-08
4.80092e-06
9.32604e-08
5.02816e-08
-7.46031e-08
-2.86463e-08
6.3529e-06
8.16421e-08
7.13303e-08
-6.33662e-08
-8.70101e-09
6.24615e-06
5.53057e-08
-3.22583e-08
-3.2375e-08
5.87276e-06
6.07309e-08
-1.43955e-10
-3.53627e-08
5.30922e-06
5.82011e-08
2.89654e-08
-4.21203e-08
4.64511e-06
5.62707e-08
4.8914e-08
-4.63355e-08
3.95531e-06
5.38509e-08
-4.86712e-08
3.27762e-06
5.81154e-08
5.04596e-08
-8.42709e-08
2.37884e-09
6.84165e-06
1.01844e-07
-9.30279e-08
3.39622e-08
6.78709e-06
-6.26172e-08
1.01516e-09
6.45508e-06
-2.13128e-08
-2.28294e-09
6.21494e-06
2.04318e-08
-1.89078e-08
5.42864e-06
4.93269e-08
-2.98475e-08
4.57175e-06
-3.83085e-08
3.774e-06
6.35962e-08
-2.71258e-08
-1.56569e-08
4.77671e-06
7.13694e-08
-4.76657e-08
3.21944e-08
4.10327e-06
-4.48775e-08
-3.5375e-09
4.91521e-06
-2.3857e-08
2.06297e-08
6.22984e-06
2.29191e-08
1.41745e-08
6.13447e-06
5.62529e-08
-2.72299e-09
5.15495e-06
-1.84671e-08
4.22241e-06
7.31137e-08
-1.96455e-08
-5.91369e-08
3.96086e-06
6.35267e-08
-1.13504e-09
1.94215e-09
4.13449e-06
-2.80871e-09
1.26531e-09
3.5952e-06
-1.23974e-08
5.05172e-08
5.27291e-06
2.94032e-08
5.44023e-08
6.43425e-06
6.35114e-08
3.40341e-08
5.63255e-06
8.26607e-09
4.58199e-06
8.2109e-08
4.29199e-08
5.25342e-10
6.63103e-06
1.22642e-07
-8.14195e-09
-1.35581e-08
5.91486e-06
-6.00011e-08
2.66987e-08
4.01148e-06
-5.21761e-08
2.06869e-08
4.97365e-06
1.99525e-09
6.06864e-08
6.73862e-06
5.44169e-08
5.55507e-08
5.92434e-06
2.85226e-08
4.80655e-06
8.29038e-08
1.37411e-08
4.36524e-08