/*--------------------------------*- C++ -*----------------------------------*\
| =========                 |                                                 |
| \\      /  F ield         | OpenFOAM: The Open Source CFD Toolbox           |
|  \\    /   O peration     | Version:  plus.master.MPPICInterFoam            |
|   \\  /    A nd           | Web:      www.OpenFOAM.com                      |
|    \\/     M anipulation  |                                                 |
\*---------------------------------------------------------------------------*/
FoamFile
{
    version     2.0;
    format      ascii;
    class       volScalarField;
    location    "11.2";
    object      rho;
}
// * * * * * * * * * * * * * * * * * * * * * * * * * * * * * * * * * * * * * //

dimensions      [1 -3 0 0 0 0 0];

internalField   nonuniform List<scalar> 
11821
(
1000
1000
1000
989.721
1000
1000
1000
1000
1000
1000
1000
1000
1000
943.512
961.505
945.51
976.88
999.999
1000
1000
786.234
560.331
642.402
866.328
977.415
1000
1000
728.076
682.141
551.793
721.733
943.269
1000
1000
825.24
691.789
553.524
640.316
937.525
1000
1000
809.285
713.722
550.994
792.137
919.25
1000
1000
759.565
725.91
662.58
831.157
973.063
1000
1000
1000
1000
1000
1000
1000
1000
1000
869.839
862.312
854.834
954.848
998.816
1000
1000
483.499
370.814
429.827
686.093
952.754
1000
1000
357.354
678.387
456.915
465.728
856.649
1000
1000
587.855
751.918
748.927
376.792
814.259
1000
1000
379.059
458.668
348.04
488.533
808.999
1000
1000
465.728
383.56
384.463
610.222
930.015
1000
1000
1000
1000
1000
1000
1000
1000
1000
854.721
824.986
833.427
953.646
998.389
1000
1000
375.575
365.76
362.059
653.436
951.148
1000
1000
346.857
459.946
345.94
376.57
840.714
1000
1000
354.475
751.918
691.629
354.655
788.429
1000
1000
347.75
347.367
346.97
348.037
799.687
1000
1000
409.679
352.187
349.924
580.196
923.132
1000
1000
1000
1000
1000
1000
1000
1000
1000
900.217
873.874
885.405
972.508
999.284
1000
1000
471.184
381.8
430.792
753.809
972.751
1000
1000
345.824
343.638
345.01
466.667
895.148
1000
1000
346.849
751.845
408.702
413.836
858.553
1000
1000
347.32
346.918
346.972
437.704
871.952
1000
1000
525.962
424.587
463.862
700.134
950.782
1000
1000
1000
1000
1000
1000
1000
1000
1000
954.166
953.444
948.794
988.371
999.954
1000
1000
684.819
493.455
617.683
886.011
990.157
1000
1000
435.799
343.196
376.926
684.363
956.494
1000
1000
423.585
380.061
345.907
558.54
948.412
1000
1000
499.68
347.252
369.156
683.504
944.063
999.999
1000
743.637
654.607
668.105
845.956
977.437
999.997
1000
1000
1000
1000
1000
1000
1000
1000
956.613
968.792
953.592
989.859
1000
1000
1000
721.082
556.763
669.706
893.634
991.677
1000
1000
572.711
343.289
431.501
731.311
961.819
1000
1000
661.011
343.243
344.547
594.227
961.355
1000
1000
738.87
424.316
395.623
749.508
946.625
1000
1000
741.073
695.271
669.53
834.901
977.853
1000
1000
1000
1000
1000
1000
1000
1000
1000
934.752
952.277
936.947
987.412
1000
1000
1000
627.476
518.652
607.338
858.846
988.84
1000
1000
484.892
407.405
397.635
662.407
949.236
1000
1000
674.388
517.577
410.366
552.786
945.558
1000
1000
692.91
527.557
353.98
668.93
925.457
1000
1000
579.893
534.114
533.932
747.405
965.787
1000
1000
1000
1000
1000
1000
1000
1000
1000
902.2
913.704
911.915
983.426
1000
1000
1000
465.184
415.854
495.936
819.427
984.387
1000
1000
343.134
530.126
339.006
546.648
930.367
1000
1000
421.427
652.725
646.907
481.692
914.819
1000
1000
348.421
443.323
335.801
504.268
899.809
1000
1000
427.825
384.408
393.445
685.961
950.251
1000
1000
1000
1000
1000
1000
1000
1000
1000
899.018
899.84
908.385
983.072
999.989
1000
1000
445.964
387.26
485.452
819.502
984.042
1000
1000
342.546
426.379
338.256
541.492
928.664
1000
1000
342.584
652.725
490.639
469.197
908.09
1000
1000
339.677
336.45
335.621
483.532
899.769
1000
1000
438.306
373.003
404.477
697.333
949.095
1000
1000
1000
1000
1000
1000
1000
1000
1000
907.53
906.895
914.829
984.164
999.997
1000
1000
487.357
386.457
527.061
840.77
985.621
1000
1000
341.905
338.464
337.639
589.454
935.673
1000
1000
348.698
652.703
335.641
472.307
916.274
1000
1000
340.646
335.642
335.652
528.439
911.024
1000
1000
510.37
402.702
453.765
732.492
952.256
1000
1000
1000
1000
1000
1000
1000
1000
1000
911.947
917.922
920.355
984.844
1000
1000
1000
525.623
412.234
577.413
860.508
986.554
1000
1000
367.682
339.611
378.04
642.319
940.175
1000
1000
570.064
397.535
335.662
501.35
926.961
1000
1000
476.153
335.662
335.642
577.35
917.571
1000
1000
537.574
423.502
461.054
739.954
953.192
1000
1000
1000
1000
1000
1000
1000
1000
1000
907.905
919.245
920.122
984.794
1000
1000
1000
519.657
449.807
584.486
861.948
986.484
1000
1000
361.417
361.413
436.595
648.796
939.333
1000
1000
535.997
504.6
521.689
543.698
929.26
1000
1000
556.047
338.473
335.566
584.95
916.857
1000
1000
498.453
419.039
441.016
733.64
951.169
1000
1000
1000
1000
1000
1000
1000
1000
1000
897.508
913.529
915.826
984.349
1000
1000
1000
496.766
457.33
579.386
856.65
985.566
1000
1000
321.423
487.245
391.68
641.952
933.899
1000
1000
331.439
561.832
559.587
558.72
926.629
1000
1000
455.794
406.3
335.418
582.572
911.592
1000
1000
449.617
415.519
434.986
730.456
947.175
1000
1000
1000
1000
1000
1000
1000
1000
1000
891.013
903.302
909.844
984.177
1000
1000
1000
493.018
450.463
571.008
848.037
985.143
1000
1000
321.551
373.981
324.045
629.813
928.756
1000
1000
321.726
561.832
497.008
557
922.193
1000
1000
322.984
381.226
333.619
576.328
906.45
1000
1000
463.793
423.035
452.196
729.723
945.637
1000
1000
1000
1000
1000
1000
1000
1000
1000
885.492
891.986
906.284
984.508
1000
1000
1000
491.487
428.364
561.548
838.782
985.693
1000
1000
321.594
321.616
321.634
617.03
928.744
1000
1000
403.514
546.571
321.987
543.03
918.855
1000
1000
347.95
322.473
325.591
564.548
904.207
1000
1000
509.987
430.253
463.083
721.335
945.142
1000
1000
1000
1000
1000
1000
1000
1000
1000
871.53
873.756
902.693
984.928
1000
1000
1000
457.039
396.096
532.091
823.822
986.901
1000
1000
321.601
321.614
321.555
586.55
928.952
1000
1000
593.587
331.092
321.675
495.349
912.064
1000
1000
442.128
321.991
321.722
521.568
899.678
1000
1000
504.194
411.821
433.697
681.211
943.426
1000
1000
999.974
999.968
1000
1000
1000
1000
1000
1000
1000
1000
1000
1000
1000
1000
1000
1000
1000
1000
1000
1000
1000
1000
1000
1000
1000
1000
1000
1000
1000
1000
1000
1000
1000
1000
1000
1000
1000
1000
999.999
1000
1000
1000
1000
1000
1000
1000
999.653
997.903
1000
1000
1000
1000
1000
999.998
999.977
999.98
1000
1000
1000
1000
1000
1000
1000
1000
1000
1000
1000
1000
1000
1000
1000
1000
1000
1000
1000
1000
1000
1000
1000
1000
1000
1000
1000
1000
1000
1000
1000
1000
1000
1000
1000
1000
1000
1000
999.996
1000
1000
1000
1000
1000
1000
1000
999.575
997.577
1000
1000
1000
1000
1000
999.998
999.985
999.988
1000
1000
1000
1000
1000
1000
1000
1000
1000
1000
1000
1000
1000
1000
1000
1000
1000
1000
1000
1000
1000
1000
1000
1000
1000
1000
1000
1000
1000
1000
1000
1000
1000
1000
1000
1000
1000
1000
999.999
999.999
1000
1000
1000
1000
1000
1000
999.516
997.707
1000
1000
1000
1000
1000
999.998
999.991
999.994
1000
1000
1000
1000
1000
1000
1000
1000
1000
1000
1000
1000
1000
1000
1000
1000
1000
1000
1000
1000
1000
1000
1000
1000
1000
1000
1000
1000
1000
1000
1000
1000
1000
1000
1000
1000
1000
1000
1000
999.994
1000
1000
1000
1000
1000
1000
999.57
998.025
1000
1000
1000
1000
1000
999.999
999.997
999.998
1000
1000
1000
1000
1000
1000
1000
1000
1000
1000
1000
1000
1000
1000
1000
1000
1000
1000
1000
1000
1000
1000
1000
1000
1000
1000
1000
1000
1000
1000
1000
1000
1000
1000
1000
1000
999.999
999.996
999.999
999.993
1000
1000
1000
1000
1000
1000
999.655
998.077
1000
1000
1000
1000
1000
999.999
1000
1000
1000
1000
1000
1000
1000
1000
1000
1000
1000
1000
1000
1000
1000
1000
1000
1000
1000
1000
1000
1000
1000
1000
1000
1000
1000
1000
1000
1000
1000
1000
1000
1000
1000
1000
1000
1000
999.988
999.954
999.985
999.997
1000
1000
1000
1000
1000
1000
999.674
998.071
1000
1000
1000
1000
1000
1000
1000
1000
1000
1000
1000
1000
1000
1000
1000
1000
1000
1000
1000
1000
1000
1000
1000
1000
1000
1000
1000
1000
1000
1000
1000
1000
1000
1000
1000
1000
1000
1000
1000
1000
1000
999.998
999.999
1000
999.96
999.923
999.951
1000
1000
1000
1000
1000
1000
1000
999.648
998.241
1000
1000
1000
1000
1000
1000
1000
1000
1000
1000
1000
1000
1000
1000
1000
1000
1000
1000
1000
1000
1000
1000
1000
1000
1000
1000
1000
1000
1000
1000
1000
1000
1000
1000
1000
1000
1000
1000
1000
1000
1000
999.998
999.999
1000
999.952
999.93
999.92
999.998
1000
1000
1000
1000
1000
1000
999.616
998.695
1000
1000
1000
1000
1000
1000
1000
1000
1000
1000
1000
1000
1000
1000
1000
1000
1000
1000
1000
1000
1000
1000
1000
1000
1000
1000
1000
1000
1000
1000
1000
1000
1000
1000
1000
1000
1000
1000
1000
1000
1000
999.998
999.999
1000
999.962
999.919
999.916
999.993
1000
1000
1000
1000
1000
1000
999.583
999.025
1000
1000
1000
1000
1000
1000
1000
1000
1000
1000
1000
1000
1000
1000
1000
1000
1000
1000
1000
1000
1000
1000
1000
1000
1000
1000
1000
1000
1000
1000
1000
1000
1000
1000
1000
1000
1000
1000
1000
1000
999.999
999.998
999.999
1000
999.974
999.91
999.936
999.988
1000
1000
1000
1000
1000
1000
999.564
999.255
1000
1000
1000
1000
1000
1000
1000
1000
1000
1000
1000
1000
1000
1000
1000
1000
1000
1000
1000
1000
1000
1000
1000
1000
1000
1000
1000
1000
1000
1000
1000
1000
1000
1000
1000
1000
1000
1000
1000
1000
999.998
999.998
1000
1000
999.986
999.957
999.973
999.99
1000
1000
1000
1000
1000
1000
999.58
999.418
1000
1000
1000
1000
1000
1000
1000
1000
1000
1000
1000
1000
1000
1000
1000
1000
1000
1000
1000
1000
1000
1000
1000
999.999
1000
1000
1000
1000
1000
1000
1000
999.999
1000
1000
1000
1000
1000
1000
999.998
1000
999.998
999.998
1000
1000
1000
999.998
999.992
999.994
1000
1000
1000
1000
1000
1000
999.64
999.554
1000
1000
1000
1000
1000
1000
1000
1000
1000
1000
1000
1000
1000
1000
1000
1000
1000
1000
1000
1000
1000
1000
1000
999.999
1000
1000
1000
1000
1000
999.999
1000
999.999
1000
1000
1000
1000
1000
999.997
999.991
999.999
999.998
999.999
1000
1000
1000
1000
999.99
999.997
1000
1000
1000
1000
1000
1000
999.729
999.671
1000
1000
1000
1000
1000
1000
1000
1000
1000
1000
1000
1000
1000
1000
1000
1000
1000
1000
1000
1000
1000
1000
1000
999.999
1000
1000
1000
1000
1000
999.999
1000
999.998
1000
1000
1000
1000
1000
999.97
999.982
999.999
1000
1000
1000
1000
1000
1000
999.957
999.999
1000
1000
1000
1000
1000
1000
999.807
999.773
1000
1000
1000
1000
1000
1000
1000
1000
1000
1000
1000
1000
1000
1000
1000
1000
1000
1000
1000
1000
1000
1000
1000
999.999
1000
1000
1000
1000
1000
1000
1000
999.996
1000
1000
1000
1000
999.998
999.947
999.975
999.999
1000
1000
1000
1000
999.984
999.865
999.905
999.999
1000
1000
1000
1000
1000
1000
999.867
999.846
1000
1000
1000
1000
1000
1000
1000
1000
1000
1000
1000
1000
1000
1000
1000
1000
1000
1000
1000
1000
1000
1000
1000
999.999
1000
1000
1000
1000
1000
1000
1000
999.994
1000
1000
1000
1000
999.995
999.948
999.975
999.999
1000
1000
1000
1000
999.857
998.924
999.87
999.999
1000
1000
1000
1000
1000
1000
999.906
999.884
1000
1000
1000
1000
1000
1000
1000
1000
1000
1000
1000
1000
1000
1000
1000
1000
1000
1000
1000
1000
1000
1000
1000
999.999
1000
1000
1000
1000
1000
1000
1000
999.99
1000
1000
1000
1000
999.995
999.979
999.979
999.999
1000
1000
1000
1000
999.484
998.744
999.867
999.996
941.543
1000
1000
1000
1000
999.998
1000
1000
776.659
969.245
1000
1000
1000
999.97
999.907
999.94
723.185
932.999
1000
1000
1000
1000
999.569
999.64
786.643
961.094
1000
999.998
999.969
999.997
999.441
999.829
892.294
999.999
999.999
999.899
999.746
999.897
999.441
999.943
997.309
999.999
999.999
999.772
999.888
1000
999.966
999.999
1000
999.998
1000
1000
1000
1000
1000
1000
868.517
1000
1000
1000
1000
999.997
1000
1000
483.625
918.399
1000
1000
1000
999.941
999.888
999.972
415.387
823.724
1000
1000
1000
1000
999.442
999.92
471.755
893.147
1000
999.999
999.978
999.997
999.441
999.949
759.402
999.01
1000
999.843
999.872
999.913
999.441
999.961
986.911
1000
1000
999.781
999.953
999.976
999.943
999.999
1000
999.999
1000
1000
1000
1000
1000
999.989
850.794
999.996
1000
1000
1000
999.996
1000
999.999
455.803
911.582
1000
1000
1000
999.924
999.859
999.981
374.706
806.859
1000
1000
1000
1000
999.444
999.943
408.244
876.495
1000
999.998
999.989
1000
999.489
999.983
737.078
997.918
999.999
999.842
999.966
999.944
999.441
999.982
981.537
999.999
1000
999.925
999.998
999.849
999.914
999.781
1000
999.999
1000
1000
1000
999.999
1000
999.904
883.559
999.995
1000
1000
1000
999.996
999.999
999.999
605.585
945.495
1000
1000
1000
999.908
999.831
999.985
487.342
871.21
999.993
1000
1000
1000
999.454
999.972
535.571
918.69
999.998
999.999
999.999
999.997
999.938
999.999
811.617
999.098
999.999
999.842
999.99
999.942
999.682
999.814
986.716
999.999
1000
999.998
1000
999.83
999.918
999.053
999.999
999.999
999.999
1000
1000
999.997
1000
999.782
914.879
999.654
1000
1000
1000
999.996
999.997
999.999
834.289
961.073
1000
1000
1000
999.891
999.849
999.99
770.914
926.613
999.999
1000
1000
999.97
999.907
999.994
771.662
954.366
1000
1000
1000
999.988
1000
1000
895.796
999.917
1000
999.971
1000
999.888
999.887
999.112
993.921
999.994
1000
1000
1000
999.83
999.922
998.951
1000
999.999
999.998
999.999
1000
999.997
1000
999.739
900.904
999.307
1000
1000
1000
999.997
999.997
999.999
808.194
942.427
1000
1000
1000
999.905
999.935
999.995
792.159
905.333
999.992
1000
1000
999.957
1000
1000
778.641
943.698
1000
1000
1000
999.982
999.997
1000
886.589
999.735
1000
1000
1000
999.859
999.888
998.951
994.356
999.998
1000
1000
1000
999.845
999.936
998.95
1000
999.998
999.998
999.999
1000
999.998
1000
999.754
852.385
999.455
1000
1000
999.999
999.999
999.997
1000
572.476
900.155
1000
1000
999.999
999.982
999.997
999.999
543.909
835.095
1000
1000
1000
999.987
1000
1000
623.576
903.162
1000
1000
1000
999.984
999.997
999.744
822.464
999.023
1000
1000
1000
999.862
999.865
998.95
990.188
999.999
1000
1000
1000
999.946
999.968
998.95
1000
999.997
999.998
1000
1000
1000
1000
999.825
820.209
999.822
1000
1000
999.999
1000
999.998
1000
433.248
880.556
1000
1000
999.996
1000
1000
1000
401.308
791.003
999.999
1000
1000
1000
999.998
1000
442.048
867.041
1000
1000
1000
999.987
999.991
999.077
761.982
997.382
1000
1000
1000
999.883
999.789
998.95
982.911
999.999
1000
1000
999.997
999.984
999.996
998.98
1000
999.997
999.998
1000
999.999
1000
1000
999.938
822.141
999.484
1000
1000
999.999
999.999
999.999
999.998
477.802
886.652
1000
1000
999.996
1000
1000
1000
398.584
801.816
999.998
1000
1000
1000
999.99
1000
448.801
867.619
1000
1000
1000
999.987
999.94
998.95
762.865
995.819
1000
1000
1000
999.908
999.659
998.95
981.079
999.975
1000
1000
999.973
999.99
999.988
999.362
1000
999.997
999.998
1000
999.998
1000
999.991
999.992
823.55
997.404
1000
1000
1000
999.999
1000
999.993
635.413
889.04
1000
1000
999.998
1000
1000
999.992
553.145
823.375
998.824
1000
1000
1000
999.989
999.884
535.629
875.255
1000
1000
1000
999.984
999.828
998.95
780.712
994.685
1000
1000
1000
999.922
999.551
998.949
981.632
999.924
1000
1000
999.967
999.999
999.695
999.743
1000
999.998
999.999
1000
999.997
1000
999.923
999.996
807.225
994.253
1000
1000
1000
1000
1000
999.987
682.594
861.917
1000.01
1000
1000
999.999
1000
999.596
676.22
807.996
997.306
1000
1000
1000
999.99
999.191
573.89
868.765
1000
1000
1000
999.973
999.757
998.949
782.394
993.021
1000
1000
1000
999.935
999.531
998.949
981.442
999.874
1000
1000
999.967
1000
999.378
999.811
1000
999.998
999.999
1000
999.997
1000
999.833
999.995
778.797
993.408
1000
1000
1000
1000
1000
999.985
572.746
823.171
999.999
1000
1000
999.998
1000
999.11
563.918
759.214
998.368
1000
1000
999.989
999.982
998.95
531.187
844.899
1000
1000
1000
999.969
999.762
998.949
765.972
990.358
1000
1000
1000
999.961
999.534
998.949
978.662
999.821
1000
1000
999.967
999.999
999.378
999.89
1000
999.998
999.998
1000
999.997
1000
999.827
999.996
779.666
993.507
1000
1000
1000
1000
1000
999.988
451.395
825.549
999.999
1000
1000
999.997
1000
999.193
387.133
750.682
999.258
1000
1000
999.966
999.974
998.949
471.477
831.2
1000
1000
1000
999.974
999.793
998.949
747.225
987.107
1000
1000
1000
999.995
999.517
998.949
974.884
999.76
1000
1000
999.987
999.999
999.378
999.989
1000
999.998
999.998
1000
999.999
1000
999.868
999.996
790.083
992.45
1000
1000
1000
1000
1000
999.996
488.504
842.706
999.899
1000
1000
999.986
1000
999.631
414.607
771.535
997.668
1000
1000
999.964
999.967
998.95
478.109
830.837
999.999
1000
1000
999.99
999.805
998.949
744.736
983.96
1000
1000
1000
1000
999.399
999.596
973.879
999.691
1000
1000
1000
1000
999.407
999.79
1000
999.998
999.998
1000
1000
1000
999.943
999.667
785.847
987.492
1000
1000
1000
1000
1000
1000
634.418
841.204
997.94
1000
1000
999.974
999.998
999.946
608.59
783.768
992.295
1000
1000
999.972
999.947
998.95
492.48
823.541
1000
1000
1000
1000
999.767
998.95
738.978
979.921
1000
1000
999.987
999.998
999.362
999.954
973.358
999.605
1000
1000
999.999
1000
999.566
998.267
1000
999.999
999.998
1000
1000
999.999
999.992
998.562
741.669
976.905
1000
1000
1000
999.999
1000
1000
659.574
788.263
994.794
1000
1000
999.978
999.995
999.973
654.592
740.679
986.284
1000
1000
999.995
999.782
998.95
460.104
778.552
999.951
1000
1000
1000
999.499
999.339
702.061
971.517
1000
1000
999.961
999.993
999.362
999.967
970.119
999.489
1000
999.998
999.997
1000
999.727
997.772
1000
1000
999.998
1000
1000
999.995
999.995
997.905
1000
1000
999.999
999.993
999.999
1000
1000
1000
1000
1000
999.988
999.984
999.998
1000
1000
999.997
1000
1000
999.987
999.993
1000
1000
999.991
999.796
1000
1000
1000
1000
1000
1000
999.977
999.931
1000
1000
1000
1000
1000
1000
999.873
998.574
1000
1000
1000
1000
1000
1000
999.719
998.821
1000
1000
1000
1000
1000
1000
999.485
996.869
1000
1000
999.997
999.991
999.999
1000
1000
1000
1000
1000
999.984
999.984
999.999
1000
1000
999.988
1000
1000
999.984
999.997
1000
1000
999.988
999.796
1000
1000
1000
1000
1000
1000
999.973
999.973
1000
1000
1000
1000
1000
1000
999.75
997.735
1000
1000
1000
1000
1000
1000
999.703
997.431
1000
1000
1000
1000
1000
1000
998.998
996.869
1000
1000
999.989
999.991
1000
1000
1000
1000
1000
999.999
999.984
999.988
1000
1000
1000
999.976
1000
999.999
999.985
999.999
1000
1000
999.988
999.933
1000
1000
1000
1000
1000
1000
999.905
999.816
1000
1000
1000
1000
1000
1000
999.586
996.911
1000
1000
1000
1000
1000
1000
999.522
996.869
1000
1000
1000
1000
1000
999.996
998.247
996.869
1000
1000
999.984
999.993
1000
1000
1000
1000
1000
999.997
999.984
999.995
1000
1000
1000
999.973
1000
999.999
999.994
1000
1000
1000
999.99
1000
1000
1000
1000
1000
1000
1000
999.804
998.785
1000
1000
1000
1000
1000
1000
999.534
997.12
1000
1000
1000
1000
1000
1000
999.005
996.869
1000
1000
1000
1000
1000
999.971
998.089
997.519
1000
999.999
999.984
999.995
1000
1000
1000
1000
1000
999.995
999.984
999.998
1000
1000
1000
999.977
1000
999.999
1000
1000
1000
1000
999.991
1000
1000
1000
1000
1000
1000
1000
999.756
998.365
1000
1000
1000
1000
1000
1000
999.614
998.718
1000
1000
1000
1000
1000
999.982
998.112
997.704
1000
1000
1000
1000
1000
999.966
998.245
998.027
1000
999.999
999.986
999.998
1000
1000
1000
1000
1000
999.995
999.987
1000
1000
1000
1000
999.995
1000
1000
1000
1000
1000
1000
999.986
1000
1000
1000
1000
1000
1000
999.999
999.763
998.365
1000
1000
1000
1000
1000
999.999
999.689
999.714
1000
1000
1000
1000
1000
999.944
998.003
998.494
1000
1000
1000
1000
1000
999.978
998.706
997.146
1000
999.999
999.999
1000
1000
1000
1000
1000
1000
999.997
999.998
1000
1000
1000
1000
1000
1000
1000
1000
1000
1000
1000
999.963
999.999
1000
1000
1000
1000
1000
999.997
999.846
998.881
1000
1000
1000
1000
1000
1000
999.146
999.883
1000
1000
1000
1000
1000
999.919
998.003
998.109
1000
1000
1000
1000
1000
999.978
998.887
996.995
1000
999.999
1000
1000
1000
1000
1000
1000
1000
1000
1000
1000
1000
1000
1000
1000
1000
1000
1000
1000
1000
1000
999.949
999.745
1000
1000
1000
1000
1000
999.991
999.986
999.906
1000
1000
1000
1000
1000
1000
998.482
999.96
1000
1000
1000
1000
1000
999.902
998.271
997.571
1000
1000
1000
1000
1000
999.972
998.809
996.995
1000
1000
1000
1000
1000
1000
1000
1000
1000
1000
1000
1000
1000
1000
1000
1000
1000
1000
1000
1000
1000
1000
999.95
999.665
1000
1000
1000
1000
1000
999.99
999.996
999.996
1000
1000
1000
1000
1000
1000
998.526
999.96
1000
1000
1000
1000
1000
999.865
998.645
997.421
1000
1000
1000
1000
1000
999.976
998.383
996.995
1000
1000
1000
1000
1000
1000
1000
999.999
1000
1000
1000
1000
1000
1000
1000
1000
1000
1000
1000
1000
1000
1000
999.964
999.665
1000
1000
1000
1000
1000
999.994
999.996
999.36
1000
1000
1000
1000
1000
1000
998.54
999.647
1000
1000
1000
1000
1000
999.784
998.927
997.774
1000
1000
1000
1000
1000
1000
997.71
996.995
1000
1000
1000
1000
1000
1000
1000
999.998
1000
1000
1000
1000
1000
1000
1000
1000
1000
1000
1000
1000
1000
1000
999.992
999.798
1000
1000
1000
1000
1000
999.999
999.983
998.783
1000
1000
1000
1000
1000
999.993
998.156
999.477
1000
1000
1000
1000
1000
999.672
999.47
998.598
1000
1000
1000
1000
1000
1000
997.397
996.995
1000
1000
1000
1000
1000
1000
1000
999.996
1000
1000
1000
1000
1000
1000
1000
1000
1000
1000
1000
1000
1000
999.999
1000
999.968
1000
1000
1000
1000
1000
1000
999.489
998.783
1000
1000
1000
1000
1000
999.934
997.88
999.521
1000
1000
1000
1000
1000
999.676
999.376
999.058
1000
1000
1000
1000
1000
1000
997.208
996.995
1000
1000
1000
1000
1000
1000
1000
999.989
1000
1000
1000
1000
1000
1000
1000
1000
1000
1000
1000
1000
1000
999.994
1000
1000
1000
1000
1000
1000
1000
1000
998.204
999.146
1000
1000
999.999
999.999
1000
999.923
997.877
999.619
1000
1000
1000
1000
1000
999.753
997.166
999.036
1000
1000
1000
1000
1000
1000
997.031
996.995
1000
1000
1000
1000
1000
1000
999.998
999.97
1000
1000
1000
1000
1000
1000
1000
1000
1000
1000
1000
1000
1000
999.994
1000
1000
1000
1000
1000
1000
1000
1000
998.162
999.81
1000
1000
999.999
999.999
1000
999.946
999.044
999.604
1000
1000
1000
1000
1000
999.751
997.078
998.955
1000
1000
1000
1000
1000
1000
997.078
996.996
1000
1000
1000
1000
1000
1000
999.992
999.934
1000
1000
1000
1000
1000
1000
1000
1000
1000
1000
1000
1000
1000
999.994
1000
1000
1000
1000
1000
999.999
1000
1000
999.41
999.974
1000
1000
999.999
999.999
1000
999.939
999.819
999.234
1000
1000
1000
1000
1000
999.726
997.085
998.927
1000
1000
1000
1000
1000
1000
997.535
996.996
1000
1000
1000
1000
1000
1000
999.986
999.902
1000
1000
1000
1000
1000
1000
1000
1000
1000
1000
1000
1000
1000
999.998
1000
1000
1000
1000
1000
999.999
1000
1000
1000
999.956
1000
1000
999.999
999.999
1000
999.453
999.841
998.88
1000
1000
1000
1000
1000
999.68
997.086
998.927
1000
1000
1000
1000
1000
1000
998.466
996.996
1000
1000
1000
999.999
1000
999.987
999.515
999.621
1000
1000
999.999
999.926
999.787
998.775
999.25
998.079
999.998
1000
1000
999.934
999.818
999.731
999.331
999.671
990.667
1000
1000
999.999
999.973
999.81
998.563
998.929
1000
1000
1000
999.978
999.571
998.217
999.963
998.217
1000
1000
1000
999.997
999.972
999.902
999.56
999.91
1000
1000
1000
999.997
999.582
998.775
999.752
998.079
1000
1000
1000
999.967
999.828
999.508
999.752
999.465
975.515
1000
1000
999.999
999.978
999.832
999.561
999.938
908.801
1000
1000
1000
1000
999.991
999.146
998.431
911.431
1000
1000
1000
999.998
1000
999.635
998.916
973.641
1000
1000
1000
1000
1000
999.983
999.938
1000
1000
1000
1000
999.841
999.774
999.739
999.96
1000
1000
1000
1000
999.346
999.085
999.556
998.494
999.995
1000
1000
999.991
999.82
998.278
999.744
998.158
941.498
1000
1000
1000
999.975
999.822
999.988
999.991
771.951
1000
1000
1000
1000
999.975
999.126
999.783
770.124
1000.01
1000
1000
999.998
1000
999.134
999.89
925.648
1000
1000
1000
1000
1000
999.963
999.939
1000
1000
1000
999.995
999.858
999.805
999.737
999.96
1000
1000
1000
999.996
999.306
999.637
997.886
999.443
999.295
1000
1000
1000
999.747
998.127
998.067
997.781
937.236
1000
1000
1000
999.966
999.807
999.976
999.991
752.899
1000.01
1000
1000
1000
999.931
999.126
999.985
744.411
1000.02
1000
1000
999.998
1000
999.126
999.956
913.166
1000
1000
1000
1000
1000
999.922
999.957
1000
1000
1000
999.969
999.921
999.886
999.689
999.948
1000
1000
1000
999.987
999.306
999.794
997.786
999.586
999.292
1000
1000
1000
999.653
998.066
997.781
997.781
958.626
1000
1000
1000
999.942
999.785
999.966
999.673
834.171
999.994
1000
1000
1000
999.808
999.674
999.999
826.72
999.992
1000
1000
1000
999.985
999.601
999.985
938.933
1000
1000
1000
1000
1000
999.882
999.973
1000
1000
1000
999.941
999.549
999.908
999.706
999.873
1000
1000
1000
999.965
999.581
999.887
997.971
999.529
999.777
1000
1000
1000
999.609
998.09
997.78
997.78
974.811
1000
1000
1000
999.891
999.769
999.954
998.337
902.118
999.997
1000
1000
1000
999.778
999.997
1000
904.146
999.997
1000
1000
1000
999.887
999.998
999.998
955.227
1000
1000
1000
1000
1000
999.882
999.985
1000
1000
1000
999.908
999.37
999.899
999.667
999.667
1000
1000
1000
999.88
999.895
999.898
999.173
999.121
1000
1000
1000
1000
999.578
998.75
998.591
997.78
972.821
1000
1000
1000
999.866
999.779
999.816
997.78
883.675
999.991
1000
1000
1000
999.941
999.999
1000
884.133
999.937
1000
1000
1000
999.856
999.983
1000
944.652
1000
1000
1000
1000
999.967
999.936
999.995
1000
1000
1000
999.918
999.37
999.713
999.419
999.582
1000
1000
1000
999.865
999.885
998.694
999.682
998.977
999.754
1000
1000
1000
999.616
999.852
999.793
998.541
961.865
1000
1000
1000
999.875
999.831
999.025
997.777
814.751
999.983
1000
1000
1000
1000
1000
999.735
803.179
999.928
1000
1000
1000
999.856
999.978
1000
915.4
1000
1000
1000
1000
999.889
999.97
999.999
1000
1000
1000
999.977
999.387
998.541
999.345
999.661
1000
1000
1000
999.881
999.797
997.62
999.31
999.071
998.884
1000
999.999
1000
999.897
999.919
999.831
999.629
949.489
1000
1000
1000
999.917
999.888
997.877
997.777
764.095
999.994
1000
1000
1000
999.999
1000
998.61
741.507
999.919
1000
1000
1000
999.911
999.982
1000
888.946
1000
1000
1000
1000
999.921
999.986
999.999
1000
999.999
1000
1000
999.408
997.62
999.305
999.811
1000
1000
1000
999.969
999.342
997.618
998.405
999.403
998.329
1000
999.999
1000
999.938
999.92
998.116
999.674
946.862
1000
1000
999.999
999.98
999.913
997.776
997.776
765.854
999.871
1000
1000
1000
999.998
1000
997.892
745.67
999.53
1000
1000
1000
999.998
999.992
1000
883.47
1000
1000
1000
1000
999.995
999.997
999.997
1000
999.999
1000
1000
999.414
997.968
999.32
999.929
1000
1000
1000
1000
998.352
997.617
997.915
999.722
998.192
1000
999.999
1000
999.922
999.886
997.921
999.701
946.996
1000
1000
999.998
1000
999.914
998.188
998.862
774.501
999.208
1000
1000
1000
999.999
1000
997.867
753.462
998.171
1000
1000
1000
999.997
999.999
1000
877.328
1000
1000
1000
1000
1000
1000
999.997
999.998
999.999
1000
1000
999.42
998.975
999.442
999.956
1000
1000
1000
1000
997.765
997.616
998.045
999.927
998.009
1000
1000
999.999
999.866
999.889
997.929
999.778
945.525
1000
1000
999.999
1000
999.903
999.549
999.611
769.536
998.531
1000
1000
1000
1000
999.979
997.854
741.695
996.078
1000
1000
1000
999.985
1000
999.906
853.332
1000
1000
1000
1000
1000
1000
1000
999.998
999.999
1000
1000
999.467
999.519
999.694
999.947
1000
1000
1000
1000
997.762
997.615
998.575
999.947
997.608
1000
1000
999.977
999.753
999.884
998.224
999.86
941.507
1000
1000
999.999
1000
999.933
999.911
999.549
753.164
998.056
1000
1000
1000
1000
999.765
997.817
714.593
994.667
1000
1000
1000
999.985
1000
998.886
838.156
1000
1000
1000
1000
1000
1000
1000
1000
1000
1000
999.986
999.567
999.75
999.88
999.927
1000
1000
1000
999.988
997.784
997.615
999.297
999.276
997.204
1000
1000
999.832
999.643
998.719
999.536
999.861
937.875
1000
1000
999.999
1000
999.994
999.857
999.508
748.6
997.297
1000
1000
999.989
1000
998.789
997.816
714.09
993.767
1000
1000
1000
999.986
1000
997.849
841.688
1000
1000
1000
1000
999.999
999.996
999.998
1000
1000
1000
999.959
999.634
999.895
999.904
999.946
1000
1000
1000
999.886
997.795
997.654
999.553
998.715
996.975
1000
1000
999.643
999.621
997.686
999.809
999.271
934.925
1000
1000
999.999
999.997
1000
999.808
999.622
748.622
995.54
1000
1000
999.984
1000
997.839
997.816
721.67
991.919
1000
1000
1000
999.996
999.92
997.816
844.681
999.977
1000
1000
999.999
999.995
999.977
999.975
1000
1000
1000
999.954
999.544
999.862
999.873
999.994
1000
1000
1000
999.677
997.795
998.746
999.363
998.751
996.797
1000
1000
999.679
999.65
997.699
998.055
997.576
928.656
1000
1000
999.993
999.99
1000
999.873
999.921
737.817
992.335
1000
1000
999.984
1000
997.838
997.851
715.66
987.16
1000
1000
999.991
1000
999.351
997.817
833.136
999.593
1000
1000
999.998
999.988
999.969
999.94
1000
1000
1000
999.967
998.948
998.051
999.77
999.996
1000
1000
1000
999.609
997.796
999.246
998.92
999.323
996.573
1000
1000
999.845
999.667
997.712
997.568
997.569
913.036
1000
1000
999.966
999.987
1000
999.983
999.949
688.574
987.245
1000
1000
999.991
1000
998.668
999.306
664.655
977.341
1000
1000
999.959
1000
998.401
997.819
780.898
998.872
1000
1000
999.995
999.98
999.97
999.917
1000
1000
1000
1000
1000
1000
1000
1000
1000
1000
1000
1000
1000
1000
1000
1000
1000
1000
1000
1000
1000
1000
1000
1000
1000
1000
1000
1000
1000
1000
1000
1000
1000
1000
1000
1000
1000
1000
1000
1000
1000
1000
1000
1000
1000
1000
1000
1000
1000
1000
1000
1000
1000
1000
1000
1000
1000
1000
1000
1000
1000
1000
1000
1000
1000
1000
1000
1000
1000
1000
1000
1000
1000
1000
1000
1000
1000
1000
1000
1000
1000
1000
1000
1000
1000
1000
1000
1000
1000
1000
1000
1000
1000
1000
1000
1000
1000
1000
1000
1000
1000
1000
1000
1000
1000
1000
1000
1000
1000
1000
1000
1000
1000
1000
1000
1000
1000
1000
1000
1000
1000
1000
1000
1000
1000
1000
1000
1000
1000
1000
1000
1000
1000
1000
1000
1000
1000
1000
1000
1000
1000
1000
1000
1000
1000
1000
1000
1000
1000
1000
1000
1000
1000
1000
1000
1000
1000
1000
1000
1000
1000
1000
1000
1000
1000
1000
1000
1000
1000
1000
1000
1000
1000
1000
1000
1000
1000
1000
1000
1000
1000
1000
1000
1000
1000
1000
1000
1000
1000
1000
1000
1000
1000
1000
1000
1000
1000
1000
1000
1000
1000
1000
1000
1000
1000
1000
1000
1000
1000
1000
1000
1000
1000
1000
1000
1000
1000
1000
1000
1000
1000
1000