/*--------------------------------*- C++ -*----------------------------------*\
| =========                 |                                                 |
| \\      /  F ield         | OpenFOAM: The Open Source CFD Toolbox           |
|  \\    /   O peration     | Version:  plus.master.MPPICInterFoam            |
|   \\  /    A nd           | Web:      www.OpenFOAM.com                      |
|    \\/     M anipulation  |                                                 |
\*---------------------------------------------------------------------------*/
FoamFile
{
    version     2.0;
    format      ascii;
    class       volScalarField;
    location    "11";
    object      p;
}
// * * * * * * * * * * * * * * * * * * * * * * * * * * * * * * * * * * * * * //

dimensions      [1 -1 -2 0 0 0 0];

internalField   nonuniform List<scalar> 
11821
(
2346.09
2345.86
2345.59
2343.8
2345.29
2345.04
2240.98
2239.98
2240.39
2241.43
2242.74
2243.95
2244.93
2237.56
2234.37
2235.71
2237.85
2240.33
2242.51
2244.07
2235.73
2239.64
2236.19
2234.47
2237.64
2240.93
2243.2
2236.22
2228.33
2228.84
2232.94
2235.06
2239.55
2242.51
2227.55
2230.41
2231.56
2237.05
2233.05
2238.9
2242.19
2234.16
2228.22
2233.27
2231.59
2235.11
2239.46
2242.43
2236.26
2235.35
2236.93
2235.34
2237.7
2240.9
2243.13
2151.59
2150.29
2150.55
2150.96
2151.3
2151.82
2152.38
2152.42
2149.43
2150.7
2151.01
2150.67
2151.22
2151.91
2157.43
2156.4
2156.39
2154.4
2150.99
2150.92
2151.56
2157.57
2151.32
2153.13
2155.93
2151.51
2150.64
2151.31
2161.33
2162.2
2151.13
2158.55
2150.03
2150.07
2151.16
2162.19
2161.28
2158.67
2158.14
2152.96
2151.27
2151.7
2160.95
2161.44
2160.9
2157.38
2152.98
2151.94
2152.27
2067.4
2067.03
2066.74
2066.07
2065.15
2064.42
2063.83
2070.95
2070.71
2070.41
2068.61
2066.48
2065.21
2064.31
2078.97
2079.12
2078.59
2074.33
2068.87
2066.28
2064.89
2080.63
2080.08
2080.08
2078.84
2071.19
2067.22
2065.36
2081.95
2079.12
2075.42
2079.86
2071.8
2067.43
2065.56
2081.79
2080.48
2080.98
2081.5
2072.48
2067.79
2065.84
2080.28
2082.05
2080.28
2076.53
2070.15
2067.15
2065.72
1978.89
1978.97
1978.5
1977.45
1976.14
1974.86
1973.72
1982.3
1982.93
1982.2
1980.09
1977.96
1976.2
1974.64
1989.86
1991.96
1990.04
1984.69
1980.21
1977.59
1975.55
1997.02
1995.36
1995.47
1989.89
1982.32
1978.66
1976.26
1997.24
1991.4
1996.31
1991.27
1982.87
1978.96
1976.56
1998.33
1996.29
1996.27
1990.45
1982.39
1978.81
1976.57
1990.2
1991.16
1989.96
1985.15
1980.4
1977.91
1976.1
1882.46
1882.74
1882.57
1882.03
1881.34
1880.59
1879.86
1882.81
1883.54
1883.51
1882.89
1882.23
1881.37
1880.44
1883.88
1886.98
1885.73
1883.7
1882.96
1882.07
1880.96
1887.11
1894.6
1890.98
1884.9
1883.5
1882.6
1881.39
1890.26
1897.9
1894.06
1885.07
1883.34
1882.7
1881.55
1886
1894.42
1890
1883.73
1882.92
1882.49
1881.47
1881.54
1881.99
1882.45
1882.2
1882.34
1881.97
1881.12
1783.45
1783.8
1784.09
1784.21
1784.33
1784.39
1784.39
1781.32
1782.02
1783.05
1783.53
1784.07
1784.33
1784.4
1778.71
1781.76
1782.49
1782.65
1783.67
1784.25
1784.4
1775.96
1785.3
1784.79
1782.1
1783.39
1784.24
1784.43
1773.58
1786.1
1786.55
1781.47
1782.68
1784.08
1784.39
1772
1778.9
1782.51
1779.28
1782.35
1783.86
1784.3
1776.73
1777.37
1778.52
1780.65
1782.59
1783.84
1784.24
1688.81
1688.57
1688.92
1689.27
1689.68
1690.07
1690.37
1687.49
1686.75
1687.83
1688.4
1689.05
1689.67
1690.13
1687.6
1688.14
1688.58
1688.18
1688.6
1689.35
1689.93
1687.93
1683.98
1690.78
1688.16
1688.32
1689.14
1689.79
1682.44
1685.98
1689.05
1689.17
1687.05
1688.84
1689.65
1685.83
1682.36
1690.62
1688.09
1688.08
1689.04
1689.76
1689.83
1690.34
1691.03
1689.27
1688.8
1689.43
1689.99
1600.1
1599.74
1599.56
1599.33
1599.15
1599.02
1598.94
1601.78
1600.97
1600.74
1599.95
1599.36
1599.14
1599.01
1606.81
1606.4
1605.3
1602.28
1600.06
1599.39
1599.12
1608.76
1604.27
1606.92
1604.51
1600.89
1599.68
1599.23
1609.25
1607.64
1603.46
1605.71
1600.46
1599.65
1599.25
1609.79
1607.89
1609.03
1606.33
1601.55
1599.94
1599.42
1609.48
1609.48
1609.24
1604.9
1601.14
1599.91
1599.51
1510.99
1510.81
1510.39
1509.77
1509.13
1508.57
1508.09
1513.47
1513.25
1512.58
1511.15
1509.99
1509.16
1508.48
1520.1
1520.25
1518.25
1514.29
1511.25
1509.85
1508.9
1524.12
1521.99
1520.37
1517.96
1512.58
1510.45
1509.24
1526.96
1519.74
1520.18
1518.52
1512.75
1510.59
1509.37
1526.36
1524.01
1521.84
1519.28
1513.04
1510.66
1509.46
1521.74
1520.77
1520.03
1515.92
1511.89
1510.23
1509.3
1417.81
1417.77
1417.6
1417.2
1416.76
1416.3
1415.89
1418.55
1418.59
1418.59
1417.88
1417.34
1416.77
1416.22
1422.2
1423.15
1421.76
1419.28
1417.99
1417.26
1416.56
1425.64
1424.75
1424.55
1421.1
1418.61
1417.64
1416.83
1427.19
1423.29
1428.7
1421.83
1418.56
1417.7
1416.95
1424.34
1427.24
1427.1
1421.56
1418.65
1417.7
1416.98
1421.31
1422.05
1421.86
1419.7
1418.03
1417.35
1416.82
1323.39
1323.62
1323.63
1323.4
1323.11
1322.83
1322.57
1323.18
1323.79
1324.09
1323.75
1323.44
1323.11
1322.78
1324.92
1327.23
1326.23
1324.59
1323.85
1323.4
1322.97
1324.76
1332.82
1327.47
1325.42
1324.16
1323.65
1323.15
1322.07
1331.24
1329.56
1325.62
1323.87
1323.67
1323.22
1324.73
1331.27
1332.34
1324.88
1323.91
1323.62
1323.22
1324.96
1326.76
1326.33
1324.55
1323.65
1323.42
1323.12
1228.66
1228.79
1228.87
1228.85
1228.81
1228.76
1228.69
1228.39
1228.49
1228.88
1228.82
1228.82
1228.81
1228.75
1229.64
1231.13
1230.44
1229.4
1228.99
1228.92
1228.82
1232.91
1231.7
1231.16
1230.16
1229.29
1229.08
1228.9
1228.26
1230.44
1231.49
1230.53
1228.98
1229.05
1228.9
1227.92
1228.82
1236.64
1229.39
1228.89
1228.98
1228.88
1230.52
1231.93
1232.16
1229.86
1228.91
1228.9
1228.84
1135.07
1134.84
1134.92
1134.99
1135.09
1135.16
1135.19
1135.34
1134.53
1134.83
1134.82
1134.97
1135.12
1135.19
1138.06
1136.27
1136.32
1135.43
1135.03
1135.13
1135.19
1139.85
1134.36
1137.53
1136.35
1135.36
1135.23
1135.21
1141.83
1134.8
1135.16
1136.52
1135.12
1135.17
1135.16
1138.67
1134.38
1139.21
1136.32
1135.12
1135.11
1135.12
1139.13
1137.99
1138.33
1136.09
1135.05
1135.03
1135.08
1041.85
1041.75
1041.83
1041.87
1041.95
1042.02
1042.09
1042.05
1041.66
1042.05
1041.79
1041.87
1041.97
1042.05
1044.59
1044.05
1043.84
1042.52
1041.95
1041.97
1042.03
1046.79
1046.12
1045.35
1043.39
1042.24
1042.01
1042.01
1047.95
1040.45
1045.46
1042.31
1041.81
1041.83
1041.91
1048.41
1047.01
1045.67
1043.56
1042.09
1041.85
1041.89
1046
1044.44
1044.68
1042.73
1041.83
1041.76
1041.83
948.175
948.268
948.454
948.596
948.796
949.001
949.201
947.442
947.811
948.277
948.244
948.525
948.817
949.059
949.036
950.244
949.627
948.64
948.387
948.679
948.941
950.299
950.64
950.587
948.981
948.364
948.575
948.845
948.61
948.866
950.63
947.929
947.753
948.353
948.726
947.926
949.978
950.09
948.452
947.943
948.335
948.699
947.167
947.828
948.213
947.877
947.853
948.311
948.711
856.832
856.795
856.881
856.843
856.888
857.033
857.199
856.628
856.852
857.247
856.876
856.789
856.919
857.074
859.299
860.592
859.828
858.072
857.022
856.941
857.017
860.793
863.312
861.455
859.492
857.438
857.032
857.011
856.582
862.671
863.608
859.369
857.057
856.926
856.962
856.131
861.504
861.625
859.247
857.068
856.867
856.953
856.813
859.455
859.912
857.99
856.749
856.769
856.98
2342.41
2342.29
2343.82
2343.31
2342.96
2342.71
2342.51
2342.39
2345.26
2344.52
2343.88
2343.41
2343.07
2342.83
2342.65
2342.53
2345.22
2344.54
2343.99
2343.56
2343.24
2343.02
2342.86
2342.76
2344.92
2344.46
2344.05
2343.7
2343.43
2343.24
2343.11
2343.04
2344.34
2344.05
2343.87
2343.72
2343.59
2343.49
2343.41
2343.37
2245.65
2246.19
2246.63
2246.97
2247.21
2247.36
2247.42
2247.45
2245.14
2245.9
2246.46
2246.86
2247.15
2247.33
2247.41
2247.43
2244.66
2245.59
2246.25
2246.74
2247.09
2247.33
2247.44
2247.48
2244.26
2245.33
2246.1
2246.65
2247.05
2247.31
2247.47
2247.53
2244.07
2245.22
2246.04
2246.62
2247.04
2247.33
2247.51
2247.6
2244.13
2245.27
2246.09
2246.67
2247.1
2247.39
2247.57
2247.72
2244.27
2245.17
2245.97
2246.59
2247.05
2247.38
2247.61
2247.76
2152.77
2153.19
2153.54
2153.82
2154.04
2154.2
2154.3
2154.36
2152.47
2152.98
2153.4
2153.74
2154
2154.19
2154.31
2154.35
2152.24
2152.81
2153.28
2153.66
2153.96
2154.19
2154.32
2154.39
2152.07
2152.69
2153.21
2153.63
2153.95
2154.19
2154.35
2154.46
2152.03
2152.68
2153.21
2153.64
2153.97
2154.23
2154.42
2154.54
2152.34
2152.89
2153.36
2153.76
2154.09
2154.33
2154.53
2154.66
2152.61
2153.03
2153.45
2153.82
2154.13
2154.4
2154.63
2154.78
2063.33
2063.07
2062.87
2062.74
2062.65
2062.6
2062.58
2062.59
2063.63
2063.22
2062.95
2062.77
2062.66
2062.59
2062.56
2062.54
2063.98
2063.44
2063.08
2062.85
2062.71
2062.63
2062.59
2062.59
2064.28
2063.66
2063.26
2062.99
2062.83
2062.74
2062.71
2062.73
2064.49
2063.86
2063.44
2063.16
2063
2062.91
2062.9
2062.93
2064.78
2064.12
2063.69
2063.42
2063.26
2063.18
2063.17
2063.21
2064.77
2064.27
2063.9
2063.65
2063.51
2063.46
2063.49
2063.55
1972.8
1972.17
1971.65
1971.25
1970.97
1970.78
1970.66
1970.63
1973.39
1972.51
1971.83
1971.34
1970.99
1970.76
1970.62
1970.57
1973.97
1972.89
1972.09
1971.5
1971.1
1970.83
1970.67
1970.63
1974.47
1973.27
1972.37
1971.73
1971.28
1971
1970.84
1970.8
1974.76
1973.55
1972.64
1971.99
1971.53
1971.25
1971.1
1971.07
1974.91
1973.76
1972.91
1972.3
1971.87
1971.6
1971.47
1971.44
1974.63
1973.76
1973.07
1972.55
1972.19
1971.97
1971.88
1971.87
1879.26
1878.82
1878.45
1878.17
1877.96
1877.82
1877.73
1877.72
1879.64
1879.05
1878.58
1878.23
1877.97
1877.81
1877.71
1877.68
1880.01
1879.31
1878.76
1878.34
1878.05
1877.86
1877.76
1877.74
1880.34
1879.57
1878.96
1878.51
1878.2
1878
1877.9
1877.88
1880.52
1879.76
1879.15
1878.7
1878.39
1878.2
1878.11
1878.1
1880.53
1879.86
1879.33
1878.93
1878.65
1878.47
1878.4
1878.4
1880.17
1879.68
1879.31
1879.04
1878.86
1878.75
1878.71
1878.73
1784.36
1784.34
1784.31
1784.3
1784.29
1784.3
1784.32
1784.37
1784.38
1784.34
1784.31
1784.29
1784.29
1784.3
1784.32
1784.37
1784.41
1784.37
1784.34
1784.31
1784.31
1784.33
1784.36
1784.43
1784.46
1784.42
1784.38
1784.36
1784.36
1784.39
1784.43
1784.5
1784.47
1784.45
1784.43
1784.42
1784.44
1784.48
1784.54
1784.61
1784.39
1784.45
1784.5
1784.52
1784.55
1784.61
1784.68
1784.76
1784.11
1784.19
1784.32
1784.47
1784.59
1784.7
1784.81
1784.91
1690.58
1690.77
1690.93
1691.06
1691.18
1691.28
1691.37
1691.46
1690.43
1690.68
1690.87
1691.03
1691.17
1691.28
1691.38
1691.47
1690.33
1690.6
1690.83
1691.01
1691.16
1691.3
1691.42
1691.52
1690.25
1690.56
1690.8
1691
1691.17
1691.32
1691.46
1691.57
1690.19
1690.53
1690.8
1691.01
1691.19
1691.35
1691.5
1691.62
1690.24
1690.57
1690.85
1691.07
1691.26
1691.42
1691.58
1691.7
1690.18
1690.46
1690.76
1691.02
1691.25
1691.45
1691.63
1691.77
1598.85
1598.88
1598.92
1598.97
1599.02
1599.09
1599.17
1599.25
1598.91
1598.91
1598.93
1598.97
1599.03
1599.1
1599.17
1599.24
1598.99
1598.95
1598.96
1599
1599.05
1599.12
1599.21
1599.29
1599.06
1599
1599.01
1599.04
1599.09
1599.17
1599.26
1599.36
1599.1
1599.05
1599.06
1599.09
1599.15
1599.23
1599.33
1599.44
1599.25
1599.17
1599.17
1599.2
1599.25
1599.34
1599.44
1599.55
1599.23
1599.18
1599.19
1599.24
1599.32
1599.42
1599.55
1599.67
1507.71
1507.5
1507.34
1507.23
1507.16
1507.14
1507.16
1507.21
1507.97
1507.64
1507.41
1507.26
1507.17
1507.14
1507.15
1507.19
1508.22
1507.81
1507.52
1507.33
1507.22
1507.17
1507.18
1507.23
1508.45
1507.97
1507.65
1507.43
1507.31
1507.25
1507.27
1507.33
1508.58
1508.09
1507.76
1507.55
1507.42
1507.37
1507.39
1507.45
1508.73
1508.23
1507.91
1507.7
1507.58
1507.54
1507.56
1507.62
1508.6
1508.23
1507.98
1507.81
1507.72
1507.7
1507.74
1507.81
1415.54
1415.28
1415.07
1414.91
1414.8
1414.75
1414.74
1414.76
1415.76
1415.41
1415.13
1414.93
1414.8
1414.73
1414.72
1414.75
1415.97
1415.56
1415.23
1415
1414.84
1414.76
1414.75
1414.79
1416.17
1415.71
1415.36
1415.11
1414.94
1414.86
1414.85
1414.88
1416.3
1415.84
1415.49
1415.24
1415.07
1414.99
1414.98
1415.02
1416.39
1415.95
1415.63
1415.4
1415.25
1415.18
1415.17
1415.21
1416.22
1415.9
1415.67
1415.5
1415.39
1415.35
1415.36
1415.4
1322.33
1322.17
1322.03
1321.92
1321.85
1321.82
1321.83
1321.85
1322.47
1322.24
1322.06
1321.93
1321.84
1321.8
1321.81
1321.86
1322.61
1322.34
1322.13
1321.97
1321.87
1321.83
1321.84
1321.89
1322.76
1322.46
1322.22
1322.05
1321.94
1321.9
1321.91
1321.95
1322.84
1322.55
1322.32
1322.15
1322.04
1322
1322.01
1322.05
1322.89
1322.63
1322.43
1322.28
1322.19
1322.14
1322.15
1322.19
1322.69
1322.52
1322.41
1322.33
1322.28
1322.29
1322.3
1322.34
1228.62
1228.6
1228.59
1228.6
1228.61
1228.64
1228.69
1228.73
1228.67
1228.63
1228.61
1228.6
1228.61
1228.63
1228.68
1228.73
1228.73
1228.67
1228.63
1228.61
1228.61
1228.64
1228.69
1228.76
1228.8
1228.72
1228.67
1228.64
1228.64
1228.66
1228.71
1228.78
1228.82
1228.75
1228.71
1228.68
1228.67
1228.69
1228.74
1228.81
1228.82
1228.78
1228.75
1228.73
1228.73
1228.76
1228.81
1228.86
1228.62
1228.61
1228.66
1228.7
1228.75
1228.81
1228.86
1228.92
1135.18
1135.24
1135.32
1135.4
1135.48
1135.55
1135.62
1135.68
1135.21
1135.27
1135.34
1135.4
1135.47
1135.54
1135.61
1135.68
1135.24
1135.28
1135.33
1135.39
1135.45
1135.52
1135.59
1135.67
1135.25
1135.28
1135.33
1135.38
1135.43
1135.5
1135.57
1135.66
1135.21
1135.26
1135.31
1135.36
1135.41
1135.47
1135.55
1135.63
1135.16
1135.22
1135.29
1135.34
1135.4
1135.46
1135.54
1135.61
1134.94
1135.01
1135.13
1135.23
1135.34
1135.42
1135.5
1135.57
1042.11
1042.2
1042.31
1042.42
1042.52
1042.61
1042.7
1042.77
1042.11
1042.21
1042.31
1042.41
1042.5
1042.59
1042.68
1042.77
1042.1
1042.18
1042.28
1042.37
1042.46
1042.56
1042.65
1042.75
1042.08
1042.15
1042.24
1042.33
1042.42
1042.51
1042.62
1042.72
1042.01
1042.1
1042.19
1042.28
1042.37
1042.46
1042.57
1042.66
1041.95
1042.04
1042.14
1042.23
1042.32
1042.41
1042.51
1042.6
1041.72
1041.82
1041.96
1042.09
1042.21
1042.32
1042.42
1042.5
949.315
949.445
949.568
949.684
949.795
949.903
950.01
950.096
949.219
949.381
949.524
949.653
949.77
949.883
949.997
950.098
949.136
949.305
949.456
949.591
949.716
949.841
949.968
950.079
949.061
949.23
949.386
949.528
949.661
949.795
949.93
950.047
948.976
949.156
949.319
949.467
949.604
949.742
949.881
949.999
948.922
949.108
949.277
949.425
949.56
949.695
949.826
949.933
948.785
948.955
949.141
949.308
949.467
949.61
949.737
949.836
857.281
857.349
857.397
857.449
857.518
857.602
857.698
857.781
857.158
857.248
857.322
857.399
857.483
857.578
857.688
857.785
857.071
857.164
857.253
857.343
857.44
857.55
857.673
857.779
857.037
857.112
857.204
857.299
857.402
857.52
857.648
857.762
857.01
857.078
857.171
857.274
857.382
857.504
857.636
857.749
857.03
857.096
857.185
857.286
857.394
857.512
857.636
857.739
857.032
857.101
857.185
857.279
857.387
857.507
857.621
857.715
2237.78
2239.88
2242.16
2244.08
2245.55
2246.62
2247.37
2247.83
2237.07
2237.98
2240.99
2243.36
2245.05
2246.25
2247.12
2247.73
2238.52
2236.38
2239.94
2242.66
2244.55
2245.9
2246.89
2247.58
2237.23
2238.05
2240.88
2243.18
2244.88
2246.14
2247.06
2247.72
2237.86
2239.99
2242.44
2244.27
2245.65
2246.68
2247.43
2247.96
2240.04
2242.37
2244.09
2245.43
2246.47
2247.23
2247.77
2248.15
2242.97
2244.36
2245.4
2246.31
2247.04
2247.59
2247.98
2248.24
2156.27
2153.95
2153.77
2154.08
2154.55
2155.06
2155.59
2156.05
2160.74
2155.61
2154.19
2154.08
2154.43
2154.95
2155.59
2156.18
2161.33
2155.48
2153.63
2153.53
2153.98
2154.62
2155.35
2156.03
2158.82
2154.35
2153.17
2153.3
2153.86
2154.54
2155.25
2155.91
2155.38
2153.05
2152.95
2153.39
2154
2154.61
2155.22
2155.75
2152.02
2152.19
2152.82
2153.49
2154.09
2154.63
2155.12
2155.53
2152.1
2152.66
2153.25
2153.82
2154.3
2154.7
2155.07
2155.36
2072.59
2068.94
2067.74
2067.02
2066.61
2066.5
2066.68
2066.99
2078.76
2071.65
2068.75
2067.54
2066.95
2066.78
2066.99
2067.38
2078.62
2071.81
2068.69
2067.47
2066.9
2066.72
2066.93
2067.36
2078.22
2071.27
2068.42
2067.27
2066.69
2066.48
2066.65
2067.05
2073.22
2068.94
2067.34
2066.54
2066.1
2065.95
2066.09
2066.41
2068.2
2066.73
2066.05
2065.61
2065.35
2065.29
2065.42
2065.67
2066.27
2065.74
2065.37
2065.08
2064.87
2064.81
2064.9
2065.07
1983.37
1980.2
1978.74
1977.52
1976.65
1976.2
1976.11
1976.24
1989.03
1982.61
1979.98
1978.37
1977.25
1976.62
1976.47
1976.62
1991.03
1983.49
1980.4
1978.73
1977.51
1976.76
1976.53
1976.67
1989
1982.59
1979.95
1978.35
1977.15
1976.4
1976.15
1976.28
1983.63
1980.17
1978.46
1977.17
1976.2
1975.6
1975.41
1975.52
1979.52
1977.97
1976.79
1975.81
1975.1
1974.68
1974.55
1974.63
1977.5
1976.55
1975.66
1974.9
1974.32
1973.97
1973.85
1973.89
1880.71
1881.58
1881.85
1881.72
1881.6
1881.57
1881.66
1881.82
1879.67
1881.4
1882.21
1882.1
1881.85
1881.71
1881.74
1881.92
1879.62
1881.29
1882.46
1882.35
1882
1881.75
1881.72
1881.88
1881.58
1882.06
1882.54
1882.24
1881.82
1881.53
1881.48
1881.63
1882.1
1882.25
1882.15
1881.73
1881.35
1881.1
1881.06
1881.19
1882.06
1881.97
1881.57
1881.14
1880.8
1880.61
1880.6
1880.68
1881.98
1881.66
1881.16
1880.72
1880.39
1880.19
1880.14
1880.2
1779.57
1781.78
1783.3
1784.32
1785.01
1785.5
1785.88
1786.18
1777.24
1780.34
1782.44
1783.75
1784.56
1785.12
1785.56
1785.95
1778.36
1780.6
1782.38
1783.56
1784.33
1784.87
1785.32
1785.74
1777.12
1780.83
1782.71
1783.74
1784.38
1784.87
1785.29
1785.69
1780.12
1782.07
1783.38
1784.09
1784.59
1784.97
1785.32
1785.65
1782.24
1783.46
1784.07
1784.48
1784.79
1785.06
1785.34
1785.57
1783.93
1784.44
1784.64
1784.8
1784.95
1785.11
1785.28
1785.45
1688.98
1688.52
1689.49
1690.31
1690.98
1691.53
1692.02
1692.4
1690.09
1688.61
1689.01
1689.86
1690.59
1691.19
1691.76
1692.26
1689.75
1688.12
1688.37
1689.31
1690.13
1690.83
1691.48
1692.05
1689.04
1688.23
1688.74
1689.53
1690.25
1690.88
1691.48
1692.03
1688.1
1688.19
1689.13
1689.88
1690.51
1691.06
1691.57
1692.02
1688.16
1689.02
1689.72
1690.32
1690.81
1691.24
1691.66
1691.98
1689.35
1689.96
1690.4
1690.77
1691.11
1691.41
1691.7
1691.94
1604.36
1601.26
1600.7
1600.49
1600.43
1600.53
1600.78
1601.08
1608.6
1603.18
1601.21
1600.6
1600.42
1600.51
1600.84
1601.25
1608.35
1603.51
1601.18
1600.46
1600.26
1600.36
1600.72
1601.2
1608.1
1603
1600.98
1600.34
1600.18
1600.28
1600.61
1601.07
1603.94
1601.02
1600.27
1600.01
1599.97
1600.11
1600.42
1600.78
1600.56
1599.94
1599.77
1599.73
1599.77
1599.92
1600.18
1600.45
1599.7
1599.63
1599.62
1599.64
1599.7
1599.82
1600.01
1600.22
1515.21
1511.7
1510.74
1510.08
1509.65
1509.5
1509.6
1509.81
1520.82
1514.65
1511.89
1510.68
1510.04
1509.8
1509.9
1510.19
1521.21
1515.06
1512.07
1510.85
1510.18
1509.9
1509.99
1510.3
1520.4
1514.45
1511.88
1510.73
1510.07
1509.78
1509.84
1510.12
1515.41
1512.03
1510.78
1510.02
1509.56
1509.36
1509.44
1509.67
1511.49
1510.42
1509.8
1509.33
1509.03
1508.91
1508.98
1509.16
1510.1
1509.64
1509.26
1508.92
1508.7
1508.6
1508.65
1508.79
1417.96
1417.03
1417.1
1416.94
1416.83
1416.84
1416.98
1417.18
1419.81
1418.27
1417.72
1417.41
1417.16
1417.08
1417.21
1417.46
1421.52
1418.74
1417.98
1417.66
1417.36
1417.22
1417.32
1417.55
1421.2
1418.74
1418.08
1417.67
1417.31
1417.13
1417.21
1417.42
1419.19
1417.87
1417.57
1417.22
1416.94
1416.81
1416.87
1417.05
1417.56
1417.33
1417.06
1416.78
1416.57
1416.47
1416.51
1416.68
1417.35
1417.15
1416.83
1416.54
1416.32
1416.22
1416.23
1416.34
1323.42
1323.18
1323.32
1323.32
1323.35
1323.42
1323.55
1323.72
1322.64
1323.69
1323.47
1323.4
1323.35
1323.37
1323.51
1323.72
1321.4
1322.98
1323.13
1323.2
1323.17
1323.21
1323.36
1323.58
1322.93
1323.1
1323.19
1323.18
1323.12
1323.13
1323.27
1323.48
1323.31
1322.94
1323.07
1323.03
1322.98
1322.99
1323.11
1323.28
1322.82
1322.98
1322.97
1322.91
1322.86
1322.87
1322.95
1323.11
1323.22
1323.21
1323.04
1322.89
1322.8
1322.77
1322.81
1322.92
1229.52
1228.52
1228.75
1228.96
1229.11
1229.26
1229.42
1229.59
1230.96
1228.55
1228.39
1228.65
1228.86
1229.05
1229.27
1229.51
1230.19
1228.5
1228.24
1228.47
1228.66
1228.85
1229.1
1229.37
1229.78
1228.68
1228.44
1228.57
1228.69
1228.84
1229.07
1229.33
1228.83
1228.2
1228.45
1228.6
1228.72
1228.86
1229.04
1229.27
1228.19
1228.39
1228.56
1228.67
1228.78
1228.89
1229.04
1229.22
1228.65
1228.74
1228.76
1228.8
1228.85
1228.92
1229.02
1229.16
1136.57
1134.73
1134.88
1135.05
1135.18
1135.31
1135.47
1135.62
1139.83
1136.13
1135.22
1135.15
1135.17
1135.28
1135.48
1135.71
1141.08
1136.8
1135.4
1135.19
1135.18
1135.27
1135.48
1135.75
1139.46
1136.39
1135.41
1135.24
1135.22
1135.31
1135.5
1135.76
1136.76
1135.21
1135.13
1135.15
1135.21
1135.33
1135.5
1135.73
1135.01
1134.92
1135.04
1135.14
1135.23
1135.35
1135.5
1135.69
1135.01
1135.06
1135.13
1135.22
1135.31
1135.41
1135.52
1135.66
1042.52
1040.85
1041.1
1041.31
1041.47
1041.65
1041.84
1042.01
1045.77
1042.78
1041.83
1041.7
1041.71
1041.81
1042.01
1042.24
1046.39
1043.1
1041.92
1041.86
1041.87
1041.96
1042.16
1042.41
1045.18
1042.61
1042.03
1041.95
1041.95
1042.04
1042.22
1042.47
1043
1041.66
1041.77
1041.86
1041.95
1042.07
1042.25
1042.48
1041.57
1041.57
1041.76
1041.89
1042
1042.14
1042.29
1042.48
1041.73
1041.82
1041.91
1042.01
1042.12
1042.23
1042.36
1042.51
945.224
945.56
946.729
947.433
947.979
948.428
948.788
949.059
945.393
945.838
946.77
947.548
948.052
948.471
948.855
949.2
944.738
945.632
946.596
947.567
948.106
948.515
948.904
949.261
947.298
946.245
947.154
947.865
948.308
948.671
949.029
949.375
947.247
946.774
947.65
948.192
948.572
948.892
949.196
949.503
947.141
947.713
948.255
948.614
948.9
949.155
949.389
949.624
948.203
948.555
948.796
949.003
949.197
949.383
949.558
949.734
855.832
855.501
855.931
856.38
856.795
857.163
857.504
857.794
854.968
856.345
855.832
856.222
856.587
856.96
857.368
857.76
856.295
856.116
855.539
855.951
856.324
856.721
857.169
857.602
858.689
856.605
855.981
856.221
856.499
856.83
857.228
857.656
857.217
855.826
856.1
856.415
856.712
857.019
857.351
857.694
855.977
856.168
856.507
856.763
856.999
857.233
857.474
857.724
856.654
856.9
857.049
857.17
857.297
857.443
857.606
857.77
2242.87
2244.31
2245.51
2246.39
2247.04
2247.51
2247.84
2248.05
2242.8
2244.57
2245.78
2246.6
2247.16
2247.56
2247.83
2248
2243.13
2244.74
2245.84
2246.6
2247.13
2247.5
2247.75
2247.93
2243.72
2245.09
2246.04
2246.7
2247.17
2247.49
2247.68
2247.78
2244.44
2245.53
2246.31
2246.86
2247.25
2247.5
2247.64
2247.72
2245.08
2245.91
2246.52
2246.96
2247.26
2247.46
2247.56
2247.59
2245.75
2246.31
2246.73
2247.05
2247.28
2247.43
2247.49
2247.55
2151.96
2152.56
2153.14
2153.67
2154.11
2154.49
2154.81
2155.04
2151.43
2152.3
2153.01
2153.58
2154.03
2154.38
2154.67
2154.86
2151.46
2152.26
2152.95
2153.5
2153.94
2154.28
2154.53
2154.7
2151.72
2152.43
2153.04
2153.55
2153.95
2154.24
2154.45
2154.58
2152.01
2152.64
2153.2
2153.64
2153.99
2154.24
2154.41
2154.53
2152.37
2152.91
2153.37
2153.74
2154.02
2154.22
2154.35
2154.44
2152.81
2153.25
2153.6
2153.88
2154.09
2154.25
2154.35
2154.42
2065.96
2065.24
2064.74
2064.43
2064.27
2064.23
2064.29
2064.4
2065.63
2064.82
2064.33
2064.04
2063.87
2063.8
2063.82
2063.89
2065.27
2064.48
2064
2063.69
2063.51
2063.41
2063.41
2063.45
2064.83
2064.13
2063.68
2063.4
2063.22
2063.12
2063.09
2063.13
2064.25
2063.71
2063.36
2063.14
2063
2062.92
2062.89
2062.93
2063.74
2063.35
2063.09
2062.92
2062.82
2062.75
2062.72
2062.75
2063.37
2063.15
2062.96
2062.82
2062.73
2062.68
2062.65
2062.66
1976.9
1975.66
1974.69
1973.97
1973.47
1973.17
1973.05
1973.04
1976.84
1975.34
1974.27
1973.5
1972.95
1972.6
1972.43
1972.39
1976.32
1974.84
1973.76
1972.97
1972.42
1972.05
1971.86
1971.81
1975.54
1974.2
1973.21
1972.48
1971.96
1971.62
1971.42
1971.38
1974.59
1973.48
1972.64
1972.02
1971.57
1971.28
1971.11
1971.06
1973.67
1972.8
1972.13
1971.63
1971.27
1971.03
1970.88
1970.85
1972.9
1972.29
1971.77
1971.37
1971.08
1970.88
1970.75
1970.7
1881.4
1880.83
1880.38
1880
1879.74
1879.58
1879.53
1879.54
1881.7
1880.92
1880.3
1879.8
1879.43
1879.19
1879.08
1879.07
1881.47
1880.62
1879.95
1879.42
1879.03
1878.77
1878.65
1878.62
1881.01
1880.21
1879.57
1879.06
1878.69
1878.45
1878.33
1878.32
1880.46
1879.76
1879.18
1878.73
1878.4
1878.2
1878.08
1878.04
1879.87
1879.3
1878.82
1878.45
1878.19
1878.02
1877.92
1877.87
1879.37
1878.94
1878.55
1878.25
1878.04
1877.89
1877.8
1877.76
1783.68
1784.02
1784.33
1784.54
1784.71
1784.86
1785.01
1785.12
1784.21
1784.47
1784.61
1784.68
1784.72
1784.78
1784.86
1784.95
1784.39
1784.51
1784.54
1784.55
1784.56
1784.6
1784.67
1784.75
1784.42
1784.48
1784.49
1784.48
1784.48
1784.5
1784.55
1784.64
1784.44
1784.46
1784.43
1784.4
1784.39
1784.41
1784.47
1784.5
1784.43
1784.41
1784.38
1784.36
1784.35
1784.37
1784.4
1784.42
1784.44
1784.4
1784.36
1784.33
1784.32
1784.33
1784.34
1784.38
1689.27
1689.8
1690.28
1690.7
1691.03
1691.32
1691.57
1691.75
1689.48
1690.08
1690.53
1690.84
1691.1
1691.33
1691.53
1691.68
1689.69
1690.2
1690.56
1690.84
1691.07
1691.28
1691.46
1691.61
1689.91
1690.34
1690.66
1690.9
1691.1
1691.28
1691.43
1691.55
1690.15
1690.49
1690.75
1690.94
1691.11
1691.26
1691.42
1691.5
1690.38
1690.63
1690.84
1691.01
1691.15
1691.27
1691.38
1691.47
1690.6
1690.78
1690.93
1691.06
1691.18
1691.28
1691.37
1691.48
1599.49
1599.33
1599.31
1599.36
1599.46
1599.59
1599.76
1599.91
1599.4
1599.29
1599.27
1599.3
1599.37
1599.47
1599.6
1599.73
1599.26
1599.16
1599.15
1599.17
1599.24
1599.33
1599.45
1599.57
1599.14
1599.07
1599.06
1599.09
1599.16
1599.24
1599.34
1599.44
1599.01
1598.97
1598.98
1599.03
1599.09
1599.16
1599.29
1599.35
1598.91
1598.91
1598.94
1599
1599.06
1599.13
1599.21
1599.3
1598.86
1598.89
1598.93
1598.99
1599.04
1599.11
1599.18
1599.28
1509.79
1509.14
1508.71
1508.43
1508.27
1508.23
1508.28
1508.37
1509.67
1508.96
1508.51
1508.22
1508.05
1507.98
1508
1508.07
1509.31
1508.66
1508.23
1507.96
1507.79
1507.72
1507.73
1507.79
1508.9
1508.34
1507.97
1507.73
1507.58
1507.51
1507.51
1507.56
1508.45
1508.01
1507.72
1507.52
1507.4
1507.34
1507.39
1507.42
1508.05
1507.74
1507.52
1507.37
1507.29
1507.25
1507.27
1507.33
1507.73
1507.54
1507.38
1507.27
1507.21
1507.19
1507.21
1507.26
1417.06
1416.62
1416.32
1416.08
1415.93
1415.86
1415.88
1415.93
1417.11
1416.58
1416.2
1415.92
1415.72
1415.62
1415.6
1415.64
1416.88
1416.35
1415.96
1415.67
1415.47
1415.36
1415.33
1415.36
1416.56
1416.08
1415.71
1415.44
1415.25
1415.14
1415.11
1415.15
1416.2
1415.79
1415.47
1415.22
1415.06
1414.96
1414.98
1414.99
1415.86
1415.53
1415.26
1415.07
1414.93
1414.86
1414.85
1414.89
1415.58
1415.34
1415.13
1414.96
1414.86
1414.8
1414.8
1414.83
1322.92
1322.77
1322.69
1322.6
1322.55
1322.54
1322.57
1322.62
1323.23
1322.98
1322.76
1322.59
1322.46
1322.4
1322.4
1322.44
1323.2
1322.88
1322.62
1322.42
1322.29
1322.22
1322.21
1322.25
1323.02
1322.71
1322.46
1322.28
1322.15
1322.08
1322.09
1322.12
1322.79
1322.53
1322.3
1322.13
1322.01
1321.96
1321.99
1322.01
1322.57
1322.35
1322.17
1322.03
1321.94
1321.89
1321.89
1321.93
1322.39
1322.23
1322.08
1321.97
1321.9
1321.87
1321.88
1321.91
1228.41
1228.47
1228.58
1228.67
1228.75
1228.82
1228.91
1228.99
1228.76
1228.79
1228.78
1228.78
1228.78
1228.81
1228.86
1228.93
1228.85
1228.8
1228.76
1228.72
1228.71
1228.74
1228.79
1228.86
1228.82
1228.76
1228.72
1228.69
1228.68
1228.7
1228.79
1228.83
1228.77
1228.72
1228.67
1228.65
1228.65
1228.66
1228.74
1228.78
1228.7
1228.66
1228.64
1228.62
1228.63
1228.64
1228.74
1228.76
1228.66
1228.64
1228.63
1228.63
1228.65
1228.68
1228.72
1228.77
1134.83
1134.89
1135.02
1135.14
1135.27
1135.38
1135.49
1135.58
1134.99
1135.12
1135.21
1135.29
1135.36
1135.44
1135.53
1135.61
1135.07
1135.16
1135.23
1135.3
1135.36
1135.44
1135.53
1135.62
1135.13
1135.2
1135.26
1135.33
1135.4
1135.47
1135.57
1135.64
1135.17
1135.22
1135.29
1135.35
1135.42
1135.49
1135.56
1135.64
1135.19
1135.24
1135.31
1135.38
1135.44
1135.51
1135.64
1135.67
1135.2
1135.25
1135.33
1135.41
1135.49
1135.56
1135.64
1135.7
1041.62
1041.69
1041.83
1041.98
1042.12
1042.26
1042.39
1042.49
1041.82
1041.93
1042.05
1042.16
1042.26
1042.37
1042.48
1042.57
1041.91
1042
1042.1
1042.2
1042.31
1042.41
1042.52
1042.62
1041.97
1042.06
1042.16
1042.26
1042.37
1042.47
1042.57
1042.67
1042.03
1042.11
1042.21
1042.31
1042.41
1042.51
1042.61
1042.7
1042.08
1042.16
1042.26
1042.37
1042.46
1042.55
1042.71
1042.76
1042.12
1042.2
1042.3
1042.42
1042.52
1042.62
1042.71
1042.8
948.291
948.551
948.829
949.065
949.272
949.46
949.628
949.755
948.578
948.836
949.071
949.255
949.422
949.581
949.734
949.858
948.728
948.947
949.148
949.323
949.483
949.637
949.792
949.914
948.851
949.053
949.239
949.406
949.556
949.701
949.842
949.96
948.998
949.179
949.343
949.489
949.625
949.765
949.893
950.017
949.154
949.31
949.453
949.583
949.707
949.828
950.022
950.087
949.311
949.437
949.556
949.672
949.787
949.902
950.013
950.13
856.855
856.954
857.07
857.176
857.298
857.444
857.601
857.728
856.899
856.967
857.07
857.182
857.305
857.443
857.593
857.72
856.907
856.973
857.065
857.176
857.3
857.436
857.58
857.702
856.902
857.003
857.107
857.212
857.326
857.47
857.597
857.716
856.981
857.094
857.184
857.272
857.37
857.484
857.607
857.741
857.121
857.217
857.286
857.357
857.443
857.545
857.72
857.787
857.273
857.344
857.389
857.443
857.516
857.608
857.709
857.832
2344.97
2344.66
2344.34
2344.14
2344.01
2343.92
2343.87
2343.85
2345.11
2344.87
2344.69
2344.52
2344.38
2344.28
2344.25
2344.22
2344.85
2345.03
2344.95
2344.84
2344.71
2344.61
2344.56
2344.56
2343.29
2344.65
2344.95
2344.95
2344.89
2344.82
2344.77
2344.85
2344.87
2345.07
2345.08
2345.06
2345.05
2345.16
2345.26
2345.35
2244.36
2245.28
2246.02
2246.65
2247.14
2247.5
2247.76
2247.94
2242.58
2244.03
2245.22
2246.14
2246.81
2247.32
2247.74
2247.95
2240.36
2242.49
2244.21
2245.47
2246.41
2247.09
2247.58
2247.9
2237.82
2240.75
2242.98
2244.62
2245.82
2246.68
2247.3
2247.74
2236.23
2239.41
2242.15
2244.04
2245.41
2246.39
2247.1
2247.58
2234.93
2238.91
2242.05
2244.07
2245.47
2246.42
2247.04
2247.5
2236.67
2239.51
2242.09
2244.06
2245.5
2246.51
2247.2
2247.64
2152.67
2153.19
2153.63
2154.01
2154.33
2154.59
2154.83
2155.02
2152.16
2152.7
2153.26
2153.75
2154.17
2154.54
2154.89
2155.13
2152.09
2152.45
2153.02
2153.58
2154.1
2154.55
2154.97
2155.31
2153.59
2152.7
2152.93
2153.43
2153.97
2154.48
2154.99
2155.41
2154.98
2152.99
2152.97
2153.39
2153.92
2154.47
2155.02
2155.49
2155.39
2153.5
2153.35
2153.66
2154.13
2154.64
2155.18
2155.64
2154.93
2153.64
2153.68
2154.04
2154.48
2154.95
2155.44
2155.86
2065.06
2064.74
2064.43
2064.16
2063.99
2063.9
2063.93
2064.03
2065.99
2065.36
2064.87
2064.51
2064.31
2064.3
2064.31
2064.45
2067.53
2066.39
2065.64
2065.15
2064.86
2064.75
2064.82
2065
2070.37
2067.82
2066.6