/*--------------------------------*- C++ -*----------------------------------*\
| =========                 |                                                 |
| \\      /  F ield         | OpenFOAM: The Open Source CFD Toolbox           |
|  \\    /   O peration     | Version:  plus.master.MPPICInterFoam            |
|   \\  /    A nd           | Web:      www.OpenFOAM.com                      |
|    \\/     M anipulation  |                                                 |
\*---------------------------------------------------------------------------*/
FoamFile
{
    version     2.0;
    format      ascii;
    class       volScalarField;
    location    "11";
    object      rho;
}
// * * * * * * * * * * * * * * * * * * * * * * * * * * * * * * * * * * * * * //

dimensions      [1 -3 0 0 0 0 0];

internalField   nonuniform List<scalar> 
11821
(
1000
1000
1000
974.511
1000
1000
1000
1000
1000
1000
1000
1000
1000
867.205
849.511
847.646
949.775
998.382
1000
1000
496.344
381.744
423.54
678.316
946.462
1000
1000
370.759
701.908
510.401
458.803
847.738
1000
1000
597.594
774.913
772.544
376.166
796.25
1000
1000
389.587
478.99
361.963
493.782
802.706
1000
1000
485.99
395.672
396.468
622.105
929.462
1000
1000
1000
1000
1000
1000
1000
1000
1000
851.327
814.076
824.358
947.361
997.803
1000
1000
382.408
379.366
374.143
638.978
943.29
1000
1000
360.392
474.628
363.707
383.274
828.298
1000
1000
367.282
774.913
700.169
366.048
767.342
1000
1000
358.828
356.699
357.14
358.96
789.9
1000
1000
420.756
363.705
362.488
582.412
920.761
1000
1000
1000
1000
1000
1000
1000
1000
1000
899.455
870.232
881.833
968.349
998.997
1000
1000
486.744
397.05
439.35
747.246
967.458
1000
1000
357.963
353.843
356.592
471.382
888.037
1000
1000
358.872
753.173
408.112
424.179
847.75
1000
1000
356.687
355.61
356.446
442.665
866.768
1000
1000
541.337
437.608
476.898
704.824
948.705
1000
1000
999.998
1000
1000
1000
1000
1000
1000
952.849
952.928
947.776
986.03
999.941
1000
1000
713.126
512.243
627.965
886.846
987.46
999.998
1000
460.426
353.19
378.329
692.791
952.853
999.994
1000
434.311
364.38
357.324
579.239
944.213
999.988
1000
508.063
356.311
379.078
694.411
941.562
999.985
1000
776.183
678.176
692.805
860.682
974.845
999.991
1000
1000
1000
1000
1000
1000
1000
1000
952.107
964.253
949.13
987.022
1000
1000
1000
743.697
558.944
677.059
887.581
988.47
1000
1000
617.61
353.311
406.759
737.285
954.839
1000
1000
673.372
353.234
355.249
600.761
952.939
1000
1000
755.625
424.725
437.865
764.748
939.028
1000
1000
776.258
724.416
701.635
843.833
973.177
1000
1000
1000
1000
1000
1000
1000
1000
1000
921.19
939.472
924.432
983.142
1000
1000
1000
626.106
504.544
600
834.669
984.014
1000
1000
531.95
430.899
387.881
649.196
934.37
1000
1000
706.96
538.933
409.161
525.209
928.174
1000
1000
732.89
564.415
398.848
666.505
903.839
1000
1000
589.057
519.845
545.755
723.813
954.993
1000
1000
1000
1000
1000
1000
1000
1000
1000
886.632
893.008
899.936
979.814
999.877
1000
1000
443.117
415.263
477.744
790.292
980.096
1000
1000
354.415
547.576
372.826
516.87
914.986
1000
1000
465.028
671.24
659.72
462.909
892.96
1000
1000
371.017
513.622
344.061
474.325
876.383
1000
1000
400.418
384.278
378.002
643.967
939.84
1000
1000
1000
1000
1000
1000
1000
1000
1000
892.529
889.886
905.738
982.09
999.911
1000
1000
441.231
408.309
485.326
803.833
982.766
1000
1000
354.425
438.643
372.894
529.959
921.893
1000
1000
354.503
671.24
593.781
463.025
897.421
1000
1000
354.741
356.303
342.991
470.532
888.241
1000
1000
417.299
386.679
409.53
674.131
945.515
1000
1000
1000
1000
1000
1000
1000
1000
1000
918.009
915.066
926.106
986.181
999.984
1000
1000
525.245
416.817
569.032
853.17
987.676
1000
1000
360.034
361.44
378.461
625.937
942.513
1000
1000
358.461
671.239
348.198
495.004
924.389
1000
1000
355.096
336.812
336.488
569.88
919.441
1000
1000
537.767
453.01
531.197
755.327
958.419
1000
1000
1000
1000
1000
1000
1000
1000
1000
928.761
935.19
933.716
987.214
1000
1000
1000
590.885
464.246
628.153
877.415
988.945
1000
1000
456.36
362.555
432.12
688.169
949.915
1000
1000
570.884
431.164
336.456
553.233
939.451
1000
1000
529.357
336.483
336.05
645.872
930.757
999.999
1000
608.26
498.926
560.446
772.08
961.633
999.998
1000
1000
1000
1000
1000
1000
1000
1000
923.07
933.91
930.879
986.629
1000
1000
1000
574.267
493.263
621.491
874.197
988.159
1000
1000
462.209
362.797
443.126
681.413
947.136
1000
1000
610.099
462.031
473.428
569.593
938.036
1000
1000
618.714
386.005
335.104
633.851
927.683
1000
1000
560.41
469.749
512.389
753.863
957.778
1000
1000
1000
1000
1000
1000
1000
1000
1000
905.258
920.906
919.616
984.578
1000
1000
1000
522.784
489.163
596.419
859.44
985.412
1000
1000
341.662
496.408
373.992
656.585
935.628
1000
1000
399.394
577.98
572.919
566.36
928.713
1000
1000
554
534.561
334.277
597.907
915.323
1000
1000
464.357
440.309
446.238
734.598
948.577
1000
1000
1000
1000
1000
1000
1000
1000
1000
889.377
900.305
906.222
982.838
1000
1000
1000
503.299
467.572
574.35
839.373
983.162
1000
1000
333.236
418.896
333.113
632.833
922.358
1000
1000
334.193
577.98
492.103
556.605
915.676
1000
1000
341.865
442.789
333.896
575.406
900.363
1000
1000
463.387
440.072
453.231
728.677
941.349
1000
1000
1000
1000
1000
1000
1000
1000
1000
876.628
879.302
899.025
982.622
1000
1000
1000
499.624
433.105
559.686
819.344
983.068
1000
1000
333.125
333.114
332.901
613.538
918.56
1000
1000
413.644
562.559
333.114
531.095
902.126
1000
1000
344.313
333.367
333.272
558.578
890.152
1000
1000
506.519
438.927
470.625
716.324
937.446
1000
1000
1000
1000
1000
1000
1000
1000
1000
857.234
855.646
895.432
982.845
1000
1000
1000
461.947
391.099
526.015
799.614
984.035
1000
1000
333.111
332.964
332.918
571.981
918.487
1000
1000
642.821
369.739
332.964
480.818
884.676
1000
1000
415.879
333.381
333.199
509.781
882.733
1000
1000
508.912
405.47
445.149
668.958
934.886
1000
1000
1000
1000
1000
1000
1000
1000
1000
846.642
848.267
896.568
984.165
1000
1000
1000
389.892
382.742
496.276
798.495
987.029
1000
1000
333.199
345.442
332.964
544.555
922.518
1000
1000
445.092
498.108
340.739
454.92
880.293
1000
1000
406.233
333.338
333.277
462.64
883.917
1000
1000
435.291
341.074
353.43
624.708
937.111
1000
1000
999.979
999.952
1000
1000
1000
1000
1000
1000
1000
1000
1000
1000
1000
1000
1000
1000
1000
1000
1000
1000
1000
1000
1000
1000
1000
1000
1000
1000
1000
1000
1000
1000
1000
999.998
1000
1000
1000
1000
1000
999.999
1000
1000
1000
1000
1000
1000
999.72
998.434
1000
1000
1000
1000
1000
999.999
999.979
999.977
1000
1000
1000
1000
1000
1000
1000
1000
1000
1000
1000
1000
1000
1000
1000
1000
1000
1000
1000
1000
1000
1000
1000
1000
1000
1000
1000
1000
1000
1000
1000
1000
1000
999.998
1000
1000
1000
1000
1000
999.997
1000
1000
1000
1000
1000
1000
999.645
997.792
1000
1000
1000
1000
1000
999.999
999.986
999.995
1000
1000
1000
1000
1000
1000
1000
1000
1000
1000
1000
1000
1000
1000
1000
1000
1000
1000
1000
1000
1000
1000
1000
1000
1000
1000
1000
1000
1000
1000
1000
1000
999.999
999.998
1000
1000
1000
999.973
999.993
999.995
1000
1000
1000
1000
1000
1000
999.605
997.705
1000
1000
1000
1000
1000
999.999
999.992
999.999
1000
1000
1000
1000
1000
1000
1000
1000
1000
1000
1000
1000
1000
1000
1000
1000
1000
1000
1000
1000
1000
1000
1000
1000
1000
1000
1000
1000
1000
1000
1000
1000
999.998
999.998
1000
1000
999.998
999.92
999.977
999.999
1000
1000
1000
1000
1000
1000
999.633
997.934
1000
1000
1000
1000
1000
999.999
999.998
1000
1000
1000
1000
1000
1000
1000
1000
1000
1000
1000
1000
1000
1000
1000
1000
1000
1000
1000
1000
1000
1000
1000
1000
1000
1000
1000
1000
1000
1000
1000
1000
1000
999.998
999.998
1000
1000
999.994
999.918
999.97
1000
1000
1000
1000
1000
1000
1000
999.668
998.028
1000
1000
1000
1000
1000
999.999
1000
1000
1000
1000
1000
1000
1000
1000
1000
1000
1000
1000
1000
1000
1000
1000
1000
1000
1000
1000
1000
1000
1000
1000
1000
1000
1000
1000
1000
1000
1000
1000
1000
1000
999.998
999.998
1000
1000
999.971
999.93
999.976
1000
1000
1000
1000
1000
1000
1000
999.644
998.057
1000
1000
1000
1000
1000
1000
1000
1000
1000
1000
1000
1000
1000
1000
1000
1000
1000
1000
1000
1000
1000
1000
1000
1000
1000
1000
1000
1000
1000
1000
1000
1000
1000
1000
1000
1000
1000
1000
1000
1000
999.998
1000
1000
1000
999.952
999.965
999.992
1000
1000
1000
1000
1000
1000
1000
999.587
998.153
1000
1000
1000
1000
1000
1000
1000
1000
1000
1000
1000
1000
1000
1000
1000
1000
1000
1000
1000
1000
1000
1000
1000
1000
1000
1000
1000
1000
1000
1000
1000
1000
1000
1000
1000
1000
1000
1000
1000
1000
999.999
1000
1000
1000
999.959
999.998
999.999
999.999
1000
1000
1000
1000
1000
1000
999.551
998.601
1000
1000
1000
1000
1000
1000
1000
1000
1000
1000
1000
1000
1000
1000
1000
1000
1000
1000
1000
1000
1000
1000
1000
1000
1000
1000
1000
1000
1000
1000
1000
1000
1000
1000
1000
1000
1000
1000
999.999
1000
1000
1000
1000
1000
999.986
1000
999.998
1000
1000
1000
1000
1000
1000
1000
999.533
998.984
1000
1000
1000
1000
1000
1000
1000
1000
1000
1000
1000
1000
1000
1000
1000
1000
1000
1000
1000
1000
1000
1000
1000
1000
1000
1000
1000
1000
1000
1000
1000
1000
1000
1000
1000
1000
999.999
999.993
999.996
1000
1000
1000
1000
1000
999.997
1000
999.988
1000
1000
1000
1000
1000
1000
1000
999.545
999.253
1000
1000
1000
1000
1000
1000
1000
1000
1000
1000
1000
1000
1000
1000
1000
1000
1000
1000
1000
1000
1000
1000
1000
1000
1000
1000
1000
1000
1000
1000
1000
999.999
1000
1000
1000
1000
999.998
999.985
999.993
1000
1000
1000
1000
1000
999.98
999.894
999.965
1000
1000
1000
1000
1000
1000
1000
999.6
999.433
1000
1000
1000
1000
1000
1000
1000
1000
1000
1000
1000
1000
1000
1000
1000
1000
1000
1000
1000
1000
1000
1000
1000
999.999
1000
1000
1000
1000
1000
1000
1000
999.999
1000
1000
1000
1000
999.998
999.986
999.99
999.999
1000
1000
1000
1000
999.831
999.351
999.94
1000
1000
1000
1000
1000
1000
1000
999.687
999.577
1000
1000
1000
1000
1000
1000
1000
1000
1000
1000
1000
1000
1000
1000
1000
1000
1000
1000
1000
1000
1000
1000
1000
999.999
1000
1000
1000
1000
1000
1000
1000
999.998
1000
1000
1000
1000
1000
999.998
999.99
999.999
1000
1000
1000
1000
999.439
999.263
999.927
999.999
1000
1000
1000
1000
1000
1000
999.775
999.698
1000
1000
1000
1000
1000
1000
1000
1000
1000
1000
1000
1000
1000
1000
1000
1000
1000
1000
1000
1000
1000
1000
1000
999.999
1000
1000
1000
1000
1000
1000
1000
999.996
1000
1000
1000
1000
1000
1000
999.991
999.999
1000
1000
1000
1000
999.275
999.315
999.927
999.997
1000
1000
1000
1000
1000
1000
999.846
999.798
1000
1000
1000
1000
1000
1000
1000
1000
1000
1000
1000
1000
1000
1000
1000
1000
1000
1000
1000
1000
1000
1000
1000
999.999
1000
1000
1000
1000
1000
1000
1000
999.993
1000
1000
1000
1000
1000
1000
999.992
999.999
1000
1000
1000
1000
999.359
999.448
999.931
999.993
1000
1000
1000
1000
1000
999.999
999.893
999.859
1000
1000
1000
1000
1000
1000
1000
1000
1000
1000
1000
1000
1000
1000
1000
1000
1000
1000
1000
1000
1000
1000
1000
1000
1000
1000
1000
1000
1000
1000
1000
999.989
1000
1000
1000
999.998
1000
1000
999.993
999.997
1000
1000
1000
999.996
999.602
999.605
999.939
999.99
1000
1000
1000
1000
1000
999.995
999.921
999.885
1000
1000
1000
1000
1000
1000
1000
1000
1000
1000
1000
1000
1000
1000
1000
1000
1000
1000
1000
1000
1000
1000
1000
1000
1000
1000
1000
1000
1000
1000
1000
999.985
1000
1000
1000
999.996
1000
1000
999.994
999.966
1000
1000
1000
999.962
999.772
999.665
999.951
999.99
878.019
1000.01
1000
1000
1000
999.999
999.999
1000
502.48
924.007
1000
1000
1000
1000
1000
1000
431.334
832.335
1000
1000
999.999
1000
1000
1000
486.508
898.592
1000
1000
1000
999.975
999.964
999.649
766.822
999.382
1000
1000
1000
999.733
999.779
998.889
988.141
1000
1000
1000
999.989
999.968
999.967
998.89
1000
999.997
999.999
1000
1000
1000
999.999
999.858
859.326
999.993
1000
1000
1000
999.999
999.999
999.999
465.201
915.94
1000
1000
1000
999.999
999.999
1000
385.954
813.263
999.99
1000
1000
1000
999.986
1000
418.339
881.808
1000
1000
1000
999.91
999.839
998.944
744.002
998.677
1000
1000
1000
999.734
999.669
998.889
982.101
1000
1000
1000
999.945
999.985
999.981
998.889
1000
999.997
999.999
1000
1000
1000
1000
999.876
893.773
999.992
1000
1000
1000
999.999
1000
999.997
618.81
950.2
999.998
1000
1000
999.988
999.999
999.986
502.61
879.804
999.989
1000
1000
999.992
999.928
999.946
554.339
924.944
999.998
1000
1000
999.772
999.63
998.889
822.686
999.605
1000
1000
1000
999.715
999.576
998.888
986.716
1000
1000
1000
999.94
999.987
999.99
999.027
999.999
999.998
999.999
1000
1000
1000
999.998
999.941
924.721
999.522
1000
1000
1000
1000
1000
999.994
868.068
965.081
1000
1000
1000
999.986
1000
999.615
806.778
935.39
999.861
1000
1000
999.925
999.894
999.246
808.272
958.417
1000
1000
1000
999.754
999.61
998.888
905.903
999.776
1000
1000
1000
999.723
999.536
998.888
993.123
999.997
1000
1000
999.94
999.996
999.815
999.608
1000
999.998
999.999
1000
1000
1000
999.987
999.992
902.652
998.998
1000
1000
1000
1000
1000
999.992
847.91
939.714
1000
1000
1000
999.986
1000
999.173
831.083
906.172
999.794
1000
1000
999.871
999.895
998.888
816.45
941.483
1000
1000
1000
999.836
999.677
998.888
888.972
999.012
1000
1000
1000
999.797
999.502
998.888
993.009
1000
1000
1000
999.95
1000
999.249
999.829
1000
999.998
999.999
1000
1000
1000
999.951
999.998
830.969
999.039
1000
1000
1000
1000
1000
999.995
587.121
879.118
1000
1000
1000
999.983
1000
999.23
531.305
812.151
999.999
1000
1000
999.872
999.919
998.888
632.638
881.715
1000
1000
1000
999.97
999.759
998.888
801.761
996.637
1000
1000
999.985
999.924
999.421
998.888
987.281
1000
1000
1000
999.996
999.999
999.229
999.888
1000
999.998
999.999
1000
999.999
1000
999.919
999.999
789.423
999.246
1000
1000
1000
1000
1000
999.999
408.813
852.571
1000
1000
1000
999.975
1000
999.591
412.432
757.388
999.997
1000
1000
999.937
999.938
998.889
414.766
837.25
1000.01
1000
1000
1000
999.747
998.888
733.661
993.366
1000
1000
999.929
999.994
999.274
999.099
979.688
999.997
1000
999.998
999.998
999.999
999.229
999.961
1000
999.998
999.999
1000
999.999
1000
999.924
999.999
802.193
998.833
1000
1000
1000
999.999
1000
1000
457.209
870.158
999.996
1000
1000
999.976
999.998
999.922
409.222
782.878
999.993
1000
1000
999.997
999.901
998.889
432.416
849.218
1000
999.999
999.996
1000
999.573
998.889
748.62
993.111
1000
1000
999.923
999.994
999.22
999.769
980.28
999.954
1000
999.997
999.998
999.999
999.289
999.964
1000
999.998
999.999
1000
999.999
999.999
999.961
999.913
829.817
996.805
1000
1000
1000
999.999
1000
1000
656.252
894.832
999.997
1000
999.997
999.99
999.988
999.969
559.284
835.187
999.235
1000
1000
1000
999.501
999.179
579.543
883.613
1000
999.999
999.984
1000
999.25
999.37
800.458
994.088
1000
999.999
999.923
999.992
999.22
999.947
983.921
999.914
999.999
999.997
999.999
999.995
999.624
999.019
1000
999.998
999.999
1000
1000
999.996
999.988
999.59
824.169
994.736
1000
1000
1000
1000
1000
1000
746.524
879.62
999.914
1000
999.997
999.999
999.934
999.967
715.046
828.424
997.957
1000
1000
1000
999.258
999.909
662.612
883.144
1000
1000
999.981
1000
999.22
999.93
812.191
993.941
1000
1000
999.964
999.996
999.22
999.966
985.09
999.907
1000
999.998
1000
999.979
999.816
997.774
1000
999.998
999.999
1000
1000
999.993
999.988
999.139
794.25
994.644
1000
1000
1000
1000
999.999
999.999
627.851
840.565
999.995
1000
999.999
1000
999.861
999.964
615.397
780.871
998.779
1000
1000
1000
999.722
999.998
603.231
860.041
1000
1000
999.994
1000
999.367
999.999
792.302
992.134
1000
1000
1000
1000
999.236
999.84
982.627
999.893
1000
1000
1000
999.951
999.834
997.718
1000
999.998
999.999
1000
1000
999.992
999.972
998.681
786.426
994.817
1000
1000
1000
1000
999.996
999.999
451.779
836.1
999.999
1000
1000
1000
999.859
999.966
410.918
765.042
999.655
1000
1000
1000
1000
1000
491.349
838.493
1000
1000
1000
1000
999.912
1000
761.766
988.264
1000
1000
1000
1000
999.397
998.399
976.895
999.845
1000
1000
1000
999.926
999.84
997.717
1000
999.998
999.999
1000
1000
999.993
999.93
998.424
793.272
993.495
1000
1000
1000
1000
999.996
999.999
473.539
847.352
999.892
1000
1000
1000
999.859
999.977
423.384
782.302
998.254
1000
1000
1000
1000
1000
486.966
835.207
999.999
1000
1000
1000
1000
1000
751.379
983.246
1000
1000
1000
1000
999.57
997.717
972.818
999.758
1000
1000
1000
999.919
999.85
997.717
1000
999.999
999.999
1000
999.999
999.994
999.872
998.391
790.549
987.297
1000
1000
1000
1000
999.998
1000
617.886
848.295
997.111
1000
1000
1000
999.976
999.994
607.963
795.765
991.59
1000
1000
1000
999.999
1000
506.967
826.182
999.999
1000
1000
1000
1000
1000
739.968
976.347
1000
1000
1000
1000
999.706
997.735
970.197
999.634
1000
1000
1000
999.923
999.856
997.717
1000
1000
999.999
1000
999.996
999.997
999.817
998.412
747.235
973.284
1000
1000
1000
1000
999.999
1000
672.426
795.225
991.114
1000
1000
1000
1000
1000
676.072
746.946
980.69
1000
1000
1000
999.999
1000
479.801
773.548
999.152
1000
1000
1000
1000
999.715
693.164
964.176
1000
1000
1000
1000
999.812
997.748
965.548
999.462
1000
1000
1000
999.941
999.853
997.716
1000
1000
999.999
1000
999.995
1000
999.813
998.591
657.835
962.06
1000
1000
1000
1000
999.999
1000
532.091
682.646
989.036
1000
1000
999.999
1000
1000
456.432
618.951
972.799
1000
1000
1000
999.999
1000
362.253
681.477
996.789
1000
1000
1000
1000
998.325
632.054
950.869
1000
1000
1000
1000
999.894
997.719
962.907
999.377
1000
1000
1000
999.971
999.827
997.716
1000
1000
999.999
1000
999.995
1000
999.823
999.051
1000
1000
1000
1000
1000
1000
1000
1000
1000
999.999
1000
1000
1000
1000
1000
999.963
1000
1000
1000
1000
1000
1000
999.98
999.8
1000
1000
1000
1000
1000
999.998
999.937
999.932
1000
1000
1000
1000
1000
999.996
999.727
997.759
1000
1000
1000
1000
1000
1000
999.759
998.959
1000
1000
1000
1000
1000
1000
999.529
996.844
1000
1000
1000
1000
1000
1000
1000
1000
1000
1000
1000
1000
1000
1000
1000
999.962
1000
1000
1000
1000
1000
1000
999.982
999.97
1000
1000
1000
1000
1000
999.997
999.771
999.616
1000
1000
1000
1000
1000
1000
999.593
997.32
1000
1000
1000
1000
1000
1000
999.712
997.544
1000
1000
1000
1000
1000
1000
998.95
996.843
1000
1000
1000
1000
1000
1000
1000
1000
1000
1000
1000
1000
1000
1000
1000
999.974
1000
1000
1000
1000
1000
1000
999.981
1000
1000
1000
1000
1000
1000
999.993
999.704
998.258
1000
1000
1000
1000
1000
1000
999.496
996.956
1000
1000
1000
1000
1000
1000
999.244
996.843
1000
1000
1000
1000
1000
999.995
998.148
996.843
1000
1000
1000
1000
1000
1000
1000
1000
1000
1000
1000
1000
1000
1000
1000
999.997
1000
1000
1000
1000
1000
1000
999.96
1000
1000
1000
1000
1000
1000
999.989
999.7
997.969
1000
1000
1000
1000
1000
1000
999.51
997.916
1000
1000
1000
1000
1000
999.985
998.33
996.843
1000
1000
1000
1000
1000
999.975
998.124
997.583
1000
1000
1000
1000
1000
1000
1000
1000
1000
1000
1000
1000
1000
1000
1000
1000
1000
1000
1000
1000
1000
1000
999.913
1000
1000
1000
1000
1000
1000
999.987
999.731
998.067
1000
1000
1000
1000
1000
999.998
999.492
999.569
1000
1000
1000
1000
1000
999.934
997.775
997.709
1000
1000
1000
1000
1000
999.975
998.472
998.091
1000
1000
1000
1000
1000
1000
1000
999.999
1000
1000
1000
1000
1000
1000
1000
1000
1000
1000
1000
1000
1000
1000
999.913
999.789
1000
1000
1000
1000
1000
999.987
999.877
998.989
1000
1000
1000
1000
1000
1000
998.738
999.766
1000
1000
1000
1000
1000
999.887
997.85
998.145
1000
1000
1000
1000
1000
999.973
998.931
997.423
1000
1000
1000
1000
1000
1000
1000
999.998
1000
1000
1000
1000
1000
1000
1000
1000
1000
1000
1000
1000
1000
1000
999.932
999.509
1000
1000
1000
1000
1000
999.987
999.995
999.848
1000
1000
1000
1000
1000
999.998
998.147
999.86
1000
1000
1000
1000
1000
999.844
998.334
997.81
1000
1000
1000
1000
1000
999.95
998.921
996.936
1000
1000
1000
1000
1000
1000
1000
999.997
1000
1000
1000
1000
1000
1000
1000
1000
1000
1000
1000
1000
1000
1000
999.97
999.508
1000
1000
1000
1000
1000
999.994
999.995
999.995
1000
1000
1000
1000
1000
999.979
998.146
999.864
1000
1000
1000
1000
1000
999.769
998.733
997.42
1000
1000
1000
1000
1000
999.939
998.568
996.936
1000
1000
1000
1000
1000
1000
1000
1000
1000
1000
1000
1000
1000
1000
1000
1000
1000
1000
1000
1000
1000
999.995
999.999
999.665
1000
1000
1000
1000
1000
1000
999.838
999.129
1000
1000
999.999
1000
1000
999.943
998.145
999.636
1000
1000
1000
1000
1000
999.638
998.933
997.492
1000
1000
1000
1000
1000
999.952
997.809
996.936
1000
1000
1000
1000
1000
1000
999.996
1000
1000
1000
1000
1000
1000
1000
1000
1000
1000
1000
1000
1000
1000
999.991
1000
999.945
1000
1000
1000
1000
1000
1000
998.864
998.53
1000
1000
999.999
999.999
1000
999.873
998.131
999.482
1000
1000
1000
1000
1000
999.558
999.243
998.083
1000
1000
1000
1000
1000
999.996
997.211
996.936
1000
1000
1000
1000
1000
1000
999.986
999.99
1000
1000
1000
1000
1000
1000
1000
1000
1000
1000
1000
1000
1000
999.991
1000
1000
1000
1000
1000
999.999
1000
1000
998.134
998.599
1000
1000
999.999
999.999
1000
999.829
998.131
999.567
1000
1000
1000
1000
1000
999.583
999.178
998.814
1000
1000
1000
1000
1000
1000
997.06
996.936
1000
1000
1000
1000
1000
1000
999.983
999.977
1000
1000
1000
1000
1000
1000
1000
1000
1000
1000
1000
1000
1000
999.992
1000
1000
1000
1000
999.999
999.999
1000
1000
998.137
999.546
1000
1000
999.999
999.999
1000
999.838
998.33
999.724
1000
1000
1000
1000
1000
999.686
997.229
998.93
1000
1000
1000
1000
1000
1000
996.962
996.936
1000
1000
1000
1000
1000
1000
999.983
999.976
1000
1000
1000
1000
1000
1000
1000
1000
1000
1000
1000
1000
1000
999.997
999.988
1000
1000
1000
999.999
999.999
1000
1000
999.127
999.946
1000
1000
999.999
1000
1000
999.753
999.537
999.463
1000
1000
1000
1000
1000
999.68
996.998
998.964
1000
1000
1000
1000
1000
1000
996.997
996.936
1000
1000
1000
1000
999.999
1000
999.986
999.98
1000
1000
1000
1000
1000
1000
1000
1000
1000
1000
1000
1000
1000
1000
999.839
1000
1000
1000
999.999
999.999
1000
1000
999.973
999.936
1000
1000
999.999
1000
1000
999.264
999.821
998.858
1000
1000
1000
1000
1000
999.646
997.002
998.985
1000
1000
1000
1000
1000
1000
997.444
996.936
1000
1000
1000
1000
999.999
1000
999.987
999.993
1000
1000
1000
1000
1000
1000
1000
1000
1000
1000
1000
1000
1000
1000
999.809
1000
1000
1000
999.999
999.999
1000
999.832
999.932
999.847
1000
1000
1000
1000
1000
999.206
999.797
998.572
1000
1000
1000
1000
1000
999.631
997.004
998.985
1000
1000
1000
1000
1000
1000
998.413
996.937
1000
1000
1000
1000
999.999
1000
999.986
1000
1000
1000
1000
1000
1000
1000
1000
1000
1000
1000
1000
1000
1000
1000
999.814
999.888
1000
1000
1000
1000
1000
999.237
999.778
999.771
1000
1000
1000
999.999
1000
999.207
999.738
997.962
1000
1000
1000
1000
1000
999.689
997.334
998.985
1000
1000
1000
1000
1000
999.982
999.082
996.949
1000
1000
1000
999.874
999.564
999.837
999.838
999.978
1000
1000
1000
999.948
999.347
999.9
998.07
999.382
1000
1000
999.994
999.955
999.02
998.569
997.813
997.812
976.803
1000
1000
999.926
999.804
999.741
999.928
999.231
1000
999.998
999.999
999.968
999.992
999.992
999.992
999.99
1000
1000
1000
999.765
999.642
999.9
999.824
999.971
1000
1000
1000
999.693
999.895
999.9
997.873
999.824
1000
1000
999.992
999.993
999.287
998.753
997.862
997.811
941.9
1000
1000
999.957
999.822
999.644
999.324
997.857
777.599
1000
1000
999.998
1000
999.996
999.99
999.924
778.236
1000
1000
1000
1000
999.933
999.995
999.993
930.664
1000
1000
1000
1000
999.901
999.981
999.998
1000
999.999
1000
999.735
999.627
999.88
999.73
999.941
1000
1000
1000
999.585
999.872
999.578
998.741
999.918
999.402
1000
999.994
999.995
999.649
999.352
998.97
997.81
937.295
1000
999.999
999.988
999.872
999.617
998.028
997.808
757.049
1000.01
999.999
999.999
999.999
999.987
999.991
998.985
750.03
1000.02
1000
1000
1000
1000
999.998
999.999
918.375
1000
1000
1000
1000
999.994
999.997
999.999
1000
999.999
1000
999.796
999.258
999.778
999.594
999.84
1000
1000
1000
999.585
999.595
997.669
999.208
999.517
999.302
1000
999.998
999.996
999.792
999.757
999.74
998.522
959.224
999.999
999.999
999.999
999.933
999.583
997.807
997.807
840.964
999.988
999.999
999.999
1000
999.98
999.958
997.894
834.744
999.988
1000
1000
1000
999.999
999.998
999.999
944.866
999.999
1000
1000
1000
1000
1000
999.999
999.999
999.999
1000
999.931
999.212
999.427
999.582
999.733
1000
1000
1000
999.652
998.432
997.541
999.156
998.903
999.762
1000
1000
999.997
999.757
999.747
999.219
999.738
973.528
1000
1000
999.999
999.987
999.609
997.805
997.806
909.632
999.993
1000
999.999
1000
999.989
999.788
997.811
914.375
999.991
1000
1000
1000
999.96
999.994
999.999
959.754
1000
1000
1000
1000
999.999
1000
999.992
999.999
999.999
1000
999.999
999.283
998.814
999.582
999.752
1000
1000
1000
999.715
997.554
997.54
998.835
998.847
1000
1000
1000
999.907
999.626
999.736
997.972
999.788
968.237
1000
1000
999.998
999.998
999.699
998.458
998.954
882.861
999.921
1000
1000
999.994
1000
999.27
997.821
887.586
999.889
1000
1000
999.994
999.956
999.983
999.483
943.306
1000
1000
1000
999.994
999.996
999.998
999.983
999.999
1000
1000
1000
999.456
998.762
999.581
999.831
1000
1000
1000
999.722
997.54
997.539
998.387
999.277
999.527
1000
1000
999.503
999.467
999.628
997.971
999.791
948.945
1000
1000
999.992
999.994
999.825
999.858
999.743
788.545
999.887
1000
1000
999.951
1000
998.359
997.822
780.623
999.482
1000
1000
999.949
999.961
999.918
998.096
896.555
1000
1000
1000
999.984
999.984
999.982
999.965
1000
1000
1000
999.998
999.62
999.077
999.644
999.926
1000
1000
1000
999.683
997.558
997.539
998.408
999.716
998.401
1000
1000
999.414
999.461
998.821
997.971
999.832
935.121
1000
1000
999.978
999.98
999.933
999.931
999.708
734.62
999.802
1000
1000
999.961
1000
997.842
997.823
705.853
998.42
1000
1000
999.93
999.991
999.586
997.823
863.769
1000
1000
1000
999.981
999.98
999.952
999.926
1000
1000
1000
999.977
999.693
999.585
999.796
999.965
1000
1000
1000
999.533
997.547
997.539
998.791
999.847
998.339
1000
1000
999.415
999.469
997.585
998.326
999.89
938.624
1000
1000
999.958
999.965
999.966
999.918
999.705
757.08
999.422
1000
1000
999.993
1000
997.824
997.823
729.724
998.63
1000
1000
999.93
1000
998.705
997.823
869.806
1000
1000
1000
999.982
999.982
999.923
999.889
1000
1000
1000
999.948
999.771
999.892
999.927
999.98
1000
1000
1000
999.348
997.551
997.663
999.432
999.637
998.679
1000
1000
999.538
999.432
997.543
999.397
999.89
948.142
1000
1000
999.926
999.963
999.976
999.935
999.807
805.299
998.691
1000
1000
1000
999.988
998.136
997.885
784.25
998.618
1000
1000
999.93
1000
998.086
997.824
883.089
1000
1000
1000
999.984
999.987
999.911
999.885
1000
1000
1000
999.948
999.86
999.954
999.954
999.998
1000
1000
1000
999.343
997.553
998.641
999.586
999.172
998.789
1000
1000
999.871
999.262
997.541
999.205
998.648
949.854
1000
1000
999.908
999.968
999.992
999.984
999.966
804.798
998.328
1000
1000
1000
999.908
999.381
999.496
783.318
997.855
1000
1000
999.974
1000
998.31
998.146
874.659
1000
1000
1000
999.991
999.995
999.917
999.891
1000
1000
1000
999.97
999.723
999.692
999.924
1000
1000
1000
1000
999.464
997.555
999.487
999.465
999.19
998.398
1000
1000
999.999
998.545
997.54
997.551
997.54
946.273
1000
1000
999.946
999.99
999.995
999.995
999.942
778.018
998.187
1000
1000
1000
999.904
999.995
999.996
747.664
996.933
1000
1000
1000
1000
999.475
999.87
853.099
999.999
1000
1000
1000
1000
999.967
999.906
1000
1000
1000
999.998
998.689
998.109
999.835
1000
1000
1000
1000
999.592
998.981
999.566
999.199
999.424
997.594
1000
1000
999.995
997.601
997.535
997.536
997.538
939.133
1000
1000
999.999
1000
999.945
999.38
999.877
755.969
997.515
1000
1000
1000
999.982
999.996
999.996
724.02
995.693
1000
1000
1000
1000
1000
999.997
848.579
999.999
999.999
999.999
1000
1000
999.964
999.97
1000
1000
1000
1000
997.608
997.402
999.749
999.999
1000
1000
1000
999.725
999.725
999.292
999.172
999.788
996.908
1000
1000
999.874
997.534
997.534
997.778
997.724
931.931
1000
1000
1000
1000
999.229
998.212
999.886
751.863
995.139
1000
1000
1000
1000
999.992
999.996
726.081
992.904
1000
1000
1000
1000
999.963
999.995
848.907
999.972
1000
1000
1000
999.998
999.752
999.983
1000
1000
1000
1000
997.552
997.394
999.743
999.997
1000
1000
1000
999.858
999.686
996.508
999.195
999.976
996.431
1000
1000
999.557
997.537
998.338
999.428
999.713
921.363
1000
1000
1000
1000
998.232
998.2
999.885
739.628
990.279
1000
1000
1000
999.159
999.953
999.881
721.522
986.528
1000
1000
1000
999.775
999.768
999.994
837.176
999.265
1000
1000
1000
999.978
999.728
999.989
1000
1000
1000
1000
997.777
997.589
999.776
999.988
1000
1000
1000
999.961
999.562
996.458
999.229
999.987
996.092
1000
1000
999.427
999.049
999.68
999.821
999.832
901.423
1000
1000
1000
999.929
998.652
998.832
999.159
685.802
982.932
1000
1000
1000
998.674
999.762
999.684
671.903
974.091
1000
1000
1000
998.729
999.607
999.994
779.381
997.39
1000
1000
1000
999.918
999.737
999.992
1000
999.998
1000
1000
997.763
998.074
999.854
999.974
1000
1000
1000
1000
998.896
996.457
999.355
999.987
996.332
1000
1000
999.588
999.897
999.884
999.859
999.637
887.258
1000
1000
1000
999.804
999.792
999.732
998.039
620.206
977.707
1000
1000
999.998
998.862
999.099
999.694
575.331
961.617
1000
1000
1000
998.677
999.602
999.99
700.023
994.704
1000
1000
1000
999.882
999.783
999.993
1000
1000
1000
1000
1000
1000
1000
1000
1000
1000
1000
1000
1000
1000
1000
1000
1000
1000
1000
1000
1000
1000
1000
1000
1000
1000
1000
1000
1000
1000
1000
1000
1000
1000
1000
1000
1000
1000
1000
1000
1000
1000
1000
1000
1000
1000
1000
1000
1000
1000
1000
1000
1000
1000
1000
1000
1000
1000
1000
1000
1000
1000
1000
1000
1000
1000
1000
1000
1000
1000
1000
1000
1000
1000
1000
1000
1000
1000
1000
1000
1000
1000
1000
1000
1000
1000
1000
1000
1000
1000
1000
1000
1000
1000
1000
1000
1000
1000
1000
1000
1000
1000
1000
1000
1000
1000
1000
1000
1000
1000
1000
1000
1000
1000
1000
1000
1000
1000
1000
1000
1000
1000
1000
1000
1000
1000
1000
1000
1000
1000
1000
1000
1000
1000
1000
1000
1000
1000
1000
1000
1000
1000
1000
1000
1000
1000
1000
1000
1000
1000
1000
1000
1000
1000
1000
1000
1000
1000
1000
1000
1000
1000
1000
1000
1000
1000
1000
1000
1000
1000
1000
1000
1000
1000
1000
1000
1000
1000
1000
1000
1000
1000
1000
1000
1000
1000
1000
1000
1000
1000
1000
1000
1000
1000
1000
1000
1000
1000
1000
1000
1000
1000
1000
1000
1000
1000
1000
1000
1000