/*--------------------------------*- C++ -*----------------------------------*\
| =========                 |                                                 |
| \\      /  F ield         | OpenFOAM: The Open Source CFD Toolbox           |
|  \\    /   O peration     | Version:  plus.master.MPPICInterFoam            |
|   \\  /    A nd           | Web:      www.OpenFOAM.com                      |
|    \\/     M anipulation  |                                                 |
\*---------------------------------------------------------------------------*/
FoamFile
{
    version     2.0;
    format      ascii;
    class       surfaceScalarField;
    location    "13.8";
    object      phi;
}
// * * * * * * * * * * * * * * * * * * * * * * * * * * * * * * * * * * * * * //

dimensions      [0 3 -1 0 0 0 0];

internalField   nonuniform List<scalar> 
34004
(
-8.18621e-09
1.88385e-08
-1.55195e-06
-3.36178e-08
-2.45484e-08
1.94769e-08
-1.97501e-06
-3.3872e-08
-4.32031e-08
1.96857e-08
-2.32192e-06
-3.45106e-08
-6.11721e-08
1.97679e-08
-2.66254e-06
-3.47881e-08
-7.76194e-08
1.96161e-08
-3.01226e-06
-3.46681e-08
-9.21147e-08
1.92042e-08
-3.37505e-06
-3.41431e-08
-1.04079e-07
1.85662e-08
-3.75043e-06
-3.3285e-08
1.77866e-08
-4.13452e-06
-3.22132e-08
-1.12712e-07
-7.5007e-09
7.06348e-10
-1.56676e-06
-2.29655e-08
1.62915e-09
-1.98975e-06
-4.07791e-08
1.9731e-09
-2.33771e-06
-5.82068e-08
2.11223e-09
-2.68006e-06
-7.4295e-08
2.12341e-09
-3.03151e-06
-8.84752e-08
1.9542e-09
-3.39605e-06
-1.00139e-07
1.63301e-09
-3.77322e-06
1.20463e-09
-4.15923e-06
-1.08499e-07
-6.32905e-09
-2.2753e-08
-1.59031e-06
-2.29433e-08
-2.04796e-08
-2.01145e-06
-4.16376e-08
-1.90004e-08
-2.35879e-06
-5.87298e-08
-1.79872e-08
-2.70275e-06
-7.48322e-08
-1.75236e-08
-3.05167e-06
-8.8842e-08
-1.72507e-08
-3.41613e-06
-1.003e-07
-1.712e-08
-3.79406e-06
-1.71482e-08
-4.18143e-06
-1.08423e-07
-7.17658e-09
-4.17557e-08
-1.57403e-06
-2.0734e-08
-3.98223e-08
-1.99889e-06
-3.69601e-08
-3.8474e-08
-2.35254e-06
-5.44012e-08
-3.76155e-08
-2.70394e-06
-7.00567e-08
-3.68052e-08
-3.05556e-06
-8.36948e-08
-3.61569e-08
-3.421e-06
-9.50857e-08
-3.56965e-08
-3.80062e-06
-3.54182e-08
-4.19027e-06
-1.03384e-07
-7.6985e-09
-5.91651e-08
-1.56118e-06
-2.09488e-08
-5.73459e-08
-1.98307e-06
-3.64405e-08
-5.61535e-08
-2.33469e-06
-5.22516e-08
-5.53679e-08
-2.68254e-06
-6.73804e-08
-5.46473e-08
-3.03986e-06
-8.11139e-08
-5.39513e-08
-3.4105e-06
-9.27406e-08
-5.33115e-08
-3.7941e-06
-5.27877e-08
-4.18691e-06
-1.01399e-07
-7.95366e-09
-7.55928e-08
-1.55006e-06
-2.14718e-08
-7.33128e-08
-1.96941e-06
-3.70373e-08
-7.21035e-08
-2.31964e-06
-5.29984e-08
-7.14448e-08
-2.66705e-06
-6.83729e-08
-7.08264e-08
-3.02504e-06
-8.23782e-08
-7.01376e-08
-3.39673e-06
-9.42488e-08
-6.9391e-08
-3.78139e-06
-6.86522e-08
-4.17515e-06
-1.03116e-07
-1.07009e-08
-1.54007e-06
-8.79499e-08
-2.65388e-08
-1.95734e-06
-8.52678e-08
-4.39869e-08
-2.30601e-06
-8.41888e-08
-6.15795e-08
-2.65218e-06
-8.37645e-08
-7.83813e-08
-3.00906e-06
-8.33419e-08
-9.35562e-08
-3.37963e-06
-8.27814e-08
-1.06252e-07
-3.76303e-06
-8.20763e-08
-4.15523e-06
-8.13001e-08
-1.1548e-07
-7.31642e-09
1.8483e-08
-1.53135e-06
-3.17796e-08
-2.14551e-08
1.78035e-08
-1.94795e-06
-3.07342e-08
-3.73089e-08
1.72627e-08
-2.29296e-06
-3.03845e-08
-5.28088e-08
1.6689e-08
-2.63389e-06
-2.98647e-08
-6.71193e-08
1.59063e-08
-2.98487e-06
-2.8999e-08
-7.98208e-08
1.48919e-08
-3.3495e-06
-2.77517e-08
-9.04566e-08
1.36716e-08
-3.72727e-06
-2.61828e-08
1.2322e-08
-4.11445e-06
-2.4408e-08
-9.83902e-08
-6.16671e-09
1.7592e-09
-1.54387e-06
-1.91088e-08
1.65337e-09
-1.96067e-06
-3.40917e-08
1.46539e-09
-2.30695e-06
-4.90369e-08
1.17432e-09
-2.64962e-06
-6.29749e-08
6.70684e-10
-3.00237e-06
-7.539e-08
3.88353e-11
-3.36882e-06
-8.57987e-08
-7.08443e-10
-3.74848e-06
-1.55948e-09
-4.13765e-06
-9.35632e-08
-4.89189e-09
-2.01694e-08
-1.5635e-06
-1.79971e-08
-1.84064e-08
-1.9783e-06
-3.33651e-08
-1.74211e-08
-2.32455e-06
-4.87772e-08
-1.685e-08
-2.66881e-06
-6.25929e-08
-1.65794e-08
-3.02062e-06
-7.48519e-08
-1.65135e-08
-3.38733e-06
-8.51023e-08
-1.66063e-08
-3.76792e-06
-1.68507e-08
-4.15852e-06
-9.27239e-08
-5.0318e-09
-3.8481e-08
-1.5507e-06
-1.59496e-08
-3.64955e-08
-1.9699e-06
-2.95581e-08
-3.52378e-08
-2.32114e-06
-4.44364e-08
-3.44059e-08
-2.67134e-06
-5.80964e-08
-3.35997e-08
-3.0249e-06
-7.01915e-08
-3.29363e-08
-3.39251e-06
-8.03251e-08
-3.24256e-08
-3.7747e-06
-3.2097e-08
-4.16737e-06
-8.80212e-08
-5.70818e-09
-5.49063e-08
-1.53905e-06
-1.64154e-08
-5.26526e-08
-1.95622e-06
-2.91708e-08
-5.12187e-08
-2.30598e-06
-4.25033e-08
-5.019e-08
-2.65344e-06
-5.54176e-08
-4.91876e-08
-3.01138e-06
-6.73151e-08
-4.8192e-08
-3.38336e-06
-7.76345e-08
-4.72504e-08
-3.76897e-06
-4.6432e-08
-4.16453e-06
-8.56939e-08
-6.02374e-09
-7.02402e-08
-1.52871e-06
-1.70582e-08
-6.71945e-08
-1.94385e-06
-2.99521e-08
-6.54841e-08
-2.2925e-06
-4.33401e-08
-6.43332e-08
-2.63955e-06
-5.63913e-08
-6.32083e-08
-2.998e-06
-6.84684e-08
-6.20046e-08
-3.37087e-06
-7.89655e-08
-6.07447e-08
-3.75743e-06
-5.95073e-08
-4.1539e-06
-8.7184e-08
-8.64234e-09
-1.51987e-06
-8.17922e-08
-2.18583e-08
-1.93323e-06
-7.80993e-08
-3.65006e-08
-2.28055e-06
-7.63163e-08
-5.13365e-08
-2.62649e-06
-7.5209e-08
-6.56089e-08
-2.98394e-06
-7.40939e-08
-7.86647e-08
-3.35579e-06
-7.2824e-08
-8.98321e-08
-3.74123e-06
-7.14101e-08
-4.13635e-06
-6.99396e-08
-9.83127e-08
-6.85666e-09
1.75337e-08
-1.51267e-06
-2.93563e-08
-1.91914e-08
1.57453e-08
-1.92426e-06
-2.71248e-08
-3.28179e-08
1.4559e-08
-2.26795e-06
-2.59569e-08
-4.62245e-08
1.34316e-08
-2.6092e-06
-2.4737e-08
-5.86849e-08
1.21321e-08
-2.96135e-06
-2.32254e-08
-6.97934e-08
1.06254e-08
-3.32767e-06
-2.13729e-08
-7.91706e-08
8.93122e-09
-3.70763e-06
-1.92267e-08
7.11498e-09
-4.09758e-06
-1.68903e-08
-8.63104e-08
-5.36657e-09
2.32516e-09
-1.52331e-06
-1.6347e-08
1.41449e-09
-1.93538e-06
-2.90926e-08
7.87731e-10
-2.28045e-06
-4.19645e-08
1.27429e-10
-2.62347e-06
-5.40923e-08
-7.08362e-10
-2.97743e-06
-6.50023e-08
-1.65467e-09
-3.34566e-06
-7.42773e-08
-2.72343e-09
-3.72758e-06
-3.89139e-09
-4.11954e-06
-8.14029e-08
-3.94634e-09
-1.77439e-08
-1.5395e-06
-1.45469e-08
-1.64165e-08
-1.9499e-06
-2.71758e-08
-1.57565e-08
-2.29541e-06
-4.08621e-08
-1.54408e-08
-2.63958e-06
-5.28945e-08
-1.53445e-08
-2.99399e-06
-6.36998e-08
-1.54366e-08
-3.36278e-06
-7.28951e-08
-1.56652e-08
-3.74583e-06
-1.60369e-08
-4.13932e-06
-7.9988e-08
-3.57372e-09
-3.50952e-08
-1.52978e-06
-1.24328e-08
-3.29936e-08
-1.9445e-06
-2.38265e-08
-3.17497e-08
-2.29379e-06
-3.69592e-08
-3.08976e-08
-2.64231e-06
-4.89969e-08
-3.00147e-08
-2.99823e-06
-5.9545e-08
-2.92395e-08
-3.36818e-06
-6.8593e-08
-2.86158e-08
-3.75272e-06
-2.81758e-08
-4.14813e-06
-7.57079e-08
-4.32077e-09
-5.045e-08
-1.51939e-06
-1.30671e-08
-4.76819e-08
-1.93283e-06
-2.36986e-08
-4.59418e-08
-2.28119e-06
-3.50332e-08
-4.46161e-08
-2.62843e-06
-4.61178e-08
-4.32943e-08
-2.98705e-06
-5.64513e-08
-4.19728e-08
-3.36032e-06
-6.55973e-08
-4.07002e-08
-3.74775e-06
-3.95559e-08
-4.14573e-06
-7.30223e-08
-4.68043e-09
-6.46723e-08
-1.50983e-06
-1.37856e-08
-6.08118e-08
-1.92167e-06
-2.45485e-08
-5.8567e-08
-2.26916e-06
-3.58321e-08
-5.69012e-08
-2.61602e-06
-4.69294e-08
-5.52593e-08
-2.97497e-06
-5.73315e-08
-5.35366e-08
-3.34892e-06
-6.65669e-08
-5.17609e-08
-3.73714e-06
-5.00192e-08
-4.13591e-06
-7.40865e-08
-7.14299e-09
-1.50196e-06
-7.54656e-08
-1.82459e-08
-1.91224e-06
-7.07417e-08
-3.058e-08
-2.25859e-06
-6.82391e-08
-4.31063e-08
-2.60446e-06
-6.64503e-08
-5.52014e-08
-2.96246e-06
-6.46758e-08
-6.63703e-08
-3.33545e-06
-6.27368e-08
-7.60992e-08
-3.72261e-06
-6.06588e-08
-4.12017e-06
-5.85352e-08
-8.37627e-08
-6.61817e-09
1.60148e-08
-1.49573e-06
-2.63442e-08
-1.73811e-08
1.33919e-08
-1.9037e-06
-2.32068e-08
-2.91436e-08
1.16978e-08
-2.24658e-06
-2.13127e-08
-4.07381e-08
1.01563e-08
-2.58825e-06
-1.95134e-08
-5.15438e-08
8.48143e-09
-2.94154e-06
-1.74927e-08
-6.12009e-08
6.6284e-09
-3.30947e-06
-1.5177e-08
-6.9403e-08
4.60605e-09
-3.69143e-06
-1.25966e-08
2.4665e-09
-4.08384e-06
-9.83811e-09
-7.57572e-08
-4.87907e-09
2.46891e-09
-1.5049e-06
-1.42678e-08
9.94751e-10
-1.91361e-06
-2.51525e-08
3.96167e-11
-2.25793e-06
-3.62599e-08
-8.41036e-10
-2.60138e-06
-4.6788e-08
-1.87705e-09
-2.95657e-06
-5.63217e-08
-3.02393e-09
-3.32649e-06
-6.45234e-08
-4.28262e-09
-3.71051e-06
-5.64043e-09
-4.10498e-06
-7.09906e-08
-3.35546e-09
-1.54749e-08
-1.51821e-06
-1.20903e-08
-1.44647e-08
-1.92573e-06
-2.28344e-08
-1.40073e-08
-2.27064e-06
-3.42486e-08
-1.37713e-08
-2.61527e-06
-4.48956e-08
-1.38126e-08
-2.97143e-06
-5.44261e-08
-1.39433e-08
-3.34236e-06
-6.26551e-08
-1.41994e-08
-3.72769e-06
-1.45998e-08
-4.12381e-06
-6.92093e-08
-2.65713e-09
-3.15297e-08
-1.51109e-06
-9.96838e-09
-2.92437e-08
-1.92245e-06
-1.9558e-08
-2.79103e-08
-2.27033e-06
-3.10183e-08
-2.69625e-08
-2.61769e-06
-4.12684e-08
-2.59374e-08
-2.97588e-06
-5.06166e-08
-2.50335e-08
-3.34775e-06
-5.87114e-08
-2.42582e-08
-3.73457e-06
-2.36601e-08
-4.13249e-06
-6.52784e-08
-3.35614e-09
-4.56824e-08
-1.50191e-06
-1.05317e-08
-4.23676e-08
-1.91258e-06
-1.9413e-08
-4.02837e-08
-2.25998e-06
-2.90171e-08
-3.86249e-08
-2.60719e-06
-3.84898e-08
-3.69794e-08
-2.96654e-06
-4.74274e-08
-3.53235e-08
-3.34108e-06
-5.54918e-08
-3.37122e-08
-3.73021e-06
-3.22306e-08
-4.13033e-06
-6.22782e-08
-3.72699e-09
-5.87536e-08
-1.49307e-06
-1.12262e-08
-5.41064e-08
-1.90249e-06
-2.01839e-08
-5.13382e-08
-2.24919e-06
-2.96366e-08
-4.91724e-08
-2.59605e-06
-3.90036e-08
-4.70373e-08
-2.95555e-06
-4.78853e-08
-4.48235e-08
-3.33053e-06
-5.59351e-08
-4.2561e-08
-3.72021e-06
-4.03406e-08
-4.12094e-06
-6.27434e-08
-5.99224e-09
-1.48595e-06
-6.88107e-08
-1.52635e-08
-1.894e-06
-6.31318e-08
-2.55741e-08
-2.23969e-06
-5.99643e-08
-3.6048e-08
-2.58563e-06
-5.75518e-08
-4.61885e-08
-2.94419e-06
-5.51693e-08
-5.56282e-08
-3.31818e-06
-5.2635e-08
-6.40005e-08
-3.7068e-06
-4.99675e-08
-4.10636e-06
-4.72609e-08
-7.08419e-08
-6.35752e-09
1.40365e-08
-1.48061e-06
-2.28073e-08
-1.57643e-08
1.08708e-08
-1.88614e-06
-1.90002e-08
-2.59213e-08
8.84643e-09
-2.22866e-06
-1.65958e-08
-3.58918e-08
7.04004e-09
-2.57092e-06
-1.43941e-08
-4.51668e-08
5.1463e-09
-2.92536e-06
-1.20344e-08
-5.3454e-08
3.09945e-09
-3.29484e-06
-9.42405e-09
-6.05312e-08
8.96809e-10
-3.67865e-06
-6.57427e-09
-1.4241e-09
-4.07323e-06
-3.55402e-09
-6.61195e-08
-4.4884e-09
2.31218e-09
-1.48868e-06
-1.25724e-08
5.26039e-10
-1.89518e-06
-2.19019e-08
-5.83867e-10
-2.23917e-06
-3.14172e-08
-1.59418e-09
-2.58324e-06
-4.04696e-08
-2.69918e-09
-2.93966e-06
-4.8709e-08
-3.90626e-09
-3.31123e-06
-5.58821e-08
-5.22375e-09
-3.69719e-06
-6.64789e-09
-4.0939e-06
-6.16949e-08
-2.93117e-09
-1.32885e-08
-1.49969e-06
-1.02639e-08
-1.24461e-08
-1.90544e-06
-1.93195e-08
-1.20649e-08
-2.25012e-06
-2.88997e-08
-1.18787e-08
-2.59541e-06
-3.80258e-08
-1.18559e-08
-2.95315e-06
-4.63358e-08
-1.19399e-08
-3.326e-06
-5.3631e-08
-1.21397e-08
-3.71345e-06
-1.24846e-08
-4.11193e-06
-5.96357e-08
-2.04985e-09
-2.77195e-08
-1.49463e-06
-8.18377e-09
-2.51979e-08
-1.90359e-06
-1.63803e-08
-2.37039e-08
-2.25052e-06
-2.56714e-08
-2.25488e-08
-2.59774e-06
-3.45952e-08
-2.14086e-08
-2.95728e-06
-4.27393e-08
-2.0336e-08
-3.33119e-06
-4.99124e-08
-1.93728e-08
-3.72011e-06
-1.85799e-08
-4.1203e-06
-5.59367e-08
-2.58449e-09
-4.05254e-08
-1.48655e-06
-8.45784e-09
-3.66831e-08
-1.89526e-06
-1.58316e-08
-3.4252e-08
-2.24208e-06
-2.38408e-08
-3.22625e-08
-2.58947e-06
-3.18243e-08
-3.02989e-08
-2.94966e-06
-3.94472e-08
-2.83211e-08
-3.32544e-06
-4.6475e-08
-2.63826e-08
-3.71611e-06
-2.45718e-08
-4.1181e-06
-5.26294e-08
-2.91312e-09
-5.2405e-08
-1.47831e-06
-9.00798e-09
-4.70728e-08
-1.88604e-06
-1.63549e-08
-4.38366e-08
-2.23228e-06
-2.41367e-08
-4.12218e-08
-2.57931e-06
-3.18943e-08
-3.8646e-08
-2.93943e-06
-3.93422e-08
-3.59965e-08
-3.31537e-06
-4.62598e-08
-3.33014e-08
-3.70631e-06
-3.06509e-08
-4.10866e-06
-5.23758e-08
-4.92494e-09
-1.47171e-06
-6.17531e-08
-1.25212e-08
-1.87822e-06
-5.52903e-08
-2.09734e-08
-2.22352e-06
-5.15671e-08
-2.95495e-08
-2.56965e-06
-4.86166e-08
-3.78625e-08
-2.92877e-06
-4.57318e-08
-4.5676e-08
-3.30363e-06
-4.27014e-08
-5.27665e-08
-3.69342e-06
-3.95429e-08
-4.09454e-06
-3.63459e-08
-5.88302e-08
-5.95363e-09
1.17947e-08
-1.46751e-06
-1.89317e-08
-1.41816e-08
8.37242e-09
-1.87155e-06
-1.47193e-08
-2.29093e-08
6.20324e-09
-2.21409e-06
-1.20359e-08
-3.13807e-08
4.28908e-09
-2.5571e-06
-9.61361e-09
-3.92029e-08
2.32158e-09
-2.91275e-06
-7.0795e-09
-4.61741e-08
2.21696e-10
-3.28372e-06
-4.33255e-09
-5.21753e-08
-2.02496e-09
-3.66921e-06
-1.36691e-09
-4.39598e-09
-4.06567e-06
1.76554e-09
-5.70474e-08
-4.10122e-09
2.04702e-09
-1.47482e-06
-1.10955e-08
1.86246e-10
-1.87999e-06
-1.90544e-08
-9.42405e-10
-2.22405e-06
-2.70964e-08
-1.95272e-09
-2.56893e-06
-3.47257e-08
-3.01918e-09
-2.92666e-06
-4.17011e-08
-4.17108e-09
-3.29982e-06
-4.78641e-08
-5.43681e-09
-3.68755e-06
-6.82231e-09
-4.08623e-06
-5.30333e-08
-2.5906e-09
-1.10588e-08
-1.48399e-06
-8.80201e-09
-1.02335e-08
-1.8888e-06
-1.63801e-08
-9.81733e-09
-2.23366e-06
-2.43156e-08
-9.56018e-09
-2.57985e-06
-3.18871e-08
-9.4033e-09
-2.93916e-06
-3.8935e-08
-9.37825e-09
-3.3137e-06
-4.52722e-08
-9.45534e-09
-3.70303e-06
-9.67701e-09
-4.10355e-06
-5.07078e-08
-1.59878e-09
-2.36153e-08
-1.48048e-06
-6.73893e-09
-2.08268e-08
-1.88785e-06
-1.35256e-08
-1.91372e-08
-2.2344e-06
-2.09737e-08
-1.77731e-08
-2.58205e-06
-2.85586e-08
-1.6469e-08
-2.94259e-06
-3.53765e-08
-1.51896e-08
-3.3185e-06
-4.16004e-08
-1.40159e-08
-3.70925e-06
-1.30079e-08
-4.1114e-06
-4.70772e-08
-1.88801e-09
-3.49553e-08
-1.47333e-06
-6.61293e-09
-3.06428e-08
-1.88071e-06
-1.25897e-08
-2.78965e-08
-2.22733e-06
-1.90681e-08
-2.56016e-08
-2.57514e-06
-2.55859e-08
-2.33448e-08
-2.93622e-06
-3.19005e-08
-2.10757e-08
-3.31318e-06
-3.79003e-08
-1.88387e-08
-3.70522e-06
-1.67229e-08
-4.10875e-06
-4.34388e-08
-2.09712e-09
-4.56332e-08
-1.46554e-06
-6.88762e-09
-3.97666e-08
-1.87212e-06
-1.27068e-08
-3.6155e-08
-2.21818e-06
-1.88735e-08
-3.31714e-08
-2.56554e-06
-2.50554e-08
-3.02337e-08
-2.92631e-06
-3.10977e-08
-2.72259e-08
-3.30312e-06
-3.69145e-08
-2.41717e-08
-3.6951e-06
-2.11563e-08
-4.09869e-06
-4.23801e-08
-3.78615e-09
-1.45923e-06
-5.43328e-08
-9.77217e-09
-1.86466e-06
-4.73208e-08
-1.64306e-08
-2.2098e-06
-4.31937e-08
-2.3161e-08
-2.55621e-06
-3.98545e-08
-2.9699e-08
-2.91586e-06
-3.65683e-08
-3.59405e-08
-3.2914e-06
-3.3162e-08
-4.18121e-08
-3.68204e-06
-2.96278e-08
-4.08423e-06
-2.60448e-08
-4.71736e-08
-5.46677e-09
9.50935e-09
-1.4566e-06
-1.49431e-08
-1.25932e-08
6.10646e-09
-1.8599e-06
-1.06261e-08
-1.99667e-08
3.96643e-09
-2.2028e-06
-7.86771e-09
-2.69899e-08
2.08725e-09
-2.54675e-06
-5.39155e-09
-3.33856e-08
1.69101e-10
-2.90365e-06
-2.83303e-09
-3.90662e-08
-1.8631e-09
-3.27604e-06
-8.99652e-11
-4.40303e-08
-4.04336e-09
-3.66301e-06
2.86332e-09
-6.36046e-09
-4.06102e-06
5.98675e-09
-4.82454e-08
-3.74924e-09
1.87395e-09
-1.46343e-06
-9.75779e-09
1.51894e-10
-1.86802e-06
-1.64197e-08
-8.73817e-10
-2.21253e-06
-2.30257e-08
-1.77302e-09
-2.55843e-06
-2.92354e-08
-2.70381e-09
-2.91754e-06
-3.49279e-08
-3.72375e-09
-3.29222e-06
-4.0067e-08
-4.85897e-09
-3.68154e-06
-6.12862e-09
-4.08186e-06
-4.46e-08
-2.33385e-09
-8.64485e-09
-1.47113e-06
-7.54526e-09
-7.71251e-09
-1.87572e-06
-1.37368e-08
-7.1812e-09
-2.22114e-06
-2.00578e-08
-6.78048e-09
-2.56849e-06
-2.61522e-08
-6.47229e-09
-2.92926e-06
-3.18234e-08
-6.25788e-09
-3.30544e-06
-3.71395e-08
-6.15817e-09
-3.69635e-06
-6.2105e-09
-4.09855e-06
-4.19791e-08
-1.26045e-09
-1.91573e-08
-1.4687e-06
-5.44463e-09
-1.61096e-08
-1.87526e-06
-1.08385e-08
-1.42237e-08
-2.22194e-06
-1.66904e-08
-1.26492e-08
-2.5703e-06
-2.25396e-08
-1.11354e-08
-2.93204e-06
-2.80841e-08
-9.66516e-09
-3.3095e-06
-3.33054e-08
-8.28039e-09
-3.70185e-06
-7.05127e-09
-4.10557e-06
-3.82211e-08
-1.25127e-09
-2.89667e-08
-1.46226e-06
-4.84857e-09
-2.42932e-08
-1.86891e-06
-9.41246e-09
-2.12978e-08
-2.21566e-06
-1.43328e-08
-1.87487e-08
-2.56408e-06
-1.93202e-08
-1.62464e-08
-2.92607e-06
-2.42793e-08
-1.37294e-08
-3.3041e-06
-2.92333e-08
-1.12365e-08
-3.69725e-06
-8.85165e-09
-4.10194e-06
-3.41809e-08
-1.25998e-09
-3.84908e-08
-1.45475e-06
-4.71927e-09
-3.22959e-08
-1.86062e-06
-8.96954e-09
-2.84329e-08
-2.20676e-06
-1.34741e-08
-2.51829e-08
-2.55456e-06
-1.80368e-08
-2.1985e-08
-2.91597e-06
-2.26488e-08
-1.87117e-08
-3.29348e-06
-2.73757e-08
-1.53828e-08
-3.68619e-06
-1.20754e-08
-4.09055e-06
-3.22481e-08
-2.55845e-09
-1.44848e-06
-4.66603e-08
-6.87234e-09
-1.85321e-06
-3.93944e-08
-1.168e-08
-2.19835e-06
-3.5042e-08
-1.653e-08
-2.54505e-06
-3.14543e-08
-2.12715e-08
-2.90514e-06
-2.79226e-08
-2.59458e-08
-3.28113e-06
-2.42721e-08
-3.06436e-08
-3.67221e-06
-2.04846e-08
-4.0749e-06
-1.66224e-08
-3.53955e-08
-4.95096e-09
7.37972e-09
-1.448e-06
-1.10269e-08
-1.09713e-08
4.25318e-09
-1.8512e-06
-6.91607e-09
-1.6983e-08
2.29581e-09
-2.19478e-06
-4.27774e-09
-2.25357e-08
5.71871e-10
-2.53984e-06
-1.90255e-09
-2.74808e-08
-1.18784e-09
-2.89803e-06
5.47531e-10
-3.18575e-08
-3.06694e-09
-3.27173e-06
3.18069e-09
-3.57917e-08
-5.10175e-09
-3.65994e-06
6.01787e-09
-7.29329e-09
-4.05911e-06
9.04292e-09
-3.9395e-08
-3.42419e-09
1.97464e-09
-1.45459e-06
-8.46255e-09
5.66222e-10
-1.85928e-06
-1.38123e-08
-2.57708e-10
-2.20461e-06
-1.89497e-08
-9.64306e-10
-2.55174e-06
-2.36754e-08
-1.71789e-09
-2.91225e-06
-2.80237e-08
-2.52841e-09
-3.28837e-06
-3.21016e-08
-3.47793e-09
-3.67904e-06
-4.58351e-09
-4.08061e-06
-3.60081e-08
-2.10366e-09
-5.91918e-09
-1.46113e-06
-6.31882e-09
-4.79572e-09
-1.86613e-06
-1.11197e-08
-4.10287e-09
-2.21248e-06
-1.59513e-08
-3.51546e-09
-2.56109e-06
-2.02069e-08
-2.99681e-09
-2.92389e-06
-2.45805e-08
-2.59688e-09
-3.30096e-06
-2.88117e-08
-2.29962e-09
-3.69326e-06
-2.15741e-09
-4.09671e-06
-3.30324e-08
-9.42306e-10
-1.43063e-08
-1.45937e-06
-4.10808e-09
-1.10484e-08
-1.86582e-06
-8.05004e-09
-8.99993e-09
-2.21308e-06
-1.22131e-08
-7.23271e-09
-2.56239e-06
-1.63469e-08
-5.53056e-09
-2.92534e-06
-2.04345e-08
-3.86843e-09
-3.30411e-06
-2.4579e-08
-2.28301e-09
-3.69769e-06
-8.40618e-10
-4.1025e-06
-2.89269e-08
-5.93312e-10
-2.25947e-08
-1.45337e-06
-2.97808e-09
-1.77157e-08
-1.85982e-06
-6.01241e-09
-1.45719e-08
-2.20702e-06
-9.25817e-09
-1.18411e-08
-2.55619e-06
-1.25971e-08
-9.15603e-09
-2.91908e-06
-1.61083e-08
-6.44899e-09
-3.29798e-06
-1.99797e-08
-3.75094e-09
-3.69188e-06
-1.13909e-09
-4.09721e-06
-2.43736e-08
-3.35563e-10
-3.10878e-08
-1.4459e-06
-2.32484e-09
-2.48221e-08
-1.85148e-06
-4.85617e-09
-2.08597e-08
-2.1979e-06
-7.56833e-09
-1.74701e-08
-2.54618e-06
-1.0403e-08
-1.41158e-08
-2.90814e-06
-1.35172e-08
-1.06783e-08
-3.28611e-06
-1.71507e-08
-7.16081e-09
-3.67912e-06
-3.63185e-09
-4.08368e-06
-2.15026e-08
-1.17624e-09
-1.43944e-06
-3.8924e-08
-3.66622e-09
-1.84374e-06
-3.17535e-08
-6.44979e-09
-2.18901e-06
-2.73763e-08
-9.29553e-09
-2.53595e-06
-2.36871e-08
-1.21526e-08
-2.89629e-06
-2.00831e-08
-1.52255e-08
-3.27239e-06
-1.63175e-08
-1.87829e-08
-3.6634e-06
-1.23886e-08
-4.06592e-06
-8.34357e-09
-2.30344e-08
-4.38694e-09
5.6013e-09
-1.44182e-06
-7.3905e-09
-9.25022e-09
2.96499e-09
-1.84551e-06
-3.77061e-09
-1.38239e-08
1.31333e-09
-2.19008e-06
-1.42426e-09
-1.78167e-08
-1.58647e-10
-2.53639e-06
7.19756e-10
-2.12268e-08
-1.68256e-09
-2.89588e-06
2.9642e-09
-2.42291e-08
-3.35087e-09
-3.27075e-06
5.4001e-09
-2.71101e-08
-5.1923e-09
-3.65989e-06
8.05942e-09
-7.21801e-09
-4.05974e-06
1.09352e-08
-3.01428e-08
-3.08384e-09
2.50914e-09
-1.44841e-06
-7.0829e-09
1.53385e-09
-1.85384e-06
-1.10209e-08
9.86338e-10
-2.20034e-06
-1.4569e-08
5.3014e-10
-2.54887e-06
-1.76977e-08
2.71713e-11
-2.91081e-06
-2.05937e-08
-5.78155e-10
-3.28822e-06
-2.35504e-08
-1.32259e-09
-3.67992e-06
-2.24223e-09
-4.08225e-06
-2.68449e-08
-1.81683e-09
-2.77816e-09
-1.45403e-06
-4.9263e-09
-1.43258e-09
-1.86005e-06
-8.19245e-09
-5.65857e-10
-2.20765e-06
-1.12673e-08
2.11495e-10
-2.55768e-06
-1.3989e-08
9.19514e-10
-2.92204e-06
-1.6783e-08
1.53859e-09
-3.30026e-06
-1.98254e-08
2.04188e-09
-3.69356e-06
2.38353e-09
-4.09772e-06
-2.3416e-08
-5.40778e-10
-9.04663e-09
-1.45256e-06
-2.52665e-09
-5.67954e-09
-1.85957e-06
-4.84915e-09
-3.52639e-09
-2.20778e-06
-7.17802e-09
-1.60808e-09
-2.55822e-06
-9.48852e-09
2.54456e-10
-2.92234e-06
-1.19731e-08
2.07826e-09
-3.30214e-06
-1.49508e-08
3.83917e-09
-3.69648e-06
5.47456e-09
-4.10177e-06
-1.87397e-08
1.7824e-10
-1.59012e-08
-1.44668e-06
-7.50354e-10
-1.1046e-08
-1.85349e-06
-2.07811e-09
-7.86464e-09
-2.20132e-06
-3.45445e-09
-5.03766e-09
-2.55135e-06
-4.96234e-09
-2.24823e-09
-2.91504e-06
-6.89737e-09
5.82806e-10
-3.29452e-06
-9.63884e-09
3.43145e-09
-3.6887e-06
6.22781e-09
-4.09404e-06
-1.35319e-08
8.43677e-10
-2.36092e-08
-1.43901e-06
5.61105e-10
-1.7533e-08
-1.84466e-06
-1.04288e-10
-1.36658e-08
-2.19139e-06
-7.75827e-10
-1.02726e-08
-2.54024e-06
-1.70388e-09
-6.87333e-09
-2.90255e-06
-3.21522e-09
-3.36589e-09
-3.28061e-06
-5.749e-09
2.7055e-10
-3.67338e-06
3.9481e-09
-4.07744e-06
-9.67241e-09
4.54858e-10
-1.43208e-06
-3.13955e-08
1.47114e-10
-1.83623e-06
-2.46875e-08
-4.84306e-10
-2.18149e-06
-2.05036e-08
-1.09003e-09
-2.52865e-06
-1.69262e-08
-1.90884e-09
-2.88895e-06
-1.33432e-08
-3.31036e-09
-3.26472e-06
-9.59295e-09
-5.74773e-09
-3.65502e-06
-5.61986e-09
-4.05657e-06
-1.46845e-09
-9.63048e-09
-3.74072e-09
4.35244e-09
-1.43817e-06
-4.25129e-09
-7.32894e-09
2.36405e-09
-1.84292e-06
-1.35225e-09
-1.03094e-08
1.1055e-09
-2.18876e-06
5.67838e-10
-1.25789e-08
-4.50494e-11
-2.53644e-06
2.38789e-09
-1.42921e-08
-1.29372e-09
-2.8972e-06
4.35173e-09
-1.58033e-08
-2.71293e-09
-3.27303e-06
6.54129e-09
-1.75825e-08
-4.3383e-09
-3.66271e-06
8.98887e-09
-6.18558e-09
-4.06269e-06
1.16964e-08
-2.00845e-08
-2.6683e-09
3.60913e-09
-1.44499e-06
-5.46692e-09
3.12642e-09
-1.85179e-06
-7.79876e-09
2.8924e-09
-2.19978e-06
-9.54807e-09
2.71952e-09
-2.54986e-06
-1.08865e-08
2.48545e-09
-2.91323e-06
-1.21793e-08
2.08948e-09
-3.29169e-06
-1.3939e-08
1.54889e-09
-3.684e-06
8.1625e-10
-4.0865e-06
-1.66473e-08
-1.39369e-09
8.49844e-10
-1.44987e-06
-3.19347e-09
2.40102e-09
-1.8575e-06
-4.6846e-09
3.42353e-09
-2.20667e-06
-5.70543e-09
4.38235e-09
-2.5583e-06
-6.89609e-09
5.24515e-09
-2.92338e-06
-7.85815e-09
6.07686e-09
-3.30325e-06
-9.62131e-09
6.77429e-09
-3.69698e-06
7.30302e-09
-4.10117e-06
-1.26101e-08
8.40642e-12
-3.36908e-09
-1.44833e-06
-4.41124e-10
-1.01826e-10
-1.85657e-06
-9.45219e-10
2.14041e-09
-2.20595e-06
-1.18361e-09
4.1238e-09
-2.55768e-06
-1.45782e-09
6.08302e-09
-2.92286e-06
-2.17508e-09
8.03153e-09
-3.30332e-06
-3.90188e-09
9.93828e-09
-3.69786e-06
1.1744e-08
-4.10289e-06
-7.16483e-09
1.2768e-09
-9.01548e-09
-1.44228e-06
1.99593e-09
-4.42394e-09
-1.84983e-06
2.70007e-09
-1.31395e-09
-2.19852e-06
3.50205e-09
1.47097e-09
-2.54945e-06
4.04815e-09
4.28428e-09
-2.91372e-06
3.85017e-09
7.16992e-09
-3.2934e-06
2.30077e-09
1.01141e-08
-3.68726e-06
1.30574e-08
-4.09182e-06
-1.15632e-09
2.33998e-09
-1.62449e-08
-1.43408e-06
4.02648e-09
-1.07049e-08
-1.83999e-06
5.70034e-09
-7.08961e-09
-2.18722e-06
7.30438e-09
-3.83162e-09
-2.53647e-06
8.49693e-09
-5.05693e-10
-2.89888e-06
8.72207e-09
2.9793e-09
-3.27657e-06
7.3301e-09
6.64346e-09
-3.66844e-06
1.0441e-08
-4.07115e-06
3.73942e-09
2.51892e-09
-1.4264e-06
-2.44014e-08
4.51458e-09
-1.83038e-06
-1.84708e-08
6.52694e-09
-2.17576e-06
-1.47671e-08
8.42887e-09
-2.52286e-06
-1.14441e-08
9.85266e-09
-2.88278e-06
-8.02319e-09
1.02284e-08
-3.25765e-06
-4.38208e-09
8.88538e-09
-3.64651e-06
-4.42981e-10
-4.04615e-06
3.76417e-09
5.23323e-09
-2.96249e-09
3.78801e-09
-1.43721e-06
-1.78793e-09
-5.05612e-09
2.54831e-09
-1.84355e-06
2.0715e-10
-6.19765e-09
1.73409e-09
-2.19093e-06
1.61528e-09
-6.49925e-09
9.37925e-10
-2.54008e-06
3.04082e-09
-6.29182e-09
-1.00356e-11
-2.90202e-06
4.68081e-09
-6.14694e-09
-1.16947e-09
-3.27854e-06
6.59731e-09
-6.74958e-09
-2.57768e-09
-3.66829e-06
8.82447e-09
-4.25586e-09
-4.06771e-06
1.13716e-08
-8.76201e-09
-2.08794e-09
5.38472e-09
-1.44449e-06
-3.42201e-09
5.39117e-09
-1.85325e-06
-3.84589e-09
5.46993e-09
-2.20304e-06
-3.51197e-09
5.5762e-09
-2.55477e-06
-2.77887e-09
5.55095e-09
-2.91946e-06
-2.27222e-09
5.40246e-09
-3.29871e-06
-2.7405e-09
5.06264e-09
-3.69111e-06
4.50337e-09
-4.09302e-06
-4.89723e-09
-7.53196e-10
5.05548e-09
-1.44876e-06
-8.98295e-10
6.66208e-09
-1.85855e-06
-4.11857e-10
7.86305e-09
-2.20948e-06
7.10178e-10
8.93024e-09
-2.5627e-06
2.04821e-09
9.97712e-09
-2.92919e-06
2.80347e-09
1.09308e-08
-3.30946e-06
2.37501e-09
1.17824e-08
-3.70319e-06
1.24751e-08
-4.10663e-06
-5.57941e-11
9.96678e-10
2.6364e-09
-1.44687e-06
2.27259e-09
5.68082e-09
-1.85677e-06
4.036e-09
7.85967e-09
-2.20763e-06
6.19621e-09
9.83493e-09
-2.56066e-06
8.25058e-09
1.18337e-08
-2.92669e-06
9.49615e-09
1.38528e-08
-3.30741e-06
9.11502e-09
1.58632e-08
-3.70147e-06
1.7812e-08
-4.10535e-06
6.33831e-09
2.71286e-09
-2.07572e-09
-1.44023e-06
5.52014e-09
1.99656e-09
-1.84884e-06
8.693e-09
4.84329e-09
-2.19858e-06
1.19925e-08
7.49385e-09
-2.55031e-06
1.49014e-08
1.02345e-08
-2.91494e-06
1.6646e-08
1.31084e-08
-3.2943e-06
1.63701e-08
1.6103e-08
-3.68712e-06
1.91669e-08
-4.08998e-06
1.32842e-08
4.26124e-09
-9.25822e-09
-1.4311e-06
8.41375e-09
-4.5779e-09
-1.83746e-06
1.27599e-08
-1.40683e-09
-2.18522e-06
1.70209e-08
1.57381e-09
-2.53471e-06
2.0621e-08
4.71422e-09
-2.89686e-06
2.27579e-08
8.10565e-09
-3.2736e-06
2.25531e-08
1.17619e-08
-3.66379e-06
1.56471e-08
-4.06417e-06
1.92077e-08
5.00246e-09
-1.42232e-06
-1.8277e-08
9.86258e-09
-1.82617e-06
-1.35333e-08
1.48295e-08
-2.17158e-06
-1.04483e-08
1.95724e-08
-2.51838e-06
-7.54821e-09
2.34837e-08
-2.87745e-06
-4.42785e-09
2.57606e-08
-3.25077e-06
-9.59765e-10
2.55184e-08
-3.63731e-06
2.89945e-09
-4.03399e-06
7.13573e-09
2.19728e-08
-1.94639e-09
4.04665e-09
-1.43912e-06
-1.8293e-10
-2.21825e-09
3.59368e-09
-1.84759e-06
8.15792e-10
-1.20096e-09
3.24224e-09
-2.19675e-06
1.64047e-09
8.158e-10
2.80853e-09
-2.54745e-06
2.63557e-09
3.20962e-09
2.16314e-09
-2.91043e-06
3.93413e-09
5.21819e-09
1.25108e-09
-3.28728e-06
5.57338e-09
5.90417e-09
4.23455e-11
-3.67651e-06
7.59235e-09
-1.49293e-09
-4.07457e-06
1.00072e-08
4.3577e-09
-1.21399e-09
7.91688e-09
-1.44709e-06
-6.56338e-10
8.34202e-09
-1.85844e-06
1.12871e-09
8.75003e-09
-2.21023e-06
3.97052e-09
9.06092e-09
-2.56377e-06
7.11078e-09
9.2645e-09
-2.9296e-06
9.67225e-09
9.30271e-09
-3.30922e-06
1.06315e-08
9.13393e-09
-3.70106e-06
8.72308e-09
-4.1015e-06
9.00754e-09
2.50699e-10
9.81954e-09
-1.45086e-06
2.14945e-09
1.13616e-08
-1.86335e-06
5.14402e-09
1.26349e-08
-2.21625e-06
8.8999e-09
1.37743e-08
-2.57107e-06
1.27678e-08
1.4904e-08
-2.9386e-06
1.5719e-08
1.59715e-08
-3.31898e-06
1.67754e-08
1.69468e-08
-3.71196e-06
1.77804e-08
-4.11366e-06
1.48738e-08
2.40358e-09
8.92389e-09
-1.44831e-06
5.92178e-09
1.15131e-08
-1.86032e-06
1.04154e-08
1.34845e-08
-2.21286e-06
1.54046e-08
1.5373e-08
-2.56715e-06
2.01393e-08
1.7335e-08
-2.93375e-06
2.36084e-08
1.93733e-08
-3.31418e-06
2.46961e-08
2.14554e-08
-3.70696e-06
2.35307e-08
-4.10865e-06
2.23664e-08
4.65818e-09
4.72426e-09
-1.44061e-06
1.00838e-08
7.97687e-09
-1.8506e-06
1.61843e-08
1.03996e-08
-2.20148e-06
2.24581e-08
1.27993e-08
-2.5539e-06
2.80868e-08
1.53845e-08
-2.91851e-06
3.20202e-08
1.81913e-08
-3.29695e-06
3.31176e-08
2.12077e-08
-3.68786e-06
2.43858e-08
-4.08793e-06
3.03393e-08
6.75135e-09
-2.9498e-09
-1.43009e-06
1.38946e-08
5.4753e-10
-1.83704e-06
2.14042e-08
3.08964e-09
-2.1853e-06
2.87607e-08
5.66311e-09
-2.53482e-06
3.51074e-08
8.53469e-09
-2.89626e-06
3.9375e-08
1.17777e-08
-3.27136e-06
4.04243e-08
1.54043e-08
-3.65894e-06
1.9383e-08
-4.05585e-06
3.72281e-08
8.05514e-09
-1.41981e-06
-1.34276e-08
1.62918e-08
-1.82355e-06
-1.01777e-08
2.46763e-08
-2.16885e-06
-7.90982e-09
3.26555e-08
-2.51503e-06
-5.56093e-09
3.935e-08
-2.87269e-06
-2.81964e-09
4.36965e-08
-3.24366e-06
4.19742e-10
4.45821e-08
-3.62688e-06
4.18617e-09
-4.0194e-06
8.4673e-09
4.10194e-08
-5.8109e-10
5.2329e-09
-1.4442e-06
4.66026e-10
1.45388e-09
5.53971e-09
-1.8554e-06
3.71367e-10
5.02345e-09
5.66303e-09
-2.20645e-06
5.86345e-10
9.71464e-09
5.54867e-09
-2.55873e-06
1.15722e-09
1.46757e-08
5.17842e-09
-2.92256e-06
2.11171e-09
1.88415e-08
4.49552e-09
-3.29932e-06
3.48809e-09
2.09905e-08
3.45788e-09
-3.68733e-06
5.32585e-09
2.03617e-09
-4.08307e-06
7.6503e-09
1.99157e-08
1.61313e-11
1.12822e-08
-1.45306e-06
2.92698e-09
1.19772e-08
-1.86765e-06
7.56759e-09
1.26295e-08
-2.22172e-06
1.33561e-08
1.31324e-08
-2.57703e-06
1.93388e-08
1.35168e-08
-2.94382e-06
2.43019e-08
1.36967e-08
-3.32328e-06
2.68794e-08
1.36656e-08
-3.71373e-06
1.33793e-08
-4.11163e-06
2.57852e-08
1.86076e-09
1.50889e-08
-1.45644e-06
6.2079e-09
1.64358e-08
-1.87203e-06
1.22706e-08
1.76286e-08
-2.22721e-06
1.93033e-08
1.8774e-08
-2.58365e-06
2.60106e-08
1.99215e-08
-2.9515e-06
3.15673e-08
2.10698e-08
-3.33181e-06
3.42935e-08
2.21445e-08
-3.72305e-06
2.31036e-08
-4.12185e-06
3.28885e-08
4.38338e-09
1.53296e-08
-1.45285e-06
1.07626e-08
1.7216e-08
-1.86736e-06
1.85457e-08
1.88403e-08
-2.22176e-06
2.69326e-08
2.05435e-08
-2.57721e-06
3.48074e-08
2.24071e-08
-2.94402e-06
4.08293e-08
2.44228e-08
-3.32346e-06
4.35357e-08
2.65594e-08
-3.71398e-06
2.87638e-08
-4.11224e-06
4.15906e-08
7.243e-09
1.11317e-08
-1.44357e-06
1.5915e-08
1.32673e-08
-1.85522e-06
2.55575e-08
1.51045e-08
-2.2073e-06
3.53603e-08
1.71454e-08
-2.56023e-06
4.41698e-08
1.95091e-08
-2.92435e-06
5.06016e-08
2.22156e-08
-3.30109e-06
5.31968e-08
2.525e-08
-3.68905e-06
2.85632e-08
-4.08505e-06
5.06349e-08
9.92614e-09
2.32847e-09
-1.43114e-06
2.06864e-08
4.354e-09
-1.83879e-06
3.1965e-08
6.10393e-09
-2.1875e-06
4.29497e-08
8.16753e-09
-2.53676e-06
5.24688e-08
1.07096e-08
-2.8969e-06
5.9141e-08
1.37826e-08
-3.26952e-06
6.15353e-08
1.73911e-08
-3.65338e-06
2.15016e-08
-4.04551e-06
5.8371e-08
1.17812e-08
-1.4189e-06
-1.02973e-08
2.39993e-08
-1.82249e-06
-8.82604e-09
3.63552e-08
-2.16754e-06
-7.48029e-09
4.8043e-08
-2.51272e-06
-5.76109e-09
5.78866e-08
-2.86831e-06
-3.44146e-09
6.45225e-08
-3.236e-06
-4.32432e-10
6.65883e-08
-3.61473e-06
3.25956e-09
-4.00171e-06
7.63442e-09
6.28724e-08
1.36729e-09
7.46312e-09
-2.92863e-11
-1.45295e-06
6.11169e-09
8.43287e-09
-1.22095e-09
-1.8672e-06
1.28609e-08
8.9378e-09
-1.57382e-09