/*--------------------------------*- C++ -*----------------------------------*\
| =========                 |                                                 |
| \\      /  F ield         | OpenFOAM: The Open Source CFD Toolbox           |
|  \\    /   O peration     | Version:  plus.master.MPPICInterFoam            |
|   \\  /    A nd           | Web:      www.OpenFOAM.com                      |
|    \\/     M anipulation  |                                                 |
\*---------------------------------------------------------------------------*/
FoamFile
{
    version     2.0;
    format      ascii;
    class       volVectorField;
    location    "13.8";
    object      U;
}
// * * * * * * * * * * * * * * * * * * * * * * * * * * * * * * * * * * * * * //

dimensions      [0 1 -1 0 0 0 0];

internalField   nonuniform List<vector> 
11821
(
(0.000295085 0.000411217 -0.0325873)
(0.000200372 0.000497645 -0.0362676)
(8.67903e-05 0.000591218 -0.0376921)
(-5.45687e-06 0.000661216 -0.0385535)
(-7.96973e-05 0.000708655 -0.0392176)
(-0.000137348 0.000734865 -0.0397743)
(-0.000179679 0.000742632 -0.0402366)
(-0.000206412 0.000734437 -0.0405809)
(8.00797e-05 0.000220141 -0.0329222)
(-2.54107e-05 0.000273589 -0.0365572)
(-0.00015559 0.000329392 -0.0379601)
(-0.00025906 0.000372236 -0.0388198)
(-0.000340108 0.000403368 -0.0394799)
(-0.000399487 0.000420968 -0.0400322)
(-0.000438928 0.000426234 -0.0404906)
(-0.000459057 0.000420737 -0.0408325)
(-4.94932e-05 -0.000204581 -0.0334616)
(-0.000173284 -0.000141785 -0.0370059)
(-0.000315819 -8.93241e-05 -0.038331)
(-0.000422664 -5.27724e-05 -0.0391481)
(-0.000504294 -2.75924e-05 -0.0397554)
(-0.000562059 -1.13955e-05 -0.0402777)
(-0.000597665 -3.06488e-06 -0.0407212)
(-0.000612173 -1.81841e-06 -0.0410562)
(-2.74129e-05 -0.000659678 -0.0330793)
(-0.000129561 -0.000600926 -0.036721)
(-0.0002549 -0.000559134 -0.0382057)
(-0.000363424 -0.000529383 -0.0392087)
(-0.000452302 -0.000508626 -0.0398122)
(-0.000512693 -0.000492171 -0.0403322)
(-0.000550193 -0.000479322 -0.0407903)
(-0.000567108 -0.000470051 -0.0411434)
(0.000184777 -0.000950747 -0.0327993)
(7.38144e-05 -0.000934096 -0.0364127)
(-4.72787e-05 -0.000928648 -0.0378939)
(-0.000150348 -0.000926158 -0.0388449)
(-0.000235435 -0.000919135 -0.0395837)
(-0.000299877 -0.000909242 -0.0402015)
(-0.000343799 -0.000897411 -0.0407163)
(-0.000367208 -0.000884181 -0.0411075)
(0.000546225 -0.00120522 -0.03256)
(0.000420971 -0.00120015 -0.0361521)
(0.00029861 -0.00121388 -0.0376373)
(0.000195106 -0.00122983 -0.038611)
(0.000108389 -0.00123978 -0.0393826)
(4.03373e-05 -0.00124107 -0.0400324)
(-8.78299e-06 -0.00123403 -0.0405739)
(-3.84539e-05 -0.00121968 -0.0409866)
(0.000963279 -0.00128505 -0.0323386)
(0.000814224 -0.00131328 -0.0359179)
(0.000685896 -0.0013589 -0.0374029)
(0.000580829 -0.00140154 -0.0383827)
(0.000492569 -0.00143211 -0.0391621)
(0.000421393 -0.00144716 -0.0398187)
(0.000367384 -0.0014468 -0.0403647)
(0.000331418 -0.00143204 -0.0407785)
(0.000282764 0.000395637 -0.0321353)
(0.000186395 0.000450333 -0.0357416)
(7.91116e-05 0.000517609 -0.0371888)
(-8.02548e-06 0.000566328 -0.0381113)
(-8.08388e-05 0.000597321 -0.0388374)
(-0.00013954 0.000610312 -0.0394528)
(-0.000185324 0.000607626 -0.039971)
(-0.00021803 0.000591647 -0.0403705)
(8.51419e-05 0.000222304 -0.0324184)
(-1.15956e-05 0.000244479 -0.03599)
(-0.000126729 0.000281003 -0.0374273)
(-0.000219239 0.00030876 -0.0383492)
(-0.000294674 0.00032614 -0.0390743)
(-0.000351702 0.000332666 -0.0396883)
(-0.000392012 0.000329036 -0.0402054)
(-0.000416241 0.000316596 -0.0406041)
(-4.15728e-05 -0.000169073 -0.0328689)
(-0.000137922 -0.000128251 -0.0363472)
(-0.000254819 -9.16874e-05 -0.0377397)
(-0.000350722 -6.56039e-05 -0.0386365)
(-0.000426744 -4.89999e-05 -0.0393214)
(-0.000479215 -4.07241e-05 -0.0399142)
(-0.000513678 -3.90132e-05 -0.0404202)
(-0.000530918 -4.31188e-05 -0.0408144)
(-1.63236e-05 -0.000599994 -0.032565)
(-9.48687e-05 -0.000545614 -0.0361583)
(-0.000200051 -0.000511364 -0.0376656)
(-0.000294191 -0.000487623 -0.0386794)
(-0.000373172 -0.00046947 -0.0393734)
(-0.000427964 -0.000455437 -0.039974)
(-0.000463136 -0.000444741 -0.0404918)
(-0.000480906 -0.000437506 -0.040901)
(0.000178374 -0.000880327 -0.032309)
(8.92998e-05 -0.000854432 -0.0358896)
(-1.31391e-05 -0.000843548 -0.0373965)
(-0.000101283 -0.00083623 -0.0383959)
(-0.000176099 -0.000825103 -0.039187)
(-0.000234109 -0.000811593 -0.0398583)
(-0.00027547 -0.00079682 -0.0404262)
(-0.000300161 -0.000781715 -0.0408708)
(0.000513044 -0.00111607 -0.0320853)
(0.000404172 -0.00109154 -0.0356526)
(0.000296065 -0.00109193 -0.0371666)
(0.000204593 -0.00109591 -0.0381843)
(0.000126101 -0.00109544 -0.0390045)
(6.24917e-05 -0.0010881 -0.0397046)
(1.41036e-05 -0.00107433 -0.0402971)
(-1.84505e-05 -0.00105536 -0.0407618)
(0.000900246 -0.00119112 -0.0318898)
(0.000760615 -0.0011915 -0.0354469)
(0.000641446 -0.00121735 -0.0369616)
(0.000544014 -0.00124228 -0.0379844)
(0.000460385 -0.0012577 -0.038811)
(0.000390528 -0.00126045 -0.0395169)
(0.000334533 -0.00125085 -0.0401135)
(0.000293395 -0.0012301 -0.0405798)
(0.000260945 0.000373193 -0.0317265)
(0.000162335 0.000399568 -0.0352796)
(6.00616e-05 0.000445675 -0.0367543)
(-2.28428e-05 0.00047664 -0.0377279)
(-9.38392e-05 0.000493449 -0.0385079)
(-0.000152689 0.000495125 -0.0391749)
(-0.000200406 0.00048348 -0.0397422)
(-0.000236955 0.000460673 -0.0401894)
(8.18406e-05 0.000215281 -0.0319661)
(-7.56468e-06 0.000213104 -0.0354952)
(-0.000110992 0.000233964 -0.0369666)
(-0.000194263 0.000249318 -0.037943)
(-0.000264122 0.000255914 -0.0387244)
(-0.000318464 0.000253597 -0.0393927)
(-0.000358628 0.000242874 -0.0399613)
(-0.000385233 0.000224816 -0.0404096)
(-3.65688e-05 -0.000139209 -0.032338)
(-0.00011232 -0.000116124 -0.0357857)
(-0.000210052 -9.1748e-05 -0.0372291)
(-0.000295109 -7.37671e-05 -0.0382054)
(-0.000364541 -6.40576e-05 -0.0389504)
(-0.000412861 -6.15626e-05 -0.0396015)
(-0.000445752 -6.44847e-05 -0.0401623)
(-0.000464382 -7.23312e-05 -0.0406081)
(-9.77671e-06 -0.000539501 -0.0321046)
(-7.00988e-05 -0.000489267 -0.035663)
(-0.000158694 -0.000460057 -0.0371882)
(-0.000241512 -0.000440046 -0.038223)
(-0.000313123 -0.000423863 -0.0390059)
(-0.000362042 -0.000410976 -0.0396633)
(-0.000394273 -0.000401204 -0.0402356)
(-0.000412106 -0.000394786 -0.0406947)
(0.000167614 -0.000807722 -0.0318747)
(9.49326e-05 -0.000771775 -0.0354329)
(6.56294e-06 -0.000755075 -0.0369662)
(-6.97595e-05 -0.000742762 -0.0380067)
(-0.000136125 -0.000726821 -0.0388454)
(-0.000188588 -0.000709047 -0.0395643)
(-0.000227355 -0.000690693 -0.0401788)
(-0.000252462 -0.000672862 -0.0406694)
(0.00047463 -0.00102459 -0.0316674)
(0.000377294 -0.000981769 -0.0352189)
(0.000279653 -0.00096983 -0.0367612)
(0.000197375 -0.000962563 -0.0378183)
(0.000125438 -0.000952085 -0.0386812)
(6.55522e-05 -0.000936162 -0.0394249)
(1.80211e-05 -0.000915371 -0.0400611)
(-1.6551e-05 -0.000891104 -0.0405702)
(0.000831902 -0.00109631 -0.0314941)
(0.000697835 -0.00107113 -0.0350374)
(0.000584863 -0.00107914 -0.0365808)
(0.000492881 -0.00108795 -0.0376422)
(0.000412675 -0.00108936 -0.0385103)
(0.000343798 -0.00108042 -0.0392586)
(0.000286234 -0.00106163 -0.0398982)
(0.000240938 -0.00103439 -0.0404088)
(0.000231008 0.000342614 -0.0313557)
(0.000132294 0.000346225 -0.0348768)
(3.43447e-05 0.000374442 -0.036381)
(-4.435e-05 0.000390985 -0.0373999)
(-0.000112648 0.000396245 -0.0382274)
(-0.000170365 0.000388832 -0.03894)
(-0.000218464 0.000370165 -0.0395506)
(-0.000257085 0.000342148 -0.0400396)
(7.24953e-05 0.000199669 -0.0315604)
(-9.82181e-06 0.00017993 -0.0350669)
(-0.000103174 0.000188623 -0.036572)
(-0.000178124 0.000193897 -0.0375959)
(-0.000241923 0.000192925 -0.0384279)
(-0.000292641 0.000184324 -0.0391444)
(-0.000331363 0.000168603 -0.0397583)
(-0.000358766 0.000146711 -0.0402496)
(-3.34442e-05 -0.000114995 -0.0318654)
(-9.40525e-05 -0.000104835 -0.0353072)
(-0.000178375 -8.89329e-05 -0.0367933)
(-0.00025089 -7.7435e-05 -0.0378127)
(-0.000311916 -7.2645e-05 -0.0386307)
(-0.000356394 -7.32695e-05 -0.0393376)
(-0.00038739 -7.87063e-05 -0.0399473)
(-0.000406393 -8.85574e-05 -0.0404383)
(-6.57104e-06 -0.000478179 -0.0316921)
(-5.34482e-05 -0.000430987 -0.035231)
(-0.000129 -0.000404509 -0.0367805)
(-0.000200889 -0.000386091 -0.0378597)
(-0.000263238 -0.000370615 -0.0386942)
(-0.000306589 -0.000357782 -0.0394022)
(-0.000336336 -0.000347744 -0.0400214)
(-0.000353973 -0.000340985 -0.0405242)
(0.000153259 -0.000730387 -0.0314886)
(9.291e-05 -0.00068408 -0.0350359)
(1.57947e-05 -0.000660968 -0.0365962)
(-5.05066e-05 -0.000642838 -0.0376748)
(-0.000109216 -0.000622064 -0.0385558)
(-0.000156517 -0.000600058 -0.0393168)
(-0.00019265 -0.000577888 -0.0399721)
(-0.000217688 -0.000556875 -0.0405025)
(0.000431197 -0.000928085 -0.0312972)
(0.000342463 -0.000868575 -0.0348429)
(0.000253346 -0.000845153 -0.0364131)
(0.000178828 -0.00082729 -0.0375061)
(0.000112646 -0.000807384 -0.0384072)
(5.6233e-05 -0.000783289 -0.0391889)
(9.78593e-06 -0.000755661 -0.0398629)
(-2.61913e-05 -0.000726028 -0.0404095)
(0.000757619 -0.000997405 -0.031142)
(0.000627604 -0.000949399 -0.0346809)
(0.000519865 -0.000941269 -0.0362526)
(0.000432594 -0.00093545 -0.0373492)
(0.000355492 -0.000924097 -0.0382539)
(0.000287737 -0.00090443 -0.0390389)
(0.000229154 -0.00087712 -0.0397151)
(0.000180554 -0.000843674 -0.0402628)
(0.000195675 0.000303483 -0.0310199)
(9.89256e-05 0.000289874 -0.0345293)
(5.90204e-06 0.000304547 -0.0360647)
(-6.7785e-05 0.000310028 -0.0371246)
(-0.000132064 0.000306496 -0.0379944)
(-0.00018706 0.000292347 -0.0387475)
(-0.00023386 0.000268731 -0.0393958)
(-0.000272853 0.000237341 -0.0399206)
(6.01359e-05 0.000177126 -0.0311973)
(-1.49661e-05 0.000146316 -0.0347006)
(-9.92192e-05 0.000146637 -0.0362396)
(-0.000165873 0.000144891 -0.0373066)
(-0.000222982 0.000138664 -0.0381833)
(-0.000269069 0.0001261 -0.0389425)
(-0.000305181 0.000107477 -0.0395959)
(-0.000332108 8.3611e-05 -0.0401243)
(-3.0622e-05 -9.49062e-05 -0.0314482)
(-7.99495e-05 -9.27167e-05 -0.0349025)
(-0.000152891 -8.22371e-05 -0.0364285)
(-0.000214028 -7.51865e-05 -0.0374929)
(-0.000266097 -7.25556e-05 -0.0383656)
(-0.000305426 -7.45254e-05 -0.0391217)
(-0.000333755 -8.07297e-05 -0.0397744)
(-0.000352314 -9.09768e-05 -0.0403044)
(-4.80751e-06 -0.000415148 -0.0313237)
(-4.19351e-05 -0.000369407 -0.0348582)
(-0.000107784 -0.000343671 -0.0364308)
(-0.000166919 -0.000325042 -0.037529)
(-0.000219204 -0.000308901 -0.0384123)
(-0.000257992 -0.000295198 -0.0391838)
(-0.000284928 -0.000283947 -0.0398472)
(-0.000302004 -0.000275903 -0.0403884)
(0.000136785 -0.000646319 -0.0311445)
(8.58911e-05 -0.000590015 -0.0346938)
(1.80941e-05 -0.000560371 -0.0362814)
(-3.91584e-05 -0.000535941 -0.0373947)
(-9.04888e-05 -0.000510753 -0.0383139)
(-0.000132791 -0.000484431 -0.0391127)
(-0.000166174 -0.000458351 -0.0398035)
(-0.000190853 -0.000433986 -0.0403679)
(0.000383974 -0.00082436 -0.0309671)
(0.000302347 -0.00075035 -0.0345188)
(0.000220765 -0.000716614 -0.0361166)
(0.000153394 -0.000689048 -0.0372427)
(9.27369e-05 -0.000660563 -0.0381778)
(3.98866e-05 -0.000628993 -0.0389929)
(-5.17525e-06 -0.000595101 -0.0396989)
(-4.21301e-05 -0.000560514 -0.0402771)
(0.00067819 -0.000891847 -0.0308254)
(0.000552495 -0.000824407 -0.0343715)
(0.000450115 -0.000802133 -0.0359708)
(0.000367728 -0.000783368 -0.0370996)
(0.000294081 -0.000760782 -0.0380366)
(0.000228 -0.000731704 -0.0388531)
(0.000169083 -0.000696979 -0.0395601)
(0.000117913 -0.000658221 -0.0401384)
(0.000158028 0.000257831 -0.0307239)
(6.54885e-05 0.000232553 -0.0342362)
(-2.14491e-05 0.000237977 -0.0358029)
(-8.89487e-05 0.000235508 -0.0369005)
(-0.000147837 0.000225707 -0.037808)
(-0.000198614 0.000206985 -0.0385965)
(-0.000242649 0.000180367 -0.0392772)
(-0.00028063 0.00014744 -0.0398319)
(4.71827e-05 0.000151158 -0.0308827)
(-2.02842e-05 0.000114978 -0.0343942)
(-9.57103e-05 0.000110444 -0.0359666)
(-0.000153736 0.000104343 -0.0370731)
(-0.000203429 9.4909e-05 -0.0379897)
(-0.000243862 8.02719e-05 -0.0387861)
(-0.000276318 6.05253e-05 -0.0394734)
(-0.00030178 3.63075e-05 -0.0400328)
(-2.74169e-05 -7.58278e-05 -0.0310911)
(-6.76146e-05 -7.71505e-05 -0.0345663)
(-0.000130459 -6.92946e-05 -0.0361308)
(-0.000180806 -6.4252e-05 -0.0372379)
(-0.000223623 -6.22475e-05 -0.0381565)
(-0.000256651 -6.43199e-05 -0.0389535)
(-0.0002814 -6.99879e-05 -0.0396427)
(-0.000298803 -7.9348e-05 -0.0402056)
(-3.77344e-06 -0.000348976 -0.0310041)
(-3.31125e-05 -0.00030304 -0.0345428)
(-8.9526e-05 -0.000276592 -0.0361411)
(-0.000136942 -0.00025653 -0.0372721)
(-0.000179956 -0.000238836 -0.0382106)
(-0.000213062 -0.000223269 -0.0390133)
(-0.000236573 -0.000210088 -0.0397123)
(-0.000252746 -0.000200091 -0.0402857)
(0.000118635 -0.000554639 -0.0308463)
(7.55952e-05 -0.000489173 -0.0344035)
(1.62238e-05 -0.000453388 -0.0360184)
(-3.22388e-05 -0.000423118 -0.0371644)
(-7.62538e-05 -0.000393307 -0.038118)
(-0.000113343 -0.000362754 -0.0389495)
(-0.000143756 -0.0003329 -0.0396706)
(-0.000167928 -0.000305295 -0.0402631)
(0.000333739 -0.000712906 -0.0306801)
(0.00025899 -0.000626829 -0.0342424)
(0.000184839 -0.000584222 -0.0358672)
(0.000124794 -0.000548065 -0.0370238)
(6.99567e-05 -0.000512 -0.0379891)
(2.10805e-05 -0.000473883 -0.0388329)
(-2.22078e-05 -0.000434585 -0.0395657)
(-5.98525e-05 -0.000395806 -0.0401692)
(0.000594712 -0.000779284 -0.0305466)
(0.000475019 -0.000696036 -0.0341046)
(0.000379035 -0.000661823 -0.0357307)
(0.000302574 -0.000631959 -0.0368889)
(0.000233208 -0.000599702 -0.0378541)
(0.000169694 -0.000562753 -0.0386971)
(0.00011125 -0.00052203 -0.0394288)
(5.81489e-05 -0.000479224 -0.0400313)
(0.000120041 0.00020956 -0.0304728)
(3.46343e-05 0.000177823 -0.0339968)
(-4.45531e-05 0.00017733 -0.0355944)
(-0.000104399 0.000169423 -0.0367266)
(-0.00015649 0.000155401 -0.0376675)
(-0.000201718 0.000133868 -0.0384863)
(-0.000241801 0.0001059 -0.0391938)
(-0.000277791 7.29861e-05 -0.0397725)
(3.47773e-05 0.000125965 -0.0306189)
(-2.39948e-05 8.91483e-05 -0.0341465)
(-9.00406e-05 8.25597e-05 -0.0357519)
(-0.000138704 7.41867e-05 -0.0368946)
(-0.00018014 6.31687e-05 -0.0378464)
(-0.000214003 4.77961e-05 -0.0386746)
(-0.000241942 2.81325e-05 -0.0393899)
(-0.000265234 4.73553e-06 -0.0399742)
(-2.38459e-05 -5.42233e-05 -0.0307931)
(-5.55609e-05 -5.5497e-05 -0.0342957)
(-0.000108467 -4.81905e-05 -0.0358975)
(-0.000148033 -4.35267e-05 -0.0370444)
(-0.000181475 -4.12437e-05 -0.038004)
(-0.000207434 -4.227e-05 -0.0388331)
(-0.00022772 -4.6513e-05 -0.0395516)
(-0.000243363 -5.41395e-05 -0.0401406)
(-3.68834e-06 -0.000277811 -0.0307334)
(-2.57579e-05 -0.000230561 -0.0342844)
(-7.26476e-05 -0.000202619 -0.0359111)
(-0.000109261 -0.000180453 -0.0370742)
(-0.000142342 -0.000160563 -0.038044)
(-0.000168486 -0.000142687 -0.038886)
(-0.000188337 -0.000127162 -0.0396152)
(-0.000203466 -0.000114834 -0.0402142)
(9.82943e-05 -0.000454842 -0.030593)
(6.28866e-05 -0.000381733 -0.0341634)
(1.23007e-05 -0.000340602 -0.0358057)
(-2.69383e-05 -0.00030503 -0.036982)
(-6.32245e-05 -0.000270663 -0.0379657)
(-9.45764e-05 -0.000236304 -0.0388249)
(-0.000121741 -0.00020306 -0.0395706)
(-0.00014539 -0.000172549 -0.040185)
(0.00028044 -0.000594232 -0.0304345)
(0.000213739 -0.000498956 -0.034011)
(0.000148134 -0.000449001 -0.035662)
(9.6445e-05 -0.000405437 -0.0368463)
(4.8233e-05 -0.000362921 -0.037838)
(4.02735e-06 -0.000319341 -0.0387054)
(-3.70354e-05 -0.000275676 -0.0394592)
(-7.52199e-05 -0.000233672 -0.0400818)
(0.000507939 -0.000661089 -0.0303046)
(0.00039743 -0.000565844 -0.0338771)
(0.000309995 -0.000521627 -0.0355285)
(0.000241124 -0.000482238 -0.0367126)
(0.000177499 -0.000442101 -0.0377021)
(0.00011774 -0.000398889 -0.0385662)
(6.06472e-05 -0.000353718 -0.0393167)
(6.12151e-06 -0.000308312 -0.0399367)
(8.34569e-05 0.000162235 -0.0302687)
(8.50493e-06 0.000128647 -0.033811)
(-6.08504e-05 0.000124787 -0.0354386)
(-0.000111374 0.000113309 -0.0366023)
(-0.000155279 9.65566e-05 -0.0375722)
(-0.000193809 7.34964e-05 -0.0384161)
(-0.000229076 4.5277e-05 -0.0391445)
(-0.000262503 1.33954e-05 -0.0397408)
(2.43094e-05 0.000105106 -0.0304074)
(-2.43e-05 7.14202e-05 -0.0339575)
(-7.99194e-05 6.47933e-05 -0.035595)
(-0.000118246 5.55516e-05 -0.0367708)
(-0.000150556 4.38659e-05 -0.0377532)
(-0.000176936 2.8669e-05 -0.0386076)
(-0.000199684 9.83914e-06 -0.0393447)
(-0.000220424 -1.19874e-05 -0.0399472)
(-1.91254e-05 -2.70427e-05 -0.0305545)
(-4.20932e-05 -2.57454e-05 -0.0340891)
(-8.46459e-05 -1.76666e-05 -0.0357271)
(-0.000113471 -1.22982e-05 -0.0369106)
(-0.000136646 -9.16012e-06 -0.0379099)
(-0.000154606 -8.81442e-06 -0.0387595)
(-0.00017015 -1.11491e-05 -0.0394999)
(-0.000183801 -1.65804e-05 -0.0401078)
(-3.95467e-06 -0.000200037 -0.0305128)
(-1.84196e-05 -0.000151086 -0.0340834)
(-5.5091e-05 -0.000121569 -0.0357394)
(-8.04089e-05 -9.71105e-05 -0.036933)
(-0.000103463 -7.47658e-05 -0.0379323)
(-0.000122074 -5.46262e-05 -0.038802)
(-0.000137609 -3.67113e-05 -0.0395539)
(-0.00015161 -2.19641e-05 -0.0401715)
(7.63298e-05 -0.000346805 -0.0303846)
(4.92534e-05 -0.000268295 -0.033973)
(8.6984e-06 -0.000223048 -0.0356422)
(-2.02034e-05 -0.000182919 -0.036846)
(-4.79893e-05 -0.00014462 -0.0378552)
(-7.29788e-05 -0.000106895 -0.0387365)
(-9.6611e-05 -7.07817e-05 -0.0395002)
(-0.000119886 -3.78734e-05 -0.0401296)
(0.000225179 -0.000469307 -0.0302296)
(0.00016868 -0.000368259 -0.0338233)
(0.000113702 -0.000312637 -0.035499)
(7.21352e-05 -0.000262862 -0.0367076)
(3.16869e-05 -0.000215116 -0.0377211)
(-6.98855e-06 -0.000167204 -0.0386066)
(-4.54086e-05 -0.000120279 -0.0393749)
(-8.41869e-05 -7.61098e-05 -0.0400098)
(0.000420109 -0.000539233 -0.0300984)
(0.000322987 -0.000436187 -0.033687)
(0.000247116 -0.000383764 -0.0353614)
(0.000188141 -0.000336067 -0.0365675)
(0.000132098 -0.000289809 -0.0375763)
(7.73742e-05 -0.00024188 -0.0384559)
(2.23785e-05 -0.000193761 -0.0392184)
(-3.33458e-05 -0.000147217 -0.0398485)
(5.07672e-05 0.000119115 -0.0301139)
(-1.0556e-05 8.73694e-05 -0.0336795)
(-6.79618e-05 8.19068e-05 -0.0353358)
(-0.000107468 6.80116e-05 -0.0365275)
(-0.000141867 4.94007e-05 -0.0375218)
(-0.000172748 2.54194e-05 -0.0383852)
(-0.000202621 -2.49928e-06 -0.0391282)
(-0.000233313 -3.27466e-05 -0.0397351)
(1.74437e-05 9.17157e-05 -0.0302501)
(-1.93966e-05 6.3683e-05 -0.0338279)
(-6.32035e-05 5.81319e-05 -0.0354965)
(-8.98945e-05 4.88127e-05 -0.0367018)
(-0.00011199 3.71752e-05 -0.0377094)
(-0.000130239 2.22006e-05 -0.0385843)
(-0.000147354 4.40677e-06 -0.0393364)
(-0.000165495 -1.55033e-05 -0.0399497)
(-1.21853e-05 8.21321e-06 -0.0303758)
(-2.55454e-05 1.34149e-05 -0.0339461)
(-5.64477e-05 2.26601e-05 -0.0356183)
(-7.29391e-05 2.8911e-05 -0.0368314)
(-8.6251e-05 3.32774e-05 -0.0378449)
(-9.6493e-05 3.51969e-05 -0.0387281)
(-0.000106339 3.46516e-05 -0.0394855)
(-0.000117845 3.14775e-05 -0.0401045)
(-3.70758e-06 -0.000114376 -0.0303439)
(-9.61177e-06 -6.44055e-05 -0.0339403)
(-3.46638e-05 -3.37981e-05 -0.0356253)
(-4.76275e-05 -7.44276e-06 -0.0368464)
(-6.01834e-05 1.67657e-05 -0.0378697)
(-7.07131e-05 3.91869e-05 -0.0387594)
(-8.15264e-05 5.93432e-05 -0.039526)
(-9.45337e-05 7.63557e-05 -0.0401539)
(5.33339e-05 -0.00023089 -0.0302216)
(3.65409e-05 -0.000150229 -0.0338325)
(8.24459e-06 -0.000102103 -0.0355267)
(-8.71907e-06 -5.83773e-05 -0.0367548)
(-2.69707e-05 -1.70187e-05 -0.0377842)
(-4.4847e-05 2.34124e-05 -0.038681)
(-6.47334e-05 6.1748e-05 -0.0394555)
(-8.79964e-05 9.64343e-05 -0.0400923)
(0.000168804 -0.000340277 -0.0300652)
(0.000126378 -0.000236909 -0.033678)
(8.54678e-05 -0.000177107 -0.0353754)
(5.60228e-05 -0.000122433 -0.0366051)
(2.46641e-05 -7.07038e-05 -0.037635)
(-7.4979e-06 -1.95544e-05 -0.0385321)
(-4.29847e-05 2.95392e-05 -0.0393078)
(-8.27028e-05 7.48108e-05 -0.0399472)
(0.000334338 -0.00041703 -0.0299271)
(0.000255598 -0.000309918 -0.0335327)
(0.00019538 -0.000250995 -0.0352262)
(0.000149537 -0.000196414 -0.0364504)
(0.000102483 -0.000145008 -0.0374723)
(5.40463e-05 -9.3721e-05 -0.0383608)
(1.6543e-06 -4.39798e-05 -0.039128)
(-5.54478e-05 2.36096e-06 -0.0397605)
(2.45129e-05 8.3151e-05 -0.0300107)
(-2.03188e-05 5.57696e-05 -0.0336035)
(-6.36471e-05 4.95216e-05 -0.0352869)
(-9.04123e-05 3.35734e-05 -0.0365028)
(-0.000114073 1.32417e-05 -0.0375163)
(-0.000136483 -1.15929e-05 -0.0383929)
(-0.000160668 -3.90838e-05 -0.0391433)
(-0.000188863 -6.74508e-05 -0.0397532)
(1.58042e-05 8.83323e-05 -0.0301493)
(-7.59136e-06 6.71339e-05 -0.033759)
(-3.78491e-05 6.27767e-05 -0.0354571)
(-5.1321e-05 5.34021e-05 -0.0366879)
(-6.20396e-05 4.17579e-05 -0.0377158)
(-7.14218e-05 2.67899e-05 -0.0386039)
(-8.26667e-05 9.93027e-06 -0.0393634)
(-9.8515e-05 -7.99135e-06 -0.0399792)
(-1.97776e-06 5.35029e-05 -0.0302579)
(-4.54249e-06 6.26339e-05 -0.033867)
(-2.19083e-05 7.26791e-05 -0.0355712)
(-2.44024e-05 7.94401e-05 -0.0368124)
(-2.73253e-05 8.47487e-05 -0.0378599)
(-2.93421e-05 8.78966e-05 -0.038743)
(-3.32027e-05 8.88253e-05 -0.0395061)
(-4.28801e-05 8.77535e-05 -0.0401273)
(-2.2942e-06 -1.98463e-05 -0.0302281)
(2.2826e-06 2.88614e-05 -0.0338557)
(-9.00626e-06 6.02334e-05 -0.0355678)
(-8.03816e-06 8.74235e-05 -0.0368128)
(-9.17351e-06 0.000112753 -0.0378542)
(-1.09542e-05 0.000136935 -0.0387555)
(-1.68737e-05 0.000158875 -0.0395279)
(-2.9342e-05 0.000177785 -0.0401571)
(2.87305e-05 -0.000108476 -0.0301055)
(2.75277e-05 -2.91911e-05 -0.0337412)
(1.42549e-05 2.10298e-05 -0.0354583)
(1.06283e-05 6.64837e-05 -0.0367066)
(3.62376e-06 0.000110051 -0.0377502)
(-6.3592e-06 0.000152347 -0.038655)
(-2.23661e-05 0.000192178 -0.0394319)
(-4.62068e-05 0.000228018 -0.0400673)
(0.000112212 -0.000210103 -0.029942)
(9.13875e-05 -0.000107004 -0.0335734)
(6.71266e-05 -4.46031e-05 -0.0352898)
(5.16636e-05 1.30896e-05 -0.0365358)
(3.18232e-05 6.80533e-05 -0.0375759)
(6.96277e-06 0.000121331 -0.0384773)
(-2.541e-05 0.000171599 -0.0392521)
(-6.66259e-05 0.000217064 -0.0398874)
(0.000252381 -0.0002995 -0.0297913)
(0.000201046 -0.00018945 -0.0334112)
(0.000160591 -0.000125857 -0.0351199)
(0.000129577 -6.6168e-05 -0.0363569)
(9.42138e-05 -1.02199e-05 -0.0373861)
(5.2983e-05 4.34741e-05 -0.0382756)
(3.34766e-06 9.37247e-05 -0.0390393)
(-5.5697e-05 0.000138651 -0.0396655)
(7.03317e-06 5.67554e-05 -0.0299616)
(-1.86475e-05 3.50329e-05 -0.0335848)
(-4.56353e-05 2.77199e-05 -0.0352932)
(-5.7867e-05 9.26242e-06 -0.0365289)
(-6.96365e-05 -1.32017e-05 -0.0375559)
(-8.28931e-05 -3.92668e-05 -0.0384386)
(-0.000101352 -6.65558e-05 -0.0391885)
(-0.000127652 -9.30603e-05 -0.0397927)
(2.10624e-05 9.69364e-05 -0.0301074)
(1.28648e-05 8.23862e-05 -0.0337527)
(-1.6243e-06 7.84063e-05 -0.0354782)
(-5.03911e-08 6.81398e-05 -0.0367301)
(1.65634e-06 5.54149e-05 -0.0377716)
(2.11164e-06 4.03061e-05 -0.0386657)
(-3.16597e-06 2.4136e-05 -0.0394237)
(-1.73376e-05 8.09876e-06 -0.0400327)
(1.24163e-05 0.000110606 -0.0302022)
(2.23499e-05 0.000121636 -0.0338528)
(2.08709e-05 0.000132153 -0.0355857)
(3.29048e-05 0.000138415 -0.0368487)
(4.32134e-05 0.000143487 -0.0379061)
(5.14879e-05 0.000146818 -0.0387976)
(5.26708e-05 0.000148887 -0.0395584)
(4.38669e-05 0.000149665 -0.040172)
(-7.72313e-07 8.35539e-05 -0.030168)
(1.95567e-05 0.000128315 -0.0338298)
(2.49342e-05 0.000159245 -0.0355664)
(4.09301e-05 0.000185974 -0.0368305)
(5.31189e-05 0.00021196 -0.0378828)
(6.07263e-05 0.0002366 -0.0387871)
(5.96916e-05 0.00025956 -0.0395556)
(4.70766e-05 0.000279898 -0.0401759)
(4.61517e-06 1.86868e-05 -0.0300379)
(2.46437e-05 9.38047e-05 -0.0336987)
(2.931e-05 0.000143303 -0.0354363)
(4.15075e-05 0.000189462 -0.0366994)
(4.76757e-05 0.000234184 -0.0377501)
(4.63648e-05 0.000277482 -0.0386546)
(3.4259e-05 0.000318134 -0.0394247)
(9.08225e-06 0.000354582 -0.0400489)
(5.91869e-05 -8.12125e-05 -0.0298594)
(6.60718e-05 1.83452e-05 -0.033508)
(6.25371e-05 8.14336e-05 -0.0352405)
(6.40231e-05 0.00014128 -0.0364967)
(5.74449e-05 0.000198375 -0.0375399)
(4.0826e-05 0.000253011 -0.0384373)
(1.15119e-05 0.000303742 -0.0392022)
(-3.20671e-05 0.00034874 -0.039824)
(0.000180131 -0.000189514 -0.0296898)
(0.00016372 -7.94035e-05 -0.0333198)
(0.000146975 -1.18387e-05 -0.0350406)
(0.0001342 5.23216e-05 -0.0362838)
(0.000112366 0.000111917 -0.0373125)
(7.909e-05 0.000167412 -0.038195)
(3.20329e-05 0.000217397 -0.0389461)
(-2.99481e-05 0.000260161 -0.0395566)
(9.24361e-07 4.19187e-05 -0.0299701)
(-3.24555e-06 2.56838e-05 -0.0336262)
(-1.14562e-05 1.60721e-05 -0.0353565)
(-7.31701e-06 -6.14091e-06 -0.0366075)
(-6.19569e-06 -3.15784e-05 -0.0376412)
(-9.76273e-06 -5.96819e-05 -0.0385222)
(-2.26472e-05 -8.72968e-05 -0.0392625)
(-4.78914e-05 -0.000112166 -0.0398515)
(3.49365e-05 0.000119056 -0.0301279)
(4.40373e-05 0.000109327 -0.0338122)
(4.80139e-05 0.000104635 -0.0355614)
(6.66332e-05 9.15545e-05 -0.0368296)
(8.22386e-05 7.7016e-05 -0.0378773)
(9.30988e-05 6.05702e-05 -0.0387686)
(9.37751e-05 4.44346e-05 -0.0395153)
(8.04991e-05 3.00164e-05 -0.040107)
(3.136e-05 0.000180395 -0.0302112)
(5.80923e-05 0.000190209 -0.0339055)
(7.45279e-05 0.000199606 -0.0356623)
(0.000103823 0.000203597 -0.036939)
(0.000128684 0.000207164 -0.0379905)
(0.000147148 0.000209937 -0.0388891)
(0.000154025 0.000212318 -0.0396391)
(0.00014536 0.000214565 -0.0402342)
(3.01791e-06 0.000195127 -0.0301667)
(4.43286e-05 0.000232807 -0.0338634)
(6.90395e-05 0.000260802 -0.0356219)
(0.000102782 0.00028596 -0.0368986)
(0.000130053 0.000311004 -0.0379535)
(0.000147914 0.000335514 -0.0388514)
(0.000151752 0.000358935 -0.0396052)
(0.000138121 0.000380356 -0.0402054)
(-1.68084e-05 0.000148464 -0.0300199)
(3.00335e-05 0.000215278 -0.0337055)
(5.67325e-05 0.000262006 -0.0354601)
(8.78086e-05 0.000307685 -0.0367317)
(0.000109077 0.000352605 -0.0377817)
(0.00011745 0.00039627 -0.0386763)
(0.000109152 0.000437302 -0.0394291)
(8.15957e-05 0.000474069 -0.0400314)
(1.3072e-05 4.27761e-05 -0.0298176)
(5.40026e-05 0.000135216 -0.0334812)
(7.58682e-05 0.000197607 -0.0352252)
(9.75998e-05 0.00025885 -0.0364853)
(0.000106177 0.000317544 -0.0375236)
(9.86511e-05 0.000373157 -0.0384078)
(7.21236e-05 0.000424026 -0.0391527)
(2.4924e-05 0.000468259 -0.0397508)
(0.000123032 -9.14349e-05 -0.0296211)
(0.000148248 1.64792e-05 -0.0332578)
(0.00015989 8.75493e-05 -0.0349853)
(0.000168542 0.000156048 -0.036228)
(0.000161944 0.00021907 -0.037248)
(0.000137233 0.00027614 -0.038114)
(9.21654e-05 0.00032565 -0.0388425)
(2.57497e-05 0.000365929 -0.0394274)
(7.97962e-06 4.04931e-05 -0.0300409)
(2.8837e-05 2.7031e-05 -0.0337328)
(4.14734e-05 1.37119e-05 -0.0354806)
(6.3392e-05 -1.42327e-05 -0.0367411)
(7.87677e-05 -4.43053e-05 -0.0377738)
(8.52117e-05 -7.53881e-05 -0.0386439)
(7.77612e-05 -0.000104101 -0.0393645)
(5.26548e-05 -0.000127722 -0.0399273)
(5.80814e-05 0.000156427 -0.0302152)
(8.90814e-05 0.000147026 -0.0339423)
(0.00011338 0.000139614 -0.0357111)
(0.000150799 0.000122089 -0.036989)
(0.000182526 0.000103547 -0.0380347)
(0.000204615 8.45622e-05 -0.0389127)
(0.00021126 6.76825e-05 -0.0396367)
(0.000197991 5.46193e-05 -0.0401989)
(5.4496e-05 0.000263158 -0.0302899)
(0.000103969 0.000267431 -0.0340274)
(0.000141749 0.000272447 -0.0358044)
(0.000190852 0.000272659 -0.0370901)
(0.000232214 0.000273209 -0.0381469)
(0.000261963 0.000274224 -0.0390214)
(0.000274711 0.000276229 -0.039746)
(0.000265239 0.000279715 -0.0403099)
(1.02152e-05 0.000313106 -0.0302279)
(7.7954e-05 0.000339996 -0.0339592)
(0.000126172 0.000362294 -0.0357353)
(0.000180989 0.000384281 -0.0370175)
(0.00022554 0.00040723 -0.038066)
(0.000254848 0.000430971 -0.0389462)
(0.000263544 0.000454517 -0.0396731)
(0.000247721 0.000476957 -0.0402405)
(-3.34569e-05 0.000277143 -0.0300539)
(4.63221e-05 0.000331585 -0.0337631)
(0.000100038 0.000373755 -0.0355301)
(0.000153716 0.000417928 -0.036803)
(0.000192396 0.00046247 -0.037843)
(0.000211541 0.000506249 -0.0387169)
(0.000206837 0.000547616 -0.0394407)
(0.000175475 0.000584787 -0.0400089)
(-2.24104e-05 0.000156832 -0.0298177)
(5.92392e-05 0.000239154 -0.0334929)
(0.000111563 0.000300231 -0.0352434)
(0.0001572 0.000362758 -0.0365001)
(0.00018304 0.000423112 -0.0375244)
(0.000185361 0.000479873 -0.0383847)
(0.000161067 0.000531061 -0.0390984)
(0.000108511 0.000574652 -0.0396612)
(8.67426e-05 -1.03452e-05 -0.0295853)
(0.000160246 9.38206e-05 -0.0332244)
(0.000204733 0.000168918 -0.0349528)
(0.000237915 0.000242481 -0.0361875)
(0.000248088 0.000309523 -0.0371893)
(0.00023215 0.000368659 -0.0380282)
(0.000188075 0.000417995 -0.038723)
(0.000115196 0.000455836 -0.039271)
(2.87155e-05 5.50821e-05 -0.0301825)
(8.04325e-05 3.87905e-05 -0.03391)
(0.000115857 1.81749e-05 -0.0356701)
(0.00015669 -1.73696e-05 -0.0369325)
(0.00018772 -5.43222e-05 -0.0379558)
(0.000204989 -8.99764e-05 -0.038805)
(0.000202931 -0.000120743 -0.0394942)
(0.000176948 -0.000143461 -0.0400181)
(8.98866e-05 0.000209992 -0.030378)
(0.000148795 0.000195669 -0.0341473)
(0.000197136 0.000180925 -0.0359318)
(0.000255873 0.000156443 -0.0372117)
(0.000305777 0.000131612 -0.0382456)
(0.000340513 0.000108619 -0.0390986)
(0.00035324 9.01754e-05 -0.0397864)
(0.000338838 7.83056e-05 -0.0403053)
(8.35905e-05 0.000356995 -0.0304439)
(0.000161248 0.000351292 -0.0342225)
(0.000224529 0.000348291 -0.0360155)
(0.000296821 0.000342373 -0.0373011)
(0.000357971 0.000338052 -0.0383383)
(0.000401059 0.000336119 -0.0391902)
(0.000419383 0.000337365 -0.0398765)
(0.000407671 0.000342232 -0.0403946)
(2.21638e-05 0.000434649 -0.0303561)
(0.000122369 0.000446107 -0.0341205)
(0.000199452 0.00046028 -0.035909)
(0.000279634 0.000477541 -0.0371885)
(0.000344313 0.000497693 -0.0382197)
(0.000386501 0.000520067 -0.0390693)
(0.000399947 0.000543738 -0.0397553)
(0.000380377 0.000567598 -0.0402757)
(-4.28765e-05 0.000400039 -0.0301436)
(7.68137e-05 0.000438348 -0.033874)
(0.000163327 0.000474632 -0.0356479)
(0.000244052 0.000516801 -0.0369138)
(0.000302865 0.000560968 -0.0379328)
(0.000333916 0.000605173 -0.0387735)
(0.000332377 0.000647391 -0.0394546)
(0.000295327 0.000685566 -0.039975)
(-4.32262e-05 0.000255426 -0.0298613)
(8.62385e-05 0.000325819 -0.033545)
(0.000174561 0.000385705 -0.0352961)
(0.000248157 0.000450257 -0.0365409)
(0.000293481 0.000513155 -0.0375403)
(0.000306231 0.000571956 -0.0383645)
(0.00028324 0.000624262 -0.0390339)