/*--------------------------------*- C++ -*----------------------------------*\
| =========                 |                                                 |
| \\      /  F ield         | OpenFOAM: The Open Source CFD Toolbox           |
|  \\    /   O peration     | Version:  plus.master.MPPICInterFoam            |
|   \\  /    A nd           | Web:      www.OpenFOAM.com                      |
|    \\/     M anipulation  |                                                 |
\*---------------------------------------------------------------------------*/
FoamFile
{
    version     2.0;
    format      ascii;
    class       vectorField;
    location    "6.2/lagrangian/kinematicCloud";
    object      UCorrect;
}
// * * * * * * * * * * * * * * * * * * * * * * * * * * * * * * * * * * * * * //


2617
(
(9.82087e-05 -0.000466616 -0.000668954)
(0.000126201 -0.000460227 -0.00103841)
(-6.53372e-07 -1.30007e-06 -1.66176e-09)
(-1.3352e-06 -2.67641e-06 -0.000359616)
(7.26903e-06 1.77204e-06 -1.40145e-06)
(0.000121057 -0.000461401 -0.000668954)
(-0.000686853 -0.000205314 -0.000569968)
(-0.000299813 0.00010334 -0.000375468)
(-0.000686853 -0.000205314 -0.000538083)
(6.90465e-06 1.68887e-06 -1.40145e-06)
(2.42587e-06 1.78971e-06 -6.89642e-07)
(-0.000284257 0.000115745 -0.000375468)
(4.34754e-07 -4.56951e-07 -0.000508469)
(-0.000686853 -0.000205314 -0.000587069)
(8.62196e-07 7.90435e-08 -0.000359616)
(0.000121706 -0.000461253 -0.000668954)
(4.34754e-07 -4.56951e-07 -0.000495845)
(-2.21424e-07 -1.7634e-07 -9.20943e-07)
(-0.000686853 -0.000205314 -0.000637934)
(-0.000445614 -1.29326e-05 -0.000375468)
(0.000126201 -0.000460227 -0.00109015)
(4.34754e-07 -4.56951e-07 -0.000500596)
(0.000126201 -0.000460227 -0.0010193)
(9.74036e-07 1.21983e-06 -2.93952e-07)
(6.72189e-07 -6.06142e-07 -0.000359616)
(-0.000686853 -0.000205314 -0.000636471)
(4.34754e-07 -4.56951e-07 -0.000565328)
(-0.000686853 -0.000205314 -0.000612682)
(4.34754e-07 -4.56951e-07 -0.000595096)
(9.74036e-07 1.21983e-06 -2.65415e-07)
(1.36149e-06 9.40899e-07 -1.36432e-06)
(8.61745e-07 -7.25247e-07 -0.000359616)
(-0.000796489 -3.08293e-05 -0.000375468)
(0.000126201 -0.000460227 -0.000954016)
(-0.000254325 0.000139615 -0.000375468)
(4.34754e-07 -4.56951e-07 -0.000613581)
(4.34754e-07 -4.56951e-07 -0.000560676)
(-0.000686853 -0.000205314 -0.000652658)
(1.94775e-06 1.44029e-06 -0.000359616)
(4.34754e-07 -4.56951e-07 -0.000537033)
(6.24777e-06 1.53894e-06 -1.40145e-06)
(0.000100721 -0.000234084 -0.000668954)
(-0.000686853 -0.000205314 -0.0005882)
(0.000100543 -0.000466083 -0.000668954)
(-1.83939e-07 9.21202e-07 -0.000237535)
(7.10052e-07 -6.29932e-07 -0.000359616)
(2.21039e-06 1.61788e-06 -6.89642e-07)
(0.000126201 -0.000460227 -0.000941066)
(1.6256e-06 2.03687e-06 -1.5574e-07)
(4.16579e-06 1.06375e-06 -2.49536e-06)
(9.17018e-05 -0.00015404 -0.000668954)
(0.000119273 -0.000461808 -0.000668954)
(2.15537e-06 1.574e-06 -6.89642e-07)
(-1.85422e-07 9.08041e-07 -0.000237535)
(9.8146e-07 -5.34871e-07 -5.0549e-06)
(1.65277e-06 1.62181e-06 -0.000237535)
(4.34754e-07 -4.56951e-07 -0.000492985)
(1.12544e-06 1.62181e-06 -0.000237535)
(-3.59384e-07 -1.45277e-06 -0.000359616)
(0.000126201 -0.000460227 -0.000886801)
(-1.8586e-07 9.04153e-07 -0.000237535)
(-0.000274104 0.000123842 -0.000375468)
(9.3333e-05 -0.000168517 -0.000668954)
(4.18667e-07 1.62181e-06 -0.000237535)
(0.000126201 -0.000460227 -0.000859017)
(1.62423e-06 1.0346e-06 -0.000359616)
(7.98111e-06 1.93457e-06 -1.40145e-06)
(0.000904215 0.000135566 -7.53747e-06)
(-8.35848e-07 -2.05024e-06 -0.000359616)
(0.000192443 -0.000649536 -0.000668954)
(-3.78968e-06 -8.67254e-07 -6.65292e-09)
(-1.66802e-07 1.0733e-06 -0.000237535)
(4.489e-08 2.76059e-07 -7.10193e-07)
(0.000185615 -0.000630022 -0.000668954)
(0.00010994 -0.000463939 -0.000668954)
(0.000110004 -0.000463924 -0.000668954)
(0.000706663 0.000562915 -4.02125e-06)
(-1.90783e-07 8.60457e-07 -0.000237535)
(6.04318e-08 2.72512e-07 -4.04834e-07)
(9.05836e-07 7.29905e-12 -9.55479e-07)
(1.68878e-06 7.29905e-12 -5.37027e-07)
(-0.000594167 -0.0001314 -0.000375468)
(0.000462075 -2.95309e-05 -6.73839e-06)
(-2.48676e-11 -1.05286e-10 -1.48409e-07)
(2.18222e-06 1.73431e-06 -0.000359616)
(-1.95313e-07 8.20251e-07 -0.000237535)
(0.000559706 0.000268925 -0.000464991)
(-2.06361e-07 7.22198e-07 -0.000237535)
(0.000896415 0.0002048 -4.51562e-06)
(-3.78968e-06 -8.67254e-07 -6.63872e-09)
(0.000559706 0.000268925 -0.000490678)
(0.000559706 0.000268925 -0.000557427)
(0.00155997 0.000356252 -7.53747e-06)
(8.85282e-08 6.63358e-07 -4.04834e-07)
(5.11927e-07 -2.18253e-07 -0.00039972)
(-1.17187e-06 -1.02913e-06 -0.000734123)
(4.489e-08 2.76059e-07 -6.80729e-07)
(0.00011682 -0.000462368 -0.000668954)
(8.37775e-07 -1.91123e-07 -4.7038e-06)
(-5.20687e-11 -9.90774e-11 -2.9568e-07)
(0.000559706 0.000268925 -0.000555228)
(0.000119674 -0.000461717 -0.000668954)
(-1.04999e-07 1.62181e-06 -0.000187985)
(0.000896415 0.0002048 -3.59646e-06)
(0.000559706 0.000268925 -0.000604773)
(0.000209025 -0.000696926 -0.000668954)
(-1.87785e-07 8.87072e-07 -0.000237535)
(0.000111486 -0.000463586 -0.000668954)
(-0.000111848 -0.000473516 -4.3179e-07)
(8.37775e-07 -1.91123e-07 -5.21046e-06)
(8.37775e-07 -1.91123e-07 -5.14674e-06)
(4.489e-08 2.76059e-07 -7.65171e-07)
(0.000440556 0.000350702 -2.18002e-06)
(0.000117097 -0.000462305 -0.000668954)
(-0.000126048 -0.000498931 -0.00072538)
(-1.04767e-06 1.62181e-06 -0.000237535)
(0.000559706 0.000268925 -0.000598289)
(-0.000686853 -0.000205314 -0.000256217)
(-0.000991739 -0.000448452 -0.000375468)
(0.000896415 0.0002048 -4.54404e-06)
(0.000126201 -0.000460227 -0.000430098)
(1.3084e-11 -2.73325e-12 -1.03245e-11)
(5.95272e-08 -1.34932e-08 -2.86041e-06)
(4.489e-08 2.76059e-07 -7.63597e-07)
(0.000100943 -0.000465992 -0.000668954)
(-0.000686853 -0.000205314 -0.000218569)
(-0.000122911 -0.000470991 -4.91773e-06)
(-0.000122911 -0.000470991 -4.65071e-06)
(7.32249e-07 9.74036e-08 -3.54753e-10)
(1.00568e-06 3.97299e-07 -5.7433e-06)
(0.000440556 0.000350702 -3.09823e-06)
(0.000465512 9.76484e-07 -4.60177e-06)
(-1.0865e-06 -1.27308e-06 -0.00039972)
(-0.000686853 -0.000205314 -7.60774e-05)
(-0.000122911 -0.000470991 -4.68875e-06)
(0.000103664 8.20392e-05 -4.02125e-06)
(0.000559706 0.000268925 -0.000506309)
(0.000126201 -0.000460227 -0.000441164)
(0.000126201 -0.000460227 -0.000464108)
(0.000126201 -0.000460227 -0.000142501)
(-0.000122911 -0.000470991 -3.78634e-06)
(-4.93941e-06 1.12778e-06 -2.37787e-06)
(-0.000112267 -0.000473421 -4.3179e-07)
(2.91493e-07 4.19303e-07 -0.000266269)
(0.000559706 0.000268925 -0.000585633)
(0.000106137 2.4424e-05 -7.53747e-06)
(0.000227884 5.22119e-05 -7.53747e-06)
(0.000126201 -0.000460227 -5.84498e-05)
(4.489e-08 2.76059e-07 -7.37691e-07)
(8.37775e-07 -1.91123e-07 -4.57688e-06)
(8.37775e-07 -1.91123e-07 -4.68365e-06)
(2.16617e-07 -2.21714e-07 -0.000382688)
(-2.36175e-06 -1.42824e-06 1.13858e-06)
(4.34754e-07 -4.56951e-07 -1.04571e-05)
(-6.59074e-06 -1.50658e-06 -3.61903e-09)
(-0.000111677 -0.000473555 -4.3179e-07)
(-0.000111314 -0.000473638 -4.3179e-07)
(1.1837e-11 -2.44863e-12 -1.03245e-11)
(1.38219e-06 9.25479e-07 -1.16079e-06)
(0.000141745 -4.36106e-05 -1.35034e-06)
(0.000101549 -0.000241433 -0.000668954)
(0.000126201 -0.000460227 -0.000133278)
(-1.04999e-07 1.62181e-06 -0.0001164)
(-0.000125542 -0.000354922 -0.00072538)
(-8.03667e-05 -9.3403e-05 -4.3179e-07)
(-0.000123264 -0.000499566 -0.00072538)
(0.000142845 -4.0467e-05 -1.35034e-06)
(0.000140004 -4.85859e-05 -1.35034e-06)
(3.03164e-05 -6.48901e-06 -1.35034e-06)
(8.29537e-07 -7.0501e-07 -0.000359616)
(5.89094e-06 8.59998e-07 -6.13457e-06)
(-1.04999e-07 1.62181e-06 -9.0414e-05)
(-0.000119555 -0.000500413 -0.00072538)
(0.000126201 -0.000460227 -0.000332839)
(0.00041708 0.000374178 -4.02125e-06)
(-3.8074e-06 -7.09968e-07 -3.61903e-09)
(-9.33781e-06 2.13168e-06 -1.22479e-06)
(-0.000130056 -0.000498016 -0.00072538)
(7.43517e-06 1.51601e-05 -7.20145e-06)
(0.000931445 0.000447945 -0.000349998)
(9.5729e-07 -5.78403e-07 -0.000234532)
(0.000126201 -0.000460227 -0.000124531)
(0.000126201 -0.000460227 -0.000313307)
(-2.36175e-06 -1.42824e-06 7.58853e-07)
(0.000882045 0.000245866 -7.53747e-06)
(-0.000131251 -0.000497743 -0.00072538)
(0.000711918 9.76484e-07 -6.73839e-06)
(-1.0287e-06 1.62181e-06 -0.000237535)
(-0.000686853 -0.000205314 -1.47664e-05)
(-1.04999e-07 1.62181e-06 -7.44455e-05)
(-0.000122911 -0.000470991 -4.76192e-06)
(9.93401e-07 9.82642e-07 -5.7433e-06)
(0.000462177 -2.86253e-05 -6.73839e-06)
(-0.000122457 -0.00049975 -0.00072538)
(8.37775e-07 -1.91123e-07 -5.5089e-06)
(0.000147411 -1.61163e-05 -1.35034e-06)
(0.000416763 0.000374495 -4.02125e-06)
(0.000441731 0.000352269 -0.000527387)
(0.000459669 -5.0888e-05 -6.73839e-06)
(0.00104668 0.000503441 -0.000349998)
(5.52462e-08 -4.38179e-07 -0.00039972)
(-2.56381e-06 1.39021e-06 -6.32789e-07)
(0.000896415 0.0002048 -9.07641e-06)
(6.58775e-05 9.76484e-07 -6.73839e-06)
(9.50609e-06 3.96306e-06 -0.000349998)
(0.000450103 0.000335508 -4.02125e-06)
(0.000100703 -0.000466047 -0.000668954)
(-2.36175e-06 -1.42824e-06 4.19281e-07)
(-4.35938e-06 2.51844e-06 -1.31954e-06)
(-1.09141e-06 3.23655e-06 -1.31954e-06)
(-6.33901e-05 1.44144e-05 -1.79658e-06)
(-0.000110895 -0.000224929 -0.00072538)
(-9.21955e-05 -0.000198386 -4.3179e-07)
(-0.000109384 -0.000474079 -4.3179e-07)
(-0.000122911 -0.000470991 -5.13501e-06)
(7.05145e-06 1.43633e-05 -7.20145e-06)
(0.000896415 0.0002048 -9.22648e-06)
(-7.10244e-06 -1.62337e-06 -3.61903e-09)
(-2.56381e-06 1.39021e-06 -1.65609e-07)
(-0.000141373 -0.000495433 -0.000204654)
(7.47978e-06 1.52527e-05 -7.20145e-06)
(0.000896415 0.0002048 -1.0182e-05)
(0.000771428 0.000176272 -7.53747e-06)
(3.1748e-06 8.59998e-07 -3.91689e-06)
(-1.40046e-06 2.26856e-07 -1.31954e-06)
(1.04368e-06 9.51047e-07 -5.7433e-06)
(0.000141925 6.77327e-05 -0.000349998)
(7.83701e-07 4.62433e-07 -1.80026e-06)
(-1.26455e-06 3.01944e-06 -1.31954e-06)
(-7.67249e-06 -1.75348e-06 -3.61903e-09)
(2.55815e-06 6.57075e-07 -9.77785e-07)
(-0.000116795 -0.000277294 -0.00072538)
(-0.000116099 -0.000501201 -0.00072538)
(-0.000122911 -0.000470991 -4.3439e-06)
(0.000520588 0.00011902 -7.53747e-06)
(-3.11442e-07 -6.14767e-07 -0.00039972)
(-7.5013e-06 -1.71441e-06 -3.61903e-09)
(-2.56381e-06 1.39021e-06 -5.62587e-07)
(-9.48045e-07 -9.18589e-07 -8.94323e-07)
(-0.000141373 -0.000495433 -3.80826e-05)
(-0.000117518 -0.000283711 -0.00072538)
(6.97384e-12 -1.33864e-12 -2.01043e-11)
(1.48584e-05 -2.96084e-06 -1.35034e-06)
(-2.36175e-06 -1.42824e-06 8.21453e-07)
(-1.27959e-06 -8.57694e-07 -0.00039972)
(0.000459961 -4.82889e-05 -6.73839e-06)
(0.000900573 0.000167894 -7.53747e-06)
(-0.000451507 0.000103 -1.79658e-06)
(-0.000127147 -0.00049868 -0.00072538)
(-0.000127362 -0.000498631 -0.00072538)
(4.71646e-06 -1.07635e-06 -5.79634e-08)
(2.16617e-07 -2.21714e-07 -0.000303763)
(9.3304e-05 2.14949e-05 -7.53747e-06)
(-0.000141373 -0.000495433 -0.00031541)
(-0.000122911 -0.000470991 -1.72951e-06)
(0.000384286 8.79096e-05 -7.53747e-06)
(0.000140033 -4.85046e-05 -1.35034e-06)
(-8.29898e-07 -1.0786e-06 -2.27639e-06)
(-2.36175e-06 -1.42824e-06 1.10756e-07)
(-2.36175e-06 -1.42824e-06 1.71838e-07)
(-0.000141373 -0.000495433 -0.000266625)
(-0.000101176 -0.000475952 -4.3179e-07)
(1.55371e-06 1.0845e-06 -5.7433e-06)
(-5.20954e-06 -2.07823e-06 -2.27639e-06)
(-0.000122049 -0.000499843 -0.00072538)
(-0.000141373 -0.000495433 -0.000383411)
(-0.000102992 -0.00029421 -4.3179e-07)
(-0.000122911 -0.000470991 -1.26628e-06)
(0.000440556 0.000350702 -5.78347e-06)
(0.000440556 0.000350702 -6.54037e-06)
(-0.000141373 -0.000495433 -0.000164451)
(-0.000113057 -0.00047324 -4.3179e-07)
(-0.000141373 -0.000495433 -0.000326898)
(5.82643e-08 1.91061e-06 -1.1787e-07)
(0.000127182 9.76484e-07 -6.73839e-06)
(-2.36175e-06 -1.42824e-06 -5.08066e-07)
(7.37641e-05 9.76484e-07 -6.73839e-06)
(3.23416e-06 1.38685e-06 -6.13457e-06)
(-0.000352842 8.048e-05 -1.79658e-06)
(-0.000141373 -0.000495433 -0.000330113)
(6.67343e-06 1.35783e-05 -7.20145e-06)
(6.9637e-05 5.49039e-05 -4.02125e-06)
(-2.36175e-06 -1.42824e-06 2.10588e-07)
(-0.000119527 -0.000471764 -4.3179e-07)
(0.000203162 0.000161387 -4.02125e-06)
(-0.000109107 -0.000474142 -4.3179e-07)
(4.71646e-06 -1.07635e-06 -9.89928e-08)
(3.66266e-06 8.7935e-06 -7.20145e-06)
(7.63864e-06 1.62086e-05 -3.73707e-06)
(1.95815e-06 7.9402e-07 -1.16079e-06)
(-3.10812e-05 7.04015e-06 -1.79658e-06)
(-0.000141373 -0.000495433 -0.000218239)
(2.20845e-05 3.04611e-06 6.73957e-07)
(0.000421751 0.000369506 -4.02125e-06)
(-0.000276722 6.31061e-05 -1.79658e-06)
(-1.78519e-07 3.98892e-12 -2.32755e-06)
(-2.87555e-11 -2.93258e-10 -1.25442e-06)
(-0.000420292 9.58751e-05 -1.79658e-06)
(9.46243e-06 -2.15958e-06 -2.26497e-07)
(-0.000114548 -0.0004729 -4.3179e-07)
(-0.000117836 -0.000472149 -4.3179e-07)
(-0.000141373 -0.000495433 -0.000163557)
(2.10323e-08 1.87464e-06 -4.93449e-07)
(5.46626e-05 1.26752e-05 -7.53747e-06)
(-0.000141373 -0.000495433 -1.61668e-05)
(-0.000122911 -0.000470991 8.83711e-07)
(1.60583e-06 -4.52986e-07 -4.04586e-06)
(3.7435e-08 1.87464e-06 -4.93449e-07)
(1.28902e-06 9.46746e-07 -1.16079e-06)
(6.87532e-06 1.39976e-05 -7.20145e-06)
(-0.00011384 -0.000473062 -4.3179e-07)
(-0.000112912 -0.000473273 -4.3179e-07)
(2.4263e-08 1.87464e-06 -4.93449e-07)
(0.000408843 0.000385157 -0.000307621)
(1.03218e-07 4.05591e-06 -1.0509e-05)
(1.03218e-07 4.05591e-06 -1.1104e-05)
(0.000140124 -4.82439e-05 -1.35034e-06)
(2.11443e-07 3.39253e-07 -0.000266269)
(-6.08197e-07 -6.78031e-06 1.70569e-06)
(-2.36175e-06 -1.42824e-06 -7.56316e-07)
(-1.11093e-05 2.44916e-06 1.70569e-06)
(-8.13922e-07 3.06814e-08 -2.32755e-06)
(-0.000115132 -0.000472767 -4.3179e-07)
(1.60583e-06 -4.52986e-07 -4.44947e-06)
(-0.000115155 -0.000472762 -4.3179e-07)
(-0.000115574 -0.000501321 -0.00072538)
(3.608e-08 1.87464e-06 -4.93449e-07)
(4.26728e-06 8.58193e-06 -1.34363e-05)
(0.000176113 4.03954e-05 -7.53747e-06)
(0.000906617 0.000114251 -7.53747e-06)
(0.000164242 9.76484e-07 -6.73839e-06)
(7.67085e-06 1.56495e-05 -7.20145e-06)
(-7.41157e-05 1.68625e-05 -1.79658e-06)
(2.14224e-06 4.3078e-06 1.70569e-06)
(-9.36547e-06 2.05114e-06 1.70569e-06)
(1.60583e-06 -4.52986e-07 -2.47729e-06)
(1.60583e-06 -4.52986e-07 -4.04442e-06)
(-0.00011964 -0.000500393 -0.00072538)
(-0.000141373 -0.000495433 -1.7914e-05)
(-0.000109829 -0.000473977 -4.3179e-07)
(-0.000122911 -0.000470991 2.11144e-06)
(1.60583e-06 -4.52986e-07 -3.58576e-06)
(1.60583e-06 -4.52986e-07 -3.67764e-06)
(-0.000116636 -0.000501079 -0.00072538)
(2.42287e-05 3.53552e-06 6.73957e-07)
(3.61388e-06 8.81057e-06 -7.20145e-06)
(-2.38343e-06 -1.23584e-06 -2.27639e-06)
(-0.0011994 -9.59368e-07 -4.45187e-06)
(-0.000331933 7.57077e-05 -1.79658e-06)
(-8.25262e-06 1.79714e-06 1.70569e-06)
(1.60583e-06 -4.52986e-07 -3.51522e-06)
(1.60583e-06 -4.52986e-07 -4.1926e-06)
(-0.000141373 -0.000495433 -4.92281e-05)
(-0.000122911 -0.000470991 1.91051e-06)
(1.60583e-06 -4.52986e-07 -3.53003e-06)
(8.19053e-08 1.91061e-06 -2.10369e-07)
(1.02411e-06 9.63345e-07 -5.7433e-06)
(0.000162931 3.71878e-05 -0.000372993)
(2.5536e-05 1.16826e-05 -0.000349998)
(1.60583e-06 -4.52986e-07 -4.0796e-06)
(-0.000122911 -0.000470991 2.30651e-06)
(1.60583e-06 -4.52986e-07 -3.90458e-06)
(1.31255e-06 7.82106e-07 -9.54122e-06)
(8.54492e-07 -2.82648e-07 -3.2632e-07)
(1.31255e-06 7.82106e-07 -1.07497e-05)
(1.79227e-06 2.92208e-06 -5.565e-06)
(4.26728e-06 8.58193e-06 -1.21997e-05)
(-4.4375e-06 -2.57701e-06 -4.90785e-08)
(-3.90727e-05 8.86415e-06 -1.79658e-06)
(-7.03463e-06 1.51914e-06 1.70569e-06)
(1.60583e-06 -4.52986e-07 -2.84938e-06)
(1.99604e-07 -2.4879e-07 -0.000234532)
(0.000559706 0.000268925 -8.76884e-05)
(-1.82086e-06 -1.34166e-06 -0.00039972)
(-1.23156e-05 2.72448e-06 1.70569e-06)
(-0.000226163 5.15663e-05 -1.79658e-06)
(1.60583e-06 -4.52986e-07 -4.24144e-06)
(0.000458157 0.000326128 -0.000307621)
(0.000559706 0.000268925 -1.23116e-05)
(-1.27792e-05 2.83031e-06 1.70569e-06)
(-0.000122911 -0.000470991 3.223e-06)
(1.60583e-06 -4.52986e-07 -2.77523e-06)
(-2.24877e-06 -1.75113e-06 -2.27639e-06)
(0.000878398 -0.000195246 -2.35297e-06)
(0.000465512 9.76484e-07 -1.14617e-05)
(1.57703e-06 8.81009e-07 -1.16079e-06)
(1.21575e-06 -1.19387e-06 -1.90603e-05)
(-8.17378e-07 3.98892e-12 -3.28494e-06)
(-8.17378e-07 3.98892e-12 -3.37025e-06)
(9.72455e-06 -2.21941e-06 -2.26497e-07)
(6.41465e-06 -5.30431e-07 -1.13345e-05)
(1.31255e-06 7.82106e-07 -1.08969e-05)
(4.30812e-06 8.59998e-07 -6.13457e-06)
(-0.0011994 -9.59368e-07 -3.94973e-06)
(-5.54135e-06 1.17831e-06 1.70569e-06)
(1.60583e-06 -4.52986e-07 -2.76226e-06)
(1.60583e-06 -4.52986e-07 -3.65308e-06)
(-0.000116256 -0.000501166 -0.00072538)
(3.4365e-06 5.18918e-06 -1.17737e-05)
(1.66613e-05 -2.64039e-05 -1.90603e-05)
(-8.17378e-07 3.98892e-12 -4.5987e-06)
(1.60583e-06 -4.52986e-07 -3.60603e-06)
(1.60583e-06 -4.52986e-07 -3.03216e-06)
(-4.48168e-05 1.01752e-05 -1.79658e-06)
(-8.30469e-06 1.80903e-06 1.70569e-06)
(-0.000117932 -0.000500783 -0.00072538)
(-0.000122911 -0.000470991 3.49572e-06)
(8.19053e-08 1.91061e-06 -2.29296e-07)
(-0.000115171 -0.000501413 -0.00072538)
(-0.00010977 -0.000473991 -4.3179e-07)
(1.40605e-05 -1.73007e-05 -1.90603e-05)
(6.71809e-07 -8.18795e-07 -2.32793e-06)
(1.08024e-06 -4.55985e-07 -0.000266269)
(1.53911e-05 -1.89692e-05 -1.90603e-05)
(-1.30286e-07 -5.46539e-08 -0.000234532)
(-0.0011994 -9.59368e-07 -4.38121e-06)
(-8.17378e-07 3.98892e-12 -3.80201e-06)
(1.60583e-06 -4.52986e-07 -2.88117e-06)
(-1.09968e-05 2.42347e-06 1.70569e-06)
(1.21288e-05 5.64798e-06 5.18658e-07)
(-9.72772e-07 -1.11121e-06 -2.27639e-06)
(2.11504e-06 -6.09237e-07 -1.16079e-06)
(7.22325e-05 -0.000161795 2.85662e-06)
(-0.000133925 3.05135e-05 -1.79658e-06)
(6.77637e-06 4.33875e-06 5.18658e-07)
(-4.48392e-05 0.000543325 -0.000310965)
(8.54492e-07 -2.82648e-07 -3.88344e-07)
(1.91512e-06 8.59998e-07 -6.13457e-06)
(-8.17378e-07 3.98892e-12 -3.69449e-06)
(0.000346108 -0.000224305 4.74562e-06)
(-0.000122911 -0.000470991 3.01124e-06)
(0.000679413 0.000108292 -0.000372993)
(0.00165774 -0.000373126 -1.20931e-09)
(1.31255e-06 7.82106e-07 -1.07947e-05)
(8.54492e-07 -2.82648e-07 -3.98428e-07)
(1.17633e-06 9.72465e-07 -1.16079e-06)
(0.000440556 0.000350702 -6.5561e-06)
(3.12175e-07 4.39986e-07 -0.000266269)
(1.83277e-05 -2.53569e-05 -1.90603e-05)
(-6.83661e-06 1.47395e-06 1.70569e-06)
(-0.000122911 -0.000470991 2.9602e-06)
(0.000896415 0.0002048 -1.22536e-05)
(0.000145533 -3.27864e-05 -2.15839e-06)
(-6.79335e-07 -6.26259e-08 -0.000197575)
(1.68051e-05 -2.63135e-05 -1.90603e-05)
(-0.000240589 -9.59368e-07 -6.34293e-11)
(1.60583e-06 -4.52986e-07 -3.39476e-06)
(-0.000122911 -0.000470991 2.60675e-06)
(1.12204e-05 1.31379e-05 -3.90983e-12)
(1.31255e-06 7.82106e-07 -1.0966e-05)
(-2.3285e-07 3.7107e-08 -0.000197575)
(-7.68126e-07 -1.09851e-06 -1.80026e-06)
(1.66631e-05 -2.64028e-05 -1.90603e-05)
(-0.000908864 0.000208877 -2.47011e-06)
(-3.0813e-07 -1.22466e-07 -0.000142718)
(-8.17378e-07 3.98892e-12 -3.75316e-06)
(1.60583e-06 -4.52986e-07 -2.60379e-06)
(-8.17378e-07 3.98892e-12 -3.62226e-06)
(-0.000208803 4.7604e-05 -1.79658e-06)
(-0.000296181 6.75475e-05 -1.79658e-06)
(-0.000183035 3.54841e-06 -3.89171e-07)
(2.16617e-07 -2.21714e-07 -0.000111419)
(2.38254e-05 -5.00748e-06 -1.35034e-06)
(-6.74609e-08 8.4594e-08 -5.16619e-07)
(-1.04174e-07 -5.33989e-06 1.70569e-06)
(-3.29604e-06 -1.64149e-06 -2.27639e-06)
(-0.00015629 -9.59368e-07 -6.34293e-11)
(-0.000189256 -9.59368e-07 -6.34293e-11)
(-8.17378e-07 3.98892e-12 -4.62458e-06)
(2.31677e-06 5.85678e-06 1.70569e-06)
(-2.40443e-06 -2.11298e-06 -2.24496e-08)
(1.50711e-05 -3.52635e-06 1.70569e-06)
(-6.46309e-09 -2.19593e-08 -2.77e-06)
(0.000264041 6.02656e-05 -0.000372993)
(0.00017926 4.09148e-05 -0.000372993)
(6.41465e-06 -5.30431e-07 -1.06857e-05)
(3.66372e-06 -1.11776e-06 -0.000408731)
(-5.80355e-07 -5.14735e-08 -0.000197575)
(-0.0011994 -9.59368e-07 -2.85283e-06)
(-0.000237717 -9.59368e-07 -6.34293e-11)
(1.60583e-06 -4.52986e-07 -3.36967e-06)
(6.49011e-06 2.82297e-07 8.41975e-13)
(-0.000105083 -0.00047506 -4.3179e-07)
(6.32172e-05 9.76484e-07 -6.73839e-06)
(-3.10367e-07 -1.23872e-07 -0.000142718)
(2.29695e-06 -8.93841e-08 -1.16079e-06)
(1.21894e-06 -1.80837e-07 -1.41015e-10)
(7.04871e-05 0.00067014 -0.000375299)
(-6.72745e-05 -0.000139653 -0.000120913)
(-3.09905e-07 -1.23581e-07 -0.000142718)
(-1.12874e-06 1.30562e-06 -0.000266269)
(-1.13867e-06 1.31353e-06 -0.000266269)
(2.38444e-06 -3.55065e-06 -0.000408731)
(0.000346108 -0.000224305 4.24974e-06)
(-0.000122911 -0.000470991 3.9217e-06)
(-0.000122911 -0.000470991 3.73037e-06)
(1.19502e-05 2.61276e-06 -7.27422e-07)
(1.03218e-07 4.05591e-06 -6.94377e-06)
(1.35669e-05 3.48914e-06 7.76124e-07)
(3.4365e-06 5.18918e-06 -8.13819e-06)
(9.24206e-06 3.79285e-05 -0.000331516)
(1.03218e-07 4.05591e-06 -9.09084e-06)
(-3.81595e-05 0.000544078 -0.000310965)
(1.54476e-07 2.82286e-07 -0.000168208)
(-1.08142e-06 1.26788e-06 -0.000266269)
(-0.00016997 8.29167e-05 -0.000133401)
(-0.000863072 0.000196937 -1.4796e-06)
(-6.98131e-06 1.50697e-06 1.70569e-06)
(2.18717e-06 4.70652e-06 1.70569e-06)
(0.000346108 -0.000224305 4.63181e-06)
(-0.000261098 6.10285e-05 -4.46501e-12)
(-0.000908864 0.000208877 -2.40004e-06)
(-0.000122911 -0.000470991 4.06383e-06)
(4.94795e-06 4.6603e-06 -2.35189e-07)
(-1.28832e-05 2.85404e-06 1.70569e-06)
(-6.72745e-05 -0.000139653 -0.000121816)
(-3.00682e-07 -1.17786e-07 -0.000142718)
(-0.000276006 -9.59368e-07 -6.34293e-11)
(3.5123e-05 4.08446e-05 -0.000331516)
(6.71768e-08 -7.27063e-07 -0.000142718)
(-9.53767e-07 1.16608e-06 -0.000266269)
(-9.31103e-08 3.98892e-12 -2.32755e-06)
(-0.000886697 0.000272228 -4.46501e-12)
(-0.00016997 8.29167e-05 -0.000163152)
(-1.46706e-06 -3.23274e-06 2.47159e-07)
(-0.000117917 3.54841e-06 -2.44548e-07)
(9.39886e-09 1.87464e-06 -4.93449e-07)
(-6.68479e-10 -4.11833e-10 -1.25442e-06)
(0.000210116 0.000167562 -0.000307621)
(0.000717001 -0.000573014 -2.09267e-06)
(6.41465e-06 -5.30431e-07 -1.16043e-05)
(3.79801e-06 -1.21532e-06 -6.25722e-06)
(-0.0010375 0.000236803 -1.10864e-06)
(1.92366e-06 8.59998e-07 -6.13457e-06)
(4.13914e-06 3.73536e-05 -0.000331516)
(-5.99221e-05 0.000541626 -0.000310965)
(4.63979e-05 4.2115e-05 -0.000331516)
(-0.000863072 0.000196937 -1.38081e-06)
(5.30446e-07 -2.32403e-06 -5.1686e-07)
(7.44312e-05 0.000669696 -0.000375299)
(6.62446e-05 4.43512e-05 -0.000331516)
(-5.15604e-05 0.000542568 -0.000310965)
(-6.82836e-08 8.56257e-08 -5.16619e-07)
(6.41465e-06 -5.30431e-07 -9.66766e-06)
(6.19549e-06 1.16954e-05 -1.16728e-06)
(1.98564e-07 -2.50445e-07 -0.000234532)
(2.16617e-07 -2.21714e-07 -0.000139416)
(-1.00009e-06 1.20302e-06 -0.000266269)
(-8.13147e-07 1.05394e-06 -0.000266269)
(-0.0011994 -9.59368e-07 -2.58935e-06)
(0.000230814 5.17919e-05 -0.000331516)
(-0.0011994 -9.59368e-07 -4.06421e-06)
(5.0155e-07 -2.19743e-06 -5.1686e-07)
(-7.71674e-05 3.82255e-05 -4.59487e-07)
(-3.11094e-07 -1.24329e-07 -0.000142718)
(2.77026e-07 0.00128469 -0.000375299)
(-6.73634e-07 2.02316e-06 -8.05209e-06)
(1.54476e-07 2.82286e-07 -0.000161315)
(-0.00118832 -9.92876e-05 -6.34293e-11)
(-3.7463e-05 0.000544156 -0.000310965)
(-1.34796e-07 -1.37818e-06 -0.000197575)
(6.73557e-05 4.44764e-05 -0.000331516)
(6.30509e-07 -6.16944e-07 -0.000408731)
(-0.00016997 8.29167e-05 -0.000108759)
(-3.28537e-08 4.11979e-08 -2.77785e-07)
(2.77026e-07 0.00127572 -0.000375299)
(7.77634e-08 1.87464e-06 -9.3152e-07)
(0.000429751 2.82297e-07 -9.29453e-07)
(0.000460564 0.000322297 -0.000307621)
(1.97649e-05 -2.44538e-05 -5.97418e-06)
(1.16994e-05 4.838e-06 -6.25756e-06)
(3.1748e-06 8.59998e-07 -7.33944e-06)
(-0.0010375 0.000236803 -9.18582e-07)
(2.18999e-06 8.59998e-07 -6.13457e-06)
(2.11002e-06 8.59998e-07 -6.13457e-06)
(8.8314e-07 8.59998e-07 -6.13457e-06)
(-2.04623e-05 -4.24465e-05 -8.18611e-05)
(-3.3676e-05 9.12086e-06 -4.46501e-12)
(2.77026e-07 0.000948699 -0.000375299)
(1.06078e-06 -6.65425e-07 -0.000408731)
(2.199e-06 4.81156e-06 1.70569e-06)
(-1.86289e-07 -6.18457e-08 -0.000142718)
(0.000429751 2.82297e-07 -8.92915e-07)
(0.000429751 2.82297e-07 -8.43244e-07)
(1.1896e-05 6.58243e-06 -7.27422e-07)
(2.01758e-07 -2.45363e-07 -0.000234532)
(0.00057951 -0.000726754 -0.0010227)
(-0.00181793 0.00041493 1.2195e-06)
(2.16617e-07 -2.21714e-07 -3.38102e-05)
(3.1748e-06 8.59998e-07 -7.24414e-06)
(1.47631e-06 -7.12243e-07 -0.000408731)
(-0.00118861 9.47798e-05 -6.34293e-11)
(-1.85024e-07 -2.82935e-08 -0.000234532)
(1.90166e-08 -2.14318e-06 -6.09873e-10)
(-4.24691e-06 -2.53352e-06 -4.90785e-08)
(-5.05523e-06 -2.04301e-06 -2.27639e-06)
(1.12158e-06 -6.72275e-07 -0.000408731)
(-0.0011994 -9.59368e-07 -4.4699e-06)
(-6.81839e-10 -2.93258e-10 -2.19735e-06)
(-0.000908864 0.000208877 -1.51452e-06)
(-1.36635e-06 -1.08963e-06 6.94862e-07)
(4.24491e-06 -2.4925e-06 7.76124e-07)
(6.82546e-06 -1.70445e-06 6.73957e-07)
(4.92481e-06 4.6684e-06 -2.35189e-07)
(-5.72412e-07 8.6196e-07 -0.000266269)
(1.03218e-07 4.05591e-06 -5.60457e-06)
(3.1748e-06 8.59998e-07 -7.77687e-06)
(-1.17187e-06 -1.02913e-06 -0.00018747)
(-6.10941e-05 0.000541494 -0.000310965)
(3.1748e-06 8.59998e-07 -7.28966e-06)
(-2.10715e-07 4.48525e-08 -0.000197575)
(8.37793e-05 4.63269e-05 -0.000331516)
(-0.0011994 -9.59368e-07 -4.29773e-06)
(-0.0011994 -9.59368e-07 -4.1707e-06)
(-0.000161806 9.59098e-05 -4.59487e-07)
(-1.7022e-06 -1.98125e-06 -5.00809e-12)
(-0.0011994 -9.59368e-07 -4.33139e-06)
(1.26556e-05 -2.55922e-06 2.28512e-07)
(8.85057e-06 8.55089e-06 6.91672e-07)
(6.41465e-06 -5.30431e-07 -4.6814e-06)
(-4.55332e-09 4.12363e-06 -1.16728e-06)
(1.79227e-06 2.92208e-06 -2.62393e-06)
(-2.36175e-06 -1.42824e-06 -5.54946e-06)
(-0.0010375 0.000236803 -3.64167e-07)
(2.99327e-06 -8.83164e-07 -0.000159561)
(-1.31187e-05 -2.71974e-05 -8.18611e-05)
(0.000230074 5.50326e-05 -0.000331516)
(-1.31744e-05 -2.73131e-05 -8.18611e-05)
(-2.17051e-06 -1.89348e-06 -1.80026e-06)
(1.89423e-06 -7.59332e-07 -0.000408731)
(4.46686e-05 4.19201e-05 -0.000331516)
(-0.00118826 -9.97808e-05 -6.34293e-11)
(1.63226e-07 -7.15141e-07 -5.69633e-07)
(-0.0011994 -9.59368e-07 -3.76726e-06)
(-5.47661e-05 2.74376e-05 -4.59487e-07)
(-1.78257e-06 -2.08203e-06 -5.00809e-12)
(-6.81839e-10 -2.93258e-10 -2.2189e-06)
(-1.19459e-06 1.35813e-06 -0.000266269)
(-1.24055e-05 -6.26658e-06 -5.83293e-06)
(0.00057951 -0.000726754 -0.000930603)
(-1.17187e-06 -1.02913e-06 -0.000238153)
(-0.0010375 0.000236803 -2.52983e-07)
(-5.44236e-05 0.000542245 -0.000310965)
(-3.35006e-06 4.04286e-07 -1.31954e-06)
(1.60583e-06 -4.52986e-07 4.78699e-06)
(-0.0010375 0.000236803 -8.04126e-07)
(-7.61495e-05 3.77353e-05 -4.59487e-07)
(2.36246e-06 -8.12088e-07 -0.000408731)
(-0.0011994 -9.59368e-07 -3.88437e-06)
(4.12467e-07 -3.45774e-07 -2.89228e-06)
(-6.697e-07 6.85154e-07 -4.8632e-10)
(-4.78532e-05 3.54841e-06 -3.89171e-07)
(0.000426973 -2.43712e-05 8.41975e-13)
(-3.72947e-07 1.86863e-07 -0.000142718)
(-3.94304e-07 8.18779e-07 -1.91699e-10)
(6.41465e-06 -5.30431e-07 -6.63654e-06)
(-8.14179e-06 -3.85284e-06 6.73957e-07)
(-9.85005e-06 -5.68332e-06 5.90568e-07)
(-6.25382e-06 -3.42193e-06 6.73957e-07)
(1.17852e-05 5.59931e-06 -7.27422e-07)
(-9.48045e-07 -9.18589e-07 -2.61584e-06)
(2.77026e-07 7.47969e-05 -0.000375299)
(-9.48045e-07 -9.18589e-07 -2.47609e-06)
(-0.0010375 0.000236803 -4.35771e-07)
(-8.40356e-06 -1.74063e-05 -8.18611e-05)
(0.000230518 5.30877e-05 -0.000331516)
(1.45828e-06 8.59998e-07 -6.13457e-06)
(-2.52774e-06 -2.17836e-06 -1.80026e-06)
(3.55044e-06 4.30591e-07 -1.16079e-06)
(-1.36635e-06 -1.08963e-06 6.6431e-07)
(5.20118e-05 2.82297e-07 8.41975e-13)
(-6.28797e-08 7.88493e-08 -5.16619e-07)
(0.000429751 2.82297e-07 -8.32907e-07)
(0.000674274 0.000153899 -0.000208058)
(5.3454e-06 9.15305e-06 -2.35189e-07)
(6.41465e-06 -5.30431e-07 -7.27409e-06)
(-1.17187e-06 -1.02913e-06 -0.000142654)
(1.79227e-06 2.92208e-06 -3.51967e-06)
(-1.97854e-07 -6.40026e-08 8.46465e-07)
(2.77026e-07 0.00114213 -0.000375299)
(5.38322e-05 0.000542352 -0.000310965)
(-5.38783e-05 0.000542307 -0.000310965)
(-9.48045e-07 -9.18589e-07 -2.47294e-06)
(3.1748e-06 8.59998e-07 -8.80691e-06)
(0.00057951 -0.000726754 -0.000835067)
(1.60583e-06 -4.52986e-07 6.12367e-06)
(3.48052e-06 1.25162e-06 -0.000408731)
(-6.15978e-07 1.79243e-07 -0.000234532)
(3.55066e-06 1.55893e-06 -0.000408731)
(-4.05233e-06 -2.4891e-06 -4.90785e-08)
(-0.000162841 9.42622e-05 -4.59487e-07)
(1.54476e-07 2.82286e-07 -0.000123168)
(-0.000493788 -9.59368e-07 -6.34293e-11)
(0.000652646 -0.000637368 1.70712e-12)
(2.99327e-06 -8.83164e-07 -6.52663e-05)
(1.9787e-06 -2.06176e-06 -2.38357e-06)
(2.55815e-06 6.57075e-07 -1.33333e-06)
(-0.0010375 0.000236803 -7.52726e-07)
(-7.0689e-06 -1.43319e-05 -3.73707e-06)
(3.78395e-06 3.77293e-07 -1.16079e-06)
(-2.33607e-06 -2.71974e-06 -4.90785e-08)
(-4.75061e-05 0.000672667 -0.000375299)
(-6.08936e-07 -5.46938e-08 -0.000197575)
(0.000346108 -0.000224305 4.12332e-06)
(-6.53098e-08 3.16329e-07 -3.71146e-08)
(0.000225237 5.14089e-05 -0.000372993)
(0.000681182 9.25952e-05 -0.000372993)
(5.22506e-06 4.56334e-06 -2.35189e-07)
(-9.11774e-06 -4.0756e-06 6.73957e-07)
(2.73635e-08 4.10357e-06 -1.16728e-06)
(2.54219e-06 -1.86459e-06 -8.68348e-07)
(-0.00203275 0.000463962 1.2195e-06)
(-8.72599e-07 3.02825e-07 -0.000234532)
(-4.41186e-07 -3.5793e-08 -5.15238e-05)
(1.9787e-06 -2.06176e-06 -2.34675e-06)
(3.70465e-06 2.23358e-06 -0.000408731)
(1.35168e-06 -6.98201e-07 -0.000408731)
(3.6703e-06 -4.27177e-06 -1.90603e-05)
(-2.20689e-06 -1.75994e-06 4.82617e-07)
(1.84802e-05 -2.5261e-05 -1.90603e-05)
(1.04672e-05 1.97886e-05 -2.35189e-07)
(8.16162e-06 1.41608e-05 -1.16728e-06)
(-8.54113e-06 -3.94399e-06 6.73957e-07)
(6.63183e-08 4.0791e-06 -1.16728e-06)
(-9.48045e-07 -9.18589e-07 -2.77987e-06)
(-2.56381e-06 1.39021e-06 -2.57428e-06)
(-0.00173026 0.000394921 1.2195e-06)
(3.1748e-06 8.59998e-07 -7.86952e-06)
(-4.96832e-07 4.44112e-07 -0.000142718)
(-1.39686e-07 -1.64545e-06 -9.6285e-10)
(-0.000241892 0.000117552 -4.59487e-07)
(2.77026e-07 0.00100293 -0.000375299)
(2.77026e-07 0.000287583 -0.000375299)
(-2.01965e-07 -6.73311e-08 -0.000142718)
(-1.03924e-06 9.89052e-07 -4.8632e-10)
(-0.00128221 0.000294092 -4.46501e-12)
(0.000360552 -9.6114e-05 2.85662e-06)
(-2.40443e-06 -2.11298e-06 -4.41459e-08)
(6.85582e-06 -1.79121e-06 6.73957e-07)