/*--------------------------------*- C++ -*----------------------------------*\
| =========                 |                                                 |
| \\      /  F ield         | OpenFOAM: The Open Source CFD Toolbox           |
|  \\    /   O peration     | Version:  plus.master.MPPICInterFoam            |
|   \\  /    A nd           | Web:      www.OpenFOAM.com                      |
|    \\/     M anipulation  |                                                 |
\*---------------------------------------------------------------------------*/
FoamFile
{
    version     2.0;
    format      ascii;
    class       volScalarField;
    location    "8.8";
    object      p_rgh;
}
// * * * * * * * * * * * * * * * * * * * * * * * * * * * * * * * * * * * * * //

dimensions      [1 -1 -2 0 0 0 0];

internalField   nonuniform List<scalar> 
11822
(
5662.93
5631.27
5641.13
5682.5
5683.97
5726.43
5726.01
5048.97
4542.51
4443.63
4905.96
5558.93
5678.06
5726.36
3962.07
3605.1
2753.4
3662.87
5100.9
5666.05
5726.56
3298.53
2450.24
2465.05
3754.59
5029.21
5666.59
5726.61
3876.78
3657.18
3654.14
3703.96
4930.97
5647.3
5726.52
4935.18
4197.5
4233.03
4578.04
5412.36
5666.05
5726.33
5640.1
5577.48
5540.23
5629.47
5657.3
5726.39
5726.02
5587.76
5575.44
5589.06
5576.78
5643.75
5727.43
5727.23
4987.41
4323.21
4219.73
4862.51
5403.59
5644.71
5727.52
3791.79
3329.49
2637.41
3147.84
5037.5
5517.15
5727.67
3394.47
2386.86
2388.17
3586.45
4922.06
5556.18
5727.72
3646.03
2619.45
2570.14
2997.97
4796.23
5495.83
5727.61
4857.69
3957.82
3916.86
4446.35
5262.52
5619.4
5727.43
5584.68
5535.17
5500.09
5557.89
5590.48
5727.37
5727.17
5454.62
5339.6
5321.47
5247.14
5594.81
5727.46
5727.63
4739.03
4153.84
4171.24
4713.15
4622.41
5612.37
5727.81
3626.38
2387.49
2924.44
2898.57
4782.76
5275.03
5727.92
4048.35
3070.97
2876.91
2903.16
4713.1
5243.13
5727.96
3384.07
1981.94
1983.53
2472.22
4503.89
5246.63
5727.91
4653.03
3727.47
3632.16
4264.27
4602.66
5577.67
5727.76
5439.23
5338.31
5294.02
5234.39
5499.07
5727.44
5727.62
5266.16
4818.63
4693.67
4836.19
5487.72
5720.71
5727.66
4024.14
3749.87
3943.61
3986.53
3878.69
5533.72
5727.2
3356.47
1887.39
2840.22
2819.74
3868.88
5061.71
5726.9
3880.87
3666.47
3574.79
1907.82
4025.49
4855.98
5726.76
3069.97
1886.66
1894.2
2275.54
3751.58
5005.49
5726.93
4084.69
3360.86
3214.58
3700.1
3784.43
5499.98
5727.21
5177.42
4761.06
4641.76
4605.99
5347.12
5720.38
5727.67
5015.62
4357.83
4250.72
4614.21
5335.07
5705.21
5729.83
3083.91
2670.03
2938.07
2659.85
3783.42
5413.8
5729.34
2613.54
1813.94
2053.63
2509.57
2664.87
4891.59
5729.05
2120.7
3600.73
3551.57
1795.33
2634.9
4627.55
5728.98
2387.76
1812.87
1821.49
2072.16
2699.61
4823.41
5729.14
3074.28
2446.15
2243.36
2519.58
3555.32
5381
5729.4
4827.75
4009.14
3860.14
4174.16
5150.63
5701.94
5729.83
4975.61
4386.75
4327.27
4653.68
5280.02
5702.37
5740.45
2916.82
1956.35
1995.7
2375.26
3829.2
5355.29
5739.91
1824.36
1756.98
1684.75
1755.02
2537.12
4830.88
5739.58
1680.76
3283.18
3504.55
1732.36
2175.2
4612.11
5739.35
1780.87
1752.06
1780.61
1725.54
2511.63
4762.21
5739.52
2696.67
1793.93
1784.16
2098.32
3576.3
5315.01
5739.79
4724.09
3928.43
3812.13
4220.03
5074.21
5695.05
5740.22
5725.65
5725.3
5725
5724.5
5724.48
5723.59
5722.83
5721.65
5725.98
5725.59
5725.22
5724.9
5724.65
5724.45
5724.32
5724.25
5726.16
5725.73
5725.32
5724.96
5724.67
5724.46
5724.31
5724.24
5726.21
5725.77
5725.35
5724.99
5724.69
5724.47
5724.32
5724.24
5726.15
5725.72
5725.31
5724.96
5724.68
5724.46
5724.31
5724.23
5725.99
5725.59
5725.22
5724.92
5724.66
5724.46
5724.32
5724.23
5725.69
5725.32
5725.03
5724.8
5724.53
5724.46
5724.32
5724.24
5727.1
5726.94
5726.83
5726.36
5726.66
5723.35
5725.08
5724.07
5727.47
5727.34
5727.18
5727.01
5726.87
5726.74
5726.63
5726.56
5727.65
5727.49
5727.29
5727.09
5726.93
5726.79
5726.67
5726.6
5727.69
5727.51
5727.3
5727.11
5726.95
5726.81
5726.69
5726.61
5727.61
5727.44
5727.26
5727.09
5726.93
5726.79
5726.67
5726.59
5727.41
5727.28
5727.14
5727
5726.87
5726.72
5726.61
5726.53
5727.05
5726.89
5726.81
5726.76
5726.63
5726.63
5726.48
5726.44
5727.84
5727.97
5728.12
5727.96
5728.38
5723.2
5727.28
5725.95
5728.17
5728.39
5728.54
5728.61
5728.66
5728.67
5728.66
5728.64
5728.36
5728.55
5728.66
5728.71
5728.74
5728.75
5728.74
5728.73
5728.4
5728.57
5728.68
5728.73
5728.77
5728.78
5728.77
5728.76
5728.34
5728.52
5728.63
5728.7
5728.74
5728.75
5728.74
5728.72
5728.14
5728.35
5728.49
5728.59
5728.64
5728.64
5728.63
5728.62
5727.81
5727.91
5728.08
5728.27
5728.35
5728.36
5728.37
5728.42
5728.67
5729.35
5729.91
5730.36
5730.85
5726.52
5730.6
5728.89
5728.66
5729.61
5730.29
5730.77
5731.1
5731.31
5731.4
5731.46
5728.61
5729.63
5730.33
5730.83
5731.17
5731.39
5731.51
5731.58
5728.57
5729.6
5730.32
5730.82
5731.18
5731.42
5731.55
5731.63
5728.62
5729.61
5730.31
5730.8
5731.16
5731.4
5731.52
5731.59
5728.66
5729.57
5730.24
5730.73
5731.08
5731.29
5731.39
5731.44
5728.67
5729.31
5729.91
5730.44
5730.82
5730.69
5731.06
5731.14
5730.77
5731.51
5732.1
5732.65
5733.25
5731.77
5734.28
5732.96
5730.77
5731.78
5732.55
5733.12
5733.58
5734.04
5734.57
5734.94
5730.73
5731.81
5732.61
5733.22
5733.7
5734.18
5734.74
5735.12
5730.69
5731.79
5732.61
5733.23
5733.73
5734.22
5734.79
5735.18
5730.74
5731.78
5732.58
5733.19
5733.69
5734.17
5734.72
5735.1
5730.75
5731.72
5732.48
5733.06
5733.53
5733.99
5734.51
5734.87
5730.76
5731.46
5732.11
5732.68
5733.18
5733.31
5734.08
5734.44
5741.45
5742.23
5742.8
5743.38
5744.05
5744.76
5742.16
5743.75
5741.02
5741.88
5742.62
5743.3
5743.99
5744.68
5745.39
5746.09
5740.8
5741.68
5742.47
5743.22
5743.94
5744.68
5745.49
5746.25
5740.66
5741.56
5742.38
5743.15
5743.9
5744.65
5745.49
5746.28
5740.73
5741.62
5742.43
5743.19
5743.93
5744.68
5745.49
5746.24
5740.89
5741.75
5742.53
5743.26
5743.96
5744.67
5745.43
5746.09
5741.28
5742.08
5742.76
5743.39
5744.05
5744.49
5745.22
5745.83
5726.2
5726.15
5725.87
5725.58
5725.31
5725.07
5724.88
5724.76
5657.13
5726.16
5726
5725.75
5725.48
5725.22
5725
5724.85
5387.63
5726.26
5726.22
5725.99
5725.7
5725.3
5725.07
5724.96
5249.28
5726.53
5726.44
5726.17
5725.85
5725.5
5723.19
5724.87
5426.76
5726.54
5726.37
5726.07
5725.75
5725.42
5724.33
5724.93
5659.16
5726.34
5726.1
5725.81
5725.52
5725.25
5725.03
5724.88
5724.13
5726.26
5725.92
5725.61
5725.34
5725.11
5724.93
5724.82
5725.91
5727
5726.8
5726.63
5726.47
5726.29
5726.1
5725.95
5624.54
5727.04
5726.92
5726.75
5726.56
5726.32
5726.08
5725.88
5343.02
5727.29
5727.17
5726.96
5726.69
5726.3
5726
5725.87
5215.72
5726.18
5727.33
5727.06
5726.76
5726.45
5722.87
5725.74
5395.25
5727.43
5727.24
5726.99
5726.72
5726.38
5724.33
5725.87
5618.71
5727.18
5727.02
5726.82
5726.6
5726.37
5726.13
5725.95
5722.34
5727.05
5726.83
5726.65
5726.5
5726.33
5726.16
5726.03
5720.33
5726.96
5726.96
5727.03
5727.07
5727.01
5726.89
5726.75
5501.91
5726.93
5727.08
5727.09
5727.04
5726.9
5726.69
5726.51
5186.6
5708.69
5727.35
5727.23
5727.05
5726.73
5726.45
5726.34
5119.24
5684.51
5727.38
5727.23
5726.98
5724.53
5723.21
5726.23
5248.1
5708.25
5727.19
5727.15
5727.03
5726.55
5724.87
5726.37
5480.48
5726.8
5727.02
5727.07
5727.04
5726.92
5726.71
5726.56
5714.03
5727.03
5727.04
5727.08
5727.1
5727.05
5726.93
5726.81
5698.79
5725.66
5726.53
5727.19
5727.64
5727.86
5727.88
5727.83
5205.76
5724
5725.62
5726.54
5727.08
5727.33
5727.36
5727.3
4624.71
5629.07
5724.9
5726.01
5726.61
5726.79
5726.8
5726.88
4632.93
5517.33
5724.45
5725.72
5726.29
5720.5
5723.47
5726.73
4652.68
5625.59
5724.74
5725.94
5726.56
5725.24
5725.55
5726.89
5183.52
5723.86
5725.55
5726.51
5727.07
5727.32
5727.3
5727.3
5687.03
5725.79
5726.65
5727.24
5727.64
5727.84
5727.87
5727.83
5653.49
5727.27
5728.1
5728.72
5729.19
5729.59
5729.99
5730.27
4795.01
5725.67
5727.06
5727.94
5728.51
5728.94
5729.36
5729.66
3550.17
5447.1
5726.05
5727.15
5727.83
5728.17
5728.62
5729.12
3394.74
5181.65
5725.35
5726.67
5727.43
5721.69
5725.73
5728.89
3553.35
5437.02
5725.89
5727.05
5727.77
5724.01
5727.62
5729.09
4824.61
5707.78
5726.93
5727.83
5728.41
5728.83
5729.2
5729.58
5633.83
5727.11
5727.98
5728.59
5729.05
5729.46
5729.88
5730.19
5643.38
5737.34
5737.76
5738.05
5738.22
5738.31
5738.38
5738.48
4722.67
5736.65
5736.96
5737.16
5737.26
5737.25
5737.23
5737.3
3248.25
5414.3
5736.35
5736.47
5736.51
5736.2
5736.17
5736.46
2744.46
5103.19
5735.8
5736.02
5736.08
5729.58
5732.95
5736.09
3283.87
5406.59
5736.37
5736.46
5736.46
5732.26
5735.38
5736.4
4810.91
5715.74
5736.88
5737.07
5737.13
5737.1
5737.02
5737.16
5635.03
5737.28
5737.65
5737.9
5738.06
5738.15
5738.25
5738.41
5726.43
5726.06
5725.75
5725.47
5725.22
5724.94
5724.67
5724.64
5726.78
5726.37
5725.98
5725.61
5725.28
5724.71
5711.57
5718.57
5726.86
5726.46
5726.04
5725.62
5724.6
5724.45
5711.5
5712.01
5726.73
5726.36
5725.9
5725.55
5725.21
5724.82
5714.41
5721.95
5726.52
5726.14
5725.74
5724.78
5710.05
5722.29
5720.08
5723.92
5726.18
5725.82
5725.46
5724.45
5708.85
5722.19
5709.02
5712.01
5725.81
5725.48
5725.15
5724.08
5724.17
5719.13
5708.9
5708.82
5727.07
5726.89
5726.76
5726.65
5726.52
5726.32
5725.96
5724.4
5727.5
5727.39
5727.21
5727
5726.77
5725.71
5714.38
5712.66
5727.67
5727.57
5727.35
5727.1
5726.58
5725.8
5712.87
5712.71
5727.63
5727.54
5727.33
5727.09
5726.87
5726.63
5723.62
5722.87
5727.61
5727.46
5727.25
5726.65
5718.97
5724.64
5710.76
5725.83
5727.44
5727.28
5727.11
5726.37
5724.86
5723.15
5710.79
5721.29
5727.26
5727.06
5726.87
5725.97
5726.59
5717.38
5714.1
5710.66
5726.7
5726.88
5727.05
5727.19
5727.26
5727.23
5726.72
5722.95
5727.06
5727.46
5727.63
5727.69
5727.66
5725.7
5721
5713.51
5727.3
5727.72
5727.86
5727.89
5727.84
5726.79
5713.84
5713.73
5727.48
5727.82
5727.94
5727.97
5727.98
5727.93
5726.59
5723.69
5727.72
5727.92
5728.05
5728.07
5728.12
5727.46
5716.54
5727.43
5727.84
5727.99
5728.11
5727.53
5728.14
5721.38
5712.19
5723.48
5727.95
5727.99
5728.08
5727.42
5728.03
5717.84
5723.02
5712.24
5724.53
5725.89
5726.87
5727.58
5728.04
5728.22
5727.87
5724.4
5724.5
5726.32
5727.44
5728.16
5728.55
5726.73
5727.34
5714.74
5724.98
5726.75
5727.83
5728.49
5728.94
5728.06
5716
5715.17
5725.87
5727.34
5728.28
5728.86
5729.32
5725.69
5728.42
5726.39
5726.86
5728.03
5728.86
5729.37
5729.81
5730.03
5728.86
5729.57
5727.83
5728.72
5729.39
5729.2
5730.12
5719.86
5725.29
5720.32
5728.69
5729.26
5729.79
5730
5730.32
5720.11
5729.51
5714.56
5726.1
5727.4
5728.33
5729.05
5729.59
5729.7
5730.17
5728.83
5726.08
5727.79
5728.94
5729.72
5730.26
5729.26
5730.86
5717.88
5726.65
5728.31
5729.47
5730.23
5730.86
5728.23
5726.02
5720.85
5727.66
5729.11
5730.15
5730.86
5731.46
5726.58
5730.74
5731.46
5728.73
5729.97
5730.89
5731.37
5732.08
5728.69
5732.3
5732.85
5729.83
5730.8
5731.56
5731.78
5731.97
5722.28
5732.02
5718.9
5730.75
5731.37
5731.96
5732.5
5732.63
5723.27
5731.95
5717.63
5737.22
5737.86
5738.28
5738.61
5738.85
5738.67
5738.38
5738.88
5737.23
5738.06
5738.63
5739.05
5739.36
5739.46
5738.63
5733.05
5737.75
5738.59
5739.2
5739.63
5740.06
5736.55
5735.72
5737.43
5738.45
5739.28
5739.92
5740.41
5740.86
5736.21
5736.62
5739.71
5739.18
5740.06
5740.71
5741.1
5741.73
5736.38
5740.42
5737.84
5740.19
5740.97
5741.58
5742.12
5742.33
5732.21
5740.32
5728.48
5741.34
5741.98
5742.52
5743.09
5743.41
5739.09
5739.61
5729.06
5725.87
5725.55
5725.22
5724.92
5724.28
5724.39
5723.95
5724.29
5726.19
5725.87
5725.52
5725.16
5724.64
5722.78
5722.52
5721.41
5726.49
5726.18
5725.81
5725.44
5724.72
5722.73
5723.12
5712.41
5726.61
5726.34
5725.98
5725.59
5724.78
5724.72
5724.43
5714.67
5726.59
5726.36
5726.03
5725.67
5725.31
5724.55
5724.72
5724.57
5726.52
5726.26
5725.94
5725.62
5725.3
5725.02
5724.79
5724.63
5726.32
5726.02
5725.73
5725.45
5725.2
5724.98
5724.79
5724.66
5727.27
5727.08
5726.93
5726.76
5725.55
5726.52
5726.37
5726.37
5727.46
5727.33
5727.16
5726.94
5725.95
5725.67
5725.85
5725.49
5727.61
5727.5
5727.31
5727.08
5726.5
5724.52
5724.93
5714.02
5727.6
5727.56
5727.37
5727.13
5726.38
5725.49
5725.88
5714.66
5727.6
5727.56
5727.37
5727.12
5726.64
5726.45
5726.33
5726.17
5727.46
5727.38
5727.21
5727
5726.77
5726.52
5726.29
5726.1
5727.11
5726.92
5726.77
5726.64
5726.51
5726.35
5726.16
5726.01
5728.02
5728.04
5728.1
5728.16
5727.08
5728.25
5728.22
5728.12
5727.95
5728.11
5728.2
5728.2
5727.04
5727.66
5728.07
5727.62
5727.79
5728.05
5728.16
5728.16
5727.86
5725.92
5726.55
5722.65
5727.56
5727.96
5728.07
5728.08
5727.54
5725.76
5726.74
5722.07
5727.51
5727.89
5727.98
5727.96
5727.31
5727.67
5727.55
5727.46
5727.27
5727.64
5727.75
5727.77
5727.71
5727.56
5727.41
5727.25
5726.75
5726.92
5727.07
5727.19
5727.26
5727.23
5727.11
5726.98
5728.75
5729.29
5729.78
5730.2
5729.65
5730.26
5730.74
5730.49
5727.91
5728.8
5729.45
5729.85
5728.97
5729.87
5730.35
5729.86
5726.79
5728.05
5728.89
5729.41
5729.6
5727.75
5729.6
5729.93
5725.71
5727.34
5728.32
5728.95
5728.93
5727.32
5728.6
5729.5
5724.81
5726.77
5727.86
5728.53
5728.34
5729.02
5729.03
5729.1
5724.45
5726.4
5727.5
5728.19
5728.56
5728.68
5728.78
5728.72
5724.48
5725.89
5726.86
5727.57
5728.05
5728.29
5728.32
5728.27
5730.73
5731.31
5731.86
5732.34
5732.29
5732.16
5732.86
5733.61
5729.85
5730.76
5731.47
5731.99
5731.17
5732.29
5730.29
5732.82
5728.75
5729.94
5730.81
5731.45
5731.58
5731.17
5732.79
5733.13
5726.31
5729.12
5730.11
5730.81
5731.19
5729.92
5731.76
5732.58
5678.31
5728.36
5729.48
5730.24
5730.17
5731.11
5731.53
5732
5718.43
5727.91
5729.01
5729.77
5730.13
5730.61
5731.15
5731.45
5726.29
5727.61
5728.49
5729.17
5729.7
5730.13
5730.56
5730.85
5741.04
5741.71
5742.28
5742.8
5743.28
5743.21
5740.5
5744.26
5739.85
5740.63
5741.27
5741.85
5741.43
5741.75
5739.37
5742.19
5738.83
5739.7
5740.38
5740.96
5740.7
5741.64
5739.86
5742.1
5726.76
5738.96
5739.61
5740.14
5740.49
5740.82
5741.24
5741.72
5671.67
5738.33
5738.98
5739.49
5739.26
5739.95
5740.3
5740.8
5719.68
5737.92
5738.53
5738.97
5739.12
5739.43
5739.77
5739.97
5737.16
5737.85
5738.31
5738.67
5738.95
5739.14
5739.29
5739.43
5704.52
5704.54
5704.64
5704.79
5704.94
5705.08
5705.2
5705.31
5704.56
5704.58
5704.68
5704.83
5704.98
5705.12
5705.24
5705.34
5704.58
5704.61
5704.72
5704.87
5705.02
5705.16
5705.28
5705.39
5704.6
5704.63
5704.74
5704.89
5705.04
5705.18
5705.3
5705.41
5704.6
5704.64
5704.74
5704.89
5705.04
5705.18
5705.3
5705.41
5704.6
5704.63
5704.74
5704.89
5705.04
5705.17
5705.29
5705.4
5704.58
5704.61
5704.71
5704.86
5705.01
5705.14
5705.26
5705.36
5703.85
5703.99
5704.24
5704.54
5704.82
5705.03
5705.2
5705.32
5703.9
5704.04
5704.3
5704.6
5704.87
5705.08
5705.24
5705.36
5703.93
5704.08
5704.34
5704.64
5704.91
5705.13
5705.29
5705.41
5703.95
5704.1
5704.36
5704.67
5704.94
5705.15
5705.31
5705.43
5703.96
5704.12
5704.37
5704.67
5704.94
5705.16
5705.32
5705.43
5703.96
5704.12
5704.37
5704.67
5704.94
5705.15
5705.31
5705.43
5703.94
5704.1
5704.36
5704.65
5704.91
5705.12
5705.28
5705.39
5703.11
5703.29
5703.71
5704.23
5704.67
5704.98
5705.17
5705.27
5703.16
5703.35
5703.78
5704.29
5704.73
5705.04
5705.22
5705.32
5703.19
5703.39
5703.83
5704.35
5704.79
5705.1
5705.28
5705.39
5703.21
5703.42
5703.86
5704.38
5704.82
5705.13
5705.31
5705.41
5703.23
5703.45
5703.89
5704.4
5704.84
5705.14
5705.32
5705.42
5703.25
5703.46
5703.9
5704.41
5704.84
5705.14
5705.32
5705.43
5703.25
5703.45
5703.89
5704.39
5704.81
5705.11
5705.29
5705.39
5700.42
5701.26
5702.52
5703.67
5704.49
5704.94
5705.11
5705.12
5700.5
5701.37
5702.62
5703.76
5704.57
5705.02
5705.19
5705.21
5700.56
5701.44
5702.7
5703.84
5704.65
5705.09
5705.27
5705.3
5700.61
5701.5
5702.77
5703.89
5704.69
5705.13
5705.3
5705.33
5700.66
5701.55
5702.81
5703.93
5704.72
5705.16
5705.33
5705.37
5700.7
5701.58
5702.83
5703.95
5704.74
5705.18
5705.36
5705.41
5700.71
5701.59
5702.83
5703.94
5704.73
5705.16
5705.34
5705.4
5699.12
5700.27
5702.11
5703.81
5704.98
5705.46
5705.37
5704.98
5699.35
5700.46
5702.28
5703.95
5705.09
5705.55
5705.47
5705.1
5699.42
5700.57
5702.38
5704.04
5705.16
5705.63
5705.57
5705.23
5699.48
5700.66
5702.46
5704.11
5705.22
5705.67
5705.6
5705.26
5699.53
5700.72
5702.52
5704.16
5705.26
5705.7
5705.64
5705.32
5699.56
5700.74
5702.54
5704.18
5705.28
5705.73
5705.68
5705.4
5699.58
5700.75
5702.55
5704.19
5705.3
5705.75
5705.71
5705.44
5685.18
5694.4
5700.82
5704.87
5706.97
5707.35
5635.62
5354.67
5685.68
5694.85
5701.22
5705.12
5707.08
5707.39
5633.22
5352.05
5685.53
5695.09
5701.43
5705.22
5707.09
5707.38
5632.91
5350.24
5685.44
5695.23
5701.55
5705.29
5707.11
5707.37
5625.62
5338.17
5685.52
5695.32
5701.64
5705.34
5707.13
5707.36
5625.51
5339.8
5685.7
5695.3
5701.61
5705.33
5707.11
5707.32
5627.23
5348.34
5685.95
5695.23
5701.56
5705.35
5707.17
5707.37
5632.24
5371.37
5704.02
5704.04
5704.11
5704.22
5704.33
5704.44
5704.53
5704.61
5703.96
5703.97
5704.04
5704.15
5704.26
5704.36
5704.45
5704.54
5703.92
5703.92
5703.99
5704.1
5704.21
5704.31
5704.4
5704.49
5703.9
5703.9
5703.97
5704.07
5704.19
5704.29
5704.39
5704.47
5703.91
5703.91
5703.97
5704.08
5704.2
5704.3
5704.4
5704.49
5703.94
5703.94
5704
5704.11
5704.23
5704.34
5704.44
5704.53
5703.99
5703.99
5704.05
5704.17
5704.29
5704.41
5704.51
5704.61
5703.35
5703.46
5703.67
5703.92
5704.13
5704.31
5704.43
5704.52
5703.27
5703.38
5703.57
5703.82
5704.04
5704.21
5704.34
5704.43
5703.21
5703.31
5703.5
5703.75
5703.97
5704.15
5704.28
5704.38
5703.18
5703.27
5703.46
5703.71
5703.94
5704.12
5704.26
5704.36
5703.18
5703.27
5703.46
5703.71
5703.95
5704.14
5704.28
5704.39
5703.21
5703.3
5703.49
5703.75
5703.99
5704.19
5704.33
5704.44
5703.26
5703.35
5703.55
5703.82
5704.06
5704.26
5704.41
5704.53
5702.63
5702.74
5703.09
5703.53
5703.9
5704.16
5704.29
5704.36
5702.51
5702.61
5702.95
5703.4
5703.78
5704.04
5704.18
5704.26
5702.41
5702.5
5702.84
5703.29
5703.68
5703.95
5704.1
5704.19
5702.35
5702.43
5702.78
5703.23
5703.63
5703.92
5704.08
5704.17
5702.35
5702.43
5702.77
5703.22
5703.64
5703.94
5704.11
5704.21
5702.39
5702.46
5702.8
5703.26
5703.69
5704
5704.17
5704.28
5702.45
5702.52
5702.87
5703.34
5703.78
5704.09
5704.28
5704.39
5699.85
5700.57
5701.74
5702.83
5703.61
5704
5704.1
5704.08
5699.68
5700.36
5701.54
5702.64
5703.44
5703.85
5703.96
5703.95
5699.54
5700.17
5701.36
5702.47
5703.29
5703.73
5703.85
5703.86
5699.46
5700.06
5701.25
5702.36
5703.21
5703.67
5703.82
5703.84
5699.44
5700.04
5701.19
5702.34
5703.21
5703.69
5703.86
5703.9
5699.45
5700.07
5701.23
5702.39
5703.27
5703.77
5703.95
5703.99
5699.49
5700.12
5701.35
5702.5
5703.39
5703.9
5704.08
5704.13
5698.55
5699.38
5701.09
5702.77
5703.94
5704.38
5704.16
5703.71
5698.23
5699.06
5700.77
5702.49
5703.71
5704.17
5703.96
5703.51
5697.8
5698.7
5700.45
5702.22
5703.48
5703.99
5703.8
5703.34
5697.56
5698.46
5700.23
5702.04
5703.35
5703.9
5703.75
5703.29
5697.49
5698.4
5700.17
5702
5703.34
5703.93
5703.81
5703.36
5697.59
5698.49
5700.25
5702.08
5703.43
5704.03
5703.94
5703.5
5697.83
5698.69
5700.43
5702.24
5703.58
5704.19
5704.11
5703.69
5686.61
5690.72
5697.96
5703.11
5705.81
5706.2
5620.41
5394.84
5686.34
5689.88
5697.28
5702.64
5705.51
5706
5609.05
5388.24
5686.16
5689.18
5696.66
5702.18
5705.2
5705.78
5612.63
5363.89
5686.03
5688.73
5696.27
5701.89
5705
5705.68
5617.14
5343.24
5685.91
5688.69
5696.21
5701.83
5704.96
5705.71
5623.58
5344.85
5685.88
5689
5696.46
5701.99
5705.06
5705.82
5630.12
5351.13
5685.91
5689.47
5696.85
5702.25
5705.23
5705.98
5636.81
5364.78
5704.05
5704.05
5704.12
5704.24
5704.37
5704.49
5704.6
5704.69
5704.12
5704.12
5704.19
5704.31
5704.45
5704.58
5704.69
5704.79
5704.19
5704.19
5704.27
5704.4
5704.53
5704.67
5704.79
5704.89
5704.26
5704.27
5704.35
5704.49
5704.63
5704.77
5704.88
5704.99
5704.33
5704.35
5704.43
5704.57
5704.72
5704.85
5704.97
5705.08
5704.4
5704.42
5704.51
5704.65
5704.79
5704.94
5705.06
5705.17
5704.46
5704.48
5704.58
5704.72
5704.87
5705.01
5705.13
5705.24
5703.33
5703.43
5703.63
5703.9
5704.16
5704.36
5704.51
5704.63
5703.4
5703.5
5703.68
5703.86
5704.24
5704.46
5704.62
5704.74
5703.48
5703.58
5703.73
5703.91
5704.34
5704.57
5704.73
5704.86
5703.56
5703.67
5703.89
5704.19
5704.46
5704.68
5704.84
5704.97
5703.64
5703.76
5703.96
5704.28
5704.56
5704.78
5704.95
5705.07
5703.72
5703.85
5704.02
5704.18
5704.64
5704.87
5705.04
5705.16
5703.79
5703.92
5704.16
5704.42
5704.73
5704.95
5705.12
5705.24
5702.53
5702.6
5702.98
5703.46
5703.9
5704.21
5704.4
5704.52
5702.6
5702.68
5702.36
5703.37
5704.01
5704.33
5704.53
5704.64
5702.67
5702.78
5702.41
5703.41
5704.13
5704.46
5704.66
5704.77
5702.75
5702.88
5703.27
5703.8
5704.26
5704.58
5704.78
5704.9
5702.85
5702.92
5703.32
5703.9
5704.38
5704.7
5704.89
5705
5702.94
5702.84
5702.5
5703.66
5704.48
5704.79
5704.98
5705.09
5703.03
5703.15
5703.26
5704.01
5704.58
5704.89
5705.07
5705.18
5699.57
5700.24
5701.49
5702.66
5703.55
5704.05
5704.24
5704.29
5699.57
5698.92
5700.49
5702.71
5703.69
5704.2
5704.39
5704.44
5699.69
5699.32
5700.62
5702.81
5703.84
5704.35
5704.55
5704.59
5699.87
5700.61
5701.9
5703.11
5704
5704.49
5704.69
5704.72
5700.02
5700.7
5702.02
5703.27
5704.14
5704.62
5704.79
5704.82
5700.1
5699.61
5700.89
5703.18
5704.26
5704.72
5704.89
5704.91
5700.3
5700.39
5701.71
5703.46
5704.38
5704.83
5704.99
5705.01
5698.06
5698.93
5700.68
5702.48
5703.8
5704.4
5704.33
5703.93
5698.04
5695.65
5700.29
5702.69
5704
5704.6
5704.53
5704.15
5697.94
5695.02
5700.32
5702.91
5704.22
5704.8
5704.75
5704.39
5698.43
5699.36
5701.33
5703.13
5704.41
5704.97
5704.92
5704.56
5698.63
5699.62
5701.56
5703.34
5704.58
5705.11
5705.03
5704.63
5698.71
5698.3
5701.22
5703.5
5704.71
5705.22
5705.12
5704.71
5698.69
5698.95
5701.53
5703.67
5704.85
5705.34
5705.24
5704.83
5684.93
5690.1
5697.4
5702.66
5705.54
5706.24
5635.24
5370.26
5674.98
5687.58
5697.79
5703
5705.78
5706.44
5637.18
5377.38
5674.89
5687.1
5698.3
5703.39
5706.06
5706.67
5637.27
5422.34
5682.5
5691.99
5699.04
5703.77
5706.31
5706.84
5641.58
5417.31
5684.37
5692.81
5699.61
5704.14
5706.55
5707.02
5640.74
5388.08
5680.19
5691.91
5699.89
5704.42
5706.71
5707.14
5637.73
5371.72
5680.41
5693.1
5700.23
5704.66
5706.86
5707.29
5634.25
5356.06
5704.54
5704.57
5704.67
5704.82
5704.96
5705.09
5705.21
5705.3
5704.48
5704.51
5704.61
5704.75
5704.89
5705.02
5705.13
5705.23
5704.41
5704.44
5704.54
5704.68
5704.81
5704.93
5705.04
5705.14
5704.33
5704.37
5704.46
5704.59
5704.72
5704.83
5704.94
5705.03
5704.26
5704.28
5704.37
5704.49
5704.62
5704.73
5704.83
5704.92
5704.18
5704.2
5704.28
5704.4
5704.52
5704.63
5704.73
5704.81
5704.1
5704.11
5704.19
5704.31
5704.42
5704.53
5704.62
5704.71
5703.91
5704.07
5704.32
5704.61
5704.86
5705.07
5705.22
5705.32
5703.86
5704.01
5704.26
5704.54
5704.79
5704.98
5705.13
5705.23
5703.79
5703.94
5704.18
5704.45
5704.7
5704.89
5705.03
5705.13
5703.71
5703.85
5704.08
5704.35
5704.59
5704.78
5704.91
5705.01
5703.62
5703.76
5703.98
5704.25
5704.48
5704.66
5704.79
5704.88
5703.53
5703.66
5703.88
5704.14
5704.36
5704.54
5704.66
5704.76
5703.43
5703.56
5703.78
5704.03
5704.25
5704.42
5704.54
5704.64
5703.22
5703.42
5703.85
5704.34
5704.76
5705.05
5705.22
5705.32
5703.16
5703.36
5703.78
5704.26
5704.67
5704.95
5705.11
5705.2
5703.08
5703.28
5703.69
5704.17
5704.57
5704.84
5704.99
5705.07
5703
5703.19
5703.59
5704.06
5704.45
5704.71
5704.85
5704.93
5702.91
5703.09
5703.47
5703.93
5704.32
5704.57
5704.71
5704.78
5702.83
5702.98
5703.35
5703.8
5704.18
5704.43
5704.57
5704.64
5702.74
5702.87
5703.22
5703.67
5704.05
5704.3
5704.43
5704.5
5700.68
5701.56
5702.79
5703.89
5704.67
5705.09
5705.27
5705.32
5700.62
5701.49
5702.71
5703.8
5704.56
5704.96
5705.11
5705.14
5700.52
5701.39
5702.61
5703.69
5704.43
5704.82
5704.94
5704.95
5700.41
5701.26
5702.47
5703.54
5704.29
5704.66
5704.77
5704.77
5700.29
5701.12
5702.31
5703.39
5704.13
5704.5
5704.61
5704.59
5700.16
5700.96
5702.14
5703.22
5703.97
5704.34
5704.44
5704.42
5700.02
5700.78
5701.96
5703.04
5703.8
5704.18
5704.28
5704.26
5699.54
5700.68
5702.49
5704.13
5705.22
5705.67
5705.61
5705.35
5699.47
5700.59
5702.39
5704.02
5705.09
5705.49
5705.38
5705.06
5699.36
5700.45
5702.26
5703.89
5704.95
5705.33
5705.18
5704.8
5699.22
5700.27
5702.08
5703.72
5704.79
5705.16
5704.99
5704.59
5699.08
5700.07
5701.87
5703.53
5704.62
5705
5704.81
5704.39
5698.94
5699.87
5701.64
5703.31
5704.42
5704.81
5704.61
5704.18
5698.79
5699.66
5701.4
5703.07
5704.21
5704.62
5704.41
5703.97
5686.13
5695
5701.36
5705.23
5707.08
5707.25
5635.08
5382.05
5686.21
5694.74
5701.15
5705.11
5706.98
5707.1
5622.66
5339.5
5686.25
5694.35
5700.85
5704.95
5706.88
5706.98
5623.87
5331.3
5686.36
5693.78
5700.41
5704.69
5706.74
5706.83
5627.65
5338.16
5686.54
5693.13
5699.89
5704.4
5706.61
5706.72
5629.72
5352.91
5686.72
5692.39
5699.3
5704.04
5706.4
5706.58
5629.79
5358.46
5686.79
5691.62
5698.7
5703.66
5706.18
5706.44
5631.49
5386.51
5705.88
5705.75
5705.86
5705.39
5705.45
5705.51
5705.57
5705.65
5705.75
5705.87
5706
5705.42
5705.48
5705.54
5705.6
5705.67
5705.77
5705.9
5706.04
5705.47
5705.53
5705.59
5705.65
5705.72
5705.82
5705.95
5706.09
5705.49
5705.55
5705.6
5705.67
5705.74
5705.84
5705.96
5706.11
5705.49
5705.54
5705.6
5705.66
5705.73
5705.83
5705.96
5706.11
5705.48
5705.53
5705.59
5705.65
5705.72
5705.82
5705.95
5706.09
5705.44
5705.5
5705.55
5705.61
5705.68
5705.78
5705.91
5706.06
5705.41
5705.48
5705.55
5705.62
5705.71
5705.83
5705.99
5706.16
5705.44
5705.5
5705.56
5705.63
5705.71
5705.82
5705.98
5705.84
5705.5
5705.56
5705.62
5705.68
5705.77
5705.89
5706.05
5706.06
5705.52
5705.58
5705.64
5705.7
5705.78
5705.9
5706.07
5706.16
5705.52
5705.58
5705.63
5705.69
5705.77
5705.89
5706.05
5705.89
5705.51
5705.57
5705.62
5705.68
5705.76
5705.87
5706.04
5705.95
5705.47
5705.53
5705.58
5705.64
5705.71
5705.82
5705.99
5705.44
5705.36
5705.42
5705.5
5705.58
5705.7
5705.86
5706.05
5706.23
5705.39
5705.45
5705.51
5705.58
5705.68
5705.81
5698.65
5703.08
5705.47
5705.52
5705.58
5705.65
5705.74
5705.88
5698.81
5705.27
5705.49
5705.54
5705.6
5705.66
5705.76
5705.9
5701.41
5705.93
5705.5
5705.54
5705.59
5705.65
5705.74
5705.87
5693.32
5705.1
5705.5
5705.55
5705.59
5705.65
5705.72
5705.84
5696.33
5704.21
5705.46
5705.5
5705.55
5705.59
5705.66
5705.77
5697.03
5702.51
5705.16
5705.22
5705.32
5705.48
5705.67
5702.71
5706.15
5706.29
5705.24
5705.31
5705.4
5705.56
5705.78
5689.07
5640.16
5702.32
5705.35
5705.41
5705.49
5705.64
5705.83
5679.78
5651.6
5705.79
5705.37
5705.43
5705.51
5705.65
5705.83
5666.63
5665.18
5706.15
5705.42
5705.48
5705.56
5705.69
5705.87
5658.47
5646.21
5706.17
5705.48
5705.55
5705.62
5705.74
5705.91
5651.11
5629.22
5703.72
5705.46
5705.52
5705.6
5705.67
5705.84
5656.95
5615.58
5702.17
5695.68
5682.14
5638.75
5604.18
5601.08
5522.82
5671.89
5685.76
5701.82
5693.89
5611.54
5572.99
5621.39
5505.71
5636.64
5694.16
5704.95
5696.56
5608.97
5582.41
5580.74
5471.99
5648.67
5680.65
5704.99
5695.45
5608.14
5579.5
5562.35
5452.24
5653.7
5680.73
5705.36
5697.69
5623.57
5571.16
5559.62
5460.16
5649.7
5672.89
5705.48
5705.76
5644.01
5574.9
5575.15
5481.91
5617.45
5677.53
5705.49
5705.78
5646.47
5588.38
5568.8
5462.29
5589.63
5696.04
5051.98
4958.83
5026.66
5245.09
5256.66
5419.74
5398.21
5263.86
5104.86
4941.15
5007.04
5366.38
5220.3
5408.35
5548.28
5278
5150.31
4962.82
5054.9
5400.62
5220.52
5391.25
5571.04
5280.19
5150.37
4942.23
5070.24
5391.98
5221.52
5409.6
5562.43
5278.66
5172.16
5002.65
5073.64
5367.64
5228.72
5437.27
5584.15
5283.62
5188.65
5165.64
5053.13
5329.75
5409.46
5497.17
5496.97
5304.3
5167.9
5181.17
5029.42
5444.39
5409.02
5462.51
5546.76
5300.13
5704.68
5704.73
5704.79
5704.85
5704.92
5705.01
5705.13
5705.27
5704.61
5704.66
5704.71
5704.77
5704.85
5704.94
5705.06
5705.19
5704.56
5704.61
5704.66
5704.72
5704.8
5704.89
5705
5705.14
5704.54
5704.6
5704.65
5704.71
5704.78
5704.87
5704.98
5705.11
5704.56
5704.61
5704.67
5704.73
5704.8
5704.89
5705
5705.13
5704.61
5704.66
5704.72
5704.78
5704.85
5704.93
5705.05
5705.18
5704.68
5704.74
5704.79
5704.85
5704.92
5705.01
5705.13
5705.25
5704.6
5704.66
5704.72
5704.79
5704.88
5705
5705.16
5705.33
5704.52
5704.58
5704.64
5704.71
5704.8
5704.92
5705.07
5705.24
5704.46
5704.52
5704.59
5704.66
5704.75
5704.86
5705.02
5705.19
5704.45
5704.51
5704.57
5704.64
5704.73
5704.85
5705
5705.16
5704.47
5704.54
5704.6
5704.67
5704.76
5704.87
5705.02
5705.19
5704.53
5704.59
5704.66
5704.73
5704.82
5704.93
5705.08
5705.25
5704.62
5704.68
5704.75
5704.82
5704.91
5705.03
5705.18
5705.34
5704.44
5704.5
5704.56
5704.65
5704.76
5704.91
5705.1
5705.29
5704.34
5704.41
5704.48
5704.57
5704.68
5704.83
5705.01
5705.2
5704.28
5704.35
5704.43
5704.52
5704.63
5704.78
5704.96
5705.14
5704.26
5704.34
5704.42
5704.51
5704.62
5704.76
5704.94
5705.13
5704.3
5704.38
5704.46
5704.55
5704.66
5704.8
5704.98
5705.16
5704.38
5704.45
5704.53
5704.63
5704.74
5704.88
5705.06
5705.24
5704.48
5704.56
5704.64
5704.74
5704.84
5704.99
5705.17
5705.35
5704.11
5704.19
5704.3
5704.43
5704.6
5702
5705.04
5705.2
5704
5704.08
5704.21
5704.36
5704.53
5704.63
5704.96
5705.12
5703.92
5704.01
5704.15
5704.31
5704.5
5704.68
5704.89
5705.05
5703.91
5704.01
5704.15
5704.33
5704.51
5704.67
5704.88
5705.04
5703.97
5704.07
5704.22
5704.4
5704.57
5704.72
5704.93
5705.1
5704.07
5704.17
5704.32
5704.5
5704.67
5704.82
5705.03
5705.21
5704.2
5704.3
5704.45
5704.63
5704.8
5704.94
5705.16
5705.34
5683.02
5694.44
5669.9
5604.26
5603.87
5548.14
5669.64
5700.84
5682.85
5688.9
5679.83
5631.44
5622.88
5573.96
5671.99
5702.19
5686.64
5695.44
5673.03
5641.04
5656.27
5597.1
5665.65
5704.22
5692.55
5697.11
5664.3
5665.13
5668.36
5588.48
5666.94
5704.73
5695.35
5694.87
5661.68
5677.81
5674.24
5582.15
5665.03
5705.08
5696.36
5692.23
5657.33
5683.85
5677.1
5574.72
5659.6
5705.35
5696.35
5690.14
5653.26
5686.02
5676.88
5569.26
5659.46
5705.58
4916.89
5096.89
5085.84
5178.7
5329.07
5452.03
5355.4
5252.08
4924.93
5050.82
5133.78
5143.06
5288.03
5438.39
5370.47
5272.95
4925.65
5082
5085.47
5234.23
5324.83
5417.38
5356.57
5292.99
4964.94
5056.96
5090.77
5298.47
5306.11
5412.96
5371.98
5306.78
4993.78
5020.78
5116.91
5331.98
5303.98
5415.51
5384.71
5315.88
5005.43
4997.48
5125.16
5349.32
5307.29
5417.69
5394.68
5320.51
5013.32
4979.78
5130.84
5362.25
5297.49
5418.9
5398.84
5320.88
5704.77
5704.83
5704.88
5704.94
5705.01
5705.1
5705.22
5705.35
5704.87
5704.92
5704.98
5705.04
5705.11
5705.21
5705.32
5705.45
5704.97
5705.03
5705.08
5705.15
5705.22
5705.31
5705.43
5705.56
5705.07
5705.13
5705.19
5705.25
5705.32
5705.42
5705.54
5705.67
5705.16
5705.22
5705.28
5705.35