/*--------------------------------*- C++ -*----------------------------------*\
| =========                 |                                                 |
| \\      /  F ield         | OpenFOAM: The Open Source CFD Toolbox           |
|  \\    /   O peration     | Version:  plus.master.MPPICInterFoam            |
|   \\  /    A nd           | Web:      www.OpenFOAM.com                      |
|    \\/     M anipulation  |                                                 |
\*---------------------------------------------------------------------------*/
FoamFile
{
    version     2.0;
    format      ascii;
    class       volScalarField;
    location    "8.8";
    object      rho;
}
// * * * * * * * * * * * * * * * * * * * * * * * * * * * * * * * * * * * * * //

dimensions      [1 -3 0 0 0 0 0];

internalField   nonuniform List<scalar> 
11822
(
987.177
980.745
982.707
991.072
991.391
1000
1000
863.562
761.567
741.687
834.743
966.219
990.213
1000
644.609
572.748
400.833
584.355
874.029
987.786
1000
510.923
339.291
342.83
603.114
859.683
987.9
1000
627.615
583.995
583.548
592.902
839.889
984.038
1000
840.785
692.32
699.528
768.811
936.745
987.815
1000
982.652
970.028
962.515
980.441
986.043
1000
1000
972.483
970.016
972.692
970.306
983.476
1000
1000
853.872
722.684
702.292
829.336
936.165
983.661
1000
617.586
526.37
389.092
490.375
863.877
958.51
1000
538.869
338.863
339.288
577.278
841.073
966.227
1000
588.881
385.927
376.279
460.932
816.267
954.321
1000
828.305
650.564
642.559
747.144
908.315
978.685
1000
971.903
962.08
955.142
966.581
972.968
1000
1000
947.418
925.185
921.67
907.197
974.413
1000
1000
808.838
695.481
698.852
803.981
786.079
977.765
1000
593.094
352.779
456.859
452.142
817.453
912.472
1000
674.547
484.957
447.164
453.191
803.917
906.311
1000
545.93
273.457
273.469
369.29
763.356
906.974
1000
792.051
612.636
594.38
716.948
782.323
971.051
1000
944.397
924.873
916.313
904.762
955.877
1000
1000
913.409
828.451
804.551
831.381
954.958
998.924
1000
677.904
626.141
662.817
670.686
649.181
963.633
1000
551.612
271.101
453.478
449.123
648.196
874.091
1000
652.145
610.844
593.388
274.613
678.38
835.042
1000
496.939
271.102
272.013
345.084
625.791
863.382
1000
689.432
551.981
524.295
616.178
631.333
957.225
1000
896.542
817.618
794.88
787.714
928.275
998.871
1000
867.749
745.008
724.869
792.503
926.85
995.667
1000
507.416
430.409
480.513
427.968
637.342
941.474
1000
420.126
270.068
315.199
400.363
428.707
844.108
1000
327.87
603.038
594.477
265.833
423.285
794.809
1000
377.82
269.9
271.229
318.215
435.111
831.312
1000
505.633
388.443
350.304
401.622
594.668
935.31
1000
832.622
679.921
651.95
710.281
892.393
995.045
1000
860.443
752.546
741.544
801.264
916.022
993.275
1000
482.74
306.603
313.862
383.289
649.987
929.77
1000
282.491
270.231
256.928
269.716
412.962
833.68
1000
255.736
550.751
591.157
265.515
346.673
793.632
1000
274.501
269.414
274.707
264.258
408.354
821.092
1000
442.373
276.707
274.87
332.468
603.616
922.4
1000
814.298
668.49
647.09
721.753
878.318
991.978
1000
1000
1000
999.998
999.944
999.978
999.829
999.699
999.476
1000
1000
1000
1000
1000
1000
1000
1000
1000
1000
1000
1000
1000
1000
1000
1000
1000
1000
1000
1000
1000
1000
1000
1000
1000
1000
1000
1000
1000
1000
1000
1000
1000
1000
1000
1000
1000
1000
1000
1000
1000
1000
1000
1000
999.983
1000
999.999
1000
1000
1000
999.998
999.917
999.989
999.349
999.71
999.526
1000
1000
1000
1000
1000
1000
1000
1000
1000
1000
1000
1000
1000
1000
1000
1000
1000
1000
1000
1000
1000
1000
1000
1000
1000
1000
1000
1000
1000
1000
1000
1000
1000
1000
1000
1000
1000
999.997
999.999
1000
1000
1000
1000
1000
999.984
1000
999.991
999.999
1000
1000
999.997
999.932
999.992
998.974
999.765
999.514
1000
1000
1000
999.999
1000
1000
1000
1000
1000
1000
1000
1000
1000
1000
1000
1000
1000
1000
1000
1000
1000
1000
1000
1000
1000
1000
1000
1000
1000
1000
1000
1000
1000
1000
1000
1000
1000
999.997
999.998
1000
1000
1000
1000
1000
999.991
999.979
999.983
999.998
1000
1000
999.989
999.976
999.998
999.128
999.888
999.556
1000
1000
999.999
999.999
1000
1000
999.999
1000
1000
1000
1000
1000
1000
1000
1000
1000
1000
1000
1000
1000
1000
1000
1000
1000
1000
1000
1000
1000
1000
1000
1000
1000
1000
1000
1000
1000
1000
999.998
999.999
1000
1000
1000
1000
1000
999.999
999.929
999.983
999.994
1000
1000
999.982
999.976
999.997
999.629
999.999
999.689
1000
1000
999.999
999.998
1000
1000
999.999
1000
1000
1000
1000
1000
1000
1000
1000
1000
1000
1000
1000
1000
1000
1000
1000
1000
1000
1000
1000
1000
1000
1000
1000
1000
1000
1000
1000
1000
1000
1000
1000
1000
1000
1000
1000
999.998
1000
999.935
999.983
999.988
1000
1000
999.982
999.972
999.982
999.998
999.4
999.587
1000
1000
999.999
999.998
1000
1000
999.992
999.997
1000
1000
1000
1000
1000
1000
1000
1000
1000
1000
1000
1000
1000
1000
1000
1000
1000
1000
1000
1000
1000
1000
1000
1000
1000
1000
1000
1000
1000
1000
1000
1000
1000
1000
1000
999.996
999.999
999.963
999.975
999.988
999.976
1000
1000
1000
1000
1000
1000
1000
986.125
1000
1000
1000
1000
1000
1000
1000
931.901
1000
1000
1000
999.998
999.977
999.983
999.999
903.976
1000
1000
1000
1000
999.996
999.586
999.967
939.675
1000
1000
1000
1000
999.996
999.828
999.988
986.465
1000
1000
1000
1000
1000
999.999
999.999
999.516
1000
1000
1000
1000
1000
1000
1000
999.759
1000
1000
1000
1000
1000
1000
1000
979.77
1000
1000
1000
1000
1000
1000
1000
924.143
1000
1000
1000
999.998
999.977
999.98
999.999
898.933
999.732
1000
1000
1000
1000
999.354
999.972
934.408
1000
1000
1000
1000
999.989
999.642
999.992
978.575
1000
1000
1000
1000
1000
999.998
999.999
999.033
1000
1000
1000
1000
1000
1000
1000
998.745
1000
1000
1000
1000
1000
1000
1000
956.503
1000
1000
1000
1000
1000
1000
1000
895.328
996.395
1000
1000
999.998
999.978
999.976
999.999
882.252
991.706
1000
1000
999.989
999.558
999.354
999.986
907.338
996.364
1000
1000
1000
999.944
999.666
999.997
952.396
1000
1000
1000
1000
1000
999.996
999.999
997.523
1000
1000
1000
1000
1000
1000
1000
995.191
1000
1000
1000
1000
1000
1000
1000
902.022
1000
1000
1000
1000
1000
1000
1000
792.025
982.209
1000
1000
999.999
999.978
999.972
999.999
793.947
961.143
1000
1000
999.98
998.812
999.369
999.998
797.412
981.599
1000
1000
999.995
999.686
999.734
999.999
897.819
1000
1000
1000
1000
1000
999.99
999.999
992.937
1000
1000
1000
1000
1000
1000
1000
986.481
1000
1000
1000
1000
1000
1000
1000
826.596
1000
1000
1000
1000
1000
1000
1000
594.472
948.274
1000
1000
999.999
999.971
999.968
999.999
565.844
898.927
1000
1000
999.993
998.811
999.477
999.999
595.093
946.435
1000
1000
1000
999.201
999.788
999.999
832.175
996.701
1000
1000
1000
999.999
999.986
999.999
982.843
1000
1000
1000
1000
1000
1000
1000
982.899
1000
1000
1000
1000
1000
1000
1000
814.038
999.998
1000
1000
1000
1000
1000
1000
543.6
941.008
1000
1000
999.999
999.954
999.963
1000
451.435
884.094
1000
1000
999.998
998.811
999.446
1000
550.092
939.58
1000
1000
1000
999.243
999.831
999.999
830.232
996.185
1000
1000
1000
999.999
999.989
999.999
981.35
1000
1000
1000
1000
1000
1000
1000
1000
1000
1000
1000
1000
999.985
999.964
999.979
1000
1000
1000
1000
999.998
999.937
997.325
998.766
1000
1000
1000
999.994
999.861
999.89
997.325
997.457
1000
999.999
999.99
1000
1000
999.98
997.921
999.471
1000
999.997
999.999
999.881
996.966
999.498
999.093
999.885
1000
1000
1000
999.859
996.766
999.497
996.881
997.505
1000
1000
999.996
999.832
999.891
998.913
996.878
996.878
1000
1000
1000
1000
1000
999.99
999.951
999.668
1000
1000
1000
1000
1000
999.834
997.637
997.326
1000
1000
1000
999.998
999.943
999.837
997.325
997.324
1000
1000
1000
999.999
1000
999.994
999.439
999.321
1000
1000
1000
999.921
998.443
999.602
996.885
999.89
1000
1000
999.999
999.885
999.616
999.31
996.884
998.984
1000
1000
999.991
999.832
999.971
998.172
997.545
996.878
1000
1000
1000
1000
1000
999.999
999.921
999.21
1000
1000
1000
1000
1000
999.638
998.755
997.324
1000
1000
1000
1000
999.996
999.81
997.324
997.324
1000
1000
1000
999.996
1000
1000
999.759
999.214
1000
1000
1000
999.988
999.994
999.873
997.762
999.89
1000
1000
999.997
999.866
999.976
998.667
996.884
999.089
1000
1000
999.994
999.843
999.943
997.961
998.966
996.879
1000
1000
1000
1000
1000
999.991
999.915
999.26
1000
1000
1000
1000
999.997
999.614
999.72
997.324
1000
1000
1000
999.994
1000
999.789
997.481
997.324
1000
1000
1000
999.989
999.998
999.262
999.764
999.376
1000
1000
1000
999.988
1000
999.999
999.758
999.891
1000
1000
999.998
999.866
999.975
997.983
999.001
998.051
1000
1000
999.999
999.953
999.946
997.961
999.733
996.879
1000
1000
1000
1000
1000
999.935
999.937
999.627
1000
1000
1000
1000
1000
999.729
999.937
997.445
1000
1000
1000
999.991
1000
999.418
998.909
997.873
1000
1000
1000
999.991
999.999
998.994
999.675
999.739
1000
1000
1000
999.963
1000
999.277
999.854
999.891
1000
1000
1000
999.933
999.879
997.984
999.709
997.189
1000
1000
1000
1000
999.935
998.099
999.625
996.88
999.999
1000
1000
1000
1000
999.933
999.847
999.898
1000
1000
1000
1000
1000
999.976
999.779
998.702
1000
1000
1000
999.991
1000
999.301
999.091
999.342
1000
1000
1000
999.996
1000
999.08
999.083
999.576
1000
1000
1000
999.971
1000
998.94
999.596
999.039
1000
1000
1000
999.998
999.941
997.995
999.386
997.122
1000
1000
1000
1000
999.957
999.061
999.047
997.011
1000
1000
1000
999.994
999.91
999.97
999.911
1000
1000
1000
1000
999.994
999.944
999.618
999.604
999.403
1000
1000
1000
1000
999.92
999.577
999.702
997.571
1000
1000
1000
999.996
999.903
999.954
999.948
998.014
1000
1000
1000
1000
999.999
999.909
999.995
1000
1000
1000
1000
1000
1000
999.998
999.999
999.999
1000
1000
1000
1000
1000
1000
1000
1000
1000
1000
1000
999.989
999.77
999.985
999.98
999.999
1000
1000
1000
999.992
999.831
999.811
999.88
999.835
1000
1000
1000
999.997
999.925
999.576
999.699
997.571
1000
1000
1000
999.999
999.899
999.771
999.894
997.708
1000
1000
1000
999.998
999.953
999.966
999.992
1000
1000
1000
1000
1000
1000
999.998
999.999
999.999
1000
1000
1000
1000
1000
1000
1000
1000
1000
1000
999.999
999.992
999.764
999.987
999.987
999.977
1000
1000
1000
999.99
999.763
999.891
999.987
999.915
1000
1000
1000
999.993
999.938
999.576
999.721
998.983
1000
1000
1000
1000
999.901
999.576
999.794
998.912
1000
1000
1000
999.995
999.883
999.977
999.988
1000
1000
1000
1000
1000
999.999
999.993
999.999
1000
1000
1000
1000
1000
1000
1000
1000
1000
1000
1000
1000
999.998
999.828
999.909
999.987
999.939
1000
1000
1000
999.989
999.763
999.904
999.987
999.894
1000
1000
1000
999.994
999.964
999.576
999.918
999.983
1000
1000
1000
1000
999.922
999.576
999.811
999.988
1000
1000
1000
999.996
999.883
999.975
999.973
999.994
1000
1000
1000
1000
999.993
999.981
999.999
1000
1000
1000
1000
1000
1000
1000
1000
1000
1000
1000
1000
999.995
999.905
999.797
999.836
999.915
1000
1000
1000
999.997
999.763
999.896
999.43
999.842
1000
1000
1000
999.999
999.934
999.774
999.986
999.987
999.739
1000
1000
999.996
999.968
999.646
999.899
999.99
990.977
1000
1000
999.998
999.883
999.975
999.963
999.99
998.559
1000
1000
1000
999.971
999.981
1000
1000
1000
1000
1000
1000
1000
1000
1000
1000
1000
1000
1000
999.988
999.971
999.852
999.244
999.849
1000
1000
1000
1000
999.822
999.783
999.244
999.683
1000
1000
1000
1000
999.856
999.941
999.527
999.864
997.92
1000
1000
999.997
999.975
999.96
999.965
999.988
987.948
1000
1000
1000
999.883
999.951
999.957
999.998
996.82
1000
1000
1000
999.966
999.978
999.999
1000
1000
1000
1000
1000
1000
1000
1000
1000
1000
1000
1000
1000
1000
1000
1000
1000
1000
1000
1000
1000
1000
1000
1000
1000
1000
1000
1000
1000
1000
1000
1000
1000
1000
1000
1000
1000
1000
1000
1000
1000
1000
1000
1000
1000
1000
1000
1000
1000
1000
1000
1000
1000
1000
1000
1000
1000
1000
1000
1000
1000
1000
1000
1000
1000
1000
1000
1000
1000
1000
1000
1000
1000
1000
1000
1000
1000
1000
1000
1000
1000
1000
1000
1000
1000
1000
1000
1000
1000
1000
1000
1000
1000
1000
1000
1000
1000
1000
1000
1000
1000
1000
1000
1000
1000
1000
1000
1000
1000
1000
1000
1000
1000
1000
1000
1000
1000
1000
1000
1000
1000
1000
1000
1000
1000
1000
1000
1000
1000
1000
1000
1000
1000
1000
1000
1000
1000
1000
1000
1000
1000
1000
1000
1000
1000
1000
1000
1000
1000
1000
1000
1000
1000
1000
1000
1000
1000
1000
1000
1000
1000
1000
1000
1000
1000
1000
1000
1000
1000
1000
1000
1000
1000
1000
1000
1000
1000
1000
999.999
1000
1000
1000
1000
1000
1000
1000
1000
1000
1000
1000
1000
1000
1000
1000
1000
1000
1000
1000
1000
1000
1000
1000
1000
1000
1000
1000
1000
1000
1000
1000
1000
1000
1000
1000
1000
1000
1000
1000
1000
1000
1000
1000
1000
1000
1000
1000
1000
1000
1000
1000
1000
1000
1000
999.979
999.996
1000
1000
1000
1000
999.999
999.999
1000
1000
1000
1000
1000
1000
999.999
999.999
1000
1000
1000
1000
1000
1000
999.999
999.999
1000
1000
1000
1000
1000
1000
999.999
999.999
1000
1000
1000
1000
1000
1000
999.999
999.999
1000
1000
1000
1000
1000
1000
999.999
999.999
1000
1000
1000
1000
1000
1000
999.999
999.999
999.892
999.996
999.999
999.999
999.999
999.994
986.911
935.359
1000
1000
1000
1000
999.998
999.994
986.457
934.867
1000
1000
1000
1000
999.998
999.994
986.391
934.525
1000
1000
1000
1000
999.997
999.994
985.051
932.302
1000
1000
1000
1000
999.997
999.994
985.034
932.602
1000
1000
1000
1000
999.998
999.994
985.368
934.176
1000
1000
1000
1000
999.998
999.994
986.286
938.394
1000
1000
1000
1000
1000
1000
1000
1000
1000
1000
1000
1000
1000
1000
1000
1000
1000
1000
1000
1000
1000
1000
1000
1000
1000
1000
1000
1000
1000
1000
1000
1000
1000
1000
1000
1000
1000
1000
1000
1000
1000
1000
1000
1000
1000
1000
1000
1000
1000
1000
1000
1000
1000
1000
1000
1000
1000
1000
1000
1000
1000
1000
1000
1000
1000
1000
1000
1000
1000
1000
1000
1000
1000
1000
1000
1000
1000
1000
1000
1000
1000
1000
1000
1000
1000
1000
1000
1000
1000
1000
1000
1000
1000
1000
1000
1000
1000
1000
1000
1000
1000
1000
1000
1000
1000
1000
1000
1000
1000
1000
1000
1000
1000
1000
1000
1000
1000
1000
1000
1000
1000
1000
1000
1000
1000
1000
1000
1000
1000
1000
1000
1000
1000
1000
1000
1000
1000
1000
1000
1000
1000
1000
1000
1000
1000
1000
1000
1000
1000
1000
1000
1000
1000
1000
1000
1000
1000
1000
1000
1000
1000
1000
1000
1000
1000
1000
1000
1000
1000
1000
1000
1000
1000
1000
1000
1000
1000
1000
1000
1000
1000
1000
1000
1000
1000
1000
1000
1000
1000
1000
1000
1000
1000
1000
1000
1000
1000
1000
1000
1000
1000
1000
1000
1000
1000
1000
1000
1000
1000
1000
1000
1000
1000
1000
1000
1000
1000
1000
1000
1000
1000
1000
1000
1000
1000
1000
1000
1000
1000
1000
999.999
999.999
1000
1000
1000
1000
1000
1000
999.999
999.999
1000
1000
1000
1000
1000
1000
999.999
999.999
1000
1000
1000
1000
1000
1000
999.999
999.999
1000
1000
1000
1000
1000
1000
999.999
999.999
1000
1000
1000
1000
1000
1000
999.999
999.999
1000
1000
1000
1000
1000
1000
999.999
999.999
1000
1000
1000
1000
1000
999.994
984.433
943.037
1000
1000
1000
1000
1000
999.995
982.395
941.876
1000
1000
1000
1000
1000
999.995
983.091
937.455
1000
1000
1000
1000
1000
999.995
983.93
933.685
1000
1000
1000
1000
1000
999.995
985.1
933.979
1000
1000
1000
1000
1000
999.995
986.273
935.108
1000
1000
1000
1000
1000
999.996
987.463
937.579
1000
1000
1000
1000
1000
1000
1000
1000
1000
1000
1000
999.999
999.999
1000
1000
1000
1000
1000
1000
999.998
999.998
1000
1000
1000
1000
1000
1000
1000
1000
1000
1000
1000
1000
1000
1000
1000
1000
1000
1000
1000
1000
1000
1000
1000
999.998
1000
1000
1000
1000
1000
1000
1000
1000
1000
1000
1000
1000
1000
1000
1000
1000
1000
1000
1000
1000
1000
999.993
999.974
999.998
1000
1000
1000
1000
1000
999.986
999.964
999.997
1000
1000
1000
1000
1000
999.998
999.999
1000
1000
1000
1000
1000
999.999
999.993
999.997
1000
1000
1000
1000
1000
1000
999.987
999.959
999.997
1000
1000
1000
1000
1000
999.999
999.991
999.999
1000
1000
1000
1000
1000
1000
1000
1000
1000
1000
1000
1000
1000
999.862
999.962
1000
1000
1000
1000
1000
1000
999.852
999.948
1000
1000
1000
1000
1000
999.998
999.995
999.999
1000
1000
1000
1000
1000
999.984
999.982
999.995
1000
1000
1000
1000
1000
999.948
999.801
999.927
1000
1000
1000
1000
1000
999.989
999.928
999.976
1000
1000
1000
1000
1000
1000
1000
1000
1000
1000
1000
1000
999.985
999.726
999.786
999.983
1000
1000
1000
1000
999.991
999.777
999.783
999.974
1000
1000
1000
1000
1000
999.99
999.996
999.999
1000
1000
1000
1000
999.999
999.974
999.984
999.997
1000
1000
1000
1000
999.987
999.736
999.739
999.954
1000
1000
1000
1000
999.998
999.855
999.868
999.982
1000
1000
1000
1000
999.99
1000
1000
1000
1000
1000
999.999
999.999
999.954
999.351
999.889
999.999
1000
1000
999.999
999.999
999.908
999.198
999.853
1000
1000
1000
999.999
999.999
999.966
999.971
999.998
999.999
1000
1000
999.999
999.999
999.97
999.978
999.998
999.999
1000
1000
999.999
999.999
999.952
999.692
999.896
999.999
1000
1000
999.999
999.999
999.919
999.778
999.92
999.999
1000
1000
999.999
999.999
999.806
1000
1000
1000
1000
999.996
987.123
938.525
997.981
999.417
999.98
999.999
1000
999.995
987.428
939.77
997.981
999.193
999.966
999.999
1000
999.995
987.386
947.943
999.402
999.959
999.998
999.999
1000
999.995
988.133
946.975
999.744
999.978
999.997
999.999
1000
999.995
987.936
941.571
998.958
999.702
999.962
999.998
999.999
999.995
987.354
938.543
998.998
999.836
999.956
999.998
999.999
999.995
986.676
935.632
1000
1000
1000
1000
1000
1000
1000
1000
1000
1000
1000
1000
1000
1000
1000
1000
1000
1000
1000
1000
1000
1000
1000
1000
1000
1000
1000
1000
1000
1000
1000
1000
1000
1000
1000
1000
1000
1000
1000
1000
1000
1000
1000
1000
1000
1000
1000
1000
1000
1000
1000
1000
1000
1000
1000
1000
1000
1000
1000
1000
1000
1000
1000
1000
1000
1000
1000
1000
1000
1000
1000
1000
1000
1000
1000
1000
1000
1000
1000
1000
1000
1000
1000
1000
1000
1000
1000
1000
1000
1000
1000
1000
1000
1000
1000
1000
1000
1000
1000
1000
1000
1000
1000
1000
1000
1000
1000
1000
1000
1000
1000
1000
1000
1000
1000
1000
1000
1000
1000
1000
1000
1000
1000
1000
1000
1000
1000
1000
1000
1000
1000
1000
1000
1000
1000
1000
1000
1000
1000
1000
1000
1000
1000
1000
1000
1000
1000
1000
1000
1000
1000
1000
1000
1000
1000
1000
1000
1000
1000
1000
1000
1000
1000
1000
1000
1000
1000
1000
1000
1000
1000
1000
1000
1000
1000
1000
1000
1000
1000
1000
1000
1000
1000
1000
1000
1000
1000
1000
1000
1000
1000
1000
1000
1000
1000
1000
1000
1000
1000
1000
1000
1000
1000
1000
1000
1000
1000
1000
1000
1000
1000
1000
1000
1000
1000
1000
1000
1000
1000
1000
1000
1000
1000
1000
1000
1000
1000
1000
1000
1000
999.999
999.999
1000
1000
1000
1000
1000
1000
999.999
999.999
1000
1000
1000
1000
1000
1000
999.999
999.999
1000
1000
1000
1000
1000
1000
999.999
999.999
1000
1000
1000
1000
1000
1000
999.999
999.999
1000
1000
1000
1000
1000
1000
999.999
999.999
1000
1000
1000
1000
1000
1000
999.999
999.999
1000
1000
1000
1000
999.998
999.994
986.837
940.382
999.992
1000
1000
1000
999.998
999.994
984.596
932.611
999.992
1000
1000
1000
999.998
999.993
984.85
931.136
1000
1000
1000
1000
999.998
999.993
985.581
932.432
1000
1000
1000
1000
999.999
999.993
985.997
935.176
1000
1000
1000
1000
1000
999.994
986.054
936.242
1000
1000
1000
1000
1000
999.994
986.411
941.445
1000
1000
1000
1000
1000
1000
1000
1000
1000
1000
1000
1000
1000
1000
1000
1000
1000
1000
1000
1000
1000
1000
1000
1000
1000
1000
1000
1000
1000
1000
1000
1000
1000
1000
1000
1000
1000
1000
1000
1000
1000
1000
1000
1000
1000
1000
1000
1000
1000
1000
1000
1000
1000
1000
1000
1000
1000
1000
1000
1000
1000
1000
1000
1000
1000
1000
1000
1000
1000
1000
1000
1000
1000
1000
999.935
1000
1000
1000
1000
1000
1000
1000
999.966
1000
1000
1000
1000
1000
1000
1000
999.983
1000
1000
1000
1000
1000
1000
1000
999.931
1000
1000
1000
1000
1000
1000
1000
999.945
1000
1000
1000
1000
1000
1000
1000
999.853
1000
1000
1000
1000
1000
1000
1000
999.999
1000
1000
1000
1000
1000
1000
998.578
999.391
1000
1000
1000
1000
1000
1000
998.594
999.801
1000
1000
1000
1000
1000
1000
999.092
999.927
1000
1000
1000
1000
1000
1000
997.528
999.766
1000
1000
1000
1000
1000
1000
998.12
999.6
1000
1000
1000
1000
1000
1000
998.269
999.28
1000
1000
1000
1000
1000
999.396
1000
1000
1000
1000
1000
1000
1000
996.788
987.401
999.205
1000
1000
1000
1000
1000
995.01
989.575
999.856
1000
1000
1000
1000
1000
992.503
992.164
999.927
1000
1000
1000
1000
1000
990.945
988.544
999.921
1000
1000
1000
1000
1000
989.544
985.319
999.456
1000
1000
1000
999.993
1000
990.672
982.726
999.167
998.282
995.718
987.527
980.975
980.324
965.629
993.462
996.041
999.398
997.879
982.408
975.093
984.067
962.374
986.814
997.535
999.948
998.341
981.89
976.816
976.446
956.037
989.032
994.996
999.948
998.123
981.722
976.261
972.997
952.328
989.964
995.004
999.999
998.521
984.589
974.696
972.476
953.796
989.199
993.528
999.999
1000
988.399
975.388
975.354
957.854
983.186
994.378
999.998
1000
988.853
977.895
974.171
954.19
977.999
997.817
879.614
862.315
874.642
914.632
916.685
946.513
942.607
917.944
889.321
859.056
871.006
936.823
910.005
944.452
970.058
920.518
897.658
863.029
879.775
943.072
910.004
941.289
974.192
920.89
897.66
859.234
882.578
941.489
910.18
944.637
972.611
920.6
901.664
870.35
883.2
937.042
911.508
949.705
976.59
921.507
904.703
900.322
879.456
930.125
944.661
960.694
960.693
925.323
900.886
903.168
875.098
951.15
944.59
954.378
969.82
924.583
1000
1000
1000
1000
1000
1000
1000
1000
1000
1000
1000
1000
1000
1000
1000
1000
1000
1000
1000
1000
1000
1000
1000
1000
1000
1000
1000
1000
1000
1000
1000
1000
1000
1000
1000
1000
1000
1000
1000
1000
1000
1000
1000
1000
1000
1000
1000
1000
1000
1000
1000
1000
1000
1000
1000
1000
1000
1000
1000
1000
1000
1000
1000
1000
1000
1000
1000
1000
1000
1000
1000
1000
1000
1000
1000
1000
1000
1000
1000
1000
1000
1000
1000
1000
1000
1000
1000
1000
1000
1000
1000
1000
1000
1000
1000
1000
1000
1000
1000
1000
1000
1000
1000
1000
1000
1000
1000
1000
1000
1000
1000
1000
1000
1000
1000
1000
1000
1000
1000
1000
1000
1000
1000
1000
1000
1000
1000
1000
1000
1000
1000
1000
1000
1000
1000
1000
1000
1000
1000
1000
1000
1000
1000
1000
1000
1000
1000
1000
1000
1000
1000
1000
1000
1000
1000
1000
1000
1000
1000
1000
1000
1000
1000
1000
1000
1000
1000
1000
1000
1000
1000
1000
1000
999.466
1000
1000
1000
1000
1000
1000
1000
999.98
1000
1000
1000
1000
1000
1000
1000
1000
1000
1000
1000
1000
1000
1000
1000
1000
1000
1000
1000
1000
1000
1000
1000
1000
1000
1000
1000
1000
1000
1000
1000
1000
1000
1000
1000
1000
1000
1000
1000
1000
1000
1000
996.169
998.238
993.573
981.233
981.082
970.611
993.299
999.11
996.175
997.244
995.458
986.342
984.666
975.466
993.766
999.391
996.909
998.492
994.22
988.149
990.919
979.817
992.61
999.795
998.016
998.811
992.592
992.643
993.179
978.205
992.853
999.892
998.523
998.382
992.086
994.991
994.262
977.006
992.481
999.94
998.686
997.868
991.249
996.09
994.771
975.59
991.441
999.962
998.65
997.447
990.456
996.463
994.702
974.54
991.386
999.974
855.117
888.011
885.819
902.748
930.252
952.72
935.078
916.1
856.643
879.601
894.672
896.253
922.779
950.278
937.882
919.975
856.829
885.383
885.867
913.032
929.578
946.497
935.383
923.705
864.067
880.804
886.858
924.842
926.177
945.711
938.222
926.252
869.362
874.152
891.656
930.982
925.784
946.173
940.546
927.916
871.476
869.841
893.146
934.137
926.368
946.547
942.346
928.737
872.888
866.548
894.154
936.472
924.538
946.734
943.075
928.772
1000
1000
1000
1000
1000
1000
1000
1000
1000
1000
1000
1000
1000
1000
1000
1000
1000
1000
1000
1000
1000
1000
1000
1000
1000
1000
1000
1000
1000
1000
1000
1000
1000
1000
1000
1000
1000
1000
1000
1000
1000
1000
1000
1000
1000
1000
1000
1000
1000
1000
1000
1000
1000
1000
1000
1000
1000
1000
1000
1000
1000
1000
1000
1000
1000
1000
1000
1000
1000
1000
1000
1000
1000
1000
1000
1000
1000
1000
1000
1000
1000
1000
1000
1000
1000
1000
1000
1000
1000
1000
1000
1000
1000
1000
1000
1000
1000
1000
1000
1000
1000
1000
1000
1000
1000
1000
1000
1000
1000
1000
1000
1000
1000
1000
1000
1000
1000
1000
1000
1000
1000
1000
1000
1000
1000
1000
1000
1000
1000
1000
1000
1000
1000
1000
1000
1000
1000
1000
1000
1000
1000
1000
1000
1000
1000
1000
1000
1000
1000
1000
1000
1000
1000
1000
1000
1000
1000
1000
1000
1000
1000
1000
1000
1000
1000
1000
1000
1000
1000
1000
1000
1000
1000
999.905
1000
1000
1000
1000
1000
1000
1000
999.765
1000
1000
1000
1000
1000
1000
1000
999.916
1000
1000
1000
1000
1000
1000
1000
999.305
1000
1000
1000
1000
1000
1000
1000
999.952
1000
1000
1000
1000
1000
1000
1000
1000
1000
1000
1000
1000
1000
1000
1000
1000
1000
1000
998.568
996.928
989.886
996.055
993.721
971.845
990.582
999.932
998.134
995.954
990.937
993.978
992.222
970.703
989.911
999.826
994.234
992.366
994.406
986.588
985.781
973.255
989.211
999.682
994.705
994.65
993.496
986.667
983.594
967.959
991.88
999.097
997.541
995.907
990.566
982.997
982.844
971.731
997.312
998.194
998.46
996.674
991.105
978.528
983.322
976.797
993.373
998.419
998.482
995.83
991.245
976.84
980.153
977.639
996.723
998.307
875.359
864.989
893.393
934.156
925.389
947.493
942.791
927.663
873.619
865.752
891.034
922.082
933.7
948.09
939.48
926.333
857.054
871.634
892.573
899.548
947.396
949.63
936.729
923.436
861.052
876.366
883.101
910.688
940.236
949.519
936.443
921.206
873.857
863.708
873.688
911.969
917.325
941.99
938.659
920.133
880.303
858.764
870.846
912.023
916.452
934.022
946.42
919.306
880.598
854.889
870.43
910.071
913.703
932.96
943.048
918.582
1000
1000
1000
1000
1000
1000
1000
1000
1000
1000
1000
1000
1000
1000
1000
1000
1000
1000
1000
1000
1000
1000
1000
1000
1000
1000
1000
1000
1000
1000
1000
1000
1000
1000
1000
1000
1000
1000
1000
1000
1000
1000
1000
1000
1000
1000
1000
1000
1000
1000
1000
1000
1000
1000
1000
1000
1000
1000
1000
1000
1000
1000
1000
1000
1000
1000
999.601
1000
1000
1000
1000
1000
1000
1000
999.971
1000
1000
1000
1000
1000
1000
1000
999.983
1000
1000
1000
1000
1000
1000
1000
999.982
1000
1000
1000
1000
1000
1000
1000
999.999
1000
1000
1000
1000
1000
1000
1000
1000
1000
1000
1000
1000
1000
1000
1000
1000
1000
1000
1000
1000
1000
1000
995.88
998.894
1000
1000
1000
1000
1000
1000
999.338
999.625
1000
1000
1000
1000
1000
1000
1000
999.881
1000
1000
1000
1000
1000
1000
1000
999.938
1000
1000
1000
1000
1000
1000
1000
999.996
1000
1000
1000
1000
1000
1000
1000
1000
1000
1000
1000
1000
1000
1000
1000
1000
1000
1000
1000
999.933
1000
989.599
980.398
998.865
1000
1000
1000
1000
1000
992.771
985.501
999.429
1000
1000
1000
1000
999.976
995.857
991.241
999.878
1000
1000
1000
1000
999.869
996.083
993.373
999.997
1000
1000
1000
1000
999.468
996.41
997.575
999.999
1000
1000
1000
1000
999.213
997.625
998.968
1000
1000
1000
1000
1000
999.959
998.471
999.962
1000
999.997
1000
991.724
973.14
977.489
954.196
980.417
998.284
999.999
1000
987.856
978.049
978.253
948.312
978.663
997.378
999.725
999.614
985.057
981.227
978.137
945.933
979.356
996.604
999.309
998.973
984.796
982.153
978.653
945.857
980.989
996.274
998.713
998.703
983.945
980.277
981.649
948.9
980.816
998.044
998.412
999.171
985.734
983.62
984.838
947.425
980.825
999.521
997.262
999.214
991.452
982.739
982.136
960.238
987.157
999.303
899.744
906.512
875.828
947.265
943.799
961.061
972.153
927.7
894.053
900.911
872.642
945.423
944.59
954.786
968.889
924.226
884.81
891.032
870.177
940.891
946.431
945.037
960.906
923.495
878.561
887.394
869.006
935.135
949.491
943.462
955.372
921.558
873.249
883.333
865.81
934.36
961.586
941.932
942.973
918.958
870.646
886.544
864.008
938.13
969.211
933.942
937.959
921.177
861.87
894.148
873.381
911.704
953.319
947.215
931.675
917.527
847.422
786.311
777.851
784.774
857.754
966.925
999.995
548.803
369.096
364.584
405.095
624.523
867.32
999.223
290.887
254.906
255.392
255.91
419.903
792.402
995.358
253.501
280.034
300.719
255.722
394.641
773.815
992.32
299.026
255.522
256.967
256.115
407.737
781.832
996.349
501.281
347.933
341.556
374.844
583.852
861.758
999.981
798.308
720.145
712.733
722.933
830.103
967.457
999.995
605.362
662.934
649.32
551.895
558.055
788.782
997.433
456.42
392.934
384.868
320.795
398.124
602.838
963.77
252.636
253.666
254.033
254.763
325.58
571.861
931.674
252.384
253.602
255.418
254.601
346.631
599.352
918.877
255.042
254.499
254.698
254.888
315.042
569.605
935.78
427.879
385.749
407.266
322.436
386.256
601.279
965.62
596.194
635.609
638.278
557.531
562.612
782.393
996.356
267.328
390.095
396.107
332.279
411.399
758.654
998.834
252.765
263.105
262.569
253.738
255.846
528.783
972.125
251.748
252.185
252.912
253.628
252.014
456.853
935.304
250.46
252.303
253.588
252.956
251.757
454.035
915.376
252.259
252.992
253.817
253.878
252.082
452.736
929.135
253.669
252.987
269.519
253.767
255.593
502.792
962.315
263.018
363.833
388.367
311.715
363.218
691.706
994.36
664.302
658.881
669.216
679.497
770.338
927.461
994.685
580.283
473.894
461.489
464.167
608.914
854.77
980.046
543.916
401.675
379.476
390.251
542.477
812.441
970.783
568.103
427.784
455.091
413.792
524.476
788.595
975.573
531.643
376.064
349.104
375.06
540.245
817.11
984.782
504.549
424.993
415.601
418.669
582.387
859.541
990.97
579.587
615.48
623.915
629.135
721.637
918.687
993.944
715.819
650.521
625.752
588.139
505.711
341.875
115.302
723.029
721.814
719.592
690.604
607.894
448.007
188.112
723.06
723.029
697.557
695.25
645.796
519.851
269.669
723.127
693.586
576.756
629.597
640.183
572.529
328.468
724.119
721.911
610.052
641.102
639.548
569.198
316.679
725.045
722.901
684.491
664.695
629.409
520.322
267.462
721.953
649.286
630.822
605.099
556.138
439.268
212.975
1
0.999992
0.999998
1
1
1
1
2.18471
5.33954
1.89264
0.999981
1
1
1
28.7552
35.1548
35.4135
15.9044
0.999982
1
1
35.5126
48.3426
52.9939
30.0445
0.999821
1
1
29.6553
36.8598
42.4227
19.9235
0.999972
1
1
7.45095
8.98433
6.15025
0.999956
1
1
1
0.999977
0.99995
0.999984
1
1
1
1
1
1
1
1
1
1
1
1
1
1
1
1
1
1
1
1
1
1
1
1
1
1
1
1
1
1
1
1
1
1
1
1
1
1
1
1
1
1
1
1
1
1
1
1
1
1
1
1
1
1.00003
1
1
1
1
1
1
1
1
1
1
1
1
1
1
1
1
1
1
1
1
1
1
1
1
1
1
1
1
1
1
1
1
1
1
1
1
1
1
1
1
1
1
1
1
1
1
1
1
1.00004
1
1
1
1
1
1
1.00001
1
1
1
1
1
1
1
1
1
1
1
1
1
1
1
1
1
1
1
1
1
1
1
1
1
1
1
1
1
1
1
1
1
1
1
1
1
1
1
1
1
1
1
1
1
1
1
1
1
1
1
1
1
1
1
1
1
1
1
1
1
1
1
1
1
1
1
1
1
1
1
1
1
1
1
1
1
1
1
1
1
1
1
1
1
1
1
1
1
1
1000
1000
1000
999.973
999.983
1000
999.917
999.952
1000
1000
1000
999.998
999.999
1000
1000
1000
999.999
1000
1000
1000
1000
1000
1000
1000
999.999
1000
1000
1000
1000
1000
1000