/*--------------------------------*- C++ -*----------------------------------*\
| =========                 |                                                 |
| \\      /  F ield         | OpenFOAM: The Open Source CFD Toolbox           |
|  \\    /   O peration     | Version:  plus.master.MPPICInterFoam            |
|   \\  /    A nd           | Web:      www.OpenFOAM.com                      |
|    \\/     M anipulation  |                                                 |
\*---------------------------------------------------------------------------*/
FoamFile
{
    version     2.0;
    format      ascii;
    class       volVectorField;
    location    "8.8";
    object      U;
}
// * * * * * * * * * * * * * * * * * * * * * * * * * * * * * * * * * * * * * //

dimensions      [0 1 -1 0 0 0 0];

internalField   nonuniform List<vector> 
11822
(
(0.00408288 0.0035057 0.545511)
(0.00223759 0.00527413 0.567972)
(9.78186e-05 0.00635025 0.563764)
(-0.00229435 0.00685189 0.533134)
(-0.00424704 0.00599884 0.485597)
(-0.00497989 0.00450916 0.429451)
(-0.00469909 0.00311009 0.371332)
(0.00585454 0.00357514 0.6266)
(0.00348819 0.00505486 0.668451)
(-0.000401188 0.00630689 0.665701)
(-0.00441121 0.00707586 0.615333)
(-0.00639495 0.00513252 0.544416)
(-0.0067114 0.0032881 0.473525)
(-0.00615571 0.00178378 0.405145)
(0.00730254 0.00266966 0.707723)
(0.00527611 0.00549561 0.780812)
(-0.000239214 0.00548015 0.796108)
(-0.00514151 0.00458978 0.700195)
(-0.0074502 0.00272748 0.595171)
(-0.00736486 0.00111756 0.506218)
(-0.00682567 6.03237e-05 0.428945)
(0.00935225 0.000323038 0.756782)
(0.00862054 0.00336953 0.855486)
(0.000208637 0.00274505 0.855708)
(-0.00641894 0.000737348 0.73993)
(-0.0074985 -0.000702368 0.618635)
(-0.00751276 -0.00146253 0.520391)
(-0.00686578 -0.00189741 0.438621)
(0.00971136 -0.00374092 0.717181)
(0.00663243 -0.00341199 0.784781)
(-0.00055683 -0.00361504 0.780982)
(-0.00660485 -0.00490679 0.711277)
(-0.0081564 -0.00489549 0.60394)
(-0.00731977 -0.00425808 0.510733)
(-0.00643071 -0.00389255 0.431701)
(0.00654049 -0.00666155 0.640204)
(0.00420291 -0.00901484 0.687413)
(-0.000283344 -0.0101104 0.684532)
(-0.0044948 -0.00982191 0.633189)
(-0.00617854 -0.00826111 0.556319)
(-0.00604577 -0.00667935 0.480727)
(-0.00521759 -0.00559037 0.409834)
(0.00423071 -0.00648434 0.557585)
(0.00266031 -0.00847429 0.582842)
(0.000447142 -0.00967923 0.579735)
(-0.00181561 -0.00977918 0.547294)
(-0.00337773 -0.00903318 0.496575)
(-0.0038198 -0.0077644 0.437274)
(-0.00328659 -0.00668427 0.376738)
(0.00653446 0.00755781 0.549397)
(0.00322603 0.0101901 0.573929)
(-0.000425531 0.0113039 0.570825)
(-0.00435155 0.0117484 0.540423)
(-0.00752405 0.0104006 0.490576)
(-0.00851236 0.00767505 0.431611)
(-0.00777659 0.0053106 0.371357)
(0.00883084 0.00676023 0.634168)
(0.00476737 0.00946497 0.683791)
(-0.000786745 0.010307 0.683802)
(-0.00620507 0.0112407 0.629474)
(-0.00985805 0.00826208 0.554148)
(-0.0113187 0.00590547 0.478592)
(-0.0101098 0.00350504 0.406525)
(0.0111194 0.00308233 0.721731)
(0.00521835 0.00358832 0.800749)
(-0.00107838 0.00679387 0.827736)
(-0.00640474 0.00739838 0.731665)
(-0.0115566 0.00438607 0.609456)
(-0.0123142 0.00260116 0.514592)
(-0.0113359 0.00102386 0.431412)
(0.0124591 0.000175383 0.771204)
(0.010159 0.00371878 0.919699)
(0.00226694 0.00601436 0.939665)
(-0.00514558 0.00147775 0.767421)
(-0.0115192 -0.000669777 0.635373)
(-0.0122798 -0.00147192 0.52933)
(-0.0114997 -0.00187785 0.441402)
(0.0114628 -0.00396254 0.737093)
(0.0079198 -0.00074681 0.863993)
(0.00129907 -0.00103224 0.873606)
(-0.0066527 -0.00659478 0.752893)
(-0.0116087 -0.00645358 0.620059)
(-0.0118997 -0.00567464 0.518874)
(-0.01078 -0.00475825 0.433712)
(0.00883107 -0.00914487 0.648035)
(0.00560651 -0.0117458 0.708823)
(-9.94066e-05 -0.0130372 0.710955)
(-0.00616792 -0.0137225 0.650528)
(-0.00948179 -0.0112157 0.566112)
(-0.0104315 -0.00912306 0.485108)
(-0.00907046 -0.0071394 0.410319)
(0.00608029 -0.00988177 0.559489)
(0.0033065 -0.0124342 0.587424)
(6.14778e-05 -0.0138331 0.585978)
(-0.00355587 -0.0142193 0.553142)
(-0.0064295 -0.0131347 0.500456)
(-0.0072543 -0.0107529 0.438097)
(-0.00635922 -0.00870772 0.375471)
(0.00847957 0.01166 0.556185)
(0.00373751 0.0144526 0.585382)
(-0.00128343 0.0150814 0.58445)
(-0.00634838 0.0153724 0.553647)
(-0.010094 0.0138316 0.497205)
(-0.0110057 0.00974697 0.433243)
(-0.00952727 0.00652022 0.369947)
(0.0108753 0.00959252 0.649226)
(0.0052526 0.0127266 0.705124)
(-0.000995061 0.0124845 0.705433)
(-0.00749319 0.0129455 0.652421)
(-0.0131796 0.0111418 0.576526)
(-0.0150948 0.00762246 0.48461)
(-0.0126242 0.00447569 0.406869)
(0.0122358 0.00329961 0.741835)
(0.00557875 0.00222258 0.857915)
(0.000129726 0.00597397 0.840589)
(-0.00717626 0.00825864 0.763237)
(-0.0141917 0.00549297 0.632617)
(-0.0165919 0.00354092 0.526133)
(-0.0143141 0.00155057 0.433249)
(0.0109608 -0.00182689 0.769766)
(0.00748102 -0.000951292 0.863793)
(0.00497322 0.00419038 0.88313)
(-0.00217218 0.000568968 0.819891)
(-0.014392 -0.00120972 0.660844)
(-0.0165732 -0.00167096 0.543262)
(-0.0146761 -0.00192358 0.443769)
(0.00924392 -0.00599815 0.754505)
(0.00287893 -0.00353882 0.883016)
(0.00182551 -0.00195409 0.900457)
(-0.00449479 -0.00823222 0.794388)
(-0.0131368 -0.00789991 0.644125)
(-0.0155887 -0.00670745 0.530192)
(-0.013537 -0.00525323 0.435151)
(0.00971034 -0.0112974 0.661058)
(0.00565314 -0.012711 0.728503)
(-0.000215428 -0.0142968 0.735859)
(-0.00731444 -0.0148098 0.675344)
(-0.0122326 -0.0134507 0.586643)
(-0.0139349 -0.0105867 0.490487)
(-0.0114689 -0.0079001 0.409902)
(0.00756486 -0.0132624 0.564569)
(0.00353283 -0.0155799 0.596328)
(-0.000752307 -0.016886 0.597152)
(-0.00548772 -0.0171649 0.564936)
(-0.00914757 -0.0162435 0.506278)
(-0.00980518 -0.0125828 0.438576)
(-0.00815565 -0.00970148 0.372942)
(0.00975701 0.0160613 0.562877)
(0.00354396 0.0202924 0.601092)
(-0.00306317 0.0203477 0.603927)
(-0.00844392 0.0186473 0.566728)
(-0.0113839 0.0149403 0.500992)
(-0.0112931 0.00983869 0.431808)
(-0.0089708 0.00602194 0.366309)
(0.0134128 0.0153562 0.675606)
(0.00512688 0.0184965 0.73289)
(-0.00356878 0.0168948 0.735574)
(-0.0118189 0.0155968 0.686753)
(-0.0179558 0.0147962 0.596039)
(-0.0165316 0.00821155 0.487468)
(-0.0124556 0.00427668 0.404243)
(0.0133264 0.00945777 0.77421)
(0.00735727 0.0104673 0.895623)
(-0.00101506 0.00854646 0.874737)
(-0.0134064 0.0087696 0.805774)
(-0.0187252 0.0081104 0.668895)
(-0.0196923 0.00405734 0.534987)
(-0.0144733 0.00148074 0.431775)
(0.009595 -0.00228107 0.800928)
(0.00262524 -0.00272438 0.928245)
(0.00102175 0.00222102 0.935682)
(-0.010556 0.000606801 0.886378)
(-0.0186056 -0.00150978 0.694722)
(-0.020492 -0.00181856 0.555256)
(-0.0149561 -0.001977 0.44254)
(0.0100571 -0.0125654 0.787525)
(-0.000650999 -0.0128361 0.922452)
(-0.00467298 -0.00679252 0.941547)
(-0.0104183 -0.00801126 0.840394)
(-0.0163594 -0.0104357 0.677597)
(-0.0182089 -0.00727114 0.538893)
(-0.0135259 -0.00517232 0.433297)
(0.0115596 -0.0166405 0.684032)
(0.0042703 -0.0183338 0.75892)
(-0.00435651 -0.017588 0.770684)
(-0.0120226 -0.0159351 0.709107)
(-0.0166285 -0.0163177 0.608384)
(-0.0152202 -0.0109386 0.492807)
(-0.0112078 -0.0075355 0.406561)
(0.00905609 -0.0178205 0.571052)
(0.00318672 -0.0213166 0.612583)
(-0.00322959 -0.0216834 0.617188)
(-0.00843285 -0.020207 0.580844)
(-0.0108778 -0.0172949 0.510006)
(-0.0102456 -0.0124781 0.436147)
(-0.00766234 -0.00902214 0.368226)
(0.0059022 0.0093627 0.561524)
(0.00186177 0.013592 0.605975)
(-0.0028777 0.013742 0.609369)
(-0.00565244 0.0105831 0.566628)
(-0.0061423 0.0070218 0.497167)
(-0.00465629 0.0035897 0.42464)
(-0.0020314 0.000965142 0.358587)
(0.0091013 0.011324 0.702045)
(0.0032046 0.0147041 0.784483)
(-0.00475487 0.0138204 0.787895)
(-0.0111882 0.0114653 0.729165)
(-0.0120361 0.00871889 0.598819)
(-0.00814106 0.00353984 0.483044)
(-0.00421496 0.000537128 0.396361)
(0.00779802 0.0065316 0.830717)
(0.00255458 0.00760239 0.948)
(-0.00416694 0.00443947 0.960548)
(-0.0124499 0.00505318 0.860017)
(-0.014626 0.00548379 0.702194)
(-0.0107043 0.00150606 0.532917)
(-0.00540788 -0.000466206 0.423892)
(0.00620881 -0.00238343 0.9248)
(0.000707267 -0.00369994 0.950939)
(-0.00148175 -0.00266084 0.959484)
(-0.00914191 -0.000958727 0.930048)
(-0.0136381 -0.0018004 0.744321)
(-0.0115428 -0.00188548 0.554688)
(-0.00557495 -0.00192646 0.434569)
(0.00566504 -0.00968442 0.846221)
(-0.00181472 -0.0125582 0.961579)
(-0.00703351 -0.00823859 0.977354)
(-0.010674 -0.00678704 0.88909)
(-0.0119303 -0.0083048 0.71025)
(-0.00941339 -0.00489116 0.536718)
(-0.00451593 -0.00314888 0.425089)
(0.00721875 -0.0131437 0.715426)
(0.00109749 -0.0170486 0.813511)
(-0.0061848 -0.0151143 0.832111)
(-0.0103479 -0.0123241 0.753669)
(-0.0106263 -0.0109694 0.611363)
(-0.00674134 -0.00635701 0.487403)
(-0.00295751 -0.00372105 0.397886)
(0.00568391 -0.0119192 0.570229)
(0.00171584 -0.0162562 0.622085)
(-0.00337035 -0.0159765 0.627443)
(-0.00586306 -0.0131378 0.581939)
(-0.00550578 -0.00963916 0.505165)
(-0.00351794 -0.00623297 0.427668)
(-0.000748965 -0.0037634 0.359348)
(-0.00358525 -0.00681615 0.554851)
(-0.00197939 -0.00604006 0.59804)
(-0.000939518 -0.00643015 0.599734)
(0.00117148 -0.00761345 0.557814)
(0.0036605 -0.00714301 0.489972)
(0.00593231 -0.00685965 0.418115)
(0.00848684 -0.00708468 0.353557)
(-0.00332637 -0.00318119 0.698005)
(-0.000780809 0.00132157 0.797261)
(-0.00175402 -9.84867e-05 0.804723)
(-0.000469954 -0.00337261 0.720945)
(0.00311901 -0.00447626 0.590562)
(0.00621861 -0.0050143 0.475728)
(0.00878089 -0.00548872 0.389603)
(-0.00341152 -0.00282194 0.85925)
(-0.000158859 0.00591147 0.977783)
(-0.00201875 0.00536121 0.983547)
(-0.00161312 -0.00196541 0.894767)
(0.00183332 -0.0021326 0.695267)
(0.00665521 -0.00319795 0.524553)
(0.00935891 -0.00359919 0.416138)
(0.00356335 -0.00305407 0.926261)
(0.00137207 -0.00383598 0.973854)
(-0.00309015 -0.00372847 0.968993)
(-0.00700372 -0.00278053 0.950639)
(-0.000809982 -0.00169336 0.741822)
(0.00625473 -0.00180084 0.545372)
(0.00961071 -0.00173327 0.426529)
(-0.00370048 -0.00254303 0.868296)
(-0.00102756 -0.0127122 0.989734)
(-0.00391029 -0.0127942 0.99459)
(-0.00277949 -0.00413232 0.908818)
(0.00282678 -0.00149833 0.703402)
(0.00738463 -0.000253719 0.527994)
(0.00999895 0.000298693 0.417066)
(-0.00464237 -0.000688234 0.709919)
(-0.00190759 -0.00689585 0.826274)
(-0.00191166 -0.0068521 0.833933)
(0.00079155 -0.00117894 0.747014)
(0.0045238 0.000951817 0.602046)
(0.00752595 0.00200869 0.479248)
(0.0098544 0.00258674 0.390466)
(-0.0034796 0.00345706 0.560918)
(-0.00150332 0.00246683 0.612882)
(-0.000470009 0.00271659 0.618369)
(0.00188845 0.00429813 0.570878)
(0.004718 0.00424771 0.496072)
(0.00710936 0.004312 0.419733)
(0.00956732 0.00467906 0.353386)
(-0.00371002 0.00234309 0.322222)
(-0.00274913 0.00196838 0.285936)
(-0.00190123 0.00166237 0.252504)
(-0.00117552 0.00143006 0.222431)
(-0.000566082 0.00125704 0.195526)
(-8.32871e-05 0.00112528 0.170955)
(0.000272626 0.00102149 0.146473)
(0.000464989 0.000865204 0.113789)
(-0.00490428 0.00116426 0.346934)
(-0.00373354 0.000772965 0.301292)
(-0.00270776 0.000435907 0.261044)
(-0.00186257 0.000172385 0.225689)
(-0.00120029 -1.55675e-05 0.194612)
(-0.000715678 -0.000145174 0.166737)
(-0.000388065 -0.000232809 0.139607)
(-0.00020838 -0.000282035 0.104428)
(-0.00547517 -0.000414565 0.364244)
(-0.0042137 -0.00072813 0.312859)
(-0.00306994 -0.000993056 0.267885)
(-0.00212382 -0.00119799 0.228773)
(-0.00140078 -0.00134424 0.194753)
(-0.000890227 -0.00144071 0.164602)
(-0.000558829 -0.00149017 0.135706)
(-0.000367517 -0.0014375 0.0989749)
(-0.005453 -0.002168 0.371273)
(-0.00412449 -0.0023504 0.317691)
(-0.00290568 -0.00248518 0.270905)
(-0.00189621 -0.00258737 0.230339)
(-0.00112172 -0.00266352 0.19518)
(-0.000575228 -0.00271334 0.164156)
(-0.00022481 -0.0027166 0.134591)
(-3.70491e-05 -0.00254602 0.0972728)
(-0.00489504 -0.00387964 0.366238)
(-0.00347363 -0.00386763 0.314442)
(-0.00221385 -0.00383108 0.269123)
(-0.0011774 -0.00379636 0.229719)
(-0.000376346 -0.00377248 0.195451)
(0.000196022 -0.00375054 0.165093)
(0.000561995 -0.00368704 0.136014)
(0.000710567 -0.00339471 0.0990712)
(-0.00373976 -0.00526708 0.350389)
(-0.00232076 -0.0050502 0.304073)
(-0.00111716 -0.0048431 0.263219)
(-0.00012148 -0.00466854 0.227315)
(0.000668959 -0.00453291 0.195751)
(0.00125659 -0.00441777 0.167451)
(0.00164114 -0.00426786 0.139942)
(0.00174057 -0.0038719 0.104335)
(-0.00206013 -0.00610127 0.326388)
(-0.000857412 -0.00574719 0.289362)
(0.000189286 -0.00544557 0.255146)
(0.00108707 -0.00519245 0.224282)
(0.00184385 -0.00497661 0.196606)
(0.00245091 -0.00478301 0.171288)
(0.00288289 -0.00456741 0.14608)
(0.00299971 -0.00413405 0.11246)
(-0.0061344 0.00400619 0.321122)
(-0.00467137 0.003241 0.284497)
(-0.00340789 0.00262288 0.251124)
(-0.00234796 0.00212766 0.221318)
(-0.00145496 0.00172721 0.194758)
(-0.000728556 0.00139503 0.170538)
(-0.000151001 0.00112982 0.146303)
(0.000257587 0.000798733 0.113803)
(-0.00794204 0.00252337 0.346417)
(-0.00605699 0.0017946 0.300052)
(-0.00447316 0.00120592 0.259713)
(-0.00318626 0.000733768 0.224604)
(-0.00216446 0.000377546 0.193911)
(-0.00137746 0.000107138 0.166431)
(-0.000796036 -0.000103663 0.139651)
(-0.000365791 -0.000293783 0.104814)
(-0.00895845 0.000376348 0.364175)
(-0.00688372 -0.000109573 0.311731)
(-0.00508266 -0.000496394 0.266506)
(-0.00361147 -0.000800428 0.227592)
(-0.00246201 -0.00102433 0.193965)
(-0.00159552 -0.00118661 0.164242)
(-0.000967386 -0.00129752 0.135732)
(-0.000482202 -0.00132375 0.0993788)
(-0.00906826 -0.0021064 0.371243)
(-0.00691745 -0.00225171 0.316451)
(-0.00502085 -0.00235331 0.26934)
(-0.00346544 -0.00242378 0.228951)
(-0.00224544 -0.00247013 0.19419)
(-0.00132785 -0.00249443 0.163608)
(-0.000667608 -0.00247808 0.134446)
(-0.0001719 -0.00230237 0.0975253)
(-0.00831799 -0.00451385 0.365696)
(-0.00613404 -0.00427414 0.312823)
(-0.00425434 -0.00406193 0.267244)
(-0.00271469 -0.00387208 0.22804)
(-0.00150413 -0.00371692 0.194172)
(-0.00059095 -0.00358164 0.164249)
(5.92181e-05 -0.00341949 0.135566)
(0.000493265 -0.00303863 0.0990235)
(-0.0067612 -0.00644284 0.348975)
(-0.00467833 -0.00585323 0.301902)
(-0.00295392 -0.00536078 0.260941)
(-0.00154494 -0.00493905 0.225284)
(-0.000419591 -0.00459591 0.194112)
(0.000447078 -0.00430222 0.166223)
(0.0010605 -0.00399782 0.139085)
(0.00139508 -0.00345554 0.103866)
(-0.00453652 -0.00757886 0.324016)
(-0.00287032 -0.0068145 0.286604)
(-0.00143202 -0.00618185 0.25243)
(-0.000227259 -0.00564244 0.221839)
(0.000786658 -0.00517473 0.194525)
(0.0016089 -0.00475638 0.169575)
(0.00221256 -0.00434061 0.144705)
(0.00250119 -0.00370123 0.11146)
(-0.00726124 0.00481099 0.31848)
(-0.0054574 0.00377817 0.281577)
(-0.00397813 0.00299017 0.248367)
(-0.00278609 0.00239229 0.218911)
(-0.00181143 0.00192781 0.192724)
(-0.00102895 0.00154838 0.168812)
(-0.000392206 0.0012384 0.144743)
(0.000113772 0.000821078 0.112306)
(-0.00949076 0.00320369 0.344361)
(-0.00704399 0.00222681 0.297256)
(-0.00512778 0.00149578 0.256944)
(-0.00364882 0.000943382 0.222203)
(-0.0025158 0.000549087 0.191956)
(-0.00165873 0.000257492 0.164868)
(-0.00101255 1.83603e-05 0.138363)
(-0.000478833 -0.000244088 0.103691)
(-0.0108124 0.000786628 0.362649)
(-0.00805972 0.000179565 0.309013)
(-0.00583734 -0.000267026 0.263613)
(-0.00411842 -0.000597683 0.225066)
(-0.00282533 -0.000828632 0.191935)
(-0.00187024 -0.000993534 0.162662)
(-0.00116612 -0.0011166 0.134483)
(-0.000564887 -0.00118642 0.0983417)
(-0.0110401 -0.00206944 0.369807)
(-0.00816014 -0.00215886 0.313644)
(-0.00582244 -0.00221697 0.266309)
(-0.00400212 -0.00224775 0.226248)
(-0.00263118 -0.00226137 0.191985)
(-0.00162357 -0.00226079 0.16187)
(-0.000888399 -0.00222891 0.133058)
(-0.000274669 -0.00205688 0.0963709)
(-0.0100931 -0.00476858 0.363767)
(-0.00728614 -0.00433609 0.309689)
(-0.00502754 -0.0039953 0.263956)
(-0.00326333 -0.00371338 0.225086)
(-0.00193153 -0.0034958 0.191701)
(-0.000949701 -0.00331504 0.162225)
(-0.000239462 -0.00311374 0.133876)
(0.000306421 -0.00269619 0.0975634)
(-0.0082929 -0.00688937 0.346137)
(-0.00570683 -0.00601808 0.298278)
(-0.00368627 -0.00534566 0.257323)
(-0.00211432 -0.00480247 0.222024)
(-0.000908634 -0.00438303 0.191301)
(-3.93457e-07 -0.00403638 0.163808)
(0.000653194 -0.00368147 0.136959)
(0.00108392 -0.00307394 0.10194)
(-0.00574459 -0.00816034 0.320236)
(-0.00376752 -0.00709661 0.282489)
(-0.00213192 -0.00627033 0.248459)
(-0.000827093 -0.0056032 0.21822)
(0.000235541 -0.00504995 0.191293)
(0.00108093 -0.0045645 0.166673)
(0.00170605 -0.0040781 0.142036)
(0.00206038 -0.00333059 0.10895)
(-0.00625095 0.00415272 0.314788)
(-0.00433855 0.00298805 0.278441)
(-0.00283778 0.00220572 0.246099)
(-0.00172022 0.00167795 0.217544)
(-0.000859106 0.0013185 0.192149)
(-0.000212251 0.00106415 0.168846)
(0.000247968 0.000909569 0.145214)
(0.000633458 0.000611486 0.113097)
(-0.00847397 0.00278592 0.340551)
(-0.00572901 0.00167199 0.293768)
(-0.00374584 0.000965263 0.254345)
(-0.00233692 0.000503333 0.220624)
(-0.00133977 0.000225197 0.191322)
(-0.000655936 6.07929e-05 0.164993)
(-0.000230933 -3.08602e-05 0.139044)
(0.000159881 -0.000178528 0.104848)
(-0.00985735 0.000588873 0.358923)
(-0.00664804 -6.07447e-05 0.305265)
(-0.00431983 -0.000470269 0.26073)
(-0.00266413 -0.000729383 0.223219)
(-0.00152905 -0.000882825 0.191112)
(-0.000785399 -0.000970985 0.162686)
(-0.000356264 -0.00101058 0.135135)
(5.49453e-05 -0.00102341 0.099553)
(-0.0100935 -0.00203085 0.366)
(-0.00671409 -0.00205817 0.309654)
(-0.00425896 -0.00206285 0.263112)
(-0.00250632 -0.00205047 0.224143)
(-0.00131275 -0.00203487 0.190951)
(-0.000539121 -0.00201719 0.161723)
(-0.00010281 -0.00197895 0.133572)
(0.000302229 -0.0018221 0.0974901)
(-0.00907093 -0.00443309 0.359666)
(-0.00587765 -0.00385853 0.305527)
(-0.00354448 -0.00346404 0.260607)
(-0.00187389 -0.00317932 0.222819)
(-0.000727099 -0.00298923 0.190478)
(2.75441e-05 -0.00285502 0.161862)
(0.000459448 -0.00272597 0.134162)
(0.00082364 -0.00239361 0.0984578)
(-0.00726909 -0.00624277 0.341582)
(-0.00444244 -0.00518641 0.294009)
(-0.00240841 -0.00447864 0.253937)
(-0.000947734 -0.00397111 0.219672)
(8.50185e-05 -0.00362851 0.189912)
(0.000798129 -0.0033826 0.163202)
(0.00122667 -0.00316537 0.136943)
(0.00152825 -0.00270098 0.102483)
(-0.0048296 -0.00724026 0.315473)
(-0.00277319 -0.00601835 0.278255)
(-0.00116614 -0.00515811 0.245097)
(2.5327e-05 -0.00452552 0.215784)
(0.000935983 -0.00404784 0.189691)
(0.00161475 -0.00366348 0.165743)
(0.00205285 -0.00332133 0.141608)
(0.00229114 -0.00270765 0.108972)
(0.00026246 -0.000313185 0.307903)
(0.00161197 -0.00115636 0.272353)
(0.00255799 -0.00155015 0.240801)
(0.0030525 -0.00162003 0.212801)
(0.00315513 -0.00140562 0.187609)
(0.00293569 -0.000998673 0.164035)
(0.00265931 -0.000647529 0.13948)
(0.00165429 4.3636e-05 0.104928)
(-0.00090778 -0.000573922 0.333083)
(0.00114322 -0.0014635 0.287264)
(0.00247698 -0.00186124 0.248853)
(0.00320196 -0.00199051 0.215932)
(0.0033736 -0.00188557 0.187069)
(0.00309758 -0.00161917 0.160689)
(0.0027551 -0.00138916 0.133943)
(0.00148069 -0.000775597 0.0973085)
(-0.00156228 -0.00114628 0.351054)
(0.000930622 -0.00165094 0.298341)
(0.0025694 -0.00187496 0.254928)
(0.00350848 -0.00194926 0.218377)
(0.00378812 -0.00190477 0.18687)
(0.00352972 -0.00177551 0.158537)
(0.00317999 -0.0016554 0.13029)
(0.00171572 -0.00126135 0.0922501)
(-0.00156349 -0.0018965 0.357904)
(0.00108528 -0.00185619 0.302482)
(0.00283848 -0.00180445 0.257095)
(0.0038564 -0.00175528 0.219124)
(0.00417785 -0.00171887 0.186581)
(0.00393508 -0.00168974 0.157491)
(0.00359196 -0.00164589 0.128679)
(0.00204853 -0.00149869 0.090133)
(-0.000835766 -0.0024524 0.351453)
(0.00160963 -0.0018794 0.298253)
(0.00322723 -0.00155711 0.254442)
(0.00415246 -0.00138569 0.217585)
(0.00442749 -0.00135292 0.185823)
(0.00417804 -0.00141408 0.157278)
(0.00383925 -0.00143555 0.128857)
(0.00234259 -0.00153239 0.0906692)
(0.000240078 -0.00261798 0.333401)
(0.00229288 -0.00167724 0.286771)
(0.00361339 -0.00118099 0.247694)
(0.00433675 -0.000944809 0.21421)
(0.00451395 -0.000950174 0.184865)
(0.00425707 -0.00111901 0.15807)
(0.00392719 -0.00122678 0.130968)
(0.00259422 -0.0015573 0.094021)
(0.00158326 -0.00245471 0.30756)
(0.00297659 -0.00148987 0.271115)
(0.00395064 -0.000957738 0.238737)
(0.00446045 -0.000742303 0.209977)
(0.00457293 -0.000812795 0.184082)
(0.0043601 -0.00107741 0.159852)
(0.00406694 -0.00126202 0.134725)
(0.00296587 -0.00169088 0.0996125)
(0.0106012 -0.00752128 0.305793)
(0.0115877 -0.0082355 0.273183)
(0.012294 -0.00865221 0.245417)
(0.012512 -0.0087558 0.222142)
(0.0121866 -0.00847758 0.202956)
(0.0111786 -0.00772121 0.187508)
(0.00927333 -0.00636623 0.175816)
(0.00549241 -0.00373836 0.168227)
(0.011205 -0.00580379 0.329005)
(0.0127334 -0.00629244 0.28616)
(0.013747 -0.0065096 0.251495)
(0.0142287 -0.006534 0.223268)
(0.01407 -0.00630351 0.200437)
(0.0130903 -0.00572547 0.182317)
(0.0110515 -0.00467857 0.168817)
(0.00677386 -0.00257483 0.160952)
(0.0118088 -0.00383017 0.345762)
(0.0135347 -0.00407616 0.295905)
(0.0147274 -0.0041581 0.256135)
(0.0153701 -0.00415998 0.224204)
(0.0153253 -0.00405232 0.198685)
(0.0143538 -0.00378004 0.178649)
(0.0121672 -0.00327024 0.163889)
(0.00741066 -0.00219662 0.155722)
(0.0121741 -0.0016196 0.352149)
(0.0140052 -0.00150348 0.299524)
(0.0152521 -0.00141289 0.257751)
(0.0159381 -0.00136418 0.224361)
(0.0159264 -0.00135572 0.197783)
(0.0149662 -0.00137554 0.176993)
(0.0127519 -0.00140293 0.161741)
(0.00783287 -0.00137613 0.153435)
(0.0123533 0.000750317 0.345892)
(0.0140097 0.00121677 0.295548)
(0.0151238 0.00146469 0.255403)
(0.0157034 0.00155522 0.223155)
(0.0156298 0.00146653 0.197354)
(0.0146736 0.00116689 0.177067)
(0.0125455 0.000625268 0.162091)
(0.0078107 -0.000377852 0.153755)
(0.0121064 0.00310307 0.328753)
(0.0135066 0.00377369 0.285146)
(0.0144083 0.00412296 0.249854)
(0.0147957 0.00422212 0.221065)
(0.0145941 0.00401831 0.197712)
(0.0136381 0.00344491 0.17911)
(0.0116945 0.00242207 0.16518)
(0.00745303 0.000432463 0.156979)
(0.0115426 0.00525082 0.304671)
(0.0124421 0.00612334 0.271234)
(0.013038 0.00664714 0.242681)
(0.0131693 0.00681924 0.218645)
(0.0128018 0.00659664 0.198716)
(0.0118158 0.00590944 0.182545)
(0.0100062 0.00466284 0.17015)
(0.00625469 0.00217791 0.16195)
(0.00411355 -0.00473813 0.512688)
(0.00344586 -0.00351504 0.469191)
(0.00287149 -0.00242419 0.428455)
(0.00235602 -0.00153935 0.390913)
(0.00194069 -0.000746977 0.356551)
(0.00161962 -4.82045e-05 0.324432)
(0.00140237 0.000568907 0.29142)
(0.00130089 0.00112289 0.244141)
(0.00592232 -0.00497852 0.573918)
(0.00486628 -0.00384048 0.518648)
(0.00380628 -0.00293535 0.469105)
(0.00281685 -0.00234375 0.424502)
(0.0019409 -0.00182911 0.38439)
(0.00121444 -0.00135501 0.347581)
(0.000656224 -0.000877066 0.310574)
(0.00033063 -0.000274112 0.258773)
(0.00780516 -0.00320366 0.624059)
(0.00636249 -0.00273574 0.55684)
(0.00505961 -0.00244781 0.499671)
(0.00382247 -0.00232882 0.449111)
(0.00266083 -0.00222333 0.404291)
(0.00162498 -0.00208262 0.36376)
(0.000767637 -0.0018707 0.323712)
(0.000153908 -0.00143498 0.268635)
(0.00738868 -0.000916519 0.643071)
(0.00645866 -0.00145401 0.570004)
(0.00545291 -0.00180866 0.509877)
(0.00435188 -0.00204973 0.457148)
(0.00320987 -0.00223306 0.410672)
(0.00213769 -0.00236886 0.368834)
(0.00121255 -0.00245126 0.32778)
(0.000489005 -0.00238521 0.271557)
(0.00713185 0.000742349 0.617467)
(0.00640664 -0.000383458 0.551882)
(0.00550269 -0.00111808 0.49569)
(0.0045165 -0.00158094 0.445825)
(0.00351042 -0.00195614 0.401503)
(0.0025831 -0.00230087 0.361334)
(0.00178487 -0.00262565 0.321572)
(0.00114971 -0.00288889 0.266765)
(0.00603141 0.00197389 0.56438)
(0.00545574 0.000729935 0.510985)
(0.00473599 -0.00026298 0.462807)
(0.00400285 -0.000986277 0.419232)
(0.00332739 -0.00160747 0.379911)
(0.00274608 -0.00216296 0.343728)
(0.00227628 -0.00265911 0.307256)
(0.00190574 -0.00305441 0.256119)
(0.00445006 0.00194562 0.503155)
(0.00411235 0.000767625 0.461127)
(0.00381796 -0.000287842 0.421669)
(0.00355669 -0.00114374 0.385219)
(0.00335007 -0.00188855 0.351795)
(0.00319754 -0.00252109 0.320485)
(0.00309392 -0.00303314 0.288206)
(0.00296403 -0.00334446 0.241789)
(0.00617235 -0.00728108 0.511496)
(0.00512606 -0.00561961 0.466101)
(0.00417398 -0.00428199 0.424083)
(0.00334387 -0.00315101 0.385778)
(0.00265034 -0.00207444 0.351056)
(0.0020664 -0.00106638 0.318855)
(0.00161215 -0.000154531 0.285937)
(0.00127848 0.000703989 0.239051)
(0.00870946 -0.00686401 0.575607)
(0.00755459 -0.0056848 0.517277)
(0.00605066 -0.00490943 0.465848)
(0.00455819 -0.00423207 0.420033)
(0.00318608 -0.0034466 0.379259)
(0.00201151 -0.00260616 0.342175)
(0.00108097 -0.00173453 0.305131)
(0.000444559 -0.000682564 0.253612)
(0.0109305 -0.0041048 0.628249)
(0.0101093 -0.00392867 0.556646)
(0.00860438 -0.0039032 0.497234)
(0.00674367 -0.00376645 0.44522)
(0.00482158 -0.00346243 0.399558)
(0.00304516 -0.00303131 0.358633)
(0.00155456 -0.00249436 0.318462)
(0.00040601 -0.00167638 0.263594)
(0.0113334 -0.00113582 0.647473)
(0.0111238 -0.00165796 0.570321)
(0.00984185 -0.00197726 0.508019)
(0.00797419 -0.00217832 0.453798)
(0.00590529 -0.00231385 0.406372)
(0.00392933 -0.00240176 0.364139)
(0.00221865 -0.00243147 0.32295)
(0.000811159 -0.00230014 0.26687)
(0.0114248 0.00164337 0.621646)
(0.0108477 0.000702296 0.552551)
(0.00947009 0.00018062 0.494189)
(0.00769586 -0.000295377 0.442829)
(0.00582207 -0.000821626 0.397614)
(0.00407915 -0.00138855 0.357008)
(0.00259374 -0.00195097 0.317089)
(0.00137104 -0.0024787 0.262414)
(0.0094308 0.00429972 0.567478)
(0.00862923 0.00281128 0.511193)
(0.00734249 0.00179583 0.461095)
(0.00599552 0.000924718 0.416252)
(0.00472331 1.90865e-05 0.376222)
(0.00361277 -0.00088464 0.339715)
(0.00270602 -0.00173337 0.303146)
(0.00195953 -0.00250792 0.252186)
(0.00699099 0.00491742 0.503885)
(0.00616346 0.00316598 0.459925)
(0.0053965 0.00175816 0.419184)
(0.00472043 0.000612892 0.381969)
(0.00414948 -0.000435481 0.348174)
(0.00366174 -0.0013812 0.316751)
(0.00325761 -0.00218267 0.284506)
(0.00283881 -0.00277771 0.238326)
(0.00789416 -0.00991635 0.511388)
(0.00641752 -0.00746009 0.462693)
(0.00509021 -0.00567757 0.418665)
(0.00399429 -0.00432668 0.379264)
(0.00314683 -0.00304011 0.344062)
(0.00244211 -0.00179772 0.311746)
(0.00187743 -0.000662427 0.278904)
(0.00136394 0.000459692 0.23235)
(0.0111232 -0.00895483 0.580879)
(0.0100624 -0.00746471 0.517007)
(0.00795891 -0.00660079 0.462245)
(0.00590459 -0.00574482 0.414424)
(0.00411326 -0.00466522 0.372636)
(0.00264994 -0.00344147 0.33515)
(0.00152015 -0.00218857 0.298031)
(0.000651094 -0.000734395 0.24677)
(0.0126421 -0.0055373 0.636944)
(0.0134192 -0.00525263 0.559039)
(0.0116466 -0.00522484 0.495415)
(0.00902428 -0.00493137 0.440675)
(0.00638271 -0.00438374 0.393521)
(0.0040415 -0.00363147 0.351929)
(0.00214254 -0.00276664 0.311551)
(0.000606019 -0.00160656 0.256866)
(0.0136818 -0.00195716 0.656888)
(0.0151838 -0.00208275 0.574085)
(0.0136675 -0.00221043 0.507262)
(0.0108616 -0.00230348 0.450027)
(0.00787973 -0.00235813 0.400948)
(0.00517545 -0.00237513 0.357911)
(0.00291214 -0.00233707 0.316405)
(0.000991018 -0.00214245 0.260444)
(0.0142465 0.0022566 0.631405)
(0.0147462 0.00161006 0.555799)
(0.012837 0.00124802 0.493126)
(0.010145 0.000737975 0.43902)
(0.00745745 6.99625e-05 0.392302)
(0.00508817 -0.000709797 0.351018)
(0.00314938 -0.00148503 0.310862)
(0.00150221 -0.00223166 0.256325)
(0.0125909 0.00662134 0.574372)
(0.0115696 0.00467801 0.512262)
(0.00949611 0.00348814 0.458798)
(0.00747406 0.00244974 0.411957)
(0.00569426 0.00127058 0.37092)
(0.0042291 4.24746e-05 0.334003)
(0.0030601 -0.00111012 0.297329)
(0.00202589 -0.00218518 0.246532)
(0.00901024 0.00775276 0.505382)
(0.00766082 0.00508835 0.458147)
(0.0064299 0.00323041 0.415474)
(0.00542837 0.00189193 0.377218)
(0.00463682 0.000651216 0.342962)
(0.00396171 -0.000500976 0.311405)
(0.00338056 -0.00149095 0.279177)
(0.00272471 -0.00230056 0.23318)
(0.00905042 -0.0123131 0.509888)
(0.00690941 -0.00841792 0.457191)
(0.00511768 -0.00606555 0.411632)
(0.00375251 -0.00455913 0.371758)
(0.00283623 -0.00315185 0.336647)
(0.00213677 -0.0018113 0.304646)
(0.00161072 -0.000629913 0.272139)
(0.00109325 0.000531273 0.225894)
(0.0139452 -0.0124925 0.589271)
(0.01188 -0.00924193 0.515238)
(0.00865777 -0.00766198 0.456541)
(0.00593635 -0.00642115 0.407152)
(0.00385937 -0.00497223 0.364986)
(0.00235762 -0.00343139 0.327653)
(0.00130534 -0.00197134 0.290835)
(0.000483142 -0.000403547 0.239912)
(0.0168597 -0.00857556 0.655618)
(0.0172862 -0.00702141 0.562373)
(0.0136872 -0.00632328 0.4918)
(0.00968839 -0.00564172 0.434158)
(0.00631882 -0.0047131 0.386051)
(0.00370981 -0.0036323 0.344406)
(0.00180711 -0.00253016 0.304278)
(0.000325155 -0.00122553 0.249919)
(0.0192957 -0.00203167 0.679981)
(0.0205654 -0.00211109 0.580693)
(0.0167452 -0.00221473 0.505038)
(0.0120844 -0.0022837 0.444166)
(0.00806561 -0.00228384 0.393835)
(0.00489071 -0.0022392 0.350671)
(0.00251681 -0.0021475 0.309354)
(0.000612849 -0.0019055 0.253717)
(0.0182508 0.00528038 0.651565)
(0.0183618 0.00329846 0.559927)
(0.0147122 0.00229652 0.490202)
(0.0106861 0.00145563 0.43319)
(0.0072982 0.000517251 0.385532)
(0.00465668 -0.000466121 0.34421)
(0.00270556 -0.00136177 0.304269)
(0.00110765 -0.00214825 0.250019)
(0.0153777 0.0101811 0.584142)
(0.0131881 0.00634287 0.51163)
(0.0100772 0.00444735 0.4543)
(0.00740544 0.00308183 0.405978)
(0.00533285 0.00162939 0.364592)
(0.00379508 0.000205413 0.327818)
(0.00266514 -0.00103571 0.291404)
(0.00165534 -0.00211908 0.240832)
(0.0100473 0.0100345 0.505096)
(0.00811358 0.00600821 0.454148)
(0.0064168 0.00364674 0.410128)
(0.00513479 0.00220019 0.37147)
(0.00421704 0.000883251 0.337299)
(0.00348954 -0.000302305 0.306008)
(0.00289676 -0.00127333 0.274032)
(0.00220285 -0.00206535 0.228196)
(0.00460956 -0.00719619 0.50183)
(0.00276971 -0.00394436 0.446821)
(0.00124755 -0.00217426 0.40115)
(0.000278377 -0.00112993 0.361705)
(-0.000157024 -0.000243669 0.327209)
(-0.000228528 0.000420266 0.295794)
(-0.000143278 0.000993672 0.263669)