/*--------------------------------*- C++ -*----------------------------------*\
| =========                 |                                                 |
| \\      /  F ield         | OpenFOAM: The Open Source CFD Toolbox           |
|  \\    /   O peration     | Version:  plus.master.MPPICInterFoam            |
|   \\  /    A nd           | Web:      www.OpenFOAM.com                      |
|    \\/     M anipulation  |                                                 |
\*---------------------------------------------------------------------------*/
FoamFile
{
    version     2.0;
    format      ascii;
    class       Cloud<basicKinematicMPPICParcel>;
    location    "13/lagrangian/kinematicCloud";
    object      positions;
}
// * * * * * * * * * * * * * * * * * * * * * * * * * * * * * * * * * * * * * //

1129
(
(-0.0339666 0.0334908 0.17532) 785
(-0.041815 -0.00768382 0.179434) 807
(-0.044589 0.0158206 0.175024) 793
(0.0133426 -0.0408039 0.176489) 1539
(0.0146698 -0.0474784 0.175935) 1541
(0.0139855 -0.0480186 0.175136) 1541
(-0.0424516 0.00214189 0.178237) 805
(-0.034245 0.0308157 0.17825) 785
(-0.0411319 0.0214402 0.177815) 793
(-0.0116825 -0.0417302 0.1854) 1576
(-0.0286996 0.0388251 0.181314) 2337
(-0.0443902 0.0153538 0.180023) 801
(-0.00287712 -0.0487252 0.177516) 1538
(-0.0352372 0.0343081 0.190903) 810
(-0.0427258 0.0269688 0.175936) 786
(-0.038956 0.0302911 0.175619) 786
(-0.0248927 0.0376368 0.177558) 2337
(-0.0109243 -0.0432691 0.186906) 1577
(-0.00954754 -0.0433756 0.185293) 1577
(-0.0404065 0.0308763 0.176548) 786
(0.0121513 -0.0419028 0.17909) 1540
(0.0185403 -0.0413007 0.175871) 1545
(-0.0439282 0.00718888 0.177509) 801
(-0.000351184 -0.0426603 0.179255) 1537
(-0.0301561 0.0387372 0.180007) 2338
(-0.0415491 -0.00828689 0.187704) 840
(0.0160515 -0.040201 0.180068) 1544
(-0.0231284 -0.0359356 0.185999) 1560
(-0.0445806 0.00304329 0.178267) 806
(0.010914 -0.0409193 0.180964) 1539
(0.0131343 -0.045671 0.175208) 1540
(-0.000252567 -0.0448663 0.183064) 1538
(-0.0423367 0.00709459 0.177614) 800
(0.014924 -0.0448385 0.179412) 1540
(0.0138316 -0.0446658 0.177648) 1540
(-0.0111252 -0.0415701 0.190682) 1576
(-0.0409559 -0.0137516 0.179303) 807
(-0.0400377 0.0197823 0.184285) 793
(-0.000792033 -0.0471565 0.175435) 1538
(-0.00180626 -0.0455486 0.177631) 1538
(-0.0289801 0.0377625 0.182302) 2337
(-0.010198 -0.0422478 0.188375) 1576
(-0.0404671 0.017702 0.185066) 817
(0.0145342 -0.0450662 0.17867) 1540
(0.011726 -0.0460384 0.177904) 1540
(-0.0239535 0.03849 0.186378) 2385
(0.0416185 -0.0323638 0.175256) 2
(-0.0406015 -0.0121727 0.188641) 840
(-0.000782941 -0.0424275 0.18345) 1537
(-0.012755 -0.042473 0.189162) 1577
(-0.0405696 -0.0125432 0.188943) 840
(-0.0448228 0.00153161 0.178348) 806
(0.0121286 -0.0457634 0.177249) 1540
(-0.0376606 0.0209881 0.183009) 792
(0.0321201 -0.042245 0.179128) 1554
(-0.0103053 -0.0418302 0.190516) 1576
(-0.0429353 -0.001189 0.180925) 805
(-0.00142625 -0.0470665 0.178261) 1538
(-0.00121459 -0.0471358 0.177266) 1538
(0.010945 -0.0425702 0.180576) 1540
(0.0121052 -0.0457582 0.177453) 1540
(-0.0309809 -0.0288459 0.186633) 856
(0.018702 -0.0415627 0.176076) 1545
(-0.0458496 -0.00047497 0.175998) 806
(0.000693511 -0.0433593 0.177828) 1537
(-0.000958606 -0.0432955 0.177649) 1537
(-0.0471789 -0.00348176 0.176034) 806
(5.92145e-05 -0.0421727 0.183662) 1537
(0.0124907 -0.0407935 0.186912) 1592
(-0.0451516 -0.00259287 0.176216) 806
(-0.00931475 0.0514827 0.182818) 2322
(-0.040155 0.0288569 0.176567) 786
(-0.045729 0.000263998 0.177673) 806
(-0.033922 0.0293833 0.18515) 809
(-0.00105702 -0.0470117 0.18158) 1538
(-0.0395155 0.0187881 0.187277) 817
(-0.0426684 0.0119148 0.178067) 801
(-0.0403621 0.0223263 0.184338) 793
(-0.047588 0.00177822 0.176546) 806
(0.00834947 -0.0487707 0.178929) 1541
(-0.0202547 -0.0460795 0.186892) 1570
(0.000135192 -0.0472916 0.182578) 1538
(3.9918e-06 -0.0472956 0.181917) 1538
(0.0129786 -0.0450227 0.18237) 1540
(-0.0394106 0.0328065 0.177329) 786
(-0.0127026 -0.0418534 0.191685) 1577
(-0.023868 0.0370942 0.190345) 2393
(0.0152532 -0.0432075 0.187115) 1601
(0.0283854 -0.0423748 0.181311) 1554
(-0.0346191 0.0398186 0.179213) 2338
(-0.0449865 -0.000426103 0.178602) 806
(-0.0473487 0.00295598 0.180198) 806
(-0.0017371 -0.0424137 0.190621) 1584
(-0.0015421 -0.0452535 0.180261) 1538
(-0.012369 0.0446736 0.179642) 2321
(-0.00132517 -0.0423915 0.189859) 1584
(-0.0457364 5.88903e-05 0.176758) 806
(0.00677907 -0.0475847 0.178116) 1540
(-0.046933 -0.00514771 0.182164) 806
(-0.000431623 -0.0460998 0.180312) 1538
(0.0291497 -0.0379493 0.177217) 1553
(0.0187528 -0.048932 0.179471) 1546
(-0.00326236 -0.0460484 0.186014) 1585
(0.0120945 -0.0450926 0.186051) 1593
(-0.0357564 0.0357877 0.175757) 2338
(-0.0432219 0.0295703 0.176872) 786
(-0.019626 -0.0408586 0.187671) 1569
(-0.0454913 0.00194165 0.181757) 806
(-0.0453493 0.000492139 0.17731) 806
(-0.040082 -0.0133809 0.198567) 896
(-0.042264 -0.0013459 0.190083) 832
(-0.0354375 0.0300268 0.187251) 809
(0.0141295 -0.0445079 0.183182) 1540
(0.00345082 -0.0487271 0.181649) 1538
(-0.042218 0.015446 0.180823) 793
(0.0289395 -0.0415443 0.179617) 1554
(-0.0477672 0.00338018 0.182084) 806
(-0.0104149 -0.047591 0.18588) 1577
(-0.0456089 -0.00127223 0.178557) 806
(-0.0461522 0.00112142 0.179076) 806
(0.0157536 -0.0423532 0.183212) 1545
(-0.0478524 0.00290203 0.180117) 806
(-0.0203772 -0.0390618 0.18866) 1569
(0.0242392 -0.043917 0.18482) 1602
(-0.0386896 -0.0195063 0.187011) 848
(-0.0308773 0.0323729 0.192972) 2393
(-0.0381346 0.0193673 0.191517) 816
(0.0320639 -0.0383538 0.182327) 1554
(0.0148156 -0.0433623 0.192058) 1593
(-0.0434007 -0.00198287 0.18506) 832
(0.0169123 -0.0396104 0.186055) 1600
(-0.0356781 -0.0231372 0.197633) 912
(-0.040667 -0.0214289 0.186201) 849
(-0.0225132 -0.0383044 0.184862) 1569
(-0.00196974 -0.0422655 0.196419) 1640
(-0.0304869 0.0388646 0.185094) 2394
(0.0169092 -0.0512467 0.184975) 1594
(-0.0100842 -0.0416848 0.194619) 1576
(-0.00883643 0.0456577 0.180442) 2321
(-0.0238871 -0.0346294 0.199647) 1616
(-0.0230651 0.0375316 0.194073) 2385
(0.00184281 -0.0423004 0.186366) 1584
(0.00144025 -0.0477532 0.178096) 1538
(-0.0424205 0.000223119 0.19102) 832
(-0.0452792 -0.00128638 0.180555) 806
(0.0358575 -0.040308 0.176959) 1554
(0.00646541 -0.0498509 0.181817) 1541
(0.0342583 -0.0399054 0.182464) 1554
(-0.0192376 -0.0380644 0.193685) 1568
(-0.0488394 0.0136656 0.180023) 802
(-0.0321095 0.0333742 0.189899) 2393
(-0.0456131 0.000409539 0.180963) 806
(0.0175215 -0.0404539 0.184092) 1545
(0.00117433 -0.0438513 0.181685) 1538
(-0.0490566 0.0137095 0.18176) 802
(0.00824418 -0.0463965 0.188842) 1593
(-0.045231 0.00216938 0.181036) 806
(-0.0219722 -0.0381236 0.189773) 1569
(0.0133823 -0.0419253 0.192298) 1593
(0.0128537 -0.0497596 0.176978) 1541
(-0.0098137 0.0444416 0.181897) 2321
(-0.0444868 0.00132588 0.180914) 806
(0.00183366 -0.046849 0.175921) 1538
(-0.0335853 0.0380603 0.183289) 2338
(-0.0416768 0.028182 0.180568) 786
(-0.0458416 0.0170882 0.178989) 793
(-0.00500265 -0.0479492 0.175993) 1538
(0.0314337 -0.037146 0.176085) 1553
(-0.0219282 -0.0375449 0.191894) 1568
(0.0121315 -0.0494312 0.179173) 1541
(-0.0106972 -0.0462131 0.185343) 1577
(-0.0295946 -0.037108 0.19156) 1561
(-0.0273015 0.0335595 0.191328) 2392
(0.0121161 0.0471256 0.175881) 2305
(-0.0110243 -0.0474003 0.1902) 1577
(0.0400915 -0.0313454 0.184184) 2
(0.0141368 -0.0425107 0.190825) 1593
(-0.0409597 -0.0206672 0.186802) 849
(-0.039624 0.0156601 0.195189) 872
(0.0405126 -0.0301454 0.187078) 58
(-0.0435747 0.0185921 0.177355) 793
(-0.01305 -0.0451196 0.186101) 1577
(-0.0128849 -0.04476 0.186554) 1577
(-0.0321895 0.0362503 0.190979) 2393
(0.0063527 -0.0460022 0.180254) 1540
(-0.000683898 -0.0477808 0.176808) 1538
(-0.00669933 0.0448112 0.175989) 2321
(-0.0147357 0.0492725 0.178348) 2322
(0.0122299 -0.0482754 0.181679) 1541
(-0.0260878 -0.0359625 0.187316) 1561
(-0.0378779 0.0225154 0.193572) 817
(-0.0111558 -0.0451739 0.185988) 1577
(-0.0203601 0.0433627 0.17743) 2329
(-0.0153815 0.0430051 0.183489) 2329
(0.0208646 0.0446913 0.179847) 2298
(0.00399076 -0.0481007 0.177786) 1538
(0.0153786 -0.0493457 0.181853) 1541
(-0.0406316 -0.0123555 0.196695) 896
(-0.0233382 -0.0353296 0.200932) 1616
(-0.0192684 -0.0426711 0.191589) 1569
(-0.0493292 0.00574308 0.181693) 802
(0.00843668 -0.045429 0.192204) 1593
(-0.0375907 0.0213982 0.193047) 816
(-0.0356441 0.0279184 0.184549) 785
(-0.00171379 -0.0536417 0.185412) 1586
(-0.00859076 0.0433918 0.185688) 2377
(0.00668221 -0.0482441 0.184079) 1540
(0.00938846 -0.0437029 0.193061) 1593
(-0.0104892 -0.0454421 0.187123) 1577
(-0.0244541 -0.0343158 0.203422) 1616
(-0.0100502 -0.0452493 0.191791) 1577
(0.00168194 -0.0458603 0.18245) 1538
(0.0341222 -0.0369727 0.18805) 1610
(-0.0435311 9.10303e-05 0.189518) 833
(-0.0204108 0.0425108 0.183747) 2329
(-0.0194635 -0.0434479 0.192103) 1569
(-0.0105665 -0.0443238 0.188767) 1577
(-0.0454311 0.0156424 0.186855) 825
(-0.0235584 0.0421943 0.175109) 2329
(0.0102056 -0.0465675 0.17997) 1540
(-0.0145857 0.0396578 0.188451) 2384
(-0.0206955 -0.0374258 0.200732) 1624
(-0.0222003 -0.0372999 0.187638) 1568
(0.0280696 -0.0388069 0.187906) 1609
(0.0401863 -0.0301857 0.190184) 58
(-0.0470282 0.00807876 0.179878) 801
(0.0441904 -0.00883758 0.179339) 17
(0.015159 0.0458981 0.177197) 2305
(0.00214616 -0.0509485 0.187723) 1586
(-0.0122015 0.0422159 0.187202) 2377
(-0.025711 0.0343201 0.197405) 2448
(-0.0113763 -0.0436109 0.191268) 1577
(0.0151477 -0.0438659 0.190228) 1593
(0.0181009 -0.0421793 0.182898) 1545
(0.00469545 -0.0485335 0.184508) 1538
(-0.0125144 0.042323 0.187128) 2377
(0.0444403 -0.00845766 0.179334) 17
(-0.0363439 0.0279953 0.196194) 865
(-0.0309565 0.0292208 0.199355) 864
(-0.0448529 0.000942611 0.187937) 833
(-0.0404167 0.0264726 0.190515) 809
(-0.0306879 0.0361271 0.191501) 2393
(-0.0366781 0.0301432 0.186834) 809
(0.00986355 -0.041066 0.197804) 1648
(-0.0198381 -0.0443562 0.195121) 1625
(-0.0451291 0.00476501 0.181852) 806
(0.0332084 -0.0359866 0.185778) 1610
(0.0441589 -0.00834604 0.181549) 17
(-0.0191901 -0.039533 0.196397) 1625
(-0.00310829 0.0468986 0.176862) 2313
(-0.0414394 -0.00897295 0.198403) 896
(-0.0447312 0.000294783 0.183928) 806
(-0.0316579 0.0333865 0.189619) 2393
(-0.0129972 -0.0401218 0.202137) 1632
(0.0270658 -0.0395332 0.189984) 1609
(0.0329351 -0.039779 0.188902) 1610
(-0.0118199 -0.0443065 0.192711) 1577
(-0.0379979 -0.0281813 0.188493) 857
(0.0284207 -0.0359294 0.186224) 1609
(-0.0288627 -0.0357513 0.194231) 1561
(-0.00957259 -0.0441103 0.195067) 1633
(-0.0130512 -0.0446031 0.193451) 1577
(-0.0113425 -0.0436839 0.192842) 1577
(-0.010921 -0.0450087 0.18923) 1577
(-0.0202393 0.0480054 0.189792) 2386
(-0.0327627 0.0298783 0.199632) 865
(-0.00386227 -0.0450498 0.191529) 1585
(-0.0507622 0.00217136 0.185564) 834
(-0.00984934 -0.0486833 0.190036) 1578
(0.029826 -0.0362884 0.188935) 1609
(-0.0461408 0.0117264 0.183731) 801
(-0.030163 -0.039875 0.185518) 1562
(-0.0344683 0.0383319 0.189551) 2394
(0.039257 -0.0318509 0.190874) 58
(0.037571 -0.0290541 0.181103) 1
(-0.00795694 0.0418115 0.18843) 2376
(-0.021606 -0.0382307 0.193825) 1569
(-0.0357627 0.0279684 0.198124) 865
(0.0101694 -0.0480756 0.187522) 1594
(-0.0112584 -0.0498394 0.186855) 1578
(-0.0403478 -0.018226 0.195129) 905
(-0.0207966 -0.0470253 0.189312) 1570
(0.00440631 -0.0471959 0.181569) 1538
(-0.0100346 -0.0414854 0.203044) 1632
(-0.0313622 -0.0280187 0.199659) 912
(0.00839893 -0.0455766 0.199541) 1649
(-0.0380067 0.0187725 0.200496) 872
(-0.0353634 0.0279186 0.198106) 865
(0.0453376 -0.025441 0.175056) 10
(-0.0109831 -0.0437453 0.197121) 1633
(0.0322975 -0.0394808 0.190983) 1610
(-0.0376566 -0.0268372 0.195105) 913
(-0.0113182 -0.044195 0.194117) 1577
(0.00120898 -0.0498429 0.192725) 1586
(-0.0498841 -0.0101066 0.185181) 842
(-0.0469074 -0.0203324 0.189699) 850
(-0.0415973 -0.019523 0.19189) 849
(0.0134973 -0.0414201 0.193533) 1592
(-0.00999957 -0.0461787 0.192251) 1577
(0.00125073 0.0476935 0.181769) 2313
(0.0447823 -0.0227203 0.179786) 10
(-0.0422191 0.00232837 0.198178) 888
(-0.00197637 0.0428027 0.183861) 2312
(0.014931 -0.0438523 0.192122) 1593
(-0.00745191 -0.045777 0.187031) 1577
(-0.0227191 0.0427653 0.179237) 2329
(0.02782 -0.0369476 0.186031) 1609
(-0.0462501 0.0121004 0.18592) 825
(0.0375188 -0.0294443 0.183028) 1
(-0.0317478 -0.028039 0.203154) 912
(-0.0219916 -0.0363019 0.211657) 1680
(-0.0115442 -0.0431015 0.193847) 1577
(-0.0313129 0.0298211 0.203766) 864
(-0.0162635 0.0445779 0.183624) 2329
(0.0140753 0.0462566 0.182993) 2305
(0.00452382 -0.0478733 0.188272) 1585
(-0.0471299 0.0129464 0.188019) 826
(0.00975517 -0.0411373 0.199962) 1648
(-0.0370035 -0.0267456 0.195242) 913
(0.0498962 -0.0139585 0.179867) 18
(0.0200855 -0.0413062 0.187961) 1601
(-0.0365173 -0.0298324 0.185617) 857
(0.016466 -0.045086 0.187591) 1601
(0.00597446 -0.0423127 0.199825) 1648
(-0.0115382 0.0460057 0.184687) 2321
(-0.0382258 0.0230913 0.190993) 817
(-0.0465787 -0.0195373 0.185168) 850
(-0.012293 -0.0405407 0.216579) 1744
(-0.0110684 0.0416155 0.191574) 2376
(-0.0112186 -0.0429564 0.201295) 1633
(-0.0504789 -0.00982732 0.191173) 842
(0.036415 -0.0390946 0.188809) 1610
(0.000148447 -0.0434322 0.199566) 1640
(-0.0341177 0.0281129 0.201531) 865
(-0.0169225 0.0421537 0.186883) 2385
(0.00876691 -0.0451892 0.186841) 1593
(-0.0401915 -0.0135774 0.202744) 896
(-0.0382351 0.0230064 0.205295) 929
(-0.0432507 0.00197123 0.194843) 888
(0.00815724 -0.0450604 0.198957) 1649
(-0.0447019 0.00349091 0.192481) 833
(0.00965736 0.0464543 0.18402) 2305
(0.0559152 -0.00541285 0.178185) 27
(-0.0273967 0.0349934 0.203918) 2449
(-0.020413 0.0404893 0.1877) 2385
(0.0112047 -0.0404392 0.201518) 1648
(-0.0331018 0.0344512 0.193297) 2393
(-0.0461497 -0.020464 0.190336) 850
(-0.0225143 -0.0363571 0.200133) 1624
(-0.0103568 -0.043899 0.194933) 1633
(-0.00142349 -0.0449297 0.193669) 1585
(0.00308375 0.048754 0.187569) 2370
(-0.0325678 0.0360553 0.191686) 2393
(-0.0142941 -0.0418364 0.203496) 1633
(0.0426859 -0.00733067 0.188602) 72
(0.013175 -0.0425201 0.202112) 1649
(-0.00350919 -0.0446297 0.194587) 1585
(0.0490098 0.010851 0.176645) 34
(-0.0515984 -0.0072026 0.186212) 842
(-0.037707 -0.0293434 0.185797) 857
(0.0419479 -0.0221999 0.178621) 9
(-0.00985569 0.0413739 0.194676) 2376
(-0.00951506 0.0417176 0.193367) 2376
(-0.0438261 -0.00248297 0.19366) 833
(-0.0409815 -0.0195836 0.194496) 849
(-0.0327523 -0.0275708 0.196524) 912
(-0.0194322 -0.0381625 0.201212) 1624
(0.0394177 -0.0306109 0.196891) 114
(-0.00968069 -0.0453243 0.187601) 1577
(-0.0493429 -0.0100206 0.186802) 842
(-0.0118296 -0.0408605 0.212762) 1688
(-0.00994892 -0.0412496 0.207026) 1688
(-0.0328255 0.0267158 0.207167) 920
(-0.0317546 0.0307105 0.205027) 921
(-0.0243083 -0.0361659 0.197839) 1616
(-0.00830263 0.0411605 0.193327) 2376
(-0.0121479 -0.0435482 0.194305) 1577
(-9.21203e-06 0.0460061 0.183422) 2313
(-0.0125677 -0.0494384 0.185792) 1578
(-0.0285789 -0.0326301 0.194701) 1616
(-0.0387294 0.0242756 0.195437) 873
(-0.00959972 0.0471803 0.182495) 2321
(-0.0300201 0.0343122 0.187991) 2393
(-0.0412457 -0.00948534 0.204028) 896
(-0.000157934 -0.0421119 0.197595) 1640
(0.0252614 -0.0430208 0.195728) 1658
(-0.0177511 0.0465733 0.180071) 2330
(-0.0376951 -0.0258208 0.20027) 913
(0.0442098 -0.00702594 0.183536) 17
(0.0295572 -0.0361266 0.194124) 1609
(0.0420556 -0.0221986 0.179101) 9
(-0.0241068 0.0344045 0.209759) 2504
(-0.0188021 -0.0385794 0.204739) 1680
(-0.0354462 -0.0228968 0.214888) 1024
(-0.0517278 -0.0102957 0.187981) 842
(-0.0503386 0.000543337 0.185809) 834
(-0.00937648 -0.0435772 0.201097) 1633
(-0.0325664 0.0272376 0.198566) 864
(-0.0512787 -0.010351 0.18853) 842
(0.0471348 -0.0138005 0.187395) 74
(-0.0115404 -0.0428672 0.196414) 1633
(0.0538726 -0.0077888 0.179761) 19
(0.0036064 -0.0480957 0.195233) 1641
(-0.00947157 0.0462122 0.183704) 2321
(0.0470623 -0.0137679 0.187625) 74
(-0.00752136 -0.0457309 0.192747) 1577
(-0.0515277 -0.00793997 0.189024) 842
(-0.0486998 0.00202142 0.188344) 833
(-0.0226737 -0.0461661 0.195304) 1626
(-0.0229167 -0.0486396 0.189482) 1570
(-0.0410422 -0.00878197 0.203481) 896
(-0.00900875 0.041244 0.186594) 2376
(0.0124795 -0.0487849 0.195181) 1650
(-0.0472876 -0.022052 0.187635) 850
(-0.0196747 -0.0464291 0.18842) 1570
(-0.0342653 -0.0271449 0.201594) 913
(0.0084688 -0.0443833 0.204758) 1705
(-0.00452701 0.0441525 0.188576) 2369
(-0.0428239 -0.0110523 0.18789) 841
(-0.0507258 0.000906496 0.190108) 834
(-0.0231678 -0.0409051 0.186108) 1569
(-0.0282397 -0.0322763 0.196226) 1616
(0.0429682 -0.0225525 0.184407) 9
(-0.0094069 -0.049366 0.196406) 1634
(0.0438614 -0.022451 0.17972) 10
(-0.011781 -0.0511916 0.188843) 1578
(0.0434849 -0.0222596 0.182056) 10
(-0.0520238 -0.00814888 0.187806) 842
(-0.0391903 -0.0284415 0.18811) 857
(0.0427997 -0.0077138 0.190524) 72
(0.0115506 -0.0431079 0.200427) 1649
(0.00206794 -0.0456211 0.194119) 1585
(-0.0438958 -0.00976901 0.188474) 841
(-0.0323581 0.0357594 0.196196) 2449
(-0.0228077 0.0350884 0.221236) 2560
(0.0212761 -0.0408662 0.196608) 1657
(-0.0462038 -0.0220168 0.188653) 850
(0.0119295 -0.0420492 0.207401) 1705
(0.0226479 -0.0432553 0.201061) 1658
(0.0061131 0.0445949 0.190775) 2361
(-0.0136699 -0.0433879 0.196936) 1633
(0.0211236 -0.0406698 0.196053) 1657
(-0.00978628 -0.0459377 0.194083) 1577
(-0.0292521 -0.0390495 0.195025) 1618
(-0.0492535 -0.0222427 0.191091) 850
(0.0296981 -0.0369285 0.198235) 1665
(-0.049475 0.00242994 0.191234) 834
(-0.0317541 0.0268335 0.215817) 976
(-0.010672 -0.0422698 0.204706) 1689
(-0.0317543 0.0285467 0.208582) 920
(-0.00699929 0.0439792 0.189533) 2377
(-0.0535864 -0.00834703 0.188997) 843
(-0.00435027 0.0497408 0.182376) 2314
(-0.009417 -0.0417301 0.206879) 1688
(0.0109485 -0.042155 0.208101) 1705
(-0.0103709 -0.0427562 0.203672) 1633
(-0.0311754 0.0315039 0.204624) 2505
(0.00200444 0.0508591 0.181797) 2314
(-0.0304334 0.0311081 0.210307) 2504
(-0.00226009 -0.0533459 0.192796) 1586
(-0.0209279 0.0402343 0.196245) 2441
(0.0118518 -0.04192 0.20564) 1705
(-0.0533246 0.00207967 0.194058) 834
(0.0550116 -0.010103 0.178466) 19
(-0.0398287 -0.0282244 0.189224) 857
(-0.0100063 -0.0430007 0.20397) 1633
(-0.0127789 -0.0412743 0.205824) 1688
(-0.0132228 0.0405428 0.203751) 2432
(-0.0275705 0.0334518 0.206166) 2504
(-0.0404283 -0.012189 0.208693) 952
(-0.0225999 0.0355784 0.222833) 2560
(-0.00113726 -0.0440006 0.201036) 1641
(-0.0466009 -0.0203544 0.197859) 906
(-0.0510427 -0.00864125 0.19625) 898
(-0.0225879 -0.0437438 0.193151) 1570
(-0.00614611 0.0473352 0.185763) 2377
(-0.00614197 -0.0525736 0.18494) 1578
(-0.0327915 -0.0268315 0.206703) 968
(-0.0414206 -0.0094277 0.20021) 896
(-0.00431997 -0.0442748 0.201192) 1641
(-0.0239064 -0.0379065 0.196227) 1617
(-0.00617451 0.0449454 0.184797) 2321
(-0.0504914 0.00319232 0.196593) 890
(-0.0400313 -0.0139636 0.21791) 1008
(-0.0495193 0.00268094 0.196211) 890
(-0.0457232 -0.0096109 0.192494) 841
(0.00416076 0.0522428 0.180651) 2314
(0.00613362 0.0438534 0.192938) 2361
(-0.0370952 -0.0286896 0.19534) 913
(-0.0453963 0.0141745 0.198066) 881
(-0.0100962 -0.0446419 0.191655) 1577
(-0.0379467 -0.0218818 0.20361) 905
(-0.0277426 0.0359245 0.201447) 2449
(-0.029269 -0.0384317 0.198114) 1617
(-0.00849958 -0.0438488 0.208471) 1689
(0.0421718 -0.00899597 0.194336) 72
(-0.0453311 -0.0209853 0.19382) 850
(-0.0210956 -0.0447466 0.194244) 1570
(-0.0281278 -0.0319767 0.210467) 1672
(-0.0168747 -0.0420803 0.205832) 1681
(0.0444085 -0.006902 0.189001) 73
(-0.0169805 -0.0416199 0.202046) 1625
(-0.00861632 0.0476064 0.189913) 2377
(-0.00588591 0.0500415 0.192953) 2378
(-0.0465273 -0.0196263 0.194457) 850
(-0.0139149 0.0469984 0.184505) 2322
(-0.00441355 0.0524638 0.179805) 2314
(-0.0413384 -0.00778888 0.20998) 952
(-0.0231325 -0.0354299 0.210897) 1672
(0.0162761 0.0446419 0.19231) 2353
(-0.00351903 -0.0417691 0.228821) 1808
(0.00294375 0.0470198 0.187833) 2369
(-0.047062 0.00349082 0.194312) 833
(-0.029474 0.035818 0.20399) 2449
(-0.0203305 0.0384097 0.19634) 2440
(-0.0389893 -0.0203079 0.204885) 961
(-0.0218252 0.0361294 0.223118) 2552
(0.0537614 0.00131838 0.180462) 26
(-0.0482443 0.00379994 0.194446) 833
(0.008188 -0.0432545 0.209261) 1705
(0.0102832 -0.0413693 0.211729) 1704
(0.0139139 -0.0470125 0.202358) 1650
(-0.0132961 0.0399764 0.214634) 2544
(-0.020159 0.0432472 0.196445) 2441
(-0.050237 -0.00874622 0.198005) 898
(-0.0504493 -0.00882672 0.198732) 898
(-0.0222862 -0.0438349 0.196364) 1626
(0.0439062 -0.00790197 0.192467) 73
(0.00063322 -0.0537412 0.193554) 1586
(0.00409006 0.0485454 0.192884) 2369
(-0.0459802 -0.019704 0.197182) 906
(0.0123617 -0.0482961 0.204096) 1650
(-0.0203111 -0.0430635 0.194948) 1625
(0.0103892 -0.0416106 0.213042) 1704
(-0.0108151 -0.0414668 0.208828) 1688
(-0.019446 -0.0436062 0.212797) 1681
(-0.022218 -0.0439574 0.200197) 1626
(-0.00233111 0.0475202 0.188794) 2369
(0.00164186 -0.0464316 0.201266) 1641
(-0.025523 -0.0345789 0.207791) 1672
(-0.0421793 0.0018777 0.207206) 944
(-0.0483018 0.00226639 0.199287) 889
(0.0026382 -0.0482599 0.199724) 1641
(-0.0238075 0.0345133 0.21529) 2560
(-0.0100468 -0.0472362 0.199182) 1633
(0.0473633 -0.0151832 0.183114) 18
(-0.00976096 0.0409346 0.201456) 2432
(-0.00326066 -0.0421475 0.21278) 1696
(-0.010633 -0.0414544 0.209795) 1688
(-0.0103382 -0.047619 0.199991) 1633
(-0.0106596 -0.0409297 0.216074) 1744
(-0.0273918 -0.0329595 0.20909) 1672
(-0.0247812 0.0340845 0.211786) 2504
(-0.0440271 -0.00623994 0.198928) 897
(-0.000808682 -0.0435143 0.205906) 1697
(0.0440146 -0.00730138 0.194215) 73
(-0.0363849 -0.0232768 0.208287) 968
(0.00601322 0.0428708 0.196218) 2416
(0.0442442 -0.00894479 0.184178) 17
(-0.0131492 -0.0457025 0.194283) 1577
(0.0433149 -0.00754126 0.195977) 129
(-0.00898333 0.0434653 0.194725) 2433
(-0.0485095 -0.0084033 0.196966) 898
(-0.0490785 -0.00926297 0.195699) 898
(-0.0211489 0.0390271 0.202072) 2441
(-0.0144291 -0.0408293 0.21215) 1680
(-0.0433216 0.0034452 0.203624) 888
(-0.00999422 -0.0476201 0.200309) 1633
(0.00790827 -0.0460121 0.191528) 1593
(-0.00768888 -0.0455777 0.202215) 1633
(-0.0337735 0.0357384 0.206839) 2506
(0.0115588 -0.0466296 0.198724) 1649
(0.00922796 0.044936 0.195349) 2417
(0.0235047 -0.0416834 0.204158) 1657
(0.0257468 -0.0370842 0.202535) 1665
(0.0549196 0.000350923 0.19083) 83
(-0.0497747 0.00249045 0.206705) 946
(-0.010596 -0.0457506 0.198495) 1633
(0.00395266 0.0465652 0.187093) 2369
(0.0100845 -0.04155 0.212266) 1704
(-0.0105605 -0.0451989 0.202852) 1633
(-0.00960718 -0.0424932 0.208315) 1689
(-0.0124385 -0.0413387 0.20785) 1688
(-0.0118333 -0.0468504 0.196778) 1633
(-0.015986 0.0430136 0.196043) 2441
(-0.0297891 -0.0341422 0.203464) 1617
(0.012704 0.0423744 0.188585) 2361
(0.0232197 -0.0423552 0.206878) 1713
(-0.042629 -0.0183331 0.212974) 961
(-0.0425174 0.00134321 0.207646) 944
(-0.0386715 0.0240936 0.21076) 929
(-1.85899e-05 0.0484731 0.1956) 2425
(0.000221583 0.0480727 0.189957) 2369
(-0.0328554 -0.026506 0.20931) 968
(-0.0422534 -0.00225774 0.209247) 944
(0.00574368 0.0472028 0.195233) 2417
(-0.0203422 -0.04369 0.206311) 1681
(-0.01086 -0.0475519 0.202332) 1634
(-0.0252229 -0.034192 0.210823) 1672
(0.00889374 -0.0421326 0.213325) 1704
(-0.0104795 0.0446375 0.195509) 2433
(-0.0279806 0.0347696 0.207783) 2505
(0.00249502 0.0429023 0.19871) 2424
(0.0100869 0.0462789 0.193609) 2361
(-0.018745 -0.042493 0.19801) 1625
(-0.0300627 -0.0365362 0.207442) 1673
(-0.0431588 -0.0103707 0.197847) 897
(0.00937618 -0.0416256 0.21693) 1760
(-0.00589659 0.0451028 0.199892) 2433
(-0.0317762 0.0321713 0.206769) 2505
(-0.0442457 -0.0189963 0.201149) 905
(-0.0370641 -0.0204066 0.214486) 960
(-0.0184514 0.0420895 0.200139) 2441
(0.0119313 -0.0429634 0.206941) 1705
(-0.0491274 0.0021101 0.208838) 946
(-0.0434502 0.00100585 0.199148) 888
(-0.00996073 -0.0460383 0.201182) 1633
(0.0228716 -0.0409341 0.205007) 1713
(-0.0430688 -0.0193849 0.200863) 905
(0.0434397 -0.0239722 0.18949) 66
(0.000806899 -0.0467143 0.208601) 1697
(0.00108784 -0.0481579 0.199584) 1641
(0.0127027 -0.0418346 0.205309) 1705
(-0.00945964 -0.045655 0.203722) 1633
(-0.0320578 -0.0262058 0.224332) 1024
(-0.024438 -0.0334597 0.22599) 1784
(0.045147 -0.00882115 0.19433) 73
(0.0218519 -0.0420113 0.211683) 1713
(-0.0213354 -0.0415263 0.20597) 1681
(-0.0383574 -0.0198109 0.208751) 960
(-0.0218977 -0.0431565 0.205322) 1681
(0.000585766 -0.0425275 0.208943) 1696
(0.0178745 -0.0428626 0.207203) 1713
(-0.0466887 -0.00894158 0.202204) 897
(-0.0280266 -0.0346504 0.212701) 1673
(0.000776443 -0.0424241 0.209318) 1696
(0.00328448 0.0474537 0.201039) 2425
(-0.0294176 -0.0371079 0.208929) 1673
(-0.0477231 0.00129732 0.202732) 889
(-0.0364076 -0.0264059 0.21499) 1025
(-0.0475825 -0.00902382 0.205557) 953
(-0.0447592 -0.00911453 0.199783) 897
(-0.0379293 -0.0189987 0.215151) 1016
(-0.0113429 0.040118 0.217096) 2544
(-0.0114356 0.0400922 0.21755) 2544
(-0.0418414 -0.00887245 0.208219) 952
(-0.036582 -0.0231565 0.205495) 968
(0.0148242 -0.0448546 0.206537) 1705
(0.019573 -0.0412623 0.206003) 1713
(-0.0370116 -0.0275447 0.206403) 969
(-0.0237011 0.0380163 0.212825) 2497
(-0.0124041 0.0442718 0.199903) 2433
(-5.9354e-05 -0.0440733 0.205438) 1697
(-0.0105503 0.0401254 0.2175) 2544
(-0.0271329 -0.0344347 0.21187) 1673
(-0.021912 0.0409874 0.198793) 2441
(0.000943541 -0.0466282 0.210402) 1697
(-0.0237258 0.0366708 0.211097) 2504
(-0.042409 0.00118177 0.214005) 944
(0.0115074 -0.0473507 0.214475) 1705
(-0.0424318 0.00106703 0.210488) 944
(-0.0220276 0.0434709 0.204226) 2441
(-0.037195 -0.0283334 0.204772) 969
(0.00108923 -0.0484702 0.210552) 1697
(0.000915981 -0.047267 0.204589) 1641
(-0.0215341 -0.0391633 0.201302) 1625
(0.00419798 -0.0528326 0.202268) 1642
(-0.0109562 -0.0412663 0.21674) 1744
(-0.0138401 -0.0398524 0.232341) 1800
(-0.0029647 -0.0413698 0.230759) 1808
(-0.0408581 -0.0122783 0.211703) 952
(-0.0407219 -0.00882794 0.222045) 1008
(-0.0210662 0.0374078 0.21008) 2496
(-0.0087949 -0.0415572 0.221889) 1744
(0.00991242 -0.0408523 0.215511) 1760
(-0.0221043 0.0432038 0.200572) 2441
(-0.0387245 -0.0294678 0.209222) 969
(-0.0129211 -0.0402805 0.232777) 1800
(-0.000196741 -0.0443475 0.209441) 1697
(-0.0378171 -0.0188831 0.217184) 1016
(-0.0223116 -0.0350066 0.241032) 1840
(0.00193363 -0.0461135 0.209464) 1697
(0.000469714 -0.0482141 0.21429) 1697
(0.00496869 0.0443708 0.205507) 2481
(-0.011218 0.0432303 0.203441) 2433
(0.00612958 0.0457106 0.204708) 2473
(-0.041221 -0.00869875 0.218969) 1008
(-0.0283044 0.0331955 0.213764) 2505
(0.0473673 -0.0155627 0.197387) 130
(-0.00510197 -0.0428223 0.21518) 1744
(0.00043886 -0.0457911 0.211027) 1697
(0.0170101 -0.0459214 0.209557) 1714
(-0.0193713 0.0427393 0.206965) 2497
(-0.0110734 -0.0429455 0.21224) 1689
(-0.0356266 -0.0261525 0.220776) 1025
(-0.00463315 -0.0424713 0.221532) 1752
(0.0126295 -0.0450576 0.214454) 1705
(-0.0522948 -0.0145702 0.205395) 955
(-0.0110713 0.0471934 0.199857) 2433
(0.00972659 -0.0422178 0.218944) 1760
(0.00434454 0.0438545 0.208333) 2481
(-0.0218196 -0.0359236 0.234012) 1792
(-0.00970973 0.0441454 0.205386) 2489
(-3.26461e-05 -0.0487712 0.208548) 1698
(-0.00851976 0.0409565 0.213056) 2488
(0.00523311 0.044611 0.208128) 2473
(-0.0253616 -0.0351499 0.209711) 1672
(-0.0371476 -0.0281541 0.210397) 969
(-0.0404697 -0.00884555 0.231209) 1064
(-0.00736372 0.0462362 0.205637) 2489
(-0.0353498 -0.026113 0.207897) 969
(0.00205974 0.047562 0.199429) 2425
(-0.0451478 -0.00656399 0.206868) 953
(0.0044759 -0.0413916 0.236002) 1864
(-0.0011358 -0.0441186 0.208236) 1697
(0.0488724 0.00233802 0.200276) 138
(-0.044388 0.00354223 0.207913) 945
(0.00111585 -0.0592631 0.20815) 1699
(-0.0419889 -0.00916308 0.214557) 1008
(0.0513412 -0.000417364 0.189774) 82
(0.0481934 -0.0162331 0.198724) 130
(-0.0102195 0.0442947 0.207565) 2489
(0.000607916 -0.0477284 0.21873) 1753
(0.000169839 -0.0452487 0.213524) 1697
(0.0500557 -0.00717734 0.201383) 130
(-0.00481826 0.044798 0.205941) 2481
(-0.0104098 0.0476244 0.203922) 2434
(-0.0127387 0.0394816 0.235847) 2656
(0.0155837 -0.0455728 0.212465) 1705
(-0.0182574 0.0388301 0.211542) 2496
(-0.00889357 0.0413915 0.209774) 2488
(-0.00926922 0.047886 0.206727) 2490
(-0.0082646 0.0474418 0.208155) 2489
(-0.0135303 -0.0396427 0.248163) 1912
(-0.00928897 0.0443692 0.209763) 2489
(-0.00218729 -0.0582146 0.210153) 1699
(-0.0216892 -0.0355415 0.24703) 1904
(-0.0464006 0.00222792 0.217458) 1001
(-0.0235567 0.0356974 0.216212) 2560
(-0.0227979 0.0413218 0.209815) 2497
(-0.0217071 0.0388611 0.206577) 2497
(0.0479464 -0.00641725 0.200019) 129
(-0.00307717 0.0427437 0.213648) 2480
(-0.015473 -0.0407056 0.216501) 1736
(5.52171e-05 -0.0465953 0.222057) 1753
(0.00607676 0.0449896 0.209824) 2473
(-0.0139219 -0.0397612 0.238335) 1848
(0.0115387 -0.0419272 0.221042) 1760
(0.00835757 -0.0415473 0.226777) 1816
(0.00881039 -0.0434831 0.220322) 1761
(0.00621236 -0.0530842 0.216502) 1762
(-0.0289369 -0.0303173 0.240341) 1840
(-0.0169621 0.0402826 0.2113) 2497
(-0.0414614 -0.00218811 0.229276) 1056
(-0.0178503 -0.041031 0.2203) 1737
(-0.00050576 -0.0434255 0.219731) 1752
(0.0517037 0.00636044 0.196094) 146
(-0.041544 -0.0179351 0.218269) 1017
(-0.022405 0.0408761 0.211102) 2497
(-0.00010115 -0.0568631 0.210302) 1699
(-0.0545436 0.00465665 0.210473) 947
(-0.00497129 0.0454925 0.211692) 2481
(-0.0167335 0.0393246 0.211377) 2496
(-0.00359299 0.0461394 0.209922) 2481
(-0.0330055 -0.0263789 0.221296) 1024
(-0.0445922 0.00198712 0.221136) 1001
(-0.0116938 0.0432355 0.210419) 2489
(0.00167355 0.042435 0.210491) 2480
(-0.0074282 0.0469659 0.20994) 2489
(-0.0404293 -0.0169593 0.214379) 961
(-0.0110677 -0.0405692 0.232242) 1800
(-0.0140176 -0.0412099 0.220088) 1744
(-0.00511008 -0.0543297 0.208138) 1699
(-0.0394507 -0.0120483 0.243114) 1120
(-0.0111486 -0.0435767 0.221643) 1745
(-0.0128364 0.0392394 0.242335) 2656
(-0.0398731 -0.0184728 0.219044) 1017
(-0.0215167 -0.0404845 0.219749) 1737
(-0.0133209 -0.0398226 0.248655) 1912
(0.053041 0.00522021 0.204727) 194
(0.0149916 -0.0422426 0.21634) 1769
(-0.0116538 -0.0404646 0.232964) 1800
(-0.000912609 -0.0438593 0.225325) 1809
(-0.00839365 0.0403112 0.221734) 2544
(-0.00344899 -0.0585773 0.219442) 1755
(-0.009673 0.044621 0.216084) 2545