/*--------------------------------*- C++ -*----------------------------------*\
| =========                 |                                                 |
| \\      /  F ield         | OpenFOAM: The Open Source CFD Toolbox           |
|  \\    /   O peration     | Version:  plus.master.MPPICInterFoam            |
|   \\  /    A nd           | Web:      www.OpenFOAM.com                      |
|    \\/     M anipulation  |                                                 |
\*---------------------------------------------------------------------------*/
FoamFile
{
    version     2.0;
    format      ascii;
    class       labelField;
    location    "6.2/lagrangian/kinematicCloud";
    object      origId;
}
// * * * * * * * * * * * * * * * * * * * * * * * * * * * * * * * * * * * * * //


367
(
13843
13125
11264
5617
536
5665
3896
10802
44039
6428
17764
22503
11006
8756
21842
858
6716
11821
5881
20113
22052
7361
3808
10656
35572
76
9191
1306
175
9675
16420
7056
21003
2741
4945
21312
873
16253
7690
8265
11044
14538
34106
19503
35783
8194
19655
13494
4202
17780
8912
28222
18115
23163
24612
34208
18727
15237
6528
7648
20046
4257
9656
17569
22366
16297
14886
40624
1655
3971
9911
18443
242
25221
25273
12160
14065
16110
15103
12795
20192
7225
7740
12225
27848
11086
4449
4566
30324
27944
22504
13242
25851
2943
10015
2216
22432
187
3355
14501
13921
39153
43368
28453
6526
18728
139
22368
56723
310
15910
7774
40490
14196
14239
15259
20869
20111
2650
50785
16112
43690
23326
6634
37841
9742
851
6363
14620
10145
38985
25296
11490
19935
7246
2405
43984
42961
15712
31895
16868
53376
8034
38899
22794
16755
47344
16680
29484
11485
4799
4344
12076
683
2605
781
3674
13123
11039
566
22534
36201
17743
3603
37801
7487
17034
35226
17931
12852
3909
11659
16408
670
29236
15072
34501
2979
33303
6092
18620
21960
1755
29762
21331
9928
30523
26591
25280
2869
57544
12311
11693
12345
5350
31582
30336
9969
15060
2551
2828
10252
57470
49370
2323
22684
1176
2215
10651
23848
2672
4889
9059
39423
38964
37408
16041
6096
27703
17291
31149
2909
37199
7068
403
32362
6182
12363
9809
2685
3945
48080
4953
9004
3771
2692
19410
7894
8437
26057
10069
879
15403
11833
1559
43373
10044
17484
27974
13213
29972
8198
20489
6733
24168
4405
7675
17290
25952
4087
3528
34466
28366
11198
10456
13687
127
17360
20575
19591
11805
12389
3648
2753
2932
6445
42212
18238
1014
37769
44020
3431
18586
43082
35431
1467
38032
4011
2253
6438
4597
8696
9352
50137
37377
43580
1194
50513
25431
2590
21214
1535
11990
26992
7098
26148
24335
30730
5139
21391
16941
1585
1144
26462
28690
9888
34349
4162
27374
35755
5689
1074
28431
12428
7700
41081
13570
14805
4938
48887
46798
31607
7875
36322
51635
52731
10058
47999
9
36468
2800
64989
2962
89174
890
71568
14287
1078
2615
47902
33448
31339
37388
29768
38354
20285
1466
29876
11751
33533
8353
27932
33167
7272
5862
16008
2407
)


// ************************************************************************* //
