/*--------------------------------*- C++ -*----------------------------------*\
| =========                 |                                                 |
| \\      /  F ield         | OpenFOAM: The Open Source CFD Toolbox           |
|  \\    /   O peration     | Version:  plus.master.MPPICInterFoam            |
|   \\  /    A nd           | Web:      www.OpenFOAM.com                      |
|    \\/     M anipulation  |                                                 |
\*---------------------------------------------------------------------------*/
FoamFile
{
    version     2.0;
    format      ascii;
    class       Cloud<basicKinematicMPPICParcel>;
    location    "6.2/lagrangian/kinematicCloud";
    object      positions;
}
// * * * * * * * * * * * * * * * * * * * * * * * * * * * * * * * * * * * * * //

367
(
(-0.0269512 -0.0451767 0.508221) 2320
(-0.0268533 -0.0445275 0.513358) 2376
(-0.0268291 -0.0445514 0.510757) 2320
(-0.0433081 -0.0297118 0.501631) 2024
(-0.0512832 -0.0181094 0.507582) 2016
(-0.056273 0.00642865 0.5033) 1993
(-0.0151164 -0.0501166 0.511895) 2384
(-0.0508074 -0.0188556 0.505364) 2016
(-0.000254853 -0.0513487 0.511317) 2336
(-0.00360018 -0.0571912 0.502027) 2337
(-0.0430801 -0.0296991 0.502936) 2024
(-0.0269816 -0.044099 0.505176) 2320
(-0.0519746 -0.00750493 0.50561) 2008
(-0.00738773 -0.0500255 0.505168) 2328
(-0.0502593 -0.0164531 0.504682) 2008
(-0.0528069 0.00475503 0.503754) 2000
(-0.00382878 -0.0549999 0.51022) 2337
(-0.0518198 -0.00377673 0.50696) 2000
(-0.0261019 -0.0443935 0.508726) 2320
(-0.0132056 -0.0489891 0.508238) 2328
(0.0035285 -0.0502743 0.511566) 2392
(-0.0504877 -0.0191846 0.504417) 2016
(-0.000588355 -0.051496 0.510292) 2336
(0.000161121 -0.0512091 0.508729) 2336
(-0.0190267 -0.0464547 0.509084) 2320
(-0.0132843 -0.0491487 0.508911) 2328
(-0.0347218 -0.0395615 0.505264) 2312
(-0.00566606 -0.0521143 0.505506) 2336
(-0.0177171 -0.0507524 0.504963) 2328
(-0.0533239 -0.00537085 0.507543) 2000
(0.0055262 -0.0509114 0.507984) 2336
(-0.0526778 -0.00437706 0.505106) 2000
(-0.0513344 -0.0179667 0.506562) 2016
(-0.0509869 -0.0172058 0.505075) 2008
(-0.0256651 -0.0469277 0.505705) 2320
(-0.01767 -0.0522225 0.502758) 2329
(-0.0193897 -0.0462642 0.51028) 2320
(-0.0192466 -0.0463024 0.509511) 2320
(0.001857 -0.0499058 0.512556) 2392
(-0.0313299 -0.0401524 0.509698) 2312
(-0.0123652 -0.0480102 0.512908) 2384
(-0.0476295 -0.0306724 0.502913) 2025
(-0.0168644 -0.0542495 0.503619) 2329
(-0.0401368 -0.0321935 0.508141) 2024
(-0.0385367 -0.0349109 0.505799) 2024
(-0.0189627 -0.0487495 0.502123) 2320
(0.00365197 -0.050086 0.511286) 2336
(0.0576244 -0.0194484 0.508259) 1658
(-0.0522989 0.0048042 0.504495) 2000
(0.00311394 -0.0509886 0.508467) 2336
(0.0027524 -0.0526642 0.503014) 2336
(-0.0194931 -0.0475718 0.505499) 2320
(-0.0194607 -0.0480422 0.502722) 2320
(-0.0164064 -0.0541802 0.501662) 2329
(0.00365705 -0.0510677 0.508679) 2336
(-0.0327114 -0.0401772 0.504787) 2312
(-0.0126383 -0.0501951 0.505406) 2328
(-0.053207 -0.00703595 0.503663) 2008
(-0.0519678 -0.00546117 0.512303) 2056
(-0.0381853 -0.0360225 0.505575) 2024
(-0.013578 -0.051738 0.504801) 2328
(0.00112363 -0.0502452 0.509449) 2336
(-0.00583293 -0.0518371 0.503351) 2336
(1.35486e-05 -0.0509137 0.509749) 2336
(-0.0547969 -0.00666424 0.505631) 2009
(-0.038346 -0.0356228 0.504901) 2024
(0.00268411 -0.0525381 0.504406) 2336
(-0.0573454 -0.00582013 0.502642) 2001
(-0.0517249 -0.0178549 0.504074) 2009
(-0.013168 -0.0507309 0.505902) 2328
(-0.0550102 -0.00682561 0.502838) 2009
(-0.00351876 -0.0550529 0.505656) 2337
(-0.00413256 -0.054404 0.502328) 2337
(-0.0127231 -0.0510036 0.504529) 2328
(-0.0536398 -0.00756679 0.503614) 2008
(0.000763699 -0.0502283 0.503544) 2336
(-0.0349304 -0.0395695 0.505555) 2312
(-0.00408203 -0.0539792 0.503437) 2336
(-0.011073 -0.0500077 0.505471) 2328
(-0.0377389 -0.0407492 0.504835) 2313
(-0.0521282 -0.0182944 0.503078) 2017
(-0.0125074 -0.0512257 0.503716) 2328
(0.00751854 -0.0504648 0.503728) 2344
(-0.0549216 0.00539812 0.501781) 2001
(0.00974324 -0.0533243 0.50427) 2345
(-0.0024677 -0.0525204 0.507889) 2336
(0.00771378 -0.049621 0.505774) 2344
(0.0014387 -0.0479915 0.508367) 2335
(0.00838043 -0.0513522 0.501779) 2344
(0.00726054 -0.050307 0.503483) 2344
(-0.0540031 0.00599904 0.506374) 2000
(-0.0522394 -0.00695321 0.511113) 2008
(0.00857574 -0.0509679 0.502119) 2344
(-0.0177403 -0.0557562 0.502149) 2329
(-0.0469729 -0.030286 0.505014) 2025
(-0.0527734 0.00582487 0.510806) 2000
(0.0070535 -0.049744 0.503661) 2344
(-0.00340539 -0.0546342 0.505603) 2337
(-0.0286189 -0.0487745 0.50334) 2321
(-0.0172179 -0.0552784 0.501828) 2329
(-0.00240592 -0.0545613 0.502557) 2337
(-0.0568072 0.00765817 0.502572) 1993
(-0.0534146 -0.0185689 0.502508) 2009
(0.00571766 -0.0488502 0.505867) 2344
(-0.0290793 -0.0493558 0.502329) 2321
(-0.0177954 -0.0532023 0.502119) 2329
(-0.0290633 -0.0460249 0.504397) 2313
(-0.0467079 -0.0299937 0.505449) 2025
(-0.0174418 -0.0553076 0.501916) 2329
(-0.0298731 -0.0482682 0.502033) 2321
(-0.0554942 -0.007138 0.505993) 2009
(0.00977029 -0.0599792 0.502544) 2346
(-0.0142081 0.0501883 0.505928) 2680
(-0.0584541 -0.00679483 0.505108) 2009
(-0.0574517 -0.00675265 0.506114) 2009
(-0.034405 -0.0401737 0.503535) 2312
(-0.0575007 0.00754285 0.503629) 1993
(-0.0544694 0.00570538 0.506878) 2001
(-0.054332 -0.0188374 0.501605) 2009
(-0.0594815 0.00667795 0.501689) 2001
(-0.0454326 -0.0283907 0.504903) 2016
(-0.0585214 -0.00674399 0.506942) 2009
(-0.0302291 -0.0483352 0.502204) 2321
(-0.0592604 -0.00756202 0.502055) 2009
(0.00906102 -0.0575515 0.506982) 2345
(-0.0178741 -0.0540272 0.503115) 2329
(-0.0552667 -0.0198673 0.502464) 2017
(-0.0536201 0.00401201 0.502367) 2000
(0.0234743 -0.0519441 0.503762) 2353
(0.0115318 -0.0498645 0.509661) 2344
(0.0115665 -0.0586809 0.50184) 2346
(-0.0589762 0.00692116 0.503215) 1993
(-0.0522142 -0.0191202 0.501814) 2017
(0.0083801 -0.0535471 0.509576) 2344
(0.0128216 -0.0544068 0.502691) 2345
(0.00922023 -0.0601715 0.502766) 2346
(-0.0157006 0.0528373 0.509493) 2681
(-0.0600945 -0.00777523 0.502253) 2010
(-0.0596864 -0.00786299 0.502286) 2010
(-0.0486615 -0.03157 0.502961) 2025
(-0.0188138 -0.053729 0.506178) 2321
(-0.0533265 -0.0205742 0.501663) 2017
(-0.0553099 0.0195037 0.501603) 1985
(-0.0585695 -0.00497263 0.502806) 2001
(-0.0266704 0.0458167 0.507033) 2688
(0.00418693 -0.0536306 0.506952) 2336
(-0.0613099 -0.00769726 0.502314) 2010
(-0.00264966 0.0562474 0.501867) 2673
(0.0544672 -0.0166825 0.502802) 1657
(0.0168037 -0.0536693 0.50197) 2345
(-0.0597219 0.00607967 0.502969) 2002
(-0.0183926 -0.0585045 0.502021) 2330
(-0.0540457 -0.00897645 0.503026) 2009
(-0.051664 -0.0174423 0.506791) 2009
(-0.0608581 -0.00633196 0.504246) 2002
(-0.0229106 -0.0515971 0.502372) 2321
(-0.0264209 0.049298 0.501615) 2689
(-0.00440319 0.0538718 0.501664) 2672
(0.0191972 -0.051999 0.503707) 2353
(-0.054348 0.00674935 0.508702) 1993
(0.0130101 -0.0502022 0.510491) 2344
(-0.00181058 0.057617 0.502183) 2673
(-0.0542165 -0.0203037 0.502547) 2017
(0.0133603 -0.0532712 0.50588) 2345
(-0.0301219 -0.0451822 0.507879) 2313
(-0.0393168 -0.0438992 0.50181) 2313
(-0.00157919 -0.0576966 0.502017) 2337
(-0.0595998 -0.00457812 0.502335) 2002
(-0.0302621 0.0436731 0.505651) 2696
(-0.0408076 0.0437276 0.502016) 2698
(-0.024743 -0.0522932 0.502405) 2321
(-0.0275636 -0.0511276 0.504155) 2321
(-0.00287564 0.056218 0.505752) 2673
(-0.0398424 0.0411058 0.502488) 2697
(-0.0483649 -0.0287131 0.502073) 2017
(0.0152582 -0.0532195 0.505141) 2345
(-0.0192219 -0.0582597 0.510386) 2330
(0.0168803 -0.0493306 0.508987) 2344
(-0.0300547 -0.0510333 0.506049) 2321
(-0.0180653 -0.0553592 0.503192) 2329
(0.0424312 -0.0383896 0.503348) 1641
(0.0577491 -0.00572484 0.51224) 1721
(-0.0578439 0.00566985 0.506766) 2001
(-0.0614139 0.00592941 0.50299) 2002
(-0.0203754 -0.052706 0.505716) 2321
(-0.0300709 -0.0530746 0.501639) 2322
(0.0172687 -0.0476716 0.543839) 2576
(-0.060723 -0.00746072 0.506213) 2010
(-0.0321717 -0.0461256 0.504375) 2313
(0.0141853 -0.0500575 0.509808) 2344
(-0.0586545 0.00406343 0.504085) 2001
(-0.0488822 -0.0296892 0.502994) 2017
(-0.0192897 0.050398 0.501733) 2688
(0.0131146 -0.0516112 0.508911) 2344
(-0.0593348 0.00335355 0.502247) 2001
(0.0426008 -0.038137 0.50275) 1641
(-0.0164614 0.0569932 0.502525) 2681
(-0.0203738 -0.0551371 0.502861) 2321
(-0.0270959 -0.049444 0.506835) 2321
(0.0584248 0.00633457 0.508748) 1665
(-0.0319396 -0.047113 0.503524) 2313
(-0.0362383 0.0419197 0.502844) 2697
(-0.0551176 -0.00405879 0.509439) 2001
(-0.0173253 -0.0564485 0.51031) 2329
(-0.0574659 -0.0201732 0.501712) 2018
(-0.0226877 -0.0537005 0.502112) 2321
(-0.019833 -0.0551059 0.504602) 2321
(-0.0301443 0.051985 0.503143) 2690
(-0.0565819 -0.0189364 0.50205) 2009
(-0.0591654 0.00443265 0.502419) 2001
(-0.00572962 0.0554764 0.502425) 2673
(-0.0185026 -0.0582071 0.507623) 2330
(-0.0607714 -0.00781543 0.502675) 2010
(-0.0300221 0.0486838 0.502109) 2689
(-0.0591322 0.00348353 0.50248) 2001
(-0.0409563 0.0437566 0.502141) 2698
(-0.0392137 0.043517 0.505542) 2697
(0.0116268 -0.0366002 0.525477) 2454
(-0.0263059 -0.052591 0.501637) 2321
(0.05749 -0.0190517 0.51708) 1714
(-0.0424804 0.0447193 0.502373) 2698
(-0.0581441 -0.0212013 0.505546) 2018
(-0.0613216 0.00719029 0.504567) 1994
(-0.0606462 0.00499901 0.503361) 2002
(0.0299434 -0.0458848 0.535686) 2529
(-0.0425772 0.0444336 0.506471) 2698
(0.0193609 -0.0564391 0.504116) 2345
(-0.00350313 -0.0464556 0.549056) 2559
(-0.0340038 -0.0539486 0.511383) 2314
(-0.0175548 0.056926 0.505666) 2681
(0.0211044 -0.0335374 0.538669) 2526
(0.0323042 -0.0208593 0.529613) 1750
(-0.0429714 -0.0457601 0.50165) 2314
(0.0562283 -0.0188677 0.502922) 1657
(0.0597912 -0.0069828 0.502396) 1658
(0.0565662 -0.0185856 0.506554) 1657
(0.0510464 -0.0306055 0.507738) 1649
(0.0567911 -0.0186292 0.510417) 1657
(-0.00568113 0.0599368 0.501887) 2674
(-0.0400274 0.0429034 0.502962) 2697
(-0.0621546 -0.00687149 0.504108) 2002
(-0.0605105 -0.0220454 0.505732) 2018
(-0.00235453 0.0604836 0.502847) 2674
(-0.0585808 -0.0234642 0.503575) 2018
(0.0074339 -0.061942 0.503526) 2346
(0.00600994 -0.0618878 0.501649) 2338
(0.043464 -0.0399558 0.505785) 1641
(0.0119896 -0.062637 0.501918) 2346
(-0.0105709 0.059853 0.502861) 2682
(-0.00874521 -0.061466 0.502791) 2330
(-0.0148625 0.0592258 0.502302) 2682
(-0.0645644 -0.00736153 0.506661) 2010
(-0.00790201 0.0615948 0.503495) 2682
(0.0601881 -0.00667978 0.513239) 1722
(0.00190816 0.0596852 0.503786) 2674
(0.029689 -0.0533879 0.501862) 2354
(-0.0145699 0.0624413 0.501731) 2682
(0.00400313 -0.0613356 0.503179) 2338
(-0.01836 0.0580902 0.51239) 2738
(-0.0628372 -0.0123254 0.502523) 2010
(0.01132 -0.0612181 0.505287) 2346
(-0.00441759 0.0598963 0.512809) 2730
(-0.00685321 -0.0625555 0.512186) 2394
(0.0406666 -0.0488337 0.513859) 2418
(-0.0127887 -0.0613412 0.504174) 2330
(-0.062945 -0.0137788 0.502655) 2010
(-0.0650021 -0.00267451 0.503538) 2002
(-0.0636823 -0.00993008 0.505995) 2010
(-0.00400806 0.0603133 0.510053) 2674
(-0.00720495 0.0609667 0.509424) 2682
(0.0377555 -0.050229 0.504071) 2362
(8.107e-05 -0.0622173 0.504462) 2338
(-0.0223808 0.0575424 0.506896) 2690
(-0.00585879 -0.0632145 0.5104) 2338
(-0.0642125 0.00193878 0.506222) 2002
(-0.0145779 -0.0612939 0.505682) 2330
(-0.00858576 -0.0642992 0.507191) 2330
(-0.0653033 -0.0121296 0.505491) 2011
(-0.0272941 0.0577953 0.50729) 2690
(-0.0143575 -0.0650721 0.505961) 2331
(-0.00409168 -0.0669329 0.506706) 2339
(-0.0649641 -0.0153168 0.505635) 2011
(-0.0126362 0.0620968 0.507951) 2682
(0.0644153 -0.00772336 0.509062) 1658
(-0.0671849 -0.0100286 0.507095) 2011
(0.0630535 -0.00929265 0.50705) 1658
(-0.011134 -0.0649667 0.506398) 2331
(-0.0653461 -0.0181567 0.505627) 2011
(0.00573167 -0.0652544 0.507275) 2339
(-0.00239859 -0.0653881 0.505662) 2339
(-0.011017 0.0659104 0.505468) 2683
(-0.0674193 -0.0144805 0.505078) 2011
(-0.000962951 -0.0663731 0.506281) 2339
(-0.0052556 0.0644162 0.51355) 2730
(0.066484 -0.00427992 0.511097) 1667
(-0.00202826 -0.0677179 0.510359) 2339
(-0.0638361 -0.00726972 0.521391) 2066
(0.0634484 0.00413438 0.513752) 1722
(-0.0663806 -0.0125632 0.511778) 2067
(-0.0122452 0.0622114 0.513514) 2738
(-0.0678519 -0.00426741 0.511339) 2003
(-0.0667196 -0.00629171 0.515225) 2059
(-0.00716353 -0.0630258 0.522014) 2442
(0.0648602 0.0035887 0.515665) 1722
(-0.0667724 -0.0126082 0.513655) 2067
(-0.068285 -0.00328039 0.514379) 2059
(-0.0122892 -0.065194 0.51538) 2387
(-0.0141186 -0.0651199 0.515285) 2387
(0.0633279 0.00486976 0.519043) 1722
(-0.0681624 0.00181307 0.514879) 2059
(-0.00571259 -0.0629806 0.521145) 2394
(-0.0665351 -0.00955653 0.51796) 2067
(-0.0134013 0.0651048 0.516383) 2739
(-0.0666768 0.00523319 0.518033) 2059
(-0.0125324 -0.0663472 0.518671) 2387
(0.0642167 -0.0103773 0.521311) 1714
(-0.0651788 -0.0101175 0.520551) 2067
(-0.0646688 -0.00543058 0.522766) 2114
(-0.00185298 0.0643242 0.524457) 2786
(-0.0109355 0.0626857 0.525441) 2794
(-0.0623461 -0.0106138 0.528566) 2122
(-0.0643126 -0.000387305 0.529279) 2114
(0.0589977 0.00893588 0.533965) 1841
(-0.00284348 -0.0611822 0.532305) 2506
(-0.010987 -0.0589099 0.532942) 2498
(-0.00749559 0.0558765 0.538976) 2849
(0.0050819 -0.0588277 0.536654) 2505
(0.0578431 0.00216285 0.535765) 1833
(0.0565775 0.0101498 0.53808) 1841
(0.00198129 -0.0575415 0.540254) 2505
(0.00271278 0.0574551 0.541046) 2841
(0.0035204 0.0566999 0.542218) 2897
(-0.0493028 -0.010609 0.553408) 2288
(-0.000113075 0.0486491 0.556165) 2951
(0.00173019 0.0472829 0.557744) 2951
(0.00295963 0.0453067 0.559232) 2951
(0.00149346 0.04456 0.561535) 9047
(0.00117403 0.0374483 0.568826) 7275
(-0.0340262 0.00409495 0.57191) 5461
(0.00235764 0.0298417 0.574794) 6587
(0.00297807 0.0294423 0.574412) 6587
(-0.00277789 -0.032387 0.576259) 6028
(0.00415227 0.0273915 0.574804) 6578
(-0.00201695 -0.0269729 0.577722) 6026
(0.0247267 0.00134287 0.572873) 4905
(-0.000249877 -0.0243464 0.575028) 6025
(-0.000994288 0.0209153 0.559247) 1608
(-0.00273848 -0.0231737 0.56174) 5969
(0.0195659 -0.00019563 0.56209) 4848
(0.0220494 -0.00259391 0.554178) 601
(-0.00061328 -0.0216569 0.558324) 1272
(0.0215951 -0.00112958 0.551998) 600
(0.0207822 -0.0024803 0.551739) 600
(0.000780611 -0.0217157 0.554811) 1272
(0.0226777 2.73385e-05 0.546908) 545
(0.000990333 0.0179474 0.540107) 1495
(0.0204306 -0.00111172 0.535214) 488
(0.00127223 0.0181624 0.527623) 1439
(0.00378703 0.0188192 0.527604) 1432
(0.0206535 -0.000679064 0.527183) 432
(0.00381604 0.01828 0.524836) 1431
(-0.00236919 0.0182719 0.525473) 1447
(0.00229243 0.0184939 0.520141) 1383
(0.00101441 0.020291 0.511583) 1384
(-0.00194889 -0.0217889 0.512418) 1048
(-0.0217986 -0.00309835 0.505046) 664
(0.0223093 -0.00106915 0.5023) 321
)


// ************************************************************************* //
