/*--------------------------------*- C++ -*----------------------------------*\
| =========                 |                                                 |
| \\      /  F ield         | OpenFOAM: The Open Source CFD Toolbox           |
|  \\    /   O peration     | Version:  plus.master.MPPICInterFoam            |
|   \\  /    A nd           | Web:      www.OpenFOAM.com                      |
|    \\/     M anipulation  |                                                 |
\*---------------------------------------------------------------------------*/
FoamFile
{
    version     2.0;
    format      ascii;
    class       volScalarField;
    location    "6.2";
    object      epsilon;
}
// * * * * * * * * * * * * * * * * * * * * * * * * * * * * * * * * * * * * * //

dimensions      [0 2 -3 0 0 0 0];

internalField   nonuniform List<scalar> 
11821
(
0.00027044
0.00102793
0.00790147
0.0159089
0.004793
0.000596934
0.000191012
0.000897783
0.0269868
0.183213
0.380706
0.147289
0.0226182
0.000755745
0.00626774
0.162642
0.272344
1.43772
0.274137
0.169438
0.00696942
0.0124043
0.305843
1.30321
1.34838
1.38692
0.396993
0.0160662
0.00497213
0.148234
0.266874
1.48727
0.255534
0.150347
0.00555952
0.000735101
0.0253025
0.181869
0.36555
0.13236
0.0187218
0.000566726
0.000264244
0.00107781
0.00839396
0.0150402
0.00432034
0.00051216
0.000173456
0.00241816
0.0141092
0.0774152
0.160197
0.0575471
0.00891974
0.00154474
0.013064
0.106944
0.532658
1.36449
0.517252
0.102241
0.00967863
0.0618535
0.448913
1.15164
4.80047
1.36023
0.634175
0.0711848
0.107684
0.902897
6.68786
4.48167
4.65875
1.9335
0.198812
0.0540063
0.41959
1.14442
4.7251
1.36838
0.561372
0.0572898
0.0116258
0.103714
0.529784
1.33001
0.476744
0.0864217
0.00741483
0.00227498
0.0141552
0.081372
0.158233
0.0524409
0.00759114
0.00137505
0.00843388
0.0335818
0.138256
0.306711
0.113196
0.0195989
0.00498536
0.0333413
0.196817
0.943407
2.63454
0.961792
0.166473
0.0182655
0.123792
0.836772
2.67811
8.71404
3.38326
1.06479
0.0962638
0.228807
1.88853
14.0344
6.78036
7.74823
3.63798
0.316305
0.119798
0.853994
2.7398
8.33321
3.70828
1.00884
0.0835708
0.0323408
0.213449
1.03773
2.77087
1.0072
0.156176
0.0155988
0.00827596
0.0359342
0.16259
0.361182
0.11911
0.0184966
0.00481459
0.0190484
0.0536067
0.177996
0.406689
0.134642
0.029312
0.0121713
0.0549538
0.264041
1.17876
3.44261
1.077
0.160688
0.0250865
0.17933
1.14527
4.68402
10.2383
5.81338
0.903521
0.0801711
0.362663
2.92846
20.133
7.99397
8.84804
3.52135
0.220296
0.177153
1.21047
4.70034
8.76671
6.51394
0.909045
0.075375
0.0539558
0.293052
1.33457
3.67112
1.21458
0.15962
0.0241691
0.0187852
0.0560204
0.206606
0.493697
0.144206
0.0293912
0.0123262
0.0243169
0.0604475
0.174813
0.372144
0.113719
0.0313152
0.0159958
0.0630987
0.274884
1.06523
2.69915
0.809277
0.122555
0.0263942
0.197005
1.14168
4.67691
8.16837
4.53279
0.542224
0.0609927
0.424825
3.1417
15.6104
7.34031
9.96077
1.69808
0.122168
0.191509
1.19932
4.67504
7.05581
5.18685
0.579697
0.0600975
0.0599196
0.28969
1.18501
2.90425
0.922945
0.126654
0.0258922
0.0233084
0.059277
0.188544
0.440123
0.121944
0.0312733
0.0159973
0.000143769
0.000135794
0.000131333
0.000128774
0.00012477
0.000120533
0.000117279
0.000114469
0.000238077
0.000158753
0.000136529
0.000128484
0.000122548
0.000116916
0.000112981
0.000109947
0.00109054
0.000259313
0.000149436
0.000130544
0.00012259
0.000117387
0.000113174
0.000108723
0.00234701
0.000398843
0.000160985
0.000127673
0.000118397
0.000111309
0.000107009
0.000103453
0.000856568
0.00022901
0.000146919
0.000130268
0.000122123
0.000115492
0.000110696
0.00010644
0.000188055
0.000145835
0.000137698
0.000127925
0.000120973
0.000115442
0.000111693
0.00010829
0.000138821
0.000137632
0.000134846
0.000130206
0.000125157
0.000120502
0.000116388
0.000113442
0.000656665
0.000468858
0.00038835
0.00033328
0.000291111
0.000257678
0.000230707
0.00020843
0.00136651
0.000578458
0.000417735
0.000345134
0.000297012
0.000260667
0.000231895
0.000208409
0.00456272
0.000843935
0.000466639
0.000362272
0.000305876
0.000265319
0.000233434
0.000207559
0.0100413
0.00109108
0.000497123
0.000373022
0.000312588
0.00026999
0.000236829
0.000209394
0.00361473
0.000779365
0.000463087
0.000365158
0.00030939
0.000268295
0.000235867
0.000209177
0.00110874
0.000555593
0.000423119
0.000354403
0.000305836
0.000268013
0.000237662
0.000212674
0.000616073
0.000474292
0.000402255
0.00034901
0.000306807
0.00027262
0.000244591
0.0002212
0.00274905
0.00220605
0.00190088
0.00163442
0.00137548
0.00112507
0.000893973
0.00069548
0.00425115
0.00253033
0.00202339
0.00170827
0.00143035
0.00116526
0.000918936
0.00070574
0.00893322
0.00310642
0.00217226
0.00178356
0.00148526
0.00120668
0.00094581
0.00071779
0.0173387
0.00362853
0.00226207
0.00182499
0.00151535
0.00122944
0.000960884
0.000725225
0.00799695
0.00303575
0.00218882
0.00181151
0.00151212
0.00122914
0.000962768
0.000729146
0.00394199
0.00254747
0.00209192
0.00178078
0.00149444
0.00121705
0.000957511
0.000731972
0.00277246
0.00230589
0.00201511
0.00174305
0.00147055
0.00120389
0.00095652
0.000743398
0.00859689
0.00734794
0.00638443
0.00551005
0.00475484
0.00414779
0.00366138
0.00318478
0.0107079
0.00806656
0.00680265
0.00580505
0.00495651
0.00427749
0.00374942
0.00325169
0.0155025
0.00892795
0.00713128
0.0060135
0.00510002
0.00437213
0.00381569
0.00330681
0.0218034
0.00956652
0.0073056
0.00611533
0.00517183
0.0044219
0.00385217
0.00333815
0.0150067
0.00890499
0.00717487
0.00606412
0.00514834
0.00441835
0.00386198
0.00335431
0.0106473
0.00819292
0.00695347
0.00594545
0.00508275
0.00439382
0.0038604
0.00335872
0.00883663
0.00764263
0.00667793
0.005786
0.00501238
0.00439029
0.00389111
0.00339738
0.0125701
0.0115612
0.0109163
0.0103165
0.00957655
0.00842239
0.00663628
0.0045622
0.0143133
0.0119257
0.0108905
0.0101406
0.0093917
0.00835194
0.00671186
0.00467863
0.0180627
0.0125257
0.01097
0.0101075
0.00936819
0.00841216
0.00686212
0.00484176
0.0218716
0.0129708
0.0110503
0.0101265
0.0093852
0.00845601
0.00693622
0.0049187
0.0177524
0.0124506
0.0109307
0.0100676
0.00932755
0.00837685
0.00683796
0.00483329
0.0141993
0.0118874
0.0108315
0.0100468
0.00927537
0.00823278
0.00661177
0.00461728
0.0126544
0.0116042
0.0108733
0.0101801
0.00936153
0.00816261
0.00638271
0.00436433
0.000178791
0.0001703
0.000169402
0.000167943
0.000163747
0.000160816
0.000158393
0.000156512
0.000239544
0.000172756
0.000162255
0.000154806
0.000146224
0.000145329
0.000147109
0.000142709
0.000798512
0.000250497
0.000169107
0.000154341
0.000147027
0.000137141
0.000130886
0.000126245
0.00183995
0.000392486
0.000187406
0.000155112
0.000143464
0.000133319
0.000124939
0.000118404
0.0010876
0.000312302
0.000185199
0.000160423
0.000149928
0.000140201
0.000131504
0.000126429
0.000281635
0.000185752
0.000165036
0.000154916
0.000147441
0.000147058
0.000150579
0.000147039
0.000180008
0.000174179
0.000173154
0.000168971
0.000165423
0.000163124
0.000160298
0.00015819
0.000841158
0.00061253
0.000516374
0.000445797
0.000389196
0.000343473
0.000306565
0.00027648
0.00181605
0.000808728
0.00059703
0.000498491
0.000429061
0.00037412
0.000328067
0.000290779
0.00552078
0.00127917
0.000722944
0.000565482
0.00047974
0.000415621
0.000362841
0.000318116
0.0105478
0.00176533
0.000799213
0.000587029
0.00049131
0.00042574
0.000373105
0.00032855
0.00679898
0.00144896
0.000759376
0.000580618
0.000490803
0.000425798
0.000372664
0.000327877
0.0020535
0.000856274
0.000616047
0.000510955
0.000438902
0.000382744
0.000335839
0.000297977
0.000860114
0.000612473
0.000513668
0.000441563
0.000383303
0.000336019
0.00029798
0.000267224
0.00368448
0.00282296
0.00245114
0.00213103
0.00180507
0.00147792
0.00116999
0.000904172
0.00689386
0.0034665
0.00267371
0.00227693
0.001939
0.00160167
0.00127109
0.000971991
0.016655
0.00483194
0.00294248
0.00236363
0.00200524
0.00167697
0.00135079
0.00104322
0.0284334
0.00616399
0.00308866
0.0023368
0.00195433
0.0016355
0.00132569
0.00103064
0.0183046
0.00509508
0.00296557
0.00234664
0.00198446
0.00166069
0.00134048
0.00103818
0.00730229
0.00351655
0.00265322
0.00224597
0.00191249
0.00158276
0.00125921
0.000965675
0.00368034
0.00276044
0.00238401
0.00207132
0.00175595
0.00143922
0.00114016
0.000881144
0.010866
0.00885997
0.00766785
0.00662744
0.00571715
0.00497159
0.00436544
0.00377055
0.0164638
0.0102241
0.0082484
0.00700917
0.0060019
0.00519385
0.00456766
0.00398848
0.0319292
0.0126618
0.00874537
0.00714521
0.00605242
0.0052249
0.0046264
0.00412019
0.0517063
0.0150349
0.00901278
0.00707926
0.00591931
0.00507756
0.00448736
0.00401156
0.0338751
0.0130263
0.00879074
0.0071363
0.00604173
0.00522137
0.00462805
0.0041226
0.0170387
0.0103047
0.00822086
0.0069675
0.0059638
0.00515727
0.00452672
0.00393796
0.0108243
0.00871735
0.00751871
0.00648625
0.00557986
0.00483305
0.00422504
0.00363439
0.0150202
0.0130687
0.0120732
0.0112124
0.0102287
0.00882409
0.00676598
0.00444672
0.021066
0.0144249
0.0125291
0.0115119
0.0106113
0.00939797
0.00746797
0.00505252
0.0386129
0.0172923
0.013134
0.0117674
0.0109402
0.00993427
0.00816994
0.00574847
0.0630071
0.020354
0.0135952
0.0118634
0.0110729
0.0102413
0.00868572
0.00640628
0.0409397
0.0177922
0.0132797
0.0118445
0.0109977
0.0099736
0.00818626
0.00573685
0.0220918
0.0147535
0.012725
0.0116924
0.0107875
0.00955446
0.00758398
0.00511282
0.0153282
0.0132565
0.012302
0.0115126
0.0105894
0.00920454
0.00709933
0.0046752
0.000175243
0.000166807
0.000164792
0.000158905
0.000153454
0.000148906
0.000144578
0.000140703
0.0003001
0.000176095
0.000152921
0.000143035
0.000134206
0.000126829
0.000121182
0.000117125
0.00138527
0.000348229
0.000178376
0.000146983
0.0001335
0.000119154
0.000106975
9.88951e-05
0.00233922
0.000429958
0.000172985
0.000132115
0.000117742
0.000108168
0.000100001
9.26682e-05
0.000780593
0.000227182
0.000144191
0.000128085
0.000119495
0.000109561
0.000100588
9.3179e-05
0.00019913
0.000143473
0.000131005
0.000124956
0.000118834
0.000111151
0.000106688
0.000104715
0.000140613
0.000135723
0.000132922
0.000131568
0.000128139
0.00012426
0.000120955
0.000116818
0.000907989
0.000644645
0.000534749
0.000452229
0.000384643
0.000329395
0.000285046
0.000249638
0.00230453
0.000993178
0.00071183
0.000574006
0.000474336
0.000392874
0.000325843
0.000271226
0.00846763
0.00180636
0.000952852
0.000716004
0.000585119
0.000485957
0.000404693
0.000336325
0.0128567
0.00199795
0.000941974
0.000697809
0.000575517
0.000485779
0.000411635
0.000349008
0.00499554
0.00123515
0.000751309
0.00059037
0.000488468
0.000407685
0.000339969
0.000283358
0.00139307
0.000715662
0.000548624
0.000453148
0.000379728
0.000319349
0.000270067
0.000229425
0.000684949
0.000514132
0.000425992
0.000360181
0.000308156
0.000266948
0.000234459
0.000208563
0.00370507
0.00277627
0.00239261
0.00207929
0.00176446
0.00144523
0.00113849
0.000866985
0.0072946
0.00357678
0.00271
0.00228897
0.00194429
0.00160412
0.00126603
0.00095124
0.0186275
0.00514004
0.00305198
0.00242637
0.00204894
0.00171075
0.00137356
0.00104738
0.0283083
0.00563953
0.00300791
0.00233704
0.00196206
0.00163727
0.00131869
0.00101187
0.0124203
0.00392495
0.00263561
0.00217682
0.00185278
0.00154325
0.00123048
0.00092952
0.0045316
0.00275214
0.00225649
0.0019422
0.0016526
0.00136019
0.00107068
0.000803673
0.00278777
0.00228285
0.00198802
0.00171955
0.00145157
0.00118653
0.000936928
0.000718896
0.0107564
0.00865884
0.00743884
0.00639182
0.00547469
0.00472362
0.00412317
0.0035611
0.0165145
0.0101117
0.00805685
0.00675773
0.00567495
0.00478358
0.00409391
0.0035089
0.0314249
0.0124439
0.00862282
0.00701286
0.00582124
0.00482372
0.00402478
0.00334078
0.0454568
0.0133511
0.00859442
0.00692968
0.00576298
0.00478468
0.00399224
0.00330692
0.0224411
0.0104789
0.00790662
0.0065919
0.00551198
0.00458285
0.00383146
0.00317921
0.011538
0.00847072
0.00714061
0.00607393
0.00511763
0.0043176
0.00369148
0.00314884
0.00869094
0.007481
0.00650993
0.00560552
0.00481171
0.00416848
0.003657
0.00317315
0.0153046
0.0132657
0.0123324
0.0116133
0.0108102
0.00958524
0.00761301
0.00521045
0.0215212
0.0146641
0.0127732
0.0119198
0.0112838
0.0104005
0.00873772
0.00640649
0.0366037
0.0170041
0.0130249
0.011704
0.0109849
0.0102263
0.00883511
0.00682261
0.049574
0.017932
0.0128387
0.0113448
0.0106045
0.00993903
0.00874669
0.00698718
0.0262896
0.0147272
0.0121564
0.0111513
0.010524
0.00978749
0.0084166
0.00647748
0.0156419
0.0126365
0.0115654
0.0109363
0.010393
0.00959818
0.00810413
0.00603055
0.0127553
0.0117729
0.0111494
0.0105945
0.00992619
0.00886377
0.00714059
0.00504576
0.000144163
0.000142893
0.000140744
0.000137599
0.000133258
0.0001295
0.000126056
0.00012192
0.000205386
0.000158183
0.000144028
0.000135999
0.000128795
0.000123105
0.000119622
0.000117104
0.000807262
0.000256846
0.000163032
0.000144084
0.000133524
0.000124302
0.000116441
0.000109588
0.00242412
0.00048027
0.000198424
0.000154347
0.000139593
0.000128638
0.00011881
0.000109935
0.00157812
0.00039601
0.000196861
0.000160073
0.00014555
0.00013455
0.000124509
0.000115816
0.000364391
0.000214527
0.000171033
0.00015805
0.000149605
0.000141103
0.000135183
0.000130537
0.000186164
0.000175021
0.000170534
0.000165031
0.00015969
0.000155567
0.000152638
0.000150588
0.000660224
0.000518026
0.000440179
0.000379859
0.00033157
0.000292802
0.000261604
0.000235984
0.00128692
0.000699922
0.000550651
0.00046397
0.000397661
0.000343578
0.000298844
0.000261791
0.00459808
0.001179
0.000733248
0.000585689
0.000493586
0.000420744
0.000359655
0.000308171
0.0129405
0.00196964
0.000925118
0.000690135
0.000572853
0.000486684
0.000416357
0.000357271
0.00872724
0.00176304
0.000913739
0.000689804
0.000571282
0.000483078
0.000410883
0.000350383
0.00236157
0.000977853
0.000698302
0.000569264
0.000478859
0.000406864
0.000348209
0.00029984
0.000873374
0.000633195
0.000537307
0.000463611
0.000402631
0.00035233
0.000311258
0.000277612
0.00286005
0.00241905
0.00214153
0.00187001
0.00158904
0.00130659
0.00103893
0.000804921
0.00449597
0.00287731
0.0024246
0.00211998
0.00182523
0.00151924
0.00121216
0.000927768
0.0127638
0.00404427
0.00277793
0.00233716
0.00202039
0.00170925
0.0013877
0.00107207
0.0334506
0.00601559
0.00312494
0.00244639
0.00207764
0.00175375
0.00142972
0.00111257
0.0206703
0.00530621
0.00312974
0.00251413
0.00214708
0.001813
0.00147484
0.00114308
0.00746335
0.00364168
0.00279877
0.00238785
0.00204316
0.00169717
0.00135081
0.00102878
0.00368136
0.00283273
0.00247461
0.00216204
0.00183918
0.00150976
0.00119432
0.000917465
0.00904848
0.00790278
0.00695829
0.00606506
0.0052778
0.00463727
0.00411871
0.0036036
0.0118887
0.00895697
0.00769069
0.00667756
0.0057877
0.00506353
0.00450555
0.00398829
0.0233764
0.0109223
0.00832055
0.00702488
0.00601251
0.00520733
0.00462266
0.00414115
0.0528013
0.0140996
0.00886114
0.00713086
0.00598688
0.00510275
0.00446054
0.00395014
0.033528
0.0127647
0.00886135
0.00728318
0.00618226
0.00533694
0.00473155
0.00424032
0.0166639
0.0103537
0.00838485
0.00715258
0.00614974
0.00534798
0.004736
0.00418004
0.0108065
0.00885511
0.00768451
0.00665854
0.00575715
0.00501756
0.00441766
0.00383147
0.0129428
0.011954
0.0112505
0.0105666
0.00974191
0.00851657
0.00667014
0.00454029
0.0158973
0.0130967
0.0120859
0.0114323
0.0107732
0.00973826
0.00791454
0.00551673
0.026777
0.0152092
0.0128225
0.0119863
0.0114871
0.0107572
0.00916941
0.00676581
0.0537875
0.0184877
0.0134
0.0121173
0.011609
0.0110849
0.00981157
0.00769214
0.0366572
0.0171249
0.0134447
0.0123384
0.0117566
0.010967
0.00929138
0.00678754
0.0209958
0.0146684
0.0129054
0.0120226
0.0112469
0.0101052
0.00813655
0.00556858
0.0150193
0.0131253
0.0121532
0.0113179
0.0103553
0.00896498
0.00690649
0.00456058
0.000111722
0.000106958
0.0001045
9.87854e-05
0.000101904
0.000104731
0.000111045
0.000189587
0.000188692
0.000186084
0.000186729
0.000186903
0.000191625
0.000201033
0.000540697
0.000540224
0.000540728
0.00054223
0.000547383
0.000556611
0.000576763
0.00254792
0.00255953
0.00258277
0.00260296
0.00262871
0.00265669
0.00272714
0.00252784
0.00245894
0.00246692
0.00248129
0.00247473
0.00245122
0.00242617
0.000155186
0.000138801
0.000119824
0.000112465
0.000121919
0.000142936
0.000156773
0.000251371
0.000259929
0.000280336
0.00029066
0.000289517
0.000266511
0.000241774
0.00069809
0.000731947
0.000787389
0.000780901
0.000785449
0.000729467
0.000679799
0.00298094
0.00317956
0.00338456
0.00333014
0.00337869
0.00311839
0.00286435
0.00228799
0.00248279
0.00288241
0.00347939
0.00283837
0.00247744
0.00238256
0.000137179
0.000112678
9.25013e-05
8.62112e-05
8.73218e-05
0.000101266
0.00011262
0.000221059
0.000227985
0.000281134
0.00029817
0.000237905
0.000197038
0.000187418
0.000650564
0.00069016
0.00076856
0.000750703
0.000674729
0.000584202
0.000546405
0.00284845
0.00281082
0.00254637
0.00249987
0.0024124
0.00249388
0.00255028
0.00278393
0.00356403
0.00411686
0.00446407
0.00390512
0.0034591
0.00286435
0.000117582
0.000114021
0.000104237
0.000101745
0.000108359
0.000126668
0.000148872
0.000214193
0.000230854
0.000265806
0.000308952
0.000300705
0.00026063
0.00024946
0.000619954
0.000694461
0.000798526
0.000837796
0.000854185
0.000763863
0.000699259
0.00289939
0.00324019
0.00345368
0.0032646
0.00354598
0.00339135
0.00305008
0.00247222
0.0028299
0.00365742
0.00462858
0.00360075
0.00274946
0.0023489
0.000109476
0.000106829
0.000100733
9.25016e-05
8.26866e-05
7.23909e-05
6.22055e-05
5.22438e-05
0.000104966
0.000101874
9.5107e-05
8.6748e-05
7.71689e-05
6.7238e-05
5.74832e-05
4.80353e-05
0.000102173
9.91464e-05
9.27099e-05
8.30965e-05
7.33108e-05
6.37834e-05
5.44941e-05
4.55316e-05
9.64944e-05
9.50842e-05
9.14655e-05
8.36601e-05
7.31807e-05
6.25385e-05
5.30459e-05
4.4307e-05
9.8959e-05
9.59405e-05
9.08916e-05
8.14491e-05
7.17811e-05
6.25025e-05
5.34468e-05
4.47087e-05
0.000102456
9.89797e-05
9.24215e-05
8.39977e-05
7.46084e-05
6.49221e-05
5.54753e-05
4.63854e-05
0.000108829
0.000106222
9.99447e-05
9.09321e-05
8.05346e-05
6.99338e-05
5.97331e-05
5.00001e-05
0.000172465
0.000148579
0.000121732
9.80273e-05
7.97565e-05
6.59839e-05
5.53536e-05
4.70364e-05
0.000171785
0.000147299
0.000120502
9.66387e-05
7.81292e-05
6.41371e-05
5.33763e-05
4.50197e-05
0.00016842
0.000143805
0.000117277
9.42227e-05
7.6197e-05
6.25132e-05
5.19802e-05
4.37855e-05
0.000168364
0.000143182
0.000117041
9.37145e-05
7.53336e-05
6.15546e-05
5.11016e-05
4.30276e-05
0.000168445
0.000143345
0.000116274
9.31727e-05
7.51489e-05
6.15288e-05
5.11063e-05
4.30297e-05
0.000173337
0.000147228
0.000119302
9.49622e-05
7.62026e-05
6.21928e-05
5.15659e-05
4.34055e-05
0.000182307
0.000154956
0.000124377
9.81695e-05
7.83526e-05
6.37765e-05
5.28515e-05
4.45365e-05
0.000424387
0.000320916
0.000218625
0.000147275
0.000103231
7.61306e-05
5.88716e-05
4.76497e-05
0.000423364
0.000319032
0.000217431
0.000146551
0.000102608
7.54631e-05
5.81517e-05
4.69085e-05
0.000420669
0.000313936
0.000215281
0.00014569
0.000102095
7.5019e-05
5.77087e-05
4.64509e-05
0.000419591
0.00031068
0.000214132
0.000145362
0.000101843
7.4719e-05
5.741e-05
4.61809e-05
0.000423535
0.000313194
0.000214829
0.000145144
0.000101421
7.43378e-05
5.70979e-05
4.59286e-05
0.000431848
0.00032043
0.000217613
0.000145717
0.000101201
7.39067e-05
5.66853e-05
4.56147e-05
0.000449689
0.000336246
0.000225503
0.000149019
0.000102441
7.42909e-05
5.67529e-05
4.56002e-05
0.00183378
0.00089845
0.00039918
0.000200293
0.000116336
7.62515e-05
5.48882e-05
4.27627e-05
0.0018282
0.000891909
0.000396299
0.00019946
0.000116174
7.62399e-05
5.49061e-05
4.28158e-05
0.0018419
0.000900781
0.000399904
0.000200687
0.000116589
7.63525e-05
5.48871e-05
4.27344e-05
0.00185678
0.000909549
0.000403081
0.000201532
0.00011675
7.63576e-05
5.48884e-05
4.27651e-05
0.00187836
0.000917916
0.000404714
0.000201301
0.000116193
7.58354e-05
5.44567e-05
4.24103e-05
0.00190169
0.000924081
0.000404711
0.000200102
0.000114966
7.48278e-05
5.36961e-05
4.18611e-05
0.00195858
0.000946704
0.000411476
0.00020169
0.000114868
7.42161e-05
5.29771e-05
4.11646e-05
0.0017372
0.00102803
0.000454842
0.00021149
0.000112251
6.84294e-05
4.71365e-05
3.60895e-05
0.00165325
0.000993179
0.000445867
0.000209328
0.000111655
6.81858e-05
4.70311e-05
3.61325e-05
0.00163497
0.00098727
0.000445959
0.000209887
0.00011192
6.82452e-05
4.70057e-05
3.60977e-05
0.00163563
0.00098767
0.000446801
0.000210357
0.000112168
6.84221e-05
4.71717e-05
3.62771e-05
0.00163763
0.00098751
0.000445596
0.000209236
0.000111322
6.78145e-05
4.67324e-05
3.59405e-05
0.00163673
0.000983685
0.00044145
0.000206456
0.000109601
6.6749e-05
4.60657e-05
3.55144e-05
0.00164513
0.000984815
0.000438429
0.000203661
0.000107525
6.52485e-05
4.49605e-05
3.46423e-05
0.000153375
0.000146587
0.000134684
0.000119385
0.000103629
8.87775e-05
7.51728e-05
6.2775e-05
0.00013719
0.000136317
0.00012913
0.000116762
0.000102183
8.776e-05
7.39487e-05
6.13922e-05
0.000114283
0.000106563
9.83979e-05
9.03065e-05
8.19637e-05
7.29529e-05
6.30727e-05
5.2747e-05
0.000107127
9.75708e-05
8.78758e-05
7.82386e-05
6.85453e-05
5.99813e-05
5.22081e-05
4.39398e-05
0.000116577
0.000108426
0.000100433
9.23041e-05
8.44903e-05
7.57785e-05
6.62743e-05
5.5694e-05
0.000140453
0.000139948
0.000133586
0.000120861
0.000106364
9.17414e-05
7.7308e-05
6.3978e-05
0.000154499
0.000147412
0.000136056
0.000121344
0.000105972
9.11892e-05
7.73882e-05
6.4604e-05
0.000226992
0.000187455
0.000144663
0.000109877
8.48762e-05
6.74657e-05
5.51836e-05
4.63441e-05
0.000233092
0.000195871
0.000156138
0.000121354
9.46696e-05
7.48174e-05
6.02275e-05
4.95192e-05
0.000246151
0.000203597
0.000166851
0.00013718
0.000112855
9.2834e-05
7.57342e-05
6.10546e-05
0.000255659
0.000211454
0.000172236
0.000139619
0.000113097
9.22168e-05
7.53653e-05
6.18694e-05
0.000254815
0.000212065
0.000174667
0.000144212
0.000118795
9.80344e-05
8.02123e-05
6.49311e-05
0.000239181
0.00020239
0.000161254
0.000125701
9.81768e-05
7.76218e-05
6.23815e-05
5.12334e-05
0.000218439
0.00018213
0.000142285
0.000109608
8.5773e-05
6.88522e-05
5.66365e-05
4.76927e-05
0.000547164
0.000388824
0.000245292
0.00015368
0.000101244
7.12496e-05
5.35176e-05
4.27703e-05
0.000554419
0.000406802
0.000272725
0.000179809
0.000122974
8.87737e-05
6.76876e-05
5.44013e-05
0.00059151
0.000417382
0.000318203
0.000241095
0.000185396
0.00014644
0.000118181
9.65112e-05
0.000584558
0.000402785
0.000290846
0.00021706
0.000164895
0.000127112
9.9873e-05
8.06515e-05
0.000592069
0.000421489
0.000321965
0.000242356
0.000185177
0.000145748
0.000117914
9.76679e-05
0.000555924
0.000409645
0.00027358
0.000180121
0.000123253
8.90215e-05
6.78385e-05
5.45048e-05
0.000532391
0.000379136
0.000241275
0.000152997
0.000102017
7.24605e-05
5.47034e-05
4.3763e-05
0.0020896
0.000982727
0.000414258
0.000195871
0.000107911
6.81385e-05
4.81571e-05
3.74549e-05
0.0022805
0.00111367
0.000488522
0.000240509
0.000138214
9.11042e-05
6.70081e-05
5.38744e-05
0.00253273
0.00136234
0.000665974
0.000369476
0.000243676
0.000183537
0.000150748
0.000130442
0.0025418
0.00141907
0.000739587
0.000430707
0.000282553
0.000196508
0.000139761
0.000106049
0.00251523
0.001339
0.00064587
0.000353471
0.000230023
0.000171484
0.000140329
0.000122629
0.0022223
0.00108037
0.000474627
0.000234429
0.000134843
8.86527e-05
6.48204e-05
5.18172e-05
0.00200909
0.000953698
0.000408306
0.000196227
0.000109576
6.97613e-05
4.93996e-05
3.82789e-05
0.00155347
0.000917592
0.000401115
0.000183382
9.59546e-05
5.8396e-05
4.08641e-05
3.21723e-05
0.00165152
0.000991194
0.000452108
0.00021873
0.000122387
7.97961e-05
5.93742e-05
4.93761e-05
0.0018533
0.00114649
0.00057236
0.000319424
0.000215003
0.000170974
0.000152911
0.000146288
0.00220491
0.00146188
0.000833689
0.0005406
0.000404994
0.000323805
0.00025264
0.00018247
0.00182762
0.00112078
0.000548426
0.000297231
0.000193827
0.000150741
0.000133359
0.000127744
0.0016529
0.000988638
0.000446548
0.000213435
0.000117601
7.53776e-05
5.53681e-05
4.55513e-05
0.00163044
0.000954468
0.000415092
0.000189791
9.95174e-05
6.0551e-05
4.21156e-05
3.27701e-05
0.000133494
0.00012873
0.000121386
0.000110307
9.78215e-05
8.54347e-05
7.3506e-05
6.20302e-05
0.000108549
0.000101734
9.44817e-05
8.79018e-05
8.05098e-05
7.20737e-05
6.35423e-05
5.49035e-05
8.74338e-05
7.97463e-05
7.28632e-05
6.66718e-05
6.02505e-05
5.36713e-05
4.7318e-05
4.12296e-05
8.10021e-05
7.28991e-05
6.52559e-05
5.84493e-05
5.18757e-05
4.55861e-05
3.97961e-05
3.43409e-05
8.29745e-05
7.60318e-05
7.03799e-05
6.47319e-05
5.89654e-05
5.27208e-05
4.64407e-05
4.03835e-05
9.74837e-05
9.17457e-05
8.66801e-05
8.03892e-05
7.48834e-05
6.77161e-05
5.99725e-05
5.20352e-05
0.000108551
0.000102507
9.91284e-05
9.28457e-05
8.4284e-05
7.48705e-05
6.52332e-05
5.55349e-05
0.000195763
0.000164953
0.000131772
0.000103462
8.22078e-05
6.68941e-05
5.57131e-05
4.73651e-05
0.000191514
0.00015108
0.00012039
9.81873e-05
8.14139e-05
6.86728e-05
5.8903e-05
5.1157e-05
0.000232128
0.000177805
0.000137605
0.000108574
8.74105e-05
7.14948e-05
5.9112e-05
4.91387e-05
0.000251729
0.000198757
0.00015738
0.000125058
9.99291e-05
8.02707e-05
6.45671e-05
5.19985e-05
0.000198138
0.000153139
0.00011954
9.51924e-05
7.70595e-05
6.33299e-05
5.26187e-05
4.39912e-05
0.000169483
0.000138134
0.000111589
9.22727e-05
7.686e-05
6.50905e-05
5.60499e-05
4.8918e-05
0.000168436
0.000144896
0.00012039
9.7966e-05
8.0055e-05
6.64516e-05
5.60648e-05
4.80143e-05
0.000485297
0.000348732
0.000233093
0.000153591
0.000105028
7.57633e-05
5.76139e-05
4.61184e-05
0.000488441
0.000315042
0.000223212
0.000166285
0.000125297
9.65756e-05
7.63969e-05
6.20896e-05
0.000542786
0.000340445
0.000225437
0.000159107
0.00011876
9.30058e-05
7.55479e-05
6.30942e-05
0.000537433
0.000345852
0.00023442
0.000168057
0.000125722
9.67518e-05
7.57013e-05
6.00728e-05
0.000474108
0.000295937
0.000195919
0.0001384
0.000102688
7.96548e-05
6.45739e-05
5.47306e-05
0.000417996
0.000273066
0.000193509
0.000145308
0.000110688
8.65351e-05
6.96673e-05
5.77253e-05
0.000415985
0.000303895
0.000213304
0.000147166
0.000104522
7.7663e-05
6.03581e-05
4.90303e-05
0.00204692
0.00100799
0.000445591
0.000218589
0.000123766
7.93625e-05
5.60907e-05
4.30001e-05
0.00208661
0.0011424
0.000564906
0.00029659
0.000176032
0.00011673
8.37309e-05
6.376e-05
0.0017745
0.000923192
0.000472543
0.000275051
0.000185074
0.000138554
0.000109555
8.75161e-05
0.00172192
0.000894346
0.000456754
0.000260307
0.000167858
0.000118243
8.75482e-05
6.71476e-05
0.00167759
0.000865886
0.000435239
0.000246214
0.000160503
0.000117985
9.4085e-05
7.76369e-05
0.0018308
0.000985276
0.000482531
0.000253906
0.000152871
0.000103685
7.63914e-05
5.96989e-05
0.00185414
0.000934777
0.000422421
0.000212339
0.000123401
8.11031e-05
5.85301e-05
4.55989e-05
0.00188613
0.00109845
0.000485617
0.000225862
0.000119774
7.28743e-05
4.99214e-05
3.77726e-05
0.00226816
0.0013281
0.000616518
0.000305051
0.000171974
0.000109808
7.68529e-05
5.7641e-05
0.00242176
0.00137853
0.000676236
0.000369081
0.00023329
0.000164289
0.000122142
9.42041e-05
0.00257272
0.00145847
0.000717221
0.00037926
0.000223078
0.00014693
0.000106675
8.34647e-05
0.00233097
0.00131173
0.000626928
0.000332225
0.000205839
0.000145654
0.00011162
8.93799e-05
0.00223669
0.00130167
0.000593372
0.00028855
0.000162129
0.000104647
7.4435e-05
5.67111e-05
0.00195819
0.00114264
0.000504114
0.000234324
0.000124809
7.65773e-05
5.28967e-05
4.02676e-05
0.000114489
0.000112401
0.000107758
9.8772e-05
8.77018e-05
7.62394e-05
6.51998e-05
5.47212e-05
0.000110582
0.000105529
0.00010214
9.60673e-05
8.69251e-05
7.63249e-05
6.54349e-05
5.49357e-05
9.96608e-05
9.10903e-05
8.36847e-05
7.65523e-05
6.91723e-05
6.15567e-05
5.39696e-05
4.64124e-05
9.52495e-05
8.55149e-05
7.64906e-05
6.83154e-05
6.06894e-05
5.3374e-05
4.64495e-05
3.98563e-05
0.000102525
9.35711e-05
8.56242e-05
7.79565e-05
7.01843e-05
6.24572e-05
5.48005e-05
4.70074e-05
0.000123686
0.000117376
0.000113173
0.000105432
9.46816e-05
8.2668e-05
7.06935e-05
5.9286e-05
0.000147162
0.000142075
0.000131513
0.000117263
0.000102082
8.76248e-05
7.4334e-05
6.21185e-05
0.000194071
0.000166109
0.000133263
0.000104346
8.22042e-05
6.60052e-05
5.41055e-05
4.52638e-05
0.000203624
0.000170317
0.000138829
0.000110413
8.74609e-05
6.99347e-05
5.67525e-05
4.67525e-05
0.000227954
0.000183361
0.000146825
0.00011825
9.59654e-05
7.85415e-05
6.42996e-05
5.21161e-05
0.000264754
0.000212597
0.000169976
0.000136431
0.000110146
8.95479e-05
7.31815e-05
5.96488e-05
0.000256005
0.000204531
0.000163406
0.000131481
0.000106787
8.7155e-05
7.09681e-05
5.72805e-05
0.000226266
0.000186395
0.00015013
0.00011821
9.2995e-05
7.41675e-05
6.02711e-05
4.99465e-05
0.000223587
0.000184987
0.000143271
0.000108956
8.41583e-05
6.68949e-05
5.47116e-05
4.593e-05
0.000479221
0.000358119
0.000239599
0.000156772
0.000106216
7.58387e-05
5.71191e-05
4.53459e-05
0.000520256
0.00037325
0.000261886
0.000178688
0.000124372
9.01543e-05
6.83658e-05
5.42819e-05
0.00058094
0.000382844
0.000268271
0.000202366
0.000158126
0.000125152
0.000100517
8.19603e-05
0.000611452
0.000399648
0.000273855
0.000198286
0.00014936
0.000115641
9.15566e-05
7.398e-05
0.000620215
0.000407261
0.00028446
0.000213592
0.000168082
0.000134083
0.000108229
8.84284e-05
0.000564291
0.00039941
0.000275646
0.000185612
0.000128106
9.25598e-05
7.04003e-05
5.63935e-05
0.000536059
0.000386543
0.000246776
0.000155303
0.000102361
7.19382e-05
5.3914e-05
4.2959e-05
0.00208587
0.00101111
0.000437466
0.000211414
0.000118488
7.55298e-05
5.33616e-05
4.11182e-05
0.00237747
0.00121082
0.000543992
0.000267524
0.00015199
9.88103e-05
7.13748e-05
5.6135e-05
0.00265602
0.00149481
0.000763193
0.000416243
0.000255664
0.000177977
0.000138091
0.000117019
0.00248017
0.00138673
0.000706245
0.00037746
0.000222005
0.000145128
0.000104992
8.33204e-05
0.00273126
0.00153556
0.000782723
0.000426396
0.000260826
0.000180734
0.000139014
0.000116725
0.00247729
0.00124887
0.000554884
0.000269466
0.000151079
9.69905e-05
6.99915e-05
5.54806e-05
0.00215667
0.00102026
0.000430432
0.000202914
0.000111417
7.01293e-05
4.93893e-05
3.82343e-05
0.00167909
0.000997971
0.000442182
0.000204869
0.000108233
6.60099e-05
4.58383e-05
3.55353e-05
0.00187778
0.00112509
0.000516614
0.000250616
0.000139433
8.97046e-05
6.54733e-05
5.29387e-05
0.00229567
0.00142865
0.000722869
0.000392532
0.000244943
0.000176533
0.000145063
0.00013456