/*--------------------------------*- C++ -*----------------------------------*\
| =========                 |                                                 |
| \\      /  F ield         | OpenFOAM: The Open Source CFD Toolbox           |
|  \\    /   O peration     | Version:  plus.master.MPPICInterFoam            |
|   \\  /    A nd           | Web:      www.OpenFOAM.com                      |
|    \\/     M anipulation  |                                                 |
\*---------------------------------------------------------------------------*/
FoamFile
{
    version     2.0;
    format      ascii;
    class       volScalarField;
    location    "6.2";
    object      p;
}
// * * * * * * * * * * * * * * * * * * * * * * * * * * * * * * * * * * * * * //

dimensions      [1 -1 -2 0 0 0 0];

internalField   nonuniform List<scalar> 
11821
(
5652.27
5656.8
5658.17
5658.36
5657.83
5656.16
5651.28
5656.69
5675.59
5673.28
5672.8
5672.41
5674.23
5655
5658.14
5673.28
5675.1
5670.74
5674.03
5672.03
5655.76
5659.05
5673.3
5671.34
5672.75
5670.16
5671.65
5656.13
5658.45
5672.82
5674.86
5670.08
5673.73
5671.56
5655.98
5656.69
5675.2
5673.08
5672.55
5672.1
5673.65
5655.2
5651.91
5655.55
5656.6
5656.94
5656.46
5655.29
5650.85
5509.57
5510.7
5511.53
5511.45
5510.97
5509.96
5508.84
5510.61
5514.88
5515.34
5515.58
5514.67
5512.27
5509.73
5511.45
5515.23
5524.37
5526.33
5524.43
5513.72
5510.19
5511.57
5514.82
5522.68
5533.12
5527.62
5514.82
5510.15
5511.24
5514.86
5523.82
5525.86
5523.67
5513.45
5510.15
5510.27
5513.66
5514.58
5514.79
5513.88
5511.91
5509.53
5509.17
5510.22
5510.9
5510.8
5510.36
5509.52
5508.54
5363.18
5360.75
5358.56
5357.38
5358.21
5360.59
5363.16
5360.53
5356.41
5351.27
5348.76
5351.13
5356.49
5360.87
5358.14
5350.87
5352.04
5353.47
5353.85
5351.53
5358.86
5357.15
5348.23
5348.38
5358.25
5357.74
5351.32
5358.08
5357.78
5350.47
5351.72
5353.35
5353.02
5351.4
5358.75
5360
5355.56
5350.05
5347.62
5350.03
5355.95
5360.55
5362.61
5360.01
5357.51
5356.13
5357.28
5359.98
5362.76
5221.2
5216.61
5212.55
5210.92
5212.98
5217.33
5221.96
5216.35
5207.85
5198.49
5195.67
5200.11
5209.79
5218.09
5211.91
5198.27
5199.37
5202.9
5201.35
5201.24
5214.88
5209.91
5194.69
5196.96
5205.17
5204.98
5199.48
5214.21
5211.6
5198.09
5199.88
5204.21
5201.29
5201.73
5215.02
5215.97
5207.32
5197.83
5195.82
5199.85
5209.78
5218.05
5220.84
5216.16
5211.76
5209.81
5212.42
5217.11
5221.85
5082.99
5080.22
5077.81
5077.2
5078.95
5081.38
5083.9
5080.04
5074.59
5069.07
5069.67
5072.55
5077.34
5081.92
5077.31
5069.57
5074.72
5079.49
5074.8
5072.92
5080.38
5075.62
5066.9
5074.86
5081.18
5080.09
5069.7
5080.33
5076.89
5069.22
5075.63
5080.74
5075.23
5072.85
5080.34
5079.54
5073.99
5068.12
5070.34
5072.36
5077.15
5081.71
5082.47
5079.67
5077
5076.17
5078.46
5081.04
5083.59
5648.11
5645.99
5644.07
5642.54
5641.3
5640.29
5639.48
5638.84
5650.05
5647.48
5644.91
5643.01
5641.53
5640.37
5639.48
5638.79
5650.89
5648.52
5645.5
5643.3
5641.62
5640.38
5639.44
5638.71
5651.21
5648.8
5645.68
5643.41
5641.69
5640.34
5639.37
5638.64
5650.9
5648.41
5645.55
5643.34
5641.67
5640.39
5639.45
5638.73
5649.95
5647.24
5644.9
5642.96
5641.46
5640.3
5639.43
5638.75
5647.85
5645.8
5643.97
5642.44
5641.21
5640.21
5639.4
5638.77
5508.13
5507.61
5507.19
5506.89
5506.66
5506.51
5506.4
5506.35
5508.5
5507.78
5507.25
5506.89
5506.64
5506.47
5506.38
5506.34
5508.8
5507.9
5507.26
5506.85
5506.58
5506.41
5506.32
5506.28
5508.93
5507.98
5507.3
5506.86
5506.58
5506.41
5506.31
5506.29
5508.75
5507.85
5507.23
5506.83
5506.56
5506.4
5506.3
5506.27
5508.37
5507.67
5507.17
5506.81
5506.57
5506.42
5506.33
5506.29
5507.91
5507.42
5507.03
5506.75
5506.55
5506.41
5506.33
5506.3
5365.24
5366.67
5367.88
5368.89
5369.74
5370.46
5371.08
5371.67
5363.72
5365.68
5367.21
5368.44
5369.44
5370.27
5370.98
5371.64
5362.58
5364.9
5366.66
5368.06
5369.18
5370.1
5370.87
5371.57
5362.28
5364.7
5366.5
5367.94
5369.1
5370.05
5370.84
5371.56
5362.44
5364.77
5366.57
5368
5369.13
5370.06
5370.84
5371.55
5363.56
5365.58
5367.12
5368.35
5369.36
5370.19
5370.89
5371.54
5364.99
5366.45
5367.69
5368.73
5369.59
5370.32
5370.96
5371.55
5225.41
5227.84
5230.01
5231.96
5233.78
5235.6
5237.53
5239.6
5223.14
5226.46
5229.11
5231.34
5233.35
5235.33
5237.42
5239.68
5221.43
5225.35
5228.34
5230.81
5232.99
5235.09
5237.29
5239.67
5221.18
5225.15
5228.16
5230.68
5232.91
5235.04
5237.27
5239.69
5221.44
5225.33
5228.32
5230.8
5232.99
5235.1
5237.31
5239.7
5223.1
5226.42
5229.08
5231.33
5233.38
5235.38
5237.51
5239.79
5225.38
5227.85
5230.06
5232.05
5233.91
5235.77
5237.74
5239.85
5085.6
5086.71
5087.68
5088.41
5088.84
5088.66
5087.72
5087.67
5084.64
5086.27
5087.47
5088.34
5088.88
5088.76
5087.72
5087.44
5083.78
5085.74
5087.16
5088.19
5088.82
5088.74
5087.65
5087.26
5083.77
5085.69
5087.12
5088.18
5088.84
5088.77
5087.66
5087.24
5083.69
5085.63
5087.05
5088.08
5088.73
5088.65
5087.57
5087.2
5084.41
5086.06
5087.27
5088.16
5088.71
5088.59
5087.55
5087.28
5085.39
5086.56
5087.54
5088.26
5088.68
5088.49
5087.51
5087.4
5648.77
5646.42
5644.46
5642.87
5641.57
5640.54
5639.72
5639.05
5651.4
5648.09
5645.52
5643.47
5641.77
5640.52
5639.64
5638.87
5652.99
5649.26
5646.21
5643.95
5642.2
5640.79
5639.73
5638.92
5653.53
5649.78
5646.63
5644.32
5642.56
5641.21
5640.16
5639.34
5652.98
5649.56
5646.38
5644.12
5642.37
5640.98
5639.88
5639.05
5651.52
5648.35
5645.69
5643.6
5641.87
5640.6
5639.76
5639.01
5648.98
5646.67
5644.68
5643.05
5641.73
5640.69
5639.85
5639.18
5508.49
5507.91
5507.45
5507.1
5506.84
5506.64
5506.51
5506.44
5509.07
5508.26
5507.67
5507.23
5506.91
5506.68
5506.53
5506.44
5509.66
5508.65
5507.93
5507.41
5507.04
5506.78
5506.58
5506.46
5509.93
5508.89
5508.14
5507.62
5507.25
5506.98
5506.79
5506.66
5509.81
5508.81
5508.07
5507.55
5507.17
5506.9
5506.7
5506.56
5509.33
5508.5
5507.88
5507.42
5507.08
5506.82
5506.66
5506.56
5508.82
5508.21
5507.71
5507.33
5507.03
5506.81
5506.66
5506.57
5364.86
5366.37
5367.64
5368.71
5369.59
5370.33
5370.97
5371.55
5363.16
5365.29
5366.91
5368.21
5369.25
5370.11
5370.84
5371.49
5361.95
5364.54
5366.45
5367.92
5369.08
5370.02
5370.81
5371.51
5361.6
5364.37
5366.4
5367.92
5369.12
5370.08
5370.89
5371.59
5362.27
5364.83
5366.68
5368.11
5369.24
5370.17
5370.94
5371.64
5363.57
5365.64
5367.22
5368.48
5369.5
5370.34
5371.05
5371.7
5365.33
5366.78
5368
5369.02
5369.88
5370.59
5371.21
5371.77
5224.52
5227.19
5229.57
5231.7
5233.68
5235.63
5237.66
5239.8
5221.64
5225.33
5228.22
5230.68
5232.9
5235.04
5237.25
5239.59
5219.38
5223.98
5227.28
5229.97
5232.35
5234.62
5236.96
5239.45
5218.55
5223.6
5227.05
5229.79
5232.19
5234.48
5236.84
5239.32
5219.63
5224.19
5227.44
5230.08
5232.43
5234.68
5237.01
5239.49
5221.95
5225.58
5228.41
5230.82
5233
5235.11
5237.29
5239.61
5224.8
5227.39
5229.7
5231.78
5233.71
5235.61
5237.6
5239.7
5084.52
5086.01
5087.25
5088.22
5088.83
5088.8
5087.97
5087.95
5082.92
5085.01
5086.58
5087.79
5088.61
5088.74
5087.93
5087.83
5081.64
5084.26
5086.02
5087.37
5088.31
5088.52
5087.72
5087.64
5081.21
5084.18
5085.98
5087.34
5088.32
5088.56
5087.8
5087.83
5081.96
5084.54
5086.25
5087.58
5088.52
5088.74
5087.97
5087.88
5083.36
5085.4
5086.92
5088.12
5088.96
5089.1
5088.31
5088.21
5084.9
5086.31
5087.53
5088.5
5089.13
5089.12
5088.34
5088.37
5649.02
5646.71
5644.72
5643.09
5641.78
5640.74
5639.91
5639.25
5651.63
5648.37
5645.74
5643.68
5642.06
5640.78
5639.77
5639.02
5652.94
5649.53
5646.48
5644.27
5642.58
5641.2
5640.08
5639.22
5653.39
5649.86
5646.63
5644.36
5642.66
5641.36
5640.36
5639.56
5652.77
5649.25
5646.13
5643.9
5642.21
5640.85
5639.77
5638.92
5651.16
5647.96
5645.34
5643.36
5641.81
5640.53
5639.54
5638.84
5648.39
5646.13
5644.21
5642.68
5641.46
5640.48
5639.73
5639.13
5508.84
5508.24
5507.75
5507.37
5507.08
5506.86
5506.7
5506.59
5509.49
5508.68
5508.05
5507.57
5507.2
5506.92
5506.71
5506.56
5509.99
5509.04
5508.34
5507.84
5507.47
5507.2
5506.98
5506.82
5509.99
5509.05
5508.36
5507.88
5507.52
5507.26
5507.06
5506.91
5509.58
5508.66
5508
5507.52
5507.17
5506.9
5506.71
5506.57
5508.92
5508.19
5507.65
5507.23
5506.92
5506.69
5506.52
5506.4
5508.26
5507.74
5507.32
5507.01
5506.77
5506.59
5506.47
5506.4
5365.37
5366.84
5368.07
5369.09
5369.94
5370.65
5371.26
5371.81
5363.84
5365.92
5367.5
5368.74
5369.73
5370.54
5371.22
5371.82
5362.68
5365.29
5367.2
5368.65
5369.78
5370.68
5371.44
5372.09
5362.09
5364.95
5367.01
5368.54
5369.74
5370.69
5371.49
5372.2
5362.44
5365.06
5366.97
5368.42
5369.55
5370.46
5371.22
5371.89
5363.67
5365.75
5367.34
5368.59
5369.59
5370.4
5371.09
5371.71
5365.29
5366.77
5367.99
5369
5369.83
5370.54
5371.15
5371.72
5224.82
5227.45
5229.75
5231.8
5233.68
5235.53
5237.46
5239.51
5222.14
5225.74
5228.51
5230.82
5232.89
5234.86
5236.9
5239.07
5220.13
5224.7
5227.93
5230.49
5232.71
5234.81
5236.94
5239.18
5219.42
5224.4
5227.79
5230.41
5232.66
5234.77
5236.91
5239.15
5220.29
5224.7
5227.86
5230.4
5232.59
5234.66
5236.77
5238.99
5222.48
5225.95
5228.64
5230.88
5232.88
5234.8
5236.81
5238.95
5225.32
5227.86
5230.03
5231.95
5233.73
5235.49
5237.36
5239.38
5085.09
5086.62
5087.84
5088.76
5089.33
5089.28
5088.47
5088.59
5083.48
5085.57
5087.1
5088.28
5089.08
5089.19
5088.45
5088.76
5082.44
5085.05
5086.77
5088.1
5089.05
5089.27
5088.57
5089.16
5082.42
5085.18
5086.87
5088.17
5089.13
5089.36
5088.69
5089.46
5082.9
5085.23
5086.86
5088.13
5089.01
5089.15
5088.39
5088.94
5084.04
5085.92
5087.3
5088.34
5089.05
5089.06
5088.15
5088.43
5085.74
5087.1
5088.1
5088.79
5089.18
5088.96
5088.03
5088.1
5648.04
5645.87
5644
5642.49
5641.27
5640.31
5639.56
5638.96
5650.68
5647.71
5645.08
5643.12
5641.59
5640.38
5639.44
5638.74
5652.18
5649.18
5645.78
5643.61
5641.92
5640.59
5639.55
5638.72
5652.43
5649.51
5646.1
5643.88
5642.21
5640.93
5639.94
5639.16
5652.16
5649.37
5645.95
5643.77
5642.1
5640.81
5639.79
5638.98
5650.87
5648.15
5645.38
5643.39
5641.85
5640.62
5639.65
5638.89
5648.66
5646.43
5644.43
5642.83
5641.53
5640.49
5639.66
5639
5507.96
5507.47
5507.08
5506.79
5506.58
5506.44
5506.34
5506.3
5508.49
5507.81
5507.29
5506.92
5506.65
5506.46
5506.33
5506.26
5509.01
5508.16
5507.53
5507.09
5506.78
5506.56
5506.4
5506.3
5509.33
5508.43
5507.76
5507.31
5507
5506.78
5506.63
5506.53
5509.36
5508.47
5507.8
5507.34
5507.01
5506.77
5506.61
5506.49
5508.98
5508.22
5507.63
5507.19
5506.87
5506.64
5506.48
5506.37
5508.46
5507.89
5507.43
5507.09
5506.82
5506.63
5506.5
5506.42
5364.91
5366.43
5367.68
5368.72
5369.58
5370.31
5370.94
5371.54
5363.1
5365.24
5366.87
5368.17
5369.21
5370.06
5370.79
5371.44
5361.66
5364.36
5366.33
5367.83
5369
5369.95
5370.73
5371.42
5361.12
5364.12
5366.25
5367.84
5369.07
5370.06
5370.88
5371.6
5361.79
5364.5
5366.47
5367.97
5369.15
5370.1
5370.89
5371.57
5363.17
5365.31
5366.94
5368.24
5369.28
5370.13
5370.85
5371.5
5364.84
5366.36
5367.64
5368.71
5369.6
5370.34
5370.98
5371.56
5225.22
5227.8
5230.04
5232.02
5233.89
5235.74
5237.7
5239.8
5222.21
5225.72
5228.49
5230.83
5232.93
5234.98
5237.13
5239.44
5219.81
5224.24
5227.44
5230.06
5232.35
5234.57
5236.84
5239.25
5218.71
5223.79
5227.19
5229.87
5232.22
5234.45
5236.75
5239.18
5219.53
5224.14
5227.41
5230.05
5232.39
5234.62
5236.91
5239.34
5221.72
5225.38
5228.23
5230.66
5232.84
5234.94
5237.12
5239.44
5224.5
5227.2
5229.58
5231.7
5233.68
5235.62
5237.63
5239.75
5085.34
5086.64
5087.64
5088.37
5088.8
5088.62
5087.68
5087.62
5083.61
5085.44
5086.8
5087.83
5088.5
5088.52
5087.67
5087.63
5082.27
5084.5
5086.06
5087.28
5088.13
5088.28
5087.5
5087.66
5081.62
5084.32
5085.92
5087.15
5088.04
5088.24
5087.51
5087.85
5081.67
5084.22
5085.91
5087.24
5088.17
5088.39
5087.68
5087.88
5082.9
5084.98
5086.52
5087.72
5088.54
5088.68
5087.92
5087.92
5084.52
5086.05
5087.3
5088.26
5088.87
5088.84
5088.01
5088.01
5638.35
5638.32
5638.21
5638.13
5638.22
5638.28
5638.28
5506.36
5506.37
5506.32
5506.33
5506.31
5506.33
5506.32
5372.26
5372.27
5372.22
5372.24
5372.22
5372.17
5372.15
5241.61
5241.79
5241.88
5241.91
5241.9
5241.94
5241.87
5092.46
5092.39
5092.36
5092.4
5092.32
5092.26
5092.15
5638.51
5638.3
5638.33
5638.77
5638.46
5638.44
5638.63
5506.41
5506.42
5506.41
5506.6
5506.5
5506.53
5506.52
5372.15
5372.1
5372.15
5372.24
5372.28
5372.31
5372.35
5241.79
5241.72
5241.71
5241.55
5241.74
5241.72
5241.68
5092.58
5092.74
5092.88
5093.4
5093.08
5093.1
5093.04
5638.72
5638.47
5638.6
5638.99
5638.31
5638.32
5638.64
5506.53
5506.47
5506.71
5506.81
5506.48
5506.34
5506.38
5372.36
5372.37
5372.66
5372.8
5372.46
5372.28
5372.29
5241.47
5241.06
5241.12
5241.06
5240.93
5240.95
5241.37
5093.45
5094.45
5095.91
5096.73
5095.68
5094.25
5093.06
5638.46
5638.24
5638.15
5638.61
5638.4
5638.34
5638.48
5506.31
5506.25
5506.26
5506.48
5506.43
5506.33
5506.39
5372.13
5372.06
5372.03
5372.22
5372.18
5372.1
5372.15
5241.82
5241.59
5241.43
5241.32
5241.52
5241.57
5241.74
5092.38
5092.75
5093.46
5094.17
5093.64
5092.97
5092.67
5637.67
5637.03
5636.65
5636.44
5636.33
5636.27
5636.23
5636.19
5637.75
5637.14
5636.74
5636.52
5636.39
5636.31
5636.26
5636.21
5637.65
5637.12
5636.73
5636.48
5636.36
5636.28
5636.23
5636.19
5637.56
5637.08
5636.76
5636.55
5636.38
5636.27
5636.22
5636.17
5637.61
5637.09
5636.72
5636.46
5636.32
5636.24
5636.19
5636.15
5637.68
5637.08
5636.68
5636.45
5636.31
5636.23
5636.17
5636.12
5637.6
5636.97
5636.59
5636.37
5636.24
5636.16
5636.11
5636.06
5506.39
5506.35
5506.32
5506.32
5506.34
5506.38
5506.41
5506.43
5506.43
5506.4
5506.38
5506.38
5506.4
5506.43
5506.46
5506.47
5506.39
5506.4
5506.39
5506.39
5506.41
5506.43
5506.46
5506.47
5506.42
5506.43
5506.43
5506.43
5506.43
5506.44
5506.46
5506.47
5506.38
5506.39
5506.37
5506.37
5506.38
5506.4
5506.42
5506.43
5506.38
5506.36
5506.33
5506.33
5506.34
5506.36
5506.38
5506.39
5506.36
5506.3
5506.27
5506.25
5506.26
5506.28
5506.3
5506.31
5373.2
5374.26
5375.08
5375.66
5376.06
5376.34
5376.52
5376.63
5373.23
5374.32
5375.15
5375.74
5376.15
5376.41
5376.59
5376.69
5373.17
5374.29
5375.14
5375.74
5376.15
5376.42
5376.6
5376.7
5373.2
5374.29
5375.14
5375.74
5376.15
5376.43
5376.6
5376.7
5373.19
5374.27
5375.11
5375.71
5376.12
5376.39
5376.56
5376.66
5373.09
5374.22
5375.07
5375.67
5376.08
5376.35
5376.52
5376.62
5373.11
5374.19
5375.02
5375.6
5376
5376.26
5376.43
5376.53
5243.95
5244.91
5245.54
5245.98
5246.29
5246.53
5246.72
5246.85
5244.16
5245.08
5245.69
5246.11
5246.41
5246.64
5246.82
5246.94
5244.29
5245.18
5245.76
5246.16
5246.45
5246.67
5246.83
5246.95
5244.29
5245.22
5245.8
5246.2
5246.48
5246.69
5246.85
5246.97
5244.29
5245.2
5245.78
5246.17
5246.45
5246.65
5246.81
5246.93
5244.35
5245.2
5245.75
5246.13
5246.41
5246.61
5246.77
5246.88
5244.22
5245.1
5245.66
5246.04
5246.31
5246.51
5246.67
5246.78
5103.32
5109.79
5112.97
5114.73
5115.77
5116.41
5116.81
5117.06
5103.24
5109.81
5113.04
5114.82
5115.87
5116.5
5116.9
5117.15
5103.19
5109.81
5113.05
5114.84
5115.89
5116.52
5116.91
5117.16
5103.19
5109.81
5113.06
5114.85
5115.9
5116.53
5116.93
5117.17
5103.14
5109.78
5113.03
5114.82
5115.87
5116.5
5116.89
5117.13
5103.12
5109.76
5113
5114.79
5115.84
5116.47
5116.86
5117.1
5103.09
5109.72
5112.95
5114.72
5115.75
5116.37
5116.75
5116.99
5637.75
5637.07
5636.64
5636.37
5636.2
5636.09
5636.01
5635.95
5637.62
5637
5636.58
5636.31
5636.13
5636.01
5635.9
5635.82
5637.57
5636.87
5636.4
5636.09
5635.87
5635.75
5635.64
5635.53
5638.05
5637.34
5636.83
5636.46
5636.16
5635.96
5635.86
5635.76
5637.7
5636.98
5636.51
5636.18
5635.96
5635.82
5635.71
5635.59
5637.7
5637.06
5636.65
5636.38
5636.22
5636.13
5636.03
5635.95
5637.83
5637.15
5636.73
5636.47
5636.32
5636.22
5636.15
5636.1
5506.35
5506.23
5506.14
5506.09
5506.07
5506.06
5506.07
5506.07
5506.4
5506.3
5506.21
5506.14
5506.09
5506.05
5506.03
5506.01
5506.35
5506.25
5506.16
5506.06
5505.98
5505.91
5505.83
5505.77
5506.52
5506.39
5506.27
5506.17
5506.09
5506.03
5505.99
5505.98
5506.43
5506.32
5506.24
5506.14
5506.05
5505.98
5505.9
5505.83
5506.5
5506.39
5506.3
5506.24
5506.2
5506.17
5506.15
5506.13
5506.44
5506.31
5506.23
5506.18
5506.17
5506.17
5506.18
5506.19
5373.13
5374.13
5374.89
5375.42
5375.77
5376
5376.14
5376.23
5373.02
5374.05
5374.82
5375.37
5375.73
5375.97
5376.11
5376.2
5373.08
5374.02
5374.74
5375.26
5375.6
5375.8
5375.89
5375.91
5373.16
5374.11
5374.81
5375.31
5375.65
5375.86
5376.01
5376.12
5373.21
5374.15
5374.85
5375.37
5375.69
5375.88
5375.97
5376
5373.23
5374.22
5374.96
5375.49
5375.85
5376.08
5376.22
5376.31
5373.29
5374.27
5375
5375.52
5375.87
5376.1
5376.25
5376.34
5244.04
5244.89
5245.42
5245.77
5246.02
5246.2
5246.34
5246.44
5244.06
5244.94
5245.47
5245.82
5246.06
5246.23
5246.36
5246.45
5244.09
5245.05
5245.56
5245.86
5246.03
5246.12
5246.14
5246.12
5244.02
5245.07
5245.65
5246
5246.2
5246.32
5246.39
5246.44
5244.1
5245.05
5245.57
5245.89
5246.08
5246.18
5246.22
5246.21
5244.02
5244.92
5245.48
5245.86
5246.12
5246.3
5246.44
5246.54
5243.91
5244.82
5245.39
5245.78
5246.06
5246.27
5246.43
5246.54
5103.26
5109.69
5112.82
5114.54
5115.53
5116.11
5116.47
5116.68
5103.32
5109.73
5112.86
5114.57
5115.55
5116.12
5116.46
5116.67
5103.43
5109.84
5112.95
5114.62
5115.53
5116.01
5116.23
5116.28
5103.85
5110.18
5113.27
5114.93
5115.85
5116.34
5116.58
5116.69
5103.58
5109.93
5113
5114.65
5115.57
5116.06
5116.31
5116.4
5103.62
5109.92
5112.98
5114.66
5115.63
5116.2
5116.54
5116.74
5103.62
5109.88
5112.94
5114.63
5115.61
5116.2
5116.57
5116.79
5637.93
5637.2
5636.75
5636.47
5636.3
5636.21
5636.16
5636.12
5637.77
5637.12
5636.7
5636.41
5636.19
5636.05
5635.98
5635.93
5637.81
5637.08
5636.62
5636.33
5636.12
5635.97
5635.86
5635.77
5638.26
5637.53
5637
5636.64
5636.37
5636.17
5636.03
5635.94
5637.54
5636.84
5636.44
5636.18
5636.01
5635.89
5635.8
5635.72
5637.6
5637.02
5636.67
5636.38
5636.19
5636.07
5636
5635.96
5637.9
5637.22
5636.78
5636.5
5636.33
5636.24
5636.18
5636.15
5506.46
5506.33
5506.24
5506.19
5506.18
5506.19
5506.22
5506.23
5506.38
5506.28
5506.23
5506.16
5506.12
5506.11
5506.11
5506.12
5506.56
5506.4
5506.29
5506.2
5506.14
5506.09
5506.07
5506.03
5506.68
5506.52
5506.41
5506.32
5506.26
5506.21
5506.18
5506.15
5506.37
5506.25
5506.16
5506.1
5506.06
5506.03
5506.01
5505.99
5506.28
5506.23
5506.2
5506.17
5506.16
5506.15
5506.17
5506.18
5506.37
5506.32
5506.28
5506.26
5506.27
5506.3
5506.33
5506.35
5373.21
5374.18
5374.94
5375.49
5375.87
5376.13
5376.3
5376.42
5373.2
5374.07
5374.76
5375.31
5375.69
5375.95
5376.13
5376.23
5373.48
5374.3
5374.91
5375.37
5375.71
5375.96
5376.13
5376.25
5373.64
5374.48
5375.09
5375.52
5375.81
5376
5376.12
5376.19
5373.29
5374.13
5374.76
5375.22
5375.56
5375.82
5376.02
5376.15
5373.13
5374.02
5374.73
5375.29
5375.7
5375.99
5376.18
5376.31
5373.19
5374.17
5374.95
5375.54
5375.95
5376.23
5376.43
5376.55
5243.76
5244.73
5245.35
5245.79
5246.1
5246.34
5246.52
5246.65
5243.45
5244.6
5245.24
5245.64
5245.92
5246.13
5246.3
5246.42
5243.38
5244.66
5245.46
5246
5246.37
5246.61
5246.75
5246.83
5243.24
5244.48
5245.21
5245.67
5245.97
5246.15
5246.27
5246.36
5243.19
5244.47
5245.26
5245.79
5246.15
5246.39
5246.53
5246.63
5243.38
5244.54
5245.22
5245.65
5245.96
5246.19
5246.37
5246.51
5243.67
5244.73
5245.4
5245.87
5246.21
5246.46
5246.66
5246.8
5103.83
5109.91
5112.91
5114.6
5115.6
5116.22
5116.61
5116.86
5104.35
5109.99
5112.81
5114.42
5115.41
5116.05
5116.46
5116.72
5105.43
5110.57
5113.18
5114.69
5115.64
5116.27
5116.68
5116.96
5105.99
5110.79
5113.21
5114.55
5115.41
5116
5116.41
5116.69
5105.25
5110.4
5113.01
5114.51
5115.44
5116.08
5116.5
5116.79
5104.19
5109.9
5112.74
5114.36
5115.39
5116.05
5116.49
5116.77
5103.62
5109.82
5112.89
5114.62
5115.67
5116.32
5116.74
5117.01
5637.74
5637.08
5636.65
5636.38
5636.21
5636.11
5636.03
5635.98
5637.55
5636.91
5636.5
5636.23
5636.05
5635.93
5635.83
5635.76
5637.42
5636.74
5636.31
5636.03
5635.86
5635.72
5635.62
5635.53
5637.9
5637.2
5636.7
5636.35
5636.11
5635.94
5635.82
5635.74
5637.65
5636.94
5636.46
5636.15
5635.93
5635.78
5635.65
5635.54
5637.62
5636.95
5636.52
5636.25
5636.07
5635.94
5635.85
5635.78
5637.71
5637.02
5636.59
5636.33
5636.16
5636.06
5636
5635.94
5506.34
5506.27
5506.21
5506.18
5506.18
5506.18
5506.19
5506.19
5506.25
5506.2
5506.14
5506.09
5506.05
5506.03
5506.01
5506
5506.21
5506.13
5506.06
5506
5505.94
5505.88
5505.82
5505.77
5506.42
5506.31
5506.21
5506.13
5506.06
5506.01
5505.98
5505.96
5506.36
5506.25
5506.15
5506.07
5505.99
5505.93
5505.86
5505.79
5506.3
5506.21
5506.13
5506.07
5506.02
5506
5505.98
5505.97
5506.34
5506.22
5506.13
5506.08
5506.06
5506.06
5506.06
5506.06
5373.06
5374.12
5374.93
5375.51
5375.89
5376.14
5376.3
5376.4
5372.97
5373.95
5374.73
5375.3
5375.69
5375.94
5376.1
5376.19
5372.93
5373.85
5374.57
5375.1
5375.47
5375.7
5375.83
5375.89
5373.11
5374.03
5374.72
5375.22
5375.56
5375.79
5375.94
5376.04
5373.05
5373.97
5374.69
5375.21
5375.56
5375.78
5375.89
5375.94
5373
5373.95
5374.71
5375.27
5375.65
5375.89
5376.05
5376.15
5373.11
5374.11
5374.87
5375.41
5375.77
5376
5376.15
5376.24
5244.15
5245.04
5245.6
5245.97
5246.23
5246.42
5246.56
5246.66
5243.92
5244.88
5245.45
5245.81
5246.06
5246.24
5246.36
5246.45
5243.91
5245
5245.58
5245.9
5246.08
5246.17
5246.21
5246.2
5243.77
5244.93
5245.54
5245.87
5246.05
5246.15
5246.23
5246.3
5243.99
5245.07
5245.67
5245.99
5246.16
5246.26
5246.29
5246.28
5243.87
5244.81
5245.36
5245.72
5245.97
5246.15
5246.28
5246.38
5243.99
5244.86
5245.41
5245.78
5246.03
5246.23
5246.37
5246.47
5103.24
5109.77
5112.95
5114.7
5115.71
5116.31
5116.68
5116.9
5103.48
5109.86
5112.96
5114.64
5115.59
5116.15
5116.48
5116.68
5103.94
5110.14
5113.13
5114.72
5115.61
5116.09
5116.33
5116.42
5104.48
5110.44
5113.33
5114.85
5115.67
5116.12
5116.37
5116.52
5104.02
5110.16
5113.14
5114.74
5115.64
5116.15
5116.43
5116.55
5103.55
5109.85
5112.9
5114.56
5115.51
5116.07
5116.4
5116.6
5103.33
5109.72
5112.84
5114.55
5115.54
5116.13
5116.49
5116.72
5636.16
5636.14
5636.12
5636.1
5636.08
5636.06
5636.05
5636.04
5636.18
5636.16
5636.14
5636.12
5636.1
5636.08
5636.07
5636.06
5636.16
5636.14
5636.12
5636.1
5636.08
5636.06
5636.05
5636.04
5636.14
5636.12
5636.1
5636.08
5636.06
5636.05
5636.04
5636.03
5636.11
5636.09
5636.07
5636.05
5636.03
5636.02
5636
5636
5636.09
5636.06
5636.04
5636.02
5636
5635.98
5635.97
5635.96
5636.02
5636
5635.98
5635.96
5635.93
5635.92
5635.9
5635.9
5506.44
5506.44
5506.45
5506.45
5506.44
5506.44
5506.43
5506.43
5506.48
5506.48
5506.48
5506.48
5506.48
5506.47
5506.47
5506.46
5506.47
5506.48
5506.48
5506.47
5506.47
5506.46
5506.46
5506.45
5506.47
5506.47
5506.47
5506.47
5506.46
5506.46
5506.45
5506.44
5506.43
5506.43
5506.43
5506.43
5506.43
5506.42
5506.41
5506.41
5506.39
5506.39
5506.39
5506.39
5506.39
5506.38
5506.37
5506.37
5506.31
5506.31
5506.31
5506.31
5506.31
5506.3
5506.3
5506.29
5376.69
5376.72
5376.75
5376.77
5376.78
5376.78
5376.78
5376.78
5376.75
5376.78
5376.81
5376.82
5376.83
5376.83
5376.83
5376.83
5376.75
5376.78
5376.81
5376.82
5376.83
5376.83
5376.83
5376.82
5376.75
5376.78
5376.81
5376.82
5376.83
5376.83
5376.83
5376.82
5376.71
5376.75
5376.77
5376.78
5376.79
5376.79
5376.79
5376.78
5376.67
5376.7
5376.72
5376.74
5376.75
5376.75
5376.75
5376.74
5376.58
5376.61
5376.63
5376.65
5376.66
5376.66
5376.66
5376.65
5246.93
5246.98
5247.02
5247.05
5247.07
5247.08
5247.09
5247.09
5247.01
5247.06
5247.1
5247.13
5247.14
5247.15
5247.16
5247.15
5247.02
5247.07
5247.1
5247.13
5247.14
5247.15
5247.16
5247.15
5247.03
5247.08
5247.11
5247.14
5247.15
5247.16
5247.16
5247.16
5246.99
5247.04
5247.07
5247.1
5247.11
5247.12
5247.12
5247.12
5246.95
5247
5247.03
5247.05
5247.07
5247.08
5247.08
5247.08
5246.85
5246.89
5246.92
5246.95
5246.97
5246.97
5246.98
5246.98
5117.2
5117.28
5117.34
5117.38
5117.41
5117.43
5117.44
5117.44
5117.27
5117.35
5117.41
5117.45
5117.48
5117.5
5117.51
5117.51
5117.28
5117.36
5117.42
5117.46
5117.48
5117.5
5117.51
5117.51
5117.29
5117.37
5117.43
5117.47
5117.5
5117.51
5117.52
5117.52
5117.25
5117.33
5117.39
5117.43
5117.45
5117.47
5117.48
5117.48
5117.22
5117.3
5117.35
5117.39
5117.42
5117.44
5117.44
5117.44
5117.11
5117.18
5117.24
5117.28
5117.31
5117.32
5117.33
5117.33
5635.91
5635.88
5635.85
5635.82
5635.79
5635.77
5635.75
5635.74
5635.77
5635.73
5635.7
5635.67
5635.64
5635.62
5635.6
5635.61
5635.47
5635.43
5635.4
5635.38
5635.36
5635.36
5635.36
5635.38
5635.72
5635.71
5635.7
5635.69
5635.68
5635.67
5635.64
5635.66
5635.53
5635.49
5635.46
5635.43
5635.42
5635.41
5635.41
5635.44
5635.9
5635.87
5635.83
5635.8
5635.77
5635.75
5635.73
5635.74
5636.06
5636.03
5636
5635.97
5635.94
5635.92
5635.89
5635.88
5506.06
5506.06
5506.06
5506.06
5506.06
5506.05
5506.05
5506.04
5506
5505.99
5505.99
5505.99
5505.98
5505.98
5505.97
5505.98
5505.73
5505.7
5505.69
5505.68
5505.67
5505.68
5505.68
5505.71
5505.98
5505.98
5505.98
5505.98
5505.98
5505.99
5506
5506.01
5505.79
5505.76
5505.74
5505.73
5505.73
5505.73
5505.73
5505.75
5506.12
5506.12
5506.12
5506.11
5506.11
5506.11
5506.1
5506.1
5506.19
5506.19
5506.19
5506.19
5506.19
5506.19
5506.18
5506.17
5376.27
5376.3
5376.32
5376.34
5376.35
5376.35
5376.35
5376.35
5376.25
5376.28
5376.3
5376.32
5376.34
5376.35
5376.36
5376.36
5375.91
5375.9
5375.9
5375.9
5375.91
5375.91
5375.92
5375.93
5376.18
5376.22
5376.25
5376.28
5376.3
5376.32
5376.33
5376.34
5375.99
5375.98
5375.97
5375.97
5375.96
5375.97
5375.97
5375.98
5376.36
5376.39
5376.42
5376.44
5376.46
5376.47
5376.48
5376.48
5376.39
5376.42
5376.44
5376.45
5376.46
5376.47
5376.47
5376.47
5246.5
5246.54
5246.57
5246.6
5246.62
5246.63
5246.63
5246.63
5246.51
5246.55
5246.58
5246.61
5246.63
5246.64
5246.65
5246.65
5246.1
5246.09
5246.1
5246.1
5246.1
5246.11
5246.13
5246.14
5246.48
5246.51
5246.54
5246.57
5246.59
5246.6
5246.61
5246.62
5246.18
5246.17
5246.16
5246.16
5246.16
5246.17
5246.19
5246.2
5246.6
5246.64
5246.68
5246.7
5246.72
5246.74
5246.74
5246.74
5246.61
5246.65
5246.69
5246.71
5246.73
5246.74
5246.75
5246.75
5116.79
5116.86
5116.91
5116.95
5116.98
5117
5117.01
5117.01
5116.77
5116.84
5116.89
5116.92
5116.95
5116.97
5116.98
5116.98
5116.29
5116.3
5116.33
5116.36
5116.4
5116.41
5116.43
5116.44
5116.75
5116.8
5116.84
5116.87
5116.89
5116.9
5116.92
5116.92
5116.4
5116.41
5116.42
5116.45
5116.51
5116.53
5116.54
5116.54
5116.85
5116.91
5116.96
5117
5117.03
5117.04
5117.05
5117.06
5116.91
5116.98
5117.04
5117.08
5117.11
5117.13
5117.14
5117.14
5636.1
5636.08
5636.06
5636.04
5636.01
5635.99
5635.97
5635.95
5635.91
5635.9
5635.89
5635.87
5635.86
5635.84
5635.83
5635.83
5635.71
5635.67
5635.63
5635.6
5635.58
5635.57
5635.57
5635.58
5635.89
5635.87
5635.86
5635.85
5635.84
5635.82
5635.82
5635.85
5635.67
5635.64
5635.62
5635.6
5635.59
5635.58
5635.57
5635.59
5635.94
5635.92
5635.91
5635.9
5635.89
5635.88
5635.87
5635.87
5636.12
5636.11
5636.09
5636.07
5636.05
5636.04
5636.02
5636.01
5506.24
5506.25
5506.26
5506.26
5506.26
5506.26
5506.25
5506.25
5506.13
5506.14
5506.14
5506.15
5506.15
5506.15
5506.15
5506.15
5506
5505.97
5505.95
5505.93
5505.91
5505.9
5505.89
5505.9
5506.13
5506.12
5506.11
5506.1
5506.08
5506.09
5506.1
5506.12
5505.96
5505.94
5505.93
5505.91
5505.9
5505.89
5505.89
5505.9
5506.19
5506.2
5506.21
5506.22
5506.22
5506.22
5506.22
5506.22
5506.37
5506.38
5506.38
5506.39
5506.39
5506.38
5506.38
5506.37
5376.48
5376.52
5376.55
5376.57
5376.58
5376.58
5376.59
5376.58
5376.29
5376.33
5376.36
5376.38
5376.4
5376.41
5376.41
5376.41
5376.29
5376.31
5376.31
5376.29
5376.28
5376.28
5376.28
5376.28
5376.22
5376.24
5376.25
5376.25
5376.26
5376.27
5376.27
5376.29
5376.21
5376.25
5376.27
5376.27
5376.27
5376.28
5376.28
5376.28
5376.38
5376.42
5376.45
5376.48
5376.49
5376.5
5376.5
5376.5
5376.61
5376.66
5376.69
5376.71
5376.72
5376.73
5376.73
5376.73
5246.73
5246.78
5246.82
5246.85
5246.88
5246.89
5246.9
5246.9
5246.5
5246.55
5246.58
5246.6
5246.62
5246.62
5246.63
5246.63
5246.87
5246.9
5246.93
5246.95
5246.97
5246.99
5247
5247
5246.41
5246.44
5246.46
5246.47
5246.49
5246.5
5246.51
5246.53
5246.69
5246.73
5246.77
5246.79
5246.82
5246.83
5246.85
5246.84
5246.6
5246.65
5246.7
5246.73
5246.75
5246.76
5246.76
5246.76
5246.88
5246.94
5246.98
5247.02
5247.04
5247.05
5247.06
5247.05
5117
5117.08
5117.14
5117.19
5117.22
5117.24
5117.25
5117.26
5116.86
5116.94
5117
5117.04
5117.06
5117.08
5117.09
5117.09
5117.12
5117.22
5117.32
5117.39
5117.46
5117.52
5117.54
5117.53
5116.84
5116.92
5116.97
5117
5117.02
5117.03
5117.03
5117.04
5116.95
5117.06
5117.15
5117.21
5117.27
5117.31
5117.32
5117.32
5116.91
5117.01
5117.07
5117.12
5117.16
5117.17
5117.18
5117.19
5117.15
5117.24
5117.3
5117.35
5117.39
5117.41
5117.42
5117.42
5635.94
5635.92
5635.9
5635.87
5635.85
5635.84
5635.82
5635.82
5635.72
5635.69
5635.66
5635.64
5635.62
5635.61
5635.6
5635.61
5635.47
5635.44
5635.41
5635.4
5635.39
5635.38
5635.38
5635.41
5635.7
5635.68
5635.68
5635.67
5635.67
5635.65
5635.63
5635.66
5635.48
5635.44
5635.41
5635.38
5635.37
5635.36
5635.36
5635.39
5635.73
5635.7
5635.67
5635.64
5635.62
5635.6
5635.59
5635.59
5635.9
5635.88
5635.85
5635.82
5635.79
5635.77
5635.75
5635.74
5506.19
5506.19
5506.2
5506.19
5506.19
5506.19
5506.18
5506.18
5505.99
5505.99
5505.99
5505.99
5505.99
5505.99
5505.99
5505.99
5505.74
5505.72
5505.71
5505.7
5505.7
5505.72
5505.72
5505.74
5505.95
5505.95
5505.95
5505.96
5505.96
5505.97
5505.98
5506
5505.75
5505.72
5505.71
5505.7
5505.7
5505.7
5505.7
5505.72
5505.97
5505.96
5505.96
5505.96
5505.96
5505.96
5505.96
5505.95
5506.06
5506.06
5506.06
5506.06
5506.06
5506.06
5506.05
5506.04
5376.44
5376.47
5376.49
5376.51
5376.52
5376.52
5376.52
5376.52
5376.23
5376.26
5376.28
5376.3
5376.32
5376.33
5376.34
5376.34
5375.91
5375.91
5375.92
5375.92
5375.93
5375.94
5375.94
5375.95
5376.1
5376.14
5376.18
5376.21
5376.24
5376.26
5376.27
5376.28
5375.95
5375.94
5375.93
5375.93
5375.93
5375.93
5375.93
5375.94
5376.2
5376.23
5376.25
5376.27
5376.29
5376.3
5376.3
5376.3
5376.28
5376.31
5376.34
5376.35
5376.36
5376.36
5376.37
5376.36
5246.72
5246.75
5246.79
5246.81
5246.82
5246.83
5246.84
5246.84
5246.51
5246.54
5246.57
5246.6
5246.61
5246.63
5246.64
5246.64
5246.18
5246.17
5246.16
5246.15
5246.15
5246.17
5246.18
5246.18
5246.35
5246.4
5246.44
5246.47
5246.5
5246.52
5246.53
5246.54
5246.25
5246.22
5246.2
5246.19
5246.2
5246.22
5246.22
5246.23
5246.45
5246.49
5246.52
5246.55
5246.57
5246.58
5246.59
5246.59
5246.53
5246.58
5246.61
5246.63
5246.65
5246.66
5246.67
5246.67
5117.01
5117.08
5117.13
5117.17
5117.19
5117.21
5117.22
5117.22
5116.77
5116.83
5116.88
5116.92
5116.94