/*--------------------------------*- C++ -*----------------------------------*\
| =========                 |                                                 |
| \\      /  F ield         | OpenFOAM: The Open Source CFD Toolbox           |
|  \\    /   O peration     | Version:  plus.master.MPPICInterFoam            |
|   \\  /    A nd           | Web:      www.OpenFOAM.com                      |
|    \\/     M anipulation  |                                                 |
\*---------------------------------------------------------------------------*/
FoamFile
{
    version     2.0;
    format      ascii;
    class       volScalarField;
    location    "12.4";
    object      nut;
}
// * * * * * * * * * * * * * * * * * * * * * * * * * * * * * * * * * * * * * //

dimensions      [0 2 -1 0 0 0 0];

internalField   nonuniform List<scalar> 
11821
(
4.32416e-06
1.89411e-05
3.39132e-05
4.34457e-05
4.86719e-05
5.07401e-05
5.03168e-05
4.76945e-05
4.38087e-06
1.94066e-05
3.46135e-05
4.43023e-05
4.96039e-05
5.17018e-05
5.12695e-05
4.86014e-05
4.43808e-06
1.98358e-05
3.5192e-05
4.5013e-05
5.03738e-05
5.24849e-05
5.20349e-05
4.93224e-05
4.4377e-06
1.99815e-05
3.5527e-05
4.5406e-05
5.07932e-05
5.29177e-05
5.24644e-05
4.97299e-05
4.42682e-06
1.99807e-05
3.55755e-05
4.54462e-05
5.08324e-05
5.29553e-05
5.24988e-05
4.97583e-05
4.40711e-06
1.9867e-05
3.53845e-05
4.51845e-05
5.05226e-05
5.26134e-05
5.2143e-05
4.94067e-05
4.37708e-06
1.96548e-05
3.50135e-05
4.46721e-05
4.98961e-05
5.19109e-05
5.14024e-05
4.86665e-05
4.3964e-06
2.02008e-05
3.59071e-05
4.59016e-05
5.14115e-05
5.36376e-05
5.3256e-05
5.05597e-05
4.45266e-06
2.06177e-05
3.6551e-05
4.66954e-05
5.22922e-05
5.45533e-05
5.41673e-05
5.1432e-05
4.50913e-06
2.09838e-05
3.70824e-05
4.73651e-05
5.30209e-05
5.52976e-05
5.48968e-05
5.21212e-05
4.50926e-06
2.11504e-05
3.74059e-05
4.77381e-05
5.3428e-05
5.57225e-05
5.53223e-05
5.25291e-05
4.49816e-06
2.11617e-05
3.7475e-05
4.77971e-05
5.34819e-05
5.57752e-05
5.53739e-05
5.25766e-05
4.47943e-06
2.10625e-05
3.73122e-05
4.75667e-05
5.32054e-05
5.54697e-05
5.50563e-05
5.22631e-05
4.45139e-06
2.08738e-05
3.69709e-05
4.7096e-05
5.26288e-05
5.48212e-05
5.43704e-05
5.15747e-05
4.47677e-06
2.14872e-05
3.79573e-05
4.84299e-05
5.42354e-05
5.66283e-05
5.62956e-05
5.35332e-05
4.53118e-06
2.18505e-05
3.85339e-05
4.91473e-05
5.50488e-05
5.74812e-05
5.7149e-05
5.43541e-05
4.58597e-06
2.2156e-05
3.90023e-05
4.97538e-05
5.57199e-05
5.81731e-05
5.78303e-05
5.50001e-05
4.58691e-06
2.233e-05
3.9317e-05
5.01096e-05
5.61094e-05
5.85817e-05
5.82427e-05
5.53992e-05
4.57585e-06
2.23556e-05
3.93935e-05
5.01836e-05
5.61783e-05
5.865e-05
5.83114e-05
5.54659e-05
4.55808e-06
2.22747e-05
3.92624e-05
4.99897e-05
5.59406e-05
5.83865e-05
5.80379e-05
5.51965e-05
4.53237e-06
2.21131e-05
3.8967e-05
4.95731e-05
5.54242e-05
5.78024e-05
5.74177e-05
5.45715e-05
4.56561e-06
2.27958e-05
4.00562e-05
5.1007e-05
5.71265e-05
5.9695e-05
5.94185e-05
5.65974e-05
4.61731e-06
2.31044e-05
4.05537e-05
5.16491e-05
5.78625e-05
6.04733e-05
6.02018e-05
5.73549e-05
4.67001e-06
2.33462e-05
4.09576e-05
5.21845e-05
5.84675e-05
6.1103e-05
6.08253e-05
5.79482e-05
4.67176e-06
2.35229e-05
4.12546e-05
5.25187e-05
5.88324e-05
6.14885e-05
6.12176e-05
5.83313e-05
4.66095e-06
2.35595e-05
4.13353e-05
5.26054e-05
5.89155e-05
6.1572e-05
6.13028e-05
5.84162e-05
4.64403e-06
2.34977e-05
4.12333e-05
5.24499e-05
5.87203e-05
6.13543e-05
6.10772e-05
5.8195e-05
4.62091e-06
2.33694e-05
4.09897e-05
5.20916e-05
5.82709e-05
6.08423e-05
6.05309e-05
5.76423e-05
4.66432e-06
2.41302e-05
4.21905e-05
5.36347e-05
6.00762e-05
6.2826e-05
6.26117e-05
5.97386e-05
4.71288e-06
2.43807e-05
4.26155e-05
5.41994e-05
6.07283e-05
6.35217e-05
6.33164e-05
6.04236e-05
4.76403e-06
2.45638e-05
4.29507e-05
5.46641e-05
6.12632e-05
6.40841e-05
6.38767e-05
6.09586e-05
4.76632e-06
2.47319e-05
4.32181e-05
5.49675e-05
6.15969e-05
6.44407e-05
6.42431e-05
6.13198e-05
4.75569e-06
2.47768e-05
4.3306e-05
5.50624e-05
6.16926e-05
6.45384e-05
6.43438e-05
6.14215e-05
4.73934e-06
2.47345e-05
4.32324e-05
5.49447e-05
6.15412e-05
6.43683e-05
6.4168e-05
6.12506e-05
4.71882e-06
2.46394e-05
4.30384e-05
5.46491e-05
6.11628e-05
6.39328e-05
6.37006e-05
6.07758e-05
4.7755e-06
2.54816e-05
4.43587e-05
5.63115e-05
6.30767e-05
6.60128e-05
6.58661e-05
6.29465e-05
4.82105e-06
2.56761e-05
4.47115e-05
5.67934e-05
6.36424e-05
6.66224e-05
6.64879e-05
6.3554e-05
4.86899e-06
2.58189e-05
4.49901e-05
5.71911e-05
6.41061e-05
6.71154e-05
6.69824e-05
6.4028e-05
4.87135e-06
2.59662e-05
4.52244e-05
5.74603e-05
6.44044e-05
6.74398e-05
6.73195e-05
6.43635e-05
4.86162e-06
2.60149e-05
4.53128e-05
5.75605e-05
6.45126e-05
6.75505e-05
6.74341e-05
6.44803e-05
4.84682e-06
2.59894e-05
4.52647e-05
5.74789e-05
6.44043e-05
6.74278e-05
6.7308e-05
6.43595e-05
4.82919e-06
2.59258e-05
4.51204e-05
5.72456e-05
6.40977e-05
6.70702e-05
6.69215e-05
6.39651e-05
4.89965e-06
2.68466e-05
4.65574e-05
5.90281e-05
6.61231e-05
6.92503e-05
6.91765e-05
6.62156e-05
4.93882e-06
2.69932e-05
4.68434e-05
5.9432e-05
6.66046e-05
6.97747e-05
6.97152e-05
6.67447e-05
4.98147e-06
2.71077e-05
4.7079e-05
5.97683e-05
6.70009e-05
7.01999e-05
7.01446e-05
6.71579e-05
4.98348e-06
2.72357e-05
4.72826e-05
6.00009e-05
6.72664e-05
7.04918e-05
7.04509e-05
6.74655e-05
4.97488e-06
2.72856e-05
4.73669e-05
6.01076e-05
6.73815e-05
7.06126e-05
7.05773e-05
6.75953e-05
4.96201e-06
2.72755e-05
4.73405e-05
6.0058e-05
6.73132e-05
7.05348e-05
7.04987e-05
6.75226e-05
4.94834e-06
2.72384e-05
4.72409e-05
5.98835e-05
6.70758e-05
7.02532e-05
7.01918e-05
6.7208e-05
5.03212e-06
2.82338e-05
4.87893e-05
6.17856e-05
6.92143e-05
7.25375e-05
7.25422e-05
6.95455e-05
5.06478e-06
2.83425e-05
4.90188e-05
6.21181e-05
6.96172e-05
7.29809e-05
7.3001e-05
6.99985e-05
5.10121e-06
2.8431e-05
4.92166e-05
6.23979e-05
6.99507e-05
7.33426e-05
7.33686e-05
7.03538e-05
5.10364e-06
2.8545e-05
4.93891e-05
6.26055e-05
7.01936e-05
7.36059e-05
7.36452e-05
7.06334e-05
5.09643e-06
2.85966e-05
4.94714e-05
6.27081e-05
7.0305e-05
7.37309e-05
7.37799e-05
7.07735e-05
5.08548e-06
2.85996e-05
4.94653e-05
6.26869e-05
7.02719e-05
7.36935e-05
7.37447e-05
7.07451e-05
5.07543e-06
2.85849e-05
4.94045e-05
6.25656e-05
7.00985e-05
7.34833e-05
7.35131e-05
7.05066e-05
5.17299e-06
2.96497e-05
5.10605e-05
6.4585e-05
7.23515e-05
7.58763e-05
7.59662e-05
7.29404e-05
5.1997e-06
2.97301e-05
5.12422e-05
6.48547e-05
7.26834e-05
7.62454e-05
7.6351e-05
7.33225e-05
5.23035e-06
2.97957e-05
5.14045e-05
6.5088e-05
7.29635e-05
7.65499e-05
7.66622e-05
7.36249e-05
5.23313e-06
2.98975e-05
5.15513e-05
6.52754e-05
7.31777e-05
7.67837e-05
7.69099e-05
7.38774e-05
5.22751e-06
2.99516e-05
5.16309e-05
6.53676e-05
7.32882e-05
7.69118e-05
7.70502e-05
7.40251e-05
5.21833e-06
2.99657e-05
5.16422e-05
6.53693e-05
7.32847e-05
7.69091e-05
7.70528e-05
7.40354e-05
5.21132e-06
2.99683e-05
5.16133e-05
6.52935e-05
7.31678e-05
7.67631e-05
7.68899e-05
7.38667e-05
5.32293e-06
3.11007e-05
5.33741e-05
6.74286e-05
7.55372e-05
7.92706e-05
7.94546e-05
7.64083e-05
5.3446e-06
3.11609e-05
5.3517e-05
6.76451e-05
7.58069e-05
7.95733e-05
7.97727e-05
7.67265e-05
5.37003e-06
3.12103e-05
5.36482e-05
6.784e-05
7.60411e-05
7.98278e-05
8.00344e-05
7.69829e-05
5.37327e-06
3.13004e-05
5.37741e-05
6.79962e-05
7.62236e-05
8.0033e-05
8.02546e-05
7.72098e-05
5.3692e-06
3.13543e-05
5.38497e-05
6.80873e-05
7.6334e-05
8.01612e-05
8.03971e-05
7.73618e-05
5.36153e-06
3.13759e-05
5.38728e-05
6.81065e-05
7.63539e-05
8.01864e-05
8.04306e-05
7.74042e-05
5.35682e-06
3.13902e-05
5.38675e-05
6.80672e-05
7.62845e-05
8.00959e-05
8.03281e-05
7.72974e-05
5.48287e-06
3.25927e-05
5.57336e-05
7.03192e-05
7.87746e-05
8.27253e-05
8.30148e-05
7.99595e-05
5.50059e-06
3.26397e-05
5.58461e-05
7.04911e-05
7.89903e-05
8.29694e-05
8.32741e-05
8.02221e-05
5.52159e-06
3.26787e-05
5.59523e-05
7.06495e-05
7.91812e-05
8.31797e-05
8.3493e-05
8.04396e-05
5.52524e-06
3.27551e-05
5.60565e-05
7.07833e-05
7.93391e-05
8.33587e-05
8.36879e-05
8.06433e-05
5.52246e-06
3.28066e-05
5.61269e-05
7.08669e-05
7.94441e-05
8.34835e-05
8.3829e-05
8.07959e-05
5.5159e-06
3.28313e-05
5.61558e-05
7.0897e-05
7.94802e-05
8.35292e-05
8.38858e-05
8.08629e-05
5.51256e-06
3.28509e-05
5.61651e-05
7.08845e-05
7.94485e-05
8.34846e-05
8.38342e-05
8.0809e-05
5.65395e-06
3.41301e-05
5.81413e-05
7.32585e-05
8.20657e-05
8.62447e-05
8.66545e-05
8.36056e-05
5.66884e-06
3.41692e-05
5.82302e-05
7.33925e-05
8.22344e-05
8.64377e-05
8.6863e-05
8.38211e-05
5.68628e-06
3.42015e-05
5.83142e-05
7.35176e-05
8.23877e-05
8.66096e-05
8.70455e-05
8.40066e-05
5.69013e-06
3.42634e-05
5.83988e-05
7.3629e-05
8.25213e-05
8.67641e-05
8.72169e-05
8.41893e-05
5.68816e-06
3.43087e-05
5.84596e-05
7.37031e-05
8.2617e-05
8.68808e-05
8.73523e-05
8.43385e-05
5.68211e-06
3.43315e-05
5.84873e-05
7.37367e-05
8.26615e-05
8.69392e-05
8.74246e-05
8.44224e-05
5.67911e-06
3.435e-05
5.85025e-05
7.37411e-05
8.26575e-05
8.69307e-05
8.74146e-05
8.4412e-05
5.83744e-06
3.57164e-05
6.0598e-05
7.62455e-05
8.54108e-05
8.98318e-05
9.03806e-05
8.73575e-05
5.85056e-06
3.5751e-05
6.06676e-05
7.63466e-05
8.55378e-05
8.99796e-05
9.05448e-05
8.75334e-05
5.86525e-06
3.57781e-05
6.07323e-05
7.64423e-05
8.56573e-05
9.01175e-05
9.06962e-05
8.76929e-05
5.86893e-06
3.5825e-05
6.07959e-05
7.65283e-05
8.57664e-05
9.02475e-05
9.08452e-05
8.78564e-05
5.86711e-06
3.58598e-05
6.0842e-05
7.6589e-05
8.58476e-05
9.0352e-05
9.09706e-05
8.7998e-05
5.86081e-06
3.58747e-05
6.08611e-05
7.66183e-05
8.58928e-05
9.04152e-05
9.10508e-05
8.80915e-05
5.85704e-06
3.58861e-05
6.08735e-05
7.66304e-05
8.59073e-05
9.0434e-05
9.10736e-05
8.81163e-05
6.03475e-06
3.73535e-05
6.31017e-05
7.92767e-05
8.88071e-05
9.34867e-05
9.41971e-05
9.12239e-05
6.04704e-06
3.73853e-05
6.31541e-05
7.93474e-05
8.88954e-05
9.3593e-05
9.43219e-05
9.13663e-05
6.05961e-06
3.74073e-05
6.32002e-05
7.94151e-05
8.89831e-05
9.36996e-05
9.4446e-05
9.15045e-05
6.06267e-06
3.74382e-05
6.32407e-05
7.94744e-05
8.9065e-05
9.38046e-05
9.45728e-05
9.16498e-05
6.06019e-06
3.74575e-05
6.3266e-05
7.95148e-05
8.91276e-05
9.38921e-05
9.46838e-05
9.17798e-05
6.05276e-06
3.74585e-05
6.32687e-05
7.95317e-05
8.91659e-05
9.3953e-05
9.4765e-05
9.18764e-05
6.0471e-06
3.74564e-05
6.32699e-05
7.95433e-05
8.91912e-05
9.39918e-05
9.48139e-05
9.19298e-05
4.10993e-06
1.72681e-05
3.07835e-05
3.91327e-05
4.34941e-05
4.50272e-05
4.43866e-05
4.18592e-05
4.10248e-06
1.72693e-05
3.07508e-05
3.90684e-05
4.33842e-05
4.48852e-05
4.42242e-05
4.16861e-05
4.11292e-06
1.73127e-05
3.0746e-05
3.90816e-05
4.34053e-05
4.14383e-06
1.75693e-05
4.14022e-06
4.19968e-06
1.86939e-05
3.30419e-05
4.18924e-05
4.65428e-05
4.82202e-05
4.75913e-05
4.49431e-05
4.19052e-06
1.86647e-05
3.29747e-05
4.1804e-05
4.64346e-05
4.80989e-05
4.74639e-05
4.48156e-05
4.20254e-06
1.86984e-05
3.296e-05
4.18212e-05
4.64613e-05
4.8142e-05
4.75292e-05
4.49052e-05
4.23878e-06
1.88943e-05
3.307e-05
4.19315e-05
4.65178e-05
4.81196e-05
4.74213e-05
4.4714e-05
4.23795e-06
1.86886e-05
3.28565e-05
4.17925e-05
4.65077e-05
4.82301e-05
4.76368e-05
4.50145e-05
4.22014e-06
1.8605e-05
3.28444e-05
4.17891e-05
4.6537e-05
4.82873e-05
4.77057e-05
4.50801e-05
4.21908e-06
1.85251e-05
3.28486e-05
4.18653e-05
4.66733e-05
4.84794e-05
4.79414e-05
4.53437e-05
4.30142e-06
2.01947e-05
3.54344e-05
4.48232e-05
4.97864e-05
5.16235e-05
5.10165e-05
4.82547e-05
4.29089e-06
2.01478e-05
3.53529e-05
4.47167e-05
4.96807e-05
5.15195e-05
5.09178e-05
4.81645e-05
4.30408e-06
2.0185e-05
3.53337e-05
4.47245e-05
4.97078e-05
5.15677e-05
5.09914e-05
4.82649e-05
4.34425e-06
2.03164e-05
3.54277e-05
4.48168e-05
4.97637e-05
5.15702e-05
5.09342e-05
4.81485e-05
4.34775e-06
2.01728e-05
3.5245e-05
4.47274e-05
4.97668e-05
5.16649e-05
5.11101e-05
4.83888e-05
4.32562e-06
2.00953e-05
3.52334e-05
4.4713e-05
4.97858e-05
5.1711e-05
5.11666e-05
4.84406e-05
4.32161e-06
2.00156e-05
3.52325e-05
4.47737e-05
4.99058e-05
5.18778e-05
5.13675e-05
4.86619e-05
4.41479e-06
2.17476e-05
3.79295e-05
4.78715e-05
5.31769e-05
5.51921e-05
5.46201e-05
5.17561e-05
4.40363e-06
2.16964e-05
3.7845e-05
4.7764e-05
5.30774e-05
5.51017e-05
5.45425e-05
5.16935e-05
4.41713e-06
2.17438e-05
3.78261e-05
4.77646e-05
5.31012e-05
5.51488e-05
5.46158e-05
5.17939e-05
4.46053e-06
2.18275e-05
3.78883e-05
4.78378e-05
5.3152e-05
5.51653e-05
5.45923e-05
5.17296e-05
4.46774e-06
2.1756e-05
3.77716e-05
4.77893e-05
5.31667e-05
5.52465e-05
5.47344e-05
5.192e-05
4.44285e-06
2.16778e-05
3.77504e-05
4.7766e-05
5.31783e-05
5.52845e-05
5.47831e-05
5.19647e-05
4.43689e-06
2.15813e-05
3.77272e-05
4.78076e-05
5.32771e-05
5.5425e-05
5.49516e-05
5.21482e-05
4.54011e-06
2.33341e-05
4.04818e-05
5.10006e-05
5.66762e-05
5.88862e-05
5.8364e-05
5.54115e-05
4.52903e-06
2.32981e-05
4.04018e-05
5.09026e-05
5.65824e-05
5.88049e-05
5.82997e-05
5.53664e-05
4.54237e-06
2.33478e-05
4.03828e-05
5.08968e-05
5.65987e-05
5.88442e-05
5.83642e-05
5.5457e-05
4.58729e-06
2.33953e-05
4.04057e-05
5.09461e-05
5.66401e-05
5.88651e-05
5.83595e-05
5.54253e-05
4.59789e-06
2.33415e-05
4.03429e-05
5.09234e-05
5.66605e-05
5.89329e-05
5.84717e-05
5.55731e-05
4.57185e-06
2.32977e-05
4.03163e-05
5.09007e-05
5.66679e-05
5.89647e-05
5.85149e-05
5.56142e-05
4.56419e-06
2.31819e-05
4.0277e-05
5.09236e-05
5.67439e-05
5.90792e-05
5.86539e-05
5.57649e-05
4.67892e-06
2.49411e-05
4.30624e-05
5.41903e-05
6.02497e-05
6.26712e-05
6.22144e-05
5.91886e-05
4.66814e-06
2.49234e-05
4.29901e-05
5.41009e-05
6.01609e-05
6.25947e-05
6.21564e-05
5.91518e-05
4.68025e-06
2.49516e-05
4.29674e-05
5.40857e-05
6.01654e-05
6.26204e-05
6.22053e-05
5.92247e-05
4.72594e-06
2.49486e-05
4.29596e-05
5.4109e-05
6.01916e-05
6.26366e-05
6.22061e-05
5.92087e-05
4.74e-06
2.48655e-05
4.2923e-05
5.40957e-05
6.02104e-05
6.26892e-05
6.22907e-05
5.9319e-05
4.71263e-06
2.48627e-05
4.28943e-05
5.40769e-05
6.02148e-05
6.27152e-05
6.23285e-05
5.93571e-05
4.70423e-06
2.4762e-05
4.28452e-05
5.40829e-05
6.02684e-05
6.28044e-05
6.244e-05
5.94787e-05
4.83361e-06
2.65514e-05
4.56615e-05
5.74151e-05
6.38703e-05
6.65182e-05
6.61428e-05
6.30593e-05
4.82272e-06
2.65354e-05
4.55965e-05
5.73299e-05
6.3784e-05
6.6443e-05
6.60856e-05
6.30234e-05
4.83273e-06
2.6538e-05
4.55601e-05
5.73008e-05
6.37722e-05
6.64503e-05
6.61137e-05
6.30729e-05
4.87991e-06
2.6475e-05
4.5526e-05
5.7296e-05
6.37785e-05
6.64541e-05
6.61094e-05
6.30589e-05
4.89665e-06
2.63753e-05
4.54824e-05
5.72802e-05
6.37879e-05
6.64884e-05
6.61667e-05
6.31347e-05
4.86734e-06
2.63957e-05
4.5461e-05
5.72626e-05
6.37885e-05
6.65075e-05
6.61972e-05
6.31676e-05
4.85837e-06
2.63229e-05
4.54091e-05
5.72556e-05
6.38217e-05
6.65724e-05
6.62827e-05
6.32626e-05
5.00088e-06
2.81458e-05
4.82646e-05
6.06526e-05
6.75159e-05
7.04048e-05
7.0127e-05
6.70014e-05
4.9889e-06
2.81284e-05
4.82025e-05
6.05688e-05
6.74299e-05
7.03283e-05
7.00668e-05
6.69611e-05
4.99684e-06
2.81101e-05
4.81513e-05
6.05233e-05
6.73985e-05
7.03139e-05
7.00709e-05
6.69841e-05
5.04195e-06
2.80016e-05
4.80874e-05
6.04945e-05
6.73817e-05
7.02994e-05
7.00533e-05
6.69615e-05
5.06024e-06
2.78844e-05
4.80218e-05
6.04618e-05
6.73751e-05
7.03128e-05
7.00831e-05
6.70044e-05
5.03068e-06
2.79219e-05
4.80019e-05
6.04408e-05
6.73696e-05
7.03224e-05
7.01031e-05
6.70282e-05
5.02134e-06
2.78676e-05
4.79586e-05
6.04246e-05
6.73844e-05
7.0364e-05
7.01631e-05
6.70973e-05
5.1722e-06
2.97326e-05
5.08628e-05
6.3889e-05
7.1171e-05
7.43154e-05
7.41515e-05
7.10004e-05
5.15913e-06
2.97161e-05
5.07995e-05
6.38053e-05
7.10844e-05
7.42366e-05
7.40868e-05
7.09532e-05
5.16601e-06
2.96836e-05
5.07385e-05
6.37422e-05
7.10294e-05
7.41985e-05
7.40656e-05
7.09484e-05
5.20745e-06
2.95463e-05
5.06526e-05
6.36915e-05
7.0985e-05
7.41616e-05
7.40293e-05
7.09101e-05
5.22531e-06
2.94042e-05
5.05609e-05
6.36389e-05
7.0963e-05
7.41534e-05
7.40317e-05
7.09209e-05
5.19684e-06
2.94466e-05
5.05348e-05
6.36105e-05
7.09513e-05
7.41512e-05
7.40375e-05
7.0931e-05
5.18654e-06
2.94035e-05
5.04912e-05
6.35825e-05
7.09473e-05
7.41693e-05
7.40716e-05
7.09737e-05
5.34589e-06
3.13244e-05
5.34507e-05
6.71169e-05
7.48268e-05
7.82414e-05
7.82094e-05
7.50508e-05
5.33314e-06
3.13072e-05
5.33891e-05
6.70355e-05
7.47416e-05
7.81619e-05
7.81412e-05
7.4997e-05
5.33943e-06
3.12676e-05
5.33227e-05
6.69556e-05
7.46647e-05
7.81007e-05
7.80959e-05
7.49653e-05
5.37521e-06
3.11173e-05
5.32194e-05
6.68823e-05
7.45991e-05
7.80425e-05
7.80387e-05
7.49071e-05
5.39148e-06
3.09581e-05
5.31096e-05
6.68195e-05
7.45597e-05
7.80133e-05
7.80145e-05
7.48871e-05
5.3638e-06
3.09941e-05
5.30709e-05
6.67764e-05
7.45353e-05
7.79949e-05
7.80021e-05
7.48785e-05
5.35383e-06
3.09451e-05
5.30174e-05
6.67333e-05
7.4511e-05
7.79884e-05
7.80088e-05
7.48932e-05
5.52341e-06
3.2927e-05
5.60318e-05
7.03355e-05
7.84814e-05
8.2182e-05
8.23021e-05
7.91567e-05
5.51219e-06
3.29115e-05
5.59773e-05
7.02624e-05
7.84033e-05
8.21067e-05
8.22342e-05
7.90994e-05
5.51788e-06
3.28677e-05
5.59091e-05
7.01816e-05
7.83257e-05
8.2036e-05
8.21715e-05
7.90447e-05
5.54785e-06
3.27138e-05
5.57979e-05
7.00956e-05
7.82505e-05
8.19597e-05
8.20946e-05
7.89658e-05
5.56106e-06
3.25551e-05
5.56751e-05
7.00152e-05
7.8186e-05
8.19068e-05
8.2044e-05
7.89161e-05
5.53386e-06
3.25763e-05
5.56194e-05
6.99498e-05
7.81321e-05
8.18637e-05
8.20082e-05
7.88843e-05
5.52475e-06
3.25126e-05
5.55511e-05
6.98876e-05
7.80845e-05
8.18303e-05
8.19854e-05
7.88681e-05
5.70702e-06
3.45491e-05
5.86148e-05
7.35499e-05
8.21393e-05
8.61436e-05
8.64396e-05
8.33321e-05
5.69818e-06
3.45394e-05
5.85743e-05
7.34938e-05
8.20767e-05
8.60799e-05
8.63786e-05
8.3277e-05
5.70303e-06
3.44922e-05
5.851e-05
7.34348e-05
8.20174e-05
8.6012e-05
8.63068e-05
8.32058e-05
5.72749e-06
3.43442e-05
5.83984e-05
7.33427e-05
8.19364e-05
8.59271e-05
8.62161e-05
8.31088e-05
5.73749e-06
3.41914e-05
5.82684e-05
7.3235e-05
8.18443e-05
8.58454e-05
8.61388e-05
8.30308e-05
5.71062e-06
3.41897e-05
5.81927e-05
7.31435e-05
8.1756e-05
8.57744e-05
8.60758e-05
8.29713e-05
5.70077e-06
3.41167e-05
5.81054e-05
7.30588e-05
8.16821e-05
8.57115e-05
8.60204e-05
8.29202e-05
5.89943e-06
3.62015e-05
6.1211e-05
7.67696e-05
8.58107e-05
9.01402e-05
9.06405e-05
8.75999e-05
5.89358e-06
3.62028e-05
6.11924e-05
7.67389e-05
8.57724e-05
9.0097e-05
9.05953e-05
8.75554e-05
5.89759e-06
3.61576e-05
6.11403e-05
7.66977e-05
8.57239e-05
9.00345e-05
9.05229e-05
8.74762e-05
5.91601e-06
3.60231e-05
6.10346e-05
7.66085e-05
8.56424e-05
8.99475e-05
9.04235e-05
8.73655e-05
5.92211e-06
3.58793e-05
6.09011e-05
7.64843e-05
8.55344e-05
8.98465e-05
9.03243e-05
8.72618e-05
5.89617e-06
3.5851e-05
6.08045e-05
7.63728e-05
8.54246e-05
8.97497e-05
9.02323e-05
8.71706e-05
5.88478e-06
3.57666e-05
6.06953e-05
7.62633e-05
8.53226e-05
8.96543e-05
9.01401e-05
8.70791e-05
6.10399e-06
3.78969e-05
6.38343e-05
8.00089e-05
8.95133e-05
9.4194e-05
9.4932e-05
9.19921e-05
6.10181e-06
3.79154e-05
6.3846e-05
8.00129e-05
8.95096e-05
9.41827e-05
9.49141e-05
9.19694e-05
6.1054e-06
3.78794e-05
6.38088e-05
7.99825e-05
8.94742e-05
9.41354e-05
9.48517e-05
9.18927e-05
6.11777e-06
3.77633e-05
6.37156e-05
7.9903e-05
8.93992e-05
9.40503e-05
9.4751e-05
9.17744e-05
6.1191e-06
3.76297e-05
6.35861e-05
7.97839e-05
8.92866e-05
9.39399e-05
9.46347e-05
9.16475e-05
6.09403e-06
3.75728e-05
6.34696e-05
7.96561e-05
8.91615e-05
9.38179e-05
9.45111e-05
9.15196e-05
6.08008e-06
3.74713e-05
6.33357e-05
7.95192e-05
8.9028e-05
9.36855e-05
9.43757e-05
9.13796e-05
4.17674e-06
4.1931e-06
1.75411e-05
4.21558e-06
1.77846e-05
3.19435e-05
4.10198e-05
4.59456e-05
4.23979e-06
1.81072e-05
3.25462e-05
4.17649e-05
4.67876e-05
4.87566e-05
4.8326e-05
4.57825e-05
4.27575e-06
1.84858e-05
3.31994e-05
4.25836e-05
4.7712e-05
4.97351e-05
4.93126e-05
4.67342e-05
4.22764e-06
1.85518e-05
3.29229e-05
4.20234e-05
4.68936e-05
4.87436e-05
4.82299e-05
4.56369e-05
4.24098e-06
1.864e-05
3.31112e-05
4.2283e-05
4.72205e-05
4.91175e-05
4.86301e-05
4.60416e-05
4.26736e-06
1.87658e-05
3.33376e-05
4.26133e-05
4.76407e-05
4.95976e-05
4.91409e-05
4.65546e-05
4.2796e-06
1.88976e-05
3.36498e-05
4.3063e-05
4.81793e-05
5.01882e-05
4.97499e-05
4.71504e-05
4.29835e-06
1.91073e-05
3.40605e-05
4.36187e-05
4.88409e-05
5.09146e-05
5.05056e-05
4.78989e-05
4.31649e-06
1.94102e-05
3.46251e-05
4.43095e-05
4.96261e-05
5.17526e-05
5.13546e-05
4.87217e-05
4.34979e-06
1.97758e-05
3.5233e-05
4.50756e-05
5.04975e-05
5.26804e-05
5.22962e-05
4.96367e-05
4.3304e-06
2.00247e-05
3.53035e-05
4.49184e-05
5.01048e-05
5.21159e-05
5.16265e-05
4.89243e-05
4.34258e-06
2.01168e-05
3.54551e-05
4.51488e-05
5.04007e-05
5.24558e-05
5.19911e-05
4.92942e-05
4.36936e-06
2.02054e-05
3.56365e-05
4.5446e-05
5.07784e-05
5.28902e-05
5.24566e-05
4.97648e-05
4.37783e-06
2.03022e-05
3.58989e-05
4.58289e-05
5.12591e-05
5.34298e-05
5.30214e-05
5.03249e-05
4.39202e-06
2.04829e-05
3.62707e-05
4.63277e-05
5.18587e-05
5.4096e-05
5.37197e-05
5.10215e-05
4.40324e-06
2.07646e-05
3.67814e-05
4.69549e-05
5.2579e-05
5.48712e-05
5.45136e-05
5.17993e-05
4.43307e-06
2.11048e-05
3.73355e-05
4.7657e-05
5.33834e-05
5.57339e-05
5.53953e-05
5.26623e-05
4.44457e-06
2.15811e-05
3.77945e-05
4.79296e-05
5.34495e-05
5.56327e-05
5.5178e-05
5.23776e-05
4.45553e-06
2.16308e-05
3.78856e-05
4.81177e-05
5.37032e-05
5.59299e-05
5.5499e-05
5.27042e-05
4.48092e-06
2.1669e-05
3.80164e-05
4.8363e-05
5.40283e-05
5.631e-05
5.59102e-05
5.3123e-05
4.48771e-06
2.17448e-05
3.82366e-05
4.86906e-05
5.44464e-05
5.67881e-05
5.64182e-05
5.36333e-05
4.49647e-06
2.19004e-05
3.85542e-05
4.91268e-05
5.49768e-05
5.73844e-05
5.70495e-05
5.42687e-05
4.50035e-06
2.21635e-05
3.90043e-05
4.96819e-05
5.56232e-05
5.80887e-05
5.77788e-05
5.49909e-05
4.52567e-06
2.24626e-05
3.94985e-05
5.03139e-05
5.63518e-05
5.88764e-05
5.85903e-05
5.57917e-05
4.57082e-06
2.31716e-05
4.03143e-05
5.10162e-05
5.68844e-05
5.9253e-05
5.88452e-05
5.59594e-05
4.58029e-06
2.31758e-05
4.03729e-05
5.11581e-05
5.70916e-05
5.95025e-05
5.91175e-05
5.62374e-05
4.60299e-06
2.31727e-05
4.04719e-05
5.13565e-05
5.73617e-05
5.98235e-05
5.9468e-05
5.65967e-05
4.60943e-06
2.32395e-05
4.06418e-05
5.16245e-05
5.77133e-05
6.02347e-05
5.99121e-05
5.70485e-05
4.61203e-06
2.33593e-05
4.08985e-05
5.19907e-05
5.81707e-05
6.07564e-05
6.04706e-05
5.76161e-05
4.60858e-06
2.35947e-05
4.12786e-05
5.2473e-05
5.87394e-05
6.13847e-05
6.11294e-05
5.82759e-05
4.62846e-06
2.38497e-05
4.17163e-05
5.303e-05
5.93867e-05
6.20911e-05
6.18636e-05
5.90065e-05
4.71071e-06
2.47258e-05
4.28498e-05
5.41437e-05
6.03754e-05
6.29427e-05
6.25949e-05
5.96371e-05
4.71784e-06
2.47296e-05
4.28883e-05
5.42465e-05
6.05356e-05
6.3142e-05
6.28153e-05
5.98629e-05
4.73753e-06
2.47206e-05
4.29581e-05
5.43957e-05
6.07499e-05
6.34022e-05
6.31021e-05
6.01584e-05
4.74438e-06
2.47414e-05
4.3069e-05
5.46013e-05
6.1034e-05
6.37443e-05
6.34786e-05
6.05462e-05
4.74079e-06
2.48395e-05
4.32697e-05
5.49025e-05
6.14204e-05
6.41916e-05
6.3963e-05
6.10433e-05
4.72968e-06
2.50419e-05
4.35892e-05
5.53134e-05
6.19115e-05
6.47425e-05
6.45484e-05
6.16365e-05
4.74326e-06
2.52607e-05
4.39695e-05
5.57946e-05
6.24766e-05
6.53656e-05
6.52022e-05
6.2293e-05
4.86606e-06
2.62613e-05
4.53908e-05
5.72876e-05
6.38955e-05
6.66749e-05
6.64006e-05
6.33841e-05
4.86991e-06
2.62685e-05
4.54103e-05
5.73535e-05
6.40106e-05
6.68241e-05
6.65682e-05
6.35562e-05
4.88854e-06
2.6264e-05
4.54431e-05
5.74571e-05
6.4171e-05
6.70241e-05
6.67911e-05
6.37865e-05
4.89399e-06
2.62388e-05
4.55163e-05
5.76074e-05
6.4392e-05
6.72991e-05
6.70998e-05
6.41085e-05
4.88485e-06
2.63173e-05
4.5665e-05
5.78506e-05
6.47108e-05
6.76747e-05
6.75116e-05
6.45353e-05
4.86583e-06
2.64991e-05
4.59313e-05
5.81927e-05
6.51275e-05
6.81501e-05
6.8024e-05
6.50608e-05
4.87291e-06
2.66812e-05
4.62388e-05
5.85957e-05
6.56111e-05
6.86909e-05
6.85974e-05
6.5642e-05
5.03005e-06
2.77856e-05
4.79206e-05
6.04301e-05
6.74264e-05
7.04311e-05
7.0244e-05
6.71819e-05
5.02982e-06
2.7786e-05
4.7912e-05
6.04617e-05
6.74989e-05
7.0532e-05
7.03596e-05
6.73005e-05
5.04787e-06
2.77686e-05
4.79218e-05
6.05282e-05
6.76107e-05
7.06753e-05
7.05208e-05
6.74668e-05
5.04936e-06
2.77494e-05
4.79736e-05
6.06391e-05
6.77761e-05
7.08878e-05
7.07642e-05
6.7724e-05
5.0369e-06
2.7802e-05
4.80801e-05
6.08223e-05
6.80317e-05
7.11961e-05
7.11075e-05
6.80834e-05
5.01038e-06
2.79691e-05
4.82951e-05
6.11009e-05
6.83791e-05
7.16002e-05
7.15495e-05
6.85424e-05
5.01136e-06
2.81077e-05
4.85346e-05
6.14312e-05
6.87857e-05
7.20623e-05
7.20455e-05
6.905e-05
5.19574e-06
2.93044e-05
5.04358e-05
6.35641e-05
7.09592e-05
7.42022e-05
7.4116e-05
7.10212e-05
5.19339e-06
2.92906e-05
5.04057e-05
6.35658e-05
7.09929e-05
7.42577e-05
7.4182e-05
7.10881e-05
5.21136e-06
2.92549e-05
5.04001e-05
6.36012e-05
7.10616e-05
7.43491e-05
7.42855e-05
7.11937e-05
5.20882e-06
2.92554e-05
5.04306e-05
6.36781e-05
7.11779e-05
7.45044e-05
7.44677e-05
7.13889e-05
5.19338e-06
2.92948e-05
5.05046e-05
6.38104e-05
7.13767e-05
7.47515e-05
7.47477e-05
7.16856e-05
5.16125e-06
2.94431e-05
5.06728e-05
6.4032e-05
7.16619e-05
7.50902e-05
7.51239e-05
7.20813e-05
5.15751e-06
2.95511e-05
5.08606e-05
6.42989e-05
7.19985e-05
7.54794e-05
7.55472e-05
7.2519e-05
5.36248e-06
3.08435e-05
5.29486e-05
6.66929e-05
7.44944e-05
7.79882e-05
7.80172e-05
7.49035e-05
5.3602e-06
3.08076e-05
5.28975e-05
6.66671e-05
7.44927e-05
7.80016e-05
7.80365e-05
7.4921e-05
5.37596e-06
3.07655e-05
5.28788e-05
6.66746e-05
7.45223e-05
7.80458e-05
7.8087e-05
7.49702e-05
5.37138e-06
3.07626e-05
5.2888e-05
6.67159e-05
7.45986e-05
7.81495e-05
7.82128e-05
7.51074e-05
5.3534e-06
3.07978e-05
5.29393e-05
6.68119e-05
7.47446e-05
7.83417e-05
7.84353e-05
7.53468e-05
5.31887e-06
3.0932e-05
5.30716e-05
6.69877e-05
7.49764e-05
7.86217e-05
7.87509e-05
7.5683e-05
5.31163e-06
3.10247e-05
5.32192e-05
6.72007e-05
7.52511e-05
7.89448e-05
7.91069e-05
7.60555e-05
5.53318e-06
3.2409e-05
5.5468e-05
6.98255e-05
7.804e-05
8.17974e-05
8.19577e-05
7.88404e-05
5.53132e-06
3.23445e-05
5.53966e-05
6.97735e-05
7.80051e-05
8.17715e-05
8.19328e-05
7.88105e-05
5.54359e-06
3.22988e-05
5.53619e-05
6.97575e-05
7.80005e-05
8.17729e-05
8.19346e-05
7.88076e-05
5.53827e-06
3.22943e-05
5.5358e-05
6.97708e-05
7.80365e-05
8.18294e-05
8.20081e-05
7.88903e-05
5.51855e-06
3.23207e-05
5.53896e-05
6.98296e-05
7.81381e-05
8.1972e-05
8.21782e-05
7.90769e-05
5.48373e-06
3.24493e-05
5.54956e-05
6.99711e-05
7.83263e-05
8.22001e-05
8.24381e-05
7.93575e-05
5.47444e-06
3.25327e-05
5.56122e-05
7.01397e-05
7.85469e-05
8.24632e-05
8.2732e-05
7.96693e-05
5.70759e-06
3.40065e-05
5.80063e-05
7.2974e-05
8.16092e-05
8.56453e-05
8.59553e-05
8.28524e-05
5.70656e-06
3.39158e-05
5.79148e-05
7.28969e-05
8.15428e-05
8.55817e-05
8.58873e-05
8.27756e-05
5.7146e-06
3.38671e-05
5.78658e-05
7.28573e-05
8.15039e-05
8.55424e-05
8.5843e-05
8.27228e-05
5.70905e-06
3.38654e-05
5.78506e-05
7.2846e-05
8.15013e-05
8.55559e-05
8.5867e-05
8.27531e-05
5.69071e-06
3.38826e-05
5.78666e-05
7.28822e-05
8.15706e-05
8.56532e-05
8.59879e-05
8.28897e-05
5.65646e-06
3.40036e-05
5.79515e-05
7.29879e-05
8.17171e-05
8.58324e-05
8.6195e-05
8.31171e-05
5.64703e-06
3.40782e-05
5.80454e-05
7.31193e-05
8.18894e-05
8.60402e-05
8.64309e-05
8.3372e-05
5.88747e-06
3.5649e-05
6.05775e-05
7.61537e-05
8.52194e-05
8.95524e-05
9.00342e-05
8.69666e-05
5.88758e-06
3.55384e-05
6.04667e-05
7.60519e-05
8.51215e-05
8.94504e-05
8.99216e-05
8.68404e-05
5.89143e-06
3.54798e-05
6.03998e-05
7.59848e-05
8.50497e-05
8.93708e-05
8.98306e-05
8.67369e-05
5.88488e-06
3.54771e-05
6.03718e-05
7.5951e-05
8.50174e-05
8.93419e-05
8.98053e-05
8.6714e-05
5.87131e-06
3.54872e-05
6.0378e-05
7.59704e-05
8.50555e-05
8.93983e-05
8.98779e-05
8.68004e-05
5.83859e-06
3.56012e-05
6.04457e-05
7.60429e-05
8.51545e-05
8.95258e-05
9.00317e-05
8.69752e-05
5.83075e-06
3.56693e-05
6.05221e-05
7.61417e-05
8.52814e-05
8.96806e-05
9.02116e-05
8.71756e-05
6.07674e-06
3.7345e-05
6.31952e-05
7.93808e-05
8.88902e-05
9.35423e-05
9.42221e-05
9.1214e-05
6.07869e-06
3.72148e-05
6.30643e-05
7.92524e-05
8.87578e-05
9.33975e-05
9.40591e-05
9.10319e-05
6.07737e-06
3.71492e-05
6.29772e-05
7.91575e-05
8.86513e-05
9.32735e-05
9.39165e-05
9.0872e-05
6.0704e-06
3.71285e-05
6.29295e-05
7.91051e-05
8.85918e-05
9.32029e-05
9.38386e-05
9.07913e-05
6.06062e-06
3.71393e-05
6.29272e-05
7.90953e-05
8.85867e-05
9.32077e-05
9.38572e-05
9.08235e-05
6.03191e-06
3.7245e-05
6.29808e-05
7.91374e-05
8.86399e-05
9.3285e-05
9.39565e-05
9.0944e-05
6.02716e-06
3.73091e-05
6.30429e-05
7.92057e-05
8.87226e-05
9.33868e-05
9.40804e-05
9.10903e-05
4.34055e-06
1.93639e-05
3.44916e-05
4.39452e-05
4.90093e-05
5.09174e-05
5.03561e-05
4.76222e-05
4.30383e-06
1.90524e-05
3.38809e-05
4.30831e-05
4.79493e-05
4.97181e-05
4.90778e-05
4.63298e-05
4.26626e-06
1.86872e-05
3.31878e-05
4.21487e-05
4.6842e-05
4.85015e-05
4.78148e-05
4.5086e-05
4.23075e-06
1.83587e-05
3.25536e-05
4.12761e-05
4.57865e-05
4.7316e-05
4.65528e-05
4.3807e-05
4.18679e-06
1.78986e-05
3.18441e-05
4.04458e-05
4.49076e-05
4.64439e-05
4.5735e-05
4.30841e-05
4.15279e-06
1.76076e-05
3.13447e-05
3.98183e-05
4.42103e-05
4.57177e-05
4.50125e-05
4.23948e-05
4.12544e-06
1.7366e-05
3.09633e-05
3.93733e-05
4.37521e-05
4.52789e-05
4.4616e-05
4.20566e-05
4.41774e-06
2.06116e-05
3.64929e-05
4.64251e-05
5.18036e-05
5.38903e-05
5.33833e-05
5.05822e-05
4.38486e-06
2.03275e-05
3.59291e-05
4.56209e-05
5.08084e-05
5.27581e-05
5.21701e-05
4.93482e-05
4.35153e-06
1.99943e-05
3.52926e-05
4.47451e-05
4.97594e-05
5.15947e-05
5.09513e-05
4.81356e-05
4.31981e-06
1.96791e-05
3.46896e-05
4.39155e-05
4.87531e-05
5.04638e-05
4.9747e-05
4.69138e-05
4.27893e-06
1.92771e-05
3.40378e-05
4.31349e-05
4.79049e-05
4.95981e-05
4.89093e-05
4.61445e-05
4.24518e-06
1.90123e-05
3.3575e-05
4.25434e-05
4.7235e-05
4.88929e-05
4.82025e-05
4.5466e-05
4.21701e-06
1.87968e-05
3.32241e-05
4.21243e-05
4.67912e-05
4.84596e-05
4.78048e-05
4.51211e-05
4.50233e-06
2.189e-05
3.85438e-05
4.89704e-05
5.46747e-05
5.69494e-05
5.6506e-05
5.36474e-05
4.47395e-06
2.16444e-05
3.80448e-05
4.82438e-05
5.37634e-05
5.5903e-05
5.53762e-05
5.24896e-05
4.44574e-06
2.13512e-05
3.7478e-05
4.74487e-05
5.2795e-05
5.48155e-05
5.42243e-05
5.13306e-05
4.41902e-06
2.10663e-05
3.69243e-05
4.66817e-05
5.18602e-05
5.37604e-05
5.30966e-05
5.01819e-05
4.38231e-06
2.07184e-05
3.63508e-05
4.59702e-05
5.10652e-05
5.29291e-05
5.2272e-05
4.94032e-05
4.3492e-06
2.04834e-05
3.59366e-05
4.5427e-05
5.0439e-05
5.22628e-05
5.15993e-05
4.87535e-05
4.3206e-06
2.0297e-05