/*--------------------------------*- C++ -*----------------------------------*\
| =========                 |                                                 |
| \\      /  F ield         | OpenFOAM: The Open Source CFD Toolbox           |
|  \\    /   O peration     | Version:  plus.master                           |
|   \\  /    A nd           | Web:      www.OpenFOAM.com                      |
|    \\/     M anipulation  |                                                 |
\*---------------------------------------------------------------------------*/
FoamFile
{
    version     2.0;
    format      ascii;
    class       volScalarField;
    location    "11.6";
    object      epsilon;
}
// * * * * * * * * * * * * * * * * * * * * * * * * * * * * * * * * * * * * * //

dimensions      [0 2 -3 0 0 0 0];

internalField   nonuniform List<scalar> 
47285
(
0.000954708
0.00677853
0.0325092
0.0367355
0.0115006
0.00181808
0.000278065
0.00489274
0.11639
0.552975
0.658776
0.331942
0.0732581
0.00224249
0.019524
0.44306
0.534355
2.68779
0.406572
0.367997
0.0162335
0.046725
0.756045
2.64182
2.38294
2.61527
0.579364
0.0370536
0.026273
0.556068
0.507088
2.48846
0.524396
0.379505
0.0237852
0.0060013
0.128933
0.612119
0.762336
0.305512
0.0914253
0.00448407
0.0011087
0.00703617
0.0328615
0.038234
0.0123737
0.00346368
0.000576003
0.00544396
0.0467117
0.156853
0.180655
0.0498711
0.00702439
0.00105203
0.0378106
0.249769
0.745274
1.1444
0.372297
0.0763481
0.0069346
0.141858
0.719511
1.48343
5.36443
1.12175
0.321329
0.0418429
0.299395
1.52279
5.28265
4.65706
6.04403
0.789711
0.104818
0.18244
0.845513
1.5599
4.61952
1.42015
0.455042
0.0754768
0.052185
0.301258
0.910653
1.58283
0.531474
0.136338
0.0180532
0.00781171
0.0593402
0.210594
0.273333
0.0890665
0.0166783
0.00210474
0.015287
0.0862654
0.255368
0.307774
0.0864399
0.0126809
0.00343488
0.0863159
0.400513
1.0214
1.53695
0.536395
0.0947266
0.0105188
0.289399
1.10288
2.44547
5.7393
1.89595
0.392395
0.045917
0.574249
2.29658
5.50167
5.93239
7.25094
0.998793
0.121179
0.362044
1.28157
2.64883
4.99116
2.35869
0.57478
0.0883059
0.128312
0.526887
1.31583
2.23563
0.839171
0.194971
0.0244539
0.0260445
0.135241
0.381687
0.508469
0.184223
0.0324302
0.005548
0.0244818
0.101451
0.297219
0.366885
0.103525
0.0203544
0.00922482
0.116417
0.514023
1.24151
1.75634
0.65925
0.106028
0.0172015
0.417796
1.49725
3.01772
5.26918
2.3469
0.457848
0.0509163
0.85211
3.15622
5.26967
6.14947
7.08689
1.11799
0.120937
0.533075
1.8004
3.29428
4.86588
2.96488
0.649164
0.0855099
0.188911
0.741879
1.75447
2.79214
1.08472
0.222188
0.0300117
0.0429451
0.189562
0.512489
0.68469
0.243738
0.0433462
0.0119819
0.0260735
0.092341
0.275393
0.337486
0.0941176
0.0220927
0.0121002
0.114605
0.543107
1.33603
1.75001
0.663523
0.0967781
0.0192507
0.473762
1.82882
3.41104
4.84452
2.60494
0.460578
0.0487756
1.06265
4.20785
5.34643
6.13932
7.26191
1.15751
0.109437
0.628662
2.29984
3.82266
4.74526
3.5566
0.669415
0.0758892
0.200045
0.864599
2.10343
3.20054
1.21132
0.207862
0.0297929
0.0451066
0.193902
0.554943
0.740867
0.243082
0.0429086
0.0148517
0.000117536
0.000103554
0.000102759
9.72233e-05
9.28517e-05
8.91934e-05
8.60499e-05
8.3304e-05
0.000369186
0.000143949
0.000106931
9.48373e-05
8.84154e-05
8.36575e-05
7.97164e-05
7.63004e-05
0.00252022
0.000390996
0.000133608
9.80497e-05
8.83361e-05
8.26522e-05
7.80692e-05
7.41723e-05
0.00660904
0.000959702
0.000192964
0.000103462
8.87796e-05
8.28018e-05
7.82719e-05
7.51038e-05
0.00390529
0.000596111
0.000161656
0.000104363
9.27394e-05
8.67716e-05
8.28959e-05
7.98655e-05
0.0008347
0.000226541
0.000128086
0.00010542
9.69376e-05
9.20061e-05
8.87423e-05
8.60545e-05
0.00020805
0.000128839
0.000112211
0.000104742
0.000101401
9.85283e-05
9.59686e-05
9.32663e-05
0.00041067
0.000325431
0.000278518
0.000242696
0.000214234
0.00019124
0.000172179
0.00015576
0.00084812
0.000397529
0.000302675
0.000254087
0.000220206
0.000194117
0.000173079
0.000155243
0.00317959
0.000599226
0.000330813
0.000258463
0.000220328
0.000193019
0.000171453
0.000153335
0.00734506
0.000844913
0.000356324
0.000262679
0.000221441
0.000193354
0.000171504
0.000153383
0.00603046
0.00078288
0.000348531
0.000261561
0.000221804
0.000194747
0.000173673
0.000155851
0.00191736
0.000502177
0.000313569
0.000254046
0.000220954
0.000196926
0.000177789
0.000161246
0.000632262
0.00035275
0.000280867
0.000242169
0.000215029
0.000194264
0.000177292
0.000162485
0.00207278
0.00174256
0.00149806
0.00126144
0.0010313
0.000816512
0.000627671
0.000473982
0.00286335
0.00193315
0.00158472
0.00132015
0.00107548
0.000846846
0.000643381
0.000476345
0.00557227
0.00227707
0.0016661
0.00136042
0.00110574
0.000868961
0.000655777
0.000479338
0.0100544
0.00264959
0.00172823
0.00138559
0.00112329
0.000881421
0.000663044
0.000482229
0.00896429
0.00260697
0.00171944
0.00137791
0.00111603
0.000876276
0.000661571
0.00048512
0.00427654
0.00212664
0.00161825
0.00132896
0.00108114
0.000852917
0.000651317
0.00048771
0.00235974
0.00178026
0.00149839
0.00125835
0.00103124
0.000820902
0.000637387
0.000490034
0.00695559
0.00595586
0.00509629
0.00432685
0.00369787
0.00321821
0.00283992
0.00245502
0.00824386
0.00649597
0.00545179
0.00456971
0.00384405
0.0032947
0.00288132
0.00248343
0.011415
0.00712591
0.00575142
0.00477888
0.00398413
0.00337782
0.00292914
0.00251282
0.0161132
0.0077032
0.0059446
0.00490607
0.00407193
0.00343083
0.0029565
0.00252339
0.0145903
0.00761557
0.00592264
0.00488751
0.00406244
0.00343059
0.00295806
0.00251926
0.00977832
0.00690007
0.0056746
0.0047403
0.00397796
0.0033923
0.00294148
0.00250513
0.00740484
0.00618782
0.00529651
0.00450859
0.00385453
0.00334422
0.00293146
0.00250875
0.0100147
0.00910401
0.00842387
0.00774577
0.0069004
0.00573511
0.00427163
0.00284843
0.0111684
0.00947536
0.00857099
0.00784012
0.00706056
0.00600316
0.00457509
0.00307908
0.014075
0.0100693
0.00882455
0.00802434
0.00726128
0.00625173
0.00482456
0.003256
0.0182653
0.0106473
0.00902881
0.00816391
0.00738544
0.00637556
0.00493395
0.00332601
0.0166063
0.0105427
0.00903678
0.00817413
0.00737027
0.00632225
0.00485917
0.00326145
0.012598
0.0100046
0.00895194
0.00815941
0.00731365
0.00617875
0.00467053
0.00310607
0.0106934
0.00962643
0.00894555
0.008261
0.007369
0.00610761
0.00451271
0.00296027
0.000238147
0.000131102
0.000117501
0.000112384
0.00010881
0.000105937
0.000103642
0.000101598
0.000923382
0.000220031
0.000125007
0.000103231
9.4866e-05
8.85019e-05
8.4968e-05
8.23762e-05
0.00466209
0.000859991
0.000209229
0.0001074
8.80549e-05
7.93154e-05
7.42459e-05
6.92377e-05
0.00836359
0.0014139
0.00025949
0.000107699
8.29337e-05
7.37673e-05
6.69357e-05
6.12446e-05
0.00304718
0.000563247
0.000163773
0.000102301
8.84534e-05
8.19048e-05
7.6105e-05
7.07559e-05
0.000606496
0.000169623
0.000117741
0.000100242
9.34711e-05
8.91298e-05
8.51489e-05
8.1196e-05
0.000216497
0.000124355
0.000110115
0.000104882
0.00010221
0.000100171
9.81836e-05
9.59049e-05
0.00109785
0.000494772
0.000384468
0.000321902
0.000275674
0.000239785
0.00021143
0.000188319
0.00557198
0.00102857
0.000529405
0.000397485
0.000325656
0.000273508
0.000232658
0.000199008
0.0264849
0.00323919
0.000873927
0.000528967
0.000408328
0.000333022
0.000275546
0.000228267
0.0414504
0.00418326
0.000921739
0.000528682
0.00040413
0.000328311
0.000270917
0.000225442
0.0162111
0.00187043
0.000633461
0.000428462
0.000341586
0.000281916
0.000234056
0.0001954
0.0034284
0.000720737
0.000421971
0.000330188
0.000274804
0.000233268
0.000200271
0.000173103
0.00088721
0.000451739
0.000346952
0.000287977
0.000246525
0.000215302
0.000190923
0.000171239
0.00493901
0.00242545
0.00192524
0.00162135
0.0013376
0.0010601
0.000806585
0.000598515
0.0191014
0.00424858
0.0023113
0.00180421
0.00149208
0.00120218
0.000920415
0.000669314
0.0659678
0.00983236
0.00300031
0.00195268
0.00157284
0.00128646
0.00100863
0.000743412
0.101789
0.012797
0.00312566
0.00189263
0.00149243
0.00120679
0.000938754
0.000687444
0.0443804
0.00660385
0.00252669
0.00181181
0.0014856
0.00120822
0.000934224
0.00067689
0.0116014
0.00313427
0.00201507
0.0016367
0.00135414
0.001082
0.000821749
0.000594497
0.00351545
0.00212416
0.00175864
0.00148603
0.00122264
0.000967332
0.000736546
0.000547862
0.0122943
0.00776583
0.00632821
0.00532067
0.00451178
0.00388008
0.00337388
0.00287103
0.033738
0.0110553
0.00720571
0.00577486
0.00483653
0.00414783
0.00364066
0.00317473
0.0999319
0.0192398
0.00824719
0.00591572
0.00480921
0.00407458
0.0035859
0.00319685
0.159063
0.0248371
0.00850632
0.00572321
0.00453747
0.00375774
0.003238
0.00283617
0.0695134
0.0147021
0.00750059
0.00566229
0.00462369
0.00388602
0.00337866
0.00297054
0.0213765
0.00898694
0.00660383
0.00543368
0.00456364
0.00390707
0.00342361
0.00298536
0.009431
0.00701161
0.00592162
0.005023
0.00427946
0.00369926
0.00323688
0.00277641
0.0158159
0.0116417
0.0104249
0.00951748
0.00844019
0.00695894
0.00509213
0.00326109
0.0371475
0.0149872
0.0114008
0.0102555
0.00935717
0.00808042
0.00621327
0.00413988
0.107475
0.0234691
0.0126239
0.0107185
0.00999978
0.0090656
0.00739629
0.005288
0.179144
0.0299993
0.0128713
0.010384
0.00969358
0.00899604
0.00766943
0.00587063
0.0751445
0.0189271
0.0117737
0.0103615
0.00973304
0.00886361
0.00730866
0.00533574
0.0242121
0.0127441
0.0106943
0.00986096
0.00909432
0.00794271
0.00620819
0.0042439
0.0128104
0.0107116
0.00985356
0.0090781
0.00811221
0.0067572
0.00501444
0.00327203
0.000306293
0.000140775
0.000108214
9.94622e-05
9.82352e-05
9.75095e-05
9.57522e-05
9.37772e-05
0.00142361
0.000307378
0.000123414
8.82206e-05
7.94126e-05
7.51958e-05
7.38304e-05
7.3269e-05
0.00558067
0.000893298
0.00017872
8.49653e-05
6.80124e-05
6.03726e-05
5.40211e-05
4.88762e-05
0.00622215
0.000894213
0.000172685
8.89175e-05
7.27657e-05
6.39901e-05
5.73854e-05
5.23049e-05
0.00157683
0.000272528
0.000117172
9.0335e-05
8.11252e-05
7.47636e-05
7.0131e-05
6.57221e-05
0.000246849
0.000112831
0.000103334
9.42021e-05
8.85436e-05
8.39874e-05
7.98956e-05
7.70862e-05
0.000109557
9.99078e-05
0.000101741
9.73181e-05
9.34566e-05
9.06213e-05
8.82372e-05
8.54379e-05
0.00127727
0.000494351
0.000359886
0.000299053
0.000258491
0.000227427
0.000202254
0.000180901
0.00565818
0.000996747
0.000469722
0.000343002
0.000281957
0.000241001
0.000210248
0.000185318
0.0172743
0.00180477
0.000560821
0.000364443
0.000286124
0.000236105
0.000198844
0.000169572
0.0161332
0.00150506
0.000505852
0.00034163
0.000270124
0.00022238
0.000186316
0.000157397
0.0037212
0.000696922
0.000392349
0.000302419
0.000248971
0.000209189
0.000178004
0.000152342
0.000852923
0.000417136
0.000322626
0.000269595
0.000231119
0.000201332
0.000177866
0.000158366
0.000418148
0.00033556
0.000286033
0.000247315
0.00021704
0.000193297
0.000174077
0.000157926
0.00374539
0.0021096
0.00171171
0.00144524
0.00119449
0.000951713
0.000731054
0.000548976
0.0120427
0.00314278
0.00191454
0.00152823
0.00126004
0.00100812
0.000770276
0.000565573
0.0322025
0.00465857
0.00197104
0.00144606
0.00117347
0.000937904
0.000715062
0.000517861
0.0331455
0.00428449
0.00184166
0.00135512
0.00108952
0.000862328
0.000651571
0.000465262
0.00895168
0.00259085
0.00175374
0.00143551
0.00118523
0.000942962
0.000711375
0.000509417
0.00300334
0.00198829
0.00166335
0.00140881
0.00116113
0.000919438
0.000697284
0.000511257
0.0020941
0.00178564
0.00154287
0.00130075
0.00106288
0.000840012
0.000643955
0.000484679
0.00920994
0.00682297
0.00574433
0.00488149
0.00416987
0.00361179
0.00316197
0.00270699
0.0185317
0.00831069
0.00615029
0.00507045
0.00427588
0.00367725
0.00322399
0.00278738
0.0412384
0.0102481
0.00611931
0.0048204
0.00401129
0.00344234
0.0030497
0.00269625
0.0444003
0.00987721
0.00581632
0.0045641
0.00377952
0.00324034
0.00288903
0.00258725
0.0162581
0.00753127
0.00573005
0.00473843
0.00397554
0.00340972
0.00300906
0.00264422
0.00851285
0.00658257
0.00556563
0.00470393
0.00398258
0.00342906
0.00301049
0.00260705
0.00696342
0.00599605
0.0051426
0.0043746
0.00374506
0.00326334
0.00288224
0.00249388
0.012494
0.0104084
0.00952969
0.00875913
0.00779606
0.00644855
0.00474245
0.00307606
0.0201758
0.0115218
0.00967286
0.00877713
0.00791144
0.00671794
0.00508303
0.0033604
0.0392687
0.013184
0.00956899
0.00853032
0.00779607
0.0067961
0.0052894
0.00358022
0.0427192
0.0129016
0.00918207
0.00817882
0.00751292
0.00661103
0.00519996
0.00355873
0.0185853
0.0106183
0.00897641
0.00820133
0.0075072
0.00652594
0.00505715
0.00340559
0.0115206
0.00964926
0.00877661
0.0080813
0.00731547
0.00623763
0.00474913
0.00317139
0.0100097
0.00911788
0.00843622
0.00775647
0.00691303
0.00575325
0.00429251
0.00286192
0.000160363
0.000116024
0.000107902
0.0001025
9.87132e-05
9.54369e-05
9.2304e-05
8.98581e-05
0.000390029
0.000143339
0.000115833
0.000103871
9.62756e-05
8.9691e-05
8.3835e-05
7.87511e-05
0.00171664
0.000335315
0.000142037
0.000105664
9.36174e-05
8.47209e-05
7.77865e-05
7.14829e-05
0.0066553
0.00108888
0.00022501
0.000111457
9.01061e-05
7.90384e-05
7.03803e-05
6.39053e-05
0.00631994
0.00107608
0.000236972
0.000111585
8.64276e-05
7.66174e-05
6.97384e-05
6.41722e-05
0.00154823
0.000386022
0.000151728
0.000106538
9.46218e-05
8.8165e-05
8.36214e-05
7.97845e-05
0.000318305
0.000154972
0.000122458
0.000112848
0.00010798
0.000104718
0.000102237
0.000100204
0.000541077
0.00036547
0.000298402
0.000252662
0.000219026
0.000193291
0.000173036
0.000156487
0.00157221
0.000522603
0.000369643
0.000299415
0.000250512
0.000212691
0.000182167
0.000157008
0.00787453
0.00113139
0.00053646
0.000397244
0.000321114
0.00026448
0.000218647
0.000181135
0.0321188
0.00309164
0.000846086
0.000536067
0.000417908
0.000339078
0.000278106
0.000229259
0.0306269
0.00365822
0.000989807
0.000593648
0.00045013
0.000359346
0.000290813
0.000237169
0.00875145
0.00156702
0.000676408
0.000465519
0.000365392
0.000297733
0.00024639
0.000205603
0.00140217
0.000520602
0.000402852
0.000338671
0.000289538
0.000250315
0.000218678
0.000192615
0.00230492
0.00182908
0.00157343
0.00132743
0.00108608
0.000858714
0.000658017
0.000495475
0.00500088
0.00223636
0.00174113
0.00145722
0.00120138
0.000952208
0.00071856
0.000518032
0.0225198
0.00406302
0.00209819
0.0016254
0.00134139
0.0010822
0.000827612
0.000592627
0.0803593
0.00978556
0.00276804
0.00179139
0.00142815
0.00115341
0.000893862
0.000651693
0.0691374
0.0101822
0.00303525
0.0019449
0.00155212
0.00125968
0.000979634
0.000715683
0.0225385
0.00482205
0.00244395
0.00185165
0.00151415
0.00121243
0.000922701
0.000665252
0.00507574
0.00240993
0.00192808
0.00163161
0.00134878
0.00106928
0.000812158
0.000599821
0.00745315
0.00629544
0.0054143
0.00461834
0.00395775
0.00344675
0.00304128
0.00263312
0.0113945
0.00715708
0.00586441
0.00493098
0.0041698
0.00359295
0.00317156
0.00278619
0.0358268
0.0101726
0.00645674
0.00511898
0.00421411
0.00355271
0.00310006
0.00273062
0.115762
0.0189792
0.00753806
0.00531832
0.00425737
0.00354243
0.00306814
0.00269722
0.0952408
0.0184041
0.00789437
0.00563729
0.00456142
0.00385244
0.00338571
0.0030173
0.0345294
0.0111691
0.00713204
0.0056667
0.00473249
0.00405921
0.00356993
0.00312196
0.0122729
0.00770352
0.00627454
0.00527672
0.00447634
0.00385299
0.0033552
0.00286135
0.0108611
0.0098563
0.00921095
0.00856597
0.00772417
0.00650303
0.00490386
0.00328094
0.0146265
0.0107903
0.00980791
0.00922952
0.00860387
0.00759678
0.00603211
0.00422988
0.038288
0.0139584
0.0104869
0.00961108
0.00911791
0.00835232
0.00694361
0.0051402
0.117557
0.0227368
0.0115868
0.0097782
0.00920716
0.00856167
0.00730916
0.00561398
0.0947816
0.0216996
0.0120522
0.010315
0.00965895
0.00879808
0.00721877
0.00519744
0.0365264
0.0148476
0.0112464
0.0101149
0.00924435
0.00799938
0.00616617
0.00412758
0.0157879
0.0115909
0.0103724
0.00947615
0.00841177
0.00694425
0.0050905
0.00326922
8.06641e-05
7.36238e-05
7.11486e-05
7.30952e-05
7.72232e-05
8.36187e-05
9.04728e-05
0.00014068
0.000138869
0.000136669
0.000136722
0.00013943
0.000145594
0.000148152
0.000359907
0.000352593
0.000348776
0.000348925
0.000355825
0.000368635
0.000383083
0.00191791
0.00190298
0.00189445
0.00188477
0.00188156
0.0018885
0.00193343
0.00144283
0.00144357
0.00143626
0.00142888
0.00142249
0.00141898
0.00144511
9.95035e-05
7.91779e-05
6.34494e-05
5.69238e-05
6.63214e-05
7.84371e-05
9.36038e-05
0.000167988
0.000171234
0.000190551
0.000189193
0.000163572
0.000150216
0.000154116
0.000448263
0.000473308
0.000519122
0.000478373
0.000464625
0.000419644
0.000410876
0.00220271
0.00249657
0.00261034
0.00225602
0.00238629
0.00235551
0.00215474
0.00146618
0.00180303
0.00251858
0.00317337
0.00267317
0.00196285
0.00153174
9.19316e-05
7.2125e-05
4.52841e-05
4.85388e-05
6.11907e-05
7.46791e-05
8.26084e-05
0.000161507
0.000163879
0.000145075
0.000133217
0.00013093
0.000140958
0.000143211
0.000415162
0.000410407
0.000364181
0.00031935
0.000354872
0.000372473
0.00036681
0.00208942
0.00214699
0.00211865
0.00206265
0.00205975
0.00201089
0.00194997
0.0014475
0.00148578
0.00154824
0.00154521
0.00146637
0.00144187
0.00143902
8.73119e-05
7.52651e-05
6.57443e-05
5.84534e-05
5.96102e-05
7.57194e-05
9.79941e-05
0.000141843
0.000135644
0.000150616
0.000190776
0.000195218
0.000172669
0.000169847
0.00037643
0.000365148
0.000401854
0.000451196
0.00049473
0.000464633
0.000445426
0.00206866
0.00221886
0.00218338
0.00214319
0.00246098
0.0024633
0.00220289
0.00162123
0.00207345
0.00265091
0.00305486
0.00249658
0.0018169
0.00147746
7.79411e-05
7.13144e-05
6.26411e-05
5.39239e-05
4.53141e-05
3.73122e-05
3.01757e-05
2.38914e-05
7.12813e-05
6.64912e-05
5.96817e-05
5.13332e-05
4.33693e-05
3.58588e-05
2.90807e-05
2.30609e-05
6.87764e-05
6.44493e-05
5.8345e-05
5.04133e-05
4.27033e-05
3.53892e-05
2.87452e-05
2.28124e-05
7.12907e-05
6.6638e-05
5.99482e-05
5.23708e-05
4.41625e-05
3.59672e-05
2.89714e-05
2.29719e-05
7.48793e-05
6.97962e-05
6.23319e-05
5.34978e-05
4.51574e-05
3.73146e-05
3.02635e-05
2.4014e-05
8.15105e-05
7.57885e-05
6.72789e-05
5.7436e-05
4.82548e-05
3.98507e-05
3.23187e-05
2.56647e-05
8.75821e-05
8.00617e-05
7.07018e-05
6.08533e-05
5.12051e-05
4.23615e-05
3.44486e-05
2.74575e-05
0.000126294
0.000102585
7.80288e-05
5.8256e-05
4.38811e-05
3.35873e-05
2.61136e-05
2.07594e-05
0.000124356
0.000101754
7.76414e-05
5.85132e-05
4.42598e-05
3.39604e-05
2.64311e-05
2.10022e-05
0.000122535
0.000100748
7.71431e-05
5.83532e-05
4.428e-05
3.40569e-05
2.65434e-05
2.10994e-05
0.000122907
0.000101067
7.78178e-05
5.86692e-05
4.42141e-05
3.39712e-05
2.65616e-05
2.1218e-05
0.000125383
0.000102674
7.825e-05
5.9049e-05
4.48264e-05
3.45686e-05
2.7062e-05
2.16432e-05
0.00013134
0.000106977
8.09696e-05
6.06408e-05
4.58423e-05
3.52761e-05
2.76237e-05
2.216e-05
0.000134134
0.000109104
8.23844e-05
6.13231e-05
4.62818e-05
3.56425e-05
2.79828e-05
2.25445e-05
0.00028139
0.000206225
0.000131497
8.18969e-05
5.26716e-05
3.55671e-05
2.5411e-05
1.95298e-05
0.000274012
0.000200857
0.000129511
8.14878e-05
5.2859e-05
3.59727e-05
2.58954e-05
2.00439e-05
0.000270239
0.000198712
0.000128605
8.12312e-05
5.28744e-05
3.60844e-05
2.60338e-05
2.01859e-05
0.000270431
0.000198944
0.000128294
8.10285e-05
5.28171e-05
3.61017e-05
2.61117e-05
2.03193e-05
0.000278967
0.000204466
0.000129962
8.12681e-05
5.26758e-05
3.59196e-05
2.5959e-05
2.02084e-05
0.000295217
0.000213579
0.000133357
8.23639e-05
5.29247e-05
3.58771e-05
2.58409e-05
2.00995e-05
0.000312858
0.00022441
0.000138407
8.45705e-05
5.38164e-05
3.6134e-05
2.57723e-05
1.98559e-05
0.00135694
0.000616917
0.000244165
0.000110278
5.7785e-05
3.43931e-05
2.297e-05
1.73384e-05
0.00133604
0.000607783
0.000241335
0.00010953
5.77665e-05
3.46662e-05
2.33895e-05
1.78578e-05
0.00132021
0.000599853
0.000238792
0.000108789
5.75901e-05
3.46792e-05
2.34737e-05
1.79745e-05
0.0013071
0.000592545
0.00023632
0.000108008
5.73175e-05
3.45894e-05
2.3475e-05
1.8034e-05
0.00130258
0.000589108
0.000235202
0.000107582
5.69888e-05
3.42645e-05
2.31471e-05
1.77052e-05
0.00130936
0.00059259
0.000237014
0.000108304
5.70861e-05
3.40731e-05
2.28356e-05
1.73414e-05
0.00135352
0.000617908
0.000248241
0.000113242
5.92646e-05
3.49231e-05
2.29696e-05
1.7035e-05
0.00113678
0.000669264
0.000274809
0.000117223
5.61502e-05
3.07566e-05
1.94575e-05
1.44475e-05
0.00112441
0.000663281
0.000273453
0.000117026
5.6291e-05
3.10183e-05
1.97851e-05
1.48374e-05
0.00110954
0.000655587
0.000270977
0.000116193
5.60119e-05
3.09495e-05
1.98077e-05
1.49041e-05
0.00110009
0.000650655
0.000269281
0.000115571
5.57607e-05
3.08482e-05
1.97776e-05
1.49121e-05
0.0011013
0.000651271
0.000268998
0.000115172
5.53669e-05
3.04792e-05
1.94245e-05
1.45521e-05
0.00111396
0.000657981
0.000270731
0.000115513
5.5264e-05
3.022e-05
1.90958e-05
1.41652e-05
0.00115607
0.000680543
0.000279051
0.000119076
5.69504e-05
3.10102e-05
1.93643e-05
1.4056e-05
9.70446e-05
9.0245e-05
7.99405e-05
6.83404e-05
5.71651e-05
4.70898e-05
3.82705e-05
3.06631e-05
7.61748e-05
7.04404e-05
6.55759e-05
5.91354e-05
5.12706e-05
4.33894e-05
3.59619e-05
2.93086e-05
5.9395e-05
5.31693e-05
4.77933e-05
4.25255e-05
3.73934e-05
3.23963e-05
2.78711e-05
2.33233e-05
5.32919e-05
4.6601e-05
4.06697e-05
3.50019e-05
2.99614e-05
2.55107e-05
2.17285e-05
1.82379e-05
6.19181e-05
5.44815e-05
4.84011e-05
4.22784e-05
3.65972e-05
3.13526e-05
2.66812e-05
2.22745e-05
7.61132e-05
6.96856e-05
6.35505e-05
5.57777e-05
4.73766e-05
3.94679e-05
3.25653e-05
2.65223e-05
9.06863e-05
8.39649e-05
7.45652e-05
6.39236e-05
5.34937e-05
4.40508e-05
3.56753e-05
2.84602e-05
0.000149243
0.000118598
8.66182e-05
6.20306e-05
4.51451e-05
3.38019e-05
2.60479e-05
2.07447e-05
0.000147895
0.000118703
9.1306e-05
6.83481e-05
5.13497e-05
3.94477e-05
3.11103e-05
2.5263e-05
0.000158633
0.000121622
9.13374e-05
6.84301e-05
5.13963e-05
3.91301e-05
2.99043e-05
2.31445e-05
0.00015826
0.000121814
9.24701e-05
7.02743e-05
5.38872e-05
4.15904e-05
3.22849e-05
2.52536e-05
0.000136945
0.000104718
7.78325e-05
5.76736e-05
4.3003e-05
3.26415e-05
2.5324e-05
2.00075e-05
0.000130573
0.000104676
7.95124e-05
5.88279e-05
4.36421e-05
3.3486e-05
2.66689e-05
2.17863e-05
0.000138281
0.000112178
8.35591e-05
6.0743e-05
4.46316e-05
3.35995e-05
2.59916e-05
2.07633e-05
0.000352796
0.000247889
0.000149214
8.83944e-05
5.45206e-05
3.55207e-05
2.45544e-05
1.82172e-05
0.00034525
0.000241544
0.000164733
0.000108996
7.42217e-05
5.28716e-05
3.91594e-05
2.99562e-05
0.000359164
0.000218837
0.000142184
9.82723e-05
7.06436e-05
5.20838e-05
3.90507e-05
2.96951e-05
0.000328977
0.000197313
0.000126203
8.63513e-05
6.17151e-05
4.53075e-05
3.38659e-05
2.57564e-05
0.000317937
0.000187377
0.000116903
7.75281e-05
5.38588e-05
3.89308e-05
2.91207e-05
2.23713e-05
0.000306382
0.000209587
0.000144057
9.53321e-05
6.4768e-05
4.61623e-05
3.40882e-05
2.56919e-05
0.000321401
0.000234206
0.000145135
8.76971e-05
5.48339e-05
3.60755e-05
2.51256e-05
1.87796e-05
0.00152417
0.000685478
0.000269508
0.000119663
6.11723e-05
3.5281e-05
2.26031e-05
1.61203e-05
0.0017852
0.000858694
0.000361323
0.00017139
9.51839e-05
5.99456e-05
4.11712e-05
3.01616e-05
0.00196992
0.00104558
0.000496471
0.000258758
0.00015505
0.000104468
7.57527e-05
5.68381e-05
0.00164684
0.000834757
0.000377587
0.000182857
9.88948e-05
5.94463e-05
3.8938e-05
2.74092e-05
0.00177694
0.000920644
0.000423184
0.000212944
0.000122394
7.8074e-05
5.28379e-05
3.70644e-05
0.00170095
0.000832835
0.000355042
0.000170553
9.61128e-05
6.09369e-05
4.11811e-05
2.90572e-05
0.00151381
0.000690719
0.000275277
0.00012414
6.44658e-05
3.76189e-05
2.42327e-05
1.73037e-05
0.00117084
0.000676415
0.000273143
0.00011577
5.52806e-05
3.01562e-05
1.88077e-05
1.3462e-05
0.00136333
0.00080101
0.000344447
0.000159489
8.50123e-05
5.19354e-05
3.54444e-05
2.6478e-05
0.0017459
0.00106906
0.000512424
0.000268386
0.000161661
0.000110151
8.20546e-05
6.50684e-05
0.00214785
0.00136183
0.000711637
0.000395157
0.000235465
0.000144773
8.77747e-05
5.18105e-05
0.00185446
0.00115681
0.000572478
0.000307022
0.000184859
0.000121294
8.27525e-05
5.71967e-05
0.00146848
0.00087617
0.000388928
0.000186538
0.000102414
6.31014e-05
4.2011e-05
2.97116e-05
0.001215
0.000709112
0.000292523
0.000127127
6.23677e-05
3.47455e-05
2.18271e-05
1.55038e-05
9.01958e-05
8.44604e-05
7.48758e-05
6.38773e-05
5.3212e-05
4.36346e-05
3.52966e-05
2.80685e-05
7.08074e-05
6.75868e-05
6.499e-05
5.91296e-05
5.09657e-05
4.23618e-05
3.48059e-05
2.80523e-05
4.26486e-05
3.87739e-05
3.55362e-05
3.18255e-05
2.83944e-05
2.47561e-05
2.12947e-05
1.80467e-05
4.55617e-05
3.97154e-05
3.4918e-05
3.00944e-05
2.59737e-05
2.21108e-05
1.85741e-05
1.53966e-05
5.76989e-05
5.23261e-05
4.75145e-05
4.31744e-05
3.77428e-05
3.18313e-05
2.6136e-05
2.11157e-05
7.28951e-05
6.96404e-05
6.31218e-05
5.57936e-05
4.70574e-05
3.85852e-05
3.1207e-05
2.49179e-05
7.97194e-05
7.34719e-05
6.54025e-05
5.61852e-05
4.7031e-05
3.86366e-05
3.12178e-05
2.47382e-05
0.000143495
0.000114426
8.42715e-05
6.09992e-05
4.48615e-05
3.39072e-05
2.63132e-05
2.10309e-05
0.00014589
0.000121675
9.38483e-05
7.01318e-05
5.23584e-05
4.0012e-05
3.11407e-05
2.4743e-05
0.000125341
0.000100755
7.8224e-05
6.11995e-05
4.82395e-05
3.86563e-05
3.10459e-05
2.46831e-05
0.000113418
8.76373e-05
6.49872e-05
4.84225e-05
3.60234e-05
2.71466e-05
2.06738e-05
1.5977e-05
0.000113791
9.10462e-05
7.09214e-05
5.45087e-05
4.1925e-05
3.25579e-05
2.56253e-05
2.04525e-05
0.000126408
0.000103165
7.95623e-05
5.93769e-05
4.45557e-05
3.39506e-05
2.64216e-05
2.1027e-05
0.000129176
0.000105484
7.99061e-05
5.92712e-05
4.42683e-05
3.36281e-05
2.60436e-05
2.06834e-05
0.00032658
0.000234451
0.000143995
8.67345e-05
5.4232e-05
3.57603e-05
2.50251e-05
1.88499e-05
0.000312514
0.000230251
0.000152612
9.83391e-05
6.49339e-05
4.46057e-05
3.20236e-05
2.43056e-05
0.000268283
0.0001875
0.00014254
0.000106512
7.94149e-05
6.03868e-05
4.70308e-05
3.76214e-05
0.000228949
0.000149663
0.000105295
7.85617e-05
5.90096e-05
4.34085e-05
3.09635e-05
2.12648e-05
0.000261032
0.000180084
0.000130144
8.96689e-05
6.23337e-05
4.49158e-05
3.38457e-05
2.69549e-05
0.00028545
0.000207815
0.000135899
8.62294e-05
5.6124e-05
3.81694e-05
2.73248e-05
2.08662e-05
0.000286173
0.000209819
0.000133632
8.29343e-05
5.3087e-05
3.56679e-05
2.53533e-05
1.93761e-05
0.00145656
0.000654438
0.000256868
0.000114321
5.86098e-05
3.39334e-05
2.19365e-05
1.59624e-05
0.00150895
0.000692759
0.000276907
0.000125678
6.65023e-05
4.00555e-05
2.69035e-05
2.01303e-05
0.00152018
0.000732753
0.000305792
0.000144108
8.10266e-05
5.28445e-05
3.84696e-05
3.07371e-05
0.00151022
0.000756153
0.00034025
0.000175005
0.000107561
7.73666e-05
6.18185e-05
5.21196e-05
0.00147131
0.000701275
0.000286024
0.000132718
7.35768e-05
4.7546e-05
3.46583e-05
2.79252e-05
0.00141964
0.000652768
0.000259335
0.000117232
6.19528e-05
3.74229e-05
2.53493e-05
1.92157e-05
0.00138028
0.000627818
0.00024791
0.000111536
5.8245e-05
3.45606e-05
2.29897e-05
1.7243e-05
0.00115026
0.000671022
0.00027283
0.000115453
5.46467e-05
2.93867e-05
1.81044e-05
1.29795e-05
0.00115496
0.000674276
0.000276098
0.000118028
5.68906e-05
3.14491e-05
2.00577e-05
1.49076e-05
0.00118745
0.000696612
0.000289796
0.000127359
6.43393e-05
3.79645e-05
2.61356e-05
2.09704e-05
0.00118334
0.000697999
0.000295877
0.000136478
7.58051e-05
5.16971e-05
4.23379e-05
4.02003e-05
0.00114199
0.000668389
0.000275459
0.000120412
6.10019e-05
3.65705e-05
2.58897e-05
2.14304e-05
0.00112952
0.000662373
0.00027155
0.000116348
5.64545e-05
3.15989e-05
2.05078e-05
1.55441e-05
0.00113612
0.000667798
0.000273633
0.00011663
5.58763e-05
3.06287e-05
1.93757e-05
1.43526e-05
8.38747e-05
7.75769e-05
6.94485e-05
6.02203e-05
5.09519e-05
4.23605e-05
3.47108e-05
2.79145e-05
7.19784e-05
6.43051e-05
5.71833e-05
5.03633e-05
4.35801e-05
3.71626e-05
3.11389e-05
2.55461e-05
6.08885e-05
5.3078e-05
4.66821e-05
4.08061e-05
3.53471e-05
3.03085e-05
2.56435e-05
2.14034e-05
5.3792e-05
4.6037e-05
3.95991e-05
3.41249e-05
2.92207e-05
2.49273e-05
2.09755e-05
1.76988e-05
5.59509e-05
5.02288e-05
4.51211e-05
4.03249e-05
3.55576e-05
3.10399e-05
2.67074e-05
2.25949e-05
7.20513e-05
6.5749e-05
5.97428e-05
5.43118e-05
4.79698e-05
4.13962e-05
3.50978e-05
2.90945e-05
9.5516e-05
8.86221e-05
7.82431e-05
6.6678e-05
5.56837e-05
4.5925e-05
3.74504e-05
3.00744e-05
0.000128408
0.000106354
8.15108e-05
6.11075e-05
4.61929e-05
3.56085e-05
2.80336e-05
2.26567e-05
0.000117418
9.27071e-05
7.08671e-05
5.44623e-05
4.26604e-05
3.40365e-05
2.7439e-05
2.23057e-05
0.000125428
9.45763e-05
7.01452e-05
5.25501e-05
4.02147e-05
3.13876e-05
2.45517e-05
1.91211e-05
0.000158528
0.000121012
9.12967e-05
6.8889e-05
5.24318e-05
4.02598e-05
3.10742e-05
2.40528e-05
0.000160658
0.000121603
9.06197e-05
6.7706e-05
5.12799e-05
3.92515e-05
3.0234e-05
2.32809e-05
0.000145557
0.000112925
8.64682e-05
6.59124e-05
5.09409e-05
4.01188e-05
3.20155e-05
2.57933e-05
0.000149278
0.000117491
8.52481e-05
6.07979e-05
4.42361e-05
3.32111e-05
2.57103e-05
2.05683e-05
0.000297673
0.000223026
0.000143614
8.99221e-05
5.79968e-05
3.91839e-05
2.79118e-05
2.12499e-05
0.000266994
0.000179116
0.000131523
9.2737e-05
6.54624e-05
4.70838e-05
3.45881e-05
2.62998e-05
0.000274244
0.000160714
0.000101104
6.84243e-05
4.86246e-05
3.5522e-05
2.63335e-05
2.0049e-05
0.000310681
0.00018673
0.000119878
8.23072e-05
5.8942e-05
4.32543e-05
3.22263e-05
2.43833e-05
0.000339483
0.000205399
0.00013375
9.35074e-05
6.88846e-05
5.29546e-05
4.16941e-05
3.2828e-05
0.000333546
0.000228341
0.00016261
0.000110884
7.61326e-05
5.34812e-05
3.85209e-05
2.87855e-05
0.000346578
0.000245199
0.000148768
8.8618e-05
5.48425e-05
3.57745e-05
2.4719e-05
1.83286e-05
0.00147912
0.000695968
0.000286919
0.00013332
7.09937e-05
4.23169e-05
2.7771e-05
2.0137e-05
0.00162856
0.000826638
0.000365552
0.000179201
0.000100767
6.27371e-05
4.18881e-05
2.98945e-05
0.00161986
0.000839998
0.000389181
0.000197541
0.000114063
7.30419e-05
5.01693e-05
3.61813e-05
0.00156518
0.000795481
0.000362208
0.000177415
9.69898e-05
5.8524e-05
3.80636e-05
2.63558e-05
0.00185821
0.000989227
0.000472652
0.000247268
0.000147795
9.84744e-05
7.03727e-05
5.31489e-05
0.00176968
0.000864017
0.000367196
0.000173717
9.4693e-05
5.78462e-05
3.84935e-05
2.76669e-05
0.00153084
0.000691745
0.000273111
0.000121533
6.21013e-05
3.5695e-05
2.27503e-05
1.61559e-05
0.00128123
0.000754919
0.000315918
0.000138929
6.87795e-05
3.85972e-05
2.44393e-05
1.75204e-05
0.00154827
0.000931171
0.000415579
0.000197748
0.000106166
6.37108e-05