/*--------------------------------*- C++ -*----------------------------------*\
| =========                 |                                                 |
| \\      /  F ield         | OpenFOAM: The Open Source CFD Toolbox           |
|  \\    /   O peration     | Version:  plus.master                           |
|   \\  /    A nd           | Web:      www.OpenFOAM.com                      |
|    \\/     M anipulation  |                                                 |
\*---------------------------------------------------------------------------*/
FoamFile
{
    version     2.0;
    format      ascii;
    class       volScalarField;
    location    "11.6";
    object      nut;
}
// * * * * * * * * * * * * * * * * * * * * * * * * * * * * * * * * * * * * * //

dimensions      [0 2 -1 0 0 0 0];

internalField   nonuniform List<scalar> 
47285
(
3.85575e-05
7.39756e-05
0.000124042
0.000126309
8.7936e-05
4.75747e-05
2.52895e-05
6.60739e-05
6.90276e-05
0.000160796
0.00015612
0.000113351
5.12079e-05
5.12491e-05
0.000105039
0.000134971
0.000121309
0.000174874
9.34328e-05
0.000128847
9.89137e-05
0.000137144
0.000171497
0.000181795
0.000163308
0.000174759
0.000152472
0.000127065
0.000116426
0.000152417
0.000116464
0.000172667
0.000125891
0.000143414
0.000111273
7.06068e-05
6.9935e-05
0.000159483
0.0001592
0.000107545
6.59918e-05
6.4113e-05
4.05319e-05
7.46134e-05
0.000125532
0.000128261
8.94927e-05
5.9342e-05
3.24635e-05
1.91545e-05
4.04475e-05
7.01866e-05
6.13063e-05
3.25952e-05
1.74537e-05
3.09405e-05
3.55539e-05
9.42435e-05
0.000153078
0.000153547
9.50563e-05
4.31635e-05
1.76175e-05
6.75545e-05
0.00015276
0.000167041
0.000217665
0.000117868
8.71771e-05
3.11113e-05
9.24112e-05
0.000194442
0.000242436
0.000217777
0.00020322
0.000111206
4.14534e-05
8.17165e-05
0.000170633
0.000179607
0.000221064
0.000144837
0.000110026
4.42817e-05
4.42334e-05
0.000106206
0.000171906
0.00018384
0.000117288
6.31247e-05
2.36895e-05
2.2356e-05
4.76815e-05
8.49348e-05
7.9667e-05
4.61564e-05
2.2248e-05
1.93846e-05
3.58425e-05
5.48626e-05
8.20207e-05
7.30034e-05
3.93501e-05
3.0668e-05
6.25565e-05
5.55562e-05
0.000114383
0.000165477
0.000165945
9.81103e-05
4.15598e-05
3.18382e-05
9.37164e-05
0.000180492
0.000222703
0.000231834
0.000154662
7.48615e-05
2.79078e-05
0.000121141
0.000225769
0.000262076
0.000236852
0.000232349
0.000100451
3.33752e-05
0.000110469
0.000199889
0.000240985
0.000239721
0.000182987
9.97995e-05
3.89077e-05
7.17453e-05
0.000139317
0.000196158
0.000208769
0.000135647
6.51218e-05
2.98653e-05
4.21859e-05
7.35199e-05
0.000109231
0.000104509
6.37094e-05
3.26432e-05
4.28344e-05
6.61398e-05
6.55151e-05
8.77451e-05
7.91521e-05
4.78257e-05
5.96658e-05
0.000103899
7.02701e-05
0.000125744
0.000177056
0.000176632
0.000103088
4.74756e-05
6.45407e-05
0.000110978
0.000203115
0.00025444
0.000244921
0.000174823
7.43242e-05
3.8278e-05
0.000142455
0.000260297
0.000282824
0.000250846
0.00024791
9.90053e-05
3.4273e-05
0.000130518
0.000228648
0.000273915
0.000257821
0.000202539
9.50901e-05
4.17129e-05
9.03175e-05
0.000160399
0.000220583
0.000230548
0.000144794
6.73832e-05
5.12838e-05
6.72043e-05
9.01899e-05
0.000124572
0.000118425
7.38176e-05
5.0738e-05
8.49813e-05
8.16485e-05
6.82054e-05
8.34357e-05
7.5224e-05
5.11138e-05
7.53863e-05
0.00011484
7.36971e-05
0.000123389
0.000174384
0.000171594
9.94805e-05
5.05188e-05
8.10277e-05
0.000112972
0.000208933
0.000260243
0.000246795
0.000180205
7.16925e-05
4.63922e-05
0.000147268
0.00027947
0.000294033
0.000251568
0.000255632
9.54061e-05
3.58825e-05
0.000134393
0.000241112
0.0002848
0.000259299
0.000210734
8.8847e-05
4.48299e-05
9.34325e-05
0.000163986
0.000228847
0.00023411
0.000142134
6.48992e-05
6.49329e-05
7.84883e-05
9.23409e-05
0.000125606
0.000117765
7.37875e-05
6.13892e-05
0.000100761
1.8585e-05
1.77153e-05
1.76495e-05
1.73283e-05
1.70641e-05
1.68374e-05
1.66371e-05
1.6455e-05
2.77309e-05
1.98368e-05
1.78926e-05
1.71907e-05
1.67906e-05
1.64841e-05
1.62208e-05
1.59845e-05
5.29372e-05
2.79594e-05
1.93134e-05
1.73867e-05
1.67848e-05
1.64164e-05
1.6108e-05
1.5836e-05
7.23754e-05
3.78651e-05
2.19064e-05
1.77068e-05
1.68152e-05
1.64266e-05
1.61219e-05
1.5903e-05
6.10792e-05
3.22997e-05
2.06087e-05
1.77507e-05
1.70595e-05
1.66854e-05
1.64338e-05
1.623e-05
3.65999e-05
2.31965e-05
1.90177e-05
1.78043e-05
1.73125e-05
1.70138e-05
1.68088e-05
1.66353e-05
2.2671e-05
1.90961e-05
1.81759e-05
1.77621e-05
1.75726e-05
1.7403e-05
1.72489e-05
1.7082e-05
5.92304e-05
6.45719e-05
6.46126e-05
6.40006e-05
6.32253e-05
6.23391e-05
6.12749e-05
5.9945e-05
3.40009e-05
5.58083e-05
6.21213e-05
6.3344e-05
6.31444e-05
6.25084e-05
6.1624e-05
6.04395e-05
1.61812e-05
3.72326e-05
5.5382e-05
6.10222e-05
6.21585e-05
6.19829e-05
6.1323e-05
6.02742e-05
1.3064e-05
2.70314e-05
5.05303e-05
5.9484e-05
6.16026e-05
6.16883e-05
6.10858e-05
6.00403e-05
1.51824e-05
2.90015e-05
5.12832e-05
5.96779e-05
6.16359e-05
6.16782e-05
6.10416e-05
5.99215e-05
1.87661e-05
4.10313e-05
5.60462e-05
6.07205e-05
6.16499e-05
6.13813e-05
6.06133e-05
5.94268e-05
3.57515e-05
5.39121e-05
5.95741e-05
6.09903e-05
6.08858e-05
6.02233e-05
5.92244e-05
5.79014e-05
9.0203e-05
9.59227e-05
9.51965e-05
9.19738e-05
8.73804e-05
8.19678e-05
7.61977e-05
7.05722e-05
6.77048e-05
8.88379e-05
9.3664e-05
9.23294e-05
8.83433e-05
8.30155e-05
7.70662e-05
7.11458e-05
3.76495e-05
7.32039e-05
8.85492e-05
9.08938e-05
8.81548e-05
8.3205e-05
7.72623e-05
7.11887e-05
2.34098e-05
6.02959e-05
8.39187e-05
8.93692e-05
8.76354e-05
8.2991e-05
7.70997e-05
7.09895e-05
2.89813e-05
6.29786e-05
8.41791e-05
8.88736e-05
8.68783e-05
8.21452e-05
7.6261e-05
7.02167e-05
4.67227e-05
7.65918e-05
8.77791e-05
8.87389e-05
8.54985e-05
8.03999e-05
7.45412e-05
6.8707e-05
7.37595e-05
8.75403e-05
8.97371e-05
8.75331e-05
8.3234e-05
7.7875e-05
7.21227e-05
6.65568e-05
0.00012372
0.00012487
0.00012002
0.000113142
0.000106083
9.97414e-05
9.41973e-05
8.85901e-05
0.000108692
0.000122487
0.0001215
0.00011538
0.000107968
0.000101015
9.50112e-05
8.91471e-05
7.80642e-05
0.000112473
0.000119712
0.000116013
0.00010901
0.000101822
9.55059e-05
8.94199e-05
5.50231e-05
0.000102211
0.000116994
0.000115623
0.000109201
0.000102022
9.55626e-05
8.93321e-05
6.47753e-05
0.000105343
0.000117129
0.000114954
0.000108418
0.000101327
9.49494e-05
8.87217e-05
9.28995e-05
0.000115798
0.000118567
0.000113762
0.000106782
9.99028e-05
9.37696e-05
8.76426e-05
0.000115461
0.000121146
0.000117924
0.000111698
0.000104878
9.85488e-05
9.28475e-05
8.69476e-05
0.000124734
0.000118904
0.000108443
9.69329e-05
8.53989e-05
7.38074e-05
6.22628e-05
5.18055e-05
0.000117557
0.000121419
0.000112878
0.000100911
8.85332e-05
7.62126e-05
6.38905e-05
5.25936e-05
9.37637e-05
0.000116964
0.000114358
0.000103397
9.06942e-05
7.78495e-05
6.49291e-05
5.29923e-05
7.15259e-05
0.000110088
0.000113487
0.000103942
9.13536e-05
7.83362e-05
6.51891e-05
5.30245e-05
8.19977e-05
0.000112277
0.000112837
0.000102791
9.03162e-05
7.75091e-05
6.46035e-05
5.27128e-05
0.000106543
0.000117547
0.000111462
0.000100251
8.80567e-05
7.57356e-05
6.33988e-05
5.21433e-05
0.000120101
0.000117514
0.000108227
9.71451e-05
8.56993e-05
7.40193e-05
6.23278e-05
5.17607e-05
2.37085e-05
1.92041e-05
1.84628e-05
1.81839e-05
1.79894e-05
1.78303e-05
1.77e-05
1.75776e-05
3.80134e-05
2.30763e-05
1.88771e-05
1.76874e-05
1.71932e-05
1.68015e-05
1.65721e-05
1.63983e-05
6.50944e-05
3.66873e-05
2.25429e-05
1.7948e-05
1.67745e-05
1.61982e-05
1.58433e-05
1.54779e-05
7.80255e-05
4.3288e-05
2.42747e-05
1.79775e-05
1.64475e-05
1.58129e-05
1.53083e-05
1.48615e-05
5.65074e-05
3.19244e-05
2.07302e-05
1.76472e-05
1.67989e-05
1.63701e-05
1.59736e-05
1.5591e-05
3.31003e-05
2.10695e-05
1.8443e-05
1.75154e-05
1.71091e-05
1.68392e-05
1.65853e-05
1.63233e-05
2.29406e-05
1.88547e-05
1.80719e-05
1.77716e-05
1.76196e-05
1.75015e-05
1.73851e-05
1.72479e-05
3.48031e-05
5.39199e-05
5.87979e-05
5.99987e-05
5.99292e-05
5.92756e-05
5.82271e-05
5.67936e-05
2.19396e-05
3.39622e-05
4.99301e-05
5.66303e-05
5.86569e-05
5.89103e-05
5.84998e-05
5.77078e-05
3.18159e-05
2.05682e-05
3.61772e-05
4.97718e-05
5.474e-05
5.57036e-05
5.51665e-05
5.39888e-05
3.32692e-05
1.77232e-05
3.31012e-05
4.80252e-05
5.31843e-05
5.37964e-05
5.27314e-05
5.10859e-05
2.38447e-05
2.21956e-05
4.18838e-05
5.32788e-05
5.66854e-05
5.69681e-05
5.6097e-05
5.48101e-05
1.97596e-05
3.77104e-05
5.23589e-05
5.75312e-05
5.87398e-05
5.85308e-05
5.77865e-05
5.67181e-05
3.37164e-05
5.06561e-05
5.70417e-05
5.92574e-05
5.96215e-05
5.91861e-05
5.83098e-05
5.70694e-05
5.50431e-05
8.02842e-05
8.79064e-05
8.83087e-05
8.51716e-05
7.99987e-05
7.37748e-05
6.73789e-05
3.94396e-05
5.40922e-05
7.684e-05
8.59307e-05
8.69325e-05
8.40044e-05
7.90265e-05
7.32016e-05
4.88842e-05
3.38468e-05
5.75497e-05
7.74929e-05
8.40454e-05
8.38227e-05
8.03291e-05
7.52514e-05
4.95649e-05
2.74635e-05
5.03139e-05
7.34078e-05
8.12854e-05
8.13848e-05
7.78732e-05
7.26795e-05
3.93788e-05
3.74009e-05
6.54392e-05
8.12992e-05
8.51544e-05
8.34793e-05
7.90684e-05
7.33374e-05
3.68342e-05
6.18552e-05
8.12818e-05
8.69513e-05
8.6128e-05
8.21512e-05
7.65337e-05
7.03298e-05
6.00165e-05
8.23513e-05
8.8266e-05
8.82077e-05
8.49289e-05
7.97889e-05
7.37225e-05
6.75544e-05
9.43103e-05
0.000117049
0.000120285
0.000116447
0.000110083
0.00010335
9.69753e-05
9.04028e-05
6.55107e-05
9.30712e-05
0.000114159
0.00011856
0.000115476
0.000110113
0.000104644
9.90508e-05
6.45055e-05
6.24329e-05
9.62708e-05
0.000113697
0.00011633
0.000113452
0.000109553
0.000105678
6.32249e-05
4.87111e-05
8.5282e-05
0.000108637
0.000113367
0.000110726
0.000106367
0.000101892
5.63838e-05
6.9562e-05
0.000102878
0.000115568
0.000115818
0.000111753
0.000107091
0.000102591
6.82085e-05
0.000102565
0.000117474
0.000118443
0.00011402
0.000108236
0.00010276
9.7379e-05
0.000103741
0.000119896
0.000120166
0.000115374
0.000108861
0.000102323
9.62891e-05
9.01217e-05
0.000108258
0.000119159
0.00011315
0.000102253
8.99061e-05
7.70442e-05
6.41819e-05
5.25904e-05
7.88858e-05
0.000106722
0.000115867
0.000109675
9.82851e-05
8.51245e-05
7.11141e-05
5.77238e-05
7.02523e-05
7.96699e-05
0.00010864
0.000112945
0.000104969
9.30801e-05
7.93076e-05
6.52439e-05
6.66029e-05
6.32588e-05
0.000100695
0.000111673
0.000105667
9.47753e-05
8.2151e-05
6.92273e-05
6.40463e-05
8.65722e-05
0.000112076
0.000113145
0.000104292
9.2467e-05
7.92285e-05
6.5862e-05
8.46857e-05
0.000113495
0.000117047
0.000109181
9.77838e-05
8.51912e-05
7.18646e-05
5.902e-05
0.000115336
0.000119827
0.0001121
0.000101132
8.92605e-05
7.69854e-05
6.45987e-05
5.32641e-05
2.5936e-05
1.97264e-05
1.79738e-05
1.74597e-05
1.73838e-05
1.73415e-05
1.72364e-05
1.71121e-05
4.39298e-05
2.58715e-05
1.88307e-05
1.67856e-05
1.61984e-05
1.59059e-05
1.58129e-05
1.57713e-05
6.87666e-05
3.71505e-05
2.13795e-05
1.66012e-05
1.53925e-05
1.47887e-05
1.42508e-05
1.37837e-05
7.07279e-05
3.70308e-05
2.11387e-05
1.68439e-05
1.57384e-05
1.50794e-05
1.45434e-05
1.4101e-05
4.53281e-05
2.48289e-05
1.84789e-05
1.69174e-05
1.63168e-05
1.58799e-05
1.55456e-05
1.52122e-05
2.42124e-05
1.82735e-05
1.76892e-05
1.71519e-05
1.68009e-05
1.65082e-05
1.62368e-05
1.60412e-05
1.80934e-05
1.74988e-05
1.75919e-05
1.73353e-05
1.7103e-05
1.6929e-05
1.67771e-05
1.65951e-05
2.55966e-05
4.67894e-05
5.64237e-05
5.99534e-05
6.094e-05
6.083e-05
6.01024e-05
5.8863e-05
1.84644e-05
2.8806e-05
4.71595e-05
5.57111e-05
5.84476e-05
5.90841e-05
5.89861e-05
5.84769e-05
2.24457e-05
1.99621e-05
3.9547e-05
5.07329e-05
5.36112e-05
5.35e-05
5.25183e-05
5.13051e-05
1.72671e-05
2.0475e-05
4.22668e-05
5.22246e-05
5.40388e-05
5.32046e-05
5.1606e-05
4.97289e-05
1.64288e-05
3.66068e-05
5.29205e-05
5.75767e-05
5.7909e-05
5.7002e-05
5.57721e-05
5.43359e-05
3.5648e-05
5.62655e-05
6.0902e-05
6.13706e-05
6.07492e-05
5.98392e-05
5.87985e-05
5.75174e-05
6.0408e-05
6.44136e-05
6.4005e-05
6.31877e-05
6.2315e-05
6.14062e-05
6.03585e-05
5.90801e-05
5.46513e-05
7.98426e-05
8.78206e-05
8.85885e-05
8.57951e-05
8.10482e-05
7.5326e-05
6.94358e-05
3.30371e-05
5.59814e-05
7.84396e-05
8.61935e-05
8.64373e-05
8.3214e-05
7.82816e-05
7.2747e-05
3.05862e-05
3.65491e-05
6.60094e-05
7.97369e-05
8.22394e-05
8.00413e-05
7.57886e-05
7.08288e-05
2.39506e-05
3.47619e-05
6.60473e-05
7.85618e-05
7.9831e-05
7.66258e-05
7.15032e-05
6.57071e-05
2.96475e-05
6.21192e-05
8.15233e-05
8.60666e-05
8.45007e-05
8.02457e-05
7.46546e-05
6.8649e-05
6.57196e-05
8.75817e-05
9.19425e-05
9.06945e-05
8.68647e-05
8.15896e-05
7.55439e-05
6.93997e-05
9.07593e-05
9.58401e-05
9.48713e-05
9.15815e-05
8.69363e-05
8.14607e-05
7.56183e-05
6.99219e-05
0.0001017
0.000118239
0.00011902
0.000114401
0.00010803
0.000101623
9.56763e-05
8.95326e-05
6.6059e-05
0.000100081
0.000114549
0.000114987
0.000110185
0.000104179
9.84403e-05
9.25863e-05
4.68127e-05
7.50378e-05
0.000104113
0.00011106
0.000108471
0.000103389
9.84699e-05
9.36664e-05
3.77917e-05
6.95494e-05
0.000101588
0.000108909
0.000106148
0.00010097
9.62528e-05
9.19706e-05
5.90668e-05
9.92164e-05
0.000113593
0.000113299
0.000107954
0.000101725
9.61891e-05
9.09272e-05
0.000104185
0.000120375
0.000120353
0.000114921
0.000107912
0.000101161
9.52609e-05
8.94805e-05
0.000123822
0.00012488
0.000119953
0.000113084
0.00010604
9.97005e-05
9.41474e-05
8.85314e-05
0.000112829
0.000117749
0.000110519
9.96987e-05
8.78606e-05
7.5594e-05
6.3287e-05
5.21655e-05
8.36674e-05
0.000110044
0.000112059
0.000103364
9.15623e-05
7.88182e-05
6.56997e-05
5.35537e-05
5.80306e-05
9.25061e-05
0.000108431
0.000104038
9.33344e-05
8.09253e-05
6.77056e-05
5.50305e-05
4.799e-05
8.69581e-05
0.000106834
0.000103427
9.29922e-05
8.0834e-05
6.78292e-05
5.52144e-05
7.54684e-05
0.00010843
0.000112264
0.000103856
9.2106e-05
7.95017e-05
6.63652e-05
5.39102e-05
0.000113979
0.000120438
0.000112984
0.000101562
8.93631e-05
7.69794e-05
6.44274e-05
5.28147e-05
0.000124641
0.000118789
0.000108315
9.68598e-05
8.53843e-05
7.38379e-05
6.23105e-05
5.18243e-05
2.06575e-05
1.84289e-05
1.79477e-05
1.76403e-05
1.74187e-05
1.72232e-05
1.70328e-05
1.68798e-05
2.84567e-05
1.98622e-05
1.8373e-05
1.77201e-05
1.72777e-05
1.68744e-05
1.64991e-05
1.6158e-05
4.67169e-05
2.66951e-05
1.97033e-05
1.78286e-05
1.71183e-05
1.65576e-05
1.60917e-05
1.5644e-05
7.23022e-05
3.95999e-05
2.30984e-05
1.8167e-05
1.69031e-05
1.61784e-05
1.55658e-05
1.50719e-05
7.18987e-05
3.9384e-05
2.35369e-05
1.81825e-05
1.66727e-05
1.60111e-05
1.55147e-05
1.50896e-05
4.51884e-05
2.79004e-05
2.01961e-05
1.78819e-05
1.71765e-05
1.67755e-05
1.64797e-05
1.62228e-05
2.62888e-05
2.03583e-05
1.87205e-05
1.82107e-05
1.79455e-05
1.7762e-05
1.76187e-05
1.74968e-05
4.53894e-05
5.6925e-05
5.97954e-05
6.02032e-05
5.96667e-05
5.87865e-05
5.77223e-05
5.64684e-05
2.42207e-05
4.76403e-05
5.69009e-05
5.89548e-05
5.86265e-05
5.75776e-05
5.62818e-05
5.48324e-05
1.71986e-05
2.89289e-05
4.84609e-05
5.58922e-05
5.71164e-05
5.61829e-05
5.45194e-05
5.25823e-05
2.57365e-05
1.78997e-05
3.76868e-05
5.1018e-05
5.46906e-05
5.43367e-05
5.2576e-05
5.03359e-05
3.18e-05
2.00804e-05
3.5677e-05
4.90499e-05
5.37467e-05
5.43217e-05
5.33483e-05
5.18545e-05
2.27997e-05
2.79429e-05
4.51207e-05
5.45394e-05
5.76993e-05
5.81987e-05
5.76982e-05
5.67578e-05
3.06759e-05
5.43688e-05
5.95397e-05
6.05686e-05
6.0481e-05
5.98302e-05
5.87621e-05
5.7281e-05
7.87315e-05
8.97692e-05
9.04302e-05
8.79092e-05
8.35798e-05
7.82065e-05
7.23799e-05
6.66788e-05
4.5681e-05
7.68436e-05
8.67662e-05
8.76991e-05
8.48826e-05
8.01567e-05
7.44306e-05
6.84754e-05
2.87957e-05
4.55034e-05
7.27472e-05
8.30572e-05
8.40555e-05
8.09521e-05
7.57869e-05
6.96614e-05
4.00306e-05
2.65542e-05
5.39403e-05
7.48734e-05
8.09013e-05
7.99238e-05
7.5766e-05
7.01742e-05
4.72366e-05
3.16507e-05
5.51321e-05
7.55908e-05
8.23384e-05
8.20374e-05
7.83984e-05
7.32097e-05
3.92586e-05
5.00386e-05
7.37888e-05
8.45594e-05
8.63548e-05
8.379e-05
7.90306e-05
7.33939e-05
5.42809e-05
8.11832e-05
8.845e-05
8.86937e-05
8.55822e-05
8.04765e-05
7.43056e-05
6.79306e-05
0.000117264
0.000123073
0.000119825
0.000113846
0.000107261
0.000101147
9.57044e-05
9.01487e-05
8.49054e-05
0.000114247
0.000120061
0.000117502
0.000112063
0.000106311
0.00010128
9.64762e-05
4.79177e-05
8.03326e-05
0.00010782
0.000114927
0.000112846
0.000107939
0.000103074
9.86071e-05
5.19095e-05
4.94555e-05
8.79391e-05
0.00010786
0.000110812
0.000107467
0.000102914
9.84482e-05
6.10682e-05
5.99159e-05
9.37428e-05
0.000111111
0.000113641
0.000110693
0.000106803
0.000103014
6.40478e-05
9.01371e-05
0.000112082
0.000117198
0.000114456
0.000109303
0.000104032
9.86607e-05
9.34965e-05
0.000116775
0.00012013
0.000116344
0.000110041
0.000103378
9.70852e-05
9.06092e-05
0.000122115
0.00011955
0.000110191
9.92989e-05
8.80735e-05
7.65439e-05
6.48298e-05
5.39723e-05
0.00010095
0.000119609
0.000116765
0.000107327
9.61387e-05
8.43045e-05
7.18245e-05
5.96722e-05
5.99921e-05
9.63951e-05
0.000113729
0.000111033
0.000101523
9.01396e-05
7.77023e-05
6.51597e-05
5.62287e-05
6.6891e-05
0.00010248
0.000109965
0.00010319
9.25305e-05
8.04285e-05
6.8066e-05
6.67893e-05
7.87119e-05
0.00010703
0.000110927
0.000103088
9.16468e-05
7.84042e-05
6.48151e-05
7.75189e-05
0.000104922
0.000114656
0.000108872
9.77804e-05
8.48805e-05
7.10807e-05
5.78349e-05
0.00010743
0.000118772
0.000112979
0.000102177
8.99075e-05
7.71151e-05
6.43028e-05
5.27301e-05
1.6275e-05
1.5793e-05
1.56161e-05
1.57563e-05
1.60434e-05
1.64734e-05
1.69043e-05
5.82866e-05
5.88655e-05
5.87653e-05
5.85135e-05
5.83202e-05
5.78175e-05
5.62447e-05
6.5572e-05
6.5945e-05
6.58598e-05
6.56272e-05
6.49028e-05
6.35761e-05
6.16451e-05
8.13127e-05
8.14342e-05
8.13576e-05
8.1094e-05
8.05142e-05
7.96422e-05
7.93305e-05
4.26341e-05
4.26343e-05
4.25575e-05
4.24829e-05
4.24212e-05
4.23904e-05
4.2654e-05
1.74502e-05
1.61846e-05
1.50365e-05
1.45038e-05
1.52578e-05
1.61334e-05
1.71037e-05
5.49805e-05
5.66769e-05
5.26338e-05
4.92752e-05
5.32977e-05
5.54023e-05
5.54657e-05
6.15565e-05
6.76676e-05
7.00512e-05
6.73703e-05
6.7648e-05
6.45953e-05
6.19857e-05
8.21228e-05
9.14815e-05
0.000100093
9.57533e-05
9.64987e-05
9.01746e-05
8.22709e-05
4.286e-05
4.59172e-05
5.13405e-05
5.54487e-05
5.23757e-05
4.72568e-05
4.34902e-05
1.69934e-05
1.56859e-05
1.34372e-05
1.3754e-05
1.48561e-05
1.58711e-05
1.64055e-05
5.71395e-05
5.76304e-05
4.99621e-05
4.76904e-05
5.27451e-05
5.59056e-05
5.74982e-05
6.4038e-05
6.75994e-05
6.63489e-05
6.04941e-05
6.32617e-05
6.39242e-05
6.4869e-05
8.16784e-05
8.47542e-05
8.67597e-05
8.57388e-05
8.36527e-05
8.18346e-05
8.12436e-05
4.26794e-05
4.30433e-05
4.36574e-05
4.36216e-05
4.28618e-05
4.2615e-05
4.25962e-05
1.67162e-05
1.59145e-05
1.52149e-05
1.46311e-05
1.4724e-05
1.59436e-05
1.73606e-05
5.49729e-05
5.32496e-05
5.05651e-05
4.80532e-05
5.02587e-05
5.5603e-05
5.53839e-05
6.16243e-05
6.31675e-05
6.37709e-05
6.45998e-05
6.79429e-05
6.80829e-05
6.20945e-05
8.28532e-05
8.99075e-05
9.25969e-05
9.23621e-05
9.76029e-05
9.13391e-05
8.24401e-05
4.43168e-05
4.81195e-05
5.22108e-05
5.47377e-05
5.11716e-05
4.60354e-05
4.29672e-05
1.60851e-05
1.56222e-05
1.49645e-05
1.4237e-05
1.34357e-05
1.25935e-05
1.17334e-05
1.08547e-05
1.56193e-05
1.52608e-05
1.47247e-05
1.40053e-05
1.32409e-05
1.24281e-05
1.159e-05
1.07279e-05
1.54361e-05
1.51028e-05
1.4614e-05
1.39213e-05
1.3173e-05
1.23738e-05
1.15455e-05
1.06894e-05
1.56208e-05
1.52716e-05
1.47464e-05
1.40988e-05
1.33212e-05
1.24408e-05
1.15757e-05
1.07143e-05
1.58729e-05
1.55105e-05
1.494e-05
1.41998e-05
1.34206e-05
1.25942e-05
1.17452e-05
1.08737e-05
1.63282e-05
1.59429e-05
1.53255e-05
1.45401e-05
1.37207e-05
1.28732e-05
1.20051e-05
1.11172e-05
1.67258e-05
1.62381e-05
1.55817e-05
1.48232e-05
1.3995e-05
1.31381e-05
1.22632e-05
1.13701e-05
5.60617e-05
5.26335e-05
4.95926e-05
4.63265e-05
4.22254e-05
3.71807e-05
3.14189e-05
2.5344e-05
5.67444e-05
5.3249e-05
4.98101e-05
4.62592e-05
4.19322e-05
3.67694e-05
3.09975e-05
2.50133e-05
5.67259e-05
5.32822e-05
4.97661e-05
4.61382e-05
4.17639e-05
3.6588e-05
3.08312e-05
2.48819e-05
5.65232e-05
5.32228e-05
4.99157e-05
4.62831e-05
4.1793e-05
3.65542e-05
3.07777e-05
2.48289e-05
5.62532e-05
5.30157e-05
4.9954e-05
4.66317e-05
4.23728e-05
3.71743e-05
3.1308e-05
2.52029e-05
5.57723e-05
5.28692e-05
5.02646e-05
4.72696e-05
4.32013e-05
3.80434e-05
3.20937e-05
2.58114e-05
5.41551e-05
5.15587e-05
4.9472e-05
4.6947e-05
4.33223e-05
3.85114e-05
3.27627e-05
2.6499e-05
6.0765e-05
5.57451e-05
5.42757e-05
5.21291e-05
4.80588e-05
4.21483e-05
3.50189e-05
2.75126e-05
6.11853e-05
5.61258e-05
5.44359e-05
5.20161e-05
4.76629e-05
4.15322e-05
3.43008e-05
2.68365e-05
6.11461e-05
5.61369e-05
5.44345e-05
5.19428e-05
4.75075e-05
4.13196e-05
3.40721e-05
2.66305e-05
6.09501e-05
5.60421e-05
5.44674e-05
5.20288e-05
4.75951e-05
4.13756e-05
3.40903e-05
2.66234e-05
6.02553e-05
5.57985e-05
5.45821e-05
5.24204e-05
4.81982e-05
4.20857e-05
3.47825e-05
2.71904e-05
5.89882e-05
5.52758e-05
5.4501e-05
5.2753e-05
4.8907e-05
4.3052e-05
3.58312e-05
2.81395e-05
5.70859e-05
5.38218e-05
5.32732e-05
5.19142e-05
4.86393e-05
4.34313e-05
3.67687e-05
2.93731e-05
7.2183e-05
6.13347e-05
5.54848e-05
5.30514e-05
4.9885e-05
4.46866e-05
3.77746e-05
3.0127e-05
7.22392e-05
6.14487e-05
5.55908e-05
5.30417e-05
4.96727e-05
4.42468e-05
3.71668e-05
2.94765e-05
7.21061e-05
6.13912e-05
5.55891e-05
5.30194e-05
4.95856e-05
4.40962e-05
3.69858e-05
2.93057e-05
7.1836e-05
6.12474e-05
5.55894e-05
5.31006e-05
4.96938e-05
4.41994e-05
3.70677e-05
2.93651e-05
7.13108e-05
6.0931e-05
5.55463e-05
5.33159e-05
5.01521e-05
4.48487e-05
3.78001e-05
3.00529e-05
7.05089e-05
6.03427e-05
5.52252e-05
5.32979e-05
5.05114e-05
4.559e-05
3.88045e-05
3.11174e-05
7.01529e-05
5.97073e-05
5.4262e-05
5.21758e-05
4.96152e-05
4.53086e-05
3.93267e-05
3.23055e-05
4.83317e-05
5.20494e-05
5.1575e-05
5.12724e-05
4.95347e-05
4.55123e-05
3.94963e-05
3.24779e-05
4.83774e-05
5.21768e-05
5.17026e-05
5.13218e-05
4.94543e-05
4.5279e-05
3.91406e-05
3.20755e-05
4.82737e-05
5.21507e-05
5.16996e-05
5.1294e-05
4.93817e-05
4.51643e-05
3.90108e-05
3.1964e-05
4.8174e-05
5.21314e-05
5.17397e-05
5.13717e-05
4.9481e-05
4.52688e-05
3.91108e-05
3.2058e-05
4.79348e-05
5.19226e-05
5.16326e-05
5.14196e-05
4.97179e-05
4.56887e-05
3.96556e-05
3.26391e-05
4.74841e-05
5.14006e-05
5.1183e-05
5.1159e-05
4.97477e-05
4.60593e-05
4.03186e-05
3.34589e-05
4.70113e-05
5.04843e-05
4.99077e-05
4.96866e-05
4.83598e-05
4.51271e-05
4.01195e-05
3.4001e-05
1.73085e-05
1.68995e-05
1.6233e-05
1.54078e-05
1.45179e-05
1.36096e-05
1.27006e-05
1.17961e-05
1.59766e-05
1.55638e-05
1.51909e-05
1.46791e-05
1.39982e-05
1.32418e-05
1.24401e-05
1.16213e-05
1.47072e-05
1.4174e-05
1.36785e-05
1.31558e-05
1.26036e-05
1.20147e-05
1.14271e-05
1.07684e-05
1.41861e-05
1.35649e-05
1.29623e-05
1.23291e-05
1.1706e-05
1.10947e-05
1.05163e-05
9.92048e-06
1.49117e-05
1.42885e-05
1.37346e-05
1.31281e-05
1.25114e-05
1.18824e-05
1.12606e-05
1.06036e-05
1.59709e-05
1.55051e-05
1.50314e-05
1.43929e-05
1.36317e-05
1.28281e-05
1.20347e-05
1.12402e-05
1.69192e-05
1.64965e-05
1.58592e-05
1.50671e-05
1.41993e-05
1.33096e-05
1.24064e-05
1.15064e-05
5.26768e-05
5.02304e-05
4.88266e-05
4.73707e-05
4.49617e-05
4.13109e-05
3.64821e-05
3.07164e-05
5.51378e-05
5.2954e-05
5.00651e-05
4.68902e-05
4.33265e-05
3.92152e-05
3.45502e-05
2.94402e-05
5.07379e-05
4.81493e-05
4.51725e-05
4.18781e-05
3.82005e-05
3.4189e-05
2.9791e-05
2.51791e-05
4.68993e-05
4.35623e-05
4.00594e-05
3.65044e-05
3.29498e-05
2.92931e-05
2.55237e-05
2.18104e-05
5.1221e-05
4.82176e-05
4.47463e-05
4.09701e-05
3.6824e-05
3.23896e-05
2.78411e-05
2.32936e-05
5.35648e-05
5.08792e-05
4.75959e-05
4.415e-05
4.03333e-05
3.61328e-05
3.15232e-05
2.64862e-05
5.33304e-05
5.04836e-05
4.83918e-05
4.62312e-05
4.32236e-05
3.91446e-05
3.40982e-05
2.83295e-05
5.60777e-05
5.23736e-05
5.19829e-05
5.13108e-05
4.91086e-05
4.5168e-05
3.97662e-05
3.33466e-05
6.23029e-05
5.71557e-05
5.48011e-05
5.27927e-05
4.96101e-05
4.51926e-05
3.98789e-05
3.39645e-05
6.47191e-05
5.99598e-05
5.66922e-05
5.30982e-05
4.86557e-05
4.35138e-05
3.79055e-05
3.19753e-05
6.18374e-05
5.61802e-05
5.16242e-05
4.6905e-05
4.18215e-05
3.65629e-05
3.13177e-05
2.62337e-05
6.19404e-05
5.6434e-05
5.23973e-05
4.81716e-05
4.32476e-05
3.78261e-05
3.21523e-05
2.63106e-05
5.9216e-05
5.41256e-05
5.1384e-05
4.91387e-05
4.58686e-05
4.15321e-05
3.63731e-05
3.05992e-05
5.67223e-05
5.22895e-05
5.14132e-05
5.01332e-05
4.7329e-05
4.29448e-05
3.73217e-05
3.09053e-05
7.19619e-05
6.01223e-05
5.36943e-05
5.12675e-05
4.89181e-05
4.52333e-05
4.01874e-05
3.42118e-05
8.14145e-05
6.85016e-05
5.99008e-05
5.52386e-05
5.10731e-05
4.62324e-05
4.08359e-05
3.51739e-05
9.20918e-05
8.00538e-05
7.08839e-05
6.48421e-05
5.94527e-05
5.37241e-05
4.76057e-05
4.11442e-05
8.73285e-05
7.47546e-05
6.46661e-05
5.71548e-05
5.01514e-05
4.30469e-05
3.60762e-05
2.95462e-05
8.81975e-05
7.56323e-05
6.58256e-05
5.90965e-05
5.30152e-05
4.663e-05
3.98928e-05
3.2944e-05
8.0582e-05
6.79621e-05
5.91212e-05
5.406e-05
4.96316e-05
4.46813e-05
3.91996e-05
3.34751e-05
7.24589e-05
6.05304e-05
5.36167e-05
5.05032e-05
4.74899e-05
4.33667e-05
3.81911e-05
3.23318e-05
4.61706e-05
4.88783e-05
4.80261e-05
4.78133e-05
4.6701e-05
4.3901e-05
3.95562e-05
3.42608e-05
5.13204e-05
5.38901e-05
5.16601e-05
4.96104e-05
4.67178e-05
4.27918e-05
3.82782e-05
3.35938e-05
6.29989e-05
6.72891e-05
6.46602e-05
6.1672e-05
5.78544e-05
5.32018e-05
4.80415e-05
4.26031e-05
7.32444e-05
7.82129e-05
7.44478e-05
6.94392e-05
6.30827e-05
5.53637e-05
4.66876e-05
3.76946e-05
6.55713e-05
7.03091e-05
6.74057e-05
6.38282e-05
5.93339e-05
5.38753e-05
4.75868e-05
4.0719e-05
5.39999e-05
5.6787e-05
5.40024e-05
5.1225e-05
4.77511e-05
4.34801e-05
3.87561e-05
3.38971e-05
4.73635e-05
4.99988e-05
4.84936e-05
4.73645e-05
4.53647e-05
4.20166e-05
3.76228e-05
3.26583e-05
1.68902e-05
1.65295e-05
1.58821e-05
1.50645e-05
1.41753e-05
1.32682e-05
1.23627e-05
1.14536e-05
1.55906e-05
1.53482e-05
1.51471e-05
1.468e-05
1.39728e-05
1.31385e-05
1.23061e-05
1.14522e-05
1.3169e-05
1.27553e-05
1.23898e-05
1.19427e-05
1.14972e-05
1.09838e-05
1.04465e-05
9.88634e-06
1.34654e-05
1.2863e-05
1.2322e-05
1.1726e-05
1.11637e-05
1.05801e-05
9.98265e-06
9.37721e-06
1.45674e-05
1.41015e-05
1.36502e-05
1.32233e-05
1.26444e-05
1.19467e-05
1.1187e-05
1.04192e-05
1.57398e-05
1.54995e-05
1.50035e-05
1.44003e-05
1.36067e-05
1.2736e-05
1.18662e-05
1.10086e-05
1.62081e-05
1.57785e-05
1.51814e-05
1.44334e-05
1.36033e-05
1.27407e-05
1.18668e-05
1.09814e-05
5.48182e-05
5.18998e-05
4.97208e-05
4.74333e-05
4.42373e-05
3.99177e-05
3.46007e-05
2.85972e-05
5.6332e-05
5.42886e-05
5.14144e-05
4.81208e-05
4.41038e-05
3.94207e-05
3.41098e-05
2.83968e-05
4.82824e-05
4.61422e-05
4.35557e-05
4.08877e-05
3.79406e-05
3.47309e-05
3.11135e-05
2.69966e-05
4.52229e-05
4.15358e-05
3.73101e-05
3.30694e-05
2.88232e-05
2.48009e-05
2.10335e-05
1.76074e-05
5.07596e-05
4.77552e-05
4.40621e-05
3.9985e-05
3.57638e-05
3.13613e-05
2.68495e-05
2.23126e-05
5.38517e-05
5.04282e-05
4.72476e-05
4.38613e-05
3.99019e-05
3.52695e-05
3.016e-05
2.47826e-05
5.53715e-05
5.20937e-05
4.91324e-05
4.59699e-05
4.19914e-05
3.70846e-05
3.14648e-05
2.54884e-05
5.88197e-05
5.46037e-05
5.38742e-05
5.26337e-05
4.96507e-05
4.48152e-05
3.85201e-05
3.13805e-05
6.27222e-05
5.77508e-05
5.60727e-05
5.37712e-05
4.96909e-05
4.40536e-05
3.74913e-05
3.06579e-05
6.23451e-05
5.92582e-05
5.61735e-05
5.29865e-05
4.85411e-05
4.31061e-05
3.72757e-05
3.15241e-05
5.59244e-05
5.20315e-05
4.84929e-05
4.41693e-05
3.92318e-05
3.39146e-05
2.84495e-05
2.30909e-05
5.84594e-05
5.37453e-05
4.99215e-05
4.64319e-05
4.18363e-05
3.64535e-05
3.08775e-05
2.5564e-05
5.8944e-05
5.37207e-05
5.16878e-05
4.91729e-05
4.50645e-05
3.95848e-05
3.3337e-05
2.69377e-05
6.0022e-05
5.49775e-05
5.35011e-05
5.14227e-05
4.7526e-05
4.18839e-05
3.50635e-05
2.7818e-05
7.19858e-05
6.07167e-05
5.48327e-05
5.27787e-05
5.04261e-05
4.62931e-05
4.03907e-05
3.33628e-05
7.50908e-05
6.34663e-05
5.67901e-05
5.37408e-05
5.0233e-05
4.4999e-05
3.84334e-05
3.13996e-05
7.76723e-05
6.61425e-05
5.84175e-05
5.38804e-05
4.89861e-05
4.2841e-05
3.61285e-05
2.96433e-05
7.74802e-05
6.65073e-05
5.84883e-05
5.27216e-05
4.69485e-05
4.11553e-05
3.58881e-05
3.12037e-05
7.44436e-05
6.26274e-05
5.45142e-05
4.95891e-05
4.44903e-05
3.85634e-05
3.24996e-05
2.69201e-05
7.24845e-05
6.10099e-05
5.41762e-05
5.07724e-05
4.69316e-05
4.15902e-05
3.52051e-05
2.85904e-05
7.20591e-05
6.10272e-05
5.49668e-05
5.23955e-05
4.92256e-05
4.41747e-05
3.75322e-05
3.01842e-05
4.70133e-05
5.03036e-05
4.98499e-05
4.99408e-05
4.89757e-05
4.59976e-05
4.10302e-05
3.475e-05
4.81217e-05
5.15178e-05
5.08748e-05
5.05362e-05
4.88785e-05
4.5069e-05
3.94016e-05
3.27824e-05
4.92506e-05
5.24663e-05
5.12263e-05
4.99125e-05
4.7012e-05
4.20756e-05
3.58546e-05
2.94064e-05
4.89885e-05
5.1834e-05
4.9694e-05
4.68901e-05
4.23848e-05
3.67354e-05
3.1345e-05
2.70706e-05
4.77123e-05
5.06993e-05
4.9212e-05
4.75005e-05
4.4166e-05
3.90197e-05
3.30121e-05
2.71912e-05
4.76864e-05
5.10733e-05
5.02141e-05
4.94279e-05
4.7195e-05
4.28851e-05
3.69939e-05
3.05092e-05
4.80963e-05
5.17107e-05
5.11656e-05
5.08151e-05
4.90658e-05
4.50982e-05
3.92101e-05
3.23546e-05
1.64878e-05
1.60676e-05
1.54887e-05
1.47714e-05
1.39721e-05
1.31386e-05
1.22949e-05
1.14335e-05
1.56783e-05
1.50993e-05
1.45179e-05
1.39146e-05
1.32624e-05
1.25791e-05
1.18596e-05
1.11021e-05
1.48291e-05
1.41647e-05
1.35703e-05
1.29748e-05
1.23686e-05
1.17513e-05
1.11148e-05
1.04651e-05
1.42293e-05
1.35092e-05
1.28468e-05
1.22247e-05
1.16083e-05
1.10096e-05
1.03937e-05
9.82203e-06
1.44147e-05
1.39051e-05
1.34162e-05
1.29229e-05
1.23925e-05
1.18442e-05
1.12656e-05
1.0655e-05
1.56806e-05
1.52088e-05
1.47286e-05
1.42674e-05
1.36927e-05
1.30388e-05
1.23417e-05
1.15932e-05
1.7215e-05
1.67968e-05
1.61168e-05
1.52815e-05
1.43915e-05
1.34965e-05
1.26093e-05
1.17202e-05
5.30345e-05
5.01312e-05
4.76128e-05
4.49203e-05
4.1447e-05
3.70537e-05
3.18676e-05
2.61459e-05
5.12464e-05
4.84626e-05
4.52879e-05
4.17599e-05
3.79695e-05
3.37927e-05
2.91771e-05
2.41555e-05
4.80483e-05
4.44331e-05
4.05109e-05
3.64524e-05
3.23942e-05
2.83819e-05
2.43025e-05
2.0067e-05
4.5254e-05
4.14413e-05
3.76464e-05
3.38704e-05
3.02033e-05
2.6643e-05
2.31753e-05
1.97755e-05
4.82106e-05
4.55957e-05
4.2683e-05
3.95139e-05
3.61725e-05
3.25915e-05
2.87647e-05
2.46034e-05
5.3968e-05
5.19013e-05
4.94072e-05
4.63974e-05
4.30386e-05
3.913e-05
3.45543e-05
2.93254e-05
5.29239e-05
5.02049e-05
4.86003e-05