/*--------------------------------*- C++ -*----------------------------------*\
| =========                 |                                                 |
| \\      /  F ield         | OpenFOAM: The Open Source CFD Toolbox           |
|  \\    /   O peration     | Version:  plus.master.MPPICInterFoam            |
|   \\  /    A nd           | Web:      www.OpenFOAM.com                      |
|    \\/     M anipulation  |                                                 |
\*---------------------------------------------------------------------------*/
FoamFile
{
    version     2.0;
    format      ascii;
    class       volScalarField;
    location    "9.4";
    object      alpha.water;
}
// * * * * * * * * * * * * * * * * * * * * * * * * * * * * * * * * * * * * * //

dimensions      [0 0 0 0 0 0 0];

internalField   nonuniform List<scalar> 
11822
(
0.9698
0.9644
0.961322
0.997699
1
0.999994
1
0.655588
0.639104
0.633398
0.801435
0.973423
1
1
0.508546
0.410782
0.456645
0.600162
0.86426
1
1
0.494547
0.412705
0.442719
0.519158
0.80675
1
1
0.559503
0.412187
0.4256
0.557785
0.810074
1
1
0.503558
0.405461
0.47611
0.607376
0.868008
1
1
0.718241
0.68007
0.64846
0.803314
0.979909
1
1
0.964476
0.958218
0.955796
0.996293
1
0.999994
1
0.590463
0.564493
0.569699
0.77228
0.969765
1
1
0.423456
0.410848
0.422957
0.508735
0.853633
1
1
0.413304
0.520984
0.51669
0.488359
0.780006
1
1
0.419107
0.521549
0.521129
0.500716
0.787891
1
1
0.44465
0.405815
0.421001
0.519373
0.863093
1
1
0.691062
0.638159
0.603429
0.788536
0.979405
1
1
0.964586
0.958334
0.955644
0.99565
1
0.999998
1
0.591442
0.558186
0.568146
0.774214
0.96821
1
1
0.411439
0.411172
0.41141
0.498246
0.855445
1
1
0.412385
0.521504
0.512014
0.445453
0.78197
1
1
0.411706
0.521858
0.521507
0.445598
0.790214
1
1
0.409737
0.409085
0.409537
0.509837
0.867532
1
1
0.695724
0.635289
0.602282
0.794952
0.980245
1
1
0.967558
0.963165
0.958963
0.995909
1
1
1
0.632544
0.594339
0.600101
0.793919
0.967701
1
1
0.436435
0.411439
0.411596
0.532166
0.864867
1
1
0.464084
0.475939
0.412137
0.427216
0.799964
1
1
0.446475
0.521636
0.470726
0.443305
0.807525
1
1
0.431065
0.42012
0.410785
0.546748
0.882505
1
1
0.734063
0.673553
0.646475
0.829062
0.983022
1
1
0.971111
0.968403
0.9614
0.996296
1
1
1
0.671038
0.632819
0.620571
0.809073
0.966181
1
1
0.528696
0.411624
0.411749
0.553784
0.866841
1
1
0.459738
0.411762
0.411857
0.43056
0.813327
0.999999
1
0.555841
0.488711
0.412232
0.462778
0.823604
0.999999
1
0.490681
0.417013
0.418574
0.598619
0.888742
1
1
0.779927
0.737483
0.719261
0.859604
0.984042
1
1
0.971786
0.968737
0.960735
0.996103
1
1
1
0.672496
0.640311
0.62401
0.807799
0.9625
1
1
0.526896
0.411662
0.412256
0.559222
0.86178
1
1
0.413375
0.427907
0.433842
0.487508
0.812889
1.00001
1
0.455229
0.409775
0.411446
0.556629
0.828133
0.999998
1
0.506902
0.413586
0.4511
0.627093
0.887051
1
1
0.805122
0.776936
0.744119
0.862144
0.983549
1
1
1
1
1
0.999999
1
0.999964
0.997482
0.997608
1
1
1
1
1
1
0.99998
0.999906
1
1
1
1
1
1
1
1
1
1
1
1
1
1
1
1
1
1
1
1
1
1
1
1
1
1
1
1
1
1
1
0.999957
1
1
1
1
1
1
0.999997
0.999403
1
1
1
0.999996
1
0.999689
0.998954
0.99676
1
1
1
1
1
1
0.999995
0.999909
1
1
1
1
1
1
1
1
1
1
1
1
1
1
1
1
1
1
1
1
1
1
1
1
1
1
1
1
1
1
1
0.999989
1
1
1
1
0.999999
1
1
0.999246
1
1
1
0.999996
1
0.998867
0.99939
0.996758
1
1
1
1
1
1
1
0.999919
1
1
1
1
1
1
1
1
1
1
1
1
1
1
1
1
1
1
1
1
1
1
1
1
1
1
1
1
1
1
1
1
1
1
1
1
0.999998
1
1
0.999318
1
1
1
0.999998
1
0.998536
0.999571
0.996728
1
1
1
1
1
1
1
0.999939
1
1
1
1
1
1
1
1
1
1
1
1
1
1
1
1
1
1
1
1
1
1
1
1
1
1
1
1
1
1
1
1
1
1
1
1
0.999998
0.999999
0.999999
0.999565
1
1
1
1
1
0.998714
0.999724
0.997184
1
1
1
1
1
1
1
0.99997
1
1
1
1
1
1
1
1
1
1
1
1
1
1
1
1
1
1
1
1
1
1
1
1
1
1
1
1
1
1
1
1
1
1
1
1
1
0.999958
0.999991
0.99982
1
1
1
1
0.999987
0.999072
0.99972
0.998546
1
1
1
1
1
1
1
0.999997
1
1
1
1
1
1
1
1
1
1
1
1
1
1
1
1
1
1
1
1
1
1
1
1
1
1
1
1
1
1
1
1
1
1
1
1
1
0.999938
0.999981
0.999974
0.959835
1
1
1
0.999941
0.999979
1
1
0.713062
0.972227
1
1
0.999723
0.999874
0.999999
1
0.679739
0.875841
1
1
0.998911
0.998751
0.99994
0.99994
0.666652
0.852653
1
1
0.999948
0.999725
0.999778
0.999833
0.666038
0.931262
1
1
1
0.999831
0.999924
0.999833
0.872823
0.996611
1
1
1
0.999995
1
0.999971
0.999379
0.999963
0.999996
1
1
1
1
1
0.959897
1
1
1
0.999969
0.999991
1
1
0.662448
0.970666
1
1
0.999973
0.999979
1
1
0.551267
0.850526
1
1
0.999562
0.999953
0.999997
0.999937
0.540728
0.817141
1
1
0.999935
0.999999
0.999993
0.999834
0.57254
0.917727
1
1
1
0.999926
0.999982
0.999834
0.854384
0.99551
1
1
1
0.999993
0.999999
0.999979
0.99931
0.99995
0.999998
1
1
1
1
1
0.963382
1
1
1
0.999997
0.999999
1
1
0.660778
0.973158
1
1
0.999983
0.999996
1
1
0.477431
0.849818
1
1
0.999999
1
1
0.999962
0.451157
0.814672
1
0.999999
0.999963
0.999999
1
0.999835
0.556752
0.918728
1
1
1
1
0.999999
0.99988
0.856052
0.995429
1
1
1
0.999994
0.999999
0.999993
0.999169
0.999943
0.999999
1
1
1
1
1
0.973772
1
1
0.99999
0.999996
1
1
1
0.699828
0.981499
1
0.999997
0.999952
0.999994
1
1
0.518831
0.870064
1
0.999999
1
1
1
0.999991
0.486875
0.838672
1
0.999999
0.999998
0.999998
1
0.999835
0.59524
0.930981
1
1
0.999994
0.999999
1
0.999974
0.87064
0.995972
1
1
0.999998
0.999999
1
1
0.999176
0.999943
1
1
1
1
1
1
0.984708
1
1
0.999976
0.999994
1
1
1
0.75805
0.990895
1
0.99997
0.999952
0.999992
1
1
0.603801
0.906614
1
0.999999
0.999999
1
1
1
0.561773
0.881664
1
0.999999
0.999981
0.999997
1
0.999864
0.652517
0.949722
1
1
0.99997
0.999996
1
0.999999
0.888851
0.997101
1
1
0.999996
0.999999
1
1
0.999318
0.999951
1
1
1
1
1
1
0.985808
1
1
0.99998
0.999994
1
1
1
0.778292
0.995182
1
0.999952
0.999952
0.999991
1
1
0.605139
0.926055
1
0.999998
0.999998
1
1
1
0.565428
0.904377
1
0.999999
0.99997
0.999989
1
0.999968
0.660492
0.956641
1
1
0.99997
0.999991
1
0.999999
0.894618
0.998422
1
1
0.999996
0.999999
1
0.999999
0.999406
0.999964
1
1
1
1
1
1
1
1
0.999999
1
0.999998
1
0.999999
0.999987
1
1
1
1
0.999893
0.999674
1
1
1
1
1
1
0.999938
0.99984
0.99907
0.999689
1
1
1
1
1
1
0.998545
0.997273
1
1
1
0.999957
0.998402
0.999779
0.999676
0.999426
1
1
0.999993
0.99978
0.998402
0.999807
0.995979
0.999652
1
1
1
0.999921
0.999862
0.999545
0.995978
0.999345
1
1
1
1
0.999992
1
0.999999
0.999998
1
1
1
1
0.9998
0.999674
1
1
1
1
1
1
0.999925
0.999959
0.999097
0.997961
1
1
1
0.999999
1
1
0.997435
0.997272
1
1
1
0.999927
0.998405
0.999863
0.999626
0.999419
1
1
1
0.999399
0.998737
0.999851
0.995978
0.999676
1
1
1
0.999422
0.999941
0.998677
0.995978
0.999058
1
1
1
0.999974
0.999979
1
1
1
1
1
1
1
0.999734
0.999674
0.999998
1
1
1
1
1
0.999938
0.999998
0.999031
0.997272
1
1
0.999994
0.999998
0.999993
1
0.997304
0.997272
1
1
1
0.99993
0.999127
0.999936
0.999694
0.999667
1
1
1
0.999185
0.999607
0.99994
0.995978
0.999734
1
1
1
0.999244
0.999997
0.996911
0.995978
0.998272
1
1
1
0.999947
0.999966
0.999999
1
1
1
1
1
1
0.999758
0.999848
0.999963
0.999695
1
1
1
1
0.999971
1
0.998727
0.99727
1
1
0.999992
0.999999
0.999969
0.999986
0.998025
0.998542
1
1
1
0.999945
0.999965
0.999967
0.999749
0.999751
1
1
0.999997
0.999185
0.999828
0.999966
0.997767
0.999751
1
1
1
0.999476
1
0.996131
0.995978
0.996607
1
1
0.999999
0.999947
0.999963
0.999998
1
1
1
1
1
0.999992
0.999956
1
0.999793
0.997811
1
1
1
1
0.999997
1
0.998352
0.99727
1
1
0.999992
1
0.999969
0.999881
0.999544
0.998991
1
1
1
0.999905
0.99996
0.999923
0.99967
0.999334
1
1
1
0.999185
0.999823
0.998029
0.999512
0.99829
1
1
1
0.999835
0.999946
0.996141
0.996977
0.996582
0.999999
0.999999
0.999997
0.999947
0.999964
0.999993
1
1
1
0.999999
0.999999
0.999985
1
1
0.999614
0.997272
1
1
1
1
1
1
0.998557
0.99727
1
1
0.999992
1
0.999981
0.999826
0.999983
0.99794
1
1
1
0.999642
0.999706
0.999212
0.999491
0.996966
1
1
1
0.999187
0.999877
0.996334
0.998152
0.996584
1
1
0.999999
0.999981
1
0.996333
0.997724
0.996582
1
1
0.999999
1
1
0.999906
0.999607
0.999847
1
1
1
0.999995
1
0.999769
0.999302
0.99974
1
1
1
0.999994
0.999999
0.999989
0.999347
0.999299
0.997778
1
1
1
0.999971
0.999998
0.999982
1
0.96541
1
1
1
0.999999
0.999999
1
1
0.977154
1
1
1
1
1
1
0.999999
0.999275
1
1
1
1
0.999999
1
1
1
1
0.999999
1
0.999999
0.99993
0.99977
0.998804
0.999999
1
0.999999
0.999999
1
0.999715
0.999443
0.999823
1
1
1
0.999994
1
0.999945
0.999596
0.999299
0.996593
1
1
0.999999
0.999983
1
0.999852
0.999687
0.966292
1
1
1
0.999998
0.999999
1
1
0.97828
1
1
1
1
1
1
0.999999
0.997312
1
1
1
1
0.999999
1
1
0.999999
1
0.999999
1
0.999995
0.99997
0.999788
0.998071
0.999998
1
0.999999
1
1
0.999745
0.999843
0.999844
1
1
1
0.999994
1
0.999842
0.99984
0.999325
0.996881
1
1
0.999998
1
1
0.999751
0.999358
0.971165
1
1
1
0.999999
0.999996
1
1
0.982403
1
1
1
1
1
1
1
0.997375
1
1
1
1
1
1
1
0.999999
1
1
1
0.999984
0.999977
0.999781
0.99807
0.999997
1
0.999999
1
1
0.999864
0.999804
0.999404
1
1
1
0.999998
1
0.999825
0.999891
0.999867
0.998322
1
1
0.999998
1
1
0.999773
0.999358
0.982144
1
1
1
0.999999
0.999996
1
0.99999
0.991405
1
1
1
1
1
1
1
0.998847
1
1
1
1
1
1
1
1
1
1
1
0.999986
0.999915
0.999781
0.99807
0.999997
1
0.999999
1
0.999998
0.999934
0.999642
0.998151
1
1
1
1
1
0.999828
0.999713
0.999944
0.999835
1
1
1
1
0.999999
0.999897
0.999472
0.992018
1
1
1
0.999998
0.999997
1
0.999969
0.998922
1
1
1
1
0.999999
1
1
1
1
1
1
1
1
1
1
1
1
1
1
1
0.999894
0.999848
0.998192
0.999998
1
1
1
0.999993
0.999993
0.999639
0.998131
1
1
1
1
1
0.999879
0.999639
0.999764
1.00001
1
1
1
1
0.999979
0.999947
0.999887
0.994709
1
1
1
0.999998
0.999999
1
0.999961
1.00001
1
1
1
0.999999
0.999998
1
1
1.00001
1
1
1
1
1
1
1
1
0.999999
0.999994
0.999998
1
1
1
1
1
1
1
1
1
1
1
1
1
1
1
1
1
1
1
1
1
1
1
1
1
1
1
1
1
1
1
1
1
1
1
1
1
1
1
1
1
1
1
1
1
1
1
1
1
1
1
1
1
0.999993
0.999989
0.999997
1
1
1
1
1
1
1
1
1
1
1
1
1
1
1
1
1
1
1
1
1
1
1
1
1
1
1
1
1
1
1
1
1
1
1
1
1
1
1
1
1
1
1
1
1
1
1
1
1
1
1
1
0.999999
0.999987
0.999992
0.999999
1
1
1
1
1
1
1
1
1
1
1
1
1
1
1
1
1
1
1
1
1
1
1
1
1
1
1
1
1
1
1
1
1
1
1
1
1
1
1
1
1
1
1
1
1
1
1
1
1
1
1
1
0.999998
0.999992
0.999998
1
1
1
1
1
1
1
1
1
1
1
1
1
1
1
1
1
1
1
1
1
1
1
1
1
1
1
1
1
1
1
1
1
1
1
1
1
1
1
1
1
1
1
1
1
1
1
1
1
1
1
1
1
0.99997
0.999998
0.999999
1
1
1
0.999999
0.999999
1
1
1
1
1
1
0.999999
0.999999
1
1
1
1
1
1
0.999999
0.999999
1
1
1
1
1
1
0.999999
0.999999
1
1
1
1
1
1
0.999999
0.999999
1
1
1
1
1
1
0.999999
0.999999
1
1
1
1
1
1
0.999999
0.999999
0.999997
0.999998
0.999999
1
0.999994
0.999996
0.976704
0.924749
1
1
1
1
0.999994
0.999996
0.975805
0.92443
1
1
1
1
0.999995
0.999996
0.97396
0.922196
1
1
1
1
0.999995
0.999996
0.973215
0.920951
1
1
1
1
0.999995
0.999996
0.974957
0.921206
1
1
1
1
0.999995
0.999996
0.97902
0.919263
1
1
1
1
0.999995
0.999996
0.982247
0.926131
1
1
1
1
1
1
1
1
1
1
1
1
1
1
1
1
1
1
1
1
1
1
1
1
1
1
1
1
1
1
1
1
1
1
1
1
1
1
1
1
1
1
1
1
1
1
1
1
1
1
1
1
1
1
1
1
1
1
1
1
1
1
1
1
1
1
1
1
1
1
1
1
1
1
1
1
1
1
1
1
1
1
1
1
1
1
1
1
1
1
1
1
1
1
1
1
1
1
1
1
1
1
1
1
1
1
1
1
1
1
1
1
1
1
1
1
1
1
1
1
1
1
1
1
1
1
1
1
1
1
1
1
1
1
1
1
1
1
1
1
1
1
1
1
1
1
1
1
1
1
1
1
1
1
1
1
1
1
1
1
1
1
1
1
1
1
1
1
1
1
1
1
1
1
1
1
1
1
1
1
1
1
1
1
1
1
1
1
1
1
1
1
1
1
1
1
1
1
1
1
1
1
1
1
1
1
1
1
1
1
1
1
1
1
1
1
1
1
1
1
1
1
1
1
1
1
1
1
1
1
0.999999
0.999999
1
1
1
1
1
1
0.999999
0.999999
1
1
1
1
1
1
0.999999
0.999999
1
1
1
1
1
1
0.999999
0.999999
1
1
1
1
1
1
0.999999
0.999999
1
1
1
1
1
1
0.999999
0.999999
1
1
1
1
1
1
0.999999
0.999999
1
1
1
1
0.999999
0.999995
0.982493
0.913936
1
1
1
1
0.999999
0.999995
0.983108
0.91415
1
1
1
1
0.999999
0.999995
0.981133
0.913525
0.999992
1
1
1
0.999999
0.999995
0.975646
0.910349
0.999994
1
1
1
0.999999
0.999995
0.973266
0.914671
1
1
1
1
0.999999
0.999995
0.970671
0.916633
1
1
1
1
0.999998
0.999994
0.967855
0.915602
1
1
1
1
1
1
1
1
1
1
0.99991
0.999906
0.999992
1
1
1
1
0.999994
0.99988
0.99983
0.999986
1
1
1
1
1
0.999975
0.999988
0.999999
1
1
1
1
0.999992
0.999987
0.999995
1
1
1
1
1
0.999955
0.999811
0.999811
0.999965
1
1
1
1
0.999987
0.999873
0.999903
0.999992
1
1
1
1
1
1
1
1
1
1
1
1
0.999818
0.999557
0.99993
1
1
1
1
1
0.999711
0.999421
0.999829
1
1
1
1
0.999999
0.999964
0.999949
0.999987
1
1
1
1
0.999998
0.999985
0.999991
0.999998
1
1
1
1
0.999997
0.999832
0.999811
0.99988
0.999992
1
1
1
0.999999
0.999875
0.999811
0.999924
1
1
1
1
1
1
1
1
1
1
1
1
0.999973
0.999444
0.999612
0.999983
1
1
1
1
0.999971
0.999421
0.999421
0.999931
1
1
1
1
0.999995
0.99988
0.999944
0.999997
1
1
1
1
0.999998
0.999985
0.999997
1
1
1
1
1
0.999987
0.999832
0.99987
1
1
1
1
1
0.999993
0.999832
0.999889
0.999994
1
1
1
1
1
1
1
1
1
1
1
1
0.999836
0.999421
0.999888
1
1
1
1
1
0.99984
0.999421
0.999763
0.999997
1
1
1
1
0.999989
0.999853
0.99998
1
1
1
1
1
0.999998
0.999985
0.999998
1
1
1
1
1
0.999967
0.999908
1
1
1
1
1
1
0.999983
0.999902
1
1
1
1
1
1
0.999991
1
1
1
1
1
0.999999
0.999999
0.999724
0.99968
0.999934
1
1
1
0.999999
0.999999
0.999556
0.999528
0.999916
0.999999
1
1
0.999999
0.999999
0.999708
0.999909
0.999999
1
1
1
0.999999
0.999999
0.999929
0.999979
0.999999
1
1
1
0.999999
0.999999
0.999917
0.999999
1
1
1
1
0.999999
0.999999
0.999831
0.999992
1
1
1
1
0.999999
0.999999
1
1
1
1
0.999997
0.999994
0.968449
0.919052
0.999278
0.999901
0.99999
0.999999
0.999996
0.999994
0.973274
0.927048
0.999253
0.999848
0.999972
0.999999
0.999995
0.999994
0.978136
0.93772
0.99958
0.99998
0.999999
1
0.999994
0.999995
0.97962
0.937758
0.999869
0.999988
0.999999
1
0.999994
0.999995
0.977132
0.928294
0.999719
0.999999
1
1
0.999994
0.999996
0.976997
0.922468
0.999777
0.999991
1
1
0.999994
0.999996
0.977433
0.921238
1
1
1
1
1
1
1
1
1
1
1
1
1
1
1
1
1
1
1
1
1
1
1
1
1
1
1
1
1
1
1
1
1
1
1
1
1
1
1
1
1
1
1
1
1
1
1
1
1
1
1
1
1
1
1
1
1
1
1
1
1
1
1
1
1
1
1
1
1
1
1
1
1
1
1
1
1
1
1
1
1
1
1
1
1
1
1
1
1
1
1
1
1
1
1
1
1
1
1
1
1
1
1
1
1
1
1
1
1
1
1
1
1
1
1
1
1
1
1
1
1
1
1
1
1
1
1
1
1
1
1
1
1
1
1
1
1
1
1
1
1
1
1
1
1
1
1
1
1
1
1
1
1
1
1
1
1
1
1
1
1
1
1
1
1
1
1
1
1
1
1
1
1
1
1
1
1
1
1
1
1
1
1
1
1
1
1
1
1
1
1
1
1
1
1
1
1
1
1
1
1
1
1
1
1
1
1
1
1
1
1
1
1
1
1
1
1
1
1
1
1
1
1
1
1
1
1
1
1
1
0.999999
0.999999
1
1
1
1
1
1
0.999999
0.999999
1
1
1
1
1
1
0.999999
0.999999
1
1
1
1
1
1
0.999999
0.999999
1
1
1
1
1
1
0.999999
0.999999
1
1
1
1
1
1
0.999999
0.999999
1
1
1
1
1
1
0.999999
0.999999
1
1
1
1
0.999995
0.999996
0.981551
0.925848
1
1
1
1
0.999995
0.999996
0.980765
0.920036
1
1
1
1
0.999994
0.999996
0.980444
0.925
1
1
1
1
0.999994
0.999995
0.980045
0.925233
1
1
1
1
0.999995
0.999995
0.981682
0.924897
1
1
1
1
0.999997
0.999995
0.98268
0.921506
1
1
1
1
0.999998
0.999995
0.982917
0.917144
1
1
1
1
1
1
1
1
1
1
1
1
1
1
1
1
1
1
0.999918
1
1
1
1
1
1
1
0.999964
1
1
1
1
1
1
1
0.99999
1
1
1
1
1
1
1
0.999943
1
1
1
1
1
1
1
0.999936
1
1
1
1
1
1
1
0.999891
1
1
1
1
1
1
1
1
1
1
1
1
1
1
0.999867
0.999327
1
1
1
1
1
1
0.999995
0.999665
1
1
1
1
1
1
0.999999
0.999798
1
1
1
1
1
1
0.999901
0.999576
1
1
1
1
1
1
1
0.99948
1
1
1
1
1
1
1
0.999249
1
1
1
1
1
1
0.999999
1
1
1
1
1
1
1
0.993613
0.999065
1
1
1
1
1
1
0.994657
0.999468
1
1
1
1
1
1
0.995786
0.999644
1
1
1
1
1
1
0.993263
0.999365
1
1
1
1
1
1
0.993247
0.999239
1
1
1
1
1
1
0.993008
0.998949
1
1
1
0.998951
0.999769
0.995958
1
1
1
1
0.999289
0.994871
0.998762
0.995805
0.989921
0.99999
1
1
0.99935
0.995085
0.996894
0.991996
0.989921
0.99998
1
1
0.99931
0.99528
0.995964
0.986763
0.991797
0.999969
1
1
0.999966
0.994477
0.994883
0.985159
0.989173
0.999956
1
1
1
0.99208
0.992439
0.986103
0.984859
0.999939
1
1
1
0.993084
0.990901
0.98565
0.98241
0.999897
0.99634
0.990566
0.972008
0.965921
0.973014
0.972707
0.991065
0.989475
0.999072
0.994073
0.967025
0.972136
0.966003
0.963563
0.991241
0.990098
0.999872
0.998828
0.969227
0.976116
0.960542
0.957488
0.991282
0.987789
0.999992
0.999306
0.969834
0.976843
0.961454
0.955348
0.991337
0.987754
1
0.999422
0.970925
0.96984
0.962798
0.959926
0.991282
0.98691
0.994813
0.99866
0.977702
0.97095
0.974495
0.966571
0.989465
0.989365
0.992642
0.998826
0.980213
0.975716
0.972021
0.960863
0.984711
0.993121
0.885995
0.83908
0.916432
0.958602
0.950713
0.951681
0.913601
0.918388
0.904954
0.833239
0.94936
0.983062
0.940421
0.937957
0.937002
0.919506
0.915947
0.860747
0.946547
0.984259
0.946579
0.943454
0.939048
0.921229
0.926326
0.861872
0.946703
0.984444
0.95275
0.951881
0.938169
0.921118
0.932479
0.868428
0.932634
0.985599
0.965688
0.954418
0.94217
0.923546
0.902927
0.906955
0.901928
0.989043
0.984423
0.947859
0.934534
0.934499
0.8952
0.914066
0.914213
0.989137
0.981492
0.947417
0.944799
0.934324
1
1
1
1
1
1
1
1
1
1
1
1
1
1
1
1
1
1
1
1
1
1
1
1
1
1
1
1
1
1
1
1
1
1
1
1
1
1
1
1
1
1
1
1
1
1
1
1
1
1
1
1
1
1
1
1
1
1
1
1
1
1
1
1
1
1
1
1
1
1
1
1
1
1
1
1
1
1
1
1
1
1
1
1
1
1
1
1
1
1
1
1
1
1
1
1
1
1
1
1
1
1
1
1
1
1
1
1
1
1
1
1
1
1
1
1
1
1
1
1
1
1
1
1
1
1
1
1
1
1
1
1
1
1
1
1
1
1
1
1
1
1
1
1
1
1
1
1
1
1
1
1
1
1
1
1
1
1
1
1
1
1
1
1
1
1
1
1
1
1
1
0.998001
0.99775
0.997134
1
1
1
1
1
0.999314
0.998079
0.999173
1
1
1
1
1
0.999154
0.999864
1
1
1
1
1
1
0.999722
1
1
1
1
1
1
1
0.999928
1
1
1
1
1
1
1
0.999947
1
1
1
1
1
1
1
0.999959
1
1
1
1
0.999776
0.998698
0.985743
0.960189
0.975987
0.976976
0.989074
0.994034
1
0.999407
0.989801
0.962044
0.97273
0.980092
0.992268
0.9953
0.999997
1
0.991883
0.963378
0.984115
0.983851
0.99054
0.996972
1
1
0.990646
0.969082
0.986488
0.982564
0.99137
0.997915
1
1
0.988082
0.972796
0.987504
0.981478
0.991332
0.998305
1
1
0.983639
0.974417
0.988696
0.980049
0.990527
0.998284
1
1
0.978506
0.976741
0.989338
0.978403
0.990413
0.998124
0.895905
0.904678
0.861187
0.961037
0.972716
0.949599
0.909687
0.918877
0.895824
0.90248
0.861495
0.949554
0.969921
0.945683
0.908345
0.915272
0.891163
0.90481
0.864965
0.955015
0.959962
0.934655
0.911324
0.918099
0.89079
0.904293
0.873782
0.954011
0.950899
0.93478
0.916041
0.917649
0.886641
0.902616
0.880862
0.953374
0.947376
0.936151
0.919065
0.917656
0.892648
0.896526
0.883674
0.954335
0.944848
0.936697
0.9205
0.917497
0.902434
0.883344
0.885606
0.954757
0.939548
0.937643
0.920746
0.917933
1
1
1
1
1
1
1
1
1
1
1
1
1
1
1
1
1
1
1
1
1
1
1
1
1
1
1
1
1
1
1
1
1
1
1
1
1
1
1
1
1
1
1
1
1
1
1
1
1
1
1
1
1
1
1
1
1
1
1
1
1
1
1
1
1
1
1
1
1
1
1
1
1
1
1
1
1
1
1
1
1
1
1
1
1
1
1
1
1
1
1
1
1
1
1
1
1
1
1
1
1
1
1
1
1
1
1
1
1
1
1
1
1
1
1
1
1
1
1
1
1
1
1
1
1
1
1
1
1
1
1
1
1
1
1
1
1
1
1
1
1
1
1
1
1
1
1
1
1
1
1
1
1
1
1
1
1
1
1
1
1
1
1
1
1
1
1
1
1
1
1
0.999922
1
0.999816
1
1
1
1
1
0.999814
1
0.999481
1
1
1
1
1
0.99997
0.997205
0.99896
1
1
1
1
1
0.999676
0.99895
0.997299
1
1
1
1
1
0.999297
0.99996
0.998688
1
1
1
1
1
0.998357
0.999853
1
1
1
1
1
1
0.998408
0.999674
1
1
1
1
0.999761
0.97501
0.975018
0.989242
0.975437
0.989023
0.997365
1
0.998258
0.977162
0.966388
0.988584
0.97442
0.987233
0.996312
0.99926
0.98806
0.976652
0.958538
0.979347
0.976083
0.986171
0.994072
0.997093
0.985257
0.975513
0.962085
0.980939
0.972585
0.987445
0.993258
0.996904
0.990998
0.976638
0.964779
0.97418
0.976249
0.994378
0.992599
0.997737
0.989986
0.976808
0.96443
0.973672
0.976921
0.994002
0.992808
0.997475
0.989108
0.976134
0.963316
0.970116
0.977067
0.996494
0.992188
0.905313
0.872016
0.886328
0.952045
0.941111
0.939805
0.919531
0.918168
0.904285
0.869001
0.878563
0.943519
0.957984
0.943294
0.913848
0.918706
0.888018
0.867622
0.883525
0.923678
0.979346
0.953743
0.9047
0.918338
0.878021
0.870755
0.873153
0.943214
0.976721
0.952011
0.906187
0.919123
0.880422
0.851157
0.894702
0.95463
0.944582
0.943199
0.910341
0.917551
0.88453
0.839249
0.906443
0.96121
0.942477
0.930699
0.914891
0.91864
0.88101
0.839159
0.901241
0.958191
0.942112
0.931288
0.910731
0.916664
1
1
1
1
1
1
1
1
1
1
0.999705
1
1
1
1
1
1
1
0.999965
1
1
1
1
1
1
1
0.999979
1
1
1
1
1
1
1
0.99998
1
1
1
1
1
1
1
0.999999
1
1
1
1
1
1
1
1
1
1
1
1
1
1
1
1
1
1
1
1
1
1
0.999914
0.998742
1
1
1
1
1
1
1
0.999602
1
1
1
1
1
1
1
0.999904
1
1
1
1
1
1
1
0.999954
1
1
1
1
1
1
1
0.999998
1
1
1
1
1
1
1
1
1
1
1
1
1
1
1
1
1
1
1
1
1
1
0.989724
0.998343
1
1
1
1
1
1
0.99586
0.999364
1
1
1
1
0.999999
1
0.998951
0.999853
1
1
1
1
0.99998
1
0.999511
0.999934
1
1
1
1
0.999645
1
1
0.999996
1
1
1
1
0.999463
1
1
1
1
1
1
1
0.99999
1
1
1
1
1
1
0.990464
0.991341
0.985085
0.98241
0.999624
1
1
1
0.993732
0.992249
0.987239
0.982597
0.999973
1
1
1
0.996672
0.992237
0.98794
0.987377
0.999983
1
1
1
0.997197
0.992878
0.987491
0.989941
0.999992
1
1
1
0.995634
0.992523
0.987874
0.994251
0.999998
1
1
1
0.99607
0.994415
0.989369
0.99599
1
1
1
1
0.996812
0.995663
0.992471
0.998997
1
0.993283
0.99911
0.983366
0.975404
0.972747
0.963848
0.98804
0.994656
0.998784
1
0.977673
0.975409
0.97603
0.955199
0.984028
0.992869
1
1
0.973788
0.976383
0.979724
0.949503
0.980814
0.992673
1
1
0.972883
0.976803
0.982596
0.948172
0.980837
0.992183
1
1
0.970954
0.977743
0.989972
0.946113
0.975757
0.993626
0.999991
0.99993
0.971806
0.98082
0.994359
0.942315
0.972438
0.995753
0.999048
0.998445
0.979459
0.970277
0.990211
0.958207
0.980092
0.994333
0.898168
0.918033
0.907818
0.98922
0.982053
0.95097
0.945047
0.933847
0.91598
0.920512
0.916551
0.989261
0.984112
0.950198
0.945063
0.933061
0.930816
0.909416
0.924153
0.989319
0.987822
0.947867
0.940259
0.928201
0.931528
0.899044
0.923954
0.989373
0.988089
0.948372
0.935144
0.924498
0.921596
0.886749
0.933653
0.989438
0.987323
0.94565
0.930292
0.923806
0.908248
0.885325
0.932991
0.989487
0.985104
0.942376
0.927131
0.923701
0.898259
0.903747
0.877907
0.989599
0.989795
0.948769
0.915738
0.918947
0.969146
0.965914
0.956086
0.994085
0.999999
1
1
0.671134
0.653876
0.631324
0.798302
0.956976
1
1
0.499136
0.461899
0.435539
0.561526
0.849386
0.999995
1
0.412322
0.511333
0.555533
0.558737
0.804526
0.999993
1
0.409769
0.408624
0.455808
0.63494
0.820953
0.999873
1
0.496994
0.408117
0.435959
0.621328
0.881757
0.999996
1
0.802821
0.775751
0.737829
0.856836
0.981391
1
1
0.965307
0.963023
0.949825
0.994105
1.00003
1
1
0.64948
0.644106
0.615368
0.753377
0.945248
1
1
0.435311
0.424526
0.380428
0.488294
0.808552
0.999981
1
0.501817
0.533294
0.418336
0.452861
0.753303
0.999971
1
0.514783
0.504588
0.50869
0.459099
0.751184
0.999972
1
0.491905
0.372117
0.370709
0.495278
0.842188
0.999985
1
0.780688
0.759701
0.689668
0.820321
0.97714
1.00001
1
0.862737
0.887423
0.846618
0.900932
0.999805
0.999989
1
0.423374
0.452226
0.411985
0.462528
0.735942
0.999817
0.999991
0.358384
0.362085
0.365254
0.365784
0.515394
0.959532
0.999969
0.502356
0.535
0.365798
0.368492
0.47078
0.94032
0.99996
0.544791
0.590286
0.490223
0.372326
0.435575
0.91459
0.999962
0.385591
0.370707
0.370708
0.370666
0.510162
0.950088
0.999975
0.507311
0.519568
0.410208
0.481946
0.779169
0.999842
0.999996
0.405189
0.489409
0.442742
0.393578
0.436698
0.484101
0.518603
0.34563
0.341783
0.339791
0.332952
0.328189
0.426582
0.507666
0.35799
0.43391
0.472681
0.48762
0.332952
0.416516
0.556136
0.542499
0.590858
0.587902
0.48506
0.341485
0.434938
0.607729
0.522791
0.590858
0.590858
0.481998
0.346281
0.40252
0.585475
0.358516
0.453925
0.451255
0.490301
0.351632
0.357817
0.485589
0.359292
0.362058
0.366844
0.367789
0.368383
0.50866
0.5934
0.342921
0.304622
0.277697
0.185009
0.252766
0.299559
0.23631
0.50653
0.49722
0.5244
0.497415
0.211074
0.116247
0.310546
0.530186
0.534457
0.532607
0.529696
0.401571
0.108967
0.252908
0.531625
0.536817
0.530392
0.530859
0.422082
0.168729
0.242163
0.500513
0.515747
0.497099
0.513191
0.371879
0.217803
0.295325
0.358794
0.460049
0.432728
0.491726
0.431184
0.410419
0.473805
0.361802
0.417472
0.470751
0.490829
0.485568
0.385696
0.363483
0.0193174
0.0128901
0.00999147
0.00170819
-7.66871e-08
9.94013e-09
9.54855e-08
0.0649351
0.0710965
0.0649333
0.0399239
0.0033991
-3.61541e-08
3.63975e-08
0.0954321
0.109623
0.100581
0.0702746
0.0163604
-1.65179e-06
-2.88161e-10
0.102852
0.111804
0.0989738
0.076579
0.0216974
-5.01028e-06
2.94397e-09
0.09188
0.0780543
0.0704628
0.0602812
0.0206037
-8.81516e-07
2.158e-09
0.0760303
0.0699001
0.0635183
0.0493677
0.00480142
-9.96145e-08
6.42255e-09
0.0464288
0.0481163
0.0426279
0.0240338
-7.87579e-07
-1.58602e-09
2.67567e-08
5.24852e-12
5.60967e-12
6.34014e-12
7.4378e-12
-3.84531e-11
-5.42221e-11
7.75664e-08
4.76962e-12
5.06326e-12
5.57537e-12
6.34014e-12
7.4378e-12
-8.64804e-10
4.53903e-09
4.54996e-12
4.76962e-12
5.06326e-12
5.57537e-12
6.67606e-12
-1.88287e-10
1.29411e-10
4.40689e-12
4.71151e-12
5.18183e-12
5.65014e-12
6.55229e-12
7.50531e-13
-4.03962e-11
4.71151e-12
5.18183e-12
5.65014e-12
6.55229e-12
7.86314e-12
-1.69152e-10
6.54156e-12
1.06008e-11
8.43486e-12
7.21375e-12
8.9187e-12
9.5786e-12
-5.06546e-11
1.07525e-09
2.53218e-11
1.26761e-11
9.99847e-12
1.06341e-11
-1.11209e-10
-2.61315e-11
2.24335e-09
6.41929e-11
6.73821e-11
6.74288e-11
7.99144e-11
-5.00961e-11
3.89008e-07
1.274e-06
2.55488e-11
2.84538e-11
3.61757e-11
4.8431e-11
1.88818e-11
2.13289e-07
1.27544e-06
1.05046e-11
1.34805e-11
2.5395e-11
5.56073e-11
1.4943e-10
6.59909e-09
5.07096e-08
1.53878e-11
1.78218e-11
1.96938e-11
4.52357e-11
3.63253e-11
3.5429e-11
2.9711e-07
2.9618e-10
2.43179e-10
7.16739e-11
1.12281e-10
4.40982e-11
3.85083e-09
1.98074e-07
7.75227e-10
3.9531e-10
1.15793e-10
2.68493e-11
2.49381e-09
6.12595e-08
2.57307e-07
9.35754e-10
6.66609e-10
9.85843e-11
1.62207e-11
3.48263e-09
1.37887e-07
9.88278e-07
7.32164e-11
8.00375e-11
4.45057e-11
9.40439e-12
4.0961e-12
8.23004e-08
9.68975e-07
2.69495e-11
3.42633e-11
3.28202e-11
3.68776e-11
3.46597e-12
2.53613e-08
3.66021e-07
8.23896e-12
1.09192e-11
2.08671e-11
5.86787e-11
3.13957e-10
1.21737e-09
1.2145e-11
1.00954e-11
1.17863e-11
1.5882e-11
5.00529e-11
9.54927e-12
1.36626e-11
2.42591e-07
1.70561e-10
1.4786e-10
4.32252e-11
7.80215e-11
1.17743e-11
3.16579e-09
1.91215e-07
2.09163e-10
2.99279e-10
9.15339e-11
1.08772e-10
2.63416e-09
2.06736e-08
7.06054e-08
3.43052e-10
7.61688e-10
5.50961e-10
5.89575e-12
1.77905e-11
4.46556e-08
6.22851e-07
3.46747e-12
2.79265e-12
3.0289e-12
2.71961e-12
2.8332e-13
7.80682e-15
1.20692e-14
2.02415e-12
1.75182e-12
2.14997e-12
2.22849e-12
7.49914e-13
1.43743e-14
3.35751e-14
6.63256e-13
5.48386e-13
7.45038e-13
9.18918e-13
5.00672e-13
2.06647e-13
2.45445e-12
1.24272e-13
8.27422e-14
2.27104e-13
9.65876e-13
3.71809e-12
1.03341e-11
7.1526e-13
4.91428e-13
1.20746e-13
6.87859e-13
2.76217e-12
3.8391e-12
3.59999e-12
2.9469e-13
2.08637e-12
6.45038e-13
1.78567e-12
5.55838e-12
1.70011e-14
4.7002e-15
6.35071e-14
9.1892e-12
1.56019e-12
4.44079e-13
1.36493e-12
1.17307e-12
4.35776e-13
1.70142e-17
1
1
1
1
0.999999
0.999928
1
0.99973
1
1
1
1
1
1
1
1
1
1
1
1
1
1
1
1
1
1
1
1
1
1
1
1
1
1
1
1
1
1
1
1
1
1
1
1
1
1
1
1
1
1
1
1
1
0.999986
0.999995
1
1
1
1
1
1
0.999993
1
0.99986
1
1
1
1
1
1
1.00001
1.00002
1
1
1
1
1
1
1.00001
1.00002
1
1
1
1
1
1
1.00001
1.00002
1
1
1
1
1
1
1
1.00002
1
1
1
1
1
1
1
1.00002
1
1
1
1
1
1
0.999999
1
1
1
1
1
0.989591
0.90336
0.857961
0.893652
1
1
1
0.999969
0.994271
0.979909
0.957601
0.899104
0.999999
1
1
1
0.998822
0.986608
0.954813
0.880906
0.999999
1
1
1
0.999725
0.989777
0.960472
0.886333
0.999999
1
1
1
0.99976
0.991202
0.964577
0.893445
0.999999
1
1
1
0.999866
0.994207
0.974371
0.911675
1
1
0.999786
1
1
0.999823
0.997018
0.964806
0.687033
0.849695
0.857621
0.786866
0.516212
0.0883777
0.0465417
0.160501
0.627071
0.781694
0.773002
0.664482
0.490213
0.36319
0.257481
0.0774002
0.69464
0.854672
0.835801
0.739901
0.59117
0.421824
0.242613
0.0317183
0.758748
0.893171
0.864316
0.766239
0.619123
0.448534
0.263648
0.0410939
0.736027
0.869481
0.845277
0.754115
0.618681
0.461751
0.282491
0.05416
0.619132
0.733743
0.788814
0.740826
0.629801
0.498137
0.334939
0.0926093
0.46606
0.390614
0.523746
0.687684
0.682022
0.626181
0.504725
0.218108
0.0925577
0.0234658
-2.52274e-05
-3.3737e-06
-3.28928e-06
-1.87996e-07
-2.57652e-08
5.77087e-09
0.260996
0.0586121
-3.03045e-05
-6.03763e-07
-7.93414e-09
1.81089e-09
1.65283e-09
-3.51264e-09
0.288374
0.127826
-6.14885e-05
-1.04055e-06
-1.45178e-08
7.57533e-09
2.11285e-08
1.46556e-08
0.29647
0.170487
-9.30497e-05
-1.48095e-06
1.53577e-07
1.60508e-06
3.6161e-07
5.12026e-08
0.296386
0.128679
-7.07346e-05
-1.11129e-06
6.86863e-07
3.92009e-06
1.94524e-06
3.21794e-07
0.398676
0.182329
-0.000165462
-3.52332e-06
1.16488e-06
6.64388e-06
3.4252e-06
1.37588e-06
0.453785
0.340772
0.0553616
-6.25388e-05
-1.26914e-06
1.59215e-06
4.10678e-06
1.87742e-06
7.14545e-08
2.08453e-08
-6.12892e-09
1.45807e-09
1.34018e-09
6.85127e-10
1.17328e-09
2.69309e-09
1.17524e-07
1.27415e-08
-1.16723e-08
3.25812e-09
3.73652e-09
2.95764e-09
2.37937e-09
2.34692e-09
9.27384e-09
4.3152e-08
-2.99636e-08
1.33438e-09
2.07365e-09
3.44222e-09
2.74107e-09
2.39627e-09
3.04151e-08
6.3934e-08
1.05184e-07
2.76966e-08
3.51792e-09
2.167e-06
1.33274e-05
1.35559e-05
8.35449e-09
4.21598e-09
-2.20529e-08
3.28374e-08
1.48306e-08
2.58085e-05
4.99259e-05
0.000127955
1.56793e-09
3.04694e-09
4.89867e-08
3.54543e-08
2.25896e-08
2.5931e-05
3.77024e-05
0.000129334
1.1179e-07
4.5341e-08
4.68652e-08
2.80909e-08
2.49763e-08
1.82938e-07
1.82526e-05
2.24879e-05
9.39621e-07
9.60164e-07
5.75729e-07
1.93506e-07
2.70659e-07
5.78818e-07
9.921e-07
9.95818e-07
2.22107e-07
4.63375e-07
3.04141e-07
1.55976e-08
1.11549e-08
3.45924e-08
4.97049e-08
6.42962e-09
2.11972e-09
1.57572e-07
1.2263e-06
5.07268e-07
4.98093e-09
6.53301e-09
2.71689e-09
3.93381e-09
1.24116e-08
9.98889e-08
1.78489e-07
3.12783e-08
7.93292e-06
3.41786e-05
2.52782e-05
4.04585e-09
1.14528e-09
3.86211e-09
4.24195e-09
2.78312e-09
3.28552e-05
0.000193275
0.000193311
6.13683e-05
9.46903e-10
1.76133e-09
8.2133e-08
1.23586e-07
6.34322e-05
0.000193311
0.000193311
0.000193311
1.83729e-07
4.39582e-07
5.40533e-07
5.6361e-07
1.58958e-07
0.0001082
0.000193311
0.000178661
1.20557e-06
3.69254e-09
4.19036e-09
3.67046e-09
2.1052e-09
1.67569e-08
2.63068e-07
6.76067e-07
8.2086e-07
2.74918e-07
3.97872e-07
1.54903e-07
2.67574e-09
1.45315e-09
9.1766e-10
7.87536e-10
2.50646e-07
1.45057e-06
1.53842e-06
6.01255e-07
6.21809e-09
2.67195e-09
1.41865e-09
5.67088e-10
6.91492e-07
5.85441e-07
1.5067e-08
1.35734e-09
3.14216e-06
8.59301e-06
1.26838e-05
1.11239e-05
2.83201e-07
2.75775e-09
4.87913e-09
-3.99923e-10
1.01105e-06
0.000113385
0.000192347
0.000179825
2.92404e-10
9.14034e-10
1.1669e-09
-2.02203e-09
3.2457e-05
0.000188258
0.000193301
0.000192506
9.97072e-07
1.61281e-07
7.49568e-12
-1.11323e-11
-6.9885e-09
4.49512e-05
0.000192678
0.00016085
5.1987e-07
1.2786e-09
9.36822e-08
1.06139e-07
3.2736e-10
3.16822e-10
3.26246e-10
4.15816e-10
4.73214e-07
1.18238e-06
1.64173e-06
1.65719e-06
3.56226e-07
1.76726e-07
1.10786e-07
6.59015e-09
1.33372e-10
5.71148e-07
1.55497e-06
1.62628e-06
8.10526e-07
8.20089e-08
2.37943e-07
2.85661e-08
6.95122e-07
6.91493e-07
2.39017e-07
1.4833e-10