/*--------------------------------*- C++ -*----------------------------------*\
| =========                 |                                                 |
| \\      /  F ield         | OpenFOAM: The Open Source CFD Toolbox           |
|  \\    /   O peration     | Version:  plus.master.MPPICInterFoam            |
|   \\  /    A nd           | Web:      www.OpenFOAM.com                      |
|    \\/     M anipulation  |                                                 |
\*---------------------------------------------------------------------------*/
FoamFile
{
    version     2.0;
    format      ascii;
    class       volVectorField;
    location    "9.4";
    object      U;
}
// * * * * * * * * * * * * * * * * * * * * * * * * * * * * * * * * * * * * * //

dimensions      [0 1 -1 0 0 0 0];

internalField   nonuniform List<vector> 
11822
(
(0.000695744 -0.00278038 0.541808)
(0.000468425 -0.00162457 0.547867)
(0.000567312 -0.00143743 0.525618)
(0.000887679 -0.00147644 0.480516)
(0.00139166 -0.0020825 0.425497)
(0.00213727 -0.00251277 0.368357)
(0.00269059 -0.00254391 0.313228)
(0.000210328 -0.00213067 0.663673)
(-0.00100374 -0.00231093 0.68117)
(-0.000881584 -0.00207931 0.647697)
(-0.000404734 -0.00139044 0.569267)
(0.000412327 -0.00212779 0.484215)
(0.00179893 -0.00278401 0.409996)
(0.00271325 -0.00290569 0.344488)
(-0.00347391 -0.00265775 0.789781)
(-0.00338912 -0.0044131 0.834868)
(-0.000308783 -0.00437731 0.782046)
(0.000801821 -0.00272691 0.66315)
(0.000636407 -0.00253046 0.540566)
(0.00214726 -0.00300705 0.444498)
(0.00314548 -0.00306255 0.368983)
(-0.00722497 -0.00361126 0.864466)
(-0.00638276 -0.00524561 0.908931)
(-0.000797513 -0.0048916 0.859594)
(0.00178864 -0.00327146 0.723405)
(0.00145857 -0.00290295 0.575937)
(0.00267411 -0.00295751 0.464895)
(0.00365198 -0.0029429 0.383109)
(-0.00730296 -0.00418168 0.853439)
(-0.00582855 -0.00333232 0.910325)
(-0.000482366 -0.00283227 0.859709)
(0.002264 -0.00327514 0.721264)
(0.00188758 -0.00310666 0.577181)
(0.00312118 -0.00268783 0.466018)
(0.00406034 -0.00260454 0.384131)
(-0.00385914 -0.00495068 0.778336)
(-0.00235614 -0.0034375 0.829538)
(0.00080439 -0.00273342 0.777878)
(0.00181737 -0.00350258 0.665241)
(0.0018995 -0.00290346 0.543483)
(0.00337792 -0.00222507 0.447501)
(0.00428666 -0.00217146 0.371834)
(0.000380108 -0.00335447 0.648253)
(7.16352e-05 -0.00312362 0.672784)
(0.000281651 -0.00340827 0.646462)
(0.000923356 -0.00359455 0.57233)
(0.00204343 -0.00245636 0.488317)
(0.00349444 -0.00182388 0.414455)
(0.00443438 -0.00187071 0.348459)
(0.00126803 -0.00469759 0.538118)
(0.00163804 -0.00291325 0.544133)
(0.00173461 -0.00279634 0.521908)
(0.00215966 -0.00285828 0.477217)
(0.00277009 -0.00304039 0.423165)
(0.00332808 -0.00312918 0.367303)
(0.00364009 -0.00292566 0.313502)
(0.000544714 -0.00376757 0.665364)
(0.000397467 -0.00131276 0.685571)
(0.00036192 -0.00169138 0.648984)
(0.00108044 -0.00215241 0.566107)
(0.00231593 -0.00289969 0.480785)
(0.00343812 -0.00327956 0.407817)
(0.00397704 -0.00317337 0.34384)
(-0.00442095 -0.00353716 0.808996)
(-0.00276159 -0.00186522 0.83647)
(0.000940908 -0.00242511 0.789339)
(0.00222876 -0.00238418 0.669303)
(0.00284066 -0.00279047 0.536614)
(0.00415678 -0.00321211 0.44143)
(0.0046403 -0.00315407 0.367552)
(-0.00607703 -0.00339118 0.876536)
(-0.00426966 -0.00380301 0.896673)
(0.000764582 -0.00360105 0.846574)
(0.00288951 -0.00293154 0.728717)
(0.00316632 -0.00282523 0.572674)
(0.00470289 -0.00289797 0.461185)
(0.00521704 -0.00283508 0.381107)
(-0.00702891 -0.00297356 0.873488)
(-0.0044028 -0.00372754 0.894513)
(0.000961376 -0.00347798 0.845934)
(0.00378705 -0.00328054 0.728283)
(0.00369314 -0.00278127 0.573011)
(0.00515326 -0.00237003 0.461875)
(0.00561233 -0.00231064 0.381801)
(-0.00465493 -0.00239165 0.788795)
(-0.00225237 -0.00457078 0.82625)
(0.00167446 -0.00355051 0.787604)
(0.00329284 -0.00324913 0.668491)
(0.00398384 -0.00215695 0.537623)
(0.00526373 -0.0016185 0.443216)
(0.00569093 -0.00168408 0.369471)
(0.000929757 -0.00107557 0.643267)
(0.00132452 -0.00311867 0.668983)
(0.00131109 -0.00304736 0.64282)
(0.00224258 -0.00237313 0.565879)
(0.00370405 -0.00133391 0.482483)
(0.00494114 -0.000980707 0.410491)
(0.00552156 -0.00120094 0.346421)
(0.00119917 -0.00825347 0.534465)
(0.00273308 -0.0068806 0.540176)
(0.00342222 -0.00664707 0.518426)
(0.00429214 -0.0059262 0.474698)
(0.00492367 -0.00499025 0.421831)
(0.0051207 -0.00433043 0.367215)
(0.00510168 -0.00367214 0.314549)
(0.000901675 -0.00786753 0.65911)
(0.00275751 -0.00425407 0.678399)
(0.00330257 -0.00500796 0.64276)
(0.00453091 -0.00548869 0.561429)
(0.00566259 -0.00491533 0.477989)
(0.00600202 -0.0044248 0.406679)
(0.00591271 -0.00379326 0.344127)
(-0.00213082 -0.00638021 0.800667)
(0.00182091 -0.0020193 0.828391)
(0.00471528 -0.00275 0.782246)
(0.00611392 -0.00404584 0.662343)
(0.00729116 -0.00416111 0.532357)
(0.00743872 -0.00397187 0.43937)
(0.00698706 -0.00352463 0.367169)
(-0.000777842 -0.00443138 0.875858)
(0.00311453 -0.00305807 0.884668)
(0.00544294 -0.00301882 0.842597)
(0.00648458 -0.00314327 0.726598)
(0.00767003 -0.00313874 0.567438)
(0.00833051 -0.00302041 0.458436)
(0.00778052 -0.00282271 0.380198)
(-0.00162669 -0.00178137 0.865423)
(0.00299046 -0.0035726 0.880341)
(0.00568411 -0.00367967 0.832803)
(0.00690235 -0.00270165 0.724278)
(0.00809977 -0.00205325 0.566694)
(0.0087021 -0.00183608 0.458643)
(0.00812512 -0.00189428 0.380577)
(-0.00262212 0.00186308 0.777488)
(0.00188459 -0.00308243 0.81358)
(0.00513275 -0.00273979 0.772149)
(0.00697941 -0.00106066 0.65857)
(0.00826984 -0.000469444 0.531372)
(0.0084438 -0.000505045 0.43993)
(0.00794303 -0.00091414 0.368225)
(0.00115401 0.00312312 0.6339)
(0.00346167 0.000534928 0.658751)
(0.00409182 0.000833741 0.632657)
(0.00557777 0.00137099 0.557711)
(0.00693914 0.0010259 0.477256)
(0.00738503 0.000541844 0.407667)
(0.00728325 -0.000132604 0.345459)
(0.000494644 -0.00913514 0.530827)
(0.00249604 -0.00886067 0.536316)
(0.00392927 -0.00865915 0.515511)
(0.00525911 -0.00733353 0.473307)
(0.00592782 -0.00583225 0.421819)
(0.00604649 -0.00487054 0.368392)
(0.00598673 -0.00403316 0.316796)
(0.000728827 -0.00876244 0.644312)
(0.00318873 -0.00679899 0.66374)
(0.00460266 -0.00789615 0.631044)
(0.0062445 -0.00708215 0.55557)
(0.00721035 -0.00574254 0.476361)
(0.00723138 -0.00484155 0.406888)
(0.00701002 -0.00400084 0.345673)
(0.000169935 -0.00586447 0.779613)
(0.00480643 -0.00336742 0.814894)
(0.00694081 -0.00529084 0.770543)
(0.00816491 -0.00543634 0.650144)
(0.00922937 -0.00478827 0.52825)
(0.00893043 -0.00420716 0.438634)
(0.00823604 -0.0035665 0.368094)
(0.00214642 -0.00340771 0.841831)
(0.00681192 -0.00280758 0.88238)
(0.00749022 -0.00374681 0.844736)
(0.00876373 -0.0035894 0.716248)
(0.0101689 -0.00317171 0.560996)
(0.0100479 -0.00289232 0.456893)
(0.00912608 -0.00263318 0.380626)
(0.00220023 -0.00187806 0.826993)
(0.00695916 -0.00344431 0.867333)
(0.00773134 -0.00314969 0.84059)
(0.00825072 -0.00197063 0.714382)
(0.0102992 -0.0014038 0.559891)
(0.0102977 -0.00130532 0.456705)
(0.00937729 -0.00146558 0.380727)
(-0.000590902 0.0015087 0.756209)
(0.00433622 -0.00148649 0.795057)
(0.0066967 -6.52576e-05 0.760409)
(0.00857792 0.000686937 0.643615)
(0.0101245 0.000655191 0.525191)
(0.00975749 0.000284227 0.438065)
(0.008999 -0.000311186 0.368386)
(0.000650982 0.00403607 0.619845)
(0.00349244 0.00333722 0.642225)
(0.00524182 0.00411624 0.617025)
(0.00727155 0.0036429 0.547945)
(0.0083551 0.00238205 0.473325)
(0.00838615 0.00149082 0.406424)
(0.00809797 0.00061092 0.345945)
(-0.0011063 -0.00905704 0.526015)
(0.00130187 -0.00924829 0.531446)
(0.00350193 -0.00899241 0.51129)
(0.0054895 -0.00770306 0.470049)
(0.0067536 -0.00644455 0.419473)
(0.00754556 -0.00578195 0.366823)
(0.00815927 -0.0052037 0.315841)
(-0.0011569 -0.00839925 0.633469)
(0.00142773 -0.00825522 0.651874)
(0.0040011 -0.00860603 0.622441)
(0.00637089 -0.00738835 0.550032)
(0.00779559 -0.00588786 0.473086)
(0.00849785 -0.00524738 0.404758)
(0.00903012 -0.00464968 0.344386)
(-0.00225954 -0.00518918 0.749182)
(0.00175119 -0.00558877 0.798526)
(0.00542184 -0.00707576 0.758027)
(0.00830663 -0.00631001 0.640421)
(0.00983971 -0.00481552 0.52364)
(0.00999777 -0.00423674 0.435874)
(0.0101082 -0.00374215 0.366446)
(-0.00266092 -0.00170659 0.823851)
(0.00107376 -0.00188993 0.878684)
(0.00453641 -0.00373999 0.835107)
(0.0087954 -0.00374934 0.704799)
(0.011233 -0.00286781 0.554523)
(0.0111459 -0.00254824 0.453596)
(0.0109187 -0.00236571 0.378648)
(-0.00242663 -0.000608664 0.811925)
(0.000907994 -0.000681903 0.864941)
(0.0039507 -0.000477838 0.827548)
(0.0080164 -0.000514648 0.697215)
(0.0114356 -0.000518027 0.552391)
(0.0113078 -0.00055978 0.453016)
(0.0110844 -0.000755067 0.378495)
(-0.00319798 0.00138298 0.729681)
(0.000920025 0.00110148 0.776422)
(0.00501978 0.00329559 0.738078)
(0.0086414 0.00284573 0.627148)
(0.0104865 0.00177406 0.518833)
(0.010579 0.00132181 0.434363)
(0.0106261 0.000785102 0.36604)
(-0.00116254 0.0049129 0.606284)
(0.0016389 0.00521137 0.625079)
(0.00434135 0.00632335 0.600797)
(0.00711349 0.00502498 0.538968)
(0.00858284 0.00346968 0.468314)
(0.00927772 0.0027457 0.403096)
(0.00976156 0.00203716 0.343673)
(-0.00303595 -0.0102022 0.520219)
(0.000428714 -0.010138 0.525052)
(0.00350795 -0.00967165 0.505197)
(0.00620362 -0.00850518 0.464947)
(0.00818984 -0.00772518 0.415654)
(0.00988705 -0.00753167 0.364507)
(0.0114973 -0.00723445 0.315521)
(-0.00333875 -0.00889568 0.624503)
(0.000189238 -0.0088638 0.641456)
(0.00389384 -0.00863936 0.613292)
(0.00700548 -0.00720042 0.5431)
(0.00901474 -0.00616573 0.46823)
(0.0106919 -0.00603513 0.401324)
(0.0124017 -0.00576659 0.342736)
(-0.00570097 -0.00630766 0.734512)
(-0.00156765 -0.00627592 0.779411)
(0.00462866 -0.00709681 0.739946)
(0.00907208 -0.00590117 0.630151)
(0.0109387 -0.00453036 0.517626)
(0.0119754 -0.00434153 0.431675)
(0.0133332 -0.00410921 0.363985)
(-0.00696851 -0.00156155 0.810903)
(-0.00279898 -0.000617862 0.850409)
(0.00390756 -0.00241611 0.807744)
(0.00996936 -0.00264918 0.681417)
(0.0126578 -0.00225752 0.546881)
(0.0129963 -0.00213514 0.448847)
(0.0140207 -0.00207687 0.375763)
(-0.0071156 0.00252274 0.804108)
(-0.00204106 0.00390639 0.849166)
(0.00465505 0.00257618 0.803279)
(0.009958 0.001326 0.671811)
(0.012941 0.000546853 0.544834)
(0.0131709 0.000385317 0.448182)
(0.0141038 0.000195586 0.375536)
(-0.00618185 0.00511487 0.715616)
(-0.00103819 0.00642434 0.757434)
(0.0048765 0.00610669 0.716374)
(0.00916156 0.0045547 0.615532)
(0.0112601 0.0031885 0.512192)
(0.0122644 0.00282019 0.429767)
(0.0135223 0.00240608 0.363401)
(-0.00365952 0.00790382 0.596542)
(0.000406731 0.0086694 0.613183)
(0.00410047 0.00813592 0.590512)
(0.00714333 0.00634375 0.531376)
(0.0091933 0.00520291 0.462651)
(0.0108912 0.00486693 0.399235)
(0.0124508 0.00438884 0.341956)
(0.00274584 -0.0023302 0.268748)
(0.00260429 -0.00204304 0.236294)
(0.00240303 -0.00166185 0.206473)
(0.00211815 -0.00123799 0.179468)
(0.00178489 -0.0007949 0.155069)
(0.00142433 -0.000358521 0.132632)
(0.00109883 4.17025e-05 0.110404)
(0.000780636 0.000292965 0.0806706)
(0.00293514 -0.00274456 0.291166)
(0.00279722 -0.00258904 0.25004)
(0.00250293 -0.00232648 0.214018)
(0.00209045 -0.00202334 0.182208)
(0.00159749 -0.00170782 0.153916)
(0.00106474 -0.00140409 0.128189)
(0.000539312 -0.00113607 0.102902)
(7.10738e-05 -0.000946359 0.0702343)
(0.00341078 -0.0029641 0.308881)
(0.00329099 -0.00288807 0.262209)
(0.00295452 -0.00275978 0.221793)
(0.00246409 -0.00262346 0.186539)
(0.00186927 -0.00248956 0.155521)
(0.00122198 -0.00236411 0.127623)
(0.000583331 -0.00223959 0.100575)
(5.55068e-05 -0.00204208 0.0662597)
(0.00393635 -0.00292192 0.319585)
(0.00385158 -0.00292878 0.270532)
(0.00352312 -0.00296266 0.228237)
(0.00302881 -0.00302037 0.191499)
(0.00242185 -0.00309467 0.159309)
(0.00175598 -0.00317229 0.130479)
(0.00109274 -0.00322064 0.102665)
(0.000526745 -0.00309453 0.0675485)
(0.00434754 -0.00266771 0.321314)
(0.00432091 -0.00273983 0.273562)
(0.00406044 -0.0029207 0.232286)
(0.00364423 -0.00315324 0.196327)
(0.00312019 -0.00341391 0.164718)
(0.00253603 -0.00367209 0.136303)
(0.00194098 -0.00387372 0.108748)
(0.00138381 -0.00381613 0.0736732)
(0.00457052 -0.00232503 0.314071)
(0.00461036 -0.00244218 0.27131)
(0.00446602 -0.00271404 0.233901)
(0.00419487 -0.0030573 0.200892)
(0.00383328 -0.00343864 0.171542)
(0.00341503 -0.00381515 0.144849)
(0.00296578 -0.00411784 0.118581)
(0.00246394 -0.00410658 0.0844504)
(0.00472733 -0.00208613 0.299178)
(0.00481492 -0.00224581 0.265283)
(0.00481049 -0.00253328 0.233968)
(0.00471006 -0.00289102 0.205519)
(0.00454389 -0.00328852 0.179699)
(0.00432803 -0.00368491 0.155754)
(0.0040625 -0.00401236 0.131632)
(0.00365893 -0.00403511 0.0993037)
(0.0034681 -0.00257789 0.270105)
(0.00316454 -0.00220883 0.238426)
(0.00282564 -0.00176765 0.209264)
(0.00243612 -0.00130602 0.182791)
(0.002015 -0.000846076 0.158803)
(0.00157479 -0.000409037 0.136655)
(0.00115178 -3.13822e-05 0.1145)
(0.000734803 0.000202025 0.0851635)
(0.00388585 -0.00291507 0.29184)
(0.00351203 -0.00267456 0.251709)
(0.0030492 -0.00234294 0.216494)
(0.00251121 -0.00199864 0.185326)
(0.00192356 -0.00166106 0.157527)
(0.00131465 -0.00134703 0.132157)
(0.000724546 -0.00107299 0.107094)
(0.000192328 -0.000878762 0.0744873)
(0.00451936 -0.00298995 0.308934)
(0.00411946 -0.00285234 0.263398)
(0.00357621 -0.00267953 0.223909)
(0.00293211 -0.00251532 0.189388)
(0.00222147 -0.00236583 0.158931)
(0.00148327 -0.00223136 0.131443)
(0.000771301 -0.00210116 0.104661)
(0.000169902 -0.00190116 0.0704374)
(0.00509471 -0.00277575 0.319145)
(0.00471581 -0.00275593 0.271294)
(0.00416186 -0.00277119 0.229986)
(0.00349735 -0.00281637 0.194031)
(0.00276033 -0.00288308 0.16244)
(0.00199266 -0.00295635 0.134049)
(0.00124805 -0.00300349 0.106524)
(0.000603984 -0.00288749 0.0715235)
(0.00547564 -0.00234967 0.320569)
(0.00514385 -0.00243549 0.274002)
(0.00465076 -0.00262432 0.233704)
(0.00405889 -0.00286287 0.198521)
(0.0034007 -0.00312845 0.167508)
(0.00271234 -0.00339227 0.139532)
(0.00203543 -0.00360342 0.112271)
(0.00140574 -0.00357418 0.0773309)
(0.00557569 -0.0018482 0.313244)
(0.00532278 -0.00201903 0.271561)
(0.00495702 -0.00232846 0.235047)
(0.00451804 -0.00269986 0.202753)
(0.00402795 -0.00310247 0.173956)
(0.00351033 -0.00349792 0.147673)
(0.00298518 -0.00382281 0.121686)
(0.00242403 -0.00386046 0.0876918)
(0.00549784 -0.0014959 0.298508)
(0.00536247 -0.00172702 0.265467)
(0.00516961 -0.00206604 0.234903)
(0.00492048 -0.00246554 0.207069)
(0.00463552 -0.00289785 0.181731)
(0.00432506 -0.003324 0.158152)
(0.00398494 -0.00367752 0.134292)
(0.00351334 -0.00373352 0.102131)
(0.00461925 -0.00309228 0.271997)
(0.00408055 -0.00255146 0.240878)
(0.00353274 -0.00199591 0.212176)
(0.00297814 -0.00144153 0.186071)
(0.00240278 -0.000906369 0.162363)
(0.00181776 -0.000407498 0.140394)
(0.00124751 9.8974e-06 0.118193)
(0.000690379 0.000293398 0.0888052)
(0.00534255 -0.00334329 0.293209)
(0.00462684 -0.0029133 0.253826)
(0.00391139 -0.00247738 0.2192)
(0.00317004 -0.00205584 0.188494)
(0.00240162 -0.00165488 0.161043)
(0.00162626 -0.00128176 0.135905)
(0.000895862 -0.000955672 0.110936)
(0.000217552 -0.000710053 0.0781938)
(0.00623327 -0.00320139 0.309811)
(0.00541526 -0.00293312 0.265158)
(0.00456449 -0.00269121 0.226363)
(0.00367548 -0.00247656 0.192385)
(0.00275153 -0.00228755 0.16234)
(0.00181974 -0.00211812 0.135133)
(0.000943891 -0.00196016 0.10849)
(0.000168368 -0.00174159 0.0741668)
(0.00693568 -0.00268628 0.319606)
(0.00609284 -0.00262737 0.272709)
(0.00520011 -0.00261892 0.232152)
(0.00426551 -0.00265088 0.196783)
(0.00329626 -0.00271016 0.165637)
(0.00232044 -0.00277902 0.137556)
(0.00140085 -0.00282454 0.110194)
(0.000574801 -0.00271713 0.0751235)
(0.00727214 -0.00194411 0.320753)
(0.00647082 -0.0020899 0.275128)
(0.00563415 -0.00230571 0.235571)
(0.0047697 -0.00257332 0.200967)
(0.00388 -0.00286845 0.170394)
(0.00298696 -0.00316249 0.142728)
(0.00214 -0.00340175 0.115638)
(0.00133956 -0.00341201 0.0806531)
(0.00717969 -0.00116763 0.313332)
(0.00649062 -0.00148606 0.272492)
(0.00580232 -0.0018763 0.236642)
(0.00511004 -0.00231878 0.204869)
(0.00440624 -0.00278594 0.176471)
(0.00370275 -0.00324279 0.15047)
(0.00302627 -0.00362227 0.124642)
(0.00232227 -0.003728 0.0906171)
(0.0067891 -0.0006366 0.298691)
(0.00632295 -0.00104099 0.266298)
(0.00584775 -0.00150117 0.236274)
(0.005379 -0.00200719 0.208871)
(0.00490416 -0.00253881 0.183865)
(0.00443066 -0.00305635 0.160521)
(0.00395936 -0.00348747 0.13679)
(0.00337059 -0.00362239 0.10458)
(0.00548946 -0.00339726 0.275135)
(0.00492087 -0.00283938 0.244679)
(0.00433586 -0.00229039 0.216613)
(0.00374169 -0.00173082 0.191114)
(0.00311772 -0.00117672 0.167961)
(0.00247528 -0.000644113 0.146472)
(0.00180622 -0.00015287 0.124625)
(0.0011878 0.000252359 0.0956941)
(0.0063711 -0.00349103 0.295809)
(0.00562334 -0.00299653 0.257248)
(0.0048861 -0.00254804 0.223383)
(0.00410981 -0.00210584 0.193397)
(0.00328964 -0.00167037 0.166611)
(0.0024427 -0.00124147 0.142065)
(0.00158923 -0.000817409 0.117634)
(0.000824714 -0.000449984 0.0856028)
(0.00736667 -0.00319086 0.311938)
(0.00649449 -0.00287847 0.26821)
(0.00561025 -0.00262607 0.230258)
(0.00467386 -0.00239646 0.19707)
(0.00367924 -0.0021836 0.167757)
(0.00264449 -0.00197886 0.141202)
(0.00159798 -0.00176597 0.115149)
(0.000682895 -0.00149997 0.0816099)
(0.00810775 -0.00248484 0.32135)
(0.00719222 -0.00242442 0.275431)
(0.00625299 -0.00241716 0.235751)
(0.00526201 -0.00244879 0.201199)
(0.00421212 -0.00250507 0.170807)
(0.00311989 -0.00256947 0.143395)
(0.00201267 -0.00261178 0.116635)
(0.00102721 -0.00251093 0.0823562)
(0.00836574 -0.00154888 0.322256)
(0.00749143 -0.00174303 0.277596)
(0.00660712 -0.00197396 0.238897)
(0.00568777 -0.00225788 0.205086)
(0.00472314 -0.00257194 0.175243)
(0.00372411 -0.00289276 0.148221)
(0.00270757 -0.0031796 0.121707)
(0.00176113 -0.00325226 0.0874679)
(0.00811797 -0.000623113 0.314783)
(0.00736182 -0.0010204 0.274817)
(0.00663053 -0.00143335 0.239745)
(0.00589068 -0.00189922 0.208692)
(0.00512582 -0.00239504 0.180953)
(0.0043406 -0.0028947 0.155534)
(0.00353508 -0.00335288 0.130225)
(0.00271975 -0.00356319 0.0968556)
(0.00753909 2.90741e-05 0.30029)
(0.00701083 -0.000413122 0.268587)
(0.0064767 -0.000884607 0.239207)
(0.00595321 -0.00140745 0.212409)
(0.00541554 -0.00196408 0.187954)
(0.00487024 -0.00252161 0.16509)
(0.00429756 -0.00303302 0.141775)
(0.00361279 -0.00327599 0.110016)
(0.00808721 -0.00477131 0.274596)
(0.00767636 -0.0043678 0.244353)
(0.0071566 -0.0038893 0.216422)
(0.00648594 -0.00327439 0.190902)
(0.00560946 -0.00250265 0.167462)
(0.00458379 -0.00162938 0.145265)
(0.00366698 -0.000884707 0.121995)
(0.00210972 0.000252005 0.089853)
(0.00892562 -0.00436393 0.295114)
(0.00851795 -0.00404106 0.25694)
(0.00799336 -0.0037154 0.223369)
(0.00726203 -0.00330492 0.193526)
(0.00625371 -0.00278953 0.166628)
(0.00501856 -0.0021928 0.141549)
(0.00391442 -0.00168406 0.115835)
(0.00192105 -0.000767015 0.080631)
(0.0098549 -0.0035226 0.31102)
(0.00944191 -0.00333696 0.267794)
(0.00889256 -0.00317734 0.23024)
(0.00810799 -0.00298929 0.197304)
(0.00700336 -0.0027586 0.167993)
(0.0056188 -0.00249107 0.141014)
(0.00436236 -0.00226715 0.113746)
(0.0020348 -0.00175463 0.076949)
(0.0105326 -0.00227552 0.320192)
(0.0101032 -0.00225417 0.274823)
(0.00953774 -0.00227046 0.235584)
(0.00873638 -0.00231339 0.20133)
(0.00760763 -0.0023737 0.170997)
(0.00618489 -0.00244278 0.143226)
(0.00488958 -0.00250239 0.115328)
(0.00245035 -0.00245944 0.0778816)
(0.0106879 -0.000817285 0.320866)
(0.010259 -0.000961863 0.276732)
(0.00970765 -0.00114951 0.238446)
(0.00894193 -0.0014134 0.204909)
(0.00787228 -0.00175048 0.175108)
(0.00652957 -0.00213975 0.147735)
(0.00530871 -0.00246798 0.12014)
(0.00299692 -0.0028879 0.0829316)
(0.0103181 0.000563939 0.313214)
(0.00990388 0.000275149 0.273675)
(0.00939789 -5.7136e-05 0.238927)
(0.00871546 -0.000500759 0.208066)
(0.0077756 -0.00106587 0.1803)
(0.00661288 -0.00171928 0.154493)
(0.0055608 -0.00226934 0.12815)
(0.00358162 -0.00306121 0.0921187)
(0.00966794 0.00157312 0.298599)
(0.00931245 0.00124969 0.26715)
(0.00886279 0.000834513 0.23796)
(0.0082839 0.000270131 0.211232)
(0.00751087 -0.000465227 0.186646)
(0.00658731 -0.001314 0.16333)
(0.00574708 -0.0020307 0.139003)
(0.00419555 -0.00302483 0.104857)
(0.0125083 -0.00726679 0.276715)
(0.0128014 -0.00756472 0.249058)
(0.0129098 -0.00775506 0.224578)
(0.01268 -0.00771157 0.203531)
(0.0120043 -0.00736484 0.18591)
(0.0107569 -0.00662632 0.171661)
(0.00875409 -0.00536564 0.160977)
(0.00458256 -0.00259447 0.155123)
(0.0135499 -0.00571337 0.295703)
(0.0142242 -0.00578335 0.260123)
(0.0146444 -0.00585818 0.229966)
(0.0146698 -0.00578999 0.204598)
(0.0141544 -0.005501 0.183623)
(0.0129154 -0.0048957 0.166792)
(0.0107406 -0.00386951 0.154377)
(0.00595107 -0.00163213 0.148113)
(0.0143811 -0.00405126 0.310664)
(0.0151766 -0.00407754 0.269905)
(0.0157348 -0.0041146 0.235643)
(0.0158896 -0.00408515 0.207087)
(0.0154498 -0.00394225 0.183655)
(0.0141665 -0.00362855 0.164974)
(0.01178 -0.00308205 0.151263)
(0.00636781 -0.00184892 0.144525)
(0.0149447 -0.0020345 0.319368)
(0.0157511 -0.00202239 0.276395)
(0.0163391 -0.0020181 0.240372)
(0.0165377 -0.00201011 0.210428)
(0.0161334 -0.00198885 0.185914)
(0.0148513 -0.00194362 0.166398)
(0.0124119 -0.00184874 0.152048)
(0.00677535 -0.00160498 0.144851)
(0.0149654 0.000180882 0.320011)
(0.0157 0.000224069 0.278275)
(0.0162293 0.000266399 0.243196)
(0.0163912 0.000257766 0.21394)
(0.0159856 0.000166835 0.1899)
(0.0147524 -4.70785e-05 0.170665)
(0.0124088 -0.000405291 0.156362)
(0.00694142 -0.00120231 0.148679)
(0.0144302 0.00230812 0.312819)
(0.0150403 0.00239861 0.275742)
(0.0154468 0.00249603 0.244248)
(0.0155046 0.00248936 0.217679)
(0.0150575 0.00230735 0.19562)
(0.0139023 0.00186457 0.177774)
(0.0117831 0.00107821 0.164258)
(0.00686285 -0.0007692 0.156212)
(0.0133962 0.00434041 0.299264)
(0.0136866 0.00471084 0.270228)
(0.0138287 0.005 0.244287)
(0.0136692 0.00510119 0.221805)
(0.0130995 0.00494567 0.202787)
(0.0119725 0.00444128 0.187124)
(0.0100412 0.00346255 0.1749)
(0.00571773 0.000957672 0.166316)
(0.000483406 -0.00269964 0.585202)
(0.000517016 -0.000585455 0.530719)
(0.000301178 0.000592481 0.485039)
(0.000377414 0.00134793 0.444991)
(0.000693254 0.00188865 0.409352)
(0.00118468 0.00236595 0.376385)
(0.00178282 0.00281299 0.342197)
(0.00237856 0.0033224 0.291426)
(-0.00225339 -0.00370121 0.677781)
(-0.00168809 -0.00170966 0.59538)
(-0.00193198 -0.000598697 0.534138)
(-0.00201007 7.56739e-05 0.4839)
(-0.00175411 0.0006246 0.440876)
(-0.00116204 0.00117061 0.402379)
(-0.000362096 0.00174882 0.363797)
(0.000509224 0.00251129 0.308381)
(-0.00394078 -0.00376881 0.738276)
(-0.0020975 -0.0029942 0.642606)
(-0.00242627 -0.00236499 0.566181)
(-0.00282967 -0.00198516 0.507829)
(-0.00286209 -0.0016361 0.459105)
(-0.00246398 -0.00128618 0.416473)
(-0.00177765 -0.000911111 0.374679)
(-0.00100158 -0.000332766 0.31605)
(-0.00318482 -0.00349804 0.742906)
(-0.00109583 -0.00363652 0.645842)
(-0.00153996 -0.00368791 0.566382)
(-0.00217759 -0.00375263 0.50662)
(-0.00238697 -0.00376105 0.456836)
(-0.0021225 -0.00377618 0.413497)
(-0.00154201 -0.00376647 0.371249)
(-0.0009096 -0.00355365 0.312294)
(-0.000634175 -0.00261059 0.69004)
(0.000280342 -0.00369206 0.600926)
(-0.000320033 -0.00439776 0.533605)
(-0.000808221 -0.0048356 0.48003)
(-0.000874633 -0.00518964 0.434636)
(-0.000550366 -0.00553576 0.394486)
(4.07517e-05 -0.00583201 0.354777)
(0.000593687 -0.00593201 0.298683)
(0.00142816 -0.00195533 0.594419)
(0.00138789 -0.00360251 0.530994)
(0.000945565 -0.00457746 0.480465)
(0.000798207 -0.00514744 0.437169)
(0.00102472 -0.00563842 0.399185)
(0.00151827 -0.00606352 0.364548)
(0.00214548 -0.00638732 0.329294)
(0.00260516 -0.00648038 0.278189)
(0.00106209 -0.00345473 0.504449)
(0.00131463 -0.00456525 0.461867)
(0.00156027 -0.00518534 0.424125)
(0.00196802 -0.00550377 0.390069)
(0.00252184 -0.00576579 0.35911)
(0.00315706 -0.00594673 0.329998)
(0.00380069 -0.00602679 0.29946)
(0.00418836 -0.00592521 0.253942)
(0.000259415 -0.000473948 0.578764)
(0.000215533 0.000987579 0.52463)
(7.10602e-05 0.00163862 0.480266)
(0.000218809 0.00201185 0.44151)
(0.000611579 0.00235199 0.40703)
(0.00112247 0.00268244 0.375057)
(0.00172511 0.00300264 0.341701)
(0.0023108 0.00336664 0.291715)
(-0.00294129 -0.00201619 0.678525)
(-0.00260631 -0.000264583 0.589552)
(-0.00285777 0.000415467 0.528717)
(-0.00271303 0.000859182 0.479702)
(-0.00219251 0.00130048 0.437976)
(-0.00139758 0.00175366 0.400673)
(-0.000453194 0.00221844 0.363113)
(0.000525897 0.00280605 0.308659)
(-0.00408612 -0.00307129 0.756918)
(-0.00285926 -0.00215162 0.640697)
(-0.00371769 -0.0017829 0.561041)
(-0.00405698 -0.0014494 0.50344)
(-0.00378916 -0.00111381 0.455967)
(-0.0030788 -0.000763334 0.414606)
(-0.00211108 -0.000418746 0.373969)
(-0.00109392 6.27171e-05 0.316413)
(-0.0032679 -0.00265487 0.765515)
(-0.0019318 -0.00304854 0.645897)
(-0.0030595 -0.0033754 0.561922)
(-0.00362732 -0.00348799 0.502707)
(-0.00351644 -0.0035017 0.454166)
(-0.00291727 -0.00348567 0.41208)
(-0.00202361 -0.00344277 0.370945)
(-0.00110672 -0.00322594 0.31304)
(-0.00209924 -0.00253768 0.699151)
(-0.00153077 -0.0039306 0.59779)
(-0.00205591 -0.00465115 0.529637)
(-0.00221536 -0.005044 0.477062)
(-0.00192496 -0.00532275 0.43292)
(-0.00127262 -0.00555671 0.393915)
(-0.00041868 -0.00573445 0.355173)
(0.000368837 -0.00571633 0.29995)
(0.00057096 -0.00344359 0.591517)
(0.000371461 -0.00472937 0.527173)
(9.2814e-05 -0.00530689 0.477615)
(0.000147572 -0.00566723 0.435502)
(0.000543816 -0.00596686 0.398614)
(0.00115726 -0.00619982 0.364907)
(0.00186127 -0.0063527 0.330409)
(0.0023921 -0.00627968 0.279952)
(0.00100835 -0.00477767 0.501116)
(0.00116707 -0.005382 0.459392)
(0.00136546 -0.00559236 0.422728)
(0.00174969 -0.00572366 0.389653)
(0.00227056 -0.00582609 0.359538)
(0.00286966 -0.00586687 0.331119)
(0.00347817 -0.00583362 0.301127)
(0.00385522 -0.00562445 0.256044)
(-0.000727129 0.0024731 0.571332)
(-0.000678651 0.00267256 0.51908)
(-0.000550471 0.00269527 0.47641)
(-0.000191316 0.00280505 0.43907)
(0.000292018 0.00294125 0.405764)
(0.000872521 0.00304739 0.374732)
(0.00152547 0.00315833 0.342145)
(0.00215306 0.00329759 0.292882)
(-0.00447742 0.00130285 0.66946)
(-0.00490838 0.00169539 0.582531)
(-0.0045369 0.0019558 0.523731)
(-0.00383724 0.00220238 0.476506)
(-0.00285397 0.00242619 0.436274)
(-0.00176736 0.00259483 0.400173)
(-0.000607143 0.00276126 0.363578)
(0.000522457 0.00301475 0.310011)
(-0.00554313 -0.00140216 0.749316)
(-0.0070358 -0.00100574 0.632829)
(-0.0073034 -0.000613347 0.555673)
(-0.00666215 -0.000345792 0.500025)
(-0.00549952 -9.55735e-05 0.454215)
(-0.00410325 7.76216e-05 0.414184)
(-0.00260734 0.000211715 0.374615)
(-0.00117696 0.00043719 0.318018)
(-0.00520793 -0.00347026 0.761028)
(-0.00684912 -0.00351032 0.638459)
(-0.00735296 -0.00351934 0.557026)
(-0.0067926 -0.0034324 0.499756)
(-0.00566267 -0.00331087 0.452888)
(-0.00424342 -0.00321135 0.412115)
(-0.00271766 -0.00313056 0.372018)
(-0.00128806 -0.00292425 0.315034)
(-0.0044481 -0.00554741 0.690846)
(-0.00531647 -0.00579275 0.592131)
(-0.00519252 -0.00595545 0.525998)
(-0.00453225 -0.0059278 0.475183)
(-0.00350611 -0.00586165 0.432482)
(-0.00228163 -0.00578053 0.394611)
(-0.000987709 -0.00570079 0.356759)
(0.00017027 -0.00547504 0.302295)
(-0.00102845 -0.00689833 0.586139)
(-0.00140137 -0.00675151 0.523582)
(-0.00130628 -0.00666771 0.475635)
(-0.000895153 -0.00661455 0.434862)
(-0.000224587 -0.00653961 0.399066)
(0.00059334 -0.00643226 0.366227)
(0.00145732 -0.00629882 0.332414)
(0.0021468 -0.00598054 0.282538)
(0.000173715 -0.007108 0.498358)
(0.000296147 -0.00665724 0.457882)
(0.00060574 -0.00635177 0.422275)
(0.00107861 -0.0062099 0.390108)
(0.00167079 -0.00605846 0.360746)
(0.00233664 -0.00587158 0.33293)
(0.00300881 -0.00564451 0.303417)
(0.00347676 -0.00525916 0.258724)
(-0.00130345 0.00285156 0.563147)
(-0.00119644 0.00269187 0.514596)
(-0.00100604 0.00281863 0.473941)
(-0.000687811 0.00305138 0.438125)
(-0.000272368 0.0031641 0.405995)
(0.000285945 0.00313463 0.375872)
(0.000957914 0.00306883 0.343993)
(0.00166219 0.0029879 0.295364)
(-0.0046284 0.00144434 0.653185)
(-0.0055717 0.00188209 0.574597)
(-0.00509476 0.00239821 0.519723)
(-0.00426459 0.00284925 0.47475)
(-0.00326829 0.00298851 0.436129)
(-0.00215816 0.00293008 0.401205)
(-0.000953714 0.00283584 0.365498)
(0.000271303 0.00279305 0.312683)
(-0.0054101 -0.00122343 0.726233)
(-0.00861163 -0.000612408 0.621319)
(-0.00873955 -3.38674e-05 0.550699)
(-0.00772901 0.000416817 0.498033)
(-0.00629094 0.000596334 0.454121)
(-0.00465811 0.000588396 0.415414)
(-0.00294572 0.000514114 0.376812)
(-0.00127476 0.000500582 0.321002)
(-0.00539828 -0.00344584 0.738069)
(-0.00886095 -0.00347081 0.626969)
(-0.0091815 -0.00333075 0.552483)
(-0.00818337 -0.00311946 0.498262)
(-0.00667923 -0.00294072 0.453272)
(-0.00494487 -0.00282497 0.413794)
(-0.00313179 -0.00275415 0.374632)
(-0.00139413 -0.00259233 0.318386)
(-0.00497848 -0.00603982 0.674376)
(-0.00663179 -0.00607703 0.584688)
(-0.00643356 -0.00608268 0.52321)
(-0.00556838 -0.0059619 0.474712)
(-0.00436631 -0.005734 0.433559)
(-0.00296569 -0.00547868 0.396796)
(-0.00148566 -0.00524555 0.359758)
(-8.41703e-05 -0.00490054 0.305913)
(-0.00169264 -0.00734529 0.578827)
(-0.00222643 -0.00682369 0.520709)
(-0.00214451 -0.00667211 0.474876)
(-0.0017142 -0.0065864 0.435546)
(-0.00104427 -0.00637315 0.400855)
(-0.000183798 -0.00608745 0.368871)
(0.000769005 -0.0057766 0.335705)
(0.00163509 -0.00529581 0.286334)
(-0.000709326 -0.00737386 0.496498)
(-0.00067785 -0.00666608 0.457608)
(-0.000367912 -0.00633701 0.423068)
(9.36959e-05 -0.00618511 0.391805)
(0.0006931 -0.00594025 0.363206)
(0.00139816 -0.00562043 0.336004)
(0.00214851 -0.00524162 0.306962)
(0.00276564 -0.00468648 0.262633)
(-0.00278941 0.0039828 0.554623)
(-0.00288388 0.00405501 0.508847)
(-0.00292994 0.00419785 0.469896)
(-0.00276611 0.00434582 0.435461)
(-0.00232279 0.00420053 0.404512)
(-0.00154641 0.00380715 0.375417)