/*--------------------------------*- C++ -*----------------------------------*\
| =========                 |                                                 |
| \\      /  F ield         | OpenFOAM: The Open Source CFD Toolbox           |
|  \\    /   O peration     | Version:  plus.master.MPPICInterFoam            |
|   \\  /    A nd           | Web:      www.OpenFOAM.com                      |
|    \\/     M anipulation  |                                                 |
\*---------------------------------------------------------------------------*/
FoamFile
{
    version     2.0;
    format      ascii;
    class       surfaceScalarField;
    location    "10.8";
    object      alphaPhi;
}
// * * * * * * * * * * * * * * * * * * * * * * * * * * * * * * * * * * * * * //

dimensions      [0 3 -1 0 0 0 0];

internalField   nonuniform List<scalar> 
34319
(
-2.47834e-08
-2.49723e-07
6.35201e-06
7.24384e-08
2.06055e-07
9.1223e-09
-2.21341e-07
6.2285e-06
1.96679e-07
3.90137e-08
-1.99662e-07
5.85809e-06
1.7921e-07
6.19056e-08
-1.71849e-07
5.30962e-06
1.5593e-07
7.65942e-08
-1.45092e-07
4.66383e-06
1.32967e-07
8.30205e-08
-1.24234e-07
3.99069e-06
1.14465e-07
-1.08441e-07
3.32818e-06
8.08221e-08
9.99279e-08
-2.02809e-08
-2.28602e-07
6.83508e-06
9.93006e-08
1.3138e-08
-1.44646e-07
6.73914e-06
5.08319e-08
-1.81184e-07
6.45783e-06
8.56699e-08
-1.84402e-07
6.17184e-06
1.01455e-07
-1.4979e-07
5.40749e-06
1.06166e-07
-1.24031e-07
4.57943e-06
-1.07157e-07
3.8031e-06
1.01681e-07
-6.17865e-09
-1.42796e-07
4.89543e-06
1.1073e-07
2.48509e-08
-9.73508e-08
4.47505e-06
9.43452e-08
-1.12398e-07
5.3303e-06
1.47257e-07
-1.4649e-07
6.27609e-06
1.4851e-07
-1.25409e-07
6.08033e-06
1.41419e-07
-1.04747e-07
5.13203e-06
-9.18903e-08
4.2302e-06
1.29507e-07
4.47899e-08
-6.92025e-08
4.41421e-06
1.06013e-07
5.04846e-08
-5.46636e-08
5.07081e-06
1.35662e-07
-6.33706e-08
4.99686e-06
2.08145e-07
-7.26187e-08
5.58228e-06
2.04133e-07
-6.72217e-08
6.3971e-06
1.79273e-07
-6.13324e-08
5.57995e-06
-6.17279e-08
4.57079e-06
1.578e-07
2.97839e-08
2.63965e-08
4.36458e-06
7.07491e-08
5.96838e-08
-2.72395e-08
7.11185e-06
1.43937e-07
-3.73907e-08
6.32236e-06
1.75147e-07
-1.20968e-08
5.34871e-06
2.25763e-07
-1.05524e-08
6.65464e-06
1.98342e-07
-1.17754e-08
5.85156e-06
-2.685e-08
4.78232e-06
1.75098e-07
-2.71467e-08
8.39092e-08
4.46134e-06
1.26084e-07
4.35104e-08
4.49809e-08
4.61904e-06
1.12484e-07
2.52619e-08
4.05195e-06
2.29264e-07
5.82409e-08
5.45516e-06
2.31892e-07
6.15236e-08
6.65178e-06
2.02797e-07
3.99412e-08
5.8965e-06
7.55097e-09
4.83788e-06
1.80102e-07
-1.45489e-08
4.51563e-06
1.54167e-07
2.22549e-07
4.65851e-08
4.5239e-06
2.10143e-07
1.28141e-07
4.68833e-06
1.75918e-07
2.06808e-07
6.09994e-06
1.62397e-07
2.00444e-07
6.59521e-06
1.18746e-07
1.84412e-07
5.72689e-06
7.39859e-08
4.73644e-06
1.74225e-07
2.65103e-08
-3.12408e-08
-8.54627e-08
6.33524e-06
4.52081e-08
8.83451e-08
-2.24186e-08
-6.53036e-08
6.20795e-06
7.69454e-08
-9.06257e-09
-6.59921e-08
5.83519e-06
7.53255e-08
1.00134e-08
-7.27708e-08
5.28709e-06
7.6103e-08
2.90897e-08
-7.75806e-08
4.6458e-06
7.62344e-08
4.29156e-08
-7.9639e-08
3.98065e-06
7.57832e-08
-8.03541e-08
3.3282e-06
4.85207e-08
7.44922e-08
-2.04524e-08
-8.04119e-08
6.87254e-06
4.61954e-08
-2.45186e-08
-3.38444e-08
6.76375e-06
-2.01745e-08
-4.60483e-08
6.44747e-06
5.23197e-09
-7.12703e-08
6.14689e-06
3.03598e-08
-7.64249e-08
5.38106e-06
4.86358e-08
-7.82981e-08
4.55939e-06
-7.97645e-08
3.79361e-06
5.69953e-08
1.74849e-08
-7.41778e-08
5.31214e-06
3.19021e-08
3.13691e-09
-3.00971e-09
4.55516e-06
-6.35792e-11
-3.15322e-08
5.38255e-06
2.32229e-08
-6.31389e-08
6.27233e-06
4.61555e-08
-6.54765e-08
6.05104e-06
6.30925e-08
-6.72992e-08
5.10398e-06
-7.00655e-08
4.21232e-06
7.09081e-08
2.65624e-08
-1.52535e-07
4.5505e-06
2.61566e-08
7.92478e-08
-8.61779e-08
4.38221e-06
3.70509e-08
-8.36741e-08
4.75031e-06
5.48922e-08
-5.58481e-08
5.60005e-06
7.02919e-08
-4.47073e-08
6.37365e-06
7.99791e-08
-4.38997e-08
5.54664e-06
-5.16004e-08
4.54643e-06
8.57702e-08
2.44431e-07
-6.51752e-08
5.31094e-06
1.1077e-08
1.09585e-07
-1.31217e-07
4.92326e-06
2.93308e-08
-1.11425e-07
4.85594e-06
4.98835e-08
-4.06652e-08
5.42751e-06
7.51771e-08
-2.38888e-08
6.66591e-06
8.61793e-08
-1.90723e-08
5.81575e-06
-3.12324e-08
4.75417e-06
9.40012e-08
2.73584e-08
-1.4571e-08
5.29687e-06
7.59552e-08
1.05208e-07
-3.17857e-08
4.83482e-06
4.81843e-08
-3.05326e-08
4.28272e-06
6.74735e-08
-9.49563e-09
5.68078e-06
7.48594e-08
8.25426e-09
6.64468e-06
8.47309e-08
7.04581e-09
5.86047e-06
-1.30864e-08
4.80869e-06
9.57974e-08
3.22383e-08
5.6502e-06
3.93685e-08
2.69566e-08
3.12626e-08
5.71401e-06
5.71797e-08
3.16485e-08
5.46847e-06
4.1459e-08
3.44529e-08
6.21927e-06
3.00018e-08
5.24509e-08
6.5785e-06
2.91422e-08
7.41616e-08
5.69242e-06
1.97657e-08
4.70886e-06
9.69173e-08
-8.34929e-09
-5.12361e-08
5.81245e-08
6.2878e-06
3.81043e-08
2.43644e-09
-5.46902e-08
5.74832e-08
6.15691e-06
-3.24715e-09
-4.09891e-08
2.36991e-08
5.78382e-06
1.38388e-08
-1.70794e-08
-1.01188e-08
5.23996e-06
3.32176e-08
9.97453e-09
-4.09158e-08
4.60886e-06
5.07343e-08
3.10278e-08
-6.07688e-08
3.95782e-06
6.23734e-08
-7.33039e-08
3.321e-06
4.18895e-08
6.94642e-08
-6.6145e-08
7.62292e-08
6.79628e-06
3.93385e-08
-8.68877e-08
7.01434e-08
6.65241e-06
-8.08287e-08
4.33544e-08
6.35841e-06
-4.87254e-08
1.35863e-08
6.08235e-06
-7.35485e-09
-2.88234e-08
5.32762e-06
2.52947e-08
-5.51483e-08
4.52089e-06
-7.14348e-08
3.77281e-06
4.3773e-08
-4.47807e-08
3.47344e-08
5.17168e-06
8.56466e-09
-4.88857e-08
5.2527e-08
4.47575e-06
-7.24264e-08
1.66767e-08
5.11428e-06
-6.6783e-08
1.68326e-08
6.14139e-06
-1.77307e-08
-1.80046e-08
5.981e-06
2.43154e-08
-4.52044e-08
5.05187e-06
-6.29623e-08
4.17935e-06
4.86915e-08
-3.8315e-08
4.9844e-08
4.32438e-06
3.43822e-08
-2.71607e-08
2.42941e-08
4.41359e-06
-3.24642e-08
-6.40652e-09
3.9793e-06
-6.09982e-08
5.47905e-09
5.31233e-06
-2.12903e-08
-1.02172e-08
6.28738e-06
2.52606e-08
-2.98389e-08
5.48474e-06
-4.88595e-08
4.50387e-06
5.3757e-08
-3.48721e-08
-6.92682e-08
5.26664e-06
6.27149e-08
-3.05124e-08
-5.32616e-08
4.97485e-06
-2.51442e-08
-3.8678e-08
4.3513e-06
-6.96853e-08
-1.67588e-08
5.16005e-06
-3.52008e-08
-8.44676e-09
6.58501e-06
1.83485e-08
-1.63143e-08
5.74869e-06
-3.54158e-08
4.70563e-06
5.35032e-08
-3.36188e-08
-4.73175e-08
6.43161e-06
1.75131e-07
-3.12374e-08
-2.86938e-08
4.60725e-06
-4.33768e-08
-3.02178e-08
4.21689e-06
-9.86517e-08
-4.83913e-08
5.5311e-06
-6.13419e-08
-2.24543e-08
6.57112e-06
4.07455e-09
-1.36798e-08
5.79241e-06
-2.98577e-08
4.75799e-06
4.92765e-08
-2.06721e-08
5.80504e-06
3.48002e-08
-8.60699e-08
-6.45299e-08
5.56153e-06
-5.20357e-08
-1.00458e-07
5.24376e-06
-6.34586e-08
-1.35006e-07
6.10724e-06
-8.53992e-08
-7.62948e-08
6.51074e-06
-4.45217e-08
-2.02596e-09
5.62647e-06
-2.20257e-08
4.66016e-06
5.34965e-08
-3.67113e-08
-5.63923e-08
-7.83416e-09
6.23013e-06
6.15735e-08
6.02509e-08
-4.00709e-08
-1.77191e-08
6.09557e-06
6.25167e-08
-8.69462e-09
-5.06841e-08
5.72396e-06
7.92364e-08
2.29538e-08
-7.23602e-08
5.18929e-06
9.13439e-08
5.04337e-08
-9.11532e-08
4.57312e-06
9.95834e-08
6.73822e-08
-1.0145e-07
3.93973e-06
1.02392e-07
-1.05897e-07
3.32043e-06
7.18404e-08
1.0194e-07
-9.40233e-08
3.38521e-08
6.51269e-06
8.92839e-08
-8.08662e-08
1.84154e-08
6.36847e-06
-4.49608e-08
-1.43983e-08
6.1881e-06
1.7012e-09
-4.51589e-08
5.99572e-06
4.44797e-08
-7.55276e-08
5.26939e-06
7.25896e-08
-9.33737e-08
4.48463e-06
-1.02973e-07
3.75774e-06
8.44978e-08
-1.01387e-07
1.47939e-08
4.31107e-06
7.96505e-08
-5.26441e-08
1.36341e-09
4.13461e-06
-4.43691e-08
-1.8443e-08
4.40999e-06
-1.28382e-08
-1.23276e-08
5.87996e-06
4.26504e-08
-5.0788e-08
5.88784e-06
8.00086e-08
-7.66396e-08
4.99781e-06
-9.06092e-08
4.15008e-06
9.70813e-08
-1.23395e-07
5.19773e-08
4.27953e-06
1.64671e-07
-3.92845e-08
1.33955e-08
4.30155e-06
-1.25433e-08
1.27594e-09
3.84585e-06
-1.36944e-08
9.66143e-09
4.66743e-06
4.32776e-08
-2.11346e-08
6.13041e-06
8.50186e-08
-4.95465e-08
5.41605e-06
-7.02089e-08
4.46266e-06
1.0591e-07
-1.73509e-07
1.33388e-07
5.10933e-06
2.27913e-07
-3.8721e-08
8.55912e-08
4.76088e-06
-3.42022e-08
2.28026e-08
4.32481e-06
-3.88449e-08
4.62848e-09
4.21394e-06
2.21455e-08
-7.40761e-09
6.36261e-06
7.65953e-08
-2.59725e-08
5.67056e-06
-4.96854e-08
4.65617e-06
1.05529e-07
-2.05229e-07
3.05184e-08
5.81964e-06
3.2289e-07
-8.02705e-08
3.63175e-08
4.54165e-06
-3.51125e-08
4.58287e-09
4.12965e-06
-7.36052e-08
-2.49515e-08
4.64119e-06
-9.49279e-09
-1.31523e-08
6.3678e-06
5.94391e-08
-1.43791e-08
5.71186e-06
-3.63604e-08
4.70527e-06
9.88868e-08
-1.39439e-07
5.22643e-06
1.3553e-07
-4.04111e-08
-1.04281e-07
4.57955e-06
-2.86965e-08
-1.00347e-07
4.14732e-06
-4.47117e-08
-1.1373e-07
5.59107e-06
-6.60635e-08
-3.20271e-08
6.36182e-06
-2.93029e-08
4.64388e-08
5.54886e-06
-1.52022e-08
4.60876e-06
9.56942e-08
-3.41453e-08
-4.91737e-08
-2.42579e-07
6.15971e-06
1.1399e-07
2.48161e-07
1.81611e-08
-2.58881e-07
6.02032e-06
2.66924e-07
9.50776e-08
-2.83627e-07
5.65227e-06
2.78641e-07
1.54959e-07
-2.68576e-07
5.12859e-06
2.6956e-07
1.97459e-07
-2.50502e-07
4.52588e-06
2.55391e-07
2.25051e-07
-2.38504e-07
3.90704e-06
2.43442e-07
-2.30887e-07
3.30424e-06
2.37237e-07
2.34893e-07
-8.34218e-08
-1.39657e-07
6.35182e-06
1.52776e-07
-1.16255e-08
-1.53251e-07
6.2338e-06
8.95495e-08
-2.23737e-07
6.07554e-06
1.70744e-07
-2.52485e-07
5.90322e-06
2.17867e-07
-2.30001e-07
5.20184e-06
2.46316e-07
-2.18735e-07
4.4363e-06
-2.12967e-07
3.72696e-06
2.5906e-07
-9.97569e-08
-7.43123e-08
3.72902e-06
1.51284e-07
-1.598e-08
-1.62611e-07
3.97847e-06
8.61433e-08
-1.12041e-07
4.22378e-06
2.0705e-07
-1.59337e-07
5.74576e-06
2.48162e-07
-1.71624e-07
5.79498e-06
2.71846e-07
-1.77857e-07
4.93343e-06
-1.78873e-07
4.10655e-06
2.81463e-07
-1.78655e-07
-3.47667e-08
4.25551e-06
2.08505e-07
-7.44264e-09
-1.12498e-07
4.9798e-06
6.09462e-08
-8.30042e-08
3.72615e-06
1.94205e-07
-4.76774e-08
4.52681e-06
2.69603e-07
-9.45694e-08
6.00557e-06
2.9049e-07
-1.18094e-07
5.33552e-06
-1.31028e-07
4.40781e-06
2.975e-07
-2.66523e-07
8.62687e-08
6.6748e-06
3.83857e-07
-2.8049e-08
7.05584e-08
7.34556e-06
1.78964e-08
3.19461e-08
4.14485e-06
1.35916e-07
-9.20179e-10
4.02491e-06
2.58103e-07
-3.54597e-08
6.18581e-06
2.88799e-07
-5.60799e-08
5.57781e-06
-7.86874e-08
4.59289e-06
2.997e-07
-1.85686e-07
8.23781e-08
4.59712e-06
2.90849e-07
-7.57916e-08
5.38516e-08
4.45271e-06
2.76795e-09
5.34881e-08
4.02544e-06
1.22134e-07
3.267e-08
4.35021e-06
2.32806e-07
2.08907e-08
6.21217e-06
2.72547e-07
9.59305e-10
5.61515e-06
-2.91438e-08
4.63818e-06
2.90066e-07
-1.47729e-07
4.14234e-06
2.03824e-07
8.36116e-08
-5.04867e-08
4.08256e-06
4.64756e-08
-7.66811e-09
3.71659e-06
5.55049e-08
1.0698e-07
5.36525e-06
7.76508e-08
1.96064e-07
6.2279e-06
6.80064e-08
2.44972e-07
5.45661e-06
4.43919e-08
4.54347e-06
2.71424e-07
9.73082e-09
-4.71885e-08
-4.34624e-07
1.86572e-07
4.09364e-07
6.04562e-06
7.56151e-08
-4.63399e-07
4.53023e-07
5.9081e-06
1.89094e-07
-4.68712e-07
4.60244e-07
5.54737e-06
2.76264e-07
-4.3759e-07
4.44687e-07
5.0345e-06
3.40496e-07
-4.06207e-07
4.253e-07
4.44254e-06
3.88112e-07
-3.86407e-07
4.10861e-07
3.83508e-06
-3.7004e-07
4.21272e-07
3.95828e-07
3.24539e-06
-6.12228e-08
-2.67912e-07
2.08108e-07
6.23159e-06
6.53731e-08
-2.88098e-07
6.17157e-06
2.07555e-07
-3.80006e-07
6.00314e-06
3.16599e-07
-4.1629e-07
5.79259e-06
3.79538e-07
-3.74265e-07
5.1071e-06
4.24598e-07
-3.48971e-07
4.3541e-06
-3.33008e-07
4.58049e-07
3.65665e-06
-6.86681e-08
-1.19436e-07
1.94463e-07
3.77767e-06
3.38636e-08
-2.18889e-07
3.94206e-06
2.04951e-07
-1.77817e-07
4.36513e-06
3.86986e-07
-2.86087e-07
5.69132e-06
4.31785e-07
-2.94484e-07
5.68585e-06
4.61723e-07
-2.8482e-07
4.8394e-06
-2.75235e-07
4.85979e-07
4.02453e-06
-1.41231e-07
-4.00648e-08
2.30651e-07
4.16009e-06
-6.60466e-09
-1.83782e-07
4.63297e-06
1.33539e-07
-1.96386e-07
3.59433e-06
3.96191e-07
-1.41914e-07
4.75401e-06
4.72899e-07
-1.7565e-07
5.90396e-06
4.8922e-07
-1.93701e-07
5.22821e-06
-1.97406e-07
5.04197e-07
4.31505e-06
-2.14435e-07
-5.89539e-09
1.75904e-07
6.10817e-06
-9.55659e-08
-1.16965e-07
7.43071e-06
1.30921e-07
1.03413e-08
5.38502e-06
2.85073e-07
-1.84473e-08
4.694e-06
4.64792e-07
-8.38127e-08
6.04626e-06
4.8733e-07
-9.5776e-08
5.45755e-06
-1.09882e-07
5.01831e-07
4.49088e-06
-1.23201e-07
6.34425e-08
2.08377e-07
4.45273e-06
-9.20382e-08
-5.16183e-09
4.32006e-06
6.22454e-08
5.12165e-08
3.83304e-06
3.17254e-07
6.04969e-08
4.47698e-06
4.41878e-07
3.53496e-08
6.09608e-06
4.65258e-07
1.03959e-08
5.48572e-06
-1.73761e-08
4.81103e-07
4.52973e-06
-1.12411e-07
2.27441e-07
1.75748e-07
3.92002e-06
-4.20214e-08
6.9522e-08
3.94757e-06
6.66933e-08
1.19237e-07
3.54876e-06
3.10447e-07
1.97221e-07
5.36363e-06
3.83684e-07
1.51299e-07
6.09319e-06
4.14828e-07
1.11688e-07
5.32414e-06
4.32117e-07
7.78681e-08
4.43083e-06
9.36105e-08
-3.34703e-08
1.70705e-06
9.30922e-09
9.88161e-08
-3.24137e-08
1.71641e-06
8.8081e-09
9.68375e-08
-3.27975e-08
1.64455e-06
8.33675e-09
8.79695e-08
-3.38899e-08
1.51199e-06
7.94607e-09
7.28696e-08
-3.56364e-08
1.3338e-06
7.71294e-09
5.21937e-08
-3.77953e-08
1.11601e-06
7.73559e-09
2.71812e-08
-4.015e-08
8.43598e-07
7.8983e-09
-4.13378e-08
4.14822e-07
8.96886e-09
1.11976e-07
-5.30377e-08
2.421e-06
1.1492e-07
-5.32545e-08
2.31129e-06
1.1085e-07
-5.61762e-08
2.12946e-06
9.9889e-08
-6.01427e-08
1.89418e-06
8.24459e-08
-6.48277e-08
1.62001e-06
5.91354e-08
-6.97428e-08
1.31237e-06
3.07289e-08
-7.42631e-08
9.51997e-07
-7.58885e-08
4.15746e-07
1.36472e-07
-6.52706e-08
3.02039e-06
1.36913e-07
-6.83622e-08
2.83368e-06
1.29936e-07
-7.43753e-08
2.57732e-06
1.1569e-07
-8.17593e-08
2.27248e-06
9.45594e-08
-8.97378e-08
1.93411e-06
6.72245e-08
-9.75773e-08
1.56694e-06
3.46095e-08
-1.04407e-07
1.14817e-06
-1.06902e-07
5.36676e-07
1.60896e-07
-6.93881e-08
3.39268e-06
1.5858e-07
-7.64732e-08
3.18984e-06
1.48771e-07
-8.54551e-08
2.91735e-06
1.31388e-07
-9.59376e-08
2.59724e-06
1.06796e-07
-1.06818e-07
2.24464e-06
7.5651e-08
-1.17176e-07
1.86379e-06
3.89793e-08
-1.25934e-07
1.4296e-06
-1.29098e-07
7.88941e-07
1.76991e-07
-6.97162e-08
3.44215e-06
1.73235e-07
-7.95418e-08
3.29651e-06
1.61915e-07
-9.0147e-08
3.07774e-06
1.42664e-07
-1.02378e-07
2.80718e-06
1.15798e-07
-1.14842e-07
2.49959e-06
8.18962e-08
-1.26552e-07
2.15891e-06
4.21563e-08
-1.36355e-07
1.75936e-06
-1.4021e-07
1.1438e-06
1.82183e-07
-6.97608e-08
3.13198e-06
1.77512e-07
-7.92709e-08
3.11136e-06
1.65732e-07
-9.00338e-08
3.01084e-06
1.46123e-07
-1.02283e-07
2.84963e-06
1.18716e-07
-1.14712e-07
2.64214e-06
8.40996e-08
-1.26455e-07
2.39249e-06
4.35836e-08
-1.3635e-07
2.07619e-06
-1.39809e-07
1.54064e-06
1.78528e-07
2.49243e-06
-7.33419e-08
1.75315e-07
2.64632e-06
-7.9439e-08
1.63797e-07
2.70544e-06
-8.70264e-08
1.4374e-07
2.69284e-06
-9.63131e-08
1.15521e-07
2.62328e-06
-1.06505e-07
8.02636e-08
2.50091e-06
-1.16874e-07
3.99476e-08
2.304e-06
-1.26814e-07
1.88983e-06
-1.33442e-07
6.12961e-08
-3.17197e-08
1.71286e-06
1.27103e-08
6.87043e-08
-3.27013e-08
1.72921e-06
1.20377e-08
7.00155e-08
-3.37963e-08
1.66523e-06
1.14232e-08
6.54066e-08
-3.53553e-08
1.54066e-06
1.09892e-08
5.56025e-08
-3.72729e-08
1.3699e-06
1.0775e-08
4.16021e-08
-3.94425e-08
1.15847e-06
1.08717e-08
2.45921e-08
-4.17481e-08
8.91295e-07
1.10701e-08
-4.26527e-08
4.69515e-07
1.26123e-08
7.12686e-08
-4.77073e-08
2.42231e-06
7.93055e-08
-5.15197e-08
2.32173e-06
8.03512e-08
-5.55378e-08
2.14984e-06
7.4782e-08
-6.02133e-08
1.92437e-06
6.33925e-08
-6.51848e-08
1.65918e-06
4.72614e-08
-7.01292e-08
1.35911e-06
2.71418e-08
-7.44925e-08
1.00478e-06
-7.55977e-08
4.75787e-07
8.56093e-08
-5.77484e-08
3.01545e-06
9.32162e-08
-6.46158e-08
2.839e-06
9.33631e-08
-7.2387e-08
2.59383e-06
8.61803e-08
-8.07465e-08
2.30001e-06
7.24446e-08
-8.91257e-08
1.97164e-06
5.33215e-08
-9.70096e-08
1.61282e-06
2.99952e-08
-1.03646e-07
1.20052e-06
-1.05585e-07
5.96596e-07
9.96319e-08
-6.0806e-08
3.38185e-06
1.06488e-07
-7.08205e-08
3.1891e-06
1.05525e-07
-8.20696e-08
2.92781e-06
9.68006e-08
-9.37363e-08
2.61879e-06
8.10068e-08
-1.05065e-07
2.27627e-06
5.92709e-08
-1.15404e-07
1.90385e-06
3.29759e-08
-1.23861e-07
1.47607e-06
-1.26503e-07
8.42818e-07
1.07217e-07
-5.9764e-08
3.42788e-06
1.13818e-07
-7.18488e-08
3.29085e-06
1.12467e-07
-8.50211e-08
3.08195e-06
1.02996e-07
-9.84855e-08
2.82131e-06
8.60411e-08
-1.11346e-07
2.52285e-06
6.26932e-08
-1.22901e-07
2.18983e-06
3.43647e-08
-1.32224e-07
1.79616e-06
-1.35404e-07
1.18713e-06
1.07449e-07
-5.71067e-08
3.11766e-06
1.13065e-07
-6.94064e-08
3.10319e-06
1.11396e-07
-8.27245e-08
3.01015e-06
1.01945e-07
-9.6157e-08
2.85675e-06
8.5084e-08
-1.089e-07
2.6566e-06
6.18996e-08
-1.20357e-07
2.41326e-06
3.37621e-08
-1.29603e-07
2.10189e-06
-1.32401e-07
1.57151e-06
1.0518e-07
2.48114e-06
-5.42004e-08
1.0864e-07
2.6382e-06
-6.48169e-08
1.05318e-07
2.70191e-06
-7.59321e-08
9.46563e-08
2.69455e-06
-8.72045e-08
7.71052e-08
2.63013e-06
-9.82677e-08
5.40166e-08
2.51242e-06
-1.08708e-07
2.74058e-08
2.31923e-06
-1.18132e-07
1.90874e-06
-1.23922e-07
5.66521e-08
-3.3843e-08
1.71805e-06
1.36426e-08
6.59915e-08
-3.63525e-08
1.74304e-06
1.2913e-08
6.81534e-08
-3.80466e-08
1.68873e-06
1.22403e-08
6.27741e-08
-3.99474e-08
1.57421e-06
1.184e-08
5.01661e-08
-4.2036e-08
1.41306e-06
1.1633e-08
3.18089e-08
-4.43971e-08
1.20977e-06
1.16121e-08
1.24224e-08
-4.70621e-08
9.46483e-07
1.14213e-08
-4.87378e-08
5.19363e-07
1.14251e-08
6.2596e-08
-5.03252e-08
2.41975e-06
7.42378e-08
-5.68568e-08
2.33051e-06
7.74022e-08
-6.21441e-08
2.17077e-06
7.20532e-08
-6.76357e-08
1.9575e-06
5.88419e-08
-7.32148e-08
1.70371e-06
3.93772e-08
-7.88567e-08
1.41314e-06
1.78561e-08
-8.4344e-08
1.06366e-06
-8.75183e-08
5.32349e-07
7.06251e-08
-5.9912e-08
3.00312e-06
8.34995e-08
-7.02155e-08
2.83953e-06
8.71419e-08
-7.99172e-08
2.608e-06
8.13449e-08
-8.94664e-08
2.32763e-06
6.68293e-08
-9.86716e-08
2.01162e-06
4.51658e-08
-1.07351e-07
1.66295e-06
2.04553e-08
-1.15093e-07
1.25592e-06
-1.19062e-07
6.48499e-07
7.68338e-08
-6.20028e-08
3.36091e-06
9.01358e-08
-7.52604e-08
3.18089e-06
9.37678e-08
-8.88906e-08
2.93317e-06
8.74671e-08
-1.01905e-07
2.63748e-06
7.19163e-08
-1.13987e-07
2.30713e-06
4.86294e-08
-1.24823e-07
1.94461e-06
2.12876e-08
-1.33799e-07
1.5221e-06
-1.37284e-07
8.82372e-07
7.66425e-08
-5.95035e-08
3.40227e-06
9.02771e-08
-7.40919e-08
3.27607e-06
9.40352e-08
-8.97885e-08
3.07902e-06
8.77656e-08
-1.04458e-07
2.8301e-06
7.20831e-08
-1.17791e-07
2.54232e-06
4.85808e-08
-1.29407e-07
2.21801e-06
2.06091e-08
-1.38586e-07
1.82904e-06
-1.41348e-07
1.21188e-06
7.00439e-08
-5.52421e-08
3.0926e-06
8.29765e-08
-6.96405e-08
3.08577e-06
8.66155e-08
-8.49267e-08
3.00158e-06
8.08388e-08
-9.90467e-08
2.85716e-06
6.62225e-08
-1.11812e-07
2.66529e-06
4.44278e-08
-1.22918e-07
2.42866e-06
1.87254e-08
-1.31672e-07
2.12076e-06
-1.33812e-07
1.58262e-06
6.52421e-08
2.46155e-06
-4.7477e-08
7.31825e-08
2.62214e-06
-6.162e-08
7.41297e-08
2.69104e-06
-7.49871e-08
6.73138e-08
2.68946e-06
-8.70319e-08
5.31788e-08
2.63036e-06
-9.80076e-08
3.34523e-08
2.5172e-06
-1.07904e-07
1.1715e-08
2.32584e-06
-1.16592e-07
1.90793e-06
-1.21281e-07
9.08633e-08
-4.06413e-08
1.72447e-06
1.52369e-08
1.02006e-07
-4.24694e-08
1.75861e-06
1.58499e-08
1.0315e-07
-4.38133e-08
1.71488e-06
1.66621e-08
9.45215e-08
-4.54945e-08
1.61062e-06
1.79237e-08
7.75012e-08
-4.73411e-08
1.45799e-06
1.95738e-08
5.42592e-08
-4.92557e-08
1.26065e-06
2.16998e-08
2.37822e-08
-5.08292e-08
1.00358e-06
2.42204e-08
-5.01966e-08
5.67322e-07
2.59554e-08
1.05789e-07
-6.29914e-08
2.42075e-06
1.17356e-07
-6.77511e-08
2.34432e-06
1.17657e-07
-7.17248e-08
2.19853e-06
1.0664e-07
-7.58044e-08
1.99893e-06
8.56493e-08
-7.97294e-08
1.7571e-06
5.71593e-08
-8.32258e-08
1.47554e-06
2.12022e-08
-8.54532e-08
1.13418e-06
-8.23427e-08
5.85577e-07
1.19953e-07
-7.74626e-08
2.99489e-06
1.31885e-07
-8.59583e-08
2.8459e-06
1.32125e-07
-9.38863e-08
2.62997e-06
1.20371e-07
-1.01405e-07
2.36495e-06
9.7793e-08
-1.08247e-07
2.06265e-06
6.6754e-08
-1.14031e-07
1.72469e-06
2.74083e-08
-1.17639e-07
1.32733e-06
-1.13294e-07
7.06831e-07
1.28987e-07
-8.25792e-08
3.34299e-06
1.40916e-07
-9.40629e-08
3.17711e-06
1.41499e-07
-1.05648e-07
2.9444e-06
1.30424e-07
-1.16308e-07
2.66343e-06
1.08768e-07
-1.25783e-07
2.34629e-06
7.87406e-08
-1.33719e-07
1.99435e-06
3.97876e-08
-1.3903e-07
1.58242e-06
-1.3559e-07
9.44443e-07
1.28393e-07
-8.0859e-08
3.37773e-06
1.40357e-07
-9.30604e-08
3.26314e-06
1.41506e-07
-1.06367e-07
3.07848e-06
1.32023e-07
-1.18428e-07
2.84167e-06
1.12941e-07
-1.29179e-07
2.56476e-06
8.62478e-08
-1.38329e-07
2.24934e-06
5.06297e-08
-1.44974e-07
1.87059e-06
-1.43694e-07
1.27047e-06
1.18974e-07
-7.50167e-08
3.06661e-06
1.30466e-07
-8.62443e-08
3.06743e-06
1.32176e-07
-9.84523e-08
2.99184e-06
1.24505e-07
-1.09464e-07
2.85585e-06
1.08547e-07
-1.19474e-07
2.67152e-06
8.59618e-08
-1.28319e-07
2.44118e-06
5.50212e-08
-1.35343e-07
2.1419e-06
-1.36042e-07
1.62974e-06
1.07204e-07
2.43938e-06
-6.43872e-08
1.15051e-07
2.60275e-06
-7.47692e-08
1.1585e-07
2.67612e-06
-8.42725e-08
1.09245e-07
2.67922e-06
-9.25837e-08
9.58426e-08
2.62421e-06
-1.00177e-07
7.69958e-08
2.51492e-06
-1.07321e-07
5.09817e-08
2.32989e-06
-1.13619e-07
1.93843e-06
-1.15511e-07
2.90762e-07
-6.04012e-08
1.73035e-06
9.89929e-10
3.32269e-07
-6.11288e-08
1.77659e-06
1.6699e-09
3.57752e-07
-6.21513e-08
1.74925e-06
2.35273e-09
3.62053e-07
-6.3519e-08
1.66674e-06
3.10329e-09
3.41311e-07
-6.54389e-08
1.5404e-06
3.7553e-09
2.94199e-07
-6.79508e-08
1.37167e-06
4.02734e-09
2.17874e-07
-7.08246e-08
1.14755e-06
3.08912e-09
-7.14418e-08
8.57229e-07
-7.6167e-10
3.11459e-07
-1.05827e-07
2.41368e-06
3.53474e-07
-1.08961e-07
2.35014e-06
3.8125e-07
-1.13135e-07
2.22178e-06
3.89426e-07
-1.17802e-07
2.04502e-06
3.73621e-07
-1.23237e-07
1.8306e-06
3.31695e-07
-1.29661e-07
1.57905e-06
2.55868e-07
-1.37227e-07
1.27628e-06
-1.42946e-07
9.12897e-07
3.29859e-07
-1.33348e-07
2.97402e-06
3.6913e-07
-1.39477e-07
2.83707e-06
3.95118e-07
-1.46702e-07
2.6375e-06
4.02747e-07
-1.5444e-07
2.39393e-06
3.87256e-07
-1.6275e-07
2.11758e-06
3.45763e-07
-1.71899e-07
1.80834e-06
2.69051e-07
-1.82329e-07
1.44905e-06
-1.9202e-07
1.02499e-06
3.38804e-07
-1.42848e-07
3.31112e-06
3.7169e-07
-1.50875e-07
3.15557e-06
3.92019e-07
-1.59639e-07
2.937e-06
3.94946e-07
-1.6884e-07
2.6749e-06
3.75708e-07
-1.78325e-07
2.38107e-06
3.31294e-07
-1.8832e-07
2.05518e-06
2.54666e-07
-1.99313e-07
1.67599e-06
-2.10111e-07
1.21707e-06
3.33491e-07
-1.39563e-07
3.34065e-06
3.58421e-07
-1.46716e-07
3.23404e-06
3.71289e-07
-1.54731e-07
3.06071e-06
3.67702e-07
-1.6327e-07
2.83971e-06
3.43111e-07
-1.72098e-07
2.58311e-06
2.94479e-07
-1.8135e-07
2.29089e-06
2.18884e-07
-1.91385e-07
1.938e-06
-2.00914e-07
1.47984e-06
3.15452e-07
-1.30402e-07
3.03202e-06
3.32235e-07
-1.34416e-07
3.03834e-06
3.37536e-07
-1.39569e-07
2.97136e-06
3.27006e-07
-1.4535e-07
2.84841e-06
2.96468e-07
-1.51669e-07
2.68156e-06
2.4344e-07
-1.58709e-07
2.47133e-06
1.70138e-07
-1.66762e-07
2.19013e-06
-1.73665e-07
1.77245e-06
2.88554e-07
2.41407e-06
-1.22234e-07
2.99079e-07
2.58013e-06
-1.22336e-07
2.99066e-07
2.65947e-06
-1.22904e-07
2.84033e-07
2.67287e-06
-1.24116e-07
2.49848e-07
2.6331e-06
-1.26379e-07
1.94451e-07
2.54181e-06
-1.30322e-07
1.23384e-07
2.36958e-06
-1.35572e-07
2.0278e-06
-1.39582e-07
5.40669e-07
-7.54566e-08
-8.03992e-09
1.69446e-06
6.4715e-07
-7.30505e-08
-4.35513e-09
1.74749e-06
7.30803e-07
-7.37684e-08
3.37037e-10
1.73899e-06
7.79245e-07
-7.56483e-08
6.79503e-09
1.68712e-06
7.75718e-07
-7.80986e-08
1.49649e-08
1.6071e-06
6.90895e-07
-8.05773e-08
2.54978e-08
1.51162e-06
4.65803e-07
-8.18962e-08
3.94011e-08
1.4151e-06
-7.81458e-08
5.93329e-08
1.34166e-06
5.77168e-07
-1.45814e-07
2.36494e-06
6.863e-07
-1.42731e-07
2.31061e-06
7.74629e-07
-1.4312e-07
2.20279e-06
8.2801e-07
-1.4332e-07
2.05932e-06
8.27063e-07
-1.42428e-07
1.89584e-06
7.38394e-07
-1.39446e-07
1.7265e-06
4.98731e-07
-1.3264e-07
1.56651e-06
-1.1416e-07
1.44757e-06
5.9387e-07
-1.90944e-07
2.91118e-06
6.96962e-07
-1.9006e-07
2.78122e-06
7.83022e-07
-1.90421e-07
2.59876e-06
8.38385e-07
-1.89413e-07
2.38475e-06
8.42398e-07
-1.85802e-07
2.15693e-06
7.57814e-07
-1.78202e-07
1.93162e-06
5.14905e-07
-1.63982e-07
1.72316e-06
-1.32389e-07
1.55816e-06
5.95147e-07
-2.07251e-07
3.23643e-06
6.84566e-07
-2.08011e-07
3.08404e-06
7.60559e-07
-2.06871e-07
2.87741e-06
8.10588e-07
-2.03325e-07
2.63876e-06
8.15244e-07
-1.9623e-07
2.38671e-06
7.37474e-07
-1.84107e-07
2.1387e-06
5.03675e-07
-1.63792e-07
1.90953e-06
-1.24905e-07
1.71325e-06
5.75685e-07
-2.00183e-07
3.25966e-06
6.48424e-07
-1.99015e-07
3.15225e-06
7.1049e-07
-1.93888e-07
2.98574e-06
7.51627e-07
-1.86314e-07
2.78157e-06
7.55863e-07
-1.7561e-07
2.55817e-06
6.89523e-07
-1.60834e-07
2.33368e-06
4.75328e-07
-1.39406e-07
2.12749e-06
-1.0303e-07
1.93312e-06
5.40247e-07
-1.80105e-07
2.95277e-06
5.97514e-07
-1.72798e-07
2.95483e-06
6.46091e-07
-1.61739e-07
2.89072e-06
6.77339e-07
-1.48468e-07
2.77928e-06
6.78654e-07
-1.32876e-07
2.63745e-06
6.22612e-07
-1.14786e-07
2.48107e-06
4.36497e-07
-9.29674e-08
2.32944e-06
-6.26042e-08
2.16833e-06
4.82096e-07
-1.60215e-07
2.34422e-06
5.31241e-07
-1.43275e-07
2.50152e-06
5.74746e-07
-1.2525e-07
2.57942e-06
6.06468e-07
-1.06009e-07
2.59883e-06
6.15719e-07
-8.56928e-08
2.57685e-06
5.77847e-07
-6.32217e-08
2.52819e-06
4.20912e-07
-3.6253e-08
2.46978e-06
-1.52841e-09
2.38724e-06
2.74019e-07
-1.58374e-08
4.34707e-06
3.52378e-08
2.79986e-07
5.37816e-09
6.27598e-06
2.24415e-08
2.5558e-07
4.45598e-09
6.76519e-06
1.23996e-08
2.25971e-07
-1.04872e-08
7.05008e-06
1.36224e-08
1.89176e-07
-2.7522e-08
7.24857e-06
2.12055e-08
1.38418e-07
-3.78318e-08
7.35722e-06
3.04836e-08
7.34206e-08
-4.68656e-08
7.31816e-06
4.0359e-08
-5.92327e-08
6.80587e-06
5.1016e-08
3.84581e-07
1.78269e-08
3.90888e-06
5.88215e-07
6.07249e-08
6.54893e-06
5.46761e-07
6.18887e-08
8.49073e-06
4.7862e-07
3.14658e-08
8.61648e-06
3.90618e-07
8.59632e-09
8.65495e-06
2.82681e-07
-1.34533e-09
8.62509e-06
1.52043e-07
-4.35616e-09
8.45317e-06
-5.91039e-09
7.77041e-06
3.68707e-07
9.40356e-08
4.06223e-06
6.73603e-07
1.07564e-07
6.76059e-06
6.73921e-07
1.08586e-07
9.29445e-06
5.97988e-07
8.06443e-08
9.38208e-06
4.86081e-07
6.36233e-08
9.3067e-06
3.46752e-07
6.04299e-08
9.17743e-06
1.82518e-07
6.59097e-08
8.91717e-06
7.5587e-08
8.11357e-06
3.46174e-07
1.23399e-07
4.3832e-06
5.93902e-07
1.24263e-07
7.12507e-06
5.88689e-07
1.24455e-07
9.12113e-06
5.29869e-07
1.09039e-07
9.09085e-06
4.34209e-07
1.04684e-07
9.00042e-06
3.11528e-07
1.10414e-07
8.85396e-06
1.65292e-07
1.2423e-07
8.57586e-06
1.4154e-07
7.77962e-06
2.80167e-07
1.39171e-07
5.49471e-06
3.57287e-07
1.15987e-07
7.48613e-06
3.63017e-07
1.06354e-07
7.86195e-06
3.33843e-07
1.06648e-07
7.90445e-06
2.77361e-07
1.13548e-07
7.87982e-06
1.99629e-07
1.26001e-07
7.7878e-06
1.04854e-07
1.42315e-07
7.56258e-06
1.61017e-07
6.86909e-06
1.64674e-07
1.00001e-07
5.42942e-06
1.91525e-07
8.36881e-08
5.91437e-06
1.9703e-07
8.42623e-08
6.14031e-06
1.83812e-07
9.25651e-08
6.26883e-06
1.54333e-07
1.04684e-07
6.32223e-06
1.1176e-07
1.19392e-07
6.30072e-06
5.94297e-08
1.35627e-07
6.14958e-06
1.52646e-07
5.60685e-06
1.08181e-07
3.74644e-06
6.1467e-08
1.22072e-07
4.12404e-06
6.10211e-08
1.23774e-07
4.39638e-06
6.74813e-08
1.15066e-07
4.58065e-06
7.83295e-08
9.74332e-08
4.69114e-06
9.0956e-08
7.18469e-08
4.72696e-06
1.04659e-07
3.94841e-08
4.65689e-06
1.1888e-07
4.2599e-06
1.31917e-07
7.24092e-08
3.57178e-08
4.42397e-06
-1.51638e-08
6.5211e-08
5.14663e-08
6.26601e-06
-2.73773e-08
6.63477e-08
2.35513e-08
6.75947e-06
-1.96547e-08
7.47087e-08
-6.55865e-09
7.05355e-06
-5.77061e-09
7.62018e-08
-2.39485e-08
7.26249e-06
8.25609e-09
6.18306e-08
-2.97432e-08
7.38134e-06
1.95343e-08
3.39541e-08
-3.63175e-08
7.3513e-06
3.06087e-08
-4.76892e-08
6.8448e-06
4.25057e-08
2.87825e-07
7.33702e-08
5.65312e-06
3.26837e-07
8.59099e-08
6.76188e-06
3.03257e-07
5.70185e-08
8.47399e-06
2.73038e-07
1.5475e-08
8.62435e-06
2.30855e-07
-1.98123e-09
8.67507e-06
1.72387e-07
-2.92058e-09
8.65685e-06
9.47102e-08
-9.72838e-10
8.49365e-06
-1.17202e-09
7.81845e-06
2.74165e-07
1.09936e-07
6.22136e-06
3.89458e-07
9.07412e-08
7.1719e-06
3.95784e-07
6.71877e-08
9.30313e-06
3.54886e-07
4.3563e-08
9.39466e-06
2.92369e-07
3.70183e-08
9.32993e-06
2.11441e-07
4.32687e-08
9.21204e-06
1.11617e-07
5.37524e-08
8.95792e-06
6.46967e-08
8.17572e-06
2.14272e-07
6.7369e-08
5.35935e-06
3.2806e-07
6.49631e-08
7.36629e-06
3.33647e-07
6.27573e-08
9.12487e-06
3.06711e-07
5.99495e-08
9.1014e-06
2.56935e-07
6.66253e-08
9.02047e-06
1.887e-07
8.02961e-08
8.88503e-06
1.02289e-07
9.86359e-08
8.61899e-06
1.18872e-07
7.82853e-06
1.15807e-07
3.99834e-08
5.6624e-06
1.67606e-07
3.82633e-08
7.51982e-06
1.82037e-07
4.76435e-08
7.86255e-06
1.7565e-07
6.02551e-08
7.91052e-06
1.5082e-07
7.61932e-08
7.89501e-06
1.1025e-07
9.48302e-08
7.81373e-06
5.74839e-08
1.14632e-07
7.5921e-06
1.36487e-07
6.90861e-06
7.34328e-08
2.64167e-08
5.43575e-06
8.91745e-08
2.94475e-08
5.90806e-06
9.66808e-08
4.32339e-08
6.13715e-06
9.35619e-08
5.97457e-08
6.27233e-06
8.00419e-08
7.73181e-08
6.33447e-06
5.7707e-08
9.54765e-08
6.32144e-06
2.9746e-08
1.13918e-07
6.18543e-06
1.30444e-07
5.64297e-06
5.722e-08
3.73874e-06
2.19228e-08
6.14069e-08
4.11793e-06
3.12761e-08
6.17722e-08
4.39474e-06
4.44942e-08
5.78002e-08
4.58537e-06
5.88752e-08
4.94893e-08
4.70315e-06
7.34559e-08
3.73129e-08
4.74644e-06
8.79747e-08
2.21381e-08
4.68391e-06
1.02056e-07
4.29092e-06
1.137e-07
3.67791e-09
8.08347e-08
4.39347e-06
-6.68034e-08
8.4516e-09
5.24272e-08
6.2451e-06
-5.5746e-08
3.50521e-08
2.16241e-08
6.7445e-06
-3.33582e-08
5.84488e-08
3.32609e-09
7.04049e-06
-1.36008e-08
6.43168e-08
5.45721e-10
7.25677e-06
-7.72594e-10
5.28568e-08
-3.41567e-09
7.38547e-06
1.07436e-08
2.91021e-08
-1.18576e-08
7.36494e-06
2.19028e-08
-2.62012e-08
6.86536e-06
3.44486e-08
1.3476e-07
6.71755e-08
5.84207e-06
8.62775e-08
3.19102e-08
6.68312e-06
1.04873e-07
1.21693e-08
8.46699e-06
1.19388e-07
3.54699e-09
8.60955e-06
1.20505e-07
1.05454e-08
8.66386e-06
1.01109e-07
1.65392e-08
8.65639e-06
5.99518e-08
1.83796e-08
8.50444e-06
1.42717e-08
7.83808e-06
7.13747e-08
-9.47817e-09
6.32525e-06
4.15161e-08
-1.2047e-08
7.08654e-06
7.21561e-08
-1.25742e-08
9.30455e-06
9.59418e-08
9.19446e-10
9.37343e-06
1.06412e-07
1.91335e-08
9.3107e-06
9.43183e-08
3.56931e-08
9.20485e-06
5.7714e-08
4.88005e-08