/*--------------------------------*- C++ -*----------------------------------*\
| =========                 |                                                 |
| \\      /  F ield         | OpenFOAM: The Open Source CFD Toolbox           |
|  \\    /   O peration     | Version:  plus.master.MPPICInterFoam            |
|   \\  /    A nd           | Web:      www.OpenFOAM.com                      |
|    \\/     M anipulation  |                                                 |
\*---------------------------------------------------------------------------*/
FoamFile
{
    version     2.0;
    format      ascii;
    class       volScalarField;
    location    "10.8";
    object      p;
}
// * * * * * * * * * * * * * * * * * * * * * * * * * * * * * * * * * * * * * //

dimensions      [1 -1 -2 0 0 0 0];

internalField   nonuniform List<scalar> 
11822
(
760.809
760.507
760.224
759.878
759.588
759.34
759.139
762.313
761.762
761.415
760.549
760.002
759.638
759.332
767.284
767.401
765.367
762.579
760.743
760.047
759.579
772.215
768.209
768.442
765.237
761.806
760.501
759.828
773.302
768.56
769.172
766.941
762.165
760.709
759.968
771.972
772.851
772.383
766.589
762.295
760.74
760.03
770.897
771.979
770.195
764.861
761.587
760.478
759.957
669.119
668.882
668.594
668.332
668.05
667.745
667.455
670.416
669.887
669.436
668.863
668.466
668.095
667.727
674.847
674.323
672.229
670.314
669.049
668.486
667.997
677.979
675.737
672.99
672.105
669.84
668.869
668.228
680.443
674.05
673.357
673.583
670.265
669.089
668.366
682.979
680.089
678.158
673.619
670.385
669.124
668.41
679.264
677.812
675.863
672.223
669.726
668.828
668.274
574.595
574.594
574.671
574.713
574.678
574.574
574.436
574.276
574.22
574.618
574.694
574.773
574.712
574.586
575.775
576.433
575.717
575.118
574.897
574.86
574.715
577.402
577.303
576.242
575.714
575.099
574.995
574.822
575.701
576.231
576.26
575.466
575.041
575.036
574.87
577.829
577.823
577.446
575.231
574.934
574.999
574.867
577.09
575.732
575.656
575.11
574.753
574.874
574.8
481.08
481.19
481.446
481.629
481.815
481.977
482.119
480.171
480.405
481.081
481.282
481.618
481.87
482.044
480.515
481.814
481.75
481.396
481.514
481.816
482.003
482.115
483.651
482.934
481.828
481.61
481.854
482.008
480.918
483.768
483.011
481.325
481.398
481.808
482
476.661
481.759
482.26
480.527
481.113
481.678
481.973
478.371
478.845
480.186
480.564
481.057
481.684
481.993
389.658
389.64
389.628
389.451
389.289
389.124
388.887
389.94
390.002
390.156
389.689
389.437
389.284
389.067
392.514
393.076
392.574
390.842
389.793
389.495
389.238
393.852
394.548
393.6
392.321
390.214
389.753
389.422
392.893
396.338
394.564
392.487
390.097
389.867
389.543
390.274
393.275
393.24
391.823
390.1
389.863
389.595
390.889
391.792
392.562
390.919
389.939
389.799
389.594
302.996
302.702
302.44
302.002
301.623
301.332
301.2
304.106
303.857
303.626
302.603
301.974
301.576
301.266
308.756
308.511
307.411
304.514
302.628
301.961
301.495
309.651
308.545
309.908
306.859
303.352
302.352
301.784
307.523
315.981
310.408
308.466
303.331
302.576
302.031
309.342
309.398
310.642
307.733
303.775
302.76
302.24
309.146
309.681
309.809
306.195
303.522
302.761
302.414
758.94
758.829
758.741
758.683
758.662
758.678
758.721
758.77
759.063
758.899
758.78
758.705
758.671
758.678
758.72
758.776
759.212
758.997
758.846
758.749
758.698
758.694
758.735
758.794
759.372
759.11
758.931
758.815
758.752
758.74
758.776
758.833
759.49
759.205
759.013
758.891
758.824
758.81
758.843
758.895
759.604
759.303
759.112
758.992
758.929
758.914
758.938
758.98
759.613
759.383
759.209
759.091
759.033
759.022
759.044
759.076
667.188
667.052
666.956
666.896
666.868
666.868
666.887
666.917
667.404
667.201
667.051
666.95
666.894
666.876
666.89
666.925
667.605
667.336
667.139
667.005
666.924
666.893
666.902
666.937
667.767
667.456
667.23
667.073
666.975
666.932
666.934
666.966
667.867
667.543
667.309
667.146
667.043
666.993
666.989
667.014
667.934
667.612
667.39
667.238
667.141
667.091
667.08
667.097
667.846
667.602
667.423
667.302
667.232
667.2
667.195
667.205
574.275
574.228
574.221
574.237
574.272
574.333
574.415
574.487
574.437
574.362
574.316
574.296
574.306
574.351
574.43
574.509
574.574
574.466
574.393
574.352
574.346
574.383
574.459
574.542
574.678
574.557
574.472
574.421
574.408
574.436
574.505
574.584
574.724
574.617
574.541
574.494
574.48
574.504
574.564
574.634
574.716
574.644
574.596
574.568
574.564
574.588
574.638
574.693
574.571
574.539
574.551
574.578
574.613
574.657
574.707
574.745
482.203
482.299
482.391
482.485
482.571
482.644
482.691
482.743
482.144
482.244
482.337
482.428
482.52
482.604
482.665
482.733
482.127
482.216
482.302
482.388
482.476
482.559
482.622
482.693
482.144
482.227
482.307
482.384
482.461
482.532
482.586
482.647
482.152
482.251
482.336
482.41
482.477
482.535
482.575
482.619
482.122
482.266
482.37
482.448
482.511
482.558
482.583
482.609
482.022
482.17
482.313
482.427
482.508
482.556
482.575
482.58
388.536
388.321
388.13
387.985
387.94
388.07
388.394
388.669
388.728
388.474
388.257
388.083
387.999
388.09
388.4
388.682
388.917
388.666
388.442
388.254
388.148
388.214
388.51
388.784
389.11
388.874
388.664
388.485
388.381
388.441
388.729
388.983
389.256
389.051
388.874
388.725
388.645
388.721
389.01
389.244
389.311
389.162
389.034
388.927
388.886
388.989
389.279
389.494
389.255
389.178
389.11
389.054
389.056
389.185
389.471
389.666
301.248
301.301
301.364
301.562
301.94
302.502
303.207
303.75
301.066
300.962
300.968
301.151
301.539
302.153
302.96
303.6
301.159
300.982
300.941
301.08
301.427
302.003
302.788
303.403
301.373
301.165
301.099
301.206
301.507
302.015
302.702
303.205
301.645
301.459
301.403
301.499
301.759
302.181
302.712
303.049
301.931
301.792
301.751
301.834
302.05
302.375
302.73
302.876
302.383
302.395
302.35
302.369
302.477
302.633
302.772
302.741
766.614
762.928
761.758
761.12
760.701
760.479
760.448
760.533
770.78
765.932
762.563
761.368
760.775
760.518
760.544
760.733
772.222
766.513
762.766
761.357
760.688
760.425
760.478
760.739
769.688
764.764
761.951
760.951
760.443
760.238
760.304
760.512
764.692
761.745
760.775
760.303
760.03
759.925
759.983
760.162
761.165
760.447
760.125
759.883
759.726
759.671
759.766
759.846
760.307
760.102
759.908
759.708
759.562
759.507
759.526
759.602
674.021
670.438
669.512
668.942
668.566
668.358
668.297
668.335
679.157
673.707
670.71
669.612
668.97
668.643
668.597
668.694
678.899
673.841
670.817
669.758
669.132
668.795
668.728
668.851
676.415
672.413
670.264
669.46
668.938
668.65
668.592
668.689
672.562
670.137
669.345
668.862
668.52
668.329
668.292
668.366
669.536
668.959
668.645
668.356
668.135
668.01
668.008
668.034
668.698
668.449
668.238
668.021
667.85
667.752
667.725
667.754
574.827
573.772
574.116
574.301
574.429
574.549
574.666
574.778
576.065
574.902
574.567
574.661
574.682
574.736
574.863
574.995
575.141
574.73
574.384
574.713
574.816
574.875
574.984
575.115
575.303
574.575
574.608
574.823
574.88
574.917
574.997
575.119
574.838
574.252
574.628
574.795
574.857
574.904
574.979
575.068
574.134
574.438
574.687
574.782
574.826
574.87
574.925
574.992
574.527
574.635
574.701
574.742
574.774
574.812
574.857
574.96
478.141
478.823
479.889
480.517
480.934
481.226
481.455
481.627
475.53
478.306
479.363
480.252
480.714
481.013
481.277
481.477
476.242
478.355
479.163
480.123
480.622
480.93
481.184
481.387
478.943
478.798
479.708
480.457
480.837
481.083
481.3
481.504
479.593
479.472
480.389
480.903
481.194
481.392
481.598
481.727
480.014
480.621
481.124
481.418
481.607
481.744
481.854
481.946
481.111
481.413
481.621
481.792
481.922
482.023
482.102
482.223
389.758
388.705
388.664
388.621
388.567
388.613
388.865
389.154
389.638
389.695
388.667
388.488
388.319
388.296
388.543
388.873
390.939
389.538
388.418
388.262
388.086
388.052
388.314
388.646
391.924
389.912
388.793
388.533
388.318
388.268
388.507
388.851
390.613
388.921
388.751
388.655
388.569
388.591
388.892
389.16
389.131
388.934
388.934
388.888
388.849
388.912
389.166
389.455
389.174
389.138
389.094
389.035
389.017
389.12
389.394
389.689
306.534
303.494
302.036
300.794
299.671
298.645
297.839
297.517
308.719
306.123
302.685
300.93
299.443
298.16
297.204
296.882
311.189
304.336
301.947
300.509
299.085
297.802
296.835
296.507
308.83
305.765
302.553
300.968
299.592
298.377
297.426
297.092
306.272
303.294
301.901
300.894
299.951
299.05
298.3
297.926
303.017
302.19
301.634
301.05
300.455
299.858
299.317
299.026
302.391
302.112
301.779
301.421
301.076
300.743
300.423
300.196
760.29
759.901
759.61
759.417
759.313
759.287
759.319
759.372
759.99
759.591
759.353
759.209
759.133
759.115
759.146
759.197
759.689
759.377
759.178
759.053
758.985
758.967
758.998
759.052
759.461
759.221
759.051
758.94
758.877
758.863
758.895
758.945
759.275
759.081
758.939
758.846
758.799
758.799
758.847
758.901
759.108
758.957
758.84
758.761
758.724
758.728
758.768
758.853
758.959
758.857
758.77
758.711
758.692
758.708
758.751
758.83
668.545
668.156
667.872
667.675
667.551
667.489
667.478
667.505
668.376
667.977
667.7
667.506
667.376
667.309
667.295
667.314
668.121
667.775
667.516
667.334
667.214
667.154
667.146
667.171
667.92
667.602
667.365
667.199
667.094
667.044
667.041
667.069
667.695
667.421
667.225
667.093
667.015
666.987
667.022
667.032
667.445
667.235
667.088
666.989
666.933
666.916
666.93
666.997
667.212
667.068
666.975
666.918
666.896
666.901
666.922
666.974
574.394
574.429
574.507
574.577
574.636
574.693
574.748
574.805
574.588
574.604
574.609
574.609
574.616
574.642
574.687
574.737
574.656
574.613
574.575
574.549
574.546
574.572
574.622
574.681
574.652
574.57
574.515
574.481
574.475
574.503
574.56
574.627
574.579
574.491
574.441
574.42
574.43
574.473
574.569
574.622
574.452
574.379
574.347
574.342
574.363
574.415
574.488
574.598
574.306
574.244
574.241
574.268
574.316
574.385
574.474
574.547
481.229
481.499
481.742
481.922
482.051
482.143
482.208
482.262
481.527
481.792
481.963
482.072
482.151
482.211
482.26
482.301
481.731
481.911
482.034
482.118
482.183
482.239
482.283
482.325
481.857
481.991
482.088
482.157
482.216
482.268
482.308
482.362
481.976
482.08
482.164
482.235
482.303
482.363
482.408
482.448
482.09
482.176
482.254
482.33
482.401
482.463
482.499
482.585
482.191
482.266
482.355
482.446
482.531
482.599
482.692
482.703
389.346
389.28
389.207
389.14
389.126
389.238
389.515
389.744
389.433
389.347
389.255
389.172
389.134
389.221
389.495
389.712
389.419
389.304
389.19
389.084
389.028
389.106
389.384
389.603
389.283
389.154
389.017
388.893
388.826
388.903
389.192
389.433
389.113
388.946
388.78
388.641
388.573
388.683
388.968
389.215
388.901
388.692
388.51
388.369
388.315
388.429
388.755
389.04
388.609
388.397
388.22
388.088
388.053
388.192
388.533
388.789
302.715
302.455
302.118
301.829
301.605
301.407
301.201
300.959
302.215
301.885
301.633
301.459
301.35
301.265
301.163
300.971
301.923
301.618
301.417
301.308
301.278
301.303
301.345
301.269
301.602
301.347
301.189
301.143
301.206
301.372
301.607
301.71
301.349
301.156
301.054
301.084
301.258
301.594
302.006
302.27
301.203
301.092
301.059
301.171
301.456
301.914
302.501
302.871
301.264
301.288
301.331
301.511
301.861
302.38
303.011
303.443
759.694
759.587
759.441
759.304
759.245
759.174
759.181
759.223
760.024
759.791
759.574
759.403
759.411
759.293
759.303
759.36
760.559
760.169
759.868
759.634
759.484
759.434
759.454
759.524
762.033
760.761
760.272
759.929
759.723
759.63
759.649
759.74
764.935
761.837
760.859
760.301
759.989
759.856
759.877
760.007
766.276
762.809
761.391
760.654
760.263
760.075
760.076
760.178
765.594
762.638
761.656
760.997
760.583
760.362
760.314
760.369
668.008
667.843
667.663
667.513
667.441
667.35
667.327
667.351
668.402
668.135
667.89
667.691
667.667
667.508
667.473
667.485
668.932
668.58
668.258
667.984
667.821
667.686
667.637
667.649
670.037
669.107
668.67
668.312
668.062
667.906
667.841
667.876
672.218
669.832
669.079
668.577
668.251
668.067
668.011
668.07
673.23
670.41
669.3
668.706
668.372
668.176
668.122
668.185
672.866
670.139
669.337
668.813
668.462
668.251
668.177
668.19
574.758
574.742
574.727
574.731
574.781
574.769
574.801
574.831
574.803
574.804
574.813
574.816
574.932
574.858
574.875
574.903
574.74
574.874
574.915
574.911
574.999
574.92
574.925
574.956
574.619
574.761
574.911
574.942
574.942
574.94
574.955
575.007
575.02
574.57
574.794
574.869
574.883
574.891
574.929
575.01
574.753
574.291
574.535
574.678
574.725
574.777
574.843
574.949
574.25
573.542
574.041
574.319
574.471
574.589
574.684
574.756
482.109
482.231
482.329
482.432
482.517
482.521
482.535
482.542
481.82
482.007
482.18
482.308
482.482
482.421
482.438
482.457
481.329
481.713
481.981
482.137
482.313
482.3
482.328
482.366
480.579
481.154
481.618
481.864
482.001
482.088
482.16
482.225
480.233
480.507
481.228
481.572
481.757
481.874
481.978
482.095
479.252
479.94
480.841
481.301
481.515
481.668
481.796
481.927
478.415
478.799
479.987
480.655
481.076
481.372
481.578
481.705
389.399
389.335
389.276
389.289
389.241
389.335
389.608
389.806
389.604
389.539
389.506
389.496
389.478
389.488
389.727
389.923
389.617
389.629
389.626
389.578
389.537
389.557
389.77
389.963
389.733
389.532
389.586
389.521
389.441
389.454
389.662
389.867
390.612
389.477
389.522
389.411
389.294
389.289
389.49
389.746
390.28
389.48
389.466
389.288
389.135
389.097
389.285
389.541
389.486
388.568
388.787
388.758
388.735
388.815
389.067
389.326
302.308
302.295
302.227
302.242
302.203
302.201
302.202
302.083
302.505
302.309
302.101
301.965
301.776
301.562
301.373
301.122
302.783
302.448
302.124
301.785
301.434
301.055
300.666
300.27
303.819
302.744
302.206
301.654
301.093
300.512
299.938
299.492
305.972
303.28
302.372
301.534
300.753
299.995
299.299
298.877
305.203
303.257
302.25
301.25
300.348
299.486
298.734
298.379
305.489
303.146
302.156
301.087
300.102
299.188
298.429
298.084
735.195
735.294
735.425
735.559
735.667
735.743
735.787
735.808
735.194
735.293
735.423
735.556
735.661
735.732
735.77
735.781
735.183
735.281
735.412
735.544
735.651
735.723
735.762
735.776
735.153
735.251
735.379
735.505
735.604
735.668
735.7
735.709
735.11
735.21
735.333
735.453
735.545
735.605
735.634
735.64
735.056
735.154
735.27
735.381
735.466
735.519
735.545
735.551
734.995
735.088
735.196
735.302
735.381
735.429
735.451
735.455
637.591
637.775
638.017
638.251
638.424
638.525
638.562
638.556
637.594
637.777
638.02
638.253
638.424
638.523
638.555
638.539
637.586
637.767
638.011
638.246
638.42
638.522
638.56
638.552
637.558
637.739
637.978
638.204
638.367
638.457
638.485
638.468
637.515
637.697
637.927
638.144
638.298
638.381
638.406
638.389
637.459
637.635
637.852
638.058
638.203
638.278
638.298
638.282
637.391
637.556
637.759
637.958
638.097
638.169
638.184
638.165
539.619
540.003
540.491
540.925
541.211
541.338
541.34
541.281
539.629
540.012
540.504
540.943
541.237
541.375
541.389
541.327
539.628
540.007
540.502
540.946
541.247
541.395
541.431
541.397
539.603
539.984
540.472
540.907
541.195
541.33
541.355
541.312
539.561
539.943
540.417
540.839
541.116
541.242
541.264
541.226
539.498
539.871
540.329
540.737
541
541.114
541.126
541.088
539.408
539.765
540.206
540.607
540.867
540.977
540.982
540.932
441.102
442.089
443.01
443.759
444.194
444.325
444.234
444.037
441.113
442.105
443.039
443.807
444.27
444.444
444.409
444.27
441.115
442.11
443.049
443.83
444.308
444.505
444.523
444.46
441.101
442.101
443.031
443.801
444.269
444.455
444.47
444.415
441.062
442.051
442.972
443.727
444.177
444.346
444.353
444.306
440.992
441.951
442.864
443.605
444.033
444.174
444.152
444.09
440.85
441.768
442.681
443.429
443.86
444
443.969
443.893
342.007
344.287
345.952
347.204
347.826
347.834
347.482
347.295
342.037
344.344
346.009
347.27
347.922
347.988
347.739
347.598
341.991
344.353
346.03
347.304
347.957
347.991
347.854
347.926
341.932
344.319
346.015
347.293
347.933
347.931
347.793
347.932
341.897
344.208
345.932
347.216
347.836
347.796
347.606
347.768
341.858
344.008
345.769
347.077
347.687
347.607
347.258
347.311
341.699
343.633
345.454
346.828
347.491
347.463
347.084
346.987
228.563
243.532
249.485
252.14
252.953
252.618
252.375
253.525
228.272
243.594
249.541
252.093
252.795
252.573
252.372
253.095
227.99
243.581
249.584
252.146
252.796
252.474
252.717
253.412
227.997
243.509
249.596
252.178
252.791
252.418
252.776
253.474
228.406
243.32
249.497
252.158
252.781
252.358
252.767
253.601
229.121
243.001
249.302
252.15
252.86
252.394
252.802
253.807
229.782
242.266
248.759
251.942
252.831
252.364
252.519
253.467
734.804
734.787
734.834
734.911
734.98
735.027
735.051
735.058
734.796
734.775
734.821
734.9
734.97
735.021
735.048
735.059
734.786
734.767
734.816
734.9
734.977
735.034
735.067
735.084
734.783
734.77
734.824
734.912
734.992
735.051
735.088
735.108
734.787
734.783
734.845
734.936
735.019
735.082
735.12
735.14
734.801
734.809
734.877
734.971
735.055
735.117
735.154
735.175
734.83
734.852
734.926
735.022
735.104
735.163
735.198
735.217
637.251
637.206
637.29
637.451
637.587
637.665
637.684
637.665
637.231
637.185
637.268
637.428
637.567
637.648
637.67
637.655
637.201
637.162
637.257
637.426
637.574
637.665
637.695
637.688
637.179
637.16
637.265
637.441
637.593
637.688
637.722
637.719
637.168
637.169
637.293
637.476
637.632
637.729
637.766
637.763
637.168
637.191
637.332
637.52
637.677
637.774
637.812
637.812
637.188
637.236
637.387
637.579
637.734
637.827
637.862
637.863
539.295
539.224
539.468
539.853
540.154
540.297
540.296
540.228
539.28
539.192
539.429
539.811
540.112
540.256
540.256
540.189
539.248
539.178
539.422
539.808
540.117
540.27
540.278
540.222
539.204
539.155
539.437
539.828
540.138
540.289
540.295
540.234
539.162
539.167
539.487
539.888
540.197
540.346
540.348
540.278
539.117
539.183
539.556
539.957
540.258
540.401
540.403
540.339
539.099
539.245
539.626
540.036
540.326
540.458
540.457
540.398
440.013
440.383
441.235
442.157
442.796
443.039
442.98
442.817
439.874
440.251
441.115
442.053
442.701
442.946
442.883
442.719
439.756
440.192
441.079
442.031
442.686
442.935
442.873
442.719
439.701
440.189
441.119
442.069
442.705
442.935
442.854
442.666
439.697
440.247
441.251
442.193
442.804
443.011
442.907
442.673
439.748
440.378
441.404
442.322
442.891
443.069
442.949
442.684
439.897
440.598
441.596
442.469
442.985
443.127
442.98
442.661
340.987
341.111
343.043
344.814
345.997
346.314
345.82
345.176
340.935
341.041
342.889
344.645
345.832
346.149
345.641
345.002
340.879
341.066
342.871
344.624
345.792
346.083
345.541
344.882
340.815
341.145
342.994
344.735
345.852
346.105
345.553
344.849
340.767
341.333
343.254
345
346.064
346.286
345.748
344.925
340.702
341.45
343.454
345.189
346.177
346.334
345.792
345.029
340.738
341.712
343.743
345.409
346.301
346.401
345.913
345.324
232.618
231.675
241.143
247.663
251.15
251.478
249.815
249.747
232.391
231.332
240.717
247.268
250.84
251.229
249.57
249.467
232.279
231.452
240.747
247.256
250.782
251.182
249.523
249.389
232.393
232.072
241.315
247.664
250.989
251.324
249.743
249.778
232.069
233.461
242.393
248.455
251.441
251.671
250.346
250.915
231.395
235.087
243.344
248.96
251.474
251.475
250.312
251.582
231.074
236.785
244.503
249.525
251.468
251.171
250.37
252.89
734.878
734.915
734.995
735.091
735.17
735.223
735.252
735.265
734.939
734.99
735.077
735.177
735.256
735.307
735.334
735.344
735.003
735.067
735.162
735.269
735.353
735.406
735.432
735.441
735.059
735.133
735.235
735.348
735.437
735.495
735.524
735.534
735.117
735.198
735.311
735.433
735.531
735.597
735.633
735.649
735.163
735.252
735.374
735.502
735.606
735.677
735.718
735.739
735.19
735.287
735.415
735.548
735.657
735.732
735.776
735.797
637.238
637.312
637.477
637.672
637.82
637.903
637.93
637.926
637.303
637.401
637.582
637.782
637.93
638.009
638.032
638.024
637.371
637.489
637.687
637.897
638.051
638.133
638.155
638.143
637.428
637.567
637.776
637.991
638.148
638.234
638.257
638.245
637.495
637.651
637.874
638.099
638.264
638.356
638.386
638.38
637.553
637.721
637.953
638.184
638.354
638.452
638.486
638.483
637.586
637.765
638.006
638.242
638.418
638.52
638.556
638.552
539.145
539.355
539.762
540.174
540.45
540.564
540.557
540.509
539.215
539.482
539.912
540.328
540.597
540.704
540.694
540.646
539.294
539.604
540.056
540.481
540.756
540.869
540.861
540.81
539.372
539.709
540.17
540.593
540.866
540.982
540.977
540.928
539.468
539.827
540.298
540.728
541.006
541.124
541.12
541.07
539.553
539.927
540.404
540.837
541.119
541.24
541.236
541.176
539.607
539.987
540.475
540.915
541.204
541.333
541.332
541.264
440.127
440.897
441.881
442.711
443.177
443.283
443.146
442.887
440.342
441.188
442.152
442.947
443.381
443.471
443.339
443.127
440.538
441.429
442.386
443.169
443.603
443.704
443.579
443.372
440.699
441.611
442.549
443.31
443.733
443.84
443.725
443.523
440.866
441.8
442.733
443.492
443.914
444.019
443.896
443.665
441.012
441.959
442.887
443.645
444.072
444.186
444.081
443.88
441.09
442.059
442.991
443.755
444.199
444.335
444.245
444.037
340.919
342.151
344.19
345.777
346.547
346.497
345.961
345.742
341.098
342.605
344.594
346.091
346.768
346.627
346.053
345.91
341.276
343.04
344.956
346.397
347.066
346.982
346.429
346.228
341.465
343.398
345.215
346.582
347.226
347.17
346.678
346.507
341.706
343.758
345.511
346.842
347.478
347.425
346.969
346.816
341.936
344.072
345.783
347.082
347.713
347.685
347.262
347.16
342.012
344.239
345.936
347.229
347.892
347.945
347.583
347.438
230.66
238.48
245.839
250.347
251.841
251.097
250.863
253.221
230.023
239.814
246.899
250.918
252.12
251.37
251.252
253.34
229.456
240.921
247.752
251.36
252.435
251.826
251.586
254.008
229.144
241.799
248.303
251.519
252.429
251.952
251.819
254.248
229.076
242.618
248.87
251.863
252.719
252.282
252.282
254.513
229.068
243.282
249.378
252.187
252.984
252.613
252.489
253.731
228.841
243.514
249.525
252.254
253.085
252.861
252.683
253.571
734.929
735.014
735.111
735.207
735.278
735.319
735.336
735.337
734.871
734.949
735.037
735.126
735.191
735.23
735.245
735.248
734.825
734.893
734.974
735.057
735.119
735.156
735.171
735.175
734.797
734.849
734.921
734.999
735.058
735.094
735.108
735.111
734.789
734.82
734.883
734.958
735.017
735.054
735.069
735.071
734.794
734.803
734.859
734.933
734.994
735.033
735.049
735.051
734.803
734.794
734.843
734.919
734.983
735.026
735.046
735.051
637.318
637.459
637.645
637.83
637.959
638.022
638.032
638.012
637.26
637.38
637.551
637.726
637.848
637.907
637.916
637.899
637.219
637.317
637.473
637.64
637.757
637.814
637.822
637.804
637.201
637.267
637.405
637.564
637.68
637.737
637.744
637.724
637.208
637.234
637.354
637.511
637.63
637.692
637.7
637.679
637.229
637.217
637.324
637.478
637.603
637.669
637.68
637.656
637.248
637.212
637.302
637.46
637.59
637.663
637.676
637.654
539.295
539.608
540.026
540.415
540.663
540.762
540.76
540.714
539.215
539.487
539.885
540.263
540.502
540.593
540.586
540.543
539.175
539.399
539.775
540.145
540.383
540.473
540.461
540.408
539.168
539.326
539.674
540.038
540.281
540.377
540.362
540.301
539.195
539.271
539.594
539.958
540.218
540.331
540.324
540.264
539.241
539.248
539.529
539.904
540.182
540.308
540.302
540.234
539.276
539.233
539.489
539.87
540.161
540.294
540.288
540.217
440.612
441.468
442.364
443.108
443.53
443.655
443.608
443.521
440.416
441.21
442.107
442.858
443.282
443.399
443.343
443.264
440.278
441.006
441.915
442.689
443.132
443.254
443.185
443.075
440.172
440.817
441.728
442.527
442.998
443.135
443.061
442.915
440.098
440.64
441.572
442.396
442.919
443.102
443.056
442.93
440.075
440.545
441.421
442.29
442.866
443.084
443.041
442.899
440.067
440.465
441.313
442.206
442.814
443.04
442.98
442.819
341.368
342.994
344.853
346.287
346.99
346.956
346.546
346.546
341.079
342.447
344.379
345.88
346.614
346.561
346.145
346.19
340.945
342.08
344.081
345.662
346.462
346.475
346.086
346.018
340.903
341.788
343.796
345.438
346.32
346.438
346.032
345.749
340.928
341.509
343.517
345.217
346.204
346.408
345.963
345.648
340.973
341.3
343.308
345.042
346.12
346.397
345.95
345.526
340.983
341.167
343.132
344.881
346.012
346.294
345.766
345.156
230.081
240.857
247.515
251.115
252.248
251.815
252.033
253.048
230.231
239.419
246.38
250.445
251.782
251.317
251.466
252.668
230.596
238.123
245.488
250.051
251.628
251.079
250.817
252.097
231.149
236.676
244.496
249.549
251.443
250.914
250.301
251.447
231.589
235.036
243.39
248.941
251.28
251.01
249.972
250.434
232.122
233.392
242.393
248.399
251.232
251.261
249.961
250.24
232.419
232.273
241.586
247.914
251.159
251.369
249.856
249.99
833.155
832.95
833.062
735.823
735.834
735.846
735.871
735.914
735.98
736.066
736.159
735.783
735.782
735.783
735.795
735.831
735.892
735.977
736.097
735.78
735.78
735.78
735.79
735.824
735.885
735.971
736.09
735.708
735.706
735.705
735.714
735.747
735.809
735.903
736.025
735.639
735.635
735.632
735.638
735.665
735.725
735.817
735.95
735.551
735.55
735.55
735.558
735.584
735.643
735.738
735.879
735.456
735.455
735.457
735.467
735.494
735.553
735.648
735.782
638.55
638.546
638.544
638.556
638.622
638.728
638.831
638.914
638.517
638.501
638.483
638.493
638.544
638.643
638.774
638.85
638.532
638.514
638.491
638.5
638.531
638.621
638.75
638.831
638.439
638.415
638.387
638.379
638.404
638.488
638.626
638.726
638.359
638.333
638.309
638.292
638.301
638.388
638.589
638.669
638.258
638.238
638.224
638.213
638.223
638.292
638.46
638.574
638.142
638.126
638.118
638.114
638.127
638.193
638.337
638.458
541.256
541.252
541.255
541.371
541.408
541.517
541.639
541.708
541.277
541.249
541.29
541.391
541.36
541.473
541.703
541.741
541.357
541.326
541.332
541.361
541.363
541.419
541.663
541.724
541.261
541.224
541.215
541.228
541.271
541.272
541.499
541.59
541.18
541.153
541.152
541.181
541.347
541.346
541.507
541.627
541.046
541.033
541.039
541.092
541.181
541.245
541.439
541.559
540.881
540.855
540.886
540.972
541.043
541.099
541.325
541.421
443.926
444.057
444.315
444.924
444.583
444.587
444.695
444.821
444.122
444.409
444.7
444.801
445.163
444.738
444.857
444.921
444.365
444.505
444.72
444.795
445.254
444.817
444.858
444.925
444.322
444.423
444.653
444.736
444.851
444.884
444.714
444.78
444.216
444.25
444.535
444.677
445
444.907
444.847
444.964
444.023
444.03
444.369
444.633
444.758
444.931
444.68
444.786
443.845
443.9
444.282
444.559
444.593
444.832
444.535
444.659
348.254
348.875
348.904
349.324
348.713
348.8
348.717
348.865
348.694
349.341
349.427
349.607
349.107
348.907
348.714
348.767
348.478
349.286
349.367
349.625
349.037
348.966
348.565
348.732
348.372
349.218
349.225
349.464
348.949
349.133
348.507
348.588
347.992
349.395
348.921
349.252
348.979
348.906
348.552
348.648
347.425
348.927
348.602
349.051
348.874
348.824
348.607
348.644
347.247
348.95
348.441
348.953
348.762
349.257
348.748
348.915
255.475
255.358
256.133
256.205
255.439
256.026
255.921
255.783
255.24
255.037
255.702
255.765
255.213
255.384
255.322
255.353
254.722
254.665
255.402
255.805
255.388
255.342
255.32
255.375
254.675
254.575
255.293
255.688
255.236
255.122
255.192
255.21
254.645
254.569
255.223
255.499
255.113
254.904
255.469
255.2
254.708
255.18
255.628
255.441
254.54
254.871
255.004
254.978
254.863
254.873
255.437
255.129
254.503
254.824
254.861
254.866
735.065
735.069
735.076
735.094
735.134
735.203
735.304
735.413
735.067
735.073
735.081
735.101
735.143
735.217
735.321
735.435
735.097
735.106
735.117
735.139
735.183
735.255
735.359
735.472
735.124
735.136
735.151
735.176
735.22
735.29
735.386
735.491
735.159
735.172
735.188
735.213
735.255
735.319
735.406
735.502
735.195
735.21
735.228
735.254
735.293
735.352
735.431
735.517
735.238
735.254
735.272
735.298
735.336
735.39
735.462
735.541
637.652
637.639
637.628
637.627
637.654
637.759
637.89
638.004
637.645
637.634
637.627
637.63
637.659
637.768
637.91
638.034
637.685
637.678
637.673
637.679
637.72
637.826
637.959
638.086
637.721
637.721
637.725
637.742
637.798
637.896
638.016
638.132
637.77
637.775
637.785
637.808
637.864
637.951
638.057
638.161
637.825
637.838
637.856
637.886
637.94
638.017
638.109
638.196
637.882
637.9
637.922
637.958
638.008
638.074
638.151
638.225
540.195
540.183
540.185
540.188
540.441
540.372
540.505
540.602
540.158
540.148
540.155
540.163
540.443
540.377
540.525
540.638
540.199
540.194
540.199
540.211
540.367
540.386
540.538
540.662
540.214
540.218
540.24
540.306
540.357
540.47
540.614
540.729
540.268
540.278
540.31
540.378
540.42
540.544
540.675
540.778
540.344
540.369
540.416
540.471
540.537
540.661
540.772
540.851
540.415
540.448
540.499
540.548
540.642
540.75
540.833
540.887
442.754
442.754
442.932
443.102
443.41
443.119
443.182
443.296
442.667
442.661
442.85
443.007
443.365
443.133
443.216
443.356
442.698
442.701
442.849
443
443.341
443.007
443.112
443.262
442.583
442.585
442.834
443.052
443.336
443.076
443.206
443.355
442.519
442.626
442.934
443.139
443.302
443.166
443.298
443.447
442.571
442.787
443.089
443.316
443.369
443.355
443.464
443.581
442.644
442.878
443.085
443.391
443.397
443.47
443.551
443.621
345.508
346.296
346.861
347.161
347.214
346.789
346.665
346.762
345.306
346.098
346.637
346.985
347.123
346.724
346.53
346.689
345.122
345.704
346.474
346.835
346.967
346.573
346.425
346.595
345.016
345.904
346.254
347.062
347.008
346.779
346.63
346.848
345.637
346.149
346.285
347.095
346.964
346.705
346.602
346.86
346.628
346.458
346.675
347.225
347.181
346.833
346.763
346.995
346.513
346.52
346.829
347.132
347.07
346.79
346.794
346.928
250.634
251.47
252.37
253.934
254.155
253.67
253.954
253.896
250.574
251.335
252.396
253.965
254.23
253.559
253.947
253.782
250.595
251.209
252.346
254.037
254.285
253.63
253.829
253.73
251.258
251.855
253.013
254.513
254.453
253.755
253.785
253.836
252.585
252.873
253.234
254.678
254.496
253.63
253.655
253.736
253.315
253.673
253.677
254.732
254.582
253.478
253.647
253.809
253.468
253.475
253.764
254.824
254.106
253.675
253.721
253.986
735.28
735.292
735.307
735.331
735.367
735.419
735.488
735.565
735.357
735.367
735.379
735.401
735.436
735.488
735.556
735.631
735.45
735.456
735.464
735.483
735.517
735.57
735.64
735.715
735.543
735.55
735.558
735.578
735.615
735.671
735.747
735.829
735.664
735.674
735.687