/*--------------------------------*- C++ -*----------------------------------*\
| =========                 |                                                 |
| \\      /  F ield         | OpenFOAM: The Open Source CFD Toolbox           |
|  \\    /   O peration     | Version:  plus.master.MPPICInterFoam            |
|   \\  /    A nd           | Web:      www.OpenFOAM.com                      |
|    \\/     M anipulation  |                                                 |
\*---------------------------------------------------------------------------*/
FoamFile
{
    version     2.0;
    format      ascii;
    class       surfaceScalarField;
    location    "10.8";
    object      phi;
}
// * * * * * * * * * * * * * * * * * * * * * * * * * * * * * * * * * * * * * //

dimensions      [0 3 -1 0 0 0 0];

internalField   nonuniform List<scalar> 
34319
(
-2.60344e-08
-2.65009e-07
6.347e-06
7.60359e-08
2.19045e-07
1.16617e-08
-2.39174e-07
6.22305e-06
2.11249e-07
4.53756e-08
-2.17749e-07
5.8525e-06
1.93252e-07
6.94796e-08
-1.85753e-07
5.30403e-06
1.67256e-07
8.38398e-08
-1.55169e-07
4.65907e-06
1.41501e-07
8.91556e-08
-1.31329e-07
3.98675e-06
1.20606e-07
-1.13273e-07
3.32482e-06
8.55853e-08
1.04135e-07
-3.06278e-08
-3.06589e-07
7.66269e-06
1.1564e-07
1.38119e-08
-2.36182e-07
7.54021e-06
6.18194e-08
-2.3403e-07
7.01918e-06
9.66829e-08
-2.02161e-07
6.2418e-06
1.12081e-07
-1.60256e-07
5.40153e-06
1.15002e-07
-1.31425e-07
4.57487e-06
-1.12224e-07
3.79944e-06
1.08548e-07
-4.5679e-08
-2.41158e-07
9.6001e-06
1.87618e-07
3.53091e-08
-1.67071e-07
9.58548e-06
1.2523e-07
-2.1037e-07
8.5878e-06
1.63252e-07
-1.92097e-07
7.30703e-06
1.6308e-07
-1.38762e-07
6.13909e-06
1.53352e-07
-1.1089e-07
5.12688e-06
-9.62118e-08
4.2263e-06
1.38697e-07
-2.37197e-08
-1.24888e-07
1.17299e-05
2.54241e-07
4.25588e-08
-5.75939e-08
1.16227e-05
2.21395e-07
-7.5532e-08
1.02464e-05
2.50445e-07
-1.13604e-07
8.39214e-06
2.23095e-07
-7.45304e-08
6.78307e-06
1.94225e-07
-6.42586e-08
5.57489e-06
-6.43029e-08
4.56671e-06
1.69032e-07
-5.41541e-08
1.34856e-07
1.27397e-05
2.68549e-07
2.76925e-08
-2.83752e-08
1.24489e-05
2.0021e-07
-4.35955e-08
1.11112e-05
2.58372e-07
-4.85961e-09
9.09843e-06
2.45996e-07
-7.68563e-09
7.17032e-06
2.14686e-07
-1.11366e-08
5.84659e-06
-2.73007e-08
4.77815e-06
1.8735e-07
-1.95685e-07
2.06475e-07
1.26032e-05
3.28004e-07
3.73166e-08
1.34179e-07
1.2536e-05
1.93968e-07
1.00545e-07
1.12649e-05
2.77524e-07
1.04094e-07
9.0213e-06
2.51337e-07
7.44297e-08
7.1962e-06
2.19003e-07
4.3567e-08
5.8918e-06
9.16034e-09
4.83377e-06
1.92353e-07
-9.39168e-08
1.08336e-05
2.4647e-07
3.18832e-07
6.91713e-08
1.1062e-05
3.70126e-07
2.01199e-07
1.00028e-05
2.88048e-07
2.31836e-07
8.32345e-06
1.99576e-07
2.17965e-07
6.87591e-06
1.30402e-07
1.99196e-07
5.72185e-06
7.97615e-08
4.73252e-06
1.85157e-07
2.98982e-08
-2.49595e-08
-1.30895e-07
6.33611e-06
4.86231e-08
1.18114e-07
-1.04339e-08
-1.06108e-07
6.20859e-06
1.06042e-07
4.716e-09
-9.83409e-08
5.83601e-06
9.9468e-08
2.33131e-08
-9.72019e-08
5.28799e-06
9.46027e-08
4.05577e-08
-9.43743e-08
4.64679e-06
8.9564e-08
5.21575e-08
-9.1079e-08
3.98139e-06
8.51655e-08
-8.79328e-08
3.32847e-06
5.57613e-08
8.08631e-08
-1.25441e-08
-1.61789e-07
7.64864e-06
5.70479e-08
-7.15179e-09
-9.85276e-08
7.52739e-06
1.43199e-09
-9.23305e-08
7.00494e-06
2.63141e-08
-1.02304e-07
6.22278e-06
4.77816e-08
-9.60249e-08
5.382e-06
6.20684e-08
-9.09277e-08
4.56059e-06
-8.76988e-08
3.79439e-06
6.71304e-08
5.53416e-08
-2.05431e-07
9.52151e-06
6.71618e-08
3.74302e-08
-5.91811e-08
9.56466e-06
3.55949e-08
-8.68435e-08
8.58447e-06
5.58022e-08
-1.07638e-07
7.2925e-06
7.14446e-08
-8.79752e-08
6.11581e-06
8.17083e-08
-7.92875e-08
5.10543e-06
-7.73545e-08
4.21355e-06
8.44222e-08
1.71265e-07
-3.13113e-07
1.15845e-05
8.27173e-08
1.3894e-07
-2.02985e-07
1.17995e-05
9.25427e-08
-1.49961e-07
1.03564e-05
1.036e-07
-1.09115e-07
8.38268e-06
1.03728e-07
-6.24607e-08
6.75762e-06
1.04086e-07
-5.27269e-08
5.54834e-06
-5.69469e-08
4.54797e-06
1.02647e-07
3.54957e-07
-1.86221e-07
1.22726e-05
-1.43127e-08
2.0033e-07
-2.64401e-07
1.26646e-05
9.98891e-08
-2.43341e-07
1.13055e-05
1.17493e-07
-7.20929e-08
9.04481e-06
1.15895e-07
-2.87435e-08
7.13884e-06
1.14451e-07
-2.17648e-08
5.81741e-06
-3.33418e-08
4.75587e-06
1.13271e-07
2.01274e-07
8.90997e-09
1.20378e-05
1.69116e-07
2.0939e-07
-1.50082e-07
1.24138e-05
1.33637e-07
-7.10156e-08
1.11686e-05
1.306e-07
4.09687e-09
8.94853e-06
1.17484e-07
1.85172e-08
7.16231e-06
1.14558e-07
1.11457e-08
5.86201e-06
-1.10512e-08
4.81042e-06
1.15785e-07
9.54126e-08
1.05641e-05
8.30973e-08
1.01257e-07
9.34196e-08
1.07716e-05
1.40491e-07
9.65547e-08
9.82878e-06
1.0033e-07
8.79058e-08
8.26947e-06
6.6983e-08
9.13306e-08
6.84342e-06
4.77993e-08
1.01298e-07
5.69377e-06
2.9438e-08
4.71054e-06
1.14859e-07
-2.61326e-09
-4.60226e-08
4.04608e-08
6.29315e-06
3.67729e-08
1.17267e-08
-4.89047e-08
4.37303e-08
6.16236e-06
5.37574e-09
-3.6269e-08
1.38599e-08
5.78922e-06
2.02238e-08
-1.34082e-08
-1.74804e-08
5.24485e-06
3.79326e-08
1.25879e-08
-4.56867e-08
4.61264e-06
5.39804e-08
3.30207e-08
-6.3936e-08
3.96031e-06
6.47291e-08
-7.54672e-08
3.3223e-06
4.36265e-08
7.11819e-08
-5.99012e-08
8.88329e-08
7.62365e-06
3.66561e-08
-8.45115e-08
9.71336e-08
7.4987e-06
-7.43585e-08
4.84754e-08
6.96043e-06
-4.1583e-08
3.4855e-09
6.16954e-06
-2.71747e-09
-3.54055e-08
5.33315e-06
2.82901e-08
-5.90525e-08
4.52479e-06
-7.36918e-08
3.7751e-06
4.60234e-08
-4.96811e-08
9.62634e-08
9.55822e-06
5.37326e-09
-9.09935e-08
1.18547e-07
9.58505e-06
-9.46669e-08
3.83786e-08
8.5984e-06
-5.94512e-08
1.04056e-08
7.25073e-06
-1.00303e-08
-2.63907e-08
6.05779e-06
2.89159e-08
-4.93793e-08
5.05708e-06
-6.53212e-08
4.18258e-06
5.16875e-08
-2.46109e-08
3.52139e-08
1.16472e-05
2.29804e-08
-2.87455e-08
2.74371e-08
1.18954e-05
-7.69143e-08
-3.12879e-08
1.04743e-05
-6.39237e-08
-3.64302e-09
8.38374e-06
-1.06963e-08
-1.83168e-08
6.69667e-06
3.15304e-08
-3.37367e-08
5.49081e-06
-5.10413e-08
4.50781e-06
5.76154e-08
3.95559e-08
-2.15595e-07
1.24349e-05
4.93443e-08
-2.372e-08
-2.24582e-07
1.298e-05
-1.00528e-07
-1.6391e-07
1.15154e-05
-7.94613e-08
-4.33329e-08
9.06369e-06
-2.26403e-08
-1.54285e-08
7.07947e-06
2.60188e-08
-1.96913e-08
5.75495e-06
-3.70835e-08
4.70993e-06
5.8199e-08
3.06808e-08
-1.34067e-07
1.17494e-05
1.76047e-07
-4.11758e-08
-1.76378e-07
1.24376e-05
-1.31107e-07
-1.36459e-07
1.12316e-05
-1.11925e-07
-8.32105e-08
8.96947e-06
-4.45009e-08
-2.4359e-08
7.10403e-06
1.34656e-08
-1.40807e-08
5.79857e-06
-2.99433e-08
4.76233e-06
5.45789e-08
4.694e-09
1.05305e-05
3.17741e-08
-1.37315e-07
-9.23329e-08
1.08023e-05
-1.10141e-07
-1.60902e-07
9.88387e-06
-1.22968e-07
-1.3565e-07
8.25395e-06
-9.2743e-08
-6.00632e-08
6.78258e-06
-3.89654e-08
6.70476e-09
5.63236e-06
-1.942e-08
4.6642e-06
5.82188e-08
-3.50271e-08
-5.77617e-08
1.87796e-08
6.23329e-06
5.73094e-08
4.15381e-08
-4.60517e-08
8.68232e-09
6.09922e-06
4.28854e-08
-1.75044e-08
-2.82914e-08
5.72769e-06
6.14963e-08
1.32015e-08
-5.52103e-08
5.19181e-06
7.76405e-08
4.16088e-08
-7.97733e-08
4.57418e-06
8.99423e-08
6.04104e-08
-9.40637e-08
3.93958e-06
9.60329e-08
-1.01312e-07
3.31945e-06
6.67853e-08
9.79525e-08
-1.04797e-07
8.94118e-08
7.57323e-06
8.52189e-08
-1.01201e-07
6.62024e-08
7.43783e-06
-5.9806e-08
8.47251e-09
6.88247e-06
-1.30241e-08
-2.58704e-08
6.09331e-06
3.15362e-08
-6.37316e-08
5.2727e-06
6.24621e-08
-8.59203e-08
4.48575e-06
-9.8367e-08
3.75744e-06
7.71536e-08
-1.86883e-07
9.17714e-08
9.6529e-06
8.9597e-08
-1.40535e-07
3.95646e-08
9.56563e-06
-9.46146e-08
-5.58166e-09
8.5667e-06
-3.52647e-08
4.08409e-10
7.16506e-06
2.5259e-08
-4.42253e-08
5.97768e-06
6.67551e-08
-7.0897e-08
5.00043e-06
-8.6999e-08
4.15054e-06
8.74403e-08
-3.10859e-07
1.58763e-07
1.16393e-05
2.51488e-07
-1.03055e-07
7.36339e-08
1.16538e-05
-7.32826e-08
6.55836e-09
1.04322e-05
-4.41084e-08
2.42839e-08
8.33109e-06
2.29567e-08
-1.95904e-08
6.60526e-06
6.93582e-08
-4.65118e-08
5.42014e-06
-6.80695e-08
4.46379e-06
9.45751e-08
-4.29195e-07
2.57727e-07
1.23517e-05
4.13282e-07
-1.403e-07
1.8069e-07
1.25849e-05
-8.31458e-08
4.40407e-08
1.14205e-05
-8.13092e-08
4.95903e-09
9.08092e-06
6.85481e-10
-8.47288e-09
6.98649e-06
5.96858e-08
-2.5656e-08
5.67525e-06
-4.91924e-08
4.65771e-06
9.32017e-08
-4.21059e-07
-1.96929e-09
1.20666e-05
3.63342e-07
-2.3629e-07
4.2687e-08
1.2391e-05
-1.88486e-07
-2.22672e-08
1.12505e-05
-1.38482e-07
-6.50556e-08
8.98971e-06
-3.36047e-08
-2.09476e-08
7.01182e-06
4.14492e-08
-1.82236e-08
5.71618e-06
-3.81119e-08
4.70674e-06
8.60347e-08
-2.14732e-07
1.07226e-05
1.43703e-07
-1.24241e-07
-2.49323e-07
1.09983e-05
-1.17062e-07
-2.52366e-07
1.00082e-05
-1.43536e-07
-1.67421e-07
8.20931e-06
-1.05128e-07
-5.31088e-08
6.68862e-06
-4.11786e-08
2.98448e-08
5.55255e-06
-2.14107e-08
4.60984e-06
8.39695e-08
-3.77576e-08
-5.25105e-08
-2.12823e-07
6.16071e-06
1.11159e-07
2.26779e-07
1.0741e-08
-2.29544e-07
6.02166e-06
2.44213e-07
8.39375e-08
-2.55024e-07
5.65209e-06
2.57866e-07
1.43437e-07
-2.47154e-07
5.12572e-06
2.53895e-07
1.87702e-07
-2.36837e-07
4.522e-06
2.44838e-07
2.17765e-07
-2.29928e-07
3.90297e-06
2.36593e-07
-2.25521e-07
3.30039e-06
2.32054e-07
2.30539e-07
-1.03405e-07
-1.71184e-07
7.47427e-06
1.61483e-07
-2.64426e-08
-1.94442e-07
7.32608e-06
7.52498e-08
-2.44804e-07
6.77057e-06
1.51679e-07
-2.2937e-07
5.999e-06
2.02677e-07
-2.14293e-07
5.19947e-06
2.35411e-07
-2.09188e-07
4.43248e-06
-2.07244e-07
3.72299e-06
2.51591e-07
-2.33476e-07
-1.40881e-07
9.60685e-06
2.49232e-07
-6.04371e-08
-2.2386e-07
9.42229e-06
9.15307e-08
-2.43171e-07
8.41321e-06
1.78084e-07
-1.81173e-07
7.03023e-06
2.26311e-07
-1.65159e-07
5.8803e-06
2.56554e-07
-1.69476e-07
4.9305e-06
-1.73912e-07
4.10263e-06
2.71249e-07
-4.45288e-07
-2.27471e-08
1.14778e-05
4.88265e-07
-6.16113e-08
-1.59488e-07
1.1206e-05
1.26438e-07
-1.63574e-07
1.01646e-05
1.914e-07
-6.84605e-08
8.15399e-06
2.42985e-07
-9.3881e-08
6.48257e-06
2.71399e-07
-1.1228e-07
5.33462e-06
-1.2748e-07
4.40412e-06
2.84844e-07
-5.17722e-07
3.09477e-07
1.19602e-05
5.77153e-07
-9.98644e-08
2.1869e-07
1.17895e-05
2.97576e-08
9.43263e-08
1.1033e-05
1.48244e-07
-2.20318e-09
8.89575e-06
2.28277e-07
-3.66311e-08
6.84914e-06
2.67207e-07
-5.4e-08
5.57811e-06
-7.71611e-08
4.58939e-06
2.85391e-07
-5.03188e-07
1.41806e-07
1.22482e-05
4.89249e-07
-2.24579e-07
1.68198e-07
1.21634e-05
-1.57745e-08
1.19122e-07
1.10168e-05
1.1041e-07
3.44148e-08
8.82711e-06
2.00677e-07
1.58821e-08
6.86919e-06
2.49578e-07
-1.82049e-09
5.61521e-06
-3.04551e-08
4.63467e-06
2.75044e-07
-3.05663e-07
1.08005e-05
2.85784e-07
8.33508e-08
-2.0453e-07
1.10043e-05
6.30594e-08
-6.49857e-08
9.93292e-06
5.46951e-08
6.95121e-08
8.05216e-06
5.71742e-08
1.64578e-07
6.55612e-06
5.33669e-08
2.23526e-07
5.45501e-06
3.68511e-08
4.53974e-06
2.5782e-07
5.51584e-09
-4.98889e-08
-4.26478e-07
1.87308e-07
4.04861e-07
6.04499e-06
7.11797e-08
-4.54345e-07
4.47587e-07
5.90748e-06
1.8566e-07
-4.63857e-07
4.5729e-07
5.5444e-06
2.74121e-07
-4.34578e-07
4.435e-07
5.02852e-06
3.3959e-07
-4.04601e-07
4.25011e-07
4.43632e-06
3.87806e-07
-3.85426e-07
4.10738e-07
3.82956e-06
-3.69434e-07
4.21271e-07
3.95732e-07
3.2407e-06
-7.76296e-08
-4.05629e-07
2.29397e-07
7.30157e-06
6.45855e-08
-4.26359e-07
7.15615e-06
2.12082e-07
-4.64688e-07
6.62406e-06
3.12182e-07
-4.17533e-07
5.88191e-06
3.77432e-07
-3.70956e-07
5.10084e-06
4.23847e-07
-3.46906e-07
4.34782e-06
-3.3196e-07
4.57996e-07
3.65139e-06
-1.74068e-07
-2.63624e-07
3.55159e-07
9.28433e-06
4.73411e-08
-3.44797e-07
9.11919e-06
2.67657e-07
-4.10441e-07
8.13895e-06
3.78916e-07
-3.63249e-07
6.86485e-06
4.27031e-07
-3.02176e-07
5.76335e-06
4.59676e-07
-2.8201e-07
4.83297e-06
-2.73785e-07
4.85496e-07
4.01871e-06
-3.68966e-07
-1.10319e-07
5.12242e-07
1.11817e-05
-3.89892e-08
-3.71478e-07
1.09025e-05
2.83347e-07
-3.38005e-07
9.77021e-06
4.34155e-07
-2.36696e-07
7.87688e-06
4.64285e-07
-1.88079e-07
6.33826e-06
4.84978e-07
-1.91519e-07
5.22338e-06
-1.96184e-07
5.02727e-07
4.3089e-06
-4.64664e-07
3.13522e-08
5.13796e-07
1.17695e-05
-1.50894e-07
-2.39871e-07
1.13446e-05
1.62745e-07
2.20336e-08
1.03595e-05
3.80984e-07
-4.03779e-08
8.48132e-06
4.54573e-07
-9.05725e-08
6.67794e-06
4.81833e-07
-9.44894e-08
5.45375e-06
-1.09129e-07
4.99616e-07
4.48468e-06
-3.6546e-07
1.81311e-07
5.23517e-07
1.19404e-05
-2.36407e-07
1.75804e-08
1.17771e-05
1.22746e-07
1.3633e-07
1.05434e-05
3.7429e-07
9.36308e-08
8.44144e-06
4.31711e-07
3.81714e-08
6.68288e-06
4.59681e-07
1.05625e-08
5.48225e-06
-1.71935e-08
4.78797e-07
4.52374e-06
-3.04325e-07
4.14819e-07
2.99324e-07
1.05721e-05
-1.19948e-07
1.64832e-07
1.06728e-05
1.3601e-07
2.58997e-07
9.55421e-06
3.09316e-07
2.16402e-07
7.75573e-06
3.74436e-07
1.50216e-07
6.37893e-06
4.10209e-07
1.10687e-07
5.31932e-06
4.30438e-07
7.73716e-08
4.42506e-06
9.8418e-08
-3.42289e-08
1.70522e-06
9.04142e-09
1.03261e-07
-3.29068e-08
1.7143e-06
8.56322e-09
1.00901e-07
-3.3135e-08
1.64216e-06
8.16552e-09
9.15295e-08
-3.40832e-08
1.50935e-06
7.83143e-09
7.57768e-08
-3.57342e-08
1.33092e-06
7.62268e-09
5.43223e-08
-3.78352e-08
1.11301e-06
7.64592e-09
2.83598e-08
-4.0155e-08
8.40363e-07
7.80019e-09
-4.13157e-08
4.11706e-07
8.85965e-09
1.18257e-07
-5.45611e-08
2.4186e-06
1.20464e-07
-5.42146e-08
2.30867e-06
1.15687e-07
-5.68687e-08
2.12661e-06
1.04001e-07
-6.06155e-08
1.89111e-06
8.57599e-08
-6.51387e-08
1.61675e-06
6.1522e-08
-6.99481e-08
1.30893e-06
3.20164e-08
-7.4401e-08
9.48455e-07
-7.59585e-08
4.12349e-07
1.44523e-07
-6.72905e-08
3.01758e-06
1.4386e-07
-6.97708e-08
2.83074e-06
1.35853e-07
-7.53832e-08
2.5742e-06
1.20629e-07
-8.2476e-08
2.26918e-06
9.84666e-08
-9.02514e-08
1.93065e-06
6.99702e-08
-9.79629e-08
1.56334e-06
3.60861e-08
-1.04707e-07
1.1445e-06
-1.07116e-07
5.33187e-07
1.7056e-07
-7.16884e-08
3.38972e-06
1.66788e-07
-7.82042e-08
3.1868e-06
1.55644e-07
-8.67186e-08
2.91417e-06
1.37033e-07
-9.68646e-08
2.59391e-06
1.11151e-07
-1.07521e-07
2.24117e-06
7.86432e-08
-1.17738e-07
1.86021e-06
4.05688e-08
-1.264e-07
1.42597e-06
-1.29479e-07
7.85535e-07
1.87617e-07
-7.21805e-08
3.43929e-06
1.8227e-07
-8.14358e-08
3.29358e-06
1.69406e-07
-9.1578e-08
3.0747e-06
1.48718e-07
-1.03462e-07
2.804e-06
1.20386e-07
-1.15693e-07
2.49628e-06
8.5038e-08
-1.27242e-07
2.15549e-06
4.38116e-08
-1.36932e-07
1.75592e-06
-1.40693e-07
1.14062e-06
1.93093e-07
-7.24594e-08
3.12948e-06
1.86827e-07
-8.13848e-08
3.10877e-06
1.73527e-07
-9.16451e-08
3.00813e-06
1.52396e-07
-1.03513e-07
2.84676e-06
1.23517e-07
-1.15674e-07
2.63913e-06
8.75127e-08
-1.27229e-07
2.38936e-06
4.55078e-08
-1.37012e-07
2.073e-06
-1.40418e-07
1.53781e-06
1.88681e-07
2.49053e-06
-7.66955e-08
1.84433e-07
2.64424e-06
-8.21349e-08
1.71778e-07
2.70323e-06
-8.90841e-08
1.50426e-07
2.69043e-06
-9.78788e-08
1.20912e-07
2.62073e-06
-1.07685e-07
8.4319e-08
2.49839e-06
-1.17876e-07
4.23239e-08
2.30112e-06
-1.27604e-07
1.88737e-06
-1.34125e-07
6.86098e-08
-3.26073e-08
1.71271e-06
1.23029e-08
7.54067e-08
-3.31342e-08
1.72875e-06
1.17672e-08
7.59484e-08
-3.4034e-08
1.66445e-06
1.12486e-08
7.04148e-08
-3.54607e-08
1.53959e-06
1.08732e-08
5.95406e-08
-3.73239e-08
1.36857e-06
1.06832e-08
4.43519e-08
-3.94782e-08
1.15706e-06
1.07855e-08
2.59978e-08
-4.17744e-08
8.89714e-07
1.09826e-08
-4.26543e-08
4.68114e-07
1.25215e-08
8.05556e-08
-4.96696e-08
2.42244e-06
8.74595e-08
-5.25914e-08
2.32143e-06
8.73586e-08
-5.6237e-08
2.14912e-06
8.0581e-08
-6.0659e-08
1.92329e-06
6.78813e-08
-6.54809e-08
1.65781e-06
5.03527e-08
-7.0333e-08
1.35753e-06
2.8741e-08
-7.46246e-08
1.00315e-06
-7.56571e-08
4.74273e-07
9.73285e-08
-6.07746e-08
3.01594e-06
1.0318e-07
-6.65165e-08
2.83898e-06
1.01661e-07
-7.36328e-08
2.59331e-06
9.28817e-08
-8.1557e-08
2.29906e-06
7.75404e-08
-8.96601e-08
1.97035e-06
5.67951e-08
-9.73666e-08
1.61132e-06
3.18149e-08
-1.03876e-07
1.19896e-06
-1.05719e-07
5.95179e-07
1.1373e-07
-6.4681e-08
3.38267e-06
1.18247e-07
-7.35015e-08
3.18939e-06
1.15156e-07
-8.38077e-08
2.92755e-06
1.04452e-07
-9.48695e-08
2.61806e-06
8.67404e-08
-1.05813e-07
2.27519e-06
6.31486e-08
-1.15908e-07
1.90254e-06
3.49811e-08
-1.24212e-07
1.47471e-06
-1.26757e-07
8.41645e-07
1.23149e-07
-6.40286e-08
3.42887e-06
1.27009e-07
-7.50185e-08
3.29136e-06
1.23193e-07
-8.71172e-08
3.08193e-06
1.11465e-07
-9.99047e-08
2.82084e-06
9.23699e-08
-1.12333e-07
2.52203e-06
6.69505e-08
-1.23616e-07
2.1888e-06
3.65302e-08
-1.32778e-07
1.79509e-06
-1.35871e-07
1.18631e-06
1.24297e-07
-6.15499e-08
3.11862e-06
1.26985e-07
-7.27407e-08
3.10379e-06
1.2274e-07
-8.50147e-08
3.01034e-06
1.10913e-07
-9.77974e-08
2.85653e-06
9.18371e-08
-1.10125e-07
2.65608e-06
6.64653e-08
-1.21319e-07
2.41254e-06
3.60586e-08
-1.30413e-07
2.10114e-06
-1.33135e-07
1.57115e-06
1.21409e-07
2.48191e-06
-5.9505e-08
1.227e-07
2.63879e-06
-6.86063e-08
1.17096e-07
2.70226e-06
-7.85021e-08
1.04146e-07
2.6946e-06
-8.90225e-08
8.43735e-08
2.63002e-06
-9.95946e-08
5.90164e-08
2.5123e-06
-1.09788e-07
2.99037e-08
2.31889e-06
-1.18977e-07
1.90902e-06
-1.24689e-07
5.8631e-08
-3.41067e-08
1.71831e-06
1.3618e-08
6.79125e-08
-3.63756e-08
1.74297e-06
1.29709e-08
6.98255e-08
-3.80222e-08
1.68835e-06
1.23016e-08
6.40534e-08
-3.99298e-08
1.57356e-06
1.18589e-08
5.10341e-08
-4.2044e-08
1.41217e-06
1.16134e-08
3.23141e-08
-4.4424e-08
1.2088e-06
1.15718e-08
1.26391e-08
-4.70933e-08
9.45322e-07
1.13692e-08
-4.87613e-08
5.18322e-07
1.13933e-08
6.48692e-08
-5.08411e-08
2.42057e-06
7.64032e-08
-5.70695e-08
2.33081e-06
7.93236e-08
-6.22538e-08
2.17062e-06
7.36191e-08
-6.77092e-08
1.95698e-06
5.99862e-08
-7.32741e-08
1.70289e-06
4.00976e-08
-7.88995e-08
1.4121e-06
1.81852e-08
-8.43606e-08
1.06253e-06
-8.75224e-08
5.31244e-07
7.32835e-08
-6.08833e-08
3.00461e-06
8.58758e-08
-7.07653e-08
2.8403e-06
8.9193e-08
-8.02345e-08
2.60818e-06
8.30265e-08
-8.96413e-08
2.32735e-06
6.80837e-08
-9.87569e-08
2.01099e-06
4.59961e-08
-1.07373e-07
1.66208e-06
2.08817e-08
-1.1507e-07
1.25494e-06
-1.19032e-07
6.47537e-07
7.99921e-08
-6.33139e-08
3.36294e-06
9.28598e-08
-7.61163e-08
3.18209e-06
9.60782e-08
-8.93954e-08
2.9337e-06
8.93438e-08
-1.02184e-07
2.6375e-06
7.33215e-08
-1.14126e-07
2.30676e-06
4.95457e-08
-1.24874e-07
1.94399e-06
2.17433e-08
-1.33803e-07
1.52135e-06
-1.37288e-07
8.81611e-07
8.0321e-08
-6.09133e-08
3.40452e-06
9.33475e-08
-7.51097e-08
3.27756e-06
9.66215e-08
-9.037e-08
3.07983e-06
8.98341e-08
-1.04787e-07
2.83039e-06
7.36209e-08
-1.17974e-07
2.54223e-06
4.95157e-08
-1.29513e-07
2.21766e-06
2.09756e-08
-1.38657e-07
1.82856e-06
-1.41423e-07
1.21142e-06
7.41602e-08
-5.64895e-08
3.09471e-06
8.62887e-08
-7.05487e-08
3.08728e-06
8.92849e-08
-8.54695e-08
3.00255e-06
8.2877e-08
-9.93924e-08
2.85767e-06
6.76458e-08
-1.12043e-07
2.66546e-06
4.51954e-08
-1.23085e-07
2.42862e-06
1.89137e-08
-1.31795e-07
2.12063e-06
-1.33914e-07
1.58266e-06
6.94391e-08
2.46316e-06
-4.88267e-08
7.67198e-08
2.62348e-06
-6.23944e-08
7.69382e-08
2.69205e-06
-7.54089e-08
6.93776e-08
2.69014e-06
-8.72939e-08
5.45125e-08
2.63107e-06
-9.81947e-08
3.4108e-08
2.51772e-06
-1.08092e-07
1.18862e-08
2.32614e-06
-1.1674e-07
1.90863e-06
-1.21443e-07
8.61318e-08
-4.02068e-08
1.72362e-06
1.57006e-08
9.77909e-08
-4.21968e-08
1.75748e-06
1.62358e-08
9.93655e-08
-4.36445e-08
1.71353e-06
1.6925e-08
9.11837e-08
-4.54223e-08
1.60908e-06
1.80835e-08
7.47052e-08
-4.73079e-08
1.45629e-06
1.96742e-08
5.21193e-08
-4.92206e-08
1.25884e-06
2.17748e-08
2.24463e-08
-5.07738e-08
1.0015e-06
2.42761e-08
-5.01389e-08
5.64864e-07
2.59763e-08
9.95058e-08
-6.192e-08
2.41995e-06
1.12109e-07
-6.71338e-08
2.34316e-06
1.13252e-07
-7.12765e-08
2.19712e-06
1.02989e-07
-7.54885e-08
1.99733e-06
8.27394e-08
-7.94808e-08
1.75533e-06
5.50132e-08
-8.30021e-08
1.47359e-06
1.99004e-08
-8.52397e-08
1.13201e-06
-8.2152e-08
5.82961e-07
1.11919e-07
-7.60104e-08
2.99435e-06
1.25296e-07
-8.49831e-08
2.84485e-06
1.26804e-07
-9.31697e-08
2.62861e-06
1.16169e-07
-1.00864e-07
2.36338e-06
9.45965e-08
-1.07814e-07
2.0609e-06
6.44997e-08
-1.13667e-07
1.72278e-06
2.60988e-08
-1.17339e-07
1.32523e-06
-1.13061e-07
7.04333e-07
1.1958e-07
-8.06697e-08
3.34277e-06
1.33249e-07
-9.26698e-08
3.17627e-06
1.35395e-07
-1.04669e-07
2.94318e-06
1.2569e-07
-1.15601e-07
2.66197e-06
1.05231e-07
-1.25266e-07
2.34464e-06
7.62377e-08
-1.33336e-07
1.99253e-06
3.83161e-08
-1.38748e-07
1.58042e-06
-1.3539e-07
9.42081e-07
1.17953e-07
-7.84717e-08
3.37772e-06
1.31797e-07
-9.13037e-08
3.2625e-06
1.34717e-07
-1.05106e-07
3.07745e-06
1.2672e-07
-1.17521e-07
2.84038e-06
1.08918e-07
-1.28522e-07
2.56326e-06
8.33305e-08
-1.37848e-07
2.24766e-06
4.88822e-08
-1.44602e-07
1.86872e-06
-1.43399e-07
1.26833e-06
1.07876e-07
-7.22462e-08
3.06665e-06
1.21297e-07
-8.41703e-08
3.06693e-06
1.24735e-07
-9.69426e-08
2.99099e-06
1.18544e-07
-1.08358e-07
2.85475e-06
1.03885e-07
-1.18638e-07
2.67024e-06
8.25614e-08
-1.27647e-07
2.43974e-06
5.31268e-08
-1.34742e-07
2.1403e-06
-1.35494e-07
1.62814e-06
9.65998e-08
2.43933e-06
-6.08612e-08
1.05799e-07
2.60235e-06
-7.20745e-08
1.07917e-07
2.67546e-06
-8.23388e-08
1.02625e-07
2.67839e-06
-9.12264e-08
9.05595e-08
2.62369e-06
-9.91988e-08
7.32043e-08
2.51402e-06
-1.06581e-07
4.90679e-08
2.32866e-06
-1.12995e-07
1.93733e-06
-1.15046e-07
2.86093e-07
-5.97436e-08
1.72823e-06
1.32321e-09
3.28421e-07
-6.07794e-08
1.7743e-06
1.9277e-09
3.54618e-07
-6.19652e-08
1.74686e-06
2.52938e-09
3.59592e-07
-6.34248e-08
1.6643e-06
3.21792e-09
3.39446e-07
-6.53659e-08
1.53791e-06
3.82645e-09
2.92871e-07
-6.78646e-08
1.36914e-06
4.06715e-09
2.17082e-07
-7.07182e-08
1.1448e-06
3.09731e-09
-7.13298e-08
8.53978e-07
-8.64539e-10
3.05316e-07
-1.04417e-07
2.41089e-06
3.48606e-07
-1.08188e-07
2.34728e-06
3.77434e-07
-1.12628e-07
2.21896e-06
3.86497e-07
-1.17456e-07
2.04226e-06
3.71471e-07
-1.2297e-07
1.82787e-06
3.30232e-07
-1.29437e-07
1.57626e-06
2.55082e-07
-1.37045e-07
1.27329e-06
-1.4283e-07
9.09415e-07
3.21821e-07
-1.31299e-07
2.97079e-06
3.62931e-07
-1.3819e-07
2.83381e-06
3.90414e-07
-1.45863e-07
2.63438e-06
3.99253e-07
-1.53896e-07
2.39094e-06
3.84793e-07
-1.62397e-07
2.11468e-06
3.44164e-07
-1.71685e-07
1.80544e-06
2.68215e-07
-1.82249e-07
1.44609e-06
-1.92091e-07
1.02171e-06
3.28994e-07
-1.40226e-07
3.30775e-06
3.64117e-07
-1.4905e-07
3.15214e-06
3.86275e-07
-1.58483e-07
2.93372e-06
3.90691e-07
-1.68131e-07
2.67178e-06
3.72678e-07
-1.77934e-07
2.37805e-06
3.29248e-07
-1.88172e-07
2.05218e-06
2.5349e-07
-1.99361e-07
1.67296e-06
-2.10326e-07
1.21374e-06
3.22264e-07
-1.36603e-07
3.33741e-06
3.49624e-07
-1.44497e-07
3.23068e-06
3.64489e-07
-1.53316e-07
3.05745e-06
3.62495e-07
-1.62366e-07
2.8366e-06
3.39181e-07
-1.71539e-07
2.58006e-06
2.917e-07
-1.81028e-07
2.2878e-06
2.17323e-07
-1.91225e-07
1.93478e-06
-2.00918e-07
1.47634e-06
3.03233e-07
-1.27169e-07
3.02914e-06
3.22539e-07
-1.31995e-07
3.03526e-06
3.29893e-07
-1.37961e-07
2.96833e-06
3.21025e-07
-1.44232e-07
2.84549e-06
2.91845e-07
-1.50852e-07
2.67871e-06
2.40203e-07
-1.58059e-07
2.46843e-06
1.68583e-07
-1.66196e-07
2.18701e-06
-1.73222e-07
1.76928e-06
2.76487e-07
2.41175e-06
-1.18082e-07
2.88852e-07
2.57755e-06
-1.19415e-07
2.90631e-07
2.65682e-06
-1.2096e-07
2.77303e-07
2.67044e-06
-1.22882e-07
2.44769e-07
2.631e-06
-1.25564e-07
1.91109e-07
2.53936e-06
-1.29606e-07
1.21998e-07
2.36676e-06
-1.34956e-07
2.02515e-06
-1.39132e-07
5.40933e-07
-7.5202e-08
-8.08079e-09
1.69199e-06
6.47938e-07
-7.29808e-08
-4.4066e-09
1.74482e-06
7.32149e-07
-7.36791e-08
2.08749e-10
1.73624e-06
7.80761e-07
-7.55468e-08
6.7345e-09
1.68453e-06
7.76782e-07
-7.80008e-08
1.49134e-08
1.60499e-06
6.90847e-07
-8.05051e-08
2.54711e-08
1.51012e-06
4.6472e-07
-8.18414e-08
3.94049e-08
1.4134e-06
-7.80678e-08
5.93824e-08
1.33747e-06
5.7753e-07
-1.45411e-07
2.36162e-06
6.87178e-07
-1.42573e-07
2.30734e-06
7.7588e-07
-1.42984e-07
2.19966e-06
8.29289e-07
-1.43206e-07
2.05655e-06
8.27825e-07
-1.42349e-07
1.8937e-06
7.38164e-07
-1.39387e-07
1.72485e-06
4.97759e-07
-1.32528e-07
1.56447e-06
-1.13852e-07
1.44317e-06
5.9419e-07
-1.90342e-07
2.90714e-06
6.97867e-07
-1.89767e-07
2.77749e-06
7.84272e-07
-1.90292e-07
2.5954e-06
8.39661e-07
-1.89419e-07
2.38186e-06
8.43384e-07
-1.85924e-07
2.15456e-06
7.58218e-07
-1.78417e-07
1.92966e-06
5.14781e-07
-1.64252e-07
1.72132e-06
-1.32681e-07
1.55547e-06
5.94976e-07
-2.06642e-07
3.23197e-06
6.85106e-07
-2.07638e-07
3.08002e-06
7.61449e-07
-2.06732e-07
2.8739e-06
8.11511e-07
-2.03387e-07
2.6358e-06
8.15911e-07
-1.96476e-07
2.38424e-06
7.37646e-07
-1.8455e-07
2.13659e-06
5.03347e-07
-1.64448e-07
1.90755e-06
-1.25797e-07
1.71028e-06
5.75011e-07
-1.99702e-07
3.25525e-06
6.48514e-07
-1.98605e-07
3.14822e-06
7.10811e-07
-1.93743e-07
2.98222e-06
7.51779e-07
-1.86332e-07
2.7786e-06
7.55449e-07
-1.75737e-07
2.55565e-06
6.88494e-07
-1.61058e-07
2.33126e-06
4.7411e-07
-1.39743e-07
2.12454e-06
-1.03483e-07
1.9282e-06
5.3925e-07
-1.79703e-07
2.94889e-06
5.97236e-07
-1.72492e-07
2.95116e-06
6.46087e-07
-1.61664e-07
2.88748e-06
6.77151e-07
-1.485e-07
2.77657e-06
6.77757e-07
-1.32939e-07
2.63528e-06
6.20861e-07
-1.14818e-07
2.47908e-06
4.34633e-07
-9.29459e-08
2.32644e-06
-6.25195e-08
2.16289e-06
4.809e-07
-1.59612e-07
2.34122e-06
5.3045e-07
-1.42993e-07
2.49847e-06
5.74267e-07
-1.25231e-07
2.57656e-06
6.06089e-07
-1.06404e-07
2.5965e-06
6.15151e-07
-8.59514e-08
2.57502e-06
5.76811e-07
-6.33495e-08
2.52637e-06
4.19751e-07
-3.6335e-08
2.4673e-06
-1.41768e-09
2.38362e-06
3.22958e-07
-4.43417e-08
5.95533e-06
5.09531e-08
3.19374e-07
-5.82714e-09
6.38805e-06
3.0281e-08
2.93552e-07
-1.34694e-09
6.76284e-06
1.84049e-08
2.57429e-07
-1.06764e-08
7.04597e-06
1.72667e-08
2.12632e-07
-2.56906e-08
7.24358e-06
2.33403e-08
1.54386e-07
-3.65743e-08
7.35176e-06
3.19747e-08
8.18565e-08
-4.63778e-08
7.31262e-06
4.15512e-08
-5.93543e-08
6.80071e-06
5.20052e-08
5.744e-07
1.37298e-08
8.47529e-06
6.21305e-07
6.6313e-08
8.4784e-06
5.77116e-07
5.49643e-08
8.52291e-06
5.05807e-07
3.30404e-08
8.61147e-06
4.12692e-07
1.25955e-08
8.64794e-06
2.98639e-07
1.90156e-09
8.61749e-06
1.60981e-07
-2.3186e-09
8.44908e-06
-4.74638e-09
7.76459e-06
5.98925e-07
1.68369e-07
9.84837e-06
7.18733e-07
1.35573e-07
9.60724e-06
6.94566e-07
1.0749e-07
9.42762e-06
6.17554e-07
8.32696e-08
9.37563e-06
5.03649e-07
6.75543e-08
9.29739e-06
3.60618e-07
6.3814e-08
9.16772e-06
1.90829e-07
6.85468e-08
8.9094e-06
7.78379e-08
8.12195e-06
5.24781e-07
1.9777e-07
9.38851e-06
6.1904e-07
1.49928e-07
9.24623e-06
6.08393e-07
1.27458e-07
9.13082e-06
5.48054e-07
1.13163e-07
9.08188e-06
4.5037e-07
1.08866e-07
8.99055e-06
3.24107e-07
1.14138e-07
8.84405e-06
1.72594e-07
1.27556e-07
8.56953e-06
1.44401e-07
7.77173e-06
3.22006e-07
1.54066e-07
7.58529e-06
3.73734e-07
1.21197e-07
7.7407e-06
3.7854e-07
1.11481e-07
7.85465e-06
3.47935e-07
1.11345e-07
7.89575e-06
2.89527e-07
1.17674e-07
7.8711e-06
2.08959e-07
1.29558e-07
7.77909e-06
1.10326e-07
1.45522e-07
7.56179e-06
1.63907e-07
6.87424e-06
1.75335e-07
1.06279e-07
5.57476e-06
2.01552e-07
8.93976e-08
5.91119e-06
2.06428e-07
8.89132e-08
6.13373e-06
1.9241e-07
9.63815e-08
6.26224e-06
1.61739e-07
1.07829e-07
6.31556e-06
1.17438e-07
1.22018e-07
6.29485e-06
6.27904e-08
1.38039e-07
6.15338e-06
1.54589e-07
5.60231e-06
1.13227e-07
3.74279e-06
6.57472e-08
1.278e-07
4.11996e-06
6.4722e-08
1.29635e-07
4.39211e-06
7.0386e-08
1.20817e-07
4.57611e-06
8.06334e-08
1.02559e-07
4.68628e-06
9.28327e-08
7.58426e-08
4.72375e-06
1.06254e-07
4.17515e-08
4.65188e-06
1.20269e-07
4.25428e-06
1.33182e-07
1.16068e-07
3.56115e-08
5.88919e-06
-2.1839e-09
1.04243e-07
4.8055e-08
6.37035e-06
-1.83759e-08
9.81382e-08
2.20025e-08
6.76028e-06
-1.42214e-08
9.8744e-08
-6.80296e-09
7.055e-06
-2.87081e-09
9.43803e-08
-2.60586e-08
7.2643e-06
1.03136e-08
7.45454e-08
-3.26612e-08
7.38343e-06
2.1247e-08
4.0693e-08
-3.94224e-08
7.35399e-06
3.20769e-08
-5.07121e-08
6.84844e-06
4.36913e-08
3.91872e-07
1.50784e-07
8.13696e-06
3.97788e-07
1.24277e-07
8.39676e-06
3.62307e-07
6.60575e-08
8.51448e-06
3.20751e-07
2.10783e-08
8.62504e-06
2.66742e-07
-7.42626e-10
8.6767e-06
1.96639e-07
-4.11532e-09
8.65906e-06
1.06976e-07
-2.92978e-09
8.50214e-06
-3.12182e-09
7.82398e-06
3.83629e-07
2.07281e-07
9.39352e-06
4.82503e-07
1.37429e-07
9.49583e-06
4.71978e-07
8.54718e-08
9.41916e-06
4.19272e-07
5.51004e-08
9.39455e-06
3.41283e-07
4.34813e-08
9.33118e-06
2.44067e-07
4.67091e-08
9.21406e-06
1.28057e-07
5.58204e-08
8.9666e-06
6.64345e-08
8.18046e-06
3.21698e-07
1.46276e-07
9.21016e-06
4.0216e-07
1.04687e-07
9.1989e-06
4.01206e-07
8.29722e-08
9.13426e-06
3.63354e-07
7.38674e-08
9.10107e-06
2.99923e-07
7.60575e-08
9.02149e-06
2.17269e-07
8.68521e-08
8.88661e-06
1.16462e-07
1.03601e-07
8.62264e-06
1.22761e-07
7.83201e-06
1.68149e-07
7.92148e-08
7.55177e-06
2.146e-07
6.25288e-08
7.73652e-06
2.26129e-07
6.43478e-08
7.8616e-06
2.12831e-07
7.21275e-08
7.9108e-06
1.79474e-07
8.474e-08
7.89579e-06
1.29726e-07
1.01117e-07
7.81458e-06
6.75448e-08
1.19574e-07
7.60806e-06
1.40435e-07
6.92424e-06
9.31947e-08
4.83601e-08
5.56985e-06
1.12118e-07
4.41364e-08
5.91047e-06
1.19161e-07
5.35162e-08
6.13748e-06
1.13586e-07
6.72123e-08
6.27281e-06
9.6329e-08
8.28411e-08
6.33479e-06
6.94481e-08
9.96953e-08
6.32323e-06
3.60911e-08
1.17309e-07
6.18917e-06
1.33293e-07
5.6456e-06
6.75262e-08
3.73903e-06
3.3047e-08
7.4223e-08
4.11845e-06
3.87525e-08
7.50917e-08
4.39516e-06
4.96777e-08
7.03057e-08
4.58551e-06
6.27459e-08
6.01368e-08
4.70296e-06
7.64565e-08
4.52696e-08
4.74798e-06
9.04323e-08
2.65718e-08
4.6839e-06
1.04126e-07
4.29852e-06
1.15647e-07
5.5619e-09
9.41496e-08
5.90003e-06
-7.88996e-08
3.8768e-09
6.11083e-08
6.36479e-06
-5.3979e-08
2.52813e-08
2.58861e-08
6.747e-06
-3.43304e-08
4.86514e-08
1.8037e-09
7.04437e-06
-1.44706e-08
5.67612e-08
-3.919e-09
7.2611e-06
-8.28519e-10
4.78362e-08
-8.13533e-09
7.38979e-06
1.08679e-08
2.63794e-08
-1.59043e-08
7.36934e-06
2.21342e-08
-2.9386e-08
6.8698e-06
3.46592e-08
1.70973e-07
1.17085e-07
8.11933e-06
1.26164e-07
6.51736e-08
8.43739e-06
1.29736e-07
2.52348e-08
8.5117e-06
1.36764e-07
5.33824e-09
8.61463e-06
1.31859e-07
7.20674e-09
8.67048e-06
1.07641e-07
1.2008e-08
8.66313e-06
6.26032e-08
1.43114e-08
8.51697e-06
1.13395e-08
7.84604e-06
1.10044e-07
2.95491e-08
9.42011e-06
9.87374e-08
1.19179e-08
9.56043e-06
1.21378e-07
2.77365e-09
9.41913e-06
1.33773e-07
7.86846e-09
9.37984e-06
1.32228e-07
2.08868e-08
9.31916e-06
1.09504e-07
3.56163e-08
9.21323e-06
6.40818e-08
4.84505e-08
8.97794e-06
5.81457e-08
8.19782e-06