/*--------------------------------*- C++ -*----------------------------------*\
| =========                 |                                                 |
| \\      /  F ield         | OpenFOAM: The Open Source CFD Toolbox           |
|  \\    /   O peration     | Version:  plus.master.MPPICInterFoam            |
|   \\  /    A nd           | Web:      www.OpenFOAM.com                      |
|    \\/     M anipulation  |                                                 |
\*---------------------------------------------------------------------------*/
FoamFile
{
    version     2.0;
    format      ascii;
    class       volScalarField;
    location    "13.6";
    object      p_rgh;
}
// * * * * * * * * * * * * * * * * * * * * * * * * * * * * * * * * * * * * * //

dimensions      [1 -1 -2 0 0 0 0];

internalField   nonuniform List<scalar> 
11822
(
5746.67
5746.28
5746.25
5746.25
5746.16
5746.09
5746.02
5100.83
5213.35
5258.24
5669.9
5746.32
5746.21
5746.1
2691.29
2523.39
3244.84
4862.51
5672.15
5746.4
5746.23
2253.1
3066.36
3512.35
3498.87
5353.14
5746.57
5746.33
2287.23
3522.38
3520.36
3074.05
5285.37
5746.54
5746.37
2535.01
2237.35
2448.43
3226.6
5241.62
5746.64
5746.44
2532.07
2238.42
2634.38
4037.55
5460.83
5746.56
5746.44
5752
5751.56
5751.63
5751.61
5751.5
5751.39
5751.29
5200.1
5305.97
5331.67
5681.78
5751.7
5751.56
5751.41
2810.1
2760.07
3405.22
4998.56
5683.68
5751.8
5751.56
2226.46
3440.12
2743.13
3708.13
5415.66
5751.99
5751.69
2176.67
3483.15
3482.66
3278.75
5367.86
5752.05
5751.75
2175.64
2175.62
2332.22
3406.66
5327.38
5752.12
5751.81
2495.93
2226.6
2715.05
4213.64
5508.24
5752
5751.8
5757.14
5756.87
5756.82
5756.65
5756.45
5756.23
5756
5298.2
5380.32
5367.91
5689.99
5756.72
5756.5
5756.24
3165.01
2914.26
3544.82
5079.89
5688.79
5756.82
5756.47
2174.61
2309.49
2111.42
3788.73
5430.23
5757.14
5756.68
2113.86
3440.54
3205.36
3424.13
5416.36
5757.25
5756.8
2112.11
2111.45
2119.42
3634.22
5359.48
5757.26
5756.84
2781.39
2752.71
2971.39
4419.95
5528.47
5757.04
5756.76
5762.01
5761.99
5761.95
5761.72
5761.49
5761.26
5761.08
5323.97
5402.73
5371.59
5694.25
5761.83
5761.55
5761.3
3238.57
2838.28
3532.61
5082.42
5691.53
5761.9
5761.53
2055.23
2049.6
2047.85
3753.28
5424.95
5762.24
5761.75
2546.62
2754.78
2046.72
3359.55
5416.36
5762.33
5761.85
2217.98
2047.03
2046.15
3613.11
5354.48
5762.32
5761.88
3133.9
3178.37
2965.96
4430.64
5529.44
5762.02
5761.77
5765.02
5765.13
5765.06
5764.65
5764.22
5763.72
5763.15
5298.85
5385.99
5352.08
5692
5764.71
5764.23
5763.68
3064.48
2672.1
3453.76
5033.13
5684
5764.71
5764.12
1981.25
1983.73
1983.11
3655
5394.37
5765.14
5764.48
3235.32
2226.48
1982.69
3190.82
5378
5765.27
5764.69
3036.75
1981.18
1980.83
3457.79
5314.4
5765.37
5764.79
3017.93
2857.7
2753.73
4343.3
5507.02
5765.16
5764.69
5772.05
5772.05
5772.02
5771.81
5771.65
5771.51
5771.54
5241.85
5348.45
5315.63
5689.87
5771.78
5771.7
5771.63
2814.88
2600.43
3392.92
4946.56
5676.13
5771.96
5771.87
1914.47
1919.5
2614.43
3567.32
5354.19
5772.32
5772.16
2560.9
2727.81
2131.05
3072.07
5328.35
5772.56
5772.43
2959.62
1916.54
1918.38
3282.55
5265.08
5772.77
5772.66
2540.25
2008.07
2431.27
4251.21
5483.79
5772.84
5772.87
5745.93
5745.89
5745.86
5745.86
5745.87
5745.91
5745.64
5743.84
5745.98
5745.92
5745.88
5745.87
5745.88
5745.91
5745.97
5746.04
5746.07
5745.98
5745.93
5745.9
5745.9
5745.93
5746
5746.07
5746.15
5746.05
5745.99
5745.96
5745.95
5745.98
5746.05
5746.12
5746.21
5746.11
5746.05
5746.02
5746.02
5746.05
5746.11
5746.05
5746.29
5746.18
5746.12
5746.1
5746.1
5746.13
5746.19
5746.03
5746.27
5746.2
5746.17
5746.17
5746.18
5746.22
5746.28
5744.69
5751.17
5751.11
5751.06
5751.02
5751
5751
5750.62
5749.28
5751.26
5751.16
5751.09
5751.04
5751.01
5751
5751.03
5751.07
5751.36
5751.24
5751.14
5751.07
5751.03
5751.03
5751.05
5751.1
5751.46
5751.31
5751.2
5751.12
5751.08
5751.08
5751.1
5751.15
5751.52
5751.37
5751.26
5751.19
5751.15
5751.15
5751.17
5751.07
5751.59
5751.44
5751.35
5751.28
5751.25
5751.25
5751.27
5750.96
5751.58
5751.48
5751.41
5751.37
5751.35
5751.36
5751.38
5750.83
5755.76
5755.63
5755.52
5755.45
5755.41
5755.41
5754.96
5754.05
5755.96
5755.78
5755.63
5755.53
5755.47
5755.46
5755.51
5755.56
5756.16
5755.93
5755.76
5755.64
5755.56
5755.55
5755.6
5755.65
5756.33
5756.09
5755.9
5755.77
5755.69
5755.67
5755.72
5755.78
5756.44
5756.2
5756.03
5755.9
5755.83
5755.81
5755.85
5755.76
5756.5
5756.29
5756.14
5756.04
5755.98
5755.97
5756
5755.1
5756.44
5756.3
5756.2
5756.14
5756.11
5756.11
5756.14
5756.17
5760.96
5760.87
5760.81
5760.77
5760.76
5760.76
5759.94
5759.86
5761.09
5760.94
5760.84
5760.79
5760.77
5760.79
5760.8
5760.85
5761.25
5761.05
5760.92
5760.84
5760.81
5760.81
5760.81
5760.88
5761.41
5761.18
5761.02
5760.92
5760.86
5760.84
5760.83
5760.86
5761.51
5761.29
5761.13
5761.02
5760.94
5760.89
5760.85
5760.77
5761.57
5761.37
5761.23
5761.12
5761.03
5760.97
5760.91
5759.07
5761.49
5761.37
5761.27
5761.18
5761.11
5761.04
5760.97
5760.29
5762.59
5762.17
5761.8
5761.49
5761.3
5761.28
5760.54
5760.78
5763.08
5762.6
5762.18
5761.82
5761.57
5761.48
5761.62
5761.81
5763.52
5763.03
5762.59
5762.21
5761.92
5761.79
5761.91
5762.08
5763.88
5763.41
5762.99
5762.61
5762.33
5762.2
5762.31
5762.44
5764.12
5763.69
5763.32
5762.98
5762.73
5762.64
5762.76
5762.85
5764.22
5763.85
5763.54
5763.26
5763.06
5763.01
5763.16
5760.98
5764.11
5763.86
5763.64
5763.44
5763.31
5763.32
5763.49
5759.91
5771.86
5772.05
5772.27
5772.65
5773.2
5773.93
5774.16
5774.85
5771.69
5771.78
5772
5772.4
5773.03
5773.88
5774.92
5775.66
5771.84
5771.87
5772.05
5772.43
5773.04
5773.91
5774.99
5775.78
5772.09
5772.1
5772.25
5772.6
5773.17
5773.97
5774.97
5775.66
5772.37
5772.42
5772.58
5772.91
5773.42
5774.12
5774.93
5775.39
5772.63
5772.74
5772.91
5773.19
5773.6
5774.13
5774.67
5773.05
5773.05
5773.28
5773.45
5773.66
5773.94
5774.25
5774.53
5770.48
4213.46
5652.35
5746.76
5746.73
5746.67
5746.87
5747.06
5747.27
2776.78
4425.36
5744.61
5746.7
5746.11
5746.72
5747
5747.31
2503.83
4038
5719.15
5746.51
5745.39
5746.24
5746.84
5747.18
2492.63
4491.28
5746.95
5746.64
5746.53
5746.55
5746.82
5747.12
4142.59
5641.43
5746.52
5746.45
5746.05
5742.7
5744.31
5746.9
5609.65
5745.43
5746.34
5744.55
5742.55
5742.63
5745.66
5746.74
5746.41
5746.44
5746.41
5746.24
5745.79
5745.99
5746.45
5746.6
4295.22
5678.21
5752.69
5752.46
5752.31
5752.32
5752.41
5752.55
2604.61
4522.72
5753.22
5752.59
5752.32
5752.27
5752.41
5752.66
2219.73
4097.04
5732.33
5752.46
5752.16
5752.12
5752.28
5752.54
2525.38
4569.91
5752.71
5752.25
5752.04
5751.98
5752.17
5752.42
4255.9
5659.93
5752.11
5751.94
5751.04
5747.97
5750.11
5752.15
5638.25
5751.03
5751.76
5750.11
5747.79
5748.86
5751.08
5751.93
5751.76
5751.73
5751.69
5751.54
5751.14
5751.49
5751.66
5751.75
4462.81
5696.95
5756.92
5756.83
5756.75
5756.74
5756.82
5756.94
2969.33
4750.7
5757.19
5757.13
5756.89
5756.84
5756.95
5757.15
2658.52
4390.07
5736.09
5757.04
5756.85
5756.81
5756.94
5757.14
2848.75
4774.37
5757.37
5757.04
5756.85
5756.8
5756.9
5757.08
4485.88
5690.35
5757.03
5756.86
5755.88
5752.73
5754.83
5756.87
5665.76
5756.3
5756.77
5755.75
5753.35
5755.52
5755.92
5756.68
5756.78
5756.69
5756.62
5756.47
5756.24
5756.44
5756.48
5756.53
4449.64
5698.01
5760.73
5760.63
5760.52
5760.48
5760.52
5760.61
3698.17
4769.81
5757.75
5761.15
5760.81
5760.65
5760.67
5760.82
3703.88
4505.57
5737.22
5761.27
5760.94
5760.76
5760.73
5760.89
3037.96
4830.68
5761.84
5761.41
5761.08
5760.87
5760.73
5760.94
4542.75
5704.32
5761.54
5761.29
5760.38
5756.93
5758.85
5760.88
5677.11
5761.16
5761.4
5761.05
5760.83
5760.39
5760.23
5760.87
5761.6
5761.47
5761.33
5761.12
5761
5760.96
5760.9
5760.88
4307.16
5688.96
5763.19
5762.95
5762.75
5762.7
5762.89
5763.14
3645.55
4597.31
5757.23
5763.45
5763.03
5762.83
5762.93
5763.19
3665.2
4355.96
5738.33
5763.73
5763.27
5762.55
5762.32
5763.27
2854.9
4748.81
5764.59
5764.08
5763.63
5762.71
5762.17
5763.49
4464.8
5701.53
5764.38
5764.08
5763.45
5759.52
5761.61
5763.63
5672.27
5764.03
5764.31
5764.07
5763.84
5763.1
5763.26
5763.92
5764.55
5764.34
5764.1
5763.82
5763.72
5763.7
5763.85
5763.97
4117.73
5682.68
5769.68
5769.09
5768.41
5767.64
5767.06
5766.85
2884.71
4322.51
5764.44
5768.9
5768.02
5766.79
5766.17
5766.05
2741.76
4033.51
5741.6
5769.06
5768.17
5765.3
5764.85
5765.98
2418.79
4562.19
5770.47
5769.8
5768.94
5766.02
5765.43
5766.66
4328.5
5692.18
5770.79
5770.38
5769.8
5764.98
5766.53
5768.08
5660.63
5770.78
5771.36
5771.12
5770.78
5769.56
5769.51
5769.54
5771.97
5772.02
5771.89
5771.73
5771.69
5771.56
5771.32
5770.96
5746.41
5746.29
5746.23
5745.78
5746.07
5746.28
5746.35
5746.42
5746.27
5746.18
5745.37
5745.18
5746.05
5746.18
5746.22
5746.31
5746.16
5746.08
5745.55
5745.87
5746.05
5746.09
5746.14
5746.21
5746.11
5746.03
5745.99
5745.99
5746
5746
5746.08
5746.15
5746.04
5745.93
5745.94
5745.94
5745.95
5745.97
5746.03
5746.09
5745.97
5745.94
5745.91
5745.91
5745.92
5745.96
5745.48
5735.6
5745.93
5745.9
5745.88
5745.88
5745.9
5745.93
5742.41
5733.81
5751.75
5751.59
5751.48
5750.56
5751.27
5751.45
5751.5
5751.54
5751.55
5751.44
5750.21
5750.4
5751.27
5751.31
5751.34
5751.38
5751.47
5751.35
5750.86
5751.13
5751.18
5751.16
5751.2
5751.25
5751.43
5751.29
5751.2
5751.14
5751.1
5751.06
5751.11
5751.15
5751.33
5751.17
5751.13
5751.07
5751.04
5751.03
5751.05
5751.08
5751.25
5751.16
5751.09
5751.04
5751.01
5751.01
5750.03
5746.76
5751.16
5751.1
5751.06
5751.02
5751
5751
5747.47
5738.58
5756.76
5756.54
5756.28
5755.42
5756.12
5756.26
5756.28
5756.31
5756.65
5756.44
5755.11
5755.46
5756.11
5756.09
5756.1
5756.12
5756.53
5756.12
5755.75
5755.98
5755.94
5755.87
5755.9
5755.94
5756.38
5756.16
5755.99
5755.86
5755.77
5755.71
5755.76
5755.8
5756.17
5755.96
5755.82
5755.7
5755.62
5755.6
5755.63
5755.68
5755.99
5755.81
5755.68
5755.57
5755.51
5755.5
5754.66
5755.03
5755.77
5755.63
5755.54
5755.46
5755.43
5755.43
5751.83
5742.92
5761.56
5761.34
5760.62
5760.15
5760.87
5760.87
5760.8
5760.77
5761.62
5761.36
5759.97
5760.55
5760.86
5760.74
5760.66
5760.62
5761.55
5760.73
5760.66
5760.84
5760.71
5760.56
5760.5
5760.47
5761.38
5761.11
5760.9
5760.73
5760.59
5760.47
5760.41
5760.39
5761.17
5760.97
5760.78
5760.64
5760.53
5760.45
5760.4
5760.36
5761.04
5760.86
5760.72
5760.61
5760.56
5760.52
5760.03
5759.84
5760.92
5760.81
5760.74
5760.69
5760.67
5760.66
5756.45
5747.81
5764.39
5764.15
5762.76
5762.93
5763.58
5763.6
5763.76
5763.86
5764.57
5764.14
5762.73
5763.41
5763.49
5763.42
5763.55
5763.63
5764.47
5763.51
5763.38
5763.41
5763.18
5763.05
5763.19
5763.27
5764.14
5763.7
5763.33
5762.99
5762.7
5762.6
5762.73
5762.64
5763.69
5763.24
5762.83
5762.47
5762.16
5762.09
5762.22
5762.01
5763.2
5762.72
5762.31
5761.95
5761.71
5761.63
5760.41
5761.1
5762.63
5762.19
5761.83
5761.54
5761.35
5761.34
5758.04
5748.63
5772.17
5772.24
5771.11
5771.83
5772.34
5772.31
5772.19
5771.88
5772.02
5771.5
5770.83
5771.92
5772.19
5772.28
5772.32
5772.12
5771.93
5771.32
5771.64
5771.95
5772.1
5772.28
5772.53
5772.51
5771.72
5771.62
5771.62
5771.65
5771.83
5772.28
5772.74
5772.79
5771.56
5771.47
5771.48
5771.56
5771.84
5772.45
5773.08
5773.14
5771.52
5771.48
5771.53
5771.74
5772.17
5772.79
5772.21
5770.96
5771.73
5771.83
5771.99
5772.32
5772.82
5773.49
5773.68
5762.32
5746.33
5746.34
5746.29
5746.29
5746.2
5746.31
5746.39
5744.72
5746.36
5746.34
5746.26
5745.9
5745.16
5746.08
5746.46
5746.05
5729.18
5746.39
5746.38
5744.9
5740.88
5744.24
5746.49
5746.67
5342.5
5746.53
5746.48
5745.96
5746.36
5746.51
5746.02
5746.78
4136.94
5700.36
5746.67
5746.55
5746.37
5746.58
5746.67
5746.62
3808.43
5646.27
5746.86
5746.71
5746.66
5746.71
5746.37
5745.63
4535.62
5745.61
5746.46
5746.57
5746.66
5746.77
5746.94
5746.56
5751.65
5751.63
5751.55
5751.44
5751.11
5751.47
5751.51
5749.78
5751.78
5751.72
5751.45
5751.2
5749.86
5751.44
5751.62
5751.09
5737.6
5751.86
5751.8
5748.64
5746.06
5749.81
5751.7
5751.83
5401.32
5752.11
5751.97
5751.41
5749.86
5748.45
5751.26
5751.99
4294.72
5715.92
5752.25
5752.04
5751.87
5751.91
5751.88
5752.15
3980.36
5666.39
5752.63
5752.29
5752.12
5751.69
5751.82
5751.18
4628.97
5752.88
5752.57
5752.36
5752.25
5752.22
5752.31
5752.07
5756.57
5756.5
5756.39
5755.9
5755.68
5756.26
5756.29
5754.52
5756.78
5756.68
5756.29
5755.32
5753.45
5756.37
5756.43
5755.83
5744.12
5756.86
5756.78
5751.4
5750.86
5755.06
5756.55
5756.58
5468.34
5757.02
5756.92
5756.35
5751.3
5750.93
5756.11
5756.77
4449.1
5730.27
5757.02
5756.85
5756.72
5756.7
5756.44
5756.86
4199.24
5683.71
5757.11
5756.88
5756.77
5754.98
5756.58
5756.82
4778.8
5756.92
5757.16
5756.93
5756.8
5756.75
5756.82
5756.86
5761.61
5761.51
5761.38
5760.29
5760.55
5761.09
5761.02
5759.44
5761.75
5761.61
5761.17
5756.72
5757.98
5761.11
5761.04
5760.47
5749.05
5761.73
5761.57
5755.54
5755.41
5760.13
5761.06
5760.65
5484.14
5761.79
5761.61
5760.92
5755.38
5755.27
5760.59
5761.06
4429.29
5737.2
5761.55
5761.3
5761.02
5758.9
5760.63
5761
4148.52
5687.84
5761.29
5761.07
5760.89
5758.76
5760.62
5760.89
4767.24
5759.68
5760.96
5760.81
5760.7
5760.6
5760.65
5760.71
5764.41
5764.18
5763.96
5762.55
5763.05
5763.64
5763.82
5763.43
5764.86
5764.63
5764.12
5758.26
5761.09
5764.01
5764.16
5764.12
5750.17
5764.96
5764.7
5758.57
5758.96
5763.78
5764.38
5764
5468.8
5765.05
5764.87
5764.08
5758.43
5758.48
5764.04
5764.15
4312.23
5738.27
5764.75
5764.45
5763.14
5758.31
5763.8
5763.9
3903.24
5681.8
5764.26
5763.97
5763.57
5761.77
5763.54
5763.9
4644.48
5761.95
5763.31
5763.2
5763.06
5763
5763.24
5763.46
5773.02
5773.13
5773.19
5772.21
5773.06
5773.66
5773.79
5772.67
5772.91
5772.92
5772.61
5766.85
5770.25
5772.92
5772.89
5772.62
5754.71
5772.79
5772.17
5766.54
5769.39
5772.27
5772.03
5771.31
5450.92
5772.49
5772.43
5771.49
5765.8
5767.87
5770.88
5770.26
4208.08
5740.83
5771.99
5771.61
5767.17
5764.77
5769.59
5768.87
3646.61
5671.1
5771.25
5770.79
5769.54
5768.17
5768.82
5768.62
4533.33
5769.59
5770.03
5769.72
5769.2
5768.57
5768.06
5767.81
5702.89
5703.01
5703.14
5703.24
5703.3
5703.32
5703.31
5703.27
5702.9
5703.02
5703.15
5703.26
5703.33
5703.36
5703.36
5703.33
5702.91
5703.04
5703.17
5703.28
5703.34
5703.37
5703.37
5703.34
5702.94
5703.06
5703.19
5703.3
5703.37
5703.4
5703.4
5703.37
5702.98
5703.1
5703.22
5703.32
5703.38
5703.4
5703.39
5703.36
5703.04
5703.13
5703.24
5703.33
5703.39
5703.4
5703.39
5703.35
5703.11
5703.18
5703.28
5703.37
5703.42
5703.44
5703.43
5703.4
5702.49
5702.71
5702.95
5703.15
5703.27
5703.31
5703.29
5703.23
5702.5
5702.73
5702.98
5703.18
5703.31
5703.37
5703.37
5703.33
5702.52
5702.76
5703
5703.2
5703.33
5703.38
5703.37
5703.33
5702.56
5702.8
5703.04
5703.24
5703.37
5703.42
5703.42
5703.39
5702.63
5702.85
5703.08
5703.27
5703.38
5703.42
5703.41
5703.37
5702.71
5702.9
5703.11
5703.29
5703.4
5703.43
5703.42
5703.37
5702.81
5702.96
5703.15
5703.33
5703.44
5703.48
5703.49
5703.48
5701.77
5702.31
5702.76
5703.13
5703.33
5703.37
5703.34
5703.28
5701.78
5702.32
5702.78
5703.17
5703.38
5703.46
5703.46
5703.42
5701.81
5702.36
5702.82
5703.19
5703.39
5703.46
5703.44
5703.38
5701.88
5702.42
5702.87
5703.25
5703.45
5703.52
5703.52
5703.48
5701.98
5702.5
5702.93
5703.29
5703.49
5703.54
5703.52
5703.44
5702.1
5702.56
5702.98
5703.33
5703.51
5703.54
5703.5
5703.33
5702.22
5702.62
5703.02
5703.36
5703.53
5703.58
5703.55
5703.4
5700.7
5701.98
5702.74
5703.33
5703.6
5703.61
5703.46
5703.22
5700.68
5701.98
5702.74
5703.36
5703.67
5703.74
5703.7
5703.51
5700.73
5702.03
5702.78
5703.38
5703.67
5703.71
5703.63
5686.89
5700.84
5702.11
5702.86
5703.45
5703.73
5703.77
5703.71
5688.32
5700.99
5702.2
5702.96
5703.54
5703.81
5703.85
5703.8
5668.29
5701.15
5702.27
5703.03
5703.61
5703.88
5703.91
5703.86
5581.57
5701.28
5702.29
5703.04
5703.62
5703.88
5703.91
5703.87
5556.18
5698.36
5701.38
5702.9
5704.08
5704.45
5704.18
5682.32
5369.85
5698.33
5701.36
5702.84
5704
5704.37
5704.19
5704.31
5420.67
5698.4
5701.39
5702.86
5704.02
5704.41
5704.19
5704.26
5336.09
5698.54
5701.45
5702.95
5704.11
5704.47
5704.2
5704.27
5350.72
5698.74
5701.52
5703.09
5704.27
5704.6
5704.2
5704.42
5339.73
5698.97
5701.52
5703.17
5704.37
5704.67
5704.19
5669.82
5277.71
5699.21
5701.42
5703.13
5704.36
5704.64
5704.18
5703.25
5277.7
5676.96
5697.43
5703.95
5706.58
5611.44
5327.24
4952.42
4968.3
5676.65
5697.28
5703.69
5706.16
5596.76
5268.73
5325.59
5115.72
5676.87
5697.29
5703.71
5706.24
5616.88
5295.76
5190.39
5082.4
5677.4
5697.36
5703.85
5706.38
5626.36
5274.19
5151.93
5165.18
5678.26
5697.47
5704.1
5706.68
5637.83
5080.39
5200.74
5223.62
5679.39
5697.33
5704.16
5706.86
5611.06
5051.85
5110.61
5332.55
5680.74
5696.88
5703.96
5706.88
5588.17
5102.33
5092.67
5340.88
5703.61
5703.6
5703.68
5703.77
5703.82
5703.84
5703.81
5703.76
5703.58
5703.57
5703.65
5703.73
5703.78
5703.79
5703.76
5703.7
5703.53
5703.52
5703.6
5703.68
5703.73
5703.73
5703.7
5703.64
5703.48
5703.49
5703.58
5703.66
5703.72
5703.73
5703.71
5703.67
5703.39
5703.42
5703.5
5703.58
5703.61
5703.62
5703.59
5703.54
5703.23
5703.35
5703.45
5703.53
5703.57
5703.58
5703.55
5703.52
5703.19
5703.27
5703.37
5703.45
5703.49
5703.49
5703.47
5703.44
5703.54
5703.44
5703.59
5703.76
5703.88
5703.93
5703.89
5703.81
5703.5
5703.4
5703.54
5703.7
5703.82
5703.86
5703.82
5703.73
5703.42
5703.34
5703.47
5703.63
5703.74
5703.77
5703.72
5703.63
5703.34
5703.28
5703.44
5703.62
5703.75
5703.79
5703.76
5703.69
5703.19
5703.19
5703.33
5703.49
5703.58
5703.59
5703.54
5703.47
5702.98
5703.1
5703.27
5703.43
5703.53
5703.54
5703.5
5703.44
5702.9
5703.01
5703.18
5703.33
5703.41
5703.41
5703.35
5703.29
5703.16
5703.06
5703.37
5703.78
5704.07
5704.17
5704.11
5703.99
5703.1
5703
5703.3
5703.71
5704
5704.09
5704.03
5703.9
5703.01
5702.93
5703.23
5703.63
5703.9
5703.98
5703.9
5703.75
5702.89
5702.86
5703.21
5703.63
5703.93
5704.04
5704
5703.88
5702.69
5702.74
5703.09
5703.44
5703.65
5703.68
5703.59
5703.49
5702.47
5702.67
5703.04
5703.4
5703.59
5703.62
5703.55
5703.47
5702.37
5702.59
5702.96
5703.28
5703.42
5703.39
5703.29
5703.17
5702.09
5702.34
5703.19
5704.03
5704.59
5704.74
5704.58
5704.39
5702.02
5702.26
5703.09
5703.94
5704.52
5704.68
5704.53
5704.34
5701.91
5702.18
5703.03
5703.87
5704.43
5704.58
5704.44
5704.24
5701.76
5702.14
5703.04
5703.91
5704.51
5704.73
5704.68
5704.57
5701.55
5702.02
5702.91
5703.63
5704.01
5704.01
5703.77
5686.11
5701.47
5702.04
5702.9
5703.6
5703.93
5703.92
5703.73
5667.23
5701.37
5702.04
5702.85
5703.47
5703.72
5703.62
5703.33
5659.55
5700.88
5700.17
5702.75
5704.53
5705.7
5705.87
5704.85
5704.46
5700.82
5700.09
5702.57
5704.42
5705.65
5705.87
5704.88
5704.51
5700.62
5700
5702.57
5704.41
5705.63
5705.86
5704.92
5704.58
5700.33
5700.07
5702.58
5704.53
5705.78
5706.12
5705.5
5705.53
5700.02
5700.09
5702.47
5704.24
5705.12
5704.92
5703.98
5341.62
5699.7
5700.23
5702.55
5704.24
5704.94
5704.4
5703.65
5268.25
5699.39
5700.41
5702.59
5704.17
5704.73
5704.07
5570.7
5328.27
5687.01
5686.79
5698.22
5705.34
5708.98
5708.66
5033.62
4808.86
5686.84
5686.27
5697.89
5705.1
5708.84
5708.53
5045.01
4846.27
5686.37
5686.62
5698.09
5705.29
5708.95
5708.67
5034.65
4827.41
5685.68
5687.7
5698.71
5705.72
5709.12
5708.92
5154.35
5275.45
5685.53
5689.42
5699.63
5706.05
5708.41
5546.81
4826
5054.62
5685.03
5691.43
5700.75
5706.56
5708.24
5286
4781.72
5029.07
5684.06
5693.22
5701.81
5706.98
5708.01
5188.91
4843.23
5359.33
5703.14
5703.21
5703.32
5703.4
5703.45
5703.46
5703.44
5703.42
5703.07
5703.17
5703.28
5703.36
5703.41
5703.42
5703.41
5703.39
5703.03
5703.13
5703.24
5703.33
5703.38
5703.4
5703.4
5703.39
5702.99
5703.1
5703.22
5703.32
5703.38
5703.4
5703.41
5703.4
5702.96
5703.07
5703.19
5703.29
5703.35
5703.38
5703.38
5703.36
5702.93
5703.04
5703.16
5703.26
5703.32
5703.34
5703.33
5703.29
5702.91
5703.02
5703.14
5703.24
5703.3
5703.33
5703.31
5703.27
5702.82
5702.94
5703.13
5703.29
5703.38
5703.38
5703.35
5703.31
5702.73
5702.89
5703.09
5703.25
5703.33
5703.33
5703.29
5703.27
5702.67
5702.85
5703.05
5703.22
5703.31
5703.33
5703.31
5703.3
5702.62
5702.82
5703.03
5703.22
5703.32
5703.36
5703.36
5703.34
5702.58
5702.78
5703.01
5703.2
5703.31
5703.35
5703.33
5703.29
5702.54
5702.75
5702.98
5703.18
5703.3
5703.33
5703.3
5703.23
5702.5
5702.72
5702.96
5703.16
5703.28
5703.32
5703.3
5703.23
5702.24
5702.54
5702.92
5703.23
5703.37
5703.35
5703.27
5703.22
5702.12
5702.49
5702.87
5703.17
5703.29
5703.25
5703.13
5703.01
5702.02
5702.45
5702.84
5703.14
5703.26
5703.23
5703.15
5703.08
5701.95
5702.41
5702.83
5703.16
5703.32
5703.33
5703.29
5703.19
5701.89
5702.39
5702.82
5703.17
5703.35
5703.39
5703.35
5703.26
5701.85
5702.36
5702.81
5703.19
5703.39
5703.46
5703.43
5703.31
5701.8
5702.32
5702.78
5703.16
5703.37
5703.44
5703.42
5703.33
5701.26
5702.06
5702.83
5703.4
5703.6
5703.46
5703.13
5673.48
5701.16
5702.06
5702.8
5703.34
5703.5
5703.35
5702.98
5590.32
5701.05
5702.04
5702.76
5703.27
5703.42
5703.26
5702.94
5628.11
5700.93
5702.02
5702.75
5703.3
5703.51
5703.47
5703.39
5638.4
5700.85
5702.02
5702.78
5703.36
5703.62
5703.62
5703.57
5642.27
5700.8
5702.02
5702.8
5703.44
5703.77
5703.87
5703.87
5617.65
5700.74
5701.99
5702.77
5703.39
5703.7
5703.77
5703.72
5650.35
5699.15
5700.59
5702.66
5704.16
5704.64
5703.95
5540.9
5355.76
5698.98
5700.81
5702.76
5704.2
5704.64
5703.99
5438.63
5307.46
5698.81
5700.97
5702.78
5704.09
5704.36
5703.73
5451.37
5307.46
5698.64
5701.06
5702.75
5703.96
5704.17
5703.5
5695.74
5286.45
5698.53
5701.18
5702.83
5704.04
5704.37
5703.79
5704.05
5323.7
5698.48
5701.29
5702.91
5704.16
5704.62
5704.37
5704.43
5360
5698.42
5701.34
5702.91
5704.12
5704.52
5704.27
5704.14
5244.84
5683
5694.53
5702.7
5707.3
5707.92
5228.95
4724.16
5315.66
5681.95
5695.61
5703.49
5707.51
5707.84
5164.51
4656.83
5349.28
5680.83
5696.32
5703.81
5707.3
5587.14
5028.13
4700.29
5345.15
5679.69
5696.64
5703.7
5706.72
5567.01
4870.31
5023.76
5251.62
5678.75
5696.87
5703.69
5706.54
5637.42
4925.95
5133.86
5249.07
5678.04
5697.08
5703.74
5706.46
5659.82
5303.05
5168.36
5316.75
5677.44
5697.27
5703.84
5706.47
5633.33
5325.93
5011.34
5070.1
5703.2
5703.24
5703.33
5703.39
5703.42
5703.42
5703.39
5703.34
5703.31
5703.34
5703.41
5703.47
5703.5
5703.49
5703.46
5703.4
5703.42
5703.42
5703.5
5703.56
5703.59
5703.58
5703.54
5703.49
5703.51
5703.51
5703.59
5703.66
5703.7
5703.71
5703.68
5703.63
5703.57
5703.57
5703.65
5703.72
5703.77
5703.78
5703.75
5703.7
5703.62
5703.61
5703.7
5703.78
5703.84
5703.86
5703.84
5703.79
5703.63
5703.61
5703.7
5703.79
5703.85
5703.87
5703.85
5703.81
5702.92
5703.02
5703.19
5703.33
5703.41
5703.4
5703.35
5703.29
5703.07
5703.13
5703.28
5703.43
5703.51
5703.51
5703.46
5703.4
5703.22
5703.24
5703.39
5703.54
5703.63
5703.64
5703.6
5703.54
5703.35
5703.34
5703.5
5703.66
5703.77
5703.8
5703.78
5703.72
5703.45
5703.42
5703.56
5703.73
5703.84
5703.88
5703.85
5703.78
5703.54
5703.47
5703.62
5703.8
5703.93
5703.98
5703.96
5703.89
5703.55
5703.47
5703.62
5703.79
5703.93
5703.98
5703.96
5703.9
5702.37
5702.67
5703.04
5703.34
5703.47
5703.45
5703.35
5703.15
5702.56
5702.78
5703.14
5703.46
5703.62
5703.62
5703.53
5698.46
5702.73
5702.9
5703.26
5703.61
5703.81
5703.85
5703.8
5703.7
5702.88
5703
5703.38
5703.75
5703.98
5704.05
5704.02
5703.97
5703.02
5703.08
5703.44
5703.82
5704.06
5704.13
5704.09
5703.96
5703.14
5703.13
5703.47
5703.88
5704.17
5704.28
5704.25
5704.16
5703.17
5703.11
5703.43
5703.85
5704.15
5704.26
5704.22
5704.13
5701.41
5702.31
5703.03
5703.59
5703.81
5703.75
5703.53
5515
5701.6
5702.36
5703.13
5703.75
5704.03
5703.99
5703.77
5524.3
5701.76
5702.43
5703.25
5703.93
5704.27
5704.28
5704.08
5565.18
5701.87
5702.48
5703.35
5704.08
5704.46
5704.5
5704.3
5663.2
5701.98
5702.48
5703.39
5704.15
5704.58
5704.66
5704.54
5605.99
5702.08
5702.5
5703.39
5704.21
5704.73
5704.88
5704.79
5704.7
5702.09
5702.44
5703.3
5704.14
5704.69
5704.84
5704.7
5704.5
5699.5
5701.28
5703.07
5704.4
5704.81
5704.25
5536.93
5277.73
5699.74
5701.16
5703.1
5704.59
5705.13
5704.5
5548.26
5354.73
5699.96
5701.04
5703.15
5704.76
5705.43
5704.96
5591.71
5315.18
5700.11
5700.92
5703.17
5704.88
5705.66
5705.33
5658.73
5220.44
5699.93
5700.76
5703.12
5704.89
5705.73
5705.43
5704.99
5290.99
5700.2
5700.64
5703.06
5704.89
5705.93
5705.97
5698.25
5597.91
5700.77
5700.43
5702.89
5704.73
5705.88
5706.04
5703.41
5669.39
5682.24
5696.27
5703.69
5707.17
5695.87
5148.81
4776.79
5390.09
5683.42
5695.44
5703.29
5707.57
5708.3
5105.23
4660.41
5401.35
5684.3
5694.34
5702.65
5707.58
5708.64
5304.41
4780.98
5343.96
5684.99
5692.87
5701.82
5707.37
5708.89
5452.23
4911.42
5049.78
5684.81
5691.15
5700.86
5706.89
5708.78
5345.55
5143.81
5310.47
5685.61
5689.39
5699.91
5706.54
5709.33
5708.38
4891.02
5141.53
5686.74
5687.87
5698.94
5705.94
5709.41
5709.17
5136.37
4758.28
5699.74
5703.11
5700.16
5703.24
5703.22
5698.11
5698.82
5688.13
5691.46
5702.45
5703.38
5703.3
5703.28
5700.8
5698.01
5680.04
5693.09
5693.54
5701.9
5703.32
5703.31
5700.09
5691.48
5689.07
5695.87
5693.59
5702.6
5703.35
5703.34
5698.97
5685.7
5690.59
5696.09
5696.98
5703.57
5703.33
5703.31
5697.22
5686.25
5698.63
5701.07
5696.64
5701.41
5703.33
5703.2
5683.74
5681.17
5698.83
5700.38
5696.68
5701.14
5703.38
5697.17
5661.79
5678.54
5702.9
5701.87
5699.05
5699.54
5703.2
5672.2
5673.17
5683.78
5606
5674.1
5703.56
5703.58
5703.3
5680.91
5672.37
5682.54
5613.37
5674.19
5700.74
5703.66
5703.31
5677.32
5671.73
5688.35
5626.52
5678.99
5703.51
5703.64
5703.37
5679.99
5669.35
5678.61
5633.84
5683.05
5703.69
5703.68
5703.34
5673.94
5669
5655.49
5655.42
5689.83
5703.63
5703.63
5702.1
5668.62
5652.88
5652.24
5650.05
5695.7
5703.71
5703.7
5688.89
5651.56
5651.7
5674.07
5666.26
5689.32
5701.7
5703.76
5670.95
5598.66
5677.11
5681.71
5602.01
5625
5696.67
5703.98
5680.75
5598.72
5672.2
5683.34
5602.14
5635.79
5694.74
5704.06
5693.4
5598.68
5681.22
5696.92
5602.13
5662.12
5703.7
5703.93
5667.85
5598.8
5672.49
5695.89
5607.93
5662.13
5703.99
5704.02
5664.14
5598.82
5673.58
5682.09
5605.61
5663.14
5695.15
5703.95
5589.44
5633.27
5690.73
5688.3
5605.82
5659.08
5698.82
5704.11
5619.92
5648.18
5680.22
5700.13
5610.08
5678.65
5704.04
5704.09
5415.76
5615.62
5702.88
5702.87
5702.83
5601.52
5626.1
5696.48
5432.76
5602.74
5703.12
5703.15
5657.95
5614.88
5665.54
5704.62
5458.24
5597.39
5702.78
5701.01
5633.55
5609.13
5674.27
5704.43
5443.61
5608.38
5702.82
5702.85
5663.09
5596.37
5677.41
5704.58
5445.78
5630.25
5702.77
5702.82
5641.97
5590.6
5610.31
5697.86
5505.51
5702.71
5702.71
5702.7
5670.02
5590.69
5631.72
5703.4
5639.04
5702.62
5702.56
5702.53
5702.58
5590.66
5676.05
5704.53
5382.55
5667.08
5704.13
5703.92
5626.87
5634.77
5557.96
5575.65
5389.62
5624.37
5704.18
5703.78
5673.64
5673.72
5565.34
5565.21
5383.64
5598.34
5703.89
5699.67
5699.73
5639.71
5579.48
5592.14
5434.47
5648.25
5703.82
5698.61
5699.8
5620.7
5569.84
5596.52
5445.95
5677.76
5676.59
5688.02
5691.82
5670.81
5651.42
5563.85
5585.12
5704.06
5692.46
5693.03
5673.14
5673.19
5640.24
5565.86
5703.82
5703.84
5668.05
5620.22
5663.38
5538.66
5530.18
5572.7
5380.58
5672.89
5529.22
5281.56
5033.61
5462.14
5461.35
5350.82
5640.86
5664.2
5344.17
5178.76
5139.24
5349.43
5443.41
5339.25
5617.8
5632.75
5339.75
5014.88
5208.47
5355.03
5385.42
5252.74
5611.41
5563.31
5207.99
5184.13
5290.99
5348.27
5381.48
5293.84
5610.44
5577.4
5222
5105.31
5232.15
5316.52
5354.16
5377.65
5609.12
5513.22
5237.22
5165.73
5180.24
5307.21
5355.42
5406.1
5549.93
5492.22
5047.02
5126.38
5479.85
5519.96
5429.16
5383.07
5703.72
5703.69
5703.68
5703.69
5702.85
5639.88
5679.09
5704.2
5703.65
5703.62
5703.61
5703.62
5703.63
5650.56
5675.52
5704.05
5703.6
5703.57
5703.57
5703.6
5703.65
5656.11
5677.67
5703.99
5703.62
5703.6
5703.59
5703.6
5703.64
5657.22
5685.25
5704.02
5703.51
5703.49
5703.49
5703.5
5700.1
5673.42
5696.8
5703.84
5703.49
5703.48
5703.48
5702.35
5699.87
5690.73
5702.19
5703.76
5703.43
5703.44
5703.45
5703.48
5697.16
5700.29
5703.4
5703.68
5703.75
5703.71
5703.73
5675.82
5625.86
5638.51
5690.42
5704.4
5703.65
5703.61
5703.64
5674.38
5634.16
5636.76
5682.09
5704.31
5703.55
5703.5
5703.46
5695.73
5674.14
5636.73
5684
5704.14
5703.63
5703.6
5703.61
5692.68
5664.31
5636.69
5691.89
5704.05
5703.43
5703.42
5700.41
5694.98
5638.2
5665.66
5701.73
5703.88
5703.42
5703.4
5675
5679.27
5644.07
5685.43
5703.8
5703.8
5703.27
5703.27
5701.62
5689.82
5669.88
5703.57
5703.65
5703.64
5703.88
5650.47
5572.07
5585.43
5614.23
5678.29
5702.87
5704.77
5703.76
5623.34
5559.96
5582.6
5607
5672.08
5699.72
5704.72
5703.61
5635.3
5538.11
5607.18
5614.88
5680.02
5703.13
5704.47
5703.74
5681.3
5597.72
5605.83
5612.07
5668.37
5704.44
5704.42
5703.49
5690.51
5596.86
5618.09
5626.09
5676.97
5704.1
5704.1
5703.44
5612.51
5606.12
5664.56
5628.79
5686.5
5704.03
5704.04
5702.23
5625.41
5622.62
5643.55
5683.92
5703.79
5703.77
5703.76
5627.18
5350.2
5388.67
5637.03
5700.5
5695.96
5701.3
5705.28
5603.91
5333.85
5375.09
5622.72
5694.81
5689.3
5695.65
5705.32
5628.43
5336.79
5375.6
5625.39
5698.98
5689.24
5696.89
5704.99
5610.97
5423.08
5375.76
5628.76
5694.63
5686.69
5694.01
5704.88
5582.04
5537.54
5546.18
5698.33
5694.53
5676.35
5694.35
5704.42
5550.88
5454.06
5668.5
5698.18
5697.41
5666.65
5688.82
5704.38
5509.58
5453.45
5596.89
5668.83
5691.99
5704.06
5691.3
5702.76
5356.59
5328.4
5624.51
5700.74
5700.55
5642.99
5663.97
5648.26
5333.53
5328.5
5599.74
5700.86
5700.57
5648.05
5672.11
5648.12
5362.16
5328.38
5589.68
5700.48
5700.31
5613.54
5650.5
5646.36
5366.2
5328.68
5590.18
5700.29
5700.08
5612.14
5628.05
5649.08
5262.2
5518.61
5699.67
5699.52
5697.29
5592.26
5530.91
5614.46
5349.74
5699.59
5699.49
5693.7
5689.77
5613.94
5517.01
5637.79
5353.98
5582.81
5630.48
5689.11
5689.24
5649.55
5524.27
5558.36
5456.68
5578.17
5660.74
5530.97
5312.08
5168.35
5248.95
5380.68
5525.93
5606.21
5661.7
5527.84
5342.23
5172.75
5253.8
5371.26
5519.31
5587.56
5662.45
5478.86
5389.66
5219.53
5202.38
5349.95
5341.6
5622.75
5674.08
5559.21
5362.07
5265.63
5223.18
5332.19
5308.52
5436.1
5674.63
5387.63
5176.51
5247.9
5454.59
5275.49
5520.43
5615.09
5627.52
5214.02
5111.49
5512.49
5454.46
5277.2
5532.99
5669.86
5517.95
5122.33
5072.12
5374.21
5422.3
5356.58
5703.41
5703.41
5703.42
5700.49
5688.51
5700.82
5703.64
5703.66
5703.39
5703.4
5703.41
5697.79
5689.19
5700.91
5703.56
5703.61
5703.39
5703.4
5703.41
5700.97
5693.28
5699.52
5703.35
5703.59
5703.4
5703.41
5703.41
5699.99
5693.22
5699.61
5703.41
5703.59
5703.36
5703.36
5703.09
5701.69
5703.31
5703.01
5703.49
5703.55
5703.26
5703.24
5702.47