/*--------------------------------*- C++ -*----------------------------------*\
| =========                 |                                                 |
| \\      /  F ield         | OpenFOAM: The Open Source CFD Toolbox           |
|  \\    /   O peration     | Version:  plus.master.MPPICInterFoam            |
|   \\  /    A nd           | Web:      www.OpenFOAM.com                      |
|    \\/     M anipulation  |                                                 |
\*---------------------------------------------------------------------------*/
FoamFile
{
    version     2.0;
    format      ascii;
    class       volScalarField;
    location    "6.6";
    object      p_rgh;
}
// * * * * * * * * * * * * * * * * * * * * * * * * * * * * * * * * * * * * * //

dimensions      [1 -1 -2 0 0 0 0];

internalField   nonuniform List<scalar> 
11822
(
5690.27
5458.06
5310.26
5237.11
5361.72
5515.66
5715.28
5482.51
4837.67
4159.46
4241.5
4065.74
4847.85
5580.43
5229.24
4829.66
2481.62
2188.99
3571.11
4553.75
5346.62
5208.36
4715.9
2559.13
2186.87
3023.34
5044.93
5248.38
5041.9
4918.24
4252.45
4166.43
4685.03
4679.17
5155.61
5561.2
4554.42
5020.75
5216.66
4831.31
4734.79
5617.77
5719.12
5677.37
5457.78
5418.58
5513.57
5699.26
5719.3
5600.08
4893.79
4359.41
4328.58
4452.89
4996.97
5675.42
4925.45
3210.77
3547.75
3500.46
3135.04
3696.04
5127.67
3917.55
3981.87
2296.3
2076.52
2338.73
3332.83
4275.83
3640.89
4658.79
2739.72
2087.44
3414.1
4451.54
3303.65
3899.93
2491.66
4191.58
4174.45
3961.62
2220.57
3994.12
5181.47
3112.05
2620.81
3197.68
2366.97
3435.17
5296.72
5710.84
5450.11
4996.61
4933.05
5055.27
5511.21
5714.39
5482.39
4205.98
3151.56
2890.94
3156.59
4359.79
5611.39
4285.8
2181.45
2145.43
2098.28
2035.35
2323.58
4554.4
3086.32
2181.76
2016.7
2016.13
2017.88
2029.55
3145.72
2908.8
2917.42
2583.74
2038.68
2816.1
2187.17
2347.01
3190.83
2044.18
2979.14
2445.39
2215.09
2033.65
3112.68
4797.7
2517.19
2140.48
2112
2115.04
2622.35
4935.64
5697.85
5210.42
4568.11
4499.65
4575.08
5274.54
5714.56
5521.76
4366.62
3258.67
2898.95
3236.13
4496.81
5633.84
4451.77
2274.96
1978.33
1978.16
1980.08
2385.26
4667.54
3341.97
1978.15
1975.51
1976.94
1978.12
1980.03
3300.1
3068.07
1987.54
1977.26
1976.68
1978.28
1983.06
2662.13
3457.7
1992.29
1979.6
1977.37
1979.9
1986.74
3358.21
4941.95
2811.21
2114.25
2061.88
2068.23
2861.34
5044.36
5713.67
5325.71
4774.34
4702.45
4773.26
5368.68
5727.88
5663.98
5217.86
4513.64
4153.95
4504.99
5262.97
5706.41
5260.58
3660.42
2388.83
2136.6
2575.04
3801.81
5339.59
4639.43
2380.23
1936.05
1936.94
2110.56
2574.35
4617.77
4270.21
2020.81
1935.29
1936.24
1937.25
2027.41
4233.23
4724.35
2347.97
1937.73
1936.86
1939.1
2333.12
4718.51
5476.14
4252.34
3201.42
3067.85
3182.78
4263.39
5502.16
5741.1
5657.98
5475.44
5437.34
5473.76
5665.09
5745.67
5755.07
5716.89
5621.73
5561.75
5641.5
5730.62
5759.43
5718.31
5350.33
4286.54
4116.16
4631.1
5418.92
5746.29
5624.47
4236.49
2553.31
2645.55
3498.03
4627.38
5690.54
5527.49
3150.47
1886.15
1886.69
2240.26
3804.67
5639.49
5644.61
4155.2
2531.91
2280.08
2527.48
4217.92
5699.17
5749.8
5507.15
5025.64
4959.57
4989.71
5509.4
5751.35
5762.26
5764.37
5764.04
5763.34
5763.17
5763.74
5761.74
5720.04
5720.3
5720.56
5720.82
5720.95
5721.06
5721.08
5721.06
5719.97
5720.52
5720.82
5721.01
5721.11
5721.13
5721.11
5721.09
5719.88
5720.66
5720.92
5721.06
5721.14
5721.15
5721.12
5721.1
5683.9
5720.74
5720.95
5721.07
5721.15
5721.17
5721.15
5721.13
5719.97
5720.63
5720.86
5721.03
5721.14
5721.19
5721.18
5721.16
5720.01
5720.46
5720.75
5720.97
5721.11
5721.18
5721.19
5721.18
5719.98
5720.16
5720.46
5720.77
5720.99
5721.11
5721.14
5721.14
5715.93
5717.78
5719.29
5720.49
5721.4
5722
5722.39
5722.67
5714.43
5717.22
5719.11
5720.45
5721.38
5722.01
5722.41
5722.75
5677.73
5716.66
5718.72
5720.17
5721.2
5721.9
5722.37
5722.73
5485.25
5716.36
5718.54
5720.07
5721.14
5721.89
5722.38
5722.76
5684.41
5716.87
5718.87
5720.31
5721.33
5722.04
5722.49
5722.86
5715.38
5717.75
5719.45
5720.71
5721.63
5722.26
5722.65
5722.98
5716.93
5718.41
5719.76
5720.91
5721.77
5722.36
5722.72
5723
5720.12
5721.98
5723.58
5724.9
5725.99
5726.82
5727.45
5727.86
5718.82
5721.23
5723.15
5724.64
5725.8
5726.71
5727.42
5727.89
5562.15
5720.52
5722.6
5724.23
5725.51
5726.52
5727.31
5727.86
5205.83
5720.17
5722.37
5724.09
5725.43
5726.49
5727.31
5727.89
5587.03
5720.77
5722.81
5724.42
5725.68
5726.67
5727.43
5727.97
5719.66
5721.82
5723.59
5725
5726.11
5726.97
5727.63
5728.08
5721.25
5722.83
5724.27
5725.47
5726.43
5727.18
5727.76
5728.16
5734.95
5735.09
5735.34
5735.56
5735.9
5736.29
5736.71
5737.07
5735.32
5734.9
5734.99
5735.27
5735.64
5736.1
5736.59
5737
5610.06
5734.67
5734.69
5735
5735.42
5735.92
5736.47
5736.95
5324.62
5734.41
5734.51
5734.88
5735.34
5735.85
5736.42
5736.92
5644.2
5734.53
5734.68
5735.04
5735.46
5735.94
5736.46
5736.92
5734.84
5734.75
5735
5735.33
5735.7
5736.11
5736.56
5736.96
5734.87
5735.17
5735.47
5735.71
5735.99
5736.33
5736.72
5737.06
5749.91
5748.48
5747.23
5746.21
5745.66
5745.53
5745.81
5746.16
5751.29
5748.89
5747.27
5746.17
5745.55
5745.39
5745.67
5746.03
5740.98
5749.22
5747.44
5746.25
5745.55
5745.33
5745.59
5745.97
5682.59
5749.1
5747.37
5746.2
5745.48
5745.23
5745.48
5745.87
5749.56
5748.75
5747.14
5746.03
5745.35
5745.11
5745.36
5745.74
5749.9
5748.05
5746.71
5745.75
5745.15
5744.98
5745.25
5745.61
5748.7
5747.61
5746.56
5745.65
5745.09
5744.96
5745.25
5745.59
5762.23
5760.67
5759.08
5757.64
5756.63
5755.99
5755.76
5755.87
5763.1
5760.85
5758.9
5757.37
5756.22
5755.47
5755.16
5755.26
5763.64
5761.21
5759.13
5757.43
5756.13
5755.24
5754.85
5754.93
5763.62
5761.18
5759.1
5757.35
5756.01
5755.08
5754.68
5754.76
5763.05
5760.78
5758.8
5757.15
5755.88
5755.03
5754.7
5754.8
5762
5760.08
5758.31
5756.86
5755.77
5755.08
5754.87
5755.03
5761.08
5759.7
5758.2
5756.9
5755.95
5755.4
5755.29
5755.48
5719.96
5720.22
5720.53
5720.79
5720.97
5721.06
5721.06
5721.03
5719.78
5720.35
5720.71
5720.94
5721.05
5721.08
5721.06
5721.02
5719.63
5720.48
5720.78
5720.97
5721.07
5721.07
5721.02
5720.99
5709.83
5720.68
5720.9
5721.03
5721.1
5721.09
5721.04
5720.99
5719.89
5720.71
5720.95
5721.07
5721.13
5721.13
5721.08
5721.01
5720.07
5720.65
5720.9
5721.06
5721.13
5721.14
5721.09
5721.03
5720.12
5720.38
5720.63
5720.88
5721.04
5721.08
5721.06
5721
5716.92
5718.45
5719.77
5720.85
5721.68
5722.25
5722.6
5722.78
5715.14
5717.67
5719.41
5720.66
5721.54
5722.14
5722.52
5722.72
5695.71
5716.8
5718.82
5720.23
5721.23
5721.9
5722.33
5722.65
5584.44
5716.24
5718.48
5719.99
5721.05
5721.77
5722.21
5722.58
5662.03
5716.55
5718.66
5720.1
5721.1
5721.79
5722.2
5722.51
5714.17
5717.17
5719.07
5720.4
5721.31
5721.92
5722.29
5722.48
5715.84
5717.76
5719.26
5720.48
5721.37
5721.94
5722.29
5722.44
5721.1
5722.71
5724.08
5725.27
5726.25
5727
5727.56
5727.93
5719.61
5721.85
5723.58
5724.91
5725.96
5726.8
5727.43
5727.85
5612.8
5720.85
5722.83
5724.36
5725.55
5726.49
5727.21
5727.71
5408.81
5720.13
5722.31
5723.98
5725.28
5726.3
5727.07
5727.61
5539.5
5720.28
5722.4
5724.03
5725.29
5726.27
5727.01
5727.53
5718.22
5720.89
5722.88
5724.39
5725.54
5726.42
5727.06
5727.49
5719.71
5721.71
5723.33
5724.68
5725.75
5726.53
5727.11
5727.48
5734.58
5734.84
5735.11
5735.41
5735.74
5736.09
5736.45
5736.75
5734.79
5734.68
5734.86
5735.14
5735.49
5735.88
5736.3
5736.64
5664.78
5734.66
5734.69
5734.95
5735.3
5735.72
5736.18
5736.59
5498.47
5734.61
5734.53
5734.79
5735.15
5735.6
5736.11
5736.56
5606.25
5734.61
5734.56
5734.82
5735.18
5735.61
5736.1
5736.52
5735.14
5734.61
5734.71
5734.98
5735.33
5735.72
5736.15
5736.52
5734.7
5734.85
5735.08
5735.32
5735.6
5735.92
5736.29
5736.61
5748.44
5747.26
5746.15
5745.29
5744.78
5744.63
5744.88
5745.19
5749.79
5747.86
5746.44
5745.42
5744.81
5744.61
5744.84
5745.15
5750.7
5748.69
5746.97
5745.79
5745.04
5744.75
5744.94
5745.26
5723.86
5749.15
5747.26
5746
5745.19
5744.85
5745.04
5745.36
5744.61
5749.18
5747.29
5746.04
5745.26
5744.95
5745.14
5745.46
5751.25
5748.64
5747.03
5745.92
5745.25
5745.01
5745.22
5745.54
5749.78
5748.33
5747.05
5746.03
5745.38
5745.18
5745.41
5745.71
5761.23
5759.66
5758.09
5756.78
5755.82
5755.26
5755.13
5755.29
5762.31
5760.16
5758.21
5756.66
5755.53
5754.79
5754.53
5754.63
5763.58
5761.01
5758.81
5757.01
5755.64
5754.71
5754.3
5754.35
5764.49
5761.57
5759.2
5757.29
5755.79
5754.76
5754.28
5754.29
5764.24
5761.51
5759.23
5757.38
5755.96
5754.96
5754.49
5754.51
5763.34
5760.99
5758.98
5757.35
5756.11
5755.27
5754.89
5754.94
5762.37
5760.78
5759.13
5757.67
5756.54
5755.84
5755.57
5755.65
5720.11
5720.39
5720.67
5720.89
5720.29
5720.57
5721.07
5721
5720.08
5720.7
5720.98
5721.09
5717.31
5718.67
5720.98
5721.05
5720.03
5720.81
5721.06
5721.18
5720.02
5702.14
5716.88
5721.03
5713.74
5720.81
5721.04
5721.16
5720.63
5705.37
5720.15
5721.02
5719.94
5720.71
5720.99
5721.12
5720.48
5704.14
5718.88
5721.03
5719.93
5720.56
5720.87
5720.97
5713.49
5714.12
5720.87
5721.07
5719.98
5720.24
5720.56
5720.69
5715.96
5719.37
5721.05
5721.02
5715.91
5717.82
5719.3
5720.47
5719.41
5721.53
5722.29
5722.43
5713.88
5717.01
5719
5720.32
5716.98
5720.97
5722.24
5722.43
5640.54
5716.26
5718.48
5719.98
5719.39
5702.34
5719.05
5722.45
5581.93
5715.91
5718.21
5719.77
5718.82
5714.43
5721.28
5722.44
5657.55
5716.17
5718.39
5719.91
5718.31
5713.48
5721.47
5722.5
5713.88
5716.94
5718.91
5720.23
5712.87
5719.38
5722.28
5722.54
5715.88
5717.7
5719.23
5720.44
5718.26
5721.28
5722.37
5722.57
5719.73
5721.73
5723.34
5724.68
5723.88
5726.23
5727.12
5727.49
5717.97
5720.7
5722.75
5724.32
5721.19
5725.77
5727.06
5727.5
5486.63
5719.87
5722.11
5723.82
5721
5712.7
5725.78
5727.5
5336.72
5719.56
5721.87
5723.64
5722.58
5725.5
5726.61
5727.52
5505.48
5719.95
5722.17
5723.87
5717.01
5724.48
5727.04
5727.61
5718.3
5720.87
5722.87
5724.41
5717.09
5724.89
5727.24
5727.72
5720.04
5721.92
5723.52
5724.85
5724.88
5726.56
5727.38
5727.79
5734.69
5734.87
5735.1
5735.36
5734.83
5735.85
5736.36
5736.67
5735.34
5734.79
5734.84
5735.11
5733.55
5735.58
5736.33
5736.71
5545.64
5734.86
5734.72
5734.96
5729.09
5734.13
5736.26
5736.8
5393.22
5734.88
5734.69
5734.92
5734.14
5735.62
5736.19
5736.86
5551.44
5734.91
5734.8
5734.99
5727.05
5734.18
5736.45
5736.93
5735.35
5734.9
5735.01
5735.3
5727.84
5735.19
5736.56
5736.98
5735
5735.17
5735.42
5735.27
5735.63
5736.26
5736.7
5737.06
5749.74
5748.31
5747.07
5745.81
5745.44
5745.3
5745.54
5745.85
5751.64
5749.02
5747.35
5746.21
5745.1
5745.33
5745.64
5745.99
5724.72
5749.92
5747.94
5746.49
5739.51
5744.86
5745.82
5746.18
5669.07
5750.24
5748.17
5746.83
5745.55
5745.5
5745.72
5746.28
5717.29
5749.96
5748.02
5746.54
5737.45
5744.32
5745.92
5746.3
5751.67
5749.2
5747.59
5746.32
5743.15
5745.33
5745.87
5746.24
5750.06
5748.68
5747.41
5745.78
5745.63
5745.62
5745.88
5746.23
5762.35
5760.81
5759.22
5757.37
5756.59
5755.99
5755.71
5755.79
5763.52
5761.28
5759.32
5757.4
5755.96
5755.65
5755.37
5755.43
5764.6
5762.02
5759.86
5758.03
5751.36
5755.33
5755.25
5755.28
5764.4
5762.24
5760.06
5758.03
5755.9
5755.17
5754.97
5755.25
5764.35
5761.93
5759.83
5757.84
5750.59
5755.19
5755.3
5755.36
5763.43
5761.23
5759.34
5757.2
5756.27
5755.83
5755.51
5755.58
5762.25
5760.85
5759.25
5757.2
5756.59
5756.09
5755.85
5755.95
5719.86
5720.13
5720.46
5720.78
5721
5721.11
5721.15
5721.14
5720.02
5720.41
5720.72
5720.94
5721.07
5721.14
5721.16
5721.16
5720.15
5720.52
5720.75
5720.86
5721
5721.08
5721.1
5721.1
5720.08
5720.51
5720.67
5720.75
5720.95
5721.08
5721.09
5721.08
5720.01
5720.46
5720.74
5720.91
5721.03
5721.08
5721.07
5721.06
5719.86
5720.34
5720.7
5720.93
5721.06
5721.11
5721.1
5721.09
5719.84
5720.11
5720.46
5720.76
5720.95
5721.04
5721.05
5721.03
5716.86
5718.43
5719.8
5720.95
5721.81
5722.39
5722.75
5723.03
5715.62
5717.92
5719.6
5720.83
5721.71
5722.34
5722.74
5723.06
5714.49
5717.28
5719.16
5720.5
5721.5
5722.21
5722.68
5723.03
5714.45
5717.16
5719
5720.27
5721.41
5722.15
5722.64
5722.99
5714.64
5717.35
5719.22
5720.56
5721.53
5722.21
5722.66
5723
5715.57
5717.96
5719.65
5720.86
5721.72
5722.33
5722.71
5723.01
5716.77
5718.37
5719.76
5720.91
5721.76
5722.33
5722.67
5722.91
5721.3
5722.93
5724.34
5725.52
5726.47
5727.23
5727.81
5728.21
5719.99
5722.11
5723.83
5725.19
5726.26
5727.11
5727.78
5728.24
5719.1
5721.43
5723.32
5724.81
5726
5726.95
5727.7
5728.22
5718.85
5721.23
5723.13
5724.64
5725.91
5726.89
5727.66
5728.2
5719.03
5721.46
5723.35
5724.82
5726
5726.94
5727.66
5728.17
5719.97
5722.17
5723.87
5725.19
5726.24
5727.07
5727.71
5728.14
5721.02
5722.72
5724.18
5725.39
5726.36
5727.1
5727.66
5728.03
5735.02
5735.3
5735.51
5735.72
5735.99
5736.34
5736.74
5737.08
5734.89
5734.84
5735.07
5735.38
5735.75
5736.18
5736.64
5737.02
5735.14
5734.74
5734.89
5735.21
5735.6
5736.05
5736.55
5736.97
5735.29
5734.75
5734.85
5735.16
5735.54
5736
5736.51
5736.95
5735.19
5734.78
5734.89
5735.19
5735.57
5736.01
5736.5
5736.92
5734.82
5734.8
5735.01
5735.31
5735.67
5736.08
5736.5
5736.87
5734.64
5734.95
5735.24
5735.52
5735.82
5736.16
5736.52
5736.83
5748.81
5747.65
5746.51
5745.58
5745.03
5744.91
5745.21
5745.55
5749.81
5747.92
5746.54
5745.55
5744.99
5744.85
5745.13
5745.49
5750.77
5748.41
5746.83
5745.73
5745.06
5744.85
5745.11
5745.47
5751.13
5748.6
5746.95
5745.79
5745.08
5744.85
5745.1
5745.46
5750.75
5748.38
5746.77
5745.68
5745.01
5744.79
5745.05
5745.4
5749.72
5747.8
5746.39
5745.41
5744.84
5744.68
5744.95
5745.3
5748.5
5747.32
5746.21
5745.33
5744.79
5744.67
5744.93
5745.25
5761.13
5759.68
5758.15
5756.85
5755.92
5755.4
5755.32
5755.52
5762.11
5760.04
5758.2
5756.73
5755.69
5755.08
5754.94
5755.15
5763.09
5760.66
5758.56
5756.9
5755.7
5754.96
5754.76
5754.96
5763.52
5760.91
5758.71
5756.96
5755.69
5754.92
5754.69
5754.87
5763.19
5760.66
5758.51
5756.87
5755.67
5754.93
5754.71
5754.9
5762.29
5760.02
5758.11
5756.65
5755.61
5754.99
5754.85
5755.05
5761.32
5759.73
5758.13
5756.8
5755.86
5755.34
5755.24
5755.43
5703.62
5703.49
5703.43
5703.42
5703.44
5703.47
5703.52
5703.57
5703.69
5703.57
5703.5
5703.5
5703.52
5703.55
5703.59
5703.65
5703.75
5703.62
5703.56
5703.55
5703.57
5703.6
5703.64
5703.69
5703.78
5703.65
5703.59
5703.58
5703.6
5703.63
5703.67
5703.72
5703.79
5703.66
5703.6
5703.59
5703.61
5703.64
5703.68
5703.73
5703.78
5703.65
5703.58
5703.58
5703.6
5703.63
5703.66
5703.71
5703.74
5703.62
5703.55
5703.55
5703.57
5703.6
5703.63
5703.68
5703.32
5703.19
5703.15
5703.22
5703.3
5703.39
5703.49
5703.58
5703.41
5703.28
5703.25
5703.31
5703.39
5703.48
5703.57
5703.66
5703.48
5703.35
5703.31
5703.37
5703.45
5703.54
5703.63
5703.71
5703.52
5703.38
5703.35
5703.41
5703.49
5703.57
5703.66
5703.74
5703.52
5703.39
5703.35
5703.41
5703.49
5703.57
5703.66
5703.74
5703.5
5703.37
5703.33
5703.39
5703.47
5703.55
5703.64
5703.72
5703.47
5703.33
5703.3
5703.36
5703.44
5703.52
5703.6
5703.68
5702.79
5702.72
5702.82
5703
5703.2
5703.39
5703.55
5703.67
5702.9
5702.84
5702.93
5703.11
5703.31
5703.5
5703.66
5703.76
5702.99
5702.92
5703.01
5703.19
5703.39
5703.57
5703.72
5703.83
5703.03
5702.96
5703.06
5703.23
5703.43
5703.61
5703.76
5703.86
5703.03
5702.96
5703.06
5703.24
5703.43
5703.61
5703.76
5703.85
5703.01
5702.94
5703.05
5703.22
5703.41
5703.59
5703.73
5703.82
5702.98
5702.91
5703.02
5703.19
5703.38
5703.55
5703.69
5703.78
5701.5
5701.65
5702.13
5702.75
5703.26
5703.61
5703.81
5703.87
5701.63
5701.79
5702.27
5702.89
5703.4
5703.74
5703.93
5703.98
5701.73
5701.89
5702.38
5702.99
5703.5
5703.83
5704.02
5704.05
5701.79
5701.96
5702.44
5703.05
5703.55
5703.89
5704.07
5704.1
5701.8
5701.97
5702.46
5703.07
5703.56
5703.89
5704.06
5704.09
5701.78
5701.95
5702.44
5703.04
5703.53
5703.86
5704.02
5704.05
5701.75
5701.93
5702.42
5703.02
5703.5
5703.82
5703.98
5704
5701.17
5701.87
5702.69
5703.56
5704.21
5704.51
5704.52
5704.31
5701.33
5702.04
5702.86
5703.73
5704.38
5704.68
5704.68
5704.44
5701.48
5702.18
5703.01
5703.87
5704.51
5704.8
5704.78
5704.51
5701.59
5702.29
5703.11
5703.96
5704.59
5704.88
5704.85
5704.56
5701.65
5702.35
5703.16
5704
5704.62
5704.89
5704.85
5704.56
5701.68
5702.36
5703.17
5704
5704.59
5704.85
5704.81
5704.53
5701.72
5702.41
5703.21
5704.02
5704.6
5704.83
5704.78
5704.49
5694
5696.15
5701.35
5704.63
5706.09
5706.32
5706.06
5705.5
5694.13
5696.37
5701.62
5704.87
5706.32
5706.55
5706.3
5705.79
5694.23
5696.59
5701.87
5705.1
5706.5
5706.72
5706.46
5705.92
5694.35
5696.82
5702.08
5705.25
5706.61
5706.83
5706.56
5705.98
5694.42
5697.02
5702.23
5705.34
5706.65
5706.85
5706.55
5705.95
5694.48
5697.18
5702.33
5705.36
5706.61
5706.78
5706.48
5705.9
5694.57
5697.36
5702.48
5705.47
5706.67
5706.8
5706.45
5705.81
5703.2
5703.06
5702.99
5702.98
5703
5703.03
5703.08
5703.13
5703.13
5703
5702.93
5702.92
5702.94
5702.97
5703.02
5703.08
5703.07
5702.94
5702.87
5702.86
5702.89
5702.92
5702.97
5703.02
5703.03
5702.9
5702.83
5702.82
5702.84
5702.87
5702.92
5702.98
5703
5702.86
5702.79
5702.78
5702.8
5702.84
5702.88
5702.94
5702.98
5702.85
5702.77
5702.76
5702.78
5702.82
5702.86
5702.92
5702.99
5702.85
5702.77
5702.76
5702.78
5702.81
5702.86
5702.92
5702.81
5702.68
5702.65
5702.71
5702.8
5702.89
5702.98
5703.07
5702.74
5702.6
5702.57
5702.64
5702.73
5702.82
5702.92
5703.01
5702.67
5702.54
5702.51
5702.58
5702.67
5702.76
5702.86
5702.95
5702.62
5702.49
5702.46
5702.52
5702.61
5702.7
5702.8
5702.9
5702.58
5702.45
5702.41
5702.48
5702.56
5702.65
5702.76
5702.85
5702.55
5702.42
5702.38
5702.45
5702.53
5702.63
5702.73
5702.82
5702.56
5702.42
5702.38
5702.44
5702.53
5702.62
5702.72
5702.82
5702.2
5702.14
5702.26
5702.44
5702.65
5702.84
5703
5703.11
5702.1
5702.05
5702.16
5702.35
5702.56
5702.75
5702.92
5703.04
5702.03
5701.97
5702.09
5702.27
5702.48
5702.68
5702.85
5702.97
5701.96
5701.91
5702.02
5702.21
5702.42
5702.61
5702.78
5702.91
5701.91
5701.85
5701.96
5702.14
5702.35
5702.55
5702.72
5702.85
5701.87
5701.81
5701.91
5702.1
5702.3
5702.5
5702.68
5702.81
5701.87
5701.8
5701.9
5702.08
5702.29
5702.49
5702.66
5702.79
5700.77
5700.98
5701.5
5702.14
5702.66
5703.01
5703.21
5703.27
5700.64
5700.85
5701.37
5702.01
5702.54
5702.9
5703.11
5703.19
5700.54
5700.75
5701.27
5701.91
5702.44
5702.81
5703.02
5703.11
5700.46
5700.67
5701.18
5701.83
5702.36
5702.73
5702.95
5703.03
5700.39
5700.59
5701.1
5701.74
5702.27
5702.64
5702.86
5702.96
5700.35
5700.53
5701.03
5701.67
5702.2
5702.57
5702.79
5702.89
5700.35
5700.52
5701.01
5701.64
5702.17
5702.54
5702.76
5702.87
5700.52
5701.23
5702.09
5702.97
5703.6
5703.88
5703.88
5703.66
5700.3
5701.02
5701.89
5702.78
5703.42
5703.72
5703.74
5703.55
5700.14
5700.86
5701.73
5702.63
5703.29
5703.61
5703.64
5703.46
5700
5700.73
5701.6
5702.51
5703.18
5703.5
5703.54
5703.37
5699.86
5700.6
5701.47
5702.38
5703.05
5703.38
5703.42
5703.27
5699.77
5700.51
5701.35
5702.25
5702.92
5703.26
5703.31
5703.17
5699.78
5700.51
5701.32
5702.2
5702.87
5703.2
5703.25
5703.11
5692.58
5695.77
5701.01
5704.14
5705.45
5705.62
5705.27
5704.55
5692.24
5695.47
5700.77
5703.91
5705.2
5705.37
5705.07
5704.36
5692.05
5695.14
5700.51
5703.69
5705.02
5705.22
5704.95
5704.24
5691.92
5694.78
5700.21
5703.47
5704.86
5705.08
5704.82
5704.1
5691.78
5694.42
5699.9
5703.23
5704.67
5704.9
5704.66
5703.97
5691.75
5694.16
5699.6
5702.97
5704.45
5704.69
5704.47
5703.83
5691.92
5694.2
5699.54
5702.89
5704.36
5704.58
5704.37
5703.76
5703.02
5702.88
5702.8
5702.79
5702.81
5702.84
5702.89
5702.94
5703.08
5702.94
5702.86
5702.85
5702.87
5702.9
5702.94
5703
5703.15
5703.01
5702.94
5702.93
5702.95
5702.98
5703.03
5703.09
5703.24
5703.1
5703.03
5703.02
5703.04
5703.08
5703.13
5703.19
5703.34
5703.2
5703.13
5703.13
5703.15
5703.18
5703.23
5703.29
5703.44
5703.31
5703.24
5703.23
5703.25
5703.29
5703.34
5703.4
5703.53
5703.4
5703.33
5703.33
5703.35
5703.39
5703.43
5703.49
5702.6
5702.46
5702.42
5702.48
5702.56
5702.66
5702.75
5702.85
5702.67
5702.53
5702.49
5702.55
5702.63
5702.72
5702.82
5702.92
5702.76
5702.62
5702.58
5702.64
5702.72
5702.82
5702.92
5703.02
5702.87
5702.72
5702.68
5702.75
5702.83
5702.93
5703.03
5703.13
5702.98
5702.84
5702.8
5702.87
5702.95
5703.05
5703.15
5703.25
5703.1
5702.96
5702.92
5702.99
5703.08
5703.17
5703.27
5703.36
5703.21
5703.08
5703.04
5703.11
5703.19
5703.29
5703.38
5703.47
5701.91
5701.85
5701.94
5702.12
5702.33
5702.53
5702.7
5702.83
5702
5701.93
5702.03
5702.2
5702.41
5702.61
5702.78
5702.91
5702.11
5702.04
5702.13
5702.31
5702.52
5702.72
5702.89
5703.02
5702.23
5702.16
5702.25
5702.44
5702.65
5702.85
5703.02
5703.14
5702.37
5702.3
5702.4
5702.58
5702.79
5702.99
5703.16
5703.28
5702.52
5702.45
5702.54
5702.73
5702.94
5703.13
5703.3
5703.42
5702.66
5702.59
5702.69
5702.87
5703.08
5703.27
5703.43
5703.55
5700.41
5700.57
5701.05
5701.68
5702.2
5702.57
5702.8
5702.9
5700.51
5700.67
5701.14
5701.77
5702.3
5702.67
5702.89
5702.99
5700.64
5700.79
5701.26
5701.89
5702.42
5702.79
5703.02
5703.12
5700.79
5700.94
5701.41
5702.05
5702.57
5702.94
5703.16
5703.26
5700.96
5701.11
5701.59
5702.23
5702.75
5703.12
5703.33
5703.42
5701.15
5701.3
5701.78
5702.41
5702.93
5703.29
5703.5
5703.57
5701.33
5701.49
5701.97
5702.59
5703.11
5703.46
5703.66
5703.73
5699.84
5700.55
5701.36
5702.23
5702.89
5703.22
5703.27
5703.13
5699.92
5700.64
5701.44
5702.33
5703
5703.34
5703.39
5703.25
5700.05
5700.76
5701.56
5702.45
5703.14
5703.49
5703.55
5703.41
5700.21
5700.92
5701.74
5702.63
5703.32
5703.67
5703.73
5703.57
5700.43
5701.14
5701.96
5702.86
5703.55
5703.89
5703.94
5703.77
5700.69
5701.4
5702.22
5703.11
5703.79
5704.11
5704.14
5703.95
5700.96
5701.67
5702.49
5703.36
5704.02
5704.33
5704.35
5704.14
5692.07
5694.27
5699.56
5702.9
5704.38
5704.6
5704.39
5703.79
5692.14
5694.28
5699.61
5703
5704.52
5704.76
5704.55
5703.93
5692.24
5694.35
5699.71
5703.13
5704.69
5704.96
5704.76
5704.15
5692.44
5694.55
5699.91
5703.35
5704.92
5705.22
5705.02
5704.46
5692.75
5694.86
5700.22
5703.65
5705.22
5705.52
5705.3
5704.79
5693.18
5695.3
5700.61
5704
5705.53
5705.8
5705.58
5705.09
5693.71
5695.84
5701.06
5704.37
5705.86
5706.09
5705.84
5705.31
5703.7
5703.57
5703.51
5703.5
5703.52
5703.54
5703.58
5703.62
5703.65
5703.52
5703.45
5703.44
5703.46
5703.49
5703.52
5703.57
5703.59
5703.45
5703.38
5703.38
5703.39
5703.42
5703.46
5703.5
5703.52
5703.38
5703.31
5703.3
5703.31
5703.34
5703.38
5703.43
5703.45
5703.3
5703.23
5703.22
5703.23
5703.26
5703.3
5703.35
5703.36
5703.22
5703.14
5703.13
5703.15
5703.18
5703.22
5703.27
5703.28
5703.14
5703.06
5703.05
5703.07
5703.1
5703.15
5703.2
5703.42
5703.29
5703.25
5703.31
5703.39
5703.47
5703.55
5703.62
5703.37
5703.23
5703.19
5703.25
5703.33
5703.41
5703.49
5703.56
5703.3
5703.16
5703.12
5703.18
5703.25
5703.33
5703.41
5703.49
5703.21
5703.07
5703.03
5703.08
5703.16
5703.24
5703.33
5703.41
5703.11
5702.96
5702.92
5702.98
5703.06
5703.15
5703.23
5703.32
5703
5702.86
5702.82
5702.88
5702.96
5703.05
5703.14
5703.22
5702.9
5702.76
5702.73
5702.79
5702.87
5702.96
5703.06
5703.14
5702.93
5702.87
5702.97
5703.14
5703.33
5703.5
5703.63
5703.72
5702.87
5702.8
5702.9
5703.07
5703.26
5703.43
5703.57
5703.66
5702.79
5702.72
5702.82
5702.99
5703.18
5703.35
5703.49
5703.58
5702.68
5702.61
5702.72
5702.89
5703.08
5703.25
5703.39
5703.48
5702.56
5702.49
5702.6
5702.77
5702.96
5703.14
5703.28
5703.38
5702.43
5702.37
5702.48
5702.65
5702.85
5703.03
5703.17
5703.27
5702.31
5702.25
5702.36
5702.54
5702.74
5702.93
5703.08
5703.18
5701.7
5701.88
5702.38
5702.98
5703.45
5703.77
5703.92
5703.94
5701.61
5701.79
5702.29
5702.89
5703.37
5703.69
5703.85
5703.86
5701.5
5701.69
5702.19
5702.8
5703.28
5703.6
5703.76
5703.78
5701.37
5701.57
5702.07
5702.68
5703.17
5703.49
5703.65
5703.67
5701.23
5701.43
5701.94
5702.55
5703.04
5703.37
5703.53
5703.56
5701.08
5701.28
5701.79
5702.41
5702.91
5703.24
5703.41
5703.44
5700.92
5701.13
5701.65
5702.28
5702.78
5703.12
5703.3
5703.35
5701.72
5702.41
5703.21
5704
5704.56
5704.78
5704.72
5704.41
5701.65
5702.31
5703.09
5703.89
5704.45
5704.68
5704.62
5704.31
5701.55
5702.2
5702.98
5703.79
5704.36
5704.6
5704.54
5704.23
5701.42
5702.06
5702.85
5703.66
5704.24
5704.48
5704.42
5704.11
5701.24
5701.89
5702.69
5703.51
5704.09
5704.33
5704.28
5703.99
5701.03
5701.7
5702.51
5703.33
5703.92
5704.17
5704.13
5703.85
5700.78
5701.48
5702.31
5703.16
5703.76
5704.03
5704
5703.75
5694.61
5697.51
5702.57
5705.51
5706.68
5706.79
5706.42
5705.77
5694.35
5697.44
5702.45
5705.35
5706.52
5706.64
5706.28
5705.64
5694.02
5697.35
5702.38
5705.28
5706.44
5706.56
5706.19
5705.51
5693.74
5697.2
5702.24
5705.14
5706.3
5706.42
5706.05
5705.34
5693.54
5697
5702.04
5704.94
5706.1
5706.22
5705.84
5705.1
5693.37
5696.69
5701.75
5704.7
5705.89
5706.02
5705.65
5704.95
5693.05
5696.23
5701.39
5704.43
5705.69
5705.83
5705.45
5704.71
5703.93
5703.94
5703.96
5703.62
5703.66
5703.7
5703.74
5703.79
5703.84
5703.9
5703.98
5703.69
5703.73
5703.77
5703.81
5703.85
5703.9
5703.96
5704.03
5703.74
5703.77
5703.81
5703.85
5703.9
5703.94
5704
5704.07
5703.76
5703.8
5703.84
5703.87
5703.92
5703.96
5704.02
5704.08
5703.77
5703.8
5703.84
5703.88
5703.92
5703.97
5704.02
5704.09
5703.75
5703.78
5703.82
5703.86
5703.9
5703.95
5704.01
5704.08
5703.72
5703.76
5703.8
5703.84
5703.89
5703.94
5703.99
5704.06
5703.64
5703.69
5703.74
5703.8
5703.87
5703.96
5704.07
5704.21
5703.72
5703.77
5703.81
5703.87
5703.93
5704.02
5704.13
5704.26
5703.77
5703.81
5703.86
5703.92
5703.98
5704.06
5704.17
5704.3
5703.8
5703.84
5703.89
5703.94
5704
5704.09
5704.19
5704.32
5703.8
5703.84
5703.89
5703.94
5704.01
5704.09
5704.2
5704.33
5703.77
5703.82
5703.86
5703.92
5703.98
5704.07
5704.17
5704.31
5703.73
5703.77
5703.82
5703.87
5703.94
5704.02
5704.13
5704.27
5703.73
5703.76
5703.79
5703.85
5703.93
5704.05
5704.24
5704.47
5703.81
5703.84
5703.87
5703.92
5703.99
5704.12
5704.29
5704.52
5703.87
5703.89
5703.92
5703.97
5704.04
5704.16
5704.34
5704.56
5703.9
5703.92
5703.95
5704
5704.07
5704.19
5704.36
5704.58
5703.89
5703.92
5703.95
5703.99
5704.07
5704.19
5704.37
5704.59
5703.86
5703.88
5703.91
5703.96
5704.03
5704.15
5704.33
5704.55
5703.82
5703.84
5703.87
5703.91
5703.99
5704.11
5704.29
5704.51
5703.84
5703.79
5703.75
5703.75
5703.82
5703.97
5704.23
5704.55
5703.93
5703.86
5703.82
5703.81
5703.88
5704.03
5704.29
5704.6
5703.99
5703.93
5703.88
5703.88
5703.94
5704.08
5704.33
5704.63
5704.03
5703.97
5703.93
5703.93
5703.98
5704.12
5704.36
5704.67
5704.02
5703.96
5703.92
5703.91
5703.96
5704.11
5704.35
5704.67
5703.98
5703.91
5703.86
5703.84
5703.9
5704.05
5704.29
5704.61
5703.93
5703.86
5703.8
5703.78
5703.84
5704
5704.25
5704.57
5703.97
5703.65
5703.33
5703.26
5703.33
5703.47
5703.8
5704.22
5704.05
5703.68
5698.29
5698.89
5703.42
5703.51
5703.63
5704.28
5704.08
5703.66
5700.51
5703.5
5703.49
5703.51
5702.87
5704.31
5704.12
5703.72
5703.07
5703.59
5703.52
5703.55
5703.76
5704.35
5704.12
5703.7
5702.69
5703.56
5703.5
5703.51
5703.34
5704.33
5704.1
5703.69
5701.81
5703.32
5703.4
5703.43
5702.53
5704.23
5704.06
5703.67
5701.31
5693.98
5703.3
5703.39
5703.72
5704.17
5704.89
5638.21
5373.17
5513.63
5556.14
5452.17
5489.32
5606.82
5705.02
5613.46
5175.09
5501.97
5578.96
5408.41
5454.26
5606.8
5704.91
5381.34
5354.59
5645.72
5600.36
5335.99
5449.81
5613.48
5685.07
5329.38
5466.6
5683.7
5572.31
5329.83
5476.4
5618.41
5704.83
5344.44
5430.42
5679.62
5598.53
5320.97
5459.03
5619.02
5705.03
5548.62
5227.47
5569.98
5600.06
5366.18
5426.07
5609.24
5705.03
5638.65
5179.91
5485.03
5562.76
5444.79
5476.51
5612.3
5703.18
5703.22
5703.26
5703.3
5703.35
5703.4
5703.46
5703.54
5703.12
5703.16
5703.2
5703.25
5703.3
5703.35
5703.41
5703.49
5703.07
5703.11
5703.15
5703.2
5703.25
5703.3
5703.36
5703.43
5703.03
5703.07
5703.11
5703.15
5703.2
5703.25
5703.31
5703.39
5702.99
5703.03
5703.07
5703.12
5703.16
5703.22
5703.28
5703.36
5702.97
5703.01
5703.05
5703.09
5703.14
5703.2
5703.26
5703.34
5702.96
5703
5703.05
5703.09
5703.14
5703.2
5703.26
5703.34
5703.14
5703.19
5703.24
5703.31
5703.38
5703.47
5703.59
5703.73
5703.08
5703.14
5703.19
5703.25
5703.33
5703.42
5703.54
5703.68
5703.03
5703.08
5703.14
5703.2
5703.27
5703.37
5703.48
5703.63
5702.97
5703.03
5703.09
5703.15
5703.22
5703.32
5703.44
5703.58
5702.93
5702.99
5703.04
5703.11
5703.18
5703.28
5703.4
5703.55
5702.9
5702.96
5703.02
5703.08
5703.16
5703.26
5703.38
5703.53
5702.89
5702.95
5703.01
5703.08
5703.15
5703.25
5703.37
5703.53
5703.17
5703.21
5703.25
5703.31
5703.4
5703.53
5703.72
5703.96
5703.11
5703.15
5703.2
5703.26
5703.34
5703.48
5703.67
5703.91
5703.05
5703.09
5703.14
5703.2
5703.28
5703.42
5703.61
5703.85
5702.99
5703.04
5703.08
5703.15
5703.23
5703.37
5703.56
5703.8
5702.93
5702.98
5703.03
5703.1
5703.19
5703.33
5703.52
5703.77
5702.89
5702.94
5703
5703.07
5703.16
5703.3
5703.5
5703.75
5702.88
5702.93
5702.99
5703.05
5703.15
5703.29
5703.49
5703.74
5703.25
5703.22
5703.18
5703.18
5703.25
5703.4
5703.66
5703.99
5703.18
5703.16
5703.13
5703.13
5703.2
5703.35
5703.61
5703.94
5703.11
5703.09
5703.06
5703.07
5703.13
5703.29
5703.55
5703.88
5703.04
5703.03
5703.01
5703.02
5703.09
5703.24
5703.5
5703.83
5702.97
5702.96
5702.95
5702.97
5703.04
5703.2
5703.46
5703.8
5702.92
5702.91
5702.91
5702.93
5703.01
5703.17
5703.44
5703.78
5702.89
5702.89
5702.89
5702.91
5702.99
5703.15
5703.42
5703.77
5703.36
5703.08
5702.79
5702.66
5702.71
5702.89
5703.19
5703.58
5703.29
5703.04
5702.78
5702.64
5702.68
5702.85
5703.14
5703.54
5703.2
5702.97
5702.74
5702.6
5702.62
5702.79
5703.08
5703.47
5703.13
5702.91
5702.69
5702.56
5702.58
5702.75
5703.04
5703.43
5703.04
5702.84
5702.63
5702.51
5702.54
5702.71
5703
5703.39
5702.96
5702.77
5702.58
5702.47
5702.51
5702.68
5702.97
5703.37
5702.91
5702.73
5702.54
5702.44
5702.48
5702.65
5702.95
5703.35
5703.98
5686.49
5527.2
5559.19
5586.48
5567.76
5537.55
5619.99
5703.8
5701.93
5598.09
5577.35
5593.56
5567.98
5540.34
5617.11
5703.58
5699.68
5636.3
5588.88
5593.58
5568.65
5540.58
5611.41
5703.44
5702.29
5646.45
5587.01
5593.44
5573.89
5542.55
5607.16
5703.34
5701.47
5644.24
5589.7
5597.74
5577.64
5544.89
5606.76
5703.24
5699.08
5636.69
5595.47
5605.01
5580.1
5545.59
5608.67
5700.78
5696.63
5643.28
5599.1
5606.86
5582.83
5546.19
5610.77
5702.99
5703.03
5703.08
5703.12
5703.17
5703.23
5703.29
5703.37
5703.05
5703.09
5703.14
5703.18
5703.23
5703.28
5703.35
5703.42
5703.14
5703.18
5703.22
5703.27
5703.31
5703.37
5703.43
5703.5
5703.24
5703.28
5703.32
5703.36
5703.41
5703.46
5703.52
5703.6
5703.34
5703.38
5703.42
5703.47
5703.51
5703.57
5703.63
5703.7
5703.44
5703.48