/*--------------------------------*- C++ -*----------------------------------*\
| =========                 |                                                 |
| \\      /  F ield         | OpenFOAM: The Open Source CFD Toolbox           |
|  \\    /   O peration     | Version:  plus.master.MPPICInterFoam            |
|   \\  /    A nd           | Web:      www.OpenFOAM.com                      |
|    \\/     M anipulation  |                                                 |
\*---------------------------------------------------------------------------*/
FoamFile
{
    version     2.0;
    format      ascii;
    class       volVectorField;
    location    "6.6";
    object      U;
}
// * * * * * * * * * * * * * * * * * * * * * * * * * * * * * * * * * * * * * //

dimensions      [0 1 -1 0 0 0 0];

internalField   nonuniform List<vector> 
11822
(
(0.0158044 0.0159521 0.482842)
(0.0134947 0.0215779 0.546079)
(0.00873053 0.0233756 0.593351)
(0.0026091 0.0245406 0.609965)
(-0.00419081 0.025208 0.587253)
(-0.0101024 0.0227205 0.536391)
(-0.0128233 0.016574 0.471363)
(0.0198839 0.0139597 0.537717)
(0.016118 0.0177495 0.626122)
(0.0115548 0.0205779 0.707581)
(0.00393091 0.0216082 0.732646)
(-0.00564557 0.0228126 0.697597)
(-0.0138929 0.0206205 0.614193)
(-0.0175502 0.0149909 0.5241)
(0.0200857 0.00895457 0.575251)
(0.0161007 0.0109771 0.682709)
(0.01216 0.0117892 0.821452)
(0.0056863 0.011346 0.880528)
(-0.00307493 0.0122935 0.784044)
(-0.0129003 0.0129595 0.669219)
(-0.0188371 0.0101181 0.560093)
(0.0200215 0.00293157 0.581171)
(0.0149748 0.00535683 0.693723)
(0.00890657 0.00403925 0.830669)
(0.0062402 0.00208267 0.89345)
(-0.000822129 0.00351911 0.79912)
(-0.0102358 0.00508165 0.681343)
(-0.0177117 0.00282582 0.566893)
(0.0224513 -0.004234 0.552745)
(0.0152715 -0.00233742 0.647428)
(0.00947262 -0.00322989 0.726236)
(0.00538251 -0.003562 0.750896)
(-0.00122077 -0.00300634 0.719166)
(-0.011277 -0.00408645 0.635785)
(-0.0204245 -0.00575612 0.539433)
(0.0205729 -0.0108324 0.493105)
(0.0170344 -0.013849 0.57249)
(0.0098641 -0.0121217 0.616147)
(0.00339048 -0.0117998 0.630572)
(-0.00452084 -0.0134292 0.614139)
(-0.0137909 -0.0161101 0.561199)
(-0.0177065 -0.0121708 0.482439)
(0.0141018 -0.0124399 0.426955)
(0.0120476 -0.0182556 0.477482)
(0.0076763 -0.0205439 0.514839)
(0.00240293 -0.0211974 0.527134)
(-0.00346084 -0.0218779 0.510766)
(-0.00862512 -0.0191769 0.470671)
(-0.0111177 -0.0132668 0.418461)
(0.0174979 0.0160606 0.475365)
(0.0164838 0.024431 0.553394)
(0.0107635 0.0268095 0.617469)
(0.00273991 0.0278375 0.638648)
(-0.00608277 0.0275841 0.610751)
(-0.0124072 0.0237444 0.543576)
(-0.01313 0.0152561 0.464204)
(0.0242188 0.0141991 0.545223)
(0.0235382 0.0229483 0.67135)
(0.0151621 0.0228802 0.757165)
(0.00361016 0.0235118 0.79288)
(-0.00970142 0.0261448 0.767576)
(-0.0184696 0.023158 0.65588)
(-0.0195166 0.0141209 0.531644)
(0.0262022 0.00802558 0.604903)
(0.0201452 0.0119076 0.729137)
(0.0141178 0.0135308 0.875692)
(0.00640832 0.0173199 0.944265)
(-0.00362207 0.0156567 0.889517)
(-0.0166144 0.0141683 0.742816)
(-0.0222081 0.00895812 0.589771)
(0.0265531 0.000700854 0.615819)
(0.0187887 0.00265448 0.729683)
(0.0130544 0.00239992 0.854514)
(0.00694789 0.00909276 0.924255)
(-0.00307498 0.00396768 0.846439)
(-0.0142463 0.00244839 0.732347)
(-0.0248795 0.000933465 0.621692)
(0.0250415 -0.00677893 0.575497)
(0.0220568 -0.00707741 0.733532)
(0.0113872 -0.00738511 0.768689)
(0.00420005 -0.00400469 0.793981)
(-0.00461095 -0.00672609 0.774276)
(-0.0200106 -0.010729 0.736411)
(-0.022934 -0.00808755 0.566445)
(0.0189476 -0.0111294 0.494784)
(0.0206678 -0.0173573 0.608696)
(0.0140071 -0.0218587 0.691371)
(0.00285293 -0.0205394 0.706872)
(-0.00871236 -0.0239199 0.69415)
(-0.0159431 -0.019188 0.595407)
(-0.0159005 -0.0123142 0.485273)
(0.0120917 -0.0104376 0.417576)
(0.0117416 -0.0161272 0.475266)
(0.00796611 -0.0217278 0.521044)
(0.00242257 -0.0223325 0.537351)
(-0.00359155 -0.0222031 0.517114)
(-0.00817713 -0.0169047 0.469039)
(-0.00903144 -0.0112698 0.410026)
(0.00229733 0.00115413 0.459101)
(0.00460603 0.00366725 0.54431)
(0.00411086 0.00518752 0.622611)
(0.00219779 0.00520197 0.652695)
(-3.76817e-05 0.00462703 0.616463)
(-1.96936e-05 0.00212472 0.533578)
(0.00265653 -0.000675828 0.449435)
(0.0042979 0.00254031 0.535151)
(0.0105365 0.00952796 0.69985)
(0.00781501 0.00897562 0.817538)
(0.00170174 0.00752778 0.856556)
(-0.0031473 0.00855142 0.805945)
(-0.00329939 0.00592636 0.676439)
(0.00128332 0.000823465 0.521704)
(0.00631174 0.00176328 0.601492)
(0.00875716 0.00718953 0.79838)
(0.00622921 0.00948141 0.923636)
(0.00191708 0.0109736 0.973918)
(-0.00189069 0.00910435 0.924629)
(-0.00391561 0.00441992 0.785626)
(-0.00120043 0.000523999 0.591441)
(0.007235 0.000615927 0.62482)
(0.00808313 -0.000187287 0.800711)
(0.00488922 0.00372383 0.912472)
(0.00262072 0.00758602 0.970458)
(-0.000429673 0.00464671 0.921465)
(-0.00672065 -0.000722507 0.826129)
(-0.00548371 -0.000155955 0.621305)
(0.00395742 -0.000163702 0.569226)
(0.0113116 -0.00547658 0.75689)
(0.00778319 -0.0038835 0.864987)
(0.000769212 -0.00093095 0.905124)
(-0.00507532 -0.00306707 0.881557)
(-0.00754775 -0.00487695 0.753362)
(-0.000446597 -0.000152679 0.563738)
(0.000301412 0.0013863 0.481549)
(0.00524337 -0.00172748 0.604791)
(0.00631816 -0.00693661 0.713805)
(0.00166813 -0.00601832 0.736614)
(-0.00205646 -0.00576414 0.708399)
(-0.000687163 -0.00108277 0.596697)
(0.00315208 0.0014466 0.473211)
(-0.00107249 0.00413916 0.403787)
(0.000998558 0.00449473 0.461817)
(0.00183486 0.0035908 0.510941)
(0.00175482 0.00399215 0.527049)
(0.0018329 0.0042272 0.507738)
(0.00269306 0.00438474 0.456266)
(0.004544 0.00391071 0.397475)
(-0.0175376 -0.017983 0.446996)
(-0.0132259 -0.0243837 0.521237)
(-0.00634724 -0.0274535 0.593564)
(0.00187181 -0.0278742 0.623908)
(0.0103995 -0.0279728 0.589228)
(0.0177294 -0.0251372 0.513264)
(0.0220242 -0.0190474 0.439641)
(-0.0239731 -0.0131843 0.512581)
(-0.0159428 -0.015066 0.659838)
(-0.0056781 -0.013454 0.784913)
(0.00103595 -0.0132964 0.822652)
(0.00925188 -0.0153983 0.782271)
(0.0213363 -0.0177038 0.646665)
(0.0283771 -0.0148278 0.50287)
(-0.0265878 -0.00556897 0.571551)
(-0.0158427 -0.00234533 0.76888)
(-0.00555739 0.00155787 0.902694)
(-0.00123476 0.00216807 0.946755)
(0.006118 0.00013463 0.903151)
(0.0198756 -0.00580204 0.766753)
(0.0303468 -0.00734145 0.565159)
(-0.0257984 0.00315676 0.58595)
(-0.0161942 0.00462824 0.78235)
(-0.00694866 0.00632346 0.913358)
(-0.00144367 0.00761731 0.959835)
(0.00586479 0.00713865 0.914696)
(0.0164249 0.00437722 0.789035)
(0.0277708 0.00235378 0.586842)
(-0.0256364 0.011517 0.541139)
(-0.0163039 0.0122685 0.717753)
(-0.00718605 0.0121544 0.836882)
(-0.000774331 0.0132048 0.881435)
(0.00737623 0.0131682 0.842012)
(0.0192752 0.0143552 0.715579)
(0.0284759 0.0117019 0.536524)
(-0.0219619 0.0179566 0.463986)
(-0.0162288 0.022885 0.571801)
(-0.00750815 0.0247438 0.674341)
(0.00111081 0.0263117 0.705281)
(0.010385 0.0258676 0.67272)
(0.0199675 0.0237408 0.566125)
(0.0254291 0.017944 0.457694)
(-0.0160928 0.020903 0.3965)
(-0.0123168 0.0282829 0.447465)
(-0.00602186 0.0335163 0.49101)
(0.00164348 0.0353281 0.506529)
(0.0094568 0.0335816 0.488497)
(0.0159392 0.028207 0.443235)
(0.0197978 0.0204106 0.391713)
(-0.0253824 -0.0262865 0.43961)
(-0.0209847 -0.0362104 0.492013)
(-0.0112897 -0.0424905 0.53813)
(0.00215 -0.0440686 0.557366)
(0.015737 -0.0426397 0.53374)
(0.0256981 -0.0362355 0.48657)
(0.029872 -0.0261525 0.434488)
(-0.0353176 -0.021054 0.485221)
(-0.0296168 -0.0290245 0.573731)
(-0.0169225 -0.0327337 0.682206)
(0.00107403 -0.0328625 0.728235)
(0.0202045 -0.0337301 0.666931)
(0.0342524 -0.030175 0.563862)
(0.0395071 -0.0215163 0.478419)
(-0.0413846 -0.0101519 0.522849)
(-0.0351554 -0.0127382 0.673595)
(-0.0188539 -0.00776307 0.842881)
(-0.0013434 -0.00500983 0.883481)
(0.0182086 -0.00967292 0.803562)
(0.0380048 -0.0147815 0.655821)
(0.0446305 -0.0109694 0.514976)
(-0.0415409 0.00387069 0.533384)
(-0.0346056 0.00684831 0.710271)
(-0.0179219 0.0112995 0.859644)
(-0.00326857 0.0133273 0.906653)
(0.0140763 0.0114111 0.851575)
(0.0356728 0.00625836 0.702443)
(0.0438648 0.00321762 0.526123)
(-0.038424 0.0166431 0.499384)
(-0.0327238 0.0243154 0.636967)
(-0.0175244 0.0284496 0.78107)
(-0.00106269 0.0301489 0.817828)
(0.0174479 0.0299905 0.778987)
(0.0353782 0.0251252 0.631581)
(0.0413146 0.0162121 0.493393)
(-0.0307439 0.0248954 0.446984)
(-0.0258104 0.0346688 0.516681)
(-0.0144159 0.0414219 0.585686)
(0.00115275 0.0436914 0.612362)
(0.0173911 0.0415451 0.582753)
(0.0295602 0.0344254 0.512123)
(0.0344479 0.0240092 0.44233)
(-0.0220202 0.0273076 0.394638)
(-0.0179932 0.0374612 0.436048)
(-0.00941271 0.0452629 0.468628)
(0.00203451 0.0478375 0.480692)
(0.0136245 0.0449367 0.466561)
(0.0223314 0.0366946 0.432871)
(0.0262895 0.0259935 0.391238)
(-0.0189934 -0.0215695 0.438016)
(-0.0150984 -0.0282744 0.481795)
(-0.00734359 -0.0340962 0.514968)
(0.00351585 -0.0355062 0.526764)
(0.013946 -0.0329827 0.512479)
(0.0210417 -0.0268819 0.47837)
(0.0243475 -0.0199517 0.43504)
(-0.0257716 -0.0177122 0.475089)
(-0.0223602 -0.0247812 0.534918)
(-0.0123867 -0.0299235 0.590173)
(0.00366415 -0.0300519 0.610558)
(0.0186809 -0.0292306 0.58387)
(0.0277609 -0.0239192 0.529873)
(0.0305649 -0.0164667 0.470611)
(-0.0318556 -0.00989026 0.501111)
(-0.0279568 -0.0143113 0.584434)
(-0.0169967 -0.0161092 0.689187)
(0.00349085 -0.0123711 0.72409)
(0.0214567 -0.0171165 0.663752)
(0.032077 -0.0144435 0.573638)
(0.0356383 -0.00919378 0.495111)
(-0.0339008 0.00197384 0.504855)
(-0.0309073 0.00327887 0.61049)
(-0.0209435 0.00851976 0.760755)
(-0.00238387 0.0122106 0.802904)
(0.0172629 0.00402877 0.726663)
(0.0316935 0.00180052 0.591244)
(0.0369417 0.00154297 0.498674)
(-0.0301977 0.0132495 0.481168)
(-0.0266294 0.0194998 0.559673)
(-0.01642 0.0285381 0.658696)
(0.000947721 0.0310798 0.70081)
(0.0188811 0.0265168 0.648302)
(0.0299027 0.0179655 0.55148)
(0.0339105 0.0117597 0.476232)
(-0.0234373 0.0198654 0.440472)
(-0.0201193 0.0277992 0.493079)
(-0.0109967 0.0354281 0.538181)
(0.00288263 0.0372618 0.555054)
(0.0164122 0.0334031 0.534856)
(0.0249619 0.0256669 0.488891)
(0.0279804 0.0178044 0.437414)
(-0.0176155 0.0226185 0.394916)
(-0.0138648 0.0292248 0.431579)
(-0.00666945 0.0356934 0.45938)
(0.00348098 0.0376559 0.469452)
(0.0132663 0.0340855 0.457623)
(0.0198454 0.0270599 0.429394)
(0.022974 0.0203314 0.393158)
(-0.0100762 0.0118031 0.412372)
(-0.00707918 0.00877193 0.368307)
(-0.00475065 0.00647556 0.329284)
(-0.0029891 0.00483195 0.295434)
(-0.00166356 0.00362832 0.26601)
(-0.000666531 0.00276087 0.239564)
(6.16099e-05 0.00211823 0.213107)
(0.000683924 0.00143302 0.176104)
(-0.0148506 0.0107894 0.449377)
(-0.0106342 0.00795015 0.392583)
(-0.00716297 0.00588258 0.344421)
(-0.00452998 0.00439577 0.303862)
(-0.00263121 0.00329324 0.269518)
(-0.00129906 0.00248565 0.239493)
(-0.000417946 0.00187617 0.2104)
(0.000287219 0.00123088 0.17119)
(-0.0184882 0.00716377 0.47322)
(-0.0140197 0.0051984 0.408042)
(-0.0097685 0.00390909 0.353186)
(-0.00636627 0.0030442 0.307597)
(-0.00384542 0.00240363 0.269611)
(-0.00207275 0.00193158 0.237005)
(-0.00090215 0.00157773 0.206086)
(4.08348e-05 0.00119395 0.165442)
(-0.0201265 0.00151135 0.476306)
(-0.0156742 0.000984834 0.407898)
(-0.0110415 0.000759248 0.350867)
(-0.00734856 0.000692226 0.303747)
(-0.0045639 0.000724288 0.264712)
(-0.00260733 0.000800835 0.231431)
(-0.00130125 0.000904182 0.200124)
(-0.000232866 0.00101249 0.159394)
(-0.0189107 -0.00457598 0.453642)
(-0.0139684 -0.00336825 0.389658)
(-0.00973092 -0.00245992 0.336081)
(-0.00644425 -0.00172597 0.291665)
(-0.00404136 -0.00104831 0.254664)
(-0.00238179 -0.000463641 0.22288)
(-0.00129203 5.10092e-05 0.192738)
(-0.000400003 0.000603263 0.153276)
(-0.0142037 -0.00852036 0.413392)
(-0.00999796 -0.00604629 0.35876)
(-0.00680426 -0.00434447 0.312726)
(-0.00445862 -0.00305978 0.274041)
(-0.00281376 -0.00204541 0.241259)
(-0.00168893 -0.00125473 0.21256)
(-0.000951004 -0.000615402 0.184783)
(-0.000322265 4.99093e-05 0.147711)
(-0.00885816 -0.0090655 0.36582)
(-0.00625932 -0.00651229 0.323676)
(-0.00427235 -0.00474044 0.286736)
(-0.00282859 -0.003451 0.254742)
(-0.00176561 -0.00248562 0.226899)
(-0.000988954 -0.00175494 0.201861)
(-0.000441098 -0.0011817 0.176926)
(4.59821e-05 -0.000537695 0.142699)
(-0.00866365 0.00970056 0.401084)
(-0.00512414 0.00641314 0.357069)
(-0.00275474 0.00430805 0.319802)
(-0.00122932 0.00305364 0.288112)
(-0.000268113 0.00226745 0.260656)
(0.000348541 0.00180821 0.235775)
(0.00068014 0.0015756 0.210479)
(0.00101684 0.0011886 0.174329)
(-0.0136349 0.00901466 0.441245)
(-0.00825521 0.00584736 0.381651)
(-0.00449607 0.00395308 0.334391)
(-0.00214777 0.00277101 0.295941)
(-0.00075604 0.00196727 0.263783)
(4.0583e-06 0.00148055 0.235566)
(0.00031339 0.00121862 0.207832)
(0.000637414 0.000894155 0.169678)
(-0.0175376 0.00591276 0.470246)
(-0.0113984 0.00389435 0.398324)
(-0.00649462 0.00274754 0.343089)
(-0.00327697 0.00205183 0.299337)
(-0.00132297 0.00154735 0.263625)
(-0.000273647 0.00123537 0.232993)
(0.000154137 0.00107305 0.203584)
(0.000543475 0.000896846 0.16412)
(-0.0201388 0.000289895 0.476888)
(-0.0132024 0.000219084 0.39887)
(-0.00765965 0.000293639 0.340894)
(-0.00398838 0.000410173 0.295382)
(-0.00177023 0.000535764 0.258785)
(-0.000574363 0.000668165 0.227544)
(-8.07626e-05 0.000814412 0.197785)
(0.000353576 0.000965502 0.158239)
(-0.0166738 -0.00537552 0.449653)
(-0.0107212 -0.00338504 0.380043)
(-0.00612344 -0.00213174 0.326556)
(-0.00316919 -0.00125471 0.284097)
(-0.00142564 -0.000561479 0.249333)
(-0.000528655 -4.16738e-05 0.219435)
(-0.000211857 0.00035919 0.190706)
(0.00010516 0.000795644 0.152304)
(-0.0111889 -0.00771543 0.404861)
(-0.00662634 -0.00467563 0.348775)
(-0.00361145 -0.00297472 0.304109)
(-0.00176818 -0.00186114 0.26756)
(-0.000747156 -0.00107311 0.236816)
(-0.000241465 -0.000541769 0.209731)
(-0.000102434 -0.00018895 0.183126)
(9.9288e-05 0.000232143 0.146895)
(-0.00606948 -0.00695622 0.355741)
(-0.00345351 -0.00434248 0.314483)
(-0.00171321 -0.00285539 0.279464)
(-0.000668577 -0.00194512 0.249478)
(-6.00833e-05 -0.00135909 0.223345)
(0.000267066 -0.000996173 0.199598)
(0.000359592 -0.000790422 0.175571)
(0.000487734 -0.000399121 0.141949)
(0.00482521 -0.0019751 0.3892)
(0.00539251 -0.00262808 0.3485)
(0.00541571 -0.00247199 0.31463)
(0.00494952 -0.00198533 0.285756)
(0.00425616 -0.00128736 0.260417)
(0.0034552 -0.000505186 0.237011)
(0.00262475 0.00026166 0.212698)
(0.00189158 0.000787059 0.177147)
(0.00509856 -0.000885907 0.427826)
(0.006451 -0.00182966 0.371305)
(0.0066418 -0.00184483 0.327814)
(0.00605916 -0.00161734 0.292703)
(0.00504045 -0.00117163 0.263107)
(0.00382505 -0.000592847 0.236691)
(0.00258691 2.22012e-05 0.210163)
(0.00155973 0.000517291 0.172767)
(0.0046106 0.000272898 0.45745)
(0.00678486 -0.000349317 0.387034)
(0.00752805 -0.000459825 0.335607)
(0.00711463 -0.000456267 0.295529)
(0.0059928 -0.000308584 0.26269)
(0.00450594 -2.93608e-05 0.2341)
(0.00292828 0.000323246 0.206053)
(0.00158951 0.000647673 0.167436)
(0.00342207 0.000490795 0.464381)
(0.00621731 0.000597596 0.387182)
(0.00739749 0.000643328 0.333286)
(0.00719146 0.000685301 0.291829)
(0.00610048 0.000734062 0.25797)
(0.00457194 0.000820701 0.228799)
(0.00290366 0.000947483 0.200417)
(0.00146412 0.00109724 0.161706)
(0.00472016 0.000786482 0.436929)
(0.00653552 0.00143886 0.369535)
(0.00711806 0.00158636 0.319924)
(0.0066202 0.00163066 0.28102)
(0.00545311 0.0015645 0.24898)
(0.00396693 0.0014461 0.220982)
(0.00239561 0.00132732 0.193498)
(0.00106021 0.00128229 0.155836)
(0.0055468 0.00231944 0.392906)
(0.00637353 0.00286529 0.34025)
(0.00628029 0.00271877 0.299215)
(0.00554027 0.00242094 0.265696)
(0.00444027 0.00199882 0.237197)
(0.00319008 0.00152728 0.211655)
(0.00192531 0.00107095 0.186049)
(0.000869213 0.000750124 0.150392)
(0.00563232 0.00381351 0.346585)
(0.00577959 0.00375842 0.308572)
(0.00547959 0.00325759 0.27654)
(0.00481575 0.00261884 0.24891)
(0.00396802 0.00190092 0.224482)
(0.00302807 0.00116936 0.201893)
(0.00206247 0.000496422 0.178608)
(0.0011845 8.40243e-05 0.145382)
(0.0201849 -0.0148669 0.386859)
(0.0170188 -0.0120195 0.350635)
(0.0142118 -0.00939158 0.319929)
(0.0116424 -0.00706674 0.293179)
(0.00925232 -0.00485982 0.269201)
(0.00698806 -0.00282468 0.246637)
(0.00488411 -0.00100322 0.222798)
(0.00290723 0.000515364 0.187313)
(0.026613 -0.0119918 0.420846)
(0.0224909 -0.00979593 0.370665)
(0.0184091 -0.00777531 0.331565)
(0.0146424 -0.00594459 0.299324)
(0.0111943 -0.0041398 0.271536)
(0.00802309 -0.00244237 0.246221)
(0.00516357 -0.000898739 0.220312)
(0.00262113 0.00044697 0.183057)
(0.0307333 -0.00564083 0.446473)
(0.0269278 -0.00465091 0.384237)
(0.0222932 -0.00377356 0.338191)
(0.0177268 -0.00295906 0.301572)
(0.0134123 -0.00204601 0.27092)
(0.00941743 -0.00110116 0.243624)
(0.0058099 -0.000182749 0.216286)
(0.00263406 0.000665477 0.177837)
(0.0308149 0.00179779 0.451163)
(0.0276084 0.00146429 0.383779)
(0.0231369 0.00119614 0.335647)
(0.0184912 0.00105045 0.297767)
(0.0139796 0.000995955 0.266243)
(0.00974896 0.00103439 0.238397)
(0.00589617 0.00114139 0.210728)
(0.00249215 0.00128402 0.172177)
(0.0288565 0.00871622 0.426842)
(0.0251456 0.00701731 0.367638)
(0.020799 0.00566614 0.32316)
(0.016517 0.00463595 0.287502)
(0.0124178 0.00368105 0.257462)
(0.00859833 0.00285661 0.230657)
(0.00510935 0.00217314 0.203828)
(0.00201476 0.00162172 0.166313)
(0.0238015 0.0137399 0.38803)
(0.0200853 0.0108288 0.34122)
(0.0164917 0.00855446 0.304022)
(0.0131016 0.00669728 0.272965)
(0.00992813 0.00500401 0.246022)
(0.00696077 0.00350869 0.221437)
(0.00422678 0.00221267 0.196377)
(0.00175957 0.00112383 0.160851)
(0.0182295 0.0152637 0.346782)
(0.015524 0.0120427 0.312514)
(0.0129875 0.00946495 0.283013)
(0.0105902 0.00727343 0.257075)
(0.00829163 0.00527102 0.233755)
(0.00607923 0.0034605 0.211879)
(0.0039811 0.00186623 0.189025)
(0.00198161 0.000571871 0.155902)
(0.0264625 -0.0198661 0.390445)
(0.0222197 -0.0157923 0.35788)
(0.0187096 -0.0124802 0.32893)
(0.0155685 -0.00961285 0.303032)
(0.0125326 -0.00686981 0.27944)
(0.00953924 -0.0042733 0.256994)
(0.00676381 -0.0019805 0.232968)
(0.00350569 0.000442191 0.196441)
(0.0346223 -0.0165641 0.418507)
(0.0285417 -0.0129457 0.375547)
(0.0234153 -0.0102482 0.339684)
(0.0189824 -0.00791069 0.308983)
(0.0148652 -0.00564955 0.281942)
(0.010938 -0.00352503 0.256983)
(0.00740259 -0.00164001 0.231082)
(0.00335091 0.000404874 0.192937)
(0.0409524 -0.00841341 0.437822)
(0.0342915 -0.00656371 0.386749)
(0.0280487 -0.00524914 0.345452)
(0.022511 -0.00409478 0.311041)
(0.0173798 -0.0028567 0.281397)
(0.0125554 -0.00162822 0.254593)
(0.0082507 -0.000491433 0.227352)
(0.00341344 0.00076988 0.188062)
(0.0419447 0.00225072 0.439871)
(0.0356625 0.00172527 0.385765)
(0.0292675 0.00140758 0.342683)
(0.0234905 0.00124444 0.307075)
(0.018073 0.00119915 0.276672)
(0.0129584 0.00125126 0.249347)
(0.00838717 0.00137125 0.221772)
(0.00325564 0.00153302 0.182349)
(0.0382378 0.0120078 0.420697)
(0.03207 0.00925836 0.370957)
(0.0263447 0.00748241 0.330602)
(0.0211804 0.006127 0.296839)
(0.0163198 0.00489423 0.267703)
(0.0116773 0.00382922 0.241308)
(0.00749328 0.00297047 0.214483)
(0.00271511 0.00205384 0.175986)
(0.0306631 0.0179994 0.388196)
(0.0255724 0.0139271 0.34688)
(0.0212098 0.0112183 0.312167)
(0.0172398 0.00897915 0.282304)
(0.0134381 0.00692651 0.255936)
(0.00970261 0.00506668 0.231575)
(0.00628284 0.00349563 0.206362)
(0.00225785 0.00176886 0.169688)
(0.0237231 0.0196029 0.351744)
(0.0202596 0.0156305 0.319982)
(0.017112 0.0126681 0.291669)
(0.0142003 0.010081 0.266303)
(0.0112784 0.00761845 0.243208)
(0.00833371 0.00528386 0.221298)
(0.00557305 0.0032709 0.198041)
(0.00226202 0.00110664 0.163506)
(0.023692 -0.0164077 0.395877)
(0.0222204 -0.0144923 0.366778)
(0.0208976 -0.0130696 0.341113)
(0.019515 -0.0116316 0.31906)
(0.0177942 -0.0100121 0.300425)
(0.015563 -0.00803833 0.284822)
(0.0125085 -0.00547143 0.271689)
(0.00770272 -0.00171578 0.257734)
(0.0283603 -0.0130321 0.420046)
(0.0261285 -0.0109055 0.38189)
(0.0243464 -0.00959996 0.349902)
(0.022575 -0.00834222 0.323235)
(0.0204879 -0.00700334 0.301175)
(0.0178183 -0.00544359 0.283056)
(0.014162 -0.0034548 0.268152)
(0.00833379 -0.000516425 0.253551)
(0.0326151 -0.00691461 0.435513)
(0.0297172 -0.00557415 0.390941)
(0.0273907 -0.00486576 0.354191)
(0.0250995 -0.00416832 0.324002)
(0.0225205 -0.00341734 0.29934)
(0.0193391 -0.0025564 0.279307)
(0.0150929 -0.00148762 0.263047)
(0.00837657 8.36914e-05 0.247818)
(0.033925 0.00137095 0.436104)
(0.0308217 0.00126432 0.389274)
(0.0283464 0.00121448 0.351008)
(0.0258732 0.00117435 0.319743)
(0.0231173 0.00115846 0.294312)
(0.019741 0.00114121 0.273744)
(0.0152812 0.00110562 0.25719)
(0.00825187 0.00103105 0.242128)
(0.0312354 0.00919073 0.419218)
(0.0286347 0.00772753 0.375581)
(0.0265292 0.0069898 0.339604)
(0.0243625 0.0062725 0.310074)
(0.0218609 0.00553153 0.285986)
(0.0187028 0.00466238 0.266476)
(0.0144898 0.00355203 0.250797)
(0.00781803 0.00186767 0.236726)
(0.0265612 0.0143129 0.390683)
(0.0248163 0.012284 0.353719)
(0.0232879 0.0111174 0.322778)
(0.0216279 0.00995027 0.297067)
(0.0195684 0.00867439 0.275881)
(0.0168619 0.0071228 0.258605)
(0.013195 0.00510658 0.244709)
(0.00738504 0.00205391 0.232256)
(0.0226682 0.0171611 0.357765)
(0.0214047 0.0154915 0.329258)
(0.0201367 0.0142356 0.304392)
(0.018735 0.0128852 0.283179)
(0.016949 0.0112716 0.265409)
(0.0146305 0.00924421 0.250758)
(0.0115332 0.00661426 0.238911)
(0.00670664 0.00272724 0.227902)
(0.0114971 -0.00816922 0.374861)
(0.00870001 -0.00547344 0.332664)
(0.00663218 -0.00343261 0.295534)
(0.00507505 -0.00194713 0.263225)
(0.00389539 -0.000790008 0.23496)
(0.00301123 0.000106382 0.20939)
(0.00234601 0.000811452 0.183762)
(0.00166425 0.00146312 0.148362)
(0.016636 -0.00751194 0.424045)
(0.0121741 -0.00503647 0.369499)
(0.00874279 -0.00315158 0.323376)
(0.00619941 -0.00173161 0.284393)
(0.00435424 -0.000577848 0.251138)
(0.00303307 0.000351231 0.221797)
(0.00211945 0.00110591 0.19316)
(0.00129862 0.00178686 0.154619)
(0.0207146 -0.00353888 0.465672)
(0.0156304 -0.00244481 0.401772)
(0.011195 -0.00151767 0.348233)
(0.00769165 -0.000729295 0.303601)
(0.0050695 -3.09303e-06 0.266129)
(0.00317129 0.000633259 0.233649)
(0.00186314 0.00118309 0.20255)
(0.000763957 0.0016917 0.161422)
(0.0214925 0.00174106 0.488952)
(0.0169811 0.00131096 0.420905)
(0.0122798 0.00114069 0.363962)
(0.00840079 0.00109867 0.316684)
(0.0053902 0.00110228 0.277195)
(0.00317709 0.00112849 0.243211)
(0.00162923 0.00115991 0.210916)
(0.000355556 0.00115128 0.168426)
(0.0203795 0.00657513 0.486591)
(0.0158102 0.00492195 0.421496)
(0.011348 0.00377839 0.366634)
(0.00770663 0.00294341 0.32081)
(0.00492144 0.00220261 0.28234)
(0.00287806 0.00157585 0.249045)
(0.00144778 0.00103706 0.217173)
(0.000288136 0.000461406 0.174827)
(0.0172738 0.010098 0.462388)
(0.0128696 0.00746345 0.405599)
(0.0091441 0.00549607 0.357281)
(0.00624428 0.00399923 0.316396)
(0.00409817 0.00273627 0.281575)
(0.00254129 0.00170306 0.250922)
(0.00144479 0.00083682 0.220982)
(0.000534224 -3.32159e-05 0.180273)
(0.0128529 0.0111955 0.424098)
(0.00964507 0.00819565 0.379906)
(0.00706954 0.00590363 0.340645)
(0.00509453 0.00418127 0.306456)
(0.00357923 0.00280229 0.276604)
(0.00242305 0.00170954 0.249634)
(0.00154155 0.000827857 0.222484)
(0.000740117 -2.22696e-05 0.184249)
(0.0087861 -0.00597837 0.363616)
(0.0060734 -0.00322887 0.322179)
(0.00422723 -0.00149367 0.286852)
(0.00308142 -0.000374432 0.256489)
(0.00236975 0.000407185 0.229889)
(0.00193018 0.000946143 0.205587)
(0.00168974 0.0013007 0.180864)
(0.00133281 0.00168534 0.146086)
(0.0136073 -0.00663653 0.414183)
(0.00886295 -0.0035899 0.358124)
(0.00563089 -0.00176518 0.313215)
(0.00358415 -0.000497094 0.276246)
(0.00236085 0.000453609 0.244943)
(0.00167642 0.00113575 0.217166)
(0.00135476 0.00161425 0.189683)
(0.000951925 0.00204172 0.152011)
(0.0183506 -0.00436756 0.459323)
(0.0122963 -0.00246525 0.390553)
(0.0075878 -0.00120779 0.337094)
(0.00445312 -0.000281652 0.294278)
(0.00247729 0.000468686 0.258914)
(0.00134222 0.00104394 0.228236)
(0.000814644 0.00147615 0.198521)
(0.00029638 0.00186201 0.15849)
(0.0215137 0.000314945 0.485696)
(0.014651 0.000361277 0.409998)
(0.00898065 0.000522925 0.352313)
(0.00510789 0.000649424 0.306645)
(0.0026348 0.000745102 0.269319)
(0.00117164 0.000831271 0.237257)
(0.000455639 0.000914848 0.206465)
(-0.000178347 0.000973697 0.165197)
(0.0203285 0.00532764 0.481706)
(0.0138631 0.00354227 0.410113)
(0.00858043 0.00250068 0.354761)
(0.00496695 0.00174394 0.310612)
(0.00264074 0.00109512 0.274294)
(0.00125191 0.000610291 0.242893)
(0.000545378 0.000269832 0.212504)
(-8.82183e-05 -7.30977e-05 0.171374)
(0.0174214 0.0088546 0.453017)
(0.0115447 0.00576774 0.39311)
(0.00724043 0.00378366 0.345471)
(0.00444256 0.00239895 0.306542)
(0.0026645 0.00129583 0.27381)
(0.00157474 0.000495605 0.244912)
(0.000954555 -7.51244e-05 0.216322)
(0.00036894 -0.000638607 0.176679)
(0.0125424 0.00994418 0.411546)
(0.00853057 0.00645059 0.367153)
(0.00572248 0.00413947 0.32947)
(0.00384977 0.00260597 0.297336)
(0.00261309 0.00148735 0.269393)
(0.00176885 0.000696571 0.243955)
(0.00119145 0.000134934 0.217953)
(0.000599731 -0.000450118 0.180565)
(-0.00240773 0.00454048 0.35298)
(-0.00269039 0.00484014 0.314698)
(-0.00256126 0.00462288 0.282309)
(-0.00207382 0.00424646 0.254248)
(-0.00137871 0.00374656 0.22931)
(-0.000598735 0.00321226 0.206132)
(0.000175789 0.00268949 0.182137)
(0.000753682 0.00225819 0.147797)
(-0.00261236 0.00304278 0.40055)
(-0.00371647 0.00388047 0.347803)
(-0.00391324 0.0039483 0.30644)
(-0.00345339 0.00383228 0.272438)
(-0.00260883 0.0035917 0.243326)
(-0.00157696 0.00327852 0.217052)
(-0.000536915 0.00294333 0.190562)
(0.000245113 0.0025967 0.153535)
(-0.00238708 0.00152165 0.444982)
(-0.00443417 0.00230126 0.378189)
(-0.00529659 0.00254658 0.328442)
(-0.00508692 0.00261742 0.289067)
(-0.00422921 0.00260548 0.256357)
(-0.00302341 0.00253604 0.227537)
(-0.00171574 0.00243922 0.199059)
(-0.000640912 0.00230794 0.159861)
(-0.00128939 0.000938836 0.471746)
(-0.00430533 0.00095183 0.396535)
(-0.00574363 0.000924097 0.34258)
(-0.00584088 0.000882989 0.300573)
(-0.00506651 0.000872071 0.266144)
(-0.00384279 0.000905748 0.23613)
(-0.00245342 0.000970533 0.20671)
(-0.00126412 0.00102999 0.166382)
(-0.00144721 0.000539044 0.46689)
(-0.0039909 -0.000326433 0.396581)
(-0.00519913 -0.000704998 0.344958)
(-0.0052066 -0.000923205 0.304408)
(-0.00448759 -0.000975536 0.270936)
(-0.00337527 -0.00087584 0.24156)
(-0.00213262 -0.000682188 0.212543)
(-0.00109588 -0.000460104 0.172367)
(-0.000794277 -0.000168157 0.437399)
(-0.00269994 -0.00156698 0.380403)
(-0.00350689 -0.00200819 0.3365)
(-0.00341463 -0.00218791 0.300909)
(-0.00282837 -0.00211869 0.270739)
(-0.00200053 -0.00187456 0.243649)
(-0.00111232 -0.00153993 0.216279)
(-0.000427905 -0.00120809 0.177478)
(-0.000471268 -0.000996679 0.397497)
(-0.00153247 -0.00217435 0.356379)
(-0.00199633 -0.00251767 0.322109)
(-0.00190329 -0.0025022 0.292805)
(-0.0015245 -0.00223915 0.266986)
(-0.00101758 -0.00184254 0.243028)
(-0.000473343 -0.00139458 0.218016)
(-7.74453e-05 -0.00103795 0.181268)
(-0.0146655 0.0162992 0.35153)
(-0.0120818 0.0134752 0.316914)
(-0.0097707 0.0111195 0.287005)
(-0.00757205 0.00914785 0.260565)
(-0.00546086 0.00733915 0.236665)
(-0.00345257 0.00570843 0.21415)
(-0.00159343 0.00423688 0.190569)
(4.45689e-05 0.00286282 0.156418)
(-0.0206284 0.014636 0.393902)
(-0.017138 0.0121012 0.346852)
(-0.0138574 0.0100061 0.309213)
(-0.0107748 0.00829643 0.277574)
(-0.00788639 0.00674577 0.249933)
(-0.00519267 0.0053801 0.224567)
(-0.00274813 0.00416892 0.198621)
(-0.000626018 0.00299505 0.161836)
(-0.0263322 0.00949292 0.433437)
(-0.0228505 0.00805888 0.374374)
(-0.0187668 0.00673435 0.329504)
(-0.0148043 0.00570199 0.293212)
(-0.011028 0.00476863 0.262392)
(-0.00752489 0.00396723 0.234705)
(-0.00435579 0.00327494 0.206879)
(-0.00157916 0.00259119 0.167943)
(-0.0286574 0.00243169 0.457588)
(-0.0256136 0.00192813 0.391228)
(-0.0213589 0.00150456 0.342723)
(-0.0169839 0.00123607 0.304168)
(-0.0127839 0.00110275 0.271852)
(-0.00887838 0.00107673 0.243094)
(-0.00535458 0.00111415 0.214385)
(-0.00225493 0.0011555 0.174334)
(-0.0278306 -0.00508016 0.453913)
(-0.0243465 -0.00469045 0.391671)
(-0.0200145 -0.00417352 0.345221)
(-0.0158075 -0.00363106 0.308017)
(-0.0118522 -0.00290464 0.2766)
(-0.00821547 -0.00210763 0.248461)
(-0.00495571 -0.00130805 0.22015)
(-0.00210841 -0.000510825 0.180253)
(-0.0228762 -0.0113943 0.42818)
(-0.0190712 -0.0098743 0.377526)
(-0.0153557 -0.00834192 0.337922)
(-0.0119578 -0.00695465 0.305119)
(-0.00888739 -0.00548146 0.276693)
(-0.00610097 -0.00405128 0.250665)
(-0.00360911 -0.00270814 0.223913)
(-0.00143979 -0.0014212 0.185368)
(-0.0160967 -0.0143142 0.393121)
(-0.0132007 -0.0120339 0.356435)
(-0.010724 -0.00994331 0.32528)
(-0.00842989 -0.00810643 0.298052)
(-0.00631001 -0.00629121 0.273551)
(-0.00434663 -0.00457997 0.250405)
(-0.00255528 -0.00299697 0.225865)
(-0.000967728 -0.00153015 0.189292)
(-0.0196728 0.0213305 0.354818)
(-0.0163278 0.0176263 0.322539)
(-0.0134584 0.0147633 0.293651)
(-0.0107953 0.0123295 0.267624)
(-0.00811905 0.0100143 0.243827)
(-0.00544983 0.00782451 0.221193)
(-0.0030045 0.00589461 0.197168)
(-0.000119367 0.00356591 0.161648)
(-0.0271158 0.0194752 0.392332)
(-0.0222524 0.0156403 0.350449)
(-0.0182041 0.0129848 0.31506)
(-0.0145979 0.0108347 0.284426)
(-0.0111567 0.00888204 0.25722)
(-0.00777926 0.00711033 0.23199)
(-0.00474143 0.00558073 0.205856)
(-0.00111506 0.00369755 0.167982)
(-0.0353045 0.0130603 0.425941)
(-0.0293315 0.0104552 0.375572)
(-0.0239532 0.00867295 0.334474)
(-0.019162 0.00728454 0.299852)
(-0.0147116 0.00605763 0.26978)
(-0.010469 0.00498529 0.242414)
(-0.00670141 0.00408393 0.214563)
(-0.00228739 0.00298842 0.174721)
(-0.0393552 0.00278623 0.445874)
(-0.0332489 0.00210228 0.391124)
(-0.0271429 0.00163567 0.347222)
(-0.0217102 0.00136146 0.310736)
(-0.0166905 0.00125139 0.27935)