/*--------------------------------*- C++ -*----------------------------------*\
| =========                 |                                                 |
| \\      /  F ield         | OpenFOAM: The Open Source CFD Toolbox           |
|  \\    /   O peration     | Version:  plus.master.MPPICInterFoam            |
|   \\  /    A nd           | Web:      www.OpenFOAM.com                      |
|    \\/     M anipulation  |                                                 |
\*---------------------------------------------------------------------------*/
FoamFile
{
    version     2.0;
    format      ascii;
    class       vectorField;
    location    "8.8/lagrangian/kinematicCloud";
    object      U;
}
// * * * * * * * * * * * * * * * * * * * * * * * * * * * * * * * * * * * * * //


26
(
(-0.000781202 -0.00529642 -0.0604337)
(0.00209369 0.00389519 -0.0606225)
(0.00271689 0.00597989 -0.060858)
(-0.00306718 0.0013965 -0.058391)
(-0.00274338 0.00131562 -0.0587371)
(0.000196681 0.00598123 -0.0641268)
(-0.00452461 0.00137669 -0.0633321)
(0.00157353 0.00772652 -0.0701083)
(0.0059792 0.00849038 -0.0748583)
(-0.00204264 -0.0149605 -0.0809584)
(0.00852456 0.0133709 -0.0434643)
(-0.0102849 6.72138e-05 -0.0794617)
(-0.0100932 0.00102937 -0.0807463)
(0.000768163 -0.013109 -0.0842037)
(-0.00887426 0.00243174 -0.0801947)
(0.000257076 0.0030258 0.0652136)
(-0.0104488 0.000827755 -0.0862304)
(-0.0146875 -0.000325241 -0.0868415)
(-0.0155903 0.000872646 -0.090716)
(-0.034824 -0.00595095 -0.129447)
(-0.0417574 -0.00541676 -0.147454)
(0.0997634 -0.0176148 -0.125944)
(-0.140045 -0.0102668 -0.140573)
(-0.00185117 -0.0013303 0.22679)
(0.00960471 -0.00188486 0.377915)
(0.00282491 -0.00858358 0.318662)
)


// ************************************************************************* //
