/*--------------------------------*- C++ -*----------------------------------*\
| =========                 |                                                 |
| \\      /  F ield         | OpenFOAM: The Open Source CFD Toolbox           |
|  \\    /   O peration     | Version:  plus.master.MPPICInterFoam            |
|   \\  /    A nd           | Web:      www.OpenFOAM.com                      |
|    \\/     M anipulation  |                                                 |
\*---------------------------------------------------------------------------*/
FoamFile
{
    version     2.0;
    format      ascii;
    class       scalarField;
    location    "8.2/lagrangian/kinematicCloud";
    object      age;
}
// * * * * * * * * * * * * * * * * * * * * * * * * * * * * * * * * * * * * * //


3038
(
8.15663
8.07984
8.1318
7.97171
7.94156
7.85611
8.02376
8.09302
7.9232
8.19962
8.18975
8.08081
8.19195
8.10798
7.94533
8.15683
8.03995
8.11619
7.94484
8.00619
7.77038
8.04984
7.91785
8.0844
8.0535
8.12757
8.17049
8.11857
8.16485
7.88652
8.01826
7.94289
7.92417
7.97186
8.17898
8.11854
8.06732
8.00932
8.14335
8.11206
8.18169
7.89621
8.19808
8.11723
7.97156
8.18492
8.07256
8.1194
8.00848
7.91612
7.74678
8.17332
8.09344
8.11096
8.12029
7.97886
8.06879
7.79228
8.12433
8.09551
8.16504
8.16197
8.04008
8.06659
8.03926
8.15618
8.08837
8.01545
7.86799
8.19013
8.08685
7.93672
8.14367
8.19847
7.90267
8.07281
7.95323
8.14064
7.99766
8.10017
8.02064
8.11604
8.19124
8.19125
8.01034
8.08657
7.99243
7.9339
8.11247
8.11925
8.185
8.18815
8.06876
8.07843
7.85725
8.12474
8.03174
7.95015
8.08104
8.10995
8.13131
8.05908
8.07375
8.08863
8.16383
8.13699
8.07739
8.11824
8.03128
8.10592
8.03043
8.19903
7.89948
8.08833
8.1937
8.19145
7.96165
8.08842
8.1543
8.16651
8.12777
7.92003
8.00026
8.11774
7.97445
8.09991
8.19773
8.1903
8.16525
8.19102
8.18526
8.15616
8.13022
8.06374
7.73696
8.19885
8.17273
7.97152
8.0788
8.12772
8.17045
7.97344
8.03249
7.8346
8.11957
8.14378
8.1957
8.04547
8.17571
8.1777
8.11281
8.15002
8.06997
8.02976
7.78519
8.05029
7.97344
8.16991
8.15745
8.18772
8.17313
8.17209
8.02051
8.0204
8.19394
7.99814
8.15588
8.14695
7.99101
8.12314
8.04475
8.11871
7.97784
8.05905
8.16975
8.14727
7.99075
7.94413
8.00512
8.1577
8.18206
7.99538
8.00805
8.07083
8.00579
8.13819
8.18483
8.13299
7.81911
8.12738
8.11048
8.0711
8.10223
8.14262
8.14425
8.15301
8.07457
8.07422
8.06756
8.09015
8.03939
7.98251
8.19888
8.04447
8.17075
8.14739
8.19608
8.03918
7.76196
7.71528
8.08157
8.11936
7.99457
8.09168
7.8286
8.1184
8.09374
8.16407
8.18089
8.17665
8.11252
8.12588
8.05048
7.9641
7.97913
7.9495
8.17887
8.07866
8.15801
7.93206
8.19833
8.01039
8.07041
8.11754
8.07899
8.15046
7.90562
8.18357
8.18912
7.87477
7.99135
8.18228
7.98643
8.16268
8.18817
8.17036
8.18552
7.95318
7.73944
7.97957
7.69559
8.17979
8.04208
8.20013
8.16096
8.17171
8.15693
8.11004
8.07884
8.03938
8.11452
8.17757
8.05428
8.15132
8.0098
8.13679
8.00668
8.18075
8.14692
8.16848
7.9687
8.00994
7.92848
8.07969
8.18888
7.79119
7.89849
8.13011
7.85944
8.13711
8.09823
8.17778
7.93366
7.98107
8.02288
7.94423
7.96242
8.03697
8.11762
8.16542
7.80214
7.7256
8.00553
8.06949
7.93999
8.03289
7.81306
7.86855
8.09813
8.09212
7.89533
7.99082
8.18162
8.14457
8.08901
8.04919
7.81015
8.06627
8.10781
8.1989
8.18174
8.18113
7.84771
8.12264
8.12845
8.0949
7.83934
7.92404
8.05951
7.75508
7.88883
8.19367
7.95238
7.97865
8.07139
8.05131
8.11994
8.08266
8.08824
8.09926
8.15638
8.1478
8.07851
8.17666
7.69664
7.97206
8.18283
8.04857
7.93482
8.06047
7.95239
8.0409
7.98108
7.96657
8.07591
8.16513
7.81945
8.17061
8.10234
8.0198
7.83197
8.01066
8.11956
8.11807
8.02096
8.17106
7.94497
8.12763
8.14704
8.14871
8.14465
7.98114
7.82857
7.89949
8.13755
7.98288
8.03592
8.13753
7.8703
8.03944
8.16421
7.78118
7.95578
7.98005
8.06995
7.99191
8.15816
8.19937
8.05922
7.81457
8.16672
8.01726
8.19616
8.12017
8.03918
7.96196
8.10795
8.16996
8.01831
8.00982
8.02947
8.14325
8.15861
8.06109
7.87462
7.79287
8.1669
7.82861
8.19236
8.02075
7.89835
8.05939
8.12739
7.89675
8.15242
8.00008
7.90962
8.18495
8.08512
7.85757
8.17456
7.82579
7.93526
8.10999
8.19893
8.16918
8.05952
8.13738
8.15918
8.17968
7.96717
8.05421
7.86057
7.87638
8.12528
8.08623
8.09239
7.92423
8.06112
8.0981
8.17699
8.03313
8.02948
7.96812
8.06907
8.12139
7.9367
8.18029
8.06856
8.13837
8.18491
8.09827
8.10435
8.16656
8.06856
8.13975
8.16169
7.88493
8.16402
7.8585
8.1813
7.92519
8.12302
8.17613
8.01288
8.16389
8.13187
8.04007
8.01122
7.93898
8.12078
8.16518
8.16906
8.1781
8.14776
7.88981
7.94605
7.88578
7.95264
8.11336
8.15626
8.00022
7.73775
8.04897
7.97148
8.0098
8.1484
7.9289
7.7334
7.95521
8.12073
8.18947
7.92188
8.181
7.96654
8.14209
8.07207
8.18669
8.0098
7.74341
7.90816
8.18098
8.18996
8.1108
8.16432
8.03701
8.09151
7.81121
7.94436
7.99048
8.00044
8.03971
8.19908
8.0839
8.09746
8.11803
7.84774
7.81112
8.16394
8.17657
7.82512
8.18492
7.82069
8.10965
8.07073
8.19589
7.89898
8.13857
7.76298
8.18107
8.06775
8.03984
8.18607
8.07565
7.61906
7.74252
8.08519
7.92611
8.19374
7.81605
7.73635
7.97269
8.00302
7.86315
7.87629
8.18869
7.8773
8.11064
8.09419
7.98096
8.14992
8.16228
7.93128
7.92472
8.10773
7.7757
8.12979
8.12006
8.09987
7.80551
7.97706
7.9172
8.07937
7.86755
8.14388
8.17046
8.13156
8.13795
8.04898
7.91757
8.15621
8.14476
7.98376
8.1764
8.00982
8.13543
8.02743
8.01983
8.07232
8.09102
8.07393
8.1373
8.12768
8.08462
8.12317
7.78935
7.78478
7.93859
8.15505
8.08894
7.6294
8.05283
8.09906
7.98438
8.16389
8.06006
8.20021
8.18878
8.1598
8.18971
8.13536
8.20072
8.0184
8.11766
8.16435
8.15323
7.93377
7.83528
8.0686
7.82149
8.12816
8.12733
8.18491
8.0531
7.88272
8.06176
8.11013
7.87205
7.95581
8.17287
7.9299
8.19495
7.76411
8.07029
7.85776
8.19378
8.19391
8.00212
8.10037
8.03956
7.8286
8.0714
8.17902
7.991
8.07081
8.0349
7.85268
8.03998
8.05939
7.82894
8.19123
8.00471
8.19127
8
8.00025
7.91857
7.91829
7.83741
7.65016
8.1584
8.08449
8.14744
8.14087
8.00669
8.05802
8.1731
8.14767
7.67932
8.17675
7.90007
7.94549
7.89883
8.18089
8.00988
8.0884
8.13953
7.98522
8.03019
8.14739
8.06861
7.88655
7.99793
7.93333
8.1374
8.15256
8.08165
7.83165
8.19654
8.17776
8.01559
8.01166
8.02932
8.16743
7.96506
8.06875
8.16681
7.87516
7.90398
8.15845
8.12251
8.1287
8.11621
7.89649
8.10349
8.08871
8.19851
8.19183
8.18559
8.17146
7.763
8.16391
8.17662
8.1916
8.03666
8.07865
8.12614
8.0199
7.74344
8.17539
8.18849
7.79524
8.18179
8.10838
8.17378
8.07001
8.04299
7.99083
8.07324
8.17045
8.04712
8.01965
8.10775
8.03153
8.19546
8.04318
7.95377
8.15738
8.13416
7.68713
8.07886
8.03919
8.13414
7.83891
7.8381
8.0106
8.13765
8.11766
8.07943
8.04514
7.96129
8.18739
8.03818
7.95006
8.08362
7.94293
8.17306
7.95593
8.02476
8.18403
7.92383
8.04401
7.95294
8.03084
7.97189
8.0059
8.14693
8.0947
8.03067
7.87767
8.16931
7.88474
8.00911
7.95173
8.10596
7.97074
8.19383
7.86999
8.19739
7.98138
8.10433
7.8362
8.07844
8.14927
8.04505
7.90075
7.9862
8.19397
7.82333
8.19154
7.97017
8.18097
7.96423
8.05026
8.04684
8.19451
8.16474
8.12758
7.7347
8.16468
8.07034
8.14751
8.18675
7.97143
8.09921
8.03833
8.15032
8.05148
8.0982
7.98348
7.81039
7.81937
7.77184
7.80853
8.14691
7.98206
8.04902
8.19764
8.06597
7.98339
7.6788
8.152
7.99742
8.0416
7.64678
8.15195
8.00587
8.12421
7.97789
7.77846
8.18668
8.01259
8.05206
8.10987
8.07273
7.68202
8.16034
8.0005
7.92422
7.98046
7.99077
8.1709
8.14022
8.05174
8.08794
8.04992
7.94188
8.01758
8.08734
8.13722
7.71429
7.80123
8.16944
8.00043
8.18301
8.14988
8.12398
8.19461
8.02949
8.144
8.18834
8.10921
8.04168
7.74989
8.00007
8.13725
8.14045
8.1844
8.19027
7.70493
8.18984
8.07162
7.92649
7.93996
8.124
8.04986
7.898
8.12737
8.14068
8.08819
8.04644
8.19741
8.10112
8.14048
8.06421
8.01554
8.09914
7.99086
8.19427
7.98147
8.11416
7.90941
7.81522
7.90484
7.95568
8.06516
8.19144
8.18128
7.69904
7.71463
8.07066
8.01419
8.17614
7.94492
8.15096
8.1347
8.16394
8.036
8.0874
8.15734
8.15603
8.01393
8.03967
8.16606
8.0784
7.89817
8.1814
8.15624
8.18257
8.18837
8.14624
8.11159
8.17062
7.99072
8.13851
8.01066
8.10946
8.13721
8.11582
8.10386
8.01355
8.15913
8.06697
8.16538
8.05956
7.95323
8.07685
8.10111
8.06771
7.92404
8.02016
8.14561
8.14778
7.83881
8.1522
7.85717
7.98484
8.08041
7.98404
8.19955
8.11298
8.07911
8.15239
8.0826
8.17065
8.00061
8.18092
8.18554
8.02227
8.13948
7.82924
8.14035
8.16447
8.09736
8.04306
8.17232
8.0991
8.19125
8.12134
7.95342
8.19166
7.9868
8.06071
8.05278
8.05876
8.05876
8.1008
8.11753
8.04967
8.08008
8.12736
8.10115
8.10773
7.70601
8.06001
8.17644
8.09278
8.19133
7.98561
8.07044
7.92382
8.16605
8.15333
7.9596
7.997
7.88461
8.10153
8.15441
8.03972
7.89059
8.07196
8.15933
8.13179
8.18545
8.06525
8.0688
8.18451
8.08668
7.94205
8.17139
7.98129
7.78096
8.14715
8.18224
8.19135
7.67848
7.84789
8.05632
7.88713
7.91817
8.19848
8.15759
8.15669
8.10779
7.94292
8.09544
8.04957
8.1769
8.06484
7.99352
7.82435
8.19047
8.06719
8.14308
8.02067
8.19051
8.0342
8.04898
8.06155
8.09395
8.12402
8.19124
8.15668
7.96236
7.99568
8
8.17724
8.12309
8.17055
8.16442
8.08644
8.16325
8.09804
8.16644
8.01968
8.09803
8.13109
8.02498
7.85255
7.93082
8.02225
8.16366
8.06058
7.6842
8.0518
8.17634
8.02079
7.88095
7.94118
7.7537
8.02556
8.01962
8.0654
8.02975
8.00052
7.93221
8.13074
8.19142
8.0889
7.97145
7.96194
8.12297
7.98157
8.04033
8.07784
8.0053
8.04034
7.73334
8.13878
7.6796
8.09063
8.17621
8.1771
7.94287
8.12778
8.09817
8.08243
8.09175
8.05018
7.97133
7.75364
7.75249
8.09423
8.03935
7.80178
7.74441
8.19739
7.76223
7.98048
7.84418
8.13409
8.11782
7.90525
7.86816
8.0155
8.1793
8.09595
8.17308
7.96198
8.06201
8.02242
8.01751
8.20017
8.06875
8.01961
8.12262
8.15063
8.09796
8.07715
8.18243
8.19031
8.05944
8.14392
8.19894
8.13779
8.02149
8.10839
8.00355
8.10806
8.18336
8.11813
8.08815
7.88013
8.01769
7.97496
8.09362
8.11768
8.15417
7.95547
7.95615
8.07918
8.20019
8.16392
8.06909
8.10659
8.17622
8.16564
8.17027
8.15755
8.13719
8.17065
8.18044
7.97143
8.09194
8.06866
8.14707
8.15113
8.14139
8.11997
8.14767
8.07348
7.70032
8.11662
8.08974
7.91493
8.04897
7.76558
8.09972
7.99794
8.17281
8.16015
7.96618
7.91735
7.7728
7.85094
7.73416
8.11908
8.16162
7.76084
8.02217
8.10254
8.05241
8.01235
8.17132
8.05538
8.19377
8.1917
8.04296
7.96239
8.10534
8.148
7.8983
7.67685
8.15611
7.99102
7.83813
8.02322
8.01047
8.18834
7.95338
8.06001
8.16697
7.99667
8.06249
7.8762
7.81924
8.1481
8.17204
8.08356
8.19592
7.98823
8.05839
8.1779
8.13246
8.13827
8.19423
7.97389
7.97376
8.02939
7.98858
7.98149
7.85075
7.9056
8.14256
8.10177
8.1501
8.12967
8.15624
8.09132
8.09912
8.19081
8.05947
8.17714
8.07698
7.93529
8.11623
7.97658
8.04899
8.18264
8.20002
7.99422
8.19245
8.02671
8.04397
7.73712
8.18506
8.02077
8.07857
8.14694
8.17028
8.04933
8.18496
8.06808
7.89105
8.15247
8.07492
8.14899
8.12734
8.09251
7.69134
7.89782
8.0585
8.19995
8.16395
8.1842
8.01978
7.70386
7.95281
8.1741
8.13808
8.14691
7.82045
8.17677
7.90833
7.93386
8.2
8.12829
8.05767
8.1653
8.08717
8.12395
8.04898
8.04563
8.15079
8.04029
8.09254
7.90178
7.84783
8.19124
8.17651
8.11955
8.1711
8.1819
8.14808
7.81927
8.10778
8.06865
7.96399
8.15804
7.94286
7.82902
8.13406
8.19428
7.9696
8.1641
7.998
8.15617
7.82657
8.17674
8.10845
8.08957
7.64869
8.13977
7.98104
8.04131
8.10463
8.14883
8.04016
8.08867
8.18629
8.15678
8.07971
7.96336
8.15768
8.05528
8.18528
8.13767
7.92006
8.05435
7.76544
7.80367
7.88867
7.78331
8.08053
7.96902
8.05541
8.20001
8.12951
8.13009
7.98185
8.2
8.02011
8.07315
8.13716
8.16658
8.01959
8.08582
8.16648
8.16406
7.90509
7.87783
8.10917
8.12531
8.06963
7.98347
8.1372
8.15713
7.98362
8.19137
8.1639
7.91711
8.19456
7.93334
8.19197
7.96209
8.14698
8.19387
8.00765
8.15213
8.17647
8.08169
8.15992
7.99367
8.11484
8.16905
7.88509
8.19368
8.1894
8.12736
8.04799
8.15786
7.9911
8.09401
7.79953
7.98802
8.16099
7.97146
8.19431
8.19923
7.97214
8.18118
7.78201
7.80144
7.99223
7.8584
8.17191
7.83425
7.96316
7.99873
8.19571
8.06865
8.02529
8.19271
8.10818
7.87694
7.98753
8.00149
8.12648
7.96268
7.69848
8.07045
8.07277
8.07428
7.8673
8.00276
8.02943
8.18256
8.14539
8.14135
8.14947
7.69185
8.17621
8.16418
8.07855
8.12041
8.16463
8.01313
8.19583
8.1639
7.94914
8.13151
8.0614
7.80025
7.97273
8.11647
8.19415
8.06099
8.06082
8.10078
8.05891
7.92605
8.07237
8.1574
8.02014
8.12732
7.8477
8.04972
7.70697
8.14402
8.0784
8.07443
8.18092
7.83823
7.95239
8.19895
7.94296
8.07932
7.93374
8.03941
7.99049
8.09883
8.07331
7.88187
8.15361
7.91532
8.14697
8.19569
8.07843
8.10806
8.07002
7.95938
8.11494
7.9812
7.86673
8.15711
8.07887
8.1561
7.94596
8.19389
7.89016
8.19882
8.01087
8.1639
8.17742
8.15623
8.16047
8.13018
7.97268
8.10183
8
8.19235
7.81117
8.14338
7.79049
7.91938
8.19626
7.9352
8.08064
7.95953
7.87464
8.14006
8.04691
7.94014
8.03165
8.02835
7.99684
8.19132
8.15625
7.92385
8.15757
8.12757
7.92698
7.83904
8.10886
8.12673
7.78975
8.11042
8.18896
8.18856
8.17632
8.13402
8.11177
7.88828
8.03807
8.11065
7.75837
8.13752
8.05429
7.92355
8.19157
7.8579
8.14212
7.99176
7.91088
7.8774
8.13571
8.04113
8.17751
8.19571
8.10642
8.14599
7.99048
7.84766
8.12739
8.14054
8.15612
8.19064
8.02994
7.75688
7.96341
7.91395
7.69621
7.88585
7.81444
8.00301
7.98284
8.17192
8.05277
8.1178
8.2
8.05123
8.18835
8.1937
7.90933
7.96634
7.83927
8.00535
8.19653
7.91773
7.793
7.93167
7.8552
8.07429
8.19811
8.11192
7.8413
8.05251
8.13718
8.15868
7.97146
8.08815
8.06969
8.13979
8.09933
8.11893
8.0415
8.16391
7.98186
8.0793
7.95409
7.92726
8.15702
7.97814
8.10655
8.08843
8.11752
7.84069
8.16979
8.0684
8.1967
7.743
8.08883
7.87619
7.86157
7.86125
7.78534
8.05562
8.18628
8.17525
8.02636
8.10019
8.05779
8.09417
8.15996
7.84071
8.16285
8.19378
7.85829
8.11262
8.08854
7.8291
7.99052
7.87846
8.06912
7.9732
8.05222
8.17856
8.10409
8.12149
8.0133
7.96209
8.09778
7.85825
8.0003
8.03843
8.07578
8.13213
8.08086
8.14804
8.1646
7.85476
7.79048
8.06533
8.07251
8.10141
7.87794
8.18504
8.00005
8.13412
8.12007
8.14696
8.0736
8.07946
8.13576
8.16273
7.9256
8.14732
8.03922
8.0596
8.16067
8.18091
8.102
7.99151
8.02066
8.19191
8.17282
7.91296
8.18836
8.19945
8.12085
8.16218
8.1982
8.16569
8.1705
8.0314
7.89868
8.17127
8.04999
8.17078
8.18604
8.00055
7.93612
7.90025
8.19164
8.17626
7.79438
8.07367
8.18893
8.04932
7.77304
8.18137
8.15818
8.1072
8.12835
8.02012
8.17105
8.04815
8.19739
8.18161
8.19227
7.81027
8.17091
7.96575
8.08896
8.1562
8.15959
8.0476
8.12759
8.01232
8.12657
8.17973
8.16788
8.08065
8.15191
7.90285
8.03402
8.11453
8.19129
7.87777
8.17829
7.87014
8.20089
8.10816
8.17623
8.0237
8.17667
8.16385
8.0592
8.10369
7.88869
7.93333
8.17649
8.10276
8.15609
8.05827
7.83923
7.81376
8.10816
8.03927
8.07958
8.10894
8.19131
7.99488
7.96191
7.94478
8.14747
8.1401
8.16189
8.15145
7.92944
7.96043
8.16401
8.03932
8.16615
8.18265
8.09845
8.09409
8.17647
8.19129
8.01255
7.93386
8.04729
8.03942
8.10548
8.15815
7.98097
7.79048
8.01113
8.05166
8.15676
8.0364
8.16499
7.97143
8.19058
7.95271
8.19896
8.0498
8.02114
7.97051
8.06568
8.02965
8.03049
7.87736
7.83844
8.17077
7.90736
7.77154
8.1644
7.90396
8.18002
7.9449
8.14792
8.08616
7.86105
8.06877
8.04618
8.15699
8.05762
7.93446
8.1471
8.16731
8.05145
8.19743
8.10773
8.15622
8.00863
8.13747
8.15975
8.17087
7.95239
7.94019
8.15578
7.99053
8.0037
8.03256
8.16005
8.11755
8.09263
8.09794
8.19946
8.08142
7.73888
8.19435
8.08257
8.00004
8.04903
8.14762
8.1561
7.96863
8.00663
7.98127
8.10799
8.15654
7.74526
8.14692
8.02571
8.14559
8.14081
8.11012
8.10776
8.13868
8.03829
7.64173
8.1276
8.02193
7.90555
8.19369
7.7775
8.17071
8.03876
7.92382
8.17169
7.97931
7.83324
8.06963
7.96345
8.19167
8.10419
8.09958
8.15911
8.14667
7.99574
7.97839
8.11684
8.17082
8.00416
8.05999
7.81141
7.98297
8.08099
8.12746
8.12599
8.06445
8.00286
8.08209
7.98952
8.1767
8.18841
8.1561
8.09799
8.17076
8.15453
8.12881
8.049
8.04794
8.11006
8.18095
7.95391
8.12245
8.13144
8.1337
8.06383
7.9365
8.05218
8.03949
8.07915
8.05897
7.68717
7.64222
8.08138
7.98054
8.01714
7.74221
7.95222
8.18435
8.05591
8.15855
8.14799
7.88925
8.17045
8.10816
8.0705
7.957
8.15715
8.12904
8.16464
7.90296
7.943
8.16998
8.13966
8.09442
8.00237
8.17229
8.10269
8.14072
7.92788
8.12813
8.08942
8.17417
8.13296
8.16953
8.16716
7.9729
8.12724
8.01966
8.19025
7.95768
7.98263
8.02281
8.01033
8.00092
8.02975
8.12744
8.14177
8.04035
8.15969
8.17794
8.16865
8.16077
8.17054
7.96899
8.00197
8.18877
8.11778
8.18943
8.08858
7.98489
8.00002
8.11752
8.03922
8.10888
7.90299
8.1244
8.06261
8.1646
8.01813
7.64821
7.86965
7.92176
7.80026
8.19063
8.17278
8.15829
8.04723
7.93635
8.04937
7.86667
8.09297
8.10821
8.11944
8.11331
8.07807
8.03143
8.12789
7.9732
8.1471
8.07208
8.16884
8.12994
8.13738
8.08139
8.16758
8.04902
8.06226
8.15819
7.88971
8.19928
7.98314
8.19217
7.73431
8.17034
8.10997
7.78191
8.18211
7.90483
8.10132
8.12418
8.15067
7.91986
8.07823
8.06858
8.16416
8.13455
8.18953
8.12582
8.00803
7.93091
8.03452
8.1855
7.92237
8.11885
8.15787
7.89534
7.85836
8.12004
7.74398
7.8213
7.97985
8.15066
8.17174
8.18106
8.0863
8.02941
8.12796
7.66077
8.12008
8.15925
7.991
8.06929
8.09108
8.16967
8.15839
8.14691
7.83812
8.16315
8.19178
8.13783
8.13046
8.14199
8.04784
7.86915
7.8803
8.15322
8.2007
8.13133
8.15176
8.14721
8.16903
8.19881
7.89686
8.07841
7.88683
8.0675
7.94288
8.17451
7.9435
8.14721
7.69674
8.05051
8.17631
7.97317
8.17628
8.11797
7.92558
8.04779
8.17686
7.99838
8.10745
8.17092
8.11092
7.90556
8.196
7.82675
7.8865
8.1977
7.93868
8.02055
7.97216
8.08895
8.15929
8.00979
7.93781
8.12371
8.07974
8.11627
7.85552
8.08319
8.07838
8.01408
7.91474
8.04903
7.83776
8.13693
7.94768
8.19798
7.93689
8.16251
8.1572
8.17068
8.00096
7.99334
8.20001
8.15685
7.97197
7.87619
8.11952
8.05282
8.13902
8.08847
7.94752
7.80016
8.19134
8.04991
7.82111
8.09848
8.18445
8.06519
7.95275
7.97519
8.05099
7.98155
8.00842
7.95247
8.16013
8.00046
7.91429
8.15429
8.0802
8.17546
7.74426
8.09808
8.16498
8.04178
7.9708
8.03002
7.91456
8.03892
7.75705
8.08111
8.18379
8.15645
8.10845
7.78293
7.91815
8.04928
8.18272
8.13183
7.96474
7.89273
7.9947
8.19739
8.11447
8.02939
8.11465
7.95266
7.81564
8.15469
8.06129
7.84931
8.17419
7.86809
8.1652
8.0022
7.89641
8.05886
8.06004
8.16622
8.19343
7.64835
7.71453
7.97764
8.07886
8.02081
7.83533
8.04879
7.61913
8.05153
8.18906
8.10258
8.03963
8.19782
8.1778
7.72458
7.94684
7.93131
8.18866
8.09711
8.06113
8.03917
7.99252
7.84788
7.96344
8.08874
8.19134
8.14901
8.07847
8.04019
8.08648
8.13773
8.06192
8.12024
7.81923
8.17416
7.96126
8.06057
8.06146
7.90526
7.78143
8.1084
8.11518
8.16184
8.02221
8.08839
8.1974
8.12261
8.15589
8.1004
8.10077
8.13274
7.89393
7.99127
8.11666
7.96613
8.16652
7.85937
8.18843
8.18991
7.91918
7.98261
8.13639
8.19365
8.18151
7.88685
8.13111
8.13755
7.71515
8.03934
8.02274
8.1672
8.1806
7.95255
8.10156
7.88576
8.00019
8.17234
8.19744
8.16241
8.11615
8.06004
8.14702
7.84917
8.15724
7.75978
8.1204
7.95403
8.01086
8.10833
7.76233
8.18134
7.77266
7.97179
8.10587
8.1325
8.13003
8.06858
8.1941
8.18222
7.92994
8.12549
8.15153
8.15264
8.16729
8.10774
7.91443
7.82907
8.0828
7.85328
8.20031
8.02133
8.14827
8.08652
8.01058
8.18285
8.19204
8.02943
8.19156
8.08861
8.12941
8.03918
8.17135
7.94811
8.18438
7.71626
8.07503
7.89861
8.03387
8.16411
8.19743
7.83199
8.09082
8.13007
8.16445
8.05399
8.11964
7.8748
8.18541
8.19308
8.10182
8.18703
8.1168
7.90575
8.02938
7.99185
8.13713
8.15045
8.01967
8.18187
7.82788
8.16665
8.04091
7.63858
8.18741
7.88581
8.19194
8.12631
8.11472
7.9741
8.15617
8.18258
8.13322
8.09054
8.00799
8.01073
8.05357
8.16495
8.03026
7.93446
8.07327
8.19749
7.89583
7.81441
8.11543
8.16753
8.18447
7.9925
8.01949
8.01046
8.10674
7.78825
7.65771
8.08548
8.07008
7.89535
8.06926
7.86761
7.72433
8.05877
8.18502
8.16519
8.16834
8.19631
7.80028
8.00372
8.14001
7.91449
8.1762
8.07908
7.78299
8.10822
8.17611
7.89404
8.15622
7.9152
7.91531
8.0588
7.93501
8.13319
8.14773
8.00622
8.05333
8.0742
8.12734
8.08815
8.19409
8.11032
8.15641
8.11181
8.01052
7.85891
8.00121
8.05232
8.15364
8.1376
8.14932
7.9833
7.97166
8.16399
8.10812
7.96271
8.16391
8.18097
8.09406
8.18177
8.19599
7.96354
8.02202
8.06648
7.94419
8.19492
7.85828
8.02525
7.98128
7.78095
7.87047
8.16721
7.92868
8.06869
8.02093
8.06233
7.9489
7.92569
8.11787
8.08238
8.15363
8.13101
8.1437
8.02949
8.10222
7.96192
8.13872
8.01945
7.93632
8.0006
7.75483
8.15437
8.1995
8.17831
7.80232
8.00645
8.08965
8.09839
8.09292
7.90487
8.04088
8.13917
7.86122
7.88771
7.97253
7.91522
8.07505
8.10408
8.19209
8.14643
7.95445
7.87113
8.16924
8.19746
8.06275
8.16791
8.05185
8.14881
8.00915
8.11937
8.18963
7.9426
8.00053
8.12379
7.90732
7.88596
8.18123
8.11981
8.1241
8.16496
8.14768
8.14486
8.0392
8.04435
8.1457
8.09792
8.19159
8.15439
8.11753
8.11301
8.19291
7.94969
7.89528
7.72515
7.94287
7.74166
8.03504
7.93391
8.08914
8.17647
8.0683
8.16554
8.1909
8.18303
8.13711
8.15619
8.02942
7.85636
8.06087
8.06773
8.13277
7.96799
8.08878
7.88574
8.17177
8.06072
7.98805
7.9221
8.03302
7.94071
7.98278
8.15717
8.07838
7.86833
8.16396
8.19739
8.0232
8.04387
7.72276
8.05118
8.1181
8.12235
8.07137
8.07854
7.78222
8.17152
8.14944
7.82874
7.97143
8.01375
8.11773
8.18549
8.13713
8.10776
8.11664
8.16477
7.87893
7.90768
8.07844
8.155
8.05878
7.93434
8.15778
8.1914
7.90476
8.04916
7.92345
8.14867
8.10543
8.18491
8.05106
7.89535
8.2001
7.88624
8.06024
8.16869
8.10818
7.77899
7.94955
8.1622
7.7921
8.15494
7.9716
8.1749
7.7082
8.08011
8.00006
8.12893
8.03001
8.14055
8.04014
8.02598
8.033
8.1971
8.16233
8.04583
8.14462
8.16887
8.04294
7.94016
8.02581
8.09539
7.99308
8.1825
8.19665
8.04036
8.15156
8.17781
8.1278
8.17056
8.10855
7.9318
8.1575
7.7735
7.97588
7.69968
7.67548
8.07836
8.18098
8.13071
8.13328
8.09047
8.16507
8.08707
8.06254
7.8191
8.12397
8.03261
7.90502
7.64001
8.09287
8.0407
8.16392
8.09294
8.03919
8.07925
8.14437
8.14126
7.98129
8.10091
8.17613
8.02049
8.19828
7.91518
7.8131
7.83361
7.77911
8.05041
7.73417
7.84752
8.15597
7.89608
8.16888
7.90747
7.97393
7.85715
8.16511
8.07056
8.14279
8.12965
8.19406
8.16692
7.97076
7.81913
8.12735
7.94991
8.19369
7.90498
8.11783
8.07713
8.19884
8.18153
8.03032
8.19547
8.17758
7.81717
8.14554
7.91431
7.89249
8.11805
8.05376
7.92761
7.77354
7.91018
7.94681
8.03522
7.80117
8.069
8.13712
7.8193
8.10833
8.20009
7.88824
8.15896
8.08553
8.18154
8.0893
8.18806
7.99423
7.95425
8.10693
8.13754
8.00231
8.06209
8.10998
8.14731
8.02127
8.0895
8.10794
8.10345
8.02805
8.10865
8.17148
8.08823
8.17643
7.96566
8.12045
8.00615
8.14703
8.08425
7.86703
8.00008
8.15092
8.03019
8.06121
8.17834
8.11857
7.8371
8.1442
8.16167
8.09817
8.17096
8.16578
8.04853
8.09081
7.63184
8.02592
8.17056
8.11527
7.82973
8.05599
8.14409
8.11088
7.9544
8.19166
7.82862
8.19365
8.03419
8.17614
7.95446
8.17617
7.7678
7.85376
8.08814
8.13713
8.10801
8.18129
8.12735
8.18839
8.04899
8.06728
7.94292
8.17745
8.05637
7.78541
8.19367
7.92936
7.92799
8.19208
8.18659
8.10812
8.17739
8.17105
8.13541
8.19988
8.05878
7.8762
7.88572
8.05927
8.12999
7.994
8.07963
8.04849
8.02156
8.03958
8.04361
8.00872
7.98352
8.15804
7.9829
7.77709
8.02305
7.95498
8.0665
7.77202
7.82928
8.01341
8.19921
8.04523
8.04929
8.19935
7.7716
8.17045
8.18554
7.99557
8.16437
7.86674
8.02952
8.05879
7.83407
8.07268
7.95325
8.17688
8.09948
7.99052
8.18959
8.17697
8.01154
8.13759
8.11754
8.15756
8.13104
7.98354
8.17906
8.0686
8.10938
8.00154
8.13742
7.8023
8.04017
7.86293
7.9823
7.84941
8.1662
7.92512
7.71456
7.92427
7.94573
8.0205
7.99331
8.19526
8.12862
8.05876
8.17853
7.98231
7.981
7.70602
7.96386
7.90042
8.00752
7.82952
7.70417
8.09829
8.11983
8.1885
7.99912
8.0978
8.19125
7.94828
8.19594
7.93752
7.94332
7.92165
8.1962
7.86349
8.18762
8.16422
8.14007
7.92397
7.9895
7.63277
8.11067
7.86554
8.09805
8.08496
8.08939
7.76838
8.14026
8.15642
8.1088
8.01237
8.00984
8.03934
8.17663
8.16459
8.03521
8.19131
8.14863
8.08847
7.93398
8.0694
8.04345
7.84966
8.0301
7.96215
8.17627
8.15062
8.19155
8.18153
8.16217
8.0766
8.10777
8.12706
8.00749
7.98208
8.20016
8.10085
8.08366
8.03171
8.13042
8.16708
7.8517
8.16413
8.16831
8.04595
8.09653
7.92403
8.14276
8.05971
8.19365
8.07175
8.15762
7.71864
7.7675
7.74054
8.07836
7.89208
7.7977
7.98785
7.62637
8.09816
8.01105
8.12877
8.1473
8.19745
8.13054
7.84526
7.69167
8.10797
7.72734
7.68009
7.56
7.49193
7.84295
7.31694
8.17696
8.19395
8.20102
8.17658
7.87413
7.91009
7.82419
7.89533
8.19153
8.17822
8.06567
8.1884
7.72643
7.8727
8.00475
7.72863
8.08994
8.1254
8.18149
7.7108
7.9086
7.90392
7.8339
8.13711
7.51428
7.88304
8.14879
7.46077
8.19948
7.31234
7.92815
7.67623
7.76882
7.89959
7.29367
8.1089
8.08466
8.04903
7.8765
7.40454
7.90571
7.44769
7.93119
8.17063
8.0498
8.02801
8.16597
7.54118
8.0422
8.06466
7.56294
7.33198
7.67356
8.19772
7.32031
8.17836
7.29524
8.17617
8.17111
7.5448
7.66671
7.32257
7.81708
7.88254
8.06859
7.68956
7.44891
7.70935
7.82903
7.37859
8.19142
7.89786
7.6956
7.44062
8.17679
7.84421
8.19467
7.44003
7.85254
7.64412
7.43682
8.17096
7.65161
7.48108
7.96284
7.80082
8.18553
7.896
7.93762
7.45745
8.15285
7.47187
7.53003
7.37346
8.18346
7.41099
7.60755
7.71218
8.11078
7.52311
7.98731
7.73499
7.40857
7.44238
7.78294
7.74889
7.64124
7.77942
7.35075
7.36043
7.56982
)


// ************************************************************************* //
