/*--------------------------------*- C++ -*----------------------------------*\
| =========                 |                                                 |
| \\      /  F ield         | OpenFOAM: The Open Source CFD Toolbox           |
|  \\    /   O peration     | Version:  plus.master.MPPICInterFoam            |
|   \\  /    A nd           | Web:      www.OpenFOAM.com                      |
|    \\/     M anipulation  |                                                 |
\*---------------------------------------------------------------------------*/
FoamFile
{
    version     2.0;
    format      ascii;
    class       vectorField;
    location    "7/lagrangian/kinematicCloud";
    object      U;
}
// * * * * * * * * * * * * * * * * * * * * * * * * * * * * * * * * * * * * * //


2974
(
(0.00431876 0.000633219 -0.0372394)
(0.00568081 -0.000774067 -0.0388383)
(0.00369479 0.0031448 -0.0389074)
(0.00371558 0.00312334 -0.0385749)
(0.00394555 0.000512304 -0.0341585)
(0.0112502 0.00023077 -0.0372508)
(0.000828603 0.0012374 -0.039276)
(0.00126298 0.00182912 -0.0356726)
(0.00125657 0.00201529 -0.0394518)
(0.00451721 0.00067183 -0.035121)
(0.00366067 0.0019499 -0.0346239)
(0.00237752 0.00256518 -0.0382807)
(0.00370111 0.00296513 -0.0387715)
(0.00118871 0.00182313 -0.0412994)
(0.00367344 0.00287692 -0.0359684)
(0.0113251 0.000390016 -0.0377848)
(0.00368588 0.00295396 -0.0388409)
(0.00400871 0.00250991 -0.0402247)
(0.00136473 0.00191615 -0.0422417)
(0.00109438 0.00179076 -0.0412103)
(0.00918907 -7.19978e-05 -0.0421036)
(0.00369095 0.00295785 -0.0393206)
(0.00924793 -0.000234841 -0.0409327)
(0.00333978 0.0024965 -0.0335698)
(0.00361667 0.00308064 -0.03979)
(0.00137251 0.00172628 -0.0426893)
(0.00366532 0.00299921 -0.0410975)
(0.00119132 0.00180047 -0.0425251)
(0.00367061 0.00300102 -0.0406048)
(0.00333525 0.00252288 -0.0345689)
(0.00363689 0.00213638 -0.0330904)
(0.00341131 0.00305363 -0.0395904)
(0.0014809 0.00177001 -0.0364604)
(0.00932584 -0.000171665 -0.0406112)
(0.00237025 0.00308477 -0.039781)
(0.00366439 0.00301977 -0.0410634)
(0.00365367 0.00314006 -0.0412371)
(0.00128456 0.00190906 -0.0428445)
(0.00360435 0.0029307 -0.0392208)
(0.00360351 0.00304552 -0.0410752)
(0.0046868 0.00070932 -0.0357761)
(0.00646699 -0.000972419 -0.0407969)
(0.0012017 0.00175098 -0.0429251)
(0.0042455 0.000881168 -0.0398992)
(0.00511271 -0.000247626 -0.0353759)
(0.0035139 0.00304658 -0.040195)
(0.0034963 0.00188553 -0.0370119)
(0.00937186 -0.000151096 -0.0411914)
(0.00324696 0.00267848 -0.0368035)
(0.00464944 0.000559717 -0.0346403)
(0.00927619 0.000505546 -0.0399231)
(0.0132698 0.000443823 -0.0387473)
(0.00375532 0.00177574 -0.0360374)
(0.0056307 -0.000230977 -0.0361939)
(0.00350296 0.00320213 -0.0390159)
(0.00389992 -7.3571e-05 -0.0359509)
(0.00374299 0.00288318 -0.0409978)
(0.00562665 -0.000109852 -0.0362509)
(0.00376265 0.00286979 -0.04059)
(0.00951569 -0.000274135 -0.0409251)
(0.00562979 -0.000305802 -0.0369166)
(0.00240612 0.002569 -0.0389786)
(0.0124603 0.000330146 -0.0390205)
(0.00580542 0.000158067 -0.0388083)
(0.00971272 -0.000701784 -0.0404971)
(0.00363244 0.00294059 -0.0394399)
(0.00908547 0.000360385 -0.037078)
(0.00536965 0.00064911 -0.0316849)
(0.00379222 0.00292397 -0.0400862)
(0.00982668 -0.00093271 -0.0405903)
(0.00439082 0.000672494 -0.0406687)
(0.0058491 -0.000244203 -0.0386611)
(0.00396133 -0.00087304 -0.0352278)
(0.00982346 -0.00094382 -0.0401803)
(0.00557935 -0.00100723 -0.0418187)
(0.00555363 -0.00114204 -0.0421075)
(0.00630845 0.00387063 -0.0315243)
(0.00569087 -0.000390019 -0.0393234)
(0.00389134 -0.000806006 -0.0355137)
(0.00378073 -0.000103756 -0.0364676)
(0.00468121 -0.000194165 -0.0371332)
(0.00110395 0.00204175 -0.040602)
(0.00367066 -0.000339141 -0.0338189)
(0.00383345 -0.000730605 -0.0356615)
(0.00333541 0.00279698 -0.0373288)
(0.00579 -0.000419725 -0.0390421)
(0.00413774 0.00142917 -0.0319789)
(0.00403101 -0.000297213 -0.0376236)
(0.00461581 0.00045536 -0.033298)
(0.00446977 0.000693645 -0.0410524)
(0.00414781 0.00142078 -0.0326054)
(0.00404144 0.00115412 -0.0336576)
(0.00608479 0.000819177 -0.0299881)
(0.00396342 -0.00034597 -0.0365245)
(0.00401998 0.00133337 -0.0346252)
(0.0041007 0.00116768 -0.0346112)
(0.00401458 -0.000887645 -0.0362354)
(0.00711544 -0.000836173 -0.041593)
(-0.00411206 0.000115821 -0.0455137)
(0.00378029 -0.000817785 -0.0357755)
(0.00404477 0.00109316 -0.0339629)
(0.00943778 -0.00026469 -0.037424)
(0.00586924 8.31157e-05 -0.0393374)
(0.00430572 0.000636831 -0.0349497)
(0.00398886 0.00107376 -0.0350041)
(0.0090643 -2.62131e-05 -0.0371544)
(0.00587358 -0.000387884 -0.0391972)
(0.00602721 -0.000963352 -0.0417922)
(-0.00644534 0.000795666 -0.042753)
(-0.00478327 0.000344291 -0.0458018)
(-0.00415516 1.11527e-05 -0.0456978)
(0.00394766 -0.000656498 -0.0364466)
(0.00364056 0.00187651 -0.0354447)
(0.00401309 0.000783473 -0.0364135)
(-0.0169018 0.00126108 -0.0395636)
(0.00450432 -4.82167e-05 -0.0393792)
(0.00401596 0.00118892 -0.0357133)
(0.00143722 0.00180479 -0.0394237)
(0.000453094 0.000559694 -0.0391654)
(0.00434699 0.000701596 -0.0347773)
(0.00985634 -0.000384986 -0.0392881)
(-0.00344865 0.00125538 -0.0479157)
(-0.00344422 0.001234 -0.0479713)
(0.00398052 -0.000869365 -0.0367011)
(0.00431106 0.000665879 -0.039998)
(0.000836329 0.00133486 -0.0395692)
(-0.00628756 0.000942073 -0.0448707)
(-0.00628046 0.00102058 -0.0446373)
(0.00291865 0.00185731 -0.0290339)
(0.0031073 0.00228496 -0.0336025)
(0.00362147 0.00181895 -0.0346125)
(0.00371759 -0.000218449 -0.035124)
(0.00414611 0.000973543 -0.0342674)
(0.00379887 0.00196869 -0.0375357)
(-0.00646238 0.000844799 -0.0448589)
(0.0038661 0.00169291 -0.034596)
(0.00406303 0.00149181 -0.0349406)
(0.00999787 -0.000546651 -0.0405658)
(0.00988333 -0.000266624 -0.0403142)
(0.00400345 0.000612688 -0.0372609)
(-0.00357878 0.000437676 -0.0436338)
(-0.00528177 0.00262795 -0.0372725)
(-0.00740537 0.000841439 -0.0442228)
(0.0038525 -0.00257386 -0.032389)
(0.0039705 0.00114912 -0.0360776)
(0.00399244 0.000312646 -0.0357512)
(0.00412522 0.000702276 -0.0340876)
(0.00400254 0.000690742 -0.0368902)
(0.00422053 -0.000944581 -0.0364308)
(-0.00454347 0.000607363 -0.0491345)
(-0.0049354 0.000120159 -0.0489399)
(0.00405531 -0.00153626 -0.0347934)
(0.00404377 0.000728319 -0.0364448)
(0.00357986 0.00269384 -0.036793)
(0.00444862 0.000696887 -0.0396246)
(-0.00773511 0.000883015 -0.0444567)
(-0.00754287 0.000774214 -0.0440692)
(-0.00344421 0.00118763 -0.047689)
(0.00397473 -0.000667469 -0.0362429)
(0.00365948 -0.00103875 -0.0346674)
(0.00993895 -0.000443102 -0.0402494)
(0.00408892 0.000664612 -0.037878)
(0.00487668 8.8852e-06 -0.0393431)
(-0.0105026 -0.000233111 -0.0443742)
(-0.00619229 0.00122399 -0.0449417)
(-0.00739988 0.000901572 -0.0428643)
(0.00363625 -0.00101897 -0.0334952)
(0.00389879 -0.00117665 -0.0347423)
(0.00380412 -0.000806323 -0.0359098)
(0.0036308 0.00320828 -0.0390818)
(0.00399285 -0.000134531 -0.0370828)
(0.00593485 3.58121e-06 -0.0385718)
(-0.00667078 0.000400751 -0.042666)
(0.00996568 -0.000451519 -0.0399999)
(0.00365911 0.00211076 -0.03572)
(0.00454439 0.000659578 -0.039842)
(-0.00290307 0.00114258 -0.0369492)
(-0.00646794 -0.00115786 -0.043966)
(0.00303539 0.00320724 -0.0334347)
(0.00368964 0.000815431 -0.0317764)
(0.00397958 -0.00167272 -0.0353619)
(0.00414572 0.000518508 -0.038235)
(0.00996813 -0.000415638 -0.0399934)
(0.00407732 0.000531173 -0.0369534)
(0.00504903 0.000833572 -0.0312189)
(-0.00554191 -0.00138269 -0.0438912)
(0.00368397 -0.000319065 -0.0332172)
(0.00458357 -0.000107085 -0.0394474)
(0.00394113 0.00211135 -0.0376871)
(0.00595526 3.00119e-05 -0.0385972)
(-0.00658374 0.00107283 -0.0472805)
(0.00316969 0.00266476 -0.033828)
(0.00361152 -0.000451664 -0.0324136)
(-0.00330727 0.000731314 -0.0423281)
(-0.00340472 0.00127251 -0.047779)
(0.00390354 -0.000541773 -0.0341458)
(0.00635331 0.00434478 -0.0330763)
(0.00331345 0.00134612 -0.0274483)
(0.00382874 -0.000577617 -0.0332974)
(0.00359321 0.000756736 -0.0315505)
(0.00418586 0.0011274 -0.035861)
(0.00377083 0.00262607 -0.0345496)
(0.00596574 0.000942362 -0.0301884)
(0.00398266 -0.000401613 -0.0358023)
(0.00402497 0.00106266 -0.0357352)
(0.00382327 0.00185976 -0.0350756)
(0.00441782 0.000784605 -0.0391147)
(0.00416073 0.000437194 -0.0376652)
(0.00344609 0.00294496 -0.0363468)
(0.00348752 0.00279033 -0.0358098)
(-0.00294811 0.000994985 -0.0372911)
(-0.00629775 -0.00145362 -0.0437185)
(-0.00654186 0.00107273 -0.0467108)
(-0.00842552 0.00100724 -0.0453988)
(-0.00344722 0.00120209 -0.0474571)
(0.00420662 0.00583936 -0.0320876)
(0.00601888 0.000936918 -0.030274)
(0.0044728 0.000461423 -0.0386979)
(0.00352822 0.00308237 -0.0366876)
(-0.0111623 -0.000279611 -0.0408543)
(0.00372515 0.00481196 -0.0322208)
(0.00628207 0.00102959 -0.0292787)
(0.00531517 0.000806412 -0.0333563)
(0.00425541 7.90844e-05 -0.0374604)
(0.00378858 0.00261196 -0.0346773)
(0.00301594 0.0023962 -0.0315236)
(0.00406419 0.00101356 -0.0349091)
(0.00387744 0.00201527 -0.0359646)
(0.0034716 0.00289349 -0.0356604)
(0.00433879 0.000733465 -0.0389269)
(0.00419795 -0.000898664 -0.0359362)
(-0.0115145 -0.000144586 -0.0456648)
(-0.0062739 2.8301e-05 -0.0441405)
(-0.00341196 0.0013045 -0.0474763)
(0.00598065 0.000842695 -0.0347732)
(0.00424994 0.001267 -0.0352687)
(0.00425478 0.000617705 -0.0388588)
(0.00368301 0.00276485 -0.0361807)
(0.00402879 0.0021876 -0.0367985)
(-0.0106929 -0.000288687 -0.0394477)
(-0.00522933 -0.00174658 -0.0452944)
(-0.00337787 0.00145079 -0.0483299)
(0.00406702 -0.000750976 -0.0333554)
(0.0044235 0.000378072 -0.0381726)
(0.00425033 0.00152903 -0.0349197)
(0.00405532 -0.000532993 -0.0343987)
(0.00529088 0.000643589 -0.0328155)
(-0.00413874 0.00104636 -0.0366369)
(-0.0036387 -0.000722377 -0.0442211)
(-0.0190195 0.00114821 -0.0423601)
(-0.00342008 0.00142378 -0.0477689)
(0.00413954 -0.00170044 -0.0349843)
(0.00410709 0.000385691 -0.0360166)
(-0.00728882 -0.00126929 -0.0450109)
(-0.00434546 0.000206659 -0.0472424)
(0.00443582 0.000730609 -0.0338394)
(0.00389876 -0.00129407 -0.0331047)
(0.0042743 0.000626673 -0.0373518)
(0.0043438 0.000560166 -0.0380012)
(0.00433912 0.000482144 -0.0380704)
(-0.0110689 -9.10074e-05 -0.0447706)
(-0.00340524 0.00143477 -0.0475352)
(0.00348393 0.00254243 -0.0342965)
(0.00403249 0.00075971 -0.0383838)
(-0.00332007 0.000798534 -0.0435821)
(-0.00464585 -0.00192351 -0.0454391)
(-0.00660573 0.00058114 -0.0461468)
(-0.00355057 0.000454606 -0.047185)
(0.00675197 0.00373136 -0.0322867)
(0.00924622 0.00619098 -0.0306773)
(-0.0076334 -0.00129352 -0.0441777)
(-0.00464063 0.000418805 -0.0446125)
(-0.00521244 -0.00168492 -0.0457566)
(-0.00327679 0.000257027 -0.0458912)
(0.0040474 -0.000306061 -0.0355725)
(0.00434533 0.000592109 -0.0376417)
(0.00407295 -0.00021879 -0.0357038)
(0.00423482 -0.000246569 -0.0372174)
(-0.00387963 0.000865437 -0.0367365)
(-0.00443716 -0.00191394 -0.0458872)
(0.00354166 0.00453589 -0.0315243)
(0.00388528 0.00191744 -0.0349965)
(0.0044444 0.000697282 -0.0381287)
(-0.00637319 0.000344167 -0.0458468)
(0.0061506 0.00393637 -0.0343898)
(-0.00334969 0.00087854 -0.0441206)
(-0.00344476 0.00123838 -0.0473008)
(0.00391346 0.0060025 -0.0311138)
(0.00297738 0.00347935 -0.0318844)
(0.00420251 -0.00084588 -0.0356936)
(-0.0030864 0.000764146 -0.0366769)
(-0.00441597 -0.00200186 -0.0457343)
(0.00357623 0.000206589 -0.0287461)
(0.0063222 0.00410823 -0.0339553)
(-0.00344531 0.00078142 -0.0369828)
(0.004557 0.000118288 -0.0441138)
(0.00456438 0.000139191 -0.0446795)
(-0.00558299 0.0025473 -0.0395688)
(-0.00342197 0.00143221 -0.0474492)
(-0.00337191 0.000931022 -0.0446653)
(-0.00331087 0.00122354 -0.045311)
(-0.00330084 0.000889766 -0.0432102)
(-0.00342415 0.000473713 -0.046662)
(0.00415182 0.000509776 -0.0355982)
(-0.0112995 -0.000506719 -0.0432881)
(-0.00339502 0.00100855 -0.0459325)
(-0.0117995 -0.000296001 -0.0418547)
(-0.00345255 0.000602499 -0.0464233)
(0.00402299 -0.00128055 -0.0338958)
(0.00346405 0.00423098 -0.031431)
(-0.00340755 0.000896049 -0.0445153)
(-0.00337442 0.00096111 -0.044553)
(-0.00348058 0.00162104 -0.045979)
(0.00336868 0.00180782 -0.0264593)
(0.00311779 0.00198536 -0.028759)
(0.00292064 0.00230548 -0.0292115)
(0.00391951 -0.00136684 -0.0324787)
(0.00390162 -0.00249028 -0.0352829)
(-0.00296358 0.00167371 -0.0366576)
(0.00445482 0.000533641 -0.0376281)
(-0.00305889 0.000898541 -0.0398831)
(0.00452136 2.70603e-05 -0.0455269)
(-0.00339374 0.000980581 -0.0448122)
(-0.00898346 -0.00111068 -0.0441821)
(-0.00329746 0.00158307 -0.046705)
(-0.0033475 0.00102998 -0.0440254)
(-0.00350217 0.0016094 -0.0460376)
(0.00378719 0.00590561 -0.0295591)
(0.00424804 0.000295817 -0.0348512)
(0.00542356 0.000267128 -0.0332803)
(0.00419271 -0.000236693 -0.0351636)
(0.00384323 0.00616144 -0.0318798)
(-0.00304895 0.000959959 -0.0366757)
(-0.00312701 0.000825819 -0.0401229)
(-0.00303302 0.000977442 -0.0405752)
(-0.00705934 0.000413911 -0.0411205)
(-0.011911 -0.000427518 -0.0429863)
(-0.00338506 0.000779911 -0.0438623)
(-0.00595325 -0.001685 -0.0453434)
(-0.00342982 0.000814888 -0.0440828)
(-0.00340649 0.000989129 -0.0451135)
(-0.0119339 -0.000466122 -0.0422319)
(-0.0118907 -0.000374018 -0.0422255)
(-0.00338576 0.000865083 -0.0440172)
(0.0037281 3.35655e-05 -0.028696)
(0.00391495 0.00609524 -0.0314166)
(0.00442911 0.000357009 -0.0369107)
(0.00449933 3.32141e-05 -0.0394399)
(-0.00500648 0.00110799 -0.036115)
(-0.00304251 0.00110159 -0.0406364)
(-0.0119789 -0.00046204 -0.0423813)
(-0.00694078 -0.00146539 -0.0451687)
(-0.0033964 0.000687737 -0.0437853)
(-0.00329517 0.00146131 -0.046247)
(-0.0119662 -0.000415644 -0.0427229)
(-0.0033463 0.000295451 -0.0443316)
(0.00319141 0.00267796 -0.03198)
(0.00415425 0.000111048 -0.027531)
(0.00417652 0.00113619 -0.033927)
(-0.00806565 -0.00122231 -0.0449237)
(-0.00338374 0.00104319 -0.0459167)
(-0.00925858 -0.000970871 -0.0444751)
(0.00351791 0.00250365 -0.0328392)
(0.00379 -0.00177532 -0.0327779)
(0.00328419 0.00229155 -0.0311706)
(0.0065762 0.00406642 -0.0315445)
(0.00393692 0.00520567 -0.0307151)
(0.00232953 5.60363e-05 -0.0380886)
(-0.0031008 0.000895891 -0.0366996)
(-0.00305594 0.00100576 -0.0412791)
(-0.0116995 -0.000444725 -0.0421733)
(0.004133 -0.00204364 -0.0357614)
(0.00404761 0.000946192 -0.0328601)
(0.00449123 0.00123204 -0.0341188)
(-0.00317077 0.00074643 -0.0366163)
(-0.00362747 0.00107261 -0.0407608)
(-0.00341055 0.000633944 -0.0436365)
(0.00338634 0.00123933 -0.0258027)
(0.00393502 0.000874772 -0.0322042)
(-0.00304405 0.000837398 -0.0391888)
(-0.0034393 0.000969948 -0.045381)
(-0.0119058 -0.000198234 -0.042943)
(0.00435009 0.000746506 -0.0322634)
(0.00388422 -0.000915121 -0.0320156)
(0.0039149 -0.000605194 -0.0333857)
(0.00414398 -0.00103396 -0.0347332)
(0.00380664 -0.0033264 -0.0380776)
(0.00452393 0.000181388 -0.046282)
(0.00449922 8.95742e-05 -0.0461354)
(-0.0034504 0.00130443 -0.0487575)
(0.00544188 0.000780178 -0.0314025)
(0.00335291 0.00238711 -0.0315999)
(0.00430502 -0.000137751 -0.0364066)
(0.00452707 6.67995e-05 -0.0401038)
(-0.00305651 0.00123791 -0.0413614)
(-0.0121713 -0.000414505 -0.0434313)
(-0.00511787 -0.00195032 -0.0460138)
(-0.00343914 0.000528205 -0.0465413)
(0.00353676 0.00457001 -0.0280638)
(0.00361054 -0.00355447 -0.0365808)
(0.00449479 -4.75074e-05 -0.0422727)
(-0.00343692 0.000407739 -0.0432025)
(-0.00669836 -0.00176919 -0.0455126)
(-0.00292665 0.00112353 -0.0399715)
(-0.00303199 0.00125461 -0.0410732)
(-0.0034738 0.00046993 -0.046043)
(-0.0034847 0.000642095 -0.0464829)
(-0.00341775 0.00162543 -0.0444204)
(-0.00350364 0.000478085 -0.0459709)
(-0.00337303 0.000840404 -0.0465269)
(0.00379167 -0.00313927 -0.0360732)
(0.00361937 -0.00247155 -0.0332512)
(0.00378798 -0.00262487 -0.0344817)
(0.00370828 -0.00323281 -0.0366773)
(0.00429606 -0.00165723 -0.0365135)
(0.00450515 2.42512e-05 -0.0417193)
(0.0045206 -7.97391e-05 -0.0448066)
(-0.00586926 -0.00197016 -0.0456166)
(-0.00300939 0.00122463 -0.0408415)
(0.00345674 0.000958982 -0.0295692)
(0.0043334 0.00035104 -0.0354715)
(0.0040881 -0.00132777 -0.0343913)
(-0.00350945 0.000632764 -0.0426499)
(-0.00307262 0.0010091 -0.041377)
(0.00328132 0.000827773 -0.027368)
(0.0014272 0.00496226 -0.0357753)
(0.00370565 -0.0017614 -0.0319497)
(0.00448179 -0.000262644 -0.0376193)
(0.00450574 -2.55574e-06 -0.0456561)
(-0.00351714 0.000756973 -0.044688)
(-0.00349624 0.00063421 -0.0477857)
(0.00518463 0.000260602 -0.0239916)
(0.00451412 -0.00116152 -0.0314808)
(0.00329918 0.00291908 -0.0320247)
(0.00371301 -0.00163717 -0.031866)
(0.00408233 -0.00127396 -0.0343353)
(0.00590808 0.00357333 -0.0328999)
(0.00402824 -0.00269555 -0.0365859)
(0.00370597 -0.00334568 -0.0377986)
(-0.00307349 0.00113325 -0.0419004)
(-0.00339118 0.00122354 -0.04855)
(0.0056352 0.000638328 -0.0328393)
(0.00406445 -0.00102443 -0.0340774)
(0.00249353 -0.00465654 -0.0379987)
(0.00346852 -0.0034204 -0.0368151)
(0.00447471 -0.000149904 -0.0412476)
(-0.00344054 0.000495372 -0.0444048)
(-0.00341631 0.00119037 -0.0489691)
(0.00304845 0.00184207 -0.0258033)
(0.00491961 0.00552148 -0.0318674)
(0.00305942 -0.00434085 -0.0345854)
(0.00402072 0.00234829 -0.0344681)
(0.00348703 -0.00347943 -0.0360458)
(0.00450988 -0.000576831 -0.0422365)
(0.00366137 -0.00365211 -0.0376041)
(0.00456431 -3.80928e-05 -0.0459555)
(-0.00344335 0.000389114 -0.0435855)
(0.00457125 3.48662e-05 -0.0461485)
(-0.00299029 0.00115985 -0.0411668)
(-0.00330383 0.00124596 -0.0409031)
(-0.00320874 0.000240746 -0.0437614)
(0.00414485 -0.00166387 -0.0346615)
(0.00408809 -0.00114953 -0.0343475)
(0.00394603 -0.00319951 -0.0379009)
(-0.00322063 0.00148586 -0.0361739)
(0.0045243 0.000446821 -0.0364385)
(0.00449659 -0.000218344 -0.0401809)
(0.00456107 4.77667e-05 -0.0393252)
(0.00451717 -9.45689e-05 -0.0449527)
(-0.00331181 0.000599746 -0.0405789)
(0.00239311 0.00023802 -0.03994)
(-0.00353696 0.000365723 -0.0440576)
(0.00460959 -0.000747727 -0.0431445)
(0.00440435 0.000320489 -0.0270484)
(0.00402634 0.000302563 -0.0281639)
(0.00564179 0.000824267 -0.0325734)
(0.00303576 0.00559341 -0.0340182)
(0.00253247 -0.0043529 -0.0363776)
(0.00452702 -0.000250865 -0.0407734)
(0.00450154 -0.000238115 -0.0403958)
(-0.00352784 0.000178749 -0.0452765)
(-0.00355776 0.00161944 -0.0442614)
(-0.00340524 0.00129182 -0.0499469)
(0.00429797 -0.000542587 -0.033813)
(0.00360275 -0.00361019 -0.0376228)
(0.00429784 -0.0011228 -0.0372009)
(0.0016291 -0.00477244 -0.0395579)
(0.00168955 -0.00484059 -0.0410082)
(0.00139439 -0.000396286 -0.038234)
(0.00364217 -0.00363666 -0.0377633)
(0.00405325 -0.00262942 -0.0393116)
(0.00405547 -0.00261887 -0.0393432)
(0.00261759 0.0044301 -0.0401356)
(-0.00360534 0.000480099 -0.0448825)
(-0.00346864 0.00112134 -0.0495664)
(-0.00342313 0.00124663 -0.0489844)
(0.00437428 -2.15901e-05 -0.0316631)
(0.00315114 0.00216932 -0.0291232)
(0.00377631 0.000558183 -0.0278316)
(0.00272136 0.00290366 -0.0280079)
(0.00103137 0.0056043 -0.0339349)
(0.0032874 0.00259244 -0.0313999)
(0.00148341 0.00486452 -0.0349128)
(0.00398272 -0.00248594 -0.0363227)
(0.00412399 -0.00243951 -0.0394562)
(0.00425532 -0.00163069 -0.0420058)
(-0.00641252 0.00159649 -0.03741)
(-0.00318149 0.000947257 -0.0420924)
(-0.00334845 0.000737115 -0.0432552)
(-0.00327996 0.00166531 -0.0467642)
(0.00445687 -0.000715497 -0.0426381)
(0.00451341 -0.000699356 -0.0431504)
(-0.00344097 0.00122345 -0.0489888)
(0.00265316 0.00295183 -0.0279284)
(-0.00317912 0.000832968 -0.036977)
(0.00130005 -0.000653601 -0.0392465)
(0.0035798 -0.00370221 -0.0366399)
(0.00452539 -0.000262001 -0.0403347)
(0.00106833 0.00616481 -0.0377228)
(0.00304877 -0.00385737 -0.0338457)
(0.00408899 -0.00262486 -0.0388104)
(0.00462689 1.42021e-06 -0.0450221)
(0.0045129 -0.00102898 -0.0414368)
(0.00444529 -0.00162806 -0.0429869)
(-0.00296204 0.00209933 -0.0429774)
(-0.00346037 0.00141264 -0.046685)
(-0.00357123 0.000161437 -0.0480432)
(0.00464285 0.000295338 -0.0457305)
(0.00335854 0.00136926 -0.0284893)
(0.00329529 -0.00232027 -0.0311221)
(0.00445737 0.000240521 -0.0334473)
(0.00426948 0.00101956 -0.032443)
(-0.00576445 0.000853002 -0.0332373)
(0.00450049 -0.000157068 -0.0384777)
(0.00114804 0.00630224 -0.0382039)
(0.00116308 0.00620966 -0.0380262)
(0.00105029 0.00630437 -0.0386202)
(-0.00639077 0.00106839 -0.0367225)
(0.00124439 0.00470701 -0.0382699)
(0.00163 -0.00471249 -0.0398212)
(0.000990301 0.00628749 -0.0384582)
(0.00125861 0.00624223 -0.0389396)
(0.00370757 -0.00350789 -0.0395874)
(0.00560872 0.000253621 -0.0327413)
(0.00309181 0.00239077 -0.0290798)
(0.00416469 -0.00213574 -0.0361431)
(0.00423264 -0.00165872 -0.0372143)
(0.00415619 -0.00246403 -0.0383701)
(0.0040961 -0.00261043 -0.0380474)
(0.00454303 -0.000223865 -0.0421037)
(0.0012226 0.00467075 -0.0379694)
(0.00467671 0.000265937 -0.0444131)
(0.00124052 0.0047209 -0.0383833)
(0.00418405 -0.00166764 -0.0424873)
(0.00365904 -0.00362743 -0.0386666)
(0.00247868 -0.00471502 -0.0412234)
(0.00235762 0.00410595 -0.0334938)
(0.00405642 -0.00244668 -0.0368242)
(0.00467658 0.000140272 -0.0398605)
(0.0015305 0.00494356 -0.0381642)
(0.00230669 -0.00392991 -0.0353996)
(0.00097045 0.00619429 -0.0373817)
(0.00236723 0.00442322 -0.0385257)
(0.00420018 -0.00165921 -0.0426811)
(0.00396001 -0.00325747 -0.041166)
(0.00172424 -0.0048756 -0.0418207)
(-0.00360728 0.00026237 -0.0476709)
(-0.00360512 0.00130077 -0.0471442)
(0.00346006 0.00123889 -0.0268568)
(0.00363105 -0.00316155 -0.0334669)
(0.00373047 -0.000409076 -0.0312343)
(0.00445035 -0.000206688 -0.0366662)
(-0.00461748 0.000505781 -0.0332505)
(0.004505 -0.000253131 -0.0381904)
(0.00449884 -0.000192386 -0.0386282)
(0.00454767 -0.000320247 -0.0398378)
(0.00243842 0.0018309 -0.039161)
(0.00449896 -0.000828041 -0.0405792)
(0.00187251 -0.00480344 -0.0405629)
(0.00263739 0.0065194 -0.0390453)
(-0.0111456 -0.000638534 -0.0443423)
(0.00315999 -0.00412768 -0.0380649)
(-0.00360297 0.00147345 -0.0470542)
(-0.00360687 0.00146767 -0.0469187)
(0.0041301 -0.000708606 -0.0328257)
(0.00422777 -0.00207424 -0.0370893)
(0.00326861 -0.00319658 -0.0321594)
(-0.0059384 0.000710751 -0.0305454)
(0.00410393 -0.00166154 -0.0344504)
(0.00447772 -0.000236566 -0.0370459)
(0.00275547 0.00650709 -0.0386753)
(0.00462694 -0.000311113 -0.0419754)
(0.00431335 -0.00174253 -0.038198)
(0.00171337 0.0047194 -0.0383109)
(0.00328613 0.000146102 -0.0390276)
(0.00434227 0.00058526 -0.0372905)
(0.00271049 0.00661107 -0.0396789)
(0.00463612 -6.5308e-05 -0.0463672)
(0.0046842 0.000182699 -0.0451455)
(0.00452107 -0.000811521 -0.0435645)
(0.0030032 0.00132558 -0.0424452)
(0.00399413 0.000798211 -0.0300728)
(0.00379797 0.00038463 -0.0310119)
(0.00265118 0.00298438 -0.027623)
(0.00411606 -0.00243284 -0.0389299)
(0.00316913 0.00238026 -0.0295045)
(0.00443398 -0.000206415 -0.0360142)
(0.00447354 0.00123367 -0.0359071)
(0.00128081 0.00438035 -0.0333292)
(0.0044809 -0.000215976 -0.037214)
(0.0027772 -0.00382206 -0.0334262)
(0.00111593 0.00488072 -0.037955)
(0.00463613 0.000152631 -0.0464786)
(0.00461765 -5.70215e-05 -0.0466681)
(0.00420541 -0.00184057 -0.0413908)
(0.0040346 0.00297894 -0.0385323)
(0.00468179 1.15103e-05 -0.0448134)
(0.0032345 -0.000853345 -0.0282746)
(0.00359383 0.00127613 -0.0270145)
(0.00377806 0.000172289 -0.0315368)
(0.00459 0.00505081 -0.0302639)
(0.00513614 0.00300915 -0.0318218)
(0.00448593 0.000279657 -0.0342334)
(-0.00608399 0.000908252 -0.0319989)
(0.00247832 0.00404246 -0.033591)
(0.00262133 0.00239092 -0.0398283)
(0.00107284 0.00488895 -0.0384259)
(0.00267036 0.00242548 -0.0399715)
(0.0042364 0.00229629 -0.0396144)
(0.00288685 0.00643629 -0.0379251)
(0.00102238 0.00620529 -0.0377726)
(0.00471744 0.000229631 -0.0440762)
(0.00228377 -0.00410212 -0.034894)
(0.00461804 -9.25683e-05 -0.0466741)
(0.00416048 -0.00169365 -0.0428159)
(0.00394621 0.00304152 -0.0393519)
(0.00471543 0.000179093 -0.0450613)
(0.00406179 -0.0025696 -0.0406865)
(0.00448034 0.000160864 -0.0336939)
(0.00317419 -0.00308324 -0.0312999)
(0.00445967 0.00144274 -0.0373852)
(-0.00609526 0.000817861 -0.0318425)
(0.00134935 0.00437356 -0.034109)
(0.00377614 0.00318724 -0.0373674)
(-0.00338245 0.000771741 -0.0388748)
(-0.00453833 0.000355394 -0.0341783)
(0.00426295 -0.0013917 -0.0425003)
(0.00303594 0.00645324 -0.0383773)
(0.00466603 0.000191439 -0.0447539)
(0.00327295 -0.00514088 -0.0335774)
(0.00399205 -0.00238825 -0.0406398)
(-0.00344731 0.0009975 -0.0442087)
(-0.00365444 0.00156559 -0.0451365)
(0.00330126 -0.00396448 -0.0382111)
(0.00335914 -0.0041516 -0.0384134)
(0.00574717 0.000679296 -0.0330639)
(0.00442514 0.000535261 -0.0330368)
(0.00445425 0.000609315 -0.0328233)
(0.00438984 0.00039136 -0.0333788)
(0.00374784 -0.000543622 -0.0308722)
(0.0041149 0.00225111 -0.0367194)
(0.00224599 -0.00402108 -0.0375879)
(0.00418087 0.00228551 -0.0372943)
(-0.00622588 0.000832228 -0.0329309)
(0.00281278 0.00273334 -0.0403136)
(0.00110361 0.00466511 -0.0383799)
(0.00454358 -0.00036141 -0.0393868)
(0.00409653 0.00228459 -0.0411881)
(0.00445134 -0.000837088 -0.0412051)
(0.00306215 0.00123791 -0.0429584)
(-0.00360429 0.00134327 -0.0459449)
(0.00380112 -0.00345679 -0.0405118)
(-0.00362515 -4.44389e-05 -0.0475123)
(0.00426073 0.000233076 -0.0238729)
(0.00289677 0.00302874 -0.0277376)
(0.00577536 0.000799055 -0.03303)
(0.00458493 0.00109818 -0.0357578)
(0.00675409 0.00426127 -0.0323622)
(0.00327359 0.00365184 -0.0338333)
(0.00230281 -0.00484761 -0.0405477)
(0.00213843 0.00441366 -0.0345685)
(0.00130614 0.00437657 -0.033491)
(0.00421404 0.00226645 -0.0376366)
(0.00448753 -0.000148363 -0.0343529)
(0.00330597 -0.00336999 -0.0305167)
(-0.00332557 0.000741621 -0.0378345)
(0.00301319 0.00638375 -0.0367211)
(0.00432704 -0.00181253 -0.0400392)
(0.00339159 0.00795104 -0.0374715)
(0.00211953 -6.38311e-06 -0.0404372)
(0.00441547 -0.00179946 -0.0439594)
(0.00387343 -0.00261871 -0.0381726)
(0.00455744 -0.000202081 -0.0423054)
(0.00336824 -0.00273115 -0.0307449)
(0.00246839 0.00395233 -0.032659)
(0.00335729 -0.00485575 -0.0324086)
(0.00436621 -0.000945623 -0.0384791)
(-0.0037743 0.000187519 -0.0346617)
(0.00294905 0.00326651 -0.0409728)
(0.00453506 -0.000760163 -0.0404159)
(0.00216244 1.45886e-05 -0.0413586)
(0.00228012 -0.00474169 -0.0395966)
(0.00249344 -0.00441961 -0.0396427)
(-0.00353724 0.00109606 -0.0481717)
(-0.00339333 -0.00122149 -0.0428012)
(0.00454842 0.000456825 -0.0274782)
(0.00557684 6.71463e-05 -0.0272689)
(0.00257461 0.00300261 -0.0267823)
(0.00445481 0.000599731 -0.0328285)
(0.00321824 0.00267567 -0.0301844)
(0.00268791 -0.00374113 -0.0320775)
(-0.00788289 0.00205641 -0.0295532)
(0.00420411 -0.00196239 -0.0398421)
(0.00259016 -0.00405513 -0.0362193)
(0.00340541 -0.00482197 -0.0321135)
(0.00319596 0.00763799 -0.0366587)
(0.00282426 0.00675036 -0.0418932)
(0.00388747 -0.00328579 -0.0377626)
(0.00301723 0.00119882 -0.0424699)
(0.00368743 -0.00334622 -0.0393169)
(0.00250925 0.00285894 -0.0262471)
(0.00312077 0.00233806 -0.0282326)
(0.00443675 0.000275215 -0.0333134)
(0.00324213 0.00249567 -0.0298028)
(0.00410001 0.00236189 -0.0366919)
(0.00382681 0.00290532 -0.0344989)
(-0.00592093 0.000741843 -0.0308356)
(0.00444117 -0.000150246 -0.0374739)
(0.00326175 -0.00414075 -0.0383378)
(0.00170271 -0.00424103 -0.0382745)
(0.00451422 -0.00167648 -0.0448516)
(0.00191767 -0.00488285 -0.0406058)
(0.00183603 -0.00453864 -0.0390032)
(0.00319002 -0.00408066 -0.0381447)
(0.00395561 -0.00235972 -0.040908)
(0.00466296 -0.000807474 -0.0448399)
(-0.00365264 0.000303393 -0.0467628)
(0.00215026 6.43641e-05 -0.0420953)
(0.0053779 0.000807569 -0.0328066)
(0.00458472 0.000160415 -0.0346333)
(0.0032759 -0.00469324 -0.0309882)
(0.00458097 0.000268086 -0.0360538)
(0.00445236 7.49241e-05 -0.033182)
(0.00396641 -0.00196762 -0.0390754)
(0.00442826 -0.000447929 -0.0340747)
(0.00309757 -0.00470078 -0.0311841)
(-0.0033532 -0.00102615 -0.0431541)
(0.00163749 -0.0046547 -0.041078)
(0.00376016 0.00236297 -0.0298064)
(0.00429527 -0.000136048 -0.0310138)
(0.00295461 0.00209133 -0.0263939)
(0.00558316 0.000612301 -0.0332729)
(0.0025725 0.00269373 -0.0254542)
(0.0042306 0.00244115 -0.0325569)
(0.00427653 -0.00220937 -0.0371148)
(0.0044258 0.001349 -0.0330895)
(-0.003351 0.000849575 -0.036897)
(0.00319607 0.00381457 -0.0402065)
(-0.00374304 0.000161669 -0.0346937)
(0.00272621 0.00276955 -0.0410106)
(0.0046699 3.33477e-05 -0.0399764)
(0.00305515 -0.00468499 -0.0310543)
(0.00292694 0.00297771 -0.0409732)
(0.00277963 0.00476322 -0.0420756)
(-0.00354973 0.000598218 -0.0471038)
(0.00385638 -0.00326395 -0.0400229)
(0.00412416 0.0020582 -0.0348548)
(0.00444536 -0.000372223 -0.0354002)
(0.00440292 -0.000368232 -0.0372047)
(0.00466752 0.00119496 -0.0379949)
(0.00428952 -0.00208823 -0.032008)
(0.00420205 0.00221974 -0.0379204)
(0.00252232 0.00194964 -0.0410011)
(0.00444816 -0.00018517 -0.0369089)
(0.00376853 0.00163095 -0.0411032)
(0.00463295 9.37574e-05 -0.0440767)
(0.00458825 -0.000367337 -0.0399488)
(0.00459871 2.22328e-05 -0.0435896)
(0.00265196 0.00424027 -0.0413733)
(0.00232913 -0.00442723 -0.0402362)
(0.00452313 -0.000283443 -0.0406793)
(0.00248543 -0.00457337 -0.0405696)
(0.00326435 -0.00403757 -0.0381946)
(0.00238166 -0.00461742 -0.0413909)
(-0.00360866 0.00149566 -0.0461962)
(-0.00360237 0.00124092 -0.0462581)
(-0.00359758 0.00101501 -0.0465291)
(0.00406377 -0.000454785 -0.03234)
(0.00372436 0.00174153 -0.0315789)
(0.00452686 0.000411414 -0.0344177)
(0.00357851 0.00303351 -0.0336075)
(0.0045591 0.000341696 -0.0349884)
(0.00447555 0.000196064 -0.033354)
(0.0041294 -0.000639244 -0.0324079)
(0.00114621 0.00555376 -0.030696)
(0.00266397 0.00225792 -0.0408193)
(0.00469443 -0.000444636 -0.0413201)
(0.00117536 0.00431103 -0.0358317)
(0.00461606 -0.000708075 -0.0438036)
(0.0047101 -0.000632891 -0.0452609)
(0.00454484 -0.000960269 -0.0425078)
(0.00463695 -0.000715093 -0.0442129)
(0.00421486 0.000640254 -0.0406696)
(0.00385121 0.00296882 -0.0398225)
(0.00274961 -0.00446515 -0.0396934)
(-0.00348314 0.00141289 -0.0458599)
(0.00265443 -0.00460947 -0.0417635)
(0.00444797 0.000412331 -0.0334834)
(0.00286822 -0.00223052 -0.0279267)
(0.00442507 -2.48137e-05 -0.0324636)
(0.00461062 0.000625728 -0.0362774)
(-0.0053256 0.00150018 -0.0308653)
(0.00191821 0.00452362 -0.0348599)
(0.00217698 0.00101716 -0.0403956)
(0.00320837 0.00404485 -0.0408315)
(0.00458927 -0.000134598 -0.0431817)
(-0.00341811 0.000595837 -0.0435607)