/*--------------------------------*- C++ -*----------------------------------*\
| =========                 |                                                 |
| \\      /  F ield         | OpenFOAM: The Open Source CFD Toolbox           |
|  \\    /   O peration     | Version:  plus.master                           |
|   \\  /    A nd           | Web:      www.OpenFOAM.com                      |
|    \\/     M anipulation  |                                                 |
\*---------------------------------------------------------------------------*/
FoamFile
{
    version     2.0;
    format      ascii;
    class       surfaceScalarField;
    location    "8.2";
    object      alphaPhi;
}
// * * * * * * * * * * * * * * * * * * * * * * * * * * * * * * * * * * * * * //

dimensions      [0 3 -1 0 0 0 0];

internalField   nonuniform List<scalar> 
138768
(
6.86915e-07
1.54362e-06
3.22835e-07
-9.96479e-07
-1.55733e-06
4.00247e-07
9.40187e-07
5.68376e-07
-1.22181e-06
-5.8493e-07
1.16251e-06
9.03241e-07
-1.08009e-06
-1.56976e-06
9.50043e-07
9.43087e-07
-9.08539e-07
-2.1377e-06
7.91368e-07
6.13048e-07
-8.36175e-07
-2.07948e-06
4.39264e-07
3.62847e-07
-8.60507e-07
1.06376e-06
2.51519e-07
-2.13325e-06
-1.26137e-06
2.79947e-07
1.57632e-06
5.24622e-07
-9.16534e-07
2.87611e-07
5.38149e-07
1.46324e-06
-6.62705e-08
2.39889e-07
2.36371e-06
-9.1595e-07
4.60778e-07
2.68002e-06
-7.84036e-07
2.72927e-09
1.93439e-06
-1.18917e-06
4.74452e-07
1.31954e-06
1.05156e-06
3.25356e-07
-1.50203e-06
8.37963e-07
7.55187e-07
8.48376e-07
-8.64509e-07
-1.87844e-08
5.87004e-07
2.16951e-06
3.66993e-08
3.37986e-08
6.96352e-07
-5.60917e-08
4.05653e-08
1.20572e-06
-4.52045e-07
8.12945e-08
8.8783e-07
-1.41755e-06
5.13134e-07
1.94819e-06
4.97979e-07
5.16138e-07
-1.38012e-06
1.01005e-06
-3.27362e-07
1.08435e-06
-1.01178e-06
4.51311e-07
-3.49435e-07
2.83273e-06
2.55316e-08
-3.51416e-08
1.12635e-06
-6.40497e-08
-3.38992e-08
1.64061e-07
-6.00525e-07
-7.87933e-08
1.41972e-06
-1.14828e-06
-2.43201e-07
2.46509e-06
-1.30237e-07
7.30717e-07
-1.25072e-06
1.0101e-06
-1.25619e-06
9.00225e-07
-9.81437e-07
7.47342e-08
-4.57692e-07
2.29702e-06
3.42764e-08
-1.14562e-07
6.91706e-07
-5.49992e-08
-3.85298e-07
1.05941e-06
-5.15524e-07
4.91059e-08
8.99845e-07
-1.42896e-06
-3.64021e-07
2.05684e-06
-7.39766e-07
5.7476e-07
-1.39414e-06
5.50018e-07
-1.35368e-06
5.51006e-07
-1.00346e-06
3.65197e-07
-7.78858e-07
1.50845e-06
6.8228e-08
-1.04781e-06
2.40805e-06
-8.3594e-07
-9.37411e-07
2.83785e-06
-8.04222e-07
-6.3012e-07
2.00461e-06
-1.25177e-06
-2.15912e-07
1.36425e-06
-7.43199e-07
3.53407e-07
-1.60172e-06
9.19603e-07
3.19355e-07
-1.18368e-06
-1.40898e-06
6.41254e-07
5.76222e-07
-1.07692e-06
-4.25921e-07
9.79173e-07
-9.59679e-07
-1.62158e-06
1.08193e-06
-8.23645e-07
-2.34219e-06
6.99276e-07
-6.08516e-07
-2.23032e-06
3.8279e-07
-7.68699e-07
2.4103e-07
-2.18851e-06
-1.02458e-06
4.16982e-07
1.31059e-06
9.02933e-07
-8.41045e-07
-1.46662e-06
-1.20491e-07
1.10692e-06
1.2942e-06
-1.29513e-06
-7.74027e-07
5.70576e-07
1.88489e-06
-8.98614e-07
-1.35871e-06
2.72757e-07
1.97621e-06
-7.21132e-07
-1.69449e-06
3.94007e-07
1.38239e-06
-8.27504e-07
-1.89188e-06
5.44459e-07
9.49723e-07
-9.33831e-07
6.35513e-07
7.76946e-07
-2.07501e-06
-9.77687e-07
4.36493e-07
1.04978e-06
1.21404e-06
-8.64954e-07
8.94727e-08
1.05807e-06
2.48406e-06
-4.97926e-07
1.95031e-07
3.6541e-06
-1.21987e-06
-6.84792e-08
4.13216e-06
-1.61821e-06
1.75343e-07
3.04922e-06
-1.67316e-06
4.98151e-07
1.74702e-06
3.78616e-07
8.86095e-07
-1.97678e-06
2.35857e-07
5.85542e-07
1.76896e-06
-6.92132e-07
-1.15494e-08
6.66414e-07
3.59111e-06
2.69211e-08
8.08919e-08
2.56015e-06
-8.99177e-08
-1.77446e-08
2.09854e-06
-5.01738e-07
9.53189e-08
3.29614e-06
-1.1612e-06
4.29881e-07
2.76254e-06
2.49536e-07
1.17155e-06
-1.68746e-06
3.33705e-07
-1.76052e-07
2.15357e-06
-6.41263e-07
1.84978e-07
-3.47321e-07
4.4092e-06
2.47554e-08
-4.64071e-08
2.48619e-06
1.37817e-08
5.21843e-08
1.92231e-07
-1.39084e-07
-4.83845e-08
2.50962e-06
-7.68226e-07
-2.53935e-08
3.68341e-06
1.43499e-07
1.52408e-06
-1.45547e-06
3.19881e-07
-7.26584e-07
1.87048e-06
-7.39525e-07
-3.85521e-09
-7.61911e-07
3.72584e-06
2.21975e-08
-9.3353e-08
2.37684e-06
-3.82876e-08
2.40599e-07
1.5805e-06
-3.85043e-07
-4.17066e-08
3.05023e-06
-1.10368e-06
-1.48111e-07
2.98318e-06
-4.8042e-09
1.27282e-06
-1.65333e-06
6.18185e-07
-1.0798e-06
1.27316e-06
-9.87057e-07
3.10046e-07
-9.37152e-07
2.71325e-06
-3.16851e-07
-4.36952e-07
3.96193e-06
-9.89732e-07
-9.28057e-08
4.38062e-06
-1.59125e-06
-1.57791e-07
3.42246e-06
-1.71636e-06
-2.38678e-07
1.93447e-06
-2.81582e-07
9.21957e-07
-2.00796e-06
6.31627e-07
8.963e-07
-9.95708e-07
-1.2926e-06
1.14814e-07
1.34278e-06
-1.1868e-06
-6.25223e-07
2.06838e-06
-7.85988e-07
-1.36454e-06
2.28299e-06
-5.54452e-07
-1.79582e-06
1.58489e-06
-6.12019e-07
-1.98682e-06
9.94553e-07
-6.59392e-07
7.66616e-07
-2.14493e-06
-6.48833e-07
6.89888e-07
1.61159e-06
1.75524e-06
-1.23457e-06
-1.91921e-06
-1.49076e-08
1.47744e-06
2.18105e-06
-1.65939e-06
-7.35106e-07
9.74388e-07
2.87214e-06
-1.24139e-06
-1.30477e-06
5.13617e-07
3.08167e-06
-1.04938e-06
-1.78764e-06
8.06394e-07
2.3316e-06
-1.27272e-06
-2.16831e-06
9.49963e-07
1.83277e-06
-1.45231e-06
1.05035e-06
1.62069e-06
-2.48755e-06
-1.5747e-06
7.30205e-07
1.18642e-06
2.11298e-06
-1.20387e-06
1.89198e-07
1.24885e-06
3.25376e-06
-5.92529e-07
5.80897e-07
4.82935e-06
-1.25347e-06
-1.2728e-07
5.43656e-06
-1.86156e-06
4.22218e-07
4.04155e-06
-2.16589e-06
5.62394e-07
2.4389e-06
5.06094e-07
1.75397e-06
-2.48927e-06
7.01151e-07
5.73923e-07
2.75441e-06
-1.07406e-06
2.13828e-07
6.41369e-07
4.74455e-06
-4.31236e-08
1.29062e-07
4.31466e-06
-2.22939e-07
-2.88765e-08
2.93846e-06
-1.1365e-06
9.49165e-08
5.15892e-06
-1.71939e-06
2.47697e-07
3.65966e-06
1.74244e-07
2.02853e-06
-2.2446e-06
6.98874e-07
-2.32328e-07
3.25275e-06
-9.91753e-07
2.67361e-07
-3.53483e-07
5.83561e-06
8.51232e-09
-7.87443e-08
3.77615e-06
-7.23476e-09
7.55698e-08
2.01976e-07
-2.47171e-07
-3.15089e-08
3.5297e-06
-1.14641e-06
1.15607e-08
4.8189e-06
1.16354e-07
2.39053e-06
-1.95491e-06
6.99936e-07
-8.7552e-07
2.88712e-06
-1.07334e-06
1.58918e-07
-9.62749e-07
4.92277e-06
-4.30479e-08
-3.77537e-07
3.94377e-06
-6.92945e-08
3.6232e-07
2.04663e-06
-8.15593e-07
-1.60153e-07
4.74666e-06
-1.56085e-06
-1.86539e-07
3.9266e-06
-1.22109e-07
2.12172e-06
-2.17118e-06
8.65519e-07
-1.37604e-06
2.19739e-06
-1.28917e-06
3.61305e-07
-1.27716e-06
3.47948e-06
-4.66033e-07
-8.00962e-07
5.20748e-06
-9.82433e-07
-2.03816e-07
5.66841e-06
-1.76613e-06
-4.82955e-07
4.54589e-06
-2.14076e-06
-5.62435e-07
2.68508e-06
-6.41466e-07
1.78781e-06
-2.48712e-06
8.62628e-07
1.76072e-06
-1.38516e-06
-1.7179e-06
1.62956e-07
2.27125e-06
-1.50592e-06
-6.37427e-07
3.14027e-06
-1.07224e-06
-1.27614e-06
3.49644e-06
-7.78459e-07
-1.83617e-06
2.60446e-06
-9.42391e-07
-2.23363e-06
1.8959e-06
-1.06621e-06
1.61712e-06
-2.55575e-06
-1.16971e-06
1.55295e-06
2.49843e-06
3.27817e-06
-2.42784e-06
-3.14648e-06
5.20594e-07
2.30551e-06
3.65955e-06
-2.75165e-06
-5.36859e-07
1.85885e-06
4.30758e-06
-2.23685e-06
-1.36617e-06
1.30409e-06
4.59721e-06
-1.99034e-06
-2.18402e-06
1.70673e-06
3.83803e-06
-2.39535e-06
-2.92896e-06
1.93903e-06
3.38487e-06
-2.74624e-06
2.12406e-06
3.15768e-06
-3.58183e-06
-3.00817e-06
1.52588e-06
1.73414e-06
3.62102e-06
-2.26962e-06
6.65959e-07
1.80606e-06
4.61314e-06
-5.47392e-07
1.61932e-06
6.28217e-06
-1.50317e-06
4.10473e-07
6.97958e-06
-2.47278e-06
1.27431e-06
5.44352e-06
-3.08384e-06
1.14531e-06
3.84365e-06
1.17718e-06
3.30835e-06
-3.69136e-06
1.54919e-06
7.46359e-07
4.24444e-06
-2.05144e-06
8.73499e-07
7.98097e-07
6.2396e-06
-2.83034e-08
2.92441e-07
5.81524e-06
-6.49602e-07
2.06238e-10
4.1303e-06
-2.38738e-06
3.23299e-07
6.93055e-06
-2.89694e-06
3.60513e-07
4.95398e-06
3.66814e-07
3.52808e-06
-3.58617e-06
1.44763e-06
-3.92304e-07
4.82283e-06
-1.87904e-06
9.04269e-07
-5.06088e-07
7.68313e-06
2.92106e-09
-2.03806e-07
4.69589e-06
-6.74552e-08
5.80353e-08
3.31402e-07
-1.65639e-06
-1.77515e-07
5.46214e-06
-2.4218e-06
-1.01018e-07
6.04579e-06
-9.64275e-08
3.78868e-06
-3.35678e-06
1.52506e-06
-1.40531e-06
4.38586e-06
-2.0108e-06
7.80116e-07
-1.51537e-06
6.49798e-06
-2.64412e-08
-1.14286e-06
5.25015e-06
-3.43978e-07
-6.49305e-08
2.84714e-06
-2.15699e-06
-8.50794e-07
6.46943e-06
-2.77538e-06
-7.56705e-07
5.20064e-06
-7.99508e-07
3.5922e-06
-3.54288e-06
1.62263e-06
-2.22888e-06
3.70652e-06
-2.30821e-06
8.04008e-07
-2.07557e-06
4.85826e-06
-4.2601e-07
-1.65117e-06
6.74394e-06
-1.3792e-06
-9.38281e-07
7.14874e-06
-2.43946e-06
-1.31309e-06
5.96063e-06
-3.08468e-06
-1.4816e-06
4.05512e-06
-1.69967e-06
3.33727e-06
-3.73407e-06
1.70611e-06
3.29485e-06
-2.57184e-06
-2.89728e-06
6.57909e-07
3.75585e-06
-2.512e-06
-4.8655e-07
4.59623e-06
-1.96269e-06
-1.37436e-06
5.0392e-06
-1.59328e-06
-2.25719e-06
4.10197e-06
-1.92781e-06
-3.02063e-06
3.44872e-06
-2.27101e-06
3.16386e-06
-3.6863e-06
-2.58077e-06
2.57005e-06
3.34771e-06
-3.6084e-06
-4.11178e-06
5.0806e-06
1.30939e-06
3.46233e-06
-3.97903e-06
5.43692e-06
-1.7279e-07
3.37299e-06
-3.63911e-06
6.05588e-06
-1.53176e-06
3.05072e-06
-3.48622e-06
6.39167e-06
-2.64555e-06
3.2295e-06
-3.85703e-06
5.57931e-06
-3.54334e-06
3.25228e-06
-4.09819e-06
5.1284e-06
3.18513e-06
-4.26551e-06
-4.21117e-06
4.90583e-06
2.72458e-06
2.38182e-06
-3.55525e-06
5.4176e-06
1.64033e-06
2.80502e-06
6.35474e-06
-2.5626e-07
3.3372e-06
8.21449e-06
-2.19692e-06
1.91657e-06
9.02634e-06
-3.41978e-06
2.75172e-06
7.14398e-06
-4.09668e-06
2.26574e-06
5.50694e-06
2.02444e-06
-4.66944e-06
5.04164e-06
2.96894e-06
1.01284e-06
-3.42506e-06
6.06953e-06
2.42603e-06
1.27006e-06
8.3174e-06
1.35693e-07
6.29485e-07
7.78978e-06
-1.64475e-06
8.85644e-09
5.68948e-06
-4.17482e-06
1.02252e-06
9.10412e-06
-4.44612e-06
9.50935e-07
6.53997e-06
7.62461e-07
-4.88801e-06
5.23182e-06
2.86606e-06
-5.93424e-07
-3.21654e-06
6.77954e-06
1.80865e-06
-8.45807e-07
1.01427e-05
-4.22001e-09
-4.04492e-07
6.18401e-06
-4.6475e-07
9.05861e-09
9.18394e-07
-4.38385e-06
-6.07658e-07
7.73637e-06
-4.42655e-06
-5.02339e-07
7.54164e-06
-4.01272e-07
-4.90771e-06
5.43347e-06
2.98347e-06
-2.036e-06
-3.37682e-06
6.22178e-06
2.05393e-06
-2.48036e-06
8.62537e-06
1.18007e-07
-2.52038e-06
6.99148e-06
-1.11632e-06
-1.20174e-06
4.06833e-06
-4.19249e-06
-2.3628e-06
8.69301e-06
-4.44993e-06
-1.83645e-06
6.79211e-06
-1.63557e-06
-4.9105e-06
5.28694e-06
2.83618e-06
-3.08611e-06
-3.58703e-06
5.50747e-06
1.81331e-06
-3.21852e-06
6.61922e-06
-1.10714e-07
-3.1561e-06
8.80174e-06
-2.21714e-06
-2.70761e-06
9.22416e-06
-3.52249e-06
-2.81484e-06
7.71798e-06
-4.19176e-06
-2.80595e-06
5.69379e-06
-2.81065e-06
-4.7526e-06
5.0731e-06
2.71922e-06
-3.72331e-06
-3.89178e-06
5.10461e-06
1.44757e-06
-3.72787e-06
5.53672e-06
-1.32358e-07
-3.33151e-06
6.35146e-06
-1.5878e-06
-3.05793e-06
6.84487e-06
-2.75867e-06
-3.3755e-06
5.83341e-06
-3.65444e-06
-3.65523e-06
5.19372e-06
-4.34192e-06
-3.87848e-06
4.91907e-06
-2.38766e-06
-3.69315e-07
1.42199e-07
4.81568e-07
-2.51482e-06
-5.32095e-07
1.58306e-07
5.02041e-07
-2.78471e-06
-3.73162e-07
1.7041e-07
4.72586e-07
-3.08882e-06
-3.12815e-07
1.71355e-07
4.45261e-07
-3.40358e-06
-2.75506e-07
1.61179e-07
4.29927e-07
-3.72377e-06
-2.48196e-07
1.42171e-07
4.25353e-07
-4.03546e-06
-2.26531e-07
1.15936e-07
4.21349e-07
-2.07677e-07
8.31215e-08
4.16672e-07
-4.32755e-06
-1.96605e-06
-7.25598e-08
1.67381e-07
-2.43481e-06
-2.69148e-07
2.05069e-07
-2.82231e-06
-2.00412e-07
2.14621e-07
-3.19701e-06
-1.50955e-07
2.1325e-07
-3.54663e-06
-1.26936e-07
2.00965e-07
-3.86427e-06
-1.09175e-07
1.78732e-07
-4.14698e-06
-9.2936e-08
1.49215e-07
-8.10062e-08
1.12445e-07
-4.38531e-06
-1.68695e-06
4.83611e-08
1.85963e-07
-2.16043e-06
-8.27531e-09
2.11948e-07
-2.59637e-06
4.12087e-09
2.32367e-07
-3.00264e-06
1.71677e-08
2.39103e-07
-3.38249e-06
2.448e-08
2.27649e-07
-3.72472e-06
2.67526e-08
2.0637e-07
-4.02903e-06
3.61646e-08
1.75295e-07
4.36919e-08
1.36509e-07
-4.29018e-06
-1.58799e-06
1.72708e-07
2.12991e-07
-2.04993e-06
2.33922e-07
2.19807e-07
-2.46982e-06
1.86994e-07
2.37003e-07
-2.87544e-06
1.75466e-07
2.4689e-07
-3.24547e-06
1.61735e-07
2.33349e-07
-3.58928e-06
1.59347e-07
2.11814e-07
-3.88029e-06
1.48352e-07
1.78302e-07
1.35259e-07
1.37203e-07
-4.1091e-06
-1.67495e-06
2.67497e-07
1.86067e-07
-2.10434e-06
4.58705e-07
2.05329e-07
-2.53024e-06
3.87221e-07
2.24968e-07
-2.93609e-06
3.47246e-07
2.33781e-07
-3.31161e-06
3.16309e-07
2.22281e-07
-3.65127e-06
2.96924e-07
2.00024e-07
-3.95242e-06
2.83053e-07
1.67898e-07
2.64172e-07
1.27417e-07
-4.20787e-06
-2.02547e-06
5.24636e-07
1.66301e-07
-2.41793e-06
6.58542e-07
1.93174e-07
-2.79629e-06
5.56352e-07
2.09395e-07
-3.13923e-06
4.81439e-07
2.08382e-07
-3.46224e-06
4.43789e-07
1.95605e-07
-3.75719e-06
4.19008e-07
1.72926e-07
-4.01285e-06
3.96742e-07
1.41861e-07
3.78084e-07
1.03236e-07
-4.22986e-06
-2.36582e-06
1.33755e-07
5.66942e-07
-2.49069e-06
1.57278e-07
6.2446e-07
-2.69772e-06
1.6625e-07
5.98393e-07
-2.954e-06
1.67143e-07
5.70919e-07
-3.23396e-06
1.56772e-07
5.67023e-07
-3.52384e-06
1.37323e-07
5.71616e-07
-3.80932e-06
1.09366e-07
5.72899e-07
7.39644e-08
5.78795e-07
-4.08397e-06
-2.53034e-06
-3.32718e-07
4.2868e-07
5.01736e-07
-3.02357e-06
-2.82153e-07
4.61763e-07
4.72085e-07
-3.51689e-06
-2.43142e-07
4.66157e-07
4.40924e-07
-3.9865e-06
-2.14615e-07
4.43358e-07
4.12329e-07
-4.41713e-06
-1.91837e-07
3.97047e-07
3.86736e-07
-4.79665e-06
-1.72659e-07
3.31631e-07
3.62829e-07
-5.1169e-06
-1.55938e-07
2.5237e-07
3.39806e-07
-1.41072e-07
1.64826e-07
3.17379e-07
-5.37487e-06
-2.5342e-06
-1.73283e-07
5.65553e-07
-3.07301e-06
-1.26881e-07
5.88757e-07
-3.59623e-06
-9.12165e-08
5.85945e-07
-4.08464e-06
-6.64816e-08
5.53614e-07
-4.52034e-06
-4.91543e-08
4.93988e-07
-4.88986e-06
-3.67294e-08
4.12386e-07
-5.18436e-06
-2.73816e-08
3.15184e-07
-2.0421e-08
2.09293e-07
-5.40182e-06
-2.35281e-06
1.53119e-08
6.62831e-07
-2.9753e-06
3.59133e-08
6.71775e-07
-3.55379e-06
4.95229e-08
6.70162e-07
-4.07494e-06
5.78847e-08
6.36053e-07
-4.52884e-06
6.26924e-08
5.69791e-07
-4.90131e-06
6.47079e-08
4.77471e-07
-5.18568e-06
6.52837e-08
3.67054e-07
6.47688e-08
2.4678e-07
-5.38111e-06
-2.20473e-06
2.64038e-07
7.13632e-07
-2.87473e-06
2.29812e-07
6.96058e-07
-3.48655e-06
2.04235e-07
6.94274e-07
-4.0296e-06
1.87529e-07
6.60447e-07
-4.49944e-06
1.74459e-07
5.91535e-07
-4.88092e-06
1.64068e-07
4.94091e-07
-5.16929e-06
1.55091e-07
3.76966e-07
1.47159e-07
2.4942e-07
-5.36382e-06
-2.32123e-06
4.5645e-07
6.61714e-07
-2.93692e-06
3.90349e-07
6.60677e-07
-3.50977e-06
3.43829e-07
6.58477e-07
-4.0248e-06
3.12063e-07
6.24378e-07
-4.47293e-06
2.87724e-07
5.57306e-07
-4.84077e-06
2.68415e-07
4.63647e-07
-5.12185e-06
2.52409e-07
3.51669e-07
2.38829e-07
2.29774e-07
-5.31574e-06
-2.52217e-06
5.81655e-07
5.55548e-07
-3.0335e-06
5.19947e-07
5.7514e-07
-3.53103e-06
4.78977e-07
5.72002e-07
-3.99586e-06
4.46915e-07
5.38547e-07
-4.41105e-06
4.21342e-07
4.77318e-07
-4.76216e-06
3.99246e-07
3.93305e-07
-5.04044e-06
3.7926e-07
2.93368e-07
3.60802e-07
1.84781e-07
-5.24389e-06
-2.5375e-06
4.19609e-07
6.88705e-07
-2.97435e-06
4.51469e-07
6.62759e-07
-3.41724e-06
4.54849e-07
6.33418e-07
-3.84091e-06
4.30446e-07
6.07409e-07
-4.22852e-06
3.81517e-07
5.84302e-07
-4.56738e-06
3.12833e-07
5.62673e-07
-4.85017e-06
2.29987e-07
5.41489e-07
1.38531e-07
5.20366e-07
-5.07426e-06
-3.17494e-06
-1.85214e-07
9.1247e-07
3.88959e-07
-3.927e-06
-1.08681e-07
9.92469e-07
3.30145e-07
-4.70235e-06
-6.04557e-08
1.02255e-06
2.79521e-07
-5.47362e-06
-2.51489e-08
1.00381e-06
2.36041e-07
-6.21565e-06
1.34928e-09
9.38496e-07
1.99303e-07
-6.89915e-06
1.77089e-08
8.28652e-07
1.68823e-07
-7.49635e-06
2.9985e-08
6.76073e-07
1.43529e-07
3.82372e-08
4.853e-07
1.22785e-07
-7.97783e-06
-3.2353e-06
-7.60605e-08
1.20263e-06
-4.02014e-06
1.01632e-09
1.26403e-06
-4.81391e-06
4.08737e-08
1.27847e-06
-5.5942e-06
6.94e-08
1.23941e-06
-6.3331e-06
8.68879e-08
1.14736e-06
-7.00375e-06
9.68716e-08
1.0039e-06
-7.57107e-06
1.01628e-07
8.10856e-07
1.02388e-07
5.73645e-07
-7.99959e-06
-3.0979e-06
2.97082e-08
1.4104e-06
-3.94725e-06
7.14481e-08
1.45077e-06
-4.78893e-06
9.43721e-08
1.4584e-06
-5.59989e-06
1.06692e-07
1.40976e-06
-6.35714e-06
1.11854e-07
1.30209e-06
-7.0321e-06
1.12594e-07
1.13672e-06
-7.58932e-06
1.10412e-07
9.1551e-07
1.06072e-07
6.44584e-07
-7.99083e-06
-2.9273e-06
2.17511e-07
1.4983e-06
-3.85094e-06
1.77995e-07
1.51323e-06
-4.73217e-06
1.52068e-07
1.5179e-06
-5.56488e-06
1.33429e-07
1.46649e-06
-6.33342e-06
1.18748e-07
1.35323e-06
-7.01266e-06
1.06535e-07
1.1794e-06
-7.56866e-06
9.62e-08
9.47194e-07
8.74751e-08
6.63237e-07
-7.96389e-06
-3.05179e-06
3.48033e-07
1.41193e-06
-3.91751e-06
2.63328e-07
1.44119e-06
-4.76249e-06
2.10029e-07
1.4456e-06
-5.57152e-06
1.72407e-07
1.39452e-06
-6.32392e-06
1.4452e-07
1.28399e-06
-6.99258e-06
1.23573e-07
1.1153e-06
-7.54317e-06
1.07919e-07
8.90561e-07
9.65307e-08
6.16251e-07
-7.93869e-06
-3.22501e-06
4.47476e-07
1.19414e-06
-3.99813e-06
3.6457e-07
1.24714e-06
-4.78222e-06
3.09778e-07
1.25644e-06
-5.55131e-06
2.68062e-07
1.21207e-06
-6.27883e-06
2.35594e-07
1.11382e-06
-6.93548e-06
2.10154e-07
9.63421e-07
-7.48755e-06
1.90313e-07
7.63078e-07
1.74992e-07
5.18837e-07
-7.90003e-06
-3.20087e-06
9.02031e-07
6.10334e-07
-3.91753e-06
9.76055e-07
5.56782e-07
-4.66182e-06
9.99433e-07
5.09585e-07
-5.40437e-06
9.72396e-07
4.68732e-07
-6.11775e-06
8.97228e-07
4.33333e-07
-6.77373e-06
7.76385e-07
4.02654e-07
-7.34194e-06
6.12404e-07
3.7617e-07
4.10736e-07
3.53471e-07
-7.79258e-06
-4.80054e-06
9.35915e-08
1.83425e-06
2.0329e-07
-6.14269e-06
1.80314e-07
2.04035e-06
1.13902e-07
-7.54609e-06
2.38401e-07
2.14259e-06
4.49446e-08
-8.92995e-06
2.76152e-07
2.12067e-06
-9.14277e-09
-1.01903e-05
2.98147e-07
1.95572e-06
-5.49471e-08
-1.1217e-05
3.06993e-07
1.63735e-06
-8.89673e-08
-1.18963e-05
3.05811e-07
1.16479e-06
-1.1527e-07
2.97513e-07
5.32381e-07
-1.3578e-07
-1.2105e-05
-4.9337e-06
1.57202e-07
2.38132e-06
-6.29076e-06
2.33359e-07
2.56801e-06
-7.71136e-06
2.83647e-07
2.65382e-06
-9.11395e-06
3.11572e-07
2.60662e-06
-1.03889e-05
3.22346e-07
2.39814e-06
-1.14081e-05
3.19692e-07
2.01046e-06
-1.20364e-05
3.06589e-07
1.43834e-06
2.85295e-07
6.70692e-07
-1.21212e-05
-4.88715e-06
1.15182e-07
2.7533e-06
-6.28858e-06
1.62922e-07
2.92256e-06
-7.74032e-06
1.90337e-07
3.00343e-06
-9.16793e-06
2.01489e-07
2.94744e-06
-1.04624e-05
2.02018e-07
2.71687e-06
-1.14874e-05
1.95234e-07
2.28619e-06
-1.20939e-05
1.83118e-07
1.64557e-06
1.67022e-07
7.79838e-07
-1.21109e-05
-4.77106e-06
1.29478e-07
2.89817e-06
-6.23419e-06
9.09381e-08
3.04823e-06
-7.71501e-06
6.27136e-08
3.12624e-06
-9.15731e-06
4.25804e-08
3.06763e-06
-1.04601e-05
2.83978e-08
2.82952e-06
-1.14876e-05
1.91213e-08
2.38299e-06
-1.20879e-05
1.41767e-08
1.71637e-06
1.29017e-08
8.13393e-07
-1.2084e-05
-4.87407e-06
1.15149e-07
2.75736e-06
-6.2899e-06
3.02034e-08
2.91766e-06
-7.7429e-06
-3.32412e-08
2.99447e-06
-9.16505e-06
-7.56104e-08
2.93481e-06
-1.04518e-05
-1.00952e-07
2.70001e-06
-1.14688e-05
-1.1287e-07
2.26429e-06
-1.20682e-05
-1.14031e-07
1.61815e-06
-1.0665e-07
7.47861e-07
-1.20803e-05
-4.97795e-06
1.75274e-07
2.37779e-06
-6.32746e-06
7.06737e-08
2.55607e-06
-7.73301e-06
-6.3971e-09
2.63504e-06
-9.1223e-06
-5.43338e-08
2.58002e-06
-1.03842e-05
-8.75685e-08
2.36231e-06
-1.13904e-05
-1.07405e-07
1.96412e-06
-1.20051e-05
-1.17236e-07
1.38096e-06
-1.20086e-07
6.0468e-07
-1.20774e-05
-4.87628e-06
1.82637e-06
4.40876e-07
-6.19577e-06
2.02496e-06
3.41231e-07
-7.58203e-06
2.11864e-06
2.60612e-07
-8.94544e-06
2.08639e-06
1.95049e-07
-1.01856e-05
1.90879e-06
1.41087e-07
-1.11888e-05
1.57562e-06
9.65375e-08
-1.184e-05
1.08707e-06
5.93533e-08
4.4177e-07
2.7945e-08
-1.2019e-05
-5.69049e-06
4.03551e-07
-4.09187e-08
2.89646e-06
-7.29527e-06
4.782e-07
-1.54012e-07
3.32084e-06
-9.0909e-06
5.40688e-07
-2.37426e-07
3.63485e-06
-1.10565e-05
5.82947e-07
-2.99019e-07
3.80231e-06
-1.31646e-05
6.06456e-07
-3.40482e-07
3.79794e-06
-1.53868e-05
6.11736e-07
-3.62134e-07
3.60992e-06
-1.76888e-05
5.93914e-07
-3.65497e-07
3.23852e-06
5.5089e-07
-3.52337e-07
-2.00901e-05
2.73522e-06
-6.03007e-06
4.28224e-07
3.71719e-06
-7.58075e-06
4.72966e-07
4.12381e-06
-9.3211e-06
5.1074e-07
4.42412e-06
-1.1234e-05
5.31858e-07
4.57064e-06
-1.32899e-05
5.37197e-07
4.52338e-06
-1.54523e-05
5.28029e-07
4.2566e-06
-1.76885e-05
5.03436e-07
3.76522e-06
4.60939e-07
-2.00499e-05
3.12218e-06
-6.22e-06
2.48734e-07
4.26471e-06
-7.73706e-06
2.60106e-07
4.65243e-06
-9.43693e-06
2.64654e-07
4.94946e-06
-1.13111e-05
2.59995e-07
5.09351e-06
-1.33347e-05
2.48606e-07
5.02903e-06
-1.54691e-05
2.32656e-07
4.71604e-06
-1.76756e-05
2.13406e-07
4.14215e-06
1.90616e-07
-2.00212e-05
3.39574e-06
-6.26096e-06
2.45329e-08
4.47558e-06
-7.77585e-06
-2.11572e-08
4.84435e-06
-9.45906e-06
-6.30564e-08
5.13712e-06
-1.13129e-05
-9.90792e-08
5.28055e-06
-1.3318e-05
-1.27748e-07
5.21087e-06
-1.5437e-05
-1.46781e-07
4.88155e-06
-1.763e-05
-1.54062e-07
4.27688e-06
-1.4806e-07
-1.99692e-05
3.4912e-06
-6.23879e-06
-1.63594e-07
4.27375e-06
-7.74331e-06
-2.52349e-07
4.6533e-06
-9.42348e-06
-3.34118e-07
4.94561e-06
-1.12749e-05
-3.99125e-07
5.08625e-06
-1.3276e-05
-4.45198e-07
5.01846e-06
-1.53903e-05
-4.70086e-07
4.70192e-06
-1.75805e-05
-4.70045e-07
4.12433e-06
-4.41776e-07
-1.9913e-05
3.37412e-06
-6.07688e-06
-1.80889e-07
3.71927e-06
-7.59115e-06
-2.9931e-07
4.1172e-06
-9.29143e-06
-4.09649e-07
4.41079e-06
-1.11629e-05
-4.98887e-07
4.55121e-06
-1.3178e-05
-5.65399e-07
4.49766e-06
-1.53021e-05
-6.06318e-07
4.22448e-06
-1.75047e-05
-6.13441e-07
3.72694e-06
-5.82763e-07
-1.98369e-05
3.07793e-06
-5.70967e-06
1.21059e-07
2.89205e-06
-7.26376e-06
-3.05744e-08
3.31025e-06
-9.00529e-06
-1.67536e-07
3.61801e-06
-1.09178e-05
-2.789e-07
3.77891e-06
-1.29741e-05
-3.67367e-07
3.76713e-06
-1.51464e-05
-4.29475e-07
3.57101e-06
-1.74018e-05
-4.62069e-07
3.19115e-06
-4.63604e-07
-1.97585e-05
2.67946e-06
-1.37844e-06
2.12943e-07
1.66735e-07
-1.85303e-07
-1.57851e-06
2.07922e-07
1.79854e-07
-1.87651e-07
-1.90387e-06
2.74583e-07
1.86443e-07
-1.35031e-07
-2.27263e-06
2.9713e-07
1.7996e-07
-1.08337e-07
-2.66006e-06
3.19344e-07
1.62135e-07
-9.45707e-08
-3.04491e-06
3.35353e-07
1.33895e-07
-8.50265e-08
-3.39766e-06
3.3221e-07
9.72534e-08
-7.59018e-08
3.39417e-07
5.29552e-08
-6.78768e-08
-3.72141e-06
-1.21456e-06
1.7451e-07
2.49884e-07
-1.39449e-06
1.27167e-07
2.60717e-07
-1.63335e-06
2.37502e-07
2.76001e-07
-1.86743e-06
2.52756e-07
2.77791e-07
-2.08859e-06
2.68625e-07
2.71408e-07
-2.28567e-06
2.78272e-07
2.54911e-07
-2.46406e-06
2.83976e-07
2.26541e-07
3.25532e-07
2.00154e-07
-2.65033e-06
-1.12384e-06
-2.20572e-08
3.38765e-07
-1.28407e-06
-4.43102e-08
3.31766e-07
-1.39557e-06
-2.61699e-09
3.52022e-07
-1.52064e-06
4.79753e-09
3.73397e-07
-1.65799e-06
2.04602e-08
3.85481e-07
-1.81649e-06
4.65725e-08
3.90027e-07
-1.98457e-06
6.94754e-08
3.82618e-07
8.2811e-08
3.82183e-07
-2.12398e-06
-1.22861e-06
-2.03831e-07
3.97054e-07
-1.44571e-06
-1.98864e-07
3.73545e-07
-1.59381e-06
-2.52741e-07
4.00237e-07
-1.75322e-06
-2.78133e-07
4.4048e-07
-1.89216e-06
-3.14887e-07
4.74327e-07
-2.00093e-06
-3.39587e-07
4.94979e-07
-2.07502e-06
-3.53933e-07
4.97585e-07
-3.76492e-07
4.93075e-07
-2.10872e-06
-1.00614e-06
-3.81326e-07
3.18927e-07
-1.21072e-06
-3.12754e-07
3.17785e-07
-1.38219e-06
-4.15656e-07
3.34314e-07
-1.58205e-06
-4.3148e-07
3.53733e-07
-1.80008e-06
-4.63033e-07
3.66273e-07
-1.99209e-06
-5.09093e-07
3.62102e-07
-2.15397e-06
-5.34284e-07
3.4252e-07
-5.11793e-07
3.09219e-07
-2.32847e-06
-1.17578e-06
-3.6758e-07
2.4534e-07
-1.37948e-06
-3.58932e-07
2.51338e-07
-1.64916e-06
-4.07991e-07
2.6219e-07
-1.91262e-06
-4.31767e-07
2.6325e-07
-2.1848e-06
-4.39254e-07
2.49017e-07
-2.46731e-06
-4.58008e-07
2.30223e-07
-2.72455e-06
-4.80679e-07
2.0236e-07
-4.81625e-07
1.66239e-07
-2.91987e-06
-1.24877e-06
1.66818e-07
-2.81277e-07
-1.53014e-06
1.86166e-07
-2.63188e-07
-1.9065e-06
1.95041e-07
-2.27179e-07
-2.31926e-06
1.89425e-07
-2.0764e-07
-2.73443e-06
1.73602e-07
-1.98449e-07
-3.14775e-06
1.48148e-07
-1.937e-07
-3.54884e-06
1.13844e-07
-1.9235e-07
7.2598e-08
-1.92401e-07
-3.91056e-06
-1.41254e-06
2.57611e-07
4.74361e-07
-1.48243e-07
-1.89269e-06
2.9291e-07
5.02084e-07
-1.34905e-07
-2.39117e-06
3.0227e-07
5.02624e-07
-1.19828e-07
-2.882e-06
3.07939e-07
4.7135e-07
-1.08375e-07
-3.34539e-06
3.13655e-07
4.11266e-07
-9.93149e-08
-3.76639e-06
3.18787e-07
3.28042e-07
-9.19224e-08
-4.1346e-06
3.22586e-07
2.28522e-07
-8.56244e-08
3.2464e-07
1.18818e-07
-8.01391e-08
-4.44496e-06
-1.3764e-06
1.96188e-07
7.00809e-07
-1.75832e-06
2.24801e-07
7.10942e-07
-2.15642e-06
2.52197e-07
7.24273e-07
-2.55336e-06
2.70846e-07
7.11954e-07
-2.92815e-06
2.90234e-07
6.69575e-07
-3.26426e-06
3.09409e-07
6.00418e-07
-3.55372e-06
3.26708e-07
5.11895e-07
3.42485e-07
4.1222e-07
-3.78362e-06
-1.13568e-06
-3.00598e-08
9.61313e-07
-1.46789e-06
-1.90159e-08
9.07836e-07
-1.79588e-06
-4.30788e-09
9.36669e-07
-2.11235e-06
3.04373e-09
9.57821e-07
-2.39987e-06
1.10343e-08
9.52221e-07
-2.64007e-06
2.13487e-08
9.18231e-07
-2.82409e-06
3.2522e-08
8.60715e-07
4.29188e-08
7.86688e-07
-2.92936e-06
-1.06175e-06
-2.89708e-07
1.07729e-06
-1.40128e-06
-2.90667e-07
9.84331e-07
-1.71922e-06
-3.03203e-07
1.01762e-06
-2.01317e-06
-3.13866e-07
1.05144e-06
-2.26217e-06
-3.26094e-07
1.06051e-06
-2.45046e-06
-3.36742e-07
1.04142e-06
-2.5732e-06
-3.45569e-07
9.98431e-07
-3.53687e-07
9.39233e-07
-2.62276e-06
-1.12015e-06
-4.61839e-07
9.19399e-07
-1.49224e-06
-4.79502e-07
8.78789e-07
-1.85909e-06
-5.03182e-07
9.01148e-07
-2.20863e-06
-5.20001e-07
9.09476e-07
-2.52032e-06
-5.36633e-07
8.88531e-07
-2.78106e-06
-5.5274e-07
8.38847e-07
-2.98493e-06
-5.65976e-07
7.66878e-07
-5.75834e-07
6.8166e-07
-3.13516e-06
-1.30943e-06
-4.58507e-07
6.8647e-07
-1.75073e-06
-4.85647e-07
6.98907e-07
-2.20684e-06
-4.89983e-07
7.0528e-07
-2.65481e-06
-4.91334e-07
6.82633e-07
-3.07907e-06
-4.9258e-07
6.2929e-07
-3.45743e-06
-4.93425e-07
5.49339e-07
-3.77731e-06
-4.9364e-07
4.49829e-07
-4.92457e-07
3.39866e-07
-4.03434e-06
-1.30827e-06
4.85292e-07
-3.09591e-07
-1.83169e-06
5.16623e-07
-2.92514e-07
-2.36985e-06
5.18765e-07
-2.75458e-07
-2.89852e-06
4.89231e-07
-2.62408e-07
-3.3966e-06
4.31373e-07
-2.52158e-07
-3.84868e-06
3.50866e-07
-2.44076e-07
-4.2454e-06
2.54664e-07
-2.37723e-07
1.49353e-07
-2.3264e-07
-4.58197e-06
-2.07981e-06
3.58443e-07
9.6518e-07
-1.54487e-07
-2.85128e-06
3.81206e-07
1.03412e-06
-1.4161e-07
-3.65225e-06
3.81849e-07
1.05332e-06
-1.31454e-07
-4.45303e-06
3.78401e-07
1.01728e-06
-1.23453e-07
-5.22554e-06
3.72393e-07
9.27972e-07
-1.16487e-07
-5.94033e-06
3.63913e-07
7.89014e-07
-1.10024e-07
-6.56592e-06
3.5329e-07
6.04552e-07
-1.03668e-07
3.41143e-07
3.82005e-07
-9.71647e-08
-7.07303e-06
-1.91881e-06
3.17829e-07
1.37115e-06
-2.58427e-06
3.34597e-07
1.42311e-06
-3.27843e-06
3.40104e-07
1.46025e-06
-3.98139e-06
3.44206e-07
1.44916e-06
-4.66954e-06
3.47425e-07
1.38274e-06
-5.3142e-06
3.48227e-07
1.26078e-06
-5.88046e-06
3.46587e-07
1.08486e-06
3.43005e-07
8.61473e-07
-6.33158e-06
-1.5915e-06
3.06481e-08
1.76679e-06
-2.14012e-06
2.82472e-08
1.76289e-06
-2.71705e-06
2.68116e-08
1.82699e-06
-3.3041e-06
2.71419e-08
1.86213e-06
-3.87821e-06
2.9202e-08
1.84453e-06
-4.41092e-06
3.21107e-08
1.76715e-06
-4.86608e-06
3.50389e-08
1.62738e-06
3.77346e-08
1.4303e-06
-5.2044e-06
-1.46625e-06
-3.4836e-07
1.93083e-06
-1.97705e-06
-3.62797e-07
1.88622e-06
-2.52215e-06
-3.66713e-07
1.95627e-06
-3.0814e-06
-3.68381e-07
2.00626e-06
-3.62897e-06
-3.67273e-07
2.00456e-06
-4.1347e-06
-3.61987e-07
1.94128e-06
-4.55993e-06
-3.52803e-07
1.81152e-06
-3.40992e-07
1.6194e-06
-4.86145e-06
-1.6251e-06
-5.89906e-07
1.71204e-06
-2.2151e-06
-6.12836e-07
1.71887e-06
-2.82997e-06
-6.23472e-07
1.77287e-06
-3.45094e-06
-6.2978e-07
1.79194e-06
-4.05542e-06
-6.31575e-07
1.75736e-06
-4.61542e-06
-6.27921e-07
1.66482e-06
-5.09533e-06
-6.19149e-07
1.51318e-06
-6.06118e-07
1.30776e-06
-5.45628e-06
-1.88359e-06
-5.69716e-07
1.34607e-06
-2.60163e-06
-5.95167e-07
1.39936e-06
-3.34699e-06
-5.99584e-07
1.42682e-06
-4.09836e-06
-5.98179e-07
1.40247e-06
-4.82978e-06
-5.92647e-07
1.32186e-06
-5.51037e-06
-5.83446e-07
1.1855e-06
-6.10383e-06
-5.70914e-07
9.95088e-07
-5.55534e-07
7.5682e-07
-6.57134e-06
-1.95844e-06
9.72665e-07
-3.33073e-07
-2.75778e-06
1.04674e-06
-3.25826e-07
-3.58883e-06
1.06921e-06
-3.18868e-07
-4.42097e-06
1.03679e-06
-3.13519e-07
-5.22523e-06
9.51863e-07
-3.08803e-07
-5.97169e-06
8.17979e-07
-3.04054e-07
-6.62809e-06
6.38951e-07
-2.98764e-07
4.21723e-07
-2.92556e-07
-7.1634e-06
-3.85383e-06
5.01341e-07
1.88833e-06
-1.42515e-07
-5.26284e-06
4.85258e-07
2.08256e-06
-1.24712e-07
-6.72739e-06
4.54798e-07
2.17411e-06
-1.11022e-07
-8.16261e-06
4.13868e-07
2.13856e-06
-9.99413e-08
-9.46625e-06
3.65643e-07
1.95597e-06
-9.0001e-08
-1.05248e-05
3.12869e-07
1.61524e-06
-8.05331e-08
-1.12198e-05
2.57634e-07
1.11355e-06
-7.10295e-08
2.01287e-07
4.48387e-07
-6.10283e-08
-1.14258e-05
-3.4848e-06
4.93053e-07
2.556e-06
-4.78284e-06
4.62057e-07
2.74436e-06
-6.15814e-06
4.29774e-07
2.8606e-06
-7.54124e-06
3.947e-07
2.85142e-06
-8.82767e-06
3.54983e-07
2.67985e-06
-9.88789e-06
3.11715e-07
2.32222e-06
-1.05787e-05
2.66501e-07
1.76685e-06
2.20676e-07
9.93071e-07
-1.07238e-05
-2.95465e-06
9.32064e-08
3.1105e-06
-4.06923e-06
7.09759e-08
3.26851e-06
-5.29809e-06
5.80745e-08
3.42756e-06
-6.56988e-06
4.99752e-08
3.47864e-06
-7.77768e-06
4.43005e-08
3.36307e-06
-8.78159e-06
4.00057e-08
3.04281e-06
-9.42055e-06
3.62681e-08
2.49685e-06
3.2106e-08
1.68343e-06
-9.48373e-06
-2.73913e-06
-4.48122e-07
3.33226e-06
-3.79779e-06
-4.37899e-07
3.45366e-06
-4.98962e-06
-4.16228e-07
3.62238e-06
-6.23852e-06
-3.89945e-07
3.69508e-06
-7.43576e-06
-3.58228e-07
3.60443e-06
-8.43798e-06
-3.23047e-07
3.30595e-06
-9.07447e-06
-2.8713e-07
2.77238e-06
-2.52654e-07
1.95147e-06
-9.12078e-06
-3.05517e-06
-7.85413e-07
3.05304e-06
-4.22523e-06
-7.63827e-07
3.21487e-06
-5.49655e-06
-7.31716e-07
3.35971e-06
-6.79863e-06
-6.88988e-07
3.39311e-06
-8.02565e-06
-6.35965e-07
3.26215e-06
-9.03956e-06
-5.75966e-07
2.93168e-06
-9.68322e-06
-5.12316e-07
2.38207e-06
-4.47158e-07
1.57175e-06
-9.75269e-06
-3.50295e-06
-7.29975e-07
2.52398e-06
-4.85636e-06
-7.22132e-07
2.71107e-06
-6.28168e-06
-6.97363e-07
2.81778e-06
-7.70642e-06
-6.59156e-07
2.79739e-06
-9.02519e-06
-6.10982e-07