/*--------------------------------*- C++ -*----------------------------------*\
| =========                 |                                                 |
| \\      /  F ield         | OpenFOAM: The Open Source CFD Toolbox           |
|  \\    /   O peration     | Version:  plus.master                           |
|   \\  /    A nd           | Web:      www.OpenFOAM.com                      |
|    \\/     M anipulation  |                                                 |
\*---------------------------------------------------------------------------*/
FoamFile
{
    version     2.0;
    format      ascii;
    class       volScalarField;
    location    "8.2";
    object      p_rgh;
}
// * * * * * * * * * * * * * * * * * * * * * * * * * * * * * * * * * * * * * //

dimensions      [1 -1 -2 0 0 0 0];

internalField   nonuniform List<scalar> 
47285
(
5695.3
5691.76
5690.92
5691.56
5691.25
5692.43
5695.27
5691.99
5653.01
5658.28
5663.39
5652.68
5656.7
5691.86
5690.97
5652.49
5631.05
5631.24
5631.59
5661.32
5691
5691.68
5663.25
5630.93
5628.59
5631.93
5666.04
5691.85
5691.12
5655.03
5630.98
5631.02
5631.7
5662.48
5690.9
5692.08
5653.17
5656.06
5661.99
5650.96
5656.36
5692.09
5695.54
5691.76
5690.89
5691.23
5690.98
5692.33
5695.12
5710.19
5711.99
5713.61
5713.93
5712.93
5711.15
5709.37
5712.09
5690.85
5713.22
5708.94
5700.79
5706.98
5711.17
5714.12
5687.11
5582.92
5571.23
5601.9
5717.17
5712.7
5714.87
5712.89
5574.69
5551.78
5578.26
5717.12
5713.28
5714.4
5692.08
5579.27
5564.79
5594.32
5717.37
5712.85
5712.43
5681.51
5700.16
5700.32
5690.47
5707.97
5711.24
5710.53
5712.4
5714.14
5714.23
5713.32
5711.38
5709.52
5715.38
5718.78
5721.88
5722.66
5720.97
5717.86
5714.33
5718.88
5723.93
5728.96
5719.96
5727.94
5722.88
5717.85
5721.79
5718.58
5556.29
5492.49
5613.84
5727.46
5720.73
5722.95
5730.66
5511.97
5438.3
5509.69
5729.34
5721.93
5722.19
5719.11
5539.37
5471.26
5584.64
5728.06
5721.09
5719.43
5724.24
5723.82
5702.94
5720.15
5723.35
5718.24
5716.01
5719.63
5722.51
5723.38
5721.59
5718.41
5714.79
5709.94
5714.99
5718.86
5720.17
5717.53
5713.04
5708.14
5715.04
5722.22
5728.64
5714.37
5727.04
5720.1
5713.12
5719.43
5726.34
5528.13
5416.07
5619.23
5726.78
5717.51
5721.44
5733.34
5439.72
5312.94
5464.62
5731.02
5719.93
5720.04
5724.66
5497.26
5374.46
5576.02
5727.99
5718.21
5715.91
5723.36
5725.25
5687.15
5728.52
5721.62
5714.2
5710.93
5716.2
5720.34
5722.07
5719.21
5714.44
5709.18
5677.37
5683.26
5688.38
5690.19
5686.13
5680.53
5675.18
5683.35
5692.78
5702.25
5683.49
5698.09
5688.66
5680.39
5689.03
5702.77
5474.31
5329.93
5609.14
5697.05
5685.38
5691.96
5705.97
5327.72
5162.03
5444.92
5702.2
5688.13
5689.84
5702.85
5426.16
5259.8
5558.79
5698.94
5686.34
5684.41
5694.36
5701.1
5645.77
5701.14
5690.68
5681.62
5678.46
5684.75
5690.43
5692.99
5688.33
5682.12
5676.23
5697.83
5699.66
5700.89
5701.7
5702.26
5702.67
5702.96
5703.17
5696.51
5699.46
5700.68
5701.61
5702.26
5702.72
5703.04
5703.27
5695.75
5699.21
5700.68
5701.62
5702.31
5702.79
5703.12
5703.37
5696.39
5699.49
5700.88
5701.73
5702.37
5702.88
5703.17
5703.29
5695.78
5699.25
5700.75
5701.66
5702.33
5702.81
5703.14
5703.36
5696.32
5699.33
5700.78
5701.64
5702.3
5702.76
5703.04
5703.26
5697.91
5699.81
5700.97
5701.78
5702.36
5702.76
5703.04
5703.23
5707.93
5706.95
5706.21
5705.65
5705.22
5704.9
5704.66
5704.5
5709.15
5707.74
5706.71
5705.97
5705.43
5705.03
5704.75
5704.55
5710.23
5708.45
5707.16
5706.25
5705.6
5705.14
5704.8
5704.58
5710.78
5708.85
5707.41
5706.4
5705.7
5705.2
5704.84
5704.6
5710.36
5708.55
5707.22
5706.29
5705.63
5705.16
5704.82
5704.59
5709.27
5707.85
5706.8
5706.04
5705.49
5705.08
5704.79
5704.59
5708.08
5707.1
5706.34
5705.76
5705.32
5704.98
5704.73
5704.55
5711.31
5709.17
5707.47
5706.12
5705.05
5704.24
5703.65
5703.27
5713.72
5710.75
5708.52
5706.8
5705.49
5704.51
5703.8
5703.36
5715.71
5712.11
5709.37
5707.32
5705.79
5704.67
5703.88
5703.39
5716.72
5712.79
5709.79
5707.58
5705.96
5704.77
5703.94
5703.42
5715.98
5712.29
5709.49
5707.42
5705.87
5704.73
5703.92
5703.41
5714.05
5711.03
5708.72
5706.96
5705.61
5704.59
5703.86
5703.38
5711.68
5709.48
5707.74
5706.35
5705.25
5704.4
5703.77
5703.35
5704.13
5701.37
5699.38
5698.06
5697.38
5697.35
5697.99
5699.28
5707.41
5703.46
5700.63
5698.73
5697.67
5697.4
5697.94
5699.26
5710.23
5705.23
5701.68
5699.31
5697.93
5697.46
5697.91
5699.23
5711.89
5706.27
5702.31
5699.7
5698.17
5697.6
5697.99
5699.28
5710.78
5705.65
5702.01
5699.59
5698.16
5697.65
5698.07
5699.34
5708.17
5704.07
5701.16
5699.17
5698.03
5697.7
5698.19
5699.45
5704.86
5701.97
5699.89
5698.51
5697.78
5697.71
5698.3
5699.53
5671.37
5668.63
5666.67
5665.32
5664.39
5663.44
5662.21
5662.58
5674.55
5670.63
5667.87
5665.98
5664.74
5663.61
5662.18
5662.34
5677.36
5672.29
5668.83
5666.52
5665.02
5663.73
5662.15
5662.19
5678.93
5673.23
5669.42
5666.92
5665.29
5663.92
5662.28
5662.24
5677.93
5672.7
5669.15
5666.78
5665.24
5663.92
5662.33
5662.32
5675.32
5671.2
5668.3
5666.33
5665.04
5663.89
5662.44
5662.54
5672.03
5669.11
5667.03
5665.61
5664.66
5663.72
5662.49
5662.81
5698.56
5700.17
5701.31
5702.12
5702.69
5703.09
5703.38
5703.59
5697.26
5699.62
5701.03
5702.01
5702.67
5703.06
5703.35
5703.57
5696.8
5699.54
5700.97
5702.05
5702.77
5703.23
5703.57
5703.77
5697.04
5699.67
5701.05
5702.19
5702.96
5703.45
5703.77
5704
5696.81
5699.49
5700.89
5701.97
5702.67
5703.08
5703.27
5703.49
5697.12
5699.49
5700.94
5701.87
5702.53
5702.99
5703.24
5703.42
5698.41
5700.09
5701.22
5702.02
5702.6
5703
5703.29
5703.51
5708.99
5707.88
5707.04
5706.38
5705.86
5705.46
5705.15
5704.91
5710.32
5708.77
5707.62
5706.76
5706.1
5705.59
5705.19
5704.89
5711.65
5709.71
5708.26
5707.2
5706.43
5705.85
5705.41
5705.09
5712.06
5710.02
5708.51
5707.44
5706.66
5706.07
5705.62
5705.28
5711.42
5709.48
5708.06
5707.03
5706.27
5705.69
5705.24
5704.89
5710.07
5708.55
5707.41
5706.57
5705.93
5705.44
5705.06
5704.77
5708.72
5707.64
5706.81
5706.17
5705.66
5705.27
5704.96
5704.73
5712.79
5710.5
5708.65
5707.18
5706.02
5705.1
5704.4
5703.91
5715.18
5712.08
5709.66
5707.78
5706.33
5705.22
5704.39
5703.82
5717.18
5713.54
5710.67
5708.44
5706.75
5705.5
5704.57
5703.94
5717.79
5714.01
5711.01
5708.7
5706.95
5705.64
5704.71
5704.06
5716.83
5713.21
5710.36
5708.17
5706.49
5705.23
5704.3
5703.65
5714.75
5711.7
5709.33
5707.49
5706.07
5704.99
5704.19
5703.64
5712.29
5710.05
5708.25
5706.81
5705.66
5704.77
5704.09
5703.63
5706.27
5703.19
5700.94
5699.41
5698.53
5698.31
5698.73
5699.79
5709.58
5705.18
5701.96
5699.75
5698.42
5697.91
5698.22
5699.14
5712.47
5707.14
5703.13
5700.35
5698.63
5697.89
5698.06
5698.99
5713.45
5707.84
5703.59
5700.61
5698.77
5697.92
5698.06
5699.06
5711.95
5706.65
5702.7
5699.98
5698.31
5697.57
5697.74
5698.74
5708.9
5704.61
5701.5
5699.38
5698.12
5697.64
5697.96
5699.03
5705.48
5702.5
5700.34
5698.89
5698.08
5697.93
5698.44
5699.6
5673.67
5670.61
5668.41
5666.91
5665.91
5664.97
5663.81
5664.24
5676.97
5672.26
5669.05
5666.94
5665.59
5664.45
5663.18
5663.75
5680.18
5674.01
5669.55
5666.94
5665.46
5664.2
5662.89
5663.83
5681.39
5674.7
5670.12
5667.17
5665.4
5664.1
5662.8
5663.88
5679.61
5673.6
5669.5
5666.88
5665.28
5664.03
5662.11
5661.01
5676.27
5671.76
5668.66
5666.32
5664.53
5663.42
5662.48
5663.44
5672.91
5669.98
5667.87
5666.44
5665.5
5664.58
5663.43
5663.91
5698.32
5700.08
5701.2
5702.01
5702.58
5702.97
5703.24
5703.43
5696.75
5699.41
5700.91
5701.93
5702.58
5703.02
5703.32
5703.5
5696.47
5699.41
5700.83
5701.99
5702.76
5703.28
5703.59
5703.76
5696.96
5699.53
5700.85
5701.97
5702.68
5703.17
5703.52
5703.74
5696.7
5699.38
5700.73
5701.75
5702.41
5702.88
5703.2
5703.36
5697.43
5699.68
5700.85
5701.76
5702.36
5702.76
5703.04
5703.24
5698.31
5699.79
5700.88
5701.71
5702.31
5702.77
5703.11
5703.37
5708.71
5707.66
5706.83
5706.19
5705.69
5705.3
5704.99
5704.76
5709.99
5708.53
5707.42
5706.6
5705.97
5705.49
5705.11
5704.83
5711.06
5709.25
5707.9
5706.94
5706.23
5705.72
5705.33
5705.03
5711.3
5709.35
5707.92
5706.91
5706.18
5705.64
5705.24
5704.93
5710.5
5708.74
5707.44
5706.51
5705.82
5705.31
5704.93
5704.65
5709.24
5707.86
5706.84
5706.08
5705.51
5705.08
5704.75
5704.52
5707.99
5707.02
5706.27
5705.7
5705.26
5704.92
5704.67
5704.49
5712.28
5710.06
5708.25
5706.81
5705.67
5704.77
5704.1
5703.64
5714.73
5711.71
5709.32
5707.48
5706.06
5704.98
5704.19
5703.65
5716.72
5713.07
5710.21
5708.04
5706.41
5705.21
5704.36
5703.79
5717.17
5713.3
5710.28
5707.99
5706.28
5705.02
5704.13
5703.54
5715.96
5712.35
5709.58
5707.48
5705.9
5704.72
5703.89
5703.33
5713.77
5710.82
5708.55
5706.8
5705.46
5704.44
5703.71
5703.23
5711.38
5709.27
5707.56
5706.18
5705.1
5704.27
5703.66
5703.27
5705.4
5702.44
5700.29
5698.85
5698.07
5697.95
5698.51
5699.72
5708.8
5704.49
5701.39
5699.32
5698.12
5697.73
5698.16
5699.39
5711.48
5706.32
5702.4
5699.77
5698.23
5697.67
5698.04
5699.28
5712.16
5706.59
5702.44
5699.63
5697.97
5697.33
5697.66
5698.85
5710.28
5705.23
5701.55
5699.07
5697.63
5697.12
5697.52
5698.78
5707.2
5703.24
5700.4
5698.47
5697.38
5697.07
5697.57
5698.85
5704.18
5701.49
5699.5
5698.14
5697.42
5697.36
5697.96
5699.21
5672.77
5669.8
5667.69
5666.27
5665.34
5664.44
5663.32
5663.8
5676.12
5671.65
5668.59
5666.59
5665.34
5664.28
5663.02
5663.45
5679.02
5673.16
5669.17
5666.63
5665.02
5663.6
5662.39
5663.11
5679.9
5673.53
5669.21
5666.49
5664.59
5663.09
5661.7
5662.47
5677.64
5672.22
5668.51
5666.11
5664.26
5662.93
5661.54
5662.14
5674.4
5670.46
5667.69
5665.83
5664.45
5663.2
5662.28
5662.74
5671.53
5668.89
5666.89
5665.48
5664.52
5663.56
5662.34
5662.78
5698.4
5700.02
5701.06
5701.85
5702.43
5702.86
5703.19
5703.43
5697.6
5699.85
5701.04
5701.94
5702.54
5702.92
5703.2
5703.4
5696.95
5699.79
5701
5702.05
5702.72
5703.15
5703.4
5703.54
5696.68
5699.68
5701.05
5702.17
5702.91
5703.43
5703.79
5704.02
5696.5
5699.58
5701.03
5702.14
5702.86
5703.34
5703.65
5703.84
5696.86
5699.64
5701.11
5702.09
5702.77
5703.24
5703.54
5703.72
5698.49
5700.23
5701.35
5702.15
5702.72
5703.12
5703.39
5703.58
5708.19
5707.2
5706.44
5705.85
5705.39
5705.03
5704.76
5704.56
5709.52
5708.12
5707.07
5706.29
5705.7
5705.24
5704.88
5704.61
5710.89
5709.1
5707.77
5706.81
5706.09
5705.54
5705.12
5704.8
5711.73
5709.75
5708.28
5707.24
5706.47
5705.91
5705.48
5705.16
5711.51
5709.65
5708.26
5707.25
5706.5
5705.94
5705.5
5705.17
5710.36
5708.86
5707.71
5706.84
5706.18
5705.67
5705.28
5704.97
5708.99
5707.9
5707.05
5706.39
5705.88
5705.48
5705.17
5704.93
5711.8
5709.63
5707.87
5706.46
5705.33
5704.46
5703.81
5703.37
5714.32
5711.31
5708.98
5707.17
5705.77
5704.71
5703.93
5703.4
5716.62
5712.98
5710.14
5707.96
5706.31
5705.07
5704.16
5703.54
5717.91
5714.03
5710.96
5708.61
5706.85
5705.55
5704.62
5704
5717.43
5713.76
5710.84
5708.58
5706.86
5705.57
5704.63
5703.98
5715.45
5712.31
5709.83
5707.93
5706.47
5705.36
5704.53
5703.97
5712.82
5710.52
5708.67
5707.2
5706.04
5705.12
5704.43
5703.94
5704.98
5702.16
5700.06
5698.62
5697.83
5697.68
5698.21
5699.39
5708.33
5704.13
5701.09
5699.01
5697.78
5697.35
5697.74
5698.89
5711.69
5706.38
5702.45
5699.76
5698.14
5697.48
5697.73
5698.81
5713.71
5707.93
5703.55
5700.52
5698.68
5697.91
5698.1
5699.15
5712.82
5707.41
5703.29
5700.45
5698.74
5698.02
5698.24
5699.31
5709.86
5705.41
5702.13
5699.91
5698.59
5698.11
5698.47
5699.61
5706.29
5703.2
5700.95
5699.42
5698.57
5698.37
5698.86
5699.98
5672.28
5669.51
5667.39
5665.89
5664.84
5663.84
5662.62
5663
5675.44
5671.15
5668.13
5666.09
5664.79
5663.68
5662.39
5662.89
5679.16
5673.25
5669.18
5666.55
5664.95
5663.71
5662.39
5663.21
5681.74
5674.82
5670.1
5667.11
5665.31
5663.96
5662.61
5663.57
5680.54
5674.28
5669.97
5667.22
5665.57
5664.32
5663
5663.77
5677.25
5672.51
5669.24
5667.13
5665.8
5664.7
5663.43
5663.85
5673.66
5670.56
5668.37
5666.9
5665.96
5665.06
5663.94
5664.38
5703.32
5703.45
5703.52
5703.43
5703.49
5703.45
5703.36
5704.41
5704.46
5704.47
5704.49
5704.48
5704.48
5704.44
5703.1
5703.18
5703.22
5703.23
5703.22
5703.18
5703.14
5700.86
5700.9
5700.91
5700.95
5700.98
5701.04
5701.03
5669.19
5669.23
5669.27
5669.36
5669.33
5669.31
5669.27
5703.71
5703.68
5703.84
5704.14
5703.61
5703.55
5703.64
5704.74
5704.67
5704.85
5705.04
5704.66
5704.58
5704.57
5703.62
5703.5
5703.58
5703.72
5703.3
5703.35
5703.36
5701.18
5699.82
5700.26
5700.35
5699.96
5700.47
5701.03
5670.73
5671.18
5672.54
5673.08
5668.49
5670.55
5670.48
5703.54
5703.61
5703.85
5703.88
5703.43
5703.37
5703.54
5704.6
5704.62
5704.83
5704.73
5704.47
5704.37
5704.38
5703.37
5703.37
5703.51
5703.25
5703.07
5703.02
5703.1
5701.2
5700.98
5700.85
5700.36
5700.38
5700.47
5700.78
5670.4
5670.54
5670.98
5670.99
5670.14
5669.99
5669.46
5703.57
5703.52
5703.6
5704.14
5703.93
5703.82
5703.69
5704.43
5704.42
5704.58
5704.95
5704.93
5704.75
5704.75
5703.13
5703.13
5703.2
5703.68
5703.62
5703.66
5703.65
5700.87
5700.37
5700.2
5700.49
5700.71
5701.08
5701.34
5669.56
5670.25
5671.66
5672.52
5672
5670.91
5670.84
5703.52
5703.67
5703.78
5703.86
5703.9
5703.91
5703.89
5703.85
5703.65
5703.8
5703.89
5703.93
5703.95
5703.94
5703.91
5703.86
5703.67
5703.82
5703.91
5703.93
5703.94
5703.93
5703.9
5703.85
5703.61
5703.74
5703.88
5703.96
5703.95
5703.91
5703.89
5703.84
5703.63
5703.78
5703.87
5703.9
5703.92
5703.91
5703.89
5703.84
5703.63
5703.77
5703.86
5703.9
5703.92
5703.91
5703.88
5703.83
5703.51
5703.65
5703.74
5703.8
5703.83
5703.84
5703.83
5703.79
5704.31
5704.12
5703.97
5703.86
5703.77
5703.71
5703.66
5703.62
5704.35
5704.18
5704.04
5703.92
5703.83
5703.76
5703.71
5703.66
5704.35
5704.2
5704.06
5703.93
5703.84
5703.77
5703.71
5703.66
5704.37
5704.23
5704.09
5703.96
5703.86
5703.78
5703.72
5703.66
5704.36
5704.19
5704.04
5703.91
5703.81
5703.75
5703.7
5703.65
5704.36
5704.16
5703.99
5703.86
5703.77
5703.71
5703.66
5703.62
5704.29
5704.07
5703.9
5703.77
5703.68
5703.62
5703.58
5703.54
5702.97
5702.96
5703.05
5703.15
5703.23
5703.29
5703.33
5703.34
5703.05
5703.04
5703.12
5703.22
5703.3
5703.35
5703.38
5703.39
5703.1
5703.07
5703.14
5703.23
5703.31
5703.36
5703.39
5703.39
5703.1
5703.07
5703.14
5703.23
5703.31
5703.36
5703.39
5703.4
5703.07
5703.05
5703.13
5703.21
5703.29
5703.34
5703.37
5703.37
5703
5703.01
5703.09
5703.18
5703.25
5703.3
5703.33
5703.34
5702.94
5702.94
5703
5703.08
5703.15
5703.2
5703.23
5703.24
5702.54
5702.61
5702.64
5702.69
5702.76
5702.83
5702.9
5702.95
5702.58
5702.65
5702.67
5702.73
5702.8
5702.87
5702.94
5703
5702.58
5702.65
5702.67
5702.73
5702.8
5702.87
5702.95
5703
5702.6
5702.65
5702.67
5702.72
5702.8
5702.87
5702.95
5703
5702.61
5702.62
5702.63
5702.68
5702.75
5702.84
5702.91
5702.97
5702.65
5702.59
5702.58
5702.62
5702.69
5702.78
5702.86
5702.93
5702.59
5702.5
5702.47
5702.5
5702.58
5702.66
5702.75
5702.82
5683.46
5692.43
5696.93
5699.38
5700.79
5701.62
5702.11
5702.41
5683.41
5692.42
5696.93
5699.4
5700.81
5701.64
5702.14
5702.44
5683.39
5692.41
5696.92
5699.39
5700.81
5701.64
5702.14
5702.44
5683.42
5692.42
5696.93
5699.4
5700.81
5701.65
5702.15
5702.45
5683.41
5692.42
5696.92
5699.39
5700.8
5701.62
5702.12
5702.42
5683.45
5692.43
5696.93
5699.38
5700.78
5701.6
5702.09
5702.39
5683.52
5692.46
5696.92
5699.34
5700.72
5701.52
5702
5702.29
5703.85
5703.96
5704.01
5704.01
5704.01
5703.99
5703.97
5703.93
5703.78
5703.83
5703.83
5703.81
5703.78
5703.75
5703.7
5703.64
5703.89
5703.86
5703.79
5703.7
5703.61
5703.55
5703.47
5703.38
5704.28
5704.29
5704.22
5704.11
5703.96
5703.85
5703.77
5703.68
5703.62
5703.61
5703.58
5703.52
5703.46
5703.43
5703.38
5703.31
5703.66
5703.73
5703.77
5703.76
5703.75
5703.73
5703.68
5703.61
5703.77
5703.88
5703.94
5703.95
5703.94
5703.92
5703.89
5703.85
5704.46
5704.16
5703.92
5703.75
5703.63
5703.56
5703.51
5703.47
5704.38
5704.08
5703.87
5703.66
5703.52
5703.45
5703.39
5703.33
5704.53
5704.19
5703.91
5703.69
5703.51
5703.36
5703.25
5703.15
5704.73
5704.39
5704.13
5703.92
5703.74
5703.59
5703.49
5703.41
5704.34
5704.01
5703.76
5703.56
5703.4
5703.27
5703.16
5703.07
5704.31
5704.06
5703.85
5703.68
5703.54
5703.43
5703.36
5703.31
5704.34
5704.07
5703.86
5703.71
5703.59
5703.52
5703.47
5703.43
5703.29
5703.11
5703.05
5703.04
5703.05
5703.07
5703.09
5703.1
5703.18
5702.94
5702.46
5702.17
5702.57
5702.91
5702.95
5702.97
5703.22
5702.95
5702.77
5702.65
5702.6
5702.68
5702.72
5702.72
5703.4
5703.2
5703.11
5703.07
5703.06
5703.05
5703.03
5703.01
5702.95
5702.69
5702.58
5702.54
5702.52
5702.53
5702.55
5702.59
5703.04
5702.81
5702.75
5702.62
5702.56
5702.8
5702.91
5702.94
5703.07
5702.96
5702.95
5702.98
5703.02
5703.05
5703.07
5703.08
5702.51
5702.35
5702.29
5702.33
5702.41
5702.49
5702.58
5702.65
5701.27
5701.37
5701.36
5701.37
5701.88
5702.4
5702.47
5702.53
5701.81
5702.15
5702.25
5702.27
5702.29
5702.35
5702.47
5702.51
5701.85
5702.15
5702.27
5702.36
5702.42
5702.48
5702.52
5702.54
5701.26
5701.44
5701.64
5701.92
5702.09
5702.24
5702.34
5702.36
5702.04
5702.1
5701.8
5701.27
5701.46
5702.27
5702.41
5702.49
5702.48
5702.38
5702.34
5702.37
5702.44
5702.52
5702.6
5702.66
5684.53
5692.98
5697.15
5699.42
5700.72
5701.47
5701.92
5702.19
5684.48
5691.97
5695.96
5698.26
5700.17
5701.1
5701.62
5701.99
5685.95
5693.4
5696.53
5698.38
5699.9
5700.68
5701.38
5702.07
5686.36
5693.97
5697.67
5699.59
5700.67
5701.36
5701.72
5701.86
5681.97
5689.9
5693.85
5697.03
5699.88
5701.02
5701.15
5701.47
5684.18
5692.35
5696.18
5698.02
5699.43
5700.95
5701.61
5701.93
5684.33
5692.85
5697.08
5699.37
5700.67
5701.44
5701.9
5702.18
5703.65
5703.76
5703.83
5703.87
5703.89
5703.9
5703.89
5703.86
5703.76
5703.83
5703.88
5703.88
5703.81
5703.76
5703.71
5703.66
5703.92
5703.94
5703.92
5703.87
5703.79
5703.71
5703.62
5703.53
5704.03
5704.07
5704.04
5703.96
5703.87
5703.77
5703.67
5703.6
5703.5
5703.54
5703.57
5703.58
5703.56
5703.52
5703.45
5703.38
5703.52
5703.65
5703.77
5703.8
5703.78
5703.74
5703.71
5703.67
5703.69
5703.81
5703.89
5703.91
5703.91
5703.9
5703.88
5703.83
5704.37
5704.1
5703.9
5703.75
5703.64
5703.58
5703.54
5703.5
5704.35
5704.11
5703.94
5703.76
5703.62
5703.51
5703.43
5703.38
5704.56
5704.26
5704.04
5703.85
5703.7
5703.57
5703.46
5703.35
5704.46
5704.18
5703.95
5703.77
5703.62
5703.51
5703.41
5703.34
5704.23
5703.97
5703.78
5703.62
5703.51
5703.39
5703.28
5703.19
5704.18
5704.01
5703.87
5703.73
5703.62
5703.53
5703.47
5703.41
5704.23
5704.07
5703.93
5703.81
5703.72
5703.66
5703.61
5703.57
5703.07
5703.02
5703.04
5703.09
5703.13
5703.17
5703.19
5703.2
5703.11
5702.96
5702.94
5702.97
5703.01
5703.04
5703.06
5703.03
5703.27
5703.18
5703.19
5703.21
5703.23
5703.23
5703.21
5703.09
5703.01
5702.89
5702.89
5702.92
5702.95
5702.96
5702.97
5702.96
5702.86
5702.78
5702.81
5702.86
5702.91
5702.95
5702.97
5702.96
5702.83
5702.74
5702.81
5702.91
5703
5703.06
5703.1
5703.1
5702.94
5702.91
5702.99
5703.09
5703.18
5703.24
5703.28
5703.29
5702.74
5702.61
5702.54
5702.55
5702.6
5702.67
5702.74
5702.79
5702.59
5702.67
5702.63
5702.63
5702.65
5702.68
5702.7
5702.7
5702.66
5702.91
5702.93
5702.93
5702.92
5702.93
5702.94
5702.69
5702.12
5702.64
5702.86
5702.91
5702.91
5702.9
5702.88
5702.85
5702.26
5702.6
5702.7
5702.72
5702.74
5702.77
5702.8
5702.78
5702.27
5702.55
5702.6
5702.64
5702.68
5702.73
5702.77
5702.79
5702.46
5702.59
5702.63
5702.68
5702.74
5702.81
5702.87
5702.93
5684.32
5692.89
5697.15
5699.46
5700.77
5701.54
5702.01
5702.29
5684.35
5692.9
5697.17
5699.49
5700.82
5701.59
5702.05
5702.32
5684.55
5692.95
5697.22
5699.55
5700.89
5701.69
5702.18
5702.49
5684.53
5692.84
5697.25
5699.6
5700.97
5701.77
5702.23
5702.47
5684.13
5692.73
5697.04
5699.41
5700.78
5701.59
5702.09
5702.38
5683.93
5692.61
5697
5699.39
5700.76
5701.57
5702.05
5702.33
5683.63
5692.51
5696.96
5699.39
5700.78
5701.6
5702.1
5702.39
5703.69
5703.79
5703.83
5703.82
5703.8
5703.77
5703.73
5703.69
5703.64
5703.68
5703.67
5703.63
5703.57
5703.51
5703.45
5703.4
5703.65
5703.62
5703.58
5703.53
5703.48
5703.41
5703.34
5703.27
5704.25
5704.23
5704.15
5704.04
5703.93
5703.82
5703.72
5703.65
5704
5703.97
5703.88
5703.79
5703.69
5703.59
5703.49
5703.4
5703.92
5703.95
5703.92
5703.87
5703.81
5703.74
5703.67
5703.61
5703.82
5703.92
5703.95
5703.96
5703.96
5703.95
5703.94
5703.91
5704.25
5704.01
5703.82
5703.67
5703.56
5703.49
5703.44
5703.4
5704.17
5703.91
5703.71
5703.53
5703.38
5703.26
5703.19
5703.15
5704.29
5703.96
5703.71
5703.51
5703.34
5703.21
5703.11
5703.04
5704.66
5704.34
5704.08
5703.87
5703.7
5703.58
5703.48
5703.41
5704.61
5704.25
5703.97
5703.73
5703.54
5703.39
5703.26
5703.15
5704.46
5704.16
5703.94
5703.74
5703.58
5703.44
5703.27
5703.22
5704.47
5704.16
5703.92
5703.75
5703.62
5703.55
5703.5
5703.46
5702.88
5702.82
5702.85
5702.9
5702.95
5703
5703.04
5703.07
5702.86
5702.67
5702.62
5702.61
5702.56
5702.28
5702.32
5702.78
5702.88
5702.65
5702.55
5702.52
5702.53
5702.46
5702.34
5702.46
5703.37
5703.15
5703.07
5703.05
5703.04
5703.03
5703.03
5702.99
5703.26
5703
5702.87
5702.8
5702.77
5702.73
5702.59
5702.56
5703.34
5703.11
5703.01
5702.98
5702.9
5702.69
5702.71
5702.85
5703.34
5703.15
5703.09
5703.07
5703.08
5703.09
5703.1
5703.11
5702.4
5702.34
5702.31
5702.33
5702.38
5702.47
5702.56
5702.64
5701.98
5702.14
5702.12
5702.08
5701.33
5701
5701.24
5702.35
5701.82
5702.13
5702.18
5702.18
5702.18
5702.01
5701.85
5702.12
5702.02
5702.34
5702.44
5702.48
5702.5
5702.54
5702.58
5702.57
5702.33
5702.6
5702.5
5702.42
5702.43
5702.46
5702.44
5702.37
5702.51
5702.48
5702.39
5702.31
5702.03
5702.06
5702.12
5702.44
5702.65
5702.49
5702.41
5702.41
5702.45
5702.52
5702.6
5702.67
5683.71
5692.52
5696.9
5699.26
5700.57
5701.33
5701.83
5702.14
5684.19
5692.76
5696.99
5698.62
5698.88
5699.58
5700.08
5701.49
5685.35
5693.42
5696.26
5697.51
5698.76
5701.1
5701.44
5701.71
5686.02
5693.68
5696.9
5699.53
5700.87
5701.43
5701.8
5702.08
5685.52
5693.54
5696.06
5697.34
5698.51
5699.13
5701.5
5702.11
5684.67
5693.05
5697.1
5699.23
5700.35
5700.91
5701.31
5701.94
5684.67
5693.12
5697.3
5699.54
5700.79
5701.52
5701.95
5702.21
5703.81
5703.77
5703.74
5703.7
5703.67
5703.65
5703.63
5703.63
5703.81
5703.78
5703.74
5703.71
5703.68
5703.66
5703.64
5703.64
5703.8
5703.77
5703.73
5703.7
5703.67
5703.65
5703.64
5703.64
5703.8
5703.76
5703.73
5703.7
5703.67
5703.65
5703.64
5703.64
5703.79
5703.76
5703.72
5703.69
5703.66
5703.64
5703.63
5703.63
5703.79
5703.75
5703.72
5703.68
5703.65
5703.63
5703.62
5703.61
5703.75
5703.71
5703.68
5703.64
5703.61
5703.59
5703.57
5703.57
5703.59
5703.57
5703.55
5703.53
5703.52
5703.5
5703.49
5703.49
5703.62
5703.6
5703.58
5703.56
5703.54
5703.53
5703.52
5703.51
5703.62
5703.6
5703.58
5703.56
5703.54
5703.53
5703.52
5703.51
5703.63
5703.6
5703.58
5703.56
5703.54
5703.53
5703.52
5703.51
5703.61
5703.59
5703.57
5703.55
5703.53
5703.52
5703.51
5703.5
5703.58
5703.56
5703.54
5703.53
5703.51
5703.5
5703.48
5703.48
5703.51
5703.5
5703.48
5703.47
5703.45
5703.44
5703.43
5703.42
5703.34
5703.34
5703.34
5703.34
5703.34
5703.34
5703.33
5703.33
5703.38
5703.39
5703.39
5703.38
5703.38
5703.38
5703.37
5703.37
5703.39
5703.39
5703.39
5703.39
5703.38
5703.38
5703.37
5703.37
5703.39
5703.39
5703.39
5703.39
5703.39
5703.38
5703.38
5703.37
5703.37
5703.37
5703.37
5703.37
5703.37
5703.36
5703.36
5703.36
5703.34
5703.34
5703.34
5703.34
5703.34
5703.34
5703.33
5703.33
5703.25
5703.26
5703.26
5703.27
5703.27
5703.27
5703.27
5703.26
5702.99
5703.01
5703.04
5703.05
5703.06
5703.07
5703.07
5703.07
5703.03
5703.06
5703.08
5703.1
5703.11
5703.12
5703.12
5703.11
5703.04
5703.06
5703.09
5703.1
5703.11
5703.12
5703.12
5703.12
5703.04
5703.07
5703.09
5703.11
5703.12
5703.12
5703.13
5703.12
5703.01
5703.04
5703.07
5703.08
5703.09
5703.1
5703.1
5703.1
5702.97
5703
5703.03
5703.05
5703.06
5703.07
5703.07
5703.07
5702.87
5702.91
5702.93
5702.96
5702.97
5702.98
5702.99
5702.99
5702.56
5702.64
5702.71
5702.75
5702.79
5702.81
5702.82
5702.82
5702.59
5702.68
5702.75
5702.79
5702.83
5702.85
5702.86
5702.86
5702.59
5702.68
5702.75
5702.8
5702.83
5702.85
5702.86
5702.86
5702.6
5702.69
5702.76
5702.8
5702.84
5702.86
5702.87
5702.87
5702.57
5702.66
5702.73
5702.78
5702.81
5702.83
5702.84
5702.85
5702.54
5702.63
5702.7
5702.75
5702.78
5702.8
5702.82
5702.82
5702.44
5702.53
5702.6
5702.65
5702.69
5702.71
5702.73
5702.73
5703.9
5703.87
5703.83
5703.79
5703.75
5703.71
5703.68
5703.68
5703.59
5703.56
5703.53
5703.5
5703.47
5703.45
5703.44
5703.43
5703.33
5703.29
5703.26
5703.24
5703.22
5703.21
5703.21
5703.22
5703.63
5703.6
5703.58
5703.56
5703.55
5703.54
5703.53
5703.55
5703.26
5703.23
5703.2
5703.19
5703.17
5703.17
5703.17
5703.17
5703.57
5703.54
5703.51
5703.47
5703.44
5703.42
5703.41
5703.41
5703.81
5703.78
5703.74
5703.7
5703.66
5703.63
5703.61
5703.6
5703.45
5703.44
5703.43
5703.42
5703.41
5703.4
5703.39
5703.38
5703.3
5703.28
5703.26
5703.25
5703.24
5703.23
5703.19
5703.16
5703.09
5703.06
5703.03
5703.01
5703
5703
5702.99
5702.93
5703.37
5703.34
5703.32
5703.3
5703.29
5703.29
5703.29
5703.28
5703.02
5702.99
5702.96
5702.95
5702.94
5702.94
5702.93
5702.88
5703.28
5703.26
5703.24
5703.23
5703.22
5703.21
5703.17
5703.15
5703.41
5703.39
5703.38
5703.37
5703.36
5703.35
5703.34
5703.33
5703.11
5703.12
5703.12
5703.13
5703.13
5703.14
5703.14
5703.14
5702.98
5702.99
5703
5703.02
5703.03
5703.04
5703.05
5703.05
5702.71
5702.71
5702.7
5702.7
5702.7
5702.7
5702.65
5702.55
5703.01
5703.01
5703.01
5703.02
5703.02
5703.02
5703.02
5702.94
5702.62
5702.63
5702.63
5702.63
5702.63
5702.64
5702.59
5702.51
5702.95
5702.96
5702.98
5702.99
5703
5703.01
5703.02
5703.02
5703.09
5703.1
5703.1
5703.11
5703.11
5703.11
5703.11
5703.11
5702.7
5702.74
5702.77
5702.79
5702.81
5702.82
5702.82
5702.82
5702.57
5702.61
5702.65
5702.66
5702.66
5702.66
5702.69
5702.71
5702.52
5702.52
5702.52
5702.51
5702.51
5702.51
5702.38
5702.29
5702.56
5702.6
5702.63
5702.64
5702.66
5702.67
5702.66
5702.52
5702.38
5702.41
5702.43
5702.43
5702.43
5702.43
5702.38
5702.28
5702.54
5702.57
5702.6
5702.62
5702.63
5702.65
5702.67
5702.68
5702.71
5702.74
5702.77
5702.79
5702.8
5702.81
5702.82
5702.82
5702.33
5702.42
5702.48
5702.53
5702.56
5702.58
5702.59
5702.59
5702.14
5702.23
5702.3
5702.33
5702.28
5702.22
5702.33
5702.39
5702.22
5702.27
5702.28
5702.34
5702.38
5702.4
5702.32
5702.23
5702.05
5702.2
5702.26
5702.3
5702.34
5702.36
5702.35
5702.22
5701.7
5702.1
5702.2
5702.22
5702.22
5702.24
5702.25
5702.24
5702.08
5702.18
5702.25
5702.29
5702.22
5702.2
5702.34
5702.36
5702.33
5702.42
5702.48
5702.53
5702.56
5702.58
5702.59
5702.59
5703.83
5703.8
5703.77
5703.74
5703.7
5703.67
5703.65
5703.64
5703.62
5703.6
5703.58
5703.56
5703.53
5703.51
5703.5
5703.49
5703.46
5703.42
5703.38
5703.35
5703.34
5703.33
5703.32
5703.33
5703.55
5703.53
5703.51
5703.5
5703.48
5703.48
5703.48
5703.49
5703.33
5703.3
5703.28
5703.27
5703.26
5703.26
5703.26
5703.27
5703.63
5703.61
5703.58
5703.56
5703.53
5703.52
5703.5
5703.51
5703.79
5703.76
5703.73
5703.7
5703.66
5703.64
5703.62
5703.62
5703.47
5703.46
5703.45
5703.44
5703.43
5703.42
5703.41
5703.4
5703.28
5703.27
5703.33
5703.32
5703.32
5703.31
5703.31
5703.3
5703.27
5703.23
5703.2
5703.18
5703.17
5703.16
5703.16
5703.16
5703.3
5703.27
5703.25
5703.24
5703.24
5703.24
5703.24
5703.25
5703.11
5703.07
5703.06
5703.06
5703.05
5703.06
5703.06
5703.07
5703.35
5703.35
5703.36
5703.35
5703.34
5703.34
5703.34
5703.33
5703.54
5703.52
5703.51
5703.49
5703.48
5703.47
5703.46
5703.46
5703.2
5703.2
5703.21
5703.22
5703.22
5703.22
5703.22
5703.21
5702.91
5702.94
5703.05
5703.04
5703.04
5703.05
5703.05
5703.06
5702.96
5702.86
5702.8
5702.79
5702.8
5703.01
5703.02
5703.02
5702.95
5702.93
5702.9
5702.88
5702.93
5702.95
5702.98
5702.98
5702.72
5702.63
5702.62
5702.62
5702.66
5702.86
5702.92
5702.9
5703.03
5703.03
5703.09
5703.09
5703.1
5703.11
5703.11
5703.11
5703.29
5703.3
5703.3
5703.3
5703.3
5703.3
5703.3
5703.29
5702.84
5702.87
5702.89
5702.91
5702.93
5702.94
5702.94
5702.94
5702.74
5702.75
5702.73
5702.73
5702.74
5702.74
5702.74
5702.74
5702.63
5702.65
5702.67
5702.63
5702.62
5702.61
5702.61
5702.6
5702.81
5702.79
5702.75
5702.66
5702.71
5702.73
5702.73
5702.73
5702.46
5702.4
5702.41
5702.41
5702.42
5702.53
5702.65
5702.68
5702.8
5702.79
5702.77
5702.8
5702.84
5702.85
5702.85
5702.85
5702.96
5702.99
5703.01
5703.03
5703.04
5703.04
5703.05
5703.04
5702.43
5702.52
5702.58
5702.63
5702.66
5702.68
5702.69
5702.7
5702.44
5702.52
5702.56
5702.6
5702.61
5702.62
5702.61
5702.6
5702.65
5702.74
5702.81
5702.87
5702.88
5702.76
5702.62
5702.51
5702.39
5702.24
5702.41
5702.43
5702.25
5702.42
5702.47
5702.39
5702.53
5702.58
5702.4
5702.38
5702.7
5702.69
5702.49
5702.41
5702.47
5702.55
5702.59
5702.61
5702.66
5702.68
5702.68
5702.67
5702.54
5702.63
5702.69
5702.74
5702.77
5702.79
5702.8
5702.81
5703.66
5703.63
5703.6
5703.57
5703.54
5703.52
5703.5
5703.5
5703.36
5703.34
5703.32
5703.3
5703.28
5703.27
5703.27
5703.28
5703.22
5703.2
5703.17
5703.16
5703.15
5703.15
5703.15
5703.16
5703.6
5703.57
5703.56
5703.54
5703.53
5703.52
5703.51
5703.52
5703.34
5703.3
5703.27
5703.24
5703.23
5703.22
5703.21
5703.22
5703.57
5703.55
5703.53
5703.5
5703.48
5703.46
5703.44
5703.44
5703.87
5703.85
5703.81
5703.77
5703.73
5703.7
5703.67
5703.66
5703.38
5703.37
5703.36
5703.35
5703.34
5703.34
5703.33
5703.33
5703.14
5703.13
5703.13
5703.12
5703.12
5703.12
5703.11
5703.11
5702.99
5702.97
5702.95
5702.94
5702.93
5702.94
5702.93
5702.92
5703.37
5703.34
5703.32
5703.31
5703.3
5703.3
5703.3
5703.27
5703.1
5703.08
5703.06
5703.04
5703.03
5703.03
5703.01
5702.99
5703.3
5703.29
5703.28
5703.27
5703.27
5703.26
5703.24
5703.23
5703.44
5703.43
5703.42
5703.41
5703.4
5703.39
5703.39
5703.38
5703.08
5703.1
5703.11
5703.12
5703.13
5703.13
5703.14
5703.14
5702.81
5702.84
5702.86
5702.88
5702.89
5702.91
5702.92
5702.93
5702.58
5702.59
5702.59
5702.6
5702.6
5702.6
5702.56
5702.55
5703.02
5703.02
5703.02
5703.03
5703.03
5703.03
5703.02
5702.96
5702.72
5702.76
5702.75
5702.75
5702.75
5702.75
5702.73
5702.68
5703.02
5703.03
5703.04
5703.05
5703.06
5703.05
5703.05
5703.06
5703.12
5703.13
5703.13
5703.14
5703.14
5703.15
5703.15
5703.15
5702.7
5702.75
5702.78
5702.81
5702.83
5702.85
5702.85
5702.85
5702.44
5702.48
5702.52
5702.55
5702.57
5702.55
5702.55
5702.6
5702.32
5702.34
5702.35
5702.36
5702.37
5702.36
5702.31
5702.28
5702.56
5702.63
5702.66
5702.68
5702.69
5702.69
5702.68
5702.6
5702.5
5702.57
5702.58
5702.58
5702.58
5702.57
5702.56
5702.56
5702.63
5702.66
5702.69
5702.71
5702.71
5702.68
5702.69
5702.71
5702.72
5702.76
5702.79
5702.81
5702.83
5702.84
5702.84
5702.84
5702.3
5702.41