/*--------------------------------*- C++ -*----------------------------------*\
| =========                 |                                                 |
| \\      /  F ield         | OpenFOAM: The Open Source CFD Toolbox           |
|  \\    /   O peration     | Version:  plus.master.MPPICInterFoam            |
|   \\  /    A nd           | Web:      www.OpenFOAM.com                      |
|    \\/     M anipulation  |                                                 |
\*---------------------------------------------------------------------------*/
FoamFile
{
    version     2.0;
    format      ascii;
    class       volScalarField;
    location    "2.8";
    object      k;
}
// * * * * * * * * * * * * * * * * * * * * * * * * * * * * * * * * * * * * * //

dimensions      [0 2 -2 0 0 0 0];

internalField   nonuniform List<scalar> 
11821
(
0.0380254
0.0408263
0.0342463
0.0388204
0.0344012
0.0300262
0.043876
0.0510332
0.053354
0.0495436
0.0436272
0.037631
0.0320974
0.0538273
0.0638891
0.0668249
0.061478
0.0527797
0.0434682
0.0358257
0.0617951
0.0722258
0.0719578
0.072181
0.0620701
0.0483991
0.0384957
0.0637156
0.069508
0.0695471
0.0755098
0.0642665
0.0494691
0.0390003
0.0567047
0.0658396
0.0704504
0.0647479
0.056142
0.0454996
0.036967
0.0465631
0.0557957
0.0589128
0.0531886
0.0464682
0.0395498
0.0334767
0.036427
0.0415147
0.0434482
0.0414328
0.0377915
0.0337253
0.0295509
0.0428839
0.0499481
0.0521142
0.0484956
0.0429425
0.037336
0.032029
0.0525613
0.0632584
0.0668626
0.0602953
0.0511716
0.0424773
0.0353893
0.0609792
0.072616
0.0755834
0.0691634
0.0587788
0.0464685
0.0376417
0.0620792
0.0726995
0.0747395
0.0705989
0.0599434
0.0470226
0.0379211
0.0543471
0.0662444
0.0698151
0.0626198
0.0529083
0.0435117
0.0359556
0.044039
0.05203
0.05473
0.0503671
0.0443478
0.0383089
0.0327671
0.0347577
0.03937
0.0412202
0.039728
0.0367209
0.0332156
0.029312
0.0414195
0.0482309
0.0504578
0.0474351
0.0425064
0.0373424
0.0322846
0.0503506
0.0618474
0.0646424
0.0584037
0.0497359
0.0418806
0.0353074
0.0590398
0.0645054
0.0714237
0.0694073
0.055852
0.0451193
0.0371276
0.0588927
0.0668557
0.0714143
0.0684889
0.0560046
0.0452317
0.0372139
0.0511952
0.0640034
0.0676264
0.0595068
0.0501468
0.0420774
0.0354385
0.0413471
0.0482527
0.0507494
0.0476592
0.0426403
0.037471
0.0325407
0.033225
0.0373947
0.0392833
0.0383776
0.0359652
0.0327802
0.0291875
0.040241
0.0466612
0.049299
0.0470669
0.0427439
0.0378346
0.03287
0.0478832
0.0574733
0.0613455
0.0567589
0.0492564
0.0420645
0.0357376
0.0548324
0.0607747
0.0657029
0.065992
0.0543473
0.0448073
0.0373889
0.0540052
0.0606788
0.0655259
0.0646663
0.0538022
0.0445679
0.0372688
0.0473892
0.0577717
0.0620149
0.0557836
0.0484029
0.0415378
0.035475
0.0391355
0.0450942
0.0477258
0.0457325
0.0417639
0.03729
0.0326611
0.0322854
0.0361307
0.0381482
0.037762
0.0357961
0.0328751
0.0293515
0.0398098
0.046134
0.0494045
0.0477255
0.0437607
0.0389302
0.0338485
0.0466508
0.0552016
0.0604491
0.0568241
0.0500454
0.0430728
0.0367455
0.0524842
0.0585023
0.0628718
0.0648581
0.0546322
0.0455581
0.038261
0.0509132
0.0584169
0.0625465
0.0618032
0.0533679
0.0449734
0.0379375
0.045077
0.0535263
0.0580997
0.0538762
0.0479998
0.0418576
0.0360372
0.0380787
0.0434032
0.0462451
0.0450454
0.0417846
0.0376287
0.0331346
0.0322109
0.0357747
0.0379138
0.0378534
0.036089
0.0332908
0.0297547
0.0401484
0.0465182
0.0503836
0.0491331
0.045313
0.040343
0.0349834
0.0467485
0.0548312
0.0606903
0.0580689
0.0517006
0.0445811
0.0379658
0.0520752
0.0577474
0.0619095
0.0647701
0.0561413
0.0469634
0.0393858
0.0500222
0.0577614
0.0619285
0.0615983
0.054261
0.0460841
0.0389606
0.0444937
0.0520825
0.0570135
0.0539
0.0486928
0.0427489
0.0368753
0.0381088
0.0431294
0.0461867
0.0454647
0.0425053
0.0384291
0.0338197
0.0328038
0.0362015
0.0384301
0.0385154
0.0368166
0.0339423
0.0302772
0.0411377
0.047688
0.0521762
0.0510858
0.0471028
0.041782
0.0360402
0.0478979
0.0561993
0.0629071
0.0605557
0.0538913
0.0462649
0.0391704
0.0530628
0.0588508
0.0628736
0.0667594
0.0584832
0.0486732
0.0406716
0.0507069
0.0589368
0.0632578
0.0632752
0.0560018
0.0475148
0.0400418
0.0450909
0.0524287
0.0577682
0.0552396
0.0500377
0.0438915
0.0377429
0.0389145
0.0438663
0.0471186
0.0466193
0.0436139
0.0392687
0.0344847
0.0338053
0.0372106
0.0394661
0.0395383
0.0376888
0.0346062
0.0307598
0.042559
0.0494778
0.0545199
0.0532332
0.0489389
0.0430442
0.0368805
0.0495583
0.0586231
0.0661263
0.0632113
0.0561566
0.0478061
0.0401472
0.0546725
0.0614449
0.0650016
0.0699144
0.0612196
0.050364
0.0416883
0.0520552
0.0605208
0.0658918
0.0661364
0.0581305
0.0489745
0.0409797
0.0464068
0.0540788
0.0600313
0.0573502
0.051627
0.0450432
0.0385148
0.0401703
0.0452255
0.048623
0.0480506
0.0447667
0.0401208
0.0350648
0.0350057
0.0383908
0.0405933
0.0404805
0.0384702
0.0351569
0.0311791
0.0441199
0.0514533
0.0568124
0.0550041
0.0500881
0.0437393
0.0374128
0.0515669
0.0613672
0.0685698
0.0648103
0.0579418
0.0488522
0.0407872
0.0571382
0.0649018
0.0667865
0.0720093
0.0636345
0.0516456
0.0424043
0.0540609
0.0634432
0.0693238
0.068999
0.0600447
0.050094
0.0416523
0.0479756
0.0560906
0.0626682
0.0593857
0.05299
0.0458665
0.0390697
0.0415566
0.046728
0.0501808
0.0493345
0.0456894
0.0407417
0.0355255
0.0363071
0.0396161
0.0416803
0.0414347
0.0391447
0.0356344
0.0315729
0.0451852
0.0527002
0.058448
0.0559881
0.0504755
0.0440993
0.0377426
0.0526179
0.0615821
0.0671602
0.0665125
0.0587323
0.0492815
0.0411221
0.0583937
0.0660089
0.0670671
0.0715057
0.0647856
0.0521692
0.0427738
0.0553122
0.0640306
0.0701221
0.0682463
0.0608512
0.050571
0.0420317
0.0491021
0.0571882
0.0633993
0.0601015
0.0536096
0.0463418
0.0394594
0.042687
0.047872
0.0512035
0.0500754
0.0462213
0.0411898
0.0359397
0.0371456
0.0405534
0.0425057
0.0420598
0.0396563
0.0360987
0.0320041
0.0458867
0.0530353
0.0582367
0.055681
0.0503678
0.0441594
0.0379203
0.0530498
0.0618816
0.067416
0.065718
0.0581107
0.0490775
0.0411986
0.0585462
0.0664879
0.0672367
0.0711855
0.0638886
0.0518936
0.042834
0.0557281
0.0633873
0.0707673
0.0680363
0.0603445
0.050469
0.0421816
0.0498422
0.0576015
0.0633484
0.059968
0.0535896
0.0464672
0.0397406
0.043661
0.0486871
0.0517395
0.0504346
0.0465591
0.0415707
0.0363392
0.0380632
0.0415599
0.0431864
0.0425895
0.0401289
0.0365769
0.0324622
0.0464028
0.0529261
0.0571941
0.0550488
0.0501154
0.0441241
0.0380426
0.0530934
0.0614255
0.0667431
0.0646591
0.0570692
0.0487153
0.0411989
0.0583116
0.064765
0.067034
0.0685683
0.0620406
0.051307
0.0427921
0.0558969
0.0626316
0.0689478
0.0663685
0.0594243
0.0502244
0.0422791
0.0504965
0.0576772
0.0624984
0.059427
0.0534381
0.0466153
0.0400268
0.0445619
0.0492791
0.0520158
0.0506696
0.0468576
0.0419589
0.0367403
0.0387427
0.0419429
0.0437518
0.043112
0.0406214
0.0370559
0.0329174
0.0473132
0.0536789
0.0574467
0.0552582
0.0502564
0.0442065
0.0381848
0.0538962
0.0631529
0.0696156
0.0649062
0.0568964
0.0486778
0.0413022
0.0588147
0.0644038
0.0681267
0.0707818
0.0613797
0.0512138
0.0429163
0.0566963
0.0647131
0.0679991
0.0683679
0.0595155
0.0504073
0.0425194
0.0515378
0.0585118
0.0635669
0.0600066
0.0538853
0.0470125
0.0403647
0.0454455
0.0501386
0.052741
0.0512939
0.0473903
0.0423933
0.0371174
0.0394413
0.0428091
0.0444587
0.0437343
0.0411479
0.037507
0.0333273
0.0484133
0.0548174
0.0583238
0.0557849
0.050518
0.0443145
0.0383193
0.0554807
0.0644446
0.0703772
0.0654584
0.0572666
0.0488395
0.0414325
0.0606876
0.0673283
0.0692992
0.0718195
0.0620266
0.051537
0.0431115
0.0589004
0.0670901
0.0697442
0.0694567
0.0605352
0.0509044
0.0427925
0.0531792
0.0606026
0.0655165
0.0616293
0.0548029
0.04747
0.0406512
0.0466269
0.0513803
0.0539819
0.0522594
0.0480409
0.0427763
0.0374116
0.0403017
0.043669
0.0452546
0.0443726
0.0416166
0.037873
0.0336883
0.0491485
0.0560604
0.0595779
0.0563674
0.0505429
0.044216
0.0385314
0.0569193
0.0669453
0.0728564
0.0667279
0.0577475
0.0488697
0.0414763
0.0631287
0.0701688
0.0716274
0.0740222
0.0633007
0.0518774
0.0432043
0.0612612
0.070735
0.0726984
0.0724251
0.0620252
0.0513589
0.0429274
0.0547252
0.0628081
0.0684368
0.0632432
0.055628
0.0477376
0.0407723
0.0474258
0.0525981
0.0553837
0.0531219
0.0483963
0.0429169
0.037577
0.0407809
0.0441104
0.0457901
0.044733
0.0418275
0.0380796
0.0340109
0.0485699
0.0555149
0.0590178
0.0553268
0.0495859
0.0437266
0.0386716
0.0563727
0.0648565
0.0692594
0.0645019
0.0567392
0.0482283
0.0413995
0.062272
0.0693889
0.0704629
0.0710623
0.0629855
0.0514671
0.0430693
0.0610056
0.0690499
0.0707558
0.0694682
0.0620023
0.0510327
0.0427956
0.0545518
0.0619148
0.0653959
0.0616856
0.0550117
0.0473104
0.040689
0.0472409
0.0525967
0.0553251
0.0526424
0.0478631
0.0426532
0.037737
0.0408391
0.0442805
0.0456998
0.0444718
0.0416113
0.0381975
0.0345857
0.00897738
0.00365422
0.0227179
0.0189494
0.0155202
0.0122756
0.00885297
0.00357424
0.032488
0.0271282
0.0227026
0.0188499
0.0153833
0.0121313
0.0087285
0.00353655
0.0311847
0.0262735
0.0221287
0.0184668
0.0151287
0.011963
0.00862159
0.00350679
0.0287752
0.0247478
0.0211908
0.0179128
0.0148216
0.0118092
0.00855637
0.00349669
0.0260876
0.0230664
0.0201613
0.0173133
0.0145081
0.0116789
0.00852665
0.00350884
0.0276926
0.0243898
0.021235
0.0182023
0.0152646
0.0123283
0.00905414
0.00380169
0.0300394
0.0258167
0.0220858
0.0186768
0.0154922
0.0124014
0.00904493
0.0037211
0.0315806
0.0267199
0.0225719
0.0188936
0.0155419
0.0123556
0.00895964
0.00363015
0.031864
0.0267837
0.0225218
0.0187826
0.0154005
0.0122066
0.00882814
0.0035782
0.0305669
0.0259127
0.0219194
0.0183595
0.0150964
0.0119839
0.00867098
0.00352526
0.0282927
0.0244292
0.0209623
0.0177484
0.0147114
0.0117457
0.00853034
0.00348398
0.0257608
0.0227965
0.0199102
0.0170845
0.0143122
0.0115246
0.00842112
0.00346469
0.0276713
0.0244049
0.0212739
0.0182727
0.0153727
0.0124666
0.00919857
0.00389445
0.0298759
0.0257893
0.0221398
0.0187941
0.0156595
0.0125979
0.00923752
0.00383334
0.0313121
0.0266432
0.0226155
0.0190245
0.0157323
0.0125752
0.00916867
0.00374115
0.031415
0.0266259
0.022523
0.0188853
0.0155665
0.0124011
0.00901093
0.00364548
0.0301263
0.0257271
0.0218769
0.0184059
0.0151979
0.012112
0.00879447
0.00356636
0.0280005
0.0242743
0.0208832
0.0177215
0.014722
0.0117801
0.00857192
0.0034929
0.0255922
0.022652
0.0197805
0.0169738
0.0142244
0.0114603
0.00837835
0.00344291
0.0279468
0.0246955
0.0215753
0.0185866
0.0156933
0.0127771
0.0094675
0.00403334
0.0300136
0.026034
0.0224411
0.0191285
0.0160071
0.0129346
0.00952662
0.00397474
0.0312404
0.0267956
0.0228792
0.0193461
0.0160767
0.0129102
0.00945502
0.00387515
0.0312485
0.0267109
0.0227357
0.0191632
0.0158692
0.012695
0.00925827
0.00374525
0.0300078
0.0257874
0.0220333
0.0186113
0.0154203
0.0123246
0.00896866
0.0036267
0.0279428
0.0243066
0.0209644
0.0178265
0.0148333
0.0118834
0.00865278
0.00352001
0.025534
0.0226288
0.0197682
0.0169646
0.0142148
0.0114498
0.00836645
0.00343314
0.0285294
0.0252611
0.0221147
0.0190957
0.0161632
0.013193
0.00980119
0.00418692
0.0305556
0.0265886
0.0229832
0.0196445
0.0164846
0.0133558
0.00986151
0.00412008
0.0316774
0.0272895
0.0233852
0.0198385
0.0165349
0.0133129
0.00977174
0.00400524
0.0315683
0.0271234
0.0231752
0.0195954
0.0162702
0.0130433
0.00952722
0.00385171
0.0302699
0.0261212
0.0223823
0.0189469
0.0157236
0.0125799
0.00915891
0.00369719
0.0281661
0.0245483
0.0211954
0.0180332
0.0150093
0.0120256
0.00875333
0.00355436
0.0256818
0.0227546
0.0198634
0.0170317
0.0142613
0.0114773
0.00837588
0.00343367
0.029377
0.0260226
0.0227967
0.0197007
0.0166903
0.0136352
0.0101381
0.00432689
0.0314283
0.0273609
0.0236674
0.0202482
0.0170071
0.0137893
0.0101866
0.0042438
0.032482
0.0280185
0.0240371
0.0204132
0.0170285
0.0137159
0.0100668
0.00410939
0.0322597
0.0277643
0.023751
0.0201005
0.0166982
0.0133841
0.00976716
0.00393682
0.0308418
0.0266455
0.0228437
0.019341
0.0160481
0.0128323
0.00933121
0.00375478
0.0286146
0.0249345
0.0215144
0.0182946
0.0152163
0.0121761
0.0088466
0.00358
0.025992
0.0229894
0.0200369
0.0171593
0.0143472
0.0115273
0.00839729
0.00343561
0.0303024
0.0268214
0.0234857
0.0202918
0.0171881
0.0140373
0.0104302
0.00443421
0.032407
0.0281771
0.0243584
0.0208332
0.0174926
0.0141735
0.0104575
0.00433141
0.03343
0.0288097
0.0247005
0.020967
0.0174787
0.0140613
0.0103
0.0041793
0.0331069
0.0284699
0.0243379
0.0205834
0.0170806
0.0136684
0.00995263
0.00398975
0.0315318
0.027212
0.0233102
0.0197222
0.0163443
0.0130412
0.00945549
0.00378295
0.0291461
0.0253525
0.0218516
0.0185604
0.0154117
0.0123018
0.00890931
0.00358484
0.0263524
0.0232597
0.0202423
0.0173103
0.0144505
0.0115855
0.00841659
0.0034296
0.0311295
0.0275211
0.0240815
0.0207965
0.0176048
0.014362
0.0106533
0.00450686
0.0332963
0.028894
0.0249526
0.0213264
0.0178896
0.0144721
0.0106541
0.00438391
0.034341
0.0295163
0.0252698
0.021427
0.0178383
0.0143219
0.010462
0.00421137
0.0339084
0.0290957
0.0248418
0.0209866
0.0173867
0.0138761
0.010067
0.00400173
0.0321831
0.0277289
0.023727
0.0200486
0.0165797
0.0131847
0.0095173
0.0037739
0.0296456
0.0257463
0.0221647
0.0188005
0.0155753
0.0123876
0.00893
0.00356111
0.0267008
0.0235298
0.0204576
0.0174767
0.014562
0.0116401
0.00842379
0.00340899
0.0317725
0.0280666
0.0245504
0.0211931
0.0179266
0.0146052
0.0108113
0.00454158
0.0339904
0.0294512
0.0254156
0.021708
0.018189
0.0146857
0.0107787
0.00439529
0.0350506
0.0300666
0.0257146
0.0217846
0.0181052
0.014494
0.0105444
0.00419857
0.0345649
0.0296036
0.025248
0.021303
0.0176075
0.0139972
0.0101011
0.00396797
0.032737
0.028164
0.0240757
0.0203137
0.0167507
0.013257
0.00950881
0.00372148
0.0300835
0.0260996
0.0224524
0.0190171
0.0157072
0.0124296
0.00890123
0.00350196
0.0270326
0.0238135
0.0206973
0.017662
0.0146793
0.0116847
0.00841034
0.00336723
0.0322208
0.0284699
0.0249086
0.0214998
0.0181714
0.0147785
0.0109082
0.00453995
0.0344738
0.0298621
0.0257683
0.0219975
0.0184037
0.0148181
0.0108323
0.00436585
0.0355528
0.0304761
0.0260564
0.0220524
0.0182842
0.0145768
0.010544
0.00413887
0.0350477
0.0299983
0.0255716
0.0215451
0.0177493
0.0140308
0.0100489
0.0038841
0.0331725
0.0285311
0.0243776
0.0205325
0.016864
0.0132562
0.00942221
0.00361938
0.0304758
0.0264419
0.0227369
0.0192227
0.0158109
0.0124231
0.008813
0.00339956
0.027391
0.024137
0.0209731
0.0178697
0.0147993
0.0117107
0.00836456
0.00329709
0.0325398
0.0287807
0.025194
0.0217443
0.0183577
0.0148961
0.0109565
0.004509
0.0347949
0.0301684
0.0260396
0.0222146
0.0185469
0.0148777
0.0108181
0.00429646
0.0358918
0.0307867
0.0263216
0.022248
0.0183853
0.0145727
0.0104573
0.00402899
0.0353979
0.0303152
0.0258382
0.0217283
0.017819
0.0139757
0.00990249
0.00374405
0.0335407
0.0288664
0.0246534
0.0207149
0.0169217
0.0131775
0.00924619
0.00345919
0.0308655
0.0267945
0.0230264
0.0194177
0.0158819
0.0123581
0.00864962
0.00324273
0.0277927
0.0245031
0.0212801
0.0180911
0.0149107
0.011704
0.0082698
0.00318898
0.0327641
0.0290247
0.0254319
0.0219472
0.0185029
0.0149726
0.0109683
0.00445272
0.0349808
0.0303816
0.0262467
0.0223764
0.0186317
0.0148715
0.0107379
0.00418356
0.0360794
0.0310091
0.0265263
0.0223852
0.0184165
0.0144817
0.0102766
0.003862
0.0356429
0.03058
0.0260612
0.0218597
0.0178189
0.0138271
0.00965018
0.00353801
0.0338666
0.0291783
0.0249031
0.0208586
0.0169201
0.0130118
0.00896453
0.00322824
0.0312525
0.0271456
0.0233073
0.0195914
0.0159108
0.0122211
0.00838929
0.00301569
0.0282117
0.024884
0.0215951
0.0183086
0.0149988
0.0116472
0.00810459
0.00302814
0.0329378
0.0292352
0.0256438
0.0221288
0.0186247
0.0150185
0.0109459
0.00436427
0.0351106
0.0305671
0.0264262
0.0225076
0.0186751
0.0148049
0.0105851
0.00401553
0.0362175
0.0311992
0.0266966
0.0224806
0.0183889
0.0143039
0.00998926
0.00362819
0.0358632
0.0308143
0.026247
0.0219447
0.017753
0.0135814
0.009276
0.00325263
0.0341788
0.029465
0.0251212
0.020962
0.0168579
0.0127491
0.0085516
0.0029087
0.0316224
0.0274763
0.0235672
0.019738
0.0158921
0.0119962
0.00799873
0.00269754
0.0286175
0.0252549
0.0219026
0.0185119
0.0150506
0.0115156
0.00782887
0.0027826
0.0331196
0.029458
0.0258777
0.0223328
0.018753
0.0150412
0.0108759
0.00422446
0.0352748
0.030757
0.0266165
0.0226478
0.0187049
0.0146811
0.0103372
0.00377726
0.0363948
0.0313885
0.0268604
0.0225632
0.0183225
0.01404
0.00957371
0.00330602
0.0361002
0.0310306
0.026411
0.0220007
0.017632
0.0132329
0.00875384
0.00287251
0.0344711
0.0297222
0.0253141
0.0210335
0.0167353
0.0123725
0.00796472
0.00248799
0.0319558
0.0277824
0.0238121
0.0198617
0.0158188
0.0116564
0.0074226
0.00227012
0.0289981
0.0256186
0.0222086
0.0186996
0.0150494
0.0112676
0.00736716
0.00240784
0.0332575
0.0297704
0.0262316
0.0226351
0.0189206
0.0150232
0.0107033
0.00399757
0.0354466
0.0310122
0.0268965
0.0228584
0.0187469
0.0144828
0.00994012
0.00343129
0.0365849
0.0316086
0.0270687
0.0226727
0.0182325
0.0136763
0.00898756
0.002873
0.0363201
0.0312464
0.0265859
0.0220498
0.0174578
0.0127628
0.00804259
0.00239643
0.0347198
0.0299659
0.0255047
0.0210808
0.0165385
0.0118554
0.00716659
0.00198073
0.032254
0.0280886
0.0240609
0.0199578
0.0156586
0.0111532
0.00658551
0.00173667
0.0293818
0.0260059
0.0225266
0.0188565
0.0149473
0.0108184
0.00659099
0.00186861
0.0339007
0.0302477
0.0267192
0.0230261
0.0190888
0.0148837
0.0103095
0.00361528
0.0357131
0.0313931
0.0273053
0.0231536
0.0187818
0.0141506
0.00929131
0.00291325
0.0367756
0.0319
0.0273618
0.0228234
0.018102
0.0131713
0.00816496
0.00232153
0.0364984
0.0314929
0.0268001
0.0220917
0.0172043
0.0121422
0.00710995
0.00185012
0.0349217
0.0302282
0.0257086
0.0210841
0.0162252
0.0111587
0.00612532
0.001435
0.0325259
0.0284245
0.024313
0.0199823
0.015336
0.0104064
0.00542695
0.00116347
0.0298183
0.0264468
0.0228397
0.0189128
0.0146306
0.010046
0.00537484
0.00121771
0.0342594
0.030967
0.0274419
0.0235347
0.0192072
0.0145024
0.00951155
0.00297083
0.0360649
0.0319768
0.0278875
0.0235088
0.0187299
0.013577
0.00825404
0.00221649
0.0369987
0.0323111
0.0277417
0.0229635
0.0178493
0.0124484
0.00703481
0.00169177
0.0366703
0.0318041
0.0270364
0.0220649
0.016793
0.0113091
0.00592424
0.00129811
0.0351218
0.0305294
0.0258827
0.0209555
0.0156892
0.0102026
0.00485145
0.000936625
0.0329239
0.0287921
0.0244795
0.0197899
0.0146824
0.00928128
0.0039755
0.000675626
0.0303565
0.0268635
0.0229916
0.0186576
0.0138699
0.00876366
0.00373013
0.000641157
0.0305109
0.0259697
0.0224515
0.0197499
0.0172451
0.0146733
0.0112754
0.0051587
0.0374711
0.0305774
0.025325
0.0213741
0.0182509
0.0154422
0.011896
0.00535882
0.0451006
0.0358565
0.028778
0.0235539
0.0197695
0.0163504
0.0125166
0.00560034
0.0505995
0.0395307
0.0311507
0.0250328
0.0206692
0.0169498
0.0129428
0.00585068
0.0492211
0.0388324
0.0308502
0.024944
0.0206985
0.0168721
0.0128414
0.00585186
0.0430261
0.0348239
0.0284343
0.0235662
0.0199169
0.016249
0.0123374
0.0056643
0.0359496
0.0302094
0.0255952
0.0219212
0.0188626
0.0154928
0.0117077
0.0054487
0.0294321
0.0253818
0.0222968
0.0198428
0.0175871
0.0149775
0.0114598
0.00518473
0.0357448
0.0294886
0.0248118
0.0214676
0.0185667
0.0157327
0.0120873
0.0054303
0.0429227
0.0344159
0.0279685
0.02325
0.0196079
0.016458
0.012588
0.00561599
0.0485114
0.0380581
0.0302969
0.0246862
0.0205668
0.016995
0.0129815
0.00584762
0.0477448
0.0376811
0.0301314
0.0245924
0.0204221
0.0169459
0.0129736
0.00590932
0.041852
0.0340081
0.0279227
0.0232866
0.0196117
0.016398
0.0125472
0.00577516
0.035243
0.0297595
0.0253672
0.0219263
0.0186673
0.0156417
0.0119486
0.0056067
0.0285188
0.0250376
0.0224136
0.0201576
0.0179208
0.0151309
0.0114979
0.00516485
0.033965
0.0284712
0.0244182
0.0211572
0.0185933
0.0157964
0.0120614
0.00540049
0.0403614
0.0327995
0.0271926
0.0230773
0.0196614
0.0164413
0.0124784
0.00556026
0.0453531
0.0360948
0.02928
0.0242785
0.020343
0.0168718
0.0128097
0.0057651
0.0451136
0.0359919
0.0292269
0.0242637
0.020356
0.0168767
0.0128493
0.00585453
0.0400488
0.0328634
0.0273169
0.0231232
0.0197446
0.0164986
0.0125911
0.00581879
0.0342287
0.0291337
0.0250427
0.0217789
0.0188528
0.0158604
0.012137
0.00573788
0.02817
0.0251611
0.0226568
0.0204441
0.0180906
0.0151482
0.0114488
0.0051176
0.0327586
0.0280209
0.0244034
0.0214703
0.0187684
0.0157595
0.0119286
0.00531632
0.0382533
0.031746
0.0268235
0.0229266
0.0197131
0.0163481
0.012293
0.0054706
0.0425173
0.034669
0.0287115
0.0241599
0.0204835
0.0168392
0.012626
0.00567015
0.0427194
0.0347648
0.0287413
0.0241603
0.0204642
0.0168896
0.0127269
0.0057983
0.0386059
0.0320887
0.027051
0.0231672
0.0198085
0.0165485
0.0125777
0.00585218
0.0335447
0.0288118
0.0249946
0.021766
0.0188999
0.0159361
0.0121667
0.00575815
0.0284851
0.025622
0.0232399
0.02096
0.0182583
0.0151566
0.0113972
0.00508622
0.0324831
0.0282515
0.0248646
0.0220198
0.0190535
0.0157557
0.0118212
0.00526536
0.0373137
0.0315796
0.0270511
0.023327
0.0198765
0.0163028
0.0121673
0.00542596
0.0411411
0.0342319
0.02877
0.0243562
0.0205409
0.0167599
0.0124884
0.0056171
0.0416572
0.0344455
0.0288421
0.0244089
0.0206705
0.0169057
0.01264
0.00576402
0.038064
0.0319777
0.0272111
0.0233634
0.0199947
0.0166068
0.0125469
0.00585449
0.0334135
0.0289236
0.0252607
0.0221559
0.0191443
0.016015
0.0121586
0.00575122
0.0291913
0.0264379
0.0239356
0.0213118
0.0184029
0.015196
0.0113912
0.00507745
0.0329365
0.0289481
0.0255662
0.0224452
0.0192348
0.0158084
0.0118118
0.00526251
0.0374216
0.0320605
0.0276252
0.0237897
0.0201007
0.0163792
0.0121725
0.00543658
0.0411059
0.0345896
0.0292681
0.0248077
0.0207688
0.0168394
0.0124945
0.00563247
0.041829
0.0348975
0.0293915
0.0248674
0.020876
0.0169807
0.0126472
0.00578394
0.038464
0.0325384
0.0277923
0.0237645
0.0203182
0.0167312
0.0125686
0.00586648
0.0339046
0.0295271
0.0258338
0.0224815
0.0194629
0.0161528
0.0122044
0.00578589
0.0302331
0.0274463
0.0247033
0.0217492
0.0186296
0.0153131
0.0114506
0.00509236
0.0338854
0.029949
0.0263918
0.0229744
0.0195491
0.0159949
0.0119218
0.00530547
0.0382152
0.0329208
0.0283875
0.024302
0.020451
0.01661
0.0123218
0.00550424
0.04191
0.0354125
0.0300037
0.0253535
0.0211464
0.0170894
0.012657
0.0057092
0.0427898
0.035812
0.03019
0.0254902
0.0212717
0.0172194
0.012792
0.00585751
0.0395269
0.033539
0.0286835
0.0246672
0.0207879
0.016955
0.0126799
0.00592093
0.0348572
0.0304183
0.0265088
0.02314
0.0198354
0.0163612
0.0123212
0.00585432
0.0311725
0.0281828
0.025216
0.022085
0.0188356
0.0154369
0.0115177
0.00511018
0.0350006
0.0308027
0.0270962
0.0234998
0.0199185
0.0162565
0.0121011
0.00537633
0.0393712
0.033935
0.029199
0.0249188
0.0209137
0.0169628
0.0125823
0.00561431
0.0431119
0.0364426
0.0308367
0.0259964
0.0216439
0.0174771
0.0129471
0.00583335
0.0441319
0.0369293
0.0310869
0.0261584
0.0217656
0.0175884
0.0130607
0.00597715
0.040889
0.0347003
0.0296265
0.0252517
0.0212067
0.0172549
0.0128883
0.00602231
0.0360726
0.0314774
0.0274117
0.0237842
0.0202668
0.0166509
0.0125203
0.00596127
0.0321937
0.0288474
0.0256428
0.0223693
0.0190262
0.0155562
0.0115754
0.00512362
0.0361775
0.0317288
0.0277703
0.0240119
0.0203121
0.0165573
0.0123136
0.00545829
0.0406143
0.0349043
0.0299845
0.0255684
0.0214488
0.0173987
0.0129126
0.00574705
0.0445156
0.0375273
0.031714
0.0267158
0.0222446
0.0179724
0.0133261
0.00598495
0.045688
0.0380916
0.032
0.0268856
0.0223591
0.0180682
0.0134223
0.00612598
0.0423146
0.0358473
0.0305298
0.025925
0.0217351
0.0176672
0.0131896
0.00615828
0.037358
0.0326083
0.0283007
0.0244222
0.0207539
0.0170208
0.0127871
0.00609469
0.0327909
0.0294112
0.0260477
0.0226475
0.0192249
0.0156917
0.011648
0.0051461
0.0370852
0.0325414
0.0284401
0.0245404
0.0207371
0.0168914
0.0125494
0.00554818
0.0416744
0.0358555
0.0307891
0.0262717
0.02205
0.0178957
0.0132855
0.00589054
0.0456308
0.0385175
0.0325893
0.0275034
0.0229325
0.0185456
0.0137557
0.00614642
0.0468376
0.0390975
0.0328997
0.0276799
0.0230397
0.0186246
0.0138322
0.00627993
0.0433724
0.0368398
0.031413
0.0266755
0.0223502
0.0181498
0.0135292
0.00628636
0.0384312
0.0335296
0.0291289
0.025107
0.0212864
0.0174221
0.0130611
0.00620653
0.0335251
0.029986
0.0264696
0.0229737
0.0194902
0.0159008
0.0117889
0.00519885
0.0379777
0.0333491
0.0291094
0.0250953
0.021208
0.0172789
0.0128334
0.00565692
0.0425435
0.0367347
0.0316105
0.0270164
0.0227037
0.0184456
0.0137006
0.00604623
0.0463847
0.0393838
0.0334691
0.0283304
0.0236655
0.0191583
0.0142146
0.00631347
0.0474991
0.03993
0.0337616
0.0284849
0.0237428
0.019197
0.0142452
0.00641673
0.0441309
0.0377162
0.0322382
0.0274043
0.0229535
0.0186089
0.0138353
0.0063735
0.0393289
0.0344577
0.0298897
0.0257398
0.021767
0.0177609
0.0132627
0.00625515
0.0343503
0.0305953
0.0269523
0.0233932
0.0198667
0.0162269
0.0120359
0.00529065
0.0388885
0.0341566
0.0298086
0.0257101
0.0217561
0.0177535
0.0132007
0.00579414
0.0434046
0.0375893
0.0324774
0.0278047
0.0234132
0.0190618
0.0141818
0.00622247
0.0470028
0.0401937
0.034336
0.0291545
0.0244134
0.0198105
0.0147261
0.00649711
0.0479193
0.0406471
0.0345524
0.02924
0.0244153
0.019766
0.014677
0.00656473
0.044677
0.0384031
0.0329223
0.028025
0.0234683
0.0190099
0.0141072
0.00644934
0.0400307
0.0351863
0.0304926
0.026225
0.022115
0.0179854
0.0133698
0.00625318
0.0349318
0.0311502
0.0274852
0.0239187
0.020377
0.0166919
0.0124043
0.00541886
0.0398335
0.0349601
0.0305177
0.0263775
0.0223951
0.0183414
0.0136783
0.00596207
0.0444235
0.0386134
0.0333588
0.0286142
0.0241805
0.0197694
0.0147643
0.00642697
0.0479067
0.0411206
0.0352115
0.0299891
0.0252102
0.0205481
0.0153376
0.0067113
0.0486052
0.0414458
0.0353318
0.0299757
0.0251087
0.0204014
0.0151979
0.00674164
0.0454428
0.0391189
0.0335555
0.0285784
0.0239528
0.0194257
0.0144257
0.00654474
0.0406648
0.0355429
0.03095
0.0265897
0.0223774
0.0181652
0.0134683
0.00626253
0.0355737
0.0317454
0.0281067
0.024582
0.0210527
0.0173227
0.012912
0.00558255
0.0406232
0.0356534
0.0311971
0.0270992
0.0231566
0.0190798
0.0142943
0.00615948
0.0455883
0.0394883
0.0341515
0.0294161
0.0250313
0.0206109
0.0154844
0.00666063
0.0492743
0.0421643
0.0360793
0.0308201
0.0260802
0.0214145
0.0160913
0.00696164
0.0498433
0.0423856
0.0361107
0.030714
0.0258642
0.0211522
0.0158522
0.00695674
0.0464582
0.0398489
0.0341523
0.0291067
0.0244658
0.0199249
0.014853
0.00667484
0.0414168
0.0362394
0.0313849
0.0268935
0.0226348
0.0183934
0.0136463
0.00630337
0.0360943
0.0323623
0.0288689
0.0254591
0.021957
0.0181584
0.0135759
0.00578129
0.0411746
0.0362072
0.0319075
0.0280124
0.0241353
0.0200098
0.0150479
0.00636971
0.0464707
0.0401382
0.0348784
0.0304026
0.0260752
0.0216223
0.016324
0.00689378
0.0505235
0.042962
0.0368383
0.0318023
0.0271188
0.0224432
0.0169681
0.00721972
0.0511374
0.0431417
0.036746
0.0314375
0.026738
0.0220608
0.0166457
0.00719675
0.0472145
0.0403734
0.0345888
0.0296127
0.0250827
0.0205813
0.0154387
0.00685489
0.041735
0.0363976
0.0315886
0.0271812
0.0229877
0.0187724
0.0139816
0.00640195
0.0365031
0.0331006
0.0299031
0.0266507
0.0231593
0.0192351
0.0144062
0.00601532
0.0412239
0.0365992
0.0326934
0.0290401
0.0252648
0.021081
0.0158822
0.00656158
0.0464018
0.0403317
0.0354894
0.0312477
0.0271695
0.022712
0.0171834
0.00707205
0.0506136
0.0431274
0.0373723
0.0325744
0.0281827
0.0235376
0.0178569
0.00742517
0.0510341
0.0432094
0.0372103
0.0323293
0.0277559
0.023092
0.0175071
0.0074229
0.0469117
0.0402777
0.0348745
0.0302589
0.0259078
0.0214455
0.0161817
0.00707738
0.0414351
0.03633
0.0318112
0.027632
0.0235822
0.0193932
0.014508
0.00657277
0.0353961
0.0298036
0.0253857
0.0219242
0.0187254
0.0155227
0.0117643
0.00553502
0.0397528
0.032458
0.0271304
0.0229834
0.0194555
0.015983
0.0119762
0.00547727
0.0413516
0.033537
0.0279586
0.0235127
0.0198722
0.0162303
0.0120779
0.00542876
0.0394537
0.0325971
0.0275339
0.0233368
0.0197114
0.0160186
0.0118542
0.005224
0.0359134
0.0303831
0.0260896
0.022453
0.0189356
0.0153427
0.0113169
0.00490416
0.0319915
0.0276538
0.0240914
0.020809
0.0175459
0.0142128
0.0104713
0.00447557
0.0279778
0.0247665
0.021732
0.0187614
0.0158229
0.0128363
0.00946428
0.00402394
0.0349066
0.0295574
0.0253137
0.0220078
0.0190007
0.0158578
0.0120722
0.00573048
0.0392847
0.0323691
0.0272557
0.0233413
0.0198073
0.0162478
0.0121633
0.00558426
0.0408979
0.0335493
0.0281432
0.0239173
0.0201839
0.0164185
0.0121868
0.00548572
0.0391715
0.0327299
0.0276454
0.0236361
0.0198883
0.0161131
0.0119056
0.00525365
0.0358509
0.030683
0.0263672
0.0226112
0.018996
0.015366
0.0113292
0.00491593
0.0320308
0.0278734
0.02428
0.0208756
0.0175634
0.0142286
0.0104943
0.0045024
0.0280502
0.0248343
0.0217581
0.0187739
0.0158543
0.0128937
0.00953472
0.004078
0.0341992
0.0292205
0.0252293
0.022103
0.0191659
0.0160864
0.0122687
0.00584612
0.0385372
0.0321528
0.0273239
0.0235235
0.020095
0.016499
0.0123596
0.00569209
0.0403595
0.0336142
0.0284887
0.0243333
0.0205083
0.0166664
0.0123662
0.00556829
0.0390037
0.0329968
0.0282101
0.024076
0.020203
0.0163552
0.0120894
0.00534022
0.0359872
0.0309572
0.0267807
0.0229383
0.0192591
0.0155911
0.0115136
0.00500817
0.0323228
0.0282621
0.0246084
0.0211538
0.0178159
0.0144635
0.0106962
0.00461146
0.0283527
0.0251308
0.0220359
0.0190474
0.0161262
0.013155
0.00976031
0.00419758
0.0337375
0.0290838
0.0253248
0.0222403
0.0193504
0.0162322
0.0123579
0.00587854
0.0380436
0.0320993
0.0275332
0.0239473
0.0204055
0.0167964
0.012602
0.00581695
0.0402179
0.0339054
0.0289887
0.0248493
0.0209618
0.0170418
0.0126558
0.00569526
0.0393334
0.0336117
0.028883
0.0246566
0.0206961
0.0167664
0.0124081
0.00548093
0.0365885
0.0317761
0.0274687
0.0235066
0.019742
0.0160016
0.0118373
0.00515643
0.0329817
0.0289147
0.0251947
0.0216735
0.0182784
0.0148671
0.0110196
0.0047665
0.0289562
0.0257041
0.0225675
0.0195378
0.016573
0.0135484
0.0100763
0.00434769
0.0337161
0.0292683
0.0256535
0.0225319
0.0195431
0.0163336
0.0123917
0.00586624
0.0380951
0.0323741
0.0279459
0.0242183
0.0207927
0.0171578
0.0128818
0.00594515
0.0406937
0.0345238
0.0296376
0.0255246
0.0215297
0.0175185
0.0130159
0.00584271
0.0402164
0.0345549
0.0297112
0.0254131
0.0213384
0.0172896
0.0127997
0.00564289
0.0376282
0.0327253
0.0283142
0.0242382
0.0203617
0.0165115
0.0122231
0.0053213
0.0339422
0.0298005
0.0259705
0.0223441
0.0188525
0.0153458
0.0113885
0.00492635
0.0298255
0.0264806
0.0232541
0.0201408
0.0170973
0.0139908
0.0104161
0.00449432
0.0341358
0.0297759
0.0261817
0.0229462
0.0198771
0.0165111
0.0124777
0.00589368
0.0386407
0.0330038
0.0286983