/*--------------------------------*- C++ -*----------------------------------*\
| =========                 |                                                 |
| \\      /  F ield         | OpenFOAM: The Open Source CFD Toolbox           |
|  \\    /   O peration     | Version:  plus.master.MPPICInterFoam            |
|   \\  /    A nd           | Web:      www.OpenFOAM.com                      |
|    \\/     M anipulation  |                                                 |
\*---------------------------------------------------------------------------*/
FoamFile
{
    version     2.0;
    format      ascii;
    class       scalarField;
    location    "12.8/lagrangian/kinematicCloud";
    object      age;
}
// * * * * * * * * * * * * * * * * * * * * * * * * * * * * * * * * * * * * * //


146
(
12.7473
12.3264
12.7665
12.081
12.7947
12.2483
12.6211
12.2035
11.9032
12.2056
11.9287
12.4963
12.1811
12.0001
12.1315
11.9
12.0703
11.9913
12.0801
12.2752
12.784
11.9945
12.012
12.6303
12.1001
12.2001
12.0645
12.251
12.3571
11.8726
12.1747
12.2142
11.9235
11.9175
12.2878
12.5901
12.0901
12.0765
12.5096
12.7095
12.0036
11.8707
12.2397
12.5849
12.1259
11.9301
12.0354
12.7138
12.2608
12.3159
12.0211
12.0807
12.1002
12.7325
12.401
12.0956
12.7289
11.9848
12.1182
12.0027
12.1207
11.9538
12.7471
11.9818
11.9304
12.2098
12.0335
12.2149
12.3155
12.0814
12.0955
12.4073
12.1129
11.8881
12.1301
12.0303
11.8759
12.266
11.9913
12.4445
11.9102
12.7385
12.6241
12.2198
12.0305
12.2594
12.438
12.1609
11.9838
11.9379
12.0912
11.9305
12.3049
12.21
12.14
12.4571
12.4809
12.4797
11.9753
12.0815
12.6243
12.4708
12.1701
11.8945
12.4218
12.5336
11.9701
11.9763
12.406
11.9896
12.0648
11.9903
12.024
12.01
12.0248
12.7435
12.1558
12.0416
12.3081
12.3162
12.2102
11.9252
12.0411
11.9076
11.9902
12.229
12.7003
11.9802
11.8851
12.0507
12.1676
12.2335
12.2264
12.0666
12.4414
12.7765
12.0667
12.4762
12.2378
12.5259
12.3811
11.8903
12.1001
12.4553
11.9365
12.0375
)


// ************************************************************************* //
