/*--------------------------------*- C++ -*----------------------------------*\
| =========                 |                                                 |
| \\      /  F ield         | OpenFOAM: The Open Source CFD Toolbox           |
|  \\    /   O peration     | Version:  plus.master.MPPICInterFoam            |
|   \\  /    A nd           | Web:      www.OpenFOAM.com                      |
|    \\/     M anipulation  |                                                 |
\*---------------------------------------------------------------------------*/
FoamFile
{
    version     2.0;
    format      ascii;
    class       vectorField;
    location    "12.8/lagrangian/kinematicCloud";
    object      U;
}
// * * * * * * * * * * * * * * * * * * * * * * * * * * * * * * * * * * * * * //


146
(
(1.86365e-08 -5.88637e-08 -0.0232519)
(5.76075e-08 5.71877e-08 -0.0215071)
(1.43477e-05 3.44669e-05 -0.0227392)
(0.00060197 0.000211234 -0.0497149)
(0.000298816 0.000395591 -0.0530604)
(0.000889088 0.000511442 -0.0532435)
(0.000858007 0.000479358 -0.0576462)
(0.0016615 0.000850638 -0.0519204)
(0.00176683 0.00096642 -0.0537166)
(0.00193266 0.00114416 -0.0527795)
(0.00189545 0.000970765 -0.0520789)
(0.00191555 0.000882412 -0.0519893)
(0.0020027 0.00112928 -0.052574)
(0.00200258 0.00118302 -0.0531564)
(0.00198306 0.00115122 -0.0532358)
(0.00202521 0.00120631 -0.0528792)
(0.00194615 0.00109288 -0.0536521)
(0.00195285 0.00109788 -0.0539614)
(0.00221971 0.00137735 -0.0515177)
(0.00191221 0.00102568 -0.0542818)
(0.000492691 -0.0009725 -0.0511367)
(0.00200986 0.00111974 -0.0541104)
(0.00202004 0.00108034 -0.0536928)
(0.00221432 0.00131484 -0.0532929)
(0.00223123 0.00124511 -0.053711)
(0.00221356 0.00121363 -0.0546491)
(0.00205336 0.00111336 -0.0560576)
(0.00226349 0.00124566 -0.0543969)
(0.00221563 0.00122877 -0.0552611)
(0.00066245 -0.00101605 -0.053327)
(0.00245804 0.00133866 -0.054602)
(0.00263434 0.00150925 -0.0525204)
(0.00269833 0.00152594 -0.0518965)
(0.00233921 0.00159823 -0.0564658)
(0.00240849 0.00185085 -0.0552063)
(0.0023197 0.00228147 -0.0545841)
(0.00235152 0.00246545 -0.0545215)
(0.00219011 0.00172255 -0.0588393)
(0.00280677 0.001589 -0.0529487)
(0.00282616 0.00159824 -0.0530566)
(0.00283323 0.00152661 -0.0531989)
(0.0024615 0.00290184 -0.0538216)
(0.00237933 0.00261863 -0.0549927)
(0.0028904 0.00165518 -0.0536541)
(0.00260176 0.00189474 -0.0539535)
(0.00241608 0.00246591 -0.0560936)
(0.0025548 0.00199619 -0.0545681)
(0.00251486 0.00224953 -0.0550776)
(0.00292238 0.00187981 -0.0546343)
(0.00266887 0.00215915 -0.0548225)
(0.00266726 0.00259761 -0.0547155)
(0.00256043 0.00276594 -0.05538)
(0.00254332 0.00279742 -0.0556173)
(0.00274568 0.00242707 -0.0551708)
(0.00297815 0.00218637 -0.0547413)
(0.00301915 0.00198326 -0.0550009)
(0.00197622 -0.00358782 -0.0527106)
(0.00305805 0.00221013 -0.0557126)
(0.00292164 0.00233153 -0.0564109)
(0.00209772 -0.00394946 -0.0527165)
(0.00207735 -0.00392376 -0.0527377)
(0.00253044 0.0023268 -0.0583471)
(0.00287256 0.00237037 -0.0564356)
(-0.00138737 -0.000982053 -0.0582866)
(0.0029998 0.00256534 -0.0537417)
(-0.00148447 -0.00113565 -0.0566609)
(-0.00132072 -0.00111742 -0.0589119)
(0.00291739 0.00233158 -0.0562428)
(-0.00136267 -0.0012372 -0.0590978)
(0.00315423 0.00241072 -0.0560625)
(0.00308745 0.00242355 -0.0570187)
(-0.0014861 -0.00132495 -0.0577936)
(0.00358696 0.00216798 -0.0539326)
(0.00327949 0.0024822 -0.0572547)
(0.00348471 0.00240669 -0.0555275)
(0.003243 0.0025665 -0.0573625)
(0.00351002 0.00238998 -0.0546487)
(0.00350985 0.00219962 -0.0581592)
(0.00163642 -0.004421 -0.0534032)
(0.00336242 0.00252003 -0.0568641)
(0.00166121 -0.00446615 -0.0535916)
(0.00364048 0.00205821 -0.0553097)
(0.00165893 -0.00442533 -0.0530729)
(0.0033291 0.00263855 -0.0572053)
(-0.00180154 -0.00158745 -0.0597742)
(-0.00187143 -0.0014222 -0.0594151)
(-0.00189179 -0.00134651 -0.059672)
(-0.00181792 -0.00166468 -0.0594849)
(0.00164827 -0.00440311 -0.0536536)
(0.0035409 0.00260721 -0.0566224)
(0.00162552 -0.00441108 -0.0540137)
(0.00343363 0.00268151 -0.0582422)
(0.00335634 0.00278813 -0.0574497)
(-0.0022304 -0.00135852 -0.0613026)
(0.00297532 0.00277336 -0.0603573)
(-0.00278018 -0.00129832 -0.0622572)
(0.00238943 0.00311717 -0.0632204)
(0.00164057 -0.00398443 -0.055148)
(0.00257214 0.00300231 -0.0614145)
(0.00255557 0.00300583 -0.0625315)
(0.00130464 -0.00354978 -0.0564417)
(0.00296457 0.00319715 -0.0620669)
(0.00249292 0.00307421 -0.0628926)
(0.00176104 -0.00407171 -0.0561879)
(0.00145189 -0.00364512 -0.0569078)
(0.00243985 0.00302372 -0.0619875)
(0.00179909 -0.00306049 -0.056453)
(0.00143627 -0.00346134 -0.0585841)
(0.00185329 -0.00336369 -0.0574549)
(0.0012405 -0.0034592 -0.0585242)
(0.00182571 -0.00310561 -0.057826)
(0.00109801 -0.00350736 -0.0586753)
(0.00133714 -0.00352347 -0.0595916)
(0.00183454 0.0035022 -0.0645938)
(0.00119302 -0.00355246 -0.059698)
(0.00188856 -0.0031834 -0.0592075)
(0.00153091 -0.00360193 -0.0598493)
(0.00180124 -0.00324946 -0.0600725)
(-0.00735725 0.00076527 -0.0680257)
(0.00126848 -0.0036514 -0.0616626)
(0.00145964 0.00382545 -0.0670509)
(0.00162483 0.00432689 -0.0631942)
(0.00101788 -0.00389353 -0.0640233)
(0.00130425 -0.0038881 -0.0633829)
(0.000634614 0.0044554 -0.070561)
(0.00116159 -0.00397204 -0.0641832)
(-0.000401321 0.00510285 -0.0720113)
(0.000545768 -0.00417645 -0.0674508)
(0.000521396 -0.00397959 -0.0672782)
(-0.00596956 0.000963786 -0.0756205)
(-0.00546257 0.00127801 -0.078664)
(-0.00554939 0.00133022 -0.0791895)
(-0.0021225 -6.75593e-05 -0.0291956)
(0.000162435 -0.0038831 -0.071151)
(-0.00608332 0.00140261 -0.0788974)
(-0.00525947 -0.000495243 0.449427)
(0.000429359 -0.00384276 -0.0713497)
(-0.00664767 0.00160167 -0.0786973)
(0.000166755 -0.00407519 -0.072409)
(-0.00767281 0.00076178 0.451714)
(-0.0077654 0.000781679 0.450854)
(0.000490555 -0.00383344 -0.075137)
(-0.00226556 0.00573015 -0.0858231)
(0.000927525 -0.00390333 -0.0792324)
(0.000717895 -0.00387131 -0.0833385)
(0.000419716 -0.00406472 -0.0812089)
)


// ************************************************************************* //
