/*--------------------------------*- C++ -*----------------------------------*\
| =========                 |                                                 |
| \\      /  F ield         | OpenFOAM: The Open Source CFD Toolbox           |
|  \\    /   O peration     | Version:  plus.master.MPPICInterFoam            |
|   \\  /    A nd           | Web:      www.OpenFOAM.com                      |
|    \\/     M anipulation  |                                                 |
\*---------------------------------------------------------------------------*/
FoamFile
{
    version     2.0;
    format      ascii;
    class       volScalarField;
    location    "11.2";
    object      p_rgh;
}
// * * * * * * * * * * * * * * * * * * * * * * * * * * * * * * * * * * * * * //

dimensions      [1 -1 -2 0 0 0 0];

internalField   nonuniform List<scalar> 
11821
(
5738.23
5747.15
5751.18
5751.77
5751.11
5746.96
5736.46
5748.17
5740.27
5754.91
5755.26
5746.98
5741.58
5744.37
5752.85
5746.52
5717.83
5712.28
5718.11
5754.11
5748.01
5753.85
5755.66
5712.97
5706.82
5713.72
5757.1
5749.08
5752.63
5750.28
5718.1
5711.69
5718.19
5756.59
5748.19
5748.25
5740.49
5752.15
5753.55
5741.71
5743.97
5744.8
5738.31
5747.34
5751.01
5753.08
5752.49
5747.35
5736.62
5702.18
5701.45
5700.14
5699.43
5700.53
5702.05
5703.06
5701.2
5675.57
5678.57
5658.67
5673.31
5693.05
5702.5
5699.97
5630.28
5540.36
5527
5567.19
5698.63
5701.67
5699.04
5651.48
5527.42
5517.47
5541.19
5694.89
5701.16
5699.87
5643.87
5535.53
5523.07
5552.8
5698.46
5701.31
5701.05
5655.28
5659.63
5637.73
5643.09
5698.38
5701.95
5702.09
5701.17
5699.77
5698.71
5699.82
5701.16
5702.54
5676.99
5670.56
5664.89
5663.32
5667.39
5673.91
5680.42
5669.11
5654.21
5601.7
5554.73
5640.03
5664.42
5674.91
5661.62
5529.59
5361.27
5343.38
5419.98
5653.78
5670.3
5659.1
5532.49
5342.73
5336.99
5372.35
5644.84
5668.29
5661.65
5540.2
5353.27
5339.81
5384.49
5645.17
5669.39
5668.18
5620.1
5560.48
5503.63
5583.49
5661.62
5673.5
5675.99
5668.67
5662.56
5660.14
5664.16
5671.6
5678.98
5674.9
5669.36
5664.96
5664.84
5667.6
5672.59
5677.79
5667.69
5656.22
5574.26
5492.76
5649.07
5664.54
5673.31
5660.9
5489.9
5213.97
5211.6
5373.13
5656.18
5669.78
5655.64
5410.21
5209.74
5212.82
5275.02
5648.13
5667.99
5660.62
5473.28
5210.34
5211.68
5287.59
5646.63
5669.17
5667.05
5635.51
5488.81
5391.63
5590.86
5662
5672.22
5674.27
5667.99
5661.84
5655.45
5665.16
5670.72
5676.62
5674.63
5672.57
5670.82
5669.54
5670.95
5673.11
5674.9
5671.61
5666.48
5599.12
5498.62
5664.5
5669.85
5673.39
5668.51
5522.74
5113.18
5098.12
5477.94
5666.82
5672.35
5663.93
5350.46
5095.83
5099.4
5290.79
5663.44
5671.47
5666.88
5458.91
5092.61
5097.21
5317.26
5664.41
5672.03
5670.22
5656.75
5472.21
5341.93
5631.63
5668.37
5672.82
5673.82
5670.3
5666.75
5662.55
5669.06
5671.85
5674.21
5729.28
5725.12
5721.5
5718.45
5716.04
5714.12
5712.58
5711.37
5734.03
5728.88
5723.58
5719.67
5716.76
5714.52
5712.77
5711.42
5735.98
5730.36
5724.72
5720.24
5717.02
5714.61
5712.76
5711.32
5736.69
5731.11
5725.06
5720.36
5717.05
5714.54
5712.6
5711.11
5736.16
5730.29
5724.51
5720.16
5716.94
5714.5
5712.63
5711.18
5733.69
5728.46
5723.54
5719.56
5716.6
5714.33
5712.58
5711.21
5729.06
5724.88
5721.27
5718.17
5715.74
5713.81
5712.28
5711.06
5703.84
5704.21
5704.49
5704.71
5704.9
5705.05
5705.19
5705.31
5703.27
5703.86
5704.27
5704.58
5704.82
5705.02
5705.19
5705.34
5702.76
5703.46
5703.97
5704.36
5704.67
5704.91
5705.11
5705.29
5702.45
5703.24
5703.79
5704.22
5704.55
5704.81
5705.03
5705.22
5702.49
5703.24
5703.76
5704.16
5704.47
5704.72
5704.93
5705.12
5702.8
5703.42
5703.86
5704.19
5704.46
5704.68
5704.87
5705.05
5703.28
5703.68
5703.99
5704.24
5704.44
5704.62
5704.78
5704.92
5685.42
5688.71
5691.36
5693.5
5695.2
5696.58
5697.72
5698.7
5681.92
5686.56
5690.01
5692.65
5694.69
5696.29
5697.59
5698.68
5679.17
5684.8
5688.88
5691.92
5694.24
5696.03
5697.44
5698.62
5677.94
5683.99
5688.34
5691.56
5694
5695.87
5697.34
5698.55
5678.62
5684.37
5688.53
5691.64
5694.01
5695.84
5697.28
5698.49
5680.94
5685.76
5689.35
5692.1
5694.24
5695.91
5697.26
5698.39
5684.21
5687.67
5690.48
5692.73
5694.53
5695.98
5697.17
5698.19
5681.82
5684.66
5687.16
5689.35
5691.35
5693.3
5695.3
5697.39
5679.05
5682.9
5685.96
5688.5
5690.75
5692.88
5695.05
5697.33
5676.97
5681.53
5685.03
5687.87
5690.31
5692.58
5694.87
5697.26
5675.99
5680.9
5684.61
5687.59
5690.12
5692.45
5694.78
5697.21
5676.63
5681.24
5684.78
5687.67
5690.14
5692.43
5694.73
5697.13
5678.32
5682.28
5685.43
5688.05
5690.35
5692.53
5694.75
5697.05
5680.79
5683.72
5686.32
5688.6
5690.67
5692.68
5694.74
5696.88
5676.21
5676.95
5677.48
5677.77
5677.76
5677.16
5675.79
5675.33
5675.43
5676.59
5677.33
5677.75
5677.85
5677.31
5675.88
5675.24
5674.89
5676.28
5677.21
5677.77
5677.95
5677.46
5675.98
5675.2
5674.54
5676.1
5677.13
5677.76
5678
5677.54
5676.05
5675.22
5674.75
5676.14
5677.08
5677.68
5677.9
5677.44
5675.99
5675.21
5675.03
5676.24
5677.06
5677.58
5677.77
5677.31
5675.94
5675.3
5675.51
5676.32
5676.97
5677.4
5677.53
5677.06
5675.8
5675.38
5731.11
5726.15
5722.13
5718.82
5716.19
5714.1
5712.46
5711.15
5736.43
5729.4
5724.25
5720.02
5716.81
5714.29
5712.37
5710.9
5739.46
5731.59
5725.63
5720.76
5717.25
5714.57
5712.55
5710.98
5740.2
5732
5726.1
5720.96
5717.36
5714.67
5712.63
5711.07
5739.26
5731.19
5725.57
5720.55
5717.05
5714.39
5712.34
5710.75
5736.26
5729.39
5724.23
5719.8
5716.69
5714.25
5712.32
5710.82
5731.07
5726.22
5722.16
5718.82
5716.23
5714.15
5712.51
5711.22
5703
5703.4
5703.72
5703.94
5704.12
5704.25
5704.37
5704.47
5702.24
5702.92
5703.43
5703.78
5704.03
5704.2
5704.33
5704.43
5701.63
5702.57
5703.28
5703.77
5704.12
5704.35
5704.5
5704.6
5701.28
5702.36
5703.17
5703.74
5704.13
5704.4
5704.57
5704.69
5701.65
5702.47
5703.14
5703.6
5703.94
5704.16
5704.32
5704.42
5702.29
5702.89
5703.38
5703.73
5703.99
5704.18
5704.33
5704.45
5703.05
5703.45
5703.76
5704
5704.18
5704.33
5704.46
5704.58
5681.9
5685.83
5688.98
5691.5
5693.51
5695.12
5696.42
5697.5
5677.15
5682.92
5687.12
5690.29
5692.73
5694.63
5696.14
5697.37
5673.45
5680.75
5685.88
5689.6
5692.37
5694.47
5696.11
5697.42
5671.99
5679.88
5685.39
5689.32
5692.22
5694.41
5696.12
5697.48
5673.54
5680.75
5685.82
5689.5
5692.25
5694.34
5695.97
5697.28
5677.69
5683.24
5687.33
5690.43
5692.82
5694.68
5696.16
5697.38
5682.47
5686.27
5689.32
5691.76
5693.71
5695.28
5696.56
5697.64
5678.88
5682.23
5685.11
5687.65
5689.94
5692.09
5694.22
5696.39
5674.88
5679.78
5683.36
5686.32
5688.89
5691.26
5693.58
5695.93
5671.62
5678.05
5682.37
5685.63
5688.39
5690.92
5693.36
5695.82
5670.88
5677.54
5682.08
5685.43
5688.24
5690.8
5693.27
5695.73
5671.69
5677.95
5682.22
5685.49
5688.27
5690.79
5693.22
5695.65
5675.14
5679.88
5683.44
5686.37
5688.9
5691.23
5693.51
5695.83
5679.25
5682.56
5685.41
5687.89
5690.1
5692.19
5694.29
5696.44
5675.5
5676.73
5677.69
5678.39
5678.75
5678.44
5677.35
5677.08
5673.94
5675.89
5677.07
5677.93
5678.43
5678.24
5677.17
5676.87
5672.55
5675.35
5676.73
5677.6
5678.14
5678.01
5676.97
5676.85
5672.35
5675.32
5676.7
5677.48
5677.97
5677.78
5676.64
5676.63
5673.02
5675.39
5676.6
5677.41
5677.9
5677.71
5676.61
5676.47
5674.39
5675.98
5676.99
5677.7
5678.08
5677.81
5676.67
5676.35
5675.87
5676.89
5677.64
5678.14
5678.31
5677.87
5676.68
5676.36
5730.69
5725.99
5722.03
5718.7
5716.12
5714.07
5712.42
5711.09
5735.14
5728.79
5724.1
5719.79
5716.73
5714.37
5712.54
5711.1
5737.68
5731.04
5725.7
5720.52
5717.16
5714.63
5712.67
5711.14
5738.98
5731.84
5725.62
5720.69
5717.22
5714.61
5712.62
5711.08
5738.52
5730.9
5725.14
5720.45
5717.06
5714.48
5712.52
5711
5735.46
5728.74
5723.89
5719.86
5716.82
5714.43
5712.58
5711.16
5729.84
5725.27
5721.63
5718.54
5716.09
5714.16
5712.64
5711.42
5703.03
5703.49
5703.83
5704.08
5704.28
5704.44
5704.58
5704.71
5702.42
5703.11
5703.71
5704.08
5704.37
5704.59
5704.74
5704.88
5701.85
5702.82
5703.58
5704.09
5704.46
5704.72
5704.9
5705.03
5701.58
5702.72
5703.52
5704.06
5704.44
5704.7
5704.87
5704.94
5702.16
5703.05
5703.7
5704.15
5704.47
5704.68
5704.73
5704.84
5703.01
5703.62
5704.07
5704.39
5704.64
5704.83
5704.99
5705.13
5703.8
5704.18
5704.47
5704.68
5704.85
5705
5705.13
5705.26
5682.69
5686.45
5689.49
5691.93
5693.88
5695.45
5696.72
5697.79
5678.83
5684.12
5688.07
5691.14
5693.45
5695.25
5696.69
5697.89
5675.84
5682.47
5687.07
5690.5
5693.15
5695.24
5696.81
5698.1
5675.03
5682.01
5686.98
5690.58
5693.21
5695.22
5696.78
5697.86
5677.12
5683.11
5687.53
5691.05
5693.57
5695.46
5696.84
5698.08
5681.03
5685.83
5689.41
5692.15
5694.27
5695.93
5697.26
5698.37
5685.23
5688.58
5691.26
5693.4
5695.12
5696.51
5697.65
5698.64
5679.5
5682.72
5685.54
5688.02
5690.26
5692.38
5694.5
5696.68
5676.5
5680.9
5684.39
5687.23
5689.71
5692.01
5694.31
5696.65
5674.29
5679.6
5683.43
5686.62
5689.35
5691.79
5694.19
5696.67
5673.97
5679.56
5683.6
5686.68
5689.32
5691.76
5693.9
5696.26
5675.24
5680.01
5683.9
5687.07
5689.63
5691.98
5694.23
5696.65
5678.32
5682.3
5685.45
5688.08
5690.39
5692.56
5694.75
5697.04
5681.7
5684.61
5687.11
5689.31
5691.31
5693.25
5695.24
5697.33
5675.84
5676.73
5677.46
5677.97
5678.17
5677.76
5676.57
5676.23
5675.04
5676.39
5677.3
5677.92
5678.23
5677.88
5676.63
5676.13
5674.28
5675.78
5676.93
5677.7
5678.04
5677.71
5676.43
5675.9
5673.98
5675.93
5676.96
5677.6
5677.93
5677.55
5676.19
5675.8
5673.39
5675.8
5676.87
5677.55
5677.84
5677.44
5676.1
5675.53
5675.15
5676.46
5677.31
5677.81
5677.98
5677.51
5676.16
5675.61
5676.21
5677.03
5677.56
5677.86
5677.86
5677.26
5675.89
5675.44
5729.97
5725.23
5721.4
5718.25
5715.78
5713.82
5712.27
5711.07
5735.92
5729.05
5723.86
5719.71
5716.66
5714.28
5712.4
5710.92
5739.05
5730.88
5725.4
5720.4
5716.96
5714.35
5712.36
5710.81
5739.79
5731.2
5725.66
5720.78
5717.2
5714.56
5712.56
5711.05
5739.03
5731.41
5725.17
5720.58
5717.13
5714.54
5712.55
5711.01
5736.01
5729.39
5724.1
5720.01
5716.83
5714.38
5712.5
5711.02
5731.01
5726.24
5722.15
5718.84
5716.2
5714.11
5712.45
5711.14
5703.3
5703.69
5703.99
5704.2
5704.38
5704.52
5704.63
5704.74
5702.54
5703.16
5703.63
5703.96
5704.2
5704.38
5704.51
5704.61
5701.69
5702.59
5703.31
5703.79
5704.12
5704.34
5704.49
5704.59
5701.15
5702.34
5703.21
5703.82
5704.22
5704.49
5704.67
5704.78
5701.55
5702.65
5703.41
5703.95
5704.31
5704.54
5704.69
5704.79
5702.3
5703.05
5703.6
5703.98
5704.23
5704.39
5704.5
5704.59
5703.05
5703.48
5703.78
5704
5704.16
5704.29
5704.4
5704.48
5683.94
5687.48
5690.31
5692.56
5694.35
5695.79
5696.97
5697.98
5679.34
5684.48
5688.29
5691.18
5693.41
5695.15
5696.54
5697.69
5675.11
5681.89
5686.68
5690.18
5692.79
5694.78
5696.34
5697.59
5672.94
5680.68
5686.04
5689.86
5692.67
5694.81
5696.46
5697.79
5674.18
5681.35
5686.41
5690.05
5692.76
5694.82
5696.44
5697.72
5677.64
5683.39
5687.52
5690.63
5693.03
5694.9
5696.38
5697.6
5682.01
5685.92
5689.05
5691.57
5693.58
5695.2
5696.5
5697.59
5680.51
5683.58
5686.19
5688.45
5690.49
5692.46
5694.46
5696.56
5676.76
5680.92
5684.18
5686.9
5689.27
5691.49
5693.69
5695.99
5673.74
5679.09
5682.93
5686.01
5688.66
5691.09
5693.48
5695.89
5672.24
5678.47
5682.68
5685.87
5688.6
5691.11
5693.54
5695.97
5672.57
5678.75
5682.86
5685.99
5688.71
5691.19
5693.62
5696.07
5675.53
5680.23
5683.7
5686.58
5689.11
5691.45
5693.75
5696.08
5678.98
5682.29
5685.16
5687.7
5689.98
5692.12
5694.25
5696.41
5675.51
5676.5
5677.14
5677.53
5677.63
5677.14
5675.9
5675.57
5674.01
5675.48
5676.47
5677.13
5677.45
5677.13
5675.95
5675.64
5672.85
5674.89
5676.1
5676.95
5677.43
5677.21
5676.05
5675.96
5672.29
5675.07
5676.36
5677.15
5677.64
5677.44
5676.28
5676.2
5672.45
5675.18
5676.52
5677.4
5677.95
5677.8
5676.75
5676.65
5673.91
5675.82
5676.98
5677.83
5678.32
5678.13
5677.05
5676.76
5675.47
5676.7
5677.66
5678.36
5678.71
5678.38
5677.29
5677.03
5710.41
5710.44
5710.32
5710.13
5710.17
5710.21
5710.08
5705.47
5705.5
5705.46
5705.41
5705.29
5705.21
5705.06
5699.63
5699.63
5699.6
5699.56
5699.51
5699.4
5699.16
5699.41
5699.45
5699.43
5699.39
5699.29
5699.16
5698.92
5679.84
5679.95
5680.03
5680.07
5680
5679.94
5679.86
5710.06
5709.8
5709.84
5710.01
5709.63
5709.75
5710.19
5704.58
5704.52
5704.67
5704.77
5704.51
5704.56
5704.7
5698.51
5698.39
5698.43
5698.53
5698.29
5698.37
5698.62
5698.41
5698.06
5697.98
5697.83
5697.8
5697.96
5698.47
5681.5
5681.67
5682.36
5682.7
5682.07
5681.26
5680.83
5710.02
5710.04
5710.07
5710.02
5709.94
5710.15
5710.46
5704.83
5704.99
5705.13
5704.94
5704.95
5705.27
5705.4
5698.8
5698.91
5699.14
5698.8
5699.21
5699.33
5699.56
5698.72
5698.78
5698.91
5698.5
5698.96
5699.17
5699.34
5680.69
5680.85
5680.88
5681.05
5680.53
5680.34
5679.96
5710.13
5709.87
5709.71
5710.01
5709.92
5709.93
5710.04
5704.85
5704.7
5704.66
5704.87
5704.86
5704.67
5704.61
5698.92
5698.66
5698.58
5698.82
5698.72
5698.6
5698.58
5698.58
5698.15
5698.05
5698.08
5698.23
5698.19
5698.43
5680.13
5680.67
5681.71
5682.38
5682.23
5681.57
5681.47
5709.08
5707.82
5707.04
5706.55
5706.22
5706
5705.82
5705.67
5709.11
5707.9
5707.11
5706.6
5706.26
5706.02
5705.84
5705.68
5709.03
5707.86
5707.09
5706.58
5706.24
5706.01
5705.83
5705.67
5708.92
5707.75
5707.01
5706.55
5706.24
5705.98
5705.8
5705.66
5708.88
5707.73
5706.98
5706.49
5706.18
5705.95
5705.78
5705.63
5708.89
5707.71
5706.95
5706.45
5706.13
5705.91
5705.75
5705.6
5708.71
5707.49
5706.75
5706.29
5705.99
5705.8
5705.65
5705.53
5705.63
5705.62
5705.57
5705.52
5705.47
5705.42
5705.38
5705.33
5705.67
5705.68
5705.63
5705.57
5705.52
5705.47
5705.42
5705.36
5705.64
5705.66
5705.61
5705.56
5705.51
5705.46
5705.42
5705.36
5705.6
5705.63
5705.6
5705.56
5705.5
5705.45
5705.4
5705.34
5705.48
5705.51
5705.49
5705.46
5705.42
5705.39
5705.35
5705.3
5705.38
5705.42
5705.4
5705.36
5705.34
5705.31
5705.28
5705.23
5705.2
5705.23
5705.21
5705.19
5705.17
5705.16
5705.15
5705.12
5701.05
5702.41
5703.38
5704.04
5704.48
5704.75
5704.9
5704.98
5701.03
5702.43
5703.42
5704.09
5704.52
5704.79
5704.94
5705.02
5701
5702.41
5703.4
5704.08
5704.52
5704.78
5704.94
5705.02
5700.97
5702.38
5703.37
5704.05
5704.49
5704.76
5704.92
5705
5700.96
5702.34
5703.32
5704
5704.43
5704.71
5704.87
5704.95
5700.87
5702.25
5703.23
5703.91
5704.35
5704.62
5704.79
5704.88
5700.65
5702.04
5703.04
5703.72
5704.18
5704.47
5704.65
5704.75
5701.8
5702.85
5703.53
5703.97
5704.26
5704.46
5704.6
5704.69
5701.86
5702.88
5703.56
5704
5704.29
5704.49
5704.64
5704.73
5701.84
5702.86
5703.54
5703.98
5704.28
5704.48
5704.63
5704.72
5701.78
5702.81
5703.49
5703.94
5704.25
5704.46
5704.61
5704.7
5701.65
5702.7
5703.39
5703.86
5704.17
5704.39
5704.54
5704.65
5701.52
5702.58
5703.29
5703.76
5704.08
5704.3
5704.47
5704.58
5701.29
5702.39
5703.12
5703.6
5703.93
5704.16
5704.33
5704.45
5690.69
5697.26
5700.44
5702.17
5703.17
5703.77
5704.13
5704.35
5690.71
5697.27
5700.45
5702.18
5703.19
5703.79
5704.16
5704.38
5690.72
5697.26
5700.44
5702.17
5703.18
5703.78
5704.15
5704.37
5690.71
5697.24
5700.42
5702.15
5703.16
5703.76
5704.13
5704.36
5690.67
5697.2
5700.37
5702.1
5703.11
5703.71
5704.09
5704.31
5690.66
5697.17
5700.33
5702.06
5703.06
5703.66
5704.03
5704.25
5690.67
5697.15
5700.29
5702
5702.98
5703.57
5703.93
5704.15
5708.56
5707.26
5706.44
5705.93
5705.6
5705.4
5705.26
5705.16
5708.36
5707.09
5706.26
5705.72
5705.38
5705.15
5704.97
5704.84
5708.38
5707.06
5706.19
5705.61
5705.22
5704.97
5704.79
5704.65
5708.66
5707.38
5706.52
5705.91
5705.49
5705.21
5705.02
5704.88
5708.17
5706.86
5706.03
5705.48
5705.12
5704.9
5704.74
5704.62
5708.33
5707.07
5706.26
5705.72
5705.37
5705.14
5704.97
5704.85
5708.72
5707.41
5706.58
5706.05
5705.7
5705.48
5705.32
5705.2
5704.69
5704.69
5704.67
5704.64
5704.63
5704.63
5704.63
5704.62
5704.64
5704.65
5704.62
5704.58
5704.54
5704.46
5704.4
5704.38
5704.73
5704.7
5704.64
5704.56
5704.48
5704.41
5704.35
5704.28
5704.84
5704.82
5704.76
5704.69
5704.62
5704.56
5704.52
5704.5
5704.6
5704.59
5704.54
5704.48
5704.41
5704.35
5704.27
5704.21
5704.7
5704.7
5704.66
5704.6
5704.55
5704.47
5704.35
5704.38
5704.83
5704.83
5704.8
5704.77
5704.74
5704.73
5704.72
5704.71
5700.03
5701.45
5702.46
5703.16
5703.62
5703.92
5704.12
5704.24
5699.81
5701.21
5702.23
5702.94
5703.41
5703.62
5703.82
5703.95
5699.81
5701.17
5702.15
5702.83
5703.29
5703.6
5703.77
5703.82
5699.94
5701.31
5702.29
5702.98
5703.45
5703.76
5703.95
5704.06
5699.67
5701.01
5701.98
5702.66
5703.12
5703.37
5703.43
5703.66
5699.76
5701.17
5702.18
5702.9
5703.38
5703.5
5703.53
5703.89
5700.11
5701.53
5702.55
5703.25
5703.72
5704.02
5704.21
5704.33
5700.76
5701.89
5702.64
5703.14
5703.47
5703.7
5703.87
5703.98
5700.5
5701.7
5702.48
5702.99
5703.31
5703.5
5703.57
5703.68
5700.52
5701.93
5702.76
5703.26
5703.4
5703.36
5703.48
5703.81
5700.33
5701.75
5702.6
5703.11
5703.42
5703.61
5703.73
5703.83
5700.35
5701.76
5702.6
5703.11
5703.15
5703.04
5703.17
5703.73
5700.45
5701.7
5702.5
5703.01
5703.34
5703.33
5703.18
5703.55
5700.86
5702.01
5702.77
5703.26
5703.58
5703.81
5703.97
5704.09
5691.63
5697.5
5700.32
5701.85
5702.73
5703.25
5703.58
5703.78
5691.72
5697.54
5700.32
5701.79
5702.62
5703.14
5703.47
5703.65
5692.25
5697.86
5700.56
5702.01
5702.63
5702.84
5703.13
5703.3
5692.48
5697.99
5700.67
5702.08
5702.85
5703.31
5703.56
5703.69
5692.06
5697.77
5700.52
5701.88
5702.21
5702.53
5702.82
5702.96
5691.47
5697.42
5700.27
5701.76
5702.6
5703.11
5703.4
5703.48
5691.2
5697.31
5700.25
5701.84
5702.76
5703.31
5703.65
5703.85
5708.57
5707.31
5706.52
5706.04
5705.74
5705.55
5705.42
5705.31
5708.67
5707.42
5706.63
5706.11
5705.75
5705.49
5705.33
5705.22
5708.7
5707.46
5706.64
5706.11
5705.75
5705.49
5705.31
5705.18
5708.7
5707.51
5706.71
5706.16
5705.79
5705.52
5705.32
5705.18
5708.57
5707.37
5706.59
5706.09
5705.76
5705.51
5705.33
5705.2
5708.88
5707.63
5706.85
5706.39
5706.04
5705.79
5705.62
5705.48
5709.1
5707.84
5707.05
5706.54
5706.19
5705.95
5705.78
5705.64
5704.95
5704.96
5704.93
5704.9
5704.89
5704.88
5704.88
5704.86
5705.13
5705.09
5705.01
5704.94
5704.88
5704.84
5704.82
5704.81
5705.19
5705.14
5705.11
5705.13
5705.08
5705.01
5704.95
5704.91
5705.02
5705.06
5705.12
5705.06
5704.99
5704.92
5704.87
5704.83
5705.08
5705.2
5705.19
5705.13
5705.06
5704.99
5704.94
5704.9
5705.42
5705.41
5705.37
5705.31
5705.25
5705.2
5705.16
5705.11
5705.56
5705.55
5705.5
5705.44
5705.39
5705.35
5705.31
5705.26
5700.32
5701.74
5702.76
5703.46
5703.92
5704.21
5704.4
5704.51
5700.35
5701.76
5702.75
5703.44
5703.89
5704.17
5704.36
5704.48
5700.58
5701.99
5702.89
5703.45
5703.91
5704.2
5704.36
5704.56
5700.21
5701.59
5702.75
5703.56
5704
5704.28
5704.44
5704.53
5700.59
5701.95
5702.93
5703.61
5704.04
5704.33
5704.5
5704.61
5700.72
5702.12
5703.12
5703.8
5704.25
5704.52
5704.69
5704.78
5700.98
5702.34
5703.31
5703.97
5704.41
5704.68
5704.84
5704.92
5701.1
5702.22
5702.95
5703.43
5703.75
5703.97
5704.13
5704.24
5701.19
5702.35
5703.09
5703.56
5703.87
5704.07
5704.21
5704.3
5701.39
5702.58
5703.3
5703.75
5704.05
5704.23
5704.37
5704.48
5701.06
5702.41
5703.44
5703.93
5704.21
5704.38
5704.47
5704.52
5701.44
5702.59
5703.31
5703.77
5704.04
5704.23
5704.37
5704.47
5701.61
5702.71
5703.41
5703.86
5704.14
5704.33
5704.47
5704.56
5701.72
5702.79
5703.48
5703.93
5704.22
5704.42
5704.56
5704.65
5691.14
5697.32
5700.3
5701.92
5702.86
5703.42
5703.76
5703.97
5691.21
5697.39
5700.38
5702
5702.94
5703.5
5703.85
5704.06
5691.24
5697.46
5700.47
5702.1
5703.04
5703.62
5703.97
5704.19
5691.41
5697.62
5700.61
5702.23
5703.16
5703.71
5704.04
5704.23
5691.06
5697.41
5700.47
5702.13
5703.08
5703.65
5704.02
5704.23
5690.95
5697.36
5700.46
5702.15
5703.12
5703.7
5704.06
5704.27
5690.76
5697.28
5700.44
5702.15
5703.14
5703.74
5704.1
5704.32
5708.72
5707.47
5706.67
5706.16
5705.83
5705.61
5705.47
5705.36
5708.48
5707.21
5706.38
5705.83
5705.47
5705.23
5705.08
5704.98
5708.3
5707.02
5706.2
5705.67
5705.33
5705.09
5704.92
5704.8
5708.69
5707.42
5706.58
5706
5705.6
5705.33
5705.14
5705.02
5708.53
5707.24
5706.38
5705.81
5705.42
5705.15
5704.95
5704.81
5708.5
5707.2
5706.37
5705.82
5705.46
5705.21
5705.05
5704.95
5708.54
5707.23
5706.41
5705.9
5705.58
5705.39
5705.27
5705.18
5705.01
5705.02
5704.99
5704.95
5704.95
5704.94
5704.94
5704.92
5704.82
5704.85
5704.78
5704.71
5704.57
5704.46
5704.59
5704.61
5704.74
5704.73
5704.68
5704.62
5704.53
5704.44
5704.42
5704.44
5704.94
5704.93
5704.87
5704.81
5704.75
5704.7
5704.66
5704.63
5704.93
5704.89
5704.81
5704.71
5704.63
5704.55
5704.49
5704.45
5704.77
5704.78
5704.72
5704.65
5704.53
5704.47
5704.48
5704.56
5704.73
5704.72
5704.69
5704.65
5704.64
5704.64
5704.65
5704.65
5700.36
5701.74
5702.72
5703.42
5703.88
5704.21
5704.42
5704.55
5700.02
5701.34
5702.27
5702.74
5703.23
5703.55
5703.85
5704.19
5699.93
5701.25
5702.21
5702.87
5703.18
5703.37
5703.72
5704.01
5700.2
5701.54
5702.5
5703.17
5703.62
5703.91
5704.08
5704.21
5700.08
5701.41
5702.36
5703.03
5703.46
5703.74
5703.92
5704.11
5700
5701.35
5702.33
5702.86
5703.32
5703.64
5703.98
5704.16
5700.08
5701.49
5702.49
5703.18
5703.65
5703.95
5704.16
5704.28
5700.99
5702.15
5702.92
5703.4
5703.7
5703.94
5704.15
5704.3
5700.64
5701.89
5702.7
5703.13
5703.13
5703.34
5703.49
5703.94
5700.67
5702.03
5702.84
5703.34
5703.61
5703.58
5703.58
5703.99
5700.58
5701.98
5702.8
5703.29
5703.59
5703.76
5703.88
5703.99
5700.84
5702.16
5702.69
5703.07
5703.38
5703.57
5703.71
5704.14
5700.62
5701.79
5702.54
5702.95
5703.15
5703.48
5703.8
5703.91
5700.78
5701.91
5702.67
5703.16
5703.49
5703.73
5703.9
5704.02
5690.85
5697.22
5700.29
5701.96
5702.91
5703.47
5703.83
5704.05
5691.21
5697.4
5700.37
5701.91
5702.64
5702.98
5703.5
5703.83
5691.86
5697.78
5700.53
5701.61
5702.44
5702.94
5703.25
5703.41
5692.3
5697.92
5700.69
5702.19
5702.93
5703.45
5703.76
5703.9
5692.14
5697.73
5700.16
5701.6
5702.44
5703
5703.58
5703.93
5691.62
5697.46
5700.36
5701.89
5702.75
5703.25
5703.54
5703.72
5691.63
5697.51
5700.34
5701.87
5702.75
5703.28
5703.6
5703.8
5705.57
5705.5
5705.44
5705.39
5705.35
5705.32
5705.31
5705.31
5705.58
5705.51
5705.45
5705.4
5705.36
5705.34
5705.32
5705.33
5705.57
5705.5
5705.44
5705.39
5705.36
5705.33
5705.32
5705.33
5705.55
5705.48
5705.43
5705.38
5705.34
5705.32
5705.31
5705.31
5705.53
5705.46
5705.4
5705.36
5705.32
5705.3
5705.28
5705.29
5705.5
5705.44
5705.38
5705.33
5705.29
5705.26
5705.25
5705.25
5705.43
5705.37
5705.31
5705.26
5705.22
5705.19
5705.17
5705.18
5705.28
5705.25
5705.23
5705.2
5705.18
5705.16
5705.15
5705.15
5705.31
5705.28
5705.25
5705.23
5705.2
5705.19
5705.18
5705.17
5705.31
5705.28
5705.25
5705.22
5705.2
5705.19
5705.18
5705.17
5705.29
5705.26
5705.24
5705.21
5705.19
5705.18
5705.17
5705.16
5705.25
5705.23
5705.2
5705.18
5705.16
5705.14
5705.13
5705.13
5705.2
5705.17
5705.15
5705.13
5705.11
5705.1
5705.09
5705.08
5705.09
5705.07
5705.06
5705.04
5705.02
5705.01
5705
5705
5705.01
5705.03
5705.04
5705.04
5705.05
5705.05
5705.05
5705.04
5705.05
5705.06
5705.07
5705.07
5705.07
5705.07
5705.07
5705.07
5705.04
5705.06
5705.07
5705.07
5705.07
5705.07
5705.07
5705.07
5705.03
5705.05
5705.06
5705.06
5705.06
5705.06
5705.06
5705.06
5704.98
5705.01
5705.02
5705.03
5705.03
5705.03
5705.03
5705.03
5704.92
5704.95
5704.96
5704.97
5704.98
5704.99
5704.99
5704.98
5704.8
5704.83
5704.85
5704.87
5704.88
5704.89
5704.9
5704.9
5704.75
5704.78
5704.81
5704.83
5704.84
5704.85
5704.85
5704.85
5704.78
5704.81
5704.84
5704.86
5704.87
5704.88
5704.89
5704.89
5704.78
5704.81
5704.84
5704.86
5704.87
5704.88
5704.89
5704.89
5704.76
5704.8
5704.83
5704.85
5704.87
5704.88
5704.88
5704.88
5704.71
5704.75
5704.78
5704.81
5704.82
5704.84
5704.84
5704.84
5704.64
5704.69
5704.72
5704.75
5704.77
5704.78
5704.79
5704.79
5704.52
5704.57
5704.6
5704.63
5704.65
5704.67
5704.67
5704.67
5704.46
5704.53
5704.58
5704.62
5704.65
5704.66
5704.67
5704.67
5704.49
5704.56
5704.61
5704.65
5704.68
5704.69
5704.7
5704.7
5704.49
5704.56
5704.61
5704.65
5704.68
5704.69
5704.7
5704.7
5704.47
5704.55
5704.6
5704.64
5704.66
5704.68
5704.69
5704.69
5704.43
5704.5
5704.56
5704.59
5704.62
5704.64
5704.65
5704.65
5704.37
5704.44
5704.5
5704.54
5704.57
5704.59
5704.6
5704.6
5704.27
5704.34
5704.39
5704.43
5704.46
5704.48
5704.49
5704.49
5705.09
5705.05
5705
5704.95
5704.91
5704.87
5704.84
5704.84
5704.79
5704.75
5704.72
5704.69
5704.66
5704.64
5704.63
5704.64
5704.58
5704.54
5704.52
5704.5
5704.48
5704.48
5704.48
5704.5
5704.81
5704.78
5704.75
5704.74
5704.73
5704.73
5704.72
5704.74
5704.56
5704.53
5704.5
5704.48
5704.47
5704.47
5704.47
5704.49
5704.79
5704.76
5704.72
5704.69
5704.66
5704.65
5704.64
5704.65
5705.13
5705.08
5705.03
5704.98
5704.94
5704.91
5704.88
5704.88
5704.61
5704.61
5704.6
5704.59
5704.58
5704.58
5704.57
5704.56
5704.4
5704.45
5704.44
5704.43
5704.42
5704.41
5704.4
5704.4
5704.24
5704.27
5704.28
5704.27
5704.27
5704.28
5704.28
5704.3
5704.48
5704.47
5704.47
5704.47
5704.47
5704.47
5704.48
5704.49
5704.24
5704.25
5704.25
5704.25
5704.25
5704.26
5704.27
5704.28
5704.46
5704.46
5704.46
5704.45
5704.45
5704.44
5704.44
5704.45
5704.7
5704.69
5704.69
5704.68
5704.67
5704.66
5704.65
5704.64
5704.3
5704.33
5704.36
5704.38
5704.39
5704.4
5704.4
5704.4
5704.07
5704.19
5704.23
5704.24
5704.21
5704.2
5704.24
5704.28
5703.87
5703.97
5704.04
5704.06
5704.07
5704.07
5704.06
5704.08
5704.12
5704.18
5704.21
5704.24
5704.25
5704.27
5704.27
5704.27
5703.9
5703.95
5703.98
5704
5704.02
5704.02
5704.03
5704.03
5704.14
5704.18
5704.22
5704.25
5704.23
5704.23
5704.28
5704.31
5704.39
5704.43
5704.45
5704.47
5704.49
5704.49
5704.5
5704.5
5704.06
5704.1
5704.13
5704.16
5704.18
5704.19
5704.2
5704.2
5703.89
5703.94
5703.96
5703.92
5703.93
5703.94
5703.95
5703.95
5703.93
5703.96
5704
5704
5703.99
5703.95
5703.9
5703.87
5703.9
5703.94
5703.97
5704
5704.02
5704.03
5704.02
5703.97
5703.89
5703.91
5703.93
5703.93
5703.92
5703.87
5703.82
5703.86
5703.86
5703.95
5703.97
5703.99
5704
5703.97
5703.94
5704.03
5704.15
5704.2
5704.24
5704.26
5704.28
5704.3
5704.3
5704.3
5703.88
5703.94
5703.99
5704.02
5704.04
5704.06
5704.07
5704.07
5703.69
5703.74
5703.76
5703.74
5703.84
5703.88
5703.82
5703.76
5703.38
5703.43
5703.92
5703.77
5703.76
5703.88
5703.71
5703.67
5703.76
5703.8
5703.82
5703.83
5703.85
5703.87
5703.85
5703.79
5703.05
5703.73
5703.9
5703.76
5703.63
5703.63
5703.63
5703.63
5703.6
5703.7
5703.78
5703.85
5703.89
5703.9
5703.89
5703.81
5703.96
5704.03
5704.07
5704.11
5704.14
5704.16
5704.17
5704.17
5705.24
5705.18
5705.13
5705.08
5705.04
5705.01
5704.98
5704.98
5705.14
5705.09
5705.04
5704.99
5704.96
5704.93
5704.91
5704.91
5705.1
5705.04
5705
5704.97
5704.94
5704.93
5704.92
5704.93
5705.11
5705.07
5705.04
5705.01
5705
5704.99
5704.99
5705
5705.12
5705.07
5705.03
5705
5704.99
5704.98
5704.97
5704.99
5705.39
5705.33
5705.27
5705.22
5705.19
5705.16
5705.15
5705.15
5705.54
5705.47
5705.41
5705.36
5705.32
5705.29
5705.27
5705.27
5704.85
5704.84
5704.82
5704.8
5704.79
5704.78
5704.77
5704.76
5704.79
5704.78
5704.77
5704.74
5704.73
5704.73
5704.73
5704.74
5704.89
5704.87
5704.85
5704.83
5704.81
5704.81
5704.8
5704.8
5704.81
5704.8
5704.79
5704.79
5704.79
5704.79
5704.8
5704.81
5704.87
5704.85
5704.83
5704.81
5704.81
5704.81
5704.82
5704.82
5705.08
5705.06
5705.04
5705.01
5704.99
5704.99
5704.99
5704.99
5705.22
5705.2
5705.17
5705.15
5705.13
5705.12
5705.11
5705.1
5704.56
5704.59
5704.61
5704.62
5704.63
5704.63
5704.64
5704.64
5704.53
5704.55
5704.57
5704.57
5704.54
5704.54
5704.55
5704.57
5704.72
5704.72
5704.72
5704.7
5704.67
5704.69
5704.7
5704.7
5704.57
5704.59
5704.61
5704.61
5704.62
5704.64
5704.65
5704.65
5704.65
5704.68
5704.65
5704.61
5704.61
5704.64
5704.7
5704.7
5704.82
5704.84
5704.85
5704.85
5704.83
5704.8
5704.85
5704.85
5704.95
5704.97
5704.99
5704.99
5705
5705
5705
5705
5704.3
5704.34
5704.37
5704.4
5704.42
5704.43
5704.43
5704.43
5704.35
5704.38
5704.4
5704.41
5704.41
5704.39
5704.36
5704.33
5704.52
5704.55
5704.57
5704.53
5704.42
5704.42
5704.42
5704.46
5704.55
5704.56
5704.56
5704.56
5704.56
5704.56
5704.55
5704.54
5704.52
5704.54
5704.57
5704.54
5704.46
5704.43
5704.43
5704.43
5704.6
5704.63
5704.66
5704.67
5704.68
5704.67
5704.63
5704.65
5704.7
5704.73
5704.76
5704.78
5704.79
5704.8
5704.8
5704.8
5704.08
5704.15
5704.2
5704.23
5704.26
5704.27
5704.28
5704.29
5704.16
5704.22
5704.26
5704.3
5704.32
5704.33
5704.33
5704.33
5704.3
5704.36
5704.42
5704.46
5704.49
5704.42
5704.33
5704.33
5704.33
5704.37
5704.41
5704.42
5704.49
5704.51
5704.51
5704.5
5704.33
5704.38
5704.44
5704.48
5704.51
5704.45
5704.35
5704.31
5704.38
5704.44
5704.49
5704.52
5704.54
5704.55
5704.54
5704.52
5704.43
5704.5
5704.55
5704.58
5704.61
5704.62
5704.63
5704.63
5705.28
5705.23
5705.18
5705.13
5705.09
5705.06
5705.05
5705.06
5704.91
5704.86
5704.82
5704.79
5704.77
5704.76
5704.75
5704.77
5704.74
5704.7
5704.67
5704.66
5704.65
5704.65
5704.65
5704.67
5704.95
5704.91
5704.89
5704.87
5704.86
5704.86
5704.85
5704.87
5704.73
5704.69
5704.66
5704.63
5704.62
5704.61
5704.61
5704.63
5704.9
5704.85
5704.82
5704.78
5704.75
5704.73
5704.72
5704.73
5705.12
5705.07
5705.03
5704.98
5704.94
5704.9
5704.87
5704.87
5704.91
5704.9
5704.9
5704.89
5704.88
5704.87
5704.86
5704.87
5704.6
5704.59
5704.59
5704.58
5704.57
5704.57
5704.58
5704.59
5704.43
5704.42
5704.42
5704.42
5704.43
5704.44
5704.45
5704.47
5704.62
5704.61
5704.61
5704.61
5704.61
5704.61
5704.62
5704.63
5704.44
5704.44
5704.43
5704.43
5704.42
5704.43
5704.43
5704.43
5704.55
5704.54
5704.54
5704.53
5704.52
5704.51
5704.5
5704.51
5704.64
5704.64
5704.64
5704.63
5704.62
5704.61
5704.6
5704.6
5704.61
5704.65
5704.68
5704.7
5704.72
5704.73
5704.74
5704.75
5704.28
5704.33
5704.36
5704.35
5704.33
5704.35
5704.43
5704.45
5704.08
5704.12
5704.15
5704.17
5704.17
5704.19
5704.22
5704.23
5704.28
5704.31
5704.34
5704.37
5704.39
5704.4
5704.4
5704.38
5704.21
5704.24
5704.26
5704.27
5704.27
5704.26
5704.24
5704.23
5704.23
5704.27
5704.31
5704.33
5704.33
5704.33
5704.34
5704.36
5704.34
5704.38
5704.4
5704.42
5704.44
5704.44
5704.45
5704.45
5704.37
5704.42
5704.46
5704.49
5704.51
5704.53
5704.54
5704.54
5704.06
5704.09
5704.12
5704.14
5704.09
5704.03
5704.04
5704.04
5704.12
5704.13
5704.15
5704.17
5704.15
5704.1
5704.1
5704.13
5704.05
5704.08
5704.11
5704.14
5704.15
5704.17
5704.18
5704.16
5704.21
5704.22
5704.24
5704.24
5704.22
5704.2
5704.18
5704.18
5703.97
5704.01
5704.04
5704.08
5704.09
5704.09
5704.08
5704.08
5704.1
5704.14
5704.18
5704.2
5704.22
5704.24
5704.24
5704.24
5704.17
5704.23
5704.29
5704.33
5704.35
5704.37
5704.38
5704.38
5703.89
5703.95