/*--------------------------------*- C++ -*----------------------------------*\
| =========                 |                                                 |
| \\      /  F ield         | OpenFOAM: The Open Source CFD Toolbox           |
|  \\    /   O peration     | Version:  plus.master.MPPICInterFoam            |
|   \\  /    A nd           | Web:      www.OpenFOAM.com                      |
|    \\/     M anipulation  |                                                 |
\*---------------------------------------------------------------------------*/
FoamFile
{
    version     2.0;
    format      ascii;
    class       vectorField;
    location    "3.4/lagrangian/kinematicCloud";
    object      UCorrect;
}
// * * * * * * * * * * * * * * * * * * * * * * * * * * * * * * * * * * * * * //


32
(
(1.19481e-16 -6.69215e-17 1.21654e-14)
(1.04928e-13 1.41936e-13 1.16284e-12)
(-9.36798e-14 7.02763e-15 6.1303e-11)
(4.1474e-14 -6.19388e-16 5.33262e-11)
(-1.25447e-09 -1.11618e-09 2.16947e-06)
(0.0015004 0.000568229 4.01203e-08)
(0.00177146 0.00220132 0.00155512)
(0.00144388 0.000227696 4.01203e-08)
(0.000670129 -0.00014138 8.97482e-07)
(-2.30606e-08 6.97174e-08 -6.46572e-08)
(-2.3429e-06 3.60384e-06 -3.00965e-06)
(-0.000317585 -5.91683e-05 2.03154e-09)
(0.000414413 0.000398237 0.000823847)
(2.11296e-08 -2.20067e-07 9.68744e-11)
(0.00206075 0.00466144 0.000823847)
(0.0024498 0.00700538 0.000823847)
(-1.16696e-06 -4.16652e-07 5.70567e-09)
(-2.16338e-06 7.40438e-06 8.50701e-11)
(0.00376211 -0.00180539 -1.97458e-06)
(1.81312e-06 -3.50974e-08 1.36657e-07)
(7.71632e-06 2.80768e-06 1.85993e-07)
(7.71632e-06 2.80768e-06 2.28596e-07)
(-0.000253421 -0.000214165 2.14778e-06)
(7.45114e-07 4.22327e-07 3.2176e-09)
(6.47898e-07 3.26534e-06 1.99663e-12)
(0.000473042 0.000447815 -1.97458e-06)
(-1.88068e-06 -6.50238e-07 3.03611e-09)
(-0.000589373 0.000399884 0.000176271)
(-0.000597995 0.000310072 0.000117155)
(0.000459029 0.000461828 -1.97458e-06)
(-0.00057028 0.000598757 0.000176271)
(0.00137131 -0.000450455 -4.48739e-06)
)


// ************************************************************************* //
