/*--------------------------------*- C++ -*----------------------------------*\
| =========                 |                                                 |
| \\      /  F ield         | OpenFOAM: The Open Source CFD Toolbox           |
|  \\    /   O peration     | Version:  plus.master.MPPICInterFoam            |
|   \\  /    A nd           | Web:      www.OpenFOAM.com                      |
|    \\/     M anipulation  |                                                 |
\*---------------------------------------------------------------------------*/
FoamFile
{
    version     2.0;
    format      ascii;
    class       volVectorField;
    location    "6.4";
    object      U;
}
// * * * * * * * * * * * * * * * * * * * * * * * * * * * * * * * * * * * * * //

dimensions      [0 1 -1 0 0 0 0];

internalField   nonuniform List<vector> 
11821
(
(-0.00222222 -0.0034734 0.582818)
(-0.00164171 -0.00708567 0.612672)
(-0.00101578 -0.00314378 0.514532)
(0.00145408 -0.00561359 0.563305)
(0.000155346 -0.00404652 0.508096)
(0.000220521 -0.00201993 0.437045)
(-0.00640464 -0.00350204 0.53815)
(-0.00367091 -0.00446543 0.63926)
(0.00019009 -0.00485095 0.732376)
(0.0024121 -0.0018797 0.766162)
(0.00245318 -0.00272837 0.713305)
(0.00395798 -0.00389251 0.612131)
(0.00597219 -0.00349457 0.509882)
(-0.00645689 -0.00243882 0.614297)
(-0.000464776 -0.00232171 0.775568)
(0.0047374 -0.00546023 0.946582)
(0.00502156 -0.00128562 1.00005)
(0.00184203 0.00153257 0.944485)
(0.00343777 -0.00230468 0.733458)
(0.00727493 -0.00227727 0.578891)
(-0.00580262 -0.00172866 0.663641)
(0.00162913 -0.00303141 0.868777)
(0.008592 -0.00518723 1.08762)
(0.0099838 -0.000442028 1.11357)
(0.00549141 -0.000892061 1.0712)
(0.000277443 -0.00199337 0.82478)
(0.00740025 -0.00115777 0.622492)
(-0.00592904 -0.000288515 0.662801)
(4.91093e-05 -0.00314995 0.869236)
(0.00731415 -0.00159064 1.092)
(0.0119527 -0.00131528 1.13787)
(0.00665875 -0.00536529 1.04785)
(0.000769385 -0.00138475 0.821818)
(0.00716264 6.08842e-05 0.62202)
(-0.00457986 0.00138654 0.610507)
(0.00106206 -0.000751117 0.765995)
(0.00710185 0.000357326 0.918519)
(0.00683949 -0.00299013 0.972836)
(0.00161004 -0.00578307 0.894073)
(0.00236716 -0.000306319 0.723063)
(0.00566296 0.00135774 0.577138)
(-0.00378702 0.00233277 0.534198)
(-0.00152418 0.00223965 0.629898)
(0.00167554 0.0022244 0.7126)
(0.00340977 -0.00042276 0.741354)
(0.002525 -0.000136011 0.695297)
(0.00271062 0.00144992 0.606106)
(0.0041048 0.00221772 0.509409)
(-0.00355282 0.00290779 0.452807)
(-0.00242825 0.00344202 0.518158)
(-0.000348795 0.00424247 0.565664)
(0.00142282 0.00351397 0.579905)
(0.00212577 0.00284271 0.555813)
(0.00268564 0.00273601 0.502415)
(0.00339603 0.0025842 0.433681)
(-0.0103077 -0.00604932 0.533319)
(-0.0087662 -0.00913423 0.626983)
(-0.00370566 -0.0125767 0.711393)
(0.000721822 -0.0104271 0.743343)
(0.00445904 -0.0120317 0.695689)
(0.00835326 -0.00861341 0.60354)
(0.00935485 -0.00608539 0.506741)
(-0.0132866 -0.00424713 0.605201)
(-0.0108718 -0.00667676 0.743815)
(-0.00209589 -0.00900619 0.918463)
(0.00172665 -0.00355172 0.979373)
(0.00542102 -0.00881236 0.897123)
(0.0124164 -0.00665079 0.713922)
(0.0129538 -0.00433548 0.573718)
(-0.0144625 -0.00165887 0.650843)
(-0.00926063 -0.00365195 0.833168)
(0.00470823 -0.00412475 1.06407)
(0.00383202 -6.24579e-05 1.06706)
(0.0025927 -0.00356561 1.04255)
(0.0125851 -0.00313576 0.792879)
(0.0150794 -0.00144615 0.615914)
(-0.014818 0.00203451 0.64966)
(-0.0107337 0.00136613 0.832877)
(-0.00153854 0.00133364 1.06072)
(0.00395859 -0.00114882 1.13047)
(0.00822014 0.00228163 1.05042)
(0.0139698 0.0026409 0.792168)
(0.0153309 0.00237143 0.615901)
(-0.0115657 0.00539023 0.602087)
(-0.00947432 0.00732296 0.730724)
(-0.00175396 0.00855313 0.887595)
(0.00323791 0.00546196 0.948709)
(0.00618772 0.00834547 0.86878)
(0.0113122 0.0076846 0.706402)
(0.0115184 0.005462 0.573496)
(-0.00776931 0.0061687 0.531009)
(-0.00678724 0.00924529 0.620044)
(-0.00272713 0.0126914 0.695913)
(0.00163014 0.0119467 0.724513)
(0.00470274 0.0115954 0.684386)
(0.00695832 0.0084113 0.600868)
(0.00738666 0.00607683 0.508213)
(-0.0057095 0.00573363 0.452681)
(-0.00493624 0.00764716 0.515576)
(-0.0024781 0.0101598 0.561423)
(0.000602942 0.010457 0.575998)
(0.00307239 0.0093698 0.552913)
(0.00469849 0.00709856 0.501149)
(0.00541379 0.00546004 0.434128)
(-0.00579996 -0.00181669 0.530034)
(-0.00550057 -0.00250035 0.619479)
(-0.00303391 -0.005922 0.69796)
(-0.000155757 -0.00529436 0.728469)
(0.00212342 -0.0050364 0.684249)
(0.00400635 -0.00237167 0.597453)
(0.00478404 -0.00235244 0.503516)
(-0.0074326 -0.000758376 0.600795)
(-0.00869695 -0.00233431 0.728296)
(-0.00277018 -0.00398625 0.863493)
(0.000928402 -0.00171826 0.946978)
(0.00308604 -0.00352844 0.854564)
(0.0073923 -0.00165594 0.703424)
(0.00642885 -0.00128859 0.570109)
(-0.00926651 0.00051759 0.645313)
(-0.00911081 -0.00109704 0.796985)
(0.000973976 -0.00384371 1.00122)
(0.00324772 -0.00235894 1.14261)
(0.00295552 -0.00301543 0.983051)
(0.010271 -0.000362325 0.772945)
(0.00833465 0.000389488 0.612509)
(-0.0095893 0.0027499 0.644791)
(-0.0108953 0.00402246 0.790066)
(-0.00383735 0.00302873 1.00926)
(0.00215507 0.00155768 1.10365)
(0.00647209 0.00467597 0.969831)
(0.0119256 0.00410905 0.766055)
(0.00860118 0.00285332 0.613448)
(-0.00521801 0.0038542 0.601264)
(-0.00766151 0.00746231 0.718798)
(-0.00384796 0.0110178 0.831387)
(0.00173777 0.0100579 0.898613)
(0.00455632 0.0107504 0.824036)
(0.00618817 0.0065708 0.699436)
(0.00465425 0.00406987 0.572941)
(-0.00271794 0.00270627 0.531363)
(-0.00289528 0.00412747 0.61944)
(-0.00202789 0.0087913 0.688692)
(0.000264623 0.00933594 0.716295)
(0.00162417 0.0069962 0.680266)
(0.00178451 0.00363399 0.600969)
(0.00237198 0.00317515 0.508302)
(-0.00275959 0.00256624 0.452869)
(-0.00244913 0.00211133 0.515493)
(-0.0015941 0.00313696 0.561119)
(-3.22395e-05 0.00365626 0.576151)
(0.00120283 0.00278953 0.552793)
(0.00188204 0.00222459 0.501031)
(0.00271374 0.00268027 0.43401)
(-0.00116988 0.00181181 0.521902)
(-0.000477535 0.00565398 0.614568)
(-0.00135164 0.00567963 0.694386)
(-0.00114263 0.00404972 0.723826)
(-0.00101646 0.00533312 0.679152)
(-0.000972274 0.00407047 0.590145)
(0.00121464 0.000540837 0.494262)
(0.000714314 0.00321717 0.597644)
(5.87358e-06 0.00749323 0.733772)
(-0.00278478 0.00672122 0.854629)
(-0.0019878 0.00516044 0.940767)
(-0.000970448 0.00778812 0.848488)
(-0.00177055 0.00632422 0.703951)
(-0.000124121 0.00181174 0.563077)
(0.00132881 0.00305552 0.648869)
(-0.0026901 0.00562491 0.794309)
(-0.00592487 0.00460531 0.978423)
(-0.000191915 0.0053913 1.10771)
(0.00354158 0.00707116 0.969965)
(0.000805219 0.00575093 0.776593)
(-0.000772485 0.00239746 0.609952)
(0.00217156 0.00246293 0.652385)
(-0.00287059 0.00398062 0.788057)
(-0.0056194 0.00758491 0.940593)
(0.000506217 0.0112522 1.06749)
(0.00448334 0.00709942 0.928354)
(0.00112194 0.00391955 0.771953)
(-0.00174911 0.00232593 0.61391)
(0.00428325 0.000365267 0.604962)
(0.00347028 -0.000284313 0.739801)
(-0.00234668 0.0048146 0.823565)
(-0.00343092 0.00684858 0.900489)
(-0.00194774 0.00319004 0.853794)
(-0.00372635 -0.000336755 0.714861)
(-0.00242276 0.00106332 0.571516)
(0.00191104 -0.00111159 0.527639)
(0.00325546 -0.0054964 0.629071)
(0.000554109 -0.00539295 0.715122)
(-0.00158779 -0.0029957 0.740243)
(-0.00305026 -0.00440494 0.701169)
(-0.00361738 -0.0035706 0.605841)
(-0.000889601 0.000204043 0.50266)
(-0.000696688 0.000543377 0.446463)
(8.84008e-05 -0.00242929 0.509981)
(-0.000287995 -0.00418516 0.558938)
(-0.000581009 -0.00397854 0.57525)
(-0.000546403 -0.00311503 0.549496)
(-8.72887e-05 -0.00126024 0.494675)
(0.00154885 0.00113358 0.427437)
(-0.0086554 -0.00578134 0.506991)
(-0.00611227 -0.00457129 0.598254)
(-0.00425658 -0.00414248 0.682351)
(-0.000823516 -0.00567953 0.711037)
(0.0029667 -0.00493937 0.664613)
(0.00610008 -0.0057341 0.571977)
(0.00949342 -0.00649492 0.479999)
(-0.00918878 -0.00209773 0.583419)
(-0.00545347 0.00280282 0.742879)
(-0.00636742 0.00391963 0.891997)
(-0.00245661 0.00134857 0.945721)
(0.00312635 0.00301437 0.867176)
(0.00620408 5.25016e-05 0.698037)
(0.0107644 -0.00327827 0.547073)
(-0.00869599 0.000814832 0.64091)
(-0.00737827 0.00565979 0.844601)
(-0.00951374 0.00847392 1.00806)
(-0.00292695 0.00652989 1.08677)
(0.00548118 0.00740295 0.995164)
(0.00703063 0.00355239 0.797442)
(0.0107845 0.000176071 0.596444)
(-0.00696715 0.00238203 0.646443)
(-0.00642861 0.00306301 0.843269)
(-0.00960547 0.00674414 0.978295)
(-0.00300129 0.00761227 1.03766)
(0.00586638 0.00597138 0.987601)
(0.00579792 0.00347212 0.817234)
(0.00905846 0.0024122 0.60362)
(-0.00769677 0.0035371 0.593552)
(-0.00320155 0.000155956 0.778495)
(-0.00551121 0.0022136 0.947843)
(-0.00421418 0.00478034 0.955175)
(0.00120222 0.00203626 0.892405)
(0.0053063 0.00238274 0.726958)
(0.00969159 0.00400239 0.558182)
(-0.00797793 0.00595948 0.513903)
(-0.00461007 0.00383883 0.619352)
(-0.00304121 0.0016774 0.720281)
(-0.000884664 0.00313328 0.753551)
(0.00238122 0.00423684 0.699264)
(0.00581181 0.00534795 0.592904)
(0.00945554 0.00631183 0.489419)
(-0.0073965 0.00852786 0.435868)
(-0.00517717 0.0089684 0.495984)
(-0.00274943 0.00908165 0.543631)
(0.000143054 0.00916313 0.55974)
(0.00337239 0.00972764 0.534382)
(0.00636661 0.00921255 0.481217)
(0.00883365 0.0082916 0.417825)
(-0.0218773 -0.0192365 0.495542)
(-0.018467 -0.0257149 0.574781)
(-0.0106663 -0.0305506 0.646725)
(0.00116174 -0.0319753 0.670786)
(0.0127172 -0.0296119 0.630289)
(0.0198624 -0.0241214 0.550489)
(0.0224509 -0.0180703 0.470732)
(-0.0293562 -0.0141171 0.563476)
(-0.0257107 -0.0182161 0.704268)
(-0.0155689 -0.01986 0.836834)
(0.000929992 -0.0196582 0.890472)
(0.0181997 -0.0196324 0.816122)
(0.0278556 -0.0177177 0.661942)
(0.0297962 -0.0134488 0.530457)
(-0.0333651 -0.00507033 0.615912)
(-0.029628 -0.00382144 0.804677)
(-0.0163258 0.00317242 0.996069)
(0.000705223 0.00407247 1.03357)
(0.0192216 0.00210737 0.964128)
(0.031991 -0.00470095 0.759913)
(0.033788 -0.0049983 0.575756)
(-0.0323198 0.00477633 0.620378)
(-0.0281095 0.00715682 0.828219)
(-0.0154483 0.011168 0.967387)
(0.00070305 0.012597 1.02517)
(0.0180802 0.0122565 0.943543)
(0.0306155 0.00751893 0.77904)
(0.0327412 0.00436832 0.58168)
(-0.0297417 0.0130256 0.57268)
(-0.0253156 0.0165157 0.737004)
(-0.0132513 0.0180395 0.880522)
(0.00258951 0.0177502 0.901337)
(0.0175376 0.0186684 0.84477)
(0.0273558 0.0164327 0.694491)
(0.029798 0.0119343 0.541421)
(-0.0230709 0.0183632 0.50135)
(-0.0194227 0.024722 0.593684)
(-0.0105325 0.0286225 0.681072)
(0.00234657 0.0291142 0.710475)
(0.0143516 0.0280152 0.664111)
(0.0216459 0.0229802 0.570779)
(0.0239737 0.0166533 0.47925)
(-0.0166658 0.0196143 0.431025)
(-0.0134665 0.0257802 0.485143)
(-0.00700043 0.0303988 0.527275)
(0.00165133 0.0313568 0.541728)
(0.00993769 0.0294541 0.519107)
(0.0156814 0.0240806 0.471655)
(0.0181462 0.0178949 0.414234)
(-0.0221957 -0.0207725 0.492068)
(-0.0193039 -0.029123 0.553553)
(-0.0108511 -0.0353839 0.60161)
(0.001966 -0.0373076 0.616263)
(0.0141241 -0.0339496 0.589608)
(0.0211002 -0.0268285 0.534709)
(0.0226445 -0.0191669 0.469963)
(-0.0309053 -0.0168445 0.545325)
(-0.0281255 -0.0244599 0.636644)
(-0.0164435 -0.0287792 0.719503)
(0.00275465 -0.0294335 0.743665)
(0.0211464 -0.0273424 0.698047)
(0.0306475 -0.0225602 0.610336)
(0.0308812 -0.0156425 0.519626)
(-0.036535 -0.00774327 0.583314)
(-0.0336667 -0.0105514 0.714022)
(-0.0186868 -0.00663095 0.813803)
(0.00360258 -0.0040983 0.88416)
(0.0250607 -0.00682039 0.795056)
(0.0366541 -0.0101323 0.677776)
(0.0361585 -0.00747904 0.554403)
(-0.0374378 0.00455831 0.587317)
(-0.0339504 0.00798549 0.743553)
(-0.0186557 0.0140667 0.887777)
(0.00400746 0.0150478 0.937267)
(0.0262059 0.0144489 0.872632)
(0.0381461 0.00716132 0.717109)
(0.0368378 0.00372314 0.559226)
(-0.0319858 0.0146252 0.55082)
(-0.0281251 0.0215954 0.660644)
(-0.0140198 0.0268662 0.777014)
(0.00444719 0.0244686 0.798874)
(0.0209264 0.0262196 0.754083)
(0.0309416 0.0198023 0.637867)
(0.0317807 0.0129775 0.526984)
(-0.023674 0.0191675 0.495137)
(-0.0207593 0.0275238 0.564492)
(-0.0110499 0.0340209 0.624195)
(0.00290907 0.0348654 0.644637)
(0.0157681 0.0328333 0.614054)
(0.0233841 0.0252401 0.548627)
(0.0246262 0.017146 0.475853)
(-0.016484 0.0192293 0.433295)
(-0.0139134 0.0262177 0.48143)
(-0.00732291 0.0321857 0.516503)
(0.0019114 0.0335215 0.527804)
(0.0106787 0.0310184 0.509643)
(0.0163153 0.0244152 0.469297)
(0.0180823 0.0174999 0.417285)
(-0.0110992 -0.0110674 0.492128)
(-0.00937813 -0.0150349 0.547142)
(-0.00503397 -0.018204 0.586696)
(0.00122626 -0.0191492 0.598487)
(0.00707717 -0.0176195 0.577171)
(0.01066 -0.0142056 0.5304)
(0.0119111 -0.0105395 0.470975)
(-0.0151023 -0.00954471 0.53941)
(-0.0134703 -0.0142728 0.612895)
(-0.0076508 -0.0183028 0.672731)
(0.00188472 -0.0191125 0.687235)
(0.0106624 -0.0175429 0.659422)
(0.0151423 -0.0133931 0.594394)
(0.0155217 -0.00911635 0.51606)
(-0.0184015 -0.00564527 0.569338)
(-0.0168355 -0.00935606 0.66105)
(-0.0101599 -0.0126473 0.73918)
(0.00195365 -0.0111909 0.759067)
(0.0137831 -0.0115939 0.725661)
(0.0191106 -0.0088189 0.644693)
(0.0183552 -0.00549565 0.544721)
(-0.0207292 0.00134585 0.57166)
(-0.019807 0.00192262 0.672074)
(-0.0146164 0.00237336 0.810038)
(0.00176504 0.00458346 0.869454)
(0.0165668 0.00322124 0.785364)
(0.02197 0.0015864 0.662713)
(0.0204022 0.00083459 0.547219)
(-0.0163639 0.00731913 0.542982)
(-0.0149182 0.0115211 0.624602)
(-0.00764293 0.0168729 0.700435)
(0.00281591 0.0175387 0.724925)
(0.0120082 0.0166142 0.692314)
(0.0168389 0.010514 0.611204)
(0.0168262 0.00636333 0.521274)
(-0.0119302 0.00921706 0.493947)
(-0.0109049 0.0134435 0.55535)
(-0.00597867 0.0184655 0.603591)
(0.00178282 0.019662 0.621205)
(0.00895724 0.0176906 0.596775)
(0.0127421 0.0124038 0.541248)
(0.0132577 0.00832125 0.475401)
(-0.00846474 0.00947971 0.435555)
(-0.00733595 0.0124758 0.480906)
(-0.00391643 0.0158677 0.512696)
(0.00122939 0.0167529 0.522424)
(0.00614271 0.0153629 0.506327)
(0.00918089 0.0118975 0.469185)
(0.0101668 0.00878528 0.419673)
(-0.000943039 -0.00134849 0.489244)
(-0.000219338 -0.000579425 0.542648)
(0.000184165 0.000324397 0.580938)
(0.000182623 0.00108234 0.592187)
(0.000195969 -7.3659e-05 0.571428)
(0.000864085 -0.00147529 0.526051)
(0.00213351 -0.00203737 0.468187)
(-0.000233996 -0.00097406 0.535037)
(0.00106953 -0.000250487 0.606501)
(0.00124657 9.70738e-05 0.667054)
(0.000514523 -0.00143935 0.684061)
(-0.000489347 -0.000119286 0.652233)
(-0.000402175 -0.0011931 0.587605)
(0.00143921 -0.00174529 0.51157)
(0.000600142 -0.00131239 0.563646)
(0.00234624 -0.00206331 0.652676)
(-0.000104133 -0.00606073 0.720896)
(0.000562935 -0.00641489 0.75726)
(0.000724983 -0.005212 0.698791)
(-0.00205121 -0.00263927 0.634016)
(0.000588518 -0.0018022 0.538677)
(-0.000282085 -0.00103044 0.565366)
(-0.000997152 -0.00193117 0.657527)
(-0.000930821 -0.00401566 0.736116)
(4.95692e-05 -0.00121352 0.754635)
(0.000747126 -0.00320494 0.72934)
(0.000250096 -0.0019346 0.64867)
(0.00156505 -0.00121841 0.541355)
(0.000312615 -0.000538824 0.538221)
(0.00102817 -0.00124839 0.618175)
(0.0019599 0.000743422 0.689345)
(0.000863436 0.00345424 0.707525)
(-0.000922239 0.0010505 0.682311)
(-0.000773814 -0.000627945 0.605141)
(0.0012623 -0.000396917 0.516412)
(9.44484e-05 -0.00058229 0.490886)
(0.000475361 -0.00213003 0.5504)
(0.000649692 -0.00282142 0.596287)
(0.000411536 -0.00414561 0.613162)
(1.44002e-05 -0.00305042 0.589752)
(0.000354073 -0.00150905 0.536346)
(0.00160612 -0.000159961 0.471876)
(-0.000251735 0.00015312 0.433537)
(-7.82995e-05 -0.00112551 0.477768)
(0.000170063 -0.00182426 0.508307)
(0.000353316 -0.00240291 0.517626)
(0.000607935 -0.0015236 0.50191)
(0.00120926 -0.000453527 0.465794)
(0.00199984 0.000512315 0.417314)
(0.00393811 0.00348029 0.484569)
(0.00405689 0.00642207 0.538823)
(0.00263471 0.00865682 0.57874)
(-0.000596043 0.010765 0.590442)
(-0.0035132 0.00762409 0.568736)
(-0.00391928 0.00447723 0.521265)
(-0.00246917 0.00191451 0.462953)
(0.00658926 0.00341575 0.531502)
(0.0072329 0.00684852 0.608344)
(0.00466959 0.00994803 0.682413)
(-0.000963384 0.0118541 0.718006)
(-0.00616123 0.00857827 0.667854)
(-0.00770631 0.00468361 0.586823)
(-0.00493211 0.00150081 0.506034)
(0.00907164 0.00140325 0.561792)
(0.0107699 0.00288252 0.662213)
(0.00713257 0.00160716 0.793826)
(-0.000883158 0.00189407 0.766789)
(-0.00891215 -0.000887394 0.78383)
(-0.0114819 0.000319534 0.639852)
(-0.0067341 -0.000237869 0.532883)
(0.0101873 -0.00182275 0.56436)
(0.00877329 -0.00321646 0.673255)
(0.00390134 -0.00585843 0.767354)
(-0.00261806 -0.00405063 0.79211)
(-0.00842219 -0.00660268 0.755126)
(-0.00996765 -0.00386665 0.649577)
(-0.00638091 -0.00205394 0.535074)
(0.00817934 -0.00430702 0.536199)
(0.00810658 -0.0075507 0.625432)
(0.00360708 -0.00939748 0.711599)
(-0.00161552 -0.0122861 0.781691)
(-0.00595383 -0.00820052 0.715585)
(-0.00806093 -0.00553865 0.605744)
(-0.00518379 -0.00298674 0.510367)
(0.00613234 -0.00506887 0.486847)
(0.00671076 -0.00931079 0.550241)
(0.00473501 -0.0135628 0.600591)
(-0.00108943 -0.0180478 0.619222)
(-0.00626695 -0.0122258 0.59195)
(-0.00644256 -0.00716285 0.531961)
(-0.00401489 -0.00344394 0.465799)
(0.00395234 -0.00413437 0.428381)
(0.00391206 -0.00750093 0.472758)
(0.00264007 -0.0107913 0.503397)
(-0.000395161 -0.0127902 0.512439)
(-0.00299445 -0.00959338 0.496124)
(-0.0032142 -0.00593706 0.459611)
(-0.00209424 -0.00306273 0.411617)
(0.00364095 0.00302462 0.479994)
(0.00366806 0.00536461 0.536297)
(0.00214965 0.00694632 0.578936)
(-0.000813457 0.00748813 0.591551)
(-0.00306973 0.00542128 0.567116)
(-0.00313224 0.00339171 0.516599)
(-0.00173489 0.00140114 0.457507)
(0.00559605 0.00302116 0.529776)
(0.00575802 0.00554071 0.617021)
(0.00352179 0.00843605 0.699065)
(-0.00162155 0.0119118 0.732114)
(-0.00588895 0.0062207 0.682906)
(-0.00619616 0.00349748 0.58705)
(-0.00355418 0.000855549 0.500478)
(0.00711796 0.00171945 0.564062)
(0.00651485 0.00143018 0.681573)
(0.00562157 0.00209276 0.817962)
(-0.000614127 0.0052186 0.853111)
(-0.00807298 0.00255226 0.797272)
(-0.0075022 0.000967683 0.646059)
(-0.00423426 -0.000169836 0.527579)
(0.00996362 -0.00180044 0.567083)
(0.00795897 -0.00330621 0.712207)
(0.00217654 -0.00503619 0.786846)
(0.000800099 -0.00468651 0.814432)
(-0.00400171 -0.00420442 0.748027)
(-0.00975699 -0.00304297 0.651014)
(-0.00526782 -0.00173592 0.529621)
(0.00631821 -0.00442653 0.535996)
(0.00533023 -0.00565877 0.643123)
(-0.00134214 -0.00915631 0.759074)
(-0.00219972 -0.0164299 0.800751)
(-0.0017536 -0.00967506 0.741104)
(-0.00553556 -0.00520804 0.607865)
(-0.00329377 -0.00261551 0.504267)
(0.00494648 -0.00415241 0.482365)
(0.00592459 -0.00719491 0.55149)
(0.00464428 -0.0116444 0.611047)
(-0.00143268 -0.0167874 0.631636)
(-0.00636476 -0.00985939 0.596296)
(-0.00547389 -0.00553888 0.527778)
(-0.0029413 -0.00257588 0.45928)
(0.00333709 -0.00303081 0.422339)
(0.00355189 -0.0056297 0.466821)
(0.00265996 -0.00873466 0.497681)
(-0.000348152 -0.0108564 0.506463)
(-0.00273942 -0.00752093 0.489501)
(-0.00253165 -0.00460166 0.452738)
(-0.0013905 -0.00233728 0.405437)
(0.000723042 -0.000435869 0.476135)
(0.00118363 -5.25566e-05 0.533592)
(0.00097991 0.000294401 0.578532)
(-0.000174505 8.76381e-05 0.591905)
(-0.000309324 -0.00135027 0.564456)
(0.000760882 -0.00110719 0.512429)
(0.00180795 -0.0013193 0.453726)
(0.00104486 -0.000118427 0.527784)
(0.00177808 0.000426313 0.622129)
(0.00161374 0.00194393 0.709091)
(-0.00076589 0.00315352 0.736372)
(-0.00154799 -0.00124737 0.688071)
(9.94403e-06 -0.000842618 0.58359)
(0.00167554 -0.00146924 0.495754)
(0.000986627 0.000383591 0.565946)
(0.000303553 -0.00122293 0.700473)
(0.00167914 0.00429853 0.845853)
(0.00276907 0.00263954 0.876922)
(0.00278754 -0.000477037 0.81894)
(0.00125059 0.000576064 0.64642)
(0.0023406 -0.00068565 0.522647)
(0.00427975 -0.00138682 0.56961)
(0.00628099 -0.00264649 0.722821)
(0.00191087 -0.00248372 0.801956)
(0.00208743 -0.00216624 0.83746)
(-0.00185705 -0.00101529 0.843787)
(-0.00572843 -0.00150619 0.653159)
(-5.28178e-05 -0.00111502 0.524308)
(0.000192119 -0.00227194 0.533376)
(2.10952e-05 -0.00172854 0.651196)
(-0.0027617 -0.00795074 0.770914)
(-0.00151567 -0.00928874 0.808939)
(0.00229848 -0.00249952 0.745159)
(0.00108275 -0.0032524 0.60383)
(0.00222526 -0.00139507 0.498479)
(0.000349839 -0.000431462 0.477144)
(0.00159236 -0.00105721 0.547448)
(0.00232207 -0.00411049 0.611047)
(-0.000871347 -0.00821164 0.63174)
(-0.00213317 -0.00161023 0.593279)
(0.000210143 -0.00109935 0.521685)
(0.0016068 -0.000198544 0.453675)
(0.000398083 0.000721552 0.417189)
(0.00105092 0.000186927 0.461002)
(0.00155032 -0.00123424 0.491463)
(0.000336637 -0.00293967 0.500169)
(-0.000108211 -0.000466844 0.48302)
(0.00115016 -0.000212961 0.446813)
(0.00187907 0.000258953 0.400899)
(-0.00245517 -0.00443315 0.47387)
(-0.00144821 -0.00629459 0.531003)
(9.85614e-05 -0.00733367 0.575432)
(0.00123885 -0.00715414 0.588934)
(0.00300868 -0.00829672 0.561379)
(0.00496301 -0.00608006 0.510317)
(0.00560037 -0.00430992 0.452768)
(-0.00392849 -0.00400569 0.524473)
(-0.00277143 -0.00612708 0.616926)
(-5.56347e-05 -0.00794549 0.701009)
(0.00128045 -0.0060115 0.731546)
(0.0036715 -0.00976978 0.681188)
(0.00676038 -0.0059746 0.579027)
(0.00731721 -0.00421381 0.493518)
(-0.00537909 -0.00254772 0.561557)
(-0.00574525 -0.00476351 0.69641)
(-0.00100375 -0.00306993 0.81453)
(0.00523962 -0.00389164 0.866972)
(0.0120907 -0.00995612 0.80716)
(0.0106051 -0.002445 0.639498)
(0.00936597 -0.00212099 0.519299)
(-0.00478671 -0.00128847 0.565056)
(-0.00286027 -0.00219125 0.72108)
(-0.00472004 0.00035587 0.855719)
(-0.000347997 -0.00415 0.838337)
(0.00184778 -0.00251404 0.821084)
(0.00386774 -0.00137334 0.646019)
(0.00693622 -0.000910657 0.51976)
(-0.00661276 0.000952016 0.528394)
(-0.00738926 0.0023659 0.643484)
(-0.00764504 0.00418878 0.770848)
(0.00093338 -0.00471675 0.802585)
(0.0102296 0.00503705 0.737735)
(0.0096014 -0.000351292 0.595844)
(0.00867012 0.000222614 0.494417)
(-0.0045015 0.00370246 0.472778)
(-0.00363249 0.00569166 0.540739)
(-0.000167362 0.00705873 0.602889)
(0.0014807 0.0015901 0.623205)
(0.00337679 0.00677552 0.584951)
(0.00647349 0.00383403 0.515736)
(0.0066731 0.0024641 0.450423)
(-0.00260468 0.00465405 0.414265)
(-0.00171013 0.00628591 0.456849)
(0.000516931 0.00736836 0.486606)
(0.00186731 0.00538369 0.494767)
(0.00321009 0.00653284 0.478403)
(0.00500558 0.00444241 0.443307)
(0.00526184 0.00303627 0.399148)
(-0.00355063 -0.00608651 0.473426)
(-0.00228874 -0.00927557 0.529282)
(5.15675e-05 -0.0106622 0.572432)
(0.00225901 -0.0107644 0.585768)
(0.00494228 -0.0115157 0.559475)
(0.00707019 -0.00817274 0.510344)
(0.00718042 -0.00527087 0.454504)
(-0.00595726 -0.0056931 0.521652)
(-0.0044058 -0.00945822 0.609185)
(-0.000850805 -0.0110039 0.690509)
(0.00250744 -0.0106191 0.720821)
(0.00689098 -0.0123147 0.671032)
(0.0101926 -0.0080457 0.573966)
(0.00978566 -0.00511214 0.49372)
(-0.00761561 -0.00389014 0.555755)
(-0.00541372 -0.00731741 0.682762)
(0.000177901 -0.00670574 0.775655)
(0.00806806 -0.00597501 0.842441)
(0.0162077 -0.0111929 0.787619)
(0.0137947 -0.00385145 0.630294)
(0.0122147 -0.00271954 0.518076)
(-0.00846388 -0.00111488 0.558211)
(-0.00575495 -0.00231943 0.696959)
(-0.00100287 -0.000692351 0.799679)
(0.00401208 -0.00562168 0.789051)
(0.00657917 -0.00354987 0.794362)
(0.00865175 -0.0012473 0.635392)
(0.0103444 -0.000736495 0.517774)
(-0.00835206 0.00240609 0.522424)
(-0.00806407 0.00438361 0.626362)
(-0.00316597 0.00775695 0.729812)
(0.00459173 -0.00280393 0.73946)
(0.0106261 0.00432766 0.701824)
(0.0122706 0.00093711 0.583027)
(0.0108543 0.000949447 0.49242)
(-0.00555686 0.00494154 0.469558)
(-0.00497782 0.0079514 0.531375)
(-0.00101332 0.0109503 0.583831)
(0.00342805 0.00838609 0.599989)
(0.00689921 0.00956792 0.569341)
(0.00913123 0.00537441 0.510095)
(0.00836583 0.00310797 0.449778)
(-0.00308166 0.00553732 0.413463)
(-0.00235654 0.00804645 0.454424)
(0.000241568 0.0104742 0.482743)
(0.00292708 0.00961032 0.490363)
(0.00513161 0.00898823 0.475359)
(0.00660855 0.00571723 0.442327)
(0.00629763 0.0035566 0.400063)
(-0.00114719 -0.0039485 0.474405)
(-0.000447746 -0.0067243 0.528746)
(0.00114008 -0.00822638 0.569084)
(0.00272791 -0.00857079 0.582093)
(0.00456926 -0.00895293 0.558542)
(0.00575611 -0.00580109 0.512606)
(0.00525027 -0.0031874 0.458309)
(-0.00307105 -0.00391649 0.519378)
(-0.00230422 -0.00705741 0.597081)
(0.000277184 -0.00770246 0.672718)
(0.00287566 -0.00705683 0.704016)
(0.00596056 -0.00843856 0.651007)
(0.00841163 -0.00605617 0.569526)
(0.00718015 -0.0035193 0.496297)
(-0.00428712 -0.00264203 0.54829)
(-0.00179532 -0.00489807 0.65583)
(0.0012773 -0.00564754 0.753428)
(0.00501283 -0.000608511 0.794393)
(0.00922682 -0.00579256 0.770389)
(0.0093894 -0.00365983 0.616812)
(0.00889164 -0.0024476 0.51913)
(-0.0045599 -0.000730792 0.548968)
(-0.000746921 -0.00143861 0.660948)
(0.00550391 -0.00252791 0.784387)
(0.00615208 -0.000726293 0.833511)
(0.00577808 -0.00022097 0.779976)
(0.00811454 -0.0011269 0.623648)
(0.0086219 -0.000958209 0.518209)
(-0.00360086 0.00126614 0.516774)
(-0.00230172 0.00215082 0.603203)
(0.00180773 0.00272269 0.691043)
(0.00447268 -0.00040415 0.71038)
(0.00632086 0.00264303 0.667316)
(0.00883832 0.000880737 0.572427)
(0.00758433 0.000301604 0.493099)
(-0.00166941 0.00239566 0.467938)
(-0.00153041 0.00422223 0.524068)
(0.000611243 0.00631605 0.567873)
(0.00331259 0.00581868 0.583124)
(0.0055876 0.00628961 0.55774)
(0.0067887 0.00291048 0.507677)
(0.0056157 0.00115944 0.451508)
(-0.000233321 0.00260272 0.413795)
(-5.28637e-05 0.00405707 0.453789)
(0.00123687 0.00593098 0.481247)
(0.00287357 0.00602962 0.489169)
(0.00427842 0.00528102 0.475176)
(0.00487792 0.00269293 0.443675)
(0.0041654 0.00120988 0.402573)
(0.00492983 0.00147046 0.476814)
(0.00469107 0.00106578 0.532001)
(0.00366386 0.00022586 0.57261)
(0.00241194 -0.000835016 0.584535)
(0.00183759 -0.00150127 0.563545)
(0.0012563 0.0005572 0.518449)
(0.000123966 0.00149644 0.463623)
(0.00524479 0.000320893 0.52126)
(0.00467426 -0.000457486 0.597798)
(0.00348714 0.000520677 0.664501)
(0.00182582 -0.000156186 0.689786)
(0.00203184 -0.00322868 0.642457)
(0.00230467 -0.00148768 0.573702)
(3.65841e-05 4.96358e-06 0.502074)
(0.00493767 -0.000717284 0.549023)
(0.00597026 -0.00168934 0.645794)
(0.00268293 -0.00247425 0.747319)
(-0.000395039 0.000208346 0.790567)
(-0.000393007 -0.00299048 0.74341)
(0.00216928 -0.00253458 0.612963)
(0.000559274 -0.00128653 0.524579)
(0.00466017 -0.00153635 0.548546)
(0.00546695 -0.00253379 0.648268)
(0.00608351 -0.00417114 0.759167)
(0.00456822 -0.000960722 0.831123)
(0.0037378 -0.000731715 0.76567)
(0.002819 -0.0026429 0.617476)
(0.00114082 -0.00203724 0.523122)
(0.00496827 -0.00208714 0.517167)
(0.00526333 -0.00288599 0.597726)
(0.00523147 -0.00351391 0.676022)
(0.00292286 -0.00242019 0.699335)
(0.00150929 -0.00114022 0.654704)
(0.00189341 -0.00262453 0.573564)
(0.000141906 -0.00250931 0.497554)
(0.00495718 -0.00248544 0.468753)
(0.00430368 -0.00312328 0.524352)
(0.00329057 -0.00281224 0.566209)
(0.00247516 -0.00197493 0.580094)
(0.00216109 -0.00148551 0.558046)
(0.00143035 -0.00318265 0.51094)
(-0.00021818 -0.00312382 0.45538)
(0.00442756 -0.00245522 0.41426)
(0.00385207 -0.00306443 0.454915)
(0.00312543 -0.00284823 0.482905)
(0.00248926 -0.00242801 0.491549)
(0.00202543 -0.00260972 0.478134)
(0.00121255 -0.00356778 0.446921)
(-5.63883e-05 -0.00335507 0.405535)
(0.00215774 0.00266406 0.147428)
(0.0019772 0.00335677 0.105063)
(0.00257336 0.00021674 0.340146)
(0.00266798 0.000566633 0.2764)
(0.00234055 0.000999765 0.223566)
(0.00186388 0.00150117 0.179812)
(0.00134505 0.00204521 0.141583)
(0.00101233 0.00260054 0.0974958)
(0.00020317 -0.00113062 0.505386)
(0.00152465 -0.00018093 0.413987)
(0.0021284 0.000317729 0.336862)
(0.00218169 0.000517091 0.272224)
(0.0018775 0.00065331 0.218645)
(0.00136713 0.000820721 0.174299)
(0.00079816 0.00108448 0.135662)
(0.000387975 0.00149386 0.0913806)
(6.15989e-05 -0.00131838 0.474873)
(0.00111687 -0.00023899 0.390775)
(0.00158761 0.000171085 0.319325)
(0.00167078 0.000196615 0.259052)
(0.0014578 6.0031e-05 0.208735)
(0.00107206 -6.02576e-05 0.166712)
(0.000610032 -5.47436e-05 0.129683)
(0.000238281 0.00023611 0.0867788)
(0.000404048 -0.00125484 0.42534)
(0.00101388 -0.000395933 0.353953)
(0.00135622 -0.000186202 0.292653)
(0.00146328 -0.000354131 0.240316)
(0.00139581 -0.000670709 0.196043)
(0.0012067 -0.000970518 0.158446)
(0.000939947 -0.00114734 0.124584)
(0.000672638 -0.00100908 0.0843968)
(0.000839587 -0.000900799 0.36791)
(0.00120637 -0.000469646 0.312682)
(0.00149589 -0.000514982 0.263374)
(0.00167179 -0.000807324 0.220242)
(0.00175132 -0.00118695 0.183007)
(0.00174829 -0.00153614 0.15066)
(0.00166774 -0.00177474 0.120684)
(0.00149894 -0.00171204 0.0840112)
(0.00611713 -0.00301046 0.426445)
(0.00578608 -0.00256273 0.36528)
(0.00542474 -0.00182094 0.3111)
(0.00500174 -0.000846948 0.264183)
(0.0045601 0.000281636 0.224091)
(0.00412786 0.00144457 0.189543)
(0.00375692 0.00257685 0.157529)
(0.0035505 0.00361501 0.117608)
(0.00727978 -0.0020103 0.473891)
(0.00677933 -0.00172905 0.395782)
(0.00612756 -0.00118186 0.3296)
(0.00535221 -0.000435599 0.273674)
(0.00450146 0.000457641 0.226798)
(0.00364314 0.00141793 0.187279)
(0.00285153 0.00237177 0.151727)
(0.0022652 0.00317056 0.109138)
(0.00759402 -0.000649068 0.501965)
(0.00720241 -0.000358955 0.413948)
(0.00646659 -4.36531e-05 0.340073)
(0.00550365 0.000341366 0.278171)
(0.00441487 0.000820753 0.226753)
(0.00327934 0.00139512 0.18391)
(0.00221167 0.00202919 0.14606)
(0.00136763 0.00265217 0.101768)
(0.0072142 0.000776172 0.501225)
(0.00674625 0.00104715 0.411957)
(0.00600276 0.00108567 0.336943)
(0.00506151 0.00104897 0.274072)
(0.00395789 0.00105059 0.221831)
(0.00278341 0.00116383 0.178345)
(0.00164895 0.00141353 0.140062)
(0.000730275 0.00182529 0.0955902)
(0.00582547 0.00193242 0.471291)
(0.00541437 0.0020151 0.389364)
(0.00486303 0.00174755 0.319814)
(0.00413403 0.00133446 0.261056)
(0.00325192 0.000939633 0.211852)
(0.00227598 0.000668561 0.170525)
(0.00129324 0.000586407 0.133764)