/*--------------------------------*- C++ -*----------------------------------*\
| =========                 |                                                 |
| \\      /  F ield         | OpenFOAM: The Open Source CFD Toolbox           |
|  \\    /   O peration     | Version:  plus.master                           |
|   \\  /    A nd           | Web:      www.OpenFOAM.com                      |
|    \\/     M anipulation  |                                                 |
\*---------------------------------------------------------------------------*/
FoamFile
{
    version     2.0;
    format      ascii;
    class       volScalarField;
    location    "6.6";
    object      p;
}
// * * * * * * * * * * * * * * * * * * * * * * * * * * * * * * * * * * * * * //

dimensions      [1 -1 -2 0 0 0 0];

internalField   nonuniform List<scalar> 
47285
(
5647.07
5647.43
5647.14
5647.23
5647.02
5647.31
5646.37
5647.51
5661.72
5654.92
5655.29
5654.54
5660.82
5646.79
5647.19
5654.77
5657.1
5653.51
5656.29
5654.09
5646.03
5647.79
5655.73
5654.81
5656.89
5653.02
5654.98
5646.37
5647.43
5654.68
5657.13
5653.83
5656.29
5654.04
5646.33
5647.54
5661.7
5654.91
5655.45
5654.56
5660.7
5647.11
5646.89
5646.94
5646.58
5646.88
5646.65
5647.09
5646.35
5522.88
5525.58
5527.67
5528.31
5527.35
5525.1
5522.46
5525.52
5531.95
5534.54
5536.17
5534.25
5529.63
5525.02
5527.66
5534.6
5549.97
5552.84
5549.59
5533.23
5526.88
5528.24
5535.25
5549.61
5562.02
5554.16
5536.72
5527.88
5527.52
5534.36
5549.58
5552.53
5549.05
5533.23
5526.9
5525.37
5531.14
5534.12
5535.99
5533.95
5529.56
5524.99
5522.74
5525.44
5527.46
5528.16
5527.22
5525.01
5522.4
5390.61
5394.1
5397.13
5398.62
5397.13
5394.1
5390.7
5393.78
5399.06
5404.26
5408.23
5404.88
5399.34
5394.18
5396.42
5403.74
5414.97
5421.86
5416.74
5404.21
5397.07
5397.11
5404.27
5412.82
5430.21
5425.04
5408.8
5398.87
5396.23
5403.4
5414.42
5421.1
5415.82
5403.85
5396.93
5393.58
5398.8
5403.94
5407.52
5404.32
5399.01
5393.99
5390.43
5393.87
5396.87
5398.22
5396.77
5393.84
5390.53
5244.37
5246.79
5249.06
5250.22
5249.11
5247.11
5244.86
5246.4
5249.91
5253.32
5256.47
5254.19
5251.14
5247.64
5248.04
5252.43
5259.93
5266.39
5261.6
5254.7
5250.11
5248.41
5252.38
5257
5272.98
5269.22
5259.52
5252.44
5247.9
5252.26
5259.39
5265.68
5260.96
5254.97
5250.38
5246.29
5249.8
5253.18
5256.1
5253.96
5251.13
5247.71
5244.34
5246.76
5248.97
5250.12
5249.05
5247.14
5244.97
5073.37
5070.9
5068.8
5067.22
5068.94
5071.86
5074.73
5070.52
5065.88
5060.19
5057.46
5061.38
5068.21
5072.91
5067.81
5059.47
5056.14
5059.08
5057.44
5064.02
5071.63
5066.74
5057.24
5054.11
5064.77
5062.57
5064.08
5071.75
5067.81
5059.78
5056.41
5059.34
5057.28
5064.1
5071.58
5070.5
5066.07
5060.65
5058.09
5061.72
5068.29
5072.88
5073.3
5070.92
5068.87
5067.47
5069.13
5071.92
5074.73
5646.51
5646.47
5646.04
5645.6
5645.17
5644.73
5644.32
5643.95
5646.91
5647.04
5646.36
5645.83
5645.33
5644.83
5644.38
5643.98
5646.93
5647.54
5646.78
5646.12
5645.49
5644.92
5644.44
5644.01
5647.26
5647.8
5646.96
5646.25
5645.59
5644.93
5644.41
5643.99
5646.93
5647.48
5646.86
5646.18
5645.54
5644.95
5644.45
5644.04
5646.84
5646.89
5646.45
5645.87
5645.34
5644.83
5644.38
5643.99
5646.47
5646.4
5646.04
5645.61
5645.17
5644.74
5644.33
5643.96
5520.31
5518.73
5517.44
5516.39
5515.55
5514.86
5514.31
5513.87
5521.99
5519.83
5518.15
5516.85
5515.84
5515.04
5514.41
5513.92
5523.35
5520.74
5518.72
5517.21
5516.06
5515.17
5514.48
5513.95
5524.06
5521.22
5519.03
5517.4
5516.19
5515.25
5514.54
5513.99
5523.34
5520.72
5518.71
5517.21
5516.07
5515.18
5514.49
5513.96
5521.97
5519.81
5518.15
5516.86
5515.86
5515.07
5514.44
5513.96
5520.27
5518.71
5517.43
5516.4
5515.57
5514.9
5514.36
5513.93
5387.89
5385.91
5384.38
5383.19
5382.29
5381.63
5381.16
5380.88
5390.13
5387.34
5385.29
5383.77
5382.65
5381.84
5381.29
5380.97
5392.05
5388.55
5386.01
5384.19
5382.89
5381.97
5381.35
5380.99
5393.17
5389.27
5386.41
5384.42
5383.02
5382.05
5381.39
5381.02
5391.94
5388.48
5385.98
5384.19
5382.89
5381.98
5381.36
5381
5390.03
5387.29
5385.27
5383.77
5382.67
5381.87
5381.32
5380.99
5387.8
5385.86
5384.36
5383.21
5382.32
5381.67
5381.21
5380.93
5243.11
5242.02
5241.48
5241.37
5241.66
5242.38
5243.56
5245.18
5244.81
5243.08
5242.09
5241.67
5241.76
5242.38
5243.56
5245.28
5246.36
5243.93
5242.49
5241.82
5241.77
5242.33
5243.51
5245.29
5247.7
5244.65
5242.84
5242.01
5241.89
5242.4
5243.57
5245.36
5246.46
5244.01
5242.56
5241.9
5241.86
5242.42
5243.61
5245.39
5244.91
5243.19
5242.21
5241.81
5241.93
5242.57
5243.77
5245.49
5243.31
5242.26
5241.76
5241.68
5242.01
5242.75
5243.95
5245.58
5076.97
5078.36
5079.69
5080.87
5081.86
5082.38
5082.27
5083.31
5075.92
5077.86
5079.41
5080.7
5081.79
5082.36
5082.19
5083.07
5075.04
5077.25
5078.99
5080.43
5081.6
5082.23
5082.03
5082.84
5075.1
5077.21
5078.95
5080.42
5081.62
5082.24
5082.03
5082.82
5075.04
5077.24
5078.98
5080.42
5081.59
5082.2
5082
5082.81
5075.89
5077.84
5079.37
5080.67
5081.74
5082.29
5082.09
5082.95
5077.04
5078.46
5079.76
5080.91
5081.87
5082.34
5082.17
5083.13
5647.01
5646.71
5646.25
5645.78
5645.29
5644.83
5644.4
5644.02
5647.74
5647.3
5646.68
5646.09
5645.47
5644.89
5644.36
5643.88
5648.34
5647.9
5647.08
5646.4
5645.72
5645.05
5644.49
5644.02
5648.76
5648.31
5647.39
5646.68
5646.02
5645.4
5644.84
5644.35
5648.32
5648.06
5647.15
5646.48
5645.84
5645.2
5644.57
5644.06
5647.7
5647.38
5646.76
5646.12
5645.47
5644.85
5644.36
5643.97
5647.07
5646.75
5646.3
5645.81
5645.32
5644.86
5644.44
5644.06
5520.56
5518.94
5517.62
5516.55
5515.67
5514.96
5514.38
5513.92
5522.3
5520.09
5518.37
5517.04
5515.98
5515.13
5514.46
5513.93
5523.75
5521.11
5519.06
5517.5
5516.29
5515.33
5514.57
5513.98
5524.33
5521.58
5519.43
5517.8
5516.55
5515.56
5514.79
5514.17
5523.84
5521.19
5519.12
5517.55
5516.34
5515.39
5514.63
5514.03
5522.4
5520.17
5518.44
5517.09
5516.02
5515.16
5514.49
5513.96
5520.66
5519.03
5517.69
5516.6
5515.7
5514.97
5514.38
5513.91
5387.7
5385.77
5384.28
5383.12
5382.23
5381.56
5381.07
5380.75
5389.71
5387.03
5385.03
5383.54
5382.43
5381.62
5381.06
5380.71
5391.41
5388.15
5385.73
5383.96
5382.67
5381.74
5381.1
5380.7
5392.09
5388.64
5386.07
5384.18
5382.8
5381.83
5381.15
5380.74
5391.56
5388.26
5385.82
5384.03
5382.72
5381.78
5381.14
5380.75
5389.86
5387.15
5385.12
5383.62
5382.5
5381.69
5381.13
5380.78
5387.85
5385.89
5384.37
5383.19
5382.29
5381.62
5381.13
5380.82
5242.69
5241.74
5241.32
5241.32
5241.72
5242.53
5243.78
5245.45
5243.74
5242.22
5241.36
5241.07
5241.31
5242.05
5243.33
5245.12
5244.8
5242.79
5241.52
5240.97
5241.04
5241.72
5243
5244.86
5245.24
5243.1
5241.67
5240.97
5240.96
5241.59
5242.86
5244.71
5244.9
5242.85
5241.55
5240.97
5241.03
5241.7
5242.98
5244.84
5243.81
5242.24
5241.34
5241.04
5241.26
5241.99
5243.26
5245.05
5242.66
5241.65
5241.19
5241.16
5241.53
5242.31
5243.54
5245.19
5075.64
5077.32
5078.84
5080.2
5081.36
5082.01
5082.03
5083.13
5073.71
5075.97
5077.8
5079.39
5080.75
5081.59
5081.68
5082.81
5072.2
5074.86
5076.89
5078.6
5080.09
5081.03
5081.21
5082.5
5071.64
5074.53
5076.61
5078.38
5079.93
5080.94
5081.17
5082.64
5072.25
5074.92
5076.95
5078.7
5080.22
5081.2
5081.41
5082.68
5073.8
5076.06
5077.92
5079.55
5080.96
5081.84
5081.98
5083.15
5075.66
5077.31
5078.84
5080.24
5081.44
5082.16
5082.26
5083.44
5647.08
5646.77
5646.33
5645.85
5645.37
5644.92
5644.51
5644.13
5647.78
5647.5
5646.86
5646.23
5645.63
5645.06
5644.5
5644.05
5648.25
5648.14
5647.31
5646.69
5646.1
5645.49
5644.88
5644.33
5648.69
5648.44
5647.44
5646.77
5646.15
5645.58
5645.08
5644.61
5648.3
5648
5647.09
5646.4
5645.79
5645.2
5644.62
5644.06
5647.64
5647.28
5646.64
5646.06
5645.51
5644.94
5644.38
5643.94
5646.71
5646.51
5646.08
5645.65
5645.25
5644.85
5644.5
5644.18
5520.69
5519.07
5517.73
5516.65
5515.75
5515.02
5514.43
5513.94
5522.52
5520.33
5518.6
5517.24
5516.15
5515.27
5514.56
5513.99
5524.03
5521.43
5519.4
5517.85
5516.65
5515.7
5514.93
5514.31
5524.46
5521.72
5519.61
5518.01
5516.77
5515.8
5515.02
5514.4
5523.72
5521.12
5519.11
5517.57
5516.37
5515.43
5514.68
5514.07
5522.17
5520.02
5518.35
5517.03
5515.98
5515.13
5514.45
5513.91
5520.37
5518.8
5517.51
5516.46
5515.6
5514.9
5514.34
5513.89
5387.91
5385.96
5384.44
5383.26
5382.35
5381.67
5381.18
5380.86
5390.21
5387.48
5385.41
5383.86
5382.7
5381.85
5381.24
5380.85
5392.2
5388.86
5386.36
5384.52
5383.17
5382.19
5381.51
5381.08
5392.99
5389.33
5386.65
5384.68
5383.26
5382.26
5381.57
5381.13
5392.06
5388.65
5386.14
5384.29
5382.94
5381.97
5381.29
5380.86
5390.1
5387.34
5385.28
5383.74
5382.58
5381.74
5381.14
5380.76
5387.92
5385.98
5384.44
5383.24
5382.32
5381.62
5381.13
5380.83
5242.69
5241.71
5241.23
5241.17
5241.5
5242.23
5243.4
5245
5244.11
5242.46
5241.46
5241.04
5241.15
5241.76
5242.89
5244.53
5245.65
5243.49
5242.07
5241.36
5241.29
5241.81
5242.92
5244.57
5246.35
5243.92
5242.3
5241.46
5241.3
5241.77
5242.84
5244.47
5245.58
5243.33
5241.89
5241.19
5241.11
5241.61
5242.69
5244.32
5244.2
5242.51
5241.5
5241.05
5241.11
5241.67
5242.76
5244.38
5243.03
5242.04
5241.48
5241.32
5241.56
5242.22
5243.34
5244.91
5075.83
5077.58
5079.1
5080.47
5081.6
5082.26
5082.34
5083.62
5074.01
5076.27
5078.11
5079.69
5081.06
5081.9
5082.08
5083.63
5072.91
5075.54
5077.53
5079.28
5080.78
5081.74
5082
5083.93
5072.46
5075.37
5077.43
5079.22
5080.79
5081.81
5082.12
5084.25
5073.13
5075.75
5077.73
5079.46
5080.95
5081.86
5082.06
5083.96
5074.72
5076.93
5078.69
5080.18
5081.44
5082.17
5082.23
5083.73
5076.99
5078.65
5079.97
5081.11
5082.08
5082.55
5082.44
5083.63
5646.7
5646.48
5646.06
5645.65
5645.23
5644.83
5644.47
5644.14
5647.63
5647.35
5646.62
5646.04
5645.47
5644.93
5644.42
5643.99
5648.25
5648.18
5647.06
5646.42
5645.78
5645.16
5644.58
5644.05
5648.37
5648.43
5647.31
5646.65
5646.03
5645.46
5644.94
5644.46
5648.08
5648.26
5647.16
5646.51
5645.89
5645.3
5644.76
5644.26
5647.42
5647.52
5646.78
5646.19
5645.62
5645.05
5644.54
5644.08
5646.98
5646.76
5646.27
5645.79
5645.3
5644.84
5644.41
5644.03
5520.31
5518.75
5517.48
5516.44
5515.6
5514.92
5514.37
5513.94
5522.06
5519.93
5518.27
5516.97
5515.95
5515.13
5514.47
5513.95
5523.56
5520.99
5518.99
5517.47
5516.29
5515.36
5514.63
5514.04
5524.26
5521.52
5519.4
5517.81
5516.58
5515.62
5514.87
5514.28
5523.8
5521.24
5519.22
5517.69
5516.49
5515.55
5514.81
5514.21
5522.42
5520.21
5518.48
5517.14
5516.07
5515.22
5514.54
5514
5520.54
5518.96
5517.64
5516.58
5515.7
5514.99
5514.41
5513.95
5387.81
5385.9
5384.39
5383.22
5382.32
5381.65
5381.18
5380.89
5389.91
5387.2
5385.18
5383.67
5382.55
5381.73
5381.16
5380.8
5391.81
5388.45
5385.96
5384.14
5382.81
5381.86
5381.19
5380.77
5392.71
5389.1
5386.42
5384.47
5383.06
5382.05
5381.36
5380.93
5392.01
5388.64
5386.15
5384.31
5382.98
5382.02
5381.35
5380.92
5389.96
5387.29
5385.25
5383.73
5382.6
5381.77
5381.19
5380.82
5387.74
5385.83
5384.32
5383.16
5382.28
5381.61
5381.12
5380.8
5243.23
5242.28
5241.78
5241.69
5242
5242.74
5243.93
5245.56
5244.29
5242.67
5241.72
5241.36
5241.51
5242.18
5243.4
5245.16
5245.57
5243.34
5241.94
5241.3
5241.3
5241.91
5243.14
5244.94
5246.28
5243.84
5242.22
5241.41
5241.31
5241.86
5243.06
5244.83
5245.59
5243.43
5242.03
5241.38
5241.39
5242.01
5243.25
5245.07
5244.12
5242.52
5241.58
5241.25
5241.44
5242.15
5243.4
5245.17
5242.73
5241.8
5241.38
5241.38
5241.77
5242.58
5243.82
5245.48
5076.94
5078.51
5079.81
5080.96
5081.92
5082.4
5082.27
5083.27
5074.73
5076.86
5078.54
5079.98
5081.21
5081.92
5081.93
5083.07
5073.09
5075.57
5077.45
5079.04
5080.42
5081.3
5081.45
5082.88
5072.36
5075.11
5077.04
5078.69
5080.15
5081.09
5081.33
5083
5072.86
5075.33
5077.23
5078.89
5080.31
5081.24
5081.45
5082.92
5073.98
5076.18
5077.97
5079.53
5080.88
5081.72
5081.83
5083.03
5075.7
5077.4
5078.93
5080.29
5081.45
5082.1
5082.12
5083.23
5643.63
5643.68
5643.67
5643.63
5643.69
5643.68
5643.64
5513.54
5513.58
5513.6
5513.64
5513.62
5513.62
5513.62
5380.79
5380.89
5380.91
5380.94
5380.92
5380.91
5380.85
5246.94
5247.13
5247.21
5247.29
5247.31
5247.35
5247.34
5089.7
5089.67
5089.64
5089.68
5089.61
5089.54
5089.42
5643.67
5643.51
5643.6
5643.97
5643.66
5643.59
5643.7
5513.58
5513.55
5513.56
5513.74
5513.6
5513.58
5513.54
5380.61
5380.58
5380.57
5380.6
5380.62
5380.65
5380.69
5247.19
5247
5246.81
5246.67
5246.8
5246.92
5246.93
5089.41
5089.5
5089.73
5090.28
5089.83
5089.84
5089.8
5643.78
5643.7
5643.9
5644.23
5643.63
5643.62
5643.87
5513.56
5513.56
5513.85
5513.94
5513.63
5513.51
5513.54
5380.72
5380.66
5380.87
5380.94
5380.66
5380.59
5380.71
5246.75
5246.29
5246.25
5246.11
5246
5246.14
5246.67
5090.14
5091.09
5092.57
5093.45
5092.57
5091.26
5090.21
5643.81
5643.66
5643.63
5644.08
5643.84
5643.69
5643.68
5513.61
5513.58
5513.62
5513.86
5513.79
5513.6
5513.59
5380.79
5380.67
5380.6
5380.75
5380.75
5380.66
5380.66
5247.32
5247.05
5246.85
5246.65
5246.98
5247.06
5247.22
5089.59
5089.88
5090.47
5091.19
5090.48
5089.8
5089.53
5643.13
5642.57
5642.15
5641.86
5641.63
5641.45
5641.31
5641.18
5643.25
5642.71
5642.27
5641.96
5641.71
5641.51
5641.35
5641.21
5643.22
5642.71
5642.29
5641.94
5641.7
5641.5
5641.34
5641.2
5643.18
5642.7
5642.33
5642.02
5641.73
5641.5
5641.34
5641.2
5643.2
5642.7
5642.29
5641.93
5641.68
5641.48
5641.31
5641.17
5643.24
5642.69
5642.25
5641.92
5641.67
5641.46
5641.3
5641.15
5643.12
5642.57
5642.15
5641.83
5641.59
5641.39
5641.23
5641.09
5513.08
5512.59
5512.2
5511.9
5511.69
5511.54
5511.43
5511.34
5513.13
5512.67
5512.29
5511.99
5511.77
5511.62
5511.5
5511.4
5513.15
5512.71
5512.32
5512.02
5511.79
5511.63
5511.51
5511.41
5513.19
5512.75
5512.38
5512.07
5511.83
5511.65
5511.52
5511.42
5513.17
5512.72
5512.33
5512.02
5511.79
5511.62
5511.49
5511.39
5513.17
5512.7
5512.3
5511.99
5511.75
5511.58
5511.45
5511.35
5513.18
5512.66
5512.23
5511.91
5511.67
5511.5
5511.37
5511.27
5380.75
5380.79
5380.93
5381.08
5381.2
5381.29
5381.34
5381.36
5380.88
5380.91
5381.04
5381.19
5381.3
5381.38
5381.43
5381.44
5380.92
5380.94
5381.07
5381.21
5381.33
5381.4
5381.45
5381.46
5380.94
5380.96
5381.09
5381.23
5381.34
5381.42
5381.46
5381.47
5380.93
5380.94
5381.07
5381.21
5381.32
5381.39
5381.43
5381.44
5380.9
5380.92
5381.04
5381.18
5381.28
5381.35
5381.39
5381.4
5380.82
5380.84
5380.96
5381.1
5381.2
5381.26
5381.29
5381.3
5248.96
5249.63
5250.11
5250.48
5250.77
5250.99
5251.16
5251.28
5249.16
5249.8
5250.27
5250.63
5250.9
5251.11
5251.27
5251.38
5249.24
5249.89
5250.34
5250.68
5250.94
5251.14
5251.3
5251.4
5249.32
5249.96
5250.4
5250.74
5250.99
5251.18
5251.32
5251.42
5249.33
5249.96
5250.39
5250.71
5250.96
5251.15
5251.29
5251.39
5249.36
5249.96
5250.37
5250.68
5250.92
5251.11
5251.25
5251.35
5249.31
5249.89
5250.29
5250.6
5250.83
5251.01
5251.14
5251.24
5103.07
5111.43
5115.68
5118.06
5119.46
5120.31
5120.85
5121.18
5103.02
5111.48
5115.76
5118.16
5119.56
5120.41
5120.94
5121.27
5102.97
5111.48
5115.78
5118.18
5119.59
5120.43
5120.96
5121.29
5102.97
5111.5
5115.8
5118.2
5119.61
5120.46
5120.98
5121.31
5102.93
5111.47
5115.78
5118.18
5119.58
5120.43
5120.95
5121.27
5102.91
5111.45
5115.76
5118.16
5119.55
5120.4
5120.92
5121.24
5102.88
5111.41
5115.71
5118.09
5119.47
5120.3
5120.81
5121.13
5643.12
5642.53
5642.07
5641.71
5641.43
5641.21
5641.03
5640.87
5643.01
5642.44
5641.98
5641.62
5641.32
5641.09
5640.88
5640.7
5642.99
5642.33
5641.81
5641.39
5641.05
5640.81
5640.59
5640.39
5643.43
5642.78
5642.23
5641.77
5641.36
5641.06
5640.87
5640.64
5643.06
5642.39
5641.87
5641.44
5641.09
5640.84
5640.63
5640.43
5643.02
5642.44
5642.01
5641.65
5641.38
5641.16
5640.97
5640.79
5643.12
5642.53
5642.09
5641.75
5641.48
5641.27
5641.1
5640.96
5513.05
5512.44
5511.96
5511.6
5511.34
5511.15
5511.01
5510.9
5513.04
5512.47
5512
5511.62
5511.33
5511.11
5510.94
5510.81
5512.99
5512.37
5511.89
5511.52
5511.21
5510.95
5510.74
5510.56
5513.17
5512.53
5512.03
5511.65
5511.35
5511.11
5510.94
5510.81
5513.03
5512.41
5511.93
5511.56
5511.25
5510.98
5510.76
5510.58
5513.08
5512.51
5512.04
5511.67
5511.4
5511.18
5511.02
5510.89
5513.02
5512.42
5511.96
5511.62
5511.37
5511.19
5511.07
5510.97
5380.52
5380.55
5380.65
5380.75
5380.82
5380.86
5380.88
5380.87
5380.49
5380.48
5380.57
5380.67
5380.74
5380.79
5380.81
5380.81
5380.51
5380.5
5380.52
5380.54
5380.54
5380.52
5380.48
5380.44
5380.53
5380.54
5380.6
5380.65
5380.69
5380.72
5380.74
5380.76
5380.56
5380.56
5380.6
5380.61
5380.63
5380.61
5380.57
5380.51
5380.56
5380.56
5380.64
5380.74
5380.82
5380.86
5380.89
5380.89
5380.58
5380.59
5380.68
5380.78
5380.86
5380.9
5380.93
5380.93
5249.11
5249.58
5249.93
5250.19
5250.4
5250.56
5250.69
5250.78
5249
5249.56
5249.93
5250.21
5250.41
5250.56
5250.67
5250.76
5248.94
5249.59
5249.96
5250.19
5250.31
5250.36
5250.37
5250.36
5248.96
5249.69
5250.1
5250.36
5250.53
5250.64
5250.71
5250.75
5248.92
5249.56
5249.94
5250.19
5250.34
5250.41
5250.43
5250.42
5248.91
5249.49
5249.9
5250.21
5250.43
5250.6
5250.73
5250.82
5248.87
5249.42
5249.83
5250.15
5250.4
5250.59
5250.73
5250.84
5102.76
5111.18
5115.42
5117.76
5119.12
5119.92
5120.41
5120.71
5102.77
5111.19
5115.43
5117.76
5119.11
5119.9
5120.38
5120.67
5102.9
5111.28
5115.5
5117.78
5119.05
5119.73
5120.07
5120.24
5103.3
5111.61
5115.82
5118.1
5119.35
5120.02
5120.42
5120.64
5102.98
5111.31
5115.5
5117.78
5119.05
5119.76
5120.13
5120.31
5103.03
5111.32
5115.51
5117.82
5119.15
5119.94
5120.42
5120.71
5103.05
5111.3
5115.48
5117.8
5119.16
5119.97
5120.48
5120.79
5643.19
5642.57
5642.11
5641.75
5641.48
5641.28
5641.13
5641
5643.15
5642.55
5642.11
5641.73
5641.39
5641.15
5640.97
5640.83
5643.28
5642.61
5642.1
5641.7
5641.38
5641.11
5640.89
5640.71
5643.68
5643.01
5642.45
5641.99
5641.61
5641.3
5641.05
5640.87
5643.03
5642.38
5641.92
5641.57
5641.28
5641.04
5640.84
5640.67
5643.08
5642.55
5642.16
5641.77
5641.47
5641.23
5641.06
5640.93
5643.33
5642.73
5642.27
5641.9
5641.62
5641.41
5641.26
5641.13
5513.01
5512.45
5511.99
5511.65
5511.41
5511.24
5511.12
5511.03
5512.98
5512.39
5511.96
5511.64
5511.38
5511.18
5511.04
5510.94
5513.23
5512.58
5512.09
5511.73
5511.45
5511.23
5511.05
5510.91
5513.33
5512.69
5512.2
5511.82
5511.53
5511.31
5511.14
5511
5513.04
5512.43
5511.97
5511.63
5511.37
5511.16
5511
5510.87
5512.97
5512.41
5512.01
5511.72
5511.48
5511.3
5511.17
5511.08
5513.04
5512.54
5512.14
5511.83
5511.61
5511.45
5511.34
5511.26
5380.61
5380.57
5380.67
5380.79
5380.9
5380.97
5381.02
5381.04
5380.53
5380.49
5380.54
5380.63
5380.73
5380.8
5380.85
5380.88
5380.7
5380.64
5380.68
5380.76
5380.84
5380.91
5380.95
5380.95
5380.81
5380.75
5380.78
5380.83
5380.86
5380.87
5380.86
5380.85
5380.51
5380.46
5380.51
5380.59
5380.69
5380.76
5380.83
5380.86
5380.49
5380.49
5380.58
5380.7
5380.82
5380.93
5381
5381.03
5380.65
5380.65
5380.79
5380.94
5381.08
5381.18
5381.24
5381.27
5248.7
5249.36
5249.83
5250.19
5250.47
5250.68
5250.85
5250.97
5248.43
5249.24
5249.74
5250.08
5250.33
5250.53
5250.69
5250.8
5248.25
5249.33
5250.04
5250.52
5250.82
5251
5251.12
5251.18
5248.02
5249.04
5249.69
5250.09
5250.37
5250.56
5250.7
5250.79
5248.02
5249.1
5249.81
5250.3
5250.63
5250.84
5250.96
5251.03
5248.36
5249.24
5249.78
5250.15
5250.44
5250.66
5250.83
5250.96
5248.69
5249.47
5250
5250.4
5250.7
5250.93
5251.1
5251.23
5103.2
5111.31
5115.46
5117.79
5119.17
5120.02
5120.55
5120.88
5103.66
5111.39
5115.39
5117.69
5119.08
5119.93
5120.47
5120.81
5104.83
5111.97
5115.71
5117.87
5119.21
5120.07
5120.64
5121.01
5105.41
5112.21
5115.79
5117.87
5119.17
5120.02
5120.59
5120.94
5104.75
5111.87
5115.6
5117.74
5119.08
5119.96
5120.54
5120.91
5103.69
5111.38
5115.38
5117.68
5119.1
5119.99
5120.56
5120.91
5103.29
5111.41
5115.57
5117.93
5119.35
5120.22
5120.77
5121.12
5643.27
5642.68
5642.22
5641.85
5641.57
5641.34
5641.15
5641
5643.14
5642.54
5642.07
5641.69
5641.39
5641.14
5640.93
5640.76
5643.04
5642.39
5641.88
5641.49
5641.18
5640.92
5640.7
5640.52
5643.52
5642.85
5642.29
5641.83
5641.46
5641.17
5640.94
5640.77
5643.26
5642.58
5642.03
5641.59
5641.24
5640.96
5640.72
5640.52
5643.14
5642.52
5642.04
5641.66
5641.35
5641.11
5640.9
5640.73
5643.11
5642.51
5642.05
5641.7
5641.42
5641.2
5641.03
5640.89
5513.14
5512.6
5512.17
5511.83
5511.57
5511.39
5511.25
5511.14
5513.07
5512.53
5512.09
5511.73
5511.44
5511.22
5511.05
5510.93
5513.06
5512.45
5511.98
5511.6
5511.29
5511.04
5510.85
5510.69
5513.29
5512.66
5512.16
5511.76
5511.46
5511.22
5511.05
5510.92
5513.2
5512.57
5512.06
5511.66
5511.34
5511.07
5510.86
5510.69
5513.05
5512.49
5512.03
5511.65
5511.36
5511.14
5510.97
5510.85
5513.07
5512.46
5511.98
5511.62
5511.36
5511.16
5511.03
5510.92
5380.71
5380.74
5380.86
5380.98
5381.07
5381.13
5381.15
5381.15
5380.6
5380.56
5380.65
5380.76
5380.85
5380.91
5380.93
5380.92
5380.5
5380.48
5380.54
5380.59
5380.64
5380.65
5380.63
5380.59
5380.63
5380.6
5380.66
5380.72
5380.77
5380.79
5380.81
5380.82
5380.63
5380.61
5380.66
5380.7
5380.73
5380.72
5380.69
5380.64
5380.56
5380.51
5380.59
5380.69
5380.77
5380.82
5380.84
5380.84
5380.53
5380.57
5380.68
5380.78
5380.85
5380.89
5380.91
5380.91
5249.29
5249.85
5250.23
5250.52
5250.73
5250.89
5251.01
5251.1
5249.07
5249.71
5250.1
5250.37
5250.57
5250.71
5250.82
5250.89
5249.07
5249.77
5250.15
5250.39
5250.52
5250.59
5250.6
5250.59
5248.8
5249.67
5250.14
5250.4
5250.56
5250.65
5250.71
5250.77
5249.19
5249.87
5250.23
5250.47
5250.6
5250.66
5250.67
5250.64
5249.03
5249.61
5249.97
5250.24
5250.44
5250.59
5250.7
5250.79
5249.16
5249.62
5249.97
5250.24
5250.45
5250.62
5250.74
5250.84
5102.99
5111.44
5115.7
5118.05
5119.41
5120.23
5120.72
5121.02
5103.16
5111.5
5115.68
5117.98
5119.3
5120.07
5120.53
5120.81
5103.51
5111.69
5115.8
5118.02
5119.27
5119.96
5120.32
5120.47
5104.13
5112.06
5116.04
5118.19
5119.39
5120.07
5120.45
5120.7
5103.47
5111.63
5115.75
5118
5119.27
5120
5120.41
5120.6
5103.04
5111.35
5115.54
5117.84
5119.16
5119.94
5120.41
5120.69
5102.85
5111.23
5115.46
5117.8
5119.16
5119.97
5120.47
5120.77
5641.09
5641.03
5640.97
5640.92
5640.88
5640.85
5640.83
5640.82
5641.12
5641.05
5641
5640.95
5640.9
5640.87
5640.85
5640.84
5641.11
5641.04
5640.99
5640.94
5640.9
5640.87
5640.85
5640.84
5641.1
5641.04
5640.98
5640.93
5640.89
5640.86
5640.84
5640.83
5641.08
5641.01
5640.96
5640.91
5640.87
5640.84
5640.82
5640.81
5641.05
5640.99
5640.93
5640.88
5640.84
5640.81
5640.79
5640.78
5640.99
5640.93
5640.87
5640.82
5640.78
5640.75
5640.73
5640.72
5511.28
5511.25
5511.22
5511.19
5511.17
5511.15
5511.14
5511.13
5511.34
5511.3
5511.27
5511.24
5511.22
5511.2
5511.18
5511.17
5511.35
5511.31
5511.27
5511.24
5511.22
5511.2
5511.18
5511.17
5511.35
5511.31
5511.28
5511.25
5511.22
5511.2
5511.19
5511.18
5511.32
5511.28
5511.25
5511.22
5511.19
5511.17
5511.16
5511.15
5511.28
5511.24
5511.21
5511.18
5511.16
5511.14
5511.12
5511.11
5511.2
5511.16
5511.13
5511.1
5511.08
5511.06
5511.04
5511.03
5381.37
5381.37
5381.38
5381.37
5381.37
5381.37
5381.36
5381.35
5381.44
5381.45
5381.45
5381.44
5381.44
5381.43
5381.42
5381.42
5381.46
5381.46
5381.45
5381.45
5381.44
5381.44
5381.43
5381.42
5381.47
5381.47
5381.46
5381.46
5381.45
5381.45
5381.44
5381.43
5381.44
5381.43
5381.43
5381.43
5381.42
5381.41
5381.41
5381.4
5381.39
5381.39
5381.39
5381.39
5381.38
5381.37
5381.37
5381.36
5381.3
5381.3
5381.3
5381.29
5381.29
5381.28
5381.28
5381.27
5251.35
5251.4
5251.44
5251.46
5251.48
5251.49
5251.49
5251.49
5251.45
5251.49
5251.53
5251.55
5251.56
5251.57
5251.57
5251.57
5251.47
5251.51
5251.54
5251.56
5251.57
5251.58
5251.58
5251.58
5251.49
5251.52
5251.55
5251.58
5251.59
5251.6
5251.6
5251.59
5251.45
5251.49
5251.52
5251.54
5251.55
5251.56
5251.56
5251.56
5251.41
5251.45
5251.48
5251.5
5251.51
5251.52
5251.52
5251.52
5251.3
5251.34
5251.37
5251.39
5251.41
5251.42
5251.42
5251.42
5121.35
5121.46
5121.53
5121.59
5121.63
5121.65
5121.66
5121.67
5121.44
5121.54
5121.62
5121.67
5121.71
5121.73
5121.74
5121.74
5121.45
5121.55
5121.63
5121.68
5121.72
5121.74
5121.75
5121.75
5121.47
5121.57
5121.65
5121.7
5121.73
5121.76
5121.77
5121.77
5121.44
5121.54
5121.61
5121.66
5121.7
5121.72
5121.73
5121.73
5121.4
5121.5
5121.58
5121.63
5121.66
5121.69
5121.7
5121.7
5121.29
5121.39
5121.46
5121.52
5121.55
5121.58
5121.59
5121.59
5640.77
5640.7
5640.64
5640.58
5640.53
5640.49
5640.46
5640.45
5640.59
5640.51
5640.45
5640.39
5640.35
5640.31
5640.29
5640.29
5640.27
5640.19
5640.13
5640.08
5640.05
5640.03
5640.02
5640.04
5640.55
5640.49
5640.45
5640.42
5640.39
5640.36
5640.34
5640.36
5640.3
5640.23
5640.16
5640.12
5640.08
5640.06
5640.05
5640.08
5640.68
5640.61
5640.54
5640.49
5640.44
5640.4
5640.38
5640.38
5640.86
5640.79
5640.73
5640.67
5640.62
5640.58
5640.55
5640.54
5510.83
5510.8
5510.76
5510.74
5510.72
5510.7
5510.68
5510.67
5510.73
5510.69
5510.65
5510.63
5510.6
5510.59
5510.57
5510.57
5510.45
5510.39
5510.34
5510.3
5510.28
5510.28
5510.27
5510.29
5510.74
5510.69
5510.66
5510.63
5510.62
5510.61
5510.61
5510.62
5510.48
5510.41
5510.36
5510.33
5510.31
5510.3
5510.3
5510.32
5510.82
5510.78
5510.74
5510.71
5510.69
5510.67
5510.66
5510.66
5510.9
5510.87
5510.84
5510.81
5510.79
5510.77
5510.76
5510.75
5380.87
5380.87
5380.87
5380.87
5380.87
5380.86
5380.86
5380.85
5380.81
5380.81
5380.81
5380.82
5380.82
5380.83
5380.83
5380.83
5380.41
5380.4
5380.38
5380.38
5380.37
5380.37
5380.38
5380.39
5380.76
5380.77
5380.78
5380.78
5380.79
5380.8
5380.8
5380.8
5380.47
5380.44
5380.42
5380.41
5380.4
5380.41
5380.41
5380.42
5380.89
5380.89
5380.89
5380.9
5380.9
5380.91
5380.91
5380.91
5380.93
5380.93
5380.94
5380.93
5380.93
5380.93
5380.93
5380.92
5250.84
5250.88
5250.91
5250.93
5250.95
5250.96
5250.97
5250.97
5250.81
5250.85
5250.88
5250.91
5250.93
5250.94
5250.95
5250.95
5250.37
5250.38
5250.4
5250.41
5250.43
5250.44
5250.45
5250.46
5250.79
5250.81
5250.84
5250.86
5250.88
5250.9
5250.91
5250.91
5250.4
5250.41
5250.42
5250.43
5250.45
5250.47
5250.48
5250.49
5250.87
5250.91
5250.94
5250.97
5250.98
5251
5251.01
5251
5250.9
5250.94
5250.98
5251
5251.02
5251.03
5251.04
5251.04
5120.87
5120.97
5121.04
5121.09
5121.13
5121.16
5121.17
5121.17
5120.82
5120.91
5120.98
5121.03
5121.07
5121.1
5121.11
5121.11
5120.33
5120.41
5120.47
5120.53
5120.59
5120.62
5120.64
5120.65
5120.77
5120.85
5120.91
5120.95
5120.99
5121.02
5121.03
5121.04
5120.42
5120.46
5120.54
5120.59
5120.66
5120.66
5120.69
5120.69
5120.86
5120.95
5121.02
5121.07
5121.11
5121.13
5121.15
5121.15
5120.95
5121.05
5121.12
5121.17
5121.21
5121.24
5121.25
5121.26
5640.91
5640.86
5640.8
5640.75
5640.7
5640.66
5640.63
5640.61
5640.75
5640.7
5640.65
5640.61
5640.58
5640.55
5640.52
5640.51
5640.58
5640.5
5640.43
5640.38
5640.34
5640.31
5640.3
5640.31
5640.77
5640.71
5640.67
5640.63
5640.6
5640.57
5640.56
5640.59
5640.56
5640.49
5640.44
5640.39
5640.36
5640.34
5640.33
5640.34
5640.85
5640.79
5640.75
5640.71
5640.68
5640.65
5640.63
5640.63
5641.04
5640.99
5640.93
5640.89
5640.85
5640.81
5640.79
5640.78
5510.98
5510.95
5510.92
5510.9
5510.88
5510.86
5510.85
5510.83
5510.89
5510.85
5510.83
5510.81
5510.8
5510.78
5510.77
5510.76
5510.81
5510.74
5510.68
5510.63
5510.6
5510.58
5510.56
5510.57
5510.93
5510.88
5510.83
5510.79
5510.77
5510.76
5510.77
5510.79
5510.78
5510.72
5510.67
5510.63
5510.6
5510.58
5510.57
5510.58
5511.02
5510.99
5510.97
5510.95
5510.93
5510.92
5510.91
5510.91
5511.21
5511.18
5511.15
5511.13
5511.11
5511.09
5511.08
5511.07
5381.05
5381.06
5381.06
5381.06
5381.06
5381.06
5381.06
5381.05
5380.89
5380.89
5380.9
5380.9
5380.91
5380.91
5380.91
5380.91
5380.93
5380.9
5380.87
5380.84
5380.82
5380.82
5380.8
5380.8
5380.83
5380.82
5380.82
5380.81
5380.81
5380.82
5380.82
5380.83
5380.86
5380.86
5380.85
5380.84
5380.82
5380.82
5380.82
5380.82
5381.05
5381.06
5381.06
5381.07
5381.07
5381.07
5381.07
5381.07
5381.29
5381.3
5381.3
5381.31
5381.31
5381.3
5381.3
5381.29
5251.04
5251.09
5251.13
5251.16
5251.18
5251.19
5251.2
5251.2
5250.86
5250.9
5250.93
5250.94
5250.95
5250.96
5250.96
5250.96
5251.22
5251.24
5251.26
5251.28
5251.3
5251.31
5251.32
5251.31
5250.83
5250.86
5250.87
5250.89
5250.89
5250.9
5250.9
5250.92
5251.08
5251.11
5251.14
5251.16
5251.18
5251.2
5251.2
5251.2
5251.03
5251.08
5251.11
5251.14
5251.15
5251.16
5251.17
5251.16
5251.3
5251.35
5251.39
5251.42
5251.44
5251.45
5251.45
5251.45
5121.06
5121.16
5121.24
5121.3
5121.34
5121.37
5121.38
5121.39
5120.98
5121.08
5121.15
5121.2
5121.23
5121.25
5121.26
5121.26
5121.22
5121.36
5121.47
5121.56
5121.64
5121.69
5121.71
5121.71
5121.1
5121.18
5121.23
5121.26
5121.27
5121.27
5121.27
5121.27
5121.12
5121.24
5121.34
5121.42
5121.48
5121.52
5121.53
5121.53
5121.1
5121.21
5121.29
5121.34
5121.38
5121.4
5121.41
5121.42
5121.3
5121.41
5121.49
5121.55
5121.59
5121.62
5121.63
5121.64
5640.9
5640.84
5640.78
5640.73
5640.69
5640.66
5640.63
5640.63
5640.65
5640.58
5640.52
5640.48
5640.44
5640.41
5640.4
5640.4
5640.4
5640.33
5640.28
5640.24
5640.21
5640.19
5640.18
5640.2
5640.67
5640.61
5640.56
5640.53
5640.51
5640.48
5640.45
5640.47
5640.39
5640.31
5640.25
5640.2
5640.17
5640.15
5640.14
5640.16
5640.62
5640.55
5640.49
5640.43
5640.39
5640.36
5640.34
5640.34
5640.79
5640.72
5640.66
5640.6
5640.55
5640.51
5640.48
5640.47
5511.07
5511.03
5511
5510.97
5510.95
5510.94
5510.92
5510.91
5510.85
5510.81
5510.77
5510.75
5510.73
5510.72
5510.71
5510.71
5510.59
5510.54
5510.5
5510.47
5510.45
5510.45
5510.44
5510.46
5510.84
5510.8
5510.77
5510.75
5510.73
5510.72
5510.72
5510.74
5510.58
5510.52
5510.47
5510.44
5510.42
5510.41
5510.41
5510.42
5510.78
5510.73
5510.7
5510.67
5510.65
5510.64
5510.63
5510.62
5510.86
5510.82
5510.79
5510.76
5510.74
5510.72
5510.71
5510.69
5381.15
5381.15
5381.15
5381.14
5381.14
5381.14
5381.13
5381.13
5380.92
5380.92
5380.91
5380.92
5380.92
5380.93
5380.93
5380.93
5380.56
5380.55
5380.54
5380.53
5380.53
5380.53
5380.53
5380.54
5380.83
5380.84
5380.85
5380.86
5380.87
5380.88
5380.89
5380.89
5380.59
5380.56
5380.54
5380.52
5380.52
5380.52
5380.51
5380.52
5380.84
5380.84
5380.85
5380.85
5380.85
5380.85
5380.85
5380.85
5380.91
5380.91
5380.9
5380.9
5380.9
5380.9
5380.89
5380.89
5251.15
5251.19
5251.22
5251.24
5251.26
5251.26
5251.27
5251.27
5250.93
5250.97
5251
5251.03
5251.03
5251.05
5251.06
5251.06
5250.57
5250.57
5250.57
5250.58
5250.59
5250.6
5250.61
5250.61
5250.83
5250.86
5250.89
5250.93
5250.95
5250.97
5250.98
5250.98
5250.61
5250.59
5250.59
5250.6
5250.62
5250.63
5250.64
5250.64
5250.84
5250.88
5250.91
5250.94
5250.96
5250.97
5250.97
5250.97
5250.89
5250.93
5250.96
5250.98
5251
5251.01
5251.02
5251.02
5121.17
5121.27
5121.34
5121.39
5121.42
5121.45