/*--------------------------------*- C++ -*----------------------------------*\
| =========                 |                                                 |
| \\      /  F ield         | OpenFOAM: The Open Source CFD Toolbox           |
|  \\    /   O peration     | Version:  plus.master                           |
|   \\  /    A nd           | Web:      www.OpenFOAM.com                      |
|    \\/     M anipulation  |                                                 |
\*---------------------------------------------------------------------------*/
FoamFile
{
    version     2.0;
    format      ascii;
    class       volScalarField;
    location    "6.6";
    object      p_rgh;
}
// * * * * * * * * * * * * * * * * * * * * * * * * * * * * * * * * * * * * * //

dimensions      [1 -1 -2 0 0 0 0];

internalField   nonuniform List<scalar> 
47285
(
5711.82
5712.18
5711.88
5711.98
5711.77
5712.06
5711.12
5712.26
5683.84
5687.67
5695.21
5685.15
5685.12
5711.53
5711.94
5687.77
5660.32
5660.97
5660.19
5690.13
5710.78
5712.54
5697.62
5660.6
5656.96
5660.76
5695.53
5711.11
5712.17
5686.85
5660.25
5660.81
5660.23
5689.95
5711.07
5712.28
5684.08
5688.31
5695.2
5685.81
5685.68
5711.86
5711.64
5711.69
5711.33
5711.63
5711.39
5711.83
5711.09
5717.12
5719.82
5721.91
5722.55
5721.59
5719.34
5716.7
5719.76
5702.54
5720.51
5719.14
5707.12
5717.56
5719.26
5721.9
5716.07
5607.49
5585.14
5607.97
5727.47
5721.11
5722.48
5729.49
5605.24
5564.34
5577.65
5708.3
5722.12
5721.75
5716.7
5610.63
5587.11
5612.65
5727.47
5721.14
5719.61
5708.28
5726.36
5722.25
5712.3
5717.91
5719.23
5716.98
5719.68
5721.7
5722.4
5721.45
5719.25
5716.63
5714.34
5717.83
5720.86
5722.35
5720.86
5717.83
5714.43
5717.51
5722.79
5727.99
5711.71
5717.71
5723.07
5717.91
5720.15
5727.47
5564.73
5479.79
5557.41
5727.94
5720.8
5720.84
5728
5552.65
5435.47
5465.66
5695.76
5722.6
5719.96
5727.13
5571.77
5485.14
5569.58
5727.58
5720.66
5717.31
5722.53
5727.67
5715.91
5723.73
5722.74
5717.72
5714.16
5717.6
5720.6
5721.95
5720.5
5717.57
5714.26
5697.59
5700.02
5702.28
5703.44
5702.33
5700.33
5698.08
5699.62
5703.13
5706.55
5660.95
5700.41
5704.36
5700.86
5701.26
5705.65
5466.53
5341.68
5480.63
5707.92
5703.33
5701.63
5705.61
5439.45
5282.22
5336.05
5678.1
5705.66
5701.12
5705.49
5476.34
5350.17
5498.62
5708.19
5703.6
5699.51
5703.02
5706.4
5667.92
5706.4
5704.35
5700.94
5697.57
5699.98
5702.2
5703.34
5702.27
5700.36
5698.19
5656.08
5653.61
5651.51
5649.93
5651.65
5654.57
5657.44
5653.24
5648.6
5637.43
5540.96
5641.62
5650.92
5655.63
5650.53
5640.01
5292.2
5132.75
5364.44
5646.74
5654.34
5649.45
5621.22
5231.55
5080.21
5166.7
5640.42
5654.47
5650.52
5640.03
5306.57
5144.21
5392
5646.82
5654.29
5653.21
5648.78
5642.26
5553.87
5644.43
5651.01
5655.6
5656.02
5653.63
5651.59
5650.19
5651.84
5654.64
5657.44
5711.25
5711.21
5710.78
5710.35
5709.92
5709.48
5709.07
5708.7
5711.66
5711.78
5711.11
5710.57
5710.07
5709.58
5709.12
5708.73
5711.68
5712.28
5711.52
5710.86
5710.23
5709.67
5709.18
5708.76
5712.01
5712.55
5711.71
5711
5710.34
5709.67
5709.15
5708.74
5711.68
5712.23
5711.61
5710.93
5710.29
5709.69
5709.2
5708.79
5711.59
5711.64
5711.2
5710.62
5710.08
5709.58
5709.13
5708.74
5711.22
5711.14
5710.79
5710.36
5709.92
5709.48
5709.07
5708.71
5714.55
5712.97
5711.68
5710.63
5709.79
5709.1
5708.54
5708.11
5716.23
5714.07
5712.39
5711.09
5710.08
5709.28
5708.65
5708.16
5717.59
5714.98
5712.96
5711.45
5710.3
5709.41
5708.71
5708.18
5718.3
5715.46
5713.27
5711.64
5710.42
5709.49
5708.77
5708.23
5717.58
5714.96
5712.95
5711.45
5710.31
5709.42
5708.73
5708.2
5716.21
5714.05
5712.39
5711.1
5710.1
5709.31
5708.68
5708.19
5714.5
5712.94
5711.67
5710.64
5709.81
5709.14
5708.6
5708.17
5711.62
5709.64
5708.11
5706.92
5706.02
5705.36
5704.89
5704.61
5713.86
5711.07
5709.02
5707.5
5706.38
5705.57
5705.02
5704.7
5715.78
5712.28
5709.74
5707.92
5706.62
5705.7
5705.08
5704.72
5716.9
5713
5710.14
5708.15
5706.75
5705.78
5705.12
5704.75
5715.67
5712.21
5709.71
5707.92
5706.62
5705.71
5705.09
5704.73
5713.76
5711.02
5709
5707.5
5706.4
5705.6
5705.05
5704.72
5711.53
5709.59
5708.09
5706.94
5706.05
5705.4
5704.94
5704.66
5696.33
5695.24
5694.71
5694.59
5694.89
5695.61
5696.78
5698.4
5698.03
5696.3
5695.31
5694.89
5694.98
5695.61
5696.79
5698.5
5699.58
5697.15
5695.71
5695.04
5694.99
5695.55
5696.73
5698.51
5700.92
5697.87
5696.07
5695.23
5695.11
5695.62
5696.79
5698.58
5699.68
5697.23
5695.79
5695.12
5695.08
5695.65
5696.83
5698.61
5698.13
5696.42
5695.43
5695.03
5695.15
5695.79
5696.99
5698.72
5696.53
5695.48
5694.98
5694.9
5695.23
5695.97
5697.17
5698.8
5659.68
5661.08
5662.38
5663.5
5664.51
5665.06
5664.99
5666.03
5658.63
5660.58
5662.12
5663.42
5664.5
5665.07
5664.9
5665.78
5657.76
5659.97
5661.71
5663.15
5664.32
5664.94
5664.74
5665.56
5657.82
5659.93
5661.66
5663.13
5664.33
5664.96
5664.74
5665.53
5657.75
5659.95
5661.69
5663.13
5664.3
5664.92
5664.71
5665.53
5658.6
5660.55
5662.09
5663.38
5664.45
5665
5664.8
5665.67
5659.75
5661.17
5662.47
5663.63
5664.59
5665.06
5664.89
5665.84
5711.76
5711.46
5711
5710.52
5710.04
5709.57
5709.15
5708.77
5712.49
5712.04
5711.43
5710.83
5710.21
5709.64
5709.11
5708.62
5713.09
5712.65
5711.83
5711.14
5710.47
5709.79
5709.24
5708.77
5713.51
5713.05
5712.14
5711.43
5710.77
5710.15
5709.59
5709.1
5713.07
5712.8
5711.89
5711.22
5710.59
5709.95
5709.32
5708.81
5712.45
5712.13
5711.5
5710.86
5710.21
5709.6
5709.11
5708.72
5711.82
5711.5
5711.04
5710.55
5710.07
5709.61
5709.19
5708.81
5714.8
5713.18
5711.86
5710.79
5709.91
5709.2
5708.62
5708.16
5716.54
5714.33
5712.61
5711.27
5710.21
5709.37
5708.7
5708.16
5717.99
5715.35
5713.3
5711.74
5710.53
5709.57
5708.81
5708.22
5718.56
5715.81
5713.67
5712.04
5710.78
5709.8
5709.03
5708.41
5718.08
5715.42
5713.35
5711.79
5710.58
5709.63
5708.87
5708.27
5716.64
5714.41
5712.68
5711.32
5710.25
5709.4
5708.73
5708.2
5714.9
5713.27
5711.93
5710.84
5709.94
5709.21
5708.62
5708.15
5711.43
5709.5
5708.01
5706.85
5705.96
5705.29
5704.8
5704.48
5713.44
5710.76
5708.76
5707.27
5706.16
5705.35
5704.79
5704.44
5715.14
5711.88
5709.4
5707.41
5706.12
5705.2
5704.66
5704.43
5715.82
5712.36
5709.73
5707.86
5706.53
5705.54
5704.88
5704.47
5715.29
5711.92
5709.36
5707.56
5706.26
5705.5
5704.87
5704.48
5713.59
5710.88
5708.85
5707.35
5706.23
5705.42
5704.86
5704.51
5711.58
5709.62
5708.1
5706.92
5706.02
5705.35
5704.86
5704.55
5695.91
5694.96
5694.54
5694.54
5694.94
5695.75
5697
5698.67
5696.97
5695.44
5694.58
5694.3
5694.53
5695.28
5696.55
5698.34
5698.02
5695.97
5694.38
5693.81
5694.01
5694.94
5696.18
5698.08
5698.44
5696.23
5694.81
5694.19
5694.18
5694.81
5696.08
5697.93
5698.08
5695.81
5694.5
5694.02
5694.25
5694.91
5696.2
5698.06
5697.03
5695.46
5694.56
5694.26
5694.48
5695.21
5696.49
5698.27
5695.88
5694.88
5694.41
5694.38
5694.75
5695.53
5696.76
5698.41
5658.36
5660.03
5661.55
5662.92
5664.07
5664.73
5664.75
5665.85
5656.42
5658.69
5660.52
5662.11
5663.47
5664.3
5664.4
5665.53
5654.91
5657.35
5659.14
5661.14
5662.8
5663.75
5663.92
5665.21
5654.31
5657.1
5659.32
5661.1
5662.64
5663.65
5663.89
5665.35
5654.85
5657.29
5659.45
5661.42
5662.94
5663.92
5664.12
5665.39
5656.51
5658.78
5660.63
5662.27
5663.67
5664.55
5664.69
5665.86
5658.38
5660.02
5661.55
5662.95
5664.16
5664.87
5664.97
5666.15
5711.83
5711.51
5711.07
5710.6
5710.12
5709.67
5709.25
5708.88
5712.52
5712.24
5711.61
5710.97
5710.37
5709.81
5709.25
5708.79
5713
5712.89
5712.06
5711.44
5710.84
5710.23
5709.62
5709.08
5713.43
5713.18
5712.19
5711.52
5710.89
5710.33
5709.83
5709.36
5713.04
5712.75
5711.83
5711.15
5710.54
5709.95
5709.37
5708.81
5712.39
5712.03
5711.38
5710.8
5710.25
5709.68
5709.13
5708.69
5711.45
5711.26
5710.83
5710.4
5709.99
5709.6
5709.24
5708.93
5714.93
5713.31
5711.97
5710.88
5709.99
5709.26
5708.67
5708.18
5716.76
5714.57
5712.84
5711.48
5710.39
5709.51
5708.8
5708.23
5718.27
5715.66
5713.63
5712.08
5710.88
5709.93
5709.17
5708.55
5718.7
5715.96
5713.85
5712.25
5711.01
5710.04
5709.26
5708.63
5717.96
5715.35
5713.35
5711.81
5710.61
5709.66
5708.91
5708.31
5716.41
5714.26
5712.58
5711.26
5710.22
5709.37
5708.69
5708.15
5714.6
5713.04
5711.75
5710.69
5709.84
5709.14
5708.58
5708.13
5711.64
5709.69
5708.17
5706.99
5706.08
5705.4
5704.91
5704.59
5713.94
5711.21
5709.14
5707.59
5706.43
5705.58
5704.97
5704.58
5715.93
5712.59
5710.09
5708.25
5706.9
5705.92
5705.24
5704.81
5716.72
5713.06
5710.38
5708.41
5706.99
5705.99
5705.3
5704.86
5715.79
5712.38
5709.87
5708.02
5706.67
5705.7
5705.02
5704.59
5713.83
5711.07
5709.01
5707.47
5706.31
5705.47
5704.87
5704.49
5711.65
5709.71
5708.17
5706.97
5706.05
5705.35
5704.86
5704.56
5695.91
5694.93
5694.45
5694.39
5694.72
5695.45
5696.6
5698.17
5697.33
5695.68
5694.68
5694.27
5694.37
5694.98
5696.11
5697.7
5698.88
5696.71
5695.29
5694.58
5694.51
5695.03
5696.14
5697.77
5699.57
5697.14
5695.52
5694.68
5694.52
5694.99
5696.07
5697.69
5698.8
5696.55
5695.11
5694.41
5694.33
5694.83
5695.91
5697.55
5697.42
5695.74
5694.72
5694.27
5694.33
5694.89
5695.98
5697.6
5696.25
5695.26
5694.7
5694.53
5694.78
5695.45
5696.56
5698.13
5658.51
5660.25
5661.82
5663.18
5664.32
5664.98
5665.05
5666.24
5656.72
5658.89
5660.49
5662.4
5663.77
5664.61
5664.79
5666.34
5655.62
5658.25
5660.18
5661.49
5663.29
5664.46
5664.72
5666.63
5655.17
5658.08
5660.1
5661.83
5663.47
5664.51
5664.79
5666.87
5655.85
5658.46
5660.45
5662.18
5663.67
5664.42
5662.84
5664.28
5657.43
5659.64
5661.4
5662.9
5662.87
5662.5
5662.54
5664.04
5659.71
5661.36
5662.68
5663.74
5663.56
5663.89
5665.16
5666.27
5711.45
5711.22
5710.81
5710.4
5709.97
5709.57
5709.21
5708.88
5712.38
5712.1
5711.37
5710.78
5710.22
5709.68
5709.17
5708.73
5712.99
5712.93
5711.81
5711.17
5710.52
5709.9
5709.32
5708.79
5713.12
5713.18
5712.06
5711.4
5710.78
5710.21
5709.68
5709.21
5712.82
5713.01
5711.9
5711.26
5710.64
5710.05
5709.5
5709.01
5712.17
5712.27
5711.52
5710.94
5710.36
5709.8
5709.28
5708.82
5711.72
5711.51
5711.01
5710.53
5710.05
5709.58
5709.16
5708.78
5714.55
5712.99
5711.72
5710.68
5709.84
5709.16
5708.61
5708.17
5716.3
5714.17
5712.51
5711.21
5710.18
5709.37
5708.71
5708.19
5717.79
5715.22
5713.23
5711.71
5710.53
5709.6
5708.86
5708.28
5718.5
5715.76
5713.64
5712.04
5710.82
5709.86
5709.11
5708.52
5718.04
5715.48
5713.46
5711.92
5710.73
5709.79
5709.05
5708.45
5716.66
5714.45
5712.71
5711.37
5710.31
5709.46
5708.78
5708.23
5714.78
5713.19
5711.88
5710.81
5709.94
5709.23
5708.65
5708.19
5711.54
5709.63
5708.12
5706.95
5706.05
5705.38
5704.91
5704.62
5713.64
5710.93
5708.91
5707.4
5706.28
5705.46
5704.89
5704.53
5715.54
5712.18
5709.69
5707.86
5706.54
5705.59
5704.92
5704.5
5716.44
5712.83
5710.15
5708.19
5706.78
5705.78
5705.09
5704.66
5715.74
5712.35
5709.85
5708.04
5706.71
5705.75
5705.08
5704.65
5713.69
5711.02
5708.98
5707.46
5706.33
5705.5
5704.91
5704.53
5711.47
5709.56
5708.05
5706.89
5706.01
5705.34
5704.85
5704.53
5696.46
5695.5
5695
5694.91
5695.22
5695.96
5697.15
5698.78
5697.52
5695.89
5694.95
5694.58
5694.73
5695.4
5696.62
5698.38
5698.79
5696.54
5695.09
5694.44
5694.51
5695.13
5696.36
5698.16
5699.51
5697.05
5695.38
5694.59
5694.53
5695.08
5696.28
5698.05
5698.82
5696.65
5695.13
5694.21
5694.22
5695.04
5696.47
5698.29
5697.34
5695.73
5694.79
5694.45
5694.63
5695.33
5696.61
5698.39
5695.96
5695.02
5694.6
5694.6
5694.99
5695.8
5697.04
5698.7
5659.66
5661.22
5662.53
5663.67
5664.64
5665.11
5664.98
5665.99
5657.44
5659.57
5661.26
5662.7
5663.92
5664.63
5664.64
5665.78
5655.81
5658.12
5659.84
5661.76
5663.13
5663.99
5664.14
5665.53
5655.07
5657.76
5659.68
5661.4
5662.86
5663.6
5663.38
5665.05
5655.57
5657.98
5659.43
5661.03
5662.81
5663.95
5664.14
5665.6
5656.68
5658.87
5660.67
5662.23
5663.57
5664.42
5664.55
5665.75
5658.41
5660.12
5661.64
5663
5664.16
5664.81
5664.83
5665.94
5708.38
5708.42
5708.42
5708.38
5708.43
5708.43
5708.38
5707.78
5707.82
5707.84
5707.87
5707.86
5707.86
5707.86
5704.52
5704.62
5704.64
5704.67
5704.65
5704.64
5704.58
5700.16
5700.36
5700.43
5700.52
5700.53
5700.57
5700.56
5672.41
5672.38
5672.35
5672.39
5672.32
5672.25
5672.13
5708.42
5708.25
5708.34
5708.72
5708.4
5708.33
5708.45
5707.82
5707.79
5707.8
5707.98
5707.84
5707.82
5707.78
5704.34
5704.31
5704.3
5704.32
5704.35
5704.38
5704.42
5700.42
5700.22
5700.02
5699.89
5700.02
5700.14
5700.15
5672.13
5672.21
5672.43
5672.99
5672.54
5672.55
5672.51
5708.53
5708.44
5708.64
5708.97
5708.38
5708.37
5708.61
5707.8
5707.8
5708.09
5708.18
5707.87
5707.75
5707.78
5704.45
5704.39
5704.6
5704.66
5704.37
5704.32
5704.44
5699.96
5699.42
5699.14
5699.32
5699.22
5699.36
5699.88
5672.65
5673.41
5674.76
5676.04
5672.91
5671.68
5672.79
5708.56
5708.4
5708.37
5708.82
5708.59
5708.44
5708.42
5707.85
5707.82
5707.86
5708.09
5708.02
5707.83
5707.83
5704.52
5704.4
5704.33
5704.48
5704.48
5704.38
5704.39
5700.54
5700.27
5700.07
5699.88
5700.2
5700.28
5700.44
5672.3
5672.59
5672.93
5673.24
5673.15
5672.51
5672.24
5707.88
5707.31
5706.9
5706.6
5706.38
5706.2
5706.06
5705.92
5708
5707.46
5707.02
5706.7
5706.45
5706.26
5706.1
5705.96
5707.97
5707.46
5707.04
5706.69
5706.44
5706.25
5706.09
5705.95
5707.92
5707.45
5707.08
5706.77
5706.48
5706.24
5706.08
5705.94
5707.95
5707.45
5707.04
5706.67
5706.42
5706.22
5706.06
5705.92
5707.98
5707.44
5707
5706.67
5706.41
5706.21
5706.04
5705.9
5707.87
5707.31
5706.9
5706.58
5706.33
5706.14
5705.98
5705.83
5707.32
5706.83
5706.44
5706.14
5705.93
5705.78
5705.67
5705.58
5707.37
5706.91
5706.53
5706.23
5706.01
5705.85
5705.74
5705.64
5707.39
5706.95
5706.56
5706.26
5706.03
5705.87
5705.75
5705.65
5707.43
5706.98
5706.62
5706.31
5706.07
5705.89
5705.76
5705.66
5707.41
5706.96
5706.57
5706.26
5706.02
5705.86
5705.73
5705.63
5707.41
5706.94
5706.54
5706.22
5705.99
5705.82
5705.69
5705.59
5707.42
5706.89
5706.47
5706.15
5705.91
5705.73
5705.61
5705.5
5704.48
5704.52
5704.66
5704.81
5704.93
5705.02
5705.07
5705.09
5704.61
5704.64
5704.77
5704.92
5705.03
5705.11
5705.16
5705.17
5704.65
5704.67
5704.8
5704.94
5705.06
5705.13
5705.18
5705.19
5704.67
5704.69
5704.82
5704.96
5705.07
5705.15
5705.19
5705.2
5704.66
5704.67
5704.8
5704.94
5705.05
5705.12
5705.16
5705.17
5704.63
5704.65
5704.77
5704.91
5705.01
5705.08
5705.12
5705.13
5704.55
5704.57
5704.69
5704.83
5704.93
5704.99
5705.02
5705.03
5702.18
5702.85
5703.33
5703.7
5703.99
5704.21
5704.38
5704.5
5702.38
5703.03
5703.49
5703.85
5704.12
5704.33
5704.49
5704.6
5702.46
5703.11
5703.56
5703.9
5704.16
5704.37
5704.52
5704.62
5702.55
5703.19
5703.63
5703.96
5704.21
5704.4
5704.55
5704.65
5702.56
5703.18
5703.61
5703.94
5704.18
5704.37
5704.51
5704.61
5702.58
5703.18
5703.59
5703.91
5704.15
5704.33
5704.47
5704.57
5702.53
5703.11
5703.52
5703.82
5704.05
5704.23
5704.37
5704.46
5685.78
5694.14
5698.39
5700.77
5702.17
5703.03
5703.56
5703.89
5685.73
5694.2
5698.48
5700.87
5702.27
5703.12
5703.65
5703.98
5685.68
5694.2
5698.5
5700.89
5702.3
5703.15
5703.67
5704
5685.68
5694.21
5698.52
5700.92
5702.32
5703.17
5703.7
5704.02
5685.65
5694.18
5698.49
5700.89
5702.29
5703.14
5703.66
5703.99
5685.63
5694.17
5698.47
5700.87
5702.27
5703.11
5703.63
5703.95
5685.6
5694.12
5698.42
5700.8
5702.19
5703.02
5703.53
5703.84
5707.86
5707.27
5706.82
5706.46
5706.18
5705.95
5705.77
5705.62
5707.76
5707.19
5706.73
5706.36
5706.07
5705.83
5705.62
5705.45
5707.74
5707.08
5706.55
5706.13
5705.8
5705.56
5705.33
5705.13
5708.17
5707.52
5706.97
5706.51
5706.11
5705.81
5705.61
5705.39
5707.81
5707.14
5706.61
5706.19
5705.84
5705.59
5705.38
5705.17
5707.76
5707.19
5706.76
5706.4
5706.12
5705.91
5705.71
5705.54
5707.87
5707.28
5706.84
5706.5
5706.23
5706.02
5705.85
5705.7
5707.29
5706.68
5706.2
5705.84
5705.57
5705.38
5705.24
5705.14
5707.28
5706.71
5706.23
5705.86
5705.57
5705.35
5705.18
5705.05
5707.23
5706.59
5706.08
5705.71
5705.4
5705.15
5704.96
5704.79
5707.4
5706.76
5706.27
5705.89
5705.58
5705.33
5705.16
5705.04
5707.26
5706.61
5706.12
5705.76
5705.45
5705.21
5705
5704.82
5707.32
5706.74
5706.28
5705.91
5705.63
5705.42
5705.26
5705.13
5707.26
5706.66
5706.2
5705.86
5705.61
5705.43
5705.3
5705.2
5704.25
5704.28
5704.38
5704.48
5704.55
5704.59
5704.61
5704.6
5704.22
5704.21
5704.3
5704.4
5704.47
5704.52
5704.54
5704.54
5704.23
5704.22
5704.24
5704.26
5704.25
5704.24
5704.21
5704.17
5704.26
5704.08
5703.94
5704.11
5704.4
5704.45
5704.47
5704.48
5704.29
5704.29
5704.33
5704.34
5704.36
5704.34
5704.3
5704.24
5704.29
5704.29
5704.37
5704.47
5704.55
5704.59
5704.62
5704.62
5704.31
5704.32
5704.41
5704.51
5704.59
5704.63
5704.66
5704.66
5702.33
5702.8
5703.15
5703.42
5703.62
5703.78
5703.91
5704
5702.22
5702.78
5703.15
5703.43
5703.63
5703.78
5703.9
5703.97
5702.15
5702.78
5703.16
5703.39
5703.53
5703.58
5703.58
5703.58
5701.93
5702.36
5702.77
5703.03
5703.26
5703.71
5703.93
5703.97
5702.14
5702.78
5703.17
5703.41
5703.56
5703.63
5703.65
5703.63
5702.13
5702.72
5703.12
5703.43
5703.65
5703.82
5703.95
5704.04
5702.1
5702.65
5703.06
5703.37
5703.62
5703.81
5703.95
5704.06
5685.48
5693.89
5698.13
5700.48
5701.83
5702.63
5703.12
5703.43
5685.48
5693.9
5698.14
5700.48
5701.82
5702.61
5703.08
5703.3
5685.58
5693.96
5698.2
5700.48
5701.75
5702.44
5702.44
5701.3
5686.01
5694.27
5698.09
5700.11
5701.36
5702.25
5703.02
5703.36
5685.68
5694.02
5698.21
5700.49
5701.77
5702.48
5702.85
5702.58
5685.74
5694.04
5698.22
5700.53
5701.87
5702.66
5703.14
5703.41
5685.76
5694.02
5698.19
5700.52
5701.87
5702.69
5703.19
5703.5
5707.93
5707.32
5706.85
5706.49
5706.22
5706.02
5705.87
5705.75
5707.89
5707.3
5706.86
5706.48
5706.14
5705.89
5705.72
5705.58
5708.03
5707.36
5706.84
5706.45
5706.13
5705.86
5705.64
5705.45
5708.42
5707.76
5707.19
5706.73
5706.36
5706.04
5705.8
5705.62
5707.78
5707.13
5706.67
5706.32
5706.03
5705.79
5705.58
5705.42
5707.83
5707.3
5706.9
5706.51
5706.22
5705.98
5705.81
5705.67
5708.07
5707.48
5707.01
5706.65
5706.37
5706.16
5706
5705.87
5707.25
5706.68
5706.23
5705.89
5705.65
5705.48
5705.36
5705.27
5707.22
5706.63
5706.2
5705.88
5705.61
5705.42
5705.28
5705.18
5707.47
5706.82
5706.33
5705.97
5705.69
5705.47
5705.29
5705.14
5707.57
5706.93
5706.44
5706.06
5705.77
5705.54
5705.37
5705.24
5707.28
5706.67
5706.21
5705.87
5705.61
5705.4
5705.24
5705.11
5707.2
5706.65
5706.25
5705.96
5705.72
5705.54
5705.41
5705.31
5707.28
5706.78
5706.38
5706.07
5705.85
5705.69
5705.58
5705.5
5704.34
5704.3
5704.4
5704.52
5704.63
5704.7
5704.75
5704.77
5704.26
5704.22
5704.27
5704.35
5704.45
5704.53
5704.58
5704.61
5704.43
5704.33
5704.1
5704.18
5704.46
5704.64
5704.68
5704.68
5704.52
5704.48
5704.51
5704.55
5704.58
5704.59
5704.58
5704.56
5704.2
5704.13
5704.21
5704.32
5704.41
5704.49
5704.56
5704.59
5704.22
5704.22
5704.31
5704.42
5704.54
5704.66
5704.73
5704.76
5704.38
5704.38
5704.52
5704.67
5704.81
5704.91
5704.97
5705
5701.91
5702.58
5703.06
5703.42
5703.69
5703.9
5704.07
5704.19
5701.62
5702.43
5702.92
5703.26
5703.54
5703.75
5703.91
5704.02
5700.93
5702.01
5702.72
5703.43
5704.04
5704.22
5704.34
5704.4
5701.24
5702.07
5702.38
5703.21
5703.59
5703.78
5703.9
5703.99
5701.24
5702.08
5702.5
5703.01
5703.71
5704.06
5704.18
5704.25
5701.57
5702.45
5702.98
5703.34
5703.62
5703.88
5704.05
5704.18
5701.9
5702.7
5703.22
5703.62
5703.92
5704.15
5704.32
5704.45
5685.76
5693.97
5698.15
5700.5
5701.89
5702.73
5703.26
5703.59
5685.31
5692.8
5698.07
5700.4
5701.78
5702.64
5703.17
5703.52
5686.63
5694.15
5698.32
5700.57
5701.9
5702.76
5703.34
5703.72
5687.99
5694.77
5698.32
5700.53
5701.85
5702.7
5703.27
5703.64
5685.4
5694.43
5697.97
5700.45
5701.79
5702.67
5703.25
5703.63
5685.99
5693.82
5697.76
5700.32
5701.79
5702.68
5703.26
5703.63
5685.84
5693.86
5698.19
5700.64
5702.06
5702.93
5703.48
5703.83
5708.02
5707.43
5706.97
5706.6
5706.31
5706.08
5705.9
5705.75
5707.88
5707.29
5706.81
5706.44
5706.14
5705.89
5705.68
5705.51
5707.79
5707.13
5706.63
5706.24
5705.93
5705.67
5705.45
5705.27
5708.27
5707.6
5707.04
5706.58
5706.21
5705.91
5705.68
5705.51
5708
5707.32
5706.77
5706.34
5705.99
5705.7
5705.46
5705.26
5707.89
5707.27
5706.78
5706.4
5706.1
5705.85
5705.65
5705.48
5707.86
5707.26
5706.8
5706.44
5706.16
5705.95
5705.78
5705.63
5707.38
5706.84
5706.41
5706.07
5705.81
5705.62
5705.48
5705.38
5707.3
5706.77
5706.33
5705.96
5705.68
5705.46
5705.29
5705.16
5707.3
5706.69
5706.21
5705.83
5705.53
5705.28
5705.08
5704.93
5707.52
5706.89
5706.4
5706
5705.69
5705.46
5705.28
5705.15
5707.44
5706.8
5706.3
5705.9
5705.57
5705.31
5705.1
5704.92
5707.29
5706.72
5706.26
5705.89
5705.6
5705.38
5705.21
5705.09
5707.31
5706.7
5706.22
5705.86
5705.59
5705.4
5705.27
5705.16
5704.44
5704.47
5704.59
5704.71
5704.8
5704.86
5704.88
5704.88
5704.33
5704.29
5704.38
5704.49
5704.58
5704.64
5704.66
5704.65
5704.23
5704.21
5704.27
5704.32
5704.37
5704.38
5704.36
5704.32
5704.36
5704.33
5704.39
5704.45
5704.5
5704.52
5704.54
5704.53
5704.36
5704.34
5704.39
5704.43
5704.46
5704.45
5704.42
5704.27
5704.28
5704.24
5704.32
5704.42
5704.5
5704.55
5704.57
5704.57
5704.26
5704.3
5704.41
5704.51
5704.58
5704.62
5704.64
5704.64
5702.51
5703.07
5703.46
5703.74
5703.96
5704.11
5704.24
5704.32
5702.29
5702.93
5703.32
5703.59
5703.79
5703.94
5704.04
5704.11
5702.26
5702.93
5703.3
5703.59
5703.74
5703.81
5703.83
5703.81
5702.02
5702.89
5703.36
5703.63
5703.78
5703.87
5703.94
5703.99
5702.42
5703.09
5703.44
5703.68
5703.8
5703.87
5703.89
5703.87
5702.25
5702.83
5703.19
5703.46
5703.66
5703.81
5703.92
5704.01
5702.38
5702.85
5703.19
5703.46
5703.67
5703.84
5703.97
5704.06
5685.71
5694.16
5698.41
5700.76
5702.13
5702.94
5703.43
5703.73
5685.86
5694.19
5698.39
5700.69
5702.01
5702.78
5703.24
5703.52
5685.71
5693.8
5698.42
5700.72
5701.95
5702.65
5703.03
5703
5686.19
5694.15
5698.41
5700.74
5701.95
5702.67
5703.15
5703.41
5686.14
5694.3
5698.39
5700.6
5701.9
5702.71
5703.12
5703.32
5685.75
5694.07
5698.25
5700.55
5701.87
5702.65
5703.12
5703.41
5685.56
5693.95
5698.17
5700.51
5701.87
5702.68
5703.18
5703.49
5705.83
5705.77
5705.72
5705.67
5705.63
5705.59
5705.57
5705.56
5705.86
5705.8
5705.74
5705.69
5705.65
5705.62
5705.6
5705.59
5705.85
5705.79
5705.73
5705.68
5705.64
5705.61
5705.59
5705.58
5705.85
5705.78
5705.73
5705.68
5705.64
5705.61
5705.59
5705.58
5705.82
5705.76
5705.7
5705.66
5705.62
5705.59
5705.57
5705.56
5705.8
5705.74
5705.68
5705.63
5705.59
5705.56
5705.54
5705.53
5705.74
5705.67
5705.62
5705.57
5705.53
5705.49
5705.47
5705.46
5705.52
5705.49
5705.46
5705.43
5705.41
5705.39
5705.38
5705.36
5705.58
5705.54
5705.51
5705.48
5705.45
5705.44
5705.42
5705.41
5705.58
5705.54
5705.51
5705.48
5705.46
5705.44
5705.42
5705.41
5705.59
5705.55
5705.51
5705.49
5705.46
5705.44
5705.43
5705.41
5705.56
5705.52
5705.49
5705.46
5705.43
5705.41
5705.4
5705.39
5705.52
5705.48
5705.45
5705.42
5705.4
5705.38
5705.36
5705.35
5705.44
5705.4
5705.37
5705.34
5705.32
5705.3
5705.28
5705.27
5705.1
5705.1
5705.11
5705.1
5705.1
5705.1
5705.09
5705.08
5705.17
5705.18
5705.18
5705.17
5705.17
5705.16
5705.15
5705.15
5705.19
5705.19
5705.18
5705.18
5705.17
5705.17
5705.16
5705.15
5705.2
5705.2
5705.19
5705.19
5705.18
5705.18
5705.17
5705.16
5705.17
5705.16
5705.16
5705.16
5705.15
5705.14
5705.14
5705.13
5705.12
5705.12
5705.12
5705.12
5705.11
5705.1
5705.1
5705.09
5705.03
5705.03
5705.03
5705.02
5705.02
5705.01
5705.01
5705
5704.57
5704.62
5704.66
5704.68
5704.7
5704.71
5704.72
5704.71
5704.67
5704.71
5704.75
5704.77
5704.79
5704.79
5704.8
5704.79
5704.69
5704.73
5704.76
5704.78
5704.8
5704.8
5704.81
5704.8
5704.71
5704.75
5704.78
5704.8
5704.81
5704.82
5704.82
5704.82
5704.67
5704.71
5704.74
5704.76
5704.78
5704.78
5704.78
5704.78
5704.63
5704.67
5704.7
5704.72
5704.73
5704.74
5704.74
5704.74
5704.52
5704.56
5704.59
5704.62
5704.63
5704.64
5704.64
5704.64
5704.07
5704.17
5704.25
5704.3
5704.34
5704.36
5704.38
5704.38
5704.15
5704.25
5704.33
5704.38
5704.42
5704.44
5704.46
5704.46
5704.17
5704.27
5704.34
5704.4
5704.43
5704.45
5704.47
5704.47
5704.19
5704.29
5704.36
5704.41
5704.45
5704.47
5704.48
5704.48
5704.15
5704.25
5704.32
5704.38
5704.41
5704.44
5704.45
5704.45
5704.12
5704.22
5704.29
5704.34
5704.38
5704.4
5704.41
5704.41
5704.01
5704.1
5704.18
5704.23
5704.27
5704.29
5704.3
5704.3
5705.52
5705.45
5705.39
5705.33
5705.28
5705.24
5705.21
5705.2
5705.34
5705.26
5705.2
5705.14
5705.09
5705.06
5705.02
5704.99
5705.01
5704.94
5704.88
5704.83
5704.79
5704.77
5704.76
5704.74
5705.3
5705.24
5705.2
5705.16
5705.14
5705.11
5705.09
5705.11
5705.05
5704.97
5704.91
5704.86
5704.83
5704.81
5704.8
5704.78
5705.43
5705.36
5705.29
5705.23
5705.18
5705.15
5705.1
5705.08
5705.6
5705.54
5705.48
5705.42
5705.37
5705.33
5705.3
5705.28
5705.07
5705.03
5705
5704.98
5704.95
5704.94
5704.92
5704.91
5704.97
5704.93
5704.89
5704.86
5704.84
5704.82
5704.77
5704.7
5704.68
5704.62
5704.58
5704.54
5704.52
5704.51
5704.5
5704.39
5704.97
5704.93
5704.9
5704.87
5704.85
5704.85
5704.85
5704.84
5704.71
5704.65
5704.6
5704.57
5704.55
5704.54
5704.53
5704.43
5705.06
5705.01
5704.98
5704.95
5704.93
5704.91
5704.86
5704.8
5705.14
5705.11
5705.08
5705.05
5705.03
5705.01
5705
5704.99
5704.6
5704.6
5704.6
5704.6
5704.6
5704.59
5704.59
5704.58
5704.53
5704.49
5704.5
5704.55
5704.55
5704.56
5704.56
5704.56
5704.14
5704.12
5704.11
5704.09
5704.08
5704.1
5704.09
5703.95
5704.49
5704.48
5704.47
5704.49
5704.49
5704.53
5704.53
5704.51
5704.2
5704.13
5704.06
5704.05
5704.1
5704.14
5704.13
5704.05
5704.61
5704.59
5704.6
5704.63
5704.63
5704.64
5704.64
5704.64
5704.66
5704.66
5704.67
5704.66
5704.66
5704.66
5704.66
5704.65
5704.06
5704.1
5704.13
5704.16
5704.17
5704.18
5704.19
5704.19
5703.96
5703.87
5703.97
5704.11
5704.14
5704.14
5704.16
5704.16
5703.59
5703.6
5703.6
5703.63
5703.65
5703.67
5703.67
5703.66
5704.01
5704.02
5704.01
5704.02
5704.08
5704.12
5704.13
5704.13
5703.63
5703.63
5703.61
5703.61
5703.66
5703.69
5703.71
5703.71
5704.08
5704.07
5704.06
5704.18
5704.2
5704.21
5704.22
5704.22
5704.12
5704.17
5704.2
5704.22
5704.24
5704.25
5704.26
5704.26
5703.58
5703.68
5703.75
5703.81
5703.84
5703.87
5703.88
5703.89
5703.33
5703.36
5703.5
5703.68
5703.75
5703.79
5703.81
5703.81
5701.94
5703.03
5703.17
5703.11
5702.75
5703.28
5703.35
5703.36
5703.43
5703.47
5703.51
5703.59
5703.6
5703.66
5703.74
5703.75
5701.57
5702.42
5702.94
5702.02
5701.73
5703.03
5703.4
5703.37
5703.52
5703.56
5703.59
5703.72
5703.8
5703.82
5703.85
5703.86
5703.66
5703.76
5703.84
5703.89
5703.93
5703.95
5703.97
5703.97
5705.66
5705.6
5705.55
5705.5
5705.45
5705.41
5705.37
5705.36
5705.5
5705.44
5705.4
5705.36
5705.32
5705.29
5705.27
5705.26
5705.33
5705.25
5705.18
5705.12
5705.09
5705.06
5705.05
5705.06
5705.51
5705.45
5705.41
5705.38
5705.35
5705.32
5705.31
5705.33
5705.31
5705.24
5705.18
5705.14
5705.11
5705.09
5705.07
5705.08
5705.59
5705.54
5705.49
5705.46
5705.42
5705.4
5705.38
5705.37
5705.79
5705.73
5705.68
5705.63
5705.59
5705.56
5705.54
5705.52
5705.22
5705.19
5705.16
5705.14
5705.11
5705.1
5705.08
5705.07
5705.12
5705.09
5705.07
5705.05
5705.03
5705.02
5705.01
5705
5705.05
5704.98
5704.92
5704.87
5704.83
5704.81
5704.8
5704.81
5705.16
5705.11
5705.07
5705.03
5705
5705
5705.01
5705.02
5705.02
5704.96
5704.91
5704.86
5704.81
5704.79
5704.81
5704.8
5705.26
5705.23
5705.2
5705.19
5705.17
5705.16
5705.15
5705.15
5705.44
5705.41
5705.39
5705.36
5705.35
5705.33
5705.32
5705.31
5704.78
5704.79
5704.79
5704.79
5704.79
5704.79
5704.79
5704.78
5704.62
5704.62
5704.62
5704.62
5704.62
5704.63
5704.64
5704.64
5704.66
5704.63
5704.6
5704.53
5704.28
5704.1
5704.18
5704.18
5704.56
5704.55
5704.55
5704.54
5704.52
5704.49
5704.53
5704.49
5704.59
5704.59
5704.58
5704.56
5704.43
5704.26
5704.18
5704.2
5704.78
5704.79
5704.79
5704.78
5704.79
5704.8
5704.8
5704.8
5705.02
5705.03
5705.03
5705.04
5705.04
5705.03
5705.03
5705.02
5704.26
5704.31
5704.35
5704.38
5704.4
5704.41
5704.42
5704.42
5704.08
5704.12
5704.15
5704.14
5704.13
5704.14
5704.17
5704.18
5704.44
5704.47
5704.46
5703.9
5703.74
5703.75
5703.76
5703.75
5704.05
5704.08
5704.1
5704.11
5704.04
5703.76
5703.64
5703.36
5704.3
5704.33
5704.36
5704.21
5703.82
5703.83
5703.83
5703.91
5704.25
5704.3
5704.33
5704.34
5704.34
5704.36
5704.38
5704.39
5704.52
5704.57
5704.61
5704.64
5704.66
5704.67
5704.67
5704.67
5703.77
5703.88
5703.95
5704.01
5704.05
5704.08
5704.1
5704.1
5703.69
5703.79
5703.87
5703.91
5703.92
5703.93
5703.97
5703.97
5703.93
5704.07
5704.18
5704.14
5703.98
5704.04
5704.33
5704.24
5703.81
5703.89
5703.94
5703.97
5703.98
5703.4
5702.96
5702.96
5703.83
5703.96
5704.04
5704.01
5703.86
5703.76
5704.09
5704.08
5703.81
5703.92
5704
5704.05
5704.07
5704.08
5704.12
5704.13
5704.01
5704.12
5704.21
5704.26
5704.31
5704.33
5704.35
5704.35
5705.65
5705.58
5705.53
5705.48
5705.44
5705.4
5705.38
5705.37
5705.4
5705.33
5705.27
5705.22
5705.18
5705.16
5705.14
5705.12
5705.15
5705.08
5705.02
5704.98
5704.95
5704.94
5704.92
5704.92
5705.41
5705.35
5705.31
5705.28
5705.25
5705.22
5705.2
5705.21
5705.14
5705.06
5705
5704.95
5704.91
5704.89
5704.88
5704.87
5705.37
5705.29
5705.23
5705.18
5705.13
5705.1
5705.07
5705.06
5705.53
5705.47
5705.4
5705.35
5705.3
5705.26
5705.23
5705.22
5705.31
5705.27
5705.24
5705.21
5705.19
5705.17
5705.16
5705.15
5705.09
5705.04
5705.01
5704.98
5704.97
5704.95
5704.94
5704.93
5704.83
5704.77
5704.73
5704.71
5704.69
5704.68
5704.65
5704.61
5705.08
5705.04
5705.01
5704.98
5704.97
5704.96
5704.96
5704.95
5704.82
5704.76
5704.71
5704.68
5704.66
5704.65
5704.64
5704.62
5705.01
5704.97
5704.93
5704.9
5704.89
5704.88
5704.86
5704.84
5705.09
5705.06
5705.02
5705
5704.98
5704.96
5704.94
5704.93
5704.88
5704.88
5704.88
5704.87
5704.87
5704.87
5704.86
5704.86
5704.65
5704.63
5704.6
5704.6
5704.64
5704.65
5704.66
5704.66
5704.24
5704.21
5704.2
5704.22
5704.26
5704.26
5704.24
5704.19
5704.52
5704.56
5704.56
5704.55
5704.59
5704.61
5704.61
5704.6
5704.19
5704.16
5704.15
5704.18
5704.23
5704.24
5704.24
5704.24
5704.57
5704.57
5704.48
5704.41
5704.53
5704.58
5704.58
5704.57
5704.64
5704.64
5704.63
5704.63
5704.63
5704.63
5704.62
5704.62
5704.38
5704.41
5704.44
5704.46
5704.48
5704.49
5704.49
5704.49
5704.16
5704.12
5703.88
5703.84
5704.23
5704.25
5704.26
5704.26
5703.79
5703.78
5703.73
5703.74
5703.81
5703.82
5703.83
5703.83
5703.92
5703.91
5704.09
5704.11
5704.17
5704.19
5704.19
5704.17
5703.83
5703.78
5703.74
5703.76
5703.8
5703.84
5703.65
5703.56
5704.07
5704.05
5703.91
5703.91
5704.03
5704.18
5704.18
5704.17
5704.12
5704.15
5704.18
5704.21
5704.22
5704.23
5704.24
5704.24
5703.89
5703.98
5704.05
5704.1
5704.14