/*--------------------------------*- C++ -*----------------------------------*\
| =========                 |                                                 |
| \\      /  F ield         | OpenFOAM: The Open Source CFD Toolbox           |
|  \\    /   O peration     | Version:  plus.master.MPPICInterFoam            |
|   \\  /    A nd           | Web:      www.OpenFOAM.com                      |
|    \\/     M anipulation  |                                                 |
\*---------------------------------------------------------------------------*/
FoamFile
{
    version     2.0;
    format      ascii;
    class       volScalarField;
    location    "5.4";
    object      k;
}
// * * * * * * * * * * * * * * * * * * * * * * * * * * * * * * * * * * * * * //

dimensions      [0 2 -2 0 0 0 0];

internalField   nonuniform List<scalar> 
11821
(
0.0457733
0.0480246
0.0420615
0.0453449
0.0418166
0.0372175
0.0408304
0.0459574
0.0494113
0.0504786
0.0486809
0.0450342
0.0402016
0.046138
0.0525861
0.0570796
0.0583603
0.0557774
0.0509243
0.0449313
0.0498321
0.0573674
0.0604049
0.0609626
0.0605428
0.0550956
0.0480548
0.051007
0.0582103
0.06079
0.0602462
0.062033
0.0568143
0.0490546
0.0491396
0.0564229
0.0615135
0.0624523
0.0601036
0.0544923
0.0475976
0.045143
0.0511782
0.0554749
0.0569311
0.0544977
0.0498172
0.0441727
0.0396897
0.0446308
0.0478008
0.0487521
0.0472582
0.0439353
0.0392697
0.0427048
0.0480085
0.0514911
0.0526208
0.0511498
0.0475944
0.0425564
0.0481559
0.054328
0.057966
0.0589684
0.0570867
0.0535726
0.0476408
0.0519034
0.058325
0.0585216
0.0577759
0.0592729
0.0571941
0.0510495
0.0529794
0.0589087
0.0605032
0.05868
0.0579349
0.057638
0.0522121
0.0514941
0.0578375
0.0576133
0.0566811
0.0581416
0.057253
0.0507581
0.047482
0.0537561
0.0577264
0.0585392
0.0572552
0.0530734
0.047067
0.0417259
0.0470984
0.0506009
0.0517781
0.0503325
0.0467796
0.041682
0.0449718
0.0508455
0.0547393
0.0560617
0.0546899
0.050856
0.0452914
0.0509013
0.0577251
0.0613155
0.0615383
0.061039
0.0576035
0.0509809
0.0550771
0.0620608
0.0629993
0.0602179
0.0601269
0.061542
0.0549005
0.0565093
0.0635902
0.0672839
0.0601349
0.0590612
0.0618955
0.0561658
0.0547729
0.0621631
0.063655
0.0615133
0.0620388
0.0615488
0.0545466
0.0502454
0.0573895
0.0617441
0.0623583
0.0614111
0.0571061
0.0503167
0.0438785
0.0499205
0.0540089
0.0553889
0.0538974
0.0499285
0.0442209
0.0471511
0.0537982
0.0584109
0.0600625
0.0585895
0.0542627
0.0479964
0.0536663
0.0618565
0.0667584
0.067394
0.0670053
0.0623827
0.0544087
0.058438
0.0676313
0.0687119
0.0665171
0.0674825
0.0672908
0.058936
0.0602066
0.0703525
0.0622828
0.0660606
0.06639
0.0683764
0.0603763
0.058006
0.0675719
0.070297
0.0690026
0.0694486
0.0669751
0.058401
0.0527715
0.0612502
0.0670743
0.0683452
0.0667395
0.0614173
0.0534499
0.0457095
0.0524992
0.0573445
0.0590558
0.0574238
0.0529012
0.046501
0.0487903
0.056232
0.0615578
0.0634356
0.0619785
0.0572503
0.0502221
0.0558963
0.0652514
0.0716278
0.0729197
0.0721042
0.065886
0.0573797
0.0611326
0.0721656
0.0747971
0.0733994
0.0766072
0.0725228
0.0622761
0.0630267
0.0749053
0.0710482
0.075163
0.0756052
0.0738332
0.0638741
0.0604421
0.0718021
0.0759917
0.0750249
0.0765805
0.0719213
0.0616711
0.05454
0.0641246
0.0714441
0.0737148
0.0715278
0.0648494
0.0559501
0.0468228
0.0543079
0.0599019
0.0620629
0.0603368
0.0552212
0.0481056
0.049397
0.0573534
0.0632551
0.0650589
0.0639523
0.0589443
0.0512994
0.0569136
0.0659014
0.0724384
0.0755035
0.071796
0.0658563
0.059032
0.0626118
0.0733709
0.0771766
0.0767399
0.0777284
0.072681
0.0641833
0.0644993
0.0763972
0.075709
0.0660549
0.078635
0.0762906
0.0656314
0.0615209
0.0725092
0.0785486
0.0778714
0.0762308
0.0723863
0.0635231
0.0549618
0.064543
0.0720046
0.0748699
0.0729201
0.0657201
0.057058
0.0469149
0.0547514
0.0610608
0.0637374
0.0619921
0.0562679
0.0485826
0.0489831
0.056817
0.063375
0.0664878
0.0646956
0.058892
0.0510785
0.0562574
0.064961
0.0689831
0.0698363
0.0681036
0.0666387
0.0589064
0.0619448
0.0703426
0.0711969
0.0679603
0.0666509
0.0683019
0.0649057
0.0636622
0.0716877
0.0740211
0.0654346
0.0669153
0.0702226
0.0668492
0.0604982
0.0697005
0.0730975
0.0711675
0.0711848
0.0688269
0.0633089
0.0539248
0.0630008
0.069724
0.0718852
0.0697364
0.0646935
0.0563328
0.046233
0.0537372
0.0601818
0.0631468
0.0612424
0.0554957
0.0480021
0.0480629
0.055347
0.0617828
0.0649794
0.0634147
0.0575831
0.0500824
0.0546666
0.0634089
0.0691299
0.070575
0.0706
0.0662473
0.0574498
0.059906
0.0696128
0.0714017
0.0695727
0.0684647
0.0706273
0.0634439
0.0614241
0.0706223
0.0738629
0.0687713
0.0692115
0.0711524
0.0651883
0.0582815
0.0680692
0.0725929
0.0739501
0.074078
0.0693913
0.0615905
0.0521727
0.0607004
0.0682096
0.071166
0.0694849
0.0631497
0.0546448
0.0451926
0.0519553
0.0579603
0.0609956
0.059296
0.0537808
0.0468263
0.0471807
0.0539539
0.0598415
0.0630603
0.0614971
0.0560274
0.0489393
0.053061
0.0622986
0.0698347
0.0729201
0.0729598
0.0656678
0.0557521
0.0574609
0.0688986
0.0738139
0.0731301
0.0750569
0.0722905
0.0610289
0.0587024
0.0708556
0.0725258
0.0708072
0.070177
0.0732106
0.0626185
0.0558342
0.0666016
0.0727384
0.0731653
0.0732956
0.0696127
0.0590433
0.0504988
0.0587681
0.0663437
0.0705727
0.0685685
0.0613668
0.0526562
0.0441986
0.0501814
0.0552462
0.0578968
0.0564372
0.0516659
0.0454571
0.0465232
0.052704
0.0578072
0.0603918
0.0589998
0.0543061
0.0478523
0.0518119
0.0600611
0.0675174
0.0715953
0.0693047
0.0626228
0.0539602
0.0554821
0.0657923
0.0735566
0.0689274
0.0753028
0.0690036
0.0583797
0.056397
0.0676211
0.0749239
0.0699364
0.0739172
0.0706621
0.0594958
0.0539134
0.0635333
0.071773
0.0745761
0.0725768
0.0665311
0.0563672
0.0492119
0.0564849
0.0630767
0.0666203
0.0645732
0.0584598
0.0507549
0.0434417
0.0487773
0.0530152
0.0550441
0.0537707
0.0497751
0.044238
0.0462469
0.0521002
0.0567723
0.0589923
0.0576826
0.0532113
0.0470539
0.0512718
0.0587495
0.064896
0.0671282
0.0655441
0.0604144
0.052676
0.0546247
0.0635706
0.0681045
0.0686268
0.0669135
0.0654046
0.0565129
0.0552923
0.0646543
0.0692744
0.0650763
0.068898
0.0660913
0.0571676
0.0529273
0.0611843
0.0673579
0.0687642
0.0678282
0.0628684
0.0543457
0.0485286
0.054928
0.0603598
0.0628419
0.061283
0.0560709
0.0493642
0.0430648
0.0479679
0.0516334
0.053222
0.0520644
0.0485044
0.0434068
0.0460979
0.0515472
0.0555371
0.057269
0.055915
0.0520701
0.0463473
0.0509719
0.0567949
0.0595287
0.0592227
0.0593166
0.057625
0.0515874
0.0540603
0.0596332
0.0602992
0.061493
0.0605316
0.0597315
0.0550129
0.0546255
0.0604528
0.0603346
0.0625252
0.0610661
0.0602837
0.0555768
0.0523816
0.0581164
0.0605937
0.0616305
0.0613916
0.0589425
0.0529948
0.0482371
0.0538367
0.0578516
0.0597884
0.0582684
0.05437
0.0484805
0.0430226
0.0476342
0.0509866
0.0523332
0.0511758
0.0478039
0.042979
0.0460855
0.0512792
0.0549988
0.0563255
0.055179
0.0513583
0.0458734
0.0508564
0.0562271
0.0589139
0.059248
0.059473
0.0564337
0.0508278
0.0537526
0.0578654
0.0591181
0.0599085
0.0592976
0.0581808
0.0539103
0.0542095
0.0571651
0.0583617
0.0582785
0.0584056
0.0581433
0.0543814
0.0521646
0.0569054
0.0592451
0.0589477
0.059568
0.0572532
0.0521255
0.0483025
0.0533887
0.0564612
0.0574232
0.0565897
0.053402
0.048056
0.0433465
0.0477301
0.0508001
0.0518971
0.0507855
0.0475766
0.0429717
0.0461881
0.0510447
0.0544674
0.055823
0.0544806
0.0507983
0.0456462
0.0508092
0.0558766
0.0578437
0.0580239
0.0579039
0.0558483
0.050309
0.0536041
0.0580437
0.0577868
0.0564336
0.0596639
0.0578795
0.0531813
0.054145
0.0577618
0.0583662
0.0576663
0.059011
0.0578956
0.0536536
0.0523985
0.0570428
0.0596689
0.0590193
0.0597311
0.0568008
0.0518186
0.0488103
0.0536551
0.0565737
0.0574145
0.056391
0.0532692
0.0481662
0.0440553
0.0483003
0.0512041
0.0521662
0.0510177
0.04788
0.0433958
0.0467999
0.0516616
0.0549391
0.0561168
0.0548638
0.0511929
0.0459831
0.0515206
0.0572573
0.0601513
0.0606719
0.06048
0.0570261
0.0506878
0.0544932
0.0607556
0.063419
0.0608903
0.0615845
0.0605621
0.0536741
0.055233
0.0610877
0.0609466
0.0619002
0.061565
0.0609844
0.054312
0.0536151
0.0594204
0.0599071
0.0602001
0.0598341
0.059006
0.0525954
0.0501018
0.0551863
0.0584821
0.0594771
0.0583332
0.0545704
0.0490811
0.0452771
0.0495882
0.0523474
0.0532309
0.0520541
0.0489341
0.0443276
0.0480363
0.0532778
0.0568056
0.057892
0.0563328
0.0524326
0.0469018
0.0532733
0.0597304
0.0643612
0.0653014
0.0634538
0.0587178
0.0519013
0.0566759
0.0637117
0.0676852
0.0656815
0.0650646
0.0623785
0.0550394
0.0576686
0.0647468
0.0671752
0.0633837
0.0644056
0.0633889
0.0558945
0.056232
0.0626676
0.0656243
0.0650243
0.0648783
0.0612341
0.0543737
0.0524331
0.0582271
0.0615961
0.0625385
0.0610032
0.0570258
0.0508492
0.0471379
0.0518936
0.0548509
0.0556235
0.0543162
0.0508681
0.0458179
0.00972156
0.00415936
0.0279588
0.0228645
0.0182369
0.014052
0.00998774
0.00419662
0.0402152
0.0341269
0.0284496
0.0231854
0.0184068
0.0141079
0.00997463
0.00415513
0.0387519
0.0329685
0.0275143
0.0224357
0.0178208
0.0136675
0.00966633
0.00403044
0.0356246
0.0304007
0.0254548
0.0208427
0.0166437
0.0128422
0.00913057
0.0038474
0.0314735
0.0271308
0.0228891
0.0188879
0.0152197
0.0118577
0.00849869
0.00364753
0.0342831
0.0297797
0.0253903
0.0212374
0.0173838
0.0137664
0.0100247
0.0044038
0.0383237
0.0328924
0.0277417
0.0229402
0.0185441
0.0145037
0.0104501
0.0044905
0.0411349
0.0351846
0.0294981
0.024196
0.0193728
0.0149982
0.01071
0.00452917
0.0420249
0.0358919
0.0300099
0.0245182
0.0195345
0.0150455
0.0106915
0.00448533
0.0407118
0.034764
0.0290593
0.023742
0.018924
0.0145858
0.0103702
0.0043556
0.0375914
0.0321222
0.0269184
0.0220834
0.0177005
0.0137286
0.00981325
0.00416406
0.0332614
0.0286808
0.0242201
0.0200365
0.0162143
0.0127007
0.00915106
0.00395081
0.0362841
0.0314935
0.0268564
0.0224948
0.0184602
0.0146654
0.010711
0.00472075
0.0406182
0.0348043
0.0293283
0.0242622
0.0196538
0.015421
0.0111489
0.00481528
0.0436558
0.0372467
0.0311701
0.0255592
0.0204954
0.0159196
0.0114096
0.00485589
0.044642
0.0380059
0.0316991
0.0258792
0.0206489
0.0159563
0.0113841
0.00480937
0.0432768
0.0368105
0.0306849
0.0250521
0.0200016
0.0154722
0.0110472
0.00467041
0.039905
0.0339695
0.0284023
0.0233009
0.0187205
0.0145788
0.0104677
0.00446792
0.0351975
0.0302645
0.0255325
0.0211484
0.01717
0.0135094
0.00977811
0.0042421
0.0384469
0.0332506
0.0282903
0.0236844
0.0194577
0.0154911
0.0113405
0.00501401
0.0431915
0.0368157
0.0309034
0.0255201
0.0206838
0.016264
0.0117889
0.00511527
0.0465551
0.0394593
0.0328548
0.0268646
0.0215419
0.0167683
0.0120527
0.0051594
0.0476289
0.040262
0.0333939
0.0271794
0.021683
0.0167951
0.0120221
0.00511263
0.0461018
0.0389286
0.0322743
0.0262801
0.0209916
0.016283
0.0116687
0.00496715
0.042328
0.0357988
0.0298043
0.0244185
0.0196485
0.0153549
0.0110694
0.00475448
0.0371227
0.0317736
0.0267445
0.022161
0.01804
0.0142508
0.0103582
0.00451774
0.0404464
0.0347998
0.0295127
0.024684
0.0203038
0.0162053
0.0118961
0.00528184
0.0456491
0.0386239
0.0322531
0.0265779
0.0215538
0.0169913
0.012354
0.00539073
0.0493699
0.0414822
0.0343072
0.027962
0.0224272
0.017502
0.0126233
0.00544094
0.0505363
0.0423255
0.0348502
0.0282626
0.0225552
0.0175223
0.0125905
0.00539598
0.0487642
0.0408007
0.0336019
0.0272861
0.0218191
0.0169863
0.0122246
0.00524577
0.0444952
0.0373374
0.0309381
0.0253247
0.0204262
0.0160305
0.0116097
0.00502477
0.038747
0.0329955
0.0277155
0.0229906
0.01878
0.014904
0.0108836
0.00477865
0.041945
0.0358922
0.030376
0.0254381
0.0209865
0.0168091
0.0123807
0.00553056
0.0476014
0.0399326
0.0331958
0.0273518
0.0222468
0.0176055
0.0128492
0.00564954
0.0516737
0.0429948
0.035327
0.028754
0.0231223
0.0181215
0.0131258
0.00570824
0.0529287
0.0438696
0.0358648
0.0290387
0.0232361
0.0181354
0.0130928
0.00566623
0.0508615
0.0421279
0.0344935
0.0280003
0.022468
0.0175814
0.0127173
0.00551165
0.0460476
0.0383434
0.0316809
0.0259784
0.0210484
0.0166096
0.0120914
0.00528139
0.0398048
0.0337702
0.0283748
0.0236182
0.0193917
0.0154733
0.0113557
0.00502671
0.0426896
0.0364783
0.0309359
0.026002
0.021535
0.0173055
0.0127795
0.00574572
0.0486281
0.040601
0.0337626
0.0279146
0.0227997
0.0181114
0.0132587
0.00587541
0.0531152
0.0438143
0.0359237
0.0293151
0.023675
0.0186322
0.0135423
0.00594184
0.0544572
0.0447055
0.0364443
0.0295797
0.0237782
0.0186431
0.0135106
0.00590296
0.052014
0.0427565
0.0349788
0.0284983
0.0229896
0.0180796
0.0131316
0.00574679
0.0466667
0.0387555
0.0320975
0.0264557
0.0215599
0.0171004
0.0125005
0.00551179
0.0401943
0.034136
0.0288019
0.0241097
0.0199068
0.0159603
0.0117586
0.00524971
0.0427753
0.0367034
0.0312741
0.0263973
0.0219316
0.0176592
0.0130538
0.00589595
0.0486342
0.0407315
0.034037
0.0282792
0.0231878
0.0184682
0.0135401
0.00603292
0.0532813
0.043924
0.0361493
0.0296466
0.0240484
0.0189857
0.0138251
0.00610251
0.0547175
0.0447939
0.036634
0.0298864
0.0241402
0.0189943
0.0137956
0.00606638
0.0518669
0.0427217
0.0351309
0.0287932
0.0233494
0.0184337
0.0134222
0.00591404
0.0463793
0.0387223
0.0322797
0.0267734
0.0219326
0.0174624
0.0127978
0.00568239
0.0400737
0.0342326
0.0290649
0.0244694
0.0202972
0.016328
0.012057
0.00541832
0.0423465
0.0365983
0.0313569
0.0265678
0.0221277
0.0178436
0.0131988
0.00598026
0.0477817
0.040362
0.0339765
0.0283798
0.0233545
0.0186446
0.013687
0.00612082
0.0520816
0.0432865
0.0359308
0.0296648
0.0241761
0.0191462
0.0139672
0.00619
0.0533532
0.0440345
0.0363416
0.0298669
0.0242529
0.0191525
0.0139409
0.006157
0.0505863
0.0420401
0.034889
0.0288061
0.023486
0.0186117
0.0135843
0.00601419
0.0454114
0.038279
0.0321803
0.0268668
0.0221166
0.0176709
0.0129811
0.00579356
0.0395304
0.0340511
0.0291114
0.0246405
0.0205223
0.016558
0.0122515
0.00553375
0.0416652
0.0362427
0.0312004
0.0265272
0.0221552
0.017908
0.0132716
0.00603534
0.0466137
0.0397061
0.0336516
0.0282511
0.0233419
0.0186969
0.013762
0.00618023
0.0502843
0.0422627
0.0354056
0.0294317
0.0241134
0.0191791
0.0140383
0.0062508
0.0512401
0.0428317
0.0357252
0.0295929
0.0241768
0.0191862
0.0140186
0.00622288
0.0487697
0.0410089
0.0343726
0.0285963
0.0234551
0.0186784
0.0136854
0.0060915
0.0441491
0.0375884
0.0318628
0.0267762
0.0221599
0.0177842
0.0131106
0.00588337
0.0387559
0.0336614
0.0289715
0.0246545
0.0206264
0.0167053
0.0123988
0.00563011
0.0409621
0.0358025
0.0309446
0.026404
0.0221277
0.0179437
0.0133368
0.00609322
0.0455003
0.0390229
0.0332563
0.0280559
0.0232858
0.0187299
0.0138361
0.00624626
0.0486737
0.0412916
0.0348485
0.0291523
0.0240216
0.0192045
0.0141182
0.00632396
0.0493714
0.0417215
0.035101
0.0292881
0.024083
0.019221
0.0141113
0.00630408
0.0471507
0.0400513
0.0338499
0.0283635
0.0234128
0.0187491
0.0138014
0.00618266
0.0429989
0.0369248
0.0315285
0.026665
0.022194
0.0179007
0.013252
0.00598334
0.0380352
0.0332668
0.0288079
0.0246494
0.0207231
0.016856
0.012557
0.00573498
0.04043
0.0354533
0.0307464
0.0263246
0.0221312
0.0179955
0.0134055
0.00615182
0.0447123
0.038524
0.0329788
0.0279452
0.0232883
0.0187962
0.0139229
0.00631683
0.0475966
0.0406237
0.0344791
0.0290029
0.0240191
0.0192836
0.0142234
0.00640737
0.048121
0.0409781
0.0347037
0.0291388
0.0240957
0.019321
0.0142363
0.00639848
0.0460523
0.0394165
0.0335381
0.0282796
0.0234728
0.0188819
0.0139477
0.00628547
0.0422245
0.0365067
0.0313658
0.0266786
0.0223136
0.0180677
0.0134164
0.00609131
0.0375917
0.0330627
0.0287824
0.0247457
0.0208889
0.0170469
0.0127327
0.00584527
0.0400607
0.0352541
0.03067
0.0263257
0.0221696
0.0180418
0.0134416
0.00618397
0.0441517
0.0382383
0.0328772
0.0279559
0.0233524
0.0188718
0.0139841
0.00636308
0.0468461
0.0402456
0.0343463
0.0290199
0.0241084
0.0193901
0.0143124
0.00646909
0.0473207
0.0405838
0.0345835
0.0291837
0.0242181
0.0194593
0.0143512
0.00647318
0.0453853
0.0391278
0.0334997
0.0283844
0.023638
0.0190506
0.0140834
0.00636905
0.0418275
0.0363978
0.0314416
0.0268517
0.0225182
0.0182592
0.0135656
0.00617971
0.0374739
0.0331206
0.028951
0.0249668
0.0211167
0.0172496
0.0128878
0.00593491
0.0398856
0.0352134
0.0306972
0.0263687
0.0221961
0.0180384
0.01341
0.00616831
0.0438333
0.0381575
0.0329206
0.0280379
0.0234214
0.0189056
0.0139805
0.00636174
0.046381
0.0401221
0.0344049
0.0291424
0.0242231
0.0194644
0.0143395
0.00648202
0.0468451
0.0404899
0.0346892
0.029357
0.0243796
0.0195727
0.0144075
0.00649973
0.0451076
0.0391659
0.0336922
0.0286157
0.0238403
0.0191942
0.0141618
0.00640609
0.0418197
0.0365928
0.0317184
0.027127
0.0227451
0.0184193
0.0136565
0.00622383
0.0376877
0.033424
0.0292729
0.0252572
0.0213481
0.0174122
0.0129819
0.00598092
0.0398892
0.0352886
0.0307676
0.0263936
0.022167
0.0179653
0.0133123
0.00611221
0.0437474
0.0382454
0.0330437
0.0281207
0.0234414
0.01887
0.0139095
0.00631802
0.0462168
0.0402263
0.034586
0.0292903
0.024299
0.0194714
0.0142973
0.00644974
0.0467306
0.0406668
0.0349462
0.0295728
0.0245106
0.0196213
0.0143941
0.00647998
0.0452297
0.0394814
0.0340328
0.0288863
0.0240119
0.0192737
0.0141709
0.00639749
0.0421775
0.0370237
0.0321103
0.0274225
0.022933
0.0185139
0.0136799
0.00622459
0.0381718
0.0338917
0.029663
0.0255424
0.0215296
0.0175062
0.0130083
0.00598539
0.0401527
0.0354717
0.0308468
0.0263765
0.0220844
0.0178508
0.013194
0.00605548
0.0440966
0.0385315
0.0332177
0.0281764
0.0234092
0.01879
0.0138144
0.0062699
0.0466432
0.0406148
0.0348623
0.0294295
0.0243269
0.0194316
0.0142267
0.00640951
0.0472828
0.0411732
0.0353236
0.0297926
0.0245962
0.0196208
0.0143484
0.00644972
0.0459244
0.0400868
0.0344784
0.0291558
0.0241334
0.0193008
0.0141448
0.00637708
0.0429607
0.0376602
0.0325619
0.0276954
0.0230672
0.0185566
0.0136682
0.00621355
0.0389102
0.0344696
0.0300654
0.0257864
0.0216533
0.0175495
0.0130017
0.00598054
0.0406927
0.0357527
0.0309267
0.0263288
0.0219801
0.0177408
0.0131054
0.00602975
0.0449128
0.0390241
0.03344
0.0282152
0.0233556
0.0187111
0.0137454
0.00625381
0.0476794
0.0413063
0.0352346
0.0295677
0.0243343
0.0193895
0.0141791
0.00640295
0.0485125
0.0420212
0.0358143
0.030012
0.0246566
0.0196127
0.0143209
0.00645167
0.0472393
0.040988
0.0350068
0.0294085
0.0242239
0.0193149
0.0141313
0.00638457
0.044201
0.0384915
0.0330485
0.0279348
0.0231604
0.0185804
0.0136646
0.00622456
0.0399056
0.0351323
0.0304551
0.0259827
0.0217352
0.0175758
0.0130047
0.00599485
0.0332259
0.0284025
0.0238584
0.0197303
0.0160403
0.0126658
0.00921249
0.00401829
0.0378958
0.0319674
0.0265253
0.0216797
0.0174358
0.0136451
0.00986735
0.00424401
0.041386
0.0347936
0.0286956
0.0232783
0.0185809
0.0144476
0.0104028
0.00444003
0.0429173
0.0360423
0.0296884
0.0240422
0.0191578
0.0148762
0.0107068
0.0045703
0.0419371
0.0352968
0.0291791
0.0237432
0.0190154
0.0148358
0.0107201
0.00460917
0.0387928
0.032855
0.0274119
0.0225475
0.0182539
0.014378
0.0104665
0.00456051
0.0344111
0.0296174
0.0250845
0.0209322
0.0171723
0.0136769
0.0100345
0.00445153
0.0348951
0.0298221
0.0251011
0.0208403
0.017029
0.0135169
0.00987546
0.00432251
0.0397981
0.0335345
0.0278619
0.0228567
0.0184784
0.014541
0.0105646
0.00456308
0.0434037
0.0364538
0.0300937
0.0245002
0.0196612
0.0153756
0.0111239
0.00477123
0.0448769
0.0377047
0.0310991
0.0252804
0.020256
0.0158212
0.0114413
0.00490974
0.043843
0.03692
0.0305785
0.0249827
0.0201169
0.0157836
0.0114559
0.00494839
0.0405863
0.0344083
0.0287822
0.0237744
0.0193457
0.0153152
0.0111927
0.00489381
0.0360524
0.0310785
0.0264031
0.022125
0.0182353
0.0145879
0.0107396
0.0047735
0.0365438
0.0311675
0.02625
0.0218559
0.017933
0.0142983
0.0104874
0.00460831
0.041804
0.0350753
0.0291209
0.0239418
0.0194333
0.015362
0.0112054
0.00486209
0.0457328
0.0381823
0.0314581
0.0256492
0.0206591
0.0162291
0.0117873
0.00508206
0.0473521
0.039525
0.0325214
0.0264698
0.0212849
0.0166986
0.0121203
0.00522672
0.0461819
0.0386961
0.0319987
0.0261786
0.021155
0.016666
0.012137
0.00526448
0.0426684
0.0360618
0.0301532
0.0249511
0.0203722
0.0161873
0.011865
0.00520433
0.0378544
0.0325898
0.027703
0.0232623
0.019232
0.0154352
0.0113931
0.00507444
0.03788
0.0322392
0.0271767
0.0227009
0.0187101
0.0149879
0.0110381
0.00487535
0.0434999
0.0363227
0.0301332
0.0248363
0.0202472
0.0160816
0.011778
0.0051403
0.0478051
0.0396318
0.0325751
0.0266024
0.0215123
0.0169763
0.0123787
0.00536877
0.0496472
0.0411064
0.0337193
0.0274739
0.0221697
0.0174676
0.0127257
0.00551849
0.0483759
0.0402602
0.0332079
0.0272002
0.0220514
0.0174414
0.0127449
0.00555557
0.0445932
0.0375122
0.0313241
0.0259601
0.0212618
0.0169552
0.0124659
0.00548997
0.0394808
0.0339068
0.0288178
0.0242415
0.0200994
0.0161832
0.011978
0.0053509
0.0386768
0.0329096
0.027827
0.0233616
0.0193633
0.0155904
0.0115297
0.00512557
0.0445585
0.037081
0.0308079
0.0255107
0.0209183
0.0167041
0.0122862
0.00540008
0.0492143
0.0405477
0.0333114
0.0273059
0.0222066
0.0176195
0.012902
0.0056369
0.0512898
0.0421573
0.0345266
0.0282166
0.0228908
0.0181284
0.01326
0.00579074
0.049987
0.0413263
0.0340438
0.0279678
0.0227875
0.0181091
0.013282
0.00582743
0.0459883
0.0385079
0.032154
0.0267359
0.0219987
0.0176181
0.0129968
0.00575602
0.0406297
0.0348268
0.0296334
0.025012
0.0208237
0.0168298
0.0124945
0.00560734
0.0389154
0.0332508
0.0282898
0.0239066
0.0199269
0.0161126
0.0119526
0.00534929
0.0448086
0.0373719
0.0312347
0.0260473
0.0214912
0.0172412
0.0127219
0.00563135
0.0496925
0.0408857
0.0337392
0.0278461
0.0227904
0.0181697
0.0133477
0.00587295
0.0519958
0.0425927
0.0349967
0.028781
0.0234906
0.0186891
0.0137112
0.00602812
0.0507174
0.0418117
0.0345593
0.0285602
0.0234011
0.0186753
0.0137347
0.00606385
0.0465753
0.0389985
0.0327015
0.0273464
0.0226154
0.0181794
0.0134431
0.00598712
0.0411558
0.0353486
0.0302117
0.0256291
0.0214308
0.0173758
0.0129272
0.00582929
0.0388078
0.0334224
0.0286469
0.0243537
0.0203862
0.0165279
0.0122788
0.00552195
0.044427
0.0373857
0.0315211
0.0264748
0.0219538
0.0176662
0.0130559
0.00580734
0.0492066
0.040802
0.0339714
0.0282552
0.0232524
0.0185982
0.0136827
0.00604699
0.0515685
0.042518
0.0352298
0.0291934
0.0239565
0.019119
0.0140439
0.00619848
0.0504098
0.0418253
0.0348441
0.0289977
0.0238769
0.019107
0.0140658
0.00623171
0.0464028
0.0391353
0.0330618
0.0278164
0.023098
0.0186073
0.0137687
0.00615164
0.0412095
0.0356263
0.0306368
0.0261155
0.0219065
0.0177896
0.0132401
0.00598687
0.0384553
0.0334324
0.0288599
0.0246555
0.0207053
0.0168201
0.0125091
0.00564513
0.0436345
0.0371752
0.0316396
0.0267434
0.0222643
0.0179571
0.0132854
0.00592822
0.0480207
0.0403665
0.0339858
0.0284817
0.0235455
0.0188787
0.0139021
0.00615904
0.0502551
0.041996
0.0352015
0.0294011
0.0242388
0.0193896
0.0142528
0.00630217
0.049279
0.0414154
0.0348716
0.0292298
0.0241658
0.0193755
0.0142694
0.00633121
0.0456834
0.0389729
0.0332097
0.0280948
0.0233998
0.0188754
0.0139687
0.00624951
0.0409351
0.0356942
0.0308828
0.0264242
0.0222089
0.0180481
0.0134295
0.00608028
0.0380162
0.0333186
0.0289333
0.024824
0.0209137
0.0170321
0.0126913
0.0057494
0.0427919
0.0368581
0.0316168
0.0268669
0.0224505
0.0181569
0.0134594
0.00602671
0.0467141
0.0398109
0.0338484
0.0285484
0.0236993
0.0190562
0.0140591
0.00624645
0.0487214
0.0413217
0.0350056
0.0294352
0.0243697
0.0195481
0.0143937
0.00637961
0.0479526
0.0408512
0.0347273
0.0292822
0.0242981
0.0195275
0.0144014
0.00640274
0.0448617
0.0386682
0.0331835
0.0281956
0.0235472
0.0190279
0.0140962
0.00631834
0.0405496
0.0356083
0.0309522
0.0265584
0.0223606
0.0181927
0.0135469
0.00614486
0.0376709
0.033215
0.0289827
0.0249645
0.0211023
0.0172349
0.0128736
0.00585798
0.0421591
0.0366053
0.031586
0.0269627
0.0226134
0.018344
0.0136312
0.00612942
0.0457544
0.0393891
0.0337249
0.0285887
0.0238264
0.0192192
0.0142145
0.00634081
0.0475884
0.0408143
0.0348331
0.0294411
0.0244696
0.0196891
0.0145324
0.00646539
0.0469782
0.0404208
0.0345861
0.0292945
0.0243911
0.0196557
0.0145267
0.00648075
0.0442471
0.0384114
0.0331211
0.0282378
0.0236446
0.0191485
0.0142105
0.00638936
0.0402311
0.03549
0.0309474
0.026616
0.0224522
0.018299
0.0136467
0.00620872
0.0375765
0.0332704
0.0291391
0.0251794
0.021338
0.0174605
0.0130604
0.0059664
0.0419025
0.0365697
0.0316885
0.0271478
0.0228329
0.0185596
0.0138105
0.0062341
0.045351
0.0392654
0.0337677
0.0287334
0.0240195
0.0194174
0.0143822
0.00644088
0.0471261
0.040654
0.0348424
0.0295553
0.0246367
0.0198661
0.0146843
0.00655841
0.046615
0.0402969
0.0346021
0.0293984
0.0245387
0.0198109
0.0146593
0.00656371
0.0440332
0.0383521
0.0331603
0.028338
0.0237737
0.0192798
0.0143212
0.00645977
0.0401204
0.0354676
0.0309864
0.0266958
0.0225528
0.0184021
0.0137352
0.00626775
0.037759
0.0335481
0.0294599
0.0254976
0.0216197
0.0176855
0.0132171
0.00604937
0.0419541
0.0367825
0.0319857
0.0274616
0.0231156
0.018784
0.0139632
0.00631472
0.0452899
0.0394083
0.0340234
0.0290247
0.0242891
0.0196319
0.0145265
0.00651763
0.0470347
0.0407621
0.035064
0.0298162
0.0248804
0.020059
0.0148117
0.0066274
0.0465517
0.0404062
0.0348029
0.0296264
0.0247466
0.0199709
0.014761
0.00662031
0.0440376
0.0384719
0.0333356
0.0285239
0.0239358
0.0193989
0.0143913
0.00650057
0.0401576
0.0355626
0.0311118
0.0268249
0.0226629
0.0184797
0.013777
0.00629486
0.0382355
0.034048
0.0299186
0.0258741
0.0218959
0.0178623
0.0133059
0.00608517
0.0423291
0.0372616
0.0324602
0.0278612
0.0234079
0.018966
0.014049
0.00634727
0.0455254
0.039823
0.0344756
0.029419
0.0245779
0.0198065
0.0146016
0.00654298
0.0471675
0.0411077
0.0354678
0.0301748
0.02514
0.0202084
0.014866
0.00664214
0.0466925
0.0407136
0.0351501
0.0299259
0.0249533
0.0200777
0.0147848
0.00662126
0.0442095
0.0387411
0.0336123
0.0287466
0.0240752
0.0194539
0.0143801
0.00648652
0.040327
0.0357684
0.0313023
0.0269645
0.0227356
0.0184877
0.0137364
0.00626816
0.0389585
0.0346984
0.0304355
0.0262348
0.022111
0.01796
0.0133191
0.00607703
0.0430197
0.037951
0.0330338
0.0282664
0.0236456
0.0190677
0.0140557
0.00633268
0.0460729
0.0404673
0.0350488
0.0298315
0.0248144
0.0198967
0.0145913
0.0065163
0.0475337
0.0416476
0.0359792
0.0305446
0.0253414
0.0202681
0.0148306
0.00660217
0.046975
0.0411572
0.0355657
0.0302123
0.0250895
0.0200901
0.0147182
0.0065679
0.0444917
0.0391025
0.0339173
0.028931
0.0241334
0.0194136
0.0142822
0.00642232
0.040593
0.0360328
0.0314932
0.0270519
0.0227251
0.0184044
0.0136149
0.00619599
0.0399377
0.0354535
0.0309515
0.0265355
0.0222482
0.0179899
0.0132884
0.00605809
0.0441396
0.0388437
0.0336535
0.0286262
0.0238035
0.0190948
0.014012
0.00630243
0.0471818
0.041397
0.0357071
0.0302107
0.02497
0.0199071
0.0145257
0.00647256
0.0485144
0.0424984
0.0365852
0.0308805
0.0254588
0.0202453
0.0147393
0.00654554
0.047797
0.0418571
0.0360434
0.0304499
0.0251375
0.0200213
0.0145991
0.00649987
0.0451571
0.0396236
0.0342341
0.0290483
0.0241035
0.0192999
0.0141401
0.00634806
0.0410772
0.036367
0.0316564
0.0270643
0.0226329
0.0182583
0.0134592
0.00612032
0.041197
0.0362854
0.0314259
0.0267512
0.0223081
0.0179752
0.01325
0.00605241
0.0457809
0.0399377
0.0342792
0.0289071
0.0238752
0.0190668
0.0139543
0.0062878
0.0490333
0.0426429
0.036424
0.030527
0.0250397
0.0198606
0.0144473
0.00644959
0.0503228
0.0437149
0.0372716
0.0311649
0.0254964
0.0201704
0.0146389
0.00651371
0.0493414
0.042863
0.0365758
0.0306314
0.0251117
0.0199093
0.0144777
0.00645893
0.0463275
0.0403295
0.0345554
0.0290995
0.0240067
0.0191529
0.0140038
0.0063009
0.0418255
0.0367658
0.0317806
0.0270057
0.0224847
0.0180919
0.0133188
0.00607138
0.0343146
0.0295646
0.0250694
0.0209447
0.0172005
0.0137095
0.0100634
0.00446673
0.0386242
0.0328247
0.0275132
0.0227312
0.0184648
0.0145739
0.0106235
0.00464238
0.0416055
0.0352292
0.0293693
0.0240974
0.0194232
0.0152141
0.0110226
0.00476637
0.0425769
0.0360587
0.0300502
0.024621
0.0197965
0.0154589
0.0111671
0.00480608
0.0412621
0.0350991
0.0293732
0.0241593
0.0194855
0.0152478
0.0110249
0.00475056
0.0382341
0.0327379
0.0276057
0.0228839
0.0185921
0.0146382
0.0106276
0.00461487
0.0341438
0.0296485
0.0252872
0.0211767
0.0173663
0.0137825
0.0100588
0.00442871
0.0359923
0.0310623
0.0264194
0.0221619
0.0182808
0.014631
0.0107737
0.0047868
0.0405167
0.0344977
0.0289952
0.0240467
0.0196193
0.0155514
0.0113729
0.00497866
0.0436483
0.0370486
0.0309651
0.0254957
0.020637
0.0162335
0.0117991
0.00511544
0.0447325
0.0379809
0.0317241
0.0260724
0.0210434
0.0164981
0.011955
0.00515995
0.0435307
0.0370761
0.0310725
0.0256165
0.0207259
0.0162752
0.0118016
0.00509894
0.0404576
0.0346485
0.0292408
0.0242819
0.0197801
0.015622
0.0113728
0.00494924
0.0361542
0.0313848
0.0267838
0.0224658
0.0184696
0.0147014
0.010758
0.00474459
0.0378399
0.0326152
0.0277536
0.0233256
0.0192933
0.0154868
0.0114308
0.00508677
0.0427609
0.0363168
0.0305043
0.0253253
0.0207091
0.0164608
0.0120656
0.00529367
0.0462387
0.0391213
0.0326444
0.0268841
0.0217968
0.0171877
0.0125197
0.00544207
0.047509
0.0402036
0.0335075
0.0275258
0.0222416
0.0174734
0.0126872
0.00549175
0.0463181
0.039298
0.0328493
0.0270568
0.021907
0.017233
0.0125194
0.00542497
0.0430171
0.0367004
0.030894
0.0256319
0.0208945
0.0165307
0.0120566
0.00526086
0.0383348
0.033171
0.0282522
0.0236875
0.0194934
0.0155462
0.0113984
0.0050382
0.0395201
0.0339757
0.0288998
0.0243255
0.020174
0.0162416
0.0120179
0.00536211
0.0449129
0.0379667
0.0318199
0.0264253
0.021654
0.0172597
0.0126815
0.00558226
0.0488482
0.0410776
0.0341468
0.0280921
0.0228054
0.0180265
0.0131603
0.00574142
0.0503662
0.0423445
0.0351257
0.028798
0.0232836
0.0183313
0.0133389
0.00579673
0.049129
0.0414079
0.0344424
0.0283051
0.0229263
0.0180709
0.0131563
0.00572461
0.0455079
0.0385825
0.0323358
0.0267813
0.0218456
0.0173195
0.0126605
0.0055474
0.0403584
0.0347493
0.0295045
0.0247174
0.0203642
0.0162777
0.0119641
0.00530829
0.0407231
0.0349355
0.0297429
0.0251092
0.0209031
0.0168892
0.0125329
0.00561562
0.0465606
0.0391573
0.0327702
0.0272658
0.0224218
0.0179382
0.0132196
0.00584855
0.0509899
0.0425702
0.0352527
0.0290101
0.0236162
0.0187344
0.0137188
0.00601963
0.0527893
0.0440321
0.0363369
0.0297664
0.0241187
0.0190531
0.0139064
0.00608101
0.051506
0.0430529
0.0356225
0.0292486
0.0237394
0.0187741
0.0137107
0.00600441
0.047524
0.0399831
0.0333769
0.0276434
0.0226034
0.0179809
0.0131854
0.00581287
0.0418885
0.0358783
0.0304028
0.0254963
0.0210638
0.0168937
0.0124562
0.00555757
0.0412911
0.0354838
0.0303333
0.0257313
0.0215112
0.0174337
0.0129626
0.00583466
0.0473457
0.0397738
0.0333825
0.027906
0.0230533
0.018506
0.0136675
0.00607893
0.0522719