/*--------------------------------*- C++ -*----------------------------------*\
| =========                 |                                                 |
| \\      /  F ield         | OpenFOAM: The Open Source CFD Toolbox           |
|  \\    /   O peration     | Version:  plus.master.MPPICInterFoam            |
|   \\  /    A nd           | Web:      www.OpenFOAM.com                      |
|    \\/     M anipulation  |                                                 |
\*---------------------------------------------------------------------------*/
FoamFile
{
    version     2.0;
    format      ascii;
    class       volScalarField;
    location    "5.4";
    object      p_rgh;
}
// * * * * * * * * * * * * * * * * * * * * * * * * * * * * * * * * * * * * * //

dimensions      [1 -1 -2 0 0 0 0];

internalField   nonuniform List<scalar> 
11821
(
5671.72
5611.35
5674.32
5674.73
5674.44
5672.3
5671.71
5671.48
5666.65
5658.14
5671.22
5669.91
5671.41
5672.04
5477.98
5170.07
5109.6
4984.03
5602.36
5671.68
5667.99
5208.06
4115.31
4248.49
4885.06
5356.83
5672.06
5661.54
4749.37
4683.12
4091.71
5097.97
5164.84
5672.08
5671.43
5122.9
4733.48
4737.52
4711.62
5438.97
5671.69
5671.42
5612.51
5396.31
5237.17
5448.78
5627.16
5671.38
5671.13
5671.57
5671.85
5671.95
5671.63
5671.37
5670.92
5669.73
5668.59
5652.8
5641.61
5662.01
5665.32
5669
5669.62
5443.57
5032.06
4943.24
4864.22
5577.83
5667.75
5657.29
5054.97
3784.6
3900.43
4450.15
5211.69
5665.53
5634.47
4691.29
4723.89
4737.73
4417.12
4792.44
5664.61
5669.17
4997.39
3982.79
3982.03
4068.75
5302.62
5663.76
5669.25
5587.75
5272.92
4990.46
5299.52
5600.9
5667.75
5669.27
5669.03
5668.52
5667.96
5667.91
5668.35
5668.66
5669.95
5663.37
5615.84
5594.12
5627.83
5658.83
5669.87
5670.19
5402.94
4846.32
4646.91
4841.95
5544.37
5662.61
5636.66
4864.43
3678.75
3675.99
3723.31
5080.66
5645.21
5600.72
4657.72
4717.49
4723.99
3740.41
4542.37
5626.53
5662.65
4889.85
3807.69
3812.05
3785.69
5116.1
5640.88
5670.4
5547.02
5091.3
4701.08
5084.95
5553.49
5666.05
5670.03
5670.32
5665.49
5652.91
5665.39
5670.29
5669.93
5671.86
5651.04
5560.22
5512.36
5565.2
5642.47
5672.06
5672.78
5368.9
4839.12
4661.81
4993.54
5489.06
5646.49
5627.45
4879.98
3633.21
3630.06
3725.77
5135.22
5588.12
5588.43
4666.99
3413.13
4703.8
3720.56
4632.89
5545.94
5653.88
4907.93
3758.24
3764.83
3825.49
5069.37
5590.18
5672.55
5500.6
5047.23
4733.78
5063.8
5476.72
5660.21
5671.75
5672.63
5653.7
5619.8
5655.77
5673.15
5672.13
5669.57
5607.49
5427.54
5297.79
5387.7
5589.52
5667.53
5667.92
5186.01
4753.81
4735.69
4982.67
5078.03
5590.92
5600.06
4839.46
3648.91
3591.68
4225.63
5109.68
5390.16
5554.86
4582.89
2893.04
4593.8
3855.04
4763.02
5334.93
5626.41
4840.16
3732.92
3807.1
4034.61
4896.57
5457.1
5669.62
5350.41
4924.87
4692.91
4970.4
5220.04
5632.2
5669.76
5669.58
5619.85
5559.15
5619.26
5669.02
5669.28
5663.32
5497.87
5105.07
4834.22
4994.1
5444.07
5654.96
5625.71
4619.39
4107.61
4415.18
4116.5
4141.18
5438.98
5482.95
4362.33
3474.99
3496.41
4167.83
4223.04
4975.72
5400.22
4096.88
2784.18
3374.82
3828.16
4396.77
4857.31
5526.76
4323.08
3498.27
3549.05
3656.5
4041.89
5147.24
5652.68
4950.28
4332.99
4217.31
4363.07
4633.15
5555.13
5665.8
5653.17
5528.14
5424.34
5506.56
5649.73
5664.56
5668.46
5427.16
4876.05
4600.33
4751.59
5338.71
5655.31
5595.13
4212.92
3131.56
3313.89
3035.89
3699.47
5326.87
5380.72
3543.93
2837.64
2980.11
2990.99
3034.12
4710.79
5247.34
3263.72
2717.81
2685.62
3059.8
3207.39
4535.07
5446.84
3625.02
2837.71
2825.72
2763.98
3020.68
4910.28
5643.59
4692.48
3647.94
3461.04
3502.55
4257.92
5506.92
5672.75
5644.93
5472.64
5351.43
5416.07
5630.5
5672.45
5687.01
5485.81
5005.22
4757.27
4926.38
5421.42
5676.95
5635.32
4428
3163.94
2931.99
3143.62
3972.25
5407.7
5460.23
3611.07
2689.34
2693.55
2720.56
3026.58
4870.07
5333.76
3282.32
2687.93
2657.2
2693.31
2752.29
4654.59
5517.73
3750.73
2688.38
2692.51
2710.5
3052.22
5038.41
5669.09
4874.32
3787.99
3512.66
3573.36
4473.39
5562.2
5689.58
5670.23
5545.72
5452.49
5495.47
5662.81
5690.26
5701.08
5599.72
5359.28
5226.31
5313.2
5581.22
5697.47
5686.52
5078.61
3993.14
3418.22
4069.93
4734.55
5589.49
5624.61
4441.88
2949.24
2641.89
2956.25
3746.56
5317.38
5564.36
4107.26
2711.19
2641.12
2644.34
3140.31
5159.44
5652.56
4599.2
3121.58
2719.66
2792.46
3826.85
5429.29
5695.6
5351.62
4640.4
4332.82
4401.22
5142.93
5661.38
5702.06
5696.58
5668.05
5645.56
5654.65
5698.04
5702.78
5705.81
5641.53
5476.47
5431.26
5383.72
5645.58
5705.99
5705.11
5295.87
4746.89
4243.22
4543.23
4965.93
5690.91
5661.25
5036.02
3713.31
2687.65
3681.76
4372.91
5540.46
5630.19
4880.48
3325.97
2569.25
3148.73
3950.54
5512.97
5692.47
5095.41
4082.36
3284.56
3497.27
4642.93
5631.35
5705.68
5550.81
5196.85
5138.75
5073.96
5487.05
5703.44
5705.62
5706.06
5706.01
5705.84
5705.47
5706.75
5706.06
5704.02
5622.26
5388.91
5353.93
5259.66
5629.36
5704.37
5699.07
5104.27
4511.4
4032.93
4047.66
4772.69
5693.74
5616.97
4832.57
3634.71
3792.11
3366.08
4121
5513.54
5579.95
4735.46
3557.57
2776.5
3861.17
3886.06
5507.46
5673.7
4877.45
4020.39
3579.6
3618.9
4532.13
5626.34
5703.18
5512.5
5072.43
5098.44
4970.92
5454.31
5703.67
5704.29
5703.73
5703.37
5703.46
5703.41
5703.88
5704.56
5704.96
5562.12
5105.21
5033.38
4950.18
5573.77
5705.63
5680.1
4583.6
3495.69
3119.76
3095.79
4340.58
5680.59
5456.64
3966.3
3040.07
4017.85
2974.96
3349.52
5394.37
5394.36
3866.27
3094.84
4033.94
3205.03
3322.55
5388.71
5601.7
4123.74
3311.95
3204.89
3177.14
3967.61
5575.68
5700.46
5388.42
4528.85
4633.6
4456.33
5333.65
5703.26
5705.42
5704.47
5701.13
5697.82
5699.07
5704.93
5705.93
5712.05
5535.94
4933.42
4741.59
4855.17
5552.21
5712.6
5670.34
4309.31
2953.11
2940.93
2929.57
4261.46
5681.85
5332.22
3307.33
2944.23
3938.67
2927.77
3050.48
5339.3
5259.66
2959.95
2934.95
4046.04
2930.21
2968.9
5315.97
5561.28
3676.67
2933
2934.4
2929.54
3673.7
5555.06
5702.07
5339.7
4120.8
4077.67
4088.24
5292.04
5710.01
5712.07
5711.95
5701.55
5693.3
5698.38
5712.29
5712.44
5721.58
5575.69
5069.09
4867.14
5066.31
5591.55
5721.93
5686.81
4520.02
2956.55
2908.98
3016.38
4656.35
5705
5390.38
3557.3
2917.19
3094.57
2884.92
3429.31
5453.08
5356.62
3124.81
2893.78
4028.43
2885.19
3286.8
5428.48
5616.33
3938.72
2889.36
2887.8
2885.62
4014.72
5614.22
5705.7
5448.56
4293.48
4165.28
4290.33
5422.33
5719.61
5720.62
5721.4
5718.78
5711.29
5717.54
5721.45
5720.85
5728.79
5667.13
5469.91
5350.63
5491.97
5671.47
5728.95
5708.47
5176.24
3869.57
3541.85
4103.2
5422.26
5726.52
5573.28
4596.33
3826.55
2849.27
2840.72
4615.94
5647.84
5620.99
4282.05
2975.4
3963.66
2842.29
4421.36
5655.54
5712.94
4960.68
3062.95
2864.22
3025.61
5061.06
5696.03
5711.52
5674.5
5077.91
4843.04
5107.15
5671.77
5727.43
5727.58
5728.81
5730
5729.9
5730.11
5728.73
5727.76
5731.08
5727.53
5712.02
5673.14
5679.53
5727.25
5730.87
5724.27
5584.01
5238.53
5034.84
5333.05
5696.91
5732.32
5701.28
5383.57
4630.82
3161.14
3336.96
5469.26
5712.05
5732.11
5483.03
3791.82
2684.22
2862.09
5448.01
5731.9
5726.95
5666.63
4395.43
3580.35
4256.51
5685.2
5714.52
5714.88
5734.29
5681.27
5587.28
5685.05
5734.26
5731.87
5730.82
5732.05
5733.17
5733.62
5733.32
5732.05
5730.79
5664.51
5664.38
5668.54
5666.79
5665.59
5664.83
5664.4
5664.26
5674.04
5670.96
5668.53
5666.78
5665.54
5664.72
5664.27
5664.12
5673.07
5670.27
5668.08
5666.46
5665.3
5664.53
5664.11
5663.96
5671.56
5669.2
5667.36
5665.97
5664.97
5664.31
5663.95
5663.83
5670.07
5668.39
5666.89
5665.67
5664.78
5664.19
5663.87
5663.76
5670.88
5670.05
5669.23
5668.51
5667.94
5667.55
5667.33
5667.24
5671.2
5670.24
5669.31
5668.54
5667.94
5667.52
5667.27
5667.17
5671.45
5670.47
5669.43
5668.59
5667.94
5667.46
5667.18
5667.07
5671.39
5670.42
5669.44
5668.57
5667.87
5667.37
5667.07
5666.95
5671.07
5670.14
5669.21
5668.38
5667.7
5667.22
5666.94
5666.83
5670.68
5669.78
5668.88
5668.11
5667.51
5667.08
5666.82
5666.72
5670.29
5669.49
5668.66
5667.94
5667.39
5667
5666.77
5666.67
5669.22
5669.08
5668.88
5668.68
5668.53
5668.42
5668.35
5668.33
5669.04
5669.02
5668.88
5668.7
5668.52
5668.39
5668.31
5668.28
5668.81
5668.93
5668.84
5668.67
5668.48
5668.33
5668.25
5668.22
5668.6
5668.81
5668.77
5668.6
5668.42
5668.27
5668.18
5668.14
5668.62
5668.78
5668.7
5668.53
5668.35
5668.2
5668.11
5668.08
5668.75
5668.76
5668.62
5668.43
5668.27
5668.14
5668.05
5668.02
5668.86
5668.74
5668.55
5668.37
5668.22
5668.1
5668.03
5667.99
5669.72
5669.56
5669.46
5669.4
5669.36
5669.33
5669.32
5669.31
5670.04
5669.89
5669.73
5669.57
5669.45
5669.36
5669.32
5669.31
5670.24
5670.04
5669.82
5669.63
5669.46
5669.35
5669.29
5669.28
5670.19
5670.01
5669.81
5669.61
5669.44
5669.33
5669.26
5669.25
5670.25
5670
5669.78
5669.58
5669.42
5669.31
5669.24
5669.22
5670.01
5669.82
5669.64
5669.48
5669.36
5669.27
5669.22
5669.2
5669.74
5669.56
5669.43
5669.34
5669.28
5669.23
5669.2
5669.18
5671.37
5670.89
5670.62
5670.5
5670.43
5670.39
5670.36
5670.36
5672.32
5671.65
5671.17
5670.84
5670.61
5670.47
5670.39
5670.39
5673.01
5672.09
5671.43
5670.97
5670.67
5670.48
5670.38
5670.37
5673.02
5672.12
5671.44
5670.98
5670.67
5670.48
5670.37
5670.36
5672.86
5671.99
5671.37
5670.94
5670.66
5670.48
5670.39
5670.37
5672.19
5671.56
5671.11
5670.81
5670.6
5670.47
5670.4
5670.38
5671.45
5671.01
5670.73
5670.58
5670.49
5670.43
5670.39
5670.38
5669.51
5669.8
5670.11
5670.44
5670.74
5670.97
5671.13
5671.27
5669.54
5670.04
5670.38
5670.64
5670.84
5671.01
5671.14
5671.29
5669.53
5670.05
5670.34
5670.57
5670.78
5670.96
5671.1
5671.28
5669.32
5669.95
5670.26
5670.52
5670.75
5670.94
5671.1
5671.31
5669.46
5670
5670.33
5670.59
5670.83
5671.02
5671.17
5671.36
5669.63
5670.1
5670.44
5670.71
5670.94
5671.13
5671.27
5671.41
5669.86
5670.12
5670.39
5670.69
5670.97
5671.19
5671.34
5671.46
5666.25
5668.27
5669.83
5671.06
5672.03
5672.77
5673.29
5673.62
5664.12
5667.2
5669.32
5670.82
5671.9
5672.69
5673.25
5673.62
5662.53
5666.17
5668.64
5670.38
5671.62
5672.53
5673.18
5673.6
5662.08
5665.89
5668.45
5670.26
5671.56
5672.51
5673.19
5673.64
5663.23
5666.6
5668.91
5670.57
5671.79
5672.68
5673.32
5673.74
5665.18
5667.85
5669.74
5671.14
5672.18
5672.95
5673.5
5673.86
5667.33
5669.04
5670.43
5671.57
5672.49
5673.17
5673.66
5673.97
5673.48
5675.11
5676.4
5677.45
5678.29
5678.99
5679.55
5679.92
5672.11
5674.22
5675.86
5677.12
5678.09
5678.86
5679.49
5679.93
5671.29
5673.39
5675.27
5676.71
5677.83
5678.71
5679.42
5679.91
5671.22
5673.19
5675.11
5676.61
5677.78
5678.69
5679.43
5679.94
5671.81
5673.77
5675.51
5676.89
5677.97
5678.83
5679.53
5680.01
5672.77
5674.65
5676.17
5677.37
5678.31
5679.07
5679.68
5680.09
5674.15
5675.62
5676.83
5677.84
5678.65
5679.3
5679.83
5680.18
5689.97
5689.42
5689.03
5688.75
5688.63
5688.68
5688.87
5689.08
5691.01
5689.73
5689.04
5688.68
5688.55
5688.61
5688.83
5689.08
5692.08
5690.11
5689.17
5688.71
5688.54
5688.59
5688.82
5689.1
5692.22
5690.15
5689.17
5688.7
5688.53
5688.57
5688.81
5689.11
5691.5
5689.83
5689.02
5688.63
5688.5
5688.56
5688.8
5689.08
5690.21
5689.26
5688.78
5688.54
5688.48
5688.57
5688.8
5689.05
5689.38
5689.04
5688.81
5688.65
5688.59
5688.66
5688.85
5689.06
5701.92
5700.46
5699.24
5698.26
5697.57
5697.19
5697.09
5697.15
5703.49
5701.1
5699.43
5698.29
5697.57
5697.18
5697.08
5697.16
5705.09
5701.98
5699.96
5698.6
5697.73
5697.26
5697.12
5697.2
5705.6
5702.28
5700.15
5698.7
5697.77
5697.26
5697.12
5697.2
5704.51
5701.65
5699.75
5698.46
5697.62
5697.16
5697.04
5697.12
5702.64
5700.56
5699.09
5698.06
5697.39
5697.03
5696.95
5697.02
5701.2
5699.93
5698.85
5697.97
5697.35
5697.01
5696.92
5696.98
5705.67
5704.74
5703.9
5703.19
5702.68
5702.38
5702.27
5702.29
5706.21
5704.93
5703.93
5703.18
5702.67
5702.37
5702.27
5702.3
5706.92
5705.43
5704.26
5703.39
5702.79
5702.43
5702.3
5702.33
5707.18
5705.64
5704.4
5703.47
5702.82
5702.43
5702.29
5702.32
5706.61
5705.25
5704.13
5703.28
5702.69
5702.34
5702.21
5702.25
5705.77
5704.66
5703.72
5703.01
5702.51
5702.22
5702.13
5702.17
5705.23
5704.41
5703.62
5702.95
5702.47
5702.19
5702.1
5702.13
5705.02
5705.2
5705.27
5705.32
5705.35
5705.41
5705.5
5705.59
5704.6
5704.99
5705.18
5705.28
5705.34
5705.4
5705.5
5705.61
5704.3
5704.88
5705.14
5705.26
5705.33
5705.4
5705.5
5705.62
5704.2
5704.85
5705.12
5705.24
5705.31
5705.37
5705.48
5705.61
5704.3
5704.86
5705.09
5705.2
5705.26
5705.33
5705.44
5705.56
5704.65
5705
5705.13
5705.19
5705.24
5705.31
5705.4
5705.52
5705.08
5705.2
5705.21
5705.21
5705.23
5705.29
5705.39
5705.48
5706.57
5707.21
5707.71
5708.13
5708.48
5708.77
5709
5709.16
5706.13
5707.02
5707.65
5708.11
5708.46
5708.75
5709
5709.18
5705.72
5706.75
5707.47
5707.99
5708.39
5708.7
5708.98
5709.18
5705.49
5706.61
5707.37
5707.92
5708.34
5708.67
5708.95
5709.17
5705.73
5706.74
5707.43
5707.95
5708.34
5708.66
5708.93
5709.14
5706.21
5707.03
5707.6
5708.04
5708.39
5708.68
5708.92
5709.1
5706.77
5707.3
5707.72
5708.09
5708.41
5708.68
5708.91
5709.07
5712.61
5712.84
5713.04
5713.24
5713.44
5713.63
5713.81
5713.96
5712.64
5712.78
5712.97
5713.17
5713.37
5713.57
5713.78
5713.95
5712.64
5712.7
5712.88
5713.09
5713.31
5713.52
5713.75
5713.93
5712.6
5712.64
5712.82
5713.04
5713.27
5713.49
5713.72
5713.92
5712.54
5712.63
5712.82
5713.04
5713.26
5713.47
5713.7
5713.89
5712.42
5712.62
5712.85
5713.08
5713.28
5713.48
5713.68
5713.85
5712.49
5712.72
5712.94
5713.13
5713.31
5713.48
5713.66
5713.81
5720.95
5720.47
5720.01
5719.62
5719.35
5719.2
5719.17
5719.2
5721.27
5720.38
5719.81
5719.42
5719.19
5719.09
5719.09
5719.14
5721.53
5720.45
5719.81
5719.41
5719.16
5719.05
5719.05
5719.12
5721.4
5720.37
5719.75
5719.35
5719.11
5718.99
5719
5719.08
5721.05
5720.16
5719.62
5719.27
5719.05
5718.94
5718.96
5719.03
5720.44
5719.84
5719.44
5719.16
5718.98
5718.9
5718.91
5718.98
5720.12
5719.82
5719.51
5719.22
5719.01
5718.9
5718.89
5718.93
5727.68
5726.66
5725.69
5724.83
5724.16
5723.69
5723.43
5723.31
5728.15
5726.59
5725.44
5724.6
5723.99
5723.58
5723.35
5723.25
5728.63
5726.85
5725.59
5724.68
5724.02
5723.57
5723.32
5723.24
5728.47
5726.81
5725.58
5724.67
5723.99
5723.53
5723.28
5723.19
5727.98
5726.47
5725.35
5724.52
5723.88
5723.45
5723.22
5723.13
5727.14
5725.95
5725.01
5724.28
5723.73
5723.35
5723.15
5723.07
5726.55
5725.77
5725
5724.28
5723.71
5723.32
5723.11
5723.03
5730.04
5729
5728.03
5727.17
5726.46
5725.91
5725.52
5725.3
5730.62
5729.19
5728.06
5727.16
5726.45
5725.9
5725.5
5725.27
5731.28
5729.69
5728.4
5727.38
5726.57
5725.96
5725.52
5725.28
5731.51
5729.87
5728.53
5727.45
5726.6
5725.95
5725.5
5725.25
5731.12
5729.59
5728.33
5727.3
5726.49
5725.88
5725.45
5725.2
5730.33
5729.02
5727.91
5727
5726.29
5725.74
5725.36
5725.14
5729.5
5728.51
5727.59
5726.78
5726.14
5725.64
5725.3
5725.09
5670.47
5669.74
5668.98
5668.29
5667.73
5667.34
5667.11
5667.01
5670.88
5670.06
5669.22
5668.48
5667.89
5667.46
5667.21
5667.1
5671.19
5670.47
5669.61
5668.8
5668.14
5667.66
5667.38
5667.26
5671.68
5670.88
5669.95
5669.06
5668.36
5667.84
5667.54
5667.42
5671.72
5670.9
5669.97
5669.11
5668.42
5667.92
5667.63
5667.51
5671.52
5670.66
5669.77
5669
5668.38
5667.93
5667.67
5667.57
5671.21
5670.47
5669.67
5668.95
5668.37
5667.96
5667.72
5667.62
5669.37
5669.21
5668.98
5668.76
5668.59
5668.46
5668.38
5668.35
5669.44
5669.35
5669.16
5668.93
5668.73
5668.57
5668.47
5668.44
5669.56
5669.54
5669.35
5669.1
5668.87
5668.69
5668.57
5668.53
5669.78
5669.71
5669.49
5669.23
5668.98
5668.78
5668.66
5668.62
5669.86
5669.76
5669.53
5669.27
5669.03
5668.84
5668.72
5668.68
5669.82
5669.71
5669.49
5669.25
5669.02
5668.85
5668.75
5668.7
5669.77
5669.6
5669.39
5669.18
5668.99
5668.85
5668.76
5668.72
5669.88
5669.73
5669.61
5669.54
5669.49
5669.46
5669.44
5669.43
5670.18
5670.02
5669.88
5669.74
5669.63
5669.55
5669.51
5669.5
5670.45
5670.25
5670.05
5669.87
5669.72
5669.62
5669.57
5669.56
5670.39
5670.24
5670.07
5669.9
5669.76
5669.66
5669.6
5669.6
5670.41
5670.25
5670.07
5669.91
5669.78
5669.68
5669.62
5669.62
5670.14
5670.05
5669.95
5669.83
5669.74
5669.66
5669.62
5669.61
5669.82
5669.71
5669.66
5669.64
5669.62
5669.6
5669.58
5669.58
5671.21
5670.92
5670.74
5670.65
5670.61
5670.59
5670.58
5670.58
5671.83
5671.4
5671.11
5670.89
5670.75
5670.66
5670.62
5670.63
5672.35
5671.75
5671.32
5671.02
5670.82
5670.7
5670.64
5670.65
5672.41
5671.81
5671.36
5671.04
5670.83
5670.7
5670.64
5670.65
5672.47
5671.82
5671.35
5671.03
5670.82
5670.7
5670.64
5670.65
5671.95
5671.47
5671.13
5670.9
5670.75
5670.65
5670.6
5670.61
5671.21
5670.83
5670.65
5670.58
5670.55
5670.54
5670.53
5670.54
5670.2
5670.44
5670.73
5671.06
5671.34
5671.56
5671.71
5671.84
5670.24
5670.64
5670.97
5671.21
5671.41
5671.58
5671.72
5671.86
5670.38
5670.71
5670.96
5671.18
5671.36
5671.53
5671.66
5671.84
5670.33
5670.67
5670.9
5671.11
5671.3
5671.47
5671.61
5671.79
5670.38
5670.68
5670.89
5671.09
5671.27
5671.44
5671.57
5671.73
5670.21
5670.55
5670.82
5671.05
5671.24
5671.4
5671.53
5671.67
5669.98
5670.18
5670.47
5670.79
5671.07
5671.28
5671.43
5671.56
5668.39
5669.93
5671.21
5672.29
5673.14
5673.77
5674.22
5674.51
5666.89
5669.22
5670.89
5672.11
5673.01
5673.68
5674.16
5674.48
5665.56
5668.38
5670.32
5671.72
5672.74
5673.49
5674.04
5674.4
5664.76
5667.85
5669.95
5671.45
5672.54
5673.34
5673.92
5674.3
5664.96
5667.94
5669.99
5671.45
5672.51
5673.29
5673.84
5674.21
5666
5668.56
5670.38
5671.67
5672.62
5673.31
5673.8
5674.13
5667.44
5669.18
5670.6
5671.74
5672.62
5673.27
5673.73
5674.02
5675
5676.32
5677.42
5678.36
5679.12
5679.72
5680.2
5680.52
5673.83
5675.61
5676.98
5678.06
5678.9
5679.57
5680.11
5680.47
5672.93
5674.9
5676.47
5677.69
5678.64
5679.39
5679.99
5680.4
5672.4
5674.48
5676.16
5677.46
5678.47
5679.26
5679.89
5680.33
5672.46
5674.54
5676.19
5677.47
5678.45
5679.22
5679.84
5680.26
5673.14
5675.08
5676.58
5677.71
5678.58
5679.27
5679.83
5680.21
5674.16
5675.66
5676.9
5677.9
5678.69
5679.31
5679.81
5680.14
5689.34
5689
5688.75
5688.59
5688.53
5688.59
5688.76
5688.94
5689.87
5689.06
5688.62
5688.42
5688.38
5688.48
5688.68
5688.9
5690.73
5689.43
5688.78
5688.47
5688.37
5688.45
5688.66
5688.9
5691.24
5689.67
5688.91
5688.53
5688.4
5688.45
5688.66
5688.92
5691.15
5689.64
5688.9
5688.54
5688.41
5688.47
5688.68
5688.92
5690.4
5689.34
5688.79
5688.51
5688.42
5688.49
5688.69
5688.91
5689.49
5689.05
5688.76
5688.58
5688.51
5688.56
5688.73
5688.92
5700.63
5699.4
5698.34
5697.49
5696.91
5696.59
5696.5
5696.55
5701.67
5699.75
5698.38
5697.44
5696.84
5696.53
5696.45
5696.51
5703.04
5700.56
5698.86
5697.72
5697
5696.61
5696.5
5696.57
5703.85
5701.06
5699.2
5697.94
5697.14
5696.7
5696.57
5696.63
5703.57
5700.91
5699.12
5697.92
5697.16
5696.74
5696.62
5696.67
5702.36
5700.19
5698.7
5697.7
5697.07
5696.73
5696.63
5696.69
5701.04
5699.68
5698.58
5697.72
5697.12
5696.79
5696.69
5696.73
5704.71
5703.89
5703.13
5702.5
5702.03
5701.76
5701.66
5701.68
5705.2
5704.02
5703.11
5702.45
5702
5701.73
5701.63
5701.65
5705.89
5704.49
5703.43
5702.66
5702.13
5701.8
5701.68
5701.7
5706.35
5704.83
5703.67
5702.82
5702.23
5701.87
5701.73
5701.74
5706.17
5704.73
5703.62
5702.81
5702.25
5701.9
5701.76
5701.77
5705.6
5704.34
5703.38
5702.68
5702.19
5701.89
5701.78
5701.79
5705.06
5704.18
5703.38
5702.71
5702.23
5701.94
5701.83
5701.83
5704.74
5704.88
5704.92
5704.92
5704.94
5704.98
5705.06
5705.14
5704.4
5704.67
5704.8
5704.88
5704.92
5704.96
5705.04
5705.13
5704.11
5704.55
5704.76
5704.86
5704.91
5704.96
5705.03
5705.13
5704.05
5704.54
5704.77
5704.87
5704.92
5704.96
5705.03
5705.13
5704.09
5704.59
5704.8
5704.89
5704.92
5704.96
5705.04
5705.13
5704.33
5704.71
5704.87
5704.93
5704.95
5704.99
5705.05
5705.14
5704.75
5704.92
5704.97
5704.97
5704.99
5705.03
5705.1
5705.18
5706.35
5706.98
5707.46
5707.84
5708.15
5708.42
5708.63
5708.79
5705.68
5706.62
5707.28
5707.76
5708.11
5708.39
5708.61
5708.78
5705.03
5706.21
5707.03
5707.6
5708.01
5708.32
5708.57
5708.75
5704.65
5706
5706.9
5707.51
5707.95
5708.28
5708.55
5708.74
5704.88
5706.15
5706.99
5707.57
5707.98
5708.29
5708.55
5708.73
5705.49
5706.56
5707.26
5707.73
5708.08
5708.35
5708.58
5708.74
5706.2
5706.91
5707.42
5707.81
5708.14
5708.41
5708.62
5708.77
5712.25
5712.51
5712.71
5712.9
5713.08
5713.26
5713.44
5713.57
5712.02
5712.32
5712.58
5712.81
5713.02
5713.22
5713.41
5713.56
5711.97
5712.19
5712.47
5712.72
5712.96
5713.18
5713.39
5713.56
5711.9
5712.12
5712.42
5712.69
5712.94
5713.17
5713.39
5713.57
5711.93
5712.16
5712.47
5712.74
5712.98
5713.2
5713.41
5713.59
5712.07
5712.35
5712.63
5712.86
5713.07
5713.26
5713.46
5713.61
5712.24
5712.55
5712.78
5712.99
5713.17
5713.34
5713.52
5713.64
5720.18
5719.8
5719.42
5719.1
5718.87
5718.75
5718.73
5718.76
5720.39
5719.74
5719.28
5718.98
5718.8
5718.71
5718.72
5718.76
5720.94
5720.02
5719.45
5719.08
5718.86
5718.75
5718.75
5718.81
5721.4
5720.28
5719.62
5719.2
5718.95
5718.82
5718.81
5718.87
5721.48
5720.34
5719.68
5719.27
5719.01
5718.88
5718.87
5718.93
5721.12
5720.21
5719.64
5719.28
5719.05
5718.94
5718.93
5718.97
5720.72
5720.26
5719.84
5719.48
5719.21
5719.05
5719.01
5719.03
5726.72
5725.8
5724.94
5724.19
5723.62
5723.22
5723
5722.9
5727.24
5725.92
5724.91
5724.15
5723.6
5723.22
5723.01
5722.92
5728.07
5726.47
5725.27
5724.4
5723.77
5723.34
5723.1
5723.01
5728.63
5726.86
5725.55
5724.6
5723.92
5723.45
5723.19
5723.08
5728.77
5726.87
5725.57
5724.64
5723.97
5723.52
5723.26
5723.15
5728.17
5726.51
5725.34
5724.52
5723.93
5723.53
5723.29
5723.19
5727.47
5726.42
5725.48
5724.69
5724.06
5723.62
5723.36
5723.25
5729.59
5728.52
5727.54
5726.72
5726.07
5725.56
5725.21
5725.01
5730.43
5729.04
5727.88
5726.95
5726.23
5725.68
5725.29
5725.07
5731.24
5729.64
5728.33
5727.29
5726.47
5725.84
5725.4
5725.15
5731.54
5729.89
5728.54
5727.47
5726.61
5725.95
5725.48
5725.21
5731.35
5729.71
5728.42
5727.4
5726.59
5725.96
5725.51
5725.25
5730.69
5729.2
5728.05
5727.15
5726.44
5725.89
5725.5
5725.26
5729.96
5728.89
5727.92
5727.08
5726.4
5725.88
5725.51
5725.29
5671.26
5670.52
5669.73
5669.01
5668.42
5668
5667.76
5667.66
5671.47
5670.69
5669.83
5669.07
5668.45
5668.01
5667.74
5667.63
5671.6
5671.02
5670.12
5669.28
5668.59
5668.08
5667.77
5667.64
5671.57
5671.08
5670.18
5669.31
5668.58
5668.04
5667.71
5667.58
5671.27
5670.74
5669.9
5669.09
5668.39
5667.89
5667.59
5667.46
5671.12
5670.35
5669.52
5668.78
5668.16
5667.71
5667.45
5667.34
5670.8
5670.08
5669.33
5668.62
5668.03
5667.62
5667.38
5667.29
5669.84
5669.7
5669.47
5669.24
5669.04
5668.88
5668.78
5668.74
5669.7
5669.65
5669.46
5669.23
5669.02
5668.85
5668.73
5668.68
5669.54
5669.59
5669.45
5669.23
5669
5668.82
5668.69
5668.64
5669.26
5669.43
5669.35
5669.15
5668.92
5668.74
5668.61
5668.56
5669.06
5669.26
5669.2
5669.02
5668.8
5668.64
5668.53
5668.48
5669.13
5669.18
5669.07
5668.88
5668.69
5668.54
5668.45
5668.41
5669.23
5669.15
5668.98
5668.78
5668.6
5668.48
5668.4
5668.37
5669.91
5669.82
5669.74
5669.68
5669.64
5669.61
5669.58
5669.57
5670.05
5670
5669.9
5669.79
5669.68
5669.6
5669.55
5669.53
5670.15
5670.09
5669.97
5669.82
5669.69
5669.58
5669.51
5669.49
5670.14
5670.1
5669.96
5669.8
5669.64
5669.53
5669.46
5669.44
5670.21
5670.09
5669.93
5669.76
5669.6
5669.49
5669.43
5669.4
5670.02
5669.92
5669.79
5669.64
5669.52
5669.44
5669.38
5669.37
5669.76
5669.63
5669.52
5669.45
5669.4
5669.37
5669.34
5669.34
5671.33
5670.95
5670.72
5670.61
5670.55
5670.52
5670.51
5670.51
5671.96
5671.44
5671.08
5670.83
5670.66
5670.55
5670.48
5670.47
5672.56
5671.84
5671.32
5670.96
5670.71
5670.55
5670.45
5670.44
5672.78
5672.01
5671.41
5670.99
5670.7
5670.53
5670.42
5670.41
5672.88
5672.04
5671.41
5670.98
5670.7
5670.52
5670.42
5670.4
5672.26
5671.62
5671.15
5670.83
5670.62
5670.49
5670.41
5670.39
5671.44
5670.95
5670.66
5670.53
5670.45
5670.4
5670.37
5670.37
5670.07
5670.27
5670.52
5670.79
5671.04
5671.24
5671.37
5671.5
5669.84
5670.26
5670.56
5670.81
5671.02
5671.18
5671.3
5671.43
5669.71
5670.18
5670.47
5670.71
5670.91
5671.07
5671.19
5671.35
5669.4
5670.03
5670.34
5670.59
5670.8
5670.99
5671.12
5671.3
5669.51
5670.06
5670.34
5670.58
5670.8
5670.98
5671.11
5671.28
5669.49
5669.99
5670.33
5670.61
5670.84
5671.01
5671.14
5671.28
5669.58
5669.81
5670.11
5670.45
5670.75
5670.98
5671.13
5671.27
5667.5
5669.22
5670.6
5671.7
5672.55
5673.19
5673.65
5673.94
5665.27
5668.02
5669.92
5671.28
5672.27
5672.98
5673.49
5673.82
5663.5
5666.82
5669.09
5670.71
5671.88
5672.71
5673.3
5673.69
5662.35
5666.09
5668.58
5670.34
5671.61
5672.53
5673.18
5673.6
5662.65
5666.27
5668.69
5670.4
5671.64
5672.53
5673.15
5673.57
5664.13
5667.17
5669.28
5670.79
5671.88
5672.67
5673.23
5673.6
5666.31
5668.26
5669.8
5671.04
5672.02
5672.76
5673.28
5673.61
5674.22
5675.73
5676.93
5677.88
5678.65
5679.26
5679.75
5680.09
5672.77
5674.76
5676.29
5677.45
5678.34
5679.04
5679.61
5679.99
5671.86
5673.86
5675.6
5676.94
5677.98
5678.8
5679.46
5679.91
5671.33
5673.33
5675.2
5676.65
5677.78
5678.67
5679.38
5679.86
5671.44
5673.51
5675.34
5676.75
5677.83
5678.68
5679.37
5679.85
5672.15
5674.24
5675.87
5677.1
5678.07
5678.84
5679.46
5679.88
5673.55
5675.15
5676.41
5677.44
5678.29
5678.98
5679.54
5679.91
5689.64
5689.19
5688.83
5688.61
5688.52
5688.56
5688.73
5688.91
5690.57
5689.47
5688.86
5688.54
5688.43
5688.49
5688.68
5688.9
5691.91
5690.05
5689.12
5688.65
5688.46
5688.49
5688.7
5688.95
5692.52
5690.32
5689.26
5688.73
5688.51
5688.52
5688.73
5689
5692.21
5690.2
5689.23
5688.74
5688.53
5688.55
5688.76
5689.03
5691.09
5689.77
5689.06
5688.67
5688.53
5688.58
5688.79
5689.03
5690.06
5689.52
5689.09
5688.78
5688.65
5688.68
5688.86
5689.07
5701.15
5699.81
5698.65
5697.78
5697.17
5696.83
5696.73
5696.76
5702.63
5700.47
5698.94
5697.89
5697.23
5696.87
5696.76
5696.81
5704.47
5701.6
5699.68
5698.36
5697.51
5697.05
5696.9
5696.95
5705.46
5702.21
5700.11
5698.66
5697.71
5697.18
5697.01
5697.05
5704.99
5701.95
5699.95
5698.58
5697.7
5697.2
5697.05
5697.1
5703.51
5701.11
5699.44
5698.28
5697.54
5697.13
5697.03
5697.09
5702.04
5700.59
5699.33
5698.31
5697.6
5697.2
5697.09
5697.14
5705.1
5704.25
5703.45
5702.78
5702.3
5702
5701.88
5701.88
5705.73
5704.56
5703.6
5702.88
5702.38
5702.07
5701.94
5701.94
5706.58
5705.23
5704.08
5703.22
5702.62
5702.24
5702.07
5702.06
5707.28
5705.68
5704.41
5703.46
5702.78
5702.35
5702.16
5702.15
5706.96
5705.47
5704.27
5703.39
5702.76
5702.36
5702.2
5702.2
5706.33
5705.01
5703.97
5703.19
5702.64
5702.32
5702.19
5702.21
5705.78
5704.9
5704
5703.25
5702.7
5702.37
5702.26
5702.27
5704.75
5704.98
5705.05
5705.05
5705.06
5705.09
5705.15
5705.22
5704.23
5704.78
5705
5705.09
5705.12
5705.14
5705.19
5705.26
5703.91
5704.65
5704.96
5705.1
5705.16
5705.19
5705.24
5705.32
5703.95
5704.71
5705.01
5705.14
5705.19
5705.23
5705.29
5705.38
5704.1
5704.77
5705.06
5705.18
5705.23
5705.27
5705.34
5705.44
5704.49
5704.94
5705.13
5705.22
5705.27
5705.32
5705.4
5705.49
5705.09
5705.27
5705.3
5705.31
5705.33
5705.38
5705.46
5705.55
5706.2
5706.93
5707.47
5707.86
5708.18
5708.44
5708.65
5708.79
5705.4
5706.58
5707.33
5707.84
5708.19
5708.46
5708.67
5708.83
5704.89
5706.24
5707.11
5707.71
5708.12
5708.43
5708.68
5708.85
5704.67
5706.13
5707.04
5707.66
5708.11
5708.44
5708.7
5708.89
5705.37
5706.55
5707.31
5707.83
5708.23
5708.54
5708.79
5708.98
5705.93
5706.91
5707.56
5708.03
5708.38
5708.66
5708.9
5709.06
5706.64
5707.22
5707.69
5708.1
5708.45
5708.74
5708.97
5709.13
5712.22
5712.54
5712.8
5713
5713.19
5713.36
5713.52
5713.65
5712.06
5712.4
5712.69
5712.93
5713.14
5713.33
5713.52
5713.66
5712.07
5712.27
5712.56
5712.84
5713.07
5713.3
5713.51
5713.69
5711.58
5712.02
5712.42
5712.76
5713.05
5713.3
5713.54
5713.73
5712.4
5712.49
5712.72
5712.96
5713.19
5713.41
5713.63
5713.81
5712.48
5712.67
5712.9
5713.13
5713.34
5713.54
5713.73
5713.88
5712.57
5712.82
5713.05
5713.25
5713.44
5713.63
5713.8
5713.94
5720.69
5720.25
5719.83
5719.48
5719.22
5719.06
5719.01
5719.02
5721.29
5720.37
5719.77
5719.38
5719.14
5719.02
5718.99
5719.03
5722.1
5720.74
5719.98
5719.49
5719.19
5719.05
5719.03
5719.08
5722.28
5720.8
5720.04
5719.55
5719.25
5719.09
5719.07
5719.13
5722.11
5720.76
5720.04
5719.59
5719.3
5719.14
5719.12
5719.17
5721.35
5720.48
5719.92
5719.54
5719.29
5719.16
5719.14
5719.18
5720.87
5720.48
5720.07
5719.68
5719.39
5719.23
5719.19
5719.2
5727.43
5726.37
5725.43
5724.65
5724.05
5723.62
5723.36
5723.22
5728.37
5726.71
5725.5
5724.63
5724.02
5723.6
5723.36
5723.24
5729.43
5727.44
5725.98
5724.94
5724.2
5723.71
5723.43
5723.32
5729.97
5727.76
5726.22
5725.11
5724.31
5723.78
5723.47
5723.35
5729.39
5727.43
5726.03
5725.01
5724.28
5723.77
5723.48
5723.36
5728.37
5726.82
5725.65
5724.77
5724.13
5723.69
5723.43
5723.32
5727.66
5726.69
5725.74
5724.88
5724.2
5723.72
5723.45
5723.31
5729.8
5728.75
5727.81
5727.02
5726.38
5725.87
5725.5
5725.28
5730.62
5729.21
5728.07
5727.18
5726.48
5725.94
5725.54
5725.3
5731.34
5729.82
5728.54
5727.52
5726.71
5726.08
5725.63
5725.36
5731.67
5730.09
5728.77
5727.68
5726.81
5726.14
5725.66
5725.38
5731.35
5729.84
5728.58
5727.56
5726.74
5726.1
5725.64
5725.37
5730.65
5729.28
5728.17
5727.27
5726.54
5725.97
5725.56
5725.32
5730.02
5729.04
5728.08
5727.2
5726.48
5725.92
5725.53
5725.3
5670.01
5668.29
5666.8
5665.59
5664.71
5664.12
5663.8
5663.68
5671.42
5669.04
5667.21
5665.82
5664.82
5664.15
5663.78
5663.64
5672.78
5669.98
5667.81
5666.21
5665.05
5664.28
5663.84
5663.68
5673.46
5670.39
5668.06
5666.38
5665.18
5664.37
5663.91
5663.74
5667.87
5666.25
5665.12
5664.39
5663.97
5663.81
5664.06
5663.92
5670.22
5669.4
5668.58
5667.88
5667.33
5666.95
5666.72
5666.61
5670.62
5669.69
5668.78
5668.01
5667.4
5666.97
5666.71
5666.59
5670.94
5669.99
5669.05
5668.21
5667.53
5667.04
5666.75
5666.61
5671.18
5670.2
5669.21
5668.33
5667.63
5667.12
5666.81
5666.66
5671.16
5670.15
5669.13
5668.28
5667.63
5667.16
5666.86
5666.73
5670.87
5669.9
5668.98
5668.21
5667.61
5667.19
5666.94
5666.82
5670.53
5669.71
5668.88
5668.17
5667.62
5667.24
5667.01
5666.91
5668.82
5668.68
5668.49
5668.32
5668.18
5668.07
5668
5667.96
5668.78
5668.78
5668.62
5668.43
5668.25
5668.1
5668.01
5667.96
5668.66
5668.79
5668.68
5668.49
5668.3
5668.14
5668.03
5667.98
5668.73
5668.87
5668.76
5668.56
5668.36
5668.19
5668.07
5668.02
5668.99
5669.01
5668.84
5668.62
5668.41
5668.24
5668.13
5668.08
5669.23
5669.11
5668.89
5668.65
5668.45
5668.3
5668.2
5668.15
5669.31
5669.1
5668.86
5668.64
5668.47
5668.35
5668.27
5668.23
5669.67
5669.48
5669.37
5669.3
5669.25
5669.21
5669.18
5669.17
5670.04
5669.84
5669.66
5669.5
5669.37
5669.28
5669.22
5669.19
5670.27
5670.01
5669.78
5669.58
5669.42
5669.3
5669.23
5669.2
5670.25