/*--------------------------------*- C++ -*----------------------------------*\
| =========                 |                                                 |
| \\      /  F ield         | OpenFOAM: The Open Source CFD Toolbox           |
|  \\    /   O peration     | Version:  plus.master.MPPICInterFoam            |
|   \\  /    A nd           | Web:      www.OpenFOAM.com                      |
|    \\/     M anipulation  |                                                 |
\*---------------------------------------------------------------------------*/
FoamFile
{
    version     2.0;
    format      ascii;
    class       volScalarField;
    location    "13";
    object      epsilon;
}
// * * * * * * * * * * * * * * * * * * * * * * * * * * * * * * * * * * * * * //

dimensions      [0 2 -3 0 0 0 0];

internalField   nonuniform List<scalar> 
11822
(
0.40332
0.429532
0.420189
0.384913
0.335644
0.282417
0.23108
0.539394
0.579458
0.55673
0.494002
0.417021
0.340812
0.272768
0.657652
0.715578
0.707992
0.616948
0.501875
0.397454
0.310204
0.66226
0.703641
0.784158
0.721039
0.574165
0.441449
0.33714
0.616863
0.656826
0.73555
0.746907
0.606179
0.459222
0.346658
0.617329
0.632848
0.733091
0.720354
0.581797
0.442208
0.334901
0.591496
0.634643
0.675836
0.619416
0.504752
0.394437
0.303711
0.393399
0.418165
0.409361
0.376317
0.329554
0.278271
0.228202
0.521264
0.557268
0.535312
0.478208
0.406803
0.334548
0.268847
0.633273
0.680874
0.670609
0.589203
0.485757
0.388396
0.305043
0.647381
0.718988
0.735191
0.681586
0.55156
0.429601
0.330823
0.572034
0.673665
0.749273
0.707274
0.580877
0.445912
0.339734
0.554714
0.620109
0.709427
0.684136
0.558164
0.429645
0.328271
0.565009
0.610237
0.639464
0.592364
0.487007
0.384252
0.298104
0.385324
0.410274
0.40292
0.371546
0.326053
0.275539
0.225954
0.505241
0.541561
0.523363
0.470333
0.401675
0.330997
0.266119
0.615179
0.666281
0.653926
0.577052
0.478299
0.38375
0.30179
0.641415
0.715003
0.740552
0.66658
0.54105
0.423674
0.327035
0.577222
0.658649
0.726232
0.691051
0.565998
0.438614
0.335497
0.557989
0.614361
0.69831
0.662692
0.542795
0.421904
0.323909
0.54838
0.593316
0.616019
0.570288
0.47397
0.377333
0.294138
0.379776
0.405405
0.398954
0.368014
0.322546
0.272025
0.222607
0.495078
0.534357
0.519028
0.466962
0.398104
0.327255
0.262439
0.613079
0.671778
0.656532
0.576054
0.475166
0.379933
0.297897
0.629925
0.659222
0.744719
0.671991
0.538847
0.419891
0.323011
0.563251
0.642636
0.742568
0.705523
0.565574
0.43493
0.331421
0.543045
0.601251
0.698013
0.671226
0.538134
0.417243
0.319723
0.524977
0.588384
0.613
0.564206
0.467191
0.372395
0.290179
0.377261
0.403023
0.396517
0.365228
0.319545
0.269325
0.220764
0.489934
0.531396
0.517286
0.464599
0.394945
0.323914
0.259711
0.600831
0.6697
0.65609
0.574748
0.472396
0.376313
0.294577
0.62255
0.680781
0.751032
0.672755
0.53658
0.416188
0.319374
0.562674
0.588267
0.701773
0.712444
0.562988
0.431169
0.327708
0.549651
0.595942
0.690765
0.667532
0.534572
0.413376
0.316168
0.513854
0.585968
0.609531
0.55807
0.463154
0.36876
0.287098
0.374515
0.399681
0.392115
0.360378
0.315231
0.266388
0.219871
0.487997
0.529719
0.513587
0.458856
0.388988
0.319287
0.257231
0.596651
0.668635
0.655402
0.570342
0.465653
0.370427
0.290938
0.607123
0.676616
0.733397
0.670206
0.530302
0.409663
0.315022
0.582441
0.588137
0.712583
0.705077
0.55748
0.424644
0.32313
0.561225
0.592226
0.687724
0.664121
0.529217
0.407267
0.311833
0.503759
0.579699
0.603873
0.553217
0.457561
0.363333
0.283424
0.18697
0.156733
0.131456
0.111057
0.0956425
0.0861441
0.087593
0.149716
0.216156
0.175945
0.143931
0.118736
0.0997626
0.0874653
0.0861918
0.142097
0.242667
0.194542
0.156695
0.12725
0.105166
0.0905545
0.0873847
0.140445
0.261755
0.208519
0.16694
0.13476
0.110687
0.0946813
0.0907154
0.144799
0.268709
0.214747
0.172604
0.139953
0.115527
0.0993981
0.0959837
0.155236
0.261632
0.212324
0.173256
0.142616
0.119602
0.104743
0.103431
0.172897
0.243348
0.203785
0.170549
0.143743
0.123537
0.111201
0.113663
0.199281
0.184899
0.155097
0.130158
0.110045
0.0948829
0.0856151
0.0873058
0.15005
0.21355
0.173996
0.142421
0.11757
0.0988918
0.0868543
0.0858307
0.142302
0.239454
0.192262
0.154985
0.125952
0.104206
0.0898835
0.0869804
0.140566
0.257995
0.205964
0.165083
0.133377
0.109675
0.0939777
0.09029
0.144869
0.26466
0.212053
0.170692
0.138554
0.114512
0.0986957
0.0955589
0.155275
0.257704
0.209682
0.171393
0.141269
0.118632
0.104073
0.103023
0.1729
0.239849
0.201324
0.168802
0.142492
0.122649
0.110593
0.113285
0.199189
0.183043
0.15356
0.128945
0.10916
0.0943161
0.0853455
0.0873009
0.149926
0.211339
0.17217
0.140973
0.116502
0.0981913
0.0864968
0.0857848
0.14225
0.23691
0.190179
0.153323
0.124706
0.10336
0.0894071
0.0868298
0.140411
0.255168
0.203693
0.163272
0.132
0.108708
0.0933825
0.0900075
0.144524
0.261653
0.209696
0.168826
0.137123
0.113482
0.0980217
0.0951694
0.154748
0.254685
0.207355
0.169569
0.139868
0.117608
0.103377
0.102575
0.172221
0.23704
0.199147
0.167109
0.141199
0.121702
0.109941
0.112838
0.198292
0.180176
0.151135
0.126992
0.107668
0.0932368
0.0846094
0.0869139
0.151295
0.208078
0.169402
0.138749
0.114811
0.0969724
0.0856495
0.0852458
0.143184
0.233364
0.187138
0.15087
0.122845
0.102032
0.0885042
0.0862735
0.141301
0.251462
0.200511
0.160702
0.130053
0.107333
0.0924831
0.0895294
0.145631
0.257927
0.206525
0.166272
0.135193
0.11213
0.0971709
0.0948036
0.156107
0.251061
0.204331
0.167151
0.138044
0.116338
0.102605
0.102323
0.173748
0.233685
0.196375
0.164899
0.139533
0.120549
0.109268
0.1127
0.199831
0.179568
0.15158
0.128605
0.110579
0.0976255
0.0908369
0.0960584
0.169464
0.206558
0.169066
0.1397
0.117171
0.100921
0.0915596
0.0942513
0.161756
0.231132
0.186115
0.151185
0.124603
0.105387
0.0937855
0.0945322
0.158654
0.248786
0.199004
0.1605
0.131237
0.110005
0.0968945
0.0965564
0.160589
0.255117
0.204804
0.16575
0.135911
0.114138
0.100635
0.100407
0.168195
0.248418
0.20266
0.166507
0.138437
0.117781
0.105198
0.106575
0.183016
0.231483
0.194965
0.164308
0.139765
0.121605
0.111216
0.115919
0.206761
0.18158
0.15576
0.135372
0.120513
0.111743
0.111593
0.132547
0.294766
0.20701
0.171969
0.145356
0.126082
0.114009
0.111088
0.128762
0.281627
0.230321
0.187838
0.15571
0.132396
0.117307
0.111941
0.12697
0.272749
0.247119
0.199838
0.164065
0.137951
0.120656
0.113426
0.126484
0.268156
0.253075
0.205114
0.168591
0.141633
0.123429
0.115237
0.127229
0.267966
0.246484
0.202778
0.168835
0.143267
0.125705
0.117767
0.130151
0.275223
0.229869
0.194964
0.166114
0.143662
0.12812
0.121753
0.136421
0.292103
0.49056
0.414446
0.340432
0.279597
0.234894
0.209329
0.218133
0.408557
0.559542
0.473616
0.383419
0.30675
0.249985
0.215549
0.216962
0.39457
0.583251
0.509838
0.40799
0.320231
0.255851
0.215954
0.212019
0.374479
0.611289
0.503473
0.395041
0.309171
0.246269
0.206843
0.20116
0.349848
0.54856
0.441418
0.348773
0.276118
0.222934
0.189505
0.185573
0.322336
0.444556
0.358871
0.288729
0.23406
0.19391
0.169043
0.169274
0.298975
0.338653
0.280369
0.232527
0.194664
0.166704
0.150294
0.155604
0.282405
0.475899
0.404684
0.332151
0.273008
0.229948
0.205768
0.215563
0.406448
0.519683
0.462499
0.374344
0.299561
0.244631
0.211753
0.214288
0.393084
0.545634
0.494077
0.397869
0.312924
0.250748
0.212523
0.209769
0.37403
0.576716
0.4884
0.384842
0.302295
0.241862
0.204153
0.199582
0.349969
0.53242
0.429326
0.340554
0.270897
0.219866
0.187862
0.18486
0.323174
0.432305
0.350586
0.28342
0.230909
0.192238
0.168343
0.169273
0.300526
0.331809
0.275891
0.229766
0.193112
0.165979
0.150136
0.15593
0.284175
0.456429
0.387338
0.319366
0.264251
0.224183
0.202066
0.213106
0.403581
0.508348
0.443878
0.359045
0.289102
0.237921
0.207511
0.2114
0.389391
0.540617
0.478049
0.382264
0.302526
0.244349
0.208605
0.207173
0.370678
0.562452
0.467781
0.370815
0.293728
0.236916
0.201326
0.197817
0.347665
0.513611
0.414811
0.331444
0.265599
0.216957
0.186359
0.184123
0.32243
0.420147
0.342551
0.278636
0.228245
0.190888
0.167802
0.169246
0.300947
0.325876
0.272151
0.227531
0.191868
0.165389
0.149997
0.156134
0.284836
0.436311
0.368605
0.306838
0.256293
0.2193
0.199219
0.211636
0.403115
0.491848
0.420898
0.341967
0.278675
0.231693
0.203866
0.209262
0.386875
0.521134
0.452926
0.363753
0.291798
0.238177
0.205086
0.205085
0.367626
0.544153
0.44811
0.357435
0.285847
0.232404
0.198839
0.196506
0.345772
0.500374
0.403313
0.324078
0.261213
0.214497
0.18515
0.18376
0.322346
0.411183
0.336542
0.274965
0.226106
0.189765
0.16741
0.169464
0.302087
0.321405
0.269163
0.225611
0.190706
0.164806
0.149902
0.156536
0.286426
0.424724
0.357868
0.299396
0.251373
0.216179
0.197437
0.21128
0.407574
0.492093
0.407763
0.332028
0.271979
0.227378
0.201284
0.208283
0.389877
0.531391
0.441157
0.353859
0.285014
0.233755
0.202454
0.204085
0.370033
0.538326
0.438656
0.350239
0.280854
0.22918
0.197052
0.196184
0.349019
0.491179
0.397428
0.320068
0.258527
0.212877
0.184494
0.184275
0.326534
0.407292
0.333854
0.273155
0.224997
0.189286
0.167582
0.170567
0.30649
0.319442
0.267778
0.224719
0.190287
0.164878
0.150519
0.15796
0.290439
0.416622
0.35217
0.295034
0.24759
0.212719
0.194268
0.210284
0.4484
0.485864
0.399467
0.326522
0.267538
0.223462
0.197806
0.206806
0.427611
0.525281
0.433767
0.348874
0.280924
0.230161
0.199415
0.203154
0.407365
0.530459
0.43333
0.346557
0.277727
0.226547
0.195079
0.19657
0.387767
0.48735
0.394399
0.317563
0.256438
0.211377
0.183815
0.186401
0.367927
0.405002
0.331752
0.271428
0.223867
0.188938
0.168345
0.174933
0.352621
0.317583
0.266337
0.223964
0.190385
0.165996
0.153208
0.165588
0.345262
0.320075
0.265729
0.220293
0.184076
0.157172
0.141088
0.145027
0.260325
0.333556
0.269328
0.218458
0.178819
0.149297
0.130451
0.129262
0.220272
0.326764
0.26119
0.209638
0.16969
0.139864
0.120258
0.116439
0.191033
0.301825
0.241513
0.193823
0.156695
0.128831
0.110293
0.105933
0.170881
0.266104
0.214582
0.173521
0.141323
0.117045
0.100947
0.0976469
0.158137
0.226936
0.185448
0.152154
0.125811
0.105889
0.0929556
0.0917743
0.152166
0.188872
0.158394
0.132984
0.112469
0.0969407
0.0873573
0.0888908
0.152649
0.314202
0.261953
0.218021
0.182827
0.156596
0.140961
0.145272
0.261624
0.327223
0.265561
0.216282
0.177617
0.148693
0.130243
0.129388
0.221293
0.320826
0.257736
0.207614
0.168498
0.139182
0.119923
0.116409
0.191747
0.297003
0.238612
0.192009
0.155522
0.128076
0.109849
0.105772
0.171384
0.262487
0.212234
0.171916
0.140193
0.116264
0.100452
0.097431
0.158555
0.224255
0.183537
0.150737
0.124754
0.105129
0.0924617
0.0915661
0.152635
0.186832
0.1568
0.13173
0.111501
0.0962245
0.0868727
0.0886589
0.1531
0.309551
0.259004
0.216231
0.18179
0.15606
0.140779
0.145349
0.261816
0.322772
0.262817
0.214566
0.176538
0.14805
0.129931
0.129344
0.221416
0.31701
0.255277
0.205951
0.167349
0.138418
0.119477
0.116233
0.191685
0.293925
0.236434
0.190391
0.154325
0.127235
0.109323
0.105518
0.171194
0.259965
0.210279
0.170382
0.139028
0.115441
0.0999415
0.0971903
0.158328
0.222113
0.181789
0.149344
0.123703
0.104404
0.092035
0.0914017
0.152473
0.185003
0.155281
0.130526
0.110611
0.0956375
0.0865646
0.088589
0.152889
0.305873
0.256436
0.214479
0.18065
0.155423
0.140593
0.14564
0.263257
0.319276
0.260253
0.212686
0.175209
0.147209
0.129544
0.129454
0.222886
0.313749
0.252655
0.203886
0.165801
0.137367
0.1189
0.116174
0.193166
0.290747
0.233715
0.188171
0.152624
0.126045
0.108619
0.105346
0.172763
0.256792
0.207533
0.168134
0.137305
0.114227
0.0991991
0.0969626
0.160009
0.219038
0.179166
0.147224
0.122093
0.103271
0.0913276
0.0911589
0.154244
0.182217
0.15293
0.128641
0.109183
0.0946287
0.0859253
0.0883701
0.154637
0.304043
0.25512
0.213648
0.180324
0.155628
0.141381
0.14726
0.267239
0.317216
0.25865
0.21162
0.17475
0.14739
0.130412
0.131294
0.227691
0.311449
0.250824
0.202718
0.165394
0.137753
0.120142
0.118637
0.199389
0.288265
0.231878
0.187169
0.152538
0.126916
0.11055
0.108823
0.180993
0.254479
0.206073
0.167656
0.137871
0.115901
0.102144
0.101821
0.170825
0.217339
0.178462
0.147584
0.123586
0.105997
0.0955192
0.0976039
0.167806
0.181513
0.153218
0.13001
0.111739
0.0985164
0.0914414
0.0964291
0.170603
0.301549
0.253399
0.212943
0.180851
0.157642
0.14562
0.157642
0.32837
0.314347
0.256886
0.211238
0.175944
0.150437
0.136148
0.143933
0.293158
0.308206
0.249109
0.202733
0.167325
0.141951
0.127624
0.134145
0.271524
0.28524
0.230695
0.187984
0.155577
0.132644
0.120235
0.12795
0.262154
0.252433
0.206045
0.16982
0.142534
0.123664
0.114567
0.125282
0.262957
0.216936
0.180174
0.15164
0.130396
0.116336
0.111314
0.12633
0.273273
0.183336
0.15709
0.136324
0.121045
0.111796
0.111072
0.131202
0.291207
0.254408
0.213005
0.178754
0.151242
0.130551
0.118064
0.12135
0.214388
0.325423
0.266213
0.217993
0.17982
0.151112
0.132781
0.132314
0.227405
0.408237
0.328871
0.264014
0.213162
0.17524
0.150643
0.146981
0.247957
0.49273
0.391252
0.309626
0.246156
0.199422
0.169308
0.163896
0.276688
0.550732
0.43505
0.342801
0.271209
0.218955
0.185952
0.181454
0.312693
0.548401
0.442912
0.352313
0.281448
0.229745
0.198077
0.197887
0.353388
0.503495
0.415689
0.33882
0.277085
0.23198
0.205971
0.213524
0.397576
0.250563
0.210387
0.176953
0.15
0.129706
0.117513
0.121038
0.214513
0.318591
0.261824
0.215221
0.17809
0.150053
0.132165
0.13202
0.22759
0.39662
0.321495
0.259534
0.210526
0.173733
0.149816
0.146582
0.248233
0.47499
0.38025
0.302951
0.242263
0.197226
0.16811
0.16328
0.276782
0.530486
0.422124
0.334575
0.266153
0.215958
0.184223
0.180475
0.312671
0.533836
0.431567
0.344135
0.275791
0.226024
0.195723
0.196446
0.353166
0.493285
0.406505
0.331176
0.271147
0.227646
0.202946
0.211442
0.396347
0.247544
0.208131
0.175254
0.148736
0.128803
0.116911
0.120655
0.213853
0.313687
0.258507
0.212953
0.176526
0.149
0.131508
0.131645
0.226921
0.387823
0.315938
0.256074
0.208347
0.172365
0.14899
0.146088
0.247479
0.459694
0.37097
0.2974
0.238963
0.195262
0.166959
0.162574
0.275611
0.507848
0.40819
0.326226
0.26122
0.213052
0.182507
0.179372
0.31094
0.511731
0.415376
0.333626
0.269215
0.22201
0.193305
0.194898
0.351163
0.472611
0.390324
0.319689
0.263428
0.222661
0.199811
0.209382
0.393833
0.244256
0.205445
0.173141
0.147156
0.127711
0.116264
0.120474
0.215009
0.30953
0.255207
0.210408
0.174641
0.147708
0.13075
0.131393
0.227559
0.382184
0.311609
0.252863
0.206043
0.170821
0.148093
0.145741
0.247698
0.452549
0.364988
0.29297
0.235897
0.193271
0.165817
0.162073
0.275276
0.497832
0.399028
0.319674
0.256874
0.210329
0.180943
0.178575
0.309937
0.495739
0.401181
0.324268
0.2633
0.218424
0.191267
0.193838
0.35005
0.448704
0.37267
0.308338
0.25638
0.218418
0.197382
0.208135
0.393037
0.241889
0.203778
0.172175
0.146889
0.128134
0.11741
0.122605
0.219811
0.306381
0.2527
0.208607
0.173571
0.147363
0.131136
0.132728
0.231604
0.378332
0.308385
0.250361
0.204289
0.169835
0.147884
0.146489
0.251162
0.447344
0.360669
0.28957
0.233432
0.191711
0.16513
0.162402
0.278477
0.49083
0.392986
0.314982
0.253508
0.208146
0.179817
0.178577
0.312877
0.484804
0.392671
0.318229
0.259191
0.215811
0.189842
0.193621
0.353072
0.435154
0.363025
0.301691
0.252004
0.215686
0.195891
0.20793
0.396718
0.240001
0.203243
0.173144
0.149527
0.132812
0.125253
0.138733
0.2945
0.30236
0.249985
0.207386
0.173931
0.14945
0.135615
0.143426
0.292417
0.373431
0.304379
0.247611
0.203054
0.170173
0.150118
0.153502
0.302396
0.44247
0.356281
0.286
0.231164
0.190839
0.165784
0.166824
0.32367
0.48563
0.388351
0.31107
0.250639
0.20641
0.179252
0.181085
0.354615
0.478393
0.387561
0.31419
0.25602
0.213432
0.188247
0.194629
0.39348
0.427556
0.357839
0.297575
0.248512
0.212655
0.193343
0.207839
0.438354
0.0115816
0.0118192
0.013013
0.0130407
0.012009
0.0102866
0.00827335
0.00630204
0.0113458
0.0117277
0.0129717
0.0130329
0.0120238
0.0103129
0.00829953
0.00631883
0.0113282
0.0116553
0.0128752
0.0129286
0.0119228
0.0102203
0.00821398
0.00623407
0.0116682
0.0117314
0.0128517
0.0128392
0.0117912
0.0100691
0.00806373
0.0060987
0.0123537
0.0119666
0.0129338
0.0128157
0.0116919
0.00992686
0.00791145
0.00595976
0.0133748
0.0123879
0.013188
0.0129535
0.0117314
0.0098878
0.00782082
0.00584623
0.0147334
0.0130309
0.0137066
0.0134006
0.0121026
0.0101672
0.00800443
0.00595066
0.017981
0.0193728
0.0209004
0.0203535
0.0181788
0.015046
0.0116269
0.00844253
0.0175694
0.019221
0.0208278
0.020327
0.0181842
0.01507
0.0116543
0.00846092
0.0174695
0.0190461
0.0206283
0.0201291
0.0180069
0.0149236
0.0115382
0.00836157
0.0179459
0.0191092
0.0205493
0.019964
0.0177895
0.0146892
0.0113222
0.00818742
0.018951
0.0194119
0.0206339
0.0199052
0.0176236
0.0144637
0.0110926
0.0079916
0.0204859
0.0199855
0.0209741
0.020095
0.0176766
0.0143986
0.0109468
0.00780986
0.0226909
0.0208968
0.0217134
0.0207684
0.0182685
0.0148614
0.0112517
0.00797171
0.0299782
0.0331194
0.0342666
0.032136
0.0277325
0.0221094
0.0163419
0.0112266
0.0293196
0.0329309
0.0341886
0.0321055
0.0277367
0.0221371
0.0163744
0.011252
0.0290315
0.0325956
0.0338415
0.0317707
0.0274392
0.0218979
0.0162011
0.0111156
0.0296804
0.0326453
0.0337019
0.0315178
0.0271091
0.0215401
0.015883
0.010893
0.0311146
0.0330428
0.0338151
0.0314475
0.0268774
0.0212048
0.0155418
0.0106113
0.03325
0.0337674
0.0342598
0.0317375
0.026992
0.0211384
0.0153389
0.0103326
0.036388
0.0348664
0.0351853
0.032682
0.0279103
0.0219073
0.0158613
0.0105896
0.0576935
0.0592991
0.0569579
0.0509252
0.0423369
0.0324253
0.0227901
0.0146322
0.0569172
0.0592386
0.0569765
0.050936
0.0423543
0.0324624
0.0228229
0.0146526
0.0562692
0.0587479
0.0564872
0.0504474
0.0418976
0.0320761
0.0225426
0.0144293
0.0571701
0.0588724
0.0563626
0.0501635
0.0414702
0.0315515
0.0220427
0.0141043
0.0591358
0.0594321
0.0566033
0.0502016
0.0412593
0.0311258
0.0215861
0.0137415
0.061715
0.0601229
0.0571089
0.0506735
0.0415585
0.0311475
0.0213688
0.0133869
0.0646844
0.0608105
0.0578857
0.0517951
0.0428928
0.0324031
0.0222839
0.0138485
0.139405
0.10991
0.0944439
0.0799342
0.0639485
0.0468896
0.0308591
0.0179327
0.139578
0.110432
0.094782
0.0800514
0.0639599
0.046912
0.0308699
0.0179059
0.138982
0.110048
0.0942854
0.0794522
0.0633319
0.0463191
0.030353
0.0175921
0.140662
0.110473
0.0943559
0.0792961
0.0629241
0.0456382
0.0295934
0.0171253
0.143204
0.111168
0.0948577
0.079686
0.0629638
0.045208
0.029084
0.0168287
0.144516
0.110965
0.0951005
0.0803845
0.0636278
0.0454181
0.0288835
0.0166457
0.143711
0.109456
0.0947565
0.081239
0.0653487
0.047405
0.0305117
0.0175897
0.408005
0.198377
0.150251
0.121154
0.0934197
0.0650776
0.0389405
0.0214642
0.408615
0.199495
0.150986
0.121357
0.0932587
0.0648771
0.0386977
0.0210056
0.409617
0.199708
0.15074
0.120698
0.0924017
0.0639464
0.0378174
0.0205646
0.413677
0.200372
0.151112
0.120817
0.0922178
0.0632665
0.0368686
0.0201393
0.416873
0.200264
0.151694
0.121724
0.0927265
0.0628403
0.0364438
0.0202541
0.41364
0.197083
0.150863
0.12261
0.0940026
0.0632458
0.0363534
0.0206522
0.401677
0.190628
0.148083
0.122526
0.0960919
0.0664173
0.0390343
0.0220374
0.0318272
0.0238267
0.0246308
0.0250347
0.02414
0.0219768
0.0189215
0.0154873
0.0323855
0.0242207
0.0250683
0.0255368
0.0246939
0.0225529
0.0194817
0.0159952
0.0315493
0.0237624
0.0246483
0.0251148
0.0242669
0.0221301
0.0190774
0.0156246
0.0294324
0.0224622
0.0233342
0.0236933
0.0227519
0.0205833
0.017584
0.0142678
0.0264446
0.020612
0.0213902
0.0215284
0.0203983
0.0181498
0.0152174
0.0121096
0.0238486
0.0189149
0.0195981
0.0195321
0.0182421
0.0159518
0.0131234
0.0102427
0.0217519
0.0175892
0.018245
0.0180742
0.0167275
0.0144729
0.0117689
0.00906947
0.0471456
0.0354473
0.0366632
0.0370326
0.0353201
0.0316316
0.0266113
0.0211475
0.0479128
0.035972
0.0372497
0.0377139
0.0360826
0.0324358
0.0274006
0.0218615
0.0469164
0.0354959
0.0368156
0.0372638
0.0356139
0.031962
0.0269405
0.0214351
0.0442786
0.0339561
0.0352191
0.0354822
0.0336681
0.0299412
0.0249737
0.0196507
0.0403412
0.031653
0.0327409
0.0326421
0.0305095
0.0266188
0.0217108
0.0166636
0.0368809
0.0294858
0.0303842
0.0299325
0.0275156
0.0235305
0.0187773
0.0141021
0.0338241
0.0277095
0.0285277
0.0278721
0.0253414
0.0214145
0.0168844
0.0125324
0.0712311
0.0535342
0.0550637
0.0550825
0.0519163
0.0457087
0.0374653
0.0287384
0.0721902
0.0541429
0.055761
0.0559184
0.0528848
0.0467634
0.0385272
0.0297106
0.0710213
0.0536987
0.0553353
0.0554397
0.0523624
0.0462234
0.037998
0.0292203
0.0677429
0.0519759
0.0534527
0.0532392
0.0498862
0.0436017
0.0354314
0.0269093
0.0627517
0.0492735
0.0503896
0.0495933
0.0457235
0.0391313
0.0309947
0.0228144
0.0580868
0.0466434
0.047364
0.0459566
0.0415782
0.0347683
0.0268372
0.0192663
0.0535997
0.0444041
0.0448902
0.0430639
0.0384279
0.0316796
0.024124
0.0171425
0.108427
0.0820887
0.0831506
0.0819806
0.0763818
0.0661877
0.0527104
0.0386933
0.109289
0.0825691
0.0838069
0.0828567
0.0774891
0.0674714
0.0540582
0.0399349
0.108009
0.0822113
0.0833395
0.0822708
0.0768273
0.0667884
0.0534028
0.0393385
0.10412
0.0804582
0.08112
0.0795234
0.0736337
0.0633362
0.0500275
0.0364032
0.0982899
0.0775577
0.0773904
0.074892
0.0682101
0.0573661
0.044059
0.0308581
0.0925975
0.0747288
0.0736381
0.0700923
0.0625122
0.0511811
0.0380859
0.0258495
0.0870618
0.0723826
0.0705491
0.0661159
0.0579252
0.0465894
0.034068
0.0228875
0.166806
0.128311
0.125212
0.121164
0.111917
0.0957483
0.0738352
0.0510424
0.166058
0.128204
0.125591
0.12192
0.113102
0.0972747
0.0755089
0.052522
0.165033
0.127878
0.124866
0.120995
0.112077
0.0962676
0.0746347
0.0517789
0.162329
0.126276
0.122072
0.117403
0.107756
0.0914635
0.0699613
0.0480666
0.158965
0.123372
0.117388
0.111433
0.100645
0.0833371
0.061527
0.0403396
0.157828
0.121129
0.112936
0.105215
0.0928592
0.0745006
0.0528932
0.0333361
0.158533
0.119875
0.109467
0.0999318
0.0861445
0.0675253
0.0468738
0.0291987
0.338102
0.201967
0.184567
0.175895
0.162169
0.136958
0.101218
0.063716
0.33078
0.200999
0.1847
0.176598
0.163594
0.139027
0.103312
0.0653077
0.332304
0.200061
0.183262
0.174915
0.161782
0.137258
0.102052
0.0644618
0.340112
0.197982
0.179385
0.169973
0.155562
0.130036
0.0952573
0.059949
0.352312
0.194262
0.173021
0.161961
0.145991
0.118634
0.0817965
0.048456
0.37463
0.193605
0.167753
0.153805
0.134941
0.105366
0.0694964
0.0401032
0.395971
0.194726
0.164121
0.147091
0.125176
0.0946125
0.0609765
0.0350047
0.0199044
0.0164823
0.0171511
0.0169279
0.0155661
0.0133659
0.0107792
0.00823215
0.0179951
0.0153743
0.0160829
0.0158332
0.0144753
0.0123322
0.00984823
0.00743345
0.0161221
0.014243
0.0150037
0.0147545
0.0134304
0.0113732
0.00901268
0.00673385
0.0143512
0.0131289
0.0139448
0.0137134
0.01244
0.0104815
0.0082577
0.0061325
0.0130806
0.0123587
0.0132517
0.0130754
0.0118792
0.0100249
0.00792089
0.00590823
0.0122524
0.0119297
0.012921
0.0128217
0.0117073
0.00993878
0.00791569
0.0059687
0.0118342
0.0118104
0.0129035
0.0128723
0.0118096
0.0100795
0.00807898
0.00613673
0.0309139
0.0261572
0.0269666
0.0261885
0.0236103
0.0197686
0.0154397
0.0113436
0.027865
0.0245856
0.02544
0.0245914
0.0220026
0.0182505
0.0140895
0.0101985
0.024979
0.022944
0.0238662
0.0229991
0.0204568
0.016852
0.012905
0.00923397
0.0222216
0.0212573
0.0222629
0.0214122
0.0189418
0.0154939
0.0117706
0.00834622
0.0202379
0.0200789
0.0211941
0.0204113
0.018049
0.0147599
0.0112319
0.00799827
0.0189772
0.0194481
0.0206986
0.0200106
0.0177547
0.0145832
0.0111711
0.00804238
0.0183327
0.0192943
0.0206815
0.0200686
0.0178673
0.0147384
0.0113506
0.00821908
0.0491356
0.0423881
0.0427574
0.0406399
0.0358587
0.0292238
0.0220083
0.0154544
0.044618
0.040333
0.0406764
0.0383672
0.03352
0.027012
0.020071
0.0138285
0.0403668
0.0380736
0.0384581
0.0360564
0.0312444
0.0249771
0.0184183
0.0125462
0.0361971
0.0356152
0.036117
0.0337089
0.0289796
0.0229469
0.0167513
0.0112713
0.0331571
0.0338707
0.0345197
0.0321763
0.027584
0.0217787
0.0158894
0.0107275
0.0312809
0.0329852
0.0338072
0.0315656
0.0271075
0.0214594
0.0157188
0.0106978
0.0303384
0.0328388
0.0338249
0.0316454
0.0272329
0.0216333
0.0159257
0.0108937
0.0813164
0.0702069
0.0678398
0.0627357
0.0541512
0.0429129
0.030969
0.0205427
0.0766476
0.0679749
0.0651815
0.0595817
0.05078
0.0396973
0.0281778
0.0182633
0.0714573
0.0651958
0.0622235
0.056311
0.0474382
0.0367015
0.0258753
0.0165983
0.0656368
0.0619045
0.0590422
0.0530242
0.044188
0.0337573
0.0235388
0.0148871
0.0612603
0.0595179
0.0568138
0.0507944
0.0421001
0.0319698
0.0222054
0.0140547
0.0586675
0.05841
0.0558812
0.0499249
0.0413876
0.0314702
0.0218536
0.0138197
0.0576092
0.0585159
0.0560981
0.0501096
0.0415604
0.0316917
0.0221499
0.0141114
0.158123
0.118602
0.106356
0.0953703
0.0806418
0.0620018
0.04234
0.0260237
0.156492
0.116916
0.103188
0.0910519
0.0757617
0.0572282
0.0381299
0.0228451
0.152267
0.114186
0.0995562
0.086557
0.0708663
0.0527183
0.0348161
0.0207119
0.145488
0.110498
0.0956977
0.0822622
0.0664165
0.0485988
0.031726
0.0186409
0.140098
0.107768
0.0929351
0.0792317
0.0634633
0.0461101
0.0299135
0.0174484
0.137308
0.106824
0.0919558
0.0781217
0.0625129
0.045501
0.0294228
0.0169043
0.137808
0.108085
0.0928912
0.0786871
0.0628542
0.04584
0.0299244
0.0172617
0.408943
0.195632
0.160765
0.141021
0.117113
0.0863357
0.0545721
0.0310939
0.416186
0.196041
0.157253
0.135067
0.109786
0.078866
0.048129
0.0272521
0.414761
0.194952
0.153204
0.128953
0.102774
0.0722247
0.0434012
0.0246069
0.405567
0.192179
0.148992
0.123392
0.0966393
0.0666203
0.0393049
0.0224621
0.398081
0.190242
0.145964
0.11935
0.0924036
0.0635441
0.0373122
0.0210976
0.396926
0.190819
0.145377
0.118057
0.091275
0.0630633
0.0368589
0.0203858
0.404779
0.195177
0.147919
0.119494
0.0920637
0.0637395
0.0377744
0.0211794
0.0161865
0.0138549
0.0144522
0.0141262
0.0127937
0.0107877
0.00852143
0.00634417
0.0178043
0.014879
0.0154427
0.0151296
0.0137778
0.0117035
0.00933253
0.00703108
0.0196349
0.0160853
0.0166587
0.0163958
0.0150441
0.0128981
0.0103985
0.00794881
0.0218458
0.0175068
0.0180825
0.0178773
0.0165272
0.0142981
0.0116486
0.00902082
0.0243134
0.019097
0.0197076
0.0196192
0.018338
0.0160826
0.0133059
0.0104755
0.0270963
0.0208663
0.0215439
0.0216323
0.0204838
0.0182475
0.0153527
0.0122885
0.0299303
0.0226162
0.0233636
0.0236351
0.0226347
0.0204401
0.0174492
0.0141684
0.0249451
0.0220465
0.0227555
0.0218214
0.019307
0.0158149
0.0120587
0.00860029
0.0274737
0.0235152
0.0241748
0.0232789
0.0207403
0.0171313
0.0131974
0.00954068
0.030341
0.0253025
0.025993
0.0251913
0.0226498
0.0189013
0.0147212
0.0107989
0.0337034
0.0273285
0.0280514
0.0273608
0.0248216
0.0209143
0.0164478
0.0121996
0.0371649
0.029443
0.0302606
0.0297827
0.0273687
0.0234238
0.0187515
0.0141736
0.040847
0.0316807
0.0326584
0.0324982
0.030333
0.0264543
0.0216183
0.0166892
0.0446159
0.0338984
0.0350158
0.0351691
0.0332719
0.0295035
0.0245526
0.0193075
0.0397019
0.0362021
0.0364363
0.0340622
0.0293646
0.023288
0.0170365
0.011509
0.0435867
0.0381243
0.0383416
0.0360994
0.0314084
0.0251513
0.0186059
0.0127594
0.0481384
0.0406856
0.0410026
0.0389636
0.0343013
0.0278149
0.0208173
0.0144945
0.0533512
0.0435481
0.0439897
0.0421864
0.0375621
0.030812
0.0232882
0.0163696
0.058304
0.046299
0.0469892
0.0455802
0.041185
0.0343811
0.0265219
0.0190647
0.063121
0.0490275
0.0500899
0.0492395
0.0452948
0.0386555
0.030567
0.0225839
0.0679595
0.0516877
0.0530369
0.0527094
0.0492301
0.0428437
0.0346428
0.0262096
0.0678467
0.0615354
0.0588764
0.0532907
0.0447452
0.0342951
0.0238624
0.0149928
0.0725684
0.0635433
0.0611652
0.0560005
0.0476007
0.0368968
0.025984
0.016616
0.0790395
0.0668839
0.0648634
0.0601547
0.0519089
0.04091
0.0292456
0.0190355
0.08644
0.0707411
0.0691489
0.0649555
0.0568901
0.0455267
0.0329596
0.0216603
0.092973
0.0741471
0.0732461
0.0697824
0.0621416
0.0506965
0.0375678
0.0253658
0.0989181
0.0773018
0.0772534
0.0747264
0.0678639
0.0567898
0.0433111
0.030329
0.104677
0.0802009
0.0808252
0.0791117
0.0730032
0.0624614
0.0489456
0.0353387
0.141813
0.107525
0.094411
0.082324
0.0674346
0.0498482
0.032463
0.0189479
0.143497
0.108502
0.0967344
0.0858013
0.0714179
0.0534682
0.0353076
0.0209412
0.147844
0.112063
0.101524
0.0916093
0.0776984
0.0594879
0.0401836
0.0241252
0.153203
0.116728
0.107508
0.0986881
0.0853405
0.0667217
0.0458819
0.0277318
0.156866
0.120621
0.113165
0.105698
0.0932058
0.0745084
0.0526056
0.0327523
0.161049
0.12408
0.118377
0.112352
0.101163
0.0833693
0.0609205
0.0398541
0.164813
0.126856
0.122653
0.117766
0.107688
0.0909074
0.0687742
0.0466812
0.38474
0.183239
0.145398
0.12279
0.098161
0.0691434
0.0413169
0.0232489
0.377553
0.181226
0.147433
0.127475
0.103929
0.0743442
0.0451136
0.0253677
0.377068
0.184138
0.153494
0.135627
0.11322
0.0833846
0.0521282
0.0293528
0.377422
0.1895
0.161644
0.145873
0.124954
0.094698
0.060458
0.0341059
0.36841
0.193867
0.169443
0.156103
0.137128
0.107076
0.0704933
0.0399201
0.356213
0.197691
0.17616
0.164883
0.148169
0.120452
0.0829224
0.0489199
0.346262
0.200789
0.181487
0.171581
0.156419
0.130151
0.0942992
0.0583161
0.00234533
0.00137921
0.0023761
0.00493485
0.00397951
0.00319813
0.00258169
0.00210549
0.00177686
0.00169857
0.00284159
0.00493998
0.00397601
0.00318696
0.00256229
0.0020792
0.00174575
0.00165655
0.00273251
0.00485126
0.00388327
0.00308985
0.00246517
0.00199144
0.00167028
0.00158657
0.00261808
0.00473115
0.00377862
0.00299904
0.00238467
0.00192015
0.00160776
0.00152815
0.00252152
0.00460979
0.00367435
0.00291037
0.00230971
0.00185796
0.00155609
0.00147822
0.002413
0.00449519
0.00357295
0.00282297
0.00223626
0.00179997
0.00151257
0.00144768
0.00235124
0.00456041
0.00361912
0.00285283
0.00225963
0.00182783
0.00154991
0.00149687
0.00246241
0.00632309
0.0049034
0.0038029
0.00298969
0.00238339
0.00199042
0.00191296
0.0031515
0.00632722
0.004896
0.00378176
0.00295451
0.00233617
0.00192779
0.00183814
0.00296955
0.00623523
0.0048036
0.00368513
0.00286083
0.00225669
0.00186046
0.00177271
0.00286303
0.00609378
0.00469015
0.00359222
0.00277611
0.00217967
0.00179676
0.00171343
0.00277007
0.00593252
0.00455616
0.00348463
0.00268987
0.00210993
0.00173792
0.00164709
0.0026155
0.00574872
0.00440426
0.00337035
0.00260834
0.00205878
0.00171719
0.00164804
0.00264743
0.00584898
0.00448349
0.00343423
0.00266648
0.00211963
0.00177621
0.00170708
0.00278851
0.00792832
0.00585116
0.004385
0.00339952
0.00271743
0.00230078
0.0022687
0.00388742
0.00794533
0.00584879
0.00435646
0.00335448