/*--------------------------------*- C++ -*----------------------------------*\
| =========                 |                                                 |
| \\      /  F ield         | OpenFOAM: The Open Source CFD Toolbox           |
|  \\    /   O peration     | Version:  plus.master.MPPICInterFoam            |
|   \\  /    A nd           | Web:      www.OpenFOAM.com                      |
|    \\/     M anipulation  |                                                 |
\*---------------------------------------------------------------------------*/
FoamFile
{
    version     2.0;
    format      ascii;
    class       volScalarField;
    location    "13";
    object      k;
}
// * * * * * * * * * * * * * * * * * * * * * * * * * * * * * * * * * * * * * //

dimensions      [0 2 -2 0 0 0 0];

internalField   nonuniform List<scalar> 
11822
(
0.0608913
0.0642226
0.0641565
0.0614139
0.0568408
0.0512322
0.0451073
0.072462
0.0767864
0.0759439
0.0714458
0.0649816
0.0576816
0.0502671
0.0812924
0.0868797
0.087397
0.0814102
0.0725497
0.0633018
0.0544453
0.0825508
0.0864281
0.0930169
0.0889555
0.0783411
0.0672298
0.0571474
0.0801349
0.0838617
0.0890962
0.0903942
0.0804835
0.0684815
0.0578324
0.0793153
0.0809906
0.0884836
0.0876808
0.0779114
0.066439
0.0561949
0.0745451
0.0787415
0.0827085
0.0791788
0.0708426
0.061389
0.0523363
0.0604488
0.0637061
0.06366
0.0610394
0.056605
0.051095
0.0450213
0.0715512
0.0756905
0.0748343
0.0706481
0.0645064
0.0574299
0.0501344
0.0801081
0.0855367
0.0854961
0.0799101
0.0717322
0.0628906
0.0542492
0.0821193
0.0902055
0.0908336
0.0869206
0.077162
0.0666582
0.056888
0.0759161
0.0871516
0.0930883
0.0887474
0.0791823
0.0678237
0.0575369
0.0730135
0.0809234
0.0880843
0.085851
0.0766433
0.0658128
0.055913
0.0718084
0.0772549
0.0803196
0.077648
0.069891
0.0608926
0.0521085
0.0601919
0.0634866
0.0635362
0.0609888
0.056585
0.0510686
0.0449742
0.0708961
0.0751003
0.0745228
0.0705257
0.064465
0.0574056
0.0500919
0.0793453
0.0852189
0.0852173
0.0797389
0.07165
0.0628544
0.0542078
0.0824791
0.0908846
0.0928064
0.0868874
0.0769967
0.066588
0.0568384
0.0777041
0.0863309
0.0915123
0.0885066
0.0787112
0.0676707
0.0574659
0.074551
0.081303
0.0880962
0.0850941
0.0761133
0.0656101
0.0558233
0.0711865
0.0766204
0.0793379
0.0767167
0.0694207
0.0606969
0.0520187
0.0600974
0.0634393
0.0635184
0.060949
0.0564813
0.0509013
0.0447675
0.0707836
0.0751314
0.0746623
0.0706293
0.0644429
0.0572773
0.0498935
0.0804746
0.086304
0.0861793
0.0802236
0.0717599
0.0627804
0.0540292
0.0816766
0.0853288
0.0933539
0.0879972
0.0772629
0.0665675
0.0566796
0.0767812
0.0854107
0.0943386
0.0904901
0.0792253
0.0676974
0.0573213
0.0734081
0.0804432
0.0888431
0.0868979
0.0763213
0.0655603
0.0556672
0.0702864
0.077242
0.0804067
0.0773068
0.0693839
0.0605835
0.0518573
0.060135
0.0634794
0.063539
0.0609246
0.0564238
0.0508677
0.0448323
0.0707043
0.0751636
0.0747663
0.0706683
0.0643923
0.0571909
0.0498604
0.0801031
0.0863441
0.0862462
0.0803145
0.0717542
0.0626803
0.0539381
0.0822856
0.0873182
0.093481
0.0880656
0.0772788
0.0664666
0.0565608
0.0769005
0.0798685
0.0885672
0.0906739
0.0791752
0.067593
0.0571957
0.0754538
0.0800653
0.0879683
0.086707
0.0762667
0.0654564
0.0555531
0.0710416
0.0780771
0.080776
0.0771503
0.0693252
0.0604916
0.0517761
0.0601939
0.0635032
0.0634952
0.0608821
0.0564961
0.0511749
0.0454943
0.0707999
0.0752959
0.0747312
0.0704905
0.0642488
0.0572503
0.0502548
0.0800796
0.0866077
0.0864053
0.0802189
0.0715029
0.0625725
0.0541468
0.0814592
0.087396
0.0920528
0.0880308
0.077041
0.0662742
0.0566566
0.0803881
0.0802857
0.0901978
0.0903175
0.0789969
0.0673863
0.0572448
0.0779115
0.0803608
0.0880538
0.0867381
0.0761124
0.0652775
0.0556138
0.0706232
0.0779026
0.0804828
0.0769826
0.0691239
0.0603668
0.0519043
0.039201
0.0346056
0.0302108
0.0260196
0.021973
0.0178963
0.0132541
0.00560416
0.0432799
0.0376581
0.0325286
0.0277739
0.0232781
0.0188359
0.0138797
0.00581092
0.0466018
0.0402666
0.0345499
0.0293202
0.0244367
0.0196723
0.0144315
0.00601928
0.0487349
0.041986
0.0359297
0.0304181
0.0252964
0.0203245
0.0148877
0.00623188
0.0492569
0.0424957
0.0364278
0.0308945
0.0257378
0.0207147
0.0152028
0.00643445
0.048018
0.0417262
0.0360076
0.0307218
0.0257345
0.0208179
0.0153563
0.00662229
0.0452585
0.0399493
0.034859
0.0300085
0.0253335
0.0206365
0.0153192
0.00678048
0.0391391
0.0345498
0.0301586
0.0259722
0.0219327
0.0178652
0.0132343
0.00561349
0.043201
0.0375933
0.0324683
0.0277181
0.0232299
0.018798
0.0138539
0.00581761
0.0464983
0.0401919
0.0344844
0.0292603
0.0243847
0.0196311
0.0144033
0.00602389
0.0486064
0.0419035
0.0358634
0.0303594
0.0252457
0.0202839
0.0148598
0.00623517
0.0491145
0.0424112
0.036366
0.0308425
0.0256932
0.0206788
0.015178
0.00643703
0.0478821
0.041648
0.0359551
0.0306804
0.0256996
0.0207895
0.0153361
0.00662407
0.0451424
0.0398806
0.0348165
0.0299786
0.0253099
0.020617
0.0153043
0.00678047
0.0390787
0.0344878
0.0301041
0.0259323
0.0219112
0.0178616
0.0132437
0.00561077
0.0431376
0.0375208
0.0323995
0.027664
0.0231969
0.018787
0.0138605
0.00581658
0.0464348
0.0401136
0.0344052
0.0291933
0.0243385
0.0196081
0.0144002
0.0060199
0.0485422
0.0418243
0.0357799
0.0302844
0.0251887
0.0202486
0.0148442
0.00622579
0.0490466
0.0423343
0.0362847
0.0307668
0.0256318
0.0206358
0.0151525
0.00642302
0.0478102
0.0415755
0.0358812
0.0306109
0.0256408
0.0207447
0.0153054
0.00660728
0.0450705
0.0398151
0.0347539
0.0299205
0.0252593
0.0205758
0.0152729
0.00676072
0.0388794
0.0343099
0.0299592
0.0258254
0.0218395
0.0178151
0.0132099
0.00564443
0.0429231
0.0373202
0.0322325
0.0275393
0.0231125
0.0187311
0.0138161
0.00584163
0.0462177
0.0399003
0.0342219
0.0290538
0.024244
0.0195477
0.0143559
0.00604498
0.0483308
0.0416107
0.0355923
0.0301396
0.0250908
0.0201897
0.0148083
0.00625716
0.0488459
0.042131
0.0361051
0.0306274
0.0255382
0.0205828
0.0151276
0.00646
0.047619
0.0413893
0.0357187
0.0304851
0.0255572
0.0207001
0.0152907
0.00664546
0.0448918
0.0396504
0.034613
0.0298121
0.0251877
0.0205396
0.0152663
0.0067945
0.0391
0.0346755
0.0304861
0.0265157
0.0226745
0.0187452
0.0141265
0.00608695
0.0430269
0.0375801
0.0326715
0.0281663
0.0239145
0.0196625
0.0147686
0.00633547
0.0462351
0.0400651
0.0345661
0.0295916
0.0249663
0.0204121
0.0152586
0.00652925
0.0482958
0.0417061
0.0358535
0.0305816
0.0257053
0.0209365
0.0155917
0.00667759
0.0487911
0.0421893
0.0363066
0.0309833
0.0260381
0.0211891
0.0157571
0.00678826
0.0475736
0.0414398
0.0358848
0.0307717
0.0259521
0.0211694
0.0157659
0.00687851
0.0448828
0.0397169
0.0347651
0.0300504
0.0255001
0.0208977
0.0156162
0.00694894
0.0402378
0.0361965
0.0324333
0.0289067
0.0254852
0.0218807
0.0173369
0.00880479
0.0438879
0.0388738
0.0344399
0.0304331
0.0266634
0.0228033
0.0180478
0.00916934
0.0468771
0.0411419
0.0361277
0.0316704
0.0275563
0.023433
0.0184661
0.00936778
0.0487883
0.0426122
0.0372247
0.0324534
0.0280773
0.0237379
0.0185954
0.00939467
0.0492066
0.0429816
0.0375206
0.0326483
0.0281521
0.0236865
0.0184325
0.00925556
0.0479795
0.0421699
0.0369734
0.0322395
0.0277924
0.0233221
0.0180544
0.00902579
0.045321
0.0404045
0.0357314
0.0313113
0.0270461
0.0226758
0.017483
0.00874708
0.0652593
0.0579198
0.0502916
0.0429272
0.0359825
0.0292511
0.021946
0.0109471
0.0725954
0.0636647
0.0548351
0.0463654
0.038499
0.0310519
0.0231805
0.0114791
0.0751062
0.0671295
0.0575082
0.048227
0.0397525
0.0318618
0.0236522
0.0115692
0.0769428
0.0669621
0.0568655
0.0476289
0.0392098
0.0313731
0.0232205
0.0112156
0.0718402
0.0623056
0.0531121
0.04466
0.0369374
0.029652
0.0219482
0.0104678
0.0637074
0.0552784
0.0474453
0.0402558
0.0335931
0.0271589
0.0201732
0.00953595
0.0540328
0.0474722
0.0412759
0.035448
0.0298967
0.0243747
0.0181911
0.00855045
0.0638543
0.0572089
0.0497479
0.0425017
0.0356562
0.0290105
0.0217822
0.0109139
0.06804
0.0624512
0.0541575
0.0458919
0.0381614
0.0308183
0.0230303
0.0114592
0.0709044
0.0655341
0.0567701
0.0477698
0.0394636
0.0316833
0.02355
0.0115712
0.0738118
0.0658071
0.056229
0.0472448
0.0389903
0.0312565
0.0231623
0.0112278
0.0709394
0.0616373
0.0526856
0.0444197
0.0368233
0.0296104
0.0219392
0.0104923
0.063101
0.0548928
0.0472315
0.0401648
0.0335786
0.0271825
0.020206
0.00957258
0.0537584
0.0473307
0.0412285
0.0354613
0.0299424
0.024431
0.0182412
0.00858911
0.0627343
0.0561604
0.0489344
0.0419084
0.0352358
0.028719
0.0215906
0.010862
0.0678221
0.0614033
0.0532443
0.0452247
0.0377013
0.0305031
0.0228184
0.0113927
0.0714748
0.0648092
0.0559007
0.0471544
0.039062
0.0314153
0.0233711
0.0115113
0.0734403
0.0646951
0.0554728
0.0467772
0.0387139
0.0310835
0.0230428
0.0111864
0.0700571
0.0609385
0.0522637
0.0441896
0.0367048
0.029545
0.0218942
0.0104808
0.0626023
0.0545793
0.0470771
0.0401083
0.0335718
0.0271933
0.0202149
0.00958443
0.0535853
0.0472545
0.041216
0.0354825
0.0299767
0.0244646
0.0182644
0.00860456
0.0621247
0.0552509
0.0482233
0.0414023
0.0348932
0.0284991
0.0214641
0.0108469
0.0674784
0.0606423
0.0523752
0.044602
0.037271
0.0302108
0.0226294
0.0113383
0.0704641
0.0639615
0.0550029
0.0465545
0.0386559
0.0311355
0.0231792
0.0114449
0.0731386
0.0641673
0.0549085
0.0463811
0.0384423
0.0308942
0.0229125
0.0111425
0.0701019
0.0606437
0.0520116
0.0440163
0.0365929
0.0294746
0.0218509
0.0104763
0.0623922
0.0544181
0.0469875
0.0400672
0.033561
0.027201
0.0202306
0.0096072
0.0534952
0.047203
0.0411965
0.0354849
0.0299949
0.0244937
0.0182968
0.00863568
0.0622096
0.0548862
0.0478823
0.041148
0.0347341
0.0284252
0.0214628
0.0109182
0.069715
0.060629
0.0520101
0.0442468
0.037001
0.030039
0.0225537
0.0113834
0.0738387
0.0643963
0.0547564
0.046227
0.0383759
0.0309421
0.0230816
0.0114788
0.0742612
0.0642445
0.054713
0.0461539
0.0382587
0.0307804
0.0228743
0.0111975
0.0699521
0.0605579
0.0519245
0.0439433
0.0365554
0.029483
0.021901
0.0105566
0.062388
0.0544365
0.0470188
0.0401179
0.033638
0.0273043
0.0203466
0.00969414
0.0535507
0.0472724
0.0412829
0.0355938
0.0301287
0.0246451
0.0184446
0.00871213
0.0617417
0.0545744
0.0476954
0.0410408
0.0347054
0.0284745
0.0215838
0.0116296
0.0697757
0.0601166
0.0516968
0.044036
0.036879
0.0300145
0.0226247
0.0120925
0.0740165
0.0640014
0.0544977
0.0460455
0.038272
0.0309406
0.0231832
0.012219
0.0738433
0.0639376
0.0545649
0.0460778
0.0382694
0.0308986
0.023089
0.0119945
0.0698385
0.0604783
0.0519181
0.044013
0.0367282
0.0297664
0.022268
0.0114193
0.0624188
0.0545054
0.0471593
0.040359
0.0339989
0.0277787
0.0208925
0.0106371
0.0536971
0.0474948
0.0416146
0.0360557
0.0307251
0.0253576
0.0192172
0.00977257
0.0524306
0.0460994
0.0400638
0.0343723
0.0289509
0.0235651
0.01754
0.00809962
0.0547263
0.0474515
0.0408475
0.0347782
0.0290909
0.0235215
0.0173834
0.00778007
0.0547582
0.047263
0.0405029
0.0343382
0.0286014
0.023024
0.0169268
0.00738718
0.0526654
0.0454904
0.0389886
0.0330436
0.0275034
0.0221147
0.0162249
0.00695807
0.0490136
0.0424883
0.0365375
0.0310587
0.0259184
0.020886
0.015344
0.00651388
0.0444516
0.038762
0.0335368
0.028671
0.0240526
0.0194759
0.0143643
0.00608184
0.0394231
0.0348121
0.0304075
0.0262028
0.0221362
0.0180319
0.0133543
0.00567695
0.0522213
0.046007
0.0400502
0.0344048
0.0290039
0.0236205
0.0175846
0.00812973
0.054495
0.0473641
0.0408421
0.0348132
0.02914
0.0235697
0.0174215
0.00780669
0.0545449
0.0471875
0.0404964
0.0343611
0.0286329
0.0230538
0.0169501
0.0074078
0.0525087
0.0454335
0.0389768
0.0330484
0.0275126
0.0221238
0.0162322
0.00697355
0.048913
0.0424439
0.0365157
0.0310447
0.0259082
0.0208794
0.0153414
0.0065269
0.0443849
0.0387198
0.0335035
0.0286422
0.0240292
0.0194602
0.0143586
0.00609562
0.039369
0.0347651
0.0303643
0.0261641
0.022104
0.0180081
0.0133406
0.00568924
0.0521209
0.0459772
0.0400606
0.0344322
0.0290344
0.0236458
0.017599
0.00813553
0.0544219
0.0473528
0.0408568
0.0348344
0.0291601
0.0235857
0.0174308
0.00781093
0.0545059
0.0471824
0.0404996
0.0343629
0.0286327
0.0230527
0.0169477
0.00740721
0.0524911
0.0454209
0.0389589
0.033027
0.0274923
0.022108
0.0162208
0.00696909
0.0488924
0.0424135
0.036478
0.0310071
0.0258776
0.0208589
0.0153296
0.00652116
0.0443476
0.0386718
0.0334537
0.0285994
0.0239992
0.0194442
0.0143537
0.00609173
0.0393153
0.0347081
0.0303128
0.026125
0.0220809
0.0180002
0.0133433
0.00568434
0.0520502
0.045933
0.0400362
0.0344234
0.0290399
0.0236636
0.0176232
0.00816412
0.0543638
0.0473024
0.0408149
0.034805
0.0291477
0.0235915
0.0174496
0.00784446
0.0544408
0.0471052
0.0404235
0.0343006
0.0285933
0.0230389
0.0169544
0.00744442
0.0523927
0.0453037
0.0388454
0.0329342
0.0274302
0.0220782
0.0162172
0.00701085
0.0487484
0.0422602
0.0363384
0.0308974
0.0258051
0.0208216
0.0153186
0.00656656
0.0441686
0.0385002
0.033308
0.0284905
0.0239291
0.0194066
0.0143369
0.00613822
0.0391279
0.0345412
0.0301779
0.0260274
0.0220187
0.0179652
0.0133244
0.00572699
0.0521008
0.0460027
0.0401306
0.0345491
0.0291976
0.0238427
0.0177968
0.00824253
0.0543929
0.0473484
0.0408957
0.0349347
0.029328
0.0238086
0.0176695
0.00795427
0.0544428
0.0471311
0.0405046
0.0344552
0.0288224
0.023324
0.0172514
0.00760163
0.0523719
0.0453341
0.0389605
0.033151
0.0277465
0.0224699
0.0166271
0.00723041
0.0487432
0.0423429
0.036537
0.0312237
0.026252
0.0213573
0.0158709
0.00685816
0.0442373
0.0386898
0.033637
0.0289644
0.0245346
0.0201029
0.0150347
0.00649204
0.039329
0.0348759
0.0306602
0.0266579
0.0227779
0.018805
0.0141427
0.00611404
0.052246
0.0462637
0.0405425
0.0351361
0.0299632
0.0247614
0.0187932
0.0094531
0.0545216
0.0476427
0.0414008
0.0356773
0.0303119
0.025002
0.0189723
0.00941225
0.0545732
0.047486
0.0411294
0.0353782
0.0300493
0.024819
0.0188923
0.00933813
0.0525803
0.0458233
0.0397739
0.0343185
0.0292744
0.0243162
0.0186444
0.00925566
0.0491365
0.0430646
0.0376292
0.0327153
0.0281441
0.0235952
0.0182763
0.00914401
0.044925
0.0397424
0.0350914
0.0308449
0.0268332
0.0227493
0.0178197
0.00898806
0.0404154
0.0363245
0.0325125
0.028932
0.0254541
0.0217972
0.0172183
0.00873375
0.0463777
0.0409505
0.0357865
0.0308653
0.0261076
0.021306
0.0158497
0.00711796
0.054044
0.0471897
0.0408263
0.0348983
0.0292854
0.0237405
0.0175871
0.00794759
0.0617166
0.0535092
0.045896
0.0389005
0.0323969
0.026101
0.0192661
0.00878903
0.0683309
0.058842
0.0501635
0.0422465
0.0349913
0.028082
0.0207065
0.00959219
0.0718842
0.0617645
0.0525992
0.0442165
0.0365696
0.029346
0.0216928
0.0102585
0.0706129
0.0613975
0.0525237
0.0443291
0.0367954
0.0296451
0.0220346
0.0106626
0.0660743
0.0580467
0.0501853
0.0427271
0.0357459
0.0290061
0.0217093
0.0107464
0.0462488
0.0408824
0.0357523
0.0308479
0.0260974
0.0212978
0.0158419
0.00712287
0.0537437
0.0470296
0.0407532
0.0348726
0.0292815
0.0237432
0.0175889
0.00795473
0.0611233
0.0531693
0.0457284
0.0388342
0.0323808
0.026103
0.0192685
0.00879951
0.0673376
0.0582716
0.0498601
0.0421077
0.0349405
0.0280692
0.0207024
0.00959987
0.0707404
0.0610804
0.0521962
0.0440003
0.0364656
0.0292997
0.0216695
0.0102652
0.0698481
0.0608024
0.0521057
0.0440519
0.0366226
0.0295414
0.0219741
0.010665
0.0653133
0.0574824
0.0497386
0.0423819
0.0354891
0.028823
0.021589
0.0107299
0.0461796
0.0408266
0.035703
0.0308029
0.026057
0.0212625
0.0158116
0.00710851
0.0536182
0.0469571
0.0407078
0.0348379
0.0292512
0.0237159
0.0175638
0.0079401
0.0608216
0.0530078
0.0456479
0.0387899
0.0323493
0.0260738
0.0192377
0.00878367
0.0666918
0.0579256
0.0496793
0.0420125
0.0348819
0.0280228
0.0206584
0.00957596
0.0695987
0.0604427
0.0518366
0.0437962
0.0363407
0.029211
0.0215985
0.0102321
0.0686827
0.0599742
0.0515639
0.043703
0.0363963
0.0293892
0.0218684
0.0106292
0.0641752
0.0565622
0.0490508
0.0418908
0.0351473
0.0285893
0.0214344
0.0106862
0.0460284
0.0406859
0.0355833
0.0307109
0.0259964
0.0212328
0.015808
0.00713355
0.0534888
0.0468283
0.0405916
0.0347428
0.0291841
0.0236792
0.017554
0.00795393
0.0607284
0.0528945
0.045536
0.0386916
0.0322741
0.0260261
0.0192142
0.00878688
0.0668065
0.0578457
0.0495505
0.0418895
0.0347821
0.0279522
0.0206144
0.00956555
0.0698937
0.0602925
0.0516186
0.0436012
0.0361885
0.0291015
0.0215245
0.010207
0.0685964
0.0594794
0.0511449
0.0433877
0.036174
0.0292399
0.0217736
0.0106034
0.0632309
0.0556877
0.0484218
0.0414596
0.0348614
0.0284062
0.0213264
0.0106668
0.0459949
0.0407097
0.0356716
0.0308661
0.0262101
0.0214834
0.0160537
0.00723763
0.053407
0.0467774
0.0405883
0.0347982
0.0292987
0.0238397
0.0177291
0.00804505
0.0606371
0.0528064
0.0454731
0.038671
0.0323072
0.0261098
0.0193273
0.008864
0.0666846
0.0577167
0.0494295
0.0418026
0.0347464
0.0279715
0.020675
0.00963254
0.0698013
0.060101
0.0514218
0.043441
0.0360867
0.029064
0.0215417
0.0102621
0.0683839
0.0591734
0.0508734
0.0431779
0.0360386
0.0291762
0.0217704
0.0106548
0.0629715
0.0553574
0.0481254
0.0412427
0.0347302
0.0283511
0.0213324
0.0107245
0.0463351
0.0412514
0.0364421
0.0318761
0.0274513
0.0229142
0.0175636
0.00879431
0.0534325
0.0469728
0.04099
0.0354257
0.0301491
0.0248811
0.0188733
0.00939557
0.0605009
0.0527821
0.0456094
0.0390105
0.0328568
0.0268426
0.0201703
0.0100278
0.0664967
0.0575883
0.0494059
0.0419457
0.0350765
0.0284684
0.0212774
0.010642
0.0695368
0.0599
0.0513119
0.0434628
0.0362638
0.0293826
0.0219553
0.0111464
0.0680115
0.0589049
0.0507228
0.0431388
0.0361196
0.0293674
0.0220429
0.0114434
0.0625054
0.0551031
0.0479748
0.0411764
0.0347527
0.0284593
0.0215119
0.011455
0.00180838
0.00417379
0.00524959
0.00573548
0.00576538
0.00544983
0.00490211
0.00422975
0.00178375
0.00413138
0.00520803
0.00570049
0.00573874
0.00543058
0.00488743
0.00421617
0.00178178
0.00411755
0.00518703
0.00567387
0.00570822
0.00539705
0.00485032
0.00417352
0.00181717
0.00416818
0.00522776
0.00569696
0.00571199
0.00538353
0.00482363
0.00413805
0.00188758
0.00428586
0.00533861
0.00578385
0.00576897
0.00541202
0.00482946
0.00412795
0.0019902
0.00447423
0.00553087
0.00595375
0.00590304
0.00550524
0.00488371
0.00414978
0.00212286
0.00471648
0.00580795
0.00622956
0.00615531
0.00571867
0.00505098
0.00427263
0.00242456
0.00568807
0.00709783
0.00764799
0.00755
0.00697935
0.00611322
0.00511244
0.00238742
0.00562218
0.00703292
0.00759229
0.00750675
0.00694787
0.00608995
0.0050927
0.00237824
0.00559213
0.00699264
0.00754578
0.00745806
0.00689993
0.00604329
0.00504453
0.00242122
0.0056548
0.00704054
0.00756978
0.0074567
0.00687763
0.00600806
0.00500432
0.0025108
0.00581153
0.00718599
0.0076816
0.00752653
0.00690854
0.00601063
0.00498954
0.00264473
0.0060621
0.00744199
0.00790729
0.00770231
0.00702656
0.00607355
0.00500742
0.00283128
0.00638388
0.0078166
0.00828376
0.00804965
0.00732041
0.00629959
0.00516617
0.00340865
0.00791518
0.00975406
0.0103283
0.00998523
0.00899879
0.00764525
0.00616354
0.00335865
0.0078214
0.00966069
0.0102465
0.00992073
0.00895159
0.00761076
0.00613684
0.00333663
0.00777134
0.00959569
0.010173
0.00984532
0.00888022
0.0075468
0.0060751
0.00338636
0.00785377
0.00965843
0.0102029
0.00983909
0.00884476
0.00749767
0.00603015
0.00349489
0.00806649
0.00985762
0.0103568
0.00993234
0.00888087
0.00749522
0.00600711
0.00365328
0.0084036
0.0102026
0.0106648
0.0101734
0.00904049
0.00757547
0.00602025
0.00387946
0.00883077
0.010696
0.0111693
0.0106494
0.00944909
0.00788763
0.00622699
0.00527215
0.0113327
0.0136348
0.0141055
0.0133082
0.011648
0.00954715
0.0073621
0.00522501
0.0112137
0.0135106
0.0139915
0.0132152
0.0115786
0.00949364
0.00731866
0.00518616
0.0111436
0.0134186
0.0138856
0.0131042
0.0114714
0.00939928
0.00722672
0.00524251
0.0112628
0.0135152
0.0139373
0.0131005
0.011417
0.00931938
0.00716278
0.00536314
0.0115556
0.0138016
0.0141679
0.0132448
0.011473
0.00932124
0.00714209
0.00551841
0.0119899
0.0142619
0.0145959
0.0135906
0.0117057
0.00943998
0.00716708
0.00569339
0.0125123
0.0148648
0.0152398
0.0142275
0.0122729
0.00988026
0.00744882
0.00948794
0.0168474
0.0193754
0.0194133
0.0177881
0.0150359
0.011753
0.00852042
0.00949347
0.0167233
0.0192264
0.0192585
0.0176501
0.0149293
0.011666
0.00844011
0.00946904
0.016644
0.0191096
0.0191164
0.0174953
0.0147711
0.0115109
0.00831687
0.00954752
0.0168269
0.0192681
0.0192167
0.0175163
0.0147033
0.0113886
0.00822836
0.00966367
0.017223
0.0196829
0.0195741
0.0177575
0.0148027
0.0114166
0.00825786
0.00972348
0.017721
0.020262
0.0201571
0.0182541
0.0151373
0.0115879
0.0083713
0.00968881
0.0181994
0.02089
0.0209066
0.0190657
0.0159157
0.0122266
0.0087904
0.0194194
0.0259811
0.0277347
0.0266328
0.023526
0.019003
0.0139233
0.0098112
0.0194192
0.0258442
0.0275676
0.0264243
0.0233087
0.0188101
0.0137347
0.00958441
0.0194474
0.0257703
0.0274274
0.0262307
0.0230883
0.0185695
0.0134929
0.00942892
0.0195731
0.0260216
0.0276587
0.0263917
0.0231571
0.0185106
0.0133414
0.00935435
0.0196705
0.0264922
0.0282096
0.0269039
0.02352
0.0186468
0.0134211
0.00951801
0.0195716
0.026943
0.0288483
0.0276571
0.024209
0.0190869
0.0136765
0.00982365
0.0192056
0.0272003
0.0293629
0.0284466
0.0252179
0.0201636
0.014554
0.0103475
0.00354744
0.00772653
0.00965368
0.0106299
0.0108913
0.0105712
0.00980506
0.00873882
0.00358893
0.0078265
0.00978865
0.0107931
0.0110764
0.01077
0.0100076
0.00893437
0.00352709
0.00772087
0.00965868
0.0106472
0.0109197
0.0106071
0.00984344
0.00877461
0.00336771
0.0074104
0.00925733
0.010177
0.0103972
0.0100517
0.00927881
0.00822734
0.00313583
0.00694128
0.0086442
0.00944936
0.00957909
0.00917388
0.0083804
0.00735183
0.00292713
0.0064807
0.00803914
0.00873286
0.00877934
0.00832565
0.00752512
0.00653094
0.0027529
0.00609309
0.00753816
0.00815605
0.00815726
0.00768912
0.00690293
0.00594666
0.00460981
0.010154
0.0126525
0.0138366
0.01404
0.0134522
0.0122717
0.0107217
0.0046597
0.0102773
0.0128181
0.0140381
0.0142707
0.013703
0.0125297
0.0109709
0.0045951
0.0101733
0.0126894
0.0138911
0.0141106
0.0135343
0.0123571
0.0108006
0.00442148
0.00982912
0.0122388
0.0133546
0.0135056
0.0128827
0.0116884
0.0101495
0.00415529
0.0092968
0.0115237
0.0124921
0.0125216
0.0118119
0.0105793
0.00905843
0.00391407
0.00875009
0.0107956
0.0116188
0.0115352
0.0107569
0.0095149
0.00804802
0.00369474
0.00826717
0.0101674
0.0108922
0.0107502
0.00995852
0.00874766
0.00734757
0.00606974
0.013438
0.0166858
0.0181009
0.018178
0.0171768
0.0153725
0.0131098
0.00612386
0.0135717
0.016869
0.0183281
0.0184448
0.0174749
0.0156867
0.0134184
0.00605772
0.0134739
0.016746
0.0181804
0.0182807
0.0172998
0.0155059
0.0132387
0.00586998
0.0131123
0.0162533
0.0175786
0.01759
0.0165449
0.0147243
0.0124768
0.00557789
0.0125308
0.0154413
0.0165791
0.0164294
0.01526
0.0133754
0.0111307
0.00529777
0.0119024
0.0145782
0.0155267
0.0152199
0.013946
0.0120417
0.00988044
0.00502169
0.0113172
0.0137996
0.0146151
0.0142243
0.0129311
0.0110789
0.00903571
0.00803216
0.0179873
0.0221076
0.0237349
0.0235915
0.0219869
0.0192555
0.0159298
0.00807401
0.0181004
0.0222758
0.0239581
0.0238708
0.0223156
0.0196163
0.0162897
0.00801069
0.0180119
0.0221462
0.0237956
0.0236887
0.0221224
0.0194188
0.0160945
0.00781711
0.0176448
0.0216134
0.0231206
0.0228976
0.0212429
0.0185043
0.0152198
0.00752224
0.0170389
0.0207116
0.0219828
0.0215498
0.0197168
0.0168816
0.0135768
0.00722891
0.0163384
0.01971
0.0207377
0.0200826
0.0180802
0.0151916
0.0120041
0.00693909
0.0156557
0.0187764
0.0196165
0.0188205
0.0167732
0.013952
0.0109625
0.0107068
0.0244119
0.029348
0.0310715
0.0306017
0.0281633
0.0240645
0.0191027
0.0106743
0.02445
0.0294593
0.0312554
0.0308715
0.0285117
0.024464
0.0194946
0.0106297
0.0243674
0.0292852
0.0310435
0.0306387
0.028274
0.0242381
0.0192788
0.0105127
0.0240335
0.0286786
0.0302679
0.0297037
0.0272052
0.0231231
0.018279
0.0103664
0.0234328
0.0276725
0.0289775
0.0281402
0.025365
0.0210796
0.0162022
0.0103177
0.0226556
0.0265578
0.0275475
0.0263833
0.023319
0.0189169
0.0142269
0.01035
0.0218873
0.025517
0.0262257
0.0247908
0.0216082
0.0172904
0.0129334
0.0171536
0.0336863
0.0386784
0.0403658
0.0394983
0.0358492
0.0295903
0.0220093
0.0169118
0.0336211
0.0387258
0.0405112
0.0397735
0.0362547
0.0300393
0.0223955
0.0169645
0.033475
0.0384674
0.0402039
0.0394359
0.035909
0.0297571
0.0221682
0.0172278
0.033123
0.0377797
0.0392989
0.0382782
0.0345154
0.0283255
0.0210814
0.0176336
0.0324871
0.0366597
0.0378188
0.0364299
0.032215
0.0254241
0.0183237
0.0183669
0.0316991
0.0355202
0.0362152
0.0342785
0.0295247
0.0226706
0.0161287
0.0190504
0.0310122
0.0345185
0.0347797
0.0323063
0.0272726
0.0206559
0.0146691
0.00259463
0.00575148
0.0071027
0.00766561
0.0076405
0.00717237
0.00640939
0.00549414
0.00242587
0.00540222
0.00666839
0.00718545
0.00714191
0.00667754
0.00593587
0.00505678
0.00225448
0.00504801
0.00623468
0.00671374
0.00666119
0.00621097
0.00549974
0.00466062
0.00208616
0.00470235
0.00581809
0.00626631
0.00621123
0.00578181
0.00510965
0.00432208
0.00196111
0.00445041
0.00552237
0.00596137
0.00592103
0.00552485
0.0048984
0.00416044
0.00187747
0.00428859
0.00534771
0.00579742
0.00578339
0.00542399
0.00483959
0.00414288
0.00183455
0.0042165
0.0052798
0.00574711
0.00575749
0.00542488
0.00486527
0.00418792
0.00347958
0.00782161
0.00959736
0.0102501
0.0100754
0.00928876
0.0081166
0.00677893
0.0032469
0.00736103
0.00902307
0.00961791
0.00942263
0.00864662
0.00750806
0.00621985
0.00301874
0.00688224
0.00844291
0.00899157
0.00879024
0.00804232
0.00695453
0.00572493
0.0027922
0.00640534
0.00787408
0.00838362
0.00818126
0.00746496
0.00643447
0.00527808
0.00262337
0.00605837
0.00746787
0.00796374
0.00778015
0.00710889
0.00614356
0.00506005
0.00251327
0.00584268
0.00723208
0.00773862
0.00758676
0.00696154
0.00605056
0.00502397
0.00245607
0.00574425
0.00713654
0.00766283
0.00754006
0.00694794
0.00606748
0.00506244
0.00473891
0.0107525
0.0130658
0.0137833
0.0133446
0.0120597
0.0102685
0.00831876
0.00444393
0.0101529
0.0123199
0.0129627
0.0124977
0.0112315
0.00949272
0.00760845
0.00415733
0.00951499
0.011555
0.0121392
0.0116694
0.0104521
0.00880044
0.00700782
0.00386569
0.00886849
0.0107923
0.0113268
0.0108571
0.00968586
0.00811906
0.00643045
0.00364589
0.00839669
0.0102416
0.0107554
0.0103081
0.00919471
0.00771744
0.00613439
0.0035069
0.00811292
0.00992741
0.0104508
0.0100416
0.00898437
0.00757137
0.00605689
0.0034361
0.00798138
0.00979707
0.0103419
0.00996747
0.00895322
0.00758133
0.00609347
0.00663062
0.0149619
0.0178636
0.0185655
0.017686
0.0156376
0.0129095
0.0100695
0.00637505
0.0141883
0.0169237
0.0175227
0.016599
0.0145736
0.0119195
0.00917443
0.00608397
0.0133645
0.0159427
0.0164586
0.0155186
0.0135635
0.0110584
0.00846043
0.00574851
0.0125237
0.0149562
0.0154062
0.0144627
0.0125687
0.0101973
0.00775185
0.00548933
0.0119032
0.014231
0.0146486
0.0137305
0.0119073
0.00965348
0.00735488
0.00533269
0.0115448
0.0138271
0.0142497
0.0133775
0.0116228
0.0094328
0.00719345
0.0052683
0.0113917
0.01367
0.0141103
0.0132759
0.0115783
0.00945282
0.00725735
0.010332
0.0210531
0.0244498
0.0249497
0.0233506
0.0201298
0.0159548
0.0118479
0.0102615
0.0201578
0.023324
0.0236559
0.0219631
0.0187465
0.0146466
0.0107329
0.010076
0.019174
0.0221205
0.0223145
0.0205628
0.0174188
0.0135582
0.00990359
0.00977317
0.0181548
0.0209077
0.0210025
0.0192324
0.0161597
0.0125229
0.00910033
0.00952764
0.0173861
0.0199969
0.0200335
0.0182913
0.0153234
0.0118466
0.00858383
0.00939904
0.0169743
0.0195138
0.0195404
0.0178537
0.0149818
0.0115661
0.0083157
0.00942114
0.0168635
0.0193794
0.0194011
0.0177406
0.0149386
0.0116242
0.00840269
0.0194629
0.0302188
0.0334057
0.0333063
0.0304956
0.0253504
0.0189915
0.0134542
0.0196981
0.0293346
0.032149
0.031732
0.0286911
0.023471
0.0172603
0.0122314
0.0196558
0.0282831
0.0307491
0.0300761
0.0269183
0.0217589
0.0158977
0.0113023
0.0193618
0.0271401
0.029317
0.0284538
0.02524
0.0201838
0.0146454
0.0104949
0.0191201
0.026263
0.0282246
0.0272387
0.0240356
0.0192078
0.0139084
0.00992211
0.019086
0.0258766
0.0277036
0.0266674
0.0235389
0.0188626
0.0136078
0.00959149
0.0193339
0.0259429
0.0276918
0.0265951
0.023461
0.0188778
0.0137761
0.00982007
0.00226012
0.00499965
0.00614743
0.00659156
0.00651616
0.00605852
0.00535341
0.00452436
0.0024083
0.00532834
0.00655251
0.00703682
0.00697486
0.00650901
0.00577992
0.00491524
0.00257089
0.00568998
0.00701308
0.00755513
0.00751983
0.00705379
0.00630354
0.00540617
0.00276052
0.00609188
0.00752585
0.00813455
0.00813181
0.00766765
0.00689497
0.00595966
0.00296461
0.00652634
0.00808796
0.00878459
0.00883883
0.00840002
0.00762027
0.00664792
0.00318657
0.00699058
0.0086933
0.00949633
0.00962767
0.00923098
0.00845278
0.00744111
0.00340498
0.00742956
0.0092649
0.0101702
0.0103786
0.0100274
0.00925659
0.00821361
0.0030156
0.00676119
0.00826818
0.00876682
0.00853381
0.00777867
0.00671014
0.00551255
0.00321604
0.00719827
0.00880474
0.00935282
0.00913165
0.00835708
0.00724823
0.00599833
0.00343636
0.00768933
0.00942478
0.0100456
0.0098525
0.00906518
0.00791122
0.00660415
0.00368593
0.00821578
0.0100944
0.0107982
0.0106402
0.00984154
0.00863757
0.00725936
0.00393409
0.0087534
0.010792
0.0116077
0.0115222
0.0107537
0.00953515
0.0080998
0.00418967
0.00929667
0.0115145
0.0124711
0.0124931
0.0117877
0.0105762
0.0090907
0.00444341
0.0098045
0.0121908
0.0132829
0.0134131
0.0127777
0.011584
0.010061
0.00411105
0.00931147
0.0112705
0.0117883
0.0112767
0.010046
0.00842126
0.00667862
0.00437488
0.00987714
0.0119652
0.0125459
0.0120464
0.0107805
0.00908996
0.00726837
0.00467461
0.0105294
0.0127933
0.0134699
0.0130056
0.0117124
0.00993787
0.00801659
0.00500636
0.0112132
0.0136719
0.0144573
0.0140376
0.0127194
0.0108529
0.00880523
0.00531148
0.011867
0.0145379
0.0154684
0.0151432
0.0138619
0.0119699
0.00983565
0.00560016
0.0124853
0.0153926
0.0165099
0.0163355
0.0151505
0.0132757
0.0110805
0.0058826
0.0130504
0.0161657
0.0174619
0.0174387
0.0163634
0.0145274
0.012291
0.00587638
0.013072
0.0155316
0.0159798
0.0150021
0.0130238
0.0105361
0.00797553
0.00614567
0.0137754
0.0163941
0.0169306
0.0159765
0.0139445
0.0113525
0.00867631
0.00650596
0.0146212
0.0174701
0.0181363
0.0172386
0.0151756
0.0124529
0.00961054
0.00690604
0.0155126
0.0186167
0.0194313
0.0186068
0.0165171
0.0136517
0.0105959
0.00724984
0.0163135
0.0196977
0.0207006
0.0200058
0.0179643
0.0150573
0.0118683
0.00755599
0.0170054
0.0207044
0.0219515
0.0214677
0.0195774
0.0167004
0.0134422
0.00784618
0.0176013
0.0215566
0.023034
0.0227565
0.0210404
0.0182461
0.0149483
0.00960491
0.01869
0.0215423
0.0217034
0.0199617
0.0168189
0.0129764
0.00937263