/*--------------------------------*- C++ -*----------------------------------*\
| =========                 |                                                 |
| \\      /  F ield         | OpenFOAM: The Open Source CFD Toolbox           |
|  \\    /   O peration     | Version:  plus.master.MPPICInterFoam            |
|   \\  /    A nd           | Web:      www.OpenFOAM.com                      |
|    \\/     M anipulation  |                                                 |
\*---------------------------------------------------------------------------*/
FoamFile
{
    version     2.0;
    format      ascii;
    class       volScalarField;
    location    "13";
    object      rho;
}
// * * * * * * * * * * * * * * * * * * * * * * * * * * * * * * * * * * * * * //

dimensions      [1 -3 0 0 0 0 0];

internalField   nonuniform List<scalar> 
11822
(
1000
1000
1000
1000
1000
1000
1000
873.65
876.986
910.057
987.303
1000
1000
1000
403.937
378.105
497.729
825.506
989.118
1000
1000
310.702
315.298
312.713
542.548
934.704
1000
1000
501.194
451.443
353.851
456.832
905.563
1000
1000
457.937
311.952
311.75
468.163
907.12
1000
1000
434.716
345.328
375.357
632.125
954.114
1000
1000
1000
1000
1000
1000
1000
1000
1000
875.361
881.257
915.393
986.886
1000
1000
1000
372.05
378.086
502.723
832.844
988.77
1000
1000
310.452
479.579
313.072
555.45
940.872
1000
1000
312.169
590.973
590.547
462.201
907.545
1000
1000
321.434
327.379
311.691
463.748
913.944
1000
1000
322.922
314.499
311.767
633.818
958.424
1000
1000
1000
1000
1000
1000
1000
1000
1000
899.65
906.976
929.161
986.92
999.992
1000
1000
423.017
417.937
555.629
862.232
988.156
1000
1000
310.52
470.57
407.571
620.59
951.17
1000
1000
310.455
590.874
590.825
554.302
927.729
1000
1000
311.473
323.209
310.238
527.717
934.823
1000
1000
318.895
319.289
339.083
692.545
966.666
1000
1000
1000
1000
1000
1000
1000
1000
1000
930.111
938.801
937.36
986.989
999.988
1000
1000
559.747
494.352
623.015
888.049
986.826
1000
1000
329.221
302.07
426.618
677.381
955.068
1000
1000
311.12
590.83
540.862
634.559
952.624
1000
1000
311.381
296.505
309.543
644.132
947.348
1000
1000
394.25
403.458
454.519
782.927
968.912
1000
1000
999.999
1000
1000
1000
1000
1000
1000
933.802
943.27
934.73
986.078
999.995
1000
1000
613.925
512.706
628.387
888.094
984.16
1000
1000
385.239
273.474
400.244
674.937
951.847
1000
1000
408.433
415.157
297.579
620.89
954.7
1000
1000
473.258
286.694
309.425
672.02
945.093
1000
1000
523.556
486.263
528.906
805.505
966.363
1000
1000
1000
1000
1000
1000
1000
1000
1000
919.73
931.129
918.753
982.504
999.996
1000
1000
576.686
478.283
592.003
865.946
979.322
1000
1000
390.997
272.344
321.211
632.376
937.19
1000
1000
592.223
273.404
274.825
532.852
941.536
1000
1000
625.568
284.144
310.53
637.255
927.085
1000
1000
524.229
458.842
506.98
787.116
954.611
1000
1000
1000
1000
1000
1000
1000
1000
999.798
999.636
1000
1000
1000
1000
1000
1000
1000
1000
1000
1000
1000
1000
1000
1000
1000
1000
1000
1000
1000
1000
1000
1000
1000
1000
1000
1000
1000
1000
1000
1000
1000
1000
1000
1000
1000
1000
1000
1000
1000
999.937
1000
1000
1000
1000
1000
1000
1000
998.707
1000
1000
1000
1000
1000
1000
999.737
999.715
1000
1000
1000
1000
1000
1000
1000
1000
1000
1000
1000
1000
1000
1000
1000
1000
1000
1000
1000
1000
1000
1000
1000
1000
1000
1000
1000
1000
1000
1000
1000
1000
1000
1000
1000
1000
1000
1000
1000
999.986
1000
1000
1000
1000
1000
1000
1000
998.979
1000
1000
1000
1000
1000
1000
999.704
999.776
1000
1000
1000
1000
1000
1000
1000
1000
1000
1000
1000
1000
1000
1000
1000
1000
1000
1000
1000
1000
1000
1000
1000
999.999
1000
1000
1000
1000
1000
1000
1000
1000
1000
1000
1000
1000
1000
1000
1000
1000
1000
1000
1000
1000
1000
1000
1000
999.536
1000
1000
1000
1000
1000
1000
999.707
999.873
1000
1000
1000
1000
1000
1000
1000
1000
1000
1000
1000
1000
1000
1000
1000
1000
1000
1000
1000
1000
1000
1000
1000
999.999
1000
1000
1000
1000
1000
1000
1000
1000
1000
1000
1000
1000
1000
1000
1000
1000
1000
1000
1000
1000
1000
999.999
1000
999.689
1000
1000
1000
1000
1000
1000
999.756
999.868
1000
1000
1000
1000
1000
1000
1000
1000
1000
1000
1000
1000
1000
1000
1000
1000
1000
1000
1000
1000
1000
1000
1000
999.999
1000
1000
1000
1000
1000
1000
1000
1000
1000
1000
1000
1000
1000
999.999
1000
1000
1000
1000
1000
1000
1000
999.998
1000
999.579
1000
1000
1000
1000
1000
1000
999.893
999.972
1000
1000
1000
1000
1000
1000
1000
1000
1000
1000
1000
1000
1000
1000
1000
1000
1000
1000
1000
1000
1000
1000
1000
1000
1000
1000
1000
1000
1000
1000
1000
1000
1000
1000
1000
1000
1000
999.999
1000
1000
1000
1000
1000
1000
1000
999.999
1000
999.607
653.115
971.145
1000
1000
999.999
1000
1000
1000
559.575
686.408
993.611
1000
1000
1000
1000
1000
496.76
623.145
981.408
1000
1000
1000
1000
1000
435.246
719.782
999.448
1000
999.996
1000
1000
999.997
654.763
969.267
1000
1000
1000
1000
999.992
999.979
976.132
999.813
1000
1000
1000
1000
999.997
999.998
1000
1000
999.998
1000
1000
1000
1000
1000
618.97
971.809
1000
1000
999.997
1000
1000
1000
333.203
647.376
994.859
1000
1000
1000
1000
1000
312.228
553.939
979.4
1000
1000
1000
1000
1000
313.777
685.875
999.457
1000
999.996
1000
1000
999.995
644.881
966.873
1000
1000
1000
1000
999.981
999.979
975.905
999.806
1000
1000
1000
1000
999.997
999.999
1000
999.999
999.998
1000
1000
1000
1000
1000
653.591
980.643
999.999
999.999
999.994
1000
1000
1000
323.935
688.682
997.83
1000
1000
1000
1000
1000
311.473
587.006
983.787
1000
1000
1000
1000
1000
328.637
720.444
999.932
1000
999.999
1000
999.998
999.968
689.355
972.899
1000
1000
1000
1000
999.98
999.982
979.656
999.814
1000
1000
1000
1000
999.998
1000
1000
999.998
999.998
1000
1000
1000
1000
1000
749.124
993.113
999.997
999.995
999.994
1000
1000
1000
456.532
800.53
999.736
1000
1000
1000
1000
1000
387.115
718.604
993.374
1000
1000
1000
1000
999.999
453.147
818.054
1000
1000
1000
1000
999.992
999.95
780.785
986.874
1000
1000
1000
1000
999.986
999.987
983.536
999.849
1000
1000
1000
1000
999.999
1000
1000
999.997
999.999
1000
1000
1000
1000
1000
797.728
996.967
999.999
999.995
999.996
1000
1000
1000
691.879
857.37
999.771
1000
1000
1000
1000
1000
667.719
826.345
998.776
1000
1000
1000
1000
999.996
597.779
868.901
1000
1000
1000
1000
999.976
999.95
811.013
992.749
1000
1000
1000
1000
999.991
999.991
983.234
999.872
1000
1000
1000
1000
999.999
1000
1000
999.998
999.999
1000
1000
1000
1000
999.968
785.585
996.284
999.999
999.998
999.999
1000
999.999
1000
694.006
840.177
999.793
1000
1000
1000
1000
1000
754.033
819.881
999.055
1000
1000
1000
999.997
999.991
589.298
856.289
1000
1000
1000
1000
999.954
999.95
790.431
990.63
1000
1000
1000
1000
999.973
999.991
978.642
999.833
1000
1000
1000
999.999
1000
999.978
1000
999.999
1000
1000
1000
1000
1000
999.945
1000
1000
1000
1000
1000
999.999
1000
1000
1000
1000
1000
999.989
999.957
999.998
1000
1000
1000
1000
999.643
999.622
999.97
1000
1000
1000
1000
1000
999.55
999.875
1000
1000
1000
999.857
1000
999.999
999.964
999.997
1000
1000
1000
999.931
1000
999.998
999.998
1000
1000
1000
999.712
999.82
1000
1000
1000
1000
1000
1000
998.957
997.417
1000
1000
1000
1000
1000
999.999
1000
1000
1000
1000
1000
999.923
999.958
1000
1000
1000
1000
1000
999.549
999.663
999.991
1000
1000
1000
1000
999.993
999.55
999.935
1000
1000
1000
999.698
1000
999.994
999.978
999.999
1000
1000
1000
999.882
1000
999.994
999.999
1000
1000
1000
998.994
999.798
1000
1000
1000
1000
1000
1000
998.785
997.418
1000
1000
1000
1000
999.999
999.999
1000
1000
1000
1000
1000
999.764
999.961
1000
1000
1000
1000
999.999
999.549
999.753
999.998
1000
1000
1000
1000
999.907
999.623
999.976
1000
1000
1000
999.696
1000
999.985
999.992
1000
999.999
1000
1000
999.912
1000
999.994
1000
1000
1000
1000
998.737
999.744
1000
1000
1000
1000
1000
1000
998.74
997.418
1000
1000
1000
1000
999.996
999.999
1000
999.998
1000
1000
999.993
999.752
999.971
1000
1000
1000
1000
999.993
999.548
999.821
1000
1000
1000
1000
999.999
999.698
999.814
999.994
1000
1000
1000
999.696
1000
999.98
999.999
1000
999.998
1000
999.997
999.955
1000
999.996
1000
999.997
1000
1000
998.737
999.472
1000
1000
1000
1000
1000
1000
998.737
997.418
1000
1000
1000
1000
999.995
999.999
1000
999.992
1000
1000
999.899
999.752
999.984
1000
1000
1000
1000
999.983
999.548
999.864
1000
1000
1000
1000
999.998
999.685
999.898
999.997
999.999
1000
1000
999.77
1000
999.976
1000
1000
999.998
1000
999.963
999.954
1000
999.999
999.999
999.99
1000
1000
999.257
998.995
1000
1000
1000
1000
1000
1000
998.909
997.418
1000
1000
1000
999.996
999.994
1000
1000
999.993
1000
1000
999.597
999.761
999.997
1000
1000
1000
1000
999.916
999.548
999.89
1000
1000
1000
1000
999.999
999.685
999.89
999.998
1000
1000
1000
999.971
1000
999.978
999.947
999.941
1000
1000
999.982
999.842
1000
1000
999.977
999.983
1000
1000
999.952
999.046
1000
1000
1000
1000
1000
1000
999.605
997.498
1000
1000
1000
1000
1000
1000
999.972
998.705
1000
1000
1000
1000
1000
1000
1000
998.728
998.091
1000
1000
1000
1000
1000
999.976
999.982
911.889
1000
1000
1000
1000
999.943
999.917
999.921
632.666
986.389
1000
1000
1000
999.464
999.804
999.998
568.239
969.02
1000
1000
999.762
999.463
999.684
999.998
707.704
997.976
1000
999.987
999.614
999.769
999.947
999.997
1000
1000
1000
1000
1000
1000
999.95
998.705
1000
1000
1000
1000
1000
1000
1000
998.846
998.131
1000
1000
1000
1000
999.999
999.983
999.722
913.51
1000
1000
1000
1000
999.933
999.85
999.967
627.545
987.053
1000
1000
1000
999.464
999.819
999.997
549.062
968.55
1000
999.999
999.937
999.464
999.738
1000
684.7
997.205
999.998
999.958
999.614
999.844
999.917
999.998
1000
1000
1000
1000
1000
1000
999.935
998.708
1000
1000
1000
1000
1000
1000
1000
999.479
998.118
1000
1000
1000
1000
999.994
999.992
999.394
933.976
1000
1000
1000
1000
999.931
999.903
999.99
683.011
992.192
1000
999.999
999.999
999.485
999.833
999.982
601.653
977.301
999.996
999.993
999.988
999.464
999.782
1000
720.964
998.301
999.997
999.92
999.778
999.868
999.902
999.998
1000
1000
1000
1000
1000
1000
999.939
998.605
1000
1000
1000
1000
1000
1000
999.989
999.963
998.015
1000
1000
1000
1000
999.991
999.997
999.388
962.226
1000
1000
1000
999.999
999.931
999.978
999.993
793.568
998.424
1000
999.999
999.974
999.837
999.877
999.935
731.135
992.666
999.999
999.989
999.987
999.465
999.835
1000
826.34
999.776
999.997
999.913
999.993
999.856
999.909
999.999
1000
1000
1000
1000
1000
1000
999.943
998.581
1000
1000
1000
1000
1000
1000
999.953
999.965
997.804
1000
1000
1000
1000
999.991
999.999
999.468
969.276
1000
1000
1000
999.999
999.931
999.99
999.994
835.363
999.957
1000
1000
999.943
999.964
999.962
999.928
788.237
999.479
1000
999.992
999.984
999.465
999.9
1000
889.925
999.993
999.999
999.917
999.999
999.849
999.936
1000
1000
1000
1000
1000
1000
1000
999.987
998.581
1000
1000
1000
1000
1000
1000
999.984
999.531
997.274
1000
1000
1000
999.999
999.995
999.999
999.835
963.82
1000
1000
1000
999.999
999.931
999.987
999.994
816.019
1000
1000
1000
999.942
999.964
999.971
999.928
764.444
998.297
1000
999.999
999.975
999.586
999.958
999.999
882.39
999.999
999.999
999.992
999.999
999.881
999.97
1000
1000
1000
1000
1000
1000
1000
1000
1000
1000
1000
1000
1000
1000
1000
1000
1000
1000
1000
1000
1000
1000
1000
1000
1000
1000
1000
1000
1000
1000
1000
1000
1000
1000
1000
1000
1000
1000
1000
1000
1000
1000
1000
1000
1000
1000
1000
1000
1000
999.999
999.996
1000
1000
1000
1000
1000
1000
1000
1000
1000
1000
1000
1000
1000
1000
1000
1000
1000
1000
1000
1000
1000
1000
1000
1000
1000
1000
1000
1000
1000
1000
1000
1000
1000
1000
1000
1000
1000
1000
1000
1000
1000
1000
1000
1000
1000
1000
1000
1000
1000
1000
1000
1000
1000
1000
1000
999.999
1000
1000
1000
1000
1000
1000
1000
1000
1000
1000
1000
1000
1000
1000
1000
1000
1000
1000
1000
1000
1000
1000
1000
1000
1000
1000
1000
1000
1000
1000
1000
1000
1000
1000
1000
1000
1000
1000
1000
1000
1000
1000
1000
1000
1000
1000
1000
1000
1000
1000
1000
1000
1000
1000
1000
1000
1000
1000
1000
1000
1000
1000
1000
1000
1000
1000
1000
1000
1000
1000
1000
1000
1000
1000
1000
1000
1000
1000
1000
1000
1000
1000
1000
1000
1000
996.029
1000
1000
1000
1000
1000
1000
1000
997.559
1000
1000
1000
1000
1000
1000
1000
996.73
1000
1000
1000
1000
1000
1000
1000
993.177
1000
1000
1000
1000
1000
1000
1000
987.955
1000
1000
1000
1000
1000
999.999
1000
945.382
1000
1000
1000
1000
1000
999.999
1000
950.359
1000
1000
1000
1000
1000
999.999
1000
934.095
1000
1000
1000
1000
1000
999.999
1000
934.812
1000
1000
1000
1000
1000
999.999
1000
933.087
1000
1000
1000
1000
999.999
999.999
996.593
927.612
1000
1000
1000
1000
1000
999.999
1000
921.152
1000
1000
999.999
999.994
999.197
952.618
913.391
872.912
1000
1000
999.999
999.993
999.839
952.964
910.213
880.304
1000
1000
999.999
999.993
999.972
951.049
900.616
886.628
1000
1000
999.999
999.993
999.837
946.813
895.66
894.931
1000
1000
999.999
999.993
996.9
931.602
900.623
897.446
1000
1000
999.999
999.993
990.177
908.339
861.957
895.916
1000
1000
1000
999.994
999.993
936.263
890.984
893.858
1000
1000
1000
1000
1000
1000
1000
1000
999.917
999.999
1000
1000
1000
1000
1000
1000
999.524
999.998
1000
1000
1000
1000
1000
1000
998.964
999.997
1000
1000
1000
1000
1000
1000
998.626
999.985
1000
1000
1000
1000
1000
1000
999.124
999.994
1000
1000
1000
1000
1000
1000
1000
1000
1000
1000
1000
1000
1000
1000
1000
1000
1000
1000
1000
1000
1000
1000
999.933
1000
1000
1000
1000
1000
1000
1000
999.321
1000
1000
1000
1000
1000
1000
1000
998.642
1000
1000
1000
1000
1000
1000
1000
998.64
1000
1000
1000
1000
1000
1000
1000
999.995
1000
1000
1000
1000
1000
1000
1000
1000
1000
1000
1000
1000
1000
1000
1000
999.999
1000
1000
1000
1000
1000
1000
1000
999.957
1000
1000
1000
1000
1000
1000
1000
999.533
1000
1000
1000
1000
1000
1000
1000
999.196
1000
1000
1000
1000
1000
1000
1000
999.543
1000
1000
1000
1000
1000
1000
1000
999.997
999.999
1000
1000
1000
1000
1000
1000
1000
1000
1000
1000
1000
1000
1000
1000
1000
1000
1000
1000
1000
1000
1000
1000
999.974
1000
1000
1000
1000
1000
1000
1000
999.928
1000
1000
1000
1000
1000
1000
1000
999.912
1000
1000
1000
1000
1000
1000
1000
1000
1000
1000
1000
1000
1000
1000
1000
999.97
999.999
1000
1000
1000
1000
1000
999.934
999.999
1000
1000
1000
1000
1000
1000
1000
1000
1000
1000
1000
1000
1000
999.997
999.999
999.992
1000
1000
1000
1000
1000
999.998
999.999
1000
1000
1000
1000
1000
1000
999.997
999.999
1000
1000
1000
1000
1000
1000
999.997
1000
1000
1000
1000
1000
1000
999.999
999.999
933.732
999.969
999.999
1000
1000
1000
999.998
993.453
938.16
999.999
1000
1000
1000
1000
999.999
975.048
961.579
1000
1000
1000
1000
999.999
999.992
896.148
883
1000
1000
1000
1000
999.999
999.992
915.869
870.97
1000
1000
1000
1000
999.999
999.992
904.665
869.076
999.995
1000
1000
1000
999.999
999.993
896.048
916.949
999.995
1000
1000
1000
999.995
981.313
857.111
829.13
999.985
1000
1000
999.999
999.993
949.817
846.135
864.931
1000
1000
1000
999.999
999.994
957.282
827.571
900.322
1000
1000
1000
1000
1000
1000
1000
1000
1000
1000
1000
1000
1000
1000
1000
1000
1000
1000
1000
1000
1000
1000
1000
1000
1000
1000
1000
1000
1000
1000
1000
1000
1000
1000
1000
1000
1000
1000
1000
1000
1000
1000
1000
1000
1000
1000
1000
1000
1000
1000
1000
1000
1000
1000
1000
1000
1000
1000
1000
1000
1000
1000
1000
1000
1000
1000
1000
1000
1000
1000
1000
1000
1000
1000
1000
1000
1000
1000
1000
1000
1000
1000
1000
1000
1000
1000
1000
1000
1000
1000
1000
1000
1000
1000
1000
1000
1000
1000
1000
1000
1000
1000
1000
1000
1000
1000
1000
1000
1000
1000
1000
1000
1000
1000
1000
1000
1000
1000
1000
1000
1000
1000
1000
1000
1000
1000
1000
1000
1000
1000
1000
1000
1000
1000
1000
1000
1000
1000
1000
1000
1000
1000
1000
1000
1000
1000
1000
1000
1000
1000
1000
1000
1000
1000
1000
1000
1000
1000
1000
1000
1000
1000
1000
1000
1000
1000
1000
1000
1000
1000
1000
1000
1000
1000
1000
999.559
1000
1000
1000
1000
1000
1000
1000
986.777
1000
1000
1000
1000
1000
1000
1000
986.682
1000
1000
1000
1000
1000
1000
1000
993.876
1000
1000
1000
1000
1000
1000
1000
994.846
1000
1000
1000
1000
1000
1000
1000
994.483
1000
1000
1000
1000
1000
1000
1000
998.103
1000
1000
1000
1000
1000
999.999
982.971
958.308
1000
1000
1000
1000
1000
999.998
967.01
942.279
1000
1000
1000
1000
1000
999.999
971.245
929.375
1000
1000
1000
1000
1000
999.999
985.958
920.318
1000
1000
1000
1000
1000
999.999
1000
929.923
1000
1000
1000
1000
1000
999.999
996.584
927.218
1000
1000
1000
1000
1000
999.999
1000
927.803
1000
1000
1000
999.999
999.992
956.108
835.534
926.037
1000
1000
1000
999.997
999.992
925.444
814.184
917.608
1000
1000
1000
999.995
999.992
945.881
833.273
908.963
1000
1000
999.999
999.993
992.132
935.721
874.653
885.384
1000
1000
1000
999.992
994.643
932.161
903.284
893.064
1000
1000
1000
999.993
998.644
946.801
901.705
916.505
1000
1000
999.999
999.993
996.726
947.718
914.238
881.006
999.591
999.986
1000
1000
1000
1000
1000
1000
998.852
999.946
1000
1000
1000
1000
1000
1000
998.852
999.805
1000
1000
1000
1000
1000
1000
998.852
999.978
1000
1000
1000
1000
1000
1000
998.852
999.985
1000
1000
1000
1000
1000
1000
998.852
999.988
1000
1000
1000
1000
1000
1000
999.594
999.998
1000
1000
1000
1000
1000
1000
999.718
999.994
1000
1000
1000
1000
1000
1000
998.855
999.973
1000
1000
1000
1000
1000
1000
998.852
999.95
1000
1000
1000
1000
1000
1000
998.891
1000
1000
1000
1000
1000
1000
1000
998.909
1000
1000
1000
1000
1000
1000
1000
999.315
1000
1000
1000
1000
1000
1000
1000
999.832
1000
1000
1000
1000
1000
1000
1000
999.967
999.998
1000
1000
1000
1000
1000
1000
999.591
999.991
1000
1000
1000
1000
1000
1000
998.994
999.997
1000
1000
1000
1000
1000
1000
999.747
1000
1000
1000
1000
1000
1000
1000
999.801
1000
1000
1000
1000
1000
1000
1000
1000
1000
1000
1000
1000
1000
1000
1000
999.991
1000
1000
1000
1000
1000
1000
1000
1000
1000
1000
1000
1000
1000
1000
978.43
1000
999.997
1000
1000
1000
1000
1000
975.262
999.913
999.997
1000
1000
1000
1000
1000
990.763
1000
999.999
1000
1000
1000
1000
1000
999.843
1000
1000
1000
1000
1000
1000
1000
999.884
1000
1000
1000
1000
1000
1000
1000
999.874
1000
1000
1000
1000
1000
1000
1000
1000
1000
1000
1000
1000
1000
999.999
988.584
918.714
1000
1000
1000
1000
1000
999.998
994.764
937.755
1000
999.997
1000
1000
1000
999.998
987.88
931.15
999.993
999.999
1000
1000
1000
999.999
986.161
928.528
1000
999.999
1000
1000
1000
999.999
999.999
936.736
1000
1000
1000
1000
1000
999.999
999.998
975.587
1000
1000
1000
1000
1000
1000
999.994
1000
1000
1000
1000
999.996
999.993
926.711
844.684
913.32
1000
1000
1000
999.998
999.993
910.537
857.692
945.169
999.998
999.998
1000
999.999
999.994
933.121
854.833
932.077
999.988
999.999
1000
999.999
999.994
949.163
849.719
863.111
999.999
1000
1000
1000
999.994
955.961
869.621
857.755
999.999
1000
1000
1000
999.997
985.854
849.393
916.32
1000
1000
1000
1000
999.999
999.993
855.618
919.662
999.195
999.998
999.306
1000
1000
1000
999.99
998.483
998.629
999.809
999.975
1000
1000
1000
998.869
997.553
999.255
997.441
999.454
1000
1000
1000
998.515
999.042
999.644
997.678
999.491
1000
1000
1000
998.574
999.191
999.53
998.387
999.794
1000
1000
999.895
998.645
999.886
999.903
998.277
999.357
1000
1000
998.521
997.887
999.736
999.736
998.277
999.278
1000
999.862
995.024
997.145
999.995
999.92
999.074
999.216
1000
998.738
996.665
998.102
982.484
994.366
999.941
1000
1000
999.377
997.581
997.462
984.41
994.732
998.012
1000
1000
998.51
996.293
998.079
989.256
994.927
998.568
1000
1000
998.631
995.951
996.497
989.616
994.754
999.03
1000
1000
996.703
995.757
993.676
992.241
996.227
999.065
1000
1000
995.612
992.061
992.364
990.515
996.444
999.279
1000
1000
990.829
990.825
994.188
994.216
996.727
998.372
1000
999.027
984.102
991.689
992.272
979.037
986.289
999.736
1000
999.775
986.521
990.509
994.085
979.037
988.658
998.148
1000
1000
983.29
993.863
998.952
979.279
992.106
999.36
1000
998.642
986.438
991.436
996.435
982.935
992.033
999.975
1000
997.376
982.289
992.596
994.182
978.75
993.334
999.562
1000
987.022
982.467
993.583
995.702
978.75
993.542
999.939
1000
989.126
984.126
992.276
996.709
982.838
995.05
1000
1000
952.353
979.366
999.584
999.453
994.273
982.16
987.993
999.225
958.537
978.505
999.58
999.36
981.979
984.656
995.732
1000
968.582
979.186
998.712
999.224
979.903
983.136
995.911
1000
960.471
981.951
999.022
999.286
979.905
985.769
997.407
1000
957.371
982.288
999.098
998.778
980.365
977.419
985.813
1000
957.416
996.08
999.099
999.038
987.867
977.409
991.699
1000
972.242
999.097
999.098
999.097
995.014
977.4
996.775
1000
929.788
985.601
999.65
999.585
991.707
982.195
964.473
980.283
929.79
983.287
999.596
999.524
998.048
991.955
963.718
983.781
939.005
985.708
999.464
999.455
992.117
975.426
979.302
987.125
946.589
988.962
999.372
999.339
985.814
975.34
980.41
985.507
946.605
991.6
995.63
999.222
999.169
986.023
983.501
980.932
963.363
999.042
999.103
999.168
996.365
991.239
981.625
978.383
993.017
999.096
999.085
995.197
992.452
965.947
962.148
976.964
935.866
972.708
958.567
937.397
877.904
944.973
962.758
929.115
954.061
951.522
936.927
940.266
901.792
943.88
963.445
922.847
965.426
936.716
909.485
939.293
930.329
942.956
956.031
927.839
965.521
938.163
932.866
926.593
933.952
934.604
951.409
927.322
965.612
959.99
891.227
930.771
921.144
936.846
947.239
929.96
965.753
965.895
925.737
919.947
901.045
937.12
940.747
931.057
955.361
980.336
913.539
878.059
952.151
965.955
950.185
934.172
1000
1000
1000
1000
999.873
987.365
995.845
1000
1000
1000
1000
1000
1000
989.315
994.982
999.999
1000
1000
1000
1000
1000
990.401
995.752
999.999
1000
1000
1000
1000
1000
991.91
997.624
1000
1000
1000
1000
1000
999.399
995.951
999.285
1000
1000
1000
1000
999.999
999.708
998.504
999.851
1000
1000
1000
1000
1000
999.836
999.438
999.95
1000
1000
1000
1000
997.265
987.359
987.362
996.268
1000
1000
1000
1000
996.949
989.909
987.365
994.544
1000
1000
1000
1000
1000
994.306
987.367
995.461
1000
1000
1000
1000
999.982
992.704
987.375
997.504
1000
1000
1000
1000
998.05
989.501
992.771
999.655
1000
1000
1000
996.604
998.785
990.446
996.274
1000
1000
1000
1000
1000
998.694
994.529
999.449
1000
1000
1000
1000
989.298
979.673
981.533
991.157
998.911
1000
1000
999.285
989.212
979.663
980.379
990.159
997.575
1000
1000
998.899
988.588
991.746
982.166
991.167
998.874
1000
1000
1000
988.98
988.241
982.179
991.134
999.686
1000
1000
1000
984.545
984.53
984.529
993.596
1000
1000
1000
990.61
982.112
994.195
984.544
996.124
1000
1000
999.723
991.815
991.581
989.845
992.866
1000
1000
1000
989.605
961.944
947.429
982.943
997.443
997.132
998.959
1000
990.704
946.642
947.231
979.671
996.648
996.009
997.667
999.993
992.918
948.011
947.283
981.808
997.856
995.379
998.258
1000
990.272
971.531
947.336
983.92
996.881
994.74
997.726
1000
996.233
980.247
957.975
995.368
997.272
994.534
996.119
1000
985.938
949.083
983.376
997.262
997.806
992.284
996.399
1000
974.176
945.351
981.804
990.436
996.649
1000
998.255
1000
921.459
908.213
976.776
998.141
998.153
985.492
987.48
986.007
917.679
908.213
965.217
998.108
998.127
983.942
987.659
986.369
923.469
908.213
958.35
997.68
998.11
979.387
982.23
986.634
920.494
920.341
960.713
998.055
998.088
976.411
972.342
987.055
914.197
924.952
998.002
998.016
998.049
972.278
966.397
981.69
916.436
977.124
997.966
997.973
997.818
975.652
966.125
979.478
931.942
947.322
984.065
997.914
997.818
984.298
964.795
974.591
907.623
963.814
959.852
965.454
947.984
901.711
889.96
927.833
908.735
963.693
957.223
964.246
956.72
904.217
893.547
925.111
912.704
963.581
963.464
952.936
956.779
908.957
897.29
920.157
902.157
962.007
962.39
979.445
949.887
916.972
910.385
915.653
887.816
917.307
994.463
958.608
917.283
903.343
946.326
912.047
938.421
984.835
997.811
931.905
896.75
934.41
948.943
919.711
955.195
990.821
979.806
912.075
902.417
927.169
945.981
926.202
1000
1000
1000
999.954
999.066
999.658
999.985
1000
1000
1000
1000
999.731
999.269
999.629
999.977
1000
1000
1000
1000
999.974
999.499
999.034
999.909
1000
1000
1000
1000
999.924
999.406
999.034
999.922
1000
1000
1000
1000
1000
1000
999.915
999.992
1000
1000
1000
999.99
999.869
999.929
999.935
999.991
1000
1000
1000
1000
999.684
999.321
999.711
999.995
1000
1000
999.963
999.491
993.711
994.548
999.696
1000
1000
1000
999.612
999.99
992.633
992.631
999.603
1000
1000
1000
1000
999.617
995.362
990.051
999.327
1000
1000
1000
1000
999.451
994.659
989.781
999.319
1000
1000
1000
999.638
1000
996.434
997.014
999.825
1000
1000
1000
999.122
998.232
988.836
993.383
999.543
1000
1000
1000
999.56
998.545
991.152
987.166
997.827
1000
1000
999.426
988.48
991.665
986.961
993.724
1000
1000
1000
999.792
994.821
997.762
986.957
990.13
999.881
1000
1000
999.988
997.917
995.856
986.955
987.344
999.961
1000
1000
999.657
999.998
996.148
986.955
986.954
999.63
1000
1000
997.178
996.722
999.812
989.092
986.753
1000
1000
1000
993.009
986.795
991.275
980.401
983.326
996.873
1000
1000
995.614
989.716
988.504
980.389
980.388
993.22
1000
1000
959.472
976.502
991.756
993.536
995.911
994.537
998.129
1000
959.845
993.371
998.513
991.039
991.376
995.16
1000
1000
961.743
981.617
995.598
994.325
994.818
999.953
999.625
1000
966.539
998.798
997.091
989.82
988.444
995.994
999.335
1000
960.03
996.367
999.811
989.662
978.657
993.821
999.637
1000
951.88
984.732
999.81
997.76
978.658
984.395
996.943
999.975
949.498
985.344
996.669
999.452
984.804
982.557
994.042
999.857
929.976
997.519
999.469
992.733
990.691
966.851
968.404
982.917
929.685
999.145
999.62
990.892
979.815
969.092
979.01
982.937
925.031
973.278
999.684
998.422
997.011
980.727
971.646
979.309
940.961
991.786
999.751
999.675
984.942
971.248
974.453
978.859
951.316
999.757
999.81
997.3
972.447
963.035
970.026
975.609
966.775
999.692
998.751
990.382
986.269
963.769
961.62
971.782
949.108
999.678
999.669
989.077
991.353
975.85
960.341
978.816
925.2
996.976
964.425
886.227
891.963
966.836
941.021
926.019
914.537
974.198
954.531
890.031
896.793
962.663
928.531
926.768
924.365
976.727
957.768
900.65
892.185
929.91
941.049
925.08
978.434
976.961
911.688
916.4
903.241
950.84
933.981
925.252
978.846
957.523
923.554
912.521
948.585
962.795
930.243
932.479
979.035
984.591
911.261
870.113
975.417
966.312
951.567
942.35
963.43
995.394
984.154
899.645
895.754
961.151
960.422
924.358
999.964
999.009
999.595
1000
1000
999.835
999.802
1000
999.588
998.732
998.732
1000
999.955
998.304
999.057
1000
999.845
999.434
999.687
1000
1000
997.138
997.379
998.998
999.901
999.982
999.969
1000
1000
999.148
995.6
996.259
998.889
999.972
999.987
1000
1000
1000
997.044
992.249
996.893
999.829
1000
1000
1000
1000
1000
992.42
994.297
999.737
1000
1000
1000
1000
1000
994.401
990.525
998.687
1000
998.994
992.887
998.799
992.947
993.153
997.931
998.658
1000
998.523
987.14
994.585
995.818
992.573
997.333
999.627
1000
1000
991.917
984.121
993.569
995.025
997.732
999.448
1000
1000
999.602
987.613
985.682
993.582
997.651
999.285
1000
1000
1000
993.048
985.677
989.226
996.488
999.694
1000
1000
1000
999.414
993.79
985.434
992.978
999.943
1000
1000
1000
1000
996.018
985.423
989.698
999.312
1000
976.177
980.222
998.921
987.932
982.844
998.259
1000
1000
972.671
976.152
996.789
995.58
982.851
993.967
1000
1000
989.212
976.156
984.118
995.474
993.746
993.557
997.554
1000
997.573
979.651
979.657
988.483
995.477
995.264
996.892
1000
1000
988.213
979.667
985.677
995.726
996.054
997.139
1000
1000
994.613
986.531
979.712
991.875
995.813
998.061
1000
1000
999.662
990.793
979.689
985.423
992.284
999.121
1000
962.758
984.647
999.097
998.036
988.183
981.91
994.052
999.847
962.758
986.512
999.092
999.086
990.845
983.313
995.705
999.983
962.758
980.335
996.168
999.084
999.081
983.075
990.735
1000
970.587
966.845
993.539
999.078
999.078
984.039
991.119
1000
975.095
963.161
990.085
998.976
998.19
982.106
988.853
1000
995.606
962.874
979.734
997.504
998.189
984.392
993.946
1000
989.067
961.754
957.82
992.094
998.186
984.586
993.37
1000
986.614
997.785
988.473
991.995
994.235
993.182
957.414
973.885
981.083
997.619
990.485
994.249
994.248
982.516
952.909
977.71
978.592
997.601
992.783
995.909
988.911
967.554
961.717
980.365
971.713
997.592
997.271
988.133
985.961
963.179
961.844
981.722
918.666
994.668
997.899
981.752
981.633
963.199
975.321
987.201
898.66
970.428
998.124
998.141
992.449
967.112
977.647
986.908
922.735
929.592
987.719
998.155
998.182
981.833
977.657
986.301
980.485
971.282
909.805
893.369
957.418
953.634
941.132
944.586
967.708
985.023
893.339
890.266
965.067
964.086
942.537
937.978
946.212
997.261
932.261
872.737
931.125
967.566
952.151
929.956
978.033
991.95
948.805
872.509
917.178
967.508
953.289
928.059
982.189
987.896
993.965
909.035
901.141
967.425
955.341
918.923
895.903
987.685
987.011
978.54
907.491
907.339
955.336
909.885
913.271
964.213
975.105
990.12
934.847
897.686
922.473
929.717
1000.01
1000
1000
1000
1000
1000
1000
860.936
885.278
887.54
972.353
1000
1000
1000
445.397
389.833
507.782
812.676
970.553
1000
1000
328.222
271.953
272.657
557
910.572
1000
1000
591.387
271.612
273.483
459.446
892.949
1000
1000
549.489
285.336
313.903
530.308
882.665
1000
1000
414.86
355.662
400.882
713.838
931.912
1000
1000
999.978
999.989
999.991
999.998
1000
1000
1000
819.182
839.453
856.64
963.384
999.994
1000
1000
364.67
358.715
468.892
761.175
971.121
999.998
1000
255.036
261.636
352.211
567.319
897.864
999.992
1000
395.732
475.257
427.369
527.44
865.795
999.989
1000
283.222
281.431
271.303
468.854
868.974
999.989
1000
292.837
284.384
322.184
647.499
933.918
999.994
1000
999.764
999.839
999.865
999.941
999.996
1000
1000
720.786
741.002
757.961
897.756
999.925
999.997
1000
255.089
300.166
347.947
548.791
940.89
999.965
999.998
253.201
262.133
327.204
480.448
858.56
999.925
999.997
249.685
560.547
550.748
535.508
836.059
999.915
999.996
246.067
244.121
240.723
367.539
846.349
999.918
999.996
254.312
242.595
243.994
530.667
940.858
999.965
999.998
543.314
609.575
568.985
526.079
495.413
495.98
444.104
313.315
349.383
330.793
353.191
395.479
402.765
539.81
256.819
259.624
264.823
265.666
351.194
451.981
612.75
255.009
382.295
320.679
256.196
370.29
519.706
692.81
312.77
561.021
475.254
249.975
412.43
586.346
754.883
285.437
259.702
238.847
237.592
445.791
627.127
711.58
242.588
241.498