/*--------------------------------*- C++ -*----------------------------------*\
| =========                 |                                                 |
| \\      /  F ield         | OpenFOAM: The Open Source CFD Toolbox           |
|  \\    /   O peration     | Version:  plus.master.MPPICInterFoam            |
|   \\  /    A nd           | Web:      www.OpenFOAM.com                      |
|    \\/     M anipulation  |                                                 |
\*---------------------------------------------------------------------------*/
FoamFile
{
    version     2.0;
    format      ascii;
    class       volScalarField;
    location    "9.8";
    object      p_rgh;
}
// * * * * * * * * * * * * * * * * * * * * * * * * * * * * * * * * * * * * * //

dimensions      [1 -1 -2 0 0 0 0];

internalField   nonuniform List<scalar> 
11821
(
5663.83
5667.42
5663.83
5538.2
5665.9
5663.08
5677.13
5677.9
5677.29
5675.32
5672.89
5670.36
5668
5577.05
5576.23
5555.86
5622.8
5675.53
5672.94
5669.85
5213.03
4511.09
4500.94
5416.83
5632.8
5675.4
5671.6
4467.12
3431.25
3428.57
4740.42
5596.42
5677.25
5672.8
4291.05
3437.02
3430.09
4648.62
5574.71
5677.35
5673.21
4852.75
3955.26
4041.98
5053.65
5586.78
5676.77
5672.74
5433.73
5329.25
5247.53
5487.99
5644.24
5674.79
5671.46
5671.28
5671.89
5671.85
5671.16
5670.23
5669.07
5667.84
5512.59
5558.89
5522.29
5598.05
5671.27
5670.18
5668.75
5158.42
4478.89
4545.83
5375.14
5612.13
5671.08
5669.55
5232.22
3902.79
3593.96
4810.79
5573.68
5671.84
5670.16
5188.42
3967.71
3489.34
4751.42
5557.44
5671.87
5670.26
5295.92
4695.45
4410.42
5215.69
5517.23
5671.17
5669.85
5245.17
5254.78
5100.38
5338.47
5625.21
5670.35
5669.14
5661.78
5661.45
5662.03
5662.79
5663.65
5664.35
5664.8
5233.1
5308.53
5272.94
5505.29
5659.33
5663.49
5664.39
4323.44
3682.13
3915.8
4918.45
5526.58
5662.48
5663.92
4336.55
4753.41
4370
4215.5
5370.38
5661.58
5663.54
4881.9
4833.8
4724.29
3879.11
5305.39
5660.85
5663.22
4304.56
4233.08
3613.51
4649.66
5199.62
5661.01
5663.2
4373.35
4190.22
4156.19
4709.36
5523.85
5661.89
5663.47
5663.45
5662.35
5662.72
5663.54
5664.43
5665.37
5666.24
4951.78
4885.81
4936.01
5424.56
5653.27
5664.29
5665.55
3466.61
3438.12
3449.24
4336.52
5445.94
5663.39
5664.92
3390.78
4639.25
3904.38
3517.6
5114.87
5662.42
5664.4
3862.01
4828.35
4804.25
3512.52
4951.95
5661.85
5664.14
3371.22
3393.03
3357.73
3523.45
4969.36
5662.79
5664.53
3638.45
3431.56
3384.45
4267.38
5423.75
5663.82
5665.07
5674.12
5673.21
5673.56
5673.52
5673.23
5673.06
5673.01
5011.59
4895.07
4972.11
5461.16
5665.44
5673.35
5673.12
3424.26
3389.95
3384.63
4410.75
5484.29
5673.93
5673.3
3343.16
3780.38
3258.56
3515.02
5167.92
5674.36
5673.41
3333.93
4830.72
4231.01
3477.31
5026.49
5674.13
5673.37
3324.34
3317.62
3318.16
3474.57
5079.08
5674.89
5673.69
3750.53
3461.68
3532.21
4432.99
5467.45
5674.64
5673.74
5684.82
5684.64
5684.26
5683.34
5682.23
5681.22
5680.4
5262.6
5167.17
5219.83
5549.77
5681.14
5682.29
5681.08
3917.66
3425.59
3604.46
4895.3
5579.34
5683.49
5681.76
3300.72
3202.22
3196.47
3945.38
5402.29
5684.39
5682.26
3366.05
4493.59
3218.29
3791.74
5333.5
5684.56
5682.41
3427.42
3270.86
3268.01
4130.05
5356.65
5684.53
5682.47
4453.47
4117.18
4276.23
4955.77
5567.27
5683.61
5682.08
5688.2
5688.29
5688
5687.31
5686.58
5685.81
5685.1
5329.55
5356.83
5324.64
5574.86
5687.4
5686.56
5685.64
4472.77
3653.34
3986.18
5112.04
5612.58
5687.25
5686.13
3920.63
3135.06
3133.27
4368.42
5507.27
5687.76
5686.48
4185.74
3175.77
3134.32
4059.48
5485.46
5687.8
5686.58
4398.81
3328.08
3346.6
4732.16
5427.05
5687.67
5686.54
4779.53
4710.27
4558.61
5042.11
5598.54
5687.1
5686.23
5687.52
5687.92
5688.2
5688.16
5688.09
5687.96
5687.77
5214.23
5320.52
5258.58
5559.28
5687.34
5688.1
5687.92
4270.65
3605.44
3915.96
4985.93
5600.33
5688.27
5688.07
4352
3089.1
3068.86
4261.56
5478.19
5688.44
5688.22
4493.87
3462.54
3107.43
3945.12
5454.4
5688.36
5688.23
4493.53
3661.75
3297.12
4571.45
5368.57
5688.17
5688.14
4373.4
4423.86
4197.57
4805.11
5574.61
5688.02
5688.01
5689.33
5689.17
5689.63
5689.88
5690.12
5690.34
5690.49
4967.21
5158.84
5091.68
5525.39
5686.65
5690.18
5690.42
3504.39
3284.66
3525.47
4718.32
5566.65
5690.15
5690.39
3257.51
4130.82
3659.77
3860.63
5392.37
5690.16
5690.39
3809.54
4311.42
4232.94
3710.56
5343.75
5689.92
5690.3
3640.72
3404.66
3080.93
3944.76
5258.18
5689.85
5690.25
3644.35
3470.18
3516.14
4518.52
5520.15
5689.95
5690.28
5695.23
5694.12
5694.44
5694.52
5694.59
5694.67
5694.74
4904.16
4980.63
5000.55
5512.56
5689.8
5694.68
5694.76
3118.78
3033.59
3237.72
4643.7
5552.35
5694.85
5694.82
3092.22
4257.53
3387.75
3679.96
5347.81
5694.97
5694.86
3080.52
4292.73
4139.99
3657.91
5294.7
5694.94
5694.85
3040.61
3019.47
3015.91
3707.69
5241.39
5695.18
5694.93
3582.18
3261.27
3454.05
4530.63
5512.34
5695.18
5694.97
5701.21
5700.63
5700.61
5700.35
5700.17
5699.99
5699.87
4945.8
4952.4
5003.04
5515.12
5695.35
5700.2
5700.01
3246.27
2978.11
3294.81
4699.3
5557.94
5700.48
5700.16
3033.93
3466.51
2968.92
3764.18
5356.46
5700.68
5700.26
3004.68
4267.56
3049.28
3624.61
5326.55
5700.75
5700.3
2985.29
2963.84
2960.93
3908.17
5272.06
5700.93
5700.39
3862.78
3586.72
3680.57
4685.81
5525.56
5700.74
5700.34
5705.36
5705.43
5705.42
5705.21
5705.03
5704.86
5704.74
4936.45
4944.14
4987.61
5513.17
5699.82
5705.07
5704.87
3463.55
2917.85
3451.48
4707.82
5558.36
5705.34
5705
3072.71
2913.02
2908.14
3851.53
5354.41
5705.51
5705.08
4116.17
3636.48
2905.86
3624.13
5336.82
5705.47
5705.08
3386.95
2904.11
2903.62
4063.8
5268.3
5705.44
5705.08
3998.25
3798.59
3737.06
4686.49
5529.12
5705.14
5704.96
5708.34
5708.72
5708.95
5708.98
5709.02
5709.08
5709.14
4804.12
4885.58
4909.23
5496.6
5702.08
5709.09
5709.13
3339.15
2858.39
3379.46
4603.33
5550.6
5709.23
5709.17
3063.61
2854.84
2855.05
3730.85
5333.58
5709.37
5709.22
4178.14
3478.66
3218.69
3585.49
5294.68
5709.27
5709.2
3661.07
2843.44
2843.7
3886.32
5231.06
5709.16
5709.17
3722.39
3497.67
3505.54
4532.71
5520.6
5708.99
5709.12
5713.77
5713.72
5713.81
5713.7
5713.7
5713.77
5713.86
4653.75
4791.49
4827.76
5479.17
5706.23
5713.77
5713.84
2965.77
2864.07
3146.84
4489.49
5551.98
5713.94
5713.89
2814.77
3415.41
3075.94
3549.44
5324.59
5714.15
5713.97
2874.8
3808.36
3807.07
3540.8
5253.3
5714.1
5713.98
3022
2789.74
2810.75
3655.13
5223.21
5714.02
5713.97
3315.62
3004.38
3268.33
4412.23
5524.98
5713.88
5713.97
5720.8
5720
5719.9
5719.57
5719.37
5719.25
5719.15
4675.17
4777.73
4833.36
5481.52
5712.52
5719.4
5719.26
2885.46
2928.63
3061.46
4512.73
5564.71
5719.68
5719.41
2766.64
3774.28
2966.2
3570.6
5348.35
5719.93
5719.55
2754.15
3776.13
3774.4
3506.77
5293.26
5720.05
5719.62
2739.84
2740.25
2871.5
3755.74
5261.7
5720.07
5719.68
3360.87
3099.22
3376.54
4471.81
5554.61
5719.91
5719.65
5726.61
5726.26
5725.9
5725.42
5725.1
5724.78
5724.5
4802.99
4833.04
4877.3
5493.77
5718.99
5725.1
5724.74
3140.8
2880.27
3196.53
4611.89
5580.19
5725.47
5724.97
2857.44
3182.96
2766.07
3765.77
5386
5725.75
5725.13
2892.61
3742.77
2884.4
3638.31
5381.83
5725.86
5725.2
2795.62
2688.09
2839.64
4136.39
5317.51
5725.88
5725.22
3771.44
3764.45
3774.87
4622.74
5596.04
5725.55
5725.07
5656.3
5656.14
5658.06
5657.31
5656.82
5656.5
5656.3
5656.19
5661.04
5659.43
5658.25
5657.44
5656.9
5656.56
5656.36
5656.25
5661.25
5659.56
5658.39
5657.59
5657.03
5656.67
5656.46
5656.36
5661.4
5659.7
5658.55
5657.77
5657.23
5656.89
5656.69
5656.61
5661.13
5659.77
5658.8
5658.03
5657.52
5657.2
5657.04
5656.98
5666.09
5664.69
5663.54
5662.64
5661.99
5661.53
5660.76
5659.39
5667.3
5665.4
5663.95
5662.88
5662.12
5661.58
5661.2
5660.81
5668.41
5666.17
5664.46
5663.21
5662.31
5661.69
5661.28
5661.07
5669.24
5666.78
5664.94
5663.56
5662.57
5661.89
5661.46
5661.24
5669.59
5667.1
5665.23
5663.84
5662.83
5662.13
5661.69
5661.47
5669.49
5667.16
5665.39
5664.09
5663.14
5662.49
5662.07
5661.85
5668.78
5667.01
5665.54
5664.35
5663.51
5662.92
5662.57
5662.39
5666.84
5666.06
5665.41
5664.9
5664.51
5664.2
5663.5
5662.65
5667.5
5666.49
5665.67
5665.04
5664.57
5664.22
5663.95
5663.46
5668.05
5666.89
5665.95
5665.22
5664.68
5664.29
5664.01
5663.87
5668.49
5667.22
5666.21
5665.42
5664.83
5664.42
5664.15
5664.01
5668.63
5667.38
5666.37
5665.59
5665.01
5664.6
5664.32
5664.18
5668.43
5667.34
5666.45
5665.75
5665.22
5664.84
5664.59
5664.46
5667.85
5667.06
5666.39
5665.83
5665.41
5665.1
5664.89
5664.78
5665.13
5665.37
5665.57
5665.74
5665.84
5665.89
5665.22
5662.03
5664.96
5665.31
5665.55
5665.71
5665.82
5665.87
5665.86
5665.52
5664.73
5665.17
5665.46
5665.64
5665.76
5665.83
5665.85
5665.84
5664.54
5665.04
5665.37
5665.58
5665.72
5665.8
5665.83
5665.81
5664.35
5664.93
5665.3
5665.55
5665.72
5665.83
5665.89
5665.91
5664.25
5664.87
5665.29
5665.56
5665.75
5665.87
5665.94
5665.98
5664.09
5664.62
5665.07
5665.44
5665.69
5665.86
5665.95
5666.02
5666.86
5667.4
5667.88
5668.27
5668.57
5668.76
5667.5
5660.51
5666.48
5667.19
5667.76
5668.19
5668.51
5668.74
5668.87
5668.73
5666.1
5666.93
5667.57
5668.05
5668.4
5668.66
5668.82
5668.91
5665.79
5666.71
5667.4
5667.92
5668.31
5668.59
5668.77
5668.91
5665.62
5666.57
5667.29
5667.84
5668.24
5668.54
5668.75
5668.89
5665.76
5666.63
5667.31
5667.84
5668.23
5668.53
5668.75
5668.87
5665.82
5666.53
5667.18
5667.72
5668.15
5668.47
5668.7
5668.84
5672.93
5673
5673.08
5673.18
5673.27
5673.34
5670.97
5664.13
5672.98
5673.01
5673.08
5673.16
5673.25
5673.34
5673.41
5673.41
5673.07
5673.03
5673.07
5673.13
5673.22
5673.3
5673.39
5673.45
5673.12
5673.05
5673.07
5673.13
5673.2
5673.29
5673.38
5673.47
5673.14
5673.08
5673.09
5673.15
5673.22
5673.31
5673.41
5673.5
5673.36
5673.23
5673.21
5673.24
5673.31
5673.4
5673.51
5673.59
5673.34
5673.25
5673.24
5673.28
5673.37
5673.49
5673.62
5673.7
5679.73
5679.33
5679
5678.76
5678.61
5678.47
5675.68
5668.91
5680.14
5679.54
5679.11
5678.81
5678.63
5678.52
5678.48
5678.49
5680.56
5679.8
5679.27
5678.91
5678.68
5678.55
5678.5
5678.51
5680.88
5680.03
5679.43
5679.03
5678.76
5678.61
5678.56
5678.57
5681.05
5680.19
5679.57
5679.15
5678.87
5678.71
5678.66
5678.67
5681.2
5680.33
5679.72
5679.31
5679.04
5678.89
5678.84
5678.85
5680.96
5680.3
5679.79
5679.42
5679.19
5679.08
5679.07
5678.96
5684.51
5684.09
5683.73
5683.46
5683.27
5683.03
5680.44
5673.65
5684.86
5684.28
5683.83
5683.5
5683.27
5683.13
5683.06
5683.04
5685.17
5684.49
5683.97
5683.59
5683.33
5683.17
5683.09
5683.08
5685.43
5684.7
5684.13
5683.72
5683.43
5683.26
5683.18
5683.17
5685.57
5684.84
5684.27
5683.85
5683.56
5683.37
5683.29
5683.29
5685.66
5684.95
5684.4
5684
5683.72
5683.54
5683.47
5683.46
5685.34
5684.82
5684.4
5684.07
5683.84
5683.71
5683.66
5683.33
5687.58
5687.43
5687.3
5687.21
5687.15
5686.84
5685.01
5679.76
5687.7
5687.5
5687.34
5687.21
5687.13
5687.08
5687.06
5687.08
5687.8
5687.57
5687.38
5687.24
5687.14
5687.09
5687.08
5687.11
5687.92
5687.66
5687.45
5687.3
5687.19
5687.14
5687.13
5687.17
5687.97
5687.71
5687.51
5687.36
5687.27
5687.22
5687.21
5687.24
5687.95
5687.74
5687.58
5687.45
5687.36
5687.32
5687.31
5687.34
5687.67
5687.54
5687.47
5687.42
5687.39
5687.38
5687.4
5687.07
5690.56
5690.64
5690.73
5690.82
5690.89
5690.39
5689.66
5686.28
5690.55
5690.65
5690.74
5690.81
5690.87
5690.93
5690.99
5691.05
5690.54
5690.64
5690.72
5690.79
5690.85
5690.92
5690.99
5691.06
5690.55
5690.64
5690.72
5690.79
5690.86
5690.93
5691.01
5691.09
5690.51
5690.62
5690.72
5690.8
5690.88
5690.96
5691.04
5691.11
5690.48
5690.62
5690.74
5690.83
5690.92
5691.01
5691.09
5691.12
5690.3
5690.43
5690.6
5690.76
5690.89
5691
5691.1
5690.95
5694.74
5694.82
5694.92
5695.03
5695.12
5694.36
5694.5
5692.1
5694.79
5694.87
5694.96
5695.05
5695.13
5695.22
5695.3
5695.38
5694.84
5694.9
5694.97
5695.04
5695.12
5695.2
5695.29
5695.38
5694.88
5694.91
5694.97
5695.04
5695.12
5695.2
5695.3
5695.39
5694.88
5694.92
5694.98
5695.05
5695.13
5695.22
5695.32
5695.4
5694.94
5694.96
5695.02
5695.1
5695.18
5695.27
5695.36
5695.3
5694.82
5694.84
5694.94
5695.06
5695.17
5695.28
5695.39
5695.37
5699.72
5699.7
5699.71
5699.74
5699.79
5698.96
5699.42
5697.6
5699.84
5699.79
5699.77
5699.77
5699.81
5699.86
5699.93
5700.01
5699.95
5699.85
5699.8
5699.79
5699.81
5699.86
5699.93
5700.02
5700.03
5699.9
5699.83
5699.81
5699.82
5699.86
5699.93
5700.02
5700.07
5699.94
5699.86
5699.83
5699.83
5699.88
5699.95
5700.03
5700.15
5699.99
5699.91
5699.88
5699.89
5699.93
5700
5699.79
5700
5699.88
5699.85
5699.86
5699.9
5699.96
5700.05
5699.71
5704.59
5704.54
5704.51
5704.51
5704.53
5703.73
5704.32
5703.05
5704.69
5704.6
5704.54
5704.52
5704.53
5704.57
5704.64
5704.72
5704.76
5704.63
5704.55
5704.52
5704.52
5704.57
5704.64
5704.73
5704.82
5704.66
5704.57
5704.53
5704.53
5704.57
5704.64
5704.73
5704.84
5704.68
5704.59
5704.55
5704.55
5704.58
5704.65
5704.74
5704.86
5704.71
5704.62
5704.59
5704.59
5704.62
5704.68
5704.44
5704.66
5704.56
5704.53
5704.54
5704.57
5704.62
5704.7
5703.39
5709.13
5709.15
5709.17
5709.2
5709.24
5708.62
5709.22
5708.38
5709.12
5709.13
5709.15
5709.18
5709.22
5709.29
5709.37
5709.46
5709.12
5709.11
5709.13
5709.16
5709.2
5709.27
5709.37
5709.47
5709.15
5709.13
5709.13
5709.16
5709.21
5709.28
5709.38
5709.48
5709.16
5709.14
5709.15
5709.18
5709.22
5709.29
5709.39
5709.49
5709.17
5709.16
5709.17
5709.21
5709.25
5709.32
5709.4
5709.26
5709.02
5709.03
5709.09
5709.15
5709.22
5709.3
5709.38
5707.29
5713.86
5713.9
5713.95
5714
5714.06
5713.7
5714.19
5713.38
5713.84
5713.89
5713.93
5713.99
5714.05
5714.13
5714.23
5714.3
5713.86
5713.89
5713.92
5713.97
5714.03
5714.12
5714.22
5714.33
5713.91
5713.92
5713.94
5713.99
5714.05
5714.13
5714.24
5714.35
5713.95
5713.94
5713.97
5714.02
5714.08
5714.16
5714.27
5714.36
5713.99
5713.99
5714.02
5714.07
5714.12
5714.2
5714.29
5714.29
5713.93
5713.94
5714
5714.06
5714.13
5714.21
5714.3
5712.08
5719.01
5718.99
5718.99
5719.01
5718.99
5718.89
5719.19
5718.21
5719.1
5719.05
5719.03
5719.03
5719.06
5719.12
5719.17
5719.24
5719.21
5719.12
5719.06
5719.05
5719.06
5719.11
5719.2
5719.29
5719.31
5719.19
5719.12
5719.09
5719.09
5719.13
5719.21
5719.3
5719.39
5719.25
5719.17
5719.13
5719.13
5719.17
5719.25
5719.33
5719.48
5719.32
5719.24
5719.2
5719.21
5719.24
5719.3
5719.35
5719.45
5719.34
5719.28
5719.25
5719.26
5719.3
5719.32
5717.46
5724.24
5724.12
5724.03
5723.99
5723.84
5723.96
5724.06
5722.69
5724.42
5724.24
5724.11
5724.04
5724.01
5724.02
5724.03
5724.06
5724.58
5724.34
5724.17
5724.07
5724.02
5724.02
5724.07
5724.14
5724.7
5724.42
5724.23
5724.11
5724.04
5724.03
5724.08
5724.14
5724.76
5724.48
5724.28
5724.15
5724.08
5724.07
5724.1
5724.15
5724.81
5724.52
5724.33
5724.21
5724.14
5724.12
5724.14
5724.18
5724.69
5724.47
5724.32
5724.23
5724.18
5724.17
5724.11
5723.06
5598.73
5677.89
5675.47
5673.07
5670.87
5670.01
5669.64
5669.48
5563.35
5652.25
5677.31
5674.47
5665.56
5666.55
5669.92
5669.94
5487.08
5609.64
5678.04
5675.37
5670.05
5663.25
5669.48
5670.09
5523.8
5631.9
5677.61
5674.72
5671.79
5669.46
5669.59
5669.3
5553.89
5677.55
5675.27
5672.77
5670.8
5663.67
5664.29
5655.86
5662.29
5675.05
5672.6
5670.57
5668.63
5660.39
5666.74
5665.17
5674.59
5672.56
5670.65
5669
5667.6
5663.39
5665.95
5666.25
5530.18
5670.91
5670.82
5670.23
5669.38
5669.36
5669.34
5669.31
5351.91
5599.46
5670.93
5670.49
5662.88
5665.26
5669.04
5669.39
5418.6
5522.97
5671.78
5671.17
5663.25
5661.63
5669.41
5669.41
5402.8
5564.15
5671.76
5671.06
5669.69
5668.61
5668.56
5668.79
5405
5667.73
5670.97
5670.3
5669.62
5661.97
5664
5655.73
5652.12
5670.91
5670.29
5669.57
5668.34
5661.61
5667.74
5666.16
5670.94
5670.5
5669.72
5668.97
5668.01
5665.34
5667.29
5667.6
5315.27
5661.23
5663.28
5664.62
5665.26
5666.27
5666.8
5667.18
4361.14
5427.71
5661.78
5663.9
5658.03
5661.38
5665.51
5666.9
3971.21
5191.97
5660.75
5663.26
5657.29
5659.73
5662.83
5665.42
4325.49
5301.85
5661.51
5663.64
5664.48
5665.18
5661.07
5666.09
4877.6
5636.29
5663.03
5664.53
5665.51
5658.54
5662.65
5655.71
5605.59
5663.1
5664.5
5665.41
5662.28
5663.56
5666.34
5665.16
5663.55
5664.76
5665.49
5666.03
5665.56
5665.6
5666.47
5667.02
5139.85
5663.78
5665.03
5666.19
5666.87
5668.01
5668.52
5669.19
3653.68
5288.05
5664.68
5665.86
5659.63
5663.55
5667.04
5667.98
3525.08
4840.33
5663.26
5664.92
5661.86
5666.72
5657.19
5656.45
3473.96
5032.47
5663.87
5665.19
5666.11
5667.35
5662.55
5667.61
4451.69
5602.87
5664.82
5665.98
5666.56
5659.65
5666.8
5666.92
5542.57
5664.34
5665.59
5666.66
5658.7
5662.71
5665.9
5667.54
5664.57
5665.58
5666.48
5667.3
5666.62
5667.36
5667.52
5668.85
5186.61
5675.91
5675
5674.65
5674.37
5674.86
5674.93
5675.54
3840.45
5359.79
5676.2
5674.57
5667.61
5672.3
5673.98
5671.11
3505.5
4944.73
5676.32
5675.2
5674.28
5675.01
5663.62
5663.02
3523.86
5109.88
5675.96
5675.02
5674.59
5674.89
5672.75
5674.22
4567.94
5619.3
5675.04
5674.58
5669.62
5666.1
5673.54
5673.98
5552.37
5674.22
5673.98
5674
5664.29
5661.83
5663.75
5673.32
5673.65
5673.5
5673.61
5673.76
5672.52
5672.57
5671.3
5674.21
5325.77
5684.48
5683.53
5682.47
5681.74
5681.74
5681.52
5681.97
4734.41
5503.34
5685.2
5681.66
5675.14
5681.31
5681.08
5676.24
4316.42
5296.26
5685.21
5684.12
5683.09
5682.62
5671.11
5669.61
4366.29
5378.93
5685.7
5684.02
5682.85
5682.46
5680.97
5681.1
5023.46
5647.02
5684.31
5683.07
5671.07
5673.54
5680.38
5680.56
5588.68
5683.66
5682.63
5681.87
5670
5668.27
5668.27
5679.58
5683.3
5682.38
5681.72
5681.18
5679.4
5678.34
5676.54
5680.34
5315.6
5686.25
5687.18
5686.44
5686.06
5685.98
5685.9
5686.17
5113.75
5474.28
5687.88
5685.06
5684.55
5686.23
5685.72
5681.24
5123.14
5320.05
5683.81
5687.49
5686.93
5686.6
5676.41
5673.18
5080.07
5387.8
5687.21
5687.43
5686.79
5686.35
5683.87
5684.98
5104.05
5642.75
5687.45
5686.87
5674.13
5679.68
5680.6
5684.09
5596.12
5687.13
5686.65
5686.15
5673.5
5672.35
5672.32
5683.95
5687.38
5686.89
5686.32
5685.8
5684.04
5682.23
5680.98
5684.88
5180.49
5685.62
5687.41
5687.69
5688.1
5688.31
5688.27
5688.79
4525.66
5309.82
5686.76
5687
5687.89
5688.18
5688.38
5686.11
4515.56
5064.79
5685.57
5687.54
5687.88
5688.14
5681.25
5674.83
4694.39
5175.71
5686.67
5687.57
5687.87
5687.39
5684.81
5683.63
4798.33
5610.29
5687.24
5687.69
5680.4
5685.19
5674.81
5685.8
5565.58
5687.18
5687.65
5687.85
5676.95
5674.55
5674.7
5687.07
5687.77
5688.16
5688.17
5688.1
5686.82
5684.64
5684.28
5688.07
5050.28
5689.04
5689.98
5690.55
5691.05
5691.27
5691.01
5692
3541.62
5185.18
5689.23
5690.06
5690.65
5691.08
5691.49
5690.91
3416.84
4765.72
5688.93
5689.72
5690.31
5690.79
5685.98
5677.46
3502.38
4912
5689.38
5689.92
5690.37
5688.81
5688
5681.04
4331.89
5567.51
5689.72
5690.2
5689.94
5689.9
5677.53
5688.81
5502.85
5689.34
5690.07
5690.47
5684.27
5677.26
5678.27
5690.86
5689.81
5690.28
5690.54
5690.77
5690.05
5687.47
5688.31
5691.46
5054.76
5696.46
5696.38
5696.22
5696.2
5695.73
5695.67
5696.62
3530.26
5217.03
5696.98
5696.41
5696.19
5696.2
5695.72
5695.99
3212.71
4795.4
5696.76
5696.15
5695.96
5696.01
5690.58
5682.11
3198.73
4915.96
5696.67
5696.03
5695.85
5693.21
5693.96
5686.26
4304.18
5559.38
5696.08
5695.77
5695.66
5695.15
5682.21
5693.75
5480.6
5694.77
5695.37
5695.39
5692.96
5681.57
5685.48
5695.71
5695.12
5695.09
5695.19
5695.28
5694.75
5691.63
5693.52
5695.89
5068.12
5698.31
5701.09
5700.87
5700.77
5699.91
5700.13
5701.08
4112.8
5284.62
5702.12
5701.43
5701.09
5701.01
5694.43
5700.73
3753.57
4998.08
5694.69
5701.61
5701.27
5701.16
5693.96
5686.75
3627.81
5047.58
5702.12
5701.5
5701.19
5698.35
5700.12
5695.45
4482.67
5562.9
5701.49
5701.09
5700.72
5700.03
5686.89
5699.03
5482.16
5699.6
5700.71
5700.45
5698.63
5686.22
5692.18
5700.64
5700.68
5700.5
5700.46
5700.33
5699.72
5696.06
5698.67
5700.66
5008.73
5695.72
5704.31
5704.42
5704.53
5703.73
5704.03
5705.08
4573.33
5213.76
5704.59
5704.79
5704.76
5704.45
5697.28
5704.75
4741
4972.39
5678.89
5705.1
5705.04
5703.85
5697.41
5691.15
4264.61
5039.68
5700.66
5705.16
5705.08
5702.29
5704.9
5704.43
4509.2
5542.59
5705.01
5704.96
5704.35
5704.07
5690.77
5703.75
5468.99
5702.44
5704.76
5704.35
5702.71
5690.24
5697.27
5705.05
5704.94
5704.9
5704.89
5704.73
5704.12
5699.65
5703.17
5705.11
4842.85
5693.34
5707.95
5708.36
5708.68
5707.93
5708.36
5709.47
4182.28
4952.02
5707.44
5708.04
5708.43
5704.49
5701.2
5709.03
4238.84
4596.54
5677.6
5707.84
5708.29
5698.72
5704.11
5707.62
4066.38
4792.4
5700.3
5707.93
5708.33
5706.88
5709
5709.39
4250.15
5463.67
5707.68
5708.04
5707.68
5707.99
5695.6
5708.61
5408.2
5702.98
5708.15
5707.65
5706.29
5694.05
5702.47
5709.39
5708.23
5708.57
5708.77
5708.78
5708.19
5702.88
5707.53
5709.49
4783.27
5698.07
5713.85
5714.03
5714.18
5713.11
5713.68
5714.78
3300.73
4842.73
5713.4
5713.61
5713.83
5702.81
5706.54
5714.46
2989.83
4293.04
5686.88
5713.26
5713.51
5702.31
5711.59
5714.58
3173.73
4500.96
5709.63
5713.32
5713.51
5713.16
5714.15
5714.53
3910.2
5392.24
5713.31
5712.64
5712.96
5712.59
5710.34
5714.34
5359.99
5705.01
5713.37
5712.63
5710.84
5698.81
5708.85
5714.48
5713.49
5713.66
5713.8
5713.82
5712.96
5707.52
5712.68
5714.49
4839.19
5707.1
5721.04
5720.65
5720.37
5718.56
5719.46
5720.4
3300.53
4942.37
5721.77
5720.9
5720.46
5707.82
5713.35
5720.36
2953.08
4424.2
5694.57
5720.9
5720.43
5709.28
5719.48
5720.69
2915.66
4546.75
5718.94
5720.7
5719.58
5720.15
5720.32
5720.61
3946.84
5400.97
5720.77
5719.02
5719.79
5709.06
5716.62
5720.38
5370.58
5711.16
5720.02
5718.98
5716.49
5704.35
5715.75
5720.12
5720.19
5720.03
5719.92
5719.78
5718.33
5713.45
5718.59
5719.95
4905.46
5713.6
5725.8
5725.39
5725.02
5722.73
5724.26
5725.03
4031.14
5114.81
5725.5
5726.06
5725.51
5712.58
5718.8
5725.16
4050.12
4823.98
5689.46
5726.45
5725.77
5721.7
5725.24
5725.17
3485.85
4799.39
5718.71
5726.32
5724.7
5725.6
5725.51
5725.51
4241.42
5439.63
5726.31
5724.71
5725.45
5709.57
5721.25
5725.51
5401.16
5717.1
5725.62
5724.76
5721.77
5709.28
5721.95
5725.17
5725.86
5725.61
5725.37
5725.16
5722.86
5720.27
5724.17
5724.96
5673.81
5671.41
5669.37
5667.75
5666.57
5665.79
5665.34
5665.18
5673.98
5670.98
5668.69
5666.99
5665.76
5664.9
5664.4
5664.21
5673.19
5670.22
5667.9
5666.06
5664.77
5661.76
5662.18
5663.31
5671.7
5668.99
5666.81
5665
5663.75
5659.97
5661.57
5656.74
5669.84
5667.53
5665.67
5664.3
5663.14
5660.82
5654.93
5656.2
5667.97
5666.1
5664.6
5663.44
5662.47
5659.61
5659.03
5653.83
5666.32
5664.98
5663.8
5662.86
5662.17
5661.68
5657.25
5649.3
5670.23
5669.46
5668.77
5668.14
5667.63
5667.26
5667.01
5666.92
5670.73
5669.64
5668.69
5667.87
5667.22
5666.74
5666.43
5666.31
5670.55
5669.34
5668.25
5667.13
5666.5
5664.28
5665.79
5664.17
5669.85
5668.67
5667.56
5666.49
5665.73
5665.05
5664.28
5659.15
5668.97
5667.87
5666.89
5666.07
5665.35
5660.74
5657.47
5663.29
5668.01
5667.03
5666.18
5665.53
5664.7
5662.27
5662.19
5652.2
5667.09
5666.33
5665.65
5665.13
5664.74
5664.36
5659.3
5651.87
5663.28
5664.36
5665.26
5665.9
5666.35
5666.65
5666.81
5666.96
5663.63
5664.92
5665.71
5666.17
5666.47
5666.62
5666.74
5666.86
5664.02
5665.09
5665.71
5665.89
5666.19
5666.3
5666.59
5662.3
5664.35
5665.2
5665.65
5665.84
5665.84
5665.99
5663.82
5660.48
5664.74
5665.35
5665.72
5665.83
5665.84
5660.14
5660.57
5665.93
5665.04
5665.44
5665.71
5665.92
5665.45
5664.45
5663.94
5654.46
5665.31
5665.53
5665.72
5665.89
5666.01
5665.76
5662.28
5657.52
5664.49
5665.54
5666.54
5667.38
5668.04
5668.54
5668.9
5669.13
5664.4
5665.81
5666.85
5667.61
5668.2
5668.61
5668.95
5669.14
5664.72
5665.99
5666.93
5667.55
5667.93
5668.65
5668.94
5664.5
5665.17
5666.31
5667.09
5667.71
5667.94
5668.22
5663.18
5666.62
5665.76
5666.69
5667.41
5667.84
5667.35
5662.47
5664.79
5668.67
5666.33
5667.07
5667.68
5668.17
5667.89
5667.9
5665.82
5657.57
5666.92
5667.45
5667.93
5668.33
5668.63
5668.22
5663.99
5662.83
5673.4
5673.27
5673.31
5673.45
5673.63
5673.84
5674.07
5674.24
5673.01
5673.02
5673.13
5673.28
5673.47
5673.66
5673.86
5673.93
5673.02
5672.96
5672.97
5673.14
5673.02
5673.48
5673.64
5669.09
5673.08
5672.99
5672.97
5673.1
5672.97
5672.84
5667.59
5672.48
5672.99
5672.96
5673
5673.01
5669.14
5666.93
5669.18
5673.17
5672.9
5672.94
5673.04
5673.16
5672.71
5672.55
5665.14
5661.32
5672.94
5673.02
5673.11
5673.2
5673.28
5672.54
5661.98
5667.14
5682.92
5681.84
5681.05
5680.51
5680.19
5680.05
5680.07
5680.14
5682.7
5681.47
5680.65
5680.12
5679.81
5679.66
5679.64
5679.25
5682.28
5681.11
5680.25
5679.8
5679.25
5679.19
5679.2
5674.45
5681.72
5680.68
5679.91
5679.44
5678.93
5677.99
5672.85
5678.27
5680.99
5680.17
5679.56
5679.02
5673.76
5673.92
5672.97
5676.93
5680.29
5679.7
5679.27
5678.89
5678.39
5677.7
5665.37
5665.85
5679.78
5679.39
5679.07
5678.82
5678.64
5677.38
5665.24
5671.65
5687.03
5686.26
5685.65
5685.2
5684.89
5684.72
5684.68
5684.71
5687.14
5686.2
5685.51
5684.98
5684.61
5684.39
5684.31
5683.15
5686.78
5685.87
5685.16
5684.65
5684.15
5683.94
5683.58
5681.83
5686.26
5685.44
5684.78
5684.19
5683.67
5678.81
5677.55
5683.03
5685.68
5684.98
5684.41
5683.68
5678.37
5680.86
5676.88
5672.97
5685.1
5684.55
5684.08
5683.19
5683.13
5680.29
5669.67
5675.1
5684.61
5684.22
5683.86
5683.57
5683.35
5681.5
5669.54
5669.68
5687.55
5687.65
5687.76
5687.81
5687.84
5687.88
5687.95
5688.02
5688.06
5688.06
5688.01
5687.91
5687.83
5687.79
5687.8
5686.55
5688.17
5688.06
5687.91
5687.76
5687.51
5687.58
5684.74
5687.05
5688.07
5687.91
5687.76
5687.46
5686.76
5677.72
5681.56
5686.86
5687.95
5687.79
5687.62
5686.87
5683.92
5684.6
5680.89
5675.5
5687.82
5687.65
5687.47
5686.67
5686.7
5679.29
5675.26
5682.68
5687.69
5687.55
5687.41
5687.31
5687.1
5684.98
5674.05
5673.3
5689.56
5689.94
5690.34
5690.65
5690.9
5691.1
5691.27
5691.39
5689.88
5690.34
5690.64
5690.84
5690.98
5691.11
5691.23
5690
5690.13
5690.44
5690.65
5690.79
5690.73
5691.02
5685.1
5690.72
5690.25
5690.48
5690.66
5690.69
5688.2
5680.97
5684.82
5689.05
5690.38
5690.56
5690.69
5689.46
5688.98
5683.08
5685.69
5679.01
5690.51
5690.62
5690.67
5690.18
5688.67
5681.53
5687.52
5688.62
5690.63
5690.71
5690.78
5690.86
5690.56
5688.41
5682.51
5676.89
5694.79
5694.79
5694.9
5695.05
5695.21
5695.37
5695.54
5695.67
5694.51
5694.73
5694.89
5695.04
5695.17
5695.3
5695.44
5694.2
5694.56
5694.71
5694.84
5694.95
5694.89
5695.21
5689.17
5695.02
5694.62
5694.73
5694.84
5694.95
5689.92
5684.9
5690.42
5686
5694.68
5694.76
5694.86
5693.03
5692.95
5684.9
5693.16
5682.98
5694.7
5694.78
5694.78
5694.55
5689.4
5685.66
5693.75
5693.83
5694.77
5694.84
5694.94
5695.04
5694.69
5691.87
5689.25
5680.69
5700.49
5700.21
5700.08
5700.05
5700.07
5700.15
5700.26
5700.36
5700.32
5700.11
5700
5699.97
5699.98
5700.03
5700.13
5699.12
5700.21
5700.01
5699.9
5699.83
5699.72
5699.48
5695.05
5699.66
5700.1
5699.93
5699.83
5699.8
5694.45
5689.35
5698.03
5689.48
5699.96
5699.83
5699.77
5697.94
5697.28
5689.34
5699.58
5692.41
5699.82
5699.74
5699.61
5699.26
5693.11
5694.35
5697.47
5697.48
5699.75
5699.71
5699.72
5699.75
5699.4
5694.97
5693.21
5684.56
5704.8
5704.62
5704.58
5704.58
5704.62
5704.7
5704.77
5704.86
5705.05
5704.82
5704.7
5704.64
5704.63
5704.67
5704.76
5704.69
5705.03
5704.79
5704.66
5704.41
5704.56
5699.42
5702.31
5704.22
5704.93
5704.73
5704.61
5704.55
5700.4
5693.84
5703.71
5693.93
5704.8
5704.66
5704.57
5703.36
5701.76
5693.85
5704.26
5703.95
5704.69
5704.59
5704.46
5703.95
5697.7
5700.68
5691.94
5691.44
5704.63
5704.56
5704.54
5704.5
5704.33
5698.96
5696.64
5688.91
5708.28
5708.45
5708.66
5708.84
5708.99
5709.15
5709.2
5709.33
5708.78
5708.86
5708.95
5709.04
5709.12
5709.22
5709.33
5709.45
5708.94
5708.96
5709.01
5708.84
5709.12
5702.92
5708.9
5704.67
5708.98
5709
5709.05
5709.05
5707.68
5699.51
5708.69
5698.43
5709.02
5709.06
5709.1
5708.88
5706.17
5698.32
5708.98
5708.79
5709.09
5709.12
5709.14
5708.54
5702.27
5705.34
5693.23
5693.29
5709.17
5709.18
5709.21
5709.01
5709.2
5703.46
5701.52
5693.34
5713.57
5713.62
5713.73
5713.85
5713.98
5714.13
5714.16
5714.37
5713.71
5713.76
5713.85
5713.94
5714.04
5714.15
5714.2
5714.39
5713.74
5713.77
5713.84
5713.7
5714.01
5712.25
5714.15
5704.34
5713.71
5713.78
5713.86
5713.81
5713.97
5713.01
5713.87
5704.56
5713.74
5713.82
5713.87
5713.96
5708.98
5708.79
5713.85
5713.89
5713.81
5713.87
5713.93
5713.04
5708.38
5710.23
5697.79
5697.85
5713.89
5713.94
5714
5713.58
5714
5708.08
5708.7
5700.84
5720.2
5719.87
5719.65
5719.54
5719.51
5719.55
5719.53
5719.74
5719.79
5719.55
5719.42
5719.37
5719.36
5719.41
5719.43
5719.2
5719.54
5719.36
5719.27
5719.01
5719.24
5719.31
5719.22
5708.98
5719.35
5719.25
5719.18
5719.06
5719.19
5719.25
5718.91
5715.01
5719.22
5719.15
5719.08
5719.09
5711.13
5717.41
5718.85
5718.94
5719.12
5719.07
5719.06
5716.51
5716.32
5715.07
5702.89
5702.51
5719.04
5719.03
5719.02
5718.57
5718.74
5712.94
5717.79
5714.14
5725.86
5725.36
5725
5724.78
5724.65
5724.62
5724.61
5724.71
5725.61
5725.1
5724.79
5724.6
5724.49
5724.45
5724.47
5720.74
5725.28
5724.89
5724.62
5724.25
5724.34
5724.32
5723.78
5713.68
5725
5724.69
5724.46
5724.29
5724.24
5724.22
5723.81
5723.09
5724.75
5724.49
5724.28
5724.18
5715.94
5722.43
5723.74
5720.85
5724.49
5724.31
5724.18
5720.57
5721.38
5718.24
5711.49
5707.06
5724.28
5724.16
5724.02
5723.63
5722.91
5718.26
5724.09
5721.3
5661.47
5660.35
5658.2
5656.87
5658.02
5657.71
5657.55
5657.53
5663.53
5661.8
5660.15
5655.42
5654.62
5657.59
5658.11
5658
5665.2
5660.79
5660.74
5660.11
5658.52
5655.09
5658.13
5658.82
5596.57
5666.23
5661.09
5661.27
5660.88
5660.15
5659.18
5659.81
5665.29
5663.18
5661.86
5658.35
5652.29
5660.13
5653.03
5660.79
5669.55
5667.96
5665.63
5664.98
5664.29
5663.66
5663.29
5663.14
5672.2
5669.97
5667.62
5662.31
5661.16
5664.25
5664.1
5663.88
5674.87
5672.35
5670.04
5667.8
5663.24
5661.57
5664.77
5664.74
5651.81
5675.23
5672.32
5670.04
5668.31
5665.79
5666.02
5666.15
5596.38
5677.44
5674.1
5671.53
5669.65
5661.05
5659.13
5667.14
5605.52
5678.23
5674.92
5672.44
5670.51
5662.98
5659.79
5668.02
5659.51
5678.06
5675.13
5672.78
5670.97
5669.25
5667.03
5668.94
5668.57
5667.82
5666.95
5666.43
5665.95
5665.64
5665.41
5665.28
5669.57
5668.72
5666.81
5662.88
5662.49
5665.98
5665.93
5665.78
5670.45
5669.74
5668.77
5667.56
5663.08
5662.58
5666.35
5666.23
5629.96
5670.46
5669.72
5668.91
5668.16
5663.33
5666.88
5667.17
5515.13
5670.88
5670.37
5669.63
5668.88
5660.2
5662.57
5667.92
5523.74
5670.82
5670.55
5669.98
5669.37
5660.76
5662.34
5668.53
5629.1
5670.67
5670.43
5669.95
5669.53
5667.59
5667.24
5668.96
5664.41
5664.9
5665.32
5665.58
5665.85
5666.03
5666.13
5666.1
5663.25
5664.23
5662.97
5661.04
5663
5665.82
5666.17
5666.12
5661.49
5663.21
5664.29
5664.28
5661.23
5661.81
5666.11
5666.25
5547.79
5661.75
5663.57
5664.71