/*--------------------------------*- C++ -*----------------------------------*\
| =========                 |                                                 |
| \\      /  F ield         | OpenFOAM: The Open Source CFD Toolbox           |
|  \\    /   O peration     | Version:  plus.master.MPPICInterFoam            |
|   \\  /    A nd           | Web:      www.OpenFOAM.com                      |
|    \\/     M anipulation  |                                                 |
\*---------------------------------------------------------------------------*/
FoamFile
{
    version     2.0;
    format      ascii;
    class       Cloud<basicKinematicMPPICParcel>;
    location    "10.2/lagrangian/kinematicCloud";
    object      positions;
}
// * * * * * * * * * * * * * * * * * * * * * * * * * * * * * * * * * * * * * //

2487
(
(0.060504 -0.00819685 0.25141) 412
(0.0613196 -0.00828834 0.252246) 412
(0.0583354 -0.00859713 0.251928) 411
(0.0583676 -0.00830516 0.252048) 411
(0.0621428 -0.00745624 0.25489) 468
(0.0636282 -0.011355 0.255742) 468
(0.0596612 -0.00944124 0.254258) 468
(0.0606469 -0.00898532 0.257192) 468
(-0.0591659 0.00219329 0.271729) 1283
(0.0616439 -0.0117366 0.258037) 468
(0.0597684 -0.0110738 0.257468) 468
(0.0555846 -0.0105586 0.257342) 467
(0.0605119 -0.0130109 0.259253) 468
(-0.0583001 0.00187257 0.273749) 1283
(-0.0616432 -0.00307833 0.273789) 1284
(0.0634598 -0.0120737 0.256902) 468
(0.0632254 -0.0116024 0.259193) 468
(0.0644273 -0.00972974 0.263474) 468
(0.0606568 -0.0125381 0.258407) 468
(0.0613848 -0.0129333 0.262432) 468
(0.0568425 -0.0115467 0.263867) 467
(-0.0594818 0.00257565 0.275013) 1339
(0.057806 -0.0105222 0.265054) 523
(0.0586666 -0.0146396 0.259181) 468
(-0.0563752 0.00210849 0.274597) 1339
(0.064271 -0.0107044 0.260602) 469
(0.0606122 -0.0137429 0.259351) 468
(0.055874 -0.010765 0.261972) 467
(0.060148 -0.0141361 0.259028) 468
(0.0579277 -0.00940326 0.265063) 523
(0.0560241 -0.00104855 0.260228) 475
(-0.0546554 -0.000591436 0.275363) 1339
(-0.0538601 0.00129743 0.275622) 1338
(-0.0541598 0.00281496 0.275161) 1339
(-0.0558226 0.00348521 0.275483) 1339
(-0.0613185 -0.00163127 0.276877) 1340
(0.0582589 -0.0154242 0.260354) 468
(0.0570219 -0.0146361 0.26349) 467
(0.0569889 -0.000996709 0.26196) 475
(0.0620732 0.000165589 0.261757) 476
(0.0574777 -0.0169004 0.263491) 468
(0.0529556 -0.000886399 0.260737) 474
(-0.0551179 0.00270776 0.278266) 1339
(0.0519187 -0.0140811 0.260879) 466
(-0.0579072 0.00217267 0.275435) 1339
(0.0505944 -0.0117341 0.264799) 522
(-0.0634542 -0.00208081 0.279157) 1340
(0.0540534 -0.0124941 0.266297) 523
(-0.0584992 -0.00195309 0.276331) 1339
(-0.0577388 0.0025936 0.275718) 1339
(0.0545979 -0.0124257 0.266709) 523
(0.0623465 -0.000649597 0.262912) 476
(-0.0593065 0.00245311 0.276839) 1339
(0.0566931 -0.0139413 0.264591) 523
(0.0539103 -0.0112115 0.267128) 523
(0.0570963 -0.000959637 0.263795) 475
(0.0517577 -0.0181391 0.262181) 459
(-0.0608347 0.000967394 0.278003) 1340
(0.0561893 -0.000982718 0.263693) 475
(-0.0594898 -0.00297617 0.277558) 1339
(-0.0381063 -0.0386204 0.282093) 2066
(0.0601244 -0.0165098 0.265557) 524
(0.0595082 0.00211312 0.262686) 475
(-0.0404438 -0.0318561 0.279534) 1362
(0.0522652 -0.0117907 0.267643) 522
(0.054301 -0.0147455 0.262905) 467
(0.0569714 -0.0156468 0.265711) 523
(0.0596198 0.00040444 0.263203) 476
(-0.0390839 -0.0356424 0.281186) 1362
(-0.0564804 -0.00964049 0.28301) 1347
(-0.054956 0.00367136 0.279306) 1339
(0.0631952 0.00189714 0.264111) 532
(0.0547286 0.00150044 0.262364) 475
(-0.0395122 -0.0324753 0.280774) 1362
(0.0527185 -0.0121198 0.268807) 522
(-0.0415752 -0.0324739 0.281414) 1362
(-0.0554364 -0.00934289 0.283099) 1347
(0.0585209 -0.0166746 0.266311) 524
(0.0596485 0.000325124 0.263992) 476
(-0.0521841 -0.0137554 0.282717) 1346
(0.057881 -0.00718522 0.269391) 523
(0.0517891 -0.0141459 0.264176) 522
(0.0636733 -0.0127223 0.263982) 468
(-0.0584762 0.0120692 0.278928) 1332
(-0.0286651 -0.0451693 0.282461) 2066
(-0.050676 0.0291085 0.278688) 1323
(-0.0566308 0.0148941 0.278353) 1331
(0.0525279 -0.0138687 0.26466) 523
(0.052197 -0.0117989 0.269514) 522
(0.050963 -0.0135604 0.267845) 522
(-0.0393228 -0.0340449 0.282499) 1362
(0.0532746 -0.0155922 0.267527) 523
(0.0591979 -0.0164999 0.267097) 524
(-0.0541236 0.00313835 0.279794) 1339
(-0.051287 -0.0126358 0.281785) 1346
(-0.0579139 0.0158475 0.27981) 1332
(0.0557631 -0.0195318 0.267622) 515
(-0.0559285 0.0152431 0.281126) 1331
(-0.0532846 0.0134809 0.279355) 1331
(0.0586401 -0.0171513 0.267494) 524
(-0.0192307 -0.0549505 0.280057) 2075
(-0.0288002 -0.0447873 0.284179) 2122
(-0.0272306 -0.0450045 0.28357) 2074
(-0.0531315 0.0145754 0.27951) 1331
(-0.0313968 -0.044324 0.283899) 2123
(-0.0272082 -0.0434513 0.283606) 2074
(-0.0285323 -0.043346 0.284214) 2122
(-0.0247498 -0.0453976 0.283872) 2130
(-0.0506446 -0.0151384 0.283543) 1346
(-0.0480559 0.0305049 0.281169) 1315
(-0.0304733 -0.0424544 0.283887) 2122
(0.0560298 -0.0157162 0.268835) 523
(0.059062 -0.0188918 0.267968) 524
(-0.0597615 0.000864379 0.280849) 1340
(0.0546374 -0.0162441 0.269398) 523
(0.0602619 -0.0139736 0.266577) 524
(-0.0384908 -0.0326722 0.284304) 1418
(-0.0490426 -0.0145897 0.285187) 1402
(-0.0562315 -0.00264999 0.280645) 1339
(-0.0561203 0.0123066 0.280521) 1331
(-0.038167 -0.0321747 0.284034) 1418
(0.057255 -0.0157474 0.269183) 523
(-0.0486915 0.0278424 0.282641) 1323
(0.0550961 -0.016335 0.269693) 523
(-0.0599687 -0.00268838 0.281544) 1340
(0.0627757 0.00310273 0.268035) 532
(-0.0280078 -0.0472366 0.287469) 2131
(-0.0312562 -0.0431907 0.285468) 2122
(0.0526567 -0.014487 0.273543) 523
(-0.0498981 -0.0131656 0.284537) 1402
(0.0534991 -0.0174656 0.27033) 523
(-0.0520815 0.0126995 0.282184) 1330
(0.0602712 -0.00968136 0.267927) 524
(0.0520364 -0.0170543 0.270924) 523
(0.056731 0.00325682 0.267612) 531
(-0.055416 -0.00129514 0.281904) 1339
(-0.0551367 0.0117322 0.281583) 1331
(-0.0574216 0.0121765 0.281981) 1331
(-0.0527124 -0.0113283 0.285483) 1402
(0.0497604 -0.0157309 0.273232) 522
(0.0543619 -0.0160686 0.270761) 523
(-0.0535784 0.0110558 0.283385) 1331
(0.0593035 0.00220919 0.267612) 531
(-0.00628685 -0.0590459 0.280008) 2091
(-0.0500086 -0.0156753 0.28517) 1402
(-0.0595856 -0.00529196 0.284725) 1396
(0.0593134 -0.000152479 0.267913) 531
(-0.0048666 -0.0568999 0.283547) 2091
(-0.00589567 -0.0573401 0.279167) 2091
(-0.0510263 -0.0104809 0.286469) 1402
(0.0530643 -0.00164919 0.26942) 530
(0.0530838 -0.0105626 0.26864) 523
(-0.0270966 -0.0443194 0.286849) 2130
(-0.0260334 -0.0434758 0.285796) 2130
(-0.0283708 -0.0468936 0.288871) 2131
(-0.0627433 -0.00266454 0.284265) 1396
(-0.0474146 -0.0137901 0.287143) 1402
(0.0486717 -0.0139676 0.274408) 578
(0.0514364 -0.0156449 0.272075) 522
(-0.00468793 -0.0544181 0.28387) 2147
(0.0593564 0.000227496 0.26849) 531
(0.0585999 -0.015743 0.275926) 580
(-0.0549545 0.00179573 0.285399) 1395
(-0.0473132 0.0285478 0.284324) 1379
(-0.0494804 0.0279022 0.283475) 1323
(-0.0470558 -0.0154857 0.287402) 1402
(-0.0394587 -0.0320798 0.286169) 1418
(-0.0555823 0.00138818 0.283232) 1339
(-0.0481251 -0.0114722 0.288208) 1402
(-0.0466507 -0.0143095 0.287845) 1401
(0.0544022 -0.00173826 0.27105) 531
(-0.046484 0.0285884 0.284074) 1379
(-0.0241624 -0.0465695 0.28783) 2130
(0.0496146 -0.0169849 0.273224) 522
(-0.0469814 0.0284557 0.285018) 1379
(0.0575453 -0.000680314 0.269603) 531
(-0.0509114 0.0258966 0.283646) 1323
(0.0584183 -0.00887063 0.269362) 523
(-0.0608732 0.0111631 0.284802) 1388
(0.0530138 -0.018557 0.2726) 515
(0.0541075 -0.015385 0.272683) 523
(0.0555067 -0.0120538 0.271976) 523
(-0.0480047 -0.0177375 0.288312) 1410
(0.05101 -0.014617 0.275045) 578
(0.0533761 -0.0165035 0.272647) 523
(-0.0348083 -0.03348 0.287392) 1417
(-0.0539693 0.0114551 0.284241) 1387
(0.0492342 -0.0150414 0.274557) 578
(-0.0605286 0.00402702 0.285587) 1396
(-0.0405452 -0.0417281 0.285644) 2123
(-0.0459922 -0.013704 0.290015) 1401
(-0.0507922 0.000625563 0.287067) 1394
(0.0531586 -0.0154407 0.273198) 523
(-0.0553502 3.54307e-05 0.28699) 1395
(-0.0596271 -0.00553694 0.287333) 1396
(0.0595916 -0.00200577 0.27231) 532
(-0.0539367 -0.0120727 0.289189) 1403
(-0.0557969 -0.0109674 0.290067) 1403
(0.0507507 -0.0159063 0.273808) 522
(0.0531119 -0.0129762 0.272068) 523
(-0.0478504 0.0278712 0.287042) 1379
(-0.0559189 0.00387624 0.286376) 1395
(-0.056031 0.0107976 0.285158) 1387
(0.046751 -0.0115789 0.275117) 577
(-0.049459 0.0237645 0.286179) 1379
(-0.0556247 0.00275177 0.285671) 1395
(-0.0286362 -0.042502 0.289831) 2122
(-0.0402802 -0.033243 0.29039) 1418
(-0.0397782 -0.0315438 0.289799) 1418
(-0.0472941 -0.00902638 0.29043) 1401
(-0.0484079 -0.0143155 0.288329) 1402
(0.0495333 -0.0174229 0.274533) 570
(0.0560786 -0.0019659 0.273321) 531
(-0.0601853 0.00201443 0.286267) 1396
(-0.0503171 -0.000590541 0.288565) 1394
(0.0510131 -0.0148866 0.275123) 578
(0.0531135 -0.014075 0.273934) 579
(-0.0548904 0.00283189 0.287497) 1395
(-0.0496164 -0.0111911 0.288413) 1402
(0.0598514 -0.00950586 0.274815) 580
(-0.0585863 0.00492767 0.287835) 1395
(-0.0558788 0.0193952 0.28703) 1387
(-0.0189837 -0.0535021 0.285478) 2131
(-0.0476521 -0.0160191 0.288756) 1402
(-0.0520928 0.0148238 0.285736) 1386
(0.00932148 -0.0553926 0.287016) 2155
(-0.056627 0.0118791 0.285997) 1387
(-0.027493 -0.040316 0.289373) 2121
(-0.0276462 -0.0408853 0.289123) 2122
(-0.0496205 0.00533362 0.28858) 1394
(0.0488884 -0.0159357 0.27784) 578
(-0.00496945 -0.0519217 0.287146) 2146
(-0.0554534 0.0136134 0.28626) 1387
(-0.0285992 -0.0429008 0.291076) 2122
(-0.046112 -0.016841 0.290672) 1410
(0.0519656 -0.0136755 0.275132) 578
(0.0498537 -0.0112697 0.272138) 522
(-0.042123 -0.0370655 0.288341) 1419
(-0.00185424 -0.0579303 0.28814) 2147
(-0.0500361 -0.011153 0.289272) 1402
(0.0523551 -0.0157976 0.275268) 579
(-0.00469873 -0.0517015 0.287304) 2146
(0.0536932 -0.0131557 0.274817) 579
(-0.0527984 0.017375 0.289222) 1387
(-0.04937 -0.0267179 0.288336) 1411
(-0.0417491 -0.0359203 0.286372) 1419
(-0.0533369 0.00269233 0.290569) 1394
(-0.0506448 -0.0117403 0.289625) 1402
(0.049316 -0.0159025 0.278319) 578
(0.0519921 -0.00224193 0.272878) 530
(-0.0290928 -0.0438727 0.292287) 2122
(0.055509 -0.0103813 0.274941) 579
(-0.00523359 -0.0518712 0.287969) 2146
(-0.0399726 -0.0378206 0.287159) 1419
(-0.0516327 0.00584916 0.291154) 1386
(0.0488346 -0.0161524 0.276972) 578
(-0.0407139 -0.0379877 0.289437) 1419
(0.0204064 -0.0539983 0.288981) 2163
(-0.0400079 -0.0327798 0.290748) 1418
(0.0531153 -0.0127716 0.275301) 579
(-0.0413128 -0.0362245 0.288642) 1419
(-0.0554318 -0.0136644 0.289107) 1403
(-0.0471576 -0.0234733 0.286997) 1410
(0.0552768 -0.00150847 0.273538) 531
(-0.0520041 0.0054399 0.291195) 1394
(0.0477184 -0.0149051 0.277253) 578
(-0.00482836 -0.052918 0.288457) 2146
(-0.0492994 -0.0246224 0.28833) 1411
(-0.0522442 0.004256 0.291889) 1394
(-0.0473132 -0.0126278 0.291028) 1402
(0.0542273 -0.0103356 0.275363) 579
(-0.00248614 -0.0519261 0.288409) 2146
(-0.00486063 -0.0508157 0.28884) 2146
(-0.00386261 -0.052479 0.288537) 2146
(-0.058697 0.000629183 0.287954) 1395
(0.0542139 -0.0104578 0.276265) 579
(-0.0557432 0.00402487 0.290488) 1395
(0.0549837 -0.00251832 0.275351) 587
(-0.0591983 -0.00157577 0.28837) 1395
(-0.0535578 -0.0103163 0.294731) 1459
(-0.0526119 0.00102862 0.291557) 1394
(0.0480522 -0.0142723 0.280239) 578
(0.0525686 -0.0123428 0.277016) 578
(-0.0464967 0.0296407 0.290688) 1371
(-0.0394762 -0.0289276 0.291971) 1418
(-0.0531803 0.00300544 0.292082) 1394
(0.0530501 -0.0103412 0.276813) 578
(0.0216659 -0.0474128 0.287661) 2162
(-0.0552937 0.0122553 0.288892) 1387
(0.0511358 -0.0135244 0.276834) 578
(0.0533898 -0.00983415 0.276994) 579
(-0.0549138 0.00360533 0.291092) 1395
(-0.0518651 0.0126107 0.289257) 1386
(-0.0152921 -0.0535146 0.289634) 2139
(-0.0515221 0.000836985 0.291821) 1394
(0.0523751 -0.0122042 0.277629) 578
(0.0519898 -0.0128833 0.277619) 578
(0.0517367 -0.0132735 0.277643) 578
(-0.0542446 0.0167288 0.288917) 1387
(-0.0507132 -0.0143711 0.295205) 1458
(-0.0516449 0.000185448 0.291992) 1394
(-0.0522388 -0.0147713 0.292854) 1403
(-0.05556 -0.00164063 0.292314) 1395
(-0.0307375 0.0452449 0.292289) 2955
(-0.0392553 -0.0363815 0.293796) 1474
(-0.0546227 0.00318195 0.291672) 1395
(-0.0154278 -0.0533467 0.290378) 2139
(-0.0178394 -0.0544218 0.289021) 2139
(-0.0394926 -0.0345915 0.293341) 1418
(-0.055844 -0.0102436 0.291532) 1403
(-0.0387995 -0.0299242 0.293807) 1474
(0.0508497 -0.0134497 0.278753) 578
(-0.0152252 -0.049798 0.290731) 2138
(0.0221962 -0.0510059 0.291138) 2163
(0.0575704 -0.00608152 0.276819) 587
(-0.063057 -0.00214345 0.290048) 1396
(0.0509565 -0.0128421 0.280755) 578
(0.051332 -0.0140434 0.27821) 578
(0.0551252 -0.00707267 0.277879) 579
(-0.0549819 0.00375328 0.292123) 1395
(-0.0457366 -0.0272952 0.289605) 1410
(0.05188 -0.0116282 0.279938) 578
(0.052066 -0.0115408 0.279036) 578
(-0.0465931 -0.0088324 0.294548) 1457
(0.0513951 -0.0124277 0.279122) 578
(0.0505815 -0.0132924 0.279023) 578
(-0.0382708 -0.0370931 0.290555) 1418
(0.0218347 -0.0504802 0.291356) 2163
(0.0595095 -0.00213248 0.278495) 587
(0.0577213 -0.0132003 0.278049) 579
(-0.0506278 0.00647982 0.293949) 1442
(0.0516016 -0.0189255 0.278915) 571
(-0.0527815 0.0127397 0.291954) 1387
(-0.0149748 -0.0531361 0.290778) 2139
(-0.00363555 -0.0545017 0.291738) 2147
(-0.0204487 -0.0529083 0.289938) 2131
(-0.0551838 -0.000917875 0.294067) 1451
(0.0499014 -0.0138397 0.279397) 578
(-0.0188233 -0.0505468 0.292142) 2130
(-0.0591857 0.00539012 0.29277) 1395
(-0.0356469 -0.0310329 0.293779) 1473
(-0.0460442 -0.00917593 0.2954) 1457
(-0.0383398 0.0366869 0.292917) 1370
(-0.0386807 -0.0370122 0.292107) 1418
(-0.0527835 -0.0129638 0.290867) 1403
(0.0200153 -0.0547513 0.292344) 2163
(-0.0497431 -0.0103637 0.293423) 1402
(0.0503364 -0.0135008 0.279863) 578
(0.050575 -0.0130789 0.279573) 578
(-0.0157954 -0.0501897 0.291967) 2138
(-0.014631 -0.0546404 0.293896) 2195
(-0.0527854 -0.0146426 0.295008) 1459
(0.0464514 -0.00850216 0.281175) 577
(0.0503936 -0.0140675 0.279983) 578
(-0.0172963 -0.0495018 0.292681) 2138
(0.0534594 -0.00225345 0.277868) 586
(-0.0531613 0.0122899 0.291072) 1387
(-0.0578087 0.0105106 0.291731) 1387
(-0.0563325 0.00484725 0.291631) 1395
(-0.022397 -0.0528506 0.291037) 2131
(-0.0571716 -0.0169247 0.291863) 1403
(-0.0547291 -0.00907761 0.295612) 1459
(0.0571419 -0.00988739 0.281381) 579
(-0.0585784 -0.0104493 0.294072) 1459
(-0.0145064 -0.0528903 0.291462) 2139
(0.0203 -0.0516403 0.291976) 2163
(-0.0234318 -0.0551489 0.291555) 2132
(-0.0533841 -0.0129788 0.295511) 1459
(-0.00333162 -0.0517793 0.294796) 2202
(-0.0171602 -0.0500589 0.293703) 2194
(-0.0402753 0.0375632 0.294448) 1427
(-0.018832 -0.0501786 0.293247) 2130
(0.0545055 -0.00614371 0.279026) 579
(-0.0368225 -0.0368423 0.291354) 2122
(0.0137554 -0.0552208 0.292926) 2155
(-0.0248592 -0.0420453 0.294791) 2185
(0.0496315 -0.0151096 0.281092) 578
(-0.0532122 0.002447 0.291778) 1394
(-0.0209574 -0.0518562 0.293414) 2131
(-0.0506993 0.0229682 0.292864) 1379
(-0.0580205 0.0103474 0.292557) 1387
(-0.0416679 -0.0367676 0.290976) 1419
(-0.0437596 0.0397577 0.290907) 1371
(-0.0521498 -0.0149147 0.292778) 1403
(-0.048069 0.00411969 0.295046) 1449
(-0.0480043 -0.0131682 0.294727) 1458
(-0.0403499 0.0384662 0.295742) 1427
(-0.0251561 -0.0413178 0.295315) 2185
(-0.0550714 -0.01091 0.294286) 1459
(-0.0219136 -0.0520617 0.293683) 2131
(-0.0551814 -0.0156485 0.296416) 1459
(-0.0173088 -0.0506179 0.29479) 2194
(-0.0530632 0.0106274 0.293773) 1442
(0.0540317 0.00783032 0.280518) 595
(-0.0528305 -0.00195102 0.291852) 1394
(-0.0469172 -0.0138254 0.296238) 1458
(-0.0374385 -0.0317033 0.295215) 1474
(0.0493623 -0.0150038 0.280807) 578
(-0.0401871 0.0407918 0.295853) 3011
(0.02342 -0.0494281 0.293323) 2163
(-0.0566471 0.0102899 0.2924) 1387
(-0.0240731 -0.043241 0.297342) 2186
(0.0207546 -0.0472407 0.292022) 2162
(-0.0575526 0.0165295 0.290488) 1388
(-0.0549512 -0.00242054 0.295716) 1451
(-0.0194283 -0.0526739 0.29669) 2187
(-0.0581473 -0.00505669 0.296207) 1451
(-0.0168751 -0.0509228 0.295266) 2194
(-0.0424643 -0.0350891 0.294557) 1475
(-0.0210058 -0.0516113 0.295074) 2187
(-0.0544757 0.00432994 0.293428) 1395
(-0.0462707 -0.0150179 0.298397) 1457
(-0.0543068 0.00341905 0.294983) 1451
(0.0581624 -0.0061762 0.281982) 587
(0.0230214 -0.0497386 0.294494) 2219
(-0.0378725 -0.0423022 0.292674) 2123
(0.0493201 -0.0133242 0.282201) 578
(0.0501139 -0.0129358 0.281022) 578
(-0.0196495 -0.0498697 0.294885) 2186
(-0.0212901 -0.0511838 0.29457) 2187
(0.0552241 -0.0057925 0.280357) 587
(-0.0593385 0.00449365 0.293869) 1451
(-0.0577793 -0.00334041 0.29321) 1395
(0.00806462 -0.0582069 0.292298) 2155
(-0.0377258 -0.0334838 0.29646) 1474
(0.0500927 -0.0140562 0.282691) 578
(-0.0149747 -0.0485395 0.294359) 2194
(-0.0143024 -0.0526529 0.293599) 2139
(-0.0369016 -0.0382155 0.292981) 2122
(-0.0474017 0.0262805 0.295403) 1435
(-0.0516786 0.0121201 0.293597) 1386
(-0.0451332 -0.034186 0.293825) 1475
(-0.0582479 0.00987524 0.294468) 1443
(-0.0491585 0.00491434 0.297739) 1450
(-0.0468571 -0.0171692 0.297658) 1466
(-0.0469621 -0.0120944 0.296735) 1457
(-0.0521217 -0.0167741 0.297623) 1459
(0.049942 -0.0151183 0.282657) 578
(-0.0395719 0.0345344 0.297132) 1426
(-0.0151724 -0.0483428 0.295319) 2194
(-0.0521721 -0.0172939 0.294344) 1459
(-0.0579735 -0.00339142 0.294247) 1451
(-0.059538 -0.00476539 0.294601) 1452
(0.0546006 -0.0203123 0.281411) 571
(-0.0528504 -0.00811392 0.297188) 1458
(0.0564502 0.0100507 0.28455) 651
(-0.0304199 -0.0431864 0.295055) 2178
(-0.0396447 0.0366243 0.296063) 1426
(0.00731232 -0.0507473 0.293925) 2210
(0.0107562 -0.0504792 0.296354) 2210
(-0.04266 -0.0419796 0.295185) 1476
(-0.0392945 -0.0357907 0.296184) 1474
(-0.0523439 0.00295843 0.294381) 1450
(-0.0148721 -0.0482062 0.295374) 2194
(-0.0541641 0.0192773 0.295615) 1435
(0.0541548 -0.00213865 0.281852) 587
(-0.0107141 -0.0586133 0.295442) 2196
(-0.00691881 -0.0569206 0.293972) 2195
(-0.0315705 -0.0505146 0.29264) 2131
(-0.0509891 -0.01021 0.296876) 1458
(-0.0376302 0.0369247 0.297993) 1426
(-0.018431 -0.0517681 0.297973) 2187
(-0.00206274 -0.0519397 0.297144) 2202
(-0.0154739 -0.0470883 0.295821) 2194
(-0.0169223 -0.0476427 0.296346) 2186
(-0.0588103 0.00551354 0.295484) 1451
(-0.0464802 -0.0283373 0.295509) 1467
(-0.00287368 -0.0554945 0.295673) 2203
(-0.0599586 0.00980538 0.296193) 1444
(-0.0568689 0.0108813 0.294961) 1443
(-0.0613171 0.0102572 0.296031) 1444
(-0.0473057 -0.0117603 0.300115) 1457
(-0.0493565 0.00276613 0.298839) 1450
(-0.0489598 0.00634604 0.298404) 1442
(-0.0505671 -0.0116197 0.297225) 1458
(-0.0374882 0.0369729 0.298182) 1426
(0.0130637 -0.0503723 0.297345) 2210
(-0.0320582 -0.0455551 0.29737) 2179
(-0.0306051 0.0429614 0.296892) 3010
(-0.0541758 0.00314334 0.296174) 1451
(0.00880356 -0.049441 0.29503) 2210
(-0.0495165 0.00491849 0.299233) 1450
(-0.0493102 -0.00949538 0.296976) 1458
(0.0503192 -0.0131436 0.285774) 634
(-0.0557948 -0.00400292 0.296696) 1451
(-0.0153823 -0.0466019 0.296024) 2194
(0.0409308 -0.0350604 0.295669) 674
(-0.0501691 0.0120736 0.294802) 1442
(0.00930208 -0.0469432 0.29498) 2209
(-0.0429985 -0.036211 0.294292) 1475
(-0.051371 -0.0137812 0.298219) 1458
(-0.0471978 0.00188395 0.297955) 1449
(-0.0513094 -0.00223273 0.297871) 1450
(-0.0168315 -0.0473115 0.296933) 2186
(-0.0151798 -0.0465187 0.296614) 2193
(-0.015529 -0.0469026 0.296483) 2194
(0.0569363 -0.0145972 0.285018) 635
(-0.0594432 0.00561409 0.297267) 1451
(-0.0197778 -0.0490693 0.296542) 2186
(-0.0281265 -0.0467033 0.295917) 2187
(-0.0514962 0.00285347 0.294609) 1450
(-0.0399896 -0.0348625 0.294328) 1474
(-0.00224274 -0.0573373 0.294845) 2203
(-0.0486275 0.00174002 0.297733) 1449
(0.048174 -0.0168605 0.284353) 626
(0.0134417 -0.0496243 0.297959) 2210
(-0.0373882 -0.0383887 0.296782) 2178
(-0.0554041 -0.0103521 0.297311) 1459
(-0.017335 -0.0466193 0.296871) 2186
(-0.0385719 -0.0418651 0.296323) 2179
(-0.0500549 -0.0217879 0.296597) 1467
(-0.0555269 -0.010145 0.296462) 1459
(0.0564803 -0.00276922 0.283624) 587
(-0.0411416 -0.0393973 0.295012) 1475
(-0.0539923 -0.0156194 0.294079) 1459
(-0.0409967 -0.030075 0.30039) 1474
(0.0484723 -0.0124113 0.28496) 634
(-0.0536751 0.00340485 0.297278) 1450
(-0.00763881 -0.0527305 0.297854) 2194
(-0.013612 -0.0443693 0.296256) 2193
(0.0475114 -0.0303927 0.295316) 675
(-0.0382084 -0.0286516 0.29886) 1473
(-0.0469857 0.0153321 0.299258) 1442
(-0.0461138 -0.0135553 0.298602) 1457
(0.0488196 -0.0139647 0.285183) 634
(0.0149955 -0.0547357 0.299562) 2211
(0.0152831 -0.0531011 0.298576) 2211
(-0.0467056 0.0293071 0.297952) 1435
(-0.0140346 -0.0434611 0.297086) 2193
(-0.0194089 -0.0486251 0.296894) 2186
(-0.0201792 -0.049033 0.296912) 2186
(-0.0225468 -0.0510919 0.296243) 2187
(-0.0507763 0.0246 0.296224) 1435
(-0.0592541 -0.00548176 0.296176) 1451
(-0.0485947 0.00162173 0.299656) 1449
(-0.045792 -0.00968139 0.299846) 1457
(-0.028754 -0.0403029 0.299124) 2178
(0.0147943 -0.0545247 0.299664) 2211
(-0.0140828 -0.0459272 0.296767) 2193
(0.0591185 0.00165079 0.285238) 643
(0.0135254 -0.056865 0.296579) 2211
(-0.0444372 -0.0386803 0.295763) 1475
(-0.0472205 0.0113925 0.29954) 1441
(0.0471312 -0.0164915 0.285138) 634
(-0.0275474 -0.0479246 0.29798) 2187
(-0.053108 -0.00919374 0.296644) 1458
(-0.0416908 0.0371271 0.298033) 1427
(-0.0131012 -0.0530928 0.297167) 2195
(0.0112806 -0.0542036 0.295848) 2211
(-0.0289008 -0.0420994 0.301603) 2178
(-0.0477924 -0.0108056 0.298833) 1458
(-0.00103277 -0.0531567 0.299327) 2202
(-0.0186422 -0.0491692 0.297642) 2186
(-0.0133107 -0.052538 0.297378) 2195
(0.0110255 -0.0544458 0.296039) 2211
(0.0549632 -0.0200772 0.284493) 627
(-0.035882 -0.0337084 0.301134) 1474
(-0.0182077 -0.0536951 0.300772) 2195
(-0.0376038 0.035722 0.299851) 1426
(0.0143723 -0.0538194 0.299879) 2211
(-0.0276011 0.0429061 0.298537) 3010
(-0.0491372 -0.0222751 0.297508) 1466
(-0.0205982 -0.0489803 0.297336) 2186
(-0.00304078 -0.0566964 0.29812) 2203
(0.00470048 -0.0575866 0.295949) 2203
(-0.00906632 -0.0555353 0.295861) 2195
(-0.0463048 -0.0154761 0.299971) 1457
(-0.0500327 -0.01243 0.298946) 1458
(-0.0140501 -0.0428577 0.298116) 2193
(0.053468 0.00888331 0.28519) 651
(-0.0408944 -0.0333965 0.297135) 1474
(-0.0540429 -0.00370595 0.296933) 1450
(-0.055898 -0.00962607 0.297791) 1459
(-0.0498532 -0.0242007 0.298109) 1467
(-0.0401523 -0.0428405 0.296967) 2179
(-0.0542289 -0.0151342 0.295362) 1459
(-0.0476719 0.0158365 0.300979) 1442
(0.00958835 -0.0514997 0.299264) 2210
(-0.00184009 -0.0494156 0.299271) 2202
(-0.0549475 -0.0114759 0.299611) 1459
(-0.0392359 0.0327447 0.299544) 1426
(-0.0140305 -0.0423173 0.298429) 2193
(0.0418837 -0.0342596 0.297727) 675
(-0.0133441 -0.0538054 0.299079) 2195
(-0.0175342 -0.0472848 0.297131) 2186
(0.056237 -0.00990361 0.285454) 635
(0.0547606 0.00891412 0.28664) 651
(-0.0505226 -0.0146832 0.297835) 1458
(-0.0143688 -0.0469386 0.298026) 2194
(-0.0146327 -0.0431726 0.297946) 2193
(-0.0157846 -0.0451272 0.29806) 2193
(-0.0295079 -0.0423469 0.297542) 2178
(-0.0304044 -0.046182 0.297614) 2179
(-0.0130687 -0.0542436 0.298916) 2195
(-0.0150492 -0.0549968 0.297602) 2195
(-0.0308987 -0.04494 0.29803) 2179
(0.0036618 -0.058281 0.296619) 2203
(-0.0491191 -0.0131361 0.299403) 1458
(0.049541 -0.0107488 0.287159) 634
(-0.0551641 -0.0103216 0.301156) 1459
(-0.0530899 0.000203873 0.299398) 1450
(-0.052973 0.000567701 0.299102) 1450
(0.0570669 0.00911299 0.28842) 651
(-0.0382579 -0.0430377 0.298325) 2179
(-0.0516089 -0.0131488 0.297405) 1458
(-0.043307 -0.0201577 0.299939) 1465
(-0.0466546 -0.0143477 0.300441) 1457
(-0.046212 -0.0227188 0.297211) 1466
(-0.0131484 -0.0512988 0.297532) 2194
(-0.0581061 0.0117309 0.298532) 1443
(0.0500644 -0.0131402 0.288622) 634
(0.0022665 -0.056558 0.300649) 2203
(-0.018473 -0.0470517 0.298632) 2186
(-0.0549662 -0.016265 0.297133) 1459
(-0.0579396 -0.0136997 0.297632) 1460
(0.0463239 -0.0107661 0.290442) 633
(-0.0497056 0.0161703 0.302251) 1442
(-0.0516172 -0.0114023 0.300715) 1458
(0.0484403 -0.0116927 0.287644) 634
(-0.0286388 0.0444237 0.302094) 3010
(0.0116628 0.0536355 0.289402) 2923
(0.00840528 -0.0552794 0.301463) 2211
(-0.0439756 -0.0349411 0.298252) 1475
(-0.0560096 -0.0101772 0.299301) 1459
(-0.0504382 0.00486905 0.302883) 1450
(0.0528397 -0.00590974 0.2875) 642
(0.0115455 -0.0498994 0.300806) 2210
(-0.0336788 -0.045299 0.30113) 2179
(-0.0594452 -0.00638423 0.300828) 1451
(-0.0456282 -0.0243149 0.298836) 1466
(-0.013638 -0.0424819 0.299007) 2193
(-0.0523508 -0.00360334 0.297575) 1450
(-0.0129796 -0.0523851 0.298717) 2194
(-0.0547157 -0.00423459 0.297889) 1451
(-0.0566098 -0.00162735 0.298188) 1451
(-0.0245675 -0.0528105 0.298835) 2187
(-0.058333 -0.00538644 0.298437) 1451
(0.0411131 -0.0387811 0.298346) 675
(-0.0506876 0.0025416 0.300477) 1450
(0.0121021 -0.0518879 0.301223) 2210
(-0.0132815 -0.0432918 0.299354) 2193
(-0.0126592 -0.0539905 0.301163) 2195
(-0.0495218 -0.0220113 0.299335) 1467
(-0.00339523 -0.0498741 0.299349) 2202
(0.0118851 -0.0583478 0.297385) 2212
(0.0464496 -0.014249 0.287734) 633
(0.0148303 -0.0525817 0.301435) 2211
(-0.0429841 -0.0350192 0.29985) 1475
(0.0409342 -0.0335671 0.298916) 674
(0.0236577 -0.0483111 0.299187) 2218
(0.0550797 -0.0129031 0.287201) 635
(-0.0473077 0.010785 0.301653) 1441
(-0.00263015 0.0550373 0.289892) 2931
(-0.00185653 -0.0595272 0.298878) 2204
(-0.0424969 -0.0200711 0.301234) 1465
(-0.0372115 -0.0345442 0.301753) 1474
(-0.00280322 -0.0501124 0.301581) 2202
(0.0550128 0.00996309 0.288942) 651
(-0.0143869 -0.0428989 0.299985) 2193
(-0.0177378 -0.0458977 0.299887) 2186
(-0.05319 -0.022991 0.301956) 1467
(-0.0350941 -0.0466579 0.300132) 2179
(0.0120193 -0.0542631 0.29865) 2211
(0.000813171 0.0557294 0.290676) 2931
(-0.0504929 0.0124276 0.30026) 1442
(0.0565247 0.00807169 0.289743) 651
(0.00596829 -0.0594637 0.298125) 2203
(-0.0462673 0.0119756 0.302669) 1441
(0.046244 -0.0110363 0.288166) 633
(0.0123013 -0.0476597 0.301646) 2210
(0.00108594 0.0529413 0.289087) 2930
(-0.0511014 -0.00284807 0.298145) 1450
(-0.0396697 0.0393209 0.300411) 1427
(-0.0519947 -0.0179633 0.299507) 1459
(-0.0441713 -0.0382536 0.298475) 1475
(-0.0305856 0.0475023 0.299326) 3011
(-0.0529483 0.00119409 0.301135) 1450
(-0.0146744 -0.0429101 0.300534) 2193
(-0.0480794 -0.0228579 0.300596) 1466
(-0.0557639 0.00428556 0.300435) 1451
(-0.0575333 0.00802002 0.299942) 1443
(0.039942 -0.0391118 0.298855) 675
(-0.0455341 0.0129624 0.302807) 1441
(0.012093 0.0527818 0.291099) 2923
(-0.0478462 0.0243501 0.301446) 1434
(-0.00482168 -0.0497925 0.301671) 2202
(-0.026863 -0.0489114 0.301347) 2187
(-0.0204987 -0.0520288 0.301259) 2187
(-0.0493031 -0.0146532 0.29968) 1458
(-0.0289186 -0.0521441 0.302565) 2188
(-0.0467914 -0.03192 0.301061) 1475
(-0.0567868 0.00520168 0.300296) 1451
(-0.0507578 0.011847 0.299374) 1442
(-0.0420568 0.0381534 0.301134) 1427
(-0.0232142 -0.050732 0.299707) 2187
(-0.0579979 0.010595 0.299924) 1443
(-0.0421486 0.0409194 0.299616) 1427
(-0.0466198 0.0135251 0.303436) 1441
(-0.0251611 -0.0429735 0.302662) 2186
(-0.024469 -0.0428489 0.303562) 2186
(-0.0531243 0.00205484 0.302223) 1450
(-0.0511064 -0.00183977 0.299781) 1450
(-0.0179653 -0.0491266 0.301077) 2186
(-0.0147918 -0.051364 0.300869) 2194
(0.0490844 0.0204417 0.287812) 658
(-0.0418106 0.0367923 0.300665) 1427
(-0.00222777 -0.0545912 0.300417) 2203
(0.00884907 -0.0560924 0.298635) 2211
(-0.0400794 0.0336562 0.303071) 1426
(-0.0534905 -0.00920017 0.300346) 1459
(0.0551912 -0.013639 0.289163) 635
(-0.0506704 0.0216666 0.299814) 1435
(-0.0453805 -0.0354075 0.299804) 1475
(-0.0276849 0.0436286 0.303272) 3010
(0.0525013 0.00756681 0.288198) 650
(-0.0126878 -0.0550337 0.302498) 2195
(-0.0554022 -0.00136657 0.299886) 1451
(-0.0594949 -0.00333159 0.300587) 1451
(0.05326 -0.0239897 0.288582) 627
(0.00740748 -0.0566262 0.298513) 2211
(-0.0378848 0.0347913 0.303518) 1426
(-0.00603751 -0.0512131 0.300976) 2194
(-0.0441929 0.0349456 0.30119) 1427
(-0.00495819 -0.0554699 0.2991) 2203
(-0.0220029 -0.0551895 0.299886) 2187
(-0.0362771 -0.0320196 0.304365) 1529
(-0.0447205 -0.0092699 0.304058) 1513
(0.0125505 -0.0472318 0.302598) 2210
(-0.0498569 -0.0143068 0.300963) 1458
(0.0464115 -0.0148421 0.289216) 633
(-0.018286 -0.0495515 0.301995) 2186
(-0.0156791 -0.0536644 0.302315) 2195
(-0.0542728 0.0105641 0.300465) 1443
(-0.0322717 0.0431886 0.304367) 3066
(0.0142212 -0.0528744 0.303615) 2267
(-0.0471349 0.0309241 0.303228) 1427
(0.050645 -0.0091648 0.288302) 634
(-0.0360167 -0.0375671 0.301244) 2178
(0.045845 0.0262168 0.288842) 658
(-0.00178135 -0.0494904 0.301102) 2202
(-0.0499371 0.0145614 0.300408) 1442
(-0.0386748 -0.0336699 0.29953) 1474
(-0.0470496 0.014751 0.304854) 1498
(-0.0456183 0.0119681 0.303518) 1441
(-0.0291323 -0.0407123 0.303621) 2234
(0.0460666 -0.00862181 0.290187) 633
(0.0143361 -0.049888 0.302406) 2210
(0.051605 -0.00320008 0.288513) 642
(-0.0473547 -0.0226596 0.301641) 1466
(-0.0442002 0.0250138 0.300578) 1434
(-0.0593004 0.00507615 0.301651) 1451
(0.0535046 -0.0227079 0.289225) 627
(-0.0572152 0.0165867 0.299774) 1443
(-0.034969 -0.0303405 0.303102) 1473
(0.048286 -0.011118 0.290432) 634
(0.0113189 0.0501992 0.2905) 2922
(-0.0305864 0.0430252 0.3025) 3010
(-0.0357628 0.0340469 0.302947) 1426
(-0.0189976 -0.0522092 0.30322) 2187
(-0.0383352 -0.0403424 0.302171) 2179
(0.000159019 -0.0489168 0.302501) 2202
(-0.0286754 0.0432665 0.302491) 3010
(-0.0568888 0.0052001 0.301973) 1451
(-0.0352862 0.0460833 0.301249) 3011
(-0.0514086 -0.00926589 0.303605) 1514
(-0.0429611 -0.0356233 0.303353) 1475
(-0.0546711 0.0202283 0.302703) 1435
(0.0217954 -0.0497356 0.301752) 2219
(-0.0593072 -0.000524613 0.300552) 1451
(-0.0336377 -0.0335731 0.303707) 1529
(-0.0266489 -0.0412194 0.304203) 2234
(-0.0369104 -0.0326737 0.303813) 1530
(0.0131452 -0.0472542 0.304181) 2266
(0.00904577 0.0530043 0.292616) 2922
(-0.00370768 -0.04856 0.303532) 2201
(-0.0388601 -0.0353094 0.303148) 1474
(-0.0533674 0.00404087 0.302865) 1450
(0.000218846 0.0546519 0.291828) 2931
(0.000301887 -0.0501259 0.303238) 2202
(-0.0129651 -0.0438654 0.302479) 2193
(0.0486382 -0.00997892 0.287999) 634
(-0.0552149 0.0143781 0.300243) 1443
(-0.0453148 -0.0093645 0.305764) 1513
(-0.0269542 -0.0391515 0.305275) 2233