/*--------------------------------*- C++ -*----------------------------------*\
| =========                 |                                                 |
| \\      /  F ield         | OpenFOAM: The Open Source CFD Toolbox           |
|  \\    /   O peration     | Version:  plus.master.MPPICInterFoam            |
|   \\  /    A nd           | Web:      www.OpenFOAM.com                      |
|    \\/     M anipulation  |                                                 |
\*---------------------------------------------------------------------------*/
FoamFile
{
    version     2.0;
    format      ascii;
    class       vectorField;
    location    "7.4/lagrangian/kinematicCloud";
    object      U;
}
// * * * * * * * * * * * * * * * * * * * * * * * * * * * * * * * * * * * * * //


11
(
(-0.00385519 -0.00196864 0.355224)
(-0.00139471 -0.0121771 0.382518)
(-0.000437999 0.0207953 0.42059)
(0.0149837 -0.000533837 0.374052)
(0.00684815 -0.00173829 0.397635)
(-0.00659035 0.0015155 0.354863)
(-0.0119869 -0.00179668 0.344954)
(0.00113577 -0.00453273 0.378627)
(-0.0214864 -0.000303337 0.352332)
(0.0343791 -0.00260204 0.384993)
(0.0328015 -0.0019242 0.407453)
)


// ************************************************************************* //
