/*--------------------------------*- C++ -*----------------------------------*\
| =========                 |                                                 |
| \\      /  F ield         | OpenFOAM: The Open Source CFD Toolbox           |
|  \\    /   O peration     | Version:  plus.master.MPPICInterFoam            |
|   \\  /    A nd           | Web:      www.OpenFOAM.com                      |
|    \\/     M anipulation  |                                                 |
\*---------------------------------------------------------------------------*/
FoamFile
{
    version     2.0;
    format      ascii;
    class       vectorField;
    location    "7.4/lagrangian/kinematicCloud";
    object      UCorrect;
}
// * * * * * * * * * * * * * * * * * * * * * * * * * * * * * * * * * * * * * //


11
(
(-4.98311e-17 -4.7474e-21 -6.82951e-14)
(-4.41623e-19 9.15e-19 1.17957e-19)
(-2.41811e-19 -9.44551e-19 1.21947e-19)
(1.61691e-14 5.32161e-13 1.92338e-13)
(-2.91734e-09 7.1187e-14 2.28693e-07)
(2.98443e-05 0.000469357 -0.000125773)
(1.13072e-10 -7.25666e-15 -5.80091e-08)
(-4.2531e-19 4.07708e-20 -2.48383e-34)
(-6.52019e-19 -6.36585e-19 4.7183e-19)
(9.44296e-05 -0.00122192 2.69646e-13)
(-2.28773e-05 -2.26996e-12 -0.000389706)
)


// ************************************************************************* //
