/*--------------------------------*- C++ -*----------------------------------*\
| =========                 |                                                 |
| \\      /  F ield         | OpenFOAM: The Open Source CFD Toolbox           |
|  \\    /   O peration     | Version:  plus.master.MPPICInterFoam            |
|   \\  /    A nd           | Web:      www.OpenFOAM.com                      |
|    \\/     M anipulation  |                                                 |
\*---------------------------------------------------------------------------*/
FoamFile
{
    version     2.0;
    format      ascii;
    class       volScalarField;
    location    "2.4";
    object      k;
}
// * * * * * * * * * * * * * * * * * * * * * * * * * * * * * * * * * * * * * //

dimensions      [0 2 -2 0 0 0 0];

internalField   nonuniform List<scalar> 
11821
(
0.000112365
0.000230334
0.000290101
0.000328079
0.000351878
0.000364383
0.000366868
0.000359589
0.00011232
0.000230259
0.00029004
0.000328033
0.000351847
0.000364367
0.000366863
0.000359591
0.000112311
0.00023022
0.00029001
0.000328017
0.000351844
0.000364377
0.000366888
0.000359629
0.000112306
0.000230207
0.000289996
0.000328004
0.000351831
0.000364363
0.000366873
0.000359613
0.000112309
0.000230224
0.00029001
0.000328012
0.000351835
0.000364361
0.000366865
0.000359598
0.000112324
0.000230271
0.000290048
0.000328041
0.000351856
0.000364378
0.000366879
0.000359613
0.000112362
0.00023033
0.000290096
0.000328072
0.00035187
0.000364375
0.00036686
0.00035958
0.00011231
0.000230295
0.000290068
0.000328054
0.000351863
0.000364378
0.000366873
0.0003596
0.000112284
0.000230231
0.000290016
0.000328017
0.000351841
0.000364371
0.00036688
0.00035962
0.000112278
0.000230197
0.000289985
0.000327992
0.000351823
0.000364359
0.000366871
0.000359611
0.000112276
0.000230189
0.000289978
0.000327987
0.000351821
0.00036436
0.000366875
0.000359619
0.000112276
0.0002302
0.000289987
0.000327995
0.000351826
0.000364364
0.000366879
0.000359624
0.000112282
0.000230234
0.000290016
0.000328015
0.000351837
0.000364365
0.000366871
0.000359607
0.000112307
0.00023029
0.000290061
0.000328047
0.000351857
0.000364374
0.000366871
0.000359601
0.000112276
0.000230271
0.000290048
0.000328039
0.000351852
0.000364373
0.000366873
0.000359605
0.000112263
0.00023022
0.000290004
0.000328006
0.000351831
0.000364363
0.000366872
0.000359612
0.000112258
0.000230192
0.00028998
0.000327987
0.000351818
0.000364357
0.000366874
0.000359619
0.000112255
0.000230182
0.00028997
0.000327979
0.000351812
0.000364353
0.000366871
0.000359618
0.000112255
0.000230191
0.000289977
0.000327983
0.000351815
0.000364354
0.00036687
0.000359616
0.000112259
0.000230219
0.000290002
0.000328002
0.000351828
0.000364361
0.000366873
0.000359614
0.000112271
0.000230263
0.000290039
0.000328029
0.000351844
0.000364367
0.000366869
0.000359603
0.000112257
0.000230257
0.000290037
0.00032803
0.000351846
0.000364369
0.000366873
0.000359607
0.000112251
0.000230219
0.000290003
0.000328003
0.000351828
0.000364361
0.000366872
0.000359614
0.000112246
0.000230195
0.000289981
0.000327985
0.000351815
0.000364352
0.000366868
0.000359614
0.000112244
0.000230186
0.000289972
0.000327978
0.000351809
0.000364349
0.000366867
0.000359614
0.000112243
0.000230192
0.000289977
0.000327981
0.000351812
0.00036435
0.000366867
0.000359614
0.000112245
0.000230214
0.000289996
0.000327996
0.000351821
0.000364355
0.000366868
0.000359611
0.000112252
0.000230249
0.000290026
0.000328019
0.000351837
0.000364363
0.000366869
0.000359605
0.000112248
0.000230251
0.000290031
0.000328024
0.000351841
0.000364366
0.000366871
0.000359606
0.000112243
0.000230221
0.000290004
0.000328003
0.000351826
0.000364358
0.000366869
0.000359611
0.00011224
0.000230202
0.000289987
0.000327989
0.000351816
0.000364352
0.000366867
0.000359613
0.000112237
0.000230193
0.000289979
0.000327981
0.000351811
0.000364348
0.000366865
0.000359612
0.000112236
0.000230198
0.000289982
0.000327983
0.000351811
0.000364348
0.000366864
0.000359611
0.000112238
0.000230215
0.000289996
0.000327995
0.000351819
0.000364353
0.000366866
0.000359609
0.000112242
0.000230242
0.00029002
0.000328014
0.000351832
0.00036436
0.000366867
0.000359605
0.000112241
0.000230249
0.000290028
0.000328021
0.000351837
0.000364363
0.000366868
0.000359605
0.000112238
0.000230225
0.000290007
0.000328004
0.000351826
0.000364357
0.000366867
0.000359609
0.000112235
0.000230209
0.000289993
0.000327992
0.000351818
0.000364352
0.000366866
0.00035961
0.000112233
0.000230202
0.000289986
0.000327987
0.000351814
0.000364349
0.000366865
0.00035961
0.000112232
0.000230206
0.000289989
0.000327988
0.000351814
0.000364349
0.000366864
0.00035961
0.000112233
0.000230219
0.00029
0.000327997
0.00035182
0.000364352
0.000366865
0.000359608
0.000112236
0.00023024
0.000290019
0.000328012
0.00035183
0.000364358
0.000366866
0.000359605
0.000112237
0.00023025
0.000290029
0.00032802
0.000351837
0.000364362
0.000366868
0.000359605
0.000112233
0.00023023
0.000290011
0.000328006
0.000351827
0.000364356
0.000366866
0.000359607
0.000112232
0.000230218
0.00029
0.000327997
0.00035182
0.000364353
0.000366865
0.000359609
0.00011223
0.000230212
0.000289995
0.000327993
0.000351818
0.000364351
0.000366865
0.000359609
0.00011223
0.000230215
0.000289997
0.000327995
0.000351819
0.000364352
0.000366865
0.000359609
0.000112231
0.000230225
0.000290006
0.000328002
0.000351823
0.000364354
0.000366866
0.000359608
0.000112232
0.000230241
0.00029002
0.000328012
0.000351831
0.000364358
0.000366866
0.000359606
0.000112234
0.000230253
0.000290032
0.000328023
0.000351839
0.000364364
0.000366869
0.000359606
0.000112231
0.000230237
0.000290017
0.000328011
0.00035183
0.000364358
0.000366867
0.000359607
0.00011223
0.000230227
0.000290008
0.000328004
0.000351825
0.000364355
0.000366866
0.000359608
0.000112229
0.000230223
0.000290005
0.000328001
0.000351823
0.000364355
0.000366866
0.000359608
0.000112229
0.000230225
0.000290007
0.000328003
0.000351824
0.000364356
0.000366867
0.000359609
0.000112229
0.000230233
0.000290013
0.000328008
0.000351828
0.000364358
0.000366868
0.000359609
0.00011223
0.000230245
0.000290023
0.000328016
0.000351833
0.00036436
0.000366868
0.000359607
0.000112233
0.000230259
0.000290037
0.000328028
0.000351843
0.000364367
0.000366871
0.000359606
0.000112231
0.000230246
0.000290026
0.000328018
0.000351836
0.000364362
0.000366869
0.000359607
0.00011223
0.000230238
0.000290018
0.000328012
0.000351831
0.000364359
0.000366867
0.000359607
0.000112229
0.000230235
0.000290015
0.00032801
0.000351829
0.000364358
0.000366867
0.000359607
0.000112229
0.000230236
0.000290016
0.00032801
0.00035183
0.000364359
0.000366868
0.000359608
0.000112229
0.000230241
0.000290021
0.000328014
0.000351833
0.000364361
0.000366869
0.000359608
0.000112229
0.00023025
0.000290029
0.00032802
0.000351837
0.000364363
0.000366869
0.000359607
0.000112233
0.000230265
0.000290044
0.000328033
0.000351847
0.000364369
0.000366872
0.000359606
0.000112231
0.000230255
0.000290034
0.000328025
0.000351841
0.000364366
0.00036687
0.000359606
0.000112231
0.000230249
0.000290029
0.000328021
0.000351837
0.000364363
0.000366869
0.000359606
0.000112231
0.000230246
0.000290026
0.000328018
0.000351836
0.000364362
0.000366868
0.000359605
0.00011223
0.000230246
0.000290026
0.000328019
0.000351836
0.000364362
0.000366868
0.000359605
0.000112229
0.00023025
0.000290029
0.000328021
0.000351838
0.000364363
0.000366869
0.000359606
0.000112229
0.000230257
0.000290035
0.000328026
0.000351841
0.000364365
0.000366869
0.000359605
0.000112233
0.000230271
0.00029005
0.000328038
0.00035185
0.000364371
0.000366872
0.000359604
0.000112232
0.000230263
0.000290043
0.000328032
0.000351846
0.000364369
0.000366871
0.000359605
0.000112232
0.000230259
0.000290038
0.000328029
0.000351844
0.000364367
0.00036687
0.000359605
0.000112232
0.000230257
0.000290036
0.000328027
0.000351842
0.000364365
0.000366869
0.000359604
0.000112231
0.000230257
0.000290036
0.000328027
0.000351841
0.000364365
0.000366869
0.000359604
0.00011223
0.000230259
0.000290038
0.000328028
0.000351842
0.000364365
0.000366869
0.000359604
0.00011223
0.000230264
0.000290042
0.000328031
0.000351845
0.000364367
0.00036687
0.000359604
0.000112234
0.000230277
0.000290056
0.000328043
0.000351854
0.000364374
0.000366873
0.000359605
0.000112234
0.000230271
0.00029005
0.000328039
0.000351851
0.000364372
0.000366873
0.000359606
0.000112234
0.000230268
0.000290048
0.000328037
0.000351849
0.000364371
0.000366872
0.000359605
0.000112234
0.000230267
0.000290046
0.000328035
0.000351848
0.000364369
0.000366871
0.000359604
0.000112233
0.000230266
0.000290045
0.000328034
0.000351847
0.000364369
0.00036687
0.000359604
0.000112232
0.000230267
0.000290046
0.000328035
0.000351847
0.000364369
0.00036687
0.000359604
0.000112231
0.000230271
0.000290049
0.000328037
0.000351849
0.00036437
0.000366871
0.000359604
0.000112235
0.000230282
0.000290061
0.000328048
0.000351858
0.000364377
0.000366876
0.000359607
0.000112235
0.000230278
0.000290057
0.000328045
0.000351856
0.000364376
0.000366876
0.000359608
0.000112235
0.000230276
0.000290056
0.000328044
0.000351855
0.000364375
0.000366875
0.000359607
0.000112235
0.000230276
0.000290055
0.000328043
0.000351854
0.000364374
0.000366874
0.000359606
0.000112235
0.000230275
0.000290053
0.000328041
0.000351853
0.000364373
0.000366874
0.000359606
0.000112233
0.000230274
0.000290053
0.000328041
0.000351853
0.000364373
0.000366874
0.000359607
0.000112232
0.000230276
0.000290055
0.000328042
0.000351854
0.000364374
0.000366874
0.000359607
0.000112235
0.000230286
0.000290065
0.000328052
0.000351862
0.00036438
0.000366879
0.000359612
0.000112236
0.000230283
0.000290063
0.00032805
0.000351861
0.00036438
0.00036688
0.000359612
0.000112236
0.000230282
0.000290062
0.000328049
0.00035186
0.000364379
0.000366879
0.00035961
0.000112237
0.000230282
0.000290061
0.000328049
0.00035186
0.000364379
0.000366878
0.00035961
0.000112235
0.000230281
0.00029006
0.000328047
0.000351858
0.000364378
0.000366878
0.00035961
0.000112234
0.000230279
0.000290058
0.000328046
0.000351858
0.000364378
0.000366879
0.000359611
0.000112233
0.00023028
0.000290059
0.000328047
0.000351858
0.000364378
0.000366879
0.000359611
0.000112456
0.000230514
0.000290256
0.000328191
0.000351942
0.000364403
0.00036685
0.00035954
0.000112481
0.000230538
0.000290273
0.000328197
0.000351939
0.000364394
0.00036683
0.000359508
0.00011245
0.000230495
0.000290215
0.000328125
0.000351896
0.000112537
0.000230572
0.000112471
0.000112388
0.000230451
0.000290204
0.000328153
0.000351922
0.0003644
0.000366862
0.000359565
0.000112404
0.000230474
0.000290225
0.00032817
0.000351931
0.000364402
0.000366858
0.000359555
0.000112389
0.000230464
0.000290212
0.000328142
0.000351886
0.000364359
0.000366819
0.000359521
0.000112428
0.000230496
0.000290241
0.00032818
0.000351933
0.000364394
0.000366841
0.000359529
0.000112389
0.000230452
0.000290213
0.000328164
0.00035193
0.000364405
0.000366863
0.000359562
0.000112395
0.000230465
0.00029022
0.000328168
0.000351934
0.000364408
0.000366867
0.000359567
0.000112394
0.000230465
0.000290216
0.000328161
0.000351925
0.000364398
0.000366856
0.000359555
0.000112341
0.000230407
0.000290165
0.000328124
0.000351903
0.000364391
0.000366863
0.000359572
0.000112349
0.000230419
0.000290178
0.000328135
0.000351911
0.000364395
0.000366862
0.000359566
0.000112338
0.000230415
0.00029018
0.000328139
0.000351912
0.000364394
0.000366863
0.000359572
0.000112367
0.00023044
0.000290197
0.000328149
0.000351919
0.000364396
0.000366856
0.000359556
0.00011234
0.000230414
0.000290176
0.000328133
0.00035191
0.000364395
0.000366863
0.00035957
0.000112347
0.00023042
0.00029018
0.000328136
0.000351911
0.000364394
0.00036686
0.000359563
0.000112351
0.000230424
0.000290182
0.000328138
0.000351912
0.000364396
0.000366863
0.000359569
0.00011231
0.000230378
0.000290141
0.000328105
0.00035189
0.000364386
0.000366864
0.000359579
0.000112315
0.000230385
0.000290148
0.00032811
0.000351894
0.000364386
0.000366861
0.000359573
0.000112307
0.00023038
0.000290145
0.00032811
0.000351895
0.000364388
0.000366864
0.000359576
0.000112327
0.0002304
0.000290162
0.000328122
0.000351901
0.000364389
0.000366859
0.000359566
0.000112311
0.000230385
0.000290149
0.000328112
0.000351895
0.000364387
0.000366863
0.000359574
0.000112316
0.000230389
0.000290153
0.000328115
0.000351897
0.000364388
0.000366863
0.000359574
0.00011232
0.000230394
0.000290156
0.000328117
0.000351898
0.000364388
0.000366862
0.000359573
0.00011229
0.000230358
0.000290123
0.000328091
0.000351881
0.000364381
0.000366864
0.000359582
0.000112292
0.000230363
0.000290128
0.000328095
0.000351884
0.000364381
0.000366862
0.000359578
0.000112287
0.00023036
0.000290127
0.000328094
0.000351884
0.000364382
0.000366864
0.000359581
0.0001123
0.000230374
0.000290138
0.000328103
0.000351889
0.000364383
0.00036686
0.000359573
0.000112291
0.000230365
0.000290131
0.000328098
0.000351885
0.000364382
0.000366861
0.000359577
0.000112295
0.000230369
0.000290135
0.0003281
0.000351887
0.000364382
0.000366861
0.000359575
0.0001123
0.000230374
0.000290138
0.000328103
0.000351889
0.000364384
0.000366862
0.000359576
0.000112276
0.000230343
0.00029011
0.000328081
0.000351874
0.000364377
0.000366863
0.000359584
0.000112277
0.000230346
0.000290114
0.000328083
0.000351876
0.000364377
0.000366862
0.000359582
0.000112274
0.000230345
0.000290113
0.000328083
0.000351876
0.000364378
0.000366863
0.000359583
0.000112283
0.000230355
0.000290122
0.00032809
0.00035188
0.000364379
0.000366861
0.000359577
0.000112278
0.000230352
0.00029012
0.000328089
0.000351879
0.000364379
0.000366862
0.00035958
0.000112282
0.000230356
0.000290123
0.000328091
0.000351881
0.00036438
0.000366862
0.000359579
0.000112286
0.000230359
0.000290126
0.000328094
0.000351883
0.000364381
0.000366862
0.000359579
0.000112266
0.000230331
0.0002901
0.000328073
0.000351869
0.000364375
0.000366864
0.000359587
0.000112266
0.000230334
0.000290102
0.000328075
0.00035187
0.000364375
0.000366863
0.000359585
0.000112264
0.000230334
0.000290103
0.000328076
0.000351871
0.000364376
0.000366863
0.000359586
0.000112271
0.000230343
0.000290111
0.000328082
0.000351875
0.000364378
0.000366863
0.000359582
0.00011227
0.000230343
0.000290112
0.000328083
0.000351876
0.000364379
0.000366864
0.000359584
0.000112272
0.000230346
0.000290115
0.000328086
0.000351879
0.000364381
0.000366865
0.000359584
0.000112275
0.000230349
0.000290118
0.000328088
0.00035188
0.000364381
0.000366865
0.000359584
0.000112259
0.000230324
0.000290094
0.000328069
0.000351868
0.000364376
0.000366866
0.000359591
0.000112259
0.000230326
0.000290095
0.00032807
0.000351868
0.000364375
0.000366865
0.000359589
0.000112258
0.000230327
0.000290097
0.000328071
0.000351869
0.000364376
0.000366866
0.00035959
0.000112263
0.000230334
0.000290103
0.000328077
0.000351872
0.000364378
0.000366865
0.000359587
0.000112263
0.000230335
0.000290106
0.000328079
0.000351875
0.00036438
0.000366867
0.000359589
0.000112265
0.000230339
0.000290109
0.000328082
0.000351877
0.000364382
0.000366868
0.000359589
0.000112267
0.00023034
0.000290111
0.000328083
0.000351878
0.000364382
0.000366869
0.00035959
0.000112254
0.00023032
0.000290092
0.000328068
0.000351868
0.000364378
0.000366869
0.000359594
0.000112254
0.000230322
0.000290093
0.000328069
0.000351868
0.000364377
0.000366868
0.000359593
0.000112254
0.000230323
0.000290094
0.00032807
0.000351869
0.000364377
0.000366868
0.000359593
0.000112257
0.000230328
0.000290099
0.000328074
0.000351872
0.000364379
0.000366868
0.000359591
0.000112258
0.00023033
0.000290101
0.000328076
0.000351874
0.00036438
0.000366869
0.000359592
0.000112259
0.000230332
0.000290104
0.000328079
0.000351876
0.000364382
0.000366871
0.000359593
0.00011226
0.000230333
0.000290104
0.000328079
0.000351877
0.000364383
0.000366871
0.000359594
0.000112252
0.000230319
0.000290091
0.000328069
0.000351869
0.000364379
0.00036687
0.000359595
0.000112251
0.00023032
0.000290092
0.000328069
0.000351869
0.000364379
0.00036687
0.000359594
0.000112251
0.000230321
0.000290093
0.00032807
0.00035187
0.000364379
0.00036687
0.000359594
0.000112253
0.000230324
0.000290096
0.000328073
0.000351872
0.00036438
0.00036687
0.000359593
0.000112254
0.000230325
0.000290098
0.000328074
0.000351873
0.000364381
0.00036687
0.000359594
0.000112254
0.000230326
0.000290099
0.000328075
0.000351874
0.000364382
0.000366871
0.000359595
0.000112254
0.000230326
0.000290099
0.000328075
0.000351874
0.000364382
0.000366872
0.000359595
0.00011225
0.000230318
0.000290091
0.000328069
0.000351869
0.000364379
0.00036687
0.000359595
0.000112249
0.000230319
0.000290092
0.00032807
0.00035187
0.000364379
0.00036687
0.000359594
0.000112249
0.00023032
0.000290093
0.000328071
0.000351871
0.00036438
0.000366871
0.000359595
0.000112251
0.000230323
0.000290095
0.000328072
0.000351872
0.00036438
0.00036687
0.000359594
0.000112251
0.000230323
0.000290096
0.000328073
0.000351872
0.00036438
0.00036687
0.000359594
0.000112251
0.000230323
0.000290096
0.000328073
0.000351872
0.00036438
0.000366871
0.000359594
0.000112251
0.000230322
0.000290095
0.000328072
0.000351872
0.000364381
0.000366871
0.000359594
0.000112248
0.000230317
0.000290091
0.000328069
0.00035187
0.000364379
0.000366871
0.000359595
0.000112248
0.000230319
0.000290093
0.00032807
0.000351871
0.00036438
0.000366871
0.000359595
0.000112248
0.00023032
0.000290094
0.000328071
0.000351871
0.00036438
0.000366871
0.000359595
0.00011225
0.000230322
0.000290095
0.000328072
0.000351872
0.00036438
0.000366871
0.000359594
0.00011225
0.000230322
0.000290095
0.000328072
0.000351872
0.00036438
0.00036687
0.000359594
0.000112249
0.000230321
0.000290094
0.000328071
0.000351871
0.00036438
0.00036687
0.000359594
0.000112248
0.000230319
0.000290093
0.00032807
0.000351871
0.00036438
0.00036687
0.000359595
0.000112246
0.000230317
0.000290091
0.000328069
0.000351871
0.000364381
0.000366873
0.000359599
0.000112247
0.000230319
0.000290093
0.000328071
0.000351872
0.000364382
0.000366873
0.000359598
0.000112247
0.00023032
0.000290094
0.000328072
0.000351872
0.000364382
0.000366873
0.000359598
0.000112249
0.000230321
0.000290095
0.000328073
0.000351873
0.000364382
0.000366873
0.000359597
0.000112249
0.000230321
0.000290095
0.000328072
0.000351872
0.000364381
0.000366872
0.000359596
0.000112247
0.000230319
0.000290093
0.000328071
0.000351872
0.000364381
0.000366872
0.000359596
0.000112246
0.000230318
0.000290092
0.00032807
0.000351871
0.000364381
0.000366872
0.000359597
0.000112244
0.000230315
0.00029009
0.00032807
0.000351873
0.000364385
0.000366878
0.000359605
0.000112246
0.000230318
0.000290092
0.000328072
0.000351874
0.000364385
0.000366877
0.000359603
0.000112246
0.000230319
0.000290093
0.000328072
0.000351874
0.000364384
0.000366876
0.000359602
0.000112247
0.000230321
0.000290095
0.000328073
0.000351874
0.000364384
0.000366876
0.000359601
0.000112247
0.00023032
0.000290094
0.000328073
0.000351874
0.000364384
0.000366875
0.0003596
0.000112245
0.000230318
0.000290093
0.000328071
0.000351873
0.000364383
0.000366875
0.000359601
0.000112244
0.000230316
0.000290091
0.00032807
0.000351872
0.000364383
0.000366875
0.000359601
0.000112555
0.000112657
0.000230599
0.000112526
0.000230561
0.00029029
0.000328211
0.00035194
0.000112524
0.000230551
0.000290286
0.000328218
0.00035196
0.000364411
0.000366848
0.000359531
0.0001124
0.000230404
0.000290162
0.000328124
0.000351907
0.000364398
0.000366873
0.000359587
0.000112392
0.000230465
0.000290217
0.000328161
0.000351924
0.000364396
0.000366855
0.000359554
0.000112445
0.000230518
0.000290269
0.000328205
0.000351953
0.000364408
0.000366848
0.000359531
0.000112412
0.000230417
0.00029019
0.000328154
0.000351926
0.000364399
0.000366857
0.000359556
0.000112546
0.000230562
0.000290278
0.000328208
0.000351953
0.0003644
0.000366828
0.000359498
0.000112426
0.000230486
0.000290238
0.000328187
0.00035194
0.000364407
0.000366861
0.000359562
0.000112425
0.000230457
0.000290206
0.000328158
0.000351928
0.000364403
0.000366861
0.00035956
0.000112341
0.000230354
0.000290118
0.00032809
0.000351884
0.000364386
0.00036687
0.00035959
0.000112349
0.000230421
0.000290179
0.000328135
0.00035191
0.000364396
0.000366866
0.000359575
0.000112399
0.000230472
0.00029022
0.000328164
0.000351926
0.000364397
0.000366852
0.000359548
0.000112378
0.00023044
0.000290192
0.000328142
0.000351912
0.000364391
0.000366856
0.00035956
0.000112433
0.000230502
0.000290242
0.00032818
0.000351936
0.000364398
0.000366843
0.000359528
0.000112365
0.00023042
0.000290175
0.000328134
0.000351911
0.000364397
0.000366866
0.000359575
0.000112361
0.000230399
0.000290155
0.000328116
0.000351898
0.000364388
0.000366861
0.00035957
0.000112301
0.000230321
0.000290091
0.00032807
0.000351871
0.000364382
0.000366874
0.0003596
0.000112319
0.000230392
0.000290154
0.000328115
0.000351897
0.000364388
0.000366863
0.000359575
0.000112354
0.000230428
0.000290183
0.000328136
0.000351909
0.00036439
0.000366855
0.000359558
0.000112336
0.000230406
0.000290164
0.000328121
0.0003519
0.000364388
0.000366861
0.000359572
0.000112373
0.000230438
0.00029019
0.00032814
0.000351911
0.000364389
0.000366849
0.000359549
0.000112325
0.00023038
0.00029014
0.000328102
0.000351888
0.000364383
0.000366861
0.000359577
0.000112317
0.000230358
0.000290121
0.00032809
0.000351881
0.000364381
0.000366862
0.000359579
0.000112274
0.000230299
0.000290072
0.000328055
0.000351861
0.000364375
0.000366871
0.0003596
0.000112299
0.000230372
0.000290137
0.000328102
0.000351888
0.000364384
0.000366863
0.000359579
0.000112323
0.000230396
0.000290156
0.000328115
0.000351896
0.000364385
0.000366858
0.000359568
0.000112309
0.000230379
0.000290141
0.000328104
0.000351889
0.000364384
0.000366862
0.000359577
0.000112332
0.000230395
0.000290154
0.000328113
0.000351894
0.000364383
0.000366855
0.000359563
0.000112298
0.000230353
0.000290117
0.000328086
0.000351877
0.000364379
0.000366863
0.000359583
0.000112288
0.00023033
0.000290097
0.000328072
0.00035187
0.000364376
0.000366864
0.000359586
0.000112257
0.000230286
0.00029006
0.000328045
0.000351854
0.000364371
0.00036687
0.000359601
0.000112285
0.000230358
0.000290125
0.000328093
0.000351882
0.000364381
0.000366863
0.000359581
0.000112301
0.000230372
0.000290136
0.000328101
0.000351887
0.000364382
0.00036686
0.000359574
0.000112291
0.00023036
0.000290125
0.000328092
0.000351882
0.000364381
0.000366864
0.000359583
0.000112303
0.000230365
0.000290129
0.000328095
0.000351884
0.000364381
0.00036686
0.000359576
0.000112279
0.000230333
0.000290101
0.000328075
0.000351871
0.000364377
0.000366866
0.00035959
0.000112268
0.000230312
0.000290082
0.000328061
0.000351863
0.000364374
0.000366866
0.000359592
0.000112246
0.000230277
0.000290053
0.000328039
0.000351849
0.000364369
0.000366869
0.000359602
0.000112275
0.000230348
0.000290116
0.000328086
0.000351879
0.000364381
0.000366865
0.000359585
0.000112284
0.000230354
0.000290121
0.00032809
0.000351881
0.000364381
0.000366863
0.00035958
0.000112278
0.000230344
0.000290112
0.000328083
0.000351876
0.00036438
0.000366866
0.000359587
0.000112283
0.000230344
0.000290111
0.000328083
0.000351877
0.00036438
0.000366865
0.000359584
0.000112265
0.00023032
0.000290091
0.000328068
0.000351868
0.000364377
0.000366869
0.000359595
0.000112255
0.000230301
0.000290074
0.000328055
0.00035186
0.000364374
0.000366869
0.000359598
0.00011224
0.000230273
0.000290049
0.000328036
0.000351848
0.000364369
0.00036687
0.000359604
0.000112267
0.000230339
0.000290109
0.000328082
0.000351877
0.000364382
0.000366869
0.00035959
0.000112272
0.000230341
0.00029011
0.000328082
0.000351877
0.00036438
0.000366866
0.000359587
0.000112267
0.000230333
0.000290102
0.000328076
0.000351873
0.000364379
0.000366868
0.000359591
0.000112269
0.000230329
0.000290099
0.000328075
0.000351872
0.000364379
0.000366868
0.000359591
0.000112256
0.000230311
0.000290084
0.000328063
0.000351866
0.000364378
0.000366872
0.000359599
0.000112247
0.000230294
0.000290069
0.000328052
0.000351859
0.000364375
0.000366872
0.000359602
0.000112236
0.000230272
0.000290049
0.000328037
0.000351849
0.00036437
0.000366872
0.000359606
0.00011226
0.000230331
0.000290103
0.000328078
0.000351875
0.000364382
0.000366871
0.000359594
0.000112263
0.000230331
0.000290102
0.000328077
0.000351875
0.000364381
0.000366869
0.000359591
0.000112259
0.000230325
0.000290096
0.000328072
0.000351871
0.00036438
0.00036687
0.000359594
0.000112259
0.00023032
0.000290092
0.000328069
0.00035187
0.000364379
0.00036687
0.000359594
0.000112249
0.000230306
0.000290079
0.00032806
0.000351865
0.000364378
0.000366873
0.0003596
0.000112242
0.000230291
0.000290067
0.000328051
0.000351859
0.000364376
0.000366873
0.000359603
0.000112234
0.000230274
0.000290052
0.00032804
0.000351852
0.000364372
0.000366873
0.000359606
0.000112254
0.000230325
0.000290098
0.000328074
0.000351874
0.000364382
0.000366872
0.000359595
0.000112256
0.000230325
0.000290097
0.000328074
0.000351873
0.000364381
0.000366871
0.000359594
0.000112254
0.00023032
0.000290093
0.00032807
0.000351871
0.00036438
0.000366871
0.000359595
0.000112252
0.000230315
0.000290088
0.000328067
0.000351869
0.000364379
0.000366871
0.000359595
0.000112245
0.000230303
0.000290078
0.000328059
0.000351864
0.000364378
0.000366872
0.0003596
0.000112239
0.000230291
0.000290067
0.000328052
0.000351859
0.000364376
0.000366873
0.000359602
0.000112234
0.000230277
0.000290055
0.000328042
0.000351853
0.000364373
0.000366873
0.000359605
0.000112251
0.000230321
0.000290094
0.000328072
0.000351872
0.000364381
0.000366871
0.000359595
0.000112252
0.000230321
0.000290094
0.000328072
0.000351872
0.000364381
0.000366871
0.000359595
0.000112251
0.000230317
0.000290091
0.000328069
0.00035187
0.00036438
0.000366871
0.000359595
0.000112249
0.000230312
0.000290086
0.000328066
0.000351868
0.000364379
0.000366871
0.000359596
0.000112243
0.000230302
0.000290078
0.000328059
0.000351864
0.000364378
0.000366872
0.000359599
0.000112238
0.000230292
0.000290068
0.000328053
0.00035186
0.000364376
0.000366872
0.000359601
0.000112234
0.000230281
0.000290059
0.000328045
0.000351855
0.000364374
0.000366872
0.000359603
0.000112248
0.000230319
0.000290092
0.00032807
0.000351871
0.00036438
0.000366871
0.000359595
0.000112249
0.000230318
0.000290092
0.00032807
0.000351871
0.00036438
0.000366871
0.000359596
0.000112249
0.000230316
0.00029009
0.000328069
0.00035187
0.00036438
0.000366872
0.000359596
0.000112247
0.000230311
0.000290086
0.000328066
0.000351869
0.00036438
0.000366872
0.000359597
0.000112242
0.000230303
0.000290078
0.00032806
0.000351865
0.000364378
0.000366873
0.0003596
0.000112238
0.000230294
0.000290071
0.000328054
0.000351861
0.000364377
0.000366873
0.000359601
0.000112235
0.000230285
0.000290063
0.000328049
0.000351858
0.000364375
0.000366873
0.000359603
0.000112246
0.000230317
0.000290091
0.00032807
0.000351871
0.000364381
0.000366873
0.000359598
0.000112247
0.000230317
0.000290091
0.00032807
0.000351871
0.000364382
0.000366873
0.000359598
0.000112247
0.000230315
0.00029009
0.000328069
0.000351871
0.000364382
0.000366874
0.000359599
0.000112245
0.000230311
0.000290086
0.000328067
0.00035187
0.000364381
0.000366874
0.0003596
0.000112241
0.000230304
0.00029008
0.000328062
0.000351867
0.000364381
0.000366875
0.000359603
0.000112237
0.000230296
0.000290073
0.000328057
0.000351864
0.000364379
0.000366876
0.000359605
0.000112236
0.000230289
0.000290067
0.000328052
0.000351861
0.000364378
0.000366876
0.000359606
0.000112244
0.000230315
0.00029009
0.00032807
0.000351872
0.000364383
0.000366876
0.000359602
0.000112245
0.000230315
0.00029009
0.00032807
0.000351872
0.000364384
0.000366876
0.000359603
0.000112245
0.000230314
0.000290089
0.00032807
0.000351872
0.000364384
0.000366877
0.000359603
0.000112244
0.000230311
0.000290086
0.000328067
0.000351871
0.000364384
0.000366878
0.000359605
0.00011224
0.000230304
0.000290081
0.000328063
0.000351869
0.000364383
0.000366879
0.000359607
0.000112237
0.000230298
0.000290075
0.000328059
0.000351867
0.000364383
0.00036688
0.000359609
0.000112237
0.000230291
0.00029007
0.000328055
0.000351864
0.000364381
0.000366879
0.00035961
0.000112404
0.000230398
0.000290152
0.000328113
0.000351895
0.000364386
0.000366861
0.000359575
0.000112482
0.0002305
0.000290237
0.000328175
0.00035193
0.000364393
0.000366838
0.000359525
0.000112488
0.000230533
0.000290268
0.000328199
0.00035195
0.000364413
0.000366864
0.000359561
0.000112584
0.000230638
0.000290354
0.000328261
0.000351981
0.000364407
0.000366819
0.000359479
0.000112489
0.000230551
0.000290284
0.000328209
0.000351951
0.000364403
0.000366842
0.000359526
0.00011252
0.000230581
0.00029031
0.000328232
0.00035197
0.000364417
0.000366851
0.000359531
0.000112452
0.000230513
0.000290256
0.000328191
0.000351945
0.00036441
0.000366862
0.000359559
0.00011234
0.000230344
0.000290107
0.00032808
0.000351875
0.000364379
0.000366865
0.000359586
0.000112398
0.000230421
0.000290172
0.000328128
0.000351904
0.000364389
0.000366857
0.000359565
0.000112407
0.000230452
0.000290198
0.000328145
0.000351913
0.00036439
0.000366852
0.000359554
0.000112472
0.000230528
0.000290264
0.000328196
0.000351946
0.000364404
0.000366846
0.00035953
0.00011241
0.000230473
0.000290219
0.000328163
0.000351927
0.000364403
0.000366864
0.000359568
0.000112431
0.000230493
0.000290236
0.000328175
0.000351933
0.0003644
0.000366852
0.000359545
0.000112386
0.00023045
0.000290202
0.00032815
0.000351919
0.000364397
0.00036686
0.000359562
0.000112298
0.00023031
0.000290078
0.000328058
0.000351861
0.000364374
0.000366868
0.000359595
0.00011234
0.000230368
0.000290128
0.000328094
0.000351883
0.00036438
0.000366859
0.000359574
0.000112351
0.000230397
0.000290153
0.000328112
0.000351895
0.000364387
0.000366863
0.000359578
0.000112394
0.000230449
0.000290197
0.000328146
0.000351915
0.000364392
0.000366852
0.000359551
0.000112356
0.000230418
0.000290173
0.000328128
0.000351904
0.000364391
0.000366862
0.000359572
0.00011237
0.000230434
0.000290187
0.000328139
0.000351912
0.000364394
0.00036686
0.000359565
0.00011234
0.000230407
0.000290165
0.000328123
0.000351903
0.000364393