/*--------------------------------*- C++ -*----------------------------------*\
| =========                 |                                                 |
| \\      /  F ield         | OpenFOAM: The Open Source CFD Toolbox           |
|  \\    /   O peration     | Version:  plus.master.MPPICInterFoam            |
|   \\  /    A nd           | Web:      www.OpenFOAM.com                      |
|    \\/     M anipulation  |                                                 |
\*---------------------------------------------------------------------------*/
FoamFile
{
    version     2.0;
    format      ascii;
    class       Cloud<basicKinematicMPPICParcel>;
    location    "2.8/lagrangian/kinematicCloud";
    object      positions;
}
// * * * * * * * * * * * * * * * * * * * * * * * * * * * * * * * * * * * * * //

94788
(
(-0.00230592 -0.015701 0.000267863) 821
(0.0220375 -0.0278698 0.000253742) 860
(0.00202755 0.0751521 0.00821313) 2375
(0.00501727 -0.0496177 0.000304044) 2091
(0.0270473 -0.0612096 0.000278054) 2110
(-0.0233509 -0.0460753 0.000290748) 2075
(0.0207302 -0.0452572 0.000278632) 2107
(-0.00228492 0.018859 0.000260001) 1110
(0.0229711 0.0407458 0.000262041) 2354
(-0.0153325 0.00259718 0.0169334) 597
(-0.0015921 0.0679791 0.00527654) 2374
(0.0307983 0.0524609 0.000280922) 2357
(0.0414914 0.0139423 0.000279052) 1538
(-0.01544 -0.00722928 0.000268608) 565
(0.0316864 0.0160588 0.000277964) 292
(0.0584188 -0.0029239 0.00126454) 1532
(-0.01184 0.0396162 0.000269242) 2377
(0.00366864 -0.0156503 0.00026961) 837
(-0.0454312 0.0229593 0.000292926) 1795
(0.0360754 0.0153707 0.000272446) 1545
(0.0208789 0.0645448 0.000290468) 2366
(-0.0228986 0.022984 0.000324947) 1139
(-0.00471511 -0.100617 0.0057351) 3214
(-0.0447641 -0.0229981 0.000227066) 1827
(-0.0404456 -0.022558 0.000292541) 1826
(0.0239688 -0.0242223 0.000283782) 859
(-0.0151774 -0.00483649 0.165737) 8020
(0.0156657 0.00393613 0.147209) 7292
(-0.0113753 -0.0588629 0.000250189) 2085
(-0.0228802 0.0228759 0.000322693) 531
(-0.00255882 0.0987653 0.00945935) 3493
(-0.0425153 -0.0223138 0.000272623) 1826
(0.0362775 -0.0211717 0.000296707) 1513
(-0.0213217 0.0258707 0.00024512) 1139
(0.0382165 -0.0130603 0.000293472) 1521
(-0.0364348 0.0174057 0.000278625) 1793
(-0.0227411 0.0196621 0.000296806) 530
(0.0118767 0.0361799 0.000275833) 1472
(0.0426986 0.0143449 0.000265211) 1538
(-0.000752792 0.0608554 0.00202651) 2373
(-0.000110733 0.0684488 0.00728675) 2374
(-0.0380865 0.0256989 0.000291173) 1786
(-0.075662 -0.000738257 0.00820568) 1815
(0.0183642 -0.0504445 0.000264535) 2107
(-0.0224316 -0.0407383 0.00028275) 2074
(0.0136305 0.0257905 0.000285173) 1098
(-0.0438987 0.0207747 0.000269226) 1794
(-0.0210969 0.0396277 0.000299024) 2386
(0.0343952 -0.0178862 0.000277675) 1513
(-0.00643202 -0.109012 0.0327822) 3328
(-0.00828905 0.0162316 0.000302427) 1126
(-0.0195077 -0.0422793 0.000244017) 2074
(-0.0165822 0.0341147 0.000274104) 1475
(0.0424638 -0.0120699 0.000279626) 1522
(-0.0179393 0.03507 0.000272347) 2385
(0.0215898 -0.0221059 0.000246199) 858
(-0.00291608 -0.0594312 0.00483403) 2092
(0.0352432 -0.0109816 0.000265102) 1367
(0.00383541 -0.012834 0.116278) 8356
(0.0216204 0.041678 0.000242708) 2354
(0.0246458 0.0231178 0.000284673) 299
(0.0016493 0.0157665 0.000249802) 1109
(-0.020138 0.0440613 0.000273646) 2386
(0.0142186 0.0600675 0.000276481) 2365
(0.0465492 -0.0123221 0.000309672) 1522
(0.0394021 -0.0145804 0.000281229) 1513
(0.0409404 0.0109976 0.00026882) 1537
(-0.0228992 0.0403445 0.000275224) 2386
(0.0180272 -0.00210136 0.00028738) 270
(-0.0433952 -0.024762 0.000293244) 1827
(0.00600273 0.097582 0.0189533) 3549
(0.0206759 0.0113832 0.000289079) 288
(-0.0991019 -0.00122255 0.00795037) 2933
(0.0452936 -0.0135521 0.000266683) 1522
(0.0226686 -0.0218195 0.000265145) 250
(0.0228782 0.023847 0.000299774) 1091
(0.0203625 0.0441593 0.000300315) 2354
(0.0208746 0.0389597 0.000240368) 2354
(0.0139146 0.0248383 0.000272548) 1097
(0.024883 -0.0248403 0.000294225) 252
(0.0616542 -0.000996242 0.00028636) 1533
(-0.0153969 -0.00759508 0.000294982) 565
(-0.0131067 -0.00789977 0.139228) 7860
(0.0183283 0.0324828 0.000287499) 1471
(0.00515289 0.0214969 0.000259449) 1103
(0.0105205 0.0353733 0.000243019) 1472
(-0.0165816 -0.0505609 0.000266278) 2083
(-0.0395305 0.0201855 0.000279793) 1794
(0.0271011 0.0188477 0.000270759) 299
(-0.0290277 0.0218867 0.000271302) 1400
(0.016373 0.0304787 0.000284223) 1100
(0.0272258 -0.0147581 0.000272063) 258
(0.00603938 0.0732671 0.00521423) 2375
(-0.017369 0.00995933 0.000253357) 534
(-0.0328617 0.0153608 0.00027116) 1401
(-0.0065929 0.0192258 0.000275497) 1119
(0.0185026 0.0196775 0.00027223) 1088
(0.0202785 -0.0500243 0.00026137) 2107
(-0.042656 -0.0185569 0.000258169) 1826
(-0.00959344 0.0143204 0.163372) 9204
(0.0293492 -0.0142892 0.000279344) 259
(-0.0244739 -0.0279447 0.000306499) 1435
(0.0356442 0.0136656 0.000281132) 1370
(-0.0764357 0.00511011 0.00749909) 1816
(0.015712 0.00279589 0.157466) 7348
(-0.0137292 0.0521958 0.000261951) 2379
(0.0157141 -0.00315369 0.00026653) 261
(6.28572e-05 -0.0125436 0.0749804) 6276
(-0.0951551 0.00269305 0.000279548) 2932
(0.0140212 0.0322803 0.000266931) 1100
(0.0548123 0.00252857 0.000265922) 1532
(-0.0273314 0.0111628 0.000271937) 538
(0.0257993 -0.00760365 0.000279474) 265
(-0.0380285 0.0202472 0.000299842) 1793
(-0.00116371 0.070809 0.00645678) 2375
(-0.0210979 0.0396214 0.000281942) 2386
(0.0371011 -0.0220263 0.000319626) 1513
(-0.0543389 0.0286914 0.000281432) 1797
(-0.0152706 0.000200844 0.027608) 661
(-0.0269074 0.0484552 0.000292666) 2388
(0.0361432 -0.0171492 0.000292505) 1513
(2.74619e-05 0.108199 0.0557166) 3720
(-0.00173323 -0.055027 0.00493534) 2092
(0.0374964 0.0127099 0.000283632) 1537
(0.013806 0.0327593 0.000276995) 1100
(0.0215171 -0.04043 0.000266079) 2106
(0.0183123 0.021182 0.000274315) 1089
(-0.0490002 -0.0242551 0.00027545) 1828
(0.028577 -0.007138 0.000266282) 266
(-0.00525003 -0.0125101 0.146869) 6667
(0.0214766 -0.0398973 0.000260165) 2106
(0.0526176 0.00337484 0.000287153) 1531
(0.00490614 -0.0503624 0.000300615) 2091
(0.0225833 -0.0226544 0.000323692) 859
(-0.0228406 -0.0459076 0.000295822) 2075
(0.0296645 0.00895632 0.000290261) 283
(-0.0310364 0.0147616 0.000278257) 540
(0.0273837 0.021334 0.000261878) 300
(0.00556148 -0.0976236 0.00282505) 3213
(0.0181167 0.0260941 0.000277924) 1091
(0.0520555 0.00156015 0.00318514) 1531
(0.0248426 -0.0249171 0.000303361) 860
(0.0132721 0.0329266 0.000284529) 1100
(0.0234821 0.0433571 0.000258048) 2355
(0.0207041 0.0484649 0.000255997) 2355
(0.0288346 0.0140448 0.000273723) 291
(-0.00434126 0.0973773 0.0251957) 3549
(0.0186671 0.0378931 0.000269428) 2353
(0.0106795 -0.0206908 0.000279498) 848
(-0.00548987 -0.0142448 0.15939) 8564
(-0.000560336 0.0706162 0.00583469) 2375
(-0.0213863 0.0439912 0.000262099) 2387
(-0.02526 0.0251984 0.000313312) 532
(0.0155745 0.000300336 0.0128414) 269
(0.00780797 -0.013871 0.165036) 8644
(-0.0149183 -0.00864074 0.135146) 7804
(0.0298505 0.00836232 0.000268181) 283
(-0.0411068 -0.0217023 0.000283929) 1826
(0.00191428 0.0189025 0.000287902) 1110
(0.0220551 -0.0219496 0.000275302) 250
(-0.0245287 -0.0252871 0.000271878) 812
(-0.0545334 0.0182688 0.000264916) 1804
(0.00683655 0.0263414 0.000275326) 1105
(-0.0434733 -0.0232041 0.000267688) 1827
(0.0241992 -0.0343443 0.000288001) 2113
(0.0151772 -0.0203386 0.000278513) 856
(0.0214382 0.0224389 0.000238109) 1090
(0.024165 -0.00310076 0.000307271) 264
(0.0239557 0.0417735 0.000260167) 2354
(0.0223287 -0.027231 0.000289316) 860
(-0.0272734 -0.01362 0.00026578) 570
(0.0166943 -0.0486827 0.000258495) 2099
(-0.0429547 -0.0216431 0.000247773) 1826
(0.0420218 -0.000535822 0.000265131) 1529
(-0.0100497 0.0151106 0.000271999) 1125
(-0.00105098 -0.0567932 0.00965949) 2092
(0.0177594 -0.0449356 0.000263729) 2106
(-0.0185775 0.0391232 0.000265362) 2385
(0.0172902 -0.0179305 0.000237664) 855
(0.0159048 0.0174479 0.000250851) 1087
(-0.0962786 -0.00367035 0.000291499) 2933
(0.00284062 0.0157382 0.000272269) 1101
(0.00941271 -0.0588141 0.000261328) 2100
(0.0166234 0.00969223 0.000745572) 286
(0.024683 -0.0246119 0.000320181) 252
(0.00111091 0.0157754 0.000269394) 1109
(-0.0500358 0.0202486 0.000258788) 1795
(0.0428109 -0.0141241 0.000292847) 1522
(-0.0154296 0.00686777 0.000256866) 533
(-0.0150523 0.0364144 0.000251103) 2385
(-0.0200261 -0.0343729 0.000293582) 2073
(0.0157742 -0.00201373 0.000271575) 269
(-0.0991315 -0.00227039 0.00756169) 2933
(-0.0301763 -0.0234329 0.000312606) 1406
(0.0353563 -0.00740506 0.000268696) 1367
(0.0189877 0.011863 0.000277565) 287
(-0.042727 0.0203041 0.000242473) 1794
(-0.0420185 0.0197069 0.000275288) 1794
(-0.00396526 -0.0141044 0.163935) 8564
(-0.0415316 -0.0234483 0.000284898) 1826
(-0.000438534 -0.10177 0.00545778) 3214
(0.0352697 0.0191826 0.000288665) 1545
(0.0200568 0.0226042 0.000239252) 1090
(0.00258306 -0.0648315 0.00233102) 2093
(-0.0298493 -0.0544822 0.000285693) 2077
(0.0238284 -0.023775 0.000305323) 251
(0.0352961 0.0200953 0.000279142) 1545
(0.0206086 0.0638497 0.000281827) 2366
(0.0146721 0.0276839 0.00025966) 1099
(0.0310485 0.0586523 0.000285952) 2358
(-0.0268548 -0.0240459 0.000309852) 580
(0.00838912 -0.0153171 0.000283615) 845
(0.00111827 -0.10035 0.0110596) 3214
(0.0285898 0.0196343 0.000259266) 300
(0.0478039 -0.00931853 0.00031551) 1522
(0.0220609 0.0416689 0.000259691) 2354
(0.0385638 0.0119271 0.000304986) 1537
(0.0103147 -0.104435 0.0208412) 3271
(0.0445203 -0.00773626 0.000244278) 1522
(-0.0228159 0.0222477 0.000321375) 530
(-0.0201643 -0.038257 0.000261899) 2073
(0.0284045 -0.0147805 0.000260575) 259
(0.0304488 -0.0155385 0.000283752) 260
(-0.000509285 0.0713679 0.0137857) 2431
(-0.0249607 -0.0454632 0.000289471) 2075
(-0.0647864 -0.0166727 0.000309067) 1822
(0.023116 -0.0412052 0.000280424) 2106
(0.0223787 0.0225295 0.000310884) 1090
(0.0449837 -0.0113729 0.000294282) 1522
(-0.0441877 -0.0236737 0.000275167) 1827
(0.0598082 0.00126921 0.000277903) 1533
(-0.0206514 0.0203723 0.000278109) 529
(-0.0274726 -0.0223581 0.000260996) 580
(-0.0596662 -0.0179048 0.000258565) 1821
(0.0248098 -0.0249401 0.000301151) 860
(-0.0962027 0.00192102 0.000275809) 2933
(0.0129347 0.0512852 0.000258446) 2363
(-0.023487 -0.023483 0.000306522) 579
(-0.014641 -0.0282697 0.000290381) 819
(0.0209778 -0.025843 0.000278534) 859
(-0.0362166 0.0190005 0.000279822) 1793
(0.0157758 -0.00199383 0.000295119) 269
(0.00606971 -0.0990634 0.00564146) 3213
(-0.0645089 -0.0182912 0.000276459) 1822
(0.0178217 0.0215409 0.000270234) 1089
(-0.0234724 0.0236538 0.000274323) 1139
(0.0299253 -0.00667133 0.00028521) 267
(0.0358761 -0.0231813 0.000327379) 1505
(-0.000647495 0.0947718 0.000277585) 3492
(0.00431202 0.0156565 0.000251854) 1101
(0.0157796 0.00160087 0.00022659) 269
(0.0221635 -0.0126521 0.000907624) 256
(0.0182159 -0.0378005 0.000292887) 2105
(-0.0246827 0.0247564 0.000295654) 1140
(0.0208593 -0.0233141 0.000265233) 858
(0.048096 -0.0101481 0.000292135) 1523
(-0.0110017 0.0274684 0.000264845) 1130
(0.0180247 0.0482227 0.000262798) 2355
(-0.0208153 -0.0391871 0.000281535) 2074
(-0.075087 0.0281459 0.000312004) 1800
(-0.000747366 0.0978655 0.0220375) 3549
(-0.0198569 0.0442127 0.000276208) 2386
(0.0351331 0.0189513 0.000271388) 1545
(-0.0240075 0.0427145 0.000262209) 2387
(-0.0244324 -0.0422587 0.000299829) 2074
(0.0362264 0.0155165 0.000279855) 1545
(0.015339 0.00504792 0.00129205) 277
(-0.00721306 -0.0657759 0.000279283) 2094
(-0.0151509 -0.031084 0.000584222) 820
(-0.0187654 0.0383678 0.000293373) 2385
(0.00195012 -0.101708 0.00527281) 3214
(-0.0362632 0.0190212 0.000272225) 1793
(-0.0184846 0.0357012 0.000297131) 2385
(0.0280402 -0.0522101 0.00030877) 2108
(0.0228811 -0.0228933 0.000295931) 859
(-0.0357858 0.0178033 0.000294826) 1793
(-0.0261512 -0.0263377 0.000366916) 1435
(-0.0288895 0.0149969 0.000282762) 539
(-0.0414398 -0.023452 0.000276767) 1826
(0.0566699 -0.00134775 0.000262343) 1532
(0.0233422 -0.00554628 0.00025577) 264
(0.000230849 0.0711328 0.00660256) 2375
(-0.0142187 -0.0174266 0.00031649) 807
(0.0356432 0.017628 0.00028294) 1545
(-0.0230339 0.0229807 0.000311951) 531
(-0.0178613 0.0247735 0.000231195) 1138
(-0.0663336 -0.0325313 0.000298396) 1831
(0.0525135 0.00124228 0.00410856) 1531
(0.0184805 0.0191099 0.000233543) 1088
(-0.0148699 -0.0117395 0.00027605) 573
(0.0210096 0.0367219 0.000289987) 2353
(0.0199485 -0.0357454 0.000285013) 2105
(-0.0682793 -0.0183168 0.000297475) 1823
(0.0305405 -0.00167039 0.000297139) 275
(-0.046264 0.0197361 0.000255301) 1795
(0.0125977 -0.0547209 0.000275662) 2100
(0.0220094 0.0385999 0.000301477) 2354
(0.000312473 -0.0124824 0.0630683) 199
(0.0354558 -0.0101568 0.000250487) 1367
(0.0237492 0.0405552 0.000281029) 2354
(-0.0238295 0.0435254 0.000309078) 2387
(-0.00228479 0.0401672 0.000255893) 2369
(-0.0391555 0.0203235 0.0002887) 1794
(-0.00455955 0.0145196 0.008236) 1117
(-0.0322137 0.0150789 0.00028087) 540
(0.0464281 0.013753 0.000257842) 1538
(0.0220394 0.0218624 0.000259783) 298
(0.0225774 0.0225441 0.00027466) 298
(-0.0124672 0.0637098 0.000732036) 2381
(0.01773 0.0329996 0.000295531) 1471
(-0.00157675 0.0736721 0.00682355) 2375
(-0.0146058 0.0632979 0.000282614) 2381
(0.0117896 -0.0135421 0.140052) 8484
(0.0236495 -0.0326553 0.00028209) 2113
(-0.0064838 0.019471 0.00029481) 1119
(0.0150982 -0.0316868 0.000268478) 852
(0.0150124 -0.0276444 0.000307984) 851
(-0.052995 -0.0276041 0.000286326) 1829
(0.0171654 -0.00291926 0.000305185) 262
(-0.0266091 -0.0208436 0.000247772) 580
(0.00820086 0.0327982 0.000292284) 1108
(-0.0188879 -0.0161407 0.000264957) 576
(-0.00293547 -0.0153871 0.0146789) 877
(-0.0405794 0.0205509 0.000284975) 1794
(0.00839784 0.0125355 0.113285) 6516
(-0.0476262 -0.0221631 0.000242603) 1827
(-0.0234268 -0.0411597 0.000263616) 2074
(0.0251552 0.0199977 0.000253567) 299
(0.0232048 -0.0230517 0.000295736) 251
(-0.0483885 -0.0257526 0.000273045) 1828
(-0.0196319 -0.0447876 0.000258771) 2075
(0.00776329 -0.0985595 0.00362229) 3213
(-0.0155317 -0.00376992 0.164636) 7964
(-0.0635671 0.00937345 0.000267817) 1805
(0.0231617 0.0402463 0.000264525) 2354
(-0.0182649 -0.0361432 0.000301447) 2073
(0.0305777 -0.000203234 0.000296234) 275
(0.0217338 0.0412372 0.000234954) 2354
(-0.0180785 0.0522417 0.000273504) 2380
(-0.0244211 -0.024345 0.000275816) 580
(0.0188507 -0.0412782 0.000280693) 2106
(-0.0401516 0.0203714 0.000274376) 1794
(0.0288694 -0.0136082 0.000282974) 259
(-0.023067 0.0232878 0.000325234) 1139
(-0.0369119 -0.0207905 0.000294698) 1825
(-0.0163851 0.0206729 0.000281546) 1136
(0.0214324 -0.0116624 0.00249123) 256
(0.019033 0.0321574 0.000283772) 1471
(-0.0958088 0.0129576 0.0284225) 3037
(-0.0300161 -0.0148956 0.000288329) 571
(0.00952117 0.0374179 0.000281964) 2361
(-0.0462762 0.0215343 0.000267097) 1795
(0.00356805 -0.0973654 0.000334116) 3213
(0.0403148 0.0133476 0.000258687) 1537
(-0.04874 0.0265493 0.000258061) 1796
(-0.0249264 -0.0273854 0.000276) 1435
(0.0186324 -0.017383 0.000287841) 248
(-0.0144833 -0.0177437 0.000298828) 807
(-0.017617 0.0437716 0.00026156) 2386
(-0.0131124 0.0252401 0.000277936) 1130
(0.0217941 0.0396361 0.000273787) 2354
(-0.00111048 0.0487896 0.00027188) 2371
(-0.0238052 -0.106219 0.000302327) 3208
(0.0245426 -0.044398 0.000279013) 2107
(0.00709342 -0.0154611 0.000290466) 845
(0.0202036 -0.00535674 0.000290989) 263
(-0.0178 -0.0104796 0.0003188) 567
(-0.0416347 0.0203373 0.000252794) 1794
(-0.0259081 -0.0257746 0.000303175) 1406
(0.00557638 0.0140866 0.107518) 8900
(-0.036906 -0.0206185 0.000269733) 1825
(0.0261598 -0.0146986 0.000288056) 258
(0.0355449 -0.00958572 0.000235964) 1367
(0.046228 0.00942322 0.000283907) 1538
(-0.0234348 -0.0416528 0.000268793) 2074
(-0.00408968 -0.1022 0.0205759) 3270
(0.0578226 0.00106116 0.000276375) 1532
(-0.0148193 -0.00707009 0.122094) 7748
(-0.0216826 0.0431853 0.000258434) 2386
(-0.0212771 -0.0372459 0.000300423) 2073
(0.00179593 -0.0949077 0.000289232) 3212
(0.0500212 0.00101377 0.00568998) 1531
(-0.000816326 0.0147128 0.0491596) 1277
(0.0307441 -0.00618199 0.000303033) 267
(0.00114128 -0.059258 0.00495845) 2092
(0.0262136 0.00819763 0.000259065) 281
(-0.00392726 -0.0136062 0.158936) 8564
(-0.0147309 -0.00767672 0.162894) 7972
(-0.0147971 0.0356445 0.000282013) 2385
(-0.00471091 -0.0125664 0.126128) 6569
(0.0117864 4.60159e-05 0.0444313) 174
(0.0512328 -0.000656343 0.000317372) 1531
(0.00304425 -0.0935318 0.000322318) 3212
(-0.0253291 0.0252204 0.000314948) 532
(0.0153757 -0.00905158 0.157784) 7325
(-0.067168 0.00416256 0.000284589) 1814
(-0.0232012 -0.0417995 0.000279962) 2074
(-0.0768844 -0.00207724 0.0165056) 1872
(-0.0237598 0.0400614 0.0002758) 2386
(0.0296765 0.00878059 0.000271401) 283
(-0.0639745 0.00849351 0.000285122) 1805
(0.0362662 -0.021614 0.000278723) 1513
(-0.0699549 1.04391e-05 0.0101673) 1814
(-0.0193398 -0.0459124 0.000257771) 2075
(0.0191695 0.0396865 0.000250146) 2354
(-0.0326511 0.0152153 0.000301512) 540
(0.0215262 0.0233789 0.000293378) 1091
(-0.00279419 0.0144553 0.0453908) 1285
(0.0372313 0.0104436 0.000283677) 1537
(0.0116186 0.000327019 0.0330437) 125
(-0.00193038 -0.0153931 0.0390716) 941
(0.015847 -0.0534651 0.000263721) 2100
(0.019778 -0.044797 0.000285536) 2107
(-0.0226563 0.0318147 0.000262018) 2393
(-0.0169703 0.0582283 0.000290398) 2381
(0.0276531 0.0204585 0.000282191) 300
(-0.0193652 -0.0370472 0.000283999) 2073
(-0.0257555 -0.0451291 0.000253352) 2075
(0.0236916 0.0236557 0.000303127) 299
(0.00764236 0.0507626 0.000265014) 2363
(0.013855 -0.0592241 0.00025675) 2101
(-0.0194948 -0.0434093 0.000278669) 2074
(0.00262589 -0.0972205 0.00108454) 3213
(0.0260003 0.0214556 0.000298569) 299
(0.019341 0.0379342 0.000291839) 2353
(-0.0239719 0.0427335 0.000272878) 2387
(0.0151438 0.0153869 0.000291708) 1086
(-0.0443672 -0.0235914 0.000262948) 1827
(-0.0426304 0.020682 0.000256702) 1794
(-0.00937762 -0.0123984 0.159412) 6714
(0.0429851 0.000331009 0.000297631) 1529
(-0.0434839 -0.0234273 0.000269461) 1827
(-0.0206004 -0.037242 0.000280006) 2073
(0.0434786 -0.00944064 0.000260343) 1522
(0.0369032 0.0153943 0.000283034) 1545
(-0.094052 0.00112502 0.000290087) 2932
(0.0179388 -0.0206151 0.000264083) 857
(0.0212616 0.0218212 0.000274102) 1090
(-0.0234665 -0.0233932 0.000326713) 579
(0.0245831 0.0248475 0.000318629) 1092
(-0.0958547 -0.010324 0.0282926) 3044
(0.00803859 -0.0153552 0.000282609) 845
(0.000647136 -0.100248 0.0113262) 3214
(-0.0262515 0.022963 0.000275926) 532
(-0.0315442 0.0140384 0.000272272) 540
(-0.105916 0.000866879 0.0427637) 3103
(-0.0438495 0.0242646 0.000277598) 1795
(-0.013681 -0.0501994 0.000315909) 2083
(0.00138264 0.0955 0.000264334) 3492
(-0.0407171 -0.0225996 0.00027103) 1826
(-0.0118124 0.0637422 0.00107131) 2381
(0.0254158 -0.0252772 0.00030068) 252
(-0.0982848 -0.0024603 0.011022) 2933
(-0.0178825 0.0325671 0.000289093) 1475
(0.0389328 -0.0077221 0.000270431) 1521
(-0.00692878 -0.0125069 0.137873) 6617
(-0.0191556 -0.0366395 0.000245031) 2073
(-0.0109614 -0.0166478 0.000280436) 814
(0.00153672 -0.0581984 0.00840586) 2092
(-0.00476005 0.0156534 0.10807) 8916
(0.0363533 0.0152415 0.000259598) 1545
(0.0231746 0.0124262 0.000268747) 289
(0.0246465 0.022275 0.000293104) 299
(-0.0239405 -0.0240125 0.000313138) 811
(-0.0513191 -0.0211876 0.000249672) 1828
(-0.0760278 0.00035586 0.0084854) 1815
(0.0191578 0.0378718 0.000268047) 2353
(-0.00636304 -0.0138915 0.152507) 8500
(0.0190854 -0.0624395 0.000290839) 2102
(-0.0245278 0.0539609 0.000308978) 2388
(-0.0249941 -0.0249146 0.000296856) 580
(0.00327218 0.0630623 0.000257939) 2373
(0.0138697 0.0251996 0.000269712) 1098
(-0.0393223 0.0208028 0.000306025) 1794
(-0.0753246 0.000646815 0.0105911) 1815
(-0.0146853 -0.00432984 0.0091552) 557
(0.0160857 0.0938958 0.000319942) 3484
(-0.029825 0.0219586 0.000247632) 1400
(0.0195251 -0.0421554 0.000301771) 2106
(0.0252293 -0.0251845 0.000268874) 252
(-0.0415284 -0.0236542 0.00030342) 1826
(0.00626853 0.0155646 0.000276605) 1101
(-0.0240205 -0.0241264 0.000316514) 811
(-0.0634678 0.00998408 0.000295114) 1805
(-0.0337275 0.0160911 0.00028447) 1401
(-0.0158953 -0.000223214 0.100809) 7621
(0.0229533 -0.0229031 0.00030497) 251
(0.00354528 0.0156908 0.000293579) 1101
(0.0247449 0.0248959 0.000303845) 1092
(-0.0241347 0.0241933 0.000302354) 1140
(-0.00539765 -0.012534 0.134614) 6569
(0.0173636 0.0396163 0.000302891) 2353
(0.040625 0.00955557 0.000290676) 1537
(-0.0199517 -0.0343223 0.000294026) 2073
(0.0141653 0.0258364 0.000260031) 1098
(0.0457127 0.0118581 0.000273992) 1538
(-0.0150553 -0.0105714 0.0002965) 573
(0.0227952 0.0456798 0.000297536) 2355
(0.0105382 0.0183477 0.000255979) 1095
(0.0237639 0.0239104 0.000273393) 1091
(-0.0161094 0.00820946 0.000237463) 534
(0.0212149 -0.0354786 0.000268033) 2105
(0.0449416 -0.00976673 0.000302518) 1522
(0.0459155 -0.0114893 0.000271317) 1522
(-0.043424 -0.0238887 0.000314375) 1827
(0.0418954 0.00174366 0.000302305) 1529
(-0.106139 0.00538551 0.0402307) 3104
(-0.0433799 -0.0232463 0.000275842) 1827
(-0.023916 -0.0431682 0.000255795) 2075
(-0.00426184 -0.0943164 0.000269147) 3212
(-0.023435 -0.0285301 0.000258172) 1435
(-0.0376658 -0.0210893 0.000275252) 1825
(-0.0846277 -0.00871792 0.00771619) 2929
(-0.0532634 0.0319201 0.000281626) 1797
(0.0197004 0.0354339 0.000284278) 2353
(-0.0128466 -0.00595123 0.0979904) 7636
(-0.00712281 0.0211672 0.000294053) 1119
(0.062819 0.00140784 0.000257651) 1533
(-0.0628431 0.012948 0.000276208) 1805
(0.0350474 -0.0170518 0.00028458) 1513
(-0.0260157 0.0464362 0.000312451) 2387
(-0.0444179 0.0190629 0.000252518) 1794
(0.0229165 0.00412437 0.000307232) 280
(0.0364804 -0.000360795 0.000266717) 1368
(-0.0154901 -0.00341981 0.131003) 7796
(-0.0710732 0.00225554 0.00666855) 1815
(0.0152068 -0.0605796 0.000269315) 2101
(0.0513563 -0.000741516 0.000291561) 1531
(0.0356607 -0.0153433 0.000272017) 1513
(-0.023952 0.0239629 0.000266928) 1139
(0.0212061 0.0373372 0.000287652) 2353
(0.0272383 -0.00733474 0.000263339) 266
(-0.0257944 -0.0118456 0.000236913) 570
(-0.0235105 -0.0580064 0.000255509) 2077
(0.00818787 0.0294002 0.000262106) 1106
(0.00127569 -0.060438 0.017056) 2149
(-0.0537778 -0.0250879 0.000514295) 1828
(-0.0169709 0.0417385 0.000266484) 2386
(0.024149 -0.0259147 0.00027316) 860
(0.0107873 -0.0210128 0.00027175) 848
(0.0460843 0.01407 0.00027338) 1538
(-0.0208963 -0.0365858 0.000315179) 2073
(0.057347 -0.00130971 0.000311395) 1532
(-0.04779 -0.0224969 0.000277859) 1827
(-0.0111705 -0.0176498 0.000312406) 815
(-0.0239474 0.0241565 0.00028768) 1139
(0.0244388 -0.0244107 0.000315137) 252
(0.0242612 -0.027981 0.000285895) 1441
(0.024946 -0.0248497 0.000289773) 252
(0.0162236 0.0223064 0.000266363) 1089
(-0.0276731 -0.023084 0.000272911) 580
(-0.0183602 -0.0218125 0.000273783) 809
(-0.0216675 0.0225817 0.000283938) 1138
(-0.0472723 0.025515 0.000288081) 1795
(-0.0402866 -0.0215835 0.00028507) 1826
(-0.0774963 -0.000477423 0.0183108) 1872
(0.0136235 -0.0605158 0.000271997) 2101
(0.00556676 0.0977254 0.019443) 3549
(0.0149425 -0.000291692 0.0100728) 269
(-0.0733907 0.00573645 0.0049178) 1815
(-0.0111756 0.067523 0.000279918) 2382
(-0.0170752 -0.0364482 0.000292547) 2073
(-0.0989018 0.0038179 0.00835763) 2933
(0.0452666 0.0111578 0.000294418) 1538
(0.0580127 -0.0030221 0.00033392) 1532
(0.0430275 -0.0141598 0.00027213) 1522
(0.0405378 0.0119922 0.000259014) 1537
(-0.0200647 0.0450657 0.000280342) 2387
(0.0560129 5.91985e-06 0.000291534) 1532
(0.0182779 0.0586426 0.000287373) 2365
(-0.0725286 -0.00239692 0.0109213) 1815
(0.012736 -0.00592833 0.114102) 6482
(-0.0221934 -0.0404481 0.000263851) 2074
(-0.013091 -0.0306317 0.0015867) 819
(0.0387269 0.0125004 0.000284649) 1537
(0.0246564 -0.0247216 0.000315405) 860
(-0.0379151 -0.021057 0.000293273) 1825
(-0.0306072 0.0229096 0.000261275) 1400
(-0.0158991 -0.00381326 0.16373) 7965
(-0.0477366 0.0245618 0.000231143) 1795
(-0.0237367 -0.0237358 0.000285928) 579
(-0.0202033 -0.0110313 0.000265543) 567
(-0.0223659 -0.0172123 0.000262859) 577
(0.0436109 -0.0133549 0.000265552) 1522
(-0.0188862 -0.0383426 0.000765445) 2073
(0.0301343 0.00657787 0.00027086) 283
(-0.0147132 0.027601 0.000264187) 1131
(0.0264438 -0.0146996 0.000276329) 258
(0.0224376 -0.0384572 0.000301518) 2106
(-0.0042458 -0.101202 0.00783542) 3214
(-0.00563342 -0.100365 0.0102404) 3214
(0.00371213 -0.0465703 0.00027188) 2090
(-0.000607894 0.0996086 0.000271127) 3494
(-0.0149078 -0.00501123 0.0102696) 557
(-0.0382403 -0.0191347 0.000269044) 1825
(-0.0222849 0.03984 0.000299543) 2386
(-0.0255457 -0.0256705 0.000298781) 812
(0.0199624 -0.0198037 0.000255335) 249
(0.0430245 0.0154667 0.000288955) 1546
(-0.00486455 -0.0145578 0.161874) 8564
(0.00130531 0.0704695 0.00626438) 2374
(-0.0153945 0.00722121 0.000283178) 533
(0.000176973 -0.0591625 0.0181565) 2148
(-0.0222268 -0.0222325 0.000281643) 810
(-0.0431747 -0.0247361 0.000293871) 1827
(-0.0177836 -0.033635 0.000290897) 1436
(0.0575499 -0.00210431 0.000309655) 1532
(-0.0236478 -0.0500935 0.000280599) 2076
(0.0267024 -0.0459489 0.000282237) 2107
(-0.0238735 0.0229592 0.000267521) 531
(-0.0478954 -0.0243481 0.000277489) 1827
(-0.0128669 0.0388925 0.000268271) 2377
(0.00193888 0.0380212 0.000253069) 1473
(0.0222931 0.0420887 0.000283481) 2354
(-0.04284 0.0223997 0.000283911) 1794
(-0.0387125 -0.0200805 0.000294993) 1826
(-0.0384361 0.0196145 0.000263201) 1793
(0.00351632 -0.101056 0.0100862) 3214
(-0.0435175 -0.0247455 0.000287671) 1827
(0.0166202 0.0547388 0.000272605) 2364
(0.00306127 0.0737829 0.00900158) 2375
(-0.0154157 -0.00746339 0.000277428) 565
(-0.00980953 0.0139825 0.130004) 9036
(-0.0524945 -0.0227983 0.000265035) 1828
(-0.0379379 0.0203318 0.000306052) 1793
(0.0232747 0.0232773 0.000280455) 1091
(-0.0209479 -0.0405482 0.000277756) 2074
(0.00230984 0.0157636 0.000275371) 1101
(-0.0124519 0.0571707 0.000266156) 2380
(-0.0597736 -0.0313999 0.000265534) 1830
(0.0331857 0.00971952 0.000276264) 284
(0.00347862 0.0940753 0.000288702) 3492
(-0.0252994 0.0234336 0.000288035) 532
(-0.0244137 0.0246086 0.000311432) 1140
(-0.0298198 -0.0235129 0.00028247) 1406
(0.0232484 0.0231361 0.000329159) 299
(0.0204749 -0.0350744 0.000253447) 2105
(0.0465215 -0.00811205 0.000260906) 1522
(0.0104159 -0.0181633 0.000303366) 847
(-0.0111155 -0.0171921 0.000284235) 814
(-0.00618379 0.0973135 0.0199391) 3549
(-0.0254392 -0.0253224 0.000314335) 580
(-0.0223373 0.0511576 0.000256383) 2388
(0.0242559 0.0405784 0.000264358) 2354
(-0.0251038 -0.0249156 0.00031771) 580
(0.0176679 0.0175912 0.000252604) 295
(-0.0612766 0.0161763 0.000291307) 1805
(0.0467934 -0.00886463 0.000276459) 1522
(-0.00425349 0.0156451 0.00029005) 1117
(0.021468 -0.0440456 0.000260603) 2107
(-0.0242569 -0.0243153 0.000291645) 812
(-0.0266496 0.0460505 0.000312476) 2387
(0.0221494 0.0286384 0.00029459) 1470
(0.0072729 -0.055191 0.000277343) 2100
(-0.0057612 0.0142955 0.0977245) 8860
(0.00116184 0.071232 0.00543263) 2375
(-0.0223385 -0.022529 0.000316032) 810
(0.0633406 -0.000931388 0.000265911) 1533
(0.0223704 -0.0386026 0.000294038) 2106
(0.025534 -0.0459553 0.000243667) 2107
(-0.0757866 -0.000408522 0.00762587) 1815
(0.000379139 0.0598867 0.000317574) 2373
(-0.0233102 0.050907 0.000257738) 2388
(-0.0154356 -0.00730476 0.00027863) 565
(0.0055512 -0.0155745 0.000272888) 837
(-0.0540619 -0.0215268 0.000287018) 1828
(0.0394786 -0.00902385 0.00027398) 1521
(-0.000675351 -0.101456 0.00331422) 3214
(-0.0194512 -0.0398172 0.000274858) 2074
(0.0161658 0.0590523 0.000273618) 2365
(0.041322 -0.00663739 0.000297565) 1521
(0.0354905 0.0175499 0.000263817) 1545
(0.0486866 -0.000453523 0.010436) 1530
(0.0433397 -0.016494 0.000295738) 1514
(-0.0765648 -0.000533246 0.00909754) 1816
(-0.022899 -0.0304231 0.00026443) 1435
(-0.0639985 0.0291309 0.000290082) 1798
(0.0156521 0.000898933 0.161193) 7340
(-0.0497966 0.0205491 0.000269381) 1795
(0.0259856 -0.0359302 0.000317821) 2114
(-0.031537 0.0605301 0.000276082) 2390
(-0.0602897 0.0140451 0.000299946) 1805
(0.0157219 -0.00300828 0.000269214) 261
(0.0222797 0.0223302 0.000303292) 1090
(-0.00585895 -0.0138695 0.153865) 8500
(0.0474572 0.00995797 0.000283384) 1538
(-0.076292 0.00296521 0.0070617) 1816
(-0.0194063 0.0353019 0.000276906) 2385
(0.0525714 0.0034168 0.00283854) 1531
(0.0361885 -0.0216446 0.000264525) 1513
(-0.0104613 0.0585152 0.000265922) 2380
(0.0199287 0.0447055 0.000292601) 2355
(0.0181102 -0.037457 0.000280403) 2105
(-0.019082 0.0387581 0.000298194) 2385
(-0.0011643 -0.0585993 0.00240288) 2092
(-0.0475309 0.0232298 0.000285604) 1795
(-0.0231541 -0.0111252 0.000280386) 569
(0.0477527 0.0120885 0.00027211) 1539
(0.00928472 -0.0123895 0.171946) 6769
(-0.0242109 0.0243013 0.000316629) 1140
(-0.0694308 0.00410715 0.000284232) 1814
(-0.0357664 0.0185479 0.000263791) 1793
(-0.0985086 0.00665421 0.00556865) 2933
(-0.0499949 0.0271688 0.000244927) 1796
(-0.00374311 -0.01254 0.141246) 6618
(-0.0589521 0.0287904 0.000274768) 1798
(0.0378389 0.0126317 0.000287655) 1537
(0.0309202 0.0210142 0.000265462) 1371
(0.0220915 0.0226446 0.000252347) 1090
(0.0318756 0.0622469 0.000285348) 2358
(-0.0232886 0.0408572 0.000271251) 2386
(-0.00334407 0.033169 0.000284182) 1115
(0.0207868 -0.00167054 0.000257589) 271
(-0.0403158 0.0203327 0.000278777) 1794
(0.0243031 -0.0290769 0.000276068) 1441
(-0.037795 0.0202908 0.000305292) 1793
(-0.100125 0.000664923 0.000257541) 2934
(-0.0798471 0.00678705 0.0106819) 1816
(-0.0216188 -0.0364026 0.0002767) 2073
(0.0322412 -0.0194164 0.000293592) 1366
(-0.00145187 0.0157096 0.0938334) 8796
(-0.0172112 -0.010518 0.00030665) 566
(0.0422546 -0.0073948 0.000282903) 1521
(0.000195249 0.0705171 0.00748505) 2374
(5.53938e-05 -0.0127219 0.0922878) 6374
(0.0227897 0.0227214 0.000317975) 299
(0.0299651 0.0502999 0.000308711) 2356
(-0.00214007 0.0980392 0.0212723) 3549
(-0.0114481 -0.02337 0.000250133) 817
(0.0155783 0.0053945 0.000267679) 277
(0.0227841 -0.022663 0.000308138) 251
(0.0632271 -0.00160022 0.000256106) 1533
(0.00962821 0.0363353 0.000239661) 1472
(0.0233444 -0.0233149 0.0002842) 251
(-0.00500326 -0.0586735 0.000227645) 2092
(-0.0458114 -0.0248279 0.000278398) 1827
(-0.0197854 -0.0359719 0.000274405) 2073
(0.0301021 0.00805746 0.00027451) 283