/*--------------------------------*- C++ -*----------------------------------*\
| =========                 |                                                 |
| \\      /  F ield         | OpenFOAM: The Open Source CFD Toolbox           |
|  \\    /   O peration     | Version:  plus.master.MPPICInterFoam            |
|   \\  /    A nd           | Web:      www.OpenFOAM.com                      |
|    \\/     M anipulation  |                                                 |
\*---------------------------------------------------------------------------*/
FoamFile
{
    version     2.0;
    format      ascii;
    class       vectorField;
    location    "14/lagrangian/kinematicCloud";
    object      UCorrect;
}
// * * * * * * * * * * * * * * * * * * * * * * * * * * * * * * * * * * * * * //


369
(
(-3.8375e-15 -2.91426e-15 3.8173e-15)
(-2.28558e-09 2.12088e-09 1.44954e-12)
(1.67423e-07 -1.34573e-08 9.80085e-21)
(-5.57857e-09 5.1757e-11 1.44954e-12)
(-4.83628e-12 -1.4854e-11 1.0021e-07)
(1.0896e-07 -6.87016e-09 1.65659e-14)
(-4.14539e-08 -1.81621e-07 1.8022e-07)
(1.55005e-21 -1.28784e-21 6.44762e-21)
(7.9735e-15 -7.48823e-15 2.58361e-14)
(1.10695e-12 -3.7873e-12 -9.13955e-08)
(1.17886e-20 1.25424e-20 2.43431e-21)
(-4.70462e-13 2.05975e-12 2.50278e-09)
(-4.31764e-20 -1.33105e-19 1.6448e-21)
(6.10734e-20 1.2682e-19 1.29571e-22)
(-1.72359e-19 -7.54606e-19 2.53482e-14)
(1.69501e-14 2.76142e-15 2.8582e-15)
(-1.0429e-11 -4.07327e-12 1.94444e-08)
(5.87443e-15 1.07331e-14 -7.06926e-15)
(-4.14539e-08 -1.81621e-07 1.03563e-07)
(-4.59309e-12 -8.65201e-12 4.70465e-08)
(-7.98601e-20 -3.62412e-20 1.95166e-15)
(-1.72359e-19 -7.54606e-19 2.87779e-16)
(-6.0099e-08 -2.63311e-07 3.59013e-14)
(2.94946e-14 4.17485e-15 1.54979e-15)
(1.0896e-07 -6.87016e-09 -3.08087e-14)
(-4.14539e-08 -1.81621e-07 -1.55792e-07)
(-2.13593e-19 -7.40178e-19 1.34854e-14)
(1.67979e-14 3.42796e-15 1.54979e-15)
(6.48076e-20 1.69134e-20 2.43431e-21)
(-4.14539e-08 -1.81621e-07 -1.44993e-07)
(4.6067e-20 1.32071e-19 1.743e-37)
(1.83493e-20 -1.38708e-19 1.29148e-38)
(-7.07159e-08 -3.09827e-07 3.59013e-14)
(1.76417e-17 -1.88927e-17 9.55655e-14)
(4.21702e-22 -2.5329e-22 3.94752e-21)
(1.59427e-20 1.30104e-20 2.43431e-21)
(-8.1204e-08 -1.8534e-08 2.58387e-12)
(1.10695e-12 -3.7873e-12 -5.17695e-09)
(-1.50844e-09 5.11589e-08 -1.11847e-21)
(-4.74216e-12 -1.48869e-11 1.0021e-07)
(-7.17694e-31 -2.02851e-30 3.09698e-35)
(-3.37642e-15 -2.32215e-14 2.73303e-19)
(3.26203e-15 1.09988e-16 8.86875e-19)
(-1.63675e-07 -3.73578e-08 1.72655e-18)
(2.15289e-08 -4.64143e-08 5.22534e-16)
(-1.40602e-07 -3.20915e-08 1.72655e-18)
(-8.52669e-08 -1.94616e-08 -9.00292e-08)
(6.34315e-15 6.57301e-15 -1.17059e-14)
(8.25119e-16 4.77849e-15 8.86875e-19)
(-8.76714e-20 -1.10133e-19 1.91013e-21)
(1.92991e-08 -4.74881e-08 7.17575e-12)
(9.40702e-21 1.2274e-20 2.43431e-21)
(8.16974e-20 -2.08134e-19 0)
(1.17098e-21 -1.3324e-21 5.30106e-19)
(-4.70462e-13 2.05975e-12 3.11941e-08)
(6.33993e-15 6.57189e-15 1.09188e-14)
(1.30942e-19 -1.7819e-19 9.0855e-23)
(-8.52669e-08 -1.94616e-08 6.19395e-08)
(6.93147e-32 -5.39833e-30 -4.18632e-20)
(-5.37701e-31 1.55832e-30 6.45741e-39)
(-2.48889e-19 -1.0899e-18 1.34854e-14)
(6.02148e-20 1.77854e-20 9.45514e-38)
(8.12506e-20 -2.57775e-20 7.555e-20)
(-4.70462e-13 2.05975e-12 3.03374e-08)
(-3.15839e-30 1.25611e-20 -8.1764e-23)
(0.000126882 -1.51587e-18 -2.45331e-07)
(8.23361e-20 -2.26754e-20 7.555e-20)
(9.3349e-20 -2.09447e-19 0)
(2.28168e-05 -1.51587e-18 -1.51232e-18)
(2.94889e-15 1.41382e-14 -1.11676e-14)
(-3.1443e-20 -1.37211e-19 4.84836e-22)
(-3.48704e-19 -2.55921e-19 8.6147e-15)
(-1.13517e-14 -4.4854e-14 -9.63707e-21)
(1.46628e-14 -9.22056e-16 2.09267e-15)
(4.94523e-19 -2.79582e-20 1.66247e-21)
(1.24063e-15 4.19799e-14 4.76423e-18)
(-4.05179e-07 1.71705e-25 8.21691e-23)
(-6.79839e-16 7.32584e-15 -1.11676e-14)
(-1.72359e-19 -7.54606e-19 2.36723e-14)
(-8.52669e-08 -1.94616e-08 7.12359e-08)
(1.79598e-15 1.44013e-14 -2.04393e-14)
(0.000101004 -1.51587e-18 -1.51232e-18)
(1.79598e-15 1.44013e-14 -2.22606e-14)
(-6.87463e-31 2.92722e-30 6.45741e-39)
(-1.22702e-29 -3.90715e-29 -5.16593e-38)
(6.10734e-20 1.2682e-19 1.27051e-22)
(-4.96675e-16 4.23764e-14 4.76423e-18)
(-4.31834e-19 4.06423e-19 6.04294e-15)
(-2.28093e-07 1.63479e-08 8.21691e-23)
(-1.13548e-14 4.48547e-14 8.84647e-18)
(-2.28263e-07 -1.48401e-08 8.21691e-23)
(2.12938e-08 1.02163e-07 6.00481e-26)
(-2.28372e-07 -1.38702e-08 8.21691e-23)
(6.01547e-20 -2.05707e-19 0)
(1.8417e-08 1.0282e-07 -1.53547e-14)
(3.80047e-15 -2.15866e-16 5.98029e-15)
(-3.87052e-31 1.61103e-30 8.54454e-38)
(1.84246e-08 -1.02818e-07 -1.28381e-14)
(-2.28501e-07 1.27207e-08 8.21691e-23)
(-2.84593e-14 4.87587e-14 4.76423e-18)
(8.34783e-20 -2.08335e-19 0)
(2.75485e-20 -1.37671e-19 1.29148e-38)
(-4.59062e-07 1.71705e-25 8.21691e-23)
(-7.86954e-08 1.71705e-25 8.21691e-23)
(-1.13548e-14 4.48547e-14 9.42827e-18)
(2.29151e-08 -1.01793e-07 7.5151e-23)
(2.96185e-08 -2.02167e-07 7.52097e-23)
(2.28472e-08 1.01809e-07 6.00481e-26)
(0.000125331 1.37659e-05 -1.51232e-18)
(2.01649e-08 -1.02421e-07 7.5187e-23)
(-3.18219e-14 6.04272e-18 9.4447e-14)
(1.04328e-19 2.1664e-19 1.743e-37)
(4.14132e-20 -1.68103e-19 9.0855e-23)
(7.55831e-21 4.18829e-20 1.8171e-22)
(-3.15839e-30 1.52083e-19 -8.1764e-23)
(0.000241975 -1.51587e-18 -1.51232e-18)
(1.8417e-08 1.0282e-07 1.52115e-14)
(0.000126391 -4.35824e-06 -1.51232e-18)
(1.8417e-08 1.0282e-07 -6.39254e-15)
(2.55893e-05 -1.51587e-18 -1.51232e-18)
(-3.18219e-14 6.04272e-18 1.1128e-13)
(2.01272e-08 1.02429e-07 8.24255e-26)
(-1.87402e-13 7.23511e-31 -1.29107e-17)
(0.000126337 4.83652e-06 -1.51232e-18)
(6.02148e-20 1.77854e-20 2.97206e-38)
(-2.33834e-32 -1.01332e-32 -6.20428e-35)
(1.78534e-32 -7.9956e-35 -6.20428e-35)
(-8.06382e-15 -7.40344e-14 -8.1764e-23)
(-6.95319e-29 -5.13822e-29 1.35606e-35)
(8.47209e-21 -3.48184e-20 -3.39321e-20)
(-3.14428e-14 3.37033e-15 5.77223e-14)
(1.79302e-15 1.44031e-14 1.96454e-14)
(1.8417e-08 1.0282e-07 1.60034e-14)
(0.000200226 -1.51587e-18 -1.51232e-18)
(-5.90719e-20 1.16574e-20 8.37264e-20)
(-2.29935e-07 1.71705e-25 7.41985e-14)
(1.79302e-15 1.44031e-14 2.05386e-14)
(-1.13517e-14 -4.4854e-14 1.32254e-20)
(4.05033e-09 1.82552e-08 1.04195e-19)
(2.7552e-20 -2.0938e-19 0)
(-1.2515e-21 5.85387e-20 -1.3007e-19)
(3.26203e-15 1.11928e-15 8.86875e-19)
(-6.18153e-20 8.72954e-22 0)
(-4.1968e-20 -2.21626e-19 -1.34227e-37)
(1.38791e-11 -1.25295e-12 1.33331e-07)
(-1.90179e-19 1.57397e-19 3.16656e-20)
(-3.77855e-21 5.85387e-20 -1.3007e-19)
(1.34139e-15 -1.45063e-14 2.1009e-14)
(1.38861e-11 1.1903e-12 1.33331e-07)
(-4.1968e-20 -2.21626e-19 -1.77765e-37)
(9.6652e-20 -6.62338e-21 -2.78865e-37)
(-5.74144e-20 -1.53888e-20 1.60254e-23)
(-1.03557e-19 -6.64062e-20 4.65177e-20)
(3.27474e-15 2.75538e-14 1.11676e-14)
(-2.49043e-20 -1.17258e-20 1.63528e-22)
(1.03541e-19 2.15005e-19 1.743e-37)
(1.3875e-11 1.28912e-12 1.33331e-07)
(1.33866e-29 5.67053e-30 6.45741e-39)
(2.79952e-15 -2.74476e-14 1.11676e-14)
(-2.85188e-19 6.50924e-20 -4.18632e-20)
(2.81703e-15 1.41694e-14 1.11676e-14)
(4.06098e-30 -1.06234e-29 -1.20096e-22)
(-6.24232e-14 6.04272e-18 5.77223e-14)
(-5.25764e-14 6.04272e-18 5.77223e-14)
(-3.86971e-19 1.21042e-19 4.33739e-21)
(6.01547e-20 -3.5288e-20 0)
(1.40202e-11 1.76235e-22 1.57566e-08)
(3.0225e-20 1.44064e-20 -6.45741e-39)
(1.22572e-20 -6.84124e-20 -7.82686e-20)
(5.92833e-20 -2.41294e-21 1.18219e-22)
(-3.17063e-14 -1.01974e-15 5.77223e-14)
(3.35081e-15 2.82289e-14 1.11676e-14)
(-1.55907e-19 1.49197e-19 3.16042e-22)
(3.68419e-20 -1.37602e-19 -2.785e-36)
(8.8896e-20 1.81254e-19 1.59842e-22)
(9.25521e-21 5.69432e-20 1.8171e-22)
(-6.78835e-20 -2.96625e-19 2.00581e-20)
(-1.55907e-19 1.49197e-19 2.04724e-22)
(-6.42623e-20 1.59523e-19 3.07779e-37)
(-3.32464e-20 1.63018e-19 3.07779e-37)
(-5.14642e-31 -2.09957e-30 3.83525e-35)
(-9.67545e-21 1.70147e-19 8.1764e-23)
(-3.22677e-20 1.63128e-19 3.07779e-37)
(9.02321e-20 2.06929e-19 -3.28779e-23)
(-2.51004e-21 -1.15944e-19 -9.0855e-23)
(1.965e-19 1.6913e-19 8.1764e-23)
(-1.63703e-20 -1.38931e-19 9.30126e-35)
(-5.16051e-21 1.70656e-19 8.1764e-23)
(3.8193e-21 -7.27225e-21 4.75929e-36)
(-3.79611e-17 -1.05089e-18 1.8454e-14)
(1.12785e-20 -1.39504e-19 3.09698e-35)
(-9.51493e-20 -1.46279e-19 -9.0855e-23)
(8.8896e-20 1.81254e-19 2.73847e-23)
(8.8896e-20 1.81254e-19 4.785e-23)
(-5.14642e-31 -2.09957e-30 1.4289e-35)
(2.90733e-15 -2.84044e-14 1.11676e-14)
(3.88766e-20 -3.31378e-20 4.18632e-20)
(1.34139e-15 -1.45063e-14 1.848e-16)
(-3.13254e-20 -1.37246e-19 4.10996e-35)
(8.9611e-20 -1.07592e-19 0)
(-4.89631e-20 -1.31074e-19 -6.73711e-20)
(-5.01952e-20 -1.30643e-19 -6.73711e-20)
(-1.00501e-19 -1.69728e-19 -9.0855e-23)
(-4.98116e-20 -1.30777e-19 -6.73711e-20)
(-2.41834e-22 -3.33712e-23 4.01252e-38)
(6.01547e-20 -6.2372e-20 0)
(6.01547e-20 -6.679e-20 0)
(-1.51826e-22 -2.32297e-23 4.01252e-38)
(6.18666e-20 -1.48682e-19 1.56637e-22)
(8.8896e-20 1.81254e-19 2.35924e-23)
(8.8896e-20 9.07523e-20 8.1764e-23)
(9.72853e-20 -1.08466e-19 -9.30355e-20)
(-8.84308e-21 -1.04192e-20 -9.0855e-23)
(6.01547e-20 -1.04273e-19 0)
(-2.87703e-30 -3.52456e-30 1.03319e-37)
(-4.03036e-32 -1.20396e-32 5.16593e-38)
(5.41072e-20 -2.62878e-20 -1.39462e-19)
(-5.79504e-23 -4.04522e-25 4.01252e-38)
(1.87125e-30 1.92902e-21 3.79246e-20)
(9.32497e-21 -3.51489e-22 4.19449e-20)
(9.2059e-20 4.48937e-21 0)
(-1.22448e-32 -8.87816e-33 5.16593e-38)
(1.87125e-30 8.32416e-21 3.79246e-20)
(-5.66755e-21 -1.00614e-20 -9.0855e-23)
(9.4982e-20 -1.08207e-19 -9.30355e-20)
(-3.27126e-22 -4.29813e-23 4.01252e-38)
(-3.68888e-20 -1.05838e-19 -2.54868e-23)
(1.69778e-20 -1.38862e-19 6.73711e-20)
(1.14668e-19 -3.14827e-20 -1.5112e-19)
(-1.8064e-19 -3.07181e-20 -4.18632e-20)
(-2.96706e-20 2.42912e-21 -1.63528e-22)
(-1.83084e-19 -3.09935e-20 -4.18632e-20)
(-1.60654e-19 1.63207e-19 -9.30355e-20)
(-1.83472e-19 -3.10372e-20 -4.18632e-20)
(1.75086e-19 2.26803e-19 -3.69563e-24)
(-1.6754e-20 1.82896e-19 1.25426e-19)
(5.2287e-20 -2.80589e-20 -1.29527e-22)
(1.07589e-19 3.07287e-20 9.30355e-20)
(1.07513e-19 3.14039e-20 9.30355e-20)
(1.09251e-19 1.59755e-20 9.30355e-20)
(-3.30078e-29 1.36524e-28 8.68424e-24)
(7.31419e-30 1.29102e-20 4.65177e-20)
(9.25804e-20 -1.73851e-22 -2.11307e-19)
(-7.07774e-20 1.219e-20 -1.71022e-35)
(4.64195e-20 -1.12165e-20 4.65177e-20)
(-1.27286e-19 -1.02418e-19 1.19199e-34)
(-3.22748e-20 -7.80617e-21 -2.37786e-38)
(1.04273e-19 6.01547e-20 1.63927e-19)
(3.12844e-23 -1.71182e-22 -1.17854e-22)
(7.94095e-20 6.96394e-20 -4.17814e-20)
(-1.31111e-19 -1.18576e-19 -8.37264e-20)
(-1.55745e-19 -5.99785e-20 -1.39553e-19)
(-2.57538e-21 6.72478e-20 -4.20267e-20)
(9.51865e-21 -9.87272e-22 -9.29446e-20)
(-1.09475e-19 -1.38807e-20 -1.39553e-19)
(1.9963e-30 3.28453e-19 1.39553e-19)
(-5.51958e-22 1.25981e-22 8.37264e-20)
(2.09323e-19 -4.47761e-20 -4.64269e-20)
(-1.36426e-30 -4.75714e-32 -8.94362e-20)
(7.98602e-20 -4.86612e-20 -2.43255e-34)
(-2.46564e-19 -2.80236e-19 -1.50699e-15)
(3.16943e-20 1.38888e-19 -1.15036e-19)
(-2.56277e-14 -1.12281e-13 -3.36904e-07)
(-2.56277e-14 -1.12281e-13 -4.31597e-07)
(-2.84155e-07 4.82848e-08 -2.35473e-17)
(3.62002e-09 1.58604e-08 -3.57063e-07)
(-2.17701e-20 -1.6373e-20 8.37264e-20)
(3.62002e-09 1.58604e-08 -2.86755e-07)
(3.62002e-09 1.58604e-08 -3.6422e-07)
(1.30124e-07 5.70108e-07 -2.35473e-17)
(1.22288e-07 5.3578e-07 -2.35473e-17)
(1.27506e-07 5.58641e-07 -2.35473e-17)
(3.62002e-09 1.58604e-08 -2.05249e-07)
(2.42841e-07 -6.78465e-08 -2.35473e-17)
(3.79789e-21 -1.81228e-20 8.37264e-20)
(-1.62699e-07 7.10441e-09 -1.75855e-11)
(4.0009e-08 1.75291e-07 -2.35473e-17)
(1.64904e-07 7.22494e-07 -6.23066e-11)
(1.67183e-07 -4.1373e-08 -2.35473e-17)
(-1.31378e-07 3.1071e-08 -2.35473e-17)
(2.90883e-07 -1.13604e-07 -4.27462e-19)
(-1.79366e-07 -7.85855e-07 -2.35473e-17)
(-5.39444e-08 -4.24638e-07 -7.03855e-11)
(1.04173e-07 4.5641e-07 -2.35473e-17)
(3.62002e-09 1.58604e-08 2.10411e-07)
(-2.26746e-07 1.43208e-08 -1.02906e-11)
(1.48815e-14 5.64689e-14 -3.72029e-14)
(3.1114e-12 -6.23243e-13 -1.53576e-13)
(-1.03261e-11 -3.37026e-13 -1.74828e-07)
(2.59122e-21 5.93412e-20 -2.14365e-19)
(2.59122e-21 5.93412e-20 -2.01405e-19)
(-1.16992e-19 5.93412e-20 -1.25508e-19)
(-4.9002e-12 -2.03684e-11 -1.74828e-07)
(-1.03261e-11 -1.45748e-11 -1.74828e-07)
(-1.03261e-11 -7.62747e-12 -1.74828e-07)
(-1.11668e-12 4.42004e-13 -2.31021e-08)
(1.40721e-11 -3.86074e-12 1.14351e-07)
(6.75491e-07 2.87752e-09 1.45638e-09)
(1.56499e-11 1.16176e-11 1.05334e-07)
(-1.09922e-05 3.64034e-06 1.17249e-09)
(-1.30479e-19 5.93412e-20 -1.25508e-19)
(-1.03261e-11 -1.9757e-11 -2.96201e-07)
(-1.43602e-19 5.93412e-20 -1.25508e-19)
(-0.000163959 1.52184e-05 7.17244e-15)
(-0.000163662 1.83163e-05 7.17244e-15)
(-1.11668e-12 3.04662e-12 -4.34227e-08)
(1.40721e-11 -3.86074e-12 1.11757e-08)
(-4.48031e-13 1.96845e-11 -5.19611e-08)
(-6.42823e-05 1.31955e-06 -3.43066e-07)
(1.22909e-07 -2.24606e-08 1.28034e-12)
(1.22909e-07 -2.24606e-08 1.74217e-12)
(1.21939e-07 -2.67112e-08 7.5887e-12)
(-1.95648e-08 -1.08229e-08 -4.13308e-12)
(-6.42823e-05 1.31955e-06 -2.6988e-07)
(1.21694e-07 -2.77823e-08 7.5887e-12)
(-1.13778e-11 -1.56693e-11 1.90073e-07)
(-6.42823e-05 0.000239743 1.51656e-18)
(-6.06241e-13 -2.21508e-11 1.03597e-07)
(-1.56125e-05 3.61036e-05 1.75238e-08)
(-1.59519e-05 -4.12599e-06 1.51656e-18)
(1.32362e-13 1.01373e-12 -9.6343e-14)
(0.000706395 -0.000387555 0.000133541)
(6.84118e-05 -3.09577e-05 4.444e-07)
(0.000631541 -6.26853e-05 6.67995e-07)
(-6.42823e-05 -0.00021853 1.51656e-18)
(-3.17067e-05 -2.35084e-06 1.51656e-18)
(-3.75926e-05 -1.68767e-06 1.51656e-18)
(1.00242e-07 -3.55731e-07 7.18873e-08)
(-3.88001e-05 -1.55161e-06 1.51656e-18)
(0.000431503 -0.000360364 9.41049e-06)
(9.82674e-07 6.19741e-07 5.1113e-13)
(-0.000651962 -0.000567659 6.67416e-07)
(-0.000414795 -0.000581021 -6.656e-08)
(5.37144e-08 -2.23332e-06 -5.215e-08)
(0.000231801 5.6981e-09 1.40072e-07)
(-8.94516e-05 -1.51635e-06 1.51656e-18)
(-1.97969e-06 1.06112e-05 -2.81915e-07)
(-0.000651962 -0.000567659 -8.52577e-07)
(-6.42823e-05 0.000146456 1.51656e-18)
(-0.000165035 2.39611e-07 -6.67938e-07)
(-6.42823e-05 -0.000214849 1.51656e-18)
(-7.83089e-07 4.77183e-06 3.20744e-07)
(0.000231801 5.6981e-09 -2.13063e-07)
(7.65544e-23 -2.92694e-20 5.24238e-35)
(-0.000114656 -4.35626e-06 1.51656e-18)
(-9.28407e-06 -2.92451e-06 -1.04487e-08)
(-0.000179022 -0.000145449 -3.99686e-07)
(-3.15848e-30 1.58369e-19 -7.95141e-35)
(-6.42823e-05 1.31955e-06 1.41979e-07)
(-1.89251e-33 -2.27033e-30 8.1764e-23)
(-2.7205e-05 -3.35525e-06 -3.47427e-09)
(6.46786e-23 -2.92694e-20 5.24238e-35)
(-5.16639e-06 6.36059e-06 4.52344e-07)
(-5.44749e-08 2.52338e-08 5.88986e-07)
(-0.000355005 -2.89076e-05 -0.000147629)
(3.77394e-24 -2.92694e-20 5.24238e-35)
(-1.01721e-05 -0.000204129 0.000126303)
(1.48197e-06 -8.49061e-06 1.90399e-07)
(-0.000355259 -2.62618e-05 -0.000147629)
(0.000165946 -7.58345e-05 1.05768e-06)
(-3.15848e-30 8.2208e-20 -2.18694e-35)
(0.000165946 -7.58345e-05 7.99168e-07)
(1.85722e-05 0.000152966 0.0001144)
(-3.15848e-30 8.2208e-20 -1.86341e-35)
(0.000590186 0.000225961 0.0001144)
(0.000229076 0.000581749 -2.02189e-11)
(-1.01721e-05 -0.000204129 -0.000121987)
(-4.05782e-08 -1.31905e-08 2.71105e-16)
(-6.42823e-05 1.31955e-06 3.43536e-07)
)


// ************************************************************************* //
