/*--------------------------------*- C++ -*----------------------------------*\
| =========                 |                                                 |
| \\      /  F ield         | OpenFOAM: The Open Source CFD Toolbox           |
|  \\    /   O peration     | Version:  plus.master.MPPICInterFoam            |
|   \\  /    A nd           | Web:      www.OpenFOAM.com                      |
|    \\/     M anipulation  |                                                 |
\*---------------------------------------------------------------------------*/
FoamFile
{
    version     2.0;
    format      ascii;
    class       scalarField;
    location    "4.2/lagrangian/kinematicCloud";
    object      age;
}
// * * * * * * * * * * * * * * * * * * * * * * * * * * * * * * * * * * * * * //


26
(
4.11527
4.19131
3.95325
3.77202
3.83407
3.99557
3.70602
3.70417
4.08847
3.96386
4.17853
4.13742
3.94573
3.93752
4.1885
4.15642
3.99331
4.18762
3.90042
4.03934
4.19125
3.94332
4.16459
3.86554
3.92165
4.1088
)


// ************************************************************************* //
