/*--------------------------------*- C++ -*----------------------------------*\
| =========                 |                                                 |
| \\      /  F ield         | OpenFOAM: The Open Source CFD Toolbox           |
|  \\    /   O peration     | Version:  plus.master.MPPICInterFoam            |
|   \\  /    A nd           | Web:      www.OpenFOAM.com                      |
|    \\/     M anipulation  |                                                 |
\*---------------------------------------------------------------------------*/
FoamFile
{
    version     2.0;
    format      ascii;
    class       scalarField;
    location    "4.2/lagrangian/kinematicCloud";
    object      d;
}
// * * * * * * * * * * * * * * * * * * * * * * * * * * * * * * * * * * * * * //


26
(
0.000616604
0.000575446
0.000577826
0.000531352
0.000508866
0.000569215
0.00056265
0.000576132
0.000541939
0.000574437
0.000627617
0.000548093
0.000538028
0.000509933
0.000565329
0.000567358
0.00056417
0.000535233
0.000563446
0.00061135
0.000568365
0.000574008
0.000602045
0.000600719
0.000527849
0.000545413
)


// ************************************************************************* //
