/*--------------------------------*- C++ -*----------------------------------*\
| =========                 |                                                 |
| \\      /  F ield         | OpenFOAM: The Open Source CFD Toolbox           |
|  \\    /   O peration     | Version:  plus.master.MPPICInterFoam            |
|   \\  /    A nd           | Web:      www.OpenFOAM.com                      |
|    \\/     M anipulation  |                                                 |
\*---------------------------------------------------------------------------*/
FoamFile
{
    version     2.0;
    format      ascii;
    class       Cloud<basicKinematicMPPICParcel>;
    location    "4.2/lagrangian/kinematicCloud";
    object      positions;
}
// * * * * * * * * * * * * * * * * * * * * * * * * * * * * * * * * * * * * * //

26
(
(0.000601084 -0.0192567 0.336421) 10524
(-0.0198603 -0.000848565 0.317888) 10244
(-0.0197251 -0.00193832 0.309162) 5296
(0.000452886 -0.0191218 0.317337) 10412
(0.0181162 -0.000374142 0.307795) 4511
(-0.019285 0.000232392 0.291364) 5184
(-0.000267335 0.0171806 0.309185) 6863
(0.018757 0.00185986 0.29909) 4455
(-0.00088394 -0.0188814 0.275587) 5911
(-0.00187311 -0.0190077 0.274101) 5912
(-0.0021052 0.0178522 0.282036) 6695
(-0.0180602 -0.00245528 0.272986) 5079
(-0.0186735 -0.000205139 0.272071) 5071
(0.0183833 0.00122934 0.263184) 4231
(-0.0161656 -0.000911533 0.268217) 5071
(0.0183538 0.00126561 0.251976) 4175
(-0.0158637 0.00130993 0.256439) 5014
(-0.0158367 -0.00177858 0.254739) 5014
(-0.00255641 -0.0171095 0.25203) 5735
(-0.000328612 -0.017403 0.249916) 5743
(-0.00210169 0.0181251 0.247095) 6527
(-0.0162899 0.00196408 0.249357) 4959
(-0.0162805 -0.00228767 0.228603) 4855
(-0.0155094 -0.00300227 0.227151) 4854
(-0.00161709 -0.0155179 0.225314) 5630
(0.0151517 -0.0031354 0.212893) 3942
)


// ************************************************************************* //
