/*--------------------------------*- C++ -*----------------------------------*\
| =========                 |                                                 |
| \\      /  F ield         | OpenFOAM: The Open Source CFD Toolbox           |
|  \\    /   O peration     | Version:  plus.master.MPPICInterFoam            |
|   \\  /    A nd           | Web:      www.OpenFOAM.com                      |
|    \\/     M anipulation  |                                                 |
\*---------------------------------------------------------------------------*/
FoamFile
{
    version     2.0;
    format      ascii;
    class       volScalarField;
    location    "3.8";
    object      p_rgh;
}
// * * * * * * * * * * * * * * * * * * * * * * * * * * * * * * * * * * * * * //

dimensions      [1 -1 -2 0 0 0 0];

internalField   nonuniform List<scalar> 
11821
(
5701.36
5701.36
5701.36
5701.36
5701.36
5701.36
5701.36
5701.36
5701.35
5701.35
5701.35
5701.35
5701.35
5701.34
5701.34
5701.34
5701.34
5701.34
5701.34
5701.33
5701.33
5701.33
5701.33
5701.33
5701.33
5701.33
5701.33
5701.33
5701.33
5701.33
5701.33
5701.33
5701.33
5701.33
5701.33
5701.33
5701.33
5701.33
5701.33
5701.33
5701.34
5701.34
5701.34
5701.34
5701.34
5701.34
5701.34
5701.34
5701.35
5701.35
5701.35
5701.35
5701.35
5701.35
5701.35
5701.35
5701.46
5701.46
5701.46
5701.46
5701.46
5701.46
5701.46
5701.46
5701.45
5701.45
5701.45
5701.44
5701.44
5701.44
5701.44
5701.44
5701.44
5701.44
5701.44
5701.43
5701.43
5701.43
5701.43
5701.43
5701.43
5701.43
5701.43
5701.43
5701.43
5701.43
5701.42
5701.42
5701.43
5701.43
5701.43
5701.43
5701.43
5701.43
5701.43
5701.42
5701.44
5701.44
5701.44
5701.44
5701.43
5701.43
5701.43
5701.43
5701.45
5701.45
5701.45
5701.45
5701.45
5701.45
5701.45
5701.44
5701.56
5701.56
5701.56
5701.56
5701.55
5701.55
5701.55
5701.55
5701.55
5701.55
5701.54
5701.54
5701.54
5701.54
5701.54
5701.53
5701.54
5701.54
5701.54
5701.53
5701.53
5701.53
5701.53
5701.52
5701.53
5701.53
5701.53
5701.53
5701.53
5701.52
5701.52
5701.52
5701.53
5701.53
5701.53
5701.53
5701.53
5701.53
5701.52
5701.52
5701.54
5701.54
5701.54
5701.53
5701.53
5701.53
5701.53
5701.53
5701.55
5701.55
5701.55
5701.54
5701.54
5701.54
5701.54
5701.54
5701.66
5701.66
5701.65
5701.65
5701.65
5701.65
5701.65
5701.64
5701.64
5701.64
5701.64
5701.64
5701.64
5701.64
5701.63
5701.63
5701.64
5701.64
5701.63
5701.63
5701.63
5701.63
5701.62
5701.62
5701.63
5701.63
5701.63
5701.63
5701.63
5701.62
5701.62
5701.62
5701.63
5701.63
5701.63
5701.63
5701.63
5701.62
5701.62
5701.62
5701.64
5701.63
5701.63
5701.63
5701.63
5701.63
5701.62
5701.62
5701.64
5701.64
5701.64
5701.64
5701.64
5701.64
5701.63
5701.63
5701.75
5701.75
5701.75
5701.75
5701.75
5701.75
5701.75
5701.74
5701.74
5701.74
5701.74
5701.74
5701.74
5701.73
5701.73
5701.73
5701.74
5701.74
5701.73
5701.73
5701.73
5701.73
5701.72
5701.72
5701.73
5701.73
5701.73
5701.73
5701.72
5701.72
5701.72
5701.72
5701.73
5701.73
5701.73
5701.73
5701.72
5701.72
5701.72
5701.72
5701.73
5701.73
5701.73
5701.73
5701.73
5701.72
5701.72
5701.72
5701.74
5701.74
5701.74
5701.74
5701.73
5701.73
5701.73
5701.73
5701.85
5701.85
5701.85
5701.85
5701.85
5701.85
5701.85
5701.85
5701.84
5701.84
5701.84
5701.84
5701.84
5701.84
5701.83
5701.83
5701.83
5701.83
5701.83
5701.83
5701.83
5701.83
5701.83
5701.82
5701.83
5701.83
5701.83
5701.83
5701.83
5701.82
5701.82
5701.82
5701.83
5701.83
5701.83
5701.83
5701.82
5701.82
5701.82
5701.82
5701.83
5701.83
5701.83
5701.83
5701.83
5701.83
5701.82
5701.82
5701.84
5701.84
5701.83
5701.83
5701.83
5701.83
5701.83
5701.83
5701.95
5701.95
5701.95
5701.95
5701.95
5701.95
5701.95
5701.95
5701.94
5701.94
5701.94
5701.94
5701.94
5701.94
5701.94
5701.94
5701.94
5701.94
5701.93
5701.93
5701.93
5701.93
5701.93
5701.93
5701.93
5701.93
5701.93
5701.93
5701.93
5701.93
5701.93
5701.93
5701.93
5701.93
5701.93
5701.93
5701.93
5701.93
5701.93
5701.93
5701.93
5701.93
5701.93
5701.93
5701.93
5701.93
5701.93
5701.93
5701.94
5701.94
5701.94
5701.94
5701.94
5701.94
5701.94
5701.94
5702.06
5702.06
5702.06
5702.06
5702.06
5702.06
5702.06
5702.06
5702.05
5702.05
5702.05
5702.05
5702.05
5702.05
5702.05
5702.05
5702.04
5702.04
5702.04
5702.04
5702.04
5702.04
5702.04
5702.04
5702.04
5702.04
5702.04
5702.04
5702.04
5702.04
5702.04
5702.04
5702.04
5702.03
5702.03
5702.04
5702.04
5702.04
5702.04
5702.04
5702.04
5702.04
5702.04
5702.04
5702.04
5702.04
5702.04
5702.04
5702.04
5702.04
5702.04
5702.04
5702.04
5702.04
5702.04
5702.04
5702.17
5702.16
5702.17
5702.17
5702.17
5702.17
5702.17
5702.17
5702.16
5702.16
5702.16
5702.16
5702.16
5702.16
5702.16
5702.16
5702.15
5702.15
5702.15
5702.15
5702.15
5702.15
5702.15
5702.15
5702.15
5702.15
5702.15
5702.15
5702.15
5702.15
5702.15
5702.15
5702.14
5702.14
5702.15
5702.15
5702.15
5702.15
5702.15
5702.15
5702.15
5702.15
5702.15
5702.15
5702.15
5702.15
5702.15
5702.15
5702.15
5702.15
5702.15
5702.15
5702.15
5702.15
5702.15
5702.15
5702.28
5702.28
5702.28
5702.28
5702.28
5702.28
5702.28
5702.28
5702.27
5702.27
5702.27
5702.27
5702.27
5702.27
5702.27
5702.27
5702.26
5702.26
5702.26
5702.26
5702.26
5702.26
5702.26
5702.26
5702.26
5702.26
5702.26
5702.26
5702.26
5702.26
5702.26
5702.26
5702.26
5702.26
5702.26
5702.26
5702.26
5702.26
5702.26
5702.26
5702.26
5702.26
5702.26
5702.26
5702.26
5702.26
5702.26
5702.26
5702.26
5702.26
5702.26
5702.26
5702.26
5702.26
5702.26
5702.26
5702.39
5702.39
5702.39
5702.39
5702.39
5702.39
5702.39
5702.39
5702.38
5702.38
5702.38
5702.38
5702.38
5702.38
5702.38
5702.38
5702.38
5702.38
5702.38
5702.38
5702.38
5702.38
5702.38
5702.38
5702.38
5702.37
5702.37
5702.37
5702.37
5702.37
5702.37
5702.37
5702.37
5702.37
5702.37
5702.37
5702.37
5702.37
5702.37
5702.37
5702.37
5702.37
5702.37
5702.37
5702.37
5702.37
5702.37
5702.37
5702.38
5702.38
5702.38
5702.38
5702.38
5702.38
5702.38
5702.38
5702.51
5702.51
5702.51
5702.51
5702.51
5702.51
5702.51
5702.51
5702.5
5702.5
5702.5
5702.5
5702.5
5702.5
5702.5
5702.5
5702.5
5702.5
5702.5
5702.5
5702.49
5702.49
5702.49
5702.49
5702.49
5702.49
5702.49
5702.49
5702.49
5702.49
5702.49
5702.49
5702.49
5702.49
5702.49
5702.49
5702.49
5702.49
5702.49
5702.49
5702.49
5702.49
5702.49
5702.49
5702.49
5702.49
5702.49
5702.49
5702.49
5702.49
5702.49
5702.49
5702.49
5702.49
5702.49
5702.49
5702.63
5702.63
5702.63
5702.63
5702.63
5702.63
5702.63
5702.63
5702.62
5702.62
5702.62
5702.62
5702.62
5702.62
5702.62
5702.62
5702.62
5702.62
5702.62
5702.61
5702.61
5702.61
5702.61
5702.61
5702.61
5702.61
5702.61
5702.61
5702.61
5702.61
5702.61
5702.61
5702.61
5702.61
5702.61
5702.61
5702.61
5702.61
5702.61
5702.61
5702.61
5702.61
5702.61
5702.61
5702.61
5702.61
5702.61
5702.61
5702.61
5702.61
5702.61
5702.61
5702.61
5702.61
5702.61
5702.61
5702.75
5702.75
5702.75
5702.75
5702.75
5702.75
5702.75
5702.75
5702.74
5702.74
5702.74
5702.74
5702.74
5702.74
5702.74
5702.74
5702.74
5702.74
5702.74
5702.74
5702.74
5702.74
5702.73
5702.73
5702.73
5702.73
5702.73
5702.73
5702.73
5702.73
5702.73
5702.73
5702.73
5702.73
5702.73
5702.73
5702.73
5702.73
5702.73
5702.73
5702.73
5702.73
5702.73
5702.73
5702.73
5702.73
5702.73
5702.73
5702.73
5702.73
5702.73
5702.73
5702.73
5702.73
5702.73
5702.73
5701.45
5701.45
5701.45
5701.45
5701.46
5701.46
5701.46
5701.45
5701.46
5701.46
5701.47
5701.47
5701.48
5701.49
5701.49
5701.5
5701.47
5701.48
5701.49
5701.51
5701.56
5701.48
5701.49
5701.42
5701.54
5701.54
5701.55
5701.55
5701.55
5701.55
5701.55
5701.55
5701.55
5701.55
5701.55
5701.55
5701.55
5701.56
5701.56
5701.56
5701.55
5701.55
5701.55
5701.56
5701.58
5701.6
5701.59
5701.59
5701.57
5701.57
5701.58
5701.59
5701.59
5701.59
5701.6
5701.6
5701.55
5701.55
5701.55
5701.56
5701.56
5701.56
5701.57
5701.57
5701.56
5701.56
5701.56
5701.56
5701.57
5701.57
5701.57
5701.57
5701.56
5701.56
5701.56
5701.56
5701.56
5701.56
5701.56
5701.56
5701.64
5701.64
5701.64
5701.64
5701.64
5701.64
5701.63
5701.63
5701.64
5701.64
5701.64
5701.64
5701.65
5701.65
5701.65
5701.65
5701.65
5701.65
5701.64
5701.64
5701.64
5701.64
5701.65
5701.64
5701.65
5701.65
5701.66
5701.66
5701.66
5701.67
5701.67
5701.68
5701.65
5701.65
5701.65
5701.65
5701.65
5701.65
5701.65
5701.65
5701.65
5701.65
5701.65
5701.65
5701.66
5701.66
5701.66
5701.66
5701.65
5701.65
5701.65
5701.65
5701.65
5701.65
5701.65
5701.65
5701.73
5701.73
5701.73
5701.73
5701.73
5701.73
5701.73
5701.73
5701.73
5701.73
5701.73
5701.73
5701.74
5701.74
5701.74
5701.74
5701.74
5701.74
5701.74
5701.74
5701.74
5701.74
5701.74
5701.74
5701.74
5701.74
5701.74
5701.75
5701.75
5701.75
5701.75
5701.76
5701.74
5701.74
5701.74
5701.74
5701.74
5701.74
5701.74
5701.74
5701.74
5701.74
5701.74
5701.74
5701.74
5701.74
5701.75
5701.75
5701.74
5701.74
5701.74
5701.74
5701.74
5701.74
5701.74
5701.74
5701.82
5701.82
5701.82
5701.82
5701.82
5701.82
5701.82
5701.82
5701.82
5701.82
5701.82
5701.83
5701.83
5701.83
5701.83
5701.83
5701.83
5701.83
5701.83
5701.83
5701.83
5701.83
5701.83
5701.83
5701.83
5701.83
5701.83
5701.84
5701.84
5701.84
5701.84
5701.85
5701.83
5701.83
5701.83
5701.83
5701.83
5701.83
5701.84
5701.84
5701.83
5701.83
5701.83
5701.83
5701.83
5701.84
5701.84
5701.84
5701.83
5701.83
5701.83
5701.83
5701.83
5701.83
5701.83
5701.84
5701.91
5701.91
5701.91
5701.91
5701.91
5701.91
5701.92
5701.92
5701.92
5701.92
5701.92
5701.92
5701.92
5701.92
5701.93
5701.93
5701.92
5701.92
5701.92
5701.92
5701.93
5701.93
5701.93
5701.93
5701.92
5701.92
5701.93
5701.93
5701.93
5701.94
5701.94
5701.94
5701.92
5701.92
5701.92
5701.93
5701.93
5701.93
5701.94
5701.94
5701.92
5701.92
5701.92
5701.93
5701.93
5701.93
5701.94
5701.94
5701.92
5701.92
5701.92
5701.93
5701.93
5701.93
5701.93
5701.94
5702.01
5702.01
5702.01
5702.01
5702.01
5702.01
5702.02
5702.02
5702.01
5702.01
5702.01
5702.02
5702.02
5702.02
5702.03
5702.03
5702.02
5702.02
5702.02
5702.02
5702.03
5702.03
5702.03
5702.04
5702.02
5702.02
5702.02
5702.03
5702.03
5702.04
5702.04
5702.05
5702.02
5702.02
5702.02
5702.03
5702.03
5702.04
5702.04
5702.04
5702.02
5702.02
5702.03
5702.03
5702.03
5702.04
5702.04
5702.04
5702.02
5702.02
5702.02
5702.03
5702.03
5702.03
5702.04
5702.04
5702.11
5702.11
5702.11
5702.11
5702.12
5702.12
5702.12
5702.12
5702.11
5702.11
5702.12
5702.12
5702.12
5702.13
5702.13
5702.13
5702.12
5702.12
5702.12
5702.13
5702.13
5702.13
5702.14
5702.14
5702.12
5702.13
5702.13
5702.13
5702.14
5702.14
5702.15
5702.15
5702.13
5702.13
5702.13
5702.13
5702.14
5702.14
5702.15
5702.15
5702.13
5702.13
5702.13
5702.13
5702.14
5702.14
5702.15
5702.15
5702.13
5702.13
5702.13
5702.13
5702.14
5702.14
5702.14
5702.15
5702.22
5702.22
5702.22
5702.22
5702.22
5702.23
5702.23
5702.23
5702.22
5702.22
5702.23
5702.23
5702.23
5702.24
5702.24
5702.24
5702.23
5702.23
5702.23
5702.24
5702.24
5702.24
5702.25
5702.25
5702.24
5702.24
5702.24
5702.24
5702.25
5702.25
5702.25
5702.25
5702.24
5702.24
5702.24
5702.24
5702.25
5702.25
5702.25
5702.25
5702.24
5702.24
5702.24
5702.24
5702.25
5702.25
5702.25
5702.25
5702.24
5702.24
5702.24
5702.24
5702.24
5702.25
5702.25
5702.25
5702.33
5702.33
5702.33
5702.33
5702.33
5702.34
5702.34
5702.34
5702.34
5702.34
5702.34
5702.34
5702.34
5702.35
5702.35
5702.35
5702.34
5702.35
5702.35
5702.35
5702.35
5702.35
5702.35
5702.36
5702.35
5702.35
5702.35
5702.35
5702.36
5702.36
5702.36
5702.36
5702.35
5702.35
5702.36
5702.36
5702.36
5702.36
5702.36
5702.36
5702.35
5702.35
5702.36
5702.36
5702.36
5702.36
5702.36
5702.36
5702.35
5702.35
5702.35
5702.35
5702.35
5702.35
5702.36
5702.36
5702.44
5702.44
5702.44
5702.45
5702.45
5702.45
5702.45
5702.45
5702.45
5702.45
5702.45
5702.45
5702.46
5702.46
5702.46
5702.46
5702.46
5702.46
5702.46
5702.46
5702.46
5702.46
5702.46
5702.47
5702.47
5702.47
5702.47
5702.47
5702.47
5702.47
5702.47
5702.47
5702.47
5702.47
5702.47
5702.47
5702.47
5702.47
5702.47
5702.47
5702.47
5702.47
5702.47
5702.47
5702.47
5702.47
5702.47
5702.47
5702.47
5702.47
5702.47
5702.47
5702.47
5702.47
5702.47
5702.46
5702.56
5702.56
5702.56
5702.56
5702.56
5702.56
5702.56
5702.57
5702.57
5702.57
5702.57
5702.57
5702.57
5702.57
5702.57
5702.57
5702.58
5702.58
5702.58
5702.58
5702.58
5702.58
5702.58
5702.58
5702.58
5702.58
5702.58
5702.58
5702.58
5702.58
5702.58
5702.58
5702.58
5702.59
5702.59
5702.59
5702.59
5702.59
5702.58
5702.58
5702.59
5702.59
5702.59
5702.58
5702.58
5702.58
5702.58
5702.58
5702.58
5702.58
5702.58
5702.58
5702.58
5702.58
5702.58
5702.58
5702.68
5702.68
5702.68
5702.68
5702.68
5702.68
5702.68
5702.68
5702.69
5702.69
5702.69
5702.69
5702.69
5702.69
5702.69
5702.69
5702.7
5702.7
5702.7
5702.7
5702.7
5702.7
5702.7
5702.7
5702.7
5702.7
5702.7
5702.7
5702.7
5702.7
5702.7
5702.7
5702.7
5702.7
5702.7
5702.7
5702.7
5702.7
5702.7
5702.7
5702.7
5702.7
5702.7
5702.7
5702.7
5702.7
5702.7
5702.7
5702.7
5702.7
5702.7
5702.7
5702.7
5702.7
5702.7
5702.7
5702.81
5702.81
5702.81
5702.81
5702.81
5702.81
5702.81
5702.81
5702.81
5702.81
5702.81
5702.82
5702.82
5702.82
5702.82
5702.82
5702.82
5702.82
5702.82
5702.82
5702.82
5702.82
5702.82
5702.82
5702.82
5702.82
5702.82
5702.82
5702.83
5702.83
5702.83
5702.83
5702.82
5702.83
5702.83
5702.83
5702.83
5702.83
5702.83
5702.83
5702.82
5702.83
5702.83
5702.83
5702.83
5702.83
5702.83
5702.83
5702.82
5702.82
5702.82
5702.82
5702.82
5702.82
5702.82
5702.82
5701.45
5701.46
5701.46
5701.43
5701.43
5701.43
5701.43
5701.43
5701.41
5701.41
5701.41
5701.42
5701.42
5701.42
5701.42
5701.42
5701.38
5701.38
5701.38
5701.38
5701.38
5701.38
5701.38
5701.38
5701.56
5701.56
5701.56
5701.56
5701.56
5701.56
5701.56
5701.56
5701.56
5701.56
5701.56
5701.56
5701.56
5701.56
5701.56
5701.56
5701.54
5701.54
5701.54
5701.54
5701.54
5701.54
5701.54
5701.54
5701.54
5701.54
5701.54
5701.55
5701.55
5701.56
5701.56
5701.56
5701.52
5701.52
5701.52
5701.52
5701.52
5701.52
5701.52
5701.52
5701.5
5701.5
5701.5
5701.5
5701.5
5701.51
5701.51
5701.51
5701.48
5701.48
5701.48
5701.48
5701.48
5701.48
5701.47
5701.47
5701.64
5701.64
5701.64
5701.64
5701.64
5701.64
5701.64
5701.64
5701.64
5701.64
5701.64
5701.64
5701.64
5701.65
5701.65
5701.65
5701.63
5701.63
5701.63
5701.63
5701.63
5701.63
5701.63
5701.63
5701.63
5701.63
5701.63
5701.63
5701.63
5701.64
5701.64
5701.64
5701.61
5701.61
5701.61
5701.61
5701.61
5701.6
5701.6
5701.6
5701.59
5701.59
5701.59
5701.59
5701.59
5701.59
5701.59
5701.59
5701.57
5701.57
5701.57
5701.57
5701.57
5701.57
5701.57
5701.56
5701.73
5701.73
5701.73
5701.73
5701.73
5701.73
5701.74
5701.74
5701.73
5701.73
5701.73
5701.73
5701.73
5701.73
5701.73
5701.74
5701.72
5701.72
5701.72
5701.72
5701.72
5701.72
5701.72
5701.72
5701.71
5701.71
5701.71
5701.72
5701.72
5701.72
5701.72
5701.72
5701.7
5701.7
5701.7
5701.7
5701.7
5701.7
5701.69
5701.69
5701.68
5701.68
5701.68
5701.68
5701.68
5701.68
5701.68
5701.68
5701.67
5701.67
5701.67
5701.67
5701.66
5701.66
5701.66
5701.66
5701.82
5701.82
5701.82
5701.82
5701.83
5701.83
5701.83
5701.83
5701.82
5701.82
5701.82
5701.82
5701.82
5701.83
5701.83
5701.83
5701.81
5701.81
5701.81
5701.81
5701.81
5701.81
5701.81
5701.82
5701.8
5701.8
5701.8
5701.81
5701.81
5701.81
5701.81
5701.82
5701.79
5701.79
5701.79
5701.79
5701.79
5701.79
5701.79
5701.79
5701.78
5701.78
5701.78
5701.78
5701.78
5701.78
5701.78
5701.78
5701.76
5701.76
5701.76
5701.76
5701.76
5701.76
5701.76
5701.76
5701.92
5701.92
5701.92
5701.92
5701.92
5701.93
5701.93
5701.93
5701.91
5701.91
5701.92
5701.92
5701.92
5701.92
5701.93
5701.93
5701.9
5701.9
5701.91
5701.91
5701.91
5701.91
5701.91
5701.92
5701.9
5701.9
5701.9
5701.9
5701.9
5701.91
5701.91
5701.91
5701.89
5701.89
5701.89
5701.89
5701.89
5701.89
5701.89
5701.89
5701.87
5701.87
5701.88
5701.88
5701.88
5701.88
5701.88
5701.88
5701.86
5701.86
5701.86
5701.86
5701.86
5701.86
5701.86
5701.86
5702.02
5702.02
5702.02
5702.02
5702.03
5702.03
5702.03
5702.04
5702.01
5702.01
5702.02
5702.02
5702.02
5702.03
5702.03
5702.03
5702.01
5702.01
5702.01
5702.01
5702.01
5702.01
5702.02
5702.02
5702
5702
5702
5702
5702
5702.01
5702.01
5702.01
5701.99
5701.99
5701.99
5701.99
5701.99
5701.99
5701.99
5701.99
5701.97
5701.97
5701.98
5701.98
5701.98
5701.98
5701.98
5701.98
5701.96
5701.96
5701.96
5701.96
5701.96
5701.96
5701.96
5701.96
5702.12
5702.12
5702.13
5702.13
5702.13
5702.14
5702.14
5702.14
5702.12
5702.12
5702.12
5702.12
5702.13
5702.13
5702.13
5702.14
5702.11
5702.11
5702.11
5702.11
5702.12
5702.12
5702.12
5702.12
5702.1
5702.1
5702.1
5702.11
5702.11
5702.11
5702.11
5702.12
5702.09
5702.09
5702.09
5702.09
5702.09
5702.1
5702.1
5702.1
5702.08
5702.08
5702.08
5702.08
5702.08
5702.08
5702.09
5702.09
5702.07
5702.07
5702.07
5702.07
5702.07
5702.07
5702.07
5702.07
5702.23
5702.23
5702.24
5702.24
5702.24
5702.24
5702.24
5702.25
5702.23
5702.23
5702.23
5702.23
5702.23
5702.24
5702.24
5702.24
5702.22
5702.22
5702.22
5702.22
5702.22
5702.23
5702.23
5702.23
5702.21
5702.21
5702.21
5702.21
5702.22
5702.22
5702.22
5702.22
5702.2
5702.2
5702.2
5702.2
5702.2
5702.2
5702.21
5702.21
5702.19
5702.19
5702.19
5702.19
5702.19
5702.19
5702.19
5702.19
5702.18
5702.18
5702.18
5702.18
5702.18
5702.18
5702.18
5702.18
5702.35
5702.35
5702.35
5702.35
5702.35
5702.35
5702.35
5702.35
5702.34
5702.34
5702.34
5702.34
5702.34
5702.34
5702.34
5702.35
5702.33
5702.33
5702.33
5702.33
5702.33
5702.34
5702.34
5702.34
5702.32
5702.32
5702.32
5702.32
5702.33
5702.33
5702.33
5702.33
5702.31
5702.31
5702.31
5702.31
5702.31
5702.31
5702.32
5702.32
5702.3
5702.3
5702.3
5702.3
5702.3
5702.3
5702.3
5702.3
5702.29
5702.29
5702.29
5702.29
5702.29
5702.29
5702.29
5702.29
5702.46
5702.46
5702.46
5702.46
5702.46
5702.46
5702.46
5702.46
5702.45
5702.45
5702.45
5702.45
5702.45
5702.45
5702.45
5702.45
5702.45
5702.45
5702.45
5702.45
5702.45
5702.45
5702.45
5702.45
5702.44
5702.44
5702.44
5702.44
5702.44
5702.44
5702.44
5702.44
5702.43
5702.43
5702.43
5702.43
5702.43
5702.43
5702.43
5702.43
5702.42
5702.42
5702.42
5702.42
5702.42
5702.42
5702.42
5702.42
5702.4
5702.4
5702.4
5702.4
5702.4
5702.41
5702.41
5702.41
5702.58
5702.58
5702.58
5702.58
5702.58
5702.58
5702.58
5702.57
5702.57
5702.57
5702.57
5702.57
5702.57
5702.57
5702.57
5702.57
5702.56
5702.56
5702.56
5702.56
5702.56
5702.56
5702.56
5702.56
5702.55
5702.56
5702.56
5702.56
5702.56
5702.56
5702.56
5702.56
5702.54
5702.54
5702.54
5702.54
5702.54
5702.55
5702.55
5702.55
5702.53
5702.53
5702.53
5702.53
5702.53
5702.53
5702.53
5702.54
5702.52
5702.52
5702.52
5702.52
5702.52
5702.52
5702.52
5702.52
5702.7
5702.7
5702.7
5702.7
5702.7
5702.7
5702.7
5702.7
5702.69
5702.69
5702.69
5702.69
5702.69
5702.69
5702.69
5702.69
5702.68
5702.68
5702.68
5702.68
5702.68
5702.68
5702.68
5702.68
5702.68
5702.68
5702.68
5702.68
5702.68
5702.68
5702.68
5702.68
5702.66
5702.66
5702.66
5702.66
5702.66
5702.67
5702.67
5702.67
5702.65
5702.65
5702.65
5702.65
5702.65
5702.65
5702.65
5702.65
5702.64
5702.64
5702.64
5702.64
5702.64
5702.64
5702.64
5702.64
5702.82
5702.82
5702.82
5702.82
5702.82
5702.82
5702.82
5702.82
5702.81
5702.82
5702.82
5702.82
5702.81
5702.81
5702.81
5702.81
5702.81
5702.81
5702.81
5702.81
5702.81
5702.81
5702.81
5702.81
5702.8
5702.8
5702.8
5702.8
5702.8
5702.8
5702.8
5702.8
5702.79
5702.79
5702.79
5702.79
5702.79
5702.79
5702.79
5702.79
5702.77
5702.77
5702.77
5702.78
5702.78
5702.78
5702.78
5702.78
5702.76
5702.76
5702.76
5702.76
5702.76
5702.76
5702.76
5702.76
5701.36
5701.37
5701.37
5701.37
5701.37
5701.37
5701.37
5701.37
5701.39
5701.39
5701.39
5701.39
5701.4
5701.4
5701.4
5701.41
5701.4
5701.4
5701.4
5701.4
5701.41
5701.41
5701.41
5701.41
5701.43
5701.43
5701.43
5701.44
5701.45
5701.46
5701.46
5701.47
5701.43
5701.43
5701.43
5701.43
5701.43
5701.43
5701.44
5701.44
5701.44
5701.44
5701.45
5701.45
5701.45
5701.45
5701.45
5701.46
5701.44
5701.45
5701.45
5701.45
5701.45
5701.45
5701.45
5701.46
5701.46
5701.46
5701.46
5701.46
5701.46
5701.46
5701.46
5701.46
5701.48
5701.48
5701.48
5701.48
5701.48
5701.49
5701.49
5701.49
5701.49
5701.49
5701.49
5701.5
5701.5
5701.5
5701.5
5701.5
5701.51
5701.52
5701.52
5701.52
5701.53
5701.53
5701.54
5701.54
5701.52
5701.52
5701.52
5701.52
5701.52
5701.52
5701.52
5701.52
5701.53
5701.53
5701.54
5701.54
5701.54
5701.54
5701.54
5701.55
5701.54
5701.54
5701.54
5701.54
5701.54
5701.54
5701.54
5701.54
5701.56
5701.56
5701.56
5701.56
5701.55
5701.55
5701.55
5701.55
5701.57
5701.57
5701.57
5701.57
5701.57
5701.57
5701.57
5701.57
5701.59
5701.59
5701.59
5701.59
5701.59
5701.59
5701.58
5701.58
5701.6
5701.6
5701.61
5701.61
5701.61
5701.61
5701.62
5701.62
5701.61
5701.61
5701.61
5701.61
5701.61
5701.61
5701.61
5701.61
5701.62
5701.62
5701.62
5701.62
5701.63
5701.63
5701.63
5701.63
5701.63
5701.63
5701.63
5701.63
5701.63
5701.63
5701.63
5701.63
5701.65
5701.65
5701.65
5701.65
5701.65
5701.65
5701.64
5701.64
5701.67
5701.67
5701.67
5701.67
5701.66
5701.66
5701.66
5701.66
5701.68
5701.68
5701.68
5701.68
5701.68
5701.68
5701.68
5701.67
5701.69
5701.69
5701.69
5701.7
5701.7
5701.7
5701.7
5701.7
5701.7
5701.7
5701.7
5701.7
5701.7
5701.7
5701.7
5701.7
5701.71
5701.71
5701.71
5701.71
5701.71
5701.71
5701.71
5701.71
5701.72
5701.72
5701.72
5701.72
5701.72
5701.72
5701.72
5701.72
5701.75
5701.75
5701.75
5701.74
5701.74
5701.74
5701.74
5701.74
5701.76
5701.76
5701.76
5701.76
5701.76
5701.76
5701.76
5701.76
5701.77
5701.77
5701.77
5701.77
5701.77
5701.77
5701.77
5701.77
5701.78
5701.78
5701.78
5701.78
5701.79
5701.79
5701.79
5701.79
5701.79
5701.79
5701.79
5701.79
5701.79
5701.79
5701.79
5701.79
5701.8
5701.8
5701.8
5701.8
5701.8
5701.8
5701.8
5701.8
5701.81
5701.81
5701.81
5701.81
5701.81
5701.81
5701.81
5701.81
5701.84
5701.84
5701.84
5701.84
5701.84
5701.84
5701.84
5701.84
5701.85
5701.85
5701.85
5701.85
5701.85
5701.85
5701.86
5701.86
5701.86
5701.86
5701.86
5701.86
5701.86
5701.86
5701.86
5701.86
5701.88
5701.88
5701.88
5701.88
5701.88
5701.88
5701.88
5701.88
5701.88
5701.88
5701.88
5701.88
5701.88
5701.88
5701.89
5701.89
5701.89
5701.89
5701.89
5701.9
5701.9
5701.9
5701.9
5701.9
5701.9
5701.9
5701.9
5701.9
5701.9
5701.9
5701.91
5701.91
5701.94
5701.94
5701.94
5701.94
5701.94
5701.94
5701.94
5701.94
5701.95
5701.95
5701.95
5701.95
5701.95
5701.96
5701.96
5701.96
5701.96
5701.96
5701.96
5701.96
5701.96
5701.96
5701.97
5701.97
5701.97
5701.97
5701.97
5701.97
5701.98
5701.98
5701.98
5701.98
5701.98
5701.98
5701.98
5701.98
5701.98
5701.98
5701.99
5701.99
5701.99
5701.99
5701.99
5701.99
5701.99
5702
5702
5702
5702
5702
5702
5702
5702
5702
5702.01
5702.01
5702.05
5702.05
5702.05
5702.05
5702.05
5702.05
5702.05
5702.05
5702.06
5702.06
5702.06
5702.06
5702.06
5702.06
5702.06
5702.06
5702.06
5702.06
5702.07
5702.07
5702.07
5702.07
5702.07
5702.07
5702.07
5702.07
5702.07
5702.08
5702.08
5702.08
5702.08
5702.08
5702.08
5702.08
5702.08
5702.08
5702.09
5702.09
5702.09
5702.09
5702.09
5702.09
5702.09
5702.09
5702.1
5702.1
5702.1
5702.1
5702.1
5702.1
5702.1
5702.1
5702.11
5702.11
5702.11
5702.11
5702.16
5702.16
5702.16
5702.16
5702.16
5702.16
5702.16
5702.16
5702.16
5702.16
5702.17
5702.17
5702.17
5702.17
5702.17
5702.17
5702.17
5702.17
5702.17
5702.17
5702.18
5702.18
5702.18
5702.18
5702.18
5702.18
5702.18
5702.18
5702.19
5702.19
5702.19
5702.19
5702.19
5702.19
5702.19
5702.19
5702.19
5702.2
5702.2
5702.2
5702.2
5702.2
5702.2
5702.2
5702.2
5702.21
5702.21
5702.21
5702.21
5702.21
5702.21
5702.21
5702.21
5702.22
5702.22
5702.22
5702.27
5702.27
5702.27
5702.27
5702.27
5702.27
5702.27
5702.27
5702.28
5702.28
5702.28
5702.28
5702.28
5702.28
5702.28
5702.28
5702.28
5702.28
5702.28
5702.29
5702.29
5702.29
5702.29
5702.29
5702.29
5702.29
5702.29
5702.3
5702.3
5702.3
5702.3
5702.3
5702.3
5702.3
5702.3
5702.3
5702.31
5702.31
5702.31
5702.31
5702.31
5702.31
5702.31
5702.31
5702.32
5702.32
5702.32
5702.32
5702.32
5702.32
5702.32
5702.32
5702.33
5702.33
5702.33
5702.33
5702.38
5702.38
5702.38
5702.38
5702.38
5702.38
5702.38
5702.38
5702.39
5702.39
5702.39
5702.39
5702.39
5702.39
5702.39
5702.39
5702.4
5702.4
5702.4
5702.4
5702.4
5702.4
5702.4
5702.4
5702.41
5702.41
5702.41
5702.41
5702.41
5702.41
5702.41
5702.41
5702.42
5702.42
5702.42
5702.42
5702.42
5702.42
5702.42
5702.42
5702.43
5702.43
5702.43
5702.43
5702.43
5702.43
5702.43
5702.43
5702.43
5702.43
5702.44
5702.44
5702.44
5702.44
5702.44
5702.44
5702.5
5702.5
5702.5
5702.5
5702.5
5702.5
5702.5
5702.5
5702.5
5702.5
5702.5
5702.5
5702.51
5702.51
5702.51
5702.51
5702.51
5702.51
5702.51
5702.51
5702.51
5702.51
5702.51
5702.51
5702.52
5702.52
5702.52
5702.52
5702.52
5702.52
5702.52
5702.52
5702.53
5702.53
5702.53
5702.53
5702.53
5702.53
5702.53
5702.53
5702.54
5702.54
5702.54
5702.54
5702.54
5702.54
5702.54
5702.54
5702.55
5702.55
5702.55
5702.55
5702.55
5702.55
5702.55
5702.56
5702.62
5702.62
5702.62
5702.62
5702.62
5702.62
5702.62
5702.62
5702.62
5702.62
5702.62
5702.62
5702.62
5702.62
5702.62
5702.62
5702.63
5702.63
5702.63
5702.63
5702.63
5702.63
5702.63
5702.63
5702.64
5702.64
5702.64
5702.64
5702.64
5702.64
5702.64
5702.64
5702.65
5702.65
5702.65
5702.65
5702.65
5702.65
5702.65
5702.65
5702.66
5702.66
5702.66
5702.66
5702.66
5702.66
5702.66
5702.66
5702.67
5702.67
5702.67
5702.67
5702.67
5702.67
5702.67
5702.67
5702.74
5702.74
5702.74
5702.74
5702.74
5702.74
5702.74
5702.74
5702.75
5702.75
5702.75
5702.74
5702.74
5702.74
5702.74
5702.74
5702.75
5702.75
5702.75
5702.75
5702.75
5702.75
5702.75
5702.75
5702.76
5702.76
5702.76
5702.76
5702.76
5702.76
5702.76
5702.76
5702.77
5702.77
5702.77
5702.77
5702.77
5702.77
5702.77
5702.77
5702.78
5702.78
5702.78
5702.78
5702.78
5702.78
5702.78
5702.78
5702.8
5702.8
5702.8
5702.8
5702.8
5702.8
5702.79
5702.79
5640.14
5641.87
5643.09
5643.14
5641.98
5640.2
5638.26
5642.83
5645.41
5647.28
5647.16
5645.6
5643.08
5640.25
5645.54
5629.69
5553.86
5455.12
5622.78
5646.15
5642.29
5647.66
5428.08
4383.49
4244.9
5464.04
5644.46
5643.87
5646.82
5537.51
4863.02
4847.29
5561.3
5648.33
5643.48
5644.77
5635.63
5550.77
5521.6
5621.79
5645.67
5641.83
5642.02
5644.69
5646.99
5647.23
5645.33
5642.58
5639.76
5625.99
5625.3
5625.03
5625.03
5625.22
5625.61
5626.02
5625.11
5623.58
5622.78
5622.85
5623.59
5624.68
5625.48
5623.87
5548.16
5415.79
5353.78
5535.36
5621.61
5625.01
5622.95
5259.85
4306.45
4182.1
5280.6
5565.71
5624.85
5622.91
5373.98
4706.96
4718.03
5371.38
5608.26
5624.76
5623.48
5577.38
5347.47
5335.38
5518.74
5623.1
5624.74
5624.47
5623.21
5622.4
5622.52
5623.32
5624.45
5625.18
5612.96
5609.1
5606.21
5605.82
5607.72
5610.98
5614.43
5607.88
5601
5578.54
5591.07
5598.36
5604.68
5610.44
5601.86
5388.81
4936.79
4986.87
5296.95
5577.37
5606.11
5580.69
4805.14
4093.21
4004.54
4707.26
5334.8
5602.7
5598.03
4971.11
4312.73
4418.93
4783.04
5473.15
5603.24
5602.85
5471.14
4842.34
4857.02
5289.93
5594.68
5606.7
5608.32
5602.47
5588.21
5591.83
5600.13
5605.82
5610.94
5616.42
5613.87
5612.03
5611.57
5612.75
5614.76
5617.09
5613.33
5609.66
5553.22
5578.82
5607.99
5610.95
5614.4
5610.4
5323.73
4454.94
4577.44
5085.16
5554.17
5611.78
5578.44
4579.19
3831.4
3812.14
4009.71
5124.2
5609.99
5608.32
4759.89
3860.81
3991.7
4151.98
5320.67
5610.32
5611.17
5436.51
4562.07
4575.61
5140.17
5589.77
5612.38
5613.92
5610.98
5581.76
5584.2
5609.57
5612.08
5615.01
5629.08
5629.8
5630.85
5630.74
5630.3
5629.36
5628.62
5630.21
5632.11
5592.14
5612.24
5633.84
5631.13
5629.48
5632.13
5423.67
4490.64
4608.07
5136.74
5574.19
5630.78
5621.9
4769.8
3665.87
3660.35
3864.63
5145.82
5632.27
5634
4924.27
3681.42
3677.09
4066.29
5323.99
5632.04
5631.95
5514.52
4700.95
4681.19
5207.39
5607.75
5630.63
5630.25
5631.91
5618.69
5619.61
5633.2
5630.94
5629.47
5635.48
5636.59
5637.76
5637.85
5637.31
5636.06
5634.89
5636.98
5638.36
5627.12
5632.46
5640.14
5638.05
5636.22
5638.51
5561.47
4735.49
4828.03
5255.97
5578.5
5637.63
5639.7
5164.92
3573.06
3568.91
3898.23
5182.01
5638.95
5640.33
5260.91
3624.26
3571.4
4122.31
5324.86
5639
5638.74
5606.18
5053.19
4939.5
5319.9
5612.81
5637.68
5637.22
5638.72
5638.22
5637.42
5639.89
5638.04
5636.33
5636.09
5636.04
5636.06
5635.94
5635.83
5635.65
5635.63
5636.09
5635.63
5634.71
5634.5
5635.31
5635.36
5635.58
5635.95
5582
4852.7
4892.96
5221.64
5545.71
5635.26
5636.34
5298.49
3485.17
3463.25
3873.78
5119.89
5635.12
5636.48
5372.15
3599.35
3464.07
4071.09
5242.3
5635.29
5636.34
5619.56
5200.94
4950.02
5288.62
5599.06
5635.55
5636.61
5636.37
5636.21
5635.68
5635.7
5635.76
5635.93
5637.84
5637.08
5636.51
5636.17
5636.18
5636.61
5637.28
5637.06
5635.65
5634.56
5634.04
5634.14
5635.09
5636.33
5636.12
5567.22
4773.25
4745.85
5022.47
5465.05
5635.09
5635.84
5251.9
3374.28
3367.34
3704.15
4934.54
5634.38
5636.15
5341.27
3542.85
3367.72
3850.47
5044.74
5634.63
5636.67
5616.36
5168.85
4755.32
5147.54
5575.72
5635.62
5637.74
5636.62
5635.67
5634.85
5634.91
5635.85
5636.96
5644.42
5644.46
5644.66
5644.4
5644.18
5643.95
5643.95
5644.6
5644.75
5645.66
5636.75
5644.64
5643.97
5643.84
5644.94
5577.79
4763.48
4501.32
4782.09
5409.74
5643.72
5645.87
5264.26
3306.07
3292.48
3425.64
4805.76
5644.07
5645.88
5371.59
3557.27
3292.44
3543.92
4920.61
5644.32
5645.26
5630.44
5200.65
4540.51
5052.52
5572.74
5644.2
5645.17
5645.39
5646.03
5644.5
5645.14
5644.58
5644.44
5652.16
5653.48
5654.88
5655.39
5654.95
5653.75
5652.53
5653.6
5655.53
5658.04
5631.53
5650.57
5656.16
5654.01
5655.21
5624.11
4983.31
4486.36
4794.6
5429.06
5655.67
5656.95
5444.21
3516.93
3225.17
3335.34
4876.45
5657.69
5656.63
5523.68
3901.23
3224.39
3503.56
4967.63
5657.57
5655.11
5652.47
5374.5
4617.62
5129.5
5597.99
5655.65
5653.8
5655.56
5657.81
5659.11
5658.19
5655.99
5654.15
5655.87
5657.59
5659.35
5660.56
5660.24
5658.78
5657.13
5657.44
5659.67
5656.27
5615.37
5632.76
5661.41
5659.16
5658.83
5657.91
5326.73
4666.11
4934.56
5479.22
5661.06
5659.92
5631.79
4266.74
3146.12
3407.35
5115.56
5662.8
5659.99
5644.23
4532.6
3155.33
3682.29
5130.12
5662.69
5658.9
5661.12
5551.4
4986.51
5327.12
5632.38
5660.86
5657.52
5659.55
5661.67
5663.51
5663.05
5660.95
5658.85
5655.1
5656.67
5658.23
5659.43
5659.21
5657.86
5656.23
5656.45
5658.5
5646.64
5594.9
5599.07
5660.42
5658.14
5657.54
5659.81
5455.74
4838.02
4990.85
5503.24
5659.72
5658.29
5660.91
4915.25
3112.71
3613.75
5283.49
5660.83
5658.43
5661.51
4868.92
3233.61
3960.69
5258.68
5660.59
5657.5
5659.87
5595.96
5293.87
5427.17
5642.63
5659.06
5656.26
5658.05
5659.65
5661.19
5660.61
5659.08
5657.32
5649.1
5649.33
5649.6
5649.79
5649.63
5649.23
5648.85
5649.31
5649.42
5593.7
5512.46
5482.21
5646.84
5649.28
5649.49
5649.33
5402.91
4727.43
4818.91
5437.77
5649.5
5649.61
5649