/*--------------------------------*- C++ -*----------------------------------*\
| =========                 |                                                 |
| \\      /  F ield         | OpenFOAM: The Open Source CFD Toolbox           |
|  \\    /   O peration     | Version:  plus.master.MPPICInterFoam            |
|   \\  /    A nd           | Web:      www.OpenFOAM.com                      |
|    \\/     M anipulation  |                                                 |
\*---------------------------------------------------------------------------*/
FoamFile
{
    version     2.0;
    format      ascii;
    class       volScalarField;
    location    "7.4";
    object      epsilon;
}
// * * * * * * * * * * * * * * * * * * * * * * * * * * * * * * * * * * * * * //

dimensions      [0 2 -3 0 0 0 0];

internalField   nonuniform List<scalar> 
11821
(
0.478544
0.529988
0.388888
0.469908
0.386529
0.292872
0.418025
0.512522
0.585279
0.600019
0.544634
0.447273
0.339132
0.527103
0.656276
0.696222
0.707607
0.711599
0.584637
0.429675
0.612773
0.692759
0.610938
0.611985
0.760489
0.704437
0.499982
0.635928
0.683878
0.540626
0.524173
0.764609
0.738237
0.518962
0.580364
0.70493
0.704437
0.719673
0.772932
0.661624
0.475769
0.480872
0.601204
0.694327
0.715756
0.653143
0.527467
0.392971
0.371581
0.448901
0.506275
0.517366
0.473498
0.392776
0.301756
0.437381
0.528488
0.590745
0.602786
0.552443
0.457615
0.348389
0.543183
0.664577
0.745815
0.762588
0.712033
0.587975
0.436939
0.618794
0.746333
0.661929
0.672844
0.805842
0.691365
0.501764
0.643083
0.747267
0.624927
0.614688
0.810495
0.725211
0.519287
0.593155
0.72683
0.74963
0.762314
0.797798
0.658603
0.478747
0.499073
0.615791
0.699715
0.719212
0.65504
0.532525
0.399825
0.389143
0.46624
0.51944
0.527895
0.482641
0.402075
0.310196
0.457401
0.545141
0.599418
0.601842
0.559504
0.470003
0.353857
0.557311
0.628752
0.68737
0.711872
0.684964
0.58889
0.445126
0.610191
0.689381
0.619952
0.640992
0.749498
0.683197
0.508656
0.612002
0.673184
0.595693
0.607318
0.766059
0.712235
0.523813
0.59355
0.686567
0.695267
0.723922
0.763142
0.645685
0.485127
0.51982
0.612883
0.693873
0.709943
0.647251
0.541782
0.404924
0.402812
0.486647
0.533409
0.539778
0.495644
0.409488
0.314372
0.44992
0.527444
0.555464
0.560728
0.542411
0.456997
0.347897
0.542614
0.583763
0.554859
0.571197
0.615983
0.566911
0.434379
0.564895
0.552796
0.530255
0.564824
0.623579
0.630422
0.495409
0.574764
0.598616
0.531531
0.546683
0.660139
0.654663
0.510211
0.57521
0.591686
0.582666
0.615812
0.657835
0.616447
0.472071
0.50817
0.580038
0.611503
0.630648
0.611536
0.521454
0.396361
0.397613
0.478675
0.528829
0.532926
0.484195
0.40072
0.311892
0.422236
0.496426
0.529689
0.536462
0.503544
0.424238
0.331759
0.509843
0.563846
0.541161
0.555348
0.588511
0.523727
0.407302
0.538776
0.540375
0.49931
0.496693
0.597769
0.584138
0.461027
0.552822
0.532814
0.49213
0.51222
0.608446
0.602448
0.473577
0.539579
0.5721
0.555285
0.579638
0.619523
0.563384
0.439957
0.471875
0.544473
0.573388
0.588741
0.561307
0.478924
0.375867
0.378194
0.447133
0.490821
0.49277
0.449592
0.379553
0.303576
0.390348
0.456382
0.494626
0.498833
0.458514
0.390122
0.313844
0.471889
0.524589
0.53729
0.548272
0.541537
0.477456
0.377036
0.521106
0.534057
0.487498
0.512826
0.57428
0.540324
0.42241
0.531343
0.540843
0.487194
0.520297
0.591766
0.553453
0.433628
0.503089
0.550665
0.555386
0.578185
0.576203
0.516576
0.407415
0.44049
0.510803
0.547088
0.555688
0.519649
0.443739
0.355987
0.359897
0.416412
0.450328
0.451904
0.417505
0.359946
0.294516
0.368593
0.422013
0.451904
0.451876
0.420235
0.365557
0.300467
0.439196
0.494899
0.51725
0.522222
0.501808
0.438506
0.355297
0.483937
0.519051
0.451235
0.469336
0.543857
0.491321
0.393702
0.495481
0.53629
0.456889
0.46461
0.564287
0.506056
0.404732
0.473483
0.527814
0.544693
0.558295
0.541908
0.477829
0.385063
0.421383
0.482324
0.51448
0.517721
0.483866
0.419396
0.342245
0.348799
0.398117
0.424634
0.424659
0.396334
0.34675
0.287457
0.358851
0.405773
0.427201
0.425977
0.40106
0.353992
0.294118
0.424614
0.465147
0.462913
0.468321
0.467609
0.419673
0.345554
0.463495
0.461062
0.436572
0.445911
0.482444
0.46535
0.381074
0.463566
0.450438
0.435761
0.44152
0.483777
0.479865
0.392195
0.463081
0.48429
0.476284
0.482219
0.500325
0.46047
0.375818
0.415917
0.471435
0.494578
0.495118
0.467577
0.409843
0.33599
0.344098
0.393156
0.416383
0.41519
0.388704
0.340865
0.283689
0.351086
0.390498
0.403883
0.402595
0.387425
0.34816
0.291835
0.405667
0.416338
0.402365
0.405122
0.422888
0.403889
0.341099
0.424468
0.403862
0.388988
0.396797
0.420109
0.433136
0.374434
0.433115
0.403551
0.386313
0.396396
0.427118
0.443234
0.384724
0.434819
0.437014
0.414002
0.422432
0.448549
0.437314
0.369849
0.403955
0.439859
0.447999
0.449908
0.442673
0.400117
0.332307
0.337555
0.385774
0.409759
0.408211
0.381959
0.336474
0.281684
0.343453
0.383545
0.395257
0.395309
0.384114
0.345679
0.291325
0.396276
0.415806
0.400792
0.40458
0.420273
0.400488
0.339281
0.413801
0.399266
0.371673
0.383566
0.418006
0.426978
0.370949
0.419984
0.399048
0.37016
0.387044
0.422234
0.436149
0.380458
0.422976
0.434687
0.408159
0.417045
0.449773
0.431153
0.366194
0.391315
0.429913
0.437885
0.441341
0.435822
0.393961
0.329565
0.329092
0.375728
0.399348
0.399047
0.375534
0.33273
0.280349
0.332713
0.373781
0.391176
0.393193
0.378976
0.341943
0.290339
0.384003
0.407962
0.400447
0.408334
0.419889
0.396637
0.336742
0.409263
0.402725
0.372321
0.375781
0.423503
0.428453
0.367688
0.416765
0.402512
0.385193
0.382592
0.432107
0.439429
0.376639
0.411398
0.428565
0.407792
0.427605
0.448641
0.428757
0.362436
0.377076
0.42304
0.439543
0.444694
0.432224
0.388005
0.327045
0.320069
0.364135
0.38727
0.389081
0.368768
0.329288
0.278855
0.327747
0.37042
0.391148
0.395371
0.379717
0.341891
0.289908
0.381951
0.41889
0.424849
0.426197
0.435286
0.399813
0.336872
0.415852
0.431938
0.404048
0.410146
0.451598
0.438126
0.368718
0.426546
0.444303
0.416519
0.416213
0.462639
0.449798
0.378149
0.41435
0.450703
0.460605
0.464039
0.470588
0.434525
0.363036
0.374427
0.427847
0.453851
0.459074
0.438757
0.390301
0.326379
0.31496
0.360123
0.385261
0.388311
0.368236
0.328143
0.276748
0.326455
0.371596
0.394533
0.398816
0.383888
0.344409
0.289691
0.382651
0.425072
0.439655
0.447464
0.444618
0.406467
0.339088
0.419437
0.445958
0.430489
0.422246
0.470093
0.449046
0.37395
0.43342
0.462251
0.413809
0.431043
0.485806
0.467266
0.385228
0.418474
0.464677
0.484101
0.487171
0.488135
0.448173
0.367002
0.373685
0.433627
0.465533
0.471849
0.45076
0.395686
0.325807
0.310736
0.358917
0.387617
0.391672
0.370217
0.326869
0.272744
0.328783
0.380781
0.409211
0.412867
0.394181
0.348652
0.287846
0.39147
0.43369
0.42131
0.440826
0.440115
0.416435
0.341182
0.432686
0.419561
0.393664
0.403409
0.433709
0.458432
0.379232
0.443322
0.415038
0.392577
0.395017
0.424864
0.459644
0.388944
0.424732
0.455354
0.430592
0.443862
0.461076
0.451238
0.366255
0.373989
0.438963
0.476205
0.480088
0.452578
0.396126
0.320413
0.30429
0.357019
0.389957
0.394119
0.368196
0.320789
0.264931
0.320104
0.37001
0.391018
0.393343
0.379468
0.339865
0.279603
0.377553
0.405253
0.394111
0.387905
0.414998
0.397064
0.331357
0.403121
0.401064
0.367427
0.373296
0.404823
0.423128
0.367384
0.407482
0.405673
0.379823
0.381319
0.417276
0.438934
0.375482
0.405138
0.441516
0.416904
0.420767
0.457724
0.429722
0.352264
0.358281
0.417211
0.434409
0.439534
0.430895
0.378701
0.306695
0.289975
0.34132
0.374569
0.378009
0.351952
0.306169
0.253433
0.300103
0.350017
0.369669
0.370633
0.362459
0.32192
0.265743
0.355055
0.402053
0.390874
0.387511
0.411628
0.379675
0.312993
0.379741
0.396052
0.357094
0.370486
0.398567
0.409004
0.345476
0.386911
0.403209
0.36481
0.370648
0.407728
0.41382
0.350571
0.376645
0.431408
0.415523
0.414727
0.442963
0.399614
0.327601
0.330088
0.387037
0.410812
0.413374
0.398977
0.349232
0.28635
0.26955
0.31545
0.345077
0.348195
0.325476
0.285311
0.239529
0.0468374
0.064266
0.158736
0.109769
0.0775947
0.0575294
0.0477888
0.0625998
0.349502
0.238878
0.162926
0.112017
0.0787603
0.0580489
0.0477994
0.0614982
0.32067
0.22091
0.152167
0.105844
0.0753321
0.0561758
0.0467731
0.060979
0.263617
0.186088
0.1318
0.0943564
0.0690675
0.0529188
0.0453403
0.061634
0.203544
0.150786
0.111474
0.0829516
0.0629535
0.0499824
0.0445903
0.064519
0.238538
0.177746
0.131303
0.0973651
0.0737273
0.0586876
0.0529884
0.0791242
0.296101
0.211932
0.151411
0.10897
0.0801473
0.0618238
0.0536543
0.0753224
0.341787
0.239734
0.167772
0.118351
0.0853438
0.0644548
0.0544894
0.0732341
0.354065
0.246881
0.17183
0.120624
0.0865628
0.0649919
0.0544622
0.0719576
0.326084
0.229334
0.16127
0.114527
0.0831514
0.0631175
0.0534423
0.071474
0.271838
0.19562
0.141234
0.103055
0.0768142
0.059818
0.0520558
0.072398
0.213522
0.160816
0.120865
0.0914324
0.0704992
0.0568078
0.0514187
0.0758392
0.246869
0.185665
0.139013
0.104819
0.0807821
0.065381
0.059984
0.0916456
0.304034
0.219713
0.159123
0.116514
0.0872716
0.0684639
0.0603945
0.0870757
0.347908
0.246857
0.175277
0.125889
0.0925074
0.0710759
0.0610775
0.0845023
0.359346
0.253689
0.179296
0.128222
0.0937854
0.071625
0.0609968
0.0830107
0.332265
0.236577
0.16901
0.122272
0.0904274
0.0697617
0.0599834
0.0825435
0.279504
0.203614
0.149335
0.110895
0.0840703
0.0664476
0.0586588
0.0837402
0.221842
0.169135
0.128992
0.0991423
0.0776183
0.0634065
0.0581752
0.0877966
0.252214
0.191717
0.145788
0.111826
0.0875663
0.0718392
0.0667711
0.10469
0.309082
0.225304
0.165757
0.123566
0.094095
0.0748387
0.0668876
0.0992116
0.352235
0.251826
0.181676
0.132936
0.0993655
0.0774143
0.0673964
0.0960633
0.363047
0.258511
0.185741
0.135357
0.100697
0.0779582
0.0672386
0.0942972
0.336398
0.241967
0.175839
0.129573
0.0973758
0.0760872
0.0662173
0.0938262
0.284557
0.20998
0.15664
0.118299
0.0909772
0.0727383
0.0649434
0.0952867
0.228025
0.176178
0.136446
0.106426
0.0843795
0.0696587
0.0646069
0.0999404
0.253932
0.19612
0.151649
0.118132
0.0937239
0.0777263
0.0729794
0.116654
0.308198
0.228687
0.171332
0.129844
0.100227
0.0805938
0.0727809
0.110232
0.349185
0.254259
0.186961
0.139178
0.105487
0.0830892
0.0730843
0.106441
0.359615
0.260852
0.19108
0.141664
0.106837
0.0835948
0.0728248
0.104367
0.334314
0.245171
0.181611
0.136033
0.103538
0.081706
0.0717882
0.103889
0.285436
0.214663
0.162974
0.124874
0.0971091
0.0783329
0.0705657
0.105624
0.23185
0.182032
0.143066
0.112954
0.0904199
0.0752417
0.0703657
0.110833
0.249814
0.197101
0.155192
0.122709
0.0985796
0.0826663
0.0784357
0.126748
0.298791
0.227462
0.174041
0.134102
0.104896
0.0853226
0.0779055
0.119452
0.335779
0.251297
0.189012
0.143187
0.11001
0.0876582
0.07797
0.115033
0.345311
0.257668
0.19312
0.145679
0.111328
0.0880886
0.0775897
0.112671
0.323064
0.243605
0.184382
0.140325
0.108106
0.0862048
0.0765409
0.112202
0.280057
0.215772
0.166813
0.12953
0.101783
0.082874
0.0753872
0.114217
0.231819
0.185307
0.147664
0.117822
0.0951458
0.0798351
0.0753242
0.119907
0.242684
0.195363
0.156412
0.125433
0.102073
0.0866818
0.0832778
0.135696
0.285858
0.223107
0.1741
0.136287
0.108079
0.0890697
0.0824026
0.127606
0.318408
0.24488
0.18814
0.14492
0.112921
0.0911801
0.0822044
0.122613
0.327348
0.251068
0.19218
0.147352
0.114159
0.0915074
0.0816873
0.119991
0.309124
0.238988
0.184348
0.142375
0.111069
0.0896473
0.0806201
0.119525
0.272343
0.214128
0.168107
0.132138
0.104968
0.0864085
0.0795358
0.121772
0.229225
0.18599
0.149946
0.120822
0.0984886
0.0834664
0.0796089
0.127859
0.236533
0.193249
0.156792
0.127306
0.10486
0.0901473
0.0877161
0.144548
0.275461
0.218917
0.173461
0.137642
0.110557
0.092268
0.0864892
0.135664
0.304514
0.238934
0.186609
0.145797
0.115105
0.0941419
0.086021
0.130122
0.31318
0.244966
0.190538
0.148128
0.116237
0.0943481
0.0853491
0.127223
0.298249
0.234534
0.183488
0.143485
0.113255
0.0924875
0.0842327
0.126698
0.265972
0.211975
0.168358
0.133742
0.107346
0.0893125
0.083182
0.129077
0.226383
0.185585
0.150996
0.122757
0.100997
0.0864465
0.0833691
0.135474
0.233911
0.192803
0.157872
0.12938
0.107556
0.0933208
0.0917229
0.153276
0.270782
0.217342
0.173955
0.139399
0.113035
0.0952118
0.0901562
0.143565
0.298007
0.236266
0.186492
0.147207
0.11735
0.0968761
0.0894263
0.137465
0.306467
0.242134
0.19029
0.149419
0.118358
0.0969444
0.088582
0.134234
0.29327
0.232642
0.183681
0.144928
0.115379
0.095021
0.0873737
0.133556
0.263088
0.211281
0.169125
0.135399
0.109513
0.0918275
0.0863033
0.135953
0.225121
0.185701
0.152091
0.124509
0.103176
0.0889758
0.0865595
0.14256
0.234228
0.194175
0.159915
0.131799
0.110171
0.0961167
0.0950894
0.160804
0.27002
0.21825
0.175789
0.14168
0.115497
0.0978054
0.0932178
0.150364
0.29598
0.236534
0.187999
0.149284
0.119636
0.0992807
0.0922428
0.143718
0.304082
0.242181
0.191627
0.151338
0.120488
0.0991894
0.0912175
0.140123
0.291703
0.23303
0.18508
0.146773
0.117389
0.0971431
0.0898888
0.139229
0.262585
0.212069
0.170589
0.137173
0.111423
0.0938653
0.0887625
0.141572
0.225314
0.18665
0.153505
0.126186
0.105013
0.0909856
0.0890443
0.148279
0.235437
0.195917
0.161873
0.133814
0.112216
0.0982823
0.0977153
0.166389
0.270665
0.219807
0.177646
0.143556
0.11735
0.0997415
0.0955582
0.155362
0.295832
0.23776
0.189672
0.150987
0.121299
0.101014
0.0943529
0.148241
0.303448
0.243103
0.193061
0.152822
0.121949
0.100742
0.0931519
0.144324
0.291206
0.233827
0.186288
0.14803
0.118664
0.0985528
0.0917035
0.143227
0.262484
0.212823
0.171603
0.138243
0.112564
0.0951898
0.0905218
0.145507
0.225586
0.187336
0.154362
0.127142
0.106101
0.0922966
0.0908131
0.152225
0.235636
0.196461
0.162544
0.134613
0.113246
0.0996792
0.0997262
0.170364
0.270429
0.220166
0.178101
0.144075
0.118081
0.100853
0.0972833
0.158914
0.295284
0.237977
0.189933
0.151252
0.121768
0.101889
0.0958582
0.151439
0.302615
0.243068
0.193048
0.15282
0.122188
0.101432
0.094498
0.147296
0.290169
0.233414
0.185926
0.147777
0.118737
0.0991272
0.0929524
0.146053
0.261503
0.212141
0.171009
0.137864
0.112583
0.0957358
0.0917415
0.148285
0.224614
0.186514
0.153704
0.126781
0.10617
0.092888
0.0920599
0.154978
0.234586
0.195307
0.161552
0.134048
0.113298
0.100455
0.101412
0.174114
0.269621
0.218886
0.176751
0.14309
0.117756
0.101311
0.0986646
0.162264
0.294899
0.236686
0.188302
0.149907
0.121124
0.102096
0.0970278
0.154516
0.302192
0.241522
0.191089
0.151179
0.121319
0.101472
0.0955248
0.150203
0.288927
0.231253
0.183594
0.145949
0.117772
0.0990985
0.0939026
0.148836
0.259314
0.209455
0.16851
0.136055
0.111676
0.0957384
0.0926846
0.151008
0.221742
0.18366
0.151321
0.125164
0.105421
0.0929903
0.0930614
0.157691
0.232531
0.192809
0.159408
0.132693
0.112864
0.100929
0.10295
0.178742
0.268384
0.216255
0.174137
0.141261
0.116953
0.101493
0.0998955
0.166373
0.294634
0.234015
0.185282
0.147664
0.120012
0.102059
0.0980586
0.158324
0.301999
0.238487
0.187686
0.148651
0.120022
0.101299
0.096421
0.153798
0.287117
0.227441
0.179899
0.143336
0.116448
0.0988842
0.0947225
0.152253
0.255581
0.205064
0.164812
0.133604
0.110474
0.0955712
0.0934961
0.154316
0.216989
0.179248
0.147936
0.123019
0.104413
0.0929283
0.0939438
0.161029
0.228846
0.189236
0.156838
0.131324
0.112511
0.101362
0.104275
0.183866
0.2651
0.212088
0.1709
0.13943
0.116315
0.101711
0.100948
0.17083
0.291685
0.229293
0.181431
0.145414
0.11913
0.102113
0.0989355
0.162401
0.298073
0.233102
0.183439
0.146178
0.119002
0.101248
0.0971701
0.157567
0.281576
0.221633
0.175645
0.140911
0.115428
0.098787
0.0953861
0.155783
0.248954
0.1994
0.160948
0.131436
0.109561
0.0954873
0.0941289
0.157691
0.210578
0.174286
0.144657
0.121197
0.10366
0.0929089
0.0946256
0.164457
0.223112
0.18535
0.154672
0.130484
0.112515
0.101839
0.105229
0.188069
0.257648
0.206955
0.16797
0.13818
0.116111
0.102048
0.1017
0.174336
0.282639
0.222993
0.177786
0.143793
0.118748
0.102342
0.0995546
0.165499
0.288081
0.226188
0.179436
0.144366
0.118511
0.10139
0.0976776
0.160323
0.271441
0.214827
0.171779
0.139162
0.114921
0.0988688
0.0958073
0.158304
0.239816
0.193495
0.157671
0.12996
0.109121
0.0955417
0.0944973
0.16007
0.203451
0.169732
0.142144
0.120068
0.103329
0.0929728
0.0949922
0.166866
0.215226
0.180979
0.152774
0.130074
0.112816
0.102345
0.105764
0.190158
0.2464
0.200663
0.165111
0.137349
0.116243
0.102469
0.102131
0.175925
0.268615
0.215026
0.174094
0.142604
0.118739
0.102693
0.0999071
0.166761
0.272595
0.217512
0.175426
0.143036
0.118422
0.101676
0.0979549
0.161334
0.256867
0.206887
0.168172
0.137973
0.114826
0.0990932
0.0960143
0.159172
0.228416
0.187471
0.155008
0.129123
0.109084
0.0957163
0.0946359
0.160857
0.19601
0.165808
0.14045
0.119586
0.103362
0.0931109
0.0950687
0.167603
0.275056
0.213849
0.163788
0.124174
0.0944116
0.0742254
0.0656135
0.0969721
0.353524
0.267429
0.199996
0.147829
0.108998
0.0824794
0.0695614
0.0967134
0.424533
0.31701
0.233848
0.1701
0.122887
0.090597
0.07399
0.0986654
0.462811
0.342659
0.251255
0.181599
0.13013
0.0949323
0.0765745
0.100794
0.446215
0.332169
0.244589
0.177469
0.127713
0.0937117
0.0762701
0.102029
0.385485
0.291315
0.217407
0.159926
0.117005
0.0877347
0.0735263
0.102752
0.308857
0.240092
0.183115
0.137608
0.103341
0.0801918
0.0703197
0.104646
0.287915
0.223809
0.171835
0.131212
0.100946
0.0805578
0.0724524
0.109592
0.369136
0.27946
0.208987
0.15516
0.115604
0.0888172
0.0763238
0.109105
0.440279
0.330581
0.243785
0.177713
0.129534
0.0969291
0.0807242
0.111001
0.476991
0.356765
0.261663
0.18933
0.136744
0.101209
0.0832681
0.113099
0.460181
0.345874
0.254726
0.184997
0.134171
0.0998867
0.0829246
0.114356
0.401401
0.304314
0.226758
0.167073
0.12328
0.0938217
0.0801855
0.11521
0.323492
0.251128
0.191321
0.144308
0.109456
0.0862408
0.077071
0.117396
0.29666
0.23065
0.178212
0.137519
0.107114
0.0865748
0.0789534
0.122627
0.381777
0.287528
0.215563
0.161474
0.121788
0.0948287
0.0827151
0.12184
0.455931
0.340365
0.250788
0.184103
0.135739
0.102946
0.0870622
0.12365
0.48901
0.366938
0.268822
0.195705
0.142864
0.107179
0.0895716
0.125747
0.473662
0.356126
0.261705
0.191147
0.140144
0.105762
0.0892108
0.127117
0.416294
0.313291
0.233175
0.172924
0.129059
0.0995985
0.0865096
0.128208
0.33442
0.258173
0.197064
0.149883
0.115101
0.0919983
0.0835538
0.130862
0.298387
0.234428
0.183222
0.143004
0.112576
0.0918885
0.0846581
0.134097
0.380289
0.289521
0.219698
0.166623
0.127145
0.100072
0.0882606
0.132866
0.452578
0.341075
0.254152
0.188909
0.140965
0.108107
0.0924786
0.134406
0.488846
0.367425
0.271747
0.200255
0.147999
0.112285
0.0949277
0.136448
0.474013
0.356798
0.264573
0.195536
0.145116
0.110797
0.0945857
0.138015
0.414504
0.314413
0.236269
0.177271
0.133945
0.104629
0.0920178
0.139575
0.334363
0.260065
0.200504
0.154332
0.120027
0.0971339
0.0893294
0.142967
0.292216
0.233903
0.185477
0.146432
0.116431
0.0959744
0.0893355
0.142994
0.364507
0.284347
0.219923
0.169179
0.130583
0.103902
0.0926962
0.141196
0.428726
0.331007
0.252047
0.190407
0.143883
0.111639
0.0966909
0.142282
0.459992
0.35478
0.268326
0.20108
0.150584
0.115632
0.0990195
0.144156
0.44764
0.344966
0.261221
0.196309
0.147664
0.114166
0.0987436
0.145935
0.395434
0.305809
0.234196
0.178542
0.136769
0.108228
0.0964331
0.148132
0.322448
0.255434
0.200258
0.156447
0.123329
0.101099
0.0941411
0.152433
0.283777
0.23067
0.185067
0.147565
0.118527
0.0988418
0.0931917
0.150361
0.347522
0.276714
0.217274
0.169101
0.131977
0.106348
0.09626
0.148041
0.401948
0.317941
0.246595
0.188816
0.144427
0.113621
0.100009
0.148752
0.429488
0.338567
0.261119
0.198531
0.150584
0.117329
0.102208
0.150464
0.417857
0.328856
0.253991
0.19377
0.147746
0.115958
0.102027
0.152402
0.370175
0.292971
0.228677
0.17701
0.13751
0.110462
0.100043
0.155169
0.306124
0.247439
0.197253
0.156328
0.124946
0.103921
0.0982179
0.160284
0.277192
0.227049
0.183486
0.147502
0.119664
0.100999
0.0965448
0.157616
0.336255
0.270268
0.213895
0.167875
0.132393
0.108081
0.0993454
0.154957
0.384385
0.307802
0.24095
0.186173
0.144019
0.11494
0.10293
0.155572
0.40678
0.325617
0.253845
0.19493
0.149642
0.118404
0.105072
0.157298
0.39412
0.315477
0.246652
0.190265
0.146938
0.117155
0.105012
0.159394
0.350984
0.282166
0.223025
0.174662
0.137458
0.112127
0.103341
0.162559
0.293437
0.240322
0.193844
0.155428
0.12583
0.106196
0.101974
0.16831
0.27343
0.224423
0.182177
0.147431
0.120625
0.102818
0.0994097
0.164722
0.331087
0.266171
0.211348
0.166931
0.132814
0.109587
0.102002
0.161862
0.377362
0.301951
0.236966
0.184271
0.143913
0.116211
0.105513
0.162579
0.397514
0.318217
0.248799
0.192369
0.149204
0.119571
0.107693
0.164508
0.383545
0.307984
0.241786
0.187905
0.146665
0.118463
0.107792
0.166882
0.34223
0.276191
0.219444
0.173235
0.137779
0.11381
0.106417
0.170423
0.287255
0.236292
0.191796
0.155098
0.126883
0.108382
0.105488
0.176802
0.269953
0.222355
0.181311
0.147531
0.121457
0.104237
0.101579
0.170457
0.325041
0.262445
0.209396
0.166364
0.133261
0.11078
0.104
0.167401
0.368136
0.296519
0.233956
0.183116
0.144075
0.11728
0.107454
0.168158
0.385937
0.311753
0.245128
0.19087
0.149259
0.120656
0.109719
0.170342
0.373548
0.302097
0.238507
0.186697
0.146919
0.119728
0.110031
0.173156
0.335026
0.271973
0.217321
0.172745
0.138495
0.115416
0.108995
0.177287
0.283065
0.233892
0.190911
0.15544
0.128171
0.110431
0.108525
0.184498
0.265362
0.219667
0.179921
0.147037
0.121632
0.104975
0.102956
0.173976
0.317151
0.257753
0.206888
0.165243
0.133065
0.111283
0.105201
0.170665
0.357436
0.289851
0.230364
0.181459
0.143611
0.117638
0.108555
0.171264
0.373848
0.304029
0.241011
0.189043
0.148784
0.121067
0.1109
0.173618
0.362598
0.295345
0.234977
0.185231
0.146729
0.120394
0.111473
0.176947
0.327748
0.267446
0.215052
0.172031
0.138819
0.11649
0.110845
0.18189
0.278661
0.231407
0.189946
0.155576
0.129104
0.111998
0.110873
0.190107
0.25977
0.215818
0.177252
0.145313
0.120778
0.104948
0.103749
0.17591
0.308341
0.252166
0.203211
0.162852
0.131745
0.110942
0.105787
0.172325
0.345318
0.282325
0.225691
0.178492
0.141919
0.117064
0.109003
0.172676
0.360072
0.29547
0.23597
0.185972
0.14708
0.120521
0.111409
0.175109
0.350521
0.28762
0.230461
0.18258
0.145393
0.120159
0.112252
0.178874
0.318198
0.26167
0.211729
0.170241
0.138151
0.116774
0.112064
0.184613
0.272627
0.227847
0.188013
0.154771
0.129186
0.112868
0.112602
0.193767
0.254489
0.211012
0.173266
0.14241
0.119068
0.104404
0.104336
0.177873
0.302928
0.246732
0.198478
0.159242
0.129474
0.110017
0.106145
0.174073
0.340021
0.276469
0.22041
0.174338
0.139206
0.11586
0.109237
0.174329
0.355648
0.289767
0.230751
0.181821
0.144351
0.119324
0.111707
0.176875
0.345384
0.282115
0.225681
0.178914
0.143089
0.119279
0.112795
0.180933
0.312811
0.256862
0.20786
0.167454
0.136568
0.116434
0.113002
0.1872
0.268105
0.224181
0.185254
0.152971
0.128406
0.113133
0.114004
0.197009
0.248769
0.205145
0.168312
0.138879
0.117033
0.103717
0.104943
0.181003
0.298572
0.240866
0.192874
0.15495
0.126837
0.108942
0.106529
0.177097
0.33759
0.271344
0.214692
0.169603
0.136151
0.114526
0.109539
0.177519
0.355114
0.285634
0.225441
0.177167
0.141273
0.117991
0.112095
0.180344
0.344232
0.278235
0.220893
0.174753
0.140379
0.118203
0.113384
0.184645
0.310455
0.252956
0.203686
0.164065
0.134503
0.115806
0.11389
0.191172
0.265064
0.220525
0.181854
0.150461
0.127069
0.11303
0.115288
0.201397
0.241318
0.19823
0.16304
0.135489
0.115263
0.103182
0.105527
0.184905
0.292806
0.233576
0.18657
0.150622
0.124441
0.108066
0.106938
0.180969
0.335651
0.265067
0.208086
0.164668
0.133308
0.11342
0.109896
0.181712
0.356607
0.280855
0.219227
0.172172
0.138314
0.116859
0.112535
0.184981
0.346326
0.274191
0.215332
0.170215
0.137686
0.117239
0.113985
0.189585
0.310036
0.248707
0.198804
0.160293
0.132357
0.115165
0.114709
0.196301
0.262309
0.216222
0.177812
0.147586
0.125569
0.112792
0.116408
0.206868
0.231157
0.190899
0.158379
0.132928
0.114136
0.102936
0.105957
0.188147
0.280357
0.22402
0.180213
0.146983
0.122741
0.107562
0.107262
0.184198
0.322898
0.254423
0.200568
0.160222
0.131158
0.112723
0.110167
0.185172
0.344407
0.270231
0.211389
0.167452
0.136025
0.116125
0.112855
0.188863
0.335966
0.264636
0.208132
0.165836
0.135573
0.116606
0.114426
0.193845
0.300819
0.240562
0.192841
0.156711
0.130668
0.114757
0.115329
0.20088
0.25452
0.209748
0.173279
0.144947
0.124406
0.112676
0.117278
0.211952
0.218785
0.183413
0.154395
0.131181
0.113626
0.102976
0.106198
0.189585
0.261784
0.212444
0.173854
0.14402
0.121705
0.107434
0.10748
0.185627
0.30024
0.239434
0.192035
0.156099
0.129597
0.112398
0.110315
0.186569
0.32025
0.253907
0.201908
0.162801
0.134227
0.115719
0.11299
0.190399
0.313203
0.249372
0.199219
0.161435
0.13388
0.11626
0.114635
0.195728
0.282826
0.2284
0.18573
0.153213
0.129373
0.114582
0.115679
0.203215
0.241326
0.201059
0.168279
0.142554
0.123616
0.112719
0.117792
0.214812
0.302806
0.233596
0.176805
0.131905
0.0984575
0.076085
0.066669
0.100151
0.364495
0.269066
0.196114
0.141043
0.101218
0.0749208
0.0625744
0.0890733
0.411342
0.295306
0.209473
0.146679
0.102474
0.0737858
0.0598756
0.0819659
0.419203
0.296925
0.207642
0.143545
0.099376
0.071245
0.0577507
0.0773548
0.379837
0.269514
0.188273
0.130338
0.0908932
0.0660094
0.0543513
0.0742287
0.311598
0.223278
0.158134
0.111711
0.0800598
0.0600847
0.0512878
0.0734075
0.236872
0.175882
0.12934
0.0953423
0.0717
0.0567171
0.0511329
0.0771462
0.317512
0.244829
0.18522
0.138826
0.104748
0.0821964
0.073364
0.112791
0.380064
0.281966
0.205748
0.148659
0.107914
0.0812231
0.0692263
0.101162
0.424611
0.308464
0.219762
0.154846
0.109548
0.0803485
0.0666037
0.0938282
0.431154
0.30946
0.217752
0.151818
0.106659
0.0779793
0.0645807
0.0891925
0.391422
0.280466
0.197429
0.138369
0.0982228
0.0728277
0.0612432
0.0860298
0.322036
0.232516
0.166467
0.119522
0.0873854
0.0669378
0.0582794
0.0853382
0.245584
0.184055
0.137233
0.102947
0.0788846
0.0635357
0.0582757
0.0896339
0.328623
0.252198
0.191345
0.144705
0.110579
0.0880683
0.0799192
0.126152
0.395046
0.291233
0.212776
0.155137
0.11418
0.0872921
0.0757018
0.113918
0.441666
0.319076
0.227345
0.161717
0.116189
0.0866884
0.0731776
0.106246
0.447334
0.3196
0.225205
0.158819
0.113502
0.0845079
0.0712316
0.10166
0.403842
0.288461
0.204365
0.145396
0.105187
0.0794821
0.0680283
0.0984538
0.32989
0.238989
0.173271
0.126671
0.0944264
0.0736611
0.065239
0.0981061
0.251599
0.190493
0.144235
0.110125
0.08584
0.0701868
0.0652712
0.102871
0.329054
0.254443
0.195074
0.149385
0.115698
0.0933938
0.0859189
0.138394
0.393675
0.293279
0.216655
0.160098
0.119555
0.0927223
0.0815796
0.125537
0.437402
0.320313
0.231191
0.166925
0.12185
0.0923348
0.0791415
0.117474
0.441946
0.320253
0.229025
0.164234
0.119402
0.0903341
0.0772552
0.112932
0.399553
0.289417
0.208527
0.151147
0.111352
0.085531
0.0742878
0.109964
0.327731
0.241424
0.178343
0.132881
0.100795
0.0798644
0.0717614
0.11021
0.25357
0.195059
0.150235
0.116587
0.0921923
0.0763172
0.0717744
0.115317
0.317357
0.250013
0.195026
0.15171
0.119222
0.0976087
0.0910551
0.148327
0.375612
0.285296
0.215069
0.161898
0.122964
0.0969324
0.0866532
0.134954
0.414333
0.309561
0.228534
0.168465
0.125293
0.0966536
0.0842946
0.126591
0.416647
0.308785
0.226394
0.166023
0.123088
0.0947969
0.082404
0.122116
0.377458
0.280657
0.207542
0.153881
0.115597
0.0903534
0.0797324
0.119593
0.314202
0.237801
0.179928
0.13681
0.105588
0.0849934
0.0774998
0.12047
0.249221
0.195952
0.153792
0.121259
0.0972062
0.0814678
0.0774976
0.12589
0.300907
0.242089
0.192219
0.15187
0.121154
0.100768
0.0955037
0.156757
0.349303
0.272118
0.209791
0.161015
0.124532
0.100048
0.0911782
0.143239
0.381484
0.292434
0.221461
0.166866
0.126683
0.0997908
0.0888518
0.134761
0.382631
0.291366
0.219468
0.164725
0.124717
0.0980372
0.0869251
0.130335
0.349213
0.267495
0.203097
0.153994
0.118016
0.094032
0.0845497
0.128228
0.297283
0.23102
0.178801
0.138597
0.108836
0.0891025
0.0825725
0.129597
0.241684
0.194045
0.154992
0.124062
0.100841
0.0856756
0.0825741
0.135318
0.288036
0.23509
0.18912
0.151365
0.122446
0.103431
0.0996392
0.165364
0.328701
0.260956
0.204671
0.159665
0.125607
0.102785
0.0955066
0.151903
0.354177
0.277681
0.214617
0.164832
0.127574
0.102564
0.0932531
0.143511
0.35415
0.276487
0.212863
0.162976
0.125823
0.100884
0.0912374
0.139104
0.32736
0.256559
0.198816
0.153588
0.119853
0.0972436
0.089058
0.137097
0.284175
0.225163
0.177331
0.139678
0.111426
0.0926629
0.0872053
0.138739
0.235305
0.191879
0.155418
0.126041
0.103769
0.0893024
0.0871911
0.144676
0.281826
0.231393
0.187555
0.15153
0.123954
0.106019
0.10352
0.174371
0.318896
0.255374
0.202263
0.159611
0.127209
0.105607
0.0996444
0.161075
0.34021
0.270073
0.211257
0.164482
0.12921
0.105509
0.0974854
0.152803
0.339746
0.268971
0.209804
0.162929
0.127673
0.103905
0.0953996
0.148344
0.316952
0.251446
0.197304
0.154449
0.122167
0.100476
0.0933091
0.146272
0.278243
0.22283
0.177487
0.141443
0.114151
0.0960227
0.0914094
0.14793
0.232712
0.191528
0.156631
0.128264
0.106618
0.0926146
0.0913235
0.154065
0.278464
0.229703
0.187281
0.152394
0.125687
0.108446
0.106903
0.182578
0.313951
0.253354
0.202119
0.160775
0.129276
0.108354
0.103293
0.169489
0.333601
0.267425
0.211091
0.165874
0.131536
0.108468
0.101253
0.161259
0.33344
0.266722
0.210049
0.164682
0.13025
0.106968
0.0991405
0.156691
0.313054
0.250694
0.198419
0.156646
0.124931
0.103572
0.0969963
0.154511
0.276862
0.223463
0.179328
0.14395
0.116989
0.0990589
0.094956
0.156168
0.233186
0.193067
0.158847
0.130855
0.109391
0.0955333
0.0947715
0.161926
0.274898
0.227918
0.186887
0.153003
0.12702
0.110359
0.109575
0.188734
0.310468
0.25193
0.202193
0.161828
0.130973
0.110557
0.106172
0.175906
0.330014
0.266437
0.211714
0.16741
0.133585
0.110896
0.104263
0.16765
0.330769
0.266522
0.211303
0.166666
0.132571
0.109521
0.102183
0.162935
0.312055
0.251409
0.200161
0.158848
0.127304
0.106071
0.0998931
0.160926
0.277056
0.224895
0.181366
0.146198
0.119296
0.101426
0.0976683
0.162055
0.234524
0.194967
0.160983
0.133053
0.111608
0.0978397
0.0975227
0.167748
0.269443
0.224886
0.185404
0.152584
0.127438
0.111526
0.111585
0.192898
0.304355
0.248839
0.200914
0.161639
0.131586
0.111895
0.108327
0.180424
0.325006
0.264076
0.21104
0.167637
0.134457
0.112375
0.106526
0.17223
0.327106
0.265124
0.211297
0.167319
0.133683
0.11116
0.104541
0.167256
0.309381
0.250856
0.200596
0.159714