/*--------------------------------*- C++ -*----------------------------------*\
| =========                 |                                                 |
| \\      /  F ield         | OpenFOAM: The Open Source CFD Toolbox           |
|  \\    /   O peration     | Version:  plus.master.MPPICInterFoam            |
|   \\  /    A nd           | Web:      www.OpenFOAM.com                      |
|    \\/     M anipulation  |                                                 |
\*---------------------------------------------------------------------------*/
FoamFile
{
    version     2.0;
    format      ascii;
    class       volScalarField;
    location    "7.4";
    object      p;
}
// * * * * * * * * * * * * * * * * * * * * * * * * * * * * * * * * * * * * * //

dimensions      [1 -1 -2 0 0 0 0];

internalField   nonuniform List<scalar> 
11821
(
2333.58
2333.94
2333.6
2333.64
2333.58
2333.75
2245.64
2247.48
2248.58
2248.55
2247.64
2245.58
2244.17
2247.78
2252.85
2257.06
2257.24
2253.4
2247.98
2245.12
2249.72
2257.58
2257.08
2256.69
2256.64
2249.83
2245.63
2249.48
2256.89
2255.19
2250.31
2255.29
2249.62
2245.47
2248.26
2254.41
2256.07
2255.48
2255.08
2248.94
2245.41
2246.06
2249.03
2251.19
2251.38
2249.62
2246.33
2244.43
2244.5
2245.54
2245.99
2246
2245.74
2244.5
2243.55
2151.38
2152.14
2153.41
2153.19
2151.86
2151.01
2150.16
2151.95
2153.73
2160.65
2161
2154.88
2151.76
2150.95
2154.21
2161.19
2166.46
2167.02
2161.08
2153.49
2151.55
2152.49
2158.94
2165.78
2168.04
2161.77
2153.4
2151.5
2151.05
2155.3
2161.76
2162.89
2157.57
2152.22
2151.12
2150.79
2151.39
2153.85
2154.17
2152.41
2151.14
2150.36
2150.24
2150.8
2151.21
2151.31
2151.04
2150.34
2149.59
2046.06
2043.35
2041.14
2041.67
2044.2
2046.73
2049.46
2042.16
2037.44
2035.97
2036.39
2038.27
2044.55
2048.17
2037.58
2034.08
2044.65
2045.41
2038.08
2041.96
2047.66
2039.29
2039.37
2046.21
2048.28
2039.99
2041.93
2047.57
2041.99
2036.46
2040.78
2041.05
2037.1
2043.38
2047.79
2045.26
2042.19
2039.36
2039.87
2042.32
2045.74
2048.97
2048.44
2046.64
2046.17
2046.3
2046.99
2048.7
2050.43
1954.92
1953.65
1951.76
1952.48
1953.78
1954.81
1957.05
1953.89
1953.51
1948.56
1947.38
1951.58
1954.02
1955.53
1952.38
1948.78
1949.46
1947.82
1949.8
1952.66
1954.75
1953.95
1951.52
1951.78
1952.62
1950.72
1952.67
1954.89
1954.7
1952.84
1952.83
1951.96
1951.18
1954.36
1955.54
1955.28
1955.42
1952.8
1952.73
1954.59
1954.97
1956.77
1956.75
1955.25
1954.74
1954.76
1955.3
1956.59
1958.39
1880.64
1884.24
1885.51
1886.11
1883.67
1879.46
1877.28
1885.74
1889.61
1891.04
1889.86
1888.92
1883.48
1878.34
1889.87
1891.48
1888.5
1887.42
1889.54
1885.5
1879.23
1889.17
1890.21
1888.6
1889.66
1890.2
1886.12
1879.64
1887.54
1892.07
1892.51
1892.39
1891.73
1885.65
1879.28
1882.96
1888.47
1889.95
1889.82
1887.48
1881.74
1878.01
1878.97
1880.9
1882.05
1881.98
1880.48
1878.25
1877.03
1797.77
1802.19
1805.49
1805.7
1802.08
1797.27
1794.36
1802.53
1809.61
1813.38
1814.38
1810.21
1801.89
1796.12
1806.27
1811.31
1810.74
1812.83
1812.62
1805.03
1797.41
1806.22
1812.1
1810.59
1811.12
1812.5
1805.1
1797.54
1804.11
1812.73
1814.48
1814.74
1811.59
1802.96
1796.53
1799.37
1805.33
1809.21
1808.81
1804.5
1798.54
1794.71
1795.5
1797.76
1799.4
1799.26
1797.39
1794.9
1793.04
1705.44
1707.35
1709.19
1709.23
1707.27
1705.21
1703.76
1707.22
1711.94
1716.29
1716.69
1712
1707.26
1704.91
1708.34
1715.64
1726.09
1726.25
1716.49
1709.03
1705.71
1706.86
1713.03
1725.3
1725.74
1715.08
1708.58
1705.59
1705.83
1709.25
1714.16
1714.12
1710.56
1706.54
1704.59
1704.72
1705.89
1708.13
1708.07
1706.3
1704.7
1703.4
1703.56
1704.41
1705.11
1705.09
1704.35
1703.32
1702.29
1607.99
1607.61
1607.91
1607.94
1607.76
1607.89
1608.07
1607.29
1605.41
1607.24
1607.04
1605.63
1607.47
1608.23
1605.9
1607.7
1616
1615.39
1607.63
1606.95
1608.48
1607.01
1607.36
1615.03
1616.89
1608.45
1606.93
1608.39
1606.2
1604.67
1605.77
1606.8
1605.25
1606.88
1607.84
1607.13
1605.83
1604.62
1605.01
1606.36
1607.08
1607.55
1607.63
1607.62
1607.76
1607.81
1607.59
1607.51
1607.45
1512.15
1511.47
1509.55
1509.66
1511.38
1511.73
1512.63
1512.18
1510.87
1511.48
1511.12
1510.4
1511.44
1512.14
1511.97
1511.65
1508.67
1509.33
1511.57
1510.43
1511.67
1513.48
1512.05
1508.76
1508.84
1512.19
1510.52
1511.59
1512.44
1512.11
1511.1
1511.16
1511.27
1511.66
1511.93
1512.22
1512.37
1510.79
1511.01
1511.93
1511.67
1512.37
1512.7
1512.25
1512.07
1512.09
1512.16
1512.46
1512.94
1423
1423.77
1422.24
1422.43
1423.17
1422.06
1421.85
1425.39
1426.02
1425.69
1425.53
1425.49
1423.8
1422.03
1427.23
1426.11
1421.74
1421.54
1426.07
1424.51
1422.06
1427.93
1427.31
1425.95
1423.89
1427.48
1425.17
1422.33
1426.86
1427.56
1426.47
1426.95
1427.31
1425.67
1422.73
1424.89
1427.48
1428.17
1428.26
1426.71
1423.89
1422.55
1423.28
1423.76
1423.9
1423.78
1423.44
1422.76
1422.43
1335.48
1338.08
1338.34
1338.78
1337.09
1334.29
1332.85
1339.69
1344.46
1345.66
1344.07
1342.75
1337.51
1333.85
1342.61
1346.79
1344.78
1343.73
1344.63
1339.67
1334.52
1342.59
1348.73
1350.52
1342.83
1345.46
1339.28
1334.64
1341.95
1346.81
1349.37
1346.98
1344.53
1339.17
1334.59
1337.93
1342.24
1342.94
1342.6
1340.3
1336.16
1333.67
1334.8
1336.16
1336.49
1336.31
1335.39
1333.91
1332.83
1242.47
1244.96
1246.17
1246.25
1244.67
1242.26
1240.73
1245.57
1251.01
1253.42
1253.6
1250.01
1245.05
1241.9
1247.9
1254.48
1256.17
1257.03
1253.03
1246.92
1242.73
1248.01
1253.14
1251.5
1256.08
1252.3
1246.73
1242.83
1246.98
1252.94
1255.5
1254.12
1250.78
1245.67
1242.35
1243.78
1247.16
1248.79
1248.18
1246.07
1243.16
1241.29
1241.69
1243.02
1243.72
1243.58
1242.69
1241.41
1240.3
1141.43
1140.87
1140.37
1140.53
1140.45
1141.26
1142.02
1140.6
1138.96
1137.19
1138.88
1137.63
1140
1141.7
1139.31
1136.51
1135.89
1141.31
1135.69
1138.33
1141.26
1138.7
1134.23
1137.54
1139.92
1133.32
1137.1
1140.93
1139.46
1136.93
1132.16
1133.17
1135.78
1138.69
1141.22
1140.64
1139.23
1137.69
1137.7
1138.77
1140.39
1141.79
1141.86
1141.51
1141.25
1141.23
1141.42
1141.88
1142.27
1040.62
1038.13
1036.16
1036.48
1037.89
1040.28
1043.03
1037.62
1034.48
1033.93
1031.95
1034.44
1037.47
1041.53
1034.66
1034.92
1033.09
1034.22
1033.98
1035.34
1040.37
1034.43
1035.8
1034.72
1034.71
1036.94
1036.75
1040.38
1037.47
1035.65
1034.72
1033.96
1037.06
1038.07
1041.41
1040.02
1037.68
1034.31
1035.04
1038.15
1040.17
1043.05
1042.98
1041.64
1040.71
1040.88
1041.81
1043.22
1044.63
948.685
947.697
945.985
946.113
948.74
949.249
950.835
948.064
948.011
948.278
948.212
949.236
949.579
950.052
947.509
948.931
946.252
948.953
950.165
950.404
949.659
948.774
950.483
948.304
949.663
951.721
951.607
949.93
949.873
950.184
950.723
951.131
951.333
951.142
950.643
949.904
950.259
949.683
949.996
950.94
950.471
951.479
951.28
950.531
949.983
950.062
950.826
951.596
952.538
863.462
864.501
864.849
865.36
865.701
864.138
863.762
865.247
866.239
865.562
867.127
866.675
866.501
863.677
867.189
866.557
864.131
865.911
867.447
868.172
863.81
868.052
867.356
864.241
867.155
868.333
868.773
864.112
866.939
867.498
868.063
868.994
868.455
867.997
864.45
865.025
867.28
869.162
869.112
868.125
865.61
864.426
864.39
864.359
864.424
864.549
864.739
864.567
864.669
2335.1
2335.09
2334.1
2334.47
2334.73
2334.91
2335
2335.03
2333.35
2333.78
2334.17
2334.49
2334.74
2334.91
2335
2335.03
2333.74
2334.03
2334.33
2334.6
2334.8
2334.95
2335.02
2335.04
2333.84
2334.15
2334.43
2334.67
2334.86
2334.98
2335.04
2335.05
2333.95
2334.21
2334.47
2334.69
2334.87
2334.99
2335.04
2335.04
2243.08
2242.56
2242.22
2241.99
2241.84
2241.74
2241.67
2241.64
2243.72
2242.94
2242.42
2242.07
2241.86
2241.72
2241.63
2241.59
2244.04
2243.1
2242.49
2242.08
2241.82
2241.67
2241.58
2241.54
2244.01
2243.1
2242.48
2242.07
2241.8
2241.65
2241.56
2241.52
2243.9
2243.02
2242.42
2242.03
2241.79
2241.65
2241.55
2241.51
2243.37
2242.7
2242.24
2241.94
2241.75
2241.63
2241.55
2241.5
2242.77
2242.33
2242.03
2241.83
2241.7
2241.61
2241.54
2241.5
2149.3
2148.81
2148.49
2148.28
2148.15
2148.08
2148.04
2148.02
2149.86
2149.14
2148.66
2148.35
2148.17
2148.06
2148
2148
2150.25
2149.35
2148.74
2148.37
2148.14
2148.02
2147.97
2147.96
2150.26
2149.34
2148.72
2148.33
2148.11
2147.99
2147.94
2147.94
2150
2149.17
2148.62
2148.28
2148.08
2147.97
2147.93
2147.92
2149.5
2148.88
2148.47
2148.21
2148.05
2147.97
2147.93
2147.92
2148.98
2148.57
2148.3
2148.13
2148.03
2147.97
2147.93
2147.91
2051.04
2052
2052.76
2053.36
2053.83
2054.19
2054.45
2054.63
2050.36
2051.62
2052.57
2053.27
2053.8
2054.19
2054.48
2054.7
2050.02
2051.4
2052.41
2053.16
2053.73
2054.17
2054.49
2054.73
2049.94
2051.35
2052.38
2053.15
2053.73
2054.18
2054.51
2054.75
2050.18
2051.52
2052.5
2053.24
2053.79
2054.22
2054.53
2054.76
2050.84
2051.96
2052.8
2053.43
2053.92
2054.29
2054.56
2054.76
2051.71
2052.49
2053.12
2053.64
2054.04
2054.35
2054.58
2054.74
1958.84
1960.13
1961.18
1962.02
1962.69
1963.23
1963.66
1963.95
1957.87
1959.54
1960.83
1961.83
1962.6
1963.21
1963.69
1964.03
1957.3
1959.13
1960.57
1961.67
1962.52
1963.19
1963.71
1964.08
1957.31
1959.13
1960.57
1961.69
1962.55
1963.22
1963.75
1964.11
1957.82
1959.49
1960.82
1961.86
1962.67
1963.3
1963.79
1964.13
1958.69
1960.13
1961.27
1962.16
1962.85
1963.41
1963.84
1964.14
1959.79
1960.86
1961.75
1962.47
1963.04
1963.5
1963.87
1964.12
1876.24
1875.98
1875.83
1875.78
1875.83
1875.97
1876.18
1876.39
1876.66
1876.07
1875.8
1875.71
1875.75
1875.89
1876.13
1876.36
1876.98
1876.15
1875.8
1875.68
1875.7
1875.85
1876.08
1876.32
1877.17
1876.24
1875.84
1875.69
1875.7
1875.83
1876.06
1876.3
1877.04
1876.21
1875.84
1875.7
1875.71
1875.83
1876.04
1876.27
1876.56
1876.03
1875.78
1875.7
1875.73
1875.85
1876.04
1876.24
1876.11
1875.89
1875.78
1875.74
1875.77
1875.88
1876.06
1876.23
1792.26
1791.11
1790.19
1789.5
1789.04
1788.81
1788.77
1788.85
1793.28
1791.59
1790.37
1789.52
1788.97
1788.69
1788.63
1788.7
1793.97
1791.99
1790.57
1789.59
1788.95
1788.6
1788.51
1788.58
1794.08
1792.04
1790.58
1789.56
1788.89
1788.52
1788.41
1788.48
1793.48
1791.64
1790.31
1789.37
1788.75
1788.41
1788.32
1788.38
1792.4
1790.93
1789.86
1789.09
1788.58
1788.31
1788.24
1788.3
1791.26
1790.28
1789.5
1788.89
1788.48
1788.26
1788.22
1788.27
1702.28
1701.29
1700.45
1699.78
1699.3
1699.02
1698.91
1698.93
1703.06
1701.68
1700.6
1699.8
1699.24
1698.89
1698.75
1698.76
1703.59
1702
1700.77
1699.85
1699.19
1698.78
1698.62
1698.63
1703.54
1701.95
1700.7
1699.76
1699.08
1698.66
1698.49
1698.5
1702.88
1701.48
1700.36
1699.51
1698.9
1698.52
1698.37
1698.37
1702
1700.85
1699.92
1699.21
1698.7
1698.38
1698.26
1698.27
1701.12
1700.28
1699.56
1698.98
1698.56
1698.31
1698.22
1698.23
1607.8
1607.53
1607.26
1607.04
1606.88
1606.8
1606.81
1606.87
1607.93
1607.6
1607.28
1607.01
1606.81
1606.7
1606.69
1606.76
1608
1607.63
1607.27
1606.96
1606.72
1606.6
1606.58
1606.66
1607.95
1607.55
1607.19
1606.87
1606.63
1606.5
1606.49
1606.57
1607.67
1607.34
1607.01
1606.73
1606.52
1606.41
1606.41
1606.49
1607.42
1607.13
1606.85
1606.61
1606.43
1606.35
1606.35
1606.42
1607.24
1606.98
1606.73
1606.52
1606.38
1606.32
1606.34
1606.39
1513.12
1513.4
1513.6
1513.75
1513.88
1514.01
1514.16
1514.29
1512.85
1513.26
1513.51
1513.68
1513.81
1513.94
1514.1
1514.25
1512.61
1513.09
1513.39
1513.58
1513.73
1513.87
1514.04
1514.2
1512.55
1513.04
1513.34
1513.54
1513.69
1513.84
1514.01
1514.18
1512.71
1513.12
1513.38
1513.55
1513.69
1513.83
1513.99
1514.16
1512.94
1513.26
1513.47
1513.62
1513.73
1513.86
1514.01
1514.15
1513.27
1513.46
1513.59
1513.7
1513.8
1513.91
1514.04
1514.16
1421.75
1421.79
1421.82
1421.85
1421.92
1422.02
1422.16
1422.3
1421.79
1421.78
1421.79
1421.82
1421.88
1421.98
1422.13
1422.29
1421.8
1421.76
1421.76
1421.79
1421.85
1421.95
1422.11
1422.28
1421.95
1421.85
1421.82
1421.83
1421.87
1421.97
1422.12
1422.28
1422.16
1421.99
1421.92
1421.9
1421.93
1422.01
1422.15
1422.3
1422.16
1422.04
1421.99
1421.98
1422
1422.07
1422.2
1422.33
1422.17
1422.12
1422.09
1422.08
1422.09
1422.16
1422.27
1422.38
1331.86
1331.33
1330.9
1330.59
1330.39
1330.32
1330.33
1330.4
1332.4
1331.6
1331.04
1330.65
1330.41
1330.3
1330.32
1330.39
1332.77
1331.83
1331.17
1330.72
1330.44
1330.3
1330.3
1330.38
1332.91
1331.93
1331.25
1330.77
1330.47
1330.32
1330.31
1330.39
1332.86
1331.9
1331.24
1330.79
1330.5
1330.35
1330.34
1330.41
1332.4
1331.65
1331.12
1330.74
1330.5
1330.38
1330.38
1330.44
1331.92
1331.43
1331.04
1330.74
1330.54
1330.45
1330.44
1330.49
1239.58
1238.87
1238.3
1237.89
1237.6
1237.44
1237.38
1237.39
1240.32
1239.31
1238.57
1238.04
1237.68
1237.47
1237.39
1237.39
1240.83
1239.63
1238.76
1238.14
1237.73
1237.48
1237.38
1237.39
1240.93
1239.7
1238.81
1238.18
1237.75
1237.49
1237.38
1237.39
1240.65
1239.53
1238.71
1238.13
1237.73
1237.49
1237.4
1237.41
1240.03
1239.16
1238.5
1238.03
1237.7
1237.5
1237.42
1237.43
1239.41
1238.8
1238.31
1237.94
1237.68
1237.53
1237.46
1237.46
1142.38
1142.52
1142.62
1142.72
1142.8
1142.87
1142.93
1142.99
1142.39
1142.66
1142.79
1142.86
1142.9
1142.94
1142.99
1143.06
1142.29
1142.63
1142.79
1142.87
1142.91
1142.95
1143.01
1143.1
1142.2
1142.59
1142.78
1142.87
1142.92
1142.97
1143.04
1143.13
1142.28
1142.63
1142.8
1142.89
1142.95
1143
1143.07
1143.16
1142.48
1142.73
1142.86
1142.94
1142.99
1143.05
1143.11
1143.19
1142.67
1142.77
1142.85
1142.93
1143.01
1143.08
1143.14
1143.21
1044.78
1045.82
1046.68
1047.39
1047.95
1048.37
1048.65
1048.84
1044.17
1045.67
1046.74
1047.51
1048.06
1048.47
1048.77
1048.99
1043.68
1045.44
1046.62
1047.45
1048.05
1048.5
1048.83
1049.08
1043.68
1045.45
1046.63
1047.48
1048.1
1048.56
1048.91
1049.16
1044.24
1045.77
1046.85
1047.63
1048.21
1048.65
1048.98
1049.22
1045.07
1046.29
1047.19
1047.86
1048.37
1048.76
1049.05
1049.26
1045.92
1046.73
1047.42
1048
1048.47
1048.83
1049.09
1049.27
952.017
953.05
953.993
954.804
955.473
956.026
956.438
956.737
951.715
952.984
954.029
954.881
955.566
956.117
956.564
956.891
951.489
952.84
953.93
954.826
955.553
956.152
956.64
957.002
951.639
952.936
954.009
954.903
955.636
956.236
956.726
957.093
952.146
953.288
954.28
955.113
955.799
956.361
956.822
957.164
952.716
953.75
954.648
955.392
956.003
956.501
956.909
957.209
953.385
954.193
954.941
955.594
956.141
956.592
956.955
957.217
863.886
864.378
864.875
865.333
865.759
866.185
866.571
866.887
863.737
864.206
864.73
865.228
865.698
866.15
866.586
866.937
863.678
864.086
864.624
865.164
865.672
866.152
866.613
866.988
863.855
864.2
864.715
865.243
865.742
866.211
866.663
867.032
864.182
864.487
864.954
865.434
865.887
866.311
866.725
867.065
864.381
864.769
865.227
865.658
866.056
866.429
866.791
867.086
864.668
865.111
865.527
865.884
866.21
866.528
866.843
867.099
2243.59
2242.99
2242.53
2242.22
2242.02
2241.89
2241.82
2241.8
2244.43
2243.52
2242.88
2242.43
2242.15
2241.97
2241.88
2241.85
2245.54
2244.18
2243.28
2242.68
2242.29
2242.05
2241.94
2241.92
2246.01
2244.44
2243.45
2242.78
2242.35
2242.1
2241.98
2241.97
2246.21
2244.58
2243.55
2242.87
2242.43
2242.17
2242.05
2242.03
2245.32
2244.11
2243.29
2242.74
2242.39
2242.18
2242.08
2242.07
2244.25
2243.49
2242.92
2242.54
2242.3
2242.16
2242.09
2242.07
2149.75
2149.18
2148.74
2148.44
2148.26
2148.16
2148.1
2148.1
2150.3
2149.56
2148.97
2148.57
2148.32
2148.17
2148.11
2148.11
2151.26
2150.21
2149.34
2148.78
2148.42
2148.21
2148.13
2148.15
2152.06
2150.71
2149.59
2148.92
2148.5
2148.26
2148.16
2148.19
2152.5
2150.88
2149.69
2149
2148.58
2148.33
2148.23
2148.25
2151.27
2150.23
2149.42
2148.89
2148.56
2148.37
2148.29
2148.29
2150.6
2149.82
2149.2
2148.8
2148.54
2148.4
2148.33
2148.33
2050.52
2051.64
2052.46
2053.09
2053.58
2053.97
2054.25
2054.47
2048.45
2050.3
2051.6
2052.53
2053.22
2053.73
2054.1
2054.38
2046.54
2049.19
2050.88
2052.06
2052.89
2053.5
2053.95
2054.28
2045.18
2048.43
2050.42
2051.76
2052.69
2053.35
2053.85
2054.21
2044.86
2048.36
2050.41
2051.76
2052.7
2053.36
2053.85
2054.2
2046.66
2049.28
2050.95
2052.11
2052.93
2053.52
2053.94
2054.24
2049.1
2050.73
2051.81
2052.62
2053.24
2053.7
2054.04
2054.29
1958.56
1959.93
1961.01
1961.87
1962.56
1963.12
1963.58
1963.92
1956.84
1958.68
1960.15
1961.29
1962.18
1962.88
1963.45
1963.86
1955.73
1957.64
1959.35
1960.72
1961.79
1962.62
1963.3
1963.79
1954.52
1956.71
1958.72
1960.29
1961.49
1962.43
1963.17
1963.71
1954.09
1956.6
1958.69
1960.28
1961.48
1962.4
1963.13
1963.66
1955.29
1957.54
1959.32
1960.69
1961.73
1962.54
1963.19
1963.65
1956.85
1958.7
1960.09
1961.18
1962.02
1962.7
1963.24
1963.63
1877.3
1876.79
1876.49
1876.33
1876.29
1876.38
1876.58
1876.81
1878.8
1877.42
1876.79
1876.47
1876.37
1876.44
1876.67
1876.94
1880.89
1878.25
1877.16
1876.66
1876.47
1876.52
1876.76
1877.07
1881.92
1878.56
1877.26
1876.69
1876.49
1876.53
1876.79
1877.13
1881.89
1878.53
1877.22
1876.68
1876.47
1876.52
1876.79
1877.12
1879.8
1877.8
1876.95
1876.55
1876.42
1876.5
1876.75
1877.05
1877.58
1876.89
1876.54
1876.36
1876.33
1876.45
1876.69
1876.95
1793.16
1791.98
1791
1790.24
1789.71
1789.43
1789.38
1789.45
1795.15
1793.24
1791.83
1790.79
1790.1
1789.72
1789.62
1789.71
1797.53
1794.63
1792.78
1791.45
1790.56
1790.05
1789.91
1790
1798.8
1795.3
1793.27
1791.81
1790.83
1790.26
1790.1
1790.19
1798.59
1795.15
1793.16
1791.76
1790.82
1790.29
1790.14
1790.24
1796.63
1794.14
1792.52
1791.34
1790.57
1790.15
1790.06
1790.16
1794.17
1792.78
1791.7
1790.87
1790.29
1790
1789.95
1790.04
1702.5
1701.68
1700.9
1700.25
1699.77
1699.47
1699.37
1699.39
1703.4
1702.44
1701.48
1700.69
1700.1
1699.74
1699.6
1699.63
1704.5
1703.39
1702.23
1701.25
1700.52
1700.06
1699.87
1699.9
1705.35
1704.11
1702.77
1701.67
1700.84
1700.31
1700.09
1700.11
1705.71
1704.21
1702.85
1701.74
1700.92
1700.4
1700.19
1700.21
1704.94
1703.6
1702.41
1701.45
1700.77
1700.34
1700.18
1700.2
1703.79
1702.83
1701.92
1701.15
1700.59
1700.26
1700.13
1700.14
1607.85
1607.72
1607.51
1607.31
1607.16
1607.09
1607.11
1607.18
1607.59
1607.68
1607.56
1607.4
1607.26
1607.19
1607.22
1607.31
1607.62
1607.85
1607.74
1607.57
1607.4
1607.31
1607.34
1607.45
1608.02
1608.15
1607.97
1607.75
1607.55
1607.44
1607.46
1607.57
1608.17
1608.23
1608.08
1607.86
1607.66
1607.54
1607.55
1607.66
1608.18
1608.24
1608.07
1607.88
1607.7
1607.6
1607.61
1607.7
1608.4
1608.33
1608.12
1607.89
1607.72
1607.63
1607.63
1607.69
1513.39
1513.73
1513.94
1514.1
1514.23
1514.37
1514.53
1514.68
1512.73
1513.34
1513.73
1513.99
1514.18
1514.35
1514.54
1514.73
1512.42
1513.13
1513.58
1513.89
1514.11
1514.31
1514.54
1514.77
1512.23
1512.99
1513.51
1513.84
1514.09
1514.31
1514.55
1514.8
1512.12
1512.97
1513.53
1513.89
1514.13
1514.35
1514.59
1514.82
1512.45
1513.25
1513.72
1514.03
1514.24
1514.43
1514.63
1514.83
1513.04
1513.62
1513.93
1514.14
1514.31
1514.47
1514.64
1514.8
1422.84
1422.74
1422.67
1422.62
1422.62
1422.68
1422.8
1422.93
1423.19
1422.85
1422.7
1422.62
1422.61
1422.67
1422.82
1422.99
1423.8
1423.01
1422.73
1422.62
1422.59
1422.66
1422.83
1423.04
1423.85
1422.96
1422.66
1422.55
1422.54
1422.62
1422.81
1423.03
1423.56
1422.79
1422.55
1422.47
1422.48
1422.57
1422.77
1422.99
1422.91
1422.56
1422.45
1422.42
1422.45
1422.55
1422.72
1422.91
1422.26
1422.28
1422.3
1422.33
1422.39
1422.5
1422.65
1422.8
1333.32
1332.58
1331.99
1331.56
1331.27
1331.11
1331.08
1331.13
1334.66
1333.31
1332.42
1331.79
1331.4
1331.19
1331.16
1331.21
1336.38
1334.15
1332.91
1332.09
1331.58
1331.3
1331.25
1331.32
1336.8
1334.32
1333
1332.15
1331.61
1331.32
1331.26
1331.34
1336.56
1334.15
1332.85
1332.02
1331.5
1331.24
1331.2
1331.28
1335.09
1333.39
1332.38
1331.7
1331.29
1331.09
1331.07
1331.15
1333.21
1332.36
1331.76
1331.34
1331.06
1330.93
1330.93
1331
1240.52
1239.73
1239.09
1238.6
1238.25
1238.03
1237.92
1237.9
1241.63
1240.43
1239.53
1238.86
1238.4
1238.12
1237.99
1237.96
1243.07
1241.26
1240.06
1239.2
1238.62
1238.25
1238.08
1238.06
1243.62
1241.58
1240.27
1239.34
1238.7
1238.3
1238.12
1238.09
1243.43
1241.43
1240.15
1239.24
1238.62
1238.25
1238.08
1238.05
1242.19
1240.68
1239.63
1238.89
1238.39
1238.09
1237.96
1237.94
1240.63
1239.7
1239
1238.49
1238.14
1237.92
1237.82
1237.81
1142.59
1142.79
1142.9
1142.97
1143.03
1143.07
1143.11
1143.15
1142.05
1142.6
1142.83
1142.94
1143
1143.04
1143.07
1143.13
1141.6
1142.45
1142.78
1142.92
1142.99
1143.03
1143.05
1143.12
1141.41
1142.42
1142.78
1142.92
1142.98
1143.01
1143.03
1143.1
1141.59
1142.48
1142.8
1142.91
1142.96
1142.98
1143
1143.06
1141.93
1142.53
1142.76
1142.86
1142.91
1142.93
1142.95
1142.99
1142.28
1142.52
1142.64
1142.73
1142.8
1142.86
1142.89
1142.92
1044.9
1045.95
1046.77
1047.42
1047.94
1048.33
1048.6
1048.79
1043.24
1045.05
1046.24
1047.09
1047.7
1048.14
1048.44
1048.67
1041.52
1044.15
1045.68
1046.71
1047.42
1047.93
1048.28
1048.54
1040.24
1043.55
1045.31
1046.45
1047.23
1047.77
1048.14
1048.42
1040.38
1043.59
1045.33
1046.45
1047.21
1047.73
1048.09
1048.35
1041.83
1044.26
1045.7
1046.67
1047.34
1047.79
1048.1
1048.32
1043.67
1045.09
1046.08
1046.84
1047.41
1047.82
1048.09
1048.29
952.39
953.314
954.134
954.86
955.471
955.97
956.366
956.648
951.376
952.622
953.654
954.499
955.178
955.734
956.184
956.515
950.398
951.951
953.111
954.059
954.832
955.459
955.972
956.361
949.428
951.279
952.622
953.678
954.524
955.217
955.775
956.198
949.066
951.064
952.508
953.607
954.47
955.147
955.692
956.101
949.65
951.5
952.813
953.833
954.621
955.235
955.721
956.077
950.769
952.114
953.159
954.027
954.737
955.3
955.737
956.045
864.267
864.667
865.078
865.462
865.825
866.183
866.539
866.829
864.184
864.361
864.746
865.161
865.576
865.998
866.416
866.762
864.201
864.099
864.415
864.86
865.325
865.809
866.295
866.705
863.923
863.685
864.035
864.549
865.083
865.621
866.162
866.618
863.524
863.47
863.89
864.427
864.986
865.532
866.077
866.532
863.169
863.502
864.021
864.561
865.092
865.598
866.09
866.493
863.054
863.598
864.174
864.718
865.219
865.688
866.131
866.48
2244.18
2243.4
2242.86
2242.5
2242.3
2242.12
2242.05
2242.02
2245.19
2244.01
2243.22
2242.68
2242.33
2242.12
2242.01
2242.02
2245.75
2244.32
2243.38
2242.75
2242.33
2242.08
2241.95
2241.94
2245.67
2244.24
2243.29
2242.66
2242.25
2242.01
2241.89
2241.84
2245.22
2243.95
2243.1
2242.56
2242.19
2241.97
2241.84
2241.79
2244.16
2243.29
2242.7
2242.31
2242.09
2241.93
2241.84
2241.79
2243.39
2242.84
2242.42
2242.14
2241.96
2241.88
2241.8
2241.75
2150.51
2149.74
2149.16
2148.77
2148.56
2148.4
2148.31
2148.35
2151.16
2150.15
2149.38
2148.86
2148.53
2148.34
2148.24
2148.26
2151.75
2150.56
2149.59
2148.94
2148.52
2148.28
2148.16
2148.19
2151.74
2150.53
2149.53
2148.87
2148.46
2148.22
2148.12
2148.12
2151.09
2150.07
2149.25
2148.73
2148.39
2148.2
2148.09
2148.09
2150.22
2149.44
2148.89
2148.53
2148.32
2148.18
2148.13
2148.11
2149.61
2149.07
2148.67
2148.41
2148.25
2148.18
2148.15
2148.12
2049.13
2050.71
2051.82
2052.64
2053.27
2053.73
2054.05
2054.32
2047.36
2049.7
2051.2
2052.27
2053.04
2053.58
2053.97
2054.26
2046.55
2049.28
2050.94
2052.09
2052.91
2053.5
2053.91
2054.25
2046.67
2049.34
2050.99
2052.12
2052.93
2053.52
2053.94
2054.24
2047.76
2050.01
2051.42
2052.43
2053.15
2053.69
2054.07
2054.36
2049.41
2050.98
2052.07
2052.87
2053.48
2053.92
2054.28
2054.49
2051.11
2052.02
2052.74
2053.32
2053.78
2054.13
2054.43
2054.61
1956.84
1958.68
1960.07
1961.16
1962.01
1962.69
1963.23
1963.6
1955.23
1957.53
1959.32
1960.68
1961.72
1962.51
1963.14
1963.57
1953.98
1956.66
1958.74
1960.31
1961.48
1962.37
1963.06
1963.54
1954.01
1956.63
1958.73
1960.3
1961.48
1962.37
1963.06
1963.53
1955.19
1957.52
1959.34
1960.72
1961.78
1962.58
1963.2
1963.64
1956.91
1958.76
1960.21
1961.33
1962.2
1962.86
1963.45
1963.77
1958.68
1960.01
1961.07
1961.91
1962.59
1963.13
1963.58
1963.89
1877.44
1876.77
1876.43
1876.26
1876.23
1876.4
1876.62
1876.88
1878.98
1877.28
1876.57
1876.24
1876.17
1876.27
1876.53
1876.81
1879.55
1877.3
1876.44
1876.11
1876.04
1876.14
1876.45
1876.72
1879.53
1877.19
1876.33
1876.01
1875.94
1876.05
1876.31
1876.62
1878.47
1876.81
1876.18
1875.93
1875.89
1876
1876.26
1876.54
1877.03
1876.27
1875.95
1875.83
1875.84
1876.02
1876.25
1876.5
1876.25
1876.01
1875.88
1875.83
1875.87
1876.07
1876.23
1876.45
1794.08
1792.66
1791.58
1790.76
1790.19
1789.94
1789.87
1789.97
1796.43
1793.91
1792.27
1791.09
1790.32
1789.9
1789.85
1789.9
1797.97
1794.64
1792.68
1791.3
1790.39
1789.88
1789.77
1789.82
1797.96
1794.55
1792.57
1791.19
1790.26
1789.73
1789.56
1789.64
1796.22
1793.62
1791.93
1790.72
1789.92
1789.47
1789.34
1789.41
1794.02
1792.3
1791.03
1790.12
1789.5
1789.23
1789.14
1789.22
1792.36
1791.27
1790.38
1789.69
1789.22
1789.04
1788.93
1789.03
1703.69
1702.69
1701.8
1701.06
1700.51
1700.23
1700.07
1700.08
1704.94
1703.49
1702.27
1701.33
1700.62
1700.17
1700.08
1700.02
1705.93
1704.14
1702.69
1701.54
1700.7
1700.16
1699.94
1699.92
1705.94
1704.11
1702.62
1701.43
1700.56
1700.01
1699.76
1699.74
1704.86
1703.34
1702.02
1700.97
1700.21
1699.72
1699.55
1699.53
1703.56
1702.31
1701.24
1700.41
1699.8
1699.49
1699.33
1699.34
1702.43
1701.47
1700.65
1699.99
1699.5
1699.26
1699.08
1699.12
1608.32
1608.24
1608.04
1607.84
1607.67
1607.63
1607.59
1607.65
1608.33
1608.28
1608.06
1607.82
1607.62
1607.5
1607.55
1607.55
1608.79
1608.5
1608.17
1607.85
1607.59
1607.42
1607.39
1607.45
1608.82
1608.51
1608.13
1607.77
1607.48
1607.31
1607.26
1607.34
1608.36
1608.18
1607.87
1607.55
1607.3
1607.15
1607.16
1607.22
1608.09
1607.87
1607.59
1607.33
1607.12
1607.1
1607.03
1607.11
1607.94
1607.66
1607.39
1607.16
1607
1606.96
1606.9
1606.96
1513.02
1513.58
1513.9
1514.11
1514.27
1514.47
1514.58
1514.73
1512.32
1513.1
1513.57
1513.88
1514.09
1514.28
1514.5
1514.61
1511.73
1512.76
1513.32
1513.68
1513.91
1514.09
1514.31
1514.49
1511.7
1512.73
1513.26
1513.6
1513.83
1514.02
1514.21
1514.43
1512.21
1512.93
1513.36
1513.63
1513.82
1514
1514.2
1514.38
1512.65
1513.17
1513.49
1513.7
1513.84
1514.08
1514.19
1514.33
1513.17
1513.48
1513.67
1513.8
1513.93
1514.07
1514.21
1514.39
1422.27
1422.28
1422.27
1422.28
1422.32
1422.43
1422.56
1422.7
1422.22
1422.05
1422.03
1422.05
1422.1
1422.26
1422.43
1422.59
1421.57
1421.61
1421.69
1421.79
1421.88
1422.04
1422.23
1422.44
1421.45
1421.48
1421.58
1421.69
1421.81
1421.96
1422.15
1422.38
1421.78
1421.66
1421.68
1421.73
1421.81
1421.95
1422.12
1422.31
1421.69
1421.71
1421.75
1421.79
1421.85
1421.99
1422.12
1422.35
1421.74
1421.84
1421.87
1421.9
1421.95
1422.05
1422.2
1422.4
1333.17
1332.33
1331.71
1331.26
1330.99
1330.85
1330.83
1330.9
1334.29
1332.8
1331.88
1331.26
1330.88
1330.78
1330.72
1330.81
1334.48
1332.82
1331.83
1331.18
1330.78
1330.65
1330.59
1330.7
1334.41
1332.71
1331.75
1331.12
1330.73
1330.54
1330.52
1330.63
1333.71
1332.35
1331.52
1330.96
1330.6
1330.43
1330.42
1330.54
1332.61
1331.78
1331.17
1330.74
1330.47
1330.36
1330.36
1330.5
1331.88
1331.39
1330.97
1330.65
1330.45
1330.36
1330.38
1330.47
1240.63
1239.68
1238.95
1238.43
1238.09
1237.86
1237.76
1237.75
1241.84
1240.36
1239.33
1238.6
1238.11
1237.88
1237.68
1237.67
1242.45
1240.72
1239.54
1238.7
1238.12
1237.84
1237.64
1237.65
1242.45
1240.7
1239.52
1238.69
1238.12
1237.76
1237.61
1237.6
1241.7
1240.24
1239.2
1238.45
1237.94
1237.64
1237.51
1237.57
1240.58
1239.53
1238.73
1238.15
1237.77
1237.54
1237.46
1237.47
1239.68
1238.93
1238.35
1237.93
1237.64
1237.49
1237.44
1237.44
1142.31
1142.52
1142.63
1142.72
1142.81
1142.83
1142.87
1142.91
1142.09
1142.55
1142.71
1142.78
1142.81
1142.82
1142.84
1142.93
1142.01
1142.59
1142.76
1142.81
1142.81
1142.84
1142.82
1142.89
1142.05
1142.61
1142.77
1142.81
1142.84
1142.83
1142.87
1142.93
1142.02
1142.54
1142.7
1142.77
1142.8
1142.81
1142.85
1142.97
1142.24
1142.56
1142.69
1142.77
1142.82
1142.86
1142.92
1142.98
1142.51
1142.58
1142.65
1142.72
1142.79
1142.88
1142.94
1143
1043.71
1045.12
1046.11
1046.86
1047.44
1047.82
1048.1
1048.29
1042.19
1044.41
1045.76
1046.69
1047.34
1047.77
1048.07
1048.38
1041.4
1044.02
1045.53
1046.55
1047.25
1047.74
1048.07
1048.39
1041.51
1044.09
1045.56
1046.56
1047.28
1047.79
1048.15
1048.43
1042.14
1044.42
1045.81
1046.77
1047.44
1047.94
1048.28
1048.58
1043.43
1045.13
1046.27
1047.11
1047.72
1048.16
1048.49
1048.71
1044.88
1045.88
1046.69
1047.35
1047.87
1048.32
1048.58
1048.79
950.78
952.156
953.192
954.04
954.738
955.295
955.765
956.063
949.474
951.357
952.706
953.756
954.568
955.2
955.706
956.134
948.543
950.797
952.339
953.507
954.409
955.119
955.668
956.156
948.644
950.903
952.403
953.548
954.457
955.167
955.733
956.146
949.933
951.618
952.904
953.936
954.764
955.444
955.974
956.423
950.953
952.366
953.497
954.407
955.142
955.742
956.242
956.548
952.031
953.061
953.953
954.734
955.387
955.984
956.356
956.67
863.126
863.694
864.24
864.751
865.23
865.699
866.165
866.511
862.975
863.384
863.958
864.538
865.092
865.63
866.166
866.594
862.785
863.139
863.721
864.346
864.959
865.539
866.1
866.621
862.943
863.244
863.801
864.422
865.016
865.582
866.137
866.647
863.48
863.68
864.17
864.714
865.253
865.786
866.298
866.728
863.606
864.024
864.548
865.052
865.524
866.068
866.448
866.82
863.846
864.388
864.883
865.324
865.737
866.21
866.535
866.866
2334.07
2334.36
2334.59
2334.79
2334.93
2335.03
2335.07
2335.08
2333.81
2334.16
2334.46
2334.71
2334.91
2335.02
2335.08
2335.09
2333.74
2334.06
2334.39
2334.66
2334.9
2335.02
2335.09
2335.12
2333.28
2333.8
2334.24
2334.57
2334.82
2334.98
2335.07
2335.15
2334.13
2334.49
2334.77
2334.9
2335
2335.04
2334.99
2335.04
2242.88
2242.47
2242.14
2241.91
2241.75
2241.65
2241.57
2241.53
2243.38
2242.76
2242.31
2242
2241.81
2241.67
2241.58
2241.53
2244.13
2243.22
2242.58
2242.17
2241.92
2241.72
2241.64
2241.56
2244.36
2243.39
2242.71
2242.25
2241.96
2241.75
2241.65
2241.59
2244.33
2243.37
2242.75
2242.29
2242
2241.76
2241.64
2241.6
2244.03
2243.19
2242.62
2242.22
2241.95
2241.77
2241.68
2241.65
2243.36
2242.8
2242.41
2242.13
2241.94
2241.81
2241.74
2241.71
2149.09
2148.7
2148.39
2148.19
2148.06
2147.99
2147.94
2147.92
2149.51
2148.92
2148.5
2148.26
2148.08
2147.98
2147.92
2147.9
2150.1
2149.29
2148.72
2148.36
2148.15
2148
2147.94
2147.9
2150.38
2149.5
2148.85
2148.43
2148.19
2148
2147.94
2147.9
2150.35
2149.5
2148.88
2148.46
2148.22
2148.03
2147.94
2147.92
2150.01
2149.3
2148.79
2148.44
2148.21
2148.07
2147.99
2147.97
2149.5
2149
2148.63
2148.37
2148.2
2148.1
2148.04
2148.03
2051.77
2052.58
2053.18
2053.66
2054.05
2054.34
2054.55
2054.74
2050.68
2051.87
2052.74
2053.4
2053.86
2054.22
2054.46
2054.69
2049.74
2051.27
2052.33
2053.14
2053.69
2054.1
2054.4
2054.62
2049.24
2050.93
2052.1
2052.95
2053.57
2054
2054.34
2054.55