/*--------------------------------*- C++ -*----------------------------------*\
| =========                 |                                                 |
| \\      /  F ield         | OpenFOAM: The Open Source CFD Toolbox           |
|  \\    /   O peration     | Version:  plus.master.MPPICInterFoam            |
|   \\  /    A nd           | Web:      www.OpenFOAM.com                      |
|    \\/     M anipulation  |                                                 |
\*---------------------------------------------------------------------------*/
FoamFile
{
    version     2.0;
    format      ascii;
    class       volScalarField;
    location    "9.6";
    object      epsilon;
}
// * * * * * * * * * * * * * * * * * * * * * * * * * * * * * * * * * * * * * //

dimensions      [0 2 -3 0 0 0 0];

internalField   nonuniform List<scalar> 
11821
(
4.78718e-05
1.49521e-05
1.02959e-05
9.3622e-06
9.23738e-06
9.29044e-06
9.31236e-06
9.22866e-06
4.842e-05
1.51522e-05
1.04755e-05
9.56045e-06
9.45981e-06
9.53392e-06
9.56938e-06
9.48846e-06
4.88125e-05
1.52906e-05
1.06173e-05
9.72465e-06
9.64719e-06
9.74066e-06
9.78909e-06
9.7124e-06
4.89683e-05
1.53548e-05
1.06995e-05
9.82472e-06
9.76264e-06
9.86846e-06
9.92538e-06
9.85196e-06
4.88367e-05
1.53152e-05
1.06989e-05
9.83723e-06
9.77957e-06
9.88725e-06
9.94508e-06
9.87213e-06
4.84168e-05
1.5172e-05
1.0613e-05
9.75738e-06
9.69309e-06
9.79242e-06
9.84421e-06
9.76977e-06
4.7772e-05
1.4922e-05
1.04523e-05
9.59894e-06
9.51958e-06
9.60156e-06
9.64063e-06
9.56279e-06
4.83539e-05
1.54162e-05
1.08745e-05
1.00544e-05
1.00327e-05
1.0168e-05
1.02408e-05
1.01661e-05
4.90131e-05
1.56642e-05
1.11157e-05
1.03254e-05
1.03368e-05
1.05001e-05
1.05914e-05
1.05217e-05
4.95112e-05
1.58468e-05
1.13122e-05
1.05534e-05
1.05949e-05
1.0784e-05
1.08931e-05
1.08303e-05
4.9745e-05
1.59401e-05
1.14302e-05
1.06939e-05
1.0755e-05
1.09608e-05
1.1082e-05
1.10246e-05
4.9652e-05
1.59115e-05
1.14413e-05
1.07151e-05
1.07812e-05
1.09901e-05
1.11135e-05
1.10576e-05
4.92269e-05
1.57625e-05
1.13387e-05
1.06107e-05
1.06667e-05
1.08653e-05
1.09817e-05
1.09242e-05
4.8544e-05
1.5511e-05
1.11375e-05
1.04e-05
1.04332e-05
1.06088e-05
1.07087e-05
1.0646e-05
4.91417e-05
1.60659e-05
1.16661e-05
1.09895e-05
1.10983e-05
1.13395e-05
1.1481e-05
1.14246e-05
4.99501e-05
1.63864e-05
1.19913e-05
1.13544e-05
1.15041e-05
1.17806e-05
1.19457e-05
1.18968e-05
5.05901e-05
1.66372e-05
1.2266e-05
1.16639e-05
1.18507e-05
1.21597e-05
1.23479e-05
1.23089e-05
5.09274e-05
1.67825e-05
1.24355e-05
1.18563e-05
1.20676e-05
1.23983e-05
1.26023e-05
1.25712e-05
5.08827e-05
1.67865e-05
1.24608e-05
1.18903e-05
1.21077e-05
1.24433e-05
1.26511e-05
1.26225e-05
5.04421e-05
1.66334e-05
1.23339e-05
1.17571e-05
1.19619e-05
1.22856e-05
1.24857e-05
1.24556e-05
4.96934e-05
1.63408e-05
1.20768e-05
1.14822e-05
1.16575e-05
1.1953e-05
1.21331e-05
1.20961e-05
5.03166e-05
1.69646e-05
1.27322e-05
1.22271e-05
1.24952e-05
1.28691e-05
1.31001e-05
1.30741e-05
5.13226e-05
1.73895e-05
1.31694e-05
1.27062e-05
1.30226e-05
1.34388e-05
1.36981e-05
1.36819e-05
5.21514e-05
1.77536e-05
1.35407e-05
1.31148e-05
1.34753e-05
1.39308e-05
1.42184e-05
1.42151e-05
5.26234e-05
1.79838e-05
1.37717e-05
1.33707e-05
1.37608e-05
1.42432e-05
1.45506e-05
1.45575e-05
5.26355e-05
1.80144e-05
1.38137e-05
1.34216e-05
1.38199e-05
1.43094e-05
1.46223e-05
1.46331e-05
5.21638e-05
1.78339e-05
1.36563e-05
1.3256e-05
1.36401e-05
1.41169e-05
1.4422e-05
1.44316e-05
5.13148e-05
1.74739e-05
1.33292e-05
1.29055e-05
1.32547e-05
1.36989e-05
1.39813e-05
1.39826e-05
5.199e-05
1.81905e-05
1.41413e-05
1.38293e-05
1.42877e-05
1.48242e-05
1.51683e-05
1.51875e-05
5.32549e-05
1.87746e-05
1.47097e-05
1.44413e-05
1.49544e-05
1.55388e-05
1.59151e-05
1.59457e-05
5.43261e-05
1.92797e-05
1.51945e-05
1.49653e-05
1.55286e-05
1.61585e-05
1.65673e-05
1.66135e-05
5.49615e-05
1.95894e-05
1.54967e-05
1.52953e-05
1.58934e-05
1.65549e-05
1.69871e-05
1.70457e-05
5.50375e-05
1.96426e-05
1.55584e-05
1.53674e-05
1.59763e-05
1.66475e-05
1.70874e-05
1.71512e-05
5.45177e-05
1.94261e-05
1.5366e-05
1.51666e-05
1.57612e-05
1.64199e-05
1.68526e-05
1.69161e-05
5.35302e-05
1.89816e-05
1.4957e-05
1.47311e-05
1.52869e-05
1.59101e-05
1.63184e-05
1.63732e-05
5.43078e-05
1.98504e-05
1.59548e-05
1.58592e-05
1.65411e-05
1.72725e-05
1.77561e-05
1.78386e-05
5.58933e-05
2.06129e-05
1.66724e-05
1.66194e-05
1.73597e-05
1.81425e-05
1.86601e-05
1.87544e-05
5.72588e-05
2.12632e-05
1.72857e-05
1.72724e-05
1.80669e-05
1.8899e-05
1.94522e-05
1.95637e-05
5.80875e-05
2.16624e-05
1.76683e-05
1.76849e-05
1.85186e-05
1.93865e-05
1.99659e-05
2.00916e-05
5.82354e-05
2.17418e-05
1.77532e-05
1.77821e-05
1.86296e-05
1.95101e-05
2.00994e-05
2.02319e-05
5.76499e-05
2.14836e-05
1.75232e-05
1.75452e-05
1.83797e-05
1.92492e-05
1.98331e-05
1.9967e-05
5.64843e-05
2.09399e-05
1.7023e-05
1.70185e-05
1.78127e-05
1.86456e-05
1.92051e-05
1.93307e-05
5.74299e-05
2.20092e-05
1.82366e-05
1.83796e-05
1.93193e-05
2.02801e-05
2.09328e-05
2.11003e-05
5.93928e-05
2.29597e-05
1.91163e-05
1.92973e-05
2.02951e-05
2.13072e-05
2.19931e-05
2.2171e-05
6.11126e-05
2.37762e-05
1.98721e-05
2.00886e-05
2.11403e-05
2.22023e-05
2.29245e-05
2.31202e-05
6.2162e-05
2.42759e-05
2.03418e-05
2.05884e-05
2.16826e-05
2.27835e-05
2.35337e-05
2.37446e-05
6.23879e-05
2.43848e-05
2.04525e-05
2.07136e-05
2.18251e-05
2.29418e-05
2.37044e-05
2.39239e-05
6.17186e-05
2.40806e-05
2.01839e-05
2.04418e-05
2.15433e-05
2.26521e-05
2.34123e-05
2.36358e-05
6.03367e-05
2.34254e-05
1.95869e-05
1.9822e-05
2.08848e-05
2.19585e-05
2.26961e-05
2.29129e-05
6.15269e-05
2.4732e-05
2.10491e-05
2.14515e-05
2.26839e-05
2.39111e-05
2.47669e-05
2.50477e-05
6.3926e-05
2.58895e-05
2.20996e-05
2.25284e-05
2.38128e-05
2.50868e-05
2.59712e-05
2.62574e-05
6.60685e-05
2.6895e-05
2.30087e-05
2.34615e-05
2.47931e-05
2.6113e-05
2.70317e-05
2.73348e-05
6.73593e-05
2.75019e-05
2.35674e-05
2.40486e-05
2.54251e-05
2.67859e-05
2.77333e-05
2.80516e-05
6.76644e-05
2.76412e-05
2.37046e-05
2.42032e-05
2.56015e-05
2.6982e-05
2.79444e-05
2.82731e-05
6.68919e-05
2.72875e-05
2.3398e-05
2.38997e-05
2.52934e-05
2.66709e-05
2.76354e-05
2.7972e-05
6.52576e-05
2.65126e-05
2.27037e-05
2.31907e-05
2.45506e-05
2.58973e-05
2.68429e-05
2.71758e-05
6.67915e-05
2.80995e-05
2.44553e-05
2.51344e-05
2.66957e-05
2.82311e-05
2.93315e-05
2.9759e-05
6.96881e-05
2.94792e-05
2.56783e-05
2.63638e-05
2.7964e-05
2.95355e-05
3.06545e-05
3.10821e-05
7.23462e-05
3.06961e-05
2.67484e-05
2.74363e-05
2.90677e-05
3.06754e-05
3.18236e-05
3.22636e-05
7.3891e-05
3.14086e-05
2.73913e-05
2.8105e-05
2.97842e-05
3.14342e-05
3.261e-05
3.30638e-05
7.42691e-05
3.1575e-05
2.75525e-05
2.82885e-05
2.9996e-05
3.16706e-05
3.28643e-05
3.33304e-05
7.33695e-05
3.117e-05
2.72104e-05
2.79589e-05
2.967e-05
3.13488e-05
3.25508e-05
3.30296e-05
7.1443e-05
3.02727e-05
2.64239e-05
2.71703e-05
2.88563e-05
3.05114e-05
3.17005e-05
3.218e-05
7.34608e-05
3.21958e-05
2.85192e-05
2.94902e-05
3.14206e-05
3.33146e-05
3.47067e-05
3.53218e-05
7.69456e-05
3.38055e-05
2.99088e-05
3.0857e-05
3.28048e-05
3.47166e-05
3.61162e-05
3.67239e-05
8.02767e-05
3.52557e-05
3.11452e-05
3.20608e-05
3.40106e-05
3.59422e-05
3.73626e-05
3.79789e-05
8.2082e-05
3.60595e-05
3.18589e-05
3.28002e-05
3.48042e-05
3.67788e-05
3.82224e-05
3.88468e-05
8.25165e-05
3.62431e-05
3.20371e-05
3.30098e-05
3.50528e-05
3.70583e-05
3.85225e-05
3.91612e-05
8.14567e-05
3.57875e-05
3.16642e-05
3.26621e-05
3.472e-05
3.67393e-05
3.82197e-05
3.88777e-05
7.91822e-05
3.47736e-05
3.07971e-05
3.18095e-05
3.38545e-05
3.58602e-05
3.73359e-05
3.80006e-05
8.18951e-05
3.71063e-05
3.3309e-05
3.45898e-05
3.69397e-05
3.92492e-05
4.09902e-05
4.18426e-05
8.59963e-05
3.89406e-05
3.48526e-05
3.60719e-05
3.8407e-05
4.07135e-05
4.24476e-05
4.32827e-05
8.99374e-05
4.0638e-05
3.62601e-05
3.73928e-05
3.96829e-05
4.19883e-05
4.37372e-05
4.45764e-05
9.18238e-05
4.14952e-05
3.70209e-05
3.81888e-05
4.0546e-05
4.28918e-05
4.46537e-05
4.54936e-05
9.22439e-05
4.16759e-05
3.72035e-05
3.84197e-05
4.08337e-05
4.32179e-05
4.50026e-05
4.58577e-05
9.10836e-05
4.1177e-05
3.6806e-05
3.80639e-05
4.05077e-05
4.29178e-05
4.47285e-05
4.56111e-05
8.86077e-05
4.00699e-05
3.58769e-05
3.71685e-05
3.96148e-05
4.20241e-05
4.38406e-05
4.47379e-05
9.20715e-05
4.29002e-05
3.89035e-05
4.05258e-05
4.33541e-05
4.61493e-05
4.83088e-05
4.94576e-05
9.656e-05
4.49312e-05
4.05829e-05
4.20929e-05
4.48712e-05
4.76383e-05
4.97729e-05
5.08916e-05
0.000101047
4.68937e-05
4.21639e-05
4.35055e-05
4.61939e-05
4.89342e-05
5.10732e-05
5.21883e-05
0.000102871
4.7745e-05
4.29436e-05
4.43505e-05
4.7102e-05
4.98819e-05
5.2027e-05
5.31359e-05
0.000103217
4.78952e-05
4.31104e-05
4.45944e-05
4.74307e-05
5.02572e-05
5.24261e-05
5.35514e-05
0.000101985
4.73611e-05
4.26958e-05
4.42418e-05
4.71269e-05
4.9994e-05
5.2201e-05
5.33639e-05
9.94156e-05
4.61924e-05
4.1729e-05
4.33296e-05
4.62354e-05
4.91171e-05
5.13424e-05
5.25298e-05
0.000103813
4.9642e-05
4.54078e-05
4.7417e-05
5.08002e-05
5.41687e-05
5.68306e-05
5.83445e-05
0.000108578
5.18424e-05
4.71952e-05
4.90424e-05
5.23356e-05
5.56469e-05
5.8262e-05
5.9729e-05
0.000113546
5.40991e-05
4.89312e-05
5.05311e-05
5.37177e-05
5.69574e-05
5.95491e-05
6.09969e-05
0.000115197
5.48661e-05
4.97154e-05
5.14096e-05
5.46358e-05
5.79181e-05
6.05183e-05
6.19573e-05
0.000115432
5.4959e-05
4.98479e-05
5.16461e-05
5.49794e-05
5.8333e-05
6.09666e-05
6.24268e-05
0.000114159
5.43986e-05
4.94227e-05
5.13091e-05
5.47142e-05
5.81258e-05
6.08119e-05
6.23221e-05
0.000111584
5.32021e-05
4.84468e-05
5.04102e-05
5.38564e-05
5.72997e-05
6.00186e-05
6.15648e-05
0.000117218
5.74496e-05
5.29615e-05
5.54245e-05
5.94629e-05
6.3515e-05
6.67804e-05
6.87382e-05
0.000122158
5.97798e-05
5.48283e-05
5.70819e-05
6.09891e-05
6.49513e-05
6.8144e-05
7.00339e-05
0.000127454
6.22984e-05
5.67153e-05
5.86954e-05
6.24283e-05
6.62559e-05
6.93952e-05
7.12467e-05
0.000128886
6.29518e-05
5.74649e-05
5.95311e-05
6.33349e-05
6.72216e-05
7.03677e-05
7.22077e-05
0.000129012
6.29736e-05
5.75495e-05
5.97366e-05
6.36724e-05
6.76656e-05
7.08648e-05
7.27371e-05
0.000127739
6.23986e-05
5.71205e-05
5.9428e-05
6.34623e-05
6.75334e-05
7.08026e-05
7.27398e-05
0.000125245
6.12094e-05
5.61667e-05
5.8576e-05
6.26729e-05
6.67935e-05
7.0111e-05
7.20969e-05
4.30982e-05
1.33909e-05
9.2095e-06
8.30215e-06
8.10491e-06
8.0766e-06
8.04837e-06
7.97025e-06
4.29496e-05
1.32907e-05
9.1531e-06
8.2629e-06
8.07336e-06
8.04966e-06
8.02692e-06
7.95868e-06
4.30078e-05
1.32856e-05
9.15448e-06
8.27416e-06
8.09578e-06
4.305e-05
1.31614e-05
4.32072e-05
4.33547e-05
1.36235e-05
9.50094e-06
8.65589e-06
8.51701e-06
8.53607e-06
8.53659e-06
8.46047e-06
4.3204e-05
1.35293e-05
9.44357e-06
8.61275e-06
8.48073e-06
8.5046e-06
8.51095e-06
8.44436e-06
4.32222e-05
1.35203e-05
9.43747e-06
8.61245e-06
8.4882e-06
8.52142e-06
8.53753e-06
8.4787e-06
4.32402e-05
1.34204e-05
9.3906e-06
8.592e-06
8.48073e-06
8.52209e-06
8.54967e-06
8.51724e-06
4.33709e-05
1.35133e-05
9.4232e-06
8.5994e-06
8.47619e-06
8.51032e-06
8.52792e-06
8.47229e-06
4.35246e-05
1.35582e-05
9.44374e-06
8.60975e-06
8.47883e-06
8.50503e-06
8.51361e-06
8.4482e-06
4.37778e-05
1.36642e-05
9.50059e-06
8.64998e-06
8.51332e-06
8.53765e-06
8.54409e-06
8.47238e-06
4.37792e-05
1.39661e-05
9.92161e-06
9.16249e-06
9.10585e-06
9.19358e-06
9.23886e-06
9.17263e-06
4.36254e-05
1.38742e-05
9.86092e-06
9.1144e-06
9.06513e-06
9.15938e-06
9.21255e-06
9.15729e-06
4.3608e-05
1.38589e-05
9.84831e-06
9.10685e-06
9.06526e-06
9.16947e-06
9.23339e-06
9.18699e-06
4.36163e-05
1.37808e-05
9.80722e-06
9.08269e-06
9.04698e-06
9.15199e-06
9.21764e-06
9.18242e-06
4.37108e-05
1.38495e-05
9.83211e-06
9.0903e-06
9.04817e-06
9.15157e-06
9.21501e-06
9.1693e-06
4.38449e-05
1.38845e-05
9.84866e-06
9.09926e-06
9.05072e-06
9.14692e-06
9.202e-06
9.14758e-06
4.40686e-05
1.39793e-05
9.90253e-06
9.14025e-06
9.08776e-06
9.18296e-06
9.23652e-06
9.17679e-06
4.44135e-05
1.44601e-05
1.05167e-05
9.87279e-06
9.92879e-06
1.01129e-05
1.02247e-05
1.01806e-05
4.42505e-05
1.43653e-05
1.04494e-05
9.81803e-06
9.88349e-06
1.00776e-05
1.0201e-05
1.01712e-05
4.42005e-05
1.43415e-05
1.04303e-05
9.80525e-06
9.88046e-06
1.00873e-05
1.02249e-05
1.02074e-05
4.42032e-05
1.42806e-05
1.03949e-05
9.78071e-06
9.85798e-06
1.00622e-05
1.01968e-05
1.01824e-05
4.42617e-05
1.43284e-05
1.04112e-05
9.78477e-06
9.85826e-06
1.0063e-05
1.01985e-05
1.01796e-05
4.4377e-05
1.43568e-05
1.04248e-05
9.79148e-06
9.85795e-06
1.00542e-05
1.01797e-05
1.01506e-05
4.45743e-05
1.44433e-05
1.04776e-05
9.83431e-06
9.89769e-06
1.00927e-05
1.02162e-05
1.01815e-05
4.53253e-05
1.51597e-05
1.13429e-05
1.08496e-05
1.1056e-05
1.13716e-05
1.15779e-05
1.15736e-05
4.51431e-05
1.50558e-05
1.12652e-05
1.07862e-05
1.1006e-05
1.13369e-05
1.15609e-05
1.15759e-05
4.50621e-05
1.50217e-05
1.12391e-05
1.07693e-05
1.10025e-05
1.13508e-05
1.1594e-05
1.16265e-05
4.50588e-05
1.49731e-05
1.12084e-05
1.0746e-05
1.09799e-05
1.13246e-05
1.15632e-05
1.15948e-05
4.50856e-05
1.50041e-05
1.12171e-05
1.07456e-05
1.09766e-05
1.13219e-05
1.15618e-05
1.15911e-05
4.5185e-05
1.50293e-05
1.12295e-05
1.07506e-05
1.09727e-05
1.1307e-05
1.1534e-05
1.155e-05
4.53623e-05
1.51096e-05
1.12839e-05
1.07972e-05
1.10163e-05
1.13482e-05
1.15714e-05
1.15804e-05
4.66148e-05
1.61336e-05
1.24695e-05
1.21684e-05
1.25708e-05
1.30609e-05
1.3397e-05
1.34556e-05
4.64001e-05
1.60137e-05
1.23772e-05
1.20942e-05
1.2516e-05
1.3029e-05
1.33908e-05
1.3476e-05
4.62877e-05
1.59677e-05
1.23437e-05
1.20742e-05
1.25148e-05
1.30511e-05
1.34387e-05
1.35477e-05
4.62768e-05
1.59275e-05
1.23171e-05
1.20537e-05
1.24952e-05
1.30291e-05
1.34127e-05
1.35197e-05
4.62792e-05
1.59464e-05
1.23206e-05
1.205e-05
1.24886e-05
1.30221e-05
1.3406e-05
1.35105e-05
4.63682e-05
1.59719e-05
1.23342e-05
1.20551e-05
1.24826e-05
1.30018e-05
1.33688e-05
1.34561e-05
4.65359e-05
1.60525e-05
1.23946e-05
1.21088e-05
1.25322e-05
1.30468e-05
1.34073e-05
1.34847e-05
4.8422e-05
1.74671e-05
1.39793e-05
1.39178e-05
1.45698e-05
1.52853e-05
1.57938e-05
1.59447e-05
4.81574e-05
1.73234e-05
1.38678e-05
1.38303e-05
1.45099e-05
1.5258e-05
1.58023e-05
1.59891e-05
4.8011e-05
1.72639e-05
1.38267e-05
1.38085e-05
1.45136e-05
1.52927e-05
1.58705e-05
1.60883e-05
4.79924e-05
1.723e-05
1.38047e-05
1.37932e-05
1.45013e-05
1.52806e-05
1.58569e-05
1.60736e-05
4.79806e-05
1.72424e-05
1.38066e-05
1.37894e-05
1.44944e-05
1.52722e-05
1.58469e-05
1.60598e-05
4.80683e-05
1.72725e-05
1.38254e-05
1.37983e-05
1.44897e-05
1.52496e-05
1.58035e-05
1.59945e-05
4.82419e-05
1.73622e-05
1.38975e-05
1.38637e-05
1.45491e-05
1.53013e-05
1.58446e-05
1.60219e-05
5.09323e-05
1.92631e-05
1.59685e-05
1.61984e-05
1.71611e-05
1.81611e-05
1.88915e-05
1.91701e-05
5.05959e-05
1.90868e-05
1.58325e-05
1.60948e-05
1.70952e-05
1.81393e-05
1.89175e-05
1.92431e-05
5.04107e-05
1.90125e-05
1.57841e-05
1.60728e-05
1.71067e-05
1.81904e-05
1.90108e-05
1.93751e-05
5.03877e-05
1.89852e-05
1.57691e-05
1.60668e-05
1.71072e-05
1.81952e-05
1.9018e-05
1.93841e-05
5.03755e-05
1.89977e-05
1.57749e-05
1.60684e-05
1.71061e-05
1.8192e-05
1.90117e-05
1.9372e-05
5.04761e-05
1.90387e-05
1.58045e-05
1.60871e-05
1.7109e-05
1.81739e-05
1.89686e-05
1.93022e-05
5.06772e-05
1.91472e-05
1.58957e-05
1.61703e-05
1.71836e-05
1.82367e-05
1.90162e-05
1.93311e-05
5.438e-05
2.16426e-05
1.85462e-05
1.9122e-05
2.04626e-05
2.1813e-05
2.2822e-05
2.32704e-05
5.39439e-05
2.14239e-05
1.838e-05
1.89984e-05
2.03882e-05
2.17957e-05
2.28658e-05
2.33734e-05
5.37136e-05
2.13338e-05
1.8325e-05
1.89781e-05
2.041e-05
2.18662e-05
2.29871e-05
2.35415e-05
5.36956e-05
2.13169e-05
1.8322e-05
1.89874e-05
2.04303e-05
2.18959e-05
2.30247e-05
2.35851e-05
5.37019e-05
2.13381e-05
1.83387e-05
1.90021e-05
2.04441e-05
2.19083e-05
2.30331e-05
2.35856e-05
5.38353e-05
2.13979e-05
1.83868e-05
1.90391e-05
2.04643e-05
2.19051e-05
2.30012e-05
2.35223e-05
5.40937e-05
2.15374e-05
1.85062e-05
1.91481e-05
2.05612e-05
2.19857e-05
2.30612e-05
2.35579e-05
5.90495e-05
2.47454e-05
2.18336e-05
2.28097e-05
2.46002e-05
2.63735e-05
2.77248e-05
2.83925e-05
5.84786e-05
2.44731e-05
2.16305e-05
2.26609e-05
2.45126e-05
2.63565e-05
2.77825e-05
2.85218e-05
5.81969e-05
2.43675e-05
2.15706e-05
2.26437e-05
2.45455e-05
2.64464e-05
2.79318e-05
2.87261e-05
5.82034e-05
2.43696e-05
2.15878e-05
2.26765e-05
2.45934e-05
2.65091e-05
2.80085e-05
2.88135e-05
5.82528e-05
2.44098e-05
2.16235e-05
2.2713e-05
2.46333e-05
2.65503e-05
2.80457e-05
2.88411e-05
5.84435e-05
2.44977e-05
2.16989e-05
2.2779e-05
2.46832e-05
2.65756e-05
2.80393e-05
2.8799e-05
5.88e-05
2.46833e-05
2.18576e-05
2.29231e-05
2.4811e-05
2.66821e-05
2.81195e-05
2.88487e-05
6.5283e-05
2.87304e-05
2.59641e-05
2.7392e-05
2.97076e-05
3.19831e-05
3.37488e-05
3.46938e-05
6.45323e-05
2.83923e-05
2.57169e-05
2.72108e-05
2.9599e-05
3.19577e-05
3.3811e-05
3.48395e-05
6.41957e-05
2.82741e-05
2.56551e-05
2.71977e-05
2.96411e-05
3.20629e-05
3.39831e-05
3.50742e-05
6.42618e-05
2.83107e-05
2.57047e-05
2.72632e-05
2.97232e-05
3.21639e-05
3.41039e-05
3.52105e-05
6.43849e-05
2.83819e-05
2.57666e-05
2.73295e-05
2.98008e-05
3.2248e-05
3.41847e-05
3.52801e-05
6.46565e-05
2.85052e-05
2.58774e-05
2.74357e-05
2.98942e-05
3.23172e-05
3.422e-05
3.52756e-05
6.51653e-05
2.87556e-05
2.60873e-05
2.76245e-05
3.00618e-05
3.24584e-05
3.43291e-05
3.53484e-05
7.35166e-05
3.37789e-05
3.10855e-05
3.30109e-05
3.59307e-05
3.87961e-05
4.10586e-05
4.23488e-05
7.25254e-05
3.33613e-05
3.07863e-05
3.27882e-05
3.57896e-05
3.87489e-05
4.111e-05
4.24939e-05
7.21358e-05
3.32386e-05
3.0728e-05
3.27789e-05
3.58344e-05
3.88594e-05
4.1293e-05
4.27457e-05
7.23196e-05
3.33347e-05
3.08274e-05
3.28857e-05
3.59525e-05
3.89976e-05
4.14557e-05
4.2928e-05
7.25544e-05
3.34499e-05
3.09182e-05
3.29861e-05
3.60778e-05
3.91364e-05
4.15915e-05
4.30507e-05
7.29189e-05
3.36083e-05
3.10675e-05
3.31418e-05
3.62281e-05
3.92642e-05
4.16836e-05
4.30997e-05
7.36502e-05
3.39447e-05
3.13404e-05
3.33835e-05
3.64429e-05
3.94478e-05
4.18298e-05
4.32042e-05
8.43972e-05
4.00945e-05
3.73631e-05
3.98268e-05
4.34369e-05
4.6992e-05
4.98464e-05
5.15601e-05
8.30759e-05
3.95839e-05
3.70054e-05
3.95516e-05
4.32476e-05
4.69049e-05
4.9866e-05
5.16809e-05
8.26426e-05
3.94732e-05
3.69601e-05
3.95428e-05
4.32826e-05
4.70033e-05
5.004e-05
5.19272e-05
8.30347e-05
3.96689e-05
3.71316e-05
3.96975e-05
4.34314e-05
4.71689e-05
5.02333e-05
5.21428e-05
8.34318e-05
3.98416e-05
3.72455e-05
3.98294e-05
4.36101e-05
4.73682e-05
5.04275e-05
5.23212e-05
8.38775e-05
4.00162e-05
3.74266e-05
4.004e-05
4.3827e-05
4.7565e-05
5.05866e-05
5.24345e-05
8.49164e-05
4.04608e-05
3.77703e-05
4.03375e-05
4.40926e-05
4.77957e-05
5.07758e-05
5.25778e-05
9.81388e-05
4.78792e-05
4.4985e-05
4.80301e-05
5.24288e-05
5.67916e-05
6.03488e-05
6.25746e-05
9.64825e-05
4.72652e-05
4.45633e-05
4.76929e-05
5.21756e-05
5.66445e-05
6.03116e-05
6.26418e-05
9.60643e-05
4.71986e-05
4.45429e-05
4.76812e-05
5.21866e-05
5.67081e-05
6.04491e-05
6.28508e-05
9.67638e-05
4.75529e-05
4.48001e-05
4.78904e-05
5.23695e-05
5.68892e-05
6.06523e-05
6.30752e-05
9.73574e-05
4.77963e-05
4.49396e-05
4.80322e-05
5.25763e-05
5.71348e-05
6.08948e-05
6.32998e-05
9.77949e-05
4.79367e-05
4.51298e-05
4.82947e-05
5.28621e-05
5.74026e-05
6.11228e-05
6.34801e-05
9.91284e-05
4.8499e-05
4.55521e-05
4.86465e-05
5.3177e-05
5.7681e-05
6.13567e-05
6.36653e-05
4.48811e-05
4.54024e-05
1.4045e-05
4.59883e-05
1.42745e-05
9.75227e-06
8.79345e-06
8.61272e-06
4.6602e-05
1.44755e-05
9.91445e-06
8.96414e-06
8.80139e-06
8.8196e-06
8.82118e-06
8.73849e-06
4.72448e-05
1.47328e-05
1.01094e-05
9.16102e-06
9.01422e-06
9.04823e-06
9.0589e-06
8.97476e-06
4.41082e-05
1.38237e-05
9.58144e-06
8.71033e-06
8.56924e-06
8.59283e-06
8.59804e-06
8.52255e-06
4.45207e-05
1.39974e-05
9.68805e-06
8.80096e-06
8.65939e-06
8.68701e-06
8.69538e-06
8.61923e-06
4.50093e-05
1.41753e-05
9.81677e-06
8.9259e-06
8.7918e-06
8.82836e-06
8.84244e-06
8.76576e-06
4.55688e-05
1.43462e-05
9.96087e-06
9.0816e-06
8.96445e-06
9.01568e-06
9.03837e-06
8.96244e-06
4.62062e-05
1.46041e-05
1.01635e-05
9.28867e-06
9.18844e-06
9.25612e-06
9.28956e-06
9.21342e-06
4.68942e-05
1.48527e-05
1.03785e-05
9.51942e-06
9.44274e-06
9.53079e-06
9.57535e-06
9.49881e-06
4.76285e-05
1.51483e-05
1.06266e-05
9.78089e-06
9.72856e-06
9.83849e-06
9.89609e-06
9.81952e-06
4.43848e-05
1.41393e-05
9.98805e-06
9.21044e-06
9.15644e-06
9.25251e-06
9.30558e-06
9.24219e-06
4.48003e-05
1.43267e-05
1.01141e-05
9.32462e-06
9.27412e-06
9.37709e-06
9.4349e-06
9.37113e-06
4.53144e-05
1.45349e-05
1.02768e-05
9.48806e-06
9.44938e-06
9.56484e-06
9.63058e-06
9.56693e-06
4.59289e-05
1.47596e-05
1.04744e-05
9.70025e-06
9.6827e-06
9.81623e-06
9.89262e-06
9.82978e-06
4.66421e-05
1.5062e-05
1.0732e-05
9.97131e-06
9.97833e-06
1.01344e-05
1.02249e-05
1.01631e-05
4.74323e-05
1.53744e-05
1.10161e-05
1.02788e-05
1.03162e-05
1.04976e-05
1.06029e-05
1.05419e-05
4.82802e-05
1.57266e-05
1.13356e-05
1.06231e-05
1.06933e-05
1.09027e-05
1.10247e-05
1.0965e-05
4.48796e-05
1.46008e-05
1.05694e-05
9.91734e-06
9.98174e-06
1.01787e-05
1.03018e-05
1.02631e-05
4.53037e-05
1.48051e-05
1.07185e-05
1.00595e-05
1.01319e-05
1.03384e-05
1.04676e-05
1.04287e-05
4.58558e-05
1.50497e-05
1.09225e-05
1.02693e-05
1.03583e-05
1.05808e-05
1.072e-05
1.06818e-05
4.65434e-05
1.53361e-05
1.11827e-05
1.05483e-05
1.0663e-05
1.09074e-05
1.10597e-05
1.10227e-05
4.73588e-05
1.57015e-05
1.15122e-05
1.08993e-05
1.10453e-05
1.13172e-05
1.14865e-05
1.14518e-05
4.82785e-05
1.60933e-05
1.18814e-05
1.12998e-05
1.14828e-05
1.17855e-05
1.19732e-05
1.19403e-05
4.9273e-05
1.65272e-05
1.22943e-05
1.17468e-05
1.19696e-05
1.23057e-05
1.25134e-05
1.24828e-05
4.56628e-05
1.52617e-05
1.13873e-05
1.0897e-05
1.11188e-05
1.14529e-05
1.16751e-05
1.16789e-05
4.61047e-05
1.54889e-05
1.15622e-05
1.10728e-05
1.13064e-05
1.1652e-05
1.18812e-05
1.18846e-05
4.67103e-05
1.5779e-05
1.18157e-05
1.13369e-05
1.15914e-05
1.19558e-05
1.21964e-05
1.22007e-05
4.74938e-05
1.61379e-05
1.21494e-05
1.16934e-05
1.19775e-05
1.23672e-05
1.26227e-05
1.26286e-05
4.84432e-05
1.65849e-05
1.25668e-05
1.21388e-05
1.24595e-05
1.28805e-05
1.31554e-05
1.31645e-05
4.95216e-05
1.70751e-05
1.30398e-05
1.26482e-05
1.30111e-05
1.34675e-05
1.37632e-05
1.37747e-05
5.07103e-05
1.76189e-05
1.35705e-05
1.32163e-05
1.36241e-05
1.4118e-05
1.4436e-05
1.44499e-05
4.68398e-05
1.61996e-05
1.25153e-05
1.22295e-05
1.26563e-05
1.31724e-05
1.35305e-05
1.36007e-05
4.73114e-05
1.64512e-05
1.27236e-05
1.24446e-05
1.28855e-05
1.34139e-05
1.37785e-05
1.38474e-05
4.79887e-05
1.67966e-05
1.30336e-05
1.27702e-05
1.32346e-05
1.37831e-05
1.41593e-05
1.42284e-05
4.88955e-05
1.72405e-05
1.34517e-05
1.32126e-05
1.37091e-05
1.42848e-05
1.46766e-05
1.4747e-05
5.00108e-05
1.77871e-05
1.39718e-05
1.37632e-05
1.42992e-05
1.49084e-05
1.53209e-05
1.53948e-05
5.12893e-05
1.84008e-05
1.45674e-05
1.43947e-05
1.49759e-05
1.56225e-05
1.60564e-05
1.61329e-05
5.27254e-05
1.90908e-05
1.52343e-05
1.50983e-05
1.57269e-05
1.64131e-05
1.68697e-05
1.69472e-05
4.8564e-05
1.75224e-05
1.40423e-05
1.401e-05
1.46981e-05
1.54498e-05
1.5988e-05
1.61549e-05
4.90775e-05
1.77948e-05
1.42916e-05
1.42687e-05
1.4971e-05
1.57339e-05
1.62767e-05
1.644e-05
4.98459e-05
1.82007e-05
1.46663e-05
1.46599e-05
1.53857e-05
1.61678e-05
1.67203e-05
1.68817e-05
5.0906e-05
1.8742e-05
1.51757e-05
1.51922e-05
1.59502e-05
1.67589e-05
1.73258e-05
1.74869e-05
5.2217e-05
1.94092e-05
1.58084e-05
1.58535e-05
1.66504e-05
1.74926e-05
1.80795e-05
1.82433e-05
5.3747e-05
2.0181e-05
1.65372e-05
1.66146e-05
1.74557e-05
1.83337e-05
1.89412e-05
1.91074e-05
5.54901e-05
2.10564e-05
1.73533e-05
1.7462e-05
1.83494e-05
1.92658e-05
1.9893e-05
2.00583e-05
5.10386e-05
1.93389e-05
1.60717e-05
1.63466e-05
1.73602e-05
1.84095e-05
1.91796e-05
1.94799e-05
5.16164e-05
1.96551e-05
1.63677e-05
1.6651e-05
1.76763e-05
1.87331e-05
1.95035e-05
1.97961e-05
5.24945e-05
2.0128e-05
1.68103e-05
1.71073e-05
1.81527e-05
1.92245e-05
2e-05
2.02866e-05
5.37318e-05
2.07762e-05
1.74126e-05
1.77273e-05
1.88009e-05
1.98953e-05
2.06814e-05
2.09646e-05
5.52738e-05
2.15823e-05
1.81614e-05
1.84966e-05
1.9605e-05
2.07292e-05
2.15319e-05
2.18159e-05
5.70927e-05
2.25189e-05
1.90275e-05
1.93856e-05
2.05316e-05
2.16877e-05
2.25081e-05
2.27929e-05
5.91805e-05
2.3577e-05
1.99972e-05
2.03765e-05
2.15627e-05
2.27508e-05
2.35869e-05
2.38687e-05
5.45178e-05
2.17707e-05
1.87196e-05
1.93585e-05
2.07677e-05
2.2183e-05
2.32434e-05
2.37199e-05
5.51826e-05
2.21441e-05
1.90657e-05
1.97075e-05
2.11224e-05
2.25385e-05
2.35923e-05
2.40551e-05
5.61882e-05
2.2695e-05
1.95744e-05
2.02222e-05
2.16496e-05
2.30726e-05
2.41237e-05
2.45741e-05
5.76128e-05
2.34487e-05
2.02638e-05
2.09192e-05
2.23662e-05
2.38038e-05
2.48583e-05
2.53004e-05
5.94046e-05
2.43905e-05
2.11213e-05
2.17845e-05
2.32572e-05
2.47169e-05
2.5782e-05
2.62216e-05
6.15309e-05
2.54884e-05
2.21179e-05
2.27876e-05
2.42878e-05
2.5772e-05
2.68496e-05
2.72877e-05
6.39931e-05
2.67328e-05
2.32368e-05
2.39113e-05
2.54387e-05
2.69464e-05
2.8034e-05
2.84664e-05
5.93133e-05
2.49674e-05
2.21139e-05
2.31709e-05
2.50487e-05
2.69036e-05
2.83184e-05
2.90205e-05
6.0085e-05
2.54026e-05
2.25093e-05
2.35599e-05
2.54336e-05
2.7279e-05
2.86775e-05
2.93575e-05
6.12223e-05
2.60284e-05
2.30755e-05
2.41196e-05
2.59935e-05
2.78337e-05
2.92183e-05
2.98772e-05
6.28269e-05
2.68779e-05
2.38371e-05
2.48735e-05
2.67536e-05
2.85962e-05
2.99741e-05
3.06179e-05
6.48696e-05
2.79435e-05
2.47856e-05
2.5812e-05
2.77037e-05
2.95568e-05
3.0937e-05
3.15741e-05
6.73053e-05
2.91927e-05
2.58929e-05
2.69057e-05
2.88109e-05
3.06777e-05
3.20633e-05
3.26966e-05
7.01611e-05
3.06175e-05
2.71458e-05
2.81384e-05
3.00555e-05
3.19347e-05
3.33231e-05
3.39479e-05
6.57983e-05
2.90986e-05
2.63909e-05
2.79122e-05
3.03312e-05
3.27027e-05
3.45418e-05
3.55258e-05
6.66975e-05
2.95972e-05
2.68318e-05
2.83331e-05
3.07342e-05
3.30827e-05
3.48929e-05
3.58442e-05
6.79581e-05
3.02857e-05
2.74393e-05
2.89178e-05
3.13029e-05
3.36302e-05
3.54123e-05
3.63311e-05
6.97195e-05
3.12103e-05
2.82482e-05
2.96996e-05
3.20737e-05
3.43879e-05
3.61507e-05
3.70461e-05
7.19973e-05
3.23743e-05
2.92593e-05
3.06787e-05
3.30465e-05
3.53568e-05
3.7112e-05
3.79964e-05
7.47268e-05
3.37471e-05
3.04466e-05
3.18299e-05
3.41943e-05
3.65057e-05
3.82587e-05
3.9137e-05
7.80153e-05
3.53312e-05
3.18033e-05
3.31406e-05
3.54991e-05
3.78098e-05
3.95579e-05
4.04255e-05
7.44376e-05
3.43528e-05
3.16941e-05
3.37126e-05
3.67437e-05
3.97127e-05
4.20527e-05
4.33825e-05
7.5495e-05
3.4914e-05
3.21741e-05
3.41548e-05
3.71504e-05
4.008e-05
4.23761e-05
4.36604e-05
7.68739e-05
3.56436e-05
3.28002e-05
3.47401e-05
3.77007e-05
4.05901e-05
4.28411e-05
4.40791e-05
7.87761e-05
3.66083e-05
3.36214e-05
3.5514e-05
3.84449e-05
4.13039e-05
4.35213e-05
4.4726e-05
8.12723e-05
3.78311e-05
3.46558e-05
3.64937e-05
3.93989e-05
4.22388e-05
4.44386e-05
4.5628e-05
8.42695e-05
3.92778e-05
3.58816e-05
3.76625e-05
4.05476e-05
4.33758e-05
4.55661e-05
4.67482e-05
8.78655e-05
4.09725e-05
3.73026e-05
3.90137e-05
4.1875e-05
4.46894e-05
4.68675e-05
4.80376e-05
8.59009e-05
4.09337e-05
3.81747e-05
4.07089e-05
4.44238e-05
4.80784e-05
5.10047e-05
5.27518e-05
8.71587e-05
4.15545e-05
3.86866e-05
4.11603e-05
4.48182e-05
4.84151e-05
5.12808e-05
5.29676e-05
8.85914e-05
4.22902e-05
3.93024e-05
4.17198e-05
4.53225e-05
4.88581e-05
5.16594e-05
5.32834e-05
9.0476e-05
4.32404e-05
4.00926e-05
4.24469e-05
4.60031e-05
4.94906e-05
5.22429e-05
5.38223e-05
9.29501e-05
4.44559e-05
4.11021e-05
4.3384e-05
4.68969e-05
5.0351e-05
5.30766e-05
5.46372e-05
9.58703e-05
4.58968e-05
4.23142e-05
4.45275e-05
4.80077e-05
5.14392e-05
5.41496e-05
5.5703e-05
9.94832e-05
4.76246e-05
4.37511e-05
4.5879e-05
4.93204e-05
5.27263e-05
5.54188e-05
5.69606e-05
0.000100268
4.90258e-05
4.59989e-05
4.90585e-05
5.35361e-05
5.79767e-05
6.15856e-05
6.38284e-05
0.000101681
4.96987e-05
4.65326e-05
4.95055e-05
5.39013e-05
5.82656e-05
6.17961e-05
6.39616e-05
0.000103016
5.039e-05
4.71037e-05
5.00116e-05
5.4334e-05
5.86147e-05
6.20597e-05
6.4143e-05
0.000104672
5.12536e-05
4.78143e-05
5.06535e-05
5.4917e-05
5.91329e-05
6.2513e-05
6.45397e-05
0.000106912
5.23799e-05
4.87466e-05
5.15056e-05
5.57125e-05
5.98841e-05
6.3231e-05
6.52368e-05
0.000109496
5.37194e-05
4.98874e-05
5.25836e-05
5.67529e-05
6.08939e-05
6.42221e-05
6.62229e-05
0.000112917
5.54029e-05
5.1288e-05
5.38974e-05
5.80182e-05
6.21244e-05
6.54315e-05
6.74237e-05
4.69856e-05
1.46608e-05
1.02485e-05
9.38888e-06
9.2885e-06
9.34891e-06
9.37334e-06
9.29305e-06
4.61515e-05
1.43456e-05
1.00078e-05
9.14531e-06
9.02195e-06
9.05662e-06
9.06289e-06
8.98098e-06
4.53507e-05
1.40717e-05
9.78721e-06
8.91895e-06
8.77856e-06
8.79795e-06
8.79723e-06
8.7208e-06
4.46335e-05
1.3758e-05
9.55784e-06
8.69815e-06
8.54606e-06
8.55148e-06
8.54707e-06
8.49105e-06
4.40376e-05
1.36627e-05
9.43276e-06
8.53467e-06
8.35186e-06
8.3331e-06
8.30699e-06
8.22312e-06
4.35616e-05
1.35096e-05
9.30867e-06
8.40525e-06
8.21159e-06
8.18309e-06
8.15133e-06
8.06878e-06
4.3273e-05
1.34539e-05
9.25289e-06
8.34045e-06
8.14046e-06
8.10905e-06
8.07667e-06
7.99337e-06
4.76925e-05
1.5201e-05
1.08731e-05
1.0118e-05
1.012e-05
1.02655e-05
1.03444e-05
1.02756e-05
4.67858e-05
1.48352e-05
1.05666e-05
9.79464e-06
9.76072e-06
9.86911e-06
9.92069e-06
9.84382e-06
4.5893e-05
1.45056e-05
1.02782e-05
9.48667e-06
9.42208e-06
9.50285e-06
9.53735e-06
9.45884e-06
4.5098e-05
1.4152e-05
9.99027e-06
9.19106e-06
9.09947e-06
9.15166e-06
9.16821e-06
9.09487e-06
4.4427e-05
1.39849e-05
9.8083e-06
8.97486e-06
8.85392e-06
8.88437e-06
8.88546e-06
8.79784e-06
4.38949e-05
1.37932e-05
9.64685e-06
8.8059e-06
8.67095e-06
8.68879e-06
8.68262e-06
8.59655e-06
4.3563e-05
1.37005e-05
9.55927e-06
8.71003e-06
8.56849e-06
8.58364e-06
8.57841e-06
8.49506e-06
4.87382e-05
1.5959e-05
1.1733e-05
1.11106e-05
1.12447e-05
1.15014e-05
1.1654e-05
1.16069e-05
4.77167e-05
1.55179e-05
1.13391e-05
1.06863e-05
1.07712e-05
1.09791e-05
1.10953e-05
1.10336e-05
4.6694e-05
1.5107e-05
1.09607e-05
1.02754e-05
1.03162e-05
1.04843e-05
1.05738e-05
1.05042e-05
4.57863e-05
1.46904e-05
1.05949e-05
9.88684e-06
9.88603e-06
1.00124e-05
1.00722e-05
9.99686e-06
4.50146e-05
1.44378e-05
1.03377e-05
9.59533e-06
9.56197e-06
9.6638e-06
9.70833e-06
9.6248e-06
4.44069e-05
1.41979e-05
1.0126e-05
9.37111e-06
9.31834e-06
9.40291e-06
9.43711e-06
9.35407e-06
4.40237e-05
1.40626e-05
9.9996e-06