/*--------------------------------*- C++ -*----------------------------------*\
| =========                 |                                                 |
| \\      /  F ield         | OpenFOAM: The Open Source CFD Toolbox           |
|  \\    /   O peration     | Version:  plus.master.MPPICInterFoam            |
|   \\  /    A nd           | Web:      www.OpenFOAM.com                      |
|    \\/     M anipulation  |                                                 |
\*---------------------------------------------------------------------------*/
FoamFile
{
    version     2.0;
    format      ascii;
    class       volVectorField;
    location    "9.6";
    object      U;
}
// * * * * * * * * * * * * * * * * * * * * * * * * * * * * * * * * * * * * * //

dimensions      [0 1 -1 0 0 0 0];

internalField   nonuniform List<vector> 
11821
(
(-0.000152324 -0.000362208 -0.0364179)
(-0.000188713 -0.000451363 -0.0406458)
(-0.000211348 -0.000448234 -0.0419433)
(-0.000244792 -0.000409444 -0.0425059)
(-0.000271045 -0.000359606 -0.0428056)
(-0.000284471 -0.000307257 -0.0429632)
(-0.000280333 -0.00025926 -0.0430075)
(-0.000257461 -0.000220427 -0.0429234)
(-0.00025653 -0.000784276 -0.0366607)
(-0.000255151 -0.000814131 -0.040892)
(-0.000266231 -0.000773373 -0.042195)
(-0.000303225 -0.000714963 -0.0427701)
(-0.000335315 -0.00065132 -0.0430872)
(-0.000354479 -0.000586861 -0.0432653)
(-0.000354099 -0.000526783 -0.0433312)
(-0.000331779 -0.000474999 -0.0432672)
(-0.000174998 -0.00122779 -0.0367998)
(-0.000169174 -0.00117832 -0.0410341)
(-0.00019165 -0.0010959 -0.0423408)
(-0.000246107 -0.0010204 -0.042926)
(-0.000293636 -0.00094696 -0.0432582)
(-0.000326364 -0.000875112 -0.0434541)
(-0.000336232 -0.000807488 -0.0435386)
(-0.000320084 -0.000746906 -0.0434915)
(9.47722e-05 -0.001605 -0.0368078)
(7.12392e-05 -0.0014773 -0.0410426)
(2.12614e-05 -0.00136159 -0.0423524)
(-5.67287e-05 -0.00127741 -0.0429451)
(-0.000121902 -0.00120125 -0.0432889)
(-0.000169639 -0.00112796 -0.0434988)
(-0.000191257 -0.00105739 -0.0435981)
(-0.000183432 -0.000991181 -0.0435645)
(0.000504562 -0.00184888 -0.0366591)
(0.000418181 -0.00165923 -0.040894)
(0.000328056 -0.0015265 -0.0422039)
(0.000223718 -0.00144523 -0.0427974)
(0.000140361 -0.00137495 -0.0431453)
(7.83553e-05 -0.00130725 -0.0433601)
(4.5186e-05 -0.0012393 -0.0434643)
(4.37653e-05 -0.00117157 -0.0434351)
(0.000998895 -0.00192846 -0.0363501)
(0.000825713 -0.00170806 -0.0405846)
(0.000692883 -0.00158131 -0.0418889)
(0.000568642 -0.00151706 -0.0424762)
(0.000474274 -0.00146436 -0.042819)
(0.000405455 -0.00141254 -0.0430286)
(0.000367039 -0.00135647 -0.0431275)
(0.000360769 -0.0012955 -0.0430935)
(0.00144815 -0.00177508 -0.0359054)
(0.00117323 -0.00158192 -0.0401318)
(0.000995191 -0.00149197 -0.0414142)
(0.000855282 -0.00145715 -0.0419846)
(0.000752321 -0.00142852 -0.0423074)
(0.000680172 -0.00139387 -0.0424952)
(0.000639795 -0.0013478 -0.0425712)
(0.000631391 -0.00128934 -0.0425147)
(-0.000262675 -0.000492441 -0.0362002)
(-0.000296278 -0.000550398 -0.0403352)
(-0.00032094 -0.00052065 -0.0416109)
(-0.000354829 -0.000461279 -0.0421879)
(-0.000378827 -0.000393455 -0.042521)
(-0.000386533 -0.0003255 -0.0427242)
(-0.00037363 -0.000264694 -0.0428219)
(-0.000339241 -0.000216627 -0.0427929)
(-0.000312622 -0.000870905 -0.0364496)
(-0.000323929 -0.000871544 -0.0405849)
(-0.000352068 -0.000808707 -0.0418648)
(-0.000399125 -0.000733156 -0.0424556)
(-0.00043619 -0.000654874 -0.0428086)
(-0.000455179 -0.000577712 -0.043036)
(-0.000449765 -0.000507099 -0.043159)
(-0.000418049 -0.000447739 -0.0431538)
(-0.000196171 -0.00123122 -0.0366028)
(-0.000216764 -0.00116516 -0.040738)
(-0.000268431 -0.00107372 -0.0420214)
(-0.000340175 -0.00098944 -0.0426235)
(-0.000398608 -0.000908139 -0.0429945)
(-0.000435027 -0.000829132 -0.0432434)
(-0.000442485 -0.000755324 -0.0433889)
(-0.000418338 -0.000690214 -0.0434044)
(6.96372e-05 -0.00150226 -0.0366291)
(1.2786e-05 -0.00137829 -0.0407628)
(-7.23736e-05 -0.00127231 -0.0420484)
(-0.00017036 -0.00119152 -0.0426585)
(-0.000249663 -0.00111708 -0.043043)
(-0.000302748 -0.00104437 -0.0433078)
(-0.000322853 -0.000973775 -0.0434699)
(-0.000307195 -0.000907445 -0.0435008)
(0.000429112 -0.00163659 -0.0365041)
(0.000313699 -0.00147526 -0.040637)
(0.000191118 -0.00137196 -0.0419205)
(7.02684e-05 -0.00130668 -0.0425324)
(-2.6079e-05 -0.00124856 -0.0429207)
(-9.22192e-05 -0.00118966 -0.04319)
(-0.000122581 -0.00112816 -0.0433567)
(-0.000114813 -0.00106488 -0.0433913)
(0.000828789 -0.00162914 -0.0362252)
(0.000644428 -0.00145728 -0.0403578)
(0.000490297 -0.00137393 -0.0416345)
(0.000357086 -0.00133506 -0.0422407)
(0.000254494 -0.00130249 -0.0426223)
(0.000184935 -0.0012655 -0.0428844)
(0.00015188 -0.00122032 -0.0430434)
(0.0001566 -0.00116652 -0.0430709)
(0.00116175 -0.00143964 -0.0358185)
(0.000905296 -0.00130154 -0.039941)
(0.000722571 -0.00125898 -0.0412011)
(0.000583405 -0.00125317 -0.0417902)
(0.000479759 -0.0012481 -0.0421505)
(0.00041123 -0.00123147 -0.0423884)
(0.000378826 -0.00119881 -0.0425217)
(0.000382535 -0.00114916 -0.0425238)
(-0.000368044 -0.000605754 -0.0360053)
(-0.000402131 -0.000620703 -0.0400231)
(-0.000433786 -0.000555851 -0.0412717)
(-0.000470997 -0.000468775 -0.041864)
(-0.000494164 -0.000377205 -0.0422339)
(-0.000496039 -0.000289087 -0.0424886)
(-0.000472878 -0.000212045 -0.0426464)
(-0.000424791 -0.000152643 -0.0426803)
(-0.000369417 -0.000944468 -0.0362627)
(-0.000399496 -0.000905771 -0.0402761)
(-0.000450927 -0.000814774 -0.0415291)
(-0.000512024 -0.000716485 -0.0421365)
(-0.000556894 -0.000618369 -0.0425302)
(-0.000576497 -0.000524291 -0.042813)
(-0.000565741 -0.000439783 -0.0430001)
(-0.000523621 -0.000370419 -0.0430616)
(-0.000221745 -0.00123081 -0.0364323)
(-0.000278442 -0.00114052 -0.0404408)
(-0.000366699 -0.00103552 -0.0416956)
(-0.000459386 -0.000938859 -0.042318)
(-0.00053205 -0.000845641 -0.0427335)
(-0.000574049 -0.000756031 -0.0430418)
(-0.000579883 -0.000673201 -0.0432554)
(-0.000547847 -0.000601362 -0.0433414)
(4.01641e-05 -0.0014076 -0.0364784)
(-6.10455e-05 -0.00128459 -0.0404807)
(-0.000189105 -0.00118447 -0.0417365)
(-0.000311075 -0.00110471 -0.0423697)
(-0.00040784 -0.00102941 -0.0428009)
(-0.000468961 -0.000955002 -0.0431274)
(-0.000489186 -0.000882436 -0.0433599)
(-0.00046669 -0.000814403 -0.0434635)
(0.000354036 -0.00144713 -0.0363787)
(0.000200471 -0.0013155 -0.0403745)
(3.80024e-05 -0.00123886 -0.041629)
(-0.000104455 -0.00118861 -0.0422651)
(-0.000216732 -0.00114148 -0.0427004)
(-0.000289785 -0.00109049 -0.0430317)
(-0.000319249 -0.00103465 -0.0432689)
(-0.000303689 -0.000975153 -0.0433764)
(0.000670541 -0.00136668 -0.0361282)
(0.000467902 -0.00124742 -0.0401211)
(0.000285809 -0.00120673 -0.0413707)
(0.00013824 -0.00119385 -0.0420007)
(2.49953e-05 -0.00118158 -0.0424283)
(-4.7662e-05 -0.00115988 -0.0427508)
(-7.69678e-05 -0.00112594 -0.0429789)
(-6.24562e-05 -0.00107955 -0.0430775)
(0.000904702 -0.00115233 -0.0357515)
(0.000659336 -0.00107377 -0.0397383)
(0.000467756 -0.00107993 -0.0409746)
(0.000324601 -0.00110578 -0.0415868)
(0.000218484 -0.00112609 -0.0419917)
(0.000152472 -0.00112916 -0.0422882)
(0.00012759 -0.0011112 -0.0424886)
(0.000143225 -0.00107122 -0.04256)
(-0.000465026 -0.000699025 -0.0358067)
(-0.000501072 -0.000658833 -0.0396844)
(-0.000543364 -0.000551768 -0.040904)
(-0.000584796 -0.000431236 -0.0415153)
(-0.000607247 -0.000310459 -0.0419294)
(-0.000602499 -0.000197667 -0.0422436)
(-0.000567921 -0.000100744 -0.0424704)
(-0.000504968 -2.72399e-05 -0.0425771)
(-0.000424133 -0.00100205 -0.0360726)
(-0.000478427 -0.000914024 -0.0399399)
(-0.000557384 -0.000788708 -0.0411628)
(-0.000633186 -0.000663514 -0.0417937)
(-0.00068672 -0.000540996 -0.0422355)
(-0.000707358 -0.000425894 -0.0425817)
(-0.000691346 -0.000324012 -0.0428415)
(-0.000638958 -0.000241807 -0.0429791)
(-0.000252101 -0.001223 -0.0362598)
(-0.000350646 -0.00110294 -0.0401125)
(-0.00047949 -0.000978782 -0.0413392)
(-0.000595177 -0.000866252 -0.0419894)
(-0.000683241 -0.00075785 -0.0424572)
(-0.000731975 -0.000654596 -0.0428328)
(-0.000737294 -0.000560103 -0.0431229)
(-0.000698703 -0.000479324 -0.0432885)
(3.1831e-06 -0.00131852 -0.0363259)
(-0.000147143 -0.00119426 -0.040163)
(-0.000321611 -0.00109586 -0.0413938)
(-0.000470453 -0.00101463 -0.0420573)
(-0.000586096 -0.000936346 -0.0425431)
(-0.000656971 -0.000858413 -0.0429393)
(-0.000679156 -0.000782382 -0.0432506)
(-0.000651991 -0.00071147 -0.043436)
(0.000275776 -0.00128013 -0.0362476)
(7.99183e-05 -0.00117772 -0.0400751)
(-0.000125083 -0.00112484 -0.0413058)
(-0.000292389 -0.00108854 -0.0419729)
(-0.000422055 -0.00105154 -0.0424637)
(-0.000503774 -0.00100801 -0.0428654)
(-0.000534306 -0.000957689 -0.0431819)
(-0.000513337 -0.000902078 -0.0433716)
(0.000521693 -0.00114212 -0.0360204)
(0.000296187 -0.00107583 -0.0398468)
(8.40627e-05 -0.00107671 -0.0410731)
(-8.10335e-05 -0.00109039 -0.0417336)
(-0.000206052 -0.00109889 -0.0422157)
(-0.000283069 -0.00109339 -0.0426078)
(-0.000310082 -0.00107182 -0.0429143)
(-0.000287674 -0.00103411 -0.0430943)
(0.000676107 -0.000910902 -0.0356696)
(0.000435397 -0.000894991 -0.0394958)
(0.000232534 -0.000951423 -0.0407104)
(8.3264e-05 -0.00101104 -0.0413522)
(-2.57526e-05 -0.00105862 -0.0418104)
(-8.93878e-05 -0.00108344 -0.0421752)
(-0.000106971 -0.00108226 -0.042453)
(-8.00815e-05 -0.00105396 -0.0426048)
(-0.000549073 -0.000767212 -0.0355803)
(-0.000588112 -0.000661341 -0.0392979)
(-0.000642623 -0.000505447 -0.0404884)
(-0.000687392 -0.000347325 -0.0411271)
(-0.000708162 -0.000193159 -0.041594)
(-0.000695884 -5.19645e-05 -0.041977)
(-0.000649297 6.80253e-05 -0.0422826)
(-0.000571446 0.000158368 -0.0424724)
(-0.000475922 -0.00103742 -0.0358541)
(-0.000555888 -0.000893651 -0.0395506)
(-0.000663497 -0.000728582 -0.0407485)
(-0.000754001 -0.000572705 -0.0414113)
(-0.000815561 -0.000422475 -0.0419097)
(-0.000837059 -0.000283192 -0.042328)
(-0.0008162 -0.000161095 -0.0426694)
(-0.00075471 -6.34918e-05 -0.0428926)
(-0.000288367 -0.00120274 -0.0360555)
(-0.000429817 -0.00104866 -0.0397284)
(-0.000599248 -0.000901417 -0.0409355)
(-0.000738141 -0.00077004 -0.0416217)
(-0.000841201 -0.000644052 -0.04215)
(-0.000896972 -0.000525 -0.0426009)
(-0.000903004 -0.000416936 -0.0429752)
(-0.000860102 -0.000325497 -0.0432289)
(-4.23319e-05 -0.00123261 -0.0361339)
(-0.000242572 -0.00110371 -0.0397889)
(-0.000462575 -0.0010039 -0.0410021)
(-0.000638873 -0.000919175 -0.0417038)
(-0.000773286 -0.000836409 -0.0422523)
(-0.00085466 -0.000753877 -0.042726)
(-0.000880582 -0.000673641 -0.0431236)
(-0.00085163 -0.000599341 -0.0433989)
(0.000194464 -0.00113472 -0.0360723)
(-4.5124e-05 -0.00105895 -0.0397177)
(-0.000291724 -0.00102732 -0.0409317)
(-0.000484472 -0.00100396 -0.0416378)
(-0.000631421 -0.000976565 -0.042192)
(-0.000722523 -0.000940535 -0.0426721)
(-0.000755895 -0.000896197 -0.0430759)
(-0.00073244 -0.000845252 -0.0433562)
(0.000382873 -0.000954393 -0.0358662)
(0.000132033 -0.000940397 -0.0395124)
(-0.000109648 -0.00098129 -0.0407221)
(-0.000292685 -0.00102164 -0.041421)
(-0.00042911 -0.00105138 -0.0419662)
(-0.000510754 -0.00106315 -0.0424363)
(-0.000536694 -0.00105553 -0.0428298)
(-0.000508722 -0.00102843 -0.0431003)
(0.000475011 -0.000714629 -0.0355403)
(0.000235469 -0.000763596 -0.0391914)
(2.11097e-05 -0.000870427 -0.0403896)
(-0.000134308 -0.000965183 -0.0410689)
(-0.000245334 -0.00104155 -0.0415894)
(-0.000305985 -0.00109008 -0.0420317)
(-0.000316398 -0.00110803 -0.0423964)
(-0.000279392 -0.00109409 -0.0426388)
(-0.000616917 -0.000802077 -0.0353039)
(-0.000657921 -0.000625064 -0.0388424)
(-0.000723402 -0.000416244 -0.0400127)
(-0.000770007 -0.000217714 -0.0406881)
(-0.000787577 -2.79012e-05 -0.041217)
(-0.000767019 0.000143719 -0.0416779)
(-0.00070866 0.000288606 -0.0420715)
(-0.000617057 0.000397549 -0.042354)
(-0.000523794 -0.00104449 -0.0355785)
(-0.000627318 -0.000840996 -0.0390909)
(-0.000761189 -0.000633779 -0.0402741)
(-0.000864945 -0.000445083 -0.0409775)
(-0.000932983 -0.000265521 -0.0415411)
(-0.000954827 -0.00010053 -0.0420393)
(-0.000929869 4.32263e-05 -0.0424699)
(-0.00086128 0.000157742 -0.0427868)
(-0.000329255 -0.00116585 -0.0357857)
(-0.000511219 -0.000974093 -0.0392752)
(-0.000717809 -0.000801984 -0.0404725)
(-0.000877918 -0.0006503 -0.0412036)
(-0.000993896 -0.000505839 -0.0418001)
(-0.00105606 -0.000370316 -0.0423325)
(-0.00106393 -0.000248091 -0.0427969)
(-0.00101943 -0.000145328 -0.043145)
(-9.43966e-05 -0.0011465 -0.0358696)
(-0.000342198 -0.0010096 -0.0393425)
(-0.000603857 -0.000906384 -0.040548)
(-0.000805497 -0.000816982 -0.0412963)
(-0.000956804 -0.000729208 -0.0419147)
(-0.00104832 -0.000642073 -0.042472)
(-0.00107935 -0.000557949 -0.0429614)
(-0.00105159 -0.000480675 -0.0433326)
(0.000111928 -0.00100853 -0.035821)
(-0.000169716 -0.000956437 -0.0392851)
(-0.000454171 -0.000943718 -0.0404922)
(-0.000670207 -0.00093237 -0.0412455)
(-0.000832588 -0.000914381 -0.0418706)
(-0.000932655 -0.000886308 -0.0424353)
(-0.000970106 -0.00084893 -0.0429319)
(-0.000947011 -0.000803961 -0.0433092)
(0.000255485 -0.000802326 -0.0356343)
(-2.01311e-05 -0.000838817 -0.0391005)
(-0.00028832 -0.000917398 -0.040303)
(-0.000487211 -0.000983854 -0.0410488)
(-0.000633125 -0.00103498 -0.0416648)
(-0.000718696 -0.00106493 -0.0422199)
(-0.000744376 -0.0010728 -0.042707)
(-0.000713166 -0.00105839 -0.0430751)
(0.000302467 -0.000563586 -0.0353343)
(6.33533e-05 -0.000677653 -0.0388076)
(-0.0001606 -0.000833415 -0.0399982)
(-0.000320272 -0.000963408 -0.0407236)
(-0.000431277 -0.00106918 -0.0413147)
(-0.000487784 -0.00114274 -0.0418425)
(-0.000491121 -0.00118178 -0.0423016)
(-0.00044543 -0.00118472 -0.0426429)
(-0.000665058 -0.000798046 -0.0349513)
(-0.000704446 -0.000547827 -0.0383071)
(-0.000778097 -0.000286124 -0.0394691)
(-0.000824585 -4.70009e-05 -0.0401909)
(-0.000837377 0.000177998 -0.0407907)
(-0.000808313 0.000379476 -0.0413376)
(-0.000739357 0.000548725 -0.0418267)
(-0.000636574 0.000676125 -0.0422099)
(-0.000564006 -0.00101939 -0.0352177)
(-0.000686822 -0.000754902 -0.0385518)
(-0.000842628 -0.000506405 -0.0397321)
(-0.000956747 -0.000285397 -0.0404854)
(-0.0010289 -7.73934e-05 -0.0411215)
(-0.00105032 0.000112523 -0.0417057)
(-0.0010223 0.000277278 -0.0422311)
(-0.000949219 0.000408436 -0.0426479)
(-0.000371033 -0.00110837 -0.0354256)
(-0.000588791 -0.000877674 -0.0387436)
(-0.000826855 -0.000681163 -0.0399442)
(-0.00100365 -0.000509859 -0.0407297)
(-0.0011285 -0.000348179 -0.0414007)
(-0.00119524 -0.000197544 -0.0420179)
(-0.00120576 -6.23654e-05 -0.042575)
(-0.00116233 5.08768e-05 -0.0430212)
(-0.000149639 -0.00105611 -0.035508)
(-0.000439664 -0.000909448 -0.0388135)
(-0.000736335 -0.000801979 -0.0400241)
(-0.000958484 -0.000707848 -0.0408274)
(-0.00112292 -0.000615804 -0.0415212)
(-0.00122292 -0.000525449 -0.0421654)
(-0.00125961 -0.000439057 -0.0427494)
(-0.00123542 -0.000360342 -0.0432201)
(3.08856e-05 -0.000898765 -0.0354682)
(-0.000287771 -0.000867508 -0.0387664)
(-0.000603448 -0.0008714 -0.0399788)
(-0.000838031 -0.000871268 -0.0407874)
(-0.00101224 -0.000862751 -0.0414888)
(-0.00111958 -0.000843444 -0.0421421)
(-0.0011614 -0.000814338 -0.0427348)
(-0.00114072 -0.000776942 -0.043213)
(0.000141908 -0.000684483 -0.0353)
(-0.000154744 -0.000768202 -0.0385998)
(-0.000443804 -0.00088112 -0.0398072)
(-0.000654272 -0.00097225 -0.0406082)
(-0.000806328 -0.00104422 -0.0413011)
(-0.000894166 -0.00109263 -0.041946)
(-0.000919733 -0.00111697 -0.0425306)
(-0.000887067 -0.0011168 -0.0430012)
(0.000160908 -0.000457584 -0.0350276)
(-7.6078e-05 -0.000634194 -0.0383336)
(-0.000305794 -0.000835448 -0.0395277)
(-0.000466302 -0.00099909 -0.040308)
(-0.000574426 -0.00113345 -0.0409767)
(-0.000625283 -0.00123201 -0.0415957)
(-0.000621582 -0.00129289 -0.0421546)
(-0.000568651 -0.00131422 -0.0426007)
(-0.000688237 -0.000752448 -0.0345002)
(-0.000722386 -0.000431568 -0.0376877)
(-0.000800829 -0.000121034 -0.038855)
(-0.00084503 0.000155257 -0.039633)
(-0.000851864 0.000411549 -0.0403114)
(-0.000814881 0.000639021 -0.0409505)
(-0.000737862 0.000828917 -0.0415408)
(-0.000628228 0.000971511 -0.0420315)
(-0.00059191 -0.000960376 -0.0347523)
(-0.000728846 -0.000638054 -0.0379293)
(-0.000901043 -0.000352629 -0.0391211)
(-0.0010214 -0.000103229 -0.0399332)
(-0.00109467 0.000129288 -0.0406476)
(-0.00111475 0.000340724 -0.0413216)
(-0.00108484 0.000523354 -0.0419449)
(-0.0010098 0.000668407 -0.0424655)
(-0.000409915 -0.0010275 -0.0349587)
(-0.000657203 -0.000760284 -0.038132)
(-0.000918843 -0.000542395 -0.0393527)
(-0.00110517 -0.000354845 -0.0402028)
(-0.00123228 -0.000179867 -0.0409527)
(-0.00130033 -1.78268e-05 -0.0416533)
(-0.00131388 0.000127138 -0.0423017)
(-0.00127383 0.000248285 -0.0428467)
(-0.000204471 -0.000957726 -0.0350327)
(-0.000528552 -0.000801752 -0.0381992)
(-0.000850827 -0.000690429 -0.0394299)
(-0.00108615 -0.000592797 -0.0402962)
(-0.00125788 -0.00049869 -0.0410689)
(-0.00136331 -0.000408149 -0.0418005)
(-0.00140515 -0.000322571 -0.0424788)
(-0.00138579 -0.000245167 -0.0430501)
(-4.55774e-05 -0.000802579 -0.0349976)
(-0.000392806 -0.00078955 -0.0381577)
(-0.000730288 -0.00080779 -0.0393894)
(-0.000976533 -0.00081817 -0.0402603)
(-0.00115732 -0.000819397 -0.0410418)
(-0.00126891 -0.000809892 -0.0417853)
(-0.00131417 -0.000790493 -0.0424751)
(-0.00129662 -0.000762286 -0.0430561)
(4.4961e-05 -0.000598922 -0.0348465)
(-0.000265967 -0.000724872 -0.0380063)
(-0.000567905 -0.000867582 -0.0392322)
(-0.000784016 -0.000980909 -0.0400958)
(-0.000937717 -0.00107219 -0.0408702)
(-0.00102528 -0.00113832 -0.0416074)
(-0.00105004 -0.00117903 -0.0422916)
(-0.00101673 -0.00119355 -0.0428674)
(5.32041e-05 -0.000395502 -0.0346034)
(-0.000178002 -0.000628729 -0.0377651)
(-0.00040809 -0.000869765 -0.0389763)
(-0.000565108 -0.00106347 -0.0398194)
(-0.000667097 -0.00122366 -0.0405711)
(-0.000710692 -0.00134531 -0.0412851)
(-0.000699941 -0.00142688 -0.0419468)
(-0.000640996 -0.00146627 -0.0425013)
(-0.000682211 -0.000665907 -0.0339373)
(-0.000708544 -0.000282511 -0.0369849)
(-0.000788406 6.85635e-05 -0.0381731)
(-0.000828374 0.000374518 -0.0390166)
(-0.000828784 0.000654507 -0.0397797)
(-0.000785801 0.000900409 -0.0405156)
(-0.000705045 0.00110359 -0.0412115)
(-0.000593262 0.00125546 -0.0418139)
(-0.00060416 -0.000869085 -0.0341721)
(-0.000749856 -0.000497196 -0.0372259)
(-0.000931836 -0.00018317 -0.0384455)
(-0.00105346 8.69908e-05 -0.0393251)
(-0.0011244 0.000337183 -0.0401216)
(-0.00114208 0.000564339 -0.0408866)
(-0.00111141 0.000758957 -0.0416089)
(-0.00103724 0.000912039 -0.0422359)
(-0.000443132 -0.000923144 -0.0343785)
(-0.000713208 -0.000625547 -0.0374472)
(-0.00098861 -0.000392151 -0.0387091)
(-0.00117408 -0.00019478 -0.0396355)
(-0.00129369 -1.32503e-05 -0.0404662)
(-0.00135855 0.000154419 -0.041241)
(-0.00137561 0.000304338 -0.0419748)
(-0.00134126 0.000428953 -0.0426169)
(-0.000255256 -0.000848859 -0.034437)
(-0.000603347 -0.000686304 -0.0375043)
(-0.00093963 -0.000572701 -0.0387725)
(-0.00117844 -0.00047399 -0.0397099)
(-0.00134949 -0.000381665 -0.0405625)
(-0.00145599 -0.000295733 -0.0413781)
(-0.00150171 -0.000215504 -0.042148)
(-0.00148741 -0.000143289 -0.0428192)
(-0.000113938 -0.000717164 -0.0344024)
(-0.000478675 -0.000720166 -0.0374628)
(-0.000826398 -0.00075049 -0.0387283)
(-0.00107588 -0.000770662 -0.0396678)
(-0.00125681 -0.000782054 -0.0405312)
(-0.00136859 -0.000783565 -0.0413646)
(-0.0014152 -0.000775274 -0.0421509)
(-0.00140011 -0.000757647 -0.0428352)
(-3.24613e-05 -0.000542574 -0.0342667)
(-0.00034863 -0.000704274 -0.0373235)
(-0.000653716 -0.000871049 -0.0385822)
(-0.000868552 -0.00100299 -0.0395149)
(-0.0010188 -0.00111092 -0.0403736)
(-0.00110299 -0.00119281 -0.041204)
(-0.00112555 -0.00124839 -0.0419883)
(-0.0010914 -0.00127658 -0.0426707)
(-1.84108e-05 -0.000374321 -0.0340539)
(-0.000238949 -0.00065502 -0.0371055)
(-0.000463039 -0.000927802 -0.0383481)
(-0.000612007 -0.0011459 -0.0392612)
(-0.000704786 -0.0013271 -0.0400997)
(-0.000739777 -0.00146777 -0.0409106)
(-0.000722078 -0.00156662 -0.0416764)
(-0.00065816 -0.00162143 -0.0423416)
(-0.000645426 -0.000543191 -0.0332583)
(-0.000662756 -0.000110854 -0.0362056)
(-0.000740909 0.0002683 -0.0374314)
(-0.000775355 0.000592736 -0.0383486)
(-0.000770316 0.000885379 -0.0392014)
(-0.000725251 0.00113878 -0.0400376)
(-0.000645465 0.00134555 -0.0408412)
(-0.000536881 0.00149812 -0.0415579)
(-0.000598905 -0.000751744 -0.0334749)
(-0.00074823 -0.000342769 -0.0364503)
(-0.000932893 -1.21642e-05 -0.0377157)
(-0.00105037 0.000268614 -0.0386709)
(-0.00111557 0.000528127 -0.0395512)
(-0.00113039 0.000762634 -0.0404062)
(-0.00110063 0.000960527 -0.0412271)
(-0.00102982 0.00111408 -0.0419612)
(-0.000468093 -0.000798942 -0.0336842)
(-0.000754968 -0.000479982 -0.0367022)
(-0.00103173 -0.00023992 -0.0380332)
(-0.00120162 -4.22425e-05 -0.0390538)
(-0.00130407 0.000137463 -0.0399671)
(-0.00136378 0.000304332 -0.0407887)
(-0.00138528 0.000452752 -0.0415975)
(-0.00135889 0.000574095 -0.0423346)
(-0.000297047 -0.000729321 -0.0337202)
(-0.000658918 -0.000564928 -0.0367393)
(-0.000997006 -0.000451616 -0.038065)
(-0.00122805 -0.000355933 -0.0390826)
(-0.00138932 -0.000271289 -0.0400134)
(-0.00149244 -0.000195704 -0.0409051)
(-0.0015407 -0.000126006 -0.0417622)
(-0.00153098 -6.34115e-05 -0.0425318)
(-0.000168928 -0.000640082 -0.0336826)
(-0.000539127 -0.000657628 -0.0366909)
(-0.000885313 -0.000697933 -0.0380051)
(-0.00112921 -0.000727191 -0.0390184)
(-0.0013036 -0.000749319 -0.0399643)
(-0.00141125 -0.000763062 -0.0408864)
(-0.00145661 -0.000766978 -0.0417681)
(-0.00144239 -0.000760798 -0.0425556)
(-8.65667e-05 -0.000510534 -0.0335612)
(-0.000398001 -0.000700887 -0.0365613)
(-0.000696472 -0.000885377 -0.037867)
(-0.000903293 -0.00103148 -0.038874)
(-0.0010453 -0.00115246 -0.0398186)
(-0.00112316 -0.00124696 -0.0407426)
(-0.0011419 -0.00131453 -0.0416268)
(-0.0011062 -0.00135383 -0.0424166)
(-5.25196e-05 -0.000387762 -0.0333795)
(-0.000257067 -0.000704716 -0.0363647)
(-0.000469038 -0.000999603 -0.037653)
(-0.000606125 -0.00123475 -0.0386422)
(-0.000687563 -0.0014304 -0.0395702)
(-0.000713421 -0.00158404 -0.040479)
(-0.000689395 -0.00169465 -0.0413495)
(-0.000621737 -0.00175999 -0.0421266)
(-0.000577843 -0.00039343 -0.032465)
(-0.000586712 7.02682e-05 -0.0353617)
(-0.000661135 0.00046215 -0.0366417)
(-0.000690474 0.000791361 -0.0376406)
(-0.000683653 0.00108313 -0.0385873)
(-0.000641195 0.00133178 -0.0395253)
(-0.000567944 0.00153054 -0.0404377)
(-0.000468397 0.00167326 -0.0412703)
(-0.000573557 -0.000616367 -0.0326657)
(-0.00072237 -0.000185944 -0.0356157)
(-0.000903213 0.000147665 -0.0369466)
(-0.00101182 0.000429259 -0.0379875)
(-0.00106963 0.000688314 -0.0389496)
(-0.00108281 0.000919372 -0.039891)
(-0.00105619 0.00111013 -0.0408089)
(-0.000991545 0.00125427 -0.0416504)
(-0.000481616 -0.000660281 -0.0328863)
(-0.000777919 -0.000332077 -0.0359153)
(-0.00103931 -9.69928e-05 -0.037359)
(-0.00118045 9.0765e-05 -0.0385232)
(-0.00126331 0.000260754 -0.0395259)
(-0.00132197 0.00042017 -0.0403114)
(-0.00135 0.000559133 -0.0411792)
(-0.00133188 0.000669852 -0.0420089)
(-0.000325064 -0.000602686 -0.0328988)
(-0.000689972 -0.000443122 -0.0359185)
(-0.00101747 -0.000334696 -0.0373286)
(-0.00123111 -0.000248936 -0.038444)
(-0.00137772 -0.000178486 -0.0394478)
(-0.00147531 -0.000118289 -0.040395)
(-0.00152372 -6.32603e-05 -0.0413326)
(-0.00151688 -1.45009e-05 -0.0421994)
(-0.000205669 -0.000571795 -0.0328578)
(-0.000569753 -0.000602992 -0.0358557)
(-0.000903855 -0.00065193 -0.0372331)
(-0.00113416 -0.000690035 -0.0383258)
(-0.00129642 -0.000723194 -0.0393539)
(-0.00139663 -0.000749204 -0.040363)
(-0.00143835 -0.000765227 -0.0413391)
(-0.00142319 -0.000770402 -0.0422301)
(-0.000113704 -0.000498733 -0.0327486)
(-0.000411304 -0.0007101 -0.035734)
(-0.00069498 -0.000905679 -0.0371)
(-0.000888304 -0.00106084 -0.0381861)
(-0.00101849 -0.00119047 -0.039218)
(-0.00108801 -0.00129337 -0.0402357)
(-0.00110187 -0.00136881 -0.0412201)
(-0.00106409 -0.00141532 -0.0421181)
(-4.80111e-05 -0.000428053 -0.0325932)
(-0.000232557 -0.000768739 -0.0355574)
(-0.000428184 -0.00107533 -0.0369051)
(-0.000551311 -0.00131912 -0.0379756)
(-0.000620943 -0.00152146 -0.0389951)
(-0.0006385 -0.0016807 -0.0400026)
(-0.000609767 -0.00179596 -0.0409784)
(-0.000540323 -0.00186527 -0.0418685)
(-0.000480396 -0.000226234 -0.0315771)
(-0.000483781 0.000248189 -0.0344691)
(-0.000554927 0.000636155 -0.0358199)
(-0.000583032 0.00095482 -0.036909)
(-0.000579167 0.00123217 -0.0379515)
(-0.000545176 0.00146306 -0.0389921)
(-0.000484603 0.00164154 -0.0400137)
(-0.000400084 0.00176321 -0.0409633)
(-0.000526164 -0.000467019 -0.0317724)
(-0.000671231 -3.25468e-05 -0.0347409)
(-0.00084332 0.000292353 -0.0361596)
(-0.00094037 0.000564801 -0.0373008)
(-0.000992687 0.000810811 -0.0383304)
(-0.0010076 0.00102646 -0.0393544)
(-0.000987556 0.00119765 -0.0403681)
(-0.000932098 0.00132091 -0.0413171)
(-0.000479433 -0.000513128 -0.0320111)
(-0.000769914 -0.000192001 -0.0351165)
(-0.00100391 2.60437e-05 -0.0367669)
(-0.00111541 0.000196184 -0.0381093)
(-0.00118633 0.000349163 -0.0390364)
(-0.00125373 0.000495989 -0.0398108)
(-0.00128745 0.000617464 -0.0407337)
(-0.001275 0.000709344 -0.0416561)
(-0.000337403 -0.000478544 -0.0319994)
(-0.000693528 -0.000333113 -0.0350623)
(-0.00100116 -0.000238341 -0.036598)
(-0.00119267 -0.000169475 -0.0378528)
(-0.00132356 -0.000117461 -0.0389185)
(-0.00141615 -7.42653e-05 -0.0398655)
(-0.00146307 -3.58443e-05 -0.0408759)
(-0.00145646 -3.17532e-06 -0.0418392)
(-0.000223082 -0.000517188 -0.0319553)
(-0.00057056 -0.000561755 -0.0349749)
(-0.000883759 -0.000618819 -0.0364299)
(-0.00109441 -0.000665085 -0.0376087)
(-0.00124122 -0.000708303 -0.0387172)
(-0.00133241 -0.000745136 -0.0398111)
(-0.00136901 -0.00077142 -0.0408815)
(-0.00135155 -0.000786246 -0.0418768)
(-0.00011396 -0.000506211 -0.0318587)
(-0.000390561 -0.000730232 -0.0348604)
(-0.00065321 -0.000929863 -0.0362986)
(-0.000829206 -0.00108826 -0.0374679)
(-0.000945764 -0.00122142 -0.0385882)
(-0.00100651 -0.00132764 -0.0397001)
(-0.00101554 -0.00140586 -0.0407853)
(-0.00097602 -0.00145472 -0.0417926)
(-6.94858e-06 -0.000489552 -0.0317263)
(-0.000170066 -0.000840009 -0.0347021)
(-0.000347534 -0.00114725 -0.036121)
(-0.000456698 -0.00139063 -0.0372773)
(-0.000515982 -0.00159137 -0.0383905)
(-0.000527656 -0.00174818 -0.0394979)
(-0.000497083 -0.00186035 -0.0405798)
(-0.000428855 -0.00192631 -0.0415839)
(-0.000358224 -5.00425e-05 -0.0306256)
(-0.000361687 0.000413354 -0.0335487)
(-0.000434039 0.000780317 -0.0349871)
(-0.000465203 0.00107435 -0.0361733)
(-0.000469811 0.00132349 -0.0373114)
(-0.000450776 0.00152427 -0.038454)
(-0.000408992 0.00167125 -0.0395847)
(-0.000345039 0.00176178 -0.0406513)
(-0.00045761 -0.00030433 -0.0308249)
(-0.00059672 0.000116993 -0.0338497)
(-0.000757345 0.000420777 -0.0353779)
(-0.000842787 0.00067636 -0.0366046)
(-0.000895366 0.00089789 -0.0377012)
(-0.000917796 0.00108248 -0.0388104)
(-0.000908421 0.0012204 -0.0399212)
(-0.000864953 0.00131154 -0.040978)
(-0.000454481 -0.000365271 -0.0310891)
(-0.000727335 -6.81008e-05 -0.03435)
(-0.000926707 0.000120435 -0.0363507)
(-0.00101117 0.000269123 -0.0375669)
(-0.00110382 0.000402003 -0.0383387)
(-0.00118918 0.000532931 -0.0392506)
(-0.00122002 0.000627655 -0.0402752)
(-0.00120596 0.000692221 -0.0412968)
(-0.000332764 -0.000371321 -0.0310513)
(-0.000666315 -0.000251893 -0.0341909)
(-0.000948441 -0.000180731 -0.0358621)
(-0.00112207 -0.000133644 -0.0371863)
(-0.00124702 -0.000103226 -0.0382748)
(-0.00133803 -7.12531e-05 -0.0393182)
(-0.00137783 -4.74766e-05 -0.0404113)
(-0.00136716 -3.0834e-05 -0.0414722)
(-0.000222197 -0.000483179 -0.0310025)
(-0.000543923 -0.000541555 -0.0340705)
(-0.000830011 -0.000607584 -0.0356176)
(-0.00101934 -0.000661669 -0.036893)
(-0.00115126 -0.000711763 -0.0380721)
(-0.00123343 -0.000754504 -0.0392502)
(-0.00126421 -0.000786974 -0.0404154)
(-0.00124365 -0.000808153 -0.0415157)
(-9.07221e-05 -0.000533292 -0.0309195)
(-0.000341712 -0.000761576 -0.0339622)
(-0.000579646 -0.000958467 -0.0354845)
(-0.000736542 -0.00111396 -0.0367396)
(-0.000839861 -0.00124461 -0.0379479)
(-0.000893166 -0.00134834 -0.0391546)
(-0.000898762 -0.0014237 -0.0403418)
(-0.000858842 -0.00146961 -0.0414591)
(6.38573e-05 -0.000567562 -0.0308071)
(-7.90892e-05 -0.000913497 -0.0338196)
(-0.000238854 -0.00121027 -0.0353194)
(-0.00033596 -0.00144413 -0.0365653)
(-0.000388127 -0.00163519 -0.0377739)
(-0.000397746 -0.00178182 -0.0389826)
(-0.000369263 -0.00188341 -0.0401719)
(-0.000306121 -0.00193899 -0.0412909)
(-0.000221616 0.000125876 -0.029638)
(-0.000234582 0.000557492 -0.0326241)
(-0.000313074 0.000888339 -0.0341662)
(-0.000351305 0.00114555 -0.0354593)
(-0.00037009 0.00135484 -0.0366852)
(-0.000371933 0.00151536 -0.0379271)
(-0.000353969 0.0016224 -0.039166)
(-0.0003147 0.00167458 -0.0403486)
(-0.000372419 -0.000130518 -0.0298519)
(-0.000506239 0.000260025 -0.0329623)
(-0.000656008 0.000524581 -0.0346183)
(-0.000730595 0.00076482 -0.0359372)
(-0.000793286 0.000949333 -0.0370829)
(-0.000830286 0.00108648 -0.0382761)
(-0.000834197 0.0011805 -0.0394847)
(-0.000804267 0.00123162 -0.0406493)
(-0.000406505 -0.000225809 -0.0301514)
(-0.000661532 3.23039e-05 -0.0336245)
(-0.000824489 0.000169548 -0.0356724)
(-0.000921518 0.000316477 -0.0367639)
(-0.00105222 0.000437951 -0.0377826)
(-0.00113494 0.000531146 -0.0387313)
(-0.00115666 0.000590859 -0.0398315)
(-0.00113676 0.000622786 -0.0409516)
(-0.000311957 -0.000294862 -0.0300876)
(-0.000609502 -0.000211664 -0.0333244)
(-0.000866931 -0.000178355 -0.0351033)
(-0.00103593 -0.00014862 -0.0365301)
(-0.00116687 -0.000125738 -0.03764)
(-0.0012538 -0.000104847 -0.0387696)
(-0.00128289 -9.40335e-05 -0.0399569)
(-0.00126481 -9.2362e-05 -0.0411183)
(-0.000204865 -0.000473605 -0.0300285)
(-0.000494949 -0.000545701 -0.0331671)
(-0.000754154 -0.000622263 -0.0348285)
(-0.000923331 -0.000681393 -0.0362287)
(-0.00104295 -0.000733636 -0.0374391)
(-0.00111784 -0.000776522 -0.0386991)
(-0.00114281 -0.000810539 -0.0399605)
(-0.00111874 -0.000834326 -0.0411666)
(-4.83647e-05 -0.000579256 -0.0299582)
(-0.000272649 -0.000803808 -0.0330623)