/*--------------------------------*- C++ -*----------------------------------*\
| =========                 |                                                 |
| \\      /  F ield         | OpenFOAM: The Open Source CFD Toolbox           |
|  \\    /   O peration     | Version:  plus.master.MPPICInterFoam            |
|   \\  /    A nd           | Web:      www.OpenFOAM.com                      |
|    \\/     M anipulation  |                                                 |
\*---------------------------------------------------------------------------*/
FoamFile
{
    version     2.0;
    format      ascii;
    class       vectorField;
    location    "6.8/lagrangian/kinematicCloud";
    object      U;
}
// * * * * * * * * * * * * * * * * * * * * * * * * * * * * * * * * * * * * * //


2971
(
(0.00460319 0.000943546 -0.0359261)
(0.00466187 0.00123458 -0.0354845)
(0.00360406 0.00406255 -0.038003)
(0.00361903 0.00403817 -0.0376481)
(0.00492449 -0.00121693 -0.0316512)
(0.00508842 -0.000771689 -0.0340489)
(0.00355388 0.00386196 -0.0367056)
(0.00401287 0.00417522 -0.0337335)
(0.00401292 0.00428061 -0.0365754)
(0.00485167 -0.0012843 -0.0324255)
(0.00401118 0.0045299 -0.0328259)
(0.00369474 0.00464405 -0.0353046)
(0.00357329 0.00386984 -0.0366218)
(0.00429141 0.00402304 -0.0377497)
(0.00376567 0.00400145 -0.0343501)
(0.00516843 -0.00103914 -0.034558)
(0.00371271 0.00391567 -0.0367058)
(0.00411025 0.00335024 -0.0392306)
(0.00408534 0.00314865 -0.0384815)
(0.00392841 0.00452995 -0.0377057)
(0.00464269 0.00119084 -0.0375078)
(0.00389766 0.00412948 -0.0369828)
(0.00517274 -0.00106984 -0.0366738)
(0.00312294 0.00353264 -0.0318768)
(0.0038322 0.00427039 -0.037737)
(0.0041942 0.00290002 -0.0388461)
(0.00388023 0.00413619 -0.0383905)
(0.00409815 0.00313344 -0.03867)
(0.00358489 0.00391622 -0.0384559)
(0.00321554 0.00365511 -0.0329233)
(0.00350319 0.00306888 -0.0312439)
(0.00381929 0.00445498 -0.0384411)
(0.0037822 0.00453109 -0.0343647)
(0.00511809 -0.000929946 -0.0365592)
(0.00389385 0.00457729 -0.0368189)
(0.0035998 0.00394851 -0.0389333)
(0.0036885 0.00408208 -0.0386877)
(0.00408293 0.0031616 -0.038978)
(0.00391571 0.00420316 -0.0367768)
(0.00390371 0.00431712 -0.0384856)
(0.00423442 0.00104088 -0.0329757)
(0.00493376 -0.000136201 -0.0371869)
(0.00420432 0.00315911 -0.0390464)
(0.00473227 0.00138975 -0.0385037)
(0.0067185 -0.000277132 -0.0346529)
(0.00387593 0.0043523 -0.037785)
(0.00498923 0.00457701 -0.0350926)
(0.00518611 -0.000964575 -0.03702)
(0.00405223 0.00475406 -0.0352147)
(0.00535462 0.00121371 -0.031979)
(0.00517965 -0.000985813 -0.036448)
(0.00496826 -9.50232e-05 -0.0355611)
(0.00444328 0.00469599 -0.0341031)
(0.00674784 -0.000283511 -0.0353711)
(0.00331466 0.00415626 -0.0378829)
(0.00680359 0.000193416 -0.0344787)
(0.00376343 0.00372 -0.0385754)
(0.0067985 1.09077e-05 -0.035306)
(0.00372235 0.00377887 -0.0384051)
(0.00518976 -0.000956269 -0.0370663)
(0.00676403 -0.000286666 -0.0356717)
(0.00364009 0.00486317 -0.0358936)
(0.00496554 7.64443e-05 -0.0357055)
(0.00618543 0.000450081 -0.0373986)
(0.00521634 -0.000904402 -0.0371571)
(0.00396626 0.00422629 -0.0369825)
(0.00501251 -0.001409 -0.0342069)
(0.00532657 0.000921914 -0.0300033)
(0.0037516 0.00382482 -0.0390504)
(0.00520375 -0.000842737 -0.0372455)
(0.00492233 0.00109006 -0.0394747)
(0.0049475 6.88791e-05 -0.0371702)
(0.00446529 -0.000952367 -0.0334233)
(0.00536455 -0.00136429 -0.0366959)
(0.00436602 0.0012166 -0.0381801)
(0.00449015 0.0011216 -0.0384541)
(0.00348818 0.00263176 -0.0296469)
(0.00689122 -0.000303471 -0.037797)
(0.00440767 -0.00085836 -0.0336667)
(0.00822394 0.000147028 -0.0353114)
(0.00685201 -0.000197347 -0.0362078)
(0.00376368 0.00423703 -0.037757)
(0.00427053 -0.000121661 -0.0314341)
(0.00436995 -0.000744511 -0.0337522)
(0.00373189 0.00431723 -0.0357916)
(0.00693003 -0.000315463 -0.0374883)
(0.00399855 0.00215217 -0.0298176)
(0.0046136 -0.000176351 -0.0358943)
(0.00546669 0.00103345 -0.0309374)
(0.00498877 0.00111075 -0.039957)
(0.003992 0.00211948 -0.0304138)
(0.00413803 0.00190786 -0.0313928)
(0.00521841 0.00100421 -0.0286265)
(0.00452978 -0.000213182 -0.0346724)
(0.00431689 0.00216775 -0.0344411)
(0.00443454 0.00195741 -0.0344708)
(0.00456671 -0.000972066 -0.0344362)
(0.00520842 -0.00114451 -0.0379789)
(-0.00391186 0.00148526 -0.0446282)
(0.00434037 -0.00086387 -0.0337707)
(0.00416952 0.00182772 -0.0316795)
(0.00523723 -0.00115529 -0.0353921)
(0.00592561 0.000351009 -0.0379978)
(0.00444307 0.00117362 -0.0323563)
(0.00419527 0.00180638 -0.0342122)
(0.00569547 -0.002173 -0.0353805)
(0.00502492 -5.45695e-05 -0.0376643)
(0.00467659 0.0012761 -0.0381014)
(-0.00693734 0.00122713 -0.0433368)
(-0.00459512 0.00060939 -0.0461032)
(-0.00394361 0.00138266 -0.0448031)
(0.00447768 -0.000649825 -0.0346023)
(0.00357912 0.00280143 -0.0334356)
(0.00511654 -0.00101502 -0.0344078)
(-0.00544484 -0.00110215 -0.0407887)
(0.0048825 0.000169889 -0.0387529)
(0.00404936 0.00187471 -0.0333648)
(0.00364964 0.00405379 -0.0372431)
(0.00422678 0.00323606 -0.0370971)
(0.004445 0.00127269 -0.0322129)
(0.00529871 -0.00129929 -0.0367782)
(-0.00407473 0.0015174 -0.0480419)
(-0.00406482 0.00149527 -0.0480327)
(0.00450382 -0.000953307 -0.0348646)
(0.00452824 0.000931294 -0.0385081)
(0.0036698 0.00376083 -0.0370321)
(-0.00677512 0.00125079 -0.045261)
(-0.00703647 0.0013952 -0.0450199)
(0.0103275 0.0127553 -0.0264521)
(0.00283667 0.00342194 -0.0315194)
(0.0035863 0.00276351 -0.0325707)
(0.00432546 5.66537e-05 -0.032699)
(0.00451826 0.00173328 -0.03324)
(0.00400668 0.00456835 -0.0357406)
(-0.00705075 0.0013735 -0.0452642)
(0.00403304 0.0026628 -0.0326849)
(0.00386507 0.0021692 -0.0324906)
(0.00526102 -0.00106255 -0.0374299)
(0.00526948 -0.00116086 -0.0375937)
(0.00520012 -0.00136426 -0.0352307)
(-0.00367926 0.00180682 -0.0429457)
(-0.00350928 0.00102864 -0.0352976)
(-0.00705561 0.00135779 -0.0447254)
(0.00411847 -0.0032031 -0.0306973)
(0.00415689 0.00188305 -0.0353255)
(0.00449486 0.000792499 -0.0333878)
(0.00448849 0.00135655 -0.0315546)
(0.00507908 -0.00106695 -0.0348087)
(0.00478101 -0.00104322 -0.0348178)
(-0.00356469 0.00139761 -0.0476538)
(-0.00324332 0.00128837 -0.0476519)
(0.00503372 -0.00207988 -0.0333424)
(0.00446049 0.00134637 -0.0344486)
(0.00368991 0.00403562 -0.0352585)
(0.00466602 0.00100006 -0.03826)
(-0.00709112 0.00136025 -0.044927)
(-0.00706923 0.00136559 -0.0446085)
(-0.0040038 0.00143208 -0.0478563)
(0.00453952 -0.000647636 -0.0343043)
(0.00421883 -0.00116144 -0.0322588)
(0.00531487 -0.00139746 -0.0377136)
(0.00531299 -0.0013006 -0.0359691)
(0.00487665 0.000254866 -0.038642)
(-0.00478117 -0.0012298 -0.0454653)
(-0.00468535 0.000233482 -0.0454251)
(-0.00787944 0.00117404 -0.0429539)
(0.00409594 -0.00109112 -0.0309886)
(0.00494418 -0.00154201 -0.033046)
(0.00438803 -0.000830624 -0.0337894)
(0.00373844 0.00447194 -0.0368884)
(0.0045583 0.00010887 -0.03502)
(0.00552826 0.000269502 -0.0376558)
(-0.007081 0.00109075 -0.0429508)
(0.00533009 -0.00140397 -0.0376801)
(0.00361212 0.00311061 -0.0338069)
(0.0047484 0.000950643 -0.0386159)
(-0.00523488 -0.00123404 -0.0369397)
(-0.00511686 0.00129955 -0.0412548)
(0.00257545 0.00429329 -0.0318964)
(0.00402529 0.00172394 -0.0294414)
(0.00496305 -0.00227807 -0.0338178)
(0.00541919 -0.00149512 -0.0363977)
(0.00533 -0.0013264 -0.0377766)
(0.00454755 0.00106547 -0.0349272)
(0.00548942 0.00154115 -0.0295997)
(-0.0038914 0.00148735 -0.0410857)
(0.00425149 -5.17645e-05 -0.0306015)
(0.00492458 9.79907e-05 -0.0387811)
(0.00404903 0.00453617 -0.036084)
(0.00544096 0.000310181 -0.0377367)
(-0.00593458 0.000759167 -0.047583)
(0.002795 0.00378839 -0.0320434)
(0.00787903 -0.000195221 -0.029751)
(-0.00655469 0.000991035 -0.0422171)
(-0.00250986 0.00122638 -0.0476907)
(0.00441395 -0.00037731 -0.031782)
(0.00333363 0.00296472 -0.0312255)
(0.0030952 0.00243768 -0.0248704)
(0.00431832 -0.000408317 -0.0308873)
(0.00399477 0.0016798 -0.0292639)
(0.00455481 0.0019215 -0.0352663)
(0.00366389 0.00370054 -0.0330996)
(0.0110084 0.0026758 -0.0286027)
(0.00455246 -0.000230543 -0.0336882)
(0.00441057 0.00186601 -0.0345111)
(0.0037587 0.00275806 -0.0330805)
(0.00477646 0.00118412 -0.0375929)
(0.00467221 0.00094197 -0.0356288)
(0.00321845 0.00399857 -0.0348565)
(0.00330543 0.0038616 -0.0342494)
(-0.00435801 -0.00106312 -0.036692)
(-0.00439716 -0.000437047 -0.0429112)
(-0.00571015 0.00060392 -0.0470906)
(-0.00750809 0.00111554 -0.0454791)
(-0.00250394 0.00195122 -0.0473607)
(0.00243008 0.00433714 -0.0306999)
(0.0110629 0.00265744 -0.0286967)
(0.00473262 0.000822955 -0.0372629)
(0.00332828 0.0041191 -0.0353247)
(-0.00510104 -0.00132743 -0.0426505)
(0.00246109 0.00437172 -0.030812)
(0.0110078 0.00270208 -0.0276236)
(0.00484581 0.00120548 -0.031636)
(0.00531075 0.000405974 -0.0356477)
(0.00368662 0.00368976 -0.033238)
(0.00668835 0.00871197 -0.0293381)
(0.00437376 0.00178884 -0.0339967)
(0.00399948 0.00303076 -0.0341773)
(0.00321696 0.00396694 -0.0342203)
(0.00470279 0.00113404 -0.0373635)
(0.00479505 -0.000947095 -0.0340606)
(-0.00498648 -0.00158687 -0.0453635)
(-0.00728221 0.000963511 -0.0443067)
(-0.00249622 0.00184059 -0.0473514)
(0.00450451 0.000960199 -0.0327494)
(0.00462537 0.00210971 -0.0347403)
(0.00472969 0.00100618 -0.0372921)
(0.00352726 0.00381015 -0.0347139)
(0.00409319 0.00316805 -0.0351565)
(-0.00563868 -0.00130966 -0.0406327)
(-0.00397572 0.00138568 -0.0422247)
(-0.00182499 0.00120453 -0.048518)
(0.00467014 -0.000683683 -0.0311137)
(0.00470456 0.000647803 -0.0365299)
(0.00453088 0.00242553 -0.0340184)
(0.00456032 -0.000363189 -0.0320746)
(0.00566505 0.00117554 -0.0311741)
(-0.00371418 0.00107989 -0.0346139)
(-0.00392266 0.00154982 -0.0427301)
(-0.00561236 -8.89558e-05 -0.0436336)
(-0.00259313 0.00141451 -0.0477539)
(0.00490004 -0.00216023 -0.0333882)
(0.00464659 0.000930799 -0.0339591)
(-0.00470447 -0.00153895 -0.0451459)
(-0.00392262 0.00162364 -0.0461972)
(0.00451066 0.00136314 -0.0317444)
(0.00495854 -0.00165094 -0.0311992)
(0.00477425 0.00123287 -0.0354247)
(0.00484725 0.00110188 -0.0361648)
(0.00485887 0.000989964 -0.0362214)
(-0.00499818 -0.00158058 -0.0451338)
(-0.00253565 0.00170197 -0.0474189)
(0.00324355 0.00366118 -0.032476)
(0.00466322 0.00129452 -0.0368907)
(-0.00394566 0.00155102 -0.0432068)
(-0.00401305 0.00137744 -0.042363)
(-0.00484184 0.000492591 -0.0472429)
(-0.00358855 0.00174285 -0.0464249)
(0.00374226 0.00263109 -0.0302464)
(0.00337284 0.00267716 -0.0285781)
(-0.00476089 -0.00166335 -0.044447)
(-0.00714362 0.00111581 -0.0447595)
(-0.00395085 0.00155991 -0.0425756)
(-0.00429874 0.000576758 -0.0452827)
(0.00464148 -5.04121e-05 -0.0332845)
(0.00484566 0.00117358 -0.0357472)
(0.00468264 7.57476e-05 -0.0335242)
(0.0048637 -4.16208e-06 -0.0352022)
(-0.00380303 0.000971094 -0.0347402)
(-0.00398371 0.00150039 -0.0427556)
(0.00237576 0.0044238 -0.0300764)
(0.00398972 0.0029623 -0.0330812)
(0.00493499 0.00125503 -0.036514)
(-0.00490391 0.000633702 -0.047083)
(0.00375988 0.00310823 -0.0325087)
(-0.0039546 0.00161792 -0.043752)
(-0.00150012 0.000877654 -0.0472882)
(0.00257891 0.0051095 -0.029666)
(0.00243552 0.0045519 -0.030342)
(0.00486459 -0.000840468 -0.0336143)
(-0.00389023 0.00108723 -0.0360097)
(-0.00402396 0.00143124 -0.0426029)
(0.0152947 0.00350836 -0.025803)
(0.00368599 0.00311989 -0.0321548)
(-0.00384906 0.00100476 -0.0349033)
(0.00510603 0.000320273 -0.0430558)
(0.00512221 0.00033719 -0.0436959)
(-0.0035729 0.00111252 -0.037321)
(-0.00261477 0.00160348 -0.0474112)
(-0.00398607 0.00163666 -0.0444458)
(-0.00596349 0.00161825 -0.0453747)
(-0.00398299 0.00169365 -0.0428033)
(-0.0042734 0.000642558 -0.0461556)
(0.00469593 0.00114118 -0.0335475)
(-0.00481703 -0.00163475 -0.045092)
(-0.00239789 0.00110746 -0.0459258)
(-0.00584175 -0.00128047 -0.0440288)
(-0.00428939 0.000667085 -0.0460227)
(0.00457116 -0.00143587 -0.0317709)
(0.00247136 0.00437406 -0.0297822)
(-0.00402208 0.00160912 -0.0442437)
(-0.00398324 0.0016903 -0.0442579)
(-0.00426204 0.000673284 -0.0456011)
(0.00287084 0.0028279 -0.0238504)
(0.00900951 0.0109861 -0.0263555)
(0.00597843 0.00891459 -0.0270462)
(0.00445786 -0.0015218 -0.0302221)
(0.00423461 -0.00311595 -0.033429)
(-0.00378483 0.00196701 -0.0360166)
(0.00496846 0.00107786 -0.035902)
(-0.00432782 -0.000613933 -0.0391153)
(0.00509924 0.000212357 -0.0445743)
(-0.00400978 0.00169657 -0.044576)
(-0.00473242 -0.00160772 -0.0449737)
(-0.00241 0.00141157 -0.0465367)
(-0.00398957 0.00179298 -0.0437062)
(-0.00427822 0.000677112 -0.0457179)
(0.00322674 0.0073433 -0.0284881)
(0.00470865 0.000824378 -0.0329355)
(0.00466625 0.000588643 -0.0311071)
(0.004678 6.39121e-05 -0.0328081)
(0.00228391 0.00455554 -0.0303363)
(-0.00388537 0.0012816 -0.0359778)
(-0.00460857 -0.00130846 -0.0395781)
(-0.00535908 -0.00159695 -0.0402689)
(-0.00591888 -0.00148225 -0.0415654)
(-0.00483229 -0.00168362 -0.045089)
(-0.00406186 0.00157951 -0.0435151)
(-0.00404159 0.00139502 -0.0421992)
(-0.00407179 0.00157524 -0.0437727)
(-0.00402646 0.00169675 -0.0449217)
(-0.00558093 -0.00154556 -0.0446216)
(-0.0053732 -0.00148661 -0.0446353)
(-0.00403928 0.00164878 -0.0436968)
(0.0150856 0.00293766 -0.0254495)
(0.00351017 0.00704957 -0.0299857)
(0.00498221 0.000876271 -0.0350503)
(0.00511097 0.000326227 -0.0387594)
(-0.00390386 0.000977689 -0.0346767)
(-0.00461888 -0.00134816 -0.0401544)
(-0.00571592 -0.0015201 -0.0447121)
(-0.0040405 0.00140461 -0.0421738)
(-0.00407931 0.00150855 -0.0434007)
(-0.0033819 0.00123397 -0.0460005)
(-0.00504062 -0.00162774 -0.0451036)
(-0.00433089 0.000662795 -0.0437736)
(0.00631291 0.0091197 -0.0298834)
(0.0172285 0.00362342 -0.0240833)
(0.00447685 0.00198116 -0.0323067)
(-0.00427601 0.000345597 -0.0435293)
(-0.00394026 0.00138557 -0.0456603)
(-0.00458477 -0.00100246 -0.0450307)
(0.00365143 0.00410392 -0.0309234)
(0.00423832 -0.00212426 -0.0305435)
(0.00707249 0.00862206 -0.0289815)
(0.00352342 0.00279573 -0.0292373)
(0.00272043 0.00500285 -0.0293797)
(0.0051235 0.000919648 -0.0366031)
(-0.00395048 0.00122105 -0.0360149)
(-0.00574897 -0.00163669 -0.0412435)
(-0.00603472 -0.00152665 -0.0441411)
(0.00504814 -0.00276523 -0.0342486)
(0.00440785 0.00184905 -0.0307231)
(0.00484233 0.0020524 -0.0337128)
(-0.00400664 0.00107416 -0.0359725)
(-0.00368253 0.00120537 -0.038371)
(-0.00409664 0.00146089 -0.0431892)
(0.003376 0.00253988 -0.0229252)
(0.0043541 0.00182298 -0.0300483)
(-0.0038434 0.0011288 -0.0384299)
(-0.00404436 0.00166942 -0.0452338)
(-0.00481605 -0.00148133 -0.0454699)
(0.00473744 0.00150114 -0.0301782)
(0.00445326 -0.000850628 -0.0296506)
(0.00823622 -0.000739402 -0.0309427)
(0.00473615 -0.00110573 -0.0326066)
(0.00382717 -0.00403228 -0.036755)
(0.00510225 0.000425941 -0.0451398)
(0.0050877 0.000303306 -0.0453138)
(-0.00204265 0.00106193 -0.0486259)
(0.0115486 0.00298642 -0.0290831)
(0.00678614 0.0082233 -0.02947)
(0.00497689 0.000192382 -0.0344864)
(0.00513918 0.000369527 -0.0394196)
(-0.00465305 -0.00122433 -0.0409386)
(-0.00486966 -0.00170524 -0.0458722)
(-0.00406107 0.00142411 -0.0427626)
(-0.00402288 0.00144373 -0.0461011)
(0.00335161 0.00715751 -0.0269438)
(0.00315542 -0.00372074 -0.035389)
(0.00511794 0.000181982 -0.041823)
(-0.00414957 0.00123086 -0.0427016)
(-0.00411831 0.00122726 -0.0425598)
(-0.00371415 0.00140465 -0.039156)
(-0.00381212 0.00149972 -0.0402945)
(-0.00407872 0.00137796 -0.0456399)
(-0.00408225 0.00146948 -0.0461478)
(-0.00437203 0.000682661 -0.0438117)
(-0.00410555 0.0013507 -0.0455853)
(-0.00396214 0.00173203 -0.0461151)
(0.00387039 -0.00386052 -0.0344961)
(0.00385708 -0.00309773 -0.0310786)
(0.00401724 -0.00327052 -0.0325659)
(0.00374317 -0.00397646 -0.0351215)
(0.0048149 -0.00196046 -0.035048)
(0.00512742 0.000288893 -0.0409785)
(0.00512421 0.000100506 -0.0435575)
(-0.00413788 0.0011941 -0.0425306)
(-0.00377057 0.00147209 -0.0399879)
(0.00370635 0.00204222 -0.0273803)
(0.00493719 0.000905822 -0.0337686)
(0.00465036 -0.00147599 -0.0322121)
(-0.00424532 0.0012873 -0.0423925)
(-0.00374628 0.00126355 -0.0390875)
(0.00328712 0.00189513 -0.0243763)
(0.000695057 0.00543341 -0.0354289)
(0.0041755 -0.00211456 -0.0296684)
(0.00508627 -2.42899e-05 -0.0357753)
(0.00510846 0.000187263 -0.0450322)
(-0.00419557 0.00127758 -0.0444204)
(-0.00398942 0.00100893 -0.0474673)
(0.0067198 0.000939018 -0.0229928)
(0.00417149 -0.000896003 -0.0290325)
(0.00289411 0.00408043 -0.0300828)
(0.00421474 -0.00194805 -0.029549)
(0.00462264 -0.00139518 -0.0321939)
(0.00378391 0.00299246 -0.0309288)
(0.00408349 -0.00315544 -0.0363921)
(0.00371514 -0.00409464 -0.0363111)
(-0.00446848 -0.000682636 -0.0412248)
(-0.00320291 0.000841882 -0.0482248)
(0.00720386 0.00150848 -0.030815)
(0.00463112 -0.00100579 -0.0316852)
(0.00181022 -0.00460575 -0.0372108)
(0.0034004 -0.0042359 -0.0352164)
(0.00509875 5.67347e-05 -0.0404254)
(-0.00412077 0.00137889 -0.0439063)
(-0.00231032 0.000710472 -0.0486621)
(0.00244394 0.00295999 -0.0232616)
(0.00289481 0.00410247 -0.030237)
(0.00265819 -0.00516859 -0.0334218)
(0.00402804 0.0034429 -0.0330647)
(0.00338973 -0.00430714 -0.0345002)
(0.00514234 -0.000551215 -0.0407456)
(0.00317323 -0.00378132 -0.0366678)
(0.00510643 -0.000513192 -0.0429701)
(-0.00416195 0.00121764 -0.0430746)
(0.00495603 -0.000421592 -0.0431913)
(-0.00373779 0.00144367 -0.0388828)
(-0.00370704 0.00145259 -0.038516)
(-0.0040572 0.000527519 -0.0429509)
(0.0051495 -0.00219292 -0.0328689)
(0.00462622 -0.00122332 -0.0320859)
(0.00405221 -0.00390221 -0.0365515)
(-0.0040837 0.00181016 -0.0358079)
(0.00505074 0.00101438 -0.0346537)
(0.00508806 -2.9969e-05 -0.0388675)
(0.00511046 0.00035612 -0.0377789)
(0.00513546 9.35538e-05 -0.0436739)
(-0.0041508 0.000904094 -0.0399973)
(0.00489609 0.00114729 -0.0387183)
(-0.0042114 0.00115935 -0.0436437)
(0.00517615 -0.00079763 -0.0419639)
(0.00401832 0.000894965 -0.0254833)
(0.00772655 0.00180375 -0.0251187)
(0.00744228 0.00183119 -0.0304823)
(0.00248163 0.00667555 -0.0340142)
(0.00187978 -0.00513946 -0.0350193)
(0.00514719 -7.60544e-05 -0.0398528)
(0.00510215 -5.73668e-05 -0.039171)
(-0.00414619 0.00114806 -0.0447975)
(-0.00440964 0.000682553 -0.0437801)
(-0.00227256 0.000874972 -0.0497615)
(0.00476867 -0.000319459 -0.0315491)
(0.00316482 -0.00383442 -0.0364375)
(0.00492145 -0.00122754 -0.0352562)
(0.00080455 -0.00536683 -0.0384507)
(0.000947597 -0.00542834 -0.0400135)
(0.00228806 0.0033685 -0.038004)
(0.00315061 -0.00376087 -0.0367453)
(0.00186551 -0.00118837 -0.039705)
(0.00185404 -0.0011998 -0.0398338)
(0.00200971 0.00516498 -0.0382636)
(-0.00424414 0.000798008 -0.0446343)
(-0.00303313 0.0007172 -0.0492837)
(-0.00319279 0.000869766 -0.0486416)
(0.00480489 0.000466817 -0.029444)
(0.00797821 0.00986158 -0.0269789)
(0.00405266 0.0014785 -0.0255498)
(0.00331614 0.00725468 -0.0268061)
(3.4045e-05 0.008234 -0.034672)
(0.00504205 0.00644694 -0.0293536)
(0.00055592 0.00655415 -0.0346194)
(0.00433409 -0.0030972 -0.0345072)
(0.00211567 -0.00114247 -0.0399182)
(0.00488558 -0.00203667 -0.040364)
(-0.00360378 0.00108175 -0.0366294)
(-0.00398931 0.00119826 -0.0413154)
(-0.00417885 0.00105487 -0.0427173)
(-0.00374603 0.00150408 -0.0463642)
(0.00507485 -0.000739821 -0.0410361)
(0.00513358 -0.000725678 -0.0416837)
(-0.00318189 0.000832811 -0.0486172)
(0.00303284 0.00730749 -0.0268327)
(-0.00408291 0.00115945 -0.0363344)
(0.00259396 0.00373761 -0.039167)
(0.0033912 -0.00436202 -0.0355001)
(0.00511275 -9.06192e-05 -0.0388813)
(8.00892e-05 0.00856483 -0.0375813)
(0.00265057 -0.00468694 -0.0322696)
(0.00360919 -0.00260914 -0.038581)
(0.00352696 -0.000453143 -0.0438401)
(0.00509783 -0.00114988 -0.0400663)
(0.00494868 -0.00196183 -0.041431)
(-0.00377299 0.00244727 -0.0425043)
(-0.00445464 0.0003599 -0.0460336)
(-0.00430682 0.000383215 -0.0481603)
(0.00460826 0.000339939 -0.0449467)
(0.00339094 0.00267781 -0.0256422)
(0.00359288 -0.00306129 -0.0287589)
(0.00483378 0.000764064 -0.0308171)
(0.00462677 0.00188679 -0.0301828)
(-0.00484271 0.00027309 -0.0326879)
(0.00510293 0.000118168 -0.036606)
(0.000611687 0.00526812 -0.0375506)
(0.000215337 0.00857635 -0.0378956)
(0.000617776 0.00585714 -0.0385693)
(-0.00348864 0.00113151 -0.0358943)
(0.000880862 0.00369661 -0.0391643)
(0.000813646 -0.00533942 -0.0385412)
(0.000468795 0.00632608 -0.038379)
(0.000317882 0.00867651 -0.0388394)
(0.00366958 -0.00424852 -0.0382697)
(0.00484921 0.000592502 -0.0303143)
(0.00638803 0.00895369 -0.0270437)
(0.00507381 -0.00289889 -0.0347099)
(0.00492778 -0.00204178 -0.0355762)
(0.00355104 -0.00226321 -0.0378986)
(0.0037848 -0.00271677 -0.0378271)
(0.00517293 -4.72124e-05 -0.0415635)
(0.000827381 0.00386736 -0.0385037)
(0.00485198 -3.80073e-06 -0.0415815)
(0.000867829 0.00371888 -0.0393332)
(0.0048184 -0.00210607 -0.040783)
(0.00314709 -0.00371735 -0.0376838)
(0.00189578 -0.00472989 -0.0407399)
(0.00286098 0.0108549 -0.0352006)
(0.00441654 -0.00302668 -0.035067)
(0.00525536 0.000496913 -0.0384737)
(0.000801765 0.00548291 -0.0377808)
(0.00160763 -0.0050487 -0.0337318)
(-3.6899e-05 0.00857542 -0.0372975)
(0.00172505 0.00526148 -0.03762)
(0.00484794 -0.00209857 -0.0410001)
(0.0040291 -0.00394473 -0.0400013)
(0.00099568 -0.00546929 -0.0408734)
(-0.00435403 0.000494389 -0.0477481)
(-0.00435221 0.000307387 -0.0469414)
(0.0032337 0.00235053 -0.023992)
(0.00362923 -0.00386757 -0.0317902)
(0.00828565 -8.72731e-05 -0.0290772)
(0.00510106 9.34806e-05 -0.0348782)
(-0.00434622 0.000141843 -0.0326193)
(0.00511557 4.11633e-06 -0.0362761)
(0.00510738 7.98358e-05 -0.0367182)
(0.00512976 -0.000121104 -0.0379597)
(0.00215934 0.00301737 -0.0386875)
(0.00507776 -0.000860465 -0.0389247)
(0.00122125 -0.00457297 -0.0398199)
(0.00204533 0.0077674 -0.0381245)
(-0.00615989 -6.20108e-05 -0.0467328)
(0.00256688 -0.00422424 -0.037013)
(-0.0043478 0.000496221 -0.0468485)
(-0.00435594 0.000497045 -0.0466842)
(0.00500399 -0.000489999 -0.0302625)
(0.00466798 -0.00251244 -0.0355209)
(0.00318824 -0.00403172 -0.0300753)
(-0.00612295 0.000683975 -0.030177)
(0.00457316 -0.00192191 -0.0324724)
(0.00511333 5.24568e-05 -0.0351977)
(0.00219397 0.00777328 -0.0377787)
(0.00525149 -0.000165638 -0.0419528)
(0.00476809 -0.00204554 -0.0364188)
(0.00100302 0.00550583 -0.0378275)
(0.00523655 0.000977051 -0.0375392)
(0.00515625 0.00125952 -0.0356067)
(0.00184514 0.00533388 -0.0389157)
(0.00466169 -0.00053167 -0.0434973)
(0.00362755 -0.00018293 -0.044138)
(0.00513932 -0.000865967 -0.0421006)
(0.00446639 0.0032917 -0.0403798)
(0.0043771 0.00174321 -0.0280898)
(0.0116303 0.00324638 -0.0283307)
(0.00303094 0.00732851 -0.0264849)
(0.00418692 -0.00277941 -0.0387617)
(0.00688051 0.0087649 -0.0274631)
(0.00508321 8.27402e-05 -0.034381)
(0.004848 0.00207028 -0.0356558)
(7.77772e-05 0.00824632 -0.0339273)
(0.00511551 8.10156e-05 -0.0353614)
(0.00233042 -0.00486801 -0.0317223)
(0.000445791 0.00501649 -0.037345)
(0.00485966 -0.000244705 -0.0434968)
(0.00495744 -0.000541468 -0.0436328)
(0.00438443 -0.00209055 -0.0396564)
(0.00311125 0.00294292 -0.0372751)
(0.00401548 -0.00040256 -0.0436695)
(0.00368463 -0.000608424 -0.0250268)
(0.0035091 0.00237665 -0.0245918)
(0.0119399 0.00256124 -0.0287865)
(0.00456917 0.00689757 -0.0289884)
(0.0037024 0.00303157 -0.0295121)
(0.00496275 0.000834324 -0.0320997)
(-0.00571422 0.000481163 -0.0315912)
(0.00230047 0.00749263 -0.0327971)
(0.00199882 0.0028946 -0.0393387)
(0.000406287 0.00500481 -0.0378133)
(0.00201668 0.00284166 -0.0395251)
(0.00437057 0.00325619 -0.0380993)
(0.00222654 0.00771288 -0.0371103)
(-3.86783e-06 0.0086421 -0.0377059)
(0.0039761 -0.000440823 -0.0413514)
(0.00153595 -0.00493265 -0.0329758)
(0.00505167 -0.000592127 -0.0436093)
(0.00463254 -0.00209397 -0.041096)
(0.00297591 0.00295535 -0.0380871)
(0.00268805 -0.000135749 -0.0442029)
(0.00174141 -0.00106636 -0.0411506)
(0.00501059 0.000697402 -0.031516)
(0.00310665 -0.0039725 -0.0293011)
(0.00475687 0.00230955 -0.0370147)
(-0.00567422 0.000386622 -0.0314595)
(9.56142e-05 0.00832775 -0.0348119)
(0.0033522 0.00396332 -0.0361485)
(-0.00424202 0.00107744 -0.0383418)
(-0.00434055 -9.76328e-06 -0.0334542)
(0.00458717 -0.0015926 -0.0408319)
(0.00243249 0.00775454 -0.03753)
(0.00461091 -0.00017574 -0.0435574)
(0.00232874 -0.00473232 -0.0311766)
(0.00210386 -0.001269 -0.0416827)
(-0.00427705 0.00058691 -0.0436587)
(-0.00450155 0.0006599 -0.0447833)
(0.00302146 -0.00475896 -0.0370968)
(0.0027984 -0.00426805 -0.0376185)
(0.00541933 0.00116852 -0.0308055)
(0.0048676 0.00121769 -0.0307643)
(0.00480226 0.00129166 -0.0306561)
(0.00485855 0.00103212 -0.0310396)
(0.00825348 -0.000277759 -0.0287237)
(0.00422942 0.00331751 -0.0352127)
(0.00150827 -0.00511441 -0.0358991)
(0.00425567 0.00332221 -0.0357826)
(-0.00510635 0.000226038 -0.0324632)
(0.00196767 0.00274487 -0.0398228)
(0.000477298 0.00477231 -0.0384857)
(0.0051448 -0.000171801 -0.0374261)
(0.00434526 0.00334526 -0.0390733)
(0.00505444 -0.000865051 -0.0393173)
(0.00456475 0.00318897 -0.0409134)
(-0.00448833 0.00014327 -0.0453897)
(0.00380876 -0.00419604 -0.0391704)
(-0.00443482 0.000174588 -0.0475762)
(0.00568839 0.00127117 -0.0228298)
(0.00360117 0.00722309 -0.0266367)
(0.00478081 0.00115896 -0.0305981)
(0.00494519 0.00188287 -0.0355647)
(0.00383188 0.00310911 -0.0303683)
(0.00279743 0.00475979 -0.032708)
(0.00165467 -0.00471056 -0.0397743)
(0.00138639 0.00557432 -0.0343715)
(0.000109225 0.00813441 -0.0340391)
(0.00428477 0.00329085 -0.0361271)
(0.00505346 0.000245879 -0.0322513)
(0.00297257 -0.00404558 -0.0285902)
(-0.00424991 0.00106636 -0.0373403)
(0.00221749 0.00768767 -0.0365561)
(0.00463539 -0.00208464 -0.038233)
(0.00225708 0.00766766 -0.0365631)
(0.00522193 0.000947886 -0.038919)
(0.00492328 -0.00220689 -0.0424685)
(0.00416481 -0.00329248 -0.0362877)
(0.00515809 -1.59369e-05 -0.0409314)
(0.00352551 -0.00352763 -0.0287004)
(0.00172067 0.00490104 -0.031482)
(0.00313653 -0.00617075 -0.0319342)
(0.00500857 -0.000976511 -0.0365435)
(-0.00405598 0.00101905 -0.0338783)
(0.0018632 0.00261957 -0.0404371)
(0.00514106 -0.000736311 -0.0384714)
(0.00523535 0.000901098 -0.0399562)
(0.00166392 -0.00515554 -0.0386764)
(0.00190483 -0.00520804 -0.0381298)
(-0.00332252 0.000971153 -0.0478275)
(-0.00428738 -0.00103076 -0.0426375)
(0.0039018 0.00104533 -0.0260107)
(0.00513101 0.000588598 -0.0258745)
(0.00297787 0.00678104 -0.0256442)
(0.00479901 0.00128293 -0.0305971)
(0.00632963 0.00914958 -0.0284376)
(0.00216779 -0.00465533 -0.0300652)
(-0.00613436 0.00046119 -0.0295642)
(0.00436358 -0.00223383 -0.0382103)
(0.00201891 -0.00509433 -0.0346774)
(0.00320527 -0.00628327 -0.0318642)
(0.00198792 0.00764985 -0.0358954)
(0.00189529 0.00517825 -0.0405901)
(0.00399739 -0.00402735 -0.0362777)
(0.0044874 0.00316139 -0.0403747)
(0.00368966 -0.004117 -0.0377212)
(0.00167413 0.00400391 -0.0247306)
(0.00579071 0.00749867 -0.0262622)
(0.004931 0.000889447 -0.0309863)
(0.00690355 0.00884277 -0.0278747)
(0.00416597 0.0034519 -0.0352912)
(0.00355701 0.00397152 -0.0331088)
(-0.00623178 0.000557993 -0.0304476)
(0.00510525 0.000155492 -0.0357843)
(0.00268523 -0.00425252 -0.0373493)
(0.000746022 -0.00491438 -0.0364817)
(0.00500013 -0.0020293 -0.0432882)
(0.0012829 -0.00467744 -0.0398402)
(0.000958071 -0.00523011 -0.0376137)
(0.0028613 -0.00492598 -0.0368507)
(0.00199524 -0.00117062 -0.0414988)
(0.00524458 -0.00085671 -0.0436138)
(-0.00433843 0.000747636 -0.0463077)
(0.00516378 0.00115027 -0.0407829)
(0.00477101 0.00130601 -0.03017)
(0.00512648 0.000662159 -0.0326213)
(0.00392251 -0.00898822 -0.0309393)
(0.00517807 0.000801627 -0.0345445)
(0.00496695 0.000609008 -0.0310478)
(0.00200969 -0.000950869 -0.0383529)
(0.00496784 -0.000170634 -0.031873)
(0.00371237 -0.00896454 -0.0306783)
(-0.0042639 -0.000801872 -0.0426327)
(0.000787781 -0.00528922 -0.0396768)
(0.00357116 0.00354626 -0.0279768)
(0.00481527 0.000392291 -0.0285309)
(0.00231171 0.00325136 -0.0238396)
(0.00559887 0.00116516 -0.0308805)
(0.00170906 0.00385019 -0.0235938)
(0.00384727 0.0033125 -0.0304739)
(0.00434725 -0.00246096 -0.0354104)
(0.00469421 0.00227854 -0.0311632)
(-0.00417507 0.00114224 -0.0361819)
(0.00243969 0.00410165 -0.039526)
(-0.00408655 0.00100756 -0.0339121)
(0.00195674 0.00259374 -0.0400922)
(0.0052199 0.000383888 -0.0379504)
(0.00364011 -0.00896032 -0.0305171)
(0.00223259 0.00329833 -0.0400923)
(0.00208639 0.00513271 -0.0399637)
(-0.00409952 0.000994603 -0.0467411)
(0.00395596 -0.00400533 -0.0385144)
(0.00413755 0.00308029 -0.0331079)
(0.00501979 -0.000109718 -0.0332769)
(0.00505095 -0.000160584 -0.0354746)
(0.00329632 0.00119964 -0.0369035)
(0.00427767 -0.0022151 -0.0297324)
(0.00430808 0.0032506 -0.0363787)
(0.00202327 0.00265699 -0.0403273)
(0.00507618 0.000111747 -0.0352062)
(0.00461753 0.00310492 -0.0389256)
(0.00525455 0.000388736 -0.0432309)
(0.00518701 -0.000171191 -0.0379376)
(0.00521658 0.000292298 -0.0425888)
(0.00210613 0.00514521 -0.040465)
(0.00161091 -0.00520334 -0.0387569)
(0.00513462 -7.27517e-05 -0.0387121)
(0.00177189 -0.00440245 -0.0395241)
(0.00294394 -0.00481731 -0.0370832)
(0.0017625 -0.00527246 -0.0403908)
(-0.00451114 0.000506394 -0.0457253)
(-0.00451239 0.000239075 -0.0457741)
(-0.00441665 -1.47369e-05 -0.0461853)
(0.00557671 -0.000129457 -0.0301028)
(0.00376413 0.00292981 -0.0293406)
(0.00496369 0.0010275 -0.0322571)
(0.00325536 0.00417226 -0.0320116)
(0.00502312 0.000916446 -0.0329065)
(0.00492597 0.000777627 -0.0310876)
(0.00493142 -0.000394228 -0.0300454)
(0.000129683 0.00622367 -0.0297763)
(0.00218714 0.00300495 -0.0400693)
(0.00530452 -0.000296638 -0.0397782)
(-0.000252952 0.00867617 -0.0356206)
(0.00521858 -0.000720643 -0.0425142)
(0.00529713 -0.000627239 -0.0441711)
(0.00512015 -0.00105067 -0.0408916)
(0.00524674 -0.000732909 -0.0429621)
(0.00512716 0.00129838 -0.0390482)
(0.00364176 0.00395429 -0.0385018)
(0.00224603 -0.0052726 -0.0384484)
(-0.00438238 0.000506073 -0.0452783)
(0.00214886 -0.0053554 -0.0406933)
(0.00486535 0.00105827 -0.0308227)
(0.00680888 -0.00594018 -0.0255978)
(0.00483164 0.000491271 -0.0300724)
(0.00509511 0.00129986 -0.0347732)
(-0.00627473 0.000530655 -0.0304743)
(0.00014313 0.00563717 -0.0331896)
(0.00219869 0.00278988 -0.0395904)
(0.00216944 0.00317297 -0.0402895)
(0.00518949 7.51736e-05 -0.0417724)
(-0.00399059 0.000854373 -0.0430778)
(0.00453977 -0.000541068 -0.0431598)
(0.000954281 -0.00529191 -0.0396963)
(0.000961188 -0.00537271 -0.0396987)
(0.00295771 -0.00456833 -0.0371193)