/*--------------------------------*- C++ -*----------------------------------*\
| =========                 |                                                 |
| \\      /  F ield         | OpenFOAM: The Open Source CFD Toolbox           |
|  \\    /   O peration     | Version:  plus.master.MPPICInterFoam            |
|   \\  /    A nd           | Web:      www.OpenFOAM.com                      |
|    \\/     M anipulation  |                                                 |
\*---------------------------------------------------------------------------*/
FoamFile
{
    version     2.0;
    format      ascii;
    class       vectorField;
    location    "6.8/lagrangian/kinematicCloud";
    object      UCorrect;
}
// * * * * * * * * * * * * * * * * * * * * * * * * * * * * * * * * * * * * * //


2971
(
(2.61976e-08 -1.43514e-07 -8.26537e-08)
(-1.07768e-05 -3.38857e-06 -1.01287e-06)
(-8.35527e-13 4.05844e-13 -5.91519e-13)
(-5.26813e-13 2.11867e-13 -9.78278e-13)
(0.00011524 -0.000456355 -1.52346e-06)
(0.000126253 -0.000453841 -2.17919e-06)
(-0.000112695 0.000155761 -1.02163e-06)
(-6.23186e-05 0.000105384 -9.93216e-07)
(-0.000112695 0.000155761 -1.01866e-06)
(0.000113119 -0.000456839 -1.52346e-06)
(-0.000116648 0.000152609 -9.93216e-07)
(-0.000155334 0.000223621 -9.93216e-07)
(-2.5635e-07 -9.6497e-07 -2.29549e-07)
(2.52358e-10 1.72851e-10 -9.96526e-07)
(9.22713e-08 -5.27812e-07 -2.29549e-07)
(0.000126253 -0.000453841 -2.39801e-06)
(2.89812e-07 -2.80105e-07 -4.3997e-07)
(-3.22758e-13 -4.44684e-13 -1.93473e-12)
(5.83464e-11 1.81316e-11 -5.12951e-07)
(-0.000112695 0.000155761 -1.02382e-06)
(1.49675e-08 -7.25336e-08 -3.64718e-06)
(2.89812e-07 -2.80105e-07 -4.51971e-07)
(0.000126253 -0.000453841 -3.86009e-06)
(4.96304e-07 6.2236e-07 -2.39011e-06)
(2.89812e-07 -2.80105e-07 -4.97642e-07)
(-5.97857e-13 -8.92915e-13 -1.93473e-12)
(8.71216e-11 1.08887e-10 -4.9052e-07)
(2.52358e-10 1.72851e-10 -9.08703e-07)
(-6.8371e-13 1.51245e-14 -5.91519e-13)
(5.88106e-07 7.37079e-07 -2.82286e-10)
(2.57925e-06 2.05689e-06 -1.29126e-06)
(-3.43977e-12 -5.80485e-12 -3.59189e-12)
(-0.000177224 0.000258458 -9.93216e-07)
(0.000126253 -0.000453841 -3.64925e-06)
(-0.000112695 0.000155761 -1.01229e-06)
(-6.59297e-13 4.57373e-14 -5.91519e-13)
(9.48915e-12 1.15387e-11 -2.59433e-07)
(-5.60764e-13 -8.63334e-13 -1.93473e-12)
(2.89812e-07 -2.80105e-07 -3.5541e-07)
(8.71216e-11 1.08887e-10 -5.08737e-07)
(6.80525e-06 1.24719e-06 -2.70828e-07)
(9.8179e-05 -0.000460249 -1.52346e-06)
(2.52358e-10 1.72851e-10 -9.20389e-07)
(2.61976e-08 -1.43514e-07 -6.54078e-08)
(0.000486152 -4.40943e-05 -0.000274887)
(2.89812e-07 -2.80105e-07 -4.40316e-07)
(1.4477e-06 1.15438e-06 -6.1579e-10)
(0.000126253 -0.000453841 -3.66238e-06)
(8.17949e-07 3.82158e-07 -2.29549e-07)
(0.000251605 5.74272e-05 -6.82132e-07)
(0.000126253 -0.000453841 -3.25825e-06)
(9.88948e-05 -0.000211031 -1.52346e-06)
(-0.000117843 0.000151655 -9.93216e-07)
(0.000486054 -4.49685e-05 -0.000274887)
(9.78055e-08 -4.75647e-08 -3.08815e-06)
(0.000491295 1.54714e-06 -0.000135546)
(2.89812e-07 -2.80105e-07 -4.97972e-07)
(0.000488351 -2.45767e-05 -0.000274887)
(-2.79168e-07 -3.50063e-07 -2.33191e-08)
(0.000126253 -0.000453841 -3.46996e-06)
(0.000486022 -4.52468e-05 -0.000274887)
(-0.000175938 0.000256412 -9.93216e-07)
(9.43543e-05 -0.000170733 -1.52346e-06)
(0.00033673 1.54714e-06 -0.000274887)
(0.000126253 -0.000453841 -3.41123e-06)
(2.89812e-07 -2.80105e-07 -3.2516e-07)
(0.00011677 -0.000456006 -1.52346e-06)
(0.00025392 3.68774e-05 -2.84936e-06)
(-2.79168e-07 -3.50063e-07 -5.39963e-09)
(0.000126253 -0.000453841 -3.29708e-06)
(3.56004e-08 -2.26966e-07 -4.21617e-08)
(4.43436e-05 1.54714e-06 -0.000274887)
(7.58629e-08 4.33183e-07 -8.43765e-07)
(0.000126253 -0.000453841 -2.7975e-06)
(-4.69486e-05 -1.16445e-05 -9.53522e-08)
(2.61976e-08 -1.43514e-07 -8.1054e-08)
(1.49598e-06 1.193e-06 -2.01742e-06)
(0.000485709 -4.80249e-05 -0.000274887)
(7.58629e-08 4.33183e-07 -8.66764e-07)
(0.000964281 1.54714e-06 -0.000274887)
(0.000486782 -3.85017e-05 -0.000274887)
(-0.000112695 0.000155761 -1.00986e-06)
(3.13332e-06 -1.39492e-07 -7.66594e-07)
(7.58629e-08 4.33183e-07 -8.93525e-07)
(2.95185e-07 -2.83481e-07 -2.29549e-07)
(0.000485423 -5.05646e-05 -0.000274887)
(2.28301e-06 8.43286e-07 -9.35259e-09)
(1.26369e-07 8.81435e-07 -4.63303e-07)
(0.000253498 4.06232e-05 -2.84936e-06)
(3.13422e-08 -1.42339e-07 -4.21617e-08)
(2.28e-06 8.41838e-07 -9.35259e-09)
(2.65504e-06 1.02245e-06 -9.35259e-09)
(0.000253574 3.99533e-05 -2.84936e-06)
(1.2425e-07 8.62633e-07 -4.63303e-07)
(6.24894e-07 -1.58284e-07 -0.00059259)
(6.24894e-07 -1.58284e-07 -0.000602829)
(7.58629e-08 4.33183e-07 -7.57837e-07)
(0.000100437 -0.000459734 -1.52346e-06)
(2.70013e-05 -6.16281e-06 -3.51638e-08)
(2.41705e-06 6.42412e-07 -9.61949e-07)
(2.6703e-06 1.02979e-06 -9.35259e-09)
(0.000126253 -0.000453841 -9.34732e-07)
(0.000266283 1.54714e-06 -0.000274887)
(3.38732e-05 7.73134e-06 -2.84936e-06)
(2.86572e-06 9.2084e-07 -0.000354494)
(0.000216883 -0.000712848 -1.52346e-06)
(5.48844e-05 1.54714e-06 -0.000274887)
(-1.02977e-05 -3.2792e-06 -1.01287e-06)
(-0.000681466 -0.000104894 -0.000292386)
(-0.000139633 -0.000228563 -0.000359325)
(2.8354e-05 -6.47157e-06 -3.51638e-08)
(7.58629e-08 4.33183e-07 -8.46497e-07)
(2.26029e-06 1.80252e-06 -1.29126e-06)
(0.000126253 -0.000453841 9.53234e-08)
(-0.000157773 -0.00057201 -0.000759219)
(1.85172e-06 3.01071e-08 -0.000469999)
(2.44563e-06 9.216e-07 -9.35259e-09)
(-0.000118512 0.000151122 -9.93216e-07)
(-1.22501e-06 -9.7691e-07 -1.37895e-06)
(3.00176e-05 6.85133e-06 -2.84936e-06)
(0.000120882 -0.000455067 -1.52346e-06)
(2.30719e-07 -3.52587e-08 -3.36886e-07)
(2.30769e-07 -3.48161e-08 -3.36886e-07)
(7.58629e-08 4.33183e-07 -8.28706e-07)
(-4.69486e-05 -1.16445e-05 -3.77402e-07)
(-0.000120971 0.000149161 -9.93216e-07)
(-0.000676299 -5.90392e-05 -0.000359325)
(-0.000672762 -2.76451e-05 -0.000359325)
(0.00150196 0.00188317 -2.51452e-06)
(2.76121e-07 3.46258e-07 -3.1865e-06)
(2.04777e-06 1.63304e-06 -1.29126e-06)
(4.82036e-06 2.30788e-07 -7.66594e-07)
(8.07635e-07 -6.80527e-07 -0.000354494)
(-0.000112695 0.000155761 -9.73701e-07)
(-0.000676796 -6.34482e-05 -0.000359325)
(2.89085e-06 1.71177e-06 -2.4393e-06)
(1.42014e-06 6.27224e-07 -9.35259e-09)
(0.000109817 -0.000457593 -1.52346e-06)
(0.000107544 -0.000458112 -1.52346e-06)
(0.000126253 -0.000453841 -1.77778e-08)
(6.83503e-05 -1.56004e-05 -3.51638e-08)
(-6.28002e-06 1.43392e-06 -8.2564e-10)
(-0.000674301 -4.1307e-05 -0.000359325)
(1.3634e-06 -1.14189e-06 -4.02263e-07)
(2.8952e-06 9.35039e-07 -0.000354494)
(1.33082e-06 -1.16649e-07 -6.97304e-06)
(3.87193e-06 2.16446e-07 -6.97304e-06)
(0.000126253 -0.000453841 4.26413e-07)
(9.19321e-08 4.29515e-07 -4.63303e-07)
(2.28808e-07 -5.22238e-08 -6.44099e-07)
(2.28808e-07 -5.22238e-08 -6.57701e-07)
(0.000148342 -7.10355e-05 -0.000139002)
(1.35794e-06 -3.57357e-07 8.28262e-07)
(2.89812e-07 -2.80105e-07 1.85855e-08)
(-4.69486e-05 -1.16445e-05 -5.17215e-07)
(-0.000673834 -3.71626e-05 -0.000359325)
(-0.000671879 -1.98139e-05 -0.000359325)
(2.28808e-07 -5.22238e-08 -5.92069e-07)
(2.41705e-06 6.42412e-07 -1.06936e-06)
(1.44514e-06 -4.16255e-07 -4.30946e-10)
(0.000105712 -0.000458529 -1.52346e-06)
(0.000126253 -0.000453841 -1.49169e-07)
(2.46244e-06 3.01071e-08 -0.000469999)
(-0.000165864 -0.000570164 -0.00141244)
(-0.000128387 -0.00023113 -0.000359325)
(-0.0011214 -4.48136e-06 -0.000359325)
(8.13528e-07 -3.72218e-07 -4.30946e-10)
(0.00015411 -5.45522e-05 -9.28245e-05)
(2.01898e-06 7.33268e-07 -1.81984e-06)
(2.96758e-07 -2.84469e-07 -2.29549e-07)
(3.37943e-06 8.28744e-07 -2.62953e-06)
(0.000162415 1.54714e-06 -0.000274887)
(-0.000681466 -0.000104894 -0.000160504)
(0.000104618 -0.000458779 -1.52346e-06)
(3.12896e-06 1.90166e-06 -2.4393e-06)
(-4.69486e-05 -1.16445e-05 -3.796e-07)
(-0.000165864 -0.000570164 -0.000229652)
(-0.000681466 -0.000104894 -1.70084e-05)
(4.33145e-06 9.95621e-06 -3.29279e-06)
(1.54083e-05 5.92428e-06 -4.82374e-07)
(0.000148342 -7.10355e-05 -0.000135486)
(0.000126253 -0.000453841 -2.73828e-07)
(0.000100301 -0.000459765 -1.52346e-06)
(1.35794e-06 -3.57357e-07 3.30538e-07)
(0.000251605 5.74272e-05 -4.36529e-06)
(5.74061e-06 -1.75571e-06 -5.60799e-06)
(3.17504e-06 2.30788e-07 -1.98897e-06)
(1.92156e-06 3.01071e-08 -0.000469999)
(-0.000112695 0.000155761 -9.6969e-07)
(0.000139464 1.54714e-06 -0.000274887)
(-0.000404813 -0.000168038 -0.000359325)
(2.38715e-07 3.69762e-07 -2.39011e-06)
(0.000795068 2.46151e-06 -2.23041e-06)
(-0.000681466 -0.000104894 -4.68337e-05)
(0.000293724 -6.70405e-05 -5.25341e-07)
(8.65164e-07 -1.09158e-07 -4.30946e-10)
(1.49598e-06 1.193e-06 -2.18375e-06)
(2.69652e-06 3.93268e-06 -1.1753e-07)
(8.6551e-07 -1.06094e-07 -4.30946e-10)
(1.54083e-05 5.92428e-06 -9.60933e-07)
(6.24894e-07 -1.58284e-07 -0.000522765)
(-1.40848e-07 5.6743e-07 -2.68932e-06)
(0.00128139 0.000291491 -5.12034e-06)
(3.44433e-06 1.40468e-06 -7.21221e-06)
(2.02554e-06 5.16231e-07 -0.000354494)
(2.50601e-06 1.99848e-06 -1.29126e-06)
(-2.77498e-05 -7.26253e-06 -1.01287e-06)
(1.35794e-06 -3.57357e-07 1.00891e-07)
(-9.76622e-07 1.4032e-06 -6.36677e-07)
(-9.76622e-07 1.4032e-06 -1.29262e-06)
(-0.000165864 -0.000570164 -7.5595e-05)
(-0.000133739 -0.000577496 -0.000759219)
(-0.000351635 -0.000180175 -0.000359325)
(-0.000887373 -5.78968e-05 -0.000359325)
(0.000311959 9.48015e-05 -3.51638e-08)
(3.92404e-06 9.95474e-06 -1.13234e-06)
(0.00128139 0.000291491 -5.01753e-06)
(-4.7298e-05 -8.54352e-06 -1.01287e-06)
(-9.76622e-07 1.4032e-06 -3.31334e-08)
(-0.00015184 -0.000573364 -0.000759219)
(4.4819e-06 1.02686e-05 -3.29279e-06)
(0.00128139 0.000291491 -3.46589e-06)
(9.91361e-05 2.26272e-05 -2.84936e-06)
(0.000491295 1.54714e-06 -3.00397e-06)
(-3.52626e-08 4.61845e-07 -2.68932e-06)
(0.000751529 0.000942156 -4.65589e-06)
(2.5101e-06 7.49583e-07 -0.000354494)
(2.5998e-06 1.47966e-06 -2.4393e-06)
(-2.49379e-06 2.3565e-06 -2.68932e-06)
(-4.69486e-05 -1.16445e-05 -1.34067e-06)
(2.41705e-06 6.42412e-07 -1.35401e-06)
(-0.000144929 -0.000574942 -0.000759219)
(-0.000681466 -0.000104894 -0.000131884)
(0.000306999 5.0782e-05 -3.51638e-08)
(1.2017e-05 2.74279e-06 -2.84936e-06)
(6.24894e-07 -1.58284e-07 -0.000446322)
(-4.69486e-05 -1.16445e-05 -1.37351e-06)
(-9.76622e-07 1.4032e-06 -1.03348e-06)
(2.23764e-06 1.19085e-06 -1.36691e-06)
(-0.000165864 -0.000570164 -0.000471806)
(-7.2048e-07 -2.81006e-07 7.90819e-07)
(0.000293724 -6.70405e-05 -5.88295e-07)
(2.12981e-06 7.07973e-07 -1.81984e-06)
(-1.0955e-05 -3.42923e-06 -1.01287e-06)
(3.94754e-07 2.07982e-07 -0.000354494)
(3.45217e-06 1.47433e-06 -7.21221e-06)
(0.000251605 5.74272e-05 -4.2447e-06)
(-7.00326e-06 1.59847e-06 -4.40009e-07)
(5.74061e-06 -1.75571e-06 -4.61884e-06)
(-0.000134098 -0.00028823 -0.000759219)
(0.000293724 -6.70405e-05 -3.22985e-07)
(7.75008e-05 -3.69202e-05 -9.28245e-05)
(3.19464e-06 6.1858e-08 -6.97304e-06)
(-0.00013658 -0.000576847 -0.000759219)
(2.01481e-05 -4.59861e-06 -3.51638e-08)
(4.34609e-06 3.24668e-07 -6.97304e-06)
(0.000154191 -5.43208e-05 -9.28245e-05)
(1.35794e-06 -3.57357e-07 -2.76196e-06)
(1.35794e-06 -3.57357e-07 9.08338e-08)
(1.35794e-06 -3.57357e-07 2.74881e-07)
(-0.000144439 -0.000575054 -0.000759219)
(0.000301386 9.61126e-07 -3.51638e-08)
(-7.64047e-07 1.66977e-06 -2.68932e-06)
(-4.69486e-05 -1.16445e-05 -1.66462e-06)
(5.74061e-06 -1.75571e-06 -4.41604e-06)
(-2.30541e-07 -3.92831e-07 7.90819e-07)
(-0.000165462 -0.000222668 -0.000359325)
(7.09365e-05 -1.61907e-05 -3.51638e-08)
(2.99408e-06 5.01757e-06 -2.16168e-06)
(2.74495e-06 4.81889e-06 -7.49167e-07)
(-0.00013629 -0.000576914 -0.000759219)
(-0.000681466 -0.000104894 -9.14649e-05)
(-6.92959e-07 -2.87288e-07 7.90819e-07)
(3.71211e-08 7.92939e-07 -1.90958e-11)
(5.37563e-06 8.28744e-07 -7.21221e-06)
(1.35794e-06 -3.57357e-07 -1.70287e-06)
(5.05937e-06 8.28744e-07 -7.21221e-06)
(3.37943e-06 8.28744e-07 -4.62055e-06)
(-7.47214e-06 1.70549e-06 -4.40009e-07)
(-7.28531e-08 -4.28823e-07 7.90819e-07)
(3.9927e-06 1.00973e-05 -1.13234e-06)
(2.79294e-06 1.63369e-06 -2.4393e-06)
(-2.45143e-06 -1.6937e-06 -1.93517e-06)
(-0.000146873 -0.000226911 -0.000359325)
(3.0603e-06 1.84691e-06 -2.4393e-06)
(5.74061e-06 -1.75571e-06 -4.65135e-06)
(0.000565216 -0.000129007 -3.51638e-08)
(1.85833e-06 5.66525e-06 -2.18635e-06)
(3.90501e-06 9.0707e-06 -3.29279e-06)
(2.4867e-06 6.26514e-07 -1.81984e-06)
(2.693e-07 1.82886e-06 2.29925e-06)
(-2.85089e-08 -4.38944e-07 7.90819e-07)
(0.00214722 0.000489111 -1.25462e-07)
(2.76161e-06 2.20231e-06 -1.29126e-06)
(-6.75921e-06 1.54274e-06 2.29925e-06)
(-3.55641e-07 1.50332e-11 -5.26612e-07)
(-3.55641e-07 1.50332e-11 -4.57358e-07)
(-3.98283e-06 9.09081e-07 -9.95091e-08)
(0.00030081 -4.14861e-06 -3.51638e-08)
(5.74061e-06 -1.75571e-06 -5.47875e-06)
(-0.000681466 -0.000104894 -3.39528e-05)
(1.31859e-06 -7.46411e-07 7.90819e-07)
(-1.50441e-08 5.98555e-07 -9.9276e-07)
(2.95817e-06 7.88577e-09 -6.97304e-06)
(-0.000137747 -0.000576581 -0.000759219)
(0.000293724 -6.70405e-05 5.30447e-07)
(-0.000153402 -0.000573008 -0.000759219)
(-1.50441e-08 5.98555e-07 -1.04392e-06)
(2.12667e-06 -1.87436e-07 -1.81984e-06)
(4.54532e-06 1.04003e-05 -3.29279e-06)
(5.74061e-06 -1.75571e-06 -4.31631e-06)
(5.74061e-06 -1.75571e-06 -4.39965e-06)
(-1.50441e-08 5.98555e-07 -1.14857e-06)
(6.06391e-06 4.83581e-06 4.16476e-12)
(0.00120845 0.00151512 -2.51452e-06)
(0.000657803 0.00100105 -2.51452e-06)
(6.19062e-07 1.77438e-06 -6.77488e-08)
(1.95661e-06 -1.39372e-06 -4.02263e-07)
(-1.02724e-06 -3.12594e-06 2.29925e-06)
(-1.57093e-06 -1.02585e-06 -6.97304e-06)
(-0.000165864 -0.000570164 -4.11008e-05)
(-4.87232e-07 3.01071e-08 -0.000866968)
(5.74061e-06 -1.75571e-06 -4.46253e-06)
(-0.000134834 -0.000577246 -0.000759219)
(0.000293724 -6.70405e-05 4.52549e-07)
(5.74061e-06 -1.75571e-06 -1.97802e-06)
(-1.50441e-08 5.98555e-07 -1.1522e-06)
(0.000282158 0.000736407 -3.95361e-06)
(3.4148e-06 1.12109e-07 -6.97304e-06)
(1.35794e-06 -3.57357e-07 -1.44768e-05)
(5.49088e-06 8.28744e-07 -7.21221e-06)
(5.23977e-06 5.37296e-06 -3.29279e-06)
(-4.15602e-06 9.48583e-07 2.29925e-06)
(-0.000165864 -0.000570164 -8.29373e-05)
(-0.000165864 -0.000570164 -0.000153811)
(-0.000165864 -0.000570164 -0.000292019)
(-0.000137454 -0.000576648 -0.000759219)
(3.13398e-06 -1.16076e-06 7.90819e-07)
(-9.87931e-07 -2.19962e-07 7.90819e-07)
(5.74061e-06 -1.75571e-06 -1.95268e-06)
(5.74061e-06 -1.75571e-06 -4.69106e-06)
(-0.000149823 -0.000573825 -0.000759219)
(-0.000148877 -0.000574041 -0.000759219)
(5.74061e-06 -1.75571e-06 -1.73384e-06)
(0.00234559 0.000534388 -1.25462e-07)
(0.00034376 0.000714852 -2.28686e-06)
(-6.20403e-07 -8.089e-07 -6.97304e-06)
(-4.87232e-07 3.01071e-08 -0.000251182)
(-6.67165e-06 1.52276e-06 2.29925e-06)
(-0.000165864 -0.000570164 -0.000106784)
(-0.000150663 -0.000573633 -0.000759219)
(-1.25812e-06 -1.58294e-07 7.90819e-07)
(2.40336e-06 -9.94001e-07 7.90819e-07)
(3.88462e-05 -2.27999e-05 2.10167e-06)
(-0.000142823 -0.000575423 -0.000759219)
(-2.11179e-06 2.6172e-06 -1.37189e-12)
(0.000660887 0.00099911 -2.51452e-06)
(0.00264196 0.000602033 -1.25462e-07)
(6.24894e-07 -1.58284e-07 -0.000118093)
(-0.000133491 -0.000577552 -0.000759219)
(1.40895e-05 -1.71493e-05 2.1026e-05)
(-0.000134118 -0.000577409 -0.000759219)
(8.42547e-05 0.00010542 -2.51452e-06)
(2.34907e-06 1.00843e-07 -6.77488e-08)
(0.000751529 0.000942156 -3.54163e-06)
(2.88336e-06 4.92927e-06 -7.49167e-07)
(8.52861e-05 0.000178126 -3.95361e-06)
(-2.45143e-06 -1.6937e-06 -1.77882e-06)
(-3.46919e-06 7.9182e-07 2.29925e-06)
(-0.000165864 -0.000570164 -0.00020459)
(-0.000149844 -0.00057382 -0.000759219)
(0.000139438 -8.52064e-05 -9.28245e-05)
(1.32624e-05 4.89083e-06 -2.3492e-06)
(-1.19443e-06 -1.03442e-06 -0.000354494)
(2.61862e-07 1.76285e-06 2.29925e-06)
(-7.50626e-06 1.71326e-06 2.29925e-06)
(1.94656e-06 -8.89741e-07 7.90819e-07)
(9.39621e-05 7.49323e-05 -1.30626e-07)
(1.40371e-05 5.26393e-06 -2.3492e-06)
(6.16511e-08 -1.40719e-08 2.38758e-06)
(1.11411e-05 -2.98834e-06 7.90819e-07)
(-0.000137882 -0.00057655 -0.000759219)
(-3.14351e-06 -9.45383e-06 8.58481e-07)
(5.18041e-06 -1.99072e-07 -1.06717e-12)
(0.000786713 -7.16925e-05 -2.40445e-06)
(2.41705e-06 6.42412e-07 -2.31448e-06)
(4.44305e-07 3.97317e-07 -1.36901e-08)
(-4.87232e-07 3.01071e-08 -0.00081778)
(-4.87232e-07 3.01071e-08 -0.000797352)
(0.000424224 -9.68262e-05 -3.51638e-08)
(0.00128139 0.000291491 -1.64084e-06)
(0.000751529 0.000942156 -3.56678e-06)
(2.95633e-06 8.28744e-07 -7.21221e-06)
(-4.87232e-07 3.01071e-08 -0.000236269)
(-0.000165864 -0.000570164 -0.000108678)
(-0.000137743 -0.000576582 -0.000759219)
(-4.05955e-07 -3.52794e-07 7.90819e-07)
(5.74061e-06 -1.75571e-06 -4.28691e-06)
(0.000308903 0.000727049 -3.95361e-06)
(-6.49158e-05 0.000103538 -6.77133e-05)
(-4.33071e-07 5.10794e-07 -0.000469999)
(6.89424e-07 -6.02807e-07 7.90819e-07)
(-8.53216e-07 -2.5071e-07 7.90819e-07)
(6.16511e-08 -1.40719e-08 2.40114e-06)
(6.16511e-08 -1.40719e-08 2.43394e-06)
(5.74061e-06 -1.75571e-06 -3.0638e-06)
(5.74061e-06 -1.75571e-06 -3.84317e-06)
(-1.39407e-06 2.68201e-06 -2.71404e-07)
(5.74061e-06 -1.75571e-06 -2.87246e-06)
(5.74061e-06 -1.75571e-06 -3.82958e-06)
(2.24721e-11 -2.67494e-11 -6.03951e-07)
(1.411e-06 -1.12936e-06 -7.58816e-07)
(1.48648e-06 -1.0188e-06 -6.26002e-07)
(3.52391e-11 -4.27588e-11 -6.03951e-07)
(5.6532e-06 -2.32025e-06 -9.28245e-05)
(-4.87232e-07 3.01071e-08 -0.000346863)
(-2.15372e-06 3.01071e-08 -0.000469999)
(-5.84182e-07 -3.12115e-07 7.90819e-07)
(6.16511e-08 -1.40719e-08 2.41947e-06)
(1.76585e-05 7.00788e-06 -2.3492e-06)
(1.34496e-06 -2.42195e-07 -6.97304e-06)
(2.13375e-06 -1.67205e-07 -1.81984e-06)
(6.02323e-06 7.52686e-07 7.90819e-07)
(-6.02112e-06 1.37428e-06 2.29925e-06)
(6.69684e-06 2.5926e-06 1.13223e-09)
(-1.26052e-07 1.78447e-05 -0.000179935)
(1.75779e-06 -8.46502e-07 6.37814e-08)
(6.33008e-07 -1.51801e-07 6.33598e-07)
(-4.87232e-07 3.01071e-08 -0.000741179)
(6.07612e-06 1.22206e-06 7.90819e-07)
(3.88462e-05 -2.27999e-05 2.36526e-06)
(0.000565125 8.8325e-05 -0.00031247)
(3.62921e-06 5.70736e-07 -1.06717e-12)
(1.03349e-06 1.71911e-06 -9.76509e-07)
(1.69655e-06 -8.17011e-07 6.37814e-08)
(2.41705e-06 6.42412e-07 -2.66024e-06)
(3.3444e-06 5.29693e-06 -7.49167e-07)
(-3.52758e-05 2.81315e-05 -0.000389836)
(4.64811e-07 3.71605e-07 -1.46473e-07)
(-0.000165864 -0.000570164 -5.42262e-05)
(3.88462e-05 -2.27999e-05 1.19496e-06)
(0.000501866 0.00011357 -1.25462e-07)
(2.08962e-06 5.30103e-06 -2.28417e-06)
(-5.18509e-06 9.85346e-05 -1.46518e-13)
(1.07343e-10 -1.72288e-10 -6.03951e-07)
(-4.87232e-07 3.01071e-08 -0.000255165)
(1.63853e-06 -8.19435e-07 7.90819e-07)
(0.000293724 -6.70405e-05 5.38087e-07)
(2.9808e-06 3.90708e-06 2.65521e-06)
(-1.55103e-06 -1.46789e-06 1.98323e-06)
(1.20763e-07 4.80371e-08 -2.73052e-11)
(2.46631e-06 9.62177e-07 -2.4393e-06)
(-1.05826e-07 1.69032e-07 -1.07091e-06)
(1.90836e-07 1.1391e-06 -1.22638e-06)
(-6.30763e-05 0.000104694 -6.77133e-05)
(-4.93705e-06 -0.000112349 -5.55861e-12)
(7.27961e-07 -6.11603e-07 7.90819e-07)
(-3.11421e-05 -0.000112349 -5.55861e-12)
(-5.85605e-06 1.33661e-06 2.29925e-06)
(-6.68709e-06 1.52628e-06 2.29925e-06)
(-1.02339e-06 2.6172e-06 1.87374e-12)
(0.000148342 -7.10355e-05 -2.86489e-05)
(2.08962e-06 5.30103e-06 -2.48486e-06)
(4.44305e-07 3.97317e-07 -6.68461e-08)
(4.84925e-06 -1.10681e-06 2.29925e-06)
(-1.24361e-06 -9.51143e-07 -6.97304e-06)
(-4.87232e-07 3.01071e-08 -8.43055e-05)
(-3.05948e-06 -1.51801e-07 -1.14863e-06)
(-3.88895e-07 9.02875e-07 -0.000469999)
(4.11041e-07 3.08685e-06 2.29925e-06)
(-4.69486e-05 -1.16445e-05 -1.76135e-06)
(6.14023e-06 1.79103e-06 7.90819e-07)
(4.73379e-08 2.12931e-07 -4.68285e-11)
(6.20319e-05 1.41584e-05 -0.00031247)
(0.00128139 0.000291491 4.70778e-06)
(0.000550837 0.000124747 -1.25462e-07)
(9.01322e-05 0.000385277 -0.000333311)
(2.07296e-11 -1.39329e-10 -5.19916e-07)
(-4.87232e-07 3.01071e-08 -0.000154714)
(-4.87232e-07 3.01071e-08 -9.9989e-05)
(6.1925e-06 2.25492e-06 7.90819e-07)
(2.49174e-07 3.47073e-06 -2.71404e-07)
(0.000293724 -6.70405e-05 5.06967e-07)
(-1.72459e-06 5.57018e-06 -9.50175e-06)
(-7.20281e-06 1.49568e-05 -6.77133e-05)
(2.72143e-06 5.7294e-07 -1.81984e-06)
(-6.50277e-09 -2.85176e-08 -7.52223e-12)
(1.99208e-13 -1.77043e-13 -8.25615e-09)
(-2.68616e-06 -4.95642e-06 -7.34818e-06)
(-6.33913e-05 0.000104496 -6.77133e-05)
(-0.000549038 0.000437843 -0.000677776)
(-0.000549038 0.000437843 -0.000678951)
(-4.80553e-08 -2.10559e-07 -1.27426e-06)
(1.28896e-05 -1.68755e-05 2.1026e-05)
(3.88462e-05 -2.27999e-05 2.47178e-06)
(3.88462e-05 -2.27999e-05 2.96568e-06)
(-1.29254e-06 1.73563e-06 3.80345e-07)
(0.00105519 0.00132294 -2.51452e-06)
(1.5156e-06 1.0729e-06 -4.52477e-06)
(0.000304106 0.000728727 -3.95361e-06)
(-9.43323e-05 0.00067223 -0.000381378)
(0.000410226 0.000514175 -2.51452e-06)
(-2.85091e-05 0.000316261 -0.000179935)
(2.29182e-06 -1.66103e-06 -4.02263e-07)
(-0.000549038 0.000437843 -0.00066932)
(-9.41986e-08 -7.59687e-08 -2.28806e-11)
(-3.98283e-06 9.09081e-07 -6.26375e-07)
(6.16511e-08 -1.40719e-08 2.41243e-06)
(6.24469e-06 2.71821e-06 7.90819e-07)
(2.08017e-05 -1.86814e-05 2.1026e-05)
(1.62957e-07 8.91668e-07 -1.77467e-06)
(1.74857e-07 8.88952e-07 -1.22638e-06)
(3.88462e-05 -2.27999e-05 4.52864e-06)
(0.000277422 0.000738065 -3.95361e-06)
(6.16511e-08 -1.40719e-08 2.24206e-06)
(-2.85507e-12 -5.89344e-12 -7.1471e-06)
(-1.04104e-05 2.16174e-05 -6.77133e-05)
(-4.87232e-07 3.01071e-08 -4.07008e-05)
(-0.000103499 0.000671198 -0.000381378)
(-8.70753e-08 1.80814e-07 -1.91911e-06)
(-0.00015339 0.000122325 -0.000389836)
(-0.000303525 -0.000112349 -4.31924e-07)
(1.62957e-07 8.91668e-07 -2.08664e-06)
(-7.27612e-08 -8.62924e-08 -4.45373e-11)
(-2.54119e-07 -2.85851e-06 6.61249e-08)
(-9.74962e-07 2.68201e-06 -2.71404e-07)
(1.0347e-06 2.35051e-08 4.22614e-08)
(-3.55641e-07 1.50332e-11 -6.34327e-07)
(9.39621e-05 7.49323e-05 -2.11238e-07)
(7.8334e-07 -6.24694e-07 -9.94453e-07)
(1.71668e-05 6.12907e-07 8.58481e-07)
(9.99458e-06 -3.80482e-07 -2.49626e-07)
(-0.000184553 -0.000150098 -1.47727e-08)
(6.15749e-07 -1.51801e-07 6.33598e-07)
(3.77236e-06 -1.65278e-05 -0.000238154)
(-8.87465e-05 0.00067286 -0.000381378)
(-2.62011e-05 0.000116029 -0.000381378)
(-3.98283e-06 9.09081e-07 -7.40065e-07)
(9.6314e-05 -0.000421979 -0.000441349)
(-1.96234e-09 -1.50355e-08 -7.52223e-12)
(-4.88664e-05 0.000215332 -0.000381378)
(-7.81104e-05 0.000674058 -0.000381378)
(-1.6072e-07 1.71548e-08 -1.46473e-07)
(1.93286e-05 1.10633e-06 8.58481e-07)
(0.000688592 0.000981702 -2.51452e-06)
(0.000138985 -8.59274e-05 -9.28245e-05)
(4.24986e-05 -2.00641e-05 -9.28245e-05)
(-0.000201613 0.000160781 -0.000389836)
(-0.000121564 9.69442e-05 -0.000389836)
(-3.6841e-07 1.08468e-06 -0.000469999)
(9.6314e-05 -0.000421979 -0.000395875)
(-7.16119e-05 -0.000112349 -5.55861e-12)
(9.6314e-05 -0.000421979 -0.00044747)
(-9.41986e-08 -7.59687e-08 -1.91002e-11)
(-6.35818e-05 0.000104376 -6.77133e-05)
(-1.67745e-11 -4.66271e-11 -2.01869e-07)
(0.000290242 0.0012775 -0.00140222)
(2.54694e-06 -1.86448e-06 -4.02263e-07)
(-3.05948e-06 -1.51801e-07 -9.81692e-07)
(-1.26052e-07 3.50929e-05 -0.000179935)
(2.12594e-08 -1.90096e-07 -9.5716e-08)
(-0.000114424 0.000669967 -0.000381378)
(9.11639e-07 -7.28123e-07 -5.28313e-07)
(-9.41986e-08 -7.59687e-08 -2.09029e-11)
(7.14056e-08 6.3818e-08 -6.02009e-12)
(6.29219e-14 -1.61687e-13 -8.25615e-09)
(1.0347e-06 2.35051e-08 1.18287e-08)
(1.71372e-06 2.68201e-06 -2.71404e-07)
(8.6629e-06 6.90843e-06 4.16476e-12)
(-2.9859e-07 -4.64964e-07 -1.18832e-06)
(0.000795068 2.46151e-06 -2.44425e-06)
(1.7146e-06 8.28744e-07 -7.21221e-06)
(-7.85086e-05 -0.000174302 -1.47727e-08)
(8.70035e-07 8.28744e-07 -7.21221e-06)
(7.97128e-07 -1.51801e-07 6.33598e-07)
(-2.96708e-06 6.68357e-07 6.33598e-07)
(-2.68616e-06 -4.95642e-06 -6.23465e-06)
(-6.21315e-07 1.52749e-06 -2.0394e-06)
(4.1515e-05 0.000103796 -1.38995e-07)
(7.4846e-05 0.000586679 -0.000333311)
(-0.000115383 -0.000122133 -0.000759219)
(-4.16249e-05 0.000114906 -6.77133e-05)
(1.7445e-06 2.68201e-06 -2.71404e-07)
(1.71315e-06 2.68201e-06 -2.71404e-07)
(7.35419e-05 2.46151e-06 -2.40445e-06)
(1.16312e-06 -1.57939e-07 -9.28245e-05)
(8.82179e-07 -1.9456e-06 -1.68777e-07)
(-0.000430039 -5.00859e-05 -1.47727e-08)
(3.67399e-07 1.05517e-06 -8.05123e-07)
(1.41686e-06 8.28744e-07 -7.21221e-06)
(8.59769e-05 0.000585425 -0.000333311)
(-2.62268e-06 3.01071e-08 -0.000469999)
(-4.42597e-07 4.29072e-07 -1.55842e-12)
(1.63511e-07 -6.4383e-07 -1.59531e-07)
(-2.45143e-06 -1.6937e-06 -9.13278e-07)
(-1.92137e-06 -1.57272e-06 -1.41891e-07)
(1.09933e-05 3.85465e-05 -0.000333311)
(-9.5447e-05 -0.000112349 -5.55861e-12)
(-0.000303525 -0.000112349 -4.19269e-07)
(1.62957e-07 8.91668e-07 -1.7374e-06)
(-6.9303e-07 -5.52673e-07 -2.35786e-06)
(1.54083e-05 5.92428e-06 -3.69101e-06)
(0.00125843 0.000357118 -1.25462e-07)
(0.000279069 0.000737488 -3.95361e-06)
(-4.27682e-05 3.41065e-05 -0.000389836)
(0.000751529 0.000942156 -1.67578e-06)
(3.37943e-06 8.28744e-07 -1.02388e-05)
(-9.13459e-07 -8.99116e-07 -0.000354494)
(-8.93259e-05 0.000672795 -0.000381378)
(1.40239e-06 8.28744e-07 -7.21221e-06)
(7.95357e-07 2.74048e-07 -3.78814e-07)
(1.88638e-05 -8.26479e-05 -0.000238154)
(-5.85794e-05 -0.000112349 -5.55861e-12)
(-4.01135e-05 -0.000112349 -5.55861e-12)
(-2.36287e-07 3.29718e-07 -1.86094e-12)
(-0.000202531 -0.000251262 -4.22741e-07)
(-0.000225458 -0.000112349 -5.55861e-12)
(4.56102e-06 -3.81141e-07 6.69866e-07)
(6.70314e-07 -1.98581e-06 1.29088e-06)
(0.00128139 0.000291491 1.12295e-06)
(0.000420837 0.000666421 -3.95361e-06)
(3.1652e-06 5.15403e-06 -7.49167e-07)
(-4.90336e-06 -4.42446e-06 -1.2616e-05)
(-0.000345022 -0.000113472 -1.47727e-08)
(0.000134565 0.00057995 -8.49282e-05)
(-2.68616e-06 -4.95642e-06 -6.19518e-06)
(1.80501e-05 -7.90825e-05 -0.000238154)
(-2.68616e-06 -4.95642e-06 -6.33908e-06)
(4.67099e-07 3.76127e-07 -1.31612e-11)
(9.74549e-05 0.000584132 -0.000333311)
(-0.00010663 0.000670845 -0.000381378)
(-8.46887e-05 -0.000112349 -5.55861e-12)
(3.43575e-08 -7.87432e-07 -1.03461e-07)
(-2.4513e-05 -0.000112349 -5.55861e-12)
(-9.41986e-08 -7.59687e-08 -1.08622e-11)
(-0.000202531 -0.000251262 -4.8076e-07)
(-0.000514848 -0.000112349 -5.55861e-12)
(-0.000549038 0.000437843 -0.000650932)
(-4.90336e-06 -4.42446e-06 -1.00279e-05)
(2.07628e-07 -2.33383e-06 -8.50017e-07)
(-1.22271e-06 -1.04804e-06 -0.000354494)
(-0.000332602 -0.000116307 -1.47727e-08)
(-8.0654e-05 0.000673772 -0.000381378)
(-5.45162e-05 -6.56574e-05 -2.04497e-07)
(4.15497e-06 -9.48344e-07 2.29925e-06)
(-7.01106e-05 -0.000176219 -1.47727e-08)
(-9.41986e-08 -7.59687e-08 -7.31758e-12)
(0.000110026 0.000582715 -0.000333311)
(-0.000107331 -0.000112349 -5.55861e-12)
(-1.27339e-07 2.83062e-06 -3.16277e-07)
(-0.000549038 0.000437843 -0.000734914)
(1.60307e-07 2.68201e-06 3.73979e-07)
(1.07299e-06 2.68201e-06 -2.71404e-07)
(-1.2249e-06 2.54353e-06 -6.77133e-05)
(-4.58261e-05 0.000113436 -6.77133e-05)
(0.000164061 3.64678e-05 -1.25462e-07)
(1.01704e-05 -9.83977e-07 8.58481e-07)
(-3.82079e-06 -7.51827e-06 8.58481e-07)
(1.32404e-05 -2.83276e-07 8.58481e-07)
(0.000795068 2.46151e-06 -2.4772e-06)
(1.72916e-06 7.85354e-07 -2.4393e-06)
(1.31904e-08 -1.91005e-07 -9.5716e-08)
(1.51568e-06 6.15111e-07 -2.4393e-06)
(-0.000219775 -0.000142059 -1.47727e-08)
(-2.68616e-06 -4.95642e-06 -6.21413e-06)
(3.1516e-05 -0.000138081 -0.000238154)
(-9.11884e-08 -1.51801e-07 6.33598e-07)
(1.7973e-07 1.46958e-07 -1.31612e-11)
(1.98056e-06 9.33632e-07 -6.89517e-07)
(-6.9303e-07 -5.52673e-07 -2.33977e-06)
(2.39062e-07 1.98303e-06 -2.71404e-07)
(4.44305e-07 3.97317e-07 -3.71278e-08)
(1.0347e-06 2.35051e-08 -3.09335e-08)
(0.000395019 9.01605e-05 -0.00031247)
(0.00034376 0.000714852 -5.26302e-06)
(2.06942e-05 1.41801e-06 8.58481e-07)
(-1.33328e-06 -1.10129e-06 -0.000354494)
(3.45673e-06 5.38651e-06 -7.49167e-07)
(2.57356e-06 6.30591e-06 -7.43865e-07)
(4.1515e-05 0.000103796 -8.07687e-08)
(-1.26052e-07 5.97773e-05 -0.000179935)
(-7.96723e-05 0.000673882 -0.000381378)
(1.45038e-06 5.63035e-07 -2.4393e-06)
(-1.72459e-06 5.57018e-06 -9.90761e-06)
(7.43103e-08 -2.16665e-06 -8.50017e-07)
(2.46202e-07 1.62386e-06 2.29925e-06)
(9.89251e-05 0.000583966 -0.000333311)
(-3.63431e-07 3.90947e-07 -1.55842e-12)
(0.000101685 0.000583655 -0.000333311)
(-2.45143e-06 -1.6937e-06 -1.19066e-06)
(-1.34205e-07 -1.39639e-07 -4.45373e-11)
(1.36322e-06 -1.14206e-06 -4.02263e-07)
(-4.87232e-07 3.01071e-08 -5.01829e-05)
(5.4488e-07 -5.40217e-07 -9.94453e-07)
(9.55567e-07 -5.05595e-06 -9.22567e-07)
(0.000161394 -0.000335139 -0.000516287)
(2.79293e-06 5.56618e-07 -1.81984e-06)
(-1.77138e-06 4.04307e-07 1.85495e-06)
(-2.68616e-06 -4.95642e-06 -6.39679e-06)
(1.39908e-06 1.06635e-06 -6.89517e-07)
(-2.45143e-06 -1.6937e-06 -1.6929e-06)
(4.1515e-05 3.86571e-05 -1.46518e-13)
(1.87609e-11 -1.39551e-10 -5.19916e-07)
(3.98475e-05 -1.39129e-05 2.1026e-05)
(-7.77239e-08 4.25288e-07 -2.89877e-11)
(3.87615e-05 8.84707e-06 -0.00031247)
(0.000566574 7.5463e-05 -0.00031247)
(0.00034376 0.000714852 -5.50786e-06)
(-3.82996e-06 -7.49207e-06 8.58481e-07)
(0.00067093 0.0009928 -2.51452e-06)
(2.64013e-06 -2.04653e-07 -1.03461e-07)
(-0.000429204 -4.26758e-05 -1.47727e-08)
(-8.98354e-07 -7.23956e-07 -1.55842e-12)
(3.23583e-11 -1.38019e-10 -8.74907e-07)
(0.000172916 -0.000359064 -0.000516287)
(8.38538e-05 0.000585664 -0.000333311)
(3.28093e-06 4.75652e-06 -0.000333311)
(4.55455e-07 3.83337e-07 -1.46473e-07)
(-1.43544e-06 -1.14109e-06 -2.63186e-06)
(1.68096e-11 -1.96489e-11 -6.03951e-07)
(1.46356e-06 6.86972e-07 -5.03823e-06)
(0.000751529 0.000942156 -4.20503e-07)
(9.40935e-06 -1.15768e-06 8.58481e-07)
(0.000751529 0.000942156 -1.41735e-06)
(1.68761e-06 7.52219e-07 -2.4393e-06)
(-9.76622e-07 1.4032e-06 -5.42216e-06)
(-0.000431592 -6.38724e-05 -1.47727e-08)
(1.87305e-06 8.28744e-07 -7.21221e-06)
(-4.50232e-05 0.000113717 -6.77133e-05)
(8.25384e-11 -1.18437e-12 -5.63146e-08)
(-1.41271e-10 -2.91456e-10 -1.04784e-10)
(6.71101e-05 0.000100913 -1.46518e-13)
(-1.3692e-08 -1.90948e-07 -9.5716e-08)
(1.83308e-07 -3.80644e-07 -1.07091e-06)
(-0.000549038 0.000437843 -0.000656857)
(4.57975e-08 2.13283e-07 -4.68285e-11)
(1.28194e-05 -3.37139e-06 7.90819e-07)
(-4.69486e-05 -1.16445e-05 -1.93951e-06)
(2.16546e-05 1.63722e-06 8.58481e-07)