/*--------------------------------*- C++ -*----------------------------------*\
| =========                 |                                                 |
| \\      /  F ield         | OpenFOAM: The Open Source CFD Toolbox           |
|  \\    /   O peration     | Version:  plus.master.MPPICInterFoam            |
|   \\  /    A nd           | Web:      www.OpenFOAM.com                      |
|    \\/     M anipulation  |                                                 |
\*---------------------------------------------------------------------------*/
FoamFile
{
    version     2.0;
    format      ascii;
    class       scalarField;
    location    "7.8/lagrangian/kinematicCloud";
    object      age;
}
// * * * * * * * * * * * * * * * * * * * * * * * * * * * * * * * * * * * * * //


170
(
7.76649
7.6422
7.66466
7.77063
7.76597
7.53119
7.16294
7.6498
7.79772
7.77111
6.92031
7.77836
7.77617
6.89524
7.26671
7.1448
7.28956
7.79142
7.41708
7.04003
7.66859
7.77096
6.92257
7.38294
7.42903
7.48254
7.30935
7.25161
6.97859
7.49786
7.04891
7.44421
7.13003
7.2956
7.04062
7.56284
7.24412
7.77679
7.45254
7.03682
7.40082
7.53762
7.08108
7.70775
7.20755
7.496
7.05496
6.94
7.78553
7.16982
7.58731
7.05745
7.78346
7.04238
7.00857
7.75285
7.01099
6.95075
7.71078
6.97346
7.31218
7.0102
7.34889
7.37942
7.24124
7.12311
7.33499
7.76846
6.96043
7.06178
7.37347
7.09163
7.27668
7.14216
7.7932
6.94097
6.90669
7.29163
7.36476
7.31387
7.13343
7.79393
7.36332
6.8801
7.43009
6.97
7.33077
6.8961
7.48874
7.57189
6.97916
7.07171
7.03013
7.24857
7.1508
6.97016
7.00243
7.19861
7.24591
6.93007
6.99434
7.02263
7.41431
6.91288
7.78855
7.30643
7.04174
6.91433
7.07661
7.54866
6.89368
7.60554
7.54293
7.211
7.16034
7.50638
7.62523
7.02047
6.92929
6.95042
7.67473
6.90199
7.0426
7.2385
7.0398
6.88041
7.39136
7.14527
7.3938
7.16694
6.91719
7.00002
7.52543
7.17065
7.3794
7.58152
6.88741
7.66532
6.92217
7.07578
7.07774
7.33385
7.50547
6.97274
7.24204
6.91027
6.95826
6.91929
7.59218
7.00012
7.67258
7.0752
6.97053
7.77079
7.24724
7.04041
7.44762
6.89241
7.59115
6.98
7.03103
7.00726
6.86658
7.40832
7.59244
7.75971
7.75434
7.80004
7.10745
6.98161
)


// ************************************************************************* //
