/*--------------------------------*- C++ -*----------------------------------*\
| =========                 |                                                 |
| \\      /  F ield         | OpenFOAM: The Open Source CFD Toolbox           |
|  \\    /   O peration     | Version:  plus.master.MPPICInterFoam            |
|   \\  /    A nd           | Web:      www.OpenFOAM.com                      |
|    \\/     M anipulation  |                                                 |
\*---------------------------------------------------------------------------*/
FoamFile
{
    version     2.0;
    format      ascii;
    class       scalarField;
    location    "9/lagrangian/kinematicCloud";
    object      d;
}
// * * * * * * * * * * * * * * * * * * * * * * * * * * * * * * * * * * * * * //


22
(
0.000572465
0.000553998
0.000579068
0.000521084
0.00050031
0.000518849
0.000547468
0.000547078
0.000508698
0.000697077
0.000567394
0.000636997
0.00057312
0.000578318
0.000578853
0.000521934
0.000577184
0.000607579
0.000488982
0.00057969
0.000513069
0.000619024
)


// ************************************************************************* //
