/*--------------------------------*- C++ -*----------------------------------*\
| =========                 |                                                 |
| \\      /  F ield         | OpenFOAM: The Open Source CFD Toolbox           |
|  \\    /   O peration     | Version:  plus.master.MPPICInterFoam            |
|   \\  /    A nd           | Web:      www.OpenFOAM.com                      |
|    \\/     M anipulation  |                                                 |
\*---------------------------------------------------------------------------*/
FoamFile
{
    version     2.0;
    format      ascii;
    class       volScalarField;
    location    "5.2";
    object      epsilon;
}
// * * * * * * * * * * * * * * * * * * * * * * * * * * * * * * * * * * * * * //

dimensions      [0 2 -3 0 0 0 0];

internalField   nonuniform List<scalar> 
11822
(
0.26065
0.315651
0.359831
0.380838
0.36936
0.331069
0.277513
0.30973
0.381916
0.44212
0.468784
0.452392
0.401818
0.332114
0.346044
0.434735
0.496338
0.487386
0.506192
0.455491
0.372452
0.358936
0.455487
0.487784
0.475419
0.506897
0.47144
0.385947
0.340838
0.42995
0.48564
0.490103
0.483596
0.449105
0.365636
0.300294
0.371194
0.433147
0.463455
0.443872
0.389228
0.319815
0.248587
0.300935
0.34335
0.36398
0.351544
0.313761
0.262563
0.267606
0.332077
0.387449
0.415336
0.40264
0.352303
0.28624
0.324104
0.411733
0.481745
0.519418
0.50185
0.442332
0.352777
0.366912
0.472474
0.547388
0.534163
0.520117
0.499099
0.404746
0.380023
0.490252
0.537011
0.508575
0.546448
0.515123
0.419079
0.356914
0.457507
0.520419
0.53167
0.523846
0.486591
0.389956
0.309362
0.388949
0.458134
0.491828
0.474489
0.413983
0.33271
0.252012
0.309169
0.356888
0.380388
0.36766
0.324257
0.266682
0.267445
0.338925
0.402912
0.435088
0.417021
0.357632
0.282693
0.332414
0.428278
0.477762
0.484924
0.483663
0.454912
0.357766
0.38444
0.487687
0.472742
0.500231
0.47897
0.483353
0.419257
0.401
0.506883
0.534604
0.486316
0.471803
0.498937
0.44011
0.374535
0.479814
0.52906
0.533264
0.518219
0.5113
0.406333
0.31792
0.408929
0.482995
0.516606
0.501218
0.431821
0.339086
0.253226
0.317283
0.37361
0.400298
0.383512
0.331119
0.265073
0.256717
0.324377
0.386297
0.414159
0.395987
0.336101
0.264375
0.320903
0.410841
0.473456
0.488844
0.490894
0.430622
0.33557
0.372658
0.452719
0.481915
0.485261
0.499126
0.492781
0.396625
0.388694
0.465947
0.461971
0.452394
0.464424
0.500901
0.416659
0.363853
0.443767
0.474612
0.46761
0.493078
0.467932
0.386049
0.309685
0.391392
0.441401
0.462649
0.451562
0.408902
0.321186
0.246751
0.308641
0.362303
0.386753
0.369545
0.316714
0.252042
0.239283
0.295493
0.34606
0.370022
0.347986
0.296086
0.23808
0.295486
0.372637
0.427048
0.447679
0.433632
0.37289
0.294812
0.34354
0.424362
0.479861
0.451295
0.485215
0.431012
0.344767
0.363795
0.435718
0.454505
0.437073
0.4689
0.447736
0.365144
0.339843
0.415252
0.466385
0.456037
0.483888
0.421515
0.340032
0.290799
0.364178
0.413983
0.43209
0.416741
0.364725
0.288482
0.23482
0.289232
0.336457
0.358852
0.337002
0.287872
0.232246
0.218631
0.261199
0.296044
0.309289
0.292637
0.256555
0.212844
0.262159
0.321073
0.366669
0.374114
0.356076
0.313192
0.255003
0.298063
0.367063
0.395294
0.378367
0.386977
0.355063
0.288651
0.313982
0.36948
0.404687
0.35524
0.376472
0.367144
0.301851
0.298331
0.362736
0.405185
0.401836
0.383853
0.35673
0.287196
0.260353
0.317886
0.358141
0.361399
0.352975
0.309381
0.251949
0.216903
0.2583
0.29328
0.305822
0.288062
0.252436
0.210212
0.218075
0.176593
0.141847
0.114388
0.0943342
0.0822845
0.0831003
0.147526
0.259203
0.204391
0.159715
0.125042
0.0998657
0.0841483
0.0818309
0.139866
0.289841
0.226139
0.173946
0.13362
0.104495
0.0860953
0.0817175
0.135884
0.299657
0.232851
0.178175
0.136043
0.105702
0.0865134
0.081551
0.134529
0.283851
0.221109
0.170101
0.130877
0.102645
0.0849031
0.080968
0.135227
0.249038
0.195999
0.153288
0.120417
0.0967141
0.0821017
0.0805403
0.138756
0.206432
0.166998
0.134447
0.108995
0.0905992
0.0798181
0.0815253
0.146173
0.218418
0.173492
0.137589
0.110249
0.090779
0.0793108
0.0804482
0.144164
0.264719
0.203093
0.155808
0.120822
0.0962184
0.0811825
0.0793041
0.136944
0.300661
0.226999
0.170669
0.1295
0.100869
0.0832088
0.0793701
0.133493
0.311655
0.234388
0.1752
0.132084
0.102218
0.0837905
0.0794067
0.132559
0.292012
0.221201
0.166848
0.127075
0.0994116
0.0824141
0.0790292
0.1335
0.25194
0.194135
0.149754
0.116918
0.0938632
0.0799168
0.0788221
0.137171
0.205514
0.164055
0.13105
0.10597
0.0881883
0.0779528
0.0800374
0.144814
0.212006
0.166788
0.131849
0.105736
0.0872387
0.076324
0.0775147
0.140436
0.260365
0.196356
0.149592
0.115958
0.092546
0.0782312
0.0765309
0.133675
0.299825
0.221101
0.164421
0.124523
0.0971912
0.0803573
0.0767931
0.130834
0.313346
0.229318
0.169231
0.127271
0.0987057
0.0811196
0.0770359
0.130353
0.292233
0.216106
0.161299
0.122698
0.0962409
0.0799912
0.0768552
0.13152
0.249076
0.188885
0.144893
0.11322
0.0911632
0.0777869
0.0768283
0.135253
0.201189
0.15942
0.127161
0.103031
0.0859634
0.0760931
0.078199
0.143021
0.200007
0.158204
0.125849
0.101435
0.0839071
0.0734015
0.0744452
0.135897
0.245183
0.18578
0.142513
0.111173
0.0890676
0.0753461
0.0736198
0.129477
0.283663
0.209532
0.156763
0.11953
0.0937141
0.0775771
0.07404
0.127015
0.297402
0.217848
0.161695
0.122449
0.095428
0.0785271
0.0744663
0.126871
0.277535
0.20581
0.154641
0.118455
0.0933309
0.0776416
0.0744713
0.128301
0.236964
0.180713
0.139638
0.109796
0.0887017
0.075681
0.0745923
0.1322
0.192808
0.15369
0.123354
0.1004
0.0839095
0.0741801
0.0760382
0.140048
0.185015
0.148841
0.119748
0.0971496
0.0806338
0.070698
0.0719239
0.13161
0.222723
0.1728
0.134773
0.106176
0.0855013
0.0725582
0.0711916
0.125871
0.254727
0.193234
0.147565
0.113968
0.0899654
0.0747601
0.0716757
0.123733
0.267297
0.200896
0.152323
0.116934
0.0917828
0.0758165
0.0722106
0.123806
0.251705
0.191381
0.146628
0.113675
0.0901001
0.0751742
0.0723611
0.125359
0.218729
0.170445
0.133725
0.106059
0.0860064
0.0734959
0.0726111
0.129235
0.181733
0.147119
0.119274
0.0975761
0.0816841
0.0722298
0.0741065
0.136693
0.16991
0.139244
0.113419
0.092913
0.0780344
0.0698505
0.0748344
0.164207
0.200049
0.159588
0.126779
0.101148
0.0824845
0.0714119
0.073611
0.156501
0.223879
0.176175
0.137868
0.108163
0.0865577
0.0733564
0.0737577
0.153126
0.232894
0.182425
0.142133
0.110979
0.0883216
0.0743632
0.0741805
0.152736
0.222718
0.175535
0.137736
0.108388
0.0869841
0.0738934
0.0744171
0.154485
0.198411
0.158965
0.126944
0.101819
0.0834316
0.0725132
0.0749313
0.159316
0.169016
0.139349
0.114247
0.0941821
0.0795385
0.0715039
0.0767984
0.168482
0.195729
0.159373
0.129571
0.106349
0.0896042
0.079969
0.0825044
0.148457
0.233161
0.184364
0.145692
0.116151
0.0948898
0.0819182
0.0814495
0.141011
0.263319
0.205594
0.159757
0.124908
0.0998903
0.084267
0.0816488
0.137132
0.276754
0.215254
0.16633
0.12913
0.102416
0.0855965
0.0820683
0.136151
0.267772
0.209361
0.162705
0.127076
0.101395
0.0852509
0.0822582
0.137502
0.24098
0.190932
0.150841
0.119949
0.0975376
0.0836588
0.0825202
0.141655
0.205166
0.167304
0.135823
0.111002
0.0928784
0.0821446
0.0838529
0.149283
0.195643
0.157889
0.12776
0.104742
0.0883291
0.0789731
0.0817575
0.148514
0.235775
0.18386
0.144063
0.114462
0.0934899
0.080799
0.0805575
0.140813
0.269334
0.206523
0.15851
0.123193
0.0983582
0.083007
0.0806178
0.136748
0.285
0.217111
0.165325
0.12738
0.100752
0.084181
0.080862
0.135508
0.275557
0.210844
0.161468
0.12514
0.0995533
0.0836443
0.0808239
0.136468
0.245547
0.190911
0.148981
0.117723
0.0954859
0.081839
0.0808332
0.140082
0.206151
0.16578
0.133376
0.108495
0.0906115
0.0801125
0.081936
0.147249
0.194326
0.155981
0.126091
0.10345
0.0872274
0.0778326
0.0804363
0.147815
0.236566
0.182276
0.142245
0.113008
0.0922893
0.0795856
0.0791418
0.139896
0.273218
0.205659
0.156639
0.12154
0.0969949
0.0816702
0.0790865
0.135751
0.290395
0.216596
0.163365
0.125521
0.0991894
0.0826685
0.0791512
0.134252
0.279141
0.209574
0.159144
0.123054
0.0977709
0.081905
0.0788635
0.134732
0.245567
0.18836
0.1462
0.115365
0.0934541
0.0798473
0.0785892
0.137694
0.20342
0.162376
0.130276
0.105898
0.0883348
0.0778768
0.0794386
0.144359
0.191004
0.153917
0.124804
0.102434
0.086103
0.0763536
0.0783986
0.145144
0.231957
0.179476
0.140631
0.111879
0.0911282
0.0780811
0.0770705
0.137147
0.267676
0.202184
0.15461
0.120211
0.0957339
0.0800985
0.0769509
0.132982
0.28431
0.212613
0.160922
0.12389
0.0977185
0.0809294
0.0768608
0.131249
0.272361
0.205095
0.156319
0.121076
0.0959885
0.0799035
0.0763234
0.131249
0.238586
0.183692
0.143092
0.113048
0.0913379
0.0775466
0.075757
0.133624
0.197136
0.157913
0.127068
0.103337
0.0859504
0.0753233
0.0763447
0.139789
0.185189
0.150858
0.122983
0.100956
0.0845624
0.0746243
0.0763879
0.14174
0.222257
0.174644
0.138106
0.110124
0.0894419
0.0762555
0.0750511
0.134206
0.254335
0.195318
0.151154
0.118054
0.0938466
0.0781496
0.07488
0.130215
0.268925
0.204346
0.156673
0.121297
0.095556
0.0787931
0.0746638
0.128362
0.256391
0.196622
0.151774
0.118141
0.0935483
0.077555
0.0739413
0.127971
0.225208
0.1764
0.138817
0.110007
0.0886999
0.0750143
0.0731721
0.129773
0.187757
0.152215
0.123241
0.100318
0.0832315
0.0726917
0.0735801
0.135123
0.175466
0.145128
0.119168
0.0980956
0.082454
0.0736097
0.0785719
0.172614
0.206489
0.166292
0.133227
0.106787
0.0870577
0.0750159
0.0768503
0.163394
0.232052
0.183879
0.144923
0.114084
0.0911092
0.0766775
0.0764448
0.158583
0.242499
0.190945
0.149491
0.116818
0.0925287
0.0771666
0.0761543
0.15659
0.23242
0.184016
0.144686
0.113568
0.0904229
0.0758915
0.0754932
0.156524
0.207289
0.166318
0.132581
0.105687
0.0856909
0.0734719
0.0749771
0.159294
0.175801
0.144596
0.117919
0.0963667
0.0804417
0.0713801
0.0758523
0.166483
0.206471
0.168313
0.136575
0.111504
0.0931602
0.0822391
0.0837703
0.148823
0.247494
0.196303
0.154818
0.122597
0.0990889
0.0843826
0.0826233
0.141099
0.281013
0.22042
0.170926
0.132571
0.104674
0.0869122
0.0828011
0.137222
0.296827
0.231853
0.178584
0.1373
0.107314
0.0881442
0.0830463
0.136118
0.288093
0.225581
0.174327
0.134574
0.105681
0.0872821
0.0828023
0.137032
0.258673
0.204408
0.160141
0.125697
0.100596
0.0848469
0.0824502
0.140495
0.218231
0.176825
0.142119
0.114671
0.0945997
0.08252
0.0832988
0.147691
0.207428
0.166653
0.133934
0.108789
0.0906971
0.0800356
0.0816946
0.146499
0.252685
0.196031
0.152276
0.119579
0.0963042
0.0819404
0.0803803
0.138619
0.291466
0.2222
0.168783
0.129352
0.101588
0.0842365
0.0804102
0.134697
0.310366
0.234799
0.176617
0.133895
0.103992
0.0852866
0.0805349
0.133501
0.29992
0.227414
0.171751
0.130828
0.102144
0.084271
0.0801583
0.134135
0.264795
0.203617
0.156564
0.121633
0.0969571
0.0817779
0.0797284
0.137237
0.21868
0.173796
0.137905
0.110537
0.0910204
0.0794939
0.0805679
0.144224
0.204328
0.162891
0.1305
0.10591
0.0882017
0.0776387
0.0790677
0.143388
0.251053
0.191863
0.148094
0.116116
0.0934523
0.0793618
0.0776802
0.135495
0.292685
0.218258
0.164033
0.125317
0.0983572
0.08146
0.0776393
0.131683
0.313356
0.230933
0.171417
0.129407
0.100447
0.0823268
0.0776762
0.130481
0.300176
0.222409
0.16604
0.126053
0.0984144
0.0811877
0.0772117
0.130892
0.260976
0.197271
0.150555
0.116817
0.093211
0.0786659
0.0767264
0.133644
0.212363
0.167153
0.132186
0.106015
0.087448
0.0764564
0.0775662
0.14042
0.197397
0.157963
0.126956
0.103119
0.0856677
0.0749948
0.0759313
0.13878
0.241039
0.18492
0.143379
0.112711
0.0906304
0.0766177
0.0745685
0.131007
0.280479
0.209431
0.158075
0.121217
0.0951984
0.0785839
0.0745187
0.127302
0.299385
0.220724
0.164504
0.124731
0.0969821
0.0793168
0.0745248
0.126128
0.285434
0.211693
0.158765
0.121118
0.0947838
0.0781022
0.0740497
0.126508
0.246403
0.187038
0.143615
0.112019
0.089614
0.0755911
0.0735748
0.129161
0.200438
0.158605
0.126186
0.101691
0.0840744
0.0734773
0.0744313
0.13583
0.187597
0.151947
0.122891
0.0999323
0.0828429
0.0723104
0.073155
0.13411
0.224896
0.175667
0.137747
0.108761
0.0874269
0.0737735
0.0718414
0.126997
0.257359
0.196313
0.150521
0.116347
0.0915594
0.0755542
0.0717788
0.123563
0.272004
0.204985
0.155553
0.119166
0.0930173
0.0761596
0.0717769
0.122492
0.258048
0.196081
0.149785
0.115484
0.0907859
0.0749624
0.0713437
0.122867
0.224388
0.174262
0.135915
0.106944
0.0858954
0.0726174
0.0709552
0.125393
0.185478
0.149233
0.120061
0.097369
0.0807541
0.0707208
0.0718612
0.13157
0.175431
0.144156
0.117434
0.0958909
0.0800104
0.070997
0.0754516
0.165427
0.205655
0.164466
0.130671
0.1039
0.084134
0.0721387
0.0736752
0.156452
0.229686
0.180907
0.141431
0.110495
0.0877577
0.0736239
0.0733171
0.151968
0.238577
0.186789
0.145142
0.112705
0.0889382
0.0741219
0.0732628
0.15067
0.227515
0.179017
0.139816
0.109249
0.0868942
0.0731093
0.0730477
0.1516
0.201791
0.160949
0.127705
0.101635
0.0825845
0.0711979
0.0731372
0.155563
0.170375
0.139601
0.113674
0.0930598
0.0780742
0.0697987
0.0747202
0.164195
0.205071
0.165941
0.133644
0.108437
0.0902602
0.0796639
0.0815425
0.146598
0.242163
0.190287
0.14902
0.117526
0.0949567
0.0811895
0.0802315
0.138976
0.26992
0.209373
0.161344
0.124985
0.0990701
0.0830045
0.0801921
0.135148
0.278849
0.215443
0.165292
0.127433
0.100493
0.0837358
0.0803728
0.134254
0.264313
0.205458
0.15886
0.123605
0.0984639
0.0829052
0.0804204
0.135749
0.233244
0.183972
0.144986
0.11529
0.0940072
0.0810932
0.0807045
0.140148
0.195481
0.159057
0.129226
0.106008
0.089286
0.0796857
0.0822569
0.14816
0.204146
0.16313
0.130444
0.105628
0.0880544
0.0779833
0.0802372
0.14559
0.244181
0.188574
0.146133
0.114811
0.0928396
0.0796346
0.0790945
0.138335
0.274693
0.208932
0.158943
0.122462
0.0970824
0.0815846
0.0792198
0.134899
0.284385
0.215575
0.163252
0.125148
0.0986969
0.0824765
0.0795523
0.134293
0.268618
0.20525
0.156929
0.121551
0.0968696
0.0817819
0.0796835
0.13589
0.235137
0.182981
0.143069
0.11348
0.0926177
0.0800876
0.0800161
0.140273
0.195261
0.157484
0.127365
0.104387
0.0880257
0.0787273
0.0815654
0.14827
0.200165
0.158834
0.126885
0.102974
0.0860577
0.0763048
0.0785725
0.144157
0.242681
0.184878
0.142664
0.112217
0.090959
0.0781047
0.077597
0.137248
0.276669
0.206435
0.155866
0.120055
0.0953672
0.0802201
0.0778987
0.134274
0.288417
0.214005
0.160636
0.123033
0.0971867
0.0812642
0.0783578
0.133942
0.271554
0.203693
0.154657
0.119759
0.0955742
0.0806843
0.0785422
0.135563
0.235483
0.181089
0.141092
0.111989
0.0914879
0.0790373
0.0788451
0.139773
0.193882
0.155549
0.125689
0.103109
0.0869648
0.0776497
0.0803215
0.147651
0.192478
0.153596
0.123433
0.100595
0.0841765
0.0745087
0.0765005
0.141356
0.233871
0.179082
0.139058
0.1099
0.0892211
0.0764696
0.0756992
0.134805
0.268222
0.200815
0.152441
0.117973
0.0938585
0.0787724
0.0761596
0.132176
0.280997
0.209088
0.157698
0.121302
0.0959245
0.079969
0.0767107
0.132002
0.265161
0.199637
0.152327
0.118394
0.0944925
0.0794551
0.0768925
0.133587
0.230482
0.178043
0.139368
0.110891
0.0904662
0.0777596
0.0770821
0.137559
0.190505
0.153458
0.124408
0.102124
0.085894
0.0762464
0.0783823
0.145136
0.181847
0.147343
0.119589
0.0979396
0.0820651
0.0726292
0.0746156
0.138162
0.218603
0.170818
0.134493
0.107056
0.0870968
0.0746323
0.0739377
0.132306
0.25021
0.191177
0.147441
0.115103
0.0918125
0.0770086
0.0744836
0.130029
0.26389
0.199828
0.153018
0.118696
0.0940527
0.0782939
0.0750745
0.129952
0.25076
0.192152
0.148605
0.116263
0.0928287
0.0778467
0.0752367
0.131429
0.220332
0.172948
0.136754
0.109191
0.0889349
0.076149
0.0753252
0.135018
0.184633
0.150388
0.122601
0.100682
0.0844067
0.0745848
0.0764557
0.141851
0.169288
0.139699
0.114652
0.0945854
0.0799031
0.0718281
0.0771656
0.169698
0.199448
0.160247
0.128347
0.103166
0.0846112
0.0735105
0.0758908
0.161404
0.22441
0.177693
0.140162
0.110748
0.0890582
0.0756396
0.076061
0.157789
0.23575
0.18553
0.145553
0.11431
0.0912537
0.0768372
0.0764941
0.157209
0.227425
0.180129
0.142191
0.112345
0.0902233
0.0764604
0.0766972
0.158934
0.204137
0.164356
0.131819
0.105898
0.0866171
0.0749262
0.0770069
0.163531
0.174866
0.144657
0.118805
0.0978427
0.0823081
0.0735537
0.0785614
0.172335
0.00181307
0.00111936
0.00141866
0.00192731
0.00258453
0.00327823
0.00384105
0.00418643
0.00184687
0.00115124
0.00146421
0.00199204
0.002672
0.00337627
0.00393582
0.00426811
0.00186626
0.00117479
0.00150148
0.00204843
0.0027516
0.00346484
0.00402212
0.00434522
0.00187052
0.00118653
0.00152174
0.00207806
0.00279056
0.00351164
0.00407075
0.00439067
0.00187175
0.00119232
0.00153377
0.00209694
0.00281525
0.00354049
0.00410043
0.00441933
0.00186857
0.00119145
0.00153609
0.00210307
0.00282483
0.00355441
0.0041184
0.00444033
0.00185188
0.00117841
0.00152085
0.00208465
0.00280275
0.00353305
0.00410064
0.00442697
0.00268467
0.00173231
0.00227549
0.00318519
0.00437797
0.00543259
0.00608629
0.00631877
0.00273603
0.00178804
0.00235921
0.00330636
0.00453913
0.00559403
0.0062247
0.0064221
0.00276946
0.00183213
0.00243029
0.0034133
0.00468675
0.00575272
0.00636392
0.00652748
0.00278705
0.00185898
0.00247263
0.00347122
0.00475343
0.00580958
0.00641283
0.00657113
0.00280526
0.00187838
0.00250182
0.00350842
0.00479124
0.00584309
0.00644252
0.00659955
0.00281773
0.00188772
0.00251634
0.00352703
0.00480937
0.00586383
0.00646872
0.00663068
0.00280766
0.00187586
0.00250163
0.00350806
0.00478577
0.00584573
0.00645913
0.00662917
0.00425831
0.00306642
0.0043433
0.00639736
0.00862656
0.00989347
0.010232
0.00993356
0.0043708
0.00319914
0.00455366
0.00671476
0.00896662
0.0101779
0.0104502
0.0100837
0.00445466
0.00331024
0.00473834
0.0070046
0.00928874
0.0104635
0.0106742
0.0102424
0.0045183
0.00338213
0.00484136
0.00713181
0.00939755
0.010538
0.0107263
0.0102798
0.00458128
0.0034316
0.00489614
0.00717256
0.00941243
0.0105379
0.0107247
0.0102843
0.00462959
0.00345862
0.00491673
0.00716777
0.00939554
0.0105259
0.0107285
0.0103056
0.00463533
0.00344591
0.0048887
0.00711463
0.00934985
0.010502
0.0107227
0.0103145
0.00780287
0.00683779
0.0104412
0.0156245
0.0182715
0.0187567
0.017805
0.016072
0.00809554
0.00719861
0.0109708
0.0162495
0.0188554
0.01924
0.018161
0.0163008
0.00832831
0.00751252
0.0114556
0.0168626
0.0194413
0.019731
0.0185324
0.0165512
0.00850251
0.00768753
0.011674
0.0170752
0.0196132
0.0198475
0.0185947
0.0165758
0.0086409
0.00775185
0.0116815
0.0169888
0.0194939
0.019727
0.0184927
0.0165044
0.00873571
0.00775619
0.0116052
0.0168184
0.0193164
0.0195815
0.0183996
0.0164667
0.00876707
0.00771506
0.0115122
0.0167119
0.0192293
0.0195259
0.0183812
0.0164815
0.0162864
0.0202785
0.0303718
0.0358054
0.0367567
0.0345494
0.0305027
0.0257522
0.0170189
0.0211507
0.0312507
0.0365937
0.0374829
0.035177
0.0309788
0.0260504
0.0177161
0.0220324
0.0323171
0.0376157
0.0384057
0.0359404
0.0315472
0.0264195
0.0180955
0.022392
0.0326937
0.0379692
0.0386955
0.0361298
0.0316314
0.0264272
0.0181713
0.0222433
0.0323863
0.0376501
0.0383823
0.0358362
0.0313757
0.0262301
0.018116
0.0219299
0.0319171
0.0372061
0.037983
0.035504
0.0311348
0.0260924
0.0180987
0.0217433
0.0317895
0.0371562
0.037954
0.0354815
0.0311356
0.0261341
0.0527494
0.0605676
0.0682079
0.0698893
0.0664451
0.0588939
0.0491286
0.0390697
0.0533778
0.0607236
0.0682595
0.0700145
0.0667217
0.0592875
0.0495142
0.0393113
0.0545164
0.0616743
0.0691801
0.0710006
0.0677296
0.0601972
0.0502181
0.0397422
0.0549686
0.0620186
0.0696444
0.0715143
0.0681956
0.0605294
0.0503705
0.0397353
0.0544507
0.0614213
0.0692339
0.0711787
0.0678755
0.0602034
0.0500473
0.0394536
0.0538709
0.0608581
0.068901
0.0709067
0.0675969
0.0599163
0.0497946
0.0393092
0.0539877
0.0611534
0.0694243
0.0714977
0.0681221
0.0602941
0.0500329
0.0395044
0.00147753
0.00092073
0.00120093
0.00165924
0.00224066
0.00290407
0.0034849
0.0038784
0.00140326
0.000882106
0.00115868
0.0016069
0.00217464
0.00283144
0.00341803
0.00382621
0.0013602
0.000858133
0.00113063
0.00157073
0.00212809
0.00277816
0.00336633
0.00378351
0.00136788
0.000856579
0.00112407
0.00155926
0.00211165
0.00275498
0.00334156
0.00376289
0.00140581
0.000869087
0.00113081
0.0015619
0.00211091
0.00275115
0.0033393
0.00376194
0.00144784
0.000885169
0.00114223
0.00157025
0.00211731
0.00275675
0.00334443
0.00376903
0.00148556
0.000901627
0.00115718
0.00158609
0.00213596
0.00277657
0.0033639
0.00378607
0.00229314
0.00146065
0.00194264
0.00273461
0.00375532
0.00480871
0.00555654
0.00591352
0.00217784
0.00138943
0.00185464
0.00261777
0.00360265
0.00464972
0.00541947
0.00580965
0.00210467
0.00134073
0.00179131
0.00253164
0.00348972
0.00452726
0.00531036
0.0057242
0.00209808
0.00132596
0.00176493
0.00249191
0.00343644
0.00447043
0.00525973
0.00568444
0.00213466
0.00133437
0.00176348
0.00248215
0.00342115
0.0044542
0.00524871
0.00568112
0.00218387
0.00135278
0.00177573
0.00249098
0.0034291
0.0044601
0.00525863
0.00569831
0.0022323
0.00137575
0.00179874
0.00251889
0.00346767
0.00450307
0.0053005
0.00573423
0.00369054
0.002546
0.00356106
0.00515633
0.00715233
0.00865448
0.00930595
0.00929409
0.00348367
0.00239057
0.00335023
0.00487181
0.00680455
0.00833365
0.00905454
0.00911145
0.00333649
0.00227335
0.00318571
0.00464625
0.00652664
0.00807455
0.0088503
0.00895948
0.00328127
0.00221443
0.00309396
0.00451785
0.00637507
0.00793454
0.00874453
0.00888544
0.00329601
0.00220308
0.00306387
0.00447186
0.00632186
0.00788698
0.00871744
0.00888096
0.00334474
0.00222089
0.00307612
0.00448452
0.00634152
0.00791324
0.00875428
0.00892439
0.00340593
0.00225748
0.00312287
0.00455322
0.0064411
0.00801554
0.00884474
0.0090001
0.00656479
0.00530761
0.00791385
0.0117315
0.0149291
0.0161776
0.0160044
0.0149423
0.0061273
0.00491586
0.00735852
0.0109586
0.0142581
0.0156352
0.0155955
0.0146544
0.00578193
0.00459798
0.00690076
0.0103227
0.0137006
0.0151836
0.0152525
0.0144097
0.00558709
0.00440568
0.00661901
0.00993951
0.0133588
0.0149111
0.0150574
0.0142833
0.00553326
0.00433853
0.00652064
0.00982441
0.0132546
0.0148392
0.0150232
0.0142861
0.00557533
0.00436615
0.0065677
0.00992156
0.0133434
0.0149269
0.015115
0.0143807
0.00567122
0.00446065
0.00672951
0.0102024
0.0136018
0.0151492
0.0153004
0.0145306
0.0127672
0.0138786
0.0210714
0.0276394
0.0301513
0.0296697
0.0272599
0.0238732
0.0118789
0.012852
0.0197581
0.0264768
0.029187
0.0289174
0.026708
0.0234963
0.0111321
0.0119898
0.0186574
0.025478
0.02835
0.0282605
0.0262277
0.023168
0.0106522
0.0114666
0.0179967
0.0248553
0.0278181
0.0278485
0.0259438
0.022996
0.0104779
0.0113315
0.0178568
0.0247006
0.0276784
0.027755
0.0259106
0.0230214
0.010547
0.0115047
0.0181412
0.02494
0.0278672
0.0279165
0.0260686
0.0231841
0.0107752
0.0119178
0.0187816
0.0255101
0.0283338
0.028291
0.0263748
0.0234331
0.0353891
0.0402253
0.0518696
0.0563477
0.0558046
0.0512773
0.0442786
0.0365198
0.0335827
0.0382121
0.0502922
0.0550115
0.0546911
0.0504194
0.0436769
0.0361406
0.0320343
0.0365161
0.0489431
0.0538496
0.0537054
0.0496449
0.0431309
0.035796
0.0312096
0.0356863
0.0482144
0.0531679
0.0530938
0.0491577
0.0428055
0.0356225
0.0312053
0.0358819
0.0482056
0.0530415
0.0529296
0.0490275
0.04276
0.0356728
0.0318334
0.0367982
0.0487657
0.0533945
0.0531579
0.0491981
0.0429318
0.0358755
0.0329219
0.0382815
0.0498114
0.0541721
0.0537377
0.0496287
0.0432803
0.0361784
0.00151638
0.000916645
0.00117259
0.00160421
0.00215838
0.00279958
0.00338337
0.00379843
0.00154683
0.000932814
0.00119047
0.00162662
0.00218746
0.00282759
0.00340415
0.00380848
0.00158175
0.000952679
0.00121192
0.00165252
0.00222027
0.00286444
0.00343634
0.00383029
0.00162796
0.000980219
0.00124284
0.00169169
0.00227153
0.00292232
0.00349222
0.00387807
0.00167644
0.00101215
0.00127986
0.00173904
0.00233345
0.00299557
0.0035661
0.0039457
0.00172443
0.00104714
0.00132296
0.00179603
0.00240881
0.0030816
0.00365142
0.00402297
0.00176988
0.0010831
0.00136954
0.00185914
0.00249286
0.00317544
0.00374174
0.00410091
0.00227802
0.00140062
0.0018272
0.00255568
0.00351749
0.00455335
0.0053408
0.00576061
0.00232639
0.00142927
0.00186226
0.0026025
0.00357924
0.00461628
0.00538556
0.0057827
0.00237735
0.00146233
0.00190262
0.00265634
0.00365204
0.00468521
0.00543944
0.0058153
0.00243671
0.00150438
0.00195589
0.00272935
0.00375293
0.00479363
0.00553119
0.00588377
0.00249613
0.00155252
0.00201854
0.00281548
0.00387353
0.00492195
0.00564566
0.00597765
0.00255802
0.00160832
0.00209522
0.00292371
0.00402248
0.00507603
0.00578018
0.00608559
0.00262145
0.00166948
0.0021833
0.00305131
0.00419685
0.00525111
0.00593006
0.00620078
0.00347558
0.0023033
0.00318353
0.00463856
0.00655409
0.00811665
0.0089185
0.00904713
0.00355533
0.00235865
0.00325776
0.00474148
0.00668777
0.00823469
0.00899219
0.00907909
0.00364363
0.00242783
0.00335428
0.00487745
0.00686132
0.0083796
0.0090894
0.00912949
0.00374486
0.00251694
0.00348378
0.00506385
0.00710463
0.00859962
0.00924626
0.00923264
0.00385565
0.00262591
0.00364517
0.00529496
0.00739756
0.00886526
0.00944726
0.00937861
0.00398185
0.00275836
0.00384884
0.00560904
0.00776339
0.00917589
0.00968371
0.00954918
0.00412096
0.00291204
0.00409611
0.00600867
0.00820503
0.00954221
0.00996301
0.00974544
0.00579271
0.00456768
0.0068972
0.0104728
0.0138286
0.0153211
0.0154179
0.014601
0.00593873
0.00469192
0.00708308
0.0107583
0.0140552
0.0154757
0.0155016
0.0146223
0.00612523
0.00487728
0.00737556
0.0112149
0.014434
0.0157526
0.015671
0.0146981
0.00636027
0.00513559
0.00778838
0.0118574
0.0149743
0.0161598
0.0159452
0.0148584
0.00665662
0.00547401
0.00832393
0.0126772
0.0156563
0.0166851
0.016316
0.0151005
0.00701071
0.00588763
0.00896897
0.0136249
0.0164616
0.0173089
0.0167597
0.0153923
0.00742129
0.00637703
0.00973235
0.0147159
0.0174369
0.0180828
0.0173147
0.0157535
0.0110187
0.0122487
0.0192829
0.0259223
0.0286494
0.0285148
0.0265178
0.0235089
0.01129
0.0125512
0.0197183
0.0262725
0.0289092
0.0286708
0.0265686
0.0234705
0.0117125
0.0131634
0.0206194
0.0270869
0.0295666
0.0291339
0.0268317
0.0235626
0.012297
0.0140898
0.0219376
0.0282866
0.0305525
0.0298536
0.0272848
0.0237918
0.0130881
0.0153455
0.0237052
0.0298674
0.0318408
0.0308053
0.0279138
0.02416
0.0140745
0.0169191
0.0258949
0.0318109
0.0334178
0.0319727
0.0286968
0.0246322
0.0152583
0.0187957
0.0284986
0.0341466
0.0353511
0.0334421
0.0297108
0.0252568
0.0335046
0.0390915
0.0503323
0.0545533
0.0540201
0.049813
0.0433757
0.0362017
0.0338056
0.0394485
0.0505297
0.0547332
0.0541864
0.049906
0.0433416
0.0360414
0.0350435
0.0409749
0.0518042
0.055869
0.055128
0.0505619
0.0436843
0.0361092
0.0372338
0.0436044
0.0540327
0.0577888
0.0566743
0.0516666
0.0443447
0.0363868
0.0404415
0.0473707
0.057191
0.0604583
0.0587814
0.0531775
0.0452916
0.0368683
0.0446703
0.0521445
0.0611959
0.0638408
0.0614528
0.0550943
0.0465159
0.0375334
0.049646
0.0575091
0.0657188
0.0677348
0.06462
0.0574542
0.048101
0.0384532
0.00181896
0.00115164
0.00148562
0.00203636
0.00273744
0.0034586
0.00402426
0.00435349
0.00177298
0.00111582
0.00143816
0.00197026
0.00264648
0.00335249
0.00391277
0.00424372
0.00173069
0.00108165
0.00139267
0.00190689
0.00255971
0.00325155
0.0038075
0.00414115
0.00169932
0.00105393
0.00135526
0.00185461
0.00248818
0.0031681
0.00372107
0.00405775
0.00167011
0.00102935
0.0013231
0.0018108
0.00242947
0.00310102
0.00365433
0.00399686
0.00162662
0.00100057
0.00128847
0.00176611
0.00237216
0.00303954
0.00359851
0.00395328
0.00155936
0.000963284
0.001247
0.00171529
0.00230982
0.00297635
0.00354674
0.00392074
0.00277081
0.00183807
0.00244768
0.00343038
0.00468019
0.00573805
0.00635933
0.00654189
0.00271393
0.00178398
0.00236993
0.00331698
0.00452327
0.00557404
0.00620361
0.00640242
0.00266156
0.00173196
0.0022946
0.00320743
0.00437304
0.00541816
0.00605779
0.00627441
0.0026234
0.00168931
0.00223161
0.00311544
0.00424574
0.0052869
0.00593766
0.00617086
0.00258604
0.00165054
0.00217646
0.00303802
0.00414009
0.00518048
0.00584522
0.00609785
0.00252246
0.0016022
0.00211374
0.00295462
0.00403225
0.00507598
0.0057633
0.00604375
0.00241892
0.00153697
0.0020347
0.00285363
0.0039066
0.00495869
0.00567692
0.00599456
0.00458248
0.00337115
0.00476367
0.00690709
0.00913565
0.010325
0.010579
0.0101991
0.00448293
0.00325436
0.00457335
0.00659127
0.00879716
0.0100342
0.010336
0.00999854
0.00438274
0.00313813
0.00438746
0.00629122
0.00847626
0.00976326
0.0101121
0.00981657
0.0043006
0.00303741
0.00422643
0.00603617
0.00819063
0.00952413
0.00991981
0.00966755
0.00421986
0.00294657
0.00408969
0.00584227
0.00795439
0.00932662
0.00977183
0.00956568
0.00409687
0.0028408
0.00394421
0.00564996
0.00772737
0.0091379
0.00964429
0.00949397
0.00391166
0.00270574
0.00377015
0.00542895
0.00747433
0.00893371
0.00951136
0.00942712
0.00865724
0.00751227
0.0111663
0.0162593
0.0188184
0.0191968
0.018139
0.0163119
0.0084116
0.00717419
0.0106072
0.015476
0.018097
0.0186091
0.0176945
0.0159878
0.00814546
0.0068436
0.0101002
0.0147575
0.0174579
0.0180925
0.0173039
0.0157032
0.00790112
0.00654446
0.009643
0.0141023
0.0168827
0.0176316
0.0169619
0.0154645
0.00767143
0.00627667
0.00923769
0.013511
0.0163855
0.0172491
0.0166974
0.0153026
0.00738582
0.00600086
0.00884611
0.0129671
0.015937
0.016922
0.0164919
0.0152031
0.00700905
0.00568552
0.00842744
0.0124203
0.0155018
0.0166141
0.01631
0.0151299
0.0177315
0.0209088
0.0306385
0.0361696
0.0371569
0.0348831
0.0307253
0.0258782
0.016977
0.0194413
0.028453
0.0341757
0.0355086
0.0336432
0.0298655
0.0253169
0.0162421
0.0181558
0.0266319
0.0325382
0.034162
0.0326305
0.0291623
0.0248588
0.0155737
0.017078
0.0251519
0.0312043
0.0330542
0.0317863
0.0285743
0.0244846
0.0149723
0.0162014
0.0239703
0.030124
0.0321531
0.0311109
0.0281291
0.024237
0.0143407
0.0154574
0.023002
0.0292581
0.0314388
0.0305945
0.0278215
0.0241123
0.0136149
0.0147593
0.0221566
0.0285548
0.0308865
0.0302141
0.0276228
0.0240746
0.0515939
0.0584881
0.0673355
0.0698331
0.0668582
0.0593987
0.0494511
0.0391753
0.0467763
0.0530211
0.0626611
0.0658083
0.0636299
0.0570559
0.0479086
0.0382413
0.0428987
0.0485261
0.0588401
0.06257
0.0610805
0.0552301
0.0467155
0.0375372
0.0401449
0.045294
0.0561101
0.0602406
0.0592119
0.0538569
0.0458019
0.0370079
0.0383683
0.0432234
0.0542978
0.058621
0.0578562
0.0528452
0.0451553
0.0366897
0.0372684
0.0420362
0.0532535
0.0576266
0.0569639
0.0521605
0.0447569
0.0365753
0.0365872
0.0414517
0.052805
0.0571629
0.0565033
0.0518025
0.0446002
0.0366448
0.00631795
0.00355829
0.00626324
0.00428439