/*--------------------------------*- C++ -*----------------------------------*\
| =========                 |                                                 |
| \\      /  F ield         | OpenFOAM: The Open Source CFD Toolbox           |
|  \\    /   O peration     | Version:  plus.master.MPPICInterFoam            |
|   \\  /    A nd           | Web:      www.OpenFOAM.com                      |
|    \\/     M anipulation  |                                                 |
\*---------------------------------------------------------------------------*/
FoamFile
{
    version     2.0;
    format      ascii;
    class       surfaceScalarField;
    location    "5.2";
    object      phi;
}
// * * * * * * * * * * * * * * * * * * * * * * * * * * * * * * * * * * * * * //

dimensions      [0 3 -1 0 0 0 0];

internalField   nonuniform List<scalar> 
34319
(
1.67343e-07
2.00213e-07
5.63353e-06
-1.65834e-07
-2.33189e-07
1.22598e-07
2.35178e-07
6.33753e-06
-2.86366e-07
4.79859e-08
2.43709e-07
6.89536e-06
-3.17756e-07
-5.44943e-08
2.6837e-07
7.1603e-06
-3.43327e-07
-1.74906e-07
3.14611e-07
7.0018e-06
-3.5257e-07
-2.50627e-07
2.97815e-07
6.49456e-06
-3.19758e-07
2.38977e-07
5.79781e-06
-2.54805e-07
-2.54546e-07
2.20341e-07
1.09093e-07
6.29362e-06
-2.21228e-07
1.8226e-07
9.2341e-08
7.22616e-06
8.18335e-08
2.97945e-08
8.12558e-06
-3.01541e-09
6.29212e-08
8.50558e-06
-2.17724e-07
1.38354e-07
8.32574e-06
-3.26185e-07
1.86303e-07
7.51242e-06
1.55535e-07
6.52389e-06
-3.3429e-07
2.05167e-07
6.24076e-09
6.76687e-06
-2.28243e-07
1.49249e-07
-6.64958e-08
7.94396e-06
1.7125e-07
-1.15452e-07
9.15168e-06
1.07714e-07
-1.71188e-07
1.02796e-05
-1.91233e-07
-1.94206e-07
9.62479e-06
-3.60096e-07
-6.5682e-08
8.41132e-06
3.16389e-08
7.072e-06
-3.79681e-07
1.29848e-07
-5.44938e-08
6.94007e-06
-1.97511e-07
3.73071e-08
-9.87965e-08
8.21123e-06
4.35514e-08
-1.93104e-07
1.00565e-05
-1.77154e-07
-3.06942e-07
1.12144e-05
-2.09331e-07
-3.77214e-07
9.97765e-06
-3.71814e-07
-2.42906e-07
8.67285e-06
-9.85155e-08
7.26976e-06
-3.94048e-07
1.24072e-07
-1.00303e-07
6.74961e-06
-1.83643e-07
5.61736e-08
-1.45641e-07
7.89652e-06
6.735e-08
-1.57461e-07
9.27423e-06
-5.6522e-08
-1.9345e-07
1.01858e-05
-1.98292e-07
-3.3048e-07
9.6546e-06
-3.2169e-07
-2.82487e-07
8.2563e-06
-1.65871e-07
7.01648e-06
-3.65213e-07
1.39025e-07
-1.40208e-07
6.27471e-06
-1.71145e-07
7.07044e-08
-1.85086e-07
7.14908e-06
1.16615e-08
-1.76744e-07
7.93562e-06
-2.15555e-08
-1.96574e-07
8.32589e-06
-1.71361e-07
-2.75954e-07
8.06436e-06
-2.92438e-07
-2.79666e-07
7.34685e-06
-1.95539e-07
6.46241e-06
-3.24142e-07
1.11027e-07
5.63636e-06
-1.32343e-07
-1.47465e-07
5.62955e-08
6.29822e-06
-1.96625e-07
4.96754e-09
6.80459e-06
-2.12201e-07
-5.46398e-08
7.02732e-06
-2.30183e-07
-1.50147e-07
6.87483e-06
-2.65136e-07
-2.3657e-07
6.41411e-06
-2.50894e-07
5.76135e-06
-2.63328e-07
-1.79538e-07
4.48995e-07
5.23694e-07
5.55446e-06
-3.95487e-07
-4.98468e-07
3.71722e-07
7.73155e-07
6.34613e-06
-7.0451e-07
1.36677e-07
9.6427e-07
7.04515e-06
-8.78787e-07
-1.73169e-07
1.03338e-06
7.39243e-06
-9.55942e-07
-4.63281e-07
1.03908e-06
7.17173e-06
-9.19365e-07
-5.81667e-07
8.61933e-07
6.49631e-06
-7.45835e-07
5.74697e-07
5.68674e-06
-5.22449e-07
-5.22812e-07
7.16394e-07
3.95734e-07
6.29961e-06
-5.94293e-07
6.4348e-07
5.57137e-07
7.51502e-06
2.35992e-07
6.19501e-07
8.87741e-06
-1.92364e-07
5.32701e-07
9.43438e-06
-7.09502e-07
7.05814e-07
9.17593e-06
-8.90165e-07
7.03749e-07
7.85121e-06
4.57107e-07
6.51658e-06
-7.65126e-07
8.66844e-07
1.39709e-07
6.89538e-06
-7.39621e-07
7.2266e-07
9.63493e-08
8.54867e-06
1.62317e-07
-8.0892e-08
1.04121e-05
-3.2793e-08
5.33199e-08
1.09542e-05
-7.92071e-07
9.7318e-08
1.09925e-05
-1.11762e-06
1.67616e-07
9.27315e-06
1.595e-07
7.21502e-06
-9.6248e-07
8.62406e-07
-1.35744e-07
7.12407e-06
-7.70896e-07
6.15061e-07
-2.58941e-07
8.81357e-06
2.5331e-07
-3.69763e-07
1.07062e-05
-1.27726e-07
-4.86535e-07
1.21359e-05
-7.84923e-07
-6.37139e-07
1.13699e-05
-1.16469e-06
-4.25429e-07
9.646e-06
-1.85054e-07
7.47596e-06
-1.02617e-06
8.01739e-07
-3.46991e-07
6.86966e-06
-7.1135e-07
6.27712e-07
-5.85921e-07
8.39777e-06
2.5178e-07
-7.40564e-07
1.00204e-05
-1.4413e-07
-7.77889e-07
1.08738e-05
-7.81616e-07
-9.16894e-07
1.05722e-05
-1.03673e-06
-7.17361e-07
8.80363e-06
-4.11386e-07
7.14e-06
-9.33717e-07
6.37462e-07
-4.33888e-07
6.28855e-06
-5.64677e-07
5.10578e-07
-6.81283e-07
7.37164e-06
1.67974e-07
-8.55265e-07
8.39335e-06
-1.83751e-07
-9.27061e-07
8.8267e-06
-6.28482e-07
-9.46537e-07
8.53901e-06
-8.287e-07
-7.70229e-07
7.60013e-06
-4.76496e-07
6.44983e-06
-7.5092e-07
4.04524e-07
5.57826e-06
-3.80404e-07
-3.99644e-07
3.04418e-07
6.30767e-06
-5.90525e-07
8.98468e-08
6.90545e-06
-7.41577e-07
-1.75364e-07
7.17265e-06
-8.07295e-07
-4.41539e-07
6.98229e-06
-7.87678e-07
-5.70579e-07
6.40591e-06
-6.3303e-07
5.67199e-06
-5.4209e-07
-4.16003e-07
3.14702e-07
4.98111e-07
5.39961e-06
-2.48313e-07
-4.1008e-07
2.54529e-07
8.12776e-07
6.21033e-06
-6.16577e-07
2.86851e-08
1.03547e-06
7.03111e-06
-7.9493e-07
-2.61562e-07
1.10008e-06
7.45705e-06
-8.74671e-07
-4.70679e-07
1.00418e-06
7.16363e-06
-7.87243e-07
-5.10282e-07
7.98382e-07
6.33945e-06
-6.01833e-07
4.96132e-07
5.48315e-06
-4.04181e-07
-3.9836e-07
6.05956e-07
4.53466e-07
6.17812e-06
-4.39591e-07
5.18932e-07
7.5302e-07
7.66243e-06
8.15446e-08
8.86217e-07
9.46453e-06
-4.07168e-07
7.94273e-07
1.02295e-05
-7.60987e-07
8.00071e-07
9.73415e-06
-8.34037e-07
7.28655e-07
7.99411e-06
4.6108e-07
6.34882e-06
-6.31382e-07
8.41718e-07
2.32697e-07
6.90825e-06
-6.33697e-07
6.10943e-07
2.97633e-07
9.23489e-06
-6.26655e-08
3.29628e-07
1.16426e-05
-4.2277e-07
3.36095e-07
1.17731e-05
-9.08563e-07
4.42995e-07
1.18352e-05
-1.09165e-06
3.96533e-07
9.78873e-06
2.47576e-07
7.17737e-06
-8.40508e-07
8.99362e-07
-6.55718e-08
7.23993e-06
-7.16796e-07
4.96295e-07
-1.57539e-07
9.67167e-06
-1.00246e-07
-1.79186e-07
1.18111e-05
-3.84304e-07
-1.25219e-07
1.28825e-05
-9.96453e-07
-1.82188e-07
1.2608e-05
-1.22687e-06
-1.02447e-07
1.03753e-05
-6.36169e-08
7.50217e-06
-9.41889e-07
8.51188e-07
-3.01831e-07
6.91476e-06
-6.6068e-07
5.84968e-07
-5.78521e-07
9.08587e-06
3.68536e-08
-6.51359e-07
1.10402e-05
-4.77013e-07
-5.98709e-07
1.18616e-05
-9.44546e-07
-6.63861e-07
1.15215e-05
-1.12055e-06
-5.69621e-07
9.44642e-06
-2.85157e-07
7.10684e-06
-8.66025e-07
6.43024e-07
-3.73928e-07
6.20456e-06
-4.87072e-07
5.37363e-07
-6.79345e-07
7.57878e-06
9.27683e-08
-9.09469e-07
9.09602e-06
-3.73851e-07
-9.66301e-07
9.66105e-06
-8.25868e-07
-9.20491e-07
9.24779e-06
-8.90232e-07
-6.70242e-07
7.76505e-06
-3.48284e-07
6.3052e-06
-6.82796e-07
3.48569e-07
5.46033e-06
-2.9051e-07
-3.14206e-07
2.71551e-07
6.22165e-06
-5.16836e-07
2.57281e-08
6.94547e-06
-7.03601e-07
-2.75318e-07
7.27949e-06
-7.72124e-07
-5.18898e-07
7.00546e-06
-7.00066e-07
-5.69872e-07
6.28382e-06
-4.97375e-07
5.50646e-06
-4.72147e-07
-2.80635e-07
-2.8342e-07
-1.0222e-08
5.31498e-06
2.90976e-07
8.72673e-08
-2.4526e-07
3.63505e-08
6.03416e-06
1.01566e-07
-1.95683e-07
9.51014e-08
6.78037e-06
1.06137e-07
-2.1944e-07
2.36403e-07
7.16908e-06
7.496e-08
-1.13535e-07
6.38101e-08
6.85684e-06
1.36499e-07
6.62085e-09
-1.68754e-08
6.09176e-06
1.44288e-07
-4.11904e-08
5.32923e-06
8.58444e-08
1.15544e-07
-3.08079e-07
1.05607e-07
6.0353e-06
3.34946e-07
-2.79022e-07
2.55324e-07
7.41446e-06
-2.98689e-07
3.25248e-07
9.25402e-06
-3.55822e-07
4.47589e-07
1.00754e-05
-2.37826e-07
2.91014e-07
9.38907e-06
-3.05196e-08
1.79308e-07
7.59069e-06
7.57473e-08
6.0953e-06
1.05873e-07
-2.25368e-07
1.81366e-07
6.75384e-06
3.03821e-07
-3.18036e-07
3.54392e-07
9.22781e-06
-3.72562e-07
5.26442e-07
1.14948e-05
-5.1167e-07
2.29917e-07
1.21304e-05
-4.58402e-07
3.78188e-07
1.16946e-05
-1.57797e-07
2.94493e-07
9.37305e-06
1.58835e-07
6.85326e-06
8.27745e-08
-7.99908e-08
1.36626e-07
7.13267e-06
2.31739e-07
-3.10541e-07
2.10486e-07
1.00466e-05
-5.18182e-07
2.97096e-07
1.22488e-05
-7.12754e-07
3.42847e-07
1.29647e-05
-5.02646e-07
3.99254e-07
1.23771e-05
-2.55579e-07
3.64323e-07
1.00581e-05
1.89125e-07
7.17832e-06
3.78772e-08
-1.26719e-07
1.30059e-07
6.81687e-06
2.30931e-07
-2.17179e-07
1.04282e-07
9.28344e-06
-4.20985e-07
1.71534e-07
1.13698e-05
-6.28459e-07
2.36796e-07
1.21752e-05
-4.77652e-07
2.76786e-07
1.14928e-05
-2.17212e-07
2.2058e-07
9.32849e-06
2.16102e-07
6.82449e-06
3.785e-08
-1.69447e-07
1.56979e-07
6.10953e-06
2.38082e-07
-1.29808e-07
1.28796e-07
7.51527e-06
-2.44483e-07
6.8413e-08
9.31368e-06
-4.28424e-07
2.92831e-09
1.0079e-05
-3.86911e-07
1.22986e-07
9.35927e-06
-1.44487e-07
2.27211e-07
7.51539e-06
2.42905e-07
6.10669e-06
2.69568e-08
-2.00538e-07
5.41603e-06
2.20903e-07
1.80628e-07
-1.71462e-07
6.12433e-06
1.97067e-07
-1.85842e-07
6.84875e-06
1.79172e-07
-2.49841e-07
7.18234e-06
1.64013e-07
-1.97204e-07
6.84738e-06
2.281e-07
-7.8503e-08
6.12165e-06
2.70455e-07
5.39887e-06
1.63068e-08
2.55778e-07
-8.61216e-07
-5.79614e-07
5.3674e-06
8.02103e-07
5.86511e-07
-7.34835e-07
-8.77368e-07
5.95801e-06
8.26997e-07
-4.30844e-07
-1.05203e-06
6.48072e-06
1.04716e-06
-7.7069e-08
-1.02946e-06
6.72544e-06
1.11878e-06
3.08941e-07
-1.08749e-06
6.47888e-06
1.07936e-06
5.25389e-07
-9.10155e-07
5.92401e-06
8.61978e-07
-5.91788e-07
5.30159e-06
5.38872e-07
6.05664e-07
-1.24562e-06
-3.85755e-07
5.99508e-06
1.09173e-06
-1.07889e-06
-5.84052e-07
6.95398e-06
-6.30342e-07
-4.5129e-07
8.20469e-06
-1.42774e-07
-3.48948e-07
8.90714e-06
4.86838e-07
-5.25198e-07
8.19761e-06
8.38393e-07
-5.97522e-07
6.92705e-06
-3.83946e-07
5.92377e-06
8.01647e-07
-1.47673e-06
-2.25006e-08
6.55962e-06
1.30767e-06
-1.11691e-06
1.50819e-08
8.26836e-06
-6.82295e-07
1.31922e-07
1.04763e-05
-4.45685e-07
8.81153e-08
1.14572e-05
3.5925e-07
1.34248e-07
1.02313e-05
1.00205e-06
-7.86399e-09
8.14126e-06
-1.1093e-08
6.46848e-06
1.01359e-06
-1.41122e-06
3.14619e-07
6.86051e-06
1.34548e-06
-1.12142e-06
5.06779e-07
9.26565e-06
-8.04626e-07
6.27551e-07
1.14374e-05
-4.81399e-07
5.98687e-07
1.21314e-05
2.08128e-07
6.04877e-07
1.12175e-05
9.66714e-07
5.24981e-07
8.76734e-06
3.58286e-07
6.71413e-06
1.06173e-06
-1.38814e-06
6.09662e-07
6.64231e-06
1.2679e-06
-1.0455e-06
9.08145e-07
8.53962e-06
-7.8543e-07
9.22548e-07
1.08159e-05
-3.93127e-07
9.54311e-07
1.14277e-05
2.78044e-07
1.00191e-06
1.04261e-05
9.65812e-07
9.89558e-07
8.17677e-06
6.72431e-07
6.49686e-06
9.79533e-07
-1.18136e-06
7.45241e-07
6.10942e-06
1.04622e-06
-1.00411e-06
1.1004e-06
7.14573e-06
-6.34897e-07
1.30086e-06
8.56636e-06
-1.91811e-07
1.31566e-06
9.27587e-06
4.43029e-07
1.38222e-06
8.34411e-06
7.83855e-07
1.16132e-06
7.00289e-06
8.09662e-07
5.99625e-06
7.57011e-07
-8.23498e-07
5.51286e-06
7.70774e-07
7.00956e-07
-6.97425e-07
6.11892e-06
9.79752e-07
-4.15365e-07
6.66452e-06
1.2036e-06
-9.07102e-08
6.89702e-06
1.27698e-06
2.81336e-07
6.61404e-06
1.2434e-06
4.87659e-07
6.04402e-06
1.03253e-06
5.42158e-06
5.09868e-07
7.64823e-07
-9.86799e-07
-6.97945e-07
9.19574e-07
6.75528e-07
5.45739e-06
-8.67013e-07
-1.09286e-06
9.48106e-07
5.98315e-06
-4.97909e-07
-1.45558e-06
1.21975e-06
6.34677e-06
-2.14493e-10
-1.56365e-06
1.32884e-06
6.46246e-06
3.9491e-07
-1.41411e-06
1.2096e-06
6.28877e-06
5.63781e-07
-1.06059e-06
9.49442e-07
5.86709e-06
-6.91571e-07
5.64843e-07
6.95418e-07
5.29666e-06
-1.43436e-06
-5.57705e-07
1.23659e-06
6.05253e-06
-1.31723e-06
-9.59554e-07
6.70354e-06
-7.01694e-07
-1.17027e-06
7.30404e-06
7.68071e-08
-1.06418e-06
7.62917e-06
7.51125e-07
-1.11589e-06
7.22499e-06
9.4272e-07
-8.59553e-07
6.53465e-06
-5.15036e-07
8.31637e-07
5.85867e-06
-1.86953e-06
-1.68486e-07
1.54183e-06
6.49867e-06
-1.70007e-06
-2.82581e-07
7.42221e-06
-1.03808e-06
-2.40338e-07
8.88484e-06
4.17435e-08
-1.66544e-07
9.4793e-06
9.78526e-07
-2.51079e-07
8.4293e-06
1.28259e-06
-2.08489e-07
7.18614e-06
-1.21432e-07
1.09143e-06
6.26544e-06
-2.0483e-06
3.51187e-07
1.68242e-06
6.70701e-06
-1.63494e-06
5.27215e-07
8.04229e-06
-1.12317e-06
8.16055e-07
9.86957e-06
-6.00573e-08
8.67998e-07
1.00329e-05
9.05494e-07
7.86513e-07
9.21318e-06
1.40497e-06
5.27372e-07
7.53132e-06
3.67169e-07
1.20022e-06
6.43014e-06
-1.92481e-06
7.60544e-07
1.57943e-06
6.57904e-06
-1.69931e-06
1.20778e-06
7.63235e-06
-1.03541e-06
1.51979e-06
9.44865e-06
1.94803e-08
1.44289e-06
9.79704e-06
9.87336e-07
1.47691e-06
8.76769e-06
1.30086e-06
1.13416e-06
7.25665e-06
7.47077e-07
1.09798e-06
6.31977e-06
-1.48997e-06
8.89682e-07
1.27042e-06
6.19955e-06
-1.35662e-06
1.3536e-06
6.86616e-06
-7.02503e-07
1.78101e-06
7.65077e-06
1.01005e-07
1.90019e-06
8.0148e-06
7.90619e-07
1.71872e-06
7.41238e-06
9.54816e-07
1.3042e-06
6.66863e-06
8.93625e-07
8.33876e-07
5.97058e-06
-1.02253e-06
9.43328e-07
8.18782e-07
5.66324e-06
-9.00035e-07
1.15313e-06
6.19731e-06
-5.01702e-07
1.46912e-06
6.57852e-06
1.59153e-08
1.58032e-06
6.69949e-06
4.15903e-07
1.44045e-06
6.49216e-06
5.68873e-07
1.14868e-06
6.04674e-06
5.62331e-07
8.56449e-07
5.46576e-06
-2.66102e-07
3.69764e-08
3.1434e-06
-2.91956e-09
-2.55078e-07
3.98085e-08
3.34027e-06
-6.60609e-09
-2.27075e-07
3.81675e-08
3.43961e-06
-9.09212e-09
-1.89272e-07
3.54646e-08
3.47048e-06
-1.08345e-08
-1.46473e-07
3.19884e-08
3.45051e-06
-1.202e-08
-1.01254e-07
2.78619e-08
3.38304e-06
-1.28823e-08
-5.37163e-08
2.25551e-08
3.23993e-06
-1.30562e-08
1.37694e-08
2.85195e-06
-1.13852e-08
-3.41749e-07
4.26766e-08
4.35746e-06
-3.14012e-07
4.99378e-08
4.39814e-06
-2.66518e-07
5.12916e-08
4.35674e-06
-2.11054e-07
4.98122e-08
4.26286e-06
-1.55284e-07
4.65209e-08
4.13324e-06
-1.02317e-07
4.16792e-08
3.96874e-06
-5.1855e-08
3.48154e-08
3.73362e-06
2.2589e-08
3.22812e-06
-3.96377e-07
2.60318e-08
5.25586e-06
-3.65408e-07
4.23309e-08
5.17934e-06
-3.07451e-07
5.06425e-08
5.02716e-06
-2.39751e-07
5.36506e-08
4.83529e-06
-1.7246e-07
5.28767e-08
4.62142e-06
-1.10033e-07
4.94201e-08
4.38435e-06
-5.31656e-08
4.3294e-08
4.08235e-06
3.12192e-08
3.49253e-06
-4.15072e-07
2.68573e-09
5.58548e-06
-3.85608e-07
2.84619e-08
5.46777e-06
-3.25915e-07
4.36176e-08
5.2773e-06
-2.53468e-07
5.04133e-08
5.05183e-06
-1.80945e-07
5.221e-08
4.80968e-06
-1.13767e-07
5.08596e-08
4.54882e-06
-5.3936e-08
4.69532e-08
4.22525e-06
3.80181e-08
3.60739e-06
-3.87138e-07
-1.25061e-09
5.23528e-06
-3.60556e-07
2.33775e-08
5.17379e-06
-3.05484e-07
3.86076e-08
5.03587e-06
-2.38948e-07
4.60246e-08
4.85692e-06
-1.7198e-07
4.88749e-08
4.65444e-06
-1.09342e-07
4.88378e-08
4.42709e-06
-5.274e-08
4.66325e-08
4.13313e-06
4.03349e-08
3.54918e-06
-3.39321e-07
1.5688e-08
4.33903e-06
-3.14208e-07
2.93287e-08
4.40078e-06
-2.67321e-07
3.93743e-08
4.38109e-06
-2.12026e-07
4.44425e-08
4.30792e-06
-1.5584e-07
4.59802e-08
4.19713e-06
-1.01867e-07
4.5238e-08
4.04901e-06
-5.05555e-08
4.28271e-08
3.82752e-06
3.68871e-08
3.33164e-06
-2.73149e-07
3.14327e-06
4.31713e-08
-2.58705e-07
3.35966e-06
4.70572e-08
-2.27182e-07
3.48139e-06
4.77074e-08
-1.8658e-07
3.53505e-06
4.60308e-08
-1.42428e-07
3.53677e-06
4.30259e-08
-9.72218e-08
3.48887e-06
3.91317e-08
-5.08088e-08
3.36245e-06
3.41149e-08
2.98558e-06
2.57244e-08
-4.96576e-07
6.51517e-08
3.05563e-06
-3.39536e-09
-4.41691e-07
5.56183e-08
3.236e-06
-6.32089e-09
-3.75137e-07
4.73021e-08
3.33309e-06
-7.34411e-09
-3.05005e-07
3.96575e-08
3.36876e-06
-8.03188e-09
-2.33508e-07
3.16005e-08
3.3558e-06
-8.40906e-09
-1.60803e-07
2.43098e-08
3.2946e-06
-8.72155e-09
-8.45933e-08
1.70631e-08
3.15457e-06
-8.36617e-09
7.27955e-09
2.76584e-06
-6.11787e-09
-6.88078e-07
8.19463e-08
4.26365e-06
-5.77704e-07
7.26467e-08
4.27059e-06
-4.62917e-07
6.59519e-08
4.22341e-06
-3.56569e-07
5.92319e-08
4.13686e-06
-2.60435e-07
5.01029e-08
4.01861e-06
-1.72389e-07
4.07296e-08
3.86441e-06
-8.77656e-08
3.05802e-08
3.63526e-06
1.61391e-08
3.13136e-06
-8.59255e-07
5.37813e-08
5.18095e-06
-7.13609e-07
6.20635e-08
5.04416e-06
-5.61959e-07
6.42177e-08
4.87719e-06
-4.22085e-07
6.22115e-08
4.69222e-06
-2.99713e-07
5.61368e-08
4.49258e-06
-1.92396e-07
4.85413e-08
4.26904e-06
-9.43032e-08
3.93743e-08
3.97559e-06
2.53963e-08
3.38903e-06
-9.23682e-07
1.16613e-08
5.52517e-06
-7.69119e-07
3.9981e-08
5.33536e-06
-6.05007e-07
5.1618e-08
5.12541e-06
-4.51063e-07
5.36747e-08
4.90623e-06
-3.1653e-07
5.21105e-08
4.67903e-06
-2.00282e-07
4.83505e-08
4.43258e-06
-9.6634e-08
4.28715e-08
4.11807e-06
3.32691e-08
3.50332e-06
-8.49361e-07
-3.82475e-09
5.16642e-06
-7.1239e-07
2.75788e-08
5.04877e-06
-5.64305e-07
4.22352e-08
4.8968e-06
-4.25418e-07
4.6623e-08
4.72452e-06
-3.02462e-07
4.78394e-08
4.53545e-06
-1.93772e-07
4.66152e-08
4.32048e-06
-9.46249e-08
4.35787e-08
4.03369e-06
3.69999e-08
3.451e-06
-6.89347e-07
1.54762e-08
4.25821e-06
-5.86302e-07
3.42318e-08
4.29098e-06
-4.73275e-07
4.38784e-08
4.26657e-06
-3.66078e-07
4.72773e-08
4.20015e-06
-2.68002e-07
4.7566e-08
4.09922e-06
-1.77099e-07
4.57091e-08
3.9594e-06
-8.90618e-08
4.23626e-08
3.74157e-06
3.57343e-08
3.24399e-06
-5.17039e-07
3.07159e-06
6.19324e-08
-4.60358e-07
3.27545e-06
6.14652e-08
-3.89022e-07
3.39642e-06
5.7646e-08
-3.13751e-07
3.45461e-06
5.24807e-08
-2.38382e-07
3.46185e-06
4.69658e-08
-1.63259e-07
3.418e-06
4.13394e-08
-8.52037e-08
3.29182e-06
3.51868e-08
2.91003e-06
2.62255e-08
-3.5491e-07
5.38929e-08
2.95034e-06
1.76904e-09
-2.93851e-07
3.93546e-08
3.13567e-06
2.7658e-10
-2.37131e-07
3.14985e-08
3.246e-06
-1.00445e-09
-1.87698e-07
2.53708e-08
3.29537e-06
-1.17263e-09
-1.42192e-07
1.75884e-08
3.29359e-06
-1.148e-09
-9.80623e-08
1.11636e-08
3.23982e-06
-8.14029e-10
-5.18243e-08
4.87583e-09
3.10269e-06
2.27751e-10
-3.28692e-09
2.71396e-06
2.76427e-09
-5.12008e-07
8.55114e-08
4.1126e-06
-3.93172e-07
6.55034e-08
4.12549e-06
-2.93813e-07
5.60401e-08
4.09974e-06
-2.16851e-07
4.913e-08
4.03601e-06
-1.55177e-07
3.7982e-08
3.93651e-06
-1.025e-07
2.76829e-08
3.79506e-06
-5.27091e-08
1.74065e-08
3.57255e-06
3.24191e-09
3.07228e-06
-6.70457e-07
8.85051e-08
5.00804e-06
-5.06069e-07
7.78579e-08
4.86682e-06
-3.67643e-07
7.05064e-08
4.72417e-06
-2.57267e-07
6.23244e-08
4.56878e-06
-1.73091e-07
5.12958e-08
4.3953e-06
-1.07088e-07
4.06455e-08
4.18974e-06
-5.01703e-08
2.99598e-08
3.90625e-06
1.60996e-08
3.32592e-06
-7.49534e-07
7.04061e-08
5.35102e-06
-5.62971e-07
7.67847e-08
5.1499e-06
-4.0455e-07
7.26485e-08
4.96434e-06
-2.77742e-07
6.36718e-08
4.77798e-06
-1.8191e-07
5.58958e-08
4.57897e-06
-1.08765e-07
4.81241e-08
4.35217e-06
-4.91254e-08
4.02482e-08
4.0485e-06
2.99486e-08
3.44024e-06
-6.95402e-07
6.03442e-08
5.00525e-06
-5.26157e-07
7.36954e-08
4.88193e-06
-3.81372e-07
7.12917e-08
4.7534e-06
-2.66714e-07
6.31888e-08
4.6104e-06
-1.79121e-07
5.75246e-08
4.44591e-06
-1.10028e-07
5.17199e-08
4.24772e-06
-5.16159e-08
4.5671e-08
3.96958e-06
3.78518e-08
3.3912e-06
-5.56798e-07
6.60552e-08
4.12604e-06
-4.29239e-07
7.30081e-08
4.16368e-06
-3.20312e-07
6.98378e-08
4.15926e-06
-2.34108e-07
6.34828e-08
4.11402e-06
-1.65308e-07
5.7876e-08
4.03002e-06
-1.0736e-07
5.18703e-08
3.90098e-06
-5.34678e-08
4.57381e-08
3.68754e-06
3.75828e-08
3.19039e-06
-4.07955e-07
2.98568e-06
8.77864e-08
-3.3275e-07
3.19472e-06
7.86921e-08
-2.62974e-07
3.32762e-06
6.91143e-08
-2.0323e-07
3.39782e-06
6.03917e-08
-1.50459e-07
3.41431e-06
5.26985e-08
-1.01941e-07
3.37564e-06
4.57287e-08
-5.29647e-08
3.24977e-06
3.88974e-08
2.86432e-06
2.99702e-08
1.20266e-07
3.87564e-10
2.90256e-06
1.3061e-08
1.39321e-07
-4.86571e-09
3.11057e-06
1.12111e-08
1.3929e-07
-3.56301e-09
3.23922e-06
1.07813e-08
1.27391e-07
-5.15659e-09
3.30169e-06
1.05738e-08
1.07195e-07
-6.44172e-09
3.3089e-06
1.0785e-08
8.1536e-08
-7.98849e-09
3.26121e-06
1.16395e-08
5.0558e-08
-1.05689e-08
3.13042e-06
1.32299e-08
-1.53679e-08
2.76367e-06
1.60672e-08
1.66323e-07
4.32434e-08
4.00935e-06
1.92043e-07
2.79829e-08
4.06747e-06
1.8814e-07
2.54333e-08
4.07501e-06
1.67212e-07
1.82586e-08
4.03363e-06
1.36632e-07
1.20284e-08
3.94889e-06
1.0027e-07
5.90279e-09
3.81747e-06
5.91684e-08
-9.14509e-10
3.60402e-06
-1.08717e-08
3.12753e-06
1.85301e-07
9.4092e-08
4.8547e-06
2.28751e-07
7.35315e-08
4.77758e-06
2.34305e-07
6.13274e-08
4.68269e-06
2.14681e-07
4.81886e-08
4.55992e-06
1.78779e-07
3.68317e-08
4.40664e-06
1.32397e-07
2.67872e-08
4.21492e-06
7.79334e-08
1.72111e-08
3.94286e-06
5.56223e-09
3.387e-06
1.70762e-07
1.29026e-07
5.18354e-06
2.31905e-07
1.10282e-07
5.05239e-06
2.49064e-07
8.88976e-08
4.9197e-06
2.33621e-07
7.2824e-08
4.76892e-06
1.97562e-07
5.92082e-08
4.59279e-06
1.47888e-07
4.76083e-08
4.38107e-06
8.66331e-08
3.75276e-08
4.08929e-06
2.68105e-08
3.50503e-06
1.54324e-07
1.49865e-07
4.86773e-06
2.10717e-07
1.31025e-07
4.8049e-06
2.25636e-07
1.05699e-07
4.72224e-06
2.1181e-07
8.77389e-08
4.60972e-06
1.79286e-07
7.26493e-08
4.46479e-06
1.34367e-07
6.02571e-08
4.2795e-06
7.85496e-08
5.01339e-08
4.01174e-06
4.04876e-08
3.45607e-06
1.17697e-07
1.39672e-07
4.04543e-06
1.64043e-07
1.23744e-07
4.12471e-06
1.75438e-07
1.02727e-07
4.15091e-06
1.65039e-07
8.62975e-08
4.12587e-06
1.4028e-07
7.23692e-08
4.05492e-06
1.05692e-07
6.08266e-08
3.93453e-06
6.31944e-08
5.11472e-08
3.72873e-06
4.14384e-08
3.25257e-06
7.87972e-08
2.95742e-06
1.05697e-07
1.19079e-07
3.18802e-06
9.05001e-08
1.33566e-07
3.33751e-06
7.81258e-08
1.29895e-07
3.41912e-06
6.82794e-08
1.13549e-07
3.4431e-06
6.00566e-08
8.80957e-08
3.40928e-06
5.29748e-08
5.45525e-08
3.28832e-06
4.6375e-08
2.92166e-06
3.82755e-08
5.54759e-07
-6.67301e-08
2.92232e-06
3.05368e-08
5.43287e-07
-5.56138e-08
3.14784e-06
2.95646e-08
5.14592e-07
-4.84279e-08
3.28678e-06
2.90836e-08
4.68856e-07
-4.3652e-08
3.36169e-06
2.87373e-08
3.98308e-07
-3.80419e-08
3.38812e-06
2.91953e-08
2.96475e-07
-3.51656e-08
3.36787e-06
3.04922e-08
1.64629e-07
-3.51452e-08
3.26543e-06
3.23918e-08
-3.776e-08
2.93175e-06
3.49749e-08
7.75134e-07
-2.85744e-08
3.99745e-06
7.13956e-07
-2.18015e-08
4.09472e-06
6.41367e-07
-2.06691e-08
4.11939e-06
5.62853e-07
-2.34717e-08
4.09165e-06
4.69166e-07
-2.19903e-08
4.02654e-06
3.4873e-07
-2.23329e-08
3.92496e-06
1.97394e-07
-2.54045e-08
3.74581e-06
-3.16678e-08
3.31916e-06
9.77247e-07
6.47324e-08
4.79724e-06
8.92344e-07
5.0139e-08
4.79027e-06
7.91436e-07
3.67998e-08
4.72607e-06
6.82241e-07
2.44213e-08
4.62121e-06
5.6225e-07
1.67496e-08
4.48791e-06
4.17446e-07
1.00073e-08
4.32758e-06
2.37777e-07
3.14824e-09
4.09417e-06
-5.6321e-09
3.59849e-06
1.04339e-06
1.557e-07
5.11088e-06
9.60759e-07
1.2162e-07
5.06321e-06
8.54618e-07
9.5295e-08
4.96735e-06
7.35404e-07
7.74532e-08
4.83521e-06
6.04503e-07
6.11436e-08
4.67944e-06
4.48355e-07
4.80633e-08
4.49942e-06
2.54958e-07
3.76224e-08
4.24771e-06
2.76306e-08
3.72654e-06
9.6196e-07
2.11276e-07
4.8298e-06
8.88604e-07
1.67054e-07
4.83307e-06
7.93848e-07
1.34134e-07
4.77825e-06
6.8882e-07
1.11634e-07
4.68086e-06
5.69866e-07
9.04275e-08
4.55478e-06
4.23469e-07
7.41151e-08
4.39976e-06
2.4007e-07
6.22449e-08
4.17005e-06
5.21299e-08
3.67228e-06
7.58881e-07
1.94952e-07
4.05998e-06
7.1535e-07
1.61039e-07
4.17455e-06
6.52829e-07
1.32757e-07
4.21474e-06
5.79064e-07
1.10865e-07
4.2005e-06
4.85951e-07
9.19109e-08
4.14682e-06
3.62403e-07
7.76004e-08
4.05456e-06
2.04492e-07
6.70033e-08
3.88217e-06
5.75547e-08
3.45197e-06
5.50905e-07
2.999e-06
1.12395e-07
5.55987e-07
3.24581e-06
9.83071e-08
5.34702e-07
3.40367e-06
8.75513e-08
4.90626e-07
3.49546e-06
7.89116e-08
4.18085e-07
3.53659e-06
7.16435e-08
3.11275e-07
3.52871e-06
6.54329e-08
1.71617e-07
3.43551e-06
5.97033e-08
3.09794e-06
5.24858e-08
6.42973e-07
-1.06265e-07
6.1028e-08
2.8892e-06
7.34101e-07
-8.93259e-08
6.0676e-08
3.08548e-06
8.33924e-07
-7.75801e-08
5.89953e-08
3.20522e-06
9.20609e-07
-6.58264e-08
5.82542e-08
3.28257e-06
9.65253e-07
-5.51352e-08
5.82553e-08
3.3407e-06
9.22305e-07
-4.63566e-08
5.9177e-08
3.39812e-06
6.86468e-07
-3.81791e-08
6.03982e-08
3.47932e-06
-2.91951e-08
6.12498e-08
3.58672e-06
8.31903e-07
-7.764e-08
3.96902e-06
8.60643e-07
-5.87159e-08
4.0355e-06
9.24139e-07
-5.16721e-08
4.02973e-06
9.96087e-07
-4.24936e-08
3.99639e-06
1.03919e-06
-3.36343e-08
3.96179e-06
9.98467e-07
-2.6353e-08
3.94519e-06
7.51615e-07
-1.99872e-08
3.9739e-06
-1.33643e-08
4.05532e-06
1.03661e-06
2.19163e-08
4.75228e-06
1.01609e-06
2.01744e-08
4.73228e-06
1.04166e-06
1.409e-08
4.63499e-06
1.09098e-06
1.0445e-08
4.51781e-06
1.12407e-06
8.66087e-09
4.41252e-06
1.07755e-06
7.70628e-09
4.34018e-06
8.13956e-07
7.23089e-09
4.33019e-06
6.8485e-09
4.39215e-06
1.13003e-06
1.45331e-07
5.05745e-06
1.08936e-06
1.13335e-07
5.01051e-06
1.09717e-06
9.19606e-08
4.88196e-06
1.13405e-06
7.37897e-08
4.73491e-06
1.16045e-06
5.8464e-08
4.60441e-06
1.10893e-06
4.67124e-08
4.51216e-06
8.38062e-07
3.76767e-08
4.48846e-06
2.89215e-08
4.54279e-06
1.04887e-06
2.22851e-07
4.80171e-06
1.02772e-06
1.76604e-07
4.79172e-06
1.05074e-06
1.45389e-07
4.70182e-06
1.09719e-06
1.18011e-07
4.58987e-06
1.12746e-06
9.45053e-08
4.48841e-06
1.07862e-06
7.61712e-08
4.41871e-06
8.14714e-07
6.14806e-08
4.4101e-06
4.62613e-08
4.46971e-06
8.44232e-07
2.15439e-07
4.05718e-06
8.7545e-07
1.78909e-07
4.14129e-06
9.36845e-07
1.50514e-07
4.14809e-06
1.00539e-06
1.25871e-07
4.12392e-06
1.04518e-06
1.0527e-07
4.09643e-06
1.00204e-06
8.86799e-08
4.08527e-06
7.54593e-07
7.40484e-08
4.11724e-06
5.74644e-08
4.1953e-06
6.51783e-07
1.32831e-07
2.99199e-06
7.45939e-07
1.21088e-07
3.20905e-06
8.43432e-07
1.11479e-07
3.34443e-06
9.26556e-07
1.03689e-07
3.4345e-06
9.67902e-07
9.75033e-08
3.50319e-06
9.23587e-07
9.26509e-08
3.56918e-06
6.88432e-07
8.84835e-08
3.65615e-06
8.26397e-08
3.761e-06
-1.44987e-07
2.02498e-08
3.07886e-06
-5.26888e-09
-1.40934e-07
1.08273e-08
3.2986e-06
-2.02558e-09
-1.25242e-07
3.40256e-09
3.42373e-06
-3.07609e-10
-1.03419e-07
-2.64829e-09
3.47992e-06
1.18164e-09
-7.91379e-08
-6.12298e-09
3.4821e-06
2.24826e-09
-5.44443e-08
-7.88636e-09
3.43231e-06
2.81447e-09
-2.92577e-08
-8.07434e-09
3.30211e-06
2.53882e-09
-5.71174e-09
2.92037e-06
6.77086e-10
-1.86032e-07
1.85301e-08
4.22117e-06
-1.74396e-07
3.77853e-09
4.2944e-06
-1.4798e-07
-5.10937e-09
4.28672e-06
-1.16642e-07
-1.11506e-08
4.22285e-06
-8.46939e-08
-1.40565e-08
4.117e-06
-5.53507e-08
-1.42538e-08
3.96914e-06
-2.83326e-08
-1.2217e-08
3.74426e-06
-6.94262e-09
3.24279e-06
-2.10439e-07
3.97411e-09
5.05696e-06
-2.02782e-07
-1.19312e-08
5.01805e-06
-1.73056e-07
-2.11376e-08
4.90244e-06
-1.35446e-07
-2.48178e-08
4.74087e-06
-9.7214e-08
-2.5068e-08
4.54875e-06
-6.21181e-08
-2.23496e-08
4.32457e-06
-3.06406e-08
-1.71697e-08
4.02826e-06
-7.85558e-09
3.43901e-06
-2.2843e-07
-1.98804e-08
5.37071e-06
-2.21464e-07
-3.26635e-08
5.28299e-06
-1.90751e-07
-3.83717e-08
5.12089e-06
-1.50018e-07
-3.83124e-08
4.91721e-06
-1.07906e-07
-3.5031e-08
4.68838e-06
-6.86154e-08
-2.90768e-08
4.43225e-06
-3.36319e-08
-2.07258e-08
4.107e-06
-7.13677e-09
3.48443e-06
-2.45639e-07
-4.70784e-08
5.05708e-06
-2.29891e-07
-5.37091e-08
5.00572e-06
-1.95317e-07
-5.28868e-08
4.87788e-06
-1.537e-07
-4.79752e-08
4.70476e-06
-1.11796e-07
-4.08245e-08
4.50194e-06
-7.24575e-08
-3.22225e-08
4.26832e-06
-3.64352e-08
-2.18253e-08
3.96413e-06
-6.29886e-09
3.36979e-06
-2.2892e-07
-5.63115e-08
4.21385e-06
-2.11756e-07
-5.81776e-08
4.26782e-06
-1.81603e-07
-5.32431e-08
4.24009e-06
-1.45417e-07
-4.60186e-08
4.1565e-06
-1.08667e-07
-3.76389e-08
4.03206e-06
-7.2966e-08
-2.86933e-08
3.86753e-06
-3.78887e-08
-1.85236e-08
3.62855e-06
-4.7966e-09
3.11787e-06
-1.80393e-07
3.05945e-06
-3.39988e-08
-1.7844e-07
3.25908e-06
-3.56392e-08
-1.63036e-07
3.36188e-06
-3.43935e-08
-1.38478e-07
3.39483e-06
-3.13051e-08
-1.09199e-07
3.37452e-06
-2.71264e-08
-7.68832e-08
3.30401e-06
-2.20392e-08
-4.15075e-08
3.15598e-06
-1.57437e-08
2.76288e-06
-6.36776e-09
-3.66038e-07
4.3335e-08
3.02855e-06
-7.36487e-09
-3.25848e-07
2.53615e-08
3.23798e-06
-5.3354e-09
-2.73358e-07
1.30041e-08
3.36286e-06
-3.62676e-09
-2.18111e-07
4.46128e-09
3.4228e-06
-2.46857e-09
-1.63371e-07
7.78796e-11
3.42928e-06
-1.69189e-09
-1.10632e-07
-1.33514e-09
3.38247e-06
-1.77358e-09
-5.7568e-08
-2.79441e-10
3.25187e-06
-2.7491e-09
3.0901e-09
2.86505e-06
-5.20251e-09
-5.11762e-07
3.96109e-08
4.17275e-06
-4.28838e-07
1.39179e-08
4.22257e-06
-3.407e-07
7.99367e-10
4.21065e-06
-2.59597e-07
-5.45916e-09
4.15131e-06
-1.86574e-07
-7.87398e-09
4.05208e-06
-1.21711e-07
-6.92927e-09
3.90955e-06
-6.09481e-08
-3.57805e-09
3.68623e-06
3.51313e-09
3.18156e-06
-6.42048e-07
-8.31892e-10
5.02851e-06
-5.34612e-07
-1.88398e-08
4.94317e-06
-4.19862e-07
-2.62873e-08
4.81447e-06
-3.14127e-07
-2.67676e-08
4.656e-06
-2.21737e-07
-2.37526e-08
4.47208e-06
-1.41756e-07
-1.808e-08
4.25547e-06
-6.9355e-08
-1.0381e-08
3.96266e-06
1.22779e-09
3.37182e-06
-6.96863e-07
-5.77563e-08
5.3529e-06
-5.80525e-07
-5.90508e-08
5.20613e-06
-4.56026e-07
-5.56049e-08
5.02587e-06
-3.39514e-07
-4.89986e-08
4.82437e-06
-2.39012e-07
-4.02177e-08
4.60425e-06
-1.52313e-07
-2.97803e-08
4.3568e-06
-7.39855e-08
-1.77497e-08
4.03611e-06
-1.11553e-09
3.41278e-06
-6.61205e-07
-1.01505e-07
5.02224e-06
-5.47498e-07
-8.94853e-08
4.92204e-06
-4.31394e-07
-7.50652e-08
4.78064e-06
-3.24788e-07
-6.17298e-08
4.61066e-06
-2.32112e-07
-4.79838e-08
4.41674e-06
-1.5016e-07
-3.46704e-08
4.1914e-06
-7.41868e-08
-2.07815e-08
3.89154e-06
-2.5929e-09
3.29672e-06
-5.33985e-07
-1.01436e-07
4.15323e-06
-4.47935e-07
-8.78792e-08
4.18074e-06
-3.60429e-07
-7.11401e-08
4.1481e-06
-2.78958e-07
-5.58924e-08
4.06935e-06
-2.05918e-07
-4.18643e-08
3.95238e-06
-1.37641e-07
-2.93782e-08
3.79429e-06
-7.06681e-08
-1.70283e-08
3.55823e-06
-2.03375e-09
3.04639e-06
-3.82987e-07
2.99541e-06
-4.99302e-08
-3.46491e-07
3.18197e-06
-4.73066e-08
-2.97315e-07
3.28326e-06
-4.1608e-08
-2.43678e-07
3.31999e-06
-3.50786e-08
-1.87924e-07
3.30462e-06
-2.8453e-08
-1.30053e-07
3.23825e-06
-2.15293e-08
-6.89626e-08
3.09146e-06
-1.38803e-08
2.69589e-06
-3.96141e-09
-2.45633e-07
2.53997e-08
2.96925e-06
-1.11424e-08
-1.91505e-07
1.01729e-08
3.18314e-06
-9.95161e-09
-1.42189e-07
4.69612e-09
3.31886e-06
-9.23297e-09
-1.02257e-07
2.27508e-09
3.38927e-06
-8.7598e-09
-7.011e-08
2.13378e-09
3.4037e-06
-8.68281e-09
-4.40905e-08
4.32805e-09
3.36161e-06
-9.58087e-09
-2.12161e-08
8.13938e-09
3.23197e-06
-1.11739e-08
1.41172e-08
2.84363e-06
-1.40088e-08
-3.82393e-07
6.36015e-09
4.08746e-06
-2.81038e-07
-9.01697e-09
4.13997e-06
-1.96555e-07
-1.31511e-08
4.14411e-06
-1.33824e-07
-1.1169e-08
4.10173e-06
-8.72087e-08
-8.15648e-09
4.01579e-06
-5.19313e-08
-2.92921e-09
3.88182e-06
-2.32903e-08
3.89453e-09
3.66216e-06
1.33967e-08
3.15913e-06
-5.17286e-07
-4.26858e-08
4.93465e-06
-3.77171e-07
-4.53198e-08
4.83893e-06
-2.61715e-07
-4.15448e-08
4.72677e-06
-1.74229e-07
-3.29701e-08