/*--------------------------------*- C++ -*----------------------------------*\
| =========                 |                                                 |
| \\      /  F ield         | OpenFOAM: The Open Source CFD Toolbox           |
|  \\    /   O peration     | Version:  plus.master.MPPICInterFoam            |
|   \\  /    A nd           | Web:      www.OpenFOAM.com                      |
|    \\/     M anipulation  |                                                 |
\*---------------------------------------------------------------------------*/
FoamFile
{
    version     2.0;
    format      ascii;
    class       scalarField;
    location    "7.6/lagrangian/kinematicCloud";
    object      age;
}
// * * * * * * * * * * * * * * * * * * * * * * * * * * * * * * * * * * * * * //


2962
(
7.55663
7.47984
7.5318
7.37171
7.34156
7.25611
7.42376
7.49302
7.3232
7.59962
7.58975
7.48081
7.59195
7.50798
7.34533
7.55683
7.43995
7.51619
7.34484
7.40619
7.17038
7.44984
7.31785
7.4844
7.4535
7.52757
7.57049
7.51857
7.56485
7.28652
7.41826
7.34289
7.32417
7.37186
7.57898
7.51854
7.46732
7.40932
7.54335
7.51206
7.58169
7.29621
7.59808
7.51723
7.37156
7.58492
7.47256
7.5194
7.40848
7.31612
7.14678
7.57332
7.49344
7.51096
7.52029
7.37886
7.46879
7.19228
7.52433
7.49551
7.56504
7.56197
7.44008
7.46659
7.43926
7.55618
7.48837
7.41545
7.26799
7.59013
7.48685
7.33672
7.54367
7.59847
7.30267
7.47281
7.35323
7.54064
7.39766
7.50017
7.42064
7.51604
7.59124
7.59125
7.41034
7.48657
7.39243
7.3339
7.51247
7.51925
7.585
7.58815
7.46876
7.47843
7.25725
7.52474
7.43174
7.35015
7.48104
7.50995
7.53131
7.45908
7.47375
7.48863
7.56383
7.53699
7.47739
7.51824
7.43128
7.50592
7.43043
7.59903
7.29948
7.48833
7.5937
7.59145
7.36165
7.48842
7.5543
7.56651
7.52777
7.32003
7.40026
7.51774
7.37445
7.49991
7.59773
7.5903
7.56525
7.59102
7.58526
7.55616
7.53022
7.46374
7.13696
7.59885
7.57273
7.37152
7.4788
7.52772
7.57045
7.37344
7.43249
7.2346
7.51957
7.54378
7.5957
7.44547
7.57571
7.5777
7.51281
7.55002
7.46997
7.42976
7.18519
7.45029
7.37344
7.56991
7.55745
7.58772
7.57313
7.57209
7.42051
7.4204
7.59394
7.39814
7.55588
7.54695
7.39101
7.52314
7.44475
7.51871
7.37784
7.45905
7.56975
7.54727
7.39075
7.34413
7.40512
7.5577
7.58206
7.39538
7.40805
7.47083
7.40579
7.53819
7.58483
7.53299
7.21911
7.52738
7.51048
7.4711
7.50223
7.54262
7.54425
7.55301
7.47457
7.47422
7.46756
7.49015
7.43939
7.38251
7.59888
7.44447
7.57075
7.54739
7.59608
7.43918
7.16196
7.11528
7.48157
7.51936
7.39457
7.49168
7.2286
7.5184
7.49374
7.56407
7.58089
7.57665
7.51252
7.52588
7.45048
7.3641
7.37913
7.3495
7.57887
7.47866
7.55801
7.33206
7.59833
7.41039
7.47041
7.51754
7.47899
7.55046
7.30562
7.58357
7.58912
7.27477
7.39135
7.58228
7.38643
7.56268
7.58817
7.57036
7.58552
7.35318
7.13944
7.37957
7.09559
7.57979
7.44208
7.60013
7.56096
7.57171
7.55693
7.51004
7.47884
7.43938
7.51452
7.57757
7.45428
7.55132
7.4098
7.53679
7.40668
7.58075
7.54692
7.56848
7.3687
7.40994
7.32848
7.47969
7.58888
7.19119
7.29849
7.53011
7.25944
7.53711
7.49823
7.57778
7.33366
7.38107
7.42288
7.34423
7.36242
7.43697
7.51762
7.56542
7.20214
7.1256
7.40553
7.46949
7.33999
7.43289
7.21306
7.26855
7.49813
7.49212
7.29533
7.39082
7.58162
7.54457
7.48901
7.44919
7.21015
7.46627
7.50781
7.5989
7.58174
7.58113
7.24771
7.52264
7.52845
7.4949
7.23934
7.32404
7.45951
7.15508
7.28883
7.59367
7.35238
7.37865
7.47139
7.45131
7.51994
7.48266
7.48824
7.49926
7.55638
7.5478
7.47851
7.57666
7.09664
7.37206
7.58283
7.44857
7.33482
7.46047
7.35239
7.4409
7.38108
7.36657
7.47591
7.56513
7.21945
7.57061
7.50234
7.4198
7.23197
7.41066
7.51956
7.51807
7.42096
7.57106
7.34497
7.52763
7.54704
7.54871
7.54465
7.38114
7.22857
7.29949
7.53755
7.38288
7.43592
7.53753
7.2703
7.43944
7.56421
7.18118
7.35578
7.38005
7.46995
7.39191
7.55816
7.59937
7.45922
7.21457
7.56672
7.41726
7.59616
7.52017
7.43918
7.36196
7.50795
7.56996
7.41831
7.40982
7.42947
7.54325
7.55861
7.46109
7.27462
7.19287
7.5669
7.22861
7.59236
7.42075
7.29835
7.45939
7.52739
7.29675
7.55242
7.40008
7.30962
7.58495
7.48512
7.25757
7.57456
7.22579
7.33526
7.50999
7.59893
7.56918
7.45952
7.53738
7.55918
7.57968
7.36717
7.45421
7.26057
7.27638
7.52528
7.48623
7.49239
7.32423
7.46112
7.4981
7.57699
7.43313
7.42948
7.36812
7.46907
7.52139
7.3367
7.58029
7.46856
7.53837
7.58491
7.49827
7.50435
7.56656
7.46856
7.53975
7.56169
7.28493
7.56402
7.2585
7.5813
7.32519
7.52302
7.57613
7.41288
7.56389
7.53187
7.44007
7.41122
7.33898
7.52078
7.56518
7.56906
7.5781
7.54776
7.28981
7.34605
7.28578
7.35264
7.51336
7.55626
7.40022
7.13775
7.44897
7.37148
7.4098
7.5484
7.3289
7.1334
7.35521
7.52073
7.58947
7.32188
7.581
7.36654
7.54209
7.47207
7.58669
7.4098
7.14341
7.30816
7.58098
7.58996
7.5108
7.56432
7.43701
7.49151
7.21121
7.34436
7.39048
7.40044
7.43971
7.59908
7.4839
7.49746
7.51803
7.24774
7.21112
7.56394
7.57657
7.22512
7.58492
7.22069
7.50965
7.47073
7.59589
7.29898
7.53857
7.16298
7.58107
7.46775
7.43984
7.58607
7.47565
7.01906
7.14252
7.48519
7.32611
7.59374
7.21605
7.13635
7.37269
7.40302
7.26315
7.27629
7.58869
7.2773
7.51064
7.49419
7.38096
7.54992
7.56228
7.33128
7.32472
7.50773
7.1757
7.52979
7.52006
7.49987
7.20551
7.37706
7.3172
7.47937
7.26755
7.54388
7.57046
7.53156
7.53795
7.44898
7.31757
7.55621
7.54476
7.38376
7.5764
7.40982
7.53543
7.42743
7.41983
7.47232
7.49102
7.47393
7.5373
7.52768
7.48462
7.52317
7.18935
7.18478
7.33859
7.55505
7.48894
7.0294
7.45283
7.49906
7.38438
7.56389
7.46006
7.60021
7.58878
7.5598
7.58971
7.53536
7.60072
7.4184
7.51766
7.56435
7.55323
7.33377
7.23528
7.4686
7.22149
7.52816
7.52733
7.58491
7.4531
7.28272
7.46176
7.51013
7.27205
7.35581
7.57287
7.3299
7.59495
7.16411
7.47029
7.25776
7.59378
7.59391
7.40212
7.50037
7.43956
7.2286
7.4714
7.57902
7.391
7.47081
7.4349
7.25268
7.43998
7.45939
7.22894
7.59123
7.40471
7.59127
7.4
7.40025
7.31857
7.31829
7.23741
7.05016
7.5584
7.48449
7.54744
7.54087
7.40669
7.45802
7.5731
7.54767
7.07932
7.57675
7.30007
7.34549
7.29883
7.58089
7.40988
7.4884
7.53953
7.38522
7.43019
7.54739
7.46861
7.28655
7.39793
7.33333
7.5374
7.55256
7.48165
7.23165
7.59654
7.57776
7.41559
7.41166
7.42932
7.56743
7.36506
7.46875
7.56681
7.27516
7.30398
7.55845
7.52251
7.5287
7.51621
7.29649
7.50349
7.48871
7.59851
7.59183
7.58559
7.57146
7.163
7.56391
7.57662
7.5916
7.43666
7.47865
7.52614
7.4199
7.14344
7.57539
7.58849
7.19524
7.58179
7.50838
7.57378
7.47001
7.44299
7.39083
7.47324
7.57045
7.44712
7.41965
7.50775
7.43153
7.59546
7.44318
7.35377
7.55738
7.53416
7.08713
7.47886
7.43919
7.53414
7.23891
7.2381
7.4106
7.53765
7.51766
7.47943
7.44514
7.36129
7.58739
7.43818
7.35006
7.48362
7.34293
7.57306
7.35593
7.42476
7.58403
7.32383
7.44401
7.35294
7.43084
7.37189
7.4059
7.54693
7.4947
7.43067
7.27767
7.56931
7.28474
7.40911
7.35173
7.50596
7.37074
7.59383
7.26999
7.59739
7.38138
7.50433
7.2362
7.47844
7.54927
7.44505
7.30075
7.3862
7.59397
7.22333
7.59154
7.37017
7.58097
7.36423
7.45026
7.44684
7.59451
7.56474
7.52758
7.1347
7.56468
7.47034
7.54751
7.58675
7.37143
7.49921
7.43833
7.55032
7.45148
7.4982
7.38348
7.21039
7.21937
7.17184
7.20853
7.54691
7.38206
7.44902
7.59764
7.46597
7.38339
7.0788
7.552
7.39742
7.4416
7.04678
7.55195
7.40587
7.52421
7.37789
7.17846
7.58668
7.41259
7.45206
7.50987
7.47273
7.08202
7.56034
7.4005
7.32422
7.38046
7.39077
7.5709
7.54022
7.45174
7.48794
7.44992
7.34188
7.41758
7.48734
7.53722
7.11429
7.20123
7.56944
7.40043
7.58301
7.54988
7.52398
7.59461
7.42949
7.544
7.58834
7.50921
7.44168
7.14989
7.40007
7.53725
7.54045
7.5844
7.59027
7.10493
7.58984
7.47162
7.32649
7.33996
7.524
7.44986
7.298
7.52737
7.54068
7.48819
7.44644
7.59741
7.50112
7.54048
7.46421
7.41554
7.49914
7.39086
7.59427
7.38147
7.51416
7.30941
7.21522
7.30484
7.35568
7.46516
7.59144
7.58128
7.09904
7.11463
7.47066
7.41419
7.57614
7.34492
7.55096
7.5347
7.56394
7.436
7.4874
7.55734
7.55603
7.41393
7.43967
7.56606
7.4784
7.29817
7.5814
7.55624
7.58257
7.58837
7.54624
7.51159
7.57062
7.39072
7.53851
7.41066
7.50946
7.53721
7.51582
7.50386
7.41355
7.55913
7.46697
7.56538
7.45956
7.35323
7.47685
7.50111
7.46771
7.32404
7.42016
7.54561
7.54778
7.23881
7.5522
7.25717
7.38484
7.48041
7.38404
7.59955
7.51298
7.47911
7.55239
7.4826
7.57065
7.40061
7.58092
7.58554
7.42227
7.53948
7.22924
7.54035
7.56447
7.49736
7.44306
7.57232
7.4991
7.59125
7.52134
7.35342
7.59166
7.3868
7.46071
7.45278
7.45876
7.45876
7.5008
7.51753
7.44967
7.48008
7.52736
7.50115
7.50773
7.10601
7.46001
7.57644
7.49278
7.59133
7.38561
7.47044
7.32382
7.56605
7.55333
7.3596
7.397
7.28461
7.50153
7.55441
7.43972
7.29059
7.47196
7.55933
7.53179
7.58545
7.46525
7.4688
7.58451
7.48668
7.34205
7.57139
7.38129
7.18096
7.54715
7.58224
7.59135
7.07848
7.24789
7.45632
7.28713
7.31817
7.59848
7.55759
7.55669
7.50779
7.34292
7.49544
7.44957
7.5769
7.46484
7.39352
7.22435
7.59047
7.46719
7.54308
7.42067
7.59051
7.4342
7.44898
7.46155
7.49395
7.52402
7.59124
7.55668
7.36236
7.39568
7.4
7.57724
7.52309
7.57055
7.56442
7.48644
7.56325
7.49804
7.56644
7.41968
7.49803
7.53109
7.42498
7.25255
7.33082
7.42225
7.56366
7.46058
7.0842
7.4518
7.57634
7.42079
7.28095
7.34118
7.1537
7.42556
7.41962
7.4654
7.42975
7.40052
7.33221
7.53074
7.59142
7.4889
7.37145
7.36194
7.52297
7.38157
7.44033
7.47784
7.4053
7.44034
7.13334
7.53878
7.0796
7.49063
7.57621
7.5771
7.34287
7.52778
7.49817
7.48243
7.49175
7.45018
7.37133
7.15364
7.15249
7.49423
7.43935
7.20178
7.14441
7.59739
7.16223
7.38048
7.24418
7.53409
7.51782
7.30525
7.26816
7.4155
7.5793
7.49595
7.57308
7.36198
7.46201
7.42242
7.41751
7.60017
7.46875
7.41961
7.52262
7.55063
7.49796
7.47715
7.58243
7.59031
7.45944
7.54392
7.59894
7.53779
7.42149
7.50839
7.40355
7.50806
7.58336
7.51813
7.48815
7.28013
7.41769
7.37496
7.49362
7.51768
7.55417
7.35547
7.35615
7.47918
7.60019
7.56392
7.46909
7.50659
7.57622
7.56564
7.57027
7.55755
7.53719
7.57065
7.58044
7.37143
7.49194
7.46866
7.54707
7.55113
7.54139
7.51997
7.54767
7.47348
7.10032
7.51662
7.48974
7.31493
7.44897
7.16558
7.49972
7.39794
7.57281
7.56015
7.36618
7.31735
7.1728
7.25094
7.13416
7.51908
7.56162
7.16084
7.42217
7.50254
7.45241
7.41235
7.57132
7.45538
7.59377
7.5917
7.44296
7.36239
7.50534
7.548
7.2983
7.07685
7.55611
7.39102
7.23813
7.42322
7.41047
7.58834
7.35338
7.46001
7.56697
7.39667
7.46249
7.2762
7.21924
7.5481
7.57204
7.48356
7.59592
7.38823
7.45839
7.5779
7.53246
7.53827
7.59423
7.37389
7.37376
7.42939
7.38858
7.38149
7.25075
7.3056
7.54256
7.50177
7.5501
7.52967
7.55624
7.49132
7.49912
7.59081
7.45947
7.57714
7.47698
7.33529
7.51623
7.37658
7.44899
7.58264
7.60002
7.39422
7.59245
7.42671
7.44397
7.13712
7.58506
7.42077
7.47857
7.54694
7.57028
7.44933
7.58496
7.46808
7.29105
7.55247
7.47492
7.54899
7.52734
7.49251
7.09134
7.29782
7.4585
7.59995
7.56395
7.5842
7.41978
7.10386
7.35281
7.5741
7.53808
7.54691
7.22045
7.57677
7.30833
7.33386
7.6
7.52829
7.45767
7.5653
7.48717
7.52395
7.44898
7.44563
7.55079
7.44029
7.49254
7.30178
7.24783
7.59124
7.57651
7.51955
7.5711
7.5819
7.54808
7.21927
7.50778
7.46865
7.36399
7.55804
7.34286
7.22902
7.53406
7.59428
7.3696
7.5641
7.398
7.55617
7.22657
7.57674
7.50845
7.48957
7.04869
7.53977
7.38104
7.44131
7.50463
7.54883
7.44016
7.48867
7.58629
7.55678
7.47971
7.36336
7.55768
7.45528
7.58528
7.53767
7.32006
7.45435
7.16544
7.20367
7.28867
7.18331
7.48053
7.36902
7.45541
7.60001
7.52951
7.53009
7.38185
7.6
7.42011
7.47315
7.53716
7.56658
7.41959
7.48582
7.56648
7.56406
7.30509
7.27783
7.50917
7.52531
7.46963
7.38347
7.5372
7.55713
7.38362
7.59137
7.5639
7.31711
7.59456
7.33334
7.59197
7.36209
7.54698
7.59387
7.40765
7.55213
7.57647
7.48169
7.55992
7.39367
7.51484
7.56905
7.28509
7.59368
7.5894
7.52736
7.44799
7.55786
7.3911
7.49401
7.19953
7.38802
7.56099
7.37146
7.59431
7.59923
7.37214
7.58118
7.18201
7.20144
7.39223
7.2584
7.57191
7.23425
7.36316
7.39873
7.59571
7.46865
7.42529
7.59271
7.50818
7.27694
7.38753
7.40149
7.52648
7.36268
7.09848
7.47045
7.47277
7.47428
7.2673
7.40276
7.42943
7.58256
7.54539
7.54135
7.54947
7.09185
7.57621
7.56418
7.47855
7.52041
7.56463
7.41313
7.59583
7.5639
7.34914
7.53151
7.4614
7.20025
7.37273
7.51647
7.59415
7.46099
7.46082
7.50078
7.45891
7.32605
7.47237
7.5574
7.42014
7.52732
7.2477
7.44972
7.10697
7.54402
7.4784
7.47443
7.58092
7.23823
7.35239
7.59895
7.34296
7.47932
7.33374
7.43941
7.39049
7.49883
7.47331
7.28187
7.55361
7.31532
7.54697
7.59569
7.47843
7.50806
7.47002
7.35938
7.51494
7.3812
7.26673
7.55711
7.47887
7.5561
7.34596
7.59389
7.29016
7.59882
7.41087
7.5639
7.57742
7.55623
7.56047
7.53018
7.37268
7.50183
7.4
7.59235
7.21117
7.54338
7.19049
7.31938
7.59626
7.3352
7.48064
7.35953
7.27464
7.54006
7.44691
7.34014
7.43165
7.42835
7.39684
7.59132
7.55625
7.32385
7.55757
7.52757
7.32698
7.23904
7.50886
7.52673
7.18975
7.51042
7.58896
7.58856
7.57632
7.53402
7.51177
7.28828
7.43807
7.51065
7.15837
7.53752
7.45429
7.32355
7.59157
7.2579
7.54212
7.39176
7.31088
7.2774
7.53571
7.44113
7.57751
7.59571
7.50642
7.54599
7.39048
7.24766
7.52739
7.54054
7.55612
7.59064
7.42994
7.15688
7.36341
7.31395
7.09621
7.28585
7.21444
7.40301
7.38284
7.57192
7.45277
7.5178
7.6
7.45123
7.58835
7.5937
7.30933
7.36634
7.23927
7.40535
7.59653
7.31773
7.193
7.33167
7.2552
7.47429
7.59811
7.51192
7.2413
7.45251
7.53718
7.55868
7.37146
7.48815
7.46969
7.53979
7.49933
7.51893
7.4415
7.56391
7.38186
7.4793
7.35409
7.32726
7.55702
7.37814
7.50655
7.48843
7.51752
7.24069
7.56979
7.4684
7.5967
7.143
7.48883
7.27619
7.26157
7.26125
7.18534
7.45562
7.58628
7.57525
7.42636
7.50019
7.45779
7.49417
7.55996
7.24071
7.56285
7.59378
7.25829
7.51262
7.48854
7.2291
7.39052
7.27846
7.46912
7.3732
7.45222
7.57856
7.50409
7.52149
7.4133
7.36209
7.49778
7.25825
7.4003
7.43843
7.47578
7.53213
7.48086
7.54804
7.5646
7.25476
7.19048
7.46533
7.47251
7.50141
7.27794
7.58504
7.40005
7.53412
7.52007
7.54696
7.4736
7.47946
7.53576
7.56273
7.3256
7.54732
7.43922
7.4596
7.56067
7.58091
7.502
7.39151
7.42066
7.59191
7.57282
7.31296
7.58836
7.59945
7.52085
7.56218
7.5982
7.56569
7.5705
7.4314
7.29868
7.57127
7.44999
7.57078
7.58604
7.40055
7.33612
7.30025
7.59164
7.57626
7.19438
7.47367
7.58893
7.44932
7.17304
7.58137
7.55818
7.5072
7.52835
7.42012
7.57105
7.44815
7.59739
7.58161
7.59227
7.21027
7.57091
7.36575
7.48896
7.5562
7.55959
7.4476
7.52759
7.41232
7.52657
7.57973
7.56788
7.48065
7.55191
7.30285
7.43402
7.51453
7.59129
7.27777
7.57829
7.27014
7.60089
7.50816
7.57623
7.4237
7.57667
7.56385
7.4592
7.50369
7.28869
7.33333
7.57649
7.50276
7.55609
7.45827
7.23923
7.21376
7.50816
7.43927
7.47958
7.50894
7.59131
7.39488
7.36191
7.34478
7.54747
7.5401
7.56189
7.55145
7.32944
7.36043
7.56401
7.43932
7.56615
7.58265
7.49845
7.49409
7.57647
7.59129
7.41255
7.33386
7.44729
7.43942
7.50548
7.55815
7.38097
7.19048
7.41113
7.45166
7.55676
7.4364
7.56499
7.37143
7.59058
7.35271
7.59896
7.4498
7.42114
7.37051
7.46568
7.42965
7.43049
7.27736
7.23844
7.57077
7.30736
7.17154
7.5644
7.30396
7.58002
7.3449
7.54792
7.48616
7.26105
7.46877
7.44618
7.55699
7.45762
7.33446
7.5471
7.56731
7.45145
7.59743
7.50773
7.55622
7.40863
7.53747
7.55975
7.57087
7.35239
7.34019
7.55578
7.39053
7.4037
7.43256
7.56005
7.51755
7.49263
7.49794
7.59946
7.48142
7.13888
7.59435
7.48257
7.40004
7.44903
7.54762
7.5561
7.36863
7.40663
7.38127
7.50799
7.55654
7.14526
7.54692
7.42571
7.54559
7.54081
7.51012
7.50776
7.53868
7.43829
7.04173
7.5276
7.42193
7.30555
7.59369
7.1775
7.57071
7.43876
7.32382
7.57169
7.37931
7.23324
7.46963
7.36345
7.59167
7.50419
7.49958
7.55911
7.54667
7.39574
7.37839
7.51684
7.57082
7.40416
7.45999
7.21141
7.38297
7.48099
7.52746
7.52599
7.46445
7.40286
7.48209
7.38952
7.5767
7.58841
7.5561
7.49799
7.57076
7.55453
7.52881
7.449
7.44794
7.51006
7.58095
7.35391
7.52245
7.53144
7.5337
7.46383
7.3365
7.45218
7.43949
7.47915
7.45897
7.08717
7.04222
7.48138
7.38054
7.41714
7.14221
7.35222
7.58435
7.45591
7.55855
7.54799
7.28925
7.57045
7.50816
7.4705
7.357
7.55715
7.52904
7.56464
7.30296
7.343
7.56998
7.53966
7.49442
7.40237
7.57229
7.50269
7.54072
7.32788
7.52813
7.48942
7.57417
7.53296
7.56953
7.56716
7.3729
7.52724
7.41966
7.59025
7.35768
7.38263
7.42281
7.41033
7.40092
7.42975
7.52744
7.54177
7.44035
7.55969
7.57794
7.56865
7.56077
7.57054
7.36899
7.40197
7.58877
7.51778
7.58943
7.48858
7.38489
7.40002
7.51752
7.43922
7.50888
7.30299
7.5244
7.46261
7.5646
7.41813
7.04821
7.26965
7.32176
7.20026
7.59063
7.57278
7.55829
7.44723
7.33635
7.44937
7.26667
7.49297
7.50821
7.51944
7.51331
7.47807
7.43143
7.52789
7.3732
7.5471
7.47208
7.56884
7.52994
7.53738
7.48139
7.56758
7.44902
7.46226
7.55819
7.28971
7.59928
7.38314
7.59217
7.13431
7.57034
7.50997
7.18191
7.58211
7.30483
7.50132
7.52418
7.55067
7.31986
7.47823
7.46858
7.56416
7.53455
7.58953
7.52582
7.40803
7.33091
7.43452
7.5855
7.32237
7.51885
7.55787
7.29534
7.25836
7.52004
7.14398
7.2213
7.37985
7.55066
7.57174
7.58106
7.4863
7.42941
7.52796
7.06077
7.52008
7.55925
7.391
7.46929
7.49108
7.56967
7.55839
7.54691
7.23812
7.56315
7.59178
7.53783
7.53046
7.54199
7.44784
7.26915
7.2803
7.55322
7.6007
7.53133
7.55176
7.54721
7.56903
7.59881
7.29686
7.47841
7.28683
7.4675
7.34288
7.57451
7.3435
7.54721
7.09674
7.45051
7.57631
7.37317
7.57628
7.51797
7.32558
7.44779
7.57686
7.39838
7.50745
7.57092
7.51092
7.30556
7.596
7.22675
7.2865
7.5977
7.33868
7.42055
7.37216
7.48895
7.55929
7.40979
7.33781
7.52371
7.47974
7.51627
7.25552
7.48319
7.47838
7.41408
7.31474
7.44903
7.23776
7.53693
7.34768
7.59798
7.33689
7.56251
7.5572
7.57068
7.40096
7.39334
7.60001
7.55685
7.37197
7.27619
7.51952
7.45282
7.53902
7.48847
7.34752
7.20016
7.59134
7.44991
7.22111
7.49848
7.58445
7.46519
7.35275
7.37519
7.45099
7.38155
7.40842
7.35247
7.56013
7.40046
7.31429
7.55429
7.4802
7.57546
7.14426
7.49808
7.56498
7.44178
7.3708
7.43002
7.31456
7.43892
7.15705
7.48111
7.58379
7.55645
7.50845
7.18293
7.31815
7.44928
7.58272
7.53183
7.36474
7.29273
7.3947
7.59739
7.51447
7.42939
7.51465
7.35266
7.21564
7.55469
7.46129
7.24931
7.57419
7.26809
7.5652
7.4022
7.29641
7.45886
7.46004
7.56622
7.59343
7.04835
7.11453
7.37764
7.47886
7.42081
7.23533
7.44879
7.01913
7.45153
7.58906
7.50258
7.43963
7.59782
7.5778
7.12458
7.34684
7.33131
7.58866
7.49711
7.46113
7.43917
7.39252
7.24788
7.36344
7.48874
7.59134
7.54901
7.47847
7.44019
7.48648
7.53773
7.46192
7.52024
7.21923
7.57416
7.36126
7.46057
7.46146
7.30526
7.18143
7.5084
7.51518
7.56184
7.42221
7.48839
7.5974
7.52261
7.55589
7.5004
7.50077
7.53274
7.29393
7.39127
7.51666
7.36613
7.56652
7.25937
7.58843
7.58991
7.31918
7.38261
7.53639
7.59365
7.58151
7.28685
7.53111
7.53755
7.11515
7.43934
7.42274
7.5672
7.5806
7.35255
7.50156
7.28576
7.40019
7.57234
7.59744
7.56241
7.51615
7.46004
7.54702
7.24917
7.55724
7.15978
7.5204
7.35403
7.41086
7.50833
7.16233
7.58134
7.17266
7.37179
7.50587
7.5325
7.53003
7.46858
7.5941
7.58222
7.32994
7.52549
7.55153
7.55264
7.56729
7.50774
7.31443
7.22907
7.4828
7.25328
7.60031
7.42133
7.54827
7.48652
7.41058
7.58285
7.59204
7.42943
7.59156
7.48861
7.52941
7.43918
7.57135
7.34811
7.58438
7.11626
7.47503
7.29861
7.43387
7.56411
7.59743
7.23199
7.49082
7.53007
7.56445
7.45399
7.51964
7.2748
7.58541
7.59308
7.50182
7.58703
7.5168
7.30575
7.42938
7.39185
7.53713
7.55045
7.41967
7.58187
7.22788
7.56665
7.44091
7.03858
7.58741
7.28581
7.59194
7.52631
7.51472
7.3741
7.55617
7.58258
7.53322
7.49054
7.40799
7.41073
7.45357
7.56495
7.43026
7.33446
7.47327
7.59749
7.29583
7.21441
7.51543
7.56753
7.58447
7.3925
7.41949
7.41046
7.50674
7.18825
7.05771
7.48548
7.47008
7.29535
7.46926
7.26761
7.12433
7.45877
7.58502
7.56519
7.56834
7.59631
7.20028
7.40372
7.54001
7.31449
7.5762
7.47908
7.18299
7.50822
7.57611
7.29404
7.55622
7.3152
7.31531
7.4588
7.33501
7.53319
7.54773
7.40622
7.45333
7.4742
7.52734
7.48815
7.59409
7.51032
7.55641
7.51181
7.41052
7.25891
7.40121
7.45232
7.55364
7.5376
7.54932
7.3833
7.37166
7.56399
7.50812
7.36271
7.56391
7.58097
7.49406
7.58177
7.59599
7.36354
7.42202
7.46648
7.34419
7.59492
7.25828
7.42525
7.38128
7.18095
7.27047
7.56721
7.32868
7.46869
7.42093
7.46233
7.3489
7.32569
7.51787
7.48238
7.55363
7.53101
7.5437
7.42949
7.50222
7.36192
7.53872
7.41945
7.33632
7.4006
7.15483
7.55437
7.5995
7.57831
7.20232
7.40645
7.48965
7.49839
7.49292
7.30487
7.44088
7.53917
7.26122
7.28771
7.37253
7.31522
7.47505
7.50408
7.59209
7.54643
7.35445
7.27113
7.56924
7.59746
7.46275
7.56791
7.45185
7.54881
7.40915
7.51937
7.58963
7.3426
7.40053
7.52379
7.30732
7.28596
7.58123
7.51981
7.5241
7.56496
7.54768
7.54486
7.4392
7.44435
7.5457
7.49792
7.59159
7.55439
7.51753
7.51301
7.59291
7.34969
7.29528
7.12515
7.34287
7.14166
7.43504
7.33391
7.48914
7.57647
7.4683
7.56554
7.5909
7.58303
7.53711
7.55619
7.42942
7.25636
7.46087
7.46773
7.53277
7.36799
7.48878
7.28574
7.57177
7.46072
7.38805
7.3221
7.43302
7.34071
7.38278
7.55717
7.47838
7.26833
7.56396
7.59739
7.4232
7.44387
7.12276
7.45118
7.5181
7.52235
7.47137
7.47854
7.18222
7.57152
7.54944
7.22874
7.37143
7.41375
7.51773
7.58549
7.53713
7.50776
7.51664
7.56477
7.27893
7.30768
7.47844
7.555
7.45878
7.33434
7.55778
7.5914
7.30476
7.44916
7.32345
7.54867
7.50543
7.58491
7.45106
7.29535
7.6001
7.28624
7.46024
7.56869
7.50818
7.17899
7.34955
7.5622
7.1921
7.55494
7.3716
7.5749
7.1082
7.48011
7.40006
7.52893
7.43001
7.54055
7.44014
7.42598
7.433
7.5971
7.56233
7.44583
7.54462
7.56887
7.44294
7.34016
7.42581
7.49539
7.39308
7.5825
7.59665
7.44036
7.55156
7.57781
7.5278
7.57056
7.50855
7.3318
7.5575
7.1735
7.37588
7.09968
7.07548
7.47836
7.58098
7.53071
7.53328
7.49047
7.56507
7.48707
7.46254
7.2191
7.52397
7.43261
7.30502
7.04001
7.49287
7.4407
7.56392
7.49294
7.43919
7.47925
7.54437
7.54126
7.38129
7.50091
7.57613
7.42049
7.59828
7.31518
7.2131
7.23361
7.17911
7.45041
7.13417
7.24752
7.55597
7.29608
7.56888
7.30747
7.37393
7.25715
7.56511
7.47056
7.54279
7.52965
7.59406
7.56692
7.37076
7.21913
7.52735
7.34991
7.59369
7.30498
7.51783
7.47713
7.59884
7.58153
7.43032
7.59547
7.57758
7.21717
7.54554
7.31431
7.29249
7.51805
7.45376
7.32761
7.17354
7.31018
7.34681
7.43522
7.20117
7.469
7.53712
7.2193
7.50833
7.60009
7.28824
7.55896
7.48553
7.58154
7.4893
7.58806
7.39423
7.35425
7.50693
7.53754
7.40231
7.46209
7.50998
7.54731
7.42127
7.4895
7.50794
7.50345
7.42805
7.50865
7.57148
7.48823
7.57643
7.36566
7.52045
7.40615
7.54703
7.48425
7.26703
7.40008
7.55092
7.43019
7.46121
7.57834
7.51857
7.2371
7.5442
7.56167
7.49817
7.57096
7.56578
7.44853
7.49081
7.03184
7.42592
7.57056
7.51527
7.22973
7.45599
7.54409
7.51088
7.3544
7.59166
7.22862
7.59365
7.43419
7.57614
7.35446
7.57617
7.1678
7.25376
7.48814
7.53713
7.50801
7.58129
7.52735
7.58839
7.44899
7.46728
7.34292
7.57745
7.45637
7.18541
7.59367
7.32936
7.32799
7.59208
7.58659
7.50812
7.57739
7.57105
7.53541
7.59988
7.45878
7.2762
7.28572
7.45927
7.52999
7.394
7.47963
7.44849
7.42156
7.43958
7.44361
7.40872
7.38352
7.55804
7.3829
7.17709
7.42305
7.35498
7.4665
7.17202
7.22928
7.41341
7.59921
7.44523
7.44929
7.59935
7.1716
7.57045
7.58554
7.39557
7.56437
7.26674
7.42952
7.45879
7.23407
7.47268
7.35325
7.57688
7.49948
7.39052
7.58959
7.57697
7.41154
7.53759
7.51754
7.55756
7.53104
7.38354
7.57906
7.4686
7.50938
7.40154
7.53742
7.2023
7.44017
7.26293
7.3823
7.24941
7.5662
7.32512
7.11456
7.32427
7.34573
7.4205
7.39331
7.59526
7.52862
7.45876
7.57853
7.38231
7.381
7.10602
7.36386
7.30042
7.40752
7.22952
7.10417
7.49829
7.51983
7.5885
7.39912
7.4978
7.59125
7.34828
7.59594
7.33752
7.34332
7.32165
7.5962
7.26349
7.58762
7.56422
7.54007
7.32397
7.3895
7.03277
7.51067
7.26554
7.49805
7.48496
7.48939
7.16838
7.54026
7.55642
7.5088
7.41237
7.40984
7.43934
7.57663
7.56459
7.43521
7.59131
7.54863
7.48847
7.33398
7.4694
7.44345
7.24966
7.4301
7.36215
7.57627
7.55062
7.59155
7.58153
7.56217
7.4766
7.50777
7.52706
7.40749
7.38208
7.60016
7.50085
7.48366
7.43171
7.53042
7.56708
7.2517
7.56413
7.56831
7.44595
7.49653
7.32403
7.54276
7.45971
7.59365
7.47175
7.55434
7.55762
7.11864
7.60004
6.84071
7.1675
7.14054
7.47836
6.88096
7.29208
7.1977
7.38785
7.02637
7.49816
7.41105
7.39244
7.52877
7.5473
7.55971
7.59745
7.53054
7.24526
7.09167
6.90745
7.50797
6.78161
7.12734
7.08009
6.8816
6.96
6.89193
7.24295
6.71694
7.57696
7.59395
7.60102
6.84
7.57658
7.27413
7.31009
6.83956
7.22419
7.29533
7.59153
7.57822
7.46567
7.5884
7.12643
7.2727
7.40475
7.12863
7.48994
7.5254
7.58149
7.1108
7.3086
7.30392
7.2339
7.53711
)


// ************************************************************************* //
