/*--------------------------------*- C++ -*----------------------------------*\
| =========                 |                                                 |
| \\      /  F ield         | OpenFOAM: The Open Source CFD Toolbox           |
|  \\    /   O peration     | Version:  plus.master.MPPICInterFoam            |
|   \\  /    A nd           | Web:      www.OpenFOAM.com                      |
|    \\/     M anipulation  |                                                 |
\*---------------------------------------------------------------------------*/
FoamFile
{
    version     2.0;
    format      ascii;
    class       Cloud<basicKinematicMPPICParcel>;
    location    "7.6/lagrangian/kinematicCloud";
    object      positions;
}
// * * * * * * * * * * * * * * * * * * * * * * * * * * * * * * * * * * * * * //

2962
(
(-0.0572394 -0.0101738 0.411237) 5769
(-0.0545512 -0.0142336 0.412134) 5769
(-0.0323734 -0.0492493 0.407756) 6633
(-0.0327253 -0.0488536 0.408649) 6633
(-0.050217 -0.0093244 0.422445) 5880
(-0.0519935 -0.0115647 0.416125) 5824
(-0.0445246 -0.0344615 0.411209) 5785
(-0.0399568 -0.0349686 0.418215) 5840
(-0.0440796 -0.0328865 0.41166) 5785
(-0.0496326 -0.00946161 0.421161) 5824
(-0.0400367 -0.0329392 0.420765) 5840
(-0.0428829 -0.0311078 0.414856) 5840
(-0.0332971 -0.0456452 0.412103) 6633
(-0.0427366 -0.0340826 0.409342) 5785
(-0.0330215 -0.0438165 0.417571) 6689
(-0.0513686 -0.0147847 0.415256) 5824
(-0.0328307 -0.0448088 0.41208) 6633
(-0.0425232 -0.0402078 0.405404) 5785
(-0.0435538 -0.0354196 0.407824) 5785
(-0.0423943 -0.0335541 0.409847) 5784
(-0.0534132 -0.0147134 0.408691) 5769
(-0.0328732 -0.0444435 0.411657) 6633
(-0.0531278 -0.0116394 0.410372) 5769
(-0.0310018 -0.0404577 0.425093) 6744
(-0.0311832 -0.0461562 0.41027) 6633
(-0.0457692 -0.033682 0.407365) 5785
(-0.0327055 -0.0452501 0.408865) 6633
(-0.0437252 -0.0338492 0.407754) 5785
(-0.0330116 -0.046649 0.408123) 6633
(-0.0308868 -0.0408496 0.422777) 6744
(-0.0366686 -0.0344209 0.426418) 5896
(-0.0289171 -0.0475442 0.40908) 6641
(-0.0450528 -0.0309862 0.417699) 5841
(-0.0517244 -0.014225 0.410997) 5768
(-0.039152 -0.0351763 0.412296) 5784
(-0.0328952 -0.0470833 0.407206) 6633
(-0.0313171 -0.0468349 0.408592) 6633
(-0.0433398 -0.0370596 0.406964) 5785
(-0.0316022 -0.0422478 0.413334) 6688
(-0.0313977 -0.0455314 0.4091) 6633
(-0.0490109 -0.00939805 0.421359) 5824
(-0.0549842 -0.0103804 0.409862) 5769
(-0.0446089 -0.0331424 0.407553) 5785
(-0.0561635 -0.0138477 0.406714) 5769
(-0.0543491 0.0052389 0.419272) 5817
(-0.0301246 -0.0454844 0.410958) 6633
(-0.03971 -0.032391 0.416827) 5840
(-0.0525074 -0.0141074 0.410506) 5769
(-0.0289344 -0.0429716 0.417927) 6688
(-0.0480526 -0.0081507 0.424078) 5879
(-0.0529858 -0.00930329 0.411777) 5768
(-0.0516622 -0.00930321 0.414899) 5824
(-0.0420409 -0.0296126 0.42008) 5840
(-0.0535804 0.0052608 0.4183) 5816
(-0.0284382 -0.0488014 0.410945) 6641
(-0.0526178 0.00182075 0.419582) 5816
(-0.034674 -0.0442365 0.409522) 6633
(-0.0534293 0.00298701 0.418299) 5816
(-0.0354423 -0.0448427 0.409693) 6633
(-0.0520655 -0.0148126 0.410928) 5768
(-0.0532335 0.00525566 0.418092) 5816
(-0.0435801 -0.0301046 0.415306) 5840
(-0.0521081 -0.00886782 0.4148) 5824
(-0.0545572 -0.00053643 0.413175) 5817
(-0.052258 -0.015823 0.410947) 5769
(-0.0317646 -0.042802 0.413608) 6688
(-0.0506201 -0.00960622 0.418903) 5824
(-0.0476933 -0.00687637 0.430998) 5879
(-0.0356216 -0.0459796 0.409081) 6633
(-0.0519239 -0.0175135 0.411125) 5769
(-0.0595587 -0.00943615 0.406327) 5770
(-0.0562061 0.00446411 0.413346) 5817
(-0.0512291 0.0152067 0.421851) 5808
(-0.0512881 -0.0167952 0.412561) 5824
(-0.0545544 -0.0150615 0.408835) 5769
(-0.0551812 -0.0126135 0.408067) 5769
(-0.037972 -0.0289648 0.433458) 5951
(-0.0537654 0.00565251 0.414103) 5816
(-0.0508124 0.0139418 0.421848) 5808
(-0.0515025 0.00207621 0.420582) 5816
(-0.0522985 0.00440466 0.418484) 5816
(-0.0437577 -0.03345 0.412003) 5785
(-0.0500493 0.00369106 0.428807) 5872
(-0.0505803 0.0125109 0.421989) 5808
(-0.0289255 -0.0441357 0.417711) 6688
(-0.0554792 0.00612692 0.413818) 5817
(-0.0437131 -0.0235397 0.431152) 5888
(-0.054482 0.00665139 0.416778) 5809
(-0.0481074 -0.00760347 0.428742) 5879
(-0.0607361 -0.0098296 0.405711) 5770
(-0.0437835 -0.0231124 0.429835) 5888
(-0.0458723 -0.0205175 0.427377) 5888
(-0.0465995 -0.00736116 0.434233) 5935
(-0.0532495 0.00673094 0.419534) 5808
(-0.0468315 -0.0241702 0.424637) 5888
(-0.0486099 -0.021673 0.424345) 5888
(-0.0519396 0.0158466 0.42021) 5809
(-0.0540289 -0.0131493 0.410657) 5769
(0.0618421 -0.0103759 0.397177) 4802
(-0.0498584 0.0137474 0.42248) 5864
(-0.0463102 -0.0196096 0.426973) 5888
(-0.0517378 -0.0135709 0.417563) 5824
(-0.0549567 0.000705393 0.413176) 5817
(-0.0486437 -0.0111024 0.425647) 5880
(-0.0469954 -0.0193697 0.424437) 5888
(-0.0516765 -0.0168498 0.418072) 5825
(-0.0560729 0.0057205 0.414253) 5817
(-0.0540717 -0.0155522 0.410787) 5769
(0.057534 -0.013394 0.402968) 4857
(0.0608023 -0.0115777 0.397578) 4802
(0.0619695 -0.00942779 0.397733) 4802
(-0.0517596 0.0115898 0.420807) 5808
(-0.0383739 -0.031066 0.424887) 5896
(-0.0505485 -0.0152143 0.420214) 5824
(0.0511911 -0.0109319 0.413474) 4912
(-0.0570763 0.0028494 0.413311) 5817
(-0.0456244 -0.0201903 0.423628) 5888
(-0.0442165 -0.0339504 0.414696) 5841
(-0.0435135 -0.0376 0.414758) 5841
(-0.0484106 -0.0125523 0.426876) 5880
(-0.0525336 -0.0125065 0.415021) 5824
(0.0649405 -0.00937568 0.390875) 4747
(0.0642238 -0.00918302 0.391086) 4746
(-0.0514916 0.0153029 0.42049) 5808
(-0.0565159 -0.0112066 0.410557) 5769
(-0.0437092 -0.0357585 0.415682) 5841
(0.0586928 -0.0123568 0.400265) 4802
(0.05844 -0.0112031 0.400637) 4801
(-0.0295283 -0.0357544 0.4391) 6799
(-0.0292932 -0.0390198 0.430351) 6744
(-0.0381821 -0.030183 0.427919) 5895
(-0.050222 0.00186327 0.427218) 5872
(-0.0496494 -0.019204 0.426464) 5888
(-0.0415535 -0.0329286 0.418997) 5840
(0.0583873 -0.012531 0.400357) 4802
(-0.0425543 -0.0293541 0.426452) 5896
(-0.0425244 -0.0236428 0.426515) 5887
(-0.0526114 -0.0159596 0.414299) 5825
(-0.0531708 -0.0142229 0.413929) 5825
(-0.0515067 -0.0118838 0.419272) 5824
(0.0611318 -0.0157383 0.403626) 4858
(0.0488361 -0.0065316 0.421375) 4912
(0.0576677 -0.0118333 0.401562) 4801
(-0.0399376 0.0365815 0.429932) 5848
(-0.0465514 -0.0203012 0.423104) 5888
(-0.0508929 -0.00694891 0.424308) 5880
(-0.0493717 -0.0144065 0.428638) 5880
(-0.0503449 -0.0133646 0.420502) 5824
(-0.0534179 0.0165062 0.420578) 5809
(0.0623168 -0.00958256 0.392619) 4746
(0.0623557 -0.00927348 0.392814) 4802
(-0.04874 0.023736 0.425241) 5857
(-0.0504496 -0.0142717 0.421891) 5824
(-0.0328796 -0.0420674 0.420833) 6688
(-0.0578011 -0.011889 0.412013) 5769
(0.0574347 -0.011594 0.401312) 4801
(0.0574818 -0.0110519 0.402022) 4801
(0.0655776 -0.00890266 0.392325) 4747
(-0.0517368 0.0110314 0.422628) 5864
(-0.0478342 0.0154314 0.427946) 5864
(-0.0541589 -0.0110867 0.414363) 5825
(-0.0524905 -0.0128953 0.418647) 5824
(-0.0564661 0.00116661 0.415118) 5817
(0.0533562 -0.0117474 0.408206) 4857
(0.0614682 -0.00755954 0.400927) 4802
(0.0557459 -0.0116604 0.404518) 4857
(-0.0465142 0.0138206 0.431514) 5863
(-0.0497973 0.017983 0.426599) 5856
(-0.0498236 0.0128215 0.424055) 5864
(-0.029372 -0.0473852 0.417119) 6697
(-0.0527399 0.00195973 0.42167) 5816
(-0.0555122 0.000966313 0.416146) 5817
(0.0562459 -0.0128695 0.404088) 4857
(-0.0543575 -0.0110215 0.41496) 5825
(-0.0372225 -0.0344894 0.425299) 5896
(-0.0596681 -0.0109816 0.411281) 5770
(0.0511877 -0.0116341 0.419681) 4912
(0.0547366 -0.0120195 0.40673) 4857
(-0.0205861 -0.0467176 0.427171) 6752
(-0.0446404 -0.0188037 0.436255) 5943
(-0.047441 0.0257289 0.424975) 5856
(-0.0537299 -0.0101234 0.418142) 5825
(-0.0546547 -0.0116736 0.415166) 5825
(-0.0516638 -0.0106413 0.421777) 5824
(-0.0473163 -0.0133301 0.433872) 5936
(0.0546836 -0.0120234 0.407219) 4857
(-0.0483969 0.00184376 0.433567) 5927
(-0.056972 0.00319445 0.415296) 5817
(-0.0418807 -0.0346912 0.419561) 5841
(-0.0556337 0.00030799 0.416422) 5817
(0.0595472 -0.0110208 0.397189) 4802
(-0.0266556 -0.0426132 0.429798) 6752
(-0.0476735 0.00330667 0.435478) 5927
(0.0562308 -0.011339 0.405907) 4857
(0.0633128 -0.0101861 0.394443) 4802
(-0.0500274 0.00600803 0.429953) 5864
(-0.0351952 -0.032512 0.432791) 5951
(-0.0363756 -0.0277062 0.446031) 6007
(-0.049313 0.0058084 0.432577) 5920
(-0.0441877 -0.0182581 0.437411) 5943
(-0.0492677 -0.0212366 0.42453) 5888
(-0.0350562 -0.0409555 0.426477) 6744
(-0.0462448 -0.0116489 0.436233) 5935
(-0.0521424 0.00530136 0.425605) 5872
(-0.0477965 -0.0202646 0.425999) 5888
(-0.0395683 -0.030046 0.428236) 5896
(-0.0560272 -0.0147272 0.415835) 5825
(-0.0531642 -0.00918806 0.421497) 5824
(-0.0292012 -0.0449538 0.423156) 6744
(-0.0306548 -0.042991 0.424672) 6744
(0.0514222 -0.0102714 0.420355) 4912
(0.0551378 -0.0104216 0.410177) 4857
(0.0598281 -0.0106254 0.399872) 4802
(0.0564808 -0.0119701 0.4013) 4801
(0.0640522 -0.00960717 0.395867) 4802
(-0.0188844 -0.0455082 0.431449) 6752
(-0.046294 -0.011293 0.436255) 5935
(-0.0582359 -0.00888015 0.416582) 5825
(-0.0296305 -0.0466742 0.421887) 6689
(0.0538241 -0.0115378 0.414155) 4913
(-0.0191451 -0.0461335 0.431221) 6752
(-0.0454602 -0.012123 0.438502) 5935
(-0.0483613 -0.01127 0.430991) 5880
(-0.0549311 -0.00208345 0.421037) 5817
(-0.0353631 -0.0408189 0.427021) 6744
(-0.0262943 -0.0405416 0.435546) 6799
(-0.0473878 -0.0193775 0.428075) 5888
(-0.0406676 -0.0334801 0.425384) 5896
(-0.0295432 -0.044133 0.425334) 6744
(-0.0564904 -0.0146091 0.417047) 5825
(-0.0527458 0.0140588 0.424693) 5865
(0.0528768 -0.0107401 0.408052) 4856
(0.0569187 -0.0122796 0.403546) 4857
(0.0635214 -0.0109023 0.396612) 4802
(-0.0494457 -0.00940189 0.429132) 5880
(-0.0487289 -0.0234553 0.426092) 5888
(-0.0570144 -0.0128974 0.417288) 5825
(-0.0332442 -0.0423982 0.423975) 6744
(-0.0412503 -0.0355777 0.422995) 5897
(0.0538267 -0.0109416 0.416327) 4913
(0.0549829 -0.011402 0.407251) 4857
(0.0665447 -0.012022 0.393707) 4803
(-0.0511066 0.00923877 0.431561) 5864
(-0.0564202 -0.0079917 0.41991) 5825
(-0.0473503 -0.0273265 0.4272) 5889
(-0.0508314 0.00574831 0.430028) 5864
(-0.0486117 -0.00893567 0.432298) 5880
(0.0493516 -0.00772672 0.426311) 4968
(0.055282 -0.0133065 0.406851) 4857
(0.0513932 -0.00917366 0.412384) 4856
(0.0650343 -0.0118551 0.396162) 4803
(-0.0490197 0.0253909 0.426665) 5857
(-0.0511292 -0.0092125 0.42658) 5880
(0.0543268 -0.0122816 0.40979) 4857
(0.0608679 -0.0137543 0.400976) 4802
(-0.0493118 -0.0147166 0.431283) 5880
(-0.0491057 0.0175632 0.432341) 5912
(-0.0526346 -0.0130871 0.423523) 5881
(-0.0542179 -0.0114718 0.421282) 5825
(-0.0545908 -0.0100252 0.421116) 5825
(0.0537251 -0.0114219 0.410374) 4857
(0.0639626 -0.0122139 0.397781) 4803
(-0.0317322 -0.040304 0.430419) 6744
(-0.0555687 -0.0167135 0.419125) 5825
(0.0561574 -0.0134791 0.406811) 4857
(0.0552972 -0.0116276 0.408573) 4857
(0.0602598 -0.0131561 0.402095) 4802
(0.0611932 -0.0154529 0.401223) 4802
(-0.0396902 -0.0283678 0.435997) 5951
(-0.0369857 -0.0291302 0.439443) 5951
(0.0554024 -0.0107248 0.412072) 4857
(0.0580233 -0.0141717 0.404264) 4858
(0.0546392 -0.0133733 0.408782) 4857
(0.0569196 -0.000953184 0.403938) 4865
(-0.0519676 0.0023772 0.428541) 5872
(-0.0536137 -0.012347 0.422687) 5881
(-0.0522769 0.00103878 0.427943) 5872
(-0.0544168 0.00283539 0.423793) 5873
(0.0500076 -0.00626221 0.426753) 4968
(0.0550622 -0.0129597 0.408513) 4857
(-0.0183415 -0.0461725 0.43465) 6808
(-0.0406061 -0.0323893 0.429075) 5896
(-0.055113 -0.0137714 0.420752) 5825
(0.0601406 -0.0146633 0.40308) 4858
(-0.0379769 -0.0336841 0.43092) 5896
(0.0572284 -0.0145396 0.406497) 4857
(0.0677547 -0.0105786 0.397698) 4803
(-0.017041 -0.0456154 0.435593) 6807
(-0.0181878 -0.0476987 0.433125) 6808
(-0.0529166 0.0120247 0.427109) 5865
(0.0521439 -0.00856547 0.424517) 4968
(0.055487 -0.0122666 0.409754) 4857
(-0.0453234 -0.0106502 0.443313) 5991
(-0.0373388 -0.0337913 0.431981) 5896
(0.0506672 -0.00716429 0.42658) 4968
(-0.06279 0.00212088 0.404038) 5762
(-0.0634937 0.00227524 0.402681) 5762
(0.0479522 -0.00751205 0.421501) 4911
(0.0651415 -0.0124973 0.399356) 4803
(0.0584804 -0.0148134 0.405728) 4858
(0.0589582 -0.0181299 0.40455) 4858
(0.0557309 -0.0146166 0.410047) 4857
(0.0599021 -0.00120213 0.401873) 4810
(-0.0507829 -0.012098 0.428784) 5880
(0.0548998 -0.0117576 0.412669) 4913
(0.060958 -0.0152399 0.40402) 4858
(0.0535045 -0.012767 0.41418) 4913
(0.0606631 -0.00136532 0.402526) 4810
(-0.04964 0.017053 0.431817) 5864
(-0.019668 -0.0457641 0.43554) 6808
(0.0584153 -0.0145145 0.406745) 4858
(0.0579961 -0.0153746 0.406641) 4858
(0.060075 -0.00141683 0.403716) 4866
(-0.0324567 -0.0315457 0.449801) 6007
(-0.030442 -0.0359564 0.442134) 6799
(-0.0253639 -0.0398257 0.44121) 6799
(-0.0488345 0.0172893 0.435192) 5912
(-0.0407973 0.0351622 0.428042) 5848
(0.0518066 -0.0180235 0.425598) 4969
(-0.055255 -0.0113015 0.422862) 5881
(0.0529822 -0.00941107 0.418589) 4912
(-0.0609136 0.00300782 0.407346) 5762
(0.0586071 -0.0154348 0.406404) 4858
(0.0554331 -0.0108863 0.412952) 4913
(0.0628896 -0.0151735 0.402959) 4858
(0.0571538 -0.0163753 0.408648) 4857
(0.0606242 -0.00152526 0.403701) 4866
(-0.016459 -0.0451342 0.439884) 6807
(-0.0515698 -0.00874448 0.430582) 5880
(-0.0515043 -0.00638505 0.433875) 5936
(-0.0517676 0.000444738 0.430754) 5872
(-0.0166012 -0.0477247 0.434023) 6816
(0.0516077 -0.0106481 0.425499) 4968
(0.0539094 -0.00865507 0.418179) 4913
(0.0531706 -0.0103003 0.417333) 4913
(0.053801 -0.011768 0.416019) 4913
(0.0550781 -0.0113652 0.413248) 4913
(0.0570109 -0.0139403 0.409301) 4857
(0.0557902 -0.0121145 0.412018) 4857
(0.0579187 -0.0140134 0.408798) 4858
(0.059125 -0.0155005 0.406007) 4858
(0.0541707 -0.0112096 0.414064) 4913
(0.0540572 -0.0120796 0.414052) 4913
(0.0573199 -0.0147706 0.408832) 4857
(-0.0453966 -0.00697873 0.444647) 5991
(-0.0171177 -0.0463602 0.435732) 6808
(-0.0549486 -0.00907638 0.425282) 5881
(-0.0589529 -0.000773802 0.417048) 5817
(0.0510397 -0.00746095 0.428359) 4968
(0.0532715 -0.0115477 0.417606) 4913
(0.0540602 -0.0113681 0.413931) 4913
(0.0555101 -0.0122531 0.412652) 4913
(0.0567952 -0.013051 0.410254) 4857
(0.0614858 -0.0154194 0.404861) 4858
(0.054636 -0.01171 0.413716) 4913
(0.0569693 -0.0019303 0.408759) 4865
(-0.0269926 -0.0422398 0.436319) 6800
(-0.0444171 -0.00722906 0.447253) 5991
(-0.0472662 -0.0219412 0.431894) 5888
(0.0552796 -0.0123482 0.412736) 4913
(0.0608544 -0.0160466 0.405394) 4858
(0.0551663 -0.0123744 0.412859) 4913
(-0.032082 -0.0394604 0.435086) 6800
(-0.0454062 0.023468 0.435237) 5912
(-0.0303601 -0.0381807 0.4383) 6800
(-0.037347 -0.030002 0.439407) 5951
(-0.0194115 -0.0449575 0.437641) 6808
(-0.0583019 -0.0100414 0.421285) 5825
(0.0521128 -0.010147 0.426052) 4968
(0.0536255 -0.0106199 0.416435) 4913
(0.0543373 -0.0110322 0.414495) 4913
(-0.0478214 0.0297209 0.427405) 5857
(-0.0462803 -0.0200137 0.435741) 5944
(-0.0510805 -0.0233934 0.429647) 5889
(0.052905 -0.00879907 0.42641) 4968
(0.0491825 -0.00890613 0.420393) 4912
(0.0569669 -0.0123825 0.41124) 4857
(-0.0352045 -0.0252628 0.452372) 6062
(-0.0455942 -0.0196542 0.437767) 5944
(0.0519257 -0.00907148 0.421048) 4912
(0.0598223 -0.0154079 0.40684) 4858
(0.054643 -0.0138191 0.413835) 4913
(-0.0505623 -0.0177387 0.435798) 5944
(-0.0485314 0.00886326 0.438595) 5920
(-0.0493257 0.00465283 0.436053) 5928
(-0.0516023 0.013669 0.430974) 5864
(-0.0327283 0.047144 0.421344) 7681
(-0.0606159 -0.000381188 0.407202) 5762
(-0.0600958 0.00149531 0.407499) 5762
(0.0661812 -0.011431 0.399282) 4803
(-0.0468363 -0.012657 0.438917) 5935
(-0.0306813 -0.0387479 0.437947) 6800
(-0.0543377 -0.000636427 0.42764) 5873
(-0.0593712 -0.00152001 0.416763) 5817
(0.0535949 -0.0129206 0.41702) 4913
(0.0549638 -0.0120782 0.413338) 4913
(0.0561087 -0.0122537 0.412059) 4857
(0.0573968 -0.0131744 0.404741) 4857
(-0.0177427 -0.0434787 0.443204) 6863
(-0.0289989 0.0478627 0.425337) 7729
(-0.0592873 0.00192439 0.413633) 5817
(0.0572232 -0.00995411 0.412354) 4857
(0.0561926 -0.010347 0.413107) 4913
(0.0506799 -0.0117474 0.419844) 4912
(0.0529993 -0.0130784 0.417992) 4913
(0.057488 -0.012327 0.406083) 4857
(0.0585806 -0.0133594 0.405492) 4858
(0.0581299 -0.00214141 0.409445) 4865
(0.057987 -0.0119618 0.406285) 4857
(0.0571813 -0.0163939 0.405318) 4857
(-0.0346279 0.0432782 0.426784) 7737
(-0.039271 0.0334922 0.434874) 5904
(-0.0392793 0.036101 0.431377) 5848
(-0.0324643 0.0445655 0.425303) 7737
(-0.0509798 0.024305 0.42619) 5857
(-0.0592536 0.000139637 0.414539) 5817
(-0.060593 0.00404691 0.409561) 5762
(0.0564961 -0.00988381 0.413218) 4913
(0.0523704 -0.0127473 0.418637) 4912
(-0.0408461 -0.0228116 0.444687) 5999
(-0.0533842 -0.00994497 0.429411) 5881
(-0.0502795 0.0171127 0.432623) 5920
(0.0596029 -0.0105967 0.41367) 4914
(0.0499304 -0.0101815 0.420191) 4912
(-0.0395973 -0.0223979 0.450422) 5999
(0.00701449 -0.0558886 0.425947) 6777
(-0.0447138 0.0223718 0.43796) 5912
(-0.0566153 0.00241001 0.424292) 5873
(-0.060197 0.00312557 0.407955) 5762
(0.0592247 -0.0107264 0.409682) 4858
(0.0614036 -0.0131074 0.403487) 4858
(-0.0426252 -0.00675451 0.454691) 6046
(-0.0466383 0.00888187 0.441088) 5919
(-0.0264086 -0.0430665 0.437514) 6808
(-0.0453869 0.0204601 0.438333) 5912
(-0.0500632 0.0161286 0.433199) 5920
(-0.0384716 -0.0319265 0.436473) 5952
(-0.0409031 0.0382155 0.42568) 5849
(-0.0315978 0.0462878 0.423661) 7737
(0.0535508 -0.0118951 0.416931) 4913
(0.0624123 -0.0125751 0.402785) 4858
(-0.048774 -0.00975807 0.436663) 5936
(-0.050027 0.0116401 0.43445) 5920
(-0.00435572 0.0578128 0.42253) 7713
(-0.0283559 0.046164 0.426099) 7728
(-0.0587263 0.0030094 0.415486) 5817
(0.0568691 -0.0117451 0.410777) 4857
(0.0642307 -0.0108224 0.40179) 4803
(-0.0281552 -0.0329825 0.450874) 6854
(-0.0263028 -0.0431337 0.43765) 6808
(-0.0164203 0.055457 0.429374) 7721
(-0.0397298 -0.0381595 0.430858) 5897
(-0.028309 0.0465539 0.427797) 7729
(-0.058627 0.0117054 0.413395) 5810
(-0.0287756 0.0495474 0.423636) 7729
(-0.0615396 0.00367391 0.407751) 5762
(0.0572468 -0.00983913 0.412719) 4913
(-0.0617947 0.00236616 0.407212) 5762
(0.0497753 -0.0121585 0.421757) 4912
(0.049184 -0.0120332 0.42242) 4968
(0.0551696 -0.0022757 0.413889) 4921
(-0.0494241 0.0224201 0.431696) 5857
(-0.0500138 0.0141464 0.433844) 5920
(-0.0359942 0.0452438 0.423319) 7737
(0.05393 -0.0160221 0.428008) 4969
(-0.0549514 -0.0111769 0.427691) 5881
(-0.0583674 0.00341176 0.417997) 5817
(-0.0585564 -0.00225968 0.419919) 5817
(-0.06004 0.00350649 0.411307) 5762
(0.0557209 -0.00645094 0.419458) 4913
(-0.0589009 -0.0156147 0.418525) 5826
(0.0587829 -0.00955707 0.412075) 4857
(-0.0601817 0.0157803 0.410645) 5754
(-0.0430855 -0.0103498 0.450176) 5991
(-0.0436735 -0.011129 0.448016) 5991
(-0.0480467 -0.0128532 0.437732) 5936
(-0.0119449 -0.0532013 0.430152) 6761
(-0.00663986 0.0542737 0.427281) 7721
(-0.0595908 0.00427664 0.417091) 5818
(-0.0586587 0.00384185 0.417701) 5817
(0.0571004 -0.00917187 0.40946) 4857
(0.0596563 -0.00234001 0.410889) 4866
(0.0661345 -0.0120295 0.400881) 4803
(-0.0521261 0.0040986 0.434786) 5928
(-0.0282642 0.0481951 0.424823) 7729
(-0.0531153 0.015893 0.426861) 5865
(0.00914475 0.0558785 0.421151) 7649
(0.00876199 0.0577967 0.417903) 7649
(-0.0224745 -0.0560753 0.420195) 6698
(-0.0287205 0.0490858 0.423909) 7729
(-0.0417809 0.0393806 0.421031) 5793
(-0.0419156 0.0393082 0.420974) 5793
(-0.00730497 -0.0563928 0.418121) 6705
(0.062404 -0.00989178 0.410688) 4858
(0.067193 -0.0106149 0.40243) 4803
(0.0640733 -0.011636 0.402871) 4859
(-0.0512349 -0.00583487 0.439483) 5936
(-0.0295316 -0.0371821 0.443322) 6855
(-0.0449067 -0.0171648 0.448213) 5999
(-0.0178272 -0.0444162 0.444522) 6863
(0.0087183 -0.0536288 0.43014) 6777
(-0.0285839 -0.0408335 0.439555) 6800
(0.00608845 -0.0543733 0.428847) 6769
(-0.0422755 0.0347676 0.428527) 5849
(-0.043818 0.0367034 0.420932) 5793
(-0.0524285 0.0290719 0.415195) 5802
(0.0478218 -0.00874246 0.427866) 4967
(0.0541262 -0.00992875 0.417961) 4913
(0.057824 -0.00753473 0.414378) 4913
(0.0611708 -0.0179428 0.407484) 4858
(-0.057401 0.0135137 0.414182) 5809
(-0.0582951 0.014198 0.412162) 5754
(0.0634515 -0.0118905 0.403242) 4858
(-0.0162467 -0.045038 0.44451) 6863
(0.0530908 -0.00991162 0.428095) 4968
(-0.0237028 -0.0550194 0.418872) 6698
(-0.0276108 0.0487726 0.426854) 7729
(-0.0587508 0.00400953 0.418485) 5817
(0.00944149 -0.0528354 0.423817) 6776
(-0.0188811 0.0488371 0.432736) 7784
(-0.0419245 0.0381576 0.422251) 5793
(-0.0633945 0.00272398 0.407283) 5762
(-0.0573288 0.0182571 0.416405) 5810
(-0.0532997 0.0289646 0.412984) 5802
(0.0542407 -0.0210063 0.414438) 4905
(0.0587147 0.00154602 0.40678) 4865
(0.065031 -8.64362e-05 0.403135) 4867
(-0.0658673 -0.00315557 0.404833) 5763
(-0.0357479 -0.0275368 0.448162) 6007
(-0.0375638 0.0314801 0.440464) 5904
(-0.0511147 -0.00861899 0.436492) 5936
(-0.0477183 -0.0208904 0.437787) 5944
(0.0490042 -0.0103145 0.435788) 5024
(-0.0566218 0.000487126 0.424003) 5873
(0.00895402 -0.0556276 0.42299) 6777
(0.0084469 -0.0543643 0.42337) 6777
(0.0100767 -0.0546527 0.421536) 6721
(0.0468155 -0.0100289 0.429563) 4967
(0.0116157 -0.0575868 0.421062) 6721
(0.00872468 0.0553687 0.421697) 7649
(0.010542 -0.054122 0.422016) 6721
(0.00766041 -0.054859 0.421869) 6721
(-0.0301656 0.0488964 0.420349) 7673
(-0.0509714 -0.00700827 0.438123) 5936
(-0.0268685 -0.0394129 0.443797) 6855
(-0.0478261 0.0300097 0.429489) 5857
(-0.0506271 0.0236926 0.427441) 5857
(-0.0443873 0.035936 0.424065) 5849
(-0.0423565 0.0373713 0.424241) 5849
(-0.059888 0.0040958 0.415586) 5818
(0.0111831 -0.0567837 0.421838) 6721
(-0.0626809 -0.00479552 0.412839) 5818
(0.0118271 -0.0578151 0.420881) 6721
(-0.051572 0.0296294 0.415232) 5801
(-0.0288911 0.049181 0.422778) 7729
(-0.00325145 0.0592404 0.41827) 7657
(-0.00676566 -0.0487673 0.435692) 6816
(-0.0433212 0.0342307 0.427912) 5849
(-0.061071 -0.00482647 0.42016) 5818
(0.00625093 -0.0554137 0.423216) 6777
(-0.0046371 0.0525364 0.431267) 7712
(0.0102833 -0.0526623 0.425013) 6776
(-0.00480476 -0.0567259 0.421511) 6713
(-0.0519543 0.0297247 0.414855) 5802
(-0.0351522 0.0480126 0.417459) 7681
(0.00827417 0.0587418 0.417502) 7649
(0.0646429 -0.00122517 0.404331) 4866
(0.0620292 0.00178183 0.40576) 4866
(-0.0365943 -0.0258957 0.451702) 6007
(-0.0338841 0.0414152 0.434319) 7792
(-0.0473411 0.000185518 0.442148) 5927
(-0.0555621 -0.000120031 0.428565) 5873
(0.0500412 -0.010276 0.436157) 5024
(-0.0564363 0.00153284 0.425399) 5873
(-0.0564947 0.000859769 0.424404) 5873
(-0.057911 0.00372013 0.421611) 5817
(-0.0226908 -0.0541564 0.420351) 6697
(-0.0566026 0.0133173 0.419834) 5809
(0.00548013 0.0572485 0.420092) 7657
(-0.00556199 -0.0538763 0.422807) 6768
(0.0553926 -0.0077943 0.41357) 4913
(-0.0182478 0.0531818 0.424498) 7721
(0.0621562 -0.000114389 0.406065) 4866
(0.062219 -0.000197991 0.406518) 4866
(-0.0501259 0.00454022 0.439648) 5928
(-0.0486486 0.0293667 0.428199) 5857
(-0.0293086 0.0418461 0.437685) 7792
(0.0472678 -0.00919619 0.440902) 5023
(-0.0488275 0.0213551 0.433722) 5912
(-0.0558664 0.000466452 0.427923) 5873
(-0.00662572 -0.0546023 0.423449) 6761
(-0.0614897 0.00526132 0.416354) 5818
(-0.0508181 0.0253193 0.425501) 5857
(0.00501061 -0.058461 0.421887) 6713
(-0.0580974 -0.0111962 0.422857) 5881
(-0.0557476 -0.014558 0.42672) 5881
(-0.00587353 -0.0558001 0.421193) 6713
(-0.0625349 0.00290408 0.409684) 5762
(-0.0651363 -0.00153626 0.40755) 5763
(-0.0581682 0.0153638 0.413264) 5810
(-0.0450584 -0.0391339 0.416708) 5842
(-0.0454845 -0.0192773 0.444282) 6000
(-0.0465822 -0.013664 0.442382) 5991
(-0.0161409 -0.0443885 0.446098) 6863
(-0.0435473 0.035049 0.423427) 5849
(-0.0282966 -0.0391506 0.443562) 6855
(-0.0551127 -0.000363711 0.430076) 5873
(-0.0506024 -0.0235672 0.429414) 5889
(0.00867436 -0.0528033 0.432308) 6832
(-0.0558806 0.00013691 0.427773) 5873
(-0.0155749 0.0502675 0.435125) 7776
(0.0111545 -0.0558895 0.424342) 6777
(-0.0621826 -0.00144181 0.409815) 5762
(-0.0620087 0.00276772 0.409745) 5762
(-0.0508363 0.0311095 0.41831) 5801
(-0.0368543 -0.0453785 0.423115) 6745
(-0.0640391 0.0012808 0.409658) 5762
(-0.0459342 0.00442337 0.449218) 5983
(-0.0387109 -0.0263971 0.450566) 6007
(-0.0476136 -0.00979147 0.441548) 5935
(-0.02618 -0.0429552 0.441796) 6808
(-0.0377602 -0.03198 0.441135) 5952
(-0.0533135 -0.00999106 0.434207) 5937
(0.0477773 -0.010692 0.438814) 5024
(-0.0087795 -0.0529204 0.432602) 6816
(-0.0212793 -0.053914 0.419897) 6697
(0.0118062 -0.0557206 0.423458) 6777
(-0.0217523 -0.0536994 0.419671) 6697
(-0.0435392 -0.0368794 0.422538) 5897
(-0.00751462 -0.0530472 0.425845) 6760
(0.00970925 -0.0526923 0.425014) 6776
(-0.0627897 -0.00514303 0.415018) 5818
(-0.0047271 0.0511333 0.433728) 7768
(-0.0619099 0.00321329 0.410264) 5762
(-0.0510414 0.0297612 0.415878) 5801
(-0.0355103 -0.0460403 0.421841) 6689
(-0.0666735 -0.00188275 0.407749) 5763
(-0.0425187 0.0388759 0.420168) 5793
(-0.0536344 -0.008462 0.435471) 5937
(-0.0292039 0.0407485 0.439805) 7792
(-0.0497164 -0.0260779 0.426646) 5889
(0.0480405 -0.00998372 0.439243) 5024
(0.00795943 -0.0530495 0.431066) 6776
(-0.0323339 -0.0471376 0.426539) 6745
(0.055248 -0.00912543 0.425092) 4969
(0.0504038 -0.00903787 0.435186) 5024
(-0.0539525 0.0247983 0.416623) 5801
(-0.00866227 -0.0533675 0.424867) 6760
(-0.0627091 -0.00263463 0.410366) 5762
(-0.0164588 0.0489982 0.436142) 7776
(-0.0446115 0.0405578 0.419568) 5794
(0.0584642 -0.00274602 0.414038) 4921
(0.0621537 -0.00251775 0.411237) 4866
(-0.0212928 0.051144 0.424912) 7729
(-0.0208728 0.054336 0.423727) 7729
(-0.0494597 -0.0111641 0.438948) 5936
(-0.0505137 -0.0140939 0.437754) 5936
(-0.0505374 -0.0153756 0.437819) 5936
(-0.0507564 -0.0118236 0.437259) 5936
(-0.0475558 0.00186383 0.443206) 5983
(-0.041574 -0.0365554 0.428639) 5897
(-0.00232519 0.0528168 0.428241) 7712
(-0.0420725 -0.0368187 0.427455) 5897
(0.0488721 -0.00980588 0.437506) 5024
(-0.0216375 -0.0532881 0.419576) 6697
(0.0122157 -0.0562246 0.42221) 6721
(-0.0572666 0.00374633 0.423631) 5873
(-0.0429912 -0.0382124 0.420511) 5841
(-0.0557474 0.0131788 0.419961) 5809
(-0.0465352 -0.0381947 0.41629) 5842
(0.0603274 0.00306154 0.410216) 4866
(-0.0319086 0.0486476 0.420196) 7681
(0.0646475 0.00159796 0.405801) 4866
(-0.0415958 -0.0103669 0.457048) 6046
(-0.0202609 -0.0444639 0.446962) 6864
(-0.049431 -0.0129857 0.438659) 5936
(-0.0520853 -0.0218093 0.430153) 5889
(-0.0387146 -0.0328436 0.439626) 5952
(-0.0225963 -0.0507037 0.433049) 6809
(-0.000961045 0.0590752 0.421812) 7657
(-0.00351475 -0.0555054 0.431153) 6769
(0.0078865 -0.0531701 0.432876) 6832
(-0.0425316 -0.0365613 0.426981) 5897
(-0.05453 -0.00296251 0.434404) 5929
(-0.0280888 0.0409478 0.441817) 7792
(0.0545594 -0.00901183 0.427547) 4969
(-0.00758635 -0.0524076 0.427148) 6760
(-0.0508596 0.0274282 0.422449) 5857
(-0.0077654 -0.0518893 0.426788) 6760
(-0.0584993 -0.0107265 0.420953) 5825
(-0.0527657 0.0317021 0.413318) 5802
(-0.0397936 0.0365033 0.426777) 5848
(-0.0596138 0.00294935 0.416968) 5818
(-0.0357114 0.035757 0.441735) 7792
(-0.00959887 -0.0517769 0.434898) 6816
(-0.0180967 0.0460485 0.438888) 7784
(-0.0541759 0.0127574 0.426429) 5865
(0.0510887 -0.00940996 0.434602) 5024
(-0.0197659 -0.0534796 0.418989) 6697
(-0.0568133 0.0111582 0.421883) 5809
(-0.059751 -0.0101764 0.418913) 5826
(-0.00157482 0.0574445 0.4236) 7713
(-0.0059987 0.0554164 0.423072) 7713
(0.0639207 -0.0109194 0.406779) 4858
(0.0595623 0.0117601 0.415598) 4930
(-0.0425776 -0.0123161 0.451112) 5991
(-0.0436216 -0.00589917 0.451227) 5991
(-0.0150624 -0.0434428 0.448435) 6871
(-0.0503804 -0.0152946 0.438488) 5936
(-0.0272571 -0.0416723 0.442636) 6856
(-0.0153235 0.048021 0.43862) 7776
(0.0466549 -0.00861306 0.442989) 5079
(-0.0501696 0.0305802 0.423372) 5857
(-0.00931763 0.052802 0.430366) 7720
(-0.018299 0.0458836 0.439111) 7784
(-0.00613117 -0.0513714 0.428554) 6760
(-0.00633097 -0.0556514 0.41824) 6705
(-0.0354547 0.0449247 0.426617) 7737
(-0.045622 -0.0372848 0.418117) 5841
(-0.0316385 0.0457367 0.423969) 7737
(-0.0153087 -0.0427724 0.450014) 6863
(-0.0274171 -0.0378113 0.447248) 6855
(-0.0514506 -0.0104535 0.437867) 5936
(-0.0284365 -0.0398403 0.443943) 6856
(-0.0406196 -0.0379905 0.429072) 5897
(-0.0334294 -0.0431538 0.433208) 6801
(0.0473793 -0.00979486 0.441368) 5023
(-0.0553982 -0.000983909 0.428252) 5873
(-0.0200372 0.0531084 0.425285) 7729
(0.0069071 0.0510994 0.428037) 7704
(-0.0548872 0.0301682 0.412131) 5746
(0.00461983 0.0579876 0.421896) 7657
(0.00531854 0.0535706 0.425573) 7712
(-0.0191969 0.051841 0.426047) 7729
(-0.0445654 0.0396877 0.420308) 5794
(-0.0607478 0.0153834 0.412277) 5754
(0.0621249 -0.00950959 0.409846) 4858
(-0.059392 -0.0137039 0.417683) 5826
(-0.0491321 -0.0147752 0.439988) 5936
(-0.0549354 -0.00825585 0.433911) 5937
(-0.0169073 0.0455172 0.440727) 7783
(-0.055934 -0.00964532 0.430536) 5881
(-0.0532181 -0.00770149 0.43761) 5936
(-0.0502 0.0320407 0.426294) 5849
(-0.0533669 0.00163641 0.436098) 5928
(-0.015795 0.0452646 0.440908) 7775
(0.0570419 0.00924218 0.417087) 4929
(0.00801873 0.0548179 0.422327) 7649
(-0.035362 -0.0373497 0.444237) 6856
(-0.0506561 -0.00571395 0.443399) 5992
(-0.0254839 -0.0349409 0.452795) 6910
(-0.0495798 -0.0108945 0.4394) 5936
(-0.0170501 -0.0410068 0.45223) 6919
(-0.0380201 -0.0352468 0.439291) 5952
(-0.0486396 0.0303762 0.429754) 5857
(-0.0472485 -0.0254977 0.437379) 5944
(0.0535812 -0.010161 0.430435) 4969
(-0.0199377 -0.0527588 0.421592) 6697
(0.0511713 -0.00939633 0.435104) 5024
(-0.0203063 -0.0536492 0.420154) 6697
(-0.0594221 -0.00379222 0.423375) 5873
(-0.0155808 0.0456417 0.441364) 7775
(-0.0218268 -0.0528367 0.42025) 6697
(-0.00899146 -0.0556076 0.418252) 6705
(0.0618738 -0.0133361 0.409225) 4858
(-0.0345921 0.0454052 0.422783) 7737
(-0.0415062 -0.0337507 0.433757) 5952
(-0.0544223 0.00132996 0.433299) 5929
(-0.054874 0.00237918 0.429557) 5873
(-0.0534063 -0.0228882 0.425946) 5889
(-0.0450393 0.0219886 0.440966) 5912
(-0.0426718 -0.0360302 0.427398) 5897
(-0.0233124 -0.0534977 0.419991) 6697
(-0.0549955 -0.000953458 0.430108) 5873
(-0.046612 -0.0358892 0.421982) 5841
(-0.0610739 -0.00242728 0.414583) 5818
(-0.0578071 0.00347589 0.423627) 5873
(-0.0603767 -0.00117918 0.415314) 5818
(-0.00907306 -0.0564492 0.417314) 6705