/*--------------------------------*- C++ -*----------------------------------*\
| =========                 |                                                 |
| \\      /  F ield         | OpenFOAM: The Open Source CFD Toolbox           |
|  \\    /   O peration     | Version:  plus.master.MPPICInterFoam            |
|   \\  /    A nd           | Web:      www.OpenFOAM.com                      |
|    \\/     M anipulation  |                                                 |
\*---------------------------------------------------------------------------*/
FoamFile
{
    version     2.0;
    format      ascii;
    class       labelField;
    location    "11.8/lagrangian/kinematicCloud";
    object      origId;
}
// * * * * * * * * * * * * * * * * * * * * * * * * * * * * * * * * * * * * * //


35
(
58219
83905
40200
74317
83211
82027
6479
81833
78371
76613
78313
65248
79987
49107
59762
49916
76669
90134
88288
57890
81881
82864
92290
10709
74194
74189
75750
57167
64135
57420
36583
33316
91837
35339
70921
)


// ************************************************************************* //
