/*--------------------------------*- C++ -*----------------------------------*\
| =========                 |                                                 |
| \\      /  F ield         | OpenFOAM: The Open Source CFD Toolbox           |
|  \\    /   O peration     | Version:  plus.master.MPPICInterFoam            |
|   \\  /    A nd           | Web:      www.OpenFOAM.com                      |
|    \\/     M anipulation  |                                                 |
\*---------------------------------------------------------------------------*/
FoamFile
{
    version     2.0;
    format      ascii;
    class       vectorField;
    location    "11.8/lagrangian/kinematicCloud";
    object      UCorrect;
}
// * * * * * * * * * * * * * * * * * * * * * * * * * * * * * * * * * * * * * //


35
(
(1.29053e-19 -2.21221e-21 0)
(-2.95654e-20 -1.29534e-19 -2.30081e-22)
(1.95748e-20 8.5763e-20 -5.30825e-36)
(-3.20651e-20 -1.40486e-19 -2.30081e-22)
(7.2566e-20 2.10916e-19 -3.37238e-36)
(-1.25242e-19 -1.70955e-19 -1.03788e-19)
(-1.19651e-19 3.13639e-20 -2.35833e-19)
(-2.04359e-19 -1.4327e-19 -7.53873e-20)
(-1.02606e-19 -1.78875e-19 -1.03788e-19)
(-1.20036e-19 2.96803e-20 -2.35833e-19)
(2.04139e-19 1.43363e-19 7.11889e-22)
(1.1806e-19 4.093e-19 -7.77742e-35)
(4.51988e-21 2.71701e-19 3.99618e-19)
(-1.0264e-19 -2.13135e-19 -1.54485e-23)
(9.63636e-21 2.44251e-20 -2.08389e-19)
(1.22268e-20 -2.79068e-21 3.85281e-35)
(1.06821e-19 -5.92712e-20 -4.0701e-22)
(-2.11665e-19 1.30353e-19 2.35603e-19)
(-2.08272e-20 -4.57899e-19 1.02887e-34)
(-2.01058e-19 1.52379e-19 2.35603e-19)
(1.12985e-19 2.83248e-19 -7.16825e-36)
(9.53985e-20 -9.07489e-20 3.53722e-35)
(-7.77786e-21 -3.04997e-19 3.53722e-35)
(-9.61899e-20 7.6962e-19 -2.02829e-35)
(-2.78048e-19 -1.6791e-18 3.25816e-19)
(-2.30874e-19 9.72013e-20 -1.88422e-34)
(2.59125e-19 -5.91435e-20 6.21044e-36)
(7.83033e-19 -3.33274e-19 3.26642e-19)
(9.94064e-20 -2.26889e-20 2.35598e-36)
(-1.21533e-18 -2.88757e-20 1.7648e-19)
(-6.28646e-19 1.48523e-19 6.05943e-19)
(4.08165e-19 1.70485e-19 -6.26269e-36)
(4.73011e-20 2.52819e-21 2.40729e-19)
(1.93414e-19 -6.36495e-19 1.20364e-19)
(-5.09257e-19 7.19125e-19 -2.99844e-20)
)


// ************************************************************************* //
