/*--------------------------------*- C++ -*----------------------------------*\
| =========                 |                                                 |
| \\      /  F ield         | OpenFOAM: The Open Source CFD Toolbox           |
|  \\    /   O peration     | Version:  plus.master.MPPICInterFoam            |
|   \\  /    A nd           | Web:      www.OpenFOAM.com                      |
|    \\/     M anipulation  |                                                 |
\*---------------------------------------------------------------------------*/
FoamFile
{
    version     2.0;
    format      ascii;
    class       Cloud<basicKinematicMPPICParcel>;
    location    "7.2/lagrangian/kinematicCloud";
    object      positions;
}
// * * * * * * * * * * * * * * * * * * * * * * * * * * * * * * * * * * * * * //

93455
(
(-0.00240564 -0.0157636 0.000265775) 821
(0.0238345 -0.026829 0.000253434) 860
(0.00201156 0.0782394 0.000277514) 2376
(0.00475656 -0.0455726 0.000304869) 2090
(0.0289386 -0.0593777 0.000275536) 2110
(-0.0237406 -0.0468653 0.00029128) 2075
(0.0204262 -0.0467374 0.000277921) 2107
(-0.00165938 0.0188495 0.000256414) 1110
(0.0217352 0.0403371 0.000260743) 2354
(-0.00181063 0.0696117 0.000251526) 2374
(0.030706 0.052056 0.000281639) 2357
(0.0400268 0.016924 0.000263246) 1545
(-0.0187512 -0.00340512 0.00027847) 558
(0.0286018 0.0183584 0.000278522) 300
(0.0591945 -0.00300284 0.000264905) 1532
(-0.00702099 0.0393569 0.000264008) 2377
(0.00134185 -0.0157811 0.000267128) 829
(-0.0455028 0.022801 0.000292348) 1795
(0.0340075 0.0182315 0.000273291) 1545
(0.019664 0.0645005 0.00029047) 2366
(-0.0230993 0.0229048 0.000302784) 531
(-0.00377597 -0.0940943 0.000279374) 3212
(-0.0436794 -0.0239551 0.000226257) 1827
(-0.0396675 -0.0231577 0.000291463) 1826
(0.0243311 -0.024635 0.000277981) 860
(-0.0102733 -0.0587218 0.00026122) 2085
(-0.0225787 0.0227343 0.000302452) 1139
(0.00112877 0.10044 0.000261441) 3494
(-0.042094 -0.0249456 0.00027516) 1827
(0.0340094 -0.0238432 0.000298003) 1505
(-0.0229328 0.0231118 0.000248864) 1139
(0.0362436 -0.0165031 0.000293686) 1513
(-0.0351045 0.0167018 0.000277874) 1793
(-0.0209697 0.0210092 0.00031945) 1137
(0.00671092 0.0367079 0.000275646) 1472
(0.0405563 0.0168526 0.00026534) 1546
(-0.00111907 0.0604538 0.000264837) 2373
(-0.000308216 0.0704651 0.000291865) 2374
(-0.0330823 0.0270462 0.000291916) 1785
(-0.0797485 -0.00022233 0.00025746) 1816
(0.0166302 -0.0508144 0.000264809) 2099
(-0.0221674 -0.0411974 0.000280305) 2074
(0.0105105 0.0220785 0.000286024) 1096
(-0.0439206 0.0213821 0.000288175) 1795
(-0.0202091 0.0388269 0.000298839) 2386
(0.0326127 -0.0211332 0.000274967) 1505
(-0.00479639 -0.0902075 0.0181291) 3267
(-0.00807209 0.0176568 0.000301041) 1126
(-0.0191843 -0.0425857 0.000241646) 2074
(-0.01522 0.0317024 0.000274472) 1132
(0.0419275 -0.0155743 0.000280636) 1514
(-0.0170336 0.033675 0.000270754) 1475
(0.0205955 -0.0217531 0.000246113) 858
(-0.00357169 -0.0608178 0.000281389) 2093
(0.0327508 -0.0125985 0.000265264) 260
(0.0204034 0.0412805 0.000243697) 2354
(0.0241261 0.0245845 0.0002835) 1092
(0.00128193 0.015776 0.000249366) 1109
(-0.0192599 0.0432219 0.000273344) 2386
(0.0125632 0.0592989 0.000275447) 2365
(0.0463225 -0.0162145 0.00031933) 1515
(0.037522 -0.0179386 0.000281431) 1513
(0.0384159 0.0134906 0.000294418) 1545
(-0.0219886 0.0395325 0.000276521) 2386
(0.0188309 -0.00204717 0.000564679) 270
(-0.042301 -0.0254974 0.000294333) 1827
(0.00484423 0.100157 0.000288322) 3494
(0.015779 0.0137554 0.000288668) 294
(-0.100587 9.68826e-05 0.000276767) 2934
(0.0445631 -0.0167006 0.000263911) 1514
(0.0210981 -0.0217828 0.000263603) 858
(0.0237025 0.0243786 0.000299243) 1091
(0.0190746 0.0436748 0.000290425) 2354
(0.0197497 0.0384427 0.000240463) 2353
(0.0110965 0.0215204 0.000273196) 1096
(0.0255464 -0.025804 0.000287301) 1441
(0.0596944 -0.0010505 0.000285332) 1533
(-0.0157661 -0.00232562 0.000295691) 557
(0.0163526 0.0292586 0.000286534) 1099
(0.00243786 0.0201919 0.000256762) 1111
(0.00582592 0.0357264 0.000243819) 1472
(-0.0140759 -0.0489344 0.000266885) 2083
(-0.0395618 0.0201238 0.000280871) 1794
(0.0245197 0.0194 0.000271812) 298
(-0.0256956 0.0256619 0.000282229) 1400
(0.0133532 0.0271899 0.000282647) 1098
(0.0241131 -0.0159166 0.000277208) 249
(0.00560149 0.0755317 0.000278581) 2375
(-0.0157984 0.00674772 0.000252028) 534
(-0.0334883 0.0105132 0.000270242) 548
(-0.00414575 0.0190618 0.000273848) 1119
(0.0155996 0.0170006 0.000271797) 1087
(0.0194801 -0.0510029 0.000261802) 2108
(-0.0416882 -0.020547 0.000258455) 1826
(0.0258822 -0.0163866 0.000277912) 258
(-0.0265182 -0.0267924 0.000312787) 1435
(0.0333989 0.0165589 0.000283603) 1370
(-0.0809023 0.00488534 0.000257673) 1816
(-0.0109194 0.0503894 0.000260176) 2379
(0.01577 -0.00126513 0.000265914) 269
(-0.0916948 0.00241229 0.000278101) 2931
(0.011249 0.0289066 0.000265738) 1099
(0.0556625 0.00243721 0.000266053) 1532
(-0.027092 0.00687191 0.000293608) 546
(0.0223808 -0.00799323 0.000279155) 264
(-0.0380356 0.0201147 0.000297584) 1793
(-0.00125279 0.0730893 0.000276001) 2375
(-0.0202223 0.0388552 0.000281565) 2386
(0.0366531 -0.0238775 0.000323003) 1506
(-0.0543662 0.0286052 0.000280819) 1797
(-0.0265885 0.0480876 0.000290224) 2388
(0.0342978 -0.0206238 0.000293927) 1513
(-0.00215316 -0.0553865 0.000300618) 2092
(0.0354099 0.0156835 0.000282286) 1545
(0.0110024 0.0293408 0.000277224) 1099
(0.0206251 -0.0404515 0.000263347) 2106
(0.0168788 0.0201881 0.000274491) 1088
(-0.0484129 -0.0244928 0.000277511) 1828
(0.024682 -0.00806168 0.000266543) 265
(0.0206037 -0.0399059 0.000258148) 2106
(0.0525078 0.00319618 0.000288117) 1531
(0.00461423 -0.0470314 0.000306327) 2090
(0.022893 -0.0237253 0.000293215) 859
(-0.0232451 -0.046691 0.000295764) 2075
(0.0254369 0.0102763 0.000288918) 289
(-0.0310984 0.00961232 0.000278396) 547
(0.0254227 0.0228879 0.000259761) 300
(0.00473126 -0.091604 0.000300696) 3211
(0.0194162 0.026262 0.000278257) 1091
(0.0511798 0.00140173 0.00025584) 1531
(0.0252538 -0.0255549 0.000285207) 860
(0.010322 0.0295876 0.000283778) 1107
(0.0225804 0.0432415 0.00026734) 2355
(0.0193811 0.0479718 0.000253707) 2355
(0.0253808 0.0161337 0.000279324) 290
(-0.00101885 0.100421 0.000267337) 3494
(0.017133 0.035734 0.000266996) 2353
(0.00723742 -0.0185372 0.000295158) 847
(-0.000620245 0.0724167 0.000267079) 2375
(-0.0210471 0.0432914 0.000260022) 2386
(-0.0262529 0.0263073 0.000339399) 1476
(0.0268714 0.00941251 0.000268479) 282
(-0.0403231 -0.0229014 0.000282466) 1826
(0.00214356 0.0188572 0.000290824) 1110
(0.0206853 -0.0217846 0.000254488) 858
(-0.0247586 -0.0249917 0.000291606) 812
(-0.0534341 0.00917854 0.000270372) 1804
(0.00289182 0.0261315 0.000275965) 1113
(-0.0424446 -0.0242331 0.000278589) 1827
(0.0262032 -0.0315204 0.000288357) 2113
(0.0125169 -0.0185269 0.000279826) 855
(0.0207561 0.0213889 0.000238073) 1090
(0.0214419 -0.00413191 0.000308599) 263
(0.0227655 0.041393 0.000256632) 2354
(0.0247626 -0.0260025 0.000285912) 860
(-0.0248071 -0.0112846 0.000263603) 569
(0.0137861 -0.0469864 0.000253982) 2099
(-0.0416726 -0.0236927 0.000246777) 1826
(0.0379003 -0.000365815 0.000265502) 1368
(-0.00545201 0.0155895 0.00026852) 1117
(-0.00122967 -0.0566797 0.000245457) 2092
(0.0173895 -0.0461453 0.000262443) 2107
(-0.0176612 0.0374884 0.000264007) 2385
(0.0153191 -0.01581 0.000240811) 854
(0.0124678 0.0131782 0.000251405) 1085
(-0.0931709 -0.00373004 0.000291711) 2932
(0.00162277 0.0157735 0.000271816) 1109
(0.007382 -0.058098 0.000249096) 2100
(0.0178339 0.00690441 0.000263446) 278
(0.025249 -0.025542 0.000281005) 860
(0.000727901 0.0157694 0.000265348) 1109
(-0.0502417 0.0211455 0.000259024) 1796
(0.041477 -0.0168629 0.000296787) 1514
(-0.0157251 0.00315638 0.000254998) 541
(-0.0140439 0.0348191 0.000250408) 1475
(-0.0184799 -0.0326651 0.000292545) 1436
(0.0157681 -0.00123534 0.000272158) 269
(-0.100597 -0.000842384 0.000274257) 2934
(-0.0272492 -0.0272157 0.000314836) 1833
(0.0333986 -0.0091562 0.000261171) 268
(0.014993 0.0112756 0.000276941) 293
(-0.0426047 0.0202493 0.00024219) 1794
(-0.0419234 0.019925 0.000273438) 1794
(-0.0408131 -0.0238682 0.00028351) 1826
(-0.00061621 -0.0963962 0.000252939) 3213
(0.0332634 0.0222037 0.000288528) 1553
(0.0199509 0.0217029 0.000241363) 1090
(0.00212498 -0.0665879 0.000280405) 2094
(-0.0286743 -0.0550987 0.000287028) 2077
(0.0240451 -0.0243342 0.000284485) 860
(0.0332938 0.02255 0.000277477) 1553
(0.0193794 0.0638109 0.000279667) 2366
(0.011614 0.0248801 0.000258277) 1097
(0.0299766 0.058741 0.000285688) 2358
(-0.0266335 -0.0266128 0.000326293) 1406
(0.00204272 -0.0183154 0.000284732) 830
(-0.000656047 -0.102349 0.00027036) 3214
(0.0265319 0.0210752 0.000257758) 300
(0.0471458 -0.0127774 0.00029977) 1523
(0.0208666 0.041284 0.000257985) 2354
(0.0363589 0.0149206 0.000302827) 1545
(0.0016259 -0.0989006 0.000261343) 3213
(0.0441355 -0.0111124 0.000243659) 1522
(-0.0225048 0.0224566 0.000305779) 530
(-0.0189694 -0.0364913 0.000261714) 2073
(0.0256642 -0.0164178 0.00026949) 258
(0.0276403 -0.0176075 0.000288478) 251
(-0.000628134 0.0763011 0.000281413) 2376
(-0.0253174 -0.0462404 0.000289339) 2075
(-0.0646722 -0.0161518 0.000308524) 1822
(0.0221567 -0.0412299 0.000278983) 2106
(0.0217209 0.0224859 0.000289836) 1090
(0.0447939 -0.0155229 0.000316518) 1522
(-0.0430473 -0.0247569 0.000274952) 1827
(0.05964 0.00118513 0.000291051) 1533
(-0.0201088 0.019922 0.000282707) 529
(-0.025775 -0.0256513 0.000272392) 1406
(-0.0584905 -0.0156897 0.000257418) 1821
(0.0256409 -0.0256959 0.000298705) 1441
(-0.0933851 0.00181228 0.000279384) 2932
(0.00965907 0.0494075 0.000259738) 2363
(-0.0241122 -0.0242272 0.000296745) 812
(-0.00925916 -0.0238328 0.000288177) 817
(0.0220819 -0.0248477 0.000278434) 859
(-0.0349942 0.0176245 0.000279306) 1793
(0.0157672 -0.00117015 0.000290726) 269
(0.00491342 -0.0939535 0.000277098) 3212
(-0.0640869 -0.0177506 0.000276052) 1822
(0.0165039 0.0205397 0.000269079) 1088
(-0.0235527 0.0234122 0.00028549) 531
(0.0268226 -0.00807735 0.000281009) 266
(0.032909 -0.024952 0.000327963) 1505
(-0.000954505 0.0912731 0.000277646) 3491
(0.0031207 0.0157175 0.000250269) 1101
(0.0157703 0.00149956 0.000227074) 269
(0.0178346 -0.0127699 0.000263977) 247
(0.0156687 -0.0350284 0.00029468) 2105
(-0.0258323 0.0260282 0.00029225) 1476
(0.0204377 -0.021657 0.000265541) 858
(0.0470389 -0.0132507 0.000300098) 1523
(-0.00930219 0.023942 0.000265715) 1129
(0.0163101 0.0477045 0.00026584) 2363
(-0.0205295 -0.0396414 0.000279462) 2074
(-0.0742935 0.0280345 0.000311714) 1800
(0.000472257 0.100752 0.000270387) 3494
(-0.0189887 0.0433653 0.000277319) 2386
(0.0331812 0.021836 0.000272461) 1553
(-0.0235509 0.042115 0.000263636) 2386
(-0.0247979 -0.0430221 0.000292726) 2075
(0.0341923 0.0183988 0.000280391) 1545
(0.0156184 0.00475543 0.000240975) 277
(-0.00761695 -0.0672863 0.000293993) 2086
(-0.0112364 -0.028821 0.000260206) 819
(-0.0178449 0.0366714 0.000292902) 2385
(0.000998609 -0.0954298 0.00027778) 3212
(-0.0349966 0.0176441 0.000272159) 1793
(-0.0175343 0.0340406 0.000320885) 2385
(0.0267631 -0.0535386 0.000309875) 2109
(0.0223412 -0.0231902 0.000284184) 859
(-0.0344883 0.0168609 0.000294513) 1793
(-0.0272022 -0.0272845 0.000328881) 2065
(-0.0283735 0.0123022 0.000303902) 539
(-0.0407503 -0.02383 0.000277157) 1826
(0.0574602 -0.00140604 0.000264707) 1532
(0.0213743 -0.0065345 0.000273752) 264
(7.54874e-05 0.0739234 0.000263533) 2375
(-0.0120034 -0.0136564 0.000314864) 805
(0.0336535 0.0205564 0.000281607) 1545
(-0.0243307 0.024319 0.000305834) 532
(-0.0192402 0.0220103 0.000229888) 1137
(-0.0651371 -0.0349551 0.000297025) 1831
(0.0510307 0.0010732 0.00025739) 1531
(0.0169552 0.0169927 0.000240779) 1087
(-0.0155528 -0.00624839 0.000295456) 557
(0.0194514 0.0345513 0.000285609) 2353
(0.0173042 -0.0335802 0.000286713) 1440
(-0.0692793 -0.0179976 0.000272128) 1823
(0.0276894 -0.0018514 0.000302425) 274
(-0.0461712 0.020415 0.000255266) 1795
(0.0105126 -0.0539376 0.00027847) 2100
(0.0207365 0.038251 0.000317938) 2353
(0.0334174 -0.0119278 0.000250615) 260
(0.0225221 0.0401753 0.000279416) 2354
(-0.0235228 0.0428982 0.000333243) 2387
(-0.00315001 0.0381107 0.000256243) 1473
(-0.039199 0.0202481 0.00028763) 1794
(-0.00202186 0.0157732 0.000312949) 1109
(-0.0302618 0.0110807 0.000282338) 539
(0.0469069 0.0165053 0.000258793) 1547
(0.0209399 0.0216572 0.000255034) 1090
(0.0225316 0.0231856 0.000253717) 1091
(-0.01146 0.0628052 0.00025511) 2381
(0.0160223 0.0299704 0.000295371) 1100
(-0.00173617 0.0771352 0.000274556) 2376
(-0.0135323 0.0624111 0.000264782) 2381
(0.0254287 -0.0299242 0.000282445) 2113
(-0.00384516 0.0194084 0.000293522) 1119
(0.0096393 -0.0303224 0.000267444) 843
(0.00909052 -0.0245602 0.000328465) 849
(-0.0530422 -0.0273289 0.00028707) 1829
(0.0187536 -0.00254718 0.000608223) 262
(-0.0237783 -0.0237197 0.000244529) 579
(0.00333034 0.0336773 0.000292027) 1116
(-0.0168484 -0.0159863 0.000264361) 575
(-0.0406003 0.0203417 0.000286451) 1794
(-0.0464264 -0.0234596 0.000242794) 1827
(-0.0230886 -0.0414934 0.000263646) 2074
(0.0229526 0.0206367 0.000252234) 298
(0.0227454 -0.0234703 0.000273618) 859
(-0.0478178 -0.025674 0.0002721) 1828
(-0.0199501 -0.0454319 0.000257301) 2075
(0.00698212 -0.0938347 0.000248673) 3212
(-0.0652076 0.00898504 0.000267763) 1806
(0.0219922 0.0398608 0.000264586) 2354
(-0.0170459 -0.0342615 0.000324456) 2073
(0.0284035 -0.000375435 0.000274767) 274
(0.0206248 0.0407934 0.00023385) 2354
(-0.0157513 0.0505488 0.000260882) 2379
(-0.0254072 -0.0252965 0.000278693) 580
(0.0179616 -0.041358 0.000280818) 2106
(-0.040112 0.0201133 0.000273072) 1794
(0.0254262 -0.0159295 0.000281487) 258
(-0.0232974 0.0232465 0.000312937) 531
(-0.0351141 -0.0192499 0.000292286) 1825
(-0.0179157 0.0179766 0.000299157) 1136
(0.0141349 -0.0116495 0.000234751) 245
(0.0172106 0.0290954 0.000280706) 1100
(-0.0961029 0.00633348 0.000271353) 2933
(-0.0289005 -0.0118115 0.000282824) 571
(0.00417497 0.0382218 0.000287511) 1473
(-0.0462541 0.0216298 0.000267987) 1795
(0.0030181 -0.0917726 0.000262195) 3211
(0.0382671 0.0159783 0.000259638) 1545
(-0.0489729 0.0261413 0.000257362) 1796
(-0.0261625 -0.0264099 0.000286941) 1435
(0.0148387 -0.0156749 0.000284986) 854
(-0.0126038 -0.0146319 0.000298908) 805
(-0.0167638 0.0429103 0.000259123) 2386
(-0.0114934 0.022323 0.000257058) 1128
(0.0205708 0.0392687 0.000274087) 2354
(-0.00162025 0.046457 0.000243899) 2370
(-0.0235107 -0.0947731 0.000297039) 3205
(0.0242515 -0.0458849 0.000277527) 2107
(0.00180262 -0.0189051 0.000301927) 830
(0.0185213 -0.00537126 0.000773538) 262
(-0.0168584 -0.00730538 0.000295575) 566
(-0.0415638 0.0201762 0.000251648) 1794
(-0.0268233 -0.0266743 0.000293043) 1406
(-0.0352412 -0.0191342 0.000269233) 1825
(0.0230659 -0.0156366 0.000285183) 249
(0.0336135 -0.0111285 0.000234581) 268
(0.0454604 0.0128191 0.000282531) 1538
(-0.0230983 -0.0420486 0.000268967) 2074
(-0.00181879 -0.0990609 0.000275686) 3213
(0.0587555 0.000960695 0.000273629) 1532
(-0.0207859 0.0423624 0.000257683) 2386
(-0.0199912 -0.0352967 0.000300243) 2073
(0.00188799 -0.0906093 0.000289601) 3211
(0.0440101 0.000430856 0.000235423) 1530
(0.0267951 -0.00741382 0.000302192) 265
(0.000389722 -0.060684 0.000275595) 2093
(0.0235522 0.00852303 0.000257916) 280
(-0.0134923 0.0334219 0.000280752) 1132
(0.0513019 -0.000850019 0.00031562) 1531
(0.00436016 -0.0900072 0.000322054) 3211
(-0.026862 0.0268266 0.00031819) 1400
(-0.0661821 0.004303 0.000282203) 1814
(-0.0228576 -0.0421633 0.000281996) 2074
(-0.0826809 -0.00132747 0.000297211) 2929
(-0.0228474 0.0392622 0.000273592) 2386
(0.0265593 0.00996377 0.000270584) 290
(-0.0658731 0.00815777 0.000284483) 1806
(0.0340001 -0.023964 0.000276426) 1505
(-0.0738661 0.00063513 0.000269076) 1815
(-0.0196162 -0.0465544 0.000256958) 2075
(0.0179983 0.0391587 0.000250642) 2353
(-0.0318657 0.0125448 0.000296178) 540
(0.0224628 0.0226983 0.000295484) 1091
(0.0345764 0.0126918 0.000282841) 1370
(0.0137975 -0.05267 0.000261158) 2100
(0.0194855 -0.0463152 0.000284355) 2107
(-0.024724 0.0283679 0.000260276) 1476
(-0.0157586 0.0571608 0.000294366) 2380
(0.0254713 0.0220078 0.000282221) 299
(-0.018127 -0.0351318 0.00028404) 2073
(-0.0259404 -0.0457527 0.000253357) 2075
(0.024947 0.0253433 0.000289251) 1092
(0.00539829 0.0487138 0.000271071) 2370
(0.0121802 -0.0591069 0.000256568) 2101
(-0.0192133 -0.0438717 0.000278289) 2074
(0.00200371 -0.0909164 0.000304588) 3211
(0.0235744 0.0228258 0.000297072) 299
(0.0177363 0.0357002 0.000289682) 2353
(-0.0236267 0.0421104 0.000270229) 2386
(0.0153211 0.00818428 0.000289715) 285
(-0.0432902 -0.02463 0.000263808) 1827
(-0.0425677 0.0206246 0.000254436) 1794
(0.0384217 0.000583618 0.000297647) 1529
(-0.0423992 -0.0243498 0.000277055) 1827
(-0.0193501 -0.0353426 0.00027992) 2073
(0.0432053 -0.0130822 0.00026124) 1522
(0.0348439 0.0184044 0.000283438) 1545
(-0.0910533 0.000973323 0.000289247) 2931
(0.0166177 -0.0189577 0.000263512) 856
(0.0206279 0.0212946 0.000289197) 1090
(-0.0246093 -0.0245254 0.000295042) 580
(0.0255883 0.0257709 0.000323062) 1470
(-0.0975786 -0.00419859 0.000263782) 2933
(0.00174319 -0.0188486 0.00029384) 830
(-8.76053e-05 -0.0962562 0.000275689) 3213
(-0.0252321 0.0249981 0.000296565) 532
(-0.0333755 0.00926467 0.000272543) 548
(-0.0825412 0.00117754 0.0201508) 2985
(-0.0439233 0.0236639 0.000275822) 1795
(-0.0108298 -0.0483933 0.0003156) 2083
(0.00106458 0.0922843 0.000264625) 3491
(-0.0400117 -0.0232219 0.000272151) 1826
(-0.010764 0.0628194 0.000265634) 2381
(0.0258819 -0.0261323 0.000274018) 1441
(-0.102757 -0.00121021 0.000266177) 2934
(-0.0163934 0.0301119 0.000290502) 1132
(0.0368773 -0.0103008 0.000278444) 1367
(-0.0180108 -0.0348722 0.00024445) 2073
(-0.00558002 -0.0155755 0.000281355) 821
(0.000891832 -0.0584171 0.000278544) 2092
(0.0343593 0.0179644 0.000262078) 1545
(0.020215 0.0138251 0.000266393) 296
(0.0227935 0.0229669 0.000297034) 1091
(-0.025034 -0.0249071 0.000286619) 580
(-0.0506285 -0.0219642 0.000246415) 1828
(-0.0803778 0.000602059 0.000279422) 1816
(0.0176102 0.0357714 0.00026585) 2353
(0.0172127 -0.062601 0.000291843) 2101
(-0.0242087 0.0536075 0.000309192) 2388
(-0.0265462 -0.0265879 0.00029009) 1435
(0.00296116 0.0625354 0.00025927) 2373
(0.0109806 0.0218129 0.000268498) 1096
(-0.039483 0.0204807 0.000304901) 1794
(-0.0802777 0.000894912 0.000277523) 1816
(-0.0186045 -0.00483276 0.00030422) 558
(0.0184762 0.0922612 0.000315375) 3484
(-0.0258778 0.0256198 0.000248627) 1400
(0.0186375 -0.0422529 0.000300976) 2106
(0.0258383 -0.0260952 0.000264412) 1441
(-0.040889 -0.0240307 0.000300661) 1826
(0.004777 0.0156213 0.000269292) 1101
(-0.0241394 -0.0241639 0.000298077) 812
(-0.0652954 0.00966814 0.000294143) 1806
(-0.0319512 0.0118294 0.00028591) 540
(0.022254 -0.0230713 0.000291951) 859
(0.00228678 0.0157619 0.000293532) 1101
(0.0255915 0.025751 0.000296117) 1470
(-0.0256098 0.0255744 0.000298309) 532
(0.0157422 0.0373189 0.000302386) 2353
(0.0378775 0.012322 0.000290964) 1537
(-0.0183434 -0.032531 0.000293332) 1436
(0.0111677 0.0223913 0.000258413) 1096
(0.0449485 0.0152458 0.000273818) 1538
(-0.0157655 -0.00232287 0.000295109) 557
(0.0214333 0.0452594 0.00030238) 2355
(0.0078625 0.0171538 0.000255473) 1094
(0.0247812 0.0252024 0.000252221) 1092
(-0.0156584 0.00436807 0.000235918) 541
(0.0189628 -0.033344 0.000268086) 2105
(0.0448271 -0.0139584 0.000303267) 1522
(0.0456889 -0.0152021 0.000271425) 1522
(-0.042302 -0.0250064 0.000314307) 1827
(0.0375294 0.00198299 0.000302303) 1368
(-0.101595 0.00140239 0.0208614) 2990
(-0.0423735 -0.0243883 0.000291601) 1827
(-0.0241518 -0.0437674 0.000257172) 2075
(-0.00401299 -0.0906695 0.000268636) 3211
(-0.0262106 -0.0264447 0.000258968) 1435
(-0.0360011 -0.0191523 0.000275127) 1825
(-0.0876579 -0.00822045 0.000264685) 2930
(-0.0533032 0.0318212 0.000281194) 1797
(0.0182943 0.0334543 0.000282759) 1471
(-0.00442514 0.0212843 0.000293001) 1119
(0.0609712 0.00138233 0.000257626) 1533
(-0.0639566 0.0125636 0.00027408) 1806
(0.033126 -0.0204574 0.000282308) 1513
(-0.0256939 0.0458346 0.000310935) 2387
(-0.0444733 0.0200034 0.000272424) 1795
(0.020829 0.00458467 0.000319444) 279
(0.0343757 -0.000405024 0.000264775) 276
(-0.0752149 0.00243952 0.000261346) 1815
(0.0135112 -0.0604694 0.000269295) 2101
(0.0512667 -0.000897784 0.000294044) 1531
(0.0339042 -0.0185624 0.000272745) 1513
(-0.0245942 0.0246429 0.000269949) 1140
(0.0195655 0.0350771 0.000287585) 2353
(0.0234054 -0.00773986 0.000262335) 264
(-0.0257775 -0.00845616 0.000236202) 561
(-0.0223942 -0.0584923 0.000249584) 2077
(0.00331744 0.0301691 0.000262302) 1114
(-3.41234e-06 -0.059098 0.000318675) 2092
(-0.053769 -0.0250775 0.000270291) 1828
(-0.0160659 0.0409144 0.000266514) 2386
(0.0252713 -0.0255628 0.00027184) 860
(0.00569307 -0.0190465 0.000270775) 839
(0.0456784 0.0166293 0.000272951) 1546
(-0.0196201 -0.0345619 0.000314657) 2073
(0.0582753 -0.00138319 0.000278263) 1532
(-0.0466091 -0.0239145 0.000278172) 1827
(-0.00526135 -0.0155996 0.000284613) 821
(-0.0246732 0.0244568 0.000302844) 532
(0.0249672 -0.0252567 0.000278349) 860
(0.0264221 -0.0266799 0.000286016) 1441
(0.0256311 -0.025703 0.000294818) 1441
(0.0148062 0.0212266 0.000265953) 1088
(-0.0259171 -0.0257978 0.000280505) 1406
(-0.01961 -0.019618 0.000288048) 809
(-0.0216869 0.021733 0.000287305) 1138
(-0.0480031 0.0251783 0.000314453) 1796
(-0.0394649 -0.0225894 0.000285631) 1826
(-0.0833346 2.79262e-05 0.000287508) 2929
(0.0119535 -0.0604126 0.000273294) 2101
(0.00451794 0.100438 0.000280389) 3494
(0.0157674 -0.000325314 0.000298226) 269
(-0.0769179 0.00576488 0.000274866) 1816
(-0.0104617 0.0675385 0.000279937) 2382
(-0.0159712 -0.0347725 0.000319323) 2073
(-0.100426 0.00417841 0.000299198) 2934
(0.0445201 0.0147182 0.000292153) 1538
(0.0589461 -0.00310535 0.000276661) 1532
(0.0417045 -0.0167268 0.000270058) 1514
(0.0382128 0.0142817 0.000257307) 1545
(-0.0197908 0.0445763 0.000305116) 2387
(0.057042 -8.51195e-05 0.000290522) 1532
(0.0166696 0.0579004 0.000287263) 2365
(-0.0778288 -0.00186094 0.000290343) 1816
(-0.0218607 -0.040818 0.000264389) 2074
(-0.00730574 -0.0299191 0.000248906) 827
(0.036715 0.0154003 0.000287008) 1545
(0.0252707 -0.0255616 0.000283175) 860
(-0.0361894 -0.019027 0.000293467) 1825
(-0.0266215 0.0263925 0.000270268) 1400
(-0.0483753 0.0243488 0.000246235) 1796
(-0.0243907 -0.024525 0.000264921) 812
(-0.0198897 -0.0076365 0.000285183) 559
(-0.0199244 -0.018377 0.000261823) 576
(0.0426951 -0.0163242 0.000264231) 1514
(-0.0176997 -0.0365707 0.000245822) 2073
(0.0264779 0.00772389 0.000270752) 281
(-0.0131766 0.024138 0.000264956) 1129
(0.0232637 -0.0155966 0.000274913) 249
(0.021517 -0.0386003 0.000301408) 2106
(-0.00334989 -0.0960214 0.000294766) 3212
(-0.00399183 -0.102495 0.000287209) 3214
(0.00332184 -0.0421731 0.000268901) 2089
(0.00183818 0.100465 0.000267431) 3494
(-0.018623 -0.00465868 0.000303923) 558
(-0.0364388 -0.0181236 0.000270681) 1825
(-0.0213862 0.0390201 0.000298054) 2386
(-0.0259147 -0.026118 0.00028698) 1435
(0.0183141 -0.0189193 0.000249147) 856
(0.0400782 0.0181026 0.000286443) 1546
(0.00129015 0.0722158 0.000280879) 2375
(-0.0157801 0.0020324 0.000280701) 549
(-0.000414621 -0.0555697 0.000269028) 2092
(-0.0225698 -0.0224577 0.000289279) 578
(-0.0420429 -0.0253366 0.000292696) 1827
(-0.01484 -0.0316466 0.000291297) 820
(0.0587024 -0.00219284 0.000304867) 1532
(-0.0233577 -0.0516407 0.000281844) 2076
(0.0261988 -0.0472941 0.000282948) 2107
(-0.0241931 0.0240545 0.000273277) 531
(-0.0478331 -0.0240063 0.00027714) 1827
(-0.00811002 0.0386498 0.00026424) 2377
(0.000621098 0.0361113 0.000270477) 1473
(0.0210708 0.0417138 0.000280754) 2354
(-0.0432711 0.0225034 0.000305362) 1795
(-0.0379131 -0.0212604 0.000293093) 1825
(-0.0383634 0.0198637 0.000262138) 1793
(0.000697443 -0.102333 0.000261778) 3214
(-0.0423398 -0.0255032 0.00028816) 1827
(0.0143844 0.0530535 0.000272699) 2364
(0.00285782 0.0774459 0.000291475) 2376
(-0.0157814 -0.00148889 0.000277223) 549
(-0.0518404 -0.0231384 0.000264823) 1828
(-0.0381466 0.0200761 0.000305838) 1793
(0.0235425 0.024187 0.000259919) 1091
(-0.0206203 -0.0409334 0.000280844) 2074
(0.0015966 0.0157728 0.000276039) 1109
(-0.0106873 0.0555615 0.000266375) 2380
(-0.0602772 -0.0312089 0.000264792) 1830
(0.029585 0.0112755 0.000275662) 291
(0.00044452 0.0908314 0.000288923) 3491
(-0.0248876 0.0246388 0.000305334) 532
(-0.026035 0.0260366 0.00028809) 1476
(-0.0272404 -0.0272184 0.000287622) 1833
(0.0244587 0.0249492 0.000314154) 1092
(0.0180243 -0.0331717 0.000253129) 1440
(0.0462721 -0.0117389 0.000261813) 1522
(0.00227238 -0.0190284 0.000302159) 831
(-0.00562655 -0.0155728 0.000283258) 821
(-0.00163154 0.100079 0.000291907) 3494
(-0.027103 -0.027064 0.000294057) 1406
(-0.0219831 0.0507561 0.000256248) 2388
(0.023052 0.0402165 0.000265561) 2354
(-0.0268597 -0.0266595 0.000309623) 1406
(0.014562 0.0153314 0.000243417) 1086
(-0.0602138 0.0138468 0.000288416) 1805
(0.0465506 -0.0126597 0.000276166) 1522
(-0.00347004 0.0156986 0.000290638) 1117
(0.0211196 -0.0453965 0.000259884) 2107
(-0.0249124 -0.0248305 0.00028056) 580
(-0.0262818 0.0454256 0.000313026) 2387
(0.0237957 0.0271961 0.000319496) 1470
(0.00618037 -0.0544089 0.00028006) 2100
(0.000959028 0.0736713 0.000258788) 2375
(-0.0229909 -0.0229951 0.000316491) 811
(0.0614888 -0.000983984 0.000265225) 1533
(0.0214212 -0.0386929 0.000292409) 2106
(0.0251317 -0.0471717 0.000242352) 2107
(-0.0794905 -3.2791e-05 0.000260504) 1816
(3.33188e-05 0.0588287 0.000291982) 2372
(-0.0229567 0.0504675 0.000258256) 2388
(-0.0187884 -0.0030331 0.00029695) 558
(0.00177076 -0.0195904 0.000274296) 831
(-0.0534269 -0.0218991 0.000285996) 1828
(0.0374016 -0.0115457 0.000273509) 1521
(-0.000478553 -0.0945096 0.000257775) 3212
(-0.01917 -0.0402399 0.000275239) 2074
(0.0146449 0.0583135 0.000273778) 2365
(0.0391391 -0.00939018 0.000297254) 1521
(0.0334255 0.0203106 0.00026451) 1545
(0.0117977 -0.000918633 0.0324585) 125
(0.0413675 -0.0186881 0.000294262) 1514
(-0.0822786 -0.00035217 0.000255365) 2929
(-0.0272215 -0.0272324 0.000274506) 2065
(-0.064451 0.028544 0.00028894) 1798
(-0.0501466 0.0213107 0.00026943) 1796
(0.0274356 -0.0326757 0.000317032) 2113
(-0.0308233 0.0604736 0.000275432) 2390
(-0.0594653 0.0119412 0.000300075) 1805
(0.0157696 -0.00121113 0.000269983) 269
(0.0228718 0.0235288 0.000290974) 1091
(0.0472012 0.0128194 0.000283719) 1539
(-0.0803298 0.00309753 0.000252083) 1816
(-0.018476 0.0336666 0.000282698) 2385
(0.0518982 0.00325766 0.000261748) 1531
(0.0339279 -0.0237683 0.000262066) 1505
(-0.00871756 0.0569508 0.000266325) 2380
(0.0192419 0.0448573 0.000319447) 2355
(0.0156774 -0.0349228 0.00028346) 2105
(-0.018124 0.0370456 0.00029772) 2385
(-0.00156675 -0.0591487 0.000303582) 2092
(-0.0475896 0.0232432 0.000287005) 1795
(-0.0232085 -0.0078257 0.000260712) 560
(0.0473159 0.0146386 0.000272914) 1539
(-0.0254453 0.0254086 0.000297282) 532
(-0.0676979 0.00417268 0.000285798) 1814
(-0.0345777 0.0172202 0.000263052) 1793
(-0.100459 0.00566368 0.000287238) 2934
(-0.050147 0.0267966 0.000243002) 1796
(-0.0594778 0.028326 0.000272565) 1798
(0.0357398 0.0156528 0.000287638) 1545
(0.0289362 0.0228815 0.000266646) 1371
(0.0225408 0.0231575 0.000251723) 1091
(0.0308315 0.0623071 0.000286669) 2358
(-0.0223967 0.0400239 0.000272524) 2386
(-0.00371628 0.0323528 0.000277277) 1123
(0.0187424 -0.00249043 0.000324889) 262
(-0.0403427 0.0201192 0.000277882) 1794
(0.0269743 -0.0275549 0.00028327) 2113
(-0.037884 0.0194708 0.000304338) 1793
(-0.100699 0.00147185 0.000258558) 2934
(-0.0844523 0.00607747 0.000290442) 2929
(-0.0203345 -0.034464 0.000276701) 2073
(0.0300644 -0.0215046 0.000291633) 1365
(-0.0154215 -0.00748352 0.000306881) 565
(0.0400711 -0.0100533 0.000283106) 1521
(0.000256151 0.0726427 0.000276332) 2375
(0.0233354 0.0239781 0.000286638) 1091
(0.0286446 0.0502724 0.000308973) 2356
(0.000462336 0.100448 0.000281066) 3494
(-0.005041 -0.0269898 0.000248512) 825
(0.015604 0.00497758 0.00026867) 277
(0.0222004 -0.0230036 0.000298535) 859
(0.0613592 -0.00165108 0.000255331) 1533
(0.00501144 0.0367118 0.000240234) 1472
(0.0228836 -0.0236574 0.000261885) 859
(-0.00534662 -0.0589358 0.000228445) 2092
(-0.0446696 -0.0258637 0.000278248) 1827
(-0.0185373 -0.034078 0.000275175) 2073
(0.0273664 0.00904115 0.000275696) 282
(0.0244996 0.0250077 0.000288048) 1092
(-0.00305061 -0.0967085 0.00859998) 3213
(0.0453251 -0.0140774 0.000276006) 1522
(0.034517 0.0200315 0.000292702) 1545
(0.0282858 0.00834497 0.00025219) 282
(-0.0196936 -0.0348661 0.000266989) 2073
(-0.0483129 0.0269276 0.000261661) 1796
(-0.0666084 0.0077499 0.000287826) 1806
(-0.0188462 0.00230219 0.000283689) 550
(-0.00164185 -0.0600364 0.000238826) 2093
(0.0266336 0.00916625 0.000303346) 282
(0.00156637 0.0157736 0.000273718) 1109
(-0.0448408 0.0245021 0.000280926) 1795
(0.0375482 0.0193466 0.000281307) 1545
(0.0227711 0.0228029 0.000298174) 1091
(-0.0246722 0.0292595 0.000287387) 2393
(0.0432299 0.0126539 0.000261135) 1538
(-0.0656614 -0.0359726 0.000297491) 1831
(-0.000205932 0.100509 0.000264827) 3494
(-0.0972475 -0.00582052 0.000261371) 2933
(0.0378522 -0.0134582 0.000296446) 1513
(0.0311295 0.018512 0.000296681) 1370
(0.0165103 -0.041509 0.000258863) 2106
(-0.026843 0.00995752 0.00028434) 538
(-0.0352042 -0.0191105 0.00026112) 1825
(0.000855699 0.0960547 0.000296629) 3492
(0.00698269 -0.0177939 0.000262681) 838
(0.0434809 -0.0170878 0.000281893) 1514
(-0.00566552 0.0961195 0.000292276) 3493
(0.0200776 -0.00445992 0.00030407) 263
(-0.0603297 -0.0165394 0.000263158) 1821
(-0.0224475 -0.039185 0.000296068) 2074
(-0.0229828 -0.0454415 0.000294214) 2075
(0.00446953 0.0706829 0.000244016) 2375
(0.0249229 0.0253074 0.000276117) 1092
(0.0039198 0.0554188 0.000279805) 2372
(-0.0234549 0.0420357 0.00026532) 2386
(0.0192278 0.0195688 0.000306487) 1089
(0.015101 -0.0540357 0.000270619) 2100
(-0.0190846 -0.0332726 0.000266662) 2073
(0.0050689 0.0156041 0.000266159) 1101
(0.0354928 -0.0216246 0.000272881) 1513
(0.022776 -0.0414628 0.000284265) 2106
(0.0251218 0.0255391 0.00028733) 1092
(0.0112715 -0.0280506 0.000294774) 850
(-0.000512064 0.0739413 0.000272568) 2375