/*--------------------------------*- C++ -*----------------------------------*\
| =========                 |                                                 |
| \\      /  F ield         | OpenFOAM: The Open Source CFD Toolbox           |
|  \\    /   O peration     | Version:  plus.master.MPPICInterFoam            |
|   \\  /    A nd           | Web:      www.OpenFOAM.com                      |
|    \\/     M anipulation  |                                                 |
\*---------------------------------------------------------------------------*/
FoamFile
{
    version     2.0;
    format      ascii;
    class       volScalarField;
    location    "10";
    object      alpha.water;
}
// * * * * * * * * * * * * * * * * * * * * * * * * * * * * * * * * * * * * * //

dimensions      [0 0 0 0 0 0 0];

internalField   nonuniform List<scalar> 
11821
(
1
0.999966
1
0.946941
0.999999
1
0.999974
0.999942
0.999974
0.999992
0.999999
1
1
0.967159
0.963486
0.96054
0.98413
0.999711
0.999999
1
0.822625
0.621617
0.641611
0.913144
0.986172
0.999987
1
0.561367
0.347908
0.347961
0.699851
0.967849
0.999978
0.999999
0.505974
0.348372
0.347901
0.646499
0.957867
0.999774
0.999998
0.637003
0.406559
0.470993
0.75392
0.965347
0.999968
0.999999
0.894353
0.830861
0.822339
0.927993
0.986408
0.999982
1
1
1
1
1
1
1
1
0.961588
0.97423
0.963797
0.983411
1
1
1
0.852875
0.659445
0.708043
0.92461
0.986146
1
1
0.845823
0.424377
0.399366
0.782823
0.972381
1
1
0.813101
0.435469
0.349861
0.727647
0.968569
1
1
0.897326
0.653625
0.604966
0.863601
0.960501
1
1
0.891293
0.86862
0.820263
0.916293
0.985289
1
1
1
1
1
1
1
1
1
0.90692
0.931208
0.917288
0.969457
0.999752
1
1
0.677134
0.48156
0.595158
0.830153
0.972526
1
1
0.668057
0.711426
0.585146
0.674765
0.931473
1
1
0.802347
0.74113
0.638718
0.547904
0.918448
1
1
0.721861
0.666555
0.44461
0.754837
0.890646
1
1
0.684553
0.590886
0.601857
0.766578
0.962072
1
1
1
1
1
1
1
1
1
0.830645
0.827632
0.838486
0.9514
0.998508
1
1
0.430796
0.411283
0.428643
0.683116
0.953352
1
1
0.397889
0.706937
0.48299
0.449297
0.865853
1
1
0.591933
0.759722
0.757704
0.426304
0.821809
1
1
0.39799
0.477398
0.388772
0.45785
0.817948
1
1
0.427238
0.404708
0.396215
0.60868
0.92902
1
1
1
1
1
1
1
0.999999
1
0.838223
0.82064
0.843099
0.956178
0.998619
1
1
0.407239
0.409321
0.408433
0.693739
0.958473
1
1
0.393751
0.499072
0.378045
0.436979
0.87235
1
1
0.397486
0.759722
0.648762
0.420933
0.830888
1
1
0.393395
0.38743
0.388772
0.411683
0.836986
1
1
0.433675
0.399844
0.413772
0.638262
0.935831
1
1
1
1
1
1
1
0.999999
1
0.899624
0.882932
0.900656
0.973728
0.999526
1
1
0.530213
0.432298
0.496482
0.809434
0.97786
1
1
0.390276
0.377589
0.378043
0.566315
0.926985
1
1
0.393751
0.748309
0.387173
0.511666
0.904586
0.999999
1
0.397842
0.385462
0.388414
0.564862
0.909837
1
1
0.602704
0.525887
0.582286
0.788096
0.963509
1
1
0.999993
0.999994
1
1
1
1
1
0.932268
0.940894
0.933792
0.981275
0.999995
1
1
0.701605
0.507394
0.641549
0.880577
0.986667
1
1
0.521729
0.377256
0.379947
0.721329
0.958074
0.999989
1
0.537134
0.398746
0.380563
0.610321
0.953135
0.999985
1
0.596119
0.386634
0.411979
0.757535
0.939168
0.999996
1
0.765224
0.689872
0.71079
0.848848
0.975558
1
1
1
1
1
1
1
1
1
0.918351
0.939725
0.924915
0.979734
1
1
1
0.683182
0.508049
0.63653
0.861776
0.985426
1
1
0.630439
0.377519
0.482702
0.708096
0.954305
1
1
0.708983
0.415372
0.381746
0.59582
0.95035
1
1
0.739638
0.467767
0.401942
0.744503
0.929208
1
1
0.711597
0.652015
0.660561
0.799809
0.971178
1
1
1
1
1
1
1
1
1
0.868233
0.908208
0.891575
0.973707
0.999857
1
1
0.52577
0.451158
0.535168
0.801753
0.979453
1
1
0.448872
0.564403
0.4406
0.603751
0.93539
1
1
0.643336
0.66313
0.572637
0.530083
0.926041
1
1
0.587695
0.552841
0.369037
0.606016
0.901509
1
1
0.517794
0.465649
0.486675
0.706478
0.95686
1
1
1
1
1
1
1
0.999999
1
0.843683
0.862214
0.872038
0.970731
0.999713
1
1
0.405206
0.411999
0.448531
0.776709
0.976332
1
1
0.384967
0.658704
0.371178
0.532608
0.924594
1
1
0.413121
0.674093
0.669153
0.513035
0.908871
1
1
0.376823
0.462112
0.368542
0.511101
0.893421
1
1
0.442563
0.431185
0.42901
0.696082
0.952492
1
1
0.999999
1
1
1
1
0.999999
1
0.856153
0.861009
0.877163
0.97184
0.999813
1
1
0.439005
0.414055
0.471117
0.794542
0.978397
1
1
0.381299
0.484913
0.370372
0.55861
0.930804
1
1
0.376896
0.674026
0.424794
0.516766
0.917985
1
1
0.372932
0.368774
0.368494
0.55214
0.906006
1
1
0.493693
0.445857
0.480505
0.737899
0.957521
1
1
1
1
1
1
1
0.999999
1
0.872663
0.879712
0.884743
0.97334
0.999953
1
1
0.528964
0.413827
0.542917
0.823159
0.980697
1
1
0.416053
0.37053
0.369743
0.625518
0.940261
1
1
0.545692
0.601996
0.368537
0.547339
0.934302
1
1
0.442639
0.368537
0.368544
0.639435
0.919322
1
1
0.591954
0.515487
0.551292
0.776615
0.96301
1
1
0.999994
1
1
1
1
1
1
0.865377
0.882621
0.881071
0.972798
0.999943
1
1
0.532448
0.418006
0.55064
0.821533
0.980478
1
1
0.438817
0.372842
0.395872
0.632296
0.940503
1
1
0.691392
0.501905
0.401613
0.567833
0.935202
1
1
0.615979
0.368743
0.368258
0.642469
0.918514
1
1
0.585404
0.521186
0.540728
0.767061
0.962736
1
1
1
1
1
1
1
1
1
0.835424
0.867225
0.867941
0.970355
0.999813
1
1
0.464268
0.417431
0.507771
0.802146
0.978071
1
1
0.400095
0.460337
0.408091
0.602258
0.935701
1
1
0.495171
0.584262
0.586046
0.559717
0.927361
1
1
0.563378
0.397691
0.367988
0.598866
0.91085
1
1
0.508413
0.469072
0.482791
0.737888
0.959466
1
1
1
1
1
1
1
1
1
0.824551
0.846596
0.860006
0.968518
0.999754
1
1
0.411476
0.411653
0.474417
0.791802
0.976941
1
1
0.384424
0.586942
0.401222
0.58106
0.932926
1
1
0.379562
0.586999
0.586949
0.554507
0.922688
1
1
0.372392
0.405213
0.367851
0.578729
0.909089
1
1
0.474189
0.437252
0.468832
0.733876
0.959518
1
1
1
1
1
1
1
0.999999
1
0.835088
0.847505
0.861926
0.968814
0.99979
1
1
0.440048
0.410668
0.497162
0.79994
0.977683
1
1
0.384315
0.497045
0.401311
0.600905
0.935175
1
1
0.391478
0.586953
0.517488
0.561296
0.928132
1
1
0.370369
0.368722
0.367554
0.609766
0.913534
1
1
0.508201
0.470803
0.506163
0.75288
0.962862
1
1
0.999999
0.999984
1
1
1
1
1
1
1
1
1
1
1
1
1
1
1
1
1
1
1
1
1
1
1
1
1
1
1
1
1
1
1
0.999993
0.99995
0.999969
1
1
1
1
1
1
1
1
1
1
0.999852
0.999443
1
1
1
1
1
1
0.999996
0.999931
1
1
1
1
1
1
1
1
1
1
1
1
1
1
1
1
1
1
1
1
1
1
1
1
1
1
1
1
1
1
1
1
1
0.999987
0.99995
0.999995
1
1
1
1
1
1
1
1
1
0.999998
0.999836
0.999532
1
1
1
1
1
1
0.999993
0.999902
1
1
1
1
1
1
1
1
1
1
1
1
1
1
1
1
1
1
1
1
1
1
1
1
1
1
1
1
1
1
1
1
1
0.999986
0.999962
0.999998
1
1
1
1
1
1
1
1
1
0.999999
0.999812
0.998803
1
1
1
1
1
1
0.999993
0.999931
1
1
1
1
1
1
1
1
1
1
1
1
1
1
1
1
1
1
1
1
1
1
1
1
1
1
1
1
1
1
1
1
1
0.999986
0.999995
0.999995
1
1
1
1
1
1
1
1
1
1
0.999716
0.997731
1
1
1
1
1
1
0.999998
0.999979
1
1
1
1
1
1
1
1
1
1
1
1
1
1
1
1
1
1
1
1
1
1
1
1
1
1
1
1
1
1
1
1
0.999998
0.999986
0.999997
0.999997
1
1
1
0.999999
1
1
1
1
1
1
0.999476
0.997659
1
1
1
1
1
1
1
0.999996
1
1
1
1
1
1
1
1
1
1
1
1
1
1
1
1
1
1
1
1
1
1
1
1
1
1
1
1
1
1
1
0.999999
0.999997
0.999986
0.999995
1
1
1
1
1
1
1
1
1
1
1
0.999324
0.997661
1
1
1
1
1
1
1
1
1
1
1
1
1
1
1
1
1
1
1
1
1
1
1
1
1
1
1
1
1
1
1
1
1
1
1
1
1
1
1
0.999996
0.999995
0.999987
0.999995
1
1
1
1
1
1
1
1
1
1
0.999995
0.999333
0.997707
1
1
1
1
1
1
1
1
1
1
1
1
1
1
1
1
1
1
1
1
1
1
1
1
1
1
1
1
1
1
1
1
1
1
1
1
1
1
1
0.999991
0.999993
0.999997
0.999998
1
1
1
1
0.999993
1
1
1
1
1
0.999984
0.999412
0.998132
1
1
1
1
1
1
1
1
1
1
1
1
1
1
1
1
1
1
1
1
1
1
1
1
1
1
1
1
1
1
1
1
1
1
1
1
1
1
1
0.999989
0.999993
0.999998
1
1
1
1
1
0.999939
1
1
1
1
1
0.999962
0.999563
0.998773
1
1
1
1
1
1
1
1
1
1
1
1
1
1
1
1
1
1
1
1
1
1
1
1
1
1
1
1
1
1
1
0.999999
1
1
1
1
1
1
1
0.999994
0.999993
0.999998
1
1
1
1
1
0.999851
1
1
1
1
1
0.999919
0.999723
0.999212
1
1
1
1
1
1
1
1
1
1
1
1
1
1
1
1
1
1
1
1
1
1
1
1
1
1
1
1
1
1
1
0.999997
1
1
1
1
1
1
1
0.999997
0.999994
0.999998
1
1
1
1
1
0.999837
1
1
1
1
1
0.999854
0.999834
0.99944
1
1
1
1
1
1
1
1
1
1
1
1
1
1
1
1
1
1
1
1
1
1
1
1
1
1
1
1
1
1
1
0.999995
1
1
1
1
1
1
1
0.999985
0.999998
0.999999
1
1
1
1
1
0.99988
1
1
1
1
1
0.99983
0.999894
0.999601
1
1
1
1
1
1
1
1
1
1
1
1
1
1
1
1
1
1
1
1
1
1
1
1
1
1
1
1
1
1
1
0.999994
1
1
1
1
1
1
1
0.999946
0.999999
0.999999
1
1
1
1
1
0.999939
1
1
1
1
1
0.999834
0.999933
0.999734
1
1
1
1
1
1
1
1
1
1
1
1
1
1
1
1
1
1
1
1
1
1
1
1
1
1
1
1
1
1
1
0.999997
1
1
1
1
1
1
1
0.999896
0.999999
0.999999
1
1
1
1
1
0.999898
1
1
1
1
1
0.999853
0.999964
0.999808
1
1
1
1
1
1
1
1
1
1
1
1
1
1
1
1
1
1
1
1
1
1
1
1
1
1
1
1
1
1
1
1
1
1
1
1
1
1
1
0.999876
0.999999
1
1
1
1
1
1
0.99969
1
1
1
1
1
0.99989
0.999989
0.999816
1
1
1
1
1
1
1
1
1
1
1
1
1
1
1
1
1
1
1
1
1
1
1
1
1
1
1
1
1
1
1
1
1
1
1
1
1
1
1
0.999894
0.999999
1
1
1
1
1
1
0.999471
1
1
1
1
0.999999
0.99993
0.999998
0.999797
1
1
1
1
1
1
0.999996
0.999997
1
1
1
1
1
1
1
1
1
1
1
1
1
1
1
1
1
1
1
1
1
1
1
1
1
1
1
1
1
1
1
0.999943
1
1
1
1
1
1
1
0.999412
0.96909
0.999878
0.999998
0.999981
0.999882
0.999887
0.999981
0.999967
0.944741
0.987935
0.999996
0.999998
1
1
0.998324
0.999118
0.890015
0.972383
0.999842
1
1
1
0.997449
0.99658
0.917558
0.981626
0.99998
0.999999
0.999975
0.999979
0.99946
0.999823
0.954658
0.999579
1
0.999999
0.999565
0.998215
0.996285
0.999619
0.994946
0.999995
1
0.999848
0.99887
0.998332
0.996282
0.996282
1
0.999998
1
1
1
0.999918
0.999571
0.999459
0.953552
0.999922
0.999999
0.999976
0.999859
0.999888
0.999982
0.999945
0.936747
0.973941
0.999996
0.999999
1
1
0.999053
0.999357
0.944295
0.956098
0.99996
0.999999
1
1
0.99658
0.996579
0.927798
0.967922
0.999993
0.999999
0.99996
0.999958
0.999931
0.999921
0.93265
0.998704
1
0.999994
0.999321
0.998053
0.996282
0.998239
0.995143
1
1
0.999614
0.999019
0.998328
0.996281
0.996281
1
0.999996
1
1
1
0.999912
0.999544
0.999421
0.882691
0.999979
0.999999
0.999967
0.999849
0.999884
0.999981
0.999946
0.679784
0.917731
1
1
1
0.999646
0.999232
0.999698
0.572439
0.867224
1
1
1
1
0.996578
0.996579
0.670031
0.897627
1
0.999999
0.999956
0.999963
0.999914
0.999938
0.808878
0.993204
1
0.999998
0.999216
0.998135
0.996281
0.996287
0.987549
1
1
0.999424
0.999448
0.998517
0.996281
0.996281
1
0.999994
0.999999
0.999996
1
0.999925
0.999578
0.999488
0.810689
0.999972
0.999999
0.999953
0.999832
0.999867
0.999975
0.999981
0.431329
0.856736
1.00001
1
1
0.998451
0.999182
0.999927
0.420631
0.743282
0.999972
1
1
1
0.997292
0.99773
0.424094
0.807618
1.00002
0.999999
0.99996
0.999989
0.999909
0.999966
0.676531
0.982314
1
0.999987
0.999268
0.998608
0.996392
0.996286
0.970351
0.999999
0.999999
0.999424
0.999784
0.998632
0.996828
0.996281
1
0.999994
0.999999
0.999988
1
0.999942
0.999701
0.999763
0.821498
0.999975
0.99999
0.999938
0.999795
0.999834
0.999971
0.999991
0.455251
0.872113
0.99999
1
1
0.998272
0.999169
0.999988
0.413784
0.758977
0.999979
1
1
1
0.999487
0.999935
0.417738
0.820384
0.99998
0.999993
0.999974
1
0.999908
0.999991
0.696157
0.982605
0.999995
0.99982
0.999528
0.999218
0.99764
0.996315
0.969512
0.999996
0.999994
0.999424
0.999882
0.99855
0.999034
0.998102
1
0.999994
0.999999
0.999989
1
0.999049
0.999765
0.999981
0.880178
0.999478
0.999986
0.999936
0.999754
0.999817
0.999975
0.999991
0.684925
0.931387
0.999994
1
1
0.998268
0.999247
0.999991
0.577965
0.868004
0.999865
1
1
0.99958
0.999763
0.999991
0.603124
0.900898
0.999989
0.999999
1
0.999738
0.9999
0.999991
0.815255
0.989286
0.999972
0.99974
0.99991
0.999494
0.998587
0.996334
0.978265
0.999928
0.999957
0.999672
0.999961
0.998551
0.999721
0.999082
0.999998
0.999994
0.999999
0.999996
1
0.99855
0.99979
0.999999
0.895501
0.998617
0.999991
0.99994
0.999766
0.999822
0.999982
0.999991
0.878191
0.936085
0.999815
1
1
0.998267
0.999447
0.999991
0.847627
0.907601
0.998579
1
1
0.998286
0.999586
0.999991
0.830066
0.924477
0.999733
1
1
0.999209
0.999914
0.999991
0.867991
0.990346
0.999977
0.999909
1
0.999566
0.99853
0.996338
0.983149
0.999947
0.999934
0.999993
1
0.9989
0.999716
0.998983
1
0.999996
0.999998
1
1
0.998744
0.999879
0.999997
0.860529
0.998567
0.999993
0.999961
0.999849
0.999841
0.999983
0.999991
0.777706
0.89315
0.999987
1
1
0.998437
0.999615
0.999992
0.767227
0.85447
0.999257
1
1
0.998245
0.999578
0.999991
0.783313
0.88257
0.999846
1
1
0.999324
0.999969
0.999991
0.818099
0.985623
0.999997
1
1
0.999669
0.998305
0.996452
0.979288
0.999964
0.999962
1
0.999998
0.999986
0.999765
0.999025
1
0.999996
0.999999
1
0.999996
0.999801
0.999978
0.999956
0.802916
0.998846
0.999996
0.999991
0.999909
0.999866
0.999979
0.999992
0.492744
0.837409
1.00001
1
1
0.998466
0.999624
0.999992
0.449381
0.751373
0.999834
0.999998
0.999987
0.998244
0.999751
0.999827
0.525953
0.801369
1.00001
0.999999
0.999999
0.99965
0.999969
0.999842
0.701685
0.974791
1
1
1
0.999877
0.99838
0.999266
0.966121
0.999877
0.999997
1
1
0.999498
0.999719
0.999424
1
0.999996
0.999999
1
0.999958
0.999807
0.999984
0.999841
0.798353
0.998874
0.999999
0.999999
0.999908
0.999886
0.999961
0.999992
0.430518
0.838088
0.999995
0.999999
0.999908
0.998239
0.999579
0.999979
0.404195
0.735499
0.9999
0.999998
0.999872
0.998242
0.999595
0.997515
0.395155
0.78678
0.999995
0.999999
0.999985
0.99992
0.999244
0.999381
0.672985
0.968736
1
1
1
0.99996
0.999471
0.999621
0.958353
0.999649
1
1
0.999996
0.99696
0.999234
0.999634
1
0.999995
0.999999
1
0.999851
0.999557
0.999559
0.999777
0.818526
0.998186
0.999999
0.999999
0.999901
0.999902
0.99994
0.999993
0.543504
0.870238
0.999996
0.999999
0.99945
0.99822
0.999514
0.999521
0.474099
0.787481
0.998021
0.999995
0.999429
0.998319
0.998098
0.996722
0.475431
0.821497
0.999994
1
0.999958
0.999999
0.998299
0.999355
0.712749
0.970048
1
1
1
0.998823
0.999587
0.999609
0.959454
0.999468
1
1
0.999843
0.996823
0.997655
0.99954
0.999999
0.999994
0.999998
1
0.999711
0.999249
0.997988
0.999776
0.826207
0.996687
1
0.999999
0.999897
0.99992
0.999943
0.999992
0.749815
0.878952
0.999286
0.999999
0.99884
0.99822
0.999525
0.998279
0.736809
0.827793
0.994478
0.999996
0.999015
0.998885
0.996721
0.996722
0.666698
0.850284
0.999011
1
0.999952
1
0.998663
0.999515
0.753644
0.970608
1
1
1
0.996849
0.999529
0.999605
0.960854
0.999406
1
1
0.99928
0.996821
0.996821
0.99947
0.999998
0.999992
0.999998
1
0.999602
0.99892
0.997685
0.999788
0.808681
0.995262
1
0.999997
0.999895
0.999935
0.999963
0.999994
0.729404
0.845239
0.99938
0.999998
0.998717
0.99822
0.9996
0.998184
0.722979
0.789862
0.994942
0.999998
0.999264
0.999679
0.996722
0.996722
0.672629
0.826849
0.998801
1
0.999967
1
0.99936
0.999601
0.731577
0.9655
1
1
0.999847
0.996821
0.999555
0.999603
0.957322
0.999273
1
1
0.997908
0.996821
0.996821
0.99948
1
0.999992
0.999998
1
0.999555
0.998546
0.99798
0.999825
0.783628
0.995018
1
0.999995
0.999895
0.999953
0.999991
0.999998
0.522561
0.805071
0.99999
0.999996
0.998735
0.998555
0.99976
0.998849
0.47665
0.714615
0.995807
0.999998
0.999799
0.999991
0.997268
0.996722
0.528805
0.766601
0.999482
1
0.999996
1
0.999635
0.998862
0.66353
0.95312
1
1
0.998943
0.99698
0.999452
0.999389
0.947334
0.998931
1
1
0.997168
0.996821
0.996821
0.999549
1
0.999994
0.999998
1
0.99956
0.998398
0.998407
0.999881
0.78598
0.995342
0.999999
0.999988
0.9999
0.999972
0.999997
0.999997
0.444104
0.81082
0.999992
0.999991
0.998733
0.99946
0.99992
0.99968
0.390464
0.712693
0.995114
0.999996
0.999968
1
0.998614
0.996722
0.40994
0.755259
0.999851
1
1
1
0.999638
0.996856
0.648185
0.947341
1
1
0.998139
0.998881
0.997546
0.999097
0.943838
0.998608
1
1
0.99751
0.996821
0.996822
0.999675
0.999999
0.999996
0.999998
1
0.999608
0.998433
0.998773
0.999935
0.801393
0.995504
1
0.999976
0.999926
0.999979
0.999985
0.999995
0.533473
0.841698
0.999725
0.999992
0.998733
0.99987
0.99999
0.999856
0.50372
0.763997
0.991579
0.999995
0.999989
1
0.999291
0.996724
0.467598
0.783548
0.998965
1
1
1
0.99958
0.996725
0.679432
0.949618
1
1
0.998911
0.999862
0.996843
0.999069
0.945623
0.998559
1
1
0.998562
0.996822
0.996839
0.999802
1
0.999997
0.999999
1
0.999717
0.998583
0.999049
0.999967
1
1
1
1
1
1
1
1
0.999999
1
1
1
1
1
1
0.999992
1
1
1
0.999993
0.999961
0.999959
0.999078
0.99996
1
1
0.999998
0.999979
0.999937
0.999368
0.997881
0.999306
1
1
0.999993
0.999971
0.999986
0.999695
0.99788
0.99788
1
1
1
1
1
0.999645
0.998262
0.99909
1
1
1
1
1
1
0.999301
0.996511
1
1
1
1
1
1
1
1
1
1
1
1
0.999999
1
1
0.999997
1
1
1
0.999988
0.999959
0.999916
0.998543
1
1
1
0.999998
0.999961
0.999934
0.99883
0.998067
0.998801
1
1
0.99999
0.999974
0.999989
0.99961
0.997882
0.998459
1
1
1
1
0.999993
0.999388
0.998922
0.996736
1
1
1
1
1
0.999998
0.998487
0.996511
1
1
1
1
1
1
1
1
1
1
1
1
0.999999
1
1
1
1
1
1
0.999987
0.999968
0.999669
0.999192
1
1
1
0.999998
0.999935
0.999922
0.998819
0.999501
0.998461
1
1
0.999989
0.99999
0.999987
0.999455
0.997882
0.999544
1
1
1
1
0.999967
0.999272
0.999194
0.996737
1
1
1
1
1
0.999979
0.998681
0.997107
1
1
1
1
1
1
0.999997
1
1
1
1
1
0.999999
1
1
1
1
1
1
0.999989
0.999972
0.999446
0.999954
0.999706
1
1
0.999998
0.999927
0.999916
0.999285
0.999792
0.998461
1
0.999999
0.999989
0.999995
0.999982
0.99889
0.998
0.999826
1
1
1
1
0.999919
0.999343
0.999272
0.996973
1
1
1
1
1
0.999932
0.998991
0.998174
1
1
1
1
1
0.999992
0.999978
0.999999
1
1
1
1
0.999999
1
0.999996
1
1
1
1
0.999988
0.999978
0.999462
0.999995
0.999078
1
1
0.999996
0.999927
0.999899
0.999877
0.999596
0.998548
1
0.999999
0.999989
0.99999
0.999967
0.998474
0.998664
0.999831
1
0.999999
1
1
0.999859
0.99956
0.999194
0.997039
1
1
1
1
1
0.999863
0.998419
0.998242
1
1
1
1
1
0.999965
0.99997
0.999999
1
1
1
1
0.999999
1
0.999995
1
1
1
1
0.999972
0.999977
0.999891
1
0.999009
1
1
0.999994
0.999928
0.999894
0.999898
0.998857
0.999473
1
0.999999
0.999993
0.999982
0.999909
0.998473
0.999045
0.999832
1
0.999999
0.999999
1
0.999839
0.999692
0.998228
0.997026
1
1
1
1
1
0.999825
0.996768
0.998241
1
1
1
1
1
0.999969
0.999975
0.999999
1
1
1
0.999999
0.999999
0.999996
0.999997
0.999997
1
1
1
0.999949
0.999949
1
1
0.999009
1
1
0.999993
0.999942
0.999898
0.999898
0.998791
0.999664
1
0.999999
0.999996
0.999985
0.999627
0.998473
0.999008
0.999833
1
0.999999
0.999997
1
0.999843
0.999694
0.99673
0.997061
1
1
1
1
1
0.999758
0.99666
0.996941
1
1
1
1
1
0.999985
0.999987
0.999998
1
1
1
0.999999
0.999999
0.999996
0.999999
0.99999
1
1
1
0.99995
0.999918
0.999993
1
0.999009
1
1
0.999991
0.999968
0.999913
0.999924
0.99884
0.999769
1
1
0.999996
0.999996
0.999055
0.998574
0.99839
0.998103
1
0.999999
0.999997
0.999999
0.999861
0.999635
0.99666
0.998049
1
1
1
1
1
0.999654
0.99666
0.99666
1
1
1
1
0.999999
0.999998
0.999984
0.999994
1
1
1
0.999997
0.999999
0.999999
1
0.999939
1
1
0.999999
0.999963
0.999918
0.999993
1
0.999228
1
1
0.999986
0.999979
0.999936
0.999913
0.999049
0.999827
1
1
0.999996
0.999988
0.998997
0.999217
0.99808
0.997372
1
0.999999
0.999999
0.999977
0.999871
0.999337
0.996661
0.998865
1
1
1
1
1
0.999575
0.996795
0.996661
1
1
1
1
0.999998
1
0.999967
0.999976
1
1
1
0.999994
0.999999
1
1
0.999795
1
1
0.999993
0.999983
0.999924
0.999999
1
0.999814
1
1
0.999985
0.999979
0.999972
0.999497
0.998814
0.999865
1
1
0.999997
0.99999
0.998997
0.999327
0.99802
0.997372
1
0.999999
1
0.999905
0.999867
0.998178
0.998318
0.999376
1
1
1
1
0.999987
0.999496
0.997878
0.996688
1
1
1
1
0.999998
1
0.999945
0.99997
1
1
1
0.999995
1
1
1
0.999763
1
1
0.999988
0.999995
0.999981
1
0.999917
0.999888
1
1
0.999988
0.999985
0.999979
0.998412
0.998025
0.999579
1
1
0.999999
0.999981
0.999281
0.998685
0.998332
0.997372
1
0.999999
1
0.999891
0.999758
0.997721
0.999591
0.99959
1
1
1
1
0.999954
0.999393
0.998644
0.996668
1
1
1
1
1
1
0.999941
0.999972
1
1
0.999999
0.999999
1
1
1
0.999763
1
1
0.99999
0.999999
0.999987
1
0.999087
0.999883
1
1
0.999995
0.999996
0.999923
0.997878
0.997871
0.998116
1
1
1
0.99993
0.999496
0.997718
0.999443
0.997388
1
1
1
0.999913
0.99937
0.99772
0.999708
0.999516
1
1
1
1
0.999942
0.99922
0.998596
0.996553
1
1
1
1
1
1
0.999945
0.999981
1
1
0.999999
1
1
1
1
0.999763
1
1
0.999999
0.999999
0.999987
1
0.99878
0.99988
1
1
1
1
0.999685
0.997733
0.998887
0.997906
1
1
1
0.999783
0.999465
0.997718
0.999894
0.998915
1
1
0.999996
0.999946
0.998811
0.998362
0.999177
0.99736
1
1
1
1
0.999949
0.999037
0.998248
0.996536
1
1
1
1
1
1
0.999962
0.999989
1
1
0.999999
1
1
1
1
0.999795
1
1
1
1
0.999993
1
0.99878
0.999892
1
1
1
1
0.999285
0.997719
0.999773
0.997905
1
1
1
0.999701
0.999387
0.997718
0.999902
0.999782
1
1
0.999992
0.999941
0.99869
0.999031
0.997134
0.996536
1
0.999999
1
1
0.999976
0.998931
0.998082
0.996536
1
1
1
1
1
1
0.99998
0.99999
1
1
1
1
1
1
1
0.999956
1
1
1
1
1
0.999825
0.999189
0.999893
1
1
1
1
0.999185
0.997718
0.999829
0.997878
1
1
1
0.999734
0.999397
0.997718
0.999903
0.99978
1
1
0.999993
0.999921
0.99869
0.999033
0.996538
0.996537
1
0.999999
1
0.999997
0.999992
0.998863
0.998309
0.996895
1
1
1
1
1
1
0.999983
0.999987
1
1
1
1
1
1
1
1
1
1
1
1
1
0.999102
0.999986
0.999149
1
1
1
1
0.999318
0.997718
0.999883
0.997878
1
1
1
0.999861
0.999477
0.997718
0.99991
0.999864
1
1
0.999998
0.999921
0.99869
0.999038
0.996539
0.996539
1
0.999999
1
0.999962
0.999978
0.998844
0.999162
0.998816
0.999999
1
1
0.999797
0.999275
0.999973
1
0.999999
1
1
0.996398
0.994967
0.998851
0.999175
0.99994
0.999994
0.999515
1
0.999629
0.996699
0.999339
0.99993
0.999112
0.999961
0.964402
0.999994
0.999985
0.999956
0.999961
0.999996
0.999999
0.999957
1
1
1
1
1
0.998407
0.999954
0.999711
1
1
1
0.999694
0.999723
0.999984
1
0.999998
1
0.999976
0.9953
0.99497
0.999044
0.999147
0.999967
0.999977
0.999792
0.999997
0.998863
0.994991
0.999342
0.999968
0.999112
0.999961
0.988348
0.999996
0.999987
0.999815
0.999932
0.999998
0.999868
0.999931
0.96633
0.999974
1
1
1
1
0.99957
0.999834
0.968878
0.999943
0.999999
0.999793
0.998726
0.999332
0.99998
0.999946
0.988644
0.999999
0.999999
0.999886
0.998725
0.999472
0.999981
0.999975
1
1
1
0.999297
0.999851
0.999981
1
0.999999
1
0.999905
0.995303
0.996587
0.998992
0.999268
0.999984
0.999974
1
0.999992
0.997323
0.99501
0.99932
1
0.999194
0.999963
0.984534
0.999998
0.999959
0.99966
0.999894
1
0.9986
0.999904
0.951354
0.999999
0.999999
1
1
1
0.997736
0.999688
0.956164
0.999999
0.999999
0.999659
0.998725
0.999454
0.999818
0.999766
0.982282
0.999999
1
0.999686
0.998725
0.999498
0.999978
0.999955
1
1
0.999991
0.999094
0.999856
0.999985
1
0.999999
1
0.999893
0.995904
0.998572
0.998842
0.999469
0.999981
0.999985
1
0.999996
0.995745
0.995024
0.999335
0.999782
0.999562
0.999961
0.962352
0.999998
0.999895
0.999542
0.999843
1
0.998779
0.999902
0.864449
0.999999
0.999999
1
1
1
0.997707
0.999535
0.872031
0.999999
1
0.999609
0.998725
0.999658
0.998132
0.999564
0.94675
1
1
0.999415
0.998725
0.999534
0.999956
0.999927
1
1
0.99991
0.999408
0.999853
0.999994
1
0.999984
1
0.999774
0.99847
0.999217
0.998822
0.99956
0.999975
0.999983
0.99947
0.999996
0.995609
0.995068
0.999537
0.998705
0.999711
0.999953
0.934867
0.999998
0.999825
0.999275
0.999807
1
0.99954
0.999919
0.760973
1.00003
0.999999
0.999999
0.999999
1
0.997705
0.999544
0.748589
0.999982
0.999999
0.999453
0.998725
0.99968
0.997704
0.9995
0.891375
1.00001
1
0.999135
0.998725
0.999629
0.999867
0.999916
0.999999
0.999999
0.999851
0.999848
0.999854
0.999993
1
0.999968
1
0.999725
0.999808
0.999212
0.998821
0.999586
0.999975
0.999942
0.998939
0.999856
0.995599
0.996905
0.999798
0.998624
0.99975
0.999952
0.940949
0.999914
0.999533
0.998745
0.999824
0.999999
0.999735
0.999939
0.781668
0.999986
0.999998
0.999999
1
1
0.997701
0.999595
0.76413
0.99999
0.999997
0.999009
0.999109
0.999774
0.997701
0.999526
0.89555
1
0.999998
0.998963
0.998725
0.999795
0.999662
0.999915
0.999999
0.999999
0.999856
0.99989
0.999851
0.999994
1
0.999976
1
0.999801
0.999947
0.999061
0.99882
0.999617
0.999978
0.99993
0.999281
0.999489
0.9956
0.998897
0.999755
0.998622
0.999795
0.999952
0.963772
0.999823
0.998728
0.998713
0.999908
0.999999
0.999691
0.999947
0.874153
0.999984
0.999993
0.999992
1
0.999901
0.997698
0.999697
0.861976
0.999977
0.999986
0.99892
0.999623
0.999822
0.997698
0.999606
0.934495
0.99999
0.999991
0.998918
0.999037
0.999929
0.999432
0.99992
0.999999
0.999999
0.99993
0.999874
0.999864
0.999997
0.999999
0.999995
1
0.999952
0.999962
0.998911
0.99882
0.999674
0.999984
0.99993
0.999921
0.999266
0.996715
0.999837
0.999386
0.998618
0.999841
0.999943
0.969929
0.999878
0.998436
0.999086
0.999992
0.999368
0.999601
0.999949
0.897742
0.999948
0.999987
0.999989
1
0.99953
0.997698
0.999831
0.898784
0.999955
0.999991
0.999073
0.999935
0.99977
0.997698
0.999723
0.943803
0.999993
0.999991
0.998918
0.999631
0.999959
0.999387
0.999934
0.999999
0.999998
0.999968
0.999844
0.999915
1
0.999997
0.999997
1
0.999999
0.99993
0.99891
0.998963
0.999762
0.999991
0.999951
0.99991
0.999444
0.999813
0.999941
0.998963
0.998613
0.999903
0.999909
0.964278
0.9999
0.999294
0.999777
0.999999
0.998598
0.999591
0.999949
0.862202
0.999935
0.999986
0.999989
1
0.998632
0.997886
0.999946
0.863314
0.999911
0.999991
0.999801
1
0.999508
0.997698
0.999854
0.926963
0.999994
0.999993
0.99917
0.999936
0.999959
0.999429
0.999955
0.999999
0.999993
0.999965
0.999845
0.999971
1
0.999995
0.999875
1
1
0.999808
0.99891
0.999406
0.999829
0.999994
0.999992
0.999366
0.999899
0.999999
0.999941
0.998938
0.999053
0.999963
0.999909
0.950655
0.999971
0.999997
0.999999
1
0.998888
0.999657
0.999917
0.799149
0.999995
0.999993
0.999994
1
0.998231
0.998813
0.999994
0.784045
0.999941
0.999993
1
1
0.998745
0.99811
0.999953
0.891757
0.999996
0.999994
0.999966
0.999998
0.999953
0.999532
0.999976
0.999999
0.999988
0.999963
0.999895
0.999995
0.999999
0.999992
0.999655
1
1
0.999751
0.99891
0.999647
0.999853
0.999995
0.999992
0.998961
1
1
0.999879
0.998937
0.999511
0.999996
0.999929
0.945946
0.999999
0.999999
1
1
0.999783
0.99982
0.999899
0.788877
0.999997
1
1
1
0.998228
0.999354
0.999998
0.762668
0.999942
0.999999
1
1
0.998233
0.998974
0.999994
0.879994
1
0.999997
1
1
0.999818
0.999642
0.999993
0.999998
0.999989
0.999971
0.999974
1
0.999999
0.999986
0.999629
1
1
0.999763
0.999684
0.999673
0.999862
0.999988
0.999884
0.999078
1
1
0.999735
0.998935
0.999604
0.999999
0.999992
0.950044
1
1
1
1
0.99987
0.999944
0.999965
0.810297
0.999997
1
1
0.99997
0.998227
0.999546
0.999998
0.787785
0.999824
1
1
1
0.998228
0.999244
0.999999
0.888032
1
1
1
1
0.999223
0.99971
1
0.999995
0.999994
0.999989
1
1
0.999999
0.99998
0.999629
1
1
0.999925
0.999978
0.999667
0.999883
0.999971
0.999664
0.999319
1
1
0.999678
0.998935
0.999619
0.999999
0.999999
0.955222
1
1
1
1
0.999862
0.999973
0.999999
0.827701
0.999851
1
1
0.999889
0.998227
0.999711
0.999998
0.806217
0.999272
1
1
0.999991
0.998227
0.999349
1
0.891009
1
1
1
1
0.998927
0.999775
1
0.999994
0.999999
0.999999
1
1
1
0.999974
0.999742
1
1
1
0.999963
0.999691
0.999924
0.999948
0.999627
0.999337
1
1
0.999704
0.998935
0.999648
0.999999
0.999999
0.954114
1
1
1
0.999992
0.999797
0.999985
0.999999
0.819036
0.999894
1
1
0.999766
0.998659
0.999879
0.999993
0.792399
0.999093
1
1
0.99995
0.998227
0.999504
1
0.881439
1
1
1
1
0.999192
0.999857
1
0.999994
0.999999
1
1
1
0.999999
0.999969
0.999854
1
1
1
0.999945
0.999793
0.999968
0.999926
0.999627
0.99921
1
1
0.999798
0.998935
0.999721
0.999997
0.999893
0.948463
1
1
1
0.999672
0.9996
0.999993
0.999999
0.798013
0.999991
1
1
0.999739
0.999794
0.999976
0.999993
0.764015
0.999068
1
1
0.999863
0.998227
0.999734
1
0.866469
1
1
1
1
0.999667
0.999941
1
0.999994
0.999999
0.999995
1
1
0.999996
0.99996
0.999744
1
1
0.999999
0.999913
0.999933
0.999993
0.99992
0.999708
0.999228
1
1
0.999852
0.999088
0.999846
0.999982
0.999689
0.946367
1
1
1
0.999262
0.999587
0.999999
0.999999
0.795256
0.999995
1
1
0.999849
0.999997
0.999998
0.999998
0.76266
0.998694
1
1
0.999706
0.999126
0.999932
1
0.865856
1.00001
1
1
0.999955
0.999913
0.999987
1
0.999999
0.999999
0.999994
1
1
0.999992
0.999942
0.999428
1
1
0.999995
0.999902
0.999992
0.999996
0.999921
0.999886
0.999376
1
1
0.999833
0.999806
0.999955
0.999962
0.999666
0.949861
1
1
1
0.999262
0.999677
0.999999
0.99996
0.807174
0.999885
1
1
0.999963
0.999997
0.999999
1
0.777517
0.998336
1
1
0.999653
0.99999
0.999996
1
0.875267
1
1
1
0.999693
0.999955
0.999993
1
1
1
1
1
1
1
1
1
1
1
1
1
1
1
1
1
1
1
1
1
1
1
1
1
1
1
1
1
1
1
1
1
1
1
1
1
1
1
1
1
1
1
1
1
1
1
1
1
1
1
1
1
1
1
1
1
1
1
1
1
1
1
1
1
1
1
1
1
1
1
1
1
1
1
1
1
1
1
1
1
1
1
1
1
1
1
1
1
1
1
1
1
1
1
1
1
1
1
1
1
1
1
1
1
1
1
1
1
1
1
1
1
1
1
1
1
1
1
1
1
1
1
1
1
1
1
1
1
1
1
1
1
1
1
1
1
1
1
1
1
1
1
1
1
1
1
1
1
1
1
1
1
1
1
1
1
1
1
1
1
1
1
1
1
1
1
1
1
1
1
1
1
1
1
1
1
1
1
1
1
1
1
1
1
1
1
1
1
1
1
1
1
1
1
1
1
1
1
1
1
1
1
1
1
1
1
1
1
1
1
1
1
1
1
1
1
1
1
1
1
1
1
1
1
1
1
1
1
1
1
1
1
1
1
1
1
1
1
1
1
1
1
1
1
1
1
1
1
1
1
1
1
1
1
1
1
1
1
1
1
1
1
1
1
1
1
1
1
1
1
1
1
1
1
1
1
1
1
1
1
1
1
1
1
1
1
1
1
1
1
1
1
1
1
1
1
1
1
1
1
1
1
1
1
1
1
1
1
1
1
1
1
1
1
1
1
1
1
1
1
1
1
1
1
1
1
1
1
1
1
1
1
1
1
1
1
1
1
1
1
1
1
1
1
1
1
1
1
1
1
1
1
1
1
1
1
1
1
1
1
1
1
1
1
1
1
1
1
1
1
1
1
1
1
1
1
1
1
1
1
1
1
1
1
1
1
1
1
1
1
1
1
1
1
1
1
1
1
1
1
1
1
1
1
1
1
1
1
1
1
1
1
1
1
1
1
1
1
1
1
1
1
1
1
1
1
1
1
1
1
1
1
1
1
1
1
1
1
1
1
1
1
1
1
1
1
1
1
1
1
1
1
1
1
1
1
1
1
1
1
1
1
1
1
1
1
1
1
1
1
1
1
1
1
1
1
1
1
1
1
1
1
1
1
1
1
1
1
1
1
1
1
1
1
1
1
1
1
1
1
1
1
1
1
1
1
1
1
1
1
1
1
1
1
1
1
1
1
1
1
1
1
1
1
1
1
1
1
1
1
1
1
1
1
1
1
1
1
1
1
1
1
1
1
1
1
1
1
1
1
1
1
1
1
1
1
1
1
1
1
1
1
1
1
1
1
1
1
1
1
1
1
1
1
1
1
1
1
1
1
1
1
1
1
1
1
1
1
1
1
1
1
1
1
1
1
1
1
1
1
1
1
1
1
1
1
1
1
1
1
1
1
1
1
1
1
1
1
1
1
1
1
1
1
1
1
1
1
1
1
1
1
1
1
1
1
1
1
1
1
1
1
1
1
1
1
1
1
1
1
1
1
1
1
1
1
1
1
1
1
1
1
1
1
1
1
1
1
1
1
1
1
1
1
1
1
1
1
1
1
1
1
1
1
1
1
1
1
1
1
1
1
1
1
1
1
1
1
1
1
1
1
1
1
1
1
1
1
1
1
1
1
1
1
1
1
1
1
1
1
1
1
1
1
1
1
1
1
1
1
1
1
1
1
1
1
1
1
1
1
1
1
1
1
1
1
1
1
1
1
1
1
1
1
1
1
1
1
1
1
1
1
1
1
1
1
1
1
1
1
1
1
1
1
1
1
1
1
0.999998
0.999997
0.999999
1
1
1
1
1
1
1
1
1
1
1
1
1
1
1
1
1
1
1
1
1
1
1
1
1
1
1
1
1
1
1
1
1
1
1
1
1
1
1
1
1
1
1
1
1
1
1
1
1
1
1
1
0.999999
0.999991
0.999995
0.999999
1
1
1
1
1
1
1
1
1
1
1
1
1
1
1
1
1
1
1
1
1
1
1
1
1
1
1
1
1
1
1
1
1
1
1
1
1
1
1
1
1
1
1
1
1
1
1
1
1
1
1
1
0.999992
0.999988
0.999995
1
1
1
1
1
1
1
1
1
1
1
1
1
1
1
1
1
1
1
1
1
1
1
1
1
1
1
1
1
1
1
1
1
1
1
1
1
1
1
1
1
1
1
1
1
1
1
1
1
1
1
1
1
1
1
1
1
1
1
1
1
1
1
1
1
1
1
1
1
1
1
1
1
1
1
1
1
1
1
1
1
1
1
1
1
1
1
1
1
1
1
1
1
1
1
1
1
1
1
1
1
1
1
1
1
1
1
1
1
1
1
1
1
1
1
1
1
1
1
1
1
1
1
1
1
1
1
1
1
1
1
1
1
1
1
1
1
1
1
1
1
1
1
1
1
1
1
1
1
1
1
1
1
1
1
1
1
1
1
1
1
1
1
1
1
1
1
1
1
1
1
1
1
1
1
1
1
1
1
1
1
1
1
1
1
1
1
1
1
1
1
1
1
1
1
1
1
1
1
1
1
1
1
1
1
1
1
1
1
1
1
1
1
1
1
1
1
1
1
1
1
1
1
1
1
1
1
1
1
1
1
1
1
1
1
1
1
1
1
1
1
1
1
1
1
1
1
1
1
1
1
1
1
1
1
1
1
1
1
1
1
1
1
1
1
1
1
1
1
1
1
1
1
1
1