/*--------------------------------*- C++ -*----------------------------------*\
| =========                 |                                                 |
| \\      /  F ield         | OpenFOAM: The Open Source CFD Toolbox           |
|  \\    /   O peration     | Version:  plus.master.MPPICInterFoam            |
|   \\  /    A nd           | Web:      www.OpenFOAM.com                      |
|    \\/     M anipulation  |                                                 |
\*---------------------------------------------------------------------------*/
FoamFile
{
    version     2.0;
    format      ascii;
    class       volScalarField;
    location    "10";
    object      epsilon;
}
// * * * * * * * * * * * * * * * * * * * * * * * * * * * * * * * * * * * * * //

dimensions      [0 2 -3 0 0 0 0];

internalField   nonuniform List<scalar> 
11821
(
0.360146
0.492546
0.336416
0.56234
0.40815
0.287418
0.408372
0.448704
0.445287
0.400812
0.336472
0.267393
0.202959
0.571046
0.654093
0.647722
0.55874
0.450829
0.347924
0.258513
0.762731
0.913994
0.911409
0.757277
0.576753
0.428023
0.309983
0.847502
0.795649
0.891112
0.954063
0.690009
0.489663
0.346311
0.83404
0.634443
0.819129
0.981902
0.72456
0.507104
0.356156
0.81469
0.808963
0.87478
0.849879
0.650993
0.471043
0.335809
0.699893
0.801024
0.788857
0.678429
0.532372
0.401364
0.291968
0.411951
0.446263
0.44175
0.402127
0.341586
0.274125
0.210235
0.558085
0.621136
0.615865
0.545488
0.45079
0.353172
0.265223
0.699918
0.796182
0.805863
0.706105
0.562827
0.429284
0.315492
0.775035
0.709689
0.772559
0.84096
0.653961
0.484803
0.350326
0.760566
0.651557
0.673804
0.90085
0.68575
0.501776
0.360185
0.74642
0.771729
0.839916
0.79159
0.633505
0.472119
0.341687
0.661017
0.734241
0.737874
0.656286
0.532123
0.408275
0.299174
0.426403
0.4591
0.453324
0.412282
0.349748
0.281258
0.217267
0.58231
0.637558
0.627865
0.560312
0.462686
0.361214
0.272025
0.664981
0.663696
0.725898
0.704696
0.578114
0.439523
0.32237
0.63361
0.660773
0.736587
0.765347
0.663965
0.496639
0.357442
0.615533
0.613558
0.677006
0.737488
0.692702
0.514255
0.367437
0.638562
0.652747
0.659365
0.765348
0.648523
0.487262
0.349347
0.658432
0.640329
0.679467
0.663067
0.55581
0.421205
0.306271
0.434739
0.468283
0.462665
0.420219
0.35639
0.287919
0.224345
0.597928
0.639583
0.636596
0.571107
0.470137
0.36721
0.27847
0.639021
0.657738
0.703153
0.703204
0.588136
0.446113
0.32832
0.558529
0.607982
0.648014
0.715941
0.675827
0.504993
0.3633
0.5239
0.546514
0.62177
0.687657
0.693467
0.522344
0.372834
0.565906
0.540192
0.611153
0.686644
0.665064
0.495593
0.3549
0.635212
0.633799
0.651395
0.663633
0.564226
0.427049
0.311751
0.433187
0.469638
0.464439
0.42192
0.359621
0.293053
0.230445
0.597863
0.64836
0.639771
0.568979
0.469402
0.370039
0.283683
0.675256
0.711468
0.744165
0.709758
0.584255
0.446209
0.332271
0.607171
0.567703
0.673006
0.759487
0.674143
0.50372
0.366339
0.524075
0.535161
0.618799
0.729988
0.697206
0.520274
0.375381
0.611389
0.55661
0.647719
0.718231
0.657688
0.491889
0.357173
0.648821
0.65168
0.674301
0.660443
0.553894
0.424681
0.314938
0.42319
0.460757
0.457065
0.417721
0.359179
0.295308
0.233973
0.577284
0.638873
0.629079
0.557807
0.463475
0.36936
0.285947
0.702549
0.752005
0.782865
0.710998
0.572434
0.441425
0.332662
0.664613
0.639146
0.784703
0.815553
0.660811
0.495264
0.365064
0.600955
0.585927
0.662639
0.817365
0.685519
0.51043
0.373567
0.652647
0.63473
0.72787
0.767291
0.639022
0.481715
0.355693
0.654703
0.692469
0.714287
0.656441
0.538883
0.419047
0.315343
0.415485
0.451387
0.447979
0.411458
0.356374
0.295004
0.235081
0.557458
0.621379
0.611403
0.54429
0.455603
0.366282
0.285643
0.690833
0.776915
0.796401
0.695856
0.558894
0.434623
0.330528
0.703756
0.708564
0.820463
0.826786
0.643584
0.485188
0.361314
0.678844
0.569717
0.75004
0.845391
0.670052
0.500153
0.369668
0.687056
0.660231
0.766599
0.77829
0.622198
0.472981
0.352733
0.630244
0.705492
0.707716
0.64189
0.528176
0.414265
0.314193
0.413191
0.44562
0.441413
0.406666
0.3535
0.293621
0.234854
0.548979
0.603293
0.592846
0.531917
0.44865
0.362617
0.284021
0.662874
0.741234
0.748549
0.668187
0.54531
0.427965
0.327407
0.688583
0.627907
0.806167
0.774609
0.621803
0.475553
0.356976
0.626693
0.579648
0.664338
0.803297
0.647419
0.490207
0.365166
0.626467
0.645523
0.72141
0.747191
0.607425
0.465856
0.3492
0.605144
0.659031
0.680927
0.627352
0.521836
0.410285
0.311955
0.412958
0.44332
0.438286
0.403757
0.351278
0.29223
0.234353
0.548022
0.593607
0.582238
0.524471
0.443727
0.35938
0.282264
0.624947
0.6592
0.696309
0.645749
0.536166
0.422719
0.324414
0.570477
0.638986
0.689193
0.717733
0.606661
0.468533
0.353088
0.563462
0.591466
0.677141
0.708375
0.627415
0.4824
0.360968
0.581978
0.599614
0.649391
0.692975
0.595922
0.459833
0.345467
0.574382
0.594365
0.624289
0.607472
0.514605
0.405461
0.309093
0.411398
0.441618
0.436766
0.402138
0.349621
0.290933
0.233684
0.544027
0.585856
0.576827
0.520108
0.440115
0.356715
0.280661
0.603161
0.643338
0.675484
0.636812
0.530054
0.41865
0.321989
0.566652
0.619498
0.665417
0.699681
0.598568
0.463446
0.35012
0.502282
0.556847
0.661045
0.700535
0.619171
0.476995
0.357785
0.535506
0.554843
0.642243
0.674053
0.587154
0.454169
0.342364
0.569659
0.591562
0.619288
0.597579
0.506637
0.400439
0.306512
0.407049
0.439061
0.43424
0.399261
0.346779
0.288548
0.231985
0.536673
0.585332
0.575062
0.516308
0.435998
0.353163
0.278012
0.613278
0.669311
0.691573
0.635901
0.525062
0.414048
0.318522
0.581711
0.585592
0.701926
0.712447
0.593904
0.458165
0.346112
0.510101
0.539995
0.617178
0.717883
0.614843
0.471246
0.353535
0.551462
0.553408
0.658671
0.682073
0.579205
0.447784
0.338135
0.564428
0.595968
0.625682
0.59236
0.498198
0.394727
0.302909
0.400558
0.432744
0.427674
0.392844
0.34119
0.284108
0.228798
0.527163
0.580239
0.568682
0.508698
0.428514
0.34695
0.273441
0.618595
0.676757
0.709022
0.632941
0.516531
0.406206
0.312679
0.591058
0.601341
0.726761
0.727177
0.58557
0.449244
0.339391
0.568784
0.554027
0.66436
0.736617
0.60671
0.461948
0.346567
0.558283
0.578202
0.679439
0.696499
0.570139
0.438816
0.331567
0.552849
0.605984
0.632465
0.587841
0.489561
0.387089
0.297417
0.393371
0.423461
0.417416
0.383521
0.333606
0.278428
0.224843
0.517547
0.566991
0.552825
0.494525
0.417353
0.338808
0.267823
0.606904
0.667158
0.686086
0.612575
0.501358
0.395471
0.305455
0.591042
0.607333
0.712874
0.698111
0.566114
0.436302
0.330985
0.559305
0.541844
0.650185
0.703831
0.585411
0.44839
0.337857
0.57273
0.566692
0.66038
0.673187
0.552662
0.426669
0.323544
0.53671
0.5907
0.614405
0.571258
0.476499
0.377318
0.290774
0.385952
0.413617
0.407197
0.374518
0.326389
0.27302
0.221081
0.5056
0.548009
0.533998
0.479406
0.40618
0.330925
0.262556
0.58072
0.627464
0.6462
0.587363
0.485225
0.384917
0.298728
0.549923
0.586835
0.669593
0.659794
0.545347
0.423621
0.3232
0.507395
0.5484
0.649776
0.665717
0.563288
0.43509
0.329789
0.534585
0.55058
0.628161
0.637492
0.53332
0.41456
0.316055
0.52111
0.558399
0.582106
0.549103
0.461619
0.367422
0.284514
0.379085
0.405997
0.39991
0.367974
0.320867
0.268616
0.217738
0.493541
0.532779
0.520808
0.468859
0.398086
0.324893
0.258133
0.558529
0.602938
0.621697
0.570877
0.474065
0.377214
0.293326
0.532635
0.584941
0.64385
0.636905
0.531531
0.414648
0.317114
0.482216
0.54054
0.645311
0.642996
0.548546
0.425703
0.323501
0.492015
0.537513
0.61376
0.616832
0.519578
0.405588
0.310065
0.505391
0.541685
0.565453
0.533258
0.450224
0.359665
0.279309
0.372438
0.399974
0.394123
0.362478
0.315869
0.264299
0.214251
0.482731
0.525245
0.5138
0.461857
0.39173
0.319468
0.253736
0.550051
0.604071
0.621116
0.563909
0.466497
0.370774
0.288163
0.527021
0.567513
0.647023
0.636214
0.523698
0.407506
0.311426
0.481494
0.536211
0.609343
0.648045
0.541489
0.418337
0.317639
0.492491
0.527134
0.612384
0.612463
0.510462
0.398151
0.304393
0.493536
0.536004
0.559468
0.523985
0.441522
0.353018
0.274284
0.032679
0.0432822
0.106546
0.0760768
0.0552132
0.0415418
0.0343309
0.0435691
0.23939
0.16851
0.118435
0.0835945
0.0598259
0.0442838
0.0358985
0.0442502
0.247014
0.174823
0.123408
0.087309
0.0625156
0.0462664
0.0376014
0.0472284
0.232754
0.168326
0.12117
0.0871778
0.0633586
0.0476245
0.0395889
0.0524848
0.205534
0.155234
0.115523
0.0854153
0.0636683
0.0491964
0.0424893
0.0607116
0.146208
0.111778
0.08523
0.0652603
0.0507182
0.0409061
0.0365527
0.0520147
0.182955
0.134636
0.0994185
0.0739887
0.0559618
0.0439043
0.0380337
0.051818
0.21875
0.158327
0.114566
0.0834132
0.0616466
0.0471704
0.039695
0.0518797
0.244341
0.175845
0.126188
0.0909086
0.0663431
0.0500221
0.0413498
0.052572
0.251494
0.181876
0.131007
0.0945857
0.0690893
0.0521242
0.0432224
0.0558168
0.238388
0.17572
0.128815
0.0944516
0.0699954
0.0536469
0.045509
0.0618344
0.212835
0.16311
0.123193
0.092618
0.0703204
0.0553998
0.0488279
0.0712135
0.154024
0.11946
0.0924266
0.0717611
0.0564985
0.0461435
0.0418228
0.0610058
0.190589
0.142427
0.106874
0.0807575
0.0619305
0.049214
0.0432359
0.0604225
0.225689
0.165814
0.122004
0.0902918
0.0677424
0.0525645
0.0449027
0.0602681
0.250547
0.182943
0.133503
0.0978347
0.0725585
0.0555491
0.046678
0.061026
0.257625
0.188866
0.138284
0.101579
0.0754506
0.0578454
0.0487885
0.0646977
0.245176
0.182925
0.136166
0.101539
0.0765302
0.0596297
0.0514642
0.0716555
0.220025
0.170371
0.130476
0.0996828
0.0769739
0.0616705
0.0553096
0.0824416
0.161714
0.126921
0.0993316
0.077942
0.0619691
0.0510928
0.046795
0.0696964
0.198122
0.150014
0.114034
0.087174
0.0675485
0.0542097
0.0481463
0.0687082
0.232806
0.173221
0.129198
0.096841
0.0734918
0.0576431
0.0498191
0.0683602
0.257318
0.190143
0.140693
0.104493
0.0784605
0.0607813
0.0517363
0.0692964
0.26432
0.196009
0.145528
0.108386
0.0815606
0.0633226
0.0541461
0.0736138
0.252222
0.190237
0.143543
0.108534
0.0829004
0.0654355
0.0572684
0.0816779
0.227011
0.177605
0.137795
0.106766
0.0835876
0.067858
0.0616998
0.0940324
0.169266
0.134035
0.105758
0.0836195
0.0669789
0.0556444
0.0513983
0.077723
0.205624
0.157359
0.12073
0.093049
0.072662
0.05878
0.052684
0.0763952
0.239946
0.180529
0.136025
0.102879
0.0787365
0.0622897
0.0543628
0.0759159
0.264174
0.197389
0.147612
0.11069
0.0838789
0.065597
0.0564564
0.0772142
0.270999
0.203269
0.152579
0.114782
0.0872115
0.068397
0.0591851
0.0822636
0.259205
0.197682
0.150792
0.115177
0.0888404
0.0708478
0.0627482
0.0913059
0.234067
0.185024
0.145121
0.113615
0.0898352
0.0736725
0.0677564
0.10512
0.175587
0.139962
0.111126
0.0884239
0.0713107
0.0596924
0.055623
0.0850144
0.211844
0.163389
0.12622
0.0979307
0.0770118
0.0627824
0.0567835
0.0833543
0.245684
0.186449
0.141541
0.107818
0.0831367
0.0663158
0.0584362
0.0826928
0.269458
0.203176
0.153145
0.115707
0.0883867
0.0697482
0.0606808
0.0843729
0.276121
0.209055
0.158202
0.119942
0.0919029
0.0727753
0.0637087
0.0900652
0.264416
0.203591
0.156579
0.120546
0.0937883
0.0755449
0.0676996
0.10001
0.239657
0.191123
0.151108
0.119235
0.0950942
0.0787638
0.0732679
0.115125
0.179598
0.144037
0.115064
0.0921612
0.074867
0.0631829
0.0594386
0.0917438
0.215318
0.167216
0.130034
0.10159
0.0804859
0.0661484
0.0603831
0.0895727
0.248297
0.189855
0.145149
0.111383
0.0865718
0.069658
0.0619931
0.0887645
0.271297
0.206215
0.156588
0.119228
0.0918588
0.0731852
0.0643928
0.0908959
0.277735
0.212014
0.161648
0.123535
0.0955149
0.076417
0.0677056
0.0971809
0.266297
0.206735
0.160191
0.124326
0.0976352
0.0794904
0.0721108
0.107977
0.242332
0.194667
0.154996
0.123266
0.0992278
0.0830819
0.0782273
0.124319
0.181727
0.146606
0.117853
0.0950398
0.0777797
0.0661868
0.062903
0.0984337
0.216631
0.169325
0.132558
0.104299
0.0832502
0.0689594
0.0635078
0.0952406
0.248559
0.191339
0.147322
0.113912
0.0892505
0.0724269
0.0650852
0.0943946
0.270668
0.207187
0.158478
0.121643
0.0945434
0.0760406
0.0676517
0.0970203
0.276942
0.21286
0.163488
0.125992
0.0983211
0.0794552
0.0712113
0.103797
0.265985
0.207827
0.162214
0.126968
0.100667
0.0828142
0.0760043
0.115407
0.242836
0.196195
0.157293
0.126141
0.102525
0.0867596
0.0826534
0.132988
0.182801
0.148289
0.119918
0.097317
0.0801833
0.0687462
0.0659423
0.104547
0.216823
0.170495
0.134322
0.106376
0.0854759
0.0713006
0.0661898
0.100398
0.247748
0.191894
0.14873
0.115805
0.0913894
0.0747243
0.0677474
0.0996386
0.269087
0.207246
0.159622
0.123448
0.0966945
0.07841
0.0704455
0.102637
0.275221
0.21279
0.164608
0.127854
0.100591
0.081988
0.0742197
0.109846
0.264735
0.208038
0.163543
0.129027
0.103157
0.0856094
0.0793584
0.122199
0.242239
0.196798
0.158872
0.128419
0.10527
0.0898863
0.0864929
0.140968
0.183471
0.149498
0.121487
0.0991122
0.0821352
0.0708849
0.0685616
0.11007
0.216718
0.171256
0.135617
0.10797
0.0872403
0.0732187
0.0684871
0.105186
0.24679
0.192156
0.149751
0.117246
0.0930571
0.0765723
0.0699798
0.104337
0.267491
0.207153
0.160479
0.124827
0.0983643
0.0803001
0.0727548
0.10754
0.27345
0.212652
0.165479
0.1293
0.102367
0.0840147
0.076705
0.115097
0.2634
0.208167
0.164605
0.130656
0.105131
0.0878625
0.0821321
0.128064
0.241538
0.197246
0.160153
0.130263
0.107489
0.0924347
0.089674
0.147821
0.183715
0.150181
0.122496
0.100367
0.0835938
0.0725763
0.0707318
0.114799
0.216361
0.171535
0.136332
0.10899
0.0884891
0.0746923
0.0703808
0.109369
0.245845
0.19203
0.150195
0.118083
0.0941803
0.0779502
0.0717769
0.108308
0.266136
0.206764
0.160767
0.125583
0.0994585
0.0816851
0.0745849
0.111593
0.271988
0.212225
0.165775
0.130099
0.103533
0.0854994
0.0786699
0.119413
0.262135
0.207909
0.165054
0.131607
0.106458
0.0895284
0.0843281
0.132849
0.240647
0.197246
0.160821
0.131425
0.109034
0.0943462
0.092194
0.153324
0.182946
0.149994
0.122775
0.101017
0.0845508
0.0738368
0.0724813
0.118755
0.214857
0.170816
0.136228
0.109355
0.0892174
0.075741
0.0718865
0.112867
0.24366
0.190802
0.149733
0.118208
0.0947479
0.0788828
0.0731751
0.111588
0.263495
0.2052
0.160077
0.125568
0.0999532
0.0825904
0.0759837
0.114888
0.269215
0.210581
0.165042
0.130078
0.104055
0.0864642
0.0801637
0.122899
0.259545
0.206426
0.16445
0.131697
0.107095
0.0906283
0.0860019
0.136692
0.238524
0.19609
0.160455
0.131704
0.109845
0.095639
0.094125
0.157685
0.18109
0.148981
0.122415
0.101159
0.0850887
0.0747296
0.0738673
0.122094
0.211993
0.169131
0.135419
0.109188
0.0895249
0.0764354
0.0730583
0.115831
0.239829
0.188445
0.148483
0.117758
0.094873
0.0794511
0.074237
0.114347
0.258986
0.202369
0.158516
0.124931
0.099974
0.0831069
0.0770226
0.117623
0.264523
0.207609
0.163388
0.129393
0.10407
0.0870081
0.0812612
0.125763
0.255179
0.203648
0.162908
0.131091
0.107188
0.0912688
0.0872333
0.139832
0.23486
0.193719
0.159151
0.131254
0.11007
0.0964268
0.095561
0.161246
0.178721
0.14755
0.121697
0.100981
0.0853287
0.0753335
0.0749461
0.124945
0.208534
0.167017
0.13426
0.108712
0.0895472
0.0768585
0.0739492
0.118362
0.235286
0.18563
0.146879
0.117
0.0947124
0.0797477
0.0750198
0.116686
0.253659
0.199043
0.156591
0.123977
0.0996999
0.0833391
0.0777657
0.119907
0.258985
0.204126
0.161357
0.12838
0.103774
0.0872457
0.0820318
0.128114
0.250046
0.200364
0.16098
0.130144
0.106951
0.0915735
0.088094
0.14238
0.230508
0.190833
0.157432
0.130437
0.109939
0.0968426
0.0965714
0.164136
0.17638
0.14603
0.120818
0.100604
0.0853512
0.075706
0.075758
0.12732
0.205255
0.164905
0.132987
0.108059
0.0893663
0.0770666
0.0745978
0.120459
0.231076
0.182919
0.145214
0.116087
0.0943569
0.0798329
0.0755643
0.118601
0.248779
0.1959
0.154646
0.122884
0.0992307
0.0833524
0.0782592
0.121742
0.253924
0.200852
0.159324
0.127232
0.103274
0.0872473
0.0825283
0.12996
0.24533
0.197264
0.159042
0.129056
0.106497
0.091618
0.088642
0.144324
0.226444
0.188063
0.155679
0.129469
0.109576
0.0969681
0.0972113
0.166294
0.174096
0.144427
0.119789
0.100049
0.0851897
0.0758905
0.0763516
0.129223
0.20222
0.162778
0.131583
0.107234
0.0890059
0.0770952
0.0750453
0.122114
0.227344
0.180293
0.143454
0.115013
0.0938245
0.0797397
0.0759108
0.120084
0.24456
0.192925
0.152637
0.121635
0.0985787
0.0831788
0.078546
0.12313
0.249569
0.197771
0.157232
0.125919
0.102576
0.0870448
0.0827993
0.131315
0.241211
0.194329
0.157035
0.127791
0.105826
0.0914358
0.0889349
0.14569
0.222805
0.185415
0.153853
0.128321
0.108982
0.0968413
0.0975508
0.167722
0.171573
0.1426
0.118562
0.0993241
0.0848768
0.0759317
0.0767904
0.130818
0.198963
0.16041
0.129968
0.106234
0.0884954
0.0769862
0.0753492
0.12348
0.223449
0.177427
0.141473
0.113756
0.0931388
0.0795084
0.0761153
0.121282
0.240232
0.189717
0.150397
0.12019
0.0977618
0.082857
0.078681
0.124216
0.24511
0.194449
0.15489
0.124389
0.101694
0.0866771
0.082901
0.132337
0.236946
0.191133
0.154756
0.126283
0.104947
0.0910676
0.0890398
0.146679
0.218992
0.182508
0.15175
0.126911
0.108156
0.096506
0.097682
0.168698
0.53208
0.422061
0.329456
0.251641
0.190312
0.147767
0.130247
0.200576
0.66092
0.506283
0.385759
0.288586
0.212353
0.158914
0.133887
0.195669
0.739149
0.558896
0.416366
0.305676
0.220162
0.160261
0.130407
0.183723
0.708579
0.531287
0.39502
0.288561
0.206632
0.149582
0.12088
0.166937
0.583955
0.443366
0.332961
0.243815
0.175249
0.12797
0.104739
0.146604
0.442056
0.340761
0.25717
0.189744
0.138618
0.10377
0.0875643
0.127832
0.317773
0.248005
0.189435
0.142599
0.10752
0.0840685
0.0747508
0.115119
0.522779
0.427191
0.337325
0.259213
0.197623
0.155552
0.139813
0.219647
0.62301
0.498981
0.389963
0.294749
0.218848
0.166299
0.14326
0.214652
0.679732
0.538708
0.415297
0.309629
0.225567
0.166984
0.139325
0.20169
0.655459
0.516428
0.395909
0.293268
0.212394
0.156444
0.129612
0.184164
0.564349
0.44378
0.33857
0.249796
0.181413
0.134714
0.112764
0.16245
0.444258
0.347417
0.263566
0.195767
0.144776
0.110308
0.0951137
0.142032
0.323881
0.253904
0.194941
0.148164
0.113337
0.0901973
0.0817627
0.128313
0.54147
0.449658
0.350615
0.268204
0.205393
0.163473
0.149259
0.240366
0.59719
0.525763
0.408407
0.305728
0.22745
0.17461
0.152735
0.235522
0.571837
0.559935
0.434028
0.320654
0.234155
0.175372
0.14877
0.222074
0.614689
0.540565
0.4145
0.304293
0.221075
0.164721
0.138646
0.203362
0.578198
0.467372
0.352356
0.258983
0.189353
0.142366
0.120979
0.179477
0.465663
0.361172
0.272368
0.203112
0.151878
0.11743
0.102875
0.157369
0.33419
0.261014
0.201188
0.154487
0.119789
0.0967064
0.088905
0.142428
0.546711
0.457753
0.356474
0.273661
0.211467
0.170338
0.157569
0.258762
0.576283
0.539582
0.418161
0.313058
0.234406
0.181784
0.160875
0.253274
0.585655
0.568083
0.4474
0.330055
0.242335
0.183209
0.157094
0.239302
0.595622
0.557675
0.427957
0.313772
0.229254
0.172419
0.146623
0.219769
0.589834
0.481364
0.361724
0.266779
0.196814
0.149599
0.128489
0.194585
0.477596
0.369372
0.279324
0.210074
0.158904
0.124362
0.110201
0.17162
0.341214
0.267249
0.207656
0.161153
0.126351
0.103079
0.095735
0.155848
0.541239
0.447254
0.351729
0.273859
0.214827
0.175567
0.164523
0.273327
0.597337
0.531744
0.411524
0.312071
0.237186
0.186611
0.167272
0.266091
0.601258
0.571498
0.442873
0.330136
0.245778
0.188364
0.163531
0.25142
0.622719
0.55686
0.424563
0.31487
0.233228
0.177704
0.152914
0.231451
0.595198
0.475892
0.360485
0.269549
0.201617
0.155235
0.134897
0.206504
0.473917
0.368154
0.281885
0.214783
0.164488
0.130292
0.116821
0.183789
0.342545
0.270818
0.212657
0.1667
0.131975
0.108733
0.101985
0.167661
0.524427
0.428768
0.343347
0.272067
0.216766
0.179679
0.170587
0.285661
0.618541
0.506388
0.396706
0.306861
0.237289
0.189676
0.172602
0.27655
0.644246
0.548417
0.42495
0.323631
0.245202
0.191077
0.168597
0.260763
0.650329
0.533549
0.409918
0.310112
0.233557
0.180774
0.158072
0.240996
0.581389
0.458347
0.353378
0.268753
0.203959
0.159293
0.140506
0.216883
0.459319
0.361809
0.281459
0.217273
0.168375
0.13506
0.122747
0.194762
0.33907
0.271505
0.215511
0.170534
0.136315
0.113536
0.107748
0.178581
0.506525
0.417881
0.33903
0.271702
0.21874
0.183314
0.176177
0.297809
0.600288
0.486969
0.386985
0.303429
0.237461
0.192325
0.17772
0.288016
0.647014
0.525213
0.412413
0.318337
0.244227
0.193111
0.173492
0.271701
0.639261
0.512584
0.39913
0.305937
0.233266
0.18319
0.163084
0.252018
0.561188
0.446235
0.348385
0.267878
0.205539
0.162711
0.145898
0.228064
0.44929
0.357985
0.281235
0.218962
0.171337
0.13911
0.128294
0.206034
0.336851
0.271999
0.217408
0.173338
0.139853
0.117797
0.113244
0.189721
0.497228
0.417736
0.339776
0.272868
0.220716
0.186451
0.181199
0.310081
0.571532
0.480573
0.386331
0.303482
0.238636
0.195063
0.182678
0.301023
0.608246
0.516962
0.410874
0.317475
0.244799
0.19565
0.178498
0.285105
0.61656
0.505889
0.397547
0.305455
0.234278
0.186041
0.168187
0.265128
0.551992
0.444822
0.34835
0.268601
0.207535
0.16616
0.151205
0.240288
0.448178
0.358669
0.282291
0.220753
0.174115
0.142914
0.133554
0.217789
0.337151
0.273028
0.219164
0.1759
0.143152
0.12182
0.118477
0.201164
0.490699
0.41799
0.339142
0.272611
0.221562
0.188689
0.185328
0.321307
0.527777
0.479794
0.386244
0.303279
0.239503
0.19736
0.186841
0.313016
0.528863
0.506801
0.410114
0.317283
0.24591
0.198223
0.182878
0.29802
0.562667
0.502213
0.397782
0.305799
0.23583
0.188945
0.17274
0.277476
0.541141
0.445252
0.348547
0.269501
0.209649
0.169455
0.155981
0.251893
0.449059
0.359317
0.283129
0.22247
0.176761
0.146427
0.138262
0.228724
0.33774
0.274111
0.22101
0.178455
0.146287
0.1255
0.123186
0.21183
0.482987
0.410516
0.333873
0.269825
0.220993
0.189948
0.188439
0.330246
0.524249
0.47275
0.380273
0.300056
0.238813
0.198556
0.189759
0.321568
0.532707
0.503936
0.404996
0.314571
0.245724
0.199779
0.185853
0.306593
0.54863
0.495565
0.39298
0.304005
0.236337
0.190937
0.176054
0.285994
0.535311
0.439922
0.345862
0.269147
0.210991
0.171982
0.159744
0.260598
0.445631
0.357315
0.282818
0.223522
0.178787
0.149188
0.142106
0.237541
0.337319
0.274654
0.222415
0.180515
0.148853
0.128549
0.127144
0.220638
0.470269
0.396781
0.325762
0.265701
0.21959
0.190448
0.190648
0.336997
0.52346
0.455408
0.368493
0.294276
0.236663
0.198625
0.191539
0.327167
0.536791
0.485583
0.391227
0.308385
0.243579
0.199828
0.18751
0.311286
0.550653
0.479588
0.382586
0.299521
0.23509
0.191534
0.178108
0.291201
0.525376
0.429309
0.340393
0.267109
0.210957
0.173326
0.162358
0.266622
0.437955
0.352691
0.280944
0.223349
0.179734
0.151031
0.14501
0.244166
0.334588
0.273571
0.222522
0.18147
0.150471
0.130783
0.130288
0.227593
0.457353
0.385715
0.318901
0.261899
0.217904
0.190324
0.192012
0.34212
0.524343
0.440768
0.358888
0.288923
0.234032
0.197919
0.19253
0.331543
0.552159
0.469908
0.380572
0.302464
0.240571
0.198858
0.188392
0.315292
0.560274
0.468314
0.37421
0.29467
0.232678
0.191008
0.17937
0.295705
0.517485
0.421146
0.335051
0.264087
0.209698
0.173546
0.164136
0.271773
0.43077
0.347826
0.278069
0.221986
0.179613
0.151992
0.147197
0.249839
0.330501
0.271065
0.221309
0.18131
0.151198
0.132322
0.132858
0.233663
0.447542
0.379462
0.314261
0.258561
0.215878
0.189538
0.192542
0.345759
0.512518
0.432363
0.353619
0.284818
0.231302
0.196691
0.192944
0.335707
0.538541
0.462502
0.375782
0.298164
0.237528
0.197498
0.188919
0.32014
0.551918
0.462219
0.369072
0.290445
0.229912
0.189962
0.180151
0.300842
0.510083
0.415714
0.330473
0.260692
0.207827
0.17322
0.165372
0.276954
0.424684
0.343243
0.274682
0.219927
0.178864
0.152423
0.148893
0.255131
0.325932
0.267911
0.219431
0.180572
0.151434
0.133412
0.134965
0.239261
0.438024
0.37363
0.308633
0.254183
0.212984
0.188053
0.192386
0.348014
0.480605
0.426066
0.347753
0.279773
0.227891
0.194928
0.192785
0.338846
0.491299
0.454022
0.370273
0.293122
0.234143
0.195881
0.188972
0.324419
0.524461
0.453145
0.36303
0.285532
0.226851
0.188649
0.180397
0.305322
0.496594
0.40826
0.32462
0.256705
0.205681
0.17256
0.166127
0.281274
0.416822
0.337466
0.27067
0.217577
0.177907
0.152581
0.150138
0.259566
0.320881
0.264537
0.217425
0.179697
0.151465
0.134196
0.136614
0.24402
0.424986
0.363049
0.300651
0.248621
0.20947
0.186163
0.1918
0.349168
0.463892
0.413055
0.337852
0.273027
0.223773
0.192782
0.192094
0.340066
0.474664
0.442356
0.360286
0.286263
0.230135
0.193911
0.188419
0.326052
0.497599
0.439789
0.35338
0.279451
0.223459
0.187065
0.180033
0.30702
0.482852
0.397604
0.317488
0.252421
0.203421
0.171685
0.166297
0.283493
0.407685
0.330971
0.266521
0.215227
0.176858
0.152489
0.150913
0.262492
0.315928
0.261232
0.215437
0.178721
0.151276
0.13466
0.137788
0.247468
0.411335
0.350279
0.292012
0.242972
0.205949
0.184155
0.190916
0.349433
0.453579
0.396569
0.326018
0.26582
0.219499
0.190419
0.191002
0.339684
0.469919
0.422541
0.345895
0.27832
0.225718
0.191537
0.18729
0.325124
0.484749
0.422436
0.341854
0.272928
0.219801
0.18512
0.179203
0.306549
0.468524
0.385884
0.310247
0.248154
0.200987
0.170486
0.16606
0.284185
0.398116
0.324434
0.262433
0.212757
0.175525
0.15204
0.151261
0.264148
0.310791
0.257728
0.213164
0.177393
0.150713
0.134761
0.138581
0.249859
0.301898
0.233106
0.175641
0.130402
0.0971426
0.0751396
0.0659754
0.0999587
0.319989
0.236372
0.171886
0.123655
0.0892455
0.0665781
0.0557546
0.0786022
0.315711
0.22776
0.16189
0.114065
0.0806609
0.0588048
0.0477671
0.0638995
0.28494
0.204252
0.144277
0.101215
0.0713461
0.0518191
0.0417588
0.0546091
0.239002
0.171999
0.122543
0.0871026
0.0624124
0.0461387
0.0377502
0.0496498
0.190086
0.138907
0.101337
0.0741591
0.0549276
0.0420922
0.0357165
0.0484867
0.145595
0.110833
0.0841444
0.0641077
0.0495102
0.039619
0.0351041
0.0500434
0.307679
0.238772
0.18126
0.136191
0.103079
0.0811892
0.0726651
0.112364
0.324003
0.241694
0.177686
0.129744
0.095321
0.0724799
0.0618963
0.0892459
0.319278
0.233241
0.168156
0.120567
0.0869382
0.0646825
0.0536489
0.0734976
0.29014
0.210742
0.151295
0.108175
0.0778223
0.0577072
0.0474701
0.0636198
0.245797
0.179454
0.130109
0.094263
0.0688734
0.0519219
0.0433472
0.0582611
0.197767
0.146813
0.108966
0.0811307
0.0610927
0.0475607
0.0409885
0.0570032
0.153491
0.118569
0.0913745
0.0706285
0.0552965
0.0448476
0.0403342
0.058619
0.315931
0.245175
0.187412
0.142552
0.109505
0.0875291
0.0794851
0.125661
0.33225
0.248466
0.184347
0.136446
0.101799
0.0786022
0.0681661
0.10063
0.327223
0.240325
0.175276
0.127579
0.0934967
0.0707027
0.0595937
0.0836825
0.297932
0.21825
0.15885
0.11541
0.0844144
0.0636425
0.0532009
0.0729984
0.253534
0.187302
0.137842
0.101443
0.075284
0.0576555
0.0489134
0.0670951
0.205664
0.154755
0.116507
0.0879467
0.0670994
0.0529157
0.046207
0.0656084
0.161341
0.126155
0.098392
0.0769218
0.0608909
0.0499488
0.0455053
0.0673641
0.322435
0.251528
0.194138
0.149385
0.116057
0.0937593
0.0860561
0.138372
0.339517
0.255568
0.191643
0.143545
0.108359
0.084641
0.0742926
0.111745
0.334905
0.24798
0.182941
0.134805
0.10003
0.0766099
0.0654322
0.0938437
0.305629
0.226178
0.166651
0.122614
0.0908384
0.069393
0.0588166
0.0823649
0.261289
0.19532
0.145515
0.108379
0.0814092
0.0631455
0.0543019
0.075974
0.213632
0.162619
0.123769
0.0943952
0.0727674
0.0580097
0.0512708
0.0742003
0.169119
0.133467
0.105013
0.0827952
0.0661132
0.0547511
0.0504484
0.0760157
0.32503
0.256011
0.199652
0.155154
0.12171
0.0993233
0.0921344
0.149741
0.34345
0.261
0.197717
0.149539
0.114031
0.0900673
0.0800222
0.121924
0.339358
0.253912
0.189297
0.140926
0.105708
0.0819355
0.0708943
0.10321
0.310608
0.232479
0.173142
0.128732
0.0964444
0.0746012
0.0641177
0.0911692
0.267187
0.201921
0.151947
0.114294
0.086773
0.068119
0.0593841
0.0846365
0.220158
0.169168
0.129864
0.0999009
0.0777302
0.0626135
0.0560287
0.0825053
0.17559
0.139575
0.110579
0.0878086
0.0706675
0.0590518
0.0550315
0.0842708
0.323202
0.257648
0.20297
0.159205
0.126135
0.104119
0.0978069
0.160434
0.341904
0.262987
0.201303
0.153758
0.118516
0.0947812
0.0853771
0.13159
0.338576
0.256377
0.193178
0.145318
0.110257
0.0865767
0.0759863
0.112115
0.311445
0.235736
0.177375
0.133255
0.100986
0.0791335
0.069025
0.0995898
0.269871
0.205949
0.15641
0.118786
0.0911492
0.0724157
0.0639864
0.0927043
0.22398
0.173524
0.134272
0.104164
0.081805
0.0665871
0.0603384
0.090167
0.179791
0.14386
0.114727
0.0917482
0.0744184
0.0627403
0.0591258
0.0919734
0.321239
0.25823
0.20499
0.162154
0.129789
0.108433
0.103243
0.17134
0.33901
0.263341
0.20336
0.156838
0.122251
0.0990223
0.090457
0.141308
0.335781
0.256913
0.195454
0.148566
0.11405
0.0907227
0.0807625
0.120939
0.310096
0.237003
0.180024
0.136641
0.104743
0.0831176
0.0735351
0.107798
0.270252
0.208006
0.15936
0.122181
0.0947363
0.0761125
0.0681035
0.100394
0.225577
0.176078
0.137324
0.107437
0.0851532
0.0700139
0.064219
0.0973494
0.182086
0.14662
0.117712
0.094813
0.0774993
0.0658871
0.062718
0.098967
0.32106
0.25906
0.206819
0.164871
0.133218
0.112497
0.108402
0.182398
0.337668
0.263893
0.205223
0.15968
0.125736
0.102975
0.0952184
0.15098
0.334006
0.257419
0.197409
0.151473
0.117496
0.0945092
0.0851736
0.129518
0.308956
0.237844
0.182139
0.139534
0.108038
0.0866532
0.0775893
0.115586
0.270048
0.20929
0.16161
0.12498
0.0977922
0.0793099
0.0717299
0.107613
0.226198
0.177749
0.139642
0.110106
0.0879922
0.0730029
0.0676829
0.104025
0.183385
0.148524
0.119988
0.0972909
0.0800843
0.0686027
0.06589
0.105347
0.321319
0.260215
0.20885
0.167613
0.136476
0.116217
0.113039
0.192628
0.337332
0.264971
0.207398
0.162543
0.128999
0.106552
0.0994807
0.159906
0.333362
0.258447
0.199568
0.154258
0.120612
0.0978649
0.0890885
0.137344
0.308505
0.238923
0.184195
0.142118
0.110891
0.0896987
0.081118
0.122631
0.270017
0.210489
0.163561
0.127346
0.100361
0.0820185
0.0748415
0.113924
0.226672
0.179097
0.141521
0.112288
0.0903466
0.0755335
0.070667
0.109947
0.184317
0.149974
0.121778
0.0992853
0.0822138
0.0708989
0.0686474
0.111149
0.321376
0.261155
0.210536
0.169871
0.139166
0.119326
0.116964
0.201181
0.337646
0.266226
0.209307
0.164886
0.131658
0.109524
0.1031
0.167482
0.3336
0.259609
0.201349
0.156442
0.123083
0.100612
0.0924059
0.144047
0.308498
0.239828
0.185715
0.144039
0.113085
0.09215
0.0840722
0.128665
0.269937
0.211249
0.164893
0.12905
0.102317
0.0842017
0.0774803
0.119365
0.226782
0.179877
0.142768
0.113845
0.0921387
0.0775718
0.0731614
0.115136
0.184743
0.150842
0.122974
0.100722
0.0838475
0.0727569
0.0709739
0.116219
0.319399
0.26053
0.210924
0.171022
0.140929
0.12167
0.120182
0.208187
0.336283
0.265891
0.209817
0.166069
0.133391
0.111764
0.106087
0.173811
0.332165
0.259166
0.201737
0.157497
0.12467
0.102668
0.0951375
0.149722
0.306894
0.239243
0.185966
0.144939
0.11448