/*--------------------------------*- C++ -*----------------------------------*\
| =========                 |                                                 |
| \\      /  F ield         | OpenFOAM: The Open Source CFD Toolbox           |
|  \\    /   O peration     | Version:  plus.master.MPPICInterFoam            |
|   \\  /    A nd           | Web:      www.OpenFOAM.com                      |
|    \\/     M anipulation  |                                                 |
\*---------------------------------------------------------------------------*/
FoamFile
{
    version     2.0;
    format      ascii;
    class       volScalarField;
    location    "10";
    object      nut;
}
// * * * * * * * * * * * * * * * * * * * * * * * * * * * * * * * * * * * * * //

dimensions      [0 2 -1 0 0 0 0];

internalField   nonuniform List<scalar> 
11821
(
0.000433834
0.000456504
0.000424543
0.000461897
0.000435297
0.000405976
0.000454793
0.000471315
0.000476358
0.000471769
0.000459984
0.000442806
0.000420227
0.000498896
0.000520605
0.000524264
0.000511684
0.000491784
0.000469437
0.000444049
0.000545021
0.000565677
0.000570685
0.000554773
0.000520119
0.00048899
0.000459708
0.000547645
0.000521871
0.000545182
0.000581131
0.000540283
0.00049995
0.000467194
0.000540049
0.000482401
0.000537766
0.000579126
0.000544101
0.000500324
0.000466161
0.000545941
0.00052533
0.000551778
0.000566149
0.000528606
0.000488941
0.0004561
0.000524529
0.000550598
0.000553241
0.000531838
0.00049747
0.000466382
0.000436243
0.000478793
0.000496325
0.00050274
0.000499915
0.000489526
0.000473166
0.000450685
0.000521876
0.000541044
0.000547018
0.000538267
0.000520791
0.000499848
0.000474949
0.000567566
0.000586267
0.000589245
0.000576691
0.000547857
0.000519095
0.000490679
0.000600343
0.000555058
0.000553582
0.000600496
0.000565779
0.000529522
0.00049806
0.000599818
0.000550561
0.000523417
0.000607542
0.000569142
0.000529535
0.000496685
0.000589247
0.000595169
0.000607436
0.000591868
0.000556859
0.000518077
0.000485982
0.000545861
0.000574831
0.000575837
0.000556238
0.000524857
0.000494942
0.000465163
0.000501665
0.000520676
0.000528601
0.000527739
0.00051917
0.000503703
0.000481099
0.00053723
0.000559424
0.00056716
0.000562093
0.00054903
0.000530209
0.000505851
0.000556452
0.000556667
0.000587135
0.000592108
0.000572788
0.000548592
0.000521518
0.000562324
0.000598613
0.000618143
0.000607146
0.000587742
0.000558013
0.000528579
0.000563815
0.000591589
0.000603367
0.000585482
0.000588685
0.00055719
0.000526761
0.000556915
0.000577792
0.000558217
0.000597405
0.00057436
0.000545179
0.000515399
0.000533357
0.00053276
0.000548539
0.000560057
0.000546353
0.000522348
0.000493873
0.000526542
0.0005468
0.000556392
0.000557375
0.000550321
0.000535251
0.000511912
0.000551255
0.000571198
0.000583353
0.000586262
0.000578821
0.000561961
0.000537555
0.000541054
0.000573376
0.00058418
0.000596649
0.000597594
0.000579658
0.000553452
0.000529975
0.000595961
0.000596733
0.000588463
0.000605785
0.000588148
0.000560284
0.000527344
0.000571136
0.000604636
0.00058929
0.000602033
0.000586623
0.000558042
0.000509793
0.000530983
0.000561881
0.000564591
0.000590262
0.000574346
0.00054605
0.000513619
0.000529197
0.000542061
0.000561698
0.000568429
0.000551427
0.000523711
0.000556016
0.000578046
0.000588933
0.000590496
0.000583334
0.000567328
0.000542288
0.000583541
0.000604956
0.000617444
0.000620521
0.000613082
0.000595476
0.000569537
0.000579138
0.000608537
0.000623002
0.000632196
0.000632454
0.000614045
0.000586479
0.000573309
0.000581308
0.000610575
0.000629297
0.000641209
0.000622888
0.000593689
0.000547356
0.000588307
0.000622348
0.000622747
0.00063866
0.000621274
0.000591219
0.000559191
0.000568996
0.000601845
0.000607195
0.000625278
0.000608242
0.000578533
0.000550439
0.000565848
0.000582668
0.00059873
0.000602181
0.000584064
0.000554831
0.000586359
0.000610397
0.000622551
0.000623889
0.000615228
0.000597374
0.00057021
0.000624303
0.00064824
0.000661194
0.000660517
0.000648613
0.000627887
0.000599343
0.000638382
0.000656093
0.000679796
0.00068839
0.000673441
0.000648796
0.000617824
0.00062247
0.000636299
0.000681625
0.000698382
0.000687234
0.000659055
0.000625925
0.000612972
0.000654425
0.000643301
0.000693082
0.000686739
0.00065755
0.000623416
0.000609946
0.000638112
0.000661066
0.000679419
0.000672346
0.000643607
0.000609855
0.000614374
0.0006335
0.000657757
0.000660075
0.000642803
0.000617082
0.000584296
0.000612459
0.00063844
0.000651238
0.000652137
0.000642423
0.000623303
0.000594606
0.000656846
0.000684356
0.000696356
0.000692889
0.00067816
0.000655392
0.000625056
0.000695938
0.00071733
0.000738705
0.000730474
0.000706463
0.000677915
0.000644593
0.000698769
0.000701986
0.000732287
0.000755369
0.000723786
0.000689409
0.000653374
0.000698695
0.000648459
0.000715687
0.000751979
0.000724554
0.000688075
0.000650866
0.000693925
0.000676911
0.000717709
0.000738786
0.000707971
0.000673123
0.000636532
0.000665026
0.000693947
0.000705896
0.000698295
0.000674015
0.000644524
0.000609494
0.000633234
0.000660515
0.000673994
0.000675275
0.000665607
0.000646063
0.000616355
0.000678219
0.000706038
0.000719142
0.000715985
0.000701583
0.000678682
0.000647601
0.00071868
0.000740825
0.000760137
0.000753166
0.000729792
0.000701427
0.000667573
0.000743264
0.000691552
0.000771546
0.000776459
0.000746828
0.00071297
0.000676546
0.00072332
0.00069501
0.00070378
0.000773786
0.000747103
0.000711424
0.000673907
0.000706978
0.00072393
0.000740786
0.000758962
0.000730461
0.000695853
0.000659031
0.000680323
0.000712456
0.000724549
0.000718042
0.000695315
0.000666447
0.000631152
0.00065115
0.000679941
0.000694055
0.000696316
0.000687311
0.000667569
0.00063683
0.000687564
0.000720399
0.000733319
0.000733719
0.000722409
0.000700423
0.00066883
0.00070427
0.000737282
0.000759899
0.000761356
0.000747941
0.000722766
0.000689097
0.000691093
0.000763426
0.000766065
0.000775987
0.00076234
0.000733774
0.000698098
0.000715561
0.0007611
0.000782874
0.000769424
0.000761621
0.000731874
0.000695299
0.000707292
0.000737308
0.000742382
0.000753296
0.000743274
0.000715725
0.000679958
0.000654409
0.000682025
0.000701709
0.000716151
0.000709987
0.000686206
0.000651477
0.000671794
0.000701186
0.000716232
0.000718959
0.000709712
0.000688931
0.000656546
0.000705228
0.000736836
0.000752844
0.00075572
0.000745244
0.000722727
0.000689716
0.000707588
0.000752131
0.000769309
0.000779949
0.000770072
0.000745432
0.000710694
0.00071604
0.000782412
0.00078244
0.000789396
0.000783351
0.000756456
0.000719988
0.00068149
0.000755268
0.000804845
0.000793724
0.000782758
0.000754523
0.000717157
0.000670515
0.000725535
0.000761884
0.000764622
0.000763717
0.00073792
0.000701422
0.000663262
0.000694886
0.000720511
0.000734851
0.000731166
0.000707912
0.000672158
0.000694502
0.000724852
0.000740374
0.000742486
0.000731826
0.000709199
0.000674723
0.000731842
0.000763792
0.000780467
0.00078202
0.000769549
0.000744778
0.000709428
0.000742455
0.000782762
0.000801743
0.000808965
0.000796277
0.000768907
0.000731554
0.000743215
0.000769272
0.000809306
0.000819715
0.000810436
0.000780662
0.000741464
0.000714839
0.000762677
0.00077538
0.000816085
0.000809384
0.000778721
0.000738682
0.000709692
0.00074355
0.000785387
0.000796271
0.000790846
0.00076181
0.000722491
0.000693887
0.000726426
0.000755387
0.000766845
0.000757065
0.000730573
0.00069206
0.000715033
0.00074647
0.000762114
0.000763247
0.000750978
0.000726598
0.000690312
0.000758931
0.000791809
0.000808071
0.000806834
0.000791199
0.000763879
0.000726332
0.00078846
0.000815875
0.000845139
0.000842166
0.000821057
0.000789615
0.000749509
0.000792009
0.000800571
0.000847469
0.000862382
0.000837955
0.000802478
0.000760062
0.000802924
0.000809869
0.00083367
0.000857482
0.000837556
0.000800718
0.000757343
0.000762471
0.000793012
0.000826883
0.000841528
0.0008183
0.000783149
0.000740613
0.000738243
0.000773486
0.000797972
0.000799676
0.000780994
0.000750237
0.000708994
0.000730698
0.000763098
0.000778716
0.000779404
0.000766378
0.000741031
0.000703545
0.000777349
0.000811017
0.000826711
0.000824425
0.000807681
0.000779216
0.0007404
0.000810717
0.000840664
0.000866077
0.000861395
0.000838562
0.000805676
0.000764171
0.000826907
0.000840843
0.000872799
0.000882277
0.000855967
0.000818963
0.000775058
0.000831235
0.000819056
0.000849447
0.00087852
0.000855541
0.000817175
0.00077231
0.000819627
0.000814445
0.000847569
0.00086063
0.000835588
0.000799027
0.000755148
0.000760414
0.00079307
0.000816135
0.000816515
0.000796942
0.000765187
0.000722745
0.000742825
0.000776384
0.000792162
0.000793021
0.000779882
0.000753969
0.000715527
0.0007857
0.000823284
0.00083849
0.000837261
0.000821215
0.000792583
0.000753012
0.000810348
0.00085118
0.000874145
0.000871673
0.000851515
0.000819166
0.000777143
0.000812863
0.000854526
0.000892204
0.000892347
0.000868738
0.000832502
0.000788204
0.000803499
0.000855473
0.000899818
0.000892052
0.000868429
0.000830658
0.000785412
0.000803745
0.000830476
0.000862474
0.000866564
0.000846941
0.000812002
0.000767936
0.000752229
0.000791007
0.000815003
0.000822241
0.00080812
0.000777749
0.000735029
0.00075621
0.00079028
0.000806423
0.0008072
0.000793515
0.00076664
0.000726935
0.000798124
0.000835763
0.000852139
0.000851609
0.000835492
0.000806054
0.000765269
0.000816445
0.000866721
0.000885159
0.000884944
0.000865917
0.00083312
0.000789969
0.000826107
0.000888966
0.000911584
0.000904736
0.000883022
0.000846678
0.000801325
0.00080088
0.000873006
0.000926589
0.0009078
0.000882618
0.000844821
0.000798549
0.000770445
0.000845196
0.000881427
0.000879185
0.000860981
0.00082591
0.000780792
0.000753907
0.000798994
0.000827819
0.000834834
0.000821827
0.000791106
0.000747259
0.000770426
0.000804979
0.000821315
0.000821516
0.00080672
0.000778481
0.000737297
0.000814595
0.000852156
0.000869234
0.00086783
0.000850196
0.000819093
0.000776637
0.000834868
0.000883159
0.00090322
0.000902965
0.000881908
0.000847124
0.000802091
0.000842981
0.000895024
0.00091919
0.000922558
0.000899658
0.000861215
0.00081386
0.000825247
0.000897252
0.000913689
0.000920496
0.000899193
0.000859434
0.000811137
0.000800619
0.000854007
0.000892373
0.000896831
0.000877532
0.000840236
0.000793051
0.00077221
0.000817562
0.000847087
0.000853638
0.000837534
0.000804586
0.000758725
0.000121851
1.44015e-05
0.000344657
0.000312547
0.000271776
0.000215293
0.000130778
1.57275e-05
0.000404303
0.000377874
0.000349755
0.000317411
0.000276745
0.000220452
0.000135372
1.62656e-05
0.000403095
0.000376508
0.000348147
0.000315632
0.00027499
0.000218964
0.000134269
1.61543e-05
0.00039423
0.000368437
0.000340359
0.000307804
0.000267086
0.000211303
0.000127901
1.53666e-05
0.000378035
0.000354234
0.000326901
0.000294432
0.000253582
0.000198046
0.000116891
1.4002e-05
0.000394088
0.000370546
0.000342256
0.000307465
0.000262873
0.000202637
0.000117394
1.32696e-05
0.00041549
0.000390124
0.000361421
0.000326715
0.000282009
0.000220455
0.000130631
1.52765e-05
0.000429769
0.000403135
0.000373808
0.000339019
0.000294398
0.000232418
0.000140061
1.6654e-05
0.000436364
0.000408857
0.000378977
0.000343999
0.00029952
0.000237753
0.000144818
1.7215e-05
0.000434745
0.000406946
0.000376796
0.000341651
0.000297228
0.000235777
0.000143355
1.70664e-05
0.000424936
0.000397764
0.000367791
0.000332566
0.000288116
0.000227059
0.000136296
1.61986e-05
0.000407381
0.000382072
0.000352666
0.000317391
0.000272788
0.000212166
0.000124223
1.47259e-05
0.000423855
0.000398942
0.000368645
0.000331086
0.000282743
0.000217422
0.00012528
1.39944e-05
0.000446069
0.00041963
0.00038912
0.000351755
0.000303312
0.000236545
0.000139417
1.60802e-05
0.0004606
0.000433132
0.000402197
0.00036485
0.000316503
0.000249228
0.000149329
1.75084e-05
0.000467104
0.000438827
0.000407431
0.00036999
0.000321827
0.000254738
0.00015414
1.80927e-05
0.000465051
0.000436413
0.000404743
0.000367175
0.000319131
0.000252424
0.00015247
1.79271e-05
0.000454412
0.000426224
0.000394645
0.000356989
0.00030899
0.000242819
0.000144814
1.7011e-05
0.000435687
0.000409142
0.000377949
0.000340167
0.000292081
0.00022657
0.000131871
1.54569e-05
0.000453397
0.000426965
0.000394534
0.000354105
0.000301968
0.000231653
0.000132917
1.46419e-05
0.000476545
0.000448842
0.000416335
0.00037615
0.000323879
0.000251963
0.000147865
1.67973e-05
0.000491361
0.000462938
0.000430172
0.000390065
0.000337872
0.000265341
0.000158226
1.82727e-05
0.000497715
0.000468668
0.000435589
0.000395468
0.00034347
0.00027106
0.000163109
1.88847e-05
0.000495224
0.000465822
0.000432514
0.000392327
0.000340492
0.000268484
0.000161204
1.87156e-05
0.000483822
0.000454717
0.000421453
0.000381209
0.000329497
0.000258137
0.000153014
1.77637e-05
0.000463968
0.00043625
0.00040325
0.000362913
0.00031126
0.000240811
0.000139413
1.61482e-05
0.000482736
0.000454379
0.000419457
0.000375882
0.000319792
0.000244514
0.000139574
1.51924e-05
0.000507176
0.000477664
0.000442688
0.000399314
0.000342997
0.000265938
0.000155277
1.74101e-05
0.000522612
0.000492603
0.000457441
0.000414135
0.000357821
0.00027999
0.000166032
1.89291e-05
0.000529027
0.000498601
0.000463218
0.000419915
0.000363755
0.000285928
0.000170934
1.95885e-05
0.000526169
0.000495448
0.000459902
0.000416578
0.00036059
0.000283135
0.000168798
1.94409e-05
0.000514012
0.000483508
0.000448014
0.000404695
0.000348886
0.000272155
0.000160179
1.847e-05
0.000492871
0.000463606
0.0004284
0.0003851
0.000329491
0.000253873
0.000145998
1.67957e-05
0.00051089
0.000480224
0.000442545
0.000395689
0.000335669
0.000255653
0.000145095
1.56608e-05
0.000537038
0.00050509
0.000467235
0.000420459
0.000360074
0.000278067
0.000161393
1.79312e-05
0.00055362
0.000521158
0.000483037
0.000436222
0.000375705
0.000292728
0.000172462
1.94911e-05
0.000560547
0.000527717
0.000489357
0.00044248
0.000382008
0.000298872
0.000177372
2.01946e-05
0.000557523
0.000524445
0.000485943
0.000439044
0.000378701
0.000295879
0.000175045
2.00571e-05
0.000544589
0.000511729
0.000473316
0.000426463
0.000366324
0.000284286
0.000166039
1.90597e-05
0.000521885
0.00049035
0.000452342
0.00040561
0.000345778
0.000265035
0.000151289
1.73338e-05
0.000536499
0.00050356
0.000463242
0.000413305
0.000349653
0.000265316
0.000149736
1.60511e-05
0.000564313
0.000529866
0.000489233
0.00043927
0.000375144
0.000288638
0.000166578
1.83545e-05
0.000582136
0.000547002
0.000505979
0.00045587
0.000391481
0.000303822
0.000177907
1.99445e-05
0.000589759
0.00055415
0.000512802
0.000462541
0.000398074
0.000310086
0.00018275
2.06934e-05
0.000586676
0.000550816
0.000509318
0.000459007
0.00039461
0.000306872
0.00018022
2.05622e-05
0.000572934
0.000537362
0.000496009
0.000445769
0.000381599
0.000294715
0.00017088
1.95434e-05
0.000548625
0.00051461
0.000473788
0.000423736
0.000359941
0.00027451
0.000155582
1.77729e-05
0.000559104
0.000524268
0.000481682
0.000429038
0.000362139
0.000273873
0.000153702
1.64198e-05
0.000588162
0.000551725
0.00050877
0.000456067
0.00038865
0.000298126
0.000171224
1.87171e-05
0.000606841
0.000569642
0.000526254
0.000473349
0.00040558
0.000313753
0.000182749
2.03403e-05
0.000614938
0.000577195
0.000533438
0.000480331
0.000412393
0.000320095
0.000187489
2.11289e-05
0.000611793
0.00057379
0.000529883
0.000476707
0.000408811
0.000316733
0.000184833
2.09982e-05
0.00059739
0.000559726
0.000515999
0.000462918
0.000395276
0.000304115
0.000175225
1.99605e-05
0.000571849
0.000535875
0.00049273
0.000439863
0.00037264
0.000283072
0.00015945
1.81537e-05
0.00057945
0.000542998
0.000498417
0.000443341
0.000373482
0.00028163
0.000157296
1.67503e-05
0.000609468
0.000571439
0.000526489
0.000471333
0.000400908
0.000306697
0.000175368
1.90453e-05
0.000628678
0.000589961
0.000544597
0.000489221
0.000418386
0.000322731
0.000187039
2.07054e-05
0.000637005
0.000597783
0.000552072
0.000496503
0.000425465
0.000329241
0.000191795
2.15211e-05
0.000633752
0.000594297
0.000548471
0.000492854
0.00042185
0.00032582
0.000189085
2.13893e-05
0.000618842
0.000579737
0.000534141
0.000478649
0.000407921
0.000312853
0.000179274
2.03345e-05
0.000592381
0.000555003
0.000510002
0.00045474
0.000384478
0.000291137
0.00016313
1.84989e-05
0.000598446
0.000560356
0.000513792
0.000456354
0.000383675
0.000288473
0.000160373
1.70423e-05
0.000629464
0.000589805
0.000542851
0.000485286
0.000411956
0.000314234
0.000178828
1.93499e-05
0.000649201
0.000608969
0.000561638
0.000503829
0.000430006
0.000330702
0.000190706
2.10322e-05
0.000657715
0.000617093
0.000569477
0.000511471
0.000437394
0.000337423
0.000195539
2.18655e-05
0.000654366
0.000613591
0.000565906
0.00050786
0.000433795
0.000333985
0.000192812
2.17322e-05
0.000639034
0.000598654
0.000551227
0.000493325
0.000419543
0.000320732
0.000182844
2.06625e-05
0.000611789
0.000573125
0.000526299
0.000468657
0.000395409
0.000298464
0.000166413
1.88029e-05
0.000616291
0.00057639
0.000527757
0.000467952
0.000392544
0.000294232
0.000162824
1.72905e-05
0.000648562
0.000606971
0.000557834
0.000497787
0.000421599
0.000320583
0.000181559
1.96117e-05
0.000669115
0.000626946
0.000577367
0.000516988
0.000440198
0.00033745
0.000193627
2.13052e-05
0.000678031
0.000635516
0.000585641
0.000525012
0.000447889
0.00034437
0.00019854
2.2147e-05
0.00067469
0.000632069
0.000582139
0.000521454
0.000444303
0.000340907
0.000195796
2.2012e-05
0.000658962
0.000616773
0.000567128
0.000506599
0.000429735
0.000327378
0.000185688
2.09291e-05
0.000630778
0.000590382
0.000541408
0.000481199
0.000404941
0.000304588
0.000169002
1.9047e-05
0.000632413
0.000590663
0.000540007
0.00047796
0.00040004
0.000298944
0.000164701
1.74883e-05
0.000666019
0.000622337
0.000571017
0.000508604
0.000429776
0.000325795
0.000183649
1.98197e-05
0.000687543
0.000643136
0.000591248
0.000528396
0.000448857
0.000343004
0.000195866
2.15193e-05
0.000697008
0.000652195
0.000599939
0.000536759
0.000456802
0.000350084
0.000200842
2.23643e-05
0.000693725
0.000648815
0.000596491
0.000533225
0.000453197
0.000346573
0.000198071
2.22262e-05
0.000677552
0.000633139
0.000581137
0.000518036
0.000438302
0.000332766
0.000187833
2.11316e-05
0.000648293
0.000605871
0.000554646
0.000491921
0.000412856
0.000309457
0.000170898
1.92286e-05
0.000646287
0.000602952
0.000550548
0.00048654
0.000406409
0.000302868
0.000166178
1.76458e-05
0.000680976
0.000635516
0.000582335
0.000517879
0.000436744
0.000330158
0.000185301
1.99862e-05
0.000703291
0.000656966
0.000603125
0.000538161
0.000456237
0.000347663
0.000197646
2.16894e-05
0.000713218
0.000666401
0.000612132
0.00054679
0.000464389
0.00035488
0.000202679
2.25342e-05
0.000709963
0.000663049
0.000608702
0.00054325
0.000460753
0.000351325
0.000199886
2.23912e-05
0.000693349
0.000647006
0.000593018
0.00052774
0.000445551
0.000337267
0.000189534
2.12859e-05
0.00066314
0.000618976
0.000565838
0.000500968
0.000419496
0.000313476
0.000172378
1.93654e-05
0.000658266
0.000613662
0.000559787
0.00049407
0.000411975
0.000306249
0.000167399
1.77779e-05
0.000693744
0.000646944
0.000592246
0.000526035
0.000442855
0.000333936
0.000186674
2.01265e-05
0.000716576
0.000668875
0.000613493
0.000546743
0.000462717
0.000351711
0.000199136
2.18321e-05
0.000726777
0.000678568
0.000622744
0.000555596
0.00047106
0.000359064
0.000204232
2.26751e-05
0.000723497
0.000675209
0.000619315
0.000552052
0.000467408
0.000355488
0.000201434
2.25255e-05
0.000706529
0.000658857
0.000603348
0.00053627
0.000451951
0.000341228
0.000190998
2.14097e-05
0.000675617
0.00063021
0.000575577
0.000508926
0.000425372
0.000317033
0.000173666
1.94757e-05
0.000669127
0.000623358
0.000568104
0.000500783
0.000416858
0.000309138
0.000168382
1.78903e-05
0.000705331
0.000657333
0.000601221
0.000533353
0.000448252
0.000337185
0.000187789
2.02453e-05
0.000728598
0.000679724
0.000622917
0.000554475
0.000468466
0.000355208
0.000200352
2.19518e-05
0.000739012
0.000689654
0.000632407
0.00056355
0.000476994
0.000362692
0.000205508
2.27915e-05
0.000735711
0.000686302
0.000628995
0.000560018
0.000473342
0.000359107
0.000202715
2.26348e-05
0.000718464
0.000669694
0.000612788
0.000544005
0.000457671
0.000344684
0.00019222
2.15088e-05
0.000686966
0.000640489
0.00058448
0.000516152
0.000430638
0.000320154
0.000174752
1.95633e-05
0.000679207
0.000632197
0.000575544
0.000506662
0.000421018
0.00031149
0.000169098
1.79808e-05
0.000716256
0.00066691
0.000609318
0.000539808
0.000452884
0.000339854
0.000188608
2.03395e-05
0.000740086
0.000689823
0.000631482
0.000561336
0.000473426
0.000358098
0.00020125
2.20451e-05
0.000750798
0.000700039
0.00064123
0.000570628
0.000482122
0.000365689
0.00020645
2.28803e-05
0.000747517
0.000696718
0.000637843
0.000567105
0.000478458
0.000362086
0.00020366
2.27165e-05
0.00072999
0.000679861
0.000621406
0.000550872
0.000462582
0.000347506
0.000193118
2.15804e-05
0.000697831
0.000650083
0.000592576
0.000522535
0.000435122
0.000322664
0.000175527
1.96239e-05
0.000688178
0.00063995
0.000581988
0.000511687
0.000424508
0.000313389
0.000169593
1.80522e-05
0.000726078
0.00067535
0.000616345
0.000545332
0.000456782
0.000342024
0.000189184
2.04126e-05
0.00075052
0.000698768
0.00063893
0.000567214
0.000477605
0.000360454
0.000201889
2.21155e-05
0.000761571
0.000709267
0.000648909
0.000576687
0.000486434
0.000368127
0.000207119
2.29447e-05
0.000758322
0.000705969
0.000645528
0.000573148
0.000482736
0.000364489
0.000204323
2.27728e-05
0.000740487
0.000688853
0.000628853
0.000556686
0.000466646
0.00034975
0.000193734
2.1627e-05
0.000707618
0.000658503
0.000599517
0.000527878
0.000438762
0.000324588
0.000176017
1.96599e-05
0.000478255
0.00044241
0.000407509
0.000368364
0.000319773
0.000252504
0.000150598
2.08772e-05
0.000519467
0.000470898
0.000429553
0.000387976
0.00033877
0.000271567
0.000166922
2.386e-05
0.000540628
0.00048739
0.000440113
0.000396112
0.000346207
0.000279372
0.000174406
2.54717e-05
0.000534431
0.000481582
0.000436152
0.000392796
0.00034347
0.000277586
0.000174073
2.53736e-05
0.000501798
0.000458405
0.000419615
0.000379036
0.000331163
0.000266511
0.000165587
2.35976e-05
0.000462643
0.000429522
0.00039573
0.000357756
0.000311331
0.000247804
0.00015046
2.06753e-05
0.000425879
0.000398625
0.00036777
0.00033143
0.000285862
0.000223461
0.000131374
1.73145e-05
0.000499525
0.000462823
0.000427017
0.000385996
0.000334487
0.000262994
0.00015557
2.13877e-05
0.000543122
0.000490776
0.000448738
0.000405957
0.000354204
0.000282933
0.00017246
2.44173e-05
0.000568148
0.000506114
0.000458846
0.0004144
0.00036228
0.000291378
0.000180311
2.60372e-05
0.000557432
0.000500825
0.000455501
0.000411565
0.000360007
0.000290086
0.000180425
2.59996e-05
0.000523612
0.000479251
0.000440191
0.000398204
0.000347758
0.00027902
0.000171978
2.42607e-05
0.000485524
0.000451882
0.000416796
0.00037681
0.000327532
0.000259866
0.000156659
2.1309e-05
0.000449306
0.000421086
0.000388531
0.000349865
0.000301202
0.000234614
0.000137008
1.78823e-05
0.000505307
0.000479686
0.000445826
0.000403929
0.000350083
0.000274748
0.000161698
2.20124e-05
0.000524354
0.000499278
0.000466016
0.000424237
0.000370925
0.000296201
0.000179762
2.51629e-05
0.000513024
0.000509104
0.000475309
0.000433105
0.00037972
0.000305573
0.000188479
2.6855e-05
0.000532903
0.000508752
0.000473449
0.000430895
0.000377874
0.00030459
0.000188755
2.68513e-05
0.000526931
0.000496455
0.000460481
0.000418022
0.00036555
0.0002931
0.000179842
2.50658e-05
0.000504827
0.000473591
0.000438055
0.000396528
0.000344725
0.00027313
0.000163969
2.20384e-05
0.000472242
0.000443664
0.000409673
0.000368952
0.000317427
0.0002468
0.000143498
1.85082e-05
0.000512042
0.000497318
0.000465114
0.000422088
0.000365507
0.00028602
0.000167413
2.26404e-05
0.000507071
0.000511755
0.000485625
0.0004437
0.000388059
0.000309176
0.000186656
2.59212e-05
0.000521551
0.000516789
0.000495772
0.000453744
0.000398209
0.000319972
0.000196469
2.77086e-05
0.000519438
0.000520061
0.000494637
0.000451997
0.000396659
0.000319202
0.000196828
2.77294e-05
0.000531769
0.000516518
0.000482645
0.000439081
0.000383903
0.000307085
0.000187353
2.5878e-05
0.000525447
0.000496657
0.00046051
0.000417071
0.00036222
0.000286182
0.000170828
2.27664e-05
0.000496603
0.00046728
0.000431677
0.000388589
0.00033379
0.00025871
0.00014959
1.91299e-05
0.000540706
0.000521297
0.000485988
0.000439802
0.000379361
0.000295194
0.000171469
2.31296e-05
0.000544052
0.000541196
0.000509413
0.000463626
0.000403767
0.000319691
0.000191287
2.64726e-05
0.000547208
0.000549723
0.000521736
0.000475344
0.000415439
0.000331718
0.000201818
2.83376e-05
0.000554622
0.000551951
0.000520666
0.000473963
0.000414293
0.000331317
0.00020236
2.83676e-05
0.000565136
0.000544801
0.000507351
0.000460419
0.0004011
0.000318948
0.000192818
2.65052e-05
0.00055465
0.000522813
0.00048397
0.000437388
0.000378562
0.00029745
0.000176128
2.33668e-05
0.000523688
0.000491963
0.000453793
0.000407593
0.00034891
0.000269004
0.000154349
1.96534e-05
0.00058386
0.000548763
0.000506946
0.000456132
0.000391318
0.000302481
0.000174212
2.34848e-05
0.000612994
0.000579702
0.000534376
0.000482106
0.00041698
0.000327501
0.0001939
2.6814e-05
0.000618118
0.000596003
0.000548884
0.000495262
0.000429688
0.000340194
0.000204527
2.86851e-05
0.000623085
0.000594754
0.000547689
0.000494267
0.00042913
0.000340321
0.000205418
2.87438e-05
0.000615514
0.000576838
0.000531933
0.000480031
0.000415938
0.000328316
0.000196399
2.69341e-05
0.000587431
0.000549295
0.000506373
0.000455984
0.000392932
0.000306765
0.00017998
2.38207e-05
0.000550626
0.000515589
0.000474403
0.000424865
0.000362207
0.000277571
0.000157933
2.0068e-05
0.000615721
0.000571303
0.00052474
0.000470399
0.000402035
0.000309109
0.000176657
2.37766e-05
0.000665257
0.000608178
0.000554042
0.000497196
0.000428162
0.00033431
0.000196185
2.70847e-05
0.000689392
0.000628376
0.000569735
0.000511017
0.000441366
0.000347207
0.000206723
2.89436e-05
0.00068307
0.000625122
0.000568715
0.000510626
0.000441483
0.000347995
0.000208048
2.90407e-05
0.000651527
0.000602277
0.000552242
0.000496698
0.000428872
0.000336686
0.000199644
2.7292e-05
0.000614456
0.000571994
0.000525938
0.000472514
0.000405857
0.000315203
0.000183466
2.42101e-05
0.000574118
0.000536642
0.000492975
0.000440559
0.000374364
0.000285442
0.000161233
2.04333e-05
0.000628578
0.000585148
0.000538732
0.000483114
0.000412299
0.000315832
0.00017933
2.4061e-05
0.000675307
0.000617847
0.000566131
0.000509559
0.000438865
0.000341768
0.00019935
2.7408e-05
0.000703876
0.000637712
0.000581396
0.000523578
0.000452557
0.000355242
0.00021023
2.92972e-05
0.00070158
0.000638298
0.000582134
0.000524198
0.000453412
0.000356625
0.000211943
2.94304e-05
0.000670361
0.000618469
0.000568185
0.000511555
0.00044146
0.000345651
0.00020377
2.76999e-05
0.000633839
0.000590489
0.000543228
0.000487907
0.000418462
0.000323955
0.000187436
2.46147e-05
0.000593909
0.000555498
0.000510213
0.000455538
0.000386328
0.000293574
0.000164883
2.08033e-05
0.000623888
0.000594043
0.00055086
0.000495054
0.000422166
0.000322373
0.000181997
2.43378e-05
0.000638616
0.000614708
0.000575777
0.000521717
0.00045
0.000349849
0.000203039
2.77804e-05
0.000642117
0.000626397
0.000590032
0.000536185
0.000464693
0.000364461
0.000214732
2.97526e-05
0.000660412
0.000632977
0.000592637
0.00053775
0.000466136
0.000366288
0.000216746
2.99073e-05
0.000662483
0.000627933
0.000582527
0.000526307
0.000454417
0.000355127
0.000208344
2.81541e-05
0.00064689
0.000606812
0.000559785
0.00050313
0.000431135
0.000332904
0.000191579
2.50294e-05
0.000611995
0.000573524
0.000527031
0.000470313
0.000398215
0.000301705
0.000168599
2.11716e-05
0.000637195
0.000608488
0.000564757
0.000507159
0.000431469
0.000328161
0.000184175
2.45781e-05
0.000650134
0.000630213
0.00059122
0.000535602
0.000461123
0.000357124
0.000205996
2.80957e-05
0.000660444
0.000643958
0.000607073
0.000551466
0.00047721
0.000373015
0.000218463
3.01471e-05
0.000668314
0.000649364
0.000609717
0.000553472
0.0004791
0.000375203
0.000220721
3.03121e-05
0.00067823
0.000645517
0.00059996
0.000542014
0.000467143
0.00036373
0.000212146
2.85471e-05
0.000665807
0.000625591
0.000577263
0.000518342
0.000443183
0.000340837
0.000195021
2.53916e-05
0.00063176
0.000592059
0.000543723
0.000484503
0.000409236
0.000308931
0.000171754
2.14935e-05
0.000663095
0.000627455
0.000579939
0.00051898
0.000439844
0.000332958
0.000185742
2.47585e-05
0.000684462
0.000657582
0.000610318
0.000549817
0.000471009
0.00036268
0.000207669
2.82895e-05
0.000694435
0.000674851
0.000628122
0.00056718
0.000488206
0.000379286
0.000220404
3.03523e-05
0.000704983
0.000678173
0.00063074
0.000569496
0.000490539
0.000381863
0.000222855
3.05416e-05
0.000708015
0.000669091
0.000619058
0.000557235
0.0004783
0.000370427
0.000214421
2.87985e-05
0.000689529
0.000645828
0.000594516
0.000532401
0.000453632
0.000347256
0.000197405
2.56483e-05
0.00065224
0.000610084
0.00055922
0.000497141
0.000418596
0.000314669
0.000173954
2.17319e-05
0.000692223
0.000646369
0.000593908
0.000529402
0.000447032
0.000336927
0.000186896
2.48873e-05
0.000743602
0.000686413
0.000627848
0.000561872
0.000478932
0.000366818
0.000208602
2.83945e-05
0.000774969
0.000711121
0.000647741
0.000580231
0.000496654
0.000383579
0.000221206
3.04352e-05
0.000767668
0.000710087
0.000649826
0.000582785
0.000499418
0.000386539
0.000223872
3.06529e-05
0.000742646
0.000691857
0.000635901
0.000569966
0.000487251
0.000375359
0.00021576
2.89511e-05
0.000712022
0.000664054
0.000609472
0.000544293
0.000462252
0.000352276
0.000199032
2.5827e-05
0.00067041
0.000625798
0.000572526
0.00050784
0.000426367
0.000319246
0.000175542
2.19099e-05
0.000707708
0.000658489
0.000604239
0.000537744
0.000453006
0.000340209
0.000187757
2.49817e-05
0.000766267
0.000698982
0.000637775
0.000570261
0.000485215
0.000370413
0.000209529
2.84886e-05
0.000795649
0.000723726
0.000657614
0.00058881
0.000503244
0.000387503
0.000222286
3.05335e-05
0.000788053
0.000724934
0.000660933
0.000592131
0.00050655
0.00039081
0.000225102
3.07753e-05
0.000761232
0.000706122
0.000647807
0.000579896
0.000494795
0.000379955
0.00021722
2.90976e-05
0.0007279
0.000677831
0.000621456
0.000554267
0.000469726
0.00035678
0.000200588
2.59865e-05
0.000684727
0.000638772
0.000583861
0.00051718
0.000433301
0.000323425