/*--------------------------------*- C++ -*----------------------------------*\
| =========                 |                                                 |
| \\      /  F ield         | OpenFOAM: The Open Source CFD Toolbox           |
|  \\    /   O peration     | Version:  plus.master.MPPICInterFoam            |
|   \\  /    A nd           | Web:      www.OpenFOAM.com                      |
|    \\/     M anipulation  |                                                 |
\*---------------------------------------------------------------------------*/
FoamFile
{
    version     2.0;
    format      ascii;
    class       volScalarField;
    location    "10";
    object      rho;
}
// * * * * * * * * * * * * * * * * * * * * * * * * * * * * * * * * * * * * * //

dimensions      [1 -3 0 0 0 0 0];

internalField   nonuniform List<scalar> 
11821
(
1000
999.966
1000
946.994
999.999
1000
999.974
999.942
999.974
999.992
999.999
1000
1000
967.192
963.522
960.579
984.146
999.711
999.999
1000
822.802
621.995
641.969
913.231
986.186
999.987
1000
561.806
348.56
348.613
700.151
967.881
999.978
999.999
506.468
349.023
348.553
646.852
957.909
999.774
999.998
637.366
407.152
471.522
754.166
965.382
999.968
999.999
894.458
831.03
822.517
928.065
986.422
999.982
1000
1000
1000
1000
1000
1000
1000
1000
961.626
974.256
963.834
983.428
1000
1000
1000
853.022
659.786
708.335
924.685
986.16
1000
1000
845.977
424.953
399.967
783.04
972.409
1000
1000
813.288
436.033
350.511
727.919
968.6
1000
1000
897.429
653.971
605.361
863.737
960.541
1000
1000
891.401
868.751
820.443
916.377
985.304
1000
1000
1000
1000
1000
1000
1000
1000
1000
907.013
931.276
917.371
969.488
999.752
1000
1000
677.456
482.079
595.563
830.322
972.554
1000
1000
668.389
711.715
585.561
675.09
931.542
1000
1000
802.544
741.389
639.079
548.357
918.53
1000
1000
722.139
666.888
445.165
755.082
890.756
1000
1000
684.868
591.295
602.255
766.811
962.11
1000
1000
1000
1000
1000
1000
1000
1000
1000
830.815
827.804
838.648
951.449
998.509
1000
1000
431.365
411.871
429.214
683.433
953.399
1000
1000
398.491
707.23
483.507
449.848
865.987
1000
1000
592.341
759.963
757.946
426.877
821.988
1000
1000
398.592
477.92
389.383
458.392
818.13
1000
1000
427.811
405.304
396.819
609.072
929.091
1000
1000
1000
1000
1000
1000
1000
999.999
1000
838.385
820.82
843.256
956.222
998.62
1000
1000
407.832
409.912
409.025
694.046
958.515
1000
1000
394.357
499.573
378.667
437.542
872.478
1000
1000
398.089
759.963
649.113
421.512
831.057
1000
1000
394.002
388.043
389.383
412.271
837.149
1000
1000
434.241
400.444
414.358
638.624
935.895
1000
1000
1000
1000
1000
1000
1000
999.999
1000
899.724
883.049
900.756
973.754
999.527
1000
1000
530.683
432.866
496.985
809.624
977.882
1000
1000
390.886
378.211
378.665
566.749
927.058
1000
1000
394.357
748.561
387.786
512.155
904.681
999.999
1000
398.445
386.077
389.026
565.297
909.927
1000
1000
603.102
526.361
582.703
788.308
963.546
1000
1000
999.993
999.994
1000
1000
1000
1000
1000
932.336
940.953
933.858
981.293
999.995
1000
1000
701.904
507.886
641.908
880.697
986.68
1000
1000
522.207
377.879
380.567
721.608
958.116
999.989
1000
537.597
399.347
381.183
610.711
953.182
999.985
1000
596.523
387.247
412.567
757.778
939.229
999.996
1000
765.458
690.182
711.079
849
975.583
1000
1000
1000
1000
1000
1000
1000
1000
1000
918.433
939.785
924.99
979.755
1000
1000
1000
683.498
508.54
636.893
861.915
985.44
1000
1000
630.808
378.141
483.219
708.388
954.35
1000
1000
709.274
415.957
382.364
596.224
950.4
1000
1000
739.898
468.299
402.54
744.758
929.279
1000
1000
711.886
652.363
660.901
800.009
971.207
1000
1000
1000
1000
1000
1000
1000
1000
1000
868.365
908.3
891.683
973.733
999.857
1000
1000
526.244
451.707
535.633
801.952
979.473
1000
1000
449.423
564.838
441.159
604.148
935.454
1000
1000
643.692
663.467
573.064
530.553
926.115
1000
1000
588.108
553.288
369.668
606.41
901.607
1000
1000
518.276
466.183
487.189
706.772
956.903
1000
1000
1000
1000
1000
1000
1000
999.999
1000
843.839
862.351
872.166
970.76
999.713
1000
1000
405.801
412.587
449.082
776.932
976.356
1000
1000
385.582
659.045
371.806
533.075
924.669
1000
1000
413.707
674.419
669.484
513.522
908.962
1000
1000
377.446
462.65
369.174
511.59
893.528
1000
1000
443.121
431.754
429.581
696.386
952.54
1000
1000
999.999
1000
1000
1000
1000
999.999
1000
856.297
861.148
877.286
971.868
999.813
1000
1000
439.566
414.641
471.646
794.748
978.418
1000
1000
381.918
485.428
371.002
559.051
930.873
1000
1000
377.519
674.352
425.37
517.249
918.067
1000
1000
373.559
369.405
369.126
552.588
906.1
1000
1000
494.199
446.411
481.025
738.161
957.563
1000
1000
1000
1000
1000
1000
1000
999.999
1000
872.791
879.832
884.858
973.367
999.953
1000
1000
529.435
414.413
543.374
823.336
980.717
1000
1000
416.637
371.16
370.374
625.892
940.321
1000
1000
546.146
602.394
369.168
547.792
934.368
1000
1000
443.196
369.168
369.176
639.796
919.403
1000
1000
592.362
515.972
551.741
776.838
963.047
1000
1000
999.994
1000
1000
1000
1000
1000
1000
865.512
882.739
881.19
972.826
999.943
1000
1000
532.915
418.588
551.09
821.712
980.497
1000
1000
439.378
373.469
396.476
632.664
940.562
1000
1000
691.701
502.403
402.211
568.265
935.267
1000
1000
616.363
369.374
368.889
642.826
918.596
1000
1000
585.819
521.665
541.187
767.294
962.773
1000
1000
1000
1000
1000
1000
1000
1000
1000
835.588
867.357
868.073
970.385
999.813
1000
1000
464.804
418.014
508.264
802.344
978.093
1000
1000
400.695
460.877
408.683
602.656
935.766
1000
1000
495.675
584.678
586.46
560.157
927.433
1000
1000
563.815
398.293
368.62
599.267
910.939
1000
1000
508.905
469.603
483.308
738.15
959.506
1000
1000
1000
1000
1000
1000
1000
1000
1000
824.726
846.749
860.146
968.549
999.754
1000
1000
412.064
412.241
474.943
792.011
976.964
1000
1000
385.039
587.355
401.821
581.479
932.993
1000
1000
380.182
587.412
587.362
554.952
922.765
1000
1000
373.02
405.808
368.483
579.15
909.18
1000
1000
474.715
437.815
469.363
734.142
959.559
1000
1000
1000
1000
1000
1000
1000
999.999
1000
835.253
847.658
862.064
968.845
999.79
1000
1000
440.608
411.257
497.665
800.14
977.706
1000
1000
384.931
497.548
401.91
601.304
935.24
1000
1000
392.087
587.366
517.971
561.735
928.204
1000
1000
370.999
369.354
368.187
610.156
913.62
1000
1000
508.693
471.332
506.657
753.127
962.899
1000
1000
999.999
999.984
1000
1000
1000
1000
1000
1000
1000
1000
1000
1000
1000
1000
1000
1000
1000
1000
1000
1000
1000
1000
1000
1000
1000
1000
1000
1000
1000
1000
1000
1000
1000
999.993
999.95
999.969
1000
1000
1000
1000
1000
1000
1000
1000
1000
1000
999.852
999.443
1000
1000
1000
1000
1000
1000
999.996
999.931
1000
1000
1000
1000
1000
1000
1000
1000
1000
1000
1000
1000
1000
1000
1000
1000
1000
1000
1000
1000
1000
1000
1000
1000
1000
1000
1000
1000
1000
1000
1000
1000
1000
999.987
999.95
999.995
1000
1000
1000
1000
1000
1000
1000
1000
1000
999.998
999.836
999.533
1000
1000
1000
1000
1000
1000
999.993
999.902
1000
1000
1000
1000
1000
1000
1000
1000
1000
1000
1000
1000
1000
1000
1000
1000
1000
1000
1000
1000
1000
1000
1000
1000
1000
1000
1000
1000
1000
1000
1000
1000
1000
999.986
999.962
999.998
1000
1000
1000
1000
1000
1000
1000
1000
1000
1000
999.812
998.804
1000
1000
1000
1000
1000
1000
999.993
999.931
1000
1000
1000
1000
1000
1000
1000
1000
1000
1000
1000
1000
1000
1000
1000
1000
1000
1000
1000
1000
1000
1000
1000
1000
1000
1000
1000
1000
1000
1000
1000
1000
1000
999.986
999.995
999.995
1000
1000
1000
1000
1000
1000
1000
1000
1000
1000
999.716
997.734
1000
1000
1000
1000
1000
1000
999.998
999.979
1000
1000
1000
1000
1000
1000
1000
1000
1000
1000
1000
1000
1000
1000
1000
1000
1000
1000
1000
1000
1000
1000
1000
1000
1000
1000
1000
1000
1000
1000
1000
1000
999.998
999.986
999.997
999.997
1000
1000
1000
999.999
1000
1000
1000
1000
1000
1000
999.476
997.661
1000
1000
1000
1000
1000
1000
1000
999.996
1000
1000
1000
1000
1000
1000
1000
1000
1000
1000
1000
1000
1000
1000
1000
1000
1000
1000
1000
1000
1000
1000
1000
1000
1000
1000
1000
1000
1000
1000
1000
999.999
999.997
999.986
999.995
1000
1000
1000
1000
1000
1000
1000
1000
1000
1000
1000
999.324
997.663
1000
1000
1000
1000
1000
1000
1000
1000
1000
1000
1000
1000
1000
1000
1000
1000
1000
1000
1000
1000
1000
1000
1000
1000
1000
1000
1000
1000
1000
1000
1000
1000
1000
1000
1000
1000
1000
1000
1000
999.996
999.995
999.987
999.995
1000
1000
1000
1000
1000
1000
1000
1000
1000
1000
999.995
999.334
997.709
1000
1000
1000
1000
1000
1000
1000
1000
1000
1000
1000
1000
1000
1000
1000
1000
1000
1000
1000
1000
1000
1000
1000
1000
1000
1000
1000
1000
1000
1000
1000
1000
1000
1000
1000
1000
1000
1000
1000
999.991
999.993
999.997
999.998
1000
1000
1000
1000
999.993
1000
1000
1000
1000
1000
999.984
999.412
998.134
1000
1000
1000
1000
1000
1000
1000
1000
1000
1000
1000
1000
1000
1000
1000
1000
1000
1000
1000
1000
1000
1000
1000
1000
1000
1000
1000
1000
1000
1000
1000
1000
1000
1000
1000
1000
1000
1000
1000
999.989
999.993
999.998
1000
1000
1000
1000
1000
999.939
1000
1000
1000
1000
1000
999.963
999.564
998.774
1000
1000
1000
1000
1000
1000
1000
1000
1000
1000
1000
1000
1000
1000
1000
1000
1000
1000
1000
1000
1000
1000
1000
1000
1000
1000
1000
1000
1000
1000
1000
999.999
1000
1000
1000
1000
1000
1000
1000
999.994
999.993
999.998
1000
1000
1000
1000
1000
999.851
1000
1000
1000
1000
1000
999.919
999.723
999.213
1000
1000
1000
1000
1000
1000
1000
1000
1000
1000
1000
1000
1000
1000
1000
1000
1000
1000
1000
1000
1000
1000
1000
1000
1000
1000
1000
1000
1000
1000
1000
999.997
1000
1000
1000
1000
1000
1000
1000
999.997
999.994
999.998
1000
1000
1000
1000
1000
999.837
1000
1000
1000
1000
1000
999.854
999.834
999.441
1000
1000
1000
1000
1000
1000
1000
1000
1000
1000
1000
1000
1000
1000
1000
1000
1000
1000
1000
1000
1000
1000
1000
1000
1000
1000
1000
1000
1000
1000
1000
999.995
1000
1000
1000
1000
1000
1000
1000
999.985
999.998
999.999
1000
1000
1000
1000
1000
999.88
1000
1000
1000
1000
1000
999.83
999.894
999.602
1000
1000
1000
1000
1000
1000
1000
1000
1000
1000
1000
1000
1000
1000
1000
1000
1000
1000
1000
1000
1000
1000
1000
1000
1000
1000
1000
1000
1000
1000
1000
999.994
1000
1000
1000
1000
1000
1000
1000
999.946
999.999
999.999
1000
1000
1000
1000
1000
999.939
1000
1000
1000
1000
1000
999.834
999.933
999.734
1000
1000
1000
1000
1000
1000
1000
1000
1000
1000
1000
1000
1000
1000
1000
1000
1000
1000
1000
1000
1000
1000
1000
1000
1000
1000
1000
1000
1000
1000
1000
999.997
1000
1000
1000
1000
1000
1000
1000
999.896
999.999
999.999
1000
1000
1000
1000
1000
999.898
1000
1000
1000
1000
1000
999.853
999.964
999.809
1000
1000
1000
1000
1000
1000
1000
1000
1000
1000
1000
1000
1000
1000
1000
1000
1000
1000
1000
1000
1000
1000
1000
1000
1000
1000
1000
1000
1000
1000
1000
1000
1000
1000
1000
1000
1000
1000
1000
999.876
999.999
1000
1000
1000
1000
1000
1000
999.69
1000
1000
1000
1000
1000
999.89
999.989
999.817
1000
1000
1000
1000
1000
1000
1000
1000
1000
1000
1000
1000
1000
1000
1000
1000
1000
1000
1000
1000
1000
1000
1000
1000
1000
1000
1000
1000
1000
1000
1000
1000
1000
1000
1000
1000
1000
1000
1000
999.894
999.999
1000
1000
1000
1000
1000
1000
999.472
1000
1000
1000
1000
999.999
999.931
999.998
999.797
1000
1000
1000
1000
1000
1000
999.996
999.997
1000
1000
1000
1000
1000
1000
1000
1000
1000
1000
1000
1000
1000
1000
1000
1000
1000
1000
1000
1000
1000
1000
1000
1000
1000
1000
1000
1000
1000
1000
1000
999.943
1000
1000
1000
1000
1000
1000
1000
999.413
969.121
999.878
999.998
999.981
999.882
999.887
999.981
999.968
944.796
987.947
999.996
999.998
1000
1000
998.326
999.119
890.125
972.41
999.842
1000
1000
1000
997.451
996.583
917.64
981.644
999.98
999.999
999.975
999.98
999.461
999.824
954.703
999.58
1000
999.999
999.565
998.217
996.289
999.62
994.951
999.995
1000
999.848
998.872
998.334
996.285
996.286
1000
999.998
1000
1000
1000
999.918
999.571
999.46
953.598
999.923
999.999
999.976
999.86
999.888
999.982
999.945
936.81
973.967
999.996
999.999
1000
1000
999.054
999.358
944.35
956.142
999.96
999.999
1000
1000
996.584
996.583
927.871
967.955
999.993
999.999
999.96
999.958
999.931
999.921
932.717
998.705
1000
999.994
999.322
998.055
996.286
998.241
995.148
1000
1000
999.615
999.02
998.33
996.285
996.285
1000
999.996
1000
1000
1000
999.912
999.545
999.422
882.808
999.979
999.999
999.967
999.849
999.884
999.981
999.946
680.104
917.813
1000
1000
1000
999.646
999.232
999.698
572.867
867.357
1000
1000
1000
1000
996.582
996.582
670.361
897.73
1000
999.999
999.956
999.963
999.914
999.938
809.07
993.211
1000
999.998
999.217
998.137
996.285
996.291
987.561
1000
1000
999.424
999.449
998.518
996.285
996.285
1000
999.994
999.999
999.996
1000
999.925
999.578
999.489
810.878
999.973
999.999
999.953
999.832
999.867
999.975
999.981
431.898
856.879
1000.01
1000
1000
998.453
999.183
999.927
421.21
743.539
999.972
1000
1000
1000
997.295
997.732
424.67
807.81
1000.02
999.999
999.96
999.989
999.909
999.966
676.855
982.332
1000
999.987
999.269
998.609
996.395
996.289
970.381
999.999
999.999
999.424
999.785
998.633
996.831
996.285
1000
999.994
999.999
999.988
1000
999.942
999.701
999.763
821.677
999.975
999.99
999.939
999.796
999.834
999.971
999.991
455.796
872.24
999.99
1000
1000
998.274
999.17
999.988
414.37
759.218
999.979
1000
1000
1000
999.487
999.935
418.321
820.563
999.98
999.993
999.974
1000
999.908
999.991
696.46
982.622
999.995
999.82
999.528
999.219
997.642
996.319
969.543
999.996
999.994
999.424
999.882
998.551
999.035
998.104
1000
999.994
999.999
999.989
1000
999.05
999.766
999.981
880.298
999.479
999.986
999.936
999.755
999.817
999.975
999.991
685.24
931.456
999.994
1000
1000
998.269
999.248
999.991
578.387
868.136
999.865
1000
1000
999.581
999.763
999.991
603.521
900.997
999.989
999.999
1000
999.739
999.9
999.991
815.439
989.297
999.972
999.74
999.91
999.494
998.588
996.338
978.286
999.928
999.957
999.672
999.961
998.552
999.721
999.083
999.998
999.994
999.999
999.996
1000
998.552
999.79
999.999
895.606
998.619
999.991
999.94
999.766
999.823
999.982
999.991
878.313
936.149
999.815
1000
1000
998.269
999.447
999.991
847.779
907.693
998.58
1000
1000
998.287
999.587
999.991
830.236
924.553
999.733
1000
1000
999.21
999.914
999.991
868.123
990.356
999.977
999.909
1000
999.567
998.532
996.342
983.166
999.947
999.934
999.993
1000
998.901
999.716
998.984
1000
999.996
999.998
1000
1000
998.746
999.879
999.997
860.668
998.568
999.993
999.961
999.849
999.841
999.983
999.991
777.928
893.256
999.987
1000
1000
998.438
999.615
999.992
767.46
854.616
999.258
1000
1000
998.246
999.578
999.991
783.53
882.688
999.846
1000
1000
999.325
999.969
999.991
818.281
985.637
999.997
1000
1000
999.669
998.306
996.456
979.308
999.964
999.962
1000
999.998
999.986
999.765
999.026
1000
999.996
999.999
1000
999.996
999.802
999.978
999.956
803.113
998.847
999.996
999.991
999.909
999.866
999.979
999.992
493.251
837.571
1000.01
1000
1000
998.467
999.624
999.992
449.932
751.621
999.834
999.998
999.987
998.246
999.751
999.827
526.427
801.568
1000.01
999.999
999.999
999.651
999.969
999.843
701.983
974.817
1000
1000
1000
999.877
998.382
999.267
966.155
999.877
999.997
1000
1000
999.499
999.72
999.424
1000
999.996
999.999
1000
999.958
999.807
999.984
999.842
798.555
998.875
999.999
999.999
999.908
999.886
999.961
999.992
431.088
838.25
999.995
999.999
999.908
998.241
999.58
999.979
404.791
735.764
999.901
999.998
999.872
998.244
999.595
997.517
395.76
786.994
999.995
999.999
999.985
999.92
999.245
999.382
673.312
968.767
1000
1000
1000
999.96
999.471
999.621
958.395
999.65
1000
1000
999.996
996.963
999.235
999.634
1000
999.995
999.999
1000
999.851
999.558
999.56
999.777
818.708
998.188
999.999
999.999
999.901
999.902
999.94
999.993
543.96
870.368
999.996
999.999
999.451
998.222
999.514
999.521
474.625
787.693
998.023
999.995
999.43
998.32
998.1
996.725
475.956
821.676
999.994
1000
999.958
999.999
998.301
999.355
713.037
970.078
1000
1000
1000
998.824
999.588
999.609
959.495
999.468
1000
1000
999.844
996.827
997.657
999.54
999.999
999.994
999.998
1000
999.711
999.25
997.99
999.776
826.381
996.69
1000
999.999
999.897
999.92
999.943
999.992
750.065
879.073
999.286
999.999
998.841
998.222
999.526
998.281
737.073
827.965
994.483
999.996
999.016
998.886
996.725
996.725
667.031
850.434
999.012
1000
999.953
1000
998.664
999.516
753.891
970.637
1000
1000
1000
996.852
999.53
999.605
960.893
999.407
1000
1000
999.281
996.824
996.825
999.47
999.998
999.992
999.998
1000
999.603
998.921
997.687
999.788
808.873
995.267
1000
999.997
999.895
999.936
999.963
999.994
729.674
845.394
999.381
999.998
998.718
998.222
999.6
998.186
723.256
790.072
994.947
999.998
999.265
999.679
996.725
996.725
672.957
827.022
998.802
1000
999.967
1000
999.361
999.601
731.845
965.534
1000
1000
999.847
996.824
999.556
999.603
957.365
999.274
1000
1000
997.91
996.824
996.824
999.48
1000
999.992
999.998
1000
999.556
998.548
997.982
999.825
783.845
995.023
1000
999.995
999.895
999.953
999.991
999.998
523.039
805.266
999.99
999.996
998.736
998.556
999.76
998.85
477.173
714.901
995.812
999.998
999.799
999.991
997.27
996.725
529.276
766.835
999.483
1000
999.996
1000
999.636
998.864
663.867
953.166
1000
1000
998.944
996.983
999.453
999.389
947.387
998.932
1000
1000
997.171
996.824
996.824
999.549
1000
999.994
999.998
1000
999.56
998.4
998.408
999.882
786.194
995.346
999.999
999.988
999.9
999.973
999.997
999.997
444.659
811.009
999.992
999.991
998.734
999.46
999.92
999.68
391.073
712.98
995.119
999.996
999.968
1000
998.616
996.725
410.53
755.504
999.852
1000
1000
1000
999.638
996.859
648.536
947.394
1000
1000
998.141
998.882
997.548
999.098
943.894
998.61
1000
1000
997.513
996.824
996.825
999.676
999.999
999.996
999.998
1000
999.608
998.435
998.774
999.935
801.591
995.508
1000
999.976
999.926
999.979
999.985
999.995
533.94
841.856
999.725
999.992
998.734
999.87
999.99
999.857
504.216
764.233
991.587
999.995
999.989
1000
999.291
996.727
468.13
783.764
998.966
1000
1000
1000
999.58
996.729
679.752
949.668
1000
1000
998.912
999.862
996.846
999.069
945.677
998.561
1000
1000
998.563
996.825
996.842
999.802
1000
999.997
999.999
1000
999.717
998.584
999.05
999.967
1000
1000
1000
1000
1000
1000
1000
1000
999.999
1000
1000
1000
1000
1000
1000
999.992
1000
1000
1000
999.994
999.961
999.959
999.079
999.96
1000
1000
999.998
999.979
999.937
999.369
997.884
999.307
1000
1000
999.993
999.971
999.986
999.695
997.882
997.882
1000
1000
1000
1000
1000
999.646
998.264
999.091
1000
1000
1000
1000
1000
1000
999.302
996.515
1000
1000
1000
1000
1000
1000
1000
1000
1000
1000
1000
1000
999.999
1000
1000
999.997
1000
1000
1000
999.988
999.959
999.916
998.544
1000
1000
1000
999.998
999.961
999.934
998.831
998.069
998.802
1000
1000
999.99
999.975
999.989
999.611
997.884
998.461
1000
1000
1000
1000
999.993
999.389
998.923
996.739
1000
1000
1000
1000
1000
999.998
998.488
996.515
1000
1000
1000
1000
1000
1000
1000
1000
1000
1000
1000
1000
999.999
1000
1000
1000
1000
1000
1000
999.987
999.968
999.67
999.193
1000
1000
1000
999.998
999.935
999.922
998.82
999.501
998.462
1000
1000
999.989
999.99
999.987
999.455
997.885
999.544
1000
1000
1000
1000
999.967
999.272
999.195
996.74
1000
1000
1000
1000
1000
999.979
998.682
997.109
1000
1000
1000
1000
1000
1000
999.997
1000
1000
1000
1000
1000
999.999
1000
1000
1000
1000
1000
1000
999.989
999.972
999.447
999.954
999.707
1000
1000
999.998
999.927
999.916
999.286
999.793
998.462
1000
999.999
999.989
999.995
999.982
998.891
998.002
999.826
1000
1000
1000
1000
999.919
999.344
999.273
996.976
1000
1000
1000
1000
1000
999.932
998.992
998.176
1000
1000
1000
1000
1000
999.992
999.978
999.999
1000
1000
1000
1000
999.999
1000
999.996
1000
1000
1000
1000
999.988
999.978
999.462
999.995
999.079
1000
1000
999.996
999.927
999.899
999.878
999.596
998.549
1000
999.999
999.989
999.99
999.967
998.475
998.665
999.831
1000
999.999
1000
1000
999.859
999.56
999.195
997.042
1000
1000
1000
1000
1000
999.863
998.421
998.243
1000
1000
1000
1000
1000
999.965
999.97
999.999
1000
1000
1000
1000
999.999
1000
999.995
1000
1000
1000
1000
999.972
999.977
999.891
1000
999.01
1000
1000
999.994
999.928
999.895
999.898
998.858
999.474
1000
999.999
999.993
999.982
999.909
998.474
999.046
999.833
1000
999.999
999.999
1000
999.839
999.693
998.229
997.029
1000
1000
1000
1000
1000
999.826
996.771
998.243
1000
1000
1000
1000
1000
999.969
999.975
999.999
1000
1000
1000
999.999
999.999
999.996
999.997
999.997
1000
1000
1000
999.949
999.949
1000
1000
999.01
1000
1000
999.993
999.942
999.898
999.898
998.793
999.664
1000
999.999
999.996
999.985
999.627
998.474
999.009
999.833
1000
999.999
999.997
1000
999.843
999.695
996.734
997.064
1000
1000
1000
1000
1000
999.758
996.663
996.944
1000
1000
1000
1000
1000
999.985
999.987
999.998
1000
1000
1000
999.999
999.999
999.996
999.999
999.99
1000
1000
1000
999.95
999.918
999.993
1000
999.01
1000
1000
999.991
999.968
999.913
999.924
998.841
999.769
1000
1000
999.996
999.996
999.056
998.575
998.392
998.105
1000
999.999
999.997
999.999
999.861
999.635
996.663
998.051
1000
1000
1000
1000
1000
999.654
996.663
996.663
1000
1000
1000
1000
999.999
999.998
999.984
999.994
1000
1000
1000
999.997
999.999
999.999
1000
999.94
1000
1000
999.999
999.963
999.918
999.993
1000
999.229
1000
1000
999.986
999.979
999.936
999.913
999.05
999.827
1000
1000
999.996
999.988
998.998
999.218
998.082
997.375
1000
999.999
999.999
999.977
999.871
999.338
996.664
998.866
1000
1000
1000
1000
1000
999.576
996.798
996.664
1000
1000
1000
1000
999.998
1000
999.967
999.976
1000
1000
1000
999.994
999.999
1000
1000
999.795
1000
1000
999.993
999.983
999.924
999.999
1000
999.814
1000
1000
999.985
999.979
999.973
999.498
998.815
999.866
1000
1000
999.997
999.99
998.998
999.328
998.022
997.375
1000
999.999
1000
999.906
999.867
998.18
998.32
999.377
1000
1000
1000
1000
999.987
999.496
997.881
996.691
1000
1000
1000
1000
999.998
1000
999.945
999.97
1000
1000
1000
999.995
1000
1000
1000
999.763
1000
1000
999.988
999.995
999.981
1000
999.917
999.888
1000
1000
999.988
999.985
999.979
998.413
998.027
999.579
1000
1000
999.999
999.981
999.282
998.686
998.333
997.375
1000
999.999
1000
999.891
999.758
997.723
999.591
999.591
1000
1000
1000
1000
999.955
999.394
998.646
996.671
1000
1000
1000
1000
1000
1000
999.941
999.972
1000
1000
999.999
999.999
1000
1000
1000
999.763
1000
1000
999.99
999.999
999.987
1000
999.088
999.883
1000
1000
999.995
999.996
999.924
997.88
997.873
998.118
1000
1000
1000
999.93
999.497
997.721
999.443
997.391
1000
1000
1000
999.913
999.37
997.722
999.708
999.516
1000
1000
1000
1000
999.942
999.221
998.598
996.556
1000
1000
1000
1000
1000
1000
999.945
999.981
1000
1000
999.999
1000
1000
1000
1000
999.763
1000
1000
999.999
999.999
999.987
1000
998.781
999.88
1000
1000
1000
1000
999.685
997.735
998.888
997.908
1000
1000
1000
999.783
999.465
997.721
999.894
998.916
1000
1000
999.996
999.946
998.812
998.364
999.178
997.362
1000
1000
1000
1000
999.949
999.038
998.249
996.539
1000
1000
1000
1000
1000
1000
999.962
999.989
1000
1000
999.999
1000
1000
1000
1000
999.795
1000
1000
1000
1000
999.993
1000
998.781
999.892
1000
1000
1000
1000
999.285
997.721
999.773
997.907
1000
1000
1000
999.701
999.388
997.721
999.903
999.782
1000
1000
999.992
999.941
998.691
999.032
997.137
996.539
1000
999.999
1000
1000
999.976
998.932
998.083
996.539
1000
1000
1000
1000
1000
1000
999.98
999.99
1000
1000
1000
1000
1000
1000
1000
999.956
1000
1000
1000
1000
1000
999.825
999.19
999.893
1000
1000
1000
1000
999.186
997.721
999.829
997.88
1000
1000
1000
999.735
999.398
997.721
999.903
999.781
1000
1000
999.993
999.921
998.691
999.034
996.542
996.541
1000
999.999
1000
999.997
999.992
998.864
998.31
996.898
1000
1000
1000
1000
1000
1000
999.983
999.987
1000
1000
1000
1000
1000
1000
1000
1000
1000
1000
1000
1000
1000
999.103
999.986
999.15
1000
1000
1000
1000
999.319
997.72
999.884
997.88
1000
1000
1000
999.861
999.477
997.721
999.91
999.864
1000
1000
999.998
999.921
998.691
999.039
996.543
996.542
1000
999.999
1000
999.962
999.978
998.846
999.163
998.817
999.999
1000
1000
999.797
999.276
999.973
1000
999.999
1000
1000
996.402
994.972
998.852
999.175
999.94
999.994
999.515
1000
999.629
996.702
999.339
999.93
999.113
999.961
964.437
999.994
999.985
999.956
999.962
999.996
999.999
999.958
1000
1000
1000
1000
1000
998.409
999.954
999.711
1000
1000
1000
999.694
999.723
999.984
1000
999.998
1000
999.976
995.305
994.975
999.045
999.148
999.968
999.977
999.792
999.997
998.865
994.996
999.342
999.968
999.113
999.961
988.36
999.996
999.987
999.815
999.932
999.998
999.868
999.931
966.363
999.974
1000
1000
1000
1000
999.571
999.834
968.909
999.943
999.999
999.793
998.727
999.332
999.98
999.946
988.655
999.999
999.999
999.886
998.726
999.473
999.981
999.975
1000
1000
1000
999.298
999.851
999.982
1000
999.999
1000
999.905
995.308
996.59
998.993
999.269
999.984
999.974
1000
999.992
997.326
995.015
999.321
1000
999.194
999.963
984.55
999.998
999.959
999.661
999.894
1000
998.601
999.904
951.402
999.999
999.999
1000
1000
1000
997.738
999.688
956.208
999.999
999.999
999.659
998.726
999.454
999.818
999.766
982.3
999.999
1000
999.686
998.726
999.498
999.978
999.955
1000
1000
999.991
999.094
999.856
999.985
1000
999.999
1000
999.893
995.908
998.574
998.843
999.47
999.982
999.985
1000
999.996
995.75
995.029
999.335
999.782
999.562
999.961
962.39
999.998
999.895
999.542
999.843
1000
998.78
999.902
864.584
999.999
999.999
1000
1000
1000
997.71
999.536
872.159
999.999
1000
999.609
998.726
999.658
998.134
999.564
946.803
1000
1000
999.415
998.726
999.535
999.956
999.927
1000
1000
999.91
999.409
999.853
999.994
1000
999.984
1000
999.774
998.471
999.217
998.823
999.561
999.975
999.983
999.47
999.996
995.613
995.073
999.538
998.706
999.712
999.953
934.933
999.998
999.825
999.275
999.807
1000
999.54
999.919
761.212
1000.03
999.999
999.999
999.999
1000
997.707
999.544
748.84
999.982
999.999
999.453
998.726
999.681
997.706
999.5
891.484
1000.01
1000
999.136
998.726
999.629
999.867
999.917
999.999
999.999
999.851
999.848
999.854
999.993
1000
999.968
1000
999.725
999.809
999.213
998.822
999.586
999.975
999.942
998.94
999.856
995.603
996.908
999.798
998.626
999.75
999.952
941.008
999.914
999.534
998.746
999.824
999.999
999.736
999.939
781.886
999.986
999.998
999.999
1000
1000
997.703
999.595
764.366
999.99
999.997
999.01
999.11
999.774
997.703
999.526
895.655
1000
999.998
998.964
998.727
999.795
999.662
999.915
999.999
999.999
999.857
999.89
999.851
999.994
1000
999.976
1000
999.801
999.947
999.062
998.821
999.617
999.978
999.931
999.282
999.49
995.605
998.898
999.755
998.624
999.795
999.952
963.808
999.823
998.729
998.715
999.908
999.999
999.692
999.948
874.279
999.984
999.993
999.992
1000
999.901
997.7
999.698
862.114
999.977
999.986
998.921
999.624
999.823
997.701
999.607
934.56
999.99
999.991
998.919
999.038
999.929
999.432
999.92
999.999
999.999
999.93
999.874
999.864
999.997
999.999
999.995
1000
999.952
999.962
998.912
998.821
999.675
999.984
999.931
999.921
999.266
996.719
999.837
999.387
998.619
999.842
999.943
969.959
999.878
998.437
999.087
999.992
999.368
999.602
999.949
897.844
999.948
999.987
999.989
1000
999.53
997.701
999.831
898.885
999.955
999.991
999.074
999.935
999.77
997.7
999.723
943.859
999.993
999.991
998.919
999.631
999.959
999.388
999.934
999.999
999.998
999.968
999.844
999.915
1000
999.997
999.997
1000
999.999
999.93
998.911
998.964
999.763
999.991
999.951
999.91
999.445
999.813
999.941
998.964
998.615
999.903
999.909
964.314
999.9
999.294
999.777
999.999
998.599
999.592
999.949
862.339
999.935
999.986
999.989
1000
998.633
997.889
999.946
863.451
999.911
999.991
999.802
1000
999.508
997.7
999.854
927.036
999.994
999.993
999.171
999.936
999.959
999.429
999.955
999.999
999.993
999.965
999.845
999.971
1000
999.995
999.875
1000
1000
999.808
998.911
999.406
999.829
999.994
999.992
999.366
999.899
999.999
999.941
998.939
999.053
999.963
999.909
950.704
999.971
999.997
999.999
1000
998.889
999.657
999.917
799.35
999.995
999.993
999.994
1000
998.232
998.814
999.994
784.261
999.941
999.993
1000
1000
998.746
998.112
999.953
891.865
999.996
999.994
999.966
999.998
999.953
999.532
999.976
999.999
999.988
999.963
999.895
999.995
999.999
999.992
999.655
1000
1000
999.752
998.911
999.647
999.854
999.995
999.992
998.963
1000
1000
999.879
998.938
999.511
999.996
999.929
946
999.999
999.999
1000
1000
999.784
999.821
999.9
789.088
999.997
1000
1000
1000
998.23
999.355
999.998
762.905
999.942
999.999
1000
1000
998.234
998.975
999.994
880.114
1000
999.997
1000
1000
999.818
999.642
999.993
999.998
999.989
999.971
999.974
1000
999.999
999.986
999.629
1000
1000
999.763
999.685
999.673
999.862
999.988
999.885
999.079
1000
1000
999.735
998.937
999.604
999.999
999.992
950.094
1000
1000
1000
1000
999.87
999.944
999.965
810.486
999.997
1000
1000
999.97
998.229
999.547
999.998
787.997
999.825
1000
1000
1000
998.23
999.245
999.999
888.144
1000
1000
1000
1000
999.224
999.71
1000
999.995
999.994
999.989
1000
1000
999.999
999.98
999.629
1000
1000
999.926
999.978
999.668
999.883
999.971
999.665
999.32
1000
1000
999.678
998.936
999.619
999.999
999.999
955.267
1000
1000
1000
1000
999.862
999.974
999.999
827.873
999.851
1000
1000
999.889
998.229
999.711
999.998
806.411
999.273
1000
1000
999.991
998.228
999.35
1000
891.118
1000
1000
1000
1000
998.928
999.775
1000
999.994
999.999
999.999
1000
1000
1000
999.974
999.742
1000
1000
1000
999.963
999.691
999.924
999.948
999.628
999.338
1000
1000
999.705
998.936
999.648
999.999
999.999
954.16
1000
1000
1000
999.992
999.797
999.985
999.999
819.217
999.894
1000
1000
999.767
998.661
999.879
999.993
792.607
999.094
1000
1000
999.95
998.228
999.505
1000
881.558
1000
1000
1000
1000
999.193
999.857
1000
999.994
999.999
1000
1000
1000
999.999
999.969
999.854
1000
1000
1000
999.945
999.793
999.968
999.926
999.628
999.211
1000
1000
999.798
998.936
999.721
999.997
999.893
948.515
1000
1000
1000
999.672
999.6
999.993
999.999
798.215
999.991
1000
1000
999.739
999.794
999.976
999.993
764.251
999.069
1000
1000
999.863
998.228
999.734
1000
866.602
1000
1000
1000
1000
999.667
999.941
1000
999.995
999.999
999.995
1000
1000
999.996
999.961
999.744
1000
1000
999.999
999.914
999.933
999.993
999.92
999.709
999.228
1000
1000
999.853
999.089
999.846