/*--------------------------------*- C++ -*----------------------------------*\
| =========                 |                                                 |
| \\      /  F ield         | OpenFOAM: The Open Source CFD Toolbox           |
|  \\    /   O peration     | Version:  plus.master.MPPICInterFoam            |
|   \\  /    A nd           | Web:      www.OpenFOAM.com                      |
|    \\/     M anipulation  |                                                 |
\*---------------------------------------------------------------------------*/
FoamFile
{
    version     2.0;
    format      ascii;
    class       volVectorField;
    location    "10";
    object      U;
}
// * * * * * * * * * * * * * * * * * * * * * * * * * * * * * * * * * * * * * //

dimensions      [0 1 -1 0 0 0 0];

internalField   nonuniform List<vector> 
11821
(
(0.0170248 0.00550805 0.446698)
(0.0242422 0.0146549 0.552072)
(0.0161617 0.0106439 0.438)
(0.0216756 0.0292988 0.616745)
(0.0176603 0.0205405 0.509051)
(0.0128492 0.014361 0.40846)
(-0.0183109 -0.0128344 0.554363)
(-0.0138526 -0.0155237 0.568301)
(-0.00822888 -0.0146168 0.55095)
(-0.00381345 -0.0104812 0.505282)
(-0.00202864 -0.00655445 0.441419)
(-0.00150741 -0.00392558 0.369317)
(-0.00124271 -0.00209972 0.295719)
(-0.0240214 -0.018663 0.66503)
(-0.016338 -0.0220259 0.688525)
(-0.0066031 -0.02059 0.668355)
(0.000147827 -0.0143508 0.607472)
(0.00151864 -0.00809293 0.52614)
(0.000944011 -0.00427451 0.437705)
(0.000353736 -0.0020343 0.350212)
(-0.0308529 -0.022595 0.780161)
(-0.0167437 -0.023696 0.852655)
(-0.00200085 -0.0200019 0.818145)
(0.00699736 -0.0145764 0.710415)
(0.00815819 -0.00760757 0.605887)
(0.00515331 -0.00310803 0.499958)
(0.00286024 -0.000940442 0.398261)
(-0.0363932 -0.0126329 0.922419)
(-0.0113616 -0.0129314 1.18496)
(0.00353064 -0.00742449 1.10665)
(0.0125574 -0.00560535 0.815242)
(0.0152952 -0.00135757 0.668598)
(0.00981892 0.00130929 0.546446)
(0.00545375 0.00191986 0.433454)
(-0.0376887 0.00807603 0.997649)
(-0.00706326 0.00475224 1.28586)
(0.00513154 0.00505191 1.16385)
(0.0123868 0.00849235 0.862336)
(0.0170961 0.00917316 0.693654)
(0.0114861 0.00758533 0.565849)
(0.0063731 0.00586966 0.448841)
(-0.0367477 0.0272135 0.875979)
(-0.0146606 0.0307908 1.06002)
(0.00357508 0.0262277 0.985294)
(0.0128566 0.0240074 0.799779)
(0.0151334 0.0180388 0.67188)
(0.00939732 0.0132786 0.553461)
(0.00570448 0.00913727 0.441758)
(-0.0279372 0.0347931 0.75975)
(-0.0149293 0.0412147 0.811795)
(-0.000623089 0.0394214 0.796998)
(0.00634105 0.0314676 0.71438)
(0.0072392 0.0218778 0.617719)
(0.00525005 0.0155072 0.515176)
(0.00385169 0.0105977 0.41408)
(-0.0117112 0.00863805 0.557664)
(-0.0132848 0.008934 0.568562)
(-0.0125076 0.00783099 0.548795)
(-0.0114568 0.0071303 0.50231)
(-0.0103755 0.00555536 0.437923)
(-0.00867806 0.00405168 0.36558)
(-0.00695551 0.00311136 0.292298)
(-0.0160352 0.0112807 0.671194)
(-0.0172362 0.00914798 0.687182)
(-0.0147451 0.00733452 0.6635)
(-0.0132684 0.00828548 0.604246)
(-0.012628 0.00671699 0.522915)
(-0.0104201 0.00479277 0.433698)
(-0.00803937 0.00339017 0.346198)
(-0.0216033 0.00405037 0.782183)
(-0.0214808 -0.00679801 0.827908)
(-0.0145957 -0.00414022 0.800627)
(-0.0119775 0.00532555 0.702387)
(-0.0135366 0.00652137 0.601611)
(-0.0115584 0.00531508 0.49553)
(-0.00867866 0.00389898 0.393635)
(-0.0360357 0.00202594 0.871425)
(-0.0320449 -0.00479126 1.02221)
(-0.00631912 -0.00133932 1.00656)
(-0.00263641 0.00724455 0.796074)
(-0.0114569 0.00784103 0.660705)
(-0.0115784 0.00640848 0.541224)
(-0.00882668 0.00470107 0.42836)
(-0.0400015 0.0141165 0.917915)
(-0.0320948 0.022212 1.08573)
(-0.0034696 0.0264124 1.15584)
(-0.000485254 0.0146373 0.835359)
(-0.0118823 0.0110236 0.686302)
(-0.0122123 0.00807148 0.561248)
(-0.00901315 0.00558315 0.444121)
(-0.0286632 0.0194638 0.867915)
(-0.0232178 0.0324744 0.945262)
(-0.00937787 0.0315777 0.923583)
(-0.010834 0.0167624 0.798413)
(-0.0144929 0.011576 0.670529)
(-0.0131111 0.00826381 0.551327)
(-0.0089794 0.00575642 0.438044)
(-0.0159618 0.00904836 0.77632)
(-0.0173925 0.0188917 0.810756)
(-0.0162445 0.0167628 0.797847)
(-0.0164676 0.00992672 0.719414)
(-0.0162872 0.00724681 0.620757)
(-0.0123598 0.00632573 0.514261)
(-0.0076466 0.00456306 0.411385)
(-0.00618471 0.016183 0.550852)
(-0.0109123 0.0201912 0.560554)
(-0.0137374 0.0175923 0.539199)
(-0.0142385 0.0137404 0.491338)
(-0.0129057 0.00957224 0.426557)
(-0.0104697 0.00639338 0.35535)
(-0.00806939 0.00435358 0.284196)
(-0.00850738 0.0240103 0.686449)
(-0.0152947 0.0278193 0.698162)
(-0.0189908 0.0229354 0.670551)
(-0.0198947 0.0185641 0.600958)
(-0.0179695 0.0124511 0.512271)
(-0.0138994 0.00777826 0.421818)
(-0.0101207 0.0048065 0.336061)
(-0.0152746 0.022731 0.857554)
(-0.0225401 0.021072 0.916275)
(-0.0205518 0.0160887 0.847965)
(-0.023 0.0177818 0.723089)
(-0.0230952 0.0134292 0.597321)
(-0.017422 0.0084877 0.483216)
(-0.0119824 0.00523233 0.381866)
(-0.0273777 0.0154769 0.9763)
(-0.0304283 0.0119314 0.967869)
(-0.0194012 0.00901658 0.924981)
(-0.0205366 0.0135088 0.826512)
(-0.0265826 0.0120911 0.664145)
(-0.0204556 0.00806586 0.529185)
(-0.0134881 0.00514853 0.415563)
(-0.0285011 0.0139561 0.972383)
(-0.0359024 0.0189159 1.0186)
(-0.021488 0.0186837 0.965225)
(-0.0197399 0.0150141 0.895066)
(-0.0291884 0.00957977 0.694079)
(-0.022328 0.00644262 0.549907)
(-0.0141599 0.00432512 0.431139)
(-0.0162539 0.00797854 0.972615)
(-0.0255888 0.0160931 0.98707)
(-0.0266603 0.022575 1.02241)
(-0.0262181 0.00935749 0.835509)
(-0.0287564 0.0046656 0.683421)
(-0.0208156 0.00387207 0.540634)
(-0.0129009 0.00304375 0.425775)
(-0.00711333 -0.00789813 0.854535)
(-0.0193686 -0.00608329 0.933671)
(-0.0253415 -0.00286935 0.893185)
(-0.0267131 -0.00433126 0.761657)
(-0.0239083 -0.00103082 0.622274)
(-0.0166087 0.00141725 0.503728)
(-0.00995461 0.00146334 0.400394)
(-0.00561293 0.00362699 0.538722)
(-0.0080083 0.00846041 0.546873)
(-0.00999444 0.00623392 0.525042)
(-0.00909749 0.00382099 0.477552)
(-0.0069869 0.00225477 0.414245)
(-0.00499174 0.00124682 0.345689)
(-0.00337289 0.000719536 0.277504)
(-0.00694632 0.00857286 0.683946)
(-0.0107466 0.0177346 0.700463)
(-0.0142584 0.0117566 0.666394)
(-0.0128733 0.00722637 0.588109)
(-0.00936665 0.00423913 0.497192)
(-0.00621445 0.00225717 0.408864)
(-0.00390416 0.00113429 0.326753)
(-0.0137471 0.0133288 0.897103)
(-0.0151196 0.0243815 0.911115)
(-0.0145306 0.0174395 0.868235)
(-0.0155909 0.0104003 0.730715)
(-0.0116027 0.00666268 0.583352)
(-0.00726287 0.00368701 0.46777)
(-0.0041634 0.00198016 0.370227)
(-0.0128078 0.0116446 1.02581)
(-0.0181963 0.0115566 0.976118)
(-0.0202523 0.0110294 0.985322)
(-0.0207135 0.0069743 0.868723)
(-0.0150207 0.00765643 0.656504)
(-0.00893327 0.00476152 0.512354)
(-0.00461054 0.00281788 0.402329)
(-0.0151312 0.00646251 1.07387)
(-0.0201209 0.00390084 1.03235)
(-0.0189012 0.00421489 0.975968)
(-0.0250018 0.00582096 0.907736)
(-0.020397 0.00489954 0.690579)
(-0.0107778 0.00384765 0.53237)
(-0.00491557 0.00276968 0.417328)
(-0.00967206 -1.21237e-05 1.03585)
(-0.0193293 -0.00261454 1.09397)
(-0.0200746 -0.000384111 1.0314)
(-0.0171178 0.00550062 0.906078)
(-0.0134849 0.00223833 0.676118)
(-0.00713802 0.00299397 0.524098)
(-0.00298404 0.00266622 0.412905)
(-0.00776586 -0.00162583 0.889381)
(-0.0140776 -0.0077004 0.951562)
(-0.015642 -0.00334417 0.913019)
(-0.0129687 0.00135349 0.76895)
(-0.0083598 0.00333927 0.609638)
(-0.00411129 0.0039635 0.48917)
(-0.00099622 0.00309482 0.389722)
(-0.00865233 -0.0113194 0.532392)
(-0.00685324 -0.00914894 0.538552)
(-0.00529669 -0.00989958 0.516114)
(-0.00215901 -0.00889685 0.469389)
(0.00019648 -0.00655227 0.408161)
(0.00119122 -0.0046616 0.342108)
(0.00163872 -0.00329246 0.276011)
(-0.0102398 -0.0110779 0.667727)
(-0.00799123 -0.0049259 0.68408)
(-0.00667125 -0.00883453 0.648616)
(-0.00171012 -0.00922977 0.572169)
(0.00194353 -0.00656894 0.48594)
(0.00287506 -0.00443192 0.402167)
(0.002943 -0.00302659 0.323456)
(-0.0126164 -0.00392469 0.880911)
(-0.00909066 0.00700013 0.909331)
(-0.00745699 -0.000683496 0.848148)
(-0.000768343 -0.00593081 0.7056)
(0.00492839 -0.0040713 0.565768)
(0.00543331 -0.00268334 0.457836)
(0.00475451 -0.00183153 0.365159)
(-0.00654841 0.00161658 1.03414)
(-0.010322 0.00570891 1.06649)
(-0.0146212 0.00451145 1.0008)
(-0.00462862 -0.0020724 0.842737)
(0.00602705 0.000668908 0.634885)
(0.00696726 0.000553104 0.500158)
(0.00612232 0.000275064 0.396037)
(-0.00843256 -0.00095592 1.07369)
(-0.00911022 -0.00220574 1.0357)
(-0.0134998 -0.00192835 1.01447)
(-0.0125994 0.000502261 0.901551)
(0.00160282 0.0025638 0.666922)
(0.00623702 0.0027498 0.519398)
(0.00653168 0.00209309 0.410716)
(-0.0105218 0.000380254 1.0337)
(-0.00943329 -0.0048939 1.06694)
(-0.0101053 -0.00452972 1.0204)
(-0.000717039 0.00679351 0.869361)
(0.00846323 0.00557801 0.651362)
(0.00900952 0.0052388 0.512184)
(0.00779253 0.00395231 0.40725)
(-0.0112557 0.0114157 0.869608)
(-0.00697547 0.00889734 0.933196)
(-0.0034259 0.0107048 0.88481)
(0.00407108 0.0159121 0.736786)
(0.0087907 0.0120437 0.591477)
(0.00869641 0.00895152 0.480571)
(0.00778945 0.00609072 0.386145)
(-0.0105253 -0.0139108 0.530989)
(-0.00703276 -0.0140499 0.535005)
(-0.00360035 -0.0134089 0.51202)
(-0.000232643 -0.0107397 0.466477)
(0.00161551 -0.00767949 0.407091)
(0.00223249 -0.0054622 0.342348)
(0.00241089 -0.00392399 0.277127)
(-0.0127448 -0.0161859 0.645431)
(-0.00749208 -0.0146703 0.658084)
(-0.00294326 -0.0149729 0.625324)
(0.00196133 -0.0124178 0.559507)
(0.00416318 -0.00822609 0.480824)
(0.00424742 -0.0054058 0.400601)
(0.00387741 -0.00369727 0.323603)
(-0.0140692 -0.0127791 0.808301)
(-0.00570512 -0.00682111 0.862166)
(-0.00155486 -0.00925051 0.792049)
(0.00525705 -0.00990052 0.662465)
(0.00855193 -0.00648817 0.552486)
(0.00730535 -0.00389732 0.453776)
(0.00586347 -0.00256994 0.364222)
(-0.00942425 -0.00495345 1.01175)
(-0.00143318 0.00397993 1.05301)
(-0.00285308 -3.93245e-05 0.971394)
(0.00484991 -0.002812 0.770213)
(0.0114606 -0.00139512 0.610509)
(0.00989557 -0.000436438 0.493897)
(0.00758382 -0.000302585 0.394253)
(-0.0003731 2.09468e-05 1.06104)
(-0.000187535 -9.59806e-05 1.056)
(-0.00978809 0.000238991 1.03717)
(-0.000785798 0.00230494 0.820698)
(0.0104469 0.00355078 0.637454)
(0.0102598 0.00324762 0.512418)
(0.00823936 0.00219745 0.408789)
(-0.010872 0.0076681 0.998259)
(-0.00118797 -0.00235184 1.04083)
(-0.00228292 0.00465827 0.979088)
(0.00525535 0.00956881 0.784239)
(0.0123348 0.00870828 0.624227)
(0.0107453 0.00679646 0.506262)
(0.00854788 0.00454428 0.405929)
(-0.0115227 0.017913 0.79201)
(-0.00381235 0.0142923 0.847207)
(0.000346851 0.0189955 0.79697)
(0.00702792 0.0190396 0.686962)
(0.0100544 0.0139876 0.577993)
(0.00896717 0.00995037 0.477782)
(0.00796196 0.00646239 0.386274)
(-0.00972764 -0.0050842 0.530978)
(-0.00799254 -0.00553096 0.5329)
(-0.00547574 -0.00528917 0.508829)
(-0.00317424 -0.00407017 0.463505)
(-0.00170288 -0.0031412 0.405001)
(-0.000643152 -0.00254444 0.341121)
(8.15251e-05 -0.0020979 0.276761)
(-0.0126215 -0.00539238 0.640965)
(-0.00968908 -0.00613357 0.648178)
(-0.00590159 -0.00630386 0.617083)
(-0.00279732 -0.0042161 0.553359)
(-0.00127963 -0.00287328 0.476837)
(-0.000235434 -0.00218031 0.398105)
(0.00051098 -0.00183987 0.32226)
(-0.0149023 -0.00569621 0.774163)
(-0.0093268 -0.00410385 0.820798)
(-0.00474714 -0.00505562 0.758672)
(-0.000435975 -0.00343676 0.650437)
(0.000444025 -0.00179064 0.545705)
(0.000862222 -0.00110119 0.449791)
(0.0013149 -0.00101304 0.36187)
(-0.0160407 -0.00132099 0.907813)
(-0.00570003 0.0017627 1.02897)
(-0.00353528 0.00181237 0.947833)
(0.00146212 0.00130332 0.742824)
(0.00243157 0.00142231 0.600841)
(0.00206428 0.0012106 0.488612)
(0.00213661 0.000523166 0.391136)
(-0.0165434 0.00434721 0.951472)
(-0.00420687 0.00281633 1.11777)
(-0.00542355 0.00589864 1.01886)
(-0.00123848 0.00587459 0.792081)
(0.00179182 0.00513359 0.626047)
(0.00210282 0.00385231 0.507075)
(0.00239931 0.00226211 0.405566)
(-0.0184343 0.0103644 0.883539)
(-0.00697504 0.00939752 1.0374)
(-0.00218259 0.0111757 0.935121)
(-0.000445817 0.0100312 0.753636)
(0.00170583 0.00809696 0.615917)
(0.00184344 0.00592545 0.501725)
(0.0025205 0.00364369 0.403166)
(-0.0131578 0.0138307 0.7737)
(-0.0081001 0.0165152 0.815196)
(-0.00463846 0.0161758 0.777692)
(-0.00184752 0.0130243 0.679536)
(-0.0003318 0.00949988 0.573422)
(0.00119255 0.00699859 0.475074)
(0.00277864 0.00425379 0.384492)
(-0.00756694 0.00290454 0.527841)
(-0.00821102 0.00314703 0.527759)
(-0.00727473 0.00231041 0.502614)
(-0.00594382 0.00147372 0.457269)
(-0.00446365 0.000424027 0.399387)
(-0.00291628 -0.000314118 0.336646)
(-0.00170481 -0.000735209 0.273809)
(-0.0113335 0.00654115 0.639279)
(-0.0118049 0.00459456 0.641632)
(-0.00973547 0.00355059 0.608848)
(-0.00791708 0.00294505 0.545671)
(-0.00602319 0.00141355 0.46965)
(-0.00380596 0.000274338 0.392038)
(-0.00207456 -0.000490762 0.317837)
(-0.0161952 0.00559447 0.772775)
(-0.0159875 -0.00023966 0.808453)
(-0.0103552 0.000154584 0.74421)
(-0.00813674 0.00279127 0.640731)
(-0.00690567 0.00216894 0.537089)
(-0.00432114 0.00105141 0.442323)
(-0.00217806 8.31156e-05 0.356191)
(-0.0258465 0.00355893 0.885012)
(-0.023522 0.000155021 1.05229)
(-0.00737741 -0.000131866 0.888963)
(-0.00498748 0.00378359 0.728284)
(-0.00678334 0.00350319 0.590443)
(-0.00450638 0.00222946 0.480134)
(-0.00212975 0.000926603 0.384567)
(-0.0316146 0.00741894 0.941837)
(-0.0277502 0.0104834 1.03826)
(-0.0110462 0.0107659 1.04317)
(-0.00531108 0.00762201 0.778875)
(-0.00733338 0.00532691 0.616111)
(-0.00490429 0.00348312 0.498502)
(-0.00212595 0.00175002 0.39878)
(-0.0259163 0.0105878 0.903925)
(-0.021506 0.0162383 0.945641)
(-0.0100633 0.0170279 0.919684)
(-0.00793946 0.00886236 0.744357)
(-0.00841546 0.00592104 0.608282)
(-0.00502235 0.00404439 0.493995)
(-0.0018046 0.00218795 0.396763)
(-0.0139164 0.005704 0.786839)
(-0.014705 0.0114832 0.819439)
(-0.0124672 0.0100206 0.780756)
(-0.0108839 0.00534522 0.680174)
(-0.00833546 0.00456751 0.567981)
(-0.00416224 0.00373225 0.468412)
(-0.000635487 0.00192922 0.378947)
(-0.00496592 0.0018918 0.521604)
(-0.00619315 0.00404083 0.520538)
(-0.00641567 0.00257195 0.494502)
(-0.00539362 0.00123124 0.449074)
(-0.00388217 2.57086e-05 0.392062)
(-0.00236032 -0.000737594 0.331001)
(-0.0011997 -0.00114988 0.270212)
(-0.00795633 0.00575288 0.643418)
(-0.00963395 0.00759883 0.640909)
(-0.00939986 0.00504598 0.605595)
(-0.00787453 0.00319315 0.53741)
(-0.00558764 0.00112518 0.460457)
(-0.00323519 -0.000167071 0.38425)
(-0.0015171 -0.000956437 0.312379)
(-0.0145082 0.00635938 0.818497)
(-0.015114 0.00400984 0.824592)
(-0.0104451 0.00268884 0.760999)
(-0.00935967 0.00396006 0.640721)
(-0.00692228 0.00210852 0.527678)
(-0.00382802 0.000607098 0.43288)
(-0.00159877 -0.000435811 0.349129)
(-0.0261788 0.0060269 0.972348)
(-0.0202816 0.00423437 0.903548)
(-0.0088117 -0.000783357 0.895263)
(-0.0082584 0.00332309 0.738558)
(-0.00778515 0.00294112 0.582505)
(-0.00432372 0.0014993 0.469685)
(-0.00160328 0.000244998 0.376423)
(-0.0251446 0.00754481 0.961368)
(-0.0256295 0.0102032 0.973136)
(-0.0144257 0.0074323 0.886127)
(-0.0085597 0.00554234 0.783222)
(-0.00876403 0.00355097 0.608605)
(-0.00486074 0.0020725 0.487805)
(-0.00155866 0.000741113 0.390223)
(-0.0170985 0.0057543 0.934848)
(-0.0204173 0.00962405 0.954681)
(-0.0164789 0.0131885 0.921632)
(-0.0106869 0.00546948 0.767082)
(-0.00871605 0.00314071 0.602563)
(-0.00421162 0.00220521 0.483609)
(-0.000857381 0.000981163 0.388492)
(-0.00904634 0.000293062 0.836577)
(-0.0134324 0.000544444 0.864043)
(-0.0136162 0.00396759 0.820596)
(-0.0106568 0.00113947 0.686948)
(-0.00684252 0.00226264 0.559861)
(-0.00264488 0.00220839 0.4588)
(0.000510966 0.000919694 0.371681)
(-0.00365679 -0.00469951 0.515868)
(-0.00377196 -0.00164279 0.513563)
(-0.00385936 -0.00300833 0.487315)
(-0.0024268 -0.00320032 0.442379)
(-0.0010355 -0.00305145 0.386562)
(-3.57826e-06 -0.00283167 0.327171)
(0.000697934 -0.00264089 0.268259)
(-0.00434467 -0.00359503 0.634758)
(-0.00493899 0.00282445 0.634859)
(-0.00581025 -0.00163637 0.595737)
(-0.00348024 -0.00223795 0.52764)
(-0.00129671 -0.00249857 0.45217)
(0.000144837 -0.00252995 0.378205)
(0.00101243 -0.00251745 0.308762)
(-0.0074759 -0.000878388 0.817666)
(-0.00668766 0.00851586 0.820933)
(-0.00533081 0.00118927 0.754473)
(-0.00354001 -0.000275342 0.628146)
(-0.000978909 -0.00113982 0.51681)
(0.000682431 -0.00164776 0.42482)
(0.00162314 -0.00193718 0.344059)
(-0.00435394 0.00371232 0.950325)
(-0.00772252 0.0037188 0.915774)
(-0.00983914 0.00295658 0.884617)
(-0.00581745 0.00119858 0.727958)
(-0.00113956 0.000462683 0.57002)
(0.000951428 -0.000317028 0.460241)
(0.00214889 -0.00100693 0.37032)
(-0.00559219 0.00279522 1.01213)
(-0.00832851 0.000976913 0.97382)
(-0.00923826 -0.000323448 0.899078)
(-0.00888219 0.000521721 0.771132)
(-0.00253169 0.000963088 0.596671)
(0.000794362 0.000614436 0.477805)
(0.00249343 -0.000191638 0.383734)
(-0.00458804 -0.000105965 0.97156)
(-0.00845201 -0.00141904 0.99546)
(-0.00965421 -0.00346771 0.921148)
(-0.00508671 0.000129157 0.757629)
(-0.000380205 0.00157313 0.589136)
(0.00199026 0.00150447 0.473938)
(0.00330999 0.00056643 0.382364)
(-0.00392751 0.00196963 0.825248)
(-0.00542492 -0.000823785 0.876356)
(-0.00548246 0.001002 0.806392)
(-0.00211134 0.00297216 0.672798)
(0.000950475 0.00343042 0.54806)
(0.00282719 0.00278665 0.450437)
(0.00412419 0.00127764 0.366663)
(-0.00457597 -0.0083321 0.51306)
(-0.00318578 -0.00734153 0.51002)
(-0.00193696 -0.00732809 0.48345)
(-0.000258947 -0.0061627 0.43887)
(0.000843829 -0.00498965 0.384014)
(0.00148048 -0.00414925 0.325878)
(0.00183766 -0.00357087 0.268213)
(-0.00493585 -0.00893655 0.625523)
(-0.00313652 -0.00623905 0.62662)
(-0.00204902 -0.00756784 0.587213)
(0.000243124 -0.00635729 0.520574)
(0.00166128 -0.00498361 0.447255)
(0.00228588 -0.00406446 0.375273)
(0.00255935 -0.00351967 0.307523)
(-0.00438038 -0.0076556 0.795639)
(-0.00111042 -0.0019117 0.81301)
(-0.000794114 -0.00460808 0.738863)
(0.00191323 -0.00479454 0.614845)
(0.00349047 -0.00389291 0.509036)
(0.00368251 -0.00323988 0.420279)
(0.00362687 -0.00294109 0.341752)
(0.00156819 -0.0070147 0.947733)
(0.00256221 -0.00355393 0.972707)
(-0.00154976 -0.00188255 0.883441)
(0.00133878 -0.00196211 0.710471)
(0.00469259 -0.00166672 0.559756)
(0.00483562 -0.00157854 0.454452)
(0.00458557 -0.00180808 0.367235)
(0.00566307 -0.00363051 1.02293)
(0.00554924 -0.00464078 0.972493)
(-0.000667063 -0.00362063 0.944787)
(-0.0012936 -0.00125405 0.757779)
(0.00426145 9.59779e-05 0.584976)
(0.00513904 8.10762e-05 0.471459)
(0.00513055 -0.000586469 0.38032)
(-0.00200705 0.00306382 0.968925)
(0.00370157 -0.00283715 0.980891)
(0.00245756 -0.00165603 0.905199)
(0.003143 0.00139821 0.732912)
(0.00593547 0.00233778 0.576923)
(0.00591921 0.00183844 0.467814)
(0.00569178 0.000627307 0.379171)
(-0.00307323 0.0070361 0.800122)
(0.000556203 0.00547909 0.839499)
(0.00144184 0.00701897 0.77378)
(0.00374899 0.00704989 0.650574)
(0.0053223 0.00532105 0.538644)
(0.00561579 0.00366405 0.445579)
(0.00588108 0.00168857 0.364246)
(-0.00540493 -0.00593039 0.511733)
(-0.00416276 -0.00627744 0.507917)
(-0.00238502 -0.00621157 0.480996)
(-0.000714385 -0.00511235 0.436619)
(0.000318885 -0.00423996 0.382443)
(0.00100305 -0.00367906 0.325148)
(0.00140297 -0.00328887 0.26844)
(-0.00666974 -0.00579306 0.62009)
(-0.00497719 -0.00646802 0.61951)
(-0.00261308 -0.00701292 0.581658)
(-0.000291803 -0.00544224 0.516218)
(0.000866058 -0.00425529 0.444117)
(0.00156579 -0.00361485 0.373305)
(0.0019715 -0.00328611 0.306738)
(-0.00687666 -0.00530274 0.768528)
(-0.00371997 -0.00544079 0.797749)
(-0.00117489 -0.00673649 0.719096)
(0.0017961 -0.00478174 0.605657)
(0.00255469 -0.0034995 0.504037)
(0.00273965 -0.00293886 0.417106)
(0.0028732 -0.00281095 0.340059)
(-0.00581582 -0.00526138 0.905082)
(0.000174587 -0.00424253 0.961922)
(0.00138883 -0.00548329 0.875094)
(0.00366563 -0.00175268 0.692394)
(0.00407466 -0.00128972 0.552807)
(0.00384101 -0.00137278 0.450354)
(0.00372055 -0.00178628 0.364871)
(-0.00455784 -0.00240484 0.905902)
(0.00242377 -0.00293604 0.986934)
(-0.00272509 -0.000253461 0.933762)
(0.00021205 0.000844219 0.737183)
(0.00343275 0.000875816 0.576403)
(0.00392184 0.000317226 0.466915)
(0.00409037 -0.000630525 0.377635)
(-0.00700132 0.00230607 0.899318)
(0.00217914 -1.4951e-05 0.963756)
(0.00208191 0.00622841 0.887908)
(0.0029155 0.00371375 0.711094)
(0.00402382 0.00290071 0.569458)
(0.00414045 0.00183946 0.463487)
(0.00438173 0.000403772 0.376574)
(-0.00492775 0.00597448 0.773886)
(-0.0020661 0.00598061 0.809001)
(-0.00114811 0.00902213 0.753956)
(0.00128933 0.00683913 0.641162)
(0.00268796 0.00470194 0.533197)
(0.00364927 0.00305299 0.442053)
(0.00453094 0.00109678 0.36214)
(-0.00488367 -0.00168396 0.509004)
(-0.00468646 -0.00211224 0.504265)
(-0.00340077 -0.00242542 0.476913)
(-0.00209331 -0.00232356 0.432876)
(-0.00100455 -0.00246736 0.379537)
(-8.32661e-05 -0.00259066 0.323349)
(0.000523822 -0.00262031 0.267839)
(-0.00729314 0.000710716 0.617295)
(-0.00722507 -0.00136336 0.614504)
(-0.00502872 -0.00198263 0.575796)
(-0.00304612 -0.00180419 0.510734)
(-0.00151443 -0.00213993 0.439672)
(-0.000165366 -0.00245344 0.370161)
(0.000719384 -0.00266431 0.304981)
(-0.010372 0.00278635 0.763678)
(-0.00995123 -0.00157915 0.788633)
(-0.00532935 -0.00295098 0.709317)
(-0.00255174 -0.00148571 0.598218)
(-0.00118038 -0.00159093 0.498094)
(0.00022027 -0.00197457 0.412689)
(0.00119533 -0.00236371 0.337258)
(-0.0165775 0.0045574 0.892005)
(-0.0138037 0.000299863 0.954764)
(-0.00439182 -0.00236196 0.848761)
(-0.000715387 0.000228669 0.681699)
(-0.000433463 -0.000164873 0.545413)
(0.000757434 -0.000925856 0.444905)
(0.00172799 -0.00167676 0.361281)
(-0.0207781 0.00307999 0.912694)
(-0.0189456 0.00185361 0.975392)
(-0.011331 0.00290007 0.901006)
(-0.00349725 0.00223273 0.724276)
(-0.00117262 0.00113608 0.568591)
(0.000611076 0.00017271 0.461029)
(0.00196468 -0.000909317 0.373649)
(-0.0168212 0.000815074 0.863774)
(-0.0145748 0.00207109 0.955953)
(-0.00758022 0.00640697 0.872362)
(-0.00286655 0.00282129 0.700965)
(-0.00126223 0.00180105 0.562105)
(0.000737417 0.000946563 0.457768)
(0.00223802 -0.000316024 0.372622)
(-0.00857226 8.9303e-05 0.771324)
(-0.00916727 0.00302028 0.802553)
(-0.00727926 0.00460266 0.747397)
(-0.00410942 0.00256715 0.635015)
(-0.001568 0.00211616 0.527162)
(0.000870998 0.00137752 0.436988)
(0.00272389 -9.62331e-05 0.358631)
(-0.00317458 -0.00234718 0.505015)
(-0.00307987 -0.00172309 0.499418)
(-0.00247516 -0.00182918 0.471821)
(-0.00165505 -0.00189233 0.428232)
(-0.000768925 -0.00221207 0.37589)
(2.87646e-05 -0.00245142 0.321022)
(0.000556102 -0.00257542 0.266985)
(-0.00552464 -0.000251233 0.616136)
(-0.00566773 -0.000381554 0.609716)
(-0.00439317 -0.00072669 0.569983)
(-0.0030009 -0.00106625 0.504345)
(-0.00148056 -0.0018551 0.434166)
(-0.000144378 -0.00237718 0.366234)
(0.000691043 -0.00269059 0.302853)
(-0.0102987 0.00142319 0.780469)
(-0.0100313 -0.000902141 0.780315)
(-0.00563819 -0.00136611 0.708079)
(-0.00346495 -0.00069546 0.592161)
(-0.00158224 -0.00141723 0.491141)
(9.24823e-05 -0.00206396 0.407322)
(0.00110284 -0.00252559 0.333986)
(-0.0188488 0.00444918 0.917276)
(-0.0156313 0.00131528 0.906133)
(-0.00602863 -0.00111953 0.831311)
(-0.00246432 -0.000398949 0.67598)
(-0.001099 -0.000673282 0.537435)
(0.000536385 -0.0013842 0.438483)
(0.00162031 -0.00206677 0.357154)
(-0.0212746 0.00509143 0.953957)
(-0.0189783 0.00351268 0.945705)
(-0.00953443 0.00180708 0.868644)
(-0.00277894 0.000829941 0.716196)
(-0.00119831 0.000113435 0.560396)
(0.000681224 -0.000619973 0.4541)
(0.00199084 -0.00150207 0.369091)
(-0.0168689 0.00209437 0.914219)
(-0.0159662 0.00258122 0.931018)
(-0.00872607 0.0030211 0.860682)
(-0.00354064 0.00107138 0.698953)
(-0.00127799 0.000522897 0.554158)
(0.000914019 -3.37272e-05 0.450916)
(0.00237142 -0.00102844 0.368091)
(-0.00779758 -6.33088e-05 0.792088)
(-0.00896121 0.00134525 0.814816)
(-0.00696639 0.00136783 0.752152)
(-0.0038375 0.000273879 0.629839)
(-0.00109354 0.000665321 0.519393)
(0.00128083 0.000328073 0.430761)
(0.0029429 -0.000846561 0.354591)
(-0.00151863 -0.00570015 0.502266)
(-0.000942203 -0.00421124 0.496043)
(-0.000640116 -0.00401162 0.46834)
(-3.43858e-07 -0.00345668 0.42513)
(0.000545848 -0.00321241 0.373643)
(0.000966325 -0.00309189 0.319896)
(0.00123296 -0.00303514 0.267033)
(-0.0021842 -0.00553414 0.610777)
(-0.00163779 -0.00291215 0.605041)
(-0.00158743 -0.00349052 0.564172)
(-0.000531676 -0.00308012 0.499128)
(0.000486746 -0.00312395 0.430142)
(0.00119243 -0.0031699 0.363728)
(0.00157654 -0.00322029 0.301824)
(-0.00387424 -0.00467981 0.775523)
(-0.00277882 -0.000720307 0.773025)
(-0.00162994 -0.00222278 0.700096)
(-0.000226806 -0.00222186 0.584467)
(0.00108401 -0.00266093 0.485376)
(0.00185347 -0.0029131 0.403548)
(0.00221606 -0.00310267 0.331988)
(-0.00545194 -0.00217298 0.910969)
(-0.00415956 -0.00128152 0.878491)
(-0.00269088 -0.00110099 0.81567)
(-0.00081767 -0.00174109 0.666602)
(0.00166963 -0.00194209 0.530338)
(0.00256832 -0.00227776 0.433768)
(0.00291488 -0.00266598 0.354411)
(-0.00524904 0.0012547 0.95904)
(-0.00392052 -0.000800776 0.927317)
(-0.00188554 -0.00281287 0.829937)
(-0.00041626 -0.00187506 0.704378)
(0.00194431 -0.00128938 0.552739)
(0.0030341 -0.00149863 0.448893)
(0.00347972 -0.00207827 0.365959)
(-0.00491699 0.00329497 0.921456)
(-0.00319556 -0.000219131 0.92578)
(-0.0016813 -0.00414308 0.845934)
(0.000161309 -0.00124212 0.688325)
(0.00257979 -0.000398645 0.54634)
(0.00351447 -0.000632432 0.445724)
(0.00395506 -0.00145926 0.364943)
(-0.00192971 0.00309564 0.781772)
(-0.000825804 0.000991185 0.806806)
(-0.000610424 -0.000146571 0.741446)
(0.000918356 0.000584168 0.620656)
(0.00256543 0.000742107 0.512409)
(0.00361318 0.000178277 0.426083)
(0.00433663 -0.00100366 0.351823)
(-0.00130823 -0.00633403 0.501426)
(-0.0004421 -0.00552661 0.494988)
(9.10641e-05 -0.00498837 0.467188)
(0.000677527 -0.00411369 0.424227)
(0.00102553 -0.00359802 0.373257)
(0.00127603 -0.00334148 0.320177)
(0.00143549 -0.00322395 0.268047)
(-0.00110348 -0.00697531 0.606154)
(-0.000150492 -0.00516569 0.601821)
(-2.85673e-05 -0.00515318 0.560986)
(0.000799113 -0.00427 0.496556)
(0.0013949 -0.00382476 0.428551)
(0.00171191 -0.00358324 0.36307)
(0.00187434 -0.0034944 0.302064)
(-0.000187895 -0.00652886 0.761816)
(0.00143179 -0.00270337 0.768805)
(0.00077364 -0.00344445 0.692928)
(0.00203396 -0.00372404 0.579274)
(0.00260069 -0.00355012 0.482369)
(0.00269001 -0.00345017 0.401965)
(0.00266062 -0.00344548 0.331518)
(0.00337429 -0.00691221 0.899762)
(0.00380408 -0.00328752 0.901569)
(0.000356414 -0.00201228 0.825757)
(0.00240919 -0.00275747 0.659758)
(0.00379439 -0.0027132 0.526244)
(0.00370255 -0.00277222 0.431401)
(0.00349904 -0.00301248 0.35336)
(0.00811883 -0.00458626 0.939155)
(0.00648398 -0.00472848 0.906466)
(0.000872456 -0.00425304 0.881874)
(0.00162669 -0.00251563 0.70126)
(0.0040965 -0.00178125 0.547852)
(0.00428017 -0.00185339 0.446085)
(0.00410081 -0.00236523 0.364534)
(0.00136729 1.84656e-05 0.915624)
(0.00559052 -0.00526645 0.922491)
(0.00398394 -0.00414806 0.842197)
(0.00362937 -0.00112573 0.677143)
(0.00481173 -0.000434997 0.540852)
(0.0046559 -0.000796557 0.442761)
(0.0045101 -0.00165814 0.363414)
(0.00111207 0.00229843 0.765933)
(0.00310043 0.000460382 0.787535)
(0.00231475 0.00129574 0.7236)
(0.00318508 0.00166052 0.610208)
(0.00397627 0.00102445 0.507551)
(0.00433386 0.000146252 0.423463)
(0.00467472 -0.0011305 0.350466)
(-0.000955793 -0.000353981 0.0181171)
(-0.000717735 -0.00046295 -0.0140118)
(0.00211226 -0.000872465 0.180318)
(0.000797276 -0.00071031 0.130629)
(-5.8732e-05 -0.000794674 0.0889179)
(-0.000537196 -0.00109173 0.0536832)
(-0.000788583 -0.00153378 0.0224505)
(-0.000844649 -0.00221897 -0.0119937)
(0.00995791 0.000719357 0.337159)
(0.00649116 0.000746446 0.263252)
(0.0040119 0.000502842 0.200466)
(0.00229186 2.88898e-06 0.147685)
(0.00113231 -0.000675925 0.103589)
(0.000407749 -0.00150189 0.0665895)
(-3.85531e-05 -0.00247382 0.0340915)
(-0.000173546 -0.00368038 -0.00167166)
(0.0112524 0.0048268 0.351299)
(0.00773084 0.00361078 0.278578)
(0.00521304 0.00246311 0.216623)
(0.00345125 0.00119473 0.164374)
(0.00228688 -0.000129322 0.120622)
(0.00156825 -0.00148567 0.083847)
(0.00117294 -0.00289826 0.0514389)
(0.00109312 -0.00449418 0.0152763)
(0.010949 0.00861617 0.349067)
(0.00761989 0.00637063 0.283642)
(0.00542342 0.00441537 0.227295)
(0.003966 0.00251917 0.179201)
(0.00305251 0.000718947 0.138516)
(0.00253866 -0.00100461 0.103955)
(0.00232518 -0.00269549 0.0730338)
(0.00242607 -0.0044951 0.0375443)
(0.00909178 0.0108252 0.331823)
(0.00691207 0.00813771 0.28025)
(0.00527499 0.00572881 0.233385)
(0.00428088 0.00347503 0.192161)
(0.00368393 0.00137791 0.156549)
(0.00342343 -0.000577309 0.125692)
(0.00347045 -0.00245054 0.0973295)
(0.00387246 -0.00442537 0.0633559)
(-0.00135195 -0.00133026 0.232836)
(-0.00156624 -0.000631707 0.185631)
(-0.00163576 -0.000180496 0.143528)
(-0.00152689 0.000172112 0.106772)
(-0.00127687 0.000435979 0.0749989)
(-0.000894751 0.000632523 0.0473606)
(-0.000425013 0.00081837 0.0220754)
(0.000192388 0.00100517 -0.00660586)
(-0.000385673 -0.00119708 0.273652)
(-0.00101004 -0.000474663 0.213188)
(-0.00137242 -0.000221371 0.161431)
(-0.00155163 -0.000117003 0.117297)
(-0.00156865 -0.000136594 0.0797616)
(-0.00144184 -0.000259508 0.0475643)
(-0.00125567 -0.000439759 0.0185543)
(-0.000915398 -0.000715506 -0.0138725)
(0.00132675 -0.000280656 0.310776)
(0.000309265 8.09145e-06 0.24138)
(-0.000390808 -8.28752e-05 0.182279)
(-0.000851955 -0.000343697 0.132363)
(-0.00111529 -0.000741226 0.0903908)
(-0.00120964 -0.00126271 0.054854)
(-0.0012214 -0.00189049 0.0233101)
(-0.00103745 -0.00267025 -0.0114601)
(0.0031011 0.00175859 0.339299)
(0.00173571 0.00131004 0.265461)
(0.000822887 0.000670192 0.202622)
(0.000197683 -0.000117147 0.149707)
(-0.000177578 -0.00101319 0.105409)
(-0.000359093 -0.00199998 0.0681533)
(-0.000421922 -0.00308588 0.0353571)
(-0.000240258 -0.00434345 -0.00079509)
(0.003935 0.0044442 0.353856)
(0.0026103 0.00311595 0.281265)