/*--------------------------------*- C++ -*----------------------------------*\
| =========                 |                                                 |
| \\      /  F ield         | OpenFOAM: The Open Source CFD Toolbox           |
|  \\    /   O peration     | Version:  plus.master.MPPICInterFoam            |
|   \\  /    A nd           | Web:      www.OpenFOAM.com                      |
|    \\/     M anipulation  |                                                 |
\*---------------------------------------------------------------------------*/
FoamFile
{
    version     2.0;
    format      ascii;
    class       scalarField;
    location    "3.8/lagrangian/kinematicCloud";
    object      d;
}
// * * * * * * * * * * * * * * * * * * * * * * * * * * * * * * * * * * * * * //


50
(
0.000528108
0.000570485
0.000576599
0.000564689
0.000567637
0.000534011
0.000546691
0.000521956
0.000587002
0.000529458
0.000569906
0.000555071
0.000563535
0.000583406
0.000577701
0.000548021
0.000592143
0.000583001
0.000581954
0.00058238
0.000501657
0.000599242
0.000614065
0.000563659
0.000601539
0.000577274
0.000578192
0.000578151
0.000590026
0.000626975
0.000579417
0.000564423
0.000548598
0.000564668
0.000587323
0.000519171
0.000568845
0.000522597
0.000555069
0.000509928
0.000573886
0.000560412
0.000566369
0.000558228
0.00056015
0.000522682
0.000624673
0.000616604
0.000575446
0.000577826
)


// ************************************************************************* //
