/*--------------------------------*- C++ -*----------------------------------*\
| =========                 |                                                 |
| \\      /  F ield         | OpenFOAM: The Open Source CFD Toolbox           |
|  \\    /   O peration     | Version:  plus.master.MPPICInterFoam            |
|   \\  /    A nd           | Web:      www.OpenFOAM.com                      |
|    \\/     M anipulation  |                                                 |
\*---------------------------------------------------------------------------*/
FoamFile
{
    version     2.0;
    format      ascii;
    class       labelField;
    location    "3.8/lagrangian/kinematicCloud";
    object      origId;
}
// * * * * * * * * * * * * * * * * * * * * * * * * * * * * * * * * * * * * * //


50
(
879
33689
11833
43373
17484
20734
6733
8198
17290
20489
25952
448
24168
3528
13213
4087
14655
28366
10456
34466
7675
12389
127
13687
20575
19591
3648
17360
6445
2932
2753
1014
18238
18586
3431
42212
35431
37769
4011
44020
2253
38032
1467
8696
4597
43082
6438
9352
1194
25431
)


// ************************************************************************* //
