/*--------------------------------*- C++ -*----------------------------------*\
| =========                 |                                                 |
| \\      /  F ield         | OpenFOAM: The Open Source CFD Toolbox           |
|  \\    /   O peration     | Version:  plus.master.MPPICInterFoam            |
|   \\  /    A nd           | Web:      www.OpenFOAM.com                      |
|    \\/     M anipulation  |                                                 |
\*---------------------------------------------------------------------------*/
FoamFile
{
    version     2.0;
    format      ascii;
    class       surfaceScalarField;
    location    "5.8";
    object      alphaPhi;
}
// * * * * * * * * * * * * * * * * * * * * * * * * * * * * * * * * * * * * * //

dimensions      [0 3 -1 0 0 0 0];

internalField   nonuniform List<scalar> 
34004
(
1.3346e-08
7.96212e-08
-1.68318e-06
-1.00458e-07
2.3898e-08
7.23437e-08
-2.07886e-06
-9.13174e-08
3.20473e-08
6.81134e-08
-2.40022e-06
-8.61308e-08
3.80384e-08
6.519e-08
-2.71259e-06
-8.25812e-08
4.18961e-08
6.26666e-08
-3.02829e-06
-7.95581e-08
4.35996e-08
6.03195e-08
-3.35076e-06
-7.67789e-08
4.31231e-08
5.81049e-08
-3.68085e-06
-7.41701e-08
5.603e-08
-4.01761e-06
-7.17576e-08
4.04784e-08
1.77385e-08
5.03643e-08
-1.69952e-06
3.12157e-08
4.58787e-08
-2.09776e-06
4.12837e-08
4.31787e-08
-2.42191e-06
4.84327e-08
4.13097e-08
-2.73707e-06
5.28364e-08
3.96825e-08
-3.0556e-06
5.45927e-08
3.81618e-08
-3.38095e-06
5.37744e-08
3.67337e-08
-3.71399e-06
3.54278e-08
-4.05382e-06
5.0413e-08
1.93199e-08
1.6902e-08
-1.71058e-06
3.37815e-08
1.54022e-08
-2.11066e-06
4.42547e-08
1.45859e-08
-2.43653e-06
5.13742e-08
1.40528e-08
-2.75333e-06
5.54392e-08
1.35598e-08
-3.07343e-06
5.66641e-08
1.30634e-08
-3.40028e-06
5.52258e-08
1.25756e-08
-3.73476e-06
1.21203e-08
-4.07598e-06
5.12645e-08
2.00744e-08
-1.88521e-08
-1.7163e-06
3.49293e-08
-1.72473e-08
-2.11735e-06
4.55882e-08
-1.60795e-08
-2.44408e-06
5.27841e-08
-1.52266e-08
-2.76168e-06
5.68719e-08
-1.45401e-08
-3.08256e-06
5.81001e-08
-1.39545e-08
-3.41017e-06
5.66615e-08
-1.34256e-08
-3.7454e-06
-1.29176e-08
-4.08739e-06
5.26802e-08
1.87667e-08
-5.39538e-08
-1.71608e-06
3.24529e-08
-4.94967e-08
-2.11718e-06
4.2136e-08
-4.6583e-08
-2.44374e-06
4.85857e-08
-4.46065e-08
-2.76111e-06
5.21912e-08
-4.30275e-08
-3.08167e-06
5.32219e-08
-4.16637e-08
-3.40891e-06
5.18697e-08
-4.04232e-08
-3.74371e-06
-3.92638e-08
-4.08525e-06
4.82554e-08
1.6511e-08
-8.67974e-08
-1.71069e-06
2.81802e-08
-7.96574e-08
-2.11079e-06
3.64254e-08
-7.55017e-08
-2.43622e-06
4.2036e-08
-7.29186e-08
-2.75241e-06
4.53847e-08
-7.09397e-08
-3.07172e-06
4.67007e-08
-6.92411e-08
-3.39766e-06
4.61036e-08
-6.76547e-08
-3.73115e-06
-6.60727e-08
-4.07137e-06
4.35775e-08
9.20956e-09
-1.69885e-06
-1.11418e-07
1.48537e-08
-2.09716e-06
-1.0273e-07
1.81411e-08
-2.41999e-06
-9.8181e-08
1.99222e-08
-2.73328e-06
-9.59019e-08
2.06165e-08
-3.04934e-06
-9.44709e-08
2.05766e-08
-3.37165e-06
-9.35063e-08
1.99823e-08
-3.70117e-06
-9.27071e-08
-4.03712e-06
-9.19333e-08
1.89018e-08
1.11441e-08
6.30615e-08
-1.67733e-06
-8.00786e-08
1.99711e-08
5.72272e-08
-2.07227e-06
-7.27203e-08
2.68138e-08
5.39874e-08
-2.39248e-06
-6.86307e-08
3.18661e-08
5.18308e-08
-2.70363e-06
-6.59056e-08
3.51471e-08
5.00217e-08
-3.01801e-06
-6.36462e-08
3.6635e-08
4.8364e-08
-3.33907e-06
-6.16087e-08
3.63e-08
4.68071e-08
-3.66767e-06
-5.97183e-08
4.53433e-08
-4.00289e-06
-5.79774e-08
3.41349e-08
1.50666e-08
3.9024e-08
-1.69059e-06
2.66446e-08
3.54923e-08
-2.08767e-06
3.54338e-08
3.3514e-08
-2.41029e-06
4.1806e-08
3.22129e-08
-2.72389e-06
4.58687e-08
3.11138e-08
-3.04082e-06
4.76599e-08
3.00972e-08
-3.36455e-06
4.71945e-08
2.91415e-08
-3.69594e-06
2.82629e-08
-4.03408e-06
4.44531e-08
1.66833e-08
1.13014e-08
-1.69958e-06
2.93688e-08
1.02741e-08
-2.09819e-06
3.87652e-08
9.83852e-09
-2.42231e-06
4.53523e-08
9.61292e-09
-2.73738e-06
4.93226e-08
9.41101e-09
-3.05576e-06
5.07932e-08
9.19427e-09
-3.38092e-06
4.98515e-08
8.96768e-09
-3.71372e-06
8.74741e-09
-4.05325e-06
4.65609e-08
1.75298e-08
-1.84872e-08
-1.70408e-06
3.07386e-08
-1.68683e-08
-2.10348e-06
4.04677e-08
-1.56818e-08
-2.42834e-06
4.72719e-08
-1.47969e-08
-2.74414e-06
5.1381e-08
-1.40711e-08
-3.06325e-06
5.29313e-08
-1.34466e-08
-3.38914e-06
5.20169e-08
-1.28862e-08
-3.7227e-06
-1.23592e-08
-4.06303e-06
4.86828e-08
1.64454e-08
-4.76099e-08
-1.70344e-06
2.87052e-08
-4.35512e-08
-2.10282e-06
3.76375e-08
-4.09195e-08
-2.42749e-06
4.38189e-08
-3.91116e-08
-2.74303e-06
4.75062e-08
-3.76628e-08
-3.06183e-06
4.88553e-08
-3.64153e-08
-3.38735e-06
4.79655e-08
-3.52895e-08
-3.72049e-06
-3.42476e-08
-4.06036e-06
4.48885e-08
1.45002e-08
-7.45876e-08
-1.69825e-06
2.50533e-08
-6.82432e-08
-2.09672e-06
3.27709e-08
-6.45664e-08
-2.42035e-06
3.82363e-08
-6.22369e-08
-2.73481e-06
4.16931e-08
-6.04463e-08
-3.05246e-06
4.3263e-08
-5.89161e-08
-3.3768e-06
4.29873e-08
-5.75051e-08
-3.70873e-06
-5.61194e-08
-4.04739e-06
4.08063e-08
8.32449e-09
-1.68754e-06
-9.42609e-08
1.38303e-08
-2.08437e-06
-8.66018e-08
1.73885e-08
-2.40566e-06
-8.25101e-08
1.95796e-08
-2.71751e-06
-8.02572e-08
2.07074e-08
-3.03222e-06
-7.87602e-08
2.09954e-08
-3.35326e-06
-7.7661e-08
2.05537e-08
-3.68158e-06
-7.67305e-08
-4.01633e-06
-7.58577e-08
1.94241e-08
9.37824e-09
4.97094e-08
-1.67261e-06
-6.38288e-08
1.68002e-08
4.49728e-08
-2.06694e-06
-5.78023e-08
2.2557e-08
4.24442e-08
-2.38624e-06
-5.45103e-08
2.6809e-08
4.08182e-08
-2.6964e-06
-5.23606e-08
2.95754e-08
3.94955e-08
-3.00972e-06
-5.06209e-08
3.08397e-08
3.83076e-08
-3.32962e-06
-4.90835e-08
3.0576e-08
3.72031e-08
-3.657e-06
-4.76775e-08
3.61667e-08
-3.99093e-06
-4.63939e-08
2.87724e-08
1.27296e-08
2.98873e-08
-1.68355e-06
2.2582e-08
2.70776e-08
-2.0797e-06
3.01346e-08
2.56088e-08
-2.40107e-06
3.56789e-08
2.46957e-08
-2.71338e-06
3.92856e-08
2.39542e-08
-3.02895e-06
4.09634e-08
2.3281e-08
-3.35126e-06
4.06989e-08
2.26515e-08
-3.68119e-06
2.2073e-08
-4.01781e-06
3.84505e-08
1.42234e-08
6.98515e-09
-1.69094e-06
2.51486e-08
6.29188e-09
-2.0884e-06
3.336e-08
6.10187e-09
-2.41108e-06
3.92292e-08
6.0683e-09
-2.72468e-06
4.28841e-08
6.04912e-09
-3.04157e-06
4.43853e-08
6.01138e-09
-3.36521e-06
4.3769e-08
5.95588e-09
-3.69647e-06
5.89348e-09
-4.03443e-06
4.1054e-08
1.50265e-08
-1.7647e-08
-1.69451e-06
2.64857e-08
-1.60868e-08
-2.09263e-06
3.50721e-08
-1.49413e-08
-2.41595e-06
4.12132e-08
-1.40764e-08
-2.7302e-06
4.506e-08
-1.33586e-08
-3.04775e-06
4.66819e-08
-1.27372e-08
-3.37208e-06
4.61142e-08
-1.21809e-08
-3.70407e-06
-1.16631e-08
-4.04279e-06
4.33555e-08
1.41102e-08
-4.15909e-08
-1.69365e-06
2.47845e-08
-3.79479e-08
-2.0917e-06
3.27122e-08
-3.56001e-08
-2.41482e-06
3.83315e-08
-3.39716e-08
-2.72882e-06
4.18137e-08
-3.26629e-08
-3.04607e-06
4.32455e-08
-3.15386e-08
-3.37005e-06
4.26697e-08
-3.05305e-08
-3.70164e-06
-2.96047e-08
-4.03993e-06
4.00977e-08
1.24305e-08
-6.35307e-08
-1.68878e-06
2.16572e-08
-5.79489e-08
-2.08601e-06
2.85539e-08
-5.47187e-08
-2.40819e-06
3.35578e-08
-5.26413e-08
-2.7212e-06
3.68287e-08
-5.10393e-08
-3.03742e-06
3.84245e-08
-4.96767e-08
-3.36032e-06
3.83427e-08
-4.84353e-08
-3.69081e-06
-4.72341e-08
-4.028e-06
3.65038e-08
7.29595e-09
-1.67925e-06
-7.91612e-08
1.23579e-08
-2.07499e-06
-7.24552e-08
1.58164e-08
-2.3951e-06
-6.88011e-08
1.80776e-08
-2.70581e-06
-6.66667e-08
1.93557e-08
-3.01942e-06
-6.51829e-08
1.9794e-08
-3.3394e-06
-6.40444e-08
1.94611e-08
-3.66667e-06
-6.30742e-08
-4.00038e-06
-6.21813e-08
1.83811e-08
7.92979e-09
3.87751e-08
-1.66877e-06
-5.05718e-08
1.41949e-08
3.48806e-08
-2.06259e-06
-4.55588e-08
1.90489e-08
3.28722e-08
-2.38116e-06
-4.2865e-08
2.26286e-08
3.16205e-08
-2.69053e-06
-4.11329e-08
2.49552e-08
3.06358e-08
-3.00298e-06
-3.97627e-08
2.60189e-08
2.97746e-08
-3.32195e-06
-3.85784e-08
2.58001e-08
2.89879e-08
-3.64832e-06
-3.7515e-08
2.82568e-08
-3.98118e-06
-3.65577e-08
2.42875e-08
1.07008e-08
2.24462e-08
-1.67797e-06
1.90214e-08
2.01817e-08
-2.0734e-06
2.5436e-08
1.90743e-08
-2.39375e-06
3.01796e-08
1.84266e-08
-2.70499e-06
3.33029e-08
1.79275e-08
-3.01943e-06
3.48021e-08
1.74889e-08
-3.34054e-06
3.46533e-08
1.70858e-08
-3.6692e-06
1.67198e-08
-4.0045e-06
3.28076e-08
1.19945e-08
3.63566e-09
-1.68417e-06
2.12691e-08
3.1708e-09
-2.08073e-06
2.83053e-08
3.1329e-09
-2.40223e-06
3.33986e-08
3.21272e-09
-2.71462e-06
3.66376e-08
3.30257e-09
-3.03025e-06
3.80524e-08
3.37495e-09
-3.35257e-06
3.76515e-08
3.42824e-09
-3.68248e-06
3.46968e-09
-4.01903e-06
3.5429e-08
1.26859e-08
-1.65431e-08
-1.68706e-06
2.24385e-08
-1.50874e-08
-2.08419e-06
2.98294e-08
-1.40185e-08
-2.40625e-06
3.51939e-08
-1.32049e-08
-2.71921e-06
3.86347e-08
-1.2524e-08
-3.03543e-06
4.01838e-08
-1.19316e-08
-3.35839e-06
3.98443e-08
-1.1401e-08
-3.68896e-06
-1.09095e-08
-4.02623e-06
3.75905e-08
1.18993e-08
-3.60219e-08
-1.68611e-06
2.09912e-08
-3.27872e-08
-2.08316e-06
2.78296e-08
-3.07132e-08
-2.40503e-06
3.2754e-08
-2.92641e-08
-2.71775e-06
3.58816e-08
-2.80972e-08
-3.03369e-06
3.72584e-08
-2.70967e-08
-3.35632e-06
3.68961e-08
-2.62044e-08
-3.68653e-06
-2.53902e-08
-4.0234e-06
3.4783e-08
1.04487e-08
-5.36605e-08
-1.68164e-06
1.83109e-08
-4.8784e-08
-2.07794e-06
2.42713e-08
-4.59621e-08
-2.39896e-06
2.86638e-08
-4.41258e-08
-2.71079e-06
3.15949e-08
-4.27063e-08
-3.0258e-06
3.30877e-08
-4.15053e-08
-3.34747e-06
3.31181e-08
-4.04236e-08
-3.67668e-06
-3.9392e-08
-4.01255e-06
3.16027e-08
6.24173e-09
-1.67321e-06
-6.59779e-08
1.07117e-08
-2.06818e-06
-6.01303e-08
1.38674e-08
-2.38739e-06
-5.68919e-08
1.60014e-08
-2.6972e-06
-5.49226e-08
1.7264e-08
-3.00994e-06
-5.35093e-08
1.77493e-08
-3.32905e-06
-5.23991e-08
1.75e-08
-3.65546e-06
-5.14516e-08
-3.98828e-06
-5.05932e-08
1.65302e-08
6.7146e-09
2.96487e-08
-1.66567e-06
-3.94903e-08
1.20111e-08
2.64071e-08
-2.05909e-06
-3.52671e-08
1.61069e-08
2.47881e-08
-2.37706e-06
-3.30351e-08
1.91216e-08
2.38075e-08
-2.68579e-06
-3.16194e-08
2.10783e-08
2.30647e-08
-2.99753e-06
-3.05254e-08
2.19733e-08
2.24381e-08
-3.31573e-06
-2.96046e-08
2.17933e-08
2.18822e-08
-3.64128e-06
-2.8798e-08
2.13768e-08
-3.97327e-06
-2.80875e-08
2.05284e-08
8.94272e-09
1.62816e-08
-1.67359e-06
1.59164e-08
1.44298e-08
-2.06845e-06
2.13082e-08
1.35819e-08
-2.38799e-06
2.53121e-08
1.31174e-08
-2.69835e-06
2.79683e-08
1.27845e-08
-3.01186e-06
2.92699e-08
1.25088e-08
-3.33197e-06
2.91911e-08
1.22658e-08
-3.65956e-06
1.20535e-08
-3.99373e-06
2.76837e-08
1.00061e-08
9.84183e-10
-1.67892e-06
1.77756e-08
6.70058e-10
-2.0748e-06
2.37039e-08
7.21634e-10
-2.39535e-06
2.80308e-08
8.63331e-10
-2.70675e-06
3.08223e-08
1.01408e-09
-3.02132e-06
3.20931e-08
1.15143e-09
-3.34254e-06
3.18396e-08
1.27242e-09
-3.67128e-06
1.38177e-09
-4.00662e-06
3.0043e-08
1.05582e-08
-1.53343e-08
-1.68134e-06
1.87168e-08
-1.40079e-08
-2.07773e-06
2.49444e-08
-1.30337e-08
-2.39877e-06
2.9509e-08
-1.22879e-08
-2.71067e-06
3.24844e-08
-1.16596e-08
-3.02578e-06
3.38841e-08
-1.11101e-08
-3.34758e-06
3.36952e-08
-1.06169e-08
-3.67694e-06
-1.01605e-08
-4.01293e-06
3.18812e-08
9.87398e-09
-3.09565e-08
-1.6804e-06
1.74672e-08
-2.81078e-08
-2.07671e-06
2.32246e-08
-2.62901e-08
-2.39758e-06
2.74145e-08
-2.50131e-08
-2.70926e-06
3.0121e-08
-2.39836e-08
-3.02412e-06
3.13686e-08
-2.31029e-08
-3.34563e-06
3.11532e-08
-2.2321e-08
-3.67467e-06
-2.16114e-08
-4.01031e-06
2.94519e-08
8.62383e-09
-4.49193e-08
-1.67634e-06
1.51733e-08
-4.06793e-08
-2.07198e-06
2.01829e-08
-3.82257e-08
-2.39209e-06
2.39121e-08
-3.6614e-08
-2.70297e-06
2.64359e-08
-3.5367e-08
-3.017e-06
2.77601e-08
-3.43186e-08
-3.33763e-06
2.78534e-08
-3.3385e-08
-3.66577e-06
-3.25077e-08
-4.0005e-06
2.66369e-08
5.22132e-09
-1.66891e-06
-5.44862e-08
9.0395e-09
-2.06334e-06
-4.93985e-08
1.17886e-08
-2.38187e-06
-4.65493e-08
1.36862e-08
-2.691e-06
-4.47669e-08
1.48399e-08
-3.00305e-06
-4.34611e-08
1.53134e-08
-3.32148e-06
-4.24232e-08
1.51343e-08
-3.64718e-06
-4.15397e-08
-3.97927e-06
-4.07511e-08
1.43105e-08
5.67514e-09
2.18607e-08
-1.66323e-06
-2.9993e-08
1.01446e-08
1.91312e-08
-2.05634e-06
-2.63971e-08
1.35939e-08
1.78105e-08
-2.37383e-06
-2.45321e-08
1.61287e-08
1.7033e-08
-2.68203e-06
-2.33659e-08
1.77738e-08
1.64702e-08
-2.9932e-06
-2.24896e-08
1.85307e-08
1.60196e-08
-3.31078e-06
-2.17771e-08
1.83914e-08
1.5639e-08
-3.63565e-06
-2.1175e-08
1.53079e-08
-3.96692e-06
-2.06631e-08
1.7347e-08
7.41579e-09
1.10562e-08
-1.67023e-06
1.32064e-08
9.51915e-09
-2.06468e-06
1.76879e-08
8.86049e-09
-2.38357e-06
2.10229e-08
8.52499e-09
-2.69323e-06
2.32469e-08
8.30897e-09
-3.00597e-06
2.43547e-08
8.14993e-09
-3.32525e-06
2.43236e-08
8.02409e-09
-3.65196e-06
7.92716e-09
-3.98519e-06
2.31098e-08
8.24532e-09
-1.19103e-09
-1.67495e-06
1.46593e-08
-1.40796e-09
-2.07033e-06
1.95674e-08
-1.3074e-09
-2.39014e-06
2.31693e-08
-1.13867e-09
-2.70073e-06
2.55179e-08
-9.59664e-10
-3.01445e-06
2.66193e-08
-7.84366e-10
-3.33476e-06
2.64725e-08
-6.3056e-10
-3.66253e-06
-4.80013e-10
-3.99684e-06
2.505e-08
8.65106e-09
-1.41316e-08
-1.67708e-06
1.53535e-08
-1.29443e-08
-2.07294e-06
2.04899e-08
-1.20714e-08
-2.39319e-06
2.42779e-08
-1.14e-08
-2.70424e-06
2.67757e-08
-1.08309e-08
-3.01845e-06
2.79931e-08
-1.03303e-08
-3.3393e-06
2.79057e-08
-9.87933e-09
-3.66765e-06
-9.46125e-09
-4.00258e-06
2.64783e-08
8.04938e-09
-2.63983e-08
-1.67622e-06
1.42598e-08
-2.3905e-08
-2.07201e-06
1.89894e-08
-2.23223e-08
-2.3921e-06
2.24548e-08
-2.12063e-08
-2.70297e-06
2.47211e-08
-2.03063e-08
-3.01696e-06
2.58037e-08
-1.95384e-08
-3.33755e-06
2.56928e-08
-1.88598e-08
-3.66563e-06
-1.82471e-08
-4.00025e-06
2.43619e-08
6.97774e-09
-3.71968e-08
-1.67255e-06
1.23056e-08
-3.35214e-08
-2.06774e-06
1.64004e-08
-3.1397e-08
-2.38715e-06
1.9468e-08
-2.99915e-08
-2.6973e-06
2.15657e-08
-2.89051e-08
-3.01054e-06
2.26941e-08
-2.79988e-08
-3.33035e-06
2.28231e-08
-2.72019e-08
-3.6576e-06
-2.64643e-08
-3.9914e-06
2.1883e-08
4.25927e-09
-1.66596e-06
-4.44316e-08
7.41249e-09
-2.06005e-06
-4.00102e-08
9.70767e-09
-2.37808e-06
-3.75199e-08
1.13117e-08
-2.68671e-06
-3.59318e-08
1.23049e-08
-2.99824e-06
-3.47548e-08
1.2734e-08
-3.31614e-06
-3.38163e-08
1.26181e-08
-3.6413e-06
-3.30233e-08
-3.97281e-06
-3.23262e-08
1.19617e-08
4.77239e-09
1.50461e-08
-1.66142e-06
-2.16407e-08
8.52231e-09
1.27225e-08
-2.05431e-06
-1.85505e-08
1.14094e-08
1.16364e-08
-2.37141e-06
-1.6985e-08
1.3528e-08
1.10165e-08
-2.67918e-06
-1.60232e-08
1.49052e-08
1.05942e-08
-2.98988e-06
-1.53268e-08
1.55482e-08
1.02824e-08
-3.30695e-06
-1.47885e-08
1.54541e-08
1.00422e-08
-3.63129e-06
-1.43591e-08
9.85312e-09
-3.96197e-06
-1.40168e-08
1.46146e-08
6.08341e-09
6.50596e-09
-1.66781e-06
1.08306e-08
5.2103e-09
-2.06196e-06
1.4501e-08
4.69229e-09
-2.38033e-06
1.72332e-08
4.45051e-09
-2.68943e-06
1.90623e-08
4.32033e-09
-3.00156e-06
1.99886e-08
4.24889e-09
-3.32019e-06
1.99955e-08
4.21403e-09
-3.64619e-06
4.20877e-09
-3.97864e-06
1.90458e-08
6.6882e-09
-3.03365e-09
-1.67212e-06
1.18857e-08
-3.18991e-09
-2.06717e-06
1.58659e-08
-3.06882e-09
-2.38639e-06
1.8793e-08
-2.88579e-09
-2.69636e-06
2.07142e-08
-2.68668e-09
-3.0094e-06
2.16446e-08
-2.49368e-09
-3.32898e-06
2.15752e-08
-2.30264e-09
-3.65599e-06
-2.11693e-09
-3.98948e-06
2.04832e-08
6.95088e-09
-1.30027e-08
-1.67409e-06
1.23331e-08
-1.19557e-08
-2.06959e-06
1.64572e-08
-1.11841e-08
-2.38923e-06
1.95084e-08
-1.05876e-08
-2.69963e-06
2.15404e-08
-1.00784e-08
-3.01313e-06
2.25572e-08
-9.62738e-09
-3.33322e-06
2.25475e-08
-9.21847e-09
-3.66077e-06
-8.83794e-09
-3.99483e-06
2.14743e-08
6.41675e-09
-2.23178e-08
-1.67334e-06
1.13642e-08
-2.01467e-08
-2.06881e-06
1.51332e-08
-1.87766e-08
-2.38832e-06
1.79033e-08
-1.78085e-08
-2.69855e-06
1.97316e-08
-1.70285e-08
-3.01188e-06
2.06332e-08
-1.63653e-08
-3.33176e-06
2.06008e-08
-1.57821e-08
-3.65908e-06
-1.52582e-08
-3.99288e-06
1.96094e-08
5.50616e-09
-3.03565e-08
-1.67004e-06
9.71291e-09
-2.71768e-08
-2.06496e-06
1.29475e-08
-2.53448e-08
-2.38386e-06
1.53774e-08
-2.41271e-08
-2.69345e-06
1.70527e-08
-2.31893e-08
-3.0061e-06
1.79774e-08
-2.24149e-08
-3.32526e-06
1.81289e-08
-2.17437e-08
-3.65184e-06
-2.11332e-08
-3.98489e-06
1.74495e-08
3.36195e-09
-1.66415e-06
-3.556e-08
5.85911e-09
-2.05805e-06
-3.17203e-08
7.68067e-09
-2.37573e-06
-2.95577e-08
8.95966e-09
-2.68399e-06
-2.81621e-08
9.76175e-09
-2.99515e-06
-2.71243e-08
1.0126e-08
-3.31266e-06
-2.63007e-08
1.00695e-08
-3.63741e-06
-2.5614e-08
-3.9685e-06
-2.50218e-08
9.59533e-09
3.98054e-09
8.91373e-09
-1.66024e-06
-1.4095e-08
7.09207e-09
6.91539e-09
-2.05295e-06
-1.14178e-08
9.47559e-09
6.01846e-09
-2.36974e-06
-1.01025e-08
1.12182e-08
5.52597e-09
-2.67717e-06
-9.31387e-09
1.23528e-08
5.21872e-09
-2.9875e-06
-8.77261e-09
1.28955e-08
5.02283e-09
-3.30417e-06
-8.38705e-09
1.28506e-08
4.90153e-09
-3.62807e-06
-8.11102e-09
4.8345e-09
-3.95828e-06
-7.92153e-09
1.22113e-08
4.91543e-09
2.40852e-09
-1.66624e-06
8.73313e-09
1.3004e-09
-2.06019e-06
1.16696e-08
8.91288e-10
-2.37817e-06
1.38481e-08
7.21034e-10
-2.68684e-06
1.53088e-08
6.57876e-10
-2.9985e-06
1.60629e-08
6.57346e-10
-3.31661e-06
1.61037e-08
6.97797e-10
-3.64206e-06
7.70289e-10
-3.97391e-06
1.54022e-08
5.30849e-09
-4.70783e-09
-1.67033e-06
9.40861e-09
-4.83014e-09
-2.06517e-06
1.25312e-08
-4.69774e-09
-2.38396e-06
1.48214e-08
-4.51329e-09
-2.69344e-06
1.63321e-08
-4.31137e-09
-3.00597e-06
1.70837e-08
-4.10223e-09
-3.32501e-06
1.70783e-08
-3.89222e-09
-3.65143e-06
-3.68099e-09
-3.98428e-06
1.62969e-08
5.43434e-09
-1.20002e-08
-1.67226e-06
9.61361e-09
-1.10888e-08
-2.06755e-06
1.27985e-08
-1.04134e-08
-2.38673e-06
1.51496e-08
-9.88856e-09
-2.69663e-06
1.67217e-08
-9.43706e-09
-3.00961e-06
1.7534e-08
-9.03342e-09
-3.32914e-06
1.7583e-08
-8.66441e-09
-3.65608e-06
-8.31865e-09
-3.98949e-06
1.68399e-08
4.9551e-09
-1.8669e-08
-1.67165e-06
8.7451e-09
-1.67871e-08
-2.06693e-06
1.1612e-08
-1.5608e-08
-2.38602e-06
1.37119e-08
-1.47741e-08
-2.6958e-06
1.51042e-08
-1.41039e-08
-3.00863e-06
1.58136e-08
-1.35367e-08
-3.328e-06
1.58427e-08
-1.30409e-08
-3.65476e-06
-1.25983e-08
-3.98797e-06
1.51724e-08
4.19202e-09
-2.42538e-08
-1.66867e-06
7.36802e-09
-2.15069e-08
-2.06344e-06
9.79102e-09
-1.99344e-08
-2.38198e-06
1.16044e-08
-1.8887e-08
-2.69118e-06
1.28617e-08
-1.80861e-08
-3.0034e-06
1.35789e-08
-1.74339e-08
-3.32212e-06
1.37471e-08
-1.6879e-08
-3.6482e-06
-1.63849e-08
-3.98072e-06
1.33227e-08
2.5274e-09
-1.66332e-06
-2.76331e-08
4.38199e-09
-2.05714e-06
-2.43004e-08
5.71598e-09
-2.37459e-06
-2.24352e-08
6.64291e-09
-2.68261e-06
-2.12251e-08
7.22561e-09
-2.99352e-06
-2.03295e-08
7.50559e-09
-3.31078e-06
-1.96287e-08
7.50468e-09
-3.63527e-06
-1.9057e-08
-3.96607e-06
-1.85775e-08
7.2274e-09
3.28146e-09
3.22667e-09
-1.65967e-06
-7.08338e-09
5.81027e-09
1.49078e-09
-2.05225e-06
-4.74812e-09
7.718e-09
7.48832e-10
-2.36877e-06
-3.64731e-09
9.09295e-09
3.60197e-10
-2.67592e-06
-3.01031e-09
9.98314e-09
1.46726e-10
-2.98595e-06
-2.60838e-09
1.0422e-08
4.60614e-11
-3.30232e-06
-2.36296e-09
1.04272e-08
2.66035e-11
-3.6259e-06
-2.23013e-09
7.10459e-11
-3.95577e-06
-2.18516e-09
9.99501e-09
3.88179e-09
-1.40184e-09
-1.66551e-06
6.85032e-09
-2.36964e-09
-2.05932e-06
9.09716e-09
-2.69686e-09
-2.37699e-06
1.07394e-08
-2.81048e-09
-2.68533e-06
1.1834e-08
-2.82157e-09
-2.99665e-06
1.24122e-08
-2.76607e-09
-3.3144e-06
1.24835e-08
-2.66076e-09
-3.63947e-06
-2.51715e-09
-3.97091e-06
1.20316e-08
4.07796e-09
-6.29766e-09
-1.66953e-06
7.16393e-09
-6.40838e-09
-2.06424e-06
9.46755e-09
-6.27782e-09
-2.3827e-06
1.1132e-08
-6.10089e-09
-2.69184e-06
1.22229e-08
-5.89945e-09
-3.00401e-06
1.27799e-08
-5.68277e-09
-3.32268e-06
1.28243e-08
-5.45671e-09
-3.6487e-06
-5.22364e-09
-3.98113e-06
1.23476e-08
4.07463e-09
-1.11499e-08
-1.67149e-06
7.13742e-09
-1.03669e-08
-2.06667e-06
9.42157e-09
-9.78159e-09
-2.38553e-06
1.10781e-08
-9.32396e-09
-2.69509e-06
1.21797e-08
-8.9263e-09
-3.00771e-06
1.2768e-08
-8.56655e-09
-3.32687e-06
1.28608e-08
-8.23393e-09
-3.65342e-06
-7.91916e-09
-3.98641e-06
1.24421e-08
3.63677e-09
-1.5396e-08
-1.67106e-06
6.34318e-09
-1.37725e-08
-2.06625e-06
8.33546e-09
-1.27642e-08
-2.38505e-06
9.76226e-09
-1.20514e-08
-2.69452e-06
1.06996e-08
-1.14811e-08
-3.00704e-06
1.11945e-08
-1.10016e-08
-3.32608e-06
1.12699e-08
-1.05856e-08
-3.65251e-06
-1.02171e-08
-3.98535e-06
1.09189e-08
3.0098e-09
-1.87458e-08
-1.66835e-06
5.21677e-09
-1.63759e-08
-2.06307e-06
6.84809e-09
-1.50337e-08
-2.38136e-06
8.04019e-09
-1.41406e-08
-2.69031e-06
8.86332e-09
-1.34658e-08
-3.00226e-06
9.35743e-09
-1.29271e-08
-3.32071e-06
9.53663e-09
-1.24801e-08
-3.64651e-06
-1.20936e-08
-3.97871e-06
9.3758e-09
1.74702e-09
-1.66339e-06
-2.04331e-08
2.95948e-09
-2.05721e-06
-1.75433e-08
3.77573e-09
-2.37452e-06
-1.59469e-08
4.30629e-09
-2.68239e-06
-1.49124e-08
4.62528e-09
-2.99317e-06
-1.41576e-08
4.79e-09
-3.31031e-06
-1.35823e-08
4.837e-09
-3.63469e-06
-1.31299e-08
-3.96536e-06
-1.27673e-08
4.77754e-09
2.66376e-09
-2.22466e-09
-1.65973e-06
-3.91273e-10
4.63226e-09
-3.7436e-09
-2.05214e-06
1.65024e-09
6.04814e-09
-4.34853e-09
-2.36842e-06
2.56771e-09
7.01715e-09
-4.63977e-09
-2.67534e-06
3.07458e-09
7.61976e-09
-4.76045e-09
-2.98516e-06
3.3489e-09
7.91659e-09
-4.76039e-09
-3.30134e-06
3.46389e-09
7.94897e-09
-4.67506e-09
-3.62474e-06
3.46486e-09
-4.52531e-09
-3.95442e-06
3.37264e-09
7.72937e-09
2.95164e-09
-5.10692e-09
-1.66559e-06
5.0988e-09
-5.9557e-09
-2.05927e-06
6.64105e-09
-6.21294e-09
-2.37669e-06
7.71209e-09
-6.2828e-09
-2.68478e-06
8.39916e-09
-6.24829e-09
-2.99586e-06
8.77042e-09
-6.13931e-09
-3.31341e-06
8.86831e-09
-5.97644e-09
-3.63829e-06
-5.77055e-09
-3.96951e-06
8.69408e-09
2.95225e-09
-7.90798e-09
-1.66969e-06
5.05622e-09
-8.01741e-09
-2.0643e-06
6.52706e-09
-7.89353e-09
-2.38251e-06
7.5206e-09
-7.72521e-09
-2.69141e-06
8.13784e-09
-7.52604e-09
-3.00337e-06
8.45805e-09
-7.30314e-09
-3.32185e-06
8.53451e-09
-7.06308e-09
-3.64772e-06
-6.80919e-09
-3.97996e-06
8.37806e-09
2.83048e-09
-1.04698e-08
-1.67177e-06
4.80806e-09
-9.8055e-09
-2.06688e-06
6.17035e-09
-9.30275e-09
-2.3855e-06
7.08337e-09
-8.90657e-09
-2.69484e-06
7.65598e-09
-8.55812e-09
-3.00727e-06
7.97203e-09
-8.23813e-09
-3.32627e-06
8.08678e-09
-7.93795e-09
-3.65268e-06
-7.65014e-09
-3.98551e-06
8.00788e-09
2.42202e-09
-1.24401e-08
-1.67152e-06
4.06389e-09
-1.10464e-08
-2.06667e-06
5.14988e-09
-1.01907e-08
-2.38526e-06
5.84495e-09
-9.58674e-09
-2.69455e-06
6.26168e-09
-9.10701e-09
-3.00693e-06
6.48926e-09
-8.70739e-09
-3.32586e-06
6.58825e-09
-8.36438e-09
-3.65221e-06
-8.06381e-09
-3.98495e-06
6.57496e-09
1.92097e-09
-1.36952e-08
-1.66902e-06
3.16899e-09
-1.16547e-08
-2.06372e-06
3.9724e-09
-1.05176e-08
-2.38186e-06
4.48377e-09
-9.76417e-09
-2.69066e-06
4.81045e-09
-9.20555e-09
-3.00251e-06
5.03492e-09
-8.77224e-09
-3.32089e-06
5.2104e-09
-8.42593e-09
-3.64665e-06
-8.13981e-09
-3.97879e-06
5.33981e-09
1.00008e-09
-1.66434e-06
-1.37626e-08
1.53423e-09
-2.05815e-06
-1.12604e-08
1.7604e-09
-2.37537e-06
-9.90693e-09
1.80437e-09
-2.68318e-06
-9.03666e-09
1.77516e-09
-2.99394e-06
-8.41796e-09
1.76498e-09
-3.31112e-06
-7.96741e-09
1.84198e-09
-3.63558e-06
-7.63531e-09
-3.96633e-06
-7.39164e-09
2.035e-09
2.09196e-09
-7.60894e-09
-1.66041e-06
6.19585e-09
3.4444e-09
-8.92718e-09
-2.05258e-06
7.99951e-09
4.27414e-09
-9.41605e-09
-2.3686e-06
8.74781e-09
4.72784e-09
-9.62626e-09
-2.67531e-06
9.13036e-09
4.93261e-09
-9.6656e-09
-2.985e-06
9.29128e-09
5.00485e-09
-9.57806e-09
-3.30114e-06
9.28759e-09
5.03538e-09
-9.3963e-09
-3.62456e-06
9.1606e-09
-9.14208e-09
-3.95427e-06
8.93583e-09
5.06464e-09
2.07503e-09
-8.81051e-09
-1.66648e-06
3.36237e-09
-9.55963e-09
-2.05994e-06
4.1063e-09
-9.75966e-09
-2.3771e-06
4.48539e-09
-9.79178e-09
-2.685e-06
4.64829e-09
-9.71724e-09
-2.99599e-06
4.72443e-09
-9.56066e-09
-3.31353e-06
4.81298e-09
-9.34215e-09
-3.63845e-06
-9.07334e-09
-3.96974e-06
4.95277e-09
1.87998e-09
-9.60938e-09
-1.67078e-06
2.95087e-09
-9.72151e-09
-2.06522e-06
3.48074e-09
-9.60686e-09
-2.3832e-06
3.66607e-09
-9.44835e-09
-2.69195e-06
3.67697e-09
-9.25268e-09
-3.00386e-06
3.65998e-09
-9.02471e-09
-3.32239e-06
3.72814e-09
-8.77139e-09
-3.64838e-06
-8.49669e-09
-3.98076e-06
3.93221e-09
1.64039e-09
-9.96914e-09
-1.67306e-06
2.4744e-09
-9.41212e-09
-2.06804e-06
2.79884e-09
-8.98442e-09
-2.38646e-06
2.82243e-09
-8.64427e-09
-2.69568e-06
2.72497e-09
-8.34066e-09
-3.0081e-06
2.6625e-09
-8.05655e-09
-3.32719e-06
2.75548e-09
-7.78515e-09
-3.65378e-06
-7.52058e-09
-3.98681e-06
3.05639e-09
1.25254e-09
-9.742e-09
-1.67301e-06
1.75622e-09
-8.55194e-09
-2.06804e-06
1.80675e-09
-7.83261e-09
-2.38648e-06
1.61433e-09
-7.32676e-09
-2.69569e-06
1.36118e-09
-6.92878e-09
-3.0081e-06
1.20972e-09
-6.60181e-09
-3.32718e-06
1.28685e-09
-6.32539e-09
-3.65377e-06
-6.08724e-09
-3.98678e-06
1.65408e-09
8.69426e-10
-8.9733e-09
-1.67067e-06
1.07905e-09
-7.22226e-09
-2.06528e-06
9.22667e-10
-6.27019e-09
-2.38327e-06
5.99071e-10
-5.64247e-09
-2.69203e-06
2.84582e-10
-5.19114e-09
-3.00395e-06
1.33886e-10
-4.85571e-09
-3.3225e-06
2.66673e-10
-4.6032e-09
-3.64852e-06
-4.41094e-09
-3.98096e-06
7.33884e-10
2.52194e-10
-1.66613e-06
-7.4408e-09
-4.42573e-12
-2.05985e-06
-5.27997e-09
-5.36475e-10
-2.37697e-06
-4.14726e-09
-1.14582e-09
-2.68479e-06
-3.43306e-09
-1.68025e-09
-2.99567e-06
-2.94551e-09
-1.97857e-09
-3.31308e-06
-2.61797e-09
-1.91361e-09
-3.63786e-06
-2.40602e-09
-3.96897e-06
-2.28179e-09
-1.41827e-09
1.48923e-09
-1.30472e-08
-1.66169e-06
1.28294e-08
2.08478e-09
-1.42168e-08
-2.05338e-06
1.44082e-08
2.11789e-09
-1.46065e-08
-2.36905e-06
1.50101e-08
1.81791e-09
-1.47442e-08
-2.67557e-06
1.5283e-08
1.4046e-09
-1.47114e-08
-2.98524e-06
1.53366e-08
1.08907e-09
-1.45428e-08
-3.30152e-06
1.52179e-08
1.04821e-09
-1.42702e-08
-3.62524e-06
1.49672e-08
-1.39157e-08
-3.95533e-06
1.46099e-08
1.38459e-09
1.1893e-09
-1.26338e-08
-1.66809e-06
1.44974e-09
-1.33007e-08
-2.06114e-06
1.16139e-09
-1.3453e-08
-2.37798e-06
5.91108e-10
-1.345e-08
-2.68575e-06
-1.22936e-11
-1.33409e-08
-2.99678e-06
-4.09756e-10
-1.31416e-08
-3.31456e-06
-4.05557e-10
-1.28707e-08
-3.63989e-06
-1.25401e-08
-3.97166e-06
1.06904e-10
7.86425e-10
-1.14678e-08
-1.67274e-06
6.28508e-10
-1.15823e-08
-2.0668e-06
-5.65652e-11
-1.14784e-08
-2.38451e-06
-9.52228e-10
-1.13323e-08
-2.69319e-06
-1.806e-09
-1.1141e-08
-3.00523e-06
-2.35565e-09
-1.09094e-08
-3.3241e-06
-2.38027e-09
-1.0644e-08
-3.6506e-06
-1.03488e-08
-3.98361e-06
-1.75189e-09
4.24432e-10
-9.65663e-09
-1.67531e-06
-9.04774e-11
-9.19033e-09
-2.06993e-06
-1.09262e-09
-8.83139e-09
-2.38812e-06
-2.25294e-09
-8.54434e-09
-2.69733e-06
-3.29446e-09
-8.28193e-09
-3.00994e-06
-3.94103e-09
-8.03066e-09
-3.32945e-06
-3.95991e-09
-7.78521e-09
-3.65665e-06
-7.54097e-09
-3.9904e-06
-3.2145e-09
2.3283e-11
-7.24068e-09
-1.67546e-06
-8.18061e-10
-6.23563e-09
-2.07018e-06
-2.09765e-09
-5.63654e-09
-2.38841e-06
-3.48289e-09
-5.21984e-09
-2.69765e-06
-4.68943e-09
-4.89544e-09
-3.0103e-06
-5.432e-09
-4.63405e-09
-3.32986e-06
-5.46976e-09
-4.41811e-09
-3.65712e-06
-4.23723e-09
-3.99092e-06
-4.65663e-09
-2.3879e-10
-4.45901e-09
-1.67322e-06
-1.28439e-09
-2.96535e-09
-2.06752e-06
-2.69438e-09
-2.17402e-09
-2.38534e-06
-4.15655e-09
-1.66171e-09
-2.69415e-06
-5.39137e-09
-1.30406e-09
-3.00633e-06
-6.1233e-09
-1.05511e-09
-3.32537e-06
-6.11872e-09
-8.86739e-10
-3.65209e-06
-7.80944e-10
-3.98532e-06
-5.24044e-09
-5.82467e-10
-1.6687e-06
-1.31941e-09
-1.85088e-09
-2.06209e-06
5.32254e-10
-3.41664e-09
-2.37906e-06
1.46866e-09
-4.99657e-09
-2.68694e-06
2.04788e-09
-6.31892e-09
-2.99809e-06
2.41972e-09
-7.11492e-09
-3.316e-06
2.63979e-09
-7.15332e-09
-3.64148e-06
2.74628e-09
-3.97341e-06
2.76234e-09
-6.29097e-09
7.78857e-10
-1.87266e-08
-1.66341e-06
1.966e-08
2.95865e-10
-1.97408e-08
-2.05422e-06
2.10371e-08
-8.78015e-10
-2.004e-08
-2.36937e-06
2.15051e-08
-2.35539e-09
-2.01169e-08
-2.67568e-06
2.16797e-08
-3.77751e-09
-2.00209e-08
-2.98546e-06
2.16364e-08
-4.77591e-09
-1.97808e-08
-3.30218e-06
2.14112e-08
-5.02619e-09
-1.94253e-08
-3.62664e-06
2.1043e-08
-1.8975e-08
-3.95766e-06
2.05555e-08
-4.30621e-09
1.57934e-10
-1.669e-08
-1.6703e-06
-9.5025e-10
-1.72762e-08
-2.06253e-06
-2.71298e-09
-1.73838e-08
-2.37891e-06
-4.69321e-09
-1.73591e-08
-2.68656e-06
-6.4834e-09
-1.72218e-08
-2.99782e-06
-7.67706e-09
-1.69859e-08
-3.31619e-06
-7.9137e-09
-1.66686e-08
-3.64244e-06
-1.62803e-08
-3.97536e-06
-6.9531e-09
-4.84749e-10
-1.35432e-08
-1.67542e-06
-2.24176e-09
-1.36622e-08
-2.06869e-06
-4.60032e-09
-1.35658e-08
-2.38599e-06
-7.09664e-09
-1.34322e-08
-2.69465e-06
-9.28376e-09
-1.32492e-08
-3.00704e-06
-1.07186e-08
-1.30176e-08
-3.32666e-06
-1.10062e-08
-1.27433e-08
-3.65428e-06
-1.24294e-08
-3.98863e-06
-9.8761e-09
-1.00107e-09
-9.52416e-09
-1.67834e-06
-3.27124e-09
-9.15222e-09
-2.0722e-06
-6.08802e-09
-8.85288e-09
-2.39005e-06
-8.96758e-09
-8.61266e-09
-2.69929e-06
-1.14406e-08
-8.38884e-09
-3.01236e-06
-1.30405e-08
-8.16855e-09
-3.33273e-06
-1.33484e-08
-7.94742e-09
-3.66117e-06
-7.72165e-09
-3.99641e-06
-1.20753e-08
-1.39737e-09
-4.88433e-09
-1.67871e-06
-4.02901e-09
-4.04566e-09
-2.07268e-06
-7.15235e-09
-3.55831e-09
-2.39061e-06
-1.02828e-08
-3.22087e-09
-2.69994e-06
-1.29428e-08
-2.96346e-09
-3.0131e-06
-1.46551e-08
-2.76124e-09
-3.33359e-06
-1.49894e-08
-2.59987e-09
-3.66217e-06
-2.4709e-09
-3.99755e-06
-1.3644e-08
-1.57199e-09
-1.85318e-11
-1.67653e-06
-4.29947e-09
1.21265e-09
-2.07008e-06
-7.4715e-09
1.85159e-09
-2.38761e-06
-1.0615e-08
2.25556e-09
-2.69651e-06
-1.32619e-08
2.51974e-09
-3.00919e-06
-1.49442e-08
2.68105e-09
-3.32916e-06
-1.52409e-08
2.76396e-09
-3.65719e-06
2.7844e-09
-3.99199e-06
-1.38602e-08
-1.62759e-09
-1.67189e-06
4.78606e-09
-4.34144e-09
-2.06455e-06
6.35232e-09
-7.4551e-09
-2.38123e-06
7.103e-09
-1.05318e-08
-2.68919e-06
7.55635e-09
-1.31257e-08
-3.00083e-06
7.82088e-09
-1.47858e-08
-3.31963e-06
7.94063e-09
-1.51044e-08
-3.64638e-06
7.94795e-09
-3.97983e-06
7.86109e-09
-1.37942e-08
-2.42635e-10
-2.47449e-08
2.68354e-08
-1.66526e-06
-2.35115e-09
-2.56168e-08
2.8002e-08
-2.05454e-06
-5.40062e-09
-2.58301e-08
2.83516e-08
-2.36888e-06
-8.76744e-09
-2.5857e-08
2.84448e-08
-2.67494e-06
-1.18479e-08
-2.57128e-08
2.83184e-08
-2.98502e-06
-1.40307e-08
-2.54155e-08
2.80007e-08
-3.30263e-06
-1.47491e-08
-2.49898e-08
2.75263e-08
-3.6285e-06
-2.44535e-08
2.69154e-08
-1.35708e-08
-3.96135e-06
-1.20361e-09
-2.10728e-08
-1.67279e-06
-4.31832e-09
-2.15769e-08
-2.06349e-06
-8.29337e-09