/*--------------------------------*- C++ -*----------------------------------*\
| =========                 |                                                 |
| \\      /  F ield         | OpenFOAM: The Open Source CFD Toolbox           |
|  \\    /   O peration     | Version:  plus.master.MPPICInterFoam            |
|   \\  /    A nd           | Web:      www.OpenFOAM.com                      |
|    \\/     M anipulation  |                                                 |
\*---------------------------------------------------------------------------*/
FoamFile
{
    version     2.0;
    format      ascii;
    class       volScalarField;
    location    "5.8";
    object      nut;
}
// * * * * * * * * * * * * * * * * * * * * * * * * * * * * * * * * * * * * * //

dimensions      [0 2 -1 0 0 0 0];

internalField   nonuniform List<scalar> 
11821
(
4.5593e-06
1.94846e-05
3.44004e-05
4.40899e-05
4.98418e-05
5.27377e-05
5.33346e-05
5.18199e-05
4.56428e-06
1.92807e-05
3.41816e-05
4.39254e-05
4.97332e-05
5.2676e-05
5.33114e-05
5.18287e-05
4.56821e-06
1.91735e-05
3.40637e-05
4.38354e-05
4.9673e-05
5.26404e-05
5.32951e-05
5.18268e-05
4.57056e-06
1.91225e-05
3.40097e-05
4.37947e-05
4.96453e-05
5.26234e-05
5.32868e-05
5.18256e-05
4.57147e-06
1.91604e-05
3.4054e-05
4.3829e-05
4.96681e-05
5.26361e-05
5.32908e-05
5.18219e-05
4.57086e-06
1.92572e-05
3.41673e-05
4.39169e-05
4.97267e-05
5.26694e-05
5.33036e-05
5.1819e-05
4.56925e-06
1.95004e-05
3.4435e-05
4.41203e-05
4.98621e-05
5.2746e-05
5.33303e-05
5.18019e-05
4.55715e-06
1.95525e-05
3.44704e-05
4.41371e-05
4.98668e-05
5.27446e-05
5.33272e-05
5.18008e-05
4.56137e-06
1.93797e-05
3.4286e-05
4.39994e-05
4.97766e-05
5.26942e-05
5.33097e-05
5.1811e-05
4.56468e-06
1.92848e-05
3.41822e-05
4.39208e-05
4.97244e-05
5.2664e-05
5.32967e-05
5.18112e-05
4.56659e-06
1.92374e-05
3.4132e-05
4.38831e-05
4.96992e-05
5.2649e-05
5.32901e-05
5.18115e-05
4.56716e-06
1.9267e-05
3.41657e-05
4.39089e-05
4.97161e-05
5.26581e-05
5.32925e-05
5.18079e-05
4.56629e-06
1.93467e-05
3.42572e-05
4.39792e-05
4.97625e-05
5.26842e-05
5.33023e-05
5.18051e-05
4.56438e-06
1.95461e-05
3.44735e-05
4.41419e-05
4.987e-05
5.27441e-05
5.33217e-05
5.17889e-05
4.55565e-06
1.961e-05
3.45309e-05
4.41796e-05
4.9891e-05
5.27534e-05
5.33234e-05
5.17865e-05
4.55937e-06
1.94668e-05
3.43792e-05
4.4067e-05
4.98176e-05
5.27128e-05
5.331e-05
5.17962e-05
4.56224e-06
1.93856e-05
3.42911e-05
4.40008e-05
4.9774e-05
5.26878e-05
5.32997e-05
5.17974e-05
4.56386e-06
1.9344e-05
3.42472e-05
4.39681e-05
4.97522e-05
5.2675e-05
5.32942e-05
5.1798e-05
4.56421e-06
1.93675e-05
3.42732e-05
4.39877e-05
4.9765e-05
5.26817e-05
5.32958e-05
5.17949e-05
4.56319e-06
1.94332e-05
3.43471e-05
4.40437e-05
4.98016e-05
5.27021e-05
5.33031e-05
5.1792e-05
4.56115e-06
1.95948e-05
3.452e-05
4.41727e-05
4.98862e-05
5.27487e-05
5.33174e-05
5.17779e-05
4.55464e-06
1.96592e-05
3.45835e-05
4.42176e-05
4.99137e-05
5.27628e-05
5.33217e-05
5.17755e-05
4.55804e-06
1.9543e-05
3.44615e-05
4.41277e-05
4.98554e-05
5.27307e-05
5.33113e-05
5.17837e-05
4.56065e-06
1.94755e-05
3.43892e-05
4.40739e-05
4.98201e-05
5.27106e-05
5.33031e-05
5.17848e-05
4.56208e-06
1.94407e-05
3.43527e-05
4.4047e-05
4.98022e-05
5.27e-05
5.32986e-05
5.17854e-05
4.5623e-06
1.94597e-05
3.43733e-05
4.40622e-05
4.9812e-05
5.2705e-05
5.32994e-05
5.17824e-05
4.56122e-06
1.95136e-05
3.44326e-05
4.41067e-05
4.98409e-05
5.27209e-05
5.33049e-05
5.17798e-05
4.55912e-06
1.96431e-05
3.45694e-05
4.42078e-05
4.99067e-05
5.27569e-05
5.33156e-05
5.17681e-05
4.55402e-06
1.97019e-05
3.46297e-05
4.42517e-05
4.99346e-05
5.2772e-05
5.33209e-05
5.17663e-05
4.55728e-06
1.96095e-05
3.4534e-05
4.4182e-05
4.98896e-05
5.27472e-05
5.33128e-05
5.17724e-05
4.55975e-06
1.95551e-05
3.44767e-05
4.414e-05
4.98622e-05
5.27315e-05
5.33062e-05
5.17729e-05
4.56109e-06
1.95272e-05
3.44479e-05
4.41189e-05
4.98482e-05
5.27231e-05
5.33024e-05
5.1773e-05
4.56125e-06
1.95428e-05
3.44645e-05
4.41311e-05
4.98559e-05
5.2727e-05
5.33028e-05
5.17702e-05
4.56015e-06
1.95868e-05
3.45119e-05
4.41661e-05
4.98785e-05
5.27392e-05
5.33069e-05
5.1768e-05
4.55804e-06
1.96894e-05
3.46187e-05
4.42442e-05
4.99291e-05
5.27668e-05
5.33149e-05
5.17587e-05
4.55377e-06
1.97395e-05
3.46709e-05
4.42827e-05
4.9954e-05
5.27807e-05
5.33203e-05
5.17577e-05
4.55702e-06
1.96677e-05
3.45982e-05
4.42306e-05
4.99206e-05
5.27621e-05
5.33138e-05
5.17614e-05
4.55945e-06
1.96254e-05
3.45547e-05
4.41993e-05
4.99002e-05
5.27503e-05
5.33083e-05
5.17609e-05
4.56078e-06
1.9604e-05
3.45331e-05
4.41839e-05
4.989e-05
5.27439e-05
5.33051e-05
5.17603e-05
4.56093e-06
1.9617e-05
3.45468e-05
4.41939e-05
4.98963e-05
5.27469e-05
5.33051e-05
5.17577e-05
4.55984e-06
1.96526e-05
3.45844e-05
4.42213e-05
4.99137e-05
5.27563e-05
5.33082e-05
5.17558e-05
4.55771e-06
1.97329e-05
3.46664e-05
4.42806e-05
4.99519e-05
5.27771e-05
5.33143e-05
5.17489e-05
4.55392e-06
1.9773e-05
3.47084e-05
4.43116e-05
4.99722e-05
5.27888e-05
5.33192e-05
5.17486e-05
4.55724e-06
1.9719e-05
3.46555e-05
4.42748e-05
4.99488e-05
5.27754e-05
5.33137e-05
5.17498e-05
4.55974e-06
1.96875e-05
3.46244e-05
4.42532e-05
4.99349e-05
5.27669e-05
5.3309e-05
5.1748e-05
4.56112e-06
1.96721e-05
3.46097e-05
4.4243e-05
4.99281e-05
5.27624e-05
5.33061e-05
5.17464e-05
4.56129e-06
1.96832e-05
3.46214e-05
4.42516e-05
4.99334e-05
5.27648e-05
5.33059e-05
5.17438e-05
4.56021e-06
1.97117e-05
3.46506e-05
4.42725e-05
4.99466e-05
5.27719e-05
5.33082e-05
5.17423e-05
4.55806e-06
1.97734e-05
3.47123e-05
4.43164e-05
4.99747e-05
5.27872e-05
5.3313e-05
5.17377e-05
4.55449e-06
1.98035e-05
3.47438e-05
4.43396e-05
4.99901e-05
5.27963e-05
5.33169e-05
5.17378e-05
4.558e-06
1.97649e-05
3.47081e-05
4.43162e-05
4.99754e-05
5.27873e-05
5.3312e-05
5.17362e-05
4.56064e-06
1.9743e-05
3.46882e-05
4.43033e-05
4.99672e-05
5.27816e-05
5.33077e-05
5.17326e-05
4.56213e-06
1.97331e-05
3.46797e-05
4.4298e-05
4.99637e-05
5.27787e-05
5.33049e-05
5.17299e-05
4.56235e-06
1.97429e-05
3.469e-05
4.43056e-05
4.99683e-05
5.27806e-05
5.33044e-05
5.1727e-05
4.56129e-06
1.97652e-05
3.47122e-05
4.43212e-05
4.9978e-05
5.27858e-05
5.33061e-05
5.17261e-05
4.55908e-06
1.98114e-05
3.47571e-05
4.43524e-05
4.99978e-05
5.27968e-05
5.331e-05
5.17236e-05
4.55558e-06
1.98328e-05
3.47794e-05
4.43689e-05
5.00088e-05
5.28031e-05
5.33121e-05
5.17226e-05
4.55939e-06
1.98076e-05
3.47589e-05
4.43572e-05
5.00018e-05
5.27978e-05
5.33072e-05
5.17178e-05
4.56226e-06
1.97943e-05
3.47491e-05
4.43523e-05
4.99987e-05
5.27945e-05
5.33028e-05
5.17121e-05
4.56391e-06
1.97894e-05
3.47463e-05
4.43516e-05
4.9998e-05
5.27928e-05
5.32998e-05
5.17078e-05
4.56422e-06
1.97981e-05
3.47556e-05
4.43585e-05
5.00022e-05
5.27943e-05
5.32989e-05
5.17046e-05
4.56316e-06
1.98151e-05
3.47719e-05
4.43695e-05
5.00089e-05
5.27979e-05
5.33002e-05
5.17042e-05
4.56087e-06
1.98484e-05
3.48027e-05
4.43901e-05
5.00218e-05
5.28055e-05
5.33036e-05
5.17039e-05
4.55736e-06
1.98631e-05
3.48185e-05
4.44021e-05
5.00295e-05
5.28085e-05
5.33019e-05
5.16984e-05
4.56159e-06
1.98499e-05
3.48118e-05
4.44011e-05
5.00292e-05
5.2806e-05
5.32963e-05
5.16898e-05
4.56479e-06
1.98445e-05
3.48112e-05
4.44036e-05
5.00307e-05
5.28045e-05
5.32911e-05
5.16811e-05
4.56668e-06
1.9844e-05
3.48138e-05
4.44071e-05
5.00326e-05
5.28037e-05
5.32875e-05
5.16748e-05
4.5671e-06
1.98521e-05
3.48226e-05
4.44137e-05
5.00365e-05
5.28048e-05
5.32859e-05
5.16708e-05
4.56603e-06
1.98644e-05
3.48336e-05
4.44208e-05
5.00407e-05
5.28071e-05
5.3287e-05
5.16711e-05
4.56359e-06
1.98868e-05
3.48524e-05
4.44322e-05
5.00478e-05
5.28119e-05
5.32905e-05
5.16734e-05
4.56008e-06
1.98983e-05
3.48662e-05
4.44428e-05
5.00529e-05
5.28098e-05
5.32801e-05
5.16559e-05
4.56486e-06
1.9896e-05
3.48722e-05
4.44518e-05
5.00586e-05
5.28091e-05
5.32725e-05
5.16419e-05
4.56851e-06
1.98981e-05
3.48805e-05
4.44613e-05
5.00642e-05
5.28086e-05
5.32654e-05
5.16289e-05
4.57072e-06
1.99018e-05
3.48883e-05
4.44689e-05
5.00684e-05
5.28082e-05
5.32604e-05
5.16196e-05
4.57129e-06
1.99095e-05
3.4897e-05
4.44755e-05
5.0072e-05
5.28087e-05
5.32579e-05
5.16145e-05
4.57018e-06
1.99177e-05
3.49033e-05
4.44789e-05
5.0074e-05
5.281e-05
5.3259e-05
5.16156e-05
4.56752e-06
1.99305e-05
3.49116e-05
4.44824e-05
5.00761e-05
5.28127e-05
5.32631e-05
5.16212e-05
4.56408e-06
1.99446e-05
3.49299e-05
4.44957e-05
5.00786e-05
5.28002e-05
5.32336e-05
5.15765e-05
4.56959e-06
1.99525e-05
3.49481e-05
4.4514e-05
5.00891e-05
5.27995e-05
5.32214e-05
5.15541e-05
4.57386e-06
1.9962e-05
3.49652e-05
4.45304e-05
5.00981e-05
5.27985e-05
5.32103e-05
5.15342e-05
4.5765e-06
1.99698e-05
3.49785e-05
4.45419e-05
5.0104e-05
5.27973e-05
5.32022e-05
5.15199e-05
4.57727e-06
1.99777e-05
3.49872e-05
4.45483e-05
5.01071e-05
5.27968e-05
5.3198e-05
5.15126e-05
4.5761e-06
1.99822e-05
3.49889e-05
4.45484e-05
5.0107e-05
5.27973e-05
5.31996e-05
5.15151e-05
4.57314e-06
1.99861e-05
3.49871e-05
4.45444e-05
5.01051e-05
5.27995e-05
5.32061e-05
5.15257e-05
4.56994e-06
2.00111e-05
3.50201e-05
4.45651e-05
5.01014e-05
5.27634e-05
5.31347e-05
5.14231e-05
4.57643e-06
2.003e-05
3.50502e-05
4.45916e-05
5.01145e-05
5.27592e-05
5.31131e-05
5.13863e-05
4.58157e-06
2.00467e-05
3.50754e-05
4.46137e-05
5.01252e-05
5.27551e-05
5.3094e-05
5.13542e-05
4.58484e-06
2.00576e-05
3.50928e-05
4.46286e-05
5.01319e-05
5.27515e-05
5.30802e-05
5.13313e-05
4.5859e-06
2.00642e-05
3.51013e-05
4.46353e-05
5.01346e-05
5.27495e-05
5.30734e-05
5.13203e-05
4.5846e-06
2.00645e-05
3.50991e-05
4.46326e-05
5.01334e-05
5.27504e-05
5.30765e-05
5.13253e-05
4.58113e-06
2.00607e-05
3.50888e-05
4.46229e-05
5.01296e-05
5.27547e-05
5.3089e-05
5.1345e-05
4.57857e-06
2.01118e-05
3.51461e-05
4.46505e-05
5.01061e-05
5.26664e-05
5.29315e-05
5.11266e-05
4.58646e-06
2.01377e-05
3.51871e-05
4.46845e-05
5.01191e-05
5.2653e-05
5.28916e-05
5.1064e-05
4.59272e-06
2.01601e-05
3.52215e-05
4.47126e-05
5.01293e-05
5.26409e-05
5.28571e-05
5.101e-05
4.59672e-06
2.01752e-05
3.52447e-05
4.47311e-05
5.01353e-05
5.26313e-05
5.2832e-05
5.09712e-05
4.59805e-06
2.01823e-05
3.52544e-05
4.47384e-05
5.01371e-05
5.26264e-05
5.28202e-05
5.09533e-05
4.5965e-06
2.01795e-05
3.52488e-05
4.47337e-05
5.01357e-05
5.26291e-05
5.28269e-05
5.09632e-05
4.59234e-06
2.01689e-05
3.52307e-05
4.47194e-05
5.01326e-05
5.26398e-05
5.28514e-05
5.09993e-05
4.54508e-06
2.00643e-05
3.50214e-05
4.45397e-05
5.01136e-05
5.28604e-05
5.33395e-05
5.17349e-05
4.55269e-06
2.02887e-05
3.52814e-05
4.47384e-05
5.023e-05
5.28926e-05
5.32914e-05
5.1615e-05
4.55412e-06
2.03784e-05
3.5423e-05
4.48876e-05
5.03747e-05
4.58349e-06
2.10236e-05
4.54941e-06
4.53893e-06
2.0041e-05
3.49786e-05
4.44974e-05
5.00807e-05
5.28388e-05
5.33281e-05
5.17312e-05
4.5436e-06
2.02076e-05
3.5168e-05
4.46393e-05
5.01601e-05
5.28551e-05
5.32841e-05
5.16337e-05
4.5431e-06
2.02466e-05
3.52328e-05
4.47063e-05
5.02243e-05
5.29162e-05
5.33447e-05
5.1697e-05
4.56227e-06
2.06874e-05
3.57446e-05
4.51151e-05
5.04876e-05
5.30201e-05
5.32791e-05
5.14606e-05
4.53988e-06
2.02372e-05
3.52182e-05
4.46915e-05
5.02095e-05
5.29027e-05
5.33337e-05
5.1689e-05
4.53892e-06
2.02282e-05
3.51785e-05
4.46409e-05
5.01567e-05
5.28486e-05
5.32756e-05
5.16238e-05
4.53062e-06
2.00313e-05
3.49543e-05
4.44732e-05
5.00631e-05
5.28295e-05
5.33267e-05
5.17357e-05
4.53495e-06
2.00232e-05
3.4948e-05
4.44688e-05
5.00597e-05
5.28263e-05
5.33229e-05
5.1731e-05
4.53757e-06
2.01463e-05
3.50859e-05
4.45705e-05
5.01153e-05
5.28356e-05
5.32882e-05
5.16575e-05
4.53611e-06
2.01591e-05
3.51113e-05
4.45974e-05
5.01409e-05
5.28613e-05
5.33168e-05
5.16922e-05
4.54864e-06
2.04619e-05
3.54577e-05
4.4868e-05
5.03078e-05
5.29152e-05
5.32517e-05
5.15095e-05
4.53382e-06
2.01562e-05
3.51051e-05
4.45903e-05
5.01338e-05
5.28546e-05
5.3311e-05
5.16875e-05
4.53421e-06
2.0169e-05
3.51025e-05
4.45785e-05
5.01171e-05
5.28328e-05
5.32818e-05
5.16482e-05
4.52891e-06
2.0023e-05
3.49389e-05
4.44578e-05
5.00512e-05
5.28218e-05
5.33225e-05
5.17339e-05
4.53232e-06
2.00076e-05
3.49238e-05
4.44471e-05
5.00446e-05
5.28182e-05
5.33205e-05
5.17326e-05
4.53349e-06
2.00981e-05
3.50234e-05
4.45194e-05
5.00833e-05
5.28236e-05
5.32943e-05
5.16785e-05
4.53156e-06
2.00977e-05
3.50285e-05
4.45264e-05
5.00914e-05
5.28342e-05
5.33098e-05
5.17012e-05
4.53973e-06
2.03071e-05
3.52651e-05
4.47079e-05
5.01994e-05
5.2863e-05
5.32562e-05
5.15673e-05
4.5298e-06
2.0098e-05
3.50264e-05
4.45226e-05
5.0087e-05
5.28297e-05
5.33056e-05
5.16976e-05
4.53083e-06
2.0119e-05
3.50401e-05
4.45283e-05
5.00862e-05
5.28221e-05
5.32892e-05
5.16705e-05
4.52756e-06
2.0011e-05
3.49209e-05
4.44413e-05
5.00394e-05
5.2815e-05
5.33199e-05
5.1734e-05
4.53052e-06
1.99926e-05
3.49024e-05
4.44286e-05
5.00324e-05
5.28122e-05
5.33196e-05
5.1735e-05
4.53064e-06
2.00588e-05
3.49734e-05
4.44791e-05
5.00586e-05
5.28149e-05
5.33e-05
5.1696e-05
4.52847e-06
2.00522e-05
3.49683e-05
4.44758e-05
5.00579e-05
5.28181e-05
5.33089e-05
5.17121e-05
4.53371e-06
2.01976e-05
3.51308e-05
4.45986e-05
5.0129e-05
5.28341e-05
5.32682e-05
5.16167e-05
4.52699e-06
2.00536e-05
3.49676e-05
4.44732e-05
5.00545e-05
5.28146e-05
5.33058e-05
5.17096e-05
4.52824e-06
2.00758e-05
3.49868e-05
4.44856e-05
5.00601e-05
5.28129e-05
5.32954e-05
5.16892e-05
4.52635e-06
1.9996e-05
3.49001e-05
4.4423e-05
5.00268e-05
5.28085e-05
5.33182e-05
5.17359e-05
4.52919e-06
1.99772e-05
3.48818e-05
4.44115e-05
5.00213e-05
5.2807e-05
5.3319e-05
5.17376e-05
4.52852e-06
2.00252e-05
3.49314e-05
4.44453e-05
5.0038e-05
5.28075e-05
5.33044e-05
5.17098e-05
4.52624e-06
2.0016e-05
3.49211e-05
4.44368e-05
5.00327e-05
5.28068e-05
5.33096e-05
5.17219e-05
4.52945e-06
2.01173e-05
3.5033e-05
4.452e-05
5.00797e-05
5.28159e-05
5.32799e-05
5.16551e-05
4.52484e-06
2.00171e-05
3.492e-05
4.44337e-05
5.0029e-05
5.28034e-05
5.3307e-05
5.17202e-05
4.52608e-06
2.00373e-05
3.49394e-05
4.44474e-05
5.00365e-05
5.28042e-05
5.33e-05
5.17045e-05
4.52515e-06
1.99784e-05
3.48765e-05
4.44026e-05
5.0013e-05
5.28014e-05
5.33167e-05
5.17385e-05
4.52813e-06
1.99611e-05
3.48612e-05
4.43947e-05
5.00106e-05
5.2802e-05
5.33184e-05
5.174e-05
4.52681e-06
1.99953e-05
3.48944e-05
4.44158e-05
5.00198e-05
5.28006e-05
5.33072e-05
5.17205e-05
4.52449e-06
1.9985e-05
3.48814e-05
4.44043e-05
5.0012e-05
5.27976e-05
5.33101e-05
5.17296e-05
4.52623e-06
2.00559e-05
3.49583e-05
4.44603e-05
5.00427e-05
5.28025e-05
5.32888e-05
5.16835e-05
4.52303e-06
1.99851e-05
3.48786e-05
4.43994e-05
5.0007e-05
5.27937e-05
5.33076e-05
5.17287e-05
4.52414e-06
2.00021e-05
3.48958e-05
4.44121e-05
5.00144e-05
5.27953e-05
5.33027e-05
5.17168e-05
4.5239e-06
1.99584e-05
3.48501e-05
4.43801e-05
4.99979e-05
5.27936e-05
5.3315e-05
5.17413e-05
4.52722e-06
1.99442e-05
3.48405e-05
4.43784e-05
5.00004e-05
5.2797e-05
5.33172e-05
5.17414e-05
4.52532e-06
1.99679e-05
3.4861e-05
4.43894e-05
5.00036e-05
5.27939e-05
5.33085e-05
5.1728e-05
4.52302e-06
1.99573e-05
3.48465e-05
4.43759e-05
4.99939e-05
5.27893e-05
5.33096e-05
5.17349e-05
4.52365e-06
2.00067e-05
3.48986e-05
4.44128e-05
5.00134e-05
5.27914e-05
5.32945e-05
5.17034e-05
4.5214e-06
1.99556e-05
3.48408e-05
4.43684e-05
4.9987e-05
5.27843e-05
5.3307e-05
5.17346e-05
4.52231e-06
1.99692e-05
3.4855e-05
4.4379e-05
4.99934e-05
5.27861e-05
5.33037e-05
5.17259e-05
4.52259e-06
1.99363e-05
3.48216e-05
4.43562e-05
4.99818e-05
5.2785e-05
5.33125e-05
5.17433e-05
4.52646e-06
1.99274e-05
3.48208e-05
4.43636e-05
4.99912e-05
5.27921e-05
5.3315e-05
5.17406e-05
4.52402e-06
1.99427e-05
3.4831e-05
4.43663e-05
4.99894e-05
5.27874e-05
5.33079e-05
5.17316e-05
4.52176e-06
1.99322e-05
3.48156e-05
4.43514e-05
4.99783e-05
5.27814e-05
5.33075e-05
5.17369e-05
4.52151e-06
1.9966e-05
3.48496e-05
4.43743e-05
4.99896e-05
5.27816e-05
5.32967e-05
5.17157e-05
4.51989e-06
1.99278e-05
3.4806e-05
4.43404e-05
4.99688e-05
5.2775e-05
5.33045e-05
5.17371e-05
4.52059e-06
1.99381e-05
3.48169e-05
4.43484e-05
4.99738e-05
5.27766e-05
5.33026e-05
5.17312e-05
4.5213e-06
1.99125e-05
3.4792e-05
4.4332e-05
4.99655e-05
5.27757e-05
5.33084e-05
5.17433e-05
4.52592e-06
1.99119e-05
3.48042e-05
4.43522e-05
4.99843e-05
5.27872e-05
5.33101e-05
5.17349e-05
4.52298e-06
1.99202e-05
3.48059e-05
4.4348e-05
4.99782e-05
5.27809e-05
5.3304e-05
5.17291e-05
4.5207e-06
1.991e-05
3.47896e-05
4.43318e-05
4.99656e-05
5.27736e-05
5.33023e-05
5.17329e-05
4.51979e-06
1.99322e-05
3.48101e-05
4.4344e-05
4.99707e-05
5.27722e-05
5.32947e-05
5.17193e-05
4.51857e-06
1.99019e-05
3.47752e-05
4.43163e-05
4.99531e-05
5.27655e-05
5.3299e-05
5.1734e-05
4.51906e-06
1.99093e-05
3.47826e-05
4.43217e-05
4.99564e-05
5.27669e-05
5.32983e-05
5.17308e-05
4.52019e-06
1.98872e-05
3.47625e-05
4.43088e-05
4.99498e-05
5.27655e-05
5.33018e-05
5.17391e-05
4.52575e-06
1.9899e-05
3.47936e-05
4.4347e-05
4.99809e-05
5.27813e-05
5.32992e-05
5.17188e-05
4.52239e-06
1.99023e-05
3.47886e-05
4.43372e-05
4.99712e-05
5.27737e-05
5.3294e-05
5.17155e-05
4.51999e-06
1.98917e-05
3.47712e-05
4.43193e-05
4.9957e-05
5.27648e-05
5.32907e-05
5.17177e-05
4.51856e-06
1.99058e-05
3.47815e-05
4.43235e-05
4.99572e-05
5.27624e-05
5.32857e-05
5.17099e-05
4.51763e-06
1.98789e-05
3.47508e-05
4.42987e-05
4.99408e-05
5.27549e-05
5.32873e-05
5.17204e-05
4.5179e-06
1.98837e-05
3.47547e-05
4.43013e-05
4.99427e-05
5.27564e-05
5.32883e-05
5.17203e-05
4.51938e-06
1.98626e-05
3.47371e-05
4.42907e-05
4.99372e-05
5.2755e-05
5.32906e-05
5.17266e-05
4.52627e-06
1.98915e-05
3.47943e-05
4.43525e-05
4.99825e-05
5.27724e-05
5.32762e-05
5.16823e-05
4.52255e-06
1.9891e-05
3.47838e-05
4.43378e-05
4.99694e-05
5.27631e-05
5.32708e-05
5.16801e-05
4.51996e-06
1.98796e-05
3.47649e-05
4.43182e-05
4.99536e-05
5.27526e-05
5.32661e-05
5.16808e-05
4.51806e-06
1.98884e-05
3.47677e-05
4.4316e-05
4.99502e-05
5.27495e-05
5.32632e-05
5.16778e-05
4.51728e-06
1.98625e-05
3.47385e-05
4.42924e-05
4.99341e-05
5.27417e-05
5.3264e-05
5.16868e-05
4.51742e-06
1.98632e-05
3.47381e-05
4.42916e-05
4.99343e-05
5.27432e-05
5.32668e-05
5.16903e-05
4.51897e-06
1.98457e-05
3.47242e-05
4.42839e-05
4.99309e-05
5.27433e-05
5.32701e-05
5.16971e-05
4.52768e-06
1.99006e-05
3.48185e-05
4.43767e-05
4.9991e-05
5.27545e-05
5.32275e-05
5.16047e-05
4.52368e-06
1.98959e-05
3.48027e-05
4.43571e-05
4.99742e-05
5.27427e-05
5.32205e-05
5.16018e-05
4.5208e-06
1.98847e-05
3.47829e-05
4.43362e-05
4.9957e-05
5.27309e-05
5.32143e-05
5.16007e-05
4.51866e-06
1.98861e-05
3.47774e-05
4.43275e-05
4.99496e-05
5.27265e-05
5.32129e-05
5.16017e-05
4.5177e-06
1.98633e-05
3.47505e-05
4.43054e-05
4.99351e-05
5.27206e-05
5.32159e-05
5.16131e-05
4.51774e-06
1.98592e-05
3.4745e-05
4.43013e-05
4.9934e-05
5.27232e-05
5.32222e-05
5.16225e-05
4.51923e-06
1.98453e-05
3.47345e-05
4.42963e-05
4.99331e-05
5.27259e-05
5.32285e-05
5.16325e-05
4.53048e-06
1.99393e-05
3.48807e-05
4.44273e-05
5.00033e-05
5.2712e-05
5.31239e-05
5.14454e-05
4.52617e-06
1.99315e-05
3.48605e-05
4.44036e-05
4.99827e-05
5.26967e-05
5.31135e-05
5.14391e-05
4.523e-06
1.99207e-05
3.484e-05
4.43812e-05
4.99637e-05
5.26829e-05
5.31047e-05
5.14344e-05
4.52062e-06
1.99156e-05
3.48272e-05
4.43669e-05
4.99532e-05
5.26779e-05
5.31054e-05
5.144e-05
4.51937e-06
1.98943e-05
3.48012e-05
4.43459e-05
4.99411e-05
5.26764e-05
5.31149e-05
5.14594e-05
4.51925e-06
1.98854e-05
3.47909e-05
4.43391e-05
4.99404e-05
5.26828e-05
5.31287e-05
5.14799e-05
4.52069e-06
1.98733e-05
3.4782e-05
4.43361e-05
4.99425e-05
5.269e-05
5.31411e-05
5.14976e-05
4.53572e-06
4.54932e-06
2.03036e-05
4.54581e-06
2.00992e-05
3.5059e-05
4.45822e-05
5.01592e-05
4.54905e-06
1.99955e-05
3.49403e-05
4.44899e-05
5.00974e-05
5.28683e-05
5.33597e-05
5.17548e-05
4.55337e-06
1.97018e-05
3.46329e-05
4.42626e-05
4.9953e-05
5.27981e-05
5.33555e-05
5.1811e-05
4.52978e-06
2.00107e-05
3.49289e-05
4.44551e-05
5.00528e-05
5.28248e-05
5.33254e-05
5.17363e-05
4.53379e-06
2.00556e-05
3.4981e-05
4.44953e-05
5.00757e-05
5.28296e-05
5.33119e-05
5.17039e-05
4.53597e-06
2.00543e-05
3.49909e-05
4.451e-05
5.00911e-05
5.28438e-05
5.33255e-05
5.17197e-05
4.5464e-06
2.01864e-05
3.51469e-05
4.46341e-05
5.01681e-05
5.28703e-05
5.32998e-05
5.1641e-05
4.5447e-06
2.00417e-05
3.49886e-05
4.4518e-05
5.0106e-05
5.28627e-05
5.33451e-05
5.17368e-05
4.54824e-06
1.9966e-05
3.49049e-05
4.4456e-05
5.0068e-05
5.28446e-05
5.33415e-05
5.17413e-05
4.55209e-06
1.97297e-05
3.46597e-05
4.4277e-05
4.99563e-05
5.27924e-05
5.33421e-05
5.17905e-05
4.52931e-06
2.00103e-05
3.49247e-05
4.44487e-05
5.00467e-05
5.28203e-05
5.33217e-05
5.17321e-05
4.53333e-06
2.00359e-05
3.49578e-05
4.4476e-05
5.00629e-05
5.28233e-05
5.33111e-05
5.17076e-05
4.53566e-06
2.00295e-05
3.49594e-05
4.44825e-05
5.00707e-05
5.28314e-05
5.332e-05
5.17188e-05
4.54406e-06
2.01086e-05
3.50564e-05
4.4561e-05
5.01192e-05
5.28456e-05
5.32975e-05
5.16588e-05
4.54375e-06
2.00033e-05
3.49427e-05
4.44789e-05
5.00761e-05
5.28421e-05
5.33329e-05
5.17313e-05
4.54741e-06
1.99445e-05
3.4879e-05
4.44331e-05
5.005e-05
5.28318e-05
5.33335e-05
5.17376e-05
4.55115e-06
1.97536e-05
3.46834e-05
4.42918e-05
4.99625e-05
5.27912e-05
5.33346e-05
5.17771e-05
4.52875e-06
2.00031e-05
3.49139e-05
4.44381e-05
5.00387e-05
5.28153e-05
5.33195e-05
5.17317e-05
4.53252e-06
2.00162e-05
3.49341e-05
4.44567e-05
5.00506e-05
5.28182e-05
5.33123e-05
5.17139e-05
4.5351e-06
2.00073e-05
3.4932e-05
4.44595e-05
5.00552e-05
5.28235e-05
5.33187e-05
5.17224e-05
4.54211e-06
2.00539e-05
3.49926e-05
4.45104e-05
5.00872e-05
5.28324e-05
5.33019e-05
5.16788e-05
4.54288e-06
1.99758e-05
3.49099e-05
4.44519e-05
5.00574e-05
5.28311e-05
5.33286e-05
5.17324e-05
4.54672e-06
1.99271e-05
3.48588e-05
4.44162e-05
5.00376e-05
5.28239e-05
5.33297e-05
5.17375e-05
4.55047e-06
1.97745e-05
3.47048e-05
4.43061e-05
4.99697e-05
5.27924e-05
5.33303e-05
5.17678e-05
4.52803e-06
1.99912e-05
3.48976e-05
4.44236e-05
5.00286e-05
5.28099e-05
5.3318e-05
5.17331e-05
4.53156e-06
1.99967e-05
3.49101e-05
4.44368e-05
5.00381e-05
5.28132e-05
5.3314e-05
5.17212e-05
4.5344e-06
1.99874e-05
3.49071e-05
4.4439e-05
5.0042e-05
5.28176e-05
5.3319e-05
5.17274e-05
4.54044e-06
2.0014e-05
3.49454e-05
4.4473e-05
5.00642e-05
5.28242e-05
5.33075e-05
5.16968e-05
4.54212e-06
1.99554e-05
3.48852e-05
4.44316e-05
5.00438e-05
5.28239e-05
5.33269e-05
5.1735e-05
4.5462e-06
1.99131e-05
3.48433e-05
4.44038e-05
5.00289e-05
5.28188e-05
5.33279e-05
5.17387e-05
4.55002e-06
1.97932e-05
3.47242e-05
4.43198e-05
4.99774e-05
5.27947e-05
5.33277e-05
5.17607e-05
4.52713e-06
1.99756e-05
3.48771e-05
4.44058e-05
5.00166e-05
5.28038e-05
5.3317e-05
5.17359e-05
4.53049e-06
1.99771e-05
3.48855e-05
4.44164e-05
5.0025e-05
5.28077e-05
5.33154e-05
5.17282e-05
4.53359e-06
1.99688e-05
3.48837e-05
4.44196e-05
5.00297e-05
5.28123e-05
5.33195e-05
5.17325e-05
4.53901e-06
1.99837e-05
3.49091e-05
4.44442e-05
5.00467e-05
5.28182e-05
5.33124e-05
5.17113e-05
4.54154e-06
1.99386e-05
3.48654e-05
4.44157e-05
5.00333e-05
5.28187e-05
5.3326e-05
5.17376e-05
4.54586e-06
1.99024e-05
3.48321e-05
4.43951e-05
5.0023e-05
5.28153e-05
5.33266e-05
5.17396e-05
4.54982e-06
1.98102e-05
3.47424e-05
4.43331e-05
4.99854e-05
5.27975e-05
5.33258e-05
5.17546e-05
4.52605e-06
1.99572e-05
3.48531e-05
4.43854e-05
5.00029e-05
5.27969e-05
5.33158e-05
5.17392e-05
4.52933e-06
1.99572e-05
3.48602e-05
4.43954e-05
5.00114e-05
5.28017e-05
5.3316e-05
5.17343e-05
4.53271e-06
1.99508e-05
3.48611e-05
4.4401e-05
5.00177e-05
5.28068e-05
5.33196e-05
5.17369e-05
4.53779e-06
1.99598e-05
3.48802e-05
4.44212e-05
5.00327e-05
5.28134e-05
5.3316e-05
5.17223e-05
4.54113e-06
1.99242e-05
3.48489e-05
4.44029e-05
5.00251e-05
5.28145e-05
5.33251e-05
5.17392e-05
4.54569e-06
1.98953e-05
3.4825e-05
4.439e-05
5.00196e-05
5.2813e-05
5.33253e-05
5.17392e-05
4.54987e-06
1.98261e-05
3.476e-05
4.43466e-05
4.99937e-05
5.28006e-05
5.3324e-05
5.17482e-05
4.52486e-06
1.99365e-05
3.48266e-05
4.43632e-05
4.99881e-05
5.27892e-05
5.33139e-05
5.17418e-05
4.52816e-06
1.99367e-05
3.48344e-05
4.4374e-05
4.99974e-05
5.2795e-05
5.33153e-05
5.17387e-05
4.53185e-06
1.99327e-05
3.48386e-05
4.43828e-05
5.00059e-05
5.2801e-05
5.33186e-05
5.17396e-05
4.53678e-06
1.994e-05
3.48564e-05
4.44026e-05
5.00213e-05
5.28091e-05
5.33178e-05
5.17294e-05
4.5409e-06
1.9912e-05
3.48358e-05
4.43933e-05
5.0019e-05
5.28111e-05
5.33235e-05
5.17389e-05
4.54574e-06
1.98913e-05
3.48219e-05
4.43886e-05
5.00187e-05
5.28118e-05
5.33233e-05
5.17366e-05
4.55022e-06
1.98414e-05
3.4778e-05
4.43612e-05
5.0003e-05
5.28039e-05
5.33214e-05
5.17402e-05
4.52365e-06
1.9914e-05
3.47986e-05
4.43404e-05
4.99728e-05
5.27806e-05
5.33104e-05
5.17422e-05
4.52709e-06
1.9915e-05
3.4808e-05
4.43529e-05
4.99835e-05
5.27873e-05
5.33127e-05
5.174e-05
4.53114e-06
1.99135e-05
3.48164e-05
4.43656e-05
4.99947e-05
5.27947e-05
5.33158e-05
5.17394e-05
4.53611e-06
1.99225e-05
3.48365e-05
4.43877e-05
5.00123e-05
5.28047e-05
5.33171e-05
5.17317e-05
4.54092e-06
1.99028e-05
3.48272e-05
4.43879e-05
5.00158e-05
5.28085e-05
5.33204e-05
5.1735e-05
4.5461e-06
1.98906e-05
3.48238e-05
4.43917e-05
5.00208e-05
5.28113e-05
5.33196e-05
5.173e-05
4.55099e-06
1.98574e-05
3.47982e-05
4.43785e-05
5.0014e-05
5.28073e-05
5.33169e-05
5.17285e-05
4.52265e-06
1.98894e-05
3.47703e-05
4.43186e-05
4.99581e-05
5.27711e-05
5.33042e-05
5.17383e-05
4.52629e-06
1.98918e-05
3.47824e-05
4.43336e-05
4.99707e-05
5.2779e-05
5.33069e-05
5.17361e-05
4.53069e-06
1.98944e-05
3.47965e-05
4.43514e-05
4.99855e-05
5.27881e-05
5.331e-05
5.17338e-05
4.53588e-06
1.99067e-05
3.48214e-05
4.43779e-05
5.00061e-05
5.28e-05
5.33122e-05
5.17264e-05
4.54128e-06
1.98976e-05
3.48249e-05
4.43885e-05
5.00162e-05
5.28061e-05
5.33138e-05
5.17244e-05
4.54692e-06
1.98945e-05
3.48325e-05
4.44011e-05
5.00267e-05
5.28109e-05
5.33118e-05
5.17157e-05
4.55233e-06
1.98758e-05
3.48234e-05
4.44006e-05
5.00278e-05
5.281e-05
5.33077e-05
5.17087e-05
4.52197e-06
1.98654e-05
3.47463e-05
4.43018e-05
4.99466e-05
5.27612e-05
5.32933e-05
5.17259e-05
4.52583e-06
1.98707e-05
3.47622e-05
4.43202e-05
4.99614e-05
5.27702e-05
5.3296e-05
5.17227e-05
4.53059e-06
1.98792e-05
3.47838e-05
4.43443e-05
4.99803e-05
5.27811e-05
5.32986e-05
5.17178e-05
4.53617e-06
1.98961e-05
3.48151e-05
4.43763e-05
5.00046e-05
5.27942e-05
5.33002e-05
5.17084e-05
4.54215e-06
1.98991e-05
3.48325e-05
4.43979e-05
5.00212e-05
5.28025e-05
5.32998e-05
5.17005e-05
4.54838e-06
1.99052e-05
3.48516e-05
4.44196e-05
5.0037e-05
5.28086e-05
5.32954e-05
5.16864e-05
4.55445e-06
1.98999e-05
3.48579e-05
4.44309e-05
5.00451e-05
5.28096e-05
5.32885e-05
5.16723e-05
4.5217e-06
1.98493e-05
3.47348e-05
4.42964e-05
4.99413e-05
5.27501e-05
5.3273e-05
5.16962e-05
4.52582e-06
1.98586e-05
3.47556e-05
4.43189e-05
4.99586e-05
5.27597e-05
5.32746e-05
5.16906e-05
4.53102e-06
1.98736e-05
3.47853e-05
4.43495e-05
4.99813e-05
5.27714e-05
5.32752e-05
5.16812e-05
4.53714e-06
1.98966e-05
3.48249e-05
4.43882e-05
5.00092e-05
5.27849e-05
5.32739e-05
5.16666e-05
4.54381e-06
1.99115e-05
3.48562e-05
4.44204e-05
5.00317e-05
5.27939e-05
5.32694e-05
5.16502e-05
4.55078e-06
1.99276e-05
3.48873e-05
4.44513e-05
5.00519e-05
5.27994e-05
5.32598e-05
5.1627e-05
4.55765e-06
1.9935e-05
3.49083e-05
4.44737e-05
5.00658e-05
5.28003e-05
5.32473e-05
5.16026e-05
4.52212e-06
1.98498e-05
3.47466e-05
4.43102e-05
4.99444e-05
5.27331e-05
5.32314e-05
5.16315e-05
4.52658e-06
1.98634e-05
3.47727e-05
4.43366e-05
4.99635e-05
5.27421e-05
5.323e-05
5.16208e-05
4.53232e-06
1.98855e-05
3.4811e-05
4.43738e-05
4.99891e-05
5.27527e-05
5.32255e-05
5.16028e-05
4.53914e-06
1.99162e-05
3.48602e-05
4.44195e-05
5.00196e-05
5.27638e-05
5.32173e-05
5.15775e-05
4.54666e-06
1.99428e-05
3.49052e-05
4.44615e-05
5.00459e-05
5.27701e-05
5.32039e-05
5.1547e-05
4.55459e-06
1.99698e-05
3.49491e-05
4.45014e-05
5.00688e-05
5.27714e-05
5.31836e-05
5.15078e-05
4.56246e-06
1.99898e-05
3.49847e-05
4.45336e-05
5.00859e-05
5.2768e-05
5.31595e-05
5.14658e-05
4.52377e-06
1.98786e-05
3.47955e-05
4.43512e-05
4.99546e-05
5.26975e-05
5.31439e-05
5.14963e-05
4.52864e-06
1.98968e-05
3.4827e-05
4.43811e-05
4.9974e-05
5.27032e-05
5.31357e-05
5.14758e-05
4.53506e-06
1.99266e-05
3.48743e-05
4.44239e-05
5e-05
5.27083e-05
5.312e-05
5.14418e-05
4.54278e-06
1.99663e-05
3.49339e-05
4.44759e-05
5.00301e-05
5.27116e-05
5.30969e-05
5.13959e-05
4.55137e-06
2.00051e-05
3.49925e-05
4.45259e-05
5.0056e-05
5.27085e-05
5.30653e-05
5.13401e-05
4.56051e-06
2.00442e-05
3.50493e-05
4.45731e-05
5.00767e-05
5.26974e-05
5.30233e-05
5.12715e-05
4.56969e-06
2.0078e-05
3.50999e-05
4.46126e-05
5.00917e-05
5.26818e-05
5.2977e-05
5.11985e-05
4.56754e-06
1.97563e-05
3.47204e-05
4.43363e-05
5.00017e-05
5.28201e-05
5.33521e-05
5.17831e-05
4.57464e-06
2.01478e-05
3.51532e-05
4.46586e-05
5.01916e-05
5.28844e-05
5.33025e-05
5.16362e-05
4.57525e-06
2.02874e-05
3.53348e-05
4.48168e-05
5.03127e-05
5.29727e-05
5.33675e-05
5.16879e-05
4.59392e-06
2.07973e-05
3.59379e-05
4.53084e-05
5.06404e-05
5.31142e-05
5.33057e-05
5.14169e-05
4.56276e-06
2.0245e-05
3.52788e-05
4.477e-05
5.02808e-05
5.29553e-05
5.33624e-05
5.16931e-05
4.56017e-06
2.02595e-05
3.52525e-05
4.47148e-05
5.02082e-05
5.28704e-05
5.32678e-05
5.15902e-05
4.54628e-06
2.00316e-05
3.49905e-05
4.45191e-05
5.01022e-05
5.28558e-05
5.33398e-05
5.17383e-05
4.56201e-06
1.97477e-05
3.46963e-05
4.43094e-05
4.9978e-05
5.28017e-05
5.33389e-05
5.17747e-05
4.56575e-06
2.00642e-05
3.50408e-05
4.45634e-05
5.01271e-05
5.28525e-05
5.33012e-05
5.16614e-05
4.56421e-06
2.01561e-05
3.51564e-05
4.46594e-05
5.01954e-05
5.28975e-05
5.33312e-05
5.16846e-05
4.57591e-06
2.05142e-05
3.5572e-05
4.49883e-05
5.04018e-05
5.29676e-05
5.32554e-05
5.14628e-05
4.55367e-06
2.01446e-05
3.51324e-05
4.46342e-05
5.01742e-05
5.28823e-05
5.33227e-05
5.1683e-05
4.55171e-06
2.01781e-05
3.5144e-05
4.46245e-05
5.01497e-05
5.28454e-05
5.32733e-05
5.16213e-05
4.54057e-06
2.00151e-05
3.4955e-05
4.44825e-05
5.00729e-05
5.28361e-05
5.3329e-05
5.17345e-05
4.55842e-06
1.97538e-05
3.46938e-05
4.43024e-05
4.99695e-05
5.2793e-05
5.33307e-05
5.17671e-05
4.55984e-06
2.00068e-05
3.49655e-05
4.45012e-05
5.00865e-05
5.28345e-05
5.33045e-05
5.16826e-05
4.55715e-06
2.00707e-05
3.50425e-05
4.45621e-05
5.01271e-05
5.2859e-05
5.33197e-05
5.16952e-05
4.56415e-06
2.03235e-05
3.53311e-05
4.47852e-05
5.02608e-05
5.28951e-05
5.32531e-05
5.1528e-05
4.54784e-06
2.00787e-05
3.50393e-05
4.45519e-05
5.01148e-05
5.28477e-05
5.33114e-05
5.16915e-05
4.54599e-06
2.01168e-05
3.50649e-05
4.45608e-05
5.01108e-05
5.28322e-05
5.32836e-05
5.16505e-05
4.53694e-06
2.00028e-05
3.49306e-05
4.44584e-05
5.00546e-05
5.28248e-05