/*--------------------------------*- C++ -*----------------------------------*\
| =========                 |                                                 |
| \\      /  F ield         | OpenFOAM: The Open Source CFD Toolbox           |
|  \\    /   O peration     | Version:  plus.master.MPPICInterFoam            |
|   \\  /    A nd           | Web:      www.OpenFOAM.com                      |
|    \\/     M anipulation  |                                                 |
\*---------------------------------------------------------------------------*/
FoamFile
{
    version     2.0;
    format      ascii;
    class       vectorField;
    location    "1/lagrangian/kinematicCloud";
    object      UCorrect;
}
// * * * * * * * * * * * * * * * * * * * * * * * * * * * * * * * * * * * * * //


100007
(
(-8.14286e-05 -0.00139021 0.00703561)
(0.00549566 -0.00782654 0.00362166)
(-1.25659e-05 0.00331791 0.0075629)
(0.000453685 -0.00175813 0.00618912)
(8.34952e-07 -0.0164212 0.000142286)
(-0.00125444 -0.00295027 0.00684137)
(0.0015459 -0.00371353 0.00551498)
(-0.000584801 0.00134031 0.00692636)
(0.00126718 0.00282896 0.00441157)
(-0.000743025 0.000538492 0.00181482)
(6.29951e-05 0.00375846 0.00163854)
(0.000662965 0.00346897 0.00486836)
(0.00275375 0.00158585 0.00439699)
(-0.00314932 -0.00322253 0.00514857)
(0.00308658 0.00242628 0.000885856)
(0.00309787 0.000105069 0.0049904)
(0.00053765 -0.00154228 0.00904268)
(0.000350978 -0.0022125 0.00296808)
(0.00142167 -0.00141579 0.00817983)
(-0.00345326 0.00104452 0.00880599)
(0.00270337 0.00175222 0.00439699)
(-1.05861e-05 0.0163636 0.000147952)
(-0.00269158 0.00336145 0.00365988)
(-0.000302023 -0.0032025 0.0045252)
(-0.00300518 -0.0012479 0.00444731)
(-0.00290171 -0.00122918 0.00110508)
(0.00321728 -0.00276481 0.00460544)
(0.000545108 0.0010081 0.00107322)
(0.00174208 0.00176227 0.00769961)
(-0.00108389 -0.00327557 0.00972833)
(-0.00324249 0.00351418 0.000214015)
(-1.05861e-05 0.00402417 0.00328622)
(-0.00338703 -0.00210465 0.00458177)
(0.00335948 -0.0026672 0.000517636)
(-0.0012287 0.00168334 0.00387053)
(0.00294128 -0.000846353 0.0017228)
(-0.00310653 0.00254842 0.00892403)
(-0.00289096 0.00235765 0.000942532)
(0.00230309 0.00271824 0.00460571)
(0.00279698 0.0012533 0.00439699)
(7.98999e-05 0.000956028 0.00676661)
(9.77041e-05 0.00153094 0.00581433)
(-0.00350825 -0.00198055 0.000609758)
(-0.00309095 9.07006e-05 0.00892455)
(0.000830938 -0.00287931 0.00187704)
(-0.00126401 -0.00300316 0.00443342)
(0.00111768 0.00342532 0.000211007)
(-0.00269894 0.00171072 0.00438069)
(-0.00126525 0.00304219 0.00020666)
(0.00310064 -0.00258248 0.000864575)
(6.04948e-05 -0.00356065 0.0045252)
(-0.000581632 0.000785691 0.00581221)
(-0.00169738 -0.00281614 0.00443342)
(-0.00248081 0.00284317 0.00455108)
(0.00287553 -0.00123525 0.00440453)
(-0.00215015 0.00320227 0.00455108)
(0.00248886 -0.00267682 0.00383563)
(2.0592e-05 -0.00375047 0.00944396)
(0.00363666 -0.00114877 0.00920819)
(0.00142167 -0.00158407 0.0083861)
(0.001269 0.00283906 0.00441157)
(0.000569562 0.00050167 1.19733e-05)
(-0.000293667 0.00405136 0.00204167)
(-0.00123908 0.00361811 0.00920192)
(0.00160244 0.00333096 0.0104786)
(0.00385002 -0.00117698 0.0049163)
(0.00293534 -0.00165816 0.00440453)
(0.00442181 0.00128865 0.00485302)
(-0.00124094 0.00290784 0.0044022)
(0.00080766 -0.000578048 0.00579774)
(-0.000597341 0.00173686 0.00902607)
(-0.00300296 -0.0012475 0.00444731)
(0.00053765 -0.00154228 0.00901709)
(-1.25659e-05 0.00359487 0.00456045)
(0.00314241 0.0024509 0.00928685)
(-0.0109517 1.3703e-06 0.00329041)
(0.000186429 -0.000936314 0.00184414)
(0.00292175 -0.00124362 0.00440453)
(0.00167371 -0.00210564 0.000153388)
(0.00213017 0.00182372 0.000178747)
(0.00160244 0.00333096 0.00967523)
(0.0012769 0.00288266 0.00188008)
(0.00238875 0.00303592 0.000189903)
(0.00288885 -0.00363261 0.00383563)
(0.00320913 0.000105069 0.0049904)
(-0.0029575 -0.00296334 0.00425627)
(-0.00103456 7.48673e-05 0.00164782)
(0.00870246 0.0172233 0.000168079)
(0.00293854 0.0129765 0.00577202)
(0.00238875 0.00303592 0.00914998)
(-0.00108389 -0.00327557 0.00916035)
(-0.00335599 0.00172459 0.00459777)
(0.00308658 0.00242628 2.13103e-05)
(-0.00525548 0.00811184 0.00363047)
(0.0012769 0.00288266 0.000195103)
(0.00310064 -0.00258248 5.76781e-05)
(6.29951e-05 0.00375846 0.00155371)
(-0.00260702 0.00331051 0.00563614)
(-0.00285511 0.00119499 0.000186068)
(-0.000581632 0.000785691 0.00587424)
(0.0033993 0.00322439 0.000519453)
(0.00125781 -0.00288335 0.00848468)
(-0.00325776 -0.00253156 0.00787833)
(-2.30961e-05 0.00160802 0.00888234)
(0.00369866 -0.0018492 0.00297395)
(-0.00190562 -0.00349544 0.0037188)
(0.00278109 0.00125042 0.00439699)
(-0.00288696 9.07006e-05 0.00449327)
(0.00149451 0.00140964 0.0079899)
(-0.00331025 0.0146254 0.0055961)
(0.000762645 -0.000680632 0.00682323)
(0.000186429 -0.000936314 0.00199473)
(-0.0106905 1.3703e-06 0.00329041)
(0.00251493 0.00342143 0.00460571)
(-0.00164398 0.000517317 0.00908678)
(0.00335187 0.000375042 0.00454357)
(-0.00161553 0.000478978 0.00493425)
(0.00305364 -0.00126748 0.00077868)
(0.000453685 -0.0020967 0.00683211)
(-0.000191611 0.000966037 0.00188415)
(-0.00271873 0.00164536 0.00438069)
(9.77041e-05 0.00321117 0.0101508)
(-0.00126525 0.00304219 0.000187066)
(0.000589548 -0.000744516 0.00141461)
(0.00348691 -0.0027089 0.000517636)
(0.000589442 0.000744943 0.00164451)
(-0.00406305 0.000462755 0.000773827)
(-0.000743025 0.000538492 0.00168423)
(-0.000957797 0.0045308 2.93183e-05)
(0.0033159 -0.00187161 0.000517636)
(-1.25659e-05 0.00381349 0.00456045)
(1.44739e-05 -0.0039247 0.00347141)
(0.00278808 0.00125169 0.00439699)
(0.00229116 0.002674 0.00460571)
(0.00162334 -0.00330682 0.00486673)
(-1.21433e-07 0.00143623 0.00157515)
(0.00269173 0.0031656 0.00395073)
(-0.00320005 -0.00101305 0.00136772)
(0.00305364 -0.00126748 0.000215286)
(0.000186429 -0.000936314 0.00163653)
(0.00201735 -0.00331772 0.00460544)
(0.00334105 0.000487717 0.00454357)
(0.000453685 -0.00143809 0.00683211)
(0.00322755 -0.00353779 0.00463421)
(-0.00125444 -0.00295027 0.00727974)
(0.00366336 0.00118837 0.000214901)
(-0.00345326 0.00104452 0.000204435)
(0.00302895 0.00169278 0.00371776)
(0.000458775 -0.00319907 0.0045252)
(0.00589951 0.00865902 0.00378033)
(0.0037126 0.000105069 0.00986723)
(0.00210512 -0.00175984 0.00213957)
(0.00238875 0.00303592 0.00851028)
(0.00126737 0.00283 0.00441157)
(0.0012769 0.00288266 0.00856393)
(-0.00133471 -8.94197e-05 0.00697609)
(0.00308658 0.00242628 0.000976275)
(-1.05861e-05 0.00713837 0.00328622)
(0.00106037 0.00306487 0.00486836)
(0.00314882 -0.00334969 0.00923443)
(-0.000515333 -0.00182011 0.00186425)
(9.77041e-05 0.00321117 0.0105711)
(-0.00129936 0.00325679 0.0044022)
(0.000739053 -0.000557079 0.00770939)
(-0.0128672 0.0118408 0.00032389)
(0.00174208 0.000604023 0.00905739)
(0.00152298 -0.000557079 0.00882086)
(-0.000704376 -0.000518654 0.00186676)
(0.00366336 0.00118837 0.000205355)
(-0.00340038 -0.00257824 0.00458177)
(0.000335053 0.00179953 0.00683389)
(0.00369359 -0.00333773 0.000194676)
(-0.00259987 -0.00328545 0.000192169)
(-6.95054e-05 -8.95914e-05 0.00382871)
(-0.0117138 0.00261638 0.00601041)
(0.000589548 -0.000744516 0.00150463)
(0.000773468 0.000765167 0.00694441)
(-0.00277287 -0.00165465 0.00444731)
(0.00199263 -0.00332521 0.00460544)
(0.00314882 -0.00334969 0.00666439)
(0.00271194 0.00321388 0.00395073)
(-0.00103456 7.48673e-05 0.00179664)
(0.000733869 -0.000106944 0.00590383)
(0.00127175 0.00285423 0.00441157)
(0.00499373 -0.00629291 0.00362166)
(0.00053765 -0.00154228 0.00869127)
(-0.00313317 -0.00235481 0.000211366)
(0.00152298 -0.000557079 0.00911312)
(0.0010941 -0.00346708 0.00968194)
(-0.00341331 -0.00201788 0.00458177)
(0.000994752 -6.71002e-05 0.0068043)
(-0.00324249 0.00351418 0.0091232)
(6.04948e-05 -0.0032373 0.0075438)
(0.00148522 -0.00325455 0.0099184)
(-0.00195287 0.00340197 0.00490956)
(0.00359399 -0.00343734 0.00461631)
(0.00357256 0.00314441 0.000519453)
(-0.00306903 -0.000137539 0.00449327)
(0.00296963 0.00316518 0.00465318)
(0.00089295 -0.00350622 0.00360242)
(0.00314241 0.0024509 0.00977473)
(-2.67519e-06 -2.06747e-06 0.00162988)
(0.00284753 -0.00353388 0.00383563)
(0.00177511 0.000806947 0.00677552)
(-0.00309095 9.07006e-05 0.000177058)
(0.00286222 -0.00123284 0.00440453)
(-0.00344537 0.00335985 0.00720606)
(-0.00182475 0.00139622 0.00838732)
(-0.00248131 0.00284473 0.00455108)
(-0.00125444 -0.00295027 0.000198408)
(0.000974648 -0.000680632 0.00682323)
(-0.00560256 1.3703e-06 0.00329041)
(-0.00367988 -0.00421292 0.00358578)
(0.00355078 -0.000727888 0.00327521)
(0.00274684 0.00233466 0.000495894)
(-0.00336078 0.00263163 0.00459777)
(0.000186429 -0.000936314 0.00181635)
(-0.00310653 0.00254842 0.00704789)
(-0.00103456 7.48673e-05 0.0017307)
(-1.56559e-06 -0.00150579 0.00837569)
(-0.00290171 -0.00122918 0.000194379)
(6.04948e-05 -0.00351995 0.0045252)
(-2.67519e-06 -2.06747e-06 0.00153206)
(0.00322446 0.00197094 0.000495894)
(0.00270892 0.00320666 0.00395073)
(-2.53381e-05 -0.00327435 0.0113349)
(-1.56559e-06 -0.00171209 0.00903906)
(6.04948e-05 -0.00358845 0.0045252)
(0.00322998 -0.00326853 0.00463421)
(0.000936321 -0.00111604 9.72404e-07)
(-1.05861e-05 0.0163636 0.000139725)
(0.000545108 0.0010081 0.00107298)
(0.0012769 0.00288266 0.000172652)
(0.00061464 0.0032577 0.00456045)
(-0.00325776 -0.00253156 0.000229007)
(0.00394208 -0.00335785 0.00526816)
(8.34952e-07 -0.00472001 0.00333015)
(0.00343318 0.00253971 0.000495894)
(0.00305364 -0.00126748 0.00853739)
(0.00144904 0.00283054 0.00441157)
(0.000186429 -0.000936314 0.00158873)
(0.00229102 0.00142409 0.00145854)
(-0.000227528 -8.95914e-05 0.00184012)
(0.00043241 -0.0032016 0.0045252)
(0.00363666 -0.00114877 0.00982431)
(-0.00271231 0.00324403 0.00459777)
(-0.00202268 -0.00346023 0.0045877)
(0.00310064 -0.00258248 2.03862e-05)
(0.00345066 -0.00176302 0.0049163)
(-1.25659e-05 0.00331791 0.00727414)
(-0.00104834 -0.00305196 0.00488048)
(-0.00311899 -0.00192651 0.00548523)
(0.00156455 -0.00866047 6.79662e-05)
(0.00358089 0.00314789 0.000519453)
(0.00307806 -0.00101316 0.00440453)
(-0.00306033 -0.00125788 0.00444731)
(0.00310009 1.4658e-05 0.00454357)
(-0.00370169 0.00290757 0.00467167)
(-0.00448287 -0.00447573 0.00358578)
(-0.000191611 0.000966037 0.00165624)
(-0.00320005 -0.00101305 0.0014561)
(0.00249901 -0.00317187 0.000197032)
(-0.00752043 1.3703e-06 0.00329041)
(0.00293854 0.0129765 0.00562179)
(-0.00334041 -0.00328624 0.000202173)
(-0.00259987 -0.00328545 0.000201367)
(0.00249901 -0.00317187 0.000201193)
(-0.00285511 0.00119499 0.00166496)
(0.000866663 -0.000555033 0.00682323)
(0.000456398 -0.00319929 0.0045252)
(-0.00320005 -0.00101305 0.00136988)
(0.00282024 0.00347266 0.00395073)
(-0.00264453 0.00324901 0.00365988)
(0.00336738 -0.00131736 0.00440453)
(0.00283003 -0.00163319 0.00381049)
(-1.05861e-05 0.00405929 0.00328622)
(0.00352725 0.00278872 0.00386672)
(-0.000227528 -8.95914e-05 0.00158146)
(0.000907874 0.000748194 0.00667809)
(0.00310064 -0.00258248 0.0010268)
(0.00226453 -0.00291095 0.0091937)
(-0.00194237 0.0015712 0.00015667)
(0.00253683 -0.00151518 0.00383563)
(0.0033731 -0.00131827 0.00440453)
(-0.00246866 0.00280605 0.00455108)
(0.00293854 0.0129765 0.00557798)
(-0.00178627 -0.00278923 0.00443342)
(-0.00350629 0.000492113 0.00485185)
(-1.05861e-05 0.00767054 0.00328622)
(-0.00144931 0.00315821 0.0027682)
(0.00342553 0.00253721 0.000495894)
(-0.00123758 0.00288931 0.0044022)
(-0.00192969 -0.00899588 7.41936e-05)
(0.00332627 0.00163469 0.000495894)
(-0.000483346 0.0056673 0.00479568)
(0.00142167 -0.00158407 0.00846401)
(6.04948e-05 -0.0032373 0.000714179)
(-0.000743025 0.000538492 0.00176932)
(-0.00103456 7.48673e-05 0.00152629)
(-0.000955163 -0.00338415 0.00371621)
(-0.00120068 0.00337662 0.00490956)
(8.34952e-07 -0.0104258 0.00333015)
(-0.00331194 0.00187007 0.00459777)
(-0.00126525 0.00304219 0.000201896)
(0.00156455 -0.00866047 7.57178e-05)
(0.00349122 -0.00325304 0.00461631)
(-0.00286303 0.00248276 0.00459777)
(-0.000743025 0.000538492 0.00164063)
(-0.00167257 -0.00278336 0.0037188)
(-0.00345326 0.00104452 0.000214729)
(-0.000227528 -8.95914e-05 0.00179265)
(-0.00290171 -0.00122918 0.000193892)
(0.00523048 5.83887e-06 0.00330863)
(-0.000672107 0.00533121 0.00309023)
(6.29951e-05 0.00375846 0.00163773)
(-0.00329335 -0.00313101 0.00459867)
(0.00172125 -0.00158407 0.00817983)
(0.00324933 0.00188878 0.000495894)
(-0.00324249 0.00351418 0.000208125)
(-0.00247953 0.00283928 0.00455108)
(-0.00325159 -0.000476199 0.000730949)
(0.0037126 0.000105069 0.0094941)
(0.00339832 0.00273477 0.00386672)
(-0.000480795 -0.00154228 0.00773517)
(-0.00323268 -0.00313918 0.00912194)
(-0.000515333 -0.00112673 0.00350269)
(0.00294269 0.0108219 0.000104497)
(0.00125781 -0.00288335 0.0015906)
(-0.00320005 -0.00101305 0.00135464)
(0.0037126 0.000105069 0.000215291)
(-0.00285511 0.00119499 0.00857015)
(2.0592e-05 -0.00375047 0.000218752)
(0.00294269 0.0108219 0.000100483)
(0.000186429 -0.000936314 0.00186639)
(0.00289318 -0.00123845 0.00440453)
(0.00127103 0.00285022 0.00441157)
(-0.00126525 0.00304219 0.00604801)
(-0.000338186 0.00134031 0.00692636)
(-0.0032991 0.00191248 0.00459777)
(-0.00153165 0.00116705 0.00838732)
(-0.0060097 0.00835869 0.00363047)
(0.00281686 0.0012569 0.00439699)
(0.00356971 0.00314322 0.000519453)
(0.00179774 0.00206494 0.000156218)
(-0.000942073 0.00334835 0.0118023)
(0.0012769 0.00288266 0.000447451)
(-1.25659e-05 0.00331791 0.00902998)
(-0.00130963 0.00332135 0.0044022)
(0.00165118 -9.48918e-05 0.00886707)
(0.00565295 -0.00830713 0.00362166)
(-0.000581632 0.000785691 0.00593866)
(0.00209229 -0.00319404 0.00567105)
(0.00249901 -0.00317187 0.000216656)
(-0.00277116 -0.00120843 0.00444731)
(0.000936888 -0.000680632 0.00682323)
(-0.00425286 -0.00440045 0.00358578)
(0.00263951 0.00323242 0.00441842)
(-0.00334552 -0.00319892 0.00459684)
(0.001671 -1.75229e-07 0.00170471)
(-0.000515333 -0.00182011 0.00168116)
(-0.00271327 0.00166337 0.00438069)
(0.000589442 0.000744943 0.00191504)
(-0.00290171 -0.00122918 0.00716156)
(-0.00126268 -0.00299579 0.00443342)
(0.00339409 0.00252692 0.000495894)
(0.0036174 -0.00291906 0.00379617)
(-0.00290171 -0.00122918 0.00675986)
(-0.00135422 -0.0032502 0.00968842)
(6.04948e-05 -0.00294129 0.0045252)
(-0.00181254 0.000552591 0.00367403)
(-0.00175696 0.00014243 0.00676803)
(0.00127145 0.00285256 0.00441157)
(-0.00261273 -0.00333312 0.0045877)
(0.0037126 0.000105069 0.00020848)
(0.00127069 0.00284835 0.00441157)
(-0.00137488 0.00240579 0.00144517)
(-0.00199956 -0.0016436 0.000147143)
(0.00239523 -0.00278699 0.00460544)
(-0.00324281 0.00209836 0.00459777)
(0.00305364 -0.00126748 0.000200176)
(-0.00217738 0.00143801 0.00365988)
(-0.00269799 -0.00190193 0.00444731)
(-0.00316912 0.00333887 0.00457819)
(0.00310064 -0.00258248 0.00103428)
(0.00506238 0.0061012 0.00378033)
(-0.00305789 0.000434996 0.00449327)
(-0.00325776 -0.00253156 0.000196579)
(0.000829886 0.00343745 0.0113006)
(-0.00345326 0.00104452 0.00890479)
(0.000416616 -0.00320311 0.0045252)
(0.00280714 0.00125514 0.00439699)
(-0.00287967 0.000939154 0.00438069)
(-0.00155176 -0.00241425 0.0037188)
(0.00354002 -0.00327346 0.00461631)
(-0.00334041 -0.00328624 0.00878764)
(-0.00123908 0.00361811 0.00924469)
(-0.00255792 0.00307879 0.00017848)
(0.00157056 0.00279374 0.00441157)
(-0.000201576 0.00155163 0.00692636)
(6.04948e-05 -0.00294652 0.0045252)
(0.00123982 -0.00278397 0.00439196)
(0.00323234 -0.00253737 0.00224193)
(0.000866663 -0.000680632 0.00563031)
(0.000924579 -0.000303605 0.00182948)
(-0.00123184 -0.000550899 0.00679943)
(-0.00306765 0.00122878 0.00438069)
(-2.53294e-05 -0.00117749 0.00377585)
(0.000553266 0.00170415 0.00179656)
(0.00149451 0.00133892 0.0079899)
(-0.00290171 -0.00122918 0.00104569)
(0.00363666 -0.00114877 0.000225093)
(0.00363666 -0.00114877 0.00952936)
(0.0022188 0.00141695 0.00145854)
(-0.00126387 -0.00300237 0.00443342)
(8.34952e-07 -0.00429307 0.00333015)
(0.00559389 5.83887e-06 0.00330863)
(-0.00103456 7.48673e-05 0.00152907)
(-0.00126525 0.00304219 0.0073057)
(-0.00167821 -0.0030956 0.00488048)
(6.04948e-05 -0.0032373 0.00148047)
(0.00338647 1.4658e-05 0.00886198)
(-0.000357937 0.00170415 0.00366468)
(0.00175108 -0.000500268 0.00686112)
(2.0592e-05 -0.00375047 0.00980345)
(0.00285146 0.00126316 0.000227924)
(-1.56559e-06 -0.00171209 0.00870657)
(-0.00103456 7.48673e-05 0.00162872)
(-0.00255792 0.00307879 0.00851617)
(-1.56559e-06 -0.00152782 0.00837569)
(0.000589442 0.000744943 0.00175135)
(0.00650448 -0.00011938 0.00186352)
(6.04948e-05 -0.0032373 0.000877918)
(-0.00194237 0.0015712 0.000170963)
(0.00137473 0.000217702 0.00683221)
(-0.00175696 4.03914e-05 0.00676803)
(-0.00126436 -0.0030051 0.00443342)
(-0.00309095 9.07006e-05 0.00745408)
(-0.00124395 0.00292448 0.0044022)
(0.00285146 0.00126316 0.000181323)
(-0.00309095 9.07006e-05 0.000219935)
(0.00371155 -0.0019217 0.00381049)
(-0.00412322 4.79153e-05 0.00370269)
(-0.00135422 -0.0032502 0.00989163)
(0.00161333 0.00278079 0.00441157)
(-0.0154252 0.0114402 0.000560592)
(0.00301109 0.00330192 0.000207563)
(0.000628781 0.00160802 0.00816378)
(0.00327487 0.00152141 0.0027355)
(0.00117066 0.000604023 0.00769961)
(0.000186429 -0.000936314 0.00169922)
(0.0010941 -0.00346708 0.00920253)
(0.0010941 -0.00346708 0.00965195)
(-0.00194131 0.00256677 0.00107782)
(-0.00144931 0.00315821 0.00263497)
(0.00189485 0.00132161 0.000171757)
(-0.000955163 -0.00338415 0.00365721)
(-0.000952007 -0.0029793 0.00443342)
(0.00355974 0.00313904 0.000519453)
(0.00051555 0.00154959 0.00683389)
(0.0010941 -0.00346708 0.0092887)
(-0.00108389 -0.00327557 0.00891694)
(8.34952e-07 -0.00405099 0.00333015)
(0.00350967 0.00256475 0.000495894)
(0.00180442 0.00321286 0.00460571)
(-0.00124075 0.00290683 0.0044022)
(0.00315959 0.00274504 0.00163934)
(-0.00279018 -0.00159747 0.00444731)
(-0.00273191 0.00160182 0.00438069)
(-0.00166892 -0.00145315 0.00820818)
(0.00165085 -8.6766e-05 0.00683221)
(-0.00320005 -0.00101305 3.01174e-05)
(-0.00260995 -0.00331623 0.0045877)
(0.00287044 -0.00140323 0.00987585)
(0.0027397 0.00163223 0.00439699)
(-0.00331321 9.07006e-05 0.00449327)
(0.00324165 -0.0035715 0.00463421)
(0.00304914 0.00339284 0.00465318)
(-0.00333053 -0.00322536 0.000211254)
(0.000569562 0.00050167 1.24204e-05)
(-0.00306378 -0.000192227 0.00449327)
(0.00289536 -0.0030405 0.0103556)
(8.34952e-07 -0.00587931 0.00333015)
(-0.0072034 0.00874936 0.00363047)
(-0.00299485 0.00217433 0.00176713)
(-0.00327503 9.07006e-05 0.00449327)
(-0.00345326 0.00104452 0.000210541)
(-0.000174145 -0.000619291 0.00555478)
(-1.25659e-05 0.00374543 0.00456045)
(-0.00290171 -0.00122918 0.00137156)
(-0.000942073 0.00334835 0.0119174)
(0.00466983 -0.00539084 5.67161e-05)
(-0.00396968 1.3703e-06 0.00329041)
(-0.00248703 0.0028622 0.00455108)
(0.00934486 -0.00100084 0.0017228)
(-0.00157053 -0.00140913 0.00820818)
(-0.00108389 -0.00327557 0.000182049)
(-0.00303096 -0.00346607 0.0098633)
(2.0592e-05 -0.00375047 0.00874701)
(-2.30961e-05 0.00160802 0.00866446)
(0.00332212 0.00164839 0.000495894)
(0.00308658 0.00242628 0.000988384)
(0.00267358 0.00315502 0.000495894)
(-0.00164602 -0.00201497 0.000199322)
(-0.00062018 -6.63451e-05 0.00562061)
(-0.00309095 9.07006e-05 0.00861656)
(0.00190284 0.00318306 0.00460571)
(0.000186429 -0.000936314 0.00163415)
(-0.000227528 -8.95914e-05 0.00160419)
(0.00107824 -0.00329362 0.00551498)
(-0.00144931 0.00315821 0.00261566)
(-0.00199956 -0.0016436 0.000410048)
(7.98999e-05 0.000956028 0.00680207)
(0.00238875 0.00303592 0.000196676)
(-0.00273153 0.00117262 0.00438069)
(-0.00309095 9.07006e-05 0.00743275)
(-0.0010618 0.000538492 0.00342556)
(-1.05861e-05 0.0163636 0.000157068)
(-0.00995724 0.00965065 0.00363047)
(0.00158575 -0.00329644 0.00187704)
(0.00184861 6.87818e-05 0.00137303)
(-0.00290171 -0.00122918 0.000208475)
(0.00304845 0.00339118 0.00465318)
(-0.00334041 -0.00328624 0.000202964)
(-0.00410646 1.06115e-05 3.62709e-05)
(-0.00334784 0.00175152 0.00459777)
(-0.000227528 -8.95914e-05 0.00163649)
(0.00167371 -0.00210564 0.000168509)
(0.00301109 0.00330192 0.00760536)
(-0.000386816 -0.000459066 3.63719e-06)
(-0.0025551 0.00303533 0.00365988)
(-0.000227528 -8.95914e-05 0.00192005)
(0.00161415 0.00319997 0.00604967)
(0.00314404 0.000652042 0.00351256)
(-0.00125444 -0.00295027 0.000200237)
(0.00238875 0.00303592 0.000194755)
(0.00288067 0.000958864 0.00439699)
(-0.00181254 -0.00130826 0.00367403)
(-0.00333053 -0.00322536 0.00707519)
(0.0012769 0.00288266 0.00818548)
(0.00280938 0.00344672 0.00395073)
(-2.67519e-06 -2.06747e-06 0.00154252)
(0.00269364 0.00317015 0.00395073)
(-0.00319571 0.00373786 0.0115716)
(0.00838851 -0.0166655 0.000158282)
(0.0030895 -0.000893971 0.00440453)
(0.00363666 -0.00114877 0.00851551)
(-0.00309848 -0.00126479 0.00444731)
(0.0164112 5.83887e-06 0.000151679)
(-0.00415102 1.3703e-06 0.00329041)
(0.000749096 -0.00216284 0.000808441)
(-0.0030825 -0.00126189 0.00444731)
(-0.00126548 -0.00301128 0.00443342)
(6.04948e-05 -0.00351251 0.0045252)
(-0.00163418 -0.00266606 0.0037188)
(-0.0163676 -0.00836539 0.00016255)
(-0.00406375 -0.000434284 0.000773827)
(-0.00289011 0.00083042 0.00438069)
(0.0012769 0.00288266 0.000188787)
(-0.000227528 -8.95914e-05 0.00212258)
(-0.00320401 0.00108266 0.00444312)
(-0.000227528 -8.95914e-05 0.00168822)
(0.00372024 1.4658e-05 0.00454357)
(-0.00309095 9.07006e-05 0.00220729)
(0.0033108 -0.00188843 0.000517636)
(-0.00126525 0.00304219 0.00622205)
(-0.00345326 0.00104452 0.00964797)
(-0.00164398 0.000517317 0.00909995)
(-0.000483346 0.0056673 0.00476131)
(0.000994752 -6.71002e-05 0.00683568)
(-0.00164398 0.000517317 0.00891605)
(-0.00367934 -0.00015781 0.00730926)
(8.34952e-07 -0.0164212 0.000141155)
(0.00485414 5.83887e-06 0.00330863)
(0.00306061 -0.00217363 0.0051155)
(-0.00436465 0.00828258 0.00344667)
(0.00168886 0.00275792 0.00441157)
(0.00341685 -0.00111383 0.0049163)
(-0.00862418 -0.00613347 0.00505398)
(-0.00050212 -0.00333142 0.00488048)
(0.00238875 0.00303592 0.00868327)
(2.0592e-05 -0.00375047 0.00817098)
(-0.00290171 -0.00122918 0.00783027)
(-0.00255144 0.00293311 0.0102475)
(0.00249901 -0.00317187 0.0001902)
(-0.00164398 0.000517317 0.00903901)
(0.00254883 -0.00274983 0.00508696)
(0.00285146 0.00126316 0.00666931)
(-0.00190693 -0.00275269 0.00443342)
(0.0037126 0.000105069 0.00898053)
(-0.00364289 -0.00086157 0.00356153)
(-0.00585478 -0.00668149 0.00456012)
(-0.00252008 0.00295165 0.00365988)
(0.00324306 -0.00325545 0.00463421)
(0.00672496 -0.0115826 0.00362166)
(0.00210512 -0.00175984 0.00133627)
(0.00301332 0.00268196 0.00460571)
(-0.00340084 -0.00257839 0.00458177)
(-0.0033821 -0.00338587 0.00459867)
(-0.00324249 0.00351418 0.000196835)
(-0.00285511 0.00119499 0.00630884)
(-0.00270926 -0.00186471 0.00444731)
(-0.00324681 9.07006e-05 0.00449327)
(0.000818918 -0.0027578 0.00187704)
(-1.25659e-05 0.00382755 0.00456045)
(0.00139386 -9.48918e-05 0.00821685)
(-0.00412322 4.79153e-05 0.00370026)
(-0.00331025 0.0146254 0.00559638)
(-0.00171516 -0.00315402 0.0018947)
(-0.00306319 0.0003798 0.00449327)
(0.00225681 0.00142071 0.00145854)
(0.0037126 0.000105069 0.00899667)
(0.00292448 -0.00124411 0.00440453)
(0.00281722 0.00125696 0.00439699)
(-0.00123908 0.00361811 0.00967755)
(0.00405265 5.83887e-06 0.00330863)
(-2.67519e-06 -2.06747e-06 0.00153104)
(-1.25659e-05 0.00331791 0.000906472)
(-0.00309095 9.07006e-05 0.0082944)
(0.000924579 -0.000303605 0.00191953)
(-0.00125444 -0.00295027 0.00226248)
(-2.19836e-05 -1.43544e-06 0.0016087)
(-0.00233263 -0.00290212 0.0102903)
(0.0028025 0.0012543 0.00439699)
(0.00210512 -0.00175984 0.000164851)
(-0.00301638 -0.00161962 0.000730949)
(-0.00964433 0.00954824 0.00363047)
(-0.00204752 0.000517317 0.0081253)
(-0.00309484 0.0012331 0.00438069)
(-0.00332932 -0.00322485 0.00459684)
(-0.00164057 -0.000545649 0.00700098)
(-0.00300225 -0.00298241 0.00458177)
(0.00291148 -0.00124176 0.00440453)
(-0.00260912 -0.00331372 0.0045877)
(0.00366336 0.00118837 0.000201891)
(-0.00126525 0.00304219 0.000175685)
(0.00363666 -0.00114877 0.000205625)
(0.00168219 -0.00275484 0.00439196)
(6.04948e-05 -0.00341929 0.0045252)
(-0.000269509 -0.00320562 0.0045252)
(0.000175122 -0.00175813 0.00683211)
(-1.25659e-05 0.00382057 0.00456045)
(-0.00157053 -0.00152058 0.00820818)
(-0.00313317 -0.00235481 0.00968502)
(-0.00123908 0.00361811 0.000231413)
(-0.00551385 -0.00628665 6.86432e-05)
(0.00349343 -0.00325397 0.00461631)
(0.00285146 0.00126316 0.00606266)
(-0.000515333 -0.00255002 0.00350269)
(9.77041e-05 0.00321117 0.00995533)
(-0.00321668 0.00281039 0.0083895)
(6.04948e-05 -0.00353708 0.0045252)
(-0.00337759 -0.0033751 0.00459867)
(-0.00305272 -0.0012565 0.00444731)
(-0.00125444 -0.00295027 0.000206474)
(0.00366687 1.4658e-05 0.00454357)
(-0.00108389 -0.00327557 0.00819721)
(0.00125781 -0.00288335 0.00289982)
(-0.00271039 0.00324742 0.00459777)
(-0.00273613 -0.00120286 0.00444731)
(-0.00255792 0.00307879 0.009062)
(0.000153912 0.00134031 0.00692636)
(0.0012769 0.00288266 0.00609946)
(-0.0026882 0.00116478 0.00438069)
(-0.00313317 -0.00235481 0.0091404)
(-0.00298115 0.00736749 0.00363047)
(8.34952e-07 -0.00416696 0.00333015)
(-0.00300625 -0.0012481 0.00444731)
(6.29951e-05 0.00375846 3.54378e-05)
(-1.25659e-05 0.00287832 0.00456045)
(-0.0029575 -0.00296334 0.0040948)
(-0.000597341 0.00173686 0.00920507)
(-0.000191611 0.000966037 0.00165307)
(-0.00319225 -0.000816994 0.00192889)
(-0.00270192 0.00116727 0.00438069)
(0.00309584 0.00260818 0.00386672)
(-0.0020129 -0.00346319 0.0045877)
(0.0035068 0.00311689 0.00102587)
(-1.05861e-05 0.0163636 0.000138224)
(-0.00324347 -0.000560794 0.000730949)
(0.00327487 0.00152141 0.00271881)
(-1.25659e-05 0.00383494 0.00456045)
(-0.00470503 0.00793169 0.00363047)
(-0.00229254 0.00137275 0.00365988)
(-0.000119597 7.48673e-05 0.00363617)
(-0.0163676 -0.00836539 0.00256384)
(0.00179774 0.00206494 0.00100777)
(0.00691456 -0.0171119 0.00362166)
(0.00363666 -0.00114877 0.00981543)
(0.00378623 -0.00307163 0.0102353)
(-0.00334542 -0.00335228 0.0114643)
(-0.000363256 0.00328424 0.00456045)
(-0.00230685 -8.04604e-05 0.00164273)
(-0.00119665 0.00335124 0.00490956)
(0.00164666 0.00365954 0.0021222)
(-0.00295525 -0.00256287 0.00377585)
(0.00358014 0.00298748 0.000519453)
(-0.00292922 9.07006e-05 0.00449327)
(0.00363666 -0.00114877 0.00976389)
(-0.00289157 0.00321043 0.0043426)
(0.00129217 -0.00309953 0.00439196)
(-0.00199956 -0.0016436 0.000754321)
(-0.00123813 0.00289233 0.0044022)
(0.00616777 0.00947867 0.00378033)
(0.00119907 -0.00158407 0.00817983)
(0.000110912 -0.00071606 0.00645681)
(-0.000191611 0.000966037 0.00165793)
(9.77041e-05 0.00321117 0.0107115)
(-0.0033929 -0.00341167 0.00459867)
(0.00354882 1.4658e-05 0.00454357)
(0.00178941 -0.00338674 0.00460544)
(0.00107031 -0.00290135 0.00439196)
(-0.00350926 -1.34606e-05 0.0103567)
(7.98999e-05 0.000956028 0.00677712)
(-0.000539305 0.00457098 0.000646409)
(-0.00135103 -0.000550899 0.00679943)
(0.00378623 -0.00307163 0.0100628)
(-0.00364289 -0.00086157 0.00353713)
(0.00182367 -0.00129968 0.00559489)
(6.04948e-05 -0.00352432 0.0045252)
(-0.00108389 -0.00327557 0.0095227)
(0.0012769 0.00288266 0.0087567)
(0.00365311 -0.000514523 0.0049904)
(0.0032336 0.00194073 0.000495894)
(0.00338647 1.4658e-05 0.00810345)
(0.0028229 -0.00122573 0.00440453)
(-0.00309095 9.07006e-05 0.00759758)
(-0.00260908 -0.00331357 0.0045877)
(-0.00335765 0.00129275 0.00548988)
(-3.38822e-06 7.55068e-06 0.00105752)
(-0.0117138 0.00261638 0.00597434)
(0.00123329 -0.00274786 0.00439196)
(-0.000535186 0.00368569 0.00490956)
(0.00053765 -0.00154228 0.0090142)
(-0.00410646 1.06115e-05 3.49072e-05)
(0.00339242 -0.00237009 0.00557918)
(0.00314067 0.00317233 0.00465318)
(-0.000789848 0.000443061 0.00115443)
(0.00285146 0.00126316 0.00873666)
(-0.00410646 1.06115e-05 0.00143126)
(-0.00145009 0.0022543 0.00387053)
(0.0037126 0.000105069 0.00986453)
(0.0037166 -0.00192335 0.00381049)
(-0.00331025 0.0146254 0.00578178)
(0.00190392 0.00292696 0.00550268)
(0.00223909 -0.0028166 0.00508696)
(-0.00268919 0.00344394 0.00514969)
(1.44739e-05 -0.0039247 0.00351581)
(-0.00345326 0.00104452 0.00925928)
(-0.000528164 -0.000550899 0.00679943)
(0.00307255 0.00109444 0.00485302)
(0.000924579 -0.000303605 0.00207988)
(-0.00248487 0.00286751 0.00365988)
(-0.00420278 1.3703e-06 0.00329041)
(-0.00285511 0.00119499 0.000175049)
(-0.000743025 0.000538492 0.00172077)
(-0.0029038 9.07006e-05 0.00449327)
(-0.00287997 0.000935945 0.00438069)
(-0.000515333 -0.00182011 0.0017502)
(-0.00167044 -5.03961e-05 0.00178315)
(-0.00406378 0.000455207 0.000773827)
(0.00299378 0.000712593 0.000808685)
(0.00344265 0.00182817 0.00371776)
(-0.000743025 0.000538492 0.00184437)
(0.00301109 0.00330192 0.000177657)
(0.000604937 0.00370644 0.000830396)
(-0.00124093 0.00290781 0.0044022)
(-0.000565822 0.00134031 0.00692636)
(0.00175108 -0.000476414 0.00686112)
(-0.00271233 0.00166648 0.00438069)
(0.0067055 -0.0115231 0.00362166)
(-0.00346392 0.00266539 0.00459777)
(0.000924579 -0.000303605 0.00171331)
(-0.0033228 9.07006e-05 0.00449327)
(-0.00350926 -1.34606e-05 0.00979348)
(-0.00192969 -0.00899588 7.7177e-05)
(0.00197294 -0.00135268 0.000211948)
(-0.000227528 -0.000230526 0.00382871)
(-2.30961e-05 0.00160802 0.00863758)
(-0.00316685 -0.00333018 0.00511924)
(0.00355078 -0.000727888 0.00330009)
(-4.96974e-05 0.00149642 0.00185262)
(0.00142167 -0.0014227 0.00817983)
(0.00179774 0.00206494 0.000454062)
(0.000931967 0.00291578 0.00441157)
(-1.05861e-05 0.00562588 0.00328622)
(-0.0020642 -0.00295959 0.0109887)
(0.00305521 0.00324313 0.00569386)
(0.00349271 -0.00325367 0.00461631)
(0.00452869 5.83887e-06 0.00330863)
(0.00238875 0.00303592 0.00897752)
(0.00314882 -0.00334969 0.000487223)
(0.00535972 -0.000585839 0.00272776)
(-0.0057725 0.00122678 3.27333e-05)
(-0.00125444 -0.00295027 0.00172326)
(0.00285146 0.00126316 0.000811609)
(0.003568 0.00280577 0.00386672)
(8.34952e-07 -0.0058229 0.00333015)
(0.001671 1.41459e-05 0.00197243)
(0.00308545 -0.000936146 0.00440453)
(-0.00330917 9.07006e-05 0.00449327)
(0.00328627 0.00176679 0.000495894)
(0.000844136 9.84217e-05 0.00549906)
(0.00104023 -0.00113061 0.0014891)
(-0.00125444 -0.00295027 0.000178998)