/*--------------------------------*- C++ -*----------------------------------*\
| =========                 |                                                 |
| \\      /  F ield         | OpenFOAM: The Open Source CFD Toolbox           |
|  \\    /   O peration     | Version:  plus.master.MPPICInterFoam            |
|   \\  /    A nd           | Web:      www.OpenFOAM.com                      |
|    \\/     M anipulation  |                                                 |
\*---------------------------------------------------------------------------*/
FoamFile
{
    version     2.0;
    format      ascii;
    class       vectorField;
    location    "12.4/lagrangian/kinematicCloud";
    object      U;
}
// * * * * * * * * * * * * * * * * * * * * * * * * * * * * * * * * * * * * * //


2408
(
(0.000711504 -0.000761432 -0.0513213)
(0.000744815 -0.000932474 -0.0516851)
(0.000910036 -9.39445e-05 -0.0537179)
(0.000566481 -0.000110874 -0.0539402)
(0.000585535 -0.000902495 -0.0510894)
(0.000756682 8.43519e-05 -0.0547538)
(0.000813574 6.86745e-05 -0.0539287)
(0.000574268 -0.000197554 -0.0546331)
(8.28909e-05 0.000810139 -0.0530997)
(0.000879686 1.71498e-05 -0.0531214)
(0.002619 -0.000327724 -0.0506489)
(0.000718203 7.1384e-05 -0.0552367)
(0.000507004 -0.000154778 -0.0533829)
(0.000726247 0.000103474 -0.053566)
(0.000778634 8.32415e-05 -0.0549089)
(0.00126607 0.000471004 -0.0557889)
(0.00076963 6.74055e-05 -0.0555118)
(0.00073681 7.44087e-05 -0.0531417)
(0.000894452 -3.14982e-05 -0.0545649)
(0.000938634 -2.2018e-05 -0.0544984)
(0.000594167 -0.000889573 -0.0526234)
(0.000528786 -0.000239696 -0.0533886)
(0.000613258 -5.34082e-05 -0.0536418)
(0.000737194 7.33858e-05 -0.0531036)
(0.00120493 0.000522294 -0.055086)
(0.000841997 -3.41094e-05 -0.0546011)
(0.000520025 -0.000146172 -0.0532624)
(0.000537653 -0.000280292 -0.0545029)
(0.000620252 -0.00028881 -0.0553771)
(0.00118702 0.000520683 -0.0551078)
(0.00109306 -0.00100693 -0.052438)
(0.00253026 0.00104935 -0.0531738)
(0.00120419 0.000639596 -0.0535187)
(0.00117904 0.000619527 -0.0549625)
(0.000765271 7.50334e-05 -0.0545241)
(0.00148655 -0.000291663 -0.05415)
(0.000787788 7.50512e-05 -0.0564426)
(0.000502759 -0.000289425 -0.0533739)
(0.000542378 -0.000861654 -0.0512379)
(0.00120777 0.00063059 -0.0536375)
(0.00124549 0.000667415 -0.0572168)
(0.00234906 0.000494268 -0.0533315)
(0.000683644 0.000188107 -0.0547438)
(0.00137018 -0.000647834 -0.0518021)
(0.00120067 -0.000930153 -0.0524328)
(0.00143736 -0.000569488 -0.0526268)
(0.000704805 8.35716e-05 -0.0531301)
(0.00121046 0.000602011 -0.0541461)
(0.000835578 -2.99641e-05 -0.0547398)
(0.0028212 -0.000285134 -0.052174)
(0.0014695 -0.000305702 -0.0541229)
(0.000441072 3.88989e-05 -0.0526733)
(0.0012973 0.000445428 -0.0552782)
(0.00150914 0.000128643 -0.0557196)
(0.000667551 9.85113e-05 -0.0540149)
(0.00141594 -0.000327155 -0.0532407)
(5.83073e-05 0.000558926 -0.0575544)
(0.00148634 -0.000329718 -0.0547767)
(0.000515592 -0.000756018 -0.0529133)
(0.000720393 -0.00104409 -0.0535676)
(0.000836827 1.60776e-05 -0.0555427)
(0.00145891 0.00036006 -0.0544763)
(0.000490777 2.26031e-06 -0.0521321)
(0.00105013 -0.000287232 -0.0517567)
(0.00135033 0.000477632 -0.0537555)
(0.000435043 -0.000144352 -0.0522089)
(0.00123322 0.000467498 -0.0547023)
(0.0014498 -0.000633247 -0.0537696)
(0.000459028 -0.000615484 -0.0532453)
(0.00144228 -0.000317347 -0.0543137)
(0.000161687 0.00067801 -0.0581877)
(0.00125073 0.000504027 -0.0543374)
(0.00144899 -0.000478858 -0.0544866)
(0.00119357 0.00059011 -0.0544427)
(6.38232e-05 0.000528168 -0.0581797)
(0.000872499 0.00071397 -0.0573848)
(0.0022752 0.000527138 -0.0536738)
(0.00311568 -7.58615e-05 -0.0539145)
(0.00123461 -0.000941283 -0.0541751)
(0.00145382 8.47482e-05 -0.0550745)
(0.00101562 -0.000903494 -0.0528652)
(0.000519349 7.41802e-05 -0.0557925)
(0.00232734 0.000771016 -0.052622)
(0.00119823 0.000473497 -0.054927)
(0.000847925 3.45483e-05 -0.0553858)
(0.000989716 -0.0001437 -0.0563675)
(0.000819224 -5.92034e-05 -0.0559924)
(0.00241994 0.000950539 -0.0525543)
(0.000640201 5.27164e-05 -0.0542356)
(0.00156104 -0.000350018 -0.0530819)
(0.000561417 5.06807e-05 -0.0572882)
(0.000170316 0.000608298 -0.0546126)
(0.000833282 7.01848e-06 -0.0561542)
(0.000933341 1.8819e-05 -0.0562868)
(0.00236671 0.000900561 -0.0522112)
(0.00142446 -0.000595958 -0.0544342)
(0.00139922 -0.000571082 -0.0531991)
(0.000575886 -0.000246508 -0.0543686)
(0.000622867 0.000240458 -0.0556044)
(0.000691935 9.67777e-05 -0.0527182)
(0.000706705 6.31193e-05 -0.0569566)
(0.00102473 -0.000272741 -0.0526226)
(0.00146151 -0.000444994 -0.0544944)
(0.000679266 8.54674e-05 -0.0526232)
(-5.58926e-05 0.000804154 -0.0554508)
(0.00111435 -0.000937089 -0.0519733)
(0.000490237 -0.000732313 -0.049356)
(0.00119241 0.000473072 -0.055164)
(0.00145798 -0.000553303 -0.0553189)
(0.000731621 -3.2114e-05 -0.0571439)
(0.000902233 -5.16159e-05 -0.0517708)
(0.00120537 0.000568839 -0.053954)
(0.000819569 4.18068e-05 -0.0536087)
(0.00151427 0.000127232 -0.0578213)
(0.000536459 8.93843e-05 -0.0573596)
(0.00205155 0.000405592 -0.0518721)
(0.00241054 0.000843565 -0.0532273)
(0.00137104 -0.000700221 -0.0540888)
(0.00117404 0.000541278 -0.0558231)
(0.000606784 9.20171e-05 -0.0571087)
(0.000856122 7.79499e-05 -0.0576344)
(0.00124702 -0.000980625 -0.0539857)
(0.000850639 -2.53345e-05 -0.0545928)
(0.000618605 0.000111787 -0.054246)
(0.00142119 -0.00064451 -0.0550639)
(0.00149547 0.000333107 -0.056117)
(0.000998367 -0.000264213 -0.0549503)
(0.000970547 -8.45511e-05 -0.0559564)
(0.000578766 -0.000767968 -0.0547352)
(0.00125599 -0.000889831 -0.0544876)
(0.000736556 7.92024e-06 -0.0544109)
(0.000952773 0.000697689 -0.0574629)
(0.00124893 -0.000944176 -0.0549781)
(0.00139002 -0.000666024 -0.0540691)
(0.00124566 -0.000929611 -0.0546505)
(0.00117429 0.000483923 -0.0545083)
(0.00144127 0.000797073 -0.0549359)
(0.00125252 -0.000941385 -0.0552348)
(0.0014292 0.000172524 -0.0559594)
(0.000801872 5.11449e-05 -0.0582818)
(0.000485656 -0.000741009 -0.0515619)
(0.0013237 -0.000692447 -0.0520846)
(0.000479414 -0.000723939 -0.0538245)
(-0.00081972 0.00144267 -0.0566468)
(0.00468539 0.000818771 -0.0520984)
(0.00086242 -0.000983523 -0.0537742)
(0.000412963 -0.000163153 -0.0536361)
(0.000619838 -0.000816654 -0.0553747)
(0.000943348 -0.000927462 -0.0536943)
(0.00143856 0.000200065 -0.0553288)
(0.00151594 -0.000269148 -0.0556457)
(0.00125347 -0.000894887 -0.0546158)
(0.000884728 -6.53029e-05 -0.0577596)
(0.000478696 2.74436e-05 -0.0544154)
(0.000893848 0.000736083 -0.0546678)
(0.000739108 4.89744e-05 -0.0560799)
(0.000427877 6.10183e-06 -0.0533062)
(0.00141785 -0.000623973 -0.0547709)
(0.000875756 -0.000905242 -0.0545049)
(-8.16021e-05 0.000784721 -0.0558812)
(0.000735805 1.22797e-05 -0.0549681)
(0.000565939 1.68057e-05 -0.0540129)
(0.00102214 -0.000990866 -0.0541222)
(0.00143149 0.000975873 -0.0546185)
(0.00084244 -0.000888058 -0.0545774)
(0.000761403 1.96606e-05 -0.0547549)
(0.00131196 0.00058896 -0.0586459)
(0.000679965 9.73352e-05 -0.053608)
(0.000992055 -0.000156554 -0.0540593)
(0.00139074 -0.000601825 -0.0543233)
(0.000945874 -0.000110768 -0.0543222)
(0.000833709 5.53006e-05 -0.0549122)
(0.000815775 7.38033e-06 -0.0552185)
(0.00291234 -5.48424e-05 -0.0536889)
(0.000549066 -0.000319163 -0.0552641)
(0.00143866 -0.000530755 -0.0538864)
(0.00124518 -0.000870454 -0.0544657)
(0.00142732 -0.00110291 -0.0555094)
(0.000537286 -2.5312e-05 -0.0567423)
(0.000489798 3.00521e-05 -0.0521763)
(0.000557287 -0.000371617 -0.0553367)
(0.00145207 0.000808971 -0.0551637)
(0.00139976 -0.000670421 -0.0549217)
(0.00149317 -0.000350513 -0.0556119)
(0.000331515 -0.00072509 -0.0544904)
(0.000747271 -0.000787931 -0.0536045)
(0.00142603 -0.000975753 -0.0546644)
(0.000630399 0.000100058 -0.0570402)
(0.00034488 -0.000307961 -0.0531337)
(0.000472524 -0.000286552 -0.0550651)
(0.000369432 0.000113503 -0.0524858)
(0.00143073 -0.00108464 -0.055709)
(0.000535543 -0.000293683 -0.0552786)
(0.000713515 0.000178982 -0.0523886)
(0.00105861 0.000637207 -0.0578316)
(0.000680663 0.000229739 -0.0520292)
(0.000880863 4.16936e-05 -0.054563)
(0.000496283 -0.000674103 -0.0513359)
(0.00140105 -0.000676944 -0.0553128)
(0.000948235 -1.69785e-05 -0.0548162)
(-7.0102e-05 0.000884537 -0.058269)
(0.000814346 -4.94573e-05 -0.0591354)
(0.000440678 -0.000699318 -0.0524327)
(0.000914222 -0.00107333 -0.0530622)
(0.00142697 -0.00108824 -0.0549044)
(0.000664694 3.295e-05 -0.0533184)
(0.00130563 -0.00071433 -0.0558816)
(0.000566093 4.67255e-05 -0.0547525)
(0.000949091 -7.68809e-05 -0.0561163)
(0.000547035 -0.00081964 -0.0524888)
(0.000436075 -0.000236426 -0.0547558)
(0.000555312 -0.000396559 -0.0560007)
(0.000726959 -0.000886895 -0.0550724)
(0.00143045 0.000199094 -0.0554922)
(0.0014346 -0.000657884 -0.0562004)
(0.000839676 -0.000884557 -0.052458)
(0.00065024 -0.000880822 -0.0556869)
(0.00052397 -0.000318102 -0.0552859)
(0.00121918 -0.000862505 -0.0545579)
(0.00127851 -0.000822537 -0.0549635)
(-9.09025e-05 0.000877764 -0.058934)
(0.00088798 -0.000937071 -0.05239)
(-0.000590687 -0.00013492 -0.0568816)
(0.000886272 -0.000934034 -0.0531326)
(0.000970893 -0.000113511 -0.0534978)
(0.00150517 0.000131888 -0.0580757)
(0.00116794 -0.000956938 -0.0540242)
(0.00044274 -4.53924e-05 -0.053741)
(0.000474435 0.000248483 -0.0513554)
(0.000615661 -0.000740396 -0.0541095)
(0.00147927 -0.000338451 -0.0556991)
(0.00148171 -0.000332873 -0.0551344)
(0.00149731 -0.000349176 -0.0552638)
(0.00066947 0.000100951 -0.0551306)
(0.00135366 0.000560968 -0.0564166)
(0.00141856 0.001073 -0.0549246)
(0.000556278 -0.000465131 -0.0563167)
(0.000912348 -0.000897932 -0.0541628)
(0.00110904 0.00064304 -0.0568627)
(0.00153308 0.000246937 -0.0557782)
(0.000469645 -2.01135e-05 -0.0515073)
(-0.000547616 -8.05189e-05 -0.0560691)
(0.00129751 -0.000691375 -0.0558391)
(0.00152201 0.000957809 -0.0561518)
(0.000188072 0.000682241 -0.0570106)
(0.00105825 -0.000962395 -0.0525141)
(0.00141329 -0.000631392 -0.0531411)
(0.000372187 -2.64495e-05 -0.0524859)
(0.00116157 0.000435384 -0.0542321)
(0.000999227 -0.00109349 -0.0567678)
(0.00144474 -0.000579832 -0.0551023)
(0.000799878 -8.19233e-05 -0.0588146)
(0.00127496 0.000470948 -0.0526382)
(0.00147405 -0.000299625 -0.0556926)
(2.03765e-05 0.000884839 -0.0575225)
(0.000566427 -0.000881721 -0.0529252)
(0.002652 -8.8562e-05 -0.0529643)
(0.000631346 0.000668958 -0.0575782)
(0.000334042 -0.000675748 -0.0543533)
(0.00022066 0.000721016 -0.0566686)
(0.000955293 -9.75217e-07 -0.055669)
(0.00138859 -0.000607514 -0.0548438)
(0.000506806 -0.000802692 -0.0544247)
(0.000623578 6.25679e-05 -0.0525946)
(0.000511911 -5.81071e-05 -0.0570995)
(0.00116847 0.000613658 -0.0551128)
(0.000188459 0.000704235 -0.0565646)
(0.000185957 0.000633008 -0.0578761)
(0.00132525 -0.000558532 -0.0513669)
(-0.0004793 3.64834e-05 -0.0561027)
(0.000781812 -0.000956348 -0.0559929)
(0.00049484 -4.77155e-05 -0.0569175)
(0.00150318 -0.000211734 -0.0566943)
(0.000996608 -0.000260491 -0.0554541)
(0.000561764 -0.000754389 -0.0549729)
(0.000810156 3.57742e-06 -0.0538333)
(0.0012751 -0.000598985 -0.0547328)
(0.00125184 -0.000832377 -0.0553067)
(0.00150406 0.000577804 -0.0574079)
(0.00113834 0.000634718 -0.0528965)
(0.00145985 -0.000384099 -0.0568606)
(0.000603196 -0.000608928 -0.056839)
(0.000773566 -9.27009e-05 -0.0581909)
(0.00072391 -0.000979117 -0.0513159)
(0.000313796 -3.52824e-05 -0.0527036)
(0.00109959 -0.000941999 -0.0542485)
(0.00058991 -0.000727053 -0.0558817)
(0.000748513 -1.72258e-05 -0.0524209)
(0.000504075 -0.000335827 -0.055066)
(0.00117652 -0.00101264 -0.0572245)
(0.000884783 -3.45948e-05 -0.0571586)
(0.00054956 -0.000359597 -0.0562972)
(0.00144849 -0.000590866 -0.0561253)
(0.000681803 -7.89016e-05 -0.0559286)
(0.00125034 -0.000656786 -0.0525362)
(0.000725678 9.47588e-05 -0.0514225)
(0.00049333 -0.000186998 -0.0560714)
(0.0014632 -0.000304161 -0.0557307)
(0.000778842 -0.000961111 -0.0562696)
(0.00146054 -0.000256674 -0.0571862)
(0.000806228 1.79909e-05 -0.0555351)
(0.000211449 0.000681652 -0.0575722)
(0.00153449 0.000265256 -0.0558674)
(0.000658738 7.66357e-07 -0.0558739)
(0.00124904 -0.000667755 -0.052765)
(8.82632e-06 0.000215128 -0.051284)
(0.00141926 -0.000867567 -0.0544813)
(0.00144446 -0.000456333 -0.0545741)
(0.00119752 -0.000995911 -0.0572111)
(0.000258388 0.000732129 -0.0556069)
(0.00112015 0.000615733 -0.0581052)
(0.000439465 -0.000309491 -0.0551886)
(0.000718839 -0.000816994 -0.0543676)
(0.000553382 -0.000777761 -0.0561286)
(0.000635239 0.000714225 -0.0564314)
(0.000178014 -0.000900175 -0.0551312)
(0.000764244 -0.000819105 -0.052544)
(0.000618204 5.31555e-05 -0.0523756)
(0.00140868 -0.000935789 -0.0566281)
(0.00129519 -0.000607804 -0.0545313)
(0.00128562 -0.000621555 -0.0555836)
(0.000689874 5.85907e-05 -0.0554964)
(0.00147325 -0.000551059 -0.0564819)
(0.000898189 -0.000920199 -0.0564137)
(2.32568e-05 0.00071719 -0.0591678)
(0.000904162 -0.000886326 -0.0534862)
(0.000807604 4.76289e-05 -0.0560051)
(0.000294544 -0.000608307 -0.0560477)
(0.000711834 -0.000938152 -0.050883)
(0.000749725 -7.06791e-06 -0.0532657)
(0.000502887 -0.000215335 -0.0560321)
(0.00116098 0.000555613 -0.0550621)
(0.000278191 -0.00020148 -0.0527076)
(0.000933691 -0.000858029 -0.0521357)
(0.000670224 -0.000619273 -0.053783)
(0.00104366 0.000687648 -0.0533082)
(0.0011586 0.000493732 -0.0553652)
(0.000613952 -0.000704884 -0.0551534)
(0.0011551 0.000563097 -0.0553952)
(0.000550364 -0.000538435 -0.0565686)
(0.000641154 -4.45316e-05 -0.0539797)
(-5.49497e-05 0.000557149 -0.0572427)
(0.000628227 -3.04194e-05 -0.0598526)
(0.000545933 0.00074902 -0.0542688)
(0.00142182 -0.000387494 -0.0558513)
(0.00148284 -5.92763e-05 -0.0563724)
(0.001147 -0.000311652 -0.0547838)
(0.000103819 -0.000903188 -0.0547152)
(0.000745962 3.65006e-05 -0.0541744)
(0.00149908 -0.000287755 -0.0542271)
(0.000784272 -0.00100806 -0.0574222)
(0.00115272 -0.000878442 -0.0554286)
(0.0013028 -0.00068219 -0.0533659)
(0.000523841 0.000398668 -0.0532881)
(0.00140582 -0.000663629 -0.0578836)
(-0.000234665 -0.000393535 -0.0555499)
(0.00137218 -0.000564664 -0.0536193)
(0.00124778 -0.000533417 -0.0566047)
(0.000528936 -0.000312442 -0.0564548)
(0.00053595 -0.000376885 -0.0563876)
(0.000494332 -0.000167637 -0.0561233)
(0.00153721 0.000735572 -0.0562334)
(0.00139267 -0.00070961 -0.057497)
(0.000609819 7.90432e-05 -0.055702)
(0.000567362 3.72652e-06 -0.0561285)
(0.00100343 0.000675389 -0.0606753)
(0.00109031 -0.000750009 -0.0516945)
(0.000861101 -0.000837621 -0.0531837)
(0.000472251 -0.000230279 -0.0551792)
(0.000543964 -0.000363456 -0.0567113)
(0.000530987 7.82092e-06 -0.0562346)
(0.00139206 -0.000669813 -0.0566361)
(0.000312721 -0.000174122 -0.0530308)
(0.00111864 -0.000350435 -0.0529237)
(-0.00016339 0.000398179 -0.057436)
(-0.000284031 -0.000970887 -0.0583105)
(0.00108894 -0.000341641 -0.0574119)
(6.44135e-06 0.000663336 -0.0565242)
(0.00150586 0.000241437 -0.0567069)
(0.00140826 -0.00062937 -0.05637)
(0.00140236 -0.000623961 -0.0563331)
(0.00129584 -0.000554589 -0.052231)
(0.000311988 -0.000184024 -0.052898)
(0.00060182 4.15289e-05 -0.051437)
(0.000505199 -0.00031719 -0.0560347)
(0.00135059 0.000321253 -0.0577989)
(0.000642547 -0.00084735 -0.0525781)
(0.000555921 -0.000519329 -0.0549756)
(0.000467118 -0.000652083 -0.0551722)
(0.00124376 -0.000659789 -0.0526039)
(-0.000572201 -0.000215714 -0.0569235)
(0.00135765 -0.000599463 -0.0551306)
(0.000515616 -0.00028092 -0.056514)
(0.000882486 -5.94093e-05 -0.0553444)
(0.000616079 -0.000655268 -0.0552836)
(0.00127486 -0.000917638 -0.057407)
(0.0014067 -0.000656655 -0.057064)
(0.00144191 -0.000372624 -0.057126)
(0.00151073 0.000121959 -0.0568731)
(0.000587602 -0.000746344 -0.0529535)
(0.00124606 -0.000518611 -0.0558203)
(0.000865149 -1.58814e-05 -0.0536553)
(0.00109679 -0.000989329 -0.0568406)
(0.00102481 -0.000155582 -0.0558617)
(0.000471099 -6.98444e-05 -0.0553154)
(0.00052199 -0.000361619 -0.0564342)
(0.000882789 -0.000950562 -0.0556204)
(0.0014505 -0.000496789 -0.0563192)
(0.000304365 -0.000907669 -0.0565275)
(0.00173554 0.00114134 -0.0511428)
(0.000658201 -0.000906015 -0.0538761)
(0.000383733 -6.51069e-05 -0.0538273)
(0.00115758 -0.000845264 -0.0552057)
(0.000842859 -1.02809e-05 -0.0541854)
(0.000496218 -2.63552e-05 -0.0588624)
(0.000330584 -0.000575048 -0.0488666)
(-0.00057177 -0.000147343 -0.0571701)
(0.00142434 -0.000767565 -0.0522264)
(0.00100926 -0.00088226 -0.054259)
(0.00146356 -7.56566e-05 -0.0566675)
(0.000852026 -0.000791537 -0.0538579)
(0.0014452 -0.00059244 -0.0572292)
(0.00117244 -0.000812018 -0.0549185)
(0.00144702 -0.000253182 -0.0549572)
(0.00104343 -0.000948922 -0.0556638)
(2.47034e-05 0.000597427 -0.0570504)
(0.000461077 -0.00029962 -0.0550007)
(0.000466795 -0.000352907 -0.055566)
(0.00149962 -0.000135582 -0.0549163)
(0.00140991 -0.000306165 -0.0560791)
(-0.00154669 0.000963764 -0.0533252)
(0.00148695 0.000953088 -0.0571731)
(0.0008118 -7.13814e-06 -0.0546876)
(0.000208162 0.000598296 -0.0576726)
(-0.000561133 -0.000165626 -0.0572635)
(0.00125356 0.000404875 -0.0526201)
(0.00123345 -0.000843405 -0.0562084)
(0.00150224 -9.86408e-05 -0.0548256)
(0.000502447 -0.000224872 -0.0567428)
(0.00056592 -0.000186134 -0.0563003)
(0.000712452 -0.000864159 -0.0567592)
(-0.000521962 -0.000236865 -0.0579114)
(0.00148707 -9.53669e-05 -0.0558506)
(0.00049918 1.60973e-05 -0.0564661)
(0.000585978 -0.000427886 -0.0576693)
(0.00141927 -0.00060207 -0.0570162)
(0.00053706 -0.000690757 -0.054635)
(0.00116933 -0.000802636 -0.0549792)
(0.00329503 0.000261397 -0.0563216)
(0.00146289 -0.000249929 -0.0581894)
(0.000956396 -4.40999e-05 -0.0549698)
(0.000581165 -0.000388235 -0.0581376)
(0.00125043 -0.000599782 -0.0524385)
(0.00106146 0.000709318 -0.0547574)
(0.000400322 1.27986e-05 -0.054827)
(0.00114797 0.000535836 -0.0558249)
(0.00121862 0.000454293 -0.0559675)
(0.00115247 -0.000705267 -0.0528691)
(0.000647047 -0.000883942 -0.0582508)
(0.0013732 0.000313876 -0.0564981)
(-0.000423677 5.85443e-05 -0.0594725)
(0.00062102 -0.000831535 -0.057247)
(3.31421e-05 -0.000936537 -0.0571889)
(-0.000453327 -0.000226801 -0.0569379)
(0.00120133 -0.000303097 -0.0519634)
(0.00104672 -0.000895688 -0.0549248)
(0.000460078 -0.000348038 -0.0554857)
(4.26106e-05 0.000591815 -0.0569958)
(0.0015038 5.12416e-05 -0.058907)
(0.00082501 -0.000925261 -0.0540067)
(0.00105653 -0.000148798 -0.0528546)
(0.00121699 0.000455716 -0.0554956)
(0.00148189 -9.77824e-05 -0.0550931)
(0.000561011 9.65286e-05 -0.0552894)
(0.0013753 -0.000632999 -0.0573087)
(0.0013578 0.000403957 -0.0573926)
(0.000438782 -0.000278283 -0.0558271)
(0.00101957 -0.00097598 -0.0562971)
(0.000520213 -0.000453915 -0.0577176)
(0.00149072 9.83992e-05 -0.0562585)
(0.000578374 -0.000365095 -0.0577479)
(0.000806115 0.000725817 -0.0569699)
(0.0001833 -9.2957e-05 -0.0518641)
(0.000510415 -0.000647265 -0.0527681)
(-0.000264656 8.32011e-05 -0.0557949)
(0.00117031 -0.000268405 -0.0527755)
(0.000512869 -0.00070647 -0.0548139)
(0.000707893 -0.000941851 -0.0583542)
(-0.000435507 0.000109317 -0.0586862)
(0.00016534 -0.000757915 -0.0556651)
(0.000767639 -0.000898624 -0.057271)
(0.000631375 -0.000816907 -0.0585962)
(-0.000705087 0.000501508 -0.0524089)
(0.00112035 -0.000328283 -0.0519798)
(-0.000484308 -0.00019337 -0.057814)
(0.00116874 -0.000266965 -0.0529174)
(0.00146825 -0.000153514 -0.054424)
(0.00141641 -4.17856e-05 -0.0556281)
(0.000513384 0.000776758 -0.0529769)
(0.000582489 -0.000716834 -0.0575165)
(-0.000573047 -0.00027409 -0.059708)
(0.000516994 -0.000180837 -0.0583649)
(-3.08451e-05 -0.00118965 -0.0579028)
(0.000630364 -0.000198906 -0.0544186)
(0.000612186 -0.000765204 -0.0571369)
(0.00137083 -0.000627272 -0.0553546)
(0.000451613 -0.000332825 -0.0557408)
(0.00124036 0.000383199 -0.0552508)
(0.00140632 -0.000377013 -0.0554346)
(0.00126644 -0.000697765 -0.0554111)
(0.00057049 -0.000711818 -0.0572394)
(0.000869169 5.419e-05 -0.0539093)
(0.000749085 -0.000892107 -0.0510142)
(0.000267196 -0.000306994 -0.0532632)
(0.000979485 -7.82747e-06 -0.0515882)
(0.00142059 -0.000272739 -0.056033)
(0.00103551 -0.000991882 -0.0574416)
(0.00113537 -0.000347909 -0.0569031)
(0.0014401 -0.000570642 -0.0579857)
(0.00132013 0.00044095 -0.0591117)
(0.000517948 -0.000719204 -0.0550325)
(0.000464151 -0.000274251 -0.0553535)
(0.0012914 0.000344327 -0.0560549)
(-0.000468914 0.000108165 -0.0552904)
(0.000509107 -0.000634063 -0.0557773)
(0.000797844 -2.64946e-05 -0.053588)
(-0.000482346 -0.000439762 -0.0593331)
(0.000591098 -0.000338071 -0.0574587)
(0.00120483 0.000438991 -0.0531298)
(0.000858295 -0.000857457 -0.0544016)
(0.00122166 0.000306329 -0.0537002)
(0.00110949 -0.000923554 -0.0566481)
(0.000221515 -0.00134639 -0.0556861)
(0.00141149 0.000239678 -0.0547541)
(0.000834934 -0.000929984 -0.0568365)
(4.27759e-05 0.000511989 -0.0571672)
(6.97808e-05 0.000627422 -0.0564563)
(0.000831325 2.74135e-06 -0.0565289)
(0.000276568 -0.000203537 -0.0531605)
(0.000365066 -6.33379e-05 -0.0534083)
(0.000336084 -5.02301e-05 -0.0539869)
(0.00037567 -7.90184e-05 -0.0541864)
(0.00112398 -0.00031843 -0.0538827)
(0.000702735 -0.000833767 -0.0556092)
(0.000533828 -0.000460236 -0.057584)
(0.001066 -0.000953046 -0.0570359)
(0.00478227 0.000807336 -0.0561646)
(0.00144669 4.69985e-05 -0.0564049)
(0.00110081 -0.000989265 -0.0582006)
(0.000173055 -0.00132975 -0.0595625)
(0.00103795 -0.000803007 -0.0529334)
(0.000854537 -0.000689341 -0.050941)
(0.00139334 -1.33875e-05 -0.0522317)
(0.00088822 4.98087e-05 -0.0520307)
(0.0011913 0.000469882 -0.0521377)
(0.0011211 -0.000225759 -0.0532479)
(0.00108036 -0.000173946 -0.0529368)
(0.000507039 -0.000399941 -0.0574964)
(0.00141299 -0.000410059 -0.0556093)
(0.000492024 -0.000252163 -0.0576351)
(0.000332191 0.000699456 -0.0554865)
(-0.000403698 7.76945e-05 -0.0602395)
(0.000580041 4.23404e-05 -0.0514733)
(0.00136384 -0.000613438 -0.0561413)
(0.00048274 -0.0004098 -0.0557618)
(0.000436593 -0.000333754 -0.0563883)
(0.00131498 -0.000659453 -0.0554078)
(0.00121868 -0.00127586 -0.0579374)
(0.00124666 0.000280037 -0.0557501)
(0.000844591 -7.13879e-06 -0.0560085)
(0.00135861 0.000403081 -0.0581762)
(0.000354061 -0.000181923 -0.052847)
(0.0013216 -0.000581082 -0.0549398)
(0.000488354 -0.000330089 -0.0571307)
(0.00121096 0.000592508 -0.0563288)
(-0.000420491 8.38211e-05 -0.0562027)
(0.00134529 0.000282369 -0.0570234)
(-0.000325214 -0.00072147 -0.0603771)
(0.000607722 -3.06427e-05 -0.0576719)
(0.000426599 -0.000107524 -0.0528572)
(0.00109351 0.000701766 -0.0528959)
(0.000445033 -0.000300544 -0.0563112)
(0.00118793 -0.000800666 -0.0562627)
(0.000734418 -1.29382e-05 -0.0540801)
(-0.000235135 -0.000978999 -0.0583583)
(0.00144473 -0.000486548 -0.0573026)
(0.000305899 -0.000995786 -0.0586366)
(0.000412137 -0.000584685 -0.0549617)
(0.000394097 -0.000212852 -0.0549843)
(0.000414711 -6.06915e-05 -0.0531351)
(0.000485755 -0.00064036 -0.0543274)
(0.00137207 0.000221776 -0.0522023)
(0.00126494 -0.000553217 -0.0530073)
(0.00111582 -0.000797441 -0.0552523)
(0.000675965 -0.000904648 -0.0575625)
(0.00145406 -0.000268052 -0.0577399)
(-0.000246577 -0.000322659 -0.056187)
(0.000327464 -0.000102387 -0.0539177)
(0.000524881 -0.00057192 -0.0536881)
(0.000530445 -0.000721015 -0.054954)
(0.00114291 -0.000234765 -0.0525812)
(0.000552873 -0.000771948 -0.0553737)
(0.000553983 -0.000577929 -0.0544715)
(0.000726456 2.22816e-05 -0.0539834)
(-0.00068739 0.00036105 -0.054744)
(0.0012121 0.000593804 -0.0567942)
(0.00118971 0.000455249 -0.0541358)
(0.000464702 -0.000321009 -0.0555331)
(0.00142362 -0.000860769 -0.0553657)
(0.000286649 -0.000591905 -0.0513504)
(0.00048599 -0.000420791 -0.0541376)
(0.000856101 -0.000740477 -0.0536167)
(0.00138813 -0.000510278 -0.0558252)
(0.000445221 -0.000526159 -0.0568101)
(0.00128417 0.000276548 -0.056543)
(0.000391978 -0.00138848 -0.0595858)
(0.00102246 0.0006541 -0.0563228)
(0.000467331 5.34703e-06 -0.0575686)
(0.00149061 -0.000262008 -0.0566726)
(0.00096409 -0.000801913 -0.0557818)
(0.000332256 -0.000117959 -0.0519308)
(0.000457735 -0.000322472 -0.0558818)
(-0.000495623 -0.000215641 -0.0580533)
(0.00134434 2.84913e-05 -0.0549135)
(0.00137984 -0.000659998 -0.0582033)
(0.000972155 -0.000901798 -0.058011)
(-0.000215111 -0.000297818 -0.0559301)
(0.0010717 0.000694849 -0.0551607)
(0.000330715 -2.60201e-05 -0.0556566)
(0.00222538 -0.000165997 -0.0563788)
(0.000719481 9.16408e-05 -0.0550345)
(-3.00884e-05 0.000386822 -0.0608611)
(0.000168349 -0.000833511 -0.0578598)
(0.00125525 -0.000628171 -0.0543566)
(0.000716486 -0.00087481 -0.0568387)
(0.000573815 -0.000697902 -0.057865)
(0.00130936 -0.000654256 -0.0569019)
(-0.000230231 -0.000357001 -0.0556285)
(0.000445672 -0.000298198 -0.0549224)
(0.00105101 0.000455713 -0.0530286)
(0.00115059 0.000398573 -0.0522278)
(0.000546616 -0.00076266 -0.0559846)
(0.0010669 0.000690862 -0.0551744)
(0.000328207 -0.00041019 -0.0549108)
(0.00135599 0.000342494 -0.0560919)
(0.00134752 -0.0007253 -0.0573157)
(-0.00136411 0.000920233 -0.0556125)
(0.00143465 -0.000466926 -0.0571254)
(0.000438449 0.000761312 -0.0557506)
(0.00118787 0.000512693 -0.0606008)
(0.00135794 7.2269e-05 -0.0549782)
(0.00128699 -0.00063643 -0.0560475)
(0.00129946 -0.00052799 -0.0559764)
(0.0013632 0.000379862 -0.053112)
(0.00123315 0.000512396 -0.0552399)
(-0.000462848 -7.69404e-05 -0.0599356)
(0.00122266 -0.000539275 -0.0589601)
(0.000749018 -0.00081697 -0.0508469)
(0.000867216 1.08827e-06 -0.0520721)
(0.00137684 2.65753e-05 -0.0531229)
(-0.000323017 -0.00020862 -0.0570792)
(0.00142295 -0.000137467 -0.0530655)
(0.000543987 -0.000746972 -0.0558019)
(0.00142744 -0.000179419 -0.0555953)
(-8.72906e-05 0.000486111 -0.0568996)
(-0.000436377 9.52287e-05 -0.0559845)
(0.000806166 -0.000917293 -0.0572024)
(0.0012441 -0.000636378 -0.0543363)
(0.00142736 4.94505e-05 -0.0570588)
(0.00134816 -0.000728568 -0.057493)
(0.000626447 -0.000479877 -0.0573438)
(-0.000249169 -0.000306778 -0.0562386)
(0.000490384 -0.000645688 -0.0548841)
(0.000370725 -0.000101566 -0.0553483)
(0.0013908 -0.000224239 -0.0535233)
(0.0012315 -0.000675309 -0.0552091)
(0.000926256 -0.000943966 -0.0581579)
(0.000539205 -0.000314026 -0.0587797)
(0.000484395 -0.000693608 -0.0548339)
(0.00118947 0.000387521 -0.0534446)
(0.000448177 -0.000303013 -0.0563258)
(0.00134079 -0.000601336 -0.0560288)
(0.00139932 -0.000405935 -0.0559531)
(0.00117771 -0.000913199 -0.0577705)
(-0.000573073 -0.000172079 -0.0609214)
(0.000612599 -0.000335759 -0.0603448)
(0.00117353 -0.000648273 -0.0529078)
(0.00136092 -0.000547913 -0.0529996)
(0.000448103 -0.000632844 -0.0554557)
(0.00117617 0.000459068 -0.0524638)
(0.00119831 0.000445116 -0.0527429)
(0.000451167 -0.000301698 -0.0552597)
(0.00114081 0.000470778 -0.054102)
(0.00141507 -0.000812309 -0.0551605)
(0.000468316 -0.000411822 -0.0560292)
(0.000432859 -0.000262897 -0.0566716)
(-0.000290764 -0.000826418 -0.0572502)
(0.0036641 0.000197572 -0.0566746)
(0.000618843 5.43812e-05 -0.0555917)
(0.00137331 -0.000576537 -0.0568547)
(0.000686314 -0.000871606 -0.0529082)
(0.0012422 -0.000558208 -0.0535269)
(0.000468731 -0.000382584 -0.0551703)
(0.00133676 9.18091e-06 -0.0540362)
(0.00134072 2.24404e-05 -0.0542384)
(0.000480748 -0.000469092 -0.0568069)
(-0.000106349 0.000448444 -0.0568657)
(0.00129594 -0.000662023 -0.0557976)
(0.00131304 -0.000662628 -0.0562226)
(0.00120431 -0.00077373 -0.0567751)
(0.00137905 -0.000162234 -0.0518608)
(0.00119157 -0.000730653 -0.055712)
(0.0013617 -4.8227e-05 -0.0547078)
(0.000480218 -0.000644207 -0.0561843)
(0.000544429 5.95158e-05 -0.0555451)
(0.000586852 0.000707938 -0.0564081)
(0.000442731 7.49653e-06 -0.0570408)
(0.000240732 -0.000970741 -0.0569918)
(0.000928281 3.55526e-06 -0.0510993)
(-0.000320363 4.82529e-05 -0.0546045)
(0.000347884 -5.1718e-05 -0.0551654)
(0.000794756 -0.000668386 -0.0525319)
(0.000882222 -0.000958836 -0.0562853)
(0.000505419 -0.000455328 -0.0580148)
(0.00119363 -0.000782004 -0.0570419)
(0.00144623 -0.000263319 -0.0578373)
(0.000506278 -0.000698537 -0.0553968)
(0.00125184 -0.000590682 -0.0542174)
(0.00134011 -2.89369e-05 -0.0540001)
(-0.000357941 -0.000442997 -0.0602936)
(0.00120851 -0.00039964 -0.0566866)
(0.000761732 0.000761223 -0.0554529)
(0.000219146 -0.000245466 -0.0533511)
(0.000968942 -0.000824418 -0.0525956)
(0.000537112 -0.000536596 -0.0537616)
(0.000440481 -0.000293202 -0.0559156)
(2.63442e-05 0.000495885 -0.0534236)
(0.00134606 -0.000604259 -0.0566926)
(0.00148045 1.51933e-05 -0.0584927)
(0.000501656 -0.000657922 -0.0555872)
(0.00107499 -0.000144555 -0.0545034)
(0.00131016 -1.56633e-05 -0.0537193)
(0.0010224 -0.000734656 -0.0553907)
(0.000464613 -0.000388471 -0.0552866)
(0.000522341 -0.000740297 -0.056538)
(0.00117524 -0.000856724 -0.0584292)
(0.000476893 -0.000614114 -0.0548614)
(0.00179644 -7.41776e-05 -0.0550357)
(0.00131361 -0.00113743 -0.0546116)
(0.00037782 -0.000104945 -0.0565347)
(0.00123891 -0.000619342 -0.0549998)
(0.00106676 -0.000192864 -0.0568534)
(0.000319396 0.000674094 -0.0563736)
(-0.000507209 -0.000199306 -0.0596286)
(0.000931829 -0.000867777 -0.0571664)
(0.0012196 0.000641262 -0.0581506)
(0.000206336 -0.000304988 -0.0524578)
(0.000857264 -0.000833628 -0.0525633)
(0.00032807 -5.69447e-05 -0.0552217)
(0.00105483 -0.000126803 -0.0544552)
(0.000547418 -0.000789389 -0.0565966)
(0.00142135 -0.000369417 -0.0554906)
(0.00114009 -0.000264998 -0.0557057)
(0.0014672 0.000678334 -0.0504071)
(0.00125808 -0.000520154 -0.0536679)
(0.000737357 -0.000833559 -0.0543809)
(0.000726637 -0.000864709 -0.0573562)
(0.00126935 -0.000609019 -0.0553296)
(0.000906362 -0.000898491 -0.0585341)
(0.000284044 -0.000809034 -0.0581703)
(0.000479803 5.60519e-05 -0.0518748)
(0.00049702 -0.000756873 -0.0539844)
(0.00048939 -0.000639767 -0.0550882)
(0.000488299 -0.000635074 -0.0553055)
(0.00106092 0.000727798 -0.0543716)
(0.00177935 -9.28705e-05 -0.0545267)
(0.0012903 0.00032557 -0.055622)
(0.00139451 -0.000662728 -0.0554632)
(0.000563471 -0.000739805 -0.0575714)
(0.000654755 0.000719918 -0.0550269)
(7.8456e-05 -0.0012141 -0.0578396)
(0.000647864 2.31675e-05 -0.0569497)
(0.000720228 -0.000494894 -0.0579473)
(0.000647659 -0.000797803 -0.0526121)
(0.000962399 1.72548e-05 -0.0513383)
(0.000487409 -0.000715856 -0.0556532)
(0.000484878 -0.000738449 -0.0562579)
(0.00101202 -8.90592e-05 -0.0528998)
(0.000511989 6.96045e-05 -0.0536546)