/*--------------------------------*- C++ -*----------------------------------*\
| =========                 |                                                 |
| \\      /  F ield         | OpenFOAM: The Open Source CFD Toolbox           |
|  \\    /   O peration     | Version:  plus.master.MPPICInterFoam            |
|   \\  /    A nd           | Web:      www.OpenFOAM.com                      |
|    \\/     M anipulation  |                                                 |
\*---------------------------------------------------------------------------*/
FoamFile
{
    version     2.0;
    format      ascii;
    class       surfaceScalarField;
    location    "7.8";
    object      alphaPhi;
}
// * * * * * * * * * * * * * * * * * * * * * * * * * * * * * * * * * * * * * //

dimensions      [0 3 -1 0 0 0 0];

internalField   nonuniform List<scalar> 
34004
(
1.57715e-08
9.49148e-09
-1.75711e-06
-3.77788e-08
2.71226e-08
6.16781e-09
-2.21367e-06
-3.17426e-08
3.47451e-08
4.99588e-09
-2.57196e-06
-2.85396e-08
3.94798e-08
4.61977e-09
-2.91336e-06
-2.6769e-08
4.17969e-08
4.57858e-09
-3.25487e-06
-2.55982e-08
4.2069e-08
4.71245e-09
-3.60065e-06
-2.47717e-08
4.05935e-08
4.9615e-09
-3.9511e-06
-2.4201e-08
5.31473e-09
-4.3042e-06
-2.38756e-08
3.75716e-08
1.83474e-08
-2.26038e-08
-1.76574e-06
3.16107e-08
-2.26344e-08
-2.22396e-06
4.06054e-08
-2.1434e-08
-2.5841e-06
4.63266e-08
-2.02287e-08
-2.92737e-06
4.93046e-08
-1.89946e-08
-3.27089e-06
4.99303e-08
-1.77555e-08
-3.61883e-06
4.85028e-08
-1.65332e-08
-3.97159e-06
-1.53283e-08
-4.32713e-06
4.51958e-08
1.95518e-08
-5.67735e-08
-1.76979e-06
3.36471e-08
-5.31642e-08
-2.22887e-06
4.31437e-08
-4.94001e-08
-2.58996e-06
4.9141e-08
-4.65207e-08
-2.9342e-06
5.22171e-08
-4.39544e-08
-3.27875e-06
5.27993e-08
-4.15778e-08
-3.6278e-06
5.12173e-08
-3.93713e-08
-3.98173e-06
-3.73369e-08
-4.33844e-06
4.76768e-08
2.0143e-08
-9.20108e-08
-1.76873e-06
3.46211e-08
-8.44753e-08
-2.22761e-06
4.44461e-08
-7.81817e-08
-2.58875e-06
5.07584e-08
-7.37013e-08
-2.93308e-06
5.4136e-08
-6.98799e-08
-3.27781e-06
5.49903e-08
-6.64299e-08
-3.62712e-06
5.36258e-08
-6.32803e-08
-3.98137e-06
-6.04189e-08
-4.33845e-06
5.02062e-08
1.88411e-08
-1.25874e-07
-1.76142e-06
3.23301e-08
-1.14562e-07
-2.21908e-06
4.1518e-08
-1.06124e-07
-2.57909e-06
4.75142e-08
-1.00422e-07
-2.92234e-06
5.0847e-08
-9.57196e-08
-3.26603e-06
5.18874e-08
-9.15729e-08
-3.61434e-06
5.08869e-08
-8.78427e-08
-3.96761e-06
-8.45061e-08
-4.32368e-06
4.79637e-08
1.58275e-08
-1.55871e-07
-1.74765e-06
2.69098e-08
-1.41111e-07
-2.20299e-06
3.45647e-08
-1.31281e-07
-2.56058e-06
3.98033e-08
-1.25027e-07
-2.90142e-06
4.3046e-08
-1.20059e-07
-3.24271e-06
4.45701e-08
-1.15773e-07
-3.5886e-06
4.45125e-08
-1.11939e-07
-3.93942e-06
-1.08468e-07
-4.29304e-06
4.28302e-08
7.79718e-09
-1.72715e-06
-1.76004e-07
1.24958e-08
-2.17919e-06
-1.59053e-07
1.54892e-08
-2.53256e-06
-1.49171e-07
1.73849e-08
-2.86903e-06
-1.43326e-07
1.85775e-08
-3.20573e-06
-1.391e-07
1.9347e-08
-3.54673e-06
-1.35742e-07
1.97879e-08
-3.89237e-06
-1.32888e-07
-4.24051e-06
-1.30415e-07
1.98375e-08
1.52296e-08
1.81932e-09
-1.74736e-06
-2.67986e-08
2.64335e-08
-1.21488e-09
-2.20237e-06
-2.12649e-08
3.41632e-08
-2.16466e-09
-2.55906e-06
-1.84341e-08
3.91646e-08
-2.45131e-09
-2.89902e-06
-1.68643e-08
4.18476e-08
-2.43129e-09
-3.23926e-06
-1.58508e-08
4.2529e-08
-2.22987e-09
-3.58393e-06
-1.51768e-08
4.14608e-08
-1.89862e-09
-3.93339e-06
-1.47656e-08
-1.44359e-09
-4.2855e-06
-1.46055e-08
3.87966e-08
1.72165e-08
-2.58434e-08
-1.75529e-06
2.98203e-08
-2.58039e-08
-2.21194e-06
3.85563e-08
-2.46568e-08
-2.57032e-06
4.42926e-08
-2.35427e-08
-2.912e-06
4.74914e-08
-2.24021e-08
-3.25412e-06
4.84898e-08
-2.12406e-08
-3.60084e-06
4.75398e-08
-2.00717e-08
-3.95251e-06
-1.88935e-08
-4.30697e-06
4.47681e-08
1.7941e-08
-5.46669e-08
-1.75889e-06
3.10056e-08
-5.12835e-08
-2.2164e-06
3.99761e-08
-4.79025e-08
-2.57565e-06
4.58091e-08
-4.53312e-08
-2.91822e-06
4.90088e-08
-4.30429e-08
-3.26131e-06
4.9945e-08
-4.09133e-08
-3.60908e-06
4.88983e-08
-3.89178e-08
-3.96185e-06
-3.7054e-08
-4.31743e-06
4.60247e-08
1.80741e-08
-8.37321e-08
-1.7577e-06
3.11676e-08
-7.67989e-08
-2.21513e-06
4.0189e-08
-7.12459e-08
-2.57439e-06
4.61258e-08
-6.73111e-08
-2.91702e-06
4.94845e-08
-6.39738e-08
-3.26025e-06
5.06254e-08
-6.09663e-08
-3.60824e-06
4.98126e-08
-5.82179e-08
-3.96132e-06
-5.57117e-08
-4.31723e-06
4.71662e-08
1.65054e-08
-1.1084e-07
-1.75078e-06
2.8406e-08
-1.00565e-07
-2.20716e-06
3.66002e-08
-9.31766e-08
-2.56531e-06
4.20336e-08
-8.81921e-08
-2.90687e-06
4.51755e-08
-8.41116e-08
-3.24904e-06
4.63585e-08
-8.05315e-08
-3.59598e-06
4.58118e-08
-7.73242e-08
-3.94799e-06
-7.44644e-08
-4.3028e-06
4.36313e-08
1.35906e-08
-1.34002e-07
-1.73805e-06
2.31984e-08
-1.20759e-07
-2.19235e-06
2.98851e-08
-1.12157e-07
-2.54825e-06
3.45032e-08
-1.06668e-07
-2.88754e-06
3.74341e-08
-1.02338e-07
-3.22742e-06
3.89347e-08
-9.86324e-08
-3.57202e-06
3.91439e-08
-9.53491e-08
-3.92164e-06
-9.24101e-08
-4.27403e-06
3.80292e-08
6.61791e-09
-1.7194e-06
-1.48346e-07
1.0746e-08
-2.17073e-06
-1.33303e-07
1.33447e-08
-2.5228e-06
-1.24479e-07
1.49702e-08
-2.8581e-06
-1.19196e-07
1.59617e-08
-3.19374e-06
-1.15324e-07
1.65898e-08
-3.53377e-06
-1.12243e-07
1.69834e-08
-3.8785e-06
-1.09654e-07
-4.22568e-06
-1.0746e-07
1.71378e-08
1.43979e-08
-4.91637e-09
-1.73988e-06
-1.69656e-08
2.49597e-08
-7.71423e-09
-2.19338e-06
-1.17817e-08
3.22441e-08
-8.55678e-09
-2.54852e-06
-9.23726e-09
3.6977e-08
-8.81135e-09
-2.8871e-06
-7.8217e-09
3.9568e-08
-8.76951e-09
-3.22616e-06
-6.93288e-09
4.03426e-08
-8.53084e-09
-3.56982e-06
-6.38584e-09
3.95617e-08
-8.13542e-09
-3.91841e-06
-6.11431e-09
-7.58994e-09
-4.26969e-06
-6.10708e-09
3.73726e-08
1.57759e-08
-2.84791e-08
-1.74746e-06
2.7235e-08
-2.84713e-08
-2.20258e-06
3.51256e-08
-2.74397e-08
-2.55929e-06
4.02884e-08
-2.64519e-08
-2.89952e-06
4.31905e-08
-2.54288e-08
-3.24038e-06
4.41846e-08
-2.43622e-08
-3.58603e-06
4.35405e-08
-2.32586e-08
-3.93678e-06
-2.21131e-08
-4.29034e-06
4.13884e-08
1.60459e-08
-5.23929e-08
-1.75098e-06
2.75803e-08
-4.93248e-08
-2.20703e-06
3.54185e-08
-4.63358e-08
-2.56457e-06
4.04683e-08
-4.40741e-08
-2.90565e-06
4.32411e-08
-4.20594e-08
-3.24747e-06
4.41273e-08
-4.01699e-08
-3.59419e-06
4.34293e-08
-3.83782e-08
-3.94608e-06
-3.66779e-08
-4.3008e-06
4.13074e-08
1.57783e-08
-7.58566e-08
-1.74998e-06
2.70125e-08
-6.95749e-08
-2.20607e-06
3.46283e-08
-6.47054e-08
-2.56361e-06
3.95605e-08
-6.12688e-08
-2.90476e-06
4.23289e-08
-5.83642e-08
-3.24674e-06
4.33239e-08
-5.57469e-08
-3.5937e-06
4.28419e-08
-5.33489e-08
-3.94592e-06
-5.11508e-08
-4.30099e-06
4.10191e-08
1.40662e-08
-9.702e-08
-1.74365e-06
2.39891e-08
-8.77599e-08
-2.19885e-06
3.06549e-08
-8.13018e-08
-2.55536e-06
3.49553e-08
-7.69496e-08
-2.89549e-06
3.73842e-08
-7.3405e-08
-3.23646e-06
3.83159e-08
-7.03078e-08
-3.5824e-06
3.80276e-08
-6.75432e-08
-3.93358e-06
-6.50867e-08
-4.28756e-06
3.66454e-08
1.13456e-08
-1.14381e-07
-1.732e-06
1.91587e-08
-1.0253e-07
-2.18534e-06
2.44107e-08
-9.49987e-08
-2.53978e-06
2.7905e-08
-9.01743e-08
-2.8778e-06
3.00625e-08
-8.63884e-08
-3.21661e-06
3.11956e-08
-8.3171e-08
-3.56033e-06
3.15107e-08
-8.03493e-08
-3.90921e-06
-7.78561e-08
-4.26086e-06
3.10325e-08
5.42353e-09
-1.71507e-06
-1.24102e-07
8.64213e-09
-2.16571e-06
-1.10717e-07
1.04273e-08
-2.51669e-06
-1.02859e-07
1.135e-08
-2.8511e-06
-9.80868e-08
1.17818e-08
-3.18601e-06
-9.45565e-08
1.2047e-08
-3.5255e-06
-9.17421e-08
1.23553e-08
-3.8698e-06
-8.94009e-08
-4.21657e-06
-8.74579e-08
1.27796e-08
1.33564e-08
-1.10884e-08
-1.73425e-06
-7.86676e-09
2.28628e-08
-1.38095e-08
-2.18608e-06
-2.94084e-09
2.92138e-08
-1.45875e-08
-2.53961e-06
-6.41924e-10
3.31986e-08
-1.48343e-08
-2.87687e-06
6.22434e-10
3.5267e-08
-1.47905e-08
-3.21487e-06
1.41829e-09
3.58211e-08
-1.45308e-08
-3.55773e-06
1.85951e-09
3.51866e-08
-1.40861e-08
-3.90573e-06
2.00786e-09
-1.34601e-08
-4.25651e-06
1.86747e-09
3.35559e-08
1.41368e-08
-3.08594e-08
-1.74179e-06
2.40213e-08
-3.09679e-08
-2.19526e-06
3.05538e-08
-3.0079e-08
-2.55031e-06
3.46185e-08
-2.9228e-08
-2.88918e-06
3.67546e-08
-2.83266e-08
-3.22898e-06
3.73983e-08
-2.73558e-08
-3.57386e-06
3.69028e-08
-2.63161e-08
-3.92408e-06
-2.51995e-08
-4.27718e-06
3.54585e-08
1.39618e-08
-5.02424e-08
-1.74553e-06
2.35368e-08
-4.75363e-08
-2.20001e-06
2.96968e-08
-4.49253e-08
-2.55587e-06
3.33958e-08
-4.29568e-08
-2.89562e-06
3.52265e-08
-4.11957e-08
-3.23644e-06
3.56728e-08
-3.95245e-08
-3.58248e-06
3.51312e-08
-3.7914e-08
-3.93396e-06
-3.63546e-08
-4.28837e-06
3.38333e-08
1.33386e-08
-6.859e-08
-1.74495e-06
2.23027e-08
-6.29662e-08
-2.19959e-06
2.797e-08
-5.87169e-08
-2.55549e-06
3.1323e-08
-5.57271e-08
-2.89536e-06
3.29726e-08
-5.32034e-08
-3.2364e-06
3.34159e-08
-5.09248e-08
-3.58277e-06
3.30586e-08
-4.88279e-08
-3.93468e-06
-4.68926e-08
-4.28956e-06
3.2122e-08
1.15666e-08
-8.44563e-08
-1.73933e-06
1.91522e-08
-7.61556e-08
-2.19324e-06
2.37881e-08
-7.05176e-08
-2.5482e-06
2.64167e-08
-6.67188e-08
-2.88715e-06
2.76335e-08
-6.36343e-08
-3.22727e-06
2.79305e-08
-6.09467e-08
-3.57271e-06
2.77071e-08
-5.85554e-08
-3.92366e-06
-5.64384e-08
-4.27754e-06
2.71871e-08
9.10415e-09
-9.68063e-08
-1.72873e-06
1.48039e-08
-8.62102e-08
-2.18097e-06
1.81657e-08
-7.96152e-08
-2.53404e-06
2.00457e-08
-7.53686e-08
-2.87105e-06
2.09768e-08
-7.20464e-08
-3.20916e-06
2.13988e-08
-6.92405e-08
-3.5525e-06
2.16536e-08
-6.68053e-08
-3.90126e-06
-6.46855e-08
-4.2529e-06
2.18821e-08
4.19482e-09
-1.71332e-06
-1.02726e-07
6.14405e-09
-2.16306e-06
-9.07752e-08
6.67659e-09
-2.51303e-06
-8.37997e-08
6.4476e-09
-2.84676e-06
-7.94926e-08
5.93565e-09
-3.18128e-06
-7.62889e-08
5.58527e-09
-3.52069e-06
-7.37314e-08
5.7422e-09
-3.86519e-06
-7.1628e-08
-4.21225e-06
-6.99214e-08
6.59478e-09
1.21413e-08
-1.70534e-08
-1.73008e-06
7.69217e-10
2.0162e-08
-1.97281e-08
-2.17988e-06
5.52322e-09
2.50744e-08
-2.04625e-08
-2.53169e-06
7.63899e-09
2.77687e-08
-2.07108e-08
-2.86768e-06
8.82722e-09
2.88457e-08
-2.06656e-08
-3.20481e-06
9.52861e-09
2.88335e-08
-2.03817e-08
-3.54721e-06
9.8688e-09
2.81909e-08
-1.98817e-08
-3.89511e-06
9.89253e-09
-1.91666e-08
-4.24598e-06
9.60376e-09
2.72146e-08
1.22969e-08
-3.32747e-08
-1.73784e-06
2.01696e-08
-3.35258e-08
-2.18932e-06
2.47982e-08
-3.27784e-08
-2.54261e-06
2.71974e-08
-3.20554e-08
-2.88023e-06
2.80507e-08
-3.12628e-08
-3.21923e-06
2.79504e-08
-3.03721e-08
-3.56376e-06
2.74081e-08
-2.93785e-08
-3.91403e-06
-2.8271e-08
-4.26742e-06
2.67477e-08
1.16803e-08
-4.84315e-08
-1.74203e-06
1.88303e-08
-4.60947e-08
-2.19458e-06
2.27256e-08
-4.38307e-08
-2.54871e-06
2.44601e-08
-4.21265e-08
-2.88728e-06
2.47833e-08
-4.05885e-08
-3.22743e-06
2.43525e-08
-3.91044e-08
-3.5733e-06
2.37429e-08
-3.76439e-08
-3.92508e-06
-3.61953e-08
-4.28005e-06
2.33381e-08
1.07268e-08
-6.20502e-08
-1.74205e-06
1.69596e-08
-5.70598e-08
-2.19487e-06
2.0082e-08
-5.33626e-08
-2.54909e-06
2.12243e-08
-5.07651e-08
-2.88787e-06
2.1167e-08
-4.85686e-08
-3.22836e-06
2.05986e-08
-4.65754e-08
-3.57473e-06
2.01221e-08
-4.47281e-08
-3.92711e-06
-4.30079e-08
-4.28276e-06
2.01317e-08
8.94544e-09
-7.31104e-08
-1.73722e-06
1.3762e-08
-6.57e-08
-2.18943e-06
1.57941e-08
-6.07831e-08
-2.54283e-06
1.61393e-08
-5.74658e-08
-2.8808e-06
1.55738e-08
-5.47735e-08
-3.22051e-06
1.47918e-08
-5.24301e-08
-3.56608e-06
1.44009e-08
-5.035e-08
-3.91765e-06
-4.85157e-08
-4.27245e-06
1.48078e-08
6.78249e-09
-8.1027e-08
-1.7276e-06
9.96461e-09
-7.15606e-08
-2.17831e-06
1.08941e-08
-6.57852e-08
-2.52999e-06
1.05852e-08
-6.20449e-08
-2.86618e-06
9.75807e-09
-5.91175e-08
-3.204e-06
9.06172e-09
-5.66605e-08
-3.54758e-06
9.05301e-09
-5.45512e-08
-3.89706e-06
-5.2747e-08
-4.24969e-06
1.00679e-08
2.83465e-09
-1.71347e-06
-8.37047e-08
3.0631e-09
-2.16187e-06
-7.29986e-08
1.79771e-09
-2.51073e-06
-6.68297e-08
-1.51976e-10
-2.84392e-06
-6.2948e-08
-2.08834e-09
-3.17842e-06
-6.00524e-08
-3.39556e-09
-3.51832e-06
-5.77394e-08
-3.52485e-09
-3.86377e-06
-5.58616e-08
-4.21206e-06
-5.43787e-08
-2.10182e-09
1.06404e-08
-2.30233e-08
-1.72696e-06
9.26853e-09
1.66873e-08
-2.56373e-08
-2.17412e-06
1.38082e-08
1.95564e-08
-2.63226e-08
-2.52398e-06
1.57305e-08
2.03492e-08
-2.65591e-08
-2.85873e-06
1.6803e-08
1.98687e-08
-2.64956e-08
-3.19523e-06
1.73967e-08
1.88527e-08
-2.61657e-08
-3.53763e-06
1.76084e-08
1.7975e-08
-2.55843e-08
-3.88611e-06
1.74741e-08
-2.47502e-08
-4.23797e-06
1.69979e-08
1.77223e-08
1.01978e-08
-3.59186e-08
-1.73514e-06
1.55213e-08
-3.62958e-08
-2.18399e-06
1.75886e-08
-3.56666e-08
-2.53534e-06
1.76403e-08
-3.50466e-08
-2.87178e-06
1.65811e-08
-3.43353e-08
-3.21031e-06
1.52433e-08
-3.3494e-08
-3.55508e-06
1.43875e-08
-3.25126e-08
-3.90623e-06
-3.13786e-08
-4.26097e-06
1.4562e-08
9.11654e-09
-4.71027e-08
-1.73996e-06
1.326e-08
-4.51053e-08
-2.18992e-06
1.41759e-08
-4.31416e-08
-2.54214e-06
1.31996e-08
-4.16612e-08
-2.87967e-06
1.1325e-08
-4.03054e-08
-3.21956e-06
9.47417e-09
-3.8966e-08
-3.56596e-06
8.49804e-09
-3.76126e-08
-3.91899e-06
-3.62329e-08
-4.27573e-06
9.03002e-09
7.83877e-09
-5.62904e-08
-1.7407e-06
1.07463e-08
-5.18846e-08
-2.191e-06
1.05813e-08
-4.86679e-08
-2.54339e-06
8.73438e-09
-4.64058e-08
-2.88126e-06
6.25101e-09
-4.44806e-08
-3.22168e-06
4.10484e-09
-4.27173e-08
-3.56881e-06
3.19551e-09
-4.10653e-08
-3.92274e-06
-3.95095e-08
-4.28048e-06
4.18875e-09
6.07397e-09
-6.28969e-08
-1.73669e-06
7.54028e-09
-5.63035e-08
-2.18649e-06
6.22473e-09
-5.20211e-08
-2.53816e-06
3.51224e-09
-4.91188e-08
-2.87537e-06
4.53992e-10
-4.67561e-08
-3.21515e-06
-1.96199e-09
-4.46971e-08
-3.56166e-06
-2.82308e-09
-4.28709e-08
-3.91497e-06
-4.12674e-08
-4.27206e-06
-1.44343e-09
4.24167e-09
-6.67838e-08
-1.72797e-06
4.33792e-09
-5.83428e-08
-2.17638e-06
2.11866e-09
-5.32892e-08
-2.5265e-06
-1.12015e-09
-4.99909e-08
-2.86206e-06
-4.37659e-09
-4.74073e-08
-3.20008e-06
-6.70918e-09
-4.52449e-08
-3.54468e-06
-7.2522e-09
-4.34095e-08
-3.89596e-06
-4.18734e-08
-4.25094e-06
-5.38819e-09
1.21711e-09
-1.71491e-06
-6.65789e-08
-9.0691e-10
-2.16112e-06
-5.69822e-08
-4.67568e-09
-2.50871e-06
-5.155e-08
-9.03278e-09
-2.84148e-06
-4.80679e-08
-1.30393e-08
-3.17637e-06
-4.54524e-08
-1.57787e-08
-3.51745e-06
-4.33717e-08
-1.6412e-08
-3.86482e-06
-4.17099e-08
-4.21558e-06
-4.04426e-08
-1.43097e-08
8.79087e-09
-2.91364e-08
-1.72434e-06
1.77164e-08
1.22232e-08
-3.16395e-08
-2.16795e-06
2.20072e-08
1.22883e-08
-3.22452e-08
-2.51555e-06
2.37213e-08
1.0399e-08
-3.24358e-08
-2.84907e-06
2.46542e-08
7.64064e-09
-3.23136e-08
-3.18526e-06
2.51033e-08
5.04851e-09
-3.18888e-08
-3.52828e-06
2.51365e-08
3.60705e-09
-3.11691e-08
-3.87829e-06
2.47838e-08
-3.01557e-08
-4.23237e-06
2.4054e-08
4.092e-09
7.72009e-09
-3.89146e-08
-1.7331e-06
9.79133e-09
-3.93548e-08
-2.17837e-06
8.46353e-09
-3.87988e-08
-2.52746e-06
5.31107e-09
-3.82396e-08
-2.86283e-06
1.55299e-09
-3.75626e-08
-3.20131e-06
-1.64345e-09
-3.67179e-08
-3.54706e-06
-3.17085e-09
-3.56901e-08
-3.9002e-06
-3.44682e-08
-4.25769e-06
-2.16215e-09
6.12873e-09
-4.63311e-08
-1.73868e-06
6.49189e-09
-4.4604e-08
-2.18503e-06
3.5105e-09
-4.28834e-08
-2.53506e-06
-1.10976e-09
-4.15726e-08
-2.87171e-06
-6.03118e-09
-4.03458e-08
-3.21185e-06
-9.97146e-09
-3.90936e-08
-3.55965e-06
-1.1702e-08
-3.77867e-08
-3.91518e-06
-3.64165e-08
-4.27528e-06
-1.02375e-08
4.51199e-09
-5.13094e-08
-1.74024e-06
3.26853e-09
-4.7422e-08
-2.18693e-06
-1.15492e-09
-4.46047e-08
-2.53724e-06
-6.95071e-09
-4.26222e-08
-2.8744e-06
-1.2735e-08
-4.09086e-08
-3.21533e-06
-1.71489e-08
-3.93136e-08
-3.56417e-06
-1.88918e-08
-3.77957e-08
-3.921e-06
-3.63467e-08
-4.28254e-06
-1.69204e-08
2.7602e-09
-5.37014e-08
-1.73706e-06
-2.46594e-11
-4.78516e-08
-2.18327e-06
-5.61901e-09
-4.4141e-08
-2.53302e-06
-1.23338e-08
-4.15906e-08
-2.86967e-06
-1.87483e-08
-3.94973e-08
-3.21014e-06
-2.34792e-08
-3.76644e-08
-3.55857e-06
-2.52018e-08
-3.6038e-08
-3.915e-06
-3.46165e-08
-4.27616e-06
-2.2845e-08
1.304e-09
-5.38327e-08
-1.72914e-06
-2.53757e-09
-4.63305e-08
-2.17407e-06
-8.84853e-09
-4.19459e-08
-2.52239e-06
-1.5948e-08
-3.90335e-08
-2.85751e-06
-2.24747e-08
-3.67406e-08
-3.1963e-06
-2.70961e-08
-3.48283e-08
-3.54289e-06
-2.85408e-08
-3.32267e-08
-3.89732e-06
-3.19238e-08
-4.25637e-06
-2.57986e-08
-8.46888e-10
-1.71694e-06
-5.09577e-08
-6.09498e-09
-2.15978e-06
-4.24274e-08
-1.33594e-08
-2.50576e-06
-3.76382e-08
-2.10669e-08
-2.83827e-06
-3.45362e-08
-2.79507e-08
-3.17403e-06
-3.21867e-08
-3.2738e-08
-3.51715e-06
-3.03297e-08
-3.42047e-08
-3.86769e-06
-2.88807e-08
-4.22251e-06
-2.78305e-08
-3.13598e-08
6.44158e-09
-3.54728e-08
-1.72152e-06
2.6196e-08
6.42201e-09
-3.77508e-08
-2.16037e-06
3.01544e-08
2.7235e-09
-3.82159e-08
-2.50526e-06
3.16076e-08
-2.81615e-09
-3.82942e-08
-2.83759e-06
3.23392e-08
-8.73666e-09
-3.80373e-08
-3.17389e-06
3.25655e-08
-1.36143e-08
-3.74258e-08
-3.51833e-06
3.23262e-08
-1.60569e-08
-3.64632e-08
-3.87106e-06
3.16473e-08
-3.51601e-08
-4.22895e-06
3.0551e-08
-1.49011e-08
4.67854e-09
-4.2316e-08
-1.73096e-06
2.56438e-09
-4.26978e-08
-2.17133e-06
-3.21374e-09
-4.21454e-08
-2.51777e-06
-1.06013e-08
-4.15835e-08
-2.85217e-06
-1.79967e-08
-4.08637e-08
-3.19111e-06
-2.38061e-08
-3.99247e-08
-3.53878e-06
-2.64754e-08
-3.87501e-08
-3.89528e-06
-3.73387e-08
-4.25732e-06
-2.4707e-08
2.52023e-09
-4.61231e-08
-1.73741e-06
-1.97006e-09
-4.45529e-08
-2.17869e-06
-9.96868e-09
-4.30181e-08
-2.5262e-06
-1.93249e-08
-4.18102e-08
-2.86214e-06
-2.82872e-08
-4.06322e-08
-3.20314e-06
-3.51131e-08
-3.9381e-08
-3.5534e-06
-3.80942e-08
-3.80301e-08
-3.91295e-06
-3.65809e-08
-4.27837e-06
-3.57881e-08
5.4631e-10
-4.70556e-08
-1.73985e-06
-5.97298e-09
-4.35898e-08
-2.18137e-06
-1.58193e-08
-4.11357e-08
-2.52928e-06
-2.67149e-08
-3.93537e-08
-2.86597e-06
-3.68275e-08
-3.77776e-08
-3.20808e-06
-4.43287e-08
-3.62751e-08
-3.5598e-06
-4.74161e-08
-3.48161e-08
-3.92115e-06
-3.34041e-08
-4.28859e-06
-4.45661e-08
-1.20694e-09
-4.5413e-08
-1.73749e-06
-9.26689e-09
-4.02704e-08
-2.17853e-06
-2.04026e-08
-3.70368e-08
-2.52599e-06
-3.22932e-08
-3.47836e-08
-2.86236e-06
-4.30985e-08
-3.2904e-08
-3.20422e-06
-5.09628e-08
-3.12432e-08
-3.55575e-06
-5.40538e-08
-2.97664e-08
-3.91698e-06
-2.8484e-08
-4.28434e-06
-5.08163e-08
-2.32706e-09
-4.19713e-08
-1.73026e-06
-1.1172e-08
-3.54016e-08
-2.1701e-06
-2.27441e-08
-3.15924e-08
-2.51627e-06
-3.48178e-08
-2.90278e-08
-2.85121e-06
-4.56068e-08
-2.69904e-08
-3.19143e-06
-5.33061e-08
-2.52991e-08
-3.54114e-06
-5.61363e-08
-2.39092e-08
-3.90036e-06
-2.28233e-08
-4.26557e-06
-5.26018e-08
-3.65675e-09
-1.71869e-06
-3.65737e-08
-1.31679e-08
-2.15662e-06
-2.90761e-08
-2.50074e-08
-2.50064e-06
-2.48927e-08
-3.71414e-08
-2.83303e-06
-2.21486e-08
-4.78759e-08
-3.17024e-06
-2.00607e-08
-5.54802e-08
-3.51642e-06
-1.84349e-08
-5.82433e-08
-3.87164e-06
-1.72154e-08
-4.23247e-06
-1.64045e-08
-5.47131e-08
3.38384e-09
-4.2012e-08
-1.71761e-06
3.47052e-08
-1.1884e-09
-4.38696e-08
-2.1501e-06
3.81601e-08
-9.77937e-09
-4.41089e-08
-2.49182e-06
3.92489e-08
-2.00852e-08
-4.39648e-08
-2.823e-06
3.96747e-08
-3.01963e-08
-4.34336e-08
-3.1599e-06
3.95433e-08
-3.82053e-08
-4.24733e-08
-3.50673e-06
3.88687e-08
-4.22204e-08
-4.1088e-08
-3.86365e-06
3.76808e-08
-3.93123e-08
-4.2273e-06
3.603e-08
-4.05973e-08
8.86711e-10
-4.60905e-08
-1.72778e-06
-6.60528e-09
-4.62264e-08
-2.16149e-06
-1.80539e-08
-4.55967e-08
-2.50485e-06
-3.08749e-08
-4.49158e-08
-2.83842e-06
-4.29826e-08
-4.40228e-08
-3.17844e-06
-5.22841e-08
-4.284e-08
-3.52913e-06
-5.66945e-08
-4.13553e-08
-3.89061e-06
-3.95901e-08
-4.25933e-06
-5.44031e-08
-1.98749e-09
-4.64288e-08
-1.73509e-06
-1.25421e-08
-4.48996e-08
-2.16948e-06
-2.68806e-08
-4.34305e-08
-2.51405e-06
-4.22205e-08
-4.22256e-08
-2.84951e-06
-5.63379e-08
-4.09841e-08
-3.19209e-06
-6.69648e-08
-3.96074e-08
-3.54602e-06
-7.18311e-08
-3.80787e-08
-3.91137e-06
-3.64193e-08
-4.28441e-06
-6.89539e-08
-4.45994e-09
-4.34571e-08
-1.73837e-06
-1.75402e-08
-4.03567e-08
-2.17285e-06
-3.41191e-08
-3.81453e-08
-2.518e-06
-5.13511e-08
-3.64849e-08
-2.85449e-06
-6.69163e-08
-3.49587e-08
-3.19856e-06
-7.84328e-08
-3.34569e-08
-3.55444e-06
-8.35138e-08
-3.19644e-08
-3.92218e-06
-3.05025e-08
-4.29794e-06
-8.00766e-08
-6.28118e-09
-3.79329e-08
-1.73674e-06
-2.09885e-08
-3.34613e-08
-2.17073e-06
-3.89004e-08
-3.06373e-08
-2.5156e-06
-5.7189e-08
-2.862e-08
-2.85195e-06
-7.3505e-08
-2.69004e-08
-3.19597e-06
-8.54281e-08
-2.53636e-08
-3.55193e-06
-9.05352e-08
-2.3995e-08
-3.91984e-06
-2.28184e-08
-4.29584e-06
-8.67106e-08
-7.05818e-09
-3.10786e-08
-1.73007e-06
-2.22018e-08
-2.54277e-08
-2.16301e-06
-4.02758e-08
-2.21522e-08
-2.50669e-06
-5.85425e-08
-1.99079e-08
-2.84166e-06
-7.47027e-08
-1.81127e-08
-3.18407e-06
-8.63903e-08
-1.66405e-08
-3.53818e-06
-9.12386e-08
-1.54705e-08
-3.90404e-06
-1.46164e-08
-4.27782e-06
-8.71924e-08
-7.55919e-09
-1.71896e-06
-2.32623e-08
-2.25726e-08
-2.15027e-06
-1.67914e-08
-4.02583e-08
-2.49192e-06
-1.3208e-08
-5.80437e-08
-2.82435e-06
-1.08261e-08
-7.37328e-08
-3.16366e-06
-9.02503e-09
-8.50553e-08
-3.51408e-06
-7.6759e-09
-8.97318e-08
-3.87569e-06
-6.74605e-09
-4.24482e-06
-6.23775e-09
-8.57705e-08
-6.14861e-10
-4.86164e-08
-1.71151e-06
4.31159e-08
-1.09357e-08
-4.98184e-08
-2.13572e-06
4.57824e-08
-2.57658e-08
-4.96438e-08
-2.47371e-06
4.6384e-08
-4.20979e-08
-4.90961e-08
-2.80387e-06
4.63099e-08
-5.75381e-08
-4.80701e-08
-3.14198e-06
4.55956e-08
-6.96488e-08
-4.65031e-08
-3.49232e-06
4.42223e-08
-7.5974e-08
-4.44139e-08
-3.85512e-06
4.22346e-08
-4.18845e-08
-4.22676e-06
3.97351e-08
-7.43209e-08
-4.03966e-09
-5.00893e-08
-1.72226e-06
-1.82146e-08
-4.97962e-08
-2.14733e-06
-3.66403e-08
-4.88975e-08
-2.48716e-06
-5.61301e-08
-4.79269e-08
-2.82009e-06
-7.40925e-08
-4.66578e-08
-3.16187e-06
-8.78692e-08
-4.50003e-08
-3.51683e-06
-9.47872e-08
-4.29575e-08
-3.88511e-06
-4.05931e-08
-4.26289e-06
-9.24713e-08
-7.76837e-09
-4.71418e-08
-1.73027e-06
-2.57937e-08
-4.54811e-08
-2.15577e-06
-4.77463e-08
-4.39305e-08
-2.49707e-06
-7.03187e-08
-4.25796e-08
-2.83228e-06
-9.07453e-08
-4.11098e-08
-3.1772e-06
-1.06167e-07
-3.94256e-08
-3.53615e-06
-1.13708e-07
-3.7528e-08
-3.90922e-06
-3.54727e-08
-4.29239e-06
-1.10812e-07
-1.0858e-08
-4.04467e-08
-1.73421e-06
-3.18649e-08
-3.75867e-08
-2.15974e-06
-5.64748e-08
-3.55081e-08
-2.50181e-06
-8.13044e-08
-3.38653e-08
-2.83838e-06
-1.03473e-07
-3.22808e-08
-3.18521e-06
-1.19992e-07
-3.06666e-08
-3.54667e-06
-1.27859e-07
-2.90272e-08
-3.92279e-06
-2.74091e-08
-4.30941e-06
-1.24416e-07
-1.28031e-08
-3.12095e-08
-1.73318e-06
-3.54853e-08
-2.73499e-08
-2.15829e-06
-6.14961e-08
-2.4875e-08
-2.50022e-06
-8.74456e-08
-2.30429e-08
-2.83681e-06
-1.10416e-07
-2.14408e-08
-3.18383e-06
-1.27376e-07
-1.99935e-08
-3.54563e-06
-1.35286e-07
-1.87075e-08
-3.92223e-06
-1.76194e-08
-4.30943e-06
-1.3146e-07
-1.31907e-08
-2.11059e-08
-1.72698e-06
-3.59591e-08
-1.63725e-08
-2.15121e-06
-6.18633e-08
-1.36208e-08
-2.49204e-06
-8.75832e-08
-1.17014e-08
-2.82728e-06
-1.10253e-07
-1.01713e-08
-3.17266e-06
-1.26901e-07
-8.95679e-09
-3.53256e-06
-1.34545e-07
-8.06007e-09
-3.90702e-06
-7.49837e-09
-4.29191e-06
-1.30556e-07
-1.28029e-08
-1.71632e-06
-1.0956e-08
-3.46784e-08
-2.13918e-06
-5.58167e-09
-5.9557e-08
-2.47801e-06
-2.64442e-09
-8.42647e-08
-2.81063e-06
-7.02175e-10
-1.06044e-07
-3.15275e-06
7.07427e-10
-1.22066e-07
-3.50871e-06
1.70793e-09
-1.29436e-07
-3.87861e-06
2.2534e-09
-4.25849e-06
2.34827e-09
-1.25592e-07
-5.82748e-09
-5.50136e-08
-1.70177e-06
5.11137e-08
-2.33471e-08
-5.52333e-08
-2.11563e-06
5.27114e-08
-4.56792e-08
-5.43897e-08
-2.44949e-06
5.25383e-08
-6.92784e-08
-5.31533e-08
-2.77877e-06
5.16845e-08
-9.12153e-08
-5.12983e-08
-3.11874e-06
5.00444e-08
-1.08473e-07
-4.87461e-08
-3.47385e-06
4.75776e-08
-1.18007e-07
-4.55511e-08
-3.84434e-06
4.43659e-08
-4.18764e-08
-4.22637e-06
4.05998e-08
-1.17061e-07
-1.03687e-08
-5.411e-08
-1.71277e-06
-3.25703e-08
-5.30677e-08
-2.12726e-06
-5.92182e-08
-5.16663e-08
-2.46321e-06
-8.65866e-08
-5.01508e-08
-2.79569e-06
-1.11527e-07
-4.82107e-08
-3.13997e-06
-1.30792e-07
-4.57493e-08
-3.50052e-06
-1.4112e-07
-4.28031e-08
-3.87748e-06
-3.95062e-08
-4.26674e-06
-1.39589e-07
-1.50977e-08
-4.81003e-08
-1.72117e-06
-4.18676e-08
-4.60452e-08
-2.136e-06
-7.26709e-08
-4.42261e-08
-2.47368e-06
-1.03644e-07
-4.25283e-08
-2.80891e-06
-1.31451e-07
-4.06047e-08
-3.15696e-06
-1.52637e-07
-3.83674e-08
-3.52231e-06
-1.63751e-07
-3.5848e-08
-3.90502e-06
-3.31561e-08
-4.30074e-06
-1.61707e-07
-1.88337e-08
-3.79177e-08
-1.72555e-06
-4.9047e-08
-3.5127e-08
-2.14043e-06
-8.29046e-08
-3.30586e-08
-2.47911e-06
-1.16459e-07
-3.13104e-08
-2.81603e-06
-1.46253e-07
-2.95381e-08
-3.16646e-06
-1.68702e-07
-2.76783e-08
-3.53488e-06
-1.80239e-07
-2.57612e-08
-3.92131e-06
-2.3866e-08
-4.32122e-06
-1.77693e-07
-2.08971e-08
-2.51951e-08
-1.725e-06
-5.28565e-08
-2.18908e-08
-2.13955e-06
-8.81783e-08
-1.97155e-08
-2.47822e-06
-1.229e-07
-1.80331e-08
-2.81535e-06
-1.53527e-07
-1.65258e-08
-3.1662e-06
-1.76432e-07
-1.51582e-08
-3.53522e-06
-1.88017e-07
-1.39564e-08
-3.92242e-06
-1.29665e-08
-4.32322e-06
-1.85096e-07
-2.08534e-08
-1.20655e-08
-1.71925e-06
-5.25677e-08
-8.28724e-09
-2.13308e-06
-8.75282e-08
-6.07665e-09
-2.47069e-06
-1.21829e-07
-4.52372e-09
-2.80646e-06
-1.52025e-07
-3.33091e-09
-3.15563e-06
-1.74548e-07
-2.47594e-09
-3.52268e-06
-1.85854e-07
-1.97166e-09
-3.90766e-06
-1.82618e-09
-4.30606e-06
-1.82808e-07
-1.95209e-08
-1.70905e-06
1.98414e-10
-4.96175e-08
-2.12175e-06
4.41501e-09
-8.29509e-08
-2.45738e-06
6.65884e-09
-1.15763e-07
-2.79042e-06
8.10704e-09
-1.44734e-07
-3.1361e-06
9.03953e-09
-1.66412e-07
-3.49893e-06
9.47124e-09
-1.77348e-07
-3.87901e-06
9.40703e-09
-4.27202e-06
8.87265e-09
-1.74461e-07
-1.2583e-08
-6.08113e-08
-1.68666e-06
5.83122e-08
-3.85367e-08
-5.95963e-08
-2.08843e-06
5.83783e-08
-6.95573e-08
-5.77346e-08
-2.41778e-06
5.70754e-08
-1.01556e-07
-5.54134e-08
-2.74635e-06
5.50321e-08
-1.31051e-07
-5.22726e-08
-3.08892e-06
5.19848e-08
-1.54453e-07
-4.82352e-08
-3.45006e-06
4.78902e-08
-1.68168e-07
-4.34233e-08
-3.83007e-06
4.2902e-08
-3.81221e-08
-4.2248e-06
3.73445e-08
-1.68934e-07
-1.82559e-08
-5.78029e-08
-1.6975e-06
-4.96548e-08
-5.55931e-08
-2.09983e-06
-8.56064e-08
-5.33821e-08
-2.43158e-06
-1.21852e-07
-5.09768e-08
-2.76384e-06
-1.54695e-07
-4.79739e-08
-3.1114e-06
-1.80335e-07
-4.42862e-08
-3.47879e-06
-1.95004e-07
-4.00107e-08
-3.8662e-06
-3.53847e-08
-4.26913e-06
-1.9532e-07
-2.39843e-08
-4.90348e-08
-1.70593e-06
-6.06182e-08
-4.62687e-08
-2.10867e-06
-1.01245e-07
-4.39421e-08
-2.44248e-06
-1.4148e-07
-4.16402e-08
-2.77799e-06
-1.7745e-07
-3.89788e-08
-3.12997e-06
-2.05174e-07
-3.58895e-08
-3.50296e-06
-2.20738e-07
-3.24532e-08
-3.897e-06
-2.8854e-08
-4.30733e-06
-2.20652e-07
-2.83569e-08
-3.57155e-08
-1.7105e-06
-6.88461e-08
-3.28097e-08
-2.11339e-06
-1.12835e-07
-3.06092e-08
-2.44844e-06
-1.5587e-07
-2.86162e-08
-2.78601e-06
-1.93966e-07
-2.65133e-08
-3.14082e-06
-2.23032e-07
-2.42669e-08
-3.51743e-06
-2.39074e-07
-2.19406e-08
-3.91577e-06
-1.96528e-08
-4.33092e-06
-2.38556e-07
-3.05365e-08
-1.98596e-08
-1.71032e-06
-7.28324e-08
-1.70747e-08
-2.11298e-06
-1.1832e-07
-1.5167e-08
-2.44817e-06
-1.62536e-07
-1.36245e-08
-2.78612e-06
-2.01457e-07
-1.22221e-08
-3.14156e-06
-2.30963e-07
-1.09619e-08
-3.51901e-06
-2.47046e-07
-9.88544e-09
-3.91838e-06
-9.04086e-09
-4.33469e-06
-2.46167e-07
-3.00533e-08
-4.01784e-09
-1.70503e-06
-7.17992e-08
-1.30372e-09
-2.10708e-06
-1.16707e-07
3.0166e-10
-2.44123e-06
-1.60345e-07
1.37207e-09
-2.7778e-06
-1.98739e-07
2.07269e-09
-3.13151e-06
-2.27818e-07
2.38423e-09
-3.50693e-06
-2.43616e-07
2.29442e-09
-3.90402e-06
1.82905e-09
-4.31788e-06
-2.42629e-07
-2.78143e-08
-1.69545e-06
1.02214e-08
-6.72804e-08
-2.09652e-06
1.29678e-08
-1.10047e-07
-2.42863e-06
1.43505e-08
-1.51825e-07
-2.76231e-06
1.50786e-08
-1.88751e-07
-3.11231e-06
1.52468e-08
-2.16853e-07
-3.48323e-06
1.48266e-08
-2.32228e-07
-3.87513e-06
1.38379e-08
-4.28333e-06
1.2365e-08
-2.31403e-07
-2.08911e-08
-6.54664e-08
-1.66445e-06
6.41537e-08
-5.63251e-08
-6.22633e-08
-2.05283e-06
6.21062e-08
-9.69318e-08
-5.89391e-08
-2.37744e-06
5.92054e-08
-1.38129e-07
-5.50316e-08
-2.70555e-06
5.54358e-08
-1.75913e-07
-5.00501e-08
-3.05146e-06
5.03782e-08
-2.062e-07
-4.3952e-08
-3.41984e-06
4.40218e-08
-2.24959e-07
-3.69698e-08
-3.81098e-06
3.66395e-08
-2.95498e-08
-4.2204e-06
2.8735e-08
-2.28534e-07
-2.76129e-08
-6.068e-08
-1.67466e-06
-6.90831e-08
-5.68318e-08
-2.06379e-06
-1.15006e-07
-5.34264e-08
-2.39116e-06
-1.60671e-07
-4.97094e-08
-2.7235e-06
-2.019e-07
-4.51854e-08
-3.07503e-06
-2.34456e-07
-3.98048e-08
-3.45038e-06
-2.54218e-07
-3.37591e-08
-3.84965e-06
-2.74169e-08
-4.26799e-06
-2.57485e-07
-3.42674e-08
-4.9589e-08
-1.68275e-06
-8.14653e-08
-4.57662e-08
-2.07255e-06
-1.32355e-07
-4.26487e-08
-2.40237e-06
-1.82145e-07
-3.94449e-08
-2.73846e-06
-2.26519e-07
-3.57328e-08
-3.09504e-06
-2.61127e-07
-3.14829e-08
-3.47667e-06
-2.81779e-07
-2.68464e-08
-3.88325e-06
-2.2097e-08
-4.30968e-06
-2.84744e-07
-3.92088e-08
-3.36642e-08
-1.68722e-06
-9.05391e-08
-3.04507e-08
-2.07739e-06
-1.44935e-07
-2.79678e-08
-2.40873e-06
-1.9757e-07
-2.55884e-08
-2.74723e-06
-2.44047e-07
-2.30202e-08
-3.10705e-06
-2.79951e-07
-2.02669e-08
-3.49274e-06
-3.01064e-07
-1.74323e-08
-3.90406e-06
-1.46753e-08
-4.33574e-06
-3.03659e-07
-4.14854e-08
-1.52216e-08
-1.68728e-06
-9.46412e-08
-1.29361e-08
-2.07735e-06
-1.50517e-07
-1.12929e-08
-2.40897e-06
-2.0429e-07
-9.9139e-09
-2.74802e-06
-2.51541e-07
-8.66547e-09
-3.10866e-06
-2.87839e-07
-7.5836e-09
-3.49539e-06
-3.08971e-07
-6.71933e-09
-3.90795e-06
-6.11214e-09
-4.34099e-06
-3.11224e-07
-4.05721e-08
2.82187e-09
-1.6825e-06
-9.2929e-08
4.33272e-09
-2.072e-06
-1.48057e-07
5.18064e-09
-2.40258e-06
-2.01159e-07
5.60608e-09
-2.74021e-06
-2.47847e-07
5.60931e-09
-3.09909e-06
-2.83724e-07
5.13913e-09
-3.48376e-06
-3.04601e-07
4.2038e-09
-3.89405e-06
2.88276e-09
-4.32466e-06
-3.06784e-07
-3.74627e-08
-1.67376e-06
1.86041e-08
-8.70265e-08
-2.06228e-06
1.96648e-08
-1.397e-07
-2.39072e-06
1.99573e-08
-1.90753e-07
-2.72531e-06
1.96717e-08
-2.35888e-07
-3.08028e-06
1.87214e-08
-2.70769e-07
-3.46025e-06
1.70561e-08
-2.91233e-07
-3.86518e-06
1.47413e-08
-4.29002e-06
1.19533e-08
-2.9358e-07
-3.05895e-08
-6.83212e-08
6.79558e-08
-1.63349e-06
-7.61171e-08
-6.25351e-08
6.31402e-08
-2.00792e-06