/*--------------------------------*- C++ -*----------------------------------*\
| =========                 |                                                 |
| \\      /  F ield         | OpenFOAM: The Open Source CFD Toolbox           |
|  \\    /   O peration     | Version:  plus.master.MPPICInterFoam            |
|   \\  /    A nd           | Web:      www.OpenFOAM.com                      |
|    \\/     M anipulation  |                                                 |
\*---------------------------------------------------------------------------*/
FoamFile
{
    version     2.0;
    format      ascii;
    class       volScalarField;
    location    "7.8";
    object      nut;
}
// * * * * * * * * * * * * * * * * * * * * * * * * * * * * * * * * * * * * * //

dimensions      [0 2 -1 0 0 0 0];

internalField   nonuniform List<scalar> 
11821
(
4.20695e-06
1.42067e-05
2.69434e-05
3.60111e-05
4.15519e-05
4.43866e-05
4.50184e-05
4.36282e-05
4.21269e-06
1.41016e-05
2.68132e-05
3.59076e-05
4.14774e-05
4.43346e-05
4.49834e-05
4.36076e-05
4.21611e-06
1.40557e-05
2.6756e-05
3.58617e-05
4.14427e-05
4.43068e-05
4.49595e-05
4.35864e-05
4.21674e-06
1.40547e-05
2.6757e-05
3.58637e-05
4.14426e-05
4.43031e-05
4.49521e-05
4.35763e-05
4.21429e-06
1.41337e-05
2.68587e-05
3.59467e-05
4.15008e-05
4.4339e-05
4.49693e-05
4.35782e-05
4.20861e-06
1.42894e-05
2.70587e-05
3.61088e-05
4.16151e-05
4.44126e-05
4.50107e-05
4.35945e-05
4.20008e-06
1.45922e-05
2.74352e-05
3.64072e-05
4.18227e-05
4.45436e-05
4.50791e-05
4.36091e-05
4.20336e-06
1.42714e-05
2.7016e-05
3.60498e-05
4.15433e-05
4.43295e-05
4.49189e-05
4.34993e-05
4.2091e-06
1.41949e-05
2.69227e-05
3.59742e-05
4.14839e-05
4.42801e-05
4.48756e-05
4.34621e-05
4.2125e-06
1.4169e-05
2.68907e-05
3.59465e-05
4.14577e-05
4.42515e-05
4.48429e-05
4.34261e-05
4.21313e-06
1.41805e-05
2.69064e-05
3.5958e-05
4.14609e-05
4.42452e-05
4.48279e-05
4.34045e-05
4.21066e-06
1.42579e-05
2.70036e-05
3.60351e-05
4.1513e-05
4.42751e-05
4.48392e-05
4.34006e-05
4.20499e-06
1.43942e-05
2.71751e-05
3.61726e-05
4.161e-05
4.43388e-05
4.48771e-05
4.3418e-05
4.19647e-06
1.46461e-05
2.74832e-05
3.64153e-05
4.17805e-05
4.44505e-05
4.49413e-05
4.34409e-05
4.20159e-06
1.43453e-05
2.70986e-05
3.60851e-05
4.15113e-05
4.42269e-05
4.47537e-05
4.3291e-05
4.2076e-06
1.42967e-05
2.70403e-05
3.60343e-05
4.1462e-05
4.41731e-05
4.46935e-05
4.32272e-05
4.21125e-06
1.429e-05
2.70322e-05
3.60223e-05
4.14403e-05
4.4138e-05
4.46448e-05
4.31682e-05
4.2121e-06
1.4313e-05
2.70612e-05
3.60415e-05
4.14441e-05
4.41255e-05
4.46176e-05
4.31299e-05
4.2098e-06
1.4388e-05
2.71531e-05
3.61125e-05
4.14898e-05
4.41489e-05
4.46223e-05
4.31194e-05
4.20426e-06
1.45057e-05
2.72986e-05
3.62285e-05
4.15732e-05
4.42067e-05
4.46608e-05
4.31423e-05
4.19587e-06
1.47118e-05
2.75468e-05
3.64243e-05
4.17152e-05
4.43073e-05
4.47292e-05
4.31819e-05
4.20173e-06
1.44321e-05
2.7192e-05
3.61094e-05
4.14372e-05
4.4049e-05
4.44838e-05
4.29583e-05
4.20826e-06
1.44107e-05
2.71668e-05
3.6079e-05
4.13911e-05
4.39814e-05
4.4395e-05
4.28552e-05
4.21243e-06
1.4423e-05
2.7181e-05
3.60794e-05
4.13681e-05
4.39314e-05
4.43199e-05
4.27614e-05
4.21371e-06
1.44572e-05
2.72221e-05
3.61039e-05
4.13685e-05
4.3907e-05
4.42734e-05
4.26985e-05
4.2117e-06
1.45291e-05
2.73083e-05
3.61681e-05
4.14068e-05
4.39225e-05
4.42699e-05
4.26798e-05
4.20634e-06
1.46289e-05
2.74294e-05
3.62651e-05
4.14796e-05
4.39779e-05
4.43128e-05
4.27123e-05
4.19806e-06
1.47933e-05
2.76245e-05
3.64216e-05
4.16011e-05
4.40761e-05
4.43947e-05
4.27783e-05
4.20406e-06
1.45394e-05
2.73006e-05
3.61148e-05
4.12983e-05
4.37588e-05
4.40605e-05
4.24456e-05
4.21138e-06
1.45454e-05
2.73066e-05
3.60996e-05
4.12463e-05
4.36648e-05
4.3928e-05
4.22866e-05
4.21634e-06
1.45775e-05
2.73422e-05
3.61081e-05
4.12141e-05
4.3589e-05
4.3813e-05
4.21436e-05
4.21825e-06
1.46229e-05
2.73941e-05
3.61344e-05
4.12055e-05
4.3545e-05
4.37381e-05
4.20465e-05
4.21665e-06
1.46916e-05
2.74739e-05
3.61906e-05
4.12345e-05
4.355e-05
4.37234e-05
4.20164e-05
4.21146e-06
1.47737e-05
2.75718e-05
3.62707e-05
4.12995e-05
4.36063e-05
4.37745e-05
4.20627e-05
4.20319e-06
1.48994e-05
2.7719e-05
3.63942e-05
4.14082e-05
4.37107e-05
4.38793e-05
4.21649e-05
4.20901e-06
1.46794e-05
2.74323e-05
3.60938e-05
4.10697e-05
4.33163e-05
4.34322e-05
4.16947e-05
4.21751e-06
1.47143e-05
2.74683e-05
3.60878e-05
4.10014e-05
4.3182e-05
4.32402e-05
4.14639e-05
4.22357e-06
1.47679e-05
2.75244e-05
3.60992e-05
4.0951e-05
4.30682e-05
4.30717e-05
4.12578e-05
4.22634e-06
1.48253e-05
2.75859e-05
3.61233e-05
4.09265e-05
4.29958e-05
4.29588e-05
4.1117e-05
4.22524e-06
1.48908e-05
2.76584e-05
3.61697e-05
4.09435e-05
4.29871e-05
4.29291e-05
4.10723e-05
4.22017e-06
1.49551e-05
2.77337e-05
3.62342e-05
4.10029e-05
4.30465e-05
4.29909e-05
4.11348e-05
4.21173e-06
1.50439e-05
2.78368e-05
3.63297e-05
4.11047e-05
4.3165e-05
4.31267e-05
4.12805e-05
4.21737e-06
1.48699e-05
2.76005e-05
3.60435e-05
4.07333e-05
4.26924e-05
4.25646e-05
4.06701e-05
4.22747e-06
1.49368e-05
2.76659e-05
3.60414e-05
4.06395e-05
4.25074e-05
4.23037e-05
4.03603e-05
4.23504e-06
1.50147e-05
2.77421e-05
3.60503e-05
4.05629e-05
4.23465e-05
4.20734e-05
4.00858e-05
4.23896e-06
1.50856e-05
2.78111e-05
3.60684e-05
4.0516e-05
4.22392e-05
4.19175e-05
3.98985e-05
4.23848e-06
1.51479e-05
2.78761e-05
3.61018e-05
4.05175e-05
4.22135e-05
4.18704e-05
3.98373e-05
4.23343e-06
1.5194e-05
2.79273e-05
3.61499e-05
4.05716e-05
4.22774e-05
4.19431e-05
3.99145e-05
4.22461e-06
1.52444e-05
2.79805e-05
3.62204e-05
4.0675e-05
4.24181e-05
4.21155e-05
4.01049e-05
4.23026e-06
1.51356e-05
2.78266e-05
3.59739e-05
4.0294e-05
4.18952e-05
4.14759e-05
3.94011e-05
4.24255e-06
1.52395e-05
2.79222e-05
3.59733e-05
4.01718e-05
4.16616e-05
4.1155e-05
3.90281e-05
4.25218e-06
1.53457e-05
2.80186e-05
3.59752e-05
4.00664e-05
4.14579e-05
4.08749e-05
3.87024e-05
4.25765e-06
1.54323e-05
2.809e-05
3.5981e-05
3.99975e-05
4.13211e-05
4.06857e-05
3.8482e-05
4.25795e-06
1.54896e-05
2.81381e-05
3.60002e-05
3.99853e-05
4.12813e-05
4.06247e-05
3.84081e-05
4.2528e-06
1.55097e-05
2.8162e-05
3.60346e-05
4.00356e-05
4.13474e-05
4.07027e-05
3.84914e-05
4.24317e-06
1.55108e-05
2.8176e-05
3.60888e-05
4.01429e-05
4.15058e-05
4.09002e-05
3.87095e-05
4.2494e-06
1.55097e-05
2.81456e-05
3.59197e-05
3.9804e-05
4.10103e-05
4.02862e-05
3.80332e-05
4.26471e-06
1.56576e-05
2.82672e-05
3.59214e-05
3.96704e-05
4.07588e-05
3.99494e-05
3.76508e-05
4.2772e-06
1.57908e-05
2.83741e-05
3.59248e-05
3.95557e-05
4.05424e-05
3.96607e-05
3.73241e-05
4.28479e-06
1.58798e-05
2.84504e-05
3.59293e-05
3.94792e-05
4.03971e-05
3.94672e-05
3.71059e-05
4.28599e-06
1.59236e-05
2.84908e-05
3.59407e-05
3.94584e-05
4.03494e-05
3.94007e-05
3.70296e-05
4.28036e-06
1.59208e-05
2.84937e-05
3.59611e-05
3.94993e-05
4.0407e-05
3.94686e-05
3.71008e-05
4.26919e-06
1.58862e-05
2.84724e-05
3.59949e-05
3.95975e-05
4.05597e-05
3.96577e-05
3.73054e-05
4.27737e-06
1.60326e-05
2.85909e-05
3.59616e-05
3.94029e-05
4.02343e-05
3.92446e-05
3.68512e-05
4.29692e-06
1.62105e-05
2.87497e-05
3.59957e-05
3.9302e-05
4.00273e-05
3.89716e-05
3.65509e-05
4.3132e-06
1.63633e-05
2.88899e-05
3.60276e-05
3.9218e-05
3.98545e-05
3.87456e-05
3.63045e-05
4.32333e-06
1.647e-05
2.89867e-05
3.60492e-05
3.91612e-05
3.97391e-05
3.85965e-05
3.61438e-05
4.3254e-06
1.65149e-05
2.90268e-05
3.60591e-05
3.91402e-05
3.9695e-05
3.85389e-05
3.60817e-05
4.31887e-06
1.6493e-05
2.90076e-05
3.60587e-05
3.91587e-05
3.97257e-05
3.85741e-05
3.61158e-05
4.30541e-06
1.64206e-05
2.89441e-05
3.60555e-05
3.92182e-05
3.98299e-05
3.8701e-05
3.62468e-05
4.31797e-06
1.6717e-05
2.92577e-05
3.62576e-05
3.93166e-05
3.98625e-05
3.87028e-05
3.62389e-05
4.34295e-06
1.69433e-05
2.94851e-05
3.63704e-05
3.93165e-05
3.97893e-05
3.85983e-05
3.61325e-05
4.36399e-06
1.71445e-05
2.96854e-05
3.64711e-05
3.93228e-05
3.97378e-05
3.85252e-05
3.6062e-05
4.37733e-06
1.72823e-05
2.98199e-05
3.65369e-05
3.93259e-05
3.97042e-05
3.84802e-05
3.60215e-05
4.38043e-06
1.73327e-05
2.98657e-05
3.65539e-05
3.93171e-05
3.96799e-05
3.84506e-05
3.59937e-05
4.37251e-06
1.72894e-05
2.98183e-05
3.65207e-05
3.92952e-05
3.96612e-05
3.84286e-05
3.59665e-05
4.35579e-06
1.71717e-05
2.96973e-05
3.64518e-05
3.92725e-05
3.96613e-05
3.84305e-05
3.59593e-05
4.37581e-06
1.76415e-05
3.02792e-05
3.70153e-05
3.98306e-05
4.02419e-05
3.90435e-05
3.65879e-05
4.4078e-06
1.79433e-05
3.06128e-05
3.72669e-05
4.00143e-05
4.04014e-05
3.92127e-05
3.67786e-05
4.43507e-06
1.82089e-05
3.09039e-05
3.7488e-05
4.01817e-05
4.05543e-05
3.93801e-05
3.69687e-05
4.45258e-06
1.83872e-05
3.10962e-05
3.76323e-05
4.02913e-05
4.06569e-05
3.94954e-05
3.71021e-05
4.45694e-06
1.84464e-05
3.11542e-05
3.76675e-05
4.03098e-05
4.06703e-05
3.95126e-05
3.71271e-05
4.44705e-06
1.83782e-05
3.10703e-05
3.75869e-05
4.02287e-05
4.05819e-05
3.94142e-05
3.70219e-05
4.4258e-06
1.8206e-05
3.08709e-05
3.74159e-05
4.0075e-05
4.04227e-05
3.92358e-05
3.68252e-05
4.45718e-06
1.88884e-05
3.18066e-05
3.8468e-05
4.12398e-05
4.16969e-05
4.05902e-05
3.82001e-05
4.49831e-06
1.92832e-05
3.22865e-05
3.8923e-05
4.16878e-05
4.2174e-05
4.11129e-05
3.87567e-05
4.53368e-06
1.96266e-05
3.27019e-05
3.93187e-05
4.20826e-05
4.26002e-05
4.15842e-05
3.92618e-05
4.55656e-06
1.9854e-05
3.29741e-05
3.95767e-05
4.23414e-05
4.28823e-05
4.18992e-05
3.96019e-05
4.56249e-06
1.99249e-05
3.30519e-05
3.9642e-05
4.24021e-05
4.2949e-05
4.19778e-05
3.96922e-05
4.54987e-06
1.98287e-05
3.29229e-05
3.95009e-05
4.22474e-05
4.27783e-05
4.17937e-05
3.95032e-05
4.52266e-06
1.95937e-05
3.26229e-05
3.91922e-05
4.1921e-05
4.24194e-05
4.14009e-05
3.90912e-05
4.57015e-06
2.05268e-05
3.39916e-05
4.08336e-05
4.37878e-05
4.44606e-05
4.3542e-05
4.12329e-05
4.62293e-06
2.10271e-05
3.46545e-05
4.15464e-05
4.45586e-05
4.53063e-05
4.44554e-05
4.2178e-05
4.6687e-06
2.14583e-05
3.52243e-05
4.21606e-05
4.5227e-05
4.60448e-05
4.52579e-05
4.30132e-05
4.69835e-06
2.17408e-05
3.55957e-05
4.25602e-05
4.56634e-05
4.65295e-05
4.57874e-05
4.35671e-05
4.70622e-06
2.18263e-05
3.57007e-05
4.26663e-05
4.57775e-05
4.66594e-05
4.5935e-05
4.37277e-05
4.69006e-06
2.17008e-05
3.55208e-05
4.2457e-05
4.55433e-05
4.64043e-05
4.56675e-05
4.34606e-05
4.65524e-06
2.13977e-05
3.51017e-05
4.1985e-05
4.502e-05
4.5829e-05
4.50528e-05
4.28341e-05
4.13074e-06
1.52159e-05
2.81345e-05
3.69074e-05
4.21231e-05
4.46963e-05
4.51325e-05
4.35977e-05
4.13108e-06
1.54565e-05
2.84356e-05
3.71451e-05
4.22659e-05
4.47412e-05
4.50837e-05
4.3464e-05
4.13378e-06
1.55525e-05
2.86225e-05
3.73529e-05
4.24623e-05
4.14788e-06
1.6193e-05
4.1402e-06
4.12731e-06
1.51812e-05
2.80745e-05
3.68418e-05
4.20589e-05
4.46346e-05
4.50729e-05
4.35419e-05
4.12637e-06
1.53623e-05
2.82957e-05
3.70107e-05
4.21544e-05
4.46558e-05
4.50242e-05
4.34304e-05
4.12766e-06
1.53919e-05
2.8374e-05
3.71047e-05
4.2246e-05
4.47405e-05
4.51032e-05
4.35041e-05
4.13605e-06
1.58208e-05
2.89153e-05
3.75515e-05
4.25449e-05
4.48729e-05
4.50525e-05
4.32607e-05
4.1323e-06
1.54137e-05
2.83976e-05
3.71205e-05
4.22568e-05
4.47491e-05
4.51094e-05
4.35087e-05
4.13404e-06
1.52848e-05
2.82183e-05
3.69636e-05
4.21418e-05
4.46743e-05
4.50671e-05
4.349e-05
4.13688e-06
1.50333e-05
2.79043e-05
3.67191e-05
4.19997e-05
4.46354e-05
4.51245e-05
4.36316e-05
4.12597e-06
1.51509e-05
2.80243e-05
3.67823e-05
4.1992e-05
4.45589e-05
4.49889e-05
4.34544e-05
4.1241e-06
1.52851e-05
2.81854e-05
3.69023e-05
4.20563e-05
4.45677e-05
4.4946e-05
4.33657e-05
4.12445e-06
1.5284e-05
2.82086e-05
3.6936e-05
4.20926e-05
4.4605e-05
4.4985e-05
4.34079e-05
4.12951e-06
1.55695e-05
2.85673e-05
3.72282e-05
4.22812e-05
4.46779e-05
4.49336e-05
4.32275e-05
4.12782e-06
1.5282e-05
2.82066e-05
3.69349e-05
4.20949e-05
4.46123e-05
4.49976e-05
4.34245e-05
4.13024e-06
1.51971e-05
2.80923e-05
3.68407e-05
4.20335e-05
4.45811e-05
4.49891e-05
4.34299e-05
4.13356e-06
1.49962e-05
2.78448e-05
3.66514e-05
4.1927e-05
4.45571e-05
4.50408e-05
4.35469e-05
4.12613e-06
1.51275e-05
2.79822e-05
3.67207e-05
4.19065e-05
4.44464e-05
4.48515e-05
4.33026e-05
4.12363e-06
1.5225e-05
2.80974e-05
3.68042e-05
4.19484e-05
4.44475e-05
4.48148e-05
4.32328e-05
4.12327e-06
1.52116e-05
2.80949e-05
3.68084e-05
4.19565e-05
4.44596e-05
4.48324e-05
4.32575e-05
4.12626e-06
1.5399e-05
2.83296e-05
3.69979e-05
4.20764e-05
4.45023e-05
4.47927e-05
4.31333e-05
4.12557e-06
1.51927e-05
2.80742e-05
3.67952e-05
4.19548e-05
4.44705e-05
4.4855e-05
4.32889e-05
4.12816e-06
1.51313e-05
2.7995e-05
3.67347e-05
4.1922e-05
4.44626e-05
4.48652e-05
4.3309e-05
4.13167e-06
1.49663e-05
2.77944e-05
3.65842e-05
4.18401e-05
4.44474e-05
4.49101e-05
4.34043e-05
4.12759e-06
1.51158e-05
2.79499e-05
3.66505e-05
4.1786e-05
4.427e-05
4.46246e-05
4.30443e-05
4.1247e-06
1.51849e-05
2.80297e-05
3.67057e-05
4.18104e-05
4.42645e-05
4.45915e-05
4.29874e-05
4.12374e-06
1.51682e-05
2.80166e-05
3.66967e-05
4.1805e-05
4.42638e-05
4.45969e-05
4.30003e-05
4.12537e-06
1.52885e-05
2.81672e-05
3.68177e-05
4.18813e-05
4.42911e-05
4.45723e-05
4.29228e-05
4.12507e-06
1.51375e-05
2.79832e-05
3.66763e-05
4.18036e-05
4.42824e-05
4.46338e-05
4.30511e-05
4.12755e-06
1.50879e-05
2.79226e-05
3.66347e-05
4.17881e-05
4.42905e-05
4.46593e-05
4.30863e-05
4.13112e-06
1.49458e-05
2.7754e-05
3.65122e-05
4.17247e-05
4.4283e-05
4.47005e-05
4.31673e-05
4.13049e-06
1.5123e-05
2.79314e-05
3.65649e-05
4.161e-05
4.39958e-05
4.4262e-05
4.26252e-05
4.12732e-06
1.51708e-05
2.79845e-05
3.65983e-05
4.16198e-05
4.3983e-05
4.42284e-05
4.25737e-05
4.12584e-06
1.51545e-05
2.79678e-05
3.65835e-05
4.16077e-05
4.39746e-05
4.42248e-05
4.2576e-05
4.12652e-06
1.52291e-05
2.80614e-05
3.66594e-05
4.16575e-05
4.39963e-05
4.42168e-05
4.25377e-05
4.12626e-06
1.51158e-05
2.79268e-05
3.65617e-05
4.16127e-05
4.40079e-05
4.42837e-05
4.26543e-05
4.12847e-06
1.50712e-05
2.78759e-05
3.65321e-05
4.16109e-05
4.40315e-05
4.4327e-05
4.27096e-05
4.13213e-06
1.49396e-05
2.77272e-05
3.64301e-05
4.15635e-05
4.40332e-05
4.43702e-05
4.27853e-05
4.13521e-06
1.51597e-05
2.79335e-05
3.64572e-05
4.13555e-05
4.35845e-05
4.3711e-05
4.19833e-05
4.13178e-06
1.51916e-05
2.79663e-05
3.64732e-05
4.13522e-05
4.35625e-05
4.36714e-05
4.19289e-05
4.12985e-06
1.51768e-05
2.79489e-05
3.64559e-05
4.1336e-05
4.35482e-05
4.36592e-05
4.19193e-05
4.12981e-06
1.52203e-05
2.80045e-05
3.65032e-05
4.13713e-05
4.3571e-05
4.3669e-05
4.19151e-05
4.12941e-06
1.5133e-05
2.7905e-05
3.64386e-05
4.13547e-05
4.36045e-05
4.37497e-05
4.20355e-05
4.13124e-06
1.50898e-05
2.78599e-05
3.6419e-05
4.13671e-05
4.36467e-05
4.38163e-05
4.21181e-05
4.1349e-06
1.49639e-05
2.77265e-05
3.63358e-05
4.13367e-05
4.36618e-05
4.38686e-05
4.2198e-05
4.14234e-06
1.52404e-05
2.79669e-05
3.63235e-05
4.10018e-05
4.30011e-05
4.29255e-05
4.10657e-05
4.13861e-06
1.526e-05
2.79835e-05
3.63244e-05
4.09851e-05
4.29666e-05
4.28737e-05
4.09992e-05
4.13631e-06
1.52468e-05
2.79663e-05
3.63057e-05
4.09656e-05
4.29461e-05
4.28519e-05
4.09759e-05
4.13566e-06
1.52693e-05
2.79972e-05
3.63361e-05
4.09952e-05
4.29755e-05
4.28805e-05
4.10022e-05
4.13503e-06
1.52e-05
2.79239e-05
3.6299e-05
4.10056e-05
4.30342e-05
4.29833e-05
4.11394e-05
4.13644e-06
1.51567e-05
2.78839e-05
3.62904e-05
4.10348e-05
4.30994e-05
4.30787e-05
4.12555e-05
4.13995e-06
1.50371e-05
2.77682e-05
3.62286e-05
4.10243e-05
4.31315e-05
4.31454e-05
4.13474e-05
4.15275e-06
1.53846e-05
2.80489e-05
3.61685e-05
4.05432e-05
4.22342e-05
4.18941e-05
3.98628e-05
4.14866e-06
1.53938e-05
2.80513e-05
3.61549e-05
4.05114e-05
4.2183e-05
4.18235e-05
3.97758e-05
4.14602e-06
1.53815e-05
2.80341e-05
3.61346e-05
4.04879e-05
4.21554e-05
4.17906e-05
3.97373e-05
4.14487e-06
1.53899e-05
2.80497e-05
3.61567e-05
4.05184e-05
4.21948e-05
4.18379e-05
3.97899e-05
4.14394e-06
1.53339e-05
2.79973e-05
3.6144e-05
4.05553e-05
4.22811e-05
4.19676e-05
3.99512e-05
4.14491e-06
1.52911e-05
2.79637e-05
3.61484e-05
4.06039e-05
4.23717e-05
4.20936e-05
4.01016e-05
4.14813e-06
1.51821e-05
2.78726e-05
3.6111e-05
4.0614e-05
4.24222e-05
4.2177e-05
4.02083e-05
4.16773e-06
1.56183e-05
2.82076e-05
3.60175e-05
4.00093e-05
4.13277e-05
4.06811e-05
3.84579e-05
4.16318e-06
1.56177e-05
2.81961e-05
3.59882e-05
3.99593e-05
4.12554e-05
4.05865e-05
3.83453e-05
4.1602e-06
1.5605e-05
2.81777e-05
3.59652e-05
3.99308e-05
4.12196e-05
4.05423e-05
3.82926e-05
4.1586e-06
1.56043e-05
2.81848e-05
3.5985e-05
3.99659e-05
4.12699e-05
4.06054e-05
3.83644e-05
4.15739e-06
1.55586e-05
2.81501e-05
3.59942e-05
4.00274e-05
4.13815e-05
4.07589e-05
3.85459e-05
4.15793e-06
1.55187e-05
2.81249e-05
3.60126e-05
4.00949e-05
4.14947e-05
4.09092e-05
3.87208e-05
4.16072e-06
1.54295e-05
2.80634e-05
3.59977e-05
4.01238e-05
4.15613e-05
4.1006e-05
3.88382e-05
4.18918e-06
1.59761e-05
2.8489e-05
3.59315e-05
3.9491e-05
4.04155e-05
3.94674e-05
3.70703e-05
4.184e-06
1.59647e-05
2.84619e-05
3.58836e-05
3.94194e-05
4.03189e-05
3.93481e-05
3.69347e-05
4.18064e-06
1.59504e-05
2.8441e-05
3.58565e-05
3.93847e-05
4.02752e-05
3.92948e-05
3.68729e-05
4.17863e-06
1.59438e-05
2.84438e-05
3.58771e-05
3.94249e-05
4.03332e-05
3.93664e-05
3.69525e-05
4.17717e-06
1.59066e-05
2.8424e-05
3.59044e-05
3.95047e-05
4.046e-05
3.95291e-05
3.71358e-05
4.17734e-06
1.58718e-05
2.8408e-05
3.59349e-05
3.95853e-05
4.05843e-05
3.96857e-05
3.73106e-05
4.17971e-06
1.58134e-05
2.83708e-05
3.59383e-05
3.96278e-05
4.06596e-05
3.97857e-05
3.74254e-05
4.21991e-06
1.65033e-05
2.89646e-05
3.60231e-05
3.91612e-05
3.97399e-05
3.85619e-05
3.60563e-05
4.21382e-06
1.64791e-05
2.89189e-05
3.59531e-05
3.90653e-05
3.96201e-05
3.8424e-05
3.59102e-05
4.20994e-06
1.64617e-05
2.88937e-05
3.59205e-05
3.90243e-05
3.95707e-05
3.83679e-05
3.58499e-05
4.20759e-06
1.64513e-05
2.88948e-05
3.59421e-05
3.90663e-05
3.9629e-05
3.84364e-05
3.59222e-05
4.20598e-06
1.64209e-05
2.88862e-05
3.59805e-05
3.91521e-05
3.97523e-05
3.85829e-05
3.60763e-05
4.20593e-06
1.63915e-05
2.88778e-05
3.60172e-05
3.92332e-05
3.98668e-05
3.87162e-05
3.62143e-05
4.20815e-06
1.63579e-05
2.88597e-05
3.60332e-05
3.92812e-05
3.99387e-05
3.88025e-05
3.63056e-05
4.26401e-06
1.72581e-05
2.97387e-05
3.64657e-05
3.92755e-05
3.9636e-05
3.836e-05
3.58447e-05
4.25655e-06
1.72181e-05
2.96707e-05
3.63702e-05
3.91554e-05
3.9499e-05
3.82177e-05
3.57093e-05
4.25198e-06
1.71959e-05
2.96394e-05
3.63312e-05
3.91095e-05
3.94494e-05
3.81687e-05
3.56648e-05
4.24933e-06
1.71834e-05
2.96395e-05
3.63513e-05
3.9147e-05
3.9498e-05
3.82212e-05
3.57151e-05
4.24776e-06
1.71584e-05
2.96376e-05
3.63908e-05
3.92217e-05
3.95931e-05
3.83206e-05
3.58053e-05
4.24775e-06
1.71335e-05
2.96331e-05
3.6424e-05
3.92853e-05
3.96711e-05
3.83966e-05
3.58676e-05
4.25026e-06
1.71146e-05
2.96288e-05
3.64464e-05
3.93287e-05
3.97248e-05
3.84499e-05
3.59124e-05
4.3273e-06
1.8312e-05
3.09513e-05
3.74869e-05
4.01447e-05
4.04746e-05
3.92618e-05
3.68337e-05
4.31782e-06
1.82528e-05
3.08567e-05
3.73637e-05
4.00038e-05
4.03319e-05
3.91341e-05
3.67338e-05
4.31224e-06
1.82241e-05
3.08178e-05
3.73181e-05
3.99562e-05
4.02895e-05
3.91039e-05
3.67198e-05
4.30939e-06
1.82106e-05
3.08162e-05
3.73328e-05
3.99821e-05
4.03191e-05
3.91303e-05
3.67383e-05
4.30815e-06
1.81904e-05
3.0816e-05
3.73618e-05
4.00274e-05
4.03626e-05
3.91564e-05
3.67385e-05
4.3086e-06
1.81704e-05
3.08115e-05
3.73805e-05
4.00548e-05
4.03793e-05
3.91469e-05
3.66961e-05
4.31194e-06
1.81637e-05
3.0818e-05
3.74037e-05
4.00844e-05
4.0402e-05
3.91518e-05
3.66782e-05
4.16504e-06
4.1728e-06
1.4713e-05
4.18198e-06
1.45624e-05
2.73803e-05
3.63527e-05
4.17885e-05
4.19096e-06
1.44822e-05
2.72819e-05
3.62768e-05
4.17369e-05
4.45067e-05
4.50876e-05
4.36542e-05
4.19953e-06
1.43163e-05
2.7081e-05
3.61209e-05
4.163e-05
4.44402e-05
4.50544e-05
4.36512e-05
4.14308e-06
1.48654e-05
2.77058e-05
3.65697e-05
4.19072e-05
4.45908e-05
4.51169e-05
4.36526e-05
4.15156e-06
1.47394e-05
2.75593e-05
3.64615e-05
4.1837e-05
4.45487e-05
4.50944e-05
4.36434e-05
4.16034e-06
1.46511e-05
2.74618e-05
3.6392e-05
4.17915e-05
4.45192e-05
4.50756e-05
4.36334e-05
4.16917e-06
1.46626e-05
2.7483e-05
3.64124e-05
4.18053e-05
4.45203e-05
4.50582e-05
4.35919e-05
4.17855e-06
1.45444e-05
2.73473e-05
3.63113e-05
4.17368e-05
4.44772e-05
4.50368e-05
4.35937e-05
4.18756e-06
1.44795e-05
2.72693e-05
3.62509e-05
4.16924e-05
4.44418e-05
4.50047e-05
4.35615e-05
4.19599e-06
1.43525e-05
2.71167e-05
3.61316e-05
4.16066e-05
4.43812e-05
4.4964e-05
4.35397e-05
4.14004e-06
1.48545e-05
2.76789e-05
3.65284e-05
4.18516e-05
4.45203e-05
4.50334e-05
4.35619e-05
4.14848e-06
1.47336e-05
2.75412e-05
3.6428e-05
4.17865e-05
4.44807e-05
4.50112e-05
4.35523e-05
4.1574e-06
1.46487e-05
2.7448e-05
3.63613e-05
4.17411e-05
4.44478e-05
4.49854e-05
4.35321e-05
4.16668e-06
1.46384e-05
2.74419e-05
3.63599e-05
4.17372e-05
4.44344e-05
4.49573e-05
4.3486e-05
4.17613e-06
1.45448e-05
2.73363e-05
3.62801e-05
4.1678e-05
4.43879e-05
4.49202e-05
4.34605e-05
4.18534e-06
1.44939e-05
2.72768e-05
3.62323e-05
4.16368e-05
4.43458e-05
4.48729e-05
4.34075e-05
4.19397e-06
1.44003e-05
2.71657e-05
3.61429e-05
4.15648e-05
4.4283e-05
4.48155e-05
4.3357e-05
4.13825e-06
1.48418e-05
2.76507e-05
3.64793e-05
4.1776e-05
4.44153e-05
4.49017e-05
4.34142e-05
4.14659e-06
1.47306e-05
2.75253e-05
3.6388e-05
4.17151e-05
4.43751e-05
4.48748e-05
4.33972e-05
4.1556e-06
1.46541e-05
2.74415e-05
3.63268e-05
4.16696e-05
4.43362e-05
4.48375e-05
4.33613e-05
4.16513e-06
1.46332e-05
2.74227e-05
3.63132e-05
4.16521e-05
4.43065e-05
4.47915e-05
4.32983e-05
4.17486e-06
1.45613e-05
2.73429e-05
3.625e-05
4.15966e-05
4.42503e-05
4.47321e-05
4.32398e-05
4.18449e-06
1.45254e-05
2.73019e-05
3.62126e-05
4.15534e-05
4.41933e-05
4.46588e-05
4.31532e-05
4.19357e-06
1.4462e-05
2.72278e-05
3.61475e-05
4.14879e-05
4.41192e-05
4.45743e-05
4.30636e-05
4.13767e-06
1.48347e-05
2.76274e-05
3.64212e-05
4.16691e-05
4.4254e-05
4.46907e-05
4.31717e-05
4.14586e-06
1.47359e-05
2.75166e-05
3.63395e-05
4.16113e-05
4.42101e-05
4.46544e-05
4.31412e-05
4.15497e-06
1.46703e-05
2.74449e-05
3.62843e-05
4.15634e-05
4.41601e-05
4.45983e-05
4.30807e-05
4.16483e-06
1.46481e-05
2.74237e-05
3.62643e-05
4.15325e-05
4.41095e-05
4.45251e-05
4.29881e-05
4.17503e-06
1.45973e-05
2.7368e-05
3.62138e-05
4.1474e-05
4.40341e-05
4.4432e-05
4.28844e-05
4.18527e-06
1.4578e-05
2.73462e-05
3.61844e-05
4.14226e-05
4.39525e-05
4.432e-05
4.27499e-05
4.19508e-06
1.45435e-05
2.73061e-05
3.61379e-05
4.13547e-05
4.38553e-05
4.41944e-05
4.26061e-05
4.13847e-06
1.48432e-05
2.76178e-05
3.63522e-05
4.15156e-05
4.40069e-05
4.43587e-05
4.27843e-05
4.14654e-06
1.47585e-05
2.7523e-05
3.628e-05
4.14587e-05
4.39556e-05
4.43077e-05
4.27337e-05
4.15583e-06
1.47059e-05
2.7465e-05
3.623e-05
4.14049e-05
4.38883e-05
4.42243e-05
4.26388e-05
4.16614e-06
1.46894e-05
2.74489e-05
3.62066e-05
4.13582e-05
4.38095e-05
4.41126e-05
4.25019e-05
4.17701e-06
1.46605e-05
2.74167e-05
3.61649e-05
4.12891e-05
4.37039e-05
4.39724e-05
4.23391e-05
4.18811e-06
1.46603e-05
2.74155e-05
3.61404e-05
4.12216e-05
4.35858e-05
4.38069e-05
4.21402e-05
4.19896e-06
1.46555e-05
2.7408e-05
3.61071e-05
4.11419e-05
4.34526e-05
4.36255e-05
4.19269e-05
4.141e-06
1.4881e-05
2.76334e-05
3.62702e-05
4.1296e-05
4.3638e-05
4.38553e-05
4.21917e-05
4.14902e-06
1.48112e-05
2.7555e-05
3.62065e-05
4.12377e-05
4.35756e-05
4.37849e-05
4.21156e-05
4.15862e-06
1.47734e-05
2.75124e-05
3.61609e-05
4.11741e-05
4.34847e-05
4.36661e-05
4.19772e-05
4.16957e-06
1.47688e-05
2.75069e-05
3.6135e-05
4.11079e-05
4.33698e-05
4.35053e-05
4.17835e-05
4.18137e-06
1.4764e-05
2.74992e-05
3.60989e-05
4.10207e-05
4.32237e-05
4.33062e-05
4.15497e-05
4.19363e-06
1.47868e-05
2.75206e-05
3.60766e-05
4.093e-05
4.30587e-05
4.30755e-05
4.12747e-05
4.20583e-06
1.48144e-05
2.75458e-05
3.60518e-05
4.08298e-05
4.28791e-05
4.28276e-05
4.09829e-05
4.14582e-06
1.49659e-05
2.76896e-05
3.61741e-05
4.09909e-05
4.31111e-05
4.31318e-05
4.13373e-05
4.15391e-06
1.49114e-05
2.76279e-05
3.61185e-05
4.09299e-05
4.30361e-05
4.30405e-05
4.12341e-05
4.16399e-06
1.48908e-05
2.76024e-05
3.60768e-05
4.0854e-05
4.29181e-05
4.28829e-05
4.10494e-05
4.17585e-06
1.49039e-05
2.7613e-05
3.60499e-05
4.07664e-05
4.27635e-05
4.26688e-05
4.07954e-05
4.18891e-06
1.49273e-05
2.76322e-05
3.60181e-05
4.06573e-05
4.25728e-05
4.24085e-05
4.04908e-05
4.20272e-06
1.49789e-05
2.76801e-05
3.59974e-05
4.05407e-05
4.23586e-05
4.21128e-05
4.01431e-05
4.21666e-06
1.50429e-05
2.77393e-05
3.5979e-05
4.0417e-05
4.21319e-05
4.18024e-05
3.97819e-05
4.15382e-06
1.51212e-05
2.78074e-05
3.60692e-05
4.05905e-05
4.24067e-05
4.21647e-05
4.01977e-05
4.16211e-06
1.50826e-05
2.77632e-05
3.60228e-05
4.05286e-05
4.23229e-05
4.20581e-05
4.00746e-05
4.17293e-06
1.50824e-05
2.7758e-05
3.59872e-05
4.04433e-05
4.21828e-05
4.18702e-05
3.98554e-05
4.18605e-06
1.51197e-05
2.7791e-05
3.59638e-05
4.03389e-05
4.19962e-05
4.16153e-05
3.95579e-05
4.20084e-06
1.51774e-05
2.78421e-05
3.59396e-05
4.02136e-05
4.17716e-05
4.13119e-05
3.92076e-05
4.21665e-06
1.52654e-05
2.79229e-05
3.59261e-05
4.00792e-05
4.15235e-05
4.09759e-05
3.88201e-05
4.23298e-06
1.53725e-05
2.80205e-05
3.59189e-05
3.99418e-05
4.12702e-05
4.06359e-05
3.84321e-05
4.16631e-06
1.53778e-05
2.80168e-05
3.59743e-05
4.01111e-05
4.15527e-05
4.09989e-05
3.8832e-05
4.175e-06
1.53563e-05
2.79925e-05
3.59435e-05
4.00575e-05
4.14708e-05
4.08922e-05
3.87091e-05
4.18689e-06
1.53808e-05
2.80133e-05
3.59219e-05
3.99756e-05
4.13287e-05
4.07021e-05
3.84903e-05
4.2018e-06
1.54506e-05
2.80777e-05
3.59133e-05
3.98722e-05
4.11385e-05
4.04463e-05
3.81977e-05
4.21884e-06
1.55503e-05
2.81696e-05
3.59083e-05
3.9752e-05
4.09166e-05
4.01507e-05
3.78632e-05
4.23744e-06
1.56844e-05
2.82938e-05
3.59143e-05
3.9628e-05
4.06816e-05
3.98375e-05
3.751e-05
4.25706e-06
1.58445e-05
2.84332e-05
3.59318e-05
3.95124e-05
4.04563e-05
3.95393e-05
3.71781e-05
4.1853e-06
1.57756e-05
2.83517e-05
3.59329e-05
3.9629e-05
4.06636e-05
3.97911e-05
3.74318e-05
4.19464e-06
1.57733e-05
2.83605e-05
3.59276e-05
3.95974e-05
4.06061e-05
3.97143e-05
3.73445e-05
4.20809e-06
1.58286e-05
2.84178e-05
3.5937e-05
3.95459e-05
4.05018e-05
3.95738e-05
3.71862e-05
4.22539e-06
1.59407e-05
2.85246e-05
3.59638e-05
3.94819e-05
4.03634e-05
3.93872e-05
3.69784e-05
4.2456e-06
1.60931e-05
2.86648e-05
3.60049e-05
3.9415e-05
4.0212e-05
3.91844e-05
3.67556e-05
4.26809e-06
1.62829e-05
2.88368e-05
3.60663e-05
3.93597e-05
4.00687e-05
3.89902e-05
3.65434e-05
4.29228e-06
1.64926e-05
2.90346e-05
3.61518e-05
3.93296e-05
3.99566e-05
3.88359e-05
3.63791e-05
4.21387e-06
1.63504e-05
2.8865e-05
3.6049e-05
3.93029e-05
3.99639e-05
3.88298e-05
3.63335e-05
4.2242e-06
1.63811e-05
2.8912e-05
3.6083e-05
3.93178e-05
3.99645e-05
3.88237e-05
3.63259e-05
4.23979e-06
1.64757e-05
2.90191e-05
3.61497e-05
3.93394e-05
3.99552e-05
3.88006e-05
3.63018e-05
4.26046e-06
1.6637e-05
2.91864e-05
3.62513e-05
3.93736e-05
3.99455e-05
3.87733e-05
3.62747e-05
4.28514e-06
1.68419e-05
2.94005e-05
3.63863e-05
3.94307e-05
3.99554e-05
3.87675e-05
3.62731e-05
4.31302e-06
1.70803e-05
2.9657e-05
3.65589e-05
3.95231e-05
4.00026e-05
3.88031e-05
3.63161e-05
4.34333e-06
1.73458e-05
2.99509e-05
3.67716e-05
3.96614e-05
4.0105e-05
3.89038e-05
3.64311e-05
4.25664e-06
1.71305e-05
2.96604e-05
3.64897e-05
3.93798e-05
3.97808e-05
3.85077e-05
3.59685e-05
4.26849e-06
1.7201e-05
2.97554e-05
3.65842e-05
3.94723e-05
3.9877e-05
3.86121e-05
3.60798e-05
4.28702e-06
1.73436e-05
2.99317e-05
3.6745e-05
3.96192e-05
4.00253e-05
3.87735e-05
3.62551e-05
4.31237e-06
1.75586e-05
3.01892e-05
3.69723e-05
3.98216e-05
4.0227e-05
3.89922e-05
3.64927e-05
4.34301e-06
1.7829e-05
3.05136e-05
3.72615e-05
4.00838e-05
4.04917e-05
3.92799e-05
3.68041e-05
4.3778e-06
1.81445e-05
3.08961e-05
3.76109e-05
4.04097e-05
4.08259e-05
3.96425e-05
3.71924e-05
4.41589e-06
1.84983e-05
3.133e-05
3.80184e-05
4.08027e-05
4.12371e-05
4.00898e-05
3.76688e-05
4.31958e-06
1.82016e-05
3.08804e-05
3.74828e-05
4.01741e-05
4.04965e-05
3.92453e-05
3.67647e-05
4.3337e-06
1.83099e-05
3.10363e-05
3.76615e-05
4.03737e-05
4.07185e-05
3.94866e-05
3.70156e-05
4.35626e-06
1.85075e-05
3.13058e-05
3.79561e-05
4.0695e-05
4.10749e-05
3.98776e-05
3.74266e-05
4.38766e-06
1.87951e-05
3.16871e-05
3.83619e-05
4.113e-05
4.15534e-05
4.04008e-05
3.79758e-05
4.42595e-06
1.91538e-05
3.21614e-05
3.88656e-05
4.1669e-05
4.21446e-05
4.10444e-05
3.86491e-05
4.46955e-06
1.95678e-05
3.27118e-05
3.94545e-05
4.23009e-05
4.28357e-05
4.17923e-05
3.94262e-05
4.51761e-06
2.00272e-05
3.33268e-05
4.01184e-05
4.30172e-05
4.36189e-05
4.26362e-05
4.02981e-05
4.19035e-06
1.4935e-05
2.78479e-05
3.67282e-05
4.20387e-05
4.46724e-05
4.51397e-05
4.36158e-05
4.1838e-06
1.52958e-05
2.83059e-05
3.70956e-05
4.22721e-05
4.47737e-05
4.51203e-05
4.34907e-05
4.17602e-06
1.55085e-05
2.85932e-05
3.73498e-05
4.24693e-05
4.4918e-05
4.52205e-05
4.35541e-05
4.17309e-06
1.59732e-05
2.91868e-05
3.78443e-05
4.28041e-05
4.507e-05
4.5169e-05
4.32825e-05
4.15263e-06
1.54146e-05
2.84511e-05
3.72107e-05
4.23556e-05
4.4838e-05
4.51778e-05
4.35502e-05
4.14405e-06
1.5405e-05
2.83769e-05
3.70985e-05
4.2229e-05
4.47098e-05
4.50553e-05
4.3437e-05
4.13413e-06
1.51638e-05
2.80753e-05
3.68631e-05
4.20947e-05
4.46808e-05
4.51272e-05
4.36009e-05
4.18645e-06
1.49174e-05
2.78061e-05
3.66657e-05
4.19527e-05
4.45607e-05
4.50052e-05
4.34682e-05
4.17886e-06
1.51978e-05
2.81568e-05
3.69446e-05
4.21308e-05
4.46422e-05
4.49997e-05
4.3387e-05
4.16962e-06
1.53344e-05
2.83356e-05
3.70984e-05
4.22485e-05
4.47305e-05
4.50674e-05
4.34405e-05
4.16435e-06
1.56656e-05
2.87494e-05
3.74328e-05
4.24644e-05
4.48164e-05
4.50135e-05
4.32392e-05
4.14778e-06
1.52922e-05
2.82586e-05
3.70169e-05
4.2183e-05
4.46917e-05
4.50603e-05
4.34652e-05
4.14013e-06
1.53173e-05
2.82513e-05
3.69828e-05
4.21369e-05
4.46419e-05
4.50099e-05
4.34142e-05
4.13085e-06
1.5142e-05
2.80306e-05
3.68101e-05
4.20395e-05
4.46245e-05
4.507e-05
4.35446e-05
4.18575e-06
1.49232e-05
2.77948e-05
3.6618e-05
4.18556e-05
4.44097e-05
4.48058e-05
4.32383e-05
4.17735e-06
1.51387e-05
2.80611e-05
3.68315e-05
4.19997e-05
4.44902e-05
4.48306e-05
4.32137e-05
4.16716e-06
1.52266e-05
2.81733e-05
3.69292e-05
4.20813e-05
4.45637e-05
4.4903e-05
4.3288e-05
4.16034e-06
1.54642e-05
2.84651e-05
3.71622e-05
4.22323e-05
4.46289e-05
4.4878e-05
4.31684e-05
4.1459e-06
1.52112e-05
2.81329e-05
3.68861e-05
4.20572e-05
4.45713e-05
4.49465e-05
4.33637e-05
4.13854e-06
1.52483e-05
2.81534e-05
3.68871e-05
4.20498e-05
4.45621e-05
4.4937e-05
4.33519e-05
4.12974e-06
1.51221e-05
2.79928e-05
3.67608e-05