/*--------------------------------*- C++ -*----------------------------------*\
| =========                 |                                                 |
| \\      /  F ield         | OpenFOAM: The Open Source CFD Toolbox           |
|  \\    /   O peration     | Version:  plus.master.MPPICInterFoam            |
|   \\  /    A nd           | Web:      www.OpenFOAM.com                      |
|    \\/     M anipulation  |                                                 |
\*---------------------------------------------------------------------------*/
FoamFile
{
    version     2.0;
    format      ascii;
    class       volScalarField;
    location    "11";
    object      k;
}
// * * * * * * * * * * * * * * * * * * * * * * * * * * * * * * * * * * * * * //

dimensions      [0 2 -2 0 0 0 0];

internalField   nonuniform List<scalar> 
11822
(
0.0578189
0.060987
0.0610644
0.0586069
0.0543538
0.0490198
0.043121
0.0679908
0.0719041
0.0714971
0.0677138
0.0619421
0.0551592
0.0480965
0.0751041
0.0799675
0.0808081
0.0761829
0.0687545
0.0603978
0.0520851
0.0764167
0.0837435
0.0848174
0.0822645
0.0737311
0.0639516
0.0546222
0.0703785
0.0807805
0.0870132
0.0832688
0.0753034
0.0649757
0.0552258
0.0683011
0.0748736
0.0812675
0.0805433
0.0729387
0.0630405
0.0536519
0.0667657
0.0721761
0.075248
0.0734499
0.066711
0.0583559
0.0499799
0.0574712
0.0606947
0.0608175
0.0583843
0.054117
0.0487627
0.04286
0.0673545
0.0715817
0.0712452
0.0675293
0.0617289
0.0549077
0.0478209
0.0749222
0.0810765
0.0810463
0.0761896
0.0685731
0.0601606
0.0518088
0.0760369
0.0836774
0.0859379
0.0825392
0.0735431
0.0637181
0.0543508
0.0713265
0.0803623
0.0857532
0.0841665
0.0751213
0.0647374
0.0549616
0.0684322
0.0751179
0.0822938
0.0808519
0.0725685
0.0627567
0.0533912
0.0656928
0.0706611
0.074728
0.0730475
0.0663192
0.058084
0.0497409
0.0572386
0.0604283
0.0605223
0.0580306
0.053705
0.0483345
0.0424702
0.0672774
0.0714435
0.0711609
0.0673263
0.0613783
0.0544727
0.0473814
0.0758001
0.0810668
0.0816321
0.0763496
0.0683683
0.059767
0.0513549
0.0764981
0.0795064
0.0873618
0.0832468
0.0735238
0.0633884
0.053907
0.0720701
0.0784459
0.08688
0.0854233
0.0753166
0.0644701
0.054541
0.0684658
0.0750675
0.0827756
0.0819588
0.0725922
0.062464
0.052987
0.0666031
0.0730742
0.0764487
0.0734607
0.0661755
0.0577651
0.0493642
0.0568977
0.0599965
0.0599706
0.0573773
0.0530184
0.0476975
0.0419476
0.0671645
0.0713164
0.0708433
0.0667516
0.0606538
0.0537365
0.046746
0.0757444
0.0813409
0.0817173
0.0760502
0.0677294
0.0590073
0.0506546
0.0761316
0.0807047
0.0873479
0.0833596
0.0730623
0.0626684
0.0531921
0.0734003
0.072453
0.0820897
0.0855541
0.074922
0.0638044
0.0538507
0.0719867
0.0742727
0.081621
0.0819324
0.0722438
0.0618569
0.0523499
0.0673119
0.0729701
0.076022
0.0732406
0.0657557
0.0571935
0.0487995
0.0563492
0.0592943
0.0591697
0.0566208
0.0524238
0.0473328
0.0418398
0.0666158
0.0705123
0.0696982
0.0656201
0.0597298
0.0531034
0.0464284
0.0745743
0.0790814
0.0797812
0.0744806
0.0665078
0.0581432
0.0501619
0.0723021
0.078706
0.08346
0.0810854
0.0716809
0.0616697
0.0525902
0.0698159
0.0713508
0.080929
0.0826925
0.0736771
0.0628143
0.0532277
0.0714904
0.0721379
0.0779648
0.0802079
0.0712588
0.0610019
0.0517941
0.0667082
0.0711538
0.0741612
0.0722131
0.0649429
0.0565001
0.0483695
0.0557061
0.0585838
0.0585542
0.0562003
0.0522887
0.0475357
0.0424254
0.0649899
0.0687862
0.0682853
0.0645839
0.0591369
0.052963
0.0467351
0.0701301
0.0762393
0.0775178
0.0727158
0.0654553
0.0576914
0.0502441
0.0700574
0.0757744
0.0830211
0.0788526
0.070238
0.0609869
0.0525168
0.0661116
0.0729075
0.0797095
0.0797052
0.0719763
0.0620295
0.0530886
0.060923
0.0700931
0.0768228
0.0767906
0.0697323
0.0603049
0.0516918
0.0617599
0.0667184
0.0712821
0.0700908
0.0638611
0.0560116
0.0483806
0.0373957
0.0329493
0.0287133
0.0246929
0.0208294
0.0169523
0.0125494
0.00529912
0.0413462
0.0359031
0.0309493
0.0263796
0.0220811
0.0178523
0.013148
0.00549718
0.0445593
0.0384343
0.0329082
0.0278734
0.0231966
0.0186552
0.0136769
0.00569662
0.0466121
0.0401063
0.0342534
0.0289416
0.0240294
0.0192838
0.0141145
0.00590023
0.0471069
0.0406081
0.0347499
0.0294151
0.0244637
0.0196633
0.0144179
0.0060954
0.0459149
0.0398755
0.0343606
0.0292652
0.0244736
0.0197703
0.0145682
0.00627789
0.0432694
0.0381702
0.033266
0.0285941
0.0241038
0.0196094
0.0145432
0.00643052
0.0371608
0.0327517
0.028559
0.0245824
0.0207586
0.016914
0.0125348
0.0053126
0.0410803
0.0356718
0.0307653
0.0262466
0.0219951
0.0178045
0.013128
0.00550856
0.0442784
0.0381809
0.0327014
0.0277209
0.0230963
0.0185985
0.0136524
0.00570582
0.0463303
0.0398462
0.0340363
0.0287783
0.0239201
0.019221
0.0140869
0.00590713
0.0468353
0.0403571
0.0345379
0.0292531
0.0243537
0.0195992
0.0143892
0.00609953
0.0456606
0.0396455
0.0341665
0.0291153
0.0243702
0.0197089
0.0145398
0.00627888
0.0430415
0.03797
0.033098
0.0284631
0.0240111
0.0195517
0.0145137
0.00642759
0.0368543
0.0325226
0.0284044
0.024493
0.0207213
0.0169138
0.0125554
0.00532076
0.0407071
0.0353848
0.0305672
0.0261279
0.0219399
0.0177951
0.013146
0.00551894
0.0438622
0.0378462
0.0324618
0.0275707
0.0230192
0.0185747
0.0136616
0.00571464
0.0458976
0.0394847
0.0337686
0.0286034
0.0238234
0.0191822
0.0140847
0.00591199
0.0464109
0.0399948
0.0342627
0.0290676
0.0242457
0.0195498
0.0143776
0.00610044
0.0452613
0.0393045
0.0339036
0.0289337
0.0242605
0.0196552
0.0145229
0.00627679
0.0426825
0.0376657
0.0328607
0.0282957
0.0239072
0.0194987
0.0144955
0.00642434
0.0364881
0.0322614
0.0282326
0.024392
0.020671
0.0168939
0.012548
0.00536868
0.0402412
0.0350555
0.0303517
0.0260002
0.0218741
0.0177656
0.0131294
0.00556011
0.0433178
0.037454
0.0322031
0.0274165
0.0229395
0.0185405
0.0136461
0.00575731
0.045314
0.0390546
0.033482
0.028432
0.023736
0.0191485
0.0140772
0.00596101
0.0458334
0.0395612
0.0339707
0.028893
0.0241584
0.0195206
0.0143803
0.00615469
0.0447291
0.0389001
0.033628
0.0287688
0.0241805
0.0196338
0.0145365
0.00633227
0.0422176
0.0373082
0.0326131
0.0281464
0.023837
0.0194866
0.0145205
0.00647933
0.0366284
0.0325713
0.0287049
0.0250154
0.0214229
0.0177284
0.0133692
0.00576847
0.0402256
0.0352536
0.0307414
0.0265669
0.0225972
0.0186024
0.0139846
0.0060082
0.0431644
0.0375432
0.0325023
0.0279044
0.0235937
0.0193196
0.014459
0.00619924
0.0450648
0.0390607
0.0337018
0.0288365
0.0242976
0.0198257
0.014786
0.00634767
0.045551
0.039525
0.0341353
0.0292236
0.0246228
0.0200769
0.0149548
0.00646058
0.044479
0.038863
0.0337631
0.0290415
0.024557
0.0200737
0.0149773
0.00655441
0.0420451
0.0372961
0.0327369
0.0283779
0.0241451
0.0198347
0.0148566
0.00663559
0.0376556
0.0339354
0.0304426
0.0271473
0.0239355
0.0205442
0.0162695
0.00827536
0.0410057
0.0364261
0.0323331
0.0286023
0.0250717
0.0214449
0.0169739
0.00864574
0.0437386
0.0385312
0.033925
0.0297884
0.025941
0.0220675
0.0173947
0.00884731
0.045493
0.0399029
0.0349681
0.0305494
0.0264608
0.0223838
0.0175421
0.00888831
0.0459062
0.0402702
0.0352702
0.0307611
0.0265622
0.0223664
0.0174175
0.00877591
0.0448348
0.0395554
0.0347881
0.0304034
0.0262488
0.0220467
0.0170805
0.00856986
0.042443
0.0379495
0.0336478
0.0295472
0.0255609
0.0214527
0.0165563
0.00831794
0.0600134
0.0540903
0.0472224
0.0404411
0.0339687
0.0276484
0.0207646
0.0103996
0.0633005
0.0588079
0.051345
0.0436507
0.0363703
0.0293926
0.0219685
0.0109275
0.0665365
0.0618381
0.0538658
0.0454704
0.0376388
0.0302325
0.0224691
0.0110334
0.0693092
0.0621533
0.0534326
0.0450182
0.0371935
0.0297973
0.0220487
0.0106923
0.0670519
0.0585709
0.0502047
0.0423761
0.0351033
0.0281688
0.0208184
0.00996488
0.0601156
0.0523952
0.0450993
0.0383088
0.0319527
0.0257886
0.0191116
0.00906377
0.0513945
0.0452354
0.0393443
0.0337609
0.0284253
0.023125
0.0172231
0.00810895
0.0587424
0.0529113
0.0463726
0.0398581
0.0335669
0.02737
0.0205778
0.0103413
0.0625625
0.0574322
0.0502519
0.0429396
0.0358947
0.0290568
0.0217262
0.0108365
0.0650514
0.0602308
0.0526278
0.0447305
0.0371663
0.0298962
0.0222148
0.0109251
0.0679226
0.0606915
0.0525078
0.0444742
0.0368408
0.0295391
0.0218485
0.0105986
0.0661612
0.0578025
0.0497349
0.0420844
0.0349044
0.0280185
0.0207
0.00991292
0.0595644
0.0520245
0.0448736
0.038165
0.0318533
0.0257155
0.0190567
0.0090455
0.0511164
0.0450449
0.0392154
0.033671
0.0283633
0.0230844
0.0171976
0.00810638
0.0590119
0.0524129
0.0458665
0.0394543
0.033268
0.027161
0.0204453
0.0103056
0.0650262
0.0576555
0.0497468
0.0424368
0.0354834
0.0287416
0.0215011
0.0107492
0.068749
0.0608895
0.0521835
0.0442147
0.0367164
0.0295367
0.0219484
0.0108117
0.0700315
0.0611401
0.0521848
0.044067
0.0364774
0.0292513
0.0216449
0.010511
0.0665325
0.0577009
0.0494695
0.041807
0.0346658
0.0278363
0.0205784
0.00987249
0.0594078
0.0518112
0.0446576
0.0379739
0.0317033
0.0256133
0.0189988
0.00903568
0.0508924
0.0448275
0.039023
0.0335193
0.0282596
0.0230268
0.0171755
0.00811447
0.0591202
0.0522699
0.0456702
0.0392562
0.0331056
0.0270528
0.0203961
0.0103283
0.0653226
0.0575374
0.0494707
0.0421339
0.0352026
0.02853
0.0213802
0.010748
0.0692454
0.0607858
0.0518907
0.0438681
0.0363865
0.0292853
0.0217986
0.0108042
0.069668
0.0609312
0.0518768
0.0437369
0.0361867
0.0290523
0.021552
0.0105297
0.0663829
0.0574814
0.0491938
0.0415291
0.0344475
0.027709
0.0205404
0.00991208
0.0592028
0.0515522
0.0443924
0.0377536
0.0315591
0.0255541
0.0190127
0.00908008
0.0505873
0.0445386
0.0387882
0.0333596
0.0281807
0.0230189
0.0172169
0.00816668
0.0588948
0.0522946
0.0455662
0.0391068
0.0329768
0.0269791
0.0203911
0.0104196
0.065022
0.0572058
0.0492283
0.0418655
0.0349861
0.0284112
0.0213729
0.0108734
0.0666776
0.060346
0.0516473
0.0435526
0.0361278
0.0291511
0.0218036
0.0109605
0.0689286
0.0607825
0.0515987
0.0434438
0.035986
0.0289876
0.0216192
0.0107062
0.0658362
0.0571692
0.048871
0.0412844
0.0343267
0.0277158
0.0206469
0.010076
0.0588146
0.0512241
0.0441372
0.0376138
0.0315426
0.025638
0.019159
0.00922056
0.0502218
0.0442913
0.0386655
0.0333547
0.0282692
0.0231691
0.0173901
0.00828828
0.0559727
0.0510587
0.0449288
0.0386994
0.0327169
0.0268399
0.020364
0.0110632
0.0580584
0.0542343
0.0482225
0.0413461
0.0347032
0.028292
0.0213884
0.011569
0.0608321
0.056958
0.0505907
0.0430572
0.0359077
0.0291162
0.0219083
0.0117211
0.0639008
0.0580137
0.0507293
0.0430918
0.0359047
0.0290841
0.0218356
0.0115098
0.0632561
0.0560029
0.0483806
0.0411367
0.0344058
0.0279547
0.0209868
0.010913
0.0578118
0.0507308
0.0439759
0.037693
0.0318071
0.0260401
0.0196426
0.010111
0.0499135
0.0442464
0.0388313
0.0336957
0.0287563
0.0237693
0.0180519
0.00927175
0.0500142
0.0440184
0.0382433
0.0327636
0.0275365
0.0223593
0.0166048
0.00767152
0.0522324
0.0453456
0.0390078
0.0331477
0.0276556
0.0223015
0.0164438
0.00735951
0.0523259
0.0451867
0.0386688
0.0327022
0.0271616
0.0218065
0.0159975
0.00698183
0.0503677
0.0434786
0.0371837
0.0314245
0.0260813
0.0209208
0.0153221
0.00657062
0.0468733
0.0405639
0.0347908
0.0294876
0.0245399
0.0197287
0.0144648
0.00615628
0.0424674
0.0369485
0.0318862
0.0271934
0.0227654
0.0184034
0.0135575
0.00575463
0.0375983
0.0331319
0.0288819
0.0248454
0.020961
0.0170578
0.012624
0.0053675
0.049781
0.0438517
0.0381216
0.0326718
0.0274717
0.0223182
0.0165815
0.00766959
0.0520102
0.045173
0.0388721
0.0330426
0.0275849
0.022263
0.0164296
0.00736516
0.0521058
0.0449957
0.0385086
0.0325792
0.0270802
0.0217641
0.015984
0.00699059
0.0501417
0.0432696
0.0370059
0.0312892
0.0259925
0.0208743
0.0153082
0.00658078
0.0466334
0.0403437
0.0346076
0.0293508
0.0244503
0.0196803
0.0144486
0.00616111
0.0422223
0.0367335
0.0317141
0.0270689
0.0226857
0.0183603
0.0135392
0.00576635
0.0373688
0.0329391
0.0287321
0.0247392
0.0208944
0.0170233
0.0126132
0.00538117
0.0495185
0.043609
0.0379138
0.0325144
0.0273699
0.022267
0.0165674
0.00767675
0.0517064
0.0448892
0.0386339
0.0328692
0.0274788
0.022216
0.0164238
0.00737694
0.0517614
0.0446745
0.0382465
0.0323931
0.0269704
0.0217173
0.0159789
0.00700278
0.0497609
0.0429288
0.0367385
0.0311065
0.0258883
0.0208312
0.0153039
0.00659095
0.0462387
0.0400128
0.034361
0.0291897
0.0243624
0.0196475
0.0144515
0.00616791
0.0418533
0.0364442
0.0315096
0.0269417
0.022621
0.01834
0.0135423
0.00577191
0.0370638
0.0327097
0.0285762
0.0246476
0.020854
0.0170196
0.0126303
0.00538412
0.0491454
0.0432797
0.0376602
0.0323527
0.0272975
0.0222682
0.0166161
0.00773947
0.051245
0.0444929
0.0383408
0.0326887
0.0274018
0.0222166
0.0164707
0.00744167
0.0512207
0.0442316
0.0379313
0.0322065
0.0268906
0.0217132
0.0160184
0.00706832
0.0491845
0.04248
0.0364327
0.0309298
0.0258116
0.0208228
0.0153339
0.00665815
0.0456864
0.0396062
0.0340939
0.0290384
0.0242981
0.0196427
0.0144822
0.00623356
0.041382
0.0361102
0.0312943
0.0268202
0.0225684
0.0183325
0.0135581
0.00583435
0.0367035
0.0324553
0.028412
0.0245552
0.0208148
0.0170153
0.0126447
0.00544048
0.0487696
0.0430524
0.0375792
0.0323971
0.0274345
0.0224589
0.0168175
0.00785912
0.0507798
0.0442315
0.0382641
0.0327566
0.0275701
0.0224421
0.0167061
0.0075792
0.05073
0.043986
0.0378917
0.0323225
0.0271141
0.0219994
0.0163157
0.00723863
0.0487623
0.0423126
0.0364694
0.0311222
0.0261166
0.0211972
0.015719
0.00687763
0.0454144
0.0395676
0.0342438
0.0293406
0.024719
0.0201402
0.0149858
0.00650411
0.0412997
0.0362288
0.0315826
0.0272544
0.0231216
0.0189626
0.0141842
0.00615142
0.0368229
0.0327372
0.0288457
0.0251274
0.0215021
0.0177736
0.0133845
0.00579434
0.0485785
0.0431166
0.0378636
0.0328772
0.0280823
0.0232407
0.0176712
0.00896663
0.0505897
0.0443637
0.0386641
0.0333957
0.0284222
0.0234712
0.0178334
0.0089063
0.050619
0.0442257
0.0384335
0.033141
0.0281928
0.0233057
0.0177531
0.00881747
0.0488163
0.0427189
0.0371986
0.0321663
0.0274713
0.0228291
0.0175086
0.00872065
0.0457139
0.0402102
0.035226
0.0306734
0.0264057
0.0221404
0.0171484
0.0086003
0.0419088
0.0371754
0.0328819
0.0289269
0.0251683
0.0213317
0.0166999
0.0084386
0.0378022
0.0340339
0.0304938
0.0271473
0.0238832
0.0204452
0.0161418
0.00819589
0.044289
0.0390904
0.0341207
0.0293848
0.0248169
0.0202209
0.0150247
0.00674213
0.0514978
0.0450236
0.0389436
0.0332473
0.0278511
0.0225341
0.0166645
0.00752632
0.0584584
0.0508831
0.0437241
0.0370576
0.0308201
0.0247851
0.0182548
0.00833274
0.0640829
0.0556179
0.0476254
0.040182
0.0332703
0.0266561
0.0196129
0.00911049
0.0668236
0.0580761
0.0497296
0.0419389
0.0347204
0.0278448
0.02056
0.00973996
0.0655537
0.0575797
0.0495103
0.0419234
0.0348549
0.0280924
0.0208763
0.0101262
0.0614234
0.0544435
0.0472497
0.0403346
0.0337979
0.0274489
0.0205562
0.0102095
0.0440799
0.0389084
0.03397
0.0292686
0.024735
0.0201706
0.0149999
0.00674189
0.0512741
0.0448392
0.0387915
0.0331265
0.0277621
0.0224758
0.0166322
0.00752194
0.0581653
0.0506705
0.0435623
0.0369276
0.0307183
0.0247044
0.0181994
0.00831152
0.0636462
0.0553054
0.0474089
0.0400206
0.0331415
0.0265521
0.0195315
0.00907261
0.06597
0.0574571
0.0493537
0.0416906
0.0345379
0.0277013
0.0204456
0.00968925
0.0643406
0.0566386
0.0489205
0.0415424
0.0345976
0.0279075
0.0207402
0.0100711
0.0600644
0.05335
0.0465078
0.0398342
0.0334566
0.0272117
0.0203926
0.0101526
0.0437399
0.0386149
0.0337389
0.0291041
0.0246325
0.0201177
0.0149807
0.00674677
0.0509466
0.0445282
0.0385248
0.0329228
0.0276268
0.0224001
0.0166021
0.0075258
0.0579198
0.0503828
0.0432845
0.0366937
0.0305481
0.0245982
0.0181462
0.00830516
0.0636819
0.0550948
0.0471342
0.0397627
0.0329354
0.0264104
0.0194492
0.00904808
0.0665559
0.0573482
0.0490777
0.0414058
0.0342992
0.0275238
0.0203278
0.00965259
0.0649098
0.056392
0.0485721
0.0412237
0.0343421
0.0277189
0.0206143
0.0100246
0.0598228
0.0528206
0.0460499
0.03948
0.0331957
0.0270268
0.0202716
0.0101156
0.0432895
0.0382633
0.0334926
0.0289539
0.0245607
0.0201058
0.0150074
0.0067841
0.0504275
0.0440857
0.0381866
0.0326985
0.027506
0.0223619
0.0166197
0.00756175
0.0574487
0.0499216
0.0428921
0.0364078
0.0303755
0.0245264
0.0181494
0.00833984
0.0633199
0.0546857
0.0467433
0.0394478
0.0327291
0.0263134
0.0194348
0.00907941
0.0662326
0.0570082
0.0487419
0.0411089
0.0340839
0.0274036
0.020288
0.00968346
0.0646638
0.0561445
0.0483184
0.0409849
0.0341545
0.0276019
0.0205667
0.0100463
0.0598099
0.0526789
0.0458714
0.0392988
0.0330473
0.0269312
0.0202316
0.0101355
0.0430614
0.0381849
0.0335393
0.0290987
0.024775
0.0203583
0.015255
0.00690182
0.0499409
0.0437828
0.0380532
0.0327043
0.0276139
0.0225332
0.016812
0.00767838
0.0568149
0.0494494
0.0425918
0.0362768
0.0303807
0.0246292
0.0183015
0.00846019
0.0626477
0.0541495
0.0463609
0.0392251
0.03266
0.0263626
0.0195553
0.00920722
0.0657594
0.0566049
0.0483927
0.0408674
0.0339738
0.027411
0.0203799
0.00981889
0.0646131
0.0560403
0.0481059
0.0407919
0.0340397
0.0275778
0.0206229
0.0101667
0.0600549
0.052742
0.0457853
0.0391738
0.0329515
0.0268909
0.0202541
0.0102297
0.0433481
0.0386969
0.0342678
0.0300367
0.0259075
0.0216463
0.0166093
0.00835111
0.0497878
0.0439113
0.0384293
0.0333001
0.0284027
0.0234737
0.017831
0.00893266
0.0562139
0.0492211
0.0426695
0.0366034
0.0309114
0.0253092
0.0190641
0.00955316
0.0614177
0.0535901
0.0462011
0.0393537
0.0330015
0.0268554
0.0201306
0.0101716
0.0635002
0.0557194
0.0480591
0.0408465
0.0341596
0.0277388
0.0207917
0.0106785
0.0616596
0.0550175
0.0476683
0.0406336
0.0340579
0.0277206
0.0208532
0.0109319
0.0579931
0.0519312
0.0453079
0.0388844
0.0328
0.0268549
0.0203183
0.0109087
0.00156162
0.00377904
0.00484139
0.00543433
0.00565057
0.00555999
0.00523597
0.00475216
0.00153909
0.00373362
0.00478579
0.0053763
0.00559636
0.00551488
0.00520354
0.00473314
0.00153617
0.00373175
0.00477978
0.00536421
0.00557715
0.00548971
0.00517617
0.00470849
0.0015564
0.00377612
0.00483484
0.00541901
0.00562474
0.00552703
0.00520392
0.00472999
0.00160359
0.00387337
0.00495423
0.00554274
0.00574151
0.00563034
0.00529158
0.00480296
0.00167999
0.00402901
0.00513908
0.00573305
0.00592142
0.00578922
0.00542364
0.00490692
0.00176903
0.00420786
0.00534799
0.0059464
0.00612203
0.00596469
0.00556636
0.00501423
0.00203877
0.0050869
0.00648865
0.007195
0.00735878
0.00710084
0.00654133
0.00579595
0.0019976
0.00500397
0.00638647
0.00708631
0.00725345
0.00700771
0.00646764
0.00574418
0.00199442
0.00499969
0.00637398
0.00706232
0.00721544
0.00695638
0.00640948
0.00568954
0.00203257
0.00507658
0.00646362
0.00714732
0.00728491
0.00700528
0.00643902
0.00570595
0.00211092
0.00523848
0.00665468
0.00734006
0.00746208
0.00715709
0.00656258
0.00580394
0.00223209
0.0054894
0.00694604
0.00763627
0.00773932
0.00739933
0.00676086
0.0059562
0.0023719
0.00576675
0.00726563
0.00796125
0.00804548
0.00766907
0.00698273
0.00612569
0.00278049
0.00702897
0.00887561
0.00966811
0.00968214
0.00912424
0.00818619
0.00704406
0.00270978
0.00689052
0.00870652
0.00948816
0.00950537
0.00896341
0.00805459
0.00694869
0.00270778
0.00687951
0.00868289
0.00944781
0.00944278
0.0088754
0.00794918
0.00684533
0.0027746
0.00700255
0.00882069
0.00957529
0.00954393
0.00894149
0.00798075
0.00685219
0.00289593
0.00725819
0.00911406
0.00986629
0.00980732
0.00916249
0.00815441
0.00698373
0.00307397
0.00764213
0.0095525
0.0103088
0.0102196
0.00952095
0.00844504
0.00720295
0.00326774
0.00804563
0.0100098
0.0107724
0.0106568
0.00990784
0.00876536
0.00744912
0.00423151
0.010057
0.0124031
0.0131633
0.0128355
0.0117582
0.010226
0.00849739
0.00411331
0.00983854
0.0121434
0.0128911
0.012569
0.0115119
0.0100213
0.00835276
0.00411548
0.00981311
0.0121025
0.0128315
0.0124813
0.0113823
0.00985148
0.00817661
0.00422379
0.0099977
0.0123049
0.013018
0.01263
0.011479
0.00989304
0.00817745
0.00439361
0.0103761
0.0127341
0.0134414
0.0130122
0.011798
0.0101378
0.00835394
0.00462123
0.0109239
0.0133581
0.014072
0.0136005
0.01231
0.0105508
0.008659
0.00481876
0.0114586
0.0139629
0.0146911
0.0141873
0.0128296
0.0109818
0.00898536
0.00805156
0.015122
0.0177272
0.0181172
0.0170758
0.0151144
0.0126666
0.0100859
0.00787372
0.0147809
0.0173447
0.0177288
0.0167028
0.0147647
0.0123746
0.00990389
0.00787792
0.0147368
0.0172834
0.017648
0.0165929
0.0145955
0.0121152
0.0096191
0.00801528
0.015002
0.0175712
0.0179132
0.0168067
0.0147383
0.0121727
0.00961855
0.00819626
0.0155137
0.0181608
0.0185005
0.0173409
0.0151891
0.0125119
0.00984802
0.00838641
0.016213
0.0189837
0.01935
0.0181423
0.0158895
0.0130675
0.010234
0.00842502
0.0167975
0.019695
0.0201177
0.01889
0.0165515
0.0136204
0.0106274
0.0179923
0.0241612
0.025853
0.0250469
0.0225831
0.0190622
0.0151622
0.0113412
0.017629
0.023583
0.0252654
0.0244823
0.0220536
0.0185456
0.0147645
0.0112209
0.0175426
0.0234683
0.0251616
0.0243658
0.0218988
0.0183095
0.0143356
0.0108311
0.0176856
0.023803
0.0255431
0.0247256
0.0221828
0.0184927
0.0143932
0.010841
0.0178267
0.0243837
0.0262722
0.0254892
0.0228903
0.0191012
0.0148415
0.0111703
0.0178883
0.0251063
0.0272343
0.0265677
0.0239519
0.0200484
0.0155766
0.0116414
0.0176265
0.025572
0.0279528
0.0274608
0.0248951
0.0208982
0.0162854
0.0120789
0.00267331
0.00600937
0.00764551
0.00853965
0.00884545
0.0086548
0.00807476
0.00722807
0.00267951
0.00603993
0.00770048
0.00862135
0.00895378
0.00878631
0.0082232
0.00738498
0.00263463
0.00596331
0.00761684
0.00854182
0.00888625
0.00873666
0.00819437
0.00737648
0.00255663
0.00580937
0.00742236
0.00832276
0.00865915
0.00851567
0.00799068
0.00719696
0.00245143
0.00559028
0.00713749
0.00799296
0.00830394
0.00815552
0.00764365
0.00687694
0.00232698
0.00532915
0.0067928
0.00758866
0.00786188
0.00769973
0.00719782
0.00646157
0.0021967
0.00505428
0.00642836
0.00715851
0.00738746
0.00720617
0.00671199
0.00600848
0.00362091
0.00818338
0.0103845
0.0115263
0.0118227
0.0114215
0.0104872
0.00921059
0.00362031
0.00821488
0.0104513
0.0116291
0.011961
0.0115906
0.010679
0.00941424
0.00355404
0.0081085
0.0103405
0.0115209
0.0118671
0.0115205
0.0106381
0.00940265
0.00344393
0.00790127
0.0100828
0.0112271
0.0115617
0.0112252
0.01037
0.00917132
0.00329927
0.00760952
0.00970014
0.0107795
0.0110803
0.0107406
0.00990846
0.00875049
0.00313163
0.00726558
0.00923782
0.0102319
0.0104794
0.0101221
0.00930675
0.00819361
0.00296161
0.00691311
0.00875966
0.00965921
0.00984072
0.00945216
0.00864399
0.00757383
0.00492913
0.0112158
0.0141479
0.0155671
0.015789
0.015045
0.0135708
0.0116535
0.0049227
0.0112535
0.0142345
0.0157006
0.0159672
0.0152616
0.0138149
0.0119108
0.00483385
0.0111215
0.0140958
0.0155586
0.0158401
0.0151641
0.013757
0.0118939
0.00468228
0.0108513
0.013758
0.0151654
0.0154288
0.0147677
0.0134034
0.0116
0.00447817
0.010455
0.0132456
0.0145551
0.0147722
0.014113
0.0127925
0.0110579
0.00425149
0.0100106
0.0126336
0.0138218
0.0139636
0.0132817
0.0119921
0.01033
0.00403292
0.0095775
0.0120248
0.013081
0.0131259
0.0123939
0.0111102
0.00950639
0.00673406
0.0154347
0.0192847
0.0209453
0.0209888
0.0197287
0.0174624
0.0146016
0.00673791
0.0154818
0.0193977
0.021118
0.0212174
0.0200053
0.0177708
0.0149203
0.0066397
0.0153306
0.0192254
0.0209328
0.0210435
0.0198645
0.017683
0.0148916
0.00644629
0.0149938
0.0187758
0.0203999
0.0204805
0.0193172
0.0171982
0.0145052
0.00616083
0.0144695
0.0180758
0.0195575
0.0195693
0.0184097
0.0163682
0.0137998
0.00585012
0.0139203
0.0172874
0.0185985
0.0184946
0.0172935
0.0153001
0.0128543
0.00557031
0.0134216
0.0165488
0.0176811
0.0174293
0.01614
0.0141461
0.0117833
0.00878086
0.0214657
0.0261624
0.0279057
0.0276455
0.0256675
0.0222865
0.0180486
0.00875065
0.0215299
0.0263005
0.0281148
0.0279305
0.0260209
0.022679
0.018443
0.00861882
0.0213853
0.0260838
0.02788
0.0276953
0.0258093
0.0225331
0.0183875
0.0084061
0.0209882
0.0254721
0.027172
0.0269325
0.0250414
0.0218367
0.0178429
0.00820567
0.0203142
0.0245107
0.0260223
0.0256664
0.0237519
0.0206536
0.0168607
0.00809006
0.0196591
0.0235698
0.0248337
0.0242728
0.0222533
0.0192007
0.0156016
0.00818508
0.0190997
0.0227637
0.0237769
0.0229682
0.0207733
0.0176849
0.0142139
0.0141784
0.0300389
0.0349144
0.0365961
0.0359191
0.0328912
0.0278487
0.0215912
0.0141693
0.0300415
0.0350099
0.0367933
0.0362506
0.0333501
0.028351
0.0220711
0.013969
0.029861
0.034771
0.0365407
0.0359776
0.0330562
0.0281162
0.0219662
0.013755
0.0293594
0.034047
0.0357116
0.0350367
0.032028
0.0271148
0.0211551
0.0140108
0.0286692
0.0329052
0.0342708
0.0333626
0.0302335
0.0254012
0.0197024
0.0149932
0.0281363
0.0320043
0.0329332
0.0316246
0.0282583
0.0234359
0.0179938
0.016066
0.0277915
0.0313324
0.0318326
0.0300701
0.0263646
0.0214093
0.0162008
0.00206664
0.00478421
0.00607389
0.00674278
0.00693031
0.00673131
0.00624652
0.00557874
0.00194789
0.00454575
0.00576821
0.00639522
0.00656065
0.00635919
0.00589106
0.00525653
0.00184926
0.00434824
0.00552259
0.0061285
0.00629219
0.00610422
0.00566014
0.00505562
0.00176046
0.00416968
0.00530183
0.0058937
0.00606296
0.00589522
0.00548052
0.00490922
0.00168911
0.00402124
0.00512029
0.00570148
0.0058757
0.00572447
0.00533361
0.00478904
0.00163398
0.00391251
0.00499024
0.00556814
0.00575075
0.00561593
0.00524575
0.00472216
0.00159339
0.00384242
0.0049108
0.005496
0.00569543
0.0055827
0.0052354
0.00473126
0.00279452
0.00657145
0.00830097
0.0091127
0.00923019
0.00880744
0.00800299
0.00697709
0.00263385
0.00625844
0.0078928
0.00864589
0.00873152
0.00830328
0.00751986
0.00653951
0.00248838
0.00597554
0.00753918
0.00826384
0.00835023
0.00794593
0.00720183
0.00626814
0.00234946
0.00570133
0.00720172
0.00790709
0.00800406
0.00763305
0.00693657
0.0060557
0.00224187
0.00547773
0.00693131
0.00762305
0.00772907
0.0073842
0.00672516
0.00588602
0.00216114
0.00531778
0.0067437
0.00743188
0.0075502
0.00722907
0.00660058
0.00579366
0.00209705
0.00520426
0.00661776
0.00731537
0.00745637
0.00716647
0.00657187
0.00579478
0.00382479
0.00916416
0.0114504
0.0123871
0.0123381
0.011545
0.0102497
0.00869468
0.0036094
0.00875806
0.010912
0.0117704
0.0116781
0.0108756
0.00960549
0.00811053
0.00340214
0.00834803
0.0104035
0.0112245
0.0111363
0.0103738
0.00916742
0.00774462
0.00319389
0.00793168
0.00990011
0.0106954
0.0106234
0.00991108
0.0087776
0.0074343
0.00304374
0.00760331
0.00951099
0.0102896
0.0102314
0.00955689
0.00847898
0.00719894
0.00294021
0.00738208
0.00925645
0.0100304
0.00998796
0.00934468
0.0083079
0.00707544
0.00286602
0.00721833
0.00908158
0.00986519
0.00984958
0.00924695
0.00825772
0.00706876
0.00532938
0.012945
0.015859
0.0168378
0.0164535
0.0150633
0.0130274
0.0107076
0.00509221
0.0124272
0.0151694
0.016046
0.015602
0.0141994
0.0121946
0.00995149
0.00490536
0.0118408
0.0144646
0.0152855
0.0148429
0.0135004
0.0115983
0.00946609
0.00468892
0.0112321
0.0137518
0.0145368
0.0141126
0.0128384
0.0110426
0.00902473
0.00452102
0.0107751
0.0132165
0.0139794
0.0135729
0.0123482
0.010629
0.0087052
0.00441574
0.010497
0.0128944
0.0136488
0.0132609
0.0120756
0.0104057
0.00854588
0.00435541
0.0103152
0.0126921
0.0134481
0.0130848
0.0119467
0.0103411
0.00854324
0.00833115
0.0185477
0.0219993
0.0228097
0.0218011
0.0194473
0.0162618
0.0128277
0.00842424
0.0179261
0.0211767
0.021835
0.0207243
0.018358
0.0152286
0.0119023
0.00841595
0.0172039
0.0202656
0.0208168
0.0196807
0.0173905
0.0144265
0.0112657
0.00827528
0.0164279
0.0193276
0.0198106
0.0186846
0.0164776
0.0136635
0.010665
0.00814517
0.0158427
0.0186276
0.0190741
0.0179683
0.0158224
0.013104
0.0102349
0.00811089
0.0155414
0.0182573
0.0186842
0.0176001
0.0155137
0.0128722
0.0100964
0.00817892
0.0154297
0.0180917
0.0184927
0.017417
0.0153767
0.0128272
0.01015
0.0168078
0.0273429
0.0306121
0.0307874
0.028642
0.0246567
0.0195478
0.0145181
0.0173256
0.0267544
0.029704
0.0296104
0.0272394
0.0232365
0.0182922
0.0134736
0.0175519
0.0259821
0.0285976
0.0282796
0.0258255
0.0219107
0.0172274
0.0126911
0.0174965
0.0251113
0.0274486
0.0269716
0.0244961
0.0206691
0.0162162
0.0119507
0.0174226
0.0244605
0.0265983
0.0260283
0.0235685
0.0198089
0.0154793
0.0113926
0.0176022
0.024276
0.026252
0.0256094
0.0231657
0.0195054
0.0153337
0.011294
0.0180391
0.0244625
0.0262674
0.0255114
0.0230329
0.0194049
0.0153868
0.0114863
0.00185465
0.00437179
0.00554126
0.00614292
0.00630457
0.00612082
0.00568874
0.00510116
0.00194775
0.00455529
0.00576493
0.0063795
0.00653456
0.00632911
0.0058654
0.00524205
0.00206199
0.00478633
0.00605546
0.00670013
0.00686246
0.00664423
0.00615145
0.00548794
0.00219832
0.00506219
0.00640435
0.00709076
0.00726963
0.00704399
0.00652218
0.00581319
0.00235052
0.00535489
0.00677864
0.00751478
0.00771639
0.00748689
0.00693632
0.00617961
0.00249455
0.00563225
0.00713814
0.00792818
0.00815986
0.00793311
0.00735846
0.0065557
0.00260821
0.00586433
0.00744523
0.00829216
0.00856124
0.00834843
0.00776317
0.00692802
0.00250762
0.00600895
0.00755182
0.00825264
0.00831806
0.00790464
0.00716935
0.00625934
0.0026482
0.00627248
0.00787676
0.00859738
0.00865401
0.00820883
0.00742621
0.00646291
0.0028113
0.00659031
0.0082848
0.00905048
0.00911892
0.00865625
0.00783204
0.00681088
0.00299987
0.00695248
0.00875613
0.00958417
0.00967958
0.00920972
0.00834623
0.00726029
0.00320392
0.00733146
0.0092501
0.0101527
0.0102861
0.0098159
0.00891428
0.00776109
0.00339409
0.00769428
0.00972094
0.0107069
0.0108906
0.0104315
0.00950056
0.00828403
0.00354096
0.00799825
0.0101246
0.0111976
0.0114403
0.0110063
0.010064
0.00880354
0.00345751
0.00838312
0.0104055
0.0111763
0.0110381
0.0102408
0.0090306
0.00763916
0.00365723
0.00874923
0.0108604
0.0116606
0.0115123
0.0106701
0.00938917
0.00791695
0.00388323
0.00918133
0.011424
0.0122884
0.0121586
0.0112931
0.00995335
0.00839754
0.00413382
0.00965815
0.012057
0.0130104
0.0129225
0.012052
0.0106605
0.00901274
0.00440048
0.0101456
0.0126965
0.0137608
0.0137355
0.0128735
0.0114317
0.00968704
0.00464836
0.0106082
0.0132955
0.014488
0.0145437
0.0137087
0.0122333
0.0104017
0.00483316
0.0109882
0.013816
0.0151372
0.0152827
0.0144905
0.0130042
0.0111123
0.00495008
0.0118992
0.0144629
0.0152112
0.0146895
0.0132743
0.0113337
0.00923582
0.00516034
0.0123896
0.0150704
0.0158659
0.0153405
0.0138674
0.0118218
0.00960045
0.00543663
0.0129618
0.0158252
0.0167107
0.0162171
0.0147159
0.0125899
0.0102479
0.00574958
0.0135823
0.0166593
0.0176672
0.0172412
0.0157438
0.0135551
0.0110864
0.00607646
0.0141812
0.017477
0.0186385
0.0183164
0.0168511
0.0146003
0.0119858
0.00638605
0.0147323
0.0182231
0.0195661
0.0193699
0.0179619
0.0156783
0.0129425
0.0066129
0.0151715
0.0188719
0.0203984
0.0203351
0.019001
0.016711
0.0138885
0.0082944
0.0172186