/*--------------------------------*- C++ -*----------------------------------*\
| =========                 |                                                 |
| \\      /  F ield         | OpenFOAM: The Open Source CFD Toolbox           |
|  \\    /   O peration     | Version:  plus.master.MPPICInterFoam            |
|   \\  /    A nd           | Web:      www.OpenFOAM.com                      |
|    \\/     M anipulation  |                                                 |
\*---------------------------------------------------------------------------*/
FoamFile
{
    version     2.0;
    format      ascii;
    class       surfaceScalarField;
    location    "11";
    object      phi;
}
// * * * * * * * * * * * * * * * * * * * * * * * * * * * * * * * * * * * * * //

dimensions      [0 3 -1 0 0 0 0];

internalField   nonuniform List<scalar> 
34319
(
-2.30648e-08
-3.76927e-07
6.28382e-06
9.94435e-08
3.09939e-07
3.50831e-08
-3.47335e-07
6.15752e-06
3.06812e-07
9.78987e-08
-3.4054e-07
5.7919e-06
2.91657e-07
1.33239e-07
-2.77061e-07
5.25512e-06
2.45617e-07
1.44581e-07
-2.15018e-07
4.62529e-06
1.97125e-07
1.41114e-07
-1.70017e-07
3.96692e-06
1.5815e-07
-1.37231e-07
3.31559e-06
1.27127e-07
1.28447e-07
-4.64617e-08
-4.13805e-07
7.5744e-06
1.80374e-07
1.76999e-08
-2.99553e-07
7.44126e-06
1.34966e-07
-3.79363e-07
6.91909e-06
1.83435e-07
-2.88184e-07
6.16423e-06
1.93493e-07
-2.1362e-07
5.35148e-06
1.83068e-07
-1.6437e-07
4.54739e-06
-1.31919e-07
3.78775e-06
1.62275e-07
-2.06132e-07
-2.14343e-07
9.58144e-06
3.52756e-07
4.65634e-08
-2.35757e-07
9.47675e-06
2.10906e-07
-2.83752e-07
8.48708e-06
2.71938e-07
-2.31364e-07
7.20081e-06
2.64787e-07
-1.68282e-07
6.06903e-06
2.36158e-07
-1.28392e-07
5.09149e-06
-1.07131e-07
4.21243e-06
2.03189e-07
-3.9066e-07
1.13545e-07
1.16738e-05
5.33365e-07
-5.4573e-08
-3.73502e-08
1.12141e-05
2.23075e-07
-1.133e-07
1.02888e-05
3.62802e-07
-1.24346e-07
8.28821e-06
3.30959e-07
-5.97743e-08
6.69816e-06
2.84644e-07
-6.18131e-08
5.53503e-06
-6.43461e-08
4.55243e-06
2.40171e-07
-5.69887e-07
3.24984e-07
1.28312e-05
5.79163e-07
-2.33758e-07
8.10606e-08
1.19786e-05
1.89648e-07
1.56835e-07
1.07996e-05
3.11615e-07
8.40536e-08
8.99981e-06
3.43851e-07
1.54933e-08
7.09552e-06
3.05196e-07
4.363e-09
5.80843e-06
-1.7603e-08
4.76673e-06
2.60256e-07
-5.13425e-07
3.1254e-07
1.2705e-05
5.38507e-07
-2.55827e-07
2.59079e-07
1.24721e-05
1.58279e-07
2.75716e-07
1.11785e-05
3.6756e-07
2.20065e-07
8.98786e-06
3.56705e-07
1.32084e-07
7.13473e-06
3.11055e-07
7.66383e-08
5.86325e-06
3.00819e-08
4.82885e-06
2.64455e-07
-3.17216e-07
1.10984e-05
3.47519e-07
4.13584e-07
-1.00542e-07
1.13274e-05
3.34163e-07
1.851e-07
1.01532e-05
4.14593e-07
3.17315e-07
8.30541e-06
3.12083e-07
3.16137e-07
6.83405e-06
2.06001e-07
2.8346e-07
5.70593e-06
1.2623e-07
4.73628e-06
2.48401e-07
6.10539e-08
-6.65398e-09
-3.39121e-07
6.29736e-06
7.50503e-08
2.57133e-07
4.40802e-08
-3.17007e-07
6.16753e-06
2.55827e-07
8.31643e-08
-2.80468e-07
5.80171e-06
2.31502e-07
1.02389e-07
-2.21272e-07
5.26598e-06
1.90801e-07
1.08852e-07
-1.73798e-07
4.6377e-06
1.54479e-07
1.07363e-07
-1.40957e-07
3.98175e-06
1.27997e-07
-1.18485e-07
3.3342e-06
9.83892e-08
1.09094e-07
3.0403e-09
-4.15652e-07
7.5322e-06
1.14886e-07
7.71207e-08
-3.53615e-07
7.40318e-06
1.26643e-07
-3.15511e-07
6.90428e-06
1.46054e-07
-2.43057e-07
6.16711e-06
1.47273e-07
-1.8372e-07
5.35972e-06
1.38273e-07
-1.43017e-07
4.55815e-06
-1.17629e-07
3.80183e-06
1.23495e-07
4.07025e-08
-3.28959e-07
9.26356e-06
1.90026e-07
1.38389e-07
-2.30537e-07
9.25606e-06
2.09679e-07
-2.58756e-07
8.35882e-06
2.28701e-07
-2.29646e-07
7.16875e-06
2.09077e-07
-1.65387e-07
6.07052e-06
1.8205e-07
-1.23052e-07
5.09858e-06
-1.01861e-07
4.22267e-06
1.5569e-07
2.02381e-07
-2.14491e-07
1.11923e-05
1.64745e-07
1.26822e-07
-2.70978e-07
1.133e-05
2.95026e-07
-1.29878e-07
9.99161e-06
3.33004e-07
-1.58003e-07
8.179e-06
2.79575e-07
-9.86029e-08
6.68439e-06
2.2757e-07
-7.46319e-08
5.53841e-06
-6.96091e-08
4.55958e-06
1.87865e-07
2.09101e-07
2.0818e-08
1.22412e-05
1.45898e-07
1.86999e-07
-1.86609e-07
1.1916e-05
2.84669e-07
-1.79012e-07
1.07507e-05
3.5953e-07
-3.63051e-08
8.80294e-06
3.09168e-07
-1.6337e-08
7.0637e-06
2.50487e-07
-1.7264e-08
5.80944e-06
-3.11929e-08
4.77182e-06
2.06799e-07
8.62643e-08
1.73076e-07
1.222e-05
2.46084e-07
1.57778e-07
-7.13252e-10
1.22149e-05
2.75472e-07
2.95361e-08
1.08519e-05
3.68587e-07
1.09538e-07
8.7486e-06
3.12391e-07
7.84302e-08
7.09589e-06
2.53869e-07
4.27191e-08
5.86171e-06
8.08081e-09
4.83291e-06
2.10636e-07
1.29479e-08
1.06194e-05
2.50312e-07
3.88512e-07
1.68827e-07
1.07918e-05
3.7948e-07
3.03374e-07
9.71923e-06
3.28944e-07
3.18845e-07
8.16137e-06
2.38108e-07
2.72472e-07
6.80992e-06
1.48871e-07
2.29278e-07
5.70675e-06
8.5063e-08
4.74123e-06
1.99384e-07
3.28893e-08
-2.48823e-08
-5.59251e-08
6.28737e-06
3.48677e-08
5.59165e-08
-1.60635e-08
-4.18154e-08
6.15408e-06
4.62559e-08
-7.26611e-09
-3.64786e-08
5.78478e-06
4.42998e-08
6.07016e-09
-4.09047e-08
5.24661e-06
4.66205e-08
2.33976e-08
-5.31819e-08
4.61928e-06
5.41886e-08
3.87962e-08
-6.42023e-08
3.96886e-06
6.19676e-08
-7.31539e-08
3.33068e-06
4.6914e-08
6.87014e-08
-1.24059e-08
-8.1668e-08
7.53393e-06
3.59988e-08
-1.03176e-08
-4.13427e-08
7.40032e-06
-1.68007e-08
-2.70187e-08
6.90136e-06
-4.50128e-09
-4.03748e-08
6.15398e-06
1.69107e-08
-5.42234e-08
5.33895e-06
3.65638e-08
-6.35865e-08
4.53817e-06
-7.25385e-08
3.78932e-06
4.86206e-08
8.10916e-08
-1.39174e-07
9.22195e-06
1.7715e-08
2.08849e-08
1.16598e-08
9.26317e-06
-5.55093e-09
-3.00918e-08
8.38853e-06
3.66384e-09
-5.4937e-08
7.17414e-06
2.36608e-08
-5.75262e-08
6.05371e-06
4.24359e-08
-5.84376e-08
5.07467e-06
-6.60838e-08
4.20315e-06
5.5348e-08
2.52456e-07
-3.15378e-07
1.11369e-05
-2.04008e-08
1.56688e-07
-1.76169e-07
1.16129e-05
6.30378e-08
-6.91805e-08
1.01243e-05
4.48307e-08
-6.96928e-08
8.21225e-06
4.42174e-08
-4.58079e-08
6.67293e-06
5.34383e-08
-4.24568e-08
5.51289e-06
-5.26099e-08
4.53502e-06
6.4225e-08
5.44093e-07
-2.89311e-07
1.17735e-05
-1.02389e-07
2.53424e-07
-4.10357e-07
1.24407e-05
4.49188e-08
-3.08035e-07
1.11979e-05
4.45324e-08
-9.1183e-08
8.82453e-06
4.46234e-08
-3.29825e-08
7.05071e-06
5.48709e-08
-2.63809e-08
5.78283e-06
-3.86328e-08
4.74411e-06
6.82158e-08
3.72142e-07
-8.66137e-08
1.15128e-05
1.32332e-07
3.08202e-07
-2.99657e-07
1.21687e-05
9.71031e-08
-1.62181e-07
1.09167e-05
5.5547e-08
-3.61343e-08
8.73473e-06
4.35139e-08
-6.6434e-09
7.08128e-06
5.26977e-08
-8.22878e-09
5.83418e-06
-2.62375e-08
4.80364e-06
6.94245e-08
1.41944e-07
1.02885e-05
5.89978e-08
4.38245e-08
1.14925e-07
1.04666e-05
5.31161e-08
4.19623e-08
9.60848e-06
2.18522e-08
1.56829e-08
8.14807e-06
3.60131e-09
2.24112e-08
6.78984e-06
6.61791e-09
4.45675e-08
5.67731e-06
-9.61182e-10
4.71161e-06
7.31144e-08
-2.51801e-08
-5.743e-08
2.26409e-07
6.21794e-06
1.48993e-08
-1.14448e-07
-8.39321e-08
2.26063e-07
6.08167e-06
-1.26886e-07
-8.49444e-08
1.70385e-07
5.71047e-06
-9.52627e-08
-6.55195e-08
1.00999e-07
5.1755e-06
-4.93166e-08
-3.25856e-08
2.98532e-08
4.55908e-06
-2.34644e-09
-1.75213e-09
-2.01059e-08
3.92607e-06
3.19955e-08
-5.29657e-08
3.308e-06
1.90672e-08
5.492e-08
-8.03813e-08
3.12126e-07
7.52586e-06
3.04787e-09
-1.42639e-07
3.06361e-07
7.3826e-06
-1.60396e-07
2.36079e-07
6.85379e-06
-1.32272e-07
1.46235e-07
6.08033e-06
-7.79569e-08
5.13239e-08
5.26341e-06
-2.65048e-08
-9.99406e-09
4.47703e-06
-4.96733e-08
3.74967e-06
9.62731e-09
-5.74891e-08
2.65972e-07
9.40797e-06
-8.22428e-08
-2.07214e-07
2.59361e-07
9.46005e-06
-2.46065e-07
1.86772e-07
8.47698e-06
-2.06655e-07
1.40512e-07
7.14032e-06
-1.25532e-07
4.96988e-08
5.97416e-06
-5.2069e-08
-7.6707e-09
4.99899e-06
-4.61828e-08
4.14807e-06
-5.46637e-10
-1.14437e-07
5.97243e-08
1.15046e-05
-4.66471e-08
-1.3289e-07
5.31917e-08
1.18375e-05
-2.55677e-07
2.53516e-08
1.04088e-05
-2.58691e-07
7.6642e-08
8.27921e-06
-1.6326e-07
2.39759e-08
6.60343e-06
-7.4451e-08
-1.17976e-08
5.42796e-06
-4.3229e-08
4.46812e-06
-1.06106e-08
-2.12658e-08
-2.09022e-07
1.19593e-05
1.04349e-07
-1.03027e-07
-2.56486e-07
1.28326e-05
-2.84129e-07
-1.49316e-07
1.1554e-05
-3.02113e-07
-5.39836e-08
8.9734e-06
-1.99813e-07
-1.88474e-08
6.9911e-06
-9.73732e-08
-2.46253e-08
5.69313e-06
-4.51959e-08
4.66971e-06
-2.10513e-08
-9.74686e-09
-1.19514e-07
1.12122e-05
2.21225e-07
-1.12153e-07
-1.90181e-07
1.22054e-05
-3.32993e-07
-2.16335e-07
1.12045e-05
-3.3916e-07
-1.68469e-07
8.85555e-06
-2.25502e-07
-7.46051e-08
7.02333e-06
-1.1196e-07
-4.76309e-08
5.74359e-06
-5.44171e-08
4.72631e-06
-2.5528e-08
-3.63472e-08
1.04493e-05
1.57252e-08
-2.59342e-07
-2.16196e-07
1.07293e-05
-2.72153e-07
-3.70733e-07
9.85061e-06
-3.03324e-07
-3.42731e-07
8.19343e-06
-2.41762e-07
-2.20796e-07
6.71769e-06
-1.24298e-07
-1.04981e-07
5.58631e-06
-7.23061e-08
4.63519e-06
-1.14184e-08
-7.1514e-08
-6.93036e-08
1.36914e-07
6.08881e-06
6.04392e-08
1.12405e-09
-6.03531e-08
1.24589e-07
5.9482e-06
-2.02022e-10
-2.15247e-08
4.87261e-08
5.58049e-06
4.23272e-08
3.23559e-08
-2.81492e-08
5.05797e-06
9.20805e-08
9.08709e-08
-9.64647e-08
4.46133e-06
1.35954e-07
1.40629e-07
-1.42624e-07
3.85199e-06
1.66466e-07
-1.72688e-07
3.25975e-06
1.75308e-07
1.86275e-07
-1.3136e-07
2.91968e-07
7.4277e-06
7.47926e-08
-1.51552e-07
2.56011e-07
7.27165e-06
-1.02901e-07
1.40545e-07
6.71351e-06
-2.88612e-08
4.3072e-08
5.93482e-06
5.37494e-08
-5.12302e-08
5.13637e-06
1.23406e-07
-1.11894e-07
4.37718e-06
-1.50929e-07
3.67874e-06
1.72204e-07
-2.35057e-07
2.88313e-07
9.60622e-06
4.04227e-08
-2.74403e-07
2.22816e-07
9.53236e-06
-1.99746e-07
1.20234e-07
8.42327e-06
-1.0168e-07
9.07567e-08
6.99492e-06
1.0953e-08
-1.297e-08
5.82329e-06
1.029e-07
-8.05738e-08
4.87559e-06
-1.22994e-07
4.05736e-06
1.65729e-07
-4.60181e-07
2.90136e-07
1.17205e-05
2.4203e-07
-2.78392e-07
1.53596e-07
1.17263e-05
-2.29492e-07
6.17691e-08
1.04187e-05
-1.75885e-07
1.23258e-07
8.19264e-06
-3.45689e-08
6.99438e-09
6.44265e-06
7.86642e-08
-5.16643e-08
5.2859e-06
-9.27772e-08
4.36146e-06
1.55338e-07
-7.1499e-07
3.84372e-07
1.21835e-05
3.96605e-07
-4.0007e-07
2.78448e-07
1.23937e-05
-3.56423e-07
9.5282e-08
1.14775e-05
-2.75067e-07
1.40402e-08
9.00203e-06
-9.39336e-08
-1.31331e-08
6.82976e-06
4.73986e-08
-3.91251e-08
5.53937e-06
-6.83699e-08
4.55269e-06
1.40212e-07
-7.60112e-07
-1.49672e-08
1.20475e-05
3.23968e-07
-4.95002e-07
5.2362e-08
1.21669e-05
-4.43876e-07
-6.49813e-08
1.13146e-05
-3.32373e-07
-1.40361e-07
8.89933e-06
-1.30207e-07
-5.62972e-08
6.86467e-06
2.5462e-08
-3.89731e-08
5.58787e-06
-5.2669e-08
4.60619e-06
1.29768e-07
-3.83108e-07
1.0868e-05
1.65736e-07
-2.16033e-07
-4.58187e-07
1.10957e-05
-2.38594e-07
-4.61695e-07
1.00623e-05
-2.73122e-07
-3.22169e-07
8.13059e-06
-2.17241e-07
-1.25025e-07
6.55299e-06
-8.87084e-08
2.68448e-08
5.43558e-06
-4.01709e-08
4.51989e-06
1.33663e-07
-4.42213e-08
-5.55029e-08
-2.99402e-07
1.66332e-07
3.41297e-07
5.93603e-06
4.30646e-08
-3.25612e-07
3.7808e-07
5.79725e-06
1.52755e-07
-3.79926e-07
4.10963e-07
5.44012e-06
2.4553e-07
-3.90902e-07
4.21488e-07
4.93502e-06
3.17207e-07
-3.87846e-07
4.1964e-07
4.35765e-06
3.70093e-07
-3.82534e-07
4.14437e-07
3.76687e-06
-3.73296e-07
4.0858e-07
4.04259e-07
3.19084e-06
-1.11239e-07
-1.87887e-07
2.12411e-07
7.21533e-06
-1.86425e-09
-2.21358e-07
7.05814e-06
1.47558e-07
-3.30411e-07
6.51481e-06
2.6259e-07
-3.41689e-07
5.771e-06
3.43486e-07
-3.36282e-07
5.00472e-06
4.0156e-07
-3.35245e-07
4.27155e-06
-3.31264e-07
4.45126e-07
3.5933e-06
-3.10479e-07
-4.327e-08
3.41564e-07
9.43103e-06
-6.18902e-08
-9.96122e-08
9.16216e-06
1.61827e-07
-2.34004e-07
8.10321e-06
2.92893e-07
-2.41438e-07
6.76381e-06
3.71787e-07
-2.4812e-07
5.65661e-06
4.28286e-07
-2.63058e-07
4.74728e-06
-2.69468e-07
4.69356e-07
3.95465e-06
-6.11695e-07
2.12272e-07
6.38249e-07
1.14384e-05
-1.52016e-07
1.49833e-07
1.10178e-05
1.38938e-07
-8.93446e-09
9.90284e-06
2.87425e-07
-5.51679e-08
7.85799e-06
3.81246e-07
-1.34561e-07
6.23541e-06
4.40869e-07
-1.72127e-07
5.13562e-06
-1.92151e-07
4.81471e-07
4.24383e-06
-7.13988e-07
5.16875e-07
6.74718e-07
1.19178e-05
-2.49426e-07
3.48146e-07
1.17312e-05
-7.0971e-08
1.93141e-07
1.10973e-05
1.99457e-07
4.85339e-08
8.62811e-06
3.50304e-07
-4.93114e-08
6.59403e-06
4.28597e-07
-8.33129e-08
5.37259e-06
-1.10091e-07
4.74959e-07
4.42451e-06
-7.07597e-07
2.1582e-07
4.94709e-07
1.25615e-05
-4.79606e-07
2.26144e-07
1.20605e-05
-1.35711e-07
1.85519e-07
1.09788e-05
1.49529e-07
4.42886e-08
8.61835e-06
3.15981e-07
2.30666e-08
6.6257e-06
4.04519e-07
8.62216e-10
5.41515e-06
-2.90272e-08
4.55865e-07
4.47385e-06
-4.61527e-07
4.18185e-07
1.82292e-07
1.09446e-05
-2.71384e-07
1.03236e-07
1.10278e-05
-5.65364e-08
1.50183e-07
9.88263e-06
1.4858e-07
1.19075e-07
7.85047e-06
2.87983e-07
1.09313e-07
6.3273e-06
3.71237e-07
8.65064e-08
5.26666e-06
4.18614e-07
5.53636e-08
4.38824e-06
1.39201e-07
-3.1233e-08
1.70301e-06
1.29018e-09
1.41381e-07
-2.9091e-08
1.71318e-06
1.9707e-09
1.35104e-07
-2.89661e-08
1.64191e-06
2.52858e-09
1.20904e-07
-2.96519e-08
1.5097e-06
2.91267e-09
9.95659e-08
-3.11089e-08
1.33168e-06
3.22192e-09
7.1703e-08
-3.30328e-08
1.11409e-06
3.52739e-09
3.78374e-08
-3.5111e-08
8.41995e-07
4.03684e-09
-3.61364e-08
4.1458e-07
5.08636e-09
1.67478e-07
-5.46261e-08
2.41629e-06
1.64221e-07
-5.22664e-08
2.30947e-06
1.53754e-07
-5.39619e-08
2.12977e-06
1.36149e-07
-5.69046e-08
1.8961e-06
1.11535e-07
-6.07648e-08
1.62323e-06
8.01148e-08
-6.49661e-08
1.3167e-06
4.21175e-08
-6.87919e-08
9.57518e-07
-6.97952e-08
4.23192e-07
2.01967e-07
-6.90244e-08
3.01572e-06
1.94118e-07
-6.94796e-08
2.83425e-06
1.78891e-07
-7.3733e-08
2.5818e-06
1.565e-07
-7.96444e-08
2.28002e-06
1.26899e-07
-8.63894e-08
1.94415e-06
9.03441e-08
-9.31349e-08
1.57912e-06
4.72539e-08
-9.89098e-08
1.1624e-06
-1.00385e-07
5.53381e-07
2.33792e-07
-7.48429e-08
3.3894e-06
2.21873e-07
-7.97037e-08
3.19365e-06
2.02526e-07
-8.6444e-08
2.92661e-06
1.75741e-07
-9.50192e-08
2.61085e-06
1.41537e-07
-1.04331e-07
2.26187e-06
1.0019e-07
-1.13377e-07
1.88413e-06
5.22976e-08
-1.20959e-07
1.45282e-06
-1.23038e-07
8.15248e-07
2.53455e-07
-7.75751e-08
3.44198e-06
2.39903e-07
-8.49543e-08
3.30414e-06
2.18415e-07
-9.28449e-08
3.09166e-06
1.88925e-07
-1.02824e-07
2.82629e-06
1.51674e-07
-1.1346e-07
2.52315e-06
1.06973e-07
-1.23746e-07
2.18637e-06
5.54637e-08
-1.3241e-07
1.79044e-06
-1.35242e-07
1.17861e-06
2.59226e-07
-8.0886e-08
3.13589e-06
2.45336e-07
-8.71784e-08
3.12256e-06
2.2361e-07
-9.47925e-08
3.02843e-06
1.93629e-07
-1.04308e-07
2.87277e-06
1.55512e-07
-1.14614e-07
2.67023e-06
1.09839e-07
-1.24791e-07
2.42502e-06
5.72444e-08
-1.33593e-07
2.11287e-06
-1.36634e-07
1.58178e-06
2.49755e-07
2.49955e-06
-9.07082e-08
2.40895e-07
2.65938e-06
-9.24392e-08
2.2199e-07
2.72458e-06
-9.57619e-08
1.93116e-07
2.71785e-06
-1.01358e-07
1.54717e-07
2.65389e-06
-1.08313e-07
1.08378e-07
2.53668e-06
-1.1656e-07
5.5438e-08
2.34373e-06
-1.25003e-07
1.93363e-06
-1.30559e-07
1.09959e-07
-3.15716e-08
1.71705e-06
5.80697e-09
1.13069e-07
-2.98422e-08
1.73362e-06
6.35808e-09
1.08901e-07
-3.03969e-08
1.66964e-06
6.70687e-09
9.81536e-08
-3.16605e-08
1.545e-06
6.95585e-09
8.15955e-08
-3.34623e-08
1.37428e-06
7.24058e-09
6.00717e-08
-3.55086e-08
1.16331e-06
7.64843e-09
3.40758e-08
-3.75256e-08
8.97251e-07
8.23506e-09
-3.81215e-08
4.77312e-07
9.61922e-09
1.30936e-07
-5.33412e-08
2.4306e-06
1.31156e-07
-5.20605e-08
2.33119e-06
1.24573e-07
-5.4428e-08
2.16001e-06
1.11386e-07
-5.78629e-08
1.9352e-06
9.20236e-08
-6.18887e-08
1.6708e-06
6.73074e-08
-6.59809e-08
1.37182e-06
3.74891e-08
-6.94617e-08
1.01935e-06
-6.97803e-08
4.92422e-07
1.57859e-07
-6.84365e-08
3.02842e-06
1.54638e-07
-6.95366e-08
2.85457e-06
1.44646e-07
-7.41223e-08
2.61114e-06
1.27963e-07
-8.01541e-08
2.31888e-06
1.04672e-07
-8.67892e-08
1.99215e-06
7.56494e-08
-9.31971e-08
1.63523e-06
4.13813e-08
-9.84573e-08
1.22552e-06
-9.9179e-08
6.24277e-07
1.84043e-07
-7.50402e-08
3.39954e-06
1.77013e-07
-7.9873e-08
3.21084e-06
1.63635e-07
-8.65654e-08
2.95237e-06
1.43375e-07
-9.496e-08
2.64585e-06
1.16501e-07
-1.03902e-07
2.30586e-06
8.35565e-08
-1.12386e-07
1.93617e-06
4.52893e-08
-1.19247e-07
1.51176e-06
-1.20485e-07
8.81936e-07
2.00622e-07
-7.65207e-08
3.44961e-06
1.91325e-07
-8.41197e-08
3.31766e-06
1.7584e-07
-9.18194e-08
3.11249e-06
1.53288e-07
-1.01473e-07
2.85521e-06
1.23993e-07
-1.11604e-07
2.56011e-06
8.83255e-08
-1.21186e-07
2.23065e-06
4.72246e-08
-1.28956e-07
1.84112e-06
-1.30848e-07
1.2361e-06
2.05196e-07
-7.67037e-08
3.14157e-06
1.94526e-07
-8.36506e-08
3.13273e-06
1.77999e-07
-9.12422e-08
3.04418e-06
1.54782e-07
-1.00582e-07
2.89492e-06
1.24867e-07
-1.10523e-07
2.69896e-06
8.87281e-08
-1.20064e-07
2.45996e-06
4.71361e-08
-1.27974e-07
2.15344e-06
-1.30035e-07
1.62799e-06
1.98864e-07
2.50401e-06
-8.08416e-08
1.90495e-07
2.66703e-06
-8.31539e-08
1.74757e-07
2.73612e-06
-8.7275e-08
1.51465e-07
2.73398e-06
-9.35924e-08
1.20552e-07
2.67498e-06
-1.00943e-07
8.3904e-08
2.56262e-06
-1.0943e-07
4.30622e-08
2.37452e-06
-1.17674e-07
1.96947e-06
-1.22841e-07
6.13669e-08
-3.06198e-08
1.72244e-06
1.10008e-08
6.97207e-08
-3.24077e-08
1.74697e-06
1.06467e-08
7.08954e-08
-3.42602e-08
1.69231e-06
1.01504e-08
6.48608e-08
-3.6364e-08
1.5776e-06
9.77976e-09
5.17437e-08
-3.85756e-08
1.41648e-06
9.52216e-09
3.28827e-08
-4.09395e-08
1.21375e-06
9.41286e-09
1.3101e-08
-4.35319e-08
9.51586e-07
9.21668e-09
-4.51716e-08
5.26623e-07
9.27922e-09
6.62795e-08
-4.74066e-08
2.42996e-06
7.73771e-08
-5.29658e-08
2.34045e-06
8.01844e-08
-5.80864e-08
2.18075e-06
7.45431e-08
-6.34676e-08
1.96787e-06
6.09773e-08
-6.88324e-08
1.71475e-06
4.09475e-08
-7.41371e-08
1.42525e-06
1.87007e-08
-7.92243e-08
1.07752e-06
-8.22683e-08
5.4835e-07
7.42248e-08
-5.87645e-08
3.02054e-06
8.60277e-08
-6.76278e-08
2.85703e-06
8.94109e-08
-7.65115e-08
2.62607e-06
8.34954e-08
-8.54299e-08
2.34678e-06
6.86636e-08
-9.4036e-08
2.03221e-06
4.64503e-08
-1.02053e-07
1.6854e-06
2.10378e-08
-1.09102e-07
1.28086e-06
-1.12698e-07
6.75936e-07
8.19095e-08
-6.27313e-08
3.38545e-06
9.34102e-08
-7.44842e-08
3.20607e-06
9.62926e-08
-8.66194e-08
2.95952e-06
8.94859e-08
-9.85375e-08
2.66564e-06
7.34635e-08
-1.0971e-07
2.33756e-06
4.95966e-08
-1.19684e-07
1.97776e-06
2.18471e-08
-1.27779e-07
1.55856e-06
-1.30667e-07
9.21805e-07
8.44663e-08
-6.17042e-08
3.4321e-06
9.52613e-08
-7.50034e-08
3.30737e-06
9.75754e-08
-8.861e-08
3.11219e-06
9.02321e-08
-1.01918e-07
2.8658e-06
7.36482e-08
-1.14231e-07
2.58109e-06
4.92994e-08
-1.24987e-07
2.2603e-06
2.06785e-08
-1.33343e-07
1.87538e-06
-1.35493e-07
1.2616e-06
8.25217e-08
-5.75274e-08
3.12418e-06
9.07976e-08
-7.06111e-08
3.11996e-06
9.1645e-08
-8.39064e-08
3.03856e-06
8.39475e-08
-9.6797e-08
2.89751e-06
6.77975e-08
-1.08802e-07
2.70956e-06
4.46433e-08
-1.19279e-07
2.47725e-06
1.7853e-08
-1.27342e-07
2.1741e-06
-1.291e-07
1.63968e-06
8.07254e-08
2.48988e-06
-5.11273e-08
8.4249e-08
2.65488e-06
-6.21995e-08
8.179e-08
2.72797e-06
-7.33935e-08
7.23868e-08
2.73097e-06
-8.42755e-08
5.56909e-08
2.67724e-06
-9.44067e-08
3.39944e-08
2.56936e-06
-1.04399e-07
1.152e-08
2.38319e-06
-1.13246e-07
1.96994e-06
-1.18315e-07
4.02417e-08
-3.38192e-08
1.71745e-06
1.78389e-08
5.61774e-08
-3.79901e-08
1.75122e-06
1.77001e-08
6.3341e-08
-4.02606e-08
1.70761e-06
1.77279e-08
6.14482e-08
-4.23383e-08
1.60363e-06
1.82819e-08
5.15686e-08
-4.412e-08
1.45137e-06
1.92948e-08
3.58192e-08
-4.57238e-08
1.25457e-06
2.08698e-08
1.38216e-08
-4.70043e-08
9.97853e-07
2.29121e-08
-4.61286e-08
5.60111e-07
2.62692e-08
3.96181e-08
-4.87035e-08
2.41484e-06
6.13459e-08
-5.84186e-08
2.33911e-06
7.15551e-08
-6.43489e-08
2.19473e-06
6.99551e-08
-6.94376e-08
1.99676e-06
5.7909e-08
-7.36582e-08
1.75656e-06
3.78298e-08
-7.70346e-08
1.47664e-06
1.0374e-08
-7.89504e-08
1.1368e-06
-7.53964e-08
5.88028e-07
3.67736e-08
-5.82018e-08
2.99244e-06
6.30943e-08
-7.26427e-08
2.84493e-06
7.70853e-08
-8.36717e-08
2.63165e-06
7.78045e-08
-9.29283e-08
2.36967e-06
6.65657e-08
-1.00543e-07
2.07044e-06
4.57844e-08
-1.06503e-07
1.73553e-06
1.65233e-08
-1.09919e-07
1.34118e-06
-1.05224e-07
7.22602e-07
3.14086e-08
-6.06059e-08
3.34582e-06
6.11531e-08
-7.80627e-08
3.18186e-06
7.81851e-08
-9.37967e-08
2.95266e-06
8.19925e-08
-1.06967e-07
2.67586e-06
7.3752e-08
-1.17775e-07
2.36304e-06
5.604e-08
-1.2623e-07
2.0154e-06
2.90186e-08
-1.31508e-07
1.60778e-06
-1.27897e-07
9.73411e-07
2.19444e-08
-5.76928e-08
3.38622e-06
5.32869e-08
-7.57816e-08
3.27383e-06
7.22417e-08
-9.37831e-08
3.0931e-06
7.88617e-08
-1.08839e-07
2.86109e-06
7.43346e-08
-1.21352e-07
2.58921e-06
6.13405e-08
-1.31351e-07
2.27883e-06
3.86938e-08
-1.38232e-07
1.90507e-06
-1.37e-07
1.30922e-06
1.20547e-08
-5.03767e-08
3.07918e-06
4.14263e-08
-6.78465e-08
3.08256e-06
6.0134e-08
-8.49785e-08
3.0111e-06
6.8164e-08
-9.94121e-08
2.88016e-06
6.67393e-08
-1.11631e-07
2.70124e-06
5.80085e-08
-1.21653e-07
2.47632e-06
4.07481e-08
-1.29149e-07
2.18226e-06
-1.30117e-07
1.67377e-06
9.71497e-09
2.45259e-06
-3.43307e-08
2.94223e-08
2.6194e-06
-5.21409e-08
4.3196e-08
2.69715e-06
-6.77832e-08
5.00357e-08
2.7055e-06
-8.05432e-08
5.02441e-08
2.65665e-06
-9.11319e-08
4.53671e-08
2.55291e-06
-1.00422e-07
3.42457e-08
2.37303e-06
-1.07932e-07
1.98509e-06
-1.11211e-07
2.33785e-07
-5.64263e-08
1.70834e-06
7.04698e-09
2.84608e-07
-6.07995e-08
1.75439e-06
6.74468e-09
3.20711e-07
-6.24464e-08
1.72752e-06
6.486e-09
3.35733e-07
-6.37665e-08
1.64589e-06
6.4538e-09
3.24985e-07
-6.51078e-08
1.5209e-06
6.37521e-09
2.86356e-07
-6.68933e-08
1.3542e-06
5.95172e-09
2.15528e-07
-6.91012e-08
1.13336e-06
4.23232e-09
-6.93126e-08
8.46134e-07
-1.63453e-09
2.37928e-07
-9.24569e-08
2.38471e-06
2.95035e-07
-1.02732e-07
2.32381e-06
3.37558e-07
-1.08761e-07
2.19864e-06
3.59585e-07
-1.14193e-07
2.02527e-06
3.56138e-07
-1.19709e-07
1.81467e-06
3.2407e-07
-1.2604e-07
1.56763e-06
2.5442e-07
-1.33715e-07
1.27065e-06
-1.40141e-07
9.13311e-07
2.36417e-07
-1.1181e-07
2.94123e-06
2.9624e-07
-1.26761e-07
2.80945e-06
3.41635e-07
-1.38149e-07
2.6159e-06
3.66747e-07
-1.48137e-07
2.37848e-06
3.665e-07
-1.57532e-07
2.10849e-06
3.37033e-07
-1.67288e-07
1.80607e-06
2.68097e-07
-1.7826e-07
1.45483e-06
-1.88989e-07
1.03987e-06
2.2668e-07
-1.16182e-07
3.27911e-06
2.84858e-07
-1.33096e-07
3.13016e-06
3.28333e-07
-1.48451e-07
2.91956e-06
3.51952e-07
-1.61547e-07
2.66573e-06
3.50324e-07
-1.73236e-07
2.38026e-06
3.20031e-07
-1.8445e-07
2.06298e-06
2.52722e-07
-1.96187e-07
1.69339e-06
-2.07868e-07
1.24487e-06
2.07725e-07
-1.11332e-07
3.31397e-06
2.60954e-07
-1.2642e-07
3.21405e-06
2.98926e-07
-1.42486e-07
3.04913e-06
3.17531e-07
-1.55894e-07
2.83703e-06
3.11849e-07
-1.67647e-07
2.58936e-06
2.79005e-07
-1.7851e-07
2.30612e-06
2.14654e-07
-1.89367e-07
1.96281e-06
-1.99387e-07
1.51514e-06
1.85547e-07
-1.01494e-07
3.01355e-06
2.30229e-07
-1.13952e-07
3.02552e-06
2.60183e-07
-1.27201e-07
2.96608e-06
2.71333e-07
-1.38122e-07
2.85131e-06
2.59811e-07
-1.47689e-07
2.69278e-06
2.23415e-07
-1.56561e-07
2.49088e-06
1.6353e-07
-1.65562e-07
2.21841e-06
-1.73299e-07
1.81127e-06
1.67177e-07
2.40412e-06
-8.64726e-08
1.97507e-07
2.57412e-06
-9.88924e-08
2.17155e-07
2.65932e-06
-1.08922e-07
2.211e-07
2.67972e-06
-1.16299e-07
2.05219e-07
2.64735e-06
-1.22384e-07
1.67267e-07
2.56275e-06
-1.28314e-07
1.12286e-07
2.39704e-06
-1.34763e-07
2.06391e-06
-1.39714e-07
5.33465e-07
-8.36396e-08
1.83674e-09
1.66554e-06
6.48918e-07
-8.1857e-08
5.31814e-09
1.71564e-06
7.44032e-07
-8.13233e-08
9.73038e-09
1.70419e-06
8.04988e-07
-8.14359e-08
1.54238e-08
1.65092e-06
8.11226e-07
-8.19038e-08
2.27773e-08
1.57387e-06
7.27259e-07
-8.23677e-08
3.23747e-08
1.48839e-06
4.88397e-07
-8.1501e-08
4.53072e-08
1.40854e-06
-7.46942e-08
6.33645e-08
1.346e-06
5.70874e-07
-1.50614e-07
2.32608e-06
6.8938e-07
-1.48417e-07
2.27214e-06
7.8953e-07
-1.47045e-07
2.16438e-06
8.55717e-07
-1.45036e-07
2.02277e-06
8.64121e-07
-1.41878e-07
1.86636e-06
7.75101e-07
-1.3667e-07
1.71117e-06
5.2148e-07
-1.27331e-07
1.57035e-06
-1.04795e-07
1.46481e-06
5.86958e-07
-1.92127e-07
2.86547e-06
7.00757e-07
-1.92726e-07
2.74016e-06
7.99488e-07
-1.92349e-07
2.5624e-06
8.68029e-07
-1.89871e-07
2.35475e-06
8.82028e-07
-1.84522e-07
2.13733e-06
7.98872e-07
-1.75067e-07
1.92791e-06
5.43883e-07
-1.58541e-07
1.74134e-06
-1.23913e-07
1.60268e-06
5.86124e-07
-2.07229e-07
3.18978e-06
6.87969e-07
-2.09733e-07
3.04524e-06
7.77832e-07
-2.09591e-07
2.84696e-06
8.42042e-07
-2.06171e-07
2.61811e-06
8.57574e-07
-1.987e-07
2.37914e-06
7.82092e-07
-1.85827e-07
2.14932e-06
5.35211e-07
-1.64469e-07
1.94584e-06
-1.24426e-07
1.78055e-06
5.64576e-07
-2.0195e-07
3.21906e-06
6.50313e-07
-2.0195e-07
3.12048e-06
7.25751e-07
-1.99079e-07
2.96331e-06
7.8039e-07
-1.92856e-07
2.76947e-06
7.95228e-07
-1.82963e-07
2.55908e-06
7.31405e-07
-1.68485e-07
2.35257e-06
5.04637e-07
-1.47011e-07
2.17184e-06
-1.10025e-07
2.00551e-06
5.29211e-07
-1.85133e-07
2.92346e-06
5.98479e-07
-1.78792e-07
2.93331e-06
6.58423e-07
-1.69849e-07
2.87727e-06
7.01215e-07
-1.58066e-07
2.77396e-06
7.12714e-07
-1.43861e-07
2.6423e-06
6.60731e-07
-1.26952e-07
2.50128e-06
4.65903e-07
-1.06284e-07
2.37251e-06
-7.69049e-08
2.24399e-06
4.74819e-07
-1.64539e-07
2.3276e-06
5.31098e-07
-1.50731e-07
2.49019e-06
5.81525e-07
-1.35091e-07
2.57446e-06
6.20477e-07
-1.17599e-07
2.60037e-06
6.36609e-07
-9.80952e-08
2.58552e-06
6.02264e-07
-7.61501e-08
2.54643e-06
4.40069e-07
-4.99514e-08
2.50247e-06
-1.39719e-08
2.44108e-06
4.51153e-07
-8.95535e-08
6.02286e-06
7.45059e-08
4.84179e-07
-7.2514e-08
6.40163e-06
7.33244e-08
4.63254e-07
-4.66086e-08
6.7619e-06
5.8288e-08
4.06906e-07
-3.22019e-08
7.04449e-06
4.85874e-08
3.29608e-07
-3.5316e-08
7.2451e-06
4.71594e-08
2.3508e-07
-4.38543e-08
7.3579e-06
5.07399e-08
1.24257e-07
-5.35497e-08
7.32412e-06
5.67142e-08
-6.6042e-08
6.82047e-06
6.34872e-08
6.74922e-07
-1.36887e-07
8.71742e-06
7.68609e-07
-2.18232e-08
8.5617e-06
7.37643e-07
1.12425e-08
8.51979e-06
6.56931e-07
1.92853e-08
8.59543e-06
5.39567e-07
1.29356e-08
8.63222e-06
3.91734e-07
4.0897e-09
8.60655e-06
2.13559e-07
-1.4706e-09
8.44466e-06
-5.40704e-09
7.77551e-06
6.89295e-07
-2.354e-08
1.01206e-05
8.33938e-07
4.77389e-08
9.72721e-06
8.26923e-07
7.40169e-08
9.4141e-06
7.5023e-07
7.66473e-08
9.33933e-06
6.22541e-07
7.19989e-08
9.26212e-06
4.53181e-07
7.00076e-08
9.13917e-06
2.46137e-07
7.35603e-08
8.88793e-06
8.02928e-08
8.109e-06
6.86376e-07
1.41618e-07
9.58039e-06
7.77021e-07
1.33146e-07
9.26698e-06
7.59476e-07
1.30143e-07
9.07837e-06
6.86117e-07
1.24822e-07
9.02702e-06
5.67279e-07
1.23096e-07
8.94428e-06
4.1169e-07
1.27872e-07
8.80889e-06
2.22754e-07
1.39582e-07
8.54719e-06
1.5623e-07
7.78066e-06
4.68596e-07
1.9068e-07
7.55132e-06
5.10854e-07
1.50805e-07
7.67675e-06
5.03998e-07
1.37789e-07
7.79007e-06
4.56798e-07
1.34839e-07
7.8409e-06
3.77159e-07
1.38224e-07
7.82654e-06
2.71848e-07
1.47415e-07
7.74336e-06
1.4477e-07
1.61587e-07
7.53308e-06
1.77673e-07
6.86321e-06
2.52913e-07
1.50469e-07
5.51528e-06
2.80002e-07
1.23953e-07
5.85564e-06
2.79655e-07
1.15939e-07
6.08583e-06
2.56004e-07
1.18083e-07
6.22176e-06
2.13052e-07
1.25288e-07
6.28141e-06
1.53942e-07
1.36152e-07
6.26633e-06
8.14304e-08
1.49246e-07
6.13179e-06
1.6052e-07
5.60528e-06
1.50352e-07
3.70992e-06
9.47951e-08
1.70594e-07
4.08908e-06
8.7447e-08
1.72111e-07
4.36368e-06
8.8097e-08
1.59208e-07
4.54975e-06
9.48389e-08
1.34415e-07
4.66155e-06
1.04458e-07
9.9077e-08
4.70024e-06
1.15813e-07
5.39169e-08
4.63092e-06
1.28131e-07
4.23479e-06
1.39812e-07
3.5448e-07
-4.54694e-08
5.8871e-06
7.69652e-08
3.41579e-07
7.40112e-10
6.36682e-06
4.74283e-08
3.03879e-07
-3.88109e-09
6.77335e-06
3.01324e-08
2.62849e-07
-2.26716e-08
7.08248e-06
2.62952e-08
2.16979e-07
-4.19469e-08
7.30296e-06
3.0416e-08
1.57383e-07
-5.09108e-08
7.43134e-06
3.7003e-08
8.3209e-08
-5.68465e-08
7.41084e-06
4.42971e-08
-6.46902e-08
6.91659e-06
5.18311e-08
6.39008e-07
5.26847e-08
8.22679e-06
7.26158e-07
9.6626e-08
8.37825e-06
6.7304e-07
6.74435e-08
8.50115e-06
5.81259e-07
2.99698e-08
8.63448e-06
4.66954e-07
6.01261e-10
8.70384e-06
3.33743e-07
-1.08089e-08
8.69953e-06
1.79124e-07
-1.22062e-08
8.5546e-06
-1.06829e-08
7.90071e-06
6.59523e-07
1.98251e-07
9.46213e-06
8.63445e-07
1.75422e-07
9.44401e-06
8.39069e-07
1.32011e-07
9.37425e-06
7.33958e-07
9.28524e-08
9.3816e-06
5.86168e-07
6.68486e-08
9.34313e-06
4.12928e-07
5.86561e-08
9.24297e-06
2.17879e-07
6.19765e-08
9.009e-06
7.0324e-08
8.24591e-06
5.90812e-07
2.69285e-07
9.08358e-06
7.44384e-07
1.96111e-07
9.09248e-06
7.25271e-07
1.55039e-07
9.07438e-06
6.39394e-07
1.27564e-07
9.07768e-06
5.12059e-07
1.14562e-07
9.02336e-06
3.59528e-07
1.14259e-07
8.9058e-06
1.87237e-07
1.23809e-07
8.65777e-06
1.39267e-07
7.89877e-06
3.73881e-07
2.16375e-07
7.42046e-06
4.3831e-07
1.5281e-07
7.65553e-06
4.35765e-07
1.29293e-07
7.81777e-06
3.90702e-07
1.20981e-07
7.89223e-06
3.17503e-07
1.20959e-07
7.89341e-06
2.24458e-07
1.28046e-07
7.82277e-06
1.16448e-07
1.40927e-07
7.62387e-06
1.56699e-07
6.96189e-06
1.95124e-07
1.37883e-07
5.51311e-06
2.23493e-07
1.0425e-07
5.8753e-06
2.2517e-07
9.56244e-08
6.11747e-06
2.06154e-07
9.85355e-08
6.26294e-06
1.70756e-07
1.0607e-07
6.33182e-06
1.21912e-07
1.17047e-07
6.32621e-06
6.25916e-08
1.29818e-07
6.20186e-06
1.42801e-07
5.68146e-06
1.20715e-07
3.72246e-06
7.89984e-08
1.3627e-07
4.10762e-06
6.97155e-08
1.36338e-07
4.38757e-06
7.15829e-08
1.25191e-07
4.57984e-06
7.9563e-08
1.0472e-07
4.69859e-06
8.96096e-08
7.6369e-08
4.74476e-06
1.00848e-07
4.02722e-08
4.68361e-06
1.12801e-07
4.29278e-06
1.24779e-07
8.73878e-08
5.91693e-08
5.82096e-06
-2.11082e-08
6.9686e-08
5.23334e-08
6.35661e-06
-2.41839e-08
5.98756e-08
2.58539e-08
6.77677e-06
-1.94162e-08
6.53415e-08
-1.03342e-08
7.09408e-06
-6.36564e-09
6.67577e-08
-2.66952e-08
7.32227e-06
6.48036e-09
5.39411e-08
-3.0101e-08
7.45824e-06
1.61976e-08
2.85747e-08
-3.34109e-08
7.44402e-06
2.54868e-08
-4.04698e-08
6.9508e-06
3.47996e-08
3.43384e-07
1.71396e-07
7.90415e-06
3.50561e-07
1.14948e-07
8.30858e-06
3.12752e-07
6.08516e-08
8.50371e-06
2.72503e-07
1.01622e-08
8.65421e-06
2.24878e-07
-7.62894e-09
8.73219e-06
1.65092e-07
-6.39204e-09
8.73575e-06
8.93268e-08
-1.04632e-09
8.59814e-06
2.71963e-09
7.94689e-06
3.10518e-07
1.79246e-07
9.04171e-06
4.05314e-07
1.21103e-07
9.34263e-06
3.96006e-07
6.70767e-08
9.37749e-06
3.45043e-07
3.56477e-08
9.40702e-06
2.77304e-07
2.74389e-08
9.37573e-06
1.97462e-07
3.38414e-08
9.28275e-06
1.04497e-07
4.50866e-08
9.0561e-06
5.57625e-08