/*--------------------------------*- C++ -*----------------------------------*\
| =========                 |                                                 |
| \\      /  F ield         | OpenFOAM: The Open Source CFD Toolbox           |
|  \\    /   O peration     | Version:  plus.master                           |
|   \\  /    A nd           | Web:      www.OpenFOAM.com                      |
|    \\/     M anipulation  |                                                 |
\*---------------------------------------------------------------------------*/
FoamFile
{
    version     2.0;
    format      ascii;
    class       volScalarField;
    location    "11.8";
    object      epsilon;
}
// * * * * * * * * * * * * * * * * * * * * * * * * * * * * * * * * * * * * * //

dimensions      [0 2 -3 0 0 0 0];

internalField   nonuniform List<scalar> 
47285
(
0.00111358
0.00737968
0.0356509
0.0394772
0.0122969
0.00193714
0.000305447
0.00518023
0.0920914
0.588146
1.05296
0.330816
0.0602066
0.00248569
0.0208875
0.411339
0.557416
1.75434
0.40713
0.392485
0.0186009
0.0513014
1.22657
1.28663
2.5247
2.59928
0.790073
0.0411211
0.0287245
0.543215
0.560718
1.08211
0.440079
0.444753
0.0274695
0.00641517
0.0941654
0.630641
1.35005
0.313062
0.0892399
0.00502934
0.00129038
0.00750482
0.0364447
0.0430827
0.0132744
0.00364287
0.000667341
0.0070117
0.0560585
0.166725
0.223509
0.0589735
0.00822713
0.0011397
0.0480676
0.288032
0.970276
1.8746
0.46918
0.0865286
0.00805919
0.179237
0.899855
1.86898
11.7041
1.75575
0.420508
0.047347
0.356841
2.29805
11.0628
9.08442
19.5517
1.37602
0.121087
0.215553
1.06517
1.66373
4.50663
2.2672
0.599314
0.0813
0.060103
0.342342
1.16309
2.57865
0.659664
0.156808
0.0213891
0.00941009
0.0696427
0.235529
0.358851
0.115548
0.0216203
0.00248086
0.0192103
0.100127
0.248635
0.316534
0.0915936
0.0146405
0.0036668
0.100438
0.41349
1.05118
1.89728
0.559113
0.101513
0.0118399
0.304953
1.14206
2.74768
10.3737
2.43469
0.413999
0.0485814
0.578137
2.61494
9.12599
11.6598
16.0774
1.24493
0.121199
0.365577
1.32253
2.73833
4.05301
3.34542
0.611154
0.0883076
0.137031
0.526435
1.34383
2.70636
0.879034
0.201604
0.0269775
0.0304473
0.144611
0.371862
0.534568
0.191189
0.0352331
0.00591331
0.0290029
0.112459
0.279073
0.318749
0.103805
0.0220485
0.00946143
0.126734
0.478001
1.07444
1.58749
0.567331
0.104747
0.0180966
0.384442
1.29745
3.00509
6.53541
2.19849
0.401055
0.0500474
0.713789
2.65645
6.06306
7.94455
8.65447
0.988968
0.109453
0.472144
1.52756
3.13523
4.26076
2.92022
0.56574
0.0806171
0.189597
0.650553
1.47723
2.33441
0.910326
0.20249
0.0305289
0.0479435
0.188342
0.447539
0.571623
0.216546
0.043603
0.012241
0.029942
0.101835
0.254657
0.281685
0.0927998
0.02326
0.0122093
0.123559
0.470086
1.00727
1.24556
0.507014
0.0923228
0.0197461
0.407757
1.32691
2.7863
3.95211
1.75948
0.354721
0.046428
0.777135
2.67632
4.18561
4.48786
4.86482
0.813672
0.0942927
0.516022
1.62211
3.00223
3.53646
2.38937
0.501151
0.0689315
0.19533
0.689968
1.49936
2.03194
0.850725
0.178039
0.0295376
0.0492558
0.18736
0.454737
0.542658
0.204762
0.0422011
0.0148984
0.000117755
0.000101015
0.000100356
9.50203e-05
9.05501e-05
8.68533e-05
8.36746e-05
8.08641e-05
0.000404435
0.000143639
0.000104592
9.27813e-05
8.62444e-05
8.15725e-05
7.76136e-05
7.41862e-05
0.00291725
0.000419474
0.000132718
9.57423e-05
8.60429e-05
8.04667e-05
7.60566e-05
7.21903e-05
0.00749057
0.00106788
0.000197933
0.000101815
8.68077e-05
8.09701e-05
7.66267e-05
7.34616e-05
0.00455505
0.000657697
0.000162779
0.00010211
9.05869e-05
8.46395e-05
8.08192e-05
7.77879e-05
0.000958598
0.000236748
0.000125684
0.000103013
9.44273e-05
8.96505e-05
8.65163e-05
8.39194e-05
0.000224277
0.000131929
0.000109796
0.000101746
9.87951e-05
9.5962e-05
9.34472e-05
9.0823e-05
0.000409052
0.00031898
0.000272572
0.000237078
0.000209105
0.000186619
0.000168024
0.000151998
0.000918287
0.000398124
0.000297954
0.000248773
0.000215227
0.000189625
0.000169071
0.000151656
0.0035366
0.000619268
0.000328557
0.000253775
0.000215652
0.000188777
0.000167685
0.00014992
0.00810497
0.000880538
0.000354991
0.000258285
0.000217021
0.000189348
0.000168005
0.000150286
0.0066074
0.00081691
0.000347345
0.00025665
0.000216916
0.000190283
0.000169689
0.000152252
0.00213226
0.000512636
0.000309532
0.000248487
0.000215616
0.000192073
0.000173426
0.00015728
0.0006642
0.00034933
0.000274766
0.000235988
0.000209282
0.000189035
0.000172581
0.000158107
0.00207976
0.00173123
0.00148404
0.00124678
0.00101703
0.000803595
0.000616673
0.000464859
0.00300656
0.00194301
0.00157581
0.00130774
0.00106266
0.000834937
0.00063315
0.000467862
0.00597258
0.00231981
0.0016638
0.00135036
0.00109414
0.000857706
0.000645879
0.000471065
0.0105166
0.00270424
0.00172748
0.00137585
0.0011116
0.000869789
0.000652682
0.000473561
0.00948209
0.0026684
0.00171959
0.00136769
0.00110367
0.000864136
0.000650893
0.000476267
0.00454435
0.00215032
0.00161099
0.0013162
0.00106751
0.000840123
0.000640394
0.000478834
0.00240659
0.00177494
0.00148485
0.00124295
0.00101596
0.000807116
0.000625933
0.000480845
0.00692287
0.00591116
0.00505513
0.00429235
0.00366923
0.00319241
0.00281606
0.00243539
0.00834648
0.00646951
0.00541082
0.00453469
0.00381682
0.00327193
0.00286066
0.00246638
0.0116283
0.007127
0.00571617
0.00474539
0.0039581
0.00335682
0.00291033
0.00249722
0.0160663
0.00769898
0.00590886
0.00487153
0.00404494
0.0034093
0.00293748
0.00250771
0.0147531
0.0076253
0.00588872
0.0048535
0.00403556
0.00340865
0.00293828
0.00250286
0.00992953
0.00688268
0.00563598
0.00470686
0.00395195
0.00337009
0.00292069
0.00248774
0.00739787
0.00614805
0.00525696
0.00447562
0.00382751
0.00331982
0.00290869
0.00249025
0.00991087
0.00900353
0.00830966
0.00760141
0.00675987
0.00568093
0.00433492
0.00291868
0.011161
0.00938741
0.00847027
0.00771784
0.0069284
0.0059313
0.00462002
0.00315339
0.0141048
0.00999881
0.00873214
0.00791431
0.0071363
0.00617153
0.00485782
0.00333241
0.0179522
0.010564
0.00893517
0.00805475
0.00726038
0.00629072
0.00496216
0.00340303
0.0165146
0.0104699
0.00894212
0.00805983
0.00723972
0.006237
0.00489042
0.0033384
0.0125889
0.00991519
0.00884615
0.00802855
0.0071703
0.00609748
0.00471263
0.00318176
0.0105862
0.00951585
0.00881798
0.00809869
0.00720808
0.00603868
0.00457264
0.00303113
0.000255621
0.000130791
0.000114233
0.000109067
0.000105769
0.000103021
0.00010074
9.87783e-05
0.00105883
0.0002334
0.000123913
0.000100891
9.26219e-05
8.67469e-05
8.27176e-05
7.96676e-05
0.00524899
0.000948492
0.00021581
0.000106294
8.62894e-05
7.75634e-05
7.23802e-05
6.73158e-05
0.00896105
0.00152198
0.000268341
0.000107087
8.16254e-05
7.21932e-05
6.52814e-05
5.97084e-05
0.00344281
0.000617577
0.000165671
0.000100547
8.62553e-05
7.97256e-05
7.41009e-05
6.87388e-05
0.000700888
0.000177179
0.000115031
9.79233e-05
9.10672e-05
8.67056e-05
8.28729e-05
7.8732e-05
0.000233869
0.000125433
0.000107628
0.000102261
9.93633e-05
9.72768e-05
9.51774e-05
9.28672e-05
0.00123743
0.000491716
0.000374275
0.000312717
0.000267738
0.000232918
0.000205443
0.000182957
0.0066705
0.00111907
0.000528564
0.000388632
0.000317092
0.000266062
0.000226088
0.000193402
0.0298747
0.00370077
0.000912235
0.000525505
0.000400585
0.000325371
0.000268628
0.000222152
0.0450544
0.00480709
0.000978131
0.000530141
0.000399072
0.000322373
0.000265173
0.000220085
0.019221
0.00213139
0.000650464
0.000423102
0.000334263
0.000274825
0.000227511
0.000189433
0.00422066
0.000772743
0.000419592
0.000322492
0.000267143
0.000226165
0.000193707
0.000166894
0.00100703
0.000453595
0.000339556
0.000280009
0.000239159
0.000208613
0.000184909
0.000165707
0.0057267
0.0025116
0.00191823
0.00159965
0.00131384
0.00103812
0.000788424
0.00058469
0.0224698
0.00477303
0.00236518
0.00179124
0.00146803
0.00117731
0.000897954
0.000650588
0.0707002
0.0114096
0.0032057
0.00196361
0.00155383
0.00126275
0.000985452
0.000722604
0.105194
0.0148303
0.00339819
0.00191349
0.00147718
0.00118645
0.00091919
0.000670275
0.0501707
0.00774628
0.00265819
0.00180959
0.0014619
0.00118104
0.00090802
0.000653628
0.0143432
0.00348729
0.00204479
0.0016198
0.00132917
0.00105641
0.00079819
0.000574093
0.00410869
0.00218512
0.00175059
0.00146657
0.00120145
0.000947366
0.000719347
0.00053378
0.0134786
0.00793608
0.00633041
0.00529539
0.00448254
0.00384923
0.00334226
0.00284307
0.038022
0.0118998
0.00730978
0.00575661
0.00479819
0.00410491
0.00359552
0.00313187
0.103409
0.0214281
0.00858424
0.0059295
0.00476901
0.00402302
0.00352883
0.00313861
0.152989
0.0274664
0.00894673
0.00574898
0.00450032
0.00371308
0.00319321
0.00279523
0.0757451
0.0164875
0.00772729
0.00563393
0.00455058
0.00380136
0.00328801
0.00288
0.0251493
0.00958202
0.00664919
0.00538991
0.00450529
0.00384611
0.00336317
0.00293055
0.0102474
0.00710152
0.00590544
0.00499028
0.00424483
0.00366387
0.00320172
0.00274591
0.0167832
0.011723
0.0103396
0.00935706
0.00826827
0.0068908
0.0051762
0.00335462
0.0410686
0.0157332
0.0114457
0.0101385
0.00918832
0.00797967
0.00627288
0.0042399
0.109387
0.0254853
0.0129179
0.0106611
0.00984845
0.0089561
0.00744673
0.00539209
0.166774
0.0323029
0.013262
0.0103459
0.00956156
0.00890854
0.00773569
0.0059789
0.0807015
0.0206595
0.0119669
0.0102627
0.0095614
0.00874933
0.00736364
0.00545071
0.0278113
0.0132778
0.0106921
0.00973612
0.00893482
0.00786036
0.00628481
0.00435806
0.013421
0.0107274
0.0097683
0.00893638
0.00796634
0.00671082
0.00510814
0.00336941
0.000334577
0.000143699
0.000105605
9.64334e-05
9.49352e-05
9.44194e-05
9.27541e-05
9.09381e-05
0.00164406
0.000332028
0.00012206
8.54777e-05
7.71304e-05
7.36164e-05
7.24198e-05
7.14577e-05
0.00614631
0.00095446
0.000179989
8.31934e-05
6.59982e-05
5.81924e-05
5.25606e-05
4.77831e-05
0.00661313
0.00094129
0.000172904
8.63614e-05
7.04832e-05
6.24463e-05
5.62667e-05
5.11935e-05
0.00173069
0.000281339
0.000114566
8.78039e-05
7.93283e-05
7.35505e-05
6.8974e-05
6.43827e-05
0.000263348
0.000111458
0.000100876
9.25289e-05
8.67742e-05
8.19831e-05
7.79954e-05
7.51282e-05
0.000108955
9.78945e-05
9.94152e-05
9.49201e-05
9.09693e-05
8.80951e-05
8.56784e-05
8.30165e-05
0.00151239
0.000505443
0.000352378
0.000290075
0.000250305
0.00022023
0.000195997
0.000175372
0.00684298
0.00108575
0.000467047
0.000332463
0.000271883
0.000232453
0.000203356
0.0001795
0.0193042
0.00200343
0.000564895
0.000353302
0.000275167
0.000226813
0.000191445
0.000163494
0.0179994
0.00163677
0.000506045
0.000332644
0.000262073
0.00021544
0.000180054
0.00015183
0.00427249
0.00072341
0.000386482
0.00029402
0.000241341
0.000202776
0.000172764
0.000148322
0.000921512
0.000412757
0.0003155
0.000262868
0.000225269
0.000196521
0.000173831
0.000154912
0.000412002
0.000327717
0.000279712
0.000241638
0.00021193
0.000188667
0.000169904
0.000154096
0.00443686
0.00218197
0.00170407
0.00142484
0.00117311
0.000932539
0.000715375
0.000536813
0.0148863
0.0034758
0.00193347
0.00150423
0.00123125
0.000982775
0.00075081
0.000551956
0.036388
0.00531507
0.00202021
0.00142351
0.00114216
0.000908366
0.000690805
0.000500269
0.0358375
0.00476196
0.00189263
0.00135527
0.00108133
0.000849772
0.00063649
0.000451614
0.010311
0.00274619
0.0017654
0.00142342
0.00116627
0.000922191
0.000692437
0.000494536
0.0032523
0.00200251
0.00165195
0.00139204
0.00114283
0.000902005
0.000682469
0.000499603
0.00209655
0.00177049
0.00152726
0.00128444
0.00104678
0.000825363
0.000631535
0.000474502
0.0100001
0.00691746
0.00573304
0.00485373
0.00414091
0.00358233
0.00313243
0.00268103
0.0216469
0.00874817
0.00617498
0.00503469
0.00423592
0.00364042
0.00319062
0.0027599
0.0460629
0.0111102
0.00619115
0.0047837
0.00396485
0.00339876
0.00301003
0.00266286
0.0462887
0.0104982
0.00589954
0.00456582
0.00376717
0.00321917
0.00285887
0.00255187
0.0177702
0.00775099
0.00573794
0.00471217
0.00394282
0.0033739
0.0029698
0.0026039
0.0087944
0.00657823
0.00552621
0.00466288
0.0039448
0.0033932
0.00297531
0.00257506
0.00692393
0.00594621
0.00509888
0.00433724
0.003713
0.00323375
0.00285436
0.00247018
0.0130563
0.0104386
0.00945396
0.00862434
0.00765247
0.00639644
0.00482271
0.00316016
0.022766
0.0118529
0.00963952
0.00865243
0.00775657
0.00662624
0.00512627
0.00343794
0.043663
0.0139119
0.00958464
0.00841391
0.00763782
0.00668125
0.00530319
0.00364442
0.044305
0.0134084
0.00919967
0.0080878
0.00737285
0.00649508
0.00519567
0.00360404
0.0197764
0.0107475
0.00891727
0.00808364
0.00735607
0.00641428
0.0050658
0.00346411
0.0116573
0.00957582
0.00867033
0.00794354
0.00716179
0.00614514
0.00478164
0.00323986
0.00989594
0.00901065
0.0083176
0.0076087
0.0067705
0.00569825
0.0043557
0.00293227
0.000165262
0.000115008
0.000105623
0.000100127
9.62632e-05
9.29606e-05
8.98927e-05
8.72888e-05
0.000433034
0.000144034
0.000113014
0.000101282
9.37642e-05
8.72894e-05
8.15522e-05
7.63291e-05
0.00193999
0.000357556
0.000140416
0.000103154
9.11145e-05
8.22374e-05
7.53919e-05
6.9221e-05
0.00720153
0.00116549
0.0002272
0.000108871
8.76394e-05
7.67112e-05
6.81977e-05
6.18463e-05
0.00702526
0.00116107
0.000243153
0.000109852
8.3958e-05
7.40782e-05
6.72469e-05
6.17801e-05
0.00179225
0.000417498
0.000153036
0.000104262
9.17321e-05
8.52112e-05
8.05065e-05
7.66516e-05
0.000346222
0.000156312
0.000119146
0.000109774
0.000104781
0.00010152
9.89499e-05
9.6852e-05
0.00054903
0.000358665
0.000290815
0.000245339
0.000212278
0.000187252
0.000167666
0.000151637
0.00173997
0.000524113
0.00036152
0.000290437
0.000241903
0.000204678
0.000175
0.000150748
0.0089965
0.00117714
0.000531375
0.000387272
0.000311227
0.000255219
0.000210314
0.000173802
0.0354715
0.00328686
0.000851313
0.000525707
0.000406592
0.000328355
0.000268346
0.000220662
0.03305
0.0039976
0.00100868
0.000582848
0.000436744
0.0003467
0.000279467
0.000227287
0.0102573
0.00171228
0.000678087
0.000453156
0.00035228
0.000285587
0.000235535
0.000196355
0.00163939
0.000524885
0.000391846
0.000328126
0.000280366
0.00024242
0.000211977
0.000186818
0.00233641
0.00181357
0.00155369
0.00130681
0.00106627
0.000841431
0.000643989
0.00048414
0.00534262
0.00225593
0.00171849
0.00142711
0.00116964
0.000923178
0.000695674
0.000501833
0.0234277
0.00421415
0.00209097
0.00159544
0.00130767
0.00104945
0.000798712
0.000568969
0.0805043
0.0101188
0.00280148
0.00176767
0.00139708
0.00112341
0.000867242
0.000629637
0.0705417
0.0110797
0.00312952
0.00192411
0.0015148
0.00122224
0.000946961
0.000689281
0.0258779
0.0053232
0.00247957
0.00182066
0.00147238
0.00117252
0.000890356
0.000642902
0.00588558
0.00249769
0.00191784
0.00160613
0.00132234
0.00104613
0.000793975
0.00058645
0.00741602
0.00622338
0.0053486
0.00456322
0.00391291
0.00340899
0.00301106
0.00261258
0.0117302
0.00712577
0.00577169
0.00483715
0.00408598
0.0035237
0.00311898
0.00275171
0.0356827
0.0102966
0.00639147
0.0050274
0.0041282
0.00347595
0.00303137
0.00267128
0.104819
0.0189654
0.00753181
0.00525176
0.00419341
0.00349044
0.00302573
0.00266458
0.0942645
0.0193615
0.00799514
0.00559092
0.00450749
0.00381381
0.00336339
0.00300957
0.0378348
0.0118036
0.00716723
0.00560932
0.00467061
0.00400892
0.00353433
0.0031034
0.0133902
0.00786686
0.00626796
0.00524499
0.00444505
0.00382407
0.00332855
0.0028403
0.0107088
0.00969906
0.00903968
0.0083649
0.00753548
0.00642004
0.00496014
0.00334882
0.0147664
0.0106592
0.00962098
0.00900863
0.00838294
0.00747321
0.00607134
0.00430463
0.0376001
0.0139563
0.0103447
0.00942461
0.00891304
0.00821418
0.00696071
0.00520352
0.103872
0.0225021
0.0115075
0.00963189
0.0090324
0.00843835
0.00732962
0.0056715
0.0925465
0.0224185
0.0120808
0.0101791
0.00946586
0.00864327
0.0072093
0.00523074
0.0392326
0.0153233
0.0111898
0.00992458
0.00901243
0.00784439
0.00617618
0.00418385
0.0166825
0.0116615
0.0102695
0.00929706
0.00822252
0.00685922
0.0051576
0.00334715
7.82576e-05
7.15338e-05
6.92448e-05
7.08501e-05
7.51176e-05
8.14758e-05
8.80128e-05
0.000137253
0.000135687
0.000133665
0.000133982
0.000136208
0.000141952
0.000144138
0.000352407
0.000345715
0.000342082
0.000341955
0.000348488
0.000360977
0.000375007
0.00190182
0.00188853
0.00188085
0.00187118
0.00186767
0.00187432
0.00191906
0.00142729
0.00142746
0.00142011
0.00141302
0.00140698
0.00140338
0.00142662
9.66172e-05
7.68466e-05
6.1714e-05
5.54454e-05
6.42446e-05
7.57168e-05
9.04879e-05
0.000163101
0.000166245
0.000185257
0.000184371
0.000158262
0.000144462
0.000148982
0.000437418
0.000458565
0.000501769
0.00046438
0.000445482
0.000402615
0.000399033
0.00218013
0.00245738
0.00255123
0.00221607
0.00229972
0.00230762
0.00213043
0.00144775
0.00177798
0.00248139
0.00311791
0.0026536
0.00195238
0.00151689
8.92457e-05
6.99242e-05
4.39933e-05
4.74963e-05
5.99373e-05
7.2682e-05
8.02389e-05
0.000156523
0.000159036
0.000140279
0.000128652
0.000127884
0.000137982
0.000139676
0.000405277
0.00040084
0.000352569
0.000309506
0.00034449
0.000363735
0.000358575
0.0020679
0.00212387
0.00208864
0.00202166
0.00201883
0.00198284
0.00193023
0.00142865
0.00146075
0.00151958
0.00150772
0.00144045
0.00142295
0.00142338
8.47316e-05
7.27907e-05
6.36165e-05
5.65201e-05
5.73672e-05
7.27908e-05
9.47294e-05
0.000137488
0.000130305
0.000144288
0.000183482
0.00018691
0.000165086
0.000164696
0.000366856
0.000353615
0.000383569
0.000434119
0.000474233
0.000450777
0.000434962
0.00205528
0.00219533
0.00213036
0.00211515
0.00245491
0.0024535
0.00218751
0.00159179
0.00202957
0.0025877
0.00296427
0.0023978
0.00175947
0.00144927
7.55999e-05
6.91917e-05
6.07924e-05
5.23166e-05
4.39388e-05
3.61554e-05
2.92214e-05
2.31253e-05
6.92093e-05
6.46044e-05
5.79973e-05
4.9882e-05
4.21254e-05
3.48124e-05
2.82199e-05
2.2374e-05
6.69495e-05
6.26601e-05
5.67455e-05
4.90323e-05
4.1525e-05
3.43952e-05
2.7926e-05
2.21591e-05
6.87643e-05
6.47552e-05
5.83076e-05
5.09064e-05
4.29205e-05
3.49505e-05
2.81423e-05
2.23127e-05
7.28033e-05
6.78785e-05
6.05963e-05
5.2019e-05
4.38821e-05
3.62381e-05
2.9375e-05
2.33044e-05
7.93129e-05
7.377e-05
6.54516e-05
5.58291e-05
4.6867e-05
3.86701e-05
3.13359e-05
2.48722e-05
8.51849e-05
7.79089e-05
6.87706e-05
5.9156e-05
4.97386e-05
4.11067e-05
3.33911e-05
2.6588e-05
0.000123168
0.000100138
7.61784e-05
5.6841e-05
4.27732e-05
3.2701e-05
2.53941e-05
2.01685e-05
0.000121454
9.94474e-05
7.58794e-05
5.71461e-05
4.31831e-05
3.30976e-05
2.57323e-05
2.04319e-05
0.000119772
9.85459e-05
7.54318e-05
5.70164e-05
4.32188e-05
3.3204e-05
2.58517e-05
2.0536e-05
0.000120486
9.89406e-05
7.61189e-05
5.73274e-05
4.31453e-05
3.31092e-05
2.58622e-05
2.0647e-05
0.000122499
0.000100373
7.64956e-05
5.76676e-05
4.37286e-05
3.36806e-05
2.63368e-05
2.1049e-05
0.000128177
0.000104529
7.91124e-05
5.92118e-05
4.47122e-05
3.43593e-05
2.68689e-05
2.15347e-05
0.000130704
0.00010653
8.05254e-05
5.99477e-05
4.52135e-05
3.47676e-05
2.7243e-05
2.19106e-05
0.000275072
0.000201098
0.000128409
7.99368e-05
5.1356e-05
3.46429e-05
2.47384e-05
1.90213e-05
0.000268357
0.000196086
0.000126553
7.9562e-05
5.15424e-05
3.50373e-05
2.52119e-05
1.95286e-05
0.00026473
0.000194084
0.000125684
7.9305e-05
5.15508e-05
3.5144e-05
2.53485e-05
1.96724e-05
0.000264673
0.00019431
0.00012539
7.91068e-05
5.14917e-05
3.51585e-05
2.54227e-05
1.98017e-05
0.000272253
0.000199687
0.000127011
7.93359e-05
5.13503e-05
3.49744e-05
2.52647e-05
1.96823e-05
0.000286838
0.000208633
0.00013038
8.04479e-05
5.16217e-05
3.49471e-05
2.51513e-05
1.95686e-05
0.000303601
0.000219278
0.000135466
8.27443e-05
5.25906e-05
3.52542e-05
2.51085e-05
1.93325e-05
0.00134187
0.000608046
0.000239598
0.000107902
5.64643e-05
3.35967e-05
2.24554e-05
1.69843e-05
0.0013218
0.000599251
0.000236871
0.000107176
5.64428e-05
3.38619e-05
2.28674e-05
1.74978e-05
0.00130638
0.000591392
0.000234315
0.000106414
5.62511e-05
3.38672e-05
2.29506e-05
1.76179e-05
0.00129345
0.000584146
0.000231876
0.000105649
5.59842e-05
3.37793e-05
2.29526e-05
1.76776e-05
0.00128928
0.000580615
0.000230709
0.000105219
5.56621e-05
3.34613e-05
2.26287e-05
1.73494e-05
0.00129705
0.000584095
0.000232502
0.000105944
5.57645e-05
3.32725e-05
2.23152e-05
1.69793e-05
0.00134176
0.000609565
0.000243707
0.000110814
5.78802e-05
3.40784e-05
2.2421e-05
1.66545e-05
0.00113143
0.000664499
0.000271397
0.000115248
5.50667e-05
3.01539e-05
1.911e-05
1.42356e-05
0.00111947
0.000658671
0.000270032
0.000115026
5.51914e-05
3.04091e-05
1.94383e-05
1.463e-05
0.00110497
0.000651125
0.000267574
0.000114189
5.4912e-05
3.03479e-05
1.94722e-05
1.47094e-05
0.00109588
0.000646372
0.000265938
0.000113589
5.46726e-05
3.02547e-05
1.9449e-05
1.47237e-05
0.00109715
0.000646954
0.000265643
0.000113192
5.42836e-05
2.98901e-05
1.9099e-05
1.43659e-05
0.00110935
0.000653281
0.000267207
0.000113459
5.41437e-05
2.96088e-05
1.87539e-05
1.39651e-05
0.00114972
0.00067451
0.000274741
0.000116564
5.55507e-05
3.02249e-05
1.89122e-05
1.37845e-05
9.42813e-05
8.76521e-05
7.76111e-05
6.63044e-05
5.54081e-05
4.56166e-05
3.70426e-05
2.96499e-05
7.39107e-05
6.81389e-05
6.31577e-05
5.69396e-05
4.94325e-05
4.19259e-05
3.49555e-05
2.86298e-05
5.77174e-05
5.15818e-05
4.6268e-05
4.11284e-05
3.61868e-05
3.13188e-05
2.69583e-05
2.25984e-05
5.17839e-05
4.51552e-05
3.93001e-05
3.37379e-05
2.88665e-05
2.45995e-05
2.09585e-05
1.75936e-05
5.98596e-05
5.24388e-05
4.63432e-05
4.03434e-05
3.49776e-05
3.00044e-05
2.56193e-05
2.14725e-05
7.33346e-05
6.66899e-05
6.02975e-05
5.27689e-05
4.4959e-05
3.77701e-05
3.15718e-05
2.58033e-05
8.74907e-05
8.10593e-05
7.19592e-05
6.16719e-05
5.16316e-05
4.25419e-05
3.44682e-05
2.74955e-05
0.000145069
0.000115476
8.44266e-05
6.05057e-05
4.40393e-05
3.29569e-05
2.53721e-05
2.01804e-05
0.000143344
0.000114531
8.79679e-05
6.61071e-05
4.9984e-05
3.87135e-05
3.06429e-05
2.47853e-05
0.000153981
0.000117717
8.81192e-05
6.5895e-05
4.95186e-05
3.77784e-05
2.89882e-05
2.25228e-05
0.000153907
0.000118213
8.95115e-05
6.78594e-05
5.20152e-05
4.01906e-05
3.12278e-05
2.44096e-05
0.000132102
0.000100483
7.4257e-05
5.48152e-05
4.10387e-05
3.15714e-05
2.47374e-05
1.94663e-05
0.000125065
9.92887e-05
7.50694e-05
5.5743e-05
4.20041e-05
3.30141e-05
2.64738e-05
2.13743e-05
0.000133686
0.00010854
8.09702e-05
5.89744e-05
4.34145e-05
3.27339e-05
2.53344e-05
2.02284e-05
0.000341523
0.000241631
0.000145809
8.64399e-05
5.32896e-05
3.46701e-05
2.39216e-05
1.77224e-05
0.000333677
0.000232465
0.000159725
0.000106461
7.27545e-05
5.17393e-05
3.80674e-05
2.88412e-05
0.000345244
0.000209294
0.000135772
9.40163e-05
6.78854e-05
5.04031e-05
3.81113e-05
2.91292e-05
0.000318057
0.000190237
0.000121583
8.32328e-05
5.95488e-05
4.37458e-05
3.26775e-05
2.48211e-05
0.000302701
0.000176894
0.000109946
7.31163e-05
5.13851e-05
3.77101e-05
2.84019e-05
2.18607e-05
0.000291806
0.000196185
0.000137067
9.23376e-05
6.38262e-05
4.57613e-05
3.33946e-05
2.48826e-05
0.000309953
0.000227008
0.00014124
8.55438e-05
5.35789e-05
3.52768e-05
2.45602e-05
1.83456e-05
0.00150634
0.000674546
0.00026435
0.000117169
5.97972e-05
3.44122e-05
2.19992e-05
1.5679e-05
0.00175215
0.000841323
0.000353731
0.000167823
9.29518e-05
5.81412e-05
3.95725e-05
2.88237e-05
0.00191621
0.00101223
0.000480197
0.000250837
0.000150801
0.000102044
7.43542e-05
5.61396e-05
0.00161066
0.000813818
0.000367583
0.00017809
9.6348e-05
5.78024e-05
3.76832e-05
2.63795e-05
0.00170162
0.000879145
0.000405839
0.000205751
0.000119273
7.66108e-05
5.20164e-05
3.6611e-05
0.00166466
0.000817794
0.000349913
0.000169269
9.54614e-05
5.97687e-05
3.96676e-05
2.78739e-05
0.00149459
0.000680415
0.000270726
0.000122084
6.33779e-05
3.6913e-05
2.37223e-05
1.69275e-05
0.00116476
0.000671259
0.000269583
0.000113658
5.40202e-05
2.9352e-05
1.826e-05
1.30715e-05
0.00135528
0.000794839
0.000339705
0.00015608
8.24033e-05
4.98333e-05
3.3763e-05
2.51988e-05
0.00173621
0.00106175
0.000505407
0.000262233
0.000156294
0.000105466
7.80133e-05
6.17525e-05
0.00212729
0.00134478
0.000698315
0.000386077
0.000229575
0.000141329
8.61291e-05
5.09898e-05
0.00185966
0.00115906
0.000570118
0.000302876
0.00018013
0.000116469
7.86438e-05
5.46246e-05
0.00147054
0.000877155
0.000388191
0.000185188
0.000100425
6.08058e-05
3.99871e-05
2.83013e-05
0.00121244
0.000706143
0.000289966
0.000125436
6.12075e-05
3.38969e-05
2.12118e-05
1.50731e-05
8.75244e-05
8.18737e-05
7.26226e-05
6.19743e-05
5.16011e-05
4.2279e-05
3.41693e-05
2.71474e-05
6.87543e-05
6.5912e-05
6.32601e-05
5.74569e-05
4.96286e-05
4.12879e-05
3.38882e-05
2.72605e-05
4.13017e-05
3.72873e-05
3.4194e-05
3.06195e-05
2.73502e-05
2.3902e-05
2.06769e-05
1.76508e-05
4.46442e-05
3.89913e-05
3.42311e-05
2.94686e-05
2.53911e-05
2.15906e-05
1.81112e-05
1.49917e-05
5.65955e-05
5.15617e-05
4.6955e-05
4.25697e-05
3.7141e-05
3.12792e-05
2.56507e-05
2.06949e-05
7.09545e-05
6.79736e-05
6.15716e-05
5.43328e-05
4.58052e-05
3.75197e-05
3.03118e-05
2.41806e-05
7.73879e-05
7.13167e-05
6.34456e-05
5.44784e-05
4.55722e-05
3.74085e-05
3.02013e-05
2.39175e-05
0.000139282
0.000111357
8.21147e-05
5.94749e-05
4.37329e-05
3.3029e-05
2.56e-05
2.04381e-05
0.000141748
0.000118285
9.1366e-05
6.84616e-05
5.10554e-05
3.88968e-05
3.01592e-05
2.39298e-05
0.000121305
9.75569e-05
7.57973e-05
5.97252e-05
4.76407e-05
3.8537e-05
3.10371e-05
2.46328e-05
0.000109706
8.49019e-05
6.30792e-05
4.7023e-05
3.49639e-05
2.62888e-05
1.99597e-05
1.53728e-05
0.000111443
8.93551e-05
6.9675e-05
5.35079e-05
4.11354e-05
3.19156e-05
2.50955e-05
2.00348e-05
0.000123688
0.000100902
7.77427e-05
5.7999e-05
4.34497e-05
3.30509e-05
2.56781e-05
2.04068e-05
0.000125927
0.00010287
7.7906e-05
5.77532e-05
4.30977e-05
3.2703e-05
2.52968e-05
2.00706e-05
0.000316494
0.000228512
0.000140523
8.45941e-05
5.28167e-05
3.47645e-05
2.42938e-05
1.82972e-05
0.000305236
0.000224497
0.000148747
9.56263e-05
6.2858e-05
4.29485e-05
3.07472e-05
2.33692e-05
0.000260505
0.000183052
0.000139749
0.000104481
7.74772e-05
5.83602e-05
4.50816e-05
3.59871e-05
0.000222386
0.000146665
0.000104473
7.90026e-05
5.93536e-05
4.3719e-05
3.12794e-05
2.14657e-05
0.000254021
0.000175786
0.000126581
8.68654e-05
6.01957e-05
4.32785e-05
3.26288e-05
2.61021e-05
0.000278726
0.000202356
0.000132325
8.38369e-05
5.44637e-05
3.69904e-05
2.64745e-05
2.02418e-05
0.000279311
0.000204267
0.000130257
8.08088e-05
5.16771e-05
3.46866e-05
2.4644e-05
1.88434e-05
0.00143875
0.000643398
0.000251514
0.000111664
5.71248e-05
3.30095e-05
2.13184e-05
1.55274e-05
0.00148694
0.000678654
0.000269546
0.000121709
6.40552e-05
3.84043e-05
2.57605e-05
1.9335e-05
0.00149426
0.000716268
0.000296531
0.000138612
7.71285e-05
4.98022e-05
3.61464e-05
2.90507e-05
0.00146973
0.000728284
0.000323809
0.0001648
0.000101134
7.30701e-05
5.89116e-05
5.03811e-05
0.00143427
0.000678157
0.000274353
0.000126694
7.00424e-05
4.52387e-05
3.30879e-05
2.68556e-05
0.00139459
0.000638336
0.000252319
0.00011369
5.99643e-05
3.61957e-05
2.45416e-05
1.86603e-05
0.00136232
0.000617453
0.000242755
0.00010892
5.6805e-05
3.36938e-05
2.2429e-05
1.68572e-05
0.00114357
0.000665557
0.000269196
0.000113381
5.34687e-05
2.86771e-05
1.76514e-05
1.26713e-05
0.00114458
0.000666449
0.000271166
0.000115195
5.52312e-05
3.04226e-05
1.93875e-05
1.44431e-05
0.00117412
0.000686463
0.000283215
0.00012327
6.16605e-05
3.61318e-05
2.48438e-05
2.00219e-05
0.00116252
0.000683225
0.000286837
0.000130914
7.19705e-05
4.8678e-05
3.9712e-05
3.77269e-05
0.00112888
0.000659019
0.000269655
0.000116943
5.88243e-05
3.50917e-05
2.48034e-05
2.05638e-05
0.00112186
0.00065647
0.00026763
0.00011405
5.5115e-05
3.07786e-05
1.99726e-05
1.51696e-05
0.00113038
0.000662905
0.000270209
0.000114642
5.47674e-05
2.99941e-05
1.89953e-05
1.41099e-05
8.13942e-05
7.53179e-05
6.74744e-05
5.85522e-05
4.95864e-05
4.12441e-05
3.37751e-05
2.71362e-05
6.96744e-05
6.20713e-05
5.51086e-05
4.87371e-05
4.26464e-05
3.65426e-05
3.05972e-05
2.5044e-05
5.88869e-05
5.11553e-05
4.49059e-05
3.9279e-05
3.4168e-05
2.94002e-05
2.49176e-05
2.0808e-05
5.19773e-05
4.44058e-05
3.81356e-05
3.28417e-05
2.8152e-05
2.40722e-05
2.02774e-05
1.71066e-05
5.38275e-05
4.82256e-05
4.32772e-05
3.87401e-05
3.42581e-05
2.99822e-05
2.58349e-05
2.18699e-05
6.92602e-05
6.31358e-05
5.73535e-05
5.25498e-05
4.68335e-05
4.06329e-05
3.44061e-05
2.84061e-05
9.24878e-05
8.58749e-05
7.58876e-05
6.46925e-05
5.40233e-05
4.45288e-05
3.62698e-05
2.90832e-05
0.00012455
0.000103603
7.96844e-05
5.99137e-05
4.5372e-05
3.49656e-05
2.74722e-05
2.21445e-05
0.000112796
8.92954e-05
6.90241e-05
5.42358e-05
4.29244e-05
3.40432e-05
2.7192e-05
2.19657e-05
0.000119948
9.03952e-05
6.74111e-05
5.11464e-05
3.95832e-05
3.08294e-05
2.38956e-05
1.85102e-05
0.00015244
0.000116436
8.79596e-05
6.64756e-05
5.07124e-05
3.89402e-05
2.99756e-05
2.31374e-05
0.000153753
0.000116475
8.70007e-05
6.53373e-05
4.97677e-05
3.81824e-05
2.93584e-05
2.25191e-05
0.000139528
0.000109141
8.49687e-05
6.56996e-05
5.08211e-05
3.96544e-05
3.12877e-05
2.50495e-05
0.000144978
0.000114463
8.32386e-05
5.94445e-05
4.32602e-05
3.24446e-05
2.50718e-05
2.0019e-05
0.000289164
0.000217347
0.000140775
8.8335e-05
5.69898e-05
3.84678e-05
2.73536e-05
2.07948e-05
0.000258371
0.000173988
0.000129483
9.25479e-05
6.51993e-05
4.63751e-05
3.38095e-05
2.56801e-05
0.000260637
0.000152739
9.69047e-05
6.63387e-05
4.74804e-05
3.47136e-05
2.59563e-05
1.99187e-05
0.000298242
0.000179417
0.000115466
7.94687e-05
5.69871e-05
4.17959e-05
3.10534e-05
2.34347e-05
0.000324448
0.000196737
0.000129133
9.15658e-05
6.87955e-05
5.39557e-05
4.24479e-05
3.32739e-05
0.000325519
0.000224933
0.000161727
0.000109574
7.42519e-05
5.15056e-05
3.68698e-05
2.75525e-05
0.000335432
0.00023949
0.000145823
8.68942e-05
5.36944e-05
3.4944e-05
2.40946e-05
1.78447e-05
0.00146839
0.00068938
0.000282675
0.000130556
6.91669e-05
4.11095e-05
2.69776e-05
1.96087e-05
0.00161345
0.000821742
0.000363547
0.000176839
9.79218e-05
6.0198e-05
4.01323e-05
2.88344e-05
0.0015743
0.000816647
0.000381858
0.000196474
0.00011466
7.39271e-05
5.08509e-05
3.67717e-05
0.00154131
0.000782329
0.00035627
0.000174876
9.56153e-05
5.7402e-05
3.70137e-05
2.54002e-05
0.00184992
0.000982529
0.00046871
0.000245287
0.000145798
9.54724e-05
6.75449e-05
5.10557e-05
0.00176283
0.000858021
0.000360337
0.00016814
9.06655e-05
5.49873e-05
3.65537e-05
2.63884e-05
0.00151884
0.000682875
0.000268037
0.000118693
6.04082e-05
3.46172e-05
2.20353e-05
1.56625e-05
0.00127083
0.000745139
0.000308782
0.000134475
6.60688e-05
3.69451e-05
2.34296e-05
1.68948e-05
0.00153175
0.000916142
0.000403605
0.000188995
9.99363e-05
5.9518e-05
3.92719e-05
2.84415e-05