/*--------------------------------*- C++ -*----------------------------------*\
| =========                 |                                                 |
| \\      /  F ield         | OpenFOAM: The Open Source CFD Toolbox           |
|  \\    /   O peration     | Version:  plus.master                           |
|   \\  /    A nd           | Web:      www.OpenFOAM.com                      |
|    \\/     M anipulation  |                                                 |
\*---------------------------------------------------------------------------*/
FoamFile
{
    version     2.0;
    format      ascii;
    class       volScalarField;
    location    "11.8";
    object      k;
}
// * * * * * * * * * * * * * * * * * * * * * * * * * * * * * * * * * * * * * //

dimensions      [0 2 -2 0 0 0 0];

internalField   nonuniform List<scalar> 
47285
(
0.000695067
0.00240372
0.00700256
0.00762227
0.00341466
0.000984924
0.000293629
0.0018985
0.00786526
0.0326001
0.0461772
0.0200357
0.00543368
0.00117021
0.0048351
0.0237017
0.0303765
0.0505308
0.0234778
0.0239098
0.00453639
0.0090881
0.0524536
0.0480174
0.0658663
0.0639182
0.0386721
0.0077593
0.00601235
0.0294939
0.0295361
0.0422158
0.0258128
0.0276053
0.00590149
0.00218189
0.00785642
0.033042
0.053534
0.0186056
0.00797186
0.00187822
0.000766204
0.00243486
0.00708842
0.00813501
0.00356604
0.00150369
0.000494517
0.00124888
0.00542148
0.0119632
0.0128013
0.00496286
0.00128797
0.000603064
0.00473454
0.0182282
0.0427019
0.0581086
0.0234405
0.00689322
0.00127891
0.0124719
0.040324
0.0547689
0.16719
0.046902
0.0217434
0.00430532
0.0198318
0.0726886
0.168956
0.161563
0.241996
0.0426387
0.00785631
0.0148149
0.0469582
0.0560238
0.0948558
0.0573896
0.0288419
0.00665687
0.00583333
0.0210095
0.0493539
0.0783148
0.030176
0.0110938
0.00249781
0.00157939
0.0065016
0.0155664
0.0185231
0.00824964
0.00243832
0.000705193
0.00284223
0.00847061
0.0158885
0.0168542
0.0068775
0.00224436
0.00155129
0.00854054
0.0242918
0.0453253
0.0597319
0.0262352
0.00742812
0.00202923
0.0189954
0.049239
0.0779017
0.166468
0.0667043
0.0199885
0.00412527
0.0288709
0.0819305
0.16049
0.191913
0.230379
0.0388292
0.00719137
0.0222279
0.0557006
0.0805603
0.0902968
0.0848941
0.0275064
0.00652588
0.0111056
0.0297841
0.0554619
0.0824588
0.0377137
0.0128377
0.0030802
0.00392613
0.0114938
0.0220047
0.0257132
0.0122743
0.0037084
0.00164453
0.00458595
0.00963739
0.0174695
0.0176747
0.00795069
0.00378166
0.00325183
0.0105974
0.0272092
0.0471644
0.0563538
0.026767
0.00789575
0.00354932
0.0229657
0.055479
0.092442
0.134728
0.067449
0.0192933
0.00478676
0.0347716
0.0875671
0.13613
0.15354
0.16174
0.034217
0.00688698
0.0271837
0.0632408
0.0974259
0.10569
0.0841725
0.0256275
0.0063803
0.0144415
0.0350656
0.0607941
0.0774554
0.0393898
0.0128856
0.00419648
0.00607804
0.0143026
0.0255786
0.0281293
0.013846
0.0050404
0.00335514
0.005136
0.00923724
0.0163107
0.0162567
0.00768239
0.00436408
0.00390389
0.0106108
0.0266177
0.0449781
0.0489014
0.0246004
0.00756234
0.00416917
0.023755
0.0564552
0.092014
0.104021
0.0593629
0.0175954
0.00504363
0.036779
0.0897372
0.116014
0.110819
0.114762
0.0302651
0.00653846
0.0286638
0.0660859
0.0986532
0.100523
0.0752235
0.0230694
0.0060875
0.0148008
0.0361674
0.0615984
0.0714682
0.037174
0.0117546
0.00463234
0.00659443
0.0143236
0.0257213
0.0271552
0.0133602
0.00542233
0.00404956
0.000155532
0.000140383
0.000139794
0.000134779
0.000130506
0.000126925
0.000123801
0.000121
0.000354423
0.000177805
0.000143714
0.000132657
0.000126349
0.000121735
0.000117757
0.000114257
0.00132556
0.000364033
0.000168549
0.00013547
0.000126144
0.000120628
0.000116175
0.000112205
0.00248225
0.000679021
0.000220273
0.000141172
0.000126896
0.000121137
0.000116765
0.000113518
0.00178354
0.000491474
0.000193207
0.000141414
0.000130552
0.00012476
0.000120976
0.000117925
0.000631231
0.00024831
0.000162478
0.000142255
0.000134211
0.000129643
0.000126597
0.000124028
0.000239198
0.000167879
0.000148438
0.000141061
0.000138315
0.000135651
0.000133252
0.000130728
0.000513448
0.000476281
0.000439882
0.00040793
0.000380648
0.000357026
0.000335854
0.000315955
0.000566145
0.000491093
0.000450373
0.000415579
0.00038585
0.000360299
0.000337774
0.000316799
0.00078881
0.000494788
0.000445619
0.000411907
0.000383207
0.000357986
0.000335572
0.000314535
0.00110899
0.000502511
0.000442287
0.000410399
0.000382794
0.000357747
0.000335313
0.000314386
0.00107137
0.000500838
0.000440391
0.000409486
0.000382643
0.00035847
0.000336744
0.000316007
0.000649727
0.000473825
0.000435036
0.000406328
0.000381407
0.000359186
0.000339151
0.0003198
0.00049674
0.000452139
0.00042297
0.000396719
0.000373267
0.000352815
0.000334335
0.000316458
0.00142993
0.00135198
0.00124708
0.00112305
0.000988262
0.000850566
0.000718226
0.000599944
0.00146405
0.00137186
0.00127332
0.00115211
0.00101561
0.000872347
0.000731662
0.000604034
0.00154589
0.00135396
0.00127087
0.00116147
0.00102943
0.000885125
0.000739845
0.000606192
0.00166215
0.0013271
0.00126072
0.00116267
0.00103462
0.000890205
0.000742956
0.00060697
0.00173941
0.00134581
0.00125917
0.00115568
0.00102631
0.00088272
0.000737895
0.000605414
0.00149919
0.00133739
0.00124549
0.00113274
0.00100116
0.000861005
0.000723617
0.000600519
0.00138098
0.00130508
0.00121005
0.00109322
0.000963473
0.000830447
0.000703678
0.00059235
0.00306305
0.00285168
0.00258635
0.00231384
0.0020712
0.00187289
0.00170918
0.0015416
0.00312915
0.00294859
0.00269071
0.00240124
0.00213103
0.00190815
0.00173005
0.00155612
0.00313248
0.00296029
0.00274404
0.00246294
0.0021805
0.00194043
0.00174951
0.00156814
0.00313763
0.00293511
0.00275836
0.00249139
0.00220624
0.00195744
0.00175816
0.00157065
0.00323458
0.00296324
0.00275485
0.00247951
0.00219584
0.00195069
0.00175286
0.00156387
0.00315763
0.0029566
0.00271275
0.00242934
0.00215675
0.00192616
0.00173692
0.00154988
0.003056
0.00286419
0.00261413
0.00234755
0.00210351
0.00189875
0.00172494
0.00154478
0.00368375
0.00343279
0.00314919
0.00284715
0.0025229
0.00215852
0.00174073
0.00130247
0.00378035
0.00353906
0.00324378
0.00292758
0.00259968
0.00223843
0.00181817
0.00136406
0.00379954
0.00358237
0.00331495
0.00300123
0.00267016
0.00230627
0.00187802
0.00140748
0.00379003
0.00357578
0.00334118
0.00303597
0.00270298
0.00233523
0.00190141
0.00142277
0.00386273
0.0035928
0.00333241
0.00301981
0.00268376
0.00231335
0.00187971
0.00140522
0.00382629
0.00357927
0.00329416
0.002976
0.00263732
0.00226232
0.0018294
0.00136453
0.00373609
0.0035082
0.00324018
0.00294126
0.00260902
0.00222806
0.00178853
0.0013265
0.00026109
0.000166783
0.000152358
0.000147742
0.000144761
0.000142221
0.0001401
0.000138259
0.00067304
0.000245886
0.000160968
0.000140277
0.000132498
0.000126838
0.000122865
0.000119813
0.00195998
0.000627564
0.000233237
0.000145292
0.0001264
0.000117717
0.000112402
0.000107091
0.00280142
0.00085847
0.000269831
0.000146025
0.000121807
0.000112216
0.00010493
9.88689e-05
0.00147913
0.00047185
0.000195678
0.000139981
0.000126354
0.000119884
0.000114174
0.000108594
0.000511618
0.000204516
0.000152959
0.000137495
0.000131009
0.00012678
0.000123015
0.000118881
0.000245962
0.000162094
0.000146437
0.000141534
0.000138838
0.000136884
0.000134901
0.000132691
0.00066325
0.000536991
0.000492155
0.000454153
0.000419706
0.000389211
0.000362252
0.000337625
0.0012954
0.000625786
0.000533192
0.00049052
0.000451554
0.00041456
0.000380732
0.000349704
0.0034465
0.000913924
0.000589293
0.000532735
0.000490048
0.000445849
0.00040309
0.000362505
0.00435856
0.00098156
0.00058124
0.000524803
0.000481863
0.000435884
0.000391251
0.000350631
0.00239824
0.000702641
0.000536297
0.000494639
0.000454923
0.000413578
0.0003732
0.000336371
0.000955081
0.000546402
0.000486665
0.000449794
0.000413965
0.000380105
0.000349361
0.00032108
0.000583273
0.000496234
0.000459581
0.000425875
0.000394792
0.000367318
0.000343221
0.000321419
0.00181058
0.00147309
0.00136031
0.00124662
0.00110921
0.00095516
0.000799119
0.000657494
0.00322706
0.00163896
0.00139612
0.00129656
0.00118297
0.00104146
0.00088184
0.000722048
0.00660229
0.00208057
0.00138791
0.00128164
0.00119451
0.00107659
0.000930762
0.000770841
0.00820802
0.00219161
0.00132686
0.00122664
0.00114367
0.00102737
0.000884426
0.000729102
0.00503443
0.00175401
0.00134771
0.00126062
0.00116508
0.00103734
0.000884617
0.000722062
0.00243803
0.00148681
0.00133615
0.00123956
0.00111899
0.000974023
0.000816711
0.000663539
0.00157713
0.00138988
0.00130032
0.00119141
0.00105792
0.000910182
0.000762106
0.000628203
0.00366697
0.00318165
0.00289596
0.00260843
0.00233328
0.00209433
0.00188984
0.00168294
0.00529762
0.00342526
0.00300975
0.00273701
0.00246929
0.00223014
0.00203391
0.00184642
0.00906357
0.00381114
0.00296295
0.00270773
0.00246609
0.0022381
0.00205891
0.00190613
0.0111178
0.00389145
0.00282911
0.00259702
0.00236103
0.00212199
0.00192831
0.00176521
0.00726409
0.00347116
0.00290347
0.0026587
0.00239987
0.0021548
0.00196018
0.00179419
0.00429518
0.00321481
0.00291137
0.00264481
0.00237478
0.00213751
0.00194698
0.00176908
0.0033351
0.0030471
0.00279409
0.00251839
0.00225593
0.00203132
0.00184157
0.00165008
0.00441696
0.00391614
0.00358883
0.00324435
0.00286222
0.00242861
0.00193217
0.00140741
0.00598794
0.00424915
0.00380835
0.00349467
0.003152
0.00274182
0.00223379
0.00165622
0.00963864
0.00468455
0.00389258
0.00362972
0.00336982
0.0030342
0.00256606
0.00198345
0.0118605
0.00476896
0.00378098
0.00354927
0.00332966
0.00305286
0.00266065
0.00215004
0.0078902
0.00435289
0.00380268
0.00356227
0.00330763
0.00298803
0.00255042
0.00200464
0.00500661
0.00401928
0.00369932
0.00341643
0.00310049
0.00272332
0.00224886
0.00169931
0.00407241
0.00375752
0.00347178
0.0031533
0.00279991
0.00239623
0.00192564
0.00141965
0.000312373
0.000177844
0.000144613
0.000136091
0.000134676
0.000134179
0.000132583
0.000130829
0.000903848
0.000311405
0.000159389
0.000125598
0.000117277
0.000113687
0.000112443
0.000111431
0.00217329
0.000629125
0.000206612
0.000123355
0.000105716
9.71931e-05
9.08168e-05
8.52239e-05
0.00228507
0.000623464
0.000201146
0.000126473
0.000110447
0.000101879
9.50382e-05
8.92354e-05
0.000934503
0.000278702
0.000152768
0.00012787
0.000119508
0.000113624
0.000108853
0.000103967
0.000266188
0.000149963
0.000140336
0.000132416
0.000126863
0.000122138
0.000118146
0.000115228
0.000147744
0.000137476
0.000138859
0.000134674
0.000130907
0.000128129
0.000125773
0.000123139
0.000619346
0.000498087
0.000464368
0.000435698
0.0004083
0.000382702
0.00035891
0.00033603
0.00120795
0.000564254
0.000485183
0.00044899
0.000416609
0.000387454
0.000362221
0.000338894
0.00231971
0.000646093
0.000486633
0.000441491
0.000401574
0.000364381
0.000331822
0.000303133
0.00196938
0.000589736
0.000478341
0.000435929
0.000394551
0.000355052
0.000319633
0.000288082
0.000876075
0.000526578
0.000471909
0.000430969
0.000391784
0.00035633
0.000325345
0.000297586
0.000580769
0.000503335
0.000459607
0.00042097
0.000387603
0.000359295
0.000334943
0.000312684
0.000523807
0.0004833
0.000443893
0.000409455
0.000380646
0.00035645
0.000335335
0.000315933
0.00155701
0.00136165
0.00127775
0.0011764
0.00105075
0.000910432
0.000768622
0.000639109
0.00236138
0.00141047
0.00127486
0.00118904
0.00107933
0.000946516
0.000802517
0.000663391
0.00376272
0.00141735
0.001187
0.00111061
0.00101353
0.000892079
0.000757062
0.000622909
0.00334926
0.00131599
0.00115572
0.001079
0.000973755
0.000845487
0.000706392
0.000570363
0.0018302
0.00133831
0.00125137
0.00115928
0.00103986
0.000900417
0.00075203
0.000609106
0.00148862
0.00138342
0.00129259
0.00117843
0.00104437
0.000898761
0.000751993
0.000616514
0.00144243
0.00136841
0.00126355
0.00113767
0.00100014
0.000859366
0.000724085
0.00060338
0.00326142
0.00298478
0.00273913
0.00247306
0.00221968
0.00200178
0.00181575
0.00162501
0.00390002
0.00304183
0.00277366
0.00252026
0.002265
0.00204166
0.00185766
0.00167563
0.00506862
0.00294963
0.00263459
0.00241033
0.00217217
0.00196347
0.00180286
0.00165368
0.00464983
0.00278273
0.00254774
0.00233536
0.0020967
0.00188951
0.00173709
0.00160301
0.00335725
0.00287148
0.00266994
0.00242202
0.00216258
0.00194075
0.00176939
0.00161
0.00312835
0.00294597
0.00270574
0.00242899
0.00216441
0.00194289
0.0017649
0.00159121
0.00306581
0.00286122
0.00259687
0.00232509
0.00208278
0.00188427
0.00172
0.00155177
0.00397539
0.00367209
0.00339063
0.00307543
0.00272213
0.00231757
0.00185135
0.00135998
0.00448816
0.00374665
0.00343798
0.00313332
0.00279437
0.00240369
0.00194076
0.00143621
0.00538193
0.00369377
0.0033614
0.00309618
0.00279657
0.00244172
0.00200009
0.00149741
0.00502442
0.00353498
0.00327265
0.00302791
0.00274256
0.00240463
0.0019791
0.00148959
0.00400525
0.00355341
0.00331148
0.00303482
0.00272689
0.00237115
0.00193497
0.00144481
0.00379201
0.00355818
0.00328178
0.00297752
0.00265316
0.00228783
0.00185609
0.0013848
0.00368032
0.00343285
0.00314868
0.00284717
0.00252443
0.0021621
0.00174548
0.00130568
0.000195075
0.000152994
0.000144647
0.000139555
0.000135947
0.000132806
0.000129865
0.000127339
0.000371198
0.000178005
0.000151285
0.00014063
0.000133572
0.000127349
0.000121702
0.000116453
0.00100937
0.000327286
0.000175053
0.000142368
0.000131051
0.00012239
0.000115494
0.000109099
0.00242857
0.000719329
0.000241449
0.000147616
0.000127699
0.000116843
0.000108026
0.000101208
0.00237635
0.000717498
0.000252558
0.000148517
0.000124101
0.000114151
0.000107015
0.00010113
0.00095684
0.000362722
0.000185372
0.000143397
0.000131638
0.000125315
0.000120657
0.000116767
0.000319625
0.000188016
0.000156749
0.000148385
0.000143826
0.000140838
0.000138444
0.000136445
0.000516259
0.00047265
0.000436163
0.000401738
0.000371915
0.000346711
0.000325129
0.000305876
0.000659261
0.000517698
0.000473689
0.000432298
0.000393213
0.000358234
0.000327382
0.000299874
0.00133258
0.000597762
0.00052762
0.000485637
0.000440187
0.000395089
0.00035306
0.000315
0.00333176
0.000798209
0.000585043
0.000539902
0.00049249
0.000441012
0.000391897
0.000347498
0.00357968
0.000936593
0.000617686
0.000556817
0.000506027
0.000453337
0.000403178
0.000358319
0.00165702
0.000705288
0.000572022
0.000518692
0.000471134
0.000425942
0.000385013
0.000348642
0.000711717
0.000553442
0.0005065
0.00046732
0.000431348
0.000398829
0.000369616
0.000342648
0.00140766
0.00133738
0.00124261
0.00112305
0.00098884
0.000849666
0.000715188
0.000595226
0.00160552
0.00136786
0.00127688
0.00117051
0.00104219
0.000899641
0.000752759
0.00061352
0.00281046
0.00142698
0.00128137
0.00120167
0.00109508
0.000962262
0.000811716
0.000656331
0.00627272
0.00173486
0.0012692
0.00119802
0.00111009
0.00098953
0.000846055
0.000693288
0.0063639
0.00197391
0.00135135
0.00125506
0.00116662
0.00104656
0.000900303
0.000741882
0.00345286
0.00167063
0.00139998
0.00129534
0.00117961
0.00103737
0.000878293
0.000719782
0.00182074
0.00147492
0.00136361
0.00125161
0.00111555
0.000962065
0.000805379
0.000661835
0.00307968
0.00290344
0.00265636
0.00239147
0.00214955
0.00194826
0.0017814
0.00161117
0.00326024
0.00297734
0.00275638
0.0024974
0.00224145
0.00202762
0.00186261
0.00170861
0.00441537
0.00298103
0.00273712
0.00251352
0.00225794
0.00202589
0.00184839
0.00169719
0.00808656
0.00323057
0.00267601
0.0024867
0.00225616
0.00202754
0.00184722
0.00169567
0.00827189
0.00355479
0.00284138
0.00260607
0.00237221
0.0021549
0.0019884
0.00184806
0.00521403
0.00336445
0.00295467
0.00268635
0.0024257
0.00219695
0.00201299
0.00183777
0.00363895
0.00316097
0.00287854
0.00259453
0.00232329
0.00208837
0.00188789
0.00168503
0.00378527
0.00357037
0.00330796
0.00302017
0.00270296
0.00233516
0.00189859
0.00142256
0.00401385
0.00373559
0.00351
0.00325557
0.00297474
0.00263886
0.00220674
0.00169445
0.00504655
0.00382313
0.00358546
0.00338422
0.00314893
0.0028561
0.0024524
0.00194388
0.00833965
0.00409035
0.00358704
0.00340463
0.00319669
0.00293309
0.00255944
0.00207286
0.00850213
0.00438216
0.00375078
0.00351561
0.00327105
0.00295354
0.00250521
0.00194075
0.00579232
0.00416352
0.00374486
0.00344198
0.00311029
0.00271122
0.00221219
0.0016427
0.00438596
0.00389577
0.00357206
0.00323153
0.00285332
0.00242306
0.00192917
0.0014063
0.000118368
0.000111506
0.000109123
0.000110795
0.000115194
0.000121592
0.000128046
0.000296099
0.000295758
0.000293269
0.000293065
0.000294918
0.00029974
0.00029786
0.000503375
0.000499677
0.000496632
0.000495705
0.00049772
0.000501447
0.000503385
0.00130538
0.00130159
0.00129823
0.00129279
0.0012871
0.00128272
0.00129573
0.000821686
0.000821721
0.000818878
0.000816146
0.000813834
0.00081246
0.000821394
0.000136252
0.000116971
0.000101066
9.41039e-05
0.000103805
0.000115819
0.0001304
0.000313715
0.000321246
0.000326774
0.000315041
0.000302999
0.000295112
0.00030052
0.000543504
0.000582587
0.000619263
0.000583865
0.000571911
0.000532299
0.000520172
0.00140499
0.00157155
0.00167141
0.00152271
0.00155359
0.00151058
0.00138911
0.000829627
0.000951485
0.00118821
0.00138338
0.00124258
0.00101275
0.000855791
0.000129239
0.000109835
8.06506e-05
8.48859e-05
9.91231e-05
0.000112702
0.000120357
0.000312839
0.00031675
0.00027723
0.000259748
0.000272275
0.000290934
0.000296758
0.000533207
0.000544916
0.000506223
0.000453285
0.000487814
0.000504795
0.000505099
0.00136333
0.0014064
0.00140903
0.00137605
0.00135879
0.00133536
0.00131429
0.000822276
0.000834491
0.000856866
0.000852325
0.000826786
0.000819997
0.00082019
0.000124822
0.000112822
0.000103129
9.53101e-05
9.62544e-05
0.000112811
0.000134466
0.000287504
0.000274797
0.000281328
0.000309504
0.000319858
0.000316519
0.000316465
0.000498157
0.000494865
0.000515233
0.000552004
0.000592502
0.000580998
0.000544995
0.00137065
0.00147383
0.0014684
0.00146306
0.00162455
0.00157241
0.00141099
0.000883531
0.00103894
0.00122162
0.00133732
0.00116103
0.000944685
0.000830139
0.000115698
0.000109064
0.000100049
9.05187e-05
8.05767e-05
7.07552e-05
6.13916e-05
5.2525e-05
0.000109061
0.000104188
9.69585e-05
8.76889e-05
7.83452e-05
6.8993e-05
5.99818e-05
5.13821e-05
0.000106681
0.000102087
9.55584e-05
8.6691e-05
7.75995e-05
6.84413e-05
5.95653e-05
5.10531e-05
0.000108596
0.000104348
9.73037e-05
8.8885e-05
7.9328e-05
6.91759e-05
5.98724e-05
5.12886e-05
0.000112822
0.00010768
9.98347e-05
9.01766e-05
8.05086e-05
7.08643e-05
6.16078e-05
5.2797e-05
0.000119459
0.000113826
0.000105099
9.45277e-05
8.4119e-05
7.4e-05
6.43192e-05
5.51384e-05
0.000125286
0.000118046
0.000108624
9.82474e-05
8.75215e-05
7.7077e-05
6.71016e-05
5.76456e-05
0.000275058
0.000240195
0.000203225
0.000169554
0.000140321
0.000115039
9.31101e-05
7.44656e-05
0.000274741
0.000240721
0.000203249
0.000169877
0.000140504
0.000115102
9.31125e-05
7.44806e-05
0.000272752
0.000239692
0.000202554
0.000169466
0.000140285
0.000115007
9.3081e-05
7.44761e-05
0.000273179
0.000240071
0.000203794
0.000170198
0.000140212
0.000114783
9.30122e-05
7.45903e-05
0.000274683
0.000241278
0.000204369
0.000171344
0.000142136
0.000116748
9.46611e-05
7.58667e-05
0.000279741
0.000245905
0.000208515
0.000174855
0.000145167
0.000119322
9.68257e-05
7.76654e-05
0.000278348
0.000245206
0.000208814
0.000175468
0.000146317
0.000120887
9.86109e-05
7.94535e-05
0.000427963
0.000350311
0.000276021
0.000213269
0.000163967
0.00012596
9.68915e-05
7.52125e-05
0.000423872
0.000346946
0.000274318
0.000212465
0.000163537
0.000125716
9.67934e-05
7.52698e-05
0.000420779
0.000345139
0.000273334
0.00021195
0.000163271
0.000125578
9.67288e-05
7.52577e-05
0.00042012
0.000345048
0.000273102
0.000211862
0.000163327
0.000125687
9.6894e-05
7.54937e-05
0.000423845
0.000349058
0.000275189
0.000212995
0.000164154
0.000126442
9.75739e-05
7.606e-05
0.000430768
0.000355234
0.000278732
0.000215264
0.000165876
0.000127901
9.88587e-05
7.71803e-05
0.000436124
0.000359551
0.000281103
0.00021677
0.000167148
0.000129189
0.000100199
7.84877e-05
0.00103243
0.000640093
0.000381787
0.000250287
0.000175363
0.000127845
9.59487e-05
7.44201e-05
0.00102486
0.000635881
0.000379861
0.000249341
0.000174898
0.000127676
9.60224e-05
7.47159e-05
0.00101783
0.000631334
0.000377763
0.000248378
0.000174432
0.000127458
9.59573e-05
7.47553e-05
0.00101088
0.00062672
0.000375797
0.000247675
0.000174204
0.000127437
9.60639e-05
7.49566e-05
0.00100571
0.000623229
0.000374712
0.00024768
0.000174511
0.00012777
9.63227e-05
7.51174e-05
0.00100344
0.000622178
0.000375131
0.000248541
0.000175344
0.0001285
9.69449e-05
7.56289e-05
0.00101835
0.000632359
0.000380747
0.00025156
0.000177144
0.000129761
9.79377e-05
7.64034e-05
0.000777174
0.000617585
0.000392441
0.00025469
0.000172809
0.000122384
9.06208e-05
7.08423e-05
0.000773401
0.000615626
0.000391925
0.00025455
0.000172845
0.000122569
9.0975e-05
7.13738e-05
0.000767641
0.000612037
0.00039018
0.000253581
0.000172294
0.000122296
9.09062e-05
7.14477e-05
0.000763767
0.000609751
0.000389167
0.000253118
0.000172092
0.000122245
9.09635e-05
7.15844e-05
0.000762323
0.000608775
0.000388526
0.000252778
0.000171878
0.000122058
9.07543e-05
7.13315e-05
0.000762789
0.000608478
0.000387872
0.000252398
0.000171704
0.000121981
9.06808e-05
7.11958e-05
0.000771821
0.000611947
0.000387946
0.000251965
0.000171483
0.000122068
9.09223e-05
7.1358e-05
0.000134054
0.000127692
0.000117743
0.000106009
9.40508e-05
8.26152e-05
7.19078e-05
6.19899e-05
0.000113971
0.000107952
0.000102614
9.57663e-05
8.71563e-05
7.80957e-05
6.91843e-05
6.05654e-05
9.66513e-05
8.96728e-05
8.34013e-05
7.71038e-05
7.07973e-05
6.42958e-05
5.81801e-05
5.17255e-05
8.99103e-05
8.20601e-05
7.48011e-05
6.75636e-05
6.08922e-05
5.47332e-05
4.91886e-05
4.37729e-05
9.90226e-05
9.06552e-05
8.34815e-05
7.61096e-05
6.9203e-05
6.24787e-05
5.62341e-05
4.99906e-05
0.000113369
0.000106402
9.94778e-05
9.1017e-05
8.18046e-05
7.28415e-05
6.46435e-05
5.65084e-05
0.000127527
0.000121195
0.000111947
0.000101007
8.97238e-05
7.88579e-05
6.85355e-05
5.89491e-05
0.000289593
0.000252298
0.000212654
0.000177257
0.000147252
0.000122023
0.000100538
8.22024e-05
0.000294116
0.000257555
0.00021951
0.000184213
0.000154042
0.000129083
0.000107851
8.95051e-05
0.000292372
0.00024886
0.0002084
0.000173412
0.000143521
0.000118576
9.69931e-05
7.86983e-05
0.000280632
0.00023686
0.000197497
0.000164038
0.000136401
0.000113055
9.30484e-05
7.6067e-05
0.000271134
0.000229094
0.000189376
0.000155419
0.000127416
0.000104992
8.64184e-05
7.02205e-05
0.00026982
0.000234165
0.000196878
0.000163396
0.00013577
0.000114241
9.56453e-05
7.86734e-05
0.000279138
0.000244609
0.000206772
0.000172437
0.000143021
0.000118149
9.69681e-05
7.89325e-05
0.000458655
0.000372656
0.000288383
0.000220488
0.000169228
0.000130787
0.00010183
8.01677e-05
0.000476711
0.000381464
0.000309725
0.000248247
0.00019885
0.000159908
0.000128683
0.000103188
0.000493293
0.00036949
0.000289363
0.000233078
0.000189651
0.000154625
0.000125596
0.000100936
0.000462541
0.00034077
0.000261057
0.000205847
0.000164389
0.000131724
0.000105337
8.40028e-05
0.000450579
0.000328378
0.000249204
0.00019482
0.000154905
0.000124294
9.95037e-05
7.89775e-05
0.000433779
0.00034063
0.000277117
0.000222666
0.000179018
0.000144229
0.000115114
9.10365e-05
0.000438675
0.000360076
0.000281573
0.000216317
0.00016626
0.000128442
9.98557e-05
7.84879e-05
0.00109279
0.000667666
0.000394629
0.000256512
0.000178849
0.000130359
9.81574e-05
7.63742e-05
0.00125137
0.000795239
0.000482025
0.000318587
0.000227694
0.000171077
0.000132438
0.000104773
0.00138851
0.000940631
0.000609896
0.000421701
0.000313134
0.000244967
0.000197
0.000159343
0.00123869
0.000814391
0.000509058
0.000333091
0.00022943
0.00016455
0.000121532
9.19396e-05
0.00127645
0.00084996
0.000539302
0.000364086
0.000262758
0.000197706
0.000150859
0.00011519
0.0012131
0.000781403
0.000476754
0.000316953
0.000227764
0.000170631
0.00012995
0.000100678
0.00109147
0.000672484
0.000398795
0.000259614
0.000181189
0.000132051
9.93107e-05
7.71644e-05
0.000769958
0.00060057
0.000376781
0.000243868
0.000166039
0.000118599
8.87371e-05
6.98075e-05
0.000874925
0.000685428
0.000437973
0.000290496
0.00020461
0.000152168
0.000118394
9.57707e-05
0.0010967
0.000884287
0.000596856
0.000419199
0.000313123
0.000246514
0.000201411
0.000168765
0.00130851
0.00107269
0.000753044
0.000540328
0.00039702
0.000291914
0.000209423
0.000144876
0.00116042
0.000945346
0.000647489
0.000458306
0.000340352
0.000260613
0.00020136
0.000155628
0.000936249
0.000739946
0.00047901
0.000321573
0.000228245
0.000169298
0.000129619
0.000102078
0.000795731
0.000622855
0.000392402
0.000254699
0.000173966
0.000124571
9.32643e-05
7.32406e-05
0.000127567
0.000122014
0.000112641
0.000101342
8.96917e-05
7.85345e-05
6.81395e-05
5.84508e-05
0.000108609
0.000105581
0.000102737
9.63546e-05
8.73935e-05
7.73063e-05
6.77681e-05
5.86151e-05
7.7321e-05
7.22227e-05
6.81708e-05
6.33324e-05
5.87406e-05
5.36949e-05
4.87505e-05
4.38726e-05
8.14514e-05
7.44206e-05
6.82308e-05
6.17451e-05
5.59083e-05
5.01791e-05
4.46313e-05
3.93461e-05
9.54023e-05
8.96597e-05
8.42327e-05
7.89039e-05
7.2044e-05
6.42487e-05
5.62889e-05
4.87822e-05
0.000110896
0.000107783
0.000100905
9.2832e-05
8.28452e-05
7.25263e-05
6.29113e-05
5.41123e-05
0.000117515
0.000111286
0.000102939
9.29951e-05
8.25611e-05
7.23804e-05
6.27562e-05
5.37173e-05
0.000289074
0.000251507
0.000211365
0.000175653
0.000145398
0.000119956
9.82411e-05
7.97216e-05
0.000295686
0.000265145
0.000226787
0.000189955
0.000156991
0.00012944
0.000105904
8.59786e-05
0.000253484
0.000222277
0.000190418
0.000163982
0.000141367
0.000121871
0.000103545
8.58145e-05
0.000233593
0.000196916
0.000160877
0.000130776
0.000105277
8.46393e-05
6.78592e-05
5.44151e-05
0.000249333
0.000216441
0.000183471
0.000153183
0.000127041
0.000104763
8.59128e-05
6.99499e-05
0.000270332
0.000236207
0.000200652
0.000166953
0.000137754
0.000112871
9.1917e-05
7.42043e-05
0.000276469
0.000242265
0.000204637
0.000170326
0.000140529
0.000114946
9.30336e-05
7.45131e-05
0.000451814
0.00036956
0.000287817
0.000220647
0.000169233
0.000130336
0.000100903
7.89305e-05
0.000457897
0.000376814
0.000302162
0.000237133
0.000184646
0.000143539
0.000111905
8.81108e-05
0.000421874
0.00034494
0.000293525
0.000246576
0.000203017
0.000165731
0.000135199
0.000110926
0.00036969
0.000289917
0.000236331
0.000196142
0.000160348
0.000127974
9.91296e-05
7.39278e-05
0.000402548
0.000321085
0.000262926
0.00021014
0.000165965
0.000131211
0.000104723
8.51512e-05
0.000424284
0.000345218
0.000273831
0.00021253
0.000163869
0.000126434
9.80218e-05
7.69269e-05
0.000428691
0.000350756
0.000276178
0.000213134
0.000163701
0.000125748
9.68369e-05
7.531e-05
0.00106699
0.000654558
0.000388593
0.000253878
0.00017739
0.000129106
9.68204e-05
7.5004e-05
0.00110673
0.000686695
0.000409111
0.000267333
0.000187416
0.000137265
0.000103801
8.11712e-05
0.00112711
0.000719429
0.00043478
0.000285357
0.000202763
0.00015216
0.000118868
9.63939e-05
0.00111399
0.000725689
0.000453574
0.000307236
0.000227076
0.000180576
0.000151338
0.000130605
0.00107958
0.000680597
0.000404055
0.000262059
0.000184544
0.000137949
0.000108154
8.85716e-05
0.00105338
0.000653679
0.00038727
0.000251655
0.00017564
0.000128338
9.70827e-05
7.61549e-05
0.00103925
0.000643474
0.000382655
0.000250079
0.000174879
0.000127417
9.56696e-05
7.42596e-05
0.000769668
0.000606614
0.000383607
0.000248947
0.000169153
0.000119954
8.88045e-05
6.9176e-05
0.000778657
0.000614178
0.000389002
0.000252557
0.000171894
0.000122419
9.12851e-05
7.17758e-05
0.000797097
0.000628455
0.000398573
0.000259453
0.000178026
0.000128859
9.85413e-05
8.00093e-05
0.000791224
0.000623826
0.000395741
0.000259706
0.000182968
0.000139863
0.000116416
0.000105185
0.000770653
0.000606799
0.000382304
0.000247326
0.000169101
0.000122669
9.47329e-05
7.81563e-05
0.000768873
0.000608336
0.000384859
0.000249102
0.000169077
0.000120309
8.98856e-05
7.10339e-05
0.000775064
0.000614969
0.000390151
0.000252997
0.00017162
0.000121584
9.00782e-05
7.04275e-05
0.000121532
0.000115413
0.000107255
9.75791e-05
8.73455e-05
7.72515e-05
6.76178e-05
5.84375e-05
0.000109571
0.000101447
9.37096e-05
8.63443e-05
7.89994e-05
7.12698e-05
6.33123e-05
5.5398e-05
9.79492e-05
8.91733e-05
8.17531e-05
7.47736e-05
6.81405e-05
6.16452e-05
5.52084e-05
4.89574e-05
9.01289e-05
8.1147e-05
7.33148e-05
6.63616e-05
5.98836e-05
5.39493e-05
4.81183e-05
4.29621e-05
9.22505e-05
8.57324e-05
7.97617e-05
7.40861e-05
6.82572e-05
6.24532e-05
5.65526e-05
5.06071e-05
0.000109132
0.000102599
9.62321e-05
9.07883e-05
8.40848e-05
7.64916e-05
6.84607e-05
6.02482e-05
0.000132346
0.000125959
0.000115993
0.000104285
9.24781e-05
8.12972e-05
7.09045e-05
6.11974e-05
0.000268897
0.000238524
0.000203899
0.000171768
0.000143587
0.00011915
9.78964e-05
7.95639e-05
0.000250866
0.000217313
0.000185159
0.000158081
0.00013422
0.000112705
9.35337e-05
7.64573e-05
0.000249901
0.000208586
0.000172116
0.000142483
0.000118463
9.798e-05
7.97697e-05
6.37366e-05
0.000273675
0.00022888
0.000189668
0.000156462
0.000129143
0.000106323
8.69867e-05
7.05669e-05
0.000284095
0.000240557
0.00020125
0.000167936
0.000140354
0.000116775
9.62272e-05
7.79337e-05
0.000286866
0.000249283
0.000215105
0.000183491
0.000155332
0.000130625
0.000108862
8.96363e-05
0.0002903
0.000251256
0.000210759
0.000175134
0.000145406
0.000120619
9.95822e-05
8.15824e-05
0.000425228
0.00035373
0.000281485
0.000219184
0.000170134
0.000132446
0.000103623
8.18791e-05
0.000406782
0.00032213
0.000269447
0.000221973
0.000179217
0.000143019
0.000113673
9.05461e-05
0.000405008
0.000294627
0.000224754
0.000177223
0.000141213
0.000112054
8.85152e-05
6.94732e-05
0.000436748
0.000321401
0.000245953
0.000193607
0.000154224
0.000123107
9.79528e-05
7.77302e-05
0.00047032
0.000352458
0.000277872
0.000227063
0.00018935
0.000159649
0.000133077
0.000108878
0.000475224
0.000380841
0.000315037
0.00025387
0.000201935
0.000159878
0.000126492
0.000100434
0.000457155
0.000372023
0.000288896
0.000221243
0.000169892
0.000131297
0.000102217
8.04823e-05
0.00109119
0.000685524
0.000412492
0.000270671
0.000190041
0.00013949
0.000105826
8.29467e-05
0.00120033
0.000791993
0.000492127
0.000326855
0.000231618
0.000171406
0.000130742
0.000102362
0.00120603
0.00080621
0.000515757
0.000350747
0.000253509
0.000190634
0.000146027
0.000112823
0.0011916
0.000785546
0.000493076
0.000324309
0.000223912