/*--------------------------------*- C++ -*----------------------------------*\
| =========                 |                                                 |
| \\      /  F ield         | OpenFOAM: The Open Source CFD Toolbox           |
|  \\    /   O peration     | Version:  plus.master.MPPICInterFoam            |
|   \\  /    A nd           | Web:      www.OpenFOAM.com                      |
|    \\/     M anipulation  |                                                 |
\*---------------------------------------------------------------------------*/
FoamFile
{
    version     2.0;
    format      ascii;
    class       Cloud<basicKinematicMPPICParcel>;
    location    "8.2/lagrangian/kinematicCloud";
    object      positions;
}
// * * * * * * * * * * * * * * * * * * * * * * * * * * * * * * * * * * * * * //

93439
(
(-0.00290544 -0.0157429 0.00026494) 821
(0.0233885 -0.0268018 0.000253784) 860
(0.00190307 0.0784132 0.000278132) 2376
(0.00451053 -0.0448872 0.000304396) 2090
(0.0284293 -0.0593229 0.000275109) 2110
(-0.0236081 -0.0468032 0.000290568) 2075
(0.020036 -0.0467696 0.000279344) 2107
(-0.00200557 0.0188566 0.000253009) 1110
(0.0211266 0.0401058 0.000261021) 2354
(-0.00191024 0.0696224 0.000251231) 2374
(0.0301798 0.0521809 0.000282059) 2357
(0.0392682 0.0171453 0.000258934) 1545
(-0.0188345 -0.00257866 0.00027733) 558
(0.0280982 0.0188163 0.000294179) 300
(0.0591096 -0.00300374 0.00026359) 1532
(-0.00608106 0.0392563 0.00026422) 2377
(0.000647712 -0.0157879 0.000266188) 829
(-0.0453747 0.0224327 0.000291841) 1795
(0.0332434 0.0184482 0.000271762) 1370
(0.0192108 0.0644824 0.000289132) 2366
(-0.0225635 0.0225314 0.000302682) 530
(-0.00385963 -0.0937643 0.000280833) 3212
(-0.043493 -0.0235737 0.000225873) 1827
(-0.0407826 -0.0187833 0.000290943) 1826
(0.023883 -0.0246584 0.000277995) 860
(-0.0100758 -0.058505 0.000245235) 2084
(-0.0223775 0.0222701 0.000304336) 530
(0.00116969 0.100298 0.000260058) 3494
(-0.0428144 -0.0233589 0.000274132) 1826
(0.0332348 -0.0239523 0.000296527) 1505
(-0.0225714 0.0226253 0.000257608) 1139
(0.0353835 -0.0165059 0.000294755) 1513
(-0.034597 0.016247 0.000294597) 1401
(-0.0208224 0.0208135 0.000307233) 529
(0.00541456 0.0366572 0.000276715) 1472
(0.039924 0.0171906 0.000275715) 1545
(-0.00125604 0.0603057 0.000264498) 2373
(-0.00041782 0.0704834 0.000291611) 2374
(-0.0321639 0.0271613 0.000291072) 1785
(-0.07998 -0.000151646 0.000257437) 1816
(0.01568 -0.0503526 0.000265797) 2099
(-0.0218927 -0.0407062 0.00028191) 2074
(0.00960936 0.0220136 0.000285148) 1096
(-0.0438958 0.0211738 0.000273621) 1794
(-0.0199071 0.0386315 0.000318175) 2385
(0.0318525 -0.0212026 0.000274748) 1365
(-0.00612979 -0.0905335 0.00607643) 3211
(-0.00840093 0.017663 0.00030027) 1126
(-0.0189297 -0.0421192 0.000241617) 2074
(-0.0148423 0.0311715 0.000273332) 1132
(0.0412369 -0.0157195 0.000279616) 1514
(-0.0167273 0.0332728 0.000269594) 1475
(0.0198604 -0.0217446 0.000250882) 858
(-0.00378843 -0.0609253 0.000279408) 2093
(0.0317334 -0.0126648 0.000264395) 260
(0.0198458 0.0410626 0.000242944) 2354
(0.0239245 0.0250251 0.000283597) 1092
(0.000445204 0.015784 0.000249009) 1109
(-0.0189415 0.0429814 0.00027348) 2386
(0.0120524 0.0591598 0.000273892) 2365
(0.0455089 -0.0164426 0.000306726) 1514
(0.0367011 -0.0179915 0.000281843) 1513
(0.0376293 0.0136354 0.00026896) 1545
(-0.0216682 0.0392916 0.000275759) 2386
(0.0187888 -0.00211672 0.000753245) 270
(-0.0421276 -0.0250306 0.000308404) 1827
(0.0048464 0.100096 0.000288497) 3494
(0.0127266 0.0127738 0.000292449) 48
(-0.100503 0.000223369 0.000276795) 2934
(0.0438944 -0.0168704 0.000264947) 1514
(0.020348 -0.0217821 0.000263378) 858
(0.0235052 0.024911 0.000298093) 1092
(0.0184231 0.0434263 0.000289914) 2354
(0.0191831 0.0380955 0.000240081) 2353
(0.01023 0.0214407 0.000271064) 1096
(0.0255908 -0.0257382 0.000284028) 1441
(0.0596456 -0.000997824 0.000291604) 1533
(-0.0157819 -0.00221069 0.00029474) 557
(0.0152263 0.0287391 0.000286293) 1099
(0.00217194 0.0203144 0.000252663) 1111
(0.00489718 0.0358243 0.000242288) 1108
(-0.0134515 -0.0485583 0.000266248) 2083
(-0.0391374 0.0196852 0.000279958) 1794
(0.0239453 0.0193916 0.000270687) 298
(-0.0256985 0.0257035 0.000281802) 1476
(0.0120904 0.0262263 0.000279202) 1098
(0.02348 -0.0156514 0.000272963) 249
(0.00548679 0.0756597 0.000278747) 2375
(-0.0159822 0.00651348 0.00025576) 534
(-0.0348767 0.00957427 0.000269078) 1402
(-0.00409405 0.0190426 0.000273131) 1119
(0.0142551 0.0167723 0.000280718) 1086
(0.0190894 -0.0510769 0.000261416) 2108
(-0.0426861 -0.0166638 0.000260403) 1826
(0.025369 -0.0162689 0.000297703) 258
(-0.0261197 -0.026358 0.000320081) 1435
(0.0326524 0.0168701 0.000280897) 1370
(-0.081142 0.00495488 0.000257645) 1816
(-0.010328 0.0500336 0.000261857) 2379
(0.0157757 -0.000717563 0.00026526) 269
(-0.0911705 0.00245569 0.000278384) 2931
(0.0101581 0.0281325 0.000278486) 1098
(0.0555649 0.00244672 0.000266388) 1532
(-0.0272983 0.0055617 0.000275316) 546
(0.0214539 -0.00860543 0.00027851) 256
(-0.0374337 0.0196103 0.000297433) 1793
(-0.0013363 0.0732054 0.000273382) 2375
(-0.019916 0.0386486 0.000287701) 2385
(0.036462 -0.0241446 0.00031897) 1506
(-0.0544415 0.0282638 0.000281244) 1797
(-0.0262635 0.0480397 0.000290006) 2388
(0.0334722 -0.0206445 0.000291319) 1513
(-0.00237304 -0.0551415 0.000299953) 2092
(0.0346292 0.0159243 0.00028125) 1370
(0.00996812 0.0294743 0.000277467) 1107
(0.0200372 -0.0399669 0.000262783) 2106
(0.0156956 0.0201244 0.000272993) 1088
(-0.0484611 -0.0240754 0.000278446) 1828
(0.0239186 -0.0085334 0.000283118) 264
(0.0200296 -0.0394463 0.000258275) 2106
(0.0520822 0.00320004 0.000288464) 1531
(0.00437254 -0.0463681 0.000300941) 2090
(0.0224014 -0.0236584 0.000292606) 859
(-0.0231323 -0.0466289 0.000295548) 2075
(0.0244462 0.0106485 0.000289112) 289
(-0.0311205 0.00845721 0.000278776) 547
(0.0248308 0.0231858 0.00028148) 299
(0.00461114 -0.0906489 0.000299927) 3211
(0.0190597 0.0265557 0.000281559) 1091
(0.050777 0.00141492 0.000255567) 1531
(0.0248152 -0.0255786 0.000284607) 860
(0.00948142 0.0299726 0.000283789) 1107
(0.0223073 0.0433636 0.000260622) 2355
(0.0188379 0.047918 0.000254478) 2355
(0.0248161 0.0160845 0.000280127) 298
(-0.000949117 0.100289 0.000268499) 3494
(0.0165337 0.0353714 0.000267602) 2353
(0.00725205 -0.0185175 0.000281019) 847
(-0.000731671 0.0725421 0.00026735) 2375
(-0.0207343 0.0430523 0.000259889) 2386
(-0.0261856 0.0262391 0.000319363) 1476
(0.0260313 0.00986982 0.000267754) 289
(-0.0414112 -0.0186055 0.000281866) 1826
(0.00182472 0.0188427 0.000283353) 1110
(0.0199512 -0.0217677 0.000254362) 858
(-0.0246234 -0.0246917 0.000281203) 812
(-0.0531725 0.00821751 0.000264155) 1803
(0.00255725 0.0259214 0.000275807) 1113
(-0.0438694 -0.0199504 0.000266669) 1826
(0.0259468 -0.0312433 0.000287683) 2113
(0.0116183 -0.0183578 0.000278509) 847
(0.0199421 0.0214317 0.000236751) 1089
(0.0210789 -0.00471387 0.000306132) 263
(0.0221627 0.041162 0.000257524) 2354
(0.0242847 -0.0259992 0.000287618) 860
(-0.0233338 -0.0102403 0.000276265) 568
(0.0125713 -0.0465119 0.000256424) 2098
(-0.0426452 -0.0198536 0.000247047) 1826
(0.0371195 -0.00028012 0.000264756) 1368
(-0.005488 0.0156043 0.000267888) 1117
(-0.00140923 -0.0564539 0.000246521) 2092
(0.0170272 -0.0461674 0.00026109) 2107
(-0.0173798 0.0371146 0.000264103) 2385
(0.0126469 -0.0147335 0.000238091) 853
(0.0103648 0.015103 0.000253746) 1093
(-0.0927019 -0.0037016 0.00029047) 2932
(0.000732853 0.0157818 0.000271566) 1109
(0.00672485 -0.0577633 0.000265195) 2100
(0.0177171 0.00770887 0.000261782) 286
(0.024809 -0.0255598 0.000283396) 860
(-0.000134177 0.015778 0.000265646) 1109
(-0.0502288 0.0207957 0.000258447) 1796
(0.0407617 -0.0170262 0.000291686) 1514
(-0.0157375 0.00308646 0.000255671) 541
(-0.013719 0.0344036 0.000250589) 1475
(-0.0178518 -0.0317916 0.000292634) 1436
(0.0157756 -0.000677328 0.000272037) 269
(-0.100524 -0.000713781 0.000273844) 2934
(-0.0272237 -0.0272239 0.000318048) 2065
(0.0328891 -0.00967008 0.000260486) 268
(0.0152176 0.00925561 0.000278066) 285
(-0.0422182 0.0198273 0.000242209) 1794
(-0.0415188 0.019477 0.000273296) 1794
(-0.0419128 -0.0195905 0.000284247) 1826
(-0.000683468 -0.0967139 0.00025497) 3213
(0.0324711 0.0224863 0.000288079) 1553
(0.0195479 0.021934 0.000245897) 1090
(0.00193039 -0.0667567 0.000278855) 2094
(-0.0284267 -0.0550811 0.000284651) 2077
(0.0237357 -0.0244565 0.000290217) 860
(0.032559 0.0228314 0.00027867) 1553
(0.018922 0.0637831 0.000280364) 2366
(0.0105464 0.0243456 0.000259191) 1097
(0.0294542 0.0588707 0.000285446) 2358
(-0.0266763 -0.0266251 0.000317364) 1406
(0.00131245 -0.0188462 0.000295509) 830
(-0.000741416 -0.102729 0.000282171) 3214
(0.0259579 0.0210849 0.000258022) 299
(0.0469761 -0.0134674 0.000297669) 1523
(0.0202613 0.0410501 0.000258679) 2354
(0.0355396 0.0151787 0.000303162) 1545
(0.00154827 -0.0992244 0.000261345) 3213
(0.0435754 -0.0114831 0.000243145) 1522
(-0.0223361 0.0222496 0.00029068) 530
(-0.0186452 -0.035949 0.000262971) 2073
(0.0253375 -0.0162311 0.00027556) 258
(0.026741 -0.01719 0.000296385) 251
(-0.000722009 0.0764905 0.000281311) 2376
(-0.0251886 -0.0461773 0.000289351) 2075
(-0.0644331 -0.0157512 0.000310193) 1822
(0.0215361 -0.0407073 0.000280001) 2106
(0.0209315 0.0225598 0.00028871) 1090
(0.0441073 -0.0158247 0.000295357) 1514
(-0.0428735 -0.0242736 0.000274264) 1827
(0.059639 0.0012369 0.000285581) 1533
(-0.0196168 0.019429 0.000279109) 529
(-0.0257071 -0.0256864 0.000265406) 1406
(-0.058055 -0.0149263 0.000257725) 1821
(0.0255641 -0.0257644 0.000292629) 1441
(-0.0929308 0.00182971 0.000276194) 2932
(0.00880775 0.0490941 0.000259954) 2363
(-0.0241087 -0.0240283 0.000289222) 579
(-0.00947419 -0.0234724 0.000288533) 816
(0.0216222 -0.0247818 0.000277824) 859
(-0.0343897 0.0171055 0.000279032) 1793
(0.0157716 -0.000578357 0.000291286) 269
(0.00481266 -0.0936101 0.000277125) 3212
(-0.0638691 -0.0173704 0.000277004) 1822
(0.0152993 0.02049 0.000269181) 1088
(-0.0230565 0.0228453 0.000279491) 531
(0.0267021 -0.00871137 0.000277317) 266
(0.0321632 -0.0251002 0.000326392) 1505
(-0.00105308 0.0907798 0.000279113) 3491
(0.00270753 0.0157531 0.000250752) 1101
(0.0157764 0.00194889 0.000226723) 269
(0.0167711 -0.0126655 0.000262466) 246
(0.0151746 -0.0351678 0.000308101) 2105
(-0.025667 0.0256667 0.00028191) 532
(0.0198205 -0.0217676 0.000275145) 858
(0.0468574 -0.0139337 0.000305884) 1523
(-0.00925201 0.0232447 0.000264598) 1128
(0.0154933 0.0474036 0.000263075) 2363
(-0.02026 -0.0391429 0.000281585) 2074
(-0.07432 0.0275614 0.000312371) 1800
(0.00054245 0.100503 0.000268748) 3494
(-0.0186506 0.0431243 0.000273189) 2386
(0.0324602 0.0221207 0.00027148) 1553
(-0.0232274 0.0418694 0.000262989) 2386
(-0.0246816 -0.0429668 0.000291289) 2075
(0.0334683 0.0186611 0.000300142) 1370
(0.0156238 0.00469659 0.000240958) 277
(-0.00764328 -0.0672328 0.000287881) 2086
(-0.0106258 -0.027549 0.000246508) 818
(-0.0175562 0.0362876 0.000292726) 2385
(0.000907688 -0.0950783 0.000278025) 3212
(-0.0343988 0.0171463 0.000272744) 1793
(-0.017302 0.0338148 0.00029923) 1475
(0.0262899 -0.0536782 0.000313277) 2109
(0.0218745 -0.0231407 0.000291299) 859
(-0.0337111 0.0162334 0.000294347) 1401
(-0.0272268 -0.0272227 0.000328892) 1833
(-0.0271244 0.0118171 0.000284547) 538
(-0.0418609 -0.019579 0.000276832) 1826
(0.0573622 -0.00141035 0.000262417) 1532
(0.0209623 -0.00710524 0.000255812) 263
(-2.72176e-05 0.0740342 0.000261244) 2375
(-0.0113385 -0.0143257 0.000312729) 805
(0.0328257 0.0208855 0.000282129) 1553
(-0.0242753 0.0242362 0.000299572) 532
(-0.0195581 0.0212621 0.000229131) 1137
(-0.0645935 -0.0358561 0.000297169) 1831
(0.050631 0.00107536 0.000257642) 1531
(0.0156845 0.0164617 0.000232295) 1087
(-0.0155827 -0.00605443 0.000274705) 557
(0.0188284 0.0341546 0.000285838) 2353
(0.0159706 -0.0325103 0.000283159) 1440
(-0.0694158 -0.0176313 0.000272792) 1823
(0.0268119 -0.00176243 0.000282718) 273
(-0.0460365 0.0200693 0.000254439) 1795
(0.00980683 -0.0535893 0.000275292) 2100
(0.0200881 0.0378469 0.000300525) 2353
(0.0323913 -0.0120188 0.000250995) 260
(0.0219049 0.0399458 0.000278999) 2354
(-0.0233044 0.0428904 0.000315175) 2387
(-0.00342021 0.0380752 0.000256384) 1473
(-0.0387775 0.019776 0.000296893) 1794
(-0.00210958 0.0158411 0.000317739) 1109
(-0.0290744 0.0108434 0.00028282) 539
(0.0464088 0.0186669 0.000255865) 1547
(0.0202389 0.0216993 0.000254055) 1090
(0.0222135 0.0234441 0.000252386) 1091
(-0.0111546 0.0626256 0.00025312) 2381
(0.0149427 0.0294118 0.000293905) 1099
(-0.00184359 0.0773053 0.000280047) 2376
(-0.0132186 0.0622264 0.00026525) 2381
(0.0251501 -0.0296339 0.000281149) 2113
(-0.00370065 0.0194244 0.000294513) 1119
(0.00849841 -0.0315772 0.000267557) 843
(0.00831781 -0.0237595 0.000308883) 840
(-0.0531133 -0.026964 0.000295501) 1829
(0.0187899 -0.00299215 0.000980932) 262
(-0.0235424 -0.0233542 0.000246535) 579
(0.0030995 0.0338821 0.0002923) 1116
(-0.015992 -0.0152322 0.000263082) 574
(-0.0401698 0.019844 0.000285823) 1794
(-0.0462353 -0.0230437 0.000241535) 1827
(-0.0228152 -0.040997 0.00026311) 2074
(0.0223642 0.0206274 0.000254168) 298
(0.0222776 -0.0234055 0.000272961) 859
(-0.0477986 -0.0252464 0.000280554) 1827
(-0.0198199 -0.0453536 0.000257221) 2075
(0.00691686 -0.0935283 0.000247324) 3212
(-0.0651245 0.00876286 0.000268529) 1806
(0.0213578 0.0396193 0.000264244) 2354
(-0.0170754 -0.0342596 0.000317464) 2073
(0.0278706 -0.000278589 0.000274325) 274
(0.0200605 0.0405742 0.000232606) 2354
(-0.0151578 0.0502361 0.000260781) 2379
(-0.025089 -0.0248707 0.00026725) 580
(0.0173818 -0.0408727 0.000279473) 2106
(-0.0397307 0.0196493 0.000272968) 1794
(0.0247869 -0.0159452 0.0002967) 250
(-0.0229186 0.0230603 0.000305501) 1139
(-0.0345049 -0.0186536 0.000292346) 1825
(-0.017739 0.0178295 0.000296381) 1135
(0.0150653 -0.010397 0.000266683) 253
(0.0160718 0.0285149 0.000280622) 1099
(-0.0960682 0.00646018 0.000279616) 2933
(-0.028283 -0.0107789 0.000282995) 570
(0.00383244 0.0381778 0.000281618) 1473
(-0.0461051 0.0212827 0.000266917) 1795
(0.00290488 -0.0909487 0.000261961) 3211
(0.0374901 0.0161836 0.000257245) 1545
(-0.0489621 0.025793 0.000255849) 1796
(-0.0258015 -0.0260229 0.000283833) 1435
(0.0116228 -0.0148973 0.000283873) 853
(-0.0119598 -0.0137041 0.000298265) 805
(-0.0164354 0.0426659 0.000259473) 2386
(-0.0114348 0.0215541 0.000257818) 1128
(0.0199513 0.0390386 0.000275268) 2354
(-0.00185617 0.0459909 0.000243458) 2370
(-0.0234128 -0.0948781 0.000296686) 3205
(0.0238626 -0.0459181 0.000276957) 2107
(0.00106029 -0.0188442 0.000303334) 830
(0.0189773 -0.00606755 0.00171882) 263
(-0.01634 -0.0070374 0.000296467) 566
(-0.0411534 0.0197429 0.000251) 1794
(-0.026529 -0.0262033 0.000287621) 1406
(-0.0346721 -0.0185815 0.00026778) 1825
(0.0223565 -0.0152534 0.000285321) 249
(0.0330893 -0.01157 0.000243037) 268
(0.0447413 0.0133405 0.000282492) 1538
(-0.0228346 -0.0415608 0.000269079) 2074
(-0.00189262 -0.0993885 0.000282349) 3213
(0.0586567 0.000942798 0.000273879) 1532
(-0.0205007 0.0421327 0.000256378) 2386
(-0.0196423 -0.0347198 0.000299941) 2073
(0.00177531 -0.0897068 0.000289313) 3211
(0.0432043 0.000446764 0.000237679) 1529
(0.026038 -0.00794404 0.000301245) 265
(0.000167733 -0.0607738 0.00027776) 2093
(0.0225936 0.00906839 0.00025801) 288
(-0.01309 0.032872 0.000280538) 1132
(0.050884 -0.000846964 0.000315321) 1531
(0.00418761 -0.0890034 0.000321511) 3210
(-0.0268511 0.0267478 0.000306353) 1400
(-0.0657882 0.00437254 0.000282028) 1814
(-0.0226093 -0.0416817 0.000279778) 2074
(-0.0828458 -0.00126108 0.000296367) 2929
(-0.0225343 0.0390283 0.000275273) 2386
(0.0255669 0.0102982 0.000270615) 289
(-0.0657922 0.00791776 0.000284542) 1806
(0.03331 -0.0240299 0.000276927) 1505
(-0.0742014 0.000735682 0.00026772) 1815
(-0.0194797 -0.0464688 0.000256538) 2075
(0.0174134 0.0387975 0.000249352) 2353
(-0.0304181 0.0121188 0.000295834) 539
(0.0222138 0.0228059 0.000300446) 1090
(0.0338025 0.0129394 0.000300427) 292
(0.0129635 -0.0522467 0.000262617) 2099
(0.0190838 -0.0463485 0.000283754) 2107
(-0.0250007 0.0276654 0.000261106) 1476
(-0.0152883 0.0568638 0.000289526) 2380
(0.0249286 0.0219806 0.000284467) 299
(-0.017828 -0.0345566 0.000282196) 2073
(-0.0258077 -0.0456737 0.000253055) 2075
(0.0247468 0.025794 0.000288371) 1092
(0.00512476 0.048164 0.000260974) 2370
(0.0116491 -0.0589651 0.000255891) 2101
(-0.0189449 -0.04337 0.000277994) 2074
(0.00188846 -0.0899657 0.000304886) 3211
(0.0230885 0.0228364 0.000297062) 299
(0.0170844 0.0353064 0.000288604) 2353
(-0.0233165 0.0418749 0.000269912) 2386
(0.0154892 0.00687305 0.000291253) 285
(-0.0431121 -0.0241741 0.00026325) 1827
(-0.0421715 0.0202108 0.000252974) 1794
(0.0382432 0.000608442 0.000309711) 1368
(-0.0426038 -0.0238489 0.000271931) 1826
(-0.0190247 -0.0347552 0.000279674) 2073
(0.042617 -0.0135038 0.000260385) 1522
(0.034048 0.0186153 0.000283352) 1545
(-0.0905289 0.00100831 0.000287593) 2931
(0.0150613 -0.0183952 0.000263288) 855
(0.0198603 0.0214505 0.000271463) 1089
(-0.0245191 -0.0244053 0.00029654) 580
(0.0255056 0.0258823 0.000302235) 1470
(-0.096928 -0.00416422 0.00026362) 2933
(0.000984411 -0.0188442 0.000287505) 830
(-0.000159464 -0.0965918 0.000271548) 3213
(-0.0247963 0.0245602 0.000285181) 532
(-0.0349312 0.00838554 0.000271358) 548
(-0.0822681 0.00230521 0.00669719) 2929
(-0.0437902 0.0232937 0.000275872) 1795
(-0.0101003 -0.0479577 0.000318986) 2083
(0.000965239 0.0918079 0.000264929) 3491
(-0.0410597 -0.0191392 0.000271467) 1826
(-0.0104446 0.0626304 0.000265188) 2381
(0.025775 -0.026027 0.000273924) 1441
(-0.103252 -0.00109006 0.000265513) 2935
(-0.0159836 0.0295557 0.000297595) 1131
(0.0362943 -0.0108478 0.000269251) 1367
(-0.0176656 -0.0343014 0.000243773) 2073
(-0.00583488 -0.0155662 0.000281019) 821
(0.00067705 -0.0581817 0.000278523) 2092
(0.0336825 0.0182149 0.000263103) 1370
(0.0193566 0.0136983 0.000268469) 295
(0.0224106 0.023241 0.000290839) 1091
(-0.0246422 -0.0244338 0.000284761) 580
(-0.0505086 -0.0215119 0.000247832) 1828
(-0.0806222 0.000673228 0.000279729) 1816
(0.0169809 0.0353921 0.000265914) 2353
(0.0166404 -0.0624534 0.000293439) 2101
(-0.0238329 0.0535213 0.000309989) 2388
(-0.0266079 -0.0265806 0.000302879) 1406
(0.0028303 0.0623949 0.000257509) 2373
(0.0101083 0.0217001 0.000267409) 1096
(-0.0390721 0.0200133 0.000304961) 1794
(-0.0805149 0.000970401 0.000276075) 1816
(-0.0186956 -0.00392832 0.000294108) 558
(0.0182434 0.0922638 0.000313855) 3484
(-0.0256586 0.0256564 0.000265268) 532
(0.0179621 -0.0416923 0.00030106) 2106
(0.0257332 -0.0259905 0.000263431) 1441
(-0.0420877 -0.0194772 0.000301832) 1826
(0.00433481 0.0156627 0.000268109) 1101
(-0.0240757 -0.0240201 0.000309449) 579
(-0.0652056 0.00943971 0.000294015) 1806
(-0.0305036 0.0114221 0.000284724) 539
(0.0219033 -0.0230794 0.000304519) 859
(0.00129521 0.0157791 0.000293554) 1109
(0.0254568 0.0258746 0.000283398) 1470
(-0.025504 0.0255227 0.000280697) 1140
(0.0151326 0.036942 0.000302544) 2353
(0.0370499 0.0127525 0.000292984) 1537
(-0.0177073 -0.0316341 0.000293441) 1436
(0.010334 0.0223075 0.000257491) 1096
(0.0443015 0.0156823 0.000287343) 1546
(-0.0157858 -0.0020013 0.00029598) 549
(0.020843 0.0452398 0.000297787) 2355
(0.00726954 0.0177302 0.000253435) 1094
(0.0245559 0.0256179 0.000251311) 1092
(-0.0156731 0.00425739 0.00023618) 541
(0.0184131 -0.0334093 0.000264734) 1440
(0.0442612 -0.0144321 0.000303397) 1522
(0.0450957 -0.0156196 0.00028268) 1522
(-0.0422911 -0.0245406 0.000316122) 1827
(0.0367366 0.00204898 0.000302163) 1368
(-0.101744 0.00214296 0.0197076) 2990
(-0.0435019 -0.0218348 0.000284708) 1826
(-0.0240099 -0.0436807 0.000256172) 2075
(-0.00411837 -0.0898264 0.000268195) 3211
(-0.0258377 -0.026033 0.000263458) 1435
(-0.0354224 -0.0185907 0.000273026) 1825
(-0.0876583 -0.0081771 0.000262022) 2930
(-0.0533762 0.0314628 0.000285195) 1797
(0.0173421 0.0326757 0.000282143) 1471
(-0.00429587 0.021319 0.000294064) 1119
(0.060521 0.0014169 0.000258127) 1533
(-0.0635993 0.0121016 0.000273718) 1805
(0.0324566 -0.020468 0.000300102) 1365
(-0.0253642 0.0456871 0.000310341) 2387
(-0.0442579 0.0196525 0.000252886) 1794
(0.0202405 0.0050799 0.000315884) 279
(0.0328082 -0.000307583 0.000265225) 275
(-0.0755298 0.00253462 0.000261383) 1815
(0.0129518 -0.0603213 0.000269229) 2101
(0.0507995 -0.000914558 0.000291918) 1531
(0.0330404 -0.0185863 0.000272111) 1366
(-0.0244802 0.0245306 0.000261286) 1140
(0.0189471 0.0346987 0.000288287) 2353
(0.0225887 -0.00812487 0.000262501) 264
(-0.0265063 -0.00747951 0.000236392) 561
(-0.0221636 -0.0584314 0.000249386) 2077
(0.00293207 0.0300155 0.000261923) 1114
(-0.000208942 -0.0588392 0.000317921) 2092
(-0.0536689 -0.0246154 0.00027051) 1828
(-0.0157407 0.0406946 0.000276164) 2386
(0.0248187 -0.0255847 0.00027173) 860
(0.00505431 -0.0187934 0.000270709) 839
(0.0449876 0.0169681 0.000272829) 1546
(-0.0192926 -0.0339801 0.000315882) 2073
(0.0581892 -0.00138432 0.000278174) 1532
(-0.0464293 -0.0234828 0.000277969) 1827
(-0.00563029 -0.015589 0.00028457) 821
(-0.0241313 0.0239999 0.000298048) 531
(0.0245104 -0.0252555 0.000278609) 860
(0.0263157 -0.0265876 0.000285733) 1441
(0.025278 -0.0257213 0.000282886) 860
(0.013667 0.021228 0.000266119) 1096
(-0.0256473 -0.0256599 0.000280827) 812
(-0.019391 -0.0193852 0.00027744) 576
(-0.0213267 0.021441 0.000295327) 1138
(-0.0481338 0.0248528 0.000294815) 1796
(-0.0405977 -0.0182306 0.000284873) 1826
(-0.0834872 8.64298e-05 0.00028747) 2929
(0.0114182 -0.060277 0.000272696) 2101
(0.0045437 0.100281 0.000281755) 3494
(0.0157731 0.000252725 0.00029727) 269
(-0.0771832 0.00583458 0.000273487) 1816
(-0.0102186 0.0675223 0.000279698) 2382
(-0.0159739 -0.0347961 0.000312777) 2073
(-0.100392 0.00429955 0.000297757) 2934
(0.0438206 0.015286 0.000301746) 1538
(0.0588553 -0.00308822 0.000276727) 1532
(0.0409969 -0.0168756 0.000271481) 1514
(0.0374618 0.014467 0.000258113) 1545
(-0.0196358 0.0446328 0.000301091) 2386
(0.0569685 -8.69098e-05 0.000290139) 1532
(0.0160836 0.0577453 0.00028826) 2365
(-0.078095 -0.00178502 0.000291069) 1816
(-0.0215879 -0.0403209 0.000265482) 2074
(-0.00623207 -0.030513 0.000248185) 827
(0.0359373 0.0156091 0.000285216) 1545
(0.0247999 -0.0255848 0.000283449) 860
(-0.0356262 -0.0184526 0.00029453) 1825
(-0.0261961 0.0259675 0.000259511) 1400
(-0.0484737 0.0241042 0.000236922) 1796
(-0.0241431 -0.0242323 0.000277185) 812
(-0.0198521 -0.00765706 0.000269404) 567
(-0.0195805 -0.0178214 0.000260723) 576
(0.0419957 -0.016468 0.000263175) 1514
(-0.0173911 -0.0360287 0.000244917) 2073
(0.0257826 0.00829098 0.000269055) 281
(-0.013163 0.0235457 0.00026381) 1129
(0.0225333 -0.0151896 0.000275394) 249
(0.0207701 -0.0379534 0.000301044) 2105
(-0.00351839 -0.0961104 0.000312633) 3213
(-0.00202005 -0.10321 0.000287917) 3215
(0.00304903 -0.0411922 0.000269081) 2089
(0.00188589 0.100317 0.000265813) 3494
(-0.018706 -0.00382491 0.000301342) 558
(-0.0358987 -0.0175448 0.0002688) 1825
(-0.0210603 0.0387842 0.000299448) 2386
(-0.0256465 -0.025681 0.000290995) 812
(0.0169623 -0.0185442 0.000248397) 856
(0.0393848 0.0184582 0.000293782) 1546
(0.00116337 0.0723549 0.000280223) 2375
(-0.0157908 0.0020323 0.000285444) 549
(-0.00062723 -0.0553125 0.000268959) 2092
(-0.0220793 -0.0218801 0.000273493) 578
(-0.0421131 -0.0249216 0.000301056) 1827
(-0.0139295 -0.0306249 0.000290138) 820
(0.0586365 -0.00221584 0.000304503) 1532
(-0.0244428 -0.051066 0.000284199) 2076
(0.0258136 -0.0473346 0.000282089) 2107
(-0.023744 0.0235361 0.000278386) 531
(-0.0476691 -0.0235788 0.000276368) 1827
(-0.00710508 0.0385268 0.000265882) 2377
(0.000269488 0.0361111 0.000266382) 1473
(0.0204535 0.0414798 0.000281098) 2354
(-0.0429828 0.0221048 0.000281506) 1794
(-0.0373454 -0.0206172 0.000288286) 1825
(-0.0377707 0.019364 0.000263601) 1793
(0.000594231 -0.102752 0.000276077) 3214
(-0.0421645 -0.025046 0.000289191) 1827
(0.0137473 0.0527757 0.00027347) 2364
(0.00274066 0.0776299 0.00029201) 2376
(-0.0157873 -0.00134873 0.000277079) 549
(-0.0517412 -0.0226923 0.000265297) 1828
(-0.0375198 0.0195368 0.000305258) 1793
(0.0231791 0.0244464 0.000259039) 1091
(-0.0203566 -0.0404339 0.000277311) 2074
(0.000701554 0.0157814 0.000274887) 1109
(-0.0102578 0.0552689 0.000266526) 2380
(-0.0604113 -0.0308557 0.000264425) 1830
(0.0286899 0.0115614 0.000277231) 291
(0.000339182 0.0903253 0.00028791) 3491
(-0.0243916 0.0241421 0.000307246) 532
(-0.0260743 0.0260789 0.000298339) 1476
(-0.0272237 -0.0272239 0.0002909) 2065
(0.0242881 0.025477 0.000314545) 1092
(0.0168853 -0.0321996 0.000253435) 1440
(0.0457036 -0.0121527 0.000260816) 1522
(0.00158831 -0.0193733 0.000302256) 831
(-0.00592569 -0.0155715 0.000283099) 821
(-0.00156879 0.100059 0.000293808) 3494
(-0.0271927 -0.0271836 0.000296572) 1406
(-0.0216676 0.0506704 0.000255875) 2388
(0.022429 0.039979 0.000264738) 2354
(-0.0265949 -0.0263479 0.000311067) 1406
(0.0130578 0.0148352 0.000242375) 1086
(-0.059815 0.0131868 0.000286844) 1805
(0.0459874 -0.0130712 0.000276622) 1522
(-0.00369942 0.0156948 0.000289954) 1117
(0.0207457 -0.0454126 0.000259942) 2107
(-0.0247484 -0.0245213 0.000266488) 580
(-0.0259862 0.0453015 0.000312084) 2387
(0.0236271 0.0273472 0.000315965) 1470
(0.0061266 -0.0540893 0.000280965) 2099
(0.000858391 0.0737947 0.000259294) 2375
(-0.022673 -0.0228179 0.000315471) 811
(0.0610152 -0.000947721 0.000264781) 1533
(0.0207744 -0.0381294 0.000319219) 2105
(0.0247618 -0.0471667 0.000242279) 2107
(-0.0797275 3.85358e-05 0.000260951) 1816
(-0.000153652 0.0584202 0.000293132) 2372
(-0.022623 0.0503723 0.000257547) 2388
(-0.0188499 -0.00228423 0.000280695) 550
(0.00110587 -0.019893 0.000275433) 831
(-0.0533287 -0.0214207 0.00028495) 1828
(0.0366741 -0.0118832 0.000272141) 1521
(-0.000569192 -0.0941843 0.00025673) 3212
(-0.0189103 -0.0397589 0.000274074) 2074
(0.0141233 0.058195 0.000272347) 2365
(0.0384018 -0.00976197 0.000297715) 1521
(0.0326981 0.0206149 0.000265976) 1553
(0.040664 -0.018856 0.000294342) 1514
(-0.0824233 -0.000293117 0.000255122) 2929
(-0.0272237 -0.0272239 0.000267708) 2065
(-0.0645866 0.0282253 0.000288829) 1798
(-0.0501379 0.0209544 0.000269729) 1796
(0.0271934 -0.0323717 0.000318031) 2113
(-0.0304426 0.0604935 0.000274572) 2390
(-0.0590359 0.0112213 0.000297979) 1805
(0.0157755 -0.000673387 0.000269072) 269
(0.0225432 0.0238503 0.000290382) 1091
(0.046945 0.0134529 0.000294462) 1539
(-0.0805667 0.00317828 0.00025234) 1816
(-0.0182344 0.0334206 0.000276081) 1475
(0.0514925 0.00326132 0.000259611) 1531
(0.0332324 -0.0238438 0.000262586) 1505
(-0.00829146 0.0566583 0.000263963) 2380
(0.0189188 0.0450044 0.000314933) 2355
(0.0149207 -0.0347223 0.000282657) 1440
(-0.0178403 0.0366717 0.000297356) 2385
(-0.00179183 -0.058893 0.000303765) 2092
(-0.0474583 0.0228903 0.00028589) 1795
(-0.0234092 -0.00741195 0.00026022) 560
(0.0468752 0.01513 0.000271856) 1539
(-0.0253877 0.0253822 0.000293206) 532
(-0.0673131 0.00424267 0.00028652) 1814
(-0.0339885 0.0167059 0.000263247) 1401
(-0.10042 0.00575193 0.000287985) 2934
(-0.0501216 0.0264476 0.000243131) 1796
(-0.0596042 0.027971 0.000272835) 1798
(0.0350042 0.0158959 0.000287565) 1545
(0.0282479 0.0231743 0.000265139) 1371
(0.0221846 0.023417 0.000251705) 1091
(0.0303056 0.0624383 0.00028516) 2358
(-0.0220907 0.0397807 0.000272019) 2386
(-0.00378837 0.032778 0.000299025) 1123
(0.0186653 -0.00282872 0.00026276) 262
(-0.0399206 0.0196597 0.000277895) 1794
(0.0268679 -0.0276137 0.000286525) 2113
(-0.0372765 0.0189537 0.000303462) 1793
(-0.100585 0.00160029 0.000257182) 2934
(-0.0846158 0.00614261 0.000290566) 2929
(-0.019997 -0.0338892 0.000276217) 2073
(0.0293971 -0.0214409 0.000290768) 1365
(-0.0156214 -0.0063293 0.000316316) 557
(0.039317 -0.010419 0.000282901) 1521
(0.000147517 0.0727642 0.000275484) 2375
(0.0229854 0.0242813 0.000285451) 1091
(0.0280915 0.0503215 0.000308466) 2356
(0.000526076 0.1003 0.000279559) 3494
(-0.00447941 -0.0273214 0.000247616) 825
(0.0156102 0.00492774 0.000267855) 277
(0.0218587 -0.0230956 0.000317569) 858
(0.0609183 -0.00161491 0.000255534) 1533
(0.00413696 0.0366265 0.000242634) 1472
(0.022408 -0.023586 0.00026103) 859
(-0.0055289 -0.0587252 0.000227479) 2092
(-0.0444989 -0.0253995 0.000277882) 1827
(-0.0182974 -0.0336614 0.000284882) 2073
(0.0265714 0.00943227 0.000288397) 282
(0.0243167 0.0254815 0.000287579) 1092
(-0.00397632 -0.098212 0.000279602) 3213
(0.0446931 -0.0145483 0.000275821) 1522
(0.0337482 0.0202751 0.000293021) 1545
(0.027403 0.00873895 0.000251926) 282
(-0.0193697 -0.0343034 0.000267081) 2073
(-0.0483076 0.02658 0.000263105) 1796
(-0.0664864 0.00769448 0.000295857) 1806
(-0.0189015 0.00238962 0.000288395) 550
(-0.00182353 -0.060106 0.000239106) 2093
(0.026441 0.00973619 0.000293294) 289
(0.000693472 0.0157814 0.000273925) 1109
(-0.0447072 0.0241349 0.000279754) 1795
(0.0367815 0.0195555 0.00028191) 1545
(0.0224687 0.0231604 0.000288336) 1091
(-0.0250059 0.0284099 0.000287307) 1476
(0.0425456 0.0131286 0.000261035) 1538
(-0.0651344 -0.0368509 0.000295952) 1831
(-0.000149604 0.100348 0.000265161) 3494
(-0.0965687 -0.00574816 0.00026451) 2933
(0.0370122 -0.0134667 0.000279112) 1513
(0.0299075 0.018659 0.000286574) 292
(0.015934 -0.041016 0.000258988) 2106
(-0.0256233 0.00942697 0.000288426) 537
(-0.0346322 -0.0185576 0.000260244) 1825
(0.00085351 0.0960175 0.000302052) 3492
(0.00669633 -0.0184315 0.000254412) 838
(0.0427927 -0.0172395 0.000282109) 1514
(-0.0056984 0.0961024 0.000293231) 3493
(0.0193595 -0.00490234 0.000298734) 263
(-0.0598827 -0.0157554 0.000263147) 1821
(-0.0221584 -0.038661 0.000296658) 2074
(-0.0228614 -0.0453849 0.000292704) 2075
(0.00435762 0.0707911 0.000244126) 2375
(0.02471 0.0257381 0.000276532) 1092
(0.00375229 0.0550297 0.00028119) 2372
(-0.0231347 0.04177 0.000264937) 2386
(0.0183764 0.0198225 0.000283221) 1088
(0.0143714 -0.0536763 0.000267688) 2100
(-0.0185334 -0.032527 0.000255761) 1436
(0.00462325 0.015649 0.000265715) 1101
(0.0346802 -0.0216297 0.000289345) 1513
(0.0221676 -0.0409621 0.000282001) 2106
(0.0249585 0.0259185 0.000287009) 1092
(0.0101246 -0.0266692 0.000294114) 850
(-0.000625072 0.074071 0.000271575) 2375
(-0.000861081 0.0157751 0.00028469) 1109