/*--------------------------------*- C++ -*----------------------------------*\
| =========                 |                                                 |
| \\      /  F ield         | OpenFOAM: The Open Source CFD Toolbox           |
|  \\    /   O peration     | Version:  plus.master.MPPICInterFoam            |
|   \\  /    A nd           | Web:      www.OpenFOAM.com                      |
|    \\/     M anipulation  |                                                 |
\*---------------------------------------------------------------------------*/
FoamFile
{
    version     2.0;
    format      ascii;
    class       vectorField;
    location    "7.4/lagrangian/kinematicCloud";
    object      U;
}
// * * * * * * * * * * * * * * * * * * * * * * * * * * * * * * * * * * * * * //


93446
(
(-0.00030399 -0.0024293 0.000915898)
(-0.00056464 1.70454e-05 0.000269916)
(-7.57775e-05 9.8617e-05 0.000909578)
(-0.000245371 0.000685923 0.00198785)
(-0.000682739 6.24329e-05 -0.0020813)
(0.000145952 5.44886e-05 0.00065517)
(-0.000390563 -1.28602e-05 0.00021446)
(-0.00041401 -0.000688173 -0.00239984)
(-0.000608064 -0.000255742 0.00030691)
(-7.0083e-05 1.79708e-05 -0.000159298)
(-0.000526871 7.54683e-05 0.000312932)
(-0.000805142 0.000141733 0.000277164)
(-7.28821e-05 0.000555045 -0.00153584)
(-0.00102797 0.000156699 -0.00620799)
(-0.000123267 1.62313e-05 0.00029458)
(0.00077676 -0.000109565 0.000455963)
(-0.000590003 -0.00191936 0.000165292)
(0.000156285 -0.000346783 0.000204185)
(-0.00100619 0.000169544 -0.00376126)
(-0.000353297 -1.19913e-05 -0.00182985)
(0.000740148 -0.000660771 0.00114608)
(-7.21814e-05 0.000258158 2.11586e-05)
(0.0002339 0.000385824 0.000244717)
(0.000393488 0.000423319 0.00206964)
(-0.000556687 9.73999e-06 -0.00162738)
(5.095e-05 0.000113245 -0.00428782)
(0.00023598 -0.000226351 -0.00507349)
(1.84177e-05 -0.000286418 0.0002002)
(-4.79742e-05 0.000239641 0.00737829)
(-0.000947739 -5.26057e-05 -0.000968889)
(0.00050152 -0.000524166 0.00376297)
(-0.000827948 -2.83548e-05 0.000345598)
(0.000494918 -0.00041809 0.000456661)
(0.000136849 -0.000104296 0.00782872)
(-0.00113102 -4.06385e-05 0.000379365)
(-0.000685339 0.00019539 0.000312613)
(-0.000104218 -0.000105463 0.000578915)
(-9.89061e-05 2.34963e-05 -0.00208466)
(0.000891791 9.15899e-05 0.00025587)
(-0.000181866 4.81176e-05 -0.00160614)
(-0.000890077 0.000430855 0.00031598)
(0.000319331 0.000500213 0.000369094)
(-0.000985676 -0.00019841 0.000291414)
(9.74232e-05 -0.000280206 0.00486425)
(0.000390637 -0.000330578 9.26652e-05)
(-0.000623078 -4.56411e-05 0.000505133)
(-0.00339678 -0.000162572 -0.00792369)
(-0.000265306 -0.000348203 -0.000374272)
(0.000300713 0.000462447 4.01495e-05)
(0.00034338 -0.000421589 -0.00125332)
(-0.000570084 -0.000123639 0.000490885)
(0.000346939 -0.000484613 0.00032668)
(-0.000738295 0.000111268 0.000283733)
(-0.000139238 -8.27886e-05 6.55211e-05)
(-0.000871657 -0.000197359 0.000283774)
(-0.000592272 -0.000255578 0.000247007)
(-0.000206611 0.00030893 0.000506341)
(-0.000490625 0.00241778 -0.000247485)
(0.000391518 -0.000333627 -0.00262366)
(-0.000421906 -0.00011492 0.000502582)
(-0.000830095 -0.000351781 -0.00279774)
(-0.00080314 -1.75361e-05 0.000242071)
(-0.000843148 5.9642e-05 -0.00307048)
(0.000267127 -0.000224879 -0.00124196)
(-0.000781545 0.000291891 -0.00225911)
(0.000138916 0.000300025 0.000351519)
(-5.00258e-05 -0.000278446 -0.00251276)
(-0.00124041 0.000752181 -0.000975479)
(0.000185142 0.00012071 0.00014989)
(-0.000639951 -0.000112957 0.000363947)
(-0.000688665 8.7481e-05 9.24635e-05)
(0.000296507 0.000828267 0.00124714)
(-0.000756667 -0.000318699 0.00107164)
(-0.000590413 -0.000368957 0.00027847)
(-0.000902387 -0.000204345 0.000314664)
(8.67221e-05 0.000146136 0.00313581)
(-9.533e-05 3.36944e-05 0.000780685)
(-0.00201571 0.000165294 -6.588e-05)
(-0.0010853 -0.000329033 -0.0030088)
(-0.000287019 0.000707107 -0.00158547)
(-0.000973305 7.77892e-05 -0.00118202)
(0.000621904 0.000373618 0.000340909)
(0.000393938 -0.000436083 -0.00220254)
(-0.000647401 -0.000104569 0.000316729)
(1.60097e-05 3.10425e-08 4.99221e-05)
(-0.000861738 -0.000551648 0.000290659)
(-0.000227777 9.03764e-05 -0.00486525)
(-0.0001046 0.000111687 0.000248964)
(-4.98827e-05 -0.000452479 -0.000103288)
(-0.001145 -0.00070128 0.000474531)
(0.00015858 -0.00020996 0.000335581)
(-0.0024441 -6.49491e-05 -0.000325569)
(-0.000455405 -1.84644e-05 0.00027996)
(0.000454046 0.000470393 -0.000963288)
(0.000247001 0.0017294 -0.00330671)
(0.000409293 0.000402428 -0.00642607)
(-0.000725539 0.000171459 0.000188699)
(-0.000192342 5.22471e-05 -0.0012778)
(0.000586463 -0.00035873 0.00258778)
(0.00196384 0.000324672 -0.000995781)
(0.000485335 3.97262e-05 -0.00137447)
(-0.000590792 -1.39388e-05 0.00544811)
(-0.00022225 2.44971e-05 -0.0012742)
(0.00366922 -0.000800761 -0.00159527)
(-0.00082867 -0.000354716 -0.00080733)
(0.000596482 -0.000505097 -0.0010432)
(-0.00011933 0.000125755 -0.00237132)
(0.00033633 -0.000287036 -0.000343216)
(-0.000256728 -0.000202937 0.000320326)
(-3.2709e-05 -0.000265059 0.000504927)
(0.000348707 -0.000125976 0.00076218)
(-0.000843087 -1.37414e-05 -0.000979238)
(-0.000175462 0.000186154 0.000669942)
(-0.000730097 0.000158756 0.000387909)
(-0.000739206 -0.000216573 -8.69878e-05)
(-0.000454097 0.000345797 -0.000131155)
(-0.00122068 -0.000111969 -0.00185961)
(0.000120525 0.000484134 0.00252676)
(-0.000842222 -0.000395891 0.000258803)
(-0.00055605 0.000424388 -0.00166351)
(-0.000476567 -1.7204e-07 -0.00100518)
(-0.00021578 0.000554855 0.00057905)
(-0.000431711 -1.40392e-05 0.000477155)
(0.000179414 6.88043e-05 0.000313803)
(-0.000778477 0.000282917 9.46062e-05)
(0.000202273 -0.000824208 0.000301016)
(-0.000759669 3.41743e-05 -0.00223945)
(-0.000111875 0.000799662 -0.00222898)
(-0.000390537 0.000225587 0.000240513)
(-0.000418247 2.50282e-06 0.000379833)
(-0.000377082 -3.93093e-05 0.000313456)
(-0.000706744 0.000163269 0.000256837)
(-0.000298704 5.62375e-05 0.00318245)
(-0.000577806 -9.98724e-05 -0.00102544)
(-0.000642468 3.32869e-05 -0.00492708)
(3.59311e-05 -0.000296816 -0.000293923)
(-0.00060774 -0.000372797 0.000281977)
(-2.91312e-05 0.000268675 -0.00374058)
(-9.44458e-05 0.000106363 6.17321e-05)
(0.00038162 -0.000332488 -0.000628061)
(8.29724e-05 -2.5011e-05 0.00879087)
(-0.000770064 0.000196164 0.000954048)
(0.00046277 0.000492098 0.000306717)
(0.00110318 -7.9311e-05 0.00340516)
(-0.000765317 0.000106199 0.0002586)
(-0.000175111 0.000698316 0.000325665)
(0.000222724 -0.000817248 0.00283549)
(-0.000232837 0.000382963 -0.00102308)
(3.13889e-05 0.000284602 0.00733501)
(-0.000351308 0.000269703 -0.0009914)
(-0.000660996 0.000226102 -0.000816912)
(-0.000614986 -7.06556e-05 -0.00158542)
(-0.000561126 -0.000345942 0.000280731)
(-0.000495952 -0.000206665 -0.00140973)
(-0.000523615 -1.57854e-05 1.40738e-05)
(0.0011013 0.000740559 -0.00132633)
(-0.00114385 0.000389249 0.00811999)
(0.000436622 0.000455464 0.000312041)
(-0.000697891 7.8627e-05 -0.00100831)
(-0.000178879 0.00224212 -0.000188776)
(-0.000136873 0.000147147 0.00030549)
(-0.000478003 4.34476e-05 -0.00222199)
(0.000244721 -0.000322073 0.00192294)
(-0.0015227 0.000564315 -0.00161429)
(-0.000956915 0.00187041 -0.000153539)
(0.000424528 1.79375e-05 0.00032468)
(-0.000458148 0.00212793 -0.000283984)
(-0.000637091 0.00029942 0.000326422)
(-0.000469855 0.000478552 -0.00260397)
(-0.000436672 -3.03863e-05 0.00043887)
(-0.000449556 0.00244272 -0.000869132)
(4.6548e-05 -0.000278744 -0.000985721)
(-0.000671443 -0.000144526 0.000369801)
(-0.00232221 1.71706e-05 -0.00110553)
(0.000320777 -0.000450015 0.000228091)
(0.00050116 0.000574996 -0.00165645)
(0.0019598 0.000336451 -0.000304141)
(0.000237431 0.000150376 -0.00233749)
(6.58093e-05 4.87266e-05 -0.00134584)
(-0.000604853 -0.000485849 0.000224729)
(0.00138684 -0.00177094 0.000194262)
(0.000294996 -0.000323378 0.000278008)
(0.000322709 -0.000358576 6.87904e-05)
(0.00040133 0.000429104 -0.000157011)
(-5.86856e-05 -0.000112407 -0.000305336)
(-0.000934043 9.60715e-05 -0.00169896)
(-0.000295603 9.88672e-05 0.00092435)
(-0.00013291 -0.000121942 0.000315525)
(0.000315615 4.70406e-05 0.000306499)
(-0.000249165 -0.00020537 0.00674202)
(-0.000810396 9.4068e-05 -0.00161469)
(-0.000465195 -0.000280166 -0.00159144)
(-0.000975784 -0.00057087 0.000193944)
(-0.000364172 9.18141e-05 0.000750262)
(-4.32507e-05 -4.9227e-05 -0.00708151)
(-0.000586347 -0.00204812 0.000244483)
(-6.1871e-05 -0.000544251 -0.00218301)
(-0.000598656 0.000237446 -0.00380219)
(-0.000251538 -0.000606985 -0.0011193)
(-0.000455298 -0.000191299 -0.000524295)
(-0.000808494 0.000193376 0.000325216)
(-5.87123e-05 -0.000105966 0.000323852)
(-0.000617052 -0.000332158 -0.00214032)
(0.000264182 -0.000236246 0.00629825)
(0.000354956 0.00056157 -3.1924e-05)
(-0.000406915 9.21728e-05 0.00414568)
(-0.00170958 -0.000325343 0.00178488)
(-5.90831e-05 0.000152815 0.000234356)
(0.000206991 9.8108e-05 -0.00142924)
(0.000209945 0.000393452 -0.00224881)
(-0.000607572 0.000461266 0.000272231)
(-0.000596104 -6.92996e-06 -0.000142309)
(-0.000235657 -0.000464549 -0.000839621)
(0.000218927 0.000407252 0.000378323)
(-8.68661e-05 3.12841e-05 0.00235034)
(0.000642058 -0.000601262 -0.0010092)
(0.000229954 0.000300224 -0.00265334)
(0.00037375 0.000687566 -0.0016262)
(4.11614e-05 -7.19933e-05 -0.00480506)
(0.000379031 1.5553e-05 0.00204601)
(-0.00078943 -0.000302336 -0.000990229)
(6.7194e-06 0.000689898 -0.00547268)
(-8.27491e-05 0.000107298 -0.00597187)
(-0.00058467 4.20299e-05 -0.00106721)
(0.000279025 -0.000429115 0.00227275)
(0.00237022 0.000404362 -0.00103883)
(-9.80098e-05 0.00032899 0.000657886)
(0.000197987 0.00039172 -0.00226092)
(-0.00108672 -9.53099e-05 0.000292865)
(0.00053883 -0.000700686 -0.00616067)
(-0.000146625 -0.000509241 -0.00243474)
(-0.000582701 -0.000107296 0.000470345)
(-0.000104047 -0.000439195 -0.00227884)
(-0.00077036 0.00239853 -0.000674816)
(0.00206959 0.000274629 -0.000699491)
(-0.00081652 0.000300331 -0.00108686)
(-0.000587032 6.21398e-05 -0.00101672)
(0.000431883 -0.000331654 0.000684865)
(-0.00078779 0.000112405 -0.00104957)
(-0.00025465 -0.000574837 0.00461075)
(1.41747e-05 -0.000363104 6.12925e-05)
(-0.000539447 -0.000212701 -0.00072202)
(0.000388942 0.000601234 -0.00175712)
(-4.75697e-05 -0.000556644 -0.00044664)
(3.48098e-05 -0.000292573 0.000366915)
(0.000234535 -0.000191477 -0.000504039)
(-0.000830445 9.71491e-05 0.00032277)
(0.000252381 -0.000206847 0.000318562)
(0.000182962 7.38998e-05 0.000353277)
(-0.000788045 0.000168289 0.000344164)
(0.00147408 5.58111e-05 0.000508609)
(-4.66726e-06 4.92266e-05 -0.00549378)
(0.000706835 0.00137292 -0.000334503)
(0.000279721 -0.000364469 0.000329288)
(-9.51539e-05 0.000303222 0.000714455)
(0.000578193 -0.0004864 0.000260943)
(0.000110484 2.17512e-05 -0.0033335)
(-0.000600136 -9.39288e-05 0.000353804)
(-0.000541769 1.26755e-05 0.000314294)
(0.000328581 -0.000327556 -0.0014688)
(7.1132e-05 6.6359e-05 0.00402389)
(0.000261003 0.00015975 -0.00622696)
(0.000192514 0.000485977 -0.00102498)
(-0.000257737 2.59411e-05 -0.00251175)
(-0.000647132 -0.000284119 -0.00116066)
(-0.000130091 0.000127017 -0.00128833)
(0.000466284 -0.00018005 0.000173552)
(-0.000713582 0.000161557 0.000281943)
(2.73127e-05 -3.50063e-05 -0.000965009)
(-9.29097e-05 -0.000731156 0.000202123)
(-0.000146311 0.000442918 -3.91868e-05)
(-0.000377838 -1.66403e-07 0.000480156)
(-0.00102541 -0.000835824 0.00236311)
(-0.00239304 0.000229311 0.000565988)
(-0.000498911 -0.000305117 -0.000617228)
(-0.00125112 0.00104467 0.000284224)
(-0.000130793 0.000326851 0.000326688)
(-0.000812805 6.65552e-05 0.000304954)
(0.000202427 -0.000385656 0.000258292)
(-0.000701582 0.000326071 -0.00101266)
(-0.00076314 -0.000475754 0.000547749)
(-0.000899048 -0.000100591 -0.00134826)
(-0.000448296 -0.000178915 -6.17765e-05)
(0.000366022 -0.000143076 -0.00756092)
(-0.000305538 -9.16667e-05 -0.000993733)
(0.000399498 -0.000447482 0.000281723)
(0.000184206 0.00200404 -0.000529014)
(0.00115043 -0.00035684 -0.00207378)
(0.00358739 0.00160849 0.00133137)
(-0.000578983 -4.787e-05 0.000330247)
(-0.000438605 0.000175552 0.000244794)
(0.000255302 -0.000134249 0.000766893)
(-0.000864234 -0.000784448 8.30169e-05)
(-0.000144582 0.000178157 -0.00143244)
(0.000245189 -0.000131757 -0.000186974)
(-0.000213271 0.000188642 1.79802e-05)
(0.000151612 -0.000197985 -0.0011307)
(-0.00101607 -0.00110676 -0.000998966)
(-0.000393592 0.00113109 -0.00637121)
(5.25501e-05 0.000484474 0.00250415)
(-0.000319369 -9.795e-05 -0.00209338)
(-0.000605615 -0.00178204 -0.000669747)
(-0.00030561 0.000178623 0.000834747)
(0.000869629 0.000842223 0.00028587)
(0.000325397 -0.000365974 -0.00137024)
(0.000279312 0.000446195 -0.00227894)
(0.000318759 0.000496281 0.000283102)
(-0.000572264 -9.25383e-05 0.0004537)
(-0.000477616 1.66665e-05 0.000386781)
(9.36712e-05 0.00044286 0.00331661)
(0.000214213 0.00012394 -0.00036886)
(-5.69618e-05 0.00020222 -0.00156341)
(5.56984e-05 -0.000174205 -4.33569e-05)
(-0.000494994 -0.000204971 -0.00177285)
(5.38136e-06 9.82757e-09 0.00337621)
(-0.000659861 7.29874e-05 -0.000183871)
(-0.000688937 -0.00030765 -0.00284617)
(0.00059023 -0.000336449 0.000315944)
(0.000399247 0.000554497 -0.00520876)
(-0.000513608 0.00038941 0.000486017)
(0.000374274 -0.000413879 0.000358057)
(-0.00086028 -0.000333754 0.00307572)
(0.000259223 -0.00031103 -0.00580767)
(0.00072554 0.000636031 -0.00250534)
(0.000319082 -0.000401886 -0.00653551)
(0.00574849 0.00306655 7.56021e-05)
(-0.000969035 -0.000294433 -0.000993898)
(-4.54546e-06 4.26268e-05 0.000485574)
(0.00153925 0.00135215 -0.00281881)
(-0.000340163 -6.33675e-05 0.00242974)
(0.000165911 -0.000331959 -0.000252217)
(-9.93143e-05 0.000647084 -0.00184802)
(-0.000808931 0.000139193 0.000275767)
(9.50648e-05 -0.000423416 0.00157407)
(0.000371155 0.000349064 0.000326201)
(-0.00181177 0.000586883 0.000286676)
(0.000398949 0.00229652 -0.00120557)
(0.000300374 -0.000257594 -0.000719692)
(4.71159e-05 -0.000633425 0.000123081)
(-0.000496675 -0.000203489 -0.000214941)
(-0.000246668 -0.00046799 -0.000336048)
(0.000168287 -0.000144078 -0.00334098)
(-0.000351391 -2.16323e-05 0.000479449)
(-0.000827949 -8.04895e-06 -0.00604976)
(-0.000815274 -0.000485317 -0.000783094)
(0.000625404 -0.00135248 -0.000362383)
(0.000299369 -0.000329711 -7.16179e-05)
(0.000348937 0.000463063 0.00362877)
(0.00058078 0.000508563 0.000293275)
(-0.000686007 0.000350258 -0.000966317)
(-0.000628888 -0.000424121 0.000240243)
(-0.000772238 0.000454339 0.00164616)
(0.000335173 0.000520937 -0.00103383)
(-5.49938e-05 -0.000103264 0.000169807)
(-0.000234142 2.41148e-05 0.000284084)
(0.000339662 -0.000291631 0.000292042)
(0.000322414 0.000509709 0.000615884)
(-0.00010751 0.000778122 0.000233018)
(-0.000884913 3.55834e-06 -0.00203873)
(-0.000732961 -0.0004226 0.000109159)
(-0.000197032 -8.5022e-05 -0.0010038)
(-0.000835312 0.000908989 -0.00413841)
(0.000355229 -0.000432831 0.000452833)
(-0.000547478 -1.34371e-06 0.000198226)
(-0.000113021 0.00087417 0.000363883)
(1.51894e-05 6.36914e-06 -0.00664349)
(0.000405382 7.21173e-05 -0.00203779)
(0.000323087 0.000506921 0.00027849)
(-0.000106531 3.84122e-05 -0.00182201)
(0.000335731 -0.000289922 -0.00105984)
(-0.000815689 0.000253286 0.00360084)
(0.000100249 -0.000314655 -0.0024624)
(-0.000518428 -5.53203e-05 -9.79861e-05)
(-0.000336827 0.000100886 -0.00102307)
(0.000191573 0.000104827 0.00022239)
(-0.000566538 -0.000353691 -0.00126952)
(0.00137626 -0.000750631 -0.000203484)
(-0.00014598 0.000106453 -0.00249251)
(-0.000813162 0.000188039 -0.0017163)
(-0.000622359 0.000290325 -0.00163328)
(-0.000424403 -1.38957e-05 0.000398986)
(-0.000128686 -0.000587603 0.000312552)
(0.00039408 -0.000266368 0.000123527)
(-0.000500806 -7.84386e-05 0.000780107)
(0.000355393 0.000564401 0.000427128)
(0.000167091 9.21647e-05 0.00203975)
(-0.000293816 0.000349245 0.000355833)
(-0.000310799 -0.000592721 -0.00587395)
(-0.000534498 0.000143294 0.000339112)
(0.000311492 0.000487042 0.000231943)
(-0.000117639 0.000854939 -0.00202868)
(-0.000409268 -5.65134e-05 -0.000982171)
(-0.000417418 -0.000251469 -0.00120996)
(0.000350038 -0.000297317 -0.000349926)
(0.00409456 -0.00148217 -0.00101839)
(0.000198259 0.000359963 -7.04735e-05)
(0.000267253 -0.00029824 0.000504379)
(-0.000545174 -0.000193675 0.00113402)
(-2.08256e-05 0.000279071 -0.00165344)
(0.000336659 0.000532705 0.000267626)
(-0.000554937 -0.000340718 0.00102971)
(-0.000715761 0.000158887 0.0003174)
(0.000390336 3.1301e-05 -0.000422559)
(-0.00131199 0.000323355 0.000211361)
(-0.000348297 0.000123595 0.0055856)
(-3.21911e-05 7.81831e-07 -0.00595948)
(6.08229e-06 3.60087e-05 0.00191194)
(0.00047734 2.34675e-05 0.000246759)
(-0.000626082 6.03015e-05 -0.00139117)
(-5.56554e-05 -0.000108771 -0.00159825)
(0.000506304 -0.00065261 -0.00636598)
(-0.00127172 -0.000797349 -0.0022017)
(0.0010065 0.000451792 -0.0122354)
(0.00019047 -0.000390701 0.00028537)
(0.000691654 0.000391636 0.000342269)
(-9.07515e-05 -0.000383676 0.000178873)
(0.000389111 0.000414381 0.000442684)
(0.000288163 -0.000151804 0.000331573)
(-0.000305937 0.000146317 0.000265208)
(0.000314756 0.000194263 0.000404396)
(0.00036005 -0.000439629 0.000461803)
(-0.000693916 -0.000445717 0.000469483)
(0.000369254 0.000586308 -0.00213019)
(-2.01753e-05 -0.00240005 0.00129882)
(-0.000162482 0.000170819 0.000454438)
(-0.000643152 0.000125495 0.0002524)
(-0.000705066 -0.00018592 0.000224033)
(-0.000351575 0.000235082 0.000454655)
(0.000472067 0.00065971 -0.00530453)
(0.000206741 0.000483824 0.000629076)
(-0.000224009 5.6577e-05 0.0019299)
(-0.000573748 -0.000352146 0.000262763)
(-0.000560987 0.000139171 0.000323176)
(0.000487108 -0.000189216 -0.00444529)
(-1.57004e-06 -3.87983e-05 0.00304841)
(-9.51117e-05 -9.60387e-05 0.000961904)
(-0.000889311 -0.000206964 -0.00168217)
(0.000341605 -0.000390456 0.000147319)
(-0.000193549 4.82066e-05 0.001787)
(0.000352063 0.000854259 -0.00328429)
(-0.000296878 5.28416e-06 0.000460962)
(0.000526988 -0.000226127 0.00512625)
(-0.000623644 0.000472427 0.00032506)
(-0.00026516 0.00012758 0.00314112)
(0.000465116 0.000499859 0.0003466)
(-0.00119867 0.00161148 0.000787786)
(-5.7221e-05 -1.05395e-05 0.0021251)
(5.24182e-05 -0.000162892 0.000330429)
(0.00185473 -0.000610783 -0.0032813)
(-0.000519617 7.72545e-07 0.000316344)
(-0.000404206 0.00226696 0.000112601)
(-0.000114136 -2.529e-07 -0.00428813)
(0.00013591 -0.000116222 -0.00246421)
(-0.000609925 -0.000367718 0.00035559)
(-0.000735442 0.000274313 0.000713232)
(0.000481972 0.000548906 0.000663928)
(-0.000721249 -0.000157098 0.000280751)
(-0.000533749 0.000328069 -0.00023351)
(-0.00207731 0.000207886 0.000225911)
(-0.000596358 -7.36374e-05 0.000627163)
(-0.000257912 -0.000273474 -0.000587646)
(-0.000242132 0.000209942 -0.0010102)
(-0.00284359 0.000313102 -0.000682527)
(-0.00288258 0.00021664 -0.00146849)
(-0.000642852 -0.000449988 -0.000988903)
(-0.000531079 -0.000354178 0.000193219)
(0.000261594 0.00051017 -0.00138938)
(-0.000630233 8.22146e-05 0.000278867)
(-0.000164908 0.000630392 -0.00105908)
(-2.67301e-05 0.000266864 0.00434433)
(0.000185542 0.000102875 0.00130201)
(-0.000127219 0.000823289 0.00165168)
(-0.000131973 0.00084219 -0.00360304)
(0.000587669 0.000516095 0.00030582)
(-2.67007e-05 4.85985e-05 -0.00224604)
(-3.15718e-05 -0.000305073 0.00262361)
(-0.000773009 -0.000709761 -0.00171208)
(0.000109674 -0.000170485 -0.000976405)
(-0.000517818 2.04574e-05 0.000318829)
(0.000324319 -0.000212739 0.00145782)
(-0.000851539 -1.42818e-05 0.000423352)
(0.000404391 -0.000228165 0.0013791)
(1.04127e-05 -0.000198737 -0.000503865)
(-0.000901033 0.000328774 -0.00217084)
(-0.00146101 4.9113e-05 0.000119756)
(-0.000259657 7.27749e-05 0.000453827)
(-0.000697818 0.000190992 -0.00247886)
(-0.000436981 -8.10722e-07 0.000345478)
(-0.000848948 -9.45277e-06 0.000316061)
(0.000181467 -0.000174288 -0.00309673)
(-0.00058133 -0.000353561 0.000249212)
(-0.000878646 -0.000347433 0.000177019)
(-0.000433467 0.000826566 0.000237528)
(0.000298041 6.97049e-05 -0.00138499)
(-0.000319664 -0.000131584 -0.00101514)
(-0.000261297 0.000277158 -0.00034983)
(0.000156361 0.000450054 0.000287944)
(0.000353437 -0.00030829 -0.00102583)
(-0.000405093 -1.24068e-05 6.4074e-06)
(-0.000726697 0.000311426 -0.000997601)
(-0.000696458 0.000191568 -0.00106885)
(0.000410573 0.000649494 0.00102604)
(-0.000238238 2.61498e-05 -0.0024944)
(0.000183583 0.000340982 4.91197e-05)
(-0.000764933 -0.00236103 0.000108608)
(0.000445623 -0.000624311 -0.00304267)
(-0.000450276 -2.47673e-05 0.000453573)
(-0.000143872 7.45325e-05 0.000157286)
(-0.000515305 -0.000413833 -0.00622554)
(-0.00103319 -0.000105202 4.56606e-05)
(0.000198474 0.000257255 -0.00310856)
(9.03538e-05 6.6149e-05 0.00254844)
(0.000334342 -0.000434393 0.00411266)
(-6.62847e-05 -0.000374891 -0.00598285)
(0.000444317 0.000473388 0.000229747)
(-0.000133985 4.99048e-05 0.000564351)
(-0.000701118 0.000191218 -0.00247219)
(-6.64998e-06 -0.000337548 -0.000245279)
(0.00264223 0.000398 0.000160312)
(-0.000234649 6.08809e-05 0.000467315)
(0.000255789 -9.73037e-06 -0.000215788)
(1.68684e-06 -4.78557e-07 0.00325735)
(0.000119384 0.000106144 -0.00156953)
(-0.000613064 0.000387247 -0.00095982)
(-0.000142997 1.93977e-05 0.000377665)
(-0.000808499 -0.000128451 -0.00402093)
(-0.00064319 0.000119277 0.000585579)
(0.000149309 7.2476e-06 0.00213448)
(-0.000125186 1.98357e-05 0.000210592)
(-0.000335901 -9.15319e-05 -0.000582283)
(-0.000259666 6.68488e-05 0.00240659)
(0.00029741 0.000462874 -0.00135359)
(0.000868508 -0.000401773 0.000445973)
(-0.000609331 0.000142104 0.000787723)
(-0.000656982 -1.08093e-06 -0.000488808)
(0.000537177 0.00047476 -0.0011178)
(0.000442898 -0.000300512 0.00555689)
(-4.09519e-05 -0.00027645 -0.00237734)
(0.000279553 0.00026692 -0.00519293)
(-0.000178724 -5.49748e-05 -0.000381659)
(0.000207602 0.000522127 0.000229605)
(-0.000712527 -0.00027948 0.000309209)
(0.000319133 0.000504935 -0.00128443)
(-0.000551238 0.000365299 0.000290317)
(2.83773e-05 -0.000426164 0.000252811)
(-0.000639038 0.000314746 0.000328594)
(-0.000732014 0.000557295 0.000270422)
(-0.000137712 -6.52476e-05 0.000338218)
(-8.1606e-05 -0.000743428 -0.000305169)
(-0.000240984 0.000788156 0.000283399)
(1.53649e-05 -0.000299115 0.00018145)
(0.00063512 0.00087791 -0.00386896)
(0.000570146 0.000499614 0.000497123)
(0.000341341 -0.000281169 0.000334343)
(0.000399513 0.000281099 0.00423559)
(-0.00102886 0.000278846 -0.00119441)
(-0.000581736 0.000198508 0.000344193)
(-0.000132697 0.000138899 -0.00111904)
(-0.00208153 0.000130566 0.000196146)
(-0.000185192 0.000198957 -0.000986467)
(-0.000126797 -4.23127e-05 0.0018605)
(0.000111651 0.000443478 -0.00399186)
(0.000676041 0.000737481 -0.00124324)
(-9.36863e-05 1.84215e-05 0.000355138)
(0.000190162 -2.589e-05 -0.00114155)
(-0.000391664 -1.7611e-05 0.000296007)
(0.000423545 -0.000559931 -0.00497959)
(0.000235647 0.000414787 -0.00189346)
(0.000903292 -0.000140591 0.000299481)
(-0.000374102 8.72479e-05 -0.00377713)
(-0.000611846 -0.000249685 0.000322896)
(6.92193e-05 -0.000234591 0.00487641)
(0.000566493 0.00049881 0.00030348)
(0.00062139 -0.000519773 0.000810239)
(-8.24681e-05 -0.000659547 0.00192072)
(0.000181397 0.000359259 0.000486921)
(-0.000504328 -0.000222965 0.000506872)
(-0.000115906 0.000149855 0.000712911)
(-0.00202957 0.000162611 0.000177852)
(0.0001969 0.000491057 -0.000799944)
(0.000595321 -0.00050138 0.000312822)
(-0.000420072 0.000193744 0.000323992)
(0.000387893 0.000598389 -0.00175581)
(-0.000498731 0.00210455 0.000116625)
(0.00036027 -0.000243438 0.000237053)
(-9.01859e-05 0.00036373 0.000297798)
(-0.00140231 0.000151169 0.00163184)
(-0.000117514 -0.000492106 0.0036358)
(0.000382429 -0.000523834 0.00353817)
(-7.64007e-06 3.80255e-05 0.00715702)
(0.000133326 -4.13301e-05 0.00129198)
(-0.00022747 0.000401784 0.000262702)
(-0.00101857 0.000870161 0.000182642)
(-0.000480222 -0.00031194 0.00197183)
(-0.000666811 -0.000638546 -0.00157481)
(-0.000251176 -0.0026616 6.0935e-05)
(1.70399e-05 -0.000144316 0.000514849)
(1.8278e-05 3.0952e-05 0.00170777)
(0.000307546 -0.000119509 0.000248849)
(-0.000598592 -0.000249747 0.000317184)
(0.000271017 0.000363711 0.00720543)
(-0.0016357 -0.000763697 0.000278041)
(0.000374399 -0.000653714 0.000340696)
(-0.000628417 -0.000409663 0.000297778)
(-0.000934377 0.00244403 -0.00131594)
(-0.000424108 1.37378e-05 0.000257108)
(0.000218295 0.000315441 -0.00386313)
(0.000308813 -0.000157332 0.000283857)
(-0.000119956 -1.89161e-05 -0.00311592)
(-0.00010813 0.000258564 0.00631491)
(-0.000106375 0.000109848 -4.75219e-05)
(-5.95705e-06 5.23114e-05 -0.00408435)
(-0.000623999 2.49494e-05 -0.00321537)
(-0.000453982 0.000344218 0.000363138)
(-0.000424232 3.8435e-05 -0.00162393)
(-0.000228269 6.20904e-05 -0.00215024)
(-0.000158445 -0.000353733 0.00061354)
(0.000302413 -0.000116893 0.000112615)
(0.000533107 0.000780921 0.00481613)
(-0.000540805 -0.000469171 0.000246522)
(0.000138675 0.000414005 0.000361513)
(-0.000767909 -0.000280888 0.00029686)
(-8.54902e-05 0.000267656 0.00201475)
(0.000270252 0.000424258 0.000458791)
(-0.000489183 -0.000132689 -0.00206332)
(-0.000910187 -0.000338699 -0.00136994)
(-0.000695997 0.000137698 0.000217403)
(-0.0488694 0.00136185 0.393629)
(-0.000691716 -0.000149033 0.000357764)
(-0.000138325 5.46241e-05 0.000288968)
(7.68728e-05 4.34869e-05 0.00150709)
(-9.83463e-05 -0.000261218 0.000344811)
(6.12821e-05 -0.000377476 0.000309425)
(-0.000349184 0.000288752 0.00177989)
(0.00037391 6.97032e-06 -0.000333608)
(0.00031718 -0.000554453 0.000169724)
(0.0027051 0.000360462 -0.00146797)
(-0.000449673 0.000257932 5.64045e-06)
(-0.000432754 0.000558015 0.000675613)
(-0.000219996 6.60049e-05 -0.00229247)
(0.000196868 -0.000139412 0.00321972)
(-0.000367025 -3.43469e-07 0.000486962)
(-0.000511581 -4.35622e-05 0.000149228)
(0.000416291 -0.000279134 0.000350589)
(-0.000367046 8.67025e-05 -0.00648132)
(-0.000508878 -3.03108e-05 -0.00239813)
(0.000229682 -0.000297025 0.000501515)
(-0.000153526 0.000159191 -0.00100095)
(2.20226e-05 0.000146544 0.00018104)
(1.66573e-05 0.00037531 0.000255162)
(-0.00065262 0.00046608 -0.00249989)
(0.000119825 -0.000106057 -0.0013748)
(0.00033186 5.74292e-05 -0.00168096)
(0.000562667 -0.000471931 0.000275295)
(0.000156879 8.9938e-05 -0.00186575)
(5.73592e-05 -0.00031145 0.000449124)
(-9.25131e-05 -0.000322948 0.000292841)
(-0.000719647 0.000159738 0.000269616)
(-0.000711613 0.0001941 0.000279683)
(-0.000414044 0.000166785 0.000468475)
(-0.000497745 0.00011642 -0.00211157)
(0.000341594 -0.000290634 0.000313052)
(-5.88548e-05 0.000451854 0.00201815)
(-0.00109124 -0.000162963 -0.00165306)
(0.000406805 -0.000450253 0.000293446)
(-0.000283858 -2.1338e-05 0.00283431)
(0.000526485 -0.000448983 0.000200708)
(0.000298144 0.000173238 -0.00171378)
(-0.000162137 6.26274e-05 -0.00130532)
(0.000399088 0.000630712 0.000270168)
(-0.000650082 9.33109e-05 0.000398644)
(-0.00276012 0.00234967 0.000162621)
(-0.000739625 -0.000287461 0.000339419)
(-9.09473e-05 0.00010473 0.000290527)
(-0.000514156 0.000245471 0.00133626)
(-0.000464208 2.87563e-05 0.000162413)
(2.7892e-05 -0.000323541 2.9721e-05)
(0.00053473 -0.000260166 0.000192127)
(0.00281894 0.00025502 -0.00114179)
(-0.000131928 -0.00124503 -0.00148446)
(-0.00053281 2.12602e-05 0.000267301)
(-0.00108901 -8.42618e-05 0.000284103)
(-0.000629961 6.2806e-05 0.00275667)
(-0.000165484 0.000178371 0.000173844)
(0.000243221 0.000431918 -0.000373584)
(3.6278e-05 -0.000220384 0.0015021)
(-0.00105118 0.000248211 0.000337371)
(-0.000258029 0.000325194 0.000326761)
(-0.0015832 -0.00269297 -0.0141289)
(-0.000726491 -0.000439611 -0.00139594)
(-0.000813073 0.00018629 0.000333499)
(-0.000925902 0.000203162 0.000114187)
(0.000410932 0.00064915 0.00296364)
(2.75696e-05 -0.000251409 0.000357022)
(0.000117791 -0.000109598 -0.00479632)
(0.000750661 0.000239764 0.000183646)
(-0.000172575 -5.58227e-05 -0.000953923)
(-0.000353242 0.000405317 -0.00354007)
(-0.00125173 0.00113301 -0.00046907)
(0.000120451 -0.000276207 0.000329941)
(-0.000896067 0.000167387 0.0016971)
(-0.000274534 0.000338993 0.00328629)
(-0.00060765 -0.000757867 -0.00487817)
(-0.000753542 0.000402597 -0.00144838)
(-0.000141955 0.000410377 -0.0017608)
(2.4608e-05 -0.000209774 0.000956373)
(0.00045662 2.39792e-05 -0.00167387)
(-0.000880097 -1.43869e-05 -0.00231801)
(-0.00155319 0.000109506 -0.00185378)
(-0.000538813 0.000411104 -7.08587e-06)
(0.00103444 -0.000618048 -0.00170155)
(0.00047159 0.000414207 0.000450996)
(3.51554e-06 -3.33671e-05 -0.00150972)
(0.000216062 -0.00108483 0.00681174)
(-0.000864893 -0.000136603 0.000288048)
(-3.25785e-05 -1.93204e-05 0.000312919)
(-0.000981021 -0.000296354 -0.00196065)
(0.000310304 0.000564029 0.000282472)
(0.000360284 0.000563603 -0.000210527)
(0.000125 3.62176e-05 -0.00027082)
(-7.63614e-05 6.9513e-05 0.000270291)
(-0.000315106 0.000329941 0.000310715)
(-0.000102398 -0.000231027 -0.00148862)
(0.000341199 -0.000289181 0.000272612)
(-0.000777182 0.000174171 0.00370861)
(-0.000826642 0.000387086 -0.00245655)
(0.000379248 0.000303436 -0.00169685)
(-0.000310706 0.00175623 0.000117277)
(-0.000839811 -7.97152e-06 0.000315783)
(-0.000562258 0.000427892 -0.00172363)
(-0.000248397 0.000299855 0.000273484)
(-0.00114143 0.00108713 -0.00218874)
(-0.000126404 0.000127526 0.00161503)
(-0.000555065 0.00221012 -0.00288641)
(0.000413717 -0.00072786 0.000900973)
(0.000164196 8.76025e-05 8.37882e-05)
(-0.000230888 0.000323039 -0.00330944)
(0.00133861 -0.000359443 -0.00138297)
(-0.000627496 0.000476682 -0.00105119)
(0.000278756 -0.000314059 0.000504844)
(-0.000459849 -0.000124519 -0.00170666)
(0.00037429 0.000402646 0.000512597)
(-0.000165439 -9.28863e-05 -0.000325036)
(-0.000578292 0.000242859 -0.00248618)
(0.000203315 0.000107349 0.0002755)
(4.84006e-05 -0.000709714 -0.00100215)
(0.000302319 -0.000253241 0.000719422)
(0.000266796 -9.56639e-05 -0.00477653)
(-0.000613874 -0.000253764 0.000318223)
(-0.00254096 0.000209849 -0.00160349)
(-0.00058465 0.000179108 0.0001579)
(-0.000580091 -8.20724e-05 -0.00098013)
(0.000314802 0.000493247 0.000257678)
(-0.000146398 -0.000147506 -0.0022264)
(-7.67752e-05 1.78066e-05 0.000479889)
(0.000195888 -0.000386673 0.000289516)
(-0.00144707 0.000212562 -0.00452869)