/*--------------------------------*- C++ -*----------------------------------*\
| =========                 |                                                 |
| \\      /  F ield         | OpenFOAM: The Open Source CFD Toolbox           |
|  \\    /   O peration     | Version:  plus.master.MPPICInterFoam            |
|   \\  /    A nd           | Web:      www.OpenFOAM.com                      |
|    \\/     M anipulation  |                                                 |
\*---------------------------------------------------------------------------*/
FoamFile
{
    version     2.0;
    format      ascii;
    class       surfaceScalarField;
    location    "7.4";
    object      alphaPhi;
}
// * * * * * * * * * * * * * * * * * * * * * * * * * * * * * * * * * * * * * //

dimensions      [0 3 -1 0 0 0 0];

internalField   nonuniform List<scalar> 
34004
(
1.51547e-08
2.20524e-08
-1.74185e-06
-4.90454e-08
2.6179e-08
1.83602e-08
-2.1865e-06
-4.27823e-08
3.37965e-08
1.67918e-08
-2.53753e-06
-3.93842e-08
3.869e-08
1.61203e-08
-2.87331e-06
-3.74338e-08
4.12258e-08
1.57822e-08
-3.20981e-06
-3.60466e-08
4.16865e-08
1.55949e-08
-3.55099e-06
-3.49594e-08
4.02977e-08
1.54986e-08
-3.89732e-06
-3.40843e-08
1.5486e-08
-4.24698e-06
-3.34193e-08
3.72258e-08
1.80235e-08
-9.72696e-09
-1.75153e-06
3.11982e-08
-1.02606e-08
-2.1979e-06
4.0345e-08
-9.63014e-09
-2.5509e-06
4.63212e-08
-8.81222e-09
-2.88868e-06
4.95623e-08
-7.93156e-09
-3.22728e-06
5.03776e-08
-7.04893e-09
-3.57069e-06
4.90037e-08
-6.18843e-09
-3.91939e-06
-5.34905e-09
-4.27158e-06
4.55872e-08
1.94071e-08
-4.4234e-08
-1.75672e-06
3.35339e-08
-4.13362e-08
-2.20408e-06
4.32387e-08
-3.82772e-08
-2.55816e-06
4.94964e-08
-3.58453e-08
-2.897e-06
5.28037e-08
-3.36612e-08
-3.2367e-06
5.35162e-08
-3.16511e-08
-3.58125e-06
5.19067e-08
-2.98023e-08
-3.93113e-06
-2.81118e-08
-4.2845e-06
4.81506e-08
2.02321e-08
-8.0431e-08
-1.75694e-06
3.48739e-08
-7.38178e-08
-2.20428e-06
4.49849e-08
-6.83328e-08
-2.55856e-06
5.15897e-08
-6.43364e-08
-2.89765e-06
5.51963e-08
-6.09044e-08
-3.23766e-06
5.61541e-08
-5.7808e-08
-3.58258e-06
5.47173e-08
-5.49863e-08
-3.93287e-06
-5.24223e-08
-4.28671e-06
5.10262e-08
1.90833e-08
-1.15781e-07
-1.7511e-06
3.28133e-08
-1.05603e-07
-2.19744e-06
4.22991e-08
-9.80395e-08
-2.5508e-06
4.85593e-08
-9.28415e-08
-2.88899e-06
5.20715e-08
-8.85263e-08
-3.22814e-06
5.31591e-08
-8.47119e-08
-3.57221e-06
5.20319e-08
-8.12714e-08
-3.92167e-06
-7.81773e-08
-4.27464e-06
4.87896e-08
1.62922e-08
-1.47859e-07
-1.73904e-06
2.77202e-08
-1.34384e-07
-2.18329e-06
3.5694e-08
-1.25445e-07
-2.5345e-06
4.11835e-08
-1.19711e-07
-2.87055e-06
4.45815e-08
-1.15128e-07
-3.20755e-06
4.61299e-08
-1.11156e-07
-3.54946e-06
4.59303e-08
-1.0757e-07
-3.89674e-06
-1.04276e-07
-4.24754e-06
4.39219e-08
8.24045e-09
-1.72021e-06
-1.7042e-07
1.31787e-08
-2.16142e-06
-1.54868e-07
1.62908e-08
-2.5087e-06
-1.45859e-07
1.82502e-08
-2.84066e-06
-1.40607e-07
1.94439e-08
-3.17332e-06
-1.36827e-07
2.0144e-08
-3.51059e-06
-1.33843e-07
2.04224e-08
-3.85294e-06
-1.31281e-07
-4.19852e-06
-1.29005e-07
2.02059e-08
1.4403e-08
1.30505e-08
-1.7325e-06
-3.68446e-08
2.51401e-08
9.89266e-09
-2.17589e-06
-3.13353e-08
3.27847e-08
8.66988e-09
-2.52549e-06
-2.84354e-08
3.79085e-08
8.19348e-09
-2.85992e-06
-2.6782e-08
4.08011e-08
8.01717e-09
-3.19514e-06
-2.5641e-08
4.16734e-08
7.9919e-09
-3.53512e-06
-2.47894e-08
4.06882e-08
8.0652e-09
-3.8803e-06
-2.41516e-08
8.22857e-09
-4.22881e-06
-2.37206e-08
3.79494e-08
1.67171e-08
-1.43369e-08
-1.74093e-06
2.9187e-08
-1.46278e-08
-2.18594e-06
3.80877e-08
-1.39023e-08
-2.5373e-06
4.41303e-08
-1.30627e-08
-2.87352e-06
4.76526e-08
-1.21733e-08
-3.21066e-06
4.88783e-08
-1.12741e-08
-3.55268e-06
4.79678e-08
-1.03849e-08
-3.90005e-06
-9.50246e-09
-4.25089e-06
4.49988e-08
1.77332e-08
-4.3596e-08
-1.74526e-06
3.08921e-08
-4.07691e-08
-2.19119e-06
4.01997e-08
-3.79355e-08
-2.5435e-06
4.64531e-08
-3.57006e-08
-2.88068e-06
5.00351e-08
-3.36977e-08
-3.21881e-06
5.12026e-08
-3.18471e-08
-3.5619e-06
5.01423e-08
-3.01329e-08
-3.91036e-06
-2.85504e-08
-4.26231e-06
4.69573e-08
1.81693e-08
-7.37515e-08
-1.74502e-06
3.1575e-08
-6.75915e-08
-2.19096e-06
4.10951e-08
-6.26851e-08
-2.54341e-06
4.75615e-08
-5.91262e-08
-2.88076e-06
5.13635e-08
-5.6086e-08
-3.21913e-06
5.27491e-08
-5.33492e-08
-3.56251e-06
5.18854e-08
-5.0855e-08
-3.91133e-06
-4.85826e-08
-4.26366e-06
4.88371e-08
1.68073e-08
-1.02469e-07
-1.73926e-06
2.91555e-08
-9.31759e-08
-2.1843e-06
3.79197e-08
-8.64999e-08
-2.53583e-06
4.3912e-08
-8.19174e-08
-2.87227e-06
4.74979e-08
-7.81384e-08
-3.20974e-06
4.89072e-08
-7.48163e-08
-3.55222e-06
4.82773e-08
-7.18334e-08
-3.90012e-06
-6.91603e-08
-4.2515e-06
4.5649e-08
1.41133e-08
-1.27732e-07
-1.72796e-06
2.42843e-08
-1.15617e-07
-2.17112e-06
3.15822e-08
-1.07749e-07
-2.52063e-06
3.67704e-08
-1.02683e-07
-2.85505e-06
4.01414e-08
-9.86563e-08
-3.19047e-06
4.18605e-08
-9.51936e-08
-3.53085e-06
4.19799e-08
-9.20986e-08
-3.87663e-06
-8.92866e-08
-4.22587e-06
4.04125e-08
7.10629e-09
-1.71076e-06
-1.44352e-07
1.17e-08
-2.15117e-06
-1.30554e-07
1.47347e-08
-2.49712e-06
-1.22448e-07
1.67611e-08
-2.8278e-06
-1.17644e-07
1.8046e-08
-3.15922e-06
-1.1411e-07
1.87963e-08
-3.4953e-06
-1.11307e-07
1.90684e-08
-3.83644e-06
-1.08922e-07
-4.18075e-06
-1.06853e-07
1.88141e-08
1.3454e-08
5.43057e-09
-1.72513e-06
-2.6295e-08
2.36291e-08
2.61809e-09
-2.16738e-06
-2.13154e-08
3.09632e-08
1.61218e-09
-2.51566e-06
-1.87784e-08
3.59737e-08
1.24181e-09
-2.84882e-06
-1.73348e-08
3.89159e-08
1.14992e-09
-3.18284e-06
-1.63667e-08
3.99703e-08
1.21637e-09
-3.52167e-06
-1.56847e-08
3.92728e-08
1.39657e-09
-3.86573e-06
-1.52229e-08
1.68388e-09
-4.21309e-06
-1.49723e-08
3.68991e-08
1.52369e-08
-1.79711e-08
-1.73279e-06
2.67076e-08
-1.81633e-08
-2.17662e-06
3.49849e-08
-1.74344e-08
-2.52652e-06
4.06956e-08
-1.66353e-08
-2.86134e-06
4.41342e-08
-1.57892e-08
-3.19713e-06
4.54928e-08
-1.49201e-08
-3.53788e-06
4.49046e-08
-1.40425e-08
-3.884e-06
-1.31524e-08
-4.23355e-06
4.24208e-08
1.58698e-08
-4.2464e-08
-1.73666e-06
2.77399e-08
-3.98187e-08
-2.1814e-06
3.6228e-08
-3.72514e-08
-2.53217e-06
4.20271e-08
-3.52392e-08
-2.86786e-06
4.54682e-08
-3.34362e-08
-3.20459e-06
4.6771e-08
-3.17607e-08
-3.54634e-06
4.60904e-08
-3.01939e-08
-3.89351e-06
-2.87292e-08
-4.24413e-06
4.34992e-08
1.59546e-08
-6.7175e-08
-1.73629e-06
2.7813e-08
-6.15378e-08
-2.18111e-06
3.63129e-08
-5.71875e-08
-2.53198e-06
4.21742e-08
-5.40454e-08
-2.86781e-06
4.57338e-08
-5.13722e-08
-3.20475e-06
4.7205e-08
-4.89691e-08
-3.54676e-06
4.67272e-08
-4.6777e-08
-3.89426e-06
-4.47732e-08
-4.24523e-06
4.43389e-08
1.44746e-08
-9.00752e-08
-1.73088e-06
2.51886e-08
-8.16688e-08
-2.17491e-06
3.28482e-08
-7.57971e-08
-2.5249e-06
3.81463e-08
-7.17703e-08
-2.85985e-06
4.14015e-08
-6.84673e-08
-3.1959e-06
4.28147e-08
-6.55769e-08
-3.53701e-06
4.25059e-08
-6.29922e-08
-3.88357e-06
-6.06835e-08
-4.23356e-06
4.0503e-08
1.1947e-08
-1.09564e-07
-1.72046e-06
2.06499e-08
-9.8719e-08
-2.1628e-06
2.69322e-08
-9.18046e-08
-2.51093e-06
3.14384e-08
-8.73331e-08
-2.844e-06
3.44252e-08
-8.37957e-08
-3.17812e-06
3.60416e-08
-8.0776e-08
-3.51725e-06
3.63417e-08
-7.81038e-08
-3.86179e-06
-7.57047e-08
-4.20973e-06
3.52507e-08
5.95638e-09
-1.70487e-06
-1.21452e-07
9.95312e-09
-2.14471e-06
-1.09213e-07
1.25845e-08
-2.48963e-06
-1.01951e-07
1.4347e-08
-2.81932e-06
-9.75817e-08
1.54573e-08
-3.1498e-06
-9.43193e-08
1.61081e-08
-3.48498e-06
-9.17219e-08
1.63707e-08
-3.82525e-06
-8.95297e-08
-4.16861e-06
-8.76691e-08
1.62368e-08
1.24468e-08
-1.33311e-09
-1.7194e-06
-1.68542e-08
2.18637e-08
-3.88276e-09
-2.16055e-06
-1.22497e-08
2.86192e-08
-4.73595e-09
-2.50758e-06
-9.99032e-09
3.32281e-08
-5.04044e-09
-2.83958e-06
-8.70585e-09
3.59569e-08
-5.08289e-09
-3.17251e-06
-7.87095e-09
3.69976e-08
-4.95904e-09
-3.51033e-06
-7.32554e-09
3.65002e-08
-4.7063e-09
-3.85343e-06
-7.01144e-09
-4.32978e-09
-4.19983e-06
-6.91895e-09
3.45451e-08
1.36899e-08
-2.10404e-08
-1.72672e-06
2.39665e-08
-2.12232e-08
-2.16943e-06
3.13325e-08
-2.0543e-08
-2.51796e-06
3.63906e-08
-1.98175e-08
-2.85151e-06
3.94448e-08
-1.9042e-08
-3.18613e-06
4.07076e-08
-1.82273e-08
-3.52579e-06
4.03322e-08
-1.73822e-08
-3.87089e-06
-1.65008e-08
-4.21938e-06
3.83809e-08
1.39614e-08
-4.1173e-08
-1.73044e-06
2.43342e-08
-3.87756e-08
-2.17411e-06
3.16851e-08
-3.64881e-08
-2.52347e-06
3.66709e-08
-3.47047e-08
-2.85786e-06
3.96303e-08
-3.31037e-08
-3.19341e-06
4.0804e-08
-3.16039e-08
-3.53407e-06
4.03695e-08
-3.01844e-08
-3.88022e-06
-2.88363e-08
-4.22979e-06
3.84118e-08
1.37368e-08
-6.09612e-08
-1.7302e-06
2.38519e-08
-5.5871e-08
-2.17403e-06
3.10117e-08
-5.20385e-08
-2.5235e-06
3.58972e-08
-4.92804e-08
-2.85804e-06
3.88555e-08
-4.69404e-08
-3.19379e-06
4.01268e-08
-4.48371e-08
-3.53473e-06
3.98801e-08
-4.29141e-08
-3.88122e-06
-4.11481e-08
-4.23115e-06
3.81751e-08
1.22086e-08
-7.87301e-08
-1.72528e-06
2.11371e-08
-7.11715e-08
-2.16845e-06
2.74081e-08
-6.60182e-08
-2.51711e-06
3.16734e-08
-6.24856e-08
-2.85083e-06
3.42674e-08
-5.96003e-08
-3.18575e-06
3.54235e-08
-5.70856e-08
-3.52583e-06
3.53004e-08
-5.48458e-08
-3.87144e-06
-5.28522e-08
-4.22044e-06
3.39567e-08
9.89085e-09
-9.32757e-08
-1.71578e-06
1.69999e-08
-8.35795e-08
-2.15742e-06
2.20134e-08
-7.75056e-08
-2.50437e-06
2.55319e-08
-7.35563e-08
-2.83636e-06
2.78377e-08
-7.04454e-08
-3.16949e-06
2.91213e-08
-6.78076e-08
-3.50773e-06
2.94884e-08
-6.54978e-08
-3.85142e-06
-6.34513e-08
-4.19847e-06
2.89169e-08
4.86484e-09
-1.70166e-06
-1.01331e-07
8.07239e-09
-2.141e-06
-9.04173e-08
1.00394e-08
-2.48508e-06
-8.39454e-08
1.12529e-08
-2.81403e-06
-7.99848e-08
1.19479e-08
-3.14386e-06
-7.70017e-08
1.23507e-08
-3.47848e-06
-7.46214e-08
1.2588e-08
-3.81827e-06
-7.26328e-08
-4.16112e-06
-7.09797e-08
1.27088e-08
1.14007e-08
-7.46964e-09
-1.71516e-06
-8.12524e-09
1.98543e-08
-9.91073e-09
-2.1551e-06
-3.79015e-09
2.57516e-08
-1.06816e-08
-2.50087e-06
-1.75486e-09
2.96513e-08
-1.09597e-08
-2.83176e-06
-6.06471e-10
3.1902e-08
-1.09791e-08
-3.16374e-06
7.54617e-11
3.27222e-08
-1.08193e-08
-3.50075e-06
5.11904e-10
3.23307e-08
-1.05079e-08
-3.84317e-06
6.94268e-10
-1.00478e-08
-4.18891e-06
6.34247e-10
3.08508e-08
1.21588e-08
-2.38356e-08
-1.72239e-06
2.10157e-08
-2.40827e-08
-2.16392e-06
2.71585e-08
-2.34873e-08
-2.51114e-06
3.12237e-08
-2.28544e-08
-2.84355e-06
3.35785e-08
-2.21621e-08
-3.1772e-06
3.45072e-08
-2.14108e-08
-3.51606e-06
3.42346e-08
-2.06043e-08
-3.86047e-06
-1.97338e-08
-4.20831e-06
3.28734e-08
1.20584e-08
-3.99691e-08
-1.72626e-06
2.07079e-08
-3.78569e-08
-2.16881e-06
2.65882e-08
-3.58455e-08
-2.51685e-06
3.03889e-08
-3.42834e-08
-2.85012e-06
3.25162e-08
-3.28749e-08
-3.18472e-06
3.32923e-08
-3.15406e-08
-3.52464e-06
3.29745e-08
-3.0258e-08
-3.87021e-06
-2.90154e-08
-4.21921e-06
3.17059e-08
1.15518e-08
-5.5272e-08
-1.72635e-06
1.97086e-08
-5.07231e-08
-2.16915e-06
2.51945e-08
-4.73619e-08
-2.51733e-06
2.87231e-08
-4.495e-08
-2.85078e-06
3.07152e-08
-4.29065e-08
-3.18565e-06
3.15017e-08
-4.10671e-08
-3.52591e-06
3.13432e-08
-3.93793e-08
-3.87188e-06
-3.78197e-08
-4.22134e-06
3.03702e-08
1.00197e-08
-6.84526e-08
-1.72203e-06
1.69767e-08
-6.16829e-08
-2.16429e-06
2.15475e-08
-5.71639e-08
-2.51175e-06
2.44174e-08
-5.40656e-08
-2.84446e-06
2.60008e-08
-5.15429e-08
-3.17859e-06
2.66276e-08
-4.93517e-08
-3.51809e-06
2.65557e-08
-4.74073e-08
-3.86327e-06
-4.56838e-08
-4.21188e-06
2.59231e-08
7.94068e-09
-7.86856e-08
-1.7134e-06
1.32883e-08
-7.00156e-08
-2.15428e-06
1.67442e-08
-6.46772e-08
-2.50019e-06
1.89398e-08
-6.11849e-08
-2.83132e-06
2.02443e-08
-5.84438e-08
-3.16379e-06
2.09502e-08
-5.6135e-08
-3.50155e-06
2.12718e-08
-5.4136e-08
-3.84493e-06
-5.23922e-08
-4.19171e-06
2.1281e-08
3.8102e-09
-1.70055e-06
-8.35231e-08
5.99618e-09
-2.1393e-06
-7.37516e-08
6.99209e-09
-2.48262e-06
-6.80037e-08
7.32111e-09
-2.811e-06
-6.44148e-08
7.30936e-09
-3.14047e-06
-6.17078e-08
7.26879e-09
-3.47494e-06
-5.95452e-08
7.42986e-09
-3.81473e-06
-5.77625e-08
-4.15765e-06
-5.63099e-08
7.92374e-09
1.03366e-08
-1.34005e-08
-1.71219e-06
1.74035e-10
1.75258e-08
-1.5776e-08
-2.15068e-06
4.32647e-09
2.22092e-08
-1.64928e-08
-2.49512e-06
6.18324e-09
2.50354e-08
-1.67628e-08
-2.82497e-06
7.23973e-09
2.64332e-08
-1.67763e-08
-3.15618e-06
7.87956e-09
2.67719e-08
-1.65902e-08
-3.49268e-06
8.21347e-09
2.63714e-08
-1.62267e-08
-3.83483e-06
8.28257e-09
-1.56852e-08
-4.1804e-06
8.09002e-09
2.54316e-08
1.0567e-08
-2.6634e-08
-1.71959e-06
1.77092e-08
-2.69799e-08
-2.15972e-06
2.22433e-08
-2.64788e-08
-2.50559e-06
2.49024e-08
-2.59407e-08
-2.83696e-06
2.61748e-08
-2.53314e-08
-3.16987e-06
2.64806e-08
-2.46412e-08
-3.50829e-06
2.61776e-08
-2.38687e-08
-3.85254e-06
-2.30018e-08
-4.20033e-06
2.54797e-08
1.01012e-08
-3.90443e-08
-1.72384e-06
1.6705e-08
-3.72248e-08
-2.16504e-06
2.06892e-08
-3.54716e-08
-2.51174e-06
2.28473e-08
-3.4114e-08
-2.84403e-06
2.37181e-08
-3.28812e-08
-3.178e-06
2.37724e-08
-3.16956e-08
-3.51762e-06
2.34155e-08
-3.05332e-08
-3.86319e-06
-2.93797e-08
-4.21235e-06
2.29069e-08
9.3313e-09
-5.01998e-08
-1.72442e-06
1.52058e-08
-4.61652e-08
-2.16596e-06
1.85794e-08
-4.32251e-08
-2.51286e-06
2.02742e-08
-4.11195e-08
-2.8454e-06
2.08539e-08
-3.93347e-08
-3.17973e-06
2.08109e-08
-3.77231e-08
-3.51982e-06
2.0569e-08
-3.62363e-08
-3.86594e-06
-3.48514e-08
-4.21571e-06
2.03925e-08
7.82132e-09
-5.91966e-08
-1.72076e-06
1.24957e-08
-5.31477e-08
-2.16186e-06
1.49348e-08
-4.91854e-08
-2.50813e-06
1.59387e-08
-4.64659e-08
-2.84005e-06
1.60699e-08
-4.42553e-08
-3.17375e-06
1.58266e-08
-4.23402e-08
-3.5132e-06
1.56378e-08
-4.06471e-08
-3.85867e-06
-3.91535e-08
-4.20775e-06
1.57816e-08
6.00189e-09
-6.55727e-08
-1.71294e-06
9.28987e-09
-5.78139e-08
-2.15278e-06
1.07737e-08
-5.31166e-08
-2.49764e-06
1.11968e-08
-5.00242e-08
-2.82811e-06
1.10817e-08
-4.7602e-08
-3.16027e-06
1.08923e-08
-4.55756e-08
-3.4981e-06
1.1018e-08
-4.38418e-08
-3.84186e-06
-4.23573e-08
-4.1892e-06
1.16837e-08
2.69841e-09
-1.70113e-06
-6.75955e-08
3.51107e-09
-2.13898e-06
-5.88155e-08
3.09876e-09
-2.4815e-06
-5.37201e-08
2.08756e-09
-2.80947e-06
-5.0473e-08
9.64621e-10
-3.13887e-06
-4.80265e-08
1.91043e-10
-3.47364e-06
-4.60751e-08
1.6756e-10
-3.81406e-06
-4.44921e-08
-4.1578e-06
-4.32362e-08
1.1595e-09
9.09591e-09
-1.93466e-08
-1.71026e-06
8.3799e-09
1.46337e-08
-2.16632e-08
-2.14682e-06
1.23163e-08
1.76224e-08
-2.23339e-08
-2.48975e-06
1.4004e-08
1.88692e-08
-2.25978e-08
-2.81857e-06
1.49642e-08
1.89724e-08
-2.26039e-08
-3.14919e-06
1.55169e-08
1.84865e-08
-2.23893e-08
-3.48557e-06
1.57486e-08
1.79139e-08
-2.19683e-08
-3.82801e-06
1.56922e-08
-2.13361e-08
-4.17415e-06
1.53484e-08
1.76041e-08
8.80628e-09
-2.96348e-08
-1.71806e-06
1.38152e-08
-3.00783e-08
-2.15628e-06
1.62146e-08
-2.96646e-08
-2.50064e-06
1.69164e-08
-2.92129e-08
-2.83104e-06
1.65991e-08
-2.86775e-08
-3.16349e-06
1.58912e-08
-2.80378e-08
-3.50196e-06
1.53605e-08
-2.72865e-08
-3.84672e-06
-2.64078e-08
-4.19535e-06
1.53992e-08
7.96008e-09
-3.85326e-08
-1.72285e-06
1.20529e-08
-3.69873e-08
-2.1622e-06
1.35594e-08
-3.54648e-08
-2.50744e-06
1.34637e-08
-3.42887e-08
-2.83887e-06
1.25142e-08
-3.32099e-08
-3.17254e-06
1.14095e-08
-3.21515e-08
-3.51244e-06
1.07874e-08
-3.10876e-08
-3.85882e-06
-3.00012e-08
-4.20915e-06
1.11067e-08
6.92905e-09
-4.5786e-08
-1.72405e-06
1.00346e-08
-4.22235e-08
-2.16382e-06
1.06834e-08
-3.96535e-08
-2.50932e-06
9.89951e-09
-3.78143e-08
-2.8411e-06
8.47136e-09
-3.62512e-08
-3.17529e-06
7.13542e-09
-3.48315e-08
-3.51585e-06
6.56734e-09
-3.35109e-08
-3.86301e-06
-3.22679e-08
-4.21422e-06
7.25082e-09
5.44988e-09
-5.08779e-08
-1.72108e-06
7.35092e-09
-4.54812e-08
-2.16049e-06
7.03764e-09
-4.20061e-08
-2.50546e-06
5.52337e-09
-3.96153e-08
-2.83675e-06
3.60255e-09
-3.76698e-08
-3.17044e-06
2.02523e-09
-3.59868e-08
-3.51052e-06
1.47883e-09
-3.45032e-08
-3.8572e-06
-3.32027e-08
-4.2079e-06
2.4675e-09
3.90745e-09
-5.37073e-08
-1.71397e-06
4.65598e-09
-4.67608e-08
-2.15223e-06
3.55917e-09
-4.26209e-08
-2.49592e-06
1.57756e-09
-3.98784e-08
-2.82587e-06
-5.29826e-10
-3.77301e-08
-3.15813e-06
-2.05167e-09
-3.5943e-08
-3.49667e-06
-2.33661e-09
-3.44345e-08
-3.84172e-06
-3.31715e-08
-4.19073e-06
-9.43898e-10
1.37657e-09
-1.703e-06
-5.31682e-08
2.66887e-10
-2.13936e-06
-4.52463e-08
-2.16858e-09
-2.48093e-06
-4.07415e-08
-5.13363e-09
-2.80857e-06
-3.78149e-08
-7.91589e-09
-3.13824e-06
-3.56052e-08
-9.82068e-09
-3.47387e-06
-3.38517e-08
-1.02128e-08
-3.81572e-06
-3.24544e-08
-4.16127e-06
-3.13852e-08
-8.62332e-09
7.57368e-09
-2.54673e-08
-1.70892e-06
1.65644e-08
1.09327e-08
-2.77078e-08
-2.14279e-06
2.03029e-08
1.15732e-08
-2.83262e-08
-2.48391e-06
2.18352e-08
1.05591e-08
-2.85747e-08
-2.81169e-06
2.2702e-08
8.74028e-09
-2.85614e-08
-3.14198e-06
2.31622e-08
6.93789e-09
-2.83016e-08
-3.47876e-06
2.32773e-08
5.92802e-09
-2.78012e-08
-3.82229e-06
2.30725e-08
-2.70518e-08
-4.17007e-06
2.25473e-08
6.30779e-09
6.73648e-09
-3.29792e-08
-1.71729e-06
9.0246e-09
-3.34884e-08
-2.15282e-06
8.56803e-09
-3.31417e-08
-2.49539e-06
6.55815e-09
-3.27593e-08
-2.82486e-06
3.95669e-09
-3.22791e-08
-3.15719e-06
1.68872e-09
-3.16681e-08
-3.49635e-06
6.28772e-10
-3.09122e-08
-3.8426e-06
-2.99922e-08
-4.19329e-06
1.4489e-09
5.46475e-09
-3.85227e-08
-1.72279e-06
6.38942e-09
-3.72071e-08
-2.15945e-06
4.61334e-09
-3.58816e-08
-2.50297e-06
1.43477e-09
-3.48579e-08
-2.83363e-06
-2.0967e-09
-3.39049e-08
-3.16742e-06
-4.95866e-09
-3.29442e-08
-3.50835e-06
-6.17812e-09
-3.1947e-08
-3.85663e-06
-3.08951e-08
-4.20953e-06
-4.98952e-09
4.15142e-09
-4.20369e-08
-1.72471e-06
3.77899e-09
-3.88912e-08
-2.16182e-06
8.45071e-10
-3.66418e-08
-2.50567e-06
-3.2865e-09
-3.50284e-08
-2.83685e-06
-7.51885e-09
-3.36484e-08
-3.17137e-06
-1.07718e-08
-3.23815e-08
-3.51323e-06
-1.20111e-08
-3.11878e-08
-3.86262e-06
-3.00492e-08
-4.21676e-06
-1.04216e-08
2.69826e-09
-4.33932e-08
-1.72244e-06
1.08143e-09
-3.85872e-08
-2.15923e-06
-2.86127e-09
-3.55383e-08
-2.50267e-06
-7.76831e-09
-3.34313e-08
-2.83349e-06
-1.254e-08
-3.17065e-08
-3.16767e-06
-1.60755e-08
-3.0212e-08
-3.50923e-06
-1.73189e-08
-2.88969e-08
-3.85834e-06
-2.775e-08
-4.2122e-06
-1.54289e-08
1.44998e-09
-4.28633e-08
-1.71597e-06
-1.09361e-09
-3.66467e-08
-2.15167e-06
-5.61892e-09
-3.30176e-08
-2.49396e-06
-1.0858e-08
-3.0576e-08
-2.82353e-06
-1.57375e-08
-2.86566e-08
-3.15636e-06
-1.91955e-08
-2.70681e-08
-3.49643e-06
-2.02179e-08
-2.57461e-08
-3.84393e-06
-2.46716e-08
-4.19612e-06
-1.80105e-08
-3.38986e-10
-1.70565e-06
-3.98922e-08
-4.06443e-09
-2.13954e-06
-3.27821e-08
-9.41196e-09
-2.47986e-06
-2.87823e-08
-1.51896e-08
-2.80725e-06
-2.6153e-08
-2.03959e-08
-3.13758e-06
-2.41553e-08
-2.40151e-08
-3.4748e-06
-2.25807e-08
-2.50705e-08
-3.81912e-06
-2.13541e-08
-4.16786e-06
-2.04616e-08
-2.27832e-08
5.61787e-09
-3.18853e-08
-1.70754e-06
2.48809e-08
6.06005e-09
-3.39841e-08
-2.13764e-06
2.83913e-08
3.4594e-09
-3.45257e-08
-2.47653e-06
2.97508e-08
-7.32237e-10
-3.47284e-08
-2.80327e-06
3.05017e-08
-5.31057e-09
-3.46647e-08
-3.13358e-06
3.08363e-08
-9.09703e-09
-3.43187e-08
-3.47146e-06
3.07925e-08
-1.0936e-08
-3.36884e-08
-3.81719e-06
3.03866e-08
-3.27648e-08
-4.16805e-06
2.96202e-08
-9.86825e-09
4.17964e-09
-3.67622e-08
-1.7166e-06
2.904e-09
-3.72647e-08
-2.14827e-06
-1.4134e-09
-3.6945e-08
-2.48866e-06
-7.11619e-09
-3.66062e-08
-2.8173e-06
-1.29084e-08
-3.61441e-08
-3.14994e-06
-1.74617e-08
-3.55177e-08
-3.49064e-06
-1.94801e-08
-3.47058e-08
-3.83961e-06
-3.36885e-08
-4.19403e-06
-1.7887e-08
2.41564e-09
-3.90587e-08
-1.72293e-06
-8.02747e-10
-3.78983e-08
-2.15563e-06
-6.92963e-09
-3.67343e-08
-2.49707e-06
-1.42602e-08
-3.5825e-08
-2.82711e-06
-2.13517e-08
-3.49544e-08
-3.16156e-06
-2.6753e-08
-3.4043e-08
-3.50448e-06
-2.90322e-08
-3.30605e-08
-3.85606e-06
-3.19897e-08
-4.21336e-06
-2.69834e-08
7.94841e-10
-3.89326e-08
-1.72567e-06
-4.09052e-09
-3.61316e-08
-2.15874e-06
-1.17415e-08
-3.41611e-08
-2.50063e-06
-2.03503e-08
-3.2729e-08
-2.83138e-06
-2.84103e-08
-3.14837e-08
-3.16683e-06
-3.43911e-08
-3.03195e-08
-3.51103e-06
-3.67766e-08
-2.92021e-08
-3.86416e-06
-2.81191e-08
-4.22319e-06
-3.42849e-08
-6.82981e-10
-3.66367e-08
-1.72409e-06
-6.84531e-09
-3.23767e-08
-2.15686e-06
-1.55642e-08
-2.97036e-08
-2.49845e-06
-2.50152e-08
-2.7828e-08
-2.82898e-06
-3.36713e-08
-2.62777e-08
-3.16427e-06
-3.9978e-08
-2.49265e-08
-3.50837e-06
-4.23897e-08
-2.37368e-08
-3.86145e-06
-2.27062e-08
-4.22047e-06
-3.95924e-08
-1.63408e-09
-3.28527e-08
-1.71816e-06
-8.45597e-09
-2.73426e-08
-2.14991e-06
-1.75581e-08
-2.4147e-08
-2.49044e-06
-2.71745e-08
-2.19676e-08
-2.8198e-06
-3.58271e-08
-2.02403e-08
-3.15377e-06
-4.20062e-08
-1.88159e-08
-3.49639e-06
-4.42119e-08
-1.76495e-08
-3.84786e-06
-1.67364e-08
-4.20516e-06
-4.11809e-08
-2.7306e-09
-1.70828e-06
-2.75197e-08
-1.01075e-08
-2.13834e-06
-2.11817e-08
-1.94382e-08
-2.47704e-06
-1.76403e-08
-2.9105e-08
-2.80429e-06
-1.52756e-08
-3.77104e-08
-3.13576e-06
-1.34674e-08
-4.38092e-08
-3.47548e-06
-1.20565e-08
-4.59622e-08
-3.82366e-06
-1.09916e-08
-4.17738e-06
-1.02724e-08
-4.29462e-08
3.03978e-09
-3.86302e-08
-1.70534e-06
3.33889e-08
-5.23141e-10
-4.04672e-08
-2.13018e-06
3.65683e-08
-7.50776e-09
-4.08918e-08
-2.46636e-06
3.76993e-08
-1.60121e-08
-4.10013e-08
-2.79208e-06
3.82878e-08
-2.44045e-08
-4.08129e-08
-3.12285e-06
3.84294e-08
-3.10307e-08
-4.0293e-08
-3.46275e-06
3.81391e-08
-3.42383e-08
-3.94305e-08
-3.81207e-06
3.74286e-08
-3.82217e-08
-4.16788e-06
3.63085e-08
-3.25838e-08
9.29343e-10
-4.1007e-08
-1.71516e-06
-5.09411e-09
-4.13775e-08
-2.14135e-06
-1.45026e-08
-4.105e-08
-2.47912e-06
-2.51635e-08
-4.06853e-08
-2.80699e-06
-3.52824e-08
-4.01714e-08
-3.14052e-06
-4.30361e-08
-3.94449e-08
-3.4838e-06
-4.659e-08
-3.84798e-08
-3.83709e-06
-3.72621e-08
-4.19733e-06
-4.43388e-08
-1.47762e-09
-4.01337e-08
-1.72233e-06
-1.00633e-08
-3.90496e-08
-2.14938e-06
-2.19156e-08
-3.79707e-08
-2.48832e-06
-3.47284e-08
-3.71155e-08
-2.8179e-06
-4.65822e-08
-3.62592e-08
-3.15367e-06
-5.54918e-08
-3.53191e-08
-3.49976e-06
-5.94459e-08
-3.42652e-08
-3.85639e-06
-3.30875e-08
-4.22037e-06
-5.66694e-08
-3.54407e-09
-3.64133e-08
-1.72585e-06
-1.42495e-08
-3.39198e-08
-2.15317e-06
-2.80053e-08
-3.21499e-08
-2.49271e-06
-4.24453e-08
-3.0839e-08
-2.82324e-06
-5.55632e-08
-2.96666e-08
-3.16034e-06
-6.52668e-08
-2.85392e-08
-3.50815e-06
-6.94306e-08
-2.74301e-08
-3.86687e-06
-2.6337e-08
-4.23323e-06
-6.6175e-08
-5.07003e-09
-3.05253e-08
-1.72492e-06
-1.71459e-08
-2.67774e-08
-2.15192e-06
-3.20346e-08
-2.44165e-08
-2.49129e-06
-4.73832e-08
-2.27234e-08
-2.82175e-06
-6.11596e-08
-2.12994e-08
-3.15888e-06
-7.12361e-08
-2.00454e-08
-3.5068e-06
-7.54494e-08
-1.89385e-08
-3.86575e-06
-1.79876e-08
-4.2324e-06
-7.18812e-08
-5.73287e-09
-2.3548e-08
-1.7194e-06
-1.81702e-08
-1.87204e-08
-2.1455e-06
-3.31922e-08
-1.59145e-08
-2.4839e-06
-4.85172e-08
-1.39606e-08
-2.81323e-06
-6.21587e-08
-1.23969e-08
-3.14903e-06
-7.20389e-08
-1.11144e-08
-3.49545e-06
-7.60477e-08
-1.00877e-08
-3.85271e-06
-9.32564e-09
-4.21757e-06
-7.23211e-08
-6.12576e-09
-1.70981e-06
-1.58812e-08
-1.84206e-08
-2.13442e-06
-1.0294e-08
-3.30768e-08
-2.47108e-06
-7.18912e-09
-4.79514e-08
-2.79827e-06
-5.07749e-09
-6.11542e-08
-3.13148e-06
-3.45987e-09
-7.06969e-08
-3.47483e-06
-2.22608e-09
-7.45541e-08
-3.82856e-06
-1.34735e-09
-4.18954e-06
-8.30187e-10
-7.09267e-08
-4.59596e-10
-4.56331e-08
-1.70127e-06
4.20267e-08
-9.31252e-09
-4.70682e-08
-2.11902e-06
4.46773e-08
-2.21195e-08
-4.72637e-08
-2.45191e-06
4.55268e-08
-3.63152e-08
-4.71749e-08
-2.77666e-06
4.58408e-08
-4.97697e-08
-4.67323e-08
-3.10845e-06
4.56599e-08
-6.02734e-08
-4.58768e-08
-3.45146e-06
4.49623e-08
-6.55668e-08
-4.45952e-08
-3.80606e-06
4.37589e-08
-4.29037e-08
-4.16914e-06
4.2084e-08
-6.36067e-08
-3.44304e-09
-4.56285e-08
-1.71176e-06
-1.56387e-08
-4.5752e-08
-2.13056e-06
-3.16156e-08
-4.52937e-08
-2.4652e-06
-4.86379e-08
-4.4802e-08
-2.79244e-06
-6.43831e-08
-4.41092e-08
-3.12751e-06
-7.64216e-08
-4.31321e-08
-3.47462e-06
-8.22663e-08
-4.1844e-08
-3.8341e-06
-4.02491e-08
-4.20266e-06
-7.96745e-08
-6.62829e-09
-4.16834e-08
-1.71968e-06
-2.21507e-08
-4.05544e-08
-2.13912e-06
-4.12275e-08
-3.94654e-08
-2.47514e-06
-6.0998e-08
-3.85664e-08
-2.80444e-06
-7.89722e-08
-3.76139e-08
-3.14227e-06
-9.2521e-08
-3.65187e-08
-3.4929e-06
-9.89446e-08
-3.52554e-08
-3.85662e-06
-3.38307e-08
-4.23e-06
-9.57975e-08
-9.26206e-09
-3.44356e-08
-1.72386e-06
-2.73627e-08
-3.21526e-08
-2.1435e-06
-4.87791e-08
-3.0506e-08
-2.48029e-06
-7.05703e-08
-2.92401e-08
-2.81083e-06
-9.01353e-08
-2.80592e-08
-3.15038e-06
-1.04713e-07
-2.68806e-08
-3.50326e-06
-1.11468e-07
-2.56882e-08
-3.86972e-06
-2.44954e-08
-4.24624e-06
-1.0783e-07
-1.09088e-08
-2.49971e-08
-1.72345e-06
-3.04463e-08
-2.17111e-08
-2.14283e-06
-5.30823e-08
-1.96081e-08
-2.47957e-06
-7.58639e-08
-1.80495e-08
-2.81018e-06
-9.61558e-08
-1.67066e-08
-3.14997e-06
-1.11155e-07
-1.55082e-08
-3.50321e-06
-1.17983e-07
-1.4447e-08
-3.8702e-06
-1.35449e-08
-4.24735e-06
-1.1403e-07
-1.123e-08
-1.48803e-08
-1.71827e-06
-3.08134e-08
-1.07219e-08
-2.13689e-06
-5.333e-08
-8.27685e-09
-2.4727e-06
-7.58875e-08
-6.52679e-09
-2.8022e-06
-9.58998e-08
-5.1144e-09
-3.14063e-06
-1.10621e-07
-3.97167e-09
-3.4923e-06
-1.17233e-07
-3.09264e-09
-3.85751e-06
-2.49828e-09
-4.23273e-06
-1.13183e-07
-1.08495e-08
-1.7089e-06
-4.90552e-09
-2.9577e-08
-2.12626e-06
-1.24976e-10
-5.1112e-08
-2.46037e-06
2.57309e-09
-7.26949e-08
-2.78766e-06
4.44684e-09
-9.18598e-08
-3.12334e-06
5.87826e-09
-1.05977e-07
-3.47167e-06
6.93194e-09
-1.12335e-07
-3.83299e-06
7.61565e-09
-4.20391e-06
7.90995e-09
-1.08468e-07
-5.23755e-09
-5.27295e-08
-1.69389e-06
5.05625e-08
-2.09818e-08
-5.35327e-08
-2.10244e-06
5.25163e-08
-4.11044e-08
-5.3338e-08
-2.43151e-06
5.29014e-08
-6.2476e-08
-5.28623e-08
-2.75535e-06
5.27665e-08
-8.23837e-08
-5.19339e-08
-3.08878e-06
5.20325e-08
-9.79632e-08
-5.04651e-08
-3.43619e-06
5.06459e-08
-1.06259e-07
-4.84525e-08
-3.79804e-06
4.86284e-08
-4.59565e-08
-4.17104e-06
4.60632e-08
-1.04549e-07
-9.29939e-09
-5.04971e-08
-1.70479e-06
-2.92503e-08
-5.01402e-08
-2.11415e-06
-5.3351e-08
-4.93959e-08
-2.44518e-06
-7.82656e-08
-4.86036e-08
-2.77192e-06
-1.01052e-07
-4.75217e-08
-3.10925e-06
-1.18591e-07
-4.6046e-08
-3.4616e-06
-1.27671e-07
-4.41602e-08
-3.82939e-06
-4.19077e-08
-4.20909e-06
-1.25354e-07
-1.34437e-08
-4.35939e-08
-1.71321e-06
-3.74947e-08
-4.22248e-08
-2.1231e-06
-6.54099e-08
-4.09943e-08
-2.45573e-06
-9.36994e-08
-3.99074e-08
-2.78494e-06
-1.19226e-07
-3.86894e-08
-3.12566e-06
-1.38641e-07
-3.72449e-08
-3.48236e-06
-1.48502e-07
-3.55612e-08
-3.85542e-06
-3.36781e-08
-4.24113e-06
-1.4566e-07
-1.6709e-08
-3.29128e-08
-1.71788e-06
-4.3852e-08
-3.07104e-08
-2.12796e-06
-7.45735e-08
-2.90943e-08
-2.46155e-06
-1.05288e-07
-2.77767e-08
-2.79232e-06
-1.32729e-07
-2.648e-08
-3.13522e-06
-1.53404e-07
-2.5133e-08
-3.49476e-06
-1.63721e-07
-2.37349e-08
-3.8713e-06
-2.23232e-08
-4.26098e-06
-1.60411e-07
-1.84844e-08
-1.9998e-08
-1.71791e-06
-4.71718e-08
-1.71279e-08
-2.12779e-06
-7.92118e-08
-1.52362e-08
-2.46145e-06
-1.11e-07
-1.37725e-08
-2.79247e-06
-1.39231e-07
-1.24772e-08
-3.13581e-06
-1.60364e-07
-1.13059e-08
-3.49598e-06
-1.70768e-07
-1.02682e-08
-3.87334e-06
-9.39846e-09
-4.26399e-06
-1.67142e-07
-1.84167e-08
-6.81832e-09
-1.71305e-06
-4.68386e-08
-3.34781e-09
-2.12231e-06
-7.85052e-08
-1.25632e-09
-2.45508e-06
-1.09872e-07
2.80679e-10
-2.78496e-06
-1.37673e-07
1.49103e-09
-3.12689e-06
-1.58439e-07
2.43271e-09
-3.48538e-06
-1.686e-07
3.08608e-09
-3.86082e-06
3.42794e-09
-4.24938e-06
-1.64908e-07
-1.71936e-08
-1.70395e-06
5.41743e-09
-4.40599e-08
-2.11216e-06
9.35983e-09
-7.41211e-08
-2.44323e-06
1.15833e-08
-1.03981e-07
-2.77078e-06
1.31549e-08
-1.30539e-07
-3.10971e-06
1.43057e-08
-1.50442e-07
-3.46452e-06
1.50527e-08
-1.60241e-07
-3.83564e-06
1.53885e-08
-4.21939e-06
1.53e-08
-1.56781e-07
-1.17062e-08
-5.9642e-08
-1.68135e-06
5.87301e-08
-3.58509e-08
-5.94635e-08
-2.07867e-06
5.96625e-08
-6.48527e-08
-5.86229e-08
-2.40337e-06
5.93371e-08
-9.49363e-08
-5.74579e-08
-2.72637e-06
5.84495e-08
-1.22733e-07
-5.56732e-08
-3.06219e-06
5.67811e-08
-1.44664e-07
-5.3159e-08
-3.41543e-06
5.42536e-08
-1.57044e-07
-4.99447e-08
-3.7867e-06
5.09241e-08
-4.61738e-08
-4.17244e-06
4.69657e-08
-1.56466e-07
-1.69091e-08
-5.53534e-08
-1.69229e-06
-4.61739e-08
-5.41905e-08
-2.09031e-06
-7.99535e-08
-5.29289e-08
-2.41721e-06
-1.14258e-07
-5.15654e-08
-2.7436e-06
-1.45469e-07
-4.97677e-08
-3.08402e-06
-1.6974e-07
-4.74177e-08
-3.44313e-06
-1.83135e-07
-4.45296e-08
-3.82146e-06
-4.12192e-08
-4.21517e-06
-1.82053e-07
-2.20838e-08
-4.56643e-08
-1.7009e-06
-5.62592e-08
-4.38031e-08
-2.09943e-06
-9.45514e-08
-4.22437e-08
-2.42822e-06
-1.32811e-07
-4.0758e-08
-2.75757e-06
-1.67211e-07
-3.90261e-08
-3.10208e-06
-1.93667e-07
-3.69523e-08
-3.46644e-06
-2.08029e-07
-3.45519e-08
-3.85111e-06
-3.19208e-08
-4.25202e-06
-2.06513e-07
-2.60291e-08
-3.17304e-08
-1.70585e-06
-6.38254e-08
-2.94606e-08
-2.10462e-06
-1.05366e-07
-2.77567e-08
-2.43459e-06
-1.46408e-07
-2.62625e-08
-2.76585e-06
-1.82988e-07
-2.47103e-08
-3.11304e-06
-2.10877e-07
-2.30443e-08
-3.48086e-06
-2.25793e-07
-2.12869e-08
-3.86973e-06
-1.95098e-08
-4.27542e-06
-2.23856e-07
-2.79536e-08
-1.55107e-08
-1.70624e-06
-6.7414e-08
-1.30295e-08
-2.10488e-06
-1.10362e-07
-1.13152e-08
-2.43505e-06
-1.5254e-07
-9.91927e-09
-2.76674e-06
-1.89942e-07
-8.65071e-09
-3.11457e-06
-2.18297e-07
-7.49613e-09
-3.48328e-06
-2.33292e-07
-6.48187e-09
-3.87325e-06
-5.65217e-09
-4.28021e-06
-2.31031e-07
-2.74807e-08
5.77136e-10
-1.70172e-06
-6.63691e-08
3.26065e-09
-2.09985e-06
-1.08691e-07
4.93923e-09
-2.42915e-06
-1.50245e-07
6.19235e-09
-2.75965e-06
-1.87081e-07
7.14583e-09
-3.10599e-06
-2.14989e-07
7.78375e-09
-3.47289e-06
-2.29709e-07
8.08467e-09
-3.86079e-06
8.03785e-09
-4.2655e-06
-2.27395e-07
-2.53636e-08
-1.69304e-06
1.49518e-08
-6.2003e-08
-2.0903e-06
1.78729e-08
-1.02153e-07
-2.41784e-06
1.95479e-08
-1.41752e-07
-2.74584e-06
2.06965e-08
-1.76995e-07
-3.08888e-06
2.14008e-08
-2.03813e-07
-3.4517e-06
2.16306e-08
-2.18062e-07
-3.83481e-06
2.13762e-08
-4.23422e-06
2.06546e-08
-2.15974e-07
-1.99612e-08
-6.59239e-08
6.6101e-08
-1.66163e-06
-5.40179e-08
-6.42997e-08
6.55469e-08
-2.04597e-06
-9.33565e-08
-6.24368e-08
6.41259e-08
-2.3658e-06
-1.33534e-07
-6.01327e-08