/*--------------------------------*- C++ -*----------------------------------*\
| =========                 |                                                 |
| \\      /  F ield         | OpenFOAM: The Open Source CFD Toolbox           |
|  \\    /   O peration     | Version:  plus.master.MPPICInterFoam            |
|   \\  /    A nd           | Web:      www.OpenFOAM.com                      |
|    \\/     M anipulation  |                                                 |
\*---------------------------------------------------------------------------*/
FoamFile
{
    version     2.0;
    format      ascii;
    class       surfaceScalarField;
    location    "7.4";
    object      phi;
}
// * * * * * * * * * * * * * * * * * * * * * * * * * * * * * * * * * * * * * //

dimensions      [0 3 -1 0 0 0 0];

internalField   nonuniform List<scalar> 
34004
(
1.51891e-08
2.1933e-08
-1.74077e-06
-4.89865e-08
2.63403e-08
1.82539e-08
-2.18532e-06
-4.27054e-08
3.40297e-08
1.66933e-08
-2.53625e-06
-3.93026e-08
3.89664e-08
1.60283e-08
-2.87191e-06
-3.73503e-08
4.15254e-08
1.56973e-08
-3.2083e-06
-3.59631e-08
4.19935e-08
1.55174e-08
-3.54937e-06
-3.48769e-08
4.05982e-08
1.5429e-08
-3.89558e-06
-3.4003e-08
1.54247e-08
-4.24512e-06
-3.33397e-08
3.75067e-08
1.80799e-08
-9.84531e-09
-1.75044e-06
3.13681e-08
-1.03734e-08
-2.19673e-06
4.05891e-08
-9.73703e-09
-2.54962e-06
4.66163e-08
-8.91443e-09
-2.88729e-06
4.98897e-08
-8.0295e-09
-3.22578e-06
5.07223e-08
-7.14323e-09
-3.56909e-06
4.93532e-08
-6.28024e-09
-3.91769e-06
-5.43979e-09
-4.26978e-06
4.5932e-08
1.94579e-08
-4.43516e-08
-1.75563e-06
3.36997e-08
-4.14461e-08
-2.20291e-06
4.34803e-08
-3.83795e-08
-2.55687e-06
4.97897e-08
-3.59415e-08
-2.8956e-06
5.31269e-08
-3.37514e-08
-3.23519e-06
5.3849e-08
-3.17347e-08
-3.57963e-06
5.22307e-08
-2.98789e-08
-3.9294e-06
-2.81815e-08
-4.28264e-06
4.84518e-08
2.02804e-08
-8.05382e-08
-1.75585e-06
3.50381e-08
-7.39165e-08
-2.2031e-06
4.52282e-08
-6.84248e-08
-2.55728e-06
5.18911e-08
-6.4425e-08
-2.89625e-06
5.55361e-08
-6.09906e-08
-3.23615e-06
5.65125e-08
-5.78922e-08
-3.58097e-06
5.5075e-08
-5.50691e-08
-3.93117e-06
-5.25045e-08
-4.2849e-06
5.13668e-08
1.91296e-08
-1.1587e-07
-1.75001e-06
3.29708e-08
-1.05682e-07
-2.19626e-06
4.25317e-08
-9.81099e-08
-2.54951e-06
4.88472e-08
-9.29072e-08
-2.88758e-06
5.23952e-08
-8.85882e-08
-3.22662e-06
5.34975e-08
-8.47701e-08
-3.57058e-06
5.23627e-08
-8.13255e-08
-3.91992e-06
-7.82267e-08
-4.27278e-06
4.90919e-08
1.63424e-08
-1.47939e-07
-1.73795e-06
2.78779e-08
-1.34453e-07
-2.18211e-06
3.59256e-08
-1.25506e-07
-2.53321e-06
4.14709e-08
-1.19769e-07
-2.86914e-06
4.4908e-08
-1.15184e-07
-3.20603e-06
4.64785e-08
-1.1121e-07
-3.54783e-06
4.6283e-08
-1.07623e-07
-3.89499e-06
-1.04329e-07
-4.24568e-06
4.42609e-08
8.29188e-09
-1.71911e-06
-1.70497e-07
1.33346e-08
-2.16024e-06
-1.54932e-07
1.65178e-08
-2.50741e-06
-1.45915e-07
1.85289e-08
-2.83924e-06
-1.40656e-07
1.97578e-08
-3.17178e-06
-1.36871e-07
2.0477e-08
-3.50894e-06
-1.33881e-07
2.07573e-08
-3.85116e-06
-1.31315e-07
-4.19661e-06
-1.29034e-07
2.05247e-08
1.44505e-08
1.29426e-08
-1.73137e-06
-3.67646e-08
2.5249e-08
9.7917e-09
-2.17465e-06
-3.12471e-08
3.29273e-08
8.57401e-09
-2.52414e-06
-2.83464e-08
3.80694e-08
8.10155e-09
-2.85846e-06
-2.66938e-08
4.097e-08
7.929e-09
-3.19359e-06
-2.55554e-08
4.18435e-08
7.90745e-09
-3.53346e-06
-2.47084e-08
4.08549e-08
7.98427e-09
-3.87855e-06
-2.40766e-08
8.15078e-09
-4.22696e-06
-2.36533e-08
3.81138e-08
1.67705e-08
-1.44541e-08
-1.73978e-06
2.92952e-08
-1.4739e-08
-2.1847e-06
3.82286e-08
-1.40066e-08
-2.53596e-06
4.42898e-08
-1.31611e-08
-2.87207e-06
4.78204e-08
-1.22658e-08
-3.2091e-06
4.90464e-08
-1.13608e-08
-3.55103e-06
4.81293e-08
-1.04658e-08
-3.8983e-06
-9.57767e-09
-4.24904e-06
4.5152e-08
1.77831e-08
-4.37157e-08
-1.74411e-06
3.10004e-08
-4.08814e-08
-2.18995e-06
4.03442e-08
-3.80403e-08
-2.54216e-06
4.66206e-08
-3.57996e-08
-2.87923e-06
5.02152e-08
-3.37915e-08
-3.21727e-06
5.13871e-08
-3.19363e-08
-3.56026e-06
5.03256e-08
-3.02184e-08
-3.90863e-06
-2.86334e-08
-4.26048e-06
4.7138e-08
1.82141e-08
-7.38591e-08
-1.74387e-06
3.16801e-08
-6.76898e-08
-2.18972e-06
4.12379e-08
-6.2775e-08
-2.54207e-06
4.77286e-08
-5.92099e-08
-2.87931e-06
5.15426e-08
-5.61641e-08
-3.21757e-06
5.29288e-08
-5.34221e-08
-3.56085e-06
5.20548e-08
-5.0923e-08
-3.90957e-06
-4.8646e-08
-4.2618e-06
4.89921e-08
1.68517e-08
-1.02559e-07
-1.73812e-06
2.92618e-08
-9.32555e-08
-2.18307e-06
3.8066e-08
-8.65717e-08
-2.53449e-06
4.40857e-08
-8.19842e-08
-2.87082e-06
4.76869e-08
-7.82013e-08
-3.20818e-06
4.90997e-08
-7.48758e-08
-3.55056e-06
4.84623e-08
-7.189e-08
-3.89835e-06
-6.92146e-08
-4.24963e-06
4.58211e-08
1.41586e-08
-1.27806e-07
-1.72682e-06
2.43902e-08
-1.15679e-07
-2.16988e-06
3.17276e-08
-1.07804e-07
-2.51929e-06
3.69426e-08
-1.02734e-07
-2.85359e-06
4.03289e-08
-9.87032e-08
-3.1889e-06
4.20513e-08
-9.52371e-08
-3.52917e-06
4.2162e-08
-9.21386e-08
-3.87484e-06
-8.93228e-08
-4.22397e-06
4.058e-08
7.15348e-09
-1.70962e-06
-1.44419e-07
1.1807e-08
-2.14994e-06
-1.30608e-07
1.4882e-08
-2.49577e-06
-1.22497e-07
1.69367e-08
-2.82634e-06
-1.17687e-07
1.82403e-08
-3.15765e-06
-1.14151e-07
1.9e-08
-3.49361e-06
-1.11344e-07
1.92721e-08
-3.83465e-06
-1.08957e-07
-4.17886e-06
-1.06887e-07
1.90128e-08
1.35068e-08
5.33223e-09
-1.72401e-06
-2.61892e-08
2.36581e-08
2.51987e-09
-2.16617e-06
-2.12171e-08
3.09751e-08
1.51659e-09
-2.51435e-06
-1.86855e-08
3.59679e-08
1.14867e-09
-2.84741e-06
-1.72463e-08
3.88928e-08
1.05967e-09
-3.18133e-06
-1.62826e-08
3.99323e-08
1.1298e-09
-3.52006e-06
-1.56058e-08
3.92234e-08
1.31456e-09
-3.86402e-06
-1.51498e-08
1.60724e-09
-4.21129e-06
-1.49057e-08
3.68425e-08
1.52765e-08
-1.8089e-08
-1.73167e-06
2.67277e-08
-1.82761e-08
-2.17541e-06
3.49888e-08
-1.7541e-08
-2.52521e-06
4.0684e-08
-1.67366e-08
-2.85993e-06
4.41099e-08
-1.58852e-08
-3.19562e-06
4.54605e-08
-1.50111e-08
-3.53628e-06
4.48693e-08
-1.41287e-08
-3.88231e-06
-1.3234e-08
-4.23176e-06
4.23862e-08
1.59029e-08
-4.25839e-08
-1.73554e-06
2.77561e-08
-3.99308e-08
-2.18019e-06
3.62307e-08
-3.7355e-08
-2.53086e-06
4.2017e-08
-3.53356e-08
-2.86645e-06
4.54477e-08
-3.35256e-08
-3.20308e-06
4.67436e-08
-3.18437e-08
-3.54474e-06
4.60608e-08
-3.02713e-08
-3.89181e-06
-2.88017e-08
-4.24232e-06
4.34729e-08
1.59833e-08
-6.72844e-08
-1.73517e-06
2.78306e-08
-6.16377e-08
-2.1799e-06
3.63218e-08
-5.7278e-08
-2.53067e-06
4.21746e-08
-5.41283e-08
-2.8664e-06
4.57262e-08
-5.14484e-08
-3.20323e-06
4.71908e-08
-4.90396e-08
-3.54515e-06
4.67089e-08
-4.68427e-08
-3.89255e-06
-4.48354e-08
-4.24341e-06
4.43206e-08
1.45026e-08
-9.01658e-08
-1.72975e-06
2.52115e-08
-8.17485e-08
-2.1737e-06
3.28669e-08
-7.58676e-08
-2.52358e-06
3.81592e-08
-7.1834e-08
-2.85843e-06
4.14069e-08
-6.85253e-08
-3.19437e-06
4.28114e-08
-6.563e-08
-3.53538e-06
4.24939e-08
-6.30411e-08
-3.88184e-06
-6.07289e-08
-4.23173e-06
4.04855e-08
1.19773e-08
-1.09636e-07
-1.71933e-06
2.06786e-08
-9.87797e-08
-2.16158e-06
2.69593e-08
-9.18576e-08
-2.5096e-06
3.14614e-08
-8.73812e-08
-2.84257e-06
3.44418e-08
-8.38401e-08
-3.17659e-06
3.60501e-08
-8.08173e-08
-3.51562e-06
3.63412e-08
-7.81428e-08
-3.86006e-06
-7.57418e-08
-4.20789e-06
3.52427e-08
5.9891e-09
-1.70374e-06
-1.21509e-07
9.98438e-09
-2.14348e-06
-1.09259e-07
1.26146e-08
-2.4883e-06
-1.01991e-07
1.43731e-08
-2.81788e-06
-9.76173e-08
1.54771e-08
-3.14826e-06
-9.43516e-08
1.612e-08
-3.48334e-06
-9.17512e-08
1.63736e-08
-3.82351e-06
-8.95564e-08
-4.16677e-06
-8.76932e-08
1.62314e-08
1.24854e-08
-1.41975e-09
-1.71837e-06
-1.6742e-08
2.17981e-08
-3.97734e-09
-2.15945e-06
-1.21589e-08
2.8491e-08
-4.83047e-09
-2.50638e-06
-9.90876e-09
3.3053e-08
-5.13371e-09
-2.83827e-06
-8.62968e-09
3.57474e-08
-5.1739e-09
-3.17109e-06
-7.799e-09
3.67658e-08
-5.04674e-09
-3.5088e-06
-7.25761e-09
3.62571e-08
-4.78971e-09
-3.85179e-06
-6.94774e-09
-4.40809e-09
-4.19806e-06
-6.85971e-09
3.42963e-08
1.36945e-08
-2.11569e-08
-1.72569e-06
2.38823e-08
-2.13352e-08
-2.16833e-06
3.11888e-08
-2.06489e-08
-2.51676e-06
3.62031e-08
-1.99177e-08
-2.8502e-06
3.92282e-08
-1.91363e-08
-3.18471e-06
4.04758e-08
-1.83158e-08
-3.52426e-06
4.00979e-08
-1.74649e-08
-3.86924e-06
-1.65778e-08
-4.21761e-06
3.81514e-08
1.3958e-08
-4.1291e-08
-1.72941e-06
2.42463e-08
-3.8886e-08
-2.173e-06
3.1542e-08
-3.65897e-08
-2.52227e-06
3.64883e-08
-3.47983e-08
-2.85655e-06
3.94227e-08
-3.319e-08
-3.19198e-06
4.05851e-08
-3.16837e-08
-3.53254e-06
4.01518e-08
-3.02587e-08
-3.87858e-06
-2.89058e-08
-4.22803e-06
3.8203e-08
1.37299e-08
-6.10688e-08
-1.72916e-06
2.3768e-08
-5.59684e-08
-2.17292e-06
3.08781e-08
-5.21256e-08
-2.52229e-06
3.57277e-08
-4.93589e-08
-2.85672e-06
3.8662e-08
-4.70115e-08
-3.19236e-06
3.99208e-08
-4.4902e-08
-3.53319e-06
3.96727e-08
-4.29741e-08
-3.87956e-06
-4.12044e-08
-4.22938e-06
3.79743e-08
1.22033e-08
-7.88188e-08
-1.72424e-06
2.10635e-08
-7.1249e-08
-2.16733e-06
2.72902e-08
-6.60861e-08
-2.51589e-06
3.15221e-08
-6.25462e-08
-2.8495e-06
3.40915e-08
-5.96552e-08
-3.18431e-06
3.52318e-08
-5.71361e-08
-3.52429e-06
3.51016e-08
-5.4893e-08
-3.86978e-06
-5.28972e-08
-4.21866e-06
3.37568e-08
9.88939e-09
-9.33429e-08
-1.71473e-06
1.69353e-08
-8.36359e-08
-2.15629e-06
2.19066e-08
-7.75541e-08
-2.50315e-06
2.53915e-08
-7.35998e-08
-2.83503e-06
2.76707e-08
-7.04852e-08
-3.16805e-06
2.89343e-08
-6.78446e-08
-3.50617e-06
2.92888e-08
-6.55329e-08
-3.84976e-06
-6.34851e-08
-4.19669e-06
2.87089e-08
4.86669e-09
-1.7006e-06
-1.01378e-07
8.01259e-09
-2.13986e-06
-9.0457e-08
9.93741e-09
-2.48384e-06
-8.39788e-08
1.11164e-08
-2.81268e-06
-8.00139e-08
1.17834e-08
-3.1424e-06
-7.70283e-08
1.21646e-08
-3.47692e-06
-7.46458e-08
1.23871e-08
-3.8166e-06
-7.26552e-08
-4.15934e-06
-7.10002e-08
1.24958e-08
1.13976e-08
-7.55258e-09
-1.71422e-06
-8.03099e-09
1.97156e-08
-1.00035e-08
-2.1541e-06
-3.71832e-09
2.55313e-08
-1.0775e-08
-2.49977e-06
-1.68987e-09
2.93739e-08
-1.10522e-08
-2.83053e-06
-5.4499e-10
3.15837e-08
-1.10697e-08
-3.16237e-06
1.39386e-10
3.23794e-08
-1.09068e-08
-3.49925e-06
5.75766e-10
3.19777e-08
-1.05915e-08
-3.84151e-06
7.57599e-10
-1.01267e-08
-4.18709e-06
6.96875e-10
3.04963e-08
1.21152e-08
-2.39476e-08
-1.72146e-06
2.08557e-08
-2.41906e-08
-2.16293e-06
2.69209e-08
-2.35894e-08
-2.51004e-06
3.0931e-08
-2.29511e-08
-2.84232e-06
3.32501e-08
-2.22535e-08
-3.17584e-06
3.41606e-08
-2.1497e-08
-3.51455e-06
3.38852e-08
-2.06855e-08
-3.85882e-06
-1.98101e-08
-4.2065e-06
3.2532e-08
1.20083e-08
-4.00807e-08
-1.72532e-06
2.05449e-08
-3.79609e-08
-2.16781e-06
2.63505e-08
-3.59411e-08
-2.51574e-06
3.00982e-08
-3.43716e-08
-2.84888e-06
3.21917e-08
-3.29565e-08
-3.18336e-06
3.29512e-08
-3.16164e-08
-3.52314e-06
3.26319e-08
-3.03288e-08
-3.86856e-06
-2.90818e-08
-4.21742e-06
3.13725e-08
1.15007e-08
-5.53725e-08
-1.7254e-06
1.95506e-08
-5.08138e-08
-2.16814e-06
2.49652e-08
-4.74431e-08
-2.51622e-06
2.84424e-08
-4.50235e-08
-2.84954e-06
3.04005e-08
-4.29737e-08
-3.18428e-06
3.11691e-08
-4.11293e-08
-3.52441e-06
3.10072e-08
-3.94377e-08
-3.87024e-06
-3.78754e-08
-4.21955e-06
3.00415e-08
9.97183e-09
-6.85345e-08
-1.72108e-06
1.68284e-08
-6.1754e-08
-2.16327e-06
2.13307e-08
-5.72264e-08
-2.51062e-06
2.41493e-08
-5.41218e-08
-2.84322e-06
2.56959e-08
-5.15945e-08
-3.17722e-06
2.62999e-08
-4.94e-08
-3.51658e-06
2.62186e-08
-4.74536e-08
-3.86163e-06
-4.57291e-08
-4.2101e-06
2.55857e-08
7.89739e-09
-7.87461e-08
-1.71244e-06
1.31477e-08
-7.00658e-08
-2.15325e-06
1.65354e-08
-6.47204e-08
-2.49905e-06
1.86774e-08
-6.12238e-08
-2.83006e-06
1.99408e-08
-5.84797e-08
-3.16241e-06
2.06178e-08
-5.6169e-08
-3.50005e-06
2.09226e-08
-5.41688e-08
-3.84329e-06
-5.24245e-08
-4.18992e-06
2.09228e-08
3.77054e-09
-1.69958e-06
-8.35638e-08
5.8591e-09
-2.13826e-06
-7.37834e-08
6.78562e-09
-2.48147e-06
-6.80298e-08
7.05905e-09
-2.80974e-06
-6.44372e-08
7.00378e-09
-3.13908e-06
-6.17277e-08
6.93143e-09
-3.47342e-06
-5.95628e-08
7.07246e-09
-3.81308e-06
-5.77779e-08
-4.15585e-06
-5.63233e-08
7.55415e-09
1.02873e-08
-1.34868e-08
-1.71129e-06
2.43561e-10
1.73738e-08
-1.58677e-08
-2.1497e-06
4.38689e-09
2.19864e-08
-1.65842e-08
-2.49403e-06
6.24376e-09
2.47578e-08
-1.68533e-08
-2.82373e-06
7.30238e-09
2.61153e-08
-1.68651e-08
-3.15477e-06
7.94438e-09
2.64281e-08
-1.66768e-08
-3.49111e-06
8.27993e-09
2.60166e-08
-1.63104e-08
-3.83308e-06
8.3501e-09
-1.57656e-08
-4.17847e-06
8.15735e-09
2.50826e-08
1.04921e-08
-2.67384e-08
-1.7187e-06
1.754e-08
-2.70806e-08
-2.15875e-06
2.20032e-08
-2.65748e-08
-2.50449e-06
2.46073e-08
-2.60327e-08
-2.83571e-06
2.58399e-08
-2.54198e-08
-3.16847e-06
2.61213e-08
-2.47261e-08
-3.50673e-06
2.5809e-08
-2.39501e-08
-3.8508e-06
-2.30799e-08
-4.19842e-06
2.51192e-08
1.00219e-08
-3.91459e-08
-1.72294e-06
1.65308e-08
-3.73199e-08
-2.16406e-06
2.04429e-08
-3.55601e-08
-2.51064e-06
2.25443e-08
-3.41972e-08
-2.84279e-06
2.3374e-08
-3.29598e-08
-3.17661e-06
2.34026e-08
-3.17702e-08
-3.51607e-06
2.30353e-08
-3.0604e-08
-3.86147e-06
-2.94468e-08
-4.21046e-06
2.25328e-08
9.25159e-09
-5.02894e-08
-1.72352e-06
1.5032e-08
-4.62463e-08
-2.16498e-06
1.83326e-08
-4.3299e-08
-2.51176e-06
1.99696e-08
-4.1188e-08
-2.84416e-06
2.05069e-08
-3.9399e-08
-3.17834e-06
2.04375e-08
-3.77841e-08
-3.51827e-06
2.01857e-08
-3.62945e-08
-3.86423e-06
-3.49075e-08
-4.21383e-06
2.00168e-08
7.74408e-09
-5.92687e-08
-1.71985e-06
1.23254e-08
-5.32105e-08
-2.16087e-06
1.46909e-08
-4.92417e-08
-2.50702e-06
1.56349e-08
-4.65179e-08
-2.8388e-06
1.57206e-08
-4.43043e-08
-3.17235e-06
1.54475e-08
-4.23872e-08
-3.51165e-06
1.52457e-08
-4.06931e-08
-3.85696e-06
-3.91993e-08
-4.20587e-06
1.53946e-08
5.9272e-09
-6.56255e-08
-1.71201e-06
9.12181e-09
-5.78573e-08
-2.15178e-06
1.05303e-08
-5.31543e-08
-2.49652e-06
1.08903e-08
-5.00584e-08
-2.82685e-06
1.07249e-08
-4.76338e-08
-3.15887e-06
1.04999e-08
-4.56058e-08
-3.49654e-06
1.06059e-08
-4.3871e-08
-3.84015e-06
-4.23863e-08
-4.18731e-06
1.12699e-08
2.62595e-09
-1.7002e-06
-6.7631e-08
3.34406e-09
-2.13797e-06
-5.88409e-08
2.85554e-09
-2.48037e-06
-5.37404e-08
1.77971e-09
-2.80819e-06
-5.04896e-08
6.04431e-10
-3.13745e-06
-4.804e-08
-2.0787e-10
-3.47207e-06
-4.60857e-08
-2.54458e-10
-3.81233e-06
-4.44999e-08
-4.15589e-06
-4.32416e-08
7.3294e-10
9.03511e-09
-1.94373e-08
-1.70932e-06
8.43972e-09
1.4524e-08
-2.17538e-08
-2.14577e-06
1.23821e-08
1.746e-08
-2.24233e-08
-2.48857e-06
1.4073e-08
1.86564e-08
-2.26862e-08
-2.81724e-06
1.50354e-08
1.8716e-08
-2.26912e-08
-3.14769e-06
1.55893e-08
1.81981e-08
-2.24752e-08
-3.4839e-06
1.58214e-08
1.7609e-08
-2.20523e-08
-3.82616e-06
1.57649e-08
-2.14178e-08
-4.17212e-06
1.54205e-08
1.73054e-08
8.73886e-09
-2.97319e-08
-1.71712e-06
1.36925e-08
-3.01728e-08
-2.15524e-06
1.60339e-08
-2.9756e-08
-2.49946e-06
1.66806e-08
-2.93022e-08
-2.82971e-06
1.63164e-08
-2.87648e-08
-3.162e-06
1.55739e-08
-2.81231e-08
-3.5003e-06
1.50251e-08
-2.73695e-08
-3.84489e-06
-2.64882e-08
-4.19334e-06
1.50696e-08
7.887e-09
-3.86248e-08
-1.72192e-06
1.19194e-08
-3.70746e-08
-2.16116e-06
1.33625e-08
-3.55477e-08
-2.50627e-06
1.32075e-08
-3.43685e-08
-2.83754e-06
1.22079e-08
-3.32869e-08
-3.17105e-06
1.10665e-08
-3.22254e-08
-3.51079e-06
1.04253e-08
-3.1158e-08
-3.857e-06
-3.00677e-08
-4.20715e-06
1.07508e-08
6.85309e-09
-4.58649e-08
-1.72311e-06
9.89408e-09
-4.22958e-08
-2.16278e-06
1.04757e-08
-3.97211e-08
-2.50814e-06
9.63018e-09
-3.78786e-08
-2.83977e-06
8.15162e-09
-3.63128e-08
-3.1738e-06
6.78144e-09
-3.48906e-08
-3.5142e-06
6.19933e-09
-3.35675e-08
-3.86119e-06
-3.2322e-08
-4.21222e-06
6.897e-09
5.37348e-09
-5.094e-08
-1.72013e-06
7.20662e-09
-4.55359e-08
-2.15944e-06
6.82355e-09
-4.20562e-08
-2.50427e-06
5.24559e-09
-3.96627e-08
-2.83541e-06
3.27314e-09
-3.77154e-08
-3.16894e-06
1.6615e-09
-3.60313e-08
-3.50886e-06
1.10259e-09
-3.45473e-08
-3.85537e-06
-3.32469e-08
-4.20589e-06
2.10948e-09
3.83092e-09
-5.37528e-08
-1.71302e-06
4.50895e-09
-4.67983e-08
-2.15117e-06
3.33992e-09
-4.26534e-08
-2.49472e-06
1.29141e-09
-3.99079e-08
-2.82452e-06
-8.71832e-10
-3.77575e-08
-3.15662e-06
-2.43316e-09
-3.5969e-08
-3.495e-06
-2.7364e-09
-3.44599e-08
-3.83988e-06
-3.31973e-08
-4.1887e-06
-1.3304e-09
1.30028e-09
-1.70204e-06
-5.31993e-08
1.19417e-10
-2.13829e-06
-4.52683e-08
-2.38756e-09
-2.47973e-06
-4.07582e-08
-5.42004e-09
-2.80721e-06
-3.7827e-08
-8.26023e-09
-3.13672e-06
-3.56133e-08
-1.02084e-08
-3.47219e-06
-3.38562e-08
-1.06243e-08
-3.81386e-06
-3.24557e-08
-4.15924e-06
-3.13841e-08
-9.02844e-09
7.53874e-09
-2.55566e-08
-1.70791e-06
1.66318e-08
1.08713e-08
-2.77956e-08
-2.14166e-06
2.0378e-08
1.14646e-08
-2.84128e-08
-2.48264e-06
2.19107e-08
1.03986e-08
-2.86608e-08
-2.81027e-06
2.27767e-08
8.53218e-09
-2.86467e-08
-3.1404e-06
2.32357e-08
6.69355e-09
-2.83856e-08
-3.47701e-06
2.33497e-08
5.66436e-09
-2.78832e-08
-3.82038e-06
2.31438e-08
-2.7131e-08
-4.16797e-06
2.26175e-08
6.0475e-09
6.69911e-09
-3.3071e-08
-1.71628e-06
8.94847e-09
-3.35785e-08
-2.15169e-06
8.43656e-09
-3.32299e-08
-2.49412e-06
6.3685e-09
-3.2846e-08
-2.82345e-06
3.71466e-09
-3.23643e-08
-3.15562e-06
1.40781e-09
-3.17513e-08
-3.49462e-06
3.28932e-10
-3.09928e-08
-3.84069e-06
-3.00697e-08
-4.19121e-06
1.1577e-09
5.41883e-09
-3.86079e-08
-1.72178e-06
6.29737e-09
-3.72883e-08
-2.15832e-06
4.45943e-09
-3.59597e-08
-2.50169e-06
1.21767e-09
-3.49334e-08
-2.8322e-06
-2.36917e-09
-3.39778e-08
-3.16585e-06
-5.27124e-09
-3.30139e-08
-3.50662e-06
-6.50923e-09
-3.20126e-08
-3.85473e-06
-3.09558e-08
-4.20745e-06
-5.30792e-09
4.10021e-09
-4.21069e-08
-1.7237e-06
3.67568e-09
-3.89558e-08
-2.16068e-06
6.75486e-10
-3.67027e-08
-2.5044e-06
-3.52053e-09
-3.5087e-08
-2.83542e-06
-7.80677e-09
-3.37046e-08
-3.16979e-06
-1.10952e-08
-3.24351e-08
-3.51148e-06
-1.23451e-08
-3.12386e-08
-3.86071e-06
-3.00969e-08
-4.21468e-06
-1.07313e-08
2.64534e-09
-4.34464e-08
-1.72142e-06
9.71432e-10
-3.8634e-08
-2.15809e-06
-3.03967e-09
-3.5582e-08
-2.50139e-06
-8.0127e-09
-3.3473e-08
-2.83205e-06
-1.2838e-08
-3.17471e-08
-3.16608e-06
-1.64068e-08
-3.02522e-08
-3.50747e-06
-1.76572e-08
-2.89373e-08
-3.85642e-06
-2.77912e-08
-4.21011e-06
-1.57364e-08
1.3967e-09
-4.2902e-08
-1.71495e-06
-1.20658e-09
-3.66784e-08
-2.15052e-06
-5.80403e-09
-3.30451e-08
-2.49266e-06
-1.1113e-08
-3.0601e-08
-2.82208e-06
-1.60511e-08
-2.868e-08
-3.15475e-06
-1.95486e-08
-2.70911e-08
-3.49466e-06
-2.05848e-08
-2.57696e-08
-3.84201e-06
-2.46969e-08
-4.19402e-06
-1.8353e-08
-3.92508e-10
-1.70461e-06
-3.99201e-08
-4.17713e-09
-2.13838e-06
-3.28019e-08
-9.59664e-09
-2.47855e-06
-2.87961e-08
-1.5446e-08
-2.80579e-06
-2.6162e-08
-2.07154e-08
-3.13596e-06
-2.416e-08
-2.43814e-08
-3.47302e-06
-2.25819e-08
-2.54604e-08
-3.81719e-06
-2.13528e-08
-4.16576e-06
-2.04587e-08
-2.31609e-08
5.60488e-09
-3.1968e-08
-1.70649e-06
2.49503e-08
6.01155e-09
-3.4067e-08
-2.13645e-06
2.84609e-08
3.36186e-09
-3.4608e-08
-2.4752e-06
2.98183e-08
-8.79457e-10
-3.48103e-08
-2.80178e-06
3.05679e-08
-5.50067e-09
-3.47454e-08
-3.13193e-06
3.09019e-08
-9.31694e-09
-3.43973e-08
-3.46964e-06
3.08578e-08
-1.11687e-08
-3.37637e-08
-3.8152e-06
3.04514e-08
-3.28355e-08
-4.16587e-06
2.96842e-08
-1.00952e-08
4.15699e-09
-3.6848e-08
-1.71555e-06
2.83584e-09
-3.73484e-08
-2.14709e-06
-1.53825e-09
-3.70269e-08
-2.48733e-06
-7.29743e-09
-3.66862e-08
-2.81581e-06
-1.31365e-08
-3.62219e-08
-3.1483e-06
-1.77205e-08
-3.55926e-08
-3.48883e-06
-1.9748e-08
-3.47772e-08
-3.83764e-06
-3.37558e-08
-4.19189e-06
-1.81376e-08
2.38475e-09
-3.91359e-08
-1.72188e-06
-8.86947e-10
-3.7971e-08
-2.15444e-06
-7.07803e-09
-3.68038e-08
-2.49574e-06
-1.44701e-08
-3.58918e-08
-2.82562e-06
-2.16122e-08
-3.5018e-08
-3.15992e-06
-2.70463e-08
-3.41029e-08
-3.50268e-06
-2.93357e-08
-3.3116e-08
-3.8541e-06
-3.20402e-08
-4.21123e-06
-2.72679e-08
7.59688e-10
-3.89929e-08
-1.72461e-06
-4.18558e-09
-3.61869e-08
-2.15754e-06
-1.19045e-08
-3.42131e-08
-2.49929e-06
-2.05768e-08
-3.27788e-08
-2.82988e-06
-2.8687e-08
-3.15313e-08
-3.16518e-06
-3.46985e-08
-3.03647e-08
-3.50923e-06
-3.70902e-08
-2.92447e-08
-3.8622e-06
-2.81588e-08
-4.22109e-06
-3.45735e-08
-7.1752e-10
-3.66805e-08
-1.72303e-06
-6.94568e-09
-3.24153e-08
-2.15566e-06
-1.57366e-08
-2.97397e-08
-2.49709e-06
-2.52533e-08
-2.78633e-08
-2.82747e-06
-3.39605e-08
-2.63131e-08
-3.16261e-06
-4.02973e-08
-2.49628e-08
-3.50656e-06
-4.27133e-08
-2.37745e-08
-3.85949e-06
-2.2746e-08
-4.21838e-06
-3.98878e-08
-1.66824e-09
-3.28842e-08
-1.71709e-06
-8.56112e-09
-2.73684e-08
-2.1487e-06
-1.774e-08
-2.41699e-08
-2.48908e-06
-2.74283e-08
-2.19894e-08
-2.81829e-06
-3.61396e-08
-2.02623e-08
-3.15211e-06
-4.23569e-08
-1.88392e-08
-3.49458e-06
-4.45748e-08
-1.76752e-08
-3.84591e-06
-1.67656e-08
-4.20307e-06
-4.15229e-08
-2.76449e-09
-1.7072e-06
-2.75437e-08
-1.02134e-08
-2.13712e-06
-2.11986e-08
-1.96234e-08
-2.47567e-06
-1.7652e-08
-2.93672e-08
-2.80277e-06
-1.52832e-08
-3.8039e-08
-3.13409e-06
-1.34717e-08
-4.41859e-08
-3.47367e-06
-1.20584e-08
-4.63624e-08
-3.8217e-06
-1.09922e-08
-4.17528e-06
-1.02725e-08
-4.33379e-08
3.01145e-09
-3.87117e-08
-1.70423e-06
3.3443e-08
-5.7857e-10
-4.05461e-08
-2.12892e-06
3.6623e-08
-7.60184e-09
-4.09692e-08
-2.46494e-06
3.77559e-08
-1.6143e-08
-4.10772e-08
-2.79048e-06
3.83467e-08
-2.45647e-08
-4.08863e-08
-3.12108e-06
3.84904e-08
-3.12088e-08
-4.03625e-08
-3.4608e-06
3.8201e-08
-3.44208e-08
-3.94948e-08
-3.80994e-06
3.74898e-08
-3.82795e-08
-4.16558e-06
3.63674e-08
-3.27547e-08
8.92439e-10
-4.10848e-08
-1.71407e-06
-5.17146e-09
-4.14515e-08
-2.1401e-06
-1.4628e-08
-4.11212e-08
-2.4777e-06
-2.53326e-08
-4.07542e-08
-2.80541e-06
-3.5485e-08
-4.02375e-08
-3.13877e-06
-4.32581e-08
-3.95078e-08
-3.48188e-06
-4.68143e-08
-3.85389e-08
-3.83501e-06
-3.73173e-08
-4.19509e-06
-4.45427e-08
-1.51934e-09
-4.02003e-08
-1.72125e-06
-1.01573e-08
-3.9111e-08
-2.14814e-06
-2.20669e-08
-3.80287e-08
-2.48691e-06
-3.49316e-08
-3.71708e-08
-2.81632e-06
-4.68268e-08
-3.63116e-08
-3.15193e-06
-5.57634e-08
-3.5368e-08
-3.49786e-06
-5.97274e-08
-3.43104e-08
-3.85435e-06
-3.31288e-08
-4.2182e-06
-5.69381e-08
-3.58659e-09
-3.64636e-08
-1.72477e-06
-1.43541e-08
-3.3965e-08
-2.15192e-06
-2.81738e-08
-3.21926e-08
-2.4913e-06
-4.26712e-08
-3.08803e-08
-2.82167e-06
-5.5835e-08
-2.97067e-08
-3.15862e-06
-6.55697e-08
-2.85779e-08
-3.50628e-06
-6.97466e-08
-2.7467e-08
-3.86487e-06
-2.63718e-08
-4.23111e-06
-6.64817e-08
-5.11092e-09
-3.05611e-08
-1.72384e-06
-1.7258e-08
-2.68093e-08
-2.15068e-06
-3.22172e-08
-2.44476e-08
-2.48988e-06
-4.76286e-08
-2.27556e-08
-2.82019e-06
-6.14548e-08
-2.13334e-08
-3.15716e-06
-7.15642e-08
-2.00818e-08
-3.50495e-06
-7.57903e-08
-1.89774e-08
-3.86377e-06
-1.80289e-08
-4.23031e-06
-7.22121e-08
-5.77361e-09
-2.35739e-08
-1.71832e-06
-1.82914e-08
-1.87427e-08
-2.14426e-06
-3.33923e-08
-1.59361e-08
-2.48249e-06
-4.87888e-08
-1.39833e-08
-2.81167e-06
-6.24885e-08
-1.24219e-08
-3.14733e-06
-7.24083e-08
-1.11425e-08
-3.49361e-06
-7.64341e-08
-1.01194e-08
-3.85074e-06
-9.36141e-09
-4.21548e-06
-7.26997e-08
-6.16747e-09
-1.70872e-06
-1.59012e-08
-1.8548e-08
-2.13318e-06
-1.03087e-08
-3.32889e-08
-2.46968e-06
-7.20051e-09
-4.82417e-08
-2.79671e-06
-5.08646e-09
-6.151e-08
-3.12978e-06
-3.46713e-09
-7.10993e-08
-3.47298e-06
-2.23232e-09
-7.49794e-08
-3.82658e-06
-1.3532e-09
-4.18743e-06
-8.36261e-10
-7.13486e-08
-5.2091e-10
-4.5724e-08
-1.70005e-06
4.20708e-08
-9.35529e-09
-4.71481e-08
-2.11762e-06
4.47336e-08
-2.2178e-08
-4.73385e-08
-2.45032e-06
4.55899e-08
-3.63965e-08
-4.72456e-08
-2.77487e-06
4.59077e-08
-4.98729e-08
-4.6798e-08
-3.10648e-06
4.57275e-08
-6.03936e-08
-4.59361e-08
-3.44932e-06
4.50273e-08
-6.56956e-08
-4.46468e-08
-3.80376e-06
4.38182e-08
-4.29469e-08
-4.16669e-06
4.21352e-08
-6.3726e-08
-3.49291e-09
-4.57019e-08
-1.71057e-06
-1.56995e-08
-4.58188e-08
-2.12917e-06
-3.17071e-08
-4.53569e-08
-2.46362e-06
-4.87627e-08
-4.48624e-08
-2.79068e-06
-6.45378e-08
-4.41666e-08
-3.12557e-06
-7.65994e-08
-4.31857e-08
-3.47253e-06
-8.24573e-08
-4.18935e-08
-3.83187e-06
-4.02945e-08
-4.20031e-06
-7.98571e-08
-6.6825e-09
-4.17448e-08
-1.7185e-06
-2.22328e-08
-4.06095e-08
-2.13774e-06
-4.13542e-08
-3.95174e-08
-2.47358e-06
-6.11712e-08
-3.86161e-08
-2.80271e-06
-7.9189e-08
-3.76609e-08
-3.14038e-06
-9.2775e-08
-3.65623e-08
-3.49087e-06
-9.92255e-08
-3.52951e-08
-3.85447e-06
-3.38664e-08
-4.22775e-06
-9.60853e-08
-9.3187e-09
-3.44834e-08
-1.72269e-06
-2.74618e-08
-3.21958e-08
-2.14215e-06
-4.89335e-08
-3.05477e-08
-2.47876e-06
-7.07804e-08
-2.92811e-08
-2.80913e-06
-9.03976e-08
-2.80992e-08
-3.14853e-06
-1.05021e-07
-2.69189e-08
-3.50128e-06
-1.11808e-07
-2.57239e-08
-3.86764e-06
-2.45278e-08
-4.24407e-06
-1.08183e-07
-1.09678e-08
-2.50338e-08
-1.7223e-06
-3.05604e-08
-2.17456e-08
-2.14149e-06
-5.326e-08
-1.96434e-08
-2.47805e-06
-7.61034e-08
-1.8087e-08
-2.80851e-06
-9.64506e-08
-1.67464e-08
-3.14814e-06
-1.11494e-07
-1.55499e-08
-3.50126e-06
-1.1835e-07
-1.44902e-08
-3.86814e-06
-1.35887e-08
-4.24519e-06
-1.14404e-07
-1.12939e-08
-1.49085e-08
-1.71714e-06
-3.09439e-08
-1.07487e-08
-2.13557e-06
-5.3533e-08
-8.30478e-09
-2.47121e-06
-7.61593e-08
-6.55718e-09
-2.80054e-06
-9.62307e-08
-5.14774e-09
-3.13883e-06
-1.10996e-07
-4.00812e-09
-3.49036e-06
-1.17632e-07
-3.13215e-09
-3.85545e-06
-2.54067e-09
-4.23057e-06
-1.13581e-07
-1.09182e-08
-1.70778e-06
-4.92567e-09
-2.97196e-08
-2.12495e-06
-1.41717e-10
-5.13322e-08
-2.45889e-06
2.55769e-09
-7.29875e-08
-2.78602e-06
4.43254e-09
-9.2213e-08
-3.12153e-06
5.86473e-09
-1.06373e-07
-3.46972e-06
6.91879e-09
-1.12753e-07
-3.83091e-06
7.60242e-09
-4.2017e-06
7.8961e-09
-1.08879e-07
-5.29448e-09
-5.28345e-08
-1.69253e-06
5.06273e-08
-2.09901e-08
-5.36174e-08
-2.10084e-06
5.25979e-08
-4.1122e-08
-5.3413e-08
-2.4297e-06
5.29852e-08
-6.25207e-08
-5.29293e-08
-2.75335e-06
5.28469e-08
-8.2462e-08
-5.19918e-08
-3.08662e-06
5.21048e-08
-9.80749e-08
-5.05124e-08
-3.43389e-06
5.07058e-08
-1.06398e-07
-4.84878e-08
-3.79563e-06
4.86727e-08
-4.59795e-08
-4.16853e-06
4.60904e-08
-1.04695e-07
-9.3349e-09
-5.0578e-08
-1.70344e-06
-2.92769e-08
-5.0211e-08
-2.11257e-06
-5.34055e-08
-4.9461e-08
-2.44339e-06
-7.83607e-08
-4.86637e-08
-2.76995e-06
-1.01192e-07
-4.75759e-08
-3.10714e-06
-1.18775e-07
-4.60934e-08
-3.45936e-06
-1.27892e-07
-4.42001e-08
-3.82705e-06
-4.19399e-08
-4.20668e-06
-1.25593e-07
-1.3489e-08
-4.36653e-08
-1.71188e-06
-3.75508e-08
-4.22881e-08
-2.12154e-06
-6.551e-08
-4.10529e-08
-2.45398e-06
-9.38555e-08
-3.99615e-08
-2.78302e-06
-1.19442e-07
-3.8738e-08
-3.12361e-06
-1.38916e-07
-3.72868e-08
-3.48019e-06
-1.48826e-07
-3.55953e-08
-3.85317e-06
-3.37039e-08
-4.23881e-06
-1.46014e-07
-1.6765e-08
-3.29749e-08
-1.71658e-06
-4.39329e-08
-3.07674e-08
-2.12644e-06
-7.47086e-08
-2.91482e-08
-2.45984e-06
-1.05487e-07
-2.78274e-08
-2.79044e-06
-1.32996e-07
-2.65264e-08
-3.13321e-06
-1.53732e-07
-2.51737e-08
-3.49264e-06
-1.641e-07
-2.37685e-08
-3.86909e-06
-2.23488e-08
-4.25871e-06
-1.60817e-07
-1.85514e-08
-2.00513e-08
-1.71664e-06
-4.72719e-08
-1.71792e-08
-2.1263e-06
-7.93704e-08
-1.5287e-08
-2.45977e-06
-1.11224e-07
-1.3823e-08
-2.79062e-06
-1.39518e-07
-1.2527e-08
-3.13382e-06
-1.60706e-07
-1.13544e-08
-3.49388e-06
-1.71149e-07
-1.03146e-08
-3.87115e-06
-9.44209e-09
-4.26172e-06
-1.67534e-07
-1.84945e-08
-6.86091e-09
-1.71179e-06
-4.69551e-08
-3.39003e-09
-2.12083e-06
-7.86832e-08
-1.2992e-09
-2.45342e-06
-1.10116e-07
2.37642e-10
-2.78313e-06
-1.37977e-07
1.44627e-09
-3.12491e-06
-1.58791e-07
2.38645e-09
-3.48328e-06
-1.6898e-07
3.0382e-09
-3.85861e-06
3.37827e-09
-4.24709e-06
-1.65287e-07
-1.72782e-08
-1.70271e-06
5.38909e-09
-4.4185e-08
-2.1107e-06
9.33262e-09
-7.43083e-08
-2.44157e-06
1.15575e-08
-1.04231e-07
-2.76895e-06
1.31302e-08
-1.30846e-07
-3.10772e-06
1.42814e-08
-1.50792e-07
-3.46239e-06
1.5028e-08
-1.60615e-07
-3.8334e-06
1.53623e-08
-4.21706e-06
1.52711e-08
-1.57149e-07
-1.17272e-08
-5.97534e-08
-1.67985e-06
5.88315e-08
-3.58581e-08
-5.95515e-08
-2.07691e-06
5.97617e-08
-6.48923e-08
-5.86966e-08
-2.40141e-06
5.94243e-08
-9.50236e-08
-5.75176e-08
-2.72424e-06
5.85209e-08
-1.22874e-07
-5.57171e-08
-3.05993e-06
5.68327e-08
-1.44859e-07
-5.31849e-08
-3.41306e-06
5.42819e-08
-1.57288e-07
-4.99507e-08
-3.78425e-06
5.09269e-08
-4.61598e-08
-4.16994e-06
4.69429e-08
-1.56749e-07
-1.69251e-08
-5.54522e-08
-1.6908e-06
-4.62055e-08
-5.42737e-08
-2.08857e-06
-8.00325e-08
-5.30009e-08
-2.41528e-06
-1.14396e-07
-5.16261e-08
-2.74151e-06
-1.4567e-07
-4.98156e-08
-3.0818e-06
-1.70001e-07
-4.74512e-08
-3.44081e-06
-1.83452e-07
-4.45476e-08
-3.81907e-06
-4.12214e-08
-4.21273e-06
-1.82417e-07
-2.21172e-08
-4.57585e-08
-1.69943e-06
-5.63227e-08
-4.38847e-08
-2.09771e-06
-9.46749e-08
-4.23148e-08
-2.42631e-06
-1.33006e-07
-4.08179e-08
-2.75551e-06
-1.67479e-07
-3.9073e-08
-3.0999e-06
-1.94005e-07
-3.69846e-08
-3.46417e-06
-2.08427e-07
-3.45685e-08
-3.84877e-06
-3.19216e-08
-4.24963e-06
-2.06956e-07
-2.608e-08
-3.18187e-08
-1.70441e-06
-6.39112e-08
-2.95399e-08
-2.10293e-06
-1.05515e-07
-2.7827e-08
-2.43271e-06
-1.46629e-07
-2.63225e-08
-2.76383e-06
-1.83281e-07
-2.47586e-08
-3.11088e-06
-2.11237e-07
-2.30799e-08
-3.47861e-06
-2.26208e-07
-2.13091e-08
-3.86742e-06
-1.95186e-08
-4.27306e-06
-2.24307e-07
-2.80183e-08
-1.55891e-08
-1.70481e-06
-6.7509e-08
-1.31031e-08
-2.10321e-06
-1.10515e-07
-1.13831e-08
-2.43319e-06
-1.52758e-07
-9.98146e-09
-2.76472e-06
-1.90224e-07
-8.70722e-09
-3.11242e-06
-2.18634e-07
-7.54732e-09
-3.48103e-06
-2.33671e-07
-6.52826e-09
-3.87093e-06
-5.69445e-09
-4.27784e-06
-2.31432e-07
-2.75533e-08
5.14876e-10
-1.70031e-06
-6.64655e-08
3.19913e-09
-2.09819e-06
-1.08841e-07
4.88022e-09
-2.42729e-06
-1.50456e-07
6.13497e-09
-2.75763e-06
-1.87351e-07
7.0888e-09
-3.10383e-06
-2.1531e-07
7.72553e-09
-3.47062e-06
-2.30069e-07
8.02367e-09
-3.85845e-06
7.97276e-09
-4.26312e-06
-2.27771e-07
-2.54363e-08
-1.69163e-06
1.49095e-08
-6.20936e-08
-2.08864e-06
1.78303e-08
-1.02294e-07
-2.41598e-06
1.95068e-08
-1.41951e-07
-2.74381e-06
2.06557e-08
-1.77253e-07
-3.08671e-06
2.13587e-08
-2.04124e-07
-3.44942e-06
2.15849e-08
-2.18416e-07
-3.83245e-06
2.13247e-08
-4.23181e-06
2.05956e-08
-2.16347e-07
-1.9978e-08
-6.60331e-08
6.62088e-08
-1.66005e-06
-5.40836e-08
-6.43837e-08
6.56262e-08
-2.04413e-06
-9.34813e-08
-6.24997e-08
6.41811e-08
-2.36377e-06
-1.33722e-07
-6.01732e-08
6.20458e-08
-2.68595e-06
-1.70745e-07