/*--------------------------------*- C++ -*----------------------------------*\
| =========                 |                                                 |
| \\      /  F ield         | OpenFOAM: The Open Source CFD Toolbox           |
|  \\    /   O peration     | Version:  plus.master                           |
|   \\  /    A nd           | Web:      www.OpenFOAM.com                      |
|    \\/     M anipulation  |                                                 |
\*---------------------------------------------------------------------------*/
FoamFile
{
    version     2.0;
    format      ascii;
    class       surfaceScalarField;
    location    "9.6";
    object      alphaPhi;
}
// * * * * * * * * * * * * * * * * * * * * * * * * * * * * * * * * * * * * * //

dimensions      [0 3 -1 0 0 0 0];

internalField   nonuniform List<scalar> 
138768
(
9.66474e-07
2.35618e-06
3.86561e-07
-1.38899e-06
-2.32286e-06
5.05629e-07
1.8117e-06
7.24654e-07
-2.07278e-06
-7.98535e-07
2.4324e-06
1.12304e-06
-2.25043e-06
-2.29872e-06
2.55198e-06
1.1336e-06
-2.18606e-06
-2.79783e-06
1.87782e-06
6.80324e-07
-2.05892e-06
-2.69127e-06
1.14583e-06
3.94254e-07
-1.64866e-06
1.68909e-06
2.6065e-07
-2.68414e-06
-1.95559e-06
7.45246e-07
2.476e-06
6.95795e-07
-1.55919e-06
7.22274e-07
1.54375e-06
2.05195e-06
-1.93819e-07
1.43014e-06
3.0997e-06
-2.13894e-06
1.89857e-06
3.33248e-06
-1.89233e-06
7.27211e-07
2.39133e-06
-2.01452e-06
1.27848e-06
1.48657e-06
1.55231e-06
3.52285e-07
-2.23065e-06
1.76521e-06
1.4911e-06
1.16024e-06
-1.94059e-06
5.46709e-07
1.44163e-06
2.91611e-06
2.38707e-07
3.63669e-07
1.98603e-06
-4.46924e-07
1.46116e-07
1.78828e-06
-1.63402e-06
4.52228e-07
2.30229e-06
-2.50477e-06
1.36355e-06
1.78781e-06
9.70231e-07
5.30583e-07
-2.45574e-06
2.64102e-06
-3.39508e-07
1.51827e-06
-2.32851e-06
1.86594e-06
-7.70803e-07
3.72291e-06
1.40647e-07
-3.09093e-07
1.83281e-06
-2.34594e-07
-8.43096e-08
6.05747e-07
-2.12798e-06
-3.15354e-07
2.55119e-06
-2.48532e-06
-3.54262e-07
2.35531e-06
1.05818e-07
7.4251e-07
-2.36105e-06
2.19969e-06
-1.77852e-06
1.2535e-06
-2.014e-06
9.51742e-07
-1.27021e-06
3.11199e-06
2.12887e-07
-9.89015e-07
1.92207e-06
-2.5235e-07
-1.63289e-06
1.52181e-06
-1.90102e-06
-3.68717e-07
2.28359e-06
-2.59458e-06
-9.47049e-07
2.045e-06
-7.96786e-07
6.76823e-07
-2.36795e-06
1.22625e-06
-1.89576e-06
7.43101e-07
-1.85206e-06
1.04637e-06
-1.4956e-06
2.14195e-06
2.71096e-07
-2.19541e-06
3.25823e-06
-1.65094e-06
-2.547e-06
3.58243e-06
-1.91096e-06
-1.46347e-06
2.72344e-06
-2.22104e-06
-6.47024e-07
1.50756e-06
-9.69287e-07
4.24333e-07
-2.47264e-06
1.40124e-06
4.02666e-07
-1.74557e-06
-1.95172e-06
1.04861e-06
7.85527e-07
-1.92824e-06
-5.43746e-07
1.33807e-06
-1.94038e-06
-2.56824e-06
1.47614e-06
-1.99916e-06
-3.20414e-06
9.47958e-07
-1.77534e-06
-2.93705e-06
5.04657e-07
-1.41868e-06
2.65666e-07
-2.70287e-06
-1.46901e-06
1.15093e-06
2.85901e-06
7.22823e-07
-1.61753e-06
-2.72847e-06
1.90568e-07
3.38623e-06
1.24591e-06
-2.94713e-06
-9.58697e-07
3.19923e-06
1.89612e-06
-2.82293e-06
-2.0594e-06
2.95892e-06
1.96677e-06
-2.6915e-06
-2.65853e-06
2.83653e-06
1.10135e-06
-2.65849e-06
-2.90853e-06
2.34971e-06
6.72646e-07
-2.3781e-06
1.7303e-06
5.5744e-07
-2.91112e-06
-2.02466e-06
2.00922e-06
2.50079e-06
1.20286e-06
-2.15802e-06
1.07422e-06
2.94108e-06
2.82524e-06
-6.02299e-07
2.38331e-06
4.48208e-06
-2.44794e-06
1.45053e-06
4.85773e-06
-3.57571e-06
2.25376e-06
3.16768e-06
-3.4627e-06
2.07864e-06
1.42106e-06
1.18376e-06
6.29321e-07
-3.19314e-06
2.81677e-06
1.31683e-06
2.06291e-06
-2.53552e-06
1.0287e-06
1.43715e-06
4.10006e-06
8.85624e-08
1.68514e-07
2.91214e-06
-3.89686e-07
7.15247e-08
2.3763e-06
-3.46391e-06
4.68369e-07
3.97128e-06
-3.35427e-06
1.2422e-06
2.51472e-06
7.14733e-07
8.21819e-07
-3.17646e-06
2.93524e-06
-2.5437e-07
2.75871e-06
-2.60444e-06
1.30653e-06
-6.34353e-07
5.75721e-06
-9.91145e-10
-1.09875e-07
2.41781e-06
-3.70784e-07
9.0409e-09
9.55886e-07
-3.16519e-06
-1.90323e-07
3.39315e-06
-3.12887e-06
1.99316e-09
3.55901e-06
3.37258e-07
1.08343e-06
-3.09246e-06
2.94525e-06
-1.5762e-06
2.28304e-06
-2.6529e-06
1.33313e-06
-2.20373e-06
4.57519e-06
5.52886e-08
-1.60323e-06
2.75517e-06
-1.30449e-07
-9.19406e-07
1.83536e-06
-3.32228e-06
-1.20858e-06
3.50397e-06
-3.38908e-06
-1.032e-06
3.14585e-06
-1.87226e-07
1.03401e-06
-3.22163e-06
2.65228e-06
-2.26417e-06
1.34795e-06
-2.56922e-06
1.67253e-06
-3.0007e-06
3.07453e-06
-7.37581e-08
-2.96111e-06
4.8013e-06
-2.12771e-06
-2.83871e-06
5.35054e-06
-3.92223e-06
-2.47954e-06
3.8371e-06
-3.77889e-06
-1.50826e-06
1.8406e-06
-8.46331e-07
7.24721e-07
-3.42009e-06
1.77204e-06
7.79517e-07
-2.0811e-06
-2.33195e-06
8.1594e-07
1.43441e-06
-2.69337e-06
-6.47658e-07
2.40415e-06
-2.56354e-06
-2.2695e-06
2.67187e-06
-2.4126e-06
-3.2311e-06
1.64582e-06
-2.21569e-06
-3.36603e-06
8.44204e-07
-1.72213e-06
5.75448e-07
-3.2485e-06
-1.2736e-06
9.61791e-07
2.5854e-06
1.41801e-06
-1.56286e-06
-2.67947e-06
6.25845e-08
2.82696e-06
1.96731e-06
-2.64939e-06
-8.55964e-07
2.48267e-06
2.70499e-06
-2.37374e-06
-1.64633e-06
2.06926e-06
2.87119e-06
-2.18371e-06
-2.19763e-06
2.32215e-06
1.83313e-06
-2.50292e-06
-2.63026e-06
2.2475e-06
1.37228e-06
-2.51444e-06
1.93429e-06
1.25993e-06
-2.88322e-06
-2.38397e-06
1.42804e-06
2.18559e-06
1.99092e-06
-1.81849e-06
6.16256e-07
2.6671e-06
3.58049e-06
-7.30362e-07
1.73024e-06
5.12198e-06
-2.08101e-06
7.4178e-07
5.04421e-06
-2.94621e-06
2.00368e-06
3.82207e-06
-3.09733e-06
1.95029e-06
1.86937e-06
1.28959e-06
1.32503e-06
-3.14854e-06
2.04085e-06
1.11255e-06
3.11766e-06
-2.0226e-06
7.30066e-07
1.00019e-06
4.93793e-06
-9.99307e-08
5.54094e-08
2.54429e-06
-2.55605e-07
4.84205e-08
1.44855e-06
-3.33163e-06
3.68378e-07
4.53785e-06
-3.07462e-06
1.14936e-06
3.05874e-06
7.18577e-07
1.48816e-06
-3.16999e-06
1.82762e-06
-1.34842e-07
4.08825e-06
-1.91011e-06
4.2196e-07
-3.2246e-07
5.96801e-06
-1.04658e-07
-5.21782e-08
1.52987e-06
-3.7093e-07
1.9503e-08
1.10879e-06
-3.43866e-06
-1.40216e-07
3.79458e-06
-3.00131e-06
1.15408e-07
4.15506e-06
2.54265e-07
1.7067e-06
-3.16053e-06
2.05073e-06
-1.26681e-06
3.43124e-06
-2.06724e-06
7.60744e-07
-1.67373e-06
5.25527e-06
6.65445e-09
-1.0099e-06
1.85896e-06
-3.45169e-08
-2.87523e-07
1.10113e-06
-2.73306e-06
-1.0401e-06
3.40453e-06
-3.04966e-06
-8.28829e-07
3.73551e-06
-2.28238e-07
1.6585e-06
-3.19176e-06
1.99966e-06
-1.95646e-06
2.23613e-06
-2.19842e-06
1.14107e-06
-2.32815e-06
4.07704e-06
-2.97891e-07
-2.1019e-06
5.29039e-06
-1.62601e-06
-1.72668e-06
4.79341e-06
-3.3445e-06
-1.73743e-06
4.6218e-06
-3.43219e-06
-1.30397e-06
2.40328e-06
-9.32802e-07
1.39893e-06
-3.402e-06
1.50065e-06
1.51971e-06
-2.00255e-06
-2.19494e-06
5.58228e-07
2.30971e-06
-2.26093e-06
-6.64041e-07
3.47292e-06
-1.94876e-06
-1.90446e-06
3.85321e-06
-1.66775e-06
-2.7377e-06
2.5275e-06
-1.78601e-06
-3.11423e-06
1.55556e-06
-1.63911e-06
1.2835e-06
-3.27755e-06
-1.47767e-06
9.62521e-07
2.25318e-06
2.96517e-06
-1.90503e-06
-2.8579e-06
1.67839e-08
1.95384e-06
3.39557e-06
-2.43675e-06
-6.47559e-07
1.1176e-06
4.02915e-06
-1.77734e-06
-9.91732e-07
5.65881e-07
4.19352e-06
-1.54432e-06
-1.61052e-06
1.46262e-06
3.32044e-06
-2.33148e-06
-2.41273e-06
2.09394e-06
2.94547e-06
-2.86513e-06
2.28964e-06
2.81574e-06
-3.15053e-06
-3.1079e-06
6.96052e-07
1.60899e-06
3.46803e-06
-1.52931e-06
-5.56286e-08
1.46853e-06
4.81701e-06
-7.24907e-07
6.09132e-07
5.78267e-06
-1.44184e-06
6.23814e-08
5.27559e-06
-1.85505e-06
6.49751e-07
4.86527e-06
-2.53816e-06
1.36498e-06
3.28148e-06
1.43597e-06
2.89628e-06
-3.25605e-06
3.95516e-07
8.56205e-07
4.58454e-06
-1.10987e-06
2.89481e-08
4.34009e-07
5.56285e-06
-7.39921e-08
1.00203e-10
1.0646e-06
-1.99776e-07
-2.97003e-08
6.09106e-07
-1.49457e-06
1.77153e-07
5.03355e-06
-2.29478e-06
9.98998e-07
4.22455e-06
7.82912e-07
3.02549e-06
-3.17928e-06
-1.30422e-07
8.46795e-08
5.61299e-06
-6.41172e-07
-2.18746e-07
1.07522e-07
5.05954e-06
-1.67749e-07
4.16879e-08
6.19741e-07
-3.3928e-07
3.06816e-08
1.05e-06
-2.21393e-06
-2.64419e-08
3.95371e-06
-2.36876e-06
2.02732e-07
5.10542e-06
1.44199e-07
3.17323e-06
-3.19694e-06
3.72144e-07
-7.33336e-07
4.9444e-06
-1.0674e-06
-1.16922e-08
-5.76889e-07
5.67736e-06
-1.22819e-07
-1.17684e-07
6.18402e-07
3.13991e-08
5.54191e-08
5.41162e-07
-1.3971e-06
9.05327e-09
3.22288e-06
-2.32389e-06
-2.94095e-07
4.72658e-06
-4.26717e-07
3.13162e-06
-3.2265e-06
9.83545e-07
-1.52223e-06
3.74384e-06
-1.70258e-06
2.018e-07
-1.19496e-06
5.44578e-06
-4.2983e-07
-4.40139e-07
5.54204e-06
-1.17868e-06
9.56719e-08
4.27991e-06
-2.16267e-06
-3.74095e-07
5.5743e-06
-2.84301e-06
-9.13657e-07
3.70288e-06
-1.26629e-06
2.94484e-06
-3.54971e-06
1.26016e-06
3.07311e-06
-2.14917e-06
-2.18714e-06
2.66894e-07
3.7771e-06
-1.66914e-06
-6.51003e-07
4.8989e-06
-9.48688e-07
-1.44153e-06
5.21139e-06
-5.28704e-07
-2.09005e-06
3.94496e-06
-1.14338e-06
-2.84713e-06
3.09748e-06
-1.69889e-06
2.84415e-06
-3.52613e-06
-2.14826e-06
1.20863e-06
1.97182e-06
-2.37527e-06
-2.79358e-06
4.95339e-06
2.13505e-07
1.46898e-06
-2.3932e-06
5.3145e-06
-3.33961e-07
4.11673e-07
-1.66021e-06
5.82463e-06
-5.52425e-07
-4.98854e-08
-1.46256e-06
5.92409e-06
-1.26159e-06
1.21704e-06
-2.39912e-06
5.21129e-06
-2.19358e-06
2.10014e-06
-3.09223e-06
4.86903e-06
2.4426e-06
-3.12339e-06
-3.4143e-06
4.71693e-06
4.64192e-07
1.21506e-06
-1.66184e-06
5.42199e-06
-4.1776e-07
6.79738e-07
6.48756e-06
-6.39922e-07
-8.97175e-08
7.14364e-06
-8.20327e-07
-2.24213e-07
6.39926e-06
-1.28717e-06
1.71482e-07
6.37655e-06
-2.22253e-06
1.17703e-06
5.1397e-06
1.51483e-06
-3.20575e-06
4.80697e-06
-4.45786e-07
6.44154e-07
-7.96296e-07
6.39705e-06
-3.68173e-07
3.31226e-07
7.04968e-06
-2.14106e-08
2.15038e-08
9.09206e-07
-2.4528e-07
-5.30973e-08
5.55018e-07
-6.31303e-07
1.41425e-07
7.59866e-06
-1.93861e-06
8.38714e-07
5.86967e-06
7.88153e-07
-3.12268e-06
4.93583e-06
-9.98665e-07
1.56731e-07
-1.48953e-07
7.31014e-06
-2.54806e-07
2.10093e-07
5.3546e-06
-1.25856e-07
3.99607e-08
4.39476e-07
-8.56476e-08
4.79623e-08
6.97052e-07
-1.03025e-06
1.70679e-07
6.54053e-06
-1.99112e-06
2.65971e-07
6.63878e-06
4.17621e-08
-3.14047e-06
5.06853e-06
-5.21469e-07
-4.73032e-07
-6.62031e-07
6.75766e-06
-1.99836e-07
8.56213e-08
6.57195e-06
-6.58627e-08
1.61698e-07
3.85182e-07
-1.59092e-07
2.33099e-07
4.40441e-07
-7.80544e-07
4.59301e-07
5.69504e-06
-1.99262e-06
-1.14783e-07
6.3192e-06
-6.74948e-07
-3.17726e-06
5.03247e-06
5.5195e-07
-1.37136e-06
-1.63289e-06
5.72278e-06
-3.30852e-07
-6.56429e-07
7.12978e-06
-3.87592e-07
5.02196e-07
6.35115e-06
-8.51646e-07
9.73337e-07
4.63121e-06
-1.52206e-06
5.49146e-08
7.10236e-06
-2.46169e-06
-9.62638e-07
5.48999e-06
-1.67261e-06
-3.39439e-06
4.87487e-06
1.28211e-06
-2.3568e-06
-2.31355e-06
5.0893e-06
2.33277e-07
-1.55458e-06
5.72364e-06
-4.79021e-07
-5.3629e-07
6.64975e-06
-9.20601e-07
-1.0611e-07
6.84749e-06
-1.60015e-06
-1.08438e-06
5.76337e-06
-2.44401e-06
-2.05745e-06
5.03578e-06
-3.23546e-06
-2.81129e-06
4.77396e-06
-3.06909e-06
-2.20827e-07
1.33981e-07
4.66344e-07
-3.26563e-06
-4.08794e-07
1.4238e-07
4.61988e-07
-3.55459e-06
-2.73446e-07
1.43786e-07
4.2396e-07
-3.87555e-06
-2.10251e-07
1.35177e-07
3.9349e-07
-4.1896e-06
-1.79719e-07
1.18959e-07
3.74852e-07
-4.48804e-06
-1.57947e-07
9.56223e-08
3.63697e-07
-4.76911e-06
-1.38501e-07
6.63284e-08
3.54365e-07
-1.2263e-07
3.01543e-08
3.46652e-07
-5.02304e-06
-2.76203e-06
1.3025e-07
1.84817e-07
-3.2735e-06
-9.66653e-08
2.01118e-07
-3.6284e-06
-1.20222e-07
1.96755e-07
-3.97308e-06
-4.68151e-08
1.84294e-07
-4.29379e-06
-2.15809e-08
1.64762e-07
-4.58157e-06
-1.3887e-08
1.3876e-07
-4.82009e-06
-8.60867e-09
1.0649e-07
-1.32748e-09
6.94793e-08
-5.00896e-06
-2.73804e-06
2.0812e-07
2.03949e-07
-3.1136e-06
8.02076e-08
2.03349e-07
-3.55951e-06
1.04717e-07
2.20164e-07
-3.91659e-06
9.58341e-08
2.13297e-07
-4.24342e-06
1.1178e-07
1.93581e-07
-4.53125e-06
1.0727e-07
1.65888e-07
-4.76722e-06
9.67222e-08
1.31323e-07
9.17051e-08
9.12177e-08
-4.95151e-06
-2.62494e-06
2.36065e-07
2.35994e-07
-3.01932e-06
2.52593e-07
2.19104e-07
-3.41234e-06
2.73784e-07
2.23232e-07
-3.77831e-06
2.4356e-07
2.18542e-07
-4.07443e-06
2.1276e-07
1.95873e-07
-4.33107e-06
1.99343e-07
1.64569e-07
-4.56058e-06
1.96803e-07
1.29453e-07
1.89064e-07
8.99737e-08
-4.74789e-06
-2.65523e-06
3.11088e-07
2.12694e-07
-3.11043e-06
5.04633e-07
2.0452e-07
-3.50124e-06
4.52941e-07
2.0935e-07
-3.8801e-06
4.15511e-07
2.04334e-07
-4.23599e-06
3.87878e-07
1.82994e-07
-4.55669e-06
3.67746e-07
1.52358e-07
-4.81726e-06
3.43734e-07
1.1369e-07
3.2016e-07
6.92362e-08
-5.01751e-06
-2.93234e-06
5.9076e-07
1.80065e-07
-3.32631e-06
7.08815e-07
1.89736e-07
-3.68641e-06
6.2338e-07
1.89909e-07
-4.0173e-06
5.68958e-07
1.78375e-07
-4.31593e-06
5.27818e-07
1.58178e-07
-4.57719e-06
4.9912e-07
1.29139e-07
-4.79647e-06
4.70602e-07
9.32519e-08
4.49891e-07
4.97511e-08
-4.97574e-06
-3.02328e-06
1.31555e-07
7.79536e-07
-3.26464e-06
1.46764e-07
8.03291e-07
-3.51776e-06
1.49601e-07
7.25024e-07
-3.79063e-06
1.42102e-07
6.98578e-07
-4.06921e-06
1.25795e-07
6.82431e-07
-4.34642e-06
1.01538e-07
6.77014e-07
-4.61357e-06
6.98283e-08
6.67083e-07
2.89519e-08
6.70519e-07
-4.86409e-06
-3.3866e-06
-1.04723e-07
3.15018e-07
3.99145e-07
-3.83924e-06
-1.05055e-07
3.41077e-07
3.58959e-07
-4.27237e-06
-8.82574e-08
3.42144e-07
3.23076e-07
-4.67729e-06
-7.2805e-08
3.19318e-07
2.93534e-07
-5.04117e-06
-6.11899e-08
2.75401e-07
2.68548e-07
-5.35411e-06
-5.2535e-08
2.14379e-07
2.46731e-07
-5.61025e-06
-4.58321e-08
1.41297e-07
2.27062e-07
-4.02657e-08
5.85718e-08
2.09032e-07
-5.8074e-06
-3.59728e-06
6.70715e-08
4.16954e-07
-4.01787e-06
7.22512e-08
4.44777e-07
-4.432e-06
7.58424e-08
4.46725e-07
-4.82037e-06
7.96141e-08
4.2013e-07
-5.1636e-06
7.93193e-08
3.67508e-07
-5.44737e-06
7.60928e-08
2.93925e-07
-5.66432e-06
7.14682e-08
2.06106e-07
6.63865e-08
1.08872e-07
-5.81037e-06
-3.61207e-06
2.32079e-07
4.74277e-07
-4.06019e-06
2.19278e-07
5.04484e-07
-4.48685e-06
2.08883e-07
5.1388e-07
-4.87834e-06
1.95663e-07
4.88606e-07
-5.21844e-06
1.81529e-07
4.31385e-07
-5.49191e-06
1.66854e-07
3.48488e-07
-5.69019e-06
1.52361e-07
2.4864e-07
1.38765e-07
1.38664e-07
-5.81009e-06
-3.58523e-06
4.51792e-07
5.09404e-07
-4.05582e-06
3.86974e-07
5.22081e-07
-4.50034e-06
3.46344e-07
5.30326e-07
-4.9023e-06
3.1274e-07
5.03333e-07
-5.24991e-06
2.83168e-07
4.41779e-07
-5.52911e-06
2.5738e-07
3.53229e-07
-5.72951e-06
2.35131e-07
2.47083e-07
2.15558e-07
1.29773e-07
-5.84609e-06
-3.66643e-06
6.27257e-07
4.82224e-07
-4.10788e-06
5.41434e-07
4.91339e-07
-4.53162e-06
4.8361e-07
4.95785e-07
-4.91964e-06
4.3738e-07
4.67435e-07
-5.25739e-06
3.97511e-07
4.06285e-07
-5.52959e-06
3.62972e-07
3.18935e-07
-5.72816e-06
3.32594e-07
2.14831e-07
3.05535e-07
9.99539e-08
-5.84879e-06
-3.74752e-06
7.25365e-07
4.09304e-07
-4.12971e-06
6.83778e-07
4.29608e-07
-4.51691e-06
6.32208e-07
4.28494e-07
-4.88406e-06
5.85187e-07
3.97791e-07
-5.21107e-06
5.43203e-07
3.39582e-07
-5.48386e-06
5.0538e-07
2.59559e-07
-5.69371e-06
4.707e-07
1.65059e-07
4.38119e-07
5.91675e-08
-5.83565e-06
-3.61555e-06
3.16371e-07
9.0747e-07
-3.9811e-06
3.44155e-07
8.51864e-07
-4.3446e-06
3.46089e-07
7.99117e-07
-4.69468e-06
3.2175e-07
7.5559e-07
-5.01617e-06
2.74151e-07
7.16374e-07
-5.29698e-06
2.07848e-07
6.79969e-07
-5.53006e-06
1.28642e-07
6.45066e-07
3.76285e-08
6.10941e-07
-5.7115e-06
-3.60669e-06
1.00569e-07
7.38068e-07
1.99678e-07
-4.3306e-06
9.96299e-08
8.16589e-07
1.48662e-07
-5.06295e-06
1.15052e-07
8.50496e-07
1.08869e-07
-5.78743e-06
1.266e-07
8.40077e-07
7.70387e-08
-6.4823e-06
1.32067e-07
7.86111e-07
5.20301e-08
-7.12293e-06
1.32715e-07
6.89331e-07
3.29054e-08
-7.68121e-06
1.3008e-07
5.50653e-07
1.88145e-08
1.25578e-07
3.7509e-07
9.04406e-09
-8.13238e-06
-3.80574e-06
2.19054e-07
9.55375e-07
-4.51443e-06
2.19368e-07
1.03358e-06
-5.23808e-06
2.2075e-07
1.06453e-06
-5.95157e-06
2.16537e-07
1.04355e-06
-6.63032e-06
2.07495e-07
9.70724e-07
-7.24603e-06
1.95423e-07
8.46837e-07
-7.76449e-06
1.81692e-07
6.72896e-07
1.67205e-07
4.55065e-07
-8.15236e-06
-3.86354e-06
2.89488e-07
1.09726e-06
-4.58599e-06
2.73569e-07
1.17259e-06
-5.31546e-06
2.57629e-07
1.20633e-06
-6.03014e-06
2.38129e-07
1.18157e-06
-6.70499e-06
2.16542e-07
1.09709e-06
-7.31005e-06
1.94858e-07
9.54027e-07
-7.80782e-06
1.74125e-07
7.53897e-07
1.54726e-07
5.04078e-07
-8.16082e-06
-3.88307e-06
3.71144e-07
1.15015e-06
-4.62147e-06
3.20891e-07
1.21304e-06
-5.35914e-06
2.79925e-07
1.2456e-06
-6.07713e-06
2.41147e-07
1.2182e-06
-6.75187e-06
2.05167e-07
1.12782e-06
-7.35326e-06
1.73367e-07
9.76067e-07
-7.84318e-06
1.46136e-07
7.64961e-07
1.23164e-07
5.02618e-07
-8.18449e-06
-3.92364e-06
4.89441e-07
1.0957e-06
-4.66423e-06
4.01161e-07
1.15146e-06
-5.39897e-06
3.32801e-07
1.17748e-06
-6.11215e-06
2.75407e-07
1.14623e-06
-6.78243e-06
2.26862e-07
1.05477e-06
-7.38159e-06
1.86665e-07
9.04723e-07
-7.87333e-06
1.54215e-07
6.98439e-07
1.28601e-07
4.4431e-07
-8.22316e-06
-4.01792e-06
5.72513e-07
9.41986e-07
-4.70523e-06
5.14385e-07
1.0036e-06
-5.40947e-06
4.42291e-07
1.02316e-06
-6.10479e-06
3.78475e-07
9.90011e-07
-6.76698e-06
3.24607e-07
9.04008e-07
-7.36728e-06
2.80005e-07
7.66518e-07
-7.87147e-06
2.43543e-07
5.79912e-07
2.1405e-07
3.52359e-07
-8.25014e-06
-3.91088e-06
7.33117e-07
7.88944e-07
-4.56397e-06
8.04292e-07
7.07213e-07
-5.24243e-06
8.29274e-07
6.37447e-07
-5.92608e-06
8.07096e-07
5.76676e-07
-6.5897e-06
7.39171e-07
5.23132e-07
-7.20494e-06
6.27147e-07
4.75917e-07
-7.74047e-06
4.73325e-07
4.34382e-07
2.84875e-07
3.98161e-07
-8.17184e-06
-4.39652e-06
3.34477e-07
1.67184e-06
-2.25737e-08
-5.74194e-06
3.57173e-07
1.87929e-06
-7.48616e-08
-7.14643e-06
3.78662e-07
1.98683e-06
-1.1069e-07
-8.52755e-06
3.85618e-07
1.97182e-06
-1.36383e-07
-9.77842e-06
3.80096e-07
1.81073e-06
-1.53996e-07
-1.07788e-05
3.65576e-07
1.48963e-06
-1.65621e-07
-1.14124e-05
3.44684e-07
1.01216e-06
-1.72754e-07
3.19862e-07
3.94585e-07
-1.75716e-07
-1.15761e-05
-4.50168e-06
3.91289e-07
2.14392e-06
-5.87078e-06
4.09702e-07
2.34976e-06
-7.30011e-06
4.17572e-07
2.45476e-06
-8.70765e-06
4.10607e-07
2.42599e-06
-9.98095e-06
3.93008e-07
2.23102e-06
-1.09838e-05
3.67841e-07
1.84731e-06
-1.15755e-05
3.36951e-07
1.27226e-06
3.0172e-07
5.18285e-07
-1.16206e-05
-4.49071e-06
3.51624e-07
2.44814e-06
-5.89622e-06
3.34397e-07
2.65311e-06
-7.35284e-06
3.17086e-07
2.76325e-06
-8.78623e-06
2.92822e-07
2.73262e-06
-1.00823e-05
2.65166e-07
2.52087e-06
-1.10949e-05
2.36544e-07
2.09791e-06
-1.16673e-05
2.07816e-07
1.45539e-06
1.79309e-07
6.02331e-07
-1.16432e-05
-4.52157e-06
2.70859e-07
2.5551e-06
-5.94088e-06
2.15559e-07
2.75089e-06
-7.40499e-06
1.65131e-07
2.86143e-06
-8.84283e-06
1.19064e-07
2.82967e-06
-1.01407e-05
7.94676e-08
2.61131e-06
-1.11506e-05
4.92151e-08
2.17313e-06
-1.17106e-05
2.82431e-08
1.50449e-06
1.54327e-08
6.14012e-07
-1.16583e-05
-4.5836e-06
2.77659e-07
2.44561e-06
-6.00891e-06
1.58326e-07
2.63385e-06
-7.46607e-06
6.4193e-08
2.73544e-06
-8.89048e-06
-7.53208e-09
2.69718e-06
-1.0174e-05
-5.97755e-08
2.47748e-06
-1.11723e-05
-9.40831e-08
2.04627e-06
-1.17288e-05
-1.12642e-07
1.39566e-06
-1.18176e-07
5.3799e-07
-1.1689e-05
-4.7681e-06
3.06532e-07
2.13128e-06
-6.11505e-06
1.87714e-07
2.32093e-06
-7.51877e-06
7.82365e-08
2.41268e-06
-8.89924e-06
-6.99699e-09
2.36978e-06
-1.01515e-05
-6.31872e-08
2.15959e-06
-1.11351e-05
-1.03898e-07
1.75979e-06
-1.17053e-05
-1.31474e-07
1.16883e-06
-1.49826e-07
4.05438e-07
-1.17268e-05
-4.69589e-06
1.66661e-06
5.42623e-07
-5.98475e-06
1.86578e-06
4.14899e-07
-7.35122e-06
1.96395e-06
3.09951e-07
-8.71014e-06
1.93724e-06
2.21612e-07
-9.94528e-06
1.76185e-06
1.49159e-07
-1.0934e-05
1.42333e-06
8.85479e-08
-1.15557e-05
9.26316e-07
3.70739e-08
2.94594e-07
-7.64835e-09
-1.17076e-05
-4.55123e-06
4.61123e-07
-1.71771e-07
2.8099e-06
-6.19502e-06
5.02522e-07
-2.15009e-07
3.23525e-06
-8.0421e-06
5.23814e-07
-2.38913e-07
3.54884e-06
-1.00605e-05
5.27069e-07
-2.51004e-07
3.71399e-06
-1.22201e-05
5.20504e-07
-2.53144e-07
3.70277e-06
-1.44902e-05
5.07381e-07
-2.47559e-07
3.49982e-06
-1.68348e-05
4.81815e-07
-2.36486e-07
3.11136e-06
4.39716e-07
-2.21576e-07
-1.9282e-05
2.62363e-06
-4.65835e-06
4.68286e-07
3.58898e-06
-6.30557e-06
4.88749e-07
4.01042e-06
-8.1404e-06
4.91924e-07
4.32137e-06
-1.01423e-05
4.8039e-07
4.47446e-06
-1.22803e-05
4.62027e-07
4.42742e-06
-1.45154e-05
4.39946e-07
4.14965e-06
-1.68137e-05
4.11635e-07
3.64068e-06
3.72386e-07
-1.92391e-05
3.01098e-06
-4.63911e-06
3.37826e-07
4.09478e-06
-6.30928e-06
3.00832e-07
4.51099e-06
-8.14431e-06
2.6207e-07
4.82801e-06
-1.01365e-05
2.20322e-07
4.9848e-06
-1.22615e-05
1.82647e-07
4.92513e-06
-1.44802e-05
1.52276e-07
4.60415e-06
-1.67554e-05
1.29078e-07
4.01312e-06
1.10438e-07
-1.91712e-05
3.28008e-06
-4.66417e-06
1.36802e-07
4.27947e-06
-6.32968e-06
3.21957e-08
4.68481e-06
-8.14719e-06
-6.12365e-08
5.00203e-06
-1.01173e-05
-1.40369e-07
5.16035e-06
-1.22206e-05
-2.00012e-07
5.09716e-06
-1.44201e-05
-2.3671e-07
4.76148e-06
-1.66779e-05
-2.4914e-07
4.14044e-06
-2.37261e-07
-1.90848e-05
3.3685e-06
-4.68872e-06
-1.34894e-08
4.10703e-06
-6.33976e-06
-1.91184e-07
4.50819e-06
-8.14008e-06
-3.42498e-07
4.8169e-06
-1.00924e-05
-4.59038e-07
4.96804e-06
-1.21782e-05
-5.41068e-07
4.90436e-06
-1.43623e-05
-5.87061e-07
4.58058e-06
-1.66085e-05
-5.93972e-07
3.98659e-06
-5.59016e-07
-1.89985e-05
3.24972e-06
-4.77443e-06
-9.83383e-08
3.59598e-06
-6.3523e-06
-2.96391e-07
4.00376e-06
-8.11707e-06
-4.70556e-07
4.30533e-06
-1.00496e-05
-6.08348e-07
4.45148e-06
-1.21212e-05
-7.08997e-07
4.39892e-06
-1.42943e-05
-7.70853e-07
4.11656e-06
-1.65359e-05
-7.8557e-07
3.60206e-06
-7.48199e-07
-1.89074e-05
2.96606e-06
-4.56311e-06
7.43457e-08
2.82138e-06
-6.1162e-06
-1.21639e-07
3.24387e-06
-7.89016e-06
-2.89266e-07
3.55653e-06
-9.85063e-06
-4.30754e-07
3.72081e-06
-1.19622e-05
-5.41954e-07
3.70708e-06
-1.419e-05
-6.18073e-07
3.49906e-06
-1.64943e-05
-6.58422e-07
3.10163e-06
-6.59593e-07
-1.88912e-05
2.60278e-06
-2.04851e-06
2.81537e-07
1.82715e-07
-1.62191e-07
-2.31283e-06
2.51684e-07
1.88426e-07
-1.75225e-07
-2.65274e-06
2.87224e-07
1.83283e-07
-1.28735e-07
-3.04083e-06
3.09743e-07
1.6769e-07
-9.17287e-08
-3.43454e-06
3.2307e-07
1.41722e-07
-7.17451e-08
-3.81159e-06
3.28953e-07
1.06919e-07
-5.78894e-08
-4.16669e-06
3.39639e-07
6.31445e-08
-4.74381e-08
3.50942e-07
1.06426e-08
-4.01221e-08
-4.48683e-06
-2.13798e-06
2.69336e-07
2.9901e-07
-2.29754e-06
1.3067e-07
2.8043e-07
-2.49459e-06
2.02226e-07
2.81831e-07
-2.69995e-06
2.40361e-07
2.74819e-07
-2.89274e-06
2.57099e-07
2.59243e-07
-3.08041e-06
2.80918e-07
2.35234e-07
-3.24876e-06
2.98808e-07
2.08705e-07
3.35251e-07
1.76712e-07
-3.40905e-06
-2.14121e-06
-4.05858e-08
4.39714e-07
-2.28004e-06
-9.86485e-08
3.66387e-07
-2.34783e-06
-9.85845e-08
3.66159e-07
-2.4178e-06
-6.37567e-08
3.75888e-07
-2.49761e-06
-4.00776e-08
3.76929e-07
-2.58708e-06
-6.56637e-09
3.76979e-07
-2.67741e-06
1.88309e-08
3.70266e-07
5.26526e-08
3.68919e-07
-2.76371e-06
-2.38183e-06
-5.13123e-07
5.26393e-07
-2.53003e-06
-3.48152e-07
3.9633e-07
-2.57159e-06
-4.56233e-07
3.98264e-07
-2.65225e-06
-4.06561e-07
4.25262e-07
-2.73171e-06
-4.08196e-07
4.48781e-07
-2.79028e-06
-4.09745e-07
4.61988e-07
-2.81149e-06
-4.26564e-07
4.66169e-07
-4.51559e-07
4.65056e-07
-2.77278e-06
-1.91415e-06
-9.5196e-07
4.13398e-07
-2.06595e-06
-5.12458e-07
3.15969e-07
-2.29099e-06
-5.68456e-07
3.37815e-07
-2.42495e-06
-6.07771e-07
3.34737e-07
-2.55126e-06
-6.13743e-07
3.31069e-07
-2.67293e-06
-6.08469e-07
3.19786e-07
-2.81432e-06
-5.88356e-07
3.03154e-07
-5.78002e-07
2.80146e-07
-2.96736e-06
-1.99183e-06
-8.05774e-07
2.85271e-07
-2.19724e-06
-5.65914e-07
2.55686e-07
-2.46421e-06
-5.67737e-07
2.68218e-07
-2.74821e-06
-5.8024e-07
2.57483e-07
-3.01956e-06
-5.83939e-07
2.41647e-07
-3.2489e-06
-5.94864e-07
2.15815e-07
-3.43927e-06
-5.79141e-07
1.8141e-07
-5.71194e-07
1.47076e-07
-3.59241e-06
-1.86827e-06
1.85469e-07
-5.13111e-07
-2.19172e-06
1.89295e-07
-4.32045e-07
-2.59097e-06
1.90959e-07
-3.60675e-07
-3.02255e-06
1.7931e-07
-3.27558e-07
-3.45099e-06
1.58311e-07
-3.11634e-07
-3.87029e-06
1.29582e-07
-3.0498e-07
-4.24599e-06
9.43199e-08
-2.97746e-07
5.18992e-08
-2.90644e-07
-4.57774e-06
-2.4901e-06
3.33996e-07
3.82404e-07
-1.24596e-07
-2.89666e-06
2.89014e-07
4.03151e-07
-9.70704e-08
-3.31114e-06
2.68531e-07
4.03469e-07
-7.39355e-08
-3.72104e-06
2.60147e-07
3.73868e-07
-5.63771e-08
-4.11028e-06
2.58077e-07
3.16049e-07
-4.32039e-08
-4.46322e-06
2.5767e-07
2.35354e-07
-3.30896e-08
-4.77075e-06
2.5691e-07
1.39123e-07
-2.52495e-08
2.55678e-07
2.99613e-08
-1.91809e-08
-5.02646e-06
-2.74236e-06
2.02461e-07
6.03657e-07
-2.94176e-06
1.82513e-07
5.86364e-07
-3.18441e-06
1.87348e-07
6.05623e-07
-3.45169e-06
1.98282e-07
6.03632e-07
-3.72263e-06
2.16998e-07
5.71133e-07
-3.97827e-06
2.38802e-07
5.09757e-07
-4.1993e-06
2.60616e-07
4.26055e-07
2.80842e-07
3.30197e-07
-4.37788e-06
-2.76183e-06
-2.01109e-07
9.52325e-07
-2.81423e-06
-1.75038e-07
7.76692e-07
-2.91072e-06
-1.53623e-07
8.03365e-07
-3.04463e-06
-1.31683e-07
8.39775e-07
-3.19262e-06
-1.0838e-07
8.50098e-07
-3.32322e-06
-8.25963e-08
8.2885e-07
-3.41499e-06
-5.67882e-08
7.79373e-07
-3.12314e-08
7.11435e-07
-3.44558e-06
-2.74723e-06
-6.26274e-07
1.09439e-06
-2.78958e-06
-5.59679e-07
8.23408e-07
-2.86724e-06
-5.31807e-07
8.54011e-07
-2.97214e-06
-5.07889e-07
9.06212e-07
-3.07348e-06
-4.93332e-07
9.35042e-07
-3.14533e-06
-4.83114e-07
9.34415e-07
-3.16784e-06
-4.75829e-07
9.07828e-07
-4.70002e-07
8.6421e-07
-3.12817e-06
-2.66177e-06
-9.08346e-07
8.21837e-07
-2.7959e-06
-8.15509e-07
7.05759e-07
-2.96161e-06
-7.68528e-07
7.40329e-07
-3.1552e-06
-7.43848e-07
7.64233e-07
-3.3507e-06
-7.26259e-07
7.59332e-07
-3.52508e-06
-7.12354e-07
7.23325e-07
-3.66019e-06
-7.00156e-07
6.62542e-07
-6.88855e-07
5.86721e-07
-3.74782e-06
-2.45838e-06
-8.7234e-07
5.49988e-07
-2.7944e-06
-7.76792e-07
5.52598e-07
-3.14079e-06
-7.24083e-07
5.70178e-07
-3.49471e-06
-6.92543e-07
5.60158e-07
-3.8323e-06
-6.66671e-07
5.19679e-07
-4.13648e-06
-6.44054e-07
4.51741e-07
-4.39695e-06
-6.22506e-07
3.64319e-07
-6.01463e-07
2.66923e-07
-4.60411e-06
-2.14739e-06
3.75173e-07
-5.32233e-07
-2.65521e-06
4.03063e-07
-4.82921e-07
-3.15234e-06
4.07263e-07
-4.43259e-07
-3.63474e-06
3.81737e-07
-4.12671e-07
-4.08521e-06
3.29608e-07
-3.87469e-07
-4.48957e-06
2.55936e-07
-3.65972e-07
-4.83851e-06
1.67704e-07
-3.46839e-07
7.10009e-08
-3.29314e-07
-5.12966e-06
-2.68143e-06
3.49956e-07
7.98534e-07
-8.75424e-08
-3.37667e-06
2.9774e-07
8.62405e-07
-6.17203e-08
-4.09628e-06
2.78854e-07
8.90166e-07
-4.59802e-08
-4.81917e-06
2.65419e-07
8.66856e-07
-3.56505e-08
-5.5201e-06
2.52543e-07
7.92588e-07
-2.82565e-08
-6.1708e-06
2.38422e-07
6.70408e-07
-2.2855e-08
-6.74013e-06
2.2307e-07
5.04218e-07
-1.8878e-08
2.0734e-07
3.02789e-07
-1.58772e-08
-7.20444e-06
-2.65057e-06
2.29585e-07
1.17596e-06
-3.17888e-06
2.24887e-07
1.1874e-06
-3.76154e-06
2.26773e-07
1.24006e-06
-4.37305e-06
2.28931e-07
1.2515e-06
-4.98887e-06
2.342e-07
1.20522e-06
-5.57851e-06
2.38855e-07
1.09893e-06
-6.1039e-06
2.41076e-07
9.33418e-07
2.40744e-07
7.15942e-07
-6.52306e-06
-2.40022e-06
-1.72978e-07
1.68771e-06
-2.75586e-06
-1.43089e-07
1.50029e-06
-3.17899e-06
-1.12425e-07
1.56561e-06
-3.6532e-06
-8.81538e-08
1.63105e-06
-4.14651e-06
-6.43331e-08
1.64181e-06
-4.62375e-06
-4.10982e-08
1.58595e-06
-5.04407e-06
-1.96449e-08
1.46018e-06
8.77154e-10
1.27143e-06
-5.36427e-06
-2.28282e-06
-6.41185e-07
1.93508e-06
-2.61293e-06
-5.90679e-07
1.60103e-06
-2.9978e-06
-5.43571e-07
1.66989e-06
-3.43502e-06
-5.06235e-07
1.76139e-06
-3.89111e-06
-4.74458e-07
1.80119e-06
-4.32788e-06
-4.43799e-07
1.77387e-06
-4.70045e-06
-4.1378e-07
1.6745e-06
-3.85051e-07
1.5078e-06
-4.95814e-06
-2.41377e-06
-9.54701e-07
1.52619e-06
-2.8524e-06
-8.67874e-07
1.42147e-06
-3.34658e-06
-8.09662e-07
1.50046e-06
-3.88132e-06
-7.65465e-07
1.55806e-06
-4.42891e-06
-7.25881e-07
1.55824e-06
-4.95597e-06
-6.86964e-07
1.49351e-06
-5.42089e-06
-6.48111e-07
1.36176e-06
-6.09809e-07
1.16966e-06
-5.77912e-06
-2.42885e-06
-8.98851e-07
1.1044e-06
-3.09049e-06
-8.0351e-07
1.14968e-06
-3.77846e-06
-7.5525e-07
1.20361e-06
-4.47806e-06
-7.15705e-07
1.20993e-06
-5.16625e-06
-6.77475e-07
1.15945e-06
-5.81367e-06
-6.39143e-07
1.05134e-06
-6.38315e-06
-6.00722e-07
8.86411e-07
-5.62965e-07
6.71339e-07
-6.83444e-06
-2.3624e-06
7.86044e-07
-5.10513e-07
-3.15748e-06
8.60238e-07
-4.65793e-07
-3.96581e-06
8.9279e-07
-4.32591e-07
-4.76937e-06
8.753e-07
-4.0583e-07
-5.54341e-06
8.08695e-07
-3.82572e-07
-6.26064e-06
6.95331e-07
-3.61313e-07
-6.89053e-06
5.38064e-07
-3.41185e-07
3.44272e-07
-3.21703e-07
-7.40506e-06
-3.39805e-06
3.1989e-07
1.7405e-06
-1.34897e-08
-4.77327e-06
3.05371e-07
1.9325e-06
-5.15026e-10
-6.21948e-06
2.93195e-07
2.03525e-06
7.63812e-09
-7.64291e-06
2.64246e-07
2.01381e-06
1.20453e-08
-8.93111e-06
2.24025e-07
1.84202e-06
1.46527e-08
-9.95806e-06
1.77806e-07
1.50349e-06
1.59725e-08
-1.05995e-05
1.28981e-07
1.00017e-06
1.63915e-08
7.93437e-08
3.5343e-07
1.60428e-08
-1.07456e-05
-2.81882e-06
2.34518e-07
2.37705e-06
-4.12686e-06
2.72407e-07
2.52807e-06
-5.52955e-06
2.79867e-07
2.65575e-06
-6.9449e-06
2.68273e-07
2.66272e-06
-8.25983e-06
2.45012e-07
2.49918e-06
-9.33153e-06
2.14029e-07
2.13439e-06
-1.00067e-05
1.77984e-07
1.55957e-06
1.38772e-07
7.81584e-07
-1.01317e-05
-2.01704e-06
-1.58366e-07
3.02976e-06
-3.19341e-06
-7.69329e-08
3.02573e-06
-4.50691e-06
-2.2141e-08
3.18076e-06
-5.87156e-06
1.2932e-08
3.25104e-06
-7.17045e-06
3.90029e-08
3.14697e-06
-8.25056e-06
6.08648e-08
2.81909e-06
-8.93702e-06
7.72155e-08
2.24738e-06
8.74126e-08
1.42029e-06
-9.03458e-06
-1.63242e-06
-5.8022e-07
3.34754e-06
-2.80385e-06
-5.16335e-07
3.21155e-06
-4.09117e-06
-4.45316e-07
3.37999e-06
-5.42747e-06
-3.82326e-07
3.49284e-06
-6.70456e-06
-3.22018e-07
3.43933e-06
-7.76756e-06
-2.65237e-07
3.16293e-06
-8.43777e-06
-2.14819e-07
2.63663e-06
-1.71882e-07
1.82999e-06
-8.5008e-06
-2.17273e-06
-8.78361e-07
2.88653e-06
-3.42757e-06
-8.02945e-07
2.96278e-06
-4.78408e-06
-7.22403e-07
3.13379e-06
-6.17585e-06
-6.36647e-07
3.20409e-06
-7.49176e-06
-5.464e-07
3.09858e-06
-8.57945e-06
-4.56351e-07
2.77229e-06
-9.26864e-06
-3.69981e-07
2.20602e-06
-2.88891e-07
1.38663e-06
-9.36856e-06
-2.79866e-06
-8.1652e-07
2.3113e-06
-4.2106e-06
-7.40337e-07
2.49888e-06
-5.68988e-06
-6.73594e-07
2.63373e-06
-7.16393e-06
-5.9569e-07
2.64277e-06
-8.52191e-06
-5.11803e-07
2.48277e-06