/*--------------------------------*- C++ -*----------------------------------*\
| =========                 |                                                 |
| \\      /  F ield         | OpenFOAM: The Open Source CFD Toolbox           |
|  \\    /   O peration     | Version:  plus.master                           |
|   \\  /    A nd           | Web:      www.OpenFOAM.com                      |
|    \\/     M anipulation  |                                                 |
\*---------------------------------------------------------------------------*/
FoamFile
{
    version     2.0;
    format      ascii;
    class       surfaceScalarField;
    location    "9.6";
    object      phi;
}
// * * * * * * * * * * * * * * * * * * * * * * * * * * * * * * * * * * * * * //

dimensions      [0 3 -1 0 0 0 0];

internalField   nonuniform List<scalar> 
138768
(
6.62047e-07
2.0615e-06
4.34242e-07
-1.11684e-06
-2.09283e-06
3.21275e-07
1.24473e-06
7.7639e-07
-1.83811e-06
-8.71804e-07
1.83444e-06
1.178e-06
-2.02505e-06
-2.20283e-06
1.8844e-06
1.18364e-06
-1.95453e-06
-2.59739e-06
1.27469e-06
7.355e-07
-1.7155e-06
-2.40147e-06
6.37247e-07
4.51248e-07
-1.4309e-06
1.39564e-06
3.09748e-07
-2.56047e-06
-1.70332e-06
2.29312e-07
2.2649e-06
7.4465e-07
-1.18022e-06
1.20889e-06
3.33642e-06
2.46816e-06
-4.22405e-07
5.69433e-06
3.31095e-06
-3.11888e-06
6.41227e-06
3.70819e-06
-3.74297e-06
4.73984e-06
2.69846e-06
-1.47833e-06
2.2374e-06
1.67472e-06
1.38045e-06
4.11266e-07
-2.19067e-06
1.14674e-06
1.40236e-06
1.20436e-06
-1.54125e-06
4.18096e-06
2.06614e-06
3.77562e-06
2.20235e-06
4.24086e-06
8.97176e-06
-5.23622e-06
7.43947e-06
1.19509e-05
-5.83684e-06
3.85697e-06
7.0229e-06
-1.92238e-06
1.64926e-06
2.21324e-06
9.04947e-07
5.90049e-07
-2.24851e-06
1.95766e-06
-2.58314e-07
1.56488e-06
-2.01771e-06
6.29343e-06
-9.6674e-07
4.23664e-06
6.96855e-06
-3.20258e-06
1.23079e-05
-8.50154e-06
-5.96331e-06
3.44125e-05
-6.58004e-06
-2.45282e-06
9.92755e-06
-1.8826e-06
-3.31158e-07
2.82264e-06
1.65342e-07
8.02091e-07
-2.1954e-06
1.58512e-06
-1.57381e-06
1.30274e-06
-1.78675e-06
4.95377e-06
-2.511e-06
3.71514e-06
3.03068e-06
-5.1135e-06
9.37341e-06
-5.05586e-06
-6.23875e-06
1.39016e-05
-6.08974e-06
-3.9904e-06
8.11116e-06
-2.01612e-06
-1.36561e-06
2.50046e-06
-6.24939e-07
7.35705e-07
-2.28087e-06
6.80207e-07
-1.59674e-06
7.95575e-07
-1.54179e-06
1.98821e-06
-9.40969e-07
2.66137e-06
2.10415e-07
-1.59059e-06
3.79432e-06
-3.06592e-06
-1.86726e-06
4.44448e-06
-4.18832e-06
-8.41443e-07
3.51306e-06
-1.66582e-06
-1.70433e-07
1.822e-06
-6.74457e-07
4.81791e-07
-2.37552e-06
1.09587e-06
4.51141e-07
-1.54191e-06
-1.8234e-06
8.4517e-07
8.37781e-07
-1.64133e-06
-6.26255e-07
1.38742e-06
-1.73797e-06
-2.46614e-06
1.51681e-06
-1.78129e-06
-2.97837e-06
9.9426e-07
-1.33608e-06
-2.65351e-06
5.56315e-07
-1.05245e-06
3.15925e-07
-2.74082e-06
-1.20504e-06
1.05388e-06
2.74776e-06
8.0501e-07
-1.53135e-06
-2.64118e-06
1.45622e-07
3.15305e-06
1.33806e-06
-2.80617e-06
-9.77166e-07
2.97144e-06
2.00603e-06
-2.6765e-06
-2.03172e-06
2.72132e-06
2.06258e-06
-2.54549e-06
-2.59573e-06
2.60271e-06
1.20802e-06
-2.51107e-06
-2.81807e-06
2.1623e-06
7.66581e-07
-2.25513e-06
1.6491e-06
6.30648e-07
-2.83599e-06
-1.95196e-06
1.78603e-06
2.41866e-06
1.29724e-06
-2.00923e-06
1.01927e-06
3.47339e-06
2.91484e-06
-7.53075e-07
3.26746e-06
4.7876e-06
-2.66116e-06
2.69567e-06
5.64251e-06
-3.60038e-06
2.95246e-06
3.28834e-06
-3.27015e-06
1.98083e-06
1.5263e-06
1.14323e-06
7.21106e-07
-3.07379e-06
2.50167e-06
1.32201e-06
2.15641e-06
-2.3569e-06
2.45702e-06
1.83817e-06
5.45578e-06
6.19948e-07
2.42572e-06
1.16511e-05
-3.08351e-06
1.52105e-06
1.68301e-05
-3.51484e-06
2.16842e-06
8.2398e-06
-3.15403e-06
1.21169e-06
2.62188e-06
7.00938e-07
9.25817e-07
-3.04716e-06
2.71307e-06
-2.30934e-07
2.85287e-06
-2.44792e-06
2.59233e-06
-6.88942e-07
6.88503e-06
2.36406e-07
-1.25857e-06
1.83491e-05
-3.37703e-06
3.41025e-07
3.92087e-05
-3.30944e-06
-8.19707e-07
1.28513e-05
-2.92068e-06
3.69032e-08
3.60904e-06
3.48225e-07
1.1919e-06
-2.95755e-06
2.69427e-06
-1.51114e-06
2.38055e-06
-2.49166e-06
2.67318e-06
-2.56995e-06
5.61776e-06
9.77571e-07
-2.91394e-06
1.27264e-05
-2.80051e-06
-2.49183e-06
2.05162e-05
-3.38924e-06
-2.28349e-06
1.01645e-05
-3.18011e-06
-8.86826e-07
3.21527e-06
-1.45883e-07
1.14026e-06
-3.0904e-06
2.4123e-06
-2.15553e-06
1.44678e-06
-2.41899e-06
1.90558e-06
-2.76328e-06
3.36189e-06
-1.83071e-07
-2.72673e-06
5.69628e-06
-2.78857e-06
-2.59296e-06
7.15169e-06
-3.90258e-06
-2.19609e-06
4.53987e-06
-3.58507e-06
-1.32691e-06
1.94476e-06
-7.66363e-07
8.17483e-07
-3.30009e-06
1.66193e-06
8.64213e-07
-1.99031e-06
-2.24018e-06
7.51829e-07
1.53046e-06
-2.54543e-06
-6.82622e-07
2.5038e-06
-2.40837e-06
-2.25379e-06
2.75047e-06
-2.2553e-06
-3.14747e-06
1.74016e-06
-2.04806e-06
-3.26573e-06
9.39195e-07
-1.59129e-06
6.52359e-07
-3.16995e-06
-1.19837e-06
1.1513e-06
2.80309e-06
1.45506e-06
-1.73785e-06
-2.86665e-06
2.15345e-07
3.17184e-06
2.00821e-06
-2.90552e-06
-8.18542e-07
3.00632e-06
2.76734e-06
-2.7341e-06
-1.77062e-06
2.68909e-06
2.90822e-06
-2.58225e-06
-2.39525e-06
2.75814e-06
1.88249e-06
-2.80753e-06
-2.81811e-06
2.49859e-06
1.41389e-06
-2.72273e-06
2.09418e-06
1.29166e-06
-3.04184e-06
-2.53105e-06
1.73101e-06
2.40189e-06
2.03313e-06
-2.06517e-06
9.2237e-07
3.24121e-06
3.65481e-06
-8.14725e-07
3.55901e-06
5.97251e-06
-2.46171e-06
2.94235e-06
7.03694e-06
-3.29034e-06
2.96939e-06
3.90637e-06
-3.37591e-06
2.18926e-06
1.92166e-06
1.43487e-06
1.36565e-06
-3.36078e-06
2.56213e-06
1.22475e-06
3.15657e-06
-2.38479e-06
2.61845e-06
1.68669e-06
6.95447e-06
-2.45233e-07
2.25842e-06
1.58164e-05
-3.02271e-06
8.50359e-07
2.17027e-05
-3.92981e-06
2.13378e-06
9.98459e-06
-3.49714e-06
1.26004e-06
3.11872e-06
7.83356e-07
1.53551e-06
-3.45497e-06
2.49559e-06
-2.05688e-07
4.12579e-06
-2.3377e-06
2.19841e-06
-5.93944e-07
9.46371e-06
-2.79001e-06
-9.61198e-07
2.65598e-05
-4.39315e-06
7.78561e-07
4.08877e-05
-4.09417e-06
-7.7197e-07
1.5462e-05
-3.46775e-06
4.88568e-08
4.19422e-06
2.25464e-07
1.75749e-06
-3.47508e-06
2.61764e-06
-1.4647e-06
3.47094e-06
-2.44861e-06
2.65648e-06
-2.38285e-06
7.36867e-06
-2.7608e-07
-3.09274e-06
1.77934e-05
-3.07653e-06
-2.5757e-06
2.66749e-05
-4.03037e-06
-2.40115e-06
1.2749e-05
-3.51558e-06
-1.05024e-06
3.79983e-06
-3.60521e-07
1.70807e-06
-3.49719e-06
2.33974e-06
-2.17365e-06
2.28159e-06
-2.46518e-06
1.72341e-06
-2.68276e-06
4.27909e-06
-3.50875e-07
-2.67681e-06
7.35594e-06
-2.67475e-06
-2.40332e-06
9.30427e-06
-3.7498e-06
-2.21347e-06
5.42754e-06
-3.74825e-06
-1.5612e-06
2.45436e-06
-1.09471e-06
1.43991e-06
-3.63621e-06
1.71257e-06
1.55764e-06
-2.19158e-06
-2.38757e-06
7.42491e-07
2.35277e-06
-2.5344e-06
-6.18869e-07
3.52101e-06
-2.33312e-06
-2.04544e-06
3.87408e-06
-2.10012e-06
-2.96237e-06
2.5653e-06
-2.12137e-06
-3.32265e-06
1.59771e-06
-1.85904e-06
1.317e-06
-3.45022e-06
-1.63143e-06
1.25473e-06
2.58658e-06
2.93347e-06
-2.17488e-06
-3.14482e-06
2.50571e-07
2.49182e-06
3.35842e-06
-2.83782e-06
-6.05878e-07
1.94889e-06
4.0027e-06
-2.33037e-06
-1.19683e-06
1.47813e-06
4.15081e-06
-2.12965e-06
-1.89603e-06
2.08369e-06
3.2817e-06
-2.78346e-06
-2.695e-06
2.48976e-06
2.91016e-06
-3.18688e-06
2.53317e-06
2.78691e-06
-3.39091e-06
-3.33227e-06
1.18884e-06
1.92144e-06
3.43284e-06
-1.92336e-06
3.56236e-07
2.16746e-06
4.81198e-06
-9.86828e-07
2.30995e-06
6.9545e-06
-1.93554e-06
1.4455e-06
8.01808e-06
-2.37056e-06
1.53393e-06
4.89133e-06
-2.97329e-06
1.77391e-06
3.24005e-06
1.64778e-06
2.86207e-06
-3.58437e-06
1.20037e-06
9.77846e-07
4.56057e-06
-1.66073e-06
1.13866e-06
1.05752e-06
8.12637e-06
-1.68692e-06
9.62898e-07
1.99904e-05
-2.58163e-06
6.24035e-09
2.40392e-05
-2.46499e-06
1.27726e-06
1.01283e-05
-2.93257e-06
1.15668e-06
4.20351e-06
8.70842e-07
2.98623e-06
-3.60639e-06
7.47693e-07
-1.62583e-08
5.63855e-06
-1.26628e-06
8.02496e-08
-1.15266e-07
1.13039e-05
-3.89936e-06
-7.77142e-07
3.22834e-05
-4.73907e-06
1.11106e-07
4.16222e-05
-3.1908e-06
-5.02119e-07
1.56963e-05
-3.06157e-06
1.11963e-07
5.10989e-06
9.86389e-08
3.13367e-06
-3.66539e-06
1.16006e-06
-1.01429e-06
4.92906e-06
-1.61989e-06
7.98647e-07
-1.23394e-06
8.84908e-06
-1.88538e-06
-1.46592e-06
2.11727e-05
-2.80065e-06
-8.15224e-07
2.85171e-05
-2.82727e-06
-8.81023e-07
1.31564e-05
-3.00079e-06
-6.64483e-07
4.74982e-06
-6.11816e-07
3.09299e-06
-3.67518e-06
1.50695e-06
-1.84567e-06
3.71638e-06
-2.11025e-06
7.54156e-07
-1.73142e-06
5.52933e-06
-7.54863e-07
-1.28529e-06
8.68695e-06
-2.12162e-06
-7.80374e-07
1.06373e-05
-2.79107e-06
-1.07905e-06
6.29518e-06
-3.33479e-06
-1.33164e-06
3.6653e-06
-1.51178e-06
2.90958e-06
-3.90449e-06
1.57832e-06
3.04341e-06
-2.43314e-06
-2.47628e-06
5.36899e-07
3.74823e-06
-2.08577e-06
-6.0204e-07
4.8861e-06
-1.51121e-06
-1.62498e-06
5.26301e-06
-1.14632e-06
-2.40752e-06
3.90629e-06
-1.63741e-06
-3.15976e-06
3.06157e-06
-2.04319e-06
2.81457e-06
-3.78664e-06
-2.38249e-06
1.39198e-06
2.19031e-06
-2.5489e-06
-2.9823e-06
4.88245e-06
3.54107e-07
1.81457e-06
-2.65586e-06
5.23729e-06
-3.1194e-07
9.05264e-07
-1.99772e-06
5.76105e-06
-6.8491e-07
4.63305e-07
-1.81904e-06
5.87943e-06
-1.44035e-06
1.58425e-06
-2.68115e-06
5.13427e-06
-2.37341e-06
2.34526e-06
-3.29804e-06
4.79611e-06
2.59787e-06
-3.27864e-06
-3.55932e-06
4.65363e-06
7.76809e-07
1.41336e-06
-1.91668e-06
5.34934e-06
-1.36497e-07
1.09075e-06
6.44897e-06
-8.18971e-07
4.79601e-07
8.06275e-06
-1.18845e-06
-6.16407e-08
8.91247e-06
-1.60692e-06
5.32442e-07
6.36209e-06
-2.49471e-06
1.41429e-06
5.05885e-06
1.64643e-06
-3.41668e-06
4.73554e-06
-4.77949e-09
7.47842e-07
-1.13842e-06
6.36919e-06
-6.99095e-07
7.50428e-07
9.16128e-06
-7.83867e-07
1.11555e-06
1.94405e-05
-1.51255e-06
-1.07016e-06
2.57805e-05
-1.13481e-06
5.35277e-07
9.75139e-06
-2.31107e-06
9.71653e-07
5.82245e-06
8.55011e-07
-3.3915e-06
4.85813e-06
-5.7623e-07
1.1578e-07
-5.38992e-07
7.38583e-06
-1.25971e-06
3.9221e-07
1.23457e-05
-3.7868e-06
2.13485e-06
3.37958e-05
-3.8632e-06
6.12733e-07
4.00217e-05
-1.68675e-06
1.19732e-07
1.39387e-05
-2.432e-06
1.96079e-07
6.63086e-06
1.17045e-08
-3.44439e-06
4.98947e-06
-1.66596e-08
-6.60373e-07
-1.03037e-06
6.75245e-06
-5.58902e-07
-2.64862e-07
1.00489e-05
-3.61632e-06
2.09177e-07
2.61631e-05
-2.36385e-06
7.56266e-07
2.71255e-05
-1.384e-06
4.84734e-07
1.18133e-05
-2.39411e-06
-3.30374e-07
6.2865e-06
-7.8683e-07
-3.459e-06
4.95645e-06
8.94832e-07
-1.58833e-06
-1.91129e-06
5.66091e-06
-2.82205e-08
-1.0043e-06
7.19203e-06
-8.89643e-07
-3.42935e-08
9.79454e-06
-1.45784e-06
5.26497e-07
1.14374e-05
-1.90126e-06
-2.75306e-07
7.49877e-06
-2.76854e-06
-1.2171e-06
5.41937e-06
-1.82552e-06
-3.62354e-06
4.80326e-06
1.49513e-06
-2.55028e-06
-2.5096e-06
5.01973e-06
4.14408e-07
-1.83632e-06
5.66061e-06
-4.56523e-07
-9.15747e-07
6.63862e-06
-1.11128e-06
-5.00581e-07
6.9449e-06
-1.80209e-06
-1.38381e-06
5.7056e-06
-2.64657e-06
-2.27492e-06
4.96378e-06
-3.40623e-06
-2.96113e-06
4.70973e-06
-3.18304e-06
-2.84984e-07
1.64704e-07
4.89008e-07
-3.5071e-06
-4.91154e-07
1.78802e-07
5.25526e-07
-3.77011e-06
-3.1967e-07
1.77725e-07
4.7248e-07
-4.06357e-06
-2.40226e-07
1.65696e-07
4.36872e-07
-4.35983e-06
-2.0122e-07
1.45948e-07
4.10254e-07
-4.65493e-06
-1.73503e-07
1.19055e-07
3.92502e-07
-4.92582e-06
-1.50386e-07
8.64757e-08
3.78527e-07
-1.31368e-07
4.77453e-08
3.65105e-07
-5.14571e-06
-3.03836e-06
1.44812e-07
2.46447e-07
-3.45094e-06
-1.33036e-07
2.50661e-07
-3.82521e-06
-1.50083e-07
2.41573e-07
-4.17589e-06
-5.81177e-08
2.24255e-07
-4.47383e-06
-2.72649e-08
1.993e-07
-4.73764e-06
-1.73832e-08
1.679e-07
-4.96124e-06
-1.09077e-08
1.31139e-07
-2.5094e-09
8.952e-08
-5.14518e-06
-3.04167e-06
2.53788e-07
2.69899e-07
-3.59774e-06
1.02953e-07
2.75197e-07
-3.90828e-06
1.25168e-07
2.78782e-07
-4.24628e-06
1.10429e-07
2.63788e-07
-4.55552e-06
1.26656e-07
2.37029e-07
-4.79534e-06
1.21114e-07
2.01975e-07
-4.98111e-06
1.08223e-07
1.60445e-07
1.00775e-07
1.14538e-07
-5.14176e-06
-2.89779e-06
3.11055e-07
3.12579e-07
-3.39199e-06
3.3174e-07
2.91301e-07
-3.74282e-06
3.34836e-07
2.84641e-07
-4.09155e-06
2.88534e-07
2.71529e-07
-4.44329e-06
2.45322e-07
2.4076e-07
-4.80414e-06
2.27472e-07
2.04847e-07
-5.03693e-06
2.21555e-07
1.63543e-07
2.08663e-07
1.16294e-07
-5.20584e-06
-3.03346e-06
4.14231e-07
2.8847e-07
-3.5e-06
6.50469e-07
2.72771e-07
-3.84115e-06
5.46563e-07
2.66476e-07
-4.21445e-06
4.83059e-07
2.5492e-07
-4.52237e-06
4.39488e-07
2.25384e-07
-4.77928e-06
4.05903e-07
1.86581e-07
-4.99639e-06
3.73196e-07
1.40931e-07
3.421e-07
9.08288e-08
-5.18846e-06
-3.23957e-06
7.50769e-07
2.37554e-07
-3.65007e-06
8.76311e-07
2.44563e-07
-3.93391e-06
7.37907e-07
2.37054e-07
-4.22021e-06
6.49614e-07
2.18204e-07
-4.49654e-06
5.91556e-07
1.92538e-07
-4.74613e-06
5.48837e-07
1.58047e-07
-4.94645e-06
5.11394e-07
1.17532e-07
4.79444e-07
6.97908e-08
-5.13127e-06
-3.32127e-06
1.68802e-07
8.50137e-07
-3.57262e-06
1.85146e-07
9.30746e-07
-3.79237e-06
1.85818e-07
8.23649e-07
-4.0367e-06
1.74661e-07
7.78102e-07
-4.29771e-06
1.54633e-07
7.50106e-07
-4.55122e-06
1.26297e-07
7.32778e-07
-4.77356e-06
9.05365e-08
7.17822e-07
4.67124e-08
7.04242e-07
-4.9646e-06
-3.31227e-06
-1.13591e-07
3.49292e-07
3.98384e-07
-3.77289e-06
-1.06859e-07
3.73846e-07
3.58851e-07
-4.2138e-06
-8.86016e-08
3.72723e-07
3.23073e-07
-4.62508e-06
-7.29466e-08
3.47396e-07
2.9362e-07
-4.9941e-06
-6.13371e-08
3.00955e-07
2.68667e-07
-5.31139e-06
-5.26766e-08
2.37488e-07
2.46863e-07
-5.57122e-06
-4.59169e-08
1.6197e-07
2.27192e-07
-4.02583e-08
7.72974e-08
2.09123e-07
-5.77102e-06
-3.50635e-06
6.53354e-08
4.69468e-07
-3.94329e-06
7.21329e-08
4.91132e-07
-4.36895e-06
7.5982e-08
4.87501e-07
-4.76613e-06
7.99547e-08
4.55916e-07
-5.11611e-06
7.96029e-08
3.98888e-07
-5.4051e-06
7.63585e-08
3.21435e-07
-5.62619e-06
7.17978e-08
2.30051e-07
6.68546e-08
1.2964e-07
-5.77597e-06
-3.50974e-06
2.33078e-07
5.41731e-07
-3.98073e-06
2.1984e-07
5.61651e-07
-4.42243e-06
2.09612e-07
5.62473e-07
-4.82412e-06
1.96275e-07
5.30042e-07
-5.17138e-06
1.82098e-07
4.66893e-07
-5.45005e-06
1.6737e-07
3.79012e-07
-5.65208e-06
1.528e-07
2.74747e-07
1.39095e-07
1.60786e-07
-5.7745e-06
-3.48007e-06
4.52705e-07
5.82597e-07
-3.97416e-06
3.8814e-07
5.8365e-07
-4.43503e-06
3.47379e-07
5.82072e-07
-4.84799e-06
3.13634e-07
5.47031e-07
-5.20319e-06
2.83962e-07
4.7893e-07
-5.48794e-06
2.5804e-07
3.84926e-07
-5.6925e-06
2.35605e-07
2.7401e-07
2.15758e-07
1.52525e-07
-5.81218e-06
-3.56549e-06
6.28898e-07
5.50739e-07
-4.02834e-06
5.42916e-07
5.49431e-07
-4.46702e-06
4.84759e-07
5.45066e-07
-4.86543e-06
4.38418e-07
5.09375e-07
-5.21084e-06
3.98508e-07
4.42191e-07
-5.48898e-06
3.63921e-07
3.49805e-07
-5.69252e-06
3.33496e-07
2.41281e-07
3.06421e-07
1.22568e-07
-5.81781e-06
-3.65625e-06
7.35394e-07
4.63417e-07
-4.05525e-06
6.86122e-07
4.77167e-07
-4.45426e-06
6.33296e-07
4.70206e-07
-4.8302e-06
5.86092e-07
4.34307e-07
-5.1639e-06
5.44094e-07
3.71527e-07
-5.4419e-06
5.06236e-07
2.87528e-07
-5.6559e-06
4.71458e-07
1.89353e-07
4.38717e-07
8.04113e-08
-5.80079e-06
-3.53906e-06
3.52031e-07
9.07064e-07
-3.91374e-06
3.78035e-07
8.52622e-07
-4.28551e-06
3.77588e-07
7.99842e-07
-4.64225e-06
3.50602e-07
7.56257e-07
-4.9691e-06
3.00348e-07
7.16967e-07
-5.25434e-06
2.31497e-07
6.8052e-07
-5.49123e-06
1.49753e-07
6.45596e-07
5.70589e-08
6.11446e-07
-5.6757e-06
-3.75953e-06
1.09962e-07
7.52503e-07
2.04878e-07
-4.47356e-06
1.05842e-07
8.30041e-07
1.52208e-07
-5.1936e-06
1.18856e-07
8.62702e-07
1.11358e-07
-5.905e-06
1.29066e-07
8.50908e-07
7.88933e-08
-6.58685e-06
1.33782e-07
7.95584e-07
5.34586e-08
-7.21494e-06
1.3396e-07
6.97588e-07
3.40384e-08
-7.76162e-06
1.31e-07
5.5792e-07
1.97443e-08
1.26277e-07
3.81539e-07
9.83951e-09
-8.20199e-06
-3.99888e-06
2.39958e-07
9.77815e-07
-4.68639e-06
2.3173e-07
1.05298e-06
-5.38939e-06
2.28516e-07
1.08111e-06
-6.08358e-06
2.21738e-07
1.05758e-06
-6.74445e-06
2.11101e-07
9.82521e-07
-7.34379e-06
1.97967e-07
8.56782e-07
-7.84767e-06
1.83515e-07
6.814e-07
1.68526e-07
4.62448e-07
-8.22274e-06
-4.1037e-06
3.04299e-07
1.12635e-06
-4.78979e-06
2.82904e-07
1.19678e-06
-5.4885e-06
2.63615e-07
1.22627e-06
-6.17676e-06
2.42143e-07
1.19795e-06
-6.8286e-06
2.19372e-07
1.11054e-06
-7.41363e-06
1.96932e-07
9.65132e-07
-7.89426e-06
1.75718e-07
7.63214e-07
1.5602e-07
5.12029e-07
-8.23296e-06
-4.14444e-06
3.74702e-07
1.18186e-06
-4.83993e-06
3.22997e-07
1.23925e-06
-5.5423e-06
2.81229e-07
1.26695e-06
-6.23052e-06
2.42009e-07
1.23555e-06
-6.87984e-06
2.05793e-07
1.14193e-06
-7.45937e-06
1.73867e-07
9.87591e-07
-7.9307e-06
1.46576e-07
7.74511e-07
1.23581e-07
5.10632e-07
-8.25638e-06
-4.17623e-06
4.79582e-07
1.1252e-06
-4.87604e-06
3.96483e-07
1.17605e-06
-5.57765e-06
3.30351e-07
1.19773e-06
-6.26289e-06
2.7395e-07
1.16285e-06
-6.9091e-06
2.2592e-07
1.06836e-06
-7.48725e-06
1.86014e-07
9.15883e-07
-7.96073e-06
1.53702e-07
7.07702e-07
1.28078e-07
4.52046e-07
-8.29468e-06
-4.2256e-06
5.67651e-07
9.65032e-07
-4.88799e-06
5.12699e-07
1.02355e-06
-5.56928e-06
4.41871e-07
1.04017e-06
-6.2437e-06
3.78432e-07
1.00436e-06
-6.88687e-06
3.24649e-07
9.16041e-07
-7.46995e-06
2.80038e-07
7.76619e-07
-7.95891e-06
2.43535e-07
5.88478e-07
2.13984e-07
3.59636e-07
-8.32405e-06
-4.07678e-06
7.48086e-07
7.98378e-07
-4.71793e-06
8.18234e-07
7.1383e-07
-5.3824e-06
8.41902e-07
6.42186e-07
-6.05173e-06
8.18285e-07
5.80182e-07
-6.70138e-06
7.48958e-07
5.25783e-07
-7.30346e-06
6.35684e-07
4.77964e-07
-7.827e-06
4.80837e-07
4.36008e-07
2.91469e-07
3.99525e-07
-8.24695e-06
-4.63504e-06
3.55162e-07
1.65687e-06
-1.55185e-08
-5.96423e-06
3.66079e-07
1.86339e-06
-7.01659e-08
-7.34769e-06
3.83475e-07
1.97001e-06
-1.07427e-07
-8.70541e-06
3.88605e-07
1.95387e-06
-1.33986e-07
-9.93164e-06
3.82104e-07
1.79181e-06
-1.52168e-07
-1.09079e-05
3.66934e-07
1.47104e-06
-1.64175e-07
-1.15207e-05
3.45609e-07
9.96665e-07
-1.71573e-07
3.20569e-07
3.85776e-07
-1.74736e-07
-1.16708e-05
-4.79633e-06
4.22062e-07
2.12281e-06
-6.13293e-06
4.26674e-07
2.32896e-06
-7.53016e-06
4.27844e-07
2.43394e-06
-8.90592e-06
4.17271e-07
2.40468e-06
-1.01478e-05
3.97473e-07
2.20902e-06
-1.11205e-05
3.70836e-07
1.82563e-06
-1.16863e-05
3.38961e-07
1.25389e-06
3.0314e-07
5.07665e-07
-1.17141e-05
-4.8512e-06
3.7132e-07
2.42196e-06
-6.20273e-06
3.46467e-07
2.62849e-06
-7.61278e-06
3.24724e-07
2.73939e-06
-9.00432e-06
2.97878e-07
2.70889e-06
-1.02617e-05
2.68602e-07
2.49679e-06
-1.12388e-05
2.38907e-07
2.07421e-06
-1.17811e-05
2.09464e-07
1.43508e-06
1.80504e-07
5.90477e-07
-1.17369e-05
-4.91185e-06
2.72793e-07
2.52688e-06
-6.26796e-06
2.16917e-07
2.72485e-06
-7.67889e-06
1.66156e-07
2.83644e-06
-9.07029e-06
1.19874e-07
2.80501e-06
-1.03263e-05
8.00962e-08
2.58645e-06
-1.12982e-05
4.97747e-08
2.14869e-06
-1.18264e-05
2.87767e-08
1.48347e-06
1.59098e-08
6.0175e-07
-1.1753e-05
-4.95809e-06
2.61819e-07
2.41906e-06
-6.32498e-06
1.50832e-07
2.60904e-06
-7.73273e-06
6.02637e-08
2.71142e-06
-9.11384e-06
-9.38021e-09
2.67326e-06
-1.03573e-05
-6.12261e-08
2.45322e-06
-1.13191e-05
-9.4881e-08
2.02238e-06
-1.18448e-05
-1.12999e-07
1.37521e-06
-1.18354e-07
5.26191e-07
-1.17847e-05
-5.08089e-06
2.93454e-07
2.10979e-06
-6.39079e-06
1.8444e-07
2.29986e-06
-7.75934e-06
7.74015e-08
2.3916e-06
-9.10567e-06
-6.91031e-09
2.34821e-06
-1.03249e-05
-6.32778e-08
2.13731e-06
-1.1277e-05
-1.03912e-07
1.73781e-06
-1.18203e-05
-1.31447e-07
1.15022e-06
-1.49908e-07
3.94974e-07
-1.18241e-05
-4.95102e-06
1.65141e-06
5.54479e-07
-6.22082e-06
1.84966e-06
4.22807e-07
-7.56387e-06
1.94692e-06
3.15405e-07
-8.89717e-06
1.91911e-06
2.25541e-07
-1.01063e-05
1.74275e-06
1.52033e-07
-1.10697e-05
1.40453e-06
9.06591e-08
-1.16696e-05
9.10622e-07
3.86076e-08
2.86017e-07
-6.63017e-09
-1.18074e-05
-4.70739e-06
4.77453e-07
-1.67461e-07
2.77568e-06
-6.33891e-06
5.08732e-07
-2.12138e-07
3.19832e-06
-8.16832e-06
5.26781e-07
-2.36914e-07
3.50949e-06
-1.01656e-05
5.28665e-07
-2.49531e-07
3.672e-06
-1.23011e-05
5.21294e-07
-2.52039e-07
3.65814e-06
-1.45446e-05
5.075e-07
-2.46711e-07
3.45384e-06
-1.68605e-05
4.81414e-07
-2.35785e-07
3.06694e-06
4.39074e-07
-2.20914e-07
-1.92756e-05
2.58273e-06
-4.84893e-06
4.90521e-07
3.54206e-06
-6.47479e-06
5.00775e-07
3.96274e-06
-8.28587e-06
4.98929e-07
4.27284e-06
-1.02616e-05
4.84639e-07
4.42452e-06
-1.23714e-05
4.64528e-07
4.37555e-06
-1.4576e-05
4.41171e-07
4.09668e-06
-1.68422e-05
4.11927e-07
3.5896e-06
3.72182e-07
-1.92321e-05
2.96448e-06
-4.87142e-06
3.54191e-07
4.03826e-06
-6.50781e-06
3.1027e-07
4.45533e-06
-8.31014e-06
2.67827e-07
4.77282e-06
-1.02698e-05
2.23931e-07
4.92927e-06
-1.23617e-05
1.84864e-07
4.86837e-06
-1.45464e-05
1.53529e-07
4.54655e-06
-1.67866e-05
1.29678e-07
3.95758e-06
1.10719e-07
-1.91644e-05
3.22971e-06
-4.91947e-06
1.36826e-07
4.21932e-06
-6.54366e-06
3.31464e-08
4.62617e-06
-8.32344e-06
-6.02056e-08
4.94429e-06
-1.02577e-05
-1.39483e-07
5.10266e-06
-1.23257e-05
-1.99298e-07
5.03852e-06
-1.44895e-05
-2.36098e-07
4.70212e-06
-1.6711e-05
-2.4851e-07
4.0832e-06
-2.36524e-07
-1.90786e-05
3.31663e-06
-4.93105e-06
-2.24751e-08
4.05039e-06
-6.54552e-06
-1.95667e-07
4.45229e-06
-8.31123e-06
-3.44411e-07
4.76132e-06
-1.02297e-05
-4.59855e-07
4.91206e-06
-1.22816e-05
-5.413e-07
4.84711e-06
-1.4431e-05
-5.86845e-07
4.52248e-06
-1.66416e-05
-5.93306e-07
3.93058e-06
-5.57952e-07
-1.89929e-05
3.19894e-06
-4.97809e-06
-1.06811e-07
3.54862e-06
-6.53178e-06
-2.97639e-07
3.95546e-06
-8.27071e-06
-4.70085e-07
4.25608e-06
-1.01756e-05
-6.07614e-07
4.40074e-06
-1.22175e-05
-7.08279e-07
4.34619e-06
-1.43592e-05
-7.70123e-07
4.06272e-06
-1.65678e-05
-7.84657e-07
3.55017e-06
-7.46992e-07
-1.89027e-05
2.91887e-06
-4.73191e-06
8.3645e-08
2.78655e-06
-6.2708e-06
-1.15365e-07
3.20619e-06
-8.02539e-06
-2.85057e-07
3.51634e-06
-9.96422e-06
-4.2786e-07
3.67808e-06
-1.20517e-05
-5.40033e-07
3.66194e-06
-1.42524e-05
-6.17744e-07
3.45271e-06
-1.65244e-05
-6.58512e-07
3.05649e-06
-6.58609e-07
-1.88879e-05
2.56109e-06
-1.91208e-06
2.7906e-07
2.15303e-07
-1.8016e-07
-2.21135e-06
2.63032e-07
2.21384e-07
-1.91577e-07
-2.58462e-06
3.05837e-07
2.15602e-07
-1.37847e-07
-2.98208e-06
3.286e-07
1.9707e-07
-9.73384e-08
-3.38058e-06
3.43505e-07
1.67785e-07
-7.53669e-08
-3.75775e-06
3.52521e-07
1.29454e-07
-6.01803e-08
-4.09783e-06
3.60796e-07
8.27878e-08
-4.88312e-08
3.69531e-07
2.79542e-08
-4.07974e-08
-4.39134e-06
-1.99865e-06
3.01987e-07
3.51234e-07
-2.20489e-06
1.36862e-07
3.32695e-07
-2.41062e-06
2.18165e-07
3.28336e-07
-2.66201e-06
2.5697e-07
3.17184e-07
-2.94839e-06
2.78558e-07
2.99934e-07
-3.20063e-06
3.06531e-07
2.74996e-07
-3.38085e-06
3.27419e-07
2.42906e-07
3.55276e-07
2.06014e-07
-3.60892e-06
-2.1203e-06
-5.78408e-08
5.36647e-07
-2.20225e-06
-1.15183e-07
4.35211e-07
-2.26468e-06
-1.13455e-07
4.28514e-07
-2.35271e-06
-7.00924e-08
4.3003e-07
-2.46122e-06
-4.36492e-08
4.28694e-07
-2.59044e-06
-7.65417e-09
4.21881e-07
-2.65237e-06
1.8987e-08
4.14392e-07
5.28835e-08
3.97141e-07
-2.66765e-06
-2.22853e-06
-5.69813e-07
6.13291e-07
-2.38554e-06
-4.18914e-07
4.60515e-07
-2.43662e-06
-5.07402e-07
4.60642e-07
-2.47974e-06
-4.4037e-07
4.76794e-07
-2.54523e-06
-4.32475e-07
4.90795e-07
-2.61093e-06
-4.28461e-07
4.96577e-07
-2.6472e-06
-4.41347e-07
4.95356e-07
-4.72667e-07
4.89452e-07
-2.62733e-06
-1.8117e-06
-9.60267e-07
4.70279e-07
-2.12674e-06
-6.40565e-07
4.03592e-07
-2.24794e-06
-6.26506e-07
3.98565e-07
-2.39927e-06
-6.754e-07
3.90539e-07
-2.53015e-06
-6.67303e-07
3.80063e-07
-2.6516e-06
-6.50826e-07
3.62493e-07
-2.84466e-06
-6.36604e-07
3.38951e-07
-6.30568e-07
3.15903e-07
-2.93231e-06
-1.82751e-06
-7.77339e-07
3.21577e-07
-2.19323e-06
-6.4905e-07
3.17331e-07
-2.41584e-06
-6.16342e-07
3.1341e-07
-2.74871e-06
-6.34394e-07
3.02296e-07
-3.00278e-06
-6.28237e-07
2.7987e-07
-3.30147e-06
-6.29975e-07
2.48044e-07
-3.57721e-06
-6.20955e-07
2.13629e-07
-6.05454e-07
1.73989e-07
-3.80345e-06
-1.68527e-06
2.10745e-07
-5.20453e-07
-2.14014e-06
2.26208e-07
-4.80018e-07
-2.55353e-06
2.24853e-07
-3.9131e-07
-3.0125e-06
2.10586e-07
-3.54395e-07
-3.4584e-06
1.86394e-07
-3.33612e-07
-3.87785e-06
1.54027e-07
-3.21892e-07
-4.24112e-06
1.15044e-07
-3.10449e-07
6.96567e-08
-2.99685e-07
-4.55145e-06
-2.40297e-06
3.20981e-07
4.22768e-07
-1.2379e-07
-2.82078e-06
2.86431e-07
4.41377e-07
-9.68743e-08
-3.24556e-06
2.677e-07
4.38841e-07
-7.41014e-08
-3.66367e-06
2.59574e-07
4.06104e-07
-5.66027e-08
-4.05939e-06
2.57518e-07
3.45201e-07
-4.34412e-08
-4.418e-06
2.57162e-07
2.61616e-07
-3.33367e-08
-4.73022e-06
2.56544e-07
1.62624e-07
-2.54934e-08
2.55471e-07
5.13935e-08
-1.94258e-08
-4.98992e-06
-2.63038e-06
2.00799e-07
6.65831e-07
-2.8534e-06
1.8174e-07
6.41831e-07
-3.11264e-06
1.87037e-07
6.54036e-07
-3.39146e-06
1.97917e-07
6.4571e-07
-3.6708e-06
2.16569e-07
6.07703e-07
-3.93294e-06
2.38384e-07
5.41632e-07
-4.15907e-06
2.60305e-07
4.5392e-07
2.80681e-07
3.54385e-07
-4.3416e-06
-2.64022e-06
-2.02154e-07
1.0298e-06
-2.72087e-06
-1.76689e-07
8.46137e-07
-2.83714e-06
-1.54706e-07
8.62303e-07
-2.98452e-06
-1.32475e-07
8.89677e-07
-3.14138e-06
-1.09025e-07
8.92506e-07
-3.27824e-06
-8.31089e-08
8.65085e-07
-3.37487e-06
-5.71832e-08
8.10508e-07
-3.15073e-08
7.38159e-07
-3.40899e-06
-2.62096e-06
-6.35228e-07
1.17594e-06
-2.6932e-06
-5.62558e-07
8.97987e-07
-2.79225e-06
-5.33704e-07
9.16784e-07
-2.91131e-06
-5.08916e-07
9.58885e-07
-3.02172e-06
-4.94011e-07
9.79515e-07
-3.09993e-06
-4.83641e-07
9.72198e-07
-3.12734e-06
-4.76295e-07
9.40127e-07
-4.70426e-07
8.91822e-07
-3.0915e-06
-2.52932e-06
-9.06171e-07
8.99394e-07
-2.69854e-06
-8.15686e-07
7.74468e-07
-2.8861e-06
-7.69273e-07
7.98215e-07
-3.09412e-06
-7.44627e-07
8.13222e-07
-3.29911e-06
-7.2687e-07
8.00992e-07
-3.48011e-06
-7.12875e-07
7.58954e-07
-3.62009e-06
-7.00647e-07
6.93147e-07
-6.8938e-07
6.12969e-07
-3.71162e-06
-2.34623e-06
-8.59003e-07
6.11027e-07
-2.70628e-06
-7.75039e-07
6.06768e-07
-3.06888e-06
-7.24278e-07
6.17386e-07
-3.43451e-06
-6.932e-07
6.01237e-07
-3.78049e-06
-6.67257e-07
5.55457e-07
-4.09087e-06
-6.44596e-07
4.82982e-07
-4.35632e-06
-6.231e-07
3.91609e-07
-6.02172e-07
2.90506e-07
-4.56708e-06
-2.06224e-06
4.14718e-07
-5.32083e-07
-2.58046e-06
4.40444e-07
-4.8357e-07
-3.08744e-06
4.41819e-07
-4.44158e-07
-3.57777e-06
4.13243e-07
-4.13625e-07
-4.03459e-06
3.58125e-07
-3.8841e-07
-4.4443e-06
2.81651e-07
-3.66881e-07
-4.79801e-06
1.90765e-07
-3.47702e-07
9.12966e-08
-3.30134e-07
-5.09286e-06
-2.86636e-06
3.71e-07
8.16087e-07
-8.90361e-08
-3.55084e-06
3.10523e-07
8.7867e-07
-6.29417e-08
-4.25605e-06
2.8668e-07
9.04756e-07
-4.69594e-08
-4.96334e-06
2.70522e-07
8.79707e-07
-3.64269e-08
-5.64896e-06
2.56133e-07
8.03792e-07
-2.89001e-08
-6.28508e-06
2.4111e-07
6.80164e-07
-2.34014e-08
-6.84096e-06
2.25208e-07
5.12797e-07
-1.93487e-08
2.09198e-07
3.10328e-07
-1.62836e-08
-7.29265e-06
-2.89151e-06
2.60403e-07
1.20346e-06
-3.39312e-06
2.42887e-07
1.2116e-06
-3.95004e-06
2.37566e-07
1.26054e-06
-4.53766e-06
2.35679e-07
1.26855e-06
-5.13163e-06
2.38634e-07
1.21941e-06
-5.70136e-06
2.41869e-07
1.11078e-06
-6.2088e-06
2.43198e-07
9.43542e-07
2.42321e-07
7.24949e-07
-6.61231e-06
-2.71544e-06
-1.64497e-07
1.7221e-06
-3.01861e-06
-1.3826e-07
1.53088e-06
-3.39957e-06
-1.09638e-07
1.59089e-06
-3.83907e-06
-8.65011e-08
1.65163e-06
-4.30289e-06
-6.33254e-08
1.65853e-06
-4.75484e-06
-4.04543e-08
1.59958e-06
-5.1532e-06
-1.92329e-08
1.47152e-06
1.07057e-09
1.2814e-06
-5.45502e-06
-2.62533e-06
-6.68336e-07
1.96802e-06
-2.89284e-06
-6.0663e-07
1.63427e-06
-3.22908e-06
-5.5344e-07
1.6972e-06
-3.62744e-06
-5.12437e-07
1.78335e-06
-4.05138e-06
-4.78475e-07
1.81882e-06
-4.46107e-06
-4.4651e-07
1.78838e-06
-4.81073e-06
-4.15673e-07
1.68639e-06
-3.86415e-07
1.51821e-06
-5.04953e-06
-2.71609e-06
-9.98133e-07
1.56116e-06
-3.10649e-06
-8.9347e-07
1.45201e-06
-3.56139e-06
-8.25409e-07
1.52546e-06
-4.0631e-06
-7.75572e-07
1.57833e-06
-4.58233e-06
-7.32685e-07
1.57465e-06
-5.08489e-06
-6.91722e-07
1.50688e-06
-5.52864e-06
-6.51556e-07
1.37293e-06
-6.12436e-07
1.17948e-06
-5.869e-06
-2.65587e-06
-9.27571e-07
1.13176e-06
-3.29492e-06
-8.20754e-07
1.17344e-06
-3.96001e-06
-7.66345e-07
1.22364e-06
-4.63743e-06
-7.23262e-07
1.22666e-06
-5.30492e-06
-6.82893e-07
1.17335e-06
-5.93335e-06
-6.43175e-07
1.06293e-06
-6.48573e-06
-6.0381e-07
8.96291e-07
-5.65412e-07
6.80119e-07
-6.9223e-06
-2.53691e-06
8.03235e-07
-5.16273e-07
-3.32293e-06
8.76093e-07
-4.70031e-07
-4.11841e-06
9.06997e-07
-4.35859e-07
-4.90756e-06
8.87798e-07
-4.08398e-07
-5.66718e-06
8.19564e-07
-3.84612e-07
-6.37047e-06
7.04762e-07
-3.62973e-07
-6.98723e-06
5.46332e-07
-3.42561e-07
3.51571e-07
-3.22856e-07
-7.49e-06
-3.6831e-06
3.57623e-07
1.72437e-06
-1.58468e-08
-5.04063e-06
3.2327e-07
1.9153e-06
-2.48752e-09
-6.46234e-06
3.03148e-07
2.01694e-06
6.41426e-09
-7.85835e-06
2.7047e-07
1.99425e-06
1.1078e-08
-9.11806e-06
2.28221e-07
1.82138e-06
1.38305e-08
-1.0117e-05
1.80714e-07
1.48321e-06
1.52564e-08
-1.07342e-05
1.31008e-07
9.83295e-07
1.5768e-08
8.07754e-08
3.44179e-07
1.54705e-08
-1.08643e-05
-3.18422e-06
2.80893e-07
2.35427e-06
-4.45154e-06
2.9693e-07
2.50531e-06
-5.81437e-06
2.93831e-07
2.63274e-06
-7.19109e-06
2.76668e-07
2.63913e-06
-8.46866e-06
2.5027e-07
2.47489e-06
-9.50492e-06
2.17322e-07
2.11048e-06
-1.01494e-05
1.79951e-07
1.53918e-06
1.39848e-07
7.69395e-07
-1.02529e-05
-2.48125e-06
-1.38992e-07
3.00332e-06
-3.58406e-06
-6.71611e-08
2.99788e-06
-4.83585e-06
-1.72472e-08
3.15389e-06
-6.14732e-06
1.54747e-08
3.22443e-06
-7.39922e-06
4.06195e-08
3.12014e-06
-8.43682e-06
6.17957e-08
2.79282e-06
-9.08767e-06
7.76594e-08
2.2248e-06
8.75272e-08
1.40631e-06
-9.1602e-06
-2.14242e-06
-6.10262e-07
3.31556e-06
-3.22193e-06
-5.34586e-07
3.1813e-06
-4.43713e-06
-4.56192e-07
3.35206e-06
-5.71422e-06
-3.88954e-07
3.46504e-06
-6.94105e-06
-3.26169e-07
3.41162e-06
-7.95923e-06
-2.67934e-07
3.13643e-06
-8.59104e-06
-2.16547e-07
2.61364e-06
-1.73012e-07
1.81578e-06
-8.62798e-06
-2.63094e-06
-9.36885e-07
2.85823e-06
-3.81254e-06
-8.3538e-07
2.93453e-06
-5.10855e-06
-7.41369e-07
3.10677e-06
-6.44805e-06
-6.48346e-07
3.1774e-06
-7.71734e-06
-5.53922e-07
3.07182e-06
-8.76323e-06
-4.61246e-07
2.74626e-06
-9.4174e-06
-3.73115e-07
2.18383e-06
-2.9085e-07
1.37294e-06
-9.49289e-06
-3.15316e-06
-8.62591e-07
2.2875e-06
-4.52724e-06
-7.63371e-07
2.4756e-06
-5.96831e-06
-6.87093e-07
2.61055e-06
-7.40484e-06
-6.04331e-07
2.61931e-06
-8.72628e-06
-5.17628e-07
2.45854e-06
-9.79363e-06
-4.3097e-07