/*--------------------------------*- C++ -*----------------------------------*\
| =========                 |                                                 |
| \\      /  F ield         | OpenFOAM: The Open Source CFD Toolbox           |
|  \\    /   O peration     | Version:  plus.master.MPPICInterFoam            |
|   \\  /    A nd           | Web:      www.OpenFOAM.com                      |
|    \\/     M anipulation  |                                                 |
\*---------------------------------------------------------------------------*/
FoamFile
{
    version     2.0;
    format      ascii;
    class       surfaceScalarField;
    location    "8.2";
    object      phi;
}
// * * * * * * * * * * * * * * * * * * * * * * * * * * * * * * * * * * * * * //

dimensions      [0 3 -1 0 0 0 0];

internalField   nonuniform List<scalar> 
34018
(
-1.63677e-08
7.08247e-06
2.34215e-07
2.53979e-07
1.09356e-07
8.1068e-06
1.86621e-08
6.49949e-06
2.12047e-07
2.06628e-07
8.17727e-06
2.30767e-07
2.10694e-07
6.93426e-06
1.08195e-07
5.68629e-06
2.00826e-07
1.60278e-08
-1.18661e-07
-1.21431e-07
7.91354e-06
1.09361e-07
1.66689e-07
-1.33878e-07
-1.48213e-07
8.90577e-06
1.75559e-07
-1.12355e-07
-2.34666e-07
9.36587e-06
1.97717e-07
-7.82536e-08
-2.31442e-07
9.03485e-06
1.97035e-07
-4.80852e-08
-1.55337e-07
8.04413e-06
1.58967e-07
4.31997e-10
-1.57778e-07
6.85376e-06
1.42421e-07
-1.47086e-07
5.65846e-06
5.02807e-08
1.08453e-07
-1.0518e-07
-1.46823e-07
9.57481e-06
9.31436e-08
-1.95405e-07
-3.05034e-07
1.12145e-05
-1.44129e-07
-5.97005e-07
1.19784e-05
-1.37386e-07
-5.13835e-07
1.14498e-05
-1.2167e-07
-2.46036e-07
9.85258e-06
-3.50266e-08
-2.02333e-07
7.969e-06
-1.81101e-07
6.42284e-06
3.25136e-08
-2.65517e-07
-2.00624e-07
1.10991e-05
1.24834e-07
-4.7564e-07
-3.98019e-07
1.33278e-05
-9.35701e-08
-4.59709e-07
1.38928e-05
4.18153e-08
-4.45119e-07
1.3488e-05
-5.72207e-08
-2.89468e-07
1.14658e-05
2.37345e-09
-2.17593e-07
8.92036e-06
-1.81476e-07
6.9825e-06
6.04543e-08
-4.64229e-07
-1.69526e-07
1.17678e-05
1.97286e-07
-5.816e-07
-1.1963e-07
1.40764e-05
-7.34462e-08
4.98536e-08
1.56203e-05
2.50123e-07
7.14508e-08
1.48598e-05
1.1077e-07
-9.5597e-08
1.21674e-05
9.48129e-08
-1.29666e-07
9.34093e-06
-1.25165e-07
7.20098e-06
1.15651e-07
-3.89761e-07
-1.14379e-07
1.11099e-05
2.33092e-07
-3.87319e-07
2.87757e-09
1.33723e-05
-2.90068e-08
1.9916e-07
1.50879e-05
1.65819e-07
1.84723e-07
1.44128e-05
1.11155e-07
-2.81748e-08
1.15562e-05
1.28001e-07
-5.12299e-08
8.98197e-06
-6.46075e-08
7.00246e-06
1.47465e-07
-2.16121e-07
-4.90653e-08
9.56326e-06
2.11559e-07
-2.46045e-07
-1.60637e-08
1.12721e-05
-9.77278e-08
1.05632e-07
1.21523e-05
4.12269e-09
1.08797e-07
1.16457e-05
4.80999e-08
-9.34406e-09
9.9715e-06
1.14764e-07
-1.32596e-08
8.00218e-06
-3.16869e-08
6.42962e-06
1.51688e-07
-1.86181e-07
7.86925e-06
1.86598e-07
5.83642e-08
-1.63308e-07
8.87511e-06
8.95322e-08
-6.41836e-08
9.35471e-06
1.50277e-07
3.22523e-08
9.05062e-06
1.45404e-07
8.15321e-08
8.05422e-06
6.44698e-08
1.33718e-07
6.84154e-06
2.72639e-08
5.63621e-06
1.67842e-07
-1.58074e-08
-1.84573e-07
-2.48118e-07
7.83356e-06
2.10306e-07
3.02355e-07
-1.41423e-07
-2.53971e-07
8.78498e-06
3.31549e-07
-1.00031e-07
-2.32968e-07
9.22531e-06
3.32036e-07
-1.1329e-08
-2.75104e-07
8.88348e-06
3.37714e-07
6.8509e-08
-2.63047e-07
7.93e-06
2.97376e-07
1.30354e-07
-2.45662e-07
6.79177e-06
2.45862e-07
-2.04398e-07
5.64622e-06
1.674e-07
1.7958e-07
-1.72336e-07
-1.9881e-07
9.45396e-06
2.43856e-07
-2.01285e-07
-2.68199e-07
1.12576e-05
-1.45837e-07
-3.44374e-07
1.20342e-05
-1.16776e-07
-3.55732e-07
1.15014e-05
1.97241e-08
-2.37559e-07
9.69053e-06
1.31846e-07
-2.38451e-07
7.84963e-06
-2.04523e-07
6.37465e-06
1.80297e-07
-2.26867e-07
-2.21609e-07
1.11032e-05
2.45459e-07
-2.62583e-07
-3.29269e-07
1.34244e-05
-2.27854e-07
-5.89578e-07
1.41031e-05
-1.1399e-07
-5.47518e-07
1.35658e-05
4.17459e-09
-3.11069e-07
1.14212e-05
1.59894e-07
-2.2255e-07
8.74869e-06
-1.76571e-07
6.90246e-06
2.12056e-07
-3.60481e-07
-1.44931e-07
1.17927e-05
2.58887e-07
-5.7539e-07
-1.86683e-07
1.41487e-05
-2.14027e-07
-8.76658e-08
1.4757e-05
6.12997e-08
-1.39649e-07
1.41763e-05
7.9704e-08
-1.81851e-07
1.20198e-05
2.1872e-07
-1.42726e-07
9.12216e-06
-1.0973e-07
7.09974e-06
2.53222e-07
-3.70326e-07
-5.58992e-08
1.10452e-05
3.45912e-07
-4.47741e-07
-1.00222e-07
1.33631e-05
-1.78708e-07
-3.01339e-08
1.47612e-05
1.03592e-07
3.62534e-08
1.39543e-05
1.73507e-07
-7.16872e-08
1.1376e-05
2.69748e-07
-1.09157e-08
8.75401e-06
-2.11821e-08
6.90025e-06
2.83481e-07
-2.5076e-07
6.70249e-08
9.36486e-06
3.26255e-07
-2.52571e-07
3.10704e-08
1.11425e-05
-1.83492e-07
9.12011e-08
1.19618e-05
-2.93941e-08
1.23707e-07
1.14041e-05
1.47731e-07
8.20063e-08
9.64076e-06
2.45078e-07
7.20217e-08
7.82199e-06
3.64212e-08
6.34648e-06
2.70652e-07
-2.17234e-07
7.72189e-06
2.52766e-07
1.78833e-07
-1.76929e-07
8.66098e-06
2.04715e-07
-7.38538e-08
9.09936e-06
2.43365e-07
6.46652e-08
8.78641e-06
2.49408e-07
1.63219e-07
7.85564e-06
1.8211e-07
2.29303e-07
6.72424e-06
1.23288e-07
5.58634e-06
2.56385e-07
5.92272e-08
-3.54824e-07
-5.9676e-07
7.81053e-06
4.12828e-07
5.61779e-07
-1.95013e-07
-7.36656e-07
8.67347e-06
6.88139e-07
-1.33348e-08
-7.23906e-07
9.0498e-06
7.1764e-07
1.87627e-07
-7.32086e-07
8.72529e-06
6.89233e-07
2.98988e-07
-6.0549e-07
7.86516e-06
5.58921e-07
3.23918e-07
-4.28714e-07
6.79059e-06
4.04932e-07
-3.00727e-07
5.68405e-06
3.09602e-07
2.7718e-07
-5.07271e-07
-5.00854e-07
9.26356e-06
6.01567e-07
-2.56721e-07
-5.38067e-07
1.08082e-05
-5.90422e-08
-4.24861e-07
1.15374e-05
2.36915e-07
-4.7572e-07
1.0949e-05
4.17884e-07
-4.79745e-07
9.38366e-06
4.24469e-07
-3.70295e-07
7.78458e-06
-2.6469e-07
6.38477e-06
3.78314e-07
-5.33743e-07
-2.82128e-07
1.06906e-05
7.27494e-07
-2.21696e-07
-3.98833e-07
1.2973e-05
-1.21562e-07
-4.72904e-07
1.40509e-05
1.62172e-07
-4.11898e-07
1.32182e-05
4.98137e-07
-2.93879e-07
1.08993e-05
5.20548e-07
-2.30185e-07
8.58606e-06
-1.74909e-07
6.88342e-06
4.49781e-07
-4.98147e-07
-5.57427e-08
1.13128e-05
7.51514e-07
-3.01827e-07
-1.35576e-07
1.36891e-05
-1.00843e-07
-4.24037e-07
1.45069e-05
1.68635e-07
-3.48831e-07
1.38437e-05
5.06544e-07
-1.38633e-07
1.15267e-05
5.66969e-07
-6.69994e-08
8.89859e-06
-5.79828e-08
7.06121e-06
4.88558e-07
-6.86336e-07
2.80718e-07
1.05875e-05
8.07502e-07
-4.87461e-07
2.46343e-07
1.27823e-05
-3.53198e-08
8.66185e-08
1.37982e-05
3.75206e-07
2.07497e-07
1.29873e-05
6.15336e-07
2.19641e-07
1.07776e-05
5.91898e-07
1.61726e-07
8.54879e-06
7.79382e-08
6.85903e-06
4.97225e-07
-5.46567e-07
4.26129e-07
9.12628e-06
6.39723e-07
-2.86123e-07
5.3672e-07
1.05916e-05
-5.22987e-08
5.44693e-07
1.12698e-05
2.86945e-07
5.51852e-07
1.07204e-05
4.85739e-07
4.21373e-07
9.24025e-06
4.92293e-07
2.68596e-07
7.70863e-06
1.53186e-07
6.32492e-06
4.38671e-07
-3.59657e-07
7.64631e-06
4.23189e-07
4.38131e-07
-1.96818e-07
8.48666e-06
5.4799e-07
9.25333e-09
8.84899e-06
5.8891e-07
2.33512e-07
8.55267e-06
5.61352e-07
3.56799e-07
7.72622e-06
4.27563e-07
3.89631e-07
6.67651e-06
2.83578e-07
5.59046e-06
3.74071e-07
1.6475e-07
-3.27068e-07
-5.40468e-07
7.82382e-06
3.63025e-07
4.9121e-07
-1.83683e-07
-7.12459e-07
8.62386e-06
6.18516e-07
1.86394e-08
-7.55823e-07
8.93894e-06
6.6433e-07
2.03047e-07
-7.26042e-07
8.65032e-06
6.16529e-07
2.79982e-07
-5.48045e-07
7.86082e-06
4.75427e-07
2.8357e-07
-3.57485e-07
6.81214e-06
3.32296e-07
-2.4847e-07
5.71888e-06
2.67993e-07
2.29254e-07
-5.08423e-07
-4.64016e-07
9.15121e-06
5.4421e-07
-2.69445e-07
-5.3599e-07
1.03926e-05
-5.47342e-09
-5.06354e-07
1.1024e-05
3.13719e-07
-5.37772e-07
1.04415e-05
4.15392e-07
-4.55898e-07
9.18989e-06
3.70008e-07
-3.12375e-07
7.78488e-06
-2.18279e-07
6.40548e-06
3.19061e-07
-5.75411e-07
-2.17689e-07
1.03288e-05
6.90842e-07
-3.25785e-07
-2.76217e-07
1.24634e-05
-5.07941e-08
-3.34448e-07
1.36041e-05
3.25254e-07
-2.61949e-07
1.25663e-05
5.30251e-07
-2.11469e-07
1.04498e-05
4.65095e-07
-1.76652e-07
8.5154e-06
-1.35267e-07
6.88413e-06
3.81282e-07
-4.93463e-07
-8.14481e-09
1.08888e-05
7.07914e-07
-3.19877e-07
-1.47996e-07
1.33871e-05
-7.66493e-08
-4.5943e-07
1.43887e-05
2.23226e-07
-2.06317e-07
1.34883e-05
5.49858e-07
-2.59666e-08
1.10145e-05
5.0031e-07
-1.16408e-08
8.78302e-06
-3.17426e-08
7.04764e-06
4.10264e-07
-6.02543e-07
2.82541e-07
1.02052e-05
6.94146e-07
-3.82981e-07
3.04719e-07
1.21101e-05
1.86041e-08
2.201e-07
1.2717e-05
3.78193e-07
3.02984e-07
1.21183e-05
5.55024e-07
2.72565e-07
1.03022e-05
4.83211e-07
1.44057e-07
8.46482e-06
6.71031e-08
6.84178e-06
4.01567e-07
-4.81536e-07
3.77952e-07
8.983e-06
5.29391e-07
-2.54585e-07
5.11187e-07
1.01582e-05
2.38464e-08
5.32768e-07
1.06787e-05
3.25793e-07
5.13909e-07
1.02075e-05
4.29201e-07
3.70169e-07
9.03918e-06
3.97977e-07
2.11728e-07
7.67216e-06
1.17326e-07
6.31832e-06
3.54377e-07
-2.99139e-07
7.60758e-06
3.46448e-07
3.694e-07
-1.52264e-07
8.38212e-06
4.68803e-07
4.19473e-08
8.68716e-06
5.00364e-07
2.21224e-07
8.42695e-06
4.60335e-07
3.09981e-07
7.67005e-06
3.37605e-07
3.25161e-07
6.65807e-06
2.15049e-07
5.59495e-06
3.15671e-07
1.22415e-07
-1.19026e-07
-1.91258e-07
7.8154e-06
1.22768e-07
1.95921e-07
-9.13678e-08
-3.07884e-07
8.66924e-06
2.349e-07
1.09747e-08
-3.88214e-07
8.96582e-06
2.59e-07
5.57795e-08
-3.04101e-07
8.70002e-06
2.09595e-07
6.79085e-08
-1.57664e-07
7.86253e-06
1.43825e-07
9.16644e-08
-1.03441e-07
6.77471e-06
1.17057e-07
-1.07946e-07
5.68795e-06
1.27529e-07
1.03056e-07
-2.36646e-07
-2.34277e-07
9.25859e-06
1.72345e-07
-1.91524e-07
-4.30876e-07
1.04706e-05
4.519e-08
-5.30729e-07
1.09298e-05
1.35968e-07
-4.38462e-07
1.0485e-05
7.6258e-08
-2.08231e-07
9.30029e-06
6.64295e-08
-1.0141e-07
7.79267e-06
-1.08928e-07
6.36138e-06
1.11449e-07
-4.40921e-07
-1.4966e-07
1.0408e-05
2.77068e-07
-3.2816e-07
-2.04547e-07
1.21243e-05
1.12024e-07
-2.47805e-07
1.28809e-05
2.91363e-07
-1.99368e-07
1.21477e-05
1.6318e-07
-1.28443e-07
1.04981e-05
9.4658e-08
-8.56592e-08
8.56807e-06
-8.43537e-08
6.83001e-06
1.24101e-07
-4.46785e-07
3.07625e-08
1.08497e-05
3.05424e-07
-3.21977e-07
1.37681e-07
1.29199e-05
8.82937e-08
7.5549e-08
1.36551e-05
2.87414e-07
1.74554e-07
1.29151e-05
2.11883e-07
4.3044e-08
1.09183e-05
1.15813e-07
-2.80683e-08
8.8213e-06
-4.52723e-08
6.98565e-06
1.38601e-07
-2.91901e-07
6.11577e-08
1.02631e-05
2.03541e-07
-1.32375e-07
1.85137e-07
1.1903e-05
3.71305e-09
1.753e-07
1.24811e-05
1.64316e-07
1.77274e-07
1.19548e-05
1.18148e-07
5.31345e-08
1.03381e-05
8.50961e-08
-4.2929e-08
8.51256e-06
-2.46068e-08
6.77151e-06
1.34612e-07
-1.44014e-07
4.31588e-08
9.01375e-06
1.3122e-07
-9.38367e-08
9.44899e-08
1.01987e-05
1.13777e-08
1.05358e-07
1.06433e-05
1.01417e-07
8.3974e-08
1.02107e-05
6.061e-08
-1.83492e-08
9.15136e-06
8.718e-08
-2.86426e-08
7.63116e-06
-1.25951e-08
6.25018e-06
1.43252e-07
-8.72644e-08
7.53303e-06
1.09346e-07
9.56986e-08
-4.41279e-08
8.3266e-06
1.06933e-07
2.11782e-08
8.62408e-06
1.03135e-07
7.0112e-08
8.38434e-06
7.75819e-08
9.75699e-08
7.60092e-06
2.32494e-08
1.33035e-07
6.58069e-06
1.3246e-08
5.53752e-06
1.74823e-07
3.06315e-09
-3.17915e-08
-9.49892e-08
7.74104e-06
5.65219e-08
1.44608e-07
-2.87699e-08
-1.69188e-07
8.67804e-06
1.57621e-07
1.42002e-08
-2.32856e-07
9.00251e-06
1.53258e-07
2.97449e-08
-1.61185e-07
8.71562e-06
1.3011e-07
4.7463e-08
-5.98518e-08
7.80024e-06
1.04431e-07
9.64473e-08
-7.41886e-08
6.68796e-06
1.1196e-07
-1.05274e-07
5.62844e-06
1.48613e-07
1.12639e-07
-1.08576e-07
-1.64869e-07
9.36696e-06
7.02934e-08
-9.2891e-08
-3.36812e-07
1.06227e-05
3.79382e-08
-4.38316e-07
1.10044e-05
6.99186e-08
-3.51187e-07
1.0643e-05
-5.48642e-10
-1.51356e-07
9.46222e-06
5.49803e-08
-6.91929e-08
7.73208e-06
-1.01897e-07
6.28041e-06
1.32539e-07
-2.92832e-07
-1.34862e-07
1.0527e-05
1.43866e-07
-2.32405e-07
-2.40262e-07
1.19673e-05
1.22166e-07
-2.34189e-07
1.23221e-05
2.12253e-07
-2.57028e-07
1.19633e-05
7.20673e-08
-1.23668e-07
1.06105e-05
6.49242e-08
-8.25361e-08
8.58846e-06
-8.28903e-08
6.737e-06
1.38873e-07
-3.52884e-07
2.02927e-08
1.08706e-05
1.76882e-07
-2.62298e-07
1.80124e-07
1.24088e-05
1.19784e-07
2.85724e-07
1.2753e-05
3.14374e-07
2.08448e-07
1.22549e-05
1.50052e-07
1.6912e-08
1.09419e-05
8.56608e-08
-5.40268e-08
8.85706e-06
-5.02831e-08
6.88531e-06
1.53329e-07
-2.06261e-07
2.2865e-08
1.03561e-05
1.10636e-07
-1.11253e-07
1.45642e-07
1.18423e-05
3.15051e-08
2.13249e-07
1.24107e-05
1.62417e-07
1.6579e-07
1.18664e-05
6.47612e-08
-7.60959e-09
1.04601e-05
8.43838e-08
-5.52691e-08
8.49404e-06
-2.46739e-08
6.66752e-06
1.62676e-07
-6.75514e-08
2.59966e-09
9.02875e-06
7.27722e-08
-3.89614e-08
3.58042e-08
1.02798e-05
2.58055e-08
6.58498e-08
1.07259e-05
4.53276e-08
3.61401e-08
1.03207e-05
2.32366e-08
-5.52713e-08
9.22098e-06
1.01136e-07
-3.04838e-08
7.52836e-06
-3.08901e-09
6.15283e-06
1.7684e-07
-4.03677e-08
7.41607e-06
7.20625e-08
8.78597e-08
-1.42915e-08
8.24357e-06
9.28363e-08
2.74029e-08
8.55847e-06
8.97682e-08
7.32414e-08
8.30025e-06
7.43051e-08
1.00985e-07
7.48127e-06
3.65085e-08
1.53074e-07
6.46533e-06
3.26948e-08
5.46006e-06
2.04997e-07
2.23591e-08
-1.29013e-07
-3.55539e-07
7.58793e-06
2.33227e-07
4.04455e-07
-9.09374e-09
-3.85981e-07
8.4687e-06
4.75506e-07
6.02871e-08
-3.06589e-07
8.79208e-06
4.4768e-07
1.6723e-07
-3.37423e-07
8.49326e-06
4.52825e-07
2.74658e-07
-3.58649e-07
7.63581e-06
4.15646e-07
3.28642e-07
-3.04062e-07
6.60035e-06
3.37768e-07
-2.45666e-07
5.60174e-06
3.3887e-07
2.62134e-07
-1.8238e-07
-2.70566e-07
9.12476e-06
3.3969e-07
-7.71926e-08
-3.22408e-07
1.0454e-05
6.34882e-08
-2.85854e-07
1.08431e-05
1.84802e-07
-3.06208e-07
1.04905e-05
3.02339e-07
-2.86607e-07
9.27256e-06
3.85914e-07
-2.25397e-07
7.56994e-06
-1.90947e-07
6.21893e-06
3.92725e-07
-2.44446e-07
-1.58903e-07
1.02767e-05
3.83134e-07
-9.55371e-08
-2.02007e-07
1.1698e-05
3.09464e-08
-1.92453e-07
1.21021e-05
2.04731e-07
-1.8062e-07
1.1664e-05
3.20481e-07
-1.86104e-07
1.03943e-05
4.26753e-07
-1.25741e-07
8.3826e-06
-1.09515e-07
6.6476e-06
4.34744e-07
-2.70237e-07
2.92649e-08
1.05603e-05
3.92368e-07
-1.43969e-07
5.48168e-08
1.20258e-05
1.41376e-07
1.00246e-07
1.21749e-05
3.00607e-07
9.33012e-08
1.18217e-05
3.18355e-07
3.58511e-08
1.07023e-05
4.36099e-07
-2.79912e-08
8.64169e-06
-2.31938e-08
6.78232e-06
4.52803e-07
-2.73474e-07
1.78554e-07
1.00724e-05
4.0792e-07
-1.45423e-07
2.22579e-07
1.15465e-05
1.13585e-07
2.986e-07
1.19533e-05
2.88388e-07
2.56523e-07
1.15284e-05
3.72876e-07
1.4212e-07
1.02694e-05
4.73787e-07
1.19922e-07
8.24531e-06
7.77933e-08
6.57373e-06
4.66618e-07
-2.25863e-07
3.06396e-07
8.7574e-06
3.69356e-07
-8.53701e-08
3.54592e-07
1.00073e-05
8.09259e-08
3.88858e-07
1.04695e-05
2.12489e-07
3.54206e-07
1.00914e-05
3.67354e-07
2.99065e-07
8.9092e-06
4.38714e-07
2.21135e-07
7.35585e-06
1.49223e-07
6.08337e-06
4.36744e-07
-1.68711e-07
7.26494e-06
2.593e-07
3.66934e-07
-4.90344e-08
8.03323e-06
4.45327e-07
8.87165e-08
8.34003e-06
4.69563e-07
2.25874e-07
8.07132e-06
4.46024e-07
3.29356e-07
7.31003e-06
3.66853e-07
3.80422e-07
6.36843e-06
2.66967e-07
5.4236e-06
3.90197e-07
1.75877e-07
-3.0544e-07
-6.65587e-07
7.46838e-06
4.37094e-07
6.53483e-07
-5.92665e-08
-7.92539e-07
8.18261e-06
8.32407e-07
1.56133e-07
-7.38071e-07
8.46077e-06
8.54096e-07
3.67723e-07
-7.47585e-07
8.20395e-06
8.25293e-07
4.95557e-07
-6.73998e-07
7.48954e-06
6.92472e-07
5.12072e-07
-4.97069e-07
6.57015e-06
5.10822e-07
-3.52218e-07
5.6313e-06
4.67628e-07
3.67139e-07
-4.27243e-07
-4.63433e-07
8.67588e-06
6.73993e-07
-6.68488e-08
-5.19418e-07
9.82053e-06
2.39766e-07
-4.08473e-07
1.0207e-05
4.48022e-07
-4.04714e-07
9.93942e-06
6.59941e-07
-4.12562e-07
8.79917e-06
6.68113e-07
-3.60081e-07
7.42497e-06
-2.60804e-07
6.21529e-06
5.80399e-07
-4.54251e-07
-1.77553e-07
9.64459e-06
8.00651e-07
9.84917e-09
-1.8544e-07
1.09e-05
3.10319e-07
-1.00953e-07
1.14942e-05
4.88176e-07
-1.31612e-07
1.12131e-05
7.24371e-07
-1.86527e-07
9.93217e-06
7.7531e-07
-1.26108e-07
8.09769e-06
-1.1728e-07
6.61394e-06
6.65454e-07
-4.04671e-07
1.35266e-07
9.86328e-06
7.88927e-07
9.56756e-08
1.23184e-07
1.12169e-05
3.81069e-07
8.6364e-08
1.17022e-05
4.66926e-07
6.97585e-08
1.15346e-05
6.13854e-07
9.87967e-08
1.02702e-05
7.75965e-07
4.08131e-08
8.31276e-06
2.14301e-08
6.73349e-06
6.86121e-07
-4.75323e-07
4.38686e-07
9.44833e-06
7.95984e-07
5.55211e-10
4.80056e-07
1.07138e-05
3.12944e-07
4.01002e-07
1.13263e-05
5.19051e-07
3.74925e-07
1.10173e-05
7.63532e-07
3.76291e-07
9.74745e-06
7.9158e-07
2.91515e-07
7.96667e-06
1.71533e-07
6.53598e-06
6.79277e-07
-4.38897e-07
6.13706e-07
8.37116e-06
6.50168e-07
-8.69824e-08
7.47694e-07
9.38781e-06
2.27067e-07
7.51276e-07
9.80519e-06
4.59104e-07
7.20179e-07
9.51424e-06
6.66048e-07
6.08021e-07
8.47067e-06
6.77079e-07
4.16915e-07
7.21954e-06
2.61019e-07
6.07158e-06
5.99471e-07
-3.03067e-07
7.16285e-06
4.26114e-07
5.9283e-07
-7.71734e-08
7.80513e-06
7.49995e-07
1.59007e-07
8.06071e-06
7.94416e-07
3.72536e-07
7.83042e-06
7.47641e-07
5.03483e-07
7.18048e-06
6.06741e-07
5.3073e-07
6.33194e-06
4.26242e-07
5.44139e-06
4.99356e-07
2.74676e-07
-2.72608e-07
-5.1314e-07
7.42054e-06
3.40625e-07
4.92992e-07
-9.35868e-08
-6.55355e-07
8.02192e-06
6.36975e-07
1.11875e-07
-6.83356e-07
8.25393e-06
6.84754e-07
2.95608e-07
-6.68986e-07
8.0368e-06
6.5232e-07
3.77892e-07
-5.37807e-07
7.42357e-06
5.21456e-07
3.7527e-07
-3.7568e-07
6.57267e-06
3.75706e-07
-2.6486e-07
5.6633e-06
3.38642e-07
2.69551e-07
-4.15562e-07
-3.72368e-07
8.41485e-06
5.35799e-07
-1.17037e-07
-3.94352e-07
9.26096e-06
1.59463e-07
-3.41496e-07
9.58863e-06
3.96249e-07
-3.48186e-07
9.38183e-06
5.21731e-07
-3.50023e-07
8.48591e-06
4.91186e-07
-2.84682e-07
7.36454e-06
-2.05569e-07
6.23051e-06
4.16687e-07
-4.61107e-07
-1.12658e-07
9.1727e-06
6.73392e-07
-8.09988e-08
-9.69336e-08
1.02225e-05
2.174e-07
3.07297e-09
1.08512e-05
4.20052e-07
-4.99798e-08
1.07121e-05
6.10735e-07
-8.48974e-08
9.47625e-06
5.92834e-07
-1.12211e-07
7.94303e-06
-9.96359e-08
6.61256e-06
4.88291e-07
-4.31982e-07
1.26122e-07
9.35446e-06
7.02111e-07
3.18944e-08
1.08613e-07
1.05475e-05
2.77087e-07
2.99991e-08
1.14299e-05
3.99927e-07
8.76153e-08
1.12742e-05
6.24669e-07
8.18183e-08
9.87868e-06
6.23832e-07
6.75335e-08
8.13382e-06
1.83578e-08
6.72466e-06
5.14715e-07
-4.60189e-07
3.67029e-07
9.0148e-06
6.52874e-07
-6.91727e-08
4.2075e-07
1.00108e-05
2.31241e-07
3.54241e-07
1.07016e-05
4.26748e-07
3.79985e-07
1.05294e-05
6.23697e-07
3.53145e-07
9.27914e-06
5.96193e-07
2.29802e-07
7.83192e-06
1.22261e-07
6.53111e-06
4.97244e-07
-3.88449e-07
4.59114e-07
8.16986e-06
4.97679e-07
-1.17936e-07
5.90642e-07
8.94747e-06
1.51757e-07
6.26361e-07
9.26329e-06
3.80658e-07
5.97823e-07
9.06749e-06
5.09928e-07
4.68631e-07
8.22595e-06
4.93419e-07
2.97847e-07
7.16809e-06
1.74443e-07
6.07856e-06
4.34333e-07
-2.48065e-07
7.12192e-06
3.20646e-07
4.27541e-07
-8.34454e-08
7.68701e-06
5.44059e-07
1.13522e-07
7.90117e-06
5.88863e-07
2.88083e-07
7.70107e-06
5.52639e-07
3.80924e-07
7.12492e-06
4.31459e-07
3.94351e-07
6.3263e-06
2.90164e-07
5.45963e-06
3.74054e-07
1.76538e-07
-9.73244e-09
-6.22985e-09
7.38668e-06
-1.48861e-09
5.13134e-08
-2.93498e-08
-1.28984e-08
8.01583e-06
3.84526e-08
2.001e-09
-5.76264e-08
8.2295e-06
5.06128e-08
1.57718e-08
-5.016e-08
8.03149e-06
4.17274e-08
1.45924e-08
1.50619e-09
7.39966e-06
2.36425e-08
3.12719e-08
-7.96909e-09
6.53073e-06
3.31814e-08
-4.78522e-08
5.62466e-06
6.62434e-08
5.15355e-08
-3.67851e-08
-1.49728e-08
8.46287e-06
-2.65749e-09
-5.001e-08
-1.03847e-08
9.27164e-06
-5.23648e-08
-1.33741e-07
9.66712e-06
1.64082e-08
-9.62398e-08
9.35915e-06
-2.52612e-08
-3.24647e-08
8.56169e-06
-1.05777e-08
-1.45415e-08
7.35635e-06
-5.12378e-08
6.18688e-06
3.64158e-08
-7.42859e-08
2.94349e-09
9.21307e-06
1.5977e-08
-2.11365e-07
-4.89409e-08
1.03983e-05
-7.15817e-08
-3.84793e-08
1.06162e-05
7.67264e-09
2.86139e-08
1.0508e-05
-8.88337e-09
-4.18205e-09
9.46455e-06
-1.68118e-08
-4.09682e-08
7.97744e-06
-5.61877e-08
6.56811e-06
3.26703e-08
-1.86856e-07
-3.85993e-08
9.55228e-06
3.06878e-08
-2.52308e-07
3.22341e-08
1.05319e-05
-1.27883e-07
-3.14797e-09
1.12702e-05
2.36147e-09
1.97797e-08
1.11529e-05
3.26553e-08
4.17933e-09
9.83995e-06
7.78492e-09
-2.75245e-08
8.14526e-06
-4.9082e-08
6.67917e-06
4.62687e-08
-6.94055e-08
-4.24504e-08
9.07878e-06
9.37032e-09
-2.28334e-07
-2.91844e-08
1.02313e-05
-3.98881e-08
8.73174e-08
1.04227e-05
3.2914e-08
6.82271e-08
1.04081e-05
4.70269e-09
-1.88982e-08
9.33049e-06
3.34625e-09
-6.9228e-08
7.87501e-06
-4.97823e-08
6.48042e-06
5.48216e-08
-2.35337e-08
-5.63879e-08
8.20999e-06
-2.58203e-09
-6.41585e-08
-5.496e-08
9.01392e-06
-3.98276e-08
-1.10936e-08
9.33729e-06
3.49326e-08
-1.291e-08
9.07386e-06
-4.60082e-10
-7.08532e-08
8.31336e-06
2.71717e-08
-7.06322e-08
7.14192e-06
-4.91407e-08
6.02457e-06
8.05422e-08
-1.11186e-08
7.06486e-06
8.9177e-09
2.88536e-09
-1.71667e-08
7.65113e-06
-1.32013e-08
1.74178e-08
7.86252e-06
-7.05453e-09
4.50392e-08
7.67306e-06
-1.24857e-08
5.81991e-08
7.07736e-06
-3.63595e-08
8.44683e-08
6.26815e-06
-3.86838e-08
5.40765e-06
1.253e-07
-3.79834e-08
1.58711e-07
2.19479e-07
7.32451e-06
-1.80089e-07
-1.35966e-07
5.11855e-08
2.97373e-07
8.06237e-06
-2.36453e-07
-5.1276e-08
3.11991e-07
8.30237e-06
-2.82495e-07
-1.2589e-07
2.73531e-07
8.08534e-06
-2.52642e-07
-1.45825e-07
2.49218e-07
7.35853e-06
-1.87984e-07
-1.03159e-07
1.50516e-07
6.4359e-06
-9.83055e-08
3.30232e-08
5.53678e-06
-2.50211e-08
-2.331e-08
1.8599e-07
1.29059e-07
8.6282e-06
-2.60992e-07
1.39754e-08
1.2882e-07
9.6122e-06
-8.27324e-08
3.92205e-08
1.00366e-05
-1.95405e-07
6.76267e-08
9.67784e-06
-2.75777e-07
1.40228e-07
8.75123e-06
-2.17957e-07
1.21176e-07
7.32774e-06
8.54431e-09
6.08772e-06
-9.43939e-08
1.25299e-07
-1.11008e-08
9.53655e-06
-3.08785e-07
-8.44525e-08
-3.02628e-08
1.07671e-05
-1.69426e-07
-1.39221e-07
1.08797e-05
-2.07835e-07
-8.60259e-08
1.07002e-05
-3.22161e-07
-5.5073e-09
9.72471e-06
-2.84996e-07
-1.025e-08
8.07177e-06
-4.36788e-08
6.47102e-06
-1.35652e-07
4.61496e-08
-8.44675e-08
9.92098e-06
-3.41557e-07
-2.00195e-07
-4.84284e-08
1.07964e-05
-1.73901e-07
3.09291e-08
1.1074e-05
-1.33195e-07
2.63747e-08
1.09999e-05
-2.44507e-07
-7.0644e-08
1.00164e-05
-2.67167e-07
-1.05415e-07
8.26314e-06
-8.69498e-08
6.58351e-06
-1.282e-07
1.38539e-07
-2.23354e-07
9.3669e-06
-2.87799e-07
-5.3764e-08
-2.36415e-07
1.06116e-05
-1.94773e-07
-1.67797e-07
1.07626e-05
-1.93025e-07
-1.54113e-07
1.05868e-05
-2.83988e-07
-2.23985e-07
9.57484e-06
-2.41214e-07
-2.20024e-07
7.94689e-06
-1.26782e-07
6.37644e-06
-9.73865e-08
1.75226e-07
-2.70089e-07
8.29757e-06
-2.16083e-07
3.21164e-08
-3.57911e-07
9.27844e-06
-7.49133e-08
-3.78529e-07
9.65506e-06
-1.57468e-07
-3.27955e-07
9.33026e-06
-2.19257e-07
-3.13467e-07
8.46464e-06
-1.48772e-07
-2.27644e-07
7.07903e-06
-1.3427e-07
5.91619e-06
-3.29111e-08
1.22311e-07
6.96174e-06
-1.33157e-07
-1.56202e-07
5.4318e-08
7.60703e-06
-2.45858e-07
-1.84964e-08
7.84578e-06
-2.88889e-07
-5.96507e-08
7.64491e-06
-2.58617e-07
-6.73244e-08
6.99046e-06
-2.18908e-07
-2.27255e-08
6.15366e-06
-1.57773e-07
5.30945e-06
5.00938e-08
-1.0889e-07
7.42472e-08
-2.09802e-08
7.22128e-06
-3.56613e-08
8.55895e-08
5.90804e-08
7.05826e-09
8.01409e-06
5.67067e-08
2.89346e-09
6.74477e-08
8.2852e-06
6.05797e-09
-4.31611e-09
6.49736e-09
8.03277e-06
5.34001e-08
4.88401e-08
-5.29379e-08
7.25902e-06
9.93496e-08
1.07202e-07
-7.81036e-08
6.33594e-06
1.19745e-07
-1.08201e-07
5.47317e-06
1.55604e-07
1.23368e-07
2.28602e-08
-4.35429e-08
8.64473e-06
-1.64912e-08
-4.43818e-08
-6.36214e-08
9.75033e-06
1.38308e-08
-1.36029e-08
1.00596e-05
-1.59339e-08
-4.72865e-08
9.76155e-06
1.24441e-08
-6.90951e-08
8.73905e-06
8.00651e-08
-4.30842e-08
7.2251e-06
-8.82931e-08
5.9971e-06
1.50869e-07
-2.53441e-08
-1.14929e-07
9.65813e-06
-2.47756e-08
-3.26412e-08
-4.52852e-08
1.07561e-05
-8.6615e-08
-1.25662e-07
1.10458e-05
-6.26421e-08
-1.02399e-07
1.07315e-05
-2.05548e-08
-1.01597e-07
9.71516e-06
5.80047e-08
-6.17146e-08
8.01192e-06
-7.4238e-08
6.36563e-06
1.49344e-07
4.03047e-08
1.54671e-09
9.86809e-06
-1.03864e-07
-7.23988e-08
-4.78689e-08
1.09118e-05
-6.55626e-08
-9.79667e-09
1.09514e-05
3.51526e-08
3.23753e-08
1.07643e-05
1.44934e-08
-2.26007e-08
9.95822e-06
6.11331e-08
-7.63661e-08
8.23117e-06
-6.10802e-08
6.47129e-06
1.60164e-07
-4.21997e-08
-3.90824e-08
9.43956e-06
1.01993e-08
2.8474e-10
-2.84585e-08
1.05498e-05
-7.85161e-08
-9.25055e-08
1.09242e-05
-1.09912e-08
5.54531e-09
1.05461e-05
3.39931e-08
-2.46391e-08
9.53182e-06
1.10477e-07
-5.02998e-08
7.84432e-06
-2.82218e-08
6.26589e-06
1.88127e-07
7.37598e-09
-1.43793e-08
8.23333e-06
3.22189e-08
-2.27353e-08
-3.93611e-08
9.31946e-06
2.08087e-08
-1.16018e-07
9.6352e-06
1.26945e-08
-2.13931e-08
9.36525e-06
7.14215e-08
-5.35605e-09
8.38645e-06
1.46554e-07
1.32078e-09
6.95218e-06
8.0792e-09
5.81878e-06
2.07649e-07
2.61518e-08
6.83207e-06
1.52588e-08
7.38839e-08
4.81541e-08
7.49201e-06
5.38228e-08
2.14489e-08
7.74418e-06
1.23707e-08
6.27867e-08
7.52412e-06
5.80197e-08
1.20519e-07
6.85778e-06
6.94619e-08
1.77872e-07
6.04014e-06
5.7415e-08
5.23786e-06
2.21454e-07
3.60914e-08
-1.41257e-07
-4.55209e-07
7.08122e-06
2.58753e-07
4.77796e-07
1.62282e-08
-4.94825e-07
7.76895e-06
5.82721e-07
1.00456e-07
-3.82519e-07
8.01869e-06
5.64965e-07
2.57265e-07
-5.08146e-07
7.78241e-06
6.01629e-07
3.76558e-07
-5.07091e-07
7.09671e-06
5.49977e-07
4.17878e-07
-4.10485e-07
6.27364e-06
4.31478e-07
-3.04261e-07
5.47449e-06
3.99065e-07
3.21752e-07
-2.17063e-07
-3.00178e-07
8.2755e-06
4.31525e-07
-2.33463e-08
-2.90327e-07
9.35223e-06
1.55591e-07
-2.25242e-07
9.72344e-06
2.94201e-07
-3.10161e-07
9.42482e-06
4.61622e-07
-3.35527e-07
8.3999e-06
5.28909e-07
-3.00165e-07
7.04774e-06
-2.27407e-07
5.96041e-06
4.88983e-07
-2.16612e-07
-1.25472e-07
9.20174e-06
4.9844e-07
2.64204e-08
-6.69356e-08
1.02897e-05
1.46125e-07
-2.02192e-08
1.07211e-05
3.21136e-07
-1.56122e-07
1.04025e-05
4.62825e-07
-1.85214e-07
9.42325e-06
5.94539e-07
-1.30059e-07
7.7102e-06
-1.13689e-07
6.2944e-06
5.5215e-07
-1.3914e-07
8.62846e-08
9.40711e-06
3.88447e-07
7.35257e-08
4.92173e-08
1.05831e-05
3.08415e-07
5.95874e-08
1.06368e-05
3.97001e-07
1.21246e-07
1.03983e-05
4.27435e-07
9.46051e-08
9.64813e-06
5.97505e-07
2.60672e-08
7.90509e-06
3.99461e-10
6.3846e-06
5.70115e-07
-2.52634e-07
2.71122e-07
8.98356e-06
5.23924e-07
-1.85324e-08
2.77159e-07
1.00878e-05
1.83076e-07
2.62477e-07
1.05198e-05
3.60381e-07
2.93046e-07
1.01971e-05
5.21842e-07
2.66337e-07
9.19864e-06
6.26597e-07
2.20121e-07
7.54553e-06
1.24322e-07
6.19369e-06
5.74836e-07
-2.57671e-07
4.22334e-07
7.89477e-06
4.45105e-07
-5.03667e-08
4.99389e-07
8.89012e-06
1.58399e-07
4.17707e-07
9.27142e-06
3.23497e-07
5.09789e-07
8.98353e-06
5.02705e-07
4.55837e-07
8.01777e-06
5.60094e-07
3.30471e-07
6.78438e-06
2.05532e-07
5.77784e-06
5.19761e-07
-1.72223e-07
6.70666e-06
2.79805e-07
4.40289e-07
-3.62935e-09
7.27793e-06
5.45183e-07
1.08795e-07
7.50331e-06
5.46219e-07
2.845e-07
7.29644e-06
5.61747e-07
4.06444e-07
6.70769e-06
4.83897e-07
4.51547e-07
5.97611e-06
3.49336e-07
5.23152e-06
4.38382e-07
2.24999e-07
-2.75011e-07
-6.50711e-07
6.98692e-06
3.94254e-07
6.25811e-07
-4.51409e-08
-7.79748e-07
7.51164e-06
8.07041e-07
1.57328e-07
-7.56885e-07
7.72092e-06
8.5228e-07
3.68209e-07
-7.94575e-07
7.5227e-06
8.43334e-07
5.0505e-07
-7.38859e-07
6.97723e-06
7.21437e-07
5.13828e-07
-5.35723e-07
6.27203e-06
5.28564e-07
-3.63031e-07
5.52777e-06
4.53408e-07
3.70247e-07
-4.28519e-07
-4.47823e-07
7.8526e-06
6.4846e-07
-7.19926e-08
-4.70908e-07
8.68677e-06
2.36189e-07
-3.83451e-07
9.04195e-06
4.74628e-07
-4.42849e-07
8.83453e-06
6.93716e-07
-5.19708e-07
7.96152e-06
6.94798e-07
-4.049e-07
6.91606e-06
-2.72541e-07
5.98246e-06
5.82288e-07
-4.47487e-07
-1.26769e-07
8.54236e-06
7.85886e-07
9.99338e-09
-1.03592e-07
9.46477e-06
3.01296e-07
-2.68803e-08
1.00732e-05
5.63728e-07
-1.68911e-07
9.86613e-06
8.14102e-07
-2.33512e-07
8.88678e-06
8.25557e-07
-1.23361e-07
7.4172e-06
-1.16584e-07
6.28431e-06
6.79699e-07
-3.6771e-07
1.51228e-07
8.71128e-06
7.85449e-07
1.21184e-07
1.8333e-07
9.80718e-06
4.56339e-07
1.16821e-07
1.01579e-05
5.8804e-07
1.75544e-07
9.92238e-06
6.55632e-07
1.98418e-07
9.14885e-06
8.11743e-07
6.54922e-08
7.56029e-06
2.77043e-08
6.35863e-06
6.93474e-07
-4.6185e-07
4.47257e-07
8.36786e-06
7.81471e-07
-1.07702e-08
5.11824e-07
9.30806e-06
3.0817e-07
4.41103e-07
9.87658e-06
5.88704e-07
4.32757e-07
9.65962e-06
8.28073e-07
4.88473e-07
8.66937e-06
8.23857e-07
3.37628e-07
7.27773e-06
1.79545e-07
6.18351e-06
6.82227e-07
-4.27439e-07
6.02307e-07
7.55428e-06
6.12795e-07
-8.21105e-08
7.62952e-07
8.29374e-06
2.22935e-07
7.60088e-07
8.64759e-06
4.68996e-07
7.52858e-07
8.41758e-06
6.84932e-07
6.64163e-07
7.62631e-06
6.86294e-07
4.43812e-07
6.67693e-06
2.60279e-07
5.79485e-06
5.88544e-07
-2.72695e-07
6.6416e-06
3.82277e-07
5.57935e-07
-5.33489e-08
7.10038e-06
7.21347e-07
1.57534e-07
7.28462e-06
7.67963e-07
3.63309e-07
7.10477e-06
7.38797e-07
5.00113e-07
6.62026e-06
6.14865e-07
5.19601e-07
5.97461e-06
4.25908e-07
5.27355e-06
4.74102e-07
2.63771e-07
-1.74284e-07
-3.80873e-07
6.96671e-06
2.12557e-07
3.62829e-07
-5.5385e-08
-4.90905e-07
7.41722e-06
4.66627e-07
8.06679e-08
-5.12849e-07
7.58958e-06
5.08376e-07
2.07373e-07
-5.16361e-07
7.42103e-06
4.91351e-07
2.72443e-07
-4.36959e-07
6.9457e-06
4.03439e-07
2.69048e-07
-3.01873e-07
6.29091e-06
2.8633e-07
-2.04053e-07
5.56826e-06
2.35307e-07
1.97345e-07
-3.17724e-07
-2.87163e-07
7.70402e-06
3.72816e-07
-1.13427e-07
-3.1778e-07
8.30946e-06
9.7365e-08
-2.63022e-07
8.58153e-06
2.73933e-07
-2.74859e-07
8.41651e-06
3.82729e-07
-3.34648e-07
7.75039e-06
3.63236e-07
-2.47384e-07
6.88112e-06
-1.67576e-07
6.01067e-06
2.98552e-07
-3.78e-07
-8.61356e-08
8.22893e-06
4.90601e-07
-1.45788e-07
-6.42347e-08
8.97896e-06
1.0159e-07
3.52507e-08
9.52745e-06
2.93991e-07
-4.02643e-08
9.43916e-06
4.85955e-07
-9.63892e-08
8.4566e-06
4.49381e-07
-1.01962e-07
7.30835e-06
-9.00728e-08
6.29946e-06
3.56722e-07
-3.19976e-07
8.48853e-08
8.36118e-06
4.99028e-07
3.21245e-08
9.77589e-08
9.29293e-06
2.25216e-07
2.73526e-08
9.97251e-06
2.33152e-07
5.30371e-08
9.82122e-06
4.56092e-07
8.10925e-08
8.74845e-06
4.567e-07
3.3078e-08
7.42465e-06
-1.2745e-08
6.36797e-06
3.7007e-07
-3.48459e-07
2.42597e-07
8.09938e-06
4.59134e-07
-1.21273e-07
3.10235e-07
8.86839e-06
1.33107e-07
2.73648e-07
9.37588e-06
3.08903e-07
2.79733e-07
9.25726e-06
4.80663e-07
2.86098e-07
8.2927e-06
4.47665e-07
1.62338e-07
7.18152e-06
6.16864e-08
6.19439e-06
3.6235e-07
-2.79498e-07