/*--------------------------------*- C++ -*----------------------------------*\
| =========                 |                                                 |
| \\      /  F ield         | OpenFOAM: The Open Source CFD Toolbox           |
|  \\    /   O peration     | Version:  plus.master.MPPICInterFoam            |
|   \\  /    A nd           | Web:      www.OpenFOAM.com                      |
|    \\/     M anipulation  |                                                 |
\*---------------------------------------------------------------------------*/
FoamFile
{
    version     2.0;
    format      ascii;
    class       volVectorField;
    location    "8.2";
    object      U;
}
// * * * * * * * * * * * * * * * * * * * * * * * * * * * * * * * * * * * * * //

dimensions      [0 1 -1 0 0 0 0];

internalField   nonuniform List<vector> 
11821
(
(0.00732499 -0.00141161 0.527403)
(0.00753052 0.0028291 0.603116)
(0.00634565 0.000288043 0.483908)
(0.00551896 0.00683777 0.60896)
(0.00583101 0.00319709 0.516673)
(0.00572872 0.000717637 0.42323)
(-0.00308854 -0.00358867 0.590618)
(-0.00373882 -0.00339692 0.663921)
(-0.00355376 -0.00454408 0.697303)
(-0.00247627 -0.00463678 0.673642)
(-0.00175803 -0.00371592 0.600834)
(-0.000789972 -0.00398333 0.511671)
(0.000833735 -0.00353595 0.421388)
(-0.00254348 -0.00363564 0.711453)
(-0.00477428 -0.00688797 0.819698)
(-0.00494903 -0.0127683 0.871314)
(-0.00325862 -0.0114995 0.833597)
(-0.00340011 -0.00592279 0.731096)
(-0.00255178 -0.00506306 0.595581)
(9.88501e-05 -0.00464848 0.479326)
(-0.00587316 -0.00564664 0.813863)
(-0.0114976 -0.0112406 0.966468)
(-0.00795183 -0.016348 1.03195)
(-8.37144e-05 -0.0152697 0.992297)
(0.000697569 -0.00873057 0.840337)
(-0.00131695 -0.00639706 0.666285)
(0.000915435 -0.00532404 0.521869)
(-0.0101964 -0.00539795 0.858144)
(-0.0154016 -0.00713634 1.01953)
(-0.00998865 -0.00546201 1.20032)
(0.0039 -0.00498982 1.13991)
(0.00601009 -0.00544243 0.902279)
(0.00208124 -0.00503097 0.698402)
(0.00270538 -0.00442152 0.538776)
(-0.00964577 -0.00339976 0.816957)
(-0.011905 -0.000948519 0.980497)
(-0.00612007 0.00594755 1.12752)
(0.00311332 0.00636329 1.07915)
(0.00463732 -0.000832087 0.854035)
(0.00278101 -0.00219788 0.672868)
(0.00370068 -0.00252312 0.524076)
(-0.00622306 -0.00217295 0.713602)
(-0.00735953 0.000404766 0.829912)
(-0.00481038 0.0044824 0.898832)
(-0.000692667 0.00443687 0.861502)
(0.00114957 -0.000260208 0.746292)
(0.00193973 -0.000761526 0.600195)
(0.00376572 -0.00117809 0.481104)
(-0.00530449 5.0241e-05 0.58991)
(-0.00529753 0.000639582 0.665327)
(-0.00331374 0.00303036 0.701506)
(-0.000124074 0.00302818 0.67941)
(0.00180848 0.000563099 0.604804)
(0.00297102 0.000231778 0.512885)
(0.00430446 -0.000504218 0.421184)
(-0.00562062 -0.00785175 0.586095)
(-0.00459845 -0.00789974 0.659688)
(-0.00352638 -0.00717104 0.694008)
(-0.00157026 -0.00795514 0.66857)
(0.000866119 -0.00783491 0.594989)
(0.00295813 -0.00701858 0.507366)
(0.00445319 -0.00556615 0.419961)
(-0.00560223 -0.00595242 0.711273)
(-0.0052646 -0.00676822 0.846557)
(-0.00524448 -0.00770686 0.909016)
(-0.0036492 -0.00854057 0.86687)
(-0.00146931 -0.00657557 0.731737)
(0.00239917 -0.00669687 0.589092)
(0.00475929 -0.00580588 0.475635)
(-0.00603925 -0.00608326 0.835374)
(-0.00767648 -0.00935271 1.01662)
(-0.00739852 -0.0146613 1.0378)
(-0.0044666 -0.0142129 1.01356)
(-0.00130453 -0.00837318 0.862289)
(0.0024098 -0.00668934 0.659046)
(0.00565601 -0.00547655 0.516251)
(-0.00802303 -0.00547832 0.891355)
(-0.014934 -0.00767667 1.0779)
(-0.0113785 -0.0100746 1.12057)
(-0.00161158 -0.0100982 1.06873)
(0.0029943 -0.00731603 0.906176)
(0.00401786 -0.00537661 0.68903)
(0.00696522 -0.0041544 0.531764)
(-0.00960989 -0.00277377 0.833835)
(-0.0127849 -0.00362627 1.00992)
(-0.00942509 -0.000819011 1.11171)
(-0.000549632 -0.00075606 1.05961)
(0.00502826 -0.00323 0.862873)
(0.00609957 -0.00200512 0.661603)
(0.00805244 -0.00174977 0.516999)
(-0.0080243 0.000159387 0.707457)
(-0.00746275 -0.00112396 0.844133)
(-0.00656601 0.00112153 0.906743)
(-0.00288283 0.00283713 0.867903)
(0.00180693 3.99452e-05 0.733892)
(0.00584399 0.00110745 0.589321)
(0.00754218 0.000464142 0.474839)
(-0.0067615 0.00387638 0.580075)
(-0.00568749 0.00374538 0.653624)
(-0.00374796 0.00485419 0.688366)
(-8.85149e-05 0.00543547 0.665224)
(0.00341854 0.00417397 0.592435)
(0.0057233 0.00310648 0.504286)
(0.00702979 0.00167983 0.416837)
(-0.0114103 -0.016824 0.581606)
(-0.00782499 -0.0204576 0.649953)
(-0.00306682 -0.0205775 0.680967)
(0.00250512 -0.0203368 0.65565)
(0.00719843 -0.0168642 0.587133)
(0.00906599 -0.0121388 0.504774)
(0.00911235 -0.00846868 0.421299)
(-0.0159581 -0.0153896 0.698136)
(-0.0107867 -0.0176111 0.830439)
(-0.00481131 -0.015304 0.884239)
(0.00243744 -0.0164305 0.846115)
(0.00950509 -0.0150775 0.712403)
(0.0123884 -0.0113917 0.581102)
(0.0115104 -0.00813542 0.474324)
(-0.017797 -0.0111527 0.819034)
(-0.0106353 -0.0132393 0.986371)
(-0.00550617 -0.0132017 1.06967)
(0.00064234 -0.012631 1.01287)
(0.00970478 -0.010795 0.839912)
(0.0149161 -0.00850542 0.645169)
(0.0139115 -0.00628617 0.512469)
(-0.017442 -0.00528427 0.866478)
(-0.0118202 -0.00836335 1.03609)
(-0.00640693 -0.0130215 1.08704)
(0.00122937 -0.0116651 1.05129)
(0.0101099 -0.0068255 0.886924)
(0.0155085 -0.00443035 0.670678)
(0.0150994 -0.00337213 0.52638)
(-0.0208863 0.00318809 0.812681)
(-0.0172718 0.00130076 0.986241)
(-0.00800969 -0.00626095 1.09248)
(0.00550883 -0.00289607 1.02513)
(0.0148291 0.000970008 0.832607)
(0.0172601 0.00136762 0.643628)
(0.015463 0.000383028 0.511397)
(-0.0171033 0.0103746 0.689007)
(-0.0119368 0.0115555 0.817025)
(-0.00528281 0.0103148 0.87689)
(0.00343942 0.0119092 0.831986)
(0.0113089 0.00949704 0.703418)
(0.0142982 0.00649817 0.576772)
(0.0132642 0.00357512 0.470928)
(-0.0116323 0.0128352 0.571053)
(-0.00798918 0.0160533 0.637819)
(-0.00282524 0.0167847 0.668185)
(0.00352667 0.0164008 0.644746)
(0.00869891 0.012682 0.578593)
(0.0108041 0.00829711 0.4978)
(0.0108972 0.004917 0.415501)
(-0.0104067 -0.0150351 0.580953)
(-0.00747981 -0.0195422 0.641476)
(-0.00237173 -0.0208177 0.66648)
(0.00341772 -0.0197306 0.643791)
(0.00729187 -0.0149677 0.583882)
(0.00803925 -0.00994924 0.505969)
(0.0077403 -0.00691057 0.424716)
(-0.0155745 -0.0145496 0.681238)
(-0.01114 -0.0173685 0.778069)
(-0.00415433 -0.0171915 0.832098)
(0.00452609 -0.0174031 0.783736)
(0.0108262 -0.0143924 0.685444)
(0.0115326 -0.00979937 0.578005)
(0.00953443 -0.00675332 0.476009)
(-0.0179485 -0.0096609 0.77182)
(-0.0129979 -0.0113282 0.943505)
(-0.00585859 -0.0116159 1.02013)
(0.00402465 -0.0109555 0.95447)
(0.0123652 -0.00930259 0.782989)
(0.014731 -0.00698072 0.633624)
(0.0117163 -0.00510885 0.512088)
(-0.0169944 -0.0035188 0.816145)
(-0.011989 -0.00677826 0.99844)
(-0.00608486 -0.0124695 1.07208)
(0.00264856 -0.00757977 1.01057)
(0.0113187 -0.00377752 0.828796)
(0.0154593 -0.00267843 0.654675)
(0.0126653 -0.00235565 0.524657)
(-0.0184048 0.00391566 0.762884)
(-0.0144682 0.00200027 0.913902)
(-0.00540269 -0.00416372 0.962768)
(0.00612293 0.0010659 0.909485)
(0.0134345 0.00331365 0.771839)
(0.015353 0.00207262 0.629768)
(0.0122065 0.000661203 0.509482)
(-0.0150093 0.00996313 0.669852)
(-0.0105129 0.0121422 0.759713)
(-0.00340735 0.0120467 0.800943)
(0.00510484 0.0121783 0.7642)
(0.0112274 0.00968133 0.673834)
(0.0120663 0.00544793 0.57087)
(0.0104115 0.00282598 0.47045)
(-0.00972864 0.0109549 0.566884)
(-0.00661158 0.0145534 0.625527)
(-0.00163505 0.0155198 0.649216)
(0.00392391 0.0145444 0.628794)
(0.00791742 0.0104297 0.571572)
(0.00903791 0.00624218 0.495906)
(0.00897176 0.0036168 0.416541)
(-0.00362967 -0.00515398 0.58125)
(-0.00339641 -0.00765668 0.640131)
(-0.00110276 -0.00920739 0.662039)
(0.0014451 -0.00730177 0.641766)
(0.00195021 -0.00394129 0.583771)
(0.00198279 -0.00286469 0.505794)
(0.00296403 -0.00288777 0.424815)
(-0.00646484 -0.00652528 0.679031)
(-0.00675758 -0.010933 0.766258)
(-0.00198346 -0.0132231 0.804955)
(0.00337275 -0.0109808 0.767397)
(0.00351216 -0.00578412 0.68082)
(0.0015488 -0.00308163 0.578298)
(0.002128 -0.00310119 0.475337)
(-0.010609 -0.00596526 0.763027)
(-0.0118742 -0.00995161 0.90508)
(-0.00302259 -0.0120839 0.994607)
(0.00697885 -0.00988944 0.90773)
(0.00683876 -0.00520622 0.768706)
(0.00355076 -0.00295343 0.631703)
(0.00238784 -0.00283741 0.510302)
(-0.0109907 -0.00131665 0.800553)
(-0.0118856 -0.000344244 0.984568)
(-0.00338375 -0.00186735 1.05807)
(0.00663065 0.000258199 0.984731)
(0.00742964 -0.000743103 0.804856)
(0.00474673 -0.00150598 0.650358)
(0.00281866 -0.00178506 0.521998)
(-0.00760118 0.00214738 0.753182)
(-0.00653168 0.00572655 0.88151)
(-0.00216567 0.00455083 0.922194)
(0.00296391 0.00609509 0.886214)
(0.00446791 0.00199703 0.757714)
(0.00291529 -0.000592443 0.627896)
(0.00244055 -0.000837143 0.50653)
(-0.00450084 0.00155336 0.6648)
(-0.00372289 0.00425707 0.749225)
(-0.00117276 0.00447062 0.783942)
(0.00186375 0.0039165 0.751594)
(0.0028391 0.00087877 0.669931)
(0.00154019 -0.000973563 0.568447)
(0.00292622 -0.000486552 0.467875)
(-0.00294223 0.00143195 0.562938)
(-0.0021263 0.00233227 0.619591)
(-0.000378555 0.00256558 0.641304)
(0.00154528 0.00184751 0.62304)
(0.00256033 -0.00041092 0.567456)
(0.00303178 -0.000389551 0.49287)
(0.00419774 -0.000153245 0.414521)
(-0.00120006 -0.00284594 0.580338)
(-0.0010808 -0.00380603 0.64877)
(-0.000245137 -0.00451353 0.671602)
(0.000906969 -0.00315408 0.651832)
(0.00105326 -0.00159411 0.584714)
(0.00179436 -0.00238082 0.501119)
(0.00349229 -0.00301197 0.42055)
(-0.00283286 -0.00389735 0.698128)
(-0.00362541 -0.00789593 0.792487)
(-0.000760858 -0.010717 0.822494)
(0.00237869 -0.00808573 0.794425)
(0.0010008 -0.00322167 0.703257)
(-8.08363e-05 -0.00196504 0.579657)
(0.00255624 -0.00288252 0.470139)
(-0.00681406 -0.00507879 0.786162)
(-0.00882554 -0.009719 0.897603)
(-0.00151111 -0.0109175 0.919665)
(0.00629733 -0.0103138 0.898887)
(0.00447637 -0.00466616 0.793806)
(0.00118398 -0.00244524 0.642281)
(0.00249608 -0.00266085 0.504893)
(-0.00816167 -0.00125967 0.813836)
(-0.00984776 -0.000323068 0.937461)
(-0.00204987 0.00103617 0.971785)
(0.0071773 -0.000114414 0.934735)
(0.00748795 -0.00103216 0.820679)
(0.00274273 -0.00185102 0.661951)
(0.00283076 -0.00187231 0.516368)
(-0.00508428 0.00164569 0.774846)
(-0.00504106 0.00661896 0.890162)
(-0.00120925 0.0096561 0.937259)
(0.00332036 0.0073558 0.893191)
(0.00390574 0.00117566 0.782726)
(0.00142491 -0.00125168 0.637401)
(0.0031607 -0.000977352 0.500019)
(-0.0022236 1.82918e-05 0.675801)
(-0.00187072 0.00240755 0.769473)
(-0.000231229 0.00392517 0.801811)
(0.0014063 0.00294758 0.770366)
(0.00119489 -0.00121041 0.691156)
(0.00124689 -0.00138146 0.565701)
(0.00385566 -0.000392739 0.461145)
(-0.00156989 0.000775192 0.556884)
(-0.00092047 0.000902168 0.618433)
(0.000130628 0.00130228 0.641425)
(0.00155322 0.000571622 0.623481)
(0.00244244 -0.000793824 0.562381)
(0.00341824 -9.02554e-05 0.485304)
(0.00503177 0.000306845 0.40855)
(-0.0054073 -0.0108163 0.570734)
(-0.00183662 -0.0119464 0.639952)
(0.000819313 -0.0103862 0.665035)
(0.00320049 -0.0108346 0.642196)
(0.00619288 -0.0108251 0.574914)
(0.00859451 -0.00924122 0.493965)
(0.00966036 -0.00743213 0.416894)
(-0.00764749 -0.008835 0.691925)
(-0.00368468 -0.0101374 0.785059)
(-0.00011878 -0.00849426 0.812216)
(0.00375146 -0.0092429 0.786722)
(0.00683666 -0.00905009 0.701037)
(0.00959881 -0.00734717 0.569898)
(0.0112573 -0.0061823 0.464369)
(-0.00914358 -0.00647082 0.777089)
(-0.00496626 -0.00813859 0.881292)
(-0.000761995 -0.00769376 0.91469)
(0.00379347 -0.00758364 0.88136)
(0.0074776 -0.00704297 0.783896)
(0.0102164 -0.00504036 0.633218)
(0.0123624 -0.00422856 0.497458)
(-0.00959651 -0.00183462 0.800865)
(-0.00647332 -0.00217742 0.907587)
(0.000263718 -0.0013235 0.927137)
(0.00663414 -0.00127897 0.891872)
(0.00904339 -0.00209446 0.807374)
(0.0103076 -0.00234099 0.65352)
(0.0126415 -0.00192449 0.508)
(-0.0100437 0.00329184 0.762887)
(-0.00603106 0.00437572 0.870068)
(-0.000316711 0.00622002 0.908238)
(0.00595948 0.00538023 0.873009)
(0.00972679 0.00299014 0.772427)
(0.0115331 0.00125533 0.624173)
(0.013433 0.000769014 0.492117)
(-0.00873402 0.00683743 0.664767)
(-0.00444035 0.00812824 0.756886)
(-1.44614e-05 0.00970563 0.791916)
(0.00437659 0.00885833 0.763314)
(0.00810668 0.00606231 0.676874)
(0.0113734 0.0048246 0.554038)
(0.0125588 0.00333471 0.454493)
(-0.00639676 0.00980234 0.5463)
(-0.00312195 0.0114151 0.606834)
(0.000549965 0.0120973 0.630621)
(0.00446481 0.0111842 0.610111)
(0.00784352 0.00963914 0.550407)
(0.0101021 0.007243 0.476818)
(0.0110457 0.00496434 0.403931)
(-0.0113242 -0.0192185 0.559507)
(-0.00516876 -0.0233886 0.620833)
(0.00150165 -0.0230719 0.643805)
(0.00741892 -0.0225828 0.622234)
(0.0123214 -0.0198028 0.562236)
(0.014494 -0.0147822 0.48915)
(0.0140654 -0.0106458 0.417421)
(-0.0163925 -0.0162175 0.665692)
(-0.00694849 -0.0190733 0.770378)
(0.00275471 -0.0162872 0.800865)
(0.00988106 -0.0165639 0.77383)
(0.0156745 -0.015434 0.677344)
(0.0189826 -0.0122205 0.557353)
(0.0178791 -0.00882308 0.461936)
(-0.0187732 -0.00914281 0.751835)
(-0.00537417 -0.00955409 0.861712)
(0.00528752 -0.00644758 0.89029)
(0.0113598 -0.00702892 0.857237)
(0.0172715 -0.00839389 0.76265)
(0.0211089 -0.00682045 0.614068)
(0.0205738 -0.00532782 0.49266)
(-0.0177233 -0.000641822 0.770937)
(-0.00357271 -0.000975335 0.885414)
(0.00713633 -0.00046449 0.892087)
(0.012197 -0.00107533 0.873556)
(0.0152062 -0.00131524 0.785734)
(0.019606 -0.00129607 0.63175)
(0.0208999 -0.00136266 0.502084)
(-0.0189134 0.00823075 0.73523)
(-0.00623656 0.00821912 0.849368)
(0.00501111 0.00614742 0.871906)
(0.0120019 0.00568861 0.844499)
(0.0183732 0.00675017 0.754246)
(0.0217753 0.00467632 0.60292)
(0.0209747 0.00278085 0.48691)
(-0.0162274 0.0152176 0.638373)
(-0.00746973 0.0178464 0.731124)
(0.00223738 0.016639 0.764449)
(0.00990294 0.0158246 0.736323)
(0.0158864 0.0140005 0.648147)
(0.019245 0.0102699 0.541158)
(0.018234 0.00637754 0.451485)
(-0.01111 0.0176765 0.535722)
(-0.00550398 0.0218192 0.589118)
(0.0012215 0.0225305 0.610531)
(0.00760475 0.0213051 0.591377)
(0.012514 0.0178091 0.538031)
(0.0148328 0.0125106 0.471574)
(0.0147285 0.00810246 0.403754)
(-0.00936259 -0.0148826 0.552098)
(-0.00528969 -0.0190332 0.597634)
(0.000286192 -0.02008 0.615997)
(0.00584582 -0.0192576 0.599601)
(0.00980945 -0.0155908 0.552928)
(0.0108162 -0.0110071 0.488787)
(0.0101046 -0.00783868 0.420774)
(-0.0140065 -0.0127308 0.626888)
(-0.00754085 -0.0149455 0.692456)
(0.000674404 -0.0145158 0.720364)
(0.00801247 -0.0145781 0.706138)
(0.0130229 -0.0125926 0.63407)
(0.0147508 -0.00961272 0.548428)
(0.0128505 -0.0068008 0.463206)
(-0.0163897 -0.00667673 0.684771)
(-0.00762481 -0.00609859 0.764216)
(0.00209825 -0.0033549 0.82063)
(0.0093477 -0.0047557 0.813382)
(0.0146931 -0.005954 0.716166)
(0.0171991 -0.00551971 0.592521)
(0.0153639 -0.0043569 0.49193)
(-0.0163866 0.00024032 0.69959)
(-0.00546349 0.000500874 0.78531)
(0.00483555 0.000550915 0.850426)
(0.0100974 0.000773934 0.844878)
(0.0145719 0.000117581 0.744307)
(0.0175713 -0.000589535 0.606982)
(0.016199 -0.00110793 0.500421)
(-0.0160085 0.00686809 0.67237)
(-0.00773689 0.00715388 0.748472)
(0.00231554 0.00416703 0.814573)
(0.00996713 0.00621926 0.797271)
(0.0147736 0.00609579 0.697291)
(0.0174792 0.00424723 0.584422)
(0.015486 0.00211947 0.486083)
(-0.013118 0.0120217 0.609017)
(-0.0072143 0.0143769 0.668044)
(0.00048797 0.0139361 0.696604)
(0.00771111 0.0138474 0.680734)
(0.0127014 0.0117519 0.614924)
(0.014547 0.00779798 0.533999)
(0.013084 0.00440117 0.452289)
(-0.00868228 0.0130446 0.530406)
(-0.0048767 0.0167694 0.573133)
(0.000405151 0.0179246 0.589803)
(0.00580341 0.0168675 0.574863)
(0.00970024 0.0132432 0.531093)
(0.0110711 0.00865389 0.470948)
(0.0108485 0.00526933 0.406176)
(-6.01198e-05 -0.000564541 0.550443)
(-0.000752292 -0.000609547 0.595109)
(-0.000490988 -0.0010343 0.611212)
(0.000410767 -0.00114018 0.595514)
(0.000556475 -8.78274e-05 0.550315)
(0.000475349 -0.000373939 0.487659)
(0.00120384 -0.00124334 0.420669)
(-0.000583213 -0.000375852 0.624902)
(-0.00145683 -0.000258047 0.682916)
(-0.00155347 -0.00298157 0.704457)
(-0.000352837 -0.00224222 0.6872)
(0.000284812 -0.000786083 0.628466)
(-0.000645127 -0.00028775 0.546115)
(0.000101792 -0.00134734 0.462394)
(-0.00114228 -0.000251115 0.6783)
(-0.00449688 -0.00120348 0.753514)
(-0.00388681 -0.00249379 0.788047)
(-0.00061915 -0.00119265 0.774404)
(0.000270403 -0.000505746 0.691577)
(-9.44037e-05 -0.000838288 0.588859)
(-0.00011821 -0.00153292 0.490418)
(-0.0032095 -0.000364519 0.691398)
(-0.00620405 -0.000102124 0.777906)
(-0.00569436 -0.000388306 0.843494)
(-0.00124889 0.00100329 0.824938)
(0.000838522 9.85209e-05 0.721176)
(0.000765448 -0.00094378 0.602351)
(0.000460255 -0.00145453 0.498594)
(-0.00106216 -0.000887929 0.667697)
(-0.00476009 0.000786694 0.738359)
(-0.00379034 0.00139202 0.772426)
(0.000306451 0.00159399 0.763651)
(0.000840958 -0.000151833 0.681291)
(0.000339329 -0.00116583 0.580438)
(0.000460741 -0.00131578 0.484166)
(-0.000296035 -0.00128802 0.60611)
(-0.00152851 -0.000935422 0.66213)
(-0.00159102 0.00168157 0.680815)
(0.000140336 0.0010447 0.666951)
(0.000960376 -0.000836574 0.609303)
(0.000120192 -0.0019698 0.531183)
(0.0012206 -0.00141027 0.450757)
(-0.000191004 -0.00107604 0.527639)
(-0.000592495 -0.00132353 0.569392)
(-0.000136974 -0.00070477 0.584811)
(0.000986601 -0.000618987 0.570012)
(0.00153487 -0.00185876 0.527623)
(0.0018342 -0.00173164 0.468915)
(0.00276947 -0.00130154 0.405031)
(0.00525109 0.00570565 0.547564)
(0.00288769 0.00814527 0.597327)
(-0.000118521 0.00913257 0.613176)
(-0.00247167 0.00802678 0.59917)
(-0.00397706 0.00670009 0.549609)
(-0.0037944 0.00391712 0.482723)
(-0.00193637 0.00110496 0.415078)
(0.00648872 0.00495414 0.634586)
(0.00256667 0.00600649 0.698853)
(-0.00127178 0.00489065 0.73561)
(-0.00375426 0.00462072 0.707529)
(-0.0064805 0.00547944 0.646024)
(-0.00735248 0.0040956 0.547218)
(-0.00461874 0.000788292 0.456843)
(0.00630199 0.00136878 0.694504)
(0.000146162 0.000664484 0.791895)
(-0.00389523 -0.00258825 0.792843)
(-0.0051524 -0.00113202 0.788321)
(-0.00732261 0.0015151 0.716936)
(-0.00864178 0.00146788 0.597621)
(-0.00624715 -0.000426925 0.485536)
(0.00588817 -0.00136847 0.730586)
(-0.00304281 -0.00104545 0.792507)
(-0.0054999 -0.00111496 0.826554)
(-0.00424244 -0.000539218 0.828648)
(-0.00494663 -0.00117028 0.741694)
(-0.00709419 -0.00165601 0.609667)
(-0.00596819 -0.00184725 0.493883)
(0.00620056 -0.00404543 0.684981)
(0.000846034 -0.00329311 0.782418)
(-0.00370026 -0.000233526 0.779869)
(-0.0054746 -0.000721522 0.783208)
(-0.00647994 -0.0038414 0.707472)
(-0.00753644 -0.0045076 0.590423)
(-0.00507152 -0.00302928 0.478727)
(0.00580464 -0.00709492 0.615004)
(0.00280284 -0.00841183 0.680442)
(-0.00087687 -0.00763347 0.710225)
(-0.00317432 -0.00661613 0.684505)
(-0.00516415 -0.00759841 0.627581)
(-0.00557901 -0.00652652 0.530158)
(-0.00277046 -0.00380339 0.444363)
(0.00403949 -0.00657862 0.522411)
(0.00248702 -0.00918778 0.568206)
(0.000345386 -0.010226 0.58438)
(-0.0011912 -0.00896192 0.570767)
(-0.00191492 -0.00801587 0.52421)
(-0.0015256 -0.00572802 0.462443)
(0.000216823 -0.00359303 0.398479)
(0.00179636 -0.00123812 0.54181)
(0.00202558 -0.000264675 0.601066)
(0.000686512 0.00124046 0.621436)
(-0.000312471 -0.000257403 0.602396)
(0.000437442 -0.00192248 0.544496)
(0.00215347 -0.00273814 0.474633)
(0.00381214 -0.00326879 0.408479)
(0.000968 -0.000631822 0.647578)
(-0.000214515 -0.000536919 0.730883)
(-0.000569062 0.00164874 0.754184)
(8.32211e-05 -0.00030063 0.731763)
(-0.000200257 -0.00149119 0.654232)
(0.00111965 -0.00152067 0.542242)
(0.00340996 -0.00268655 0.448716)
(0.000299928 -0.00244596 0.723603)
(-0.000605439 -0.0016083 0.807258)
(-0.00213363 -0.00281487 0.829666)
(-0.00218575 -0.00272239 0.805478)
(-0.00128347 -0.00262599 0.729133)
(0.000331589 -0.00145354 0.601612)
(0.00310958 -0.00223685 0.476982)
(0.00316307 -0.00137353 0.740855)
(-0.0011012 -0.00125154 0.816014)
(-0.00221693 -0.00181403 0.825073)
(-0.000618415 -0.00091199 0.811082)
(0.000731481 -0.0016699 0.748836)
(0.00100314 -0.00200846 0.618579)
(0.00322021 -0.00193345 0.485308)
(-0.000539414 -0.000264544 0.707341)
(-0.000220121 -0.00115166 0.793409)
(-0.00157416 -0.000676794 0.824046)
(-0.00148622 0.00108689 0.793004)
(0.000373146 -0.000334239 0.716356)
(0.0018464 -0.00182915 0.59004)
(0.00435196 -0.00128487 0.469759)
(-7.64042e-05 -0.00117357 0.617873)
(-6.50961e-05 -0.00122591 0.698228)
(-0.00021498 -0.00371106 0.722907)
(0.000416107 -0.000383454 0.703138)
(0.00102486 -0.000685381 0.629101)
(0.0030028 -0.000778439 0.522517)
(0.00509819 -0.000280072 0.435702)
(0.000292985 0.000788574 0.513059)
(0.00116299 -5.63689e-05 0.562685)
(0.000848901 -0.00161894 0.582058)
(0.000943137 0.000193985 0.565532)
(0.00244519 0.000895885 0.515336)
(0.00418155 0.000921825 0.452941)
(0.00568946 0.000760235 0.391268)
(-0.00616589 -0.0135647 0.532769)
(-0.00146183 -0.0155108 0.589879)
(0.00181255 -0.0138733 0.609314)
(0.00485596 -0.0157971 0.591308)
(0.00890041 -0.0151945 0.535229)
(0.0114002 -0.0122747 0.468592)
(0.0118283 -0.0092419 0.406274)
(-0.00965265 -0.0107352 0.635636)
(-0.00312101 -0.0112282 0.716379)
(0.00196727 -0.00825675 0.741211)
(0.00622754 -0.0116205 0.717999)
(0.010586 -0.0118864 0.642766)
(0.0140816 -0.0100393 0.532225)
(0.0146844 -0.00759871 0.444105)
(-0.0105419 -0.00597818 0.709527)
(-0.00195662 -0.00460072 0.792716)
(0.00275649 -0.00297627 0.811981)
(0.00641203 -0.00659177 0.790339)
(0.0110718 -0.00749262 0.715522)
(0.0147718 -0.0060907 0.588267)
(0.0165386 -0.0047896 0.470544)
(-0.00747656 -0.000563352 0.72606)
(-0.000459107 -0.000214072 0.804443)
(0.00547731 0.000629293 0.807985)
(0.00948235 -0.000498836 0.791586)
(0.0117776 -0.00131148 0.732784)
(0.0142831 -0.001569 0.603701)
(0.0167943 -0.00163327 0.477936)
(-0.0114769 0.00502867 0.69359)
(-0.00333691 0.0041451 0.776506)
(0.00258378 0.00424348 0.799312)
(0.00755224 0.00586181 0.776325)
(0.0125718 0.0053353 0.700713)
(0.0160367 0.003489 0.575282)
(0.0172496 0.00176982 0.46296)
(-0.0104631 0.00988936 0.605018)
(-0.0041544 0.0111053 0.685214)
(0.00159852 0.00942516 0.709135)
(0.00671792 0.0115054 0.687398)
(0.0116116 0.0102122 0.615821)
(0.0151809 0.00790644 0.51165)
(0.0155011 0.00485997 0.430562)
(-0.00691415 0.0126731 0.503823)
(-0.00236855 0.015128 0.55146)
(0.00156326 0.0141384 0.569227)
(0.00544698 0.0153418 0.553232)
(0.0097489 0.0137245 0.505005)
(0.0123107 0.0101052 0.446254)
(0.0128056 0.00657255 0.388458)
(-0.010382 -0.0187781 0.521406)
(-0.00455352 -0.0231055 0.566359)
(0.00167654 -0.0234026 0.584093)
(0.0074019 -0.0235232 0.567168)
(0.0124797 -0.0210781 0.521474)
(0.0147123 -0.0156472 0.465586)
(0.0139191 -0.0108882 0.408891)
(-0.0160702 -0.0158524 0.59611)
(-0.00711531 -0.0183279 0.674501)
(0.00257265 -0.0166319 0.705159)
(0.0102088 -0.018182 0.684212)
(0.0166456 -0.0179701 0.607582)
(0.0198434 -0.0135095 0.517256)
(0.0183298 -0.00921018 0.443475)
(-0.0184682 -0.00812736 0.659549)
(-0.00565523 -0.00752728 0.739862)
(0.00514918 -0.00423407 0.782324)
(0.0123844 -0.00824184 0.759034)
(0.0199622 -0.0109887 0.687114)
(0.0227959 -0.00752033 0.559882)
(0.0215555 -0.00550022 0.466809)
(-0.017523 0.000437182 0.674611)
(-0.00277731 0.00121307 0.770049)
(0.00886885 0.00152004 0.776936)
(0.0142805 0.000117785 0.758911)
(0.0179918 -0.000422136 0.703862)
(0.0206272 -0.000834617 0.572651)
(0.0215405 -0.0012353 0.472774)
(-0.0185526 0.00860839 0.643144)
(-0.0064185 0.00960032 0.725568)
(0.00489274 0.0068687 0.765777)
(0.0129646 0.00849104 0.742796)
(0.0204436 0.0101948 0.668245)
(0.0229839 0.00581941 0.548463)
(0.0215369 0.00301867 0.459366)
(-0.0154718 0.0151017 0.570367)
(-0.00733525 0.0184691 0.637684)
(0.00216001 0.0174396 0.669973)
(0.0100073 0.017331 0.648926)
(0.0163796 0.0163971 0.578352)
(0.0196602 0.0113819 0.498611)
(0.018252 0.00652932 0.429786)
(-0.0101166 0.0170905 0.494759)
(-0.00472301 0.0215872 0.532142)
(0.00151287 0.0221587 0.547866)
(0.00737434 0.0215174 0.533125)
(0.0123506 0.0186173 0.493843)
(0.0146864 0.0129108 0.443613)
(0.014249 0.00794951 0.390503)
(-0.00601752 -0.0110396 0.517834)
(-0.00334631 -0.0141716 0.551624)
(0.000328133 -0.0151549 0.564873)
(0.00408449 -0.0147707 0.552316)
(0.00698494 -0.0123218 0.516449)
(0.00783801 -0.00864504 0.467213)
(0.00716673 -0.00590275 0.413327)
(-0.0101989 -0.00964298 0.57314)
(-0.00611587 -0.0114414 0.618588)
(-0.00026701 -0.0110204 0.64082)
(0.00528878 -0.0113128 0.629752)
(0.00944043 -0.0110731 0.577718)
(0.0109246 -0.00803854 0.511687)
(0.00942699 -0.00540017 0.446291)
(-0.0124015 -0.0051022 0.611953)
(-0.0074629 -0.00511034 0.670309)
(-0.000637389 -0.00184084 0.71531)
(0.00593633 -0.0037049 0.708616)
(0.0110004 -0.00606314 0.633557)
(0.0135018 -0.00490795 0.544113)
(0.0115696 -0.00367298 0.467886)
(-0.0117768 2.94527e-05 0.622281)
(-0.00384819 0.000545393 0.689055)
(0.00417555 0.00105842 0.734705)
(0.00673713 0.000401137 0.718934)
(0.00915627 -0.000133574 0.656312)
(0.0131009 -0.000927649 0.552902)
(0.0119484 -0.0014038 0.473059)
(-0.0115627 0.0045951 0.602442)
(-0.00678808 0.00562296 0.660948)
(0.000153897 0.00308389 0.703041)
(0.00665284 0.00420874 0.693658)
(0.0110526 0.00523001 0.620405)
(0.013411 0.00286604 0.534826)
(0.0115769 0.000811901 0.460347)
(-0.00904358 0.00790388 0.554158)
(-0.00558383 0.0102889 0.59699)
(-0.00013759 0.0101925 0.616935)
(0.00535489 0.0101439 0.603536)
(0.00940294 0.00919077 0.557192)
(0.0107531 0.00546097 0.49469)
(0.00960649 0.00240877 0.432106)
(-0.00548139 0.00859951 0.493028)
(-0.00301732 0.0116091 0.524222)
(0.000513715 0.0126843 0.535945)
(0.00419237 0.0120636 0.52404)
(0.00706342 0.00942829 0.490924)
(0.0081497 0.00571383 0.444983)
(0.00783802 0.0028789 0.393916)
(0.00335701 0.00249241 0.518298)
(0.0016592 0.00383511 0.552186)
(-6.23579e-05 0.00362964 0.564871)
(-0.00138981 0.00350556 0.552329)
(-0.00235738 0.00340094 0.516903)
(-0.00273816 0.00251406 0.46829)
(-0.00233689 0.00149039 0.414611)
(0.00408114 0.00275361 0.574203)
(0.000949192 0.00477765 0.618937)
(-0.00174324 0.00357514 0.637082)
(-0.0030288 0.00306057 0.62381)
(-0.00407351 0.00248707 0.577272)
(-0.00465651 0.00170141 0.512151)
(-0.00382264 0.000657635 0.447462)
(0.00549802 0.00169092 0.613564)
(-0.000791756 0.00240075 0.668307)
(-0.00444389 0.00461851 0.700649)
(-0.0052528 0.00359464 0.694423)
(-0.00606617 0.0014888 0.626096)
(-0.00540531 0.000213668 0.543967)
(-0.00452146 -0.000514689 0.468845)
(0.0049393 -0.00132788 0.623823)
(0.00141806 -0.00105007 0.691847)
(-0.00332321 5.79441e-05 0.747955)
(-0.00599137 -0.000144567 0.743893)
(-0.00785122 -0.00118809 0.644904)
(-0.00550913 -0.00173829 0.552487)
(-0.00452456 -0.00194074 0.473874)
(0.00586367 -0.00459161 0.603738)
(0.000232643 -0.00468731 0.661179)
(-0.00348348 -0.00588864 0.691029)
(-0.00480322 -0.00515276 0.682653)
(-0.00556437 -0.00416697 0.615179)
(-0.00486919 -0.00364155 0.534314)
(-0.00389304 -0.00324982 0.460748)
(0.00431748 -0.00573822 0.554055)
(0.00158486 -0.00752362 0.597178)
(-0.00100067 -0.00633017 0.61387)
(-0.0023775 -0.00560835 0.600794)
(-0.00330334 -0.00551388 0.556188)
(-0.00358883 -0.00495112 0.494317)
(-0.00268267 -0.00411714 0.432338)
(0.0031336 -0.00485039 0.492159)
(0.00176869 -0.00620371 0.52338)
(0.000377399 -0.00615449 0.535391)
(-0.000620732 -0.00592539 0.523218)
(-0.00117901 -0.00590217 0.490248)
(-0.00128419 -0.00522729 0.444802)
(-0.000864965 -0.00444164 0.39392)
(0.000495048 0.0014343 0.0935428)
(0.000853559 0.00208206 0.0548451)
(0.00135638 -0.00297678 0.26736)
(0.000663338 -0.00220097 0.210639)
(0.000162166 -0.00155856 0.163204)
(-0.000141556 -0.0010427 0.123185)
(-0.000276356 -0.000606952 0.0876303)
(-0.000140617 -0.000172815 0.0468526)
(0.00488239 -0.00389025 0.42855)
(0.00344796 -0.00360519 0.34314)
(0.00228287 -0.0033138 0.272005)
(0.00135997 -0.00308083 0.212815)
(0.000671969 -0.00292547 0.163569)
(0.000209533 -0.00283654 0.12225)
(-7.03956e-05 -0.00278146 0.0857646)
(-5.79224e-05 -0.00263641 0.0442462)
(0.00555057 -0.0022484 0.418437)
(0.00422904 -0.00271641 0.336372)
(0.00314132 -0.0031108 0.267872)
(0.00228188 -0.00349106 0.210722)
(0.00165581 -0.0038644 0.163034)
(0.00124857 -0.00422174 0.122882)
(0.00100291 -0.00453936 0.087238)
(0.00100636 -0.00464138 0.0463566)
(0.00529174 -0.00108464 0.388558)
(0.00445184 -0.0020078 0.316839)
(0.00375463 -0.00284432 0.256287)
(0.00323118 -0.0036284 0.205115)
(0.00288334 -0.0043629 0.161902)
(0.00271313 -0.00503093 0.125056)
(0.00267612 -0.00561325 0.0918055)
(0.00279137 -0.00590317 0.0528558)
(0.00525064 -0.000683673 0.346664)
(0.004876 -0.00169637 0.290891)
(0.00459019 -0.00265021 0.241428)
(0.00442834 -0.00355814 0.198406)
(0.00439288 -0.00440875 0.16131)
(0.00448912 -0.00518268 0.129034)
(0.00468954 -0.00586826 0.0991482)
(0.00495859 -0.00628682 0.0629932)
(0.00157726 -0.00282379 0.347257)
(0.00182197 -0.0018977 0.293683)
(0.00196167 -0.00088933 0.245985)
(0.00205506 0.000126808 0.20429)
(0.00214408 0.00110327 0.168137)
(0.00225894 0.00200375 0.13647)
(0.00249741 0.00292448 0.10687)
(0.00305025 0.00388823 0.0704314)
(0.00130097 -0.00381753 0.387161)
(0.00154067 -0.00293223 0.318023)
(0.0015119 -0.00197507 0.259338)
(0.00136001 -0.00101197 0.209361)
(0.00117726 -0.00011068 0.166821)
(0.0010319 0.00069511 0.130278)
(0.000954871 0.00141988 0.0970539)
(0.001067 0.00204832 0.0578083)
(0.00200493 -0.00434998 0.416214)
(0.0021072 -0.00353434 0.336742)
(0.00185514 -0.00275461 0.270112)
(0.00144088 -0.00205317 0.214122)
(0.000982862 -0.00145372 0.167031)
(0.000565107 -0.000955058 0.127088)
(0.000225023 -0.000532954 0.0913741)
(0.000108584 -0.000137984 0.0501064)
(0.00327379 -0.00387343 0.427611)
(0.00311278 -0.0034247 0.344035)
(0.00263454 -0.0030778 0.274302)
(0.00203755 -0.00283924 0.215998)
(0.0014265 -0.00269861 0.167199)
(0.000874043 -0.0026325 0.126012)
(0.000411397 -0.00260238 0.0894108)
(0.00018306 -0.00249101 0.0474356)
(0.00411353 -0.00260423 0.417253)
(0.00391985 -0.00268321 0.337013)
(0.00343421 -0.00289076 0.269895)
(0.00286865 -0.00319155 0.213608)
(0.00230846 -0.00355049 0.16635)
(0.00181797 -0.00392785 0.126313)