/*--------------------------------*- C++ -*----------------------------------*\
| =========                 |                                                 |
| \\      /  F ield         | OpenFOAM: The Open Source CFD Toolbox           |
|  \\    /   O peration     | Version:  plus.master.MPPICInterFoam            |
|   \\  /    A nd           | Web:      www.OpenFOAM.com                      |
|    \\/     M anipulation  |                                                 |
\*---------------------------------------------------------------------------*/
FoamFile
{
    version     2.0;
    format      ascii;
    class       volScalarField;
    location    "4.4";
    object      epsilon;
}
// * * * * * * * * * * * * * * * * * * * * * * * * * * * * * * * * * * * * * //

dimensions      [0 2 -3 0 0 0 0];

internalField   nonuniform List<scalar> 
11821
(
0.462189
0.519173
0.385508
0.477558
0.393464
0.306375
0.25017
0.30507
0.351125
0.374395
0.354588
0.306275
0.249061
0.315372
0.394942
0.473329
0.522168
0.484611
0.402451
0.31622
0.375262
0.48904
0.603871
0.671703
0.619891
0.507603
0.381522
0.413936
0.557546
0.640115
0.675752
0.65031
0.586741
0.425785
0.403743
0.533682
0.638968
0.644614
0.66565
0.554971
0.412081
0.360348
0.456762
0.55937
0.624514
0.573557
0.46855
0.363004
0.301807
0.371194
0.432482
0.467395
0.438112
0.374202
0.300906
0.253711
0.308159
0.348128
0.363489
0.345084
0.302753
0.248845
0.32089
0.393736
0.453922
0.481359
0.450974
0.387099
0.312807
0.379517
0.477599
0.572445
0.619676
0.569394
0.472697
0.370544
0.416204
0.536347
0.640233
0.588464
0.640181
0.532888
0.408012
0.412829
0.528037
0.632046
0.650207
0.633561
0.522351
0.404609
0.37533
0.466734
0.553624
0.591393
0.549996
0.461371
0.367014
0.315087
0.38749
0.442718
0.466693
0.439964
0.381542
0.30863
0.259962
0.322727
0.368079
0.38294
0.361765
0.314679
0.254934
0.3381
0.422496
0.485962
0.506483
0.474066
0.407427
0.326271
0.408301
0.51756
0.614234
0.6271
0.593063
0.49771
0.39071
0.45332
0.583711
0.667667
0.72293
0.672452
0.564162
0.433559
0.4527
0.580092
0.671742
0.711097
0.686249
0.564473
0.434844
0.40855
0.519
0.60411
0.646606
0.596004
0.503193
0.393992
0.333648
0.424151
0.491471
0.516511
0.48269
0.412555
0.325254
0.261942
0.337142
0.397667
0.417788
0.390514
0.33043
0.26022
0.354402
0.467346
0.561062
0.582023
0.539692
0.448501
0.344374
0.448845
0.599812
0.660841
0.716599
0.667113
0.566451
0.427384
0.51615
0.664286
0.754537
0.804559
0.760874
0.656364
0.487037
0.516505
0.683526
0.722039
0.749631
0.723702
0.676341
0.490063
0.446146
0.608551
0.693128
0.72182
0.701407
0.581519
0.429444
0.34528
0.467295
0.572147
0.611647
0.556064
0.452563
0.339267
0.255187
0.33624
0.411343
0.442791
0.407847
0.334997
0.259161
0.352082
0.487494
0.622068
0.671661
0.609388
0.476824
0.350217
0.465235
0.653863
0.703704
0.823321
0.707523
0.628991
0.452731
0.557403
0.746857
0.720819
0.65192
0.768455
0.738237
0.535745
0.551051
0.765721
0.718037
0.784431
0.740972
0.757008
0.531994
0.454185
0.661136
0.765557
0.746453
0.769171
0.637975
0.446275
0.336289
0.477769
0.621488
0.68387
0.607573
0.46958
0.337961
0.242993
0.319807
0.397987
0.436919
0.399631
0.325857
0.253433
0.33109
0.464986
0.617419
0.703604
0.614684
0.467347
0.340158
0.439973
0.645931
0.77944
0.80265
0.769658
0.634894
0.443514
0.5346
0.802828
0.809135
0.688894
0.8239
0.771874
0.531576
0.524597
0.800419
0.895971
0.709638
0.914181
0.776525
0.524175
0.423467
0.636911
0.823603
0.861959
0.821876
0.632911
0.431074
0.310644
0.44486
0.596341
0.677295
0.593823
0.449418
0.321916
0.228012
0.292433
0.358804
0.395571
0.366335
0.305445
0.244157
0.29869
0.409682
0.540918
0.628381
0.551997
0.425972
0.31789
0.385246
0.562586
0.721233
0.811882
0.743637
0.578184
0.405919
0.463601
0.729513
0.903132
0.785527
0.911265
0.730881
0.484043
0.452396
0.708663
0.941585
0.847442
0.957966
0.716138
0.473775
0.366644
0.543283
0.744521
0.841533
0.756281
0.560711
0.388381
0.275563
0.383666
0.508483
0.584099
0.518353
0.399577
0.294578
0.216318
0.267774
0.31798
0.346561
0.32942
0.285516
0.236639
0.269427
0.354021
0.448798
0.511385
0.468153
0.378272
0.295644
0.329501
0.465774
0.604643
0.709712
0.643823
0.497496
0.361791
0.38171
0.593166
0.702966
0.746125
0.780447
0.624451
0.418863
0.370757
0.564752
0.69532
0.79863
0.748672
0.606037
0.407591
0.310709
0.441962
0.603774
0.709911
0.639299
0.472742
0.341089
0.243852
0.323773
0.413776
0.471409
0.43074
0.345835
0.267491
0.213039
0.256371
0.295398
0.317907
0.308737
0.277265
0.236327
0.254331
0.318193
0.384239
0.428841
0.405722
0.347339
0.285235
0.294369
0.389236
0.49321
0.58225
0.532879
0.431039
0.33316
0.322659
0.451565
0.543459
0.609041
0.566857
0.51005
0.367962
0.313833
0.435723
0.546356
0.597928
0.565137
0.486045
0.356272
0.273869
0.363001
0.468755
0.563904
0.500413
0.398477
0.308383
0.224603
0.283353
0.344177
0.385234
0.361424
0.30782
0.250585
0.220119
0.262481
0.298026
0.318118
0.312791
0.286025
0.245733
0.257567
0.313279
0.365904
0.39905
0.387635
0.345976
0.292291
0.287745
0.360963
0.440355
0.499904
0.470845
0.405314
0.330953
0.303643
0.392332
0.491424
0.501083
0.503288
0.448201
0.352467
0.293941
0.378357
0.472124
0.486017
0.496304
0.427511
0.339514
0.262239
0.329014
0.399921
0.455269
0.425762
0.365439
0.29933
0.220068
0.269045
0.314496
0.342984
0.33127
0.294759
0.247392
0.237111
0.285955
0.326167
0.348424
0.342949
0.3124
0.264502
0.278566
0.339798
0.395394
0.427202
0.420107
0.377355
0.317219
0.308214
0.382022
0.455925
0.49947
0.487222
0.432515
0.356645
0.319209
0.40043
0.487299
0.498594
0.516621
0.4603
0.373319
0.305715
0.382015
0.460323
0.498545
0.496869
0.434843
0.355496
0.272406
0.335758
0.395853
0.435793
0.422316
0.37506
0.312176
0.227843
0.277301
0.319938
0.344764
0.337448
0.304564
0.255991
0.261644
0.324418
0.377242
0.406621
0.396583
0.353452
0.289238
0.314681
0.394814
0.469965
0.512913
0.500656
0.438581
0.35656
0.351836
0.447891
0.542857
0.587535
0.582647
0.508334
0.405945
0.36258
0.463073
0.557625
0.584229
0.595172
0.536071
0.423754
0.341833
0.433534
0.520175
0.573579
0.558833
0.494285
0.396113
0.298751
0.373634
0.442595
0.48645
0.472737
0.417077
0.340237
0.243964
0.301795
0.351041
0.379056
0.370035
0.330261
0.271388
0.287443
0.370659
0.444131
0.486687
0.466248
0.399895
0.311259
0.359159
0.471658
0.581114
0.651083
0.622281
0.522209
0.400647
0.412139
0.553858
0.700776
0.746111
0.737053
0.628362
0.470008
0.426235
0.577047
0.70491
0.726532
0.736347
0.664934
0.493584
0.393547
0.521662
0.640471
0.699578
0.683561
0.591576
0.449437
0.333454
0.431816
0.525892
0.588195
0.562115
0.478414
0.37296
0.262445
0.334292
0.39721
0.432677
0.416967
0.361638
0.285875
0.304973
0.411148
0.517492
0.577745
0.536786
0.43312
0.318702
0.399654
0.558972
0.716985
0.778755
0.767563
0.60985
0.43078
0.480696
0.698459
0.76764
0.932886
0.797123
0.786797
0.53279
0.502153
0.71656
0.893253
0.898212
0.908635
0.806488
0.564826
0.450225
0.631694
0.767524
0.864164
0.820586
0.702433
0.498851
0.365501
0.498237
0.632776
0.721304
0.671553
0.541509
0.394996
0.276043
0.363405
0.446219
0.494457
0.463529
0.384487
0.290846
0.308068
0.424513
0.552301
0.629936
0.557541
0.431076
0.308298
0.416735
0.606147
0.805117
0.915143
0.846672
0.63469
0.426001
0.522868
0.791068
0.902096
0.848543
0.992134
0.869794
0.543918
0.562545
0.848898
0.936793
0.877602
0.982279
0.947548
0.590052
0.48782
0.715619
0.85586
0.942972
0.935053
0.781166
0.508956
0.380694
0.538681
0.716921
0.842387
0.746109
0.563205
0.391146
0.281109
0.375708
0.473808
0.530901
0.482206
0.384692
0.284403
0.300109
0.41269
0.540468
0.612894
0.528548
0.402421
0.288683
0.409963
0.604315
0.856392
1.01885
0.829579
0.593069
0.396196
0.524359
0.833965
1.12709
1.09968
1.14596
0.826945
0.50813
0.575307
0.95112
1.06585
0.892973
1.17978
0.945655
0.554014
0.492186
0.753807
0.937353
1.10147
0.965344
0.745134
0.47858
0.379584
0.541094
0.739972
0.876575
0.724872
0.534395
0.369712
0.280665
0.373267
0.471785
0.524614
0.467591
0.368096
0.273016
0.0590422
0.0906334
0.160033
0.118241
0.0886193
0.0690596
0.0604567
0.0890589
0.335361
0.239438
0.173476
0.126635
0.093593
0.0717828
0.0617756
0.0895193
0.321591
0.233893
0.171462
0.126047
0.0935556
0.0719977
0.0622488
0.0911679
0.278643
0.209286
0.157206
0.1179
0.0891817
0.0700403
0.0620728
0.0943217
0.229198
0.179376
0.13896
0.1071
0.0833224
0.0675544
0.0622546
0.0996238
0.189824
0.150165
0.118407
0.0938283
0.0757262
0.063989
0.0613375
0.0997866
0.236947
0.181332
0.138475
0.106163
0.0827058
0.0672248
0.0616382
0.095181
0.281921
0.212205
0.15879
0.118801
0.0900178
0.0709694
0.0629065
0.0932917
0.310351
0.23161
0.171706
0.12694
0.0947931
0.0735416
0.0641031
0.0935106
0.3041
0.229048
0.170778
0.126667
0.094798
0.0737209
0.0645358
0.0951127
0.271903
0.208297
0.157743
0.118868
0.0904909
0.0717487
0.064346
0.0983131
0.22834
0.180113
0.139893
0.1081
0.0845798
0.0692185
0.0645298
0.1037
0.189965
0.150593
0.119251
0.0951419
0.0774393
0.0660357
0.0639209
0.104777
0.236745
0.181717
0.13914
0.107259
0.0842332
0.0691072
0.0640249
0.0997731
0.280327
0.212581
0.159373
0.119666
0.0913109
0.0726709
0.0651388
0.0976133
0.30783
0.232322
0.17246
0.127689
0.0959044
0.0750893
0.0662165
0.0976607
0.305519
0.231219
0.171943
0.127469
0.0958339
0.0751769
0.0665814
0.099196
0.276357
0.210901
0.158853
0.119574
0.0914371
0.0731343
0.0663544
0.102373
0.232158
0.181798
0.140464
0.108546
0.0853927
0.0705444
0.0665553
0.107846
0.192327
0.151684
0.120312
0.0965219
0.0790893
0.0678723
0.066156
0.109496
0.242598
0.183864
0.140249
0.108454
0.0857038
0.070783
0.0660636
0.104107
0.291054
0.216799
0.160906
0.12073
0.0925778
0.0741818
0.0670294
0.101738
0.322761
0.238591
0.174542
0.128709
0.0970008
0.076452
0.0679959
0.101677
0.321743
0.237737
0.173954
0.128321
0.0967636
0.0764072
0.0682704
0.103129
0.288546
0.215165
0.15993
0.120052
0.0921744
0.0742491
0.0679854
0.106234
0.238156
0.183318
0.140527
0.108647
0.0859602
0.071587
0.0682071
0.111806
0.194126
0.152716
0.121586
0.0980824
0.0807256
0.069456
0.067868
0.113632
0.248186
0.185472
0.141312
0.10977
0.0871735
0.07223
0.0676011
0.107885
0.304246
0.220475
0.16209
0.121793
0.0938287
0.0754719
0.0684228
0.105335
0.343207
0.244586
0.17605
0.129594
0.0980327
0.0775738
0.0692608
0.105168
0.341363
0.243169
0.175113
0.128907
0.0975507
0.0773507
0.0694154
0.106512
0.299583
0.217438
0.160036
0.120208
0.0927131
0.0750363
0.069046
0.109503
0.241171
0.182954
0.139825
0.108493
0.0863356
0.0723
0.0692887
0.115209
0.194267
0.153726
0.12324
0.0998955
0.0823509
0.0707908
0.0690994
0.116951
0.248497
0.185689
0.142421
0.111323
0.0886733
0.0734664
0.0686981
0.110886
0.308576
0.220647
0.162608
0.122942
0.0951108
0.0765744
0.0693981
0.108159
0.35328
0.24553
0.176231
0.130339
0.0990276
0.0784882
0.0700991
0.10784
0.349484
0.243376
0.174779
0.129225
0.0982218
0.0780476
0.0701146
0.109048
0.300624
0.215751
0.159046
0.120129
0.0930939
0.0755457
0.0696503
0.111951
0.238169
0.180373
0.138563
0.108222
0.086576
0.0727469
0.0699181
0.117821
0.193269
0.154737
0.125015
0.101626
0.083697
0.0717344
0.0698271
0.118805
0.244169
0.184944
0.143462
0.112793
0.0899115
0.0743289
0.0693299
0.112494
0.301828
0.217805
0.162466
0.123857
0.0960922
0.0772909
0.0699087
0.109522
0.346241
0.241292
0.174946
0.130544
0.0996024
0.0789701
0.0704545
0.10897
0.341171
0.238191
0.172706
0.128825
0.0983832
0.0782818
0.0703313
0.110032
0.29101
0.210335
0.156733
0.119399
0.092975
0.0756149
0.0698098
0.112954
0.229991
0.175933
0.136579
0.107509
0.0864131
0.0728066
0.0701199
0.118978
0.190852
0.155171
0.126266
0.102744
0.0844206
0.0721264
0.0700437
0.119278
0.235614
0.182831
0.143802
0.113606
0.0905033
0.074635
0.0694832
0.112835
0.28471
0.211491
0.16099
0.123918
0.0963457
0.0774166
0.0699446
0.10962
0.322284
0.230983
0.17141
0.129583
0.0993387
0.078829
0.0703417
0.108838
0.315945
0.226745
0.1682
0.127157
0.0976803
0.0779091
0.0701169
0.109808
0.270593
0.200889
0.152655
0.117615
0.0921089
0.0751683
0.0696075
0.112853
0.216981
0.169493
0.133496
0.105993
0.0856334
0.0724306
0.0700021
0.119033
0.189276
0.155774
0.127153
0.103257
0.0845393
0.0720373
0.069894
0.118896
0.22802
0.18129
0.144035
0.113905
0.0905032
0.0744623
0.0692958
0.112435
0.266887
0.205606
0.159532
0.123526
0.0960112
0.0770638
0.0696634
0.109058
0.294216
0.220247
0.167723
0.128152
0.0984994
0.0782331
0.0699516
0.108132
0.28675
0.214728
0.163448
0.125008
0.0964454
0.077144
0.0696881
0.109099
0.249343
0.191511
0.148415
0.115419
0.0908128
0.0744255
0.0692669
0.112362
0.204286
0.163183
0.130188
0.104085
0.0844938
0.071831
0.0698025
0.118733
0.191111
0.157676
0.128189
0.103451
0.0842651
0.0716492
0.0695692
0.118215
0.226732
0.182539
0.145063
0.114113
0.0901761
0.0740124
0.0689521
0.111813
0.258266
0.204222
0.159661
0.123356
0.0954642
0.0764847
0.0692709
0.108395
0.276658
0.215055
0.166201
0.12721
0.0975703
0.0774835
0.0695138
0.107451
0.267885
0.208066
0.160791
0.123387
0.0952094
0.0763116
0.0692826
0.10852
0.236385
0.186118
0.145691
0.113621
0.0895555
0.0736877
0.0690116
0.112059
0.196696
0.159234
0.127758
0.102413
0.083404
0.0712902
0.0697517
0.118727
0.197407
0.161272
0.129552
0.103472
0.0837452
0.0710976
0.0692046
0.117647
0.234
0.187382
0.147165
0.114387
0.0896709
0.0734222
0.068582
0.111335
0.26315
0.20884
0.161876
0.123638
0.0948762
0.0758283
0.0689004
0.107989
0.276554
0.217672
0.167555
0.127049
0.0967619
0.0767526
0.0691667
0.107149
0.265587
0.208746
0.160892
0.12262
0.0942068
0.0755888
0.0690336
0.10842
0.234909
0.185823
0.144941
0.112513
0.0885607
0.0731153
0.0689582
0.112284
0.195651
0.158282
0.126584
0.10127
0.0825884
0.0709598
0.069954
0.119345
0.207318
0.165827
0.130806
0.103164
0.0829855
0.0704332
0.0688551
0.117363
0.2491
0.194909
0.149702
0.11446
0.0889493
0.0727326
0.0682346
0.111151
0.280951
0.218468
0.165428
0.124
0.0941708
0.0751255
0.0685943
0.107984
0.292961
0.226887
0.17089
0.127269
0.0959955
0.0760653
0.0689431
0.107349
0.278062
0.215327
0.162883
0.122345
0.0933664
0.0749912
0.0689582
0.108873
0.243141
0.189383
0.145504
0.11185
0.0877898
0.0727214
0.0691117
0.11307
0.199768
0.159484
0.12627
0.100534
0.0820413
0.0708462
0.0703954
0.120561
0.218082
0.169602
0.131112
0.102233
0.0819129
0.06962
0.0684196
0.117195
0.268467
0.202542
0.151292
0.113779
0.0878541
0.0718932
0.0678263
0.111115
0.307462
0.229812
0.168391
0.123647
0.0931043
0.0742979
0.0682547
0.108188
0.320653
0.238891
0.174068
0.126959
0.0949676
0.0753161
0.0687286
0.107828
0.299743
0.224163
0.164817
0.121749
0.0924106
0.0744066
0.0689243
0.109629
0.256447
0.193996
0.145992
0.11108
0.0870514
0.0724053
0.069327
0.114169
0.205879
0.161098
0.126014
0.0998938
0.081636
0.0708479
0.0709054
0.122114
0.22487
0.170333
0.12975
0.100609
0.0806214
0.0687239
0.0678628
0.117112
0.284869
0.206456
0.150581
0.112117
0.0864659
0.070979
0.0673255
0.111199
0.334263
0.237738
0.168731
0.122118
0.0917015
0.0734113
0.0678452
0.108561
0.350384
0.248038
0.174768
0.125541
0.0936612
0.0745511
0.0684727
0.108523
0.321907
0.23034
0.164775
0.120377
0.0913299
0.073866
0.0688726
0.110624
0.268131
0.196371
0.145257
0.109972
0.0863593
0.0721784
0.0695263
0.115491
0.210036
0.161389
0.125267
0.0992571
0.0813832
0.070946
0.0713748
0.123864
0.223832
0.167356
0.127068
0.0987167
0.0793886
0.0679042
0.0672588
0.117064
0.289707
0.204319
0.147615
0.109927
0.0851103
0.070172
0.0668185
0.111364
0.34901
0.237853
0.165941
0.119814
0.0903149
0.0726629
0.0674557
0.10905
0.368894
0.249212
0.172222
0.123368
0.0924248
0.073965
0.0682558
0.109354
0.333528
0.229992
0.162332
0.118601
0.0904419
0.0735433
0.0688743
0.111781
0.271383
0.194697
0.143343
0.108875
0.085958
0.0721723
0.0697645
0.11699
0.209574
0.159928
0.124255
0.0988801
0.0814392
0.0712222
0.0718253
0.12574
0.216438
0.162323
0.124042
0.0969934
0.078404
0.0672937
0.0667844
0.116973
0.281204
0.197782
0.143689
0.107814
0.0840283
0.0696148
0.0664818
0.111539
0.342444
0.230684
0.161414
0.117467
0.0892367
0.0722093
0.0672662
0.109536
0.364404
0.242264
0.167804
0.121208
0.0915618
0.0737116
0.0682531
0.110179
0.327417
0.223806
0.158821
0.117102
0.0900072
0.0735692
0.0690815
0.112958
0.264985
0.190361
0.141315
0.108266
0.08602
0.072481
0.0701681
0.118521
0.205569
0.157865
0.123626
0.0990338
0.0819033
0.071749
0.0723773
0.127591
0.206079
0.156547
0.120967
0.0953884
0.0775705
0.0668623
0.0665155
0.116613
0.265122
0.189178
0.139405
0.105786
0.083125
0.069263
0.0663735
0.111484
0.321995
0.219636
0.156136
0.115181
0.0883717
0.0719895
0.0673172
0.109738
0.343568
0.231137
0.162717
0.119217
0.0909777
0.0737177
0.068489
0.110693
0.310373
0.215268
0.155272
0.115989
0.0899226
0.07387
0.0695255
0.113861
0.2542
0.185601
0.13976
0.108152
0.086435
0.0730411
0.0707827
0.119795
0.200622
0.156162
0.123569
0.0996293
0.0826531
0.0724715
0.0730898
0.129118
0.22904
0.179154
0.136883
0.10359
0.0794457
0.0641163
0.0595999
0.0972402
0.27291
0.208453
0.155332
0.114174
0.084697
0.0658945
0.0587736
0.0911776
0.303834
0.229786
0.169052
0.122196
0.0888563
0.0676195
0.0588082
0.0880071
0.309081
0.232257
0.170145
0.122617
0.0890067
0.0676326
0.0586347
0.0867792
0.282166
0.212723
0.156864
0.114507
0.0846088
0.0656007
0.0579988
0.0871415
0.237934
0.180986
0.135887
0.101935
0.0778909
0.0626249
0.05745
0.0896756
0.189849
0.148611
0.115374
0.0899596
0.0717096
0.0602528
0.0578713
0.0948544
0.234433
0.180441
0.136308
0.102958
0.0795523
0.0651164
0.061596
0.101619
0.281915
0.211787
0.155419
0.113585
0.0847268
0.0668377
0.060711
0.0954349
0.313206
0.234247
0.169658
0.121702
0.0888714
0.0685618
0.0607577
0.0922917
0.3161
0.23595
0.170584
0.122189
0.0891478
0.0686872
0.0606659
0.0911607
0.28751
0.214916
0.156881
0.114254
0.0850563
0.0668952
0.0601894
0.0917218
0.241102
0.181696
0.135686
0.102056
0.0787588
0.0642136
0.0598378
0.0945077
0.190841
0.148585
0.115387
0.0905494
0.0729676
0.0621087
0.0604774
0.100055
0.239381
0.180019
0.134615
0.101882
0.0795272
0.0660191
0.0634464
0.10623
0.294844
0.214249
0.154287
0.11245
0.0846025
0.0676904
0.0625097
0.0999296
0.332405
0.239635
0.169339
0.120659
0.0887427
0.0694298
0.0625725
0.0968064
0.334866
0.241407
0.170396
0.121293
0.0891561
0.0696725
0.0625634
0.0957493
0.300203
0.217726
0.156205
0.113606
0.0853849
0.0681013
0.0622239
0.0964219
0.246612
0.181978
0.13491
0.101937
0.0795425
0.0656973
0.0620437
0.0993837
0.191815
0.148001
0.115077
0.0910358
0.0741685
0.0638435
0.0628759
0.105241
0.238837
0.1766
0.131852
0.100607
0.0794932
0.0668125
0.0649728
0.110642
0.302571
0.212573
0.15146
0.110907
0.0844315
0.0684456
0.0640096
0.104225
0.350325
0.240833
0.166959
0.119099
0.0885622
0.0702168
0.0641015
0.101151
0.353834
0.243099
0.168269
0.119936
0.0891566
0.0705961
0.0641832
0.100171
0.310341
0.217179
0.154129
0.112737
0.0857633
0.0692509
0.0639752
0.100933
0.248354
0.180082
0.133524
0.101846
0.0804089
0.0671041
0.0639446
0.104041
0.19046
0.146597
0.114733
0.0916874
0.0754417
0.0654585
0.0649228
0.110152
0.230569
0.170565
0.128636
0.0994609
0.0795738
0.0675669
0.0662686
0.114557
0.296101
0.20567
0.147393
0.109334
0.0843711
0.0691838
0.065308
0.108038
0.349556
0.234473
0.162615
0.11737
0.0885087
0.0710177
0.0654501
0.105016
0.354727
0.237182
0.164222
0.118497
0.0893362
0.0715617
0.0656335
0.104137
0.306438
0.211466
0.151075
0.112034
0.0863711
0.0704429
0.0655511
0.10503
0.242391
0.176021
0.132064
0.102096
0.0814894
0.0685082
0.0656295
0.108293
0.186542
0.144885
0.114759
0.0926987
0.0768622
0.0670037
0.0666895
0.114605
0.216786
0.162878
0.125018
0.0981854
0.079531
0.0681666
0.0673271
0.117364
0.277271
0.194885
0.142274
0.107468
0.0841609
0.0697758
0.0663986
0.110816
0.329238
0.222024
0.15662
0.11523
0.0882953
0.0716789
0.0665956
0.107801
0.335175
0.225314
0.158756
0.116788
0.0894278
0.0724122
0.0668847
0.107023
0.289373
0.202356
0.147478
0.111368
0.0869916
0.0715441
0.0669271
0.108091
0.231057
0.170997
0.130735
0.10253
0.0825923
0.0698016
0.0670888
0.11155
0.181338
0.143276
0.115093
0.0938587
0.0782422
0.0683823
0.0681717
0.117991
0.199359
0.154083
0.120988
0.0966437
0.0792679
0.0685979
0.0682391
0.119337
0.249079
0.18125
0.136297
0.105251
0.0837215
0.0702018
0.0673546
0.11283
0.292569
0.204389
0.14913
0.112591
0.0878156
0.0721557
0.0675915
0.109775
0.298939
0.208286
0.151885
0.114637
0.0892694
0.0730682
0.0679654
0.109066
0.262633
0.190598
0.143251
0.110471
0.0874086
0.0724445
0.0681053
0.110287
0.216322
0.165278
0.129291
0.102833
0.0834858
0.0708663
0.0683096
0.113897
0.175293
0.141592
0.115369
0.094829
0.0793533
0.0694843
0.0693629
0.120371
0.184047
0.146637
0.117604
0.0953232
0.0790457
0.0690355
0.0691814
0.121053
0.222889
0.169417
0.131341
0.103452
0.083399
0.0706504
0.0683333
0.114614
0.255447
0.188348
0.142843
0.110497
0.0874923
0.0726487
0.068589
0.111491
0.26198
0.192889
0.14628
0.113044
0.0892462
0.0737048
0.0690088
0.110802
0.237914
0.180892
0.140195
0.110013
0.0878724
0.073264
0.0691919
0.112103
0.204234
0.16126
0.128623
0.103326
0.0842982
0.0717788
0.0693809
0.115751
0.171116
0.140885
0.115961
0.095742
0.0802636
0.0703729
0.0703627
0.12217
0.175319
0.142628
0.115891
0.0947805
0.0791954
0.0696903
0.0703197
0.123008
0.207365
0.163091
0.128998
0.102814
0.0835805
0.0713394
0.0694816
0.116607
0.232605
0.179766
0.140057
0.109907
0.0877767
0.0733901
0.0697313
0.113395
0.239481
0.185201
0.14427
0.112961
0.0897977
0.0745433
0.0701455
0.112654
0.225
0.177316
0.139979
0.110707
0.0887326
0.0741848
0.0702981
0.113917
0.199939
0.161177
0.129709
0.104469
0.0852745
0.0726795
0.0704018
0.117464
0.171346
0.142347
0.11745
0.0969133
0.0811654
0.071174
0.071275
0.123752
0.174117
0.142499
0.116113
0.0952045
0.0798537
0.0706484
0.0717141
0.125483
0.204558
0.163018
0.129594
0.103532
0.0843963
0.0723441
0.0708405
0.119017
0.227927
0.179903
0.141228
0.111044
0.0887996
0.0744495
0.0710477
0.115664
0.236323
0.186725
0.146385
0.114629
0.0910472
0.0756443
0.0713966
0.114782
0.226854
0.180968
0.142991
0.112728
0.0900798
0.0752526
0.071441
0.115877
0.205122
0.165717
0.132828
0.106396
0.0864918
0.0736094
0.0713946
0.119216
0.176873
0.146401
0.120046
0.098465
0.0821322
0.0719256
0.0721243
0.125323
0.179009
0.145446
0.117876
0.0964277
0.0809451
0.0718483
0.0732977
0.128501
0.21236
0.168
0.132513
0.105322
0.0857147
0.0735788
0.0723311
0.121828
0.2386
0.187223
0.145554
0.11352
0.0903784
0.0757173
0.0724454
0.118251
0.249989
0.1961
0.151881
0.117648
0.0928016
0.0768918
0.0726657
0.117126
0.242205
0.190903
0.148625
0.115738
0.0917458
0.0763631
0.0725336
0.117941
0.219036
0.174233
0.137537
0.108862
0.0878249
0.0744855
0.0722833
0.120981
0.187164
0.152572
0.123416
0.100202
0.0830581
0.072553
0.0728432
0.126871
0.18757
0.150033
0.120411
0.0980581
0.082243
0.0730968
0.0748193
0.131625
0.227229
0.175879
0.136566
0.107582
0.087222
0.0748242
0.0737089
0.124635
0.26025
0.199018
0.151482
0.116531
0.0921031
0.0769359
0.0736676
0.120741
0.276371
0.210631
0.159125
0.121143
0.0946085
0.0780132
0.0737016
0.119299
0.267982
0.204884
0.155481
0.118968
0.0933252
0.0772662
0.0733409
0.119768
0.239255
0.184909
0.142701
0.11125
0.0889478
0.0750952
0.0728539
0.122447
0.200164
0.159419
0.126703
0.101672
0.0836973
0.0728792
0.073227
0.128099
0.196475
0.154565
0.122983
0.0998
0.0835985
0.0742554
0.0760603
0.13458
0.244193
0.183931
0.140522
0.109824
0.0887076
0.075932
0.0747676
0.127196
0.286906
0.211674
0.15726
0.119365
0.0936904
0.0779421
0.0745148
0.122917
0.309587
0.226428
0.166101
0.124278
0.0961476
0.0788434
0.0743161
0.121117
0.298727
0.219291
0.161746
0.12167
0.0945345
0.0778165
0.0736884
0.121188
0.260749
0.194741
0.146912
0.113014
0.0896584
0.0753247
0.0729478
0.123467
0.212106
0.164889
0.128994
0.102534
0.0839279
0.0728217
0.0731312
0.128872
0.202938
0.158172
0.125456
0.101691
0.0850403
0.075319
0.0769546
0.137151
0.257564
0.190006
0.143846
0.11199
0.0901892
0.0769045
0.0754584
0.129297
0.310744
0.221579
0.161773
0.121803
0.0951316
0.0787516
0.0749657
0.124621
0.341229
0.239103
0.171319
0.126734
0.0973966
0.0794079
0.0744998
0.122431
0.325984
0.230024
0.166081
0.123579
0.0953761
0.0780519
0.0735798
0.122063
0.276611
0.200964
0.14942
0.114058
0.0899945
0.0752195
0.0725746
0.12392
0.219103
0.167625
0.130013
0.102824
0.0838264
0.0724418
0.0725676
0.129062
0.206688
0.161237
0.128106
0.103824
0.0865836
0.076317
0.0775917
0.139086
0.264003
0.193815
0.146729
0.114183
0.0916903
0.0777795
0.0758893
0.130742
0.323314
0.22692
0.164907
0.123927
0.0964718
0.0794287
0.0751623
0.125661
0.35941
0.245659
0.174447
0.128569
0.0984114
0.0797868
0.0744191
0.123054
0.339202
0.234775
0.168274
0.124774
0.0959094
0.0780642
0.0732005
0.12224
0.282171
0.202966
0.150377
0.11451
0.0900274
0.0748847
0.0719368
0.123705
0.220304
0.167899
0.130069
0.102708
0.0834858
0.0718638
0.0717586
0.128597
0.20864
0.163898
0.130704
0.105891
0.0879916
0.077143
0.0780159
0.139966
0.264774
0.195801
0.149054
0.116126
0.092982
0.0784565
0.0761202
0.131193
0.324151
0.22804
0.166583
0.125466
0.0974754
0.0798645
0.0751566
0.125655
0.361151
0.245997
0.175257
0.12944
0.0989328
0.0798683
0.074124
0.122603
0.337543
0.233627
0.168101
0.124905
0.0958831
0.0777579
0.0726191
0.121389
0.27829
0.201054
0.149612
0.114085
0.0895494
0.0742572
0.0711235
0.122526
0.216669
0.165986
0.129028
0.10195
0.0827411
0.0710533
0.0708013
0.12717
0.187755
0.147171
0.114547
0.0896252
0.0717173
0.0604667
0.0582114
0.0954117
0.22639
0.171921
0.130006
0.098884
0.0768433
0.0627522
0.0581885
0.0908909
0.257844
0.192813
0.143382
0.107094
0.0816026
0.0652015
0.0589195
0.0888144
0.271566
0.201375
0.148856
0.110616
0.0838143
0.0665029
0.0595499
0.0886443
0.258399
0.192857
0.143764
0.107879
0.0825687
0.0661435
0.0597802
0.0900497
0.226041
0.171997
0.131051
0.100644
0.0788471
0.0646576
0.0599426
0.0934476
0.187482
0.148167
0.116763
0.092548
0.0747839
0.0633307
0.0609053
0.0995152
0.188734
0.147353
0.114797
0.0904154
0.0731173
0.0624117
0.0608686
0.100684
0.228121
0.172499
0.130355
0.099687
0.0782496
0.0646812
0.0607603
0.0959081
0.258514
0.193381
0.143776
0.107913
0.0830214
0.0671304
0.061448
0.0936792
0.269768
0.201291
0.149154
0.111469
0.0852862
0.0684667
0.0620781
0.0934561
0.256394
0.192573
0.144098
0.108866
0.0841509
0.0681671
0.0623344
0.0948945
0.225369
0.172096
0.131674
0.101855
0.0805554
0.0667378
0.0625311
0.0983646
0.187515
0.148573
0.117621
0.093898
0.0765474
0.0654412
0.0635682
0.104664
0.189819
0.147048
0.114753
0.0911057
0.0744543
0.0642243
0.0633038
0.105919
0.232701
0.173284
0.13054
0.100422
0.0796108
0.0664839
0.063099
0.100864
0.266642
0.195655
0.144423
0.108787
0.084443
0.0689513
0.0637461
0.0985118
0.278829
0.20427
0.150195
0.112554
0.0868256
0.0703412
0.0643759
0.0982583
0.263808
0.195103
0.145218
0.110127
0.0858084
0.070093
0.0646438
0.0996969
0.229978
0.173759
0.132776
0.103257
0.0822985
0.0686916
0.0648557
0.1032
0.189703
0.149634
0.118712
0.0953458
0.0782862
0.0673793
0.0659272
0.109662
0.188809
0.145993
0.114691
0.0919569
0.0758485
0.065897
0.0653593
0.110819
0.234983
0.172867
0.130537
0.101304
0.081049
0.0681597
0.0650624
0.105462
0.274459
0.196882
0.144846
0.10982
0.085971
0.0706613
0.0656684
0.102986
0.289727
0.206831
0.151171
0.113851
0.0884931
0.0721072
0.0662881
0.102682
0.272583
0.197408
0.146443
0.111659
0.0875899
0.0718876
0.0665407
0.104084
0.234408
0.1752
0.134071
0.104917
0.0841146
0.0704649
0.0667276
0.107568
0.191403
0.150677
0.120055
0.0970058
0.0800348
0.0690823
0.0677789
0.114121
0.18547
0.14471
0.115028
0.0931708
0.0773781
0.0674777
0.0671043
0.115183
0.231771
0.171206
0.130735
0.102559
0.082652
0.0697579
0.0667209
0.109504
0.274474
0.195834
0.145203
0.111217
0.0876956
0.0723112
0.0672846
0.106849
0.293145
0.206929
0.152029
0.115526
0.0903628
0.0738042
0.0678721
0.106422
0.274907
0.197909
0.147758
0.113583
0.0895469
0.0735779
0.068075
0.10774
0.234741
0.175897
0.13571
0.106949
0.0860329
0.0720681
0.0681834
0.111166
0.191627
0.151791
0.121846
0.098965
0.0818046
0.070553
0.0691541
0.117726
0.180933
0.143541
0.115657
0.0945021
0.0788297
0.0688518
0.0685176
0.11838
0.224481
0.168847
0.131058
0.103922
0.0841817
0.0711432
0.0680447
0.112379
0.266505
0.192815
0.145365
0.112671
0.0893366
0.0737294
0.0685349
0.109443
0.286793
0.204444
0.152501
0.117188
0.0921104
0.0752307
0.0690487
0.108804
0.269837
0.196624
0.148894
0.115511
0.0913407
0.0749524
0.0691601
0.109986
0.231562
0.176021
0.137433
0.108971
0.087727
0.0733057
0.069148
0.113317
0.190856
0.152975
0.123784
0.100849
0.0832861
0.0716093
0.0699808
0.119747
0.175593
0.142302
0.116201
0.0956034
0.0799702
0.0699083
0.0695988
0.12049
0.21385
0.165758
0.131168
0.105029
0.0853709
0.0721766
0.0690128
0.114166
0.250443
0.187689
0.144971
0.113772
0.0905771
0.0747425
0.0693873
0.110879
0.26936
0.198905
0.152133
0.118392
0.0933835
0.0761931
0.069781
0.109958
0.256658
0.193074
0.149307
0.116931
0.092601
0.0758169
0.0697632
0.110945
0.224653
0.175087
0.138647
0.110462
0.0888428
0.0740026
0.0696031
0.114129
0.188747
0.153655
0.125245
0.102145
0.0841483
0.0721002
0.070264
0.120302
0.172044
0.141969
0.116991
0.0965836
0.0808556
0.0707068
0.0704481
0.121942
0.205477
0.164046
0.131784
0.106095
0.0862929
0.0729113
0.0697095
0.11528
0.235924
0.184075
0.145252
0.114871
0.0915123
0.0754023
0.0699258
0.111594
0.25216
0.194624
0.152379
0.119535
0.094289
0.0767479
0.0701603
0.110347
0.244152
0.190557
0.150074
0.118124
0.0933947
0.0762198
0.06998
0.11108
0.218951
0.174874
0.139875
0.111524
0.0894014
0.0742043
0.0696543
0.114055
0.187509
0.154539
0.126366
0.102839
0.0843923
0.0720828
0.0701388
0.119895
0.172774
0.143698
0.118584
0.0977442
0.0816721
0.0713748
0.0711807
0.123157
0.204152
0.165755
0.133772
0.107521
0.0871625
0.0734797
0.0702391
0.116083
0.231191
0.185281
0.14748
0.116508
0.0924075
0.075863
0.0702688
0.111995
0.245776
0.195657
0.154727
0.121222
0.0951069
0.0770578
0.0703161
0.110399
0.240641
0.192419
0.152481
0.119607
0.0939746
0.076323
0.0699502
0.110828
0.219427
0.177436
0.141934
0.112518
0.089614
0.0740702
0.0694541
0.113549
0.18966
0.156716
0.127626
0.103195
0.0842145
0.0717308
0.0697928
0.119084
0.178668
0.147894
0.12118
0.0992055
0.0824975
0.071956
0.0718248
0.124341
0.211651
0.171603
0.137413
0.10943
0.0880523
0.0739278
0.07064
0.116798
0.239207
0.192461
0.152087
0.118842
0.0933437
0.0761813
0.0704691
0.112316
0.253963
0.203478
0.159738
0.123637
0.0959322
0.0771999
0.0703228
0.110385
0.249605
0.199984
0.156965
0.121535
0.094445
0.0762209
0.0697713
0.110514
0.22823