/*--------------------------------*- C++ -*----------------------------------*\
| =========                 |                                                 |
| \\      /  F ield         | OpenFOAM: The Open Source CFD Toolbox           |
|  \\    /   O peration     | Version:  plus.master.MPPICInterFoam            |
|   \\  /    A nd           | Web:      www.OpenFOAM.com                      |
|    \\/     M anipulation  |                                                 |
\*---------------------------------------------------------------------------*/
FoamFile
{
    version     2.0;
    format      ascii;
    class       labelField;
    location    "9.4/lagrangian/kinematicCloud";
    object      origId;
}
// * * * * * * * * * * * * * * * * * * * * * * * * * * * * * * * * * * * * * //


2419
(
26738
155
12380
32109
19095
29110
19261
25434
1198
21479
9530
1855
1554
13989
35141
8391
7626
11951
4470
30797
3943
4396
1210
1796
5231
7718
240
3228
23376
37343
6463
620
5740
1579
5355
6224
3719
21748
20259
4928
2155
20215
1958
13630
10542
5519
13362
13385
14181
11727
16923
22477
231
16347
3474
6073
49223
12588
8938
11430
9526
8327
15703
22958
25875
2565
12974
4893
307
12899
5702
22140
1553
3685
1758
25443
2503
16534
3327
5035
15367
6250
3797
1376
30876
34775
11020
2653
18458
17184
9134
4050
40507
20232
13827
26827
33868
6417
10124
226
8524
7919
11357
36804
28426
14838
12500
12074
10831
5149
5996
13024
13281
4084
38858
10534
26222
8078
6177
38101
30796
7064
22434
17246
33703
42718
25149
22908
13760
173
14897
39313
540
8723
17049
24693
17951
6496
4832
990
18689
3096
38252
27195
9741
222
2510
24058
15372
8360
12271
11525
17440
17946
23997
13906
8616
27057
2473
11010
10398
3939
14130
4293
34884
2251
28213
8498
19455
26890
4078
3760
6002
31761
16067
23744
19986
5910
27879
2317
24102
6573
13543
46445
11596
39605
26293
21896
20753
16839
201
12412
36088
9778
13668
30836
2297
835
39218
47091
23468
20421
9677
22836
27732
28280
10191
43179
7760
6457
7607
6985
5208
6406
13522
11639
13404
7137
8064
5399
15473
4380
14753
70
1389
4729
1296
5505
8220
1903
15452
14567
9726
33575
25147
3217
27814
20508
10702
16874
38052
13602
2554
21686
13660
37913
1136
55705
4852
12374
6064
6665
20159
15147
3198
30754
19913
12012
6785
22225
17765
6074
14055
32103
21068
27623
7105
18049
24218
13992
3918
33392
30520
4847
8533
7884
9300
31087
10453
11934
295
1039
3627
2792
17202
12978
8313
46438
2184
9959
16456
21727
13452
3593
16185
18946
10167
671
16441
25355
7433
17032
7434
36870
37143
19724
7043
9118
12825
16303
24797
17118
25842
12431
2004
28526
16379
25487
17668
20208
6247
17691
32963
3745
32436
20026
25751
10304
23849
896
33729
22661
13058
889
38415
1182
23879
2327
24296
16201
13712
1643
23795
11029
22372
39719
38880
43618
40057
6278
22537
14269
5589
23030
42998
1648
19482
15538
9753
22887
21744
3443
6720
15567
12180
15782
26721
19132
12211
7169
49520
2073
6450
1495
9831
16572
45856
20877
7155
6700
1982
1286
28070
15793
8178
10632
14379
10848
21718
758
22641
9418
29815
39270
30395
25158
50834
19349
2934
26228
5662
7401
4331
17241
12208
4974
5347
19369
16847
3984
13081
2235
5193
2108
6326
9596
3509
14213
4054
14829
25433
13228
10633
14173
28428
18789
6359
6000
36888
35191
22254
12700
9494
12877
3499
1756
37848
1147
8620
25403
1059
22116
14672
15477
15098
15099
10661
9212
15826
12738
8187
10630
10206
14760
2827
13700
28552
24889
21122
32443
10597
5435
16837
31704
13552
4767
7590
1767
13974
1976
12246
26712
3366
42847
1112
15240
32018
5078
11325
14338
1243
6507
18700
1240
17359
16062
14587
11416
8434
1153
5314
21206
2708
4192
3949
18931
11093
7644
18299
35510
27758
18515
4479
14687
52467
15562
2851
18682
32665
26759
18261
18967
20736
27681
7673
16731
13176
16729
47613
52770
11677
2724
26639
8040
11040
12517
11576
15744
23819
45375
45620
11398
22886
36387
9061
3200
14545
18499
19136
123
13991
18983
8525
5688
11141
13212
2120
1253
6455
7013
9957
10031
19126
23234
11438
9109
5449
25176
25119
12864
72
4465
13902
10270
2888
4026
3690
4946
7183
3669
2464
23794
9278
11775
29280
16085
44178
10773
21067
3222
4702
24128
28987
43455
35633
8841
4600
44824
18523
10519
15508
15296
827
1054
16458
24552
5964
30893
53089
5343
21683
37089
18429
19748
1498
14759
21142
14505
33307
38917
5950
3292
12435
7542
6935
762
23330
23343
18021
22010
22636
35650
30198
6541
10578
5733
7772
5195
11612
10851
1222
14846
2720
13221
9299
23114
16040
2102
103
1837
18686
13003
6235
3689
15901
1868
14154
31673
5554
13340
5840
8202
11516
1994
50529
25516
3126
6964
38688
2769
29897
27399
119
7943
15165
4064
8438
16057
16737
30643
36054
1154
3408
2172
5953
38907
10138
14033
24321
4890
26663
37895
7439
23910
4268
9946
11796
55878
6761
22773
16610
10381
5858
16757
11942
1679
5061
12784
24394
4930
15302
1934
7037
28786
15362
40367
42390
108
7788
7731
22570
118
18799
13459
7206
3937
19011
12294
32944
8358
13805
22373
7176
5004
22358
1107
4374
29009
732
27607
1024
24634
6207
808
20104
5577
2820
12578
4720
21359
9377
3761
32418
8188
4910
21667
11412
40982
22042
4642
23756
754
185
23553
2273
42547
40588
21501
615
14035
18278
964
10000
33072
22071
20581
8295
24495
50880
13699
13487
13381
20445
17978
2109
6371
51624
8700
4155
19434
584
4361
25897
7611
14601
40804
23462
9286
771
14642
14660
10663
14990
28113
13518
4966
50025
13082
13371
2351
37034
25692
218
26572
12841
27427
16916
21872
10895
13447
32603
5482
29214
6214
626
13062
13751
34216
12923
5282
26127
893
31735
277
19681
4369
2689
5199
4679
7722
23469
10573
20958
991
41882
530
26818
17575
18099
21132
1119
5192
28512
4944
28026
9879
41948
9698
1367
1424
2856
7441
9582
31891
17124
9676
44966
7071
15366
28588
1071
34975
6571
2679
10279
6339
21883
36131
8165
6692
5261
1232
17813
45067
24387
29545
51131
32271
20422
22438
3304
15478
9066
114
15618
1543
846
29821
24116
36814
507
28955
41420
323
9571
36596
15499
4825
23758
12153
13796
6759
10821
4355
22568
12844
25315
28002
5020
23015
10272
12001
9228
11910
33335
34594
34618
42217
15281
3054
18211
10721
11402
36649
4525
9519
11972
37877
21846
32874
13894
15524
2588
10414
8608
19419
24632
34918
20789
17105
7565
5959
4429
10607
32930
1843
20886
7435
8732
6215
13427
12820
7342
4532
28162
6090
16998
14823
4664
2355
10560
18702
1030
1481
167
8661
4565
316
4020
3557
17601
30860
3383
15772
3662
1702
20729
27108
1062
2873
13422
1513
15902
43425
2240
4875
10238
7934
18797
3416
16130
428
997
39739
3440
24161
11888
5338
4746
16159
8089
19508
8290
2507
3837
12675
30581
17372
9395
32951
33716
16
10007
2885
18391
2977
4469
14902
10440
31853
2986
10503
5294
15134
36820
39371
10005
16971
12803
9867
1121
21263
24742
26243
6056
6731
4583
5625
27843
3975
10967
11407
2987
1130
19486
27400
16176
16913
4878
22819
41911
19643
15575
17217
4102
1236
25542
216
15803
18636
23861
14286
17884
17716
33005
36966
29983
43713
4195
30521
2489
26230
5976
12275
13984
15168
27296
6155
3879
15595
407
5200
20051
4733
3449
25686
26815
5360
20364
4710
9177
11507
11163
166
12601
46900
750
12507
20900
16011
6028
5280
23966
20163
22687
10052
5108
46196
6252
18251
6360
6670
9727
10157
6880
17112
56561
8086
18547
30206
848
43056
3483
17088
3330
22948
37434
13806
24382
10408
10790
4786
6304
21202
23000
9267
3459
20328
14763
39582
22424
12641
8134
8321
14363
20436
12544
21959
2779
1460
5278
11119
3663
5428
7870
16032
16141
9733
2436
25337
7616
7461
14405
27074
15527
16890
14965
52016
56523
12605
22883
19157
46707
25726
1985
15264
4837
5966
31805
3613
10006
13693
25055
5001
7841
4427
30575
26555
3706
6772
11386
20483
3268
10508
6677
27953
7969
11816
3121
7508
3732
3890
23440
8256
18944
1257
22463
18464
19775
20661
17856
8142
6596
16728
4738
2639
3786
4657
3538
23945
20525
1390
9072
1319
11962
22250
20917
9223
16999
9876
30573
8411
14495
4159
19102
55959
1233
3224
4863
16179
27087
15890
34264
11483
8799
9472
13164
17598
8015
23403
6153
13542
3774
7745
7108
12604
3859
16019
14524
4874
31769
181
22406
1006
47322
3686
9743
42562
2150
30397
10615
8424
5685
28799
13156
14082
4250
7410
1311
8330
20083
27753
8872
4908
31335
34903
8735
46347
38591
5686
3324
2301
12267
17994
8001
54657
8731
4774
21687
13862
11634
3724
4853
37104
4508
1045
7006
6580
16146
33805
32713
5506
28
7625
5603
6119
3762
259
31040
13074
32060
14184
26627
3099
26423
6120
51058
15700
2858
23407
2867
2967
21043
10225
3439
9652
30204
38197
32112
361
26910
23550
11889
4771
20003
26970
8453
12461
13092
19357
16012
37165
7281
25993
27041
4545
3492
20656
21388
33331
8790
15474
6839
11992
26004
40833
1115
15785
38611
10961
1979
14316
15643
22623
20062
25625
4704
20748
29506
5442
12724
3042
46309
11073
16562
23846
17796
17080
45055
12630
2019
5129
9945
42430
28921
15913
2096
7587
24247
31568
21276
429
9399
18016
9388
25556
39243
14612
35794
3120
33923
4076
20500
31099
15012
14755
3969
918
55933
49380
23045
12926
18680
37298
16097
58965
15587
1355
10516
16856
348
2651
48309
26055
27730
1407
11233
14628
17061
21469
36038
24384
11928
1113
5838
13039
16751
12257
7025
14553
8716
38921
3122
14595
30263
42650
9954
9357
4586
18519
12014
421
8526
5354
10699
10664
7523
31501
9276
24132
3942
34783
1456
1281
28845
22465
7309
880
2219
32057
7642
7065
49244
16938
18470
3887
2455
10595
32322
20823
3263
449
4551
9303
14756
6184
35811
4987
44882
8701
25322
19682
9968
44568
2415
43475
23628
10309
7539
7736
14079
776
2139
27811
8348
5619
5543
3880
10187
29411
37882
12489
35461
59
18613
5927
12255
19727
2085
1018
17977
1073
11955
7799
17035
3372
25963
1983
49098
13333
30866
17383
4265
408
37530
11658
7732
4437
15387
8776
33411
1927
939
10574
1623
9269
30173
18046
21548
7227
5703
18936
2175
38136
3931
16655
56936
1598
32288
1027
8304
9384
23310
5340
2107
7491
11686
20085
19702
15417
4108
17752
27295
13450
446
31195
39324
9343
3862
1978
21471
19031
19750
10262
42030
55012
12314
13743
31330
13868
33992
48357
15078
1848
4399
3806
525
40795
20362
6739
29390
2895
12883
42423
9993
3006
31495
5202
29233
29216
15044
27224
7493
6008
20188
15435
13386
8201
12150
777
9708
5141
9579
19738
34833
20618
15515
5480
7053
5806
22389
23665
4308
10016
24490
4357
2329
11409
2186
560
24371
18538
14240
26315
705
34914
18281
22685
42854
33689
3886
27894
14013
18663
14518
25912
28152
9048
12521
5481
7650
6468
17945
10543
24729
6875
19033
27090
20718
45239
5437
163
2607
40488
20174
11786
10979
11486
30379
16658
6823
34620
31950
23490
29230
13332
10415
1013
6316
25274
33639
3749
448
14484
3835
15557
5860
20024
8806
1302
26684
20734
8448
29987
32234
2421
8758
8429
4106
6017
6400
17015
16355
6354
11192
1068
5436
9209
9492
950
25864
31373
48222
26635
46736
17302
27388
11858
2821
14143
4036
1217
2072
7261
5213
17982
35283
14655
14172
7521
24005
11920
32335
3321
14671
22040
28665
17449
26785
22445
4997
13093
33893
4321
433
18431
16389
48633
15623
8994
8544
13605
13013
42517
3350
5794
37975
23793
19383
9088
1923
7226
10158
9277
4133
32828
29953
13053
5402
15064
27314
4919
1189
30465
15950
28593
5876
10334
1901
15635
31329
86
32163
14729
3783
10001
42968
25872
4564
41518
5405
23685
3075
49911
12735
20884
7854
17797
6691
16760
18234
17451
468
4556
16260
6414
3772
16460
26817
18245
11328
21412
2114
498
16727
5617
2650
8034
3674
9928
27703
4953
43373
23163
50785
53376
13123
2323
7675
7487
11693
4405
12225
14501
38985
8437
17484
30324
56723
11490
16680
4344
11485
17034
12852
6428
6634
22684
10651
2943
18728
310
29236
39423
37408
42961
15712
47344
36201
5350
31149
3771
29972
23326
35226
4087
13687
6526
7774
781
3909
23848
38964
8194
25851
851
30336
9059
13213
242
2405
17743
670
2672
39153
6363
29484
31582
9004
15403
27974
43368
29762
26057
17290
40624
13921
7246
38899
9969
127
31895
4799
12311
2215
11833
1559
21312
25296
10252
7068
20489
14538
9742
6092
18620
11805
10069
10456
18115
9911
3355
12076
2828
24168
8696
20192
6182
12389
34106
20869
5665
17764
14620
2605
8912
37199
6438
4597
11039
3431
4011
16110
11659
57544
18238
3528
9352
37769
15259
6445
9656
25280
1176
38032
879
17360
2932
25273
2909
44020
35431
12160
7225
10044
2253
8198
1467
16041
14196
26591
2685
15237
42212
858
27848
27944
1014
1655
10015
2692
3648
7361
139
15072
33303
32362
14886
7740
21331
12795
16112
18586
16868
16408
20046
22368
4889
22432
43082
18443
25221
14239
43580
37841
19410
187
16297
15910
175
43690
3603
1755
21214
4202
34208
17931
15060
37377
13494
25431
2753
10802
21842
1306
2741
19591
7056
9191
4945
7648
22366
2551
14065
9809
20575
7098
40490
16755
34501
22504
35783
3971
28222
49370
28366
26148
18727
21391
683
7894
15103
2590
22503
22794
50137
24335
30730
20111
37801
50513
11006
8756
1535
21003
11198
1144
25952
566
26992
26462
28690
536
34466
1585
4449
6733
28453
21960
57470
9675
34349
11086
12345
11821
43984
6716
5139
9888
19503
19935
16941
2979
4162
17291
1194
5881
11990
27374
13843
16420
35755
17780
24612
2869
5689
1074
2216
4566
13242
10145
8265
20113
22534
76
10656
12428
17569
7700
3896
35572
4257
3808
16253
11264
28431
6528
14805
873
13570
4938
48887
44039
46798
13125
31607
41081
22052
11044
19655
7875
6096
403
7690
36322
51635
10058
47999
52731
64989
71568
36468
89174
2962
890
9
2800
33448
29768
38354
31339
1078
2615
14287
1466
48080
33533
20285
47902
11751
8353
2407
49725
29876
30523
37388
7272
69353
32531
5862
74730
165
89523
27932
53282
43958
30789
91401
9872
12363
16008
33167
76130
27737
3506
15802
3992
16523
14349
64465
359
88832
2603
91283
2913
3645
66314
54231
88500
39158
32561
14074
51783
76063
49822
37893
83080
1188
30933
51251
76759
2765
36385
76956
35511
56392
77181
3432
55581
72678
24468
40678
1921
31164
26984
75144
5529
67956
83419
2041
79693
60138
49643
9665
68449
22084
47229
80081
76519
42429
45916
56602
42944
85733
84800
64016
75303
79866
3798
71603
53125
10170
43376
86998
3945
932
74585
66542
90189
67421
31849
86696
51638
799
44402
49552
91226
83995
47765
77894
44248
80514
56287
55896
65725
37721
92908
83050
87926
90561
61079
78494
39331
23604
83880
89470
20231
50085
73194
76590
78790
91400
66281
56953
13352
64823
41621
26588
73594
76497
81348
1427
59632
30088
85803
92804
77017
25927
88043
64174
18282
89159
41348
89349
80961
28182
42945
92146
22630
73127
73247
63753
88541
47406
30220
14308
83484
89043
21507
56537
89844
85098
91516
13502
73286
83777
21657
80155
3465
56216
80897
77686
36192
83004
76804
21478
94196
40068
4736
67624
5439
2006
130
53393
73848
90938
70144
72607
79559
81645
72928
81339
82606
77006
17747
70925
77029
55631
60917
93497
74336
67169
45051
76741
83522
45302
63319
59340
88415
86604
89139
29798
80333
21930
80407
51939
9797
39518
66663
)


// ************************************************************************* //
