/*--------------------------------*- C++ -*----------------------------------*\
| =========                 |                                                 |
| \\      /  F ield         | OpenFOAM: The Open Source CFD Toolbox           |
|  \\    /   O peration     | Version:  plus.master.MPPICInterFoam            |
|   \\  /    A nd           | Web:      www.OpenFOAM.com                      |
|    \\/     M anipulation  |                                                 |
\*---------------------------------------------------------------------------*/
FoamFile
{
    version     2.0;
    format      ascii;
    class       scalarField;
    location    "13/lagrangian/kinematicCloud";
    object      age;
}
// * * * * * * * * * * * * * * * * * * * * * * * * * * * * * * * * * * * * * //


143
(
12.9473
12.5264
12.9665
12.281
12.4035
12.1032
12.4056
12.1287
12.6963
12.3811
12.2001
12.3315
12.1
12.2703
12.1913
12.2801
12.4752
12.984
12.1945
12.212
12.8303
12.3001
12.4001
12.2645
12.451
12.5571
12.0726
12.3747
12.4142
12.1235
12.1175
12.4878
12.7901
12.2901
12.2765
12.7096
12.9095
12.2036
12.0707
12.4397
12.7849
12.3259
12.1301
12.2354
12.9138
12.4608
12.5159
12.2211
12.2807
12.3002
12.9325
12.601
12.2956
12.9289
12.1848
12.3182
12.2027
12.3207
12.1538
12.9471
12.1818
12.1304
12.4098
12.2335
12.4149
12.5155
12.2814
12.2955
12.6073
12.3129
12.0881
12.3301
12.2303
12.0759
12.466
12.1913
12.6445
12.1102
12.9385
12.8241
12.4198
12.2305
12.4594
12.638
12.3609
12.1838
12.1379
12.2912
12.1305
12.5049
12.41
12.34
12.6571
12.6809
12.6797
12.1753
12.2815
12.8243
12.6708
12.3701
12.0945
12.6218
12.7336
12.1701
12.1763
12.606
12.1896
12.2648
12.1903
12.224
12.21
12.2248
12.9435
12.3558
12.2416
12.5081
12.5162
12.4102
12.1252
12.2411
12.1076
12.1902
12.429
12.9003
12.1802
12.0851
12.2507
12.3676
12.4335
12.4264
12.2666
12.6414
12.2667
12.6762
12.4378
12.0903
12.3001
12.6553
12.1365
12.2375
12.8197
12.6592
12.1507
)


// ************************************************************************* //
