/*--------------------------------*- C++ -*----------------------------------*\
| =========                 |                                                 |
| \\      /  F ield         | OpenFOAM: The Open Source CFD Toolbox           |
|  \\    /   O peration     | Version:  plus.master.MPPICInterFoam            |
|   \\  /    A nd           | Web:      www.OpenFOAM.com                      |
|    \\/     M anipulation  |                                                 |
\*---------------------------------------------------------------------------*/
FoamFile
{
    version     2.0;
    format      ascii;
    class       labelField;
    location    "13/lagrangian/kinematicCloud";
    object      origId;
}
// * * * * * * * * * * * * * * * * * * * * * * * * * * * * * * * * * * * * * //


143
(
6096
48080
3945
72697
60412
90441
60258
88075
31122
62677
80895
67624
90938
73848
81645
72928
53393
2006
81339
79559
17747
70925
60917
74336
55631
45051
93497
63319
59340
88415
89139
51939
21930
71936
73203
29798
9797
80407
93737
56760
22252
68238
87889
77269
9440
54654
49145
78676
72739
70851
7540
40653
71261
7853
82311
69102
80488
68745
85394
6151
82578
87816
59847
77412
59293
49188
72631
71268
40125
69472
92109
67905
77840
93238
54328
81642
36368
89852
6909
18361
58781
77792
54779
37152
64704
82394
87117
71663
87793
50354
59787
66991
35238
32669
32761
83276
72621
18346
33665
63896
91334
38539
27462
83905
83211
40200
82027
74317
81833
78371
79987
78313
6479
65248
76613
49916
49107
59762
88288
76669
90134
81881
57890
10709
82864
92290
75750
64135
57420
58219
74194
36583
74189
33316
57167
91837
70921
35339
87200
77139
18912
34804
85734
)


// ************************************************************************* //
