/*--------------------------------*- C++ -*----------------------------------*\
| =========                 |                                                 |
| \\      /  F ield         | OpenFOAM: The Open Source CFD Toolbox           |
|  \\    /   O peration     | Version:  plus.master.MPPICInterFoam            |
|   \\  /    A nd           | Web:      www.OpenFOAM.com                      |
|    \\/     M anipulation  |                                                 |
\*---------------------------------------------------------------------------*/
FoamFile
{
    version     2.0;
    format      ascii;
    class       Cloud<basicKinematicMPPICParcel>;
    location    "13/lagrangian/kinematicCloud";
    object      positions;
}
// * * * * * * * * * * * * * * * * * * * * * * * * * * * * * * * * * * * * * //

143
(
(0.0116188 -0.0365919 0.367508) 6438
(0.0323013 -0.0208569 0.383405) 4726
(0.0206104 -0.0327391 0.394725) 6622
(0.0257806 0.0402556 0.344558) 7239
(0.0169885 0.0577808 0.355834) 7314
(0.012622 0.0595752 0.355793) 7314
(0.00603675 0.0599336 0.358073) 7322
(0.0170562 0.0589065 0.36049) 7314
(0.0186432 0.0565815 0.362295) 7313
(0.0121221 0.0604935 0.361103) 7314
(0.0106566 0.0618792 0.360296) 7314
(0.012113 0.0615887 0.360394) 7314
(0.0121465 0.0625798 0.361753) 7314
(0.0147045 0.0610336 0.360353) 7314
(0.0140583 0.0608607 0.360141) 7314
(0.0118962 0.0641637 0.366113) 7371
(0.0156056 0.0598852 0.359709) 7314
(0.0087113 -0.0627995 0.367827) 6442
(0.012836 0.0600366 0.361034) 7314
(0.0156198 0.059764 0.362359) 7314
(0.00935805 0.0619153 0.364564) 7370
(0.0115963 0.0608679 0.36487) 7370
(0.00702437 0.0586266 0.363964) 7369
(0.0103382 0.058852 0.361271) 7314
(0.00561488 0.0577976 0.364853) 7377
(0.0089469 0.059911 0.363694) 7370
(0.00664013 -0.0623195 0.370756) 6434
(0.00572378 0.0577242 0.368988) 7377
(0.00874014 0.0611907 0.373576) 7426
(0.0111571 0.0623091 0.375195) 7426
(0.000910129 0.0608382 0.366791) 7378
(-0.00187668 0.0637886 0.369897) 7378
(0.00268115 0.0606152 0.372288) 7378
(0.000234771 0.0626931 0.373401) 7434
(-0.00576789 0.0604904 0.363929) 7378
(0.00869086 0.060618 0.377157) 7426
(0.00873843 0.0606022 0.377551) 7426
(0.00752552 0.0584372 0.37763) 7425
(-0.000952247 0.0640087 0.376621) 7434
(-0.00184454 0.0638535 0.374332) 7434
(0.00481753 0.0583893 0.378512) 7433
(0.00311242 0.0602279 0.378964) 7434
(-0.000923988 0.0616638 0.374384) 7434
(0.00220937 0.0605907 0.377897) 7434
(0.000666836 0.0614604 0.376839) 7434
(0.00216837 0.0595335 0.380825) 7434
(0.00141079 0.0601607 0.381107) 7434
(0.000718023 0.060862 0.381299) 7434
(-0.00254846 0.0624852 0.380028) 7434
(-0.00355684 0.0622832 0.379911) 7434
(0.000796442 0.0603229 0.381504) 7434
(-0.00103046 0.0618273 0.383302) 7490
(0.00176681 0.0595094 0.383681) 7489
(-0.00119041 -0.0628872 0.393395) 6602
(-0.000503769 0.0609981 0.38554) 7490
(-0.00484855 0.0610595 0.38408) 7490
(-0.00302191 -0.0621649 0.394963) 6602
(-0.00320514 -0.0620515 0.395183) 6602
(-0.0130398 0.0558712 0.381361) 7441
(-0.00752673 0.0587096 0.38521) 7497
(-0.0633177 0.00414105 0.382868) 5650
(-0.00738517 0.0597428 0.391499) 7498
(-0.0634753 0.00290119 0.386856) 5650
(-0.0621617 0.00218435 0.382683) 5594
(-0.00917405 0.0552295 0.388272) 7497
(-0.0632052 0.000708452 0.383348) 5650
(-0.00265304 0.0606825 0.390331) 7490
(-0.00399552 0.060229 0.389417) 7490
(-0.0636932 0.000532586 0.388179) 5650
(0.0030495 0.0570966 0.399621) 7545
(-0.00188195 0.0598507 0.395221) 7546
(0.000448508 0.058792 0.398437) 7545
(-0.00400283 0.0596789 0.395512) 7546
(0.000972818 0.0585829 0.400294) 7545
(0.00117336 0.0570795 0.395118) 7545
(-0.00616919 -0.0603394 0.404773) 6658
(-0.00158702 0.0594866 0.397777) 7545
(-0.00588029 -0.0603459 0.405501) 6658
(0.00358862 0.0553824 0.402013) 7545
(-0.00543545 -0.060436 0.407879) 6658
(-0.00418227 0.0589871 0.399716) 7545
(-0.0642891 -0.000785651 0.397285) 5706
(-0.0642128 0.0013875 0.397982) 5706
(-0.0640274 0.00238589 0.398127) 5706
(-0.0641085 -0.00165239 0.398634) 5706
(-0.00606115 -0.059802 0.409913) 6658
(-0.00159265 0.0580811 0.404607) 7601
(-0.00611101 -0.0595304 0.410236) 6658
(-0.00327522 0.0587294 0.402917) 7601
(-0.00469339 0.058676 0.405214) 7601
(-0.0635774 0.00318923 0.4029) 5762
(-0.0108552 0.0545054 0.40641) 7609
(-0.0632152 0.00328181 0.408162) 5762
(-0.0180673 0.0542092 0.409278) 7609
(-0.00705945 -0.0552624 0.422374) 6705
(-0.0149322 0.0533424 0.413337) 7665
(-0.0151603 0.0532747 0.413038) 7665
(-0.0138159 -0.0552049 0.422801) 6761
(-0.0102961 0.0570095 0.414188) 7665
(-0.0158797 0.0534424 0.413579) 7665
(-0.00575516 -0.0576771 0.423947) 6769
(-0.0118076 -0.0553347 0.423359) 6761
(-0.0149774 0.0528031 0.417722) 7665
(-0.00748198 -0.0518874 0.429665) 6760
(-0.0140393 -0.0541986 0.427675) 6761
(-0.00770225 -0.0537929 0.430164) 6761
(-0.0167966 -0.0531575 0.428687) 6761
(-0.00803851 -0.0518059 0.432026) 6760
(-0.0188288 -0.0521934 0.430609) 6753
(-0.0155898 -0.053094 0.431156) 6761
(-0.0184971 0.0530856 0.42517) 7721
(-0.0174137 -0.0522338 0.433569) 6817
(-0.00883922 -0.0504519 0.437051) 6816
(-0.0128456 -0.0532347 0.436716) 6817
(-0.0101488 -0.0510327 0.437427) 6816
(-0.0588651 0.0107831 0.429657) 5866
(-0.0161485 -0.0519441 0.438291) 6817
(-0.0172056 0.0530239 0.43379) 7777
(-0.011639 0.0573035 0.441343) 7777
(-0.0187227 -0.0504179 0.444851) 6864
(-0.0144222 -0.0517445 0.446858) 6872
(-0.0194405 0.0530741 0.441671) 7785
(-0.0160833 -0.0511178 0.448568) 6872
(-0.0221599 0.0527874 0.451617) 7841
(-0.0210819 -0.0480311 0.45802) 6920
(-0.0201664 -0.0483872 0.459721) 6920
(-0.0579356 0.0101561 0.45554) 6033
(-0.0559799 0.0127832 0.454228) 6033
(-0.0557711 0.0126071 0.455965) 6033
(-0.0123827 0.0371216 0.484944) 8054
(-0.0220343 -0.0474708 0.461648) 6920
(-0.056589 0.0117465 0.45867) 6033
(-0.0197833 -0.0480319 0.46473) 6976
(-0.0575958 0.0122914 0.460875) 6033
(-0.0202141 -0.0475482 0.467692) 6976
(-0.0194115 -0.0474783 0.474233) 7032
(-0.0217018 0.0513523 0.474058) 8009
(-0.0180704 -0.0475992 0.4815) 7032
(-0.019751 -0.0463649 0.484004) 7088
(-0.0211678 -0.0460055 0.485547) 7088
(-0.012194 -0.0167351 0.401165) 2903
(-0.0198559 -0.0460805 0.491058) 7088
(-0.0117767 0.0232515 0.376098) 3770
)


// ************************************************************************* //
