/*--------------------------------*- C++ -*----------------------------------*\
| =========                 |                                                 |
| \\      /  F ield         | OpenFOAM: The Open Source CFD Toolbox           |
|  \\    /   O peration     | Version:  plus.master                           |
|   \\  /    A nd           | Web:      www.OpenFOAM.com                      |
|    \\/     M anipulation  |                                                 |
\*---------------------------------------------------------------------------*/
FoamFile
{
    version     2.0;
    format      ascii;
    class       scalarField;
    location    "8.2/lagrangian/kinematicCloud";
    object      age;
}
// * * * * * * * * * * * * * * * * * * * * * * * * * * * * * * * * * * * * * //


96597
(
8.20119
8.20117
8.20115
8.20113
8.20111
8.20109
8.20107
8.20106
8.20104
8.201
8.20098
8.20096
8.20095
8.20093
8.20091
8.20088
8.20086
8.20084
8.20083
8.20081
8.20079
8.20078
8.20076
8.20075
8.20073
8.20068
8.20067
8.20065
8.20064
8.20063
8.20061
8.2006
8.20058
8.20057
8.20056
8.20054
8.20053
8.20052
8.2005
8.20049
8.20048
8.20047
8.20045
8.20044
8.20043
8.20042
8.20041
8.20039
8.20038
8.20037
8.20036
8.20035
8.20034
8.20033
8.20032
8.2003
8.20029
8.20028
8.20027
8.20026
8.20025
8.20024
8.20023
8.20022
8.20022
8.2002
8.20018
8.20017
8.20017
8.20015
8.20015
8.20014
8.20013
8.20013
8.20012
8.20011
8.20011
8.2001
8.20009
8.20008
8.20008
8.20007
8.20007
8.20006
8.20006
8.20006
8.20005
8.20005
8.20004
8.20004
8.20004
8.20003
8.20003
8.20003
8.20002
8.20002
8.20002
8.20001
8.20001
8.20001
8.20001
8.2
8.2
8.2
8.2
8.20023
8.20021
8.20019
8.20015
8.20011
8.20008
8.20006
8.20002
8.2
8.19998
8.19997
8.19993
8.19991
8.19989
8.19986
8.19984
8.19983
8.19981
8.19979
8.19978
8.19976
8.19974
8.19973
8.19971
8.1997
8.19968
8.19967
8.19965
8.19963
8.1996
8.19959
8.19958
8.19956
8.19953
8.19952
8.19949
8.19944
8.19942
8.19941
8.1994
8.19938
8.19936
8.19934
8.19932
8.19931
8.1993
8.19929
8.19927
8.19925
8.19924
8.19922
8.1992
8.19919
8.19918
8.19917
8.19916
8.19915
8.19914
8.19913
8.19912
8.19911
8.1991
8.19909
8.19909
8.19907
8.19906
8.19905
8.19904
8.19904
8.19902
8.19901
8.199
8.199
8.19899
8.19898
8.19898
8.19897
8.19896
8.19894
8.19893
8.19892
8.19892
8.19891
8.1989
8.19889
8.19889
8.19889
8.19888
8.19887
8.19887
8.19886
8.19886
8.19886
8.19885
8.19885
8.19884
8.19884
8.19883
8.19883
8.19883
8.19883
8.19883
8.19882
8.19882
8.19882
8.19882
8.19882
8.19882
8.19881
8.19881
8.19881
8.19881
8.19881
8.19881
8.19881
8.19909
8.19907
8.19905
8.19903
8.19901
8.19899
8.19897
8.19895
8.19894
8.19892
8.1989
8.19888
8.19886
8.19884
8.19881
8.19879
8.19877
8.19875
8.19873
8.19872
8.1987
8.19868
8.19866
8.19865
8.19863
8.19861
8.1986
8.19858
8.19856
8.19855
8.19853
8.1985
8.19845
8.19843
8.19842
8.1984
8.19839
8.19837
8.19836
8.19834
8.19831
8.1983
8.19827
8.19826
8.19824
8.19823
8.19821
8.19819
8.19817
8.19816
8.19815
8.19813
8.19812
8.19809
8.19807
8.19806
8.19804
8.19803
8.19802
8.19801
8.19799
8.19797
8.19796
8.19795
8.19794
8.19793
8.19791
8.1979
8.19789
8.19788
8.19787
8.19786
8.19785
8.19784
8.19783
8.19781
8.1978
8.19779
8.19778
8.19777
8.19776
8.19775
8.19774
8.19773
8.19771
8.19769
8.19768
8.19767
8.19767
8.19766
8.19765
8.19764
8.19763
8.19762
8.19761
8.19761
8.1976
8.19759
8.19759
8.19758
8.19757
8.19757
8.19756
8.19755
8.19755
8.19754
8.19753
8.19753
8.19752
8.19752
8.19751
8.19751
8.1975
8.1975
8.19749
8.19749
8.19748
8.19748
8.19747
8.19747
8.19746
8.19746
8.19746
8.19745
8.19745
8.19744
8.19744
8.19744
8.19743
8.19742
8.19742
8.19742
8.19742
8.19741
8.19741
8.19741
8.1974
8.1974
8.1974
8.1974
8.1974
8.1974
8.19739
8.19739
8.19739
8.19739
8.19773
8.19771
8.19769
8.19767
8.19765
8.19763
8.19761
8.19759
8.19757
8.19755
8.19753
8.19751
8.19747
8.19742
8.1974
8.19738
8.19736
8.19735
8.19733
8.19731
8.19729
8.19727
8.19726
8.19724
8.19722
8.19721
8.19719
8.19717
8.19715
8.19714
8.19712
8.19709
8.19707
8.19705
8.19704
8.19702
8.19701
8.19699
8.19697
8.19696
8.19694
8.19693
8.19691
8.1969
8.19688
8.19686
8.19685
8.19683
8.19682
8.1968
8.19679
8.19678
8.19676
8.19675
8.19673
8.19672
8.19669
8.19668
8.19666
8.19663
8.19662
8.19661
8.19659
8.19658
8.19657
8.19655
8.19652
8.1965
8.19649
8.19648
8.19647
8.19645
8.19644
8.19643
8.19642
8.1964
8.19639
8.19638
8.19637
8.19636
8.19635
8.19634
8.19632
8.1963
8.19629
8.19628
8.19627
8.19625
8.19624
8.19623
8.19622
8.19621
8.19619
8.19618
8.19617
8.19615
8.19614
8.19613
8.19612
8.19611
8.1961
8.19609
8.19608
8.19607
8.19606
8.19605
8.19604
8.19603
8.19603
8.19602
8.19601
8.19599
8.19598
8.19597
8.19596
8.19596
8.19595
8.19593
8.19593
8.19591
8.19591
8.1959
8.19589
8.19589
8.19588
8.19588
8.19587
8.19586
8.19586
8.19585
8.19585
8.19584
8.19584
8.19583
8.19582
8.19582
8.19581
8.19581
8.1958
8.1958
8.19579
8.19579
8.19578
8.19578
8.19577
8.19577
8.19577
8.19576
8.19576
8.19575
8.19575
8.19575
8.19574
8.19574
8.19574
8.19573
8.19573
8.19573
8.19573
8.19572
8.19572
8.19572
8.19572
8.19571
8.19571
8.19571
8.1957
8.1957
8.1957
8.1957
8.1957
8.19569
8.19569
8.19569
8.19569
8.19569
8.19569
8.19569
8.19569
8.19569
8.19569
8.19569
8.19607
8.19605
8.19603
8.19601
8.19599
8.19597
8.19595
8.19593
8.19591
8.19587
8.19586
8.19584
8.19582
8.1958
8.19578
8.19576
8.19574
8.19572
8.19571
8.19569
8.19567
8.19565
8.19563
8.19562
8.1956
8.19558
8.19556
8.19554
8.19553
8.19551
8.19549
8.19544
8.19542
8.19541
8.19539
8.19537
8.19536
8.19534
8.19532
8.19531
8.19529
8.19527
8.19524
8.19522
8.19521
8.19519
8.19518
8.19516
8.19514
8.19513
8.19511
8.1951
8.19508
8.19507
8.19505
8.19504
8.19502
8.19501
8.19499
8.19498
8.19496
8.19493
8.1949
8.19489
8.19488
8.19486
8.19485
8.19483
8.19482
8.19481
8.19479
8.19478
8.19477
8.19475
8.19474
8.19473
8.19471
8.1947
8.19469
8.19466
8.19465
8.19463
8.19462
8.1946
8.19458
8.19457
8.19455
8.19454
8.19452
8.1945
8.19449
8.19448
8.19446
8.19445
8.19444
8.19443
8.19442
8.19441
8.1944
8.19439
8.19437
8.19436
8.19434
8.19433
8.19432
8.1943
8.19429
8.19426
8.19425
8.19424
8.19422
8.19421
8.1942
8.19419
8.19418
8.19417
8.19416
8.19415
8.19414
8.19413
8.19412
8.19411
8.19408
8.19408
8.19407
8.19405
8.19404
8.19404
8.19403
8.19402
8.19401
8.194
8.194
8.19399
8.19398
8.19397
8.19397
8.19396
8.19395
8.19395
8.19393
8.19392
8.19391
8.1939
8.19389
8.19389
8.19388
8.19387
8.19386
8.19386
8.19385
8.19384
8.19384
8.19383
8.19383
8.19382
8.19382
8.19381
8.19381
8.1938
8.1938
8.19379
8.19379
8.19378
8.19377
8.19376
8.19376
8.19376
8.19375
8.19375
8.19374
8.19374
8.19373
8.19373
8.19373
8.19372
8.19372
8.19371
8.19371
8.19371
8.19371
8.1937
8.1937
8.19369
8.19369
8.19368
8.19368
8.19368
8.19368
8.19368
8.19367
8.19367
8.19367
8.19366
8.19366
8.19366
8.19366
8.19366
8.19366
8.19366
8.19366
8.19365
8.19365
8.19365
8.19365
8.19365
8.19365
8.19365
8.19365
8.19413
8.19411
8.19409
8.19407
8.19405
8.19403
8.19401
8.19399
8.19393
8.19391
8.19387
8.19385
8.19382
8.1938
8.19376
8.19374
8.19372
8.19367
8.19365
8.19363
8.19361
8.19359
8.19358
8.19356
8.19354
8.19352
8.1935
8.19349
8.19347
8.19345
8.19342
8.1934
8.19338
8.19336
8.19335
8.19333
8.19331
8.1933
8.19328
8.19326
8.19325
8.19323
8.19321
8.19318
8.19316
8.19315
8.19313
8.19312
8.1931
8.19307
8.19305
8.19304
8.19302
8.193
8.19299
8.19297
8.19296
8.19294
8.19293
8.1929
8.19288
8.19287
8.19285
8.19284
8.19282
8.19281
8.19279
8.19278
8.19276
8.19275
8.19273
8.19272
8.19269
8.19268
8.19266
8.19265
8.19263
8.19262
8.19261
8.19259
8.19258
8.19257
8.19255
8.19254
8.19253
8.19251
8.1925
8.19249
8.19247
8.19246
8.19243
8.19242
8.19241
8.1924
8.19238
8.19237
8.19233
8.19232
8.19231
8.1923
8.19228
8.19226
8.19225
8.19224
8.19222
8.19221
8.1922
8.19219
8.19218
8.19216
8.19214
8.19213
8.19212
8.19211
8.1921
8.19207
8.19206
8.19205
8.19202
8.19201
8.192
8.19199
8.19198
8.19196
8.19193
8.19192
8.1919
8.19189
8.19188
8.19188
8.19187
8.19186
8.19185
8.19184
8.19182
8.19181
8.1918
8.19179
8.19178
8.19177
8.19176
8.19175
8.19174
8.19173
8.19172
8.19172
8.19171
8.19169
8.19168
8.19168
8.19165
8.19165
8.19163
8.19162
8.19162
8.19161
8.19159
8.19158
8.19157
8.19155
8.19154
8.19153
8.19152
8.19151
8.19151
8.1915
8.1915
8.19149
8.19148
8.19148
8.19147
8.19147
8.19146
8.19145
8.19144
8.19144
8.19143
8.19143
8.19142
8.19141
8.19141
8.1914
8.1914
8.19139
8.19139
8.19138
8.19138
8.19137
8.19137
8.19136
8.19136
8.19135
8.19134
8.19133
8.19133
8.19133
8.19132
8.19131
8.19131
8.1913
8.1913
8.1913
8.1913
8.19129
8.19129
8.19128
8.19128
8.19128
8.19128
8.19127
8.19127
8.19127
8.19126
8.19126
8.19126
8.19126
8.19126
8.19125
8.19125
8.19125
8.19124
8.19124
8.19124
8.19124
8.19124
8.19124
8.19123
8.19123
8.19123
8.19123
8.19123
8.19123
8.19123
8.19123
8.19123
8.19123
8.19123
8.19123
8.19176
8.19174
8.19172
8.1917
8.19168
8.19164
8.19162
8.1916
8.19158
8.19156
8.19152
8.1915
8.19148
8.19146
8.19139
8.19137
8.19135
8.19127
8.19125
8.19122
8.1912
8.19118
8.19116
8.19114
8.19113
8.19111
8.19109
8.19107
8.19105
8.19104
8.191
8.19098
8.19097
8.19095
8.19093
8.19091
8.19088
8.19086
8.19084
8.19083
8.19079
8.19078
8.19076
8.19074
8.19073
8.19071
8.19069
8.19068
8.19066
8.19061
8.19059
8.19056
8.19055
8.19053
8.1905
8.19048
8.19045
8.19043
8.19042
8.1904
8.19039
8.19037
8.19036
8.19034
8.19033
8.19028
8.19024
8.19022
8.19021
8.19019
8.19018
8.19016
8.19015
8.19012
8.1901
8.19009
8.19007
8.19006
8.19005
8.19003
8.19002
8.19
8.18999
8.18998
8.18995
8.18993
8.18992
8.18989
8.18988
8.18987
8.18985
8.18983
8.18981
8.1898
8.18979
8.18977
8.18976
8.18974
8.18972
8.1897
8.18968
8.18967
8.18966
8.18965
8.18962
8.18961
8.1896
8.18957
8.18956
8.18955
8.18954
8.18951
8.1895
8.18949
8.18948
8.18946
8.18944
8.18942
8.18941
8.18939
8.18938
8.18937
8.18936
8.18934
8.18933
8.18932
8.18931
8.1893
8.18929
8.18928
8.18927
8.18926
8.18925
8.18924
8.18923
8.18922
8.18921
8.1892
8.18919
8.18918
8.18917
8.18916
8.18915
8.18914
8.18913
8.18911
8.1891
8.18909
8.18908
8.18907
8.18905
8.18904
8.18903
8.18903
8.18902
8.18901
8.189
8.18899
8.18898
8.18897
8.18896
8.18895
8.18894
8.18893
8.18892
8.18891
8.18891
8.1889
8.18889
8.18887
8.18886
8.18886
8.18885
8.18884
8.18883
8.18883
8.18882
8.18881
8.1888
8.1888
8.18879
8.18877
8.18876
8.18875
8.18875
8.18874
8.18873
8.18873
8.18872
8.18871
8.18871
8.1887
8.18869
8.18868
8.18867
8.18867
8.18865
8.18865
8.18864
8.18864
8.18863
8.18862
8.18862
8.18861
8.18861
8.1886
8.1886
8.18859
8.18858
8.18858
8.18857
8.18857
8.18856
8.18855
8.18854
8.18854
8.18853
8.18853
8.18852
8.18852
8.18851
8.18851
8.1885
8.1885
8.1885
8.18849
8.18848
8.18848
8.18847
8.18847
8.18847
8.18846
8.18846
8.18846
8.18845
8.18845
8.18844
8.18844
8.18844
8.18843
8.18843
8.18842
8.18842
8.18842
8.18841
8.18841
8.1884
8.1884
8.1884
8.18839
8.18839
8.18839
8.18838
8.18838
8.18838
8.18838
8.18837
8.18837
8.18837
8.18837
8.18837
8.18836
8.18836
8.18836
8.18836
8.18835
8.18835
8.18835
8.18835
8.18835
8.18835
8.18835
8.18834
8.18834
8.18834
8.18834
8.18834
8.18834
8.18834
8.18834
8.18833
8.18833
8.18833
8.18833
8.18833
8.18833
8.18833
8.18833
8.18833
8.18833
8.18833
8.18891
8.18889
8.18887
8.18885
8.18883
8.18881
8.18879
8.18877
8.18875
8.18873
8.18871
8.18869
8.18867
8.18865
8.18863
8.18861
8.18859
8.18857
8.18856
8.18854
8.18852
8.18848
8.18846
8.18844
8.18842
8.18841
8.18839
8.18833
8.18831
8.18829
8.18828
8.18826
8.18824
8.18822
8.1882
8.18818
8.18813
8.18811
8.1881
8.18808
8.18804
8.18802
8.18801
8.18799
8.18797
8.18795
8.18794
8.18792
8.1879
8.18788
8.18787
8.18785
8.18783
8.18782
8.1878
8.18778
8.18777
8.18775
8.18773
8.1877
8.18768
8.18767
8.18765
8.18763
8.1876
8.18758
8.18757
8.18755
8.18753
8.18752
8.1875
8.18749
8.18747
8.18745
8.18744
8.18742
8.18738
8.18736
8.18734
8.18733
8.18731
8.1873
8.18728
8.18727
8.18725
8.18724
8.18722
8.18721
8.18719
8.18718
8.18716
8.18715
8.18713
8.18712
8.1871
8.18709
8.18707
8.18706
8.18704
8.18701
8.187
8.18698
8.18697
8.18696
8.18694
8.18693
8.18691
8.1869
8.18689
8.18687
8.18686
8.18684
8.18683
8.18682
8.1868
8.18679
8.18677
8.18676
8.18673
8.18672
8.18671
8.18667
8.18665
8.18664
8.18663
8.18661
8.1866
8.18658
8.18656
8.18655
8.18654
8.18652
8.18651
8.1865
8.18649
8.18647
8.18646
8.18645
8.18644
8.18642
8.18641
8.1864
8.18639
8.18638
8.18636
8.18635
8.18634
8.18633
8.18632
8.1863
8.18627
8.18626
8.18625
8.18623
8.18622
8.18621
8.1862
8.18619
8.18618
8.18617
8.18616
8.18614
8.18613
8.18612
8.18611
8.1861
8.18609
8.18608
8.18606
8.18605
8.18603
8.18601
8.186
8.18599
8.18598
8.18597
8.18596
8.18595
8.18594
8.18593
8.18592
8.18591
8.1859
8.18589
8.18588
8.18587
8.18586
8.18585
8.18584
8.18583
8.18582
8.18581
8.18581
8.1858
8.18579
8.18578
8.18577
8.18576
8.18575
8.18574
8.18573
8.18572
8.18571
8.1857
8.1857
8.18569
8.18568
8.18567
8.18566
8.18565
8.18564
8.18563
8.18563
8.18562
8.18561
8.1856
8.18559
8.18558
8.18558
8.18557
8.18556
8.18555
8.18553
8.18551
8.1855
8.18549
8.18548
8.18547
8.18547
8.18546
8.18544
8.18544
8.18543
8.18542
8.18542
8.18541
8.1854
8.18539
8.18539
8.18538
8.18537
8.18537
8.18536
8.18535
8.18535
8.18534
8.18533
8.18533
8.18532
8.18531
8.18531
8.1853
8.1853
8.18529
8.18528
8.18528
8.18527
8.18527
8.18525
8.18525
8.18524
8.18524
8.18523
8.18522
8.18522
8.18521
8.18521
8.1852
8.1852
8.18519
8.18519
8.18518
8.18518
8.18517
8.18517
8.18516
8.18516
8.18515
8.18515
8.18514
8.18514
8.18513
8.18513
8.18512
8.18512
8.18511
8.18511
8.1851
8.1851
8.1851
8.18509
8.18509
8.18508
8.18508
8.18507
8.18507
8.18507
8.18506
8.18505
8.18505
8.18505
8.18504
8.18504
8.18503
8.18503
8.18503
8.18502
8.18502
8.18501
8.18501
8.18501
8.185
8.185
8.18499
8.18499
8.18499
8.18499
8.18498
8.18498
8.18498
8.18497
8.18497
8.18497
8.18497
8.18496
8.18496
8.18496
8.18496
8.18495
8.18495
8.18495
8.18495
8.18495
8.18494
8.18494
8.18494
8.18494
8.18494
8.18493
8.18493
8.18493
8.18493
8.18493
8.18493
8.18493
8.18492
8.18492
8.18492
8.18492
8.18492
8.18492
8.18492
8.18491
8.18491
8.18491
8.18491
8.18491
8.18491
8.18491
8.18491
8.18491
8.18491
8.18491
8.18491
8.18491
8.18491
8.18565
8.18563
8.18561
8.18557
8.18555
8.18551
8.18547
8.18545
8.18543
8.18539
8.18537
8.18535
8.18533
8.18531
8.18529
8.18526
8.18524
8.18522
8.1852
8.18518
8.18516
8.18514
8.18512
8.1851
8.18509
8.18507
8.18505
8.18503
8.18501
8.18499
8.18497
8.18494
8.18492
8.1849
8.18488
8.18486
8.18484
8.18481
8.18479
8.18477
8.18475
8.18474
8.18472
8.1847
8.18468
8.18466
8.18465
8.18463
8.18461
8.18459
8.18458
8.18456
8.18454
8.18452
8.18449
8.18444
8.18442
8.18437
8.18433
8.18432
8.1843
8.18428
8.18427
8.18425
8.18423
8.18422
8.18418
8.18417
8.18415
8.18413
8.18412
8.1841
8.18408
8.18407
8.18405
8.18402
8.184
8.18399
8.18397
8.18395
8.18394
8.18392
8.18391
8.18389
8.18387
8.18386
8.18384
8.18383
8.18381
8.18378
8.18376
8.18375
8.18373
8.18372
8.1837
8.18369
8.18367
8.18366
8.18364
8.18363
8.18361
8.1836
8.18358
8.18355
8.18354
8.18352
8.18351
8.18349
8.18348
8.18345
8.18343
8.18342
8.1834
8.18339
8.18337
8.18334
8.18333
8.18332
8.1833
8.18329
8.18327
8.18326
8.18325
8.18323
8.18322
8.1832
8.18319
8.18318
8.18316
8.18315
8.18313
8.18312
8.18311
8.18309
8.18308
8.18307
8.18305
8.18304
8.183
8.18299
8.18297
8.18296
8.18295
8.18293
8.18292
8.18291
8.18289
8.18288
8.18287
8.18284
8.18282
8.1828
8.18279
8.18278
8.18277
8.18275
8.18274
8.18273
8.1827
8.18269
8.18268
8.18267
8.18263
8.18262
8.18261
8.18259
8.18255
8.18253
8.18252
8.18251
8.18249
8.18248
8.18246
8.18245
8.18244
8.18242
8.18241
8.1824
8.18239
8.18237
8.18236
8.18235
8.18234
8.18233
8.18232
8.18231
8.1823
8.18229
8.18226
8.18225
8.18223
8.18221
8.1822
8.18219
8.18218
8.18217
8.18216
8.18215
8.18214
8.18213
8.18212
8.1821
8.18209
8.18208
8.18207
8.18205
8.18204
8.18203
8.18202
8.18201
8.182
8.18199
8.18198
8.18197
8.18196
8.18195
8.18194
8.18193
8.18192
8.18191
8.1819
8.18189
8.18188
8.18186
8.18185
8.18184
8.18183
8.18182
8.18181
8.18181
8.1818
8.18178
8.18176
8.18175
8.18174
8.18173
8.18172
8.18171
8.1817
8.18169
8.18169
8.18168
8.18167
8.18166
8.18165
8.18165
8.18164
8.18163
8.18161
8.1816
8.18159
8.18158
8.18158
8.18157
8.18156
8.18155
8.18155
8.18152
8.18152
8.1815
8.18149
8.18149
8.18148
8.18147
8.18147
8.18146
8.18145
8.18145
8.18144
8.18143
8.18143
8.18142
8.18141
8.18141
8.18139
8.18139
8.18138
8.18137
8.18136
8.18135
8.18135
8.18134
8.18134
8.18133
8.18132
8.18132
8.18131
8.18131
8.18129
8.18128
8.18127
8.18126
8.18126
8.18125
8.18125
8.18124
8.18124
8.18123
8.18123
8.18122
8.18122
8.18121
8.18121
8.1812
8.1812
8.18119
8.18118
8.18118
8.18117
8.18117
8.18116
8.18116
8.18115
8.18115
8.18114
8.18114
8.18113
8.18113
8.18112
8.18112
8.18111
8.18111
8.18111
8.1811
8.1811
8.18109
8.18109
8.18109
8.18108
8.18108
8.18107
8.18107
8.18106
8.18105
8.18105
8.18105
8.18104
8.18104
8.18104
8.18103
8.18103
8.18103
8.18102
8.18102
8.18102
8.18101
8.18101
8.18101
8.181
8.181
8.18099
8.18099
8.18099
8.18098
8.18098
8.18097
8.18097
8.18096
8.18096
8.18096
8.18096
8.18095
8.18095
8.18095
8.18095
8.18094
8.18094
8.18094
8.18094
8.18094
8.18093
8.18093
8.18093
8.18093
8.18093
8.18092
8.18092
8.18092
8.18092
8.18091
8.18091
8.18091
8.18091
8.18091
8.18091
8.18091
8.1809
8.1809
8.1809
8.1809
8.1809
8.1809
8.1809
8.1809
8.1809
8.1809
8.18089
8.18089
8.18089
8.18089
8.18089
8.18089
8.18089
8.18089
8.18089
8.18089
8.18089
8.18089
8.18089
8.18089
8.18089
8.18089
8.18181
8.18179
8.18177
8.18175
8.18173
8.18171
8.18167
8.18165
8.18163
8.18161
8.18159
8.18157
8.18155
8.18151
8.18147
8.18146
8.18144
8.18142
8.1814
8.18138
8.18136
8.18132
8.1813
8.18128
8.18126
8.18124
8.18121
8.18119
8.18117
8.18115
8.18111
8.18109
8.18108
8.18106
8.18104
8.18102
8.181
8.18098
8.18096
8.18093
8.18091
8.18089
8.18087
8.18085
8.18084
8.18082
8.1808
8.18078
8.18076
8.18073
8.18071
8.18069
8.18067
8.18066
8.18064
8.18062
8.18058
8.18057
8.18055
8.18053
8.18051
8.1805
8.18048
8.18046
8.18043
8.18041
8.18039
8.18038
8.18036
8.18034
8.18032
8.18031
8.18027
8.18026
8.18024
8.18022
8.1802
8.18019
8.18017
8.18015
8.18014
8.18012
8.1801
8.18009
8.18007
8.18005
8.18004
8.18
8.17999
8.17997
8.17995
8.17994
8.17992
8.17991
8.17989
8.17987
8.17986
8.17984
8.17982
8.17981
8.17978
8.17976
8.17974
8.17971
8.1797
8.17967
8.17965
8.17963
8.17962
8.1796
8.17959
8.17957
8.17956
8.17954
8.17952
8.17951
8.17949
8.17948
8.17946
8.17945
8.17943
8.17942
8.1794
8.17939
8.17937
8.17936
8.17934
8.17933
8.17931
8.17928
8.17927
8.17925
8.17924
8.17922
8.17921
8.17919
8.17918
8.17916
8.17915
8.17914
8.17912
8.17911
8.17909
8.17908
8.17905
8.17903
8.17901
8.17899
8.17896
8.17895
8.17894
8.17892
8.17891
8.17889
8.17888
8.17885
8.17884
8.17882
8.17881
8.1788
8.17878
8.17877
8.17876
8.17874
8.17873
8.17871
8.1787
8.17869
8.17867
8.17866
8.17865
8.17863
8.17862
8.17861
8.1786
8.17858
8.17854
8.17852
8.1785
8.17849
8.17848
8.17847
8.17845
8.17844
8.17843
8.17841
8.1784
8.17839
8.17838
8.17835
8.17833
8.1783
8.17828
8.17826
8.17825
8.17824
8.17823
8.1782
8.17819
8.17818
8.17817
8.17816
8.17814
8.17813
8.17812
8.17811
8.17808
8.17807
8.17806
8.17805
8.17804
8.17803
8.17802
8.178
8.17799
8.17798
8.17797
8.17796
8.17795
8.17792
8.17791
8.17789
8.17788
8.17787
8.17786
8.17785
8.17784
8.17782
8.17779
8.17777
8.17775
8.17774
8.17773
8.17772
8.17771
8.17769
8.17768
8.17766
8.17765
8.17764
8.17763
8.17762
8.17761
8.1776
8.17759
8.17756
8.17755
8.17754
8.17753
8.17752
8.1775
8.17749
8.17748
8.17747
8.17746
8.17744
8.17744
8.17743
8.17741
8.1774
8.17738
8.17737
8.17736
8.17735
8.17734
8.17733
8.17732
8.17731
8.1773
8.1773
8.17729
8.17728
8.17727
8.17726
8.17725
8.17723
8.17722
8.17722
8.17721
8.1772
8.17719
8.17718
8.17717
8.17716
8.17715
8.17715
8.17713
8.17712
8.17711
8.1771
8.17709
8.17708
8.17707
8.17706
8.17706
8.17705
8.17704
8.17703
8.17702
8.17702
8.17701
8.177
8.17698
8.17698
8.17696
8.17695
8.17695
8.17694
8.17693
8.17692
8.17692
8.17691
8.17689
8.17689
8.17687
8.17686
8.17686
8.17685
8.17684
8.17684
8.17683
8.17682
8.17682
8.17681
8.1768
8.17679
8.17678
8.17677
8.17676
8.17675
8.17674
8.17673
8.17673
8.17672
8.17671
8.17671
8.1767
8.17669
8.17668
8.17668
8.17667
8.17666
8.17665
8.17665
8.17664
8.17663
8.17663
8.17662
8.17661
8.17661
8.1766
8.17659
8.17659
8.17658
8.17657
8.17657
8.17656
8.17655
8.17655
8.17654
8.17654
8.17653
8.17653
8.17652
8.17652
8.17651
8.17651
8.1765
8.1765
8.17649
8.17649
8.17648
8.17648
8.17646
8.17646
8.17645
8.17645
8.17644
8.17643
8.17642
8.17642
8.17641
8.17641
8.17641
8.1764
8.1764
8.17639
8.17639
8.17638
8.17638
8.17638
8.17637
8.17637
8.17636
8.17636
8.17636
8.17635
8.17635
8.17634
8.17634
8.17633
8.17633
8.17632
8.17632
8.17631
8.17631
8.1763
8.1763
8.1763
8.17629
8.17629
8.17629
8.17628
8.17628
8.17627
8.17627
8.17626
8.17626
8.17625
8.17625
8.17625
8.17625
8.17624
8.17624
8.17624
8.17623
8.17623
8.17623
8.17622
8.17622
8.17622
8.17621
8.17621
8.1762
8.1762
8.1762
8.17619
8.17619
8.17619
8.17619
8.17619
8.17618
8.17618
8.17618
8.17618
8.17618
8.17617
8.17617
8.17617
8.17617
8.17616
8.17616
8.17616
8.17616
8.17616
8.17616
8.17616
8.17615
8.17615
8.17615
8.17615
8.17615
8.17615
8.17615
8.17615
8.17614
8.17614
8.17614
8.17614
8.17614
8.17614
8.17614
8.17614
8.17613
8.17613
8.17613
8.17613
8.17613
8.17613
8.17613
8.17613
8.17613
8.17613
8.17613
8.17613
8.17613
8.17613
8.17613
8.17613
8.17613
8.17613
8.17613
8.177
8.17698
8.17694
8.17692
8.1769
8.17688
8.17684
8.17682
8.1768
8.17678
8.17676
8.17672
8.1767
8.17668
8.17661
8.17659
8.17655
8.17653
8.17645
8.17643
8.17641
8.17638
8.17636
8.17634
8.17632
8.1763
8.17628
8.17626
8.17624
8.17623
8.17621
8.17619
8.17617
8.17615
8.17613
8.17609
8.17608
8.17606
8.17604
8.17602
8.176
8.17598
8.17596
8.17595
8.17593
8.17591
8.17589
8.17587
8.17586
8.17584
8.17582
8.1758
8.17578
8.17576
8.17575
8.17573
8.17569
8.17568
8.17566
8.17564
8.17562
8.1756
8.17559
8.17557
8.17555
8.17553
8.17552
8.1755
8.17548
8.17545
8.17543
8.17541
8.17538
8.17536
8.17534
8.17532
8.17531
8.17529
8.17527
8.17524
8.17522
8.1752
8.17519
8.17517
8.17515
8.17514
8.17512
8.1751
8.17508
8.17507
8.17505
8.17503
8.17502
8.175
8.17498
8.17497
8.17495
8.17493
8.17492
8.17488
8.17487
8.17485
8.17484
8.17482
8.1748
8.17479
8.17477
8.17475
8.17474
8.17472
8.17471
8.17469
8.17467
8.17466
8.17464
8.17463
8.17461
8.17459
8.17458
8.17455
8.17453
8.1745
8.17448
8.17447
8.17445
8.17444
8.17442
8.1744
8.17439
8.17437
8.17436
8.17434
8.17433
8.17431
8.1743
8.17428
8.17427
8.17425
8.17424
8.17422
8.1742
8.17414
8.17413
8.17411
8.17408
8.17407
8.17405
8.17404
8.17403
8.17401
8.174
8.17398
8.17397
8.17395
8.17394
8.17392
8.17391
8.17389
8.17388
8.17386
8.17385
8.17384
8.17382
8.17381
8.17379
8.17376
8.17375
8.17374
8.17372
8.17371
8.17369
8.17368
8.17366
8.17365
8.17364
8.17362
8.17361
8.1736
8.17358
8.17357
8.17355
8.17354
8.17353
8.17351
8.1735
8.17349
8.17347
8.17346
8.17344
8.17343
8.17342
8.1734
8.17339
8.17338
8.17336
8.17335
8.17334
8.17331
8.1733
8.17328
8.17327
8.17326
8.17324
8.17323
8.17322
8.17321
8.17319
8.17318
8.17317
8.17315
8.17314
8.17312
8.17309
8.17305
8.17304
8.17303
8.17301
8.173
8.17299
8.17298
8.17296
8.17295
8.17294
8.17293
8.17292
8.1729
8.17289
8.17288
8.17285
8.17284
8.17283
8.17279
8.17277
8.17276
8.17275
8.17272
8.17271
8.1727
8.17269
8.17268
8.17266
8.17265
8.17264
8.17263
8.17262
8.17261
8.17259
8.17258
8.17257
8.17256
8.17255
8.17254
8.17253
8.17252
8.1725
8.17249
8.17248
8.17247
8.17246
8.17245
8.17244
8.17243
8.17242
8.1724
8.17239
8.17238
8.17237
8.17236
8.17235
8.17233
8.17231
8.1723
8.17228
8.17226
8.17225
8.17224
8.17223
8.17222
8.17221
8.1722
8.17219
8.17218
8.17217
8.17216
8.17215
8.17214
8.17213
8.17212
8.17211
8.1721
8.17208
8.17207
8.17206
8.17205
8.17203
8.17202
8.17201
8.172
8.17199
8.17198
8.17197
8.17196
8.17195
8.17194
8.17193
8.1719
8.1719
8.17189
8.17188
8.17187
8.17186
8.17185
8.17184
8.17183
8.17182
8.17181
8.1718
8.17179
8.17178
8.17178
8.17176
8.17175
8.17173
8.17172
8.1717
8.1717
8.17168
8.17167
8.17166
8.17165
8.17164
8.17164
8.17163
8.17162
8.17161
8.1716
8.17159
8.17158
8.17158
8.17157
8.17156
8.17155
8.17154
8.17154
8.17153
8.17151
8.1715
8.17149
8.17149
8.17147
8.17146
8.17145
8.17145
8.17144
8.17143
8.17142
8.17142
8.17141
8.1714
8.17139
8.17138
8.17137
8.17136
8.17136
8.17134
8.17133
8.17133
8.17132
8.17131
8.1713
8.1713
8.17129
8.17128
8.17128
8.17126
8.17125
8.17125
8.17124
8.17123
8.17123
8.17122
8.17121
8.17121
8.1712
8.17119
8.17119
8.17118
8.17117
8.17117
8.17116
8.17115
8.17115
8.17114
8.17113
8.17113
8.17112
8.17111
8.17111
8.17109
8.17109
8.17108
8.17108
8.17107
8.17106
8.17104
8.17104
8.17103
8.17103
8.17102
8.17101
8.17101
8.171
8.171
8.17099
8.17099
8.17098
8.17097
8.17097
8.17095
8.17095
8.17094
8.17094
8.17093
8.17092
8.17091
8.1709
8.17089
8.17089
8.17088
8.17088
8.17087
8.17086
8.17086
8.17085
8.17085
8.17084
8.17084
8.17083
8.17083
8.17082
8.17081
8.17081
8.1708
8.1708
8.17079
8.17078
8.17078
8.17078
8.17077
8.17076
8.17076
8.17075
8.17075
8.17074
8.17074
8.17073
8.17073
8.17072
8.17072
8.17072
8.17071
8.1707
8.1707
8.1707
8.17069
8.17069
8.17068
8.17068
8.17067
8.17067
8.17067
8.17066
8.17066
8.17065
8.17065
8.17064
8.17064
8.17064
8.17063
8.17063
8.17062
8.17062
8.17061
8.17061
8.1706
8.1706
8.1706
8.1706
8.17059
8.17059
8.17059
8.17058
8.17058
8.17058
8.17058
8.17057
8.17057
8.17057
8.17056
8.17056
8.17056
8.17055
8.17055
8.17055
8.17054
8.17054
8.17054
8.17053
8.17053
8.17053
8.17053
8.17052
8.17052
8.17052
8.17052
8.17052
8.17051
8.17051
8.17051
8.17051
8.17051
8.1705
8.1705
8.1705
8.1705
8.1705
8.17049
8.17049
8.17049
8.17049
8.17049
8.17048
8.17048
8.17048
8.17048
8.17048
8.17048
8.17048
8.17047
8.17047
8.17047
8.17047
8.17047
8.17047
8.17047
8.17047
8.17046
8.17046
8.17046
8.17046
8.17046
8.17046
8.17046
8.17046
8.17046
8.17046
8.17045
8.17045
8.17045
8.17045
8.17045
8.17045
8.17045
8.17045
8.17045
8.17045
8.17045
8.17045
8.17045
8.17045
8.17045
8.17045
8.17045
8.17045
8.17045
8.17045
8.17169
8.17167
8.17165
8.17163
8.17161
8.17159
8.17157
8.17155
8.17154
8.17152
8.1715
8.17148
8.17144
8.17142
8.1714
8.17138
8.17136
8.17134
8.1713
8.17128
8.17126
8.17124
8.17122
8.1712
8.17118
8.17116
8.17114
8.17112
8.17109
8.17107
8.17103
8.17101
8.17099
8.17097
8.17095
8.17093
8.17091
8.1709
8.17088
8.17086
8.17084
8.17082
8.1708
8.17074
8.17073
8.17071
8.17069
8.17067
8.17063
8.17061
8.1706
8.17058
8.17054
8.17052
8.1705
8.17048
8.17047
8.17045
8.17043
8.17041
8.17039
8.17037
8.17032
8.1703
8.17025
8.17023
8.17021
8.17019
8.17018
8.17016
8.17014
8.17012
8.1701
8.17009
8.17007
8.17005
8.17003
8.17002
8.17
8.16994
8.16993
8.16989
8.16987
8.16986
8.16984
8.16982
8.1698
8.16977
8.16973
8.16972
8.1697
8.16968
8.16965
8.16963
8.16961
8.1696
8.16958
8.16956
8.16955
8.16951
8.16949
8.16948
8.16946
8.16943
8.16941
8.16939
8.16938
8.16936
8.16934
8.16933
8.16929
8.16928
8.16926
8.16923
8.16921
8.16919
8.16916
8.16914
8.16913
8.16911
8.1691
8.16908
8.16901
8.169
8.16898
8.16897
8.16895
8.16893
8.16892
8.1689
8.16885
8.16882
8.16881
8.16879
8.16877
8.16876
8.16874
8.16873
8.16871
8.16868
8.16866
8.16863
8.16862
8.1686
8.16859
8.16857
8.16855
8.16854
8.16852
8.16851
8.16849
8.16845
8.16843
8.16842
8.1684
8.16839
8.16837
8.16836
8.16833
8.1683
8.16828
8.16827
8.16825
8.16824
8.16822
8.16821
8.16819
8.16818
8.16816
8.16815
8.16813
8.16812
8.1681
8.16809
8.16807
8.16806
8.16804
8.16803
8.16801
8.168
8.16799
8.16797
8.16796
8.16794
8.16793
8.1679
8.16787
8.16786
8.16784
8.16783
8.16781
8.1678
8.16778
8.16777
8.16776
8.16774
8.16773
8.16771
8.1677
8.16769
8.16767
8.16766
8.16764
8.16763
8.16762
8.1676
8.16759
8.16756
8.16755
8.16752
8.16751
8.16749
8.16748
8.16747
8.16745
8.16744
8.16741
8.1674
8.16739
8.16737
8.16736
8.16735
8.16733
8.16732
8.16728
8.16727
8.16725
8.16724
8.16723
8.16719
8.16717
8.16715
8.16714
8.16712
8.16711
8.1671
8.16707
8.16706
8.16705
8.16703
8.16702
8.16701
8.167
8.16698
8.16696
8.16694
8.16693
8.16691
8.16688
8.16687
8.16686
8.16685
8.16683
8.16682
8.1668
8.16678
8.16677
8.16676
8.16675
8.16674
8.16671
8.1667
8.16669
8.16668
8.16666
8.16664
8.16663
8.16662
8.1666
8.16659
8.16657
8.16655
8.16653
8.1665
8.16646
8.16645
8.16643
8.16642
8.16641
8.1664
8.16638
8.16637
8.16636
8.16635
8.16634
8.16633
8.16632
8.16631
8.1663
8.16628
8.16627
8.16626
8.16625
8.16624
8.16623
8.16621
8.16619
8.16617
8.16616
8.16614
8.16613
8.16612
8.16611
8.1661
8.16609
8.16608
8.16607
8.16604
8.16603
8.16602
8.166
8.16599
8.16598
8.16596
8.16595
8.16594
8.16593
8.16592
8.16591
8.1659
8.16589
8.16588
8.16587
8.16586
8.16585
8.16584
8.16583
8.16582
8.16581
8.1658
8.16579
8.16577
8.16576
8.16575
8.16574
8.16573
8.16572
8.16571
8.1657
8.16568
8.16567
8.16567
8.16566
8.16565
8.16563
8.16562
8.16561
8.1656
8.16559
8.16558
8.16557
8.16556
8.16555
8.16553
8.16552
8.16552
8.16551
8.1655
8.16549
8.16548
8.16547
8.16546
8.16545
8.16544
8.16543
8.16543
8.16541
8.1654
8.16539
8.16537
8.16536
8.16536
8.16535
8.16534
8.16533
8.16532
8.16531
8.1653
8.16529
8.16528
8.16527
8.16526
8.16525
8.16525
8.16524
8.16523
8.16522
8.16521
8.1652
8.16519
8.16517
8.16516
8.16515
8.16515
8.16514
8.16512
8.16511
8.1651
8.16509
8.16508
8.16508
8.16507
8.16506
8.16505
8.16504
8.16503
8.16502
8.16501
8.16501
8.165
8.16498
8.16497
8.16495
8.16494
8.16493
8.16492
8.16492
8.16491
8.1649
8.1649
8.16489
8.16488
8.16487
8.16487
8.16486
8.16485
8.16484
8.16483
8.16483
8.16482
8.16481
8.1648
8.1648
8.16479
8.16478
8.16478
8.16476
8.16476
8.16475
8.16474
8.16473
8.16472
8.16472
8.16471
8.1647
8.1647
8.16469
8.16469
8.16468
8.16467
8.16467
8.16466
8.16465
8.16465
8.16464
8.16464
8.16462
8.16462
8.16461
8.1646
8.16459
8.16458
8.16457
8.16457
8.16456
8.16456
8.16455
8.16455
8.16454
8.16453
8.16453
8.16452
8.16452
8.16451
8.16451
8.1645
8.16449
8.16449
8.16448
8.16448
8.16447
8.16446
8.16446
8.16445
8.16445
8.16444
8.16443
8.16443
8.16442
8.16441
8.16441
8.1644
8.16439
8.16439
8.16438
8.16438
8.16437
8.16436
8.16436
8.16435
8.16434
8.16434
8.16433
8.16433
8.16432
8.16432
8.16431
8.16431
8.1643
8.1643
8.16429
8.16429
8.16428
8.16428
8.16427
8.16427
8.16427
8.16426
8.16426
8.16425
8.16425
8.16424
8.16424
8.16424
8.16423
8.16423
8.16422
8.16422
8.16421
8.16421
8.1642
8.1642
8.16419
8.16419
8.16419
8.16418
8.16417
8.16417
8.16417
8.16416
8.16416
8.16415
8.16415
8.16415
8.16414
8.16414
8.16413
8.16413
8.16412
8.16412
8.16412
8.16411
8.16411
8.1641
8.1641
8.16409
8.16409
8.16409
8.16408
8.16408
8.16408
8.16407
8.16407
8.16407
8.16406
8.16406
8.16405
8.16405