/*--------------------------------*- C++ -*----------------------------------*\
| =========                 |                                                 |
| \\      /  F ield         | OpenFOAM: The Open Source CFD Toolbox           |
|  \\    /   O peration     | Version:  plus.master                           |
|   \\  /    A nd           | Web:      www.OpenFOAM.com                      |
|    \\/     M anipulation  |                                                 |
\*---------------------------------------------------------------------------*/
FoamFile
{
    version     2.0;
    format      ascii;
    class       vectorField;
    location    "8.2/lagrangian/kinematicCloud";
    object      U;
}
// * * * * * * * * * * * * * * * * * * * * * * * * * * * * * * * * * * * * * //


96597
(
(-0.00113144 -0.000668408 -0.000483609)
(-0.000523812 0.000153222 0.00024948)
(-9.15202e-05 0.000164018 -0.00239407)
(-0.000284969 0.000652499 0.00104076)
(-0.000486637 6.36183e-05 -0.00133472)
(0.000132488 0.000184821 4.56102e-05)
(-0.000536511 0.000178475 -0.000113264)
(-0.000409019 -0.000223358 -0.0032737)
(-0.000681446 -0.000241752 -0.00111942)
(-9.65965e-05 4.00061e-06 -2.14734e-05)
(-0.00053374 9.72153e-05 -3.44354e-05)
(-0.000515448 0.000108187 -0.00125445)
(6.38888e-05 0.000664908 9.39498e-05)
(-0.000549819 0.000452855 -0.00255339)
(-0.000144133 3.72257e-05 0.000298178)
(0.000667961 -6.65365e-05 0.000254923)
(-0.000569421 -0.00193149 0.000163316)
(0.000229611 -0.000490342 -0.00073685)
(-0.000740406 0.000173874 0.00202739)
(-0.000290832 -1.09071e-05 0.000218856)
(0.00256583 -9.49888e-05 -0.000942275)
(-0.000103715 0.000192214 0.00127713)
(0.00021967 0.000478532 0.000492695)
(0.000509961 0.000730596 0.00196094)
(-0.000477742 0.000128253 0.000216797)
(0.000200653 0.000205661 -0.000911701)
(0.000329615 -0.000426651 -0.00536312)
(1.0041e-05 -2.88014e-05 0.000323355)
(7.46372e-05 0.000473716 0.00651847)
(-0.000612683 1.97567e-05 -8.88292e-05)
(-0.000450987 -0.000590686 0.00198715)
(-0.000689657 6.90014e-05 -0.00130463)
(0.000443181 -0.000475974 -0.00305951)
(0.000195987 -0.000140445 -0.00184058)
(-0.0012914 -0.000143973 -0.00166302)
(-0.000710338 0.000172367 -0.00415174)
(-0.000143168 -0.000121733 -0.0013567)
(-6.95161e-05 2.04081e-05 0.000114825)
(0.00048406 -4.46833e-05 0.00151166)
(-0.000177236 7.54527e-05 0.000233632)
(-0.000955414 0.000471279 -0.000943704)
(0.000289 0.000614814 -0.00131439)
(-0.000764991 2.57555e-05 0.000281039)
(4.43611e-05 -0.000231242 0.00268708)
(0.000257396 -0.000197521 -0.00334097)
(-0.000513282 9.77477e-05 -0.000694095)
(-0.00141012 -0.000288238 -0.0153983)
(-0.00094378 0.000508553 -0.00119462)
(0.000191013 0.000398212 0.000234016)
(0.000256652 -0.000350521 -0.000983951)
(-0.000800596 -2.11875e-05 0.000461023)
(0.000356619 -0.000522082 -0.00235555)
(-0.000432437 -0.000236799 0.00442924)
(-0.000278462 -2.31687e-05 -0.00182193)
(-0.000966178 6.43168e-05 0.000231705)
(-0.000615554 -0.000214478 0.000233945)
(-0.000385122 0.00030014 -0.000804909)
(-0.00115249 0.00168206 0.000117902)
(0.000287139 -0.000204772 0.000268618)
(-0.000439359 -0.00010094 0.00157195)
(-0.000572217 -4.27822e-05 -0.000755704)
(-0.000822044 9.51343e-05 -0.00125424)
(-0.000592143 0.000130559 -0.00151047)
(0.000360436 -0.000270272 0.00155693)
(-0.00054566 -5.9054e-06 -0.00271409)
(0.000148221 0.000622963 0.000957927)
(-6.49599e-06 2.02642e-05 0.000260761)
(0.000604247 -0.000668444 -0.00197637)
(5.94434e-05 0.000110598 -0.00181698)
(-4.48671e-05 -0.000516181 0.000524158)
(-0.000674327 5.15042e-06 -0.00114256)
(-0.000323121 0.000319925 9.02525e-05)
(-0.000618098 -0.000209359 0.000136837)
(-0.00051498 -0.000249132 -0.000140944)
(-0.000727343 2.58626e-05 0.000244822)
(6.20488e-05 0.000187409 -0.00128978)
(-0.000138987 8.19072e-05 -0.00554545)
(-0.00102688 -2.39382e-05 0.000328527)
(-0.00114164 -0.000738818 -0.000739154)
(-0.000672466 0.000649866 -0.00156524)
(-0.000805616 0.000146745 -0.000931467)
(0.000445469 0.000303433 0.000191672)
(0.000295759 -0.0003377 0.000164335)
(-0.000559848 5.72402e-05 0.000244721)
(8.93756e-05 -7.73984e-05 -0.00106169)
(-0.00114005 -0.000949156 -0.0001262)
(-0.000940424 0.000478024 -0.00145391)
(-8.44667e-05 8.77785e-05 0.000404565)
(-0.000152114 2.15634e-05 0.00483008)
(-0.000207678 -0.00095408 0.000239892)
(-7.60521e-05 0.000308502 0.000155835)
(-0.000746273 0.000215262 0.000565162)
(-0.000449008 4.42215e-05 -0.00164794)
(0.000413211 0.000588865 0.000204963)
(-0.000313537 0.000208411 0.000885772)
(0.000415402 0.000543055 0.00184206)
(-0.000799254 0.000197598 -0.00137571)
(-0.000206601 9.35973e-05 -0.00127586)
(0.000662672 -0.000359998 -0.00150639)
(0.0023708 0.000274449 0.000129309)
(0.000360678 5.67773e-05 0.00230921)
(-0.000772181 -0.00115286 0.0013719)
(-0.00018182 4.13882e-05 0.000212085)
(-0.000154998 -0.000792029 0.00526551)
(-0.000565362 -0.000290448 -0.00101642)
(0.000527983 -0.000476482 7.50102e-05)
(-9.97773e-05 0.00010348 -0.00058085)
(0.000198881 -0.000120859 0.0022836)
(-0.000199116 -0.000137494 0.000539379)
(9.8105e-06 -0.000424018 0.00038791)
(0.000341164 -9.19928e-05 -0.000977763)
(-0.000770815 8.42962e-05 0.000379798)
(-0.000172561 0.000181202 0.00143823)
(-0.000456664 0.00014354 0.000204178)
(-0.000817484 0.00053829 0.000378289)
(-0.000498176 0.000423026 0.000288884)
(-0.00117011 -0.000198467 0.000243755)
(-4.91226e-05 0.00036247 0.00493728)
(-0.000693788 -0.000532611 -0.00160767)
(-0.000502139 0.000427447 0.000287932)
(-0.000606175 2.89517e-05 -0.00131168)
(-0.000318813 0.000727418 -0.00147964)
(-0.000396087 0.000190973 0.000351577)
(0.000212204 0.000298222 -0.0031062)
(-0.000906609 0.000255381 0.000283778)
(-0.000333832 -0.00111845 -2.03991e-05)
(-0.000592754 -0.000111209 -0.00286503)
(-9.24045e-05 0.000590866 5.45336e-05)
(-0.000684912 0.000142631 0.00155336)
(-0.000391912 1.93322e-05 -0.000108854)
(-0.000402385 9.80336e-05 0.000242933)
(-0.000725983 0.000508987 -0.00177581)
(-0.000331488 7.68713e-05 -0.00499897)
(-0.000840629 -0.000284483 -0.0030677)
(0.00147583 -0.0011419 -0.00186579)
(2.17028e-05 -7.18989e-05 0.000830478)
(-0.000752127 -0.000380272 -0.000812273)
(-0.000112777 0.000191553 -0.0059176)
(-7.90874e-05 8.60029e-05 -2.16204e-05)
(0.000272047 -0.000196848 0.00027411)
(0.000198629 -0.000150291 -0.00502766)
(-0.000847591 0.000246128 0.000222488)
(0.000270905 0.000402411 0.000102329)
(0.00101724 0.00065102 -0.00161267)
(-0.000737309 1.47103e-05 0.00016191)
(0.000140973 0.000201922 -0.00228048)
(0.000225111 -0.000812742 0.00036882)
(-0.000349752 -0.000190942 0.000227911)
(0.000346001 0.000500273 0.000227476)
(-0.000325769 0.000248829 0.000265639)
(-0.00049391 8.07031e-05 -0.000740529)
(-0.000944328 0.0001745 0.00181019)
(-0.000363147 -0.000445523 -0.00267794)
(-0.000626506 -0.000215314 0.000242906)
(-0.000697073 0.000209158 -0.0015062)
(0.00161273 0.00111187 0.00042913)
(-0.00109885 0.000449836 0.000277055)
(0.000607162 2.93896e-05 0.00102836)
(-0.000843102 -0.000103198 -0.000783833)
(-0.000224539 0.00141174 -0.000714118)
(-0.000261654 0.000283058 0.000198696)
(-0.000382712 0.00012048 0.000232588)
(0.000244253 -0.00031645 0.000385691)
(-0.00285168 -0.00071014 0.000166149)
(-0.00123177 0.00179168 -0.00208846)
(0.000248247 2.53872e-05 0.000227589)
(-0.00123271 0.00169511 0.000134637)
(-0.000651469 0.000504096 -6.18651e-05)
(0.000381125 0.000720347 -0.00174453)
(-0.000654377 0.000194136 -0.000658373)
(-0.0011027 0.00227213 -0.000896189)
(6.5054e-05 -0.000340079 0.000245595)
(-0.000645577 -4.01964e-05 0.000266098)
(-0.000870645 -0.000139743 0.000183504)
(0.000287893 -0.000416437 0.000203704)
(0.000588848 0.00103803 0.000542968)
(0.0024542 0.000281944 0.000139496)
(5.61139e-05 0.000105133 0.00157608)
(0.000100285 3.02681e-06 -0.000725033)
(-0.000547485 -0.000110704 0.00022744)
(0.000458308 0.000749707 0.000117479)
(0.000239744 -0.000272472 0.000215561)
(0.00030023 -0.000341133 0.00161075)
(0.000516214 0.00073662 -0.00167087)
(-9.67854e-05 -0.000407469 -0.00152212)
(-0.00064093 0.000223119 -7.38822e-05)
(-0.000580949 0.000271224 -0.00474738)
(-0.000164516 -8.80057e-05 0.000238959)
(0.00022602 0.000101178 0.000134622)
(-0.000221188 4.73797e-05 -0.00516028)
(-0.000639207 6.03839e-05 -0.000974135)
(-0.000422324 -1.70839e-05 -0.000696706)
(-0.000708841 -0.000111498 0.000431109)
(-0.000553004 0.000128477 0.00023334)
(-2.14059e-05 0.000105125 0.00472253)
(-0.000441718 0.000773096 -0.00232882)
(-0.00012955 -6.0517e-05 0.00195145)
(-0.000606476 -2.37437e-05 -0.000966402)
(-0.000285566 -0.000484818 0.00615813)
(-0.000734048 -0.000262449 -0.000231235)
(-0.000563529 0.000156156 0.000145493)
(-9.00416e-05 -0.000383618 -0.00022423)
(-0.000579662 -0.000200893 0.000218665)
(0.000309046 -0.000362263 -0.0062704)
(0.000290259 0.000588929 -0.00184971)
(-0.00154848 0.00231072 -0.0017049)
(-0.000955018 0.000617812 -0.00385533)
(-6.33229e-05 0.000113277 0.000228034)
(0.000153086 0.00021389 0.000294651)
(0.000263877 0.000521229 -0.00106169)
(-0.000697391 0.000598626 -0.00183663)
(-0.00115194 0.000116491 0.00254407)
(-0.000881317 -2.58154e-05 0.000635347)
(0.000124752 0.000347529 0.00135459)
(-7.01523e-05 7.46565e-05 -0.00198503)
(0.000415667 -0.000395988 0.000298618)
(-2.23667e-05 0.000103173 -0.00518783)
(0.000278042 0.000519979 0.000259112)
(-1.46989e-05 0.000233261 -0.00434521)
(0.000316315 3.14929e-05 -5.32741e-06)
(-0.000836697 -0.00028812 0.000272692)
(0.000261299 0.000424376 0.00176717)
(-0.000120201 0.000375768 0.00024696)
(-0.000537841 0.00024641 -0.00228725)
(0.000557746 -0.000504213 0.000374256)
(0.00299205 0.000306735 -0.00131707)
(-8.89234e-05 0.000215364 0.000218177)
(0.000232475 0.000484624 -0.000692367)
(-0.00127576 -0.000235265 -0.000557701)
(0.000529037 -0.000481549 -0.00261907)
(-0.000168547 -0.000504232 0.00177074)
(-0.000838935 1.24677e-05 -0.00081884)
(-0.000118094 -0.000373584 -0.00147714)
(-0.000632789 0.00138804 -0.000804122)
(0.00254015 0.000185785 6.67946e-05)
(-0.00232061 0.000168167 0.000296592)
(-0.000471774 -7.22157e-05 -0.00193194)
(3.67885e-05 -0.000147489 -0.00625674)
(-0.000520521 -0.000275193 -0.00478308)
(-0.000248939 -0.000506866 0.00107661)
(0.000121636 -0.000719685 0.000330588)
(-0.000741004 -0.000250368 0.000247904)
(0.000323882 0.000680838 -0.00233677)
(-5.64782e-05 -0.000580353 -0.00153193)
(2.72601e-05 -0.000130083 0.000310287)
(0.000301157 -0.000223877 0.000429381)
(-0.000589057 0.000155114 0.000244716)
(0.000308342 -0.000229032 -0.000715028)
(9.35836e-06 0.000353549 0.000196094)
(-0.000440417 0.000235697 -0.000278123)
(0.00328365 -0.000169499 -0.000772564)
(-2.56885e-06 8.00442e-05 0.00163012)
(0.000292489 0.00077589 0.000117921)
(0.000369251 -0.000485351 -0.000650469)
(-0.000125222 0.000254554 -0.00241783)
(0.000475186 -0.00043475 0.000239423)
(0.000365919 -0.000545312 -0.000720088)
(-0.00060098 -4.09513e-05 -4.42789e-05)
(-0.000725229 0.000367019 -0.00444219)
(0.000582871 -0.000497048 -0.00152291)
(0.000119463 1.459e-06 -0.00215508)
(0.00194091 -0.000967098 -0.000555376)
(0.000335013 0.000489755 0.000244724)
(-0.000223103 4.77283e-05 0.000282953)
(-0.000238709 -0.000325158 -0.000143291)
(-9.07638e-05 9.3251e-05 -0.00155836)
(0.000500797 -0.0037842 0.000300242)
(-0.00105694 0.000269209 0.00579038)
(1.22675e-05 -5.65283e-05 -0.0051566)
(-0.000270515 -0.000840871 0.00269605)
(-0.000137975 0.000562546 0.00262154)
(-0.000455025 2.2194e-05 0.000308976)
(-0.00148764 -0.000269296 -0.00223141)
(-0.00378556 8.48642e-05 0.000665518)
(-0.000688212 -0.000343886 0.000287029)
(-0.000941827 0.000702435 0.000284755)
(-6.48568e-05 0.000305598 0.000277742)
(-0.00117366 7.22854e-05 0.000522853)
(0.000219643 -0.000438407 0.000996047)
(-0.000577932 0.000291719 0.000335831)
(-0.000491649 -0.000239557 0.000342299)
(-0.000945284 6.74829e-05 0.000243531)
(-0.000528979 -0.00017489 0.000155915)
(0.000198997 -1.69093e-05 0.0072414)
(-0.0003507 0.000448477 -0.00162795)
(0.000591981 -0.000568795 -0.000283282)
(-0.000176725 0.00189828 -0.0012367)
(0.00168091 -0.000480339 -0.00150093)
(-0.00205853 0.00240847 -0.00160556)
(-0.000893215 7.48734e-05 0.000524116)
(-0.00035481 0.000109775 0.00022844)
(0.000357588 -0.000192182 -0.00269537)
(-0.00109391 -0.000710113 0.000214187)
(-9.18108e-05 0.000161832 -0.00150095)
(0.000275223 -0.000153495 0.000244863)
(-0.000383947 0.000288446 0.000242102)
(-0.000116497 0.000213081 -0.00151086)
(-0.00135989 -0.00070581 -0.00305903)
(-0.00114682 0.000224449 -0.00272939)
(-6.16279e-05 0.000412097 -0.00474595)
(-8.55742e-05 -4.63396e-05 -0.00229418)
(0.000372546 0.00051496 -0.000529507)
(-0.000255783 5.60183e-05 0.000565462)
(-0.000236824 0.000267481 0.000410339)
(0.00047181 -0.000524768 -0.00136647)
(0.000168771 0.000404118 0.000359156)
(0.000199056 0.000425398 0.000313089)
(-0.000769963 1.52066e-05 -0.00149539)
(-0.000491233 0.000234218 0.000356226)
(0.000229812 0.000649783 -0.00353714)
(0.000175225 0.000244005 0.000130205)
(-9.08465e-05 0.000197919 -0.00136252)
(9.85345e-05 -0.000278791 -0.000328791)
(-0.000578078 -0.00020109 -0.00017813)
(-4.18917e-05 0.000106045 -0.000768527)
(-0.000587009 4.41851e-05 -0.000682461)
(-0.000425332 -0.000143102 0.000194672)
(0.000521081 -0.000279871 0.00039935)
(4.24533e-05 0.000314269 -0.00300244)
(-0.00043059 0.000369254 1.5683e-05)
(0.000393999 -0.000440294 0.000236844)
(-0.000466301 3.12367e-05 -0.00067696)
(0.000352151 -0.00033656 -0.00620856)
(0.000435568 0.00051247 0.000265194)
(-2.7422e-05 2.41173e-05 0.00440787)
(0.00163346 -0.00207615 -0.00026524)
(-0.000767558 -0.000490541 -0.000672026)
(-0.000320616 0.00131703 0.00448395)
(8.23045e-05 0.000662525 0.000286784)
(-0.000308851 2.91795e-06 -0.00262255)
(0.000166073 -0.000368453 0.000237995)
(-9.21346e-05 0.000499093 0.000650486)
(-0.000889477 0.000137559 -0.00131304)
(9.86242e-05 -0.000423114 0.000523268)
(0.000408044 0.000528219 -0.000208102)
(-0.00266009 -0.000661382 -0.00093631)
(0.000621931 -0.00522522 -0.000933348)
(0.000280334 -0.000206786 0.000261483)
(0.000141447 -0.000803085 0.000227774)
(-0.000809254 -0.000288628 -0.00151613)
(-0.000172094 -0.000273293 1.99012e-05)
(5.27913e-05 -4.74485e-05 0.000205918)
(-0.000392278 0.000115981 0.00038294)
(-0.000841152 0.000269706 8.36449e-05)
(-0.00042956 -0.000343886 -0.00212492)
(-0.00305561 -3.5352e-05 -0.000285861)
(0.000380182 -0.000423359 0.000240159)
(0.000202057 0.000291894 -0.000241596)
(0.000353853 0.000417505 0.00021988)
(-0.000800129 0.000407404 -0.000746303)
(-0.000537854 -0.000269898 -0.00208184)
(-0.000811825 0.000408449 -0.000660309)
(0.000239957 0.000509568 0.000252782)
(-0.000124313 -0.000769591 -0.00360613)
(-0.000246853 5.3543e-05 0.00222998)
(0.000261627 -0.000191305 0.000336895)
(0.000242388 0.000502998 0.000251917)
(-9.44397e-05 0.000571773 0.000398785)
(-0.000872095 7.20281e-05 -0.000689997)
(-2.51454e-05 -0.00108024 0.00217894)
(-0.000274963 -2.39108e-05 -0.00174778)
(-0.000812639 0.000360588 -0.000100637)
(0.000294691 -0.000397851 0.000238116)
(-0.000374849 1.7774e-05 0.000333515)
(-0.000107162 0.000348049 -6.62639e-05)
(0.000196731 -0.000291619 -0.00536201)
(0.000251859 6.95529e-05 0.000260715)
(0.000215564 0.000463863 0.000152382)
(-0.000142949 7.61717e-05 -5.13108e-05)
(0.000400325 -0.000305257 -0.00113411)
(-0.000938718 0.000266088 0.000229202)
(6.84977e-05 -0.000195966 0.0002893)
(-0.000724554 4.74801e-05 -0.000460791)
(-0.000239811 0.000104928 -0.0013579)
(0.000224803 0.00031471 -0.00170725)
(-0.000567801 -0.00027546 0.000233113)
(0.00107406 -0.000264079 0.000233911)
(-0.00136818 2.44919e-05 0.00252737)
(-0.00033835 0.000346197 0.000543322)
(-0.00101667 0.0005118 -0.00189229)
(-0.000553106 0.000186002 0.00255941)
(-1.31554e-05 -0.000830414 -0.00168115)
(0.000389146 -0.000249353 0.000251856)
(-0.000694007 -2.9644e-05 0.000367908)
(0.000260033 0.000663622 0.000664931)
(9.57206e-05 0.000131082 0.000144218)
(-0.000523186 0.000379611 -0.00335375)
(-0.000246119 -0.000390792 0.000553621)
(-0.00050136 0.000151855 0.000238791)
(0.000235367 0.000505387 0.000223358)
(-8.97442e-05 0.000579038 0.000366743)
(-0.000485598 1.17478e-05 -1.86469e-05)
(-0.000617581 -0.000304572 0.000248095)
(0.000354631 -0.00026579 -0.00133065)
(0.00284939 -0.000582066 -0.00163568)
(0.000247713 0.000577038 -0.00231126)
(0.000371535 -0.00041494 0.00018734)
(-0.000374596 0.000225691 -0.00399041)
(0.000254771 0.000689134 0.00389055)
(0.000267437 0.000559084 -0.00081278)
(-0.000507373 -0.000202471 0.000187385)
(-0.00070992 -0.000156723 0.00270602)
(0.00044354 7.40267e-05 0.000122949)
(-0.00121687 0.00058076 -0.000108172)
(-0.00218314 -0.000410395 -0.000467403)
(0.000648234 -0.000373953 -0.00216061)
(-0.000408755 1.23702e-05 0.00187068)
(0.000376182 2.2422e-05 9.67925e-05)
(-0.000883434 6.60803e-05 -0.00589702)
(-5.65221e-05 -0.000275966 0.000264192)
(0.000538926 -0.000646646 -0.00421142)
(-0.000850552 -0.000574491 6.35793e-05)
(-0.00045607 0.00290622 -0.0156374)
(0.000116794 -0.000283044 0.000210312)
(0.000786763 0.000538225 -0.00276978)
(-0.000120804 -0.000365072 -0.00235642)
(0.000440703 0.000625638 -0.000858751)
(0.000254355 -0.000136812 0.000253249)
(-0.000223442 0.000130492 -0.00145892)
(-0.000918999 9.66668e-05 0.000333666)
(0.000234389 -0.000442764 -0.00553758)
(-0.000653357 -0.000377858 -0.00161902)
(0.000217889 0.000443891 0.000568433)
(-0.000480543 -0.00156787 -0.00201646)
(-0.000186987 0.000197813 -2.72392e-05)
(-0.000410577 0.000195391 0.00525698)
(-0.000660721 0.000558202 -1.02175e-05)
(-0.000425326 0.000139571 -0.000553124)
(0.000323377 0.000664545 -0.00468519)
(0.000158054 0.000567465 0.000192566)
(-0.000187129 7.80729e-05 0.000550377)
(-0.000554813 -0.000270702 8.93034e-05)
(-0.000669863 0.000206803 -2.37786e-05)
(0.000481379 -0.000134552 0.00047132)
(-2.06929e-05 9.59248e-05 0.00213812)
(-9.24394e-05 -7.21008e-05 0.000416291)
(-0.000693692 6.63709e-05 -0.00180416)
(0.000476659 -0.000530091 0.000428469)
(-0.000126875 4.85407e-05 -0.00131187)
(0.00019033 0.000673724 -0.00381415)
(-0.000204678 3.03437e-05 0.000456964)
(9.74928e-05 -0.000124816 -0.0033364)
(-0.000617271 0.000535904 0.000166401)
(-0.00018542 0.000111085 0.000321478)
(0.000470999 0.000683164 -0.0011042)
(0.000358612 0.0031147 9.49745e-05)
(0.000216016 0.000355829 -0.00346472)
(0.00010536 -0.000285814 0.000672676)
(0.00131942 -0.000350829 0.000233116)
(-6.95713e-05 7.51645e-05 0.00243783)
(-0.00131654 0.00151962 0.000173019)
(-0.000403342 0.000101313 -0.00529749)
(9.5343e-05 -9.71471e-05 -0.00463576)
(-0.000577208 -0.000279745 0.000289648)
(-0.000876154 0.000285947 -0.00126789)
(0.000635443 0.00112287 0.000996286)
(-0.000734881 5.42259e-06 0.000247328)
(-0.00100406 0.000182507 -0.00326361)
(-0.00179666 0.000202659 0.000264446)
(-0.00055567 -1.83854e-05 -0.00145296)
(-0.000245459 0.00141709 9.31299e-05)
(-0.000311277 0.000240891 0.0002373)
(-0.0011488 -0.000112399 0.000198191)
(-0.00106038 0.000805189 5.35375e-05)
(-0.000583931 -0.000280483 -0.00128465)
(-0.000790017 -0.000168141 -0.00293069)
(9.8303e-05 -0.000475842 -0.00292443)
(-0.00128818 9.63524e-05 0.000320922)
(-0.000197111 0.000826048 -0.00132554)
(0.000210834 0.000619715 -0.00178981)
(0.000157449 0.000218782 0.00022666)
(-8.81531e-05 0.00049551 -0.000103783)
(0.000329001 0.000467248 0.00213575)
(0.000406539 0.000476567 -0.000827487)
(4.2903e-06 5.22834e-05 0.000251048)
(4.11438e-05 -0.000562166 -0.00157584)
(-0.000750861 -0.000376048 0.000240901)
(-0.000102755 0.00027065 3.55063e-05)
(-0.000489826 4.69647e-05 0.000249945)
(0.000255415 -0.000454551 0.000235547)
(-0.000604683 0.000110336 -0.000583304)
(0.000227548 -8.56455e-05 -2.89011e-05)
(0.000382552 -0.000426092 -0.000675636)
(4.75878e-05 0.00140657 -0.0017519)
(-0.000661982 0.000120015 0.000291062)
(-0.000244053 0.000112765 -0.00127234)
(-0.000570731 0.000174762 0.000389572)
(-0.000454209 2.1864e-05 0.000213835)
(-0.000597588 -1.36912e-05 0.00151577)
(0.000186719 -0.000126504 -8.67078e-05)
(-0.000546059 -0.000261752 -0.0014173)
(-0.000916479 -0.00023809 -0.00263827)
(-0.000530023 0.000718734 0.000317311)
(0.000248683 0.000127613 -7.34217e-06)
(-0.000364046 -0.000100852 -0.000106612)
(-0.000268414 0.000291517 -0.00135081)
(0.000106711 0.000446994 0.000240004)
(0.000311752 -0.000187801 -0.00341767)
(-0.000517384 0.00014346 0.000242472)
(-0.000511069 0.000130652 -0.0009904)
(-0.000692614 0.000203923 0.0002182)
(0.000304464 0.000635579 -0.00186928)
(-0.000182245 4.4132e-05 -8.23932e-06)
(0.000163175 0.000427817 -0.00115391)
(-0.000457474 -0.00160897 -0.000405559)
(0.000343148 -0.000405048 -0.00396139)
(-0.000487548 0.000130569 0.000241114)
(-0.00027731 0.00017412 0.000503704)
(-0.000455469 0.000119137 -0.00124291)
(-0.000666038 2.24825e-05 0.000157302)
(0.00253479 -0.00190504 0.00280981)
(0.000246821 0.000325617 0.00522313)
(-0.00175861 0.00101558 -0.00246549)
(-2.37569e-05 -0.000351348 0.00325817)
(0.000245273 0.000367035 0.000238491)
(-0.000161863 8.82783e-05 0.0021838)
(-0.000507142 0.000149626 0.000259039)
(5.74258e-06 -6.823e-05 0.00132269)
(0.00223907 0.000251262 -0.00056642)
(-0.000216867 8.92522e-05 -0.00277059)
(0.000248219 -5.02997e-05 0.000231256)
(-6.12797e-06 0.000159939 -0.00110176)
(1.93415e-05 0.000116384 0.000751417)
(-0.000564179 0.000318344 0.0036855)
(-0.000115479 3.45791e-05 0.000124945)
(-0.00069723 -1.50304e-05 -0.000124735)
(-0.000833676 0.00014307 -0.00149861)
(0.000243875 -6.70239e-05 0.00131441)
(-0.000289301 6.30574e-05 -0.000112082)
(-0.000597102 -0.000139327 -0.00157864)
(-0.000215888 8.9282e-05 0.00123914)
(0.00028419 0.000592115 -0.000994648)
(0.00071137 -0.000216926 -0.0006451)
(-0.00101301 0.000190222 -0.00337591)
(-0.000583665 0.000160637 -0.000708948)
(0.000614527 0.000704499 -0.00180407)
(0.000404354 -0.000541728 0.00368084)
(7.18269e-06 -0.000280267 0.00238343)
(0.000204675 0.00030216 -0.00105066)
(-0.000539025 -0.000483031 0.00231768)
(0.000354872 0.000497873 0.000245017)
(-0.000792122 -6.48222e-06 0.000449807)
(0.000264553 0.000534167 -0.000744339)
(0.000789578 0.000355095 -0.000447425)
(9.58409e-05 -0.000696313 0.000202211)
(-0.000726403 0.000368646 -0.000777678)
(-0.000832003 0.000704691 7.2233e-05)
(-0.000174979 -0.000159521 -0.00236884)
(0.00215632 -0.000404735 0.000250865)
(-0.000272077 0.000778148 0.000229837)
(1.55063e-05 -8.58342e-05 -0.000980172)
(0.000130825 0.000740532 -0.000216027)
(0.000388883 0.000451359 0.000287922)
(0.000383331 -0.000284202 -0.000687872)
(-0.000523053 0.000827409 -0.00148339)
(-0.00114782 0.000314119 -0.00070069)
(-0.000670482 0.000321042 -0.0034298)
(-6.91192e-05 8.20336e-05 -0.00160077)
(-0.00212468 -0.000220129 -0.00129899)
(-0.000231338 0.000245191 0.000223243)
(0.000646365 0.000596921 0.00284602)
(-5.09366e-05 0.000435763 -0.00621027)
(0.000515368 0.000684036 0.000130286)
(-0.000156596 4.7734e-05 0.000272709)
(0.000189765 8.89123e-05 -0.00184993)
(-0.000561236 0.000186555 -0.00235674)
(0.00049493 -0.00055804 0.00239602)
(0.000167456 0.000442699 0.000281349)
(0.00089637 -0.00013342 -0.000698502)
(-0.000337411 -6.67008e-05 -0.000841928)
(-0.000525695 -0.000173447 0.000267441)
(0.000390697 -0.000438568 -0.000707124)
(0.000603933 0.000689907 0.00206151)
(0.000626234 -0.00056221 -0.000795283)
(-0.000157619 -3.65429e-05 0.000658882)
(0.000212343 0.000633576 0.00429032)
(-0.000610991 -0.000224486 0.00128775)
(-5.05612e-05 9.56019e-05 0.000590347)
(-0.00232216 0.000177412 0.000211853)
(0.000143183 0.00056053 0.00154489)
(0.000546305 -0.000492271 -0.000858443)
(-0.000403192 0.000106369 -0.000556875)
(0.000240055 0.000513742 0.000351988)
(-0.00109471 0.00106901 0.000314606)
(0.000317294 -0.000198946 -0.00146403)
(-5.89519e-05 0.000492821 7.28812e-05)
(-0.000237037 0.000397137 0.00764518)
(-0.000114425 -0.000363696 0.00251392)
(0.000582106 -0.000581646 0.00123272)
(9.52968e-05 -8.19196e-05 0.000500176)
(0.000103201 1.89279e-05 -0.00318778)
(-0.000406398 0.000386355 -0.0008625)
(-0.000874513 0.000654512 0.000305958)
(-0.000604188 -0.000219694 0.000549902)
(-0.000580258 -9.58575e-05 0.00101477)
(-0.00068115 -0.00115139 1.41398e-05)
(1.43136e-05 2.01641e-05 -0.0015284)
(-6.45031e-05 1.03569e-05 -0.00381742)
(0.000292186 -8.34015e-05 5.78787e-05)
(-0.000499588 -0.000163995 0.000195661)
(-0.00193594 -0.0004934 -0.00524978)
(-0.000979701 0.000457001 0.000483458)
(0.000244865 -0.000433584 -6.78654e-05)
(-0.00051495 -0.000225335 0.000327804)
(-0.000103558 0.00104453 0.000125426)
(-0.000409551 0.000134698 -0.001188)
(0.000416564 0.00066512 0.00505068)
(0.000244155 -9.48937e-05 0.000352316)
(0.000310753 2.09124e-05 0.00147331)
(-0.000457126 0.000446874 0.00300184)
(-6.42155e-05 7.45459e-05 -0.00160861)
(0.00024857 0.00100301 -0.00149413)
(-0.000493381 4.74111e-05 0.000245948)
(-0.00119714 0.00118801 -0.00054386)
(-0.00040015 0.000143062 -0.00063299)
(-0.000210447 9.42078e-05 -0.00128302)
(-0.000202619 -0.000373155 0.000387232)
(0.000388395 -0.000121 -0.00134714)
(9.52797e-05 0.000208497 -0.00451161)
(-0.000311459 -0.000406444 -0.00147461)
(0.000174897 0.000422423 0.000198993)
(-0.000794446 -0.000229808 0.00170299)
(-9.69565e-05 0.00018397 0.000212586)
(0.000149736 0.000329928 0.000326545)
(-0.000555317 -0.000130181 -0.00134964)
(-0.000960195 -0.000302554 -0.00147826)
(-0.000513933 0.000405843 0.00416872)
(-0.00067422 -4.1362e-05 0.000226904)
(-0.000144395 8.36296e-05 6.18162e-05)
(6.1391e-05 2.83683e-05 0.00342061)
(-6.85067e-05 -0.000361331 0.000254775)
(0.000105369 -0.00046711 0.00100696)
(-0.000328801 0.000263877 -0.000638182)
(0.000513381 -0.000115834 0.000122521)
(0.000249371 -0.000441242 0.000382275)
(0.0025032 0.000284546 0.000111436)
(-0.000469452 0.000164121 0.000283019)
(-0.000269566 0.000536061 -0.00562552)
(-0.000180621 7.88371e-05 0.000184343)
(0.000384937 -0.000568478 0.000563304)
(-0.000409669 2.01613e-05 0.000224393)
(-0.00068633 4.9082e-05 0.000281215)
(0.000421276 -0.000268436 -0.00136273)
(-0.00039629 9.771e-05 -0.0019918)
(-0.00163339 0.00039325 -0.00121018)
(0.000318577 -0.000419184 4.95493e-05)
(-0.000226916 0.000243161 -1.42287e-05)
(0.000150815 -0.00034898 0.000290245)
(-0.000306871 0.000466502 0.000223354)
(-0.000526427 0.000352758 0.000223165)
(7.83915e-05 -8.52675e-05 0.00233283)
(0.00028804 7.93808e-05 -0.000951601)
(0.000500584 -0.000431013 0.000201378)
(1.29931e-05 7.04987e-05 0.000251714)
(7.20425e-05 -0.000313991 0.000332266)
(-3.46262e-05 -0.000330989 0.000206233)
(-0.000798536 0.000170078 -0.000999113)
(-0.000919144 0.00028636 -0.0027526)
(-0.000454076 0.00012006 0.000204288)
(-0.000489925 0.000109183 0.000500706)
(0.000291952 -0.000210704 -0.00148387)
(-7.1886e-05 0.000250708 -0.0031991)
(-0.000524074 8.51408e-05 -0.00276346)
(0.000439063 -0.000487466 0.000532196)
(-0.000246871 3.78573e-05 -0.000850465)
(0.000543434 -0.000492324 0.000291044)
(8.36456e-05 0.000113866 -0.00154646)
(-0.000176575 9.88725e-05 0.00148235)
(0.000250106 0.000515909 0.00022508)
(-0.000690956 0.000116976 -0.000110319)
(-0.00406626 -0.00026835 -0.00144312)
(-0.000696303 -0.000218914 -0.000605922)
(-8.65882e-05 9.65665e-05 0.000502371)
(-0.000445732 0.000160936 0.000222617)
(-0.000615793 3.66307e-05 0.000561187)
(1.77944e-05 -2.17956e-05 -0.00100627)
(0.000297201 -0.000147977 0.000201653)
(0.00185756 0.000263605 0.000261558)
(-0.000652461 -0.000205217 -0.00206168)
(-0.000429822 4.13588e-05 0.00047629)
(-0.000152779 -9.94197e-05 0.00424979)
(-0.000512109 0.000240191 0.000276065)
(-0.000172782 0.000187327 0.000152719)
(0.00017935 0.000455306 0.000108678)
(-0.000286455 0.00068236 0.00184233)
(-0.000134631 0.000459796 -0.00339249)
(-0.000309919 0.000311561 0.000275093)
(-5.91435e-05 -0.000285136 0.000338218)
(-0.000548173 -0.000231614 0.000272619)
(-0.000525428 0.00013949 0.000267342)
(-0.000609923 0.000365743 0.000280812)
(0.00025838 0.000528755 -0.000704829)
(0.00012873 -0.000515536 -0.00171736)
(0.000124012 -0.000100284 0.00179517)
(-2.93604e-05 1.76298e-05 -0.000486351)
(-0.000180838 -9.76525e-06 -0.00143139)
(-0.00132618 0.000604034 -0.00307413)
(-0.0012204 0.0014352 0.000214226)
(0.000211201 -0.000448463 0.00103237)
(-0.000941066 0.000170893 -0.00155325)
(-0.000399495 0.000142756 -0.00114143)
(-5.58159e-05 -0.000936017 -0.00291361)
(-0.000488585 0.000254447 0.000261732)
(-0.000110136 0.000374594 0.000332531)
(1.82008e-05 -6.99504e-05 -0.00084517)
(0.000586296 4.19095e-05 -0.000101723)
(-0.000746249 8.63478e-05 -0.000711035)
(-0.00159504 4.30107e-05 0.00509669)
(-0.000511567 0.000438862 0.000334068)
(0.000587514 -0.000283473 0.0055524)
(0.000451111 0.000522582 -0.000891871)
(-3.24232e-05 -6.52412e-06 0.00442228)
(-0.000848882 -1.32476e-05 0.00246074)
(-0.000619755 -3.39948e-05 0.000275297)
(-1.79401e-05 -1.62637e-05 -0.00181898)
(-0.000481558 -0.000276549 -0.00229032)
(0.000290611 0.000533739 -0.00120738)
(0.000326027 0.000696295 -0.00169478)
(0.000204706 0.000287063 -0.000201463)
(-0.000101895 9.16124e-05 -3.5178e-05)
(-0.000338154 0.000218893 0.000513674)
(-0.000194392 -0.00035267 -0.000707316)
(0.000305029 -0.000221997 0.000253374)
(-0.00121861 -0.000213433 -0.00074751)
(-0.000557115 0.000286005 0.00037316)
(0.000477718 0.000855322 -0.00105978)
(-0.000547019 0.00163135 5.26781e-06)
(-0.000999844 0.000172765 -0.00119842)
(-0.000621089 0.000533846 -0.000713862)
(-0.000424256 0.000169492 -0.000723611)
(-0.000854715 0.00109255 0.000149776)
(-5.02592e-05 6.355e-05 -0.000854146)
(-0.00102784 0.00153805 8.70284e-05)
(0.00035036 -0.000619312 -0.00141243)
(0.000172544 0.000239772 -0.000948195)
(-0.000113091 0.000201317 -0.00208389)
(0.000553605 -0.000285784 0.0069805)
(-0.000703691 0.000609304 -0.00125129)
(0.000344853 -0.0003872 -0.000711853)
(-0.000384368 -8.48192e-05 0.000242925)
(0.000424883 0.000609826 0.000363249)
(-0.000283207 -6.35261e-05 0.000255161)
(-0.000748422 0.000269752 -0.00103351)
(0.000134574 0.000186404 0.000239739)
(0.000130426 -0.000766031 0.000352155)
(0.000276142 -9.90677e-05 -0.00267645)
(0.000172533 -2.66505e-05 0.00500003)
(-0.000605917 -0.000205138 -6.98951e-05)
(-0.00420668 0.000183005 -0.00193603)
(-0.000838065 0.000307634 -0.00352845)
(-0.00045041 -1.66645e-05 0.00014074)
(0.00021685 0.000469303 0.000204616)
(-0.00012873 -0.000104375 0.00023305)
(-0.000271186 6.35219e-05 0.000950355)
(5.00301e-05 -0.000254694 -0.000427812)
(0.000141629 -0.0034461 0.00111542)