/*--------------------------------*- C++ -*----------------------------------*\
| =========                 |                                                 |
| \\      /  F ield         | OpenFOAM: The Open Source CFD Toolbox           |
|  \\    /   O peration     | Version:  plus.master.MPPICInterFoam            |
|   \\  /    A nd           | Web:      www.OpenFOAM.com                      |
|    \\/     M anipulation  |                                                 |
\*---------------------------------------------------------------------------*/
FoamFile
{
    version     2.0;
    format      ascii;
    class       volScalarField;
    location    "13.4";
    object      k;
}
// * * * * * * * * * * * * * * * * * * * * * * * * * * * * * * * * * * * * * //

dimensions      [0 2 -2 0 0 0 0];

internalField   nonuniform List<scalar> 
11821
(
0.000806052
0.00261837
0.00799383
0.00943117
0.00428141
0.00128511
0.00038265
0.00214389
0.00896107
0.0366504
0.0522141
0.0253827
0.00662449
0.00153081
0.00534087
0.0260171
0.0308254
0.0538026
0.0255839
0.0301419
0.00571326
0.010547
0.055933
0.0541372
0.0569859
0.0654744
0.0466235
0.00976047
0.00642553
0.0320557
0.0292638
0.04557
0.0283447
0.032406
0.00706047
0.00233773
0.00863962
0.0368505
0.0540847
0.0210877
0.00909685
0.00223313
0.000854687
0.0026246
0.00781191
0.00934391
0.00400073
0.00170051
0.000590918
0.00135516
0.006252
0.0144247
0.015845
0.00649287
0.00165195
0.000612621
0.00563394
0.0222173
0.06082
0.0882473
0.0346869
0.00949984
0.00169651
0.0152064
0.0552393
0.0664958
0.131008
0.0574607
0.0335919
0.00625542
0.0252381
0.109546
0.14919
0.17621
0.301583
0.0639943
0.0106299
0.0177543
0.061683
0.0724529
0.145724
0.0625271
0.0423898
0.00871713
0.00687943
0.0250019
0.0666408
0.106754
0.0420294
0.0137676
0.00306824
0.00174267
0.00753972
0.018486
0.0225441
0.00968372
0.00279192
0.000718317
0.00304414
0.00958732
0.0189579
0.0222617
0.0086896
0.00249022
0.00151615
0.0103388
0.0288296
0.060075
0.0978551
0.0350181
0.00965232
0.00224382
0.0239163
0.0640108
0.067516
0.112469
0.0988978
0.028573
0.00538001
0.0386797
0.127551
0.184122
0.266053
0.47396
0.0612492
0.00959623
0.0278181
0.0751124
0.0763416
0.187901
0.108251
0.0375963
0.00813313
0.013291
0.0360225
0.074708
0.116353
0.047824
0.0157174
0.0035448
0.00425496
0.0133839
0.0267242
0.0335988
0.0152025
0.00429238
0.00164148
0.00451134
0.0101374
0.0188331
0.0206689
0.00862396
0.00379557
0.00318537
0.0115937
0.0303419
0.0544687
0.0712199
0.0319718
0.00889114
0.00354412
0.0268707
0.0651016
0.0963912
0.0998846
0.0907055
0.0238307
0.00519955
0.043438
0.127921
0.148318
0.266932
0.317719
0.0476637
0.00791906
0.0314287
0.0747945
0.0747817
0.135544
0.11745
0.0321869
0.00704421
0.0157688
0.0394858
0.0707615
0.101684
0.0472306
0.0146203
0.00430237
0.00610871
0.0153739
0.0287009
0.0345721
0.0157701
0.00518366
0.0033015
0.00492292
0.00904433
0.0160535
0.0165136
0.00768495
0.00428488
0.00384818
0.0105958
0.0272184
0.0475454
0.0546454
0.0259365
0.00773815
0.00409891
0.024767
0.0613154
0.118761
0.121422
0.0708326
0.0189525
0.00507317
0.0404439
0.125322
0.0823376
0.182638
0.189646
0.03538
0.00687861
0.0295261
0.0707248
0.115869
0.0705841
0.103855
0.0252265
0.0062104
0.0147561
0.036981
0.0649512
0.0911028
0.0404475
0.0121234
0.00457727
0.00633579
0.0141251
0.0258581
0.0292857
0.0134906
0.0053096
0.00396221
0.000157034
0.000125968
0.000123929
0.000118184
0.000114012
0.000110544
0.000107433
0.000104686
0.000490289
0.000194354
0.000133476
0.000118094
0.000111254
0.000106585
0.000102806
9.95677e-05
0.00177617
0.000498515
0.000178947
0.000122729
0.00011113
0.00010585
0.000101896
9.84354e-05
0.00322295
0.000927072
0.00025841
0.000131517
0.000111563
0.000106143
0.000102352
9.88499e-05
0.00225943
0.000625606
0.000204277
0.000129448
0.000115537
0.000110031
0.000106303
0.000103282
0.000780952
0.000279999
0.000153497
0.000127145
0.000119095
0.00011464
0.000111303
0.000108611
0.000258982
0.000161617
0.000133894
0.000125401
0.000121683
0.000119263
0.000116974
0.000114821
0.000494704
0.000451141
0.000410692
0.000375872
0.000347564
0.000323985
0.00030353
0.000284681
0.000570353
0.000465547
0.00041993
0.000382309
0.0003517
0.000326445
0.0003049
0.000285293
0.000973029
0.000476497
0.000415869
0.000379212
0.000349842
0.000324989
0.000303581
0.000283912
0.00145126
0.00049286
0.000412693
0.000378133
0.000350031
0.000325574
0.000304332
0.000284851
0.00133629
0.000488108
0.000409857
0.000376155
0.000348639
0.000324795
0.000303971
0.00028461
0.000686184
0.000447807
0.000403923
0.000373251
0.000347567
0.000325517
0.000306081
0.000287793
0.000473762
0.000422174
0.000390986
0.000363938
0.000340971
0.00032122
0.000303556
0.000286607
0.00137081
0.00129024
0.00118364
0.00106043
0.000928503
0.00079481
0.00066681
0.000552705
0.00141834
0.00131019
0.00120979
0.00108989
0.000956551
0.000817452
0.000681153
0.000557711
0.00157165
0.00129593
0.00120989
0.00110293
0.000974078
0.000833507
0.000692175
0.000562392
0.0017512
0.00126729
0.00120111
0.00110667
0.000981619
0.000840487
0.000696868
0.000564507
0.00183272
0.00129684
0.00120503
0.00110289
0.0009759
0.000835196
0.000693375
0.00056364
0.00148562
0.00129113
0.0011965
0.00108394
0.000954054
0.000816352
0.000681344
0.00055991
0.00133345
0.0012547
0.00115826
0.00104186
0.000914201
0.000783947
0.000659764
0.00055025
0.0029942
0.00278827
0.00252107
0.00224788
0.00200658
0.00181141
0.00165325
0.00149418
0.00305658
0.00288768
0.00263339
0.00234601
0.00207828
0.00185862
0.00168548
0.00151924
0.00307117
0.00290177
0.00269661
0.00242049
0.00214087
0.00190352
0.00171679
0.00154231
0.0030836
0.00287057
0.00271186
0.00245235
0.00217033
0.00192401
0.00172872
0.00154803
0.00320583
0.00291371
0.0027133
0.00244145
0.00215959
0.00191679
0.00172347
0.00154251
0.00310649
0.00290822
0.00266531
0.00238243
0.00211147
0.00188414
0.00170108
0.00152422
0.00299721
0.00280757
0.00255255
0.00228339
0.00203984
0.00183811
0.00167066
0.00150077
0.00364008
0.00340659
0.00313315
0.00284762
0.00255133
0.00221794
0.00180701
0.00134175
0.00372638
0.00351332
0.00323336
0.00293408
0.00263189
0.00230209
0.00189445
0.00141637
0.00373561
0.00355668
0.0033123
0.00301667
0.00270978
0.00237689
0.00196363
0.00146984
0.00371952
0.00354363
0.00333808
0.00305263
0.00274419
0.0024073
0.00198995
0.00149016
0.00381091
0.00356894
0.00332879
0.0030333
0.00272142
0.00238299
0.00196628
0.00147045
0.0037712
0.00354661
0.0032731
0.00297062
0.00265918
0.00231945
0.00190353
0.00141778
0.00367234
0.00345303
0.0031865
0.00289849
0.00259345
0.00224798
0.00182345
0.00134398
0.000269214
0.000151715
0.000133193
0.000128252
0.000125999
0.000123701
0.000121138
0.000118911
0.00076623
0.000260182
0.000147519
0.000121968
0.000115052
0.000111639
0.000108252
0.000104586
0.00219903
0.000731682
0.000246681
0.000133185
0.000110594
0.000102187
9.58711e-05
9.07475e-05
0.00332116
0.00102633
0.000301883
0.000136193
0.000104948
9.53629e-05
8.89535e-05
8.3798e-05
0.00182033
0.000602086
0.000210888
0.00012641
0.000108361
0.000101245
9.58867e-05
9.05234e-05
0.00062768
0.000221784
0.000140445
0.000118891
0.000112122
0.000107087
0.000103809
0.000101145
0.000259145
0.00014818
0.000126864
0.000121857
0.000119217
0.000116814
0.000114761
0.000112662
0.000618193
0.000476048
0.000431705
0.000396145
0.000365272
0.000338658
0.000315569
0.000294467
0.00140725
0.000574945
0.000471809
0.000430013
0.000394038
0.000360724
0.000330871
0.000304178
0.00407735
0.000950717
0.00053812
0.000474804
0.000432783
0.000390996
0.000351485
0.000315726
0.00542392
0.00110526
0.000544163
0.000476176
0.000432866
0.000387547
0.000344266
0.000305675
0.00299091
0.000715561
0.000486506
0.000439207
0.000399406
0.000359228
0.000321218
0.000287464
0.00103667
0.000502778
0.000435621
0.000397579
0.0003626
0.000330695
0.000302742
0.000277565
0.000544116
0.000444584
0.000407359
0.000374763
0.000345926
0.000321118
0.000299821
0.000280732
0.00172636
0.0013466
0.00123146
0.00112088
0.000990846
0.000847693
0.000704344
0.00057499
0.0034547
0.0015399
0.00126988
0.00117072
0.00106121
0.000926796
0.000777159
0.000629373
0.00793112
0.00212303
0.00127395
0.00116011
0.00107716
0.000965393
0.000826801
0.000675798
0.0105066
0.00235763
0.00120744
0.00109343
0.00101513
0.000906906
0.000774779
0.00063201
0.00621317
0.00172729
0.00121047
0.00111987
0.00102921
0.000910315
0.000769701
0.00062124
0.00254496
0.00137112
0.00120524
0.00111039
0.000996346
0.000861842
0.000717672
0.000578618
0.00148091
0.0012715
0.0011798
0.00107319
0.000946555
0.000809196
0.000673128
0.000550876
0.00348104
0.00298493
0.00269484
0.00240825
0.0021407
0.00191428
0.00172639
0.00154126
0.00528634
0.0032355
0.00280782
0.00253402
0.00226817
0.00203396
0.00184508
0.00166815
0.0097708
0.00369376
0.00276868
0.00251647
0.0022819
0.00206304
0.00189453
0.00175301
0.012912
0.00385452
0.00260324
0.0023731
0.00214644
0.00191996
0.00174309
0.00160012
0.00782994
0.00329347
0.00267282
0.00243741
0.00219371
0.0019692
0.00179916
0.00165888
0.00419645
0.00300392
0.00269554
0.00243369
0.00217367
0.00195047
0.00177588
0.0016148
0.00314482
0.00285387
0.00259568
0.00232085
0.00206612
0.00185377
0.00167971
0.00150809
0.00418323
0.00370613
0.00338571
0.00306014
0.00271795
0.00233659
0.00187264
0.00134703
0.00574918
0.00401707
0.00358313
0.0032745
0.002951
0.00257749
0.00209924
0.00152524
0.00955737
0.00445645
0.00366717
0.00340983
0.00315798
0.00284164
0.00238583
0.00178892
0.0121455
0.0045655
0.00353749
0.00332244
0.00312248
0.00287359
0.00249572
0.00196329
0.00784288
0.00410497
0.00355811
0.00333038
0.00309284
0.00279861
0.00237233
0.0018046
0.00477416
0.00378478
0.0034693
0.00319367
0.00289798
0.00255388
0.00210182
0.00154799
0.00385495
0.00355577
0.0032753
0.00297404
0.00265641
0.00229812
0.00185432
0.00134543
0.000340163
0.00017508
0.000130659
0.000119333
0.000116935
0.000115672
0.000114451
0.000112639
0.00102841
0.000349312
0.000152835
0.000113205
0.000105543
0.00010264
0.000100184
9.86236e-05
0.00258629
0.000736625
0.000215186
0.000112397
9.40183e-05
8.6373e-05
8.06144e-05
7.55457e-05
0.0028441
0.000783617
0.000219213
0.000117552
9.95044e-05
9.14682e-05
8.54622e-05
8.0346e-05
0.0012528
0.000358858
0.000153525
0.000116478
0.000107234
0.000101422
9.69878e-05
9.28972e-05
0.000343783
0.000148641
0.000126809
0.000117346
0.000111604
0.000107601
0.00010446
0.000101223
0.00014583
0.000121854
0.000122382
0.000118316
0.000114527
0.000111435
0.000108677
0.000106166
0.000585404
0.00044457
0.00041074
0.000384051
0.000359348
0.000336785
0.00031584
0.000295673
0.00128518
0.000517404
0.000432464
0.000398563
0.000370135
0.000345147
0.000323432
0.000303565
0.00266192
0.000628895
0.000441189
0.000397741
0.000362607
0.000331421
0.000304979
0.00028197
0.00235464
0.00057451
0.000438079
0.000395948
0.000357719
0.000322601
0.000291797
0.000264569
0.0010083
0.000498983
0.000436798
0.000396186
0.000359721
0.000327896
0.000300598
0.00027628
0.00057772
0.000476464
0.000430261
0.000391232
0.000358627
0.000331745
0.000308619
0.000287611
0.000505702
0.000459157
0.000416158
0.000379644
0.000350263
0.000326161
0.000305505
0.000286653
0.00147316
0.00125364
0.00116686
0.00106653
0.000945753
0.000813505
0.000681539
0.000562045
0.00240405
0.00132448
0.00118133
0.00109349
0.000984168
0.000854502
0.000716417
0.000585118
0.00406155
0.00137549
0.00112598
0.0010476
0.000949781
0.00082927
0.000696796
0.000566818
0.00376027
0.00127572
0.00110281
0.00102572
0.000920532
0.0007941
0.000658869
0.000528664
0.00190235
0.00128092
0.00118748
0.001094
0.00097446
0.000837119
0.000693205
0.000556708
0.0014472
0.00132238
0.00122828
0.00111395
0.00098206
0.000840528
0.000698921
0.000568883
0.00138334
0.00130529
0.00119875
0.00107385
0.000939561
0.000803277
0.000672778
0.000556521
0.00310002
0.00282072
0.00256897
0.00230122
0.00205178
0.00184205
0.00166804
0.0014941
0.00379322
0.00290647
0.00263364
0.00237302
0.00211346
0.00188938
0.00170792
0.00153349
0.00507787
0.00286399
0.00254919
0.00231449
0.00206376
0.00184349
0.00167202
0.00151464
0.00472385
0.00271831
0.00248668
0.00226365
0.00201034
0.00178889
0.00162291
0.00147752
0.00331007
0.00279958
0.00259485
0.00233701
0.00206778
0.00183817
0.00166116
0.00149983
0.00305489
0.0028733
0.00262691
0.00234427
0.00207664
0.00185472
0.00167911
0.00151155
0.00299242
0.00279067
0.00252293
0.00224893
0.00200673
0.00181055
0.00165143
0.00149175
0.00379694
0.00351087
0.00323635
0.00293915
0.00262188
0.00226285
0.00182202
0.00132364
0.00429897
0.00359685
0.00329708
0.00300245
0.00268964
0.00234061
0.00190884
0.00140301
0.00518154
0.00357134
0.00325523
0.00299044
0.00270148
0.00237424
0.00195734
0.00145278
0.00488043
0.00344105
0.00319465
0.00294764
0.00266847
0.00235344
0.00194938
0.00145556
0.00389881
0.00347691
0.00324046
0.00296553
0.00267161
0.00234585
0.00193432
0.00143841
0.00371843
0.00350032
0.00322778
0.00293249
0.00263044
0.00229813
0.0018855
0.0014
0.00362883
0.00339728
0.00312221
0.00283608
0.00254035
0.00220844
0.00179911
0.00133414
0.0001997
0.000140271
0.000129928
0.000125225
0.000121631
0.000118658
0.000116016
0.000113851
0.000432008
0.000174682
0.000136926
0.000124712
0.000118667
0.000113681
0.000109166
0.000105063
0.00124218
0.000389846
0.00016949
0.000125645
0.000113944
0.000106873
0.000101175
9.60753e-05
0.00284306
0.000842449
0.000254276
0.000133329
0.000109769
9.95185e-05
9.22512e-05
8.646e-05
0.00269013
0.000846511
0.000267248
0.000134131
0.000105718
9.60778e-05
8.99985e-05
8.54816e-05
0.0010685
0.000382172
0.000175252
0.000124739
0.000113263
0.000108124
0.00010396
0.000100526
0.000334444
0.000177758
0.000139924
0.000129581
0.000123181
0.000120705
0.000118879
0.000117391
0.000489162
0.000439616
0.000401207
0.000367672
0.000340277
0.000317895
0.000298951
0.000281774
0.000650464
0.000477013
0.000429046
0.000388259
0.000352716
0.000322656
0.000297496
0.000275578
0.00148157
0.000551237
0.000470837
0.000427208
0.000384998
0.000345021
0.000309355
0.000277987
0.00383669
0.000778213
0.000519675
0.000470448
0.000425262
0.000379315
0.000336711
0.000298962
0.00406598
0.000922839
0.00054208
0.000477054
0.000429552
0.00038361
0.000342
0.000305736
0.00177805
0.000637099
0.000492119
0.0004424
0.000401433
0.000364758
0.000333161
0.000305924
0.00066363
0.000485284
0.000440019
0.000404644
0.000373897
0.000346515
0.000322018
0.000299181
0.00135412
0.00127826
0.00118066
0.00106133
0.000929968
0.00079538
0.000666495
0.000552479
0.00156992
0.0012957
0.00120158
0.00109735
0.000974162
0.000838398
0.000699028
0.000567922
0.00305398
0.00133698
0.00117743
0.00109767
0.000993914
0.000866233
0.000723311
0.000578661
0.00765147
0.00167938
0.00113887
0.00106554
0.000980366
0.000866357
0.000733134
0.000593864
0.00725537
0.00192217
0.00121495
0.00111544
0.00102947
0.000914911
0.000777927
0.000633412
0.00362549
0.00154768
0.00125854
0.0011579
0.00104956
0.000917469
0.000770516
0.000625162
0.0017345
0.00134137
0.00122682
0.00111717
0.000988246
0.000846178
0.000703763
0.00057507
0.00299842
0.00281825
0.00256305
0.00229358
0.00205057
0.00185048
0.0016862
0.00152081
0.00316596
0.00287793
0.00265214
0.00239171
0.00213758
0.00192481
0.00175847
0.00160171
0.00438691
0.00283367
0.00259118
0.00237031
0.0021248
0.00191042
0.00175259
0.00161894
0.00886195
0.00304731
0.00247027
0.00227912
0.00205109
0.0018352
0.001676
0.0015511
0.00854185
0.00336864
0.00264646
0.0024152
0.00218794
0.00198187
0.00182703
0.0016936
0.00512636
0.00316062
0.00274895
0.00248013
0.00222051
0.00199348
0.00181008
0.0016357
0.00344871
0.00296152
0.00267424
0.00239102
0.00212729
0.00190442
0.00171931
0.00153607
0.00367655
0.00346214
0.00319301
0.0029058
0.00260413
0.00226234
0.0018384
0.00135284
0.00386734
0.00359274
0.00334989
0.00307894
0.00278884
0.00245464
0.00202116
0.00149627
0.0048162
0.00362361
0.00338631
0.00317006
0.00292263
0.00262483
0.00220868
0.00166981
0.0081269
0.00381811
0.0033493
0.0031648
0.00295518
0.0026979
0.00232053
0.00180442
0.00815441
0.00409543
0.00349402
0.0032473
0.00298942
0.00267173
0.00222771
0.00165809
0.00548501
0.00390378
0.00349193
0.00318563
0.00286381
0.00249491
0.00202776
0.00147344
0.00414552
0.00367949
0.00336233
0.00304049
0.00270216
0.00232441
0.00186422
0.00134332
0.000102234
9.69816e-05
9.57137e-05
9.56568e-05
0.000100792
0.000106483
0.000112671
0.000266162
0.000265935
0.000264244
0.000265336
0.000265073
0.0002692
0.000269411
0.0004602
0.000457454
0.00045677
0.000456944
0.000458651
0.000462086
0.000462369
0.00126854
0.00127431
0.00128069
0.00127905
0.00127599
0.00126963
0.00126456
0.000841128
0.000848373
0.00085056
0.000851701
0.00084985
0.000843248
0.000830815
0.000116794
0.00010088
8.6622e-05
7.94997e-05
8.57262e-05
9.70054e-05
0.000110491
0.00027412
0.00028007
0.000283955
0.00027268
0.000257937
0.00025517
0.000262552
0.000471225
0.000502635
0.000534973
0.000499384
0.000484969
0.000460882
0.000452932
0.00129157
0.00141052
0.00152933
0.00138004
0.00144103
0.00137534
0.00127246
0.000784926
0.000846256
0.00100937
0.00119557
0.00104457
0.000880723
0.000795624
0.000111045
9.79568e-05
7.14013e-05
7.59388e-05
8.89176e-05
9.8284e-05
0.000103834
0.000275411
0.00028419
0.000260941
0.000239691
0.000253581
0.000267028
0.000268233
0.000465188
0.000475978
0.000455833
0.000418908
0.000443037
0.000462466
0.000462355
0.00125519
0.00128057
0.00127054
0.00124616
0.00125396
0.0012666
0.00126581
0.000791605
0.000806543
0.000817039
0.000819142
0.000814669
0.000823358
0.000832117
0.000111742
0.000101094
9.13041e-05
8.14567e-05
8.19173e-05
9.7941e-05
0.000115902
0.000265023
0.000255408
0.000250314
0.00026669
0.000274485
0.000281825
0.00027701
0.000461078
0.000458416
0.000450682
0.00046706
0.000502192
0.000500202
0.00047169
0.0012882
0.0013644
0.00140255
0.00135005
0.00146969
0.00137915
0.00128776
0.000826394
0.000866095
0.000962706
0.00107724
0.00092422
0.000821216
0.000786305
9.98357e-05
9.44429e-05
8.68002e-05
7.84546e-05
6.96558e-05
6.09519e-05
5.27241e-05
4.50329e-05
9.48817e-05
9.07038e-05
8.45705e-05
7.65769e-05
6.83055e-05
5.99899e-05
5.20283e-05
4.45292e-05
9.36573e-05
8.96448e-05
8.38439e-05
7.61156e-05
6.80246e-05
5.98266e-05
5.19393e-05
4.44825e-05
9.38558e-05
9.12738e-05
8.54365e-05
7.78007e-05
6.93675e-05
6.04384e-05
5.21881e-05
4.4675e-05
9.87265e-05
9.4258e-05
8.73484e-05
7.88232e-05
7.01768e-05
6.15633e-05
5.3382e-05
4.57046e-05
0.000104608
9.96168e-05
9.16347e-05
8.2241e-05
7.29306e-05
6.38563e-05
5.52983e-05
4.73136e-05
0.000110237
0.00010383
9.51906e-05
8.56814e-05
7.58964e-05
6.64189e-05
5.7505e-05
4.92033e-05
0.000246885
0.000214798
0.000180434
0.000149126
0.000122093
9.89992e-05
7.93135e-05
6.29542e-05
0.000246917
0.000215813
0.000181216
0.000150126
0.000122894
9.96279e-05
7.98499e-05
6.34892e-05
0.00024557
0.000215111
0.000180876
0.00015007
0.000123002
9.98385e-05
8.01087e-05
6.3761e-05
0.000247337
0.000216562
0.00018245
0.000150993
0.000123068
9.96657e-05
8.00485e-05
6.38556e-05
0.000246695
0.00021608
0.000181919
0.000151177
0.000124156
0.000100954
8.11167e-05
6.46338e-05
0.000250978
0.000219813
0.000185222
0.000153922
0.000126421
0.000102772
8.25402e-05
6.57152e-05
0.00025148
0.00022057
0.000186402
0.000155071
0.000127777
0.000104243
8.39983e-05
6.70119e-05
0.00038925
0.00031703
0.000249597
0.000191655
0.00014587
0.00011083
8.44781e-05
6.53117e-05
0.000386219
0.00031531
0.000249102
0.000191697
0.000146107
0.000111184
8.49683e-05
6.59727e-05
0.00038538
0.000315852
0.000249763
0.000192285
0.000146625
0.00011166
8.54391e-05
6.64583e-05
0.000385528
0.000316337
0.000250111
0.000192688
0.000147079
0.00011208
8.58306e-05
6.68562e-05
0.000388043
0.000319317
0.000251575
0.000193373
0.000147518
0.000112468
8.61607e-05
6.70861e-05
0.000393282
0.000324471
0.000254665
0.000195334
0.00014891
0.000113504
8.6911e-05
6.75824e-05
0.000396234
0.000327572
0.000256109
0.000196136
0.000149629
0.000114275
8.76768e-05
6.82223e-05
0.00100587
0.000623305
0.000367714
0.000237556
0.000164034
0.000118222
8.82174e-05
6.85293e-05
0.00100598
0.000623999
0.000368827
0.000238584
0.000164928
0.000119081
8.91468e-05
6.95778e-05
0.00100661
0.000624313
0.000369951
0.000239867
0.000166012
0.000119983
8.99626e-05
7.03628e-05
0.00100338
0.000622123
0.00036918
0.000239774
0.000166223
0.000120338
9.03946e-05
7.08394e-05
0.00100092
0.000619506
0.00036785
0.000239369
0.000166209
0.000120436
9.04646e-05
7.08365e-05
0.000998086
0.000617159
0.000366811
0.000239107
0.000166187
0.000120437
9.03894e-05
7.0655e-05
0.000997859
0.000616296
0.000365802
0.000238322
0.00016564
0.000120066
9.00602e-05
7.02339e-05
0.000793299
0.000630207
0.000397391
0.000255297
0.000171424
0.000120559
8.91965e-05
7.01072e-05
0.000796284
0.000634347
0.000401256
0.000258169
0.000173531
0.000122259
9.07522e-05
7.1647e-05
0.00079562
0.000635967
0.000404426
0.000261112
0.00017563
0.000123714
9.19152e-05
7.26949e-05
0.000795235
0.000636143
0.00040416
0.000260804
0.000175603
0.000123982
9.23463e-05
7.31978e-05
0.000794463
0.000634927
0.000402568
0.0002595
0.000174834
0.000123537
9.20101e-05
7.28733e-05
0.000790603
0.00063084
0.000399348
0.000257374
0.000173402
0.000122466
9.10815e-05
7.19757e-05
0.000781413
0.000621106
0.000391697
0.000252231
0.000169987
0.000120113
8.9278e-05
7.03642e-05
0.000114743
0.00010949
0.00010094
9.07428e-05
8.02519e-05
7.02031e-05
6.08223e-05
5.21507e-05
9.8226e-05
9.46244e-05
9.06301e-05
8.46502e-05
7.69798e-05
6.8757e-05
6.05276e-05
5.25688e-05
8.30963e-05
7.74587e-05
7.22492e-05
6.69393e-05
6.15657e-05
5.573e-05
5.01834e-05
4.45792e-05
7.55935e-05
6.86639e-05
6.25069e-05
5.65798e-05
5.12958e-05
4.63207e-05
4.15407e-05
3.68505e-05
8.16406e-05
7.55161e-05
6.97785e-05
6.41767e-05
5.86359e-05
5.31459e-05
4.78683e-05
4.258e-05
9.39953e-05
8.97876e-05
8.45583e-05
7.8745e-05
7.16313e-05
6.41029e-05
5.65061e-05
4.89549e-05
0.000108164
0.000103085
9.55146e-05
8.62733e-05
7.65394e-05
6.70915e-05
5.81418e-05
4.9834e-05
0.000253666
0.00022108
0.000185702
0.0001539
0.000126887
0.000104172
8.48941e-05
6.8633e-05
0.000257935
0.000226907
0.00019341
0.000161711
0.000133932
0.000110512
9.08913e-05
7.46475e-05
0.000254155
0.000216084
0.00018081
0.000150757
0.000124785
0.000103041
8.3813e-05
6.68648e-05
0.00024202
0.000203667
0.000168746
0.000139167
0.000114821
9.38482e-05
7.62007e-05
6.15961e-05
0.000230795
0.000195372
0.000162752
0.000134589
0.000110767
9.03617e-05
7.27296e-05
5.76435e-05
0.000234866
0.000205148
0.000175538
0.000147164
0.000122341
0.000101006
8.25749e-05
6.70344e-05
0.000244267
0.000214254
0.000180641
0.000149964
0.000123621
0.000101289
8.23101e-05
6.63733e-05
0.00039494
0.00032401
0.000252538
0.000192921
0.000147167
0.00011267
8.67612e-05
6.76287e-05
0.000410352
0.000328376
0.00026544
0.000209898
0.000165053
0.000130344
0.000103742
8.33897e-05
0.000424017
0.00031948
0.000255199
0.000212016
0.000179354
0.000149783
0.000122345
9.70388e-05
0.000392652
0.000287408
0.000218973
0.000171347
0.000135323
0.000106958
8.44879e-05
6.68113e-05
0.000379923
0.000278079
0.000214845
0.000172451
0.00014182
0.000116468
9.41585e-05
7.47385e-05
0.000376124
0.000298238
0.000245351
0.000196078
0.000154766
0.000122183
9.69235e-05
7.75718e-05
0.000380702
0.000313557
0.000247136
0.000190094
0.000145551
0.000111723
8.62403e-05
6.73923e-05
0.00100985
0.000612888
0.000356778
0.000229019
0.000157809
0.00011385
8.50485e-05
6.5892e-05
0.00111732
0.00069856
0.000412449
0.000265554
0.000185184
0.000136909
0.000105689
8.44916e-05
0.00126349
0.00084441
0.000535509
0.000361075
0.000260693
0.000201116
0.000163472
0.000137797
0.00112231
0.000734297
0.000455828
0.000295855
0.000200741
0.000140692
0.000100965
7.41818e-05
0.00118798
0.000789951
0.000497436
0.000332535
0.00023636
0.000176974
0.000138162
0.000111286
0.00110186
0.000701086
0.000416696
0.000268595
0.000187448
0.000138519
0.000106642
8.48325e-05
0.00100266
0.00061465
0.000359483
0.000231286
0.000159917
0.000115926
8.70859e-05
6.78147e-05
0.00072781
0.000566353
0.000352515
0.000225971
0.000152039
0.000107356
7.96291e-05
6.24346e-05
0.000774411
0.000599888
0.00037495
0.000243154
0.000167509
0.000122655
9.5067e-05
7.77148e-05
0.00091777
0.000721575
0.000467655
0.000316331
0.000229414
0.000178464
0.0001478
0.000129357
0.00111511
0.000895375
0.000616295
0.00044135
0.000331207
0.00025543
0.000196715
0.000146613
0.000957486
0.000758182
0.000497182
0.000339509
0.000246802
0.000189959
0.000152879
0.000127591
0.000807609
0.000627699
0.000394856
0.000258037
0.000179284
0.000132081
0.000102351
8.30031e-05
0.0007388
0.000576072
0.000359447
0.000231068
0.00015621
0.000111018
8.29076e-05
6.53369e-05
0.000109636
0.000105018
9.69267e-05
8.6931e-05
7.6575e-05
6.66706e-05
5.75651e-05
4.91833e-05
9.76132e-05
9.5878e-05
9.24369e-05
8.56414e-05
7.68889e-05
6.72345e-05
5.82669e-05
5.0006e-05
6.85245e-05
6.40837e-05
6.05671e-05
5.6963e-05
5.42969e-05
5.11646e-05
4.6661e-05
4.12169e-05
7.25258e-05
6.67412e-05
6.10347e-05
5.47162e-05
4.9161e-05
4.38704e-05
3.87722e-05
3.3976e-05
8.5947e-05
8.18433e-05
7.76264e-05
7.19058e-05
6.50542e-05
5.75705e-05
5.00612e-05
4.30714e-05
9.687e-05
9.54563e-05
8.93148e-05
8.13944e-05
7.22832e-05
6.297e-05
5.43025e-05
4.64968e-05
0.000101506
9.64161e-05
8.91295e-05
8.03803e-05
7.11193e-05
6.20579e-05
5.35793e-05
4.57283e-05
0.000254609
0.000220742
0.000184233
0.000151822
0.000124425
0.000101547
8.22231e-05
6.60334e-05
0.000265548
0.000235741
0.000198691
0.000163616
0.000132849
0.000107656
8.6847e-05
6.98397e-05
0.000242032
0.000216359
0.000188493
0.000163023
0.000137746
0.000114547
9.4387e-05
7.70237e-05
0.000216846
0.000183212
0.000149
0.000119865
9.49482e-05
7.46715e-05
5.82923e-05
4.53746e-05
0.000232876
0.000201795
0.000168895
0.000138939
0.00011321
9.17824e-05
7.43069e-05
6.01588e-05
0.000247449
0.000214487
0.000180125
0.00014827
0.000120715
9.74873e-05
7.83032e-05
6.24651e-05
0.000249094
0.000216872
0.000181556
0.000149549
0.000121986
9.86011e-05
7.8892e-05
6.25959e-05
0.000392373
0.000321392
0.000250636
0.000191441
0.00014578
0.000111233
8.5266e-05
6.61912e-05
0.00039858
0.000326156
0.000258865
0.000200209
0.000153582
0.000117888
9.11421e-05
7.17075e-05
0.000378519
0.000307172
0.000255098
0.00020519
0.00016272
0.000129475
0.000104525
8.66407e-05
0.00034371
0.000273874
0.000227531
0.000188209
0.000152694
0.000122261
9.6247e-05
7.33397e-05
0.000365552
0.000291946
0.000235371
0.000184762
0.000143493
0.000111994
8.88659e-05
7.25392e-05
0.000386783
0.000312531
0.000246637
0.000189796
0.000144728
0.000110319
8.45568e-05
6.5858e-05
0.000390157
0.000316971
0.000249141
0.000191025
0.000145203
0.000110224
8.39687e-05
6.48676e-05
0.000985292
0.000601644
0.000352788
0.00022799
0.00015761
0.000113642
8.46317e-05
6.53707e-05
0.00100526
0.00061796
0.00036282
0.000234171
0.000162103
0.000117435
8.8233e-05
6.90497e-05
0.00100338
0.00062569
0.000367118
0.000236234
0.000164794
0.000121864
9.48391e-05
7.78741e-05
0.000992699
0.000629115
0.000378076
0.000248397
0.000179549
0.000140737
0.000118024
0.000104313
0.000988959
0.000614775
0.000359852
0.000230776
0.000160319
0.000118266
9.19901e-05
7.54128e-05
0.000998561
0.000617429
0.000362406
0.000233039
0.00016067
0.000116017
8.69884e-05
6.79902e-05
0.00100291
0.000620365
0.000365099
0.000235407
0.000162335
0.000116881
8.71131e-05
6.75423e-05
0.0007395
0.000580924
0.00036424
0.0002341
0.000157311
0.000110494
8.13201e-05
6.33044e-05
0.000751053
0.00059104
0.000371172
0.000238394
0.000160176
0.000112709
8.33498e-05
6.5402e-05
0.000759206
0.000597157
0.000374549
0.000240443
0.00016223
0.00011557
8.74525e-05
7.08298e-05
0.000760417
0.000598299
0.000375001
0.000241377
0.000165034
0.000121368
9.69088e-05
8.42254e-05
0.000758565
0.000597623
0.000374108
0.000239426
0.000161137
0.000114732
8.69944e-05
7.06939e-05
0.00077038
0.000609313
0.000382889
0.000245452
0.000164658
0.000115877
8.59115e-05
6.76996e-05
0.000784058
0.000621516
0.000391215
0.000251097
0.000168476
0.000118369
8.74347e-05
6.8561e-05
0.000109229
0.000103855
9.62535e-05
8.71534e-05
7.75182e-05
6.81051e-05
5.92087e-05
5.08813e-05
9.76996e-05
9.2609e-05
8.79304e-05
8.14993e-05
7.39608e-05
6.58844e-05
5.7924e-05
5.02241e-05
8.68948e-05
7.95495e-05
7.33643e-05
6.72084e-05
6.10888e-05
5.49182e-05
4.89287e-05
4.3208e-05
7.72586e-05
6.98001e-05
6.31438e-05
5.6974e-05
5.12938e-05
4.60742e-05
4.11027e-05
3.63789e-05
7.89834e-05
7.37635e-05
6.89627e-05
6.39589e-05
5.87564e-05
5.35736e-05
4.83295e-05
4.30876e-05
9.58336e-05
9.15568e-05
8.79274e-05
8.30009e-05
7.59814e-05
6.8065e-05
6.00428e-05
5.22672e-05
0.000114082
0.000108541
9.98663e-05
8.95847e-05
7.91197e-05
6.9214e-05
6.00272e-05
5.15034e-05
0.000248064
0.000219229
0.000186092
0.000155367
0.000128466
0.000105319
8.54708e-05
6.87185e-05
0.000236953
0.000209593
0.00017938
0.000151093
0.000125898
0.000104152
8.54437e-05
6.94505e-05
0.000225284
0.000191162
0.000158663
0.000130763
0.000107086
8.69468e-05
6.95823e-05
5.4602e-05
0.000237049
0.000198179
0.000162629
0.00013268
0.000107899
8.74515e-05
7.05692e-05
5.6653e-05
0.000246354
0.000211528
0.000178638
0.000150022
0.000125372
0.000103936
8.54443e-05
6.86439e-05
0.000259975
0.000230173
0.000197043
0.000164222
0.000135764
0.000111911
9.20102e-05
7.5188e-05
0.000254882
0.000220666
0.000184469
0.000152503
0.000125728
0.000103359
8.4418e-05
6.83879e-05
0.00039294
0.000325981
0.000257699
0.000198851
0.000152679
0.000117498
9.09791e-05
7.14182e-05
0.000381118
0.00030907
0.000253151
0.000201826
0.00015921
0.000125692
9.98909e-05
8.0427e-05
0.000357178
0.000266995
0.000211415
0.000174907
0.000145736
0.000119433
9.61941e-05
7.62482e-05
0.000368773
0.00027069
0.000206189
0.000160674
0.000125798
9.85179e-05
7.73078e-05
6.10873e-05
0.000403331
0.000313787
0.000258975
0.000221514
0.00018807
0.000157442
0.000130372
0.000107408
0.000410077
0.000331249
0.000266638
0.000209736
0.000163866
0.00012832
0.000101074
8.05327e-05
0.000395423
0.000324183
0.000252613
0.000192996
0.000147274
0.00011283
8.69628e-05
6.78553e-05
0.00102035
0.000631768
0.000373621
0.000242394
0.000168643
0.000123005
9.31128e-05
7.32317e-05
0.00109277
0.00069419
0.000414047
0.000268104
0.000187664
0.000139233
0.000107957
8.69642e-05
0.00115158
0.000762531
0.000478177
0.00031813
0.00022664
0.000172102
0.000137153
0.000113358
0.00111179
0.000740588
0.0004666
0.000307883
0.000213332
0.000152084
0.000108761
7.81039e-05
0.0012027