/*--------------------------------*- C++ -*----------------------------------*\
| =========                 |                                                 |
| \\      /  F ield         | OpenFOAM: The Open Source CFD Toolbox           |
|  \\    /   O peration     | Version:  plus.master.MPPICInterFoam            |
|   \\  /    A nd           | Web:      www.OpenFOAM.com                      |
|    \\/     M anipulation  |                                                 |
\*---------------------------------------------------------------------------*/
FoamFile
{
    version     2.0;
    format      ascii;
    class       surfaceScalarField;
    location    "8.4";
    object      alphaPhi;
}
// * * * * * * * * * * * * * * * * * * * * * * * * * * * * * * * * * * * * * //

dimensions      [0 3 -1 0 0 0 0];

internalField   nonuniform List<scalar> 
34018
(
3.17185e-07
6.60323e-06
8.14082e-07
8.58026e-07
7.57971e-07
7.12017e-06
4.72557e-07
6.13894e-06
7.03302e-07
5.87331e-07
7.24829e-06
1.10027e-06
6.17266e-07
6.58939e-06
7.64876e-07
5.47465e-06
5.47155e-07
4.73873e-07
-8.77258e-07
-1.47314e-06
7.70507e-06
1.10715e-06
1.30075e-06
-4.09919e-07
-1.57911e-06
7.96722e-06
1.68184e-06
7.40129e-08
-1.57063e-06
7.98593e-06
1.78876e-06
5.19189e-07
-1.60449e-06
7.86644e-06
1.63638e-06
7.02789e-07
-1.40008e-06
7.3891e-06
1.2509e-06
6.52901e-07
-9.40321e-07
6.48962e-06
8.54639e-07
-5.92656e-07
5.44238e-06
5.28479e-07
5.55037e-07
-9.24766e-07
-8.79086e-07
7.591e-06
1.58003e-06
-3.34497e-07
-5.65573e-07
6.72052e-06
9.96993e-08
-5.28548e-07
6.46511e-06
6.91579e-07
-5.97728e-07
7.06044e-06
1.12257e-06
-9.09583e-07
7.70674e-06
9.8182e-07
-7.5437e-07
7.25517e-06
-4.81439e-07
6.10839e-06
7.33626e-07
-6.16673e-07
-2.10755e-07
6.04805e-06
1.59545e-06
-2.97877e-07
-1.44255e-07
4.93132e-06
1.70071e-08
-1.53638e-07
5.23764e-06
4.46328e-07
-2.02468e-07
4.74515e-06
1.32763e-06
-2.76711e-07
7.15862e-06
1.29859e-06
-2.9944e-07
7.68136e-06
-2.18559e-07
6.59636e-06
9.40696e-07
-5.79535e-07
1.47746e-07
5.55028e-06
1.46574e-06
-3.09031e-07
9.90012e-08
5.60074e-06
-5.35699e-08
7.07418e-08
6.24676e-06
3.96032e-07
1.33237e-07
5.40695e-06
1.28635e-06
1.83385e-07
6.67518e-06
1.41945e-06
1.84529e-07
7.8104e-06
1.03003e-07
6.80867e-06
1.03159e-06
-6.16569e-07
7.49515e-07
5.91135e-06
1.57331e-06
-2.85959e-07
4.79276e-07
5.11979e-06
-1.23175e-08
4.17901e-07
5.39888e-06
4.07124e-07
4.76299e-07
4.69982e-06
1.33075e-06
7.5701e-07
6.98204e-06
1.36319e-06
6.53513e-07
7.74072e-06
3.89709e-07
6.68373e-06
9.96346e-07
-9.2193e-07
1.39967e-06
7.43625e-06
1.64236e-06
-3.03758e-07
1.42571e-06
6.11534e-06
8.22876e-08
1.38207e-06
5.89346e-06
6.8857e-07
1.42371e-06
6.35023e-06
1.22506e-06
1.33901e-06
7.66795e-06
1.09462e-06
9.08992e-07
7.39765e-06
5.33419e-07
6.2562e-06
8.33837e-07
-8.96599e-07
7.80014e-06
1.18425e-06
1.33674e-06
-3.80018e-07
7.89901e-06
1.75769e-06
1.03268e-07
7.84089e-06
1.88459e-06
5.93723e-07
7.84825e-06
1.71399e-06
8.24474e-07
7.54067e-06
1.2925e-06
7.75529e-07
6.69399e-06
8.5559e-07
5.61822e-06
6.50258e-07
5.15325e-07
-5.79394e-07
-8.1331e-07
7.95654e-06
6.20641e-07
6.45772e-07
-3.37693e-07
-1.16326e-06
8.46559e-06
8.53272e-07
-2.68346e-08
-1.2439e-06
8.57019e-06
9.16055e-07
1.70041e-07
-1.01954e-06
8.24278e-06
7.80631e-07
2.20711e-07
-6.82309e-07
7.53e-06
5.59167e-07
1.98849e-07
-4.30042e-07
6.5728e-06
3.70715e-07
-2.67702e-07
5.5152e-06
1.63877e-07
2.29775e-07
-8.49516e-07
-7.8136e-07
8.89632e-06
9.36301e-07
-4.15992e-07
-1.0685e-06
9.35924e-06
9.37214e-08
-1.08662e-06
9.43893e-06
4.12753e-07
-8.62862e-07
9.22521e-06
4.23997e-07
-6.46194e-07
8.45186e-06
3.21404e-07
-3.92727e-07
7.39353e-06
-2.40526e-07
6.18187e-06
2.2158e-07
-9.71946e-07
-3.27409e-07
9.31809e-06
1.34616e-06
-3.46613e-07
-2.44568e-07
8.18432e-06
1.74444e-07
-1.50076e-07
7.92132e-06
6.94035e-07
-2.99032e-07
8.8985e-06
7.13799e-07
-2.91e-07
9.0953e-06
4.84718e-07
-1.9161e-07
7.99229e-06
-1.3101e-07
6.66047e-06
3.11652e-07
-9.32391e-07
2.51817e-07
9.03934e-06
1.59297e-06
-3.01175e-07
1.4902e-07
5.98622e-06
6.72368e-08
1.34504e-07
5.43837e-06
8.46771e-07
1.97508e-07
8.59547e-06
8.50119e-07
1.86074e-07
9.30231e-06
5.7203e-07
9.69749e-08
8.2573e-06
2.16541e-08
6.86356e-06
3.6628e-07
-1.02417e-06
7.42713e-07
9.31188e-06
1.42153e-06
-2.8985e-07
9.49416e-07
7.63708e-06
1.54775e-07
8.74183e-07
6.80843e-06
7.55619e-07
7.34713e-07
8.60521e-06
7.79839e-07
5.89399e-07
9.1974e-06
5.37996e-07
3.27023e-07
8.08097e-06
1.47883e-07
6.73833e-06
3.58003e-07
-9.02908e-07
8.25276e-07
8.99788e-06
1.0166e-06
-4.18307e-07
1.21334e-06
9.39716e-06
1.32382e-07
1.31883e-06
9.25583e-06
4.86968e-07
1.03676e-06
9.273e-06
5.20167e-07
6.76089e-07
8.60823e-06
4.05664e-07
3.91246e-07
7.55327e-06
1.94048e-07
6.31587e-06
3.00285e-07
-6.18958e-07
8.1442e-06
6.78499e-07
6.594e-07
-3.43664e-07
8.65007e-06
9.03908e-07
2.5063e-08
8.79277e-06
9.78176e-07
2.46621e-07
8.4237e-06
8.1967e-07
3.08595e-07
7.74692e-06
5.63212e-07
2.92473e-07
6.76636e-06
3.41663e-07
5.67455e-06
2.66427e-07
1.63962e-07
-8.00786e-08
2.80089e-07
8.00695e-06
-3.26311e-08
-2.16142e-07
-1.89285e-07
3.29048e-07
8.51176e-06
-3.088e-07
-2.80118e-07
3.39328e-07
8.59722e-06
-3.3666e-07
-3.62919e-07
3.60274e-07
8.27869e-06
-3.34028e-07
-3.81881e-07
2.96253e-07
7.53203e-06
-2.79261e-07
-3.35932e-07
1.96075e-07
6.53064e-06
-1.99389e-07
1.20838e-07
5.46027e-06
-2.52414e-07
-1.4926e-07
-1.02135e-07
2.04271e-07
8.88404e-06
-7.6651e-08
-2.37066e-07
2.00462e-07
9.59705e-06
-3.34171e-07
1.78021e-07
9.68733e-06
-4.84179e-07
2.58235e-07
9.2691e-06
-5.36621e-07
2.21151e-07
8.45585e-06
-4.7307e-07
1.34896e-07
7.39137e-06
6.62736e-08
6.13044e-06
-3.66921e-07
-1.41119e-07
4.92933e-08
9.6176e-06
-1.03046e-07
-2.73078e-07
-9.9691e-08
1.0322e-05
-2.78387e-07
-1.21263e-07
1.02902e-05
-5.25627e-07
6.6499e-08
9.68131e-06
-6.25452e-07
6.61534e-08
9.10973e-06
-5.5673e-07
2.74701e-08
8.01373e-06
-8.48977e-09
6.61406e-06
-4.35791e-07
-4.1117e-07
-1.71872e-09
1.00894e-05
-3.89481e-08
-2.62113e-07
1.07166e-07
9.71253e-06
-1.10779e-08
1.0059e-07
9.11907e-06
-4.58962e-07
-6.60874e-08
1.00247e-05
-6.20578e-07
-6.97935e-08
9.3304e-06
-5.70119e-07
-7.37813e-08
8.2899e-06
-8.30511e-08
6.81697e-06
-4.48535e-07
-1.93291e-07
-1.50506e-07
9.72703e-06
-8.84422e-08
-3.05688e-07
-5.26802e-08
1.01407e-05
-1.94346e-07
5.70093e-08
9.67688e-06
-4.89516e-07
-1.93293e-07
9.80021e-06
-6.0146e-07
-2.08633e-07
9.22632e-06
-5.33705e-07
-1.77709e-07
8.09167e-06
-1.54771e-07
6.68471e-06
-4.0832e-07
-5.70585e-08
-2.95276e-07
8.97859e-06
-8.68155e-08
-2.16555e-07
-3.54242e-07
9.49508e-06
-3.80365e-07
-3.6861e-07
9.52533e-06
-4.78467e-07
-3.71117e-07
9.38584e-06
-5.18782e-07
-3.26606e-07
8.56692e-06
-4.37843e-07
-2.50237e-07
7.54497e-06
-2.10119e-07
6.25121e-06
-3.17536e-07
-6.17194e-08
8.20026e-06
-3.08224e-08
-2.64306e-07
-1.84668e-07
8.70277e-06
-3.62028e-07
-2.78403e-07
8.85778e-06
-3.95314e-07
-3.56262e-07
8.42086e-06
-3.84438e-07
-3.5395e-07
7.74831e-06
-3.30093e-07
-2.84776e-07
6.71087e-06
-2.62808e-07
5.59983e-06
-1.79311e-07
-2.40701e-07
2.45031e-07
8.39824e-07
7.9394e-06
-4.00547e-07
-6.20895e-07
-6.64814e-08
1.09378e-06
8.36012e-06
-9.12918e-07
-3.94579e-07
1.16254e-06
8.41281e-06
-1.00821e-06
-6.21546e-07
1.06296e-06
8.16977e-06
-9.02627e-07
-6.50282e-07
8.20487e-07
7.42015e-06
-6.80053e-07
-5.46158e-07
4.97803e-07
6.37953e-06
-4.51178e-07
2.89775e-07
5.32452e-06
-3.9677e-07
-3.03764e-07
3.66938e-07
5.89739e-07
7.99858e-06
-6.35385e-07
-6.62176e-08
6.9715e-07
8.72601e-06
-5.26849e-07
7.2234e-07
8.57212e-06
-9.08857e-07
7.07283e-07
8.2202e-06
-1.02753e-06
6.57374e-07
8.13407e-06
-8.20544e-07
4.07127e-07
7.27472e-06
2.07225e-07
5.97911e-06
-5.87241e-07
3.42825e-07
1.8738e-07
8.07165e-06
-7.64254e-07
-8.33497e-08
7.56614e-08
7.30148e-06
-4.93874e-07
5.25037e-08
7.6592e-06
-9.74777e-07
1.82399e-07
7.85165e-06
-1.27678e-06
2.69411e-07
8.13685e-06
-1.0458e-06
1.49467e-07
7.90919e-06
5.0203e-08
6.45876e-06
-7.3346e-07
1.37796e-07
-1.15335e-07
6.47621e-06
-7.78513e-07
-7.15847e-08
-2.45812e-08
9.86287e-06
-2.39098e-07
-7.4604e-08
1.00611e-05
-8.59788e-07
-1.53469e-07
5.20016e-06
-1.36874e-06
-2.42648e-07
8.24349e-06
-1.13537e-06
-1.82191e-07
8.18491e-06
-1.4208e-07
6.65978e-06
-7.85894e-07
3.08537e-07
-5.49188e-07
7.82385e-06
-7.61126e-07
-1.19924e-07
-6.11531e-07
7.76788e-06
-4.44243e-07
-5.69565e-07
9.39568e-06
-9.4285e-07
-6.81555e-07
7.723e-06
-1.27942e-06
-6.45428e-07
8.17309e-06
-1.04492e-06
-4.62903e-07
7.97133e-06
-3.07414e-07
6.52225e-06
-7.17021e-07
3.40761e-07
-8.46775e-07
7.9829e-06
-6.39294e-07
-7.35467e-08
-1.07816e-06
7.31241e-06
-4.63377e-07
-1.1567e-06
5.97576e-06
-8.54104e-07
-1.05433e-06
8.39546e-06
-1.03652e-06
-8.66944e-07
7.94748e-06
-8.05844e-07
-5.75616e-07
7.427e-06
-3.96181e-07
6.08404e-06
-5.4971e-07
2.76902e-07
8.07566e-06
-4.17396e-07
-7.01605e-07
-4.85061e-08
8.42475e-06
-1.0177e-06
-3.99858e-07
8.66019e-06
-1.14079e-06
-6.32201e-07
8.09105e-06
-1.00867e-06
-6.47622e-07
7.64062e-06
-7.69655e-07
-5.13227e-07
6.54102e-06
-5.39821e-07
5.43986e-06
-3.36595e-07
-4.12831e-07
1.67914e-07
3.55902e-07
7.70403e-06
-2.18738e-07
-2.3754e-07
-4.03663e-08
5.29055e-07
7.74447e-06
-4.81319e-07
-2.50586e-07
5.34702e-07
7.68018e-06
-5.58297e-07
-3.50464e-07
4.73482e-07
7.70651e-06
-4.48144e-07
-3.22397e-07
3.9342e-07
7.27873e-06
-3.05014e-07
-2.32001e-07
2.2076e-07
6.25329e-06
-1.85023e-07
1.11184e-07
5.24088e-06
-1.3825e-07
-1.21653e-07
1.62054e-07
1.39308e-07
6.29118e-06
-2.96821e-07
-6.01468e-08
1.65244e-07
5.1851e-06
-2.3858e-07
1.38823e-07
5.09569e-06
-4.16057e-07
1.3642e-07
5.38307e-06
-5.58094e-07
2.53652e-07
7.21926e-06
-3.90736e-07
1.86185e-07
7.1378e-06
7.22755e-08
5.86627e-06
-2.39588e-07
2.80065e-08
-2.23127e-08
4.90745e-06
-2.30843e-07
-9.49451e-08
2.78847e-08
5.25719e-06
-1.04279e-07
-5.0423e-08
5.27456e-06
-2.43681e-07
-2.43369e-08
5.01446e-06
-6.05872e-07
8.30501e-08
5.56582e-06
-5.27824e-07
6.25752e-08
7.5353e-06
-3.55449e-09
6.32761e-06
-3.20185e-07
4.00829e-08
-8.08632e-09
5.08513e-06
-2.58071e-07
-2.32749e-07
-1.26421e-07
1.001e-05
-1.37191e-07
-1.73448e-07
1.02476e-05
-1.97963e-07
-9.65062e-09
5.15155e-06
-6.39897e-07
-9.1177e-08
4.84388e-06
-5.99807e-07
-1.27033e-07
7.60664e-06
-1.09331e-07
6.51892e-06
-3.52861e-07
5.37106e-08
-1.64012e-07
4.90466e-06
-2.23823e-07
-9.10543e-08
-2.51872e-07
5.43066e-06
-1.89359e-07
-3.70878e-07
5.63617e-06
-2.55124e-07
-1.7173e-07
5.04606e-06
-6.0923e-07
-2.86079e-07
5.32076e-06
-5.29725e-07
-2.81836e-07
7.53855e-06
-1.94804e-07
6.38056e-06
-3.02389e-07
9.17484e-08
-4.03083e-07
5.82268e-06
-2.7149e-07
-4.79237e-08
-4.71916e-07
4.89595e-06
-9.84276e-08
-5.33956e-07
4.51623e-06
-3.34412e-07
-4.77868e-07
5.07089e-06
-5.12838e-07
-4.72537e-07
6.71473e-06
-3.65235e-07
-3.20767e-07
7.2599e-06
-2.31783e-07
5.95024e-06
-1.94379e-07
1.92319e-07
7.68199e-06
-2.31765e-07
-3.30732e-07
2.30684e-09
7.36994e-06
-5.89398e-07
-2.37986e-07
7.36742e-06
-7.25877e-07
-3.41994e-07
7.33392e-06
-5.75792e-07
-3.07824e-07
7.39044e-06
-4.08873e-07
-1.87061e-07
6.38349e-06
-2.83799e-07
5.32728e-06
-6.86328e-08
-2.37691e-07
-1.0783e-07
-3.21106e-07
7.51428e-06
1.98447e-07
4.11918e-07
-4.4314e-08
-1.62741e-07
7.40982e-06
3.91364e-07
-8.19154e-09
-1.20633e-07
7.32157e-06
3.62313e-07
1.24359e-07
-2.61138e-07
7.43756e-06
3.93748e-07
2.2025e-07
-3.35728e-07
7.1634e-06
3.41004e-07
2.46921e-07
-2.52368e-07
6.22776e-06
2.51284e-07
-1.80493e-07
5.26641e-06
2.35722e-07
1.66582e-07
-1.03559e-07
-9.60119e-08
5.94093e-06
3.14488e-07
-6.8644e-08
2.40758e-08
4.47393e-06
-2.09208e-08
1.47031e-09
4.57345e-06
8.36728e-08
-7.99783e-08
4.90036e-06
2.67339e-07
-1.74453e-07
6.87695e-06
2.93571e-07
-1.87691e-07
7.03685e-06
-1.53381e-07
5.86134e-06
2.71389e-07
-7.96137e-08
-4.08049e-08
4.5245e-06
2.14398e-07
-1.00857e-07
7.05348e-08
5.1277e-06
-8.09929e-08
-1.07262e-08
5.20679e-06
-4.62656e-09
-2.41753e-08
4.81603e-06
2.03619e-07
-5.70375e-08
5.11059e-06
3.21343e-07
-8.68329e-08
7.31211e-06
-1.00627e-07
6.29329e-06
3.03343e-07
-5.54156e-10
-1.44692e-08
4.90907e-06
-9.981e-09
-2.24863e-07
-1.75908e-07
8.21022e-06
-1.28039e-07
-2.49877e-07
1.05712e-05
-4.66362e-08
-3.07155e-08
5.03701e-06
1.2337e-07
1.23186e-08
4.34929e-06
3.18435e-07
-2.35136e-08
7.275e-06
-4.82865e-08
6.46771e-06
3.1736e-07
-4.47203e-08
2.16205e-08
4.52292e-06
1.80952e-07
-5.82556e-08
-8.42195e-08
5.23962e-06
-1.16546e-07
-1.66828e-07
5.36662e-06
-3.97997e-08
-2.01288e-09
4.8734e-06
1.83942e-07
6.62517e-08
4.84939e-06
3.40094e-07
6.02029e-08
7.28378e-06
5.51983e-09
6.33236e-06
3.34454e-07
-6.25729e-08
1.76689e-07
5.39628e-06
2.78112e-07
-4.50242e-08
4.11233e-08
4.5268e-06
-2.51329e-08
-1.00822e-07
4.63504e-06
5.7564e-08
1.19564e-07
4.34139e-06
2.90264e-07
2.07389e-07
6.37534e-06
3.46111e-07
1.37017e-07
7.11277e-06
4.56342e-08
5.92046e-06
3.35687e-07
-5.23296e-08
7.4232e-06
1.7842e-07
2.93466e-07
1.68056e-08
6.9431e-06
2.57164e-07
-3.42111e-08
6.80837e-06
1.46837e-07
1.21475e-07
7.01859e-06
2.71732e-07
2.6089e-07
7.19526e-06
2.4392e-07
3.16152e-07
6.31602e-06
1.4916e-07
5.32167e-06
3.22386e-07
4.50051e-08
-2.59323e-07
-7.5624e-07
7.48527e-06
4.15192e-07
7.54439e-07
-3.46149e-08
-6.41099e-07
7.5253e-06
8.91486e-07
1.71137e-07
-6.03154e-07
7.4677e-06
8.99336e-07
4.00284e-07
-7.08882e-07
7.51244e-06
8.29188e-07
4.93692e-07
-6.98367e-07
7.13639e-06
6.45683e-07
4.70733e-07
-4.77202e-07
6.27723e-06
4.50393e-07
-3.18126e-07
5.35211e-06
4.02934e-07
3.00319e-07
-2.72333e-07
-3.27413e-07
6.44693e-06
6.4285e-07
-3.91797e-08
-1.53262e-07
5.10068e-06
1.22024e-07
-1.10042e-07
4.94723e-06
4.20475e-07
-2.22914e-07
5.55137e-06
6.94261e-07
-4.22273e-07
7.08788e-06
6.19272e-07
-3.79977e-07
7.02103e-06
-2.65787e-07
5.92566e-06
5.02953e-07
-1.53083e-07
-8.57132e-08
4.60541e-06
5.52673e-07
-2.97596e-08
-1.00612e-08
4.81908e-06
7.18203e-08
-4.6663e-08
5.02249e-06
2.26106e-07
-8.71458e-08
4.48248e-06
7.04066e-07
-1.15947e-07
5.79496e-06
7.45683e-07
-1.68831e-07
7.37522e-06
-1.54798e-07
6.33089e-06
5.968e-07
-4.18989e-08
2.88593e-08
4.72694e-06
3.78469e-07
5.95542e-08
-4.42973e-08
5.6018e-06
9.80002e-09
-1.2547e-07
6.89956e-06
9.84231e-08
1.61245e-08
4.81067e-06
5.84672e-07
2.87036e-08
5.32644e-06
7.83199e-07
1.34561e-08
7.36404e-06
-3.04017e-08
6.48823e-06
6.37825e-07
-1.29362e-07
2.19482e-07
4.57195e-06
5.34641e-07
-1.83318e-08
8.9872e-08
4.90043e-06
3.41177e-08
2.9323e-08
5.09523e-06
2.01288e-07
1.24374e-07
4.55413e-06
6.87357e-07
2.71224e-07
5.56783e-06
7.85228e-07
2.18777e-07
7.36005e-06
9.18058e-08
6.35612e-06
6.38925e-07
-2.32619e-07
5.69134e-07
5.93524e-06
6.35071e-07
-3.09381e-08
4.73482e-07
4.5497e-06
8.23245e-08
3.54072e-07
4.45754e-06
3.78041e-07
5.00244e-07
4.82148e-06
7.57409e-07
5.54679e-07
6.74551e-06
6.99417e-07
3.45357e-07
7.07032e-06
1.66456e-07
5.96107e-06
5.83827e-07
-2.34418e-07
7.40542e-06
4.28853e-07
6.46399e-07
-5.88226e-09
7.14995e-06
7.97887e-07
1.73788e-07
6.97526e-06
7.86947e-07
4.38002e-07
7.21411e-06
7.46162e-07
5.75428e-07
7.1438e-06
5.56348e-07
5.65928e-07
6.32796e-06
3.42595e-07
5.37879e-06
5.0475e-07
1.70392e-07
-2.22896e-07
-7.11401e-07
7.60117e-06
3.13287e-07
6.23813e-07
-2.0406e-08
-8.53852e-07
8.00191e-06
7.69115e-07
1.97268e-07
-8.41724e-07
8.04476e-06
7.85896e-07
3.60369e-07
-7.88721e-07
7.8265e-06
6.81627e-07
3.94314e-07
-5.68065e-07
7.19257e-06
4.98573e-07
3.62401e-07
-3.79941e-07
6.34589e-06
3.42796e-07
-2.55114e-07
5.42967e-06
3.08403e-07
2.3128e-07
-3.23266e-07
-4.81175e-07
7.76057e-06
5.32432e-07
-5.00483e-08
-4.46139e-07
7.3971e-06
1.95586e-07
-2.73519e-07
7.20971e-06
4.63875e-07
-4.1242e-07
7.4694e-06
5.64565e-07
-4.46861e-07
7.71408e-06
4.79657e-07
-3.41927e-07
7.07537e-06
-2.3238e-07
5.99976e-06
3.82828e-07
-3.0723e-07
-1.56376e-07
6.59824e-06
6.91845e-07
-1.62882e-08
-1.29148e-07
5.10444e-06
1.46332e-07
-1.46877e-07
4.63812e-06
4.39964e-07
-1.07699e-07
4.75171e-06
7.61828e-07
-1.79527e-07
7.57624e-06
6.13566e-07
-1.8609e-07
7.59194e-06
-1.53918e-07
6.39719e-06
4.68073e-07
-2.10357e-07
6.37425e-08
5.88064e-06
6.66903e-07
2.93183e-08
8.40454e-08
5.30638e-06
2.63854e-07
5.58241e-08
5.62303e-06
3.10902e-07
5.20915e-08
4.55346e-06
8.06006e-07
5.42664e-08
7.54861e-06
6.76681e-07
-1.87389e-10
7.72745e-06
-5.19249e-08
6.54711e-06
5.15296e-07
-2.18594e-07
3.15825e-07
6.25518e-06
6.85867e-07
-1.05925e-08
2.26326e-07
4.68962e-06
1.71054e-07
2.2033e-07
4.9857e-06
4.44198e-07
2.82409e-07
4.61848e-06
7.97709e-07
2.87838e-07
7.39827e-06
6.62119e-07
1.67489e-07
7.60541e-06
4.21504e-08
6.41016e-06
5.13454e-07
-3.06339e-07
5.60577e-07
7.50054e-06
5.9287e-07
-3.11087e-08
6.54236e-07
6.38963e-06
1.92425e-07
6.38905e-07
6.24385e-06
5.04208e-07
6.32279e-07
6.9309e-06
6.57822e-07
4.38357e-07
7.59925e-06
5.67366e-07
2.36343e-07
7.10815e-06
9.10795e-08
6.01374e-06
4.65327e-07
-2.357e-07
7.60214e-06
3.5556e-07
5.24176e-07
-1.09676e-09
7.88219e-06
6.99292e-07
2.35932e-07
7.8535e-06
7.23609e-07
4.38446e-07
7.76483e-06
6.12902e-07
4.91442e-07
7.22169e-06
4.05142e-07
4.63896e-07
6.36538e-06
2.2512e-07
5.43003e-06
4.11455e-07
9.21011e-08
-5.06169e-09
-1.97663e-07
7.62401e-06
1.26541e-09
1.94464e-07
2.56553e-08
-2.50075e-07
8.08235e-06
2.02726e-07
6.70787e-08
-2.58553e-07
8.15978e-06
1.92389e-07
9.24942e-08
-2.03982e-07
7.90305e-06
1.4641e-07
8.30504e-08
-1.11418e-07
7.22868e-06
8.97255e-08
7.90125e-08
-8.79282e-08
6.37096e-06
6.63507e-08
-7.60586e-08
5.4509e-06
8.18835e-08
5.19793e-08
-6.11314e-08
-1.82056e-07
7.95927e-06
4.65518e-08
-2.42255e-08
-2.57372e-07
7.75167e-06
5.02037e-08
-2.54379e-07
7.8106e-06
8.72751e-08
-2.13412e-07
7.77801e-06
7.87438e-08
-1.38243e-07
7.81312e-06
7.45988e-08
-1.20949e-07
7.11319e-06
-1.01689e-07
6.02579e-06
7.43773e-08
-1.57915e-07
-9.71578e-08
7.22594e-06
1.50071e-07
-4.88174e-08
-8.21415e-08
6.45641e-06
3.82106e-08
-5.49306e-09
6.34817e-06
1.5839e-07
-7.41426e-08
6.20389e-06
1.60531e-07
-1.20764e-07
7.8347e-06
1.12716e-07
-1.15293e-07
7.64757e-06
-1.10854e-07
6.4252e-06
9.35183e-08
-1.55645e-07
-3.22145e-08
6.72346e-06
2.01546e-07
2.52311e-08
-4.64183e-09
7.05726e-06
5.1158e-08
1.54249e-08
5.14744e-06
2.26197e-07
8.48073e-09
5.35947e-06
2.30019e-07
-2.9385e-08
7.99564e-06
1.54614e-07
-8.20272e-08
7.79116e-06
-1.03027e-07
6.57206e-06
1.21677e-07
-1.41749e-07
3.0986e-08
6.96792e-06
1.92312e-07
-2.78722e-08
9.18191e-08
5.56783e-06
6.32473e-08
1.46845e-07
5.55103e-06
1.92336e-07
1.02483e-07
5.78762e-06
2.15284e-07
-1.38862e-09
7.64565e-06
1.61459e-07
-5.91536e-08
7.64736e-06
-9.52803e-08
6.42608e-06
1.37636e-07
-8.35527e-08
5.88627e-08
7.8368e-06
1.03389e-07
-1.63904e-08
1.32075e-07
7.08583e-06
8.77469e-08
1.58317e-07
7.18027e-06
1.58626e-07
9.87787e-08
7.41214e-06
1.62915e-07
-1.84778e-08
7.69352e-06
1.54026e-07
-6.5504e-08
7.12218e-06
-9.6044e-08
6.01922e-06
1.49366e-07
-2.74895e-08
7.60701e-06
4.32702e-08
8.11118e-08
3.32019e-08
7.99377e-06
1.09999e-07
1.1218e-07
8.03962e-06
1.1233e-07
1.65075e-07
7.83439e-06
5.85877e-08
1.68305e-07
7.22784e-06
-1.98437e-08
1.70317e-07
6.35988e-06
-6.36813e-08
5.42493e-06
1.74523e-07
-9.49658e-08
2.21839e-07
2.38715e-07
7.57827e-06
-2.69664e-07
-1.45159e-07
9.82048e-08
3.51551e-07
8.07811e-06
-2.78139e-07
-3.57414e-08
3.86496e-07
8.1778e-06
-3.32741e-07
-1.31243e-07
3.69419e-07
7.91452e-06
-3.17135e-07
-1.69223e-07
2.98882e-07
7.20863e-06
-2.55091e-07
-1.45331e-07
1.70983e-07
6.33787e-06
-1.63987e-07
7.69e-08
5.41739e-06
-9.33886e-08
-9.513e-08
2.74538e-07
1.55214e-07
7.91883e-06
-3.93623e-07
7.43079e-08
1.60005e-07
7.37797e-06
-1.16806e-07
1.53659e-07
7.67201e-06
-2.75256e-07
1.68815e-07
7.56069e-06
-3.26848e-07
2.07029e-07
7.78478e-06
-2.59738e-07
9.6887e-08
7.08812e-06
1.94094e-08
5.99436e-06
-1.70793e-07
1.84559e-07
-1.30202e-08
7.0844e-06
-4.11987e-07
2.81289e-08
-1.0496e-07
5.63717e-06
-1.29337e-07
-1.79887e-08
6.59448e-06
-2.39326e-07
1.2455e-09
6.18295e-06
-3.99574e-07
1.62863e-09
7.5865e-06
-3.275e-07
-3.61957e-08
7.65305e-06
-6.48935e-08
6.39767e-06
-2.15602e-07
1.07408e-07
-1.44165e-07
6.35481e-06
-3.64329e-07
9.27392e-08
-8.46622e-08
7.26487e-06
-3.60192e-08
-2.57395e-08
5.36791e-06
-1.78718e-07
-9.21218e-08
5.56408e-06
-3.80084e-07
-1.70359e-07
7.9797e-06
-3.28058e-07
-1.70567e-07
7.79596e-06
-1.4969e-07
6.54361e-06
-2.14635e-07
1.16562e-07
-2.79113e-07
6.88773e-06
-3.46776e-07
2.71065e-08
-1.94864e-07
5.21442e-06
-6.21949e-08
-1.52385e-07
5.30806e-06
-1.67438e-07
-2.19127e-07
5.80361e-06
-3.34982e-07
-3.38352e-07
7.38542e-06
-2.80768e-07
-2.81245e-07
7.62356e-06
-2.17198e-07
6.38851e-06
-1.75486e-07
2.17984e-07
-3.68392e-07
7.78232e-06
-3.32811e-07
6.26411e-08
-4.2523e-07
6.98477e-06
-6.66313e-08
-4.22535e-07
7.09403e-06
-1.92575e-07
-4.46236e-07
7.32225e-06
-2.49257e-07
-4.29884e-07
7.61004e-06
-1.89525e-07
-3.31776e-07
7.0615e-06
-2.51391e-07
5.96897e-06
-1.04768e-07
1.97638e-07
7.51388e-06
-2.28649e-07
-2.64376e-07
9.99006e-08
7.94102e-06
-3.81249e-07
7.38727e-09
8.00375e-06
-4.2457e-07
-6.57036e-08
7.80102e-06
-4.2082e-07
-9.54272e-08
7.15265e-06
-3.77851e-07
-6.53547e-08
6.29617e-06
-3.02316e-07
5.36572e-06
-1.24928e-08
-2.44782e-07
2.76939e-07
2.49402e-07
7.46449e-06
-3.06073e-07
-1.56055e-07
1.41884e-07
3.82827e-07
7.84099e-06
-3.14493e-07
-1.14999e-08
4.30399e-07
7.9512e-06
-3.86927e-07
-1.26659e-07
4.17209e-07
7.76704e-06
-3.67022e-07
-1.76544e-07
3.47104e-07
7.10522e-06
-2.93565e-07
-1.5748e-07
2.12407e-07
6.29254e-06
-1.92335e-07
9.74683e-08
5.37832e-06
-1.04396e-07
-1.1148e-07
3.17064e-07
1.53604e-07
7.37877e-06
-4.3913e-07
1.19522e-07
1.30716e-07
5.75679e-06
-7.34765e-08
1.42768e-07
6.00231e-06
-2.58326e-07
1.75448e-07
6.36582e-06
-3.36482e-07
2.49203e-07
7.47214e-06
-2.83019e-07
1.42749e-07
6.95316e-06
4.11491e-08
5.95334e-06
-1.85966e-07
1.45361e-07
-1.12376e-08
5.58994e-06
-4.49684e-07
1.02821e-07
6.93268e-09
3.37639e-06
-4.96288e-08
-3.92141e-08
4.31871e-06
-2.02927e-07
6.30621e-09
4.92983e-06
-4.17919e-07
4.2264e-08
6.34335e-06
-3.71953e-07
-1.05672e-08
7.44895e-06
-5.03968e-08
6.35714e-06
-2.39614e-07
1.45781e-07
-1.30914e-07
4.37991e-06
-4.16325e-07
9.78125e-08
-1.56668e-07
7.45437e-06
-1.87543e-08
-3.65463e-08
6.1581e-06
-1.95e-07
-1.01398e-07
4.3537e-06
-4.32518e-07
-1.98318e-07
6.61059e-06
-3.95554e-07
-1.8717e-07
7.5545e-06
-1.53557e-07
6.50037e-06
-2.4906e-07
1.10234e-07
-2.75311e-07
5.60906e-06
-3.91798e-07
2.72154e-08
-1.82845e-07
3.47414e-06
-1.89977e-08
-1.64929e-07
3.42738e-06
-1.52874e-07
-2.41277e-07
4.79747e-06
-3.67617e-07
-3.70641e-07
6.19747e-06
-3.37474e-07
-3.25414e-07
7.34605e-06
-2.32587e-07
6.33708e-06
-2.06902e-07
2.67451e-07
-3.90051e-07
7.20338e-06
-4.05033e-07
1.23358e-07
-4.6029e-07
5.69708e-06
-4.28308e-08
-4.77679e-07
5.9632e-06
-1.91805e-07
-5.02683e-07
6.27904e-06
-2.81627e-07
-4.85166e-07
7.08385e-06
-2.28715e-07
-3.7772e-07
6.88707e-06
-2.68434e-07
5.90707e-06
-1.30884e-07
2.67005e-07
7.32562e-06
-2.78851e-07
-2.8425e-07
1.53111e-07
7.55861e-06
-4.33227e-07
2.68941e-08
7.6066e-06
-5.03097e-07
-7.78394e-08
7.46164e-06
-4.95792e-07
-1.19841e-07
6.95655e-06
-4.31254e-07
-9.10178e-08
6.2153e-06
-3.35234e-07
5.29882e-06
-3.47453e-08
-2.57941e-07
1.82996e-07
-2.86638e-08
7.32608e-06
-1.67306e-07
5.28341e-08
1.48807e-07
4.07481e-08
7.48623e-06
-2.14229e-08
8.41114e-08
8.60965e-08
7.53112e-06
-8.32504e-08
2.30385e-08
9.79345e-08
7.39598e-06
-1.07254e-07
-2.18629e-08
1.17448e-07
6.931e-06
-1.06928e-07
-2.95431e-08
8.00272e-08
6.28263e-06
-7.35393e-08
1.83185e-08
5.3739e-06
-8.73868e-09
-3.47612e-08
1.45795e-07
-3.03611e-08
6.87366e-06
-1.97216e-07
1.14226e-07
1.20621e-08
5.16231e-06
4.44122e-08
2.38443e-08
4.92237e-06
-1.11833e-08
2.91678e-08
5.79895e-06
-7.44871e-08
6.22976e-08
6.93071e-06
-8.47004e-08
4.26931e-08
6.74797e-06
-1.82686e-08
5.95032e-06
-4.54036e-08
6.69307e-08
-2.86862e-08
5.03756e-06
-1.5797e-07
3.99597e-08
7.32974e-09
3.43157e-06
8.91237e-08
-4.52105e-08
3.52164e-06
-1.57416e-08
-2.69822e-08
3.38438e-06
-7.22678e-08
-1.54632e-09
5.82362e-06
-1.09415e-07
-3.57551e-08
6.94654e-06
-6.71399e-08
6.35631e-06
-5.93728e-08
7.28047e-08
-6.84638e-08
4.08178e-06
-1.52994e-07
1.50384e-08
-6.55264e-08
3.82531e-06
4.176e-08
-3.28007e-08
6.27421e-06
-3.28412e-08
-4.01318e-08
3.75316e-06
-8.54187e-08
-1.20378e-07
5.80597e-06
-1.18944e-07
-1.4725e-07
6.95053e-06
-1.25077e-07
6.49727e-06
-5.81593e-08
3.71291e-08
-9.36521e-08
5.13647e-06
-1.3551e-07
2.40806e-08
-5.167e-08
3.39784e-06
8.77518e-08
-6.71158e-08
3.47805e-06
-1.07397e-08
-9.00893e-08
3.46925e-06
-5.78947e-08
-1.79121e-07
5.65742e-06
-8.2052e-08
-2.1662e-07
6.82036e-06
-1.6374e-07
6.32428e-06
-3.06996e-08
1.35409e-07
-1.3106e-07
6.76479e-06
-1.65453e-07
1.18705e-07
-1.47927e-07
5.08775e-06
7.22047e-08
-1.71605e-07
5.2567e-06
1.35662e-08
-2.03574e-07
5.68148e-06
-4.52632e-08
-2.64153e-07
6.24865e-06
-3.64566e-08
-2.4352e-07
6.70761e-06
-1.80996e-07
5.88204e-06
5.65116e-09
1.79431e-07
7.14775e-06
-1.50789e-07
-8.29972e-08
1.59055e-07
7.13243e-06
-1.46875e-07
1.1251e-07
6.98541e-06
-2.09541e-07
6.68191e-08
6.92229e-06
-2.37886e-07
3.30922e-08
6.76631e-06
-2.43222e-07
3.46157e-08
6.16725e-06
-2.1101e-07
5.26619e-06
5.78181e-08
-1.7188e-07
1.22373e-07
-1.71094e-07
7.18083e-06
-8.27624e-08
1.57906e-07
1.41825e-07
-1.53541e-07
7.15508e-06
1.47435e-07
1.20801e-07
-8.34875e-08
7.08647e-06
9.47282e-08
9.15619e-08
-6.21975e-08
6.91226e-06
5.46237e-08
6.17914e-08
-3.50928e-09
6.81339e-06
1.56976e-08
4.88119e-08
-1.37554e-08
6.28323e-06
1.31643e-08
-4.123e-08
5.38548e-06
5.49374e-08
2.36148e-08
8.01446e-08
-1.44459e-07
6.54895e-06
-6.89689e-08
1.18442e-07
-9.79587e-08
5.2301e-06
9.70732e-08
-1.17903e-09
4.82184e-06
1.10889e-07
-5.15223e-08
5.64641e-06
5.18317e-08
-3.43772e-08
6.05912e-06
3.97823e-08
-2.87724e-08
6.63472e-06
-6.28203e-08
5.9621e-06
4.95387e-08
2.90663e-08
-5.5832e-08
5.07082e-06
-2.29105e-08
6.92669e-08
-1.07455e-07
3.48138e-06
9.39799e-08
-5.62156e-08
3.62055e-06
1.06811e-07
-3.09817e-08
3.33264e-06
1.04098e-07
-3.79832e-08
5.6293e-06
6.07652e-08
-5.25795e-08
6.38524e-06
-7.91819e-08
6.36842e-06
6.40138e-08
5.53413e-08
-2.93977e-08
4.1877e-06
-3.1224e-08
7.45999e-08
9.46865e-09
3.7053e-06
8.39425e-08
-9.91698e-09
6.36468e-06
3.46533e-08
-3.61424e-08
3.77906e-06
9.80157e-08
-8.16323e-08
5.7447e-06
6.42956e-08
-1.04325e-07
6.1424e-06
-1.01113e-07
6.49808e-06
7.60737e-08
2.40032e-08
-3.79606e-09
5.12128e-06
-8.82871e-09
6.35788e-08
-1.94417e-09
3.47078e-06
8.34622e-08
-6.37891e-08
3.59705e-06
1.02112e-07
-2.67034e-08
3.48505e-06
1.12297e-07
-9.20598e-08
5.39625e-06
8.72895e-08
-1.2677e-07
6.44738e-06
-1.07579e-07
6.32554e-06
9.23122e-08
8.0636e-08
1.56929e-09
6.63324e-06
-4.47105e-08
1.27632e-07
-4.60849e-09
5.07728e-06
1.14308e-07
-4.45849e-08
5.07542e-06
1.05589e-07
-6.45953e-08
5.34529e-06
7.98225e-08
-1.33667e-07
5.60427e-06
8.99634e-08
-1.39744e-07
6.62775e-06
-1.09782e-07
5.87315e-06
1.00901e-07
1.17724e-07
7.01682e-06
-7.07423e-08
2.63674e-08
1.46299e-07
6.95594e-06
2.27781e-08
1.43484e-07
6.69679e-06
-2.69131e-08
1.4045e-07
6.6115e-06
-6.6142e-08
1.20275e-07
6.65036e-06
-1.11345e-07
1.13707e-07
6.13209e-06
-1.14397e-07
5.25091e-06
1.20769e-07
-1.01588e-07
8.20329e-08
-1.8197e-07
7.05328e-06
-4.13903e-08
1.79092e-07
1.15626e-07
-1.96453e-07
6.97852e-06
2.05436e-07
1.17232e-07
-1.33772e-07
6.85264e-06
1.74059e-07
1.08548e-07
-1.02225e-07
6.77001e-06
1.27389e-07
8.86138e-08
-3.8852e-08
6.80984e-06
7.39213e-08
8.06667e-08
-6.1127e-08
6.27355e-06
5.91163e-08
-7.37632e-08
5.40016e-06
8.48341e-08
5.51181e-08
5.88932e-08
-1.5046e-07
6.40186e-06
-1.96276e-08
1.08324e-07
-1.0075e-07
5.39412e-06
1.11733e-07
-2.91007e-08
4.76236e-06
1.05683e-07
-4.73105e-08
5.26826e-06
7.1129e-08
-2.2044e-08
5.71011e-06
9.00976e-08
-6.62943e-08
6.6358e-06
-8.76077e-08
5.97213e-06
9.42154e-08
3.58472e-08
-6.07609e-08
5.42404e-06
2.14913e-08
7.94548e-08
-7.31842e-08
3.49667e-06
1.04791e-07
-3.93834e-08
3.66966e-06
1.28678e-07
-4.12788e-08
3.36721e-06
1.30153e-07
-3.63905e-08
5.01714e-06
1.31204e-07
-5.70091e-08
6.3205e-06
-8.53667e-08
6.36992e-06
1.22875e-07
1.02896e-07
-1.36318e-08
4.76862e-06
-3.00695e-10
1.22373e-07
8.63379e-09
3.65415e-06
1.37249e-07
-2.2412e-08
5.65557e-06
1.62653e-07
-1.82593e-08
4.28423e-06
1.32473e-07
-7.21762e-08
5.48295e-06
1.39551e-07
-7.24842e-08
6.00049e-06
-8.3374e-08
6.48732e-06
1.41236e-07
1.86417e-08
2.7622e-08
5.29249e-06
4.58936e-08
6.81989e-08
3.50454e-08
3.46421e-06
1.08474e-07
-2.36569e-08
3.63943e-06
1.50471e-07
-1.14916e-08
3.65862e-06
1.486e-07
-7.10391e-08
4.73676e-06
1.65044e-07
-7.30862e-08
6.42779e-06
-7.0197e-08
6.32112e-06
1.53289e-07
5.81953e-08
3.71804e-08
6.55226e-06
5.13551e-09
1.09952e-07
5.04585e-08
5.05871e-06
1.12185e-07
-4.3933e-09
4.72822e-06
9.90513e-08
-2.5577e-08
4.63797e-06
1.13316e-07
-8.07385e-08
5.6051e-06
1.42439e-07
-7.68506e-08
6.58818e-06
-6.4315e-08
5.86309e-06
1.46539e-07
7.94237e-08
6.8968e-06
-3.30635e-08
5.87407e-08
1.21738e-07
6.88477e-06
8.09261e-08
1.36911e-07
6.64754e-06
5.13356e-08
1.48266e-07
6.55577e-06
8.90874e-09
1.3947e-07
6.5617e-06
-4.49125e-08
1.42013e-07
6.09225e-06
-5.66951e-08
5.23928e-06
1.4758e-07
-5.80467e-08
7.87029e-09
-2.28092e-07
6.99044e-06
2.25433e-08
2.19871e-07
6.96609e-08
-2.9896e-07
6.96917e-06
2.89213e-07
1.13087e-07
-2.4644e-07
6.85494e-06
2.83959e-07
1.28945e-07
-1.92563e-07
6.78868e-06
2.33276e-07
1.30498e-07
-1.42974e-07
6.84347e-06
1.55113e-07
1.17105e-07
-1.22762e-07
6.27029e-06
1.07635e-07
-1.02425e-07
5.43136e-06
1.10556e-07
7.80237e-08
-2.05898e-09
-1.71272e-07
6.38412e-06
8.37706e-08
7.08577e-08
-1.02855e-07
5.6435e-06
1.14758e-07
-7.47574e-08
4.81182e-06
1.07891e-07
-5.30081e-08
5.00465e-06
1.42383e-07
-4.72316e-08
5.82376e-06
1.51623e-07
-1.11467e-07
6.66544e-06
-1.11262e-07
5.99899e-06
1.33416e-07
-2.51255e-10
-7.39827e-08
5.87006e-06
1.55188e-07
8.42713e-08
-3.64353e-08
3.40331e-06
1.29323e-07
-5.70038e-08
3.59723e-06
1.25996e-07
-2.86344e-08
3.40781e-06
1.80366e-07
-3.52744e-08
4.36292e-06
2.1811e-07
-7.17604e-08
6.3692e-06
-9.45891e-08
6.37361e-06
1.74508e-07
1.41205e-08
3.56485e-09
5.77286e-06
1.53126e-07
3.37e-08
1.15166e-08
3.6381e-06
1.91313e-07
-1.40275e-09
3.9889e-06
2.41991e-07
-3.14701e-08
4.5604e-06
1.80571e-07
-4.13176e-08
4.2206e-06
2.38476e-07
-5.12501e-08
6.06631e-06
-7.06212e-08
6.48554e-06
1.993e-07
-1.3364e-08
6.20016e-08
5.53794e-06
1.65873e-07
7.54314e-08
7.41694e-08
3.51638e-06
1.02113e-07
2.04053e-08
3.56941e-06
1.88637e-07
-1.30698e-09