/*--------------------------------*- C++ -*----------------------------------*\
| =========                 |                                                 |
| \\      /  F ield         | OpenFOAM: The Open Source CFD Toolbox           |
|  \\    /   O peration     | Version:  plus.master.MPPICInterFoam            |
|   \\  /    A nd           | Web:      www.OpenFOAM.com                      |
|    \\/     M anipulation  |                                                 |
\*---------------------------------------------------------------------------*/
FoamFile
{
    version     2.0;
    format      ascii;
    class       volScalarField;
    location    "8.4";
    object      rho;
}
// * * * * * * * * * * * * * * * * * * * * * * * * * * * * * * * * * * * * * //

dimensions      [1 -3 0 0 0 0 0];

internalField   nonuniform List<scalar> 
11821
(
1000
942.503
1000
934.816
999.434
1000
975.764
892.315
860.03
911.108
985.34
999.826
1000
726.338
508.325
475.007
552.74
802.804
982.35
999.999
458.175
394.904
394.915
394.649
569.82
914.03
999.992
402.603
394.685
406.854
394.56
496.008
871.126
999.987
442.966
395.327
394.409
394.995
541.412
899.076
999.99
669.89
455.605
427.802
482.09
747.32
971.026
999.998
951.268
826.608
777.537
847.304
963.552
999.185
1000
995.37
983.933
978.401
988.661
997.62
999.871
1000
953.447
874.275
842.16
903.967
973.561
997.608
999.989
810.878
568.194
534.744
651.408
913.862
990.887
999.949
703.374
401.239
400.814
609.507
863.966
986.36
999.868
793.388
518.212
448.266
613.169
899.315
988.621
999.949
935.391
821.001
775.917
842.799
966.815
996.735
999.979
990.172
971.744
963.768
978.19
995.013
999.622
999.999
999.972
995.139
993.676
997.777
999.997
999.987
1000
990.684
994.186
992.159
994.156
991.52
999.999
1000
987.399
941.28
912.239
939.105
989.484
998.592
999.999
973.999
654.291
488.556
910.796
977.625
999.922
999.988
986.212
907.954
802.763
928.338
991.133
997.376
1000
980.15
978.188
966.709
981.467
990.938
999.997
999.998
997.578
989.982
993.059
991.079
999.991
999.981
1000
1000
983.211
978.588
991.436
1000
1000
1000
923.677
941.206
931.636
927.569
964.407
1000
1000
897.969
876.895
878.532
852.693
924.99
994.479
1000
864.637
802.751
791.603
747.459
907.764
993.556
1000
886.649
858.259
831.614
849.534
924.57
991.774
1000
906.424
851.832
785.167
918.32
943.45
1000
1000
993.301
969.361
976.639
967.511
999.763
1000
1000
991.376
931.587
914.95
956.672
999.837
1000
1000
734.239
654.383
608.287
663.105
872.534
1000
1000
558.269
425.725
433.031
485.801
679.741
969.049
1000
417.746
798.982
795.807
383.126
606.935
950.157
1000
511.72
448.515
595.409
458.936
660.308
960.709
1000
687.349
491.234
415.702
639.448
806.106
999.092
1000
969.32
878.823
874.9
893.443
991.944
1000
1000
977.638
880.191
852.505
922.321
997.19
1000
1000
617.949
392.313
389.024
463.485
802.891
998.306
1000
386.936
382.622
381.838
381.219
498.078
944.456
1000
392.234
729.507
792.375
380.887
386.092
902.037
1000
388.278
383.095
385.7
381.406
461.749
931.142
1000
542.389
388.444
386.084
393.722
720.222
994.717
1000
945.527
795.765
763.491
840.495
980.751
1000
1000
981.31
899.788
874.815
937.758
997.056
1000
1000
660.727
425.45
408.151
505.874
829.561
998.595
1000
392.869
381.834
381.057
380.767
545.043
957.914
999.999
389.296
449.745
774.691
380.524
439.698
919.362
999.999
384.896
382.506
381.463
380.767
508.607
947.175
999.999
584.396
389.98
383.301
421.188
759.023
996.124
1000
954.341
823.401
786.186
868.253
983.706
1000
1000
993.474
963.443
950.149
980.786
998.488
999.973
1000
812.368
639.767
595.352
705.51
912.516
999.519
1000
540.652
386.753
381.834
391.758
742.614
989.174
1000
462.214
383.805
398.066
380.767
667.55
970.55
1000
506.886
383.087
383.219
383.203
709.368
985.472
1000
752.328
525.158
496.109
612.677
874.095
998.997
1000
982.904
920.285
892.415
948.02
993.819
999.89
1000
999.522
991.904
987.457
998.831
999.811
999.924
1000
904.879
812.146
797.867
848.018
951.124
999.728
1000
730.007
552.927
472.021
525.706
871.457
998.497
1000
642.806
461.581
392.623
426.367
848.826
988.75
1000
689.109
468.941
455.38
482.587
842.814
996.233
1000
878.967
714.565
693.124
789.174
930.129
999.022
1000
998.107
976.317
963.144
985.883
997.989
999.701
1000
1000
991.588
987.965
999.491
999.399
999.721
1000
900.396
790.156
793.319
832.412
945.707
998.435
1000
723.233
586.047
579.664
589.251
853.7
997.045
1000
640.126
606.138
394.205
488.956
845.787
986.914
1000
692.147
483.917
466.942
539.555
825.369
993.556
1000
882.283
718.21
709.104
785.273
924.257
996.455
1000
998.544
977.277
967.057
985.454
995.781
999.263
1000
997.83
977.669
973.368
990.392
993.821
999.171
1000
860.324
657.762
676.669
729.461
918.849
989.062
1000
614.604
359.652
498.937
519.1
742.907
981.677
1000
496.766
600.623
431.438
444.289
748.009
969.224
1000
604.362
369.726
363.991
483.543
720.465
972.657
1000
844.255
630.25
633.377
705.234
885.823
983.925
1000
994.003
955.755
943.979
965.154
983.503
998.436
1000
989.234
944.411
934.289
957.079
974.43
998.01
1000
804.682
519.454
512.271
620.307
868.727
962.941
1000
489.872
274.565
286.799
356.475
632.874
932.403
1000
376.079
429.377
451.956
293.887
598.922
914.329
1000
502.531
278.316
273.565
344.253
619.701
916.477
1000
789.221
521.759
529.353
616.862
803.849
960.213
1000
984.515
912.296
883.426
911.618
962.049
997.085
1000
975.613
904.898
881.272
896.907
948.103
996.243
1000
765.135
509.595
467.446
593.835
777.231
932.883
1000
486.848
273.015
272.495
274.349
608.32
850.208
999.994
368.113
274.347
451.443
278.315
578.53
813.763
999.248
500.857
274.716
272.047
284.709
588.33
847.715
1000
772.116
506.662
504.414
580.868
699.04
942.499
1000
976.592
884.825
830.702
857.998
945.564
995.194
1000
961.35
867.511
829.754
846.689
939.702
993.631
1000
731.854
520.036
452.297
560.483
662.868
923.976
1000
511.107
272.312
272.091
272.484
561.308
797.706
999.602
399.008
273.267
451.441
287.04
566.88
731.452
997.695
515.844
274.698
271.446
290.199
531.089
818.76
999.978
767.812
506.37
476.201
518.396
652.017
936.539
1000
969.676
878.798
817.904
839.213
935.037
992.646
1000
952.345
863.698
822.329
845.657
942.521
989.56
1000
731.711
538.118
441.509
492.523
659.028
926.839
1000
551.017
271.961
271.854
272.12
440.691
800.618
997.769
478.962
272.453
284.545
357.933
460.398
732.721
995.603
538.688
276.383
271.433
294.63
434.629
823.042
998.319
771.489
508.277
424.13
430.161
663.458
934.235
1000
962.874
880.484
821.923
840.637
928.677
990.273
1000
945.996
876.736
839.135
865.517
946.057
983.609
1000
772.357
611.784
473.451
502.968
744.261
930.641
999.999
643.649
337.695
271.52
271.977
430.384
831.045
992.481
618.645
271.546
271.81
342.331
378.561
773.229
989.777
610.482
311.542
271.417
319.521
445.043
846.945
991.855
801.422
560.042
441.702
450.658
734.215
927.822
1000
957.726
890.269
843.185
854.388
925.891
989.175
1000
999.996
1000
1000
1000
1000
1000
1000
1000
1000
1000
1000
1000
1000
1000
1000
1000
1000
1000
1000
1000
1000
1000
1000
1000
1000
1000
1000
1000
1000
1000
1000
1000
1000
1000
1000
1000
1000
1000
1000
1000
1000
1000
999.998
999.984
999.982
999.946
999.667
999.017
1000
1000
1000
1000
1000
1000
999.998
1000
1000
1000
1000
1000
1000
1000
1000
1000
1000
1000
1000
1000
1000
1000
1000
1000
1000
1000
1000
1000
1000
1000
1000
1000
1000
1000
1000
1000
1000
1000
1000
1000
1000
1000
1000
1000
1000
1000
1000
1000
1000
1000
999.998
999.986
999.952
999.761
999.369
999.689
1000
1000
1000
1000
1000
1000
1000
1000
999.999
1000
1000
1000
1000
1000
1000
1000
999.999
1000
1000
1000
1000
1000
1000
1000
999.999
1000
1000
1000
1000
1000
1000
1000
1000
1000
1000
1000
1000
1000
1000
1000
1000
1000
1000
1000
1000
1000
1000
1000
999.999
1000
999.999
999.99
999.852
999.361
998.854
999.9
1000
1000
1000
1000
1000
1000
1000
999.999
1000
1000
1000
1000
1000
1000
1000
1000
1000
1000
1000
1000
1000
1000
1000
1000
1000
1000
1000
1000
1000
1000
1000
1000
1000
1000
1000
1000
1000
1000
1000
999.999
1000
1000
1000
1000
1000
999.999
999.999
1000
999.999
1000
1000
999.989
999.695
999.118
998.706
999.95
1000
1000
1000
1000
1000
1000
1000
999.997
1000
1000
1000
1000
1000
1000
1000
1000
1000
1000
1000
1000
1000
1000
1000
1000
1000
1000
1000
1000
1000
1000
1000
1000
1000
1000
1000
1000
1000
1000
1000
999.999
1000
1000
1000
1000
1000
1000
999.993
999.991
999.999
1000
1000
999.984
999.56
999.16
998.758
999.981
1000
1000
1000
1000
1000
1000
1000
999.995
1000
1000
1000
1000
1000
1000
1000
1000
1000
1000
1000
1000
1000
1000
1000
1000
1000
1000
1000
1000
1000
1000
1000
1000
1000
1000
1000
1000
1000
1000
1000
1000
1000
1000
1000
1000
1000
1000
999.99
999.979
999.999
1000
1000
999.967
999.547
999.388
999.06
999.988
1000
1000
1000
1000
1000
1000
1000
999.988
1000
1000
1000
1000
1000
1000
1000
1000
1000
1000
1000
1000
1000
1000
1000
1000
1000
1000
1000
1000
1000
1000
1000
1000
1000
1000
1000
1000
1000
1000
1000
1000
1000
1000
1000
1000
1000
1000
999.993
999.989
1000
1000
999.999
999.931
999.614
999.757
999.64
999.249
1000
1000
1000
1000
1000
1000
1000
999.984
1000
1000
1000
1000
1000
1000
1000
1000
1000
1000
1000
1000
1000
1000
1000
1000
1000
1000
1000
1000
1000
1000
1000
1000
1000
1000
1000
1000
1000
1000
1000
1000
1000
1000
1000
1000
999.999
1000
999.998
1000
1000
1000
999.989
999.898
999.776
999.902
999.873
998.029
1000
1000
1000
1000
1000
1000
1000
999.98
1000
1000
1000
1000
1000
1000
1000
1000
1000
1000
1000
1000
1000
1000
1000
1000
1000
1000
1000
1000
1000
1000
1000
1000
1000
1000
1000
1000
1000
1000
1000
1000
1000
1000
1000
1000
1000
1000
1000
1000
1000
1000
999.964
999.895
999.939
999.862
999.869
997.772
1000
1000
1000
1000
1000
1000
1000
999.981
1000
1000
1000
1000
1000
1000
1000
1000
1000
1000
1000
1000
1000
1000
1000
1000
1000
1000
1000
1000
1000
1000
1000
1000
1000
1000
1000
1000
1000
1000
1000
1000
1000
1000
1000
1000
1000
1000
1000
1000
1000
1000
999.934
999.909
999.993
999.691
999.825
997.934
1000
1000
999.999
1000
1000
1000
1000
999.988
1000
1000
1000
1000
1000
1000
1000
1000
1000
1000
1000
1000
1000
1000
1000
1000
1000
1000
1000
1000
1000
1000
1000
1000
1000
1000
1000
1000
1000
999.999
1000
1000
1000
1000
1000
1000
1000
1000
999.999
1000
1000
999.999
999.932
999.944
1000
999.361
999.767
998.503
1000
1000
999.999
999.999
1000
1000
1000
999.998
1000
1000
1000
1000
1000
1000
1000
1000
1000
1000
1000
1000
1000
1000
1000
1000
1000
1000
1000
1000
1000
1000
1000
1000
1000
1000
1000
1000
1000
999.999
1000
1000
1000
1000
1000
999.999
1000
999.979
999.995
1000
1000
999.993
999.932
999.964
1000
999.232
999.785
999.235
1000
1000
999.999
999.999
1000
1000
1000
1000
1000
1000
1000
1000
1000
1000
1000
1000
1000
1000
1000
1000
1000
1000
1000
1000
1000
1000
1000
1000
1000
1000
1000
1000
1000
1000
1000
1000
1000
1000
1000
1000
1000
1000
1000
999.997
1000
999.965
999.989
1000
1000
999.987
999.932
999.969
1000
999.35
999.916
999.576
1000
1000
999.999
999.999
1000
1000
1000
1000
1000
1000
1000
1000
1000
1000
1000
1000
1000
1000
1000
1000
1000
1000
1000
1000
1000
1000
1000
1000
1000
1000
1000
1000
1000
1000
1000
1000
1000
1000
1000
1000
1000
1000
1000
999.997
1000
999.968
999.99
999.999
1000
999.987
999.932
999.973
999.994
999.721
999.987
999.683
1000
1000
999.999
1000
1000
999.999
1000
1000
1000
1000
1000
1000
1000
1000
1000
1000
1000
1000
1000
1000
1000
1000
1000
1000
1000
1000
1000
1000
1000
1000
1000
1000
1000
1000
1000
1000
1000
1000
1000
1000
1000
1000
1000
999.999
1000
999.98
999.996
999.998
1000
999.99
999.932
999.985
999.971
999.861
999.649
999.762
1000
1000
999.999
1000
1000
999.999
999.999
1000
1000
1000
1000
1000
1000
1000
1000
1000
1000
1000
1000
1000
1000
1000
1000
1000
1000
1000
1000
1000
1000
1000
1000
1000
1000
1000
1000
1000
1000
1000
1000
1000
1000
1000
1000
1000
1000
999.995
1000
999.997
1000
999.992
999.961
999.998
999.924
999.819
998.698
999.796
1000
1000
999.999
1000
1000
1000
1000
999.998
1000
1000
1000
1000
1000
1000
1000
1000
1000
1000
1000
1000
1000
1000
1000
1000
1000
1000
1000
1000
1000
1000
1000
1000
1000
1000
1000
1000
1000
1000
1000
1000
1000
1000
999.999
1000
1000
1000
1000
999.997
999.987
1000
1000
1000
1000
1000
1000
1000
966.484
999.992
1000
1000
1000
1000
1000
1000
798.415
999.689
999.999
1000
1000
1000
999.9
999.996
703.104
987.513
999.996
1000
1000
999.99
999.915
999.993
821.841
999.95
999.999
1000
1000
1000
999.94
999.998
979.754
999.995
1000
1000
1000
1000
999.999
1000
999.993
1000
1000
1000
1000
1000
1000
1000
999.846
1000
1000
1000
1000
1000
1000
1000
993.356
999.975
1000
1000
1000
1000
999.999
1000
969.406
999.793
999.998
1000
1000
999.99
999.992
999.999
946.76
998.651
999.992
1000
1000
999.995
999.997
999.997
971.953
999.811
999.998
1000
1000
1000
999.986
999.999
994.891
999.979
1000
1000
1000
999.999
999.999
1000
999.923
999.999
1000
1000
1000
1000
1000
1000
999.974
1000
1000
1000
1000
1000
1000
1000
998.942
999.997
1000
1000
1000
1000
999.999
1000
989.476
999.988
999.999
1000
999.999
999.952
999.99
1000
987.664
999.991
999.997
1000
1000
999.999
999.999
999.996
990.394
999.987
999.999
1000
1000
1000
999.967
999.999
999.883
999.993
1000
1000
1000
999.999
1000
1000
999.982
1000
1000
1000
1000
1000
1000
1000
1000
1000
1000
1000
1000
1000
1000
1000
995.743
1000
1000
1000
1000
1000
999.999
1000
949.191
1000
1000
1000
999.999
999.952
999.983
1000
947.574
1000
1000
1000
1000
1000
999.687
999.997
956.665
1000
1000
1000
1000
999.968
999.934
1000
999.615
1000
1000
1000
1000
999.999
1000
1000
1000
1000
1000
1000
1000
1000
1000
1000
1000
1000
1000
1000
1000
1000
1000
1000
976.101
1000
1000
1000
1000
1000
999.999
1000
809.13
1000
1000
1000
999.999
999.954
999.98
1000
773.476
998.48
1000
1000
1000
999.372
999.562
999.999
835.841
1000
1000
1000
1000
999.815
999.907
1000
990.373
1000
1000
1000
1000
1000
1000
1000
1000
1000
1000
1000
1000
1000
1000
999.998
1000
1000
1000
1000
1000
1000
1000
1000
956.2
1000
1000
1000
1000
1000
999.999
1000
708.862
999.725
1000
1000
999.998
999.951
999.979
1000
621.984
989.253
1000
1000
1000
998.214
999.553
1000
746.311
1000.04
1000
1000
1000
999.659
999.903
1000
975.044
1000
1000
1000
1000
1000
1000
1000
1000
1000
1000
1000
1000
1000
1000
999.994
999.998
1000
1000
1000
1000
1000
1000
1000
963.205
999.999
1000
1000
1000
1000
999.999
1000
749.773
999.981
1000
1000
999.994
999.937
999.979
1000
656.327
991.336
999.999
1000
999.982
998.2
999.582
1000
781.928
999.993
1000
1000
999.99
999.603
999.913
1000
976.964
999.999
1000
1000
1000
1000
999.999
1000
999.998
999.998
1000
1000
1000
1000
1000
999.995
999.969
1000
1000
1000
1000
1000
1000
1000
986.216
999.999
1000
1000
1000
1000
999.999
1000
880.276
1000
1000
1000
999.987
999.919
999.98
1000
816.496
998.303
1000
1000
999.769
998.197
999.716
1000
897.529
1000
1000
1000
999.933
999.602
999.939
1000
988.939
1000
1000
1000
1000
1000
999.999
1000
999.945
999.998
1000
1000
1000
1000
1000
999.999
999.975
1000
1000
1000
1000
1000
1000
1000
998.993
999.995
1000
1000
1000
999.999
999.999
1000
956.991
999.985
1000
1000
999.978
999.903
999.982
1000
929.4
999.961
999.999
999.996
998.691
998.198
999.886
1000
964.274
999.986
1000
999.999
999.819
999.612
999.966
1000
998.701
999.996
1000
1000
1000
1000
999.998
1000
999.969
999.999
1000
1000
1000
1000
1000
1000
1000
1000
1000
1000
1000
1000
1000
1000
999.999
1000
1000
1000
1000
999.999
999.999
1000
960.614
1000
1000
999.999
999.959
999.884
999.985
1000
935.444
1000
1000
999.975
997.841
998.403
999.974
1000
967.003
1000
1000
999.996
999.713
999.632
999.982
1000
1000
1000
1000
1000
1000
1000
999.999
1000
999.98
1000
1000
1000
1000
1000
1000
1000
1000
1000
1000
1000
1000
1000
1000
1000
1000
1000
1000
1000
1000
999.999
1000
1000
943.115
1000
1000
999.999
999.925
999.862
999.989
1000
905.33
1000
1000
999.98
997.839
998.775
999.994
1000
949.018
1000
1000
999.997
999.635
999.646
999.99
1000
996.947
1000
1000
1000
1000
1000
1000
1000
999.94
1000
1000
1000
1000
1000
1000
1000
1000
1000
1000
1000
1000
1000
1000
1000
998.779
1000
1000
1000
1000
999.999
1000
1000
912.767
1000
1000
999.999
999.878
999.85
999.994
1000
848.087
1000
1000
999.998
997.838
998.857
999.997
1000
912.395
1000
1000
1000
999.565
999.659
999.996
1000
987.005
1000
1000
1000
1000
1000
1000
1000
999.805
1000
1000
1000
1000
1000
1000
1000
1000
1000
1000
1000
1000
1000
1000
1000
996.35
1000
1000
1000
1000
1000
1000
1000
901.803
1000
1000
999.998
999.819
999.851
999.997
1000
819.769
1000
1000
1000
997.837
998.86
999.999
1000
880.792
1000
1000
1000
999.482
999.688
999.999
1000
976.071
1000
1000
1000
1000
1000
1000
1000
999.625
1000
1000
1000
1000
1000
1000
1000
1000
1000
1000
1000
1000
1000
1000
1000
994.038
1000
1000
1000
1000
999.999
1000
1000
901.452
1000
1000
999.994
999.752
999.86
999.999
1000
811.643
999.62
1000
999.986
997.835
998.932
1000
1000
859.642
1000
1000
1000
999.41
999.743
1000
1000
967.992
1000
1000
1000
1000
1000
1000
1000
999.341
1000
1000
1000
1000
1000
1000
1000
1000
1000
1000
1000
1000
1000
1000
1000
990.385
1000
1000
1000
1000
999.999
1000
1000
904.293
1000
1000
999.982
999.699
999.886
1000
1000
814.559
997.853
1000
999.862
997.834
999.17
1000
1000
860.444
999.719
1000
999.986
999.395
999.818
1000
1000
963.449
1000
1000
1000
1000
999.999
1000
1000
998.716
1000
1000
1000
1000
1000
1000
999.998
999.995
1000
1000
1000
1000
1000
1000
1000
982.54
1000
1000
1000
1000
999.999
1000
1000
911.9
999.324
1000
999.945
999.69
999.923
1000
1000
834.335
997.092
1000
999.466
997.834
999.517
1000
1000
875.788
998.547
1000
999.927
999.417
999.895
1000
1000
959.672
1000
1000
1000
1000
999.998
1000
1000
997.537
1000
1000
1000
1000
1000
1000
999.997
999.994
1000
1000
999.989
999.866
999.804
999.895
999.431
999.974
1000
1000
999.975
999.566
998.237
999.67
997.976
999.97
999.999
1000
999.973
999.429
998.233
999.664
998.582
999.979
999.986
999.94
999.827
999.946
999.104
997.993
999.918
999.997
999.973
999.417
999.636
999.95
999.91
999.686
997.227
1000
999.948
999.485
999.959
999.966
999.173
998.029
996.07
1000
1000
999.76
999.363
999.98
999.937
999.379
996.072
999.986
1000
1000
999.992
999.88
999.819
999.896
999.229
999.932
999.998
1000
999.991
999.589
998.431
999.851
996.861
999.9
999.998
1000
999.969
999.52
998.386
999.839
996.874
999.941
999.987
999.93
999.97
999.933
998.809
999.225
998.757
999.993
999.94
999.419
999.987
999.794
999.872
999.666
996.39
1000
999.957
999.9
999.87
999.866
996.778
996.116
996.07
1000
1000
999.723
999.363
999.822
998.38
997.195
996.425
999.996
1000
1000
999.998
999.931
999.863
999.883
999.308
1000
1000
1000
999.994
999.724
999.739
999.836
996.859
999.999
1000
1000
999.98
999.641
999.714
999.835
996.858
999.996
999.99
999.937
1000
999.91
999.04
999.831
997.115
999.997
999.941
999.9
999.996
999.715
997.02
999.246
998.767
1000
999.992
999.885
999.211
999.487
996.042
996.046
996.157
1000
1000
999.77
999.356
998.476
996.087
996.043
998.532
1000
1000
1000
1000
999.976
999.925
999.757
999.62
1000
1000
1000
999.998
999.891
999.932
999.687
996.858
1000
1000
1000
999.993
999.605
999.927
999.735
996.858
1000
999.995
999.99
1000
999.893
999.431
999.829
997.682
1000
999.987
999.999
999.964
999.761
996.042
998.846
999.943
1000
1000
999.879
998.975
998.121
996.04
996.041
998.53
1000
1000
999.878
999.308
996.264
996.037
996.04
999.607
1000
1000
1000
1000
999.983
999.937
999.557
999.903
1000
1000
1000
1000
999.873
999.932
998.705
997.874
1000
1000
1000
999.998
999.594
999.913
998.877
996.858
1000
999.999
1000
1000
999.814
999.816
999.828
999.3
1000
1000
999.999
999.775
999.82
997.358
998.916
999.943
1000
1000
999.882
999.045
996.318
996.037
996.859
999.849
1000
1000
999.984
999.306
996.036
996.036
996.036
999.882
1000
1000
1000
1000
999.978
999.933
999.475
999.969
1000.01
1000
1000
1000
999.836
999.849
997.224
999.622
1000.01
1000
1000
999.991
999.594
999.9
997.382
997.518
1000
1000
1000
1000
999.789
999.873
999.634
999.943
1000
1000
1000
999.692
999.398
999.265
999.504
999.943
1000
1000
999.901
999.141
996.039
996.036
998.627
999.944
1000
1000
1000
999.356
996.035
996.034
996.035
999.945
999.999
1000
1000
1000
999.97
999.913
999.44
999.989
999.997
1000
1000
1000
999.857
999.351
997.207
999.884
999.997
1000
1000
999.958
999.603
999.807
997.205
999.322
999.998
1000
1000
999.995
999.832
999.871
999.257
999.015
1000
1000
1000
999.751
996.453
999.566
999.838
999.82
1000
1000
999.927
999.249
996.046
996.078
999.534
999.943
1000
1000
1000
999.478
996.037
997.45
997.838
999.225
999.999
1000
1000
1000
999.973
999.851
999.47
999.999
1000
1000
1000
1000
999.912
998.533
997.205
999.771
1000
1000
1000
999.877
999.785
999.603
997.204
999.544
999.999
1000
1000
999.979
999.892
999.858
999.107
997.57
1000
1000
999.987
999.783
996.269
999.682
999.838
997.889
1000
1000
999.965
999.485
996.37
998.187
998.143
998.73
1000
1000
1000
999.422
998.273
999.735
999.204
996.885
999.999
1000
1000
1000
999.989
999.703
999.606
999.702
1000
1000
1000
1000
999.973
998.418
997.513
998.281
1000
1000
999.999
999.853
999.957
999.18
997.204
999.307
999.998
1000
1000
999.967
999.979
999.693
999.071
997.425
1000
1000
999.968
999.9
997.475
999.806
999.838
996.85
1000
1000
999.991
999.481
999.075
999.121
996.83
996.828
1000
1000
999.999
999.441
999.934
999.487
998.971
996.827
1000
1000
1000
1000
999.999
999.506
999.725
998.676
1000
1000
1000
1000
999.967
998.973
999.219
997.526
1000
1000
999.998
999.853
999.997
998.623
997.204
997.639
1000
1000
1000
999.98
999.995
999.193
999.275
998.868
1000
1000
999.972
999.916
999.949
999.82
999.127
997.771
1000
1000
999.996
999.499
999.873
998.303
996.828
996.827
1000
1000
999.998
999.796
999.937
997.513
998.396
996.827
1000
1000
1000
1000
1000
999.484
999.825
998.572
1000
1000
1000
1000
999.911
999.861
999.953
997.523
1000
1000
999.999
999.951
999.997
998.127
997.547
997.465
1000
1000
1000
999.998
999.989
998.93
999.755
999.747
1000
1000
999.988
999.746
999.985
999.762
997.105
999.599
1000
1000
999.999
999.731
999.804
997.165
996.83
996.901
1000
1000
1000
999.993
999.828
997.098
998.411
996.827
1000
1000
1000
1000
999.999
999.485
999.952
999.081
1000
1000
1000
1000
999.886
999.976
999.976
997.515
1000
1000
1000
1000
999.987
997.955
999.522
997.465
1000
1000
1000
1000
999.797
999.11
999.879
999.706
1000
1000
999.999
999.7
999.962
999.532
997.69
999.791
1000
1000
1000
999.935
999.546
997.098
998.633
997.975
1000
1000
1000
1000
999.639
997.098
999.122
996.827
1000
1000
1000
1000
999.995
999.52
1000
999.778
1000
1000
1000
1000
999.893
999.919
999.891
997.703
1000
1000
1000
1000
999.837
997.954
999.882
998.043
1000
1000
1000
1000
999.476
999.457
999.879
999.69
1000
1000
1000
999.7
999.962
999.186
999.555
999.792
1000
1000
1000
999.998
998.851
997.27
999.818
998.057
1000
1000
1000
1000
999.536
997.163
999.604
996.828
1000
1000
1000
1000
999.963
999.676
999.64
999.896
1000
1000
1000
1000
999.965
999.333
997.492
999.175
1000
1000
1000
1000
999.284
997.954
999.848
999.538
1000
1000
1000
1000
999.372
999.737
999.737
999.613
1000
1000
1000
999.758
999.573
999.153
999.799
999.792
1000
1000
1000
1000
998.16
998.829
999.823
997.482
1000
1000
1000
1000
999.242
999.312
999.683
996.829
1000
1000
1000
1000
999.888
999.726
998.288
999.9
999.999
1000
1000
1000
1000
997.775
996.808
999.581
999.999
1000
1000
1000
998.926
997.97
999.836
999.753
999.73
1000
1000
1000
999.782
999.914
997.178
999.526
1000
1000
1000
999.896
998.22
999.36
999.71
999.706
1000
1000
1000
999.983
998.146
999.751
999.824
996.918
1000
1000
1000
1000
998.735
999.859
999.461
996.892
1000
1000
1000
1000
999.857
999.724
998.374
999.927
998.333
1000
1000
1000
1000
997.19
996.803
999.722
998.401
1000
1000
1000
999.117
998.949
997.244
999.211
996.527
1000
1000
1000
999.98
999.971
996.969
999.481
1000
1000
1000
999.978
998.146
999.768
999.685
998.506
1000
1000
1000
999.983
998.146
999.847
999.847
996.907
999.998
1000
1000
1000
998.841
999.429
997.143
998.481
1000
1000
1000
999.999
999.998
999.999
999.934
999.827
1000
1000
1000
999.99
999.935
999.961
999.9
999.417
1000
1000
1000
1000
999.947
999.729
999.884
999.826
1000.01
1000
1000
1000
999.989
999.675
999.58
999.942
1000
1000
999.991
999.99
999.927
1000
999.998
999.988
1000
1000
1000
999.999
1000
999.994
999.912
999.865
1000
1000
1000
999.986
999.932
999.968
999.613
999.25
999.995
1000
1000
999.996
999.859
999.937
999.881
999.315
999.973
1000
1000
1000
999.978
999.669
999.913
999.855
999.876
999.999
1000
999.999
999.994
999.993
999.929
999.869
999.956
999.999
1000
1000
1000
999.999
999.993
999.979
999.988
1000
1000
1000
1000
1000
1000
1000
1000
1000
1000
999.999
1000
999.978
999.939
999.972
999.999
1000
1000
999.983
999.917
999.953
999.44
999.391
999.961
1000
1000
999.981
999.779
999.909
999.631
999.171
999.907
999.998
1000
1000
999.965
999.669
999.93
999.282
999.871
999.996
1000
999.999
999.996
999.944
999.93
999.501
999.862
999.996
1000
1000
1000
999.998
999.988
999.984
999.972
999.999
1000
1000
1000
1000
1000
1000
1000
1000
1000
999.998
999.997
999.942
999.992
999.999
1000
1000
1000
999.983
999.914
999.939
999.523
999.823
999.994
1000
1000
999.97
999.779
999.877
999.192
999.171
1000
1000
1000
1000
999.953
999.71
999.885
999.171
999.999
999.999
1000
1000
999.995
999.79
999.936
999.531
999.999
999.999
1000
1000
999.999
999.993
999.988
999.99
1000
1000
1000
1000
1000
1000
1000
1000
1000
1000
1000
999.997
999.995
999.923
999.993
999.999
1000
1000
1000
999.981
999.922
999.706
999.783
999.988
1000
1000
1000
999.974
999.779
999.843
999.182
999.397
1000
1000
1000
999.999
999.902
999.821
999.534
999.172
1000
1000
1000
1000
999.991
999.774
999.966
999.824
1000
1000
1000
1000
999.998
999.982
999.991
999.992
1000
1000
1000
1000
1000
1000
1000
1000
1000
1000
1000
999.996
999.996
999.923
999.947
999.921
1000
1000
1000
999.963
999.949
999.505
999.893
999.991
1000
1000
1000
999.978
999.811
999.729
999.253
999.848
1000
1000
1000
1000
999.797
999.832
999.321
999.381
1000.01
1000
1000
1000
999.968
999.774
999.973
999.996
1000
1000
1000
1000
999.998
999.976
999.996
999.996
1000
1000
1000
1000
1000
1000
1000
1000
1000
1000
1000
999.996
999.996
999.946
999.911
999.43
1000
1000
1000
999.954
999.966
999.505
999.89
999.455
1000
1000
1000
999.965
999.88
999.514
999.665
999.937
1000.01
1000
1000
999.998
999.77
999.847
999.323
999.89
1000.01
1000
1000
1000
999.868
999.784
999.974
999.998
1000.01
1000
1000
999.999
999.996
999.976
999.999
1000
1000
1000
1000
1000
1000
1000
1000
1000
1000
1000
999.999
999.999
999.969
999.982
999.91
999.192
1000
1000
1000
999.959
999.959
999.565
999.835
997.582
1000
1000
1000
999.929
999.911
999.491
999.804
999.72
999.997
1000
1000
999.984
999.769
999.885
999.43
999.998
999.996
1000
1000
1000
999.768
999.877
999.986
999.998
999.995
1000
1000
999.999
999.987
999.974
1000
1000
999.998
1000
1000
1000
1000
1000
1000
1000
1000
1000
999.998
999.999
999.906
999.998
999.917
999.319
1000
1000
999.997
999.978
999.885
999.716
999.74
997.356
1000
1000
1000
999.921
999.919
999.49
999.8
998.136
1000
1000
1000
999.949
999.848
999.843
999.85
999.998
1000
1000
1000
999.995
999.763
999.957
999.981
999.998
999.999
1000
1000
1000
999.957
999.974
1000
999.999
999.999
1000
1000
1000
1000
1000
1000
1000
1000
1000
999.997
999.998
999.895
1000
999.93
999.731
1000
1000
999.995
999.992
999.695
999.82
999.709
997.348
999.999
1000
999.999
999.945
999.916
999.49
999.758
997.323
999.995
1000
999.999
999.939
999.943
999.521
999.892
999.819
999.988
1000
1000
999.981
999.763
999.988
999.955
999.999
999.993
1000
1000
1000
999.923
999.98
1000
999.998
999.998
1000
1000
1000
1000
1000
1000
1000
1000
1000
999.998
999.997
999.9
999.999
999.937
999.983
1000
1000
999.994
999.993
999.64
999.892
999.709
998.476
1000
1000
999.999
999.984
999.906
999.49
999.712
997.322
1000
1000
999.999
999.939
999.978
999.49
999.862
998.186
1000
1000
1000
999.967
999.763
999.994
999.936
1000
1000
1000
1000
999.999
999.922
999.988
999.993
999.998
1000
1000
1000
1000
1000
1000
1000
1000
1000
1000
999.999
999.993
999.919
999.999
999.946
1000
1000
1000
999.995
999.994
999.64
999.94
999.772
999.675
1000
1000
999.998
999.998
999.859
999.542
999.746
997.322
1000
1000
999.999
999.974
999.993
999.491
999.848
997.323
1000
1000
1000
999.95
999.844
1000
999.942
1000
1000
1000
1000
999.991
999.941
999.996
999.976
999.998
1000
1000
1000
1000
1000
1000
1000
1000
999.999
1000
1000
999.967
999.953
999.935
999.951
999.997
1000
1000
999.998
999.987
999.64
999.947
999.94
999.925
1000
1000
999.998
999.998
999.681
999.867
999.878
997.834
1000
1000
1000
999.994
999.999
999.659
999.862
997.493
1000
1000
1000
999.944
999.99
1000
999.945
1000
1000
1000
1000
999.96
999.978
1000
999.977
1000
1000
1000
1000
1000
1000
1000
1000
1000
999.999
1000
1000
999.924
999.983
999.779
999.949
999.982
1000
1000
1000
999.952
999.677
999.949
999.949
999.931
1000
1000
999.998
999.998
999.628
999.919
999.949
999.543
1000
1000
1000
999.997
999.999
999.96
999.894
998.975
1000
1000
1000
999.944
999.999
1000
999.936
999.949
1000
1000
1000
999.958
999.995
1000
999.983
1000
1000
1000
1000
1000
1000
1000
1000
1000
999.999
1000
1000
999.918
999.998
999.779
999.905
999.962
1000
1000
1000
999.88
999.847
999.912
999.892
999.898
1000
1000
999.999
999.991
999.628
999.897
999.946
999.932
1000
1000
1000
1000
999.888
999.957
999.952
999.974
1000
1000
1000
999.946
1000
999.997
999.935
999.939
1000
1000
1000
999.982
1000
1000
999.979
1000
1000
1000
1000
1000
1000
1000
1000
1000
999.999
1000
999.999
999.936
1000
999.779
999.773
999.956
1000
1000
1000
999.864
999.951
999.787
998.585
999.848
1000
1000
1000
999.969
999.628
999.888
998.825
999.825
1000
1000
1000
1000
999.635
999.887
999.979
999.983
1000
1000
1000
999.994
1000
999.82
999.938
999.983
1000
1000
1000
999.999
1000
999.983
999.958
1000
1000
1000
1000
1000
1000
1000
1000
1000
999.999
1000
999.995
999.968
1000
999.77
999.67
999.959
1000
1000
999.999
999.864
999.991
999.495
998.49
999.833
1000
1000
1000
999.928
999.657
999.883
998.49
999.715
1000
1000
1000
1000
999.631
999.871
999.978
999.924
1000
1000
1000
1000
999.996
999.772
999.955
1000
1000
1000
1000
1000
1000
999.808
999.952
1000
1000
1000
1000
1000
1000
1000
999.999
1000
1000
1000
1000
1000
1000
1000
1000
1000
1000
1000
1000
1000
1000
1000
1000
1000
1000
1000
1000
1000
1000
1000
1000
1000
1000
1000
1000
1000
1000
1000
1000
1000
1000
1000
1000
1000
1000
1000
1000
1000
1000
1000
1000
1000
1000
1000
1000
1000
1000
1000