/*--------------------------------*- C++ -*----------------------------------*\
| =========                 |                                                 |
| \\      /  F ield         | OpenFOAM: The Open Source CFD Toolbox           |
|  \\    /   O peration     | Version:  plus.master.MPPICInterFoam            |
|   \\  /    A nd           | Web:      www.OpenFOAM.com                      |
|    \\/     M anipulation  |                                                 |
\*---------------------------------------------------------------------------*/
FoamFile
{
    version     2.0;
    format      ascii;
    class       volScalarField;
    location    "4.2";
    object      nut;
}
// * * * * * * * * * * * * * * * * * * * * * * * * * * * * * * * * * * * * * //

dimensions      [0 2 -1 0 0 0 0];

internalField   nonuniform List<scalar> 
11822
(
0.000597666
0.000630666
0.000654639
0.000665287
0.000661093
0.000643572
0.000614369
0.000626936
0.000660196
0.000681187
0.000691439
0.000691276
0.000677651
0.000647736
0.000646946
0.000662338
0.000657672
0.000663269
0.000676014
0.000697454
0.000671367
0.000654602
0.000650708
0.000666679
0.00065612
0.000670736
0.000702201
0.000682343
0.000649722
0.000654925
0.000644233
0.000661608
0.000673503
0.00069909
0.000675484
0.000630597
0.000659304
0.000664234
0.000673101
0.000682254
0.000683362
0.000652419
0.000600703
0.000636034
0.000662064
0.000672451
0.000669512
0.000649552
0.00061798
0.000605142
0.00063946
0.000662787
0.00067281
0.000668249
0.00064937
0.000617597
0.000638231
0.00068037
0.000709397
0.000721291
0.000715373
0.0006904
0.000652984
0.000661875
0.000709331
0.00071765
0.000720834
0.000734458
0.000722989
0.000677581
0.000671403
0.000714423
0.000693447
0.000684289
0.000724747
0.000736468
0.000687923
0.000664743
0.000710839
0.000707649
0.000711578
0.000730221
0.00072871
0.000680555
0.000642534
0.000689791
0.000717429
0.000728648
0.000727176
0.000700206
0.000656931
0.000608204
0.000646358
0.000673514
0.000684414
0.000678768
0.000655662
0.000620448
0.000609373
0.000643529
0.000666371
0.000675886
0.00067065
0.000650832
0.000618028
0.00064224
0.00068076
0.000709688
0.000721911
0.000715111
0.000690247
0.000653374
0.00066403
0.000710028
0.000750207
0.000765362
0.000755403
0.000721872
0.000677164
0.000672621
0.00072394
0.000765988
0.000779145
0.000774149
0.000733565
0.000686026
0.00066595
0.000715268
0.000758123
0.000771354
0.000763124
0.000725188
0.000678575
0.000644889
0.000686629
0.000719299
0.000732676
0.00072376
0.000695832
0.000655446
0.000611664
0.00064744
0.000672004
0.000682335
0.000675969
0.000654182
0.000619538
0.000615174
0.000649964
0.000673497
0.00068314
0.000676286
0.000654336
0.000620232
0.000649304
0.000688737
0.000718654
0.000730827
0.000723587
0.000695046
0.00065581
0.000671916
0.000717689
0.000751577
0.00076968
0.000758857
0.000728865
0.000679966
0.000680353
0.000727967
0.000768046
0.00078962
0.000777253
0.000747576
0.000690336
0.000673521
0.00071956
0.000756325
0.000774494
0.00076415
0.000733437
0.000681301
0.000652066
0.000694049
0.000723976
0.000737159
0.000732452
0.000700139
0.000657265
0.000617689
0.000653778
0.000678151
0.000687901
0.000680672
0.000656746
0.000621049
0.000623343
0.000658719
0.00068282
0.000693631
0.000683616
0.000659877
0.000625109
0.000659095
0.000703051
0.000740755
0.000769433
0.000743677
0.00070335
0.000660518
0.000684214
0.000741987
0.000791615
0.000799386
0.000804898
0.000741969
0.000683493
0.00069532
0.000758801
0.000794376
0.00080711
0.000815365
0.000767397
0.000692804
0.000687766
0.000750271
0.000787717
0.000805551
0.000818519
0.000747629
0.000684268
0.00066317
0.000713971
0.000761554
0.000775552
0.000757539
0.000709143
0.000661405
0.00062645
0.000664078
0.000691397
0.000700706
0.000689327
0.000662129
0.000625584
0.000634916
0.000667167
0.000686641
0.000689727
0.000685418
0.0006658
0.000634334
0.000668127
0.000707817
0.000734356
0.00072683
0.000729462
0.000701953
0.000666336
0.000690304
0.000742008
0.00077315
0.000776414
0.000744611
0.00072519
0.000684972
0.00070074
0.000775026
0.000795776
0.000792954
0.000783497
0.000725799
0.00068974
0.000694664
0.00075966
0.000810814
0.000804277
0.00074395
0.000728023
0.000685152
0.000670819
0.000716467
0.000757725
0.000775177
0.000740128
0.000704593
0.000665768
0.000636861
0.000670016
0.0006921
0.000700517
0.000690037
0.000666143
0.000633698
0.000575735
0.000536803
0.000489625
0.000432087
0.000360198
0.00026763
0.000146078
1.7329e-05
0.000607686
0.000566846
0.000518879
0.000460916
0.000388136
0.00029289
0.000163837
1.96726e-05
0.000628401
0.000586341
0.000537773
0.000479491
0.00040598
0.000309208
0.000175595
2.13428e-05
0.000636619
0.000593519
0.000544628
0.000486376
0.000412808
0.000315475
0.00018013
2.20224e-05
0.000630135
0.000587351
0.00053875
0.000480632
0.000407479
0.000310782
0.000176733
2.15786e-05
0.000610042
0.00056866
0.000520949
0.000463281
0.000390897
0.000295677
0.000165678
2.00495e-05
0.000578117
0.000539211
0.00049252
0.000435573
0.000364092
0.000271182
0.000148068
1.77315e-05
0.000577245
0.000537134
0.00048923
0.00043111
0.000358793
0.000265852
0.000144486
1.72329e-05
0.00061034
0.000567626
0.000518591
0.00045981
0.000386595
0.000291069
0.000162198
1.95594e-05
0.000631693
0.000587454
0.000537417
0.000477925
0.000404095
0.000307111
0.000173775
2.12028e-05
0.000639604
0.000594556
0.000544171
0.000484475
0.000410533
0.000313052
0.000178126
2.18648e-05
0.000632722
0.000588117
0.000538166
0.000479027
0.000405369
0.000308385
0.000174768
2.1428e-05
0.000611994
0.000568917
0.000520083
0.000461747
0.000388798
0.000293296
0.000163766
1.99229e-05
0.000579019
0.000538877
0.000491275
0.000433652
0.000361649
0.000268448
0.000145969
1.76151e-05
0.000577446
0.000537394
0.00048951
0.00043141
0.000358915
0.000265451
0.000143625
1.72167e-05
0.000610282
0.000567491
0.000518541
0.000459953
0.000386741
0.000290815
0.000161401
1.95323e-05
0.000631256
0.000586767
0.000536878
0.000477768
0.000403956
0.000306679
0.000172854
2.11423e-05
0.00063886
0.000593635
0.000543285
0.000484041
0.000410158
0.000312403
0.000177072
2.17788e-05
0.000631789
0.000587107
0.00053727
0.000478491
0.000404943
0.000307686
0.000173687
2.13255e-05
0.000611074
0.000568122
0.000519475
0.000461364
0.000388427
0.000292567
0.000162719
1.98363e-05
0.00057839
0.000538263
0.000490754
0.000433183
0.000360959
0.000267235
0.000144638
1.75526e-05
0.000579476
0.000539586
0.000491928
0.000434227
0.000361749
0.000267705
0.000144687
1.72686e-05
0.000611908
0.000569302
0.00052071
0.000462701
0.000389726
0.000293295
0.000162588
1.95827e-05
0.000632635
0.000588251
0.000538671
0.000480128
0.000406829
0.000309132
0.000173982
2.11856e-05
0.000640342
0.000594876
0.00054495
0.000486359
0.000412781
0.00031466
0.000178053
2.18143e-05
0.000633042
0.000588391
0.000539017
0.000480803
0.000407486
0.000309785
0.000174504
2.13549e-05
0.000612496
0.00056967
0.000521379
0.000463625
0.000390833
0.000294431
0.00016341
1.98696e-05
0.000579986
0.00054014
0.000492909
0.000435428
0.000363078
0.000268661
0.000145163
1.75966e-05
0.000584461
0.000545256
0.000498559
0.000441511
0.000369359
0.000274467
0.000148717
1.74111e-05
0.000616524
0.000574508
0.000526873
0.00046986
0.000397514
0.000300433
0.000166858
1.97608e-05
0.000636317
0.000592874
0.000544317
0.000487151
0.000414641
0.000316398
0.000178276
2.13816e-05
0.000643144
0.00059894
0.000550171
0.000492738
0.000420258
0.000321773
0.000182263
2.20123e-05
0.000636279
0.000592684
0.000544302
0.000487225
0.000414845
0.000316615
0.000178441
2.15374e-05
0.00061662
0.000574644
0.000527364
0.000470574
0.000398195
0.000300882
0.000167052
2.00263e-05
0.000584841
0.00054586
0.000499508
0.000442707
0.000370141
0.000274707
0.000148729
1.77312e-05
0.000596583
0.000560328
0.000516819
0.000462831
0.000392772
0.000295994
0.000159763
1.94535e-05
0.000626199
0.000587423
0.000543392
0.000490044
0.000420843
0.000323038
0.000179272
2.21052e-05
0.000644068
0.000604262
0.000559527
0.000506414
0.000437655
0.000339367
0.000191396
2.39272e-05
0.000649706
0.000609738
0.000564807
0.000511756
0.000443014
0.00034465
0.000195483
2.4582e-05
0.000643603
0.000603742
0.000559133
0.000505854
0.000436912
0.000338694
0.000191031
2.396e-05
0.000625368
0.0005868
0.000542979
0.000489628
0.000419815
0.000321869
0.000178563
2.2178e-05
0.00059608
0.000560119
0.000517044
0.000463048
0.000391576
0.000294211
0.000158801
1.95434e-05
0.000560953
0.000524149
0.000479507
0.000424201
0.000353812
0.000261899
0.000141519
1.77922e-05
0.000588665
0.000549495
0.00050456
0.000449511
0.000378882
0.000284733
0.000157404
2.01355e-05
0.000606012
0.000565006
0.000519728
0.000464901
0.000394262
0.000298957
0.000167557
2.17404e-05
0.000611693
0.000570144
0.00052473
0.000469834
0.000399122
0.000303469
0.000170818
2.22838e-05
0.000604544
0.000564397
0.000519203
0.000464018
0.000393042
0.000297621
0.000166628
2.16522e-05
0.000586878
0.000548312
0.000503256
0.000447744
0.000376635
0.00028241
0.000155887
1.99969e-05
0.00055925
0.000522546
0.000477558
0.000421727
0.000350974
0.000259243
0.000139966
1.76397e-05
0.000566754
0.000527991
0.000481468
0.000424423
0.000352551
0.000259759
0.000139756
1.7772e-05
0.000596458
0.000555001
0.000507779
0.000450589
0.000378174
0.00028287
0.000155706
2.01193e-05
0.000614507
0.000571608
0.000523937
0.000466532
0.000393735
0.000297021
0.000165693
2.1702e-05
0.000620387
0.000577138
0.000529272
0.000471732
0.000398771
0.000301528
0.000168904
2.22317e-05
0.000613568
0.000571113
0.000523405
0.000465763
0.000392756
0.000296
0.000165014
2.16144e-05
0.000594856
0.000553926
0.00050664
0.000449065
0.000376309
0.00028105
0.00015457
1.99758e-05
0.000565089
0.000526467
0.000479713
0.000422341
0.00035032
0.000257825
0.000138728
1.76152e-05
0.000570571
0.000531089
0.000483797
0.000425971
0.00035326
0.000259528
0.000139066
1.78204e-05
0.000600968
0.000558907
0.000510788
0.000452681
0.000379304
0.000283045
0.000155256
2.01731e-05
0.000619535
0.000576251
0.000527311
0.000468803
0.000394923
0.000297181
0.00016521
2.1735e-05
0.00062562
0.000581953
0.000532779
0.000474033
0.000399886
0.000301584
0.000168334
2.22478e-05
0.000618701
0.000575638
0.000526683
0.000468033
0.000394018
0.000296254
0.0001646
2.16331e-05
0.000599601
0.000557826
0.000509539
0.000451123
0.000377585
0.000281439
0.000154295
2.00003e-05
0.00056901
0.000529564
0.000482071
0.000423993
0.000351216
0.000257907
0.000138265
1.76243e-05
0.00057626
0.000536407
0.000488847
0.000430608
0.000357236
0.000262379
0.000140378
1.79613e-05
0.000607504
0.000564788
0.000516201
0.00045771
0.00038377
0.000286413
0.000156866
2.03334e-05
0.000626743
0.000582423
0.000532834
0.000473831
0.000399431
0.000300674
0.000166924
2.19005e-05
0.000633048
0.000588229
0.000538205
0.000478963
0.000404286
0.000305062
0.000170064
2.2409e-05
0.000625694
0.000581595
0.000531964
0.000472885
0.000398376
0.000299719
0.000166383
2.17855e-05
0.000605772
0.000563305
0.000514568
0.000455893
0.000381888
0.000284818
0.000156014
2.01327e-05
0.000574376
0.000534555
0.000486733
0.000428267
0.00035506
0.00026082
0.000139682
1.77259e-05
0.000584713
0.000545001
0.000497672
0.000439552
0.000365872
0.000269715
0.000144615
1.81621e-05
0.000616467
0.000573411
0.00052494
0.000466631
0.000392642
0.000294208
0.000161545
2.05615e-05
0.000636511
0.000591122
0.000541532
0.000482756
0.000408448
0.000308756
0.000171851
2.21436e-05
0.000642984
0.00059697
0.000546819
0.000487712
0.000413191
0.000313229
0.000175135
2.26579e-05
0.000634873
0.000590104
0.000540482
0.000481615
0.000407292
0.000307875
0.000171364
2.20254e-05
0.000614239
0.000571553
0.000522942
0.000464529
0.000390599
0.00029269
0.000160766
2.03388e-05
0.000582318
0.000542531
0.000494899
0.000436746
0.000363486
0.000268151
0.000143972
1.78858e-05
0.000597993
0.000560351
0.000514885
0.000458795
0.000386436
0.000288695
0.000154808
1.96649e-05
0.000627995
0.000587472
0.000541071
0.000484956
0.000412847
0.000313694
0.000172651
2.22488e-05
0.000647016
0.000604533
0.000557188
0.000500664
0.000428376
0.000328538
0.000183618
2.39733e-05
0.000653066
0.000610126
0.000562319
0.000505519
0.000433312
0.000333363
0.000187318
2.45486e-05
0.000645702
0.000603647
0.000556172
0.000499679
0.000427682
0.000328234
0.000183542
2.38902e-05
0.000626435
0.000585877
0.000539295
0.000483256
0.000411472
0.000313021
0.000172444
2.2099e-05
0.000596012
0.00055798
0.000512389
0.000456566
0.00038484
0.000288032
0.00015462
1.94844e-05
0.000560631
0.000523758
0.000478449
0.000422232
0.000351136
0.000259279
0.00014009
1.75466e-05
0.000591411
0.000552567
0.000506759
0.000450228
0.000378314
0.000283807
0.000157115
1.98114e-05
0.000612215
0.000571962
0.000525348
0.0004684
0.000395994
0.000299901
0.000168586
2.13456e-05
0.000621636
0.000580543
0.000533204
0.000475772
0.000403007
0.000306332
0.000173276
2.18578e-05
0.000618261
0.000577236
0.000529589
0.000471803
0.000398951
0.000302666
0.000170679
2.1261e-05
0.000602389
0.000561859
0.000514248
0.000456507
0.000384043
0.000289141
0.000161062
1.96591e-05
0.000574108
0.000535251
0.000488195
0.000430815
0.000359176
0.000266786
0.000145444
1.73513e-05
0.000566066
0.00052727
0.000480205
0.000422499
0.000350289
0.000257687
0.000138689
1.75085e-05
0.000597869
0.00055683
0.000508888
0.000450691
0.000377632
0.000282319
0.000155709
1.97578e-05
0.00061862
0.000576308
0.00052749
0.000468853
0.000395162
0.000298288
0.000167038
2.12597e-05
0.000627521
0.000584461
0.000535073
0.000475984
0.000402037
0.000304677
0.000171684
2.1752e-05
0.000623312
0.000580239
0.000530708
0.000471647
0.00039796
0.000301131
0.000169199
2.11565e-05
0.000605952
0.000563622
0.000514718
0.000456136
0.000383095
0.000287768
0.000159739
1.95713e-05
0.000575908
0.000535923
0.000488104
0.000430202
0.000358124
0.000265288
0.000144064
1.7268e-05
0.000569541
0.000529876
0.00048218
0.000423902
0.000351028
0.000257681
0.000138157
1.75361e-05
0.000601537
0.000559561
0.000510779
0.000452087
0.000378505
0.000282548
0.000155314
1.97757e-05
0.000622199
0.000578793
0.000529055
0.000469778
0.000395734
0.000298368
0.000166516
2.12474e-05
0.000630566
0.000586421
0.000536194
0.000476641
0.000402444
0.000304635
0.000171066
2.17174e-05
0.000625427
0.000581424
0.000531415
0.000472178
0.00039835
0.000301107
0.000168599
2.11106e-05
0.000607146
0.000564291
0.000515213
0.000456645
0.000383513
0.000287757
0.000159156
1.95293e-05
0.000576424
0.000536325
0.000488523
0.000430642
0.000358322
0.000264986
0.000143322
1.72335e-05
0.00057453
0.000534535
0.000486568
0.000428041
0.000354777
0.000260649
0.000139648
1.76349e-05
0.000606502
0.000563812
0.000514862
0.000456067
0.000382317
0.000285673
0.000156891
1.98702e-05
0.000627191
0.000582651
0.000532639
0.000473317
0.000399228
0.000301334
0.000168032
2.13298e-05
0.000635246
0.000589793
0.000539152
0.00047968
0.000405592
0.000307366
0.000172432
2.17848e-05
0.000629033
0.000584186
0.000534071
0.000474993
0.000401311
0.000303662
0.000169831
2.11662e-05
0.000609716
0.000566646
0.000517701
0.000459339
0.000386306
0.000290108
0.000160242
1.95794e-05
0.000578641
0.000538648
0.000491141
0.000433546
0.000361137
0.000267204
0.000144355
1.72847e-05
0.000582228
0.000542381
0.000494653
0.000436442
0.000363235
0.000268084
0.000144071
1.77916e-05
0.000613818
0.000570854
0.00052216
0.000463882
0.000390426
0.00029316
0.000161548
2.00359e-05
0.000633859
0.000588904
0.000539151
0.000480553
0.00040701
0.000308697
0.000172569
2.15092e-05
0.000641199
0.000595248
0.000545018
0.000486335
0.000412932
0.000314441
0.000176714
2.19679e-05
0.000634282
0.000589357
0.000539669
0.00048142
0.000408308
0.000310278
0.000173724
2.13542e-05
0.000614662
0.000571901
0.000523646
0.000466216
0.000393368
0.000296287
0.000163817
1.9762e-05
0.000583675
0.000544242
0.000497472
0.000440318
0.000367932
0.000273154
0.000147755
1.74364e-05
0.00059587
0.000557762
0.000512193
0.00045642
0.000384911
0.000288254
0.000154883
1.94324e-05
0.000625407
0.00058479
0.000538415
0.000482841
0.000411799
0.000314039
0.000173414
2.19289e-05
0.000643261
0.00060137
0.000554226
0.000498652
0.000428067
0.000329921
0.000185197
2.36031e-05
0.000648448
0.000606671
0.000559547
0.000504202
0.000434011
0.000335932
0.000189717
2.41736e-05
0.000642374
0.000600782
0.000554357
0.000499765
0.00042997
0.000331822
0.0001864
2.35713e-05
0.000624355
0.000584458
0.000539478
0.000485541
0.000415322
0.000317467
0.000175603
2.18826e-05
0.000595621
0.00055902
0.000515451
0.00046133
0.00039065
0.000293923
0.000158513
1.93935e-05
0.000576873
0.000538034
0.000491455
0.000434741
0.000363528
0.00027067
0.000147472
1.77788e-05
0.000606448
0.000565122
0.000517734
0.000460809
0.000389181
0.000294238
0.000164035
2.0204e-05
0.000624215
0.000581329
0.000533458
0.000476495
0.000404688
0.000308547
0.000174324
2.18835e-05
0.000628528
0.000585079
0.000537365
0.00048072
0.000409052
0.00031266
0.000177388
2.24911e-05
0.00061816
0.000575948
0.000529117
0.00047306
0.0004018
0.00030593
0.00017249
2.1896e-05
0.000595241
0.000555563
0.000509952
0.00045437
0.000383488
0.000288974
0.000160325
2.02253e-05
0.000562861
0.000525939
0.000481228
0.00042585
0.000355455
0.000263435
0.000142528
1.78346e-05
0.000577922
0.00053774
0.000490163
0.000432672
0.000360838
0.000267642
0.000145023
1.76497e-05
0.000609209
0.000565942
0.000517095
0.000459126
0.000386831
0.000291668
0.00016182
2.00924e-05
0.000628049
0.00058321
0.000533592
0.000475152
0.000402219
0.000305386
0.000171691
2.17415e-05
0.000632787
0.000587822
0.000538339
0.000479884
0.00040677
0.000309444
0.000174644
2.23496e-05
0.000623423
0.000579511
0.000530811
0.000472857
0.000399979
0.000303083
0.000170045
2.17949e-05
0.00060126
0.000559457
0.000511875
0.000454568
0.000382195
0.000286718
0.000158384
2.01815e-05
0.000568191
0.000529435
0.000482981
0.000426015
0.000354241
0.00026135
0.00014083
1.78146e-05
0.00057736
0.000537148
0.000489569
0.000432051
0.000359963
0.000265946
0.000143343
1.75858e-05
0.000608879
0.000565487
0.000516548
0.000458553
0.000386129
0.000289975
0.000159879
2.00046e-05
0.000628217
0.000583288
0.000533347
0.000474672
0.000401448
0.000304083
0.000170255
2.16544e-05
0.000633856
0.00058872
0.000538585
0.000479739
0.000406218
0.000308285
0.00017321
2.22771e-05
0.00062535
0.000581243
0.000531861
0.000473396
0.000399929
0.000302382
0.000168996
2.17613e-05
0.000604169
0.000562019
0.000513853
0.000455847
0.000382703
0.000286484
0.000157717
2.01935e-05
0.000571703
0.000532402
0.000485203
0.000427513
0.000354899
0.000261142
0.000140169
1.78454e-05
0.000578966
0.000538923
0.000491626
0.000434264
0.00036144
0.000266494
0.000143558
1.76249e-05
0.000610831
0.000567311
0.000518536
0.000460716
0.000388044
0.000291037
0.000159888
2.00366e-05
0.000631265
0.000585626
0.000535561
0.000477028
0.000403748
0.000305778
0.000170761
2.17109e-05
0.000638065
0.000591902
0.000541435
0.000482605
0.00040893
0.000310302
0.000173935
2.23653e-05
0.000630322
0.000585304
0.000535486
0.000476905
0.000403206
0.000304814
0.000169973
2.18754e-05
0.000609412
0.000566654
0.00051823
0.000460057
0.00038648
0.000289224
0.000158894
2.03248e-05
0.000577087
0.000537447
0.000490035
0.000431982
0.000358716
0.000263869
0.000141416
1.79806e-05
0.000583861
0.000544518
0.000497975
0.000441142
0.000368199
0.00027209
0.000146859
1.7747e-05
0.000615626
0.00057249
0.000524391
0.000467376
0.000394946
0.000296723
0.000163184
2.01736e-05
0.000636823
0.00059092
0.000541309
0.000483497
0.000410609
0.000311887
0.000174504
2.18749e-05
0.00064501
0.00059789
0.00054772
0.000489466
0.000416149
0.000316921
0.000177983
2.25509e-05
0.000638025
0.00059211
0.000542599
0.000484377
0.000410884
0.000311717
0.000174052
2.20827e-05
0.000617287
0.000574271
0.000526007
0.000468138
0.000394547
0.00029621
0.000162941
2.05331e-05
0.000585274
0.000545761
0.000498526
0.00044057
0.000367081
0.000270916
0.00014543
1.81777e-05
0.000595037
0.0005587
0.000515258
0.000461193
0.000389549
0.000291229
0.000156688
1.94404e-05
0.000624167
0.000584366
0.000539511
0.000485903
0.000415598
0.000316407
0.000173747
2.20063e-05
0.000643484
0.000601423
0.000555079
0.000500557
0.00043065
0.000332034
0.000185504
2.37823e-05
0.000651312
0.000608273
0.000561245
0.000505973
0.000435422
0.000336473
0.000189652
2.45059e-05
0.000645301
0.000603283
0.000556705
0.000501258
0.000430251
0.000331053
0.000185477
2.39554e-05
0.000627399
0.000587241
0.000541325
0.000485849
0.00041426
0.000315405
0.000173851
2.22539e-05
0.000598148
0.000560666
0.000515378
0.000459558
0.000387403
0.000289682
0.000155458
1.97087e-05
8.44224e-06
5.22088e-05
7.08746e-05
8.75609e-05
0.000108442
0.000130946
0.000150712
0.000164835
8.46765e-06
5.19376e-05
7.01704e-05
8.66754e-05
0.000107658
0.000130292
0.000150278
0.000164682
8.47985e-06
5.14936e-05
6.91122e-05
8.52428e-05
0.000106168
0.000128907
0.000149157
0.00016392
8.47653e-06
5.10203e-05
6.8016e-05
8.36829e-05
0.000104421
0.000127244
0.000147774
0.000162909
8.45037e-06
5.05681e-05
6.70329e-05
8.21905e-05
0.000102591
0.0001254
0.000146122
0.000161537
8.41215e-06
5.03154e-05
6.65284e-05
8.13188e-05
0.000101384
0.000124129
0.000144941
0.000160501
8.37992e-06
5.04372e-05
6.68735e-05
8.16933e-05
0.000101664
0.000124408
0.000145241
0.000160803
1.00133e-05
6.47413e-05
9.39663e-05
0.000120693
0.0001479
0.00017359
0.000195494
0.000210856
1.0007e-05
6.39056e-05
9.25313e-05
0.000119198
0.000146636
0.000172764
0.000195189
0.000211043
9.98186e-06
6.2761e-05
9.05706e-05
0.00011706
0.000144728
0.000171368
0.000194385
0.000210795
9.9448e-06
6.16066e-05
8.85823e-05
0.00011486
0.0001428
0.000170011
0.000193612
0.000210525
9.88651e-06
6.05628e-05
8.67811e-05
0.000112773
0.000140882
0.000168522
0.000192546
0.000209792
9.82854e-06
6.00242e-05
8.58501e-05
0.000111616
0.000139774
0.000167616
0.000191836
0.000209214
9.79981e-06
6.03584e-05
8.64601e-05
0.000112273
0.000140419
0.000168195
0.000192356
0.000209669
1.19473e-05
8.04068e-05
0.000119892
0.0001545
0.000187217
0.000216166
0.000240729
0.000257758
1.19033e-05
7.89838e-05
0.000117843
0.000152725
0.000185962
0.000215841
0.000241123
0.00025869
1.18409e-05
7.71868e-05
0.00011532
0.000150548
0.000184433
0.000215251
0.000241239
0.000259354
1.17822e-05
7.55375e-05
0.000113135
0.000148852
0.000183573
0.000215251
0.000241813
0.000260326
1.17099e-05
7.41489e-05
0.000111362
0.000147487
0.000182967
0.000215216
0.000242102
0.000260783
1.16525e-05
7.35839e-05
0.00011071
0.000147058
0.000183
0.00021545
0.000242412
0.000261071
1.16452e-05
7.42997e-05
0.000111762
0.000148122
0.000184037
0.000216254
0.000243063
0.000261596
1.44944e-05
9.52484e-05
0.000144685
0.000188769
0.000229293
0.000264419
0.000291336
0.000308738
1.45323e-05
9.38079e-05
0.000143434
0.000188745
0.000230366
0.000266032
0.000293194
0.00031079
1.45623e-05
9.21403e-05
0.000141857
0.000188567
0.000231254
0.000267266
0.00029465
0.000312499
1.45992e-05
9.11657e-05
0.00014128
0.000189148
0.00023263
0.000268915
0.000296499
0.000314559
1.45938e-05
9.06562e-05
0.000141224
0.00018968
0.00023368
0.000270095
0.000297751
0.000315861
1.45686e-05
9.09245e-05
0.000141907
0.000190325
0.000234562
0.000270996
0.000298629
0.000316666
1.45597e-05
9.1976e-05
0.00014308
0.000191103
0.000235003
0.000271396
0.000298986
0.000316967
1.89046e-05
0.000118392
0.000191546
0.000249784
0.000296467
0.000331607
0.000356183
0.000370113
1.92685e-05
0.000120638
0.000194942
0.000254217
0.000300733
0.000335505
0.000359677
0.000373334
1.95354e-05
0.000122642
0.000196896
0.000257264
0.000303596
0.000338121
0.000362122
0.000375826
1.97353e-05
0.000124153
0.000198536
0.000259249
0.000305513
0.000340023
0.000364179
0.000378227
1.97339e-05
0.000124348
0.000198828
0.000259369
0.000305789
0.000340522
0.000364933
0.000379258
1.96199e-05
0.000123673
0.000198411
0.000258419
0.00030514
0.000340248
0.000364961
0.00037948
1.94909e-05
0.000122788
0.000197347
0.000256902
0.000303823
0.000339202
0.000364197
0.000378955
3.73667e-05
0.000200432
0.000305523
0.000367517
0.000405088
0.000428556
0.00044184
0.00044503
3.83753e-05
0.000203282
0.000308359
0.000370417
0.00040855
0.000432326
0.000445454
0.0004484
3.9132e-05
0.000204688
0.00030841
0.000370688
0.000409581
0.00043394
0.000447331
0.000450645
3.93116e-05
0.000204675
0.000308146
0.0003706
0.000409907
0.00043464
0.000448502
0.000452613
3.88241e-05
0.000202145
0.000305609
0.000368448
0.000408352
0.000433693
0.000448093
0.000452702
3.79252e-05
0.000198782
0.000302266
0.000365371
0.000405818
0.000431853
0.000446857
0.000451832
3.69057e-05
0.000194909
0.000298463
0.000362088
0.000403
0.000429461
0.000444978
0.000450479
8.03735e-06
4.84118e-05
6.23307e-05
7.24479e-05
8.76709e-05
0.000108052
0.00012778
0.000142848
8.00054e-06
4.77449e-05
6.12454e-05
7.12127e-05
8.64355e-05
0.000106852
0.000126884
0.000142401
7.99357e-06
4.76452e-05
6.13225e-05
7.16746e-05
8.71943e-05
0.000107677
0.00012782
0.000143492
8.02756e-06
4.85414e-05
6.34554e-05
7.51759e-05
9.17043e-05
0.000112559
0.000132599
0.000147919
8.08188e-06
4.96763e-05
6.57351e-05
7.84836e-05
9.57032e-05
0.000116808
0.000136648
0.000151476
8.12808e-06
5.03739e-05
6.68208e-05
7.96995e-05
9.69039e-05
0.000117924
0.000137477
0.000151885
8.16731e-06
5.06871e-05
6.70319e-05
7.95433e-05
9.63319e-05
0.000117026
0.000136184
0.000150196
9.35502e-06
5.70366e-05
7.98781e-05
0.000102053
0.000127919
0.000153871
0.000176777
0.000193065
9.27292e-06
5.57228e-05
7.77674e-05
9.95887e-05
0.000125482
0.000151867
0.000175409
0.000192342
9.25326e-06
5.55282e-05
7.76345e-05
9.9516e-05
0.000125402
0.000151825
0.000175518
0.000192694
9.35196e-06
5.76142e-05
8.15554e-05
0.000104524
0.000130612
0.000156501
0.000179443
0.000196014
9.4913e-06
6.00485e-05
8.58037e-05
0.000109749
0.000135999
0.000161338
0.000183408
0.00019916
9.60115e-06
6.14641e-05
8.79892e-05
0.000112212
0.000138368
0.000163289
0.000184772
0.000199934
9.67949e-06
6.20075e-05
8.85338e-05
0.000112516
0.000138322
0.000162831
0.000183899
0.00019866
1.12278e-05
7.20033e-05
0.000107309
0.000141228
0.000175685
0.000206769
0.000231952
0.000248549
1.10741e-05
6.97658e-05
0.000104163
0.00013808
0.000173117
0.000205184
0.000231192
0.000248417
1.10049e-05
6.90477e-05
0.000103191
0.000136953
0.00017197
0.000204217
0.000230496
0.000248069
1.11566e-05
7.19632e-05
0.000107509
0.000141171
0.000175275
0.000206288
0.000231711
0.000248902
1.13882e-05
7.55844e-05
0.000112796
0.000146425
0.000179558
0.000209109
0.00023338
0.000249901
1.15748e-05
7.77845e-05
0.000115856
0.000149365
0.000181845
0.000210436
0.000233931
0.000249938
1.17015e-05
7.8639e-05
0.000116758
0.000149917
0.000181868
0.000209845
0.00023292
0.000248623
1.40158e-05
9.27906e-05
0.000142528
0.00018798
0.000230245
0.000265518
0.000291922
0.000307763
1.38135e-05
9.04867e-05
0.000139806
0.000185705
0.000228803
0.000265074
0.000292047
0.000308372
1.36523e-05
8.91339e-05
0.000137944
0.000183599
0.000226703
0.000263231
0.000290555
0.000307317
1.37302e-05
9.10949e-05
0.000139905
0.000184399
0.000226126
0.000261677
0.000288725
0.000305567
1.39395e-05
9.41232e-05
0.000143254
0.000186531
0.000226641
0.000260837
0.000287328
0.000303999
1.41295e-05
9.60655e-05
0.000145413
0.00018796
0.000227081
0.00026039
0.000286436
0.000302875
1.42688e-05
9.66562e-05
0.000145681
0.000187667
0.00022627
0.000259254
0.000285067
0.000301356
1.78786e-05
0.000116741
0.000186429
0.000244079
0.000291261
0.000328153
0.000354477
0.000369327
1.76057e-05
0.000115138
0.000184422
0.000242483
0.000290093
0.000327568
0.000354588
0.000370151
1.73284e-05
0.000113245
0.000181641
0.000239567
0.0002872
0.000324957
0.000352448
0.000368588
1.72598e-05
0.000112891
0.0001802
0.000237171
0.000284209
0.00032175
0.000349231
0.000365514
1.73717e-05
0.000113677
0.00018037
0.000236281
0.000282597
0.000319617
0.000346717
0.000362765
1.75033e-05
0.000114472
0.000181033
0.000236627
0.000282615
0.000319203
0.000345794
0.000361416
1.76833e-05
0.000114845
0.000181306
0.000236557
0.000282579
0.000318848
0.000345028
0.000360287
3.03302e-05
0.000165588
0.00025772
0.000322536
0.000368213
0.000401236
0.000423433
0.000434075
2.95141e-05
0.000160135
0.000250721
0.000316957
0.000364411
0.000398992
0.000422582
0.000434526
2.89557e-05
0.00015617
0.000245553
0.000312339
0.000360539
0.000395812
0.000420116
0.000432835
2.90722e-05
0.000155647
0.000244565
0.000310692
0.000358382
0.000393285
0.000417324
0.000429913
2.93659e-05
0.000157423
0.000246978
0.000312523
0.000359176
0.00039304
0.000416056
0.000427779
2.99669e-05
0.000160629
0.000251516
0.000316869
0.000362619
0.000395203
0.000416928
0.000427514
3.0791e-05
0.000164559
0.000257588
0.000322252
0.000366667
0.000397776
0.000418113
0.000427613
8.16888e-06
5.06726e-05
6.69272e-05
7.92537e-05
9.58237e-05
0.000116303
0.000135192
0.000148955
8.14383e-06
5.0504e-05
6.69091e-05
7.95191e-05
9.63228e-05
0.000116904
0.000135777
0.000149476
8.1559e-06
5.06519e-05
6.75486e-05
8.08913e-05
9.82919e-05
0.00011917
0.000138124
0.000151791
8.21017e-06
5.10642e-05
6.85896e-05
8.28897e-05
0.000101131
0.000122415
0.000141501
0.000155148
8.28575e-06
5.159e-05
6.97485e-05
8.50442e-05
0.000104219
0.00012592
0.000145144
0.000158786
8.35526e-06
5.20141e-05
7.06537e-05
8.67857e-05
0.0001068
0.000128866
0.000148243
0.000161954
8.40333e-06
5.22045e-05
7.10116e-05
8.76121e-05
0.000108204
0.000130543
0.000150112
0.000164
9.6848e-06
6.20484e-05
8.84911e-05
0.000112259
0.000137772
0.000161981
0.000182765
0.000197276
9.63515e-06
6.19411e-05
8.85876e-05
0.000112489
0.000137987
0.000162089
0.000182713
0.000197084
9.6286e-06
6.22336e-05
8.9456e-05
0.000113825
0.000139533
0.00016368
0.000184229
0.000198504
9.68939e-06
6.29268e-05
9.09106e-05
0.000115947
0.000142009
0.000166392
0.000187002
0.000201255
9.79698e-06
6.38685e-05
9.263e-05
0.000118362
0.000144773
0.000169466
0.000190251
0.000204601
9.90741e-06
6.46918e-05
9.40285e-05
0.000120324
0.000147004
0.000172011
0.000193082
0.000207674
9.98044e-06
6.50126e-05
9.45077e-05
0.000121143
0.000148106
0.000173442
0.00019489
0.000209826
1.17059e-05
7.87382e-05
0.000116724
0.000149551
0.000181078
0.000208616
0.000231412
0.00024694
1.16083e-05
7.85781e-05
0.000116676
0.000149403
0.000180648
0.00020783
0.000230352
0.000245786
1.15429e-05
7.87277e-05
0.000117266
0.000150151
0.000181287
0.000208193
0.000230491
0.000245891
1.15693e-05
7.92851e-05
0.000118444
0.000151732
0.000183023