/*--------------------------------*- C++ -*----------------------------------*\
| =========                 |                                                 |
| \\      /  F ield         | OpenFOAM: The Open Source CFD Toolbox           |
|  \\    /   O peration     | Version:  plus.master.MPPICInterFoam            |
|   \\  /    A nd           | Web:      www.OpenFOAM.com                      |
|    \\/     M anipulation  |                                                 |
\*---------------------------------------------------------------------------*/
FoamFile
{
    version     2.0;
    format      ascii;
    class       volVectorField;
    location    "4.2";
    object      U;
}
// * * * * * * * * * * * * * * * * * * * * * * * * * * * * * * * * * * * * * //

dimensions      [0 1 -1 0 0 0 0];

internalField   nonuniform List<vector> 
11822
(
(-0.0266587 -0.0269307 0.38783)
(-0.0225631 -0.0398015 0.418003)
(-0.0121948 -0.0490977 0.440455)
(0.00160735 -0.0509087 0.444217)
(0.0140284 -0.0459261 0.424418)
(0.0211356 -0.0348546 0.391499)
(0.0219777 -0.0238557 0.353672)
(-0.0374205 -0.027446 0.427465)
(-0.0325429 -0.0414705 0.47646)
(-0.0173246 -0.0504084 0.530892)
(0.00400244 -0.0515274 0.546582)
(0.0229649 -0.0476704 0.500597)
(0.0332488 -0.0361192 0.440378)
(0.033171 -0.0233154 0.388597)
(-0.0488925 -0.0199083 0.465834)
(-0.0426814 -0.03097 0.567132)
(-0.0207972 -0.0380632 0.728493)
(0.00643214 -0.0368627 0.776878)
(0.032001 -0.0371904 0.662004)
(0.0445022 -0.0267829 0.499769)
(0.0446912 -0.0165484 0.419418)
(-0.0540833 -0.00471804 0.491242)
(-0.0466099 -0.00838415 0.653003)
(-0.016613 -0.0102438 0.841227)
(0.00665846 -0.0104118 0.858979)
(0.032015 -0.010452 0.796021)
(0.0492015 -0.00646854 0.551303)
(0.0506253 -0.0033134 0.437962)
(-0.0526755 0.0131949 0.479501)
(-0.0464469 0.0195954 0.614766)
(-0.0209767 0.0193136 0.833266)
(0.00679714 0.0157209 0.835828)
(0.0342059 0.0203696 0.735083)
(0.0488354 0.0178024 0.530272)
(0.0495809 0.0118363 0.431695)
(-0.0430824 0.0259662 0.443477)
(-0.0380202 0.0383283 0.511032)
(-0.0198799 0.046708 0.608887)
(0.00632268 0.0466794 0.637233)
(0.0292963 0.0444486 0.56335)
(0.0413786 0.0341443 0.469057)
(0.041013 0.0227452 0.405832)
(-0.0292342 0.0301431 0.402558)
(-0.0251862 0.0437294 0.440708)
(-0.0126765 0.0533567 0.473794)
(0.00444564 0.0550894 0.483871)
(0.0196812 0.0506501 0.456575)
(0.028302 0.0390668 0.415493)
(0.0287305 0.0269479 0.3722)
(-0.0169073 -0.0142105 0.397896)
(-0.0151978 -0.0227844 0.423242)
(-0.00934435 -0.0306982 0.439624)
(0.000212583 -0.033164 0.441454)
(0.00842842 -0.0280515 0.426024)
(0.0117041 -0.0200697 0.39845)
(0.0113498 -0.0136577 0.36337)
(-0.0237734 -0.0153808 0.431534)
(-0.0232506 -0.0266597 0.464079)
(-0.0141978 -0.0373519 0.488442)
(0.00227557 -0.0404118 0.49383)
(0.0161707 -0.0336283 0.471967)
(0.0209082 -0.0223933 0.436764)
(0.01863 -0.0136079 0.395333)
(-0.0330454 -0.0120144 0.458599)
(-0.0338303 -0.0218716 0.500173)
(-0.0214941 -0.0317089 0.549073)
(0.00492544 -0.0346693 0.573227)
(0.0261611 -0.0281263 0.520668)
(0.0324335 -0.0179105 0.469277)
(0.027255 -0.0101533 0.420405)
(-0.0393422 -0.00167028 0.473008)
(-0.0406329 -0.00444219 0.525685)
(-0.0277823 -0.00854342 0.625513)
(0.00679663 -0.00803807 0.69617)
(0.0339739 -0.00612841 0.574771)
(0.0401761 -0.00321065 0.48944)
(0.0333848 -0.0014903 0.433874)
(-0.0361731 0.0107137 0.466393)
(-0.0374947 0.017327 0.512352)
(-0.0233085 0.0246672 0.577339)
(0.00774132 0.0279431 0.615307)
(0.0308408 0.0225605 0.547223)
(0.0374911 0.0144935 0.482413)
(0.0314804 0.00859963 0.429754)
(-0.0266209 0.0177514 0.443445)
(-0.0269171 0.0282401 0.480145)
(-0.0159072 0.0385861 0.510524)
(0.00488786 0.0412668 0.522284)
(0.0219036 0.0348848 0.494392)
(0.0275741 0.0238035 0.455443)
(0.0240892 0.0146382 0.410308)
(-0.0170627 0.0188671 0.411304)
(-0.0160473 0.0277333 0.441061)
(-0.00902008 0.0369815 0.462044)
(0.0030019 0.0398205 0.467031)
(0.0132463 0.0338797 0.449834)
(0.0171457 0.0241857 0.41925)
(0.0163246 0.0163602 0.38154)
(-0.00472998 -0.000185522 0.402475)
(-0.00462915 -0.00263246 0.426772)
(-0.00357671 -0.00515548 0.441384)
(-0.00131215 -0.00627807 0.442617)
(0.00034355 -0.00494362 0.42874)
(0.000271079 -0.00319606 0.402511)
(-0.000529112 -0.00239438 0.367468)
(-0.00591306 -0.000958179 0.434876)
(-0.00640933 -0.0043717 0.464252)
(-0.00463688 -0.00840647 0.483498)
(-9.96617e-05 -0.0102802 0.486565)
(0.00335959 -0.00741507 0.469719)
(0.00327329 -0.00419946 0.438978)
(0.00167201 -0.00238481 0.399283)
(-0.00799803 -0.000837624 0.45904)
(-0.00968171 -0.00426782 0.494094)
(-0.00698208 -0.00866027 0.517155)
(0.00124257 -0.0107601 0.521785)
(0.00763048 -0.00753832 0.50319)
(0.00743941 -0.00411873 0.466765)
(0.0042727 -0.00201524 0.422915)
(-0.00971815 0.0015136 0.470596)
(-0.0129484 0.000492817 0.509154)
(-0.00975342 -0.000596232 0.534478)
(0.00234692 -0.00112008 0.543867)
(0.011576 -0.000747971 0.518865)
(0.0113034 -0.000200829 0.481755)
(0.00674373 5.80655e-05 0.43456)
(-0.00817832 0.00446026 0.465474)
(-0.0104416 0.00645168 0.502594)
(-0.00741668 0.00947771 0.526558)
(0.00229397 0.0113432 0.534585)
(0.0100493 0.00801721 0.513554)
(0.0100826 0.00484955 0.476106)
(0.00634406 0.00270418 0.430929)
(-0.00523974 0.00553375 0.445697)
(-0.00626232 0.0082762 0.47786)
(-0.00416306 0.012151 0.500646)
(0.00178989 0.0141391 0.505802)
(0.00652675 0.0106743 0.487976)
(0.0066668 0.00664209 0.455181)
(0.00452484 0.00389493 0.413544)
(-0.00275185 0.00524615 0.41598)
(-0.0029405 0.00710445 0.443273)
(-0.00172607 0.00968145 0.460959)
(0.00127749 0.0107653 0.464316)
(0.0036918 0.00874883 0.450001)
(0.00380054 0.00605333 0.422527)
(0.00287286 0.00404458 0.385775)
(0.00349309 0.00823901 0.405007)
(0.00261756 0.00896132 0.430989)
(0.000971627 0.00941017 0.44665)
(-0.0013477 0.00936169 0.448139)
(-0.00410629 0.00885835 0.434575)
(-0.00663197 0.00728996 0.407179)
(-0.00811577 0.00489009 0.369738)
(0.00528838 0.00716976 0.43896)
(0.00430064 0.00747705 0.469276)
(0.00250394 0.00755144 0.488301)
(-1.56683e-05 0.00790244 0.4914)
(-0.00339234 0.00749918 0.476465)
(-0.0069667 0.00668884 0.446352)
(-0.00896464 0.00451178 0.404007)
(0.00657276 0.00512668 0.463346)
(0.00544272 0.00485832 0.496517)
(0.00425989 0.00507033 0.521515)
(0.00146749 0.00505278 0.526865)
(-0.00264405 0.00485295 0.509029)
(-0.00663422 0.0042252 0.476034)
(-0.00978737 0.00283589 0.429358)
(0.00717648 0.00285657 0.474524)
(0.00639228 0.00233716 0.510948)
(0.00511234 0.00207147 0.538057)
(0.00239071 0.00138588 0.546103)
(-0.00157559 0.00121311 0.525027)
(-0.0058948 0.00086952 0.48353)
(-0.00959792 0.000409182 0.440796)
(0.00746844 0.000627099 0.469627)
(0.00645553 -0.000105048 0.504749)
(0.00499867 -0.00122799 0.529764)
(0.00254731 -0.00203221 0.536636)
(-0.000941793 -0.00219016 0.518095)
(-0.00520176 -0.00234442 0.48355)
(-0.00878256 -0.00201365 0.437447)
(0.007183 -0.00149654 0.450173)
(0.00586538 -0.00251751 0.481806)
(0.00410766 -0.00355842 0.502456)
(0.00229669 -0.00437056 0.508095)
(-0.000666785 -0.00452086 0.491418)
(-0.00477762 -0.00478856 0.462497)
(-0.00729025 -0.00385962 0.418739)
(0.00641495 -0.00301953 0.419745)
(0.00534326 -0.00447277 0.448009)
(0.00360829 -0.00546062 0.465656)
(0.00155331 -0.00610031 0.469409)
(-0.00107885 -0.00651932 0.455932)
(-0.00389188 -0.00596169 0.427998)
(-0.00547331 -0.00476423 0.388885)
(0.00954907 0.0136429 0.403464)
(0.00892404 0.0181986 0.434354)
(0.00570171 0.0224561 0.454384)
(-0.000469805 0.0246129 0.45808)
(-0.00728407 0.0217075 0.442447)
(-0.0115325 0.0158198 0.410074)
(-0.0123685 0.00953929 0.366852)
(0.0150563 0.0132029 0.442766)
(0.015037 0.0177678 0.479784)
(0.0111027 0.0214599 0.50435)
(0.00159358 0.0217367 0.505766)
(-0.00981209 0.0224036 0.495182)
(-0.0166659 0.0168006 0.458183)
(-0.0172529 0.00982873 0.406674)
(0.0200953 0.00956111 0.471482)
(0.0196554 0.0118452 0.510889)
(0.0136465 0.012811 0.529593)
(0.00429236 0.0139293 0.556948)
(-0.00934057 0.0141149 0.529934)
(-0.0214964 0.0123915 0.499086)
(-0.0225378 0.0068584 0.437834)
(0.0223751 0.00363628 0.483869)
(0.0206421 0.00316635 0.520266)
(0.0154298 0.00249426 0.56118)
(0.00662265 0.00267985 0.581439)
(-0.0079991 0.00317296 0.556518)
(-0.0217071 0.00183923 0.519294)
(-0.0255407 0.000584978 0.453474)
(0.0216485 -0.0025658 0.478877)
(0.0201849 -0.005297 0.516419)
(0.015295 -0.00747162 0.548825)
(0.00766485 -0.00928091 0.563778)
(-0.00685575 -0.00998714 0.538215)
(-0.0217192 -0.0099008 0.510108)
(-0.0231064 -0.00640722 0.447498)
(0.0185478 -0.00729489 0.456669)
(0.0179682 -0.01205 0.495066)
(0.0122646 -0.0152689 0.515054)
(0.00444927 -0.018472 0.519613)
(-0.00661017 -0.0206952 0.514913)
(-0.0165302 -0.0166001 0.478181)
(-0.017358 -0.0107525 0.423688)
(0.0138732 -0.0094728 0.421086)
(0.0129897 -0.0151153 0.455094)
(0.00894349 -0.0202975 0.476794)
(0.00258082 -0.0230431 0.482019)
(-0.00491233 -0.0224299 0.467324)
(-0.0103256 -0.0172957 0.43415)
(-0.0112228 -0.0118917 0.387876)
(0.00896466 0.0119225 0.393122)
(0.0101585 0.0195054 0.429542)
(0.00704111 0.0262032 0.455653)
(1.79855e-05 0.0287875 0.462961)
(-0.00702714 0.0234674 0.443809)
(-0.00998223 0.0152506 0.404427)
(-0.00853697 0.0069414 0.35615)
(0.0175382 0.0144063 0.438956)
(0.019364 0.0229105 0.491174)
(0.0133079 0.0296962 0.538612)
(0.00235462 0.0319573 0.593041)
(-0.010534 0.0278353 0.532674)
(-0.018031 0.0193671 0.468774)
(-0.0156681 0.00949778 0.400835)
(0.0262414 0.0120541 0.47542)
(0.0273696 0.0177346 0.546977)
(0.0159388 0.0207709 0.626418)
(0.00204411 0.0210754 0.637623)
(-0.0135245 0.0219074 0.65425)
(-0.0271837 0.0157123 0.535194)
(-0.0237241 0.00760303 0.438201)
(0.0321773 0.00510095 0.493649)
(0.0293985 0.00667671 0.576653)
(0.0163228 0.00821242 0.626135)
(0.00423896 0.00873595 0.655201)
(-0.0144489 0.00672067 0.665834)
(-0.0333349 0.00371044 0.59265)
(-0.0286939 0.000798746 0.457233)
(0.0312541 -0.00362919 0.486206)
(0.0310741 -0.00735969 0.559403)
(0.0186008 -0.00787316 0.603474)
(0.00387419 -0.00807933 0.639878)
(-0.0165617 -0.0133183 0.702634)
(-0.0306764 -0.0118461 0.556955)
(-0.0258885 -0.00729425 0.450344)
(0.0246521 -0.00980818 0.457312)
(0.0272281 -0.0192503 0.517702)
(0.0189477 -0.0269028 0.577277)
(0.00319933 -0.0286439 0.594364)
(-0.0135299 -0.0281024 0.573145)
(-0.0220892 -0.0209017 0.497645)
(-0.018522 -0.0120085 0.420488)
(0.015893 -0.0105655 0.414006)
(0.0173469 -0.0208225 0.45699)
(0.0119911 -0.0309185 0.488134)
(0.00201318 -0.0349146 0.497016)
(-0.00761299 -0.029026 0.477365)
(-0.0120067 -0.0204079 0.433237)
(-0.00991613 -0.0120355 0.37865)
(0.0175684 -0.0175609 0.318042)
(0.0131192 -0.0135275 0.289073)
(0.00955232 -0.0105779 0.261312)
(0.00662424 -0.00843119 0.235301)
(0.00407855 -0.00687662 0.210941)
(0.00181903 -0.00572654 0.187985)
(-0.000157139 -0.00491882 0.164393)
(-0.00205073 -0.00428323 0.131502)
(0.0258517 -0.016715 0.344193)
(0.0191347 -0.0122003 0.307936)
(0.0139885 -0.00928209 0.274849)
(0.00984163 -0.00716548 0.244463)
(0.00642636 -0.00584283 0.216382)
(0.00358847 -0.00505878 0.190311)
(0.00120442 -0.00467811 0.164125)
(-0.000990344 -0.0046178 0.12865)
(0.0350176 -0.0114951 0.365804)
(0.0263318 -0.00820601 0.323941)
(0.0194709 -0.006118 0.286838)
(0.0139489 -0.00477868 0.253414)
(0.00944709 -0.00406951 0.222423)
(0.00585321 -0.00384127 0.193917)
(0.00292829 -0.00398647 0.165771)
(0.000358674 -0.00450367 0.128324)
(0.0404546 -0.00181746 0.377689)
(0.0307997 -0.000954048 0.332768)
(0.0229131 -0.000474663 0.293826)
(0.0165637 -0.000435514 0.259051)
(0.0114231 -0.000788632 0.227209)
(0.00739244 -0.00142752 0.197669)
(0.00421943 -0.00225966 0.168716)
(0.0015274 -0.00338909 0.130456)
(0.0391931 0.00905656 0.374405)
(0.0297363 0.00720186 0.331352)
(0.0221604 0.005788 0.293949)
(0.016154 0.00436173 0.26069)
(0.0113307 0.00283844 0.229838)
(0.00755153 0.00133291 0.20074)
(0.00458439 -0.000130037 0.172308)
(0.00210276 -0.00176425 0.134569)
(0.0318276 0.0169319 0.358079)
(0.023857 0.0131044 0.320718)
(0.017802 0.0102027 0.287386)
(0.0131053 0.00761833 0.257418)
(0.0093268 0.00536249 0.229176)
(0.00628972 0.0034237 0.202426)
(0.00385401 0.00165284 0.175913)
(0.00180871 -0.000116598 0.140033)
(0.0228346 0.0199152 0.334425)
(0.0174382 0.015486 0.304655)
(0.0133205 0.0120756 0.276677)
(0.0100101 0.00917765 0.250703)
(0.00721373 0.006699 0.226401)
(0.00485845 0.00452235 0.203311)
(0.00296406 0.00253516 0.179664)
(0.00140853 0.000545281 0.14646)
(0.00867314 -0.0103952 0.327714)
(0.00598785 -0.00825145 0.298107)
(0.00387841 -0.00688765 0.269306)
(0.00215523 -0.00603065 0.242403)
(0.000572466 -0.00554704 0.217422)
(-0.000851502 -0.00527663 0.194162)
(-0.00214619 -0.00517359 0.170493)
(-0.00344139 -0.00508024 0.137745)
(0.0137516 -0.00980781 0.353783)
(0.00976171 -0.00737471 0.317422)
(0.00674709 -0.00597518 0.283371)
(0.00440128 -0.00515407 0.252076)
(0.0023869 -0.00494884 0.223057)
(0.000707956 -0.00503506 0.196505)
(-0.00076431 -0.00532627 0.170095)
(-0.00221543 -0.00575951 0.134603)
(0.0196483 -0.00685424 0.373733)
(0.0143001 -0.00506519 0.33337)
(0.0103032 -0.00415286 0.295911)
(0.00718035 -0.00375253 0.261718)
(0.00465937 -0.00392353 0.229518)
(0.00264799 -0.00435065 0.200332)
(0.000948749 -0.00497807 0.171804)
(-0.00065427 -0.00581707 0.134185)
(0.0236858 -0.000764912 0.384123)
(0.0174339 -0.00050091 0.342122)
(0.0127967 -0.000569104 0.303265)
(0.00916889 -0.00101235 0.267904)
(0.006336 -0.00177241 0.234774)
(0.00414361 -0.0026462 0.204405)
(0.00236826 -0.00364812 0.174973)
(0.000768191 -0.00484778 0.136439)
(0.0226679 0.00620467 0.38163)
(0.0168107 0.00459618 0.340996)
(0.0125236 0.00342374 0.30355)
(0.0092361 0.00210055 0.269561)
(0.0067133 0.000785423 0.23767)
(0.0047114 -0.00048379 0.207832)
(0.00308489 -0.00178681 0.178959)
(0.00164925 -0.00324789 0.140927)
(0.0178773 0.0107766 0.367248)
(0.0132757 0.00796201 0.33081)
(0.00995103 0.00604564 0.297058)
(0.00749366 0.00422136 0.266274)
(0.00556738 0.00268942 0.237153)
(0.00400656 0.00132367 0.209917)
(0.00273363 -1.15028e-05 0.18311)
(0.00161502 -0.00141336 0.147013)
(0.0128564 0.01214 0.344836)
(0.00989163 0.00933452 0.315084)
(0.00756545 0.00725479 0.286404)
(0.00581903 0.00541172 0.259706)
(0.00433873 0.0037644 0.234889)
(0.00309824 0.00226949 0.211537)
(0.00215006 0.000831231 0.187725)
(0.0014315 -0.000712573 0.154385)
(-0.00130085 -0.0022856 0.33081)
(-0.0018982 -0.00237354 0.300508)
(-0.00236049 -0.00281229 0.270961)
(-0.00276343 -0.00332999 0.243718)
(-0.00320818 -0.00393641 0.218781)
(-0.00367275 -0.00454814 0.195681)
(-0.00417053 -0.00515106 0.172251)
(-0.00470853 -0.00563937 0.139906)
(0.000273313 -0.00206603 0.357339)
(-0.000688173 -0.00190072 0.320112)
(-0.00121799 -0.00238531 0.285307)
(-0.00158963 -0.00303097 0.253522)
(-0.00195512 -0.00392314 0.224314)
(-0.00234723 -0.00484408 0.197794)
(-0.00280303 -0.00577549 0.171523)
(-0.00335982 -0.00665626 0.136339)
(0.00203414 -0.00157238 0.377264)
(0.000778775 -0.00153512 0.336397)
(8.08592e-05 -0.00202344 0.298156)
(-0.000276532 -0.00273386 0.263313)
(-0.000522337 -0.00370285 0.23071)
(-0.000806001 -0.00472747 0.201446)
(-0.00114875 -0.00579907 0.172971)
(-0.00162215 -0.00688545 0.135574)
(0.00369006 -8.20075e-05 0.387435)
(0.00217798 -0.000440124 0.345211)
(0.00133976 -0.00103628 0.305761)
(0.00090004 -0.00184015 0.269744)
(0.000682286 -0.00282671 0.236055)
(0.000518165 -0.00385875 0.205517)
(0.000336814 -0.00495793 0.176079)
(1.43312e-05 -0.00612351 0.137683)
(0.00375298 0.00172046 0.384883)
(0.00245789 0.000852279 0.344136)
(0.00180498 0.000129937 0.306088)
(0.0015346 -0.000678085 0.271363)
(0.00147627 -0.00160027 0.238905)
(0.0014386 -0.00254609 0.209057)
(0.00136234 -0.00356917 0.180216)
(0.00117299 -0.00472708 0.142287)
(0.00283573 0.002689 0.370934)
(0.00194345 0.001609 0.334006)
(0.00155221 0.000949628 0.299628)
(0.00146033 0.000266776 0.268262)
(0.00148275 -0.00043683 0.238761)
(0.00152098 -0.00117588 0.211616)
(0.00154524 -0.00198058 0.184889)
(0.00149865 -0.00291601 0.148877)
(0.0020638 0.00292211 0.348491)
(0.00160872 0.00208224 0.318301)
(0.0013241 0.0015113 0.289157)
(0.00124083 0.00090368 0.262214)
(0.00119284 0.00023156 0.23748)
(0.00122464 -0.000525389 0.214211)
(0.00139015 -0.00129511 0.19045)
(0.00167129 -0.00228167 0.157146)
(-0.00767541 0.00295961 0.330856)
(-0.00690929 0.00134641 0.298581)
(-0.00628657 -0.000296628 0.268999)
(-0.00579877 -0.00177332 0.241911)
(-0.00543589 -0.00308597 0.217425)
(-0.00522434 -0.00424894 0.194806)
(-0.00518296 -0.00523524 0.171853)
(-0.00514946 -0.0060145 0.140062)
(-0.00855571 0.00298401 0.358885)
(-0.00745003 0.00145967 0.319333)
(-0.00629317 -0.000295027 0.283416)
(-0.00530227 -0.00195157 0.251238)
(-0.00453891 -0.00352393 0.222375)
(-0.00405409 -0.004936 0.196299)
(-0.00384732 -0.0061856 0.170483)
(-0.00376995 -0.00722987 0.135871)
(-0.00945455 0.00168866 0.379884)
(-0.00814776 0.00044159 0.336177)
(-0.00655015 -0.000995505 0.296177)
(-0.00501605 -0.00240347 0.260468)
(-0.00373931 -0.00387617 0.228155)
(-0.00284357 -0.00524017 0.199343)
(-0.00230438 -0.0065145 0.171297)
(-0.00200056 -0.00765719 0.134481)
(-0.00943437 -0.000267983 0.390366)
(-0.00806333 -0.00103357 0.345378)
(-0.00622075 -0.0019102 0.304006)
(-0.00436643 -0.00287716 0.267041)
(-0.00276605 -0.00394546 0.233216)
(-0.00157203 -0.00502776 0.20306)
(-0.000775635 -0.00612537 0.174036)
(-0.00025563 -0.00717359 0.136196)
(-0.00846816 -0.0022607 0.387778)
(-0.00694723 -0.00249036 0.344207)
(-0.00509167 -0.00273296 0.304303)
(-0.00326966 -0.00314999 0.26863)
(-0.00166936 -0.0037198 0.235946)
(-0.000396203 -0.00440525 0.206572)
(0.000514152 -0.00521439 0.178129)
(0.00115403 -0.00608919 0.140683)
(-0.00673029 -0.00364941 0.372847)
(-0.00518818 -0.00339499 0.333568)
(-0.00359011 -0.00307734 0.297838)
(-0.00207063 -0.00295225 0.265905)
(-0.000726542 -0.00308965 0.236387)
(0.000358039 -0.0033978 0.209683)
(0.00121773 -0.00387257 0.183285)
(0.00189757 -0.00446762 0.147613)
(-0.00473551 -0.0040131 0.34908)
(-0.00349806 -0.00346933 0.317444)
(-0.00234599 -0.0029766 0.287725)
(-0.00129866 -0.00272107 0.260888)
(-0.00039493 -0.00269073 0.236454)
(0.000560088 -0.002963 0.213385)
(0.00150124 -0.00334628 0.189775)
(0.00248178 -0.00387617 0.156584)
(-0.00994826 0.00528275 0.324398)
(-0.0077202 0.00221069 0.291628)
(-0.00609798 -0.000483723 0.261426)
(-0.00503006 -0.00254258 0.234418)
(-0.00441567 -0.0040592 0.21033)
(-0.00421283 -0.00513821 0.188049)
(-0.004219 -0.00599236 0.165123)
(-0.00475761 -0.00619234 0.132494)
(-0.0134619 0.00577872 0.354619)
(-0.00977935 0.00248777 0.312423)
(-0.00696599 -0.000367821 0.275575)
(-0.00493889 -0.00275913 0.243152)
(-0.00365496 -0.00462429 0.214714)
(-0.00305751 -0.00606295 0.189061)
(-0.00278723 -0.00726161 0.1634)
(-0.00337324 -0.0077859 0.128088)
(-0.0173314 0.00375251 0.378975)
(-0.0125434 0.00118428 0.330113)
(-0.00852296 -0.00114751 0.288089)
(-0.00542646 -0.00315195 0.251578)
(-0.0032295 -0.00482093 0.219704)
(-0.00194206 -0.00623618 0.191326)
(-0.00112525 -0.00749579 0.163628)
(-0.00148124 -0.00829305 0.126281)
(-0.0192023 -0.000611098 0.391044)
(-0.0137832 -0.00169578 0.33973)
(-0.00907633 -0.00280165 0.29558)
(-0.00528953 -0.00389332 0.257766)
(-0.00250504 -0.0049432 0.224247)
(-0.000760349 -0.0059952 0.194725)
(0.00044212 -0.00702167 0.166054)
(0.000350497 -0.00788878 0.12777)
(-0.0173606 -0.00537673 0.387315)
(-0.0120851 -0.00482065 0.338167)
(-0.00757315 -0.00450532 0.295842)
(-0.00395514 -0.00453624 0.259404)
(-0.00127885 -0.00485198 0.226937)
(0.000464972 -0.0054228 0.198145)
(0.0017484 -0.00611274 0.169971)
(0.00185008 -0.00698004 0.132026)
(-0.0129457 -0.00832257 0.369785)
(-0.00849676 -0.00658303 0.326801)
(-0.00488853 -0.0052762 0.289575)
(-0.00209783 -0.0044927 0.257167)
(-1.99688e-05 -0.00428349 0.227993)
(0.00139417 -0.00444613 0.201651)
(0.00251556 -0.00479092 0.175305)
(0.00275325 -0.00554355 0.138933)
(-0.00813032 -0.00883402 0.343349)
(-0.00504225 -0.00676511 0.309902)
(-0.00252432 -0.00524414 0.279899)
(-0.000645474 -0.00429589 0.253537)
(0.000777912 -0.00398027 0.22919)
(0.00192426 -0.00409174 0.206093)
(0.00299959 -0.00433358 0.182241)
(0.00359278 -0.00504642 0.148049)
(-0.00389282 0.00135487 0.31325)
(-0.000220281 -0.00295575 0.282207)
(0.00240437 -0.00649161 0.256439)
(0.0041642 -0.00897541 0.234704)
(0.00500453 -0.0106139 0.216749)
(0.00494995 -0.0113808 0.20225)
(0.00379291 -0.0111753 0.190997)
(0.00102758 -0.0094962 0.182151)
(-0.00838245 0.00365087 0.343874)
(-0.00246819 -0.000739864 0.301793)
(0.00179354 -0.00424467 0.26821)
(0.00474995 -0.0069505 0.240507)
(0.00651184 -0.00889271 0.21799)
(0.00706803 -0.0100655 0.200069)
(0.00623588 -0.0104245 0.186227)
(0.00320974 -0.00943257 0.175871)
(-0.01393 0.00301538 0.369121)
(-0.00614435 -0.000333122 0.318958)
(-0.000212211 -0.00309287 0.278766)
(0.00414003 -0.00533758 0.246192)
(0.00703894 -0.00705321 0.220092)
(0.00845879 -0.00828818 0.199458)
(0.00823089 -0.00900809 0.183481)
(0.00528837 -0.00880563 0.171546)
(-0.017166 -0.000801071 0.382292)
(-0.00820014 -0.00208271 0.328042)
(-0.00125664 -0.00322697 0.285077)
(0.00390953 -0.00427844 0.250944)
(0.00749953 -0.00524306 0.223275)
(0.00947282 -0.00612927 0.201318)
(0.00969377 -0.0068933 0.184296)
(0.00697431 -0.00733608 0.171392)
(-0.0151454 -0.0054706 0.378302)
(-0.00665721 -0.00439175 0.326566)
(-8.21897e-05 -0.00370454 0.285787)
(0.00483557 -0.00345942 0.253215)
(0.00823383 -0.00354691 0.226348)
(0.0101481 -0.00396132 0.20471)
(0.0104852 -0.00469636 0.187675)
(0.00808985 -0.00582957 0.174149)
(-0.00972966 -0.00792432 0.359456)
(-0.002694 -0.00514797 0.315761)
(0.00256391 -0.00318289 0.281068)
(0.00642275 -0.00194202 0.252931)
(0.00904885 -0.00139942 0.229204)
(0.0104697 -0.00144428 0.209598)
(0.0106253 -0.00214164 0.193724)
(0.0085241 -0.00381036 0.180205)
(-0.00405584 -0.00734155 0.332262)
(0.00059995 -0.00402314 0.299951)
(0.00425223 -0.00159113 0.27333)
(0.00692046 0.000117544 0.251742)
(0.00885001 0.000931236 0.232947)
(0.00988254 0.00102248 0.216341)
(0.00994066 0.000293639 0.202231)
(0.00830028 -0.00170591 0.189004)
(-0.023559 0.0219143 0.367814)
(-0.0175772 0.0167887 0.33932)
(-0.0131439 0.0134853 0.313165)
(-0.00948653 0.0107642 0.2888)
(-0.00639286 0.00847198 0.266235)
(-0.00359716 0.00661717 0.244654)
(-0.00111117 0.00518209 0.22198)
(0.00121006 0.00399016 0.18792)
(-0.0350135 0.0192371 0.396578)
(-0.0261137 0.0150891 0.360779)
(-0.0190882 0.0125398 0.329347)
(-0.0135876 0.0105035 0.301294)
(-0.0090712 0.00854437 0.275876)
(-0.00530574 0.00707769 0.252086)
(-0.00213192 0.0059921 0.227391)
(0.000594349 0.00509284 0.191248)
(-0.0451384 0.0102557 0.418619)
(-0.0350177 0.00887929 0.376414)
(-0.0261502 0.00815125 0.341007)
(-0.0189105 0.00766643 0.310206)
(-0.0129263 0.00691233 0.282518)
(-0.00805676 0.00638456 0.257063)
(-0.00404993 0.00601781 0.230977)
(-0.000707188 0.00562764 0.193283)
(-0.0476958 -0.00243885 0.42495)
(-0.0378331 -0.000579115 0.380694)
(-0.0287942 0.000966744 0.34425)
(-0.0212208 0.0022257 0.312604)
(-0.0149038 0.00318167 0.284427)
(-0.00976923 0.00399195 0.258442)
(-0.00557238 0.00464135 0.231904)
(-0.00203892 0.00497758 0.193726)
(-0.0419711 -0.0133343 0.411266)
(-0.0331013 -0.00869626 0.371573)
(-0.0254827 -0.0053165 0.337523)
(-0.0191444 -0.00264981 0.307653)
(-0.0138969 -0.000297154 0.280825)
(-0.00953437 0.00161245 0.255639)
(-0.00596397 0.00310264 0.229786)
(-0.00285794 0.00406784 0.192294)
(-0.0315734 -0.0185854 0.38642)
(-0.0248469 -0.0126058 0.35337)
(-0.0195232 -0.00823788 0.323813)
(-0.0151493 -0.00486626 0.29709)
(-0.0115481 -0.00195062 0.272565)
(-0.00848167 0.000394243 0.24936)
(-0.00589111 0.00223595 0.225053)
(-0.00346326 0.00349351 0.189235)
(-0.0231576 -0.018366 0.357457)
(-0.0189175 -0.0127509 0.331141)
(-0.0154471 -0.008575 0.306485)
(-0.0126368 -0.00534455 0.283358)
(-0.0101745 -0.00257463 0.261646)
(-0.00802459 -0.000287369 0.240692)
(-0.00611594 0.00156411 0.218269)
(-0.00413855 0.00291752 0.184499)
(-0.0134243 0.0139201 0.37963)
(-0.00978919 0.0110849 0.352124)
(-0.007083 0.00905307 0.325531)
(-0.00488418 0.00750126 0.30067)
(-0.00292663 0.00627524 0.277644)
(-0.00109975 0.00529479 0.255776)
(0.000521993 0.00454607 0.23254)
(0.00204066 0.00383724 0.198037)
(-0.0201684 0.0129411 0.405733)
(-0.0147093 0.0103148 0.372606)
(-0.0106217 0.00889649 0.341686)
(-0.00737781 0.0075727 0.313344)
(-0.00468115 0.00660511 0.287402)
(-0.00235483 0.00590934 0.263093)
(-0.000382806 0.0054151 0.237951)
(0.00136051 0.00490911 0.201297)
(-0.027348 0.00825013 0.42378)
(-0.0204793 0.00710525 0.3871)
(-0.0151993 0.00682255 0.353153)
(-0.0108586 0.00637353 0.322193)
(-0.00733147 0.00606005 0.294134)
(-0.00437831 0.00586079 0.268074)
(-0.00194669 0.00572263 0.241455)
(0.000144215 0.00541122 0.203155)
(-0.0299599 8.15662e-05 0.428606)
(-0.0228442 0.00133753 0.390736)
(-0.017332 0.0024321 0.356097)
(-0.0126941 0.00325275 0.324457)
(-0.00895845 0.00395952 0.295512)
(-0.00587852 0.00453838 0.269113)
(-0.00333661 0.00496181 0.242098)
(-0.0011051 0.0050156 0.203319)
(-0.0258122 -0.00686439 0.418042)
(-0.0200426 -0.00361803 0.382532)
(-0.0155319 -0.00149814 0.349522)
(-0.0118149 0.000319463 0.319191)
(-0.00872832 0.00183283 0.29162)
(-0.00618246 0.00302798 0.265905)
(-0.00403391 0.0039156 0.239539)
(-0.00202304 0.0043091 0.201501)
(-0.019309 -0.00957547 0.39656)
(-0.0153009 -0.00562372 0.364978)
(-0.012208 -0.0030979 0.335309)
(-0.00975559 -0.000950227 0.307886)
(-0.00767362 0.000795408 0.282646)
(-0.00591606 0.00216841 0.258874)
(-0.00436458 0.00320432 0.234172)
(-0.00272872 0.00374249 0.197969)
(-0.0146477 -0.00909524 0.368984)
(-0.0121657 -0.00569331 0.342776)
(-0.0101644 -0.00333361 0.317283)
(-0.0085838 -0.00140191 0.293258)
(-0.00719876 0.000183133 0.270862)
(-0.00596163 0.00148069 0.24944)
(-0.00480595 0.00250151 0.22671)
(-0.00342191 0.00315278 0.19271)
(-0.00166439 0.00438517 0.3851)
(-0.000692273 0.00381127 0.357842)
(2.21699e-05 0.00353797 0.330929)
(0.000612142 0.00345407 0.305767)
(0.00117214 0.00346941 0.282554)
(0.00171746 0.0035258 0.260519)
(0.00223735 0.00359261 0.237316)
(0.00274443 0.00348622 0.202735)
(-0.00347471 0.00452075 0.410277)
(-0.00209268 0.00407253 0.377987)
(-0.00110804 0.00398279 0.347043)
(-0.000352994 0.00402553 0.31845)
(0.000291539 0.00416449 0.292375)
(0.000890032 0.00434421 0.267972)
(0.00143588 0.00452459 0.242733)
(0.00200576 0.0044868 0.205896)
(-0.00562085 0.00398985 0.426841)
(-0.0040001 0.00400192 0.391862)
(-0.00280134 0.00420577 0.358266)
(-0.00183257 0.00441089 0.32724)
(-0.00103829 0.00464926 0.299015)
(-0.000338074 0.00486608 0.27282)
(0.000268312 0.00502654 0.246061)
(0.000896049 0.00487768 0.207511)
(-0.00683439 0.00228128 0.431106)
(-0.00520825 0.00293308 0.395469)
(-0.00394965 0.00348381 0.360981)
(-0.00295506 0.00397081 0.329073)
(-0.00215165 0.00439637 0.300464)
(-0.00146383 0.00471797 0.273504)
(-0.000860379 0.00490721 0.246406)
(-0.000187081 0.00469835 0.207386)
(-0.0060379 0.000901291 0.421569)
(-0.00486218 0.00204864 0.387156)
(-0.00398519 0.00279404 0.354163)
(-0.00328174 0.00343236 0.323659)
(-0.00274573 0.00392693 0.295781)
(-0.00226643 0.00428762 0.269927)
(-0.00178711 0.00447001 0.243472)
(-0.00111341 0.00422226 0.205252)
(-0.00485519 0.000752324 0.401119)
(-0.00412964 0.00202556 0.3697)
(-0.00365751 0.00271998 0.339686)
(-0.00331807 0.00326257 0.311916)
(-0.00306395 0.00364302 0.286431)
(-0.00279967 0.00389667 0.262499)
(-0.00247688 0.00397799 0.237709)
(-0.00183656 0.00368272 0.201382)
(-0.00428109 0.00117545 0.373561)
(-0.00394033 0.00209404 0.346993)
(-0.00370054 0.00260188 0.32095)
(-0.00357953 0.00295966 0.29649)
(-0.0034569 0.00320313 0.273755)
(-0.00329546 0.00336285 0.252331)
(-0.00307 0.00339017 0.229666)
(-0.00249454 0.00320022 0.195737)
(0.00611718 -0.0019487 0.387236)
(0.00542691 -0.00110772 0.358631)
(0.0047494 -0.000125223 0.331199)
(0.00418803 0.000819151 0.305829)
(0.0037232 0.00167294 0.282601)
(0.00337474 0.00238836 0.260784)
(0.00315464 0.00291943 0.237762)
(0.00294477 0.00315109 0.203293)
(0.00695501 -0.000997171 0.413505)
(0.00602599 -0.000289993 0.379848)
(0.00497458 0.000655449 0.347988)
(0.00401859 0.00162257 0.318896)
(0.00323486 0.00248745 0.292597)
(0.00266872 0.00320949 0.268231)
(0.00233137 0.00375061 0.243058)
(0.00215328 0.00394351 0.206298)
(0.00733814 0.00104074 0.430334)
(0.00637804 0.00158796 0.393992)
(0.00511926 0.00222742 0.359202)
(0.00387494 0.00288192 0.327526)
(0.00280071 0.00345683 0.299017)
(0.0019813 0.00392378 0.272804)
(0.00143635 0.00423011 0.246037)
(0.00115322 0.0041462 0.207643)
(0.00703909 0.00328561 0.434471)
(0.00602852 0.00362676 0.397237)
(0.00465747 0.00389792 0.361831)
(0.0032915 0.0041458 0.329657)
(0.00209065 0.00433407 0.300247)
(0.00116987 0.00446058 0.273454)
(0.000541154 0.00445981 0.246158)
(0.000249968 0.0040559 0.207244)
(0.0062145 0.00545962 0.424686)
(0.00499422 0.00549987 0.388761)
(0.00357369 0.00534689 0.354691)
(0.00221145 0.00514325 0.323429)
(0.00103336 0.00492751 0.295382)
(0.00015116 0.00469602 0.269476)
(-0.000418581 0.0043884 0.24304)
(-0.000583284 0.00370875 0.204885)
(0.00467039 0.00714478 0.403406)
(0.00336051 0.00683541 0.370443)
(0.0020591 0.00627025 0.339428)
(0.000891839 0.00565537 0.311037)
(-9.82968e-05 0.00508414 0.2855)
(-0.00080687 0.00456281 0.261659)
(-0.00121146 0.00402236 0.236993)
(-0.00118904 0.00319602 0.20081)
(0.00281574 0.00760746 0.374265)
(0.00171336 0.00694499 0.346461)
(0.00071263 0.00616819 0.319698)
(-0.000148597 0.00541996 0.295142)
(-0.000865503 0.00474086 0.272641)
(-0.00141298 0.0041259 0.25127)
(-0.00174064 0.00353623 0.228749)
(-0.00170023 0.0027903 0.195019)
(0.011246 -0.00599711 0.384138)
(0.00858849 -0.0034807 0.353439)
(0.00643837 -0.00123691 0.324979)
(0.00481456 0.000562401 0.299483)
(0.00369145 0.00185381 0.276576)
(0.00300919 0.00270276 0.255156)
(0.0025813 0.00324711 0.232506)
(0.00266542 0.00306351 0.197944)
(0.0148828 -0.00481918 0.413554)
(0.0109896 -0.00268972 0.37618)
(0.00764371 -0.000666284 0.342386)
(0.00504522 0.00106395 0.312716)
(0.0032032 0.00236137 0.286614)
(0.0020841 0.00322938 0.262749)
(0.00142236 0.00378564 0.238165)
(0.00168837 0.00360478 0.201537)
(0.017621 -0.00113375 0.432524)
(0.0132367 4.30717e-05 0.391459)
(0.00911097 0.00120761 0.354252)
(0.00565873 0.00222056 0.321583)