/*--------------------------------*- C++ -*----------------------------------*\
| =========                 |                                                 |
| \\      /  F ield         | OpenFOAM: The Open Source CFD Toolbox           |
|  \\    /   O peration     | Version:  plus.master.MPPICInterFoam            |
|   \\  /    A nd           | Web:      www.OpenFOAM.com                      |
|    \\/     M anipulation  |                                                 |
\*---------------------------------------------------------------------------*/
FoamFile
{
    version     2.0;
    format      ascii;
    class       volScalarField;
    location    "13.6";
    object      epsilon;
}
// * * * * * * * * * * * * * * * * * * * * * * * * * * * * * * * * * * * * * //

dimensions      [0 2 -3 0 0 0 0];

internalField   nonuniform List<scalar> 
11821
(
0.457086
0.604042
0.42862
0.677741
0.511708
0.370843
0.525196
0.579964
0.58067
0.530408
0.450482
0.361813
0.278359
0.732802
0.830836
0.831839
0.733862
0.600257
0.465988
0.348784
0.932327
0.985852
1.03175
0.960283
0.760033
0.568627
0.413126
0.973596
0.923589
0.957066
1.07756
0.889922
0.644082
0.457002
0.967734
0.877212
0.893071
1.06387
0.926814
0.66394
0.467149
0.964476
0.965885
1.00678
1.04221
0.845714
0.619228
0.439604
0.848934
0.94067
0.947038
0.860114
0.699788
0.52649
0.381258
0.536988
0.592784
0.592577
0.541412
0.460496
0.371731
0.288527
0.75429
0.839424
0.83909
0.746031
0.611658
0.475869
0.358646
0.885401
0.907891
0.953869
0.945959
0.771503
0.579294
0.422689
0.830189
0.855481
0.918257
0.984624
0.894999
0.655363
0.466246
0.752353
0.769373
0.840256
0.969595
0.92081
0.674969
0.475891
0.840032
0.771006
0.843297
0.966145
0.866059
0.632067
0.448388
0.853851
0.868305
0.883908
0.867129
0.713641
0.536323
0.389641
0.541964
0.600537
0.599786
0.547525
0.466705
0.378978
0.296553
0.765146
0.860476
0.851152
0.751928
0.615647
0.481252
0.365962
0.927295
0.983282
1.02459
0.963142
0.774975
0.583362
0.429186
0.88879
0.833589
0.913664
1.0507
0.902893
0.65926
0.472083
0.785937
0.749738
0.858798
0.989233
0.93085
0.677778
0.481002
0.904798
0.798617
0.881257
0.986059
0.867118
0.633318
0.453404
0.868445
0.889596
0.904032
0.867611
0.710279
0.537965
0.395349
0.537925
0.597763
0.597312
0.546208
0.467671
0.382255
0.301193
0.753904
0.859722
0.847845
0.74641
0.61232
0.48184
0.369317
0.951441
1.04621
1.07908
0.972238
0.768384
0.580784
0.430874
0.964388
0.878541
1.04479
1.1194
0.896819
0.654378
0.47259
0.871692
0.8263
0.890264
1.10572
0.929918
0.672112
0.48122
0.922751
0.889029
0.992062
1.02769
0.851547
0.626143
0.45375
0.858907
0.927012
0.941847
0.860781
0.6989
0.534737
0.397439
0.530345
0.587876
0.58747
0.538496
0.463685
0.381541
0.302346
0.736063
0.841705
0.831199
0.731059
0.602161
0.477462
0.368611
0.950669
1.07905
1.11025
0.963097
0.75298
0.571767
0.427772
0.987269
1.00042
1.16422
1.15321
0.88043
0.642321
0.467906
0.943912
0.811612
0.997254
1.16333
0.915691
0.660398
0.476703
0.948978
0.942723
1.03962
1.06343
0.834481
0.616062
0.450499
0.828115
0.939317
0.946204
0.849343
0.687219
0.529473
0.396543
0.523744
0.576176
0.574304
0.52843
0.457637
0.378537
0.301223
0.7185
0.811821
0.797665
0.706516
0.588203
0.470631
0.365557
0.917922
1.05653
1.05246
0.914431
0.726509
0.559489
0.422434
0.98052
1.0004
1.11086
1.08638
0.841852
0.625305
0.460882
0.961073
0.800596
0.975724
1.12103
0.87851
0.643856
0.469956
0.927168
0.9343
1.0201
1.02344
0.809242
0.604498
0.445646
0.809966
0.911843
0.92107
0.829731
0.675224
0.523317
0.393922
0.519406
0.568271
0.565137
0.520646
0.4519
0.374502
0.298747
0.707882
0.78687
0.772365
0.688403
0.577019
0.463813
0.361483
0.883312
0.964965
0.979561
0.873756
0.706271
0.549047
0.416814
0.901846
0.917
1.047
1.00668
0.810884
0.611531
0.454183
0.834611
0.858683
0.971228
1.01625
0.844897
0.629962
0.463404
0.872837
0.855929
0.954728
0.970921
0.788874
0.594278
0.440393
0.783213
0.853622
0.868759
0.80439
0.663008
0.516551
0.390345
0.516146
0.563475
0.55886
0.514303
0.446083
0.369522
0.295157
0.700754
0.777557
0.759902
0.677563
0.568324
0.456805
0.356476
0.858059
0.933917
0.955134
0.855477
0.693929
0.540256
0.410842
0.863733
0.906679
0.978982
0.980035
0.794395
0.601388
0.447738
0.777402
0.807877
0.924548
0.976975
0.826659
0.619872
0.457167
0.800531
0.809058
0.916793
0.935955
0.77437
0.585589
0.43499
0.771646
0.824173
0.848601
0.789174
0.653157
0.509942
0.386184
0.511669
0.558026
0.552458
0.507144
0.438795
0.363136
0.290284
0.695244
0.771877
0.752607
0.66891
0.559041
0.448474
0.350058
0.858198
0.939239
0.957938
0.849373
0.684065
0.530808
0.403431
0.870628
0.86471
1.01214
0.983403
0.785633
0.591815
0.440059
0.769647
0.769795
0.931754
0.995132
0.820352
0.610814
0.449785
0.805291
0.799583
0.921746
0.936671
0.765942
0.577115
0.428336
0.763165
0.81918
0.845514
0.782963
0.645337
0.502843
0.380749
0.503985
0.54856
0.541821
0.496343
0.428938
0.355023
0.284178
0.685502
0.76045
0.739344
0.654473
0.545787
0.43772
0.342036
0.854404
0.943974
0.956796
0.834248
0.668044
0.517779
0.393855
0.862589
0.901267
1.0331
0.980988
0.769537
0.577767
0.429764
0.802408
0.784549
0.937995
1.00369
0.805996
0.597253
0.439737
0.786809
0.811733
0.934278
0.936922
0.752842
0.56519
0.419394
0.742694
0.816209
0.842723
0.776076
0.63505
0.493365
0.373518
0.493413
0.534956
0.52734
0.482916
0.417444
0.345803
0.277268
0.670552
0.738736
0.716069
0.63459
0.529843
0.425436
0.333021
0.839024
0.91936
0.919929
0.80494
0.646898
0.502444
0.382996
0.84865
0.895046
1.01964
0.937709
0.742881
0.560134
0.417787
0.796959
0.794068
0.933084
0.959906
0.778214
0.579415
0.427806
0.795157
0.801157
0.916793
0.91212
0.731861
0.549911
0.408762
0.732818
0.803929
0.826496
0.759319
0.619999
0.481416
0.364905
0.482169
0.521183
0.512697
0.469112
0.405517
0.336201
0.270034
0.65433
0.716915
0.693813
0.614666
0.513567
0.412807
0.323695
0.814524
0.883354
0.88779
0.777454
0.625904
0.486891
0.371866
0.827482
0.893671
0.994049
0.905673
0.717894
0.542504
0.405577
0.738714
0.794315
0.927667
0.927103
0.751908
0.561523
0.415613
0.7701
0.780135
0.895428
0.884566
0.709302
0.533933
0.39771
0.713189
0.775438
0.806706
0.738468
0.602893
0.468578
0.355791
0.471535
0.508939
0.499405
0.456143
0.393945
0.326746
0.262857
0.640093
0.701116
0.675304
0.597014
0.498282
0.40061
0.31454
0.797232
0.870912
0.865688
0.755232
0.607117
0.472313
0.361109
0.815986
0.880601
0.914337
0.882531
0.69708
0.526646
0.393984
0.727014
0.761018
0.919421
0.903994
0.731519
0.545823
0.404115
0.725335
0.756741
0.874915
0.861358
0.690017
0.519371
0.387109
0.695859
0.756203
0.785812
0.718768
0.586913
0.456328
0.346837
0.460542
0.496477
0.486419
0.443334
0.382515
0.317456
0.255881
0.62507
0.684606
0.65869
0.580251
0.483347
0.388597
0.305589
0.779422
0.858715
0.85158
0.735985
0.589295
0.458038
0.350544
0.797815
0.822024
0.932621
0.868688
0.678855
0.511315
0.382567
0.701508
0.741806
0.841823
0.905139
0.714198
0.530641
0.392762
0.713886
0.741888
0.860011
0.8459
0.672861
0.505287
0.376649
0.678744
0.745891
0.770115
0.703189
0.5723
0.444452
0.338003
0.448113
0.481756
0.471146
0.429066
0.370576
0.308255
0.24922
0.60804
0.664062
0.637516
0.560046
0.466754
0.37618
0.296833
0.755952
0.830759
0.830379
0.710651
0.567918
0.44244
0.339849
0.761707
0.814153
0.926723
0.842504
0.654325
0.493487
0.370581
0.703539
0.708775
0.84789
0.877362
0.689456
0.512521
0.38064
0.682014
0.718061
0.835455
0.820214
0.651097
0.489145
0.365641
0.646942
0.717109
0.751845
0.684418
0.555642
0.431539
0.328936
0.433847
0.464428
0.453909
0.414341
0.359067
0.299766
0.243197
0.586846
0.635596
0.608481
0.536971
0.449855
0.364392
0.288839
0.726185
0.793288
0.780056
0.675154
0.544338
0.427007
0.329883
0.734187
0.787561
0.867557
0.787544
0.623719
0.474958
0.359117
0.690137
0.736245
0.831144
0.815286
0.656586
0.493181
0.368843
0.67707
0.700045
0.799356
0.779493
0.624195
0.472074
0.354925
0.633398
0.689398
0.723141
0.660237
0.536545
0.418186
0.320187
0.0526691
0.0741479
0.150114
0.110133
0.0820892
0.0634449
0.0541199
0.0730675
0.314506
0.226681
0.163465
0.118532
0.0871507
0.0662828
0.0554369
0.0726408
0.321553
0.232711
0.168337
0.122241
0.0898273
0.0681502
0.0567629
0.0737183
0.303278
0.223803
0.164805
0.121535
0.0905429
0.0696814
0.0592795
0.0810485
0.269872
0.20731
0.157374
0.119006
0.0908171
0.0717931
0.063386
0.0928915
0.20515
0.160313
0.125008
0.0978292
0.0776622
0.0640248
0.0588022
0.0887419
0.251548
0.189186
0.142943
0.108742
0.083986
0.0673152
0.0598746
0.0863087
0.295284
0.217848
0.16123
0.120061
0.090677
0.0709265
0.0612825
0.084786
0.32533
0.238047
0.174538
0.128597
0.0959274
0.0739367
0.0627228
0.0843121
0.332181
0.243832
0.179298
0.132346
0.0987636
0.0760463
0.0643726
0.0860402
0.314166
0.23484
0.175616
0.131586
0.099589
0.0778569
0.0673768
0.0946675
0.280437
0.217898
0.16774
0.128835
0.0998915
0.0802308
0.0720485
0.108185
0.215825
0.170375
0.13413
0.10592
0.0848323
0.0705793
0.0655027
0.100636
0.262372
0.199669
0.152504
0.11715
0.0913025
0.0738365
0.066335
0.0974357
0.305807
0.228399
0.171031
0.128721
0.0981712
0.0775226
0.0677066
0.0955304
0.335394
0.248448
0.184436
0.137464
0.103652
0.0807477
0.0693206
0.095175
0.341916
0.254082
0.189243
0.141388
0.106742
0.0831704
0.0713861
0.0979127
0.324033
0.245126
0.18561
0.140767
0.107805
0.0853231
0.0748942
0.107703
0.290145
0.227902
0.177544
0.137983
0.108256
0.0880366
0.080174
0.122886
0.224378
0.178429
0.141464
0.112505
0.0907801
0.0761476
0.0713597
0.11119
0.270949
0.207982
0.160102
0.123912
0.0973093
0.0793356
0.0719726
0.107344
0.314049
0.236724
0.178771
0.135638
0.104293
0.0830739
0.0732909
0.105093
0.343251
0.256722
0.192283
0.144549
0.109964
0.0864823
0.0750658
0.104808
0.349553
0.262373
0.197206
0.148663
0.113308
0.0892258
0.0775683
0.108646
0.331886
0.253505
0.193687
0.148226
0.114641
0.0917485
0.081596
0.119567
0.298206
0.236253
0.185633
0.145568
0.115348
0.0948652
0.0875196
0.13637
0.229815
0.183859
0.146664
0.117403
0.0954073
0.080664
0.0762937
0.120186
0.275893
0.213265
0.165284
0.128814
0.101902
0.0837396
0.0766649
0.115732
0.31815
0.241649
0.183844
0.140544
0.108928
0.0875044
0.0779479
0.113208
0.346727
0.261393
0.197311
0.14953
0.114738
0.0910784
0.0798855
0.113045
0.352986
0.267099
0.202357
0.153833
0.118337
0.0941532
0.0828577
0.118148
0.335685
0.258499
0.199067
0.153645
0.11998
0.0970688
0.0874172
0.13018
0.302787
0.241616
0.191254
0.151232
0.121001
0.10062
0.0940044
0.148548
0.232385
0.186956
0.150005
0.120834
0.0988678
0.0842182
0.0803425
0.127743
0.277518
0.215908
0.168415
0.132135
0.105267
0.0871541
0.0804709
0.122757
0.318526
0.24368
0.18671
0.143779
0.112284
0.0909196
0.0817161
0.120008
0.34625
0.263027
0.200048
0.152796
0.118208
0.0946509
0.0838279
0.120072
0.352612
0.268832
0.20523
0.157293
0.122068
0.0980616
0.0872811
0.126492
0.336131
0.260707
0.202269
0.157406
0.124046
0.101376
0.0923599
0.139582
0.304362
0.244386
0.194792
0.155286
0.125407
0.105375
0.0996056
0.159471
0.233012
0.188379
0.151941
0.12309
0.101333
0.0868987
0.0835358
0.133944
0.277095
0.216782
0.170061
0.134221
0.107604
0.0896893
0.0834465
0.128498
0.316901
0.243939
0.188065
0.145753
0.114587
0.0934451
0.0846643
0.125594
0.343823
0.262929
0.201291
0.154794
0.120618
0.097331
0.0869719
0.126076
0.350346
0.268879
0.206649
0.159509
0.124742
0.101067
0.0908822
0.133695
0.334834
0.261297
0.204066
0.15996
0.127067
0.104768
0.0964436
0.147753
0.304124
0.245516
0.196939
0.158158
0.128786
0.109208
0.104305
0.169049
0.232319
0.18856
0.152759
0.12436
0.102931
0.0887922
0.0859287
0.138807
0.275422
0.216396
0.170542
0.135282
0.109051
0.0914408
0.0856554
0.132983
0.3143
0.243026
0.188262
0.146674
0.115978
0.095182
0.0868639
0.130002
0.340684
0.261776
0.201416
0.155745
0.12211
0.0992262
0.0894219
0.131274
0.347389
0.267919
0.206977
0.160681
0.126481
0.10325
0.0937145
0.139762
0.332695
0.260865
0.204791
0.161477
0.12914
0.107305
0.0997032
0.154665
0.302868
0.245596
0.198048
0.160026
0.131221
0.112156
0.10811
0.177182
0.230458
0.187646
0.152595
0.124766
0.103769
0.0899929
0.0876049
0.142386
0.27258
0.21485
0.169976
0.135433
0.109715
0.0925003
0.087176
0.136274
0.310696
0.240963
0.187373
0.146644
0.116561
0.096221
0.0883929
0.133302
0.336751
0.259523
0.200437
0.155714
0.122769
0.100421
0.0912495
0.135639
0.343685
0.265875
0.20619
0.160843
0.127348
0.104681
0.095837
0.144719
0.329677
0.259326
0.204399
0.161968
0.130309
0.109045
0.102193
0.160343
0.300639
0.244601
0.198078
0.160878
0.132732
0.11426
0.111068
0.183878
0.227432
0.185728
0.151571
0.124436
0.103967
0.0906119
0.0886752
0.14482
0.268423
0.212185
0.168475
0.1348
0.109715
0.0929735
0.0881086
0.1385
0.305654
0.237665
0.185465
0.14578
0.116453
0.0966678
0.0893543
0.135664
0.331355
0.255963
0.198374
0.154799
0.122702
0.101001
0.0925002
0.139089
0.338513
0.262491
0.204277
0.160077
0.127446
0.105449
0.0973197
0.148606
0.325199
0.256456
0.202867
0.161503
0.130672
0.110076
0.103983
0.164833
0.297057
0.242362
0.197004
0.16077
0.133406
0.115608
0.113254
0.189208
0.223413
0.182993
0.149861
0.123522
0.103657
0.0907684
0.0892596
0.146312
0.263076
0.2086
0.166228
0.133549
0.109193
0.0929871
0.0885818
0.139882
0.29916
0.233308
0.182736
0.144256
0.115804
0.0966625
0.0899252
0.137615
0.324277
0.251211
0.195413
0.153172
0.122049
0.101076
0.0932609
0.141676
0.331597
0.257858
0.201418
0.158556
0.126914
0.105666
0.0982563
0.151523
0.319106
0.252374
0.200386
0.160261
0.130369
0.11051
0.105166
0.168229
0.29209
0.239006
0.195006
0.159875
0.133385
0.116309
0.114756
0.193261
0.21873
0.179699
0.147677
0.122204
0.103006
0.0906423
0.0896348
0.147817
0.256968
0.204399
0.163468
0.131868
0.108307
0.0926865
0.0887588
0.140821
0.291772
0.228268
0.179454
0.142275
0.114772
0.0963348
0.0902235
0.139302
0.316154
0.245699
0.191849
0.151045
0.12097
0.100771
0.0936403
0.143572
0.323547
0.252408
0.197913
0.156495
0.125914
0.10546
0.0987635
0.15366
0.31192
0.247477
0.19724
0.158448
0.129561
0.110476
0.105864
0.170729
0.28615
0.234871
0.192344
0.158389
0.132822
0.116493
0.115702
0.196246
0.213744
0.176126
0.145241
0.120656
0.102143
0.0903214
0.0898447
0.149292
0.250551
0.199912
0.160451
0.129957
0.107216
0.0922129
0.0888315
0.142027
0.284097
0.222944
0.175906
0.140047
0.113511
0.0957863
0.0902865
0.140585
0.307744
0.23989
0.187995
0.148645
0.119631
0.100212
0.0937388
0.14496
0.315183
0.246627
0.194081
0.154123
0.124619
0.104965
0.0989559
0.155233
0.304343
0.242198
0.193726
0.156282
0.128415
0.110112
0.106204
0.172586
0.279787
0.230324
0.189281
0.156514
0.131882
0.116302
0.116235
0.198481
0.20875
0.172515
0.142737
0.119012
0.101155
0.0898471
0.0898515
0.150338
0.244179
0.195414
0.157388
0.127968
0.10602
0.0916071
0.0887381
0.142936
0.276542
0.217638
0.172324
0.137748
0.112142
0.0950955
0.0901576
0.14148
0.299524
0.234108
0.184101
0.146162
0.118173
0.0994941
0.0936273
0.145935
0.307
0.240846
0.190175
0.151637
0.123178
0.104289
0.0989161
0.156368
0.296848
0.236856
0.190086
0.15396
0.127088
0.109537
0.106283
0.173958
0.273382
0.225646
0.186043
0.154439
0.13072
0.115862
0.116465
0.200173
0.203907
0.169007
0.140277
0.117353
0.100102
0.0892632
0.0896924
0.151001
0.237988
0.191059
0.154406
0.125993
0.104778
0.0909072
0.0884955
0.143501
0.269171
0.212495
0.168848
0.135481
0.110738
0.0943126
0.0898761
0.142026
0.29146
0.228474
0.180309
0.14371
0.116676
0.0986774
0.0933514
0.146539
0.298936
0.235174
0.186343
0.149165
0.121685
0.1035
0.0986933
0.157104
0.289442
0.23158
0.186479
0.15162
0.125687
0.108828
0.106154
0.174888
0.267039
0.220994
0.182796
0.15231
0.129455
0.115261
0.116455
0.201359
0.199331
0.165692
0.137922
0.115724
0.099022
0.0886071
0.0894088
0.151335
0.232093
0.186956
0.151578
0.12408
0.103528
0.0901487
0.088142
0.14377
0.26203
0.207616
0.165556
0.133298
0.109337
0.0934735
0.0894815
0.142266
0.283481
0.223068
0.1767
0.141349
0.115182
0.0977987
0.0929495
0.146804
0.29085
0.229676
0.182671
0.146772
0.120187
0.102636
0.0983239
0.157456
0.282027
0.226442
0.183001
0.14934
0.124266
0.108028
0.105853
0.175375
0.260749
0.216458
0.179643
0.150216
0.128151
0.114549
0.116241
0.202029
0.195174
0.162641
0.135708
0.114149
0.0979377
0.0879062
0.0890368
0.151448
0.226759
0.183216
0.148951
0.122256
0.102294
0.0893593
0.0877145
0.143848
0.255534
0.203186
0.16252
0.131233
0.107966
0.0926089
0.0890146
0.142306
0.276129
0.218139
0.173378
0.139123
0.113724
0.0968917
0.0924666
0.146838
0.283312
0.224629
0.179284
0.144515
0.118719
0.101733
0.0978546
0.157524
0.275083
0.221703
0.179781
0.147184
0.122864
0.107173
0.105428
0.175511
0.254858
0.212253
0.176711
0.148227
0.126856
0.113767
0.115873
0.202242
0.650394
0.515475
0.393935
0.296967
0.22465
0.176776
0.159604
0.255651
0.782452
0.620747
0.463432
0.339783
0.248688
0.188057
0.161964
0.246413
0.852648
0.679722
0.500389
0.360153
0.258013
0.190149
0.158599
0.231592
0.847455
0.65427
0.478867
0.343474
0.24511
0.179635
0.148323
0.212506
0.727943
0.553953
0.408168
0.295524
0.213429
0.158563
0.132596
0.191271
0.562795
0.427287
0.318253
0.234941
0.174067
0.13327
0.115138
0.171808
0.403382
0.311911
0.238395
0.18145
0.139289
0.111083
0.100527
0.158135
0.667269
0.530613
0.405744
0.307527
0.234916
0.187104
0.171168
0.279322
0.783267
0.641178
0.478961
0.352221
0.259827
0.198667
0.173304
0.269166
0.810473
0.701955
0.517754
0.373809
0.269844
0.201009
0.169782
0.253418
0.819531
0.673376
0.495052
0.35667
0.256675
0.190211
0.159073
0.233033
0.741752
0.571248
0.421497
0.306885
0.22382
0.168297
0.142621
0.2102
0.579457
0.439489
0.328534
0.244609
0.183318
0.142126
0.124444
0.189379
0.413684
0.320785
0.247074
0.190041
0.14761
0.119172
0.109217
0.174707
0.672027
0.532254
0.410085
0.3143
0.2431
0.196073
0.181613
0.300444
0.801964
0.645686
0.483494
0.358846
0.267864
0.207421
0.183298
0.288868
0.838779
0.708691
0.523498
0.381179
0.278247
0.209805
0.179512
0.272065
0.85025
0.683198
0.502534
0.364784
0.265253
0.198893
0.168486
0.250738
0.755794
0.578027
0.428266
0.31464
0.232006
0.176554
0.151586
0.22695
0.585929
0.445387
0.335629
0.25243
0.19124
0.149999
0.13297
0.205393
0.41982
0.327641
0.254563
0.197661
0.155084
0.12656
0.117308
0.19007
0.659604
0.524006
0.409547
0.318283
0.249399
0.203701
0.191091
0.319582
0.808557
0.631337
0.478728
0.360569
0.272993
0.214379
0.192213
0.306509
0.875398
0.694736
0.518079
0.382355
0.282928
0.216396
0.188016
0.288493
0.867813
0.673305
0.499256
0.366772
0.270119
0.205367
0.176705
0.266407
0.750283
0.571835
0.427986
0.318126
0.237448
0.183126
0.159572
0.242076
0.580376
0.445089
0.339047
0.257716
0.197363
0.156651
0.140706
0.22009
0.420983
0.331525
0.25987
0.203564
0.161258
0.133025
0.124761
0.204323
0.643796
0.517187
0.409363
0.32155
0.254527
0.210206
0.199665
0.337487
0.786704
0.616403
0.473732
0.361409
0.276889
0.220252
0.200395
0.323565
0.868687
0.677719
0.510748
0.381655
0.285916
0.22176
0.195832
0.30456
0.856121
0.657714
0.492652
0.366223
0.273078
0.210618
0.184234
0.281696
0.734531
0.562223
0.425235
0.319537
0.241293
0.1886
0.166865
0.256692
0.571678
0.442678
0.340501
0.261263
0.202117
0.162325
0.147763
0.234093
0.419779
0.333381
0.263369
0.207985
0.166301
0.13867
0.131607
0.217852
0.634863
0.515947
0.410644
0.324224
0.258475
0.215527
0.207116
0.353979
0.770584
0.608525
0.472588
0.362918
0.280255
0.225323
0.207734
0.34005
0.843946
0.665659
0.507415
0.381968
0.288688
0.226593
0.20303
0.32057
0.834168
0.646409
0.488567
0.366162
0.275755
0.215358
0.191176
0.296887
0.719444
0.555531
0.423562
0.32083
0.244624
0.193453
0.173488
0.270871
0.565132
0.441106
0.341604
0.264057
0.206102
0.16728
0.154109
0.247373
0.418598
0.334504
0.265905
0.211505
0.17057
0.143623
0.137776
0.230581
0.627422
0.514282
0.410017
0.325082
0.260932
0.219572
0.213269
0.368364
0.737057
0.605942
0.471434
0.363484
0.28263
0.229393
0.213901
0.354684
0.793411
0.658992
0.504751
0.381974
0.290982
0.230744
0.209239
0.335102
0.799595
0.63694
0.485138
0.366245
0.278245
0.219562
0.197224
0.310778
0.704708
0.550437
0.422424
0.32216
0.247624
0.197691
0.179218
0.283695
0.560741
0.440021
0.342537
0.26638
0.209483
0.171516
0.159593
0.259333
0.417724
0.335308
0.267896
0.214411
0.174163
0.14785
0.143132
0.242059
0.619334
0.508158
0.406419
0.324029
0.262042
0.22248
0.218236
0.380615
0.722816
0.598826
0.46704
0.362008
0.283604
0.232269
0.218794
0.366802
0.769032
0.650261
0.49971
0.380422
0.292115
0.233786
0.214183
0.347094
0.777485
0.628611
0.481478
0.365803
0.279973
0.222803
0.202085
0.322338
0.695856
0.546455
0.421287
0.323005
0.249858
0.200991
0.183854
0.29446
0.557352
0.438842
0.342985
0.268006
0.212026
0.174857
0.164101
0.269551
0.41678
0.335588
0.269167
0.216497
0.176905
0.151231
0.147591
0.251967
0.609558
0.499349
0.401537
0.322146
0.262353
0.224492
0.222158
0.391211
0.715778
0.586891
0.460295
0.359233
0.283501
0.234076
0.222548
0.376949
0.759261
0.63545
0.492107
0.377556
0.292078
0.23563
0.217886
0.356872
0.769798
0.620161
0.476971
0.364332
0.280514
0.224814
0.205711
0.331701
0.690666
0.542094
0.419158
0.322649
0.250849
0.203118
0.187377
0.303304
0.553431
0.436525
0.342168
0.268395
0.213418
0.177162
0.167624
0.278065
0.414533
0.334537
0.269183
0.217423
0.17862
0.1537
0.151151
0.260268
0.598065
0.491445
0.397179
0.320099
0.26199
0.225546
0.224893
0.399686
0.704657
0.576546
0.454153
0.356225
0.282594
0.234841
0.22514
0.385218
0.760928
0.626135
0.486109
0.374495
0.291075
0.236312
0.220401
0.364796
0.765654
0.613792
0.472371
0.36182
0.279708
0.225555
0.208166
0.339235
0.684528
0.536598
0.415593
0.32077
0.250458
0.204082
0.189863
0.310465
0.547096
0.432229
0.339613
0.267306
0.213609
0.178473
0.170221
0.285001
0.409988
0.33163
0.267681
0.217116
0.179325
0.1553
0.153854
0.267004
0.588224
0.485108
0.392761
0.317102
0.260417
0.225383
0.226322
0.40543
0.697547
0.566911
0.448473
0.352431
0.280492
0.234392
0.226497
0.391267
0.752957
0.617261
0.480356
0.370446
0.288784
0.235798
0.221769
0.370888
0.757601
0.605278
0.466099
0.357613
0.277475
0.225154
0.209576
0.345106
0.673031
0.528327
0.409885
0.317212
0.248812
0.204055
0.19141
0.316051
0.537523
0.425618
0.335271
0.264886
0.21277
0.17894
0.171995
0.290477
0.403223
0.327036
0.264888
0.215797
0.179193
0.156157
0.155792
0.27232
0.577269
0.477103
0.385954
0.312153
0.257397
0.224117
0.226741
0.409096
0.672364
0.558365
0.440671
0.346624
0.276911
0.232843
0.226828
0.395313
0.720045
0.606477
0.471796
0.36428
0.285097
0.23428
0.222189
0.375252
0.736551
0.592565
0.457011
0.351636
0.274138
0.223924
0.210176
0.349515
0.656986
0.517336
0.402339
0.312496
0.246352
0.203354
0.192236
0.320335
0.526102
0.41751
0.329864
0.261686
0.211294
0.178797
0.1731
0.29475
0.395432
0.32158
0.261381
0.213847
0.178475
0.156442
0.157109
0.276523
0.562559
0.464977
0.376809
0.305966
0.25368
0.222354
0.226687
0.412183
0.654039
0.544594
0.429842
0.339233
0.272501
0.230721
0.226576
0.398309
0.700273
0.592431
0.460524
0.356664
0.28065
0.232205
0.22198
0.378339
0.720069
0.578759
0.446764
0.344992
0.270355
0.222232
0.210167
0.352713
0.642749
0.506082
0.394408
0.30747
0.243556
0.202216
0.192508
0.323563
0.514965
0.409253
0.324249
0.258189
0.209431
0.178212
0.173681
0.298054
0.387633
0.315944
0.257578
0.211532
0.177355
0.156301
0.157943
0.279864
0.546195
0.451706
0.367903
0.300254
0.250231
0.220561
0.226371
0.415225
0.634282
0.526381
0.418135
0.33204
0.268277
0.228516
0.226006
0.400884
0.679014
0.571772
0.447621
0.34899
0.27624
0.22992
0.221342
0.380551
0.698123
0.562603
0.43631
0.338537
0.266533
0.220248
0.209686
0.354999
0.627182
0.494687
0.386667
0.302453
0.240532
0.200709
0.192317
0.325911
0.503663
0.401068
0.318557
0.254448
0.207234
0.177251
0.173839
0.300536
0.379649
0.310081
0.253482
0.208896
0.175908
0.155826
0.1584
0.282469
0.530702
0.441134
0.360938
0.295508
0.247015
0.218547
0.225528
0.417266
0.616264
0.512656
0.408955
0.326075
0.264362
0.226104
0.224974
0.402762
0.66332
0.556112
0.43745
0.342427
0.271959
0.227329
0.220237
0.382122
0.676061
0.549653
0.427399
0.332447
0.262486
0.217851
0.208741
0.356586
0.612264
0.484021
0.37902
0.297116
0.237066
0.198781
0.191713
0.327573
0.49184
0.392421
0.312341
0.250233
0.204645
0.175959
0.173667
0.302397
0.370849
0.303603
0.248939
0.205933
0.174197
0.1551
0.158559
0.284437
0.518773
0.43317
0.354723
0.290496
0.243205
0.215869
0.2239
0.41742
0.604764
0.50075
0.401474
0.320261
0.25999
0.223104
0.223247
0.403395
0.646826
0.544233
0.429468
0.336109
0.267282
0.224223
0.218571
0.383005
0.655069
0.536662
0.41819
0.32569
0.257846
0.214981
0.207318
0.357413
0.594847
0.472008
0.370276
0.291044
0.233166
0.196546
0.19077
0.328597
0.477682
0.382336
0.305346
0.245629
0.20185
0.1745
0.173252
0.303715
0.360958
0.296617
0.244182
0.20287
0.172397
0.154238
0.158481
0.28585
0.384541
0.29595
0.224443
0.169351
0.128946
0.101977
0.0912354
0.141087
0.413162
0.305964
0.22523
0.165477
0.122584
0.0938652
0.0803505
0.115901
0.413331
0.301056
0.2182
0.158045
0.115361
0.0868224
0.0724139
0.0989942
0.37983
0.276667
0.200605
0.14548
0.10638
0.0801255
0.0665167
0.0884682
0.324491
0.238856
0.175461
0.129171
0.0960486
0.0736537
0.0621278
0.0827869
0.263018
0.19739
0.148469
0.112191
0.0858389
0.0679378
0.0593405
0.0824464
0.205455
0.160245
0.124804
0.0975704
0.0773672
0.0636622
0.058239
0.0869876
0.393658
0.304639
0.233365
0.178224
0.137394
0.110022
0.0997185
0.157002
0.423362
0.315468
0.234766
0.174741
0.131166
0.101794
0.0883927
0.130077
0.423614
0.311086
0.228206
0.167552
0.124021
0.0946718
0.0801745
0.112062
0.390286
0.287223
0.210969
0.15509
0.114953
0.0878037
0.0740043
0.100756
0.335261
0.249771
0.185872
0.138572
0.104313
0.0810078
0.0692837
0.0944686
0.274105
0.208239
0.158464
0.121041
0.0935949
0.0748623
0.0661607
0.0939044
0.216298
0.170444
0.134052
0.105781
0.0846363
0.070291
0.0649973
0.0988242
0.400315
0.31208
0.241241
0.186038
0.144903
0.117331
0.107632
0.171854
0.431066
0.323785
0.243197
0.182829
0.138724
0.108958
0.0958821
0.143377
0.431486
0.319725
0.236882
0.175746
0.131553
0.101688
0.0873358
0.124291
0.398246
0.296018
0.21969
0.163194
0.122313
0.0945803
0.0808359
0.112249
0.343704
0.258704
0.194441
0.146375
0.111324
0.0874214
0.0757422
0.105432
0.28298
0.217009
0.166583
0.128349
0.100123
0.0808352
0.0722077
0.104261
0.225024
0.178686
0.141572
0.112531
0.0907195
0.0759631
0.0709212
0.109346
0.402132
0.316324
0.24672
0.192016
0.151071
0.123726
0.114928
0.185692
0.433014
0.328228
0.248855
0.188911
0.144885
0.115189
0.102736
0.155763
0.433557
0.324325
0.242639
0.181837
0.137624
0.107708
0.0937908
0.135579
0.401071
0.301003
0.225545
0.169192
0.128172
0.100295
0.0868821
0.122732
0.347898
0.264234
0.200327
0.152169
0.116857
0.0927522
0.0813731
0.115343
0.288222
0.222775
0.172326
0.133816
0.105261
0.0857598
0.0774223
0.113482
0.230681
0.184349
0.146993
0.117627
0.0955197
0.0806241
0.0759714
0.118498
0.40104
0.318184
0.250235
0.196473
0.156125
0.129315
0.121615
0.198797
0.430582
0.32963
0.252285
0.193374
0.149888
0.120572
0.108929
0.167358
0.430836
0.325605
0.246006
0.186203
0.142446
0.112796
0.0995045
0.145985
0.399512
0.302774
0.228998
0.173422
0.132719
0.105012
0.0921182
0.132228
0.34829
0.266775
0.203918
0.156223
0.121075
0.0970693
0.0861662
0.124188
0.290168
0.225875
0.175964
0.13766
0.109148
0.0896945
0.0817911
0.121624
0.23349
0.187683
0.150556
0.121256
0.0991501
0.0843176
0.0801318
0.126241
0.399681
0.31923
0.25279
0.200039
0.160395
0.134193
0.127605
0.211028
0.427265
0.330034
0.254675
0.196874
0.154031
0.125184
0.114392
0.178037
0.426693
0.325594
0.248128
0.189448
0.14629
0.117031
0.104436
0.155412
0.396384
0.302995
0.230996
0.176383
0.13619
0.108815
0.0965352
0.140679
0.346795
0.267521
0.205936
0.158954
0.124194
0.100465
0.0901343
0.13193
0.290037
0.227138
0.178057
0.140227
0.111981
0.0927476
0.0853743
0.128747
0.234349
0.189333
0.152705
0.123705
0.101787
0.0871484
0.0834616
0.132657
0.398748
0.320018
0.254797
0.202931
0.163932
0.138315
0.132779
0.221997
0.425075
0.330374
0.256489
0.199601
0.157352
0.128993
0.119048
0.187551
0.423543
0.325312
0.249469
0.191763
0.149214
0.120413
0.108553
0.163699
0.393393
0.302476
0.23196
0.178284
0.138683
0.111748
0.100139
0.147993
0.344523
0.267106
0.206755
0.160577
0.126337
0.103011
0.0933115
0.138533
0.288613
0.227092
0.17894
0.141724
0.113891
0.095004
0.0882228
0.134826
0.233872
0.189727
0.153722
0.125158
0.103552
0.0891966
0.0860081
0.137771
0.397652
0.32017
0.25596
0.204907
0.166567
0.141576
0.137073
0.231453
0.423213
0.330102
0.257345
0.201304
0.15971
0.131927
0.122857
0.195713
0.420619
0.324287
0.249747
0.192996
0.151152
0.122926
0.11185
0.170731
0.390027
0.300939
0.231771
0.179089
0.14021
0.113841
0.102958
0.154118
0.341289
0.265499
0.206406
0.161148
0.127573
0.104771
0.0957486
0.143993
0.285993
0.225847
0.178723
0.142257
0.114974
0.0965447
0.090396
0.139827
0.232207
0.189002
0.153737
0.125732
0.104549
0.0905548
0.0878584
0.141696
0.394939
0.318786
0.255741
0.205679
0.16817
0.143936
0.140485
0.239346
0.419714
0.328146
0.256704
0.201747
0.161024
0.133977
0.125831
0.202477
0.416204
0.321616
0.248563
0.193012
0.15209
0.124597
0.114361
0.176488
0.385069
0.297823
0.230229
0.178778
0.140817
0.115155
0.105046
0.159066
0.336455
0.26249
0.204872
0.160735
0.127988
0.105826
0.0975146
0.148362
0.281996
0.2234
0.177485
0.141933
0.115336
0.0974615
0.0919708
0.1438
0.229342
0.187243
0.152866
0.125552
0.104904
0.0913559
0.0891986
0.144994
0.389822
0.31552
0.254033
0.20526
0.168798
0.145453
0.143058
0.245697
0.413348
0.324089
0.254497
0.200992
0.161383
0.13522
0.128027
0.207882
0.408909
0.316912
0.245903
0.191907
0.152137
0.125518
0.116158
0.181037
0.377696
0.293016
0.227432
0.177489
0.140631
0.115794
0.106491
0.162933
0.329838
0.25816
0.202308
0.159492
0.127713
0.106286
0.098704
0.151764
0.27667
0.219907
0.175396
0.140903
0.115102
0.0978583
0.0930353
0.146875
0.225442
0.184629
0.15128
0.124767
0.104743
0.0917141
0.0901476
0.147855
0.382747
0.310774
0.251174
0.203912
0.168637
0.146256
0.14489
0.250663
0.40466
0.31847
0.251143
0.199331
0.160986
0.135793
0.129555
0.212107
0.399488
0.310788
0.242196
0.189971
0.151491
0.12583
0.117359
0.184567
0.368705
0.287062
0.223748
0.175479
0.139837
0.115898
0.107411
0.165901
0.322054
0.252928
0.199012
0.157638
0.126916
0.10628
0.0994281
0.154359
0.27045
0.215686
0.172698
0.139356
0.114419
0.0978467
0.0936808
0.149212
0.220834
0.181418
0.149182
0.123542
0.104196
0.0917183
0.0907311
0.150055
0.374987
0.305368
0.247698
0.201979
0.167916
0.146511