/*--------------------------------*- C++ -*----------------------------------*\
| =========                 |                                                 |
| \\      /  F ield         | OpenFOAM: The Open Source CFD Toolbox           |
|  \\    /   O peration     | Version:  plus.master.MPPICInterFoam            |
|   \\  /    A nd           | Web:      www.OpenFOAM.com                      |
|    \\/     M anipulation  |                                                 |
\*---------------------------------------------------------------------------*/
FoamFile
{
    version     2.0;
    format      ascii;
    class       volScalarField;
    location    "13.6";
    object      nut;
}
// * * * * * * * * * * * * * * * * * * * * * * * * * * * * * * * * * * * * * //

dimensions      [0 2 -1 0 0 0 0];

internalField   nonuniform List<scalar> 
11821
(
0.000508951
0.000532781
0.000498139
0.00054042
0.000508744
0.000477041
0.000521016
0.000541316
0.000549668
0.000548852
0.000540375
0.000525185
0.000502756
0.000561186
0.000585437
0.000592752
0.000585124
0.000569977
0.000550437
0.000525992
0.000601509
0.000611702
0.000623209
0.000620993
0.000595162
0.000567996
0.000540252
0.000624515
0.000622379
0.000613651
0.000634844
0.000612113
0.00057698
0.000546242
0.000635467
0.000626096
0.000607921
0.000623708
0.000614242
0.000575952
0.000543751
0.000619946
0.000628613
0.000629128
0.000630812
0.000598654
0.000563183
0.000531862
0.000563213
0.000599057
0.000603772
0.000589211
0.000566205
0.000539195
0.000509733
0.00054889
0.000570836
0.000581476
0.000583057
0.000576604
0.000562236
0.000539216
0.000579915
0.000603905
0.000615194
0.000614253
0.000604666
0.000587597
0.000563394
0.000584794
0.000609937
0.000624074
0.000634197
0.000625088
0.000604166
0.000577695
0.000576224
0.000637387
0.000649721
0.000634055
0.000635946
0.000611757
0.000583138
0.000550456
0.000611679
0.000634235
0.000632466
0.000632391
0.000609283
0.000579774
0.000548385
0.000562382
0.000587133
0.000612656
0.00061868
0.000595946
0.000566827
0.000554972
0.000561794
0.000576585
0.000595794
0.000591882
0.000571705
0.000543433
0.000580626
0.000604662
0.000616915
0.000619662
0.000613699
0.000598707
0.000573992
0.000611844
0.000637807
0.000649639
0.000650463
0.000642488
0.000625395
0.000599823
0.000619698
0.000649789
0.000664204
0.000669153
0.000662045
0.000642424
0.000614965
0.000618462
0.000646969
0.000658302
0.000674276
0.000672307
0.000650007
0.000620482
0.000599289
0.000629145
0.000668236
0.000669234
0.000668829
0.000647139
0.000616587
0.000605881
0.000612138
0.000637333
0.000648678
0.000653384
0.000632591
0.000602572
0.000588811
0.000599185
0.00061506
0.000629429
0.000626353
0.000606815
0.000577464
0.00061288
0.000639065
0.000652894
0.000656155
0.000649219
0.00063248
0.000605551
0.000648377
0.000676171
0.000689758
0.000690996
0.000680946
0.000661411
0.00063335
0.000660576
0.00068802
0.000708364
0.000715727
0.000703634
0.000680309
0.000649951
0.000663012
0.000662207
0.000699358
0.000724697
0.000715665
0.000688695
0.000656088
0.00065292
0.000699225
0.000679761
0.000717007
0.000714277
0.000685671
0.000651871
0.000641529
0.000670482
0.000692421
0.000697698
0.000696713
0.000669941
0.000636728
0.000636348
0.000655221
0.000674524
0.000678399
0.000665787
0.000641726
0.000609521
0.00064168
0.000670133
0.000685126
0.000688183
0.000680147
0.00066191
0.000633111
0.000682416
0.000713554
0.000728161
0.000727143
0.000714359
0.000692659
0.000662534
0.000712355
0.000737028
0.000763533
0.000761763
0.000740609
0.000713309
0.000680398
0.00071093
0.000731861
0.000771573
0.000781852
0.000755972
0.000722802
0.000687223
0.000706567
0.000679476
0.000731876
0.000775119
0.000754965
0.000719638
0.000682803
0.000705097
0.000714419
0.00074037
0.000760707
0.000735737
0.000702654
0.000666608
0.000676804
0.00070913
0.000722263
0.000718946
0.000699403
0.000671955
0.0006376
0.000665903
0.000696032
0.000711838
0.000715132
0.000706772
0.000687646
0.000657371
0.000708014
0.000740503
0.000755176
0.000754526
0.000741805
0.000719475
0.000688046
0.000741463
0.000773477
0.000790953
0.000788386
0.000768299
0.000740823
0.000706763
0.000756199
0.00077205
0.000784407
0.000807418
0.000783509
0.000750651
0.000714036
0.000763909
0.000704168
0.000754089
0.000805016
0.00078279
0.000747321
0.00070948
0.000746299
0.000750055
0.000772392
0.000788036
0.000763104
0.000729467
0.000692507
0.000702263
0.000735256
0.000750747
0.000745717
0.000725374
0.000697462
0.000662278
0.000687548
0.000719336
0.000736057
0.000739625
0.00073101
0.000711016
0.000679239
0.000727725
0.000763269
0.000779383
0.000779138
0.000766668
0.000743838
0.000711134
0.000755683
0.000793023
0.000816279
0.000812097
0.000793234
0.000765738
0.000730621
0.000761274
0.000791464
0.000840656
0.000832344
0.00080865
0.000775835
0.000738296
0.00074728
0.00080615
0.000828
0.000827458
0.000807209
0.000772278
0.000733685
0.000745784
0.000767709
0.000797106
0.000805935
0.000785334
0.000753424
0.000716103
0.000692579
0.000728944
0.000750378
0.000758373
0.000746283
0.000720535
0.000684953
0.000709153
0.000741841
0.000759074
0.00076283
0.000753749
0.000732592
0.00069911
0.000747463
0.000784565
0.000801403
0.000802549
0.000790351
0.000766648
0.000732343
0.000765605
0.000812492
0.000833465
0.000834046
0.000816926
0.000789251
0.000752704
0.000773024
0.000831394
0.000843834
0.000851591
0.000831735
0.000799625
0.000760838
0.000751043
0.000810688
0.000837027
0.000847904
0.000830215
0.000796114
0.000756311
0.000724312
0.00077893
0.000812833
0.000820498
0.000807402
0.000776825
0.000738371
0.000705661
0.000739802
0.000769307
0.000779065
0.000768741
0.000743318
0.000706404
0.000730877
0.000764119
0.000781697
0.000785163
0.000775038
0.000752308
0.000716946
0.000770998
0.000807384
0.000825075
0.000826534
0.000813334
0.000787927
0.000751631
0.000791168
0.000829918
0.000857627
0.000859144
0.000841049
0.000811689
0.000773057
0.00079974
0.000825068
0.000871813
0.000876542
0.000856099
0.000822632
0.000781774
0.00077852
0.000808598
0.000871035
0.000874339
0.000854806
0.000819238
0.000777356
0.000764877
0.00080335
0.000839521
0.000846653
0.000832061
0.000799718
0.0007591
0.000732809
0.000768876
0.000797526
0.000805184
0.000792642
0.000765297
0.000726213
0.000750866
0.000785053
0.000802738
0.000805438
0.000794023
0.000769702
0.000732561
0.0007942
0.00083165
0.000849196
0.00084916
0.000834186
0.000806874
0.000768618
0.000820352
0.000859958
0.000886027
0.000884224
0.000863588
0.000831923
0.000791116
0.000828721
0.0008601
0.000901744
0.000904198
0.000879897
0.000843678
0.000800488
0.000824871
0.000849403
0.000880014
0.000899161
0.000878558
0.000840396
0.000796196
0.00078894
0.000831996
0.000867399
0.000875782
0.000855656
0.000820485
0.000777559
0.000759076
0.000799368
0.000825673
0.00083091
0.000814752
0.000784968
0.000743732
0.000767808
0.000803091
0.000820928
0.000822933
0.000810367
0.000784676
0.000746018
0.000813508
0.000852399
0.000870179
0.000868876
0.000852224
0.000823206
0.000783254
0.000844525
0.000886308
0.000913033
0.000906796
0.000883328
0.000849472
0.000806712
0.000855539
0.000895951
0.000937417
0.000929427
0.00090083
0.000862078
0.000816729
0.000863631
0.000884632
0.00091483
0.000923818
0.000899276
0.00085892
0.000812602
0.00083501
0.000863928
0.000895005
0.000899258
0.00087586
0.00083848
0.000793602
0.000783561
0.000824151
0.000846321
0.000850173
0.00083308
0.00080187
0.000758945
0.000782152
0.000818239
0.000835881
0.000837381
0.000824102
0.000797461
0.000757636
0.000828803
0.000869588
0.000886714
0.000884392
0.000866911
0.000836892
0.000795777
0.000860385
0.000910334
0.000933887
0.000923916
0.00089892
0.000863904
0.000819918
0.000873615
0.000937974
0.000979524
0.000951456
0.000917631
0.00087713
0.000830416
0.000847245
0.000914695
0.000956952
0.00094769
0.000916989
0.000874383
0.00082653
0.000842826
0.000882018
0.00091748
0.000919138
0.000892652
0.000853681
0.000807377
0.000784735
0.000829245
0.000862525
0.000866411
0.000848757
0.000816458
0.000772184
0.000795046
0.000831271
0.000848653
0.000849977
0.000836257
0.000808851
0.000767979
0.000842138
0.000883254
0.00089903
0.000897056
0.000879562
0.000848967
0.000806918
0.00087228
0.000924438
0.000940491
0.000935221
0.000911561
0.00087639
0.000831601
0.000890743
0.000959967
0.000947716
0.000958694
0.000929946
0.000889844
0.000842431
0.000868225
0.000909939
0.000977916
0.000961146
0.000930474
0.000887483
0.000838741
0.000830406
0.00089008
0.000932306
0.000932781
0.000906487
0.000866908
0.000819556
0.000794337
0.000843194
0.00087631
0.000880379
0.00086256
0.000829442
0.000783969
0.000807125
0.000843361
0.000860871
0.000862
0.00084768
0.000819371
0.000777357
0.000854659
0.000894564
0.000911219
0.000909476
0.000891689
0.000860296
0.000817156
0.000883618
0.000929918
0.000951571
0.000946965
0.000923918
0.000888245
0.000842439
0.00089487
0.000916241
0.000962154
0.000970613
0.000942394
0.000901963
0.000853613
0.000867975
0.000917601
0.000919263
0.000970686
0.000942604
0.000899632
0.000850008
0.000852053
0.000898874
0.000935823
0.00094432
0.0009192
0.000879129
0.0008307
0.000813922
0.000864315
0.000891244
0.000894264
0.000875486
0.000841355
0.000794641
0.000818303
0.000855
0.000872576
0.000873229
0.000858114
0.000828827
0.000785685
0.000867354
0.000907439
0.000924305
0.000921783
0.000903067
0.000870638
0.000826341
0.000898294
0.0009417
0.000967122
0.000960323
0.000936009
0.000899244
0.000852262
0.00091545
0.000951601
0.000996143
0.000984169
0.000954863
0.000913331
0.000863815
0.000916348
0.000926396
0.000971973
0.000983279
0.000955247
0.00091107
0.000860279
0.000875699
0.000918585
0.000954079
0.000956866
0.000931465
0.000890266
0.000840712
0.000830123
0.000877221
0.000906665
0.000906406
0.000886902
0.000851874
0.000804095
0.000827746
0.000865187
0.000882883
0.000883101
0.000867231
0.000837059
0.000792937
0.000877655
0.000918929
0.000935893
0.000932858
0.000913178
0.000879708
0.000834358
0.000908248
0.00095815
0.000981236
0.00097275
0.000947076
0.000909042
0.000860886
0.00093314
0.000979495
0.00100661
0.000997981
0.00096657
0.000923635
0.000872847
0.000950252
0.000999908
0.00100471
0.00100037
0.000966989
0.000921426
0.000869407
0.000915072
0.000948779
0.000972119
0.000970436
0.000942456
0.000900191
0.000849589
0.000846697
0.000887339
0.000915491
0.000916454
0.000896868
0.00086117
0.00081248
0.00014565
1.72158e-05
0.000415101
0.000377944
0.000328978
0.000259704
0.000155781
1.86706e-05
0.000478483
0.000450187
0.000419126
0.000381925
0.00033347
0.000264929
0.000160831
1.91766e-05
0.000476101
0.000447262
0.000415733
0.000378325
0.00033015
0.000262538
0.000159916
1.87265e-05
0.000465421
0.000437025
0.000405436
0.000367771
0.000319551
0.000252522
0.000151932
1.77321e-05
0.000446711
0.000420014
0.000388711
0.000350762
0.000302286
0.000235761
0.000138381
1.60987e-05
0.000475078
0.000449078
0.000416395
0.000374765
0.000320133
0.000245591
0.000140447
1.58603e-05
0.000496721
0.00046953
0.000437078
0.000396128
0.000341855
0.000266167
0.000155934
1.81132e-05
0.000510038
0.000482016
0.000449456
0.000408953
0.000355286
0.000279559
0.000166704
1.96236e-05
0.000515171
0.000486325
0.000453394
0.000413022
0.00035994
0.000284937
0.000171831
2.0156e-05
0.000511815
0.000482405
0.000449075
0.000408604
0.000355907
0.000281906
0.000170365
1.97148e-05
0.000499806
0.000470563
0.000437062
0.00039635
0.000343729
0.000270531
0.000161438
1.86721e-05
0.00047942
0.000451426
0.000417978
0.000376959
0.000324245
0.000251906
0.000146759
1.69341e-05
0.000509914
0.000481693
0.000446119
0.000400831
0.000341593
0.000261212
0.000148648
1.65438e-05
0.000533017
0.000503795
0.000468508
0.000423872
0.000364896
0.000283157
0.000165017
1.88646e-05
0.000546861
0.000517129
0.000481863
0.000437686
0.000379245
0.000297311
0.00017627
2.04228e-05
0.000551779
0.000521457
0.000485966
0.00044199
0.000384123
0.00030282
0.000181385
2.09889e-05
0.000547654
0.000516795
0.000480985
0.000436999
0.000379569
0.000299248
0.000179371
2.05884e-05
0.000534394
0.000503551
0.000467572
0.000423443
0.00036622
0.000286861
0.00016978
1.95014e-05
0.000512212
0.000482391
0.000446429
0.000402072
0.000344914
0.000266761
0.000154227
1.76787e-05
0.000542366
0.000511609
0.00047298
0.00042403
0.000360372
0.000274579
0.000155415
1.7104e-05
0.000567303
0.000535485
0.000497054
0.000448644
0.0003851
0.000297716
0.000172522
1.94851e-05
0.000582204
0.000549963
0.000511525
0.000463484
0.000400335
0.000312555
0.000184125
2.10867e-05
0.000587379
0.000554673
0.000516057
0.000468199
0.00040554
0.000318239
0.000189271
2.16826e-05
0.000582763
0.000549584
0.000510717
0.000462896
0.000400669
0.000314297
0.000186867
2.13231e-05
0.000568384
0.000535176
0.000496183
0.000448302
0.000386366
0.000301087
0.000176764
2.02006e-05
0.000544271
0.000512099
0.000473211
0.000425232
0.000363554
0.000279744
0.000160476
1.83115e-05
0.000571439
0.000538162
0.000496595
0.000444207
0.000376476
0.000285806
0.000160899
1.75535e-05
0.000598238
0.000563714
0.00052221
0.000470236
0.000402477
0.000309994
0.000178621
1.99798e-05
0.000614425
0.000579374
0.000537759
0.000486044
0.000418544
0.000325467
0.00019056
2.16153e-05
0.000620157
0.000584619
0.000542797
0.000491216
0.000424113
0.000331391
0.00019581
2.22354e-05
0.000615244
0.000579281
0.000537261
0.000485746
0.000419054
0.000327181
0.000193066
2.19274e-05
0.000599788
0.000563863
0.000521812
0.00047032
0.000403994
0.00031331
0.000182561
2.07811e-05
0.000573761
0.000539084
0.000497297
0.000445838
0.000379899
0.000290887
0.000165647
1.88406e-05
0.000596853
0.000561339
0.000517142
0.000461673
0.000390308
0.000295325
0.000165442
1.79098e-05
0.000625231
0.00058834
0.000544113
0.000488972
0.000417464
0.000320463
0.000183705
2.03714e-05
0.000642502
0.000605012
0.000560614
0.000505661
0.000434303
0.000336534
0.000195967
2.20345e-05
0.000648776
0.000610767
0.000566147
0.00051129
0.000440257
0.000342726
0.000201328
2.26814e-05
0.000643683
0.000605302
0.000560535
0.000505762
0.000435106
0.000338327
0.000198291
2.24272e-05
0.000627328
0.000589089
0.000544388
0.000489711
0.000419468
0.000323943
0.00018748
2.12651e-05
0.000599747
0.000562949
0.000518626
0.000464069
0.000394293
0.000300608
0.000170056
1.92862e-05
0.000619244
0.000581725
0.000535159
0.000476916
0.000402293
0.000303486
0.000169272
1.81913e-05
0.000648973
0.000610021
0.00056337
0.000505386
0.000430511
0.000329484
0.000188011
2.06802e-05
0.000667116
0.000627579
0.000580746
0.000522903
0.000448078
0.000346107
0.00020056
2.23668e-05
0.000673837
0.000633812
0.000586772
0.000529003
0.000454429
0.000352559
0.000205987
2.30498e-05
0.000668655
0.000628327
0.000581193
0.000523519
0.000449273
0.000348044
0.000202723
2.28409e-05
0.00065164
0.000611544
0.000564553
0.000507023
0.00043321
0.000333276
0.000191691
2.16683e-05
0.000622882
0.000584329
0.000537774
0.000480413
0.000407131
0.00030919
0.000173861
1.96609e-05
0.000639287
0.00059986
0.000551071
0.000490258
0.000412666
0.000310451
0.000172481
1.84076e-05
0.000670326
0.000629405
0.000580465
0.000519826
0.000441857
0.000337211
0.000191627
2.09168e-05
0.000689307
0.000647836
0.000598701
0.000538142
0.000460105
0.000354331
0.000204413
2.26243e-05
0.000696477
0.00065457
0.000605246
0.000544731
0.000466847
0.000360986
0.000209788
2.33617e-05
0.000691312
0.000649172
0.000599791
0.000539365
0.00046175
0.000356431
0.00020641
2.31796e-05
0.00067383
0.000632003
0.000582813
0.000522551
0.000445368
0.000341366
0.000195213
2.19997e-05
0.000644107
0.000603892
0.00055519
0.000495126
0.000418525
0.00031665
0.000177056
1.99704e-05
0.000657272
0.000615967
0.000565048
0.000501833
0.000421533
0.000316296
0.000175116
1.85651e-05
0.00068966
0.000646742
0.000595571
0.000532422
0.0004516
0.000343717
0.000194587
2.10887e-05
0.000709549
0.000666077
0.000614658
0.000551499
0.000470475
0.00036127
0.000207563
2.2815e-05
0.000717229
0.000673358
0.000621743
0.000558572
0.000477578
0.000368069
0.000212797
2.36183e-05
0.000712176
0.000668118
0.000616461
0.000553358
0.000472572
0.000363521
0.000209379
2.34505e-05
0.000694371
0.000650667
0.00059923
0.000536292
0.000455928
0.000348215
0.000198058
2.22658e-05
0.000663754
0.000621747
0.000570855
0.000508149
0.000428415
0.00032295
0.000179626
2.02192e-05
0.000673202
0.000630085
0.000577166
0.000511738
0.00042899
0.000321095
0.000177205
1.86713e-05
0.000706941
0.000662039
0.000608742
0.00054326
0.000459842
0.000349085
0.000196943
2.1204e-05
0.000727803
0.000682275
0.000628641
0.000563042
0.000479278
0.000367
0.000210038
2.29503e-05
0.000736054
0.000690123
0.000636256
0.000570573
0.000486709
0.000373913
0.000215109
2.38174e-05
0.000731134
0.000685052
0.000631152
0.000565513
0.000481803
0.000369396
0.000211691
2.3659e-05
0.000713016
0.000667334
0.000613691
0.000548227
0.000464939
0.000353897
0.000200284
2.2472e-05
0.000681501
0.000637658
0.000584631
0.000519439
0.000436832
0.000328159
0.000181632
2.0413e-05
0.000687066
0.000642292
0.000587553
0.000520122
0.000435181
0.000324958
0.00017881
1.87353e-05
0.000722048
0.000675321
0.000620085
0.000552484
0.000466726
0.000353435
0.000198755
2.12743e-05
0.000743837
0.00069639
0.000640726
0.000572903
0.000486647
0.000371601
0.000211804
2.30601e-05
0.000752666
0.000704782
0.000648838
0.000580859
0.00049439
0.000378656
0.000216824
2.39638e-05
0.000747888
0.000699883
0.000643912
0.000575953
0.000489589
0.000374188
0.000213427
2.38126e-05
0.00072945
0.000681917
0.000626247
0.00055848
0.000472544
0.000358538
0.000201964
2.26251e-05
0.000697089
0.000651555
0.000596575
0.00052912
0.000443917
0.000332398
0.000183143
2.05578e-05
0.000699012
0.000652776
0.000596408
0.000527164
0.000440235
0.000327914
0.000179815
1.87986e-05
0.000735073
0.000686757
0.000629798
0.000560291
0.000472427
0.000356882
0.000200044
2.13208e-05
0.000757674
0.00070856
0.000651107
0.000581292
0.00049279
0.000375266
0.000213015
2.31523e-05
0.000767039
0.000717444
0.00065967
0.00058964
0.000500834
0.000382496
0.000218079
2.40685e-05
0.000762429
0.000712731
0.000654925
0.000584887
0.000496138
0.000378081
0.000214708
2.39223e-05
0.000743734
0.000694581
0.000637108
0.000567266
0.000478943
0.000362303
0.000203201
2.27351e-05
0.000710653
0.000663637
0.000606907
0.000537403
0.000449855
0.000335811
0.000184239
2.06618e-05
0.000709364
0.000661842
0.000604013
0.000533134
0.000444416
0.000330226
0.000180443
1.88595e-05
0.000746333
0.000696664
0.000638177
0.00056695
0.000477179
0.000359596
0.00020084
2.13801e-05
0.000769585
0.000719102
0.000660086
0.000588486
0.00049797
0.000378251
0.00021389
2.32215e-05
0.000779378
0.000728406
0.000669051
0.000597195
0.0005063
0.000385663
0.000219024
2.41439e-05
0.000774955
0.000723876
0.000664478
0.000592585
0.000501703
0.000381299
0.000215681
2.40015e-05
0.000756127
0.000705613
0.000646549
0.00057484
0.000484374
0.000365407
0.000204134
2.28149e-05
0.000722509
0.000674194
0.000615891
0.00054453
0.000454872
0.000338595
0.000185042
2.07376e-05
0.000718528
0.000669806
0.000610625
0.00053826
0.000447941
0.00033211
0.000180893
1.89031e-05
0.000756338
0.000705408
0.000645501
0.000572699
0.000481207
0.000361812
0.0002014
2.14254e-05
0.000780171
0.000728437
0.00066797
0.000594732
0.000502398
0.000380732
0.000214548
2.32705e-05
0.000790323
0.000738123
0.00067731
0.000603777
0.000510998
0.000388323
0.000219757
2.41975e-05
0.000786053
0.000733749
0.000672889
0.000599299
0.000506495
0.000384014
0.000216445
2.4059e-05
0.000767125
0.000715376
0.000654848
0.000581437
0.000489048
0.000368027
0.000204872
2.28739e-05
0.00073303
0.000683519
0.000623769
0.00055072
0.000459175
0.000340932
0.000185668
2.07946e-05
0.000726711
0.000676831
0.000616387
0.000542662
0.000450904
0.000333623
0.000181185
1.89317e-05
0.000765369
0.000713183
0.000651925
0.00057767
0.000484618
0.000363614
0.000201778
2.14546e-05
0.000789809
0.000736798
0.000674929
0.000600165
0.000506177
0.000382776
0.000215015
2.33015e-05
0.000800328
0.000746864
0.00068463
0.000609527
0.000515029
0.000390535
0.000220296
2.4232e-05
0.000796165
0.000742621
0.000680345
0.000605171
0.000510622
0.000386292
0.000217026
2.40976e-05
0.000777071
0.000724102
0.00066218
0.000587199
0.00049308
0.000370241
0.000205451
2.29152e-05
0.000742456
0.000691795
0.000630697
0.000556114
0.000462885
0.000342914
0.000186166
2.08359e-05
0.000733917
0.000682965
0.00062137
0.000546413
0.000453361
0.000334799
0.000181335
1.89467e-05
0.000773381
0.000720015
0.000657516
0.000581938
0.00048748
0.000365043
0.000201996
2.14692e-05
0.000798417
0.000744178
0.000681008
0.000604851
0.000509367
0.000384417
0.000215304
2.33161e-05
0.000809309
0.000754608
0.000691042
0.0006145
0.000518446
0.000392328
0.000220649
2.42482e-05
0.000805235
0.000750484
0.000686883
0.000610259
0.000514133
0.000388153
0.000217423
2.41172e-05
0.000785929
0.000731808
0.000668602
0.000592196
0.000496519
0.000372063
0.00020586
2.2938e-05
0.000750787
0.000699073
0.00063675
0.000560785
0.000466049
0.000344552
0.000186525
2.08605e-05
0.000740185
0.000688289
0.000625664
0.000549593
0.000455373
0.000335679
0.000181358
1.89526e-05
0.000780364
0.000725964
0.000662361
0.000585591
0.000489861
0.000366149
0.000202072
2.14744e-05
0.000805943
0.000750621
0.000686293
0.000608882
0.000512044
0.000385707
0.000215438
2.33198e-05
0.000817192
0.000761383
0.000696628
0.00061879
0.000521326
0.000393751
0.000220838
2.42517e-05
0.000813232
0.00075739
0.000692599
0.000614662
0.0005171
0.000389638
0.000217653
2.41224e-05
0.000793761
0.000738607
0.000674241
0.000596534
0.000499431
0.000373521
0.000206109
2.29459e-05
0.000758176
0.000705515
0.000642076
0.00056484
0.000468725
0.000345857
0.000186743
2.087e-05
0.000524473
0.000494221
0.000458198
0.000414906
0.000359841
0.000282963
0.000166921
2.2517e-05
0.000557577
0.000519067
0.000480383
0.000435914
0.000380838
0.000304362
0.000185094
2.56277e-05
0.00058329
0.000534092
0.000491814
0.000445792
0.000390303
0.000314311
0.000194397
2.73518e-05
0.000577722
0.000531795
0.000489805
0.000443949
0.000388923
0.0003138
0.000194999
2.73589e-05
0.000554213
0.000515185
0.000475888
0.000431647
0.000377791
0.000303634
0.000187211
2.56814e-05
0.000523581
0.000490085
0.000453459
0.000411053
0.000358174
0.00028481
0.00017206
2.27484e-05
0.000489587
0.000460399
0.000425911
0.000384448
0.000331731
0.000258985
0.000151457
1.92042e-05
0.00053908
0.00051568
0.000480346
0.000435494
0.000377284
0.000295711
0.000173376
2.3217e-05
0.000551691
0.000537766
0.000502741
0.00045764
0.000399845
0.000318717
0.00019263
2.64346e-05
0.000554066
0.000548898
0.000514017
0.000468196
0.000410334
0.000329787
0.000202753
2.82334e-05
0.000562835
0.000548969
0.000512759
0.000466825
0.00040934
0.000329568
0.000203532
2.82583e-05
0.000564863
0.000537958
0.00050022
0.000454757
0.00039794
0.000318909
0.000195296
2.65367e-05
0.000547826
0.000515964
0.000478442
0.000433842
0.000377509
0.000299108
0.000179457
2.35209e-05
0.000517073
0.000486985
0.000450585
0.000406374
0.000349895
0.000272098
0.000158079
1.9868e-05
0.000567914
0.000542063
0.000504012
0.000455905
0.000393631
0.000306974
0.000178664
2.38211e-05
0.000583815
0.000566396
0.000528301
0.000479896
0.000417939
0.00033139
0.000198646
2.71121e-05
0.00058976
0.000578443
0.000540633
0.000491631
0.000429675
0.000343578
0.00020943
2.89679e-05
0.000597019
0.000578704
0.000539737
0.000490694
0.000429128
0.000343761
0.000210438
2.9013e-05
0.000595439
0.000567
0.000526818
0.000478257
0.000417299
0.000332665
0.000201957
2.72656e-05
0.000578351
0.000544438
0.000504326
0.000456476
0.000395954
0.000312105
0.000185737
2.41946e-05
0.000546771
0.000514419
0.000475304
0.000427765
0.000367105
0.000284043
0.000163778
2.04543e-05
0.000603122
0.00056922
0.000526524
0.000474407
0.000407948
0.000316418
0.00018276
2.43277e-05
0.000631279
0.000598087
0.000553493
0.000500301
0.000433706
0.000341816
0.000203102
2.76628e-05
0.000641303
0.000613498
0.000567705
0.000513467
0.000446624
0.000354879
0.000214267
2.95522e-05
0.000642874
0.000612588
0.000566828
0.000512915
0.000446556
0.000355464
0.000215533
2.96164e-05
0.00063404
0.000597686
0.000552743
0.000500011
0.000434517
0.000344325
0.000207122
2.78656e-05
0.000610758
0.000572605
0.000528926
0.000477411
0.000412596
0.000323417
0.000190848
2.47651e-05
0.000575949
0.000540608
0.000498482
0.000447515
0.00038269
0.000294519
0.000168506
2.09584e-05
0.000632398
0.000591903
0.000545471
0.000490265
0.00042038
0.000324588
0.000186173
2.47641e-05
0.000672223
0.000625333
0.000574436
0.000517388
0.000447138
0.000350765
0.000206845
2.81433e-05
0.000693056
0.000643872
0.000590302
0.000531692
0.000460953
0.00036447
0.000218279
3.00602e-05
0.0006883
0.000641599
0.000589657
0.000531743
0.000461486
0.000365568
0.000219836
3.01421e-05
0.000668442
0.000624245
0.00057515
0.000518974
0.000449674
0.000354625
0.000211615
2.83928e-05
0.000639358
0.000597454
0.000550777
0.000496161
0.000427576
0.000333577
0.00019535
2.52664e-05
0.000601924
0.000564113
0.000519436
0.000465447
0.000396833
0.000303969
0.000172689
2.14028e-05
0.000649662
0.000607559
0.000560738
0.000504102
0.000431621
0.000332056
0.000189274
2.51489e-05
0.000698142
0.000640318
0.000589387
0.000531672
0.000459287
0.000359236
0.000210543
2.85911e-05
0.000721962
0.000661559
0.000606187
0.000546732
0.000473889
0.000373668
0.000222397
3.05475e-05
0.000716202
0.000661306
0.000607165
0.000547829
0.000475129
0.000375242
0.000224206
3.06448e-05
0.000693167
0.000644815
0.000594044
0.000535948
0.000463778
0.000364496
0.000216082
2.88857e-05
0.000662514
0.000618786
0.000570361
0.000513427
0.000441598
0.000343211
0.000199671
2.5723e-05
0.000624565
0.000585289
0.000538673
0.000482086
0.000410044
0.000312847
0.000176631
2.18036e-05
0.000655135
0.000620474
0.000574879
0.000517244
0.000442234
0.000338973
0.000192058
2.54829e-05
0.000685235
0.000648602
0.000602795
0.000545515
0.000471189
0.000367483
0.000214116
2.89969e-05
0.000705654
0.000666477
0.000619229
0.000561158
0.000486714
0.000382853
0.000226551
3.10029e-05
0.00071534
0.000671206
0.000622011
0.000563232
0.000488601
0.00038487
0.000228604
3.1115e-05
0.000704973
0.000661087
0.000611458
0.000552362
0.000477557
0.000374156
0.000220451
2.93357e-05
0.000681711
0.000638331
0.000588976
0.000530005
0.000455043
0.000352392
0.000203743
2.61313e-05
0.000645431
0.000605259
0.000556925
0.000497851
0.000422493
0.000321148
0.000180265
2.21591e-05
0.000671044
0.000636749
0.000590117
0.000530362
0.00045229
0.000345233
0.000194422
2.57639e-05
0.000697392
0.000665295
0.000619208
0.000560174
0.00048285
0.000375073
0.000217147
2.93346e-05
0.000715506
0.00068344
0.000636501
0.000576903
0.000499518
0.000391439
0.000230136
3.13844e-05
0.000725612
0.000688375
0.000639856
0.000579568
0.000501942
0.000393913
0.000232463
3.15125e-05
0.000722143
0.000680385
0.000630076
0.000568906
0.000490861
0.000383095
0.000224247
2.97144e-05
0.00070229
0.000658432
0.000607482
0.000546015
0.000467677
0.000360753
0.000207266
2.64773e-05
0.000666209
0.000624691
0.00057435
0.000512622
0.000433923
0.000328571
0.000183383
2.24617e-05
0.00069401
0.000655449
0.000605732
0.000542936
0.000461565
0.000350855
0.00019645
2.6001e-05
0.000724289
0.000687625
0.0006374
0.000574721
0.000493642
0.000381718
0.000219571
2.96063e-05
0.000740285
0.000706838
0.000656044
0.000592746
0.000511421
0.000398899
0.000232934
3.16843e-05
0.000751691
0.000711095
0.000659339
0.000595698
0.000514281
0.000401781
0.000235494
3.18244e-05
0.00074627
0.000701854
0.00064885
0.000584613
0.000502938
0.000390824
0.000227263
3.0016e-05
0.000724419
0.00067846
0.000625092
0.000560764
0.00047898
0.00036795
0.0002101
2.67577e-05
0.000686429
0.000642987
0.000590372
0.000525922
0.00044398
0.000334897
0.000185894
2.27087e-05
0.000715777
0.000672094
0.000619402
0.00055395
0.000469676
0.000355694
0.000198087
2.61939e-05
0.000757496
0.000709857
0.0006535
0.000587228
0.000502837
0.000387284
0.00022145
2.98241e-05
0.000786148
0.000733359
0.000674206
0.000606521
0.000521511
0.000405057
0.000235057
3.19189e-05
0.000783713
0.000734502
0.000677128
0.000609766
0.000524773
0.000408278
0.000237799
3.20658e-05
0.000771248
0.000721971
0.000665636
0.000598339
0.00051331
0.000397289
0.000229624
3.02524e-05
0.000745152
0.000696527
0.000640692
0.000573666
0.000488723
0.000373984
0.000212331
2.69796e-05
0.000704635
0.000659232
0.000604455
0.000537484
0.00045258
0.000340151
0.00018785
2.29038e-05
0.000729819
0.000683941
0.000630291
0.000563082
0.000476364
0.000359446
0.000199109
2.63278e-05
0.00078194
0.000721705
0.000664469
0.000596921
0.000510311
0.000391735
0.000222777
2.99846e-05
0.000809187
0.000747135
0.000685845
0.000616853
0.000529649
0.000410084
0.000236666
3.20968e-05
0.000806365
0.000749533
0.000689979
0.000620895
0.000533449
0.000413676
0.000239591
3.22495e-05
0.000789793
0.000737231
0.000679139
0.000609807
0.000522101
0.000402716
0.000231486
3.04325e-05
0.000761975
0.00071156
0.000653949
0.000584738
0.000497037
0.00037904
0.000214086
2.71507e-05
0.000720078
0.000673191
0.000616619
0.000547453
0.000459912
0.000344511
0.000189359
2.30537e-05
0.000736957
0.000693747
0.000639662
0.000570918
0.000481873
0.000362219
0.000199574
2.64071e-05
0.000776742
0.000728186
0.000673262
0.000605315
0.000516785
0.000395387
0.000223637
3.00904e-05
0.000800222
0.000750127
0.000694278
0.000625724
0.000536872
0.000414446
0.000237909
3.22252e-05
0.000812236
0.000758133
0.000700234
0.000630615
0.000541187
0.000418417
0.000241065
3.23872e-05
0.000801376
0.000749296
0.000690758
0.000619977
0.000529918
0.00040748
0.000233016
3.05695e-05
0.000775782
0.000724546
0.000665654
0.000594582
0.000504416
0.000383435
0.000215509
2.72822e-05
0.000733464
0.000685476
0.000627381
0.000556253
0.000466315
0.00034822
0.000190553
2.31696e-05
0.00074775
0.000704379
0.000649035
0.000578367
0.000486914
0.000364663
0.000199915
2.64646e-05
0.000785022
0.000739109
0.000683689
0.00061404
0.000523022
0.000398673
0.000224275
3.01633e-05
0.000810223
0.000761896
0.000705487
0.000635333
0.000543982
0.000418438
0.000238887
3.23157e-05
0.000823648
0.00077029
0.00071163
0.00064042
0.000548563
0.000422727
0.000242268
3.24881e-05
0.00081411
0.000761744
0.000702148
0.000629619
0.000537152
0.000411732
0.000234255
3.06732e-05
0.000788845
0.000736771
0.000676535
0.000603604
0.000511051
0.000387278
0.00021665
2.73837e-05
0.00074577
0.000696713
0.000637152
0.000564155