/*--------------------------------*- C++ -*----------------------------------*\
| =========                 |                                                 |
| \\      /  F ield         | OpenFOAM: The Open Source CFD Toolbox           |
|  \\    /   O peration     | Version:  plus.master.MPPICInterFoam            |
|   \\  /    A nd           | Web:      www.OpenFOAM.com                      |
|    \\/     M anipulation  |                                                 |
\*---------------------------------------------------------------------------*/
FoamFile
{
    version     2.0;
    format      ascii;
    class       volScalarField;
    location    "4";
    object      k;
}
// * * * * * * * * * * * * * * * * * * * * * * * * * * * * * * * * * * * * * //

dimensions      [0 2 -2 0 0 0 0];

internalField   nonuniform List<scalar> 
11822
(
0.0406704
0.0468893
0.052087
0.0528396
0.0487834
0.0433501
0.0374425
0.0477207
0.05674
0.066272
0.0664848
0.0591942
0.0511494
0.0431006
0.0541099
0.0645894
0.0704141
0.0739763
0.0685642
0.0586046
0.0477307
0.0577848
0.0715406
0.0641919
0.0788034
0.0735216
0.0623465
0.0497547
0.0545009
0.0654999
0.0691153
0.0742531
0.0688726
0.0588319
0.0480226
0.0485215
0.0570929
0.0646215
0.0648935
0.0594744
0.0517669
0.0438372
0.0421006
0.0480848
0.0528459
0.0535288
0.0497979
0.0445209
0.0386459
0.0394884
0.0446906
0.0484924
0.0492693
0.0465283
0.0420771
0.0369096
0.0456885
0.0531831
0.0594966
0.0609503
0.0558509
0.0489152
0.0420813
0.0509835
0.0609375
0.0644994
0.0643233
0.0651995
0.0550387
0.0461603
0.0536669
0.0656752
0.0661252
0.0707583
0.0715854
0.0582685
0.048038
0.0517349
0.061986
0.0648107
0.0644939
0.0666611
0.0559061
0.0468631
0.047242
0.0546931
0.0609727
0.0627037
0.0575085
0.0504201
0.0434174
0.0417801
0.0470156
0.0508158
0.051617
0.0487434
0.0441429
0.0387383
0.0392159
0.0438161
0.0469143
0.0476199
0.0456171
0.0418567
0.037111
0.0448485
0.0508842
0.0554093
0.0566002
0.0533589
0.0480442
0.0421039
0.049401
0.0575062
0.0638429
0.0649704
0.060945
0.0532613
0.0459182
0.0516926
0.0607873
0.0670817
0.0656133
0.0660591
0.0560865
0.0477558
0.0506662
0.0588417
0.0653985
0.0660459
0.0626702
0.0545613
0.0469041
0.0471131
0.0535045
0.0585083
0.059717
0.0561285
0.0502305
0.0438707
0.0422366
0.0470881
0.0503948
0.051063
0.0487601
0.0446067
0.0393886
0.0400983
0.0446684
0.0476312
0.0483548
0.0465579
0.042915
0.0381186
0.0457694
0.0513831
0.0554037
0.0566171
0.0539807
0.0491764
0.0433211
0.0501642
0.0572763
0.0628314
0.0650955
0.0610364
0.0543244
0.0472751
0.0525516
0.0606182
0.0657115
0.066631
0.0656482
0.0572425
0.0492605
0.0518874
0.0597312
0.0648236
0.0666665
0.0638888
0.0560793
0.0485016
0.0486701
0.0549625
0.0598709
0.0612629
0.0577061
0.0519898
0.0454454
0.0437455
0.0487762
0.0520546
0.0527329
0.0505035
0.0462552
0.0407202
0.0419251
0.0469197
0.0501436
0.0509271
0.0489838
0.0450333
0.0397875
0.0481621
0.0542776
0.0586667
0.0599285
0.0571078
0.0519715
0.0455239
0.0530369
0.0606741
0.0661638
0.0687902
0.0647137
0.0577338
0.0499524
0.055712
0.0642586
0.0694349
0.0700617
0.070221
0.0611561
0.0521871
0.055022
0.062874
0.0681575
0.0702881
0.0673155
0.0598503
0.0513947
0.0516683
0.0587427
0.063464
0.0648622
0.061617
0.0553844
0.0479764
0.0461054
0.0518342
0.0554318
0.0561405
0.0537078
0.0489038
0.0426648
0.0435335
0.0491
0.0529549
0.0538297
0.0514574
0.0469815
0.0412811
0.0503153
0.0576671
0.0628337
0.0643148
0.0608494
0.0548058
0.0475611
0.0563562
0.0656694
0.0719495
0.0746417
0.0696078
0.0616158
0.052635
0.0596786
0.0707755
0.0725328
0.073982
0.0755182
0.0657415
0.0552459
0.0588238
0.0690052
0.0721111
0.0752152
0.0724377
0.0643573
0.0543288
0.0545182
0.0635257
0.0695474
0.0710245
0.0666347
0.0589329
0.0502715
0.0480095
0.0547673
0.0592191
0.0600406
0.056902
0.0511841
0.0443015
0.0318655
0.0276459
0.0237691
0.0201983
0.0168659
0.0136147
0.0100427
0.00448104
0.0360438
0.0306935
0.0260507
0.0219172
0.0181413
0.0145312
0.0106497
0.00466163
0.0393521
0.033145
0.0279115
0.023314
0.0191733
0.0152693
0.0111339
0.00481316
0.0407927
0.0342436
0.0287685
0.0240109
0.0197189
0.0156784
0.0114151
0.00491294
0.0397738
0.0336347
0.0284225
0.0238376
0.0196525
0.0156747
0.0114424
0.0049487
0.0369341
0.0316701
0.0270804
0.0229051
0.0190244
0.015278
0.0112216
0.00492163
0.0331672
0.0289892
0.0251157
0.0214732
0.018009
0.0145917
0.0107986
0.00483409
0.0317421
0.0276971
0.0238929
0.0203423
0.0170033
0.0137317
0.0101294
0.0045277
0.0357214
0.0307066
0.0261983
0.0220875
0.0182938
0.0146523
0.0107326
0.00470019
0.0388305
0.0331304
0.0280669
0.0234996
0.0193358
0.0153887
0.0112049
0.00483782
0.0402818
0.0342826
0.0290103
0.024245
0.0198995
0.0157983
0.0114783
0.00492728
0.0395253
0.0338151
0.0287512
0.0241106
0.0198496
0.0157994
0.0115041
0.0049557
0.0370102
0.031962
0.027377
0.0231599
0.0192191
0.0154055
0.0112871
0.00492603
0.0334394
0.0293289
0.0254247
0.0217217
0.0181981
0.0147181
0.0108648
0.00484111
0.0320643
0.0280129
0.0241798
0.0205775
0.0171894
0.0138746
0.0102287
0.00457268
0.036067
0.0310972
0.0265462
0.0223586
0.0184946
0.0147946
0.0108238
0.00473579
0.0391719
0.0335691
0.0284589
0.0238042
0.0195446
0.0155214
0.0112811
0.00486191
0.0406619
0.0347825
0.0294235
0.0245496
0.020101
0.0159177
0.0115353
0.00493771
0.040013
0.0343565
0.0291553
0.0244075
0.0200436
0.0159083
0.0115491
0.00495549
0.0376128
0.0325147
0.0278169
0.023461
0.0194067
0.0155074
0.0113243
0.00491796
0.0340391
0.0298348
0.0258113
0.0219938
0.018368
0.0148102
0.0108972
0.0048303
0.0328296
0.0285714
0.0245675
0.0208446
0.0173772
0.0140161
0.0103387
0.00462438
0.0370685
0.031829
0.0270411
0.0226778
0.018696
0.01493
0.0109206
0.00477847
0.0403405
0.0344661
0.0290878
0.0241843
0.0197569
0.0156437
0.0113583
0.00489337
0.0419446
0.0357108
0.0300379
0.0249061
0.0202888
0.0160138
0.0115874
0.00495608
0.041311
0.0352781
0.029748
0.0247318
0.0202039
0.0159799
0.0115803
0.00496057
0.0387867
0.0333266
0.0283245
0.0237354
0.0195355
0.0155573
0.011339
0.00491053
0.0349784
0.030485
0.0262172
0.0222144
0.0184705
0.014847
0.0109046
0.00481516
0.0339661
0.0293446
0.0250792
0.0211967
0.0176508
0.0142676
0.0105808
0.00472818
0.0386165
0.0328754
0.0276988
0.0230876
0.0189838
0.0151836
0.0111667
0.00489541
0.0422141
0.0357445
0.0299067
0.0246363
0.0200391
0.0158857
0.0115985
0.00501551
0.043935
0.0370805
0.0308725
0.0253792
0.0205789
0.0162528
0.0118274
0.00508
0.0432852
0.0365619
0.0305094
0.0251571
0.0204595
0.0161907
0.0117975
0.00506924
0.0404633
0.0343909
0.0289352
0.0240657
0.0197367
0.0157281
0.0115222
0.0049934
0.0362308
0.0312821
0.0266747
0.0224678
0.0186308
0.0149862
0.0110563
0.00486303
0.035029
0.0301108
0.0256535
0.0217597
0.0183224
0.0150961
0.0115379
0.0058734
0.0400169
0.0338325
0.0283594
0.0236742
0.0196838
0.0160754
0.0122281
0.00617568
0.043993
0.0369055
0.030604
0.0251957
0.0207444
0.0168195
0.0127403
0.00640954
0.045899
0.0383502
0.0316866
0.0260049
0.0213026
0.0172063
0.0130055
0.00653136
0.0451528
0.037766
0.031279
0.0257526
0.0211559
0.0171172
0.0129463
0.00650128
0.041961
0.0353811
0.0295363
0.0245869
0.0203917
0.0166096
0.0126107
0.00635546
0.0373345
0.0320451
0.0271986
0.0229461
0.0192516
0.0158176
0.0120688
0.00612723
0.0360572
0.0314344
0.0271287
0.0230963
0.0192864
0.0155645
0.0115136
0.00536848
0.0406672
0.0346691
0.029441
0.024744
0.0204295
0.0163246
0.0119777
0.00552027
0.0445164
0.037252
0.0311734
0.0258905
0.0211598
0.0167604
0.0122103
0.00558002
0.0461992
0.0381734
0.0316638
0.0261117
0.0212223
0.016731
0.0121445
0.00553433
0.0440437
0.0366517
0.0304916
0.0251891
0.0205004
0.0161846
0.0117606
0.00537545
0.039627
0.03343
0.0281023
0.0234122
0.019192
0.0152519
0.0111436
0.00513872
0.0344462
0.0296467
0.0252828
0.0213107
0.0176521
0.0141583
0.0104209
0.00486625
0.0361148
0.0316683
0.0273718
0.0232713
0.0193728
0.0155781
0.0114754
0.00533746
0.040255
0.0347071
0.0296269
0.0249116
0.020519
0.0163367
0.0119408
0.00548596
0.0433396
0.0369051
0.0311692
0.025967
0.021206
0.016749
0.0121566
0.00553878
0.0443764
0.0374817
0.0314662
0.0260699
0.021196
0.0166777
0.0120681
0.00548716
0.0424842
0.0359753
0.0302423
0.0250886
0.0204252
0.0161002
0.0116704
0.00532704
0.0385986
0.0329654
0.027903
0.023305
0.0191055
0.0151646
0.0110571
0.0050955
0.0338285
0.0293429
0.0251272
0.0212033
0.0175551
0.0140645
0.0103351
0.00482774
0.0366264
0.0321312
0.0277054
0.0234604
0.0194397
0.0155581
0.0114085
0.00529452
0.040605
0.0351683
0.030004
0.0251465
0.0206212
0.0163401
0.011886
0.00544559
0.0432693
0.0371861
0.0314881
0.0261818
0.0213007
0.016753
0.012105
0.00550266
0.0438923
0.0375427
0.0316636
0.0262264
0.021263
0.0166742
0.0120186
0.00545611
0.0420552
0.0359821
0.0303635
0.0251875
0.0204655
0.0160905
0.0116287
0.00530299
0.0384141
0.0330195
0.0280036
0.0233734
0.0191287
0.0151492
0.0110186
0.00507677
0.0338018
0.0294005
0.025186
0.021235
0.0175583
0.0140458
0.0103027
0.0048154
0.0377141
0.03288
0.0281476
0.023654
0.0194668
0.0154928
0.0113124
0.00523092
0.0419102
0.0361237
0.0306041
0.0254436
0.0207075
0.0163083
0.0118049
0.00538784
0.0445522
0.0382037
0.0321603
0.0265381
0.0214314
0.0167503
0.0120463
0.00545868
0.0450107
0.0384876
0.0323053
0.0265873
0.0214091
0.0166962
0.0119854
0.0054269
0.0430423
0.0368136
0.0309286
0.025511
0.0206147
0.016132
0.0116155
0.00528438
0.0392928
0.0336891
0.0284509
0.0236325
0.019252
0.0151943
0.011025
0.0050696
0.0344869
0.0298871
0.0254978
0.0214153
0.0176548
0.014095
0.0103257
0.00481941
0.0392231
0.0338046
0.028608
0.0237973
0.0194271
0.0153821
0.01121
0.00516094
0.0439631
0.0374278
0.031311
0.0257271
0.0207395
0.0162372
0.0117278
0.00533702
0.0468912
0.0397557
0.033041
0.0269382
0.0215401
0.0167342
0.0120144
0.00543735
0.0473837
0.0400821
0.0332343
0.0270464
0.021575
0.0167292
0.0119992
0.00542968
0.0451579
0.0382418
0.0317856
0.0259551
0.0207905
0.0161928
0.0116567
0.00529859
0.0410062
0.0348421
0.0291466
0.0240016
0.019425
0.0152796
0.0110907
0.00509136
0.035732
0.0307306
0.0260249
0.0217171
0.0178267
0.0142086
0.0104221
0.00485115
0.0404102
0.0345065
0.0289309
0.0239153
0.019542
0.0156084
0.0115772
0.00587876
0.0456682
0.0384877
0.0318579
0.0259661
0.0208879
0.0164655
0.0120988
0.00608796
0.0490805
0.0411072
0.0338023
0.0273434
0.0217734
0.0170143
0.0124308
0.00623274
0.0497305
0.0415523
0.0341123
0.0275503
0.0219009
0.0170788
0.01247
0.00625075
0.0471408
0.0395619
0.0326024
0.0264524
0.0211389
0.0165741
0.0121478
0.00610925
0.0424954
0.0359067
0.0298417
0.0244582
0.0197847
0.0156918
0.0115966
0.00587501
0.0369035
0.0315899
0.0266213
0.0221556
0.0182405
0.0146809
0.0109644
0.00561695
0.0341912
0.0293862
0.0250222
0.0210533
0.0174145
0.0139505
0.0102558
0.00476535
0.0384862
0.0322696
0.0269838
0.0223874
0.0183018
0.0145213
0.0105935
0.00483842
0.0416976
0.0343786
0.0283825
0.0233056
0.0188896
0.0148818
0.0107933
0.00486653
0.0422579
0.0347407
0.028595
0.0234332
0.0189629
0.0149161
0.0108022
0.0048382
0.0398852
0.0331585
0.027527
0.0227137
0.0184907
0.0146163
0.0106235
0.00475448
0.0360744
0.0304726
0.025666
0.0214547
0.0176612
0.0141016
0.0103296
0.00464225
0.0317482
0.027467
0.0235824
0.0200128
0.0166991
0.0134847
0.00996299
0.00450275
0.0335774
0.0290782
0.0248584
0.0209526
0.0173336
0.0138819
0.0101948
0.00474719
0.0373669
0.0317296
0.0267347
0.0222616
0.0182263
0.0144668
0.0105514
0.00482891
0.0400127
0.0335932
0.028029
0.0231344
0.0188002
0.0148278
0.0107575
0.00486095
0.0405427
0.0339355
0.02824
0.0232697
0.0188828
0.014876
0.010779
0.00483884
0.0387147
0.0326054
0.0272954
0.0226247
0.0184629
0.0146189
0.0106337
0.00476832
0.0354546
0.0302204
0.0255968
0.0214657
0.0177197
0.0141664
0.0103887
0.00467593
0.0315374
0.0274561
0.0236524
0.0201209
0.0168126
0.0135904
0.0100484
0.0045468
0.0335394
0.029131
0.0249266
0.0209981
0.0173582
0.0138884
0.0101886
0.0047514
0.037119
0.0317316
0.0268069
0.0223249
0.0182722
0.0144956
0.0105663
0.00484545
0.0394998
0.0334911
0.0280616
0.0231907
0.018853
0.0148673
0.0107829
0.00488498
0.0400277
0.0338418
0.0282745
0.023331
0.018945
0.0149289
0.0108171
0.00486981
0.0385052
0.0326533
0.0273985
0.0227196
0.0185424
0.0147025
0.0106998
0.00480892
0.0355305
0.0304039
0.0257881
0.0216415
0.0178625
0.0142895
0.0104878
0.00472228
0.0318025
0.0277323
0.0239036
0.0203345
0.0169891
0.0137336
0.0101545
0.00459373
0.0342113
0.0296246
0.0252529
0.0211923
0.0174758
0.0139621
0.0102395
0.00477262
0.0378977
0.0323273
0.0272069
0.0225785
0.0184284
0.0145981
0.0106386
0.00488061
0.0402954
0.0341454
0.0285085
0.0234723
0.0190251
0.0149844
0.0108685
0.00493228
0.0408286
0.0345032
0.0287313
0.0236176
0.0191232
0.0150551
0.0109148
0.00492625
0.0393437
0.033312
0.0278411
0.0230064
0.0187519
0.0148446
0.0108203
0.00487489
0.0363723
0.0310284
0.0262171
0.02193
0.0180709
0.0144513
0.0106181
0.00478797
0.0325365
0.0282712
0.0242829
0.0205986
0.0171821
0.0138838
0.0102734
0.00465188
0.0354477
0.0304728
0.0257917
0.021521
0.0176802
0.0141109
0.0103706
0.00482432
0.039468
0.0333905
0.0278847
0.0229838
0.0186773
0.0147773
0.0107959
0.00495653
0.0420708
0.035345
0.0292803
0.0239392
0.0193135
0.0151937
0.0110533
0.00503328
0.0426513
0.0357388
0.0295254
0.0240918
0.0194157
0.0152686
0.0111148
0.00504646
0.0410399
0.034462
0.0285677
0.0234587
0.0190475
0.015077
0.0110379
0.00501961
0.0378293
0.0320133
0.0268473
0.0223293
0.0183509
0.0146847
0.010839
0.00492391
0.0336515
0.0290311
0.0247801
0.02093
0.0174328
0.0141085
0.0104889
0.00476697
0.0366503
0.0313583
0.0264135
0.0219984
0.0181533
0.014645
0.0109689
0.00563191
0.0409976
0.0345117
0.0286748
0.0235656
0.0192172
0.0153706
0.0114556
0.0058361
0.0438997
0.0366495
0.0301941
0.0246333
0.0199283
0.0158576
0.0117856
0.00598193
0.0445331
0.0370732
0.0304822
0.0248167
0.0201016
0.0160173
0.0118921
0.00602773
0.0427197
0.0356662
0.0294517
0.0241559
0.0197478
0.0158136
0.0117953
0.00599854
0.0392039
0.0330201
0.0275963
0.0229372
0.018966
0.0153961
0.0116477
0.00594668
0.0347071
0.0298126
0.0253589
0.0214683
0.0180392
0.014851
0.0113413
0.00580925
0.033209
0.0289693
0.0250375
0.0213825
0.0179346
0.0145409
0.010782
0.00486834
0.0376865
0.0322756
0.0274755
0.0231595
0.0192159
0.0154559
0.0113954
0.0051444
0.04153
0.0351841
0.029694
0.0248202
0.0204142
0.0162905
0.0119135
0.0053437
0.0438708
0.0368837
0.0310048
0.025848
0.0211952
0.0168363
0.0122898
0.00552089
0.043397
0.0366209
0.0308894
0.0258273
0.0212354
0.016903
0.0123589
0.00559226
0.0403401
0.0345255
0.0294283
0.0248129
0.0205492
0.0164642
0.0121039
0.0055437
0.0361047
0.0315128
0.0272232
0.0232004
0.0193919
0.0156612
0.0115908
0.00539554
0.0334559
0.0292682
0.0253146
0.0216135
0.0181055
0.0146496
0.0108287
0.00486561
0.0377869
0.0325466
0.0277513
0.0233793
0.0193744
0.0155383
0.0114173
0.00511284
0.0413326
0.0353706
0.0299565
0.025019
0.0205239
0.0163208
0.0118974
0.00531007
0.0433458
0.036966
0.0312624
0.0260633
0.0213089
0.0168655
0.0122589
0.00547638
0.0428675
0.0367029
0.0311465
0.026055
0.0213568
0.0169297
0.0123217
0.00554521
0.0401666
0.0347297
0.0297165
0.0250391
0.0206676
0.0164853
0.0120637
0.00549974
0.0362064
0.0317805
0.027495
0.0233853
0.019473
0.0156615
0.0115398
0.0053525
0.0340331
0.0297516
0.0256853
0.0218629
0.0182599
0.014732
0.0108493
0.00484714
0.0383867
0.0330782
0.0281521
0.0236565
0.0195328
0.0156002
0.0114101
0.0050745
0.041842
0.0359288
0.0303777
0.0252858
0.0206924
0.0163811
0.0118886
0.00527786
0.0436978
0.0375118
0.0316991
0.0263143
0.0214104
0.0168688
0.0121944
0.00542439
0.0432438
0.0372478
0.031595
0.0263154
0.0214521
0.0169134
0.0122452
0.0054871
0.0406732
0.0352716
0.0301268
0.0252753
0.0207472
0.0164601
0.0119819
0.00544098
0.0367359
0.0322451
0.0278139
0.0235555
0.0195191
0.0156219
0.0114545
0.00529748
0.034968
0.0303982
0.0260911
0.0220911
0.0183761
0.0147768
0.0108575
0.00482575
0.0396158
0.033919
0.0286756
0.0239306
0.0196596
0.0156399
0.0114092
0.00503987
0.0432873
0.0369431
0.03098
0.0255879
0.020768
0.0163754
0.0118559
0.005233
0.0452185
0.0386173
0.032349
0.0266109
0.021484
0.0168396
0.0121221
0.00536668
0.0447515
0.0383551
0.0322579
0.0266053
0.0215053
0.0168537
0.0121401
0.00541507
0.042055
0.0362439
0.0307022
0.0255269
0.0207802
0.0163775
0.0118601
0.00536259
0.0378248
0.0329735
0.0282248
0.0237193
0.0195158
0.0155287
0.0113351
0.00522222
0.036228
0.0311998
0.0265547
0.0223414
0.0185168
0.0148864
0.0109757
0.00484523
0.041374
0.035022
0.0293021
0.0242609
0.0197979
0.0157192
0.0114905
0.00504555
0.0454849
0.0383065
0.0317156
0.0259162
0.020897
0.0164012
0.011885
0.00522289
0.0476559
0.0401424
0.0331435
0.0269261
0.0215609
0.0168066
0.0121076
0.00534635
0.0471421
0.039847
0.0330106
0.0268659
0.0214951
0.0167599
0.0120641
0.0053678
0.0441103
0.0375055
0.0313351
0.0257203
0.0207346
0.0162486
0.0117506
0.00529499
0.0393259
0.0338828
0.0286631
0.0238304
0.0194489
0.0153997
0.0112212
0.00514454
0.0373477
0.0320042
0.0271239
0.0228235
0.0190893
0.0156329
0.0118826
0.00602342
0.0428484
0.0360231
0.0299927
0.0247728
0.0202749
0.0163406
0.0122776
0.00617911
0.0473788
0.0395139
0.0324757
0.026451
0.0213271
0.0169107
0.0125758
0.00631024
0.0498868
0.0415009
0.0339227
0.0274017
0.021911
0.0172427
0.0127066
0.0063718
0.0493194
0.0411424
0.0336924
0.0272292
0.0217974
0.0171133
0.0125618
0.00629678
0.0458467
0.0385313
0.0318316
0.0259305
0.0209203
0.0165514
0.0121878
0.00612214
0.040515
0.03457
0.0289711
0.0239538
0.0195855
0.0156556
0.0116184
0.00589316
0.000165092
0.000332323
0.000424115
0.000547594
0.000759319
0.00104744
0.00134446
0.00158725
0.000165837
0.000332949
0.000424488
0.000548527
0.000762281
0.00105082
0.00134686
0.00158718
0.000166364
0.000333078
0.000423708
0.000547067
0.000761109
0.00104976
0.00134548
0.00158423
0.00016648
0.000332611
0.000422213
0.00054443
0.000757768
0.00104676
0.00134365
0.00158322
0.000166025
0.00033131
0.000419814
0.000540383
0.000751672
0.00104046
0.00133928
0.0015818
0.000165184
0.000329484
0.000416868
0.000535252
0.000743044
0.00103015
0.00133013
0.00157604
0.000164348
0.000328064
0.000414794
0.000531303
0.00073538
0.0010197
0.00131907
0.00156676
0.000219807
0.000458064
0.000652739
0.000933333
0.00132055
0.00179659
0.00222732
0.00253477
0.000219666
0.000455335
0.000647925
0.000929924
0.00132436
0.00180609
0.00223876
0.002545
0.000219326
0.000451863
0.000641339
0.000923723
0.00132587
0.00181591
0.00225327
0.00256026
0.000218707
0.000448279
0.000634551
0.000916584
0.00132559
0.00182553
0.00227059
0.0025815
0.000217426
0.000443952
0.000626574
0.000906129
0.00131759
0.00182514
0.00227813
0.00259498
0.000215886
0.00043982
0.000618787
0.000893607
0.00130122
0.00181036
0.00226807
0.00259044
0.000214834
0.000437842
0.00061479
0.000884822
0.00128424
0.00178785
0.00224445
0.00256922
0.00030152
0.000676484
0.00106583
0.00159709
0.00225641
0.00295397
0.0035028
0.00383149
0.000297207
0.000664582
0.00105285
0.00159385
0.0022757
0.0029879
0.0035386
0.00386475
0.000293281
0.000653145
0.00104076
0.00159425
0.0023053
0.0030381
0.00359443
0.00391951
0.000290169
0.000644419
0.00103279
0.0016007
0.00234411
0.00309984
0.00366587
0.00399249
0.000286951
0.000635963
0.00102351
0.00160118
0.00236875
0.00314384
0.00372007
0.0040503
0.000284311
0.000628979
0.00101261
0.00158952
0.00236162
0.003146
0.0037295
0.00406448
0.000283515
0.000627019
0.00100572
0.00157157
0.0023258
0.0031041
0.00368798
0.00402696
0.000450566
0.00110536
0.00184681
0.00279268
0.00389534
0.00480978
0.00538093
0.00562168
0.000442294
0.00109461
0.00185495
0.00283802
0.00399077
0.00491253
0.00546631
0.00569466
0.000437536
0.00109302
0.0018803
0.00291221
0.00413305
0.00505941
0.00559902
0.00581301
0.000438044
0.00110615
0.0019314
0.00301933
0.00431271
0.0052379
0.00576747
0.00596805
0.000440108
0.0011224
0.00198289
0.00311751
0.00446502
0.00538848
0.00591131
0.00610299
0.000441105
0.00113083
0.00200623
0.00315862
0.00452175
0.0054489
0.00597067
0.00616034
0.00044021
0.00112824
0.00199128
0.00312386
0.00445811
0.00539116
0.0059146
0.00610801
0.000765335
0.00225402
0.00396443
0.00572088
0.00707474
0.0078617
0.00818798
0.00814142
0.000781265
0.0024043
0.00421474
0.00606297
0.00735987
0.00808109
0.0083546
0.00827179
0.000814386
0.00261129
0.00454094
0.00649052
0.00772864
0.00838135
0.00860004
0.00847482
0.00085488
0.00282848
0.00489763
0.00689611
0.00809463
0.00870329
0.00888238
0.00872192
0.000893745
0.00300593
0.00517193
0.00719899
0.0083805
0.00896365
0.00911764
0.00893735
0.000920012
0.00308045
0.00527581
0.00731929
0.0085088
0.00908596
0.00922928
0.00904254
0.000923769
0.00303192
0.00519916
0.00724415
0.0084572
0.00903909
0.00917544
0.00898382
0.00298201
0.00732205
0.0104217
0.0120525
0.0126928
0.012722
0.0123168
0.011595
0.00339519
0.00843024
0.0114897
0.0128804
0.0132932
0.0131273
0.0125815
0.0117762
0.0038351
0.00955234
0.0126123
0.0137846
0.0139798
0.0136241
0.012946
0.0120562
0.00401443
0.00999982
0.0130526
0.0142075
0.0143791
0.0139896
0.0132762
0.0123509
0.00406595
0.0100587
0.0131357
0.0143571
0.014591
0.0142302
0.0135175
0.0125873
0.00402555
0.00989309
0.0130405
0.0143503
0.0146585
0.0143375
0.0136304
0.012702
0.00391531
0.00959371
0.0128295
0.0142248
0.0145987
0.0143133
0.0136024
0.0126544
0.000159108
0.000314949
0.000382849
0.000458068
0.00059807
0.00083373
0.00111149
0.00135815
0.000158593
0.000314646
0.000383608
0.000461665
0.000607112
0.000853929
0.00114591
0.00140637
0.000158451
0.000316022
0.000387973
0.000471609
0.000625121
0.000883336
0.00118683
0.00145743
0.000158511
0.000318567
0.000394491
0.000484221
0.000644915
0.000909727
0.00121562
0.00148603
0.000158993
0.000321372
0.000400052
0.000492607
0.000654977
0.000918306
0.00121856
0.00148165
0.000159675
0.000322728
0.000401084
0.00049136
0.000649182
0.000904391
0.00119426
0.00144631
0.000160583
0.000323267
0.000399679
0.00048574
0.000637139
0.000881951
0.00115979
0.00139963
0.000206322
0.000411412
0.000550073
0.000756622
0.00108187
0.00152886
0.00198029
0.00231787
0.000204929
0.000410133
0.000551499
0.000764572
0.00110062
0.00156061
0.00203323
0.00238901
0.000204924
0.000413588
0.000561653
0.000784622
0.00113121
0.00159846
0.00208291
0.00244995
0.000206642
0.000422695
0.000581336
0.000816342
0.00116929
0.00162862
0.00210232
0.00246257
0.000209471
0.0004324
0.000598436
0.000839254
0.00119109
0.00163788
0.00209358
0.00243936
0.00021211
0.00043769
0.000604341
0.000842843
0.00118815
0.00162517
0.00206556
0.00239621
0.000214446
0.000439714
0.000603335
0.000835732
0.00117235
0.00160225
0.00202957
0.00234605
0.000276679
0.00059756
0.000921119
0.001399
0.00203778
0.00277926
0.00339349
0.00375922
0.000273848
0.000593838
0.000920064
0.00140712
0.00206552
0.00284072
0.00348995
0.00387632
0.000274202
0.000599025
0.000931384
0.00142476
0.00209051
0.00287763
0.00354415
0.00394524
0.000280848
0.000621219
0.000965455
0.00145841
0.00210424
0.00285395
0.00349868
0.0038945
0.000289847
0.000645718
0.000999425
0.00148899
0.00211226
0.00281976
0.0034296
0.00380981
0.000297285
0.000661228
0.00101824
0.00150455
0.00211536
0.0027996
0.00338323
0.00374538
0.000302571
0.000668074
0.00102371
0.00150598
0.00210945
0.00278165
0.00334665
0.00369227
0.00043691
0.00107522
0.00181606
0.00279516
0.00393719
0.00499421
0.00564248
0.00587703
0.000433328
0.00107348
0.00182764
0.00283092
0.00400948
0.00512526
0.00581282
0.00606495
0.000431875
0.0010708
0.00182237
0.00282096
0.00399818
0.00514449
0.00585678
0.0061314
0.000440521
0.0010821
0.0018073
0.00275337
0.00385911
0.00496939
0.00568044
0.00596769
0.000454566
0.00110281
0.00180552
0.00270264
0.0037382
0.00478827
0.00547472
0.00576471
0.000468103
0.00112338
0.00181755
0.00269336
0.00369961
0.00470562
0.00536494
0.00564625
0.000477091
0.00113346
0.00182327
0.00269231
0.00369418
0.00467139
0.00530851
0.00557679
0.000852623
0.00236432
0.00405726
0.0059356
0.00760059
0.00854761
0.00891487
0.00881583
0.000853234
0.00236709
0.00408128
0.0059768
0.00769157
0.00869102
0.00910862
0.00904836
0.00083885
0.00231393
0.00399684
0.00586275
0.00759826
0.00863554
0.00909766
0.00908092
0.000813665
0.00221455
0.00379484
0.00557932
0.00728574
0.00832583
0.00880285
0.00880872
0.000796646
0.00213665
0.003622
0.00531965
0.00696934
0.00799071
0.00846583
0.00848316
0.000799433
0.0021154
0.00355685
0.005209
0.00682057
0.00781814
0.00828031
0.0082951
0.000806321
0.00211711
0.00354917
0.00519565
0.0067785
0.00775051
0.00819463
0.00819828
0.00242724
0.00612471
0.00924546
0.0116352
0.0129066
0.0133765
0.0132021
0.0125267
0.00236308
0.00597561
0.00906223
0.0115067
0.0128514
0.0134095
0.0133282
0.0127348
0.00227525
0.0057521
0.00877423
0.0112483
0.0126379
0.0132562
0.0132435
0.0127159
0.00216906
0.00549791
0.00843306
0.0108965
0.0122929
0.0129216
0.0129222
0.0124102
0.00209678
0.00533017
0.00821217
0.0106259
0.0119915
0.0125933
0.0125734
0.0120523
0.00208443
0.00531663
0.00822897
0.0106132
0.0119156
0.0124617
0.0123982
0.0118499
0.00213203
0.00546792
0.00852206
0.0108239
0.0120123
0.0124653
0.0123398
0.0117565
0.000160541
0.000322558
0.000397669
0.000481553
0.000629702
0.0008683
0.00113903
0.00137245
0.000159686
0.000321341
0.000396719
0.000481857
0.000631968
0.000871413
0.00114245
0.00137701
0.000159912
0.000322797
0.000401141
0.000492239
0.000650761
0.00089746
0.00117325
0.00141135
0.000161219
0.000326069
0.000408644
0.000508404
0.000679868
0.000937894
0.00122029
0.00146116
0.000162788
0.00032945
0.000416355
0.000525481
0.000711453
0.000981433
0.00126992
0.00151199
0.000163873
0.00033142
0.000421582
0.000538575
0.000737294
0.00101709
0.0013102
0.00155283
0.000164369
0.000331737
0.000423161
0.000544603
0.000751829
0.00103775
0.00133418
0.00157782
0.00021434
0.000438121
0.000598887
0.000826026
0.00115483
0.00157731
0.00199539
0.00230464
0.000212129
0.000434985
0.000595613
0.000821861
0.00114725
0.0015634
0.00197718
0.00228693
0.000211687
0.000437022
0.000602802
0.000835455
0.00116499
0.00158142
0.00199477
0.00230687
0.000213481
0.00044365
0.000618159
0.000862863
0.0012037
0.00163031
0.00204685
0.00235975
0.000216271
0.000451693
0.000635729
0.000893994
0.00124844
0.00169094
0.00211158
0.00242288
0.000218515
0.000457491
0.000648844
0.000918109
0.00128419
0.00174317
0.00216762
0.00247665
0.000219444
0.000459042
0.000653707
0.00093052
0.00130868
0.0017781
0.00220642
0.0025147
0.000301919
0.000663664
0.00101346
0.00148671
0.00207823
0.00273628
0.00328978
0.00362972
0.000296353
0.000652617
0.000995967
0.00145842
0.00203431
0.00267393
0.00322191
0.00356733
0.000293373
0.00064939
0.000993281
0.0014531
0.00202108
0.00264799
0.00319354
0.00354619
0.000295016
0.000656994
0.00101018
0.00147962
0.00205434
0.0026835
0.00322992
0.0035845
0.000299331
0.000670015
0.0010368
0.00152287
0.00211431
0.00275751
0.00330492
0.00365421
0.000303087
0.000680613
0.00105991
0.00156363
0.00217553
0.00283806
0.00338577
0.00372624
0.000303878
0.000682993
0.00107001
0.00158905
0.00222422
0.00290694
0.00345549
0.00378881
0.00047283
0.00111673
0.00179071
0.00264082
0.00362381
0.00458173
0.0052115
0.0054821
0.000456857
0.00107819
0.00172546
0.00253965
0.0034789
0.00442167
0.00505949
0.00535262
0.000443643
0.00104891
0.00167759
0.00246453
0.0033654
0.00429145
0.00494004
0.00525897
0.000440293
0.00104542
0.00167601
0.00246158
0.00335454
0.00427278
0.00492764
0.00525773
0.000444998
0.00106324
0.00171434
0.00252423
0.00344942
0.00436525
0.00501234
0.00532893
0.000451741
0.001088
0.00177045
0.00262407
0.00360987
0.00451968
0.00514571
0.00543384
0.000454598
0.00110506
0.00182096
0.00272451
0.00377298
0.00468311
0.00527955
0.00554001
0.000791722
0.00206566
0.00345468
0.00507149
0.00663163
0.00759848
0.00804888
0.00806406
0.00075086
0.00194689
0.00324287
0.00477209
0.00630724
0.0072968
0.00778995
0.00785322
0.000709248
0.00183259
0.00304639
0.00449698
0.00597857
0.00699137
0.00753628
0.00765997
0.000688419
0.00178642
0.00297725
0.00439367
0.00583459
0.00685522
0.00743071
0.00759254
0.000696636
0.00184282
0.00310362
0.00453977
0.0059889
0.00698233
0.00752935
0.00766928
0.000722426
0.00196911
0.00337546
0.00490497
0.00635198
0.00728339
0.00775656
0.00783258
0.000747107
0.00210699
0.00368485
0.00533472
0.00674447
0.00760322
0.00799658
0.00800295
0.00210924
0.00540089
0.0084303
0.0106823
0.0118362
0.0122746
0.0121557
0.0115926
0.00199047
0.00502982
0.00780778
0.0100495
0.0112718
0.0117983
0.0117728
0.0113015
0.00187579
0.0046452
0.00715072
0.0093552
0.0106647
0.011288
0.0113682
0.0110063
0.00184984
0.00448207
0.00682552
0.00899857
0.0103415
0.0110106
0.0111526
0.0108626
0.00199781
0.0048322
0.00736591
0.00947114
0.0106762
0.0112362
0.0112988
0.0109567
0.0022943
0.00553808
0.00846545
0.0104407
0.011426
0.0117825
0.0116695
0.0111895
0.00260068
0.00625113
0.00940014
0.011251
0.0120873
0.012289
0.0120256
0.0114103
0.000163678
0.000327093
0.000413286
0.0005279
0.000727967
0.00100828
0.00130414
0.00154955
0.000163212
0.000326407
0.00041171
0.00052363
0.000718596
0.00099381
0.00128445
0.00152501
0.000162445
0.00032492
0.000407901
0.000514233
0.000700002
0.000966878
0.0012507
0.00148589
0.000161579
0.000323092
0.000403094
0.00050231
0.000676326
0.000932364
0.00120825
0.00143844
0.00016079
0.000321168
0.00039789
0.000489424
0.00065094
0.000895523
0.00116402
0.00139074
0.000160303
0.000319167
0.000392193
0.000475822
0.000625238
0.000859635
0.00112333
0.00134962
0.000159843
0.000316975
0.000386601
0.000463946
0.000605006
0.000835153
0.00110113
0.00133371
0.000213957
0.0004367
0.000612292
0.000877731
0.00126717
0.00176109
0.00221084
0.00253219
0.000213161
0.000435454
0.000609097
0.000869226
0.00124825
0.00173228
0.00217385
0.00248924
0.00021199
0.000432768
0.000601845
0.000852688
0.00121741
0.00168989
0.00212368
0.00243377
0.000210934
0.000429707
0.000592601
0.000831345
0.00117979
0.00163745
0.00206341
0.00236947
0.000210098
0.000426268
0.00058209
0.000808401
0.00114281
0.00158607
0.00200625
0.00231077
0.000209452
0.000421969
0.000570064
0.000784865
0.00110866
0.0015431
0.00196338
0.00227091
0.00020837
0.000416699
0.000558237
0.000765446
0.0010855
0.00152156
0.00195243
0.00227101
0.000282791
0.000625482
0.000998382
0.00154904
0.00227552
0.0030382
0.00361517
0.00395246
0.000281608
0.000622471
0.000988678
0.001524
0.00222369
0.00297087
0.00353969
0.0038725
0.000280306
0.000618459
0.000975655
0.00149243
0.00216177
0.00289155
0.00345586
0.00378681
0.000279963
0.000615556
0.000962407
0.00145843
0.00209569
0.00280443