/*--------------------------------*- C++ -*----------------------------------*\
| =========                 |                                                 |
| \\      /  F ield         | OpenFOAM: The Open Source CFD Toolbox           |
|  \\    /   O peration     | Version:  plus.master.MPPICInterFoam            |
|   \\  /    A nd           | Web:      www.OpenFOAM.com                      |
|    \\/     M anipulation  |                                                 |
\*---------------------------------------------------------------------------*/
FoamFile
{
    version     2.0;
    format      ascii;
    class       surfaceScalarField;
    location    "4";
    object      phi;
}
// * * * * * * * * * * * * * * * * * * * * * * * * * * * * * * * * * * * * * //

dimensions      [0 3 -1 0 0 0 0];

internalField   nonuniform List<scalar> 
34319
(
-7.47923e-07
-5.9199e-07
5.49173e-06
6.97789e-07
5.30466e-07
-5.60451e-07
-1.07859e-06
5.90457e-06
8.67402e-07
-1.18499e-07
-1.50399e-06
6.1553e-06
1.15889e-06
3.49203e-07
-1.53091e-06
6.09603e-06
1.19191e-06
5.40772e-07
-1.12848e-06
5.72421e-06
9.45327e-07
5.13898e-07
-7.17261e-07
5.2044e-06
6.58883e-07
-4.71033e-07
4.62667e-06
3.81164e-07
4.83534e-07
-1.15732e-06
-4.55703e-07
6.12658e-06
1.01126e-06
-9.29945e-07
-9.21267e-07
6.74422e-06
-1.36479e-07
-1.28227e-06
7.33059e-06
6.66763e-07
-1.20271e-06
7.34424e-06
9.68173e-07
-9.60832e-07
6.55196e-06
8.64435e-07
-5.80476e-07
5.80622e-06
-3.46121e-07
5.07994e-06
6.45811e-07
-1.68744e-06
1.93065e-08
6.69759e-06
1.38242e-06
-1.31486e-06
-5.22093e-08
7.9811e-06
-6.86695e-09
-2.13209e-07
1.04786e-05
1.00469e-06
-1.6274e-07
1.08594e-05
1.48766e-06
-1.11865e-07
7.72586e-06
1.2262e-06
-8.33211e-08
6.33927e-06
-5.47719e-08
5.4403e-06
8.86212e-07
-1.84312e-06
5.70726e-07
7.00968e-06
1.51296e-06
-1.29452e-06
8.3535e-07
8.8281e-06
1.19833e-07
1.33385e-06
1.29998e-05
7.04112e-07
1.18072e-06
1.28495e-05
1.54786e-06
7.30963e-07
8.49169e-06
1.33286e-06
4.56314e-07
6.61856e-06
2.65611e-07
5.61391e-06
9.65852e-07
-1.61293e-06
9.40639e-07
6.80498e-06
1.3074e-06
-1.31172e-06
1.44735e-06
8.06173e-06
1.03297e-08
1.88961e-06
1.07252e-05
9.69895e-07
1.76721e-06
1.11007e-05
1.45e-06
1.36716e-06
7.85481e-06
1.20874e-06
8.61181e-07
6.45232e-06
4.99599e-07
5.5391e-06
8.9082e-07
-1.01639e-06
9.73414e-07
6.32729e-06
8.84661e-07
-8.258e-07
1.41213e-06
7.02463e-06
-7.07494e-08
1.81572e-06
7.70702e-06
6.73152e-07
1.80277e-06
7.73416e-06
9.56609e-07
1.35918e-06
6.83695e-06
8.72472e-07
9.04466e-07
6.01978e-06
5.53505e-07
5.2707e-06
6.87327e-07
-5.75739e-07
5.7537e-06
5.35089e-07
8.3232e-07
-4.17914e-07
6.20122e-06
1.13051e-06
-1.93517e-08
6.47594e-06
1.3767e-06
4.04615e-07
6.41866e-06
1.36894e-06
5.83579e-07
6.03369e-06
1.09483e-06
5.80494e-07
5.48993e-06
7.64142e-07
4.88461e-06
5.03267e-07
4.76211e-07
-4.34549e-07
-2.94698e-07
5.58598e-06
3.84662e-07
2.48897e-07
-3.59666e-07
-6.04304e-07
5.97676e-06
4.56835e-07
-9.64164e-08
-9.64877e-07
6.18564e-06
6.71019e-07
2.00248e-07
-1.03888e-06
6.12342e-06
7.13877e-07
2.65452e-07
-6.68987e-07
5.78879e-06
5.39838e-07
2.13238e-07
-4.17537e-07
5.29345e-06
3.85595e-07
-2.99366e-07
4.71724e-06
1.08506e-07
3.1204e-07
-7.00549e-07
-2.46306e-07
6.20027e-06
5.77438e-07
-6.51169e-07
-6.3323e-07
6.72094e-06
-1.40886e-07
-1.20344e-06
7.05738e-06
5.0031e-07
-1.33927e-06
7.00264e-06
5.5218e-07
-6.82495e-07
6.51259e-06
4.3924e-07
-3.69362e-07
5.86982e-06
-2.33893e-07
5.168e-06
2.8595e-07
-1.10707e-06
1.57273e-08
6.70742e-06
8.34111e-07
-1.14566e-06
-1.27191e-07
7.51253e-06
-2.20551e-08
-3.71453e-07
8.5234e-06
1.0508e-06
-3.93456e-07
8.84188e-06
9.9303e-07
-1.66754e-07
7.26761e-06
6.96032e-07
-8.39209e-08
6.35156e-06
-7.03513e-08
5.5222e-06
4.57925e-07
-1.34264e-06
4.28163e-07
6.97744e-06
9.62784e-07
-1.36598e-06
6.45948e-07
8.07756e-06
4.7245e-07
9.00247e-07
9.88867e-06
1.08712e-06
9.47482e-07
1.08891e-05
1.15596e-06
5.03453e-07
7.75121e-06
8.0407e-07
2.83905e-07
6.6026e-06
1.2228e-07
5.69505e-06
5.3374e-07
-1.07676e-06
6.51999e-07
6.86238e-06
7.95834e-07
-1.13121e-06
1.04146e-06
7.71937e-06
7.57914e-08
1.54616e-06
8.87243e-06
1.10714e-06
1.65697e-06
9.35595e-06
1.02841e-06
9.61251e-07
7.47539e-06
7.32891e-07
5.31238e-07
6.50014e-06
2.53211e-07
5.64011e-06
5.06853e-07
-6.11589e-07
6.31846e-07
6.46327e-06
4.95821e-07
-5.84557e-07
9.26458e-07
7.11124e-06
-7.79074e-08
1.26276e-06
7.4841e-06
5.54202e-07
1.30211e-06
7.45591e-06
6.13631e-07
8.59074e-07
6.88052e-06
5.14917e-07
5.19147e-07
6.13113e-06
2.63448e-07
5.38493e-06
3.90419e-07
-3.12563e-07
5.90515e-06
2.77398e-07
5.16815e-07
-2.46613e-07
6.35003e-06
7.11805e-07
4.63446e-09
6.58989e-06
8.97187e-07
2.98417e-07
6.52788e-06
8.99241e-07
3.70281e-07
6.16312e-06
6.57758e-07
3.46856e-07
5.62013e-06
4.11819e-07
4.99279e-06
2.99633e-07
2.03665e-07
-4.97803e-08
8.4152e-08
5.63009e-06
6.79709e-09
-8.56811e-08
-8.26975e-08
2.11998e-08
6.03082e-06
-4.26654e-08
-6.34477e-08
-1.01075e-07
6.23645e-06
3.0612e-08
-1.97073e-08
-1.68994e-07
6.17599e-06
7.19572e-08
-5.92649e-08
-6.11345e-08
5.85162e-06
3.75983e-08
-1.20262e-07
-4.48866e-08
5.35237e-06
4.96932e-08
-8.47875e-08
4.7617e-06
-1.79502e-07
9.71042e-08
-1.05719e-07
8.65017e-08
6.26058e-06
4.25988e-08
-1.63008e-07
7.85748e-09
6.78921e-06
-9.26954e-08
-2.04078e-07
7.08873e-06
7.03135e-08
-3.49501e-07
7.01978e-06
1.1869e-08
-7.27894e-08
6.58296e-06
-5.94044e-08
-4.42545e-08
5.94068e-06
-7.65559e-08
5.22423e-06
-1.19011e-07
-2.19432e-07
1.26901e-07
6.77818e-06
1.07859e-07
-3.36571e-07
9.02404e-08
7.54656e-06
-1.64278e-07
-1.56869e-08
8.16324e-06
2.62267e-07
-9.79083e-08
8.16421e-06
1.33854e-07
2.8699e-08
7.29452e-06
1.5637e-08
-3.91879e-10
6.42595e-06
-6.21598e-08
5.5854e-06
-6.78297e-08
-3.33113e-07
2.33726e-07
7.04779e-06
1.56061e-07
-5.62897e-07
3.40242e-07
8.05693e-06
-1.74288e-07
4.27618e-07
9.05659e-06
3.22025e-07
4.83699e-07
9.80782e-06
2.03368e-07
1.93553e-07
7.70431e-06
6.1501e-08
6.42183e-08
6.67994e-06
-3.98362e-08
5.76467e-06
-2.80191e-08
-1.85557e-07
2.41479e-07
6.96588e-06
7.44219e-08
-3.14031e-07
3.37318e-07
7.8503e-06
-1.20717e-07
5.33446e-07
8.57359e-06
3.37238e-07
6.5213e-07
8.72773e-06
1.87616e-07
2.64413e-07
7.55406e-06
6.61267e-08
8.63718e-08
6.59991e-06
-4.38295e-08
5.71485e-06
-2.2895e-09
-1.60453e-08
1.71308e-07
6.57513e-06
-2.547e-08
-7.73143e-08
2.29507e-07
7.27982e-06
-5.04791e-08
3.38214e-07
7.65231e-06
9.71162e-08
3.70409e-07
7.58969e-06
6.56361e-08
1.50624e-07
7.02642e-06
2.46767e-08
2.09112e-08
6.23756e-06
-8.58675e-08
5.45169e-06
-2.64683e-09
4.16551e-08
5.98819e-06
-5.99346e-08
1.06512e-07
1.02555e-08
6.46719e-06
1.43924e-07
2.44606e-08
6.7196e-06
1.93935e-07
7.82255e-08
6.65387e-06
1.90851e-07
5.05593e-08
6.27611e-06
6.5164e-08
2.54876e-08
5.70194e-06
-3.62244e-08
5.03914e-06
2.07375e-08
-1.27406e-07
2.11255e-07
2.93888e-07
5.66784e-06
-2.58202e-07
-2.84661e-07
1.15648e-07
3.60078e-07
6.10489e-06
-3.37566e-07
-1.0621e-09
3.73769e-07
6.3348e-06
-3.55051e-07
-1.19364e-07
3.40587e-07
6.28352e-06
-3.30484e-07
-2.38715e-07
3.04782e-07
5.95028e-06
-2.8539e-07
-3.2284e-07
1.95469e-07
5.42516e-06
-1.88458e-07
7.23656e-08
4.80136e-06
-3.64284e-07
-7.0274e-08
2.66929e-07
2.62427e-07
6.34022e-06
-3.14179e-07
1.47533e-07
3.45259e-07
6.92371e-06
1.31662e-10
3.57822e-07
7.25191e-06
-1.27245e-07
2.86658e-07
7.20073e-06
-2.74887e-07
2.92467e-07
6.74305e-06
-3.51879e-07
1.55746e-07
6.05741e-06
2.9236e-08
5.294e-06
-3.78162e-07
3.20461e-07
1.81488e-07
6.90138e-06
-3.62146e-07
1.97375e-07
2.57283e-07
7.75743e-06
-1.8947e-08
2.71211e-07
8.46641e-06
-1.8134e-07
2.15825e-07
8.39703e-06
-3.28161e-07
1.97418e-07
7.53593e-06
-3.84509e-07
5.189e-08
6.58569e-06
-5.84091e-08
5.67776e-06
-3.99114e-07
3.01321e-07
1.02384e-07
7.1956e-06
-3.69988e-07
1.18211e-07
1.466e-07
8.35056e-06
-1.38676e-07
1.81878e-07
9.40286e-06
-2.61332e-07
2.20029e-07
9.92454e-06
-3.49917e-07
-5.62606e-09
7.99393e-06
-3.8999e-07
-9.3087e-08
6.8641e-06
-1.67651e-07
5.87089e-06
-3.91951e-07
3.68745e-07
-2.59805e-08
7.1201e-06
-3.94162e-07
2.37108e-07
-9.3924e-08
8.22257e-06
3.55207e-09
-8.95769e-08
9.07776e-06
-1.25699e-07
-6.77209e-08
9.1437e-06
-2.96695e-07
-2.12379e-07
7.93158e-06
-3.44697e-07
-2.27707e-07
6.78255e-06
-2.6996e-07
5.81031e-06
-3.41928e-07
3.61097e-07
-1.36066e-07
6.68908e-06
-3.6505e-07
2.64371e-07
-2.08122e-07
7.4912e-06
4.35262e-08
-2.37964e-07
8.02085e-06
-1.40513e-07
-2.46036e-07
7.95174e-06
-2.49924e-07
-3.3807e-07
7.26154e-06
-2.81266e-07
-3.365e-07
6.37765e-06
-3.47905e-07
5.51739e-06
-2.69943e-07
2.77963e-07
6.04141e-06
-2.88911e-07
-1.7844e-07
1.91059e-07
6.58171e-06
-2.35096e-07
7.27016e-08
6.87855e-06
-2.78942e-07
-2.97512e-08
6.81696e-06
-3.0675e-07
-1.37765e-07
6.40562e-06
-3.59465e-07
-1.81494e-07
5.77616e-06
-3.66597e-07
5.06047e-06
-1.77179e-07
-3.74391e-07
3.8469e-07
3.75574e-07
5.68614e-06
-4.21647e-07
-3.56792e-07
2.67658e-07
5.1587e-07
6.18196e-06
-4.75341e-07
9.06308e-08
6.08567e-07
6.45517e-06
-5.51821e-07
-1.04873e-07
6.03606e-07
6.42258e-06
-5.47081e-07
-2.69988e-07
5.07474e-07
6.07584e-06
-4.68382e-07
-3.64089e-07
3.38544e-07
5.50977e-06
-3.32209e-07
1.71608e-07
4.83002e-06
-3.90667e-07
-1.75138e-07
5.06675e-07
3.27036e-07
6.42183e-06
-5.3924e-07
3.60047e-07
4.90317e-07
7.09722e-06
1.15423e-07
6.01983e-07
7.50331e-06
-1.48548e-07
5.89461e-07
7.47865e-06
-3.61003e-07
4.83006e-07
6.97994e-06
-4.48925e-07
2.65862e-07
6.21792e-06
9.2819e-08
5.37616e-06
-4.59266e-07
6.51106e-07
1.87441e-07
7.04386e-06
-6.53488e-07
5.21619e-07
3.30329e-07
8.04685e-06
1.48058e-07
4.67068e-07
8.97437e-06
-2.6803e-07
4.84344e-07
8.91794e-06
-4.89606e-07
2.95761e-07
7.94537e-06
-5.39908e-07
7.35044e-08
6.82838e-06
-5.41702e-08
5.80288e-06
-5.19743e-07
7.05241e-07
8.88192e-10
7.3769e-06
-7.00342e-07
6.00486e-07
-1.01524e-08
8.79618e-06
1.16349e-07
-3.49672e-08
1.03898e-05
-3.89894e-07
-4.97768e-08
1.09652e-05
-5.58459e-07
-1.61853e-07
8.61979e-06
-5.7526e-07
-2.03271e-07
7.15732e-06
-2.50182e-07
6.01576e-06
-5.29181e-07
7.03455e-07
-1.89759e-07
7.28265e-06
-6.74925e-07
6.15683e-07
-3.48153e-07
8.64921e-06
1.56911e-07
-4.70965e-07
9.97249e-06
-2.25306e-07
-4.86569e-07
9.96327e-06
-4.73425e-07
-5.22309e-07
8.54063e-06
-5.07649e-07
-4.30703e-07
7.04446e-06
-4.1247e-07
5.93403e-06
-4.70919e-07
5.80199e-07
-3.03402e-07
6.78293e-06
-5.60026e-07
4.82264e-07
-4.49749e-07
7.69187e-06
1.70987e-07
-5.67209e-07
8.42846e-06
-1.62491e-07
-6.11051e-07
8.40991e-06
-3.44911e-07
-6.35495e-07
7.55668e-06
-3.87389e-07
-5.62491e-07
6.55182e-06
-5.09757e-07
5.5879e-06
-3.59703e-07
4.18914e-07
6.04981e-06
-4.12168e-07
-3.18564e-07
3.23424e-07
6.67022e-06
-4.42568e-07
1.52885e-07
7.03403e-06
-5.52618e-07
-2.67677e-08
6.99327e-06
-6.08013e-07
-1.78187e-07
6.54573e-06
-6.23871e-07
-2.37577e-07
5.84741e-06
-5.73782e-07
5.05957e-06
-2.24236e-07
-5.20424e-07
5.12125e-07
4.0554e-07
-5.33271e-07
-3.69284e-07
5.67089e-06
3.87005e-07
5.9905e-07
-5.52331e-07
6.25967e-06
2.25891e-07
7.74476e-07
-6.60984e-07
6.50192e-06
2.97223e-08
8.02613e-07
-6.79708e-07
6.49598e-06
-1.50904e-07
6.57023e-07
-6.08502e-07
6.20789e-06
-2.6813e-07
4.55064e-07
-4.62626e-07
5.63491e-06
2.72894e-07
-2.78151e-07
-2.76534e-07
4.84383e-06
6.72119e-07
3.14464e-07
-7.20687e-07
6.56065e-06
5.51565e-07
5.85663e-07
7.2334e-06
2.77484e-07
8.33414e-07
7.71932e-06
-5.82151e-08
8.86783e-07
7.73089e-06
-2.86938e-07
6.77952e-07
7.1876e-06
-3.93918e-07
3.67076e-07
6.41265e-06
1.53997e-07
-4.02348e-07
5.50088e-06
9.25251e-07
1.70037e-07
-8.76938e-07
7.14023e-06
8.50919e-07
3.98704e-07
8.30894e-06
3.92089e-07
7.29734e-07
9.53569e-06
-2.48587e-07
7.94721e-07
9.64981e-06
-5.07324e-07
4.54395e-07
8.42783e-06
-5.39338e-07
1.33614e-07
7.09385e-06
-2.23542e-08
-4.94352e-07
5.93505e-06
1.08063e-06
-5.00424e-08
-9.42779e-07
7.45893e-06
1.14934e-06
-1.05524e-07
9.23247e-06
3.68459e-07
-2.10877e-07
1.2111e-05
-4.18914e-07
-1.29558e-07
1.26779e-05
-6.29747e-07
-2.78232e-07
9.56229e-06
-6.11136e-07
-2.48409e-07
7.51996e-06
-2.6662e-07
-5.28112e-07
6.17643e-06
1.01481e-06
-2.42583e-07
-8.8759e-07
7.34828e-06
1.05117e-06
-4.97988e-07
9.00555e-06
5.03485e-07
-7.9111e-07
1.10992e-05
-2.88648e-07
-8.89888e-07
1.15153e-05
-5.26395e-07
-7.56096e-07
9.25618e-06
-5.35861e-07
-5.55515e-07
7.36104e-06
-4.76277e-07
-4.77912e-07
6.08615e-06
7.60455e-07
-3.77988e-07
-7.21652e-07
6.8797e-06
7.01389e-07
-5.94923e-07
7.84796e-06
3.60737e-07
-8.11048e-07
8.78868e-06
-7.87182e-08
-9.02386e-07
8.8619e-06
-3.05413e-07
-8.44054e-07
7.87051e-06
-3.71935e-07
-7.06674e-07
6.7695e-06
-6.09999e-07
-3.47433e-07
5.69847e-06
5.39848e-07
-5.05118e-07
-3.67092e-07
6.00353e-06
4.60368e-07
-5.72473e-07
6.72648e-06
2.90986e-07
-7.41785e-07
7.13362e-06
8.58424e-08
-8.25924e-07
7.12167e-06
-9.15196e-08
-8.25868e-07
6.70549e-06
-1.9116e-07
-7.39372e-07
5.98075e-06
-1.66483e-07
-6.12643e-07
5.03808e-06
3.36059e-07
-1.04167e-07
2.52647e-06
6.7814e-08
2.76133e-07
-1.31323e-07
2.70425e-06
1.05228e-07
2.14121e-07
-1.63751e-07
2.78861e-06
1.38132e-07
1.59409e-07
-1.92918e-07
2.78942e-06
1.66525e-07
1.14766e-07
-2.2403e-07
2.73761e-06
1.91449e-07
7.63086e-08
-2.51916e-07
2.63505e-06
2.14683e-07
4.03807e-08
-2.75278e-07
2.45839e-06
2.34884e-07
-2.85522e-07
2.06638e-06
2.46878e-07
5.2759e-07
-8.14676e-08
3.42478e-06
4.05559e-07
-1.12982e-07
3.47765e-06
2.96809e-07
-1.53443e-07
3.4447e-06
2.11333e-07
-1.92789e-07
3.32646e-06
1.42918e-07
-2.31994e-07
3.1629e-06
8.78044e-08
-2.67362e-07
2.95537e-06
4.18088e-08
-2.97081e-07
2.67516e-06
-3.12687e-07
2.15714e-06
7.18167e-07
-1.35694e-08
4.08245e-06
5.55329e-07
-6.37645e-08
4.04413e-06
4.09519e-07
-1.13904e-07
3.92069e-06
2.96519e-07
-1.65092e-07
3.71687e-06
2.03268e-07
-2.11258e-07
3.4714e-06
1.26868e-07
-2.52769e-07
3.18543e-06
5.99543e-08
-2.87915e-07
2.82916e-06
-3.08301e-07
2.21775e-06
8.00125e-07
5.77261e-08
4.35387e-06
6.25779e-07
-7.93157e-09
4.28625e-06
4.72858e-07
-6.64703e-08
4.12942e-06
3.50266e-07
-1.21545e-07
3.90039e-06
2.44797e-07
-1.72052e-07
3.62174e-06
1.5316e-07
-2.16059e-07
3.30394e-06
7.16994e-08
-2.53396e-07
2.91512e-06
-2.77477e-07
2.26223e-06
7.55672e-07
8.4868e-08
4.16547e-06
6.06956e-07
1.51736e-08
4.14219e-06
4.68781e-07
-3.6945e-08
4.02738e-06
3.55e-07
-8.73451e-08
3.83266e-06
2.52973e-07
-1.34023e-07
3.58182e-06
1.60854e-07
-1.74374e-07
3.2884e-06
7.64815e-08
-2.08997e-07
2.92118e-06
-2.33084e-07
2.28999e-06
6.16314e-07
4.73115e-08
3.56475e-06
5.21579e-07
-3.5642e-09
3.6427e-06
4.15142e-07
-4.0611e-08
3.63121e-06
3.19411e-07
-7.4828e-08
3.5249e-06
2.32668e-07
-1.11172e-07
3.35503e-06
1.5131e-07
-1.42642e-07
3.13714e-06
7.42047e-08
-1.70495e-07
2.84163e-06
-1.89241e-07
2.29276e-06
4.90998e-07
2.67874e-06
-2.70733e-08
4.42727e-07
2.88718e-06
-4.74456e-08
3.72321e-07
3.00281e-06
-6.35645e-08
2.88028e-07
3.03175e-06
-7.31848e-08
2.12088e-07
2.97455e-06
-9.56071e-08
1.38863e-07
2.86393e-06
-1.17999e-07
6.70582e-08
2.67192e-06
-1.38004e-07
2.24449e-06
-1.54291e-07
8.44922e-08
-1.37907e-07
2.57591e-06
1.13151e-07
5.22613e-08
-1.66369e-07
2.75661e-06
1.46246e-07
3.07709e-08
-2.01507e-07
2.83593e-06
1.74218e-07
1.6514e-08
-2.2633e-07
2.83258e-06
1.96484e-07
1.07205e-08
-2.5257e-07
2.7785e-06
2.17056e-07
9.57634e-09
-2.74485e-07
2.67503e-06
2.35412e-07
9.2507e-09
-2.90771e-07
2.49935e-06
2.49903e-07
-2.9032e-07
2.11241e-06
2.52907e-07
2.03423e-07
-1.19684e-07
3.48551e-06
1.30749e-07
-1.54049e-07
3.53806e-06
7.30754e-08
-1.95355e-07
3.49571e-06
3.84093e-08
-2.3387e-07
3.36822e-06
1.81824e-08
-2.6805e-07
3.19837e-06
8.35761e-09
-2.96311e-07
2.98656e-06
4.26713e-09
-3.16971e-07
2.7045e-06
-3.18259e-07
2.18949e-06
3.31687e-07
-7.16685e-08
4.1487e-06
2.29726e-07
-1.17673e-07
4.10914e-06
1.49453e-07
-1.67859e-07
3.9734e-06
9.40666e-08
-2.16156e-07
3.75545e-06
5.62072e-08
-2.57267e-07
3.49901e-06
3.1613e-08
-2.90801e-07
3.20581e-06
1.43852e-08
-3.155e-07
2.84447e-06
-3.19571e-07
2.23351e-06
4.11279e-07
-1.67882e-08
4.42857e-06
2.99545e-07
-7.92709e-08
4.35758e-06
2.03335e-07
-1.32416e-07
4.18969e-06
1.37224e-07
-1.84625e-07
3.93462e-06
8.74228e-08
-2.28297e-07
3.64168e-06
4.99252e-08
-2.63748e-07
3.31315e-06
2.2262e-08
-2.90289e-07
2.91703e-06
-2.97826e-07
2.26214e-06
4.0459e-07
1.21776e-09
4.24653e-06
3.09764e-07
-6.22219e-08
4.21832e-06
2.16924e-07
-1.08051e-07
4.096e-06
1.53193e-07
-1.55319e-07
3.86676e-06
1.02808e-07
-1.9431e-07
3.59803e-06
6.17161e-08
-2.26061e-07
3.29132e-06
2.80542e-08
-2.5042e-07
2.91468e-06
-2.59283e-07
2.27924e-06
3.37691e-07
-2.17862e-08
3.63683e-06
2.73215e-07
-6.52375e-08
3.71049e-06
2.03579e-07
-9.85451e-08
3.69164e-06
1.50519e-07
-1.3611e-07
3.55821e-06
1.06557e-07
-1.65066e-07
3.36932e-06
6.79481e-08
-1.88705e-07
3.13787e-06
3.29116e-08
-2.07157e-07
2.83258e-06
-2.1307e-07
2.27891e-06
2.85183e-07
2.73037e-06
-6.07411e-08
2.51161e-07
2.93717e-06
-8.07319e-08
2.03367e-07
3.0482e-06
-9.62362e-08
1.57743e-07
3.05618e-06
-1.15222e-07
1.16968e-07
2.98461e-06
-1.34745e-07
7.72677e-08
2.86317e-06
-1.48926e-07
3.79572e-08
2.66335e-06
-1.60147e-07
2.23301e-06
-1.65027e-07
-1.85238e-07
-1.56567e-07
2.59378e-06
1.45519e-07
-1.83813e-07
-1.84506e-07
2.76907e-06
1.71373e-07
-1.66736e-07
-2.1528e-07
2.84161e-06
1.92075e-07
-1.43614e-07
-2.35855e-07
2.83623e-06
2.08986e-07
-1.1218e-07
-2.56573e-07
2.77963e-06
2.24057e-07
-7.55402e-08
-2.7292e-07
2.67475e-06
2.36425e-07
-3.7027e-08
-2.82447e-07
2.49846e-06
2.44219e-07
-2.73323e-07
2.10931e-06
2.38806e-07
-1.5846e-07
-1.43349e-07
3.51253e-06
-1.7917e-07
-1.80815e-07
3.55524e-06
-1.76791e-07
-2.20156e-07
3.49787e-06
-1.56966e-07
-2.50999e-07
3.36354e-06
-1.2577e-07
-2.77525e-07
3.18831e-06
-8.73731e-08
-2.97654e-07
2.97272e-06
-4.51888e-08
-3.09232e-07
2.68836e-06
-2.99029e-07
2.17039e-06
-1.16667e-07
-1.21255e-07
4.18119e-06
-1.4593e-07
-1.65601e-07
4.12309e-06
-1.51085e-07
-2.0885e-07
3.96755e-06
-1.38975e-07
-2.48438e-07
3.7416e-06
-1.12382e-07
-2.7975e-07
3.47635e-06
-8.01217e-08
-3.02677e-07
3.17693e-06
-4.11994e-08
-3.15221e-07
2.81139e-06
-3.03862e-07
2.19703e-06
-6.75856e-08
-9.20847e-08
4.46168e-06
-1.01807e-07
-1.47323e-07
4.37411e-06
-1.20557e-07
-1.88461e-07
4.18822e-06
-1.15604e-07
-2.33161e-07
3.91441e-06
-9.80623e-08
-2.64301e-07
3.60816e-06
-7.20167e-08
-2.86988e-07
3.27048e-06
-3.88249e-08
-2.99817e-07
2.86824e-06
-2.90525e-07
2.20918e-06
-4.57985e-08
-8.95617e-08
4.28063e-06
-7.87732e-08
-1.34949e-07
4.23843e-06
-9.22172e-08
-1.77554e-07
4.09877e-06
-9.15468e-08
-2.09814e-07
3.84255e-06
-8.00757e-08
-2.3578e-07
3.55767e-06
-6.0582e-08
-2.55139e-07
3.23944e-06
-3.47665e-08
-2.66126e-07
2.85459e-06
-2.5859e-07
2.2128e-06
-2.6102e-08
-9.25439e-08
3.66356e-06
-5.00568e-08
-1.22039e-07
3.7222e-06
-7.02689e-08
-1.48384e-07
3.68328e-06
-7.0479e-08
-1.81202e-07
3.52986e-06
-6.33472e-08
-1.98761e-07
3.3247e-06
-4.97103e-08
-2.12515e-07
3.08102e-06
-2.99202e-08
-2.20181e-07
2.76626e-06
-2.13562e-07
2.2038e-06
1.57046e-09
2.74177e-06
-8.41569e-08
-1.65741e-08
2.93796e-06
-1.03888e-07
-3.04085e-08
3.03219e-06
-1.18234e-07
-3.89498e-08
3.02115e-06
-1.37143e-07
-3.95322e-08
2.9363e-06
-1.49677e-07
-3.42542e-08
2.80388e-06
-1.58611e-07
-2.30491e-08
2.59508e-06
-1.63319e-07
2.15557e-06
-1.60634e-07
-3.74659e-07
-1.46436e-07
2.59808e-06
1.53334e-07
-3.58749e-07
-1.76711e-07
2.75791e-06
1.72645e-07
-3.19715e-07
-2.01527e-07
2.81728e-06
1.87369e-07
-2.65189e-07
-2.21093e-07
2.80544e-06
1.97614e-07
-2.00031e-07
-2.35686e-07
2.74374e-06
2.0606e-07
-1.28374e-07
-2.45116e-07
2.63544e-06
2.11954e-07
-5.54318e-08
-2.47254e-07
2.45846e-06
2.13308e-07
-2.29635e-07
2.08279e-06
2.00486e-07
-4.02649e-07
-1.41467e-07
3.53244e-06
-3.89326e-07
-1.85345e-07
3.55075e-06
-3.44604e-07
-2.17459e-07
3.46891e-06
-2.84182e-07
-2.42535e-07
3.32454e-06
-2.13407e-07
-2.59868e-07
3.14155e-06
-1.36656e-07
-2.70914e-07
2.92149e-06
-5.90688e-08
-2.73082e-07
2.63627e-06
-2.52113e-07
2.13433e-06
-4.29622e-07
-1.49737e-07
4.21718e-06
-4.14403e-07
-1.90508e-07
4.12476e-06
-3.49995e-07
-2.24187e-07
3.93495e-06
-2.84922e-07
-2.50324e-07
3.69228e-06
-2.11949e-07
-2.7141e-07
3.41626e-06
-1.35353e-07
-2.83403e-07
3.11118e-06
-5.68458e-08
-2.84512e-07
2.7447e-06
-2.60202e-07
2.14807e-06
-4.12115e-07
-1.62654e-07
4.50756e-06
-3.96665e-07
-2.01264e-07
4.37291e-06
-3.54112e-07
-2.28297e-07
4.14997e-06
-2.92518e-07
-2.55597e-07
3.85772e-06
-2.2073e-07
-2.7295e-07
3.53736e-06
-1.43345e-07
-2.82627e-07
3.19167e-06
-6.33945e-08
-2.8284e-07
2.78664e-06
-2.59978e-07
2.14493e-06
-3.6298e-07
-1.71204e-07
4.31156e-06
-3.59496e-07
-1.9659e-07
4.23041e-06
-3.19915e-07
-2.20619e-07
4.05143e-06
-2.67867e-07
-2.41698e-07
3.77631e-06
-2.04877e-07
-2.54946e-07
3.47624e-06
-1.34625e-07
-2.62108e-07
3.14852e-06
-6.09697e-08
-2.61515e-07
2.75939e-06
-2.41502e-07
2.13406e-06
-2.93068e-07
-1.5741e-07
3.67369e-06
-2.98812e-07
-1.72664e-07
3.7045e-06
-2.81423e-07
-1.87998e-07
3.63315e-06
-2.37615e-07
-2.09983e-07
3.45412e-06
-1.84753e-07
-2.18522e-07
3.23488e-06
-1.23444e-07
-2.23247e-07
2.98077e-06
-5.6438e-08
-2.22032e-07
2.66023e-06
-2.06059e-07
2.11256e-06
-2.16107e-07
2.73065e-06
-1.06409e-07
-2.33863e-07
2.90664e-06
-1.22968e-07
-2.25033e-07
2.97416e-06
-1.38854e-07
-1.97821e-07
2.94025e-06
-1.56336e-07
-1.5749e-07
2.84261e-06
-1.6533e-07
-1.07933e-07
2.69885e-06
-1.67743e-07
-5.07025e-08
2.48321e-06
-1.67037e-07
2.05666e-06
-1.5849e-07
-3.92988e-07
-1.00227e-07
2.58589e-06
1.14621e-07
-3.50135e-07
-1.33072e-07
2.72052e-06
1.27471e-07
-2.7833e-07
-1.53085e-07
2.76253e-06
1.3633e-07
-1.93844e-07
-1.69487e-07
2.74932e-06
1.40932e-07
-1.1354e-07
-1.7891e-07
2.69766e-06
1.4398e-07
-5.01154e-08
-1.82626e-07
2.60888e-06
1.45034e-07
-6.57517e-09
-1.78746e-07
2.452e-06
1.41301e-07
-1.53528e-07
2.10688e-06
1.23258e-07
-4.61127e-07
-1.08551e-07
3.54244e-06
-4.07686e-07
-1.52376e-07
3.51597e-06
-3.13292e-07
-1.84581e-07
3.40418e-06
-2.10416e-07
-1.99714e-07
3.25094e-06
-1.14294e-07
-2.09101e-07
3.07532e-06
-3.85032e-08
-2.12579e-07
2.87593e-06
1.14369e-08
-2.06932e-07
2.61552e-06
-1.7621e-07
2.16826e-06
-5.25759e-07
-1.473e-07
4.25218e-06
-4.72683e-07
-1.85478e-07
4.10302e-06
-3.31933e-07
-2.04286e-07
3.87058e-06
-2.19155e-07
-2.21659e-07
3.60426e-06
-1.14526e-07
-2.31373e-07
3.33252e-06
-3.0931e-08
-2.32569e-07
3.04799e-06
2.30283e-08
-2.23831e-07
2.70886e-06
-1.90181e-07
2.18457e-06
-5.41275e-07
-2.1281e-07
4.55406e-06
-4.73072e-07
-2.29062e-07
4.35143e-06
-3.62297e-07
-2.38847e-07
4.0748e-06
-2.40581e-07
-2.4642e-07
3.76076e-06
-1.26203e-07
-2.49212e-07
3.44117e-06
-3.53639e-08
-2.46064e-07
3.11537e-06
2.35557e-08
-2.35231e-07
2.73959e-06
-2.02685e-07
2.18067e-06
-4.68401e-07
-2.39788e-07
4.33706e-06
-4.16655e-07
-2.4081e-07
4.19056e-06
-3.21121e-07
-2.41293e-07
3.95766e-06
-2.1151e-07
-2.48154e-07
3.66842e-06
-1.0847e-07
-2.46753e-07
3.37125e-06
-2.71932e-08
-2.41474e-07
3.06388e-06
2.43368e-08
-2.30642e-07
2.7037e-06
-2.03016e-07
2.15884e-06
-3.69257e-07
-2.23077e-07
3.66673e-06
-3.3466e-07
-2.20743e-07
3.64922e-06
-2.57255e-07
-2.21803e-07
3.53527e-06
-1.68265e-07
-2.24842e-07
3.34181e-06
-8.57909e-08
-2.23019e-07
3.12887e-06
-2.15557e-08
-2.18668e-07
2.89433e-06
1.89985e-08
-2.09531e-07
2.5993e-06
-1.88102e-07
2.11673e-06
-2.63291e-07
2.69609e-06
-1.49921e-07
-2.55815e-07
2.83976e-06
-1.62132e-07
-2.12954e-07
2.87937e-06
-1.70646e-07
-1.47938e-07
2.83329e-06
-1.83318e-07
-8.51418e-08
2.74182e-06
-1.85285e-07
-3.61218e-08
2.61421e-06
-1.83083e-07
-1.9977e-09
2.41747e-06
-1.77768e-07
2.03074e-06
-1.63823e-07
-2.10538e-07
1.06259e-10
9.90819e-09
2.50728e-06
-7.06124e-08
-3.15146e-08
2.36074e-08
2.5874e-06
1.01678e-07
-5.1698e-08
3.45834e-08
2.60753e-06
2.81733e-07
-7.15615e-08
4.2093e-08
2.59887e-06
4.3642e-07
-8.53971e-08
5.21533e-08
2.57648e-06
5.2495e-07
-9.37887e-08
6.14673e-08
2.55294e-06
4.56521e-07
-9.50897e-08
6.89406e-08
2.54675e-06
-8.00646e-08
7.04608e-08
2.57241e-06
-3.34442e-07
-3.63629e-08
3.5101e-06
-1.73093e-07
-6.92339e-08
3.39191e-06
3.52919e-08
-9.19734e-08
3.23465e-06
2.49369e-07
-1.09209e-07
3.07441e-06
4.33886e-07
-1.20567e-07
2.9261e-06
5.44667e-07
-1.25539e-07
2.79679e-06
4.82865e-07
-1.22981e-07
2.70494e-06
-1.02197e-07
2.67139e-06
-4.28482e-07
-1.12574e-07
4.26303e-06
-2.64746e-07
-1.45367e-07
4.00171e-06
-3.51225e-08
-1.58582e-07
3.70054e-06
2.05921e-07
-1.62359e-07
3.41339e-06
4.17503e-07
-1.61743e-07
3.16208e-06
5.50731e-07
-1.5812e-07
2.94829e-06
4.97174e-07
-1.49473e-07
2.78772e-06
-1.24958e-07
2.70326e-06
-4.68737e-07
-2.15833e-07
4.57596e-06
-2.95222e-07
-2.20045e-07
4.25292e-06
-5.34651e-08
-2.17741e-07
3.89487e-06
1.99866e-07
-2.10083e-07
3.55532e-06
4.22581e-07
-2.0027e-07
3.25724e-06
5.64068e-07
-1.88688e-07
3.00541e-06
5.11491e-07
-1.74218e-07
2.81639e-06
-1.46441e-07
2.71423e-06
-4.09544e-07
-2.78944e-07
4.33243e-06
-2.41067e-07
-2.61793e-07
4.06467e-06
-7.51375e-09
-2.51351e-07
3.75704e-06
2.3468e-07
-2.37901e-07
3.45373e-06
4.43903e-07
-2.21808e-07
3.18285e-06
5.72592e-07
-2.0628e-07
2.95231e-06
5.11649e-07
-1.90185e-07
2.77972e-06
-1.65418e-07
2.68923e-06
-2.81082e-07
-2.84994e-07
3.6068e-06
-1.14294e-07
-2.67497e-07
3.48728e-06
9.59334e-08
-2.51823e-07
3.32435e-06
3.02758e-07
-2.34987e-07
3.13135e-06
4.77637e-07
-2.18367e-07
2.94971e-06
5.76737e-07
-2.03651e-07
2.79181e-06
4.99856e-07
-1.88777e-07
2.67422e-06
-1.68742e-07
2.61971e-06
-1.25906e-07
-2.16528e-07
2.58643e-06
2.22274e-10
-2.19268e-07
2.66403e-06
1.61847e-07
-2.13473e-07
2.6784e-06
3.29014e-07
-2.08803e-07
2.63876e-06
4.7338e-07
-1.96559e-07
2.57446e-06
5.52548e-07
-1.8184e-07
2.51227e-06
4.72542e-07
-1.63957e-07
2.47234e-06
-1.34117e-07
2.47057e-06
5.42646e-07
-2.56883e-07
3.23842e-06
1.36446e-07
5.08326e-07
-2.10595e-07
3.53267e-06
1.23217e-07
4.4898e-07
-1.75043e-07
3.71847e-06
1.10927e-07
3.78152e-07
-1.44006e-07
3.81911e-06
9.88925e-08
2.9885e-07
-1.17935e-07
3.85369e-06
8.68943e-08
2.09964e-07
-9.60438e-08
3.82717e-06
7.49216e-08
1.1144e-07
-7.56618e-08
3.71243e-06
6.14202e-08
-5.03694e-08
3.33097e-06
4.12977e-08
8.11907e-07
-3.17513e-07
4.39254e-06
7.00745e-07
-2.52743e-07
4.58084e-06
5.78381e-07
-2.08756e-07
4.66399e-06
4.61048e-07
-1.72854e-07
4.66328e-06
3.47687e-07
-1.4146e-07
4.60249e-06
2.36413e-07
-1.15705e-07
4.48796e-06
1.2273e-07
-9.21738e-08
4.28571e-06
-6.36669e-08
3.78936e-06
1.15111e-06
-2.70325e-07
5.22361e-06
9.62976e-07
-2.25598e-07
5.32233e-06
7.69681e-07
-1.9187e-07
5.32284e-06
5.92759e-07
-1.62253e-07
5.24354e-06
4.33534e-07
-1.3591e-07
5.11053e-06
2.86801e-07
-1.13444e-07
4.9307e-06
1.44222e-07
-9.24556e-08
4.66788e-06
-6.59227e-08
4.09088e-06
1.32111e-06
-1.52254e-07
5.51503e-06
1.0941e-06
-1.47547e-07
5.56676e-06
8.74362e-07
-1.3265e-07
5.52993e-06
6.66002e-07
-1.18286e-07
5.42229e-06
4.83125e-07
-1.04934e-07
5.26438e-06
3.16205e-07
-9.21653e-08
5.06418e-06
1.5589e-07
-7.84393e-08
4.78256e-06
-5.72062e-08
4.18308e-06
1.20802e-06
-4.96791e-08
5.14069e-06
1.00271e-06
-7.45575e-08
5.23108e-06
8.02657e-07
-8.10711e-08
5.22598e-06
6.16817e-07
-7.98129e-08
5.15089e-06
4.51435e-07
-7.79628e-08
5.02629e-06
2.96447e-07
-7.38076e-08
4.85594e-06
1.47199e-07
-6.6899e-08
4.60375e-06
-5.22632e-08
4.04415e-06
9.08911e-07
-3.67597e-08
4.25302e-06
7.69125e-07
-5.48995e-08
4.42816e-06
6.29151e-07
-6.48115e-08
4.5058e-06
4.96828e-07
-6.81334e-08
4.50918e-06
3.69568e-07
-7.05669e-08
4.45834e-06
2.4629e-07
-6.98801e-08
4.35674e-06
1.24326e-07
-6.69609e-08
4.17202e-06
-5.81196e-08
3.70285e-06
6.63407e-07
3.09293e-06
-8.2074e-08
5.92414e-07
3.3673e-06
-8.13733e-08
5.08899e-07
3.54441e-06
-7.72587e-08
4.17092e-07
3.64434e-06
-7.32352e-08
3.19408e-07
3.68553e-06
-7.07239e-08
2.17269e-07
3.66987e-06
-6.90184e-08
1.11217e-07
3.57042e-06
-6.7118e-08
3.21748e-06
-6.22244e-08
2.85148e-07
-1.93096e-07
3.31724e-06
1.07329e-07
2.69911e-07
-1.56243e-07
3.61047e-06
9.53901e-08
2.4218e-07
-1.24999e-07
3.78921e-06
8.10157e-08
2.07342e-07
-9.73268e-08
3.88277e-06
6.79614e-08
1.65948e-07
-7.32147e-08
3.91236e-06
5.53458e-08
1.19516e-07
-5.24161e-08
3.88355e-06
4.29074e-08
6.49425e-08
-3.33234e-08
3.77067e-06
2.88902e-08
-1.10477e-08
3.39657e-06
9.70397e-09
4.37144e-07
-2.41313e-07
4.49913e-06
3.69205e-07
-1.88953e-07
4.68426e-06
3.03121e-07
-1.51222e-07
4.75661e-06
2.42889e-07
-1.17469e-07
4.74506e-06
1.86352e-07
-8.9023e-08
4.67497e-06
1.28102e-07
-6.46409e-08
4.55568e-06
6.75532e-08
-4.20025e-08
4.35405e-06
-1.66449e-08
3.86257e-06
6.61142e-07
-2.14058e-07
5.32867e-06
5.30438e-07
-1.73532e-07
5.43761e-06
4.11985e-07
-1.41293e-07
5.42723e-06
3.12679e-07
-1.10574e-07
5.3376e-06
2.28784e-07
-8.45481e-08
5.19361e-06
1.51326e-07
-6.24144e-08
5.0073e-06
7.603e-08
-4.20354e-08
4.74186e-06
-1.79147e-08
4.1679e-06
7.85924e-07
-1.20813e-07
5.5984e-06
6.18569e-07
-1.13488e-07
5.67462e-06
4.75385e-07
-9.67027e-08
5.63378e-06
3.49881e-07
-8.02995e-08
5.5148e-06
2.47853e-07
-6.51067e-08
5.34808e-06
1.57746e-07
-5.09979e-08
5.14054e-06
7.71663e-08
-3.68626e-08
4.85704e-06
-1.80134e-08
4.26014e-06
6.89109e-07
-5.33119e-08
5.21865e-06
5.44907e-07
-6.71426e-08
5.32581e-06
4.19279e-07
-6.2246e-08
5.3204e-06
3.12172e-07
-5.64213e-08
5.23643e-06
2.21164e-07
-5.09497e-08
5.1033e-06
1.39116e-07
-4.46887e-08
4.92877e-06
6.66271e-08
-3.71474e-08
4.67547e-06
-2.45564e-08
4.11788e-06
4.89914e-07
-4.13591e-08
4.32641e-06
3.97653e-07
-4.99785e-08
4.50584e-06
3.14082e-07
-4.99467e-08
4.5795e-06
2.39341e-07
-5.00859e-08
4.57813e-06
1.74219e-07
-4.93837e-08
4.52327e-06
1.12918e-07
-4.78049e-08
4.42086e-06
5.55609e-08
-4.54348e-08
4.23776e-06
-3.90181e-08
3.77309e-06
3.51741e-07
3.14765e-06
-6.46881e-08
3.05402e-07
3.42527e-06
-6.07182e-08
2.58932e-07
3.60029e-06
-5.5234e-08
2.078e-07
3.69823e-06
-5.22016e-08
1.56438e-07
3.73865e-06
-5.11477e-08
1.04024e-07
3.72559e-06
-5.17438e-08
5.26595e-08
3.62955e-06
-5.26199e-08
3.28311e-06
-5.2437e-08
-5.4409e-08
-1.08596e-07
3.34723e-06
7.36267e-08
-5.02747e-08
-8.39611e-08
3.62889e-06
6.27452e-08
-4.36595e-08
-6.31902e-08
3.79446e-06
4.98191e-08
-3.37658e-08
-4.33654e-08
3.87835e-06
3.77363e-08
-2.40418e-08
-2.56173e-08
3.9004e-06
2.60583e-08
-1.48444e-08
-9.58441e-09
3.86906e-06
1.41323e-08
-7.43156e-09
5.59138e-09
3.75568e-06
6.04537e-10
2.12309e-08
3.38362e-06
-1.72113e-08
-4.71222e-08
-1.42003e-07
4.55453e-06
-5.78562e-08
-1.05773e-07
4.7219e-06
-5.89184e-08
-7.88071e-08
4.7744e-06
-5.11624e-08
-5.32302e-08
4.74773e-06
-3.69211e-08
-3.09449e-08
4.66782e-06
-2.30037e-08
-1.08751e-08
4.54207e-06
-1.06252e-08
7.09066e-09