/*--------------------------------*- C++ -*----------------------------------*\
| =========                 |                                                 |
| \\      /  F ield         | OpenFOAM: The Open Source CFD Toolbox           |
|  \\    /   O peration     | Version:  plus.master.MPPICInterFoam            |
|   \\  /    A nd           | Web:      www.OpenFOAM.com                      |
|    \\/     M anipulation  |                                                 |
\*---------------------------------------------------------------------------*/
FoamFile
{
    version     2.0;
    format      ascii;
    class       volScalarField;
    location    "13.4";
    object      k;
}
// * * * * * * * * * * * * * * * * * * * * * * * * * * * * * * * * * * * * * //

dimensions      [0 2 -2 0 0 0 0];

internalField   nonuniform List<scalar> 
11821
(
0.0502919
0.0600973
0.0482613
0.0642739
0.0538075
0.0438277
0.0552157
0.0593176
0.0596394
0.0566206
0.0514359
0.045272
0.0388267
0.0681256
0.0732922
0.0733853
0.0688884
0.0612652
0.0527576
0.0445193
0.0743178
0.0778811
0.0800604
0.0781341
0.0704859
0.0595421
0.0492691
0.0724138
0.0668484
0.0704154
0.0809013
0.0768501
0.0642826
0.0522821
0.0660613
0.0673737
0.0731237
0.0773786
0.0775077
0.0652335
0.0527735
0.0735483
0.0673198
0.0713494
0.0770588
0.0745052
0.0623172
0.0506428
0.0717847
0.0720146
0.0729073
0.0732281
0.066118
0.0559207
0.0461254
0.056455
0.0607505
0.0612628
0.0584289
0.0534581
0.0474277
0.0409631
0.0693491
0.0757029
0.0758626
0.0707552
0.063178
0.0548647
0.0466985
0.0792657
0.0837256
0.0862081
0.0826226
0.0725175
0.0615186
0.0514043
0.0793078
0.0749387
0.0833554
0.0889027
0.0796405
0.0661017
0.0543449
0.0756136
0.0705204
0.0732034
0.0887499
0.0811091
0.0669875
0.0547859
0.0777905
0.0778187
0.0822345
0.0840872
0.076685
0.0638733
0.0525873
0.0752032
0.0790077
0.0804627
0.0763286
0.0676045
0.0576351
0.0480775
0.0575871
0.0618849
0.0625013
0.0598412
0.0550638
0.0491485
0.0426685
0.070402
0.0771239
0.0774012
0.0722196
0.0646862
0.0565323
0.0484201
0.0831402
0.0911746
0.0930226
0.0857661
0.0741147
0.0630617
0.0530663
0.0862016
0.0865416
0.0939399
0.0961006
0.0814449
0.0675228
0.0559441
0.0834028
0.073459
0.0843881
0.0966145
0.0831463
0.0684186
0.0563843
0.0850734
0.0827313
0.0879649
0.0905254
0.078138
0.065306
0.0542032
0.0769339
0.0845443
0.0848181
0.0787409
0.0691501
0.0592223
0.0497279
0.0587767
0.0629063
0.0635097
0.061024
0.0564056
0.0505472
0.0440408
0.0712624
0.0774044
0.0776419
0.0728774
0.06579
0.057865
0.0498004
0.0834164
0.0919732
0.0927179
0.0855586
0.0747778
0.0642383
0.0544146
0.0900116
0.0863111
0.0917836
0.0957121
0.0817075
0.0685474
0.0572554
0.090136
0.0770158
0.0872006
0.0976985
0.0836528
0.0695237
0.0577219
0.0836611
0.0885614
0.0919389
0.0906392
0.0791806
0.0666287
0.0555914
0.0773754
0.0845415
0.0853784
0.0799518
0.070645
0.0606906
0.0511187
0.0600438
0.06411
0.0646762
0.0622458
0.0576678
0.0517869
0.0452178
0.0723841
0.0779119
0.078027
0.073681
0.0669261
0.0590903
0.0510021
0.0824598
0.0869276
0.0893915
0.0847315
0.075508
0.0653801
0.0556123
0.0827737
0.0837598
0.0910434
0.0913572
0.0818257
0.0695792
0.0584355
0.0829613
0.0831984
0.08484
0.0905069
0.0835378
0.0705553
0.058902
0.0834975
0.0834071
0.0849092
0.0894504
0.0799519
0.067856
0.0567905
0.0748633
0.0794622
0.0810136
0.0793165
0.0717035
0.0619219
0.0522864
0.0612837
0.065409
0.0659799
0.063529
0.0588807
0.0528998
0.0462363
0.0733585
0.0787546
0.0789773
0.0748366
0.0681395
0.0602429
0.0520723
0.0800296
0.0850382
0.0880775
0.085281
0.0765904
0.0665511
0.0567278
0.0786102
0.0863008
0.0909228
0.090428
0.0826391
0.0707303
0.0595704
0.0713592
0.0798395
0.0863088
0.0893967
0.0841276
0.0716705
0.0600272
0.0736138
0.0752483
0.0829413
0.0863572
0.0807263
0.0689649
0.0579044
0.0748741
0.0757
0.0801177
0.0796903
0.0725687
0.0630033
0.0533705
0.062436
0.0667076
0.0672483
0.0646936
0.0599039
0.0537958
0.047017
0.074727
0.0804997
0.0804964
0.0761628
0.0692844
0.0612297
0.052919
0.0828861
0.0891617
0.0909504
0.0868835
0.0778609
0.0676335
0.0576444
0.0823986
0.0841764
0.0908187
0.09325
0.0841012
0.0719101
0.0605517
0.0759238
0.0794351
0.0911165
0.0925247
0.0856997
0.072871
0.0610297
0.0785701
0.0777693
0.0871641
0.0889707
0.081936
0.0700533
0.0588712
0.0764998
0.07914
0.0826736
0.0809229
0.0736022
0.0640117
0.0542894
0.0632465
0.0675845
0.0681136
0.0654503
0.0605353
0.054323
0.0474711
0.0758542
0.0818762
0.0819025
0.0772647
0.070071
0.0618216
0.0533996
0.0862367
0.0923229
0.0950595
0.089141
0.0789724
0.0683324
0.0581674
0.0866168
0.0869601
0.0983152
0.097803
0.0856414
0.0727294
0.0611282
0.0814613
0.0845981
0.0878902
0.0983473
0.0875051
0.073768
0.0616486
0.0806404
0.0837255
0.0921806
0.0941412
0.0834533
0.0708911
0.059485
0.079247
0.0845706
0.0871086
0.0835316
0.0747941
0.0647785
0.0548847
0.0636833
0.0679539
0.0683943
0.0656733
0.0607321
0.0545035
0.0476497
0.0764321
0.0823905
0.0822432
0.0774884
0.0702445
0.061973
0.0535471
0.0876005
0.0948443
0.0962082
0.0894918
0.0791473
0.068462
0.0582964
0.0896799
0.0931188
0.101607
0.0985957
0.085842
0.0728586
0.0612613
0.0882123
0.0802747
0.0926577
0.10054
0.0878896
0.0739688
0.0618208
0.0870957
0.0868775
0.0947735
0.095589
0.0839164
0.0711681
0.0597023
0.0798783
0.0863961
0.0883021
0.0843372
0.075283
0.0651071
0.0551429
0.063885
0.068018
0.0683641
0.0656126
0.0606775
0.0544788
0.0476654
0.0766839
0.0821954
0.081952
0.0772263
0.070058
0.0618623
0.053502
0.0879985
0.0938358
0.0952169
0.0888981
0.0788063
0.0682734
0.0582073
0.0892881
0.0923271
0.102307
0.0974027
0.0853564
0.0726338
0.0611618
0.0884196
0.0877456
0.0970559
0.0982706
0.0873587
0.0737784
0.0617522
0.0864854
0.0864265
0.0937045
0.0950042
0.0837416
0.0710835
0.0596873
0.0794572
0.0856834
0.0872921
0.0839822
0.0752433
0.0651015
0.0551855
0.0639348
0.0680143
0.0682571
0.0654745
0.0605514
0.054384
0.0476162
0.0764892
0.08204
0.0815597
0.0768532
0.0697789
0.0616661
0.0533934
0.0863255
0.0931596
0.0940521
0.0881137
0.0783527
0.067993
0.058057
0.0873509
0.0949967
0.0974423
0.09627
0.0847995
0.0723218
0.0610062
0.0799991
0.0889402
0.0963871
0.0970233
0.0868326
0.0735062
0.0616235
0.0817278
0.0859724
0.0929359
0.0933636
0.0832699
0.0708621
0.0596008
0.0776309
0.0825665
0.0858331
0.083221
0.0749153
0.064962
0.0551569
0.0640205
0.0680586
0.068251
0.0654168
0.0604582
0.0542877
0.0475342
0.0764541
0.0819809
0.0814009
0.0766779
0.0696039
0.0615165
0.0532765
0.0860478
0.0924513
0.0938398
0.0877843
0.0780921
0.0678021
0.0579206
0.0879987
0.0923916
0.0978377
0.0959882
0.0845224
0.0721304
0.0608764
0.0815763
0.0861842
0.0950878
0.0974849
0.086695
0.0733488
0.0615182
0.0798306
0.0845452
0.0930688
0.0931658
0.0830891
0.0707427
0.0595322
0.0775231
0.0827569
0.0864062
0.0832564
0.0748314
0.0649062
0.0551328
0.0640504
0.0680464
0.0682049
0.0653022
0.060302
0.0541202
0.0473784
0.0765126
0.0819879
0.0814593
0.0765715
0.0694182
0.0613134
0.0530879
0.0863315
0.0927713
0.0945584
0.0878413
0.077915
0.0675794
0.0577138
0.0876054
0.0905479
0.10086
0.0966648
0.0844405
0.0719158
0.0606711
0.0813422
0.0875735
0.0946711
0.0980586
0.0865965
0.0731508
0.0613336
0.0802747
0.0845895
0.0940459
0.09376
0.0830843
0.0706085
0.0593904
0.0780781
0.0836643
0.0871705
0.0836026
0.074859
0.0648296
0.0550385
0.0638467
0.0677329
0.0678479
0.0649681
0.0599833
0.0538251
0.047123
0.0763047
0.0815599
0.080894
0.0761317
0.0690254
0.0609575
0.052781
0.0866495
0.0928647
0.0937066
0.0872135
0.0774157
0.0671639
0.0573675
0.0881469
0.091891
0.0994794
0.0953207
0.0837145
0.0714354
0.0603008
0.0865304
0.0857742
0.0961912
0.0967388
0.0858735
0.0726749
0.0609741
0.0826971
0.085596
0.0942694
0.0936426
0.0826418
0.0702281
0.0590799
0.0776125
0.0836728
0.0873072
0.0835809
0.0746205
0.0645546
0.0547955
0.0634709
0.0672514
0.067323
0.0644575
0.0595252
0.0534329
0.0468052
0.0758405
0.0808505
0.0802304
0.0754779
0.0684437
0.0604664
0.0523902
0.0862368
0.0921867
0.0931967
0.0865323
0.0767368
0.0665867
0.0569176
0.08812
0.0954256
0.102266
0.0948935
0.0829622
0.0707951
0.0598158
0.0832992
0.0877822
0.0979236
0.0961575
0.0850412
0.0720211
0.0604929
0.0846128
0.0854147
0.0939707
0.093217
0.0819426
0.0696433
0.0586457
0.0776493
0.0831363
0.0864939
0.0829679
0.0740551
0.0640771
0.0544387
0.0631042
0.0667986
0.0668052
0.0639541
0.059082
0.0530669
0.0465102
0.075262
0.0801701
0.0793793
0.0747203
0.0678304
0.0599951
0.05203
0.0855633
0.0915015
0.091775
0.0854207
0.0759379
0.0660171
0.0565045
0.0879285
0.0939282
0.0966983
0.0936609
0.0820685
0.0701768
0.0593794
0.0809784
0.0884232
0.0965037
0.095818
0.0842648
0.0714356
0.0600734
0.0801085
0.0855618
0.0932719
0.0921607
0.08112
0.0690875
0.058262
0.076315
0.0823624
0.0855266
0.0820345
0.0733572
0.0636053
0.0541171
0.00913817
0.00372832
0.0258972
0.0212042
0.0171063
0.0133829
0.00959055
0.0038573
0.0402153
0.0331315
0.0271956
0.0221442
0.0177676
0.0138302
0.0098708
0.00390036
0.0406302
0.0335093
0.0275263
0.0224146
0.0179721
0.0139742
0.00996624
0.00389274
0.0390712
0.0325303
0.0269367
0.0220689
0.0177757
0.0138724
0.00993239
0.00397992
0.0360949
0.0307001
0.0257873
0.0213475
0.0173354
0.0136204
0.0098093
0.00406189
0.0324464
0.0278901
0.0237199
0.0199126
0.0164051
0.013054
0.00946863
0.0039058
0.0367829
0.0310192
0.0260157
0.0216044
0.017646
0.01395
0.0100806
0.00412311
0.0404656
0.0337876
0.0280635
0.0230965
0.0187124
0.01469
0.0105554
0.00425643
0.0427782
0.0355476
0.0293818
0.0240603
0.0193957
0.0151547
0.0108469
0.00430635
0.0431374
0.0358886
0.0296888
0.0243158
0.0195931
0.0152986
0.0109456
0.00431422
0.0415051
0.0348356
0.0290328
0.0239164
0.0193576
0.0151725
0.0109009
0.00440263
0.0384184
0.0328882
0.0277795
0.0231093
0.01885
0.014872
0.0107477
0.00448005
0.0344601
0.0297534
0.0254056
0.0214073
0.0176994
0.0141321
0.010281
0.00425203
0.0388807
0.0329697
0.0277812
0.0231661
0.0189916
0.0150637
0.0109146
0.00447462
0.0425786
0.035777
0.0298729
0.0246988
0.020091
0.0158257
0.0114016
0.00461162
0.0448713
0.0375394
0.0312034
0.025679
0.0207921
0.0163071
0.0117051
0.0046645
0.0451999
0.0378587
0.031495
0.0259261
0.020989
0.0164568
0.0118128
0.00469152
0.0435176
0.0367566
0.0307941
0.0254905
0.0207296
0.0163201
0.0117673
0.00478683
0.0403795
0.03474
0.0294718
0.0246222
0.0201741
0.015987
0.0115968
0.0048639
0.0360906
0.0312829
0.0268098
0.0226696
0.0188043
0.015059
0.0109832
0.0045524
0.0405561
0.0345535
0.0292408
0.0244786
0.0201368
0.016019
0.0116348
0.00477931
0.0442445
0.0373753
0.0313578
0.0260397
0.0212628
0.0168026
0.012135
0.00491944
0.0465119
0.0391315
0.0326929
0.0270325
0.0219815
0.0173023
0.0124535
0.00497989
0.0468343
0.0394402
0.0329757
0.0272785
0.0221867
0.0174676
0.0125787
0.00503363
0.0451457
0.0383155
0.0322502
0.0268258
0.021922
0.017336
0.012544
0.00513818
0.0419822
0.0362549
0.0308809
0.0259164
0.0213377
0.0169879
0.0123707
0.00522068
0.0374397
0.0325593
0.0279916
0.023738
0.0197432
0.0158485
0.0115826
0.00480632
0.0419362
0.035872
0.030467
0.0255869
0.0211073
0.0168306
0.0122471
0.00503681
0.0456175
0.0387055
0.0326048
0.0271743
0.0222597
0.0176357
0.0127613
0.00518395
0.0478695
0.0404584
0.0339477
0.0281862
0.0230027
0.0181598
0.0130991
0.00525531
0.048197
0.0407635
0.0342341
0.0284461
0.0232295
0.0183504
0.0132488
0.00533933
0.0465187
0.0396299
0.0335029
0.0279956
0.0229765
0.0182369
0.0132336
0.00545614
0.0433226
0.0375341
0.0321008
0.0270627
0.0223821
0.0178909
0.0130703
0.0055489
0.0385905
0.0336401
0.0289865
0.0246338
0.0205276
0.0165068
0.0120829
0.00501782
0.0431235
0.0369948
0.0315032
0.0265175
0.0219173
0.0175049
0.0127541
0.00525145
0.0468107
0.039849
0.0336714
0.028136
0.0230961
0.0183297
0.0132809
0.00540306
0.0490552
0.0416124
0.0350386
0.0291769
0.0238684
0.0188805
0.0136395
0.00548605
0.0493798
0.0419271
0.0353442
0.0294628
0.0241253
0.0191017
0.0138169
0.00560291
0.0477063
0.040802
0.0346237
0.0290297
0.0238954
0.0190134
0.0138245
0.0057326
0.044487
0.0386784
0.0331997
0.0280895
0.0233063
0.0186808
0.0136773
0.00583704
0.0395623
0.0345315
0.0297924
0.0253512
0.021153
0.0170319
0.0124824
0.00518546
0.0441487
0.0379323
0.0323451
0.0272614
0.0225607
0.0180405
0.0131579
0.00541929
0.0478742
0.0408247
0.034547
0.0289075
0.0237611
0.0188815
0.0136952
0.00557486
0.0501434
0.0426208
0.0359484
0.0299804
0.0245626
0.0194576
0.0140734
0.00567451
0.0504791
0.0429594
0.0362837
0.0302986
0.0248519
0.0197094
0.0142775
0.00582061
0.0488127
0.0418449
0.0355808
0.0298893
0.0246485
0.0196471
0.0143071
0.00596176
0.0455578
0.0396973
0.0341502
0.0289555
0.0240734
0.0193314
0.0141757
0.00607646
0.040279
0.0351837
0.0303837
0.0258828
0.0216228
0.0174318
0.0127899
0.00531144
0.044911
0.0386139
0.0329562
0.0278069
0.0230402
0.0184465
0.0134677
0.00554517
0.0486798
0.0415366
0.0351801
0.0294703
0.0242551
0.0192994
0.0140135
0.0057047
0.0509921
0.0433679
0.0366108
0.0305694
0.0250807
0.0198974
0.0144103
0.00583095
0.0513551
0.0437375
0.0369776
0.0309182
0.0253995
0.0201767
0.014638
0.0059961
0.0496888
0.0426378
0.0362972
0.0305343
0.0252218
0.0201385
0.0146875
0.006147
0.046407
0.0404843
0.0348735
0.029614
0.0246626
0.0198383
0.0145694
0.0062698
0.0407146
0.035598
0.0307762
0.0262503
0.0219589
0.0177255
0.0130193
0.00540294
0.0453539
0.0390296
0.0333499
0.0281766
0.0233789
0.0187422
0.0136978
0.00563672
0.0491353
0.0419574
0.0355783
0.0298465
0.0246023
0.0196042
0.0142513
0.00580116
0.0514741
0.043808
0.0370261
0.0309634
0.0254471
0.0202219
0.0146669
0.00595984
0.0518692
0.0442065
0.03742
0.0313386
0.0257916
0.0205253
0.0149147
0.00613682
0.0502205
0.0431312
0.0367657
0.0309803
0.0256385
0.0205098
0.0149828
0.0062964
0.046943
0.040993
0.0353594
0.0300772
0.0250955
0.0202244
0.0148772
0.00642621
0.0409313
0.0358311
0.031018
0.0264921
0.0221904
0.0179342
0.0131853
0.00546733
0.0455422
0.0392438
0.0335809
0.028413
0.0236079
0.0189495
0.0138627
0.00570095
0.0493013
0.0421562
0.0358024
0.0300831
0.0248362
0.0198187
0.0144232
0.00587339
0.05164
0.0440101
0.0372581
0.0312126
0.0256972
0.0204543
0.0148568
0.00606271
0.0520626
0.044433
0.0376754
0.0316114
0.0260654
0.02078
0.0151228
0.0062487
0.050453
0.0433906
0.0370503
0.03128
0.0259373
0.020787
0.015209
0.00641639
0.0472103
0.0412817
0.0356676
0.0303967
0.0254121
0.0205176
0.0151167
0.00655308
0.0410153
0.0359479
0.0311567
0.0266423
0.0223418
0.0180751
0.0132997
0.00551012
0.045584
0.0393349
0.0337044
0.0285541
0.0237534
0.0190864
0.0139742
0.00574338
0.0493086
0.0422265
0.035916
0.0302219
0.0249845
0.019961
0.0145412
0.00593425
0.0516388
0.0440794
0.0373773
0.0313623
0.0258596
0.0206125
0.0149904
0.00614169
0.052085
0.0445244
0.0378171
0.0317841
0.0262505
0.020959
0.0152731
0.00633544
0.0505194
0.0435178
0.037223
0.0314809
0.0261481
0.0209886
0.0153768
0.00651075
0.047319
0.0414408
0.0358658
0.0306196
0.0256426
0.0207364
0.0152982
0.0066544
0.0410306
0.0359921
0.0312225
0.0267226
0.0224293
0.0181617
0.013374
0.00555101
0.0455623
0.0393559
0.0337546
0.0286232
0.0238325
0.0191661
0.0140419
0.00577207
0.0492576
0.0422306
0.0359575
0.0302883
0.025065
0.0200453
0.0146162
0.00598481
0.0515843
0.0440857
0.0374257
0.0314387
0.025952
0.020709
0.015076
0.00619949
0.052054
0.0445536
0.037888
0.0318825
0.0263637
0.021074
0.0153731
0.00639959
0.0505281
0.0435818
0.0373252
0.0316074
0.0262862
0.0211245
0.0154929
0.00658158
0.0473668
0.0415355
0.0359944
0.0307698
0.0258016
0.0208899
0.0154273
0.00673149
0.0409912
0.0359745
0.0312249
0.0267422
0.0224619
0.018202
0.0134144
0.00558696
0.045496
0.0393173
0.0337404
0.0286299
0.0238554
0.0191989
0.0140763
0.00580273
0.0491739
0.0421794
0.0359352
0.0302907
0.0250868
0.0200793
0.0146529
0.00601958
0.0515037
0.0440394
0.0374099
0.0314492
0.0259828
0.0207518
0.0151199
0.00623792
0.0519964
0.0445298
0.0378937
0.031913
0.0264126
0.0211323
0.015429
0.00644288
0.0505077
0.043592
0.0373612
0.0316644
0.0263579
0.0212017
0.0155628
0.00663029
0.0473802
0.0415762
0.0360579
0.0308512
0.0258939
0.0209837
0.0155089
0.00678522
0.0408757
0.0358864
0.0311635
0.0267054
0.0224461
0.018202
0.0134243
0.00560792
0.0453501
0.039204
0.0336591
0.028578
0.0238286
0.0191913
0.0140808
0.00582198
0.0490081
0.04205
0.0358422
0.0302315
0.0250561
0.0200703
0.0146573
0.00603909
0.0513365
0.0439103
0.0373194
0.0313942
0.0259576
0.0207485
0.015129
0.00625937
0.0518491
0.0444199
0.0378209
0.0318743
0.026402
0.0211414
0.0154474
0.00646776
0.0503984
0.0435152
0.0373169
0.03165
0.0263676
0.0212272
0.0155932
0.00665932
0.0473102
0.0415341
0.036043
0.0308612
0.0259233
0.0210242
0.0155496
0.00681812
0.0406799
0.0357333
0.031049
0.0266248
0.0223941
0.0181729
0.0134124
0.00561812
0.0451106
0.0390181
0.0335206
0.0284802
0.0237646
0.019154
0.0140635
0.00583088
0.0487353
0.0418391
0.0356863
0.0301225
0.0249856
0.0200296
0.0146385
0.00604758
0.0510485
0.0436908
0.0371598
0.0312851
0.0258892
0.020711
0.0151132
0.00626893
0.0515731
0.0442133
0.0376745
0.031778
0.0263454
0.021114
0.0154389
0.00647971
0.0501611
0.0433405
0.0371969
0.0315757
0.0263291
0.0212142
0.0155949
0.00667438
0.0471233
0.0413981
0.0359529
0.0308103
0.0259032
0.021025
0.0155606
0.00683584
0.0404423
0.0355478
0.0309078
0.0265212
0.022322
0.0181268
0.0133875
0.00562121
0.0448202
0.0387968
0.0333546
0.0283592
0.0236804
0.0190996
0.0140332
0.00583301
0.0484012
0.041588
0.0355007
0.029989
0.0248938
0.0199711
0.0146061
0.00604929
0.0506912
0.0434267
0.0369681
0.0311499
0.0257982
0.0206544
0.0150829
0.00627138
0.0512236
0.0439591
0.0374936
0.0316537
0.0262645
0.021066
0.0154149
0.00648417
0.0498493
0.0431158
0.0370402
0.0314716
0.0262649
0.0211792
0.01558
0.00668169
0.046865
0.0412106
0.0358239
0.0307281
0.0258565
0.0210036
0.0155551
0.00684511
0.0402168
0.0353645
0.0307621
0.026409
0.0222393
0.0180697
0.0133535
0.0056205
0.0445518
0.0385846
0.0331879
0.0282314
0.0235864
0.0190347
0.0139938
0.00583146
0.0480978
0.0413531
0.0353188
0.0298509
0.0247931
0.0199021
0.0145647
0.00604706
0.0503737
0.0431851
0.0367838
0.0310117
0.0256987
0.0205872
0.0150431
0.00626947
0.0509193
0.0437304
0.0373218
0.031527
0.0261748
0.0210067
0.0153807
0.00648385
0.0495773
0.0429139
0.0368913
0.0313644
0.0261912
0.0211322
0.0155541
0.00668395
0.0466345
0.0410392
0.0357001
0.0306421
0.0258005
0.0209706
0.0155393
0.00684922
0.0622077
0.0538659
0.045253
0.0373998
0.0303318
0.0238749
0.017418
0.00810703
0.0684463
0.0610685
0.0505916
0.041185
0.032931
0.0255903
0.018493
0.00849182
0.0691153
0.0648417
0.0534277
0.0430303
0.0340439
0.0261894
0.0187651
0.00850771
0.0707741
0.0634561
0.0520612
0.041863
0.0330566
0.0253697
0.0181207
0.00812675
0.0670538
0.0571487
0.0469564
0.0379996
0.0301985
0.0232991
0.0166882
0.00742486
0.0576295
0.0483606
0.040076
0.0328008
0.0263654
0.020551
0.0148182
0.00658146
0.0466994
0.0397254
0.0334237
0.0277337
0.022574
0.0177935
0.0129227
0.00577075
0.0636939
0.0548037
0.046384
0.0386112
0.0314928
0.0248903
0.0182045
0.00850642
0.07271
0.0619751
0.0515683
0.0423098
0.0340527
0.0265899
0.0192745
0.008887
0.0763914
0.0661133
0.0544083
0.0441544
0.0351632
0.0271878
0.0195454
0.00889575
0.0757357
0.0646493
0.0531378
0.0430468
0.0342106
0.0263875
0.0189131
0.00851661
0.0690038
0.0581675
0.0481568
0.0392606
0.0313867
0.0243314
0.0174885
0.0078149
0.0587865
0.0496607
0.0414727
0.0341489
0.0275789
0.0215813
0.0156059
0.0069592
0.0481517
0.0412304
0.034876
0.02906
0.0237397
0.0187742
0.0136686
0.00612164
0.0646747
0.0557352
0.047448
0.0396978
0.032518
0.0258001
0.0189322
0.00888549
0.0745135
0.0626573
0.0524097
0.0432693
0.0350138
0.027478
0.0200056
0.00927382
0.0800701
0.0667532
0.0551337
0.0450246
0.0360752
0.028057
0.0202759
0.0092813
0.0783397
0.0652998
0.0539118
0.0439492
0.0351434
0.0272744
0.0196566
0.00890491
0.0702728
0.0590492
0.0491429
0.0402937
0.0323904
0.0252519
0.01824
0.00819839
0.0598856
0.0508274
0.0426682
0.0352968
0.0286371
0.022514
0.0163469
0.00732675
0.0494467
0.0425371
0.0361203
0.0302091
0.024777
0.0196765
0.0143767
0.00646301
0.0655377
0.0569625
0.0486507
0.0408001
0.0335223
0.0266972
0.0196654
0.00928012
0.0749769
0.0634975
0.0534914
0.0443331
0.0360177
0.0284
0.0207762
0.0096959
0.0806373
0.0674089
0.0560713
0.0460189
0.0370552
0.0289865
0.021066
0.00971336
0.0789824
0.0661008
0.0548729
0.0449456
0.0361299
0.028211
0.0204492
0.00933281
0.0711796
0.0600952
0.0502326
0.0413532
0.0334087
0.0261898
0.0190135
0.00860504
0.0610783
0.0520582
0.0438382
0.0363973
0.0296615
0.0234323
0.0170862
0.0077031
0.0507189
0.043759
0.0372695
0.0312871
0.0257735
0.0205586
0.0150769
0.00680716
0.0658473
0.05815
0.049769
0.041837
0.0344847
0.0275637
0.0203724
0.00966935
0.0717227
0.0644404
0.0546561
0.0454432
0.037057
0.0293391
0.0215431
0.0101189
0.0754374
0.067828
0.0572001
0.0471512
0.0381381
0.0299725
0.0218715
0.0101524
0.0765701
0.0667916
0.0559662
0.0460658
0.0372132
0.0291969
0.0212501
0.00976184
0.0714244
0.0611998
0.0513946
0.0424839
0.0344719
0.0271402
0.0197719
0.00900318
0.0623349
0.0533134
0.0450193
0.037508
0.0306851
0.0243345
0.0177978
0.00806685
0.0519763
0.0449532
0.0384005
0.0323515
0.0267531
0.0214132
0.0157445
0.00713718
0.0664945
0.0589831
0.0506445
0.042707
0.0353146
0.0283107
0.0209725
0.0100034
0.0717413
0.065319
0.0556503
0.0464265
0.0379823
0.0301584
0.0221892
0.0104723
0.0727952
0.0686444
0.058245
0.048219
0.0391442
0.0308531
0.0225555
0.010517
0.0748735
0.0674766
0.0570327
0.0471662
0.038239
0.0300848
0.0219327
0.0101192
0.0718065
0.0622581
0.0525386
0.0435794
0.0354666
0.0279921
0.0204234
0.00933988
0.0635016
0.0545129
0.0461655
0.0385682
0.0316369
0.0251455
0.0184177
0.00838137
0.053208
0.0461218
0.039497
0.0333616
0.0276541
0.0221787
0.0163295
0.00742631
0.0673986
0.0595139
0.051247
0.0433483
0.0359464
0.0288837
0.0214304
0.0102642
0.0735774
0.0660732
0.056316
0.0471257
0.0386604
0.0307609
0.0226598
0.0107347
0.0755782
0.0694841
0.0589657
0.0489848
0.0398771
0.0314926
0.0230451
0.0107815
0.0771876
0.0684892
0.0579208
0.0480256
0.0390205
0.0307468
0.0224322
0.010383
0.0732025
0.0632893
0.0535
0.0444663
0.0362517
0.0286512
0.0209207
0.0095992
0.06466
0.0555577
0.0471366
0.0394476
0.0324108
0.0257977
0.0189121
0.00863461
0.0543054
0.0471352
0.0404276
0.0342012
0.0283948
0.0228055
0.0168075
0.00766528
0.0684815
0.0600141
0.051726
0.0438316
0.0364142
0.0293082
0.0217733
0.0104695
0.0769969
0.0668129
0.0568233
0.0476068
0.0391196
0.0311773
0.0229976
0.0109393
0.0804691
0.0704453
0.0595493
0.0495057
0.0403558
0.0319177
0.0233873
0.0109852
0.0805957
0.0695609
0.0586084
0.048605
0.0395322
0.0311935
0.0227877
0.0105888
0.0748671
0.0641736
0.0542091
0.0450838
0.0367978
0.0291256
0.0212945
0.00980694
0.0655998
0.0563493
0.0478482
0.0400868
0.0329831
0.0262947
0.0193018
0.00884343
0.0551141
0.0478787
0.0411113
0.0348284
0.028963
0.023301
0.0171959
0.00786571
0.0690624
0.0604134
0.0521125
0.0441903
0.0367498
0.0296163
0.0220305
0.0106354
0.0781855
0.0672556
0.0571657
0.0479272
0.0394271
0.0314754
0.0232606
0.0111172
0.0824354
0.0712119
0.059945
0.0498304
0.0406592
0.0322179
0.0236591
0.0111688
0.0816594
0.0702126
0.0590218
0.0489487
0.0398569
0.0315142
0.0230738
0.0107745
0.0757131
0.0647119
0.0546466
0.0454753
0.0371723
0.0294849
0.0216019
0.00999268
0.0661826
0.0568598
0.0483161
0.0405281
0.0334069
0.0266891
0.0196276
0.00902775
0.0556206
0.0483663
0.0415833
0.0352887
0.0294052
0.0237053
0.0175241
0.00804181
0.0687304
0.0606195
0.0523183
0.0443864
0.0369522
0.0298246
0.0222204
0.0107729
0.0770768
0.0670559
0.0572826
0.0480874
0.0396212
0.0316976
0.0234767
0.0112782
0.0822042
0.0710264
0.0600958
0.0499994
0.0408648
0.032462
0.0239005
0.0113444
0.0819546
0.0703501
0.0591718
0.0491273
0.0400869
0.0317833
0.0233315
0.0109517
0.0759506
0.0649274
0.0548612
0.0457207
0.0374597
0.0297901
0.0218747
0.0101653
0.0664666
0.0571369
0.0486057
0.0408475
0.0337478
0.0270231
0.0199112
0.00919435
0.0559038
0.048677
0.0419232
0.03565
0.0297703
0.0240483
0.0178071
0.00819866
0.0683177
0.0605079
0.0522838
0.044424
0.0370503
0.0299608
0.0223606
0.0108896
0.0742966
0.0668391
0.0571952
0.0481155
0.0397362
0.0318635
0.0236474
0.0114157
0.0771653
0.0705014
0.0599709
0.0500469
0.0410166
0.0326672
0.0241032
0.0114959
0.0794594
0.0698009
0.0590841
0.0492259
0.0402849
0.0320224
0.0235533
0.0111061
0.0752116
0.0648053
0.054948
0.0459168
0.0377146
0.0300583
0.0221066
0.0103144
0.0664386
0.0572596
0.0488171
0.0411172
0.0340414
0.027308
0.0201488
0.00933719
0.0560678
0.0489091
0.0422037
0.035955
0.0300775
0.0243342
0.0180409
0.00833227
0.0680654
0.060289
0.0521684
0.0444035
0.0370996
0.0300506
0.0224588
0.0109851
0.0741349
0.0666095
0.0570597
0.048099
0.039804
0.0319734
0.0237598
0.0115186
0.0774799
0.0703917
0.0598667
0.0500659
0.0411241
0.0328101
0.0242353
0.0116038
0.0797658
0.0696983
0.059079
0.0493335
0.0404527
0.0322028
0.0237068
0.0112183
0.0751864
0.0648331
0.055074
0.0461061
0.0379279
0.0302633
0.0222729
0.0104257
0.0665075
0.0574051
0.0490204
0.0413475
0.0342762
0.0275259
0.0203243
0.00944702
0.0562385
0.0491177
0.042435
0.0361942
0.0303118
0.0245489
0.0182148
0.008436
0.068214
0.0601426
0.0520859
0.0443794
0.0371167
0.0300908
0.0225051
0.0110509
0.0756183
0.0665727
0.0569933
0.0480832
0.0398235
0.0320126
0.0238012
0.0115822
0.078659
0.0700658
0.0597506
0.050062
0.041161
0.0328597
0.0242803
0.0116652
0.0797052
0.0696569
0.0591091
0.0494058
0.0405357
0.0322834
0.0237721
0.0112847
0.0753379
0.0649295
0.0551865
0.0462263
0.0380458
0.0303726
0.0223612
0.0104973
0.0666112
0.0575221
0.0491517
0.0414844
0.034414
0.0276565
0.0204321
0.00952302
0.0563367
0.0492327
0.0425638
0.0363325
0.030454
0.0246851
0.0183285
0.00850984
0.0679909
0.0599529
0.0519653
0.0442904
0.037053
0.0300504
0.022484
0.01108
0.0759501
0.0664434
0.056848
0.0479651
0.0397319
0.0319508
0.023768
0.0116102
0.0802291
0.0703255
0.0596661
0.0499531
0.041068
0.0327977
0.0242499
0.0116942
0.0800818
0.0697071
0.059036
0.0493259
0.0404738
0.0322508
0.0237646
0.0113196
0.0754399
0.0649062
0.0551432
0.0461909
0.0380343
0.0303871
0.0223889
0.0105423
0.0665357
0.0574719
0.0491261
0.0414881
0.0344472
0.0277112
0.0204902
0.00957615
0.0562515
0.0491897
0.0425606
0.0363647
0.0305135
0.0247594
0.0183996
0.00856304
0.067627
0.0596795
0.0517027
0.0440637
0.0368775
0.0299279
0.0224091
0.0110838
0.0759294
0.0659815
0.0564963
0.047677
0.0395168
0.031809
0.0236883
0.0116192
0.0797335
0.0698026
0.0593104
0.0496587
0.040855
0.0326688
0.0241873
0.0117132
0.0799002
0.0693345
0.0586828
0.0490568
0.0402985
0.0321582
0.0237291
0.0113456
0.0751265
0.0645829
0.0548802
0.0460115
0.0379378
0.030355
0.0223935
0.0105787
0.0662096
0.0572241
0.0489593
0.0413997
0.0344236
0.0277312
0.0205285
0.00962071
0.0560116
0.0490311
0.0424746
0.0363391
0.0305325
0.0248048
0.0184515
0.00860715
0.0667963
0.0591403
0.0512629
0.0437315
0.0366443
0.0297765
0.0223222
0.0110838
0.0729507
0.0651955
0.0559477
0.0472869
0.039256
0.0316491
0.0236017
0.0116243
0.076324
0.0689936
0.0587902
0.0493001
0.0406267
0.0325395
0.0241255
0.0117291
0.0789402
0.0686929
0.0582358
0.0487636
0.040129
0.0320762
0.0236993
0.0113707
0.0744822
0.0641256
0.0545709
0.0458294
0.037852
0.0303311
0.0224003
0.0106128
0.0657872
0.0569347
0.0487879
0.0413196
0.0344071
0.0277521
0.0205631
0.00966102
0.0557662
0.0488801
0.0423988
0.036319
0.03055
0.024843
0.0184941
0.00864529
0.0453429
0.0384584
0.0322094
0.0265791
0.0215142
0.0168677
0.0121759
0.00533167
0.0479037
0.0397382
0.0327547
0.0266885
0.021366
0.0165848
0.0118598
0.00500796
0.0482548
0.039703
0.0324721
0.0262824
0.0209226
0.0161571
0.0114866
0.00470023
0.0461399
0.0380432
0.0311537
0.0252484
0.0201305
0.0155655
0.0110605
0.00442303
0.0422293
0.0350984
0.0289688
0.0236635
0.0190137
0.0148051
0.0105671
0.00417119
0.0374585
0.0314954
0.0263166
0.0217597
0.0176898
0.0139184
0.0100125
0.00398268
0.0324052
0.0278161
0.0236328
0.0198229
0.0163203
0.0129803
0.00940813
0.00384822
0.0468826
0.0400342
0.0337098
0.0279412
0.0227104
0.0178753
0.0129434
0.00568845
0.0495644
0.0414341
0.0343689
0.0281573
0.0226595
0.0176757
0.0126885
0.005381
0.0500488
0.0415193
0.0341973
0.0278539
0.0223062
0.0173205
0.0123659
0.00508563
0.0480727
0.0399667
0.0329652
0.0268908
0.0215698
0.0167697
0.0119664
0.0048136
0.0442913
0.0370915
0.030815
0.0253192
0.0204549
0.016004
0.0114655
0.00455761
0.0395585
0.033471
0.0281182
0.0233632
0.0190781
0.0150706
0.0108751
0.00434975
0.0344238
0.0296889
0.0253304
0.0213307
0.017626
0.0140649
0.0102226
0.00419516
0.0481992
0.0413629
0.0349785
0.0291191
0.0237807
0.018809
0.0136757
0.00603663
0.0509049
0.0428341
0.035731
0.0294344
0.0238223
0.0186852
0.0134725
0.0057414
0.0514655
0.0430042
0.0356502
0.0292178
0.023542
0.0183845
0.0131845
0.0054533
0.0496148
0.0415438
0.0344898
0.0283089
0.0228419
0.0178537
0.0127934
0.00517814
0.0459532
0.038729
0.0323641
0.0267387
0.0217132
0.0170664
0.0122712
0.00491067
0.0412584
0.0350967
0.0296282
0.0247309
0.02028
0.016079
0.0116363
0.00467585
0.036071
0.0312373
0.026755
0.0226142
0.0187512
0.0150088
0.0109373
0.0045002
0.0494743
0.0425904
0.0361449
0.0302254
0.0248081
0.0197168
0.0143926
0.00638313
0.0521766
0.04413
0.0369839
0.0306282
0.0249247
0.0196483
0.0142224
0.00609251
0.0527544
0.0443511
0.0369662
0.0304685
0.0246867
0.0193743
0.0139473
0.00580305
0.0509781
0.0429373
0.0358422
0.0295765
0.0239878
0.0188346
0.0135438
0.00551755
0.0473765
0.0401373
0.033708
0.0279814
0.0228218
0.0180061
0.0129868
0.0052287
0.0426842
0.0364724
0.0309197
0.0259111
0.0213228
0.0169566
0.0123016
0.00496084
0.0374453
0.0325405
0.0279649
0.0237107
0.0197157
0.0158198
0.0115531
0.00476044
0.0506987
0.0437744
0.0372926
0.0313154
0.025808
0.0205848
0.0150672
0.00671093
0.0534559
0.0453854
0.038211
0.0317867
0.0259749
0.0205491
0.0149142
0.00641942
0.054044
0.045638
0.0382227
0.0316467
0.0257458
0.0202757
0.0146347
0.00612201
0.0522826
0.0442278
0.037083
0.0307286
0.025015
0.0197036
0.0142037
0.00582078
0.0486746
0.0413963
0.0348954
0.029071
0.0237865
0.0188187
0.0136029
0.00550907
0.0439393
0.0376682
0.0320346
0.0269223
0.0222106
0.0177005
0.0128632
0.00520729
0.0386291
0.0336554
0.0289927
0.024636
0.0205256
0.016499
0.0120685
0.00497562
0.051933
0.0449545
0.0384004
0.0323336
0.0267145
0.0213539
0.0156546
0.0069966
0.0547639
0.0466417
0.0393813
0.0328486
0.0269107
0.0213375
0.0155132
0.00670415
0.0553514
0.0468927
0.0393861
0.0326963
0.0266671
0.0210498
0.0152215
0.00639689
0.0535484
0.0454284