/*--------------------------------*- C++ -*----------------------------------*\
| =========                 |                                                 |
| \\      /  F ield         | OpenFOAM: The Open Source CFD Toolbox           |
|  \\    /   O peration     | Version:  plus.master.MPPICInterFoam            |
|   \\  /    A nd           | Web:      www.OpenFOAM.com                      |
|    \\/     M anipulation  |                                                 |
\*---------------------------------------------------------------------------*/
FoamFile
{
    version     2.0;
    format      ascii;
    class       surfaceScalarField;
    location    "13.4";
    object      phi;
}
// * * * * * * * * * * * * * * * * * * * * * * * * * * * * * * * * * * * * * //

dimensions      [0 3 -1 0 0 0 0];

internalField   nonuniform List<scalar> 
34018
(
2.69863e-07
6.08265e-06
-2.64e-07
-3.5068e-07
2.92891e-07
7.6603e-06
2.90007e-07
5.9759e-06
-2.07318e-07
-4.11125e-07
8.80435e-06
2.97138e-07
-2.70049e-07
7.04653e-06
3.23486e-07
5.57201e-06
-1.60229e-07
2.97019e-07
-4.06786e-07
-2.56576e-07
7.32485e-06
4.92257e-07
2.53275e-07
-3.93324e-07
-7.43672e-08
7.52653e-06
1.91929e-07
-3.14089e-07
-1.33483e-07
7.2981e-06
2.03307e-07
-1.75257e-07
-2.10371e-07
6.68223e-06
2.09714e-07
-7.86823e-08
-1.37523e-07
5.80027e-06
1.47684e-07
-2.0953e-08
-6.92757e-08
4.81134e-06
8.30749e-08
-9.94436e-09
3.80825e-06
1.162e-08
2.0518e-08
-4.04943e-07
-1.58633e-07
9.1789e-06
6.09187e-07
-4.82464e-07
3.93244e-07
9.63834e-06
-3.93383e-07
1.85594e-07
9.30345e-06
-1.61343e-07
-1.39051e-07
8.30031e-06
-3.46059e-08
-7.12663e-08
7.0483e-06
2.4877e-08
-1.3134e-08
5.78538e-06
3.48231e-08
4.57955e-06
4.63378e-08
-4.4453e-07
2.54853e-07
1.20013e-05
7.5922e-07
-5.34216e-07
8.46845e-07
1.31411e-05
-5.48117e-07
7.15433e-07
1.245e-05
-1.21339e-07
1.20549e-07
1.03909e-05
5.23929e-08
9.2387e-08
8.33432e-06
9.57552e-08
1.07934e-07
6.69201e-06
1.20623e-07
5.26223e-06
9.93689e-08
-2.22198e-07
1.20286e-07
1.48792e-05
4.84483e-07
-8.02924e-07
5.07388e-07
1.5958e-05
-9.91085e-07
4.70948e-07
1.52668e-05
-2.61413e-07
8.20891e-08
1.25286e-05
6.05857e-08
2.60673e-07
9.44172e-06
1.31194e-07
2.33139e-07
7.37199e-06
2.17242e-07
5.76099e-06
1.37075e-07
-4.87059e-07
2.29399e-07
1.57369e-05
4.84608e-07
-6.76134e-07
-3.97685e-08
1.56553e-05
-9.38093e-07
-1.3169e-07
1.539e-05
-6.02775e-07
2.71119e-07
1.32148e-05
-4.21873e-09
2.30226e-07
9.89732e-06
1.29659e-07
2.99593e-07
7.65867e-06
2.92287e-07
5.98514e-06
1.52395e-07
-6.15663e-07
3.79925e-07
1.44802e-05
7.48494e-07
-5.58325e-07
1.07739e-07
1.5711e-05
-5.41204e-07
1.10052e-07
1.51707e-05
5.65973e-08
6.26583e-07
1.265e-05
2.18822e-07
5.49799e-07
9.55222e-06
2.09587e-07
4.66235e-07
7.50309e-06
3.8938e-07
5.90667e-06
1.82045e-07
-5.54083e-07
1.13805e-05
7.3958e-07
7.62775e-07
-4.26235e-07
1.27373e-05
7.56478e-07
-2.11151e-07
1.23376e-05
7.79169e-07
1.21328e-07
1.04841e-05
9.08194e-07
2.00208e-07
8.56239e-06
7.12917e-07
1.86587e-07
6.96239e-06
5.64196e-07
5.54572e-06
1.66696e-07
4.35888e-07
-4.73906e-07
-4.98492e-07
7.30618e-06
5.84979e-07
4.06012e-07
-3.3945e-07
-4.9478e-07
7.46371e-06
4.23881e-07
-1.79237e-07
-4.93028e-07
7.21277e-06
4.1834e-07
-3.49565e-08
-4.16071e-07
6.60056e-06
3.53742e-07
4.42386e-08
-2.64988e-07
5.74241e-06
2.44003e-07
7.89271e-08
-1.48724e-07
4.77611e-06
1.48789e-07
-6.48425e-08
3.79034e-06
9.11142e-08
7.06595e-08
-5.47785e-07
-5.02248e-07
8.96558e-06
7.65412e-07
-3.62334e-07
-3.38852e-07
9.29697e-06
-1.38844e-07
-3.81043e-07
8.96786e-06
6.16326e-08
-3.96637e-07
8.08042e-06
1.38578e-07
-2.24772e-07
6.93165e-06
1.51353e-07
-9.85114e-08
5.72223e-06
-1.9198e-08
4.54567e-06
1.3992e-07
-5.13357e-07
-1.57965e-07
1.11702e-05
1.00015e-06
-3.6615e-07
3.04876e-07
1.2351e-05
-1.06521e-07
1.74602e-07
1.16347e-05
2.37686e-07
-1.07705e-07
9.757e-06
2.91363e-07
-4.15341e-08
8.09764e-06
2.56015e-07
3.77861e-08
6.59099e-06
7.89249e-08
5.21039e-06
2.10039e-07
-3.00775e-07
1.13365e-07
1.39302e-05
9.78069e-07
-3.8051e-07
5.53161e-07
1.57901e-05
-3.1437e-07
5.46921e-07
1.48283e-05
2.68836e-07
2.39971e-07
1.15978e-05
3.93852e-07
2.25414e-07
9.0498e-06
3.33612e-07
2.27867e-07
7.24254e-06
2.09156e-07
5.69898e-06
2.65538e-07
-1.086e-07
2.9058e-07
1.49289e-05
7.39964e-07
-5.3369e-07
-1.13093e-08
1.66447e-05
-7.033e-07
-5.20692e-08
1.6159e-05
9.65338e-08
2.86862e-07
1.23682e-05
3.64851e-07
4.01844e-07
9.45288e-06
3.38727e-07
3.81779e-07
7.53091e-06
3.23958e-07
5.92927e-06
2.80041e-07
-4.06517e-07
7.91248e-07
1.33085e-05
1.07717e-06
-3.21711e-07
3.08945e-07
1.53049e-05
-2.08989e-07
5.00222e-07
1.45053e-05
3.3399e-07
7.96526e-07
1.15981e-05
4.18177e-07
6.84189e-07
9.18587e-06
3.44741e-07
5.51456e-07
7.40696e-06
4.28736e-07
5.87198e-06
2.75037e-07
-5.15967e-07
1.08366e-05
8.52482e-07
9.98318e-07
-3.18563e-07
1.17673e-05
1.08167e-06
1.1905e-08
1.13865e-05
1.12092e-06
2.70138e-07
9.97201e-06
1.05039e-06
3.03498e-07
8.41163e-06
8.01442e-07
2.68859e-07
6.92891e-06
6.19837e-07
5.54493e-06
2.38483e-07
4.60245e-07
-4.53922e-07
-2.03377e-07
7.27272e-06
4.97271e-07
1.93546e-07
-3.43867e-07
-2.45163e-07
7.38723e-06
2.12113e-07
-2.11394e-07
-2.45002e-07
7.11153e-06
2.13979e-07
-1.02508e-07
-1.75969e-07
6.49846e-06
1.69228e-07
-2.98521e-08
-9.82883e-08
5.6561e-06
1.11826e-07
1.69308e-08
-4.48478e-08
4.71027e-06
6.35605e-08
-5.80798e-09
3.74619e-06
4.58704e-08
2.09393e-08
-5.60834e-07
-2.1869e-07
8.88782e-06
6.54349e-07
-3.80407e-07
-2.43807e-07
9.11516e-06
-1.97684e-07
-2.33405e-07
8.77359e-06
-6.81551e-08
-1.45303e-07
7.92026e-06
4.56221e-09
-4.93202e-08
6.8099e-06
4.41912e-08
6.5653e-09
5.63104e-06
3.762e-08
4.48205e-06
6.45215e-08
-5.9455e-07
-1.2133e-07
1.08128e-05
8.54446e-07
-3.45417e-07
9.34862e-08
1.17648e-05
-1.00052e-07
5.90375e-08
1.10961e-05
3.96326e-08
-5.58574e-09
9.47726e-06
8.39017e-08
7.62164e-08
7.92819e-06
9.62432e-08
1.1244e-07
6.47288e-06
1.1665e-07
5.12827e-06
9.93904e-08
-3.20744e-07
1.62427e-07
1.28965e-05
1.07057e-06
-2.7909e-07
2.80546e-07
1.55619e-05
-1.10711e-07
1.77841e-07
1.45403e-05
1.46014e-07
2.60383e-07
1.10747e-05
1.61072e-07
2.81807e-07
8.82925e-06
1.44037e-07
2.65314e-07
7.10684e-06
2.21805e-07
5.6074e-06
1.30511e-07
-1.76605e-07
5.71053e-07
1.35492e-05
1.14721e-06
-3.57187e-07
2.26436e-07
1.68798e-05
-1.64131e-07
3.13903e-07
1.58304e-05
1.30011e-07
4.68967e-07
1.18652e-05
1.51607e-07
4.77866e-07
9.23505e-06
1.40865e-07
4.00665e-07
7.40619e-06
3.13829e-07
5.84422e-06
1.33979e-07
-6.02351e-07
8.86024e-07
1.2519e-05
1.07686e-06
-3.18895e-07
9.14409e-07
1.43331e-05
-6.77357e-08
8.96151e-07
1.36724e-05
1.13713e-07
7.94279e-07
1.10915e-05
1.1702e-07
6.16615e-07
9.04357e-06
1.15501e-07
4.95436e-07
7.31354e-06
3.74205e-07
5.80596e-06
1.21145e-07
-5.9233e-07
1.08851e-05
6.8377e-07
7.45651e-07
-3.41042e-07
1.14883e-05
9.4218e-07
-1.49687e-07
1.11756e-05
9.15834e-07
-4.77873e-08
9.90313e-06
7.61194e-07
1.61167e-08
8.35338e-06
6.10804e-07
6.52431e-08
6.87795e-06
4.97151e-07
5.50612e-06
1.11746e-07
3.66567e-07
-4.01108e-07
1.9419e-07
7.18275e-06
3.55325e-07
-5.8344e-08
-3.62483e-07
1.48604e-07
7.26632e-06
-6.6432e-08
-2.79656e-07
1.00281e-07
6.97004e-06
-4.17386e-08
-2.00395e-07
9.87411e-08
6.35525e-06
-3.48944e-08
-1.24498e-07
8.14986e-08
5.52722e-06
-2.85823e-08
-5.94076e-08
6.54415e-08
4.60615e-06
-2.64255e-08
5.67578e-08
3.67293e-06
-1.05851e-08
-3.22778e-08
-5.44602e-07
3.12323e-07
8.84787e-06
4.66366e-07
-4.68545e-07
1.78736e-07
9.00891e-06
-3.47919e-07
1.25318e-07
8.62782e-06
-2.52184e-07
1.71489e-07
7.75164e-06
-1.59685e-07
1.49239e-07
6.6493e-06
-8.0186e-08
1.20831e-07
5.49624e-06
9.82713e-08
4.38273e-06
-2.21579e-08
-7.38002e-07
3.12751e-07
1.09803e-05
5.69825e-07
-5.45904e-07
9.85977e-08
1.16528e-05
-3.39064e-07
6.93577e-08
1.09451e-05
-2.62329e-07
2.38106e-07
9.33415e-06
-1.71913e-07
2.38659e-07
7.74839e-06
-8.82607e-08
1.96799e-07
6.31348e-06
1.55554e-07
5.00742e-06
-2.46708e-08
-1.17893e-06
4.07709e-07
1.30912e-05
8.89256e-07
-5.72176e-07
4.68151e-07
1.45859e-05
-1.37699e-07
4.49438e-07
1.37259e-05
-2.04001e-07
4.50995e-07
1.09283e-05
-1.63244e-07
3.77151e-07
8.65016e-06
-9.09973e-08
2.96684e-07
6.93463e-06
2.23143e-07
5.4745e-06
-2.5592e-08
-1.33606e-06
7.92551e-07
1.34227e-05
1.07779e-06
-6.29444e-07
1.0484e-06
1.55929e-05
-1.81097e-07
9.92052e-07
1.48402e-05
-2.52554e-07
6.43731e-07
1.17443e-05
-2.08607e-07
4.82475e-07
9.08568e-06
-1.17504e-07
3.6915e-07
7.24266e-06
2.72094e-07
5.71361e-06
-3.58882e-08
-1.04578e-06
6.37227e-07
1.292e-05
8.00374e-07
-5.12567e-07
9.83919e-07
1.38651e-05
-3.47071e-07
9.17494e-07
1.35821e-05
-3.78931e-07
5.86807e-07
1.11802e-05
-2.72894e-07
4.57409e-07
8.96252e-06
-1.4376e-07
3.78554e-07
7.17496e-06
2.84148e-07
5.69015e-06
-4.00962e-08
-6.03763e-07
1.14475e-05
3.9715e-07
2.81713e-07
-5.34376e-07
1.19432e-05
4.60001e-07
-5.25916e-07
1.16477e-05
4.3728e-07
-4.4974e-07
1.00455e-05
3.68178e-07
-2.87632e-07
8.2831e-06
3.65507e-07
-1.36052e-07
6.76751e-06
3.3721e-07
5.41426e-06
-1.17578e-08
2.51662e-07
-3.15045e-07
2.66092e-07
7.05711e-06
2.59825e-07
-8.51722e-08
-3.20502e-07
2.83294e-07
7.11786e-06
-1.29809e-07
-2.70288e-07
2.14072e-07
6.80736e-06
-1.01877e-07
-2.00778e-07
1.62506e-07
6.19516e-06
-7.19123e-08
-1.242e-07
1.12312e-07
5.38563e-06
-4.74818e-08
-5.61142e-08
7.64546e-08
4.49487e-06
-3.2809e-08
5.51663e-08
3.59819e-06
-6.54873e-09
-2.97635e-08
-4.46408e-07
4.496e-07
8.76473e-06
3.45809e-07
-4.63195e-07
4.08228e-07
8.90104e-06
-3.7984e-07
2.87154e-07
8.47123e-06
-2.8569e-07
2.57756e-07
7.56232e-06
-1.8127e-07
1.88784e-07
6.46811e-06
-8.84609e-08
1.31754e-07
5.34806e-06
9.36522e-08
4.27817e-06
-2.24159e-08
-7.66076e-07
5.29144e-07
1.12632e-05
4.03708e-07
-6.2392e-07
2.43987e-07
1.16749e-05
-4.42507e-07
1.55702e-07
1.0895e-05
-3.52658e-07
3.19179e-07
9.18341e-06
-2.29496e-07
2.6776e-07
7.54631e-06
-1.15727e-07
1.95372e-07
6.13615e-06
1.40398e-07
4.8787e-06
-3.37646e-08
-1.44638e-06
7.20953e-07
1.36833e-05
6.62875e-07
-7.24202e-07
6.244e-07
1.34835e-05
-2.71163e-07
5.64151e-07
1.28648e-05
-3.67924e-07
4.92671e-07
1.08517e-05
-2.72356e-07
3.69085e-07
8.45335e-06
-1.43244e-07
2.60484e-07
6.74035e-06
1.86281e-07
5.33071e-06
-4.51164e-08
-1.6077e-06
6.58834e-07
1.44188e-05
6.73716e-07
-8.88077e-07
1.22839e-06
1.42694e-05
-3.78244e-07
1.22249e-06
1.36722e-05
-5.09595e-07
6.76118e-07
1.16924e-05
-3.4692e-07
3.78388e-07
8.91373e-06
-1.78513e-07
2.86385e-07
7.0485e-06
2.10021e-07
5.56775e-06
-5.62837e-08
-8.93135e-07
3.27777e-07
1.37293e-05
4.15299e-07
-9.30609e-07
6.00105e-07
1.45316e-05
-6.7738e-07
6.41277e-07
1.39105e-05
-5.67918e-07
3.60235e-07
1.13865e-05
-3.61935e-07
3.18078e-07
8.81696e-06
-1.73349e-07
2.7609e-07
6.99678e-06
2.11969e-07
5.55706e-06
-4.22108e-08
-3.85978e-07
1.1828e-05
2.29714e-07
1.04068e-07
-7.21451e-07
1.28214e-05
5.81877e-08
-6.60838e-07
1.20615e-05
1.67106e-07
-5.09195e-07
1.00545e-05
1.99733e-07
-2.96603e-07
8.13744e-06
2.51379e-07
-1.25676e-07
6.61825e-06
2.54397e-07
5.30703e-06
2.45494e-09
1.90988e-07
-2.27779e-07
1.73661e-08
6.94703e-06
2.37936e-07
8.24813e-08
-2.33967e-07
1.24285e-07
6.98171e-06
1.83293e-08
-1.82574e-07
6.35332e-08
6.66228e-06
3.0328e-08
-1.08121e-07
2.09285e-08
6.05859e-06
4.1309e-08
-3.77999e-08
6.68449e-09
5.27086e-06
3.79141e-08
1.57706e-08
7.60353e-10
4.41097e-06
2.97323e-08
9.99981e-11
3.54756e-06
4.87458e-08
1.77361e-08
-2.75679e-07
1.40978e-07
8.60454e-06
3.1263e-07
-3.47523e-07
3.68446e-07
8.72903e-06
-2.72606e-07
1.89823e-07
8.27029e-06
-1.6222e-07
1.04899e-07
7.36814e-06
-6.48885e-08
7.19906e-08
6.30576e-06
7.07186e-09
4.90557e-08
5.22783e-06
3.48048e-08
4.20103e-06
4.96337e-08
-4.21745e-07
3.01434e-07
1.11766e-05
3.48329e-07
-4.39699e-07
4.70588e-07
1.15912e-05
-3.69289e-07
3.11797e-07
1.07032e-05
-2.0421e-07
1.90988e-07
8.93238e-06
-8.07041e-08
1.54555e-07
7.34029e-06
4.98658e-09
1.14526e-07
5.98497e-06
8.24995e-08
4.77994e-06
5.61235e-08
-4.998e-07
4.13258e-07
1.37677e-05
3.03706e-07
-6.15361e-07
3.18227e-07
1.37513e-05
-5.144e-07
1.48864e-07
1.29269e-05
-2.61406e-07
1.8892e-07
1.06008e-05
-1.15065e-07
2.39183e-07
8.22227e-06
-6.35346e-09
1.76484e-07
6.5697e-06
1.29539e-07
5.21875e-06
5.87377e-08
-7.00168e-07
3.19345e-07
1.49036e-05
3.09182e-07
-8.0969e-07
3.23095e-07
1.43745e-05
-5.77121e-07
2.91105e-07
1.32975e-05
-4.61362e-07
3.03835e-07
1.14621e-05
-1.85702e-07
1.96637e-07
8.68103e-06
-2.84449e-08
1.93955e-07
6.87405e-06
1.5611e-07
5.45434e-06
5.8597e-08
-5.62961e-07
1.21019e-07
1.42102e-05
2.80917e-07
-7.82141e-07
1.40248e-07
1.49339e-05
-4.96475e-07
1.51356e-07
1.37645e-05
-2.68308e-07
2.19827e-07
1.12426e-05
-1.01381e-07
2.58859e-07
8.58812e-06
1.33123e-08
2.36549e-07
6.83973e-06
1.84968e-07
5.45721e-06
8.44954e-08
-2.96804e-07
1.16323e-05
3.08954e-07
3.05299e-07
-4.90996e-07
1.29106e-05
2.45673e-07
-3.296e-07
1.17689e-05
2.82688e-07
-1.70298e-07
9.78189e-06
3.33459e-07
-3.83874e-08
7.95729e-06
3.07328e-07
5.11675e-08
6.4956e-06
2.69842e-07
5.23287e-06
1.16868e-07
1.93553e-07
-2.09902e-07
-2.23037e-07
6.88172e-06
2.69144e-07
2.29147e-07
-1.59672e-07
-1.5705e-07
6.89415e-06
1.95046e-07
-8.77705e-08
-1.56554e-07
6.56492e-06
1.82319e-07
-1.3348e-08
-1.37551e-07
5.96616e-06
1.55758e-07
4.3183e-08
-9.87881e-08
5.19549e-06
1.17937e-07
7.83391e-08
-6.91795e-08
4.35925e-06
8.57435e-08
-4.81014e-08
3.52037e-06
9.49782e-08
5.88527e-08
-2.41061e-07
-1.99107e-07
8.461e-06
3.61199e-07
-2.01583e-07
-2.82719e-08
8.56124e-06
-1.18196e-07
-6.50276e-08
8.09566e-06
-1.49361e-08
-9.14357e-08
7.21905e-06
5.48556e-08
-5.31804e-08
6.1909e-06
9.4717e-08
-2.9078e-08
5.14819e-06
-1.70259e-08
4.1536e-06
1.11361e-07
-2.24907e-07
-6.75049e-08
1.08199e-05
4.50416e-07
-2.27501e-07
1.96343e-07
1.13697e-05
-1.32664e-07
1.6329e-07
1.03803e-05
1.70129e-08
1.023e-08
8.68096e-06
8.81852e-08
3.60098e-08
7.18003e-06
1.23325e-07
4.05243e-08
5.88019e-06
3.47028e-08
4.71591e-06
1.35868e-07
-8.91484e-08
-1.3227e-07
1.35213e-05
4.00563e-07
-2.80376e-07
-5.20177e-08
1.41917e-05
-2.80223e-07
9.90343e-08
1.29914e-05
8.48896e-09
6.33946e-08
1.02589e-05
1.0357e-07
1.38267e-07
8.02506e-06
1.42075e-07
1.21953e-07
6.44998e-06
9.45107e-08
5.14557e-06
1.55595e-07
-2.43413e-07
1.73293e-07
1.45443e-05
2.97933e-07
-2.53951e-07
-9.8909e-08
1.44325e-05
-3.96985e-07
-1.92696e-07
1.37324e-05
-1.13709e-07
1.04624e-07
1.11378e-05
7.00313e-08
1.64258e-07
8.47161e-06
1.37318e-07
1.75716e-07
6.75316e-06
1.41271e-07
5.38165e-06
1.63363e-07
-3.33677e-07
2.93386e-07
1.3894e-05
5.30091e-07
-1.81617e-07
8.1368e-09
1.46748e-05
-1.97077e-07
6.80082e-08
1.35191e-05
6.36287e-08
3.02207e-07
1.07847e-05
1.34875e-07
2.95215e-07
8.38619e-06
1.64546e-07
2.53569e-07
6.73234e-06
1.89633e-07
5.39465e-06
1.78888e-07
-2.63989e-07
1.12697e-05
4.21605e-07
4.98526e-07
-7.71848e-08
1.21726e-05
5.59504e-07
-2.87089e-08
1.12993e-05
4.89243e-07
7.91065e-08
9.50132e-06
4.75175e-07
1.33808e-07
7.81966e-06
3.78242e-07
1.64401e-07
6.4172e-06
3.01637e-07
5.19e-06
1.89344e-07
2.07791e-07
-2.18459e-07
-2.19481e-07
6.82869e-06
2.71036e-07
2.20012e-07
-1.45976e-07
-2.09773e-07
6.82047e-06
2.11245e-07
-6.42715e-08
-1.97129e-07
6.48273e-06
1.97724e-07
5.32416e-09
-1.52656e-07
5.88809e-06
1.61217e-07
5.3874e-08
-1.06964e-07
5.1325e-06
1.21462e-07
8.3828e-08
-7.61143e-08
4.31528e-06
8.99843e-08
-5.58609e-08
3.49734e-06
9.77328e-08
6.49476e-08
-2.68413e-07
-2.12949e-07
8.35278e-06
3.70243e-07
-1.72591e-07
-1.58129e-07
8.41372e-06
-7.11906e-08
-1.5554e-07
7.95265e-06
1.64403e-08
-1.19634e-07
7.09861e-06
7.0693e-08
-6.80325e-08
6.09791e-06
1.01463e-07
-4.0005e-08
5.08133e-06
-2.76313e-08
4.11265e-06
1.14194e-07
-2.42396e-07
-1.35106e-07
1.05022e-05
4.8234e-07
-1.70202e-07
9.77628e-08
1.10421e-05
-2.42139e-08
1.17392e-08
1.0067e-05
7.26903e-08
-1.70336e-08
8.48123e-06
1.13688e-07
1.78608e-08
7.05324e-06
1.3338e-07
2.77913e-08
5.79256e-06
2.23383e-08
4.65996e-06
1.39332e-07
-1.32339e-07
-6.38348e-08
1.30184e-05
5.64003e-07
-8.91616e-08
1.65623e-07
1.40814e-05
3.64436e-09
2.93181e-07
1.26173e-05
1.1532e-07
1.77425e-07
9.9527e-06
1.5025e-07
1.43331e-07
7.86457e-06
1.6026e-07
1.18782e-07
6.34899e-06
8.56548e-08
5.08087e-06
1.61474e-07
2.18438e-07
1.3228e-07
1.37852e-05
3.45078e-07
-6.3135e-08
-9.95556e-08
1.49794e-05
-3.31476e-07
-2.26152e-08
1.43168e-05
1.6149e-08
1.47648e-07
1.08199e-05
1.23912e-07
2.08327e-07
8.29875e-06
1.56223e-07
1.87807e-07
6.6516e-06
1.38582e-07
5.31687e-06
1.67944e-07
-6.91733e-08
4.06705e-07
1.30818e-05
6.06858e-07
4.32397e-08
5.80223e-08
1.44045e-05
-2.60903e-08
3.16683e-07
1.32489e-05
9.87945e-08
3.79588e-07
1.0428e-05
1.39267e-07
3.17079e-07
8.23685e-06
1.58609e-07
2.57551e-07
6.6431e-06
1.83058e-07
5.33791e-06
1.70836e-07
-1.65679e-07
1.10165e-05
3.81929e-07
4.43538e-07
-1.34854e-07
1.17026e-05
4.97232e-07
-3.95133e-08
1.10051e-05
5.15507e-07
4.88639e-08
9.33271e-06
4.59725e-07
1.02101e-07
7.72138e-06
3.61993e-07
1.40281e-07
6.35142e-06
2.85143e-07
5.1491e-06
1.73661e-07
1.90599e-07
-2.16958e-07
-7.00934e-08
6.76691e-06
2.30115e-07
1.18733e-07
-1.62564e-07
-9.03306e-08
6.74081e-06
1.15291e-07
-9.19659e-08
-9.43339e-08
6.39472e-06
1.11633e-07
-3.10289e-08
-6.93187e-08
5.80327e-06
9.31274e-08
1.72157e-08
-5.29118e-08
5.06174e-06
7.52059e-08
5.16375e-08
-4.39912e-08
4.26373e-06
6.08251e-08
-3.85337e-08
3.4676e-06
7.13108e-08
4.81474e-08
-3.02684e-07
-1.86412e-08
8.28088e-06
3.2284e-07
-2.19512e-07
-6.25188e-08
8.30241e-06
-1.24382e-07
-6.9337e-08
7.83246e-06
-4.47313e-08
-3.43257e-08
6.98377e-06
1.39679e-08
-1.52155e-08
6.00097e-06
5.5028e-08
-1.18176e-08
5.00769e-06
-1.44487e-08
4.06449e-06
7.85715e-08
-4.04212e-07
4.34571e-08
1.04194e-05
4.24625e-07
-2.48004e-07
1.69263e-08
1.08065e-05
-9.59009e-08
-3.38154e-08
9.87914e-06
-1.78965e-08
3.26941e-08
8.33613e-06
3.368e-08
5.34424e-08
6.93302e-06
7.12327e-08
4.30044e-08
5.69999e-06
2.61175e-08
4.59664e-06
9.36603e-08
-5.59971e-07
1.17894e-07
1.28589e-05
6.45038e-07
-3.16739e-07
1.85838e-07
1.36695e-05
-1.66351e-08
1.68819e-07
1.21142e-05
2.55905e-08
1.8557e-07
9.75764e-06
6.05959e-08
1.55128e-07
7.72787e-06
8.86162e-08
1.18306e-07
6.24545e-06
7.81333e-08
5.00859e-06
1.08648e-07
-4.41401e-07
2.80517e-07
1.33256e-05
7.38249e-07
-4.4055e-07
3.61438e-07
1.48031e-05
-9.9823e-08
5.29023e-07
1.36159e-05
-6.91679e-09
3.08696e-07
1.06035e-05
4.71532e-08
2.35899e-07
8.16362e-06
8.55594e-08
1.81817e-07
6.54943e-06
1.23129e-07
5.24426e-06
1.12986e-07
-3.94197e-07
4.52293e-07
1.25795e-05
7.24574e-07
-2.72406e-07
4.94236e-07
1.415e-05
-9.54122e-08
5.3755e-07
1.30635e-05
-3.32066e-08
3.71498e-07
1.03029e-05
2.60148e-08
2.86346e-07
8.12694e-06
7.5373e-08
2.23851e-07
6.55156e-06
1.52022e-07
5.27207e-06
1.12151e-07
-3.25389e-07
1.11402e-05
3.58677e-07
2.94985e-07
-2.81396e-07
1.17442e-05
4.0822e-07
-1.88629e-07
1.10367e-05
4.13009e-07
-1.00145e-07
9.28209e-06
3.33442e-07
-8.27952e-09
7.63823e-06
2.77501e-07
6.32746e-08
6.27757e-06
2.25944e-07
5.09683e-06
1.20822e-07
1.46509e-07
-1.79653e-07
5.37452e-08
6.6874e-06
1.66441e-07
3.8952e-08
-1.58396e-07
5.30567e-08
6.64712e-06
1.89062e-08
-1.16514e-07
3.89405e-08
6.29375e-06
1.99702e-08
-6.6413e-08
2.13545e-08
5.70704e-06
2.45644e-08
-1.75741e-08
2.02966e-09
4.98059e-06
2.99343e-08
2.1732e-08
-1.26602e-08
4.20437e-06
3.26083e-08
-2.15199e-08
3.43246e-06
4.6572e-08
3.16961e-08
-2.68988e-07
1.58227e-07
8.20803e-06
2.36982e-07
-2.43673e-07
1.2658e-07
8.20354e-06
-1.88856e-07
1.04573e-07
7.71177e-06
-1.13245e-07
6.96789e-08
6.85955e-06
-4.37464e-08
4.10995e-08
5.89183e-06
1.0736e-08
1.62301e-08
4.924e-06
-1.23238e-09
4.00967e-06
4.49656e-08
-4.32934e-07
2.45951e-07
1.04683e-05
2.96216e-07
-3.36973e-07
1.30672e-07
1.0706e-05
-2.32223e-07
1.12636e-07
9.76608e-06
-1.33157e-07
1.07587e-07
8.19951e-06
-5.43877e-08
9.20701e-08
6.80334e-06
8.5732e-09
5.6798e-08
5.59647e-06
2.86611e-08
4.52554e-06
4.95667e-08
-8.37347e-07
4.17412e-07
1.29863e-05
5.3849e-07
-3.44575e-07
1.90849e-07
1.31164e-05
-1.93997e-07
1.12061e-07
1.1964e-05
-1.29089e-07
1.79205e-07
9.62092e-06
-5.49195e-08
1.55321e-07
7.59059e-06
1.06166e-08
1.05665e-07
6.13094e-06
6.43025e-08
4.92785e-06
5.56936e-08
-1.08465e-06
3.79731e-07
1.38279e-05
6.19799e-07
-5.88546e-07
5.56035e-07
1.39414e-05
-1.926e-07
5.98429e-07
1.27335e-05
-1.68442e-07
3.1211e-07
1.04463e-05
-7.21677e-08
1.8926e-07
8.03321e-06
4.97797e-09
1.42839e-07
6.43511e-06
9.30135e-08
5.16213e-06
5.83235e-08
-9.39065e-07
2.11466e-07
1.31563e-05
5.30634e-07
-6.27016e-07
4.41293e-07
1.39526e-05
-3.20266e-07
4.24968e-07
1.29304e-05
-1.92278e-07
2.33913e-07
1.02528e-05
-8.62223e-08
1.967e-07
8.01329e-06
1.6509e-09
1.61005e-07
6.44542e-06
1.08171e-07
5.19605e-06
6.23023e-08
-4.32071e-07
1.14044e-05
2.63662e-07
1.15566e-07
-4.44348e-07
1.20002e-05
1.97159e-07
-3.24344e-07
1.11279e-05
2.13579e-07
-2.12169e-07
9.22974e-06
1.73986e-07
-8.78321e-08
7.53987e-06
1.70683e-07
8.45472e-09
6.18687e-06
1.55175e-07
5.03407e-06
8.02848e-08
9.88017e-08
-1.23689e-07
3.66677e-08
6.60259e-06
1.2107e-07
5.0667e-08
-1.21127e-07
8.08532e-08
6.54871e-06
1.478e-08
-9.55054e-08
6.45693e-08
6.1914e-06
1.20516e-08
-5.54206e-08
3.54052e-08
5.61215e-06
1.92333e-08
-1.11163e-08
5.499e-09
4.9026e-06
2.80139e-08
2.48429e-08
-1.43814e-08
4.14915e-06
3.35854e-08
-2.58758e-08
3.40129e-06
4.71288e-08
3.47342e-08
-1.70715e-07
1.47182e-07
8.10616e-06
1.62007e-07
-1.99827e-07
2.2e-07
8.09326e-06
-1.72956e-07
1.67341e-07
7.58178e-06
-1.09788e-07
1.024e-07
6.72903e-06
-4.13726e-08
4.70602e-08
5.78168e-06
1.26396e-08
1.23731e-08
4.84303e-06
-8.20847e-09
3.95915e-06
4.54332e-08
-2.5679e-07
2.69393e-07
1.04469e-05
1.55788e-07
-2.97472e-07
2.8526e-07
1.06808e-05
-2.60644e-07
2.61481e-07
9.6348e-06
-1.59605e-07
1.53484e-07
8.04719e-06
-6.36994e-08
8.7618e-08
6.66646e-06
7.00507e-09
4.4514e-08
5.49343e-06
1.6622e-08
4.45873e-06
4.87982e-08
-3.8615e-07
3.90956e-07
1.30362e-05
2.14061e-07
-3.37135e-07
2.68566e-07
1.30828e-05
-3.53414e-07
2.02655e-07
1.20386e-05
-1.94039e-07
1.4337e-07
9.47122e-06
-7.8435e-08
1.19602e-07
7.44267e-06
4.67784e-09
7.74574e-08
6.01459e-06
4.41352e-08
4.85102e-06
5.38002e-08
-5.863e-07
2.65972e-07
1.42678e-05
2.70322e-07
-4.78093e-07
2.12332e-07
1.38887e-05
-3.78941e-07
9.18799e-08
1.27445e-05
-2.46209e-07
1.36226e-07
1.03205e-05
-9.8165e-08
1.12418e-07
7.89222e-06
8.94574e-11
9.75402e-08
6.31664e-06
6.51927e-08
5.08313e-06
5.78323e-08
-5.82507e-07
3.87064e-08
1.37282e-05
2.37362e-07
-5.08954e-07
6.63053e-08
1.40244e-05
-3.82595e-07
4.70836e-08
1.28481e-05
-2.21619e-07
6.19801e-08
1.01656e-05
-8.76591e-08
1.14061e-07
7.8775e-06
7.26795e-09
1.13166e-07
6.33468e-06
7.9214e-08
5.12298e-06
6.6065e-08
-2.47675e-07
1.1452e-05
1.58374e-07
8.00375e-08
-3.47195e-07
1.20963e-05
6.92583e-08
-2.7829e-07
1.10431e-05
6.25593e-08
-1.82969e-07
9.10297e-06
9.30603e-08
-6.67674e-08
7.4211e-06
1.16376e-07
2.12442e-08
6.09368e-06
1.18077e-07
4.97437e-06
8.45847e-08
7.53567e-08
-1.01291e-07
-1.0746e-07
6.54507e-06
1.29706e-07
1.36532e-07
-7.64588e-08
-6.45433e-08
6.4784e-06
1.09948e-07
-3.91479e-08
-6.39568e-08
6.11866e-06
9.92588e-08
-3.28912e-10
-5.80553e-08
5.54518e-06
8.59332e-08
3.44862e-08
-5.59776e-08
4.84906e-06
7.44244e-08
5.8708e-08
-5.4298e-08
4.11341e-06
6.54369e-08
-5.22915e-08
3.38412e-06
7.0721e-08
5.71029e-08
-1.2179e-07
-6.8619e-08
8.01452e-06
1.7446e-07
-1.15934e-07
3.09514e-08
7.99132e-06
-7.47492e-08
1.70511e-09
7.47439e-06
-1.86631e-08
-1.46157e-08
6.62897e-06
2.9779e-08
-2.41908e-08
5.70117e-06
6.28207e-08
-3.15716e-08
4.7867e-06
-3.65986e-08
3.9265e-06
7.91584e-08
-1.17565e-07
-3.2293e-08
1.03311e-05
1.968e-07
-1.36951e-07
1.07312e-07
1.06229e-05
-8.97094e-08
8.30979e-08
9.50524e-06
-1.95223e-08
4.7216e-08
7.91438e-06
3.76016e-08
2.42179e-08
6.56032e-06
7.53824e-08
4.80064e-09
5.41863e-06
-9.20974e-09
4.41295e-06
9.34286e-08
-5.49475e-08
-8.19003e-08
1.29397e-05
2.00031e-07
-1.33699e-07
-4.89382e-08
1.33163e-05
-1.11214e-07
1.15583e-07
1.19829e-05
-2.79844e-08
9.70549e-08
9.33714e-06
4.52192e-08
7.32497e-08
7.31983e-06
8.73798e-08
4.90238e-08
5.92774e-06
2.49365e-08
4.7967e-06
1.07168e-07
-1.78824e-08
1.91574e-07
1.39213e-05
8.98229e-08
-8.57403e-08
5.84288e-08
1.38485e-05
-2.34162e-07
-4.88584e-08
1.30566e-05
-8.34735e-08
5.94064e-08
1.02069e-05
2.94924e-08
8.78016e-08
7.76435e-06
8.70876e-08
8.18367e-08
6.22592e-06
5.42288e-08
5.02654e-06
1.14042e-07
-1.17347e-07
1.55292e-07
1.36625e-05
2.18502e-07
-1.10589e-07
3.10996e-09
1.40721e-05
-1.27847e-07
3.07335e-08
1.2785e-05
-3.65232e-08
1.01827e-07
1.00313e-05
4.45382e-08
1.27402e-07
7.75659e-06
9.29534e-08
1.16689e-07
6.25113e-06
7.88053e-08
5.07118e-06
1.19924e-07
-3.95654e-08
1.12791e-05
1.59049e-07
2.08462e-07
-8.29075e-08
1.19439e-05
1.98586e-07
-8.36188e-08
1.09045e-05
1.69507e-07
-2.99652e-08
8.97825e-06
1.72508e-07
3.98489e-08
7.3232e-06
1.55189e-07
9.03828e-08
6.02574e-06
1.33935e-07
4.93351e-06
1.26377e-07
8.35506e-08
-1.11921e-07
-1.81133e-07
6.50795e-06
1.50614e-07
1.79564e-07
-6.22838e-08
-1.7622e-07
6.43068e-06
1.74195e-07
-6.50999e-09
-1.70858e-07
6.0699e-06
1.63577e-07
3.51097e-08
-1.33437e-07
5.50186e-06
1.34884e-07
6.34706e-08
-1.0458e-07
4.81628e-06
1.08792e-07
7.98694e-08
-8.58796e-08
4.09364e-06
8.89325e-08
-7.26713e-08
3.37823e-06
8.48973e-08
7.3159e-08
-1.51331e-07
-1.75342e-07
7.94407e-06
2.15776e-07
-8.90966e-08
-1.46463e-07
7.89886e-06
-1.05282e-08
-1.64582e-07
7.38905e-06
4.62954e-08
-1.20454e-07
6.55877e-06
7.97806e-08
-8.56987e-08
5.64857e-06
9.74435e-08
-6.88609e-08
4.7518e-06
-5.96987e-08
3.90879e-06
1.01943e-07
-1.74651e-07
-1.53548e-07
1.01892e-05
2.94339e-07
-1.06954e-07
-3.66193e-08
1.04447e-05
3.60641e-08
-1.40797e-07
9.33801e-06
9.46727e-08
-6.55688e-08
7.80014e-06
1.17194e-07
-3.45287e-08
6.48635e-06
1.26913e-07
-3.01894e-08
5.36995e-06
-3.11673e-08
4.3852e-06
1.25976e-07
-1.65732e-07
-1.79413e-07
1.27411e-05
3.89446e-07
-1.13565e-07
-6.8062e-08
1.32951e-05
1.19696e-07
-1.21247e-08
1.16205e-05
1.41625e-07
7.65734e-08
9.17262e-06
1.56237e-07
4.41377e-08
7.22615e-06
1.55843e-07
2.87849e-08
5.8691e-06
1.01974e-08
4.76218e-06
1.48802e-07
4.83485e-08
9.07046e-08
1.33622e-05
2.4027e-07
-8.98722e-08
1.01773e-07
1.38163e-05
-5.15589e-08
2.42711e-07
1.27632e-05
1.09034e-07
8.70787e-08
1.00353e-05
1.55388e-07
1.03942e-07
7.65796e-06
1.62611e-07
8.3259e-08
6.16397e-06
4.99604e-08
4.99005e-06
1.59173e-07
-6.79618e-08
2.63914e-07
1.31418e-05
4.14966e-07
2.35885e-08
2.07088e-07
1.38748e-05
1.33155e-07
3.31251e-07
1.25862e-05
1.38509e-07
2.40057e-07
9.87275e-06
1.57274e-07
1.76339e-07
7.6652e-06
1.61805e-07
1.34533e-07
6.19516e-06
8.3929e-08
5.03822e-06
1.60742e-07
-6.03857e-08
1.11372e-05
2.20023e-07
2.46083e-07
-6.42289e-08
1.18123e-05
3.42205e-07
2.85057e-08
1.07934e-05
3.49243e-07
8.13919e-08
8.88352e-06
2.81677e-07
1.18023e-07
7.25614e-06
2.06583e-07
1.40687e-07
5.98191e-06
1.55693e-07
4.90872e-06
1.56062e-07
9.33029e-08
-1.12018e-07
-1.21089e-07
6.47052e-06
1.36362e-07
1.34182e-07
-6.95065e-08
-1.27186e-07
6.38412e-06
1.30981e-07
-2.06078e-08
-1.25446e-07
6.02164e-06
1.24618e-07
1.84373e-08
-1.05066e-07
5.4598e-06
1.08042e-07
4.63877e-08
-8.71453e-08
4.78441e-06
9.10127e-08
6.41343e-08
-7.50963e-08
4.07391e-06
7.72792e-08
-6.58068e-08
3.37173e-06
7.12237e-08
6.54005e-08
-1.69223e-07
-9.60893e-08
7.88274e-06
2.05251e-07
-1.05524e-07
-1.07526e-07
7.81529e-06
-3.43229e-08
-1.16215e-07
7.30862e-06
2.38077e-08
-9.88255e-08
6.49457e-06
5.81478e-08
-7.28511e-08
5.59991e-06
7.82055e-08
-6.12954e-08
4.71844e-06
-5.54297e-08
3.89124e-06
8.58424e-08
-2.82873e-07
-1.55585e-08
1.00835e-05
3.07718e-07
-1.29394e-07
-4.94333e-08
1.0233e-05
7.41521e-09
-8.64297e-08
9.17142e-06
6.90461e-08
-5.72542e-08
7.69711e-06
9.05725e-08
-2.75507e-08
6.41986e-06
1.03483e-07
-2.82265e-08
5.32417e-06
-3.16312e-08
4.35816e-06
1.06882e-07
-4.93461e-07
1.08599e-07
1.26035e-05
5.0683e-07
-2.12561e-07
2.34687e-07
1.27302e-05
7.7105e-08
1.60222e-07
1.1084e-05
1.13926e-07
7.91816e-08
8.99958e-06
1.25891e-07
4.62609e-08
7.14057e-06
1.28791e-07
2.39708e-08
5.81406e-06
3.98442e-09
4.72856e-06
1.26974e-07
-4.17348e-07
7.43907e-08
1.3275e-05
5.38928e-07
-3.08467e-07
2.5891e-07
1.36832e-05
-3.41095e-08
3.71258e-07
1.22777e-05
8.09391e-08
1.56075e-07
9.84325e-06
1.24533e-07
9.8524e-08
7.56201e-06
1.34902e-07
7.1688e-08
6.10591e-06
3.85183e-08
4.9543e-06
1.36249e-07
-2.64779e-07
2.3426e-07
1.26809e-05
5.65655e-07
-1.75046e-07
3.46754e-07
1.36969e-05
1.79293e-08
3.92428e-07
1.23719e-05
1.0111e-07
2.40426e-07
9.70513e-06
1.23222e-07
1.60268e-07
7.58128e-06
1.3382e-07
1.14521e-07
6.1418e-06
6.73683e-08
5.00533e-06
1.37925e-07
-2.1584e-07
1.11439e-05
2.6719e-07
1.75953e-07
-1.60777e-07
1.17775e-05
3.26006e-07
-2.57508e-08
1.0717e-05
3.33637e-07
4.62764e-08
8.79952e-06
2.52355e-07
9.04724e-08
7.1946e-06
1.77644e-07
1.17184e-07
5.93925e-06
1.30465e-07
4.88314e-06
1.35545e-07
7.45198e-08
-8.56045e-08
-2.36142e-08
6.42213e-06
9.2858e-08
6.46751e-08
-7.43426e-08
-2.66356e-10
6.32717e-06
4.56709e-08
-4.79842e-08
-1.51922e-08
5.96308e-06
4.73552e-08
-1.35458e-08
-3.44228e-08
5.40778e-06
5.2095e-08
1.61673e-08
-4.16911e-08
4.744e-06
5.2453e-08
3.76866e-08
-4.59804e-08
4.04753e-06
5.09963e-08
-4.76071e-08
3.35992e-06
4.91999e-08
4.82489e-08
-1.28511e-07
2.48939e-08
7.81935e-06
1.43164e-07
-1.2809e-07
7.7518e-08
7.73723e-06
-8.73201e-08
2.54957e-08
7.22732e-06
-3.03089e-08
-1.83e-08
6.42158e-06
1.14026e-08
-2.48472e-08
5.54139e-06
4.05156e-08
-3.35243e-08
4.67708e-06
-3.91742e-08
3.86755e-06
5.61027e-08
-2.76339e-07
1.57361e-07
1.00101e-05
2.17295e-07
-1.47571e-07
1.06624e-07
1.0075e-05
-8.34328e-08
7.33312e-08
9.05954e-06
-1.72003e-08
8.57074e-09
7.60453e-06
2.24148e-08
1.01299e-08
6.34558e-06
5.19307e-08
-8.25212e-09
5.26964e-06
-2.15834e-08
4.32419e-06
6.83785e-08
-5.06159e-07
3.43077e-07
1.25284e-05
3.95727e-07
-1.24825e-07
2.56687e-07
1.21992e-05
-7.72115e-08
8.56014e-08
1.10242e-05
-1.31014e-08
6.62981e-08
8.87783e-06
3.02781e-08
5.37176e-08
7.05396e-06
6.2002e-08
2.40066e-08
5.75019e-06
1.87974e-09
4.68739e-06
7.97692e-08
-5.80975e-07
2.28764e-07
1.35733e-05
3.97171e-07
-2.22408e-07
2.5741e-07
1.33239e-05
-1.71726e-07
2.14041e-07
1.20986e-05
-6.69974e-08
1.20795e-07
9.68412e-06
1.63902e-08
5.99104e-08
7.47253e-06
6.15326e-08
4.57302e-08
6.03918e-06
2.21181e-08
4.91068e-06
8.50383e-08
-5.3426e-07
5.64915e-08
1.29794e-05
4.08341e-07
-3.28313e-07
1.81754e-07
1.35664e-05
-1.70591e-07
1.88809e-07
1.22395e-05