/*--------------------------------*- C++ -*----------------------------------*\
| =========                 |                                                 |
| \\      /  F ield         | OpenFOAM: The Open Source CFD Toolbox           |
|  \\    /   O peration     | Version:  plus.master.MPPICInterFoam            |
|   \\  /    A nd           | Web:      www.OpenFOAM.com                      |
|    \\/     M anipulation  |                                                 |
\*---------------------------------------------------------------------------*/
FoamFile
{
    version     2.0;
    format      ascii;
    class       surfaceScalarField;
    location    "9";
    object      alphaPhi;
}
// * * * * * * * * * * * * * * * * * * * * * * * * * * * * * * * * * * * * * //

dimensions      [0 3 -1 0 0 0 0];

internalField   nonuniform List<scalar> 
34018
(
8.97252e-08
6.40046e-06
5.47442e-08
8.37906e-08
2.32951e-07
7.53775e-06
1.31448e-07
6.06455e-06
4.74034e-08
4.01907e-08
8.00673e-06
3.2271e-07
4.36543e-08
6.7555e-06
2.21611e-07
5.48521e-06
4.77241e-08
1.25644e-07
-2.27097e-07
2.56882e-07
8.10588e-06
1.22344e-07
-1.40081e-07
-3.13464e-07
2.74601e-07
8.58068e-06
-2.0646e-07
-3.47678e-07
2.2433e-07
8.48389e-06
-1.99081e-07
-3.71172e-07
2.46733e-07
7.93562e-06
-1.78618e-07
-3.43673e-07
1.66289e-07
6.98632e-06
-1.25745e-07
-2.84233e-07
8.34815e-08
5.89804e-06
-7.18254e-08
4.04964e-08
4.80257e-06
-2.15334e-07
-5.02939e-08
-2.55619e-07
1.51271e-07
8.55063e-06
7.31785e-08
-3.61572e-07
2.82765e-08
8.88342e-06
-4.00414e-07
-6.50559e-08
8.53706e-06
-5.08251e-07
1.10394e-07
8.64327e-06
-4.77957e-07
1.23163e-07
8.13768e-06
-3.73258e-07
5.58986e-08
6.80987e-06
1.94269e-08
5.48735e-06
-2.76382e-07
-4.60701e-07
-1.09652e-07
8.95206e-06
8.82646e-08
-3.50908e-07
-4.51457e-07
7.8854e-06
-2.1312e-07
-4.97653e-07
7.11096e-06
-4.61993e-07
-9.50146e-08
8.51462e-06
-5.58244e-07
4.5593e-09
8.67984e-06
-4.27449e-07
2.86318e-09
7.55944e-06
-5.97709e-09
6.02363e-06
-3.10362e-07
-9.31345e-07
-8.00142e-08
8.70945e-06
2.755e-07
-3.55473e-07
-4.53106e-08
8.4092e-06
5.38386e-08
-5.4765e-08
8.65224e-06
-2.80697e-07
-2.14414e-08
7.34599e-06
-5.23141e-07
-2.41489e-08
9.06048e-06
-4.25715e-07
-1.44813e-08
7.96974e-06
-1.84011e-08
6.31566e-06
-3.09797e-07
-8.78649e-07
-6.53217e-08
8.35802e-06
2.70838e-07
-3.50328e-07
2.94543e-07
8.00418e-06
8.99781e-08
4.13774e-07
8.04648e-06
-2.92866e-07
1.54301e-08
7.77238e-06
-4.94031e-07
-5.34328e-08
9.08566e-06
-3.93922e-07
-2.97342e-08
7.92856e-06
-2.69517e-08
6.2946e-06
-2.79524e-07
-3.70641e-07
-2.07892e-07
8.48685e-06
1.50136e-07
-2.72326e-07
-1.16012e-07
7.15997e-06
-1.65093e-07
-4.73493e-08
6.84443e-06
-3.88921e-07
-1.42649e-07
8.71343e-06
-4.50365e-07
-1.15469e-07
8.63374e-06
-3.36901e-07
-5.12201e-08
7.44584e-06
-3.6209e-08
5.96546e-06
-2.28633e-07
-2.28136e-07
8.8268e-06
1.12134e-07
-1.90575e-07
-3.01945e-07
9.08683e-06
-2.27704e-07
-3.3279e-07
8.77096e-06
-1.96249e-07
-3.92687e-07
8.63204e-06
-1.83161e-07
-3.45883e-07
7.94359e-06
-1.10547e-07
-2.50749e-07
6.65956e-06
-5.02486e-08
5.39845e-06
-1.52e-07
-4.80782e-08
-1.25167e-07
2.43343e-07
8.02178e-06
7.69431e-08
-1.11007e-07
-2.48103e-07
3.87264e-07
8.39895e-06
-2.40031e-07
-3.40952e-07
3.62829e-07
8.27176e-06
-2.51796e-07
-3.54846e-07
3.17991e-07
7.82469e-06
-1.93344e-07
-3.15413e-07
1.98906e-07
6.8747e-06
-1.26644e-07
-2.49535e-07
9.87572e-08
5.8034e-06
-6.99424e-08
4.50853e-08
4.73452e-06
-1.80197e-07
-4.63384e-08
-6.55024e-08
1.41929e-07
7.67104e-06
1.2951e-08
-2.45526e-07
1.92228e-07
7.22478e-06
-3.7486e-07
1.44985e-07
6.86767e-06
-4.96598e-07
1.91135e-07
7.85545e-06
-4.59816e-07
2.0107e-07
7.9263e-06
-3.39123e-07
9.93105e-08
6.68885e-06
3.74647e-08
5.39356e-06
-2.37651e-07
-2.21911e-07
-1.01141e-08
5.75167e-06
-1.95481e-08
-2.06278e-07
-1.32666e-08
5.49364e-06
-1.58095e-07
-2.81536e-08
5.36466e-06
-4.41271e-07
1.64725e-08
6.17383e-06
-5.94942e-07
1.26332e-07
8.03259e-06
-4.17935e-07
6.04785e-08
7.42139e-06
1.61227e-08
5.90735e-06
-2.80001e-07
-3.17038e-07
-4.52968e-08
5.91778e-06
-5.38727e-08
-2.95929e-07
-2.02808e-08
8.72693e-06
-1.23269e-07
3.78314e-08
8.54323e-06
-4.38866e-07
5.27339e-09
5.35128e-06
-7.02698e-07
-3.7774e-08
8.03229e-06
-4.73335e-07
-2.15576e-08
7.8225e-06
-2.2218e-08
6.18422e-06
-3.03417e-07
-2.07385e-07
-9.58317e-08
5.65487e-06
-5.80349e-08
-2.19237e-07
-9.89952e-08
8.61923e-06
-1.57368e-07
-1.11678e-07
8.47436e-06
-4.35947e-07
-1.01783e-07
5.49712e-06
-6.5263e-07
-1.63024e-07
8.17836e-06
-4.35516e-07
-8.55589e-08
7.77525e-06
-5.11057e-08
6.16034e-06
-2.7232e-07
-1.28991e-07
-2.3688e-07
6.54102e-06
7.2986e-09
-1.52613e-07
-3.11889e-07
5.30378e-06
-1.75177e-07
-2.63748e-07
5.28238e-06
-4.3173e-07
-2.60007e-07
6.72504e-06
-5.03391e-07
-2.038e-07
8.15623e-06
-3.4069e-07
-9.64449e-08
7.29405e-06
-5.93543e-08
5.84151e-06
-2.08451e-07
-4.67011e-08
8.40851e-06
6.20224e-09
-2.28768e-07
-2.19454e-07
8.2099e-06
-4.14651e-07
-3.78148e-07
7.74091e-06
-4.16591e-07
-4.31955e-07
8.19007e-06
-2.86029e-07
-3.57487e-07
7.76459e-06
-1.60838e-07
-2.38997e-07
6.52241e-06
-7.7523e-08
5.29463e-06
-1.30086e-07
-6.4356e-08
-1.72668e-07
-1.62554e-07
7.94344e-06
2.19974e-07
1.79055e-07
-2.10258e-07
2.4091e-08
8.2302e-06
9.89437e-08
-2.14448e-07
-8.98553e-10
8.09168e-06
9.62396e-08
-1.57203e-07
-8.23566e-08
7.73324e-06
1.16364e-07
-1.11848e-07
-6.60321e-08
6.79953e-06
9.55909e-08
-7.30021e-08
-6.67366e-08
5.75234e-06
7.92121e-08
-5.94716e-08
4.70674e-06
-4.01844e-08
5.4511e-08
-1.04726e-07
-7.4738e-08
7.47549e-06
2.4819e-07
-1.58432e-07
1.39041e-07
6.78799e-06
-1.82608e-07
9.1727e-08
6.50475e-06
-1.82419e-07
-8.47199e-09
7.58349e-06
-1.42305e-07
-1.17656e-08
7.75635e-06
-8.70124e-08
-3.96275e-08
6.60653e-06
-4.7809e-08
5.34486e-06
-5.0212e-08
-1.25333e-07
-1.50191e-08
5.04727e-06
2.29538e-07
-6.01635e-08
1.30707e-07
5.39607e-06
-1.00774e-07
1.82322e-07
5.28377e-06
-1.21632e-07
1.40509e-08
5.3499e-06
-1.59909e-07
6.17887e-08
7.74611e-06
-9.22087e-08
2.92318e-09
7.3114e-06
-2.37853e-08
5.83922e-06
-4.79995e-08
-2.31277e-08
5.83661e-08
5.59255e-06
1.51962e-08
-1.82976e-07
2.7537e-08
9.32184e-06
-2.70158e-07
2.41562e-09
9.14098e-06
-2.51647e-07
3.33605e-08
5.22691e-06
-2.52985e-07
-3.15754e-08
7.51325e-06
-1.33914e-07
-1.99038e-08
7.69078e-06
-2.22627e-08
6.10288e-06
-5.39609e-08
2.27351e-08
-9.40638e-09
5.63839e-06
9.56951e-08
-1.85001e-07
-1.95007e-07
7.67198e-06
-2.14805e-07
-1.91295e-07
6.37907e-06
-1.50225e-07
-2.20579e-08
5.26255e-06
-1.98289e-07
-2.94485e-08
7.67423e-06
-8.80752e-08
-1.52487e-09
7.64667e-06
-2.80344e-09
6.07764e-06
-2.45808e-08
-8.58828e-08
1.81374e-08
6.08973e-06
2.35438e-07
-8.95953e-08
-1.34463e-07
5.1992e-06
-1.10034e-07
-9.26972e-08
5.18635e-06
-1.31344e-07
8.42412e-09
6.18148e-06
-1.08318e-07
3.65623e-08
7.90675e-06
-3.94995e-08
4.75039e-08
7.17632e-06
2.43442e-08
5.76682e-06
8.19341e-09
-9.8021e-08
8.18707e-06
1.81351e-07
7.90863e-08
-1.69201e-07
7.7076e-06
-2.24431e-08
-2.0949e-07
7.32725e-06
-1.51277e-09
-1.62444e-07
7.97111e-06
7.9152e-08
-8.46579e-08
7.61537e-06
8.2805e-08
-1.5695e-08
6.42887e-06
7.22759e-08
5.2367e-06
3.8443e-08
2.82313e-08
-2.42598e-07
-3.46962e-07
7.87484e-06
3.11971e-07
3.32031e-07
-1.9938e-07
-2.65768e-07
8.13548e-06
3.24192e-07
-1.2963e-07
-2.86669e-07
7.99017e-06
3.29366e-07
-3.59548e-08
-3.24419e-07
7.64557e-06
3.09262e-07
1.60334e-08
-2.38604e-07
6.74547e-06
2.40345e-07
4.34361e-08
-1.86103e-07
5.72638e-06
1.84777e-07
-1.41287e-07
4.70174e-06
5.83726e-08
1.31407e-07
-1.8469e-07
-1.78713e-07
7.48073e-06
3.63938e-07
-1.47391e-07
-3.44027e-09
6.77738e-06
-9.98915e-08
-4.11894e-08
6.56084e-06
-1.6097e-08
-1.68794e-07
7.48995e-06
4.80168e-08
-1.73434e-07
7.641e-06
7.36468e-08
-1.54433e-07
6.54911e-06
-1.22887e-07
5.32245e-06
7.74586e-08
-8.23972e-08
-3.15997e-09
5.46616e-06
3.48085e-07
-8.72519e-08
8.50447e-08
5.29023e-06
-1.00464e-07
3.61459e-08
5.20602e-06
1.92293e-08
-2.06683e-09
5.47282e-06
1.10055e-07
-4.55407e-08
7.59724e-06
1.22437e-07
-7.543e-08
7.21986e-06
-7.46279e-08
5.79999e-06
1.13258e-07
-4.83135e-08
5.77634e-09
5.51924e-06
1.39602e-07
-1.54416e-07
-4.75183e-08
8.06798e-06
-1.28437e-07
-7.14935e-08
6.05076e-06
-6.38318e-08
-7.72825e-09
5.2452e-06
9.28713e-08
-1.30889e-08
7.37976e-06
1.37353e-07
-1.47026e-08
7.57039e-06
-2.42566e-08
6.05346e-06
1.3637e-07
-1.40064e-07
3.35475e-08
5.35267e-06
1.93501e-07
-1.22107e-07
-2.58854e-08
6.09076e-06
-4.62255e-08
-1.32475e-08
5.80507e-06
7.98142e-10
3.82521e-08
5.15387e-06
1.49761e-07
7.89087e-08
7.51824e-06
1.70085e-07
7.40731e-08
7.53762e-06
3.67524e-08
6.02666e-06
1.60207e-07
-1.28955e-07
1.86614e-07
6.19058e-06
4.06959e-07
-8.92731e-08
6.21441e-08
5.05469e-06
-7.57008e-08
7.74232e-08
4.97907e-06
6.55865e-08
2.30948e-07
6.2837e-06
1.54684e-07
2.04529e-07
7.76719e-06
1.69748e-07
1.51936e-07
7.08347e-06
8.57157e-08
5.72317e-06
1.64638e-07
-2.04116e-07
8.0755e-06
3.29669e-07
2.77872e-07
-1.47783e-07
7.58344e-06
3.02777e-07
-8.33638e-08
7.24956e-06
3.30799e-07
2.95328e-08
7.85857e-06
3.26902e-07
1.05469e-07
7.50349e-06
2.48536e-07
1.42366e-07
6.36697e-06
1.76968e-07
5.20758e-06
1.62425e-07
9.48409e-08
-2.76261e-07
-3.95055e-07
7.83609e-06
3.35095e-07
3.71078e-07
-1.88941e-07
-4.15023e-07
8.07069e-06
4.00551e-07
-8.77067e-08
-4.17983e-07
7.91674e-06
4.02645e-07
5.1267e-09
-3.88721e-07
7.57224e-06
3.55232e-07
5.48692e-08
-2.89229e-07
6.70676e-06
2.78006e-07
8.05322e-08
-2.24259e-07
5.70787e-06
2.16982e-07
-1.70648e-07
4.70026e-06
9.37152e-08
1.58766e-07
-2.62244e-07
-3.08904e-07
7.4739e-06
4.13324e-07
-1.44931e-07
-1.50531e-07
6.92986e-06
-5.29291e-08
-1.62673e-07
6.69805e-06
4.96899e-08
-2.94073e-07
7.48156e-06
1.03517e-07
-2.41888e-07
7.56381e-06
1.19888e-07
-1.98671e-07
6.5068e-06
-1.5335e-07
5.30566e-06
1.19115e-07
-1.73121e-07
-8.9372e-08
6.46083e-06
5.02481e-07
-9.73582e-08
-5.38491e-08
5.10036e-06
-2.08187e-08
-7.01438e-08
5.02472e-06
1.33808e-07
-9.69296e-08
6.18064e-06
1.99254e-07
-1.1196e-07
7.59488e-06
1.85896e-07
-1.16498e-07
7.15073e-06
-1.00893e-07
5.76825e-06
1.64824e-07
-2.23406e-07
5.56245e-09
5.41448e-06
3.50539e-07
-1.33541e-07
-9.75648e-10
6.15797e-06
-3.5198e-08
1.71887e-08
5.84882e-06
1.17448e-07
1.37485e-08
5.15574e-06
2.55095e-07
3.76091e-09
7.45222e-06
2.31261e-07
-1.11859e-08
7.47502e-06
-2.95706e-08
6.01177e-06
2.01288e-07
-1.63727e-07
1.23431e-07
5.59092e-06
4.49406e-07
-1.06737e-07
4.58249e-08
5.8242e-06
-4.34113e-08
5.63355e-08
5.73388e-06
1.42926e-07
1.38984e-07
5.41374e-06
2.77106e-07
1.31553e-07
7.55957e-06
2.50074e-07
9.88114e-08
7.4429e-06
4.44295e-08
5.98263e-06
2.19906e-07
-2.41533e-07
2.69377e-07
6.47967e-06
5.01718e-07
-8.64398e-08
2.30367e-07
5.06696e-06
9.3109e-11
2.49542e-07
5.02797e-06
1.62814e-07
3.22242e-07
6.63202e-06
2.28356e-07
2.49228e-07
7.70686e-06
2.2671e-07
1.7458e-07
7.00912e-06
9.53184e-08
5.68577e-06
2.13141e-07
-2.54157e-07
8.04045e-06
3.78272e-07
3.32647e-07
-1.3938e-07
7.66316e-06
4.18369e-07
-2.94427e-08
7.39255e-06
4.40047e-07
9.07905e-08
7.80134e-06
3.80246e-07
1.57264e-07
7.41807e-06
2.78285e-07
1.88073e-07
6.3163e-06
1.94249e-07
5.18258e-06
2.04218e-07
1.04049e-07
-2.57096e-07
-3.35108e-07
7.80648e-06
2.95896e-07
3.28233e-07
-1.75904e-07
-3.77868e-07
7.99282e-06
3.54477e-07
-8.1982e-08
-3.74546e-07
7.82995e-06
3.51314e-07
-8.15602e-09
-3.20498e-07
7.5048e-06
3.00541e-07
3.56617e-08
-2.44529e-07
6.66587e-06
2.41236e-07
6.61204e-08
-2.00436e-07
5.68176e-06
1.9577e-07
-1.60236e-07
4.69046e-06
8.74328e-08
1.48456e-07
-2.70497e-07
-2.76272e-07
7.37663e-06
3.65565e-07
-1.42257e-07
-2.91032e-07
6.91071e-06
-4.46436e-08
-2.91826e-07
6.66408e-06
1.86664e-08
-2.568e-07
7.40036e-06
6.53942e-08
-2.11294e-07
7.4919e-06
9.16018e-08
-1.82519e-07
6.4622e-06
-1.47765e-07
5.28065e-06
1.03871e-07
-3.32193e-07
-1.71422e-07
6.3764e-06
4.5867e-07
-1.03354e-07
-1.34911e-07
5.42253e-06
3.07706e-08
-1.30098e-07
5.3623e-06
1.04952e-07
-1.43417e-07
6.09059e-06
1.47606e-07
-1.19383e-07
7.51146e-06
1.45133e-07
-1.17637e-07
7.08702e-06
-1.05315e-07
5.72931e-06
1.41253e-07
-2.4362e-07
-4.90906e-09
5.89208e-06
4.71872e-07
-1.09586e-07
-8.77629e-09
5.7226e-06
3.02352e-08
4.10283e-09
5.57693e-06
1.5203e-07
1.13732e-08
5.66192e-06
2.15616e-07
-4.62118e-09
7.45208e-06
1.92674e-07
-2.23629e-08
7.37054e-06
-4.08089e-08
5.96319e-06
1.76471e-07
-2.50108e-07
1.42926e-07
6.0289e-06
4.9786e-07
-9.82343e-08
1.34797e-07
5.5555e-06
4.48665e-08
1.39755e-07
5.454e-06
1.77416e-07
1.60895e-07
5.93823e-06
2.31602e-07
1.13551e-07
7.50851e-06
2.09596e-07
7.48711e-08
7.33722e-06
2.45845e-08
5.93178e-06
1.94843e-07
-2.79918e-07
2.25368e-07
6.40965e-06
4.54459e-07
-8.88976e-08
2.64035e-07
5.40567e-06
3.09857e-08
2.78615e-07
5.37645e-06
1.31347e-07
2.60647e-07
6.55744e-06
1.81009e-07
1.96455e-07
7.60628e-06
1.90252e-07
1.36112e-07
6.93846e-06
6.71466e-08
5.64092e-06
1.92326e-07
-2.46897e-07
7.98463e-06
3.40425e-07
2.78224e-07
-1.31595e-07
7.60359e-06
3.66032e-07
-2.48731e-08
7.3073e-06
3.78313e-07
6.64119e-08
7.70726e-06
3.0439e-07
1.26822e-07
7.33747e-06
2.19037e-07
1.66118e-07
6.26086e-06
1.52034e-07
5.14882e-06
1.93158e-07
7.36828e-08
-2.00253e-07
-2.353e-07
7.75206e-06
2.21495e-07
2.4901e-07
-1.53919e-07
-2.40307e-07
7.88699e-06
2.48551e-07
-1.00386e-07
-2.27043e-07
7.71398e-06
2.37362e-07
-5.0537e-08
-1.97141e-07
7.42209e-06
2.04133e-07
-8.6925e-09
-1.62158e-07
6.61329e-06
1.72791e-07
3.0919e-08
-1.51593e-07
5.64203e-06
1.51535e-07
-1.32308e-07
4.66843e-06
6.41992e-08
1.20822e-07
-2.00169e-07
-1.5552e-07
7.32472e-06
2.59206e-07
-1.23905e-07
-1.61668e-07
6.91022e-06
-7.48214e-08
-1.48499e-07
6.65019e-06
-4.98962e-08
-1.3414e-07
7.3134e-06
-8.68922e-09
-1.35655e-07
7.39023e-06
3.45129e-08
-1.38772e-07
6.40598e-06
-1.25463e-07
5.24265e-06
6.56069e-08
-2.4209e-07
-1.29329e-07
5.88546e-06
2.87396e-07
-9.32797e-08
-2.41013e-07
5.45448e-06
-1.51036e-08
-2.00163e-07
5.36339e-06
-1.28342e-09
-9.71419e-08
5.92579e-06
3.63073e-08
-8.6289e-08
7.42194e-06
6.49297e-08
-9.66329e-08
7.01443e-06
-9.71537e-08
5.67786e-06
8.80322e-08
-3.40327e-07
-1.56063e-08
6.23841e-06
3.08317e-07
-7.38259e-08
-2.25296e-08
6.87018e-06
3.02588e-08
-1.57966e-08
6.48791e-06
3.7351e-08
-5.68035e-09
5.95069e-06
7.86846e-08
-2.28958e-08
7.41051e-06
9.65481e-08
-3.82915e-08
7.2491e-06
-5.34973e-08
5.90249e-06
1.13677e-07
-3.32263e-07
6.50266e-08
6.06969e-06
3.32475e-07
-5.7699e-08
1.5861e-07
6.40098e-06
5.47017e-08
1.42108e-07
6.29351e-06
6.19953e-08
7.16235e-08
5.86246e-06
1.01058e-07
4.96418e-08
7.41643e-06
1.1618e-07
2.63608e-08
7.21775e-06
-7.43944e-09
5.86855e-06
1.33348e-07
-2.07855e-07
1.19854e-07
6.35931e-06
3.26768e-07
-7.78077e-08
1.32394e-07
5.44441e-06
-1.00115e-08
1.30596e-07
5.34312e-06
3.48364e-08
1.31505e-07
6.52265e-06
8.11013e-08
9.91078e-08
7.4786e-06
1.15556e-07
7.02451e-08
6.86014e-06
2.34378e-08
5.583e-06
1.42527e-07
-1.84406e-07
7.91014e-06
2.48157e-07
1.69178e-07
-1.15525e-07
7.52456e-06
2.14178e-07
-5.78817e-08
7.21115e-06
2.14265e-07
2.66175e-09
7.60898e-06
1.70379e-07
6.26268e-08
7.24152e-06
1.22759e-07
1.16e-07
6.19259e-06
8.5107e-08
5.10159e-06
1.58978e-07
2.76634e-08
-1.43427e-07
-1.38081e-07
7.6384e-06
1.45542e-07
1.66267e-07
-1.36441e-07
-1.10382e-07
7.71726e-06
1.38328e-07
-1.23506e-07
-9.73837e-08
7.53151e-06
1.26241e-07
-9.38525e-08
-8.62254e-08
7.31186e-06
1.13867e-07
-5.19708e-08
-8.51912e-08
6.54839e-06
1.08557e-07
-5.73674e-10
-1.0683e-07
5.5867e-06
1.11084e-07
-1.07077e-07
4.63378e-06
4.57002e-08
9.56517e-08
-1.23592e-07
-8.19953e-08
7.26732e-06
1.55399e-07
-1.05458e-07
-2.95233e-08
6.93779e-06
-1.0014e-07
-2.46631e-08
6.63283e-06
-1.1039e-07
-3.96545e-08
7.18814e-06
-8.19927e-08
-6.25847e-08
7.23183e-06
-1.73153e-08
-9.93531e-08
6.3342e-06
-1.04782e-07
5.19003e-06
3.32597e-08
-9.907e-08
-4.37884e-08
5.85381e-06
1.69634e-07
-4.84197e-08
-5.52327e-08
5.10874e-06
-3.7454e-08
-1.31515e-09
4.9954e-06
-5.99278e-08
-7.32081e-09
5.93268e-06
-6.28247e-08
-4.51185e-08
7.21453e-06
-6.94253e-09
-7.57351e-08
6.92591e-06
-8.75993e-08
5.61136e-06
4.2814e-08
-7.7183e-08
-1.11653e-08
6.38782e-06
1.38568e-07
-3.67647e-08
-8.08074e-10
6.64613e-06
-3.9743e-08
-1.319e-08
6.28749e-06
-5.4747e-08
-1.92096e-08
5.72924e-06
-5.00642e-08
-3.61098e-08
7.29209e-06
6.86191e-09
-5.07243e-08
7.12267e-06
-6.34917e-08
5.82688e-06
5.88078e-08
-8.33194e-08
-5.53047e-09
6.09098e-06
1.6514e-07
-6.08705e-08
-2.45986e-08
6.42453e-06
-3.70158e-08
-2.38409e-08
5.45842e-06
-4.36573e-08
-2.18475e-08
5.72202e-06
-3.17768e-08
-1.89332e-08
7.2947e-06
2.79461e-08
-1.96503e-08
7.09658e-06
-3.58126e-08
5.79027e-06
7.88114e-08
-9.80501e-08
1.29925e-08
6.53827e-06
2.00927e-07
-6.20583e-08
-1.02179e-08
5.35414e-06
-4.84386e-08
-4.51089e-09
5.25177e-06
-4.83755e-08
3.04871e-09
6.56027e-06
-2.1179e-08
1.3803e-09
7.24646e-06
4.53318e-08
8.6443e-09
6.76556e-06
-1.48275e-08
5.50952e-06
9.79658e-08
-1.1388e-07
7.7472e-06
1.48608e-07
5.12489e-08
-1.05157e-07
7.42488e-06
5.12299e-08
-9.32823e-08
7.08279e-06
5.02289e-08
-6.35208e-08
7.43021e-06
3.93392e-08
-2.79566e-09
7.11859e-06
2.93475e-08
6.80588e-08
6.10691e-06
2.36556e-08
5.03982e-06
1.27992e-07
-1.28944e-08
-1.14986e-07
-3.52792e-08
7.44635e-06
9.16825e-08
1.00585e-07
-1.38879e-07
-1.46189e-09
7.41362e-06
5.66725e-08
-1.42136e-07
-1.83822e-08
7.22489e-06
5.9757e-08
-1.16926e-07
-2.36805e-08
7.16371e-06
6.96902e-08
-6.37918e-08
-5.00921e-08
6.46036e-06
8.5324e-08
1.75764e-09
-9.35496e-08
5.5132e-06
1.01724e-07
-1.02592e-07
4.58978e-06
5.63455e-08
9.22409e-08
-9.73284e-08
-5.12555e-08
6.90687e-06
6.75545e-08
-1.24986e-07
-1.79186e-08
6.78252e-06
-1.31987e-07
-4.68414e-08
6.39015e-06
-1.57261e-07
-3.21998e-08
6.74584e-06
-1.21848e-07
-3.27734e-08
6.96775e-06
-2.85231e-08
-8.9543e-08
6.23728e-06
-1.02187e-07
5.12316e-06
3.82187e-08
-8.79806e-08
-5.95673e-08
5.92962e-06
1.20099e-07
-6.43983e-08
-9.38676e-09
5.07696e-06
-5.25458e-08
-3.03771e-08
4.96729e-06
-9.02806e-08
-6.80352e-09
5.83746e-06
-1.1654e-07
-3.42753e-08
6.64998e-06
-2.75187e-08
-7.59521e-08
6.7998e-06
-8.88978e-08
5.52794e-06
4.30469e-08
-8.86448e-08
-4.03036e-08
6.62685e-06
1.38417e-07
-6.76434e-08
-5.01146e-08
6.25034e-06
-3.6763e-08
-2.8774e-08
5.66004e-06
-7.08572e-08
-3.02172e-08
5.19841e-06
-1.04271e-07
-4.9826e-08
6.82253e-06
-1.73876e-08
-6.02483e-08
6.98527e-06
-7.01229e-08
5.73424e-06
5.67772e-08
-1.14337e-07
-2.56328e-08
6.1608e-06
1.76145e-07
-8.51794e-08
-2.69663e-08
5.48763e-06
-5.66824e-08
-3.69922e-08
5.41915e-06
-6.61822e-08
-3.52692e-08
5.46449e-06
-8.63144e-08
-5.6431e-08
6.80988e-06
4.7786e-09
-4.06509e-08
6.96608e-06
-4.74003e-08
5.69627e-06
7.61853e-08
-9.09413e-08
-4.06144e-08
6.50781e-06
1.60549e-07
-6.72095e-08
-3.96114e-08
5.26073e-06
-5.86393e-08
-3.15674e-08
5.15567e-06
-8.36563e-08
-4.0273e-08
6.39885e-06
-6.93976e-08
-4.67203e-08
6.7874e-06
2.82854e-08
-1.75432e-08
6.64488e-06
-2.93463e-08
5.42213e-06
9.76747e-08
-8.9244e-08
7.35661e-06
9.34161e-08
-2.51631e-08
-1.08869e-07
7.06581e-06
-3.87697e-08
-1.16552e-07
6.71458e-06
-3.60006e-08
-9.80525e-08
7.03599e-06
-3.06653e-08
-2.62326e-08
6.94964e-06
-1.32256e-08
6.15653e-08
6.00153e-06
1.07041e-10
4.96762e-06
1.31339e-07
-2.689e-08
-1.15673e-07
-6.0503e-08
7.25203e-06
1.07412e-07
1.65571e-07
-1.2444e-07
-3.0553e-08
7.10149e-06
1.29957e-07
-1.05909e-07
-6.48859e-08
6.94734e-06
1.44935e-07
-5.11096e-08
-1.00435e-07
7.00016e-06
1.59872e-07
1.82172e-08
-1.28544e-07
6.35662e-06
1.62896e-07
8.13283e-08
-1.48018e-07
5.44066e-06
1.57305e-07
-1.39233e-07
4.55553e-06
1.24089e-07
1.30746e-07
-1.15803e-07
-4.29551e-08
5.7464e-06
9.68386e-08
-1.33384e-07
-5.06902e-08
5.45528e-06
-1.0683e-07
-7.99704e-08
5.20043e-06
-9.53322e-08
-8.25793e-08
5.87146e-06
-2.17455e-08
-8.60726e-08
6.69947e-06
6.9656e-08
-1.31941e-07
6.12992e-06
-1.30574e-07
5.06221e-06
1.21996e-07
-1.48881e-07
-4.30878e-08
5.25963e-06
1.72921e-07
-1.11307e-07
-6.20517e-08
5.04986e-06
-6.344e-08
-7.96458e-08
4.918e-06
-5.5991e-08
-7.03484e-08
5.13775e-06
-1.78909e-08
-5.80687e-08
6.06337e-06
8.22226e-08
-9.89859e-08
6.66086e-06
-1.04917e-07
5.44669e-06
1.37906e-07
-3.1364e-07
-3.84325e-08
6.08552e-06
2.58878e-07
-1.59775e-07
-3.31585e-08
5.81357e-06
-5.65167e-08
-2.05319e-08
5.49918e-06
-3.55239e-08
-1.97224e-08
4.83357e-06
-5.36528e-09
-4.30193e-08
5.90533e-06
1.01374e-07
-5.8526e-08
6.83809e-06
-6.81274e-08
5.64193e-06
1.56826e-07
-2.25498e-07
-1.93153e-08
5.73433e-06
2.5992e-07
-1.43872e-07
-1.44221e-08
5.38216e-06
-6.37978e-08
-1.38693e-09
5.31208e-06
-3.36474e-08
-2.51087e-09
4.8096e-06
1.26756e-08
-2.53428e-08
5.98908e-06
1.17815e-07
-1.55697e-08
6.81921e-06
-3.01943e-08
5.60337e-06
1.72768e-07
-1.82482e-07
-2.97688e-08
5.89429e-06
1.95602e-07
-1.0033e-07
-1.93473e-08
4.81083e-06
-4.51597e-08
-7.66885e-09
4.79677e-06
-4.3367e-08
-3.33052e-09
5.47534e-06
3.16586e-08
7.05354e-09
6.40321e-06
1.28423e-07
2.2014e-08
6.51048e-06
-2.27226e-09
5.33906e-06
1.83582e-07
-1.04618e-07
6.76048e-06
1.19033e-07
2.99586e-08
-1.0743e-07
6.19167e-06
2.44256e-08
-8.28439e-08
5.97658e-06
3.5369e-08
-3.27436e-08
6.53232e-06
4.74176e-08
6.17225e-08
6.76726e-06
5.3135e-08
1.45545e-07
5.89336e-06
4.63511e-08
4.90394e-06
2.01205e-07
5.77153e-09
-1.28465e-07
-2.74011e-07
7.14626e-06
1.94722e-07
3.77641e-07
-7.85601e-08
-2.17423e-07
6.96611e-06
3.80398e-07
6.76479e-09
-2.57323e-07
6.81864e-06
3.93428e-07
1.09869e-07
-3.20958e-07
6.87621e-06
3.72202e-07
1.76029e-07
-2.95975e-07
6.27084e-06
3.13134e-07
2.12938e-07
-2.50044e-07
5.39995e-06
2.53927e-07
-2.00523e-07
4.55214e-06
2.24411e-07
1.9264e-07
-1.34965e-07
-1.22171e-07
5.40978e-06
2.40285e-07
-7.5541e-08
-8.29329e-08
4.72903e-06
-1.42905e-08
-1.34818e-07
4.7772e-06
9.23724e-08
-1.57363e-07
5.63012e-06
2.01325e-07
-1.99181e-07
6.56055e-06
2.46618e-07
-2.12829e-07
6.04763e-06
-1.78229e-07
5.03297e-06
2.53797e-07
-1.91663e-07
-5.76761e-08
4.71393e-06
2.66508e-07
-1.01636e-07
-7.43169e-08
4.95017e-06
-3.80854e-09
-1.08665e-07
4.79789e-06
6.86605e-08
-8.24686e-08
4.27986e-06
2.45615e-07
-9.67663e-08
5.94356e-06
2.9289e-07
-1.35455e-07
6.55056e-06
-1.27586e-07
5.39585e-06
2.93078e-07
-3.90582e-07
2.45891e-09
5.15653e-06
2.97931e-07
-2.10163e-07
2.0516e-08
6.17343e-06
-7.53613e-09
2.54695e-08
5.94137e-06
4.43236e-08
-2.39922e-09
4.6644e-06
2.54972e-07
-2.41519e-08
5.72422e-06
3.23527e-07
-4.74766e-08
6.72608e-06
-6.1885e-08
5.57835e-06
3.2139e-07
-2.43139e-07
4.96514e-08
4.98856e-06
3.31471e-07
-1.53719e-07
5.44452e-08
5.25584e-06
-9.64366e-09
9.33351e-08
5.56035e-06
8.19788e-08
6.49996e-08
4.58105e-06
2.75971e-07
5.5192e-08
5.81393e-06
3.35867e-07
4.38249e-08
6.70547e-06
4.34108e-09
5.53959e-06
3.33598e-07
-2.08906e-07
1.00785e-07
4.66206e-06
2.81511e-07
-8.67345e-08
9.65205e-08
4.64163e-06
-4.63625e-09
1.22507e-07
4.54408e-06
1.06366e-07
1.47306e-07
4.89144e-06
2.71983e-07
1.46711e-07
6.27018e-06
3.20615e-07
1.11402e-07
6.39429e-06
5.2289e-08
5.28669e-06
3.25257e-07
-1.18268e-07
6.57681e-06
2.05926e-07
2.32727e-07
-6.16483e-08
5.87806e-06
2.62962e-07
1.62107e-08
5.7721e-06
2.75186e-07
1.43961e-07
6.36392e-06
2.68788e-07
2.45392e-07
6.63198e-06
2.04303e-07
2.95591e-07
5.8137e-06
1.4099e-07
4.8716e-06
3.12241e-07
6.81891e-08
-1.33742e-07
-5.01188e-07
7.14064e-06
2.5532e-07
5.41092e-07
-2.15507e-08
-4.37255e-07
7.00145e-06
5.86849e-07
1.06672e-07
-4.669e-07
6.87542e-06
5.81242e-07
2.29331e-07
-5.07611e-07
6.8271e-06
5.09799e-07
2.75684e-07
-4.02528e-07
6.23197e-06
3.95694e-07
2.86691e-07
-3.07722e-07
5.39651e-06
3.0048e-07
-2.306e-07
4.57497e-06
2.7538e-07
2.19196e-07
-1.45139e-07
-1.8346e-07
5.66745e-06
3.42953e-07
-2.39425e-08
-1.14043e-07
4.91705e-06
1.00937e-07
-1.41716e-07
5.11216e-06
2.70292e-07
-2.54522e-07
5.84034e-06
3.56199e-07
-2.94584e-07
6.57526e-06
3.51744e-07
-2.66926e-07
6.01145e-06
-2.05217e-07
5.03649e-06
3.23107e-07
-1.35934e-07
-8.69189e-08
4.51104e-06
2.41682e-07
-4.00253e-08
-4.53023e-08
4.78928e-06
4.25488e-08
-4.80548e-08
4.62036e-06
2.43906e-07
-7.61431e-08
4.41343e-06
4.5889e-07
-1.36359e-07
6.22729e-06
4.28125e-07
-1.65056e-07
6.49789e-06
-1.42417e-07
5.38169e-06
3.79458e-07
-1.55298e-07
2.95246e-08
4.97014e-06
2.03771e-07
-6.21802e-08
4.38778e-08
6.04343e-06
3.24836e-08
4.22867e-08
5.77181e-06
1.82912e-07
1.56546e-08
4.53078e-06
4.83744e-07
-1.40795e-08
6.04496e-06
4.73396e-07
-4.28827e-08
6.70858e-06
-5.98858e-08
5.55303e-06
4.16303e-07
-1.59558e-07
8.92473e-08
4.83133e-06
2.62986e-07
-7.71924e-08
1.05122e-07
5.11059e-06
5.51028e-08
1.42509e-07
5.01681e-06
1.73383e-07
8.64684e-08
4.35415e-06
5.01542e-07
1.14792e-07
6.0892e-06
4.82774e-07
7.99219e-08
6.66861e-06
2.28799e-08
5.51331e-06
4.26509e-07
-1.19693e-07
2.45938e-07
4.64635e-06
3.41831e-07
-3.71971e-08
1.72158e-07
4.49725e-06
6.08107e-08
1.92802e-07
4.39023e-06
2.97071e-07
2.92995e-07
4.94281e-06
4.64524e-07
2.48937e-07
6.44651e-06
4.46741e-07
1.65375e-07
6.32685e-06
8.18399e-08
5.26948e-06
4.05229e-07
-1.11848e-07
6.61546e-06
2.721e-07
4.17208e-07
1.1587e-09
5.96244e-06
4.84342e-07
1.32981e-07
5.93105e-06
4.91248e-07
3.03907e-07
6.45954e-06
4.38899e-07
3.79711e-07
6.5816e-06
3.01801e-07
3.89029e-07
5.77596e-06
1.93941e-07
4.86958e-06
3.72291e-07
1.0074e-07
-1.09319e-07
-5.39988e-07
7.15748e-06
2.13974e-07
4.87566e-07
2.86667e-09
-5.42628e-07
7.10545e-06
5.2731e-07
1.1073e-07
-5.25784e-07
6.93868e-06
5.00549e-07
1.96919e-07
-4.4103e-07
6.82442e-06
4.14409e-07
2.26578e-07
-3.25972e-07
6.21924e-06
3.1212e-07
2.36769e-07
-2.50261e-07
5.39938e-06
2.37418e-07
-1.89143e-07
4.59389e-06
2.32257e-07
1.74637e-07
-1.24671e-07
-3.36429e-07
6.62987e-06
3.03584e-07
5.14326e-09
-1.86049e-07
6.57036e-06
1.32217e-07
-1.82912e-07
6.48907e-06
2.40531e-07
-3.08725e-07
6.21587e-06
2.88972e-07
-2.68701e-07
6.65166e-06
2.83007e-07
-2.30606e-07
5.99745e-06
-1.76765e-07
5.04224e-06
2.6462e-07
-6.38125e-08
-1.08264e-07
5.45762e-06
3.47942e-07
1.08037e-08
-8.84125e-08
4.61794e-06
7.97955e-08
-8.23042e-08
4.45198e-06
3.11236e-07
-1.04341e-07
5.88928e-06
3.92513e-07
-1.5207e-07
6.5152e-06
3.50403e-07
-1.5719e-07
6.466e-06
-1.31305e-07
5.37508e-06
3.11363e-07
-5.24356e-08
-3.82532e-09
4.83056e-06
2.40889e-07
2.98379e-09
1.99977e-08
5.90235e-06
1.00285e-07
1.94996e-09
5.63137e-06
2.86968e-07
-3.68803e-09
5.08352e-06
4.5094e-07
-3.23155e-08
6.65949e-06
3.96913e-07
-5.5726e-08
6.69403e-06
-6.5491e-08
5.53794e-06
3.46185e-07
-5.92622e-08
1.04325e-07
4.79685e-06
2.81214e-07
1.86597e-08
8.89686e-08
4.97208e-06
1.15047e-07
9.47613e-08
4.82579e-06
3.20269e-07
1.0802e-07
5.15221e-06
4.64965e-07
8.99091e-08
6.61317e-06
4.08647e-07
4.85641e-08
6.63616e-06
2.33581e-09
5.49609e-06
3.58007e-07
-8.53696e-08
2.81798e-07
5.68016e-06
3.54415e-07
1.13361e-08
2.20669e-07
4.41457e-06
1.45828e-07
2.76958e-07
4.68075e-06
3.51555e-07
2.89662e-07
6.10396e-06
4.10271e-07
1.94386e-07
6.65317e-06
3.78661e-07
1.17803e-07
6.28924e-06
4.95752e-08
5.25784e-06
3.43085e-07
-9.4149e-08
6.97178e-06
2.34233e-07
3.7109e-07
3.70701e-08
6.78165e-06
4.69113e-07
1.6303e-07
6.59617e-06
4.57845e-07
2.8836e-07
6.73417e-06
3.57808e-07
3.30762e-07
6.58799e-06
2.28661e-07
3.33042e-07
5.75253e-06
1.38926e-07
4.86784e-06
3.21365e-07
6.30033e-08
-5.84103e-08
-2.1837e-07
7.10741e-06
7.94319e-08
2.39141e-07
-1.77473e-08
-2.46912e-07
7.06835e-06
2.28659e-07
2.33368e-08
-2.11652e-07
6.88766e-06
2.02787e-07
5.77423e-08
-1.3681e-07
6.78521e-06
1.58797e-07
9.06183e-08
-1.23293e-07
6.18194e-06
1.30323e-07
1.23374e-07
-1.20551e-07
5.37165e-06
1.15534e-07
-1.067e-07
4.58536e-06
1.44928e-07
9.37565e-08
-9.43749e-08
-2.8108e-07
6.47253e-06
1.00812e-07
-3.00254e-08
-2.14514e-07
6.82293e-06
3.92669e-09
-2.04725e-07
6.50148e-06
1.96857e-08
-1.63224e-07
6.09225e-06
7.11089e-08
-1.18692e-07
6.61611e-06
1.16572e-07
-1.26205e-07
5.95756e-06
-1.10613e-07
5.0196e-06
1.43258e-07
-7.55196e-08
-1.70186e-07
7.11383e-06
2.48321e-07
-1.33088e-08
-1.05752e-07
5.008e-06
3.82813e-08
-7.87363e-08
5.37523e-06
8.22717e-08
-1.05249e-07
6.29601e-06
1.00726e-07
-1.05958e-07
6.42505e-06
1.39186e-07
-1.10199e-07
6.41419e-06
-9.80768e-08
5.34096e-06
1.60861e-07
-4.13015e-08
-7.48852e-08
6.50083e-06
2.89411e-07
-1.38163e-08
-4.92201e-08
5.22146e-06
3.36891e-08
-5.03139e-08
4.94353e-06
1.17799e-07
-5.55136e-08
5.52065e-06
1.43448e-07
-6.83969e-08
6.5963e-06
1.68241e-07
-7.30799e-08
6.63523e-06
-7.09035e-08
5.49617e-06
1.82896e-07
-2.12003e-08
1.58359e-08
6.91215e-06
3.12192e-07
-1.65827e-08
-1.6068e-08
4.93401e-06
3.72456e-08
-1.03912e-08
4.73092e-06
1.45032e-07
2.76803e-09
5.72717e-06
1.66086e-07
-2.41861e-08
6.52499e-06
1.86497e-07
-2.65725e-08
6.57103e-06
-3.93415e-08
5.45257e-06
1.98421e-07
-8.02357e-08
7.61298e-08
6.30563e-06
2.15431e-07
1.07166e-09
9.78982e-08
5.20145e-06
8.44548e-08
9.81339e-08
5.52332e-06
1.30717e-07
5.05445e-08
6.16454e-06
1.59061e-07
1.53051e-08
6.57754e-06
1.87024e-07
6.04027e-09
6.2288e-06
-1.77912e-08
5.21957e-06
2.03754e-07
-5.2328e-08
6.95483e-06
9.0762e-08
1.1556e-07
9.4645e-09
6.888e-06
1.55592e-07
6.06263e-08
6.57494e-06
1.38758e-07
1.10987e-07
6.67732e-06
8.11654e-08
1.54098e-07
6.53242e-06
4.24673e-08
1.89403e-07
5.7025e-06
2.08199e-08
4.83965e-06
2.1309e-07
-1.31569e-08
-1.56219e-08
-1.21544e-08
6.97085e-06
-1.06693e-08
1.03947e-07
-1.7894e-08
-1.0702e-09
6.88618e-06
6.14272e-08
-5.81684e-09
2.38263e-09
6.71666e-06
4.7995e-08
1.05959e-08
1.62285e-08
6.69416e-06
3.5996e-08
4.86297e-08
-1.97541e-08
6.11656e-06
4.7422e-08
8.88551e-08
-5.50303e-08
5.32669e-06
5.97921e-08
-6.48368e-08
4.56674e-06
1.15982e-07
5.66484e-08
-5.49141e-08
-4.57619e-08
5.29792e-06
-1.19506e-08
-7.47722e-08
-1.06493e-07
6.08925e-06
-7.76489e-08
-8.87653e-08
5.51031e-06
-7.37123e-08
-1.13538e-08
5.40955e-06
-1.21947e-08
-2.83799e-08
6.48578e-06
6.04103e-08
-6.45956e-08
5.89534e-06
-7.18059e-08
4.98445e-06
1.03378e-07
-1.80207e-07
-1.32452e-07
6.36598e-06
4.7508e-08
-7.64334e-08
-1.47429e-07
5.12645e-06
-3.40119e-08
-1.28566e-07
5.2965e-06
-6.17463e-08
-8.75289e-08
5.49363e-06
-2.42352e-08
-6.24433e-08
6.00751e-06
5.81185e-08
-7.38136e-08
6.34124e-06
-7.27459e-08
5.29346e-06
1.06989e-07
-2.26988e-07
-9.94194e-08
6.24794e-06
1.74699e-07
-1.02069e-07
-9.06896e-08
5.03978e-06
-1.97717e-10
-7.59649e-08
4.85072e-06
-2.53458e-08
-6.32315e-08
5.27708e-06
-7.4006e-10
-6.67712e-08
6.16654e-06
7.43604e-08
-6.66687e-08
6.55386e-06
-6.38123e-08
5.44171e-06
1.20177e-07
-1.84118e-07
-6.64666e-08
6.68622e-06
1.74792e-07
-7.82071e-08
-1.90346e-08
4.75662e-06
9.08186e-09
-2.25399e-08