/*--------------------------------*- C++ -*----------------------------------*\
| =========                 |                                                 |
| \\      /  F ield         | OpenFOAM: The Open Source CFD Toolbox           |
|  \\    /   O peration     | Version:  plus.master.MPPICInterFoam            |
|   \\  /    A nd           | Web:      www.OpenFOAM.com                      |
|    \\/     M anipulation  |                                                 |
\*---------------------------------------------------------------------------*/
FoamFile
{
    version     2.0;
    format      ascii;
    class       volScalarField;
    location    "9";
    object      epsilon;
}
// * * * * * * * * * * * * * * * * * * * * * * * * * * * * * * * * * * * * * //

dimensions      [0 2 -3 0 0 0 0];

internalField   nonuniform List<scalar> 
11821
(
0.363272
0.459368
0.326477
0.488574
0.371878
0.271337
0.469137
0.521959
0.525202
0.475111
0.399175
0.315332
0.237311
0.631145
0.721925
0.737559
0.651512
0.528976
0.405221
0.2977
0.78006
0.852201
0.871811
0.824123
0.657215
0.486339
0.348673
0.844938
0.743849
0.727539
0.900347
0.741119
0.533351
0.376382
0.8326
0.766889
0.758246
0.879644
0.719213
0.522964
0.370845
0.745371
0.824751
0.834616
0.77537
0.618694
0.463568
0.334936
0.587486
0.669543
0.675692
0.596165
0.489602
0.379276
0.279845
0.491539
0.547751
0.549162
0.497218
0.416601
0.328906
0.248598
0.656812
0.724533
0.730768
0.672327
0.553128
0.422098
0.309982
0.741668
0.708579
0.735259
0.796941
0.680873
0.506737
0.361744
0.692374
0.653359
0.680649
0.775281
0.750671
0.553278
0.389226
0.693423
0.672831
0.702444
0.771401
0.733358
0.542309
0.383157
0.728946
0.713655
0.728769
0.755718
0.639101
0.48018
0.345913
0.607228
0.681994
0.680674
0.613046
0.506466
0.391271
0.289131
0.503156
0.561986
0.564705
0.513697
0.430196
0.340503
0.258961
0.673811
0.724154
0.733126
0.69095
0.569484
0.434935
0.320694
0.707244
0.678854
0.712229
0.766587
0.700623
0.521853
0.3728
0.660888
0.621434
0.667955
0.748491
0.757157
0.569379
0.400362
0.698498
0.658045
0.667841
0.762915
0.746546
0.558306
0.393897
0.727746
0.719575
0.738546
0.754393
0.655781
0.49264
0.35541
0.616719
0.688819
0.688353
0.627865
0.518333
0.40057
0.29748
0.50375
0.567244
0.571994
0.520289
0.43715
0.348527
0.267254
0.676683
0.749695
0.760716
0.701154
0.574653
0.441529
0.328583
0.749198
0.743291
0.785063
0.809406
0.708461
0.527525
0.3801
0.726733
0.661032
0.648732
0.82875
0.779593
0.576456
0.407594
0.75449
0.632449
0.674909
0.823591
0.764507
0.564846
0.400853
0.753906
0.777161
0.791542
0.784734
0.661255
0.497303
0.361832
0.615049
0.699562
0.701133
0.632414
0.521185
0.405394
0.303863
0.497538
0.56221
0.568619
0.518164
0.438733
0.35298
0.272766
0.663412
0.758616
0.771788
0.695806
0.570736
0.44302
0.333055
0.786229
0.784248
0.820604
0.844996
0.699983
0.525103
0.383024
0.759063
0.63204
0.694256
0.856909
0.778644
0.572658
0.409637
0.773684
0.690614
0.737125
0.852828
0.758423
0.560444
0.402642
0.754481
0.79227
0.812731
0.79621
0.652697
0.49488
0.364287
0.600124
0.690613
0.696695
0.623803
0.516662
0.406041
0.307341
0.490089
0.551538
0.558692
0.512299
0.437734
0.354874
0.275727
0.642969
0.731164
0.74556
0.678803
0.563323
0.44191
0.33483
0.757771
0.780653
0.814843
0.819318
0.682796
0.519349
0.383041
0.758738
0.665644
0.720649
0.857933
0.75312
0.562959
0.408207
0.772559
0.706732
0.756946
0.85858
0.733959
0.551075
0.401156
0.723125
0.791121
0.811588
0.769993
0.637069
0.489375
0.364011
0.581165
0.665406
0.673095
0.60802
0.50928
0.404331
0.308373
0.483621
0.541748
0.549071
0.50653
0.435641
0.354831
0.276409
0.625782
0.703361
0.718149
0.662639
0.55646
0.43972
0.334434
0.713985
0.743955
0.777989
0.78316
0.668574
0.513838
0.381262
0.714098
0.665491
0.721357
0.820864
0.728598
0.554056
0.40519
0.720071
0.68243
0.733706
0.808127
0.711102
0.542385
0.398074
0.686676
0.741548
0.763575
0.739313
0.623601
0.483774
0.361929
0.564428
0.640693
0.649581
0.593773
0.502452
0.4014
0.307337
0.47757
0.534487
0.542426
0.501824
0.432551
0.352605
0.274766
0.612566
0.690021
0.705582
0.652591
0.550772
0.436074
0.33174
0.683139
0.706344
0.744874
0.763203
0.659395
0.508683
0.377572
0.683459
0.641134
0.703716
0.791447
0.715673
0.547346
0.400679
0.68607
0.681675
0.707614
0.78503
0.699225
0.535526
0.393394
0.662981
0.711618
0.740176
0.723086
0.614531
0.478073
0.357806
0.551233
0.625447
0.635479
0.584105
0.496193
0.39691
0.304084
0.471942
0.52824
0.536622
0.496853
0.427363
0.347417
0.270654
0.603413
0.680203
0.697398
0.646444
0.54426
0.429438
0.326044
0.666223
0.68759
0.731315
0.752552
0.651109
0.501049
0.3708
0.665787
0.630141
0.662701
0.777333
0.709234
0.539315
0.393375
0.671813
0.633537
0.685672
0.769125
0.690173
0.526933
0.385989
0.647865
0.697098
0.72458
0.710831
0.604366
0.469501
0.35086
0.54013
0.613652
0.624384
0.574924
0.487875
0.389447
0.298325
0.465707
0.521456
0.528608
0.487703
0.417331
0.338656
0.264604
0.589988
0.664152
0.679425
0.631351
0.530304
0.417393
0.317505
0.649936
0.664822
0.708378
0.736105
0.629991
0.486464
0.360403
0.649512
0.59006
0.645649
0.741184
0.683773
0.523686
0.382078
0.653856
0.621437
0.671209
0.742833
0.666847
0.511627
0.37486
0.63542
0.674482
0.704806
0.696256
0.58608
0.455368
0.340829
0.526635
0.596377
0.606383
0.559659
0.473678
0.377929
0.290337
0.450439
0.503661
0.509228
0.468944
0.401801
0.327421
0.257476
0.560529
0.609595
0.63101
0.600005
0.507098
0.401023
0.307198
0.603922
0.618824
0.65999
0.680643
0.601938
0.465593
0.347438
0.579972
0.571072
0.615032
0.697279
0.645931
0.499309
0.367558
0.597508
0.586952
0.629957
0.69197
0.631253
0.488006
0.360678
0.598949
0.637499
0.66036
0.648198
0.558602
0.435861
0.328615
0.508304
0.56715
0.577556
0.534022
0.45315
0.363287
0.281033
0.428059
0.475834
0.480546
0.444157
0.383224
0.314919
0.249659
0.530434
0.573621
0.591927
0.561864
0.477942
0.382261
0.295868
0.58004
0.585496
0.623496
0.638111
0.563347
0.440786
0.33288
0.554313
0.538882
0.587753
0.655727
0.604751
0.471186
0.351236
0.572005
0.557833
0.60019
0.653599
0.592298
0.461058
0.34482
0.565562
0.606355
0.627925
0.609823
0.524757
0.413478
0.315149
0.481998
0.536595
0.544554
0.502867
0.429012
0.347019
0.270963
0.403872
0.447304
0.453151
0.420915
0.365886
0.302671
0.241413
0.502487
0.553065
0.568845
0.530131
0.452505
0.364681
0.284451
0.533965
0.562067
0.596972
0.60497
0.530088
0.417296
0.318383
0.522503
0.523863
0.574839
0.623243
0.570411
0.444509
0.335
0.535271
0.534728
0.579972
0.622475
0.55791
0.435158
0.328925
0.529737
0.569047
0.591754
0.577563
0.494394
0.392053
0.301594
0.451931
0.50804
0.514997
0.473943
0.406497
0.331247
0.26064
0.385528
0.425792
0.431364
0.401912
0.350567
0.290926
0.233019
0.474759
0.530966
0.541319
0.504749
0.431734
0.348972
0.273363
0.523515
0.544485
0.5809
0.586817
0.502386
0.397281
0.30476
0.522228
0.50503
0.55201
0.613619
0.538486
0.421646
0.31983
0.522738
0.525083
0.570367
0.607905
0.525992
0.412487
0.313915
0.504908
0.547139
0.574668
0.550474
0.467578
0.372731
0.288554
0.425515
0.478038
0.484738
0.448863
0.386514
0.316455
0.250479
0.373626
0.410729
0.415246
0.386522
0.336951
0.280079
0.225326
0.455949
0.508143
0.518301
0.482055
0.414337
0.335034
0.263394
0.504586
0.523789
0.556512
0.557421
0.479757
0.380456
0.292905
0.504521
0.484507
0.529171
0.580223
0.512043
0.402646
0.306851
0.509069
0.494555
0.527385
0.571235
0.498232
0.393286
0.301087
0.480076
0.52198
0.540542
0.519251
0.444175
0.356003
0.2773
0.406213
0.452588
0.458836
0.426641
0.368837
0.303419
0.241616
0.360701
0.39649
0.399102
0.370737
0.324043
0.270652
0.219102
0.429628
0.467499
0.477202
0.456421
0.396055
0.322455
0.255212
0.443771
0.465253
0.490369
0.505942
0.456653
0.365293
0.283205
0.436332
0.431029
0.469768
0.517153
0.482588
0.385742
0.296362
0.444675
0.44884
0.488401
0.50912
0.470238
0.376971
0.290989
0.448176
0.474468
0.489482
0.478708
0.422868
0.342261
0.268624
0.390281
0.42783
0.432633
0.405767
0.353785
0.292985
0.234891
0.0346122
0.0453633
0.118323
0.0840488
0.0602062
0.0444114
0.0359666
0.0450414
0.254411
0.179967
0.126874
0.0894688
0.0635755
0.0464721
0.0372461
0.0460873
0.251267
0.178885
0.126926
0.0900723
0.06441
0.0474054
0.0383532
0.0485055
0.227167
0.165037
0.11953
0.0865453
0.0631625
0.0475411
0.0395857
0.0528057
0.193398
0.14645
0.109652
0.0817755
0.0614972
0.0478881
0.0416782
0.0599237
0.171034
0.130531
0.0988019
0.0745642
0.0567443
0.0446956
0.0392573
0.0565721
0.210072
0.154387
0.113428
0.0834116
0.061866
0.0473454
0.0400487
0.0539253
0.244805
0.176772
0.127475
0.0920191
0.0669593
0.0501831
0.041367
0.0533401
0.263989
0.189555
0.135828
0.0973775
0.0703274
0.052258
0.0426505
0.0543483
0.260438
0.188134
0.135652
0.0978602
0.0711269
0.0532194
0.0438437
0.0570131
0.236321
0.174059
0.128014
0.0941712
0.0698296
0.0534147
0.0452587
0.0618742
0.202164
0.154976
0.117696
0.0891191
0.0680685
0.0538441
0.0476408
0.0699028
0.181495
0.139993
0.107151
0.0817889
0.0629845
0.0502438
0.0447565
0.0660147
0.221038
0.164289
0.122152
0.0908955
0.0682325
0.0528973
0.0454176
0.0627061
0.255751
0.186672
0.136281
0.0995941
0.0733755
0.0557206
0.0466374
0.061768
0.274558
0.199195
0.144508
0.10491
0.076735
0.0577921
0.0479073
0.0627273
0.270647
0.1975
0.144147
0.105298
0.0775125
0.0587868
0.0491876
0.0656531
0.246057
0.183088
0.136261
0.101472
0.0761933
0.0590633
0.0508014
0.0711126
0.211079
0.163415
0.125533
0.0962045
0.074397
0.059616
0.0534946
0.0800978
0.191247
0.148757
0.114842
0.0884697
0.0688353
0.0555574
0.0501683
0.0755686
0.231194
0.173454
0.130143
0.0977347
0.0741071
0.0581181
0.0506017
0.0715124
0.265886
0.195905
0.144369
0.106494
0.079253
0.0608812
0.0516782
0.0701724
0.284458
0.20828
0.152531
0.111785
0.0825992
0.0629382
0.0529237
0.0710855
0.280298
0.20637
0.152025
0.112103
0.0833669
0.0639699
0.0542911
0.0742711
0.255264
0.191628
0.143917
0.108171
0.082044
0.0643307
0.056095
0.0802757
0.219637
0.171455
0.132867
0.102757
0.0802483
0.0650116
0.0590823
0.0901301
0.199322
0.156103
0.12137
0.094263
0.0740636
0.0604747
0.0553668
0.0848626
0.239407
0.181002
0.136796
0.103545
0.0792531
0.0628596
0.0554963
0.0801036
0.273879
0.203408
0.151011
0.112272
0.0843319
0.0655146
0.0563985
0.07835
0.292237
0.215643
0.159086
0.117503
0.0876286
0.067525
0.0575883
0.0791337
0.287827
0.21353
0.158449
0.117749
0.0883703
0.0685662
0.0590003
0.0824525
0.262531
0.19856
0.150188
0.11375
0.0870529
0.0689976
0.0609584
0.0888924
0.226632
0.1781
0.138952
0.108266
0.0852876
0.0698063
0.064214
0.099522
0.20504
0.16154
0.126428
0.0989826
0.0785403
0.0648839
0.0602267
0.0937288
0.244845
0.186334
0.141758
0.108132
0.083548
0.0670225
0.0599906
0.0882385
0.278682
0.208444
0.155789
0.116711
0.0884864
0.0695259
0.0606951
0.0860501
0.296546
0.220404
0.163694
0.121821
0.0916932
0.0714622
0.0618081
0.0866739
0.291942
0.21814
0.162954
0.122005
0.0924036
0.0724996
0.0632456
0.0900873
0.266829
0.203174
0.154674
0.118006
0.0911159
0.0730005
0.065339
0.0969045
0.231148
0.182714
0.143417
0.112536
0.0894141
0.0739378
0.0688389
0.108209
0.208536
0.165161
0.130087
0.102667
0.0822672
0.0687521
0.0646831
0.102128
0.247788
0.189608
0.145145
0.111571
0.0870265
0.0706075
0.0640601
0.0958914
0.280797
0.21124
0.158852
0.119907
0.0917689
0.0729297
0.0645535
0.0932626
0.297982
0.22282
0.16651
0.124845
0.0948511
0.07477
0.0655754
0.0937101
0.293267
0.220453
0.16569
0.12497
0.0955236
0.0757925
0.0670242
0.097184
0.268595
0.205659
0.157492
0.121021
0.0942822
0.0763592
0.0692352
0.104319
0.233385
0.185393
0.14634
0.115631
0.0926683
0.0774237
0.0729562
0.116201
0.21004
0.167145
0.132476
0.105393
0.0852723
0.0720652
0.0686825
0.109982
0.248555
0.191052
0.147126
0.113973
0.0897498
0.0736327
0.0676885
0.103032
0.280706
0.212089
0.160404
0.122001
0.0942613
0.075759
0.0679679
0.0999735
0.297227
0.223241
0.167764
0.126728
0.0971946
0.0774894
0.0688912
0.100241
0.292433
0.220801
0.166878
0.126795
0.0978234
0.0784892
0.0703425
0.103753
0.268248
0.206271
0.158828
0.122929
0.0966377
0.0791177
0.0726575
0.111157
0.233606
0.186336
0.147878
0.117669
0.0951296
0.080307
0.0765822
0.123548
0.209667
0.167648
0.133742
0.107266
0.0876109
0.0748308
0.0721991
0.117277
0.247223
0.190834
0.147877
0.115478
0.0918004
0.0761263
0.0708581
0.109627
0.278468
0.211162
0.160644
0.123152
0.0960643
0.078055
0.0709299
0.106163
0.294383
0.221858
0.167668
0.127644
0.0988362
0.079671
0.0717545
0.106259
0.289524
0.219367
0.166726
0.127654
0.0994189
0.0806444
0.073204
0.109802
0.265831
0.205174
0.158879
0.123895
0.0982948
0.0813305
0.0756121
0.117445
0.231915
0.185722
0.148219
0.118807
0.0969036
0.08264
0.0797256
0.130302
0.207654
0.166966
0.134137
0.108458
0.0893739
0.0770721
0.0752046
0.123914
0.243891
0.189256
0.147685
0.116284
0.0932875
0.0781271
0.0735515
0.115602
0.274017
0.208734
0.159874
0.123583
0.0973037
0.0798687
0.0734317
0.111769
0.289323
0.218931
0.166534
0.127829
0.0999136
0.0813741
0.0741635
0.111711
0.284475
0.216427
0.16555
0.127787
0.100452
0.082321
0.0756091
0.115285
0.261407
0.20267
0.157952
0.124153
0.0993931
0.0830594
0.0780977
0.123145
0.228499
0.183847
0.14765
0.11926
0.0981222
0.084479
0.0823766
0.136436
0.204566
0.165531
0.133932
0.10912
0.0906347
0.0788162
0.0776691
0.129707
0.239139
0.186811
0.146866
0.116558
0.0942899
0.0796682
0.0757648
0.120804
0.267808
0.205318
0.158444
0.123484
0.0980702
0.0812405
0.0754769
0.116638
0.282316
0.214941
0.164721
0.127484
0.100526
0.0826439
0.0761242
0.116436
0.277584
0.212461
0.163711
0.127401
0.101028
0.0835672
0.0775636
0.120036
0.255437
0.199252
0.156402
0.123908
0.100038
0.0843527
0.0801163
0.128087
0.223894
0.181189
0.146507
0.119231
0.0988916
0.0858681
0.0845228
0.141748
0.200772
0.163517
0.133186
0.109263
0.091412
0.0801119
0.0796323
0.13443
0.233471
0.183723
0.145483
0.116308
0.0948149
0.08078
0.0775432
0.125118
0.260424
0.201185
0.156437
0.122863
0.0983677
0.0821966
0.0771094
0.120648
0.273949
0.210185
0.162327
0.126626
0.100679
0.0835067
0.0776817
0.12031
0.269398
0.207757
0.16131
0.126517
0.101155
0.0844117
0.079114
0.123921
0.248445
0.195195
0.154333
0.123188
0.100245
0.0852431
0.0817154
0.132117
0.218555
0.178001
0.144899
0.118757
0.0992325
0.0868416
0.0862065
0.146037
0.196219
0.1608
0.131793
0.108839
0.0917217
0.0810318
0.0812378
0.138344
0.226941
0.179876
0.143419
0.115481
0.0948761
0.0815256
0.0789913
0.128668
0.25203
0.196247
0.153735
0.12166
0.0982042
0.0827955
0.0784313
0.123938
0.264492
0.204604
0.159238
0.125192
0.100378
0.0840206
0.0789393
0.123479
0.260155
0.20225
0.158235
0.125074
0.10084
0.0849143
0.0803668
0.127086
0.240545
0.190409
0.151634
0.121935
0.100023
0.0857942
0.0830091
0.135374
0.21249
0.174186
0.142723
0.117782
0.0991516
0.0874676
0.0875586
0.149439
0.190928
0.157389
0.129818
0.10796
0.0916856
0.0816778
0.0825909
0.141876
0.21973
0.175323
0.140767
0.11421
0.094614
0.0820271
0.080234
0.13183
0.243015
0.190612
0.150444
0.120019
0.0977291
0.0831647
0.0795651
0.126878
0.25444
0.198341
0.155571
0.123332
0.0997765
0.0843152
0.0800189
0.126313
0.250282
0.196068
0.154599
0.12322
0.100234
0.0852045
0.0814461
0.129911
0.23201
0.184975
0.148401
0.120284
0.0995133
0.0861348
0.0841305
0.138268
0.2058
0.169772
0.140041
0.116413
0.0987782
0.0878787
0.0887384
0.152418
0.185395
0.153756
0.127678
0.106957
0.0915336
0.0821832
0.083761
0.145164
0.212431
0.17063
0.138017
0.112872
0.0942789
0.0824262
0.0813416
0.13486
0.234108
0.184936
0.147118
0.118358
0.0972143
0.083455
0.0805818
0.129727
0.244601
0.192104
0.151917
0.121484
0.0991576
0.0845454
0.0809917
0.129082
0.240598
0.189927
0.150993
0.121388
0.0996167
0.0854342
0.0824222
0.132682
0.223559
0.179547
0.145178
0.118642
0.0989844
0.0864118
0.0851508
0.141111
0.199093
0.165308
0.137321
0.115014
0.0983633
0.0882221
0.0898304
0.155364
0.180509
0.15061
0.125884
0.106165
0.0914636
0.0826534
0.0847979
0.148186
0.206047
0.166626
0.135751
0.111825
0.0940641
0.0828047
0.082313
0.137685
0.226442
0.180151
0.144406
0.117066
0.0968631
0.0837482
0.0814785
0.132421
0.236237
0.186901
0.148963
0.120057
0.0987305
0.0847928
0.0818519
0.131716
0.232427
0.184847
0.148102
0.119984
0.0991945
0.0856811
0.0832844
0.135324
0.216441
0.175071
0.142602
0.117388
0.0986314
0.0866966
0.0860516
0.143835
0.193416
0.161597
0.135127
0.113941
0.0980985
0.0885675
0.090808
0.158225
0.176771
0.148285
0.12462
0.105663
0.0915004
0.0830968
0.085705
0.150793
0.201142
0.16367
0.134148
0.111133
0.093979
0.0831556
0.0831304
0.140149
0.220569
0.176632
0.142487
0.116198
0.0966743
0.0840272
0.0822255
0.134755
0.22989
0.183108
0.146887
0.119098
0.0984872
0.0850338
0.0825631
0.133987
0.22634
0.181195
0.14609
0.119047
0.0989528
0.0859159
0.0839884
0.137593
0.211221
0.171888
0.140826
0.116561
0.0984375
0.0869552
0.0867795
0.146168
0.189286
0.158965
0.133622
0.113245
0.0979734
0.0888772
0.0916018
0.160693
0.440947
0.344244
0.262188
0.196898
0.148296
0.116062
0.103652
0.160392
0.564681
0.432013
0.321984
0.235515
0.171668
0.129028
0.109783
0.16038
0.659751
0.500938
0.368565
0.264549
0.18834
0.137658
0.113262
0.158704
0.679738
0.514814
0.376681
0.268592
0.189645
0.137202
0.111486
0.153446
0.60327
0.459766
0.338661
0.243353
0.173608
0.127133
0.104653
0.145835
0.482211
0.368022
0.273594
0.200264
0.146512
0.110643
0.0943221
0.136782
0.355107
0.274977
0.20898
0.157355
0.119203
0.0938596
0.0840334
0.12944
0.453514
0.352609
0.268657
0.203071
0.154656
0.12271
0.111238
0.175475
0.578858
0.444628
0.33062
0.242738
0.17859
0.135996
0.117496
0.175533
0.659655
0.516474
0.378651
0.272642
0.195919
0.145022
0.121172
0.173988
0.676232
0.532684
0.387644
0.277057
0.197453
0.144768
0.119505
0.168685
0.623941
0.479417
0.350625
0.252522
0.181772
0.134853
0.112723
0.16096
0.505285
0.382789
0.284004
0.209023
0.154526
0.11823
0.102274
0.151624
0.369759
0.285552
0.217875
0.165525
0.126864
0.101163
0.091789
0.144079
0.461485
0.35857
0.274201
0.208847
0.160698
0.128981
0.118341
0.189661
0.589986
0.453234
0.337462
0.249122
0.184964
0.142461
0.124653
0.189589
0.666505
0.527267
0.387129
0.280028
0.202888
0.151833
0.128486
0.188053
0.678602
0.542218
0.39617
0.284719
0.204724
0.1518
0.126943
0.182745
0.637963
0.490298
0.359225
0.260264
0.189135
0.141955
0.120218
0.174981
0.517432
0.392181
0.292213
0.216765
0.161889
0.125291
0.10974
0.165628
0.379942
0.294348
0.22606
0.173246
0.134099
0.108061
0.0991517
0.15806
0.461487
0.359966
0.27739
0.213235
0.165759
0.134484
0.124772
0.202506
0.593329
0.453657
0.339723
0.253019
0.189838
0.147928
0.131068
0.20223
0.684276
0.529155
0.389604
0.284042
0.207886
0.157419
0.134977
0.200619
0.695424
0.5438
0.398717
0.288985
0.209975
0.157573
0.133558
0.195346
0.640999
0.489712
0.361738
0.264833
0.194649
0.147898
0.126941
0.18769
0.51719
0.39433
0.29672
0.222396
0.167885
0.131419
0.116533
0.178504
0.383726
0.299704
0.232193
0.179552
0.1403
0.114211
0.105947
0.171058
0.45472
0.357803
0.278399
0.216098
0.169668
0.139107
0.130489
0.214107
0.582069
0.447091
0.338207
0.254634
0.193213
0.152374
0.136744
0.2137
0.67809
0.519768
0.386311
0.284786
0.210918
0.161795
0.140698
0.212073
0.697089
0.534882
0.395608
0.289941
0.213203
0.162116
0.139412
0.206901
0.629859
0.481844
0.360113
0.266796
0.198445
0.152722
0.132923
0.199379
0.509283
0.392297
0.298506
0.2261
0.1725
0.136584
0.122638
0.190387
0.383218
0.30221
0.23626
0.184316
0.14537
0.119557
0.112153
0.183176
0.445756
0.354211
0.278085
0.217752
0.17254
0.142882
0.135471
0.224482
0.563427
0.438009
0.335051
0.2549
0.195487
0.155951
0.141697
0.224044
0.651203
0.505279
0.38043
0.28378
0.212682
0.165254
0.145717
0.222536
0.669609
0.520065
0.389779
0.289069
0.21512
0.165726
0.144573
0.217523
0.609494
0.472129
0.357005
0.267349
0.201072
0.156658
0.138217
0.21012
0.499821
0.389139
0.2989
0.228466
0.176008
0.140899
0.128073
0.2013
0.38132
0.303231
0.238898
0.187858
0.149474
0.12417
0.117777
0.194439
0.437082
0.350088
0.27683
0.218368
0.174452
0.145824
0.139688
0.233583
0.54533
0.429009
0.331271
0.25427
0.196852
0.158709
0.145894
0.233169
0.620648
0.490884
0.374051
0.28195
0.213579
0.167928
0.150023
0.231898
0.63643
0.505266
0.383319
0.287305
0.216146
0.168548
0.149035
0.227098
0.589525
0.46289
0.353303
0.266971
0.202774
0.159789
0.142809
0.219819
0.491427
0.385513
0.298278
0.229741
0.178543
0.144407
0.13282
0.211191
0.378899
0.303222
0.240398
0.190347
0.152688
0.128057
0.122779
0.204754
0.429164
0.345551
0.274696
0.217975
0.175399
0.147903
0.143103
0.241529
0.531277
0.42078
0.327143
0.252854
0.197322
0.160615
0.1493
0.241236
0.600255
0.478951
0.367963
0.279605
0.213695
0.169803
0.153595
0.240362
0.613965
0.49254
0.377029
0.284993
0.216378
0.170572
0.152777
0.235843
0.573933
0.454186
0.349154
0.265773
0.203575
0.162089
0.146681
0.228692
0.48348
0.381335
0.296733
0.229977
0.180102
0.147076
0.136852
0.220217
0.375835
0.302206
0.24077
0.191759
0.154965
0.131164
0.127115
0.214196
0.421764
0.340549
0.271612
0.216525
0.17536
0.149093
0.145684
0.248599
0.520993
0.413591
0.322792
0.250653
0.196864
0.161622
0.151865
0.248608
0.586149
0.469638
0.362426
0.276838
0.213037
0.170853
0.156388
0.248406
0.600209
0.483369
0.371641
0.282361
0.21586
0.171779
0.155762
0.244267
0.563323
0.4471
0.345088
0.263903
0.203496
0.163539
0.149789
0.237185
0.476755
0.377122
0.294406
0.22918
0.180676
0.148888
0.140127
0.228683
0.372314
0.300206
0.239948
0.192051
0.156291
0.133471
0.130741
0.223003
0.41311
0.334317
0.267218
0.213947
0.174375
0.149424
0.14737
0.254589
0.511178
0.406864
0.317767
0.247442
0.195436
0.161723
0.153479
0.254952
0.576967
0.462444
0.357276
0.273477
0.211572
0.171051
0.158219
0.255581
0.59132
0.47661
0.366809
0.279163
0.214536
0.172143
0.157799
0.251889
0.55427
0.441484
0.340637
0.261097
0.202508
0.164135
0.151968
0.244793
0.469177
0.371952
0.290698
0.227182
0.180301
0.14987
0.142531
0.236194
0.367458
0.296596
0.237713
0.19126
0.156763
0.135011
0.133552
0.230871
0.400236
0.325081
0.260943
0.210141
0.172483
0.148958
0.14813
0.258623
0.491359
0.394994
0.309695
0.242471
0.192871
0.160896
0.154035
0.259007
0.545481
0.449372
0.348382
0.268054
0.208838
0.170207
0.158831
0.260072
0.555546
0.463175
0.357732
0.273707
0.211897
0.171457
0.158601
0.256785
0.527372
0.428299
0.3322
0.256269
0.200325
0.163758
0.152998
0.249819
0.452894
0.361672
0.284275
0.223704
0.178958
0.150009
0.143929
0.241509
0.357699
0.290107
0.233855
0.189445
0.156445
0.135785
0.135419
0.236757
0.382498
0.312459
0.252667
0.205096
0.169733
0.147789
0.148106
0.260273
0.467005
0.377546
0.29827
0.235587
0.189096
0.159154
0.153639
0.260136
0.517639
0.428388
0.334703
0.259927
0.204445
0.168159
0.158239
0.260866
0.524806
0.440519
0.343323
0.26537
0.207533
0.169515
0.158142
0.25783
0.500307
0.408637
0.319655
0.249131
0.196693
0.162277
0.15289
0.251397
0.431287
0.346823
0.275249
0.218714
0.176556
0.149254
0.144354
0.244017
0.343493
0.280949
0.228445
0.18657
0.155256
0.135749
0.136352
0.24006
0.361803
0.298122
0.24342
0.19936
0.166421
0.146153
0.14764
0.260453
0.438949
0.356407
0.285007
0.227568
0.184467
0.156749
0.152687
0.259552
0.487529
0.40164
0.317868
0.249975
0.19876
0.16516
0.156914
0.259514
0.493815
0.412063
0.325668
0.255172
0.201798
0.166534
0.156882
0.256609
0.471749
0.384232
0.30501
0.240638
0.191929
0.159873
0.152041
0.250976
0.407201
0.330408
0.265288
0.212834
0.173274
0.147718
0.144082
0.244718
0.327951
0.270903
0.222193
0.182822
0.153231
0.134976
0.13659
0.241509
0.34377
0.285342
0.234734
0.193698
0.162985
0.144354
0.147072
0.260696
0.414418
0.338558
0.273041
0.219802
0.179691
0.154124
0.151617
0.25925
0.462526
0.379266
0.303019
0.240386
0.19284
0.161856
0.155473
0.258739
0.473365
0.38966
0.310704
0.245472
0.195784
0.163178
0.155462
0.256005
0.446835
0.365693
0.292521
0.232464
0.186828
0.157057
0.150961
0.250977
0.388193
0.317116
0.256277
0.20683
0.169527
0.145715
0.143475
0.24532
0.315036
0.261763
0.215826
0.178565
0.150639
0.133722
0.136474
0.242604
0.330094
0.275258
0.227421
0.188704
0.159845
0.142658
0.146545
0.261636
0.396906
0.325644
0.263554
0.213144
0.175392
0.151675
0.150618
0.259921
0.443057
0.364831
0.292096
0.232485
0.187624
0.158835
0.154187
0.259488
0.454026
0.375741
0.300028
0.237557
0.190477
0.160091
0.154166
0.256972
0.430316
0.353963
0.283181
0.225448
0.182126
0.154339
0.149873
0.252101
0.375394
0.30741
0.24853
0.201148
0.165796
0.143621
0.142743
0.246436
0.305382
0.253891
0.20974
0.174271
0.147933
0.132334
0.136234
0.244104
0.318744
0.266815
0.221216
0.184416
0.157111
0.141139
0.146029
0.262748
0.379105
0.314547
0.255348
0.207401
0.171669
0.149501
0.149637
0.26069
0.411806
0.351837
0.282505
0.225667
0.183175
0.156207
0.152931
0.260358
0.42197
0.363301
0.290565
0.23063
0.185903
0.157372
0.152848
0.257893
0.40489
0.341919
0.274174
0.219021
0.177921
0.15186
0.148704
0.252986
0.360735
0.297167
0.240858
0.195767
0.162333
0.141643
0.141926
0.247366
0.295329
0.246054
0.203928
0.17028
0.145454
0.131047
0.135957
0.245628
0.339941
0.260816
0.196128
0.146037
0.109484
0.0853555
0.0756973
0.115986
0.370327
0.272446
0.197885
0.1426
0.103224
0.0772363
0.0651175
0.093688
0.372062
0.268044
0.190558
0.134425
0.0950885
0.0692382
0.0563286
0.0773858
0.338775
0.24302
0.171839
0.120591
0.0848384
0.0612965
0.049234
0.0659623
0.284407
0.204994
0.146061
0.103463
0.0735032
0.0536353
0.0434508
0.0585857
0.22505
0.164607
0.119734
0.0868157
0.0632075
0.0473578
0.0395458
0.0550469
0.170714
0.129729
0.0978501
0.0735798
0.0557538
0.0437341
0.0384409
0.0560946
0.353622
0.271138
0.205126
0.154356
0.117171
0.0925463
0.0832003
0.129969
0.386011
0.283871
0.20755
0.151285
0.110956
0.0841471
0.071943
0.105922
0.387849
0.280005
0.200712
0.143382
0.102874
0.0759904
0.0627398
0.0881651
0.353958
0.25513
0.182308
0.12972
0.0926094
0.0679403
0.0554524
0.075981
0.297996
0.216661
0.15634
0.112359
0.0810231
0.0600543
0.0494656
0.0681041
0.237223
0.175504
0.129364
0.0951117
0.0702763
0.0535284
0.0455124
0.0645506
0.181536
0.139467
0.106429
0.0810044
0.062183
0.0494725
0.0441507
0.0657545
0.364133
0.280355
0.213658
0.162302
0.124485
0.0994016
0.0904072
0.143491
0.398263
0.294426
0.21697
0.159681
0.118368
0.0908048
0.0785937
0.117744
0.40105
0.29135
0.210731
0.152115
0.110383
0.0825595
0.0691196
0.0989184
0.36724
0.26666
0.192494
0.138519
0.100101
0.0744544
0.0617318
0.086114
0.310281
0.227757
0.166192
0.120844
0.0882617
0.066365
0.0555707
0.0779405
0.248589
0.185826
0.13845
0.102927
0.0770077
0.059507
0.0514289
0.0743565
0.191742
0.148611
0.114445
0.087971
0.0682792
0.055
0.0497438
0.0757227
0.36896
0.286451
0.220291
0.16892
0.130846
0.105597
0.0971529
0.156282
0.404896
0.301734
0.224372
0.166718
0.12488
0.0969339
0.0849991
0.129099
0.408814
0.299561
0.21876
0.159503
0.117031
0.0886685
0.07535
0.109498
0.375408
0.275322
0.20081
0.14603
0.106769
0.0805168
0.0678518
0.0962271
0.319006
0.236616
0.174422
0.128156
0.0947015
0.0722267
0.0615245
0.0877666
0.25753
0.194346
0.146118
0.109687
0.0829986
0.0650209
0.0570848
0.084161
0.200133
0.156277
0.121285
0.0940502
0.07376
0.0601361
0.0551054
0.0853831
0.369571
0.289753
0.224919
0.174064
0.136159
0.111082
0.103416
0.168411
0.405835
0.305576
0.229499
0.172219
0.130393
0.10247
0.0911053
0.140114
0.410621
0.304128
0.22441
0.165327
0.122704
0.0942295
0.0813249
0.11983
0.378527
0.280728
0.206879
0.152025
0.112455
0.0859839
0.0736353
0.106181
0.324028
0.242771
0.180646
0.134047
0.1002
0.0774801
0.0671166
0.097444
0.263585
0.200587
0.152043
0.115171
0.0881117
0.0699389
0.0623315
0.0937068
0.206178
0.162059
0.126673
0.0990652
0.0784973
0.0647601
0.0601361
0.0946182
0.36863
0.291497
0.228117
0.178026
0.140568
0.115906
0.109183
0.179866
0.403932
0.307369
0.233009
0.176487
0.135022
0.107402
0.0968076
0.15079
0.409134
0.306378
0.228287
0.16984
0.127457
0.0991712
0.0869156
0.129936
0.378918
0.283877
0.211138
0.156646
0.117172
0.0907897
0.0789589
0.115744
0.326547
0.246704
0.18507
0.13858
0.104726
0.082056
0.0721908
0.10665
0.267205
0.204738
0.156323
0.119452
0.0923787
0.0742561
0.0670931
0.10255
0.21003
0.166036
0.130663
0.103046
0.0824818
0.068843
0.0647736
0.103371
0.367064
0.292145
0.23014
0.180932
0.144105
0.12004
0.114389
0.190529
0.401372
0.307974
0.235258
0.179643
0.138754
0.11164
0.101956
0.160843
0.406734
0.307249
0.230764
0.17315
0.13126
0.103385
0.0919353
0.139455
0.378081
0.2854
0.213844
0.159989
0.12091
0.0948647
0.0837183
0.124731
0.327244
0.248751
0.187865
0.141845
0.108326
0.0859486
0.076703
0.115334
0.26872
0.207003
0.159095
0.122604
0.0958154
0.0779568
0.0714025
0.110845
0.211895
0.168361
0.133366
0.106055
0.0857395
0.0723765
0.0689751
0.111486
0.364756
0.291663
0.230956
0.182727
0.146705
0.123414
0.118967
0.20044
0.398563
0.307486
0.236221
0.18162
0.141512
0.115093
0.106455
0.170234
0.404116
0.306909
0.23184
0.175214
0.13406
0.106806
0.09629
0.148374
0.376271
0.285344
0.215001
0.162054
0.123659
0.0981715
0.0878562
0.13314
0.326134
0.248932
0.189087
0.143905
0.111013
0.0891316
0.080603
0.123267
0.268094
0.207439
0.160458
0.124715
0.0984813
0.0810691
0.0752214
0.118454
0.211848
0.169165
0.134909
0.10818
0.0883105
0.075366
0.0727349
0.118968
0.361755
0.289998
0.230495
0.183386
0.148368
0.126007
0.122847
0.209726
0.395249
0.30577
0.235829
0.182422
0.143323
0.11776
0.110243
0.178979
0.40072
0.305123
0.231458
0.176082
0.135926
0.109454
0.0999217
0.156618
0.372903
0.28349
0.214623
0.162954
0.12552
0.100741
0.0913181
0.140834
0.322772
0.247178
0.188875
0.144935
0.11294
0.0916986
0.0839438
0.130361
0.265198
0.206205
0.160635
0.125948
0.100446
0.083597
0.0785202
0.125326
0.210078
0.168728
0.135533
0.109588
0.0902812
0.0778241
0.0760088
0.125945
0.357144
0.286634
0.228645
0.183004
0.149206
0.127846
0.125909
0.217951
0.390098
0.302151
0.233981
0.182173
0.144306
0.119671
0.113225
0.186666
0.394795
0.301187
0.22958
0.175918
0.13699
0.111371
0.102749
0.163743
0.366367
0.279451
0.212853
0.162913
0.126643
0.102633
0.0940118
0.147372
0.316459
0.243647
0.187553
0.145183
0.114211
0.0936981
0.0867324
0.136536
0.260286
0.203761
0.159983
0.126525
0.101837
0.0855993
0.0813371
0.131487
0.20716
0.167482
0.135513
0.110427
0.0917165
0.0797529
0.0786764
0.131933
0.348003
0.280744
0.225339
0.181661
0.149262
0.128911
0.128016
0.224097
0.379322
0.295628
0.230559
0.18091
0.144467
0.120788
0.115295
0.192504
0.383132
0.294384
0.226175
0.174758
0.13725
0.11255
0.104769
0.169011
0.355305
0.27319
0.209847
0.162003
0.127042
0.103881
0.09605
0.152415
0.307501
0.238724