/*--------------------------------*- C++ -*----------------------------------*\
| =========                 |                                                 |
| \\      /  F ield         | OpenFOAM: The Open Source CFD Toolbox           |
|  \\    /   O peration     | Version:  plus.master.MPPICInterFoam            |
|   \\  /    A nd           | Web:      www.OpenFOAM.com                      |
|    \\/     M anipulation  |                                                 |
\*---------------------------------------------------------------------------*/
FoamFile
{
    version     2.0;
    format      ascii;
    class       volScalarField;
    location    "9";
    object      p_rgh;
}
// * * * * * * * * * * * * * * * * * * * * * * * * * * * * * * * * * * * * * //

dimensions      [1 -1 -2 0 0 0 0];

internalField   nonuniform List<scalar> 
11821
(
5670.53
5673.25
5669.7
5664.3
5671.09
5668.22
5669.61
5663.58
5650.24
5669.75
5669.07
5668.07
5666.92
5315.55
5201.57
5116.78
5384.97
5634.83
5669.02
5667.76
5015.61
4448.78
4215.31
4908.15
5464.87
5669.75
5668.48
4766.14
3828.29
3546.47
4341.12
5383.99
5670.51
5669.08
4717.05
4003.82
3782.08
4507
5420.94
5670.69
5669.23
4966.93
4320.81
4212.77
5046.96
5511.14
5670.28
5668.84
5515.77
5374.77
5285.81
5485.6
5660.88
5669.53
5668.11
5663.83
5632.45
5611.76
5664.14
5664.84
5665.28
5665.42
4976.32
4740.8
4635.46
5128.63
5596.31
5664.91
5665.37
4297.94
3856.13
3745.25
4387.61
5274.14
5664.67
5665.38
4024.42
4388.09
4386.69
3934.97
5132.57
5664.88
5665.54
3968.41
4355.98
4351.19
4064.45
5197.57
5665.15
5665.67
4443.4
3829.52
3792.66
4562.23
5380.3
5665.38
5665.75
5403.12
5159.18
5018.11
5358.64
5644.22
5665.69
5665.81
5662.78
5591.18
5563.36
5666.35
5666.53
5666.84
5667.15
4784.93
4316.33
4239.9
4925.56
5556.66
5666.41
5666.89
3520.8
3463.44
3460.43
3698.12
5098.47
5666.22
5666.7
3535.5
4362.47
4359.93
3545.9
4812.56
5664.58
5666.47
3546.46
4252.93
4093.41
3549.08
4909.05
5665.88
5666.54
3982.34
3490.98
3488.41
4061.73
5262.61
5666.32
5666.77
5297.63
4873.68
4719.69
5260.51
5630.23
5666.62
5667.03
5660.73
5582.85
5556.04
5670.91
5671.9
5671.85
5671.9
4803.18
4306.58
4244.58
4928.62
5554.12
5671.82
5671.83
3546.5
3406.36
3405.07
3687.12
5092.27
5671.95
5671.79
3495.57
4330.79
3796.66
3485.5
4784.04
5664.78
5671.64
3494.68
3542.61
3438.02
3481.85
4876.79
5671.9
5671.72
3985.33
3435.03
3433.2
4074.75
5264.46
5671.96
5671.82
5292.66
4839.84
4714.45
5268.98
5633.53
5671.84
5671.9
5658.82
5582.69
5557.09
5672.71
5678.71
5678.31
5678.01
4842.45
4376.21
4323.29
4972.76
5560.9
5678.73
5678.24
3897.46
3354.54
3354.8
3928.54
5131.13
5679.28
5678.49
3446.49
3424.25
3354.8
3434.33
4833.91
5668.85
5678.59
3487.14
3371.22
3362.81
3501.54
4925.24
5678.31
5678.65
4125.22
3402.06
3404.88
4249.56
5296.38
5679.31
5678.56
5309.57
4893.32
4802.71
5301.49
5640.69
5678.79
5678.36
5658.26
5573.4
5549.26
5672.3
5685.02
5684.36
5683.8
4808.41
4380.96
4327.36
4966.89
5562.7
5685.02
5684.22
3999.39
3368.55
3375
3999.18
5143.33
5685.78
5684.64
3499.41
3320.89
3313.83
3506.26
4877.03
5664.68
5684.9
3619.96
3319.92
3319.32
3672.55
4956.34
5675.59
5684.91
4118.9
3473.99
3485.95
4270.71
5298.91
5685.7
5684.65
5311.21
4916.17
4826.96
5305.77
5644.57
5684.96
5684.27
5650.92
5551.12
5527.64
5665.61
5689.33
5688.75
5688.23
4774.86
4368.49
4314.39
4949.65
5553.21
5689.31
5688.62
3806.83
3442
3447.04
3909.85
5133.91
5688.95
5689
3584.1
3445.24
3544.51
3686.22
4905.3
5647.44
5689.24
3642.47
3451.67
3579.56
3742.34
4959.95
5660.82
5689.24
4072.21
3501.76
3521.19
4249.6
5284.02
5689.85
5689
5302.11
4903
4806.49
5298.22
5641.76
5689.25
5688.62
5620.59
5502.71
5477.65
5645.79
5691.83
5691.66
5691.43
4769.84
4413.12
4342.24
4926.44
5520.01
5691.85
5691.62
3708.77
3304.66
3311.8
3878.61
5094.96
5688.67
5691.81
3577.69
3648.48
3666.01
3674.34
4899.2
5625.19
5691.93
3615.04
3625.64
3500.15
3687.92
4943.28
5643.28
5691.96
4094.5
3478.45
3468.14
4283.65
5236.47
5692.18
5691.86
5270.56
4884.74
4780.12
5269.84
5630.07
5691.94
5691.67
5551.59
5391.6
5365.1
5610.54
5694.05
5694.3
5694.39
4681.72
4382.95
4287.15
4811.92
5439.33
5694.14
5694.38
3748.46
3184.43
3183.35
3877.12
4925.85
5683.69
5694.4
3758.04
3595.41
3272.7
3527.93
4786.99
5607.49
5694.41
3710.41
3274.72
3193.08
3607.32
4826.75
5633.97
5694.39
4152.03
3425.03
3412.51
4262.5
5090.91
5694.26
5694.44
5158.43
4800.25
4685.86
5162.03
5605.25
5694.32
5694.45
5465.28
5231.29
5216.15
5570.89
5697.14
5697.7
5698.12
4255.61
4031.07
3921.48
4443.71
5321.39
5697.32
5697.92
3603.88
3125.92
3125.97
3714.64
4587.19
5678.86
5697.82
3784.23
3149.13
3128.41
3236.02
4404.85
5602.41
5697.8
3637.32
3134.71
3133.65
3416.58
4471.8
5633.45
5697.82
4006.06
3262.73
3307.27
4019.82
4863.08
5697.39
5697.9
4895.32
4488.53
4392.08
4930.45
5571.85
5697.64
5698.04
5433.26
5157.83
5166.8
5559.55
5701.81
5703.24
5703.65
3799.9
3324.27
3393.8
4150.23
5284.58
5703.04
5703.44
3115.2
3074.9
3074.77
3184.05
4469.48
5687.96
5703.36
3216.36
3336.55
3227.55
3125.25
4154.49
5616.81
5703.34
3161.08
3082.61
3147.79
3127.24
4253.06
5647.58
5703.34
3457.23
3082.27
3096.98
3515.2
4807.07
5703.12
5703.38
4708.11
4144.7
4149.22
4809.55
5565.06
5703.15
5703.53
5460.01
5201.77
5221.99
5577.29
5708.75
5711.08
5711
3855.14
3303.59
3434.58
4226.18
5327.43
5711.41
5711.08
3029.99
3030.62
3030.24
3067.88
4595.09
5707.72
5711.23
3034.6
3361.46
3361.56
3075.14
4269.21
5663.79
5711.29
3035.96
3036.99
3186.72
3081.24
4357.93
5685.91
5711.27
3182.49
3036.42
3037.96
3496.66
4908.38
5711.66
5711.16
4739.83
4163.77
4201.14
4874.35
5587.16
5711.21
5711.06
5502.78
5323.49
5333.08
5605
5716.93
5718.71
5718.2
4366.91
3895.83
4036.53
4555.51
5420.19
5719.41
5718.59
3142.06
2984.34
2983.59
3519.02
4903.86
5719.69
5718.96
2998.99
3320.62
3321.31
3169.92
4691.31
5709.04
5719.14
2991.24
2991.15
2991.68
3206.6
4747.59
5717.4
5719.13
3454.69
2990.53
3047.43
3952.44
5135.15
5719.93
5718.87
4946.79
4529.35
4566.57
5094.29
5632.78
5719.13
5718.5
5490.17
5322.42
5323.79
5611.63
5722.83
5723.58
5723.17
4558.14
4507.87
4461.69
4572.34
5446.32
5724.05
5723.5
4154.18
3030.01
3192.72
4233.3
4926.47
5723.98
5723.81
3535.9
3035.97
2977.46
3574.47
4841.03
5719.74
5723.99
3644.68
2937.22
2936.17
3711.13
4859.84
5724.25
5723.98
4115.08
3196.08
3427.82
4352.86
5177.96
5724.36
5723.77
5062.36
4855.46
4775.21
5177.73
5656.37
5723.91
5723.44
5440.57
5249.2
5254.94
5601.06
5725.06
5726.23
5726.35
4117.33
4313.6
4170.65
4271.72
5413.59
5726.02
5726.29
4279.04
3143.85
3379.67
4066.37
4749.08
5725.97
5726.32
3821.54
2872.79
2874.56
3539.06
4690.38
5721.45
5726.4
4182.66
2873.8
2875.53
3707.42
4702.62
5725.76
5726.45
4080.81
3377.86
3579.36
4142.94
5110.17
5726.25
5726.44
4988.6
4788.02
4655.49
5116.08
5654.29
5726.31
5726.43
5409.44
5208.97
5220.93
5588.03
5728.24
5729.98
5730.31
3487.12
3531.28
3409.03
3969.21
5368.68
5729.65
5730.08
3226.36
2985.96
3021.63
3222.32
4572.1
5729.57
5729.98
3198.53
2872.03
2953.63
3172.41
4428.63
5726.09
5729.97
3368.66
3214.4
3333.31
3241.45
4464.06
5729.27
5729.97
3509.35
3237.68
3289.76
3548.09
5028.02
5729.6
5729.99
4839.76
4527.64
4359.45
4992.74
5648.69
5729.78
5730.1
5659.46
5659.13
5662.73
5661.48
5660.58
5659.97
5659.57
5659.36
5667.18
5664.83
5663.04
5661.71
5660.76
5660.11
5659.69
5659.48
5667.24
5664.95
5663.17
5661.87
5660.95
5660.31
5659.91
5659.7
5666.8
5664.72
5663.15
5662
5661.17
5660.59
5660.23
5660.03
5665.89
5664.33
5663.08
5662.11
5661.4
5660.91
5660.6
5660.42
5665.9
5665.13
5664.47
5663.94
5663.52
5662.94
5661.6
5661.12
5666.52
5665.53
5664.71
5664.05
5663.56
5663.2
5662.95
5662.49
5667.06
5665.91
5664.95
5664.19
5663.63
5663.23
5662.96
5662.82
5667.51
5666.23
5665.18
5664.36
5663.76
5663.34
5663.07
5662.92
5667.62
5666.34
5665.31
5664.51
5663.92
5663.51
5663.24
5663.1
5667.39
5666.27
5665.35
5664.64
5664.12
5663.74
5663.49
5663.36
5666.86
5665.98
5665.29
5664.73
5664.3
5663.99
5663.78
5663.67
5665.39
5665.4
5665.41
5665.42
5665.42
5664.79
5663.88
5658.64
5665.52
5665.55
5665.52
5665.47
5665.43
5665.4
5665.36
5664.98
5665.6
5665.6
5665.55
5665.48
5665.43
5665.4
5665.37
5665.35
5665.71
5665.68
5665.61
5665.54
5665.48
5665.45
5665.42
5665.4
5665.79
5665.76
5665.69
5665.62
5665.57
5665.53
5665.5
5665.49
5665.83
5665.82
5665.78
5665.73
5665.69
5665.66
5665.63
5665.61
5665.74
5665.72
5665.74
5665.76
5665.77
5665.77
5665.77
5665.76
5667.33
5667.56
5667.8
5668.01
5668.14
5667.5
5667.19
5659.36
5667.26
5667.56
5667.81
5668.01
5668.16
5668.28
5668.35
5668.23
5667.16
5667.48
5667.74
5667.96
5668.12
5668.26
5668.35
5668.4
5667.05
5667.42
5667.71
5667.93
5668.11
5668.26
5668.36
5668.42
5667.09
5667.45
5667.74
5667.96
5668.14
5668.28
5668.38
5668.46
5667.22
5667.55
5667.83
5668.04
5668.21
5668.34
5668.44
5668.51
5667.27
5667.53
5667.81
5668.05
5668.23
5668.38
5668.49
5668.51
5671.87
5671.97
5672.09
5672.21
5672.27
5671.72
5671.63
5663.97
5671.86
5671.97
5672.08
5672.19
5672.29
5672.38
5672.44
5672.48
5671.82
5671.92
5672.03
5672.14
5672.25
5672.35
5672.44
5672.51
5671.76
5671.88
5672.01
5672.13
5672.24
5672.35
5672.45
5672.53
5671.8
5671.91
5672.04
5672.16
5672.27
5672.38
5672.48
5672.57
5671.88
5672
5672.12
5672.24
5672.34
5672.45
5672.55
5672.63
5671.87
5671.98
5672.13
5672.26
5672.38
5672.49
5672.6
5672.48
5677.68
5677.53
5677.43
5677.36
5677.28
5677.06
5676.68
5671.07
5677.85
5677.62
5677.47
5677.37
5677.31
5677.3
5677.31
5677.37
5677.98
5677.69
5677.49
5677.36
5677.3
5677.28
5677.31
5677.36
5678.05
5677.73
5677.52
5677.39
5677.32
5677.3
5677.33
5677.4
5678.1
5677.78
5677.57
5677.44
5677.37
5677.36
5677.4
5677.46
5678.09
5677.81
5677.63
5677.52
5677.46
5677.46
5677.5
5677.56
5677.93
5677.75
5677.63
5677.55
5677.51
5677.53
5677.58
5677.37
5683.27
5682.95
5682.7
5682.51
5682.36
5682.32
5681.83
5678.72
5683.56
5683.12
5682.78
5682.55
5682.39
5682.32
5682.29
5682.33
5683.8
5683.26
5682.86
5682.58
5682.4
5682.3
5682.29
5682.33
5683.97
5683.37
5682.94
5682.64
5682.44
5682.34
5682.32
5682.37
5684
5683.41
5682.99
5682.69
5682.5
5682.41
5682.4
5682.44
5683.9
5683.38
5683.01
5682.75
5682.59
5682.51
5682.5
5682.54
5683.62
5683.25
5682.97
5682.76
5682.64
5682.59
5682.6
5682.44
5687.73
5687.42
5687.18
5687.02
5686.92
5686.87
5686.53
5685.12
5688.03
5687.62
5687.3
5687.08
5686.95
5686.88
5686.87
5686.91
5688.26
5687.76
5687.39
5687.13
5686.96
5686.88
5686.87
5686.92
5688.43
5687.88
5687.48
5687.19
5687.01
5686.92
5686.91
5686.95
5688.45
5687.91
5687.51
5687.24
5687.06
5686.97
5686.96
5687.01
5688.33
5687.86
5687.51
5687.27
5687.12
5687.04
5687.04
5687.08
5688.02
5687.68
5687.43
5687.25
5687.15
5687.1
5687.1
5687.1
5691.13
5691
5690.94
5690.92
5690.92
5690.92
5690.39
5690.17
5691.37
5691.2
5691.08
5691.01
5690.97
5690.98
5691.02
5691.07
5691.52
5691.3
5691.14
5691.04
5690.99
5690.98
5691.03
5691.1
5691.63
5691.38
5691.2
5691.08
5691.02
5691.01
5691.05
5691.13
5691.65
5691.41
5691.23
5691.11
5691.05
5691.04
5691.08
5691.15
5691.58
5691.38
5691.23
5691.14
5691.09
5691.08
5691.12
5691.18
5691.34
5691.19
5691.12
5691.08
5691.08
5691.1
5691.12
5691.2
5694.35
5694.45
5694.59
5694.72
5694.85
5694.89
5691.81
5694.32
5694.49
5694.61
5694.72
5694.81
5694.9
5695
5695.1
5695.18
5694.55
5694.64
5694.73
5694.81
5694.89
5695
5695.12
5695.24
5694.58
5694.66
5694.74
5694.81
5694.9
5695
5695.12
5695.25
5694.57
5694.66
5694.74
5694.82
5694.9
5695
5695.12
5695.24
5694.56
5694.66
5694.75
5694.84
5694.93
5695.02
5695.13
5695.22
5694.41
5694.5
5694.63
5694.76
5694.88
5694.99
5695.07
5695.2
5698.29
5698.56
5698.82
5699.05
5699.25
5699.28
5688.18
5698.94
5698.3
5698.62
5698.88
5699.1
5699.29
5699.47
5699.54
5699.76
5698.25
5698.57
5698.83
5699.05
5699.25
5699.45
5699.65
5699.82
5698.23
5698.53
5698.8
5699.02
5699.24
5699.44
5699.64
5699.81
5698.23
5698.53
5698.79
5699.02
5699.23
5699.43
5699.62
5699.79
5698.25
5698.55
5698.81
5699.04
5699.24
5699.43
5699.61
5699.72
5698.22
5698.47
5698.74
5698.97
5699.18
5699.38
5699.53
5699.69
5703.81
5704.03
5704.25
5704.43
5704.63
5703.96
5688.95
5704.57
5703.73
5703.99
5704.22
5704.43
5704.63
5704.83
5704.86
5705.12
5703.64
5703.9
5704.15
5704.37
5704.58
5704.79
5705.01
5705.19
5703.61
5703.87
5704.11
5704.34
5704.55
5704.77
5704.99
5705.18
5703.6
5703.86
5704.11
5704.33
5704.54
5704.75
5704.97
5705.16
5703.66
5703.91
5704.14
5704.36
5704.55
5704.75
5704.96
5705.07
5703.7
5703.92
5704.14
5704.34
5704.53
5704.72
5704.91
5704.77
5710.81
5710.76
5710.74
5710.73
5710.81
5707.96
5697.34
5710.95
5710.83
5710.73
5710.71
5710.73
5710.8
5710.9
5710.91
5710.96
5710.86
5710.72
5710.68
5710.7
5710.76
5710.86
5711.01
5711.16
5710.89
5710.74
5710.69
5710.69
5710.74
5710.84
5710.99
5711.15
5710.9
5710.75
5710.69
5710.69
5710.74
5710.84
5710.99
5711.14
5710.9
5710.77
5710.71
5710.71
5710.76
5710.85
5711
5711.1
5710.87
5710.79
5710.75
5710.74
5710.78
5710.87
5711.01
5710.01
5717.72
5717.41
5717.17
5716.99
5716.93
5710.95
5708.91
5714.15
5717.91
5717.48
5717.19
5717.01
5716.91
5716.89
5716.91
5716.68
5718.08
5717.57
5717.24
5717.02
5716.89
5716.86
5716.92
5717.01
5718.2
5717.65
5717.28
5717.04
5716.89
5716.85
5716.9
5717
5718.22
5717.66
5717.29
5717.04
5716.9
5716.86
5716.92
5717.01
5718.14
5717.63
5717.28
5717.05
5716.93
5716.9
5716.95
5717.04
5717.95
5717.59
5717.3
5717.09
5716.98
5716.93
5717.01
5715.4
5722.77
5722.52
5722.32
5722.17
5722.05
5715.13
5718.73
5708.66
5722.99
5722.64
5722.37
5722.19
5722.08
5722.05
5722.08
5721.76
5723.16
5722.73
5722.42
5722.2
5722.07
5722.02
5722.05
5722.13
5723.27
5722.8
5722.46
5722.22
5722.07
5722.02
5722.05
5722.13
5723.29
5722.8
5722.46
5722.22
5722.09
5722.04
5722.07
5722.15
5723.2
5722.76
5722.45
5722.24
5722.12
5722.08
5722.11
5722.17
5722.98
5722.66
5722.41
5722.24
5722.15
5722.02
5722.15
5720.68
5726.31
5726.34
5726.38
5726.42
5725.81
5720.27
5725.26
5711.93
5726.37
5726.41
5726.41
5726.42
5726.44
5726.5
5726.59
5726.31
5726.41
5726.41
5726.4
5726.39
5726.41
5726.46
5726.56
5726.66
5726.45
5726.43
5726.4
5726.39
5726.4
5726.46
5726.55
5726.66
5726.47
5726.44
5726.41
5726.39
5726.41
5726.47
5726.56
5726.66
5726.46
5726.43
5726.41
5726.41
5726.44
5726.49
5726.57
5726.66
5726.37
5726.35
5726.36
5726.39
5726.44
5726.37
5726.56
5725.84
5730.42
5730.56
5730.68
5730.79
5728.76
5726.64
5730.72
5716.15
5730.34
5730.52
5730.64
5730.75
5730.85
5730.97
5731.09
5730.93
5730.26
5730.44
5730.57
5730.68
5730.79
5730.92
5731.06
5731.19
5730.23
5730.4
5730.53
5730.64
5730.76
5730.88
5731.03
5731.16
5730.23
5730.39
5730.52
5730.64
5730.75
5730.87
5731.01
5731.13
5730.23
5730.39
5730.53
5730.65
5730.75
5730.87
5730.99
5731.1
5730.21
5730.35
5730.49
5730.62
5730.73
5730.73
5730.95
5730.92
5670.08
5670.18
5669.49
5668.76
5667.94
5667.72
5667.57
5667.5
5531.66
5670.15
5669.7
5669
5667.73
5667.93
5667.75
5667.7
5267.37
5670.25
5670.09
5669.38
5661.36
5667.04
5667.88
5667.82
5200.15
5663.68
5669.92
5669.32
5668.13
5666.55
5667.42
5667.73
5363.79
5669.76
5669.36
5668.78
5668.17
5667.4
5667.36
5667.4
5651.87
5669.41
5668.81
5668.17
5667.62
5667.22
5667
5666.94
5669.33
5668.87
5668.21
5667.58
5667.07
5666.72
5666.53
5666.47
5665.12
5666.01
5666.6
5666.94
5667
5667.4
5667.58
5667.7
5429.3
5665.38
5666.3
5666.64
5667.14
5667.42
5667.6
5667.77
4856.09
5662.29
5665.97
5666.6
5666.92
5667.34
5667.56
5667.76
4694.86
5639.08
5665.75
5666.5
5666.62
5665.65
5667.09
5667.68
5066.63
5664.44
5665.69
5666.42
5666.85
5666.77
5667.29
5667.56
5625.3
5665.21
5666
5666.48
5666.81
5667.04
5667.23
5667.38
5665.03
5665.78
5666.21
5666.5
5666.71
5666.88
5667.03
5667.15
5666.7
5667.09
5667.67
5668.1
5668.54
5668.99
5669.3
5669.53
5366.98
5667.39
5667.78
5667.89
5668.52
5669.02
5669.35
5669.62
4567.78
5656.23
5667.61
5667.78
5668.52
5668.93
5669.3
5669.62
4354.18
5615.03
5667.57
5668.02
5668.27
5667.26
5668.93
5669.5
4911.71
5667.67
5667.85
5668.21
5668.58
5668.59
5669.23
5669.57
5599.18
5667.34
5667.78
5668.22
5668.6
5668.94
5669.24
5669.48
5667.16
5667.5
5667.87
5668.25
5668.59
5668.89
5669.15
5669.35
5671.86
5671.93
5672.21
5672.38
5672.75
5673.07
5673.35
5673.59
5373.4
5672.43
5672.45
5672.25
5672.64
5673.11
5673.42
5673.71
4590.17
5658.56
5672.36
5672.29
5672.79
5673.09
5673.43
5673.7
4374.41
5615.73
5672.21
5672.47
5672.58
5671.67
5673.22
5673.11
4941.56
5672.8
5672.63
5672.72
5672.85
5672.84
5673.4
5673.56
5593.5
5672.28
5672.43
5672.62
5672.82
5673.06
5673.33
5673.59
5672.17
5672.26
5672.42
5672.62
5672.81
5673.02
5673.25
5673.47
5678.88
5679.02
5678.77
5678.5
5678.52
5678.58
5678.73
5678.92
5388.88
5679.65
5679.08
5678.39
5678.45
5678.65
5678.83
5679.06
4685.44
5663.13
5679.26
5678.79
5678.7
5678.7
5678.88
5678.9
4503.3
5621.94
5679.08
5678.8
5678.41
5678.52
5678.83
5678.42
4996.78
5676.18
5679.01
5678.74
5678.41
5678.48
5678.77
5678.55
5595.99
5678.81
5678.6
5678.46
5678.39
5678.44
5678.6
5678.82
5678.82
5678.65
5678.49
5678.38
5678.33
5678.36
5678.5
5678.68
5684.96
5685.4
5684.88
5684.4
5684.14
5684.01
5684.05
5684.18
5382.4
5685.99
5685.18
5684.43
5684.17
5684.1
5684.15
5684.32
4659.59
5661.63
5685.57
5684.86
5684.41
5684.2
5684.24
5684.12
4485.89
5618.32
5685.55
5684.84
5684.09
5684.15
5684.21
5683.7
4960.21
5680.17
5685.2
5684.61
5683.98
5684.01
5684.1
5683.73
5596.18
5685.22
5684.66
5684.23
5683.95
5683.84
5683.9
5684.05
5685.26
5684.82
5684.4
5684.05
5683.81
5683.7
5683.75
5683.89
5688.15
5689.67
5689.25
5688.86
5688.58
5688.44
5688.45
5688.55
5374.84
5690.13
5689.48
5689
5688.67
5688.52
5688.56
5688.7
4617.97
5658.04
5689.83
5689.23
5688.83
5688.64
5688.66
5688.57
4421.44
5606.74
5689.84
5689.24
5688.54
5688.59
5688.65
5688.08
4907.17
5682.48
5689.55
5689.04
5688.53
5688.51
5688.55
5688.21
5586.32
5689.6
5689.11
5688.72
5688.45
5688.32
5688.36
5688.5
5689.63
5689.27
5688.89
5688.53
5688.29
5688.18
5688.21
5688.33
5686.75
5692.14
5692.07
5691.96
5691.89
5691.89
5691.96
5692.08
5365.36
5692.36
5692.22
5692.07
5691.97
5691.95
5692.04
5692.2
4652.86
5643.94
5692.4
5692.23
5692.09
5692.05
5692.13
5692.19
4451.73
5585.62
5692.43
5692.26
5691.81
5692.03
5692.14
5691.56
4905.02
5674.07
5692.35
5692.18
5692.02
5692
5692.08
5691.96
5554.8
5692.18
5692.09
5691.96
5691.88
5691.86
5691.95
5692.1
5692.14
5692.1
5691.96
5691.83
5691.76
5691.77
5691.85
5691.98
5678.22
5694.17
5694.46
5694.69
5694.88
5695.05
5695.23
5695.39
5297.15
5694.14
5694.5
5694.72
5694.87
5695.03
5695.22
5695.42
4679.13
5589.06
5694.58
5694.78
5694.91
5695.05
5695.23
5695.43
4530.73
5515.58
5694.54
5694.77
5694.85
5695.02
5695.22
5694.69
4851.38
5638.36
5694.55
5694.74
5694.88
5695.02
5695.2
5695.34
5471.86
5694.05
5694.44
5694.65
5694.82
5694.99
5695.18
5695.37
5693.88
5694.34
5694.49
5694.67
5694.85
5695.01
5695.19
5695.37
5659.22
5696.95
5697.58
5698.07
5698.48
5698.81
5699.09
5699.32
5032.73
5694.49
5697.24
5697.82
5698.26
5698.63
5698.95
5699.24
4470.46
5466.17
5696.92
5697.58
5698.05
5698.45
5698.82
5699.15
4348.74
5341.58
5696.73
5697.44
5697.94
5698.36
5698.75
5698.77
4507.42
5567.25
5696.88
5697.53
5698.02
5698.42
5698.8
5699.12
5313.68
5696.27
5697.16
5697.75
5698.2
5698.58
5698.91
5699.2
5695.67
5697.17
5697.64
5698.08
5698.46
5698.78
5699.07
5699.32
5641.8
5702.69
5703.13
5703.5
5703.83
5704.13
5704.43
5704.69
4727.09
5697.79
5702.77
5703.19
5703.57
5703.92
5704.29
5704.63
3866.44
5368.13
5702.48
5702.87
5703.28
5703.69
5704.13
5704.55
3672.09
5181.89
5702.33
5702.73
5703.15
5703.58
5704.06
5704.5
3978.58
5512.1
5702.46
5702.87
5703.28
5703.69
5704.14
5704.54
5198.73
5702.17
5702.68
5703.11
5703.5
5703.88
5704.26
5704.6
5699.74
5702.8
5703.15
5703.48
5703.79
5704.1
5704.41
5704.7
5647.48
5711.29
5711.11
5710.97
5710.92
5710.98
5711.15
5711.35
4734.22
5708.35
5711.15
5710.89
5710.83
5710.91
5711.15
5711.44
3696.58
5384.74
5711.33
5710.89
5710.78
5710.88
5711.17
5711.53
3423.76
5193.82
5711.3
5710.83
5710.73
5710.84
5711.15
5711.53
3969.59
5524.33
5711.25
5710.88
5710.79
5710.9
5711.18
5711.5
5211.58
5710.49
5710.98
5710.81
5710.78
5710.9
5711.14
5711.42
5705.54
5711.2
5711.05
5710.92
5710.88
5710.96
5711.16
5711.4
5664.17
5719.64
5718.96
5718.38
5717.98
5717.8
5717.8
5717.91
4944.58
5716.98
5719.34
5718.56
5718.1
5717.9
5717.95
5718.12
4093.96
5470.12
5720.01
5719
5718.41
5718.14
5718.17
5718.35
3856.89
5310.32
5720.01
5719.04
5718.47
5718.2
5718.21
5718.37
4422.68
5555.64
5719.65
5718.83
5718.34
5718.12
5718.15
5718.28
5275.78
5715.18
5718.95
5718.39
5718.03
5717.89
5717.95
5718.12
5712.08
5719.2
5718.72
5718.25
5717.94
5717.81
5717.86
5718.01
5679.48
5724.55
5724.03
5723.54
5723.19
5723
5722.96
5723.01
5048.13
5718.17
5724.3
5723.72
5723.31
5723.1
5723.09
5723.18
4644.08
5484.26
5724.85
5724.15
5723.65
5723.32
5723.31
5723.32
4617.64
5335.06
5724.88
5724.23
5723.74
5723.45
5723.06
5723.28
4683.15
5545.6
5724.55
5723.99
5723.58
5723.35
5723.21
5723.31
5269.19
5718.92
5723.97
5723.59
5723.3
5723.15
5723.15
5723.25
5717.58
5724.15
5723.8
5723.45
5723.21
5723.09
5723.1
5723.19
5677.53
5726.06
5726.35
5726.49
5726.59
5726.67
5726.76
5726.85
4910.89
5716.3
5726
5726.31
5726.47
5726.61
5726.74
5726.88
4432.9
5423.12
5725.82
5726.26
5726.46
5726.55
5726.57
5726.83
4487.91
5233.7
5725.61
5726.17
5726.44
5726.62
5726.38
5726.78
4307.56
5486.83
5725.69
5726.2
5726.47
5726.65
5726.42
5726.9
5168.59
5720.42
5726.06
5726.4
5726.6
5726.75
5726.87
5727.04
5719.76
5726.2
5726.48
5726.64
5726.76
5726.88
5727
5727.12
5672.16
5729.44
5729.91
5730.26
5730.51
5730.7
5730.86
5730.99
4658.38
5717.95
5729.53
5730.02
5730.34
5730.6
5730.8
5730.99
3656.8
5339.07
5729.3
5729.8
5730.07
5730.39
5730.31
5730.86
3644.54
5088.55
5729.18
5729.71
5730.09
5730.42
5730.29
5730.82
3630.47
5423.15
5729.33
5729.85
5730.22
5730.53
5730.38
5730.97
5048.22
5724.01
5729.71
5730.13
5730.45
5730.71
5730.9
5731.12
5722.71
5729.7
5730.16
5730.44
5730.69
5730.9
5731.09
5731.25
5668.86
5668.16
5667.51
5666.9
5666.43
5666.1
5665.79
5665.83
5669.32
5668.37
5667.5
5666.72
5665.62
5665.43
5663.96
5665.29
5669.31
5668.23
5667.25
5666.37
5659.3
5664.92
5664.67
5659.75
5668.75
5667.67
5666.7
5665.32
5658.8
5663.74
5663.97
5654.79
5667.99
5666.96
5666
5659.03
5658.25
5657.81
5662.27
5651.49
5667.06
5666.15
5665.13
5658.43
5660.99
5660.96
5652.22
5651.09
5666.18
5665.41
5664.54
5664.23
5663.72
5662.16
5652.35
5660.61
5664.82
5665.45
5665.92
5666.22
5666.44
5666.6
5666.58
5666.83
5664.86
5665.67
5666.09
5666.25
5666.06
5666.24
5663.9
5663.05
5665.04
5665.69
5666
5666.11
5662.14
5665.91
5665.08
5654.05
5665.24
5665.69
5665.91
5663.53
5659.98
5665.43
5665.52
5653.45
5665.48
5665.74
5665.83
5659.28
5659.29
5661.5
5664.26
5653.22
5665.56
5665.68
5665.55
5659.26
5665.03
5664.41
5655.7
5659
5665.6
5665.56
5665.35
5665.59
5665.49
5661.59
5654.29
5662.88
5667.04
5667.4
5667.78
5668.14
5668.45
5668.72
5668.84
5669.16
5666.84
5667.42
5667.84
5667.81
5668.41
5668.44
5666.32
5657.25
5666.82
5667.35
5667.76
5667.94
5667.84
5666.57
5665.4
5656.18
5666.96
5667.39
5667.76
5662.48
5665.38
5667.58
5667.61
5659.86
5667.1
5667.49
5667.81
5661.82
5661.52
5667.35
5667.33
5657.18
5667.24
5667.56
5667.72
5664.95
5667.9
5666.88
5658.88
5665.48
5667.46
5667.66
5667.7
5668.07
5668
5660.78
5660.95
5658.53
5672.15
5672.17
5672.29
5672.37
5672.56
5672.83
5672.98
5673.26
5671.93
5672.06
5672.22
5671.9
5672.02
5672.21
5670.06
5662.76
5671.94
5672.02
5672.16
5672.05
5672.18
5669.49
5669.42
5659.91
5672.01
5672.05
5672.16
5667.85
5671.84
5670.41
5671.66
5671.58
5671.92
5672.02
5672.1
5669.5
5668.42
5672.31
5671.19
5670.89
5671.87
5671.99
5671.96
5671.96
5672.07
5668.08
5661.9
5670.1
5671.96
5672.06
5672.08
5672.14
5671.4
5664.38
5668.94
5658.28
5678.75
5678.44
5678.23
5677.67
5677.91
5678.12
5678.23
5678.36
5678.72
5678.33
5678.1
5677.51
5676.63
5676.37
5675.25
5676.19
5678.68
5678.25
5677.99
5677.6
5677.37
5674.57
5676.48
5672.09
5678.53
5678.14
5677.88
5677.39
5677.51
5675.81
5677.05
5677.57
5678.2
5677.91
5677.58
5677.45
5677.35
5677.35
5670.69
5677.53
5677.91
5677.7
5676.92
5677.23
5676.52
5667.15
5666.49
5669.08
5677.77
5677.66
5677.47
5677.15
5674.44
5669.79
5674.9
5662.78
5685.1
5684.51
5684.04
5683.19
5683.33
5683.42
5683.44
5683.46
5685.27
5684.49
5683.95
5683.15
5682.04
5681.38
5682.3
5683.3
5685.13
5684.34
5683.77
5683.27
5682.55
5681.48
5682.85
5682.97
5684.74
5684.04
5683.49
5683.12
5682.77
5682.35
5682.3
5682.7
5684.21
5683.65
5683.15
5681.44
5682.57
5682.44
5673.2
5682.52
5683.72
5683.29
5682.25
5682.47
5677.35
5671.64
5672.72
5667.43
5683.39
5683.12
5682.78
5682.17
5677.15
5678.96
5680.5
5667.38
5689.49
5688.96
5688.44
5687.66
5687.82
5687.9
5687.9
5687.91
5689.68
5688.99
5688.46
5687.79
5686.94
5685.84
5687.66
5687.77
5689.55
5688.84
5688.3
5687.9
5687.08
5687.03
5682.26
5687.33
5689.15
5688.53
5687.97
5687.65
5687.34
5687.24
5687.02
5687.3
5688.66
5688.17
5687.76
5685.16
5682.27
5684.71
5677.54
5686.24
5688.22
5687.82
5686.77
5686.8
5678.32
5677.77
5681.14
5671.6
5687.89
5687.61
5687.29
5686.51
5681.95
5686.19
5685.27
5671.56
5692.02
5691.8
5691.5
5691
5691.41
5691.55
5691.6
5691.69
5692.16
5691.93
5691.65
5691.44
5691.09
5689.51
5691.47
5691.57
5692.09
5691.84
5691.62
5691.44
5691.04
5690.91
5684.02
5691.26
5691.9
5691.68
5691.39
5691.27
5691.08
5691.12
5691.17
5691.28
5691.68
5691.48
5691.31
5688.9
5682.1
5683.97
5681.94
5680.26
5691.45
5691.29
5690.63
5689.39
5682.06
5688.6
5687
5675.34
5691.29
5691.18
5691.04
5690.08
5688.04
5690.89
5688.18
5679.05
5693.86
5694.08
5694.14
5694.29
5694.69
5694.91
5695.08
5695.24
5694.07
5694.36
5694.47
5694.67
5694.51
5694.3
5695.06
5695.2
5694.21
5694.43
5694.56
5694.65
5694.73
5694.74
5687.5
5695.17
5694.28
5694.45
5694.5
5694.59
5694.41
5694.79
5689.87
5695.14
5694.34
5694.47
5694.59
5692.77
5685.61
5691.8
5688.66
5680.9
5694.39
5694.51
5694.41
5690.5
5686.37
5694.48
5691.91
5679.3
5694.48
5694.58
5694.67
5693.29
5693.84
5694.86
5681.75
5691.75
5696.44
5697.09
5697.51
5698.13
5698.49
5698.82
5699.1
5699.3
5696.74
5697.45
5697.94
5698.36
5698.35
5698.9
5698.96
5699.38
5697.05
5697.62
5698.06
5698.4
5698.69
5698.94
5691.49
5692.84
5697.35
5697.82
5698.2
5698.41
5698
5698.96
5689.74
5690
5697.68
5698.08
5698.43
5697.3
5693.79
5698.93
5696.89
5691.95
5698.02
5698.35
5698.4
5693.76
5695.76
5699.02
5693.24
5695.32
5698.38
5698.63
5698.84
5696.92
5698.74
5698.53
5682.12
5697.97
5702.39
5702.83
5703.21
5703.56
5703.86
5704.07
5704.48
5704.73
5702.47
5702.92
5703.32
5703.65
5703.61
5704.18
5700.7
5704.04
5702.68
5703.02
5703.39
5703.7
5703.99
5704.28
5696.1
5693.27
5702.89
5703.21
5703.55
5703.72
5703.27
5704.12
5695.05
5693.34
5703.14
5703.46
5703.76
5702.41
5703.8
5704.26
5703.74
5702.81
5703.45
5703.74
5703.61
5698.97
5703.3
5704.32
5687.57
5704.06
5703.83
5704.07
5704.26
5701.95
5704.27
5700.64
5687.08
5703.37
5711.55
5711.18
5710.93
5710.8
5710.75
5710.72
5711.11
5711.33
5711.49
5710.97
5710.73
5710.65
5710.36
5710.78
5704.44
5701.73
5711.37
5710.88
5710.68
5710.61
5710.66
5710.51
5702.12
5699.38
5711.17
5710.83
5710.68
5710.53
5710.14
5709.21
5703.26
5699.35
5710.91
5710.75
5710.66
5707.09
5709.91
5710.54
5709.77
5709.52
5710.8
5710.72
5710.29
5705.33
5709.82
5709.83
5692.69
5710.26
5710.82
5710.83
5710.82
5708.34
5710.69
5698.97
5692.72
5709.34
5719.96
5719.07
5718.39
5717.94
5717.51
5717.43
5717.69
5717.76
5719.87
5718.77
5718.08
5717.68
5717.24
5717.35
5711.07
5705.55
5719.57
5718.6
5717.97
5717.58
5717.36
5715.78
5709.45
5705.39
5719.1
5718.34
5717.8
5717.31
5717.14
5714.07
5713.32
5705.44
5718.52
5717.97
5717.55
5712.41
5715.63
5716.78
5715.7
5716.23
5718.07
5717.67
5717.08
5711.66
5716.35
5712.73
5698.97
5716.31
5717.77
5717.54
5717.3
5715.28
5716.79
5698.57
5698.27
5714.78
5724.49
5723.91
5723.47
5723.17
5722.73
5722.81
5722.93
5722.95
5724.46
5723.8
5723.32
5723.01
5722.78
5721.77
5717.66
5710.51
5724.25
5723.65
5723.2
5722.88
5722.68
5718.57
5717.45
5710.34
5723.88
5723.39
5722.98
5722.47
5722.52
5719.56
5721.43
5717.19
5723.48
5723.07
5722.74
5717.59
5720.74
5719.53
5720.16
5721.5
5723.12
5722.81
5722.22
5719.93
5721.67
5706.93
5710.13
5721.44
5722.86
5722.65
5722.35
5721.74
5721.17
5702.97
5703.01
5716.29
5725.74
5726.12
5726.42
5726.61
5726.48
5726.86
5726.98
5727.09
5725.94
5726.35
5726.59
5726.7
5726.77
5722.84
5723.73
5714.85
5726.07
5726.39
5726.56
5726.64
5726.69
5722.12
5724.36
5714.39
5726.12
5726.36
5726.46
5726.21
5726.59
5725.66
5726.35
5724.14
5726.24
5726.38
5726.44
5721.48
5725.24
5713.65
5723.72
5725.9
5726.34
5726.41
5725.83
5725.28
5725.94
5707.11
5721.39
5725.83
5726.4
5726.42
5726.22
5726.46
5722.48
5707.03
5708.3
5712.4
5729.39
5729.86
5730.26
5730.55
5730.51
5730.98
5731.08
5731.3
5729.66
5730.17
5730.5
5730.7
5730.87
5726.3
5730.11
5725.48
5729.84
5730.22
5730.5
5730.7
5730.87
5726.3
5730.37
5719.4
5729.86
5730.22
5730.44
5730.33
5730.77
5730.83
5730.78
5723.45
5730.02
5730.34
5730.55
5725.59
5730.02
5719.52
5728.44
5721.8
5730.29
5730.49
5729.59
5729.52
5730.27
5711.12
5729.68
5720.9
5730.49
5730.6
5730.44
5730.8
5718.95
5711.1
5727.85
5716.02
5666.44
5665
5663.73
5662.71
5661.95
5661.43
5661.09
5660.67
5668.62
5666.59
5664.91
5663.63
5662.65
5662.01
5661.54
5660.83
5671.04
5668.6
5666.49
5664.85
5663.48
5662.52
5661.96
5661.77
5673.44
5670.54
5668.05
5666.1
5664.66
5663.23
5662.72
5661.68
5669.22
5667.12
5665.59
5664.51
5663.92
5663.7
5664.7
5664.48
5667.38
5666.61
5665.87
5665.25
5664.78
5664.43
5664.2
5663.81
5668.5
5667.52
5666.63
5665.9
5665.31
5664.92
5664.56
5663.09
5669.69
5668.63
5667.61
5666.74
5665.82
5665.44
5664.82
5664.17
5670.55
5669.6
5668.5
5667.52
5666.7
5665.66
5665.26
5664.37
5671.29
5670.29
5669.16
5668.17
5667.37
5666.69
5666.4
5665.78
5671.11
5670.23
5669.27
5668.45
5667.78
5667.27
5666.92
5666.79
5670.42
5669.85
5669.13
5668.46
5667.91
5667.52
5667.3
5667.23
5666.06
5666.09
5666.06
5666.05
5666.04
5666.03
5665.98
5665.87
5665.98
5666.13
5666.2
5666.19
5666.2
5666.23
5666.11
5664.62
5665.87
5666.22
5666.39
5666.46
5666.24
5666.46
5666.12
5664.84
5665.44
5666.17
5666.5
5666.64
5666.55
5666.26
5666.09
5666.13
5665.13
5666.17
5666.62
5666.83
5666.91
5666.86
5667
5666.47
5664.91
5666.08
5666.65
5666.93
5667.08
5667.18
5667.27
5667.37
5665.05
5665.91
5666.47
5666.86
5667.12
5667.3
5667.43
5667.54
5667.43
5667.73
5667.97
5668.18
5668.36
5668.5
5668.47
5668.65
5667.04
5667.45
5667.81
5668.05
5668.32
5668.52
5668.39
5667.7
5666.76
5667.26
5667.71
5668.06
5668.16
5668.57
5668.41
5667.16
5666.43
5667.06
5667.6
5668.02
5668.1
5668.34
5668.16
5668.6
5665.99