/*--------------------------------*- C++ -*----------------------------------*\
| =========                 |                                                 |
| \\      /  F ield         | OpenFOAM: The Open Source CFD Toolbox           |
|  \\    /   O peration     | Version:  plus.master.MPPICInterFoam            |
|   \\  /    A nd           | Web:      www.OpenFOAM.com                      |
|    \\/     M anipulation  |                                                 |
\*---------------------------------------------------------------------------*/
FoamFile
{
    version     2.0;
    format      ascii;
    class       volScalarField;
    location    "9";
    object      rho;
}
// * * * * * * * * * * * * * * * * * * * * * * * * * * * * * * * * * * * * * //

dimensions      [1 -3 0 0 0 0 0];

internalField   nonuniform List<scalar> 
11821
(
999.998
999.98
1000
997.022
999.998
1000
1000
998.06
994.134
1000
1000
999.999
1000
896.669
863.132
838.204
916.744
989.827
1000
1000
809.714
642.918
574.12
777.493
940.094
1000
1000
736.413
456.994
373.989
610.953
916.171
1000
1000
721.906
508.357
442.985
659.372
926.856
1000
1000
794.735
604.621
572.677
817.734
953.348
1000
1000
954.731
913.154
886.972
945.795
997.211
1000
1000
1000
991.206
985.245
1000
1000
999.999
1000
804.904
738.332
708.132
848.144
980.827
1000
1000
612.863
486.353
453.953
637.846
889.385
1000
1000
534.9
637.835
636.337
508.252
849.175
1000
1000
518.556
628.85
627.043
545.451
867.5
1000
1000
653.344
478.12
467.272
687.04
919.256
1000
1000
925.847
856.693
816.448
913.108
994.087
1000
1000
998.843
979.248
971.561
1000
1000
999.999
1000
755.256
625.768
604.499
794.663
969.729
1000
1000
404.36
387.987
387.539
454.208
842.688
1000
1000
407.888
637.835
637.835
411.437
763.969
999.713
1000
411.321
608.562
564.621
412.799
790.51
1000
1000
532.646
395.719
395.189
555.144
888.192
1000
1000
897.711
780.7
737.935
887.655
990.054
1000
1000
996.826
975.986
968.707
999.671
1000
999.999
1000
764.857
631.087
614.13
798.905
968.155
1000
1000
424.694
387.033
386.984
463.002
843.267
1000
1000
411.193
637.796
494.355
408.907
760.284
998.149
1000
411.408
425.339
396.557
407.883
785.117
1000
1000
543.856
395.128
394.61
567.959
889.783
1000
1000
897.403
775.292
741.26
891.016
989.634
1000
1000
994.572
974.578
967.827
998.285
1000
1000
1000
779.365
656.587
642.584
813.678
968.819
1000
1000
529.927
386.97
386.924
538.134
855.387
1000
1000
411.175
405.96
386.976
407.907
777.093
997.201
1000
421.648
391.022
388.826
425.446
801.056
999.658
1000
589.93
399.171
399.917
622.69
898.881
1000
1000
902.291
792.698
768.81
900.243
989.814
1000
1000
992.857
971.02
964.843
996.542
1000
1000
1000
774.428
664.475
650.714
815.142
968.382
1000
1000
566.207
403.402
405.124
566.164
860.432
1000
1000
437.126
390.341
388.696
438.95
791.871
994.471
1000
468.255
390.479
390.325
481.801
812.253
997.275
1000
596.932
430.735
433.825
635.969
900.416
1000
1000
903.472
801.979
779.099
902.21
989.436
1000
1000
990.143
965.097
959.236
993.898
1000
1000
1000
770.54
668.589
655.043
814.361
965.746
1000
1000
527.818
435.915
437.116
553.602
860.525
999.749
1000
471.672
436.005
460.81
497.244
803.172
989.274
1000
486.383
437.566
469.995
511.49
816.875
992.628
1000
594.314
450.971
455.907
638.823
898.177
1000
1000
902.608
802.605
778.471
901.752
987.966
1000
1000
982.472
953.681
947.585
988.702
1000
1000
1000
774.395
687.188
669.912
812.823
958.002
1000
1000
514.85
415.915
417.797
556.607
854.067
999.16
1000
482.773
500.498
505.04
506.806
806.229
983.627
1000
492.027
494.956
464.184
510.046
816.949
988.03
1000
609.258
458.521
455.993
655.599
888.62
1000
1000
896.884
802.654
777.067
896.785
984.862
1000
1000
966.089
927.957
921.606
980.125
1000
1000
1000
758.544
687.335
664.42
789.678
939.358
1000
1000
535.489
400.605
400.485
566.418
816.88
997.512
1000
537.767
499.44
422.187
483.28
783.842
979.337
1000
526.449
422.734
402.881
502.129
793.267
985.629
1000
631.933
458.29
455.278
658.438
856.175
1000
1000
872.31
786.967
759.585
873.162
978.854
1000
1000
946.256
891.673
888.06
970.692
1000
1000
1000
664.458
612.267
586.454
708.026
912.539
1000
1000
512.519
400.499
400.425
538.034
741.326
995.727
1000
554.689
405.76
400.674
426.143
698.889
977.89
1000
520.222
402.175
401.886
468.336
714.44
985.117
1000
606.143
432.267
442.692
609.127
805.574
999.998
1000
813.343
718.54
695.906
821.338
970.819
1000
1000
938.681
875.916
877.862
967.368
999.762
1000
1000
566.112
457.597
473.321
645.84
904.612
1000
1000
409.927
400.436
400.349
425.378
718.584
996.553
1000
433.131
460.022
435.107
411.843
646.711
980.317
1000
420.477
402.054
416.984
412.395
669.207
987.33
1000
487.91
402.06
405.388
500.94
795.626
1000.01
1000
773.186
644.676
645.637
796.261
968.593
1000
1000
943.652
886.033
890.536
969.928
999.42
1000
1000
584.823
461.469
490.758
667.803
914.085
1000
1000
400.448
400.376
400.323
408.796
750.317
999.06
1000
401.432
474.408
474.342
410.438
677.482
989.21
1000
401.904
401.976
435.539
411.852
697.294
994.157
1000
434.658
401.958
402.241
504.745
820.386
999.998
1000
782.699
654.043
662.37
812.819
972.209
1000
1000
952.247
913.055
915.21
974.789
999.467
1000
1000
703.257
600.021
630.904
744.822
934.342
1000
1000
434.8
400.323
400.238
517.562
821.14
999.887
1000
403.31
474.347
474.395
441.106
774.521
997.471
1000
401.73
401.848
401.969
449.116
786.824
999.311
1000
503.447
401.806
414.278
612.517
871.786
999.999
1000
830.344
738.991
747.204
862.844
980.921
1000
1000
949.743
913.876
914.224
975.879
999.755
999.999
1000
749.998
739.166
729.442
753.31
940.509
1000
1000
662.608
421.871
456.96
680.305
829.136
999.88
1000
529.92
423.348
410.905
539.096
810.763
998.909
1000
553.227
401.934
401.947
568.358
814.79
999.877
1000
654.537
457.546
507.443
705.994
882.937
999.982
1000
857.913
813.631
796.566
882.873
985.457
1000
1000
940.407
900.29
901.445
973.925
999.819
1000
1000
663.591
704.93
674.828
695.592
934.706
1000
1000
698.203
459.362
508.904
653.019
795.557
1000
1000
602.075
401.934
401.989
542.286
783.259
999.025
1000
677.511
401.91
401.927
577.474
785.735
999.9
1000
655.841
508.073
550.384
668.633
871.052
999.999
1000
845.762
803.785
775.922
872.345
985.001
1000
1000
934.407
893.224
895.622
970.99
999.726
1000
1000
539.778
548.94
523.678
638.568
925.992
1000
1000
486.702
436.97
444.204
485.394
762.428
1000.01
1000
481.034
412.974
429.748
475.169
732.987
999.286
1000
515.956
483.553
507.979
489.306
740.259
999.937
1000
544.592
488.642
499.269
552.218
856.056
1000
1000
817.535
753.46
718.824
848.831
983.46
1000
1000
1000
999.963
1000
1000
1000
1000
1000
1000
1000
1000
1000
1000
1000
1000
1000
1000
1000
1000
1000
1000
1000
1000
1000
1000
1000
1000
1000
1000
1000
1000
1000
1000
1000
1000
1000
1000
1000
1000
1000
1000
1000
1000
1000
1000
1000
999.919
999.587
999.484
1000
1000
1000
1000
1000
1000
1000
999.908
1000
1000
1000
1000
1000
1000
1000
1000
1000
1000
1000
1000
1000
1000
1000
1000
1000
1000
1000
1000
1000
1000
1000
1000
1000
1000
1000
1000
1000
1000
1000
1000
1000
1000
1000
1000
1000
1000
1000
1000
1000
1000
1000
1000
999.997
999.823
999.571
998.078
1000
1000
1000
1000
1000
1000
999.999
999.898
1000
1000
1000
1000
1000
1000
1000
1000
1000
1000
1000
1000
1000
1000
1000
1000
1000
1000
1000
1000
1000
1000
1000
1000
1000
1000
1000
1000
1000
1000
1000
999.999
1000
1000
1000
1000
1000
1000
1000
1000
1000
1000
1000
1000
999.992
999.782
999.672
997.481
1000
1000
1000
1000
1000
1000
999.996
999.952
1000
1000
1000
1000
1000
1000
1000
1000
1000
1000
1000
1000
1000
1000
1000
1000
1000
1000
1000
1000
1000
1000
1000
1000
1000
1000
1000
1000
1000
1000
1000
999.998
1000
1000
1000
1000
1000
1000
1000
999.984
1000
1000
1000
1000
999.988
999.814
999.768
997.678
1000
1000
1000
1000
1000
1000
999.994
999.99
1000
1000
1000
1000
1000
1000
1000
1000
1000
1000
1000
1000
1000
1000
1000
1000
1000
1000
1000
1000
1000
1000
1000
1000
1000
1000
1000
1000
1000
1000
1000
1000
1000
1000
1000
1000
1000
1000
1000
999.946
1000
1000
1000
999.999
999.986
999.926
999.818
998.325
1000
1000
1000
1000
1000
1000
999.994
1000
1000
1000
1000
1000
1000
1000
1000
1000
1000
1000
1000
1000
1000
1000
1000
1000
1000
1000
1000
1000
1000
1000
1000
1000
1000
1000
1000
1000
1000
1000
1000
1000
1000
1000
1000
1000
1000
1000
1000
999.926
1000
1000
1000
999.999
999.991
999.992
999.867
999.059
1000
1000
1000
1000
1000
1000
999.996
1000
1000
1000
1000
1000
1000
1000
1000
1000
1000
1000
1000
1000
1000
1000
1000
1000
1000
1000
1000
1000
1000
1000
1000
1000
1000
1000
1000
1000
1000
1000
1000
1000
1000
1000
1000
1000
1000
1000
999.999
999.949
1000
1000
1000
1000
999.998
999.995
999.909
999.547
1000
1000
1000
1000
1000
1000
999.999
1000
1000
1000
1000
1000
1000
1000
1000
1000
1000
1000
1000
1000
1000
1000
1000
1000
1000
1000
1000
1000
1000
1000
1000
1000
1000
1000
1000
1000
1000
1000
1000
1000
1000
1000
1000
1000
1000
1000
999.996
999.988
1000
1000
1000
1000
1000
999.991
999.848
999.78
1000
1000
1000
1000
1000
1000
1000
999.996
1000
1000
1000
1000
1000
1000
1000
1000
1000
1000
1000
1000
1000
1000
1000
1000
1000
1000
1000
1000
1000
1000
1000
1000
1000
1000
1000
1000
1000
1000
1000
999.999
1000
1000
1000
1000
1000
1000
999.993
999.999
1000
1000
1000
1000
1000
999.984
999.218
999.794
1000
1000
1000
1000
1000
1000
999.996
999.988
1000
1000
1000
1000
1000
1000
1000
1000
1000
1000
1000
1000
1000
1000
1000
1000
1000
1000
1000
1000
1000
1000
1000
1000
1000
1000
1000
1000
1000
1000
1000
999.997
1000
1000
1000
1000
1000
1000
999.992
999.999
1000
1000
1000
1000
1000
999.965
997.318
999.802
1000
1000
1000
1000
1000
1000
999.973
999.986
1000
1000
1000
1000
1000
1000
1000
1000
1000
1000
1000
1000
1000
1000
1000
1000
1000
1000
1000
1000
1000
1000
1000
1000
1000
1000
1000
1000
1000
1000
1000
999.991
1000
1000
1000
1000
1000
1000
999.994
999.998
1000
1000
1000
999.998
1000
999.807
996.315
999.856
1000
1000
1000
1000
1000
1000
999.961
999.981
1000
1000
1000
1000
1000
1000
1000
1000
1000
1000
1000
1000
1000
1000
1000
1000
1000
1000
1000
1000
1000
1000
1000
1000
1000
1000
1000
1000
1000
1000
1000
999.986
1000
1000
1000
1000
1000
1000
999.999
999.93
1000
1000
999.999
999.995
1000
999.34
996.922
999.939
1000
1000
1000
1000
1000
1000
999.969
999.949
1000
1000
1000
1000
1000
1000
1000
1000
1000
1000
1000
1000
1000
1000
1000
1000
1000
1000
1000
1000
1000
1000
1000
1000
1000
1000
1000
1000
1000
1000
1000
999.991
1000
1000
1000
1000
1000
1000
1000
999.747
1000
1000
1000
999.995
1000
998.693
998.232
999.359
1000
1000
1000
1000
1000
1000
999.991
999.922
1000
1000
1000
1000
1000
1000
1000
1000
1000
1000
1000
1000
1000
1000
1000
1000
1000
1000
1000
1000
1000
1000
1000
1000
1000
1000
1000
1000
1000
1000
1000
1000
1000
1000
1000
1000
1000
999.994
1000
999.632
1000
1000
1000
999.999
999.989
998.512
999.272
997.099
1000
1000
1000
1000
1000
1000
1000
999.916
1000
1000
1000
1000
1000
1000
1000
1000
1000
1000
1000
1000
1000
1000
1000
1000
1000
1000
1000
1000
1000
1000
1000
1000
1000
1000
1000
1000
1000
1000
1000
1000
1000
1000
1000
1000
1000
999.978
999.999
999.672
1000
1000
1000
1000
999.863
998.685
999.713
996.896
1000
1000
1000
1000
1000
1000
1000
999.922
1000
1000
1000
1000
1000
1000
1000
1000
1000
1000
1000
1000
1000
1000
1000
1000
1000
1000
1000
1000
1000
1000
1000
1000
1000
1000
1000
1000
1000
1000
1000
1000
1000
1000
1000
1000
1000
999.973
999.997
999.829
1000
1000
1000
1000
999.561
999.101
999.912
996.894
1000
1000
1000
1000
1000
1000
1000
999.943
1000
1000
1000
1000
1000
1000
1000
1000
1000
1000
1000
1000
1000
1000
1000
1000
1000
1000
1000
1000
1000
1000
1000
1000
1000
1000
1000
1000
1000
1000
1000
1000
1000
1000
1000
1000
1000
999.977
999.997
999.973
999.915
1000
1000
999.991
999.922
999.98
1000
1000
959.675
999.999
1000
999.992
999.792
999.982
1000
1000
882.518
999.971
1000
999.995
997.825
999.665
1000
1000
862.938
998.045
1000
1000
999.853
999.545
999.892
1000
910.767
999.991
1000
1000
1000
999.907
999.972
1000
994.897
1000
1000
1000
1000
1000
1000
1000
1000
999.998
1000
1000
1000
1000
1000
1000
1000
1000
1000
999.986
999.927
999.99
1000
1000
933.266
1000
1000
999.936
999.982
999.999
1000
1000
770.355
999.283
1000
999.98
999.955
999.999
1000
1000
724.609
992.798
1000
1000
999.907
999.546
999.893
1000
830.333
1000
1000
1000
999.999
999.896
999.978
1000
989.074
1000
1000
1000
1000
1000
1000
1000
1000
999.997
1000
1000
1000
1000
1000
1000
1000
1000
1000
999.972
999.971
999.998
1000
1000
916.719
1000
1000
999.899
999.963
1000
1000
1000
695.085
996.953
1000
999.92
999.999
1000
1000
999.999
635.898
985.552
1000
1000
999.944
999.547
999.907
999.976
790.258
999.999
1000
1000
999.998
999.901
999.985
999.998
981.173
1000
1000
1000
1000
1000
1000
1000
1000
999.997
1000
1000
1000
1000
1000
1000
999.999
1000
1000
999.968
999.991
1000
1000
1000
919.128
1000
1000
999.899
999.944
1000
1000
1000
707.543
996.283
999.999
999.926
999.995
1000
1000
999.984
649.466
984.805
1000
1000
999.954
999.623
999.951
999.83
802.196
999.996
1000
1000
999.989
999.924
999.993
999.956
978.662
1000
1000
1000
1000
1000
1000
1000
999.999
999.998
1000
1000
1000
1000
1000
1000
999.888
1000
1000
999.974
999.996
1000
1000
1000
923.183
1000
1000
999.899
999.951
1000
1000
1000
737.867
995.576
999.998
999.971
999.996
1000
1000
999.938
690.012
984.822
1000
1000
999.937
999.963
999.997
999.819
820.007
999.129
1000
1000
999.951
999.965
1000
999.877
978.092
1000
1000
1000
1000
999.999
1000
999.999
999.999
999.998
1000
1000
1000
1000
1000
1000
999.775
1000
1000
999.99
999.999
1000
1000
1000
921.802
1000
1000
999.954
999.978
1000
1000
1000
736.041
993.596
999.999
999.999
999.999
1000
1000
999.922
691.439
982.5
1000
1000
999.923
999.993
999.999
999.819
813.448
998.503
1000
1000
999.935
999.989
1000
999.859
976.977
1000
1000
1000
1000
999.999
1000
999.998
999.999
999.998
999.999
1000
1000
1000
1000
1000
999.543
1000
1000
1000
1000
1000
1000
1000
920.867
1000
1000
1000
999.999
1000
1000
1000
731.173
991.844
1000
1000
1000
1000
1000
999.937
681.96
979.007
1000
1000
999.923
999.989
1000
999.819
803.739
998.063
1000
1000
999.959
999.996
1000
999.877
974.006
1000
1000
1000
1000
1000
1000
999.999
999.999
999.999
999.999
999.999
1000
1000
1000
1000
998.715
1000
1000
1000
1000
1000
1000
1000
920.031
1000
1000
1000
1000
1000
1000
1000
745.798
988.123
1000
1000
1000
1000
1000
999.974
696.616
973.874
1000
1000
999.923
999.991
1000
999.819
807.446
995.495
1000
1000
999.991
999.999
1000
999.931
966.418
1000
1000
1000
1000
1000
1000
1000
999.999
999.999
999.997
999.999
1000
1000
1000
1000
996.349
1000
1000
1000
1000
1000
1000
1000
905.357
1000
1000
1000
1000
1000
1000
1000
757.742
974.928
1000
1000
1000
1000
1000
999.996
722.313
957.419
1000
1000
999.987
999.996
1000
999.821
798.925
986.695
1000
1000
1000
1000
1000
999.981
947.132
1000
1000
1000
1000
1000
1000
1000
999.965
999.999
999.997
999.999
1000
1000
1000
1000
991.466
1000
1000
1000
1000
1000
1000
1000
845.537
999.57
1000
1000
1000
1000
1000
1000
714.558
946.461
1000
1000
1000
1000
1000
1000
686.297
917.493
1000
1000
1000
1000
1000
999.922
723.195
970.035
1000
1000
1000
1000
1000
999.998
911.087
1000
1000
1000
1000
1000
1000
1000
999.826
999.999
999.997
999.999
1000
1000
1000
1000
986.271
1000
1000
1000
1000
1000
1000
1000
777.629
998.969
1000
1000
1000
1000
1000
1000
581.351
923.852
1000
1000
1000
1000
1000
1000
537.037
881.425
1000
1000
1000
1000
1000
1000
606.904
956.699
1000
1000
1000
1000
1000
1000
885.261
999.999
1000
1000
1000
1000
1000
1000
999.416
999.999
999.997
999.999
1000
1000
1000
1000
985.697
1000
1000
1000
1000
1000
1000
1000
781.447
999.23
1000
1000
1000
999.999
1000
1000
549.564
926.885
1000
1000
1000
1000
1000
1000
488.629
884.285
1000
1000
1000
1000
1000
1000
610.506
958.081
1000
1000
1000
1000
1000
999.997
888.129
999.789
1000
1000
1000
1000
1000
999.999
998.684
999.998
999.999
1000
1000
1000
1000
1000
987.692
1000
1000
1000
1000
1000
1000
1000
829.871
999.202
1000
1000
1000
999.997
1000
1000
643.488
945.012
1000
1000
1000
1000
1000
999.994
591.601
910.1
999.998
1000
1000
1000
999.996
999.986
715.546
963.848
1000
1000
1000
1000
1000
999.985
902.588
998.999
1000
1000
1000
1000
1000
999.998
998.307
999.993
1000
1000
1000
1000
1000
1000
990.288
1000
1000
1000
1000
1000
1000
1000
854.882
998.525
1000
1000
999.998
999.997
1000
999.999
768.07
948.339
1000
1000
1000
999.991
1000
999.98
762.327
916.421
999.997
1000
1000
1000
999.932
999.957
776.702
961.585
1000
1000
1000
1000
999.979
999.978
902.5
998.837
1000
1000
1000
1000
999.997
999.997
998.519
999.987
1000
1000
1000
1000
1000
1000
990.012
1000
1000
1000
1000
1000
1000
1000
829.631
998.103
1000
1000
999.996
999.998
999.999
999.999
729.831
936.8
1000
1000
999.995
999.984
999.957
999.977
741.538
897.176
999.994
1000
999.999
1000
999.915
999.962
703.538
950.166
1000
1000
1000
1000
999.916
999.98
883.61
998.96
1000
1000
1000
1000
999.993
999.997
998.76
999.983
1000
1000
1000
1000
1000
1000
988.401
1000
1000
1000
1000
1000
1000
1000
780.346
997.767
1000
1000
999.996
999.998
999.998
999.999
574.726
920.038
1000
1000
999.979
999.985
999.915
999.981
572.342
868.637
1000
1000
999.999
1000
999.915
999.973
569.276
937.302
1000
1000
1000
1000
999.915
999.987
860.341
998.962
1000
1000
1000
1000
999.992
999.998
998.673
999.977
1000
1000
1000
1000
1000
1000
1000
1000
1000
999.998
1000
1000
999.965
999.996
1000
1000
1000
1000
999.86
999.933
999.578
999.995
1000
1000
1000
999.998
998.116
999.915
999.926
998.521
1000
1000
1000
999.843
998.116
999.706
999.861
997.203
1000
1000
999.986
998.17
998.116
998.115
999.489
996.367
1000
1000
999.939
998.161
999.058
999.152
996.663
996.367
1000
999.986
999.93
1000
999.976
999.609
996.775
999.238
1000
1000
1000
999.997
999.999
999.999
999.959
1000
1000
1000
1000
999.991
999.912
999.944
999.256
998.993
1000
1000
1000
999.994
998.84
999.902
999.653
996.478
1000
1000
1000
999.295
998.267
999.814
999.833
996.368
1000
1000
999.993
998.116
998.116
998.743
999.522
996.367
1000
1000
999.951
998.147
999.795
999.62
997.136
998.084
1000
999.987
999.93
999.998
999.973
998.87
996.78
999.24
1000
1000
1000
999.998
999.995
999.995
999.962
1000
1000
1000
1000
999.901
999.994
999.939
999.294
996.721
1000
1000
1000
999.96
999.859
999.446
999.067
996.458
1000
1000
1000
998.448
999.187
999.739
999.701
997.506
1000
1000
1000
998.259
998.116
999.683
999.644
996.788
1000
1000
999.966
999.133
999.897
999.579
997.315
999.128
1000
999.991
999.94
999.989
999.93
997.897
997.921
997.235
1000
1000
1000
999.976
999.977
999.996
999.975
1000
1000
1000
1000
999.869
999.853
999.854
999.22
997.19
1000
1000
1000
999.93
999.923
999.15
999.082
996.458
1000
1000
1000
998.794
999.842
999.417
999.71
999.649
1000
1000
999.988
999.248
998.92
999.938
999.602
999.491
1000
1000
999.957
999.923
999.922
998.818
997.105
999.302
1000
999.995
999.97
999.959
999.737
997.818
999.025
996.118
1000
1000
1000
999.88
999.956
999.999
999.99
999.986
1000
1000
1000
999.88
999.659
999.58
999.255
999.465
1000
1000
1000
999.938
999.896
999.154
999.632
998.44
1000
1000
1000
999.912
999.965
999.518
999.826
999.936
1000
1000
999.967
999.964
999.955
999.957
998.186
999.962
1000
1000
999.832
999.939
999.763
997.295
997.105
997.776
1000
999.998
999.978
999.918
999.22
997.994
999.328
996.117
1000
1000
999.995
999.861
999.951
999.995
999.987
999.964
1000
1000
1000
999.893
999.668
999.525
999.755
999.986
1000
1000
1000
999.973
999.854
999.611
999.963
999.972
1000
1000
999.99
999.991
999.966
999.89
999.878
999.962
1000
1000
999.982
999.622
999.965
999.962
997.58
999.962
1000
1000
999.818
999.937
998.664
997.218
997.494
996.12
1000
1000
999.981
999.881
998.623
999.106
999.5
996.117
1000
1000
999.977
999.861
999.954
999.995
999.985
999.963
1000
1000
999.996
999.922
999.771
999.525
999.981
999.986
1000
1000
1000
999.998
999.86
999.883
998.686
999.936
1000
1000
999.979
999.991
999.975
999.982
999.931
999.982
1000
1000
1000
999.428
998.756
999.394
997.595
999.762
1000
1000
999.818
999.885
997.799
997.679
998.522
996.117
1000
1000
999.985
999.838
998.723
999.799
999.569
996.117
1000
1000
999.963
999.861
999.97
1000
999.988
999.981
1000
1000
999.984
999.971
999.907
999.525
999.99
999.987
1000
1000
1000
1000
999.931
999.907
998.199
999.949
1000
1000
999.979
999.99
999.967
999.983
999.984
999.985
1000
1000
1000
999.442
997.794
998.254
997.746
997.314
1000
1000
999.869
999.589
997.794
999.393
998.992
996.118
1000
1000
999.991
999.769
999.273
999.965
999.293
997.037
1000
1000
999.959
999.941
999.992
1000
999.997
999.996
1000
1000
999.983
999.998
999.934
999.854
999.997
999.993
1000
1000
1000
1000
999.994
999.97
998.199
999.993
1000
1000
999.985
999.984
999.917
999.982
998.77
999.992
1000
1000
1000
999.539
997.798
999.249
998.47
996.577
1000
1000
999.948
998.989
997.97
999.877
999.239
996.187
1000
1000
1000
999.647
999.753
999.971
996.798
999.164
1000
1000
999.961
999.999
999.999
1000
1000
999.995
1000
1000
999.99
1000
999.93
999.998
999.953
999.995
1000
1000
1000
999.998
999.998
999.999
998.198
998.459
1000
1000
999.998
999.973
999.812
999.978
997.769
997.778
1000
1000
1000
999.668
998.787
999.931
999.406
998.205
1000
1000
999.945
998.798
999.217
999.926
998.536
998.976
1000
1000
1000
999.502
999.882
999.792
995.894
999.575
1000
999.999
999.995
1000
999.998
999.977
1000
1000
1000
999.999
999.999
1000
999.928
999.993
999.13
999.832
1000
1000
1000
999.997
999.998
999.999
998.065
997.356
1000
1000
1000
999.972
999.805
999.937
997.806
997.355
1000
1000
1000
999.629
999.889
999.936
999.76
999.5
1000
1000
999.915
998.798
999.741
999.926
996.036
999.761
1000
1000
1000
999.434
999.922
999.055
995.892
999.59
1000
1000
1000
1000
999.991
999.96
1000
1000
1000
1000
1000
1000
999.928
999.993
998.531
997.874
1000
1000
1000
999.997
1000
999.937
998.02
997.355
1000
1000
1000
999.974
999.877
999.644
998.275
997.355
1000
1000
1000
999.202
999.821
999.935
999.727
999.633
1000
1000
999.913
998.798
999.793
999.773
995.892
999.789
1000
1000
1000
999.449
999.964
997.327
995.891
999.583
1000
1000
1000
1000
999.96
999.96
1000
999.986
1000
1000
1000
1000
999.947
999.984
998.596
997.355
1000
1000
1000
1000
1000
999.669
998.273
997.355
1000
1000
1000
999.968
999.974
999.318
999.143
997.393
1000
1000
1000
998.933
999.674
999.935
999.688
999.78
1000
1000
999.938
998.798
999.851
999.069
996.031
999.806
1000
1000
999.998
999.599
999.952
995.972
995.891
999.486
1000
1000
1000
1000
999.946
999.98
1000
999.986
1000
1000
1000
999.999
999.99
999.792
998.908
997.355
1000
1000
1000
1000
1000
999.142
998.898
997.355
1000
1000
999.998
999.949
1000
999.387
999.78
998.855
1000
1000
1000
998.945
999.657
999.411
999.539
999.807
1000
1000
999.928
999.482
999.879
996.726
997.404
999.806
1000
1000
999.982
999.887
999.785
995.892
995.891
998.725
1000
1000
1000
1000
999.945
1000
1000
1000
1000
1000
1000
999.998
1000
999.161
999.325
997.435
1000
1000
1000
1000
1000
999.029
999.474
997.355
1000
1000
999.993
999.927
999.997
999.788
999.91
999.424
1000
1000
999.996
998.947
999.729
997.277
999.374
999.807
1000
1000
999.87
999.75
999.879
995.899
998.891
999.796
1000
1000
999.955
999.999
999.153
995.898
996.146
996.994
1000
1000
1000
1000
999.945
1000
999.984
1000
1000
1000
1000
999.998
1000
999.029
999.777
998.793
1000
1000
1000
1000
1000
999.03
999.829
997.541
1000
1000
999.991
999.928
999.986
999.966
999.922
998.387
1000
1000
999.999
998.949
999.833
997.644
999.447
998.058
1000
1000
999.787
999.747
999.879
995.898
999.697
997.876
1000
1000
999.949
1000
997.542
995.898
999.312
996.868
1000
1000
1000
1000
1000
1000
999.998
999.913
1000
1000
1000
1000
999.993
999.997
999.973
999.807
999.999
1000
1000
1000
999.945
999.901
999.874
999.875
999.987
1000
1000
1000
999.999
999.855
999.865
999.607
1000
1000
1000
999.984
999.98
999.976
1000
1000
1000
1000
1000
1000
1000
1000
999.994
999.907
1000
1000
1000
999.999
999.993
1000
999.97
999.571
1000
1000
1000
1000
999.932
999.969
999.879
999.723
1000
1000
1000
1000
999.989
999.85
999.829
999.607
999.999
999.999
1000
1000
1000
999.972
999.987
999.842
1000
1000
1000
1000
1000
1000
1000
1000
1000
1000
1000
1000
1000
1000
1000
1000
1000
1000
1000
999.999
1000
1000
999.986
999.952
1000
1000
1000
999.99
999.994
1000
999.963
999.527
1000
1000
1000
1000
999.932
999.992
999.896
999.511
1000
1000
1000
1000
999.959
999.865
999.806
999.794
1000
1000
1000
1000
999.998
999.968
999.989
999.811
1000
1000
1000
1000
1000
1000
1000
1000
1000
1000
1000
1000
1000
1000
1000
1000
1000
1000
1000
999.999
1000
1000
999.961
999.983
1000
1000
1000
999.987
999.996
1000
999.922
999.687
1000
1000
1000
999.998
999.949
999.998
999.903
999.51
1000
1000
1000
1000
999.928
999.919
999.807
999.875
1000
1000
1000
1000
999.994
999.972
999.988
999.887
1000
1000
1000
1000
1000
1000
1000
1000
1000
1000
1000
1000
1000
1000
1000
1000
1000
1000
1000
999.999
1000
999.999
999.934
999.922
1000
1000
1000
999.987
999.998
1000
999.738
999.845
1000
1000
1000
999.992
999.987
1000
999.9
999.51
1000
1000
1000
1000
999.928
999.976
999.823
999.758
1000.01
1000
1000
1000
999.989
999.986
999.972
999.994
1000.01
1000
1000
1000
1000
1000
1000
1000
1000
1000
1000
1000
1000
1000
1000
1000
1000
1000
999.999
999.999
1000
999.996
999.93
999.609
1000
1000
999.999
999.988
999.999
1000
999.661
999.844
1000
1000
1000
999.988
999.997
1000
999.867
999.51
1000
1000
1000
999.998
999.932
999.997
999.894
999.62
999.997
1000
1000
1000
999.989
999.994
999.942
1000
1000.01
1000
1000
1000
1000
1000
1000
999.999
1000
1000
1000
1000
1000
1000
1000
1000
1000
1000
999.999
1000
1000
999.986
999.937
999.418
1000
1000
999.998
999.996
1000
999.991
999.66
999.48
1000
1000
1000
999.988
999.999
1000
999.681
999.787
1000
1000
1000
999.99
999.992
1000
999.975
999.621
999.998
1000
1000
1000
999.993
999.995
999.964
1000
999.998
1000
1000
1000
1000
999.999
1000
999.999
1000
1000
1000
1000
1000
1000
1000
1000
1000
1000
999.999
1000
999.999
999.959
999.934
999.433
1000
1000
999.998
1000
1000
999.911
999.682
999.245
1000
1000
999.999
999.99
1000
999.993
999.433
999.848
1000
1000
1000
999.992
1000
1000
1000
999.759
999.48
1000
1000
1000
999.998
999.994
999.999
1000
999.999
1000
1000
1000
1000
999.999
1000
999.999
1000
1000
1000
1000
1000
1000
1000
1000
1000
1000
1000
1000
999.998
999.946
999.907
999.656
1000
1000
999.998
1000
1000
999.723
999.711
999.244
1000
1000
999.998
999.999
1000
999.935
999.408
999.79
1000
1000
1000
999.999
1000
1000
999.922
999.989
997.679
1000
1000
1000
999.999
999.993
1000
1000
999.541
1000
1000
1000
1000
999.998
1000
999.999
1000
1000
1000
1000
1000
1000
1000
1000
1000
1000
1000
1000
999.996
999.953
999.791
999.882
999.998
1000
999.999
1000
999.998
999.68
999.681
999.244
1000
1000
999.999
1000
1000
999.783
999.407
999.311
1000
1000
1000
1000
1000
1000
999.524
1000
993.499
1000
1000
1000
999.997
999.993
1000
1000
998.174
1000
1000
1000
1000
999.998
1000
999.999
1000
1000
1000
1000
1000
1000
1000
1000
1000
1000
1000
1000
999.994
999.977
999.674
999.959
999.994
1000
1000
1000
999.994
999.695
999.566
999.356
1000
1000
1000
1000
1000
999.657
999.51
999.245
999.996
1000
1000
1000
1000
999.994
999.501
999.964
987.236
1000
1000
1000
999.995
999.995
1000
999.998
994.539
1000
1000
1000
999.996
999.998
1000
1000
1000
1000
1000
1000
1000
1000
1000
1000
1000
1000
1000
1000
999.99
999.995
999.705
999.959
999.994
1000
1000
1000
999.989
999.779
999.565
999.752
1000
1000
1000
1000
1000
999.655
999.708
999.245
1000.01
1000
1000
1000
1000
999.973
999.613
999.405
985.169
1000
1000
1000
999.995
999.999
1000
999.973
991.07
1000
1000
1000
999.995
999.999
1000
1000
1000.01
1000
1000
1000
1000
1000
1000
1000
1000
1000
1000
1000
999.98
999.999
999.788
999.863
999.995
1000
1000
1000
999.984
999.89
999.565
999.825
1000
1000
1000
1000
1000
999.67
999.81
999.245
999.998
1000
1000
1000
1000
999.924
999.811
999.245
988.645
1000
1000
1000
999.995
1000
1000
999.892
992.716
1000
1000
1000
999.997
999.999
1000
1000
999.995
1000
1000
1000
1000
1000
1000
1000
1000
1000
1000
1000
999.976
999.999
999.836
998.867
999.997
1000
1000
1000
999.976
999.948
999.565
999.825
1000
1000
1000
1000
1000
999.834
999.798
999.488
999.991
1000
1000
1000
1000
999.878
999.954
999.246
996.306
1000
1000
1000
999.997
1000
999.998
999.877
998.048
1000
1000
1000
1000
1000
1000
1000
999.997
1000
1000
1000
1000
1000
1000
1000
1000
1000
1000
1000
999.978
999.949
999.851
998.094
999.997
1000
1000
1000
999.957
999.953
999.564
999.572
1000
1000
1000
1000
999.998
999.916
999.508
999.965
999.979
1000
1000
1000
1000
999.876
999.997
999.46
999.447
1000
1000
999.999
999.999
1000
999.997
999.914
999.947
1000
1000
999.999
1000
1000
1000
1000
999.962
1000
1000
1000
1000
1000
1000
1000
1000
1000
1000
1000
999.981
999.739
999.854
998.034
999.997
1000
1000
1000
999.945
999.932
999.586
998.216
1000
1000
1000
1000
999.994
999.916
999.466
999.999
1000
1000
1000
1000
1000
999.885
999.998
999.942
999.367
1000
1000
999.999
999.998
1000
999.998
999.982
1000
1000
1000
999.999
1000
1000
1000
1000
1000
1000
1000
1000
1000
1000
1000
1000
1000
1000
1000
1000
999.982
999.711
999.851
998.287
999.997
1000
1000
1000
999.944
999.814
999.593
997.657
1000
1000
1000
1000
999.983
999.914
999.466
1000
1000
1000
1000
1000
1000
999.932
999.817
1000
998.062
1000
1000
1000
999.998
1000
1000
1000
999.987
1000
1000
999.999
1000
1000
999.998
1000
1000
1000
1000
1000
1000
1000
1000
1000
1000
1000
1000
1000
1000
1000
1000
1000
1000
1000
1000
1000
1000
1000
1000
1000
1000
1000
1000
1000
1000
1000
1000
1000
1000
1000
1000
1000
1000
1000
1000
1000
1000
1000
1000
1000
1000
1000
1000
1000
1000
1000
1000
1000
1000
1000
1000
1000
1000
1000
1000
1000
1000
1000
1000
1000
1000
1000
1000
1000
1000
1000
1000
1000
1000
1000
1000
1000
1000
1000
1000
1000
1000
1000
1000
1000
1000
1000
1000
1000
1000
1000
1000
1000
1000
1000
1000
1000
1000
1000
1000
1000
1000
1000
1000
1000
1000
1000
1000
1000
1000
1000
1000
1000
1000
1000
1000
1000
1000
1000
1000
1000
1000
1000
1000
1000
1000
1000
1000
1000
1000
1000
1000
1000
1000
1000
1000
1000
1000
1000
1000
1000
1000
1000
1000
1000
1000
1000
1000
1000
1000
1000
1000
1000
1000
1000
1000
1000
1000
1000
1000
1000
1000
1000
1000
1000
1000
1000
1000
1000
1000
1000
1000
1000
1000
1000
1000
1000
1000
1000
1000
1000
1000
1000
1000
1000
1000
1000
1000
1000
1000
1000
1000
1000
1000
1000
1000
1000
1000
1000
1000
1000
1000