/*--------------------------------*- C++ -*----------------------------------*\
| =========                 |                                                 |
| \\      /  F ield         | OpenFOAM: The Open Source CFD Toolbox           |
|  \\    /   O peration     | Version:  plus.master.MPPICInterFoam            |
|   \\  /    A nd           | Web:      www.OpenFOAM.com                      |
|    \\/     M anipulation  |                                                 |
\*---------------------------------------------------------------------------*/
FoamFile
{
    version     2.0;
    format      ascii;
    class       volScalarField;
    location    "7.2";
    object      nut;
}
// * * * * * * * * * * * * * * * * * * * * * * * * * * * * * * * * * * * * * //

dimensions      [0 2 -1 0 0 0 0];

internalField   nonuniform List<scalar> 
11821
(
4.28136e-06
1.55968e-05
2.8975e-05
3.82277e-05
4.38409e-05
4.67115e-05
4.73523e-05
4.59394e-05
4.28674e-06
1.54548e-05
2.88056e-05
3.80964e-05
4.37527e-05
4.66596e-05
4.73297e-05
4.59409e-05
4.29037e-06
1.53798e-05
2.87153e-05
3.80262e-05
4.37054e-05
4.6631e-05
4.73154e-05
4.5937e-05
4.29165e-06
1.5353e-05
2.86859e-05
3.8005e-05
4.36919e-05
4.66232e-05
4.73118e-05
4.59369e-05
4.29052e-06
1.54136e-05
2.87623e-05
3.80675e-05
4.37362e-05
4.6651e-05
4.73258e-05
4.59394e-05
4.28685e-06
1.55511e-05
2.89351e-05
3.8206e-05
4.38318e-05
4.67094e-05
4.73543e-05
4.59446e-05
4.28104e-06
1.58479e-05
2.92926e-05
3.84859e-05
4.40227e-05
4.68237e-05
4.74047e-05
4.59402e-05
4.27785e-06
1.56588e-05
2.90468e-05
3.82796e-05
4.38681e-05
4.67156e-05
4.73368e-05
4.59085e-05
4.28281e-06
1.55453e-05
2.89124e-05
3.81761e-05
4.37983e-05
4.66736e-05
4.73168e-05
4.59068e-05
4.28605e-06
1.54876e-05
2.88435e-05
3.81227e-05
4.37619e-05
4.66504e-05
4.73032e-05
4.59001e-05
4.28704e-06
1.54712e-05
2.88257e-05
3.811e-05
4.37533e-05
4.66445e-05
4.72992e-05
4.58977e-05
4.28566e-06
1.55291e-05
2.88964e-05
3.81661e-05
4.37919e-05
4.66675e-05
4.73091e-05
4.58966e-05
4.28182e-06
1.56488e-05
2.90432e-05
3.8282e-05
4.3871e-05
4.67154e-05
4.73323e-05
4.59005e-05
4.27582e-06
1.58962e-05
2.9336e-05
3.85085e-05
4.4024e-05
4.68059e-05
4.73709e-05
4.58943e-05
4.27548e-06
1.57203e-05
2.9119e-05
3.83318e-05
4.38935e-05
4.67145e-05
4.73121e-05
4.58651e-05
4.28029e-06
1.56329e-05
2.90172e-05
3.8254e-05
4.38402e-05
4.66803e-05
4.72923e-05
4.58574e-05
4.2834e-06
1.55922e-05
2.89693e-05
3.8217e-05
4.3814e-05
4.66614e-05
4.72781e-05
4.58462e-05
4.28431e-06
1.55858e-05
2.89631e-05
3.82127e-05
4.38101e-05
4.66568e-05
4.72724e-05
4.58396e-05
4.28288e-06
1.56409e-05
2.90287e-05
3.82637e-05
4.38443e-05
4.66763e-05
4.72794e-05
4.58362e-05
4.27902e-06
1.57445e-05
2.91529e-05
3.83603e-05
4.39097e-05
4.67157e-05
4.72985e-05
4.58393e-05
4.27303e-06
1.59486e-05
2.93905e-05
3.85422e-05
4.40322e-05
4.67888e-05
4.73309e-05
4.58365e-05
4.27422e-06
1.57816e-05
2.91917e-05
3.83822e-05
4.39122e-05
4.66999e-05
4.72667e-05
4.57957e-05
4.27913e-06
1.57184e-05
2.91201e-05
3.83278e-05
4.3873e-05
4.66706e-05
4.7244e-05
4.57783e-05
4.2823e-06
1.56937e-05
2.9092e-05
3.83061e-05
4.38554e-05
4.6654e-05
4.72264e-05
4.57593e-05
4.28331e-06
1.56968e-05
2.90969e-05
3.83097e-05
4.38556e-05
4.66497e-05
4.72175e-05
4.57467e-05
4.28196e-06
1.5749e-05
2.91578e-05
3.83561e-05
4.38858e-05
4.66657e-05
4.72215e-05
4.57405e-05
4.27819e-06
1.58379e-05
2.92622e-05
3.84363e-05
4.394e-05
4.6699e-05
4.72387e-05
4.5745e-05
4.27228e-06
1.60041e-05
2.94525e-05
3.85807e-05
4.40378e-05
4.67593e-05
4.72686e-05
4.57486e-05
4.27416e-06
1.5845e-05
2.92667e-05
3.84292e-05
4.39169e-05
4.66585e-05
4.71821e-05
4.56777e-05
4.27938e-06
1.58046e-05
2.92231e-05
3.83957e-05
4.38885e-05
4.663e-05
4.71512e-05
4.56447e-05
4.28282e-06
1.57952e-05
2.92137e-05
3.83874e-05
4.38771e-05
4.66122e-05
4.71257e-05
4.56126e-05
4.28407e-06
1.58071e-05
2.92289e-05
3.83979e-05
4.38797e-05
4.66058e-05
4.71107e-05
4.55905e-05
4.2829e-06
1.58564e-05
2.92855e-05
3.84401e-05
4.39061e-05
4.66181e-05
4.71111e-05
4.55809e-05
4.27924e-06
1.59318e-05
2.93722e-05
3.85062e-05
4.39513e-05
4.66473e-05
4.71283e-05
4.55886e-05
4.2734e-06
1.60646e-05
2.95216e-05
3.86191e-05
4.40298e-05
4.66998e-05
4.71606e-05
4.56033e-05
4.27552e-06
1.59151e-05
2.93477e-05
3.84699e-05
4.38959e-05
4.65689e-05
4.7028e-05
4.54745e-05
4.28125e-06
1.58966e-05
2.93302e-05
3.8454e-05
4.38735e-05
4.65346e-05
4.69804e-05
4.54165e-05
4.28516e-06
1.5902e-05
2.93385e-05
3.84569e-05
4.38643e-05
4.65098e-05
4.69397e-05
4.53627e-05
4.28679e-06
1.59225e-05
2.93631e-05
3.84728e-05
4.38667e-05
4.64973e-05
4.69133e-05
4.5325e-05
4.28586e-06
1.59691e-05
2.94157e-05
3.85109e-05
4.38887e-05
4.6505e-05
4.69086e-05
4.53101e-05
4.28232e-06
1.60317e-05
2.94863e-05
3.85646e-05
4.3927e-05
4.65324e-05
4.69284e-05
4.53239e-05
4.27648e-06
1.61348e-05
2.95999e-05
3.86513e-05
4.39915e-05
4.65826e-05
4.69692e-05
4.5356e-05
4.27862e-06
1.59991e-05
2.94396e-05
3.84987e-05
4.38299e-05
4.63976e-05
4.67579e-05
4.51309e-05
4.28508e-06
1.60022e-05
2.94465e-05
3.84963e-05
4.38063e-05
4.6347e-05
4.66807e-05
4.5033e-05
4.28967e-06
1.60229e-05
2.94716e-05
3.85072e-05
4.37932e-05
4.63061e-05
4.6613e-05
4.49441e-05
4.29184e-06
1.6052e-05
2.95049e-05
3.85261e-05
4.37909e-05
4.62811e-05
4.65669e-05
4.48816e-05
4.29123e-06
1.60962e-05
2.95535e-05
3.85595e-05
4.38073e-05
4.6282e-05
4.65543e-05
4.48582e-05
4.28778e-06
1.61466e-05
2.96092e-05
3.86025e-05
4.38409e-05
4.63104e-05
4.65802e-05
4.4882e-05
4.28183e-06
1.62226e-05
2.9691e-05
3.86678e-05
4.38972e-05
4.63656e-05
4.66378e-05
4.49407e-05
4.28395e-06
1.61078e-05
2.95487e-05
3.85062e-05
4.36901e-05
4.60962e-05
4.63069e-05
4.45707e-05
4.29144e-06
1.6133e-05
2.95783e-05
3.85117e-05
4.36549e-05
4.60145e-05
4.61816e-05
4.44127e-05
4.29697e-06
1.61701e-05
2.96192e-05
3.85257e-05
4.36287e-05
4.59441e-05
4.60703e-05
4.42704e-05
4.29986e-06
1.62082e-05
2.966e-05
3.85439e-05
4.3615e-05
4.58971e-05
4.5993e-05
4.41703e-05
4.29965e-06
1.62504e-05
2.97045e-05
3.85712e-05
4.36233e-05
4.58877e-05
4.59682e-05
4.4134e-05
4.29622e-06
1.62886e-05
2.97456e-05
3.86052e-05
4.36548e-05
4.59204e-05
4.60042e-05
4.41723e-05
4.29002e-06
1.63394e-05
2.97994e-05
3.86537e-05
4.37098e-05
4.59901e-05
4.60898e-05
4.42694e-05
4.29224e-06
1.62559e-05
2.96826e-05
3.84791e-05
4.34388e-05
4.5605e-05
4.5598e-05
4.37067e-05
4.30113e-06
1.63051e-05
2.97331e-05
3.84847e-05
4.33783e-05
4.54736e-05
4.54027e-05
4.3466e-05
4.30794e-06
1.63603e-05
2.97879e-05
3.84951e-05
4.33267e-05
4.53567e-05
4.52283e-05
4.32504e-05
4.31179e-06
1.64082e-05
2.98346e-05
3.85069e-05
4.32922e-05
4.52757e-05
4.51063e-05
4.30991e-05
4.31208e-06
1.64484e-05
2.98743e-05
3.85251e-05
4.32888e-05
4.5252e-05
4.50651e-05
4.30451e-05
4.30862e-06
1.64746e-05
2.98996e-05
3.85506e-05
4.3321e-05
4.5294e-05
4.51165e-05
4.31026e-05
4.30199e-06
1.64988e-05
2.99223e-05
3.85879e-05
4.33862e-05
4.53921e-05
4.52449e-05
4.32516e-05
4.30457e-06
1.64639e-05
2.98512e-05
3.84037e-05
4.30383e-05
4.48689e-05
4.45672e-05
4.24738e-05
4.31536e-06
1.65397e-05
2.99212e-05
3.8399e-05
4.29374e-05
4.4671e-05
4.42863e-05
4.21368e-05
4.32394e-06
1.66156e-05
2.99846e-05
3.83946e-05
4.28477e-05
4.44953e-05
4.40372e-05
4.18381e-05
4.32911e-06
1.66736e-05
3.00293e-05
3.83927e-05
4.27856e-05
4.4373e-05
4.38638e-05
4.16301e-05
4.33006e-06
1.67067e-05
3.00578e-05
3.84012e-05
4.277e-05
4.43338e-05
4.38045e-05
4.15571e-05
4.32644e-06
1.67142e-05
3.0069e-05
3.84231e-05
4.2808e-05
4.43889e-05
4.38737e-05
4.16345e-05
4.31898e-06
1.6708e-05
3.00714e-05
3.84597e-05
4.28932e-05
4.45245e-05
4.40518e-05
4.18394e-05
4.32251e-06
1.67592e-05
3.00674e-05
3.82703e-05
4.24748e-05
4.38816e-05
4.32238e-05
4.08979e-05
4.33594e-06
1.68633e-05
3.01445e-05
3.82494e-05
4.23302e-05
4.36181e-05
4.28653e-05
4.0481e-05
4.347e-06
1.69491e-05
3.02124e-05
3.82301e-05
4.22017e-05
4.33858e-05
4.25507e-05
4.01166e-05
4.35391e-06
1.70077e-05
3.02596e-05
3.82161e-05
4.21118e-05
4.32245e-05
4.23334e-05
3.98657e-05
4.35548e-06
1.70361e-05
3.02839e-05
3.82168e-05
4.2084e-05
4.31701e-05
4.22581e-05
3.97776e-05
4.35134e-06
1.70315e-05
3.02851e-05
3.8237e-05
4.21279e-05
4.32357e-05
4.23394e-05
3.98661e-05
4.34247e-06
1.70032e-05
3.02706e-05
3.8276e-05
4.22344e-05
4.34053e-05
4.25566e-05
4.01092e-05
4.34848e-06
1.71613e-05
3.03463e-05
3.81159e-05
4.18092e-05
4.27434e-05
4.17185e-05
3.9176e-05
4.36551e-06
1.72818e-05
3.04426e-05
3.80892e-05
4.16376e-05
4.24453e-05
4.13314e-05
3.87445e-05
4.37957e-06
1.73895e-05
3.05269e-05
3.80639e-05
4.14861e-05
4.2186e-05
4.09977e-05
3.83753e-05
4.38847e-06
1.74645e-05
3.05835e-05
3.80437e-05
4.13795e-05
4.20068e-05
4.07698e-05
3.81251e-05
4.39067e-06
1.74948e-05
3.06064e-05
3.80382e-05
4.13424e-05
4.19433e-05
4.06882e-05
3.80351e-05
4.38568e-06
1.74775e-05
3.05964e-05
3.80535e-05
4.13854e-05
4.20074e-05
4.0764e-05
3.81134e-05
4.37483e-06
1.74238e-05
3.05616e-05
3.80891e-05
4.14994e-05
4.21853e-05
4.09818e-05
3.83457e-05
4.38569e-06
1.76979e-05
3.0764e-05
3.80471e-05
4.12105e-05
4.17073e-05
4.03905e-05
3.77138e-05
4.40715e-06
1.78617e-05
3.08983e-05
3.80419e-05
4.10597e-05
4.1449e-05
4.00743e-05
3.73849e-05
4.42509e-06
1.80067e-05
3.10142e-05
3.80349e-05
4.09288e-05
4.12298e-05
3.98108e-05
3.7115e-05
4.43657e-06
1.8105e-05
3.10891e-05
3.8025e-05
4.08356e-05
4.10793e-05
3.96334e-05
3.69365e-05
4.43951e-06
1.81391e-05
3.11129e-05
3.80175e-05
4.07977e-05
4.10201e-05
3.9564e-05
3.68665e-05
4.43323e-06
1.81061e-05
3.10867e-05
3.80186e-05
4.08235e-05
4.10597e-05
3.96061e-05
3.69037e-05
4.41961e-06
1.80203e-05
3.10218e-05
3.80311e-05
4.091e-05
4.11936e-05
3.97577e-05
3.705e-05
4.43842e-06
1.8452e-05
3.14357e-05
3.82562e-05
4.09776e-05
4.11825e-05
3.9738e-05
3.70603e-05
4.46582e-06
1.86757e-05
3.16363e-05
3.83246e-05
4.09312e-05
4.1077e-05
3.96268e-05
3.69764e-05
4.489e-06
1.8871e-05
3.18078e-05
3.8382e-05
4.08943e-05
4.09965e-05
3.95482e-05
3.69265e-05
4.50393e-06
1.90003e-05
3.19169e-05
3.84131e-05
4.0864e-05
4.09404e-05
3.94975e-05
3.68986e-05
4.50774e-06
1.90401e-05
3.19456e-05
3.84122e-05
4.08396e-05
4.09054e-05
3.94637e-05
3.68737e-05
4.49955e-06
1.89868e-05
3.18943e-05
3.83828e-05
4.08243e-05
4.08908e-05
3.94403e-05
3.68389e-05
4.48212e-06
1.886e-05
3.17805e-05
3.83366e-05
4.08283e-05
4.09102e-05
3.9447e-05
3.682e-05
4.22804e-06
1.65022e-05
3.00132e-05
3.8998e-05
4.43164e-05
4.6943e-05
4.7396e-05
4.58438e-05
4.23079e-06
1.67527e-05
3.0323e-05
3.92432e-05
4.44663e-05
4.69944e-05
4.73535e-05
4.5716e-05
4.2334e-06
1.68878e-05
3.05541e-05
3.94893e-05
4.46924e-05
4.25409e-06
1.76001e-05
4.23727e-06
4.22276e-06
1.64668e-05
2.99525e-05
3.89374e-05
4.42668e-05
4.69063e-05
4.73709e-05
4.58278e-05
4.22362e-06
1.66525e-05
3.01763e-05
3.91091e-05
4.43652e-05
4.69306e-05
4.73249e-05
4.57185e-05
4.2245e-06
1.67083e-05
3.02835e-05
3.92254e-05
4.44726e-05
4.70244e-05
4.74082e-05
4.5793e-05
4.23709e-06
1.71867e-05
3.08677e-05
3.97015e-05
4.47897e-05
4.71678e-05
4.73624e-05
4.55499e-05
4.22718e-06
1.67267e-05
3.02986e-05
3.92308e-05
4.44722e-05
4.70226e-05
4.74049e-05
4.57896e-05
4.22679e-06
1.66119e-05
3.01339e-05
3.90806e-05
4.43539e-05
4.6935e-05
4.73418e-05
4.57439e-05
4.22596e-06
1.6363e-05
2.98313e-05
3.88468e-05
4.4218e-05
4.6898e-05
4.73972e-05
4.58808e-05
4.21971e-06
1.6435e-05
2.99038e-05
3.88916e-05
4.42305e-05
4.688e-05
4.73527e-05
4.58157e-05
4.21927e-06
1.65736e-05
3.00668e-05
3.90131e-05
4.42968e-05
4.68912e-05
4.73121e-05
4.57291e-05
4.21917e-06
1.65867e-05
3.01073e-05
3.90608e-05
4.43427e-05
4.69337e-05
4.73527e-05
4.57699e-05
4.22692e-06
1.69102e-05
3.04987e-05
3.93737e-05
4.45413e-05
4.70076e-05
4.72947e-05
4.55777e-05
4.22107e-06
1.65918e-05
3.01098e-05
3.90591e-05
4.43391e-05
4.69308e-05
4.73517e-05
4.57715e-05
4.22204e-06
1.65244e-05
3.00151e-05
3.89769e-05
4.42797e-05
4.68919e-05
4.73273e-05
4.57544e-05
4.22255e-06
1.63315e-05
2.97841e-05
3.88015e-05
4.4181e-05
4.687e-05
4.73769e-05
4.58665e-05
4.21809e-06
1.64055e-05
2.98621e-05
3.88526e-05
4.41982e-05
4.68532e-05
4.73295e-05
4.57952e-05
4.21672e-06
1.65082e-05
2.99806e-05
3.89387e-05
4.42428e-05
4.68575e-05
4.72964e-05
4.57292e-05
4.21602e-06
1.6501e-05
2.99865e-05
3.89504e-05
4.42568e-05
4.68736e-05
4.73161e-05
4.57545e-05
4.22071e-06
1.67189e-05
3.02484e-05
3.91571e-05
4.43837e-05
4.69138e-05
4.72652e-05
4.56119e-05
4.21724e-06
1.64953e-05
2.9978e-05
3.89417e-05
4.42504e-05
4.68712e-05
4.73183e-05
4.5761e-05
4.21881e-06
1.64529e-05
2.99201e-05
3.88943e-05
4.42196e-05
4.68546e-05
4.73105e-05
4.57558e-05
4.2201e-06
1.63013e-05
2.97406e-05
3.87596e-05
4.41452e-05
4.68399e-05
4.7351e-05
4.58442e-05
4.21749e-06
1.63792e-05
2.98261e-05
3.88168e-05
4.41632e-05
4.68164e-05
4.72892e-05
4.57525e-05
4.21538e-06
1.64541e-05
2.99106e-05
3.88762e-05
4.41919e-05
4.68162e-05
4.72623e-05
4.57024e-05
4.21425e-06
1.64394e-05
2.9901e-05
3.88709e-05
4.41903e-05
4.68193e-05
4.72719e-05
4.572e-05
4.21696e-06
1.65843e-05
3.00743e-05
3.9006e-05
4.42711e-05
4.68413e-05
4.72324e-05
4.5619e-05
4.21483e-06
1.64246e-05
2.98825e-05
3.88551e-05
4.41807e-05
4.68171e-05
4.72772e-05
4.57317e-05
4.21661e-06
1.63945e-05
2.98432e-05
3.88251e-05
4.4164e-05
4.68114e-05
4.72779e-05
4.57337e-05
4.21838e-06
1.62727e-05
2.97005e-05
3.87192e-05
4.41062e-05
4.68005e-05
4.73099e-05
4.58023e-05
4.2177e-06
1.63588e-05
2.97974e-05
3.87821e-05
4.41184e-05
4.67572e-05
4.72142e-05
4.56662e-05
4.21504e-06
1.64124e-05
2.98559e-05
3.8821e-05
4.41349e-05
4.6753e-05
4.71914e-05
4.56274e-05
4.21355e-06
1.63962e-05
2.98403e-05
3.8808e-05
4.41257e-05
4.67493e-05
4.71949e-05
4.56393e-05
4.21492e-06
1.64908e-05
2.99527e-05
3.88946e-05
4.41765e-05
4.67617e-05
4.71672e-05
4.55717e-05
4.21352e-06
1.6374e-05
2.98134e-05
3.87866e-05
4.41142e-05
4.67491e-05
4.72056e-05
4.56591e-05
4.21527e-06
1.63491e-05
2.97826e-05
3.87649e-05
4.41049e-05
4.67501e-05
4.72132e-05
4.56687e-05
4.2174e-06
1.62468e-05
2.96645e-05
3.86788e-05
4.40588e-05
4.67419e-05
4.72388e-05
4.57233e-05
4.21878e-06
1.63486e-05
2.9779e-05
3.8746e-05
4.40537e-05
4.66563e-05
4.70769e-05
4.55026e-05
4.21573e-06
1.63864e-05
2.98181e-05
3.87691e-05
4.40601e-05
4.6648e-05
4.70557e-05
4.54705e-05
4.2139e-06
1.63713e-05
2.98008e-05
3.87529e-05
4.40471e-05
4.66401e-05
4.70544e-05
4.54767e-05
4.21431e-06
1.64312e-05
2.98714e-05
3.88067e-05
4.40785e-05
4.66481e-05
4.70382e-05
4.54362e-05
4.21327e-06
1.63427e-05
2.97672e-05
3.87279e-05
4.40363e-05
4.66452e-05
4.70748e-05
4.55097e-05
4.21486e-06
1.63186e-05
2.97391e-05
3.87103e-05
4.40321e-05
4.6653e-05
4.70913e-05
4.55304e-05
4.21735e-06
1.62258e-05
2.96354e-05
3.86371e-05
4.39944e-05
4.66478e-05
4.71146e-05
4.55776e-05
4.22103e-06
1.63552e-05
2.97759e-05
3.87044e-05
4.39525e-05
4.64841e-05
4.68355e-05
4.52105e-05
4.21766e-06
1.63818e-05
2.98005e-05
3.87152e-05
4.39502e-05
4.64707e-05
4.68126e-05
4.51797e-05
4.21551e-06
1.63684e-05
2.97834e-05
3.86977e-05
4.39347e-05
4.64593e-05
4.68061e-05
4.51789e-05
4.2152e-06
1.64044e-05
2.98253e-05
3.87295e-05
4.39545e-05
4.64671e-05
4.68018e-05
4.51621e-05
4.21428e-06
1.63337e-05
2.97444e-05
3.86719e-05
4.39289e-05
4.64756e-05
4.68437e-05
4.52337e-05
4.21564e-06
1.63074e-05
2.9716e-05
3.8657e-05
4.39308e-05
4.64931e-05
4.68738e-05
4.52718e-05
4.21845e-06
1.6218e-05
2.96204e-05
3.85935e-05
4.39015e-05
4.64941e-05
4.69007e-05
4.53196e-05
4.22491e-06
1.63886e-05
2.97942e-05
3.86503e-05
4.37905e-05
4.61981e-05
4.64306e-05
4.47185e-05
4.22125e-06
1.64071e-05
2.98079e-05
3.86509e-05
4.37796e-05
4.61776e-05
4.64016e-05
4.46824e-05
4.21881e-06
1.63954e-05
2.97914e-05
3.86325e-05
4.37619e-05
4.6162e-05
4.63886e-05
4.46722e-05
4.21791e-06
1.64149e-05
2.98139e-05
3.86506e-05
4.37763e-05
4.61738e-05
4.63979e-05
4.46783e-05
4.21698e-06
1.63542e-05
2.9749e-05
3.86101e-05
4.37674e-05
4.6198e-05
4.64539e-05
4.47612e-05
4.21807e-06
1.63233e-05
2.97192e-05
3.8599e-05
4.37785e-05
4.62306e-05
4.65051e-05
4.48256e-05
4.22102e-06
1.62381e-05
2.96318e-05
3.85461e-05
4.37607e-05
4.62431e-05
4.6543e-05
4.48832e-05
4.23108e-06
1.64622e-05
2.98418e-05
3.85732e-05
4.35352e-05
4.57438e-05
4.5789e-05
4.394e-05
4.22713e-06
1.64746e-05
2.98464e-05
3.85643e-05
4.35147e-05
4.57128e-05
4.5748e-05
4.38902e-05
4.22443e-06
1.6464e-05
2.98303e-05
3.8545e-05
4.34941e-05
4.56917e-05
4.57261e-05
4.38673e-05
4.22303e-06
1.64721e-05
2.98402e-05
3.85558e-05
4.35087e-05
4.5712e-05
4.57523e-05
4.38979e-05
4.22199e-06
1.6417e-05
2.97878e-05
3.85317e-05
4.35194e-05
4.57587e-05
4.5833e-05
4.40061e-05
4.22282e-06
1.63787e-05
2.97576e-05
3.85275e-05
4.3545e-05
4.58138e-05
4.59145e-05
4.41074e-05
4.22564e-06
1.63016e-05
2.96813e-05
3.84887e-05
4.35431e-05
4.58438e-05
4.59711e-05
4.41843e-05
4.24045e-06
1.65936e-05
2.99282e-05
3.84615e-05
4.3152e-05
4.50665e-05
4.48414e-05
4.27976e-05
4.23617e-06
1.66001e-05
2.99239e-05
3.84424e-05
4.31194e-05
4.50204e-05
4.47811e-05
4.27246e-05
4.23322e-06
1.65902e-05
2.99077e-05
3.84215e-05
4.30947e-05
4.49919e-05
4.47477e-05
4.26856e-05
4.23138e-06
1.65903e-05
2.99102e-05
3.84306e-05
4.3115e-05
4.50255e-05
4.47945e-05
4.2743e-05
4.23014e-06
1.65407e-05
2.98706e-05
3.84249e-05
4.31499e-05
4.51023e-05
4.49103e-05
4.28889e-05
4.23064e-06
1.6497e-05
2.98439e-05
3.84324e-05
4.31962e-05
4.51874e-05
4.50306e-05
4.3036e-05
4.23315e-06
1.64292e-05
2.97827e-05
3.84128e-05
4.32143e-05
4.52388e-05
4.5111e-05
4.31386e-05
4.25422e-06
1.68048e-05
3.00671e-05
3.83103e-05
4.26205e-05
4.41398e-05
4.35648e-05
4.12774e-05
4.24956e-06
1.68039e-05
3.00526e-05
3.82788e-05
4.25719e-05
4.40725e-05
4.34777e-05
4.11728e-05
4.24635e-06
1.6794e-05
3.00355e-05
3.82551e-05
4.25417e-05
4.40347e-05
4.34306e-05
4.11159e-05
4.24411e-06
1.67886e-05
3.0035e-05
3.82676e-05
4.25725e-05
4.40858e-05
4.35006e-05
4.12005e-05
4.24255e-06
1.67485e-05
3.00105e-05
3.82832e-05
4.26361e-05
4.41982e-05
4.36569e-05
4.13889e-05
4.2426e-06
1.67085e-05
2.99923e-05
3.83071e-05
4.27079e-05
4.43178e-05
4.38191e-05
4.15823e-05
4.2448e-06
1.66469e-05
2.99532e-05
3.83074e-05
4.27462e-05
4.43914e-05
4.39238e-05
4.17107e-05
4.27412e-06
1.71218e-05
3.02822e-05
3.81373e-05
4.1966e-05
4.30136e-05
4.20478e-05
3.9509e-05
4.26895e-06
1.71117e-05
3.02551e-05
3.809e-05
4.18966e-05
4.29198e-05
4.19292e-05
3.93703e-05
4.26542e-06
1.71008e-05
3.02358e-05
3.80622e-05
4.18596e-05
4.28719e-05
4.18692e-05
3.92987e-05
4.26285e-06
1.70922e-05
3.0236e-05
3.8082e-05
4.19041e-05
4.29417e-05
4.19607e-05
3.94051e-05
4.26098e-06
1.70626e-05
3.02277e-05
3.81206e-05
4.19973e-05
4.30881e-05
4.21517e-05
3.96252e-05
4.26056e-06
1.70321e-05
3.02212e-05
3.8163e-05
4.20948e-05
4.32383e-05
4.23457e-05
3.98479e-05
4.26242e-06
1.69872e-05
3.0201e-05
3.81806e-05
4.21507e-05
4.33299e-05
4.24675e-05
3.9991e-05
4.30265e-06
1.75797e-05
3.06192e-05
3.80091e-05
4.13013e-05
4.18712e-05
4.05556e-05
3.78303e-05
4.29672e-06
1.75587e-05
3.05761e-05
3.79412e-05
4.12063e-05
4.17483e-05
4.0408e-05
3.7667e-05
4.29279e-06
1.75451e-05
3.05529e-05
3.79081e-05
4.11623e-05
4.16925e-05
4.0341e-05
3.75912e-05
4.28992e-06
1.75354e-05
3.05568e-05
3.79374e-05
4.12203e-05
4.1777e-05
4.04453e-05
3.7706e-05
4.28788e-06
1.75144e-05
3.05637e-05
3.79971e-05
4.13372e-05
4.19443e-05
4.06487e-05
3.79264e-05
4.28719e-06
1.74909e-05
3.05689e-05
3.80557e-05
4.14523e-05
4.2108e-05
4.08462e-05
3.81393e-05
4.28887e-06
1.74665e-05
3.05642e-05
3.80867e-05
4.15193e-05
4.22058e-05
4.09666e-05
3.82717e-05
4.24456e-06
4.2518e-06
1.62217e-05
4.25907e-06
1.60578e-05
2.95134e-05
3.86341e-05
4.41025e-05
4.2667e-06
1.59629e-05
2.9403e-05
3.85534e-05
4.40534e-05
4.68287e-05
4.73918e-05
4.59145e-05
4.27445e-06
1.57465e-05
2.91542e-05
3.83661e-05
4.39324e-05
4.67641e-05
4.73751e-05
4.594e-05
4.22925e-06
1.62347e-05
2.96842e-05
3.87372e-05
4.4151e-05
4.68668e-05
4.73937e-05
4.58981e-05
4.2354e-06
1.61625e-05
2.96047e-05
3.86804e-05
4.41153e-05
4.68458e-05
4.73816e-05
4.58903e-05
4.24214e-06
1.60999e-05
2.9544e-05
3.86417e-05
4.40931e-05
4.68345e-05
4.73782e-05
4.58942e-05
4.24938e-06
1.61631e-05
2.96188e-05
3.87027e-05
4.41366e-05
4.68568e-05
4.73738e-05
4.58568e-05
4.25679e-06
1.6025e-05
2.94717e-05
3.85986e-05
4.40735e-05
4.68294e-05
4.73797e-05
4.58969e-05
4.26427e-06
1.59468e-05
2.93818e-05
3.85335e-05
4.40344e-05
4.68097e-05
4.73727e-05
4.58962e-05
4.27146e-06
1.57769e-05
2.91872e-05
3.83876e-05
4.39398e-05
4.67581e-05
4.73571e-05
4.59124e-05
4.22653e-06
1.62321e-05
2.96713e-05
3.87189e-05
4.41319e-05
4.68483e-05
4.73757e-05
4.58805e-05
4.23303e-06
1.61546e-05
2.95894e-05
3.86627e-05
4.4098e-05
4.68299e-05
4.73673e-05
4.58779e-05
4.23994e-06
1.60916e-05
2.95286e-05
3.86242e-05
4.40763e-05
4.68188e-05
4.73631e-05
4.58796e-05
4.24738e-06
1.6118e-05
2.95636e-05
3.86566e-05
4.41014e-05
4.68319e-05
4.73594e-05
4.58536e-05
4.25484e-06
1.60065e-05
2.94462e-05
3.85748e-05
4.40518e-05
4.68081e-05
4.73584e-05
4.58759e-05
4.26229e-06
1.59423e-05
2.93743e-05
3.85237e-05
4.40207e-05
4.67907e-05
4.73488e-05
4.58693e-05
4.26927e-06
1.58108e-05
2.92252e-05
3.84127e-05
4.39481e-05
4.67491e-05
4.73323e-05
4.58751e-05
4.22452e-06
1.62193e-05
2.9649e-05
3.86939e-05
4.41069e-05
4.68232e-05
4.73502e-05
4.58551e-05
4.2311e-06
1.61423e-05
2.95697e-05
3.86408e-05
4.40757e-05
4.68069e-05
4.73433e-05
4.58542e-05
4.23815e-06
1.60828e-05
2.95127e-05
3.86055e-05
4.40559e-05
4.6796e-05
4.73375e-05
4.58523e-05
4.24575e-06
1.60862e-05
2.95238e-05
3.86208e-05
4.40694e-05
4.68022e-05
4.73317e-05
4.58303e-05
4.25334e-06
1.59982e-05
2.94328e-05
3.85587e-05
4.40313e-05
4.67812e-05
4.73247e-05
4.58374e-05
4.26091e-06
1.59471e-05
2.93778e-05
3.85207e-05
4.40072e-05
4.67646e-05
4.73105e-05
4.58225e-05
4.26794e-06
1.58478e-05
2.92674e-05
3.84394e-05
4.39526e-05
4.67295e-05
4.72901e-05
4.58153e-05
4.22311e-06
1.62005e-05
2.96215e-05
3.8664e-05
4.40745e-05
4.67867e-05
4.73088e-05
4.58106e-05
4.22968e-06
1.6128e-05
2.95483e-05
3.8616e-05
4.40465e-05
4.67714e-05
4.73013e-05
4.58081e-05
4.23683e-06
1.60745e-05
2.9498e-05
3.85857e-05
4.40292e-05
4.67601e-05
4.7292e-05
4.58e-05
4.24462e-06
1.60663e-05
2.94974e-05
3.85923e-05
4.40356e-05
4.67599e-05
4.7281e-05
4.57754e-05
4.25245e-06
1.59988e-05
2.943e-05
3.85476e-05
4.40065e-05
4.67393e-05
4.72657e-05
4.57659e-05
4.26029e-06
1.59606e-05
2.93916e-05
3.85219e-05
4.39878e-05
4.67207e-05
4.7243e-05
4.57377e-05
4.26759e-06
1.58891e-05
2.93149e-05
3.84657e-05
4.39467e-05
4.66876e-05
4.7214e-05
4.57129e-05
4.22233e-06
1.61805e-05
2.9594e-05
3.8631e-05
4.40316e-05
4.67298e-05
4.72372e-05
4.5729e-05
4.22885e-06
1.61153e-05
2.95293e-05
3.85893e-05
4.40067e-05
4.67143e-05
4.72266e-05
4.57211e-05
4.23615e-06
1.60698e-05
2.9488e-05
3.8565e-05
4.39912e-05
4.67003e-05
4.72103e-05
4.57023e-05
4.24417e-06
1.6058e-05
2.94842e-05
3.85684e-05
4.39925e-05
4.66923e-05
4.71891e-05
4.56671e-05
4.25238e-06
1.60093e-05
2.94386e-05
3.85387e-05
4.39691e-05
4.66676e-05
4.71603e-05
4.56357e-05
4.26064e-06
1.59847e-05
2.9417e-05
3.85242e-05
4.39527e-05
4.66419e-05
4.71221e-05
4.55859e-05
4.26843e-06
1.59383e-05
2.93702e-05
3.84888e-05
4.39198e-05
4.66042e-05
4.70768e-05
4.5535e-05
4.22231e-06
1.61661e-05
2.95732e-05
3.85962e-05
4.39717e-05
4.66375e-05
4.71123e-05
4.55805e-05
4.22881e-06
1.611e-05
2.95187e-05
3.85611e-05
4.39489e-05
4.66195e-05
4.70948e-05
4.55626e-05
4.23632e-06
1.60739e-05
2.94877e-05
3.85428e-05
4.39333e-05
4.65989e-05
4.70658e-05
4.55262e-05
4.2447e-06
1.60646e-05
2.94869e-05
3.8546e-05
4.39287e-05
4.65785e-05
4.70267e-05
4.54696e-05
4.25343e-06
1.60339e-05
2.94617e-05
3.85285e-05
4.39059e-05
4.65423e-05
4.6975e-05
4.54062e-05
4.2623e-06
1.60239e-05
2.94572e-05
3.8523e-05
4.38866e-05
4.65013e-05
4.69104e-05
4.53218e-05
4.2708e-06
1.60014e-05
2.94379e-05
3.8504e-05
4.3855e-05
4.64491e-05
4.68365e-05
4.52313e-05
4.22333e-06
1.61665e-05
2.95675e-05
3.85594e-05
4.38827e-05
4.64849e-05
4.6897e-05
4.53194e-05
4.22988e-06
1.61205e-05
2.95239e-05
3.85305e-05
4.38599e-05
4.64607e-05
4.68677e-05
4.52851e-05
4.23768e-06
1.6095e-05
2.95041e-05
3.85171e-05
4.38406e-05
4.64271e-05
4.68174e-05
4.52209e-05
4.24656e-06
1.60925e-05
2.95103e-05
3.85206e-05
4.38263e-05
4.63865e-05
4.67487e-05
4.51285e-05
4.25599e-06
1.60803e-05
2.95048e-05
3.85114e-05
4.37968e-05
4.63279e-05
4.66603e-05
4.50177e-05
4.26568e-06
1.60865e-05
2.95175e-05
3.85113e-05
4.37666e-05
4.6259e-05
4.65531e-05
4.48801e-05
4.27514e-06
1.6088e-05
2.95238e-05
3.85032e-05
4.37263e-05
4.61787e-05
4.64337e-05
4.47313e-05
4.22582e-06
1.61938e-05
2.95873e-05
3.8518e-05
4.37449e-05
4.62343e-05
4.65376e-05
4.48794e-05
4.23249e-06
1.61583e-05
2.95544e-05
3.84937e-05
4.37189e-05
4.61989e-05
4.64898e-05
4.48212e-05
4.24072e-06
1.61446e-05
2.95461e-05
3.84828e-05
4.36903e-05
4.61438e-05
4.64069e-05
4.47163e-05
4.25028e-06
1.61528e-05
2.9562e-05
3.84849e-05
4.36596e-05
4.60715e-05
4.62934e-05
4.45703e-05
4.26064e-06
1.61604e-05
2.95755e-05
3.84791e-05
4.36133e-05
4.59758e-05
4.61504e-05
4.43924e-05
4.27142e-06
1.61853e-05
2.96056e-05
3.84792e-05
4.35611e-05
4.5863e-05
4.59804e-05
4.41795e-05
4.28209e-06
1.62119e-05
2.96356e-05
3.84748e-05
4.34995e-05
4.57368e-05
4.57947e-05
4.39506e-05
4.23038e-06
1.62637e-05
2.96442e-05
3.84658e-05
4.35299e-05
4.5835e-05
4.59637e-05
4.41768e-05
4.23728e-06
1.62388e-05
2.96215e-05
3.8444e-05
4.34967e-05
4.57829e-05
4.58908e-05
4.40873e-05
4.2461e-06
1.62384e-05
2.96247e-05
3.84323e-05
4.34518e-05
4.56963e-05
4.57634e-05
4.39288e-05
4.25658e-06
1.62611e-05
2.96522e-05
3.84297e-05
4.33963e-05
4.55794e-05
4.55892e-05
4.37122e-05
4.26816e-06
1.62909e-05
2.96842e-05
3.8421e-05
4.33215e-05
4.54308e-05
4.53734e-05
4.34487e-05
4.28032e-06
1.63382e-05
2.97318e-05
3.84149e-05
4.32345e-05
4.52569e-05
4.51215e-05
4.31418e-05
4.29259e-06
1.63921e-05
2.97837e-05
3.84058e-05
4.31381e-05
4.50678e-05
4.48516e-05
4.28165e-05
4.23788e-06
1.63967e-05
2.97522e-05
3.83943e-05
4.3204e-05
4.52305e-05
4.51019e-05
4.31285e-05
4.24513e-06
1.63828e-05
2.97391e-05
3.8373e-05
4.31603e-05
4.5158e-05
4.50004e-05
4.30047e-05
4.25477e-06
1.63977e-05
2.97543e-05
3.83576e-05
4.30934e-05
4.50329e-05
4.48217e-05
4.27874e-05
4.26649e-06
1.64395e-05
2.97951e-05
3.83467e-05
4.30056e-05
4.48621e-05
4.4578e-05
4.24934e-05
4.2796e-06
1.64947e-05
2.98455e-05
3.83296e-05
4.28926e-05
4.465e-05
4.42815e-05
4.21406e-05
4.29364e-06
1.65693e-05
2.99111e-05
3.8312e-05
4.27614e-05
4.44064e-05
4.39432e-05
4.17402e-05
4.30806e-06
1.66544e-05
2.99845e-05
3.82901e-05
4.26204e-05
4.41491e-05
4.35903e-05
4.13265e-05
4.24958e-06
1.66192e-05
2.99296e-05
3.82974e-05
4.27395e-05
4.43836e-05
4.39143e-05
4.17003e-05
4.25734e-06
1.66171e-05
2.99262e-05
3.82774e-05
4.26863e-05
4.42924e-05
4.37888e-05
4.15506e-05
4.26806e-06
1.66504e-05
2.99546e-05
3.82575e-05
4.25972e-05
4.4132e-05
4.35676e-05
4.12893e-05
4.28141e-06
1.67163e-05
3.00118e-05
3.82372e-05
4.24767e-05
4.39132e-05
4.32686e-05
4.09399e-05
4.29663e-06
1.68022e-05
3.00825e-05
3.82085e-05
4.23269e-05
4.36481e-05
4.29123e-05
4.05292e-05
4.31322e-06
1.69113e-05
3.01637e-05
3.81758e-05
4.21581e-05
4.33523e-05
4.25184e-05
4.00781e-05
4.33057e-06
1.70325e-05
3.02494e-05
3.81437e-05
4.19849e-05
4.30508e-05
4.21216e-05
3.96294e-05
4.26731e-06
1.69658e-05
3.01931e-05
3.81788e-05
4.21489e-05
4.3326e-05
4.24622e-05
3.9986e-05
4.27578e-06
1.69775e-05
3.02059e-05
3.81637e-05
4.2093e-05
4.32297e-05
4.23339e-05
3.98383e-05
4.28797e-06
1.7033e-05
3.02506e-05
3.81454e-05
4.19953e-05
4.30583e-05
4.21072e-05
3.95808e-05
4.30359e-06
1.71298e-05
3.03242e-05
3.81247e-05
4.18629e-05
4.28266e-05
4.18043e-05
3.92417e-05
4.32175e-06
1.72525e-05
3.0413e-05
3.80984e-05
4.17041e-05
4.25542e-05
4.14541e-05
3.88556e-05
4.34188e-06
1.73923e-05
3.0516e-05
3.80726e-05
4.15335e-05
4.22629e-05
4.10838e-05
3.84515e-05
4.36332e-06
1.75376e-05
3.06319e-05
3.80553e-05
4.13697e-05
4.19827e-05
4.07328e-05
3.80761e-05
4.29397e-06
1.74644e-05
3.05703e-05
3.80956e-05
4.15273e-05
4.22127e-05
4.09739e-05
3.82804e-05
4.30338e-06
1.74978e-05
3.06024e-05
3.80958e-05
4.14885e-05
4.21418e-05
4.08834e-05
3.8183e-05
4.31762e-06
1.75795e-05
3.06725e-05
3.80991e-05
4.14171e-05
4.20123e-05
4.07208e-05
3.80113e-05
4.33649e-06
1.77057e-05
3.07786e-05
3.81075e-05
4.13218e-05
4.18398e-05
4.05078e-05
3.77913e-05
4.35879e-06
1.78598e-05
3.09091e-05
3.8121e-05
4.1215e-05
4.16482e-05
4.02765e-05
3.75585e-05
4.38369e-06
1.8036e-05
3.10619e-05
3.81463e-05
4.11135e-05
4.14622e-05
4.00557e-05
3.73423e-05
4.41029e-06
1.82324e-05
3.12374e-05
3.81927e-05
4.10373e-05
4.13116e-05
3.98827e-05
3.71844e-05
4.27452e-06
1.61924e-05
2.96963e-05
3.87952e-05
4.42252e-05
4.69356e-05
4.74445e-05
4.59232e-05
4.27354e-06
1.65867e-05
3.01813e-05
3.91771e-05
4.44612e-05
4.70282e-05
4.7406e-05
4.5771e-05
4.27e-06
1.68064e-05
3.04761e-05
3.94388e-05
4.4665e-05
4.71771e-05
4.75088e-05
4.5836e-05
4.27469e-06
1.73444e-05
3.11507e-05
4.00028e-05
4.5053e-05
4.73635e-05
4.74712e-05
4.55582e-05
4.24965e-06
1.67175e-05
3.0349e-05
3.93188e-05
4.45672e-05
4.71053e-05
4.74644e-05
4.58204e-05
4.24229e-06
1.67048e-05
3.02679e-05
3.9197e-05
4.44268e-05
4.6958e-05
4.73177e-05
4.56797e-05
4.23075e-06
1.64436e-05
2.99498e-05
3.89516e-05
4.42876e-05
4.69284e-05
4.73927e-05
4.58492e-05
4.26871e-06
1.61669e-05
2.96524e-05
3.87495e-05
4.4182e-05
4.6895e-05
4.74056e-05
4.58863e-05
4.26581e-06
1.64806e-05
3.00295e-05
3.90405e-05
4.43572e-05
4.69583e-05
4.73678e-05
4.57618e-05
4.26012e-06
1.66223e-05
3.02127e-05
3.91951e-05
4.44694e-05
4.70332e-05
4.7415e-05
4.57906e-05
4.2608e-06
1.70017e-05
3.06771e-05
3.95684e-05
4.47074e-05
4.71215e-05
4.73427e-05
4.55522e-05
4.24192e-06
1.65858e-05
3.01467e-05
3.91227e-05
4.44037e-05
4.6981e-05
4.73805e-05
4.57766e-05
4.23581e-06
1.66114e-05
3.01373e-05
3.90841e-05
4.43488e-05
4.69166e-05
4.73094e-05
4.57001e-05
4.22567e-06
1.6422e-05
2.9905e-05
3.89042e-05
4.42475e-05
4.68981e-05
4.73712e-05
4.58345e-05
4.26576e-06
1.61585e-05
2.96359e-05
3.87282e-05
4.41549e-05
4.686e-05
4.73622e-05
4.58364e-05
4.26148e-06
1.64089e-05
2.99293e-05
3.89514e-05
4.42884e-05
4.69091e-05
4.73364e-05
4.5747e-05
4.25456e-06
1.65031e-05
3.00463e-05
3.90456e-05
4.43534e-05
4.6951e-05
4.73637e-05
4.57676e-05
4.25273e-06
1.67747e-05
3.03719e-05
3.92996e-05
4.45069e-05
4.69965e-05
4.72965e-05
4.5587e-05
4.23754e-06
1.64973e-05
3.00169e-05
3.90034e-05
4.43111e-05
4.6917e-05
4.73435e-05
4.57641e-05
4.23196e-06
1.65372e-05
3.00382e-05
3.90016e-05
4.42944e-05
4.68904e-05
4.73082e-05
4.57198e-05
4.22285e-06
1.64016e-05
2.98693e-05
3.88687e-05