/*--------------------------------*- C++ -*----------------------------------*\
| =========                 |                                                 |
| \\      /  F ield         | OpenFOAM: The Open Source CFD Toolbox           |
|  \\    /   O peration     | Version:  plus.master.MPPICInterFoam            |
|   \\  /    A nd           | Web:      www.OpenFOAM.com                      |
|    \\/     M anipulation  |                                                 |
\*---------------------------------------------------------------------------*/
FoamFile
{
    version     2.0;
    format      ascii;
    class       surfaceScalarField;
    location    "7.2";
    object      phi;
}
// * * * * * * * * * * * * * * * * * * * * * * * * * * * * * * * * * * * * * //

dimensions      [0 3 -1 0 0 0 0];

internalField   nonuniform List<scalar> 
34004
(
1.51732e-08
3.11065e-08
-1.74055e-06
-5.77371e-08
2.63706e-08
2.68966e-08
-2.18003e-06
-5.09841e-08
3.42195e-08
2.49076e-08
-2.52837e-06
-4.72422e-08
3.93514e-08
2.39086e-08
-2.86233e-06
-4.50075e-08
4.20849e-08
2.32718e-08
-3.19739e-06
-4.33438e-08
4.26687e-08
2.27986e-08
-3.53742e-06
-4.19765e-08
4.13055e-08
2.24253e-08
-3.88291e-06
-4.08209e-08
2.21467e-08
-4.23215e-06
-3.98734e-08
3.81433e-08
1.82935e-08
-8.9616e-10
-1.75106e-06
3.17913e-08
-1.98174e-09
-2.19235e-06
4.12714e-08
-1.82475e-09
-2.54276e-06
4.75509e-08
-1.35957e-09
-2.87882e-06
5.10294e-08
-7.88806e-10
-3.21609e-06
5.19798e-08
-1.92467e-10
-3.55846e-06
5.06586e-08
3.3817e-10
-3.90646e-06
8.75756e-10
-4.25838e-06
4.71822e-08
1.97704e-08
-3.60311e-08
-1.75699e-06
3.42681e-08
-3.36977e-08
-2.19938e-06
4.43184e-08
-3.11415e-08
-2.55093e-06
5.08563e-08
-2.90585e-08
-2.88812e-06
5.43557e-08
-2.71718e-08
-3.22652e-06
5.51615e-08
-2.54337e-08
-3.57003e-06
5.34935e-08
-2.38377e-08
-3.91918e-06
-2.23765e-08
-4.27221e-06
4.95457e-08
2.07067e-08
-7.31503e-08
-1.75792e-06
3.57914e-08
-6.71374e-08
-2.20041e-06
4.62897e-08
-6.21706e-08
-2.55226e-06
5.32027e-08
-5.85219e-08
-2.88979e-06
5.7022e-08
-5.53835e-08
-3.22859e-06
5.80824e-08
-5.25565e-08
-3.57258e-06
5.66271e-08
-4.99858e-08
-3.92226e-06
-4.76531e-08
-4.27593e-06
5.2796e-08
1.95967e-08
-1.09604e-07
-1.7528e-06
3.37754e-08
-1.00059e-07
-2.19439e-06
4.36202e-08
-9.29971e-08
-2.54541e-06
5.0136e-08
-8.81105e-08
-2.88211e-06
5.37908e-08
-8.40426e-08
-3.22008e-06
5.48972e-08
-8.04415e-08
-3.56323e-06
5.36568e-08
-7.71845e-08
-3.91204e-06
-7.4241e-08
-4.26477e-06
5.01708e-08
1.69148e-08
-1.43062e-07
-1.74153e-06
2.88427e-08
-1.30245e-07
-2.18115e-06
3.71973e-08
-1.21783e-07
-2.53015e-06
4.29561e-08
-1.16342e-07
-2.86483e-06
4.65149e-08
-1.11992e-07
-3.20079e-06
4.81154e-08
-1.08222e-07
-3.54192e-06
4.78588e-08
-1.04812e-07
-3.88874e-06
-1.01663e-07
-4.23951e-06
4.5687e-08
8.83988e-09
-1.72342e-06
-1.67132e-07
1.42308e-08
-2.16013e-06
-1.52261e-07
1.76013e-08
-2.50532e-06
-1.43645e-07
1.96997e-08
-2.836e-06
-1.38666e-07
2.09208e-08
-3.16769e-06
-1.35087e-07
2.15516e-08
-3.50421e-06
-1.32273e-07
2.16706e-08
-3.84608e-06
-1.29843e-07
-4.19157e-06
-1.27652e-07
2.12131e-08
1.42253e-08
2.11365e-08
-1.73139e-06
-4.45282e-08
2.49398e-08
1.75931e-08
-2.16969e-06
-3.86827e-08
3.26535e-08
1.60395e-08
-2.51663e-06
-3.5526e-08
3.78895e-08
1.53067e-08
-2.84925e-06
-3.36632e-08
4.08974e-08
1.48939e-08
-3.18303e-06
-3.23231e-08
4.18564e-08
1.46357e-08
-3.52183e-06
-3.12706e-08
4.09093e-08
1.44743e-08
-3.86614e-06
-3.04279e-08
1.43978e-08
-4.21421e-06
-2.97874e-08
3.81502e-08
1.67922e-08
-6.40253e-09
-1.74033e-06
2.94198e-08
-7.12246e-09
-2.18028e-06
3.85232e-08
-6.78162e-09
-2.52905e-06
4.47641e-08
-6.22047e-09
-2.86354e-06
4.84431e-08
-5.57511e-09
-3.19928e-06
4.97526e-08
-4.90622e-09
-3.54017e-06
4.88304e-08
-4.23735e-09
-3.88671e-06
-3.56663e-09
-4.23712e-06
4.57482e-08
1.79648e-08
-3.62123e-08
-1.74517e-06
3.14054e-08
-3.38698e-08
-2.18611e-06
4.09994e-08
-3.14584e-08
-2.53589e-06
4.75049e-08
-2.95165e-08
-2.87139e-06
5.12746e-08
-2.77649e-08
-3.20818e-06
5.254e-08
-2.61492e-08
-3.55018e-06
5.14675e-08
-2.46599e-08
-3.89787e-06
-2.32939e-08
-4.24946e-06
4.81506e-08
1.85526e-08
-6.72404e-08
-1.74546e-06
3.23461e-08
-6.16111e-08
-2.18647e-06
4.22209e-08
-5.71388e-08
-2.53646e-06
4.89768e-08
-5.38626e-08
-2.87219e-06
5.29741e-08
-5.10532e-08
-3.20926e-06
5.44334e-08
-4.85224e-08
-3.55158e-06
5.34976e-08
-4.62148e-08
-3.89962e-06
-4.41079e-08
-4.25159e-06
5.02334e-08
1.72906e-08
-9.70779e-08
-1.74029e-06
3.00889e-08
-8.83614e-08
-2.18048e-06
3.92423e-08
-8.21189e-08
-2.52963e-06
4.55409e-08
-7.78063e-08
-2.86453e-06
4.93293e-08
-7.42424e-08
-3.20077e-06
5.08175e-08
-7.11095e-08
-3.54226e-06
5.01293e-08
-6.82959e-08
-3.88947e-06
-6.57715e-08
-4.24059e-06
4.72977e-08
1.47077e-08
-1.23696e-07
-1.72964e-06
2.53898e-08
-1.12176e-07
-2.16804e-06
3.30993e-08
-1.04711e-07
-2.51528e-06
3.8596e-08
-9.98875e-08
-2.84824e-06
4.2156e-08
-9.6041e-08
-3.18252e-06
4.39264e-08
-9.27268e-08
-3.52199e-06
4.39414e-08
-8.97507e-08
-3.86714e-06
-8.7022e-08
-4.21617e-06
4.21178e-08
7.69867e-09
-1.71307e-06
-1.41774e-07
1.27927e-08
-2.14883e-06
-1.28615e-07
1.61638e-08
-2.49262e-06
-1.20836e-07
1.84319e-08
-2.82196e-06
-1.16273e-07
1.98475e-08
-3.15234e-06
-1.12907e-07
2.06199e-08
-3.48761e-06
-1.10249e-07
2.08022e-08
-3.82825e-06
-1.07979e-07
-4.17248e-06
-1.05993e-07
2.0344e-08
1.31566e-08
1.28509e-08
-1.7241e-06
-3.33154e-08
2.31893e-08
9.76341e-09
-2.16136e-06
-2.8122e-08
3.05095e-08
8.49818e-09
-2.50705e-06
-2.53896e-08
3.55694e-08
7.92994e-09
-2.83846e-06
-2.37825e-08
3.85786e-08
7.65615e-09
-3.17103e-06
-2.26566e-08
3.96789e-08
7.54116e-09
-3.50864e-06
-2.18116e-08
3.89762e-08
7.53478e-09
-3.85176e-06
-2.11763e-08
7.62596e-09
-4.19858e-06
-2.0739e-08
3.65356e-08
1.51922e-08
-1.06718e-08
-1.73201e-06
2.673e-08
-1.12089e-08
-2.17084e-06
3.51615e-08
-1.08004e-08
-2.51819e-06
4.10514e-08
-1.02327e-08
-2.85128e-06
4.46484e-08
-9.5902e-09
-3.18565e-06
4.61043e-08
-8.91691e-09
-3.52521e-06
4.55187e-08
-8.23344e-09
-3.87042e-06
-7.53891e-09
-4.21946e-06
4.29219e-08
1.60221e-08
-3.56951e-08
-1.73617e-06
2.81196e-08
-3.34653e-08
-2.17594e-06
3.68797e-08
-3.12533e-08
-2.52419e-06
4.29382e-08
-2.94834e-08
-2.85818e-06
4.65806e-08
-2.78844e-08
-3.19351e-06
4.79847e-08
-2.63983e-08
-3.53407e-06
4.72713e-08
-2.50128e-08
-3.88032e-06
-2.37229e-08
-4.23041e-06
4.45004e-08
1.62942e-08
-6.12901e-08
-1.73617e-06
2.85247e-08
-5.61286e-08
-2.17605e-06
3.74088e-08
-5.21532e-08
-2.52446e-06
4.36129e-08
-4.92538e-08
-2.85864e-06
4.74287e-08
-4.6778e-08
-3.19421e-06
4.90267e-08
-4.45527e-08
-3.53507e-06
4.85092e-08
-4.25251e-08
-3.88167e-06
-4.06731e-08
-4.23214e-06
4.58934e-08
1.49363e-08
-8.53238e-08
-1.7312e-06
2.61096e-08
-7.74417e-08
-2.17035e-06
3.42089e-08
-7.19452e-08
-2.51794e-06
3.98802e-08
-6.81478e-08
-2.85129e-06
4.34002e-08
-6.50233e-08
-3.18602e-06
4.49288e-08
-6.22865e-08
-3.52602e-06
4.45516e-08
-5.98355e-08
-3.87171e-06
-5.76396e-08
-4.22124e-06
4.22848e-08
1.25279e-08
-1.06171e-07
-1.72133e-06
2.17631e-08
-9.587e-08
-2.15886e-06
2.85275e-08
-8.93145e-08
-2.50469e-06
3.34329e-08
-8.50558e-08
-2.83626e-06
3.67007e-08
-8.16781e-08
-3.16916e-06
3.84428e-08
-7.87897e-08
-3.50727e-06
3.86798e-08
-7.62247e-08
-3.85106e-06
-7.39034e-08
-4.19865e-06
3.73163e-08
6.54093e-09
-1.7063e-06
-1.19485e-07
1.1055e-08
-2.14143e-06
-1.07799e-07
1.40913e-08
-2.48416e-06
-1.00824e-07
1.61886e-08
-2.81244e-06
-9.66712e-08
1.75106e-08
-3.14178e-06
-9.35407e-08
1.82306e-08
-3.47602e-06
-9.10532e-08
1.83973e-08
-3.81562e-06
-8.89436e-08
-4.15872e-06
-8.71259e-08
1.79939e-08
1.20593e-08
5.71844e-09
-1.71839e-06
-2.34846e-08
2.12921e-08
2.92653e-09
-2.15471e-06
-1.87612e-08
2.80401e-08
1.84315e-09
-2.49925e-06
-1.63511e-08
3.27298e-08
1.3631e-09
-2.82953e-06
-1.49372e-08
3.55643e-08
1.16009e-09
-3.16102e-06
-1.39747e-08
3.66838e-08
1.12356e-09
-3.49757e-06
-1.3293e-08
3.61908e-08
1.2103e-09
-3.83964e-06
-1.28286e-08
1.41124e-09
-4.18537e-06
-1.25684e-08
3.41353e-08
1.35927e-08
-1.41573e-08
-1.7257e-06
2.39115e-08
-1.46285e-08
-2.16356e-06
3.14596e-08
-1.42221e-08
-2.50964e-06
3.67504e-08
-1.36912e-08
-2.84148e-06
4.002e-08
-1.30851e-08
-3.17465e-06
4.14183e-08
-1.24339e-08
-3.51302e-06
4.10436e-08
-1.17539e-08
-3.85704e-06
-1.10434e-08
-4.20484e-06
3.89236e-08
1.40821e-08
-3.48544e-08
-1.72954e-06
2.46963e-08
-3.28183e-08
-2.16833e-06
3.23908e-08
-3.0837e-08
-2.51525e-06
3.77342e-08
-2.92608e-08
-2.84794e-06
4.09946e-08
-2.78338e-08
-3.18202e-06
4.23451e-08
-2.6497e-08
-3.52136e-06
4.19029e-08
-2.52367e-08
-3.86641e-06
-2.40466e-08
-4.21524e-06
3.9713e-08
1.40622e-08
-5.55637e-08
-1.72951e-06
2.45917e-08
-5.09014e-08
-2.16847e-06
3.22366e-08
-4.73949e-08
-2.51552e-06
3.75887e-08
-4.48461e-08
-2.84838e-06
4.09215e-08
-4.26747e-08
-3.18268e-06
4.24037e-08
-4.07226e-08
-3.52229e-06
4.21404e-08
-3.89402e-08
-3.86766e-06
-3.73049e-08
-4.21684e-06
4.01503e-08
1.2675e-08
-7.45102e-08
-1.72492e-06
2.21279e-08
-6.74346e-08
-2.16325e-06
2.89644e-08
-6.26133e-08
-2.50955e-06
3.37509e-08
-5.92836e-08
-2.84163e-06
3.67504e-08
-5.65562e-08
-3.17513e-06
3.81256e-08
-5.41777e-08
-3.51393e-06
3.79708e-08
-5.20572e-08
-3.85844e-06
-5.0165e-08
-4.20672e-06
3.6302e-08
1.0468e-08
-9.04254e-08
-1.71588e-06
1.81703e-08
-8.12356e-08
-2.15275e-06
2.37901e-08
-7.5485e-08
-2.49742e-06
2.78522e-08
-7.17235e-08
-2.82786e-06
3.05735e-08
-6.87531e-08
-3.15965e-06
3.2077e-08
-6.62293e-08
-3.49668e-06
3.24069e-08
-6.40096e-08
-3.83938e-06
-6.20253e-08
-4.18581e-06
3.15002e-08
5.4459e-09
-1.70229e-06
-9.98895e-08
9.22153e-09
-2.13695e-06
-8.94786e-08
1.17322e-08
-2.47884e-06
-8.32977e-08
1.3427e-08
-2.80633e-06
-7.95116e-08
1.44761e-08
-3.13492e-06
-7.6649e-08
1.50537e-08
-3.46845e-06
-7.43659e-08
1.5233e-08
-3.80735e-06
-7.24457e-08
-4.14971e-06
-7.08221e-08
1.50231e-08
1.10052e-08
-7.24217e-10
-1.71408e-06
-1.45708e-08
1.93121e-08
-3.2792e-09
-2.14946e-06
-1.01942e-08
2.53062e-08
-4.23147e-09
-2.49291e-06
-8.03673e-09
2.94219e-08
-4.65289e-09
-2.82217e-06
-6.77269e-09
3.18873e-08
-4.80744e-09
-3.15269e-06
-5.93805e-09
3.28747e-08
-4.78577e-09
-3.48833e-06
-5.38751e-09
3.25161e-08
-4.62539e-09
-3.82954e-06
-5.0649e-09
-4.33476e-09
-4.17439e-06
-4.95682e-09
3.08768e-08
1.20189e-08
-1.7222e-08
-1.72117e-06
2.10162e-08
-1.76964e-08
-2.15808e-06
2.74956e-08
-1.7332e-08
-2.50296e-06
3.19679e-08
-1.68642e-08
-2.8337e-06
3.46999e-08
-1.63168e-08
-3.16583e-06
3.58815e-08
-1.57084e-08
-3.50324e-06
3.56488e-08
-1.50508e-08
-3.84635e-06
-1.43407e-08
-4.19321e-06
3.40511e-08
1.21862e-08
-3.39557e-08
-1.72496e-06
2.12029e-08
-3.21574e-08
-2.16284e-06
2.76182e-08
-3.04128e-08
-2.50854e-06
3.19889e-08
-2.90306e-08
-2.84011e-06
3.46128e-08
-2.77728e-08
-3.17315e-06
3.57061e-08
-2.65811e-08
-3.51155e-06
3.5428e-08
-2.54406e-08
-3.8557e-06
-2.43432e-08
-4.20361e-06
3.38504e-08
1.19117e-08
-5.02442e-08
-1.72511e-06
2.06386e-08
-4.60836e-08
-2.16323e-06
2.6832e-08
-4.30114e-08
-2.50909e-06
3.10694e-08
-4.07858e-08
-2.84084e-06
3.36577e-08
-3.88927e-08
-3.17412e-06
3.48153e-08
-3.71895e-08
-3.51281e-06
3.4697e-08
-3.56298e-08
-3.85732e-06
-3.41914e-08
-4.20563e-06
3.33556e-08
1.05338e-08
-6.4671e-08
-1.72101e-06
1.81865e-08
-5.83492e-08
-2.15861e-06
2.35604e-08
-5.41271e-08
-2.50377e-06
2.7208e-08
-5.12121e-08
-2.83482e-06
2.94301e-08
-4.88325e-08
-3.16738e-06
3.04434e-08
-4.67649e-08
-3.50533e-06
3.03993e-08
-4.49291e-08
-3.84905e-06
-4.32977e-08
-4.19652e-06
2.93573e-08
8.5537e-09
-7.63153e-08
-1.71277e-06
1.46566e-08
-6.81234e-08
-2.14905e-06
1.89503e-08
-6.30774e-08
-2.49273e-06
2.19411e-08
-5.97587e-08
-2.82227e-06
2.38906e-08
-5.71481e-08
-3.15325e-06
2.49816e-08
-5.49458e-08
-3.48956e-06
2.5325e-08
-5.30307e-08
-3.83158e-06
-5.13444e-08
-4.17732e-06
2.49145e-08
4.41439e-09
-1.70043e-06
-8.25709e-08
7.31205e-09
-2.13466e-06
-7.32752e-08
9.07526e-09
-2.47585e-06
-6.77978e-08
1.01247e-08
-2.80273e-06
-6.43653e-08
1.06866e-08
-3.13082e-06
-6.1768e-08
1.09789e-08
-3.46395e-06
-5.96936e-08
1.1138e-08
-3.80252e-06
-5.79683e-08
-4.14455e-06
-5.65395e-08
1.12263e-08
9.9411e-09
-6.6582e-09
-1.71108e-06
-6.24869e-09
1.7176e-08
-9.13261e-09
-2.14536e-06
-2.12518e-09
2.22024e-08
-1.00111e-08
-2.48769e-06
-1.79191e-10
2.55013e-08
-1.04067e-08
-2.81597e-06
9.61912e-10
2.73666e-08
-1.05387e-08
-3.14566e-06
1.69665e-09
2.8047e-08
-1.04792e-08
-3.48063e-06
2.14075e-09
2.77469e-08
-1.02593e-08
-3.82128e-06
2.34032e-09
-9.88531e-09
-4.1656e-06
2.30732e-09
2.65812e-08
1.04937e-08
-2.01079e-08
-1.71816e-06
1.80029e-08
-2.06469e-08
-2.15402e-06
2.31642e-08
-2.03523e-08
-2.49774e-06
2.65361e-08
-1.99614e-08
-2.82747e-06
2.84619e-08
-1.94816e-08
-3.15877e-06
2.92202e-08
-1.89224e-08
-3.49551e-06
2.90336e-08
-1.82911e-08
-3.83809e-06
-1.75819e-08
-4.18444e-06
2.80156e-08
1.03258e-08
-3.31978e-08
-1.72216e-06
1.75804e-08
-3.16599e-08
-2.15904e-06
2.24459e-08
-3.01468e-08
-2.50358e-06
2.55301e-08
-2.89517e-08
-2.83417e-06
2.72154e-08
-2.78557e-08
-3.16642e-06
2.78162e-08
-2.68016e-08
-3.50423e-06
2.75879e-08
-2.57732e-08
-3.84795e-06
-2.47604e-08
-4.19548e-06
2.66747e-08
9.81465e-09
-4.54342e-08
-1.72266e-06
1.65785e-08
-4.17574e-08
-2.15986e-06
2.10419e-08
-3.90791e-08
-2.50458e-06
2.38358e-08
-3.71445e-08
-2.8354e-06
2.53591e-08
-3.54993e-08
-3.16796e-06
2.59385e-08
-3.40157e-08
-3.50614e-06
2.58373e-08
-3.26509e-08
-3.8503e-06
-3.13836e-08
-4.19832e-06
2.51937e-08
8.47036e-09
-5.57774e-08
-1.71911e-06
1.41744e-08
-5.01472e-08
-2.15589e-06
1.78151e-08
-4.64549e-08
-2.50001e-06
2.00021e-08
-4.39063e-08
-2.83021e-06
2.11327e-08
-4.18314e-08
-3.16214e-06
2.15373e-08
-4.00347e-08
-3.49968e-06
2.14821e-08
-3.84464e-08
-3.84317e-06
-3.7042e-08
-4.19047e-06
2.11166e-08
6.73087e-09
-6.3637e-08
-1.71162e-06
1.10925e-08
-5.6331e-08
-2.14719e-06
1.37988e-08
-5.18997e-08
-2.48996e-06
1.54115e-08
-4.89709e-08
-2.81878e-06
1.6293e-08
-4.66741e-08
-3.14925e-06
1.67432e-08
-4.47506e-08
-3.48526e-06
1.69944e-08
-4.30992e-08
-3.82715e-06
-4.16713e-08
-4.17281e-06
1.71433e-08
3.39545e-09
-1.70032e-06
-6.71217e-08
5.213e-09
-2.13397e-06
-5.87989e-08
5.92971e-09
-2.47449e-06
-5.39398e-08
6.01754e-09
-2.80091e-06
-5.0847e-08
5.8077e-09
-3.12874e-06
-4.85058e-08
5.61471e-09
-3.46183e-06
-4.66369e-08
5.68775e-09
-3.80056e-06
-4.5107e-08
-4.14281e-06
-4.3873e-08
6.1771e-09
8.84562e-09
-1.24909e-08
-1.70917e-06
1.76046e-09
1.47719e-08
-1.48974e-08
-2.14205e-06
5.69705e-09
1.84951e-08
-1.57233e-08
-2.48315e-06
7.49444e-09
2.06084e-08
-1.61068e-08
-2.81049e-06
8.55098e-09
2.15352e-08
-1.62266e-08
-3.13952e-06
9.20073e-09
2.1655e-08
-1.6138e-08
-3.47412e-06
9.54731e-09
2.13003e-08
-1.58653e-08
-3.81465e-06
9.63267e-09
-1.54109e-08
-4.159e-06
9.46413e-09
2.06868e-08
8.91699e-09
-2.30571e-08
-1.71649e-06
1.46922e-08
-2.36816e-08
-2.15098e-06
1.81772e-08
-2.34634e-08
-2.49345e-06
2.00505e-08
-2.31517e-08
-2.82227e-06
2.07946e-08
-2.27409e-08
-3.15296e-06
2.08403e-08
-2.22308e-08
-3.48943e-06
2.0561e-08
-2.16238e-08
-3.83201e-06
-2.09105e-08
-4.17853e-06
2.01931e-08
8.41586e-09
-3.27315e-08
-1.72088e-06
1.36263e-08
-3.14527e-08
-2.15645e-06
1.65389e-08
-3.01559e-08
-2.49976e-06
1.78911e-08
-2.91346e-08
-2.8295e-06
1.82169e-08
-2.81878e-08
-3.16127e-06
1.7998e-08
-2.72589e-08
-3.49894e-06
1.76576e-08
-2.63303e-08
-3.84286e-06
-2.53892e-08
-4.19078e-06
1.74781e-08
7.67776e-09
-4.11884e-08
-1.72186e-06
1.21845e-08
-3.79642e-08
-2.15782e-06
1.44937e-08
-3.56388e-08
-2.50138e-06
1.53745e-08
-3.3963e-08
-2.83142e-06
1.53874e-08
-3.25364e-08
-3.16359e-06
1.50406e-08
-3.12443e-08
-3.50178e-06
1.47805e-08
-3.00476e-08
-3.8463e-06
-2.8926e-08
-4.19488e-06
1.49002e-08
6.37542e-09
-4.77569e-08
-1.7189e-06
9.83384e-09
-4.27539e-08
-2.15452e-06
1.13124e-08
-3.95281e-08
-2.49756e-06
1.15641e-08
-3.73009e-08
-2.82709e-06
1.11551e-08
-3.54898e-08
-3.15875e-06
1.06025e-08
-3.39262e-08
-3.49642e-06
1.0362e-08
-3.25498e-08
-3.84041e-06
-3.13402e-08
-4.18843e-06
1.07433e-08
4.88835e-09
-5.21721e-08
-1.71208e-06
7.21813e-09
-4.56507e-08
-2.14659e-06
7.91896e-09
-4.17579e-08
-2.4884e-06
7.69355e-09
-3.9171e-08
-2.81666e-06
7.07799e-09
-3.71465e-08
-3.14696e-06
6.55931e-09
-3.54637e-08
-3.48318e-06
6.56205e-09
-3.40391e-08
-3.82566e-06
-3.28344e-08
-4.1721e-06
7.34975e-09
2.28829e-09
-1.7016e-06
-5.3161e-08
2.684e-09
-2.13429e-06
-4.56839e-08
1.90678e-09
-2.47405e-06
-4.1383e-08
5.62226e-10
-2.80011e-06
-3.85993e-08
-8.45036e-10
-3.12796e-06
-3.64965e-08
-1.83057e-09
-3.46147e-06
-3.48261e-08
-1.96955e-09
-3.80096e-06
-3.34842e-08
-4.14421e-06
-3.24363e-08
-9.63702e-10
7.59211e-09
-1.83805e-08
-1.70808e-06
9.70563e-09
1.18283e-08
-2.07267e-08
-2.13901e-06
1.34551e-08
1.37578e-08
-2.15094e-08
-2.47867e-06
1.51027e-08
1.41658e-08
-2.18865e-08
-2.80507e-06
1.60733e-08
1.36679e-08
-2.19987e-08
-3.13366e-06
1.66456e-08
1.28499e-08
-2.18829e-08
-3.4683e-06
1.68981e-08
1.22509e-08
-2.15552e-08
-3.80935e-06
1.6865e-08
-2.10134e-08
-4.15455e-06
1.65503e-08
1.22626e-08
7.18317e-09
-2.62299e-08
-1.71581e-06
1.08034e-08
-2.69353e-08
-2.14838e-06
1.20649e-08
-2.67894e-08
-2.48942e-06
1.18559e-08
-2.65527e-08
-2.81737e-06
1.08753e-08
-2.62068e-08
-3.14776e-06
9.78498e-09
-2.57399e-08
-3.48446e-06
9.19337e-09
-2.51485e-08
-3.82782e-06
-2.44192e-08
-4.17547e-06
9.54246e-09
6.32147e-09
-3.26601e-08
-1.72076e-06
9.01264e-09
-3.16193e-08
-2.15444e-06
9.36343e-09
-3.05172e-08
-2.49637e-06
8.3346e-09
-2.96528e-08
-2.82535e-06
6.69936e-09
-2.88396e-08
-3.15698e-06
5.19156e-09
-2.80201e-08
-3.49514e-06
4.49254e-09
-2.71744e-08
-3.84013e-06
-2.62874e-08
-4.18953e-06
5.11327e-09
5.34565e-09
-3.7523e-08
-1.72233e-06
7.08881e-09
-3.47104e-08
-2.15645e-06
6.59603e-09
-3.26973e-08
-2.49868e-06
4.87702e-09
-3.12491e-08
-2.82808e-06
2.74504e-09
-3.00117e-08
-3.16026e-06
9.78104e-10
-2.88824e-08
-3.49913e-06
2.99681e-10
-2.78259e-08
-3.84497e-06
-2.68228e-08
-4.1953e-06
1.24956e-09
4.08108e-09
-4.05147e-08
-1.71997e-06
4.7708e-09
-3.60784e-08
-2.15381e-06
3.42019e-09
-3.32642e-08
-2.49562e-06
1.03908e-09
-3.13166e-08
-2.82462e-06
-1.55162e-09
-2.97313e-08
-3.15643e-06
-3.55835e-09
-2.83646e-08
-3.49493e-06
-4.24178e-09
-2.7166e-08
-3.84039e-06
-2.61199e-08
-4.19035e-06
-3.03878e-09
2.85763e-09
-4.17031e-08
-1.71373e-06
2.63562e-09
-3.58825e-08
-2.14653e-06
6.72891e-10
-3.24619e-08
-2.48721e-06
-2.06616e-09
-3.01749e-08
-2.81504e-06
-4.79722e-09
-2.83839e-08
-3.14556e-06
-6.7581e-09
-2.69057e-08
-3.48268e-06
-7.24125e-09
-2.56732e-08
-3.82668e-06
-2.466e-08
-4.1751e-06
-5.72902e-09
9.49731e-10
-1.70387e-06
-4.03537e-08
-6.42005e-10
-2.13493e-06
-3.36246e-08
-3.57607e-09
-2.47373e-06
-2.98238e-08
-7.01333e-09
-2.7995e-06
-2.7327e-08
-1.02152e-08
-3.12769e-06
-2.54368e-08
-1.24443e-08
-3.4622e-06
-2.39477e-08
-1.30115e-08
-3.8033e-06
-2.27782e-08
-4.14861e-06
-2.19054e-08
-1.13909e-08
6.05288e-09
-2.44677e-08
-1.70735e-06
1.76895e-08
8.00818e-09
-2.67352e-08
-2.13551e-06
2.12627e-08
7.42534e-09
-2.74722e-08
-2.47339e-06
2.27726e-08
5.37784e-09
-2.78401e-08
-2.79886e-06
2.36605e-08
2.76454e-09
-2.7939e-08
-3.12727e-06
2.41507e-08
4.65953e-10
-2.77851e-08
-3.46253e-06
2.42976e-08
-6.7628e-10
-2.73857e-08
-3.80498e-06
2.41273e-08
-2.67339e-08
-4.15217e-06
2.36416e-08
6.03865e-12
5.11977e-09
-2.97429e-08
-1.71566e-06
5.92673e-09
-3.04955e-08
-2.14543e-06
4.1641e-09
-3.04099e-08
-2.48472e-06
1.04661e-09
-3.0235e-08
-2.81186e-06
-2.41775e-09
-2.99424e-08
-3.14229e-06
-5.24023e-09
-2.95036e-08
-3.47994e-06
-6.47458e-09
-2.89077e-08
-3.82508e-06
-2.81375e-08
-4.17521e-06
-5.36778e-09
3.84416e-09
-3.30489e-08
-1.7213e-06
3.26723e-09
-3.22015e-08
-2.15214e-06
1.54799e-10
-3.12673e-08
-2.49239e-06
-4.14831e-09
-3.05404e-08
-2.82074e-06
-8.56686e-09
-2.98393e-08
-3.15266e-06
-1.20117e-08
-2.91058e-08
-3.4921e-06
-1.34307e-08
-2.83172e-08
-3.83932e-06
-2.74566e-08
-4.19171e-06
-1.19688e-08
2.60501e-09
-3.44277e-08
-1.72354e-06
7.68565e-10
-3.1977e-08
-2.15482e-06
-3.47759e-09
-3.02353e-08
-2.49545e-06
-8.73775e-09
-2.89853e-08
-2.82437e-06
-1.38763e-08
-2.79049e-08
-3.15706e-06
-1.77416e-08
-2.69057e-08
-3.49748e-06
-1.92165e-08
-2.59562e-08
-3.84587e-06
-2.50401e-08
-4.19958e-06
-1.73892e-08
1.36868e-09
-3.3947e-08
-1.7218e-06
-1.56873e-09
-3.00252e-08
-2.1528e-06
-6.7083e-09
-2.75777e-08
-2.49312e-06
-1.26806e-08
-2.58708e-08
-2.82176e-06
-1.83246e-08
-2.44727e-08
-3.15421e-06
-2.24683e-08
-2.32653e-08
-3.49443e-06
-2.39711e-08
-2.22086e-08
-3.84266e-06
-2.12935e-08
-4.19621e-06
-2.18935e-08
4.25195e-10
-3.20292e-08
-1.71605e-06
-3.19004e-09
-2.68472e-08
-2.14607e-06
-8.76085e-09
-2.38535e-08
-2.48535e-06
-1.49594e-08
-2.18242e-08
-2.81288e-06
-2.06585e-08
-2.02286e-08
-3.14411e-06
-2.47231e-08
-1.89193e-08
-3.48297e-06
-2.60505e-08
-1.78457e-08
-3.82973e-06
-1.69942e-08
-4.18174e-06
-2.37442e-08
-8.42764e-10
-1.70663e-06
-2.8411e-08
-5.21605e-09
-2.13499e-06
-2.23899e-08
-1.12559e-08
-2.47252e-06
-1.90206e-08
-1.77235e-08
-2.79807e-06
-1.67812e-08
-2.35577e-08
-3.12701e-06
-1.50783e-08
-2.76724e-08
-3.46327e-06
-1.37496e-08
-2.90068e-08
-3.8071e-06
-1.27353e-08
-4.15593e-06
-1.20256e-08
-2.66872e-08
4.01651e-09
-3.08484e-08
-1.70636e-06
2.58303e-08
2.83269e-09
-3.29753e-08
-2.13056e-06
2.9182e-08
-1.2768e-09
-3.36436e-08
-2.46621e-06
3.05461e-08
-6.77143e-09
-3.39916e-08
-2.79073e-06
3.13354e-08
-1.2414e-08
-3.40527e-08
-3.11933e-06
3.17228e-08
-1.6926e-08
-3.38267e-08
-3.45596e-06
3.17313e-08
-1.90468e-08
-3.33111e-08
-3.80097e-06
3.1379e-08
-3.24967e-08
-4.15174e-06
3.06684e-08
-1.77074e-08
2.49621e-09
-3.36617e-08
-1.71536e-06
-5.09121e-10
-3.43889e-08
-2.14102e-06
-6.38237e-09
-3.43432e-08
-2.47816e-06
-1.34908e-08
-3.42136e-08
-2.80456e-06
-2.04323e-08
-3.39435e-08
-3.13549e-06
-2.5784e-08
-3.3495e-08
-3.47495e-06
-2.81366e-08
-3.28496e-08
-3.82323e-06
-3.1988e-08
-4.17762e-06
-2.62908e-08
7.45513e-10
-3.39249e-08
-1.72178e-06
-4.19692e-09
-3.31983e-08
-2.1484e-06
-1.19454e-08
-3.24066e-08
-2.48659e-06
-2.0722e-08
-3.1784e-08
-2.81441e-06
-2.9008e-08
-3.116e-08
-3.14718e-06
-3.52528e-08
-3.04723e-08
-3.4889e-06
-3.79065e-08
-2.96958e-08
-3.83985e-06
-2.88141e-08
-4.1972e-06
-3.56304e-08
-8.54703e-10
-3.18666e-08
-1.72474e-06
-7.4094e-09
-2.97296e-08
-2.15173e-06
-1.66455e-08
-2.82212e-08
-2.4904e-06
-2.66952e-08
-2.7126e-08
-2.81899e-06
-3.59669e-08
-2.61631e-08
-3.1528e-06
-4.2826e-08
-2.52517e-08
-3.49586e-06
-4.56292e-08
-2.43649e-08
-3.84843e-06
-2.34924e-08
-4.20761e-06
-4.2951e-08
-2.11588e-09
-2.79572e-08
-1.72359e-06
-9.82478e-09
-2.45219e-08
-2.1503e-06
-2.00276e-08
-2.23866e-08
-2.48875e-06
-3.0847e-08
-2.08787e-08
-2.81719e-06
-4.0679e-08
-1.96283e-08
-3.15093e-06
-4.78605e-08
-1.85405e-08
-3.49397e-06
-5.07154e-08
-1.75874e-08
-3.8466e-06
-1.6769e-08
-4.20588e-06
-4.77827e-08
-2.7931e-09
-2.29827e-08
-1.71822e-06
-1.09372e-08
-1.84254e-08
-2.14402e-06
-2.13491e-08
-1.58013e-08
-2.48152e-06
-3.22227e-08
-1.39929e-08
-2.8089e-06
-4.19931e-08
-1.25588e-08
-3.14141e-06
-4.9037e-08
-1.13868e-08
-3.48309e-06
-5.1722e-08
-1.04437e-08
-3.83421e-06
-9.72934e-09
-4.19188e-06
-4.86338e-08
-3.41439e-09
-1.70906e-06
-1.71258e-08
-1.17196e-08
-2.13333e-06
-1.17784e-08
-2.20475e-08
-2.46919e-06
-8.80407e-09
-3.27285e-08
-2.79459e-06
-6.79155e-09
-4.22721e-08
-3.12478e-06
-5.26044e-09
-4.91264e-08
-3.46373e-06
-4.08199e-09
-5.17272e-08
-3.81174e-06
-3.21703e-09
-4.16603e-06
-2.66785e-09
-4.87113e-08
1.25872e-09
-3.75435e-08
-1.70422e-06
3.4142e-08
-4.26254e-09
-3.9407e-08
-2.12284e-06
3.71759e-08
-1.31468e-08
-3.99916e-08
-2.45574e-06
3.83704e-08
-2.33786e-08
-4.02644e-08
-2.7793e-06
3.9028e-08
-3.32238e-08
-4.02272e-08
-3.10854e-06
3.9251e-08
-4.09043e-08
-3.98498e-08
-3.44751e-06
3.90413e-08
-4.46163e-08
-3.91214e-08
-3.79657e-06
3.84089e-08
-3.80364e-08
-4.15295e-06
3.73629e-08
-4.27507e-08
-1.00826e-09
-3.7987e-08
-1.71393e-06
-9.06878e-09
-3.86064e-08
-2.13379e-06
-2.04555e-08
-3.85398e-08
-2.46826e-06
-3.2929e-08
-3.84037e-08
-2.79397e-06
-4.45973e-08
-3.80968e-08
-3.12598e-06
-5.34964e-08
-3.75628e-08
-3.46837e-06
-5.76234e-08
-3.67776e-08
-3.82147e-06
-3.57255e-08
-4.18238e-06
-5.51883e-08
-3.41509e-09
-3.52491e-08
-1.72111e-06
-1.41015e-08
-3.45958e-08
-2.14174e-06
-2.79616e-08
-3.38757e-08
-2.47741e-06
-4.26423e-08
-3.33048e-08
-2.80485e-06
-5.61132e-08
-3.26973e-08
-3.13913e-06
-6.62387e-08
-3.19843e-08
-3.48438e-06
-7.08289e-08
-3.11399e-08
-3.84092e-06
-3.01533e-08
-4.2057e-06
-6.79104e-08
-5.4425e-09
-2.97964e-08
-1.72476e-06
-1.82068e-08
-2.79192e-08
-2.14566e-06
-3.39522e-08
-2.65847e-08
-2.48197e-06
-5.02721e-08
-2.55947e-08
-2.81039e-06
-6.50413e-08
-2.46945e-08
-3.14605e-06
-7.60106e-08
-2.38113e-08
-3.49307e-06
-8.08666e-08
-2.29246e-08
-3.85179e-06
-2.20331e-08
-4.21907e-06
-7.752e-08
-6.80039e-09
-2.24738e-08
-1.72411e-06
-2.07842e-08
-1.94883e-08
-2.14475e-06
-3.75647e-08
-1.76185e-08
-2.48095e-06
-5.47303e-08
-1.62654e-08
-2.80936e-06
-7.01272e-08
-1.512e-08
-3.14511e-06
-8.14684e-08
-1.41101e-08
-3.49233e-06
-8.64002e-08
-1.3221e-08
-3.85136e-06
-1.24641e-08
-4.21904e-06
-8.27925e-08
-7.19143e-09
-1.44703e-08
-1.71904e-06
-2.13163e-08
-1.05145e-08
-2.13887e-06
-3.80692e-08
-8.22575e-09
-2.47417e-06
-5.51002e-08
-6.6056e-09
-2.80153e-06
-7.02973e-08
-5.30376e-09
-3.13604e-06
-8.14217e-08
-4.24427e-09
-3.48183e-06
-8.61718e-08
-3.41214e-09
-3.83925e-06
-2.82189e-09
-4.20521e-06
-8.24704e-08
-7.14337e-09
-1.71003e-06
-6.36716e-09
-2.07711e-08
-2.12852e-06
-1.70564e-09
-3.68539e-08
-2.4622e-06
8.6724e-10
-5.31924e-08
-2.78755e-06
2.6859e-09
-6.77681e-08
-3.11959e-06
4.08398e-09
-7.84392e-08
-3.46244e-06
5.14229e-09
-8.3002e-08
-3.81647e-06
5.87969e-09
-4.17866e-06
6.27891e-09
-7.94589e-08
-2.6464e-09
-4.44499e-08
-1.69969e-06
4.25516e-08
-1.39349e-08
-4.59505e-08
-2.11077e-06
4.51364e-08
-2.91314e-08
-4.63373e-08
-2.44031e-06
4.60727e-08
-4.55827e-08
-4.64415e-08
-2.76294e-06
4.65071e-08
-6.10164e-08
-4.61794e-08
-3.09339e-06
4.64447e-08
-7.30365e-08
-4.54914e-08
-3.43586e-06
4.58575e-08
-7.91633e-08
-4.43626e-08
-3.79083e-06
4.47536e-08
-4.28046e-08
-4.15534e-06
4.31634e-08
-7.71099e-08
-5.77691e-09
-4.2651e-08
-1.70997e-06
-2.05091e-08
-4.30245e-08
-2.12202e-06
-3.89843e-08
-4.28489e-08
-2.45329e-06
-5.83878e-08
-4.26084e-08
-2.77842e-06
-7.62425e-08
-4.21445e-08
-3.11217e-06
-8.99177e-08
-4.13788e-08
-3.4588e-06
-9.66868e-08
-4.02843e-08
-3.81876e-06
-3.88615e-08
-4.18894e-06
-9.40412e-08
-9.0292e-09
-3.69834e-08
-1.71777e-06
-2.71171e-08
-3.62725e-08
-2.13043e-06
-4.87558e-08
-3.55444e-08
-2.4631e-06
-7.09928e-08
-3.49371e-08
-2.79029e-06
-9.11759e-08
-3.42421e-08
-3.12685e-06
-1.06462e-07
-3.33812e-08
-3.47708e-06
-1.13898e-07
-3.23308e-08
-3.84141e-06
-3.10958e-08
-4.21657e-06
-1.10757e-07
-1.16286e-08
-2.81639e-08
-1.72196e-06
-3.22663e-08
-2.64581e-08
-2.13485e-06
-5.62501e-08
-2.52296e-08
-2.46831e-06
-8.05387e-08
-2.42769e-08
-2.79677e-06
-1.02364e-07
-2.33628e-08
-3.1351e-06
-1.18745e-07
-2.24223e-08
-3.48763e-06
-1.26578e-07
-2.14438e-08
-3.85481e-06
-2.04415e-08
-4.23326e-06
-1.23004e-07
-1.31061e-08
-1.74407e-08
-1.72174e-06
-3.50541e-08
-1.48609e-08
-2.13442e-06
-6.0168e-08
-1.32122e-08
-2.46786e-06
-8.53896e-08
-1.19715e-08
-2.79644e-06
-1.07913e-07
-1.08904e-08
-3.13505e-06
-1.24712e-07
-9.91959e-09
-3.48801e-06
-1.32641e-07
-9.0588e-09
-3.85578e-06
-8.33256e-09
-4.23495e-06
-1.28798e-07
-1.31576e-08
-6.42979e-09
-1.7169e-06
-3.49441e-08
-3.06661e-09
-2.12889e-06
-5.97743e-08
-1.08586e-09
-2.46147e-06
-8.46595e-08
3.76307e-10
-2.78899e-06
-1.06826e-07
1.5391e-09
-3.12628e-06
-1.23311e-07
2.47412e-09
-3.47771e-06
-1.31027e-07
3.17043e-09
-3.84373e-06
3.6054e-09
-4.22099e-06
-1.27131e-07
-1.23455e-08
-1.70801e-06
3.89658e-09
-3.29493e-08
-2.11886e-06
7.87196e-09
-5.65169e-08
-2.44983e-06
1.01046e-08
-8.01717e-08
-2.77522e-06
1.17028e-08
-1.01299e-07
-3.10984e-06
1.29275e-08
-1.17051e-07
-3.45801e-06
1.38139e-08
-1.24465e-07
-3.82021e-06
1.43589e-08
-4.19322e-06
1.45366e-08
-1.20797e-07
-8.03551e-09
-5.14202e-08
-1.69111e-06
5.08638e-08
-2.67751e-08
-5.23222e-08
-2.09251e-06
5.27957e-08
-4.99573e-08
-5.23613e-08
-2.41809e-06
5.33301e-08
-7.43031e-08
-5.21141e-08
-2.73983e-06
5.33607e-08
-9.68954e-08
-5.13939e-08
-3.07216e-06
5.2777e-08
-1.14611e-07
-5.01095e-08
-3.41952e-06
5.15192e-08
-1.24193e-07
-4.82529e-08
-3.78255e-06
4.96049e-08
-4.58789e-08
-4.15811e-06
4.71117e-08
-1.22587e-07
-1.22359e-08
-4.7505e-08
-1.70166e-06
-3.53245e-08
-4.74093e-08
-2.10384e-06
-6.26345e-08
-4.69794e-08
-2.43136e-06
-9.06864e-08
-4.64646e-08
-2.756e-06
-1.16323e-07
-4.56316e-08
-3.09227e-06
-1.36149e-07
-4.43784e-08
-3.44466e-06
-1.46629e-07
-4.26858e-08
-3.8138e-06
-4.05922e-08
-4.1963e-06
-1.44474e-07
-1.64523e-08
-3.90039e-08
-1.70983e-06
-4.3711e-08
-3.80482e-08
-2.11254e-06
-7.4933e-08
-3.71882e-08
-2.44166e-06
-1.06479e-07
-3.64041e-08
-2.76879e-06
-1.34987e-07
-3.54505e-08
-3.1085e-06
-1.56817e-07
-3.42406e-08
-3.46535e-06
-1.68186e-07
-3.27616e-08
-3.83992e-06
-3.10506e-08
-4.22866e-06
-1.65578e-07
-1.96946e-08
-2.68837e-08
-1.7144e-06
-5.00403e-08
-2.52353e-08
-2.11732e-06
-8.40907e-08
-2.40253e-08
-2.44742e-06
-1.18108e-07
-2.30157e-08
-2.77612e-06
-1.48596e-07
-2.1979e-08
-3.11805e-06
-1.71758e-07
-2.08592e-08
-3.47782e-06
-1.83654e-07
-1.96591e-08
-3.85598e-06
-1.84173e-08
-4.24886e-06
-1.80635e-07
-2.13119e-08
-1.28099e-08
-1.71451e-06
-5.30837e-08
-1.06071e-08
-2.11727e-06
-8.83639e-08
-9.14202e-09
-2.44745e-06
-1.23395e-07
-7.97813e-09
-2.77643e-06
-1.5464e-07
-6.92551e-09
-3.11883e-06
-1.78253e-07
-5.96187e-09
-3.47926e-06
-1.90251e-07
-5.10365e-09
-3.85829e-06
-4.38916e-09
-4.25222e-06
-1.86955e-07
-2.09837e-08
1.16163e-09
-1.70989e-06
-5.22793e-08
3.87932e-09
-2.11207e-06
-8.70077e-08
5.52978e-09
-2.4414e-06
-1.21474e-07
6.78429e-09
-2.76926e-06
-1.52195e-07
7.7968e-09
-3.11025e-06
-1.7539e-07
8.56602e-09
-3.46901e-06
-1.8714e-07
9.07051e-09
-3.84611e-06
9.28091e-09
-4.23793e-06
-1.83819e-07
-1.93352e-08
-1.70119e-06
1.36728e-08
-4.87293e-08
-2.10242e-06
1.68422e-08
-8.15777e-08
-2.43011e-06
1.86724e-08
-1.1431e-07
-2.75569e-06
2.0008e-08
-1.43586e-07
-3.09372e-06
2.09853e-08
-1.65775e-07
-3.44881e-06
2.15919e-08
-1.77095e-07
-3.82158e-06
2.18098e-08
-4.20857e-06
2.16181e-08
-1.74027e-07
-1.52425e-08
-5.81405e-08
5.87625e-08
-1.67649e-06
-4.31633e-08
-5.81037e-08
5.97294e-08
-2.06618e-06
-7.60955e-08
-5.75459e-08
5.9611e-08
-2.38719e-06
-1.10061e-07
-5.66381e-08