/*--------------------------------*- C++ -*----------------------------------*\
| =========                 |                                                 |
| \\      /  F ield         | OpenFOAM: The Open Source CFD Toolbox           |
|  \\    /   O peration     | Version:  plus.master.MPPICInterFoam            |
|   \\  /    A nd           | Web:      www.OpenFOAM.com                      |
|    \\/     M anipulation  |                                                 |
\*---------------------------------------------------------------------------*/
FoamFile
{
    version     2.0;
    format      ascii;
    class       volVectorField;
    location    "7.2";
    object      U;
}
// * * * * * * * * * * * * * * * * * * * * * * * * * * * * * * * * * * * * * //

dimensions      [0 1 -1 0 0 0 0];

internalField   nonuniform List<vector> 
11821
(
(0.000639721 0.000616163 -0.0364008)
(0.000637412 0.000464289 -0.0398466)
(0.000645868 0.000371893 -0.0408721)
(0.000637312 0.000325288 -0.0413126)
(0.000618483 0.000299021 -0.0415284)
(0.000590473 0.000286188 -0.0416198)
(0.000556198 0.000282558 -0.0416192)
(0.000518097 0.000285942 -0.0415286)
(0.000260377 0.00022458 -0.0366397)
(0.000339836 0.000121596 -0.04009)
(0.000397971 6.80977e-05 -0.0411227)
(0.00041909 4.7866e-05 -0.0415681)
(0.000420057 4.29488e-05 -0.041788)
(0.000405359 4.78915e-05 -0.041883)
(0.000379827 5.92761e-05 -0.0418858)
(0.000346808 7.53607e-05 -0.0417986)
(6.5917e-05 -0.000374658 -0.036778)
(0.00019276 -0.000386833 -0.0402324)
(0.000277079 -0.0003757 -0.0412685)
(0.000310908 -0.000355155 -0.041716)
(0.000318296 -0.000330222 -0.0419373)
(0.000306223 -0.000302791 -0.0420331)
(0.000280708 -0.000274354 -0.0420364)
(0.000245723 -0.000245674 -0.0419492)
(0.000159517 -0.00105807 -0.0368059)
(0.000284232 -0.000963184 -0.0402588)
(0.000369901 -0.000878384 -0.0412974)
(0.000399535 -0.000812439 -0.041747)
(0.000402175 -0.000754769 -0.0419704)
(0.000384734 -0.000702825 -0.0420683)
(0.00035358 -0.000655865 -0.0420736)
(0.000312771 -0.000613488 -0.0419883)
(0.000549192 -0.0016977 -0.0367022)
(0.000614607 -0.00150237 -0.0401513)
(0.000666311 -0.00134877 -0.0411894)
(0.000669591 -0.00124305 -0.0416393)
(0.000652759 -0.00115702 -0.0418639)
(0.000619841 -0.0010841 -0.0419634)
(0.000576092 -0.00102122 -0.0419706)
(0.000524868 -0.000966919 -0.0418872)
(0.00121036 -0.00217735 -0.0364623)
(0.00116881 -0.00191503 -0.0399037)
(0.00115982 -0.00171793 -0.0409367)
(0.00112466 -0.00159422 -0.0413837)
(0.0010836 -0.00149774 -0.0416067)
(0.00103476 -0.00141935 -0.0417056)
(0.000980703 -0.00135381 -0.0417128)
(0.000922962 -0.00129876 -0.0416303)
(0.00195774 -0.00230981 -0.0360705)
(0.00177472 -0.00205653 -0.0395054)
(0.00167844 -0.00186844 -0.0405207)
(0.00159218 -0.00175838 -0.0409526)
(0.00151958 -0.00166906 -0.0411621)
(0.00145182 -0.001594 -0.041248)
(0.00138757 -0.00152727 -0.0412431)
(0.00132595 -0.00146686 -0.0411494)
(0.000489367 0.000443183 -0.0361878)
(0.000497567 0.000306924 -0.0396371)
(0.000511919 0.000226514 -0.0406629)
(0.000510463 0.000185998 -0.0411057)
(0.000498751 0.000164552 -0.0413249)
(0.000478055 0.00015601 -0.0414204)
(0.000450962 0.000156548 -0.0414244)
(0.000419612 0.000164086 -0.041338)
(0.00018118 9.04242e-05 -0.0363878)
(0.000260376 1.08813e-06 -0.0398431)
(0.00031826 -4.29912e-05 -0.0408764)
(0.000342791 -5.87209e-05 -0.0413246)
(0.000348256 -6.05177e-05 -0.0415489)
(0.000338763 -5.30246e-05 -0.0416493)
(0.000318433 -3.92156e-05 -0.0416581)
(0.000290171 -2.06502e-05 -0.0415767)
(3.8807e-05 -0.000427891 -0.0364978)
(0.000157641 -0.000433619 -0.039958)
(0.000237905 -0.000420085 -0.0409951)
(0.00027312 -0.000399347 -0.0414459)
(0.000283926 -0.000374781 -0.0416721)
(0.000276371 -0.000347783 -0.0417741)
(0.000255719 -0.000319634 -0.041784)
(0.000225462 -0.000290995 -0.0417031)
(0.000141343 -0.00100442 -0.0365088)
(0.000256054 -0.000914004 -0.039969)
(0.000335464 -0.000836 -0.0410088)
(0.000365964 -0.00077551 -0.0414621)
(0.000371807 -0.000722674 -0.041691)
(0.000358906 -0.00067501 -0.0417958)
(0.00033264 -0.000631762 -0.0418085)
(0.000296502 -0.000592553 -0.0417305)
(0.000489319 -0.00152977 -0.0364003)
(0.00054992 -0.0013502 -0.0398583)
(0.000597304 -0.00121305 -0.0408972)
(0.00060398 -0.00111818 -0.0413503)
(0.000592343 -0.00104122 -0.0415795)
(0.000565903 -0.000976173 -0.0416848)
(0.000529031 -0.000920288 -0.0416981)
(0.000484564 -0.000872204 -0.0416205)
(0.00105432 -0.00190503 -0.0361711)
(0.00102032 -0.00166742 -0.0396236)
(0.00101308 -0.00149411 -0.0406578)
(0.000985598 -0.0013839 -0.041108)
(0.000952197 -0.00129847 -0.0413356)
(0.00091153 -0.00122952 -0.0414401)
(0.000865562 -0.00117251 -0.0414534)
(0.000815551 -0.00112529 -0.0413765)
(0.00167395 -0.00197996 -0.0358097)
(0.00151832 -0.00175083 -0.039257)
(0.00143386 -0.0015849 -0.0402751)
(0.00136109 -0.00148552 -0.0407113)
(0.00129867 -0.00140561 -0.0409256)
(0.00124018 -0.00133925 -0.0410168)
(0.0011844 -0.00128133 -0.041017)
(0.00113075 -0.00123006 -0.0409275)
(0.000361785 0.000298495 -0.0360172)
(0.000375251 0.000175447 -0.0394682)
(0.000392271 0.000105143 -0.0404924)
(0.000394817 6.99206e-05 -0.0409351)
(0.000387592 5.24632e-05 -0.0411553)
(0.000372012 4.72705e-05 -0.0412525)
(0.000350405 5.08711e-05 -0.0412585)
(0.000324678 6.13248e-05 -0.0411742)
(0.000114551 -1.8332e-05 -0.0361906)
(0.000189642 -9.6329e-05 -0.0396489)
(0.000244431 -0.000132842 -0.0406802)
(0.000269514 -0.000145067 -0.0411281)
(0.000277169 -0.000144714 -0.0413533)
(0.000271201 -0.000135747 -0.0414554)
(0.000255253 -0.000120785 -0.0414663)
(0.000231857 -0.00010122 -0.0413867)
(1.56064e-05 -0.000462346 -0.0362827)
(0.000123472 -0.000464271 -0.0397466)
(0.000196691 -0.000449729 -0.0407818)
(0.000230312 -0.000429562 -0.0412325)
(0.000242027 -0.000406008 -0.0414601)
(0.000237187 -0.000380115 -0.0415645)
(0.000220371 -0.000352963 -0.0415773)
(0.000194638 -0.000325126 -0.0414991)
(0.000123186 -0.000943444 -0.0362844)
(0.000225654 -0.000859399 -0.0397496)
(0.000296275 -0.000788742 -0.0407873)
(0.000324974 -0.000734065 -0.0412402)
(0.000331893 -0.00068631 -0.0414703)
(0.000322212 -0.000643122 -0.0415773)
(0.000300536 -0.000603762 -0.0415927)
(0.000269823 -0.000567859 -0.0415169)
(0.000431676 -0.00136773 -0.0361778)
(0.00048509 -0.00120529 -0.0396422)
(0.000525825 -0.00108428 -0.0406788)
(0.000532941 -0.00100026 -0.0411313)
(0.00052401 -0.00093225 -0.0413614)
(0.000502162 -0.00087482 -0.0414685)
(0.000471055 -0.00082551 -0.0414841)
(0.00043311 -0.000783079 -0.0414086)
(0.000910784 -0.00165417 -0.0359638)
(0.000881177 -0.00144164 -0.039424)
(0.000873427 -0.00129077 -0.0404561)
(0.000850643 -0.00119379 -0.0409056)
(0.000822625 -0.00111889 -0.0411337)
(0.000788522 -0.00105858 -0.0412394)
(0.000749901 -0.00100893 -0.0412541)
(0.000707761 -0.000968039 -0.0411782)
(0.00142154 -0.0016858 -0.0356351)
(0.00128707 -0.00148033 -0.0390907)
(0.00121203 -0.00133587 -0.0401086)
(0.00114951 -0.00124766 -0.0405457)
(0.0010953 -0.00117733 -0.0407615)
(0.00104465 -0.0011194 -0.0408548)
(0.000996514 -0.0010695 -0.0408572)
(0.000950511 -0.00102596 -0.0407693)
(0.00025026 0.000173042 -0.0358822)
(0.000265465 6.12687e-05 -0.0393326)
(0.00028295 -1.44742e-07 -0.0403534)
(0.000287398 -3.04718e-05 -0.0407942)
(0.000282933 -4.43782e-05 -0.0410137)
(0.000271136 -4.68463e-05 -0.0411109)
(0.000254174 -4.10672e-05 -0.0411174)
(0.000233756 -2.8833e-05 -0.0410334)
(5.70396e-05 -0.000109839 -0.0360391)
(0.000125559 -0.00017846 -0.039498)
(0.000175247 -0.000208613 -0.0405252)
(0.000198733 -0.000217801 -0.0409708)
(0.000206716 -0.000215667 -0.041195)
(0.000202828 -0.000205658 -0.0412971)
(0.000190364 -0.000190105 -0.0413085)
(0.000171591 -0.000170267 -0.0412291)
(-4.63559e-06 -0.00048618 -0.0361211)
(9.08073e-05 -0.00048609 -0.0395864)
(0.000155161 -0.000471291 -0.0406173)
(0.000185207 -0.000452026 -0.0410655)
(0.000196136 -0.000429744 -0.0412922)
(0.000192841 -0.000405262 -0.0413966)
(0.000179383 -0.000379503 -0.04141)
(0.000158423 -0.000352952 -0.0413321)
(0.000105909 -0.00088113 -0.0361197)
(0.000194968 -0.000804533 -0.0395876)
(0.000255158 -0.000741246 -0.0406206)
(0.000279956 -0.000692332 -0.0410709)
(0.000286064 -0.000649558 -0.0412999)
(0.000278181 -0.000610731 -0.0414068)
(0.000260328 -0.000575143 -0.0414228)
(0.000235069 -0.000542428 -0.0413474)
(0.000378056 -0.0012157 -0.0360195)
(0.000423039 -0.00107057 -0.0394876)
(0.000455743 -0.000964866 -0.0405193)
(0.000461212 -0.000891277 -0.0409689)
(0.00045318 -0.000831764 -0.0411974)
(0.000434604 -0.000781433 -0.041304)
(0.000408638 -0.000738079 -0.0413196)
(0.000377328 -0.00070058 -0.0412438)
(0.00078075 -0.00142605 -0.0358227)
(0.000753162 -0.00123777 -0.0392874)
(0.000743217 -0.00110773 -0.0403149)
(0.000722621 -0.00102344 -0.0407616)
(0.000697876 -0.000958527 -0.040988)
(0.000668625 -0.00090623 -0.0410929)
(0.000636203 -0.000863108 -0.0411073)
(0.000601465 -0.000827484 -0.0410309)
(0.00119765 -0.0014238 -0.0355253)
(0.0010798 -0.00124096 -0.0389854)
(0.00101242 -0.00111688 -0.0400006)
(0.000957462 -0.00103954 -0.0404362)
(0.000909834 -0.000978633 -0.0406514)
(0.0008659 -0.000928587 -0.0407448)
(0.000824826 -0.000885666 -0.0407476)
(0.000786378 -0.000848397 -0.0406597)
(0.000149602 5.96592e-05 -0.0357782)
(0.00016397 -4.21772e-05 -0.039225)
(0.000180012 -9.5142e-05 -0.0402406)
(0.000184566 -0.000120456 -0.0406781)
(0.000181356 -0.000130725 -0.0408959)
(0.000172189 -0.000130557 -0.0409926)
(0.000159162 -0.000122938 -0.0409991)
(0.000143864 -0.000109544 -0.0409151)
(5.52049e-06 -0.00019083 -0.035927)
(6.5649e-05 -0.00025151 -0.039383)
(0.000108593 -0.000275945 -0.040404)
(0.000128718 -0.000282178 -0.0408457)
(0.00013552 -0.000278284 -0.0410679)
(0.00013263 -0.000267354 -0.0411692)
(0.000123141 -0.000251511 -0.0411805)
(0.000109114 -0.000231891 -0.0411009)
(-2.29804e-05 -0.000505438 -0.0360054)
(5.90293e-05 -0.00050433 -0.0394687)
(0.00011292 -0.000489445 -0.040493)
(0.000137558 -0.000470982 -0.0409372)
(0.000146056 -0.000449845 -0.0411618)
(0.000143116 -0.000426722 -0.0412656)
(0.000132459 -0.000402421 -0.0412791)
(0.000116473 -0.000377356 -0.0412013)
(8.99112e-05 -0.000821872 -0.0360057)
(0.000164755 -0.000753145 -0.0394727)
(0.000213069 -0.000696912 -0.0404988)
(0.000232077 -0.000653455 -0.0409447)
(0.000235663 -0.000615356 -0.0411714)
(0.000228335 -0.000580593 -0.0412776)
(0.000213737 -0.000548497 -0.0412935)
(0.000194127 -0.000518708 -0.041218)
(0.000329093 -0.00107591 -0.0359148)
(0.000364543 -0.000947648 -0.0393827)
(0.000387778 -0.000856288 -0.0404074)
(0.000389521 -0.000792614 -0.0408525)
(0.000380517 -0.000741114 -0.0410785)
(0.000363784 -0.000697353 -0.0411841)
(0.000342181 -0.000659335 -0.0411996)
(0.000317512 -0.000626044 -0.0411234)
(0.000663869 -0.00121995 -0.0357352)
(0.000636233 -0.00105462 -0.0392002)
(0.000622397 -0.000943883 -0.040221)
(0.000601713 -0.000871801 -0.0406633)
(0.000578305 -0.000816404 -0.040887)
(0.000552404 -0.000771552 -0.0409907)
(0.000525282 -0.000734197 -0.0410046)
(0.00049772 -0.000702844 -0.0409274)
(0.000998583 -0.00118998 -0.0354658)
(0.000893707 -0.00102866 -0.0389261)
(0.000831508 -0.000923589 -0.0399362)
(0.000781742 -0.000857368 -0.0403688)
(0.000738887 -0.0008058 -0.0405827)
(0.000700341 -0.000763312 -0.040676)
(0.000665587 -0.00072665 -0.0406792)
(0.000634544 -0.000694464 -0.0405916)
(5.5139e-05 -4.71454e-05 -0.0357028)
(6.66895e-05 -0.00013908 -0.0391413)
(7.96413e-05 -0.000183362 -0.0401489)
(8.2613e-05 -0.000203081 -0.040582)
(7.92178e-05 -0.00020922 -0.0407977)
(7.16397e-05 -0.000206178 -0.0408941)
(6.20375e-05 -0.000196839 -0.0409015)
(5.19622e-05 -0.000182803 -0.0408185)
(-4.25024e-05 -0.000266872 -0.0358494)
(7.56853e-06 -0.000320334 -0.0392975)
(4.17613e-05 -0.000338907 -0.0403098)
(5.65524e-05 -0.000341717 -0.0407465)
(6.04942e-05 -0.000335625 -0.0409665)
(5.74356e-05 -0.000323518 -0.0410675)
(5.04271e-05 -0.000307388 -0.0410797)
(4.14433e-05 -0.000288283 -0.0410012)
(-4.03597e-05 -0.000524483 -0.0359295)
(2.69578e-05 -0.000522862 -0.0393858)
(6.83757e-05 -0.000507626 -0.0404009)
(8.54689e-05 -0.000489534 -0.0408399)
(8.96686e-05 -0.000469133 -0.0410624)
(8.57869e-05 -0.000447074 -0.0411662)
(7.74134e-05 -0.000424096 -0.0411811)
(6.67896e-05 -0.000400558 -0.0411048)
(7.51e-05 -0.00076869 -0.0359356)
(0.000134486 -0.000707813 -0.0393963)
(0.000168922 -0.000658122 -0.0404128)
(0.000179837 -0.000619675 -0.0408533)
(0.000178855 -0.000585829 -0.0410778)
(0.000170634 -0.000554731 -0.0411841)
(0.000158667 -0.000525754 -0.0412015)
(0.000145063 -0.000498543 -0.0411276)
(0.000284731 -0.000949267 -0.0358557)
(0.000309059 -0.000837238 -0.0393177)
(0.000320765 -0.000759394 -0.0403329)
(0.000316313 -0.000705207 -0.0407725)
(0.000304164 -0.000661314 -0.0409963)
(0.000287693 -0.000623642 -0.041102)
(0.000269687 -0.000590358 -0.0411189)
(0.000251843 -0.000560525 -0.0410442)
(0.000558837 -0.00103412 -0.0356923)
(0.000528724 -0.000890595 -0.0391518)
(0.000508719 -0.000798135 -0.0401633)
(0.000485332 -0.000738089 -0.0406003)
(0.000461043 -0.000692036 -0.0408217)
(0.000436838 -0.000654292 -0.0409253)
(0.00041412 -0.000622087 -0.0409403)
(0.000393718 -0.000594059 -0.0408643)
(0.000820355 -0.000980074 -0.0354468)
(0.000724806 -0.000839479 -0.0389012)
(0.000664958 -0.000752788 -0.0399036)
(0.000617763 -0.000698265 -0.0403322)
(0.00057762 -0.000656261 -0.0405448)
(0.000542974 -0.000621214 -0.0406389)
(0.000513761 -0.000590207 -0.0406442)
(0.000490075 -0.000561946 -0.0405585)
(-3.58778e-05 -0.000150696 -0.0356528)
(-2.92746e-05 -0.000232143 -0.0390757)
(-2.16906e-05 -0.000266739 -0.0400723)
(-2.25246e-05 -0.000279631 -0.0404998)
(-2.79346e-05 -0.000280599 -0.040714)
(-3.51383e-05 -0.000274052 -0.0408118)
(-4.17804e-05 -0.000262875 -0.0408225)
(-4.6242e-05 -0.000248662 -0.0407433)
(-8.96124e-05 -0.000342073 -0.0358018)
(-5.17116e-05 -0.00038817 -0.0392349)
(-2.87836e-05 -0.000400058 -0.0402354)
(-2.18073e-05 -0.000398433 -0.0406664)
(-2.28272e-05 -0.000389241 -0.0408849)
(-2.7461e-05 -0.000375346 -0.0409878)
(-3.24998e-05 -0.000358702 -0.0410038)
(-3.59096e-05 -0.000340322 -0.0409295)
(-5.80106e-05 -0.000546958 -0.0358884)
(-7.45963e-06 -0.000544467 -0.0393299)
(1.85616e-05 -0.000528076 -0.0403326)
(2.52256e-05 -0.000509548 -0.0407659)
(2.26642e-05 -0.00048918 -0.0409873)
(1.61901e-05 -0.000467665 -0.0410937)
(9.49601e-06 -0.000445721 -0.0411133)
(4.85013e-06 -0.000423675 -0.041042)
(6.09999e-05 -0.000723682 -0.0359032)
(0.00010263 -0.000670241 -0.0393495)
(0.000120047 -0.000626448 -0.0403533)
(0.000119696 -0.000592482 -0.040788)
(0.00011143 -0.000562407 -0.0410117)
(0.000100474 -0.000534522 -0.0411208)
(9.04166e-05 -0.000508237 -0.0411434)
(8.34004e-05 -0.000483203 -0.041075)
(0.00024435 -0.000835881 -0.0358353)
(0.000254849 -0.000739527 -0.0392832)
(0.000251737 -0.00067471 -0.0402856)
(0.000237724 -0.000629825 -0.0407195)
(0.000219568 -0.000593329 -0.0409426)
(0.000201382 -0.000561392 -0.0410513)
(0.000186117 -0.000532288 -0.0410736)
(0.000175538 -0.000505129 -0.0410047)
(0.000463807 -0.000866312 -0.0356866)
(0.000427918 -0.000744017 -0.0391321)
(0.000398395 -0.000669625 -0.0401312)
(0.000368936 -0.000621962 -0.0405625)
(0.000340966 -0.0005855 -0.0407832)
(0.00031649 -0.000554806 -0.0408895)
(0.000297244 -0.000527272 -0.0409096)
(0.000284258 -0.000501602 -0.040839)
(0.00065892 -0.000790044 -0.0354605)
(0.000568521 -0.000670202 -0.0389004)
(0.000507544 -0.000602415 -0.0398919)
(0.000459622 -0.000560707 -0.0403159)
(0.000419577 -0.000529038 -0.0405285)
(0.000387061 -0.000501703 -0.040626)
(0.000362534 -0.000475909 -0.0406369)
(0.000346353 -0.000450352 -0.0405572)
(-0.000126317 -0.00025346 -0.0356232)
(-0.000127604 -0.000322914 -0.0390205)
(-0.000128442 -0.000345886 -0.0400024)
(-0.000135861 -0.000349968 -0.040424)
(-0.000145586 -0.000344107 -0.0406385)
(-0.000153918 -0.000332938 -0.0407411)
(-0.000158109 -0.000319495 -0.0407597)
(-0.000156319 -0.000305485 -0.0406893)
(-0.000137934 -0.000419603 -0.0357793)
(-0.00011513 -0.000456901 -0.0391866)
(-0.000107174 -0.000460309 -0.0401714)
(-0.000111445 -0.000452547 -0.0405965)
(-0.000120279 -0.000438827 -0.0408159)
(-0.00012835 -0.000422152 -0.0409247)
(-0.000132061 -0.000404528 -0.0409498)
(-0.000129135 -0.000387009 -0.0408856)
(-7.71926e-05 -0.000575278 -0.0358759)
(-4.68836e-05 -0.000570755 -0.0392912)
(-4.06864e-05 -0.000551856 -0.0402778)
(-4.85183e-05 -0.00053168 -0.0407054)
(-6.12247e-05 -0.00051032 -0.0409286)
(-7.2497e-05 -0.000488589 -0.0410422)
(-7.82889e-05 -0.000467223 -0.0410724)
(-7.61055e-05 -0.000446558 -0.0410129)
(4.67725e-05 -0.000688108 -0.035902)
(6.66661e-05 -0.000641366 -0.0393218)
(6.21821e-05 -0.000602745 -0.0403092)
(4.60748e-05 -0.00057269 -0.0407385)
(2.68006e-05 -0.000545865 -0.0409645)
(1.06756e-05 -0.000520692 -0.0410816)
(1.62721e-06 -0.000496613 -0.0411158)
(2.04503e-06 -0.000473288 -0.0410602)
(0.000206872 -0.000735317 -0.0358465)
(0.000199134 -0.000654411 -0.0392677)
(0.000176111 -0.000602633 -0.0402538)
(0.000147859 -0.000567221 -0.0406825)
(0.000119854 -0.000538176 -0.0409083)
(9.74075e-05 -0.000511775 -0.0410254)
(8.3875e-05 -0.000486347 -0.0410598)
(8.12861e-05 -0.000461017 -0.0410042)
(0.000376553 -0.000714189 -0.0357107)
(0.000330168 -0.000613495 -0.0391295)
(0.000286186 -0.000558023 -0.0401127)
(0.000246152 -0.000523802 -0.0405389)
(0.000210832 -0.000497706 -0.040762)
(0.000183645 -0.00047433 -0.0408764)
(0.000166852 -0.000451113 -0.0409082)
(0.000161838 -0.000426775 -0.0408503)
(0.000510364 -0.000616268 -0.0354995)
(0.000420074 -0.000518588 -0.0389125)
(0.000353133 -0.000471564 -0.0398893)
(0.000300384 -0.00044474 -0.0403089)
(0.000257107 -0.000424827 -0.0405243)
(0.000224501 -0.000405871 -0.04063)
(0.00020367 -0.000385018 -0.0406526)
(0.000195399 -0.000360886 -0.0405858)
(-0.00021882 -0.000357587 -0.0356069)
(-0.000231585 -0.000412016 -0.0389646)
(-0.000245088 -0.000420018 -0.0399275)
(-0.000262856 -0.000412249 -0.0403437)
(-0.00027992 -0.000397005 -0.040562)
(-0.00029127 -0.000379444 -0.0406753)
(-0.000293572 -0.000362891 -0.0407092)
(-0.000284606 -0.000349301 -0.040656)
(-0.000189394 -0.000501339 -0.0357736)
(-0.000186073 -0.000527085 -0.0391401)
(-0.000198451 -0.000519187 -0.0401051)
(-0.000218671 -0.000502781 -0.0405254)
(-0.000239118 -0.000482449 -0.0407499)
(-0.000253032 -0.000461499 -0.0408712)
(-0.000256193 -0.000442086 -0.040914)
(-0.000245899 -0.000425404 -0.0408695)
(-9.93819e-05 -0.000611023 -0.0358834)
(-9.47536e-05 -0.000602265 -0.0392563)
(-0.000114823 -0.000578873 -0.0402228)
(-0.000142723 -0.000555373 -0.0406463)
(-0.000170109 -0.000531585 -0.0408762)
(-0.000189027 -0.000508555 -0.0410043)
(-0.000194887 -0.000487063 -0.0410547)
(-0.000184773 -0.000467506 -0.0410175)
(3.12387e-05 -0.00066258 -0.0359227)
(2.3095e-05 -0.000621443 -0.039299)
(-1.05761e-05 -0.000587218 -0.0402661)
(-4.85422e-05 -0.000560494 -0.0406919)
(-8.36976e-05 -0.000536308 -0.0409256)
(-0.000108121 -0.000513235 -0.0410588)
(-0.000117263 -0.000490746 -0.0411148)
(-0.000108319 -0.000468531 -0.0410832)
(0.000170825 -0.000646814 -0.0358798)
(0.000138079 -0.000581674 -0.0392568)
(8.75974e-05 -0.000543644 -0.0402228)
(3.89097e-05 -0.00051828 -0.0406483)
(-3.85416e-06 -0.000496973 -0.0408823)
(-3.37794e-05 -0.000476037 -0.0410161)
(-4.67943e-05 -0.000453785 -0.0410731)
(-4.04181e-05 -0.000429348 -0.0410423)
(0.000294574 -0.000575539 -0.0357551)
(0.00023094 -0.000498259 -0.0391296)
(0.000165417 -0.00046395 -0.0400928)
(0.000109056 -0.000444926 -0.0405158)
(6.18054e-05 -0.000430464 -0.0407469)
(2.88506e-05 -0.000414998 -0.0408776)
(1.33035e-05 -0.000395873 -0.0409313)
(1.70583e-05 -0.000371771 -0.0408975)
(0.000370815 -0.00045585 -0.035555)
(0.000274256 -0.000383881 -0.0389237)
(0.000194924 -0.00036105 -0.0398813)
(0.000132308 -0.000351922 -0.0402981)
(8.17069e-05 -0.000345915 -0.0405214)
(4.6251e-05 -0.000336513 -0.040643)
(2.79521e-05 -0.000320583 -0.0406867)
(2.81765e-05 -0.000296579 -0.0406432)
(-0.000315655 -0.000464018 -0.0355929)
(-0.000344474 -0.000498219 -0.0388926)
(-0.000376262 -0.000486301 -0.0398321)
(-0.000409208 -0.000462457 -0.040245)
(-0.000437364 -0.000434254 -0.0404729)
(-0.000453938 -0.00040773 -0.0406057)
(-0.000454861 -0.000386624 -0.040666)
(-0.000437429 -0.00037329 -0.0406427)
(-0.000245882 -0.000588222 -0.035773)
(-0.000268188 -0.00059784 -0.0390785)
(-0.000308421 -0.000574482 -0.0400199)
(-0.000350728 -0.000546088 -0.0404379)
(-0.000387411 -0.000516262 -0.0406744)
(-0.000410053 -0.000488846 -0.0408183)
(-0.000413522 -0.000466277 -0.0408912)
(-0.000394542 -0.000450004 -0.0408804)
(-0.000126141 -0.000654763 -0.0358982)
(-0.000155148 -0.000638349 -0.0392073)
(-0.000210798 -0.000607748 -0.0401497)
(-0.000265752 -0.000578729 -0.0405725)
(-0.000313131 -0.000550589 -0.0408167)
(-0.000343231 -0.000524647 -0.0409708)
(-0.000350389 -0.000501857 -0.041055)
(-0.000331076 -0.000482762 -0.0410554)
(1.27509e-05 -0.000647003 -0.0359523)
(-3.27824e-05 -0.000610185 -0.0392626)
(-0.000105791 -0.000579591 -0.0402051)
(-0.000173044 -0.000555352 -0.0406314)
(-0.000229944 -0.000533003 -0.0408813)
(-0.000266573 -0.000511177 -0.0410426)
(-0.000277281 -0.000489392 -0.0411351)
(-0.000258627 -0.000467415 -0.0411437)
(0.000133978 -0.000569556 -0.0359224)
(6.64895e-05 -0.000521475 -0.0392313)
(-2.14501e-05 -0.000498418 -0.0401731)
(-9.80569e-05 -0.000483843 -0.0405998)
(-0.000161603 -0.000470755 -0.0408508)
(-0.000203003 -0.000455297 -0.0410137)
(-0.000217082 -0.00043571 -0.041108)
(-0.000200699 -0.000411126 -0.0411186)
(0.00021465 -0.000448986 -0.0358072)
(0.000124926 -0.000398785 -0.0391128)
(2.87158e-05 -0.00038871 -0.0400525)
(-5.109e-05 -0.000387344 -0.0404766)
(-0.000115894 -0.000386342 -0.0407242)
(-0.000158336 -0.000379755 -0.0408831)
(-0.00017415 -0.000364706 -0.0409733)
(-0.000160721 -0.000339768 -0.04098)
(0.000236049 -0.000307638 -0.0356144)
(0.000125706 -0.000266629 -0.0389147)
(2.62393e-05 -0.000272737 -0.0398501)
(-5.26238e-05 -0.000285311 -0.0402677)
(-0.000115423 -0.000296233 -0.0405066)
(-0.000156966 -0.000298183 -0.040655)
(-0.000174082 -0.00028755 -0.0407336)
(-0.000164667 -0.000262499 -0.0407288)
(-0.000418054 -0.000572114 -0.0355655)
(-0.000468922 -0.000578467 -0.0387839)
(-0.000526766 -0.00053985 -0.039696)
(-0.000580385 -0.000494416 -0.0401096)
(-0.000623585 -0.000448624 -0.0403561)
(-0.000647721 -0.000409408 -0.040521)
(-0.000647578 -0.000381274 -0.0406233)
(-0.000619899 -0.000367189 -0.0406473)
(-0.000308935 -0.000679695 -0.0357605)
(-0.000365774 -0.000666668 -0.03898)
(-0.000443445 -0.000622268 -0.0398936)
(-0.000514462 -0.0005775 -0.0403148)
(-0.000572736 -0.000534294 -0.0405734)
(-0.000607407 -0.000497197 -0.0407541)
(-0.000612106 -0.000469125 -0.0408743)
(-0.00058288 -0.000451969 -0.0409164)
(-0.000160024 -0.000705549 -0.0359031)
(-0.000233449 -0.000677508 -0.03912)
(-0.000335471 -0.000635841 -0.0400355)
(-0.000425636 -0.000598327 -0.0404639)
(-0.000499481 -0.000563125 -0.040734)
(-0.000544876 -0.000531894 -0.0409292)
(-0.000554827 -0.000505853 -0.041066)
(-0.000525075 -0.000485826 -0.0411249)
(-1.25543e-05 -0.000640641 -0.0359726)
(-0.00010701 -0.000606951 -0.0391862)
(-0.000230661 -0.000578628 -0.0401031)
(-0.000336312 -0.00055579 -0.0405368)
(-0.00042204 -0.000534103 -0.040815)
(-0.000475501 -0.000512245 -0.0410206)
(-0.000489663 -0.000489812 -0.0411692)
(-0.000460342 -0.00046673 -0.0412402)
(9.21373e-05 -0.000503369 -0.0359543)
(-2.16727e-05 -0.000473958 -0.039165)
(-0.000158354 -0.000467272 -0.0400818)
(-0.000272107 -0.000464561 -0.0405166)
(-0.000363568 -0.000460282 -0.0407969)
(-0.000421171 -0.000450338 -0.0410053)
(-0.000438336 -0.000432853 -0.0411571)
(-0.000411165 -0.000406991 -0.0412315)
(0.000132791 -0.000334678 -0.0358458)
(6.18241e-06 -0.000315999 -0.0390544)
(-0.000131049 -0.000334152 -0.0399692)
(-0.000242799 -0.000353634 -0.0404009)
(-0.000331774 -0.000368463 -0.040677)
(-0.000388081 -0.000372138 -0.0408803)
(-0.000406022 -0.000361445 -0.0410268)
(-0.000382173 -0.000334832 -0.041096)
(0.000102633 -0.000171673 -0.0356567)
(-3.07881e-05 -0.000168566 -0.0388629)
(-0.000159184 -0.000209872 -0.0397736)
(-0.000261454 -0.000249231 -0.0401979)
(-0.000342106 -0.000280924 -0.0404634)
(-0.000393466 -0.000296686 -0.0406538)
(-0.000410967 -0.000292256 -0.040786)
(-0.000391695 -0.000265437 -0.0408409)
(-0.000526832 -0.000678949 -0.0355033)
(-0.000607766 -0.000648122 -0.0386116)
(-0.000699671 -0.000573907 -0.0394941)
(-0.000779755 -0.000500022 -0.0399157)
(-0.000842232 -0.000430345 -0.0401933)
(-0.000875972 -0.000373145 -0.0404071)
(-0.000874517 -0.000333924 -0.0405719)
(-0.000834185 -0.000316498 -0.0406664)
(-0.000381639 -0.000772582 -0.0357132)
(-0.00048281 -0.000729376 -0.0388145)
(-0.000607762 -0.000657024 -0.0397003)
(-0.000715317 -0.000590048 -0.0401331)
(-0.000800886 -0.00052815 -0.0404279)
(-0.000850913 -0.000476674 -0.0406636)
(-0.000857598 -0.000439209 -0.0408535)
(-0.000816415 -0.0004183 -0.0409735)
(-0.000204931 -0.000761413 -0.0358706)
(-0.000334608 -0.000716177 -0.0389643)
(-0.000494561 -0.000659044 -0.0398537)
(-0.000629209 -0.000609046 -0.0402971)
(-0.000736581 -0.000562987 -0.040608)
(-0.000801748 -0.000522897 -0.0408643)
(-0.0008162 -0.000490378 -0.0410776)
(-0.000775085 -0.00046672 -0.0412217)
(-4.81612e-05 -0.00064259 -0.035953)
(-0.00020501 -0.00060972 -0.0390409)
(-0.000391884 -0.000582132 -0.0399328)
(-0.000546039 -0.000559128 -0.0403837)
(-0.000668433 -0.00053635 -0.0407062)
(-0.000743889 -0.000512498 -0.040977)
(-0.000763835 -0.000487311 -0.0412068)
(-0.000723504 -0.000461026 -0.041368)
(4.20253e-05 -0.000447979 -0.0359443)
(-0.000131881 -0.000438928 -0.0390289)
(-0.000329921 -0.000450276 -0.0399212)
(-0.000490987 -0.00046059 -0.0403742)
(-0.000618252 -0.000465728 -0.0406999)
(-0.000697305 -0.000461267 -0.040975)
(-0.00072002 -0.000445225 -0.0412098)
(-0.00068192 -0.000416908 -0.0413762)
(4.59188e-05 -0.000232898 -0.0358411)
(-0.000130224 -0.00025119 -0.0389251)
(-0.000320171 -0.000302382 -0.0398153)
(-0.000473205 -0.000346556 -0.0402645)
(-0.000593557 -0.000380139 -0.0405848)
(-0.000668431 -0.000395935 -0.0408534)
(-0.000690584 -0.000390355 -0.0410812)
(-0.000655948 -0.000361789 -0.0412408)
(-3.20936e-05 -4.87183e-05 -0.0356543)
(-0.000199088 -9.19044e-05 -0.0387392)
(-0.000366576 -0.000176008 -0.0396249)
(-0.000500232 -0.000248168 -0.0400649)
(-0.000604721 -0.0003054 -0.0403721)
(-0.000669686 -0.000338293 -0.0406246)
(-0.000689038 -0.000341816 -0.0408344)
(-0.000659182 -0.000313429 -0.0409759)
(-0.000643317 -0.000779231 -0.0353766)
(-0.00076157 -0.000699857 -0.0383433)
(-0.000895415 -0.000580236 -0.0391982)
(-0.00100769 -0.000469049 -0.0396383)
(-0.00109298 -0.000367245 -0.0399632)
(-0.0011374 -0.000284645 -0.0402473)
(-0.0011333 -0.000228011 -0.0405003)
(-0.00107706 -0.000202231 -0.0406939)
(-0.000465617 -0.000862822 -0.0355954)
(-0.000621248 -0.000779485 -0.0385502)
(-0.000803604 -0.000671148 -0.0394107)
(-0.000955449 -0.000574574 -0.0398666)
(-0.00107369 -0.000486869 -0.0402153)
(-0.00114184 -0.000414304 -0.0405293)
(-0.00115072 -0.000361353 -0.0408161)
(-0.00109574 -0.000331467 -0.0410446)
(-0.000262981 -0.000819063 -0.0357633)
(-0.000461697 -0.000749469 -0.0387072)
(-0.000691655 -0.000671422 -0.0395735)
(-0.00088019 -0.000603769 -0.0400446)
(-0.00102802 -0.00054163 -0.0404156)
(-0.00111718 -0.000487473 -0.0407576)
(-0.00113779 -0.000443459 -0.0410764)
(-0.00108494 -0.000411589 -0.0413375)
(-9.68198e-05 -0.000650763 -0.0358557)
(-0.000330494 -0.000615639 -0.0387918)
(-0.000593887 -0.000586681 -0.0396624)
(-0.000806857 -0.000561237 -0.0401442)
(-0.000973714 -0.000534734 -0.040531)
(-0.00107627 -0.000505924 -0.0408927)
(-0.00110458 -0.00047483 -0.0412336)
(-0.00105388 -0.000442237 -0.0415178)
(-1.92678e-05 -0.000402825 -0.035855)
(-0.00026788 -0.000415897 -0.0387877)
(-0.000540629 -0.000446977 -0.0396593)
(-0.000759304 -0.000471328 -0.0401444)
(-0.000930185 -0.000486232 -0.0405358)
(-0.00103587 -0.000486969 -0.0409035)
(-0.00106685 -0.000471554 -0.0412514)
(-0.00101868 -0.000439657 -0.0415427)
(-4.87611e-05 -0.00014431 -0.0357564)
(-0.000287584 -0.000205919 -0.0386901)
(-0.00054245 -0.000295572 -0.0395592)
(-0.000746038 -0.000368587 -0.0400393)
(-0.000904646 -0.000424198 -0.0404238)
(-0.00100251 -0.000454457 -0.0407832)
(-0.00103095 -0.000455435 -0.0411221)
(-0.000985815 -0.000425661 -0.0414048)
(-0.000170759 5.97189e-05 -0.0355721)
(-0.000381501 -3.99623e-05 -0.0385102)
(-0.000598274 -0.000175349 -0.039374)
(-0.000771045 -0.000287061 -0.0398425)
(-0.00090497 -0.000375418 -0.0402104)
(-0.000986731 -0.000429663 -0.0405495)
(-0.00100887 -0.000444036 -0.0408658)
(-0.000967646 -0.000415831 -0.0411257)
(-0.000765703 -0.000866397 -0.0351453)
(-0.000927917 -0.00072513 -0.0379455)
(-0.00111068 -0.00054863 -0.0387775)
(-0.00125957 -0.000389364 -0.03925)
(-0.00136941 -0.000245035 -0.0396429)
(-0.00142357 -0.000127207 -0.0400232)
(-0.00141372 -4.41248e-05 -0.0403945)
(-0.00133726 -1.99543e-06 -0.0407204)
(-0.000560475 -0.00094404 -0.035366)
(-0.000780082 -0.000808986 -0.0381514)
(-0.00102928 -0.000655121 -0.0389926)
(-0.00123192 -0.000519825 -0.0394872)
(-0.00138663 -0.00039716 -0.0399118)
(-0.00147405 -0.000294468 -0.0403314)
(-0.00148423 -0.00021735 -0.0407469)
(-0.00141347 -0.000170461 -0.0411176)
(-0.000335272 -0.000873114 -0.0355386)
(-0.000615124 -0.000770912 -0.0383113)
(-0.000926406 -0.000665292 -0.0391619)
(-0.00117701 -0.000573389 -0.0396775)
(-0.00137075 -0.000488261 -0.040132)
(-0.00148686 -0.000412925 -0.0405885)
(-0.00151471 -0.000350338 -0.0410452)
(-0.0014504 -0.000303566 -0.041458)
(-0.000160815 -0.000661831 -0.0356366)
(-0.000484889 -0.000620716 -0.038401)
(-0.000837076 -0.000587454 -0.0392585)
(-0.00111795 -0.000556307 -0.0397888)
(-0.00133564 -0.00052231 -0.040264)
(-0.0014693 -0.000484386 -0.040746)
(-0.00150831 -0.000443084 -0.0412311)
(-0.00144902 -0.000400082 -0.041673)
(-9.42623e-05 -0.000367208 -0.0356418)
(-0.000431197 -0.000403791 -0.0384031)
(-0.00079083 -0.000455826 -0.0392626)
(-0.00107615 -0.000494719 -0.0397974)
(-0.00129701 -0.000519258 -0.040279)
(-0.00143336 -0.00052455 -0.0407689)
(-0.00147509 -0.000508859 -0.0412628)
(-0.00141884 -0.000472539 -0.0417138)
(-0.000153152 -7.02933e-05 -0.0355477)
(-0.000466443 -0.000181791 -0.0383113)