/*--------------------------------*- C++ -*----------------------------------*\
| =========                 |                                                 |
| \\      /  F ield         | OpenFOAM: The Open Source CFD Toolbox           |
|  \\    /   O peration     | Version:  plus.master.MPPICInterFoam            |
|   \\  /    A nd           | Web:      www.OpenFOAM.com                      |
|    \\/     M anipulation  |                                                 |
\*---------------------------------------------------------------------------*/
FoamFile
{
    version     2.0;
    format      ascii;
    class       volScalarField;
    location    "7.2";
    object      k;
}
// * * * * * * * * * * * * * * * * * * * * * * * * * * * * * * * * * * * * * //

dimensions      [0 2 -2 0 0 0 0];

internalField   nonuniform List<scalar> 
11822
(
0.0510624
0.0551255
0.0562051
0.0563093
0.056306
0.0533391
0.0477817
0.0554658
0.0577661
0.0566437
0.0564562
0.0589119
0.0578456
0.0527092
0.0569422
0.0578488
0.0549167
0.0560946
0.0592353
0.0598392
0.0557048
0.0579124
0.0580422
0.0548077
0.0567604
0.0614449
0.0610064
0.0563242
0.0576724
0.0605943
0.0608284
0.0612788
0.0622871
0.0602791
0.0544419
0.0544076
0.0590302
0.0612131
0.061517
0.0605959
0.0566231
0.0505197
0.0486699
0.053622
0.0565543
0.0569372
0.0547893
0.0506302
0.0451942
0.0514097
0.0561972
0.0580713
0.0582242
0.0573854
0.0536703
0.0479561
0.0565956
0.0604647
0.0601935
0.0604488
0.061373
0.058955
0.0530386
0.0588605
0.0596655
0.0580832
0.0589218
0.062534
0.0615881
0.0561942
0.0600381
0.0608087
0.0588651
0.0591829
0.0637644
0.0625938
0.0568414
0.0589393
0.0629035
0.0636165
0.0642255
0.0645733
0.0614374
0.0548647
0.0548167
0.0602621
0.0631154
0.0634253
0.0617187
0.0570949
0.0507834
0.0488055
0.0539533
0.0570292
0.0573828
0.055141
0.0508662
0.0453498
0.0510511
0.0563125
0.0591928
0.0596613
0.0578989
0.0536514
0.0477793
0.0566997
0.0605922
0.0618373
0.0623582
0.0624049
0.0596171
0.0528684
0.0603063
0.0626363
0.0610443
0.0616173
0.0639882
0.0628477
0.0560403
0.061534
0.0639493
0.0625292
0.0629291
0.0651819
0.0638403
0.0567407
0.0595612
0.0646844
0.0665747
0.0667699
0.0661504
0.0622593
0.0548077
0.0549027
0.0611263
0.0647858
0.065198
0.0626704
0.057326
0.0506991
0.0485266
0.0537944
0.0570206
0.0574087
0.0551035
0.0507568
0.045185
0.0504224
0.0560976
0.0593199
0.0598594
0.0577609
0.0532181
0.0472292
0.0565017
0.0622175
0.0639403
0.0644564
0.0640512
0.0593704
0.0523048
0.0603321
0.0644941
0.0632976
0.0644105
0.0660189
0.063312
0.0554953
0.0612131
0.0657461
0.0642772
0.065407
0.0671176
0.0642269
0.0561823
0.0592796
0.0658203
0.0672706
0.0680125
0.0673018
0.0619467
0.054243
0.0542551
0.0608256
0.064655
0.0651448
0.0622443
0.0568383
0.050109
0.0475903
0.0528619
0.0560785
0.056553
0.0543197
0.0500643
0.0445675
0.0490535
0.0544577
0.0576163
0.0582281
0.0566279
0.0523865
0.0465967
0.054737
0.0605005
0.0629026
0.063378
0.0632222
0.0585465
0.051635
0.0583331
0.0630801
0.0616221
0.0621893
0.0651768
0.0624755
0.0548113
0.0592483
0.0640056
0.0628975
0.0631238
0.0669576
0.0634199
0.0555018
0.0572657
0.0638449
0.0655074
0.0662579
0.0662117
0.0610684
0.0534998
0.0525233
0.0588009
0.0627932
0.0634786
0.0610592
0.0558806
0.04935
0.0462387
0.0513171
0.0545071
0.0551215
0.0531598
0.049147
0.043851
0.0477848
0.0528818
0.0557079
0.0565052
0.0550377
0.0514043
0.0460734
0.053001
0.0583886
0.0589893
0.0588967
0.0583445
0.0566842
0.050979
0.056031
0.0600014
0.059207
0.06082
0.0627195
0.0599692
0.0541033
0.056821
0.0608391
0.0607455
0.0614432
0.0624928
0.0609332
0.054763
0.0551302
0.0608197
0.0633842
0.0630399
0.0621827
0.0592702
0.0527476
0.050853
0.056688
0.0604959
0.0611867
0.0591631
0.0546787
0.0486672
0.0450675
0.0499301
0.053086
0.0538122
0.0520828
0.0483493
0.0433345
0.0414918
0.036555
0.0318307
0.0273653
0.023107
0.0188726
0.0141169
0.00654044
0.0454589
0.0395014
0.0340246
0.0289837
0.024274
0.0196823
0.0146316
0.00667347
0.0480157
0.0414727
0.0354834
0.0300315
0.0250026
0.0201623
0.0149134
0.00672291
0.0485385
0.0418571
0.0357444
0.0301933
0.0250856
0.0201879
0.0149003
0.00667133
0.0469076
0.0405367
0.0347069
0.0293914
0.0244742
0.019732
0.01458
0.00651671
0.0435948
0.0378916
0.0326613
0.0278383
0.0233176
0.0188962
0.0140185
0.00628843
0.0392327
0.0345678
0.0301178
0.025904
0.02187
0.0178425
0.0133021
0.0060149
0.0416526
0.0366821
0.0319263
0.0274291
0.0231413
0.0188823
0.0141108
0.00655341
0.0456937
0.0396746
0.0341468
0.0290587
0.0243092
0.0196878
0.0146202
0.00668435
0.0483165
0.0416804
0.0356232
0.0301134
0.0250358
0.0201616
0.0148949
0.00672916
0.0488558
0.0420697
0.0358803
0.0302652
0.025108
0.0201772
0.0148738
0.00667346
0.0471804
0.0407173
0.0348149
0.0294396
0.0244785
0.0197088
0.0145466
0.00651675
0.0437876
0.0380138
0.0327237
0.0278534
0.0232998
0.0188596
0.013978
0.00628644
0.0393438
0.0346252
0.0301325
0.025886
0.0218302
0.0177919
0.0132533
0.0060093
0.0414902
0.036534
0.0317897
0.027303
0.0230275
0.0187835
0.0140317
0.00652969
0.0455351
0.0395234
0.034001
0.0289204
0.0241838
0.0195806
0.0145374
0.00666076
0.0481587
0.0415271
0.03547
0.0299638
0.024898
0.0200438
0.0148047
0.00670224
0.0487143
0.0419173
0.0357199
0.0301053
0.0249601
0.0200512
0.0147782
0.00664456
0.0470521
0.0405591
0.0346437
0.0292699
0.0243238
0.019579
0.0144496
0.00648798
0.0436354
0.0378354
0.0325381
0.0276751
0.0231409
0.0187279
0.0138805
0.00625745
0.0391516
0.0344238
0.0299336
0.0257002
0.0216667
0.0176567
0.0131526
0.00597763
0.0409944
0.036111
0.0314429
0.0270308
0.0228265
0.0186475
0.0139538
0.00652964
0.044994
0.0390563
0.0336166
0.028619
0.0239626
0.0194331
0.0144551
0.00666208
0.0476001
0.0410336
0.035058
0.0296376
0.0246574
0.0198832
0.0147153
0.00670297
0.0481462
0.0414121
0.0352947
0.0297665
0.0247092
0.0198836
0.0146849
0.00664568
0.0464861
0.0400551
0.0342195
0.0289324
0.0240743
0.0194125
0.0143571
0.0064906
0.0430776
0.0373449
0.0321277
0.0273498
0.0229006
0.018567
0.0137906
0.00626107
0.0386157
0.0339581
0.0295446
0.0253915
0.0214377
0.0175018
0.013065
0.00598102
0.0404895
0.0357035
0.0311375
0.0268288
0.0227233
0.0186319
0.0140068
0.00659981
0.0444363
0.0386014
0.0332716
0.028387
0.0238401
0.0194091
0.0145107
0.0067484
0.0470103
0.0405438
0.0346805
0.02938
0.0245183
0.0198524
0.0147736
0.00680148
0.0475406
0.0409052
0.0349029
0.0294994
0.0245663
0.0198546
0.0147495
0.00675135
0.0458666
0.0395482
0.0338358
0.0286775
0.023945
0.0193967
0.0144328
0.00659786
0.0424729
0.0368649
0.0317754
0.0271256
0.0227986
0.0185729
0.0138796
0.00636352
0.0380675
0.0335282
0.0292382
0.0252081
0.021369
0.0175315
0.0131657
0.00607179
0.0402163
0.0355645
0.0311429
0.0269946
0.0230588
0.0191307
0.014633
0.00758526
0.0440856
0.0384185
0.0332505
0.0285412
0.0241808
0.019932
0.0151793
0.0077924
0.0466094
0.0403245
0.0346361
0.0295259
0.0248686
0.0204045
0.0154897
0.00790386
0.0471099
0.0406683
0.0348539
0.0296542
0.0249399
0.0204442
0.0155145
0.00789805
0.0454404
0.0393258
0.0338118
0.0288667
0.0243604
0.0200328
0.015244
0.00776852
0.0421105
0.0367027
0.0318148
0.0273813
0.02328
0.0192696
0.0147402
0.00754286
0.0378347
0.0334686
0.0293717
0.025552
0.0219297
0.0182934
0.0140721
0.00724709
0.0423857
0.0373412
0.0324744
0.0278583
0.0234537
0.019087
0.0142116
0.00648472
0.0474936
0.0414541
0.0357186
0.0303717
0.0253597
0.0204894
0.0151758
0.00687632
0.0512949
0.0447309
0.0383621
0.0324287
0.026918
0.0216339
0.0159619
0.0072172
0.0529771
0.0462793
0.0396513
0.0334527
0.0277083
0.0222299
0.0163867
0.00742704
0.0522601
0.0456751
0.0391992
0.033135
0.0275008
0.0221086
0.0163322
0.00744993
0.0492481
0.0431385
0.0371964
0.0316196
0.0263946
0.0213335
0.0158341
0.00729574
0.0446668
0.0394438
0.0343095
0.0294174
0.0247576
0.0201581
0.0150501
0.00703034
0.0424297
0.0372921
0.0323646
0.0277122
0.0232929
0.0189299
0.0140789
0.00644274
0.047691
0.0414921
0.0356539
0.0302412
0.0251948
0.0203174
0.0150251
0.00682478
0.0517607
0.0449086
0.0383752
0.0323372
0.0267658
0.0214574
0.0157973
0.00715496
0.053676
0.0465754
0.0397309
0.0333988
0.0275766
0.0220616
0.0162214
0.00736161
0.0528594
0.0459444
0.0392711
0.0330841
0.0273794
0.021954
0.0161812
0.00739311
0.0496579
0.043282
0.0372031
0.0315466
0.0262772
0.0211987
0.0157087
0.00725625
0.0448134
0.0394659
0.0342646
0.0293347
0.0246567
0.0200534
0.0149572
0.00700819
0.0420574
0.0368798
0.0319561
0.0273344
0.0229635
0.018659
0.0138776
0.00636912
0.0474415
0.0411026
0.0352232
0.0298224
0.0248201
0.0200055
0.0147916
0.00673748
0.051617
0.0445517
0.0379353
0.0318877
0.0263518
0.0211061
0.0155298
0.00704993
0.0536616
0.0462554
0.0393009
0.0329449
0.0271517
0.0216953
0.015938
0.00724682
0.052784
0.0456143
0.0388544
0.0326542
0.026979
0.0216093
0.015914
0.00728596
0.0493644
0.0429023
0.0368025
0.0311606
0.0259294
0.0209045
0.0154834
0.00717126
0.0444523
0.0390959
0.03391
0.02901
0.0243726
0.019816
0.014776
0.00694262
0.041165
0.0360768
0.0312746
0.0267848
0.0225438
0.0183597
0.0136897
0.00632839
0.046528
0.0401968
0.0344273
0.029171
0.0243194
0.0196472
0.014565
0.00668172
0.0507101
0.0435662
0.0370389
0.031143
0.0257747
0.0206888
0.0152624
0.0069764
0.0527215
0.0452305
0.0383606
0.0321634
0.0265387
0.0212459
0.0156477
0.00716219
0.0519309
0.0446414
0.0379572
0.0319052
0.0263934
0.0211834
0.0156379
0.00720573
0.0485435
0.0420244
0.0360161
0.0305122
0.0254275
0.0205417
0.0152499
0.00710806
0.0436618
0.0383421
0.0332584
0.0284797
0.0239634
0.0195195
0.014585
0.00689483
0.0400973
0.0352235
0.0306255
0.0263271
0.0222588
0.0182227
0.0136714
0.00637457
0.04518
0.0391206
0.0336002
0.0285741
0.0239295
0.0194361
0.0145019
0.0067268
0.0491251
0.0422983
0.036054
0.0304213
0.0252859
0.0204053
0.0151531
0.00701425
0.0510262
0.0438727
0.0372967
0.0313689
0.0259968
0.0209248
0.0155112
0.00719328
0.0502915
0.043345
0.0369441
0.0311531
0.0258772
0.0208723
0.015503
0.0072334
0.0471716
0.0409246
0.0351551
0.0298731
0.0249903
0.0202814
0.0151416
0.00713531
0.0425819
0.0374631
0.0325686
0.0279686
0.0236163
0.019318
0.0145089
0.00692027
0.0393281
0.034722
0.0303863
0.026346
0.022526
0.0187141
0.0143358
0.00740842
0.044053
0.0383561
0.0331552
0.0284262
0.0240609
0.0198191
0.0150851
0.00774437
0.0477115
0.0413213
0.0354405
0.0301317
0.0252968
0.0206869
0.0156532
0.00800337
0.0494833
0.0428043
0.0366057
0.0310125
0.0259419
0.0211386
0.0159477
0.00814945
0.0488444
0.0423367
0.0362861
0.0308029
0.0258116
0.0210607
0.0159025
0.00815396
0.0459963
0.0400907
0.034611
0.0295955
0.0249618
0.0204785
0.015527
0.00801937
0.0417031
0.0368234
0.0321554
0.0277768
0.0236387
0.0195375
0.0148945
0.00777527
0.0444993
0.0392818
0.034155
0.0292777
0.02464
0.0200683
0.0149912
0.00702479
0.0487965
0.0426797
0.0367451
0.0312022
0.0260354
0.0210502
0.0156405
0.00725945
0.0515188
0.044949
0.0384838
0.0324769
0.0269393
0.0216664
0.0160303
0.00739325
0.0520301
0.0453442
0.0387582
0.0326512
0.0270474
0.0217303
0.0160723
0.007386
0.0502173
0.0437171
0.0374425
0.0316442
0.0262933
0.02118
0.0156915
0.00721515
0.046516
0.0405565
0.0349404
0.0297399
0.0248849
0.0201705
0.0150157
0.00693289
0.0415925
0.0366598
0.0319262
0.0274502
0.0231812
0.0189368
0.0141758
0.00659158
0.0446496
0.0393153
0.034128
0.0292176
0.0245639
0.0199876
0.0149192
0.00701275
0.0491724
0.0428308
0.0367955
0.0311964
0.025996
0.0209929
0.0155805
0.00725533
0.0520151
0.04518
0.0385983
0.032525
0.0269438
0.0216412
0.0159931
0.0073953
0.0524744
0.0455692
0.0388885
0.0327311
0.0270786
0.0217237
0.0160467
0.00738761
0.0505475
0.0439009
0.0375656
0.0317212
0.0263296
0.0211838
0.0156776
0.00722439
0.0467188
0.0406983
0.0350458
0.0298099
0.0249214
0.020179
0.015009
0.00694775
0.0417527
0.0367844
0.0320198
0.0275134
0.0232163
0.0189484
0.0141732
0.00660627
0.044303
0.0389656
0.0337986
0.0289206
0.0243074
0.0197755
0.0147574
0.00695529
0.0488949
0.0424975
0.0364685
0.0308975
0.0257365
0.0207794
0.0154227
0.00720636
0.0518551
0.0448818
0.0382906
0.0322389
0.0266911
0.0214323
0.015842
0.00734195
0.0523953
0.0453184
0.038624
0.032479
0.0268529
0.0215359
0.0159044
0.00733384
0.0504165
0.0436859
0.0373435
0.0315122
0.0261456
0.0210304
0.0155604
0.00718276
0.0465629
0.0405174
0.0348716
0.0296498
0.0247801
0.0200603
0.0149168
0.0069192
0.0415879
0.0366302
0.0318789
0.0273852
0.0231019
0.0188495
0.0140921
0.00658085
0.0435383
0.0382427
0.033179
0.0284204
0.0239242
0.0194985
0.0145811
0.00691194
0.0481349
0.0417131
0.0357893
0.0303544
0.0253271
0.0204908
0.0152422
0.00716123
0.051125
0.0440758
0.0375833
0.0316748
0.0262698
0.021139
0.0156605
0.00730132
0.051724
0.0445674
0.0379605
0.0319522
0.0264636
0.0212676
0.0157365
0.00729622
0.0498012
0.0430406
0.0367845
0.0310695
0.0258181
0.0208076
0.0154307
0.00716206
0.0459888
0.039985
0.0344267
0.0293008
0.0245237
0.0198876
0.0148165
0.00690822
0.041084
0.0361982
0.0315248
0.0271079
0.0228974
0.01871
0.0140108
0.00657795
0.0424983
0.0373998
0.0325205
0.0279344
0.0235946
0.0193077
0.014512
0.00693627
0.04693
0.0407705
0.0350636
0.029825
0.024973
0.0202885
0.015171
0.00719783
0.0498269
0.0430876
0.0368279
0.031127
0.0259073
0.020937
0.0155948
0.00735299
0.0505111
0.0436514
0.0372615
0.0314484
0.0261341
0.0210922
0.0156898
0.00736123
0.0488603
0.0422914
0.0362066
0.0306569
0.0255578
0.0206815
0.0154164
0.00723285
0.0452811
0.0394136
0.0339906
0.0289968
0.0243431
0.0198156
0.0148334
0.00697701
0.0405557
0.0357736
0.0312052
0.0268931
0.0227822
0.0186841
0.0140533
0.00664306
0.0416557
0.0367871
0.0321265
0.0277541
0.0236212
0.0195233
0.0148852
0.00777572
0.0459384
0.0400823
0.0346264
0.029619
0.0249864
0.0205041
0.0155534
0.00805862
0.048785
0.0423888
0.0363938
0.0309294
0.0259331
0.0211681
0.015995
0.00824087
0.0495795
0.043036
0.0368937
0.0312994
0.0262024
0.0213604
0.0161207
0.00827897
0.0480754
0.041816
0.0359533
0.0306055
0.0257039
0.0210132
0.0158981
0.00816781
0.044748
0.0391033
0.033862
0.0290462
0.0245727
0.0202166
0.0153678
0.0079218
0.0402665
0.0356218
0.0311964
0.02704
0.023093
0.0191499
0.0146366
0.0075962
0.0392662
0.0345871
0.0301222
0.0258949
0.0218503
0.0178158
0.0132725
0.00598634
0.0436938
0.0379426
0.0326635
0.0277983
0.0232469
0.0188076
0.0139269
0.00620919
0.0471525
0.0406771
0.0347507
0.029354
0.024377
0.019598
0.0144364
0.00638922
0.048957
0.0421255
0.035872
0.0302
0.0249998
0.020042
0.0147303
0.00650948
0.0485954
0.0418729
0.0357145
0.0301147
0.0249656
0.0200426
0.0147508
0.00654742
0.046124
0.0399977
0.0343525
0.029155
0.0243133
0.0196229
0.0145095
0.00650607
0.0421736
0.0371059
0.0322373
0.0276294
0.0232431
0.0189038
0.014067
0.00640364
0.0393658
0.0346312
0.0301232
0.0258638
0.021799
0.017756
0.0132175
0.00597911
0.043836
0.0380041
0.0326647
0.0277565
0.0231799
0.0187319
0.0138592
0.0061975
0.0473485
0.0407608
0.0347525
0.0293001
0.0242918
0.0195032
0.0143524
0.00636994
0.0491934
0.042219
0.0358661
0.0301292
0.0248945
0.0199276
0.0146299
0.00648215
0.0488251
0.0419474
0.035687
0.0300227
0.0248407
0.0199117
0.0146381
0.00651486
0.0462667
0.0400139
0.0342845
0.0290358
0.0241708
0.0194801
0.0143889
0.0064707
0.042206
0.0370543
0.03213
0.0274893
0.0230902
0.0187554
0.0139422
0.00636503
0.0391542
0.0344099
0.0299061
0.0256629
0.0216237
0.0176123
0.0131116
0.00594665
0.043617
0.0377477
0.0324022
0.027513
0.0229696
0.0185632
0.0137381
0.00616114
0.0471262
0.0404657
0.0344414
0.0290076
0.0240392
0.0193027
0.0142101
0.00632572
0.0489573
0.0418857
0.035509
0.0297931
0.0246048
0.0196971
0.0144663
0.00642905
0.0485501
0.0415758
0.0352957
0.0296573
0.024527
0.0196621
0.0144602
0.00645542
0.0459366
0.0396172
0.0338806
0.0286626
0.0238506
0.0192238
0.0142043
0.00640755
0.0418256
0.0366467
0.0317311
0.0271239
0.0227743
0.0184978
0.0137521
0.00629632
0.0385897
0.0339195
0.0294972
0.0253392
0.0213843
0.0174512
0.0130213
0.00595144
0.0429385
0.0371516
0.0319056
0.0271206
0.0226817
0.0183713
0.013631
0.00616156
0.0463245
0.0397474
0.0338402
0.0285355
0.0236947
0.0190742
0.014082
0.00631972
0.0480497
0.0410623
0.0348214
0.0292537
0.0242111
0.0194354
0.0143178
0.00641551
0.0475764
0.0407011
0.0345674
0.0290871
0.0241099
0.0193821
0.0142982
0.00643508
0.0449836
0.0387634
0.033168
0.0281015
0.0234358
0.0189403
0.0140362
0.00638175
0.0409345
0.0358571
0.0310676
0.0265941
0.0223744
0.0182166
0.0135791
0.00626369
0.038013
0.033469
0.0291767
0.0251476
0.0213129
0.0174823
0.0131263
0.00604595
0.0421799
0.0365526
0.0314693
0.0268437
0.0225518
0.0183671
0.0137217
0.00626821
0.045368
0.0389885
0.0332808
0.0281681
0.0235008
0.0190292
0.0141527
0.00643149
0.0469107
0.0401681
0.0341626
0.0288125
0.0239643
0.0193544
0.0143667
0.00652379
0.046353
0.0397499
0.0338665
0.0286134
0.0238374
0.0192794
0.0143292
0.00653239
0.0438043
0.0378461
0.0324891
0.0276389
0.0231645
0.0188308
0.0140538
0.00646147
0.0398958
0.0350331
0.030449
0.0261672
0.0221193
0.0181073
0.0135843
0.0063204
0.0377637
0.033403
0.0293131
0.0255033
0.0218931
0.0182702
0.0140623
0.00724292
0.0417151
0.0363268
0.0314855
0.02711
0.0230693
0.0191181
0.0146457
0.00749352
0.0446889
0.0386021
0.0331731
0.0283353
0.0239403
0.019723
0.0150414
0.00766307
0.0460576
0.0396512
0.0339503
0.0288977
0.0243368
0.0199931
0.0152131
0.00774058
0.045424
0.039172
0.0336059
0.0286553
0.0241689
0.0198758
0.0151315
0.00771161
0.0429194
0.037293
0.0322396
0.02768
0.0234835
0.0194012
0.0148169
0.0075898
0.0391602
0.0345658
0.0302473
0.0262288
0.0224349
0.0186522
0.0143039
0.00738921
0.000993418
0.00229879
0.00313071
0.00386108
0.00444714
0.00482253
0.00496678
0.00490171
0.000988624
0.00228728
0.00311468
0.00384187
0.00442563
0.00479916
0.00494221
0.00487637
0.000982983
0.00227178
0.00309216
0.00381455
0.00439558
0.0047685
0.00491213
0.0048476
0.000978245
0.00225761
0.00307194
0.00379083
0.00437054
0.00474443
0.00489004
0.00482802
0.000974462
0.00224643
0.00305641
0.00377333
0.00435322
0.00472871
0.004877
0.00481824
0.000970382
0.00223589
0.00304203
0.003757
0.00433697
0.00471413
0.00486525
0.00481023
0.000965653
0.00222339
0.00302448
0.00373621
0.00431504
0.00469297
0.00484601
0.00479385
0.00139611
0.00326512
0.00448602
0.00551105
0.00623237
0.00659327
0.00663564
0.00641269
0.00138832
0.00324795
0.00446478
0.00548754
0.00620663
0.00656654
0.0066091
0.00638707
0.00137724
0.00322081
0.00442859
0.00544657
0.00616385
0.00652471
0.00657024
0.00635208
0.00136678
0.00319486
0.00439457
0.00540926
0.00612649
0.00649003
0.00654006
0.00632694
0.00135826
0.00317365
0.00436708
0.00537949
0.00609736
0.0064641
0.00651892
0.00631128
0.00135003
0.00315382
0.00434111
0.00535094
0.0060692
0.00643862
0.00649774
0.00629547
0.00134103
0.00313132
0.00431097
0.00531725
0.00603555
0.00640681
0.00646913
0.00627094
0.00201711
0.00481721
0.00668606
0.00806031
0.00883001
0.00907323
0.00889144
0.0083852
0.00200513
0.00479423
0.0066604
0.00802936
0.00879539
0.00903784
0.00885787
0.0083554
0.00198524
0.00475006
0.00660453
0.00796566
0.0087302
0.00897648
0.00880408
0.00831095
0.00196563
0.00470635
0.00654957
0.00790456
0.00867023
0.00892246
0.00875956
0.00827687
0.00194951
0.00466974
0.00650323
0.00785304
0.00861977
0.00887869
0.00872487
0.00825169
0.00193512
0.00463653
0.0064608
0.00780629
0.00857376
0.00883735
0.00869024
0.00822422
0.00192079
0.00460129
0.00641589
0.00775867
0.00852698
0.00879416
0.0086523
0.0081921
0.002916
0.00728607
0.0102114
0.0118512
0.0125315
0.0124674
0.0118538
0.0108602
0.00289937
0.00726477
0.010178
0.0118045
0.0124764
0.0124101
0.0117991
0.0108119
0.00286385
0.00719202
0.0100828
0.0116981
0.01237
0.0123128
0.011717
0.0107487
0.00282752
0.00711421
0.00998125
0.0115888
0.0122654
0.0122218
0.0116448
0.0106973
0.00279735
0.00704805
0.00989402
0.0114951
0.0121769
0.0121468
0.0115871
0.0106564
0.00277315
0.00699217
0.00982255
0.0114189
0.0121039
0.0120829
0.0115347
0.0106136
0.00275234
0.00693917
0.00975851
0.0113523
0.0120406
0.0120266
0.0114875
0.0105753
0.00441701
0.012247
0.0157567
0.0174058
0.0177087
0.0170104
0.0156255
0.0138215
0.00439909
0.0122354
0.0157231
0.0173443
0.0176256
0.0169175
0.0155327
0.0137334
0.00434692
0.0121214
0.0155735
0.0171759
0.0174562
0.0167628
0.0154018
0.0136319
0.00428965
0.0119762
0.0153947
0.0169891
0.0172806
0.016612
0.0152828
0.0135479
0.00424054
0.0118431
0.0152368
0.016829
0.017134
0.0164902
0.0151916
0.0134857
0.00420339
0.0117324
0.0151078
0.016704
0.0170223
0.0163972
0.0151208
0.0134325
0.00417387
0.011644
0.0150005
0.0166008
0.0169331
0.0163239
0.0150638
0.0133912
0.00952605
0.020121
0.0239031
0.0251378
0.0246346
0.0228422
0.0202022
0.0171249
0.00986052
0.0202086
0.0239351
0.0251072
0.0245447
0.0227155
0.0200648
0.0169856
0.0100896
0.0201562
0.0238084
0.0249158
0.024318
0.0224917
0.0198687
0.016823
0.0101928
0.0199974
0.0235879
0.0246623
0.0240643
0.0222672
0.0196881
0.0166898
0.0101914
0.0197899
0.0233519
0.0244279
0.0238501
0.022088
0.0195566
0.0166061
0.010123
0.0195699
0.0231159
0.0242175
0.02368
0.0219566
0.0194657
0.0165561
0.010155
0.0194859
0.0229795
0.0240668
0.0235537
0.0218627
0.0194011
0.0165218
0.000937628
0.00214891
0.0029196
0.00361025
0.00417832
0.00455551
0.004713
0.00466963
0.000934028
0.0021426
0.00291159
0.00360059
0.00416737
0.00454357
0.00470026
0.00465609
0.00093175
0.00214015
0.0029082
0.0035957
0.00416117
0.00453629
0.00469215
0.00464711
0.000932295
0.0021457
0.00291551
0.00360326
0.00416802
0.0045419
0.00469622
0.00464943
0.000937457
0.00216058
0.00293673
0.00362837
0.00419469
0.00456822
0.00472084
0.00467179
0.00094611
0.00218278
0.00296901
0.00366782
0.0042382
0.00461281
0.0047644
0.00471317
0.000955668
0.00220716
0.00300343
0.00370978
0.00428482
0.00466106
0.0048124
0.00475952
0.00129504
0.00301722
0.00415855
0.00514834
0.00586523
0.00623685
0.00630173
0.00610987
0.00129243
0.00301189
0.00414997
0.00513739
0.00585346
0.00622385
0.00628697
0.00609318
0.00129165
0.00301093
0.00414639
0.00513151
0.00584691
0.00621613
0.00627769
0.0060824
0.00129514
0.00302138
0.00415846
0.00514331
0.0058579
0.00622518
0.00628392
0.00608563
0.00130525
0.00304729
0.00419321
0.00518228
0.0058975
0.00626264
0.00631752
0.00611469
0.00132017
0.00308487
0.0042455
0.00524311
0.00596092
0.0063251
0.00637655
0.00616898
0.00133536
0.00312296
0.00429763
0.00530364
0.0060247
0.00638944
0.00643938
0.00622883
0.00186256
0.00446414
0.00625496
0.00760385
0.00837175
0.00863251
0.0084843
0.00802224
0.00186281
0.00446157
0.00624671
0.00759663
0.00836435
0.00862294
0.00847141
0.00800602
0.00186541
0.00446349
0.00624318
0.00759494
0.00836278
0.00861893
0.00846373
0.00799538
0.00187448
0.00448237
0.00626246
0.0076181
0.00838572
0.00863767
0.00847637
0.00800222
0.00189337
0.00452623
0.0063181
0.00768147
0.0084494
0.0086957
0.00852561
0.00804221
0.00191843
0.00458724
0.00640002
0.0077744
0.0085444
0.008786
0.00860727
0.00811396
0.00194103
0.00464246
0.0064719
0.00785478
0.00862864
0.00886967
0.00868717
0.00818839
0.00270672
0.00683294
0.0096972
0.0113005
0.0119728
0.01193
0.0113648
0.0104389
0.00271525
0.00683362
0.00969715
0.0113027
0.0119739
0.0119269
0.0113563
0.0104268
0.00272794
0.00684342
0.00970574
0.011315
0.0119855
0.0119331
0.0113543
0.0104184
0.00275209
0.00688678
0.00975012
0.0113686
0.0120372
0.0119748
0.0113825
0.0104347
0.00279058
0.00697186
0.00985376
0.0114861
0.0121512
0.0120742
0.0114622
0.0104952
0.00283446
0.00707805
0.00999148
0.0116414
0.0123058
0.0122152
0.011583
0.010595
0.00286661
0.00715479
0.0100843
0.0117497
0.0124214
0.0123291
0.0116885
0.0106891
0.00418176
0.0117692
0.0151718
0.0167549
0.0170319
0.016348
0.0150219
0.0133185
0.00418535
0.0117554
0.0151744
0.0167663
0.0170419
0.0163502
0.0150143
0.0133061
0.00419416
0.0117676
0.0152037
0.0167989
0.0170717
0.0163724
0.0150224
0.0132991
0.00422441
0.0118377
0.0152993
0.0169035
0.0171711
0.0164544
0.0150792
0.0133319
0.00428438
0.0119985
0.0155011
0.0171179
0.0173733
0.0166265
0.0152126
0.0134281
0.00435788
0.0121917
0.0157398
0.0173787
0.0176294
0.016855
0.0154012
0.0135753
0.00440103
0.0122654
0.0158398
0.0175088
0.0177824
0.0170142
0.0155496
0.0137028
0.00974379
0.0198809
0.0235201
0.0245714
0.0239345
0.022084
0.0194719
0.0165142
0.00938056
0.0197251
0.0234257
0.0245513
0.0239503
0.0220975
0.0194659
0.0164862
0.00910612
0.0197025
0.0234582
0.0246065
0.024006
0.022147
0.0194982
0.0164838
0.00887682
0.0197595
0.0235706
0.0247479
0.0241545
0.0222806
0.0195977
0.0165385
0.00877648
0.0199471
0.0238247
0.0250459
0.0244565
0.0225481
0.0198077
0.0166854
0.00874394
0.020149
0.0240891
0.0253698
0.02481
0.0228824
0.0200895
0.0169014
0.00859131
0.0201012
0.0240777
0.0254199
0.0249359
0.0230639
0.0202858
0.0170772
0.000963908
0.00222699
0.00302923
0.0037389
0.00431526
0.00469131
0.00484135
0.00478617
0.0009704
0.00224033
0.00304311
0.00375084
0.00432419
0.00469756
0.00484471
0.00478642
0.000975455
0.00224909
0.00305124
0.00375613
0.00432599
0.00469632
0.0048411
0.00478053
0.00098024
0.00225953
0.0030641
0.00377006
0.00433998
0.0047097
0.00485356
0.00479178
0.000985275
0.00227273
0.00308505
0.00379772
0.00437226
0.00474438
0.00488857
0.00482603
0.000990121
0.0022876
0.00311026
0.00383229
0.00441348
0.00478832
0.0049334
0.00487019
0.000993474
0.00229838
0.00312873
0.00385751
0.00444305
0.00481921
0.00496456
0.00490071
0.00134717
0.00314996
0.00433075
0.00533899
0.00606066
0.0064252
0.00647399
0.00626122
0.00135545
0.00316388
0.00434173
0.00534497
0.00606378
0.00642594
0.0064725
0.00625723
0.00136149
0.0031718
0.00434464
0.00534153
0.00605672
0.00641658
0.00646162
0.00624508
0.00136873
0.00318614
0.00436087
0.0053572
0.0060716
0.0064311
0.00647585
0.00625895
0.00137824
0.00321068
0.00439719
0.00540117
0.00611859
0.00647962
0.00652487
0.00630732
0.00138819
0.00324017
0.0044436
0.00545852
0.00617957
0.00654248
0.00658808
0.00636927
0.00139532
0.00326164
0.00447773
0.00550018
0.0062225
0.00658534
0.00662994
0.00640926
0.00195551
0.0046728
0.00650417
0.00788838
0.0086641
0.00890633
0.00872376
0.0082235
0.00196337
0.00467914
0.00649854
0.00787842
0.00865259
0.00889468
0.00871206
0.00821092
0.00196748
0.00467636
0.00648117
0.00785426
0.00862663
0.00886917
0.00868783
0.00818717
0.00197481
0.00468856
0.00649137
0.00786113
0.0086334
0.00887734
0.00869785
0.00819832
0.00198784
0.00472355
0.00654105
0.00791336
0.00868681
0.00893345
0.00875591
0.00825685
0.00200348
0.00477044
0.00661139
0.00798635
0.00876113
0.00900965
0.00883338
0.00833383
0.0020148
0.00480611
0.00666512
0.00804038
0.0088137
0.0090609
0.00888298
0.0083806
0.00288113
0.00717911
0.010101
0.0117717
0.01245
0.0123629
0.0117247
0.0107248
0.00288645
0.00716683
0.0100657
0.0117342
0.0124145
0.0123322
0.0116986
0.0107009
0.00288436
0.00713747
0.0100086
0.011673
0.0123572
0.0122826
0.011657
0.0106634
0.00288488
0.00713088
0.00999324
0.0116543
0.0123423
0.0122751
0.0116566
0.0106661
0.0028916
0.00715887
0.0100356
0.0116937
0.0123852
0.0123254
0.0117135
0.0107256
0.00290181
0.00720744
0.0101108
0.0117647
0.0124563
0.0124005
0.0117936
0.0108082
0.0029106
0.00725081
0.0101734
0.0118219
0.01251
0.0124528
0.0118451
0.0108574
0.0044049
0.0122452
0.0158249
0.0175044
0.0177929
0.01704
0.0155853
0.0137407
0.00438886
0.0121958
0.015764
0.0174345
0.0177235
0.016981
0.0155393
0.0137048
0.00436109
0.0120998
0.0156461
0.0173113
0.0176118
0.016891
0.0154728
0.0136562
0.00434849
0.0120503
0.0155781
0.0172427
0.0175556
0.0168548
0.0154567
0.0136497
0.00435652
0.0120686
0.0155883
0.017252
0.0175727
0.0168862
0.0155029
0.0137007
0.00437948
0.0121415
0.0156601
0.0173189
0.017635
0.0169502
0.0155744
0.0137776
0.00440137
0.0121988
0.0157136
0.0173727
0.0176864
0.0169984
0.0156219
0.0138247
0.0084488
0.0199997
0.0239839
0.0253499
0.0248972
0.0230624
0.0203146
0.0171196
0.00839865
0.0199691
0.0239309
0.0252712
0.024798
0.0229663
0.0202385
0.0170681
0.00833825
0.0198366
0.0237632
0.0250787
0.0246072
0.0228078
0.0201235
0.0170049
0.00840522
0.0197689
0.0236566
0.024954
0.0244915
0.0227235
0.0200807
0.0169972
0.00862662
0.0198303
0.0236911
0.0249654
0.0244945
0.0227365
0.0201149
0.0170394
0.00891531
0.0199783
0.0238233
0.0250807
0.0245859
0.0228083
0.0201824
0.0171085
0.00919125
0.0200344
0.023857
0.0251181
0.0246308
0.0228502
0.0202195
0.0171462
0.000960497
0.0022074
0.00300025
0.00370563
0.00428081
0.00465797
0.00481166
0.00476144
0.000956044
0.00219034
0.00297286
0.00366972
0.00423933
0.00461466
0.00476828
0.00471951
0.000952283
0.00217544
0.00294859
0.00363756
0.00420181
0.0045747
0.00472779
0.00467956
0.000949006
0.00216476
0.00293165
0.0036153
0.00417602
0.00454678
0.00469945
0.00465149
0.00094638
0.00215884
0.00292363
0.00360585
0.00416579
0.00453648
0.00468982
0.00464286
0.00094367
0.00215579
0.00292235
0.00360721
0.00416977
0.00454262
0.0046974
0.00465181
0.000941053
0.00215374
0.0029235
0.00361255
0.00417898
0.00455487
0.00471154
0.0046675
0.00133022
0.00310159
0.00426857
0.00526764
0.00598431
0.00635623
0.00642091
0.00622635
0.00131881
0.00306762
0.00421845
0.00520763
0.00592126
0.00629261
0.00635884
0.00616751
0.00130882
0.00303769
0.00417436
0.00515512
0.0058662
0.00623635
0.00630285
0.00611305
0.00130143
0.00301742
0.00414524
0.00512079
0.0058301
0.00619902
0.00626502
0.00607549
0.00129767
0.00300948
0.00413531
0.00511017
0.00581928
0.00618802
0.00625362
0.00606394
0.00129648
0.00301163
0.00414272
0.00512273
0.0058344
0.00620428
0.00626998
0.00608007
0.00129659
0.0030174
0.00415612
0.00514321
0.00585858
0.00622995
0.00629553
0.00610475
0.00190212
0.00455194
0.0063499
0.0076872
0.0084549
0.00872524
0.0085888
0.00813505
0.00188011
0.00449282
0.00626958
0.00759977
0.0083656
0.00863777
0.00850564
0.00805785
0.00186108
0.00444242
0.00620299
0.00752947
0.00829397
0.00856583
0.00843462
0.00798902
0.0018491
0.00441244
0.00616499
0.00749047
0.00825376
0.00852373
0.00839098
0.00794473
0.00184648
0.00440808
0.0061618
0.00748907
0.00825164
0.00851961
0.00838416
0.00793539
0.00185126
0.00442641
0.00619273
0.00752642
0.00829069
0.00855681
0.00841803
0.00796595
0.00185892
0.00445228
0.00623574
0.00757907
0.00834614
0.00860977
0.00846601
0.0080084
0.00272215
0.00685921
0.00966593
0.0112531
0.0119417
0.0119343
0.0114055
0.0105047
0.00268489
0.00675871
0.00955098
0.0111305
0.0118193
0.0118179
0.0112985
0.0104086
0.00265532
0.00668059
0.0094661
0.0110429
0.011732
0.011732
0.0112145
0.0103278
0.00264171
0.00664586
0.00943369
0.0110103
0.0116968
0.0116925
0.011171
0.010282
0.00264615
0.00665844
0.00945464
0.0110329
0.0117156
0.011705
0.011177