/*--------------------------------*- C++ -*----------------------------------*\
| =========                 |                                                 |
| \\      /  F ield         | OpenFOAM: The Open Source CFD Toolbox           |
|  \\    /   O peration     | Version:  plus.master.MPPICInterFoam            |
|   \\  /    A nd           | Web:      www.OpenFOAM.com                      |
|    \\/     M anipulation  |                                                 |
\*---------------------------------------------------------------------------*/
FoamFile
{
    version     2.0;
    format      ascii;
    class       volScalarField;
    location    "7.2";
    object      p;
}
// * * * * * * * * * * * * * * * * * * * * * * * * * * * * * * * * * * * * * //

dimensions      [1 -1 -2 0 0 0 0];

internalField   nonuniform List<scalar> 
11822
(
744.316
744.831
744.502
745.838
746.274
745.077
745.646
744.571
745.546
744.231
744.427
746.364
746.046
745.097
744.048
741.072
741.522
743.448
744.997
744.584
744.82
744.616
740.965
739.792
740.942
744.582
743.928
744.747
744.964
745.397
744.281
744.826
745.311
745.788
745.288
744.625
745.28
743.999
744.857
746.006
745.171
745.983
745.321
744.639
744.407
744.684
745.333
746.006
747.024
660.777
663.678
665.388
665.785
664.252
660.976
659.274
663.889
666.502
666.865
666.845
666.802
664.119
659.837
665.759
666.981
666.934
666.56
666.369
665.273
660.247
665.3
667.415
668.006
667.37
666.473
665.166
660.251
664.134
667.453
667.762
667.565
666.902
663.966
659.789
661.111
664.404
665.407
665.586
663.993
660.873
659.12
659.272
659.962
660.509
660.469
659.841
659.166
659.082
574.708
578.442
580.774
581.103
578.703
574.622
572.244
578.543
584.076
585.64
585.807
584.625
578.501
573.239
580.581
585.118
585.209
585.385
585.96
580.627
573.893
579.887
584.647
584.771
585.129
585.84
580.363
573.709
578.097
583.165
584.053
584.36
583.567
577.909
572.77
574.366
578.2
579.748
579.893
577.816
574.072
571.599
572.068
573.109
573.867
573.796
572.89
571.687
570.994
481.911
483.696
484.642
484.478
483.048
481.3
480.459
483.81
487.734
489.654
489.637
486.327
482.988
480.9
484.856
489.674
491.512
491.986
489.68
483.953
481.153
484.813
488.947
490.786
490.987
489.613
483.889
481.058
483.543
486.724
489.237
488.715
485.966
482.918
480.579
481.563
483.586
484.325
484.084
482.906
481.046
480.011
480.672
481.128
481.537
481.441
480.853
480.142
479.675
386.465
386.584
386.086
385.457
385.256
385.273
385.348
386.822
386.705
386.36
385.129
382.747
384.743
385.504
387.254
388.802
392.108
390.778
383.937
383.645
385.584
387.83
389.358
392.991
391.379
384.236
384.101
385.58
387.437
388.287
391.304
389.242
384.826
385.488
385.6
386.697
387.568
387.538
386.612
385.978
385.509
385.47
386.439
386.665
386.831
386.563
385.955
385.608
385.308
296.536
296.908
296.929
295.767
295.214
294.972
294.94
297.012
296.998
297.007
296.895
297.365
295.473
295.226
297.462
298.294
298.628
297.089
293.874
295.29
295.176
297.934
299.181
300.978
298.187
294.165
295.436
295.157
297.251
298.581
299.982
299.23
297.103
295.699
295.179
296.374
297.136
297.147
295.841
295.521
295.03
294.968
296.152
296.256
296.244
295.805
295.321
295.066
294.908
746.672
747.653
748.55
749.302
749.879
750.313
750.634
750.84
746.561
747.78
748.715
749.427
749.986
750.419
750.75
750.979
746.513
747.694
748.642
749.382
749.982
750.448
750.805
751.061
746.528
747.72
748.673
749.434
750.029
750.498
750.864
751.124
746.848
747.954
748.866
749.589
750.151
750.594
750.933
751.172
747.314
748.321
749.156
749.806
750.311
750.704
750.998
751.201
747.971
748.735
749.433
750.013
750.453
750.79
751.043
751.213
659.023
659.074
659.136
659.207
659.322
659.488
659.695
659.872
659.001
658.87
658.919
659.056
659.248
659.472
659.713
659.918
659.042
658.807
658.861
659.022
659.232
659.47
659.728
659.95
659.034
658.816
658.88
659.043
659.249
659.484
659.738
659.963
658.945
658.862
658.954
659.116
659.312
659.533
659.769
659.976
658.878
658.95
659.084
659.242
659.417
659.611
659.819
659.993
659.126
659.281
659.391
659.477
659.583
659.725
659.889
660.034
571.302
570.664
570.069
569.615
569.346
569.246
569.294
569.395
571.388
570.398
569.752
569.369
569.181
569.14
569.22
569.347
571.454
570.376
569.725
569.338
569.139
569.095
569.179
569.316
571.342
570.326
569.697
569.314
569.112
569.062
569.142
569.279
570.987
570.165
569.614
569.268
569.086
569.042
569.117
569.244
570.581
569.991
569.541
569.246
569.087
569.05
569.119
569.227
570.44
570.075
569.689
569.371
569.181
569.122
569.17
569.259
479.906
479.36
478.838
478.408
478.115
477.951
477.909
477.937
479.974
479.225
478.659
478.253
477.973
477.818
477.784
477.829
480.027
479.262
478.658
478.215
477.906
477.733
477.695
477.745
479.948
479.213
478.615
478.164
477.848
477.668
477.627
477.675
479.702
479.055
478.505
478.087
477.794
477.627
477.586
477.633
479.399
478.874
478.398
478.03
477.775
477.633
477.599
477.636
479.231
478.841
478.424
478.08
477.842
477.71
477.674
477.699
385.177
384.934
384.667
384.426
384.267
384.26
384.46
384.657
385.402
385.164
384.866
384.54
384.277
384.191
384.357
384.552
385.599
385.289
384.92
384.545
384.237
384.11
384.261
384.456
385.59
385.247
384.855
384.468
384.151
384.021
384.178
384.381
385.45
385.089
384.705
384.334
384.042
383.94
384.117
384.333
385.204
384.852
384.494
384.167
383.93
383.88
384.085
384.303
384.925
384.589
384.262
384.002
383.839
383.853
384.081
384.295
295.004
294.947
294.734
294.493
294.26
294.071
293.992
294.032
295.138
295.031
294.741
294.362
293.994
293.703
293.585
293.639
295.21
294.983
294.629
294.212
293.802
293.471
293.34
293.414
295.155
294.872
294.503
294.091
293.692
293.385
293.291
293.402
295.047
294.754
294.417
294.057
293.724
293.488
293.459
293.611
294.831
294.601
294.336
294.068
293.842
293.713
293.767
293.952
294.777
294.617
294.401
294.227
294.108
294.08
294.2
294.392
746.61
747.469
748.292
749.046
749.645
750.086
750.388
750.588
745.565
746.931
747.978
748.796
749.432
749.91
750.25
750.488
745.117
746.47
747.596
748.484
749.184
749.715
750.116
750.399
744.426
745.981
747.237
748.212
748.978
749.553
749.998
750.312
744.085
745.882
747.225
748.216
748.977
749.557
749.979
750.271
744.783
746.39
747.592
748.503
749.179
749.697
750.053
750.29
745.174
746.439
747.526
748.475
749.206
749.73
750.061
750.262
659.011
658.993
659.043
659.137
659.258
659.409
659.586
659.748
659.197
658.887
658.848
658.928
659.082
659.277
659.5
659.702
660.208
659.202
658.898
658.873
658.994
659.19
659.449
659.689
660.839
659.318
658.873
658.8
658.91
659.114
659.388
659.654
660.954
659.309
658.833
658.763
658.883
659.095
659.356
659.611
659.938
659.046
658.795
658.794
658.929
659.129
659.356
659.563
658.957
658.841
658.839
658.903
659.02
659.176
659.352
659.513
571.173
570.601
570.079
569.674
569.417
569.307
569.328
569.417
571.844
570.826
570.121
569.646
569.388
569.293
569.34
569.454
573.277
571.479
570.468
569.845
569.5
569.361
569.406
569.538
574.339
571.901
570.672
569.953
569.553
569.391
569.43
569.573
574.503
571.883
570.613
569.9
569.511
569.361
569.402
569.548
573.465
571.463
570.392
569.767
569.425
569.302
569.341
569.459
572.117
571.214
570.45
569.868
569.499
569.334
569.331
569.413
480.149
479.665
479.152
478.703
478.373
478.177
478.108
478.126
480.534
479.873
479.256
478.767
478.419
478.211
478.145
478.176
481.229
480.307
479.554
478.974
478.566
478.309
478.227
478.265
481.85
480.608
479.748
479.116
478.654
478.362
478.269
478.309
481.872
480.58
479.71
479.075
478.616
478.344
478.255
478.299
481.395
480.334
479.55
478.961
478.545
478.301
478.223
478.259
480.868
480.25
479.583
479.004
478.586
478.33
478.235
478.245
386.111
385.746
385.329
384.938
384.663
384.593
384.768
384.961
386.479
386.124
385.681
385.254
384.915
384.777
384.912
385.095
386.836
386.501
386.017
385.551
385.146
384.944
385.047
385.22
387.023
386.721
386.21
385.692
385.267
385.035
385.117
385.282
386.909
386.676
386.203
385.706
385.281
385.056
385.134
385.299
386.6
386.424
386.01
385.565
385.191
385.008
385.104
385.27
386.347
386.11
385.739
385.353
385.046
384.92
385.051
385.221
296.001
295.82
295.49
295.127
294.819
294.617
294.581
294.674
296.287
295.994
295.594
295.165
294.75
294.422
294.28
294.33
296.685
296.351
295.859
295.321
294.782
294.316
294.061
294.071
296.913
296.621
296.084
295.473
294.847
294.286
293.947
293.912
296.901
296.697
296.181
295.56
294.93
294.355
293.991
293.93
296.712
296.581
296.118
295.554
294.982
294.472
294.151
294.093
296.433
296.289
295.931
295.48
295.02
294.619
294.379
294.345
745.221
746.442
747.506
748.455
749.197
749.736
750.056
750.254
744.824
746.393
747.594
748.497
749.181
749.767
750.051
750.29
744.622
746.152
747.395
748.321
749.042
749.615
750.03
750.311
744.838
746.211
747.364
748.256
748.995
749.564
750.045
750.329
745.409
746.609
747.671
748.542
749.231
749.767
750.234
750.475
745.844
747.04
748.039
748.858
749.501
749.982
750.429
750.608
746.77
747.53
748.34
749.108
749.719
750.173
750.573
750.736
658.897
658.783
658.808
658.89
659.012
659.171
659.335
659.495
659.851
658.959
658.701
658.718
658.867
659.144
659.305
659.521
660.575
659.117
658.679
658.647
658.8
659.028
659.305
659.566
660.564
659.041
658.622
658.635
658.794
659.028
659.411
659.63
659.861
658.841
658.63
658.7
658.884
659.126
659.404
659.663
658.988
658.66
658.679
658.816
659
659.215
659.557
659.713
658.939
658.94
659.014
659.108
659.234
659.403
659.684
659.814
572.044
571.151
570.42
569.853
569.487
569.339
569.312
569.394
573.398
571.397
570.322
569.684
569.345
569.286
569.271
569.396
574.454
571.789
570.507
569.793
569.407
569.258
569.319
569.466
574.426
571.751
570.523
569.824
569.439
569.288
569.437
569.533
573.248
571.302
570.305
569.698
569.362
569.236
569.362
569.469
571.819
570.734
570.019
569.553
569.295
569.204
569.349
569.422
571.271
570.675
570.104
569.659
569.379
569.269
569.384
569.441
480.831
480.204
479.55
478.979
478.562
478.339
478.215
478.232
481.239
480.174
479.39
478.809
478.422
478.204
478.158
478.181
481.638
480.374
479.519
478.89
478.449
478.184
478.184
478.201
481.523
480.338
479.524
478.91
478.463
478.199
478.21
478.207
480.887
480.021
479.313
478.752
478.345
478.1
478.135
478.116
480.246
479.626
479.039
478.574
478.24
478.042
478.058
478.052
479.908
479.461
478.987
478.548
478.228
478.029
478.002
478.027
386.442
386.167
385.739
385.324
385.015
384.906
385.042
385.218
386.38
386.184
385.784
385.37
385.029
384.868
385.026
385.152
386.365
386.26
385.883
385.449
385.054
384.836
384.98
385.105
386.133
386.143
385.828
385.427
385.018
384.795
384.873
385.028
385.745
385.837
385.567
385.197
384.847
384.659
384.865
384.961
385.514
385.535
385.293
384.96
384.668
384.55
384.758
384.888
385.244
385.111
384.887
384.622
384.432
384.39
384.584
384.783
296.58
296.381
295.926
295.416
294.936
294.517
294.309
294.244
296.462
296.279
295.804
295.229
294.619
294.064
293.746
293.594
296.459
296.25
295.755
295.135
294.452
293.804
293.405
293.243
296.07
295.988
295.557
294.955
294.293
293.649
293.197
293.071
295.563
295.674
295.368
294.867
294.285
293.724
293.435
293.277
295.231
295.442
295.223
294.802
294.344
293.931
293.751
293.639
295.134
295.11
294.909
294.651
294.395
294.189
294.069
294.089
747.929
748.689
749.395
749.983
750.43
750.772
751.025
751.194
747.314
748.324
749.164
749.824
750.321
750.699
750.976
751.167
746.842
747.942
748.857
749.579
750.156
750.566
750.88
751.095
746.442
747.65
748.632
749.407
750.013
750.445
750.784
751.019
746.262
747.544
748.564
749.329
749.922
750.367
750.7
750.929
746.304
747.576
748.561
749.333
749.898
750.32
750.626
750.832
746.474
747.502
748.431
749.206
749.798
750.225
750.517
750.701
659.087
659.235
659.358
659.46
659.579
659.728
659.889
660.029
658.904
658.968
659.117
659.294
659.465
659.648
659.84
660.002
658.99
658.904
659.005
659.168
659.371
659.55
659.764
659.949
659.162
658.909
658.957
659.101
659.298
659.483
659.706
659.906
659.197
658.913
658.933
659.077
659.24
659.442
659.665
659.863
659.078
658.918
658.958
659.093
659.251
659.44
659.648
659.819
658.965
659.027
659.101
659.19
659.308
659.461
659.639
659.793
570.392
570.015
569.646
569.347
569.173
569.122
569.171
569.258
570.636
570.027
569.576
569.3
569.134
569.091
569.148
569.247
571.058
570.224
569.671
569.329
569.141
569.07
569.128
569.234
571.416
570.409
569.772
569.376
569.173
569.079
569.131
569.246
571.504
570.443
569.792
569.405
569.171
569.094
569.148
569.267
571.368
570.426
569.805
569.424
569.211
569.144
569.201
569.301
571.155
570.589
570.036
569.612
569.35
569.251
569.285
569.37
479.168
478.777
478.388
478.063
477.838
477.713
477.679
477.704
479.513
478.986
478.503
478.125
477.856
477.703
477.657
477.686
479.885
479.21
478.635
478.209
477.89
477.705
477.651
477.682
480.18
479.388
478.767
478.293
477.963
477.746
477.683
477.716
480.26
479.45
478.817
478.357
478.006
477.806
477.745
477.781
480.208
479.457
478.855
478.404
478.088
477.907
477.855
477.884
480.123
479.581
479.032
478.573
478.249
478.066
478.006
478.024
384.848
384.528
384.235
383.991
383.84
383.858
384.087
384.3
385.358
384.996
384.616
384.271
384.018
383.954
384.147
384.357
385.756
385.327
384.879
384.483
384.151
384.032
384.202
384.405
386.139
385.595
385.088
384.642
384.276
384.125
384.275
384.468
386.291
385.723
385.195
384.729
384.369
384.226
384.373
384.565
386.19
385.663
385.173
384.744
384.43
384.323
384.487
384.683
386.027
385.574
385.128
384.75
384.495
384.438
384.62
384.814
294.724
294.593
294.422
294.266
294.155
294.136
294.261
294.447
295.009
294.774
294.496
294.221
293.989
293.869
293.95
294.161
295.317
294.999
294.624
294.259
293.9
293.675
293.689
293.887
295.653
295.227
294.756
294.32
293.905
293.623
293.59
293.768
295.908
295.417
294.926
294.467
294.071
293.797
293.758
293.928
295.894
295.451
295.032
294.647
294.321
294.109
294.104
294.266
295.963
295.657
295.298
294.969
294.703
294.541
294.547
294.673
734.352
734.278
734.281
734.363
734.477
734.605
734.742
734.882
734.373
734.299
734.301
734.383
734.497
734.624
734.76
734.897
734.387
734.312
734.313
734.396
734.509
734.637
734.774
734.913
734.399
734.322
734.324
734.407
734.521
734.649
734.787
734.925
734.409
734.332
734.335
734.419
734.534
734.663
734.8
734.938
734.413
734.337
734.34
734.425
734.541
734.669
734.804
734.941
734.403
734.327
734.332
734.418
734.534
734.663
734.798
734.935
636.611
636.556
636.636
636.837
637.064
637.299
637.526
637.735
636.628
636.572
636.652
636.855
637.084
637.318
637.545
637.749
636.635
636.578
636.661
636.866
637.095
637.331
637.559
637.765
636.645
636.588
636.672
636.877
637.107
637.344
637.572
637.778
636.66
636.604
636.69
636.896
637.127
637.364
637.59
637.795
636.676
636.621
636.709
636.916
637.146
637.381
637.606
637.81
636.679
636.626
636.714
636.92
637.151
637.385
637.61
637.812
538.498
538.551
538.79
539.196
539.625
540.027
540.37
540.642
538.501
538.556
538.802
539.211
539.641
540.042
540.382
540.647
538.501
538.56
538.81
539.218
539.649
540.052
540.394
540.66
538.517
538.58
538.83
539.237
539.668
540.071
540.412
540.678
538.553
538.619
538.869
539.274
539.704
540.104
540.443
540.707
538.6
538.667
538.917
539.32
539.745
540.142
540.477
540.737
538.634
538.703
538.953
539.354
539.777
540.17
540.501
540.756
439.238
439.561
440.396
441.348
442.199
442.858
443.322
443.612
439.191
439.534
440.378
441.343
442.2
442.862
443.327
443.608
439.156
439.516
440.364
441.339
442.201
442.865
443.331
443.616
439.173
439.544
440.393
441.373
442.233
442.894
443.358
443.64
439.244
439.621
440.466
441.445
442.3
442.955
443.413
443.689
439.351
439.733
440.569
441.542
442.388
443.033
443.482
443.75
439.45
439.846
440.674
441.639
442.475
443.108
443.543
443.797
340.661
341.613
342.894
344.258
345.413
346.2
346.628
346.762
340.607
341.541
342.841
344.229
345.398
346.203
346.652
346.805
340.586
341.522
342.841
344.233
345.399
346.203
346.657
346.818
340.673
341.609
342.933
344.315
345.465
346.259
346.71
346.868
340.86
341.784
343.098
344.462
345.593
346.37
346.805
346.95
341.114
342.022
343.316
344.653
345.759
346.513
346.924
347.041
341.376
342.287
343.587
344.894
345.965
346.682
347.058
347.147
234.731
238.08
243.622
247.291
249.324
250.295
250.765
250.613
234.304
238.003
243.511
247.174
249.235
250.273
250.818
250.74
233.976
238.076
243.564
247.184
249.221
250.272
250.826
250.77
233.956
238.36
243.788
247.336
249.33
250.368
250.901
250.856
234.24
238.801
244.128
247.589
249.532
250.538
251.047
250.958
234.748
239.391
244.59
247.933
249.804
250.757
251.251
251.091
235.24
240.115
245.277
248.496
250.245
251.088
251.491
251.267
733.879
733.794
733.785
733.853
733.951
734.063
734.184
734.31
733.846
733.761
733.75
733.816
733.91
734.019
734.138
734.261
733.831
733.747
733.735
733.799
733.893
734
734.118
734.24
733.835
733.752
733.74
733.804
733.896
734.003
734.119
734.24
733.857
733.775
733.765
733.83
733.923
734.03
734.147
734.267
733.896
733.815
733.806
733.872
733.967
734.074
734.192
734.313
733.942
733.862
733.854
733.921
734.017
734.127
734.245
734.368
636.088
636.025
636.093
636.275
636.48
636.693
636.902
637.095
636.054
635.987
636.051
636.229
636.43
636.638
636.844
637.035
636.04
635.974
636.035
636.211
636.411
636.617
636.821
637.012
636.049
635.982
636.042
636.215
636.412
636.616
636.819
637.009
636.08
636.013
636.072
636.246
636.443
636.648
636.85
637.04
636.127
636.061
636.122
636.298
636.496
636.702
636.904
637.094
636.181
636.116
636.179
636.356
636.556
636.762
636.965
637.157
537.934
537.986
538.221
538.598
538.994
539.363
539.678
539.931
537.884
537.929
538.157
538.528
538.917
539.281
539.594
539.849
537.863
537.903
538.129
538.498
538.888
539.252
539.565
539.822
537.871
537.907
538.126
538.495
538.883
539.245
539.557
539.814
537.913
537.946
538.161
538.531
538.917
539.28
539.591
539.849
537.978
538.011
538.223
538.595
538.98
539.343
539.655
539.913
538.052
538.086
538.294
538.664
539.05
539.415
539.729
539.988
438.624
438.979
439.801
440.74
441.549
442.153
442.565
442.824
438.562
438.89
439.694
440.615
441.418
442.019
442.435
442.703
438.53
438.833
439.65
440.566
441.372
441.979
442.398
442.673
438.544
438.842
439.628
440.542
441.348
441.957
442.376
442.655
438.61
438.896
439.665
440.574
441.379
441.988
442.409
442.69
438.714
438.988
439.747
440.651
441.453
442.063
442.485
442.766
438.834
439.101
439.846
440.742
441.541
442.15
442.574
442.856
340.103
341.086
342.398
343.73
344.796
345.465
345.785
345.866
339.916
340.874
342.147
343.481
344.563
345.248
345.587
345.689
339.775
340.744
342.018
343.376
344.483
345.184
345.536
345.666
339.696
340.662
341.926
343.288
344.41
345.125
345.489
345.631
339.73
340.681
341.929
343.289
344.416
345.14
345.512
345.662
339.851
340.79
342.012
343.362
344.49
345.218
345.593
345.747
340.029
340.971
342.169
343.487
344.599
345.323
345.698
345.855
233.536
237.536
243.147
246.79
248.666
249.369
249.552
249.331
233.486
237.047
242.646
246.33
248.27
249.015
249.202
249.142
233.304
236.496
242.232
246.09
248.133
248.912
249.05
248.985
233.271
236.127
241.932
245.881
247.991
248.803
248.933
248.913
233.415
236.018
241.836
245.832
247.974
248.799
248.938
248.945
233.745
236.124
241.915
245.905
248.051
248.875
249.022
249.042
234.264
236.478
242.239
246.164
248.247
249.037
249.16
249.139
733.995
733.914
733.907
733.975
734.073
734.185
734.306
734.43
734.053
733.971
733.965
734.035
734.138
734.252
734.376
734.502
734.112
734.029
734.022
734.094
734.197
734.314
734.439
734.566
734.169
734.086
734.082
734.157
734.264
734.384
734.514
734.644
734.226
734.145
734.143
734.219
734.329
734.452
734.584
734.717
734.279
734.202
734.201
734.281
734.392
734.517
734.651
734.786
734.321
734.246
734.246
734.328
734.441
734.567
734.702
734.838
636.239
636.176
636.239
636.418
636.62
636.829
637.034
637.228
636.302
636.238
636.301
636.484
636.69
636.904
637.114
637.31
636.362
636.295
636.357
636.54
636.75
636.967
637.182
637.38
636.422
636.353
636.417
636.605
636.822
637.045
637.263
637.464
636.479
636.413
636.482
636.675
636.895
637.122
637.342
637.546
636.534
636.472
636.547
636.744
636.967
637.196
637.42
637.627
636.581
636.521
636.598
636.798
637.023
637.255
637.482
637.691
538.118
538.151
538.358
538.732
539.122
539.491
539.81
540.07
538.177
538.205
538.412
538.799
539.195
539.571
539.896
540.162
538.226
538.25
538.459
538.851
539.252
539.633
539.964
540.232
538.281
538.308
538.523
538.92
539.33
539.72
540.056
540.328
538.34
538.375
538.595
539.002
539.417
539.811
540.15
540.422
538.406
538.45
538.68
539.086
539.507
539.905
540.246
540.519
538.462
538.512
538.75
539.155
539.58
539.979
540.321
540.593
438.911
439.177
439.916
440.811
441.616
442.233
442.664
442.949
438.944
439.211
439.952
440.858
441.677
442.311
442.757
443.053
438.965
439.234
439.973
440.889
441.72
442.367
442.824
443.123
439.007
439.285
440.034
440.963
441.808
442.467
442.934
443.237
439.065
439.352
440.123
441.064
441.917
442.581
443.05
443.351
439.138
439.436
440.233
441.184
442.04
442.704
443.172
443.47
439.212
439.519
440.337
441.288
442.14
442.8
443.266
443.558
340.073
341.017
342.211
343.535
344.661
345.406
345.8
345.968
339.999
340.943
342.162
343.527
344.694
345.475
345.901
346.087
339.949
340.892
342.134
343.527
344.722
345.53
345.975
346.154
340.001
340.958
342.22
343.626
344.834
345.658
346.113
346.297
340.121
341.093
342.369
343.779
344.987
345.813
346.268
346.447
340.298
341.271
342.547
343.954
345.158
345.982
346.436
346.608
340.541
341.508
342.766
344.141
345.317
346.12
346.558
346.708
234.379
236.438
242.219
246.181
248.309
249.145
249.302
249.281
234.115
236.133
241.998
246.07
248.299
249.228
249.473
249.512
233.934
236.01
241.933
246.054
248.333
249.33
249.692
249.769
233.961
236.197
242.113
246.213
248.49
249.514
249.932
249.907
234.033
236.522
242.398
246.451
248.704
249.735
250.169
250.06
234.216
236.899
242.685
246.674
248.911
249.957
250.422
250.308
234.632
237.602
243.232
247.033
249.158
250.164
250.63
250.487
734.367
734.29
734.295
734.38
734.497
734.625
734.76
734.895
734.304
734.223
734.224
734.307
734.422
734.549
734.684
734.819
734.225
734.139
734.137
734.217
734.331
734.458
734.593
734.728
734.141
734.051
734.045
734.123
734.233
734.358
734.492
734.626
734.06
733.97
733.962
734.037
734.144
734.266
734.398
734.532
733.987
733.898
733.889
733.961
734.065
734.183
734.311
734.442
733.927
733.839
733.83
733.899
733.998
734.118
734.242
734.369
636.644
636.591
636.68
636.887
637.118
637.352
637.574
637.774
636.562
636.504
636.589
636.796
637.026
637.259
637.483
637.683
636.465
636.402
636.485
636.689
636.916
637.148
637.372
637.574
636.364
636.298
636.376
636.575
636.798
637.028
637.251
637.453
636.273
636.205
636.28
636.473
636.692
636.919
637.141
637.343
636.195
636.127
636.198
636.387
636.601
636.822
637.038
637.237
636.134
636.067
636.136
636.321
636.53
636.747
636.96
637.156
538.606
538.678
538.933
539.332
539.753
540.143
540.47
540.72
538.483
538.544
538.794
539.2
539.625
540.02
540.353
540.609
538.356
538.415
538.668
539.069
539.493
539.888
540.223
540.482
538.232
538.287
538.535
538.932
539.352
539.744
540.078
540.338
538.128
538.181
538.425
538.817
539.231
539.618
539.948
540.21
538.045
538.097
538.336
538.719
539.124
539.504
539.828
540.087
537.981
538.035
538.271
538.648
539.048
539.421
539.74
539.995
439.436
439.85
440.673
441.638
442.472
443.101
443.53
443.774
439.204
439.587
440.435
441.42
442.275
442.923
443.37
443.629
439.033
439.418
440.273
441.262
442.121
442.77
443.217
443.48
438.88
439.249
440.108
441.093
441.947
442.592
443.038
443.306
438.778
439.137
439.99
440.964
441.807
442.442
442.882
443.152
438.718
439.069
439.903
440.861
441.688
442.31
442.739
443.004
438.673
439.027
439.848
440.792
441.605
442.213
442.632
442.892
341.409
342.314
343.631
344.947
346.016
346.721
347.083
347.162
340.931
341.851
343.176
344.548
345.675
346.433
346.837
346.95
340.688
341.64
342.99
344.378
345.512
346.26
346.654
346.761
340.471
341.438
342.773
344.154
345.284
346.029
346.419
346.532
340.349
341.317
342.633
343.999
345.112
345.837
346.209
346.315
340.299
341.262
342.547
343.88
344.966
345.665
346.017
346.117
340.237
341.209
342.492
343.804
344.864
345.54
345.871
345.954
235.151
240.216
245.434
248.656
250.382
251.184
251.554
251.309
234.199
239.135
244.411
247.813
249.727
250.671
251.129
250.937
233.752
238.74
244.156
247.645
249.57
250.48
250.879
250.658
233.451
238.332
243.794
247.321
249.256
250.153
250.524
250.31
233.477
238.117
243.579
247.117
249.035
249.882
250.206
249.961
233.712
238.07
243.483
246.978
248.849
249.635
249.907
249.634
233.764
237.957
243.415
246.919
248.75
249.474
249.695
249.433
832.529
832.468
832.523
734.991
735.073
735.152
735.23
735.31
735.396
735.491
735.597
735.004
735.084
735.162
735.238
735.317
735.404
735.5
735.606
735.02
735.099
735.177
735.253
735.332
735.417
735.511
735.616
735.03
735.109
735.185
735.261
735.339
735.424
735.518
735.621
735.044
735.123
735.199
735.275
735.353
735.439
735.533
735.637
735.047
735.126
735.202
735.278
735.356
735.442
735.538
735.644
735.04
735.118
735.194
735.27
735.349
735.435
735.532
735.638
637.887
637.996
638.1
638.204
638.316
638.449
638.611
638.791
637.896
638
638.1
638.199
638.309
638.443
638.606
638.786
637.913
638.017
638.116
638.215
638.325
638.458
638.618
638.796
637.926
638.029
638.127
638.226
638.336
638.468
638.627
638.803
637.942
638.045
638.142
638.241
638.35
638.483
638.644
638.821
637.956
638.059
638.155
638.253
638.362
638.497
638.66
638.841
637.956
638.057
638.152
638.249
638.357
638.492
638.656
638.837
540.822
540.942
541.051
541.162
541.295
541.476
541.717
541.986
540.818
540.927
541.023
541.123
541.252
541.435
541.68
541.948
540.832
540.94
541.035
541.137
541.267
541.45
541.692
541.957
540.848
540.955
541.048
541.151
541.284
541.467
541.706
541.969
540.876
540.982
541.074
541.174
541.305
541.488
541.729
541.994
540.902
541.007
541.097
541.192
541.318
541.5
541.745
542.016
540.916
541.016
541.103
541.194
541.319
541.502
541.747
542.017
443.768
443.855
443.922
443.995
444.122
444.348
444.669
445.015
443.747
443.815
443.85
443.879
443.959
444.214
444.591
444.948
443.755
443.817
443.839
443.868
443.989
444.258
444.601
444.954
443.773
443.829
443.849
443.881
444.017
444.295
444.632
444.979
443.82
443.873
443.886
443.91
444.035
444.307
444.646
445.001
443.877
443.931
443.946
443.957
444.037
444.287
444.648
445.017
443.909
443.954
443.967
443.974
444.027
444.272
444.672
445.029
346.754
346.759
346.754
346.69
346.705
347.058
347.552
347.864
346.826
346.828
346.795
346.67
346.97
347.193
347.612
347.967
346.843
346.82
346.72
346.613
346.816
347.158
347.571
347.927
346.869
346.815
346.676
346.626
346.85
347.205
347.585
347.944
346.952
346.897
346.755
346.665
346.867
347.21
347.601
347.971
347.045
347.012
346.914
346.738
346.934
347.18
347.619
348.006
347.106
347.046
346.955
346.81
347.064
347.272
347.654
348.02
250.649
250.913
251.231
251.562
252.436
252.477
252.699
252.758
250.916
251.184
251.623
252.057
253.047
252.499
252.902
252.983
251.082
251.37
251.736
252.264
252.585
252.593
252.995
253.084
251.11
251.315
251.553
252.529
252.439
252.652
253.064
253.145
251.258
251.476
251.688
252.447
252.514
252.684
253.071
253.173
251.34
251.626
251.841
252.115
253.189
252.678
253.002
253.144
251.316
251.469
251.661
252.138
253.565
252.487
252.815
252.96
734.409
734.484
734.556
734.629
734.703
734.783
734.871
734.97
734.358
734.431
734.503
734.574
734.647
734.725
734.812
734.909
734.338
734.41
734.482
734.552
734.624
734.701
734.785
734.88
734.337
734.41
734.481
734.551
734.622
734.698
734.782
734.876
734.365
734.438
734.51
734.581
734.652
734.728
734.812
734.907
734.411
734.484
734.556
734.627
734.699
734.776
734.863
734.959
734.467
734.541
734.614
734.685
734.759
734.838
734.926
735.024
637.237
637.338
637.434
637.53
637.636
637.762
637.916
638.088
637.175
637.275
637.37
637.465
637.569
637.693
637.843
638.012
637.154
637.253
637.348
637.443
637.546
637.668
637.816
637.981
637.151
637.251
637.346
637.441
637.544
637.665
637.811
637.974
637.182
637.282
637.378
637.474
637.577
637.699
637.846
638.008
637.236
637.337
637.434
637.531
637.635
637.759
637.907
638.071
637.3
637.403
637.501
637.599
637.705
637.83
637.98
638.148
540.098
540.209
540.309
540.413
540.538
540.712
540.944
541.207
540.016
540.127
540.229
540.334
540.46
540.631
540.859
541.117
539.994
540.106
540.208
540.314
540.44
540.608
540.832
541.086
539.987
540.1
540.203
540.31
540.437
540.605
540.827
541.078
540.022
540.135
540.239
540.347
540.475
540.645
540.866
541.117
540.087
540.201
540.305
540.414
540.544
540.714
540.939
541.192
540.163
540.279
540.384
540.494
540.625
540.798
541.026
541.283
442.961
443.035
443.092
443.16
443.282
443.491
443.795
444.133
442.843
442.92
442.984
443.062
443.189
443.398
443.695
444.029
442.825
442.907
442.972
443.052
443.18
443.387
443.678
444.007
442.809
442.893
442.961
443.045
443.177
443.386
443.675
444
442.847
442.932
443.001
443.088
443.223
443.433
443.723
444.047
442.924
443.009
443.079
443.166
443.302
443.515
443.808
444.136
443.015
443.103
443.175
443.262
443.399
443.613
443.911
444.245
345.808
345.75
345.689
345.635
345.659
345.962
346.42
346.753
345.634
345.561
345.512
345.534
345.63
345.892
346.309
346.645
345.647
345.58
345.497
345.521
345.655
345.902
346.291
346.63
345.62
345.552
345.465
345.506
345.662
345.908
346.29
346.632
345.656
345.589
345.504
345.55
345.71
345.96
346.343
346.688
345.744
345.679
345.596
345.638
345.794
346.05
346.437
346.789
345.861
345.805
345.722
345.753
345.908
346.168
346.556
346.914
249.074
249.222
249.341
249.54
250.27
250.687
250.84
250.931
248.895
248.821
248.927
249.284
249.903
250.565
250.654
250.744
249.047
248.915
248.839
249.242
249.87
250.521
250.606
250.695
249.085
248.935
248.849
249.269
249.88
250.493
250.593
250.695
249.132
248.981
248.914
249.355
249.953
250.534
250.647
250.76
249.237
249.093
249.032
249.5
250.093
250.635
250.767
250.89
249.374
249.259
249.169
249.637
250.224
250.75
250.908
251.032
734.529
734.604
734.677
734.749
734.824
734.904
734.992
735.09
734.602
734.677
734.75
734.822
734.896
734.975
735.062
735.158
734.665
734.739
734.811
734.882
734.955
735.033
735.118
735.214
734.744
734.819
734.893
734.965
735.038
735.116
735.202
735.298
734.82
734.897
734.971
735.045
735.119
735.2
735.289
735.388