/*--------------------------------*- C++ -*----------------------------------*\
| =========                 |                                                 |
| \\      /  F ield         | OpenFOAM: The Open Source CFD Toolbox           |
|  \\    /   O peration     | Version:  plus.master.MPPICInterFoam            |
|   \\  /    A nd           | Web:      www.OpenFOAM.com                      |
|    \\/     M anipulation  |                                                 |
\*---------------------------------------------------------------------------*/
FoamFile
{
    version     2.0;
    format      ascii;
    class       surfaceScalarField;
    location    "7.2";
    object      phi;
}
// * * * * * * * * * * * * * * * * * * * * * * * * * * * * * * * * * * * * * //

dimensions      [0 3 -1 0 0 0 0];

internalField   nonuniform List<scalar> 
34319
(
2.11933e-07
1.48681e-07
6.95791e-06
-1.64643e-07
-1.10189e-07
1.65227e-07
2.52296e-07
8.12974e-06
-1.46618e-07
4.62531e-09
2.71475e-07
8.98751e-06
-1.99491e-07
-8.27671e-08
2.63061e-07
9.06277e-06
-2.08592e-07
-6.17129e-08
2.09061e-07
8.25564e-06
-1.36642e-07
-2.64408e-08
1.38941e-07
7.06013e-06
-9.54695e-08
5.06836e-08
6.01861e-06
3.29788e-08
-4.4657e-08
2.5145e-07
1.11277e-07
8.07252e-06
-1.68391e-07
1.90262e-07
2.85534e-07
9.84089e-06
-2.08426e-09
3.08679e-07
1.08143e-05
-1.98269e-07
1.82772e-07
1.0824e-05
-1.74558e-07
1.77538e-07
9.9892e-06
-8.96341e-08
1.43697e-07
8.19473e-06
2.88355e-08
6.57839e-06
1.69389e-09
2.87434e-07
-2.67452e-08
8.86532e-06
-2.2505e-07
7.30181e-08
-5.75486e-09
1.06867e-05
-1.33307e-07
3.84065e-08
1.16714e-05
-2.18034e-07
4.98164e-08
1.16702e-05
-1.65806e-07
-3.59108e-08
1.07398e-05
-1.2962e-07
-1.11277e-08
8.90692e-06
-1.83961e-08
6.9083e-06
-1.46848e-08
3.31052e-07
-1.07493e-07
8.71307e-06
-2.02427e-07
1.7569e-07
-3.31583e-07
1.06756e-05
-2.54701e-08
-4.37621e-07
1.17234e-05
-2.63203e-07
-3.87773e-07
1.17297e-05
-2.08736e-07
-2.28794e-07
1.06909e-05
-1.38482e-07
-2.07864e-07
8.83515e-06
-7.35407e-08
6.86074e-06
-1.87749e-08
2.61351e-07
-1.39479e-07
7.9909e-06
-1.47441e-07
2.2266e-07
-3.05726e-07
9.74964e-06
2.72364e-08
-3.62752e-07
1.06253e-05
-9.63375e-08
-3.37879e-07
1.06386e-05
-1.40432e-07
-2.62108e-07
9.75161e-06
-7.48117e-08
-1.87075e-07
8.01194e-06
-8.44155e-08
6.44454e-06
4.25782e-09
2.07309e-07
-1.06497e-07
6.83208e-06
-1.37271e-07
1.90334e-07
-1.90953e-07
7.98028e-06
3.42796e-08
-2.37492e-07
8.66815e-06
-8.0156e-08
-2.31335e-07
8.68938e-06
-6.15482e-08
-1.71505e-07
7.94381e-06
-2.88402e-08
-1.36095e-07
6.82457e-06
-7.26298e-08
5.81329e-06
2.60361e-08
1.12478e-07
5.77258e-06
-9.80338e-08
-3.01903e-08
9.43695e-08
6.35066e-06
-7.56715e-08
5.77612e-08
6.70488e-06
-9.78549e-08
2.69259e-08
6.69972e-06
-9.791e-08
2.79918e-08
6.33928e-06
-8.10682e-08
3.55433e-08
5.76583e-06
-6.85096e-08
5.12079e-06
5.48595e-08
-4.13419e-08
-1.40656e-07
-1.82069e-07
6.86615e-06
1.79662e-07
2.3477e-07
-6.22668e-08
-2.10924e-07
7.89359e-06
3.68909e-07
4.84499e-08
-1.69544e-07
8.61872e-06
4.27405e-07
1.95596e-07
-1.65818e-07
8.65087e-06
4.30676e-07
3.34214e-07
-2.30897e-07
7.94979e-06
3.983e-07
3.79717e-07
-2.27175e-07
6.95287e-06
2.88843e-07
-1.67914e-07
6.01374e-06
3.53361e-07
1.9903e-07
-2.02549e-07
-8.9949e-08
7.84998e-06
3.33089e-07
-7.43508e-08
-5.2027e-08
9.55383e-06
8.58942e-09
6.67429e-09
1.05547e-05
1.13527e-07
8.26248e-09
1.05448e-05
3.36198e-07
-2.18288e-08
9.55791e-06
4.84236e-07
-9.12729e-08
7.91071e-06
-8.88023e-08
6.5368e-06
4.46991e-07
-2.14338e-07
4.65164e-08
8.52626e-06
4.16814e-07
-9.59727e-08
1.45293e-08
1.05019e-05
-1.88289e-08
4.68987e-09
1.15969e-05
8.5404e-08
8.31026e-09
1.15658e-05
2.77673e-07
1.6841e-08
1.05088e-05
5.20112e-07
1.61586e-08
8.55707e-06
2.66484e-09
6.84102e-06
4.95932e-07
-2.48789e-07
1.3809e-07
8.44415e-06
4.25992e-07
-9.63534e-08
7.26735e-08
1.0465e-05
8.24254e-09
5.80587e-08
1.15652e-05
1.33232e-07
6.23532e-08
1.1551e-05
2.85598e-07
6.33403e-08
1.04923e-05
5.15241e-07
1.1112e-07
8.51064e-06
8.99234e-08
6.79832e-06
4.90301e-07
-2.31476e-07
2.30893e-07
7.7605e-06
3.69253e-07
-5.50859e-08
2.31469e-07
9.41459e-06
3.99634e-08
2.27219e-07
1.0361e-05
1.62052e-07
2.26695e-07
1.03526e-05
3.45871e-07
2.49009e-07
9.38236e-06
4.71844e-07
2.21432e-07
7.77573e-06
1.59977e-07
6.40881e-06
4.37519e-07
-1.6122e-07
2.79421e-07
6.7132e-06
2.31557e-07
-5.05844e-08
3.73103e-07
7.72763e-06
6.20772e-08
4.2695e-07
8.35608e-06
2.00757e-07
4.29385e-07
8.34809e-06
3.25418e-07
3.76509e-07
7.69149e-06
3.70255e-07
2.70182e-07
6.73092e-06
1.85219e-07
5.80824e-06
3.50068e-07
-1.01568e-07
5.74183e-06
1.33268e-07
2.78279e-07
-2.32106e-08
6.28665e-06
3.58748e-07
8.00948e-08
6.61705e-06
4.11698e-07
1.86753e-07
6.61282e-06
4.09694e-07
2.65552e-07
6.28529e-06
3.5151e-07
2.89474e-07
5.75299e-06
2.59005e-07
5.13852e-06
2.74285e-07
1.82838e-07
-2.25177e-07
-2.82961e-07
6.78756e-06
2.57278e-07
3.29366e-07
-9.73144e-08
-3.93618e-07
7.65443e-06
5.05482e-07
8.54752e-08
-3.97509e-07
8.22799e-06
6.05554e-07
2.98827e-07
-4.13475e-07
8.23541e-06
6.15599e-07
4.53772e-07
-4.36756e-07
7.70438e-06
5.27456e-07
4.70931e-07
-3.24197e-07
6.89352e-06
3.66509e-07
-2.18559e-07
6.03989e-06
4.15164e-07
2.48231e-07
-3.69688e-07
-1.23264e-07
7.6122e-06
4.48366e-07
-1.42566e-07
-8.75798e-08
9.02094e-06
4.77197e-08
-2.52834e-08
9.99231e-06
2.5778e-07
-4.2861e-08
9.96436e-06
5.76691e-07
-1.27507e-07
8.93013e-06
6.31325e-07
-1.6737e-07
7.69963e-06
-1.20718e-07
6.53182e-06
5.38772e-07
-4.05431e-07
7.50904e-08
8.17631e-06
5.57017e-07
-1.41213e-07
1.11669e-07
1.00384e-05
-1.34976e-08
1.4103e-07
1.13037e-05
1.57865e-07
1.23264e-07
1.12287e-05
5.50712e-07
8.21127e-08
9.90683e-06
7.13229e-07
3.85049e-08
8.18895e-06
1.27184e-08
6.8122e-06
6.08661e-07
-4.20265e-07
2.09952e-07
8.1726e-06
5.56828e-07
-1.33873e-07
2.31909e-07
1.00586e-05
-1.57215e-08
2.60574e-07
1.13279e-05
1.53089e-07
2.64736e-07
1.12411e-05
5.3354e-07
2.68639e-07
9.92576e-06
6.94735e-07
2.1625e-07
8.17179e-06
1.34466e-07
6.77309e-06
5.98096e-07
-3.57719e-07
3.32081e-07
7.53813e-06
4.58227e-07
-1.00803e-07
4.28734e-07
8.96085e-06
3.91501e-08
4.6268e-07
1.00193e-05
2.3061e-07
4.85226e-07
9.9413e-06
5.28978e-07
4.63326e-07
8.88978e-06
5.92853e-07
3.21283e-07
7.60689e-06
2.11151e-07
6.40644e-06
5.1862e-07
-2.33543e-07
3.68583e-07
6.61497e-06
2.95514e-07
-8.28887e-08
5.04219e-07
7.50182e-06
8.43928e-08
5.9016e-07
8.06195e-06
2.83709e-07
5.91617e-07
8.04277e-06
4.29867e-07
5.00824e-07
7.5079e-06
4.52622e-07
3.47154e-07
6.68229e-06
2.32141e-07
5.83142e-06
4.08543e-07
-1.39163e-07
5.72919e-06
1.77347e-07
3.42928e-07
-3.85955e-08
6.24316e-06
4.4735e-07
1.00106e-07
6.55248e-06
5.16358e-07
2.37413e-07
6.55635e-06
5.10914e-07
3.2754e-07
6.26316e-06
4.32707e-07
3.43889e-07
5.76795e-06
3.15861e-07
5.17562e-06
3.15027e-07
2.24133e-07
-6.45606e-08
-1.79761e-07
6.71048e-06
1.11939e-07
2.09534e-07
2.9289e-08
-2.64947e-07
7.52594e-06
2.9985e-07
1.46884e-07
-3.02608e-07
8.05931e-06
3.53552e-07
2.6452e-07
-3.05249e-07
8.08228e-06
3.40834e-07
3.03224e-07
-2.41188e-07
7.64656e-06
2.60543e-07
2.91348e-07
-1.48993e-07
6.8794e-06
1.75116e-07
-1.15284e-07
6.04206e-06
2.71178e-07
1.33373e-07
-1.59548e-07
-8.24614e-08
7.46755e-06
2.07154e-07
8.94119e-10
-7.02352e-08
8.6657e-06
1.47579e-07
-2.20567e-08
9.5653e-06
3.24291e-07
-7.35659e-08
9.55607e-06
4.18039e-07
-1.50939e-07
8.74609e-06
3.81457e-07
-1.07349e-07
7.69461e-06
-7.02794e-08
6.53198e-06
3.36179e-07
-2.03956e-07
4.10428e-08
7.98035e-06
2.76309e-07
-5.97112e-09
1.03746e-07
9.66639e-06
9.77371e-08
1.19067e-07
1.10591e-05
2.50873e-07
1.19806e-07
1.08823e-05
4.96327e-07
2.89642e-08
9.48163e-06
4.53745e-07
1.72197e-09
8.1225e-06
-2.23306e-09
6.8134e-06
3.84364e-07
-1.88319e-07
1.20733e-07
8.00672e-06
2.74376e-07
3.69875e-08
1.79904e-07
9.75702e-06
1.14201e-07
2.51026e-07
1.11189e-05
2.15464e-07
2.60505e-07
1.09994e-05
4.90339e-07
2.13823e-07
9.46598e-06
4.45995e-07
1.06126e-07
8.11175e-06
6.16095e-08
6.77492e-06
3.80304e-07
-1.50572e-07
1.97615e-07
7.39603e-06
2.15764e-07
9.95844e-09
2.67162e-07
8.71261e-06
1.22964e-07
3.15106e-07
9.84242e-06
2.6683e-07
3.16234e-07
9.74203e-06
3.86992e-07
2.39153e-07
8.74435e-06
3.65849e-07
1.32487e-07
7.60184e-06
1.00775e-07
6.40466e-06
3.2868e-07
-7.25401e-08
2.2656e-07
6.52464e-06
1.34107e-07
3.09746e-08
2.88273e-07
7.37717e-06
1.4186e-07
3.3966e-07
7.92673e-06
2.53048e-07
3.21891e-07
7.92614e-06
2.94134e-07
2.40841e-07
7.46517e-06
2.87762e-07
1.55574e-07
6.66574e-06
1.19841e-07
5.82971e-06
2.70671e-07
-4.02882e-08
5.67848e-06
8.39127e-08
2.33668e-07
3.23722e-08
6.17675e-06
2.82244e-07
1.27647e-07
6.48084e-06
3.16043e-07
2.09107e-07
6.49783e-06
2.98921e-07
2.47307e-07
6.22841e-06
2.37378e-07
2.44159e-07
5.75471e-06
1.72146e-07
5.17573e-06
2.26163e-07
1.37953e-07
6.28186e-08
-1.05512e-07
6.58367e-06
3.08838e-08
1.38768e-07
1.45261e-07
-1.12086e-07
7.41311e-06
1.42416e-07
2.04526e-07
-1.23969e-07
7.99238e-06
1.31513e-07
2.19553e-07
-6.90972e-08
8.05159e-06
8.484e-08
1.71671e-07
3.40243e-08
7.6315e-06
2.90764e-08
1.67193e-07
1.7502e-08
6.82866e-06
3.77044e-08
-4.50964e-08
5.97524e-06
2.04967e-07
7.42278e-08
7.71041e-08
-7.46422e-08
7.32733e-06
3.21413e-08
1.82297e-07
-1.30907e-07
8.57911e-06
2.97351e-07
-2.25199e-07
9.55156e-06
3.40978e-07
-2.09486e-07
9.65281e-06
2.01935e-07
-1.02108e-07
9.02121e-06
1.74963e-07
-8.40365e-09
7.74753e-06
-2.90833e-08
6.48037e-06
2.10487e-07
4.56937e-08
-2.43768e-08
7.8277e-06
5.67805e-08
1.42622e-07
-2.92797e-08
9.4678e-06
4.01463e-07
-4.471e-08
1.06194e-05
5.61367e-07
-4.78904e-08
1.05606e-05
3.67684e-07
-3.87775e-08
9.61194e-06
2.13008e-07
-3.31169e-08
8.30199e-06
-1.08858e-08
6.78151e-06
2.26772e-07
5.18406e-08
3.2562e-08
7.83023e-06
6.76314e-08
1.81808e-07
6.66823e-08
9.5309e-06
4.28812e-07
1.64654e-07
1.06625e-05
6.27175e-07
8.30923e-08
1.06699e-05
3.66254e-07
-3.84462e-09
9.69195e-06
2.1203e-07
-4.82867e-08
8.28119e-06
7.40215e-09
6.74092e-06
2.27861e-07
2.76554e-08
1.05357e-07
7.22848e-06
6.69185e-08
1.17638e-07
1.0072e-07
8.58815e-06
3.22743e-07
1.27607e-07
9.67437e-06
3.82143e-07
6.06115e-08
9.70493e-06
2.35712e-07
-5.80278e-08
8.9449e-06
1.94626e-07
-3.33132e-08
7.62815e-06
3.88064e-08
6.34851e-06
2.19439e-07
3.60125e-08
1.63084e-07
6.37664e-06
5.40925e-08
1.33433e-07
1.55877e-07
7.22432e-06
2.24748e-07
1.58759e-07
7.80403e-06
2.47075e-07
1.05165e-07
7.8591e-06
1.91428e-07
3.33777e-08
7.42944e-06
1.8386e-07
3.7029e-08
6.60308e-06
8.16039e-08
5.75872e-06
2.12058e-07
5.48347e-09
5.55868e-06
6.09855e-08
2.16358e-07
7.8024e-08
6.04447e-06
2.15669e-07
1.55129e-07
6.34958e-06
2.12727e-07
2.00782e-07
6.38008e-06
1.77127e-07
2.01001e-07
6.12905e-06
1.32548e-07
1.9993e-07
5.67052e-06
1.22381e-07
5.10596e-06
2.10392e-07
1.40872e-07
-2.93921e-08
-1.9162e-07
1.75249e-07
2.62408e-07
6.3672e-06
1.00628e-07
-1.96549e-07
2.64989e-07
7.21472e-06
2.19258e-07
-1.97846e-07
2.41766e-07
7.82976e-06
2.41851e-07
-8.15684e-08
1.79063e-07
7.93162e-06
2.33902e-07
-3.55686e-08
1.60953e-07
7.51412e-06
2.83539e-07
-8.027e-08
1.75975e-07
6.68335e-06
-1.29048e-07
3.68024e-07
2.01441e-07
5.81841e-06
-1.8355e-08
-1.24289e-07
1.74986e-07
7.10345e-06
1.23261e-07
-2.20124e-07
8.46137e-06
3.10509e-07
-3.37275e-07
9.50392e-06
3.97708e-07
-2.35632e-07
9.71985e-06
3.08657e-07
-6.65363e-08
9.1413e-06
3.22599e-07
-4.53899e-08
7.69868e-06
-5.68281e-08
3.86347e-07
6.34429e-06
-1.24468e-08
-4.32997e-08
1.75552e-07
7.58364e-06
1.48404e-07
-1.09598e-07
9.19644e-06
4.41447e-07
-1.12233e-07
1.01009e-05
6.58157e-07
-1.5889e-07
1.02671e-05
4.47752e-07
-6.70082e-08
9.82285e-06
3.30874e-07
-2.42925e-08
8.39763e-06
-2.17669e-09
3.92029e-07
6.66573e-06
-1.74148e-08
7.08388e-08
1.85667e-07
7.54787e-06
1.56884e-07
7.74203e-08
9.1694e-06
4.74319e-07
1.19053e-07
1.01134e-05
7.2371e-07
1.65256e-08
1.0245e-05
4.64931e-07
-2.17634e-08
9.90548e-06
3.46571e-07
4.83925e-09
8.37032e-06
5.93747e-08
3.99553e-07
6.62635e-06
-6.10783e-08
1.9803e-07
1.99737e-07
6.96247e-06
8.76224e-08
1.85173e-07
8.33188e-06
3.63952e-07
2.00133e-07
9.31712e-06
4.9561e-07
5.74429e-08
9.53206e-06
3.69398e-07
5.22703e-08
8.99687e-06
3.5248e-07
9.15689e-08
7.55831e-06
1.48281e-07
4.00359e-07
6.21159e-06
-5.29989e-08
2.98452e-07
1.86917e-07
6.14215e-06
9.16907e-08
2.95852e-07
6.96883e-06
2.53098e-07
2.87189e-07
7.55544e-06
2.70619e-07
2.19556e-07
7.6795e-06
2.74183e-07
1.94779e-07
7.2835e-06
3.12694e-07
2.01371e-07
6.45472e-06
2.3341e-07
3.80181e-07
5.60588e-06
-8.57595e-08
1.97672e-07
3.91341e-07
5.35389e-06
3.06306e-08
3.94023e-07
5.82984e-06
1.43959e-07
3.85795e-07
6.13762e-06
2.13872e-07
3.49269e-07
6.18047e-06
2.62913e-07
3.28176e-07
5.94661e-06
3.09252e-07
3.21989e-07
5.50345e-06
3.65337e-07
3.31338e-07
4.9517e-06
6.33115e-08
3.10382e-08
3.25843e-06
-3.74485e-08
8.90359e-08
2.7978e-08
3.49908e-06
-3.8342e-08
1.03592e-07
2.98595e-08
3.6438e-06
-3.94938e-08
1.06372e-07
3.20586e-08
3.71313e-06
-4.11051e-08
9.69954e-08
3.52804e-08
3.7205e-06
-4.29894e-08
7.60413e-08
3.90616e-08
3.66637e-06
-4.47532e-08
4.28971e-08
4.3257e-08
3.51813e-06
-4.58478e-08
4.69497e-08
3.08884e-06
-5.0614e-08
5.66728e-08
1.44472e-08
4.34682e-06
9.70467e-08
1.3201e-08
4.419e-06
1.1918e-07
1.81379e-08
4.41822e-06
1.23992e-07
2.25687e-08
4.35736e-06
1.13762e-07
2.73084e-08
4.24637e-06
8.94298e-08
3.27074e-08
4.08347e-06
5.21234e-08
3.842e-08
3.83038e-06
4.38037e-08
3.27852e-06
5.50204e-08
-8.68134e-09
5.04838e-06
1.02391e-07
-2.43539e-09
4.9945e-06
1.29922e-07
4.47516e-09
4.88287e-06
1.36048e-07
1.06011e-08
4.72414e-06
1.2631e-07
1.74024e-08
4.52624e-06
1.00312e-07
2.47107e-08
4.28518e-06
5.88071e-08
3.25974e-08
3.95891e-06
4.11875e-08
3.32307e-06
5.26962e-08
-3.20055e-08
5.19214e-06
1.00424e-07
-1.7584e-08
5.09271e-06
1.27804e-07
-9.06105e-09
4.93953e-06
1.35684e-07
-1.48234e-09
4.74326e-06
1.25642e-07
6.30937e-09
4.51143e-06
9.95652e-08
1.47465e-08
4.2402e-06
5.8328e-08
2.42222e-08
3.88698e-06
3.55321e-08
3.22557e-06
5.8011e-08
-4.27826e-08
4.75671e-06
9.51793e-08
-2.73665e-08
4.70127e-06
1.16136e-07
-1.97864e-08
4.58351e-06
1.2077e-07
-1.25575e-08
4.41662e-06
1.10209e-07
-5.20285e-09
4.2099e-06
8.64813e-08
2.66612e-09
3.96103e-06
5.02679e-08
1.1749e-08
3.63049e-06
2.33088e-08
3.00507e-06
6.1476e-08
-4.65704e-08
3.88699e-06
8.78218e-08
-3.50786e-08
3.93566e-06
1.0128e-07
-2.86151e-08
3.90927e-06
1.01964e-07
-2.25516e-08
3.82261e-06
9.13067e-08
-1.66322e-08
3.6872e-06
7.08006e-08
-1.04246e-08
3.50315e-06
4.07254e-08
-3.16876e-09
3.23658e-06
6.44762e-09
2.69904e-06
6.94798e-08
2.79086e-06
-4.4098e-08
8.37715e-08
2.97035e-06
-4.06677e-08
9.07765e-08
3.05911e-06
-3.66495e-08
8.96534e-08
3.07643e-06
-3.21721e-08
7.96854e-08
3.03593e-06
-2.73349e-08
6.14259e-08
2.93993e-06
-2.21642e-08
3.55376e-08
2.76121e-06
-1.62525e-08
2.34169e-06
-7.92366e-09
3.58874e-07
4.37549e-08
3.27538e-06
-6.60174e-08
3.48922e-07
3.63646e-08
3.52986e-06
-5.70625e-08
3.24447e-07
3.53224e-08
3.68586e-06
-5.27144e-08
2.86434e-07
3.74723e-08
3.76501e-06
-5.12011e-08
2.3476e-07
4.15983e-08
3.78148e-06
-5.08401e-08
1.70176e-07
4.62959e-08
3.73617e-06
-5.1397e-08
9.13965e-08
5.13753e-08
3.59789e-06
-5.21741e-08
5.55001e-08
3.18154e-06
-5.67997e-08
4.41252e-07
3.76817e-08
4.35882e-06
4.16372e-07
2.89599e-08
4.45148e-06
3.77229e-07
2.71374e-08
4.4655e-06
3.26297e-07
2.91133e-08
4.41658e-06
2.64006e-07
3.40382e-08
4.31628e-06
1.89892e-07
4.02122e-08
4.16384e-06
1.02877e-07
4.67907e-08
3.92225e-06
5.28325e-08
3.38422e-06
4.93392e-07
3.27833e-08
5.05577e-06
4.64257e-07
2.49979e-08
5.02753e-06
4.18078e-07
2.25121e-08
4.93358e-06
3.58998e-07
2.3934e-08
4.78847e-06
2.8874e-07
2.85794e-08
4.60222e-06
2.06865e-07
3.51317e-08
4.37246e-06
1.1171e-07
4.2873e-08
4.05835e-06
5.12045e-08
3.43654e-06
4.89716e-07
2.47015e-08
5.20066e-06
4.61619e-07
1.86118e-08
5.12709e-06
4.15716e-07
1.62021e-08
4.99166e-06
3.56532e-07
1.74032e-08
4.80897e-06
2.86091e-07
2.15355e-08
4.58905e-06
2.04501e-07
2.78905e-08
4.32931e-06
1.10036e-07
3.60002e-08
3.98841e-06
4.58101e-08
3.34106e-06
4.3616e-07
1.21711e-08
4.77062e-06
4.11776e-07
7.64145e-09
4.73669e-06
3.7161e-07
5.62605e-09
4.63422e-06
3.19277e-07
6.55426e-09
4.47974e-06
2.56374e-07
9.9943e-09
4.28434e-06
1.83242e-07
1.55324e-08
4.04667e-06
9.85998e-08
2.28934e-08
3.72828e-06
3.26352e-08
3.11687e-06
3.5389e-07
-1.08154e-08
3.90621e-06
3.3846e-07
-1.14135e-08
3.97016e-06
3.08861e-07
-1.1215e-08
3.95569e-06
2.67763e-07
-9.33588e-09
3.87965e-06
2.16415e-07
-5.81986e-09
3.75448e-06
1.55243e-07
-8.67163e-10
3.58084e-06
8.40383e-08
5.13998e-09
3.3258e-06
1.3526e-08
2.80204e-06
2.84531e-07
2.81145e-06
-4.15397e-08
2.79451e-07
3.00119e-06
-3.72194e-08
2.60597e-07
3.09908e-06
-3.23239e-08
2.29761e-07
3.12516e-06
-2.7096e-08
1.8803e-07
3.09349e-06
-2.17041e-08
1.36511e-07
3.00673e-06
-1.61642e-08
7.44682e-08
2.83848e-06
-1.01159e-08
2.432e-06
-2.31531e-09
4.13832e-07
4.40157e-08
3.30398e-06
-7.10596e-08
3.95619e-07
3.87553e-08
3.57045e-06
-6.09994e-08
3.63451e-07
3.8926e-08
3.73604e-06
-5.67612e-08
3.16757e-07
4.25675e-08
3.82432e-06
-5.50911e-08
2.55429e-07
4.76076e-08
3.84987e-06
-5.45343e-08
1.80475e-07
5.2833e-08
3.8136e-06
-5.53658e-08
9.29123e-08
5.79436e-08
3.68436e-06
-5.69569e-08
6.11735e-08
3.27408e-06
-6.09438e-08
5.125e-07
4.06107e-08
4.38857e-06
4.71768e-07
3.32092e-08
4.49783e-06
4.20987e-07
3.16022e-08
4.52365e-06
3.60058e-07
3.48443e-08
4.4852e-06
2.87714e-07
4.09693e-08
4.39534e-06
2.02975e-07
4.79375e-08
4.25344e-06
1.05862e-07
5.49073e-08
4.02232e-06
6.05415e-08
3.49073e-06
5.77615e-07
4.2874e-08
5.08454e-06
5.28182e-07
3.28532e-08
5.07726e-06
4.66823e-07
2.96246e-08
4.99693e-06
3.9546e-07
3.15312e-08
4.86323e-06
3.13485e-07
3.69697e-08
4.68821e-06
2.20068e-07
4.41863e-08
4.46975e-06
1.14479e-07
5.22413e-08
4.16674e-06
6.01155e-08
3.55154e-06
5.71143e-07
3.96905e-08
5.23064e-06
5.23968e-07
2.89851e-08
5.17812e-06
4.63368e-07
2.54843e-08
5.05639e-06
3.91885e-07
2.66569e-08
4.88535e-06
3.09872e-07
3.10808e-08
4.67695e-06
2.16812e-07
3.77223e-08
4.42887e-06
1.12305e-07
4.58539e-08
4.0994e-06
5.49287e-08
3.45869e-06
5.00485e-07
2.53844e-08
4.80321e-06
4.63826e-07
1.62078e-08
4.78619e-06
4.13306e-07
1.41166e-08
4.69603e-06
3.51368e-07
1.53455e-08
4.55287e-06
2.78692e-07
1.92337e-08
4.36898e-06
1.95119e-07
2.50984e-08
4.14299e-06
1.00813e-07
3.25331e-08
3.836e-06
4.16633e-08
3.23099e-06
4.03969e-07
-2.56345e-09
3.93896e-06
3.80877e-07
-5.52942e-09
4.01517e-06
3.44327e-07
-4.81786e-09
4.01116e-06
2.95941e-07
-2.25188e-09
3.94569e-06
2.36204e-07
1.99227e-09
3.83152e-06
1.65685e-07
7.38587e-09
3.6691e-06
8.53852e-08
1.38008e-08
3.425e-06
2.18527e-08
2.907e-06
3.24576e-07
2.84001e-06
-4.03676e-08
3.15296e-07
3.03908e-06
-3.40277e-08
2.91162e-07
3.14598e-06
-2.75657e-08
2.53824e-07
3.18157e-06
-2.12112e-08
2.04445e-07
3.15996e-06
-1.50924e-08
1.44177e-07
3.08348e-06
-9.15668e-09
7.41834e-08
2.92525e-06
-3.12784e-09
2.52348e-06
4.43014e-09
2.87938e-07
4.05634e-08
3.30832e-06
-6.16984e-08
2.93379e-07
4.15582e-08
3.58064e-06
-5.71895e-08
2.85476e-07
4.46482e-08
3.75461e-06
-5.52898e-08
2.61864e-07
4.92907e-08
3.8534e-06
-5.48888e-08
2.21411e-07
5.45474e-08
3.89088e-06
-5.53096e-08
1.64614e-07
5.9867e-08
3.86717e-06
-5.68652e-08
9.24818e-08
6.46939e-08
3.75108e-06
-5.94525e-08
6.70629e-08
3.36144e-06
-6.20513e-08
3.41082e-07
3.05977e-08
4.39352e-06
3.384e-07
3.23082e-08
4.50971e-06
3.2513e-07
3.58033e-08
4.54571e-06
2.9693e-07
4.22164e-08
4.52034e-06
2.5151e-07
4.97513e-08
4.44546e-06
1.88105e-07
5.73907e-08
4.31924e-06
1.06477e-07
6.44605e-08
4.10397e-06
6.92528e-08
3.59501e-06
3.83717e-07
2.54092e-08
5.09031e-06
3.76085e-07
2.64942e-08
5.09063e-06
3.57461e-07
2.99864e-08
5.02139e-06
3.24045e-07
3.64957e-08
4.90228e-06
2.73167e-07
4.45117e-08
4.74419e-06
2.03596e-07
5.30978e-08
4.54351e-06
1.15073e-07
6.16402e-08
4.2581e-06
6.88367e-08
3.66707e-06
3.81371e-07
1.84642e-08
5.23651e-06
3.75172e-07
1.88682e-08
5.19197e-06
3.56606e-07
2.29002e-08
5.08194e-06
3.22998e-07
2.90258e-08
4.9263e-06
2.72041e-07
3.65187e-08
4.7358e-06
2.02634e-07
4.48333e-08
4.50643e-06
1.1474e-07
5.3614e-08
4.19538e-06
6.20949e-08
3.58014e-06
3.38042e-07
4.39224e-09
4.80815e-06
3.37967e-07
5.68579e-09
4.79952e-06
3.24427e-07
1.0748e-08
4.72156e-06
2.95533e-07
1.67007e-08
4.59391e-06
2.49866e-07
2.3484e-08
4.42765e-06
1.86894e-07
3.09064e-08
4.21987e-06
1.06555e-07
3.8896e-08
3.93092e-06
4.73533e-08
3.3521e-06
2.8559e-07
-1.4597e-08
3.94326e-06
2.89301e-07
-1.07939e-08
4.02797e-06
2.80224e-07
-4.95009e-09
4.03578e-06
2.56536e-07
1.24401e-09
3.98473e-06
2.1763e-07
7.31678e-09
3.88655e-06
1.63495e-07
1.36458e-08
3.74041e-06
9.41891e-08
2.01938e-08
3.51288e-06
2.71451e-08
3.02112e-06
2.44663e-07
2.84452e-06
-3.75416e-08
2.50659e-07
3.05088e-06
-2.86708e-08
2.44123e-07
3.16798e-06
-2.06288e-08
2.24383e-07
3.21575e-06
-1.33385e-08
1.9102e-07
3.20734e-06
-6.76172e-09
1.44738e-07
3.14416e-06
-8.62961e-10
8.46743e-08
3.00011e-06
5.22847e-09
2.62336e-06
1.17676e-08
2.58154e-07
4.20248e-08
3.27437e-06
-6.12102e-08
3.0345e-07
4.64701e-08
3.54916e-06
-6.03425e-08
3.32861e-07
4.99539e-08
3.73457e-06
-5.95472e-08
3.37794e-07
5.41213e-08
3.85364e-06
-5.96221e-08
3.09962e-07
5.88036e-08
3.91976e-06
-6.02014e-08
2.43486e-07
6.35946e-08
3.93146e-06
-6.15073e-08
1.42445e-07
6.80221e-08
3.84794e-06
-6.3876e-08
7.066e-08
3.49959e-06
-6.64223e-08
2.69909e-07
2.7633e-08
4.34842e-06
3.25114e-07
3.51259e-08
4.46561e-06
3.64324e-07
4.18341e-08
4.51434e-06
3.76785e-07
4.94203e-08
4.51236e-06
3.53276e-07
5.70513e-08
4.47062e-06
2.86216e-07
6.44149e-08
4.38551e-06
1.76122e-07
7.10607e-08
4.21098e-06
7.59794e-08
3.76565e-06
2.85626e-07
1.85611e-08
5.04044e-06
3.44007e-07
2.83911e-08
5.03878e-06
3.87205e-07
3.75558e-08
4.98231e-06
4.03526e-07
4.70334e-08
4.88831e-06
3.82456e-07
5.62119e-08
4.76629e-06
3.14649e-07
6.49694e-08
4.61085e-06
1.98406e-07
7.32122e-08
4.37218e-06
7.99629e-08
3.86116e-06
2.88622e-07
1.07195e-08
5.1836e-06
3.48142e-07
2.29091e-08
5.13772e-06
3.92235e-07
3.36947e-08
5.04153e-06
4.0963e-07
4.36239e-08
4.91232e-06
3.89444e-07
5.28079e-08
4.7594e-06
3.22163e-07
6.15525e-08
4.57704e-06
2.05319e-07
7.01499e-08
4.31502e-06
7.73573e-08
3.78778e-06
2.80549e-07
2.87838e-09
4.75487e-06
3.37876e-07
1.57053e-08
4.74934e-06
3.79629e-07
2.63017e-08
4.68717e-06
3.95273e-07
3.53898e-08
4.58652e-06
3.74633e-07
4.34495e-08
4.45755e-06
3.09026e-07
5.11156e-08
4.29562e-06
1.97027e-07
5.89382e-08
4.05364e-06
6.56833e-08
3.56084e-06
2.682e-07
-7.77421e-09
3.89767e-06
3.19145e-07
3.15807e-09
3.9895e-06
3.54787e-07
1.2308e-08
4.01413e-06
3.65443e-07
2.00193e-08
3.98934e-06
3.42374e-07
2.65984e-08
3.92628e-06
2.78639e-07
3.26657e-08
3.82224e-06
1.75562e-07
3.87607e-08
3.63584e-06
4.40096e-08
3.21831e-06
2.59199e-07
2.81538e-06
-2.76022e-08
3.0113e-07
3.0294e-06
-1.74009e-08
3.28255e-07
3.16201e-06
-8.94647e-09
3.32455e-07
3.2334e-06
-1.99023e-09
3.05604e-07
3.25611e-06
4.55929e-09
2.42787e-07
3.22937e-06
1.01435e-08
1.48103e-07
3.11818e-06
1.53418e-08
2.7948e-06
2.03935e-08
4.89106e-07
5.55542e-08
-7.73002e-08
3.17506e-06
6.13215e-07
6.12273e-08
-7.42472e-08
3.43801e-06
7.28763e-07
6.36764e-08
-7.076e-08
3.62612e-06
8.20171e-07
6.64056e-08
-6.7496e-08
3.76336e-06
8.65989e-07
6.95961e-08
-6.42482e-08
3.86855e-06
8.28108e-07
7.36738e-08
-6.06078e-08
3.95627e-06
6.13414e-07
7.91323e-08
-5.74931e-08
4.04096e-06
8.63252e-08
-5.39446e-08
4.08049e-06
5.12098e-07
4.63772e-08
4.2318e-06
6.48067e-07
5.42159e-08
4.33658e-06
7.7675e-07
6.01665e-08
4.38909e-06
8.8039e-07
6.60372e-08
4.40906e-06
9.35756e-07
7.14475e-08
4.41338e-06
9.01445e-07
7.67698e-08
4.41665e-06
6.72225e-07
8.22129e-08
4.43692e-06
8.74842e-08
4.43639e-06
5.22234e-07
4.19421e-08
4.91465e-06
6.66034e-07
5.17244e-08
4.89746e-06
8.04746e-07
5.96788e-08
4.84404e-06
9.19505e-07
6.62436e-08
4.77342e-06
9.85022e-07
7.12131e-08
4.70119e-06
9.55958e-07
7.48669e-08
4.64181e-06
7.17147e-07
7.72805e-08
4.6156e-06
7.72214e-08
4.58821e-06
5.30664e-07
4.0645e-08
5.05368e-06
6.75758e-07
5.14618e-08
4.99276e-06
8.17212e-07
5.91223e-08
4.90068e-06
9.35191e-07
6.42558e-08
4.79643e-06
1.00312e-06
6.70552e-08
4.69555e-06
9.74386e-07
6.77613e-08
4.61273e-06
7.30663e-07
6.61413e-08
4.56952e-06
5.95654e-08
4.53605e-06
5.30007e-07
3.9318e-08
4.62638e-06
6.72014e-07
4.79296e-08
4.61085e-06
8.09658e-07
5.28882e-08
4.55593e-06
9.23169e-07
5.53119e-08
4.48209e-06
9.86576e-07
5.51594e-08
4.40593e-06
9.54426e-07
5.25422e-08
4.34282e-06
7.12224e-07
4.69614e-08
4.31488e-06
3.48656e-08
4.29783e-06
5.12449e-07
2.35141e-08
3.78098e-06
6.51784e-07
3.01242e-08
3.86791e-06
7.81902e-07
3.42175e-08
3.90279e-06
8.84972e-07
3.60279e-08
3.90555e-06
9.37641e-07
3.52257e-08
3.89344e-06
8.98513e-07
3.18646e-08
3.8819e-06
6.64164e-07
2.53465e-08
3.89172e-06
1.39929e-08
3.90319e-06
4.93027e-07
-1.1336e-08
2.72234e-06
6.2361e-07
-2.99442e-09
2.93183e-06
7.41934e-07
4.02034e-09
3.07394e-06
8.32196e-07
9.24862e-09
3.16986e-06
8.72538e-07
1.33818e-08
3.23742e-06
8.25507e-07
1.66567e-08
3.29135e-06
6.00816e-07
1.91749e-08
3.34884e-06
2.05761e-08
3.38888e-06
-7.36366e-08
-1.84215e-08
3.17176e-06
3.76048e-08
-4.4767e-08
-3.50057e-08
3.38357e-06
4.42403e-08
-1.98137e-08
-4.39035e-08
3.50008e-06
4.95992e-08
-1.97729e-10
-5.29259e-08
3.54095e-06
5.45109e-08
1.23954e-08
-6.07902e-08
3.52054e-06
5.90081e-08
1.7842e-08
-6.78378e-08
3.44053e-06
6.32109e-08
1.52372e-08
-7.42148e-08
3.26961e-06
6.67992e-08
-7.78206e-08
2.82929e-06
6.83326e-08
-8.9487e-08
4.61853e-09
4.51637e-06
-4.01646e-08
-2.05007e-08
4.57322e-06
-1.92601e-09
-3.04214e-08
4.5583e-06
2.35207e-08
-4.04123e-08
4.48313e-06
3.62679e-08
-4.99179e-08
4.3584e-06
3.69639e-08
-5.91256e-08
4.18259e-06
2.54611e-08
-6.84652e-08
3.91603e-06
-7.69333e-08
3.34311e-06
-8.22696e-08
2.39096e-08
5.66871e-06
-1.91636e-08
-1.37263e-09
5.5624e-06
3.25707e-08
-1.37433e-08
5.42748e-06
6.60299e-08
-2.23015e-08
5.25254e-06
8.00878e-08
-2.94304e-08
5.0423e-06
7.39484e-08
-3.63149e-08
4.79091e-06
4.85881e-08
-4.37965e-08
4.45096e-06
-5.17777e-08
3.77561e-06
-1.12027e-07
1.58682e-08
6.28711e-06
-2.85356e-08
4.24685e-09
6.07994e-06
3.91102e-08
-5.17539e-09
5.889e-06
8.21367e-08
-7.52209e-09
5.67085e-06
1.0018e-07
-7.52644e-09
5.42574e-06
9.23072e-08
-8.05749e-09
5.14492e-06
6.04652e-08
-9.72135e-09
4.77641e-06
-1.34232e-08
4.05669e-06
-1.32188e-07
-5.675e-09
6.10539e-06
-4.82481e-08
4.66783e-09
5.9416e-06
1.75952e-08
3.16247e-09
5.79584e-06
6.04727e-08
6.61462e-09
5.61871e-06
8.02381e-08
1.23574e-08
5.40972e-06
7.76638e-08
1.6771e-08
5.1612e-06
5.25229e-08
1.94221e-08
4.82161e-06
1.91019e-08
4.13015e-06
-1.18026e-07
1.26587e-08
5.13263e-06
-6.05518e-08
1.88329e-08
5.17479e-06
-1.51121e-08
1.99228e-08
5.16647e-06
1.66666e-08
2.41411e-08
5.10414e-06
3.39747e-08
2.83293e-08
4.9946e-06
3.85888e-08
3.11436e-08
4.83342e-06
2.88145e-08
3.2307e-08
4.57499e-06
3.00879e-08
3.97976e-06
-1.28165e-07
3.74203e-06
2.8497e-08
-8.90253e-08
4.006e-06
3.07319e-08
-5.71745e-08
4.17042e-06
3.1768e-08
-3.04658e-08
4.25586e-06
3.20331e-08
-1.06471e-08
4.27687e-06
3.14598e-08
2.49772e-09
4.23309e-06
2.99684e-08
7.52367e-09
4.08662e-06
2.73105e-08
3.62891e-06
2.12028e-08
1.6535e-07
-9.41993e-08
3.16728e-06
6.6674e-08
1.79808e-07
-8.43858e-08
3.38959e-06
6.38337e-08
1.80615e-07
-7.94746e-08
3.51573e-06
6.31296e-08
1.69783e-07
-7.84253e-08
3.56625e-06
6.41628e-08
1.46758e-07
-7.80907e-08
3.55584e-06
6.58393e-08
1.11993e-07
-7.92862e-08
3.48652e-06
6.80492e-08
6.45797e-08
-8.14632e-08
3.32817e-06
7.02917e-08
-8.18996e-08
2.90502e-06
7.09417e-08
2.62896e-07
-9.78105e-08
4.48838e-06
2.70602e-07
-8.49574e-08
4.56621e-06
2.60655e-07
-7.77097e-08
4.56652e-06
2.35835e-07
-7.52995e-08
4.50486e-06
1.97595e-07
-7.458e-08
4.39318e-06
1.46225e-07
-7.63024e-08
4.23081e-06
8.13175e-08
-8.01644e-08
3.97952e-06
-8.41573e-08
3.42682e-06
4.09096e-07
-7.59973e-08
5.60693e-06
4.0985e-07
-6.39038e-08
5.5409e-06
3.85633e-07
-5.4429e-08
5.42837e-06
3.41581e-07
-4.96082e-08
5.27081e-06
2.81403e-07
-4.81844e-08
5.07622e-06
2.05273e-07
-5.00112e-08
4.84037e-06
1.13057e-07
-5.44108e-08
4.51767e-06
-6.03182e-08
3.8648e-06
4.87349e-07
-5.2231e-08
6.20199e-06
4.88621e-07
-3.60367e-08
6.05076e-06
4.59268e-07
-2.22151e-08
5.88624e-06
4.03797e-07
-1.26079e-08
5.68759e-06
3.31071e-07
-9.0244e-09
5.45915e-06
2.40834e-07
-9.8639e-09
5.19487e-06
1.31979e-07
-1.35512e-08
4.84442e-06
-2.00955e-08
4.14833e-06
4.67692e-07
-1.30121e-08
6.01528e-06
4.60612e-07
4.32209e-11
5.91238e-06
4.29373e-07
1.21272e-08
5.79277e-06
3.76465e-07
2.21394e-08
5.63462e-06
3.08998e-07
2.53061e-08
5.44258e-06
2.26103e-07
2.43354e-08
5.21021e-06
1.24728e-07
2.10276e-08
4.88832e-06
1.44408e-08
4.22008e-06
3.47739e-07
2.4621e-08
5.0802e-06
3.3638e-07
3.05337e-08
5.15558e-06
3.10923e-07
3.66729e-08
5.1676e-06
2.74822e-07
4.07036e-08
5.12166e-06
2.27798e-07
3.97231e-08
5.02705e-06
1.68973e-07
3.65108e-08
4.8804e-06
9.50234e-08
3.2023e-08
4.63807e-06
2.46852e-08
4.06419e-06
1.93669e-07
3.72302e-06
2.95706e-08
1.95582e-07
4.00232e-06
3.22383e-08
1.90191e-07
4.17971e-06
3.29154e-08
1.77245e-07
4.27743e-06
3.21635e-08
1.53269e-07
4.31012e-06
3.03779e-08
1.17303e-07
4.278e-06
2.75649e-08
6.74134e-08
4.14475e-06
2.34889e-08
3.70504e-06
1.58816e-08
2.13019e-07
-1.13347e-07
3.17112e-06
7.41695e-08
2.2639e-07
-9.63596e-08
3.40371e-06
6.88657e-08
2.24156e-07
-8.87533e-08
3.53995e-06
6.70046e-08
2.07108e-07
-8.52505e-08
3.60143e-06
6.70709e-08
1.75029e-07
-8.26611e-08
3.60265e-06
6.79409e-08
1.29062e-07
-8.22403e-08
3.54535e-06
6.95374e-08
6.97885e-08
-8.32698e-08
3.39929e-06
7.13897e-08
-8.30284e-08
2.98591e-06
7.19661e-08
3.23816e-07
-1.2639e-07
4.47312e-06
3.25012e-07
-1.01537e-07
4.57052e-06
3.07934e-07
-9.07563e-08
4.58578e-06
2.74693e-07
-8.55776e-08
4.53832e-06
2.26319e-07
-8.20898e-08
4.44108e-06
1.63166e-07
-8.16768e-08
4.29329e-06
8.65731e-08
-8.37694e-08
4.05673e-06
-8.62022e-08
3.51664e-06
4.89306e-07
-1.06922e-07
5.55652e-06
4.77868e-07
-8.03064e-08
5.53122e-06
4.39972e-07
-6.53233e-08
5.44074e-06
3.81751e-07
-5.77901e-08
5.30104e-06
3.08159e-07
-5.5268e-08
5.12328e-06
2.19064e-07
-5.65507e-08
4.90425e-06
1.15643e-07
-6.06021e-08
4.59825e-06
-6.59095e-08
3.96019e-06
5.98468e-07
-6.77751e-08
6.12142e-06
5.78016e-07
-4.12582e-08
6.03196e-06
5.26023e-07
-2.15414e-08
5.89442e-06
4.50368e-07
-1.16924e-08
5.71543e-06
3.60721e-07
-1.09403e-08
5.50438e-06
2.54922e-07
-1.5102e-08
5.25915e-06