/*--------------------------------*- C++ -*----------------------------------*\
| =========                 |                                                 |
| \\      /  F ield         | OpenFOAM: The Open Source CFD Toolbox           |
|  \\    /   O peration     | Version:  plus.master.MPPICInterFoam            |
|   \\  /    A nd           | Web:      www.OpenFOAM.com                      |
|    \\/     M anipulation  |                                                 |
\*---------------------------------------------------------------------------*/
FoamFile
{
    version     2.0;
    format      ascii;
    class       volScalarField;
    location    "7.2";
    object      rho;
}
// * * * * * * * * * * * * * * * * * * * * * * * * * * * * * * * * * * * * * //

dimensions      [1 -3 0 0 0 0 0];

internalField   nonuniform List<scalar> 
11822
(
908.497
581.611
476.852
429.463
520.982
843.657
999.463
588.609
402.648
402.144
402.865
402.63
521.845
956.41
507.572
537.664
404.061
396.531
399.266
482.385
908.548
507.667
485.52
426.626
527.627
400.919
493.686
909.293
566.861
402.916
402.173
402.175
401.764
534.04
953.098
829.88
523.951
500.688
463.952
541.018
825.83
997.876
997.581
957.026
916.631
912.712
959.703
998.119
1000
908.497
606.157
486
454.8
567.365
849.495
998.691
607.702
402.125
400.872
399.972
401.228
571.223
958.458
505.511
400.829
399.563
397.172
399.92
481.491
914.459
535.292
401.51
399.578
399.572
400.392
485.191
913.636
593.173
402.188
401.411
400.819
401.213
575.598
954.561
842.606
561.316
517.039
491.075
588.336
834.898
996.854
997.584
960.533
929.547
926.417
965.446
997.901
999.998
940.744
739.228
646.357
640.686
742.601
900.562
998.747
732.226
466.537
420.859
417.577
522.581
739.892
975.885
628.444
412.113
399.578
399.594
405.336
647.781
950.149
639.597
412.409
399.653
399.591
400.343
635.244
945.47
715.83
488.341
415.174
420.115
505.539
713.045
970.817
911.884
701.871
647.894
654.406
739.987
887.835
997.679
999.016
981.965
970.545
971.019
986.336
999.007
999.99
977.483
850.537
795.113
808.572
843.7
935.498
999.43
851.939
673.969
565.694
561.626
758.055
809.861
985.905
762.083
496.991
399.524
399.541
596.17
819.149
965.119
708.858
472.982
399.584
399.513
578.642
788.731
957.064
819.889
623.474
419.687
469.833
675.134
767.064
982.061
969.055
799
739.331
769.798
805.211
921.638
999.317
999.958
997.076
991.485
993.926
998.45
999.893
999.994
983.14
847.85
779.398
797.413
820.394
930.597
999.826
856.338
700.775
580.067
585.217
691.244
760.676
984.996
761.555
524.711
399.466
414.649
741.184
773.169
958.547
698.28
482.85
399.589
399.411
713.516
740.009
948.427
823.229
611.442
400.381
446.084
632.689
729.277
981.517
975.621
795.774
721.647
751.524
776.312
916.557
999.939
1000
999.587
991.522
993.938
998.907
1000
1000
980.602
816.354
695.844
709.62
739.636
907.629
999.714
836.52
600.217
462.905
445.316
423.13
658.164
978.171
714.415
490.245
487.058
543.225
666.655
587.53
937.923
669.081
465.238
422.75
519.928
534.923
567.112
925.051
809.696
516.093
400.954
400.828
444.454
650.732
975.71
973.15
779.143
674.348
671.895
703.161
895.742
999.892
1000
999.918
988.276
990.121
996.933
1000
1000
1000
1000
1000
1000
999.827
999.705
999.343
999.84
1000
1000
1000
1000
1000
1000
1000
999.998
1000
1000
1000
1000
1000
1000
1000
1000
1000
1000
1000
1000
1000
1000
1000
1000
1000
1000
1000
1000
1000
1000
1000
1000
1000
1000
1000
1000
1000
1000
1000
1000
1000
1000
1000
1000
1000
1000
1000
1000
1000
1000
1000
1000
999.737
999.765
999.427
999.896
1000
1000
1000
1000
1000
1000
1000
999.999
1000
1000
1000
1000
1000
1000
1000
1000
1000
1000
1000
1000
1000
1000
1000
1000
1000
1000
1000
1000
1000
1000
1000
1000
1000
1000
1000
1000
1000
1000
1000
1000
1000
1000
1000
1000
1000
1000
1000
1000
1000
1000
1000
1000
999.7
999.896
999.67
999.954
1000
1000
1000
1000
1000
1000
1000
999.999
1000
1000
1000
1000
1000
1000
1000
1000
1000
1000
1000
1000
1000
1000
1000
1000
1000
1000
1000
1000
1000
1000
1000
1000
1000
1000
1000
1000
1000
1000
1000
1000
1000
1000
1000
1000
1000
1000
1000
1000
1000
1000
1000
1000
999.725
999.985
999.867
999.983
1000
1000
1000
1000
1000
1000
1000
1000
1000
1000
1000
1000
1000
1000
1000
1000
1000
1000
1000
1000
1000
1000
1000
1000
1000
1000
1000
1000
1000
1000
1000
1000
1000
1000
1000
1000
1000
1000
1000
1000
1000
1000
1000
1000
1000
1000
1000
1000
1000
1000
1000
1000
999.821
999.966
999.874
999.992
1000
1000
1000
1000
1000
1000
1000
1000
1000
1000
1000
1000
1000
1000
1000
1000
1000
1000
1000
1000
1000
1000
1000
1000
1000
1000
1000
1000
1000
1000
1000
1000
1000
1000
1000
1000
1000
1000
1000
1000
1000
1000
1000
1000
1000
1000
1000
1000
1000
1000
1000
999.992
999.956
999.686
999.74
1000
1000
1000
1000
1000
1000
1000
1000
1000
1000
1000
1000
1000
1000
1000
1000
1000
1000
1000
1000
1000
1000
1000
1000
1000
1000
1000
1000
1000
1000
1000
1000
1000
1000
1000
1000
1000
1000
1000
1000
1000
1000
1000
1000
1000
1000
1000
1000
1000
1000
1000
1000
1000
1000
1000
1000
1000
1000
1000
1000
1000
999.999
1000
1000
1000
964.252
1000
1000
1000
999.999
1000
1000
1000
918.622
1000
1000
1000
1000
1000
1000
1000
906.585
1000
1000
1000
1000
1000
1000
1000
981.474
1000
1000
1000
1000
1000
1000
1000
1000
1000
1000
999.996
999.991
999.986
999.994
999.992
1000
1000
1000
1000
1000
1000
1000
1000
1000
1000
1000
1000
1000
1000
1000
1000
966.526
1000
1000
1000
999.999
1000
1000
1000
924.37
1000
1000
1000
1000
1000
1000
1000
915.846
1000
1000
1000
1000
1000
1000
1000
980.809
1000
1000
1000
1000
1000
1000
1000
1000
1000
1000
999.998
999.989
999.981
999.996
999.993
1000
1000
1000
1000
1000
1000
1000
1000
1000
1000
1000
1000
1000
1000
1000
1000
983.906
1000
1000
1000
999.999
1000
1000
1000
959.567
1000
1000
1000
1000
1000
1000
1000
960.931
1000
1000
1000
1000
1000
1000
1000
990.638
1000
1000
1000
1000
1000
1000
1000
1000
1000
1000
999.999
999.983
999.98
999.999
999.994
999.999
1000
1000
1000
1000
1000
1000
1000
999.999
1000
1000
1000
1000
1000
1000
1000
997.551
1000
1000
1000
999.999
1000
1000
1000
991.205
1000
1000
1000
1000
1000
1000
1000
994.887
1000
1000
1000
1000
1000
1000
1000
998.609
1000
1000
1000
1000
1000
1000
1000
999.999
1000
1000
999.999
999.973
999.98
1000
999.995
999.999
1000
1000
1000
1000
1000
1000
1000
1000
1000
1000
1000
1000
1000
1000
1000
999.923
1000
1000
1000
1000
1000
1000
1000
995.872
1000
1000
1000
1000
1000
1000
1000
998.572
1000
1000
1000
1000
1000
1000
1000
999.97
1000
1000
1000
1000
1000
1000
1000
1000
1000
1000
999.998
999.962
999.981
999.999
999.994
1000
1000
1000
1000
1000
1000
1000
1000
1000
1000
1000
1000
1000
1000
1000
1000
1000.01
1000
1000
1000
1000
1000
1000
1000
993.401
1000
1000
1000
1000
1000
1000
1000
996.485
1000
1000
1000
1000
1000
1000
1000
1000.01
1000
1000
1000
1000
1000
1000
1000
1000
1000
1000
999.999
999.961
999.984
999.999
999.994
1000
1000
1000
1000
999.994
999.418
999.887
999.822
979.629
1000
1000
1000
999.787
997.704
999.421
999.992
906.537
1000
1000
1000
999.944
999.589
999.969
999.992
883.548
1000
1000
999.988
999.995
999.995
997.171
999.494
954.04
1000
1000
1000
999.679
999.787
996.976
998.933
999.977
1000
1000
1000
999.151
999.262
996.293
998.919
1000
1000
1000
1000
999.155
998.846
996.293
999.293
1000
1000
1000
1000
999.974
999.517
999.916
999.749
979.178
1000
1000
1000
999.692
997.705
999.816
999.992
915.091
1000
1000
1000
999.707
999.484
999.967
999.909
897.755
1000
1000
1000
999.994
999.995
996.362
999.417
958.023
1000
1000
1000
999.619
999.779
999.355
999.167
999.999
1000
1000
1000
999.196
999.336
996.291
999.012
1000
1000
1000
1000
999.101
998.776
996.292
999.445
1000
1000
1000
1000
999.879
998.961
999.903
999.749
989.578
1000
1000
1000
999.707
997.706
999.674
999.22
961.429
1000
1000
1000
999.527
999.499
998.255
999.082
957.773
1000
1000
1000
999.983
999.994
996.362
999.448
980.915
1000
1000
1000
999.775
999.858
996.707
999.312
999.937
1000
1000
1000
999.535
999.253
996.291
999.16
1000
1000
1000
1000
999.009
999.009
996.486
999.672
1000
1000
1000
1000
999.591
998.472
999.693
999.754
997.943
1000
1000
1000
999.789
997.766
996.837
997.98
992.364
1000
1000
1000
999.608
999.505
996.435
998.318
993.794
1000
1000
1000
999.974
999.994
996.383
999.575
997.057
1000
1000
1000
999.979
999.871
996.291
999.294
999.987
1000
1000
1000
999.802
999.075
996.291
999.304
999.998
1000
1000
1000
999.006
999.781
998.559
999.836
1000
1000
1000
1000
999.306
998.782
998.534
999.762
999.84
1000
1000
1000
999.976
997.871
996.451
998.461
994.275
1000
1000
1000
999.86
999.503
996.451
998.394
995.578
1000
1000
1000
999.978
999.983
999.416
999.797
999.605
1000
1000
999.998
999.998
999.821
996.291
999.296
1000
1000
1000
1000
999.8
998.964
996.291
999.455
999.999
1000
1000
1000
999.165
999.523
999.085
999.934
1000
1000
1000
1000
999.325
999.268
997.74
999.73
1000.01
1000
1000
1000
1000
998.298
996.455
998.602
991.091
1000
1000
1000
1000
999.64
996.451
998.234
992.004
1000
1000
1000
999.997
999.956
999.374
999.827
998.87
1000
1000
999.99
999.998
999.855
996.293
999.111
1000
1000
1000
1000
999.849
998.84
996.29
999.373
1000
1000
1000
1000
999.623
998.416
998.379
999.929
1000
1000
1000
999.947
999.985
1000
1000
1000
1000
1000
1000
999.446
999.562
999.982
1000
1000
1000
1000
1000
999.931
999.159
999.807
1000
1000
1000
999.999
999.853
999.941
999.159
999.694
1000
1000
1000
999.999
998.997
999.4
999.82
1000
1000
1000
1000
1000
999.891
999.483
999.841
1000
1000
1000
1000
1000
1000
1000
1000
1000
1000
1000
1000
1000
1000
999.955
999.99
1000
1000
1000
1000
1000
1000
999.445
999.652
999.997
1000
1000
1000
1000
1000
999.731
999.159
999.9
1000
1000
1000
999.999
999.958
999.873
999.16
999.785
1000
1000
999.998
999.998
999.795
999.359
999.737
1000
1000
1000
999.995
999.991
999.981
999.613
999.873
1000
1000
1000
1000
1000
999.999
1000
1000
1000
1000
1000
1000
1000
1000
999.978
999.997
1000
1000
1000
1000
999.999
1000
999.46
999.821
1000
1000
1000
1000
1000
1000
999.372
999.312
999.978
1000
1000
1000
1000
1000
999.581
999.16
999.894
1000
1000
999.985
999.971
999.994
999.356
999.76
1000
1000
1000
999.997
999.97
999.996
999.857
999.947
1000
1000
1000
1000
1000
999.997
1000
1000
1000
1000
1000
1000
1000
999.999
999.995
1000
1000
1000
1000
1000
1000
1000
999.734
999.949
1000
1000
1000
1000
1000
999.999
999.33
999.66
999.999
1000
1000
999.999
999.998
1000
999.334
999.21
999.97
1000
1000
999.991
999.961
1000
999.354
999.851
1000
1000
1000
1000
999.976
999.999
999.977
999.993
1000
1000
1000
1000
1000
999.997
1000
1000
1000
1000
1000
1000
1000
999.997
999.998
1000
1000
1000
1000
1000
1000
999.996
999.94
999.991
1000
1000
1000
1000
1000
1000
999.33
999.789
1000
1000
1000
1000
999.999
1000
999.331
999.58
999.998
1000
1000
999.999
999.97
1000
999.712
999.948
1000
1000
1000
1000
999.995
999.983
999.983
1000
1000
1000
1000
1000
1000
999.998
1000
1000
1000
1000
1000
1000
1000
999.996
999.997
1000
1000
1000
1000
1000
1000
999.977
999.956
999.992
1000
1000
1000
1000
1000
1000
999.331
999.825
1000
1000
1000
1000
1000
1000
999.331
999.723
1000
1000
1000
999.999
999.998
999.993
999.957
999.987
1000
1000
1000
1000
1000
999.975
999.976
999.999
1000
1000
1000
1000
1000
999.999
1000
1000
1000
1000
1000
1000
1000
1000
1000
1000
1000
1000
1000
1000
1000
1000
1000
1000
1000
1000
1000
1000
1000
1000
1000
1000
1000
1000
1000
1000
1000
1000
1000
1000
1000
1000
1000
1000
1000
1000
1000
1000
1000
1000
1000
1000
1000
1000
1000
1000
1000
1000
1000
1000
1000
1000
1000
1000
1000
1000
1000
1000
1000
1000
1000
1000
1000
1000
1000
1000
1000
1000
1000
1000
1000
1000
1000
1000
1000
1000
1000
1000
1000
1000
1000
1000
1000
1000
1000
1000
1000
1000
1000
1000
1000
1000
1000
1000
1000
1000
1000
1000
1000
1000
1000
1000
1000
1000
1000
1000
1000
1000
1000
1000
1000
1000
1000
1000
1000
1000
1000
1000
1000
1000
1000
1000
1000
1000
1000
1000
1000
1000
1000
1000
1000
1000
1000
1000
1000
1000
1000
1000
1000
1000
1000
1000
1000
1000
1000
1000
1000
1000
1000
1000
1000
1000
1000
1000
1000
1000
1000
1000
1000
1000
1000
1000
1000
1000
1000
1000
1000
1000
1000
1000
1000
1000
1000
1000
1000
1000
1000
1000
1000
1000
1000
1000
1000
1000
1000
1000
1000
1000
1000
1000
1000
1000
1000
1000
1000
1000
1000
1000
1000
1000
1000
1000
1000
1000
1000
1000
1000
1000
1000
1000
1000
1000
1000
1000
1000
1000
1000
1000
1000
1000
1000
1000
1000
1000
1000
1000
1000
1000
1000
1000
1000
1000
1000
1000
1000
1000
1000
1000
1000
1000
1000
1000
1000
1000
1000
1000
1000
1000
1000
1000
1000
1000
1000
1000
1000
1000
1000
1000
1000
1000
1000
1000
1000
1000
1000
1000
1000
1000
1000
1000
1000
1000
1000
1000
1000
1000
1000
1000
1000
1000
1000
1000
1000
1000
1000
1000
999.998
999.999
992.461
1000
1000
1000
1000
1000
999.999
999.999
990.598
1000
1000
1000
1000
1000
999.999
999.999
990.918
1000
1000
1000
1000
1000
999.999
999.999
993.397
1000
1000
1000
1000
1000
999.999
999.999
992.33
1000
1000
1000
1000
1000
999.999
999.999
989.402
1000
1000
1000
1000
1000
999.999
999.999
992.128
1000
1000
1000
1000
1000
1000
1000
1000
1000
1000
1000
1000
1000
1000
1000
1000
1000
1000
1000
1000
1000
1000
1000
1000
1000
1000
1000
1000
1000
1000
1000
1000
1000
1000
1000
1000
1000
1000
1000
1000
1000
1000
1000
1000
1000
1000
1000
1000
1000
1000
1000
1000
1000
1000
1000
1000
1000
1000
1000
1000
1000
1000
1000
1000
1000
1000
1000
1000
1000
1000
1000
1000
1000
1000
1000
1000
1000
1000
1000
1000
1000
1000
1000
1000
1000
1000
1000
1000
1000
1000
1000
1000
1000
1000
1000
1000
1000
1000
1000
1000
1000
1000
1000
1000
1000
1000
1000
1000
1000
1000
1000
1000
1000
1000
1000
1000
1000
1000
1000
1000
1000
1000
1000
1000
1000
1000
1000
1000
1000
1000
1000
1000
1000
1000
1000
1000
1000
1000
1000
1000
1000
1000
1000
1000
1000
1000
1000
1000
1000
1000
1000
1000
1000
1000
1000
1000
1000
1000
1000
1000
1000
1000
1000
1000
1000
1000
1000
1000
1000
1000
1000
1000
1000
1000
1000
1000
1000
1000
1000
1000
1000
1000
1000
1000
1000
1000
1000
1000
1000
1000
1000
1000
1000
1000
1000
1000
1000
1000
1000
1000
1000
1000
1000
1000
1000
1000
1000
1000
1000
1000
1000
1000
1000
1000
1000
1000
1000
1000
1000
1000
1000
1000
1000
1000
1000
1000
1000
1000
1000
1000
1000
1000
1000
1000
1000
1000
1000
1000
1000
1000
1000
1000
1000
1000
1000
1000
1000
1000
1000
1000
1000
1000
1000
1000
1000
1000
1000
1000
1000
1000
1000
1000
1000
1000
1000
1000
1000
1000
1000
1000
1000
1000
1000
1000
1000
1000
1000
1000
1000
1000
1000
1000
1000
1000
1000
999.998
999.999
999.841
1000
1000
1000
1000
1000
999.999
999.998
999.998
1000
1000
1000
1000
1000
999.999
999.998
999.998
1000
1000
1000
1000
1000
999.999
999.998
999.998
1000
1000
1000
1000
1000
999.999
999.998
999.998
1000
1000
1000
1000
1000
999.999
999.998
999.998
1000
1000
1000
1000
1000
999.999
999.999
999.998
1000
1000
1000
1000
1000
1000
1000
1000
1000
1000
1000
1000
1000
1000
1000
1000
1000
1000
1000
1000
1000
1000
1000
1000
1000
1000
1000
1000
1000
1000
1000
1000
1000
1000
1000
1000
1000
1000
1000
1000
1000
1000
1000
1000
1000
1000
1000
1000
1000
1000
1000
1000
1000
1000
1000
1000
1000
1000
1000
1000
1000
1000
1000
1000
1000
1000
1000
1000
1000
1000
1000
1000
1000
1000
1000
1000
1000
1000
1000
1000
1000
1000
1000
1000
1000
1000
1000
1000
1000
1000
1000
1000
1000
1000
1000
1000
1000
1000
1000
1000
1000
1000
1000
1000
1000
1000
1000
1000
1000
1000
1000
1000
1000
1000
1000
1000
1000
1000
1000
1000
1000
1000
1000
1000
1000
1000
1000
1000
1000
1000
1000
1000
1000
1000
1000
1000
1000
1000
1000
1000
1000
1000
1000
1000
1000
1000
1000
1000
1000
1000
1000
1000
1000
1000
1000
1000
1000
1000
1000
1000
1000
1000
1000
1000
1000
1000
1000
1000
1000
1000
1000
1000
1000
1000
1000
1000
1000
1000
1000
1000
1000
1000
1000
1000
1000
1000
1000
1000
1000
1000
1000
1000
1000
1000
1000
1000
1000
1000
1000
1000
1000
1000
1000
1000
1000
1000
1000
1000
1000
1000
1000
1000
1000
1000
1000
1000
1000
1000
1000
1000
1000
1000
1000
1000
1000
1000
1000
1000
1000
1000
1000
1000
1000
1000
1000
1000
1000
1000
1000
1000
1000
1000
1000
1000
1000
1000
1000
1000
1000
1000
1000
1000
1000
1000
1000
1000
1000
1000
1000
1000
1000
1000
1000
1000
1000
1000
1000
1000
1000
1000
1000
1000
1000
1000
1000
1000
1000
1000
1000
1000
1000
1000
1000
1000
1000
999.999
999.999
999.998
999.984
1000
1000
1000
1000
999.999
999.998
999.998
999.982
1000
1000
1000
1000
999.999
999.998
999.998
999.998
1000
1000
1000
1000
999.998
999.999
999.63
999.998
1000
1000
1000
1000
999.998
999.999
996.083
999.957
1000
1000
1000
1000
999.998
999.999
994.151
999.979
1000
1000
1000
1000
999.998
999.999
993.152
1000
1000
1000
1000
1000
1000
1000
1000
1000
1000
1000
1000
1000
1000
1000
1000
1000
1000
1000
1000
1000
1000
1000
1000
1000
1000
1000
1000
1000
1000
1000
1000
1000
1000
1000
1000
1000
1000
1000
1000
1000
1000
1000
1000
1000
1000
1000
1000
1000
1000
1000
1000
1000
1000
1000
1000
1000
1000
1000
1000
1000
1000
1000
1000
1000
1000
1000
1000
1000
1000
1000
1000
1000
1000
1000
1000
1000
1000
1000
1000
1000
1000
1000
1000
1000
1000
1000
1000
1000
1000
1000
1000
1000
1000
1000
1000
1000
1000
1000
1000
1000
1000
1000
1000
1000
1000
1000
1000
1000
1000
1000
1000
1000
1000
1000
1000
1000
1000
1000
1000
1000
1000
1000
1000
1000
1000
1000
1000
1000
1000
1000
1000
1000
1000
1000
1000
1000
1000
1000
1000
1000
1000
1000
1000
1000
1000
1000
1000
1000
1000
1000
1000
1000
1000
1000
1000
1000
1000
1000
1000
1000
1000
1000
1000
1000
1000
1000
1000
1000
1000
1000
1000
1000
1000
1000
1000
1000
1000
1000
1000
1000
1000
1000
1000
1000
1000
1000
1000
1000
1000
1000
1000
1000
1000
1000
1000
1000
1000
1000
1000
1000
1000
1000
1000
1000
1000
1000
1000
1000
1000
1000
1000
1000
1000
1000
1000
1000
1000
1000
1000
1000
1000
1000
1000
1000
1000
1000
1000
1000
1000
1000
1000
1000
1000
1000
1000
1000
1000
1000
1000
1000
1000
1000
1000
1000
1000
1000
1000
1000
1000
1000
1000
1000
1000
1000
1000
1000
1000
1000
1000
1000
1000
1000
1000
1000
1000
1000
1000
1000
1000
1000
1000
1000
1000
1000
1000
1000
1000
1000
1000
1000
1000
1000
1000
1000
999.999
999.999
992.754
1000
1000
1000
1000
1000
999.999
999.999
992.754
1000
1000
1000
1000
1000
999.999
999.999
994.114
1000
1000
1000
1000
1000
999.999
999.999
995.477
1000
1000
1000
1000
1000
999.999
999.999
996.143
1000
1000
1000
1000
1000
999.999
999.999
995.684
1000
1000
1000
1000
1000
999.998
999.999
998.345
1000
1000
1000
1000
1000
1000
1000
1000
1000
1000
1000
1000
1000
1000
1000
1000
1000
1000
1000
1000
1000
1000
1000
1000
1000
1000
1000
1000
1000
1000
1000
1000
1000
1000
1000
1000
1000
1000
1000
1000
1000
1000
1000
1000
1000
1000
1000
1000
1000
1000
1000
1000
1000
1000
1000
1000
1000
1000
1000
1000
1000
1000
1000
1000
1000
1000
1000
1000
1000
1000
1000
1000
1000
1000
1000
1000
1000
1000
1000
1000
1000
1000
1000
1000
1000
1000
1000
1000
1000
1000
1000
1000
1000
1000
1000
1000
1000
1000
1000
1000
1000
1000
1000
1000
1000
1000
1000
1000
1000
1000
1000
1000
1000
1000
1000
1000
1000
1000
1000
1000
1000
1000
1000
1000
1000
1000
1000
1000
1000
1000
1000
1000
1000
1000
1000
1000
1000
1000
1000
1000
1000
1000
1000
1000
1000
1000
1000
1000
1000
1000
1000
1000
1000
1000
1000
1000
1000
1000
1000
1000
1000
1000
1000
1000
1000
1000
1000
1000
1000
1000
1000
1000
1000
1000
1000
1000
1000
1000
1000
1000
1000
1000
1000
1000
1000
1000
1000
1000
1000
1000
1000
1000
1000
1000
1000
1000
1000
1000
1000
1000
1000
1000
1000
1000
1000
1000
1000
1000
1000
1000
1000
1000
1000
1000
1000
1000
1000
1000
1000
1000
1000
1000
1000
1000
999.91
1000
1000
1000
1000
1000
999.524
996.512
998.079
998.412
1000
1000
1000
1000
996.563
971.9
985.925
996.354
1000
1000
1000
1000
985.831
980.813
995.151
993.597
1000
1000
1000
1000
982.91
982.57
997.343
994.206
1000
1000
1000
1000
983.464
981.623
996.399
993.095
1000
1000
1000
1000
994.269
975.331
989.647
993.621
1000
1000
1000
1000
1000
968.829
979.677
998.807
1000
979.521
985.454
988.759
967.891
903.399
929.322
952.047
961.554
987.124
987.695
991.083
956.191
895.373
950.283
943.433
958.994
991.933
992.243
996.87
907.915
911.685
945.866
935.875
956.472
994.436
993.77
986.923
891.687
924.019
945.717
934.02
957.072
994.572
994.296
992.665
896.351
919.839
943.933
932.401
956.907
989.042
993.413
994.345
950.987
889.83
941.373
937.217
957.3
989.42
991.015
987.258
972.519
879.463
947.201
948.658
962.417
1000
1000
1000
1000
1000
1000
1000
1000
1000
1000
1000
1000
1000
1000
1000
1000
1000
1000
1000
1000
1000
1000
1000
1000
1000
1000
1000
1000
1000
1000
1000
1000
1000
1000
1000
1000
1000
1000
1000
1000
1000
1000
1000
1000
1000
1000
1000
1000
1000
1000
1000
1000
1000
1000
1000
1000
1000
1000
1000
1000
1000
1000
1000
1000
1000
1000
1000
1000
1000
1000
1000
1000
1000
1000
1000
1000
1000
1000
1000
1000
1000
1000
1000
1000
1000
1000
1000
1000
1000
1000
1000
1000
1000
1000
1000
1000
1000
1000
1000
1000
1000
1000
1000
1000
1000
1000
1000
1000
1000
1000
1000
1000
1000
1000
1000
1000
1000
1000
1000
1000
1000
1000
1000
1000
1000
1000
1000
1000
1000
1000
1000
1000
1000
1000
1000
1000
1000
1000
1000
1000
1000
1000
1000
1000
1000
1000
1000
1000
1000
1000
1000
1000
1000
1000
1000
1000
1000
1000
1000
1000
1000
1000
1000
1000
1000
1000
1000
1000
1000
1000
1000
1000
1000
1000
1000
1000
1000
1000
1000
1000
1000
1000
1000
1000
1000
1000
1000
1000
1000
1000
1000
1000
1000
1000
1000
1000
1000
1000
1000
1000
1000
1000
1000
1000
1000
1000
1000
1000
1000
1000
1000
1000
1000
1000
1000
1000
1000
1000
1000
1000
1000
1000
1000
1000
1000
1000
1000
1000
1000
999.961
1000
1000
1000
1000
1000
1000
1000
999.909
1000
1000
1000
1000
1000
1000
1000
999.944
1000
1000
1000
1000
1000
1000
1000
999.987
1000
1000
1000
1000
1000
1000
1000
1000
1000
1000
1000
1000
1000
1000
1000
1000
1000
1000
1000
1000
1000
1000
1000
1000
1000
1000
988.775
992.289
989.408
977.014
928.699
936.87
959.97
969.372
994.177
984.84
978.578
976.472
948.8
937.711
959.346
970.385
999.999
993.175
972.098
970.435
957.848
940.339
959.313
971.483
999.999
992.673
966.212
967.879
960.037
941.766
959.416
972.377
999.999
991.77
964.718
966.995
958.886
942.471
959.603
972.742
999.999
991.264
964.851
965.834
956.445
942.993
959.184
972.487
999.999
992.794
966.716
964.148
956.18
944.436
958.985
972.026
1000
1000
1000
1000
1000
1000
1000
1000
1000
1000
1000
1000
1000
1000
1000
1000
1000
1000
1000
1000
1000
1000
1000
1000
1000
1000
1000
1000
1000
1000
1000
1000
1000
1000
1000
1000
1000
1000
1000
1000
1000
1000
1000
1000
1000
1000
1000
1000
1000
1000
1000
1000
1000
1000
1000
1000
1000
1000
1000
1000
1000
1000
1000
1000
1000
1000
1000
1000
1000
1000
1000
1000
1000
1000
1000
1000
1000
1000
1000
1000
1000
1000
1000
1000
1000
1000
1000
1000
1000
1000
1000
1000
1000
1000
1000
1000
1000
1000
1000
1000
1000
1000
1000
1000
1000
1000
1000
1000
1000
1000
1000
1000
1000
1000
1000
1000
1000
1000
1000
1000
1000
1000
1000
1000
1000
1000
1000
1000
1000
1000
1000
1000
1000
1000
1000
1000
1000
1000
1000
1000
1000
1000
1000
1000
1000
1000
1000
1000
1000
1000
1000
1000
1000
1000
1000
1000
1000
1000
1000
1000
1000
1000
1000
1000
1000
1000
1000
1000
1000
1000
1000
1000
1000
1000
1000
1000
1000
1000
1000
1000
1000
1000
1000
1000
1000
1000
1000
1000
1000
1000
1000
1000
1000
1000
1000
1000
1000
1000
1000
1000
1000
1000
1000
1000
1000
1000
1000
1000
1000
1000
1000
1000
1000
1000
1000
1000
1000
1000
1000
1000
1000
1000
1000
1000
1000
1000
1000
1000
1000
1000
1000
1000
1000
1000
1000
1000
1000
999.993
1000
1000
1000
1000
1000
1000
1000
999.622
999.996
1000
1000
1000
1000
1000
999.788
999.815
999.997
1000
1000
1000
1000
999.525
997.296
999.162
999.99
1000
1000
1000
1000
997.661
989.484
995.051
999.871
1000
1000
1000
1000
998.428
993.176
996.934
999.832
1000
999.999
992.965
968.468
962.032
953.471
943.815
957.965
971.156
999.999
989.158
969.704
964.55
948.176
941.391
957.305
970.012
994.424
977.993
976.572
973.674
934.946
931.839
957.385
968.31
989.419
984.522
986.138
974.589
921.745
931.621
958.738
966.615
989.9
988.561
989.548
974.384
906.272
936.885
956.876
965.531
989.512
987.878
990.005
974.453
898.973
945.273
954.301
964.083
983.846
986.479
989.37
971.782
900.494
940.932
952.912
963.269
1000
1000
1000
1000
1000
1000
1000
1000
1000
1000
1000
1000
1000
1000
1000
1000
1000
1000
1000
1000
1000
1000
1000
1000
1000
1000
1000
1000
1000
1000
1000
1000
1000
1000
1000
1000
1000
1000
1000
1000
1000
1000
1000
1000
1000
1000
1000
1000
1000
1000
1000
1000
1000
1000
1000
1000
1000
1000
1000
1000
1000
1000
1000
1000
1000
1000
1000
1000
1000
1000
1000
1000
1000
1000
1000
1000
1000
1000
1000
1000
1000
1000
1000
1000
1000
1000
1000
1000
1000
1000
1000
1000
1000
1000
1000
1000
1000
1000
1000
1000
1000
1000
1000
1000
1000
1000
1000
1000
1000
1000
1000
1000
1000
1000
1000
1000
1000
1000
1000
1000
1000
1000
1000
1000
1000
1000
1000
1000
1000
1000
1000
1000
1000
1000
1000
1000
1000
1000
1000
1000
1000
1000
1000
1000
1000
1000
1000
1000
1000
1000
1000
1000
1000
1000
1000
1000
1000
1000
1000
1000
1000
1000
1000
1000
1000
1000
1000
1000
1000
1000
1000
1000
1000
1000
1000
1000
999.815
1000
1000
1000
1000
1000
1000
1000
1000
1000
1000
1000
1000
1000
1000
1000
1000
1000
1000
1000
1000
1000
1000
1000
1000
1000
1000
1000
1000
1000
1000
1000
1000
1000
1000
1000
1000
1000
1000
1000
1000
1000
1000
1000
1000
1000
1000
1000
1000
1000
1000
1000
1000
1000
1000
964.052
979.633
997.763
1000
1000
1000
1000
995.96
972.562
988.432
997.6
1000
1000
1000
1000
996.465
979.441
991.105
998.746
1000
1000
1000
1000
997.325
985.244
993.163
998.956
1000
1000
1000
1000
999.829
993.573
997.036
999.847
1000
1000
1000
1000
999.754
993.566
997.528
999.999
1000
1000
1000
1000
1000
999.091
999.751
1000
1000
990.422
993.331
989.907
962.632
878.557
950.339
944.226
961.866
992.557
995.089
992.585
961.538
878.217
946.357
944.31
962.378
994.386
994.111
990.385
966.84
881.455
943.894
948.758
963.614
995.618
994.466
987.668
969.008
886.878
938.962
952.549
963.96
994.278
994.918
987.479
974.696
892.365
934.83
957.44
965.904
995.2
996.749
989.086
975.105
891.23
939.777
958.481
967.878
990.766
994.747
989.44
977.519
913.105
935.13
959.199
968.981
974.05
781.565
673.471
656.793
682.515
879.035
999.476
811.672
488.76
397.097
394.546
390.414
593.758
965.831
694.531
486.69
486.121
551.586
381.85
475.754
913.638
691.25
486.563
545.199
551.587
368.967
458.849
898.023
804.013
508.92
451.713
402.505
375.759
596.109
964.636
967.24
780.746
700.861
656.724
674.838
873.341
999.593
999.998
999.989
982.394
986.076
995.769
999.995
1000
958.174
776.225
758.038
718.794
694.897
867.347
999.969
795.874
522.323
552.099
490.59
397.193
583.056
957.435
722.574
528.324
487.926
501.236
368.149
459.127
889.485
775.034
643.294
509.609
454.422
362.099
442.609
868.026
811.702
601.17
737.55
506.67
358.013
564.936
950.329
958
791.1
809.372
700.29
670.804
854.072
999.969
999.992
999.97
980.507
987.93
999.957
999.982
1000
639.657
575.747
685.21
682.867
562.871
624.976
776.139
591.662
424.781
631.238
592.704
371.37
481.359
755.643
609.947
404
573.984
585.539
376.255
433.486
679.95
648.027
467.479
586.854
568.101
419.194
363.443
627.979
604.603
433.417
615.911
467.323
344.96
427.673
700.033
669.608
592.507
676.124
613.049
497.03
582.516
793.124
891.372
867.328
841.57
856.197
827.276
833.755
926.161
198.763
204.243
258.245
307.878
234.919
153.166
135.378
204.1
190.737
548.37
579.99
390.345
139.075
181.007
236.238
410.131
596.448
596.178
586.754
210.604
189.519
220.16
456.332
596.452
596.447
595.901
229.067
169.55
152.717
206.579
501.652
514.355
382.681
129.643
169.337
143.018
124.34
192.96
264.672
169.143
130.058
167.876
308.939
277.074
312.715
431.195
325.521
264.357
272.708
143.21
123.791
96.3933
120.196
91.4749
60.1756
102.415
76.3861
179.857
353.15
401.919
338.516
102.412
66.0293
46.917
299.066
543.733
565.456
497.845
201.276
49.1088
46.0259
317.62
564.651
578.193
504.554
171.635
50.7478
55.9352
145.174
377.059
420.252
330.152
71.6664
64.7911
109.335
72.1956
112.137
165.307
132.899
110.473
228.737
332.836
149.402
91.755
143.059
150.374
264.089
357.855
1
1
0.999999
0.999989
1
1
1
1
0.999999
1.22403
1.74719
0.99962
0.999999
1
0.999992
1.13691
10.4871
13.0439
6.99586
1.02511
0.999994
0.99999
1.32725
12.5434
14.9463
7.96979
2.46801
0.999858
0.999999
1.24861
2.1437
3.69641
1.17643
1.5742
0.999998
1
0.999999
0.999979
0.99993
0.999986
0.999998
1
1
1
1
1
1
1
1
1
1
1
1
1
1
1
1
1
1
1
1
1
1
1
1
1
1
1
1
1
1
1
1
1
1
1
1
1
1
1
1
1
1
1
1
1
1
1
1
1
1
1
1
1
1
1
1
1
1
1
1
1
1
1
1
1
1
1
1
1
1
1
1
1
1
1
1
1
1
1
1
1
1
1
1
1
1
1
1
1
1
1
1
1
1
1
1
1
1
1
1
1
1
1
1
1
1
1
1
1
1
1
1
1
1
1
1
1
1
1
1
1
1
1
1
1
1
1
1
1
1
1
1
1
1
1
1
1
1
1
1
1
1
1
1
1
1
1
1
1
1
1
1
1
1
1
1
1
1
1
1
1
1
1
1
1
1
1
1
1
1
1
1
1
1
1
1
1
1
1
1
1
1
1
1
1
1
1
1
1
1
1
1
1
1
1
1
1
1
1
1
1
1
1
1
1000
1000
1000
999.992
1000
999.934
999.852
999.556
999.996
1000
1000
1000
1000
1000
1000
1000
999.992
1000
1000
1000
1000
1000
1000
1000
999.992
1000
1000
1000
1000
1000
1000
1000
999.997
1000
1000
1000
1000
1000
1000
1000
1000
1000
1000
1000
1000
1000
1000
1000
1000
1000
1000
1000
1000
1000
1000
1000
1000
1000
1000
999.997
1000
1000
1000
1000
999.99
1000
1000
1000
1000
1000
1000
1000
999.978
1000
1000
1000
1000
1000
1000
1000
999.974
1000
1000
1000
1000
1000
1000
1000
999.991
1000
1000
1000
1000
1000
1000
1000
1000
1000
1000
1000
1000
1000
1000
1000
1000
1000
1000
1000
1000
1000
1000
1000.02
980.819
1000
1000
999.998
1000
997.751
947.413
891.921
975.671
999.988
999.999
1000
1000
998.544
993.165
988.631
954.875
999.976
999.999
1000
1000
1000
999.679
989.201
928.045
999.976
999.999
1000
1000
1000
999.723
984.782
957.865
999.988
1000
1000
1000
999.972
998.913
979.299
999.506
999.999
1000
1000
1000
993.27
983.434
969.991
1000
1000
1000
1000
1000
999.701
966.18
814.138
473.125
929.219
961.517
939.162
888.42
592.804
68.6878
10.0924
382.548
810.77
960.835
933.532
851.741
607.057
437.21
415.801
395.513
854.976
973.976
940.679
840.68
682.094
586.213
431.231
397.755
885.677
972.613
936.329
826.359
682.782
589.919
397.583
399.855
872.396
958.248
918.192
791.084
641.243
556.349
357.595
426.549
845.385
921.316
881.92
763.371
478.273
361.069
298.507
637.452
904.752
891.387
848.389
803.247
579.356
103.627
0.989474
367.114
426.642
203.007
0.87601
0.997279
0.999113
0.999937
1
323.003
347.927
149.676
0.928841
0.998403
0.999976
1
1
211.773
339.702
199.058
2.54475
0.998259
0.999979
1
1
243.6
360.667
194.515
0.890083
0.998581
0.999983
1
1
306.805
309.495
114.652
0.957369
0.999429
0.999993
1
1
332.301
210.394