/*--------------------------------*- C++ -*----------------------------------*\
| =========                 |                                                 |
| \\      /  F ield         | OpenFOAM: The Open Source CFD Toolbox           |
|  \\    /   O peration     | Version:  plus.master.MPPICInterFoam            |
|   \\  /    A nd           | Web:      www.OpenFOAM.com                      |
|    \\/     M anipulation  |                                                 |
\*---------------------------------------------------------------------------*/
FoamFile
{
    version     2.0;
    format      ascii;
    class       volVectorField;
    location    "7.2";
    object      U;
}
// * * * * * * * * * * * * * * * * * * * * * * * * * * * * * * * * * * * * * //

dimensions      [0 1 -1 0 0 0 0];

internalField   nonuniform List<vector> 
11822
(
(0.00559109 0.0039946 0.520927)
(0.0058681 0.00600193 0.609132)
(0.00243472 0.00684044 0.672487)
(-0.00155604 0.00730571 0.679133)
(-0.00254309 0.00530671 0.620083)
(-0.00127911 0.00345568 0.528782)
(0.000126869 0.00154839 0.449209)
(0.00633759 0.00416918 0.604692)
(0.00723088 0.00885733 0.735092)
(0.0028812 0.00961775 0.806093)
(-0.00314592 0.00713 0.804308)
(-0.00614674 0.00645444 0.742474)
(-0.00405175 0.00468958 0.615305)
(-0.000914406 0.00129824 0.491627)
(0.00851986 0.00134095 0.667443)
(0.00532497 0.00421105 0.793374)
(-0.000975294 0.00582221 0.86348)
(-0.00546777 0.00459262 0.867265)
(-0.00635275 0.00236344 0.799359)
(-0.00426186 0.00218978 0.665663)
(-0.00181872 0.000281397 0.516503)
(0.00831892 -0.00216394 0.654767)
(0.0076011 -0.00494502 0.795074)
(0.00243366 -0.00572887 0.872986)
(-0.00388542 -0.00482729 0.873886)
(-0.00813641 -0.00445004 0.801457)
(-0.00490289 -0.00336711 0.660727)
(-0.00194514 -0.00142717 0.512941)
(0.00590329 -0.00393875 0.599988)
(0.00776308 -0.010374 0.730305)
(0.0039841 -0.013443 0.797016)
(-0.00157247 -0.0118708 0.797205)
(-0.00414651 -0.00758314 0.726226)
(-0.00337965 -0.00615853 0.601475)
(-0.000699749 -0.00243024 0.481605)
(0.00495002 -0.0036184 0.512494)
(0.00625422 -0.00728201 0.599955)
(0.00337 -0.00843894 0.650813)
(-0.00109039 -0.00822323 0.65304)
(-0.00256572 -0.00647152 0.597165)
(-0.00133346 -0.0046046 0.511251)
(3.7166e-05 -0.00229027 0.43402)
(0.00317455 -0.00191968 0.431855)
(0.00305822 -0.00332764 0.475708)
(0.00217309 -0.00420988 0.502606)
(0.00101406 -0.00411002 0.502224)
(0.000597202 -0.00317222 0.474594)
(0.000828857 -0.00272272 0.430799)
(0.00122116 -0.00160557 0.381549)
(-0.0048469 -0.00621909 0.514802)
(-0.00271581 -0.00856269 0.599948)
(-0.000286778 -0.00882726 0.662071)
(0.00314813 -0.00862602 0.666802)
(0.00737191 -0.0092019 0.607249)
(0.0102593 -0.00767014 0.521855)
(0.0106744 -0.00552002 0.44695)
(-0.00778989 -0.00366751 0.595743)
(-0.00359719 -0.00314363 0.72998)
(-0.000893325 -0.0014757 0.803564)
(0.00118597 -0.0015708 0.803588)
(0.00605462 -0.00289844 0.742132)
(0.0118014 -0.00423792 0.603447)
(0.0135905 -0.0036321 0.487728)
(-0.00888534 -0.000448053 0.651376)
(-0.00423652 -7.93794e-05 0.794585)
(-0.00145914 0.0010156 0.871992)
(0.000324742 0.000961393 0.870327)
(0.00490687 0.00037325 0.797496)
(0.0115291 -0.000793679 0.656769)
(0.0148152 -0.00114554 0.51191)
(-0.00949729 0.00250864 0.642101)
(-0.00459176 0.000942053 0.792372)
(-0.000975967 0.000326949 0.868915)
(0.00130804 0.000457071 0.867931)
(0.00548245 0.000761357 0.79338)
(0.011632 0.00164495 0.651656)
(0.0146018 0.00130874 0.508478)
(-0.00871354 0.00498601 0.588666)
(-0.00362807 0.00371861 0.722049)
(-9.9347e-05 0.00326856 0.788118)
(0.00236198 0.00336926 0.7885)
(0.00693987 0.00405558 0.723371)
(0.0116683 0.00446292 0.590646)
(0.0131795 0.00352945 0.477879)
(-0.00588489 0.00723684 0.504338)
(-0.00275707 0.00858238 0.587417)
(0.000195704 0.00937578 0.63779)
(0.00345668 0.00935631 0.638522)
(0.00727841 0.00883843 0.584576)
(0.00998082 0.00705667 0.504483)
(0.0104476 0.00497563 0.43163)
(-0.00363372 0.00818082 0.427782)
(-0.00181668 0.0107688 0.469888)
(0.000742188 0.0122704 0.495713)
(0.00368478 0.0122754 0.495238)
(0.00639963 0.0106748 0.46924)
(0.0079526 0.00779797 0.427792)
(0.00815479 0.00543674 0.380921)
(-0.00740035 -0.00928701 0.50678)
(-0.00465937 -0.0133011 0.574791)
(-0.000241675 -0.0146491 0.6205)
(0.00526742 -0.014801 0.620979)
(0.0106637 -0.01394 0.576605)
(0.0133876 -0.0102606 0.51284)
(0.0127953 -0.00705555 0.447989)
(-0.0119429 -0.00577601 0.572248)
(-0.00721707 -0.00668687 0.691063)
(-0.00150412 -0.00562007 0.766994)
(0.00410886 -0.00637364 0.765571)
(0.0118154 -0.00800886 0.680557)
(0.0173911 -0.00702048 0.574835)
(0.01695 -0.00492807 0.485032)
(-0.0137027 -0.000505797 0.616732)
(-0.00775301 0.000730805 0.765975)
(-0.00208872 0.00253476 0.854515)
(0.00141933 0.00177452 0.852357)
(0.0100259 -0.000502751 0.765916)
(0.0181933 -0.00168141 0.616588)
(0.0190947 -0.00152411 0.506158)
(-0.014021 0.00409859 0.614474)
(-0.00771621 0.00493499 0.763316)
(-0.00194329 0.00543733 0.85143)
(0.00132573 0.00535913 0.849803)
(0.00968415 0.00518132 0.767183)
(0.0176798 0.00362377 0.614476)
(0.0186451 0.00218617 0.503179)
(-0.0118076 0.00760579 0.565981)
(-0.00626927 0.00918601 0.678446)
(-0.0010298 0.0105419 0.75407)
(0.00368457 0.0110089 0.752105)
(0.0106487 0.0103508 0.672667)
(0.0162074 0.00770304 0.567157)
(0.0159985 0.00501458 0.475739)
(-0.00790631 0.00996997 0.494459)
(-0.00449875 0.0131285 0.562646)
(-8.30021e-06 0.0146443 0.605451)
(0.00505556 0.0148554 0.603755)
(0.0101076 0.0135732 0.56065)
(0.0127494 0.00959523 0.497119)
(0.0123896 0.00636569 0.432671)
(-0.00492556 0.0103413 0.42663)
(-0.00267132 0.0138092 0.465512)
(0.000764031 0.0158486 0.488901)
(0.0047574 0.0158027 0.48877)
(0.00810153 0.0134424 0.466056)
(0.00963611 0.0095994 0.428314)
(0.0094783 0.00665722 0.383763)
(-0.00284147 -0.00583706 0.502438)
(-0.000634152 -0.00848358 0.563828)
(0.00240933 -0.00968307 0.603531)
(0.00581785 -0.00931838 0.604254)
(0.00821871 -0.00731396 0.569752)
(0.00846543 -0.00468335 0.512288)
(0.00788062 -0.00364941 0.450136)
(-0.00561778 -0.00382951 0.560025)
(-0.00222592 -0.00475639 0.650016)
(0.00198552 -0.00457524 0.717843)
(0.00662514 -0.00563322 0.715039)
(0.0104944 -0.00576171 0.648301)
(0.0117561 -0.00387409 0.570956)
(0.00998707 -0.0027367 0.486204)
(-0.00710392 -0.000522481 0.599299)
(-0.00278149 0.000595059 0.724917)
(0.00116409 0.00175117 0.823878)
(0.00497426 0.000568346 0.815135)
(0.0104154 -0.00169948 0.705301)
(0.0139492 -0.00151021 0.602032)
(0.0117962 -0.00107978 0.506837)
(-0.00698594 0.00244433 0.600714)
(-0.00206053 0.00426835 0.730325)
(0.00212152 0.00544254 0.830659)
(0.00474833 0.00574357 0.819597)
(0.0097848 0.00338847 0.707182)
(0.0138178 0.00162495 0.601601)
(0.0116092 0.000946221 0.504036)
(-0.00544026 0.00451965 0.5552)
(-0.00200198 0.00631796 0.653567)
(0.00173459 0.00844083 0.734056)
(0.00559023 0.00855556 0.724937)
(0.00925839 0.00669952 0.649677)
(0.0110386 0.0036246 0.564648)
(0.00963008 0.00237689 0.476901)
(-0.00319047 0.00600157 0.489359)
(-0.000726062 0.00785513 0.553306)
(0.00239046 0.00904313 0.593589)
(0.00559573 0.00876823 0.592775)
(0.00792867 0.00681814 0.556509)
(0.0082854 0.00398461 0.496705)
(0.00781579 0.00309051 0.434498)
(-0.00201302 0.00657131 0.425313)
(-0.000247698 0.00812936 0.462816)
(0.00220742 0.00919602 0.485484)
(0.00481545 0.00870568 0.486243)
(0.00655085 0.00667913 0.465308)
(0.00695705 0.00464269 0.42942)
(0.00660517 0.00367875 0.386008)
(0.000401925 -0.00332852 0.494816)
(0.00284035 -0.00343495 0.555127)
(0.00494601 -0.00336644 0.595208)
(0.00617198 -0.00165768 0.598114)
(0.00566809 0.00063976 0.567318)
(0.00444961 9.35389e-05 0.510059)
(0.00494123 -0.0014957 0.447426)
(0.000480937 -0.00266852 0.550234)
(0.00333706 -0.00369951 0.639107)
(0.00671931 -0.00525597 0.703553)
(0.00916368 -0.00405441 0.705041)
(0.00829091 -0.00131902 0.653548)
(0.00498216 0.000157065 0.572892)
(0.00481522 -0.000997652 0.484277)
(-0.000538273 -0.00153438 0.58752)
(0.00215042 -0.00244048 0.710902)
(0.00784829 -0.00412123 0.815826)
(0.0143748 -0.0038019 0.797957)
(0.0129268 -0.00191239 0.703917)
(0.00831599 -0.000750148 0.60667)
(0.00530078 -0.000617621 0.505635)
(-0.000686971 0.000113837 0.589388)
(0.0028549 0.00059799 0.718815)
(0.00889102 0.0020138 0.818848)
(0.0158908 0.000575496 0.811173)
(0.0137565 -0.000670868 0.700336)
(0.00823678 -0.000993198 0.605276)
(0.00528991 -7.71757e-05 0.502682)
(-0.000679853 0.00198425 0.544517)
(0.00157041 0.00271727 0.642478)
(0.00634468 0.00436776 0.726876)
(0.0102649 0.00226895 0.721665)
(0.00918486 -0.000630534 0.651109)
(0.00570601 -0.00120484 0.565161)
(0.00526462 0.000546936 0.474689)
(-0.000360995 0.00371967 0.480509)
(0.00220929 0.00346223 0.543549)
(0.00511092 0.00395337 0.585074)
(0.00688248 0.002124 0.586204)
(0.00635045 -0.000603695 0.553285)
(0.00500717 -0.000185826 0.493843)
(0.00529157 0.00155892 0.431518)
(-0.000842235 0.00526891 0.418321)
(0.00110355 0.00510586 0.455033)
(0.00332743 0.0050269 0.477661)
(0.00514073 0.00376121 0.479404)
(0.00569044 0.00223042 0.460081)
(0.00549478 0.00217907 0.425435)
(0.00559575 0.00306693 0.382746)
(-0.00278192 -0.00604636 0.485456)
(0.000957296 -0.00603951 0.548572)
(0.00462303 -0.00553242 0.59428)
(0.00672828 -0.00275145 0.600376)
(0.00671499 -0.00237621 0.568523)
(0.00688365 -0.0033069 0.506481)
(0.00881233 -0.00440456 0.44225)
(-0.00266931 -0.00450435 0.540775)
(0.000991457 -0.00621772 0.639297)
(0.00617993 -0.00811971 0.718852)
(0.0105007 -0.00426675 0.732175)
(0.0104993 -0.00114639 0.689108)
(0.00826992 -0.00148833 0.580474)
(0.00935241 -0.00246482 0.480432)
(-0.00284514 -0.00257733 0.577772)
(0.00133494 -0.00489465 0.698645)
(0.0084711 -0.00644583 0.76608)
(0.0158591 -0.0053916 0.774293)
(0.0164184 -0.00217016 0.732224)
(0.0104671 -0.001181 0.630133)
(0.00916218 -0.000866907 0.503747)
(-0.00293733 0.000287266 0.575751)
(0.00118756 -0.000634054 0.699696)
(0.00891341 -0.000134663 0.767759)
(0.0171931 -0.00224502 0.777361)
(0.0178762 -0.00146521 0.746163)
(0.0107835 -0.000411007 0.62828)
(0.00948719 0.000721611 0.50069)
(-0.00374702 0.00388759 0.531506)
(-0.000504563 0.00410876 0.635658)
(0.00647939 0.00496949 0.711594)
(0.0125922 0.00103495 0.72227)
(0.0128243 0.000272037 0.680943)
(0.00954149 0.00110328 0.570476)
(0.00995781 0.0027677 0.470352)
(-0.00339835 0.00690687 0.468872)
(0.000366318 0.00673389 0.531622)
(0.00500137 0.00698039 0.57571)
(0.00769386 0.00400321 0.582982)
(0.00777051 0.00339846 0.552216)
(0.00789169 0.00397144 0.48911)
(0.00938389 0.0052058 0.425884)
(-0.00388709 0.00948503 0.409531)
(-0.000775665 0.00948916 0.444828)
(0.00256241 0.00928236 0.467441)
(0.00515628 0.00781678 0.47013)
(0.00664415 0.00724507 0.452208)
(0.00783383 0.00719496 0.418842)
(0.00921594 0.0077591 0.377862)
(0.0013664 0.000686793 0.393476)
(0.00193442 0.000160277 0.354789)
(0.00226999 6.91453e-05 0.320414)
(0.0023257 0.000171187 0.289792)
(0.00225053 0.000403607 0.262243)
(0.00208692 0.000713143 0.236599)
(0.0018672 0.00105773 0.210149)
(0.00172044 0.00138772 0.172248)
(0.000928202 0.000489489 0.419692)
(0.00191161 -6.45608e-05 0.370025)
(0.00233193 -8.89563e-05 0.328376)
(0.00239581 4.10652e-05 0.292499)
(0.0022366 0.000296002 0.260962)
(0.00195069 0.000634066 0.232252)
(0.00160263 0.00100938 0.203434)
(0.00130749 0.00132034 0.163716)
(0.000689731 -2.8756e-05 0.433296)
(0.00192662 -0.000189911 0.376956)
(0.00243578 -7.90953e-05 0.330482)
(0.00250457 0.000102495 0.291101)
(0.00228566 0.000363644 0.256937)
(0.00190446 0.000685731 0.226278)
(0.0014368 0.00104856 0.196028)
(0.00102861 0.00140474 0.155232)
(0.000625749 -0.000714273 0.429377)
(0.00187725 -0.000350581 0.371804)
(0.0023735 -8.24995e-05 0.324349)
(0.00242881 0.00016266 0.284203)
(0.00217311 0.000428182 0.24949)
(0.0017264 0.000722309 0.218447)
(0.00118291 0.00105463 0.187997)
(0.000697154 0.00143965 0.147306)
(0.000993068 -0.00115049 0.408085)
(0.00189294 -0.000425749 0.354681)
(0.00222299 -7.11453e-05 0.310113)
(0.00218494 0.000194247 0.27204)
(0.0018834 0.000420093 0.238879)
(0.0014166 0.000645869 0.209046)
(0.000861071 0.000908468 0.179631)
(0.000344059 0.00128355 0.140214)
(0.00130016 -0.00117159 0.374979)
(0.00189227 -0.000389381 0.329322)
(0.00206246 -6.10322e-05 0.29037)
(0.00194514 0.000141816 0.256436)
(0.00163437 0.00027034 0.226415)
(0.00120492 0.000375328 0.199032)
(0.00070332 0.00050292 0.17165)
(0.000205344 0.00076405 0.134486)
(0.00172893 -0.000879229 0.336645)
(0.00197292 -0.00032246 0.300898)
(0.00203625 -6.97311e-05 0.268766)
(0.00189184 4.90087e-05 0.239871)
(0.00162614 8.70711e-05 0.213735)
(0.00126851 8.60488e-05 0.189416)
(0.000842119 9.90409e-05 0.164581)
(0.000362657 0.000270043 0.13017)
(0.00912782 -0.00443614 0.393753)
(0.00768695 -0.00360232 0.356356)
(0.00650717 -0.00271162 0.322838)
(0.00546961 -0.00182526 0.292798)
(0.00452714 -0.000938963 0.265659)
(0.0036598 -8.30109e-05 0.240315)
(0.00287312 0.000717656 0.214117)
(0.00220425 0.00147001 0.176439)
(0.011501 -0.00328846 0.419056)
(0.00947688 -0.00280608 0.371083)
(0.00774719 -0.0021223 0.330522)
(0.00626552 -0.00138425 0.295363)
(0.00494862 -0.000603017 0.264328)
(0.00376394 0.000166205 0.235998)
(0.00270637 0.000892368 0.207493)
(0.00177212 0.00151054 0.168032)
(0.0128646 -0.00125068 0.432199)
(0.0107428 -0.00114053 0.377719)
(0.00874095 -0.000831536 0.332477)
(0.00696361 -0.000419757 0.293889)
(0.00535527 8.35615e-05 0.260294)
(0.00389757 0.000625531 0.230052)
(0.0025908 0.00117619 0.200135)
(0.00144498 0.00169639 0.159594)
(0.0127428 0.00099052 0.428299)
(0.0106745 0.000776912 0.372576)
(0.00868206 0.000698869 0.326348)
(0.00687174 0.000750615 0.287001)
(0.00519972 0.000912816 0.252846)
(0.00366066 0.00115604 0.222222)
(0.00226351 0.0014614 0.192107)
(0.00102879 0.00181499 0.151667)
(0.011313 0.00289072 0.407415)
(0.00938156 0.0023672 0.355705)
(0.007622 0.00195025 0.312221)
(0.00600257 0.00167569 0.274867)
(0.00448872 0.0015209 0.242222)
(0.0030712 0.00147252 0.21279)
(0.00176229 0.00152455 0.183704)
(0.000575612 0.00169847 0.144543)
(0.00904348 0.00397319 0.375047)
(0.00749599 0.00321046 0.33075)
(0.00613301 0.00257695 0.292657)
(0.00485934 0.00207339 0.259317)
(0.00364214 0.00168416 0.229745)
(0.00247528 0.00139581 0.202725)
(0.00137431 0.00121428 0.175651)
(0.000331968 0.0011816 0.138745)
(0.00711073 0.00420182 0.33762)
(0.00602043 0.00339592 0.302799)
(0.00502321 0.00272162 0.271288)
(0.00407146 0.00214347 0.24285)
(0.00313253 0.00163435 0.217075)
(0.00221131 0.00119245 0.193064)
(0.00131417 0.000843886 0.168507)
(0.000401897 0.000658449 0.134337)
(0.0105804 -0.00541209 0.397349)
(0.00872436 -0.00419474 0.360829)
(0.00730266 -0.00308394 0.327611)
(0.00607534 -0.00202276 0.297703)
(0.00497503 -0.000997469 0.270647)
(0.00397258 -1.62895e-05 0.245368)
(0.00307338 0.000889356 0.219247)
(0.00227792 0.00170314 0.181637)
(0.0134829 -0.00409322 0.421685)
(0.0107883 -0.00321595 0.375214)
(0.00868468 -0.00234874 0.33518)
(0.00696592 -0.00144993 0.300243)
(0.00546084 -0.000541647 0.269348)
(0.00411514 0.000326303 0.241142)
(0.00291223 0.00112535 0.212759)
(0.00182127 0.0017833 0.173368)
(0.0153109 -0.00149776 0.43414)
(0.0122903 -0.00123751 0.381627)
(0.00981616 -0.000842908 0.337077)
(0.00772291 -0.00033158 0.298763)
(0.00587653 0.000262732 0.265331)
(0.00422205 0.000878604 0.235227)
(0.00274874 0.00148289 0.205438)
(0.00144047 0.00202586 0.164959)
(0.0150895 0.00144776 0.430297)
(0.0121697 0.0011051 0.376473)
(0.00972371 0.000990815 0.330905)
(0.00758494 0.00104898 0.291824)
(0.00566434 0.00123136 0.257835)
(0.00391722 0.00149433 0.227356)
(0.00234607 0.00180943 0.197374)
(0.00095033 0.00214618 0.157001)
(0.0130631 0.00376514 0.410044)
(0.0105751 0.00295561 0.359699)
(0.00847011 0.00244557 0.316699)
(0.0065881 0.00212207 0.279573)
(0.00485669 0.00193774 0.247095)
(0.00324713 0.00186412 0.217819)
(0.00177166 0.00188752 0.188879)
(0.000431021 0.00200975 0.149797)
(0.010348 0.00492675 0.378374)
(0.00841533 0.00385796 0.334838)
(0.00679184 0.00313561 0.297036)
(0.00530509 0.00257242 0.263875)
(0.00389642 0.00213638 0.234463)
(0.00255224 0.00180253 0.207604)
(0.00129509 0.00157432 0.180686)
(0.000109668 0.00147609 0.143871)
(0.0080952 0.00515937 0.341411)
(0.00674172 0.00413489 0.306957)
(0.00550991 0.003358 0.275599)
(0.00436845 0.00269533 0.247286)
(0.00325369 0.00210467 0.221648)
(0.00217374 0.00158208 0.197785)
(0.00114296 0.0011556 0.173373)
(0.000123412 0.000872573 0.139285)
(0.00715812 -0.00293228 0.400305)
(0.0064575 -0.00237406 0.364323)
(0.00579999 -0.00178376 0.331499)
(0.00515713 -0.00112295 0.301988)
(0.00447746 -0.000396191 0.275316)
(0.00377881 0.000372951 0.250372)
(0.00308434 0.00114105 0.224511)
(0.00239408 0.00181203 0.187102)
(0.00860622 -0.00231788 0.424294)
(0.00751923 -0.00177414 0.378485)
(0.00662782 -0.00123824 0.338946)
(0.00574821 -0.000606147 0.30448)
(0.00484619 8.05742e-05 0.274044)
(0.00390608 0.000790977 0.246244)
(0.00294964 0.00148205 0.218177)
(0.00199101 0.00204751 0.179005)
(0.00975125 -0.000940188 0.436556)
(0.00843961 -0.000635433 0.384809)
(0.0073175 -0.000283208 0.340789)
(0.00620567 0.000190058 0.302975)
(0.00507082 0.000727217 0.270033)
(0.00389404 0.00129491 0.240368)
(0.00271019 0.00185981 0.210918)
(0.00156368 0.00234816 0.170679)
(0.00965167 0.000775376 0.432698)
(0.00839465 0.000798321 0.379622)
(0.00724039 0.000931261 0.334591)
(0.00606271 0.00115962 0.29603)
(0.00483681 0.00144865 0.262555)
(0.00355478 0.00177385 0.232539)
(0.00226185 0.00211775 0.202919)
(0.00102423 0.00243966 0.162812)
(0.00845913 0.00211222 0.412535)
(0.00743315 0.00193807 0.362844)
(0.00642609 0.00190576 0.320388)
(0.00534792 0.00191757 0.283805)
(0.00418753 0.00196189 0.251866)
(0.00295583 0.00203073 0.22307)
(0.00169857 0.00212848 0.194507)
(0.000486567 0.00225981 0.155719)
(0.00706726 0.00281299 0.381028)
(0.00623006 0.00254922 0.338065)
(0.00538139 0.00240679 0.300797)
(0.00444966 0.00225816 0.26819)
(0.00342965 0.00210138 0.239322)
(0.00234484 0.00194221 0.212944)
(0.00123406 0.0018017 0.186412)
(0.000150228 0.00171694 0.149918)
(0.00598161 0.00329793 0.344322)
(0.00526074 0.00302024 0.31037)
(0.00450468 0.00277837 0.279516)
(0.00369901 0.00248978 0.251735)
(0.00283176 0.00215333 0.226617)
(0.00192875 0.00179342 0.203213)
(0.00100855 0.00144306 0.179182)
(9.35278e-05 0.00116638 0.145423)
(0.00595851 -0.00187419 0.397635)
(0.00633923 -0.00204817 0.361974)
(0.00641956 -0.00200619 0.329733)
(0.0062366 -0.0016847 0.300864)
(0.00573113 -0.00108537 0.27477)
(0.00496436 -0.000272011 0.250254)
(0.00416045 0.000541827 0.22452)
(0.00276548 0.00168606 0.18653)
(0.00609607 -0.00128119 0.421801)
(0.0067131 -0.00128098 0.376203)
(0.00698562 -0.00116431 0.337261)
(0.00686951 -0.000842085 0.303537)
(0.00633779 -0.000322544 0.273816)
(0.00542251 0.000360431 0.246587)
(0.00442428 0.00103572 0.218803)
(0.00258758 0.00196867 0.179165)
(0.00639529 -0.000490211 0.434272)
(0.00708838 -0.000310859 0.3826)
(0.00739009 -6.68794e-05 0.339156)
(0.00727194 0.000295144 0.30213)
(0.00667982 0.000755583 0.269981)
(0.00563414 0.00130172 0.240977)
(0.00448243 0.00184335 0.211897)
(0.00233758 0.00251644 0.171232)
(0.00643431 0.000464679 0.430372)
(0.00713143 0.000848904 0.377418)
(0.00739219 0.00121186 0.333001)
(0.00721216 0.00157298 0.295262)
(0.00653396 0.00192686 0.262608)
(0.00538066 0.00227562 0.233269)
(0.0041216 0.00262189 0.204013)
(0.0018196 0.00292394 0.163421)
(0.00631001 0.00145162 0.409973)
(0.00683971 0.00201819 0.360609)
(0.00697119 0.00245121 0.318861)
(0.00668116 0.00276221 0.28311)
(0.00591107 0.00295537 0.251951)
(0.00469824 0.00305593 0.223756)
(0.0034019 0.00316166 0.195443)
(0.001125 0.00305193 0.155992)
(0.00606818 0.00246334 0.378287)
(0.00634426 0.00306954 0.33588)
(0.00627414 0.00345784 0.299377)
(0.00583117 0.0036362 0.26755)
(0.00497925 0.00360342 0.239347)
(0.00377045 0.00340922 0.213406)
(0.00252319 0.00323369 0.186917)
(0.000463125 0.00270273 0.149504)
(0.00589921 0.00366879 0.341656)
(0.0058058 0.00411992 0.308317)
(0.00550394 0.00431535 0.278181)
(0.00492534 0.00423406 0.251054)
(0.004057 0.00388314 0.226416)
(0.00294842 0.00333988 0.203218)
(0.00183259 0.00284383 0.178954)
(0.00012353 0.0019621 0.143966)
(0.010872 -0.00493536 0.393767)
(0.0119279 -0.0056747 0.360133)
(0.0127323 -0.00624333 0.331031)
(0.0131411 -0.00646383 0.306267)
(0.0130205 -0.00626936 0.285445)
(0.0122222 -0.00554198 0.267998)
(0.0104869 -0.00406732 0.253151)
(0.00668532 -0.00102879 0.237559)
(0.0113889 -0.00283595 0.417378)
(0.0129043 -0.00315745 0.373395)
(0.0140944 -0.00343952 0.337359)
(0.0148278 -0.00351239 0.307626)
(0.014926 -0.00331409 0.283145)
(0.0141605 -0.00272884 0.263034)
(0.0122043 -0.0016108 0.24641)
(0.00757829 0.000658569 0.230489)
(0.0115205 -0.000769855 0.429797)
(0.0132975 -0.000780439 0.379272)
(0.0147002 -0.000768661 0.338528)
(0.0156156 -0.000683515 0.305393)
(0.0158326 -0.000494601 0.278448)
(0.015056 -0.000131973 0.256601)
(0.0128991 0.00047807 0.23888)
(0.00761861 0.00163939 0.222801)
(0.0117011 0.00131146 0.425796)
(0.013435 0.00169802 0.374026)
(0.0148146 0.00201191 0.332345)
(0.0157124 0.00225898 0.298528)
(0.0158939 0.0024419 0.271118)
(0.0150448 0.00256647 0.249006)
(0.0127719 0.00262707 0.231256)
(0.00725762 0.00255429 0.21572)
(0.0117042 0.00363755 0.405281)
(0.013164 0.00431288 0.357675)
(0.0143327 0.00481095 0.318918)
(0.0150435 0.00512887 0.287238)
(0.0150685 0.00522719 0.261435)
(0.0141238 0.00505207 0.240565)
(0.0118539 0.00452347 0.22386)
(0.0065747 0.00321317 0.209543)
(0.0111599 0.00597405 0.37412)
(0.0123815 0.00677945 0.334098)
(0.0132729 0.00733634 0.300924)
(0.0136971 0.00761394 0.273392)
(0.0134994 0.00752587 0.250701)
(0.0124769 0.00697745 0.232183)
(0.0103582 0.00582866 0.217306)
(0.00576465 0.0033546 0.204612)
(0.010599 0.008435 0.339091)
(0.0112321 0.00934284 0.308437)
(0.011675 0.00991716 0.281861)
(0.0117059 0.0100832 0.2592)
(0.011241 0.00977169 0.240185)
(0.0101423 0.00888471 0.224443)
(0.00820221 0.00726139 0.21164)
(0.00436267 0.00400957 0.200243)
(0.00223646 -0.000105403 0.384275)
(0.00162531 0.00100959 0.344294)
(0.00124049 0.0016605 0.308914)
(0.00113943 0.00211267 0.277379)
(0.00119205 0.00241755 0.249043)
(0.00135738 0.00261881 0.222781)
(0.00159834 0.00274627 0.195922)
(0.00177463 0.002846 0.158202)
(0.0027862 -0.000896342 0.437968)
(0.00147745 0.000562602 0.38466)
(0.000646403 0.00129219 0.340355)
(0.000275626 0.00187913 0.302346)
(0.000229411 0.00231637 0.269089)
(0.000401357 0.00264948 0.238976)
(0.000715831 0.00291766 0.208918)
(0.000985959 0.00313936 0.167669)
(0.00269814 -0.00120005 0.488889)
(0.00101244 0.000128802 0.421957)
(-0.000179244 0.000801388 0.369263)
(-0.000809604 0.00131798 0.32536)
(-0.00100083 0.0017238 0.287769)
(-0.000853833 0.00206018 0.254357)
(-0.000482297 0.0023737 0.221607)
(-0.00010326 0.00268505 0.177375)
(0.00381383 -0.00081316 0.522559)
(0.00139497 -0.000151289 0.446269)
(-0.000286046 0.000269118 0.38883)
(-0.00122683 0.000484657 0.341661)
(-0.00158466 0.000637791 0.301796)
(-0.00152355 0.00079605 0.266654)
(-0.00118331 0.000987941 0.232466)
(-0.000810859 0.00122621 0.186518)
(0.00433233 0.000712731 0.526832)
(0.00182541 0.000229217 0.450861)
(0.000133462 8.41223e-05 0.394455)
(-0.000827642 -0.000153487 0.348173)
(-0.0012024 -0.000374387 0.308861)
(-0.00119484 -0.000485092 0.274134)
(-0.000940428 -0.000488074 0.240184)
(-0.000667947 -0.000383875 0.19417)
(0.00350673 0.00152248 0.497876)
(0.00188491 0.000345359 0.435545)
(0.00070418 -0.000199693 0.386041)
(9.691e-05 -0.000671755 0.344482)
(-0.000148523 -0.00105096 0.308608)
(-0.000147968 -0.00127422 0.276403)
(-7.6979e-06 -0.00136669 0.244323)
(9.39945e-05 -0.00134473 0.199874)
(0.00365777 0.00162765 0.453899)
(0.0025006 0.000311143 0.408135)
(0.00164827 -0.000321781 0.368517)
(0.00119797 -0.000777358 0.333759)
(0.000935633 -0.00106711 0.302898)
(0.0008013 -0.00121339 0.274454)
(0.000736205 -0.00124123 0.24525)
(0.000587496 -0.00118001 0.203323)
(-0.00356261 0.00685112 0.382069)
(-0.00277519 0.00599999 0.343427)
(-0.00207972 0.00535132 0.309023)
(-0.00136697 0.00485645 0.27825)
(-0.000629474 0.00437436 0.250539)
(0.000131565 0.00393417 0.224815)
(0.000885385 0.00354194 0.198459)
(0.00156084 0.00316274 0.1613)
(-0.00634471 0.00662477 0.433646)
(-0.00531045 0.00582422 0.382401)
(-0.00432827 0.00521083 0.3395)
(-0.00331723 0.00476493 0.302538)
(-0.00228096 0.00434618 0.270105)
(-0.00123011 0.00400172 0.240682)
(-0.000203802 0.00373578 0.211247)
(0.000717422 0.00348552 0.170672)
(-0.0101699 0.00497048 0.482975)
(-0.00904828 0.00446303 0.418669)
(-0.00757764 0.0039772 0.367722)
(-0.00608839 0.00362335 0.32509)
(-0.00459183 0.00333673 0.288467)
(-0.00312466 0.00315323 0.255848)
(-0.00172242 0.00307338 0.223803)
(-0.000452162 0.00305274 0.180318)
(-0.0119718 0.00213241 0.515837)
(-0.0111524 0.00172308 0.442569)
(-0.00950509 0.00135102 0.387025)
(-0.00773336 0.00112153 0.341277)
(-0.00597194 0.00104748 0.302363)
(-0.00428152 0.00110877 0.268039)
(-0.00269421 0.00127094 0.234589)
(-0.00126657 0.00151266 0.189427)
(-0.0115544 -0.00103541 0.519825)
(-0.0105695 -0.00139901 0.44712)
(-0.00884922 -0.00158648 0.392552)
(-0.00708973 -0.00165493 0.347607)
(-0.0054205 -0.001489 0.309347)
(-0.00386943 -0.00117028 0.27548)
(-0.0024407 -0.000764784 0.242278)
(-0.00117981 -0.000260495 0.197054)
(-0.0088888 -0.00394994 0.492568)
(-0.00741928 -0.00390562 0.432409)
(-0.00587904 -0.00369934 0.38449)
(-0.00453793 -0.00348831 0.344149)
(-0.00332812 -0.00305925 0.309245)
(-0.00223922 -0.00253388 0.27783)
(-0.00125595 -0.00197223 0.246448)
(-0.000422343 -0.00134176 0.202756)
(-0.00473488 -0.00530929 0.450238)
(-0.00356721 -0.00471048 0.406069)
(-0.002764 -0.00419394 0.36772)
(-0.00206362 -0.00372992 0.33399)
(-0.00145006 -0.00315611 0.303936)
(-0.000870177 -0.00254126 0.276148)
(-0.000342872 -0.00191441 0.247526)
(6.18058e-05 -0.00123631 0.206245)
(-0.00466993 0.00826916 0.382897)
(-0.00365299 0.00700517 0.345245)
(-0.00277121 0.00615273 0.3114)
(-0.00190767 0.00547613 0.28108)
(-0.00101507 0.00481172 0.253775)
(-0.000100261 0.00420852 0.228428)
(0.000797576 0.00367545 0.202439)
(0.00162487 0.00316215 0.165658)
(-0.00787742 0.00823739 0.432004)
(-0.006441 0.00686918 0.383095)
(-0.00516244 0.00602412 0.341256)
(-0.00393939 0.00538768 0.304978)
(-0.00271205 0.00477811 0.273092)
(-0.00148444 0.00427143 0.244149)
(-0.000299744 0.00386864 0.215164)
(0.000786036 0.00349523 0.175051)
(-0.012348 0.00648419 0.477653)
(-0.0105973 0.00541692 0.418147)
(-0.00868481 0.00468547 0.368963)
(-0.00683257 0.00414898 0.327265)
(-0.00505956 0.00371836 0.291309)
(-0.00336406 0.00342255 0.259238)
(-0.00177569 0.00325135 0.22769)
(-0.000331771 0.00314655 0.184713)
(-0.0150426 0.00301391 0.507851)
(-0.0133574 0.00214269 0.441354)
(-0.0109884 0.00157154 0.387996)
(-0.00869451 0.00127644 0.343317)
(-0.00655517 0.00122136 0.305183)
(-0.00458198 0.00132529 0.271441)
(-0.00277327 0.00152903 0.238502)
(-0.00114996 0.00179461 0.193867)
(-0.0148945 -0.00142995 0.510701)
(-0.0129058 -0.00186556 0.445782)
(-0.010381 -0.0021334 0.39358)
(-0.00812415 -0.00205811 0.349777)
(-0.00609166 -0.00163729 0.312267)
(-0.00426792 -0.00107157 0.278957)
(-0.00263027 -0.000459176 0.246252)
(-0.00118548 0.000202198 0.201545)
(-0.0115813 -0.00544576 0.487229)
(-0.00916794 -0.00500994 0.431891)
(-0.00708947 -0.00467777 0.385866)
(-0.00541332 -0.00418892 0.34654)
(-0.00400547 -0.00339074 0.312312)
(-0.00274022 -0.00253167 0.281424)
(-0.00160365 -0.00169545 0.250511)
(-0.000608648 -0.000852053 0.207303)
(-0.00657834 -0.00716405 0.448954)
(-0.00488549 -0.00605172 0.407091)
(-0.00379631 -0.00517671 0.36987)
(-0.00291929 -0.0044411 0.336872)
(-0.00216579 -0.0035451 0.307341)
(-0.00144015 -0.00263367 0.279969)
(-0.000776284 -0.00174622 0.251721)
(-0.000223756 -0.000842474 0.210827)
(-0.00242335 0.00587722 0.382699)
(-0.00218122 0.00546604 0.34607)
(-0.00183999 0.00518803 0.313149)
(-0.00137585 0.00484765 0.283699)
(-0.000763438 0.00444496 0.25718)
(-4.42185e-05 0.0040148 0.232505)
(0.000733344 0.00357923 0.207073)
(0.00148137 0.00311478 0.170795)
(-0.00389532 0.00540149 0.430203)
(-0.00371894 0.00493376 0.382742)
(-0.00340339 0.00476501 0.342094)
(-0.00287349 0.0045141 0.306879)
(-0.0021392 0.00422418 0.275934)
(-0.00125002 0.00393058 0.247788)
(-0.000276565 0.00365332 0.219444)
(0.00068314 0.00334884 0.179891)
(-0.00623858 0.00406892 0.473725)
(-0.00604893 0.00369974 0.416664)
(-0.00556175 0.00354873 0.368988)
(-0.00481026 0.00339248 0.328543)
(-0.00384969 0.00326122 0.293656)
(-0.00272171 0.00317074 0.262488)
(-0.00150025 0.00312708 0.231662)
(-0.000287268 0.00309238 0.189294)
(-0.00779186 0.00168765 0.501942)
(-0.00765236 0.00129435 0.43917)
(-0.00698065 0.00110906 0.387606)
(-0.00604536 0.00111787 0.344289)
(-0.00493206 0.00126022 0.307096)
(-0.00367074 0.00148977 0.274486)
(-0.00233928 0.00176639 0.242333)
(-0.00102998 0.00205747 0.198326)
(-0.00773952 -0.00128768 0.504923)
(-0.0073011 -0.00157816 0.443761)
(-0.00656239 -0.0017034 0.393332)
(-0.00567596 -0.00144835 0.350878)
(-0.0046638 -0.000973422 0.314504)
(-0.00354034 -0.000403129 0.28213)
(-0.00236635 0.000198275 0.250142)
(-0.00120992 0.00081786 0.206024)
(-0.00567238 -0.00390093 0.48359)
(-0.00501737 -0.00367515 0.430833)
(-0.00447144 -0.0035604 0.38633)
(-0.00392477 -0.00309322 0.348213)
(-0.00327959 -0.00241667 0.314985)
(-0.00252233 -0.0016691 0.284904)
(-0.00170342 -0.000907878 0.254619)
(-0.000887341 -0.000142881 0.21193)
(-0.00315549 -0.00495888 0.447792)
(-0.00279314 -0.00441123 0.407434)
(-0.00257285 -0.00401707 0.371334)
(-0.00234363 -0.00346822 0.339281)
(-0.00199626 -0.00276136 0.310547)
(-0.00155367 -0.00198588 0.283826)
(-0.00106796 -0.0011696 0.256095)
(-0.000618079 -0.000317701 0.215622)
(-0.00213934 0.00571885 0.376891)
(-0.0026188 0.00610444 0.341496)
(-0.00279306 0.00624706 0.309794)
(-0.00260724 0.00612002 0.281426)
(-0.0020449 0.00573444 0.255781)
(-0.00116605 0.00515662 0.231705)
(-0.000212521 0.00460447 0.206488)
(0.00131651 0.00360856 0.16963)
(-0.00223953 0.00433555 0.422772)
(-0.00332121 0.00486771 0.376853)
(-0.00390724 0.00520785 0.337747)
(-0.00396598 0.00529527 0.303939)
(-0.00350773 0.00517382 0.274203)
(-0.0025929 0.00489183 0.246993)
(-0.00154769 0.00461359 0.219221)