/*--------------------------------*- C++ -*----------------------------------*\
| =========                 |                                                 |
| \\      /  F ield         | OpenFOAM: The Open Source CFD Toolbox           |
|  \\    /   O peration     | Version:  plus.master                           |
|   \\  /    A nd           | Web:      www.OpenFOAM.com                      |
|    \\/     M anipulation  |                                                 |
\*---------------------------------------------------------------------------*/
FoamFile
{
    version     2.0;
    format      ascii;
    class       surfaceScalarField;
    location    "6.2";
    object      alphaPhi;
}
// * * * * * * * * * * * * * * * * * * * * * * * * * * * * * * * * * * * * * //

dimensions      [0 3 -1 0 0 0 0];

internalField   nonuniform List<scalar> 
138768
(
1.67689e-06
1.66721e-06
2.9772e-07
-1.88219e-06
-1.76061e-06
1.38671e-06
1.75709e-06
4.85885e-07
-1.95142e-06
2.5679e-07
2.36323e-06
8.2086e-07
-2.05427e-06
-1.18555e-06
2.5629e-06
9.81491e-07
-2.10212e-06
-2.18631e-06
2.24089e-06
6.98022e-07
-1.9382e-06
-2.37127e-06
1.59824e-06
3.87374e-07
-1.80068e-06
1.54483e-06
2.42896e-07
-2.55552e-06
-1.60399e-06
1.77934e-06
1.42979e-06
4.67255e-07
-2.00935e-06
1.33383e-06
1.35229e-06
1.6467e-06
8.52133e-07
9.93827e-07
2.49702e-06
-1.2584e-06
1.74883e-06
3.05453e-06
-1.69275e-06
8.20339e-07
2.39551e-06
-2.22202e-06
1.317e-06
1.52092e-06
1.37414e-06
3.33597e-07
-2.38525e-06
2.4143e-06
3.31697e-07
7.66599e-07
-2.08292e-06
1.05612e-06
8.73996e-07
2.41576e-06
2.86061e-07
2.59023e-07
1.66228e-06
-2.69534e-07
1.11256e-07
1.64397e-06
-1.27442e-06
2.91054e-07
1.70791e-06
-2.58395e-06
9.09788e-07
2.34913e-06
4.15312e-07
5.84351e-07
-2.20932e-06
2.5701e-06
-8.36346e-07
9.15228e-07
-2.31736e-06
2.07377e-06
-1.15404e-06
2.48855e-06
1.24158e-07
-2.66386e-07
2.14339e-06
-8.08764e-08
-1.37239e-07
4.53567e-07
-1.60772e-06
-2.99774e-07
1.52961e-06
-2.59716e-06
-1.12426e-06
2.98912e-06
-7.74705e-07
8.17765e-07
-2.22494e-06
2.38262e-06
-1.722e-06
7.19696e-07
-2.21673e-06
9.8505e-07
-1.49813e-06
2.35352e-06
2.73795e-07
-1.07398e-06
1.67175e-06
-2.8443e-07
-1.80811e-06
1.68965e-06
-1.30523e-06
-8.82291e-07
1.76563e-06
-2.56956e-06
-1.44429e-06
2.0048e-06
-1.62141e-06
5.35383e-07
-2.25831e-06
1.72081e-06
-1.90329e-06
4.36536e-07
-1.97572e-06
1.31848e-06
-1.90937e-06
1.5909e-06
7.8724e-07
-2.38361e-06
2.46456e-06
-1.37484e-06
-2.52999e-06
3.00511e-06
-1.75524e-06
-2.28641e-06
2.31898e-06
-2.22146e-06
-1.74164e-06
1.45671e-06
-1.69616e-06
3.13727e-07
-2.46058e-06
1.71683e-06
2.77845e-07
-1.85526e-06
-2.04273e-06
1.3418e-06
4.40474e-07
-1.97433e-06
1.31735e-07
7.76213e-07
-1.94995e-06
-1.26255e-06
9.3044e-07
-2.06619e-06
-2.28691e-06
6.2905e-07
-1.89121e-06
-2.41878e-06
3.51702e-07
-1.96165e-06
2.33392e-07
-2.49114e-06
-1.85563e-06
1.65601e-06
1.589e-06
7.2094e-07
-1.95769e-06
-1.71055e-06
9.48572e-07
2.14908e-06
1.0209e-06
-1.97661e-06
-3.37481e-08
2.12273e-06
1.59639e-06
-1.91593e-06
-1.085e-06
1.90693e-06
1.89659e-06
-1.77078e-06
-1.93434e-06
1.88916e-06
1.38783e-06
-1.72964e-06
-2.37169e-06
1.53513e-06
8.55322e-07
-1.56578e-06
9.73742e-07
6.59094e-07
-2.50259e-06
-1.25902e-06
2.18751e-06
1.10192e-06
9.81147e-07
-2.21427e-06
1.6242e-06
1.91388e-06
2.15614e-06
4.54863e-07
1.74944e-06
3.62204e-06
-1.16198e-06
1.36347e-06
4.55298e-06
-2.47772e-06
1.27415e-06
3.44327e-06
-2.66992e-06
1.24297e-06
1.81095e-06
5.00475e-07
7.79108e-07
-2.64222e-06
2.29093e-06
2.85692e-07
1.49342e-06
-2.20152e-06
1.70369e-06
8.13164e-07
3.45812e-06
1.44103e-07
3.32938e-07
2.81047e-06
-1.08098e-07
3.02536e-08
2.20603e-06
-1.86474e-06
7.77474e-08
2.79015e-06
-2.33349e-06
4.25876e-07
3.23139e-06
5.93409e-08
1.14117e-06
-2.44915e-06
2.35299e-06
-6.78257e-07
1.74644e-06
-2.22024e-06
2.59464e-06
-1.03211e-06
4.09212e-06
3.92872e-07
-3.20784e-07
3.3637e-06
1.10056e-07
-1.45109e-08
7.13126e-07
-6.32688e-07
-7.29116e-08
1.71085e-06
-1.88479e-06
-5.93121e-07
4.39436e-06
-3.61609e-07
1.5312e-06
-2.17731e-06
2.30953e-06
-1.46044e-06
1.41312e-06
-2.22078e-06
1.71742e-06
-2.19147e-06
3.39011e-06
1.50754e-07
-1.94815e-06
2.80365e-06
-1.37264e-07
-1.30206e-06
2.30407e-06
-2.09348e-06
-1.41205e-06
2.9429e-06
-2.37114e-06
-1.41536e-06
3.10464e-06
-7.84915e-07
1.06403e-06
-2.47651e-06
2.06787e-06
-1.88517e-06
9.22447e-07
-2.12905e-06
1.53586e-06
-2.32691e-06
2.06115e-06
3.4747e-07
-2.26753e-06
3.61567e-06
-1.35793e-06
-2.05694e-06
4.67263e-06
-2.53488e-06
-2.02333e-06
3.39742e-06
-2.65152e-06
-1.74477e-06
1.70707e-06
-1.25708e-06
7.38609e-07
-2.60421e-06
1.53484e-06
6.81003e-07
-1.84541e-06
-1.97765e-06
8.67315e-07
9.68891e-07
-2.18775e-06
-1.07099e-07
1.58739e-06
-2.10431e-06
-1.17897e-06
1.92296e-06
-1.97759e-06
-1.92769e-06
1.3139e-06
-1.95948e-06
-2.30359e-06
8.00535e-07
-1.81773e-06
6.33271e-07
-2.42294e-06
-1.53759e-06
1.70907e-06
1.59606e-06
1.42984e-06
-2.17292e-06
-1.84109e-06
8.91126e-07
2.01491e-06
1.76861e-06
-1.94464e-06
-1.73466e-07
2.10334e-06
2.41281e-06
-1.85516e-06
-1.18416e-06
1.67138e-06
2.83198e-06
-1.59612e-06
-1.9325e-06
1.53454e-06
2.17376e-06
-1.57221e-06
-2.40108e-06
1.23522e-06
1.58883e-06
-1.50026e-06
9.47337e-07
1.38397e-06
-2.6723e-06
-1.40108e-06
2.05487e-06
1.1284e-06
1.71208e-06
-2.3181e-06
1.53053e-06
1.92951e-06
2.76584e-06
8.47567e-08
2.11753e-06
4.53563e-06
-1.3491e-06
1.11352e-06
5.5297e-06
-2.5181e-06
1.29147e-06
4.21517e-06
-2.65644e-06
8.6749e-07
2.31687e-06
3.40242e-07
1.48944e-06
-2.75983e-06
2.31768e-06
3.15135e-07
2.29559e-06
-2.30661e-06
1.93313e-06
7.59945e-07
4.36967e-06
8.11619e-08
3.44813e-07
3.37861e-06
-1.59755e-07
1.65701e-08
2.21238e-06
-2.55213e-06
4.13126e-08
3.27991e-06
-2.36893e-06
1.60216e-07
3.75484e-06
-1.13381e-07
1.78211e-06
-2.55634e-06
2.44975e-06
-7.22693e-07
2.65472e-06
-2.32021e-06
2.2596e-06
-9.56855e-07
5.51933e-06
2.68403e-07
-3.08523e-07
4.04803e-06
3.84038e-08
-3.33835e-09
8.60449e-07
-8.05047e-07
-3.28445e-08
1.44772e-06
-1.73233e-06
-3.20502e-07
4.9305e-06
-2.26673e-07
2.11536e-06
-2.20327e-06
2.27548e-06
-1.50615e-06
2.21831e-06
-2.29726e-06
1.80137e-06
-2.17399e-06
4.35015e-06
6.42024e-08
-2.03184e-06
3.36216e-06
-1.48671e-07
-7.9911e-07
1.95205e-06
-2.58106e-06
-1.2826e-06
3.4584e-06
-2.35863e-06
-1.11336e-06
3.67494e-06
-6.99814e-07
1.72293e-06
-2.54441e-06
1.91431e-06
-1.92999e-06
1.64436e-06
-2.21245e-06
1.35918e-06
-2.28662e-06
2.72878e-06
-4.56561e-08
-2.20333e-06
4.63518e-06
-1.44166e-06
-1.70283e-06
5.43117e-06
-2.47261e-06
-1.67784e-06
4.24721e-06
-2.57094e-06
-1.52637e-06
2.21837e-06
-1.30329e-06
1.44982e-06
-2.67862e-06
1.55593e-06
1.3763e-06
-2.0436e-06
-2.13762e-06
7.50731e-07
1.69693e-06
-2.20958e-06
-2.41551e-07
2.4051e-06
-2.02881e-06
-1.19773e-06
2.92497e-06
-1.74872e-06
-1.83256e-06
2.09778e-06
-1.82693e-06
-2.26369e-06
1.52246e-06
-1.8172e-06
1.34623e-06
-2.54222e-06
-1.73764e-06
1.84531e-06
1.51901e-06
2.88548e-06
-2.66234e-06
-2.1576e-06
8.05649e-07
1.44683e-06
3.20679e-06
-1.84558e-06
-2.744e-07
1.11025e-06
3.80676e-06
-1.42432e-06
-1.03524e-06
3.11925e-07
4.25396e-06
-9.73216e-07
-1.71533e-06
5.4118e-07
3.55406e-06
-1.2415e-06
-2.46104e-06
9.15415e-07
3.0517e-06
-1.6327e-06
1.17482e-06
2.84883e-06
-3.13976e-06
-1.96114e-06
1.75278e-06
8.41944e-07
3.14852e-06
-2.51238e-06
8.35097e-07
1.04735e-06
4.08263e-06
-4.05825e-07
8.74973e-07
5.67435e-06
-1.2447e-06
-4.10943e-08
6.11622e-06
-1.86407e-06
6.33339e-08
5.25908e-06
-2.44855e-06
2.69977e-07
3.54662e-06
3.73047e-07
2.9505e-06
-3.10802e-06
1.43054e-06
1.33192e-07
3.71986e-06
-2.14626e-06
5.30045e-07
3.85405e-07
5.67232e-06
-3.71986e-08
1.80959e-07
3.28653e-06
-1.04583e-07
-9.24226e-09
1.05068e-06
-1.56047e-06
2.63382e-10
3.58356e-06
-2.01024e-06
-1.5231e-07
4.62641e-06
-2.06114e-07
3.15262e-06
-2.80185e-06
1.2471e-06
-6.70496e-07
4.15507e-06
-1.9439e-06
3.49776e-07
-6.95922e-07
6.60103e-06
1.43789e-08
-1.66835e-07
2.99103e-06
-4.83019e-08
5.10051e-09
8.17026e-07
-6.04551e-07
4.49404e-09
1.01453e-06
-1.24541e-06
-2.23838e-07
5.49363e-06
-2.80529e-07
3.34248e-06
-2.39812e-06
1.298e-06
-1.31504e-06
3.65248e-06
-2.0877e-06
4.20028e-07
-1.40505e-06
5.62614e-06
-5.80804e-08
-8.74205e-07
3.115e-06
-7.55882e-08
9.98325e-08
7.40812e-07
-1.46581e-06
-8.2764e-08
3.72555e-06
-1.90574e-06
-7.04553e-07
4.59554e-06
-8.56643e-07
3.12021e-06
-2.72693e-06
1.52599e-06
-1.93174e-06
3.09459e-06
-2.35966e-06
5.96487e-07
-1.79824e-06
4.05127e-06
-4.48371e-07
-1.24568e-06
5.71287e-06
-1.22248e-06
-3.07688e-07
5.60363e-06
-1.6728e-06
-7.74191e-07
5.30774e-06
-2.25799e-06
-1.38039e-06
3.47929e-06
-1.65252e-06
2.92556e-06
-2.93786e-06
1.64996e-06
2.84129e-06
-2.51293e-06
-2.53389e-06
6.17697e-07
3.13847e-06
-2.20785e-06
-3.35838e-07
3.77299e-06
-1.66019e-06
-9.12854e-07
4.3322e-06
-1.13798e-06
-1.48516e-06
3.4889e-06
-1.59308e-06
-2.24606e-06
2.99687e-06
-2.09398e-06
2.8168e-06
-2.94719e-06
-2.42197e-06
1.76258e-06
1.49274e-06
-2.66507e-06
-2.45276e-06
4.74798e-06
7.52381e-07
1.01633e-06
-1.8852e-06
5.08584e-06
-1.87735e-07
2.95522e-07
-1.21126e-06
5.66254e-06
-6.90656e-07
-6.11339e-07
-6.7514e-07
6.04332e-06
-1.37872e-06
1.8163e-07
-1.30625e-06
5.36682e-06
-2.23746e-06
1.04575e-06
-2.02951e-06
4.89426e-06
1.58226e-06
-3.0434e-06
-2.60255e-06
4.67503e-06
1.42289e-06
6.50887e-07
-2.46198e-06
5.02943e-06
2.94054e-07
3.09821e-07
5.91786e-06
-6.03878e-07
-1.84855e-07
7.21559e-06
-8.07499e-07
-5.35643e-07
6.9798e-06
-1.31233e-06
-6.18297e-07
6.72887e-06
-2.20676e-06
2.12201e-07
5.27477e-06
6.58094e-07
-3.11302e-06
4.78098e-06
7.03319e-07
-1.33236e-08
-1.92732e-06
5.60803e-06
-4.13126e-07
-8.0292e-08
7.34442e-06
-1.30625e-07
4.68932e-08
4.27387e-06
-2.31026e-07
-7.3301e-09
7.45588e-07
-7.41729e-07
-7.68724e-08
6.31531e-06
-1.81795e-06
-1.69016e-07
6.08386e-06
-4.91079e-08
-2.90874e-06
4.95043e-06
-1.28896e-08
-4.84158e-07
-1.48379e-06
6.12259e-06
-7.57453e-07
-3.1165e-07
7.42279e-06
-1.06131e-07
-3.11862e-08
1.64877e-06
-2.49187e-07
4.87819e-08
8.19602e-07
-3.81446e-07
1.11555e-07
1.57858e-06
-1.29379e-06
-2.76124e-07
6.72473e-06
-4.21862e-07
-2.65032e-06
5.07175e-06
5.64085e-07
-1.06981e-06
-1.8703e-06
5.54438e-06
-4.56406e-07
-7.17976e-07
7.28886e-06
-8.42606e-08
8.36259e-08
3.69096e-06
-3.26392e-07
3.77886e-07
6.11897e-07
-6.00079e-07
5.05428e-07
6.41595e-06
-1.68738e-06
-6.72945e-07
6.07964e-06
-1.08902e-06
-2.81818e-06
4.91817e-06
1.23479e-06
-1.80827e-06
-2.36232e-06
4.96062e-06
8.4651e-08
-1.36273e-06
5.84618e-06
-5.60097e-07
-5.00949e-07
7.14723e-06
-7.41251e-07
5.86517e-07
6.09471e-06
-1.07437e-06
-4.79393e-07
6.73984e-06
-2.00568e-06
-1.4701e-06
5.20768e-06
-1.94145e-06
-2.97195e-06
4.74423e-06
1.65094e-06
-2.63677e-06
-2.66864e-06
4.68741e-06
6.23456e-07
-2.18674e-06
4.98987e-06
-2.18311e-07
-1.45985e-06
5.57353e-06
-5.22833e-07
-8.32567e-07
6.05578e-06
-1.16772e-06
-1.6299e-06
5.28425e-06
-2.07518e-06
-2.38947e-06
4.82365e-06
-2.95394e-06
-2.87269e-06
4.62675e-06
-2.84106e-06
-3.09007e-07
1.26473e-07
4.68884e-07
-3.02183e-06
-4.6368e-07
1.43026e-07
5.0012e-07
-3.25195e-06
-3.84987e-07
1.49721e-07
4.65801e-07
-3.50881e-06
-3.45544e-07
1.49483e-07
4.55286e-07
-3.78249e-06
-3.27999e-07
1.42161e-07
4.57498e-07
-4.05892e-06
-3.14247e-07
1.27008e-07
4.63641e-07
-4.32711e-06
-3.03002e-07
1.04438e-07
4.66728e-07
-2.96254e-07
7.69073e-08
4.71693e-07
-4.57946e-06
-2.76941e-06
-7.84699e-08
1.54397e-07
-3.08419e-06
-3.2041e-07
1.7038e-07
-3.3892e-06
-2.57331e-07
1.76811e-07
-3.68711e-06
-2.21646e-07
1.74643e-07
-3.97873e-06
-2.01021e-07
1.64236e-07
-4.24593e-06
-1.92798e-07
1.45774e-07
-4.47923e-06
-1.89907e-07
1.20122e-07
-1.8457e-07
8.94942e-08
-4.68043e-06
-2.42274e-06
-3.87239e-08
1.73677e-07
-2.79287e-06
-1.24395e-07
1.73951e-07
-3.12005e-06
-1.1327e-07
1.82996e-07
-3.43224e-06
-9.75837e-08
1.87177e-07
-3.72201e-06
-8.70052e-08
1.77211e-07
-4.00184e-06
-7.14972e-08
1.58092e-07
-4.26042e-06
-6.51152e-08
1.32369e-07
-6.25703e-08
1.00795e-07
-4.48186e-06
-2.40053e-06
-5.74616e-08
1.94245e-07
-2.74231e-06
4.42875e-08
1.73666e-07
-3.04217e-06
-2.68359e-09
1.88488e-07
-3.32434e-06
-9.50452e-09
1.94308e-07
-3.58787e-06
-8.32887e-09
1.84459e-07
-3.82017e-06
-5.28977e-09
1.65316e-07
-4.02298e-06
3.61372e-10
1.37983e-07
5.39275e-09
1.0754e-07
-4.19896e-06
-2.46393e-06
-2.19747e-08
1.71167e-07
-2.79753e-06
2.02909e-07
1.74805e-07
-3.12743e-06
1.41102e-07
1.84526e-07
-3.4464e-06
1.16085e-07
1.92369e-07
-3.74261e-06
1.05145e-07
1.8285e-07
-4.01295e-06
1.02134e-07
1.63819e-07
-4.25423e-06
1.04306e-07
1.37256e-07
1.07776e-07
1.05353e-07
-4.46202e-06
-2.80412e-06
1.65839e-07
1.55382e-07
-3.06157e-06
2.91257e-07
1.67003e-07
-3.3668e-06
2.69099e-07
1.76826e-07
-3.65631e-06
2.32681e-07
1.75015e-07
-3.933e-06
2.17506e-07
1.64184e-07
-4.18696e-06
2.11685e-07
1.45016e-07
-4.41275e-06
2.10385e-07
1.19777e-07
2.09714e-07
9.015e-08
-4.60665e-06
-2.76547e-06
1.23786e-07
3.14906e-07
-2.98426e-06
1.39228e-07
3.69724e-07
-3.23014e-06
1.45757e-07
3.69965e-07
-3.51051e-06
1.44241e-07
3.66116e-07
-3.79654e-06
1.35019e-07
3.68377e-07
-4.07608e-06
1.18167e-07
3.72952e-07
-4.33586e-06
9.46389e-08
3.75485e-07
6.62748e-08
3.78869e-07
-4.57135e-06
-2.90952e-06
-4.04824e-07
3.66905e-07
5.71342e-07
-3.32105e-06
-3.99555e-07
4.02413e-07
5.51773e-07
-3.73879e-06
-3.76838e-07
4.13273e-07
5.30978e-07
-4.14548e-06
-3.55931e-07
3.98632e-07
5.13546e-07
-4.52381e-06
-3.37516e-07
3.60217e-07
4.97765e-07
-4.86041e-06
-3.20688e-07
3.01994e-07
4.8224e-07
-5.14694e-06
-3.04799e-07
2.29594e-07
4.66107e-07
-2.89285e-07
1.49346e-07
4.49164e-07
-5.37931e-06
-3.0272e-06
-3.31718e-07
4.66245e-07
-3.46024e-06
-2.8752e-07
4.91402e-07
-3.9029e-06
-2.547e-07
4.97242e-07
-4.32804e-06
-2.30979e-07
4.74787e-07
-4.71428e-06
-2.11841e-07
4.24771e-07
-5.04512e-06
-1.9611e-07
3.51989e-07
-5.31089e-06
-1.82694e-07
2.63743e-07
-1.70642e-07
1.67669e-07
-5.50775e-06
-2.93648e-06
-2.13276e-07
5.42563e-07
-3.42383e-06
-1.74508e-07
5.48278e-07
-3.90322e-06
-1.49819e-07
5.57478e-07
-4.35171e-06
-1.31855e-07
5.36482e-07
-4.752e-06
-1.17477e-07
4.83018e-07
-5.08745e-06
-1.05267e-07
4.02685e-07
-5.34718e-06
-9.4904e-08
3.04194e-07
-8.60722e-08
1.96819e-07
-5.52785e-06
-2.78268e-06
4.54848e-09
5.81745e-07
-3.33157e-06
-1.93703e-08
5.674e-07
-3.84388e-06
-2.91167e-08
5.80136e-07
-4.31156e-06
-3.16702e-08
5.61741e-07
-4.72305e-06
-3.00153e-08
5.08483e-07
-5.06299e-06
-2.62097e-08
4.26126e-07
-5.32349e-06
-2.13696e-08
3.2491e-07
-1.61936e-08
2.14409e-07
-5.50031e-06
-2.94562e-06
1.09717e-07
5.35068e-07
-3.42371e-06
8.44571e-08
5.49121e-07
-3.89585e-06
6.70597e-08
5.60475e-07
-4.33442e-06
5.84102e-08
5.40831e-07
-4.7247e-06
5.44902e-08
4.88514e-07
-5.04978e-06
5.3658e-08
4.08988e-07
-5.29976e-06
5.452e-08
3.11304e-07
5.60646e-08
2.04737e-07
-5.47145e-06
-2.9964e-06
1.97602e-07
4.5974e-07
-3.43362e-06
2.01173e-07
4.8753e-07
-3.87459e-06
1.90601e-07
4.94138e-07
-4.29323e-06
1.80141e-07
4.71923e-07
-4.66992e-06
1.72711e-07
4.22625e-07
-4.98965e-06
1.6735e-07
3.50987e-07
-5.24271e-06
1.63211e-07
2.6411e-07
1.59486e-07
1.6929e-07
-5.42534e-06
-2.85741e-06
3.55707e-07
4.00371e-07
-3.2882e-06
3.88472e-07
3.82746e-07
-3.71503e-06
3.96158e-07
3.67167e-07
-4.1233e-06
3.78547e-07
3.54135e-07
-4.49677e-06
3.38084e-07
3.43104e-07
-4.82294e-06
2.78871e-07
3.32794e-07
-5.09404e-06
2.06387e-07
3.22529e-07
1.26357e-07
3.12147e-07
-5.30683e-06
-3.2878e-06
-3.65038e-07
7.92338e-07
5.55034e-07
-3.93768e-06
-3.29172e-07
8.72669e-07
5.08721e-07
-4.61824e-06
-2.83734e-07
9.07417e-07
4.70135e-07
-5.30637e-06
-2.45813e-07
8.95257e-07
4.37289e-07
-5.97641e-06
-2.15298e-07
8.37151e-07
4.08399e-07
-6.60094e-06
-1.90742e-07
7.34743e-07
3.8246e-07
-7.14952e-06
-1.70872e-07
5.90072e-07
3.58913e-07
-1.54615e-07
4.09313e-07
3.3736e-07
-7.5923e-06
-3.37223e-06
-3.0312e-07
1.01664e-06
-4.06245e-06
-2.30287e-07
1.08264e-06
-4.77616e-06
-1.80483e-07
1.10758e-06
-5.48466e-06
-1.43477e-07
1.08084e-06
-6.16191e-06
-1.14854e-07
1.00152e-06
-6.77912e-06
-9.2529e-08
8.70912e-07
-7.3023e-06
-7.52576e-08
6.91243e-07
-6.22345e-08
4.70245e-07
-7.69733e-06
-3.26704e-06
-2.28246e-07
1.1783e-06
-4.01277e-06
-1.65048e-07
1.22876e-06
-4.76396e-06
-1.27218e-07
1.25539e-06
-5.49754e-06
-1.00815e-07
1.22735e-06
-6.18959e-06
-8.00929e-08
1.14021e-06
-6.8114e-06
-6.30822e-08
9.94976e-07
-7.32743e-06
-4.92065e-08
7.94066e-07
-3.80991e-08
5.46219e-07
-7.70108e-06
-3.06977e-06
-2.41974e-08
1.24407e-06
-3.89862e-06
-5.03367e-08
1.28153e-06
-4.69391e-06
-6.34568e-08
1.31168e-06
-5.45231e-06
-6.66724e-08
1.28597e-06
-6.15885e-06
-6.34983e-08
1.19835e-06
-6.78839e-06
-5.73408e-08
1.04988e-06
-7.30579e-06
-5.00194e-08
8.43044e-07
-4.24962e-08
5.86819e-07
-7.67388e-06
-3.24912e-06
4.47923e-08
1.17073e-06
-3.98599e-06
5.37768e-09
1.23025e-06
-4.72714e-06
-2.28865e-08
1.26104e-06
-5.45386e-06
-3.54977e-08
1.23634e-06
-6.14134e-06
-4.00166e-08
1.15244e-06
-6.76009e-06
-4.01374e-08
1.01046e-06
-7.2739e-06
-3.75965e-08
8.12614e-07
-3.34555e-08
5.67267e-07
-7.64556e-06
-3.30019e-06
1.17451e-07
1.00872e-06
-3.98889e-06
1.00517e-07
1.0811e-06
-4.7018e-06
7.39399e-08
1.11018e-06
-5.40792e-06
5.49013e-08
1.08763e-06
-6.08127e-06
4.28931e-08
1.01302e-06
-6.69402e-06
3.59663e-08
8.87587e-07
-7.21333e-06
3.25695e-08
7.13202e-07
3.15005e-08
4.97002e-07
-7.60607e-06
-3.18817e-06
7.77527e-07
3.41658e-07
-3.85872e-06
8.56994e-07
3.02616e-07
-4.55231e-06
8.90867e-07
2.72809e-07
-5.24661e-06
8.78849e-07
2.48911e-07
-5.91702e-06
8.22182e-07
2.2918e-07
-6.53729e-06
7.22389e-07
2.12681e-07
-7.07856e-06
5.81296e-07
1.98896e-07
4.04599e-07
1.8747e-07
-7.51281e-06
-4.23968e-06
-2.55634e-07
1.67163e-06
4.76141e-07
-5.46958e-06
-1.67685e-07
1.87373e-06
3.96345e-07
-6.78476e-06
-8.97202e-08
1.97963e-06
3.32561e-07
-8.10329e-06
-3.24502e-08
1.96716e-06
2.79006e-07
-9.32121e-06
7.79062e-09
1.81321e-06
2.34028e-07
-1.03169e-05
3.24352e-08
1.50208e-06
1.95891e-07
-1.09711e-05
4.92278e-08
1.03289e-06
1.62037e-07
6.03571e-08
4.19744e-07
1.30607e-07
-1.11725e-05
-4.26452e-06
-2.21944e-07
2.13937e-06
-5.5625e-06
-1.15317e-07
2.32824e-06
-6.92999e-06
-3.8916e-08
2.42417e-06
-8.2888e-06
1.41848e-08
2.3929e-06
-9.53285e-06
5.03115e-08
2.20297e-06
-1.05337e-05
7.32379e-08
1.83085e-06
-1.11478e-05
8.49901e-08
1.2696e-06
8.76298e-08
5.28588e-07
-1.12335e-05
-4.0727e-06
-2.29025e-07
2.45601e-06
-5.44905e-06
-1.45587e-07
2.63528e-06
-6.87379e-06
-9.40618e-08
2.73524e-06
-8.27854e-06
-5.79364e-08
2.70416e-06
-9.55961e-06
-3.0515e-08
2.502e-06
-1.05791e-05
-1.0404e-08
2.09803e-06
-1.11826e-05
3.38381e-09
1.47914e-06
1.08725e-08
6.48642e-07
-1.12084e-05
-3.84584e-06
-1.127e-07
2.57526e-06
-5.31057e-06
-1.4648e-07
2.74707e-06
-6.78242e-06
-1.61676e-07
2.85109e-06
-8.21691e-06
-1.61137e-07
2.82355e-06
-9.51769e-06
-1.52085e-07
2.62057e-06
-1.05483e-05
-1.38382e-07
2.20841e-06
-1.11516e-05
-1.2167e-07
1.57128e-06
-1.0286e-07
7.09475e-07
-1.11606e-05
-3.99925e-06
-1.22738e-07
2.45297e-06
-5.37211e-06
-1.83104e-07
2.63963e-06
-6.79696e-06
-2.20017e-07
2.74415e-06
-8.20329e-06
-2.358e-07
2.71726e-06
-9.48519e-06
-2.3719e-07
2.51937e-06
-1.05045e-05
-2.28381e-07
2.11971e-06
-1.11068e-05
-2.11714e-07
1.50491e-06
-1.88827e-07
6.76964e-07
-1.11306e-05
-4.11416e-06
-7.41057e-08
2.13633e-06
-5.42403e-06
-1.23658e-07
2.33142e-06
-6.80088e-06
-1.65895e-07
2.43276e-06
-8.16587e-06
-1.90683e-07
2.40741e-06
-9.41273e-06
-2.01428e-07
2.22404e-06
-1.04107e-05
-2.01975e-07
1.85912e-06
-1.10193e-05
-1.95325e-07
1.30529e-06
-1.83523e-07
5.69689e-07
-1.10973e-05
-4.09574e-06
1.66054e-06
1.91389e-07
-5.35839e-06
1.86282e-06
1.33139e-07
-6.69206e-06
1.96907e-06
8.94609e-08
-8.01588e-06
1.95781e-06
5.41009e-08
-9.22725e-06
1.80618e-06
2.58889e-08
-1.02098e-05
1.49861e-06
4.26967e-09
-1.08437e-05
1.03438e-06
-1.44858e-08
4.26404e-07
-2.8335e-08
-1.10208e-05
-4.32102e-06
7.16356e-08
1.14553e-07
2.7635e-06
-5.82654e-06
2.18793e-07
-1.89348e-08
3.1789e-06
-7.54462e-06
3.51881e-07
-1.46859e-07
3.49213e-06
-9.44757e-06
4.60719e-07
-2.56947e-07
3.66631e-06
-1.15016e-05
5.44849e-07
-3.49531e-07
3.67186e-06
-1.36699e-05
6.01378e-07
-4.19272e-07
3.48827e-06
-1.59064e-05
6.20194e-07
-4.61622e-07
3.11086e-06
5.94462e-07
-4.709e-07
-1.82228e-05
2.6129e-06
-4.44933e-06
1.97781e-08
3.52766e-06
-5.98881e-06
1.6062e-07
3.92588e-06
-7.71395e-06
2.75922e-07
4.22517e-06
-9.60561e-06
3.66017e-07
4.37915e-06
-1.16355e-05
4.32332e-07
4.3453e-06
-1.37655e-05
4.72883e-07
4.08927e-06
-1.59578e-05
4.82942e-07
3.59913e-06
4.57778e-07
-1.82594e-05
2.96686e-06
-4.35329e-06
-1.13326e-07
4.03362e-06
-5.95998e-06
-1.49998e-08
4.41759e-06
-7.72049e-06
5.38387e-08
4.71779e-06
-9.63342e-06
1.10365e-07
4.87267e-06
-1.16791e-05
1.53567e-07
4.82637e-06
-1.38212e-05
1.81603e-07
4.53136e-06
-1.60194e-05
1.92863e-07
3.96733e-06
1.86133e-07
-1.83387e-05
3.23968e-06
-4.22539e-06
-1.80239e-07
4.21707e-06
-5.89165e-06
-1.93648e-07
4.59187e-06
-7.68779e-06
-1.92714e-07
4.89371e-06
-9.62401e-06
-1.81827e-07
5.0519e-06
-1.16869e-05
-1.6752e-07
5.0045e-06
-1.38424e-05
-1.52717e-07
4.69825e-06
-1.60501e-05
-1.37589e-07
4.10939e-06
-1.20307e-07
-1.83824e-05
3.34823e-06
-4.2902e-06
-2.79495e-07
4.02416e-06
-5.91479e-06
-3.42517e-07
4.41298e-06
-7.69641e-06
-3.83626e-07
4.7166e-06
-9.63003e-06
-4.05222e-07
4.87422e-06
-1.16945e-05
-4.13892e-07
4.83024e-06
-1.3853e-05
-4.11657e-07
4.53706e-06
-1.60647e-05
-3.95731e-07
3.9748e-06
-3.61768e-07
-1.83952e-05
3.24892e-06
-4.35905e-06
-2.70155e-07
3.51408e-06
-5.9364e-06
-3.49564e-07
3.91579e-06
-7.69574e-06
-4.09429e-07
4.21785e-06
-9.61884e-06
-4.48853e-07
4.3741e-06
-1.16777e-05
-4.73337e-07
4.34233e-06
-1.38346e-05
-4.84073e-07
4.08836e-06
-1.60522e-05
-4.74007e-07
3.60108e-06
-4.38797e-07
-1.8378e-05
2.97248e-06
-4.2879e-06
-1.91359e-08
2.74346e-06
-5.83381e-06
-9.6354e-08
3.1555e-06
-7.58217e-06
-1.56226e-07
3.4642e-06
-9.50302e-06
-2.0438e-07
3.63414e-06
-1.15662e-05
-2.40487e-07
3.63649e-06
-1.37397e-05
-2.63452e-07
3.45142e-06
-1.59832e-05
-2.71812e-07
3.07561e-06
-2.65071e-07
-1.83121e-05
2.58154e-06
-2.17009e-06
3.34721e-07
1.41167e-07
-1.62415e-07
-2.44704e-06
2.82479e-07
1.50152e-07
-1.57006e-07
-2.76517e-06
2.7132e-07
1.47212e-07
-9.71725e-08
-3.11067e-06
2.75859e-07
1.38298e-07
-6.95726e-08
-3.4616e-06
2.77739e-07
1.2054e-07
-5.04864e-08
-3.77571e-06
2.52217e-07
9.50657e-08
-3.10189e-08
-4.06538e-06
2.41179e-07
6.34782e-08
-1.42312e-08
2.42076e-07
2.68227e-08
-4.44264e-09
-4.33008e-06
-2.20565e-06
3.57731e-07
2.06804e-07
-2.39786e-06
2.73517e-07
2.03418e-07
-2.63578e-06
3.0588e-07
2.01262e-07
-2.85114e-06
2.96275e-07
1.91207e-07
-3.02735e-06
2.83851e-07
1.7131e-07
-3.20373e-06
2.87372e-07
1.4286e-07
-3.38597e-06
3.10487e-07
1.16324e-07
3.19766e-07
8.56736e-08
-3.55471e-06
-2.35978e-06
2.15743e-07
2.84893e-07
-2.50994e-06
1.58638e-07
2.64809e-07
-2.65648e-06
1.85688e-07
2.66933e-07
-2.81392e-06
1.89468e-07
2.64147e-07
-2.99593e-06
2.08097e-07
2.57943e-07
-3.18343e-06
2.32961e-07
2.41508e-07
-3.32682e-06
2.39221e-07
2.14276e-07
2.40709e-07
1.86826e-07
-3.43436e-06
-2.48496e-06
3.24971e-08
3.51393e-07
-2.65881e-06
1.63772e-08
3.15326e-07
-2.80339e-06
3.20351e-09
3.26209e-07
-2.94437e-06
-9.74862e-09
3.40713e-07
-3.0512e-06
-3.60588e-08
3.50918e-07
-3.09379e-06
-7.52999e-08
3.50813e-07
-3.09394e-06
-1.00314e-07
3.39648e-07
-1.1701e-07
3.22446e-07
-3.0587e-06
-2.22701e-06
-1.15282e-07
2.90959e-07
-2.45181e-06
-3.72173e-08
2.78886e-07
-2.61979e-06
-1.12624e-07
2.84035e-07
-2.78547e-06
-1.31382e-07
2.87047e-07
-2.9521e-06
-1.51967e-07
2.8294e-07
-3.12415e-06
-1.73065e-07
2.69282e-07
-3.25527e-06
-2.13376e-07
2.44118e-07
-2.33626e-07
2.10599e-07
-3.34914e-06
-2.24288e-06
-9.63828e-08
2.14528e-07
-2.44021e-06
-5.32444e-08
2.13205e-07
-2.65748e-06
-1.07879e-07
2.13739e-07
-2.85983e-06
-1.30874e-07
2.00533e-07
-3.05148e-06
-1.4201e-07
1.80725e-07
-3.23839e-06
-1.35303e-07
1.50008e-07
-3.44366e-06
-1.30941e-07
1.23969e-07
-1.40682e-07
9.14277e-08
-3.62852e-06
-2.17984e-06
1.46457e-07
5.37229e-08
-2.44586e-06
1.54707e-07
5.70032e-08
-2.77259e-06
1.55488e-07
6.48613e-08
-3.12722e-06
1.46236e-07
7.66819e-08
-3.48771e-06
1.27585e-07
9.09194e-08
-3.82909e-06
1.01587e-07
1.05381e-07
-4.14452e-06
6.9219e-08
1.14346e-07
3.11984e-08
1.16926e-07
-4.43337e-06
-2.32175e-06
3.18578e-07
3.68685e-07
-6.96487e-08
-2.78308e-06
2.69764e-07
3.93732e-07
-5.19819e-08
-3.23904e-06
2.43958e-07
3.93333e-07
-3.41291e-08
-3.67378e-06
2.27975e-07
3.65308e-07
-2.0083e-08
-4.0732e-06
2.1676e-07
3.12441e-07
-9.30509e-09
-4.42469e-06
2.08038e-07
2.39649e-07
-1.16799e-09
-4.71955e-06
2.00717e-07
1.5297e-07
4.59372e-09
1.94629e-07
5.66627e-08
8.1687e-09
-4.95221e-06
-2.48279e-06
3.61243e-07
5.1799e-07
-2.85845e-06
3.19687e-07
5.29172e-07
-3.24553e-06
3.02117e-07
5.30396e-07
-3.62329e-06
2.93277e-07
5.03511e-07
-3.97237e-06
2.89547e-07
4.47518e-07
-4.27837e-06
2.89074e-07
3.67762e-07
-4.52279e-06
2.90329e-07
2.71131e-07
2.91443e-07
1.64135e-07
-4.69803e-06
-2.50745e-06
2.4214e-07
6.9069e-07
-2.79059e-06
2.09228e-07
6.58444e-07
-3.0881e-06
1.95916e-07
6.70647e-07
-3.38179e-06
1.86858e-07
6.64198e-07
-3.6437e-06
1.81268e-07
6.28118e-07
-3.85466e-06
1.77105e-07
5.64395e-07
-4.00443e-06
1.73271e-07
4.81047e-07
1.70181e-07
3.87098e-07
-4.08351e-06
-2.50052e-06
5.38332e-08
8.19972e-07
-2.75254e-06
4.21161e-08
7.34523e-07
-3.01128e-06
2.84715e-08
7.52318e-07
-3.25785e-06
1.11874e-08
7.6287e-07
-3.46348e-06
-8.93234e-09
7.4671e-07
-3.6105e-06
-2.79019e-08
7.02778e-07
-3.68859e-06
-4.60238e-08
6.36985e-07
-6.274e-08
5.58341e-07
-3.69161e-06
-2.49279e-06
-9.23412e-08
7.2899e-07
-2.77569e-06
-7.80942e-08
6.81289e-07
-3.06869e-06
-8.6401e-08
6.91243e-07
-3.35528e-06
-9.97978e-08
6.85204e-07
-3.61382e-06
-1.17284e-07
6.49797e-07
-3.82292e-06
-1.3595e-07
5.86342e-07
-3.97247e-06
-1.54981e-07
5.0257e-07
-1.72475e-07
4.06286e-07
-4.05848e-06
-2.545e-06
-8.71859e-08
5.40152e-07
-2.89879e-06
-5.85897e-08
5.47459e-07
-3.26892e-06
-5.07794e-08
5.48237e-07
-3.63971e-06
-4.95196e-08
5.21116e-07
-3.98902e-06
-5.1587e-08
4.64173e-07
-4.30189e-06
-5.55419e-08
3.8243e-07
-4.55559e-06
-6.01905e-08
2.82782e-07
-6.5733e-08
1.72548e-07
-4.74346e-06
-2.39327e-06
3.85849e-07
1.09138e-07
-2.83086e-06
4.13029e-07
1.20652e-07
-3.27035e-06
4.14679e-07
1.29498e-07
-3.69797e-06
3.87927e-07
1.36411e-07
-4.0984e-06
3.35404e-07
1.40933e-07
-4.45706e-06
2.61944e-07
1.42744e-07
-4.76365e-06
1.7378e-07
1.41804e-07
7.68116e-08
1.3826e-07
-5.01329e-06
-2.74045e-06
3.37497e-07
7.79482e-07
-5.13881e-08
-3.43935e-06
2.77798e-07
8.52826e-07
-3.79894e-08
-4.15131e-06
2.52549e-07
8.80588e-07
-2.77628e-08
-4.85877e-06
2.33831e-07
8.59444e-07
-2.04819e-08
-5.53846e-06
2.16827e-07
7.90963e-07
-1.55951e-08
-6.16463e-06
2.00842e-07
6.7761e-07
-1.26205e-08
-6.70916e-06
1.86077e-07
5.22389e-07
-1.10251e-08
1.73041e-07
3.32563e-07
-1.024e-08
-7.1479e-06
-2.81916e-06
4.12224e-07
1.04992e-06
-3.46381e-06
3.43519e-07
1.10806e-06
-4.12809e-06
3.0835e-07
1.13887e-06
-4.79319e-06
2.8458e-07
1.11786e-06
-5.43424e-06
2.63832e-07
1.04156e-06
-6.02101e-06
2.44143e-07
9.11242e-07
-6.51865e-06
2.25499e-07
7.29354e-07
2.08276e-07
5.038e-07
-6.89357e-06
-2.78567e-06
2.77093e-07
1.31423e-06
-3.32541e-06
2.19069e-07
1.3227e-06
-3.90328e-06
1.87722e-07
1.36917e-06
-4.49458e-06
1.67046e-07
1.37301e-06
-5.06998e-06
1.49134e-07
1.31821e-06
-5.59661e-06
1.32368e-07
1.20274e-06
-6.03356e-06
1.1685e-07
1.02775e-06
1.03298e-07
8.01052e-07
-6.34059e-06
-2.72653e-06
1.56088e-08
1.48769e-06
-3.20357e-06
2.4937e-09
1.42817e-06
-3.73051e-06
-1.20106e-08
1.47906e-06
-4.27542e-06
-2.64528e-08
1.50126e-06
-4.80456e-06
-4.12065e-08
1.46659e-06
-5.2846e-06
-5.49129e-08
1.36993e-06
-5.67602e-06
-6.60283e-08
1.21107e-06
-7.4946e-08
9.98002e-07
-5.93729e-06
-2.7706e-06
-1.42646e-07
1.35114e-06
-3.30683e-06
-1.20966e-07
1.34109e-06
-3.88672e-06
-1.21985e-07
1.38095e-06
-4.4804e-06
-1.28691e-07
1.38113e-06
-5.05915e-06
-1.35385e-07
1.32266e-06
-5.59009e-06
-1.39977e-07
1.20292e-06
-6.03234e-06
-1.4228e-07
1.02296e-06
-1.4236e-07
7.90606e-07
-6.34869e-06
-2.89068e-06
-1.03805e-07
1.07393e-06
-3.51442e-06
-7.34219e-08
1.12362e-06
-4.16729e-06
-7.09262e-08
1.14999e-06
-4.82671e-06
-7.25929e-08
1.12442e-06
-5.46621e-06
-7.4133e-08
1.04232e-06
-6.05402e-06
-7.48622e-08
9.05061e-07
-6.55431e-06
-7.49708e-08
7.15688e-07
-7.494e-08
4.82975e-07
-6.93225e-06
-2.82758e-06
7.99651e-07
1.37164e-07
-3.49823e-06
8.7357e-07
1.36768e-07
-4.19129e-06
9.02039e-07
1.34758e-07
-4.8877e-06
8.80394e-07
1.313e-07
-5.56279e-06
8.09983e-07
1.26294e-07
-6.18904e-06
6.93433e-07
1.19845e-07
-6.7366e-06
5.34057e-07
1.12243e-07
3.39627e-07
1.03933e-07
-7.17835e-06
-3.70586e-06
3.34292e-07
1.6628e-06
-2.47602e-08
-4.9956e-06
3.06602e-07
1.86201e-06
-2.62061e-08
-6.34646e-06
2.93025e-07
1.96718e-06
-2.88048e-08
-7.67918e-06
2.71159e-07
1.95357e-06
-3.26333e-08
-8.89077e-06
2.42529e-07
1.79699e-06
-3.70131e-08
-9.86216e-06
2.10076e-07
1.48045e-06
-4.15671e-08
-1.04723e-05
1.76036e-07
1.00253e-06
-4.60991e-08
1.42274e-07
3.79813e-07
-5.05637e-08
-1.06113e-05
-3.55586e-06
4.08117e-07
2.17201e-06
-4.86084e-06
3.61469e-07
2.35799e-06
-6.22772e-06
3.32002e-07
2.46662e-06
-7.58613e-06
2.9733e-07
2.45007e-06
-8.829e-06
2.55126e-07
2.27207e-06
-9.82195e-06
2.08444e-07
1.90575e-06
-1.04178e-05
1.59608e-07
1.34161e-06
1.1022e-07
5.88325e-07
-1.04706e-05
-3.23462e-06
2.87364e-07
2.58178e-06
-4.50162e-06
2.25077e-07
2.72606e-06
-5.84207e-06
1.90791e-07
2.85074e-06
-7.19057e-06
1.62003e-07
2.85678e-06
-8.44004e-06
1.31959e-07
2.69082e-06
-9.44624e-06
1.01842e-07
2.31548e-06
-1.0046e-05
7.3492e-08
1.71372e-06
4.72468e-08
8.83573e-07
-1.00618e-05
-3.01423e-06
4.70027e-08
2.7982e-06
-4.24907e-06
7.68294e-09
2.88035e-06
-5.56706e-06
-2.17968e-08
3.00962e-06
-6.89747e-06
-3.95133e-08
3.03314e-06
-8.13366e-06
-5.0084e-08
2.88494e-06
-9.1307e-06
-5.36728e-08
2.52249e-06
-9.71972e-06
-5.13766e-08
1.9249e-06
-4.43912e-08
1.08361e-06
-9.71364e-06
-3.25529e-06
-1.00707e-07
2.60763e-06
-4.51621e-06
-1.24318e-07
2.73383e-06
-5.8607e-06
-1.46488e-07
2.85007e-06
-7.21501e-06
-1.5386e-07
2.84978e-06
-8.4729e-06
-1.47179e-07
2.67762e-06
-9.48928e-06
-1.30276e-07
2.29597e-06
-1.00904e-05
-1.0635e-07
1.68744e-06
-7.78311e-08
8.51625e-07
-1.01175e-05
-3.65751e-06
-6.91149e-08
2.18727e-06
-4.93827e-06
-8.36812e-08
2.36356e-06
-6.29402e-06
-1.06026e-07
2.46528e-06
-7.64958e-06
-1.15547e-07