/*--------------------------------*- C++ -*----------------------------------*\
| =========                 |                                                 |
| \\      /  F ield         | OpenFOAM: The Open Source CFD Toolbox           |
|  \\    /   O peration     | Version:  plus.master.MPPICInterFoam            |
|   \\  /    A nd           | Web:      www.OpenFOAM.com                      |
|    \\/     M anipulation  |                                                 |
\*---------------------------------------------------------------------------*/
FoamFile
{
    version     2.0;
    format      ascii;
    class       scalarField;
    location    "5.8/lagrangian/kinematicCloud";
    object      age;
}
// * * * * * * * * * * * * * * * * * * * * * * * * * * * * * * * * * * * * * //


1902
(
5.75663
5.67984
5.7318
5.57171
5.54156
5.45611
5.62376
5.69302
5.5232
5.79962
5.78975
5.68081
5.79195
5.70798
5.54533
5.75683
5.63995
5.71619
5.54484
5.60619
5.37038
5.64984
5.51785
5.6844
5.6535
5.72757
5.77049
5.71857
5.76485
5.48652
5.61826
5.54289
5.52417
5.57186
5.77898
5.71854
5.66732
5.60932
5.74335
5.71206
5.78169
5.49621
5.79808
5.71723
5.57156
5.78492
5.67256
5.7194
5.60848
5.51612
5.34678
5.77332
5.69344
5.71096
5.72029
5.57886
5.66879
5.39228
5.72433
5.69551
5.76504
5.76197
5.64008
5.66659
5.63926
5.75618
5.68837
5.61545
5.46799
5.79013
5.68685
5.53672
5.74367
5.79847
5.50267
5.67281
5.55323
5.74064
5.59766
5.70017
5.62064
5.71604
5.79124
5.79125
5.61034
5.68657
5.59243
5.5339
5.71247
5.71925
5.785
5.78815
5.66876
5.67843
5.45725
5.72474
5.63174
5.55015
5.68104
5.70995
5.73131
5.65908
5.67375
5.68863
5.76383
5.73699
5.67739
5.71824
5.63128
5.70592
5.63043
5.79903
5.49948
5.68833
5.7937
5.79145
5.56165
5.68842
5.7543
5.76651
5.72777
5.52003
5.60026
5.32734
5.71774
5.57445
5.69991
5.79773
5.7903
5.76525
5.79102
5.78526
5.75616
5.73022
5.66374
5.33696
5.77658
5.44295
5.79885
5.77273
5.57152
5.6788
5.72772
5.77045
5.57344
5.63249
5.80102
5.4346
5.71957
5.74378
5.7957
5.64547
5.77571
5.7777
5.71281
5.75002
5.66997
5.62976
5.38519
5.65029
5.57344
5.76991
5.77696
5.75745
5.78772
5.77313
5.77209
5.62051
5.6204
5.79394
5.59814
5.75588
5.74695
5.59101
5.72314
5.64475
5.71871
5.57784
5.65905
5.76975
5.74727
5.59075
5.54413
5.60512
5.7577
5.78206
5.59538
5.60805
5.67083
5.60579
5.73819
5.78483
5.73299
5.41911
5.72738
5.71048
5.6711
5.70223
5.74262
5.74425
5.75301
5.67457
5.67422
5.66756
5.69015
5.63939
5.58251
5.79888
5.64447
5.77075
5.74739
5.79608
5.63918
5.36196
5.31528
5.68157
5.71936
5.59457
5.69168
5.4286
5.7184
5.69374
5.76407
5.78089
5.77665
5.71252
5.72588
5.65048
5.5641
5.57913
5.5495
5.77887
5.67866
5.75801
5.53206
5.79833
5.61039
5.67041
5.71754
5.67899
5.75046
5.50562
5.78357
5.78912
5.47477
5.59135
5.78228
5.58643
5.76268
5.78817
5.77036
5.78552
5.55318
5.33944
5.57957
5.29559
5.77979
5.64208
5.80013
5.76096
5.77171
5.75693
5.71004
5.67884
5.63938
5.71452
5.77757
5.65428
5.75132
5.6098
5.73679
5.60668
5.78075
5.74692
5.76848
5.5687
5.60994
5.52848
5.67969
5.78888
5.39119
5.49849
5.73011
5.45944
5.73711
5.69823
5.77778
5.53366
5.58107
5.62288
5.54423
5.56242
5.79395
5.63697
5.71762
5.76542
5.40214
5.3256
5.60553
5.66949
5.53999
5.63289
5.41306
5.46855
5.69813
5.69212
5.49533
5.59082
5.78162
5.74457
5.68901
5.64919
5.41015
5.66627
5.70781
5.7989
5.78174
5.78113
5.44771
5.66567
5.16
5.72264
5.72845
5.6949
5.43934
5.52404
5.65951
5.35508
5.48883
5.79367
5.55238
5.57865
5.67139
5.65131
5.71994
5.68266
5.68824
5.69926
5.75638
5.7478
5.67851
5.77666
5.29664
5.57206
5.78283
5.64857
5.53482
5.66047
5.55239
5.6409
5.58108
5.56657
5.67591
5.76513
5.41945
5.77061
5.70234
5.6198
5.43197
5.61066
5.71956
5.71807
5.62096
5.77106
5.54497
5.72763
5.74704
5.74871
5.74465
5.58114
5.42857
5.49949
5.73755
5.58288
5.63592
5.73753
5.4703
5.63944
5.76421
5.38118
5.55578
5.58005
5.66995
5.59191
5.75816
5.79937
5.65922
5.41457
5.76672
5.61726
5.79616
5.72017
5.63918
5.56196
5.70795
5.76996
5.61831
5.60982
5.62947
5.74325
5.75861
5.66109
5.47462
5.39287
5.7669
5.42861
5.79236
5.62075
5.49835
5.65939
5.72739
5.49675
5.75242
5.60008
5.50962
5.78495
5.68512
5.45757
5.77456
5.42579
5.53526
5.70999
5.79893
5.76918
5.65952
5.73738
5.75918
5.77968
5.56717
5.65421
5.46057
5.47638
5.72528
5.68623
5.69239
5.52423
5.66112
5.6981
5.77699
5.63313
5.62948
5.56812
5.66907
5.72139
5.5367
5.78029
5.66856
5.73837
5.78491
5.69827
5.70435
5.76656
5.66856
5.73975
5.76169
5.48493
5.76402
5.4585
5.7813
5.52519
5.72302
5.77613
5.61288
5.76389
5.73187
5.64007
5.61122
5.53898
5.72078
5.76518
5.76906
5.7781
5.74776
5.48981
5.54605
5.48578
5.55264
5.71336
5.75626
5.60022
5.33775
5.64897
5.57148
5.6098
5.7484
5.5289
5.3334
5.55521
5.72073
5.78947
5.52188
4.91694
5.781
5.56654
5.74209
5.67207
5.78669
5.6098
5.34341
5.50816
5.78098
5.78996
5.7108
5.76432
5.63701
5.69151
5.41121
5.54436
5.59048
5.60044
5.63971
5.79908
5.6839
5.69746
5.71803
5.44774
5.41112
5.76394
5.77657
5.42512
5.78492
5.42069
5.70965
5.67073
5.79589
5.49898
5.73857
5.36298
5.78107
5.66775
5.63984
5.78607
5.67565
5.21906
5.34252
5.68519
5.52611
5.79374
5.41605
5.33635
5.57269
5.60302
5.46315
5.47629
5.78869
5.4773
5.71064
5.69419
5.58096
5.74992
5.76228
5.53128
5.42419
5.52472
5.70773
5.3757
5.72979
5.72006
5.69987
5.40551
5.57706
5.5172
5.67937
5.46755
5.74388
5.77046
5.73156
5.73795
5.64898
5.51757
5.75621
5.74476
5.58376
5.7764
5.60982
5.73543
5.62743
5.61983
5.67232
5.69102
5.67393
5.7373
5.72768
5.68462
5.72317
5.38935
5.38478
5.53859
5.75505
5.68894
5.2294
5.65283
5.69906
5.58438
5.49533
5.76389
5.66006
5.80021
5.78878
5.7598
5.78971
5.73536
5.80072
5.6184
5.71766
5.76435
5.75323
5.53377
5.43528
5.6686
5.42149
5.72816
5.77822
5.72733
5.78491
5.6531
5.48272
5.66176
5.71013
5.47205
5.55581
5.77287
5.5299
5.79495
5.36411
5.67029
5.45776
5.79378
5.79391
5.60212
5.70037
5.63956
5.4286
5.6714
5.77902
5.591
5.67081
5.6349
5.45268
5.63998
5.65939
5.42894
5.79123
5.60471
5.79127
5.6
5.60025
5.51857
5.51829
5.43741
5.25016
5.7584
5.68449
5.74744
5.74087
5.60669
5.65802
5.7731
5.74767
5.27932
5.77675
5.50007
5.54549
5.49883
5.78089
5.60988
5.6884
5.32863
5.09193
5.73953
5.58522
5.63019
5.74739
5.66861
5.48655
5.59793
5.53333
5.7374
5.75256
5.68165
5.43165
5.79654
5.77776
5.61559
5.61166
5.62932
5.76743
5.79153
5.56506
5.66875
5.76681
5.47516
5.50398
5.75845
5.72251
5.7287
5.71621
5.49649
5.70349
5.68871
5.79851
5.79183
5.78559
5.77146
5.363
5.76391
5.77662
5.7916
5.63666
5.67865
5.72614
5.6199
5.34344
5.77539
5.78849
5.39524
5.78179
5.70838
5.77378
5.67001
5.64299
5.59083
5.67324
5.77045
5.64712
5.61965
5.70775
5.63153
5.79546
5.64318
5.55377
5.75738
5.73416
5.28713
5.67886
5.4339
5.63919
5.73414
5.43891
5.4381
5.6106
5.73765
5.71766
5.67943
5.64514
5.56129
5.78739
5.63818
5.55006
5.68362
5.54293
5.77306
5.55593
5.62476
5.78403
5.52383
5.64401
5.55294
5.63084
5.57189
5.6059
5.74693
5.6947
5.63067
5.47767
5.76931
5.48474
5.60911
5.55173
5.70596
5.57074
5.79383
5.46999
5.79739
5.58138
5.70433
5.4362
5.67844
5.74927
5.64505
5.50075
5.5862
5.79397
5.42333
5.79154
5.57017
5.78097
5.56423
5.65026
5.64684
5.79451
5.76474
5.72758
5.3347
5.76468
5.67034
5.74751
5.78675
5.57143
5.69921
5.63833
5.75032
5.65148
5.6982
5.58348
5.41039
5.41937
5.37184
5.40853
5.74691
5.58206
5.64902
5.79764
5.66597
5.58339
5.2788
5.752
5.59742
5.6416
5.24678
5.75195
5.60587
5.72421
5.57789
5.37846
5.78668
5.61259
5.65206
5.70987
5.67273
5.28202
5.76034
5.6005
5.52422
5.58046
5.59077
5.7709
5.74022
5.65174
5.68794
5.64992
5.54188
5.61758
5.68734
5.73722
5.31429
5.40123
5.76944
5.60043
5.78301
5.74988
5.72398
5.79461
5.62949
5.47413
5.60475
5.744
5.78834
5.70921
5.64168
5.34989
5.60007
5.73725
5.74045
5.7844
5.79027
5.30493
5.78984
5.67162
5.52649
5.53996
5.724
5.64986
5.498
5.72737
5.74068
5.68819
5.64644
5.79741
5.70112
5.74048
5.66421
5.61554
5.69914
5.59086
5.79427
5.58147
5.71416
5.50941
5.41522
5.50484
5.55568
5.66516
5.79144
5.78128
5.29904
5.31463
5.67066
5.61419
5.7884
5.77614
5.54492
5.75096
5.7347
5.76394
5.636
5.6874
5.75734
5.75603
5.61393
5.63967
5.76606
5.6784
5.49817
5.7814
5.75624
5.78257
5.78837
5.74624
5.71159
5.77062
5.59072
5.73851
5.61066
5.70946
5.73721
5.71582
5.70386
5.61355
5.75913
5.73711
5.51009
5.66697
5.76538
5.65956
5.55323
5.67685
5.70111
5.66771
5.52404
5.62016
5.74561
5.74778
5.43881
5.7522
5.45717
5.58484
5.68041
5.58404
5.79955
5.71298
5.67911
5.75239
5.6826
5.77065
5.60061
5.78092
5.78554
5.62227
5.73948
5.42924
5.74035
5.76447
5.69736
5.64306
5.77232
5.6991
5.5086
5.68994
5.79125
5.72134
5.55342
5.79166
5.5868
5.66071
5.65278
5.65876
5.65876
5.7008
5.71753
5.64967
5.68008
5.72736
5.70115
5.70773
5.30601
5.66001
5.77644
5.69278
5.79133
5.58561
5.67044
5.52382
5.76605
5.75333
5.4727
5.5596
5.597
5.48461
5.70153
5.75441
5.63972
5.49059
5.67196
5.75933
5.73179
5.78545
5.66525
5.6688
5.78451
5.68668
5.54205
5.77139
5.58129
5.38096
5.74715
5.78224
5.79135
5.27848
5.44789
5.65632
5.48713
5.51817
5.79848
5.75759
5.75669
5.70779
5.54292
5.69544
5.64957
5.7769
5.66484
5.59352
5.42435
5.79047
5.66719
5.74308
5.62067
5.79051
5.6342
5.64898
5.66155
5.69395
5.72402
5.79124
5.75668
5.56236
5.59568
5.6
5.77724
5.72309
5.77055
5.76442
5.68644
5.76325
5.69804
5.76644
5.61968
5.7254
5.69803
5.73109
5.62498
5.45255
5.53082
5.62225
5.76366
5.66058
5.2842
5.6518
5.77634
5.62079
5.48095
5.54118
5.3537
5.62556
5.61962
5.6654
5.62975
5.60052
5.53221
5.73074
5.79142
5.6889
5.57145
5.56194
5.72297
5.58157
5.64033
5.67784
5.6053
5.64034
5.33334
5.73878
5.2796
5.69063
5.77621
5.7771
5.54287
5.72778
5.69817
5.68243
5.69175
5.65018
5.57133
5.35364
5.35249
5.69423
5.63935
5.40178
5.34441
5.79739
5.36223
5.58048
5.44418
5.73409
5.71782
5.50525
5.46816
5.6155
5.7793
5.69595
5.77308
5.56198
5.66201
5.62242
5.61751
5.80017
5.66875
5.61961
5.72262
5.75063
5.69796
5.67715
5.78243
5.79031
5.65944
5.74392
5.79894
5.73779
5.62149
5.70839
5.60355
5.70806
5.78336
5.71813
5.68815
5.48013
5.61769
5.57496
5.69362
5.71768
5.75417
5.55547
5.55615
5.67918
5.80019
5.76392
5.66909
5.70659
5.77622
5.76564
5.77027
5.75755
5.73719
5.77065
5.78044
5.57143
5.69194
5.66866
5.74707
5.75113
5.74139
5.71997
5.74767
5.67348
5.30032
5.71662
5.68974
5.4765
5.51493
5.64897
5.36558
5.69972
5.59794
5.77281
5.76015
5.56618
5.51735
5.3728
5.45094
5.33416
5.71908
5.76162
5.36084
5.62217
5.70254
5.65241
5.61235
5.77132
5.52815
5.65538
5.79377
5.7917
5.64296
5.56239
5.70534
5.748
5.4983
5.27685
5.75611
5.59102
5.43813
5.62322
5.61047
5.78834
5.55338
5.66001
5.76697
5.59667
5.66249
5.4762
5.41924
5.7481
5.77204
5.68356
5.79592
5.58823
5.65839
5.7779
5.73246
5.73827
5.79423
5.57389
5.57376
5.62939
5.58858
5.58149
5.45075
5.5056
5.74256
5.70177
5.7501
5.72967
5.75624
5.69132
5.69912
5.79081
5.65947
5.77714
5.67698
5.53529
5.71623
5.57658
5.64899
5.78264
5.80002
5.59422
5.79245
5.62671
5.64397
5.33712
5.78506
5.62077
5.67857
5.74694
5.77028
5.64933
5.78496
5.66808
5.49105
5.75247
5.67492
5.74899
5.72734
5.69251
5.29134
5.49782
5.6585
5.79995
5.76395
5.7842
5.61978
5.30386
5.55281
5.7741
5.73808
5.74691
5.42045
5.77677
5.50833
5.53386
5.8
5.72829
5.65767
5.7653
5.68717
5.72395
5.64898
5.64563
5.75079
5.64029
5.69254
5.50178
5.44783
5.79124
5.77651
5.71955
5.7711
5.7819
5.74808
5.41927
5.70778
5.66865
5.56399
5.75804
5.54286
5.42902
5.73406
5.79428
5.5696
5.7641
5.598
5.75617
5.42657
5.77674
5.70845
5.68957
5.24869
5.73977
5.58104
5.64131
5.70463
5.74883
5.64016
5.68867
5.78629
5.75678
5.67971
5.56336
5.75768
5.65528
5.78528
5.73767
5.52006
5.65435
5.36544
5.40367
5.48867
5.38331
5.68053
5.56902
5.65541
5.80001
5.72951
5.73009
5.58185
5.8
5.62011
5.67315
5.73716
5.76658
5.61959
5.68582
5.76648
5.76406
5.50509
5.47783
5.70917
5.72531
5.66963
5.58347
5.7372
5.75713
5.58362
5.79137
5.7639
5.51711
5.79456
5.53334
5.79197
5.56209
5.74698
5.79387
5.60765
5.75213
5.77647
5.68169
5.75992
5.59367
5.71484
5.76905
5.48509
5.79368
5.7894
5.72736
5.64799
5.75786
5.5911
5.69401
5.39953
5.58802
5.76099
5.57146
5.79431
5.79923
5.57214
5.78118
5.38201
5.40144
5.59223
5.4584
5.77191
5.43425
5.56316
5.59873
5.79571
5.66865
5.62529
5.79271
5.70818
5.47694
5.58753
5.60149
5.72648
5.56268
5.29848
5.67045
5.67277
5.67428
5.4673
5.60276
5.62943
5.78256
5.74539
5.74135
5.74947
5.29185
5.77621
5.76418
5.67855
5.72041
5.76463
5.61313
5.79583
5.7639
5.54914
5.73151
5.6614
5.40025
5.57273
5.71647
5.79415
5.66099
5.66082
5.70078
5.65891
5.52605
5.67237
5.7574
5.62014
5.72732
5.4477
5.64972
5.30697
5.74402
5.78149
5.6784
5.67443
5.78092
5.43823
5.55239
5.79895
5.54296
5.67932
5.53374
5.63941
5.59049
5.69883
5.67331
5.48187
5.75361
5.51532
5.74697
5.79569
5.67843
5.70806
5.67002
5.55938
5.71494
5.5812
5.46673
5.75711
5.67887
5.7561
5.54596
5.79389
5.49016
5.79882
5.61087
5.7639
5.77742
5.75623
5.76047
5.73018
5.57268
5.70183
5.6
5.79235
5.41117
5.74338
5.39049
5.51938
5.79626
5.5352
5.68064
5.55953
5.47464
5.74006
5.64691
5.54014
5.63165
5.62835
5.59684
5.79132
5.75625
5.52385
5.75757
5.72757
5.52698
5.43904
5.70886
5.72673
5.38975
5.71042
5.78896
5.78856
5.77632
5.73402
5.71177
5.48828
5.63807
5.71065
5.35837
5.73752
5.65429
5.52355
5.79157
5.4579
5.74212
5.59176
5.51088
5.4774
5.73571
5.64113
5.77751
5.79571
5.70642
5.74599
5.59048
5.44766
5.72739
5.74054
5.75612
5.79064
5.62994
5.35688
5.56341
5.51395
5.29621
5.48585
5.41444
5.60301
5.58284
5.77192
5.65277
5.7178
5.8
5.65123
5.78835
5.7937
5.50933
5.56634
5.43927
5.60535
5.79653
5.51773
5.393
5.53167
5.4552
5.67429
5.64903
5.3108
5.79811
5.71192
5.4413
5.65251
5.73718
5.75868
5.57146
5.68815
5.66969
5.73979
5.69933
5.71893
5.6415
5.76391
5.58186
5.6793
5.55409
5.52726
5.75702
5.57814
5.70655
5.68843
5.71752
5.44069
5.76979
5.6684
5.7967
5.343
5.68883
5.47619
5.46157
5.46125
5.38534
5.65562
5.78628
5.77525
5.62636
5.70019
5.65779
5.69417
5.75996
5.44071
5.76285
5.79378
5.45829
5.71262
5.68854
5.4291
5.59052
5.47846
5.66912
5.5732
5.65222
5.77856
5.70409
5.72149
5.6133
5.56209
5.69778
5.45825
5.6003
5.63843
5.67578
5.73213
5.68086
5.74804
5.7646
5.45476
5.39048
5.66533
5.67251
5.70141
5.47794
5.78504
5.60005
5.73412
5.72007
5.74696
5.6736
5.67946
5.73576
5.76273
5.5256
5.74732
5.63922
5.6596
5.76067
5.78091
5.702
5.59151
5.62066
5.79191
5.77282
5.51296
5.78836
5.79945
5.74879
5.72085
5.76218
5.7982
5.76569
5.7705
5.6314
5.49868
5.77127
5.64999
5.77078
5.78604
5.60055
5.53612
5.50025
5.79164
5.77626
5.39438
5.67367
5.78893
5.64932
5.37304
5.78137
5.75818
5.7072
5.72835
5.62012
5.77105
5.64815
5.79739
5.78161
5.79227
5.41027
5.77091
5.56575
5.68896
5.7562
5.75959
5.6476
5.72759
5.61232
5.72657
5.77973
5.76788
5.68065
5.75191
5.50285
5.63402
5.71453
5.79129
5.47777
5.77829
5.47014
5.80089
5.70816
5.77623
5.6237
5.77667
5.76385
5.6592
5.70369
5.48869
5.53333
5.77649
5.70276
5.75609
5.65827
5.43923
5.41376
5.70816
5.63927
5.67958
5.70894
5.79131
5.59488
5.56191
5.54478
5.74747
5.7401
5.76189
5.75145
5.52944
5.56043
5.76401
5.63932
5.76615
5.78265
5.69845
5.69409
5.77647
5.79129
5.61255
5.53386
5.64729
5.63942
5.70548
5.75815
5.58097
5.39048
5.61113
5.65166
5.75676
5.6364
5.76499
5.57143
5.79058
5.55271
5.79896
5.6498
5.62114
5.57051
5.66568
5.62965
5.63049
5.47736
5.43844
5.77077
5.50736
5.37154
5.7644
5.50396
5.78002
5.5449
5.74792
5.68616
5.46105
5.66877
5.64618
5.75699
5.65762
5.53446
5.7471
5.76731
5.65145
5.79743
5.70773
5.75622
5.60863
5.73747
5.75975
5.77087
5.55239
5.54019
5.75578
5.59053
5.6037
5.63256
5.76005
5.71755
5.69263
5.69794
5.79946
5.06077
5.68142
5.33888
5.79435
5.68257
5.60004
5.64903
5.74762
5.7561
5.56863
5.79948
5.60663
5.58127
5.70799
5.75654
5.34526
5.74692
5.62571
5.74559
5.74081
5.71012
5.70776
5.11428
5.73868
5.63829
5.24173
5.7276
5.62193
5.50555
5.79369
5.3775
5.77071
5.63876
5.52382
5.77169
5.57931
5.48304
5.43324
5.66963
5.56345
5.79167
5.70419
5.69958
5.75911
5.74667
5.59574
5.57839
5.71684
5.77082
5.60416
5.65999
5.41141
5.58297
5.68099
5.72746
5.72599
5.66445
5.60286
5.68209
5.58952
5.7767
5.78841
)


// ************************************************************************* //
