/*--------------------------------*- C++ -*----------------------------------*\
| =========                 |                                                 |
| \\      /  F ield         | OpenFOAM: The Open Source CFD Toolbox           |
|  \\    /   O peration     | Version:  plus.master.MPPICInterFoam            |
|   \\  /    A nd           | Web:      www.OpenFOAM.com                      |
|    \\/     M anipulation  |                                                 |
\*---------------------------------------------------------------------------*/
FoamFile
{
    version     2.0;
    format      ascii;
    class       vectorField;
    location    "5.8/lagrangian/kinematicCloud";
    object      UCorrect;
}
// * * * * * * * * * * * * * * * * * * * * * * * * * * * * * * * * * * * * * //


1902
(
(3.47395e-05 -8.01595e-05 -0.000257227)
(4.39784e-05 -0.000162157 -0.000179791)
(-4.22988e-05 -0.000435436 -0.000214839)
(-5.33389e-05 -0.000428499 -0.000214839)
(9.42963e-07 -8.97722e-09 -5.69946e-06)
(1.78418e-06 1.83024e-07 -3.13526e-06)
(-1.44558e-07 1.70262e-07 -7.24536e-11)
(9.63578e-08 -1.23396e-07 -5.66078e-07)
(-1.41226e-07 1.72919e-07 -7.24536e-11)
(9.42963e-07 -8.97722e-09 -5.69797e-06)
(9.28449e-08 -1.26198e-07 -1.04581e-06)
(9.62055e-08 -1.23518e-07 -5.66078e-07)
(-0.000125375 -0.000383236 -0.000120484)
(-1.40658e-07 1.73373e-07 -7.24536e-11)
(5.6291e-05 -0.000155433 -0.000214839)
(3.92905e-05 -0.000163227 -0.000257227)
(1.42086e-05 -0.000208203 -0.000214839)
(-2.78546e-07 2.9602e-07 -7.24536e-11)
(-1.4443e-07 1.70364e-07 -7.24536e-11)
(9.75914e-08 -1.22412e-07 -5.66078e-07)
(4.18597e-05 -0.00016264 -0.000257227)
(2.55982e-05 -0.000193921 -0.000214839)
(4.08039e-05 -0.000162881 -0.000257227)
(2.77891e-07 -2.99227e-07 -2.64825e-06)
(1.10115e-05 -0.000212212 -0.000214839)
(-8.83239e-08 6.9828e-08 -7.24536e-11)
(-5.96361e-07 -0.000226768 -0.000214839)
(-1.42061e-07 1.72254e-07 -7.24536e-11)
(-0.000125375 -0.000383236 -0.000140096)
(2.77891e-07 -2.99227e-07 -2.07853e-06)
(-2.76158e-08 -9.43777e-08 -2.45226e-06)
(2.12258e-06 -0.000463348 -0.000214839)
(-1.40113e-07 1.73807e-07 -7.24536e-11)
(4.01882e-05 -0.000163022 -0.000257227)
(9.60759e-08 -1.23621e-07 -5.66078e-07)
(-0.000125375 -0.000383236 -0.000141266)
(-4.98546e-05 -0.000430688 -0.000214839)
(-1.49137e-07 1.66611e-07 -5.61626e-11)
(7.99834e-07 1.00179e-06 -6.03692e-07)
(2.59537e-05 -0.000193475 -0.000214839)
(2.20907e-06 -1.91863e-07 -6.39332e-06)
(3.4352e-05 -7.672e-05 -0.000257227)
(-1.42619e-07 1.71808e-07 -7.24536e-11)
(4.39784e-05 -0.000162157 -0.000177079)
(-4.66595e-07 8.48011e-07 -6.0058e-06)
(7.93626e-05 -0.000126503 -0.000214839)
(9.28449e-08 -1.26198e-07 -1.07118e-06)
(4.08632e-05 -0.000162868 -0.000257227)
(2.77891e-07 -2.99227e-07 -1.30982e-06)
(2.20907e-06 -1.91863e-07 -7.4198e-06)
(4.03769e-05 -0.000162979 -0.000257227)
(1.70165e-06 1.64188e-07 -3.13526e-06)
(-2.76158e-08 -9.43777e-08 -1.73642e-06)
(2.53806e-06 1.29796e-06 -0.00122534)
(2.91575e-05 -0.000480335 -0.000214839)
(2.53806e-06 1.29796e-06 -0.00118683)
(-0.000125375 -0.000383236 -8.30152e-05)
(2.53806e-06 1.29796e-06 -0.00123442)
(-0.000125375 -0.000383236 -8.56942e-05)
(4.06613e-05 -0.000162914 -0.000257227)
(2.53806e-06 1.29796e-06 -0.00121601)
(9.28449e-08 -1.26198e-07 -1.07423e-06)
(1.74361e-06 1.73766e-07 -3.13526e-06)
(-1.83906e-06 3.297e-07 -1.5053e-06)
(4.39784e-05 -0.000162157 -8.21436e-05)
(8.66094e-07 1.08488e-06 -6.03692e-07)
(2.20907e-06 -1.91863e-07 -6.56979e-06)
(1.03092e-05 1.65695e-06 -1.17793e-05)
(-0.000125375 -0.000383236 -6.57438e-05)
(4.39784e-05 -0.000162157 -6.8042e-05)
(3.58373e-05 -0.000164015 -0.000257227)
(-4.52449e-07 3.297e-07 -2.78627e-06)
(0.000321288 -7.2136e-05 -0.000541773)
(4.39784e-05 -0.000162157 -4.35102e-05)
(4.39784e-05 -0.000162157 -8.68027e-05)
(4.39784e-05 -0.000162157 -9.54508e-05)
(1.50878e-06 1.20321e-06 -1.70924e-06)
(2.53806e-06 1.29796e-06 -0.00123501)
(0.000932775 -0.000211704 -0.00086066)
(2.53806e-06 1.29796e-06 -0.00102155)
(2.53806e-06 1.29796e-06 -0.0011035)
(-1.49137e-07 1.66611e-07 -2.38037e-11)
(4.91843e-06 1.29796e-06 -0.00063791)
(0.000932775 -0.000211704 -0.000834505)
(2.77891e-07 -2.99227e-07 -2.32463e-06)
(-4.52449e-07 3.297e-07 -2.99736e-06)
(1.62691e-06 -1.24825e-06 -0.000337255)
(-4.36686e-07 1.29796e-06 -0.00063791)
(2.05806e-06 1.14832e-06 -1.17793e-05)
(-1.33656e-06 -4.70495e-07 -4.914e-10)
(1.60584e-06 -1.25839e-06 -0.000337255)
(7.9723e-07 -2.15098e-06 -0.000337255)
(1.0596e-05 2.41847e-06 -2.62544e-06)
(2.41702e-06 2.23771e-07 -0.00063791)
(-2.5514e-07 -2.1546e-06 -0.000337255)
(-5.00265e-07 -2.27264e-06 -0.000337255)
(0.000104163 -2.25785e-05 -0.000541773)
(4.39784e-05 -0.000162157 -3.27715e-05)
(-1.32155e-10 -1.1792e-09 -1.0576e-10)
(0.000932775 -0.000211704 -0.00077883)
(8.89222e-07 -2.41387e-06 -0.000337255)
(-5.24026e-06 -1.89212e-06 -1.17793e-05)
(-1.41055e-06 8.48011e-07 -3.27049e-06)
(2.20907e-06 -1.91863e-07 -9.53607e-06)
(9.31111e-07 -2.53358e-06 -0.000337255)
(-6.14498e-06 -2.41311e-06 -3.48864e-06)
(-1.41055e-06 8.48011e-07 -3.45563e-06)
(4.39784e-05 -0.000162157 -1.10377e-05)
(2.92592e-06 -8.75474e-07 -1.51414e-05)
(-1.26929e-10 -1.18039e-09 -1.0576e-10)
(-1.32542e-10 -1.17911e-09 -1.0576e-10)
(0.000406947 -9.16872e-05 -0.000541773)
(7.47674e-07 5.23895e-07 -5.45969e-06)
(-3.45846e-06 -1.48544e-06 -1.17793e-05)
(-0.00198734 0.000453598 -0.00199334)
(-1.41055e-06 8.48011e-07 -3.41171e-06)
(8.10794e-07 -2.18974e-06 -0.000337255)
(-7.62809e-07 -6.08321e-07 -7.20601e-07)
(-7.62809e-07 -6.08321e-07 -6.02448e-07)
(2.44955e-06 -8.79124e-07 -1.17793e-05)
(-6.08561e-06 -2.39956e-06 -3.48864e-06)
(-2.14611e-10 -1.72439e-09 -1.0576e-10)
(-2.16619e-10 -1.74222e-09 -1.0576e-10)
(3.84683e-13 -0.000341701 0.000139598)
(0.000254571 -5.69083e-05 -0.000541773)
(-5.11284e-06 -2.17753e-06 -1.5977e-06)
(-7.62809e-07 -6.08321e-07 -1.03709e-06)
(2.92592e-06 -8.75474e-07 -1.5182e-05)
(2.92592e-06 -8.75474e-07 -1.53593e-05)
(3.49823e-07 1.15323e-06 -2.78304e-06)
(9.46129e-07 1.90097e-06 -1.88529e-06)
(1.17989e-06 8.68576e-07 -5.45969e-06)
(4.57892e-06 1.29796e-06 -0.00063791)
(1.04089e-06 -2.84731e-06 -0.000337255)
(-1.0472e-06 -9.07472e-07 -5.45969e-06)
(2.92592e-06 -8.75474e-07 -1.54937e-05)
(2.11422e-11 9.53256e-07 -1.11039e-08)
(3.84683e-13 -0.000121521 5.38114e-14)
(1.00798e-08 -1.5437e-07 -5.45969e-06)
(1.87855e-06 -1.12707e-06 -0.000337255)
(-5.11284e-06 -2.17753e-06 -2.1088e-06)
(-5.11284e-06 -2.17753e-06 -2.06433e-06)
(-3.68463e-06 -1.53706e-06 -1.17793e-05)
(-1.52655e-10 -1.17452e-09 -1.89527e-10)
(-0.00199905 0.00034971 -0.00113579)
(2.92592e-06 -8.75474e-07 -1.62559e-05)
(7.56705e-20 1.06377e-18 -1.11636e-48)
(1.87654e-11 -1.46736e-11 -1.91105e-06)
(8.3689e-07 -2.26432e-06 -0.000337255)
(2.00504e-06 1.61893e-06 -1.17793e-05)
(2.65131e-06 -1.45572e-06 -1.17793e-05)
(-2.28979e-06 -1.2187e-06 -1.17793e-05)
(-3.43877e-06 1.79554e-06 -4.01158e-06)
(-1.35052e-10 -1.17854e-09 -1.0576e-10)
(-1.34824e-10 -1.17859e-09 -1.0576e-10)
(3.99062e-07 8.4751e-07 -1.22159e-06)
(-2.09875e-06 -1.17509e-06 -1.17793e-05)
(-7.64679e-07 -1.60657e-06 -6.63827e-06)
(-5.11284e-06 -2.17753e-06 -1.85061e-06)
(2.92592e-06 -8.75474e-07 -1.66245e-05)
(2.92592e-06 -8.75474e-07 -1.68017e-05)
(-2.2508e-10 -1.81731e-09 -1.0576e-10)
(1.56748e-09 1.81756e-09 3.70721e-10)
(0.000469693 -0.000106008 -0.000541773)
(0.000910943 -0.000274094 -0.000541773)
(-5.11284e-06 -2.17753e-06 -2.26478e-06)
(-5.87874e-06 -2.03785e-06 -1.17793e-05)
(-1.41055e-06 8.48011e-07 -4.20911e-06)
(-8.52288e-06 1.29246e-06 -8.33203e-07)
(-1.28272e-10 -1.18008e-09 -1.0576e-10)
(9.69444e-06 -2.86552e-06 -1.83136e-05)
(0.00160195 -0.00036444 -0.000541773)
(0.000900376 -0.000304294 -0.000541773)
(0.000778091 -0.000176398 -0.000541773)
(-5.67589e-07 -8.52874e-07 -5.6487e-07)
(1.613e-06 1.29796e-06 -0.00063791)
(-8.10551e-07 8.48011e-07 -6.0058e-06)
(9.69444e-06 -2.86552e-06 -1.79125e-05)
(-5.75984e-06 -2.32521e-06 -3.48864e-06)
(-6.38212e-08 -5.81722e-08 -5.45969e-06)
(-4.07245e-06 -1.44671e-06 -3.73093e-06)
(-0.00198734 0.000453598 -0.00148312)
(9.69444e-06 -2.86552e-06 -1.48649e-05)
(-1.25532e-06 -3.37827e-07 -8.76315e-06)
(1.93858e-06 9.33552e-07 -8.17052e-07)
(3.96262e-07 8.48858e-07 -1.22159e-06)
(-6.04606e-06 -2.39053e-06 -3.48864e-06)
(-5.11284e-06 -2.17753e-06 -2.45316e-06)
(-2.18437e-06 -1.19464e-06 -1.17793e-05)
(6.96358e-06 8.93323e-07 -1.17793e-05)
(9.69444e-06 -2.86552e-06 -1.41042e-05)
(5.70676e-06 -1.16549e-06 -8.65289e-08)
(-1.41055e-06 8.48011e-07 -4.47047e-06)
(-1.52443e-06 -1.2157e-06 -3.68617e-06)
(-8.45136e-07 8.48011e-07 -6.0058e-06)
(2.92592e-06 -8.75474e-07 -1.70811e-05)
(5.78454e-07 -4.88084e-07 -6.63827e-06)
(5.42517e-06 -1.16549e-06 -8.65289e-08)
(9.69444e-06 -2.86552e-06 -1.46214e-05)
(-1.52655e-10 -1.17452e-09 -1.82497e-10)
(2.41869e-06 2.38578e-07 -0.00063791)
(1.57107e-06 1.25288e-06 -1.70924e-06)
(8.36446e-07 6.67045e-07 -3.37296e-06)
(2.41998e-06 2.50004e-07 -0.00063791)
(1.16324e-06 5.60169e-07 -1.39625e-06)
(-7.53945e-07 -2.39481e-06 -0.000337255)
(-9.95659e-07 -1.89621e-06 -6.63827e-06)
(8.94337e-06 1.3452e-06 -1.17793e-05)
(2.44115e-06 4.37904e-07 -0.00063791)
(8.88978e-07 -2.41317e-06 -0.000337255)
(6.73717e-07 4.64916e-07 -5.45969e-06)
(-5.11284e-06 -2.17753e-06 -2.75609e-06)
(-4.28564e-06 -1.67424e-06 -1.17793e-05)
(-8.40034e-07 -1.70106e-06 -6.63827e-06)
(-4.68139e-07 -1.23472e-06 -6.63827e-06)
(-0.00199477 0.000387637 -0.00113579)
(-6.46321e-06 8.22356e-07 -8.33203e-07)
(9.69444e-06 -2.86552e-06 -1.64617e-05)
(9.69444e-06 -2.86552e-06 -1.57752e-05)
(-1.52655e-10 -1.17452e-09 -1.98074e-10)
(-1.34403e-06 -5.22049e-07 -1.19043e-05)
(8.99488e-06 1.35696e-06 -1.17793e-05)
(-5.20976e-06 -1.31732e-06 -3.48864e-06)
(-5.75263e-07 -8.48052e-07 -5.6487e-07)
(-0.000271016 6.18577e-05 -0.00113579)
(-1.34403e-06 -5.22049e-07 -1.19879e-05)
(1.05434e-05 1.71038e-06 -1.17793e-05)
(5.79747e-06 6.27165e-07 -1.17793e-05)
(-5.84931e-07 8.48011e-07 -6.0058e-06)
(-9.52933e-07 -1.84263e-06 -6.63827e-06)
(1.58541e-06 1.34034e-06 -6.63827e-06)
(9.52154e-07 -2.59372e-06 -0.000337255)
(-7.41791e-07 -6.63913e-07 -5.45969e-06)
(-5.70236e-07 -1.36274e-06 -6.63827e-06)
(-5.11284e-06 -2.17753e-06 -3.03135e-06)
(-3.6824e-06 2.03643e-06 -0.000541773)
(-1.14263e-05 1.95516e-06 -8.33203e-07)
(9.69444e-06 -2.86552e-06 -1.22244e-05)
(1.52206e-05 -4.03345e-06 -2.95668e-08)
(2.20907e-06 -1.91863e-07 -1.37767e-05)
(-1.17248e-06 -2.59636e-06 -0.000337255)
(-5.11284e-06 -2.17753e-06 -3.0692e-06)
(-1.33851e-06 -1.67841e-06 -5.6487e-07)
(-1.4816e-06 -1.18154e-06 -3.68617e-06)
(-0.000538023 0.0001228 -0.00113579)
(-2.56817e-06 -6.66617e-08 -8.33203e-07)
(-1.52655e-10 -1.17452e-09 -1.98564e-10)
(0.000938872 -0.000157587 -0.000541773)
(-5.22419e-06 -1.18926e-06 -3.48864e-06)
(-1.73343e-06 -1.7759e-06 -1.74993e-06)
(2.42605e-06 3.03864e-07 -0.00063791)
(2.20907e-06 -1.91863e-07 -1.42526e-05)
(-0.00199795 0.000359411 -0.00113579)
(5.52408e-08 -6.65437e-07 -8.33203e-07)
(-0.00103179 0.000235499 -0.00113579)
(1.52206e-05 -4.03345e-06 -5.92575e-08)
(-4.94283e-10 2.46663e-10 -1.66031e-06)
(2.10451e-06 7.36124e-07 -1.17793e-05)
(-8.96295e-06 1.39291e-06 -8.33203e-07)
(3.08959e-05 -7.70461e-06 -8.33203e-07)
(2.69167e-06 -1.57105e-06 -1.17793e-05)
(0.00090038 -0.000304283 -0.000541773)
(-4.99636e-06 -1.83646e-06 -1.17793e-05)
(-5.8701e-06 -2.35037e-06 -3.48864e-06)
(-5.86501e-06 -2.34921e-06 -3.48864e-06)
(-1.25498e-05 2.21158e-06 -8.33203e-07)
(1.52206e-05 -4.03345e-06 -1.80136e-07)
(2.77891e-07 -2.99227e-07 -9.53958e-06)
(-4.87749e-06 -2.85012e-06 -3.48864e-06)
(9.69444e-06 -2.86552e-06 -6.8336e-06)
(-2.9164e-06 1.28202e-08 -8.33203e-07)
(2.65301e-05 -6.70816e-06 -8.33203e-07)
(3.08963e-05 -7.61133e-06 -7.09393e-07)
(1.49776e-06 1.12207e-06 -5.45969e-06)
(8.36446e-07 6.67045e-07 -3.28752e-06)
(-9.02442e-06 1.40694e-06 -8.33203e-07)
(9.69444e-06 -2.86552e-06 -9.47513e-06)
(-5.70403e-06 6.49078e-07 -8.33203e-07)
(0.000179613 0.000289049 -0.00043216)
(2.53806e-06 1.29796e-06 -0.000329635)
(-5.99499e-06 -2.37888e-06 -3.48864e-06)
(2.53806e-06 1.29796e-06 -0.000354428)
(-1.9242e-07 1.29796e-06 -0.00063791)
(-0.00200103 0.00033207 -0.00113579)
(-4.17549e-06 3.00201e-07 -8.33203e-07)
(-1.34403e-06 -5.22049e-07 -1.46693e-05)
(-2.76158e-08 -9.43777e-08 -7.72176e-06)
(-5.4568e-06 -2.25604e-06 -3.48864e-06)
(2.59726e-05 -6.5809e-06 -8.33203e-07)
(-2.76158e-08 -9.43777e-08 -8.18967e-06)
(9.69444e-06 -2.86552e-06 -5.60471e-06)
(2.60694e-06 -1.15447e-06 -7.09393e-07)
(2.10431e-14 -2.69632e-15 5.86122e-10)
(-1.34403e-06 -5.22049e-07 -1.53527e-05)
(-1.34403e-06 -5.22049e-07 -1.42698e-05)
(0.000122751 -2.68212e-05 -0.000541773)
(-0.00199966 0.000344237 -0.00113579)
(-4.53793e-06 3.82925e-07 -8.33203e-07)
(0.0014594 0.000333687 -4.86492e-06)
(-2.76158e-08 -9.43777e-08 -8.48396e-06)
(-0.0020003 0.000338614 -0.00113579)
(-0.000678367 3.721e-12 -0.000604226)
(-0.000678367 3.721e-12 -0.000620159)
(-0.00199736 0.000364645 -0.00113579)
(1.52206e-05 -4.03345e-06 -3.66038e-07)
(1.66401e-05 -4.45082e-06 -8.33203e-07)
(2.22278e-05 -5.72619e-06 -8.33203e-07)
(-2.22669e-06 -1.44602e-07 -8.33203e-07)
(0.000741285 0.00015045 -0.00043216)
(2.20907e-06 -1.91863e-07 -1.51534e-05)
(-1.02579e-05 1.68846e-06 -8.33203e-07)
(2.74769e-05 -6.92426e-06 -8.33203e-07)
(-0.0003717 8.4838e-05 -0.00113579)
(0.00074037 0.000142322 -0.00043216)
(0.000904522 -0.000292444 -0.000541773)
(-1.34403e-06 -5.22049e-07 -1.56416e-05)
(1.00304e-05 1.16364e-07 -8.33203e-07)
(9.69444e-06 -2.86552e-06 -3.85954e-06)
(0.000739133 0.000131351 -0.00043216)
(6.63638e-19 9.95569e-17 -4.47152e-16)
(-4.84936e-20 -5.03002e-19 -2.12613e-19)
(0.00084089 0.000791834 -2.51325e-12)
(2.9988e-05 3.76951e-05 -3.03206e-11)
(0.000770691 0.000966508 -3.54183e-06)
(0.000900878 -0.00030286 -0.000541773)
(3.42799e-11 -2.7046e-11 -1.91105e-06)
(-2.83886e-06 -7.29424e-06 -3.38504e-09)
(-5.55379e-06 -2.27817e-06 -3.48864e-06)
(-0.00199917 0.000348596 -0.00113579)
(-0.000243637 3.721e-12 -0.000385028)
(1.55385e-05 -4.19939e-06 -8.33203e-07)
(-8.68882e-06 1.33034e-06 -8.33203e-07)
(2.81909e-05 -6.99385e-06 -7.09393e-07)
(4.63462e-06 -1.71065e-06 -8.33203e-07)
(0.000738819 0.000128564 -0.00043216)
(-1.34403e-06 -5.22049e-07 -1.74631e-05)
(2.20907e-06 -1.91863e-07 -1.60318e-05)
(1.95922e-06 2.02554e-06 -1.17793e-05)
(2.53806e-06 1.29796e-06 -0.000165836)
(-1.34403e-06 -5.22049e-07 -1.57616e-05)
(-0.00198734 0.000453598 -0.00051814)
(-0.00200251 0.000318952 -0.00113579)
(-0.00117817 0.000268909 -0.00113579)
(-0.000732257 0.000167133 -0.00113579)
(-1.04554e-05 1.73354e-06 -8.33203e-07)
(2.0587e-06 -1.12271e-06 -8.33203e-07)
(-6.47787e-06 8.25703e-07 -8.33203e-07)
(9.97681e-06 -3.59493e-07 -8.33203e-07)
(1.73481e-05 -4.61242e-06 -8.33203e-07)
(-0.000257121 5.86862e-05 -0.00113579)
(-0.000221348 5.05212e-05 -0.00113579)
(3.91674e-06 -1.5468e-06 -8.33203e-07)
(0.0014594 0.000333687 -4.41903e-06)
(-1.34403e-06 -5.22049e-07 -1.64114e-05)
(-5.80047e-06 -2.33448e-06 -3.48864e-06)
(-1.90676e-06 8.48011e-07 -6.0058e-06)
(-0.00198734 0.000453598 -0.000384195)
(-0.00110346 0.000251856 -0.00113579)
(-0.000288148 6.57678e-05 -0.00113579)
(-7.18713e-06 9.87588e-07 -8.33203e-07)
(-4.82028e-07 -5.42809e-07 -8.33203e-07)
(2.64898e-05 -6.69895e-06 -8.33203e-07)
(-2.96188e-05 6.76028e-06 -0.00113579)
(0.000206352 0.000289049 -0.00043216)
(2.77891e-07 -2.99227e-07 -1.18885e-05)
(0.0014594 0.000333687 -4.08541e-06)
(6.46553e-07 -1.72036e-06 -7.08597e-05)
(-8.17732e-06 1.21359e-06 -8.33203e-07)
(2.35272e-05 -6.02275e-06 -8.33203e-07)
(-8.75628e-06 1.34574e-06 -8.33203e-07)
(2.77891e-07 -2.99227e-07 -1.18516e-05)
(3.70342e-07 8.6134e-07 -2.33437e-06)
(-3.28753e-06 -3.91541e-07 -1.12748e-05)
(0.000907751 0.000724974 -2.82133e-06)
(-1.34403e-06 -5.22049e-07 -1.73062e-05)
(-5.1817e-06 -1.56638e-06 -3.48864e-06)
(-0.00198734 0.000453598 -0.000398893)
(-0.000961965 0.000219562 -0.00113579)
(-0.000334305 7.63029e-05 -0.00113579)
(-2.14852e-09 1.27388e-09 -1.66031e-06)
(2.8184e-06 -3.64056e-06 -1.19454e-05)
(-7.1802e-07 -1.2869e-06 -3.06822e-06)
(-0.00198734 0.000453598 -0.000336804)
(-0.00198734 0.000453598 -0.000577131)
(-1.21099e-06 -3.76429e-07 -8.33203e-07)
(0.000943718 0.000667733 -2.51325e-12)
(2.8184e-06 -3.64056e-06 -1.06881e-05)
(-0.00198734 0.000453598 -0.000502652)
(1.68052e-05 -4.48851e-06 -8.33203e-07)
(-1.23731e-05 2.17124e-06 -8.33203e-07)
(2.20907e-06 -1.91863e-07 -1.72677e-05)
(8.62565e-06 7.06224e-06 -9.47836e-07)
(9.7453e-06 7.12561e-06 -2.21188e-05)
(0.000932775 -0.000211704 -0.000103525)
(-6.44794e-07 8.08546e-07 -4.8917e-07)
(-0.000199507 3.721e-12 -0.000385028)
(-0.000111962 3.721e-12 -0.000385028)
(1.52793e-05 -3.51186e-06 -7.09393e-07)
(2.94412e-05 1.75011e-06 1.30587e-06)
(-3.28753e-06 -3.91541e-07 -1.08078e-05)
(-9.72354e-08 1.29796e-06 -0.00063791)
(-2.02143e-06 8.48011e-07 -6.0058e-06)
(-0.000794289 0.000181291 -0.00113579)
(-1.22793e-05 2.14985e-06 -8.33203e-07)
(-5.74927e-06 6.59404e-07 -8.33203e-07)
(1.03135e-05 2.62888e-06 -8.33203e-07)
(1.07127e-05 2.15692e-05 -1.75731e-06)
(-5.66318e-07 8.57856e-07 -3.40744e-07)
(-2.04977e-06 8.48011e-07 -6.0058e-06)
(-3.49857e-06 1.45698e-07 -8.33203e-07)
(-7.66656e-06 1.09701e-06 -8.33203e-07)
(-0.00198734 0.000453598 -0.00046501)
(-0.00198734 0.000453598 -0.000478437)
(1.04137e-05 3.51776e-06 -8.33203e-07)
(1.03133e-05 2.62697e-06 -8.33203e-07)
(0.000735586 9.98694e-05 -0.00043216)
(1.04856e-05 4.15631e-06 -8.33203e-07)
(4.39838e-06 -1.65673e-06 -8.33203e-07)
(-6.44794e-07 8.08546e-07 -5.81872e-07)
(-2.74687e-07 -3.21075e-07 -4.31835e-06)
(-2.74687e-07 -3.21075e-07 -4.03323e-06)
(-6.44794e-07 8.08546e-07 -5.63486e-07)
(-2.25975e-09 1.09687e-09 -2.9352e-06)
(-2.01969e-06 8.48011e-07 -6.0058e-06)
(-0.000149297 3.721e-12 -0.000385028)
(-6.94034e-06 9.31259e-07 -8.33203e-07)
(-0.00198734 0.000453598 -0.000431614)
(0.00062509 0.000300243 -8.78609e-07)
(-5.2665e-06 -1.89811e-06 -1.17793e-05)
(0.000932775 -0.000211704 -1.75764e-05)
(9.69444e-06 -2.86552e-06 7.93306e-06)
(-0.00198734 0.000453598 -0.000409724)
(0.000602986 0.000335421 -1.42609e-11)
(3.70088e-12 -4.18512e-06 -1.11524e-06)
(2.48027e-06 -1.46432e-06 -2.33372e-06)
(-1.41055e-06 8.48011e-07 -8.04206e-06)
(-0.000116088 3.721e-12 -0.000385028)
(1.05413e-05 4.65087e-06 -8.33203e-07)
(1.03515e-05 2.96565e-06 -8.33203e-07)
(0.00147012 0.000238561 -1.17017e-06)
(3.3867e-06 -7.06199e-07 2.41566e-06)
(-3.56382e-06 -2.17936e-07 -2.75638e-06)
(2.48027e-06 -1.46432e-06 -2.30611e-06)
(8.62565e-06 7.06224e-06 -1.00919e-06)
(2.46746e-06 1.88264e-06 -7.97335e-06)
(2.9169e-10 -2.32324e-10 -3.41427e-06)
(-6.44794e-07 8.08546e-07 -5.75954e-07)
(-0.00198734 0.000453598 -0.000387733)
(2.13809e-05 -5.53287e-06 -8.33203e-07)
(2.49839e-06 -4.39942e-06 -1.30419e-05)
(8.62565e-06 7.06224e-06 -9.72548e-07)
(-5.08251e-08 3.77362e-07 -2.58709e-07)
(-6.44794e-07 8.08546e-07 -6.19861e-07)
(-1.84101e-06 8.48011e-07 -6.0058e-06)
(-1.75312e-06 -2.52691e-07 -8.33203e-07)
(2.92332e-05 -7.32511e-06 -8.33203e-07)
(0.000770691 0.000966508 -1.70804e-06)
(-3.57081e-06 -2.13543e-07 -2.75638e-06)
(-3.86255e-07 1.10281e-06 -2.73963e-07)
(-7.62809e-07 -6.08321e-07 -7.27192e-06)
(-6.44794e-07 8.08546e-07 -6.44232e-07)
(-8.0994e-07 1.19552e-06 -4.01158e-06)
(-5.51367e-07 8.6725e-07 -3.40744e-07)
(-0.000349495 3.721e-12 -0.000385028)
(-3.683e-06 1.87792e-07 -8.33203e-07)
(-0.000401647 3.721e-12 -0.000385028)
(-0.00198734 0.000453598 -0.000198124)
(-0.00198734 0.000453598 -0.000196557)
(-1.61695e-06 3.94101e-06 -1.6805e-09)
(2.48027e-06 -1.46432e-06 -2.4152e-06)
(8.62565e-06 7.06224e-06 -9.61621e-07)
(-6.44794e-07 8.08546e-07 -5.9243e-07)
(-0.00198734 0.000453598 -6.54063e-07)
(-5.11284e-06 -2.17753e-06 -5.28432e-06)
(-1.41055e-06 8.48011e-07 -7.7111e-06)
(-1.41055e-06 8.48011e-07 -7.85871e-06)
(-2.29042e-06 8.48011e-07 -6.0058e-06)
(-0.000328652 7.50128e-05 -0.00113579)
(-4.35249e-06 -2.00399e-06 -3.48864e-06)
(1.05912e-05 5.09382e-06 -8.33203e-07)
(1.03991e-07 4.91593e-07 -3.74306e-06)
(0.0014594 0.000333687 -2.83809e-06)
(0.0014594 0.000333687 -2.99908e-06)
(2.49839e-06 -4.39942e-06 -1.12746e-05)
(-7.75784e-07 -3.39903e-06 -3.78319e-06)
(-1.76625e-07 7.73851e-07 -2.58709e-07)
(-1.96845e-06 8.48011e-07 -6.0058e-06)
(-1.41055e-06 8.48011e-07 -7.77302e-06)
(1.06637e-05 5.73672e-06 -8.33203e-07)
(0.000756902 0.000289049 -0.000174377)
(3.09059e-05 -7.61352e-06 -7.09393e-07)
(3.83531e-16 1.22097e-16 6.86532e-14)
(9.7453e-06 7.12561e-06 -1.88014e-05)
(-5.54132e-07 8.65513e-07 -3.40744e-07)
(-2.00342e-06 1.46793e-06 -7.90782e-06)
(2.63805e-08 2.65161e-07 -2.58082e-10)
(2.34003e-08 2.65496e-07 -2.58082e-10)
(-1.65116e-08 -3.42792e-08 -9.84084e-06)
(-5.53667e-07 8.65805e-07 -3.40744e-07)
(2.9169e-10 -2.32324e-10 -3.45869e-06)
(2.9169e-10 -2.32324e-10 -3.46653e-06)
(-7.75784e-07 -3.39903e-06 -3.16059e-06)
(1.06117e-05 5.27523e-06 -8.33203e-07)
(3.14056e-05 -7.72758e-06 -7.09393e-07)
(2.62375e-05 -6.64137e-06 -8.33203e-07)
(2.25924e-06 -2.27688e-06 1.30587e-06)
(8.0104e-06 1.37756e-05 -2.75638e-06)
(0.000645854 0.000240904 -1.42609e-11)
(1.04155e-05 2.09522e-05 -1.75731e-06)
(1.65249e-07 -0.000580995 -1.28247e-06)
(-3.28753e-06 -3.91541e-07 -8.45693e-06)
(3.70088e-12 -4.18512e-06 -1.30158e-06)
(-0.000956936 0.000764238 -3.58284e-06)
(2.9169e-10 -2.32324e-10 -3.54348e-06)
(-2.25975e-09 1.09687e-09 -2.77575e-06)
(-1.96627e-07 4.48774e-08 5.41319e-06)
(-0.00198734 0.000453598 -0.000138067)
(9.69444e-06 -2.86552e-06 1.27e-05)
(9.69444e-06 -2.86552e-06 9.01299e-06)
(-2.00342e-06 1.46793e-06 -6.68414e-06)
(-6.69307e-07 1.16342e-06 -4.01158e-06)
(2.28354e-05 -5.86485e-06 -8.33203e-07)
(1.03068e-05 2.07265e-05 -1.75731e-06)
(-1.96627e-07 4.48774e-08 5.38299e-06)
(-1.04566e-08 -2.17059e-08 -1.62406e-05)
(-5.102e-07 1.05944e-06 -5.37515e-07)
(-1.41055e-06 8.48011e-07 -8.03673e-06)
(3.22504e-08 -2.80371e-07 -1.70879e-06)
(7.26141e-07 4.02056e-07 -0.00134111)
(2.9169e-10 -2.32324e-10 -3.65565e-06)
(-0.000678367 3.721e-12 -0.000249834)
(-2.00342e-06 1.46793e-06 -7.00832e-06)
(-3.84058e-09 1.85815e-09 -1.66031e-06)
(-2.39544e-06 -5.57779e-06 -2.43047e-09)
(0.000756902 0.000289049 -0.000169608)
(0.00146272 0.000289049 -0.00043216)
(-0.00115731 3.721e-12 -0.000385028)
(0.000907751 0.000724974 -1.07424e-06)
(4.74551e-06 -4.35221e-06 -9.29785e-07)
(2.49839e-06 -4.39942e-06 -1.08413e-05)
(2.8184e-06 -3.64056e-06 -8.47659e-06)
(-5.29382e-06 1.20828e-06 4.04588e-06)
(-1.41055e-06 8.48011e-07 -8.72773e-06)
(3.70088e-12 -4.18512e-06 -1.24059e-06)
(3.70088e-12 -4.18512e-06 -1.26112e-06)
(3.37358e-08 -2.80204e-07 -1.70879e-06)
(-4.51757e-05 1.03121e-05 -0.000315028)
(6.43402e-08 -2.76755e-07 -3.06437e-06)
(1.6895e-10 2.68114e-07 -1.74543e-11)
(6.43402e-08 -2.76755e-07 -3.23974e-06)
(3.70088e-12 -4.18512e-06 -1.23675e-06)
(-6.44794e-07 8.08546e-07 -6.13554e-07)
(9.60217e-05 0.000874613 -0.000565)
(2.30956e-06 -2.72349e-06 1.30587e-06)
(7.66419e-06 1.33415e-05 -2.75638e-06)
(-2.14889e-06 1.26593e-06 0.00062924)
(-1.52649e-06 2.25648e-06 8.14855e-05)
(-0.000956936 0.000764238 -3.71479e-06)
(-0.000956936 0.000764238 -3.75797e-06)
(-1.41055e-06 8.48011e-07 -8.12564e-06)
(6.43402e-08 -2.76755e-07 -3.21604e-06)
(-0.00067225 -5.42907e-05 -0.000385028)
(6.43402e-08 -2.76755e-07 -3.05273e-06)
(-2.25975e-09 1.09687e-09 -2.99319e-06)
(-6.44794e-07 8.08546e-07 -6.64679e-07)
(-4.41491e-08 3.78114e-07 -2.58709e-07)
(1.34646e-06 1.89528e-06 -0.00209547)
(-0.000956936 0.000764238 -3.25926e-06)
(-1.41055e-06 8.48011e-07 -8.61017e-06)
(3.70088e-12 -4.18512e-06 -1.26891e-06)
(1.20391e-06 -8.51207e-08 -0.000581606)
(0.000254361 -0.00111251 -3.33563e-06)
(-7.75784e-07 -3.39903e-06 -3.69592e-06)
(-2.25975e-09 1.09687e-09 -3.02134e-06)
(-6.44794e-07 8.08546e-07 -6.08026e-07)
(1.6895e-10 2.68114e-07 -3.3325e-11)
(0.00136472 0.000289049 -0.00043216)
(0.000756902 0.000289049 -0.000148704)
(0.00094884 0.000659581 -2.51325e-12)
(-2.51703e-06 3.23891e-06 -0.00067476)
(4.56801e-05 7.12561e-06 -1.5914e-06)
(-2.37134e-05 -5.5179e-09 -7.49765e-06)
(-1.96627e-07 4.48774e-08 4.91755e-06)
(-2.37134e-05 -5.5179e-09 -8.51663e-06)
(-2.37134e-05 -5.5179e-09 -8.8623e-06)
(-1.41055e-06 8.48011e-07 -8.90715e-06)
(-1.04566e-08 -2.17059e-08 -1.78409e-05)
(-2.00342e-06 1.46793e-06 -7.97573e-06)
(1.6895e-10 2.68114e-07 -4.77471e-12)
(-7.75784e-07 -3.39903e-06 -3.87587e-06)
(-0.00198734 0.000453598 -0.000110697)
(-0.000117201 0.000243493 -5.40809e-07)
(0.000756902 0.000289049 -0.000136219)
(0.000756902 0.000289049 -0.00012144)
(9.60217e-05 0.000874613 -0.00066276)
(1.04522e-05 1.33992e-05 -1.5914e-06)
(-1.52649e-06 2.25648e-06 0.000167967)
(2.69014e-07 -2.54682e-07 -0.00108032)
(-4.36732e-05 9.96917e-06 -0.000315028)
(2.48027e-06 -1.46432e-06 -2.21985e-06)
(-2.37134e-05 -5.5179e-09 -7.46945e-06)
(-7.75784e-07 -3.39903e-06 -3.90236e-06)
(-2.31858e-06 8.48011e-07 -6.0058e-06)
(-1.52649e-06 2.25648e-06 0.000106978)
(3.70088e-12 -4.18512e-06 -1.23928e-06)
(-0.00174764 -0.000401706 -4.95235e-06)
(-0.00174764 -0.000401706 -4.56997e-06)
(-7.75784e-07 -3.39903e-06 -3.7919e-06)
(-0.000678367 3.721e-12 -0.000128983)
(-0.000678367 3.721e-12 -0.000187737)
(-2.00342e-06 1.46793e-06 -7.46694e-06)
(-7.62809e-07 -6.08321e-07 -6.87234e-06)
(9.60217e-05 0.000874613 -0.000697382)
(2.07121e-05 4.97662e-06 -1.70786e-06)
(5.76867e-05 1.37554e-05 -1.17017e-06)
(1.10522e-05 2.22743e-05 -1.75731e-06)
(-0.000956936 0.000764238 -3.29669e-06)
(6.22723e-06 1.15396e-05 -2.75638e-06)
(-2.62751e-05 -5.5179e-09 1.51115e-06)
(-1.05526e-05 -5.30492e-06 -2.70587e-06)
(8.97963e-06 1.02804e-06 -0.00124926)
(-2.37134e-05 -5.5179e-09 -7.1661e-06)
(1.74679e-06 7.59198e-07 -0.000728666)
(0.000254361 -0.00111251 -3.19203e-06)
(-0.000678367 3.721e-12 -0.000115672)
(-0.000678367 3.721e-12 -0.000106488)
(-1.52649e-06 2.25648e-06 -1.22248e-06)
(-0.00049469 -0.000613828 -1.91814e-06)
(-0.000678367 3.721e-12 -0.000123861)
(0.000110527 -9.76555e-06 -1.34046e-06)
(0.000959732 0.000642245 -2.51325e-12)
(3.24952e-05 2.44716e-06 1.30587e-06)
(-3.57432e-06 -2.11336e-07 -2.75638e-06)
(9.63915e-06 7.60187e-06 -3.89316e-07)
(-2.21786e-05 -1.00318e-05 1.30587e-06)
(-6.86844e-06 1.56768e-06 4.04588e-06)
(-2.29401e-06 -1.40547e-05 -0.00118246)
(-1.04566e-08 -2.17059e-08 -1.87596e-05)
(0.000254361 -0.00111251 -3.1596e-06)
(-1.04566e-08 -2.17059e-08 -1.88801e-05)
(-7.19227e-06 -6.44246e-06 -6.53009e-06)
(-2.47586e-06 -3.79469e-05 -1.57528e-06)
(0.000133425 -0.00112613 -1.03545e-12)
(-0.000678367 3.721e-12 -4.95411e-05)
(6.02121e-07 -1.52926e-07 -0.000333553)
(-0.000678367 3.721e-12 -8.38029e-05)
(-1.52649e-06 2.25648e-06 4.30163e-06)
(-0.00049469 -0.000613828 -1.88394e-06)
(-0.00122871 3.721e-12 -0.000385028)
(-0.000956936 0.000764238 -3.3948e-06)
(-2.1225e-05 -9.81411e-06 1.30587e-06)
(2.69014e-07 -2.54682e-07 -0.000997291)
(-1.05526e-05 -5.30492e-06 -2.68952e-06)
(-6.79688e-06 1.55134e-06 4.04588e-06)
(4.08981e-06 -2.10344e-05 -0.00124926)
(-0.00049469 -0.000613828 -1.59367e-06)
(4.7493e-06 -1.084e-06 4.04588e-06)
(-4.14711e-06 9.4655e-07 4.04588e-06)
(-1.52649e-06 2.25648e-06 2.90641e-05)
(-0.000272415 -0.00122063 -3.60067e-06)
(-0.000678367 3.721e-12 -8.37122e-05)
(1.52324e-06 6.80972e-07 -0.000728666)
(-0.000956936 0.000764238 -3.5917e-06)
(0.000623193 5.25297e-07 4.71458e-07)
(0.000756902 0.000289049 -1.37619e-05)
(-0.000117201 0.000243493 -5.23852e-07)
(-0.000117201 0.000243493 -5.35915e-07)
(-4.50796e-05 4.19403e-07 -3.91045e-09)
(-9.6722e-13 -5.00925e-12 1.05119e-07)
(1.61745e-05 -1.27794e-06 1.30587e-06)
(2.49839e-06 -4.39942e-06 -6.731e-06)
(2.90978e-06 -5.5751e-06 1.30587e-06)
(2.49839e-06 -4.39942e-06 -6.8313e-06)
(4.46985e-05 7.12561e-06 -1.5914e-06)
(-7.19227e-06 -6.44246e-06 -5.07659e-06)
(4.46154e-05 -0.000428068 -0.000246891)
(-7.19227e-06 -6.44246e-06 -5.33412e-06)
(-6.00836e-06 1.37137e-06 4.04588e-06)
(-1.04566e-08 -2.17059e-08 -1.94276e-05)
(0.000254361 -0.00111251 -3.06587e-06)
(-2.37134e-05 -5.5179e-09 -7.35527e-06)
(-7.19227e-06 -6.44246e-06 -6.48363e-06)
(-0.00173257 0.000398372 -6.8748e-06)
(-7.62809e-07 -6.08321e-07 -7.3135e-06)
(0.000623193 5.25297e-07 4.56998e-07)
(-0.000203795 0.000257271 -6.30993e-07)
(0.000756902 0.000289049 -6.35311e-05)
(-2.83813e-07 2.16605e-08 3.01602e-07)
(0.0018739 0.000428294 -1.17017e-06)
(9.92387e-06 1.99313e-05 -1.75731e-06)
(2.49839e-06 -4.39942e-06 -5.62137e-06)
(-1.05526e-05 -5.30492e-06 -2.24788e-06)
(2.46746e-06 1.88264e-06 -3.70555e-06)
(-0.000280754 -0.00058149 -1.64783e-11)
(1.6994e-07 8.23309e-07 -3.32805e-12)
(-6.28151e-05 -0.000573899 -9.1915e-07)
(4.08981e-06 -1.90245e-05 -0.00124926)
(-7.19227e-06 -6.44246e-06 -5.14012e-06)
(-2.57468e-05 7.12561e-06 -1.5914e-06)
(2.69014e-07 -2.54682e-07 -0.000935812)
(-1.96627e-07 4.48774e-08 4.94585e-06)
(-1.9948e-06 -1.27438e-05 -0.00118246)
(-1.52649e-06 2.25648e-06 0.0001589)
(1.34646e-06 1.89528e-06 -0.00212381)
(-0.00174764 -0.000401706 -4.35524e-06)
(-1.52649e-06 2.25648e-06 2.64733e-05)
(-0.000113851 9.18998e-05 -1.43111e-07)
(-2.37134e-05 -5.5179e-09 -8.92314e-06)
(2.60666e-06 -2.0951e-06 -9.29785e-07)
(-1.34399e-06 -9.89236e-06 -0.00118246)
(1.99357e-06 -2.22979e-06 -0.000728666)
(-0.000509594 0.000119235 -3.91745e-07)
(-3.32993e-06 7.60034e-07 4.04588e-06)
(-0.00102782 -0.00213279 -1.91249e-05)
(-0.00173257 0.000398372 -6.15214e-06)
(-0.00174764 -0.000401706 -4.4387e-06)
(2.28395e-07 8.29896e-07 -6.28187e-12)
(-5.65315e-05 0.000248484 -3.86445e-07)
(9.69444e-06 -2.86552e-06 1.5844e-05)
(2.31967e-05 5.78677e-06 -2.60774e-05)
(0.00143501 0.000403379 -1.17017e-06)
(0.00147396 0.000204449 -1.17017e-06)
(5.7368e-05 0.000116312 -0.000660897)
(2.90586e-06 -5.56391e-06 1.30587e-06)
(-3.48693e-06 -2.66246e-07 -2.75638e-06)
(1.67823e-06 7.35206e-07 -0.000728666)
(-0.000102474 2.33902e-05 -0.000315028)
(-2.05083e-06 1.422e-06 0.00062924)
(8.77468e-07 1.3451e-06 -0.000333553)
(2.05441e-06 -2.35611e-06 -0.000728666)
(1.34646e-06 1.89528e-06 -0.00202383)
(-0.000272415 -0.00122063 -3.63145e-06)
(-0.000203795 0.000257271 -4.7112e-07)
(-7.19227e-06 -6.44246e-06 -6.31262e-06)
(-0.000203795 0.000257271 -4.86343e-07)
(-9.09533e-08 -1.17918e-06 -5.73154e-10)
(0.000115198 0.000236397 -0.000660897)
(0.000133121 0.00016702 -3.03206e-11)
(2.49839e-06 -4.39942e-06 -4.77793e-06)