/*--------------------------------*- C++ -*----------------------------------*\
| =========                 |                                                 |
| \\      /  F ield         | OpenFOAM: The Open Source CFD Toolbox           |
|  \\    /   O peration     | Version:  plus.master.MPPICInterFoam            |
|   \\  /    A nd           | Web:      www.OpenFOAM.com                      |
|    \\/     M anipulation  |                                                 |
\*---------------------------------------------------------------------------*/
FoamFile
{
    version     2.0;
    format      ascii;
    class       volScalarField;
    location    "4.4";
    object      nut;
}
// * * * * * * * * * * * * * * * * * * * * * * * * * * * * * * * * * * * * * //

dimensions      [0 2 -1 0 0 0 0];

internalField   nonuniform List<scalar> 
11822
(
0.000618047
0.000647895
0.00066541
0.000666942
0.000661128
0.000641565
0.000611056
0.00065289
0.000681917
0.00069803
0.000698543
0.000693357
0.000676524
0.000642583
0.000676708
0.000702155
0.000714873
0.000740939
0.000693297
0.000697309
0.000662332
0.000686469
0.000719555
0.000747269
0.000732675
0.000743142
0.000702185
0.000670203
0.000684292
0.00071211
0.000709817
0.000752699
0.000696623
0.000702415
0.000668599
0.000667213
0.0006994
0.000715275
0.000712641
0.000706875
0.00068858
0.000654917
0.000637662
0.000668727
0.000686375
0.000688304
0.0006803
0.000660068
0.000628741
0.000624737
0.000658486
0.000679083
0.000684128
0.00067567
0.000653925
0.000621056
0.000663553
0.000702932
0.000731606
0.000741193
0.000726859
0.000695518
0.000656292
0.00069038
0.000731002
0.000730318
0.000745539
0.000735246
0.000727687
0.000679348
0.000702695
0.000754922
0.000743507
0.000762195
0.000743708
0.000743071
0.000689268
0.000699943
0.000745879
0.000762809
0.000753528
0.000750851
0.000736188
0.000687624
0.000681017
0.00072193
0.000750719
0.000757278
0.000743759
0.000711861
0.000671599
0.000648375
0.000684446
0.000706317
0.000711112
0.000701267
0.000677379
0.000642045
0.000626988
0.000662219
0.000683804
0.000689617
0.000682062
0.000660398
0.000627215
0.000667534
0.000709288
0.000739841
0.000749497
0.000734313
0.000703268
0.000664282
0.000696409
0.000747402
0.000771865
0.000768452
0.000774894
0.000736774
0.000689455
0.000709728
0.000767099
0.000795213
0.000790105
0.000762027
0.000752854
0.000700713
0.000707326
0.000760778
0.000798918
0.000780524
0.000787556
0.00074833
0.000699311
0.000688384
0.000734348
0.000766456
0.000776024
0.000759351
0.000724998
0.000682481
0.000654216
0.000693594
0.000718079
0.000724702
0.000714495
0.000688791
0.000651095
0.000627927
0.000663164
0.000684957
0.000691838
0.000685292
0.000664786
0.000632196
0.000668291
0.000709526
0.000738387
0.000748005
0.00073588
0.000707856
0.000669911
0.000697308
0.000749413
0.000792159
0.000801115
0.000784398
0.000741447
0.00069613
0.000711607
0.000769151
0.000811851
0.000809652
0.000805852
0.000758407
0.000708712
0.000710109
0.000764052
0.000802467
0.000813425
0.000803419
0.000756698
0.000707681
0.000691541
0.000740914
0.000772826
0.000784801
0.000770515
0.000735436
0.000690665
0.000657182
0.000698457
0.000725182
0.000733857
0.000724146
0.000697272
0.000657933
0.000630917
0.000665768
0.000687423
0.000694998
0.000689868
0.000670586
0.000638866
0.000670389
0.000711789
0.00074001
0.000750073
0.00074118
0.000714155
0.000676514
0.000698592
0.000749858
0.000787318
0.000805963
0.000787085
0.000750098
0.000703228
0.000713598
0.000770374
0.000807577
0.00081218
0.000817736
0.000769814
0.000716623
0.000713314
0.000769761
0.000805046
0.000824537
0.00081192
0.000770604
0.000715995
0.00069333
0.000744569
0.000786747
0.000797787
0.000789894
0.00074696
0.00069806
0.000659717
0.000701818
0.000732533
0.000743639
0.000733531
0.000704587
0.000664225
0.000638221
0.000671325
0.000692081
0.000699841
0.000695497
0.000677948
0.000648683
0.000674965
0.000715321
0.000746285
0.000759759
0.000748152
0.000719312
0.000683693
0.000701583
0.000756032
0.000793455
0.00081047
0.000799097
0.000757518
0.00070865
0.000717578
0.000782135
0.000812037
0.000815212
0.000821718
0.000782866
0.000721311
0.000717485
0.000784071
0.000812469
0.000832
0.000825205
0.000782898
0.000720236
0.000695998
0.000748586
0.000796256
0.000815373
0.000795195
0.000750001
0.000702264
0.000663612
0.000703896
0.0007345
0.000747742
0.000734965
0.000707356
0.000670268
0.000573678
0.000537987
0.00049405
0.000439015
0.000368111
0.000274159
0.000149045
1.74105e-05
0.000602762
0.000565546
0.000521728
0.000467135
0.000396031
0.000299692
0.000166918
1.97804e-05
0.000620248
0.000582768
0.000539299
0.000485114
0.000413986
0.000316241
0.000178694
2.14556e-05
0.000627592
0.000590434
0.000547177
0.00049302
0.000421626
0.000323063
0.00018343
2.21562e-05
0.000627439
0.000589949
0.000545905
0.000490837
0.000418615
0.000319604
0.000180506
2.17416e-05
0.000615704
0.000578454
0.000533747
0.000477673
0.000404653
0.00030599
0.000170306
2.02969e-05
0.00059113
0.000555123
0.000509965
0.000453003
0.000379558
0.00028245
0.000153436
1.80555e-05
0.000581626
0.000543935
0.000498278
0.000441637
0.000369239
0.000274052
0.00014845
1.73934e-05
0.000613614
0.000573599
0.000527404
0.000470815
0.000397981
0.000300175
0.000166597
1.97827e-05
0.000634096
0.000593024
0.000546361
0.000489663
0.000416513
0.00031711
0.000178551
2.14733e-05
0.000643169
0.000601928
0.000555029
0.000498061
0.000424509
0.000324229
0.000183463
2.21918e-05
0.000642149
0.000600695
0.000553325
0.000495734
0.000421571
0.000320967
0.000180721
2.17947e-05
0.000628286
0.000587637
0.000540241
0.000482119
0.000407473
0.000307402
0.000170628
2.03586e-05
0.00060117
0.000562631
0.000515438
0.000456821
0.000381969
0.000283624
0.000153663
1.81108e-05
0.000587216
0.000548666
0.000502089
0.000444452
0.000370919
0.000274555
0.000148159
1.73882e-05
0.000620696
0.000579375
0.000532048
0.000474351
0.000400364
0.000301281
0.000166604
1.97948e-05
0.000642952
0.000599982
0.000551752
0.000493731
0.000419355
0.000318626
0.000178795
2.14993e-05
0.000653235
0.000609577
0.000560774
0.000502361
0.000427582
0.000326001
0.000183905
2.2229e-05
0.00065173
0.000607989
0.000558854
0.00049996
0.000424657
0.000322823
0.00018126
2.1841e-05
0.00063682
0.000594249
0.000545378
0.000486113
0.000410387
0.000309173
0.000171163
2.04045e-05
0.000608287
0.000568338
0.000519989
0.000460394
0.000384574
0.000285058
0.000154014
1.81457e-05
0.000592309
0.00055364
0.000506781
0.000448682
0.000374352
0.000276896
0.000149196
1.74505e-05
0.000626248
0.000584641
0.000537061
0.00047902
0.000404374
0.000304186
0.000167971
1.9875e-05
0.000649219
0.000605615
0.000556905
0.0004985
0.000423624
0.000321872
0.000180403
2.15981e-05
0.000660156
0.00061544
0.000566
0.000507211
0.000431957
0.0003294
0.00018563
2.23387e-05
0.000658643
0.000613782
0.000564018
0.000504777
0.000429067
0.000326173
0.000182957
2.19487e-05
0.000643346
0.000599773
0.000550355
0.000490758
0.000414592
0.000312196
0.000172674
2.04963e-05
0.000613981
0.000573362
0.000524581
0.000464612
0.000388148
0.000287687
0.000155302
1.82231e-05
0.000599582
0.00056151
0.000515057
0.000457051
0.000382307
0.000283461
0.00015299
1.76044e-05
0.000633173
0.000592167
0.000545088
0.000487499
0.000412751
0.000311402
0.000172335
2.00694e-05
0.000655922
0.000612593
0.000564519
0.000506816
0.000432009
0.000329306
0.000184942
2.18287e-05
0.000666829
0.000622103
0.000573135
0.000515031
0.000440088
0.000336728
0.000190082
2.25782e-05
0.000665258
0.000620246
0.000570941
0.000512359
0.000436732
0.000333
0.000187124
2.21665e-05
0.000649656
0.00060614
0.000557249
0.000498197
0.000421878
0.00031863
0.000176539
2.0672e-05
0.00062006
0.00057974
0.000531428
0.000471833
0.00039531
0.000293791
0.000158821
1.83523e-05
0.000612396
0.000577322
0.000533948
0.000478859
0.000405626
0.000304124
0.000162801
1.95204e-05
0.000643346
0.000605689
0.000562149
0.000507978
0.000435562
0.000332714
0.000183057
2.2248e-05
0.000664005
0.000624084
0.000579911
0.000526002
0.000453965
0.000350492
0.000196111
2.41708e-05
0.000673568
0.000632266
0.000587324
0.000533257
0.000461305
0.000357472
0.000201245
2.49495e-05
0.000671762
0.000630173
0.00058484
0.000530232
0.000457754
0.000353546
0.000197996
2.44392e-05
0.000657051
0.000617032
0.000571845
0.00051655
0.000443121
0.000338769
0.000186755
2.27436e-05
0.000629378
0.000592224
0.000547231
0.000490943
0.000416556
0.000313122
0.000168096
2.01572e-05
0.000598033
0.000560012
0.000513271
0.000455426
0.000381727
0.000284426
0.000154457
1.85212e-05
0.000625518
0.000585317
0.00053805
0.00048039
0.000406874
0.000308133
0.000171503
2.08829e-05
0.000639792
0.000598598
0.000551102
0.000493713
0.000420679
0.000321696
0.000181766
2.24239e-05
0.000640438
0.000599448
0.000552451
0.000495665
0.000423352
0.000324948
0.000184612
2.28773e-05
0.00063176
0.000590556
0.000543564
0.000487101
0.000415327
0.000317905
0.000179701
2.21427e-05
0.000610984
0.000570758
0.000524335
0.000468311
0.000397088
0.000301144
0.000167644
2.03726e-05
0.000578647
0.000540862
0.000495399
0.00043982
0.000369183
0.000275527
0.000149587
1.78907e-05
0.000605109
0.000564761
0.000516355
0.000457324
0.000382707
0.000284589
0.000154101
1.85089e-05
0.000634548
0.000590917
0.000541294
0.000482121
0.000407588
0.000308054
0.00017096
2.08522e-05
0.000650379
0.000605002
0.000554464
0.000495179
0.000420977
0.000321183
0.000180899
2.23651e-05
0.000651721
0.000606197
0.000555762
0.000496847
0.000423258
0.00032402
0.000183433
2.27921e-05
0.000641131
0.000596025
0.000546174
0.000487835
0.000414898
0.000316658
0.00017831
2.20413e-05
0.000617642
0.000574422
0.00052596
0.000468582
0.000396377
0.000299685
0.000166174
2.02709e-05
0.00058273
0.000543089
0.000496315
0.000439713
0.000368188
0.000273862
0.000148087
1.77946e-05
0.000608828
0.000567332
0.000518135
0.000458504
0.000383275
0.000284446
0.000153464
1.8459e-05
0.000638973
0.000593547
0.000542841
0.000483023
0.000407965
0.000307807
0.000170241
2.07873e-05
0.000655124
0.00060756
0.000555672
0.000495671
0.000420983
0.000320625
0.000179947
2.2279e-05
0.000656661
0.000608669
0.000556705
0.000497025
0.000422951
0.000323166
0.000182272
2.26878e-05
0.000644894
0.00059782
0.000546786
0.000487849
0.000414425
0.000315595
0.000176992
2.1927e-05
0.000620009
0.000575613
0.000526462
0.000468599
0.000395852
0.000298496
0.000164809
2.01594e-05
0.00058419
0.00054398
0.000496771
0.000439667
0.000367476
0.000272473
0.000146693
1.76907e-05
0.000610842
0.000569055
0.000519703
0.000459941
0.000384447
0.000285115
0.000153464
1.84403e-05
0.000640911
0.000594979
0.000544105
0.000484268
0.00040907
0.000308433
0.000170174
2.07553e-05
0.000656851
0.000608616
0.000556539
0.00049661
0.000421899
0.00032113
0.000179767
2.22348e-05
0.000658038
0.000609421
0.000557342
0.000497846
0.000423763
0.000323545
0.000181978
2.26309e-05
0.000645751
0.000598465
0.000547457
0.000488738
0.000415245
0.000315878
0.000176599
2.18657e-05
0.000620849
0.000576564
0.000527583
0.000469773
0.000396711
0.000298689
0.000164387
2.01045e-05
0.000585314
0.000545352
0.000498231
0.000440949
0.000368249
0.000272511
0.00014625
1.7647e-05
0.000613381
0.00057205
0.000523207
0.000463955
0.000388652
0.000288737
0.000155425
1.84538e-05
0.000642904
0.000597415
0.000547141
0.000487956
0.00041316
0.000312172
0.000172322
2.07757e-05
0.000658886
0.00061072
0.00055924
0.000500098
0.000425928
0.000324896
0.000181964
2.22639e-05
0.000659672
0.000611358
0.000560026
0.000501355
0.000427832
0.000327326
0.000184152
2.26658e-05
0.000647518
0.000600864
0.000550679
0.000492722
0.00041961
0.000319722
0.000178734
2.19002e-05
0.000623406
0.000579884
0.000531654
0.000474371
0.000401366
0.000302587
0.000166497
2.01397e-05
0.000588853
0.000549621
0.000503015
0.000445957
0.000372993
0.000276248
0.000148183
1.7678e-05
0.000619574
0.00058078
0.000534755
0.00047822
0.000405005
0.000304336
0.000163271
1.98526e-05
0.000647473
0.000604663
0.000557446
0.000501302
0.000429015
0.00032805
0.000180811
2.23421e-05
0.000662836
0.000617143
0.00056887
0.000512959
0.000441462
0.000340828
0.000190812
2.39492e-05
0.000663522
0.000617882
0.000569879
0.000514461
0.000443627
0.000343484
0.00019322
2.4411e-05
0.000652439
0.000608743
0.000561889
0.000507008
0.000436241
0.000336363
0.000187908
2.3634e-05
0.000630426
0.000589876
0.000544721
0.000490191
0.00041926
0.000319822
0.000175614
2.17938e-05
0.000598693
0.000562163
0.000518212
0.000463531
0.000391984
0.00029356
0.000156799
1.91903e-05
0.000576907
0.000539017
0.000493487
0.000437908
0.000367379
0.000274019
0.000148735
1.77509e-05
0.000604177
0.000563762
0.000517596
0.000462162
0.000391792
0.000297027
0.000165339
1.996e-05
0.000618607
0.000577321
0.000531209
0.000476238
0.000406304
0.000311021
0.000175794
2.142e-05
0.00062052
0.000580067
0.000534893
0.000480636
0.00041109
0.000315686
0.000179349
2.18803e-05
0.000615719
0.000575482
0.000530341
0.000476017
0.000406195
0.00031071
0.000175532
2.12408e-05
0.000599629
0.000560997
0.000516378
0.000461798
0.000391439
0.000296298
0.000164856
1.96397e-05
0.000572365
0.000536424
0.000492317
0.000437256
0.000366509
0.000272867
0.000148192
1.73476e-05
0.00058094
0.000541214
0.000494422
0.00043786
0.000366451
0.000272403
0.000147255
1.76647e-05
0.000610751
0.000567516
0.000519474
0.000462754
0.000391323
0.000295652
0.000163876
1.98684e-05
0.000627925
0.000583115
0.000534422
0.000477627
0.000406292
0.000309837
0.000174307
2.13221e-05
0.000632071
0.000587594
0.000539315
0.00048281
0.000411557
0.000314753
0.000177946
2.17873e-05
0.000626289
0.000582714
0.000534916
0.000478531
0.000407016
0.00031008
0.000174348
2.117e-05
0.000608663
0.000567364
0.000520636
0.00046428
0.000392339
0.000295907
0.00016397
1.95983e-05
0.000579798
0.000541884
0.000496082
0.000439508
0.000367365
0.00027255
0.000147474
1.73257e-05
0.000582442
0.000542188
0.000495013
0.000437987
0.000365919
0.000271166
0.000145944
1.75759e-05
0.000613245
0.000569131
0.000520603
0.000463434
0.000391349
0.000294821
0.000162687
1.97798e-05
0.000631795
0.000585704
0.000536165
0.000478827
0.000406745
0.000309297
0.0001732
2.12348e-05
0.000637497
0.000591456
0.000541954
0.000484622
0.000412441
0.000314511
0.000176985
2.1709e-05
0.000631763
0.000586888
0.000538088
0.00048087
0.00040831
0.000310144
0.0001736
2.11141e-05
0.000613985
0.000571674
0.000524077
0.000466861
0.000393913
0.000296276
0.000163501
1.95722e-05
0.000584904
0.000546188
0.000499578
0.000442114
0.000368872
0.000272927
0.000147113
1.73188e-05
0.000583756
0.000543776
0.000496739
0.000439588
0.000367016
0.000271507
0.000145715
1.75524e-05
0.000614648
0.000570897
0.000522663
0.000465553
0.00039306
0.000295666
0.000162671
1.97642e-05
0.000633582
0.000587799
0.000538615
0.000481406
0.000408955
0.000310583
0.000173401
2.12308e-05
0.000640228
0.00059426
0.000544961
0.000487747
0.000415103
0.000316153
0.000177391
2.172e-05
0.000635271
0.000590483
0.000541787
0.000484443
0.000411321
0.000312109
0.000174247
2.11458e-05
0.000618292
0.000576
0.000528345
0.000470862
0.000397212
0.000298466
0.000164361
1.96183e-05
0.0005897
0.000550938
0.000504089
0.000446147
0.000372134
0.000275128
0.000148054
1.73763e-05
0.000587638
0.000548428
0.00050198
0.000445078
0.000372247
0.000275714
0.000147973
1.7601e-05
0.000618159
0.000575401
0.000528045
0.000471527
0.000398975
0.000300611
0.000165429
1.98447e-05
0.000637009
0.000592309
0.000544187
0.000487734
0.000415401
0.00031608
0.000176527
2.13499e-05
0.0006442
0.000599205
0.000550965
0.000494489
0.000421979
0.000322066
0.000180772
2.18673e-05
0.000640301
0.000596373
0.000548537
0.000491784
0.00041868
0.000318383
0.000177857
2.13069e-05
0.000624448
0.000582887
0.00053588
0.000478746
0.00040487
0.000304874
0.000168036
1.97769e-05
0.000596763
0.000558591
0.000512166
0.000454343
0.000379891
0.000281437
0.000151624
1.75221e-05
0.000597978
0.000561515
0.000517757
0.000463318
0.000392003
0.000293662
0.000156891
1.91665e-05
0.000626786
0.000587239
0.000543081
0.000489403
0.000418891
0.000319502
0.000175333
2.16637e-05
0.000644614
0.000603348
0.000558746
0.000505484
0.000435563
0.000335643
0.000187155
2.33672e-05
0.000651741
0.000610288
0.000565718
0.000512469
0.000442597
0.000342221
0.000191828
2.40045e-05
0.000648904
0.000608475
0.000564231
0.000510727
0.000440137
0.000339087
0.000188982
2.34647e-05
0.000634913
0.000596659
0.000552997
0.000499013
0.000427345
0.00032584
0.000178782
2.18485e-05
0.000609671
0.000574427
0.000531019
0.000476064
0.000403088
0.000302006
0.000161491
1.94089e-05
0.000592845
0.000556891
0.000511778
0.000454808
0.000381264
0.000283863
0.000154202
1.81921e-05
0.000622528
0.000585271
0.000540206
0.00048355
0.000409777
0.000310006
0.000172455
2.07097e-05
0.000640666
0.000602907
0.000557798
0.000501265
0.00042743
0.000326442
0.000184289
2.24741e-05
0.000647321
0.000609446
0.000564222
0.000507582
0.000433676
0.000332328
0.000188628
2.3175e-05
0.000644876
0.000605921
0.000559726
0.000502464
0.000428286
0.000327216
0.000184862
2.26588e-05
0.000628937
0.000589854
0.000543205
0.000485525
0.000411336
0.000311437
0.000173426
2.10304e-05
0.00059934
0.000561497
0.000514873
0.000457021
0.000383169
0.000285586
0.000155185
1.85795e-05
0.000603019
0.000564493
0.000517279
0.000458592
0.000383594
0.000284921
0.000154343
1.82296e-05
0.000635635
0.000594717
0.000546759
0.000487952
0.00041255
0.000311412
0.000172766
2.0758e-05
0.000656437
0.000614041
0.000565188
0.000505989
0.000430293
0.000327868
0.000184582
2.25188e-05
0.000664248
0.000621131
0.000571721
0.000512222
0.000436398
0.000333654
0.000188871
2.32132e-05
0.00065959
0.000615959
0.000566172
0.000506463
0.000430647
0.000328361
0.000185037
2.26875e-05
0.000640169
0.000597455
0.000548211
0.000488755
0.000413292
0.000312348
0.000173501
2.10484e-05
0.000607027
0.000566826
0.00051852
0.000459468
0.00038464
0.000286156
0.00015508
1.8585e-05
0.000610154
0.000570127
0.000521672
0.000461924
0.000385895
0.000286108
0.000154511
1.82436e-05
0.000644439
0.000601237
0.000551565
0.00049152
0.00041509
0.000312856
0.000173047
2.07769e-05
0.000666667
0.000621259
0.000570158
0.000509467
0.000432696
0.000329219
0.000184813
2.25293e-05
0.000674884
0.000628361
0.00057649
0.000515399
0.000438531
0.000334819
0.000189009
2.32136e-05
0.000668414
0.000621912
0.000570084
0.000509123
0.000432463
0.000329311
0.000185067
2.26763e-05
0.000646675
0.000601889
0.000551243
0.000490876
0.000414724
0.000313034
0.000173394
2.10251e-05
0.000611321
0.000569931
0.000520813
0.000461084
0.000385585
0.000286384
0.000154735
1.85498e-05
0.000615696
0.000574952
0.000525957
0.000465738
0.000389119
0.00028841
0.000155485
1.82973e-05
0.000650767
0.000606227
0.00055574
0.000495189
0.000418274
0.000315202
0.000173948
2.08235e-05
0.000673563
0.000626221
0.000574
0.00051275
0.000435586
0.000331421
0.000185734
2.25672e-05
0.000681471
0.000632889
0.000579851
0.000518234
0.000441067
0.000336784
0.000189817
2.32392e-05
0.000673561
0.000625511
0.000572857
0.000511563
0.000434695
0.000331033
0.000185725
2.26862e-05
0.000650273
0.000604621
0.000553551
0.000493018
0.000416691
0.000314442
0.000173822
2.10169e-05
0.000613771
0.000572068
0.000522752
0.000462837
0.000387099
0.000287368
0.000154936
1.85336e-05
0.000621431
0.000580929
0.000532272
0.000472359
0.000395653
0.000293863
0.000158515
1.83931e-05
0.000656206
0.000611425
0.000561181
0.000501067
0.000424412
0.000320791
0.000177482
2.09167e-05
0.000678877
0.000630621
0.000578492
0.000517776
0.000441094
0.000336607
0.00018888
2.26635e-05
0.00068623
0.000636524
0.0005835
0.00052252
0.000446026
0.000341642
0.000192836
2.33288e-05
0.00067735
0.000628684
0.000576356
0.00051561
0.000439363
0.000335583
0.000188505
2.27564e-05
0.000653108
0.000607648
0.00055707
0.000497147
0.000421205
0.000318575
0.000176243
2.10577e-05
0.000616495
0.000575249
0.000526387
0.00046698
0.000391432
0.000291096
0.000156956
1.85547e-05
0.000630227
0.000592869
0.000547558
0.000490802
0.000416196
0.000312707
0.000167555
2.00937e-05
0.000661768
0.000620341
0.000573663
0.000517094
0.000443261
0.000339272
0.000186895
2.27473e-05
0.000681998
0.000637113
0.000588636
0.000531656
0.000458101
0.000354042
0.000198435
2.4549e-05
0.000688527
0.000641715
0.000592215
0.000535
0.000461827
0.000358225
0.000202051
2.51896e-05
0.000679746
0.000634012
0.000584979
0.000527802
0.000454717
0.000351624
0.000197289
2.45179e-05
0.000657006
0.000614285
0.00056674
0.000509975
0.000436795
0.000334384
0.000184583
2.26655e-05
0.000622507
0.000583804
0.000537689
0.000481057
0.000407652
0.000306577
0.000164642
1.99763e-05
9.4608e-06
6.43162e-05
9.33033e-05
0.000117539
0.000141171
0.000163451
0.000181946
0.000194339
9.5092e-06
6.41693e-05
9.29637e-05
0.00011738
0.000141461
0.000164236
0.000183258
0.000196138
9.52629e-06
6.36222e-05
9.19895e-05
0.000116437
0.000140964
0.000164283
0.000183891
0.000197321
9.5153e-06
6.29031e-05
9.07792e-05
0.000115219
0.000140171
0.00016405
0.000184227
0.000198155
9.47218e-06
6.215e-05
8.95522e-05
0.000113909
0.000139155
0.000163457
0.000184034
0.000198276
9.41903e-06
6.1707e-05
8.88542e-05
0.000113109
0.000138471
0.000162963
0.000183695
0.000198022
9.38231e-06
6.1834e-05
8.91034e-05
0.0001133
0.00013857
0.00016295
0.000183545
0.000197725
1.12966e-05
8.0229e-05
0.000118729
0.000149091
0.000176533
0.000200706
0.000221219
0.000235326
1.13303e-05
7.98735e-05
0.000118129
0.000148768
0.000176671
0.000201627
0.000222906
0.000237597
1.13229e-05
7.90208e-05
0.000116853
0.00014774
0.000176143
0.000201898
0.00022393
0.000239211
1.12902e-05
7.80685e-05
0.000115545
0.000146756
0.000175738
0.000202227
0.000224878
0.000240616
1.12326e-05
7.72139e-05
0.000114436
0.000145946
0.000175427
0.000202429
0.000225429
0.000241373
1.11807e-05
7.68696e-05
0.000114057
0.000145754
0.000175499
0.000202687
0.00022574
0.000241655
1.11603e-05
7.7228e-05
0.000114627
0.000146301
0.000175924
0.000202884
0.000225684
0.000241386
1.33726e-05
9.57722e-05
0.000142284
0.000178257
0.00020989
0.000238148
0.000262106
0.000278468
1.34271e-05
9.5418e-05
0.000141702
0.000178219
0.00021064
0.000240015
0.000264724
0.000281418
1.34313e-05
9.45496e-05
0.000140523
0.000177561
0.000210712
0.000241024
0.000266406
0.000283426
1.34132e-05
9.38336e-05
0.000139789
0.000177433
0.000211234
0.000242192
0.000267995
0.000285247
1.33794e-05
9.34298e-05
0.000139555
0.000177718
0.000211981
0.000243257
0.000269191
0.000286477
1.33587e-05
9.35969e-05
0.000140009
0.000178438
0.000212841
0.000244091
0.000269946
0.000287143
1.33578e-05
9.42061e-05
0.000140859
0.000179112
0.000213169
0.000244039
0.000269602
0.00028671
1.61696e-05
0.000110254
0.000165428
0.000212091
0.000252379
0.000286255
0.000311711
0.000327865
1.63877e-05
0.000110661
0.00016651
0.00021462
0.000256131
0.000290247
0.000315651
0.00033169
1.65325e-05
0.000110438
0.000166782
0.000216103
0.000258346
0.000292561
0.000317949
0.000334026
1.65986e-05
0.000110692
0.000167715
0.0002179
0.000260447
0.00029466
0.000319997
0.000336089
1.66343e-05
0.000111287
0.000168838
0.000219411
0.000262149
0.000296359
0.000321614
0.000337593
1.66492e-05
0.000112124
0.00016988
0.000220263
0.000263033
0.000297267
0.000322517
0.000338415
1.66077e-05
0.000112559
0.000169893
0.000219276
0.000261705
0.000295969
0.000321385
0.000337449
2.09364e-05
0.000138828
0.000215686
0.00027673
0.000323156
0.000356478
0.000378171
0.000389454
2.14688e-05
0.000143439
0.000221181
0.000283209
0.000329565
0.000362425
0.0003835
0.000394119
2.19777e-05
0.000146642
0.000224911
0.000287382
0.00033349
0.000365962
0.000386538
0.000396701
2.22041e-05
0.000148507
0.000228004
0.000290801
0.000336808
0.000368909
0.000389093
0.000398945
2.23131e-05
0.000150399
0.000230666
0.00029363
0.000339491
0.000371325
0.000391237
0.000400802
2.23284e-05
0.000151606
0.000232196
0.000295004
0.000340622
0.000372296
0.000392243
0.000401871
2.21938e-05
0.000150119
0.000230067
0.000292051
0.000337334
0.000369175
0.000389675
0.000400023
3.7632e-05
0.00020479
0.000311981
0.000379494
0.000423748
0.000450578
0.000462729
0.000462873
3.85935e-05
0.000210485
0.000318856
0.000386863
0.000430767
0.000456876
0.00046831
0.000467702
3.96129e-05
0.000216191
0.000325054
0.000392712
0.000435801
0.000461043
0.000471665
0.000470223
4.00374e-05
0.000219559
0.000329624
0.000397537
0.000440127
0.000464623
0.000474565
0.000472514
4.04889e-05
0.000224151
0.000335195
0.000402806
0.000444515
0.00046808
0.000477388
0.000474892
4.09969e-05
0.000229484
0.000340569
0.000406808
0.000447044
0.00046955
0.000478666
0.000476558
4.12388e-05
0.00023248
0.000341629
0.000404938
0.000443117
0.000464966
0.000474542
0.000473646
8.69786e-06
5.56466e-05
7.83495e-05
9.81728e-05
0.000120136
0.000143159
0.00016304
0.000176816
8.59471e-06
5.43123e-05
7.62843e-05
9.58343e-05
0.000117949
0.000141448
0.000162017
0.000176519
8.54847e-06
5.39657e-05
7.59264e-05
9.55453e-05
0.000117797
0.000141266
0.000162
0.000176756
8.60353e-06
5.53636e-05
7.85535e-05
9.88472e-05
0.000121174
0.000144057
0.000164118
0.000178262
8.70352e-06
5.72021e-05
8.16929e-05
0.000102548
0.000124776
0.000146941
0.000166109
0.000179396
8.78603e-06
5.83184e-05
8.3355e-05
0.000104263
0.000126206
0.000147813
0.000166344
0.000179033
8.84708e-06
5.87407e-05
8.37463e-05
0.000104376
0.000125921
0.000147116
0.000165235
0.000177576
1.03694e-05
7.02384e-05
0.000103782
0.000132906
0.000161498
0.000187211
0.000208573
0.000223072
1.01831e-05
6.8037e-05
0.000100708
0.000129851
0.00015909
0.000185601
0.000207755
0.000222978
1.00846e-05
6.71891e-05
9.96063e-05
0.000128666
0.000157975
0.000184736
0.000207134
0.000222655
1.01766e-05
6.89874e-05
0.000102402
0.000131453
0.000160192
0.000186159
0.00020779
0.000222779
1.03553e-05
7.15814e-05
0.00010623
0.000135221
0.0001632
0.000188079
0.000208644
0.000222816
1.05067e-05
7.32482e-05
0.00010849
0.000137264
0.000164634
0.000188733
0.000208564
0.000222171
1.06111e-05
7.39165e-05
0.000109155
0.000137573
0.000164448
0.000188023
0.000207453
0.000220783
1.25083e-05
8.83068e-05
0.000132785
0.000169449
0.000202838
0.00023082
0.000254073
0.00026979
1.22358e-05
8.56389e-05
0.000129466
0.000166528
0.000200807
0.000229689
0.000253582
0.000269884
1.20538e-05
8.41935e-05
0.000127617
0.000164603
0.000199038
0.000228252
0.000252368
0.000268985
1.21254e-05
8.55332e-05
0.000129323
0.000165689
0.000199259
0.000227735
0.000251333
0.000267715
1.23326e-05
8.79628e-05
0.000132422
0.00016806
0.000200494
0.000227896
0.000250711
0.000266598
1.25209e-05
8.95959e-05
0.00013438
0.000169463
0.000201126
0.000227817
0.000250112
0.000265633
1.26505e-05
9.01839e-05
0.000134809
0.000169405
0.00020056
0.000226854
0.000248945
0.000264331
1.52946e-05
0.000107098
0.000161066
0.000205109
0.000243937
0.000276484
0.000301497
0.000317654
1.4934e-05
0.000104625
0.000158293
0.000202774
0.000242321
0.000274976
0.000300473
0.00031729
1.46448e-05
0.000102754
0.000155896
0.000200246
0.000239923
0.000272536
0.000298353
0.000315653
1.46287e-05
0.000102883
0.000155577
0.000199079
0.000238019
0.000270304
0.000296086
0.000313479
1.47849e-05
0.000104177
0.000156731
0.000199345
0.000237428
0.000269243
0.00029476
0.000311933
1.49531e-05
0.000105108
0.000157579
0.000199723
0.000237473
0.000269056
0.000294294
0.00031119
1.5085e-05
0.000105183
0.000157329
0.000199208
0.000236865
0.000268428
0.000293565
0.000310311
1.94457e-05
0.000129466
0.000203196
0.000259417
0.000304718
0.00033801
0.000360559
0.00037327
1.88616e-05
0.000126351
0.000197921
0.000253708
0.000299396
0.00033367
0.000357513
0.000371584
1.83816e-05
0.000123493
0.000193177
0.000248495
0.00029428
0.000329173
0.000353887
0.000368941
1.82584e-05
0.000122184
0.000190747
0.000245469
0.000291081
0.000326057
0.000351018
0.000366357
1.83349e-05
0.000122337
0.000190543
0.000245138
0.000290642
0.000325379
0.000350081
0.000365174
1.84917e-05
0.000122991
0.000191309
0.000246
0.000291544
0.000326207
0.000350593
0.00036523
1.86776e-05
0.000123222
0.000191916
0.000246852
0.000292534
0.000326969
0.000350956
0.000365188
3.33164e-05
0.000191486
0.000296343
0.00036236
0.000404438
0.000429832
0.000441718
0.000442683
3.18826e-05
0.000182798
0.000284991
0.000351642
0.000395001
0.000422218
0.000436259
0.000439451
3.08263e-05
0.000175834
0.00027546
0.000342418
0.000386697
0.00041526
0.000430881
0.000435715
3.04901e-05
0.000172461
0.000270984
0.000337878
0.000382376
0.000411415
0.000427564
0.000432912
3.04867e-05
0.000171693
0.000270039
0.000337296
0.000382134
0.000411218
0.000427221
0.000432319
3.08971e-05
0.000173251
0.000272498
0.000339813
0.000384409
0.00041314
0.000428709
0.000433241
3.1574e-05
0.00017527
0.000275835
0.000343049
0.000387238
0.000415445
0.000430335
0.000434152
8.86051e-06
5.88405e-05
8.38046e-05
0.000104267
0.000125539
0.000146475
0.000164314
0.000176414
8.84793e-06
5.89845e-05
8.42212e-05
0.00010486
0.00012612
0.000146957
0.000164592
0.000176467
8.88509e-06
5.95954e-05
8.54901e-05
0.000106637
0.000128093
0.000148967
0.000166443
0.000178086
8.98468e-06
6.06394e-05
8.74047e-05
0.00010927
0.000131082
0.000152153
0.000169586
0.000181065
9.12382e-06
6.19318e-05
8.96104e-05
0.000112261
0.000134517
0.000155825
0.00017333
0.000184811
9.265e-06
6.31404e-05
9.15778e-05
0.000114939
0.000137674
0.000159209
0.000176916
0.000188586
9.37712e-06
6.39583e-05
9.28376e-05
0.000116733
0.000139931
0.000161797
0.000179847
0.000191828
1.06362e-05
7.41329e-05
0.000109309
0.000137469
0.000163985
0.000187175
0.000206308
0.000219424
1.06103e-05
7.43855e-05
0.000109794
0.00013795
0.000164266
0.000187134
0.000205936
0.000218779
1.06301e-05
7.50952e-05
0.000111109
0.000139518
0.00016578
0.000188381
0.000206873
0.000219445
1.07293e-05
7.6274e-05
0.000113107
0.000141968
0.000168359
0.000190844
0.00020921
0.000221641
1.08905e-05
7.77298e-05
0.000115358
0.000144681
0.000171244
0.000193819
0.000212392
0.000224984
1.10662e-05
7.90742e-05
0.000117281
0.000146979
0.000173696
0.000196608
0.000215708
0.000228741
1.12065e-05
7.99548e-05
0.00011846
0.00014852
0.000175567
0.000199037
0.000218804
0.000232343
1.2676e-05
9.03209e-05
0.000134735
0.00016894
0.000199684
0.000225646
0.000247545
0.000262801
1.26251e-05
9.05311e-05
0.000135012
0.00016896
0.000199287
0.00022481
0.000246379
0.000261425
1.26057e-05
9.11598e-05
0.000136075
0.000169972
0.000199954
0.000225006
0.000246237
0.000261092
1.26796e-05
9.22181e-05
0.000137772
0.000171866
0.000201745