/*--------------------------------*- C++ -*----------------------------------*\
| =========                 |                                                 |
| \\      /  F ield         | OpenFOAM: The Open Source CFD Toolbox           |
|  \\    /   O peration     | Version:  plus.master.MPPICInterFoam            |
|   \\  /    A nd           | Web:      www.OpenFOAM.com                      |
|    \\/     M anipulation  |                                                 |
\*---------------------------------------------------------------------------*/
FoamFile
{
    version     2.0;
    format      ascii;
    class       volScalarField;
    location    "4.4";
    object      p;
}
// * * * * * * * * * * * * * * * * * * * * * * * * * * * * * * * * * * * * * //

dimensions      [1 -1 -2 0 0 0 0];

internalField   nonuniform List<scalar> 
11822
(
750.138
750.689
751.789
752.076
751.981
750.89
750.419
750.555
753.9
759.948
762.357
759.557
753.466
750.874
751.717
759.861
765.806
766.653
766.499
758.386
751.723
751.583
759.734
764.912
765.069
766.11
759.982
751.555
751.178
757.602
764.632
764.85
764.868
756.849
751.13
750.065
752.011
756.651
758.718
756.562
751.95
750.196
749.865
749.986
750.737
750.909
750.837
750.053
749.866
664.348
665.672
667.442
668.079
666.485
664.784
663.637
665.632
669.318
676.514
680.114
673.283
667.023
664.56
667.9
677.74
689.519
691.447
686.692
672.079
665.838
669.021
680.362
690.601
690.469
689.614
676.341
666.566
667.458
675.576
686.973
689.356
684.847
671.236
665.487
665.346
668.325
674.112
678.031
671.887
666.298
664.114
664.103
665.108
666.513
667.216
665.711
664.1
663.111
572.797
573.936
575.207
575.978
574.634
573.212
571.934
573.972
575.962
579.917
583.521
578.263
574.852
572.991
575.608
581.442
594.442
600.064
588.832
577.696
574.15
577.056
586.144
600.092
605.623
599.794
581.554
575.022
575.701
581.148
592.645
600.82
589.282
577.695
573.997
574.06
576.194
579.893
584.26
578.31
574.681
572.753
572.847
573.872
575.005
575.901
574.313
572.818
571.58
477.183
477.918
478.507
478.814
478.025
477.074
476.028
478.099
479.008
480.062
481.397
479.374
478.081
476.821
479.031
481.363
487.771
492.273
483.182
479.102
477.532
479.944
484.695
494.114
504.746
490.738
480.048
477.922
479.236
481.749
489.144
496.253
484.181
479.104
477.479
478.262
479.645
480.86
483.293
479.891
478.174
476.831
477.395
478.156
478.846
479.253
478.159
477.041
475.95
379.221
379.932
380.364
380.322
379.595
378.644
377.54
380.216
380.989
381.435
381.517
380.329
379.403
378.268
381.061
382.568
385.828
386.73
381.7
379.917
378.833
381.756
384.441
391.551
399.885
384.234
380.114
379.043
381.039
382.179
387.364
390.708
381.53
379.529
378.795
380.223
382.384
381.142
381.619
379.849
379.32
378.301
379.3
380.008
380.463
380.366
379.555
378.651
377.556
281.078
281.045
280.871
280.478
279.986
279.533
279.07
281.288
280.753
279.782
278.795
278.696
278.914
278.985
281.334
280.604
281.181
279.943
277.379
277.813
278.816
281.275
280.458
284.604
290.434
276.767
276.446
278.612
280.702
278.743
280.625
281.929
275.199
276.338
278.509
280.455
280.148
277.816
275.778
277.682
277.59
278.486
280.347
279.914
279.43
278.893
278.647
278.711
278.613
749.728
749.593
749.465
749.342
749.299
749.311
749.389
749.473
749.794
749.398
749.2
749.128
749.151
749.214
749.329
749.434
749.949
749.398
749.147
749.061
749.082
749.164
749.293
749.414
749.787
749.294
749.083
749.023
749.049
749.138
749.271
749.395
749.637
749.229
749.056
749.011
749.046
749.14
749.279
749.405
749.385
749.163
749.062
749.039
749.077
749.166
749.296
749.416
749.306
749.285
749.249
749.204
749.201
749.259
749.367
749.47
662.27
661.357
660.492
659.753
659.242
658.911
658.765
658.732
662.64
661.281
660.259
659.541
659.079
658.783
658.655
658.628
663.173
661.582
660.42
659.622
659.096
658.779
658.637
658.603
663.36
661.709
660.503
659.673
659.114
658.776
658.622
658.594
662.935
661.457
660.357
659.581
659.055
658.741
658.601
658.579
662.3
661.075
660.14
659.47
659.009
658.734
658.617
658.598
661.768
660.949
660.183
659.54
659.077
658.804
658.687
658.675
570.598
569.513
568.48
567.619
566.981
566.547
566.299
566.136
571.056
569.53
568.351
567.46
566.832
566.4
566.149
565.985
571.682
569.922
568.582
567.576
566.862
566.384
566.106
565.947
572.034
570.122
568.691
567.636
566.877
566.37
566.07
565.935
571.525
569.812
568.486
567.5
566.787
566.313
566.032
565.908
570.836
569.384
568.212
567.329
566.694
566.284
566.04
565.933
570.179
569.133
568.149
567.331
566.741
566.337
566.119
566.03
475.185
474.346
473.543
472.883
472.366
471.969
471.676
471.482
475.499
474.377
473.47
472.758
472.217
471.797
471.492
471.288
475.92
474.665
473.634
472.823
472.207
471.743
471.409
471.185
476.141
474.799
473.712
472.854
472.195
471.708
471.36
471.135
475.88
474.635
473.592
472.757
472.125
471.665
471.337
471.119
475.48
474.361
473.407
472.643
472.163
471.674
471.383
471.174
474.955
474.082
473.295
472.644
472.242
471.757
471.494
471.304
376.916
376.274
375.697
375.307
374.888
374.663
374.594
374.537
377.304
376.501
375.797
375.243
374.809
374.506
374.407
374.33
377.697
376.764
375.954
375.373
374.787
374.424
374.31
374.218
377.862
376.899
376.03
375.316
374.752
374.373
374.265
374.168
377.717
376.791
375.957
375.263
374.921
374.348
374.242
374.149
377.342
376.488
375.767
375.191
374.925
374.334
374.254
374.169
376.748
376.006
375.426
374.973
374.673
374.374
374.327
374.262
279.498
279.582
279.625
279.768
279.747
279.79
279.876
280.05
279.213
279.303
279.314
279.381
279.289
279.265
279.317
279.497
279.132
279.166
279.158
279.202
279.059
278.946
278.962
279.137
279.028
279.092
279.056
278.995
279.002
278.74
278.734
278.876
279.009
279.09
279.091
279.069
279.092
278.761
278.726
278.821
278.944
279.083
279.123
279.186
279.206
278.911
278.872
278.93
279.023
279.05
279.097
279.171
279.257
279.206
279.198
279.228
749.46
749.436
749.372
749.321
749.338
749.425
749.559
749.682
749.339
749.17
749.114
749.142
749.232
749.365
749.531
749.678
749.574
749.195
749.077
749.092
749.183
749.331
749.518
749.689
749.685
749.216
749.089
749.098
749.186
749.327
749.515
749.691
749.797
749.304
749.157
749.147
749.218
749.348
749.53
749.698
749.57
749.315
749.204
749.197
749.261
749.381
749.544
749.693
749.58
749.536
749.46
749.409
749.405
749.477
749.603
749.727
662.75
661.827
660.964
660.248
659.758
659.464
659.349
659.345
663.277
661.925
660.906
660.184
659.715
659.445
659.346
659.354
664.151
662.436
661.222
660.382
659.836
659.522
659.409
659.412
664.753
662.762
661.438
660.517
659.927
659.582
659.448
659.45
664.37
662.58
661.349
660.47
659.894
659.567
659.436
659.437
663.496
662.081
661.016
660.284
659.791
659.512
659.408
659.41
662.887
661.939
661.046
660.332
659.822
659.526
659.416
659.416
571.506
570.405
569.367
568.497
567.861
567.441
567.21
567.123
572.128
570.626
569.432
568.536
567.896
567.475
567.247
567.16
572.933
571.162
569.8
568.791
568.069
567.591
567.332
567.229
573.498
571.503
570.03
568.942
568.174
567.664
567.379
567.273
572.953
571.197
569.843
568.832
568.108
567.629
567.356
567.253
572.149
570.663
569.475
568.595
567.957
567.536
567.303
567.212
571.522
570.443
569.409
568.555
567.921
567.505
567.279
567.192
476.475
475.608
474.792
474.096
473.552
473.152
472.868
472.69
477.02
475.927
474.998
474.254
473.674
473.242
472.945
472.757
477.575
476.354
475.327
474.499
473.85
473.366
473.039
472.832
477.94
476.595
475.498
474.629
473.94
473.436
473.095
472.879
477.54
476.328
475.304
474.506
473.879
473.411
473.084
472.872
476.962
475.909
475.01
474.295
473.738
473.32
473.029
472.83
476.427
475.616
474.831
474.166
473.643
473.252
472.977
472.79
378.638
377.929
377.322
376.839
376.451
376.191
376.085
376.017
379.392
378.595
377.891
377.294
376.804
376.456
376.3
376.206
379.998
379.117
378.328
377.656
377.092
376.677
376.482
376.351
380.378
379.382
378.527
377.821
377.235
376.804
376.592
376.466
380.039
379.142
378.36
377.711
377.177
376.781
376.592
376.472
379.423
378.657
378.001
377.436
376.973
376.644
376.502
376.388
378.708
378.068
377.513
377.056
376.697
376.454
376.363
376.297
280.945
280.959
280.938
280.954
280.942
280.873
280.808
280.854
281.2
281.372
281.355
281.259
281.11
280.916
280.757
280.777
281.534
281.715
281.667
281.51
281.292
281.021
280.791
280.792
281.869
281.968
281.863
281.673
281.438
281.145
280.907
280.907
281.908
281.999
281.927
281.781
281.56
281.294
281.088
281.115
281.768
281.837
281.808
281.718
281.595
281.419
281.292
281.362
281.611
281.62
281.63
281.651
281.631
281.569
281.543
281.651
749.539
749.444
749.353
749.317
749.335
749.415
749.542
749.665
749.643
749.307
749.168
749.145
749.198
749.31
749.469
749.614
749.963
749.42
749.199
749.126
749.162
749.273
749.433
749.584
750.077
749.476
749.222
749.126
749.141
749.233
749.383
749.526
750.087
749.493
749.229
749.139
749.155
749.236
749.373
749.501
749.814
749.42
749.218
749.149
749.161
749.231
749.347
749.459
749.726
749.567
749.42
749.313
749.274
749.302
749.386
749.474
662.779
661.787
660.903
660.206
659.717
659.432
659.32
659.316
663.404
661.912
660.822
660.08
659.597
659.322
659.214
659.209
664.12
662.355
661.084
660.196
659.616
659.28
659.142
659.126
664.32
662.48
661.16
660.224
659.613
659.238
659.072
659.048
663.689
662.063
660.854
660.009
659.449
659.108
658.959
658.934
662.899
661.541
660.514
659.779
659.277
658.978
658.841
658.815
662.279
661.346
660.481
659.766
659.266
658.957
658.815
658.777
571.374
570.276
569.27
568.433
567.809
567.393
567.159
567.065
571.967
570.416
569.211
568.32
567.688
567.261
567.019
566.919
572.62
570.816
569.416
568.399
567.67
567.182
566.907
566.796
572.912
570.973
569.49
568.4
567.623
567.109
566.811
566.687
572.2
570.458
569.115
568.127
567.407
566.928
566.648
566.52
571.343
569.851
568.681
567.802
567.17
566.74
566.489
566.331
570.574
569.509
568.504
567.676
567.044
566.623
566.378
566.212
476.276
475.472
474.716
474.065
473.536
473.137
472.855
472.679
476.666
475.589
474.684
473.97
473.417
472.995
472.701
472.517
477.02
475.804
474.786
473.976
473.349
472.883
472.56
472.353
477.099
475.79
474.722
473.899
473.241
472.751
472.409
472.181
476.556
475.362
474.378
473.594
472.978
472.522
472.193
471.975
475.889
474.834
473.95
473.255
472.72
472.293
471.986
471.78
475.19
474.382
473.616
473.004
472.464
472.083
471.802
471.61
378.538
377.913
377.38
376.936
376.584
376.353
376.268
376.206
379.012
378.244
377.579
377.037
376.596
376.292
376.169
376.078
379.293
378.422
377.675
377.057
376.548
376.176
376.012
375.898
379.203
378.294
377.514
376.873
376.341
375.953
375.781
375.661
378.654
377.823
377.099
376.491
375.993
375.642
375.498
375.4
377.882
377.144
376.514
375.995
375.589
375.287
375.182
375.107
376.948
376.323
375.812
375.418
375.076
374.874
374.815
374.757
281.448
281.483
281.508
281.544
281.563
281.53
281.531
281.662
281.391
281.475
281.469
281.413
281.318
281.203
281.15
281.285
281.291
281.347
281.296
281.218
281.094
280.924
280.833
280.978
280.954
281.023
280.981
280.871
280.756
280.607
280.546
280.713
280.509
280.62
280.633
280.577
280.492
280.383
280.363
280.558
280.016
280.154
280.219
280.244
280.256
280.2
280.232
280.442
279.548
279.61
279.731
279.87
279.984
280.035
280.124
280.307
749.374
749.36
749.312
749.259
749.249
749.303
749.411
749.519
749.277
749.103
749.037
749.044
749.104
749.208
749.357
749.496
749.424
749.086
748.985
748.998
749.077
749.212
749.385
749.545
749.321
748.994
748.924
748.955
749.045
749.189
749.376
749.543
749.287
749
748.933
748.981
749.084
749.228
749.411
749.57
749.246
749.076
749.02
749.05
749.142
749.278
749.448
749.598
749.443
749.43
749.367
749.319
749.33
749.407
749.536
749.657
661.863
661.073
660.303
659.645
659.173
658.884
658.771
658.768
662.3
661.136
660.231
659.579
659.136
658.875
658.783
658.791
663.108
661.62
660.541
659.794
659.294
659.009
658.909
658.918
663.659
661.981
660.801
659.989
659.453
659.14
659.019
659.022
663.476
661.901
660.766
659.999
659.489
659.198
659.09
659.094
663.04
661.677
660.671
659.981
659.52
659.256
659.16
659.163
662.702
661.798
660.923
660.202
659.692
659.395
659.284
659.282
570.319
569.308
568.33
567.499
566.884
566.475
566.254
566.174
570.979
569.593
568.463
567.601
566.981
566.573
566.354
566.277
571.904
570.236
568.934
567.96
567.257
566.794
566.541
566.445
572.661
570.753
569.335
568.276
567.519
567.018
566.736
566.627
572.381
570.634
569.292
568.306
567.592
567.118
566.854
566.749
571.89
570.347
569.145
568.26
567.626
567.205
566.968
566.87
571.498
570.379
569.314
568.418
567.757
567.33
567.103
567.018
475.165
474.327
473.517
472.832
472.307
471.922
471.65
471.475
475.824
474.757
473.829
473.08
472.5
472.065
471.762
471.604
476.599
475.37
474.333
473.491
472.832
472.34
472.002
471.79
477.265
475.868
474.747
473.833
473.117
472.591
472.232
472.002
477.142
475.845
474.773
473.917
473.247
472.749
472.408
472.176
476.778
475.617
474.664
473.906
473.32
472.882
472.574
472.348
476.479
475.566
474.715
473.983
473.425
473.02
472.739
472.533
377.018
376.299
375.679
375.19
374.82
374.581
374.517
374.469
377.862
377.042
376.321
375.716
375.226
374.876
374.91
374.74
378.663
377.758
376.953
376.262
375.694
375.283
375.094
374.987
379.266
378.273
377.377
376.625
376.011
375.565
375.348
375.222
379.382
378.399
377.555
376.8
376.206
375.778
375.57
375.447
379.04
378.163
377.42
376.789
376.268
375.896
375.744
375.644
378.599
377.838
377.189
376.671
376.27
375.999
375.898
375.826
279.302
279.335
279.329
279.356
279.37
279.453
279.331
279.364
279.447
279.617
279.637
279.595
279.524
279.44
279.467
279.306
279.692
279.941
279.955
279.857
279.704
279.493
279.309
279.292
279.999
280.259
280.215
280.076
279.892
279.634
279.415
279.391
280.367
280.547
280.497
280.348
280.152
279.904
279.693
279.668
280.583
280.719
280.683
280.584
280.427
280.245
280.093
280.085
280.862
280.842
280.811
280.795
280.76
280.68
280.611
280.655
736.026
735.836
735.716
735.637
735.593
735.597
735.656
735.758
735.799
735.597
735.468
735.379
735.324
735.321
735.376
735.476
735.588
735.381
735.244
735.146
735.083
735.073
735.123
735.22
735.413
735.201
735.06
734.955
734.886
734.87
734.916
735.008
735.289
735.077
734.935
734.828
734.756
734.738
734.781
734.87
735.221
735.012
734.87
734.763
734.692
734.673
734.714
734.798
735.206
734.998
734.858
734.752
734.682
734.663
734.702
734.782
638.462
638.246
638.123
638.058
638.046
638.112
638.264
638.477
638.188
637.966
637.831
637.755
637.735
637.797
637.95
638.16
637.94
637.712
637.568
637.483
637.456
637.514
637.667
637.874
637.743
637.51
637.357
637.262
637.229
637.283
637.428
637.634
637.614
637.378
637.223
637.124
637.088
637.14
637.282
637.48
637.556
637.318
637.161
637.062
637.026
637.077
637.216
637.408
637.552
637.313
637.158
637.063
637.028
637.075
637.208
637.392
540.641
540.444
540.357
540.362
540.46
540.661
540.968
541.342
540.306
540.102
540.011
540.018
540.113
540.316
540.63
541
540.007
539.801
539.71
539.72
539.808
540.007
540.331
540.692
539.774
539.566
539.47
539.477
539.561
539.761
540.071
540.43
539.637
539.427
539.331
539.338
539.418
539.615
539.918
540.268
539.587
539.378
539.283
539.287
539.363
539.554
539.851
540.19
539.605
539.394
539.299
539.301
539.374
539.554
539.839
540.165
442.469
442.402
442.446
442.595
442.914
443.434
443.997
444.551
442.021
441.966
442.018
442.196
442.553
443.082
443.643
444.189
441.643
441.603
441.669
441.871
442.253
442.779
443.33
443.863
441.365
441.328
441.388
441.591
441.989
442.514
443.057
443.579
441.223
441.19
441.252
441.455
441.853
442.369
442.899
443.407
441.196
441.167
441.232
441.428
441.809
442.309
442.828
443.325
441.248
441.219
441.287
441.47
441.825
442.305
442.805
443.287
344.601
344.844
345.113
345.506
346.155
346.911
347.644
348.29
343.964
344.229
344.561
345.046
345.765
346.543
347.268
347.896
343.486
343.758
344.131
344.682
345.442
346.23
346.939
347.541
343.155
343.439
343.832
344.408
345.18
345.95
346.641
347.221
343
343.302
343.702
344.285
345.048
345.796
346.466
347.028
343
343.328
343.728
344.305
345.038
345.749
346.392
346.946
343.075
343.469
343.847
344.404
345.093
345.765
346.377
346.906
243.532
244.846
247.206
249.053
250.175
250.975
251.609
252.116
242.51
243.903
246.485
248.494
249.728
250.56
251.181
251.666
241.663
243.184
245.959
248.04
249.341
250.2
250.809
251.283
241.207
242.761
245.64
247.803
249.097
249.905
250.48
250.923
241.001
242.584
245.548
247.728
248.993
249.753
250.291
250.701
241.008
242.631
245.696
247.865
249.064
249.747
250.238
250.62
241.152
242.777
245.933
248.103
249.228
249.835
250.263
250.599
736.186
736.032
735.938
735.876
735.839
735.84
735.891
735.981
736.362
736.22
736.136
736.081
736.048
736.051
736.105
736.198
736.532
736.401
736.325
736.277
736.249
736.256
736.311
736.406
736.692
736.564
736.494
736.452
736.429
736.441
736.501
736.602
736.828
736.699
736.631
736.592
736.575
736.593
736.66
736.768
736.928
736.794
736.725
736.688
736.674
736.697
736.77
736.884
736.986
736.846
736.775
736.738
736.726
736.753
736.829
736.947
638.657
638.47
638.363
638.306
638.292
638.35
638.49
638.69
638.856
638.692
638.596
638.545
638.535
638.595
638.737
638.942
639.055
638.904
638.817
638.773
638.768
638.83
638.973
639.182
639.241
639.091
639.007
638.968
638.971
639.039
639.188
639.404
639.394
639.238
639.154
639.119
639.13
639.208
639.368
639.591
639.503
639.337
639.252
639.221
639.235
639.318
639.484
639.715
639.564
639.39
639.302
639.272
639.288
639.374
639.543
639.779
540.849
540.656
540.563
540.558
540.649
540.836
541.135
541.503
541.086
540.913
540.832
540.836
540.931
541.115
541.417
541.795
541.313
541.156
541.086
541.098
541.197
541.384
541.689
542.074
541.518
541.363
541.301
541.321
541.427
541.623
541.934
542.327
541.68
541.519
541.459
541.485
541.6
541.807
542.13
542.533
541.793
541.623
541.559
541.587
541.705
541.919
542.251
542.664
541.85
541.672
541.605
541.634
541.755
541.973
542.31
542.727
442.659
442.522
442.533
442.665
442.938
443.435
444.023
444.616
442.945
442.825
442.846
442.983
443.253
443.744
444.34
444.952
443.216
443.111
443.142
443.284
443.552
444.039
444.642
445.268
443.449
443.349
443.392
443.548
443.818
444.304
444.917
445.558
443.627
443.521
443.561
443.72
444.002
444.497
445.128
445.788
443.746
443.632
443.669
443.826
444.111
444.615
445.258
445.93
443.793
443.675
443.71
443.868
444.157
444.673
445.324
446.001
344.626
344.697
344.857
345.153
345.762
346.594
347.456
348.234
344.928
345.009
345.194
345.502
346.085
346.919
347.808
348.625
345.235
345.323
345.525
345.829
346.392
347.228
348.139
348.989
345.49
345.571
345.791
346.096
346.651
347.507
348.447
349.325
345.682
345.75
345.96
346.281
346.847
347.713
348.681
349.591
345.813
345.877
346.083
346.405
346.986
347.867
348.842
349.758
345.869
345.938
346.132
346.454
347.045
347.939
348.92
349.841
243.804
244.228
245.726
247.629
249.147
250.339
251.308
252.06
244.339
244.678
245.996
247.85
249.444
250.708
251.738
252.555
244.83
245.11
246.287
248.09
249.73
251.049
252.129
253
245.185
245.425
246.567
248.336
249.995
251.361
252.491
253.405
245.494
245.737
246.827
248.553
250.216
251.604
252.767
253.726
245.653
245.897
246.996
248.717
250.372
251.762
252.943
253.925
245.674
245.984
247.103
248.814
250.443
251.827
253.016
254.016
737.002
736.859
736.786
736.748
736.738
736.766
736.844
736.962
736.976
736.833
736.759
736.722
736.712
736.741
736.818
736.933
736.906
736.763
736.687
736.649
736.639
736.667
736.742
736.853
736.794
736.648
736.569
736.527
736.515
736.541
736.614
736.723
736.643
736.489
736.402
736.353
736.336
736.359
736.429
736.537
736.459
736.294
736.197
736.14
736.114
736.13
736.197
736.3
736.249
736.072
735.966
735.898
735.862
735.871
735.934
736.038
639.58
639.403
639.313
639.281
639.298
639.385
639.555
639.789
639.553
639.377
639.287
639.255
639.271
639.358
639.526
639.757
639.48
639.303
639.211
639.179
639.195
639.281
639.446
639.672
639.358
639.178
639.083
639.05
639.065
639.15
639.313
639.533
639.188
639.001
638.902
638.863
638.873
638.956
639.116
639.334
638.978
638.783
638.676
638.628
638.629
638.704
638.862
639.08
638.735
638.533
638.415
638.356
638.349
638.419
638.574
638.791
541.863
541.679
541.61
541.638
541.76
541.979
542.317
542.733
541.836
541.65
541.583
541.612
541.731
541.945
542.279
542.69
541.759
541.573
541.506
541.534
541.649
541.86
542.187
542.591
541.633
541.447
541.378
541.405
541.52
541.728
542.05
542.447
541.454
541.265
541.191
541.211
541.324
541.529
541.849
542.24
541.229
541.036
540.953
540.965
541.076
541.281
541.596
541.981
540.961
540.762
540.674
540.681
540.786
540.988
541.297
541.68
443.793
443.673
443.708
443.866
444.157
444.675
445.326
446
443.759
443.639
443.684
443.848
444.129
444.632
445.272
445.94
443.68
443.56
443.604
443.763
444.038
444.528
445.16
445.824
443.555
443.436
443.477
443.632
443.905
444.394
445.017
445.67
443.378
443.261
443.293
443.439
443.713
444.209
444.823
445.459
443.148
443.041
443.073
443.212
443.489
443.997
444.598
445.209
442.851
442.767
442.801
442.94
443.235
443.751
444.331
444.907
345.881
345.952
346.137
346.455
347.048
347.94
348.916
349.831
345.852
345.921
346.114
346.427
347.006
347.883
348.846
349.752
345.788
345.861
346.051
346.358
346.929
347.77
348.709
349.612
345.679
345.754
345.933
346.234
346.798
347.621
348.545
349.439
345.541
345.63
345.797
346.084
346.648
347.46
348.363
349.225
345.366
345.491
345.678
345.96
346.534
347.33
348.189
348.989
345.11
345.288
345.498
345.82
346.42
347.19
347.974
348.677
245.637
245.994
247.146
248.845
250.447
251.813
252.992
253.989
245.532
245.918
247.11
248.801
250.375
251.73
252.897
253.884
245.345
245.775
247.008
248.709
250.28
251.589
252.731
253.724
245.125
245.624
246.934
248.641
250.166
251.442
252.563
253.546
244.96
245.573
246.997
248.72
250.157
251.328
252.386
253.31
244.751
245.575
247.231
248.947
250.234
251.281
252.225
253.026
244.361
245.47
247.522
249.268
250.389
251.255
252.001
252.604
735.229
735.024
734.886
734.785
734.718
734.699
734.737
734.814
735.285
735.085
734.952
734.854
734.789
734.77
734.803
734.875
735.374
735.182
735.055
734.963
734.902
734.883
734.915
734.986
735.501
735.316
735.197
735.113
735.056
735.04
735.074
735.146
735.656
735.477
735.365
735.288
735.238
735.227
735.265
735.34
735.828
735.655
735.548
735.476
735.432
735.427
735.471
735.551
736.008
735.841
735.74
735.672
735.632
735.631
735.68
735.765
637.586
637.351
637.202
637.112
637.079
637.122
637.248
637.425
637.652
637.425
637.281
637.191
637.156
637.195
637.313
637.483
637.76
637.539
637.397
637.309
637.273
637.309
637.426
637.599
637.907
637.689
637.55
637.465
637.432
637.47
637.589
637.764
638.082
637.864
637.729
637.651
637.624
637.668
637.79
637.969
638.27
638.056
637.929
637.857
637.835
637.886
638.014
638.199
638.461
638.261
638.141
638.075
638.057
638.111
638.246
638.438
539.66
539.447
539.35
539.347
539.422
539.598
539.871
540.192
539.733
539.521
539.417
539.404
539.476
539.647
539.913
540.232
539.849
539.632
539.523
539.501
539.573
539.739
540.001
540.334
540.006
539.783
539.669
539.646
539.72
539.889
540.158
540.488
540.197
539.97
539.857
539.836
539.914
540.089
540.364
540.699
540.406
540.182
540.071
540.055
540.138
540.321
540.604
540.946
540.626
540.41
540.303
540.291
540.379
540.567
540.859
541.214
441.334
441.283
441.345
441.513
441.841
442.318
442.82
443.301
441.418
441.337
441.38
441.524
441.821
442.295
442.807
443.297
441.529
441.42
441.452
441.583
441.854
442.327
442.85
443.359
441.685
441.552
441.574
441.699
441.964
442.437
442.973
443.5
441.892
441.745
441.76
441.889
442.156
442.632
443.177
443.716
442.133
441.976
441.987
442.119
442.39
442.872
443.43
443.981
442.385
442.231
442.241
442.372
442.645
443.138
443.714
444.286
343.21
343.527
343.876
344.389
345.048
345.726
346.361
346.907
343.299
343.528
343.808
344.242
344.878
345.579
346.258
346.844
343.415
343.57
343.799
344.182
344.806
345.524
346.232
346.858
343.569
343.681
343.89
344.238
344.857
345.587
346.32
346.981
343.796
343.893
344.101
344.404
345.021
345.77
346.523
347.202
344.06
344.145
344.336
344.623
345.238
346.013
346.796
347.493
344.333
344.402
344.565
344.855
345.472
346.282
347.11
347.845
241.443
242.903
245.874
248.009
249.138
249.785
250.274
250.634
241.746
242.937
245.487
247.549
248.753
249.51
250.097
250.524
241.919
242.874
245.116
247.186
248.495
249.344
250.005
250.509
242.097
242.88
244.927
247.035
248.437
249.365
250.085
250.656
242.428
243.077
244.979
247.093
248.542
249.53
250.294
250.892
242.837
243.416
245.204
247.256
248.712
249.759
250.575
251.192
243.294
243.794
245.45
247.412
248.883
250.005
250.904
251.585
832.29
832.309
832.277
735.856
735.936
736.01
736.075
736.123
736.147
736.141
736.124
735.573
735.652
735.727
735.791
735.84
735.865
735.859
735.843
735.316
735.394
735.468
735.532
735.582
735.609
735.603
735.587
735.101
735.178
735.251
735.316
735.366
735.391
735.385
735.371
734.958
735.033
735.104
735.168
735.216
735.24
735.233
735.219
734.88
734.949
735.017
735.076
735.12
735.141
735.132
735.119
734.862
734.928
734.994
735.051
735.094
735.115
735.106
735.091
638.662
638.806
638.941
639.06
639.159
639.229
639.264
639.286
638.345
638.489
638.623
638.742
638.841
638.912
638.948
638.972
638.057
638.198
638.332
638.451
638.55
638.622
638.659
638.688
637.816
637.958
638.092
638.211
638.311
638.383
638.422
638.456
637.656
637.793
637.924
638.041
638.139
638.211
638.251
638.286
637.575
637.705
637.829
637.941
638.035
638.105
638.144
638.178
637.553
637.678
637.796
637.903
637.995
638.063
638.1
638.131
541.653
541.887
542.104
542.3
542.475
542.624
542.745
542.872
541.306
541.536
541.75
541.944
542.117
542.266
542.389
542.521
540.993
541.219
541.43
541.623
541.794
541.944
542.07
542.21
540.727
540.952
541.162
541.353
541.525
541.677
541.809
541.957
540.556
540.774
540.977
541.163
541.332
541.484
541.617
541.765
540.468
540.675
540.869
541.048
541.212
541.361
541.492
541.637
540.433
540.632
540.82
540.994
541.155
541.3
541.427
541.567
444.996
445.326
445.631
445.913
446.178
446.441
446.709
447.003
444.621
444.941
445.235
445.509
445.768
446.028
446.298
446.598
444.283
444.594
444.88
445.146
445.401
445.66
445.936
446.248
443.992
444.299
444.58
444.843
445.097
445.359
445.643
445.966
443.804
444.097
444.368
444.623
444.872
445.133
445.417
445.743
443.708
443.986
444.245
444.49
444.731
444.987
445.267
445.587
443.657
443.926
444.176
444.416
444.654
444.905
445.179
445.492
348.812
349.199
349.549
349.882
350.221
350.606
351.066
351.594
348.391
348.757
349.087
349.401
349.725
350.101
350.559
351.089
348.015
348.363
348.675
348.973
349.285
349.656
350.117
350.656
347.683
348.024
348.326
348.616
348.924
349.297
349.765
350.319
347.465
347.785
348.07
348.348
348.649
349.019
349.487
350.044
347.361
347.658
347.928
348.193
348.482
348.843
349.307
349.859
347.303
347.586
347.845
348.104
348.388
348.744
349.203
349.752
252.709
253.183
253.567
253.912
254.282
254.744
255.377
256.151
252.219
252.646
252.994
253.32
253.654
254.082
254.704
255.471
251.787
252.18
252.501
252.787
253.085
253.503
254.118
254.875
251.417
251.797
252.096
252.346
252.624
253.047
253.663
254.422
251.137
251.478
251.759
252.002
252.272
252.686
253.301
254.06
251.018
251.319
251.59
251.845
252.093
252.461
253.068
253.839
250.957
251.243
251.495
251.762
252.013
252.358
252.949
253.737
736.068
736.14
736.209
736.27
736.316
736.338
736.33
736.31
736.288
736.363
736.435
736.498
736.546
736.571
736.566
736.549
736.499
736.577
736.651
736.716
736.766
736.792
736.787
736.772
736.7
736.781
736.858
736.926
736.977
737.003
736.997
736.98
736.872
736.957
737.038
737.107
737.159
737.185
737.178
737.16
736.992
737.08
737.163
737.234
737.288
737.315
737.308
737.287
737.06
737.15
737.235
737.308
737.364
737.392
737.386
737.363
638.867
639.005
639.134
639.25
639.346
639.414
639.445
639.462
639.124
639.266
639.4
639.521
639.621
639.693
639.729
639.751
639.369
639.516
639.654
639.778
639.882
639.957
639.995
640.021
639.598
639.75
639.893
640.02
640.125
640.2
640.238
640.262
639.791
639.948
640.094
640.223
640.329
640.404
640.439
640.459
639.922
640.082
640.23
640.361
640.468
640.542
640.575
640.592
639.988
640.151
640.302
640.435
640.543
640.618
640.65
640.665
541.814
542.05
542.268
542.466
542.641
542.79
542.904
543.025
542.116
542.359
542.586
542.792
542.975
543.13
543.252
543.383
542.402
542.652
542.886
543.099
543.287
543.447
543.574
543.71
542.664
542.92
543.159
543.376
543.567
543.728
543.854
543.987
542.879
543.141
543.384
543.603
543.795
543.956
544.079
544.206
543.017
543.283
543.53
543.752
543.945
544.105
544.224
544.348
543.085
543.353
543.602
543.825
544.019
544.18
544.297
544.42
445.084
445.431
445.751
446.046
446.321
446.589
446.859
447.157
445.438
445.799
446.135
446.443
446.731
447.011
447.293
447.605
445.77
446.144
446.492
446.812
447.109
447.397
447.687
448.008
446.071
446.454
446.81
447.136
447.438
447.729
448.018
448.335
446.314
446.705
447.067
447.398
447.702
447.992
448.277
448.587
446.465
446.862
447.228
447.562
447.869
448.158
448.441
448.749
446.538
446.937
447.305
447.64
447.947
448.236
448.518
448.824
348.823
349.248
349.633
349.993
350.352
350.753
351.234
351.793
349.245
349.694
350.103
350.486
350.867
351.287
351.785
352.365
349.637
350.107
350.537
350.939
351.337
351.772
352.281
352.873
349.993
350.477
350.92
351.334
351.739
352.178
352.686
353.276
350.279
350.776
351.228
351.648
352.057
352.495
353
353.583
350.456
350.962
351.421
351.845
352.255
352.694
353.197
353.778
350.543
351.051
351.51
351.933
352.342
352.779
353.281
353.862
252.728
253.24
253.673
254.033
254.384
254.866
255.541
256.376
253.257
253.793
254.267
254.667
255.043
255.552
256.258
257.123
253.734
254.297
254.807
255.243
255.645
256.176
256.904
257.786
254.17
254.754
255.288
255.747
256.163
256.695
257.419
258.301
254.523
255.125
255.671
256.143
256.567
257.092
257.806
258.682
254.745
255.36
255.912
256.387
256.812
257.332
258.042
258.918
254.847
255.464
256.013
256.489
256.917
257.427
258.127
259.001
737.073
737.163
737.248
737.321
737.377
737.405
737.398
737.375
737.041
737.127
737.209
737.279
737.332
737.359
737.351
737.328
736.956
737.039
737.117
737.184
737.234
737.258
737.249
737.226
736.824
736.904
736.98
737.045
737.093
737.115
737.106
737.083
736.635
736.713
736.788
736.852
736.899
736.922
736.912