/*--------------------------------*- C++ -*----------------------------------*\
| =========                 |                                                 |
| \\      /  F ield         | OpenFOAM: The Open Source CFD Toolbox           |
|  \\    /   O peration     | Version:  plus.master                           |
|   \\  /    A nd           | Web:      www.OpenFOAM.com                      |
|    \\/     M anipulation  |                                                 |
\*---------------------------------------------------------------------------*/
FoamFile
{
    version     2.0;
    format      ascii;
    class       vectorField;
    location    "5.8/lagrangian/kinematicCloud";
    object      UCorrect;
}
// * * * * * * * * * * * * * * * * * * * * * * * * * * * * * * * * * * * * * //


96597
(
(0.000198939 0.00445673 8.32676e-06)
(0.000276916 -8.84318e-05 5.04549e-05)
(-2.53615e-07 3.28411e-05 6.52547e-07)
(-9.02966e-07 7.92289e-05 5.58992e-05)
(0.000704848 0.000314127 3.68184e-05)
(-0.000102585 -0.000155045 5.99807e-05)
(0.000115951 -0.000172182 5.74918e-05)
(5.74868e-05 0.000157554 0.00141785)
(4.787e-05 7.61806e-05 5.35509e-05)
(2.28272e-06 2.02371e-05 4.76079e-05)
(4.84579e-05 6.33614e-05 5.19936e-05)
(0.000152449 0.000168327 0.00104629)
(-0.000724556 0.000150692 5.80203e-05)
(0.000105434 0.000155804 5.61303e-05)
(0.000187933 -4.27453e-10 5.1736e-05)
(0.000150365 7.37284e-05 3.92696e-05)
(-0.000125915 0.00422882 1.11336e-05)
(-0.000128449 6.1858e-05 6.12026e-05)
(7.77688e-05 0.000158194 5.37391e-05)
(2.36063e-05 1.36447e-05 4.92091e-05)
(-0.000117926 0.000117799 0.00127505)
(4.5873e-07 0.000152641 1.5063e-06)
(-0.000108641 -5.23187e-05 4.68373e-05)
(-9.66912e-05 -4.58401e-05 6.25697e-05)
(0.000276916 -8.84318e-05 5.49283e-05)
(-2.48898e-05 -2.67228e-05 4.15517e-05)
(-0.00011344 0.000101571 0.00127851)
(-1.11273e-11 0.000127222 3.90024e-06)
(-0.000137187 -6.60656e-05 0.00136716)
(5.55756e-05 -0.000134889 5.42388e-05)
(-0.000235044 -2.00328e-05 4.76017e-05)
(7.03863e-05 -0.000157182 5.79723e-05)
(-0.000101344 4.88015e-05 6.08112e-05)
(-0.000107216 0.000114567 0.00130192)
(-0.000148672 0.00012156 5.28231e-05)
(7.64834e-05 0.000131743 4.2128e-05)
(2.99925e-08 -2.23499e-06 5.04412e-05)
(2.28272e-06 2.02371e-05 5.50638e-05)
(0.00010416 0.000146956 4.45197e-07)
(-6.3712e-05 1.55329e-06 4.72001e-05)
(-7.10671e-05 -0.000237622 0.00135597)
(-9.277e-05 -0.000151029 6.03358e-05)
(2.33741e-06 6.68062e-05 5.93683e-05)
(-0.000128449 6.1858e-05 5.58255e-05)
(-4.52996e-05 8.37608e-05 6.17353e-05)
(7.03863e-05 -0.000157182 5.44644e-05)
(6.27635e-10 6.171e-05 4.32765e-06)
(-0.0001075 0.000193751 6.66828e-05)
(-9.277e-05 -0.000151029 5.20081e-05)
(-1.81257e-06 2.345e-05 5.91138e-05)
(7.50569e-05 -0.000164064 0.000943257)
(-8.27275e-05 0.000142944 0.00138988)
(0.000156017 -7.4395e-05 5.14412e-05)
(-3.02478e-06 -7.36338e-05 5.32408e-05)
(0.000103547 -0.000155446 5.37708e-05)
(4.787e-05 7.61806e-05 4.9733e-05)
(0.000229147 0.000174929 0.00132021)
(3.91418e-05 -0.00439033 1.61557e-05)
(-4.52996e-05 8.37608e-05 5.62871e-05)
(1.17155e-05 6.52544e-06 4.82865e-05)
(0.000177119 -0.000149622 0.00113837)
(7.03863e-05 -0.000157182 5.53141e-05)
(3.26682e-05 0.000143564 5.51084e-05)
(-4.52996e-05 8.37608e-05 5.71996e-05)
(0.000509725 -1.34915e-05 0.00158836)
(-0.000108641 -5.23187e-05 6.10962e-05)
(-1.11273e-11 0.000127222 4.32227e-06)
(0.000122594 0.000188476 6.1339e-05)
(-8.76808e-05 -5.29592e-12 4.19915e-06)
(8.91232e-05 -0.000123865 3.77754e-05)
(0.000123923 -3.37594e-05 0.00134459)
(0.000231441 0.000172635 0.00132021)
(4.787e-05 7.61806e-05 5.95773e-05)
(4.787e-05 7.61806e-05 4.96608e-05)
(2.33741e-06 6.68062e-05 5.6574e-05)
(0.000169246 -0.000163303 0.00127564)
(2.34033e-05 -5.8082e-11 4.70226e-05)
(0.00431804 0.000526753 6.74654e-05)
(4.0569e-05 9.54399e-05 6.1107e-05)
(2.39035e-05 0.00013639 5.38665e-05)
(-0.000148672 0.00012156 4.70163e-05)
(5.07184e-05 4.64442e-07 4.78024e-05)
(-9.91847e-05 4.77436e-05 6.00825e-05)
(5.14998e-05 9.61715e-05 5.33589e-05)
(5.86711e-05 0.000313833 4.81186e-05)
(-3.75947e-05 -7.77629e-06 5.9994e-05)
(9.76457e-05 -6.00365e-05 5.5637e-05)
(-7.48555e-08 3.30686e-05 5.21178e-05)
(0.000396211 -9.25856e-05 5.40061e-05)
(0.00012879 -0.00014195 6.14158e-05)
(6.25293e-05 0.000275409 5.95115e-05)
(8.65381e-05 0.00015147 5.81403e-05)
(8.51539e-05 -0.000123588 5.15986e-05)
(-9.66912e-05 -4.58401e-05 5.52819e-05)
(5.88298e-05 -0.000156806 5.67127e-05)
(-0.000191088 -0.00013997 0.00125507)
(5.95396e-06 0.00012361 0.00129449)
(-6.3712e-05 1.55329e-06 4.72302e-05)
(6.27003e-05 -6.9191e-06 4.15694e-05)
(-0.00504326 0.000146145 1.72429e-05)
(0.00013637 -1.31319e-06 7.2151e-07)
(-3.75947e-05 -7.77629e-06 5.71376e-05)
(0.000187933 -4.27453e-10 5.19637e-05)
(-0.000190943 -0.000324606 4.52725e-05)
(0.000222582 -0.000158361 6.38668e-05)
(-9.91847e-05 4.77436e-05 6.4046e-05)
(-7.48555e-08 3.30686e-05 5.05715e-05)
(-4.52996e-05 8.37608e-05 5.80188e-05)
(8.48405e-05 -7.62401e-05 4.61528e-07)
(-8.39184e-05 5.91265e-05 5.44179e-05)
(-5.32431e-05 7.68929e-05 5.66208e-05)
(7.03863e-05 -0.000157182 5.77799e-05)
(-1.92527e-16 -7.85859e-17 2.91842e-13)
(-2.36861e-06 -3.31367e-05 5.92381e-05)
(7.77688e-05 0.000158194 5.53229e-05)
(-3.75947e-05 -7.77629e-06 5.97065e-05)
(7.15946e-05 -0.000104178 5.74589e-05)
(9.56843e-05 7.28164e-05 0.00137015)
(-8.57443e-05 -4.12924e-05 5.53276e-05)
(0.000122343 -0.000132322 5.94172e-05)
(7.15946e-05 -0.000104178 5.64999e-05)
(0.000165912 -5.50183e-06 6.00515e-05)
(-9.02966e-07 7.92289e-05 5.51123e-05)
(0.000289475 -7.42129e-05 5.99963e-05)
(-0.000102585 -0.000155045 6.09197e-05)
(8.42327e-05 0.000259747 0.00144712)
(0.00012879 -0.00014195 6.34747e-05)
(5.80941e-05 0.000129209 5.14896e-05)
(4.5873e-07 0.000132597 3.54539e-05)
(0.000283424 0.000120651 5.5968e-05)
(0.000165912 -5.50183e-06 5.28907e-05)
(0.000276916 -8.84318e-05 5.63783e-05)
(-3.75947e-05 -7.77629e-06 6.08971e-05)
(5.96803e-05 0.000100807 0.00131525)
(5.12204e-05 8.32399e-05 5.12442e-05)
(-6.75846e-06 0.000172972 0.00136789)
(-1.11273e-11 0.000127222 4.04089e-06)
(4.79077e-05 3.37474e-05 5.57867e-05)
(7.31842e-05 0.000123046 0.00137547)
(-7.48555e-08 3.30686e-05 4.9635e-05)
(-5.46549e-05 0.000103187 0.00136137)
(-0.000129915 0.000125057 0.00116116)
(0.00012025 0.000140801 5.88924e-05)
(-9.66912e-05 -4.58401e-05 6.01668e-05)
(1.79239e-05 0.000127601 0.000126044)
(0.000156017 -7.4395e-05 5.26694e-05)
(-0.000158031 -0.000109627 0.0012935)
(2.18276e-05 -7.6569e-05 3.16255e-05)
(-1.12077e-05 0.000216138 5.64245e-05)
(-0.000108641 -5.23187e-05 5.53446e-05)
(0.000244368 1.65397e-06 4.01433e-05)
(0.000106572 -7.58282e-05 0.00141771)
(0.000194265 8.54621e-05 4.83055e-05)
(0.000222582 -0.000158361 6.99807e-05)
(4.787e-05 7.61806e-05 5.3051e-05)
(0.000276916 -8.84318e-05 5.67304e-05)
(-7.21828e-05 0.000134011 5.89391e-05)
(-4.67167e-05 5.384e-06 4.73353e-05)
(-0.00013621 -6.48714e-05 0.00141006)
(-5.95775e-05 2.05035e-05 5.76665e-05)
(9.41769e-05 -0.00453861 7.21275e-05)
(-2.36861e-06 -3.31367e-05 4.83959e-05)
(0.000115951 -0.000172182 5.36111e-05)
(-5.85611e-05 9.2762e-05 5.56878e-05)
(0.000103669 -2.42623e-05 0.00141696)
(-4.4262e-05 -4.5651e-05 5.44855e-05)
(0.000133644 -4.03558e-06 2.25363e-06)
(3.91418e-05 -0.00439033 1.76693e-05)
(1.04106e-06 -2.08039e-05 4.4863e-05)
(-0.00486188 0.000115445 0.00141946)
(0.000276916 -8.84318e-05 5.57719e-05)
(3.91418e-05 -0.00439033 1.72558e-05)
(-0.000121716 6.31796e-05 5.19239e-05)
(8.91232e-05 -0.000123865 4.16718e-05)
(0.00417104 -0.000159641 5.50304e-05)
(-8.28266e-05 0.00014315 0.00138988)
(3.67995e-05 9.82172e-05 0.00147043)
(-0.00504326 0.000146145 1.76651e-05)
(-8.76808e-05 -5.29592e-12 4.14972e-06)
(-8.73467e-05 -8.61389e-05 0.000140425)
(0.000186449 -0.000142342 5.54476e-05)
(-9.74733e-05 0.000318717 5.98999e-05)
(-9.91847e-05 4.77436e-05 5.20239e-05)
(-9.91847e-05 4.77436e-05 5.90572e-05)
(-9.66912e-05 -4.58401e-05 6.09223e-05)
(7.61223e-07 7.13698e-05 2.40956e-06)
(3.53208e-05 0.000122452 4.76407e-05)
(0.000194265 8.54621e-05 4.87518e-05)
(-1.49348e-06 -6.54492e-05 5.03703e-05)
(-5.38419e-05 -8.53887e-05 4.99941e-05)
(0.000276916 -8.84318e-05 5.67061e-05)
(3.53208e-05 0.000122452 4.56939e-05)
(2.36063e-05 1.36447e-05 4.7521e-05)
(-0.000110368 -0.000126174 5.53064e-05)
(3.49723e-05 4.68599e-05 4.50758e-05)
(-0.000166871 -0.000130312 0.00121945)
(4.15623e-06 -0.000409307 6.13741e-05)
(5.15757e-07 -0.000270984 2.62982e-06)
(5.80941e-05 0.000129209 5.04385e-05)
(0.000176688 -0.000149523 0.00113837)
(4.787e-05 7.61806e-05 5.2773e-05)
(7.77688e-05 0.000158194 5.97826e-05)
(7.61223e-07 1.46951e-05 6.2885e-05)
(0.00017453 -0.000191376 4.82229e-05)
(-0.000117945 0.00011778 0.00127505)
(-2.49213e-05 -2.99474e-05 5.82837e-05)
(6.00259e-05 -0.000204218 5.39129e-05)
(5.88298e-05 -0.000156806 5.80045e-05)
(-7.48555e-08 3.30686e-05 5.22608e-05)
(-0.000102585 -0.000155045 5.99288e-05)
(2.83437e-05 -3.03997e-05 5.78536e-05)
(7.15946e-05 -0.000104178 6.04962e-05)
(0.000173683 0.000106044 0.00134745)
(0.00017453 -0.000191376 5.81065e-05)
(-0.000108641 -5.23187e-05 5.72046e-05)
(0.000177252 -5.8082e-11 0.00108484)
(-8.50903e-05 8.1154e-05 0.00131332)
(-0.000168063 -0.00012912 0.00121945)
(5.67312e-05 6.32546e-05 3.48803e-05)
(0.00025866 -7.38882e-05 5.45664e-05)
(0.000133644 -4.03558e-06 2.13786e-06)
(-5.64329e-05 -7.93909e-06 4.00965e-05)
(-0.000156427 -0.000111231 0.0012935)
(0.00017563 0.000121733 6.251e-05)
(0.000289475 -7.42129e-05 5.75576e-05)
(-0.000101344 4.88015e-05 6.12131e-05)
(-0.00504326 0.000146145 1.89615e-05)
(4.5873e-07 0.000152641 1.4914e-06)
(2.83437e-05 -3.03997e-05 5.164e-05)
(0.000107635 9.59425e-05 5.59207e-05)
(-0.000119681 0.000116044 0.00127505)
(0.000122489 -0.000147866 6.01354e-05)
(5.55756e-05 -0.000134889 5.95081e-05)
(-1.01951e-10 -0.000144239 6.29625e-07)
(6.31928e-05 -0.00445116 6.70349e-05)
(-0.00504326 0.000146145 1.469e-05)
(2.86908e-05 -9.92401e-05 5.67674e-05)
(-1.39657e-05 4.18331e-05 6.34418e-05)
(-0.000130228 0.000124744 0.00116116)
(0.000156017 -7.4395e-05 5.4779e-05)
(0.000111248 -0.000134587 4.99795e-05)
(-1.94071e-05 1.80161e-05 5.71161e-05)
(5.12204e-05 8.32399e-05 5.25517e-05)
(-9.277e-05 -0.000151029 6.00142e-05)
(1.50823e-06 2.66242e-05 1.36165e-06)
(-1.11273e-11 0.000127222 4.03226e-06)
(-4.52996e-05 8.37608e-05 5.63033e-05)
(6.52934e-05 0.000178049 0.00129449)
(-5.476e-05 0.000103405 0.00136137)
(-0.000102585 -0.000155045 6.01743e-05)
(7.77688e-05 0.000158194 5.48819e-05)
(-0.00509934 0.000161213 6.08353e-05)
(-3.07746e-05 -6.215e-05 0.00118308)
(0.000177761 1.68683e-05 5.49092e-05)
(-5.85611e-05 9.2762e-05 6.17214e-05)
(7.61223e-07 0.000170548 6.2885e-05)
(-0.000101344 4.88015e-05 6.03207e-05)
(-5.85611e-05 9.2762e-05 6.25402e-05)
(6.37527e-05 -9.87124e-05 5.70866e-05)
(0.000289475 -7.42129e-05 5.86096e-05)
(-0.000101344 4.88015e-05 6.45249e-05)
(-0.000124261 -0.000103835 0.00058308)
(-0.000256515 -3.82935e-05 0.00143605)
(-9.66912e-05 -4.58401e-05 5.91783e-05)
(0.000187933 -4.27453e-10 5.15215e-05)
(0.000222582 -0.000158361 5.83756e-05)
(-7.48555e-08 3.30686e-05 4.84279e-05)
(5.00294e-05 5.05888e-05 6.691e-05)
(7.77688e-05 0.000158194 5.51687e-05)
(-0.000145502 0.000137501 0.00124271)
(-0.000224202 -3.09116e-05 4.51298e-05)
(-5.36219e-05 -3.95427e-05 4.52434e-05)
(0.000165912 -5.50183e-06 5.34001e-05)
(0.00021198 9.909e-05 0.00139336)
(0.00417323 0.000753098 6.04468e-05)
(4.79077e-05 3.37474e-05 5.95156e-05)
(-1.39657e-05 4.18331e-05 6.16943e-05)
(-4.53656e-05 -3.93467e-05 4.76042e-05)
(4.86385e-05 1.82778e-05 6.22903e-05)
(-0.000128449 6.1858e-05 5.34806e-05)
(1.04106e-06 -2.08039e-05 4.96443e-05)
(4.787e-05 7.61806e-05 6.16558e-05)
(0.000186449 -0.000142342 5.29388e-05)
(4.787e-05 7.61806e-05 5.76563e-05)
(-5.28382e-05 8.30455e-05 6.20757e-05)
(-1.34529e-05 -9.67976e-06 3.34121e-05)
(-9.91847e-05 4.77436e-05 6.16057e-05)
(9.41769e-05 -0.00453861 8.35672e-05)
(0.00012879 -0.00014195 6.41705e-05)
(0.000133932 0.000139238 4.58786e-05)
(0.000194265 8.54621e-05 5.29217e-05)
(0.000283424 0.000120651 5.27582e-05)
(-7.57908e-06 -6.03495e-06 4.55789e-05)
(4.0569e-05 9.54399e-05 6.27959e-05)
(-2.53615e-07 3.28411e-05 6.53695e-07)
(-7.57908e-06 -6.03495e-06 4.66836e-05)
(0.000244368 1.65397e-06 3.88527e-05)
(6.25293e-05 0.000275409 6.34203e-05)
(-0.000216975 8.94272e-05 5.90762e-05)
(-0.000127932 -6.96926e-05 6.60458e-05)
(-8.34518e-05 -4.58591e-05 5.61065e-05)
(0.000602305 -1.34915e-05 7.5576e-05)
(-2.82454e-05 -0.000237932 4.70887e-05)
(-0.000160171 0.000152087 0.00126716)
(-0.000193009 -0.000136338 5.55122e-05)
(-9.91847e-05 4.77436e-05 6.05365e-05)
(-0.000108641 -5.23187e-05 5.01911e-05)
(-9.277e-05 -0.000151029 5.66978e-05)
(0.00013485 0.000136056 5.09681e-05)
(0.000289475 -7.42129e-05 5.68772e-05)
(-8.57443e-05 -4.12924e-05 5.48325e-05)
(-0.000102585 -0.000155045 5.31849e-05)
(4.5873e-07 0.000152641 1.33097e-06)
(-1.29318e-05 4.66161e-05 4.92944e-05)
(4.787e-05 7.61806e-05 5.44546e-05)
(-2.49213e-05 -2.99474e-05 6.73924e-05)
(4.86385e-05 1.82778e-05 6.0308e-05)
(4.787e-05 7.61806e-05 4.77492e-05)
(6.27003e-05 -6.9191e-06 4.16218e-05)
(-0.000153218 -0.000112959 0.0012731)
(7.15946e-05 -0.000104178 6.0906e-05)
(-9.91847e-05 4.77436e-05 5.86009e-05)
(6.00259e-05 -0.000204218 5.81515e-05)
(-0.000112399 0.000102612 0.00127851)
(-6.84144e-05 -3.23469e-05 6.40584e-05)
(-0.000283555 3.96453e-05 5.77065e-05)
(-0.000470916 4.83346e-06 5.00339e-05)
(4.0569e-05 9.54399e-05 5.97394e-05)
(0.000174916 -1.92071e-07 2.26992e-06)
(-0.000189547 7.68113e-05 6.2393e-05)
(-0.000119403 0.000135939 4.95238e-05)
(-0.000128449 6.1858e-05 5.58923e-05)
(4.5873e-07 0.000152641 1.40746e-06)
(7.77688e-05 0.000158194 5.04748e-05)
(-0.000121716 6.31796e-05 5.1394e-05)
(-0.000190815 -0.000140244 0.00125507)
(5.60493e-05 2.17077e-05 0.00143021)
(5.00294e-05 5.05888e-05 6.38504e-05)
(-4.52996e-05 8.37608e-05 5.35392e-05)
(-9.18358e-05 0.000155493 0.00144715)
(4.787e-05 7.61806e-05 5.68901e-05)
(-4.66299e-06 -3.07758e-05 3.69659e-05)
(-4.00495e-05 8.60122e-06 2.70169e-05)
(0.000115951 -0.000172182 5.7471e-05)
(4.15623e-06 -0.000409307 6.28349e-05)
(0.000225701 -0.000111035 7.09257e-05)
(-0.000176099 -5.38456e-05 6.41421e-05)
(-9.91847e-05 4.77436e-05 5.37214e-05)
(-0.000167635 -0.000129548 0.00121945)
(-6.84144e-05 -3.23469e-05 5.83026e-05)
(0.000150346 -9.88732e-05 5.93447e-05)
(0.000186449 -0.000142342 4.97037e-05)
(0.000133768 0.000177909 5.67692e-05)
(-9.277e-05 -0.000151029 5.72951e-05)
(7.61223e-07 -5.03535e-06 6.2885e-05)
(0.000187933 -4.27453e-10 5.39019e-05)
(-4.52996e-05 8.37608e-05 5.30529e-05)
(-2.49213e-05 -2.99474e-05 6.7317e-05)
(7.68871e-12 0.000158063 1.12955e-06)
(0.00012069 -1.2722e-05 5.03877e-05)
(0.000122489 -0.000147866 6.66109e-05)
(-3.02478e-06 -7.36338e-05 5.28178e-05)
(0.000239129 0.000142674 0.00146228)
(-1.81257e-06 2.345e-05 6.03496e-05)
(0.000165912 -5.50183e-06 6.49693e-05)
(7.68871e-12 0.000158063 1.26565e-06)
(-0.00012968 0.000125292 0.00116116)
(9.9723e-05 3.79228e-06 5.67081e-05)
(-9.277e-05 -0.000151029 6.00079e-05)
(-2.55043e-05 1.16055e-06 5.25114e-05)
(-4.52996e-05 8.37608e-05 5.66155e-05)
(0.00012025 0.000140801 5.94158e-05)
(-1.29318e-05 4.66161e-05 5.24199e-05)
(5.55756e-05 -0.000134889 5.06017e-05)
(-0.000104771 5.79732e-06 5.19661e-05)
(-0.000102585 -0.000155045 5.30818e-05)
(4.787e-05 7.61806e-05 5.11779e-05)
(-0.000186293 4.77309e-05 0.00148134)
(0.000283424 0.000120651 5.76321e-05)
(9.69606e-05 0.000101649 5.84745e-05)
(1.04106e-06 -2.08039e-05 4.72285e-05)
(0.000115951 -0.000172182 5.87317e-05)
(-0.000255097 -1.25016e-07 4.60447e-05)
(-7.57908e-06 -6.03495e-06 5.12418e-05)
(5.80941e-05 0.000129209 5.57168e-05)
(-2.49213e-05 -2.99474e-05 6.28383e-05)
(-0.000102585 -0.000155045 5.2459e-05)
(0.000272223 0.000136438 5.4947e-05)
(1.67562e-05 -1.61855e-05 0.00101589)
(1.81983e-05 -2.97695e-05 4.43799e-05)
(-9.277e-05 -0.000151029 5.94776e-05)
(7.68871e-12 0.000158063 1.18963e-06)
(5.14998e-05 9.61715e-05 5.89751e-05)
(4.79077e-05 3.37474e-05 6.03102e-05)
(-5.48434e-05 0.000103579 0.00136137)
(-0.00060804 -9.60547e-05 6.12683e-05)
(-0.000108641 -5.23187e-05 5.45435e-05)
(-9.91847e-05 4.77436e-05 5.45179e-05)
(-5.95775e-05 2.05035e-05 6.45333e-05)
(-0.000108641 -5.23187e-05 5.58846e-05)
(-2.49213e-05 -2.99474e-05 6.27341e-05)
(0.00017453 -0.000191376 5.16289e-05)
(7.77688e-05 0.000158194 5.63558e-05)
(0.00013637 -1.31319e-06 7.50267e-07)
(0.000123197 -0.000115554 5.66481e-05)
(0.000194265 8.54621e-05 5.51761e-05)
(-0.00015247 -0.000113707 0.0012731)
(0.000232766 8.56134e-05 0.00116759)
(0.000174916 -1.92071e-07 2.20766e-06)
(4.15623e-06 -0.000409307 6.10849e-05)
(7.61223e-07 7.13698e-05 2.58465e-06)
(-0.000140342 0.000142661 0.00124271)
(-9.2704e-05 -0.000358986 1.7581e-07)
(0.000244573 -2.91092e-11 -7.25637e-07)
(-0.000128449 6.1858e-05 5.79627e-05)
(5.07184e-05 4.64442e-07 5.62581e-05)
(-2.66892e-06 -0.0001315 1.8687e-06)
(-9.66912e-05 -4.58401e-05 5.79584e-05)
(-7.57908e-06 -6.03495e-06 4.69425e-05)
(0.00025866 -7.38882e-05 5.28344e-05)
(-0.000355575 -7.87666e-13 5.08211e-05)
(3.07563e-05 2.87879e-05 6.1792e-05)
(7.26879e-05 -0.000147413 5.60009e-05)
(-2.49213e-05 -2.99474e-05 5.42364e-05)
(0.000198939 0.00445673 8.81742e-06)
(-2.36861e-06 -3.31367e-05 5.47223e-05)
(7.77688e-05 0.000158194 5.07186e-05)
(0.000138244 0.00029037 0.00142667)
(9.95706e-05 4.81007e-05 0.00130072)
(-0.000154644 -0.000113015 0.0012935)
(-8.57443e-05 -4.12924e-05 4.96352e-05)
(-6.3712e-05 1.55329e-06 5.14305e-05)
(4.79077e-05 3.37474e-05 5.5795e-05)
(2.06932e-05 -3.34906e-05 0.00100068)
(-5.32431e-05 7.68929e-05 6.02433e-05)
(-0.00018766 -0.000143399 0.00125507)
(2.99925e-08 -2.23499e-06 4.94623e-05)
(2.33741e-06 6.68062e-05 5.62458e-05)
(-9.91847e-05 4.77436e-05 6.5784e-05)
(-6.3712e-05 1.55329e-06 5.08539e-05)
(-0.000724556 0.000150692 6.30739e-05)
(2.77807e-05 -9.45025e-06 3.95874e-05)
(5.86711e-05 0.000313833 4.35761e-05)
(7.15946e-05 -0.000104178 6.54936e-05)
(0.000169032 -0.000163517 0.00127564)
(-9.66912e-05 -4.58401e-05 6.44971e-05)
(6.31928e-05 -0.00445116 7.13446e-05)
(-0.000160262 -0.000107396 0.0012935)
(-1.29318e-05 4.66161e-05 5.42767e-05)
(-0.000186129 4.7652e-05 0.00148134)
(0.000289475 -7.42129e-05 6.02531e-05)
(6.31928e-05 -0.00445116 7.81841e-05)
(0.000232629 8.54417e-05 0.00116759)
(-0.00014338 0.000139623 0.00124271)
(4.79077e-05 3.37474e-05 6.31861e-05)
(3.26682e-05 0.000143564 5.94017e-05)
(5.87983e-05 -3.37644e-05 6.46253e-05)
(-7.99725e-05 -7.81483e-05 5.40199e-05)
(0.000133768 0.000177909 5.52838e-05)
(0.00431804 0.000526753 6.76667e-05)
(5.12204e-05 8.32399e-05 5.952e-05)
(3.72437e-06 0.000254609 5.44898e-05)
(0.000169859 0.000238803 0.00125726)
(0.00417104 -0.000159641 5.11839e-05)
(-1.39657e-05 4.18331e-05 5.75059e-05)
(0.00017453 -0.000191376 5.97946e-05)
(0.00017453 -0.000191376 5.33625e-05)
(-0.000108641 -5.23187e-05 6.54095e-05)
(-5.95775e-05 2.05035e-05 6.55063e-05)
(3.50574e-06 -2.60377e-10 0.000100736)
(-0.000108641 -5.23187e-05 5.72678e-05)
(-0.000102585 -0.000155045 5.28416e-05)
(7.68871e-12 0.000158063 1.05027e-06)
(-0.000299735 -3.13242e-05 4.91314e-05)
(-6.84144e-05 -3.23469e-05 5.95017e-05)
(1.08151e-05 -3.72999e-07 5.76095e-07)
(-8.39184e-05 5.91265e-05 5.46782e-05)
(4.79077e-05 3.37474e-05 5.89268e-05)
(6.25293e-05 0.000275409 6.29071e-05)
(2.34033e-05 -5.8082e-11 4.22944e-05)
(-1.29318e-05 4.66161e-05 5.05863e-05)
(7.03863e-05 -0.000157182 5.56134e-05)
(-5.28382e-05 8.30455e-05 6.23378e-05)
(-0.000128449 6.1858e-05 5.29406e-05)
(0.0002179 0.00010637 0.00153715)
(0.000219215 1.15332e-05 5.68284e-05)
(-0.000104771 5.79732e-06 5.06597e-05)
(1.81983e-05 -2.97695e-05 4.66812e-05)
(0.000165912 -5.50183e-06 6.02337e-05)
(7.03863e-05 -0.000157182 5.38138e-05)
(-0.000135978 0.000122522 0.00124986)
(4.79077e-05 3.37474e-05 6.0404e-05)
(0.000122343 -0.000132322 5.89198e-05)
(0.000271788 0.000254129 5.26614e-05)
(-5.38419e-05 -8.53887e-05 4.36871e-05)
(-0.000105409 0.000161409 5.20299e-05)
(-2.36861e-06 -3.31367e-05 6.25673e-05)
(-7.99106e-05 -4.41537e-05 0.0012967)
(-4.52996e-05 8.37608e-05 5.53808e-05)
(0.000276916 -8.84318e-05 5.3722e-05)
(-0.0002538 -4.43646e-05 5.75689e-05)
(0.000148652 9.71691e-05 0.00117777)
(-2.49213e-05 -2.99474e-05 7.03658e-05)
(0.000187933 -4.27453e-10 5.44557e-05)
(-0.000108641 -5.23187e-05 5.7778e-05)
(0.000198939 0.00445673 8.93621e-06)
(-0.000139161 0.000143842 0.00124271)
(0.000276916 -8.84318e-05 5.49703e-05)
(0.00025866 -7.38882e-05 5.51665e-05)
(0.00025866 -7.38882e-05 5.65008e-05)
(9.54138e-05 7.22928e-05 0.00137015)
(-0.000165923 -0.00013126 0.00121945)
(-0.000179388 -9.83577e-06 5.62272e-05)
(-9.9172e-05 9.4118e-05 0.00130111)
(-0.000121716 6.31796e-05 5.7967e-05)
(-9.66912e-05 -4.58401e-05 6.09176e-05)
(-2.55043e-05 1.16055e-06 5.05411e-05)
(1.81983e-05 -2.97695e-05 4.77263e-05)
(-1.11273e-11 0.000127222 4.23135e-06)
(-0.00504326 0.000146145 1.92894e-05)
(-6.3712e-05 1.55329e-06 5.04542e-05)
(-2.23306e-05 1.45439e-05 4.95234e-05)
(-2.49213e-05 -2.99474e-05 6.47606e-05)
(-8.76808e-05 -5.29592e-12 4.51048e-06)
(0.000133768 0.000177909 5.88265e-05)
(0.000187933 -4.27453e-10 5.44016e-05)
(8.91232e-05 -0.000123865 3.87741e-05)
(8.53323e-05 0.000136579 0.00129449)
(-5.28382e-05 8.30455e-05 5.68371e-05)
(0.000187933 -4.27453e-10 5.66217e-05)
(1.17155e-05 6.52544e-06 5.07086e-05)
(-6.3712e-05 1.55329e-06 5.32398e-05)
(-9.277e-05 -0.000151029 5.66008e-05)
(0.000284298 -0.000276467 2.83719e-05)
(7.77688e-05 0.000158194 5.62511e-05)
(0.000276916 -8.84318e-05 5.64226e-05)
(-6.84144e-05 -3.23469e-05 6.37874e-05)
(5.86711e-05 0.000313833 4.50795e-05)
(-0.00016393 8.35085e-05 0.00132221)
(-0.000154793 -0.000112865 0.0012935)
(-0.000223741 0.000147967 5.60212e-05)
(2.48269e-05 -0.000213423 5.33941e-05)
(8.91232e-05 -0.000123865 3.78146e-05)
(-2.49213e-05 -2.99474e-05 5.45323e-05)
(0.00012025 0.000140801 5.90338e-05)
(-1.94071e-05 1.80161e-05 5.68552e-05)
(0.000147718 -9.72923e-05 0.00136807)
(7.15946e-05 -0.000104178 6.54695e-05)
(7.61223e-07 7.13698e-05 2.81864e-06)
(5.15757e-07 -0.000270984 2.79432e-06)
(-2.5252e-06 6.33862e-05 4.84581e-05)
(-1.11273e-11 0.000127222 3.96462e-06)
(-0.000724556 0.000150692 6.19442e-05)
(-6.84144e-05 -3.23469e-05 5.84705e-05)
(-4.52996e-05 8.37608e-05 6.18605e-05)
(-0.000191079 -0.000139979 0.00125507)
(0.00017489 -7.43291e-05 0.00136807)
(7.64834e-05 0.000131743 4.57191e-05)
(-7.48555e-08 3.30686e-05 5.20664e-05)
(0.00402276 -0.000156688 0.000182486)
(-2.36861e-06 -3.31367e-05 5.3169e-05)
(-0.000138838 -0.000104034 0.00130024)
(-0.000108641 -5.23187e-05 6.06041e-05)
(-3.83337e-06 -0.00016382 0.00144959)
(0.000187933 -4.27453e-10 6.00468e-05)
(-9.44721e-05 -0.000149464 5.45706e-05)
(0.000115951 -0.000172182 5.92694e-05)
(-0.000146263 0.00013674 0.00124271)
(-0.000104691 -5.04164e-05 0.00136716)
(0.000150365 7.37284e-05 3.9653e-05)
(-4.23768e-05 4.73801e-05 3.00003e-05)
(4.787e-05 7.61806e-05 5.77284e-05)
(-0.000128449 6.1858e-05 5.88757e-05)
(-9.66912e-05 -4.58401e-05 6.15565e-05)
(-9.91847e-05 4.77436e-05 5.58982e-05)
(5.15757e-07 -0.000270984 2.53021e-06)
(-0.000108641 -5.23187e-05 5.94979e-05)
(-1.55972e-05 -1.5933e-05 4.7669e-05)
(-2.53615e-07 3.28411e-05 6.94833e-07)
(0.00431804 0.000526753 6.33985e-05)
(-8.57443e-05 -4.12924e-05 5.34462e-05)
(-9.91847e-05 4.77436e-05 6.57335e-05)
(0.000231068 0.000173007 0.00132021)
(-9.277e-05 -0.000151029 5.93713e-05)
(3.91418e-05 -0.00439033 1.80086e-05)
(2.02618e-05 -1.24048e-05 4.52357e-05)
(-8.15927e-05 -6.77908e-05 4.9529e-05)
(0.000182326 0.000153579 5.95244e-05)
(-1.01951e-10 -0.000144239 6.53326e-07)
(-0.000137928 0.000145075 0.00124271)
(-0.000130196 0.000124776 0.00116116)
(5.05982e-06 -0.00028937 0.000140425)
(0.000272223 0.000136438 5.99578e-05)
(-1.39657e-05 4.18331e-05 5.48307e-05)
(0.00017453 -0.000191376 5.17886e-05)
(-0.0002538 -4.43646e-05 6.45443e-05)
(0.000198939 0.00445673 8.94068e-06)
(-1.11273e-11 0.000127222 4.38368e-06)
(-0.000169222 -0.000127961 0.00121945)
(-5.32431e-05 7.68929e-05 4.98736e-05)
(4.787e-05 7.61806e-05 5.45529e-05)
(-0.000168806 -0.000128376 0.00121945)
(0.000174239 6.37693e-05 0.00141243)
(4.00126e-05 -5.02568e-05 5.06423e-05)
(0.00017453 -0.000191376 5.45433e-05)
(9.41769e-05 -0.00453861 7.80662e-05)
(0.000115951 -0.000172182 5.34973e-05)
(-0.000150576 -0.000115601 0.0012731)
(-5.28382e-05 8.30455e-05 6.27277e-05)
(0.000232754 8.5599e-05 0.00116759)
(6.38457e-05 -1.37275e-05 0.00119237)
(-7.48555e-08 3.30686e-05 4.83207e-05)
(-0.000139809 -0.000103063 0.00130024)
(2.34033e-05 -5.8082e-11 4.35155e-05)
(7.15946e-05 -0.000104178 6.35524e-05)
(0.000115951 -0.000172182 4.98706e-05)
(-6.3712e-05 1.55329e-06 4.77351e-05)
(-3.15368e-06 -2.39712e-05 0.00124202)
(-5.32431e-05 7.68929e-05 5.02773e-05)
(-0.000724556 0.000150692 6.00298e-05)
(3.34313e-05 -0.000768489 1.26705e-05)
(-8.57443e-05 -4.12924e-05 5.7778e-05)
(7.26879e-05 -0.000147413 5.66687e-05)
(4.5873e-07 0.000152641 1.38601e-06)
(-9.277e-05 -0.000151029 5.88727e-05)
(1.17155e-05 6.52544e-06 4.80244e-05)
(7.26879e-05 -0.000147413 6.18617e-05)
(7.77688e-05 0.000158194 5.21632e-05)
(-0.00501884 0.000400476 0.000428735)
(8.91232e-05 -0.000123865 4.20102e-05)
(-2.55043e-05 1.16055e-06 4.57098e-05)
(-0.000359427 -1.00558e-05 0.00058308)
(-7.03673e-05 5.81079e-05 5.25537e-05)
(-0.000121716 6.31796e-05 5.42113e-05)
(0.000244368 1.65397e-06 4.38342e-05)
(-3.83049e-05 4.85586e-05 4.47946e-05)
(4.00126e-05 -5.02568e-05 5.28992e-05)
(-0.00504326 0.000146145 1.7558e-05)
(0.000283424 0.000120651 5.99655e-05)
(0.000133932 0.000139238 5.11796e-05)
(-6.3712e-05 1.55329e-06 4.64432e-05)
(-5.85611e-05 9.2762e-05 5.78099e-05)
(0.000165912 -5.50183e-06 5.33686e-05)
(5.55756e-05 -0.000134889 4.78324e-05)
(2.02618e-05 -1.24048e-05 4.49952e-05)
(5.96706e-05 0.000100787 0.00131525)
(-1.39657e-05 4.18331e-05 6.07977e-05)
(-5.85611e-05 9.2762e-05 6.27465e-05)
(-2.36861e-06 -3.31367e-05 5.96061e-05)
(-0.000128449 6.1858e-05 6.0137e-05)
(0.000120042 0.000413996 0.00138126)
(0.000133932 0.000139238 4.91713e-05)
(-0.000142002 0.000141001 0.00124271)
(9.9723e-05 3.79228e-06 5.73344e-05)
(-0.000101344 4.88015e-05 5.77718e-05)
(-8.76808e-05 -5.29592e-12 4.33113e-06)
(-0.000121716 6.31796e-05 4.89831e-05)
(-7.03673e-05 5.81079e-05 4.96784e-05)
(7.77688e-05 0.000158194 5.64326e-05)
(0.000106244 0.000169012 5.05264e-05)
(0.000283424 0.000120651 5.07003e-05)
(3.49723e-05 4.68599e-05 4.49593e-05)
(-4.52996e-05 8.37608e-05 5.5849e-05)
(-1.89026e-05 0.000184074 0.001252)
(0.000509973 -1.34915e-05 0.00158836)
(-9.91847e-05 4.77436e-05 5.97901e-05)
(0.000313065 -8.44892e-05 0.000911169)
(-0.000125074 6.02296e-05 0.00145198)
(-8.76808e-05 -5.29592e-12 3.89275e-06)
(-2.55043e-05 1.16055e-06 5.05542e-05)
(-2.49213e-05 -2.99474e-05 6.15892e-05)
(0.000124391 -0.000122632 5.66138e-05)
(-0.000176099 -5.38456e-05 6.67427e-05)
(7.26879e-05 -0.000147413 5.87841e-05)
(-7.48555e-08 3.30686e-05 5.18965e-05)
(0.000283424 0.000120651 5.72276e-05)
(5.19388e-05 6.71977e-05 5.99518e-05)
(-1.11273e-11 0.000127222 4.19455e-06)
(0.000188087 -0.000601725 4.84769e-05)
(-0.00509934 0.000161213 6.77585e-05)
(0.000208842 -0.000154845 0.00135107)
(2.34033e-05 -5.8082e-11 4.20896e-05)
(-0.000148672 0.00012156 4.5907e-05)
(0.000289475 -7.42129e-05 5.43781e-05)
(-2.36861e-06 -3.31367e-05 4.49924e-05)
(-0.000108641 -5.23187e-05 5.78221e-05)
(-2.49213e-05 -2.99474e-05 6.14561e-05)
(0.00012025 0.000140801 6.00483e-05)
(0.000272223 0.000136438 5.48688e-05)
(0.000637809 2.68762e-05 3.52397e-07)
(0.00017453 -0.000191376 5.46254e-05)
(0.000347649 -1.30568e-05 5.14238e-06)
(7.77688e-05 0.000158194 5.77859e-05)
(0.000164702 0.000149661 0.00144712)
(-2.49213e-05 -2.99474e-05 5.96393e-05)
(-0.000121716 6.31796e-05 5.28661e-05)
(-1.29318e-05 4.66161e-05 5.25345e-05)
(-0.00058468 -8.86074e-05 0.00132124)
(-3.02478e-06 -7.36338e-05 4.54099e-05)
(0.00012025 0.000140801 6.0138e-05)
(3.91418e-05 -0.00439033 1.7841e-05)
(-0.000128449 6.1858e-05 5.91566e-05)
(7.77688e-05 0.000158194 5.55473e-05)
(5.14998e-05 9.61715e-05 5.83408e-05)
(-0.000206896 -1.66945e-05 3.99706e-06)
(0.000133768 0.000177909 5.26006e-05)
(-5.36219e-05 -3.95427e-05 4.5293e-05)
(-1.11273e-11 0.000127222 3.97085e-06)
(0.000174916 -1.92071e-07 2.19647e-06)
(7.26879e-05 -0.000147413 5.85337e-05)
(4.82921e-05 0.000120605 5.63995e-05)
(7.15946e-05 -0.000104178 5.62304e-05)
(-0.000246617 -1.99273e-05 0.00146723)
(-6.84144e-05 -3.23469e-05 5.71236e-05)
(-4.39126e-07 -0.000191569 2.29224e-06)
(0.000157551 -3.22391e-05 0.00137958)
(8.91232e-05 -0.000123865 4.02772e-05)
(-4.39126e-07 -0.000191569 2.27562e-06)
(0.000225701 -0.000111035 6.85424e-05)
(5.67312e-05 6.32546e-05 3.56866e-05)
(-9.277e-05 -0.000151029 6.36224e-05)
(-0.000102585 -0.000155045 6.01497e-05)
(-7.48555e-08 2.29985e-05 0.00122454)
(0.000272223 0.000136438 5.25981e-05)
(-3.15368e-06 -4.73231e-05 5.271e-05)
(-4.52996e-05 8.37608e-05 5.498e-05)
(0.000131052 7.34693e-05 0.00135665)
(1.04106e-06 -2.08039e-05 4.84119e-05)
(-2.49213e-05 -2.99474e-05 5.70245e-05)
(6.31928e-05 -0.00445116 7.07135e-05)
(7.03863e-05 -0.000157182 5.36355e-05)
(7.15946e-05 -0.000104178 6.13321e-05)
(0.000272223 0.000136438 5.43828e-05)
(-0.000216975 8.94272e-05 6.51766e-05)
(-7.48555e-08 3.30686e-05 5.06565e-05)
(3.91418e-05 -0.00439033 1.8524e-05)
(4.00126e-05 -5.02568e-05 5.01192e-05)
(-0.000102585 -0.000155045 5.23227e-05)
(-0.000154268 0.000129707 5.53443e-05)
(0.000129204 -0.000176341 6.28354e-05)
(7.15946e-05 -0.000104178 6.39704e-05)
(-9.91847e-05 4.77436e-05 5.84135e-05)
(1.17155e-05 6.52544e-06 4.84289e-05)
(-9.66912e-05 -4.58401e-05 5.96532e-05)
(-0.000158077 -3.7781e-05 9.48223e-06)
(8.56656e-05 -6.94645e-05 5.0754e-05)
(-0.000102585 -0.000155045 5.46362e-05)
(-6.46605e-05 7.24598e-05 6.18825e-05)
(2.18276e-05 -7.6569e-05 3.06265e-05)
(-5.28382e-05 8.30455e-05 5.29825e-05)
(4.787e-05 7.61806e-05 5.65061e-05)
(0.00417323 0.000753098 5.66901e-05)
(7.77688e-05 0.000158194 6.30666e-05)
(5.12204e-05 8.32399e-05 5.6895e-05)
(-9.277e-05 -0.000151029 6.02462e-05)
(2.99925e-08 -2.23499e-06 5.16143e-05)
(0.000187933 -4.27453e-10 5.95292e-05)
(-0.000128449 6.1858e-05 5.5393e-05)
(0.000140955 8.02894e-05 0.00141915)
(-0.000102585 -0.000155045 5.06212e-05)