/*--------------------------------*- C++ -*----------------------------------*\
| =========                 |                                                 |
| \\      /  F ield         | OpenFOAM: The Open Source CFD Toolbox           |
|  \\    /   O peration     | Version:  plus.master.MPPICInterFoam            |
|   \\  /    A nd           | Web:      www.OpenFOAM.com                      |
|    \\/     M anipulation  |                                                 |
\*---------------------------------------------------------------------------*/
FoamFile
{
    version     2.0;
    format      ascii;
    class       Cloud<basicKinematicMPPICParcel>;
    location    "3.2/lagrangian/kinematicCloud";
    object      positions;
}
// * * * * * * * * * * * * * * * * * * * * * * * * * * * * * * * * * * * * * //

1834
(
(0.0155031 -0.00427636 0.332812) 10162
(-0.0133218 -0.0188888 0.342895) 10500
(0.013576 -0.0130259 0.329718) 10146
(0.0133784 -0.008281 0.338847) 10210
(-0.0193868 0.0153415 0.342429) 10333
(0.0140707 -0.0117058 0.327572) 10146
(-0.0250229 0.00784856 0.342443) 10350
(0.0126117 -0.00932896 0.338929) 10053
(0.015739 -0.0047106 0.325767) 10162
(-0.0273061 -0.00243501 0.335674) 10358
(-0.0144386 0.0197113 0.33844) 10677
(-0.0174835 0.0180011 0.337138) 10677
(0.0146291 -0.0116444 0.323305) 10090
(-0.0251723 -0.0141354 0.328522) 10319
(-0.021702 0.0137978 0.331335) 10285
(-0.028736 -0.00218782 0.320936) 10247
(-0.0265117 -0.00981883 0.329854) 10319
(0.0164297 -0.0083775 0.3095) 4495
(-0.0218813 -0.0168484 0.33002) 10326
(0.00136686 0.0220645 0.33233) 10637
(0.0126366 -0.00936379 0.338716) 10053
(0.0149178 -0.00796737 0.33033) 10154
(-0.0205028 0.0131604 0.338981) 10341
(0.012795 -0.00933428 0.3383) 10053
(-0.0191686 0.0156112 0.333997) 10333
(0.0122603 -0.00887829 0.340724) 10060
(-0.0284391 -0.00152137 0.32255) 10247
(0.0120614 -0.00915099 0.340684) 10060
(0.0156325 -0.00619513 0.321503) 10106
(-0.0253737 0.00523113 0.340629) 10350
(-0.0209266 -0.0170742 0.330289) 10326
(-0.0150552 -0.0195604 0.336048) 10501
(0.00253798 0.0209229 0.322186) 10580
(0.0153368 -0.011551 0.306374) 4487
(-0.0119114 -0.0227175 0.32739) 10453
(0.0127814 0.0103642 0.333295) 10046
(0.0136441 -0.00449146 0.341773) 10216
(0.0135989 0.00702611 0.331311) 10186
(0.0176272 -0.0120782 0.296085) 4432
(-0.0269817 -0.000732697 0.329312) 10302
(-0.025125 0.00613407 0.336575) 10350
(-0.0261995 -0.000751479 0.335632) 10358
(-0.0189747 0.0162296 0.325986) 10277
(-0.0275815 -0.00711489 0.322144) 10255
(0.0010894 -0.0187899 0.339191) 10523
(-0.0116466 -0.0231847 0.322252) 10398
(-0.0245139 -0.00958948 0.339052) 10374
(0.0149768 0.00659646 0.325462) 10186
(-0.0107792 0.0213239 0.331654) 10653
(0.015386 0.00132572 0.322397) 10114
(-0.0261484 -0.0090368 0.324002) 10310
(0.0153271 -0.00276015 0.331607) 10162
(0.0108736 -0.0138091 0.333878) 10546
(-0.0228233 -0.0119162 0.339247) 10373
(0.0177645 -0.0112298 0.292722) 4384
(0.0147158 -0.0114765 0.320934) 10090
(0.0154993 -0.0097077 0.318329) 10099
(-0.0244966 0.00380398 0.340929) 10349
(-0.00908795 -0.0200912 0.339014) 10508
(0.0169384 -0.0136786 0.292929) 4375
(0.00661009 -0.0159455 0.323418) 10483
(0.017579 -0.0111644 0.295719) 4439
(0.0159074 0.00140771 0.31992) 10115
(0.0151619 0.00818139 0.320987) 10130
(0.0152941 0.00170284 0.330224) 10170
(0.0145789 0.00887546 0.321909) 10130
(-0.00258047 -0.0207299 0.332387) 10468
(-0.0138573 0.0182522 0.338897) 10676
(-0.0176655 -0.0172979 0.339426) 10380
(-0.0107633 0.0192609 0.334194) 10670
(0.0127789 -0.00857253 0.340593) 10060
(0.0151189 -0.0119075 0.317715) 10091
(0.0146945 -0.0123434 0.316424) 10090
(0.015405 0.000177227 0.324624) 10170
(0.0145231 -0.00861054 0.331209) 10154
(-0.00744824 -0.0224492 0.325734) 10461
(-0.0210737 -0.0184198 0.317471) 10270
(-0.0068785 0.0214376 0.327694) 10645
(0.0135361 -0.0129249 0.323885) 10146
(0.0121114 -0.00934438 0.339804) 10053
(0.0147908 -0.00310962 0.338507) 10216
(0.0146146 -0.012499 0.315042) 10090
(-0.0259692 -0.00900241 0.32245) 10254
(-0.0268112 -0.00779461 0.320739) 10254
(0.00234524 -0.0180014 0.33364) 10531
(0.0133794 -0.00920185 0.334253) 10210
(0.0146529 -0.0088529 0.329913) 10154
(0.0116619 0.0149229 0.317408) 10554
(-0.0196613 0.0114586 0.339028) 10340
(-0.00930792 0.021188 0.324893) 10653
(0.0142944 -0.0130597 0.316009) 10090
(0.0151468 -0.00307288 0.333673) 10216
(0.00767779 -0.0148036 0.342263) 10538
(0.0151056 0.00374174 0.328711) 10178
(0.0100235 -0.0136109 0.341687) 10546
(0.0147376 -0.0111127 0.311463) 4486
(0.00699016 -0.0156372 0.342282) 10539
(0.0161539 -0.0072467 0.308051) 4495
(0.00147458 0.0204415 0.316103) 10580
(-0.0181932 -0.0200239 0.319631) 10389
(0.0147598 0.00255749 0.310598) 4518
(0.0141773 -0.0124395 0.317214) 10090
(-0.0133961 -0.0179637 0.341744) 10500
(0.0143981 -0.00857071 0.331795) 10154
(-0.0236445 0.00960291 0.333978) 10342
(-0.0163379 -0.0169117 0.338463) 10500
(0.00626491 -0.015478 0.340307) 10530
(-0.0151911 -0.0202986 0.326823) 10445
(-0.0225077 -0.0104168 0.337509) 10373
(-0.000100393 -0.0218963 0.316814) 10413
(-0.00325796 0.0213458 0.319721) 10588
(0.0147242 -0.00333083 0.338515) 10216
(0.0152825 0.0031594 0.32959) 10178
(0.0146989 0.00790543 0.319037) 10130
(0.01582 0.000723029 0.305723) 4510
(-0.0221843 0.00416529 0.342969) 10349
(0.00576446 -0.0152179 0.333255) 10474
(-0.0124559 0.0176645 0.336911) 10676
(0.0144249 -0.00743365 0.322665) 10098
(-0.00916396 0.0206065 0.323868) 10652
(0.0138778 -0.0132096 0.306438) 4486
(0.0142766 -0.00747311 0.321878) 10098
(-0.0252949 -0.00115 0.330134) 10302
(0.0151215 -0.00835413 0.328148) 10154
(-0.00494914 -0.0209055 0.333947) 10516
(0.00751593 -0.0149404 0.342502) 10538
(0.009881 -0.0125181 0.340564) 10053
(0.0139633 -0.00538008 0.322198) 10106
(0.0141879 -0.0125409 0.316093) 10090
(-0.0231039 -0.0139677 0.317191) 10262
(0.0158623 -0.0050725 0.310294) 4503
(0.0155496 -0.0151401 0.294727) 4431
(0.00883198 -0.0164722 0.304711) 6095
(0.015155 -0.00323361 0.332952) 10162
(0.0144427 -0.00836743 0.331471) 10154
(0.0137772 -0.00846756 0.335108) 10210
(0.0136493 -0.00877757 0.334529) 10210
(-0.00776246 -0.0228806 0.317776) 10405
(-0.0221529 -0.0123884 0.329443) 10317
(0.0151562 0.00353064 0.308076) 4518
(0.0158567 -0.00356159 0.320955) 10107
(0.00547526 -0.0193974 0.311486) 6088
(0.0124294 -0.0138449 0.316984) 10434
(-0.0130693 0.0188418 0.329146) 10660
(0.0143702 -0.0072198 0.322372) 10098
(-0.00828181 0.0215272 0.313427) 6881
(0.0153388 0.00252518 0.324213) 10178
(-0.0261034 -0.00375927 0.322066) 10254
(0.00866169 -0.0129524 0.34068) 10538
(0.0150932 -0.00840604 0.324514) 10154
(-0.0244382 -0.00674735 0.332445) 10310
(-0.0127805 -0.0185543 0.336247) 10500
(0.0144267 -0.00814062 0.321979) 10098
(0.0159372 -0.000362505 0.328118) 10171
(0.0136735 -0.00842228 0.336881) 10210
(-0.0132454 -0.0186318 0.332922) 10444
(0.0136853 -0.01306 0.308833) 4486
(0.0176944 -0.00387136 0.300409) 4447
(0.0122869 -0.00931368 0.335791) 10053
(0.0159701 -0.0124128 0.296485) 4431
(-0.00420746 -0.0207053 0.331936) 10460
(-0.00911382 0.0183603 0.326468) 10652
(0.0125311 -0.00754406 0.337811) 10060
(0.00975272 -0.012782 0.337867) 10053
(0.0152231 -0.000281956 0.322773) 10114
(0.0156627 0.00631949 0.311778) 4519
(0.0153923 -0.00251382 0.330331) 10162
(0.0127902 -0.00746738 0.338133) 10060
(0.00527294 -0.0149591 0.34242) 10530
(0.0142009 -0.00540323 0.321101) 10106
(0.0129052 -0.0137744 0.315884) 10434
(0.0171071 -0.0173621 0.280575) 5936
(0.0153418 0.0036493 0.321428) 10122
(0.000356808 -0.0213053 0.318352) 10412
(-0.00700878 0.0197303 0.322313) 10588
(0.0136628 -0.00447765 0.316516) 10106
(-0.020808 0.00831094 0.340379) 10340
(-0.0252338 0.00408335 0.320413) 10238
(0.0153373 -0.0027031 0.332278) 10162
(0.00690351 -0.0152918 0.338049) 10538
(0.00339024 -0.0188695 0.32648) 10476
(-0.00841074 -0.0214463 0.323026) 10397
(-0.00640338 0.0179556 0.327821) 10643
(0.0152092 0.00787952 0.309935) 4526
(-0.0222376 0.0103173 0.325804) 10285
(-0.017842 0.0125587 0.338996) 10332
(0.0144764 -0.00606831 0.32056) 10098
(0.0142185 -0.00696271 0.322374) 10098
(0.0139804 -0.0116477 0.309872) 4486
(0.00540527 -0.0146708 0.342893) 10530
(-0.0207255 0.00917528 0.339942) 10340
(0.0153093 0.00403518 0.321402) 10122
(0.015618 -0.00217221 0.331878) 10162
(0.0136498 -0.00430564 0.323551) 10162
(-0.0239917 0.00571148 0.336129) 10349
(0.0152923 -0.0026285 0.33093) 10162
(0.0138795 -0.00413576 0.321666) 10106
(0.0139787 -0.00802316 0.319612) 10098
(-0.0228404 0.00015764 0.34089) 10357
(0.0139249 -0.00807727 0.31955) 10098
(-0.0132643 -0.0218069 0.311146) 6065
(0.012321 -0.00895558 0.335286) 10060
(0.0159146 -0.0143769 0.292216) 4375
(-0.0143909 0.0208322 0.304719) 6889
(0.015557 -0.00143984 0.326896) 10170
(0.014174 -0.00678944 0.321853) 10098
(-0.012135 -0.0225352 0.310024) 6065
(-0.024333 -0.0033462 0.334492) 10365
(0.00264855 -0.021126 0.312844) 6088
(-0.0228713 0.00731856 0.332276) 10293
(0.0075104 -0.0149801 0.334956) 10538
(-0.0168053 0.0132406 0.337995) 10331
(0.0137338 -0.00888906 0.33174) 10154
(-0.0187389 0.0133887 0.328001) 10276
(-0.00876929 0.0206166 0.313715) 10596
(-0.00186475 0.0196545 0.3175) 10580
(0.0107808 -0.0110749 0.334046) 10053
(-0.0192153 -0.0179195 0.323599) 10325
(0.0155257 -0.00206763 0.329394) 10170
(-0.00803514 -0.0194681 0.336638) 10508
(0.0155765 -0.00217229 0.332747) 10162
(0.0143594 -0.00821762 0.3255) 10154
(0.0145969 -0.00322851 0.329082) 10162
(0.00829839 -0.0150037 0.333422) 10538
(0.0153193 -0.00188066 0.328538) 10170
(-0.00683059 0.0180646 0.322733) 10587
(0.0140688 -0.00501013 0.318735) 10106
(0.0148684 -0.00250182 0.326104) 10162
(-0.0247058 -0.0122212 0.305855) 5314
(0.012434 -0.00952763 0.331249) 10004
(0.0119687 -0.00995789 0.331596) 10004
(-0.0214355 -0.00790288 0.343182) 10365
(0.0120684 -0.0098818 0.329459) 10004
(0.0138605 -0.00356754 0.320799) 10106
(0.0137417 -0.00397029 0.319163) 10106
(0.0142238 -0.00313951 0.321492) 10106
(-0.0193975 -0.0190517 0.310804) 5321
(0.0148687 -0.00261261 0.326892) 10162
(0.013863 -0.00227899 0.312746) 4502
(-0.000220575 -0.0208958 0.320475) 10412
(0.0151047 0.00528835 0.313752) 10122
(0.0168832 0.00258088 0.29426) 4463
(-0.0208005 0.0132596 0.308517) 5281
(0.0153378 0.00368829 0.307201) 4518
(0.0187224 -0.00486062 0.290665) 4392
(0.00657559 -0.0166427 0.321551) 10419
(-0.0218578 -0.00785954 0.341802) 10365
(-0.0212446 0.00909957 0.33395) 10341
(0.013983 -0.00448324 0.318683) 10106
(-0.0207506 -0.0182309 0.30668) 5322
(0.0114309 0.0140604 0.305189) 6838
(-0.0161053 0.0191508 0.306931) 6889
(0.0119327 -0.00993568 0.331176) 10004
(0.0143944 -0.00795481 0.323493) 10154
(0.0149445 -0.00191137 0.325263) 10170
(-0.00800747 -0.0208091 0.324054) 10452
(0.0144569 0.007066 0.307668) 4526
(0.0106313 -0.0110803 0.330034) 10004
(0.0149503 -0.00187438 0.324424) 10170
(-0.0150783 0.0173657 0.318544) 10604
(-0.0257874 -0.00642198 0.313484) 5306
(-0.0191439 -0.0120786 0.338792) 10372
(0.0115355 -0.0102364 0.328561) 10004
(-0.0135205 -0.0169268 0.331738) 10443
(0.0133098 -0.0147568 0.303814) 6103
(0.0147144 0.00313862 0.317044) 10122
(0.0121005 -0.0194733 0.285398) 5984
(0.0106087 -0.0111121 0.330716) 10004
(0.0148471 -0.0010455 0.317198) 10114
(-0.0190491 0.0106872 0.334569) 10340
(0.0182546 -0.00547337 0.29441) 4447
(0.0107733 -0.0110234 0.331212) 10004
(0.00384227 -0.0180544 0.326971) 10475
(-0.0251262 0.00470894 0.311985) 5290
(-0.0123416 -0.0158871 0.341879) 10499
(0.0144376 0.00407521 0.314763) 10122
(0.0117244 -0.00995987 0.329916) 10004
(-0.018227 0.0100895 0.339543) 10340
(-0.0109995 0.0174083 0.330082) 10651
(-0.0198989 -0.013037 0.334453) 10373
(0.0100431 -0.0116632 0.329426) 10004
(-0.0216733 0.00383857 0.338965) 10348
(0.0137457 0.00608451 0.310691) 4526
(0.00911307 -0.013685 0.325878) 10482
(0.0116532 -0.0101671 0.328479) 10004
(-0.0128321 0.0156967 0.330329) 10659
(0.0046454 -0.0169231 0.330541) 10475
(0.0108977 -0.0108392 0.330804) 10004
(-0.00852396 -0.0221392 0.315127) 10397
(-0.0224824 -0.0125194 0.311598) 5313
(0.00200708 -0.0187085 0.322686) 10411
(-0.0118458 -0.0167045 0.340717) 10499
(-0.0155803 0.0139056 0.334723) 10331
(-0.0210238 0.00658242 0.336514) 10348
(0.0132829 -0.0170972 0.292122) 5992
(-0.0131992 0.0148451 0.334885) 10675
(0.00872337 -0.014552 0.326893) 10482
(0.0138683 -0.00338335 0.318166) 10106
(0.013308 -0.00400415 0.313031) 4502
(0.0136652 -0.00873742 0.310831) 4494
(0.00846937 -0.0129102 0.332552) 10482
(0.00781848 -0.0134023 0.334523) 10538
(-0.0224367 -0.00331332 0.342795) 10365
(0.0169282 -0.0182057 0.270612) 5881
(-0.0218547 -0.0122433 0.316945) 10261
(0.00951301 -0.0127684 0.329078) 10004
(0.0100171 -0.0136895 0.329918) 10490
(-0.0133433 -0.018948 0.321718) 10388
(0.00925781 -0.0134943 0.32555) 10482
(-0.00365864 -0.0240303 0.304765) 6073
(-0.0218193 -0.00555482 0.341551) 10365
(0.0103406 -0.0114661 0.328637) 10004
(0.00754686 -0.0157151 0.331066) 10483
(-0.0224976 -0.00380645 0.34145) 10365
(0.0169981 -0.0086351 0.294411) 4439
(0.0143901 0.00337879 0.31473) 10122
(-0.00835567 -0.023283 0.3079) 6073
(0.0172869 -0.00346996 0.30005) 4447
(0.0191134 0.00206394 0.28702) 4400
(-0.0215726 -0.00603615 0.341832) 10365
(0.00448411 -0.0159685 0.334697) 10531
(0.00975163 -0.0129428 0.328215) 10490
(-0.00661929 -0.0181316 0.34109) 10515
(-0.00917211 0.0201045 0.309395) 6880
(0.00923176 -0.011656 0.331367) 10004
(-0.00624379 -0.0194492 0.330563) 10460
(0.0119001 -0.0121713 0.309553) 3715
(0.00812215 -0.0136241 0.327935) 10482
(-0.0211599 -0.013523 0.323934) 10317
(0.0136058 -0.003827 0.315518) 10106
(0.00788971 -0.0151043 0.327566) 10482
(0.0127181 -0.0080046 0.324889) 10011
(0.0110602 -0.0107798 0.326224) 10004
(0.00800138 -0.0146797 0.324099) 10482
(-0.0156368 -0.0207757 0.301466) 6001
(0.013709 -0.00368378 0.316184) 10106
(0.0171415 -0.0204499 0.262326) 5825
(0.00947025 -0.0137286 0.329356) 10482
(0.000434056 -0.0177862 0.339269) 10523
(0.0191023 0.00335454 0.284295) 4408
(0.00529331 -0.0151588 0.332057) 10474
(-0.0102377 0.0217749 0.294062) 6825
(-0.0166727 -0.015456 0.331221) 10324
(0.0145658 0.00174329 0.313562) 10114
(0.00725504 -0.0151651 0.326345) 10482
(0.0135742 -0.0034936 0.314994) 10106
(-0.0193309 -0.0118457 0.335455) 10372
(0.00181295 -0.0182541 0.324897) 10467
(-0.0252343 0.00388976 0.308535) 5290
(0.0140022 0.00280804 0.313365) 4518
(-0.0204673 -0.00821448 0.340812) 10372
(0.00616116 -0.0164933 0.324293) 10475
(-0.025807 -0.00520405 0.312349) 5306
(0.0104799 -0.0115904 0.325171) 10004
(0.00776275 -0.0148259 0.324776) 10482
(0.00919833 -0.0136584 0.32948) 10482
(-0.0218075 -0.00484554 0.340368) 10365
(0.00932334 -0.0134172 0.330407) 10482
(0.0066955 -0.0159208 0.321571) 10427
(-0.00841281 -0.0171888 0.342742) 10507
(0.00991879 -0.0139193 0.328296) 10490
(-0.00156131 -0.0190262 0.337314) 10524
(-0.0220658 0.00304864 0.333772) 10349
(0.0160035 -0.00597035 0.306808) 4503
(-0.0238263 0.000385038 0.325556) 10301
(-0.0218442 -0.00880663 0.33048) 10317
(0.00512287 -0.0172815 0.322985) 10419
(-0.00440709 -0.0217273 0.311112) 6073
(0.00504645 -0.0156522 0.330531) 10474
(0.013559 -0.00425411 0.312565) 4502
(-0.0128133 -0.0216019 0.302903) 6009
(0.00385181 -0.0174689 0.328117) 10475
(0.00852423 -0.0145905 0.328572) 10482
(0.00180523 -0.0225621 0.299536) 6025
(0.0186177 -0.00854416 0.282817) 4328
(-0.00648209 -0.0178768 0.339555) 10515
(-0.0225344 -0.00225393 0.337781) 10357
(-0.00473933 0.0198404 0.307013) 6872
(0.00845542 -0.0144636 0.319751) 10426
(-0.00745865 -0.018124 0.337238) 10507
(0.00672064 -0.0160286 0.328709) 10483
(0.0165402 -0.0167048 0.279335) 5936
(-0.022028 -0.00349553 0.339514) 10365
(-0.0214669 0.00308351 0.337762) 10348
(0.0141508 -0.00503756 0.309028) 4502
(-0.00529551 -0.0176065 0.342256) 10515
(0.0193884 0.00015193 0.281638) 4344
(0.0082618 -0.0133462 0.32878) 10482
(-0.0224984 -0.00441221 0.331664) 10309
(-0.0086069 -0.0184306 0.333997) 10508
(-0.00981882 -0.016955 0.340483) 10507
(-0.0168522 0.0175948 0.307532) 6888
(-0.023761 -0.012089 0.303027) 5258
(-0.0239222 -0.0067307 0.317787) 10253
(0.016174 -0.0213151 0.260828) 5826
(0.018528 -0.00179195 0.288059) 4399
(0.0138091 0.00256759 0.310993) 4518
(-0.0122314 -0.0179372 0.331149) 10444
(0.00645098 -0.0160133 0.326567) 10475
(0.0102022 -0.0115964 0.326574) 10004
(-0.0159867 0.015855 0.31849) 10219
(0.01571 0.00569707 0.297504) 4463
(0.00701466 -0.0150379 0.323975) 10482
(0.00651566 -0.0159828 0.318611) 10427
(-0.0154622 -0.0150291 0.336827) 10379
(-0.018438 -0.0163027 0.308626) 5320
(-0.0142692 0.0125891 0.335662) 10330
(-0.0228987 -0.00637268 0.322665) 10253
(-0.00672772 -0.0186225 0.330881) 10460
(0.0159237 -0.0139829 0.288161) 4375
(-0.0123165 0.0205823 0.291384) 6769
(-0.00797314 -0.0194563 0.321735) 10396
(-0.00292287 -0.0194517 0.324106) 10460
(0.00689098 -0.0153455 0.32827) 10482
(-0.0211935 0.0128612 0.294537) 5225
(0.0154848 0.00685693 0.299637) 4470
(0.00732607 -0.0162039 0.309704) 6095
(-0.0229577 -0.00472116 0.326333) 10309
(-0.021795 -0.00495998 0.332848) 10309
(-0.00180924 -0.0207638 0.31617) 10412
(-0.0210969 -0.00276803 0.342804) 10364
(-0.00998173 0.0153237 0.3274) 10651
(0.0131008 -0.00377123 0.309089) 4502
(-0.0158484 0.0111188 0.333384) 10331
(0.012785 -0.00746775 0.318091) 9962
(0.0157601 0.00436456 0.301027) 4462
(0.0138812 -0.00711254 0.312454) 4494
(0.0155292 0.00199847 0.302604) 4454
(-0.0214776 0.00566979 0.327625) 10292
(0.00744442 -0.0148226 0.325772) 10482
(-0.011839 -0.0190634 0.31734) 10396
(-0.00894392 0.0193644 0.303692) 6880
(-0.0236111 0.0119798 0.285113) 5170
(0.000513644 -0.0158907 0.339093) 10522
(-0.0186514 0.0095293 0.33729) 10340
(-0.0210476 -0.00775684 0.333603) 10364
(-0.0217216 0.0102066 0.304953) 5281
(0.00816626 -0.013793 0.326244) 10482
(0.0147423 -0.00981454 0.298955) 4438
(0.0160585 -0.00625834 0.305125) 4503
(0.00344763 -0.0230235 0.292864) 5977
(0.00811186 -0.0145478 0.326326) 10482
(0.0140355 0.00204938 0.307668) 4518
(-0.00407983 -0.0172202 0.342073) 10515
(0.00820036 -0.021688 0.288154) 5985
(-0.0108154 -0.0170278 0.336643) 10507
(0.0137847 0.00244032 0.308215) 4518
(0.00805929 -0.0146911 0.325821) 10482
(0.020045 -0.000762917 0.278384) 4344
(-0.0221914 0.00540364 0.32287) 10237
(0.0143073 -0.005118 0.306834) 4502
(-0.0188253 0.014558 0.310238) 5272
(0.0146102 -0.00681761 0.30793) 4494
(-0.0153913 0.0204625 0.285858) 6777
(-0.0121245 0.0196664 0.294616) 6824
(-0.00888136 0.0197657 0.301893) 6824
(-0.0130637 0.0196929 0.299499) 6832
(-0.0114862 -0.0171191 0.332977) 10451
(-0.0182866 -0.0131913 0.326864) 10324
(-0.0201098 0.0147461 0.291867) 5161
(0.0189892 -0.00378985 0.280504) 4336
(0.0138655 -0.0117454 0.299328) 4430
(0.00810961 -0.014397 0.325575) 10482
(-0.0167026 0.0188069 0.300283) 6833
(-0.0150744 0.0172807 0.308416) 6888
(-0.00160959 -0.0187835 0.322077) 10411
(0.0137082 0.00298394 0.307539) 4518
(0.00676665 -0.015414 0.327362) 10482
(-0.0178447 0.00960945 0.337599) 10339
(-7.71118e-05 -0.0177288 0.331047) 10467
(-0.012611 0.0148217 0.332308) 10658
(0.0139029 -0.00725286 0.310905) 4494
(-0.0190174 -0.0179838 0.300799) 5265
(0.0146438 0.0053244 0.301283) 4462
(0.00676536 -0.0152533 0.326541) 10482
(-0.0229502 -0.00691423 0.315584) 10253
(-0.000673644 -0.018281 0.321186) 10411
(0.0038957 -0.017359 0.323474) 10475
(-0.0210679 -0.0048737 0.335289) 10364
(0.00669693 -0.0151992 0.323757) 10482
(0.0100169 -0.0136469 0.316155) 10434
(-0.0173599 -0.0172681 0.316656) 10268
(-0.0152601 0.0196256 0.294197) 6833
(-0.0186602 0.00749452 0.335009) 10340
(-0.021737 -0.00407455 0.330706) 10309
(0.00486392 -0.0193636 0.305696) 6088
(0.0179078 0.000628932 0.284091) 4399
(0.0119176 -0.0120819 0.305135) 3715
(0.00129308 -0.0157754 0.333647) 10522
(0.0152257 -0.0059277 0.304597) 4502
(-0.00173688 -0.0179816 0.330556) 10467
(-0.021005 -0.00801462 0.325421) 10316
(-0.0252139 -0.00308988 0.304822) 5306
(0.0015902 -0.0201799 0.306887) 6080
(0.00437865 -0.0181324 0.308298) 6087
(0.00371157 -0.0183555 0.311735) 6087
(-0.0169322 -0.0167558 0.31935) 10268
(-0.0190435 -0.0011972 0.340192) 10356
(0.00497956 -0.0168481 0.31741) 10419
(-0.0199886 -0.0030901 0.342211) 10364
(-0.00821246 -0.0222128 0.298922) 6017
(-0.0121672 0.0154876 0.321731) 10603
(0.00320818 -0.0218741 0.293578) 5977
(-0.0212618 0.00265707 0.330631) 10292
(-0.00317343 -0.0214632 0.306034) 6072
(-0.0205608 -0.00415564 0.338519) 10364
(0.0056213 -0.0153496 0.322289) 10418
(-0.010601 -0.0192572 0.313053) 6064
(-0.016492 -0.0108774 0.329469) 10315
(0.013405 -0.00414108 0.304848) 4502
(0.00490643 -0.0155081 0.328425) 10474
(0.00860595 -0.0125089 0.321655) 9954
(0.0184253 -0.0111126 0.27752) 4328
(-0.0145308 0.0123157 0.327343) 10274
(0.0136511 -0.00418185 0.306574) 4502
(-0.0176892 -0.010438 0.328048) 10315
(0.0189564 -0.00379692 0.277865) 4336
(-0.0103096 -0.0164483 0.335593) 10507
(0.0100112 -0.013803 0.30486) 6102
(-0.00232892 -0.0180096 0.32513) 10467
(-0.0226987 -0.00967599 0.306134) 5313
(-0.00834714 -0.0203372 0.308718) 6064
(0.00973163 -0.0173652 0.296394) 6039
(-0.00963596 -0.0188016 0.315587) 10396
(-0.0160557 0.0110208 0.326463) 10275
(-0.0134008 0.0159556 0.313495) 6887
(0.0107241 -0.0169669 0.290556) 5983
(-0.00862573 0.0153563 0.321172) 10594
(-0.00750896 0.0156016 0.320452) 10595
(0.0164337 -0.00619559 0.300524) 4447
(-0.00116485 -0.0158922 0.33706) 10522
(-0.0165596 -0.0109896 0.33259) 10315
(-0.0104884 -0.0160649 0.336026) 10507
(0.00345681 -0.0178058 0.318276) 10419
(-0.0155769 -0.0105074 0.339873) 10371
(0.00463588 -0.0157267 0.323246) 10418
(0.0117619 -0.00958081 0.31282) 3715
(-0.00313359 -0.0166047 0.33418) 10515
(0.00744534 -0.0145326 0.323052) 10426
(0.0126719 -0.00800667 0.31381) 9962
(-0.00186684 -0.0174646 0.330897) 10467
(-0.0196396 -0.00326612 0.339623) 10364
(0.0047172 -0.0156071 0.326215) 10474
(-0.0078442 0.0156595 0.3203) 10595
(0.0180143 -0.00699355 0.283823) 4391
(0.0146806 -0.00545412 0.300178) 4446
(0.0190186 0.00346451 0.270318) 4296
(0.0141219 -0.00495579 0.301478) 4446
(0.0140194 -0.00482291 0.301023) 4446
(0.00341439 -0.0172509 0.32002) 10419
(-0.00229448 -0.0176087 0.334326) 10515
(-0.0214204 -0.0110978 0.305305) 5313
(0.0126009 -0.0210739 0.268126) 5873
(-0.0153412 -0.013662 0.336181) 10379
(0.000247511 -0.0177123 0.318866) 10411
(-0.00769585 -0.0171833 0.331135) 10451
(0.00387799 -0.0171424 0.31924) 10419
(-0.0171223 -0.0114487 0.32306) 10259
(0.014519 -0.0152502 0.28178) 5935
(-0.00762678 0.0159546 0.321821) 10595
(0.00482704 -0.0158568 0.323969) 10475
(-0.0184103 -0.00631353 0.334326) 10363
(-0.0098774 -0.0170802 0.33206) 10451
(0.014865 0.00266325 0.298577) 4462
(-0.0215619 -0.000665447 0.325728) 10300
(0.00297965 -0.0162638 0.325377) 10475
(0.0197407 -0.00899965 0.274813) 4328
(0.0134312 -0.00419708 0.300005) 4446
(-0.0167511 -0.00897817 0.342704) 10371
(0.0148527 -0.00628022 0.300607) 4438
(-0.0153009 0.0191618 0.286287) 6777
(-0.0130842 -0.0178523 0.308425) 6056
(-0.0198663 -0.00205955 0.338569) 10356
(-0.0195004 -0.0137553 0.302957) 5264
(0.001484 -0.0226027 0.291212) 5969
(0.011667 -0.0135729 0.304905) 6102
(-0.017696 0.0117966 0.320284) 10228
(-0.0107396 0.016129 0.316415) 10595
(0.013447 -0.00205549 0.301498) 4446
(0.00817858 -0.0213667 0.2833) 5929
(-0.0138235 0.0172279 0.300295) 6832
(0.00723836 -0.0147776 0.319288) 10426
(-0.00873124 -0.0231669 0.288528) 5953
(-0.0152359 -0.0149947 0.32236) 10267
(0.0127516 -0.0188738 0.277383) 5936
(-0.0182756 -0.00779048 0.334025) 10371
(-0.00318814 -0.0221246 0.296691) 6017
(-0.0198859 -0.00975283 0.316398) 10260
(-0.0209748 -0.00316866 0.327872) 10308
(-0.0236035 -0.00627916 0.304509) 5305
(-0.00839249 -0.0201034 0.304695) 6064
(-0.0202637 0.00762053 0.317258) 10236
(-0.00832207 -0.0175683 0.323127) 10395
(0.00196502 -0.0160039 0.323995) 10467
(-0.0183766 -0.00565695 0.337391) 10363
(-0.0183717 0.0111784 0.314508) 10228
(-0.0224561 -0.00281366 0.315868) 10253
(-0.0182955 -0.00707293 0.338557) 10363
(0.00192646 -0.0159884 0.323341) 10411
(-0.00964272 -0.0221021 0.292231) 5953
(-0.0184093 -0.0057068 0.339244) 10363
(-0.0176687 -0.00810404 0.339468) 10371
(-0.0179318 -0.00540749 0.34257) 10363
(-0.0126886 0.0195668 0.283388) 6712
(0.00649578 -0.0188894 0.293109) 5976
(-0.00832508 -0.0196843 0.306093) 6064
(0.00605707 -0.0216832 0.282742) 5921
(0.0143127 -0.00693629 0.300858) 4438
(0.0147099 -0.00645242 0.300212) 4438
(-0.0096955 -0.0152598 0.337776) 10506
(-0.0185401 -0.00622699 0.331106) 10308
(-0.0182774 -0.00489391 0.340823) 10363
(-0.0186926 -0.00401461 0.343192) 10363
(-0.00964709 -0.01516 0.338398) 10506
(0.0158018 0.00458356 0.285412) 4407
(-0.0108559 -0.0151033 0.341238) 10498
(-0.0130418 -0.0187781 0.303641) 6056
(0.014482 -0.00661047 0.299606) 4438
(0.000303232 -0.0171358 0.31771) 10411
(0.00325931 -0.0162927 0.320306) 10419
(-0.000625164 -0.0234351 0.283317) 5913
(-0.00654625 -0.0179459 0.320748) 10403
(-0.00820673 -0.0150028 0.342597) 10506
(-0.0129812 0.0179823 0.290805) 6776
(-0.0230936 -0.00850236 0.302059) 5249
(-0.0119526 -0.0138249 0.342598) 10498
(-0.0169366 -0.00901428 0.338094) 10371
(-0.0183597 -0.0119533 0.314208) 10260
(-0.015786 0.0160809 0.303468) 6831
(-0.00399933 -0.0165203 0.328897) 10459
(0.0130991 -0.0147348 0.290765) 5990
(0.0153762 0.00110327 0.297598) 4454
(0.0133354 -0.0116856 0.298151) 4430
(-0.0123473 -0.0143204 0.33608) 10498
(0.0127757 -0.015343 0.289621) 5991
(0.00434498 -0.0184474 0.301051) 6031
(-0.0188354 -0.00311039 0.333895) 10363
(-0.0183113 -0.00627552 0.337165) 10363
(-0.00846839 -0.0148049 0.342771) 10506
(-0.00702209 -0.0236876 0.28241) 5905
(-0.0189519 -0.0038262 0.335739) 10364
(-0.0188303 -0.00235396 0.34186) 10355
(-0.0153842 -0.0106388 0.333188) 10323
(0.00857359 -0.0181753 0.294739) 6040
(-0.0085739 -0.017444 0.319264) 10395
(-0.019517 -0.00239477 0.340934) 10356
(-0.00145733 -0.0156688 0.326442) 10466
(-0.00961141 0.0162711 0.312987) 6879
(-0.00237518 -0.0161383 0.329002) 10459
(-0.0188693 -0.00437472 0.337077) 10364
(-0.00323712 -0.0157721 0.336966) 10514
(0.0114232 -0.0103349 0.304331) 3715
(-0.0190339 -0.00193031 0.343161) 10356
(0.0158361 -4.12351e-05 0.295168) 4454
(-0.0117759 0.015812 0.30809) 6887
(-0.0143536 -0.0201796 0.294622) 6001
(-0.00875817 -0.0149747 0.33813) 10506
(-0.0226959 0.000982051 0.315317) 10245
(-0.0083965 -0.0150502 0.339216) 10506
(-0.0184435 -0.00492336 0.338269) 10363
(-0.0201261 -0.00135136 0.331717) 10300
(-0.0188139 -0.00417668 0.336037) 10364
(-0.0189748 -0.00215998 0.340868) 10356
(0.0137407 -0.00739787 0.300599) 4438
(-0.0188628 -0.00225422 0.339026) 10355
(-0.0181956 -0.00602029 0.335788) 10363
(0.0164051 0.00361097 0.282783) 4351
(0.0159948 -0.00965926 0.281923) 4327
(-0.0112908 0.0157935 0.31346) 6887
(-0.0189527 -0.00277618 0.338891) 10364
(-0.0188573 -0.000990736 0.33381) 10355
(-0.00317751 -0.0216637 0.292755) 5960
(0.0165895 -0.0161601 0.272577) 4264
(-0.0227704 0.00333816 0.310627) 5289
(-0.00699932 0.0182892 0.30049) 6815
(-0.00109907 -0.0185642 0.309128) 6079
(-0.0143899 -0.0192949 0.29359) 5945
(-0.00890657 -0.0172109 0.316493) 10395
(-0.0144859 -0.0134023 0.335297) 10378
(-0.0194737 -0.0017394 0.337961) 10356
(-0.00259144 -0.020944 0.296922) 6024
(-0.0190242 -0.00380181 0.327546) 10308
(-0.00956962 -0.017134 0.315682) 10395
(-0.0178384 0.0141103 0.301438) 5216
(0.0116213 -0.0142209 0.292494) 5990
(0.0129974 -0.0110203 0.298302) 4430
(-0.00659187 -0.0183556 0.313539) 10403
(-0.00382785 -0.0189822 0.308854) 6072
(0.00601253 -0.0151188 0.313385) 6086
(-0.0185259 -0.00476276 0.337278) 10363
(0.00661108 -0.0147797 0.315681) 10426
(0.0151666 -0.0143536 0.279279) 4319
(-0.0199023 -0.00285931 0.335697) 10364
(-0.0154491 -0.0106822 0.325843) 10323
(0.00512301 -0.0155359 0.314013) 10418
(-0.0153024 -0.0104679 0.326657) 10315
(0.014146 -0.00170964 0.298814) 4454
(-0.0151332 -0.0149857 0.315535) 10267
(-0.00560097 -0.0158115 0.338903) 10515
(0.0110942 -0.0100919 0.308911) 3715
(-0.0189901 -0.00213313 0.338397) 10356
(-0.0189795 -0.0021184 0.337335) 10356
(-0.018442 -0.00680656 0.327196) 10307
(0.0115844 -0.0207439 0.266596) 5873
(-0.0196855 -0.00227744 0.33438) 10356
(0.00536154 -0.022879 0.27171) 5865
(-0.0188158 -0.00279968 0.33869) 10363
(-0.0205774 -0.0110251 0.297636) 5257
(0.0152641 0.004738 0.29045) 4406
(-0.0109841 0.0166708 0.300451) 6823
(-0.00579992 -0.0157353 0.338975) 10515
(-0.0132961 -0.0166867 0.304707) 6055
(-0.0217715 -0.0120689 0.291706) 5201
(0.00723226 -0.0140224 0.311066) 6094
(-0.0189481 -0.00262862 0.337461) 10364
(-0.0197024 0.0168297 0.279286) 5105
(0.0126656 -0.00792681 0.303392) 3673
(-0.0123734 -0.014014 0.334185) 10498
(-0.00767302 -0.0151205 0.336057) 10506
(-0.00320697 -0.021964 0.28721) 5961
(-0.0193227 -0.0102155 0.306694) 5312
(-0.00304931 -0.0156587 0.325235) 10458
(-0.0137 0.0177571 0.287382) 6776
(-0.0228044 -0.00782032 0.29508) 5249
(-0.0197837 -0.00230074 0.3342) 10356
(-0.00655689 -0.0211812 0.288615) 5960
(-0.00911355 -0.0178123 0.308487) 6063
(0.0117678 -0.0196421 0.268206) 5872
(-0.0126918 -0.0170676 0.305437) 6055
(-0.0165753 0.0138569 0.304422) 5271
(-0.0206112 0.00690774 0.310847) 5288
(-0.00930784 -0.0212038 0.29009) 5953
(0.0127039 -0.00843053 0.302482) 3673
(-0.0117167 -0.0140349 0.337765) 10498
(0.014075 -0.00754329 0.293818) 4438
(0.00674404 -0.0144796 0.314284) 10426
(-0.011429 0.0153451 0.31125) 6887
(-0.0216656 0.0158879 0.276229) 5106
(-0.0194493 -0.00190281 0.334576) 10356
(-0.0193369 -0.00175739 0.332584) 10300
(-0.018794 -0.00166455 0.326281) 10299
(-0.00931643 -0.0150954 0.338217) 10506
(-0.0127808 -0.0133113 0.332638) 10442
(-0.0178066 -0.0165894 0.293854) 5264
(-0.0126777 -0.0139303 0.330495) 10442
(-0.00892909 -0.0148942 0.336559) 10506
(0.00296024 -0.0188781 0.297271) 6032
(-0.0177796 -0.00760408 0.328002) 10315
(0.013173 -0.00941659 0.297515) 4430
(-0.00774028 -0.0151189 0.334494) 10506
(-0.0182125 -0.00791409 0.319482) 10259
(-0.00765642 -0.0151474 0.334248) 10506
(-0.0150916 0.0193586 0.276234) 6721
(-8.66525e-05 -0.0167149 0.314083) 10411
(-0.0157878 -0.0147448 0.307604) 5319
(0.00789597 -0.0127331 0.307437) 3714
(-0.0116082 0.0150228 0.315114) 10603
(0.00614455 -0.0147485 0.312281) 6094
(-0.0148687 0.0124439 0.314766) 10218
(-0.022025 0.000898113 0.310668) 5297