/*--------------------------------*- C++ -*----------------------------------*\
| =========                 |                                                 |
| \\      /  F ield         | OpenFOAM: The Open Source CFD Toolbox           |
|  \\    /   O peration     | Version:  plus.master.MPPICInterFoam            |
|   \\  /    A nd           | Web:      www.OpenFOAM.com                      |
|    \\/     M anipulation  |                                                 |
\*---------------------------------------------------------------------------*/
FoamFile
{
    version     2.0;
    format      ascii;
    class       vectorField;
    location    "3.2/lagrangian/kinematicCloud";
    object      UCorrect;
}
// * * * * * * * * * * * * * * * * * * * * * * * * * * * * * * * * * * * * * //


1834
(
(0.00251033 -0.000925807 2.83783e-05)
(-8.14263e-06 -7.18337e-06 6.84946e-06)
(0.00480288 -0.00467597 0.00125406)
(0.00199973 -0.00544558 0.00149548)
(-0.000242438 0.000212216 2.15022e-07)
(0.00498469 -0.00449416 0.00105881)
(-0.00113753 0.000248126 -4.73693e-05)
(0.00372939 2.06191e-05 2.30561e-05)
(0.0130041 -0.00151704 1.72079e-05)
(-2.03605e-05 0.000273266 -8.58079e-07)
(8.05087e-05 4.47227e-05 -7.4227e-06)
(8.14242e-05 4.25351e-05 -7.4227e-06)
(-0.0035674 0.00176705 1.99167e-05)
(0.00119546 0.000385457 -7.49027e-08)
(-9.45121e-05 7.13764e-05 -0.000299876)
(-6.56094e-06 -3.97709e-07 1.9148e-07)
(0.00152278 0.000508334 -7.49027e-08)
(0.000624847 -0.000395598 8.3195e-07)
(-0.000478124 -0.000364242 0.000199975)
(5.27906e-08 6.83831e-06 1.16338e-05)
(0.00372939 2.00748e-05 2.30561e-05)
(0.010583 -0.00402125 5.82153e-06)
(-2.80876e-05 1.31676e-05 2.99562e-07)
(0.0157244 -5.50564e-06 2.30561e-05)
(-0.000242438 0.000212216 -2.18656e-07)
(-0.00344583 0.000554417 -3.50263e-06)
(-6.60215e-06 3.15419e-08 7.13795e-08)
(-0.00344583 5.26528e-05 -3.50263e-06)
(5.03243e-05 0.000463994 -5.38835e-06)
(-0.00113753 0.000248126 -0.000163085)
(-5.09043e-05 -0.00014348 0.000149424)
(0.000471401 -0.000238506 1.19466e-09)
(0.0026091 2.18312e-05 -2.97653e-08)
(0.000100948 1.07319e-06 1.5506e-06)
(3.94377e-07 -1.50452e-07 -1.42059e-05)
(-0.000162068 1.3982e-05 1.14448e-06)
(0.00106202 -0.000427678 8.52219e-06)
(7.53642e-05 0.00137521 0.000670741)
(0.000236997 0.000513104 3.91079e-05)
(-4.56956e-07 -1.44747e-05 1.94653e-06)
(-0.000645291 0.000169871 -0.000314907)
(-9.1453e-06 0.000156444 -4.04703e-07)
(5.06488e-06 -1.48416e-05 2.11404e-07)
(-5.25114e-06 6.23903e-06 2.17355e-06)
(1.93619e-05 -1.51553e-06 4.96765e-06)
(-7.64817e-08 8.90809e-09 -1.35857e-07)
(-7.4065e-05 0.000189192 1.70228e-05)
(0.000362479 0.000427031 0.000421139)
(-0.00138069 0.00120209 0.000558876)
(0.00145435 2.80584e-05 -1.03061e-05)
(-3.68388e-05 0.000111501 -6.01623e-06)
(0.00251033 -0.000925807 2.5362e-05)
(0.00473273 -0.00196029 5.18877e-06)
(0.000398032 -0.00125608 -3.04456e-06)
(0.00140529 0.000197477 9.97046e-07)
(-0.000772288 0.00130311 2.67399e-06)
(8.90844e-05 -4.60227e-05 -0.000128882)
(-1.257e-05 1.72013e-06 6.8996e-07)
(-0.000963208 -0.00242963 -3.27455e-06)
(0.00973007 -0.00072429 -1.57092e-06)
(-0.00205982 -0.00356044 -2.62451e-06)
(0.00264645 -0.000950228 -0.000300601)
(0.00893422 2.80584e-05 -1.05481e-05)
(0.00399644 0.00354585 2.64301e-06)
(0.00187215 0.000186201 -3.08381e-06)
(0.000114612 0.00311126 3.22561e-06)
(0.00499782 -0.000400753 -0.00121436)
(6.02699e-07 1.37862e-06 -8.89306e-07)
(-4.07608e-06 1.9709e-05 2.13302e-06)
(3.49267e-05 -9.02303e-05 7.4512e-07)
(-0.000111985 0.00342604 -3.50263e-06)
(0.000151123 -0.00018485 -2.75804e-05)
(-0.000349141 0.00123288 2.67399e-06)
(0.00188637 3.80686e-05 -8.47419e-06)
(0.00720615 -0.0036432 1.4419e-05)
(1.43102e-05 -1.08079e-05 -4.8878e-07)
(-8.19657e-05 -6.22068e-05 -2.63399e-07)
(-8.38786e-06 6.17732e-05 -8.66647e-06)
(0.00498469 -0.00449416 0.000141019)
(0.00372939 2.03781e-05 2.30561e-05)
(0.00107457 -0.000296946 1.72866e-05)
(-0.000535888 0.00126388 2.67399e-06)
(9.36384e-05 0.00015258 1.51838e-06)
(-0.000155667 0.000827656 1.51838e-06)
(9.21345e-05 -0.000974083 5.44007e-06)
(0.00349501 -0.00810598 0.00149548)
(0.00981356 -0.00393511 5.82153e-06)
(-4.92525e-05 1.14763e-05 8.64907e-08)
(-3.42922e-05 1.62003e-05 -0.00175602)
(-0.00108532 0.00010677 5.57899e-08)
(-0.00131992 0.00139401 2.67399e-06)
(0.00106202 -0.000427678 2.86728e-05)
(-0.00127319 0.00403706 2.13586e-05)
(0.00305035 0.000475488 8.10106e-06)
(0.0026172 -0.00315922 3.58327e-06)
(4.89072e-05 -2.5323e-05 -4.14534e-06)
(-0.00255653 -0.000404691 -6.13988e-05)
(0.000889343 -0.00032438 8.3195e-07)
(0.00208275 7.23626e-05 -2.97653e-08)
(3.36458e-05 -1.84196e-05 1.84172e-05)
(-0.00437586 -0.000535867 -4.94266e-06)
(-0.00207962 0.00152011 2.67399e-06)
(-8.14263e-06 -7.18337e-06 5.23696e-06)
(0.00720615 -0.0036432 1.6179e-05)
(-6.41013e-06 -1.73353e-05 2.35204e-06)
(-1.83615e-05 3.03549e-06 3.40349e-07)
(-0.00070982 0.00216427 9.62848e-07)
(-1.13147e-05 -1.62398e-05 2.08645e-09)
(0.000425124 -0.00124721 -3.04456e-06)
(-2.00714e-05 -1.01441e-05 1.74135e-06)
(-0.000156556 0.00121605 0.000353379)
(0.00107129 -0.000331086 1.72866e-05)
(0.00353415 0.000502745 8.10106e-06)
(0.00213357 0.00333729 2.64301e-06)
(-5.27513e-05 -2.17117e-06 -3.76867e-07)
(-4.97245e-06 5.12271e-07 4.95457e-06)
(-0.000602363 0.0032473 7.8031e-06)
(2.13537e-06 2.24723e-06 -8.89306e-07)
(1.32142e-05 -2.24605e-05 -9.3219e-06)
(0.00049284 8.51493e-05 -8.896e-07)
(1.52541e-05 -3.21315e-05 -4.14534e-06)
(1.32142e-05 -2.24605e-05 -9.59917e-06)
(-2.60658e-07 -1.44747e-05 1.94653e-06)
(0.0117298 -0.00414965 5.82153e-06)
(-8.01588e-06 -6.58685e-05 -4.3022e-06)
(-0.00127319 0.00403706 2.03655e-05)
(0.00372939 -2.9221e-05 2.30561e-05)
(-0.00461728 0.00120474 -5.38835e-06)
(-0.0035674 0.00176705 -5.69558e-06)
(1.05572e-05 5.16243e-06 -1.69709e-05)
(0.000419875 0.0016713 3.94918e-06)
(-0.00165312 -0.00266248 3.52572e-06)
(-0.00131328 -0.000447143 6.07886e-06)
(0.00251033 -0.000925807 2.87307e-05)
(0.00720615 -0.0036432 1.52046e-05)
(0.00500273 -0.00544558 0.000558629)
(0.00500273 -0.00544558 0.000386312)
(-9.45608e-05 -0.000356558 1.46037e-06)
(-0.00312593 -0.001344 -1.9516e-06)
(-0.00189523 -0.000529097 -4.94266e-06)
(0.00016615 0.000589468 -0.000131912)
(0.0018657 -0.00215697 0.00101462)
(0.00439924 -0.00422172 -9.56551e-07)
(6.01327e-05 -0.000100847 -9.10643e-07)
(1.32142e-05 -2.24605e-05 -9.42536e-06)
(2.34376e-05 3.14624e-05 -1.23992e-06)
(0.000534164 0.000333722 1.17787e-05)
(-0.000173079 0.00146 1.51838e-06)
(-0.00127319 0.00854753 3.80193e-05)
(0.00720615 -0.0036432 -5.71207e-06)
(-4.08844e-05 0.000110858 -6.4639e-05)
(6.14654e-06 -1.52815e-05 3.40349e-07)
(1.32142e-05 -2.24605e-05 -9.5638e-06)
(0.0115264 3.80686e-05 -3.08381e-06)
(0.00429047 -0.00670237 0.00149548)
(1.94389e-06 -7.68732e-06 -6.41256e-06)
(1.49557e-05 -3.24299e-05 -4.14534e-06)
(0.00433474 0.00198377 6.17866e-07)
(0.00372939 2.08578e-05 2.30561e-05)
(-0.00046664 -0.001476 3.71225e-06)
(0.0026036 -0.000170902 -0.000328058)
(0.00049142 9.22662e-05 3.48731e-10)
(-0.000572282 0.00342604 -3.50263e-06)
(0.00372939 -3.33456e-05 2.30561e-05)
(0.00145435 2.80584e-05 -1.0283e-05)
(0.000184233 -0.00173101 -6.01511e-05)
(0.00256368 -0.000370124 1.72079e-05)
(-9.08282e-05 0.00342604 -3.50263e-06)
(-0.000373022 0.00226625 -4.86365e-06)
(-0.00462174 0.00118999 -5.38835e-06)
(0.00434732 -0.00427365 -9.56551e-07)
(0.00617755 -0.000803593 0.000910233)
(0.00789924 0.00109393 1.02925e-05)
(0.000151175 2.33699e-05 0.000618641)
(-0.000339733 0.00118433 0.000353379)
(-0.00724791 0.000734988 -5.38835e-06)
(-8.10202e-06 -2.01252e-05 -0.00175602)
(4.30523e-07 4.17347e-06 -5.92638e-06)
(0.00251033 -0.000925807 2.70413e-05)
(-0.000906666 0.000763212 3.80193e-05)
(0.00204172 -0.0123074 7.06331e-06)
(-1.92573e-06 -6.59048e-06 2.59543e-10)
(-1.13514e-06 3.38495e-06 -1.66554e-05)
(0.00470969 0.00419908 -2.58164e-06)
(-4.80907e-05 0.000153288 -0.000454433)
(3.4651e-06 3.46978e-05 2.30815e-10)
(7.20886e-06 -4.22925e-05 -1.08075e-05)
(1.32142e-05 -2.24605e-05 -9.42454e-06)
(2.5884e-05 -2.15016e-05 -7.01843e-06)
(-0.000373022 0.00226625 -5.52574e-06)
(-5.3913e-05 2.14913e-05 -0.00175602)
(0.00783294 0.00109019 1.02925e-05)
(0.00257637 -0.000237908 1.72079e-05)
(0.00251033 -0.000925807 5.19263e-06)
(-1.13439e-05 1.52521e-06 6.8996e-07)
(0.00255933 -0.000415355 1.72079e-05)
(-0.00475952 0.000734988 1.24153e-06)
(1.32142e-05 -2.24605e-05 -1.0398e-05)
(-3.3868e-05 1.01966e-05 3.85921e-07)
(1.32142e-05 -2.24605e-05 -1.04197e-05)
(0.00078696 -0.00034367 4.00699e-09)
(-0.00344583 0.000412207 -3.50263e-06)
(0.00523159 0.000639589 2.29685e-06)
(-0.00212207 0.00119169 0.000107519)
(0.00912533 3.80686e-05 -3.08381e-06)
(1.32142e-05 -2.24605e-05 -9.60795e-06)
(0.000472064 -0.000121105 4.00699e-09)
(-0.00600289 -0.000658286 3.4569e-06)
(0.000228442 -0.00231415 0.000636117)
(8.46102e-06 6.52104e-05 -3.53638e-06)
(-0.00127319 0.00403706 5.16966e-05)
(-1.63129e-05 1.00559e-05 -2.78754e-06)
(0.00720615 -0.0036432 1.60162e-05)
(4.96583e-05 0.000131342 1.65094e-05)
(2.91163e-06 -3.48291e-06 1.2571e-06)
(0.000317675 4.86076e-05 -2.97653e-08)
(0.00372939 -5.50564e-06 2.89318e-05)
(-5.27385e-06 -5.57662e-06 4.27352e-05)
(0.00186913 -0.000141459 -3.08381e-06)
(-0.000828253 -0.00247049 -3.27455e-06)
(0.00257623 -0.000239385 1.72079e-05)
(0.00720615 -0.0036432 -2.7474e-06)
(0.00253604 -0.000658028 1.72079e-05)
(-0.00127319 0.00403706 5.80641e-05)
(0.0018706 -0.000126156 -3.08381e-06)
(-3.59521e-05 0.000143979 3.21814e-10)
(-0.00465404 0.00108333 -5.38835e-06)
(0.00256234 -0.00038406 1.72079e-05)
(6.57117e-06 1.35724e-06 -2.65419e-10)
(-0.00572204 0.000104107 -0.0021917)
(-0.00572204 9.75867e-06 -0.000733297)
(-0.00594089 -0.00130409 1.64006e-05)
(-0.00572204 8.14198e-05 -0.0021917)
(-0.00475952 0.000734988 -5.46744e-07)
(-0.00694937 0.000734988 -5.38835e-06)
(-0.00475952 0.000734988 8.81583e-07)
(-4.11441e-05 5.1706e-05 -2.19233e-05)
(0.00255847 -0.000424372 1.72079e-05)
(-0.00428621 0.000661627 -1.50205e-05)
(0.000151175 7.52733e-05 0.000872477)
(0.0019112 0.000756553 8.19641e-06)
(0.00170899 3.92555e-05 -1.95213e-06)
(-0.00061264 0.00162113 0.000321472)
(-0.00131565 -0.000496442 -4.94266e-06)
(7.62261e-06 -9.45333e-07 -2.95963e-05)
(0.00165348 -0.00541358 -1.15089e-05)
(-0.00581588 -0.00171693 3.4569e-06)
(-2.81915e-05 1.29842e-05 8.15556e-07)
(-0.00469986 0.000932012 -5.38835e-06)
(-5.56926e-07 1.46673e-06 5.69483e-07)
(-6.43305e-05 2.36072e-05 -5.26352e-07)
(-0.00172077 0.000232783 0.000477863)
(-0.00572204 7.79687e-05 -0.0021917)
(0.00720615 -0.0036432 -8.78428e-06)
(0.00187002 -0.000132261 -3.08381e-06)
(-2.00265e-05 -1.45745e-05 5.49159e-07)
(0.000528416 0.00219082 -2.58164e-06)
(-0.00572204 9.75867e-06 -0.00143279)
(0.00187035 -0.000128824 -3.08381e-06)
(2.74e-05 1.73392e-05 6.71313e-07)
(-0.00250809 0.00057535 -1.26174e-06)
(-8.65785e-06 -1.65175e-05 8.15816e-10)
(-0.00572204 5.87061e-05 -0.0021917)
(-0.00148398 0.000448047 -1.30815e-06)
(0.00604103 -0.0106226 -0.00123129)
(0.00193516 0.000507033 1.02925e-05)
(-0.000564089 -0.000234841 -3.04464e-05)
(-0.00572204 9.75867e-06 -0.00112751)
(0.00144982 -1.91348e-05 -1.05481e-05)
(9.0094e-08 6.92865e-06 -0.00306798)
(0.00433474 0.00198377 -4.90199e-06)
(-0.00572204 9.75867e-06 -0.000905299)
(0.00174005 -0.00925771 7.06331e-06)
(-0.000708624 0.000131907 -6.31625e-05)
(-9.69537e-06 -9.03367e-06 -1.41529e-05)
(0.0019112 0.000756553 8.64758e-06)
(-0.00572204 7.64188e-05 -0.0021917)
(4.78461e-05 -2.59544e-06 -0.00175602)
(-1.289e-06 -4.82465e-07 1.92835e-06)
(0.00112452 -0.00244354 -3.04456e-06)
(-0.00864533 9.75867e-06 -0.0021917)
(9.40175e-05 -9.06028e-05 -0.000783687)
(0.000920306 0.000896634 -2.58164e-06)
(-0.00202571 0.00441391 -6.34268e-06)
(-0.00572204 6.31425e-05 -0.0021917)
(4.13883e-08 4.63735e-08 3.72851e-07)
(0.00146565 -0.00648363 1.39438e-05)
(-0.00572204 9.75867e-06 -0.00108804)
(-1.74957e-06 -6.64382e-06 2.20243e-09)
(-1.28444e-05 -3.98781e-06 -2.20919e-09)
(1.06874e-05 -4.00642e-05 -6.11542e-06)
(-1.187e-05 -7.80125e-06 -8.86993e-06)
(2.14984e-06 4.45821e-06 -5.247e-06)
(0.000627156 -0.000161095 -0.000783687)
(0.00402493 -0.00661464 0.00080459)
(-0.000415352 0.000894525 -1.14907e-06)
(-0.00126334 0.00279783 -6.34268e-06)
(-0.00647007 0.000734988 -5.38835e-06)
(-0.00428621 0.000661627 -1.52365e-05)
(-0.00286612 0.00129804 2.56976e-07)
(-0.00147896 0.0103265 -6.34268e-06)
(-0.00127319 0.00403706 5.34934e-05)
(-0.00594089 -0.00130409 1.53852e-05)
(-1.47088e-05 -6.10267e-06 -2.49379e-05)
(-0.000297384 0.000678179 7.40688e-07)
(-0.00572204 -0.000103488 -0.0021917)
(0.00194574 -0.00279145 2.03083e-06)
(-3.48088e-06 -1.71961e-06 8.49443e-07)
(-0.00211558 0.00436298 -6.34268e-06)
(0.000691496 -0.00239888 -2.23509e-06)
(-0.00124519 -0.00068322 3.4569e-06)
(-0.00771058 9.75867e-06 -0.0021917)
(-0.00234814 -0.000985075 6.63396e-07)
(-0.00594089 -0.00130409 1.18559e-05)
(0.00146307 -0.000714223 -0.000558438)
(0.0019112 0.000756553 8.63255e-06)
(-0.000475365 -0.00204554 -3.4369e-09)
(0.00447459 0.00344044 -1.00053e-06)
(6.63656e-06 3.64688e-08 -1.52256e-06)
(-0.000514557 -0.000586616 3.4569e-06)
(0.000167774 -0.00014079 5.44007e-06)
(0.00240183 -0.000353945 2.03083e-06)
(2.20107e-06 -2.60473e-06 -8.57166e-06)
(8.46724e-07 5.53456e-06 3.32617e-07)
(-0.011194 9.75867e-06 -0.0021917)
(0.00131737 0.000218578 -0.00121436)
(-2.07377e-05 0.00138655 0.00140344)
(-0.00147896 0.00709079 -6.34268e-06)
(-0.00201024 -0.000978849 -2.54356e-06)
(-0.00475952 0.000734988 -1.14321e-05)
(-0.00106745 0.00104805 -6.34268e-06)
(-9.75563e-05 -0.000161416 -3.93297e-06)
(-0.00572204 9.75867e-06 -0.00313949)
(-0.00147896 0.00472377 -6.20845e-05)
(-0.000741686 -0.000186304 0.00103065)
(-0.00475952 0.000734988 -1.00585e-05)
(0.00073308 0.000755968 -1.03812e-09)
(-0.0021439 0.00434693 -6.34268e-06)
(1.93619e-05 -6.57697e-06 4.96765e-06)
(3.45709e-08 4.74312e-08 2.9167e-05)
(-0.000602363 0.0032473 5.75863e-06)
(1.04954e-05 2.01602e-05 1.59513e-09)
(0.0067518 0.00297707 2.13858e-06)
(0.00145435 2.80584e-05 -1.08477e-05)
(-0.0010718 0.00108696 -6.34268e-06)
(-0.00475952 0.000734988 -1.25119e-05)
(-7.52058e-06 -1.85242e-05 8.15816e-10)
(0.000351726 -0.00514218 8.37389e-06)
(-0.000757935 -0.000381732 -0.000208059)
(-0.00436316 -0.000668143 7.72811e-06)
(2.99665e-06 -4.39125e-05 8.15816e-10)
(0.00146565 -0.00648363 -5.68021e-06)
(-0.00250809 0.00057535 -0.000155139)
(-0.00572204 9.75867e-06 -0.00361103)
(-0.00147896 0.00472377 -5.32135e-05)
(-0.00206138 0.00439369 -6.34268e-06)
(-0.000823693 -0.00062749 3.4569e-06)
(-0.0021544 0.00434098 -6.34268e-06)
(0.0001617 -0.00088379 -1.89897e-06)
(-3.39678e-05 -7.846e-05 -8.87147e-06)
(0.00187907 -0.00282924 2.03083e-06)
(-2.05293e-05 -1.00751e-06 4.70655e-05)
(-4.97245e-06 5.12271e-07 -3.35679e-06)
(0.00253403 -0.000257511 3.94918e-06)
(-6.41294e-05 4.92712e-06 -1.59707e-07)
(-0.00209061 -0.000713434 -1.9516e-06)
(0.00126569 -0.00553101 -8.73796e-06)
(0.000975244 -0.000252866 -3.4369e-09)
(-0.000429182 0.000173546 -5.66649e-07)
(-0.00428621 0.000661627 -1.48834e-05)
(-0.000195273 -0.000545639 2.8114e-07)
(0.0012066 -0.0065085 7.06331e-06)
(-0.00125644 0.00273616 -6.34268e-06)
(-2.27534e-06 -1.74992e-07 -3.40496e-06)
(0.0030965 -0.00363277 -0.000203202)
(2.69626e-06 -2.75468e-06 -8.57166e-06)
(-3.50593e-05 2.26062e-05 2.49547e-09)
(-1.89941e-06 1.17624e-05 2.17936e-05)
(-8.87982e-07 -1.63864e-05 -3.9375e-05)
(-2.71617e-05 -8.05209e-05 -6.36537e-06)
(0.000513164 -0.00278132 6.63396e-07)
(0.00622814 -0.00075301 0.000910233)
(-0.000991346 -0.000649657 3.4569e-06)
(0.00270485 -0.00026186 -0.000783687)
(-0.0041908 0.000976691 -1.18405e-05)
(1.74512e-05 -7.22258e-06 -4.68508e-06)
(0.00031912 0.000538562 -0.000303371)
(-0.00147896 0.00835023 -6.34268e-06)
(-2.70436e-05 -1.55027e-06 -8.32404e-06)
(-0.00114491 -0.00237461 -2.87283e-06)
(-3.39678e-05 -7.846e-05 -7.61102e-06)
(-1.4348e-05 1.30788e-05 1.70025e-07)
(-1.49572e-06 4.65269e-06 1.30232e-06)
(-1.2321e-05 -1.24671e-06 -3.39729e-06)
(-7.79612e-05 -5.39184e-05 2.0799e-07)
(5.40071e-06 2.83536e-06 0.000467207)
(-0.00437495 -0.000545323 -4.94266e-06)
(3.14732e-06 -8.36934e-06 -4.18758e-06)
(0.00194619 -0.00633812 7.06331e-06)
(-0.0081454 9.75867e-06 -0.0021917)
(0.000188311 -0.000242424 7.49559e-07)
(3.902e-05 -5.48329e-05 -7.0773e-09)
(-0.00147896 0.00472377 -6.37057e-05)
(0.000255874 -0.000855274 -1.89897e-06)
(-8.22872e-06 -4.01026e-06 -0.000601843)
(-4.23078e-07 1.32972e-06 2.32323e-06)
(-8.48371e-06 0.00142901 -2.16967e-05)
(-2.69211e-05 -3.56784e-06 -2.3839e-06)
(0.00259691 -0.000238559 -0.00121436)
(0.00437654 -0.000215459 -1.57092e-06)
(-5.75798e-05 0.000133702 -3.67211e-07)
(0.00405609 -0.000960131 3.71331e-06)
(0.0026036 -0.000170902 -0.00226022)
(-0.0010122 0.00055457 -6.34268e-06)
(-3.67194e-06 -1.0046e-05 -1.051e-07)
(-0.00104521 -0.000521428 -5.81878e-06)
(-0.00046485 -0.000190233 2.91612e-06)
(-2.70436e-05 -1.55027e-06 -4.37842e-06)
(-2.70436e-05 -1.55027e-06 -9.19997e-06)
(-0.00111394 0.000196728 0.000618641)
(-2.47119e-05 1.09727e-05 8.19803e-06)
(-6.00044e-06 3.12468e-05 1.92835e-06)
(-0.00840824 0.000661627 -1.18405e-05)
(2.14984e-06 4.45821e-06 -6.18073e-06)
(-8.3356e-05 3.07033e-05 -0.000113232)
(1.55803e-05 -0.00025729 -1.27018e-05)
(-0.00306118 0.000953855 -9.84549e-06)
(0.00135146 0.000130282 -1.93639e-09)
(0.00269056 -0.000289419 -2.58941e-06)
(-0.00147896 0.00472377 -4.01414e-05)
(0.00101054 0.000338813 3.71331e-06)
(8.31624e-07 5.59055e-06 -6.23436e-07)
(-2.61358e-07 -6.30871e-07 -7.02319e-09)
(-7.9428e-06 -9.16328e-06 0.000866047)
(3.32592e-05 3.13654e-07 -0.00175602)
(-2.17873e-05 -1.94902e-05 -1.0457e-05)
(-0.000920652 0.00107764 8.69498e-05)
(-0.00147896 0.00472377 -3.39611e-05)
(1.22222e-05 -7.61165e-06 6.63442e-06)
(0.00245525 -0.00051766 3.94918e-06)
(0.000377869 -0.0017131 0.000902361)
(-0.00147896 0.00472377 -3.2881e-05)
(-0.00437978 -0.000494955 -4.94266e-06)
(1.74512e-05 -7.22258e-06 -4.8632e-06)
(-3.42422e-06 2.341e-05 -9.5497e-07)
(-4.39228e-05 -7.28182e-05 -6.36537e-06)
(-0.00437607 -0.000533669 -4.94266e-06)
(-0.00147896 0.00472377 -3.94982e-05)
(0.000997819 0.000342105 -0.000303371)
(-4.16388e-06 -2.129e-05 -1.32088e-06)
(-0.00418808 0.00098569 -1.18405e-05)
(-8.51588e-05 5.72335e-05 -1.70369e-05)
(-0.00307161 0.000919414 2.56976e-07)
(-0.00183968 0.00209171 -1.90858e-06)
(0.000565324 0.000106858 -0.000318896)
(0.000565324 0.000106858 -6.1107e-05)
(-5.94852e-06 1.395e-05 1.48473e-07)
(-2.31729e-05 -1.45107e-05 2.34816e-06)
(0.00341144 0.00195424 2.13858e-06)
(-5.91713e-05 4.74989e-05 -3.11859e-06)
(0.000244329 -0.000248571 -0.000518664)
(-0.00110881 -0.00526832 -3.23479e-06)
(-0.00147896 0.00472377 -4.27355e-05)
(-0.00125998 7.77656e-05 4.06928e-07)
(-1.26171e-05 2.79414e-05 1.70025e-07)
(1.06874e-05 -4.23041e-05 -6.11542e-06)
(-0.00437113 -0.000585065 -4.94266e-06)
(-0.000988878 0.000346238 -6.34268e-06)
(0.000260642 0.00118777 -2.46103e-05)
(-2.05318e-05 -0.00517792 1.05121e-05)
(-4.01273e-05 -7.01437e-06 1.69807e-05)
(-0.00306118 0.000953855 -5.83678e-06)
(-9.36636e-05 -8.20237e-05 3.71369e-06)
(-0.00278219 -0.000669389 -1.27018e-05)
(-0.00105756 0.000959711 -6.34268e-06)
(-2.69211e-05 -3.56784e-06 -4.08618e-06)
(1.06874e-05 -2.72951e-05 -6.11542e-06)
(0.00146565 -0.00648363 -8.25361e-06)
(-3.20496e-05 -2.08471e-05 8.19803e-06)
(-0.00147896 0.00472377 -6.6571e-05)
(0.0031989 -0.00486972 -9.56551e-07)
(-0.00263865 -0.00264283 -2.13082e-06)
(-0.00160263 0.000896543 1.27472e-06)
(-8.73315e-06 -2.22095e-05 -0.00175602)
(-3.17163e-05 -2.16809e-06 -5.87095e-06)
(0.0018657 -0.00215697 0.000267405)
(3.80638e-07 2.83536e-06 2.54665e-05)
(-2.07377e-05 0.0038946 0.000429022)
(-7.9428e-06 0.00213288 5.63564e-05)
(-0.00414421 0.00113058 -1.18405e-05)
(-0.000382047 -0.00514321 8.37389e-06)
(-2.15064e-05 -3.83287e-05 1.61279e-06)
(-0.0026321 0.00186711 -0.000670443)
(-3.85489e-06 1.02793e-05 -1.51576e-06)
(-4.69664e-07 -5.29271e-06 -5.08039e-06)
(-8.40753e-07 -1.54122e-06 -5.08039e-06)
(-0.0026428 -0.00263867 -2.13082e-06)
(5.1307e-05 2.37861e-05 1.69791e-05)
(0.00118081 -0.00402445 -1.15089e-05)
(-2.17873e-05 -1.94902e-05 2.40972e-05)
(6.0303e-08 6.92068e-08 -1.4611e-06)
(0.000671104 -0.00124232 2.57536e-06)
(0.000377869 -0.0017131 0.000973572)
(0.000624564 0.00844071 -7.56419e-06)
(7.21597e-06 -2.797e-05 0.000833229)
(-2.29518e-05 -7.36083e-06 8.19803e-06)
(-0.000328219 0.00205901 -6.29531e-06)
(-2.84302e-05 -0.000110154 -9.67702e-05)
(0.0087871 -0.00520478 7.9302e-07)
(-0.00428621 0.000661627 -9.0349e-06)
(-0.000448148 0.000510163 -5.66649e-07)
(-0.000265557 4.321e-05 -0.000296713)
(0.00242211 -0.00482274 -0.00104824)
(1.68491e-05 -0.000322737 -4.96847e-05)
(-0.00655154 0.000661627 -1.18405e-05)
(0.00111805 -0.00353489 7.9302e-07)
(0.000203834 -0.000244565 -0.000518664)
(-4.28965e-05 -7.33998e-05 -6.36537e-06)
(0.00400267 -0.00656088 -0.00123129)
(-0.000508382 -0.00513108 8.37389e-06)
(-3.6682e-06 4.26464e-06 -2.20919e-09)
(-2.17537e-05 -0.000112176 -0.00110838)
(0.00483111 -0.00562157 -1.04308e-07)
(0.00243797 -0.000470153 3.60227e-06)
(-0.000115714 -0.00036322 -1.83278e-06)
(-5.57921e-06 -1.05127e-06 1.15008e-05)
(-2.7524e-06 -2.1184e-05 -1.53213e-06)
(-0.00148347 -0.00018827 -1.02642e-06)
(2.27635e-06 -2.31507e-05 1.20025e-06)
(0.00357209 -0.000534856 -1.00053e-06)
(-7.9428e-06 -1.12576e-05 0.000866047)
(0.00884562 -0.00530804 7.9302e-07)
(-4.51874e-05 -7.21015e-05 -6.36537e-06)
(0.000910319 -0.00556512 -1.15089e-05)
(0.00478004 0.00257822 4.6372e-06)
(-0.000215525 5.88205e-05 3.10145e-06)
(-2.07377e-05 0.0038946 0.00261758)
(1.74512e-05 -7.22258e-06 -1.25203e-05)
(-2.30061e-06 -3.76857e-06 -6.90144e-05)
(-0.000494326 3.07033e-05 -0.000219905)
(-0.000420546 -0.00513951 8.37389e-06)
(-2.39316e-05 2.84482e-06 8.19803e-06)
(-0.000437129 0.000314598 -5.66649e-07)
(2.0805e-06 -2.14014e-05 1.20025e-06)
(6.99265e-05 0.000331689 -2.31588e-06)
(-0.00362779 0.000949758 -5.6954e-06)
(-1.13783e-07 1.27709e-06 -1.63075e-05)
(-0.00373876 0.000583288 -7.06305e-06)
(-0.00366164 0.000837947 -5.6954e-06)
(0.000913807 -0.00556479 -1.15089e-05)
(4.00408e-05 -9.39123e-06 -8.57166e-06)
(-2.22201e-06 -5.11296e-07 -2.68911e-06)
(0.000548712 -0.00102483 -9.36393e-10)
(4.20456e-06 -1.0919e-05 -0.000601843)
(1.06874e-05 -1.0309e-05 -6.11542e-06)
(7.32744e-07 -2.54604e-05 2.34816e-06)
(0.00106627 -0.00555015 -1.15089e-05)
(0.00451012 0.0024648 -9.58253e-06)
(8.11555e-06 5.30572e-06 -2.04386e-06)
(-3.82807e-07 6.01414e-07 4.93119e-06)
(0.00112327 -0.000406796 7.06331e-06)
(0.000445126 0.000426278 -7.79027e-06)
(-9.1122e-06 -2.24793e-05 -2.11236e-06)
(-0.00286768 -0.000317849 -1.27018e-05)
(-5.73207e-05 0.0042486 -7.56419e-06)
(0.00119668 -0.00170973 7.06331e-06)
(0.0030965 -0.00363277 -0.00190608)
(-0.00635884 0.000583288 -5.6954e-06)
(0.00527142 0.00171117 -4.40136e-07)
(2.06426e-05 1.47255e-05 6.63442e-06)
(-0.00103293 0.000163938 -6.9907e-07)
(-0.00181056 -0.00264376 -0.000723688)
(-7.11719e-06 1.61232e-05 1.69791e-05)
(-0.000243615 0.00051574 -0.00131519)
(5.2272e-06 -0.000152229 4.68195e-07)
(0.00524957 -0.00585422 -0.00213505)
(-3.51444e-05 0.000411116 0.000175769)
(-1.07827e-05 -5.2925e-06 1.20025e-06)
(-0.00375707 0.000392491 -5.6954e-06)
(-3.74782e-06 -1.93546e-05 5.75994e-07)
(-1.14338e-05 2.98065e-05 1.48473e-07)
(-1.97423e-07 -2.25546e-05 -3.9375e-05)
(-0.000902057 -0.00294346 -0.000814022)
(-3.3395e-06 -1.32888e-05 0.000877074)
(0.00228693 -0.00372142 0.000910233)
(1.94676e-05 0.000663762 4.6372e-06)
(1.25048e-08 7.84826e-08 -1.4611e-06)
(-1.67797e-05 -2.04934e-05 -1.92287e-06)
(1.15014e-05 -4.34025e-05 -4.6796e-06)
(-3.43786e-05 -9.39705e-07 8.92076e-07)
(-2.84302e-05 -0.000110154 -0.00197226)
(5.8986e-05 -1.85891e-05 -5.7632e-05)
(-3.20013e-05 -1.58273e-05 9.33334e-06)
(-2.05318e-05 -0.000326412 8.37389e-06)
(0.000875891 0.000468888 -7.79027e-06)
(-9.76614e-05 0.000300804 3.52593e-05)
(-2.78084e-05 5.67492e-06 -3.39729e-06)
(0.00616465 0.00178231 -7.79027e-06)
(1.06874e-05 -1.97149e-06 4.32445e-06)
(-0.00135714 -0.00280566 -0.000238569)
(0.000711541 0.000452631 -7.79027e-06)
(0.00215736 0.00109013 4.6372e-06)
(0.00639699 0.00101502 1.11324e-05)
(0.000170948 3.82562e-05 -1.52838e-05)
(-4.84385e-05 -8.91548e-06 6.97081e-08)
(-2.2347e-05 -0.000111996 -0.00110838)
(8.91261e-07 -2.99818e-06 -6.63905e-07)
(1.83911e-05 7.28993e-06 6.63442e-06)
(2.00508e-05 1.2771e-05 6.63442e-06)
(0.000922616 -0.000152344 2.82933e-06)
(5.38163e-05 -3.41765e-05 -4.6796e-06)
(0.00163871 0.000544345 -7.79027e-06)
(0.00639699 0.00101502 1.3858e-05)
(0.000964278 0.000219794 2.82933e-06)
(4.27056e-07 -9.82199e-06 7.17299e-07)
(0.00114673 -0.000127425 -4.01084e-06)
(-0.00216719 -0.00244165 -0.00144382)
(1.9427e-05 1.0711e-05 6.63442e-06)
(1.06874e-05 7.86721e-06 -6.11542e-06)
(0.00104525 -0.00161832 -1.15089e-05)
(4.79602e-08 -0.000882483 -2.37744e-05)
(-0.00185427 -0.0064678 6.58329e-06)
(0.00144525 0.00451596 3.74774e-05)
(0.00195787 0.000757441 -1.69984e-07)
(-0.00115512 -0.000321043 3.10307e-07)
(0.00178757 0.00373351 4.03449e-06)
(0.00431975 0.00152138 4.6372e-06)
(-1.98528e-05 -1.5071e-05 7.75678e-07)
(-6.50016e-06 -1.84581e-06 -3.03663e-06)
(7.19978e-07 1.01076e-05 2.95507e-06)
(1.73384e-05 -2.71929e-05 0.00138288)
(0.0060277 1.04064e-05 -1.93639e-09)
(-0.000564522 -0.00526832 -4.79949e-06)
(0.00146009 0.00176051 -4.01084e-06)
(0.00271256 -0.00133753 0.00080459)
(-5.66062e-06 -1.71028e-05 2.78545e-06)
(-2.77617e-05 0.000379501 -7.79027e-06)
(0.00089385 0.000470665 -7.79027e-06)
(0.00144525 0.00451596 3.88634e-05)
(0.000110076 -2.98283e-05 1.94283e-07)
(-9.34629e-06 -1.82596e-05 8.19803e-06)
(0.00254547 0.000341106 0.000688004)
(0.00909539 -0.00574875 7.9302e-07)
(0.00515075 -0.00722434 -1.04308e-07)
(-3.50578e-05 -3.11532e-05 2.70444e-05)
(-6.9888e-06 1.47858e-05 1.69791e-05)
(-1.4751e-05 3.78362e-05 -1.31555e-06)
(1.3359e-05 2.51616e-06 -4.03067e-06)
(-1.34524e-05 1.10875e-05 2.95507e-06)
(-9.07586e-06 -1.82329e-05 8.19803e-06)
(3.87357e-06 3.17638e-05 -0.000108465)
(-2.07377e-05 0.0038946 0.000200201)
(-7.85284e-06 2.37861e-05 1.4835e-05)
(0.00824409 1.04064e-05 -1.93639e-09)
(9.25714e-06 7.35692e-06 4.22002e-06)
(-0.000741686 -0.000186304 0.000119631)
(0.00107696 0.00122632 2.82933e-06)
(-2.57319e-06 4.20981e-06 1.07081e-07)
(0.00106314 0.00110284 2.82933e-06)
(0.000900675 0.00047134 -7.79027e-06)
(0.000222111 0.0042486 1.0602e-05)
(-8.35733e-06 -1.81618e-05 8.19803e-06)
(5.42575e-05 2.37861e-05 1.69791e-05)
(1.57795e-05 -1.33462e-06 9.16726e-06)
(0.00012843 0.00185074 0.000688004)
(0.00150958 0.000531571 -7.79027e-06)
(0.00236331 0.00228768 2.88772e-06)
(3.3274e-06 -1.77635e-07 0.00158923)
(-5.57921e-06 -1.05127e-06 1.14496e-05)
(-8.36036e-06 -1.81621e-05 8.19803e-06)
(0.000137213 0.00185074 0.000688004)
(0.00205103 -0.00027712 2.98348e-06)
(0.00042161 -0.000170468 0.000200104)
(-4.69749e-06 3.08427e-07 -5.22007e-11)
(-0.000127079 0.000379848 4.11881e-07)
(1.98296e-05 -2.12398e-06 -8.22229e-06)
(2.26156e-05 -2.03078e-05 -9.85347e-07)
(-3.20013e-05 -1.58273e-05 3.44575e-05)
(5.41039e-05 -0.0021887 -5.81417e-05)
(-7.21553e-06 1.71476e-05 1.69791e-05)
(2.66604e-07 -7.75585e-07 4.75272e-05)
(4.67256e-05 -3.48779e-05 -4.6796e-06)
(-3.20013e-05 -1.58273e-05 3.75273e-05)
(-4.51367e-05 3.91099e-05 4.89986e-07)
(1.36928e-05 -5.22923e-06 0.00242996)
(-0.000229218 -0.00526832 -4.79949e-06)
(-0.00148124 -0.00658075 -6.01678e-06)
(5.30074e-06 -4.71869e-05 0.000833229)
(-0.000626078 0.00410294 1.48954e-05)
(0.00060996 0.000442583 -7.79027e-06)
(-1.73931e-05 -8.3387e-06 -3.9375e-05)
(-0.000290913 0.000291631 1.91618e-06)
(-2.446e-05 8.34879e-06 8.19803e-06)
(0.00910069 -0.0057581 7.9302e-07)
(-0.000328219 0.00205901 1.39599e-05)
(0.00899675 -0.00557471 7.9302e-07)
(0.00135241 -9.95828e-05 -1.93639e-09)
(-3.43724e-06 -1.31911e-05 0.000877074)
(2.07887e-05 5.20144e-05 -8.57166e-06)
(-2.07377e-05 0.00577254 0.00140344)
(5.36009e-05 2.37861e-05 1.69791e-05)
(5.40577e-05 2.37861e-05 1.69791e-05)
(6.6666e-05 9.40563e-05 -8.63644e-06)
(0.000321107 -0.000355781 -9.36393e-10)
(-7.03528e-06 1.527e-05 1.69791e-05)
(-0.000199027 -0.00071576 5.67415e-07)
(0.000192121 0.000401251 -7.79027e-06)
(-0.000129168 -4.05451e-05 -8.35201e-07)
(-9.8763e-08 9.20652e-09 -3.71838e-06)
(1.23618e-05 6.46268e-06 -5.19682e-07)
(2.09454e-05 5.4796e-05 -8.57166e-06)
(-8.60599e-05 2.35957e-05 -1.08059e-05)
(-0.00163272 -0.00185794 -0.000227218)
(1.63756e-05 -3.14136e-06 -6.25928e-06)
(-8.17674e-06 -1.81439e-05 8.19803e-06)
(-6.51094e-06 4.05283e-06 5.42924e-10)
(-0.00242948 0.00230484 0.00162264)
(0.00178757 0.00373351 -1.15324e-05)
(0.00106737 0.00114064 2.82933e-06)
(-5.62681e-07 -1.76616e-05 5.55535e-10)
(1.20544e-05 -2.08912e-05 -0.000474438)
(0.000113877 0.000125524 6.5013e-06)
(0.00136423 0.000429852 -1.69984e-07)
(-0.00120329 -0.000161991 3.10307e-07)
(-7.03045e-06 1.52197e-05 1.69791e-05)
(0.00205136 -0.000274638 2.98348e-06)
(-5.05855e-05 -0.00017632 3.9636e-06)
(-4.92658e-07 -6.08914e-07 2.28307e-06)
(-9.22434e-05 3.20048e-06 -1.15838e-06)
(-3.80057e-05 7.39318e-06 -1.23227e-06)
(3.08625e-07 7.17567e-06 -5.93835e-11)
(-0.000768128 -0.000621409 -0.000814022)
(-0.000226025 0.00230484 1.51533e-05)
(0.00168846 0.00313637 -4.01084e-06)
(1.57795e-05 -1.33462e-06 3.56067e-07)
(-2.30061e-06 -3.76857e-06 -1.25449e-05)
(4.30803e-07 -3.72604e-05 4.22002e-06)
(-6.77453e-08 -2.4441e-08 -4.08272e-07)
(-7.15782e-06 1.65465e-05 1.69791e-05)
(0.000222111 0.0042486 1.52785e-05)
(0.000318844 0.00220821 -1.71448e-06)
(0.0010045 0.000579036 2.82933e-06)
(-0.00200149 0.00310895 -0.000154284)
(0.000168743 0.000688309 -0.0025949)
(-0.00200149 0.00310895 -0.000610893)
(0.00110126 0.00144335 2.82933e-06)
(-0.000427046 -5.99176e-05 -1.58076e-06)
(0.00623531 0.000717015 7.9302e-07)
(0.0013451 -0.000938367 -4.79949e-06)
(0.00144525 0.00451596 -2.71054e-05)
(0.000158413 0.000677784 -9.58253e-06)
(0.00144525 0.00451596 -2.90675e-05)
(-2.65013e-07 5.19865e-07 -1.60257e-06)
(1.06874e-05 -1.97149e-06 -1.54367e-05)
(-2.65952e-05 1.02388e-05 -2.48516e-06)
(0.000118263 2.40034e-05 2.23225e-05)
(0.00093949 -0.00285929 6.13599e-06)
(3.13076e-05 1.38018e-06 -4.98145e-06)
(0.00508507 -0.00175001 7.49559e-07)
(-3.39887e-05 1.81657e-07 -2.19562e-05)