/*--------------------------------*- C++ -*----------------------------------*\
| =========                 |                                                 |
| \\      /  F ield         | OpenFOAM: The Open Source CFD Toolbox           |
|  \\    /   O peration     | Version:  plus.master.MPPICInterFoam            |
|   \\  /    A nd           | Web:      www.OpenFOAM.com                      |
|    \\/     M anipulation  |                                                 |
\*---------------------------------------------------------------------------*/
FoamFile
{
    version     2.0;
    format      ascii;
    class       vectorField;
    location    "9.4/lagrangian/kinematicCloud";
    object      U;
}
// * * * * * * * * * * * * * * * * * * * * * * * * * * * * * * * * * * * * * //


93379
(
(-5.18239e-05 -0.00167174 -0.00130052)
(-0.000634321 0.000329548 0.000370365)
(-0.00010613 0.000190942 -0.0020923)
(-0.000241184 0.000593166 0.000438228)
(-0.000578117 0.000439105 0.00212984)
(0.000235068 0.000430633 -3.42929e-05)
(-0.000489138 0.000448782 -0.00102826)
(-0.000345568 -0.000410942 -0.000751042)
(-0.000571737 -0.000198904 0.000314274)
(-9.77317e-05 8.72575e-05 -5.94627e-05)
(0.00293263 -0.00194809 -0.00099095)
(-0.000790624 6.92652e-05 0.000845708)
(0.000857914 0.00184789 -0.00138013)
(-0.000585076 0.000332532 -0.00288204)
(-0.00030798 6.62515e-05 0.000323036)
(0.000835244 -0.000104558 0.000422717)
(0.000397424 -0.00259597 -0.000939219)
(0.000340188 -0.000523436 0.000739189)
(-0.00113097 -7.14006e-05 0.000149264)
(-0.000489579 -2.83092e-05 0.000309444)
(7.96517e-05 -1.71733e-05 -0.00162609)
(-0.000107758 0.000226525 0.000387895)
(0.000248878 0.000545557 0.000181165)
(0.000567715 0.000747637 -0.00126425)
(-0.000225735 0.000112478 -0.00497583)
(0.000395992 0.000477296 0.000336943)
(0.000746558 -0.000844124 -0.00658647)
(1.11446e-05 0.000132429 -0.00230763)
(0.000551562 0.000729151 -0.00133423)
(-0.000551165 5.50732e-05 -0.000363695)
(0.00020947 -0.000160522 -0.00582419)
(-0.000263797 -0.000226015 0.000510623)
(0.00134703 -0.000796437 0.000260906)
(0.00036897 -0.000401539 -0.00379372)
(-0.000326918 9.64002e-05 -0.00499995)
(-0.000845808 7.23318e-05 -0.00257937)
(2.15706e-05 -0.000154768 9.8271e-05)
(2.13385e-06 0.000137299 0.000335249)
(0.000899256 -0.000191895 -0.00097064)
(-0.000176767 8.44962e-05 0.0031612)
(-0.00110214 0.000641597 0.00029363)
(0.000301048 0.000797197 0.00116683)
(-0.000849501 -0.000305985 -0.00148922)
(0.00051086 -0.000517376 0.000280253)
(0.000438384 -0.00063642 0.00029904)
(-0.000746787 0.000157485 0.00267061)
(-0.000151827 0.000476593 0.000232389)
(-0.000106481 -0.000372349 4.04583e-05)
(0.000274235 0.000711219 0.000239764)
(0.000405156 -0.000700944 0.00023795)
(-0.000797898 0.000206676 -0.000219637)
(0.000354381 -0.000644878 0.000478666)
(-0.00119083 0.000343309 0.00248528)
(-0.000193887 0.000217165 -0.00230401)
(-0.00116024 0.000281343 -0.00335115)
(-0.000648239 -0.000236359 0.000169852)
(-0.000974989 0.000438903 -0.00294111)
(0.00136775 0.00288321 -0.00144204)
(0.000554632 -0.000655791 0.000384213)
(-0.000489885 -0.000152301 -0.00109397)
(-0.000858735 5.70111e-05 -0.000175691)
(-0.000705666 0.000175205 0.000420022)
(-0.000643825 0.000355235 0.00261189)
(0.000503215 -0.000526856 0.000287923)
(-0.00056461 0.000431725 -0.00283526)
(0.000472833 0.000638387 -0.000915751)
(1.08015e-05 0.000200605 -0.000498111)
(-0.000130793 -0.00214558 -0.00111999)
(-8.69725e-05 4.84136e-05 0.00161609)
(-0.00071343 7.44788e-05 -0.00117271)
(-0.00111987 0.000293678 0.000184903)
(-0.000821432 0.000445598 0.000189363)
(-0.000790518 -0.000275743 0.00029239)
(-0.000746954 -0.000352994 0.000338494)
(-0.000680762 -8.31571e-05 -0.000995738)
(-0.000670638 0.000332233 0.000289415)
(-8.6529e-05 0.000104867 -0.00476903)
(-0.00878331 0.00104394 -0.00186748)
(-0.000908848 -0.000515978 -0.000227585)
(-0.00205288 0.000144683 -0.00166962)
(-7.70383e-05 0.000136256 -0.00474745)
(0.000494077 0.000404484 0.000299993)
(0.000592873 -0.00049974 0.000308838)
(-0.00108979 1.22763e-05 -0.00189789)
(8.46047e-05 -7.63157e-05 -0.00124961)
(-0.000810685 -6.35729e-05 -0.00144158)
(-0.000927375 0.000413314 0.000312624)
(-9.77021e-05 0.000160724 -0.00104953)
(-0.00076754 0.000418868 -0.0031986)
(-0.00014957 -0.000748067 0.0023182)
(-0.000889244 -0.000928709 0.00027417)
(-0.000140588 -0.00241384 0.000192651)
(-0.000355396 9.49165e-05 0.00392661)
(0.000450221 0.000586027 -0.00156792)
(-0.000480905 0.000298873 0.00405724)
(0.000310469 0.000434248 -0.00649656)
(-0.00157521 -0.000178646 -0.000216294)
(-0.00019214 8.78967e-05 -0.00238421)
(0.000651058 -0.000429771 0.000171242)
(-0.000940167 0.00145574 -0.00247838)
(0.000230369 6.20114e-05 0.000255639)
(-0.000614691 6.40537e-05 0.000301739)
(-0.000316132 6.56432e-05 0.000319905)
(0.000175025 -0.00125358 -0.00116047)
(0.000216038 -0.000197824 0.00113632)
(0.00044632 -0.000380371 -0.00100989)
(-8.27729e-05 0.000157812 0.000514159)
(0.000471726 -0.000679078 0.000282203)
(-0.00032142 -0.000114219 0.000789625)
(2.83249e-05 -0.000364614 0.0001263)
(0.000270113 -0.000591165 -0.004814)
(-0.000291953 5.52496e-07 -0.00387954)
(-0.000297605 0.000441979 -0.00226013)
(-0.00104602 -6.3424e-05 0.00116407)
(-0.00056359 0.000329806 0.000443403)
(-0.000674489 0.000690356 0.000254977)
(-0.00131747 -0.000157402 1.56181e-05)
(0.0002181 0.000591636 0.000290594)
(-0.00107937 -2.9208e-05 0.000344515)
(-0.000718012 0.000603971 -0.00103948)
(-0.000585941 5.58167e-05 -9.90589e-05)
(-0.000256618 0.00062707 -0.0019146)
(-0.000627567 0.000165538 0.000463225)
(0.000278302 0.000513356 0.000317618)
(-0.00101605 0.000211048 -0.00103452)
(-0.000661012 -0.000845578 -0.000268467)
(-0.00102771 -7.26548e-07 -0.000547106)
(-0.000209639 0.000662653 -0.00382924)
(-0.00110775 -1.86213e-05 -0.000937094)
(-0.000720924 6.55971e-05 -2.21861e-05)
(-0.000543532 0.000273928 -0.000122675)
(-0.000670987 0.000387734 0.000315764)
(-0.000771488 -0.000283547 0.000268513)
(-0.000708241 -0.00010783 0.000269872)
(-0.000372609 0.000482299 -0.00660807)
(1.10077e-05 0.000138297 -0.00176641)
(-0.000963881 -0.000276536 -0.00661314)
(-0.00239144 -0.00186317 -0.00110738)
(-0.000107228 0.000196342 0.00166908)
(0.000497142 -0.000616013 0.000358569)
(0.000553832 -0.000422864 -0.00344578)
(-0.000891454 0.000153862 0.000274332)
(0.000575318 0.000752937 -0.000630897)
(-0.00165998 -0.000811472 -0.00257877)
(-0.0010443 0.000269838 0.000462698)
(0.000222448 0.000273535 0.00493455)
(0.000303286 -0.000837966 -0.00237552)
(-0.000648559 -0.00040088 0.000295056)
(0.000498625 0.000659223 -0.00204945)
(-0.000570285 0.000607891 -0.000124041)
(-0.000607591 0.000859444 0.00368533)
(-0.00122678 1.43684e-06 -0.00172442)
(-0.00018245 -0.000480434 0.000392141)
(-0.000680778 -0.000244894 0.000156756)
(-0.000556717 0.000278979 0.000531016)
(0.000669042 0.000539069 0.000277885)
(-0.000935648 0.000580434 0.000240859)
(0.00039595 0.000519162 0.00109583)
(-0.00115795 0.000143348 0.000253955)
(0.000550645 -0.000215769 -0.0025953)
(-0.000276927 0.000422474 0.000215825)
(-0.000640607 0.000651827 0.000216122)
(0.000457123 -0.000630004 -0.00084919)
(-0.00256853 -0.00312741 5.9017e-05)
(0.000339853 -0.00284491 0.000343474)
(0.000230798 5.48804e-05 -0.00261498)
(0.00144612 0.0021686 0.000131168)
(-0.000124678 0.000413651 -0.00187625)
(-0.00148033 0.000795413 -0.00110418)
(-0.000626679 0.000335122 0.00026535)
(0.00173458 0.0027067 -0.00212493)
(8.34153e-06 -0.000198807 -0.00136089)
(-0.00107634 0.00027878 0.00221563)
(-0.0027847 -0.00112727 0.000109818)
(0.000348674 -0.000629522 0.00026654)
(0.000642921 0.00102141 0.000232937)
(-0.000121231 -0.000265561 -0.00248297)
(-8.21073e-05 4.63168e-05 -0.000194292)
(5.88232e-05 9.61738e-05 -0.00451958)
(-0.00106731 -0.000205612 0.000792609)
(0.00326527 -0.00143835 0.000135014)
(0.000408864 -0.000409103 0.000238859)
(0.000401541 -0.000408157 0.000485918)
(0.000346787 0.000466763 0.000535608)
(-9.31559e-05 -0.000244324 0.000277508)
(-0.00100468 0.000203951 7.15568e-05)
(-0.000987734 0.000224402 -0.00616681)
(-0.000111547 1.46256e-05 0.000976869)
(0.000606682 0.000887343 0.000299192)
(-0.000914675 0.000287319 0.00035311)
(-0.000744087 0.000169551 0.000482765)
(-0.000442789 -2.76718e-05 0.000310256)
(-0.000607859 -6.2441e-05 0.000400478)
(-0.000493931 -0.000373106 0.000778962)
(-3.4451e-05 -1.41901e-07 0.00282607)
(-0.00055245 9.84653e-05 -0.00244694)
(-0.000174048 3.59311e-06 -0.00437688)
(-0.000728938 1.51351e-05 0.000451764)
(-0.000239443 -0.000481317 -0.00610277)
(-0.000826829 -0.000301478 -0.000845651)
(-0.000319656 0.00031376 0.000821231)
(-7.62746e-05 -0.000130113 -0.000347459)
(-0.000698017 -8.98852e-05 0.000276992)
(0.000508769 -0.000386402 -0.00288006)
(0.000328591 0.000758756 -0.00102142)
(-0.000958432 0.000396492 0.00311603)
(-0.00069461 0.00066561 -0.00139059)
(-9.58682e-05 0.000191694 0.000276826)
(0.000319593 0.000570924 0.000256928)
(0.000179763 0.000456831 4.82714e-05)
(-0.000781781 0.000793924 0.000952513)
(-0.00165539 -0.000200383 0.000314217)
(-0.000813912 6.97824e-05 0.00167655)
(3.12877e-05 0.000478584 0.000766523)
(-0.000143762 0.000100576 -0.00288887)
(0.000231275 -0.000238541 -0.00484834)
(0.000298486 0.000446186 -0.0040939)
(0.000220094 0.000624983 0.000472701)
(-0.000471294 0.000225061 -1.73661e-05)
(0.00023678 6.47904e-05 -0.000258512)
(-0.000837746 -0.000335409 0.000280851)
(0.000711943 0.000822151 -0.00112622)
(0.000262457 0.00151561 0.00154047)
(-0.000946709 0.000305429 -0.000957735)
(0.00121888 -0.000738415 0.000359663)
(-0.000734019 0.000121733 -0.00248105)
(-8.8221e-05 0.000200148 -5.46434e-05)
(0.00015392 0.000396542 -9.20015e-05)
(-0.00131709 -0.000159201 0.000395471)
(-0.000930491 0.00364853 -0.00258998)
(-0.000449416 -0.000575912 -0.0039325)
(-0.000550902 3.28326e-05 -0.000140614)
(-7.82093e-05 -0.000275833 -0.00221618)
(0.000124742 0.00790188 0.000404874)
(0.00186156 -0.000717768 0.000325563)
(0.00569551 0.00244313 0.000632484)
(-0.000452251 -4.26808e-06 0.000356506)
(0.000276212 -0.000427011 2.00423e-05)
(-0.00125618 0.000337666 0.000265845)
(-0.000218826 -0.000473947 -0.00359305)
(0.00028282 -0.00132151 0.0001391)
(-0.000650768 -0.000255977 0.000279693)
(0.000347284 0.000822217 -0.00156316)
(-1.49309e-05 -0.000524389 0.00033421)
(1.45659e-05 8.24937e-05 -0.00171496)
(0.000553654 -0.000651019 0.000282433)
(-0.000861619 0.000175774 0.000245757)
(0.000581212 -0.000767305 -0.00228096)
(0.00021224 0.000397316 0.000198684)
(-0.00125485 -7.93819e-05 -0.00170006)
(0.00273209 -0.00122824 -0.00101657)
(0.000217593 1.72855e-05 0.000665582)
(-0.000177135 0.00276962 0.00017613)
(0.000445208 -0.000607973 -0.00102379)
(-0.000100261 0.000210181 0.000505992)
(0.00120007 -0.00070852 0.000164905)
(0.000311927 -0.000586433 0.000128688)
(-0.000679866 0.000379249 0.00478829)
(-0.00115389 0.000361366 -0.00128995)
(0.00122354 -0.000713594 -0.000251017)
(0.00017288 0.000200891 -0.000957741)
(0.00157576 -0.000541813 0.00029901)
(0.000489073 0.000641739 -0.00217492)
(-0.000345222 6.70101e-05 -0.001365)
(-0.00046893 -0.000370867 -9.44886e-07)
(-9.28176e-05 0.000157097 0.00302243)
(0.00228546 -0.00348454 -0.000970754)
(-0.0015297 0.000779669 0.00569013)
(0.000202547 -0.000278168 -0.00170926)
(-6.14909e-05 -0.000953157 0.000198981)
(-9.84497e-05 0.000327747 0.00108226)
(-0.00064796 5.95736e-05 -0.000363167)
(-0.000287759 -0.00178696 0.000493173)
(0.00106709 0.00127152 0.000418539)
(-0.000556907 -3.70474e-05 -0.00364734)
(-0.00142042 0.00187663 0.00029872)
(-6.35457e-05 0.000360765 0.000528051)
(-0.0017615 0.00014228 -0.000836782)
(0.00030025 -0.000443628 0.000209432)
(-0.000830952 0.00047172 0.000323349)
(-0.000815687 -0.000366827 0.000284403)
(-0.0010061 0.000242975 -0.00221815)
(-0.000907775 -0.000322635 -0.000515027)
(0.000643026 -0.000885313 0.000324449)
(-0.00030938 -0.000147411 0.00112615)
(0.000524061 -0.000445495 -0.00183069)
(-1.30423e-05 0.00195913 -0.00299949)
(0.00110243 -0.000483001 -0.000811043)
(-0.00193438 0.00234505 0.00036822)
(-0.00150903 6.9761e-05 -0.00472306)
(-0.00101489 -2.88809e-05 1.26994e-05)
(0.00036965 -9.72883e-05 0.00259996)
(-0.00126112 -0.000766346 0.00168896)
(-0.000103132 0.000198063 0.000297133)
(0.000408898 -5.87615e-05 0.000230099)
(-0.000121507 0.000256587 0.00536471)
(-0.000499307 -0.000227805 0.0002754)
(-0.000972539 -7.16993e-05 0.00041356)
(-0.000739385 0.000405423 0.00034065)
(-0.000109487 0.000370647 0.0050303)
(-0.000767076 0.000617138 -0.00315323)
(0.000665944 0.00064334 -0.000401128)
(-0.000344613 -0.000108596 0.000828731)
(0.00151077 0.000966474 0.00700295)
(0.000513642 -0.000521075 0.000277625)
(0.000183687 0.000446269 -0.0014554)
(0.000241811 0.000638317 9.04963e-05)
(-0.00104035 1.80209e-05 0.00025472)
(-0.000379869 0.000266706 0.000776276)
(0.000218653 0.000586286 0.000265586)
(0.000219751 0.000418332 0.000269505)
(-7.90367e-05 0.000175086 0.000296866)
(0.000109853 -0.000342793 0.000282158)
(-0.000772561 -0.000275687 0.000291709)
(0.000337337 0.000723473 0.00386964)
(-0.00151026 0.000120719 0.000249813)
(-0.000648195 -0.000240098 0.000380408)
(0.0008926 -0.000702528 0.000578698)
(0.000632342 0.0006983 -0.00383188)
(-0.000711704 0.000589207 -0.00105811)
(0.000482995 -0.000488566 -0.00161849)
(-0.000403864 0.000298877 0.00198607)
(0.000186316 -0.000369913 -0.00231834)
(0.000222569 0.000679225 -0.00511774)
(1.62229e-06 1.46234e-06 -0.00370203)
(0.00357494 0.00172961 -0.000109002)
(-0.000949506 -0.000542105 -7.03292e-05)
(8.27895e-06 8.58391e-05 -0.00111171)
(0.000401655 0.00110129 -0.000959157)
(-0.000350319 -0.000111476 0.000329763)
(0.000276287 -0.000419724 0.000365607)
(-0.000148932 0.000458067 0.000209834)
(-0.000828045 6.49238e-05 -0.00107282)
(0.000159031 -0.000390281 0.000147928)
(0.000316486 0.00047815 0.000145339)
(-0.00330229 -0.00280106 0.000172021)
(0.00332205 -0.00289525 -0.00436963)
(0.000544146 -0.000584532 0.000274814)
(2.37745e-05 -0.000318076 -0.000232292)
(-0.000844227 -0.00039099 -0.00101187)
(-0.000223666 -0.000445525 -0.000125433)
(7.25377e-05 -0.000107829 0.00222072)
(-0.000644798 0.000483095 0.00172238)
(-0.000400273 0.000175476 -0.00284149)
(-0.00172485 -0.00114577 -0.000852149)
(0.00310109 7.69434e-05 -0.0047522)
(0.000480589 -0.000480213 0.000235923)
(0.000553043 0.000604664 0.00708432)
(0.000692591 0.000798326 0.000216258)
(-0.000983249 0.000353438 0.000289951)
(-0.00085362 0.000223514 -0.00146734)
(-0.0010176 0.000364455 -0.00112539)
(0.000256019 0.000662097 -0.0011438)
(-7.42375e-05 -0.000129686 -0.00259231)
(-0.0002708 5.94105e-05 0.000198478)
(0.00045835 -0.000556933 0.000267563)
(0.000269046 0.000631364 -0.00173522)
(-0.000179572 0.000320633 0.00046023)
(-0.000761192 7.98103e-05 0.000416388)
(-0.000652918 -9.5933e-05 0.000578201)
(-0.000251114 0.000197344 0.000335195)
(-0.000966074 0.00029357 0.000400386)
(0.000344205 -0.000599459 -0.00132721)
(-0.000888204 8.42507e-05 5.59532e-05)
(-0.000254793 0.000422175 0.00173692)
(0.000708886 -0.000753471 -0.00509187)
(0.000180665 8.15507e-05 -0.00201552)
(0.000288101 0.000750714 -0.00093847)
(-0.000139767 9.75542e-05 -0.0014869)
(0.000478274 -0.000506621 0.000265187)
(-0.00113274 0.000167545 0.000149217)
(0.000134975 -0.000213248 0.000630351)
(-0.000683971 0.000109465 7.04652e-05)
(-0.000151005 0.000101885 0.000906204)
(0.000235801 0.00044582 0.000259271)
(-0.000744741 -0.000348085 0.000207535)
(0.000851659 -0.000342281 0.00201203)
(-0.00168625 -0.000229341 -0.00206063)
(-0.00139892 -0.00015977 0.000342086)
(-0.000941089 0.000546068 0.000335047)
(-0.000716201 0.000525427 -0.00385094)
(4.56076e-05 -0.000804609 0.000347681)
(0.000395294 -9.08619e-05 4.74048e-05)
(-0.00106742 3.07728e-05 0.00384916)
(-2.22071e-05 0.000257159 -0.00253991)
(0.000254624 0.000448915 -0.00113704)
(-0.00064096 0.000336205 -0.000875348)
(-0.000248851 -0.000415255 -0.000119323)
(-0.00047108 0.000295671 0.000280424)
(0.000264392 0.000717636 0.000253519)
(-0.000276976 0.000287195 -0.00503343)
(-0.000967751 1.1837e-05 0.000291576)
(-0.00101505 -0.000467821 -0.00384419)
(0.000529085 -0.000700128 0.000359909)
(-0.0010164 0.000656801 -0.00170217)
(0.000242825 0.000580848 0.000210904)
(0.000385381 -0.000389069 -0.000107392)
(-0.00109216 0.000111112 0.000317222)
(0.000497484 0.000660591 0.000256273)
(0.000346906 0.000803297 -0.000817023)
(-0.000849636 -0.000113308 -0.0033817)
(-0.00131633 -8.63965e-05 0.000300113)
(0.000213303 5.31748e-05 0.000562756)
(-0.00222898 0.00138661 -0.000293791)
(-0.00145074 3.49719e-05 0.00031082)
(0.00038092 -7.5951e-05 -0.00710338)
(-0.000577124 7.31252e-05 -0.00316565)
(-1.478e-05 6.4698e-05 -0.00106668)
(-0.00114472 0.00161148 -0.00376319)
(-9.56491e-05 -0.000261643 0.000359651)
(0.000535575 0.000308194 -0.00187249)
(-0.00021291 -0.00112015 -0.00182006)
(-0.000115028 7.53172e-05 0.000158682)
(0.000298996 -0.000455669 0.000202391)
(0.00055339 0.000585098 -0.00222459)
(-6.23958e-05 -0.000244162 -0.0018561)
(0.000435844 0.000574115 -0.000356139)
(0.00046581 -0.000130175 0.000297178)
(1.38508e-05 0.000336722 -0.0049342)
(-0.000533733 8.88907e-05 -0.00165326)
(0.000273448 -0.00060613 -0.0017131)
(-0.000641323 -0.000178874 -0.000344845)
(-3.49222e-05 0.000200736 0.00167553)
(0.00136369 -0.00372406 -0.00190915)
(-0.000280574 0.000471687 0.000723895)
(-0.00124935 -8.94649e-05 -0.00174283)
(-0.00177857 0.000324583 0.0011936)
(-0.00101459 1.67491e-05 0.000271923)
(0.000643255 0.00084872 -0.0050092)
(0.000118681 0.000492352 0.000370751)
(-0.000175414 7.8168e-05 -0.00201098)
(-0.000847911 -0.000397031 -0.000385905)
(-0.000638244 0.000474607 0.00216828)
(0.000391571 1.50874e-05 0.000253014)
(0.000496173 0.000735007 -0.00392268)
(-7.04544e-05 -0.000117757 0.000315945)
(-0.000652093 -0.000221523 0.000277047)
(0.0005264 -0.000448827 -3.53495e-05)
(-0.0002288 0.000108423 0.00106807)
(-0.000716897 0.000335008 0.00109923)
(-0.000306738 8.58154e-05 0.000696818)
(0.000424641 -0.00062457 -0.00254734)
(-0.000741827 0.000759043 0.000236078)
(9.18836e-05 0.00025982 0.00786057)
(0.000524972 0.000702758 0.00261792)
(-0.000331515 0.000527963 -0.00158285)
(0.000646512 0.000479976 2.57691e-05)
(8.62794e-05 -0.000260665 0.000206308)
(0.00070742 -0.000282699 -0.00038857)
(-0.00109146 0.000322502 0.000232371)
(0.0017449 0.00346104 -0.00200733)
(-0.000530153 4.55854e-05 0.00237309)
(0.000483115 -0.00038525 -0.00336236)
(-0.000670974 -0.000299291 0.000477473)
(-0.000539435 0.000276365 0.000613131)
(0.000606736 0.000954916 -0.000820805)
(-0.000797038 -0.000303156 0.00155677)
(-0.000683429 0.000120571 0.000722082)
(-0.00326212 0.000842426 -0.0030438)
(-0.00072353 -8.22024e-05 0.00032905)
(-0.00020188 0.00107048 -8.43741e-05)
(-0.000684841 0.000284391 -0.00187617)
(-0.00265699 -0.00104252 6.65999e-05)
(-0.00104259 0.00111958 0.000271146)
(-0.000699222 -0.000150342 0.000278857)
(-0.000896938 0.000175052 0.00109404)
(0.000537423 0.000731049 0.000236865)
(-0.000947873 0.000129744 -0.000277044)
(-0.000772318 0.000174984 -0.00305188)
(0.000563803 0.000744081 -0.000644355)
(0.000221332 0.000407328 -0.00185074)
(-0.000245976 0.000210236 -0.00613673)
(3.5149e-06 5.19753e-05 0.00147642)
(0.00057728 0.000673275 0.000384125)
(5.41019e-05 8.22639e-05 0.00231666)
(5.00816e-05 -0.000465155 0.000248036)
(-0.00109135 -0.000973342 0.000225591)
(7.41684e-05 8.32658e-05 -1.868e-05)
(-0.000569996 6.59577e-05 0.000289565)
(0.000321909 -0.000583296 0.000243693)
(-0.000788484 0.000165182 0.000246041)
(0.000583157 -0.000874729 -0.00134863)
(0.000411322 -0.000414145 -0.00109668)
(-0.00118349 0.000496714 -0.00243122)
(-0.00117876 0.000147051 -0.00105927)
(-0.000154248 0.000105139 -0.00255386)
(-0.000651397 0.000434393 0.000278795)
(-0.000573463 5.46715e-05 -0.0017079)
(-0.000871138 0.00022033 0.00222129)
(0.00046309 -0.000352198 0.0024048)
(-0.00074563 -0.000341353 0.000294674)
(-0.000655993 -0.00106033 -0.00107224)
(0.000381 0.000917138 -0.00204233)
(0.000778941 0.00101227 -0.000148615)
(-0.000503568 -0.000392696 -0.00135229)
(-0.000286557 0.000541881 6.77619e-05)
(0.000100264 0.000536238 0.000435414)
(0.000458624 -0.00066041 -0.00214296)
(-0.000837637 0.00025029 -0.00106011)
(-0.000468165 0.00197465 4.74885e-05)
(-0.000935556 0.000147395 -0.0012889)
(-9.31236e-06 0.000279207 0.00780195)
(-0.00032971 6.86779e-05 0.00101439)
(0.000159316 0.000446043 -0.000350359)
(-0.000222226 -0.00265239 -0.000954602)
(0.000605296 -0.000594064 0.00429679)
(-0.000518367 0.000262613 -0.00106886)
(-0.000378352 0.000426533 -0.000932004)
(-0.000522195 0.000254804 0.000197053)
(-0.00074061 -0.000252125 0.000273223)
(0.00010892 0.000137515 -0.00115001)
(0.000745375 0.000220687 -0.00171395)
(0.000432298 -0.00044793 -0.00344419)
(1.33303e-05 -0.000243918 -0.00214379)
(0.000510679 0.000671762 0.000279678)
(-0.000111499 7.36938e-05 0.000348018)
(-0.000591147 0.000379069 -0.00102287)
(1.24678e-05 0.000132571 0.000637069)
(0.00256944 -0.000919464 0.000221187)
(-0.000170956 7.0246e-05 -0.001679)
(0.000333804 4.1732e-05 0.000507298)
(-4.88382e-05 0.000216746 8.63817e-06)
(-0.000115019 5.59264e-05 -0.000191855)
(-0.000602987 0.000129135 0.000289128)
(-0.000301272 6.8587e-05 0.000306306)
(-0.00099857 0.000102093 -0.00455274)
(-0.000791299 6.85005e-05 -0.00129021)
(0.00178263 -0.000711354 4.66894e-05)
(-0.000190614 4.8818e-05 0.000321438)
(-0.000422947 -0.000279402 0.00362721)
(-0.000192621 8.31167e-05 -0.00190562)
(0.000266674 0.000712073 0.00025645)
(0.000646035 -0.000116392 0.00012877)
(-0.000905922 0.000103043 0.000268373)
(-0.000782084 0.000396646 -0.00264988)
(0.000555854 0.000655391 0.000203116)
(0.000132968 -5.38279e-05 -0.00439031)
(2.1186e-05 -0.000160392 -0.000207927)
(0.000123408 8.91511e-05 -0.00604275)
(0.00126441 0.00210224 -0.00403985)
(0.000627101 0.000648241 -0.000306473)
(-0.000559737 4.73822e-05 -0.00168035)
(0.000336521 0.000771238 -0.00159237)
(-0.000929774 0.000357724 -0.00109517)
(0.000242093 -0.00113921 0.000252266)
(-0.00076414 0.00026912 0.00034558)
(-0.000695382 0.000559603 0.000371652)
(-9.85334e-05 -0.000289457 0.000307342)
(0.00250317 -0.000570908 0.000152084)
(-0.00030522 0.000893363 -5.59532e-05)
(1.07646e-05 0.000121274 0.00019014)
(-0.000692789 0.000603427 0.000313251)
(-0.000371458 0.00222821 0.000155535)
(0.000461343 -0.000444665 0.000328569)
(-2.07007e-05 1.87505e-05 0.00288331)
(-0.00249594 0.00177371 -0.000686411)
(-0.000883944 9.77172e-05 0.000202389)
(-9.86992e-05 0.000191203 -0.00343299)
(-0.00164797 -0.00145843 5.99932e-05)
(-0.000269032 0.000400709 0.00207081)
(0.000413222 0.000809691 0.000314999)
(0.000507461 0.000683447 0.00030936)
(0.000527976 0.00110254 -0.000820436)
(-0.000361706 8.74932e-05 -0.00268137)
(0.00054303 0.000747944 -0.00270994)
(-0.000530522 0.000405503 0.00221613)
(0.000654297 -0.000567188 -0.00136886)
(0.00021278 0.000571473 -0.00185586)
(0.000858818 -0.000116665 0.00266287)
(-0.000223622 -5.98714e-06 0.00053971)
(-0.000545417 -0.00018665 -0.00129463)
(0.000397887 -0.000409555 -0.000186106)
(0.00060915 0.000714956 0.000292278)
(0.000617986 -0.000518205 0.00025139)
(-0.000182885 9.54831e-06 -0.0024761)
(0.000542049 0.000728316 -0.00170816)
(-0.000840758 -0.000335167 -9.08604e-05)
(-9.22209e-05 0.000180918 0.000314502)
(-0.00294279 0.000342653 -0.00340332)
(0.000123994 0.000587418 0.000306611)
(0.00063233 -0.000537333 0.000285557)
(-0.00108592 -4.34369e-05 0.000615875)
(0.000272658 0.000736656 -0.00208319)
(0.00145687 0.00226525 0.000339391)
(0.000829991 -0.000374997 -0.00264401)
(-6.02797e-05 0.000501346 0.00030231)
(-0.00104067 3.13733e-05 0.000431562)
(-6.08282e-05 -0.000234977 0.000569247)
(-0.000221311 -0.000714511 -0.00411216)
(0.000433364 -0.0006128 0.00227899)
(0.00010933 2.44332e-05 -0.00376231)
(-0.000799403 0.000469476 -0.00108465)
(-0.00150203 0.00194818 -0.00269453)
(-0.000857953 -0.000110945 -0.0026931)
(-0.000586581 -0.000203365 0.000245871)
(7.62303e-06 -0.00433972 -0.00200424)
(6.81333e-06 0.000172555 0.000469542)
(5.47543e-05 0.000109511 0.00432836)
(0.00058412 -0.000428046 -0.00103562)
(-0.000654864 -0.000233529 0.000105609)
(0.00041818 0.000724773 -0.00093046)
(0.00431097 -0.00199983 -0.00116536)
(0.000396618 -0.000731163 -0.00268468)
(-0.000739118 -0.000128832 0.000318565)
(0.00127796 0.00291912 -0.00146287)
(-0.000573965 0.000423125 0.000305713)
(0.000471727 0.000135718 -0.00131843)
(0.000496024 -0.000761174 0.000311633)
(-0.000538346 5.73833e-05 0.00470644)
(-7.53034e-05 0.000453251 -0.00342193)
(-9.94051e-05 0.000166835 -1.89221e-05)
(0.000135081 0.00017357 -0.00510321)
(-0.000578302 6.84103e-05 0.000287877)
(-0.000730572 0.000596563 -0.00116736)
(-0.000445465 0.000340706 0.00048165)
(-0.000154536 6.79226e-05 -0.000210027)
(-1.61471e-05 -0.000441285 -0.00142803)
(0.000584589 -0.000440016 0.000232855)
(0.000753472 0.00197644 -0.000383342)
(-0.000519655 -0.000148367 0.000152941)
(9.67402e-05 0.000522199 0.000280319)
(-0.000858147 7.63666e-06 -0.00182544)
(-9.99537e-05 0.000201226 0.000183065)
(0.000233331 0.000559471 -0.0012877)
(-0.000415394 -0.000285002 -0.00382549)
(-0.00126459 -0.000297929 0.000325879)
(-0.000614209 0.000482693 -0.000157607)
(-0.000608834 3.37191e-05 -0.00138794)
(-8.31985e-05 5.75818e-05 0.000376502)
(0.00011722 0.000134446 0.00555877)
(6.70314e-06 -0.000426386 0.000338544)
(-7.02983e-06 -0.000202699 -0.00457347)
(-0.000458597 0.000532542 -0.00021131)
(0.000321353 0.000185763 0.000283252)
(0.000458821 -0.00114261 0.00196204)
(0.00237943 -0.000821961 0.000183166)
(-0.00101179 1.5629e-05 0.000278408)
(-0.000212524 0.000479297 0.00160035)
(-0.000186676 8.54321e-05 0.000266222)
(0.00042045 -0.000759356 0.000195446)
(-0.00045628 4.31417e-05 0.000429302)
(-0.000767435 0.000152177 -0.00102464)
(0.000771748 -0.000376373 0.000306393)
(-0.000561325 -2.5964e-05 -0.00672149)
(-0.00092595 0.000998616 0.000478291)
(0.000506366 -0.000696862 0.000262115)
(-0.000312239 0.00062444 -0.00104934)
(0.000200619 -0.000326693 0.0003364)
(0.000143334 0.00103164 0.000686243)
(-0.000260238 0.000466488 -0.000537852)
(0.000255458 -0.0003578 -0.00739688)
(0.000204933 8.93775e-05 0.000313532)
(0.00116115 -0.000685742 0.000215043)
(-0.000100673 3.59474e-05 9.8752e-05)
(0.00020604 -0.000458497 -0.000163265)
(-9.95453e-06 -0.000416669 -0.00200158)
(-0.00123003 -7.97359e-05 0.000171696)
(-0.000772094 0.000285602 0.000130387)
(-0.00105134 -3.35354e-05 0.000384066)
(-0.000376931 -0.000104893 0.00169298)
(0.000530628 -0.000588231 0.000230138)
(9.90877e-05 -0.000289208 -0.00195778)
(-0.000738427 0.000229544 -0.00298283)
(0.000433744 -0.000442135 0.000217322)
(-5.22565e-05 0.000228028 0.00170839)
(0.000666369 -0.000566847 0.000252097)
(-8.40201e-05 5.58552e-05 -0.00031979)
(-0.000163253 0.00010938 -0.00381495)
(0.000271148 0.000626473 0.000368842)
(-0.000518597 0.000158555 0.000829877)
(0.00147906 0.0016455 -0.00100796)
(-0.000940499 -0.000173447 -0.00235248)
(-7.1763e-05 0.000144632 -0.00141225)
(-0.00129814 -2.15085e-05 0.000251715)
(-0.00059162 7.55132e-06 0.000300388)
(1.36027e-05 0.000144096 0.000272282)
(0.000297095 0.000216905 -0.00151143)
(0.00262776 -0.00132283 0.000297568)
(-0.00116923 0.000350265 0.00173121)
(-0.000687924 8.07245e-05 -0.00239703)
(-5.88116e-05 0.000203615 -0.00305982)
(-0.000861128 0.000283432 0.000341663)
(-0.000196297 0.000432164 0.000495425)
(0.000174255 0.000470087 -1.89045e-05)
(0.000314181 0.000689466 0.000151364)
(-0.000904712 0.000162511 0.000369425)
(-0.000818781 0.000394096 0.00377649)
(-0.000100899 -0.000275735 0.000305837)
(-0.00066305 -0.000111298 -0.0024425)
(-0.000659941 0.000501325 -0.00410203)
(-0.000875533 0.000582776 0.000272137)
(0.000304584 0.000703464 0.00024796)
(0.000184892 -0.000450706 0.000265258)
(0.000118126 -0.000101234 -0.00505428)
(0.000399192 0.000708774 0.000643586)
(-0.000199185 0.000178251 0.00200904)
(-0.000930816 0.000516455 0.000251149)
(0.000155856 0.00412626 -0.000424342)
(0.000296291 -0.000454369 0.000250986)
(-0.000924412 9.98832e-05 0.00032193)
(-0.00113702 7.52663e-06 0.00028578)
(1.74183e-05 -0.000878091 -0.0021862)
(-0.000788484 0.000278346 0.000293012)
(-0.000128163 0.000523067 -0.0020252)
(1.19098e-05 0.000131264 0.000262906)
(-9.46148e-06 5.11452e-05 0.000282544)
(-0.000761259 0.000202613 0.000257643)
(-0.000907335 0.000163678 0.000255524)
(-0.000709367 0.000590023 0.000257305)
(0.000598526 -0.000796555 0.00043782)
(0.000540514 0.000626088 0.000690725)
(0.000100038 7.98528e-06 -0.000293432)
(-0.000522523 0.00193373 0.000321733)
(-0.000748677 6.09617e-05 0.000318468)
(-5.97334e-05 4.7927e-05 -0.00195919)
(-0.000683488 0.000472285 -0.00169897)
(0.000386986 0.000701997 -0.00141273)
(0.00019502 0.000556795 0.00023216)
(0.000241474 0.000453615 0.000401508)
(-6.95949e-05 0.000126307 -0.00223887)
(-0.000666156 0.000329505 -0.00259441)
(-8.49692e-05 -0.000325131 0.000223271)
(0.000473626 -0.000620866 0.000324454)
(-0.00152243 -0.000196374 -0.00109557)
(-0.000557093 0.00036721 0.000369147)
(0.000317893 0.000693752 -0.00167893)
(0.000494271 -0.000392708 -0.00316443)
(-0.000734517 0.000288674 -0.00497232)
(-0.000645177 0.000670635 -0.00186903)
(-0.000695272 0.000384262 0.00039187)
(-0.000374498 0.0010333 -0.00322222)
(-0.000104073 0.000183611 -1.84785e-05)
(0.00158664 0.00267398 -0.000335807)
(0.000298705 -0.000541516 0.000324208)
(0.000198661 0.000370623 0.000493368)
(-0.000411385 -0.000283115 0.000396936)
(0.00067197 -0.00022956 0.00518052)
(-0.000584681 0.000603472 0.000698886)
(0.000523201 -0.000524741 -0.000988139)
(-0.000576579 -0.00016719 0.000248858)
(0.000457435 0.000603907 0.00258703)
(-0.000168925 1.35531e-05 -0.002969)
(-0.0011047 0.000505123 -0.000160129)
(0.00021984 0.000407003 -0.000199606)
(-1.36315e-05 -0.000292719 -0.00198629)
(0.000323239 -4.50024e-05 -0.00203087)
(0.000732934 -0.000936108 -0.00327071)
(-0.000563257 -0.000194257 0.000192577)
(0.00106283 0.00125956 0.00035655)
(-0.000806843 0.000696531 -0.00561983)
(-0.000579501 -2.74887e-06 -0.00492527)
(0.000270604 0.00073764 0.000275466)
(-4.30609e-05 -9.05406e-05 -0.00019108)
(-0.000248945 6.3996e-05 0.000196798)
(0.000429278 -0.000434498 -0.00118965)
(0.00200364 -0.0029146 0.00222923)
(0.000324817 0.000573482 0.000247355)
(0.00153086 -0.000546626 -0.00103575)
(0.000649546 -0.000768031 -0.000981881)
(0.00031402 1.012e-05 0.000339354)