/*--------------------------------*- C++ -*----------------------------------*\
| =========                 |                                                 |
| \\      /  F ield         | OpenFOAM: The Open Source CFD Toolbox           |
|  \\    /   O peration     | Version:  plus.master                           |
|   \\  /    A nd           | Web:      www.OpenFOAM.com                      |
|    \\/     M anipulation  |                                                 |
\*---------------------------------------------------------------------------*/
FoamFile
{
    version     2.0;
    format      ascii;
    class       surfaceScalarField;
    location    "5.2";
    object      alphaPhi;
}
// * * * * * * * * * * * * * * * * * * * * * * * * * * * * * * * * * * * * * //

dimensions      [0 3 -1 0 0 0 0];

internalField   nonuniform List<scalar> 
138768
(
1.56537e-06
1.26772e-06
2.22183e-07
-1.63604e-06
-1.41918e-06
1.1584e-06
1.61858e-06
3.45922e-07
-1.55706e-06
3.30528e-07
1.91894e-06
6.15755e-07
-1.70669e-06
-6.70898e-07
1.90313e-06
7.92292e-07
-1.69382e-06
-1.52369e-06
1.994e-06
5.7838e-07
-1.71971e-06
-1.93157e-06
1.69204e-06
3.08733e-07
-1.5927e-06
1.40469e-06
1.93585e-07
-2.13488e-06
-1.39568e-06
1.89195e-06
8.42257e-07
3.24642e-07
-1.78988e-06
1.17084e-06
9.98081e-07
1.43867e-06
7.20223e-07
4.32155e-07
2.11206e-06
-6.69852e-07
9.9667e-07
2.58014e-06
-1.26198e-06
5.83178e-07
2.1282e-06
-2.05343e-06
1.165e-06
1.409e-06
1.18354e-06
2.67819e-07
-2.10001e-06
2.10366e-06
1.02136e-07
5.46919e-07
-1.91028e-06
7.82713e-07
5.02391e-07
2.02322e-06
1.19264e-07
1.24614e-07
1.09338e-06
-1.01483e-07
7.78598e-08
1.23444e-06
-6.76753e-07
1.30957e-07
1.1257e-06
-2.17488e-06
6.64491e-07
2.1328e-06
3.29758e-07
5.33556e-07
-1.8546e-06
1.8882e-06
-4.74359e-07
6.64834e-07
-1.97089e-06
1.18035e-06
-7.13669e-07
2.21707e-06
1.03796e-07
-1.16477e-07
1.47361e-06
-1.35238e-07
-1.41418e-07
4.5823e-07
-1.14251e-06
-1.41307e-07
1.35469e-06
-2.13378e-06
-8.43928e-07
2.64566e-06
-7.34649e-07
7.54277e-07
-1.82364e-06
2.0994e-06
-1.2229e-06
4.9982e-07
-1.85657e-06
6.88058e-07
-1.18294e-06
1.99446e-06
1.25814e-07
-5.71521e-07
1.11707e-06
-1.32578e-07
-1.11656e-06
1.33889e-06
-7.47755e-07
-6.5206e-07
1.22966e-06
-2.23008e-06
-1.31063e-06
2.05e-06
-1.49654e-06
4.64621e-07
-1.93223e-06
1.80956e-06
-1.61151e-06
2.94112e-07
-1.71484e-06
1.18531e-06
-1.86973e-06
1.40021e-06
6.77922e-07
-2.01297e-06
2.10959e-06
-8.65122e-07
-2.0723e-06
2.64947e-06
-1.38534e-06
-2.07511e-06
2.06726e-06
-2.09469e-06
-1.86706e-06
1.35574e-06
-1.67775e-06
2.39437e-07
-2.15343e-06
1.53847e-06
2.01926e-07
-1.59513e-06
-1.75671e-06
1.20999e-06
2.92398e-07
-1.83442e-06
2.49517e-07
5.57588e-07
-1.6095e-06
-8.38585e-07
7.7496e-07
-1.75916e-06
-1.73487e-06
4.98443e-07
-1.67721e-06
-2.01666e-06
2.61259e-07
-1.8464e-06
1.80598e-07
-2.13788e-06
-1.73695e-06
1.23287e-06
7.78331e-07
7.50064e-07
-1.50006e-06
-1.03896e-06
7.78757e-07
9.1468e-07
9.84618e-07
-1.09964e-06
2.12596e-07
6.97691e-07
1.44687e-06
-9.62917e-07
-4.95575e-07
6.43164e-07
1.75296e-06
-8.95891e-07
-1.14589e-06
7.92055e-07
1.41137e-06
-9.74933e-07
-1.63096e-06
9.04829e-07
9.24068e-07
-1.03529e-06
6.74714e-07
7.01376e-07
-1.89725e-06
-9.16374e-07
1.27587e-06
3.9962e-07
9.41773e-07
-1.51467e-06
1.12521e-06
6.50655e-07
1.92821e-06
5.99288e-07
4.68523e-07
2.99346e-06
-3.83264e-07
4.25815e-07
3.81011e-06
-1.20278e-06
5.31664e-07
3.22071e-06
-1.57223e-06
7.77512e-07
1.95657e-06
4.06542e-07
8.71074e-07
-1.90761e-06
1.01601e-06
-2.52949e-08
1.29011e-06
-1.33456e-06
6.48543e-07
2.85982e-07
2.7713e-06
8.81551e-08
1.35858e-07
2.41714e-06
-1.69919e-08
4.15292e-08
1.94949e-06
-5.15175e-07
8.2863e-08
2.46582e-06
-1.23316e-06
3.23195e-07
3.37535e-06
4.73746e-09
1.39886e-06
-1.69678e-06
8.74413e-07
-4.55493e-07
1.45072e-06
-1.23031e-06
7.21564e-07
-6.39001e-07
3.29453e-06
1.41695e-07
-8.10413e-08
2.55629e-06
9.85571e-08
6.25175e-08
4.90314e-07
6.3105e-08
-3.38307e-08
1.52162e-06
-9.1667e-07
-5.1429e-07
4.33458e-06
-4.87779e-07
1.82195e-06
-1.49192e-06
1.01043e-06
-8.75155e-07
1.20808e-06
-1.29923e-06
6.88018e-07
-1.07802e-06
2.74591e-06
9.4053e-08
-5.07036e-07
2.495e-06
-3.44411e-08
-3.06312e-08
1.59392e-06
-6.27728e-07
-5.22942e-07
2.5453e-06
-1.25644e-06
-1.04078e-06
3.23047e-06
-8.29256e-07
1.25203e-06
-1.70246e-06
1.13032e-06
-1.20772e-06
8.74722e-07
-1.37857e-06
8.98028e-07
-1.23713e-06
1.83931e-06
3.94645e-07
-9.26006e-07
3.14145e-06
-5.3327e-07
-7.17663e-07
4.25116e-06
-1.20083e-06
-9.5234e-07
3.22232e-06
-1.50936e-06
-1.17259e-06
1.81867e-06
-1.0662e-06
7.94362e-07
-1.82745e-06
1.01583e-06
7.0725e-07
-1.31816e-06
-1.41091e-06
6.06287e-07
8.96032e-07
-1.43154e-06
7.88973e-08
1.38861e-06
-1.22974e-06
-5.95795e-07
1.80422e-06
-1.07234e-06
-1.09817e-06
1.29334e-06
-1.24499e-06
-1.48393e-06
8.28293e-07
-1.35403e-06
6.64915e-07
-1.75653e-06
-1.27806e-06
1.39939e-06
9.59286e-07
1.54518e-06
-1.8391e-06
-1.31473e-06
8.16601e-07
9.92489e-07
1.83438e-06
-1.25955e-06
6.7235e-08
9.54032e-07
2.37534e-06
-1.13317e-06
-6.82199e-07
6.83437e-07
2.77068e-06
-9.51694e-07
-1.33524e-06
6.45205e-07
2.36698e-06
-9.47729e-07
-1.80448e-06
6.04939e-07
1.77974e-06
-9.91268e-07
5.68837e-07
1.49853e-06
-2.14481e-06
-1.02552e-06
1.44218e-06
5.14978e-07
1.7648e-06
-1.82097e-06
1.04083e-06
7.20382e-07
2.60162e-06
3.52983e-07
6.49396e-07
3.98599e-06
-4.08698e-07
2.31313e-07
5.02407e-06
-1.17625e-06
2.5858e-07
4.30303e-06
-1.72579e-06
3.20334e-07
2.79105e-06
8.59768e-08
1.70786e-06
-2.07937e-06
1.39141e-06
-4.37214e-08
2.13917e-06
-1.68183e-06
1.05764e-06
1.46989e-07
3.6785e-06
1.52815e-07
1.68045e-07
4.13567e-06
7.85495e-08
3.17425e-08
2.79347e-06
-4.01522e-07
3.19879e-09
3.16426e-06
-1.22958e-06
-1.26536e-07
4.6507e-06
-3.08752e-07
2.32571e-06
-1.76142e-06
1.33614e-06
-6.63768e-07
2.33398e-06
-1.59936e-06
1.21196e-06
-7.55126e-07
4.32097e-06
3.01482e-07
-1.01482e-07
4.2141e-06
1.74741e-07
1.24909e-07
5.4407e-07
5.1697e-07
5.34264e-08
1.16577e-06
-3.05681e-07
-2.51259e-07
5.16608e-06
-3.47594e-07
2.85439e-06
-1.29903e-06
1.14042e-06
-1.10031e-06
2.05394e-06
-1.54967e-06
6.64594e-07
-1.19402e-06
3.6609e-06
4.20078e-08
-5.68454e-07
3.79659e-06
8.44672e-08
4.0885e-07
1.32308e-06
-2.54292e-07
-1.20282e-07
3.05215e-06
-1.04824e-06
-6.89015e-07
4.4624e-06
-6.48362e-07
2.16099e-06
-1.65619e-06
1.06117e-06
-1.41246e-06
1.69138e-06
-1.56558e-06
6.08418e-07
-1.41018e-06
2.50858e-06
-8.69123e-09
-1.03829e-06
4.22883e-06
-2.97756e-07
-1.92709e-07
5.23336e-06
-9.05107e-07
-6.61903e-07
4.37148e-06
-1.40909e-06
-9.62508e-07
2.59629e-06
-1.02477e-06
1.62619e-06
-1.86429e-06
1.04285e-06
1.49818e-06
-1.55818e-06
-1.68787e-06
4.01585e-07
1.72193e-06
-1.5944e-06
-2.3492e-07
2.27801e-06
-1.29093e-06
-5.45293e-07
2.79861e-06
-8.76565e-07
-9.97098e-07
2.2005e-06
-1.1171e-06
-1.46973e-06
1.66416e-06
-1.32554e-06
1.46027e-06
-1.87933e-06
-1.41031e-06
1.94675e-06
1.50516e-06
2.97163e-06
-2.73076e-06
-2.1476e-06
1.01208e-06
1.38882e-06
3.26557e-06
-1.88479e-06
-5.67923e-08
1.22314e-06
3.79809e-06
-1.57666e-06
-9.66911e-07
6.88517e-07
4.21274e-06
-1.22017e-06
-1.69701e-06
5.28263e-07
3.79325e-06
-1.22418e-06
-2.31921e-06
6.21104e-07
3.22775e-06
-1.44663e-06
9.04329e-07
2.94278e-06
-2.92718e-06
-1.74027e-06
1.92085e-06
8.22486e-07
3.18719e-06
-2.66e-06
1.10889e-06
8.82536e-07
3.92051e-06
1.06024e-07
8.78894e-07
5.33356e-06
-7.07644e-07
8.97947e-08
6.43688e-06
-1.49912e-06
-4.08538e-08
5.60107e-06
-2.13932e-06
-3.91668e-08
4.09202e-06
9.53067e-08
3.15105e-06
-2.77295e-06
1.91421e-06
1.85004e-09
3.53325e-06
-2.48734e-06
1.40282e-06
8.22345e-08
4.99059e-06
2.27888e-07
2.36426e-07
5.83438e-06
2.99442e-08
3.85175e-09
3.43649e-06
-5.86313e-07
-7.58295e-08
3.66498e-06
-1.50269e-06
-3.95643e-07
5.92404e-06
-4.31879e-07
3.6686e-06
-2.31811e-06
1.90488e-06
-8.9694e-07
3.72617e-06
-2.39803e-06
1.70692e-06
-1.04361e-06
5.64519e-06
4.50858e-07
-3.24938e-07
6.55879e-06
1.89766e-07
1.04659e-07
7.31767e-07
3.46962e-07
3.33145e-08
9.64545e-07
-3.85846e-07
-2.51474e-07
5.94673e-06
-3.59802e-07
4.15085e-06
-1.75415e-06
1.51416e-06
-1.51201e-06
3.4561e-06
-2.30098e-06
7.66299e-07
-1.56448e-06
4.93008e-06
2.05012e-08
-9.73309e-07
5.02699e-06
5.65986e-08
2.89016e-07
1.1715e-06
-3.58228e-07
-6.95888e-08
3.61124e-06
-1.23287e-06
-6.15408e-07
5.70115e-06
-7.85073e-07
3.53317e-06
-2.17952e-06
1.43235e-06
-2.03034e-06
3.12834e-06
-2.3507e-06
4.92654e-07
-1.91055e-06
3.79484e-06
-3.25724e-07
-1.38407e-06
5.45828e-06
-4.2833e-07
-2.49368e-07
6.19802e-06
-1.01058e-06
-7.16732e-07
5.60106e-06
-1.71892e-06
-1.17729e-06
3.86675e-06
-1.4798e-06
3.09069e-06
-2.48836e-06
1.54099e-06
2.93684e-06
-2.41719e-06
-2.5924e-06
5.28787e-07
3.16162e-06
-2.3375e-06
-3.63101e-07
3.6425e-06
-1.85645e-06
-6.69561e-07
4.11315e-06
-1.25724e-06
-1.21073e-06
3.58449e-06
-1.55926e-06
-1.9034e-06
3.12589e-06
-1.94594e-06
2.91584e-06
-2.60372e-06
-2.23461e-06
2.22394e-06
2.0393e-06
-3.10204e-06
-2.90266e-06
4.71313e-06
1.16613e-06
1.85684e-06
-2.55901e-06
5.02606e-06
-5.51273e-08
1.60345e-06
-2.1496e-06
5.56589e-06
-1.08645e-06
1.00161e-06
-1.73626e-06
5.97904e-06
-1.89713e-06
8.99718e-07
-1.83717e-06
5.54171e-06
-2.59109e-06
1.13153e-06
-2.18604e-06
4.9766e-06
1.51845e-06
-3.26813e-06
-2.57933e-06
4.68098e-06
2.27826e-06
1.17327e-06
-3.16281e-06
4.93828e-06
1.26023e-06
1.15672e-06
5.63937e-06
2.12005e-08
1.14352e-06
7.03308e-06
-1.02034e-06
2.60557e-07
8.12921e-06
-1.90904e-06
8.85219e-08
7.27218e-06
-2.58663e-06
1.82913e-07
5.71864e-06
4.85098e-07
-3.29114e-06
4.88907e-06
2.3552e-06
1.57879e-07
-3.0801e-06
5.27396e-06
1.68325e-06
1.46233e-07
6.6736e-06
3.48838e-07
3.28609e-07
7.82523e-06
-1.00771e-07
-5.79669e-10
4.16372e-06
-1.27669e-06
-4.76304e-08
4.93812e-06
-2.1163e-06
-4.24404e-07
7.3716e-06
-2.84077e-07
-2.9907e-06
5.31233e-06
2.4352e-06
-9.71275e-07
-3.03534e-06
5.45592e-06
2.16955e-06
-1.22244e-06
7.28014e-06
7.2136e-07
-6.75743e-07
9.14191e-06
1.79119e-07
5.74063e-08
1.29533e-06
6.69277e-08
-2.74514e-08
1.10971e-06
-1.08031e-06
-3.64497e-07
7.53647e-06
-4.65492e-07
-2.4765e-06
5.72856e-06
2.02761e-06
-1.78605e-06
-2.9407e-06
5.18439e-06
1.09923e-06
-1.93085e-06
6.56725e-06
3.53964e-08
-1.56901e-06
6.78876e-06
-1.01526e-08
2.62557e-08
1.37797e-06
-9.83102e-07
-5.43138e-07
5.40158e-06
-1.85318e-06
-9.29283e-07
7.13622e-06
-1.11496e-06
-2.86085e-06
5.19059e-06
1.91469e-06
-2.47358e-06
-2.95644e-06
4.85787e-06
7.32584e-07
-2.40456e-06
5.45091e-06
-3.68224e-07
-1.965e-06
6.95547e-06
-7.04358e-07
-8.8927e-07
7.83762e-06
-1.43105e-06
-1.28318e-06
7.06807e-06
-2.22433e-06
-1.72021e-06
5.45123e-06
-1.99916e-06
-3.06342e-06
4.81431e-06
1.96582e-06
-2.95245e-06
-3.20656e-06
4.65666e-06
8.27064e-07
-2.99358e-06
4.88958e-06
-2.64282e-07
-2.55016e-06
5.31928e-06
-7.96184e-07
-1.96418e-06
5.72018e-06
-1.48518e-06
-2.26773e-06
5.25839e-06
-2.28208e-06
-2.64615e-06
4.84912e-06
-3.078e-06
-2.92096e-06
4.6338e-06
-2.38732e-06
-2.33273e-07
1.08591e-07
3.7892e-07
-2.56764e-06
-3.71327e-07
1.29415e-07
4.23145e-07
-2.79627e-06
-3.35532e-07
1.43039e-07
4.19811e-07
-3.05078e-06
-3.13217e-07
1.49251e-07
4.17055e-07
-3.31121e-06
-3.01903e-07
1.4617e-07
4.17032e-07
-3.56887e-06
-2.9328e-07
1.35467e-07
4.16444e-07
-3.81861e-06
-2.83154e-07
1.17666e-07
4.14527e-07
-2.78093e-07
9.41755e-08
4.2017e-07
-4.05488e-06
-2.34212e-06
-1.14715e-07
1.23156e-07
-2.54448e-06
-3.14001e-07
1.45652e-07
-2.81824e-06
-2.24481e-07
1.62697e-07
-3.10655e-06
-1.96002e-07
1.70432e-07
-3.39358e-06
-1.82659e-07
1.6811e-07
-3.66631e-06
-1.77201e-07
1.5723e-07
-3.91166e-06
-1.75145e-07
1.37423e-07
-1.72083e-07
1.1155e-07
-4.12988e-06
-2.03785e-06
-7.21707e-08
1.40763e-07
-2.35218e-06
-1.62223e-07
1.62772e-07
-2.61781e-06
-1.34392e-07
1.76693e-07
-2.88251e-06
-1.13833e-07
1.8353e-07
-3.14717e-06
-1.01823e-07
1.81358e-07
-3.40278e-06
-9.12795e-08
1.68818e-07
-3.64006e-06
-8.452e-08
1.49064e-07
-7.74813e-08
1.23423e-07
-3.85881e-06
-1.97567e-06
-8.24303e-08
1.62983e-07
-2.29112e-06
6.22503e-09
1.46943e-07
-2.55434e-06
-4.58546e-08
1.73555e-07
-2.80001e-06
-5.35699e-08
1.86022e-07
-3.03722e-06
-4.87074e-08
1.84636e-07
-3.2603e-06
-4.28446e-08
1.74386e-07
-3.46273e-06
-3.76918e-08
1.54582e-07
-3.13627e-08
1.28289e-07
-3.63728e-06
-2.09296e-06
-5.34611e-08
1.31846e-07
-2.37399e-06
1.41108e-07
1.4568e-07
-2.65101e-06
6.60635e-08
1.64652e-07
-2.93478e-06
4.46189e-08
1.85714e-07
-3.202e-06
3.61719e-08
1.83832e-07
-3.45777e-06
3.95534e-08
1.72585e-07
-3.69621e-06
4.6742e-08
1.53364e-07
5.25824e-08
1.28128e-07
-3.90657e-06
-2.3866e-06
5.84086e-08
1.21463e-07
-2.57453e-06
1.86246e-07
1.44397e-07
-2.84559e-06
1.74974e-07
1.63079e-07
-3.12652e-06
1.51533e-07
1.7277e-07
-3.40653e-06
1.44255e-07
1.71357e-07
-3.67117e-06
1.44553e-07
1.60476e-07
-3.91034e-06
1.44629e-07
1.41376e-07
1.43886e-07
1.15653e-07
-4.11724e-06
-2.38727e-06
1.0588e-07
2.02286e-07
-2.57116e-06
1.25228e-07
2.43504e-07
-2.80162e-06
1.40792e-07
2.63025e-07
-3.05747e-06
1.46402e-07
2.62827e-07
-3.32056e-06
1.43821e-07
2.6529e-07
-3.57819e-06
1.33586e-07
2.67924e-07
-3.82025e-06
1.16428e-07
2.70215e-07
9.32178e-08
2.74139e-07
-4.04293e-06
-2.289e-06
-3.4646e-07
3.889e-07
4.57656e-07
-2.70521e-06
-3.37512e-07
4.2735e-07
4.55686e-07
-3.12933e-06
-3.22982e-07
4.41676e-07
4.48372e-07
-3.54148e-06
-3.09887e-07
4.3027e-07
4.4092e-07
-3.92546e-06
-2.98294e-07
3.95037e-07
4.33307e-07
-4.26743e-06
-2.87458e-07
3.39907e-07
4.24973e-07
-4.55888e-06
-2.76878e-07
2.70405e-07
4.15577e-07
-2.66489e-07
1.92635e-07
4.05331e-07
-4.79619e-06
-2.34485e-06
-2.88851e-07
5.02595e-07
-2.80007e-06
-2.63951e-07
5.27148e-07
-3.26109e-06
-2.3619e-07
5.36878e-07
-3.70255e-06
-2.16639e-07
5.18546e-07
-4.10422e-06
-2.01208e-07
4.72696e-07
-4.44964e-06
-1.88475e-07
4.03642e-07
-4.72978e-06
-1.77795e-07
3.18522e-07
-1.68491e-07
2.24942e-07
-4.94117e-06
-2.23733e-06
-2.17381e-07
6.09717e-07
-2.74272e-06
-1.89681e-07
5.93812e-07
-3.23853e-06
-1.67217e-07
6.03503e-07
-3.70727e-06
-1.50099e-07
5.85802e-07
-4.12763e-06
-1.35683e-07
5.36262e-07
-4.48369e-06
-1.23338e-07
4.59713e-07
-4.76441e-06
-1.12594e-07
3.6463e-07
-1.03198e-07
2.59844e-07
-4.96604e-06
-2.11153e-06
-1.05714e-07
6.70802e-07
-2.66991e-06
-9.23532e-08
6.07987e-07
-3.19371e-06
-9.15252e-08
6.21636e-07
-3.67869e-06
-8.7521e-08
6.08404e-07
-4.11048e-06
-7.95943e-08
5.60382e-07
-4.47168e-06
-7.0432e-08
4.82723e-07
-4.75335e-06
-6.12929e-08
3.84989e-07
-5.26632e-08
2.76847e-07
-4.95245e-06
-2.22562e-06
-3.38606e-08
5.83071e-07
-2.73228e-06
-2.68238e-08
5.86735e-07
-3.23323e-06
-2.86455e-08
6.02702e-07
-3.69837e-06
-2.549e-08
5.8881e-07
-4.11572e-06
-2.02497e-08
5.41878e-07
-4.46707e-06
-1.35304e-08
4.67122e-07
-4.74214e-06
-6.29644e-09
3.7346e-07
1.02359e-09
2.69821e-07
-4.93746e-06
-2.28517e-06
5.43405e-08
4.90845e-07
-2.75419e-06
6.31005e-08
5.23379e-07
-3.22325e-06
6.66869e-08
5.36756e-07
-3.66696e-06
6.97746e-08
5.21207e-07
-4.06742e-06
7.35777e-08
4.77933e-07
-4.40938e-06
7.76182e-08
4.11296e-07
-4.684e-06
8.14449e-08
3.28264e-07
8.48802e-08
2.36398e-07
-4.88859e-06
-2.1902e-06
3.77628e-07
2.16129e-07
-2.63749e-06
4.16739e-07
2.18797e-07
-3.08206e-06
4.3127e-07
2.2063e-07
-3.50763e-06
4.20641e-07
2.21023e-07
-3.89829e-06
3.87002e-07
2.21062e-07
-4.24163e-06
3.34041e-07
2.20518e-07
-4.53003e-06
2.67055e-07
2.19208e-07
1.9202e-07
2.17305e-07
-4.76126e-06
-2.72064e-06
-3.7641e-07
8.4562e-07
4.95751e-07
-3.36416e-06
-3.17956e-07
9.26739e-07
4.62347e-07
-4.04509e-06
-2.73617e-07
9.62493e-07
4.3394e-07
-4.73516e-06
-2.40203e-07
9.50799e-07
4.09937e-07
-5.40753e-06
-2.14339e-07
8.92937e-07
3.88949e-07
-6.03447e-06
-1.93899e-07
7.90721e-07
3.70127e-07
-6.58533e-06
-1.77562e-07
6.45941e-07
3.52949e-07
-1.64434e-07
4.64288e-07
3.37053e-07
-7.02956e-06
-2.71372e-06
-3.45336e-07
1.10623e-06
-3.41176e-06
-2.56475e-07
1.16402e-06
-4.13616e-06
-2.00362e-07
1.18829e-06
-4.85818e-06
-1.6131e-07
1.16189e-06
-5.55033e-06
-1.32628e-07
1.08327e-06
-6.18324e-06
-1.10966e-07
9.5372e-07
-6.72238e-06
-9.45687e-08
7.74728e-07
-8.24707e-08
5.5347e-07
-7.13283e-06
-2.51681e-06
-3.00041e-07
1.32015e-06
-3.29176e-06
-2.16852e-07
1.32945e-06
-4.07093e-06
-1.67996e-07
1.35055e-06
-4.83224e-06
-1.35588e-07
1.32158e-06
-5.55139e-06
-1.11429e-07
1.23434e-06
-6.19976e-06
-9.21919e-08
1.08938e-06
-6.74134e-06
-7.66933e-08
8.88361e-07
-6.43276e-08
6.39561e-07
-7.13919e-06
-2.24652e-06
-1.12965e-07
1.43152e-06
-3.1314e-06
-1.11183e-07
1.38747e-06
-3.97098e-06
-1.15496e-07
1.40892e-06
-4.76778e-06
-1.12593e-07
1.38235e-06
-5.50972e-06
-1.03575e-07
1.29458e-06
-6.17276e-06
-9.25002e-08
1.14612e-06
-6.72199e-06
-8.12659e-08
9.38804e-07
-7.05317e-08
6.81374e-07
-7.12032e-06
-2.43894e-06
-4.64063e-08
1.29951e-06
-3.22254e-06
-7.22365e-08
1.33158e-06
-4.00727e-06
-8.64612e-08
1.35854e-06
-4.77411e-06
-8.99195e-08
1.33309e-06
-5.49825e-06
-8.66619e-08
1.24918e-06
-6.1512e-06
-8.01009e-08
1.10769e-06
-6.69696e-06
-7.20614e-08
9.10022e-07
-6.33974e-08
6.64172e-07
-7.09844e-06
-2.54395e-06
2.62384e-08
1.09807e-06
-3.26685e-06
5.2484e-09
1.16897e-06
-4.00927e-06
-6.68898e-09
1.19955e-06
-4.74503e-06
-1.16916e-08
1.17885e-06
-5.44773e-06
-1.22934e-08
1.10634e-06
-6.08934e-06
-1.02628e-08
9.83121e-07
-6.63675e-06
-6.74586e-09
8.10393e-07
-2.51427e-09
5.94798e-07
-7.056e-06
-2.51218e-06
8.37377e-07
1.99532e-07
-3.19763e-06
9.22272e-07
1.85342e-07
-3.90975e-06
9.61647e-07
1.75195e-07
-4.62256e-06
9.54966e-07
1.66926e-07
-5.31132e-06
9.03518e-07
1.60042e-07
-5.95048e-06
8.0874e-07
1.54288e-07
-6.51159e-06
6.71949e-07
1.4953e-07
4.98203e-07
1.45692e-07
-6.96593e-06
-3.96103e-06
-3.22398e-07
1.70755e-06
4.94717e-07
-5.14507e-06
-2.14489e-07
1.90426e-06
4.21423e-07
-6.41751e-06
-1.34274e-07
2.00656e-06
3.62971e-07
-7.69541e-06
-7.87418e-08
1.9928e-06
3.14916e-07
-8.87794e-06
-4.12404e-08
1.84208e-06
2.74802e-07
-9.85208e-06
-1.68557e-08
1.54118e-06
2.40654e-07
-1.05023e-05
-9.34214e-10
1.08673e-06
2.10401e-07
7.07709e-09
4.78562e-07
1.82243e-07
-1.07059e-05
-3.88689e-06
-3.16486e-07
2.2147e-06
-5.14346e-06
-1.82065e-07
2.38852e-06
-6.47405e-06
-9.3936e-08
2.47881e-06
-7.80047e-06
-3.64075e-08
2.44619e-06
-9.0198e-06
8.80108e-10
2.26056e-06
-1.00088e-05
2.44878e-08
1.9014e-06
-1.06318e-05
3.67948e-08
1.36001e-06
4.0372e-08
6.28673e-07
-1.07403e-05
-3.5809e-06
-3.18176e-07
2.58499e-06
-4.94462e-06
-2.08791e-07
2.72019e-06
-6.35216e-06
-1.43126e-07
2.80749e-06
-7.7389e-06
-1.00305e-07
2.77232e-06
-9.00653e-06
-7.00374e-08
2.57293e-06
-1.00261e-05
-4.78486e-08
2.18128e-06
-1.06518e-05
-3.25429e-08
1.5833e-06
-2.27809e-08
7.64361e-07
-1.07135e-05
-3.23353e-06
-1.51663e-07
2.74466e-06
-4.72934e-06
-1.67208e-07
2.84196e-06
-6.21046e-06
-1.81706e-07
2.92877e-06
-7.6433e-06
-1.80861e-07
2.89581e-06
-8.94335e-06
-1.70014e-07
2.69464e-06
-9.98455e-06
-1.54758e-07
2.29417e-06
-1.06191e-05
-1.37216e-07
1.67799e-06
-1.18117e-07
8.28412e-07
-1.0671e-05
-3.46768e-06
-1.36932e-07
2.57327e-06
-4.83557e-06
-1.94093e-07
2.7266e-06
-6.25033e-06
-2.28588e-07
2.82034e-06
-7.64686e-06
-2.40649e-07
2.78951e-06
-8.9235e-06
-2.38444e-07
2.59432e-06
-9.95059e-06
-2.27046e-07
2.20702e-06
-1.05821e-05
-2.08962e-07
1.61322e-06
-1.85713e-07
7.97012e-07
-1.06475e-05
-3.65004e-06
-9.06594e-08
2.21387e-06
-4.93438e-06
-1.41174e-07
2.40071e-06
-6.28844e-06
-1.7347e-07
2.49872e-06
-7.6349e-06
-1.88706e-07
2.47353e-06
-8.87051e-06
-1.92237e-07
2.29586e-06
-9.87186e-06
-1.87697e-07
1.94518e-06
-1.05053e-05
-1.77463e-07
1.41236e-06
-1.63604e-07
6.87339e-07
-1.062e-05
-3.70314e-06
1.70657e-06
1.39988e-07
-4.93415e-06
1.90899e-06
1.0346e-07
-6.23835e-06
2.01707e-06
7.55795e-08
-7.53505e-06
2.0101e-06
5.30339e-08
-8.72621e-06
1.86765e-06
3.49282e-08
-9.70213e-06
1.5765e-06
2.05746e-08
-1.03499e-05
1.13292e-06
9.40993e-09
5.33924e-07
1.33978e-09
-1.05506e-05
-4.48568e-06
-5.66301e-08
2.39398e-07
2.74237e-06
-5.92259e-06
9.40981e-08
1.04803e-07
3.14228e-06
-7.5735e-06
2.1921e-07
-7.54611e-09
3.44576e-06
-9.40183e-06
3.22976e-07
-1.19651e-07
3.618e-06
-1.13881e-05
4.05365e-07
-2.1035e-07
3.63352e-06
-1.35063e-05
4.64395e-07
-2.8248e-07
3.47726e-06
-1.57305e-05
4.90478e-07
-3.30882e-07
3.15131e-06
4.76669e-07
-3.49868e-07
-1.80857e-05
2.70692e-06
-4.55537e-06
-1.14866e-07
3.53721e-06
-6.02638e-06
4.43531e-08
3.90922e-06
-7.68901e-06
1.6511e-07
4.19558e-06
-9.52279e-06
2.5529e-07
4.34776e-06
-1.15054e-05
3.22721e-07
4.32573e-06
-1.36082e-05
3.67542e-07
4.10109e-06
-1.58137e-05
3.85696e-07
3.67017e-06
3.72407e-07
-1.81826e-05
3.10173e-06
-4.38464e-06
-2.28801e-07
4.09303e-06
-5.94063e-06
-1.02991e-07
4.42361e-06
-7.6518e-06
-1.71364e-08
4.70095e-06
-9.51602e-06
4.15923e-08
4.85021e-06
-1.15226e-05
8.7469e-08
4.81469e-06
-1.36454e-05
1.19513e-07
4.55204e-06
-1.58646e-05
1.3636e-07
4.05161e-06
1.3693e-07
-1.82595e-05
3.39458e-06
-4.09833e-06
-1.79138e-07
4.31704e-06
-5.78044e-06
-1.91926e-07
4.61317e-06
-7.55507e-06
-1.98439e-07
4.88477e-06
-9.46139e-06
-1.90491e-07
5.03418e-06
-1.14988e-05
-1.76821e-07
4.99637e-06
-1.36453e-05
-1.6243e-07
4.72248e-06
-1.58815e-05
-1.47945e-07
4.1983e-06
-1.31485e-07
-1.8295e-05
3.51027e-06
-4.28812e-06
-2.538e-07
4.07553e-06
-5.8642e-06
-3.10493e-07
4.4214e-06
-7.59937e-06
-3.48307e-07
4.70544e-06
-9.49151e-06
-3.67383e-07
4.85859e-06
-1.15244e-05
-3.75461e-07
4.82589e-06
-1.36704e-05
-3.75165e-07
4.56556e-06
-1.59083e-05
-3.63983e-07
4.06705e-06
-3.36937e-07
-1.8318e-05
3.41197e-06
-4.39591e-06
-2.31499e-07
3.52434e-06
-5.91948e-06
-2.94595e-07
3.90854e-06
-7.62935e-06
-3.41974e-07
4.2024e-06
-9.50931e-06
-3.73637e-07
4.35983e-06
-1.15355e-05
-3.95274e-07
4.34195e-06
-1.36786e-05
-4.07804e-07
4.12087e-06
-1.59196e-05
-4.04255e-07
3.69355e-06
-3.79436e-07
-1.8319e-05
3.12914e-06
-4.37152e-06
3.6047e-08
2.7327e-06
-5.87352e-06
-1.97656e-08
3.13632e-06
-7.5731e-06
-6.70941e-08
3.44197e-06
-9.4473e-06
-1.05369e-07
3.6161e-06
-1.14734e-05
-1.35301e-07
3.63378e-06
-1.36283e-05
-1.5677e-07
3.48047e-06
-1.58894e-05
-1.69423e-07
3.15912e-06
-1.72835e-07
-1.8283e-05
2.72085e-06
-1.82936e-06
2.32333e-07
1.15796e-07
-1.13827e-07
-2.05432e-06
2.02865e-07
1.34934e-07
-1.12747e-07
-2.34123e-06
2.24498e-07
1.44318e-07
-8.18091e-08
-2.64321e-06
2.18462e-07
1.44615e-07
-6.09705e-08
-2.93906e-06
2.0191e-07
1.35318e-07
-4.2009e-08
-3.22692e-06
1.9776e-07
1.19537e-07
-2.94043e-08
-3.50103e-06
1.95947e-07
9.65853e-08
-1.83625e-08
1.7787e-07
6.77511e-08
-3.22688e-09
-3.74341e-06
-1.83832e-06
2.05225e-07
1.51327e-07
-1.99135e-06
1.88845e-07
1.67345e-07
-2.16084e-06
2.17111e-07
1.76521e-07
-2.33008e-06
2.12163e-07
1.74112e-07
-2.52107e-06
2.32212e-07
1.61757e-07
-2.72614e-06
2.57996e-07
1.45988e-07
-2.91411e-06
2.61776e-07
1.21749e-07
2.56788e-07
9.48193e-08
-3.08756e-06
-1.99739e-06
1.45318e-07
2.00787e-07
-2.15892e-06
1.47573e-07
2.09351e-07
-2.33198e-06
1.6617e-07
2.24117e-07
-2.53876e-06
1.89357e-07
2.2916e-07
-2.75183e-06
2.1704e-07
2.28276e-07
-2.93122e-06
2.27687e-07
2.09815e-07
-3.08397e-06
2.3261e-07
1.81961e-07
2.34464e-07
1.48889e-07
-3.21049e-06
-2.20173e-06
1.18577e-07
2.56982e-07
-2.38606e-06
8.06844e-08
2.45339e-07
-2.56789e-06
7.63695e-08
2.71875e-07
-2.72534e-06
5.99738e-08
2.86967e-07
-2.82732e-06
2.69146e-08
2.92268e-07
-2.88245e-06
-1.77335e-09
2.8469e-07
-2.90521e-06
-1.17447e-08
2.67188e-07
-2.42841e-08
2.42563e-07
-2.88899e-06
-2.05577e-06
4.68158e-08
2.17654e-07
-2.26381e-06
6.42537e-08
2.24627e-07
-2.42871e-06
-5.06653e-09
2.46582e-07
-2.58779e-06
-3.01957e-08
2.49485e-07
-2.75755e-06
-4.67455e-08
2.43603e-07
-2.91786e-06
-7.10071e-08
2.29647e-07
-3.04206e-06
-8.98812e-08
2.02846e-07
-1.0511e-07
1.69482e-07
-3.13127e-06
-1.91118e-06
1.3841e-08
1.56508e-07
-2.05386e-06
3.58019e-08
1.69398e-07
-2.22812e-06
-1.02101e-08
1.76838e-07
-2.41081e-06
-2.19593e-08
1.77015e-07
-2.60074e-06
-2.05148e-08
1.63732e-07
-2.79874e-06
-2.18928e-08
1.48116e-07
-2.98235e-06
-2.93325e-08
1.24816e-07
-3.67843e-08
9.84231e-08
-3.14937e-06
-1.85062e-06
1.18417e-07
1.10502e-07
-2.07675e-06
1.36538e-07
1.25055e-07
-2.36385e-06
1.45492e-07
1.31144e-07
-2.67508e-06
1.44827e-07
1.45326e-07
-2.98658e-06
1.34461e-07
1.57571e-07
-3.29115e-06
1.16107e-07
1.66598e-07
-3.58341e-06
9.02779e-08
1.7272e-07
5.81222e-08
1.75275e-07
-3.85349e-06
-1.75689e-06
2.09138e-07
3.96556e-07
-5.13935e-08
-2.21271e-06
2.02043e-07
4.30281e-07
-4.18306e-08
-2.67173e-06
1.93907e-07
4.38587e-07
-2.92978e-08
-3.11461e-06
1.85049e-07
4.20226e-07
-1.7909e-08
-3.52527e-06
1.765e-07
3.77463e-07
-8.06112e-09
-3.88909e-06
1.68908e-07
3.14418e-07
-3.96557e-11
-4.1979e-06
1.62328e-07
2.36646e-07
6.38829e-09
1.56286e-07
1.5039e-07
1.14907e-08
-4.44837e-06
-1.7992e-06
2.39833e-07
5.40896e-07
-2.22972e-06
2.3651e-07
5.6319e-07
-2.6654e-06
2.37625e-07
5.68385e-07
-3.08872e-06
2.37243e-07
5.4511e-07
-3.48108e-06
2.37097e-07
4.93383e-07
-3.82096e-06
2.37694e-07
4.17074e-07
-4.09765e-06
2.37665e-07
3.23102e-07
2.37324e-07
2.19882e-07
-4.30375e-06
-1.73221e-06
1.96303e-07
6.7641e-07
-2.14826e-06
1.87972e-07
6.73784e-07
-2.55429e-06
1.84314e-07
6.83367e-07
-2.93893e-06
1.82173e-07
6.68771e-07
-3.27624e-06
1.79581e-07
6.23052e-07
-3.55369e-06
1.75915e-07
5.49008e-07
-3.76033e-06
1.71893e-07
4.54364e-07
1.67629e-07
3.47736e-07
-3.88947e-06
-1.69763e-06
1.59401e-07
7.61523e-07
-2.12213e-06
1.25988e-07
7.31631e-07
-2.5151e-06
1.04942e-07
7.441e-07
-2.87202e-06
8.69165e-08
7.39019e-07
-3.17327e-06
6.81544e-08
7.04893e-07
-3.40467e-06
4.96197e-08
6.42368e-07
-3.55551e-06
3.20254e-08
5.57899e-07
1.4993e-08
4.59222e-07
-3.61953e-06
-1.77205e-06
1.082e-07
7.06006e-07
-2.18808e-06
7.68516e-08
6.89574e-07
-2.58205e-06
4.92331e-08
6.96131e-07
-2.9528e-06
2.53475e-08
6.81741e-07
-3.28053e-06
2.09636e-09
6.37367e-07
-3.54793e-06
-1.75071e-08
5.64192e-07
-3.7451e-06
-3.76545e-08
4.6974e-07
-5.70421e-08
3.63387e-07
-3.86691e-06
-1.91166e-06
1.02699e-07
5.58696e-07
-2.32483e-06
8.64e-08
5.72953e-07
-2.74765e-06
7.32084e-08
5.75403e-07
-3.1589e-06
6.29697e-08
5.50516e-07
-3.54399e-06
5.38017e-08
4.97107e-07
-3.87778e-06
4.53741e-08
4.18978e-07
-4.15062e-06
3.67998e-08
3.23218e-07
2.81179e-08
2.17572e-07
-4.35487e-06
-1.89512e-06
4.09163e-07
2.06481e-07
-2.31954e-06
4.41262e-07
2.05898e-07
-2.75561e-06
4.48338e-07
2.06257e-07
-3.1832e-06
4.28074e-07
2.07224e-07
-3.58498e-06
3.82506e-07
2.07539e-07
-3.94569e-06
3.15943e-07
2.06271e-07
-4.25631e-06
2.34384e-07
2.03333e-07
1.44315e-07
1.98851e-07
-4.51321e-06
-2.22511e-06
2.7624e-07
8.53386e-07
-6.58487e-08
-2.93109e-06
2.54023e-07
9.32815e-07
-5.03462e-08
-3.6574e-06
2.35841e-07
9.65851e-07
-3.66205e-08
-4.38019e-06
2.17945e-07
9.50822e-07
-2.5593e-08
-5.07526e-06
2.00591e-07
8.88981e-07
-1.69217e-08
-5.71699e-06
1.8437e-07
7.8217e-07
-1.02687e-08
-6.27686e-06
1.69564e-07
6.32295e-07
-5.24273e-09
1.5634e-07
4.45195e-07
-1.46827e-09
-6.72649e-06
-2.24616e-06
3.55881e-07
1.14228e-06
-2.9474e-06
3.12968e-07
1.20567e-06
-3.66333e-06
2.89116e-07
1.23119e-06
-4.37447e-06
2.69196e-07
1.20515e-06
-5.05577e-06
2.49921e-07
1.12545e-06
-5.67825e-06
2.31131e-07
9.92894e-07
-6.20755e-06
2.13126e-07
8.08947e-07
1.96342e-07
5.80794e-07
-6.6084e-06
-2.19377e-06
2.98204e-07
1.37847e-06
-2.86346e-06
2.42874e-07
1.41366e-06
-3.54692e-06
2.14007e-07
1.44198e-06
-4.22435e-06
1.93335e-07
1.42214e-06
-4.87054e-06
1.74546e-07
1.34468e-06
-5.45563e-06
1.57086e-07
1.20821e-06
-5.94235e-06
1.4098e-07
1.01328e-06
1.2544e-07
7.67609e-07
-6.29127e-06
-2.1853e-06
1.44574e-07
1.50122e-06
-2.82079e-06
1.06129e-07
1.5039e-06
-3.47655e-06
8.05154e-08
1.53338e-06
-4.12483e-06
5.87226e-08
1.52196e-06
-4.73813e-06
3.88972e-08
1.45389e-06
-5.28552e-06
2.11489e-08
1.32576e-06
-5.7293e-06
5.92191e-09
1.1368e-06
-5.99083e-09
8.94595e-07
-6.03203e-06
-2.28294e-06
4.62612e-08
1.40547e-06
-2.93217e-06
2.12453e-08
1.42363e-06
-3.60018e-06
-1.88494e-09
1.44653e-06
-4.26607e-06
-1.79864e-08
1.42438e-06
-4.90209e-06
-3.27673e-08
1.34509e-06
-5.47886e-06
-4.43819e-08
1.20654e-06
-5.9594e-06
-5.306e-08
1.00933e-06
-5.92326e-08
7.61421e-07
-6.30276e-06
-2.44313e-06
6.9087e-08
1.158e-06
-3.10855e-06
4.99218e-08
1.20967e-06
-3.7982e-06
3.38507e-08
1.22932e-06
-4.48605e-06
2.21205e-08
1.19831e-06
-5.148e-06
1.32956e-08
1.11307e-06
-5.75422e-06
6.55599e-09
9.74357e-07
-6.26914e-06
1.19271e-09
7.8398e-07
-3.00361e-09
5.49681e-07
-6.65736e-06
-2.44791e-06
8.63287e-07
2.23695e-07
-3.11016e-06
9.38881e-07
2.14542e-07
-3.80331e-06
9.68317e-07
2.07065e-07
-4.50152e-06
9.48377e-07
2.00117e-07
-5.17889e-06
8.80241e-07
1.93056e-07
-5.80798e-06
7.66127e-07
1.85592e-07
-6.35844e-06
6.08471e-07
1.77695e-07
4.13876e-07
1.69481e-07
-6.80035e-06
-3.57784e-06
3.86535e-07
1.71651e-06
-8.86359e-08
-4.84329e-06
3.56669e-07
1.91611e-06
-7.40944e-08
-6.16684e-06
3.31729e-07
2.02113e-06
-6.3137e-08
-7.47305e-06
3.03594e-07
2.00983e-06
-5.61368e-08
-8.66611e-06
2.73099e-07
1.86088e-06
-5.18119e-08
-9.6363e-06
2.41586e-07
1.56028e-06
-4.93782e-08
-1.02696e-05
2.10048e-07
1.10396e-06
-4.83429e-08
1.79647e-07
4.90873e-07
-4.83317e-08
-1.04465e-05
-3.54566e-06
4.83091e-07
2.24135e-06
-4.82752e-06
4.18384e-07
2.42617e-06
-6.1673e-06
3.78648e-07
2.52435e-06
-7.49734e-06
3.39806e-07
2.49919e-06
-8.71634e-06
2.98606e-07
2.31904e-06
-9.69869e-06
2.55782e-07
1.96112e-06
-1.03066e-05
2.12216e-07
1.41472e-06
1.68482e-07
6.70655e-07
-1.03853e-05
-3.44481e-06
3.82565e-07
2.62336e-06
-4.69735e-06
2.99653e-07
2.78525e-06
-6.0192e-06
2.55369e-07
2.88734e-06
-7.34516e-06
2.206e-07
2.86751e-06
-8.57181e-06
1.87781e-07
2.68224e-06
-9.56418e-06
1.5628e-07
2.30015e-06
-1.01695e-05
1.26355e-07
1.70444e-06
9.84295e-08
8.77599e-07
-1.02095e-05
-3.43026e-06
1.25605e-07
2.79081e-06
-4.63244e-06
8.08999e-08
2.92514e-06
-5.92194e-06
4.94988e-08
3.02897e-06
-7.2229e-06
2.62839e-08
3.01742e-06
-8.43095e-06
1.00673e-08
2.83968e-06
-9.40941e-06
4.16741e-10
2.46008e-06
-9.99967e-06
-4.98147e-09
1.85835e-06
-5.92044e-09
1.01135e-06
-1.00122e-05
-3.56328e-06
-3.36002e-08
2.64104e-06
-4.78677e-06
-5.84875e-08
2.78679e-06
-6.09097e-06
-8.18523e-08
2.88228e-06
-7.40386e-06
-9.45319e-08
2.85823e-06
-8.62138e-06
-9.64791e-08
2.6692e-06
-9.60809e-06
-8.98187e-08
2.28345e-06
-1.02114e-05
-7.66951e-08
1.68428e-06
-5.89337e-08
8.55065e-07
-1.02521e-05
-3.77924e-06
-4.58183e-09
2.24868e-06
-5.0156e-06
-3.32107e-08
2.42111e-06
-6.32295e-06
-5.64512e-08
2.51148e-06
-7.6297e-06
-6.8459e-08
2.47909e-06
-8.8328e-06
-7.15386e-08
2.29131e-06
-9.80498e-06