/*--------------------------------*- C++ -*----------------------------------*\
| =========                 |                                                 |
| \\      /  F ield         | OpenFOAM: The Open Source CFD Toolbox           |
|  \\    /   O peration     | Version:  plus.master                           |
|   \\  /    A nd           | Web:      www.OpenFOAM.com                      |
|    \\/     M anipulation  |                                                 |
\*---------------------------------------------------------------------------*/
FoamFile
{
    version     2.0;
    format      ascii;
    class       volScalarField;
    location    "5.2";
    object      epsilon;
}
// * * * * * * * * * * * * * * * * * * * * * * * * * * * * * * * * * * * * * //

dimensions      [0 2 -3 0 0 0 0];

internalField   nonuniform List<scalar> 
47285
(
0.000212442
0.000608871
0.00429846
0.0102701
0.00359816
0.000471978
0.000173231
0.000565947
0.017042
0.135281
0.284256
0.132784
0.0169608
0.000575722
0.00398503
0.132752
0.185866
0.881715
0.209807
0.144148
0.00486113
0.00774978
0.228779
0.916953
1.00166
1.16769
0.28649
0.0110441
0.00313518
0.122251
0.202553
1.18482
0.20896
0.119475
0.00354843
0.000465885
0.0164968
0.146403
0.294205
0.120176
0.013463
0.000405658
0.000203912
0.000649796
0.00520679
0.0112722
0.00351647
0.000413173
0.00015844
0.00184173
0.00856522
0.0423438
0.0961343
0.0444083
0.00886964
0.00161981
0.00798531
0.0585525
0.296717
0.794718
0.352148
0.0852795
0.0101337
0.034709
0.264462
0.846176
4.30863
1.12374
0.46239
0.0669045
0.0608661
0.580569
4.82204
3.55553
4.02547
1.30724
0.165371
0.0311084
0.26764
0.973139
4.13505
1.30133
0.435976
0.0549347
0.00721721
0.0665473
0.39289
1.16736
0.416887
0.0815439
0.00787315
0.00168848
0.00885136
0.0562853
0.150955
0.0512459
0.00786527
0.00140692
0.00619372
0.0203199
0.0775347
0.174581
0.0989171
0.0253986
0.00599042
0.0185086
0.0986793
0.429983
1.18231
0.650603
0.197887
0.0288631
0.0578143
0.35793
1.57985
5.85638
2.39816
0.936428
0.160794
0.10074
0.815016
6.54607
4.79134
5.06465
2.57889
0.38195
0.0574031
0.422568
2.06341
5.06654
2.88546
0.968713
0.138458
0.0172262
0.123216
0.680648
2.16032
0.888589
0.203772
0.0230207
0.00567368
0.0205265
0.111946
0.308559
0.120608
0.0224321
0.00523246
0.0147814
0.035422
0.112419
0.238564
0.143749
0.0426993
0.0144247
0.0320452
0.138318
0.546528
1.38128
0.877179
0.27431
0.0447727
0.0812798
0.448021
1.97164
5.34872
3.16059
1.26275
0.205502
0.135286
0.944289
6.10638
5.0147
4.84124
3.333
0.474444
0.0797298
0.529038
2.66178
4.62238
3.99606
1.27652
0.175331
0.0292193
0.159521
0.854485
2.54428
1.14285
0.262304
0.0365078
0.0136506
0.032879
0.139684
0.367747
0.153422
0.0359351
0.0130914
0.0194691
0.0427134
0.127025
0.255216
0.148362
0.0449352
0.0180893
0.038573
0.156415
0.593586
1.36303
0.882139
0.249928
0.0436262
0.0918041
0.488981
2.03392
4.25156
3.21347
1.1726
0.169961
0.147729
0.960105
5.12414
4.58815
4.2815
3.29628
0.413362
0.0850168
0.532582
2.64568
3.78238
4.13522
1.14428
0.143531
0.0329305
0.151797
0.779183
2.24299
1.01177
0.214104
0.0351857
0.017406
0.0352051
0.123216
0.311076
0.130198
0.035317
0.0162931
0.000138337
0.000133779
0.000130783
0.00012673
0.000121895
0.000118134
0.000115422
0.000112704
0.000203434
0.000147124
0.000135424
0.000127974
0.000121976
0.000116745
0.000112403
0.000108709
0.000829423
0.000228341
0.00014276
0.000127537
0.000120487
0.000115635
0.000111621
0.00010708
0.00177137
0.000340758
0.000153245
0.000126164
0.00011771
0.000112136
0.000107586
0.000102464
0.000610782
0.000198095
0.000140453
0.00012812
0.000120462
0.000115289
0.000111132
0.000106336
0.000163495
0.000139275
0.000135756
0.000127982
0.000121331
0.000115531
0.000110465
0.000105859
0.00013358
0.000134817
0.000132401
0.000126241
0.000120939
0.000116367
0.000112146
0.000108992
0.000672363
0.00048338
0.000403626
0.000346607
0.000301746
0.000265748
0.000236726
0.00021301
0.0014836
0.00060055
0.000433581
0.000357279
0.000305569
0.000265966
0.00023464
0.000209391
0.005554
0.000939623
0.00049106
0.00037752
0.000316305
0.000272047
0.000237095
0.000209193
0.0121937
0.00129905
0.000531576
0.000389326
0.000323146
0.000276802
0.000240439
0.00021118
0.0041678
0.000836917
0.00048331
0.000378973
0.00031899
0.000274328
0.000238784
0.000210224
0.00110242
0.000561359
0.000436952
0.000366415
0.000314367
0.000273242
0.00024014
0.000213212
0.00060922
0.000487738
0.000417566
0.000361538
0.000315713
0.000278107
0.000247327
0.000221931
0.002858
0.00223814
0.00194229
0.00168508
0.0014309
0.00118049
0.00094525
0.00073972
0.00536026
0.00266597
0.00207398
0.00175358
0.0014785
0.00121357
0.000963297
0.000742917
0.0160566
0.00372677
0.00227161
0.00183103
0.00153057
0.00125233
0.000987941
0.000752782
0.0337287
0.00492439
0.00242676
0.00187913
0.00156014
0.00127401
0.00100233
0.000759739
0.0129418
0.00343835
0.00225419
0.00184842
0.00155154
0.00127093
0.00100259
0.000762921
0.00431146
0.00255646
0.00210581
0.0018071
0.00152975
0.00125666
0.000996213
0.000765205
0.00271502
0.00229249
0.00202784
0.00176965
0.00150566
0.00124261
0.00099394
0.000775475
0.00879065
0.00735247
0.00640725
0.00556326
0.00482899
0.0042344
0.00375606
0.00328702
0.0127872
0.00830643
0.00683765
0.00582932
0.00499057
0.00431942
0.00379883
0.00331363
0.0270864
0.0101266
0.00727869
0.00603972
0.00511959
0.00439546
0.00384539
0.00335106
0.0482804
0.0119668
0.00758784
0.00615667
0.00518803
0.00443778
0.00387317
0.00337403
0.023286
0.00968422
0.00723866
0.00606053
0.00514902
0.00442616
0.00387793
0.0033872
0.0114279
0.00815284
0.00688701
0.00590744
0.00506629
0.00439079
0.00386986
0.00338841
0.00865954
0.00748866
0.00657961
0.0057263
0.00497773
0.00437334
0.00389098
0.00342087
0.012604
0.0114428
0.0108618
0.0103364
0.00962772
0.00847583
0.00674331
0.00475419
0.015993
0.0120071
0.0108269
0.0101283
0.00943013
0.00840841
0.00681849
0.00487795
0.0275552
0.0134475
0.0110045
0.0101007
0.00941262
0.00848496
0.00698353
0.00505418
0.044844
0.0149942
0.0112217
0.0101499
0.00944757
0.0085462
0.00707201
0.00514246
0.0243452
0.0129827
0.010902
0.0100592
0.00938723
0.00847218
0.00698558
0.00507169
0.0146524
0.0117123
0.0107015
0.0100239
0.00933064
0.00832526
0.00676727
0.00486933
0.0122906
0.0113115
0.0107057
0.0101235
0.00937234
0.00821567
0.00652837
0.00462407
0.000165629
0.000163038
0.000157763
0.000151661
0.000146946
0.000143208
0.000139179
0.000136018
0.00019945
0.000166014
0.000155269
0.000148336
0.000145787
0.000143337
0.000137665
0.00013564
0.000531436
0.000220795
0.000172019
0.000163333
0.000155562
0.000146005
0.000140136
0.000135793
0.00106488
0.000284728
0.000185197
0.000166361
0.000158912
0.000151833
0.000145681
0.000140035
0.00067833
0.000253246
0.000183438
0.000166296
0.000162225
0.000155452
0.000147681
0.000142715
0.000227667
0.000176704
0.000163458
0.000156969
0.00015479
0.000153831
0.000149531
0.000144579
0.000171034
0.000170263
0.000165856
0.000160515
0.000156187
0.000152453
0.000148457
0.000145799
0.000782987
0.000604732
0.000514269
0.000444451
0.000386953
0.00033933
0.000300551
0.000268933
0.00141447
0.000760617
0.000591543
0.000500614
0.000432348
0.000375286
0.000327922
0.000289306
0.00348779
0.00106907
0.000692586
0.000564481
0.000486498
0.000426362
0.000375818
0.000332753
0.00579289
0.00131763
0.000744263
0.000587662
0.000506409
0.00044727
0.000398537
0.000356941
0.00414428
0.0011676
0.000716789
0.000577969
0.000499726
0.000439793
0.000389775
0.0003467
0.00162652
0.000809286
0.000609293
0.000510719
0.000440567
0.000383552
0.000336522
0.000297752
0.000829053
0.000616006
0.000518494
0.000446567
0.000388117
0.000340093
0.000301041
0.00026924
0.00324069
0.00267434
0.00235754
0.00206502
0.0017627
0.00145531
0.00116034
0.000898993
0.00489141
0.00308974
0.00254654
0.00220815
0.00189424
0.00157398
0.00125701
0.00096711
0.00937602
0.00385571
0.00276444
0.00232665
0.00200237
0.00168546
0.00136399
0.00105775
0.0138414
0.00446731
0.00287339
0.00234599
0.00200981
0.00170043
0.0013898
0.00109162
0.0103948
0.00406529
0.00279624
0.00232041
0.00199001
0.00167533
0.00135798
0.00105565
0.00539247
0.00318676
0.00254638
0.00218618
0.00187088
0.00155498
0.00124378
0.000959542
0.00333827
0.00265178
0.00231148
0.00201908
0.00172334
0.00142474
0.00113959
0.000888464
0.00954996
0.00819658
0.00720332
0.00628521
0.0054686
0.00479585
0.0042482
0.00370952
0.0122464
0.00902605
0.00764864
0.006608
0.00570806
0.00497018
0.00439038
0.00384744
0.0187779
0.0102857
0.00802779
0.0067953
0.00582611
0.00504743
0.00445431
0.00392695
0.0252334
0.0112712
0.00821629
0.00683329
0.00583301
0.00505131
0.00447154
0.00397534
0.0201965
0.0106059
0.00807638
0.00678292
0.00580335
0.00502491
0.00443248
0.00390413
0.0131049
0.00920466
0.00765694
0.00657958
0.00567325
0.00493202
0.00434575
0.00379288
0.00971504
0.00814776
0.00711768
0.00619979
0.00538391
0.00470566
0.0041477
0.00359755
0.0133076
0.0120752
0.0113544
0.0106829
0.0098311
0.0085447
0.00669463
0.0046248
0.0160662
0.0127615
0.0115612
0.0107989
0.0100324
0.00891759
0.00718025
0.0050512
0.023209
0.0141249
0.0118761
0.0108999
0.0101463
0.00913248
0.00747561
0.00533406
0.030885
0.0153681
0.0121464
0.0110172
0.0103111
0.00942706
0.00790867
0.00583773
0.0252148
0.0146023
0.0120185
0.0109693
0.0101994
0.00917819
0.0075121
0.00535667
0.0174438
0.0131833
0.0117723
0.010968
0.0101863
0.00904751
0.00727029
0.00508981
0.013847
0.0123564
0.0116326
0.0110085
0.0101923
0.00889867
0.00698189
0.00479906
0.000169779
0.000166988
0.000163226
0.000158477
0.000153535
0.000148952
0.000143987
0.000139904
0.00023423
0.000174741
0.000158952
0.000149299
0.000142795
0.000138247
0.000132761
0.000126922
0.000779819
0.000266901
0.000183232
0.000165344
0.000150307
0.000134655
0.000125042
0.0001173
0.00153726
0.000351681
0.000183969
0.000151928
0.000141197
0.000132101
0.000123787
0.000116197
0.000586779
0.000209696
0.000156254
0.000144827
0.000135314
0.000123945
0.000115197
0.000108491
0.000183217
0.000146611
0.000137388
0.000130695
0.000123765
0.000119924
0.000117637
0.000113021
0.000140169
0.000138668
0.000136008
0.000132993
0.000129094
0.000125457
0.000122102
0.000118181
0.000857743
0.000642764
0.000539419
0.000460141
0.000394668
0.000340675
0.00029684
0.000261554
0.00177608
0.000913603
0.00069579
0.000578067
0.00048808
0.000411995
0.00034754
0.000293725
0.00537069
0.00149562
0.000904174
0.00071401
0.000599226
0.000510486
0.000434118
0.00036782
0.00953518
0.0018232
0.000940494
0.000722697
0.000610949
0.00052666
0.000454974
0.000392541
0.0046753
0.00126107
0.000786074
0.000629461
0.000531273
0.000452004
0.000384194
0.000325668
0.00147599
0.000751884
0.00058105
0.000486171
0.000412482
0.000350806
0.000298159
0.000254558
0.000701581
0.000530717
0.000445322
0.000379854
0.000326773
0.000283769
0.000249327
0.000221567
0.0033592
0.0026732
0.00233758
0.00204752
0.00175179
0.00144954
0.00115644
0.000893763
0.00572611
0.00330738
0.00264278
0.00227468
0.00195241
0.00162568
0.00129669
0.000987289
0.0132784
0.00459478
0.00301291
0.00247339
0.00212149
0.00179283
0.00145787
0.00112922
0.0224443
0.00545459
0.0030955
0.00245753
0.00209687
0.00177928
0.00146001
0.00114508
0.0131283
0.00415166
0.00275431
0.00228722
0.00196838
0.00166148
0.00134611
0.00103706
0.0052166
0.00289038
0.00233532
0.00202115
0.00173591
0.00144366
0.00114993
0.000875248
0.00289606
0.00232281
0.0020355
0.00177813
0.00151698
0.00125372
0.0010014
0.000777235
0.00973778
0.00817456
0.00714476
0.00621855
0.00538996
0.00470032
0.00413808
0.00359664
0.0137766
0.00939422
0.00775368
0.00660445
0.00560373
0.00475923
0.0040913
0.00351464
0.0251692
0.0115593
0.00844172
0.00700274
0.00589317
0.00494211
0.00416259
0.00348096
0.0388521
0.0130872
0.00865891
0.00707316
0.00596778
0.00503082
0.00425397
0.0035608
0.0254213
0.0109293
0.00802908
0.00670762
0.00566229
0.00475717
0.00401361
0.00336022
0.0130383
0.00868557
0.00721807
0.0061675
0.00523685
0.00445065
0.00382911
0.00328755
0.00893495
0.00753532
0.00658426
0.00571448
0.00494605
0.0043194
0.00381755
0.00333566
0.0139445
0.0125077
0.0118513
0.011316
0.0106122
0.00944291
0.00760224
0.0053832
0.0184556
0.0136484
0.0122566
0.0116356
0.0111366
0.0103244
0.00879852
0.00667282
0.0312944
0.0159106
0.0126063
0.0115225
0.0109451
0.0102766
0.0090265
0.00723021
0.0460546
0.0175906
0.0126807
0.0113204
0.010718
0.0102007
0.00922533
0.00767096
0.0304685
0.0151392
0.0121889
0.0112399
0.0107054
0.0100467
0.00880354
0.00703143
0.0170823
0.0127994
0.0116709
0.0111498
0.0106903
0.00990541
0.0084384
0.00643354
0.0129434
0.0118029
0.0112613
0.0107877
0.010139
0.00904635
0.00733193
0.00527128
0.000141307
0.000142438
0.00014049
0.000135179
0.000130124
0.000125802
0.000121804
0.00011735
0.000189433
0.000158939
0.000148297
0.00014042
0.000133827
0.000129263
0.000124856
0.000120185
0.000659234
0.00024185
0.000171104
0.000156718
0.000148195
0.000140143
0.000132502
0.000125862
0.00182823
0.000400915
0.000204379
0.000173359
0.00016033
0.000149873
0.000139835
0.000131073
0.00101188
0.000316927
0.000200032
0.000175681
0.000162101
0.000151102
0.000142002
0.000133351
0.000261363
0.000191834
0.000167026
0.000156789
0.000146784
0.000141825
0.000138827
0.000133227
0.000169063
0.000165179
0.00015904
0.000152418
0.000146784
0.000142071
0.000137792
0.000134555
0.000662621
0.000531749
0.000456181
0.000394965
0.000344354
0.000302675
0.000268514
0.000240379
0.00129604
0.000714615
0.000569577
0.000484118
0.000417631
0.000362143
0.000315253
0.000276069
0.00447913
0.00114171
0.000728563
0.000594115
0.000509914
0.00044204
0.00038419
0.00033425
0.0121322
0.001746
0.000857945
0.000664012
0.000566853
0.00049435
0.000433679
0.000381115
0.00577073
0.00137009
0.000813994
0.000648749
0.000553579
0.000479848
0.000417393
0.000363596
0.00164131
0.000847261
0.000653405
0.000547441
0.000467752
0.00040268
0.000347753
0.000302375
0.000791842
0.000616516
0.000527198
0.000456325
0.000396976
0.000347349
0.00030638
0.000272742
0.00283339
0.00240628
0.00214478
0.00188693
0.00161677
0.00134085
0.00107455
0.000836987
0.00464612
0.00288673
0.00243402
0.00213787
0.00185081
0.00155022
0.00124552
0.000960094
0.0125299
0.0039534
0.00277731
0.00236896
0.00206485
0.00175745
0.00143457
0.00111512
0.0283299
0.00535255
0.00304407
0.00248278
0.00215158
0.00184237
0.00152221
0.00120233
0.0138301
0.00435349
0.00295245
0.00248219
0.0021545
0.00183305
0.00149807
0.00116661
0.00521966
0.00320999
0.0026539
0.00231171
0.00199488
0.00166753
0.00133673
0.00102711
0.00321837
0.00268111
0.0023778
0.0020925
0.00179371
0.00148582
0.00118654
0.00091841
0.00889078
0.00773778
0.00683454
0.00597724
0.00521484
0.00459154
0.00408859
0.00359494
0.0119809
0.00876624
0.00752526
0.00655301
0.00569187
0.00498276
0.00443073
0.0039199
0.0229023
0.0105224
0.00812589
0.0069259
0.00595824
0.00516234
0.00455335
0.0040263
0.0415762
0.0125395
0.0085329
0.00707894
0.00603996
0.00520673
0.00457985
0.00405783
0.023816
0.0110091
0.00838184
0.00709943
0.00609554
0.00527823
0.00465484
0.00411652
0.0126665
0.00926314
0.00788613
0.00684275
0.00593235
0.00518193
0.0045949
0.00405253
0.00949118
0.00820902
0.00724626
0.00634489
0.00553563
0.00486404
0.00431478
0.00377381
0.012584
0.0116305
0.0110348
0.0104514
0.00968277
0.00849051
0.00674474
0.00476126
0.0154497
0.0125562
0.0116273
0.0110487
0.010432
0.00942865
0.00773209
0.00555536
0.0251341
0.0142444
0.0121795
0.0114249
0.0108801
0.0100611
0.00852642
0.00639205
0.0410095
0.0161767
0.0126017
0.0116436
0.0111738
0.0105726
0.00931798
0.00741731
0.026291
0.0147627
0.0124408
0.0116055
0.0110375
0.0102084
0.00865287
0.00647922
0.0164167
0.0131157
0.0120062
0.0113479
0.0106822
0.00963023
0.00786781
0.00560821
0.0132829
0.0121338
0.011454
0.010814
0.00998493
0.00871198
0.00685864
0.0047604
0.000109643
0.000105909
0.000103053
9.76508e-05
0.000101975
0.000102625
0.000106028
0.000193277
0.000188815
0.000186755
0.000187446
0.000187146
0.000191145
0.000200509
0.000576751
0.000569148
0.000567344
0.000568326
0.000573327
0.000582145
0.000601381
0.00265534
0.00264156
0.00265485
0.00266983
0.00269453
0.0027201
0.00278404
0.00268926
0.00264239
0.00266122
0.00268354
0.0026881
0.00267565
0.00266291
0.000133076
0.000135268
0.000132371
0.000134826
0.000138669
0.000141181
0.000143963
0.000242644
0.000257114
0.000296388
0.000321138
0.000309709
0.000265872
0.000242831
0.000689765
0.000731804
0.000800892
0.00083792
0.000801746
0.000728492
0.000689055
0.0029857
0.00308482
0.00317087
0.00326081
0.00314612
0.0030203
0.00286798
0.00254374
0.00263265
0.00272877
0.00313141
0.00273145
0.00261707
0.0025864
0.000136439
0.000121122
0.000110597
0.000109315
0.000102496
0.000108224
0.000114097
0.000232757
0.000250045
0.000312808
0.000340891
0.00027722
0.000219217
0.000198847
0.000680761
0.000727779
0.000843996
0.000871011
0.00076997
0.000645906
0.000596639
0.00289135
0.002822
0.00268028
0.00273072
0.00258448
0.0026282
0.00270004
0.00298126
0.00388303
0.00457714
0.0051123
0.00443272
0.00379374
0.00301057
0.000112827
0.0001161
0.000120093
0.000124001
0.000125994
0.000128661
0.000131587
0.000216663
0.000243165
0.000292117
0.000336612
0.000318153
0.000265017
0.000244662
0.000645204
0.000722924
0.000837329
0.000920753
0.000877328
0.000770023
0.00070155
0.00292347
0.00319303
0.0033034
0.00336211
0.00337748
0.003289
0.00304493
0.00270921
0.00297913
0.00358768
0.00461082
0.00362271
0.00295546
0.00262423
0.000107011
0.000104755
0.000101016
9.44111e-05
8.58533e-05
7.65522e-05
6.71558e-05
5.778e-05
0.000104066
9.97194e-05
9.47735e-05
8.84456e-05
8.04196e-05
7.16575e-05
6.27612e-05
5.39055e-05
0.000101002
9.79241e-05
9.30346e-05
8.52549e-05
7.69352e-05
6.85449e-05
6.00523e-05
5.16271e-05
9.5704e-05
9.49085e-05
9.17752e-05
8.58234e-05
7.6851e-05
6.7328e-05
5.86194e-05
5.03972e-05
9.92088e-05
9.57529e-05
9.14387e-05
8.36467e-05
7.54512e-05
6.73103e-05
5.90344e-05
5.08016e-05
0.000100452
9.54319e-05
9.1257e-05
8.52877e-05
7.76335e-05
6.92179e-05
6.0639e-05
5.21261e-05
0.000102935
0.00010025
9.71862e-05
9.07418e-05
8.23013e-05
7.31655e-05
6.40053e-05
5.50004e-05
0.00017519
0.000152052
0.000126144
0.000102999
8.50819e-05
7.16228e-05
6.12503e-05
5.30427e-05
0.000171143
0.000147974
0.000123486
0.000100985
8.32796e-05
6.97921e-05
5.93407e-05
5.10931e-05
0.000168446
0.000144332
0.000120307
9.87646e-05
8.15798e-05
6.8387e-05
5.81303e-05
5.00094e-05
0.000168388
0.000143612
0.000120147
9.85342e-05
8.10671e-05
6.77393e-05
5.74837e-05
4.9417e-05
0.000168187
0.000143662
0.000119314
9.79014e-05
8.07138e-05
6.75499e-05
5.73557e-05
4.93119e-05
0.000171903
0.00014703
0.000121946
9.93478e-05
8.15659e-05
6.80909e-05
5.77356e-05
4.96243e-05
0.000180419
0.000154355
0.00012654
0.000102209
8.34473e-05
6.94795e-05
5.88874e-05
5.06558e-05
0.000450671
0.000340012
0.000234672
0.000160723
0.000114942
8.67927e-05
6.87943e-05
5.68643e-05
0.000442747
0.000331405
0.000230785
0.000159327
0.000114305
8.62088e-05
6.80768e-05
5.60274e-05
0.000437591
0.000324024
0.000227737
0.0001583
0.000113876
8.58978e-05
6.77508e-05
5.56576e-05
0.00043578
0.000320048
0.000226409
0.000158112
0.00011383
8.5764e-05
6.75584e-05
5.54463e-05
0.000439711
0.000322272
0.000227201
0.000158058
0.000113538
8.54727e-05
6.73027e-05
5.52251e-05
0.000447447
0.000328417
0.00022959
0.000158582
0.000113389
8.51416e-05
6.69819e-05
5.49794e-05
0.000464332
0.000342735
0.00023684
0.000161676
0.000114635
8.56634e-05
6.72646e-05
5.52122e-05
0.00192133
0.000958111
0.00043656
0.000223987
0.00013348
9.01878e-05
6.69711e-05
5.34861e-05
0.00190484
0.000952062
0.000435021
0.000224029
0.00013394
9.05752e-05
6.71683e-05
5.35477e-05
0.00191522
0.000961973
0.000439604
0.000225761
0.000134632
9.08548e-05
6.7253e-05
5.35251e-05
0.00192783
0.000970865
0.000443249
0.000226982
0.000135057
9.10273e-05
6.73429e-05
5.35896e-05
0.00195034
0.000981614
0.000446431
0.000227505
0.000134868
9.07024e-05
6.70302e-05
5.33148e-05
0.00197243
0.000988347
0.000447025
0.000226682
0.000133922
8.99195e-05
6.64431e-05
5.28932e-05
0.0020238
0.0010086
0.000453248
0.000228257
0.000133975
8.95185e-05
6.59638e-05
5.24536e-05
0.00178255
0.00106415
0.00048685
0.000234843
0.000129687
8.25509e-05
5.92849e-05
4.68265e-05
0.00171785
0.00103562
0.000480057
0.000234235
0.000130389
8.323e-05
5.97085e-05
4.71172e-05
0.0017114
0.00103462
0.000481887
0.000235575
0.000131043
8.34841e-05
5.97861e-05
4.71275e-05
0.00171741
0.00103779
0.000484024
0.00023679
0.000131755
8.39387e-05
6.00997e-05
4.73722e-05
0.0017262
0.00104177
0.000484677
0.000236487
0.000131287
8.35161e-05
5.97624e-05
4.7101e-05
0.00173064
0.00104161
0.000482455
0.000234687
0.000130126
8.28094e-05
5.93333e-05
4.68365e-05
0.00174237
0.00104529
0.000480744
0.000232366
0.000128188
8.13272e-05
5.82196e-05
4.59757e-05
0.000130974
0.000130793
0.000124703
0.000113953
0.000101419
8.8874e-05
7.69529e-05
6.56523e-05
0.000133687
0.000131957
0.000126722
0.000116366
0.000103297
9.01281e-05
7.719e-05
6.53049e-05
0.000129444
0.000125061
0.000122207
0.000114678
0.000103984
9.24531e-05
7.99178e-05
6.65539e-05
0.000130182
0.000121541
0.000112472
0.000102404
9.13312e-05
8.07723e-05
6.97571e-05
5.99274e-05
0.000134877
0.000129219
0.000125188
0.000118024
0.000106912
9.48134e-05
8.24469e-05
6.87612e-05
0.000140422
0.000139738
0.000132811
0.000121293
0.000107932
9.4213e-05
8.05265e-05
6.78168e-05
0.000142195
0.000139159
0.000131357
0.000119472
0.000106229
9.31016e-05
8.05314e-05
6.85345e-05
0.000218168
0.000184088
0.000146407
0.000114561
9.1013e-05
7.42727e-05
6.22062e-05
5.32613e-05
0.000228873
0.000193725
0.000156707
0.000123595
9.8018e-05
7.88366e-05
6.46552e-05
5.41511e-05
0.000263153
0.000222061
0.000184527
0.00015113
0.000123971
0.000102397
8.499e-05
7.09209e-05
0.000287558
0.000245287
0.000206458
0.000172433
0.000143097
0.000118315
9.76538e-05
8.05955e-05
0.000275514
0.000233047
0.000194135
0.000159022
0.000130252
0.000107682
8.92179e-05
7.41652e-05
0.000237759
0.000201476
0.000163039
0.000128962
0.000102378
8.24119e-05
6.74875e-05
5.64055e-05
0.000218621
0.000184666
0.000147112
0.000115814
9.27953e-05
7.63212e-05
6.42617e-05
5.51989e-05
0.000524807
0.000386595
0.000255798
0.000167327
0.000114791
8.39181e-05
6.51356e-05
5.32845e-05
0.00055342
0.000402098
0.000272606
0.000182421
0.000126895
9.33354e-05
7.24959e-05
5.92143e-05
0.000602961
0.000429535
0.000309668
0.000223054
0.000166471
0.000130864
0.000107872
9.24417e-05
0.000638175
0.00045811
0.000349338
0.000271273
0.000212485
0.000167709
0.00013259
0.000106969
0.00060621
0.000435063
0.000313815
0.000226001
0.000168471
0.000132053
0.000108332
9.21606e-05
0.00055416
0.000406846
0.000274887
0.000184079
0.000128609
9.50282e-05
7.40325e-05
6.05313e-05
0.000535257
0.000387983
0.000254176
0.000166322
0.00011479
8.45641e-05
6.60563e-05
5.42622e-05
0.00213552
0.001032
0.000450815
0.000221672
0.00012764
8.42669e-05
6.18373e-05
4.92642e-05
0.00222085
0.00109803
0.000490571
0.000246175
0.000144635
9.72905e-05
7.25047e-05
5.85151e-05
0.00231518
0.00118692
0.000552474
0.000294254
0.000189484
0.00014273
0.000119108
0.000105928
0.00244911
0.00135294
0.000704454
0.000423341
0.000302443
0.000240129
0.000192857
0.00014764
0.0022917
0.00117386
0.000548665
0.000293546
0.000189383
0.00014231
0.000117931
0.000103636
0.00216155
0.00106574
0.000479788
0.000243639
0.000144415
9.76093e-05
7.28661e-05
5.87533e-05
0.00203276
0.000985831
0.000436958
0.000218288
0.000127192
8.46414e-05
6.24049e-05
4.98108e-05
0.00166967
0.000991476
0.000449483
0.000214954
0.000118151
7.53288e-05
5.45507e-05
4.366e-05
0.00170597
0.00102208
0.000473658
0.000232924
0.000132201
8.70318e-05
6.48441e-05
5.31887e-05
0.00172885
0.00103818
0.000496861
0.000262141
0.000167085
0.000127764
0.000111712
0.00010635
0.00197434
0.00126445
0.000693978
0.000446078
0.00035489
0.000327664
0.000312695
0.000265998
0.00173002
0.00103962
0.000497535
0.000262095
0.000166645
0.00012732
0.000111045
0.000104489
0.0017008
0.00101979
0.000471882
0.000231897
0.00013149
8.63845e-05
6.41435e-05
5.24118e-05
0.00171242
0.00101205
0.000456317
0.000217637
0.000119572
7.6298e-05
5.52636e-05
4.41376e-05
0.000132567
0.00012837
0.000123489
0.000114002
0.000102501
9.08041e-05
7.93964e-05
6.82302e-05
0.000117348
0.00011178
0.000103638
9.66019e-05
8.83101e-05
7.91092e-05
7.00521e-05
6.11346e-05
0.000104896
9.64474e-05
8.83776e-05
8.11527e-05
7.33873e-05
6.55682e-05
5.80967e-05
5.09976e-05
0.000103269
9.38235e-05
8.55656e-05
7.74706e-05
6.89934e-05
6.09509e-05
5.34032e-05
4.72919e-05
9.7512e-05
9.02972e-05
8.36844e-05
7.69204e-05
7.01044e-05
6.29985e-05
5.60069e-05
4.9337e-05
0.000104729
0.00010011
9.42514e-05
8.7476e-05
8.14976e-05
7.39642e-05
6.6033e-05
5.80696e-05
0.000110316
0.000104538
0.000102421
9.70944e-05
8.91225e-05
8.01885e-05
7.1008e-05
6.16677e-05
0.000206559
0.000175754
0.000141783
0.000112458
9.05055e-05
7.48594e-05
6.35336e-05
5.50132e-05
0.000211558
0.000167252
0.000133222
0.000107295
8.79478e-05
7.39447e-05
6.38499e-05
5.62394e-05
0.000261569
0.000204306
0.000161385
0.000129273
0.000105083
8.60217e-05
7.0762e-05
5.8509e-05
0.000291537
0.000235317
0.000190368
0.000154638
0.000126536
0.000103962
8.55599e-05
7.05301e-05
0.0002326
0.000181923
0.000143514
0.000114912
9.32136e-05
7.64637e-05
6.33458e-05
5.29473e-05
0.000188144
0.000151833
0.000121937
9.9605e-05
8.23423e-05
6.97227e-05
6.05588e-05
5.3684e-05
0.000178178
0.000153372
0.000127681
0.000104224
8.57723e-05
7.20629e-05
6.17925e-05
5.38569e-05
0.000513278
0.000373112
0.000250578
0.000166937
0.000116505
8.64817e-05
6.79333e-05
5.59916e-05
0.000520779
0.000338369
0.000236008
0.000172252
0.000129923
0.000102406
8.40375e-05
7.11762e-05
0.000603783
0.000383601
0.000256126
0.000181311
0.000134596
0.000103507
8.17849e-05
6.60816e-05
0.000636457
0.000419984
0.000291411
0.000213927
0.000163747
0.000128741
0.000103008
8.34544e-05
0.000548845
0.000346875
0.000230597
0.000162819
0.000120746
9.32556e-05
7.46076e-05
6.13949e-05
0.000465304
0.000304611
0.000212371
0.000156307
0.000118713
9.42426e-05
7.79815e-05
6.66474e-05
0.000455818
0.000335659
0.000233483
0.000160605
0.000114941
8.69264e-05
6.91771e-05
5.75056e-05
0.00208066
0.00103478
0.000468016
0.000235977
0.000137987
9.19532e-05
6.77536e-05
5.38723e-05
0.0020943
0.00114395
0.000569428
0.000305766
0.000188429
0.000131105
9.91568e-05
7.92223e-05
0.0018834
0.000978076
0.000487333
0.000271494
0.000176159
0.000130265
0.000105402
9.04679e-05
0.00190925
0.00101794
0.000534549
0.000313623
0.000209402
0.00015414
0.000120403
9.72122e-05
0.00181634
0.000938266
0.000462607
0.000255395
0.000165179
0.000122757
0.000100696
8.76874e-05
0.00193952
0.00104569
0.000515017
0.000274098
0.000168377
0.000117747
9.00896e-05
7.30052e-05
0.00196416
0.000994488
0.000456214
0.000232825
0.000137883
9.30819e-05
6.93752e-05
5.56633e-05
0.00197433
0.00116437
0.000532215
0.000255742
0.000140255
8.88029e-05
6.34971e-05
4.97894e-05
0.00248828
0.00150239
0.00072974
0.000368205
0.000207833
0.00013417
9.69898e-05
7.56123e-05
0.00278853
0.0016393
0.000795223
0.00040386
0.000242181
0.000177589
0.000148251
0.000129003
0.0030256
0.00177822
0.000895627
0.000475517
0.000287501
0.000200868
0.000152005
0.000119418
0.00273953
0.00160351
0.000764887
0.000382024
0.00022693
0.000165728
0.000137762
0.000119553
0.00246738
0.00148933
0.000713036
0.000351046
0.000193956
0.000124525
9.07186e-05
7.15886e-05
0.00200662
0.0011866
0.000542216
0.000259874
0.000142349
9.0327e-05
6.48663e-05
5.11314e-05
0.000109525
0.000107169
0.000105234
9.85813e-05
8.93826e-05
7.93495e-05
6.94254e-05
5.97222e-05
0.000113152
0.000109451
0.000105977
0.000100214
9.12924e-05
8.1011e-05
7.04973e-05
6.04507e-05
0.000114757
0.000105587
9.77549e-05
9.05655e-05
8.30595e-05
7.50932e-05
6.65884e-05
5.73606e-05
0.000118278
0.000108076
9.82395e-05
8.92623e-05
8.05669e-05
7.15703e-05
6.238e-05
5.45394e-05
0.000119911
0.000110004
0.00010161
9.35944e-05
8.5423e-05
7.69581e-05
6.82661e-05
5.82499e-05
0.000125078
0.000119756
0.00011659
0.000108767
9.79568e-05
8.6118e-05
7.44505e-05
6.35046e-05
0.000129229
0.000129394
0.000123769
0.000113357
0.000100978
8.85334e-05
7.67151e-05
6.55017e-05
0.000194461
0.000166318
0.000135425
0.00010809
8.70319e-05
7.1609e-05
6.02303e-05
5.16275e-05
0.000213519
0.00017709
0.000144348
0.000114969
9.17072e-05
7.43111e-05
6.15216e-05
5.19482e-05
0.000252974
0.000206219
0.000166774
0.000134891
0.000109709
9.01847e-05
7.50493e-05
6.29975e-05
0.00029404
0.000242164
0.000197834
0.000161843
0.000132992
0.000110062
9.15224e-05
7.59354e-05
0.000275386
0.000224332
0.000181219
0.000146366
0.000118807
9.72664e-05
8.02912e-05
6.65749e-05
0.000231309
0.000191715
0.000154406
0.000121847
9.64677e-05
7.78387e-05
6.43183e-05
5.43582e-05
0.00021853
0.00018397
0.000146125
0.000114093
9.04575e-05
7.37658e-05
6.18178e-05
5.29844e-05
0.000493833
0.00036318
0.000248052
0.000166817
0.000116574
8.61037e-05
6.70734e-05
5.47808e-05
0.00053914
0.00038236
0.000265713
0.000181461
0.000127622
9.4318e-05
7.33717e-05
5.9877e-05
0.000610279
0.000400839
0.000276402
0.000202829
0.000153586
0.000120623
9.84641e-05
8.31193e-05
0.00068235
0.000455524
0.000317779
0.000233357
0.000178136
0.000140305
0.000113307
9.33683e-05
0.000638715
0.000418688
0.000287552
0.000209311
0.000157414
0.000122824
9.94415e-05
8.28925e-05
0.000570511
0.000403475
0.000276357
0.000186644
0.000130559
9.64051e-05
7.51151e-05
6.14479e-05
0.000530048
0.000388267
0.000256953
0.000167922
0.000115054
8.40581e-05
6.52387e-05
5.33593e-05
0.00212072
0.0010526
0.000469095
0.000233217
0.000135243
8.9625e-05
6.57508e-05
5.21731e-05
0.00233947
0.0011917
0.000539318
0.000268902
0.000156139
0.000103785
7.64977e-05
6.11084e-05
0.00248045
0.00134296
0.000662721
0.000354961
0.000219575
0.000154549
0.000118796
9.81783e-05
0.00256766
0.00144905
0.000745228
0.000406998
0.000249036
0.000170723
0.000128218
0.000103087
0.00253207
0.00136551
0.000671358
0.00036107
0.000224936
0.000158307
0.00012056
9.74694e-05
0.00239694
0.00121038
0.000545193
0.000271108
0.000157268
0.000104713
7.72632e-05
6.16597e-05
0.00218259
0.00105875
0.000462831
0.000226952
0.000130309
8.58526e-05
6.28786e-05
4.99869e-05
0.0017649
0.00105213
0.000481887
0.000232341
0.000128245
8.17105e-05
5.88738e-05
4.67705e-05
0.00189721
0.00113476
0.000531169
0.00026243
0.000148146
9.61269e-05
7.02712e-05
5.66079e-05
0.00218241
0.00135013
0.000686005
0.00037258