/*--------------------------------*- C++ -*----------------------------------*\
| =========                 |                                                 |
| \\      /  F ield         | OpenFOAM: The Open Source CFD Toolbox           |
|  \\    /   O peration     | Version:  plus.master                           |
|   \\  /    A nd           | Web:      www.OpenFOAM.com                      |
|    \\/     M anipulation  |                                                 |
\*---------------------------------------------------------------------------*/
FoamFile
{
    version     2.0;
    format      ascii;
    class       volVectorField;
    location    "5.2";
    object      U;
}
// * * * * * * * * * * * * * * * * * * * * * * * * * * * * * * * * * * * * * //

dimensions      [0 1 -1 0 0 0 0];

internalField   nonuniform List<vector> 
47285
(
(0.0400478 0.0337847 0.000982022)
(0.029755 0.0367139 0.0059555)
(0.0179486 0.0357288 0.0181851)
(-0.00377587 0.0346697 0.0262999)
(-0.0247728 0.0365417 0.0159874)
(-0.037371 0.0365753 0.00399929)
(-0.0483709 0.034289 -0.000361373)
(0.0417735 0.0228012 0.00514313)
(0.0591267 0.0499198 0.0722018)
(0.0586892 0.0676953 0.113038)
(0.00158433 0.0668432 0.124865)
(-0.0575148 0.069395 0.108624)
(-0.0601872 0.0532379 0.0648599)
(-0.0483477 0.0282724 0.00225915)
(0.0401596 0.0107293 0.0161511)
(0.0712201 0.0449834 0.0986089)
(0.148652 0.1405 0.464607)
(0.0087018 0.149451 0.555041)
(-0.142535 0.155682 0.463143)
(-0.0716657 0.0548182 0.0978487)
(-0.0461612 0.018478 0.0126976)
(0.0348948 -0.00464644 0.0231029)
(0.0641999 -0.00466385 0.112092)
(0.150506 -0.000230116 0.497347)
(-0.000809939 -0.0215879 1.51381)
(-0.145003 -0.000739465 0.526386)
(-0.0715473 -0.00430244 0.121168)
(-0.0435539 -0.00478665 0.0208301)
(0.0393051 -0.0182577 0.0141197)
(0.0713731 -0.0525855 0.0985092)
(0.158379 -0.143012 0.45819)
(0.00195829 -0.150576 0.526493)
(-0.153598 -0.153574 0.431034)
(-0.07267 -0.0591343 0.0906624)
(-0.046895 -0.0251028 0.0100972)
(0.039918 -0.0304265 0.00376428)
(0.0561746 -0.0557584 0.0663294)
(0.0573682 -0.0687206 0.102091)
(-0.00448979 -0.0713362 0.120372)
(-0.0625727 -0.0697373 0.0957569)
(-0.0609424 -0.0558404 0.0588854)
(-0.0484242 -0.0342592 0.000938038)
(0.0380879 -0.0414195 6.27119e-05)
(0.0297536 -0.04479 0.0032945)
(0.0181897 -0.0422459 0.0142794)
(-0.00700086 -0.0410552 0.0218456)
(-0.0285059 -0.0431053 0.0113769)
(-0.0402854 -0.0431082 0.001752)
(-0.0491176 -0.0407276 -0.000993756)
(0.0288304 0.0194385 0.0337989)
(0.0214411 0.0195077 0.0475888)
(0.0122516 0.0113592 0.0765017)
(-0.0029124 0.0083058 0.0948289)
(-0.0183832 0.0123776 0.0725226)
(-0.0295592 0.0187484 0.0432409)
(-0.0368376 0.0173151 0.0305149)
(0.0272269 0.0125787 0.0454505)
(0.0273911 0.0178836 0.140635)
(0.0249703 0.0169559 0.213672)
(0.00334679 0.0147505 0.252205)
(-0.0227292 0.0182817 0.217452)
(-0.0314244 0.0183395 0.134668)
(-0.0344918 0.0115112 0.0394508)
(0.0186559 0.00469626 0.0683906)
(0.0195652 0.0152714 0.193696)
(0.0310302 0.0276432 0.617257)
(0.0138106 0.0288643 0.899153)
(-0.0185524 0.0344502 0.645557)
(-0.0241049 0.0181472 0.215284)
(-0.023684 0.00534614 0.0695555)
(0.0157855 -0.00542674 0.0786371)
(0.0128807 -0.00396772 0.223425)
(0.0485044 0.00537003 0.790923)
(0.0610447 0.028729 2.36612)
(0.00419286 0.00999909 1.04009)
(-0.0187899 -0.00197985 0.290379)
(-0.0159989 -0.00488373 0.0935091)
(0.0185889 -0.0143744 0.0629641)
(0.0192865 -0.0231018 0.1928)
(0.0372256 -0.0225825 0.615534)
(0.0121553 -0.00368331 0.988182)
(-0.0263367 -0.026105 0.622725)
(-0.0233107 -0.0223289 0.206081)
(-0.0247025 -0.0140202 0.0611946)
(0.0248564 -0.0219191 0.0417535)
(0.0223322 -0.0261967 0.133632)
(0.0202963 -0.019778 0.211713)
(-0.00122175 -0.0172148 0.276133)
(-0.0242457 -0.0189858 0.209939)
(-0.0293108 -0.0237282 0.12617)
(-0.0334437 -0.0199384 0.0356823)
(0.0250982 -0.0273377 0.0315306)
(0.017609 -0.02602 0.0424381)
(0.00847579 -0.0162367 0.0722089)
(-0.00539708 -0.0100358 0.0962246)
(-0.0182539 -0.0171071 0.0653258)
(-0.0274265 -0.024973 0.0381213)
(-0.0341523 -0.0247991 0.0288341)
(0.033643 0.0234511 0.0780065)
(0.0233616 0.0224505 0.0987259)
(0.0103065 0.0189754 0.137266)
(-0.00700122 0.0132569 0.164386)
(-0.0213349 0.0136608 0.136574)
(-0.0325564 0.0161501 0.0946079)
(-0.0405679 0.0170361 0.074191)
(0.0329808 0.0153037 0.0942193)
(0.0250729 0.0174572 0.163586)
(0.0163521 0.0162271 0.260828)
(0.000155422 0.00909053 0.329787)
(-0.0177292 0.00897457 0.28372)
(-0.0293964 0.00845815 0.174886)
(-0.0385108 0.0068701 0.0902882)
(0.0296185 0.00588548 0.121906)
(0.0220064 0.0114247 0.237382)
(0.0262691 0.0183844 0.599799)
(0.0174686 0.00621373 0.974321)
(-0.00290208 0.00659704 0.722195)
(-0.0188271 0.00190651 0.303566)
(-0.026933 -0.00410784 0.137954)
(0.0281563 -0.00792089 0.135628)
(0.0181168 -0.00654243 0.28231)
(0.0430889 0.00404026 0.814108)
(0.0840266 0.03699 2.24632)
(0.0487561 0.0064486 1.27473)
(-0.00165361 -0.00391969 0.443034)
(-0.0102513 -0.00671972 0.17702)
(0.0259308 -0.018689 0.115721)
(0.0152151 -0.0217379 0.238875)
(0.0184567 -0.0130077 0.640776)
(0.0142283 0.0363695 1.19166)
(-0.000980209 -0.000557599 0.74779)
(-0.0136657 -0.0100975 0.293063)
(-0.024794 -0.00845498 0.125709)
(0.0272351 -0.0256908 0.0885608)
(0.0163169 -0.0263431 0.15816)
(0.00543023 -0.0168372 0.2781)
(-0.00289146 -0.00139074 0.403433)
(-0.0127244 -0.00760788 0.289068)
(-0.022262 -0.0152097 0.163709)
(-0.0337104 -0.0171149 0.083476)
(0.0274911 -0.0315757 0.0740276)
(0.0157056 -0.0299143 0.0909884)
(0.000225699 -0.0211357 0.134057)
(-0.00835541 -0.00541713 0.172749)
(-0.0148296 -0.0155927 0.128044)
(-0.0255639 -0.0233182 0.0861951)
(-0.0347574 -0.0252777 0.0706886)
(0.0482199 0.0372138 0.156473)
(0.0309323 0.0324933 0.179569)
(0.0100546 0.0262044 0.221284)
(-0.0122118 0.0159975 0.253008)
(-0.0273078 0.0151438 0.221948)
(-0.0409954 0.0206784 0.177073)
(-0.0534165 0.0272516 0.154046)
(0.0466643 0.023789 0.173594)
(0.0300396 0.0224665 0.231756)
(0.0126557 0.0196569 0.33785)
(-0.00673838 0.00670658 0.419971)
(-0.0226994 0.00240425 0.369568)
(-0.0352707 0.00393566 0.250171)
(-0.0496309 0.00989442 0.171586)
(0.0431451 0.0095955 0.20126)
(0.0295104 0.0121932 0.312401)
(0.0277022 0.0173034 0.618753)
(0.0130403 -0.00232631 1.00248)
(-0.00609666 -0.00710805 0.809314)
(-0.0203973 -0.00789291 0.394241)
(-0.0356346 -0.00758445 0.217906)
(0.0416575 -0.0101182 0.216231)
(0.0285632 -0.0106288 0.362065)
(0.0462488 -0.00154957 0.802719)
(0.0866614 0.0268828 1.9481)
(0.0539374 -0.00122673 1.41116)
(0.00126317 -0.00743356 0.544623)
(-0.0155483 -0.00813434 0.257388)
(0.0376263 -0.0252618 0.195342)
(0.0185784 -0.0279545 0.310978)
(0.0123948 -0.019715 0.672048)
(0.00686895 0.0370613 1.26956)
(0.000617496 0.00277123 0.829258)
(-0.0125985 -0.00609084 0.378556)
(-0.032331 -0.00813867 0.206088)
(0.0391547 -0.0359831 0.168906)
(0.018431 -0.0341227 0.225148)
(-0.00222802 -0.0219715 0.357586)
(-0.00803356 0.00221901 0.48953)
(-0.012523 -0.00367861 0.370731)
(-0.0251361 -0.0150347 0.235015)
(-0.0429269 -0.0227618 0.166168)
(0.0409939 -0.0467838 0.153576)
(0.0219963 -0.0422551 0.171809)
(-0.00149354 -0.0304101 0.21366)
(-0.0117583 -0.0101231 0.253526)
(-0.0170406 -0.0207213 0.209239)
(-0.0316886 -0.0315544 0.168925)
(-0.0459758 -0.0377982 0.151645)
(0.0545706 0.0500579 0.295229)
(0.0352261 0.0437546 0.315821)
(0.0112683 0.0353843 0.352246)
(-0.0140358 0.0236909 0.381315)
(-0.0304555 0.0246832 0.351445)
(-0.0456191 0.03292 0.313151)
(-0.0592997 0.0414306 0.293177)
(0.0552996 0.0327134 0.309918)
(0.0352442 0.0296348 0.358123)
(0.0126686 0.0255628 0.457757)
(-0.011627 0.010247 0.536694)
(-0.029551 0.00595874 0.483389)
(-0.0433967 0.0107815 0.368004)
(-0.059066 0.0199961 0.307362)
(0.0536109 0.0146564 0.332789)
(0.0367688 0.0155232 0.432577)
(0.0291014 0.0184076 0.692586)
(0.00713919 -0.000399382 1.06015)
(-0.0192646 -0.00644568 0.901342)
(-0.0297819 -0.00834576 0.495647)
(-0.0495596 -0.00264262 0.339934)
(0.0532623 -0.0096116 0.345804)
(0.0393893 -0.0123258 0.478501)
(0.0465559 -0.00664457 0.830442)
(0.0706046 0.0111446 1.71915)
(0.0334906 -0.00434377 1.52945)
(-0.00790143 -0.00909643 0.630441)
(-0.0308696 -0.00798965 0.372374)
(0.0492267 -0.0290213 0.327254)
(0.0269185 -0.0335728 0.426364)
(0.0146047 -0.0296434 0.741783)
(0.0026383 0.0191096 1.33935)
(-0.0112284 -0.00635338 0.903588)
(-0.0218187 -0.00863327 0.478451)
(-0.0461595 -0.0124709 0.331323)
(0.0497907 -0.0433239 0.305578)
(0.0259971 -0.042436 0.347842)
(-0.00142975 -0.0319331 0.461443)
(-0.0119927 -0.00518365 0.571929)
(-0.0183429 -0.010991 0.470957)
(-0.034393 -0.0237803 0.351726)
(-0.0532646 -0.0314047 0.303137)
(0.0503237 -0.0574035 0.292211)
(0.0290569 -0.0536311 0.307901)
(0.00257778 -0.0432487 0.339005)
(-0.0127916 -0.0241725 0.370214)
(-0.0210931 -0.0337868 0.335329)
(-0.0380814 -0.0437071 0.305598)
(-0.0541445 -0.0495958 0.290762)
(-0.0464117 0.02058 -1.21739e-05)
(-0.0461575 0.0154464 0.000692183)
(-0.0437566 0.015148 0.0010699)
(-0.0426459 0.0154778 0.00113671)
(-0.0415841 0.0155782 0.000939483)
(-0.0406907 0.0156506 0.000549748)
(-0.0397561 0.0155329 -1.75079e-05)
(-0.0389936 0.0154366 -0.000716874)
(-0.0463988 0.0134901 -0.000781723)
(-0.0475808 0.00820388 0.000150394)
(-0.0471263 0.010051 0.000681449)
(-0.0456973 0.0102413 0.00097508)
(-0.0446459 0.0101161 0.00098938)
(-0.0438494 0.00977077 0.000801776)
(-0.04284 0.00949241 0.000394066)
(-0.0421821 0.00931521 -0.000122559)
(-0.0364256 0.00437058 -1.29752e-05)
(-0.0499456 0.00173865 0.000212135)
(-0.0447918 0.00317321 0.000513044)
(-0.043649 0.00380972 0.000715506)
(-0.0436382 0.00433716 0.000795309)
(-0.0417135 0.00425478 0.000692983)
(-0.0415438 0.0043183 0.00045945)
(-0.040915 0.00434306 0.000146815)
(-0.0357303 -0.00240372 0.000911222)
(-0.0477186 -0.00228709 -0.000522504)
(-0.0445027 -0.00287239 0.000117503)
(-0.0417179 -0.0025661 0.000525288)
(-0.0420735 -0.00228257 0.000620628)
(-0.0403846 -0.0020615 0.000650927)
(-0.0396698 -0.00184926 0.000461443)
(-0.0386985 -0.0015761 0.000182678)
(-0.0390053 -0.00949359 -0.00032866)
(-0.0487755 -0.00666673 -0.000553846)
(-0.044019 -0.00810377 -3.88668e-05)
(-0.0442447 -0.00868218 0.000732766)
(-0.0434393 -0.00870272 0.000784466)
(-0.0417699 -0.00828311 0.000707968)
(-0.041204 -0.00801158 0.000462739)
(-0.0404365 -0.00772256 0.000143544)
(-0.0484008 -0.020444 -0.00100546)
(-0.0456516 -0.0132142 9.89539e-05)
(-0.0468804 -0.0151733 0.000657105)
(-0.0446723 -0.0152011 0.0009962)
(-0.0432021 -0.0148723 0.000978539)
(-0.0420206 -0.0141804 0.000720302)
(-0.0411178 -0.0135834 0.000274181)
(-0.0403485 -0.0131076 -0.000299812)
(-0.0462541 -0.0285731 -0.000180669)
(-0.0435098 -0.0218446 0.00051449)
(-0.0421973 -0.0211738 0.000915824)
(-0.040154 -0.0207388 0.000936675)
(-0.0386333 -0.0201404 0.000683471)
(-0.0378479 -0.0198381 0.000220949)
(-0.036847 -0.0194542 -0.000399697)
(-0.0355987 -0.0187877 -0.00111601)
(-0.0400266 0.0151429 0.0283653)
(-0.0412731 0.0161173 0.0275887)
(-0.0424592 0.0172292 0.0260421)
(-0.043368 0.0181284 0.0238459)
(-0.0438694 0.0187188 0.0212085)
(-0.0439508 0.0190052 0.0183227)
(-0.0436374 0.0190136 0.0152914)
(-0.0429572 0.0187585 0.0121972)
(-0.0408165 0.00830227 0.0276365)
(-0.0430634 0.00947457 0.0271412)
(-0.0448415 0.0107113 0.025995)
(-0.0462302 0.0116801 0.0240812)
(-0.047036 0.0123239 0.0215802)
(-0.0472213 0.0126521 0.0187214)
(-0.0468333 0.0127098 0.0156357)
(-0.0459299 0.0125302 0.0124691)
(-0.0387355 0.000598501 0.0289325)
(-0.0422972 0.00221065 0.0269626)
(-0.0446169 0.00337079 0.0260636)
(-0.0466002 0.00422593 0.0244391)
(-0.0478562 0.00484373 0.0220868)
(-0.0482884 0.00522709 0.0192684)
(-0.0480174 0.00541419 0.0161537)
(-0.0470951 0.00543173 0.0129205)
(-0.036331 -0.00381657 0.0307152)
(-0.0408815 -0.00340883 0.0252739)
(-0.0436979 -0.0032166 0.0253918)
(-0.045996 -0.00300976 0.0243283)
(-0.0475153 -0.00276526 0.0221891)
(-0.0481095 -0.00251574 0.0195089)
(-0.0479151 -0.00227509 0.0164303)
(-0.0470186 -0.00204835 0.0131829)
(-0.0385686 -0.00867345 0.0270136)
(-0.0414834 -0.0093649 0.0256978)
(-0.0437451 -0.00998408 0.0254765)
(-0.0456432 -0.0103518 0.024553)
(-0.0467861 -0.0104703 0.0223528)
(-0.0471573 -0.0103785 0.0196382)
(-0.0468429 -0.0101292 0.0165808)
(-0.045892 -0.00975384 0.0133904)
(-0.0392009 -0.01663 0.0270151)
(-0.0410037 -0.0169645 0.0268639)
(-0.0426375 -0.0175964 0.0259762)
(-0.0438554 -0.0180222 0.0242755)
(-0.0445341 -0.018167 0.0219215)
(-0.0446415 -0.0180258 0.0191597)
(-0.0442183 -0.0176433 0.0161599)
(-0.04331 -0.0170525 0.0130514)
(-0.0371953 -0.0228758 0.0275219)
(-0.0381072 -0.0234254 0.0269156)
(-0.0391247 -0.0240436 0.0255304)
(-0.0398344 -0.0244599 0.0234741)
(-0.0401808 -0.0245936 0.021015)
(-0.0401501 -0.0244477 0.0182868)
(-0.039757 -0.0240448 0.0154031)
(-0.0390258 -0.0233978 0.0124673)
(-0.0459848 0.0187268 0.0656784)
(-0.0491568 0.0226874 0.0595753)
(-0.0520623 0.0260909 0.0524036)
(-0.0544713 0.0288319 0.0441541)
(-0.0562816 0.0309346 0.0352066)
(-0.0574682 0.0324369 0.025992)
(-0.0579809 0.0333371 0.0169831)
(-0.0577054 0.0335682 0.00871999)
(-0.0455965 0.00900523 0.069315)
(-0.0506249 0.0130332 0.0617996)
(-0.0548085 0.0162255 0.0547198)
(-0.0583245 0.018769 0.0465424)
(-0.0609888 0.0206961 0.0374081)
(-0.06277 0.0220605 0.0277707)
(-0.0636199 0.0228832 0.0181906)
(-0.0634051 0.0231301 0.00933816)
(-0.0417413 -0.00125425 0.0757242)
(-0.0488235 0.00305826 0.0638199)
(-0.0543991 0.00565751 0.0567721)
(-0.0591201 0.00756779 0.0489035)
(-0.0627455 0.00900823 0.0398165)
(-0.0652074 0.0100532 0.0299583)
(-0.0664904 0.0107382 0.0199741)
(-0.0664722 0.0110598 0.0106452)
(-0.0350266 -0.0048798 0.0813183)
(-0.0458035 -0.00396195 0.0643878)
(-0.0526242 -0.00352285 0.057395)
(-0.058186 -0.00315036 0.0497953)
(-0.0624491 -0.00277255 0.040824)
(-0.0653535 -0.00240957 0.0309437)
(-0.0669317 -0.00207663 0.020847)
(-0.0670875 -0.00177851 0.0113673)
(-0.0397385 -0.0086721 0.0733869)
(-0.0468975 -0.0111802 0.0636063)
(-0.052568 -0.0128017 0.0569477)
(-0.0573876 -0.0139021 0.0492132)
(-0.0611193 -0.014577 0.040188)
(-0.0637059 -0.0149233 0.0303704)
(-0.065121 -0.0149915 0.0204072)
(-0.0652312 -0.0147808 0.0110824)
(-0.0415824 -0.0181253 0.0679319)
(-0.0467172 -0.0208266 0.0615519)
(-0.0511185 -0.0231088 0.0547879)
(-0.0548359 -0.0248555 0.0467655)
(-0.0577065 -0.0260707 0.0377471)
(-0.0597039 -0.0268131 0.0281951)
(-0.0607756 -0.0271062 0.0186664)
(-0.0607823 -0.026916 0.00983446)
(-0.0408288 -0.0266658 0.0638877)
(-0.0441281 -0.0299705 0.0581361)
(-0.0472236 -0.032747 0.0511045)
(-0.0497698 -0.034895 0.0429974)
(-0.0517135 -0.0364599 0.0342149)
(-0.0530426 -0.0374796 0.0251742)
(-0.0537165 -0.0379515 0.0163378)
(-0.0536247 -0.0378054 0.00824308)
(-0.0642582 0.0339186 0.141395)
(-0.0713423 0.0427566 0.131529)
(-0.07786 0.0502331 0.120584)
(-0.0832182 0.0561063 0.108542)
(-0.0869714 0.0602536 0.0956209)
(-0.0886832 0.0624964 0.0818882)
(-0.0878492 0.0625731 0.0670753)
(-0.0839741 0.0602034 0.0504811)
(-0.0627555 0.0171607 0.148608)
(-0.0734855 0.0251208 0.137144)
(-0.0827833 0.0316392 0.126178)
(-0.0906615 0.0367756 0.114194)
(-0.096485 0.040467 0.101147)
(-0.0996758 0.0425969 0.0870829)
(-0.0995336 0.0429808 0.0716934)
(-0.0953806 0.0413829 0.0541155)
(-0.0567253 0.00157739 0.157381)
(-0.0709195 0.00833467 0.141878)
(-0.0828214 0.0128959 0.130781)
(-0.0930543 0.0163624 0.119016)
(-0.100801 0.018894 0.10602)
(-0.105376 0.020483 0.091805)
(-0.106001 0.0210018 0.0760682)
(-0.101867 0.0203298 0.0578524)
(-0.0485909 -0.00562091 0.16353)
(-0.0670435 -0.00464542 0.143895)
(-0.0807331 -0.00412877 0.132645)
(-0.0923179 -0.00365619 0.121063)
(-0.101116 -0.00318343 0.108186)
(-0.10643 -0.00273407 0.094012)
(-0.107493 -0.00231905 0.0782353)
(-0.103472 -0.00193618 0.0598692)
(-0.0539348 -0.0130291 0.156043)
(-0.0681743 -0.0176684 0.142321)
(-0.0802578 -0.0210152 0.131663)
(-0.0907037 -0.0234312 0.120134)
(-0.0986741 -0.0249855 0.107355)
(-0.103476 -0.0256841 0.0933637)
(-0.104311 -0.0254303 0.0778417)
(-0.100356 -0.0240843 0.0598224)
(-0.0571662 -0.0276189 0.148343)
(-0.0681815 -0.0338705 0.138178)
(-0.0779188 -0.0391724 0.127792)
(-0.0862073 -0.0432837 0.116278)
(-0.092424 -0.046105 0.103693)
(-0.0959861 -0.047494 0.0900838)
(-0.0962039 -0.0472084 0.0751319)
(-0.0923858 -0.0449748 0.0579588)
(-0.0578093 -0.042973 0.141205)
(-0.0652805 -0.0505688 0.132113)
(-0.0722042 -0.0569687 0.121812)
(-0.0778768 -0.0619235 0.11045)
(-0.0818823 -0.0653023 0.0982309)
(-0.0838042 -0.0669013 0.08519)
(-0.0831692 -0.0664283 0.0710251)
(-0.0795014 -0.0635658 0.0550049)
(-0.0710217 0.0493478 0.278694)
(-0.0782709 0.0604938 0.264218)
(-0.0858785 0.0708728 0.24409)
(-0.0931471 0.0803322 0.216358)
(-0.100109 0.0888903 0.179601)
(-0.107695 0.0972119 0.133281)
(-0.117261 0.106176 0.0781245)
(-0.12592 0.113113 0.016537)
(-0.0728851 0.0279165 0.287279)
(-0.0842504 0.0373569 0.272763)
(-0.0951399 0.0458826 0.254279)
(-0.105654 0.0535179 0.228408)
(-0.11564 0.0602466 0.192844)
(-0.126164 0.0664989 0.146313)
(-0.139118 0.073052 0.0890556)
(-0.1511 0.0782266 0.0233665)
(-0.0694846 0.00784335 0.295527)
(-0.0844721 0.0152348 0.278833)
(-0.0983498 0.0209909 0.261284)
(-0.111592 0.0258294 0.23694)
(-0.12398 0.0299337 0.202561)
(-0.1367 0.0335781 0.156194)
(-0.151984 0.0372183 0.0976498)
(-0.166145 0.0400441 0.0291411)
(-0.0631172 -0.00507637 0.300586)
(-0.0817705 -0.00386106 0.281387)
(-0.0976188 -0.00301283 0.264064)
(-0.112476 -0.00215664 0.240317)
(-0.126169 -0.00136259 0.20644)
(-0.139955 -0.000720699 0.160214)
(-0.156225 -0.000269591 0.101275)
(-0.171222 -8.60798e-06 0.0317926)
(-0.0670092 -0.0176986 0.294357)
(-0.0823557 -0.0223911 0.279033)
(-0.0967462 -0.0261725 0.26191)
(-0.110553 -0.0293205 0.237766)
(-0.123489 -0.0319965 0.203518)
(-0.136683 -0.0345322 0.157257)
(-0.152319 -0.037421 0.0988012)
(-0.166678 -0.0398362 0.0303555)
(-0.0686106 -0.0361753 0.286798)
(-0.0809183 -0.0432971 0.273333)
(-0.0928547 -0.0499023 0.25533)
(-0.104417 -0.0558218 0.229764)
(-0.115427 -0.0611242 0.194445)
(-0.126858 -0.0663076 0.148137)
(-0.140505 -0.0721866 0.0911044)
(-0.152877 -0.0770723 0.025636)
(-0.0674616 -0.0550873 0.278247)
(-0.0759171 -0.0642364 0.264266)
(-0.084752 -0.0728085 0.244412)
(-0.0933254 -0.0806626 0.216878)
(-0.101571 -0.0879249 0.180333)
(-0.110301 -0.0953197 0.134291)
(-0.120766 -0.103773 0.0795071)
(-0.129953 -0.110617 0.0183722)
(0.0331053 -0.0327393 0.000493664)
(0.0313188 -0.0308584 0.00103228)
(0.0289823 -0.0296344 0.00108406)
(0.0283367 -0.0292548 0.000800213)
(0.027175 -0.0281423 0.000273013)
(0.0269245 -0.0278288 -0.000399733)
(0.0262135 -0.0271762 -0.00121238)
(0.0256239 -0.0260907 -0.00210374)
(0.0344642 -0.0213816 0.000294143)
(0.0349361 -0.0203299 0.000703196)
(0.0326906 -0.0201744 0.000898972)
(0.0315136 -0.0190743 0.000763661)
(0.0293234 -0.017553 0.000500496)
(0.0302783 -0.0180507 0.000254828)
(0.0306494 -0.018283 -9.12646e-05)
(0.0285151 -0.0168687 -0.000307894)
(0.0358281 -0.0119338 0.00209546)
(0.0393156 -0.0130485 0.00157757)
(0.0341086 -0.0132268 0.00188616)
(0.0312945 -0.0137723 0.00188351)
(0.0317282 -0.0158824 0.00160543)
(0.0296329 -0.0163961 0.000864206)
(0.0285497 -0.0165976 -1.11258e-05)
(0.0275252 -0.016861 -0.000836689)
(0.0412283 -0.00397078 0.00608759)
(0.0403749 -0.00297651 0.0039526)
(0.0387117 -0.00337535 0.00460767)
(0.035653 -0.00359403 0.00484744)
(0.0342368 -0.00313422 0.00472191)
(0.0321627 -0.00309717 0.004242)
(0.0301984 -0.00305127 0.0035764)
(0.0282342 -0.00287019 0.00286214)
(0.037996 0.00542828 0.00314358)
(0.0404686 0.00606281 0.00281595)
(0.0376684 0.00706195 0.00340284)
(0.0333338 0.00728722 0.00311047)
(0.0319523 0.00833088 0.00260144)
(0.0316066 0.0094216 0.00195264)
(0.0299109 0.00974344 0.00107281)
(0.0284473 0.0100701 0.000185389)
(0.0367299 0.0145466 0.000512448)
(0.0375754 0.01422 0.000754247)
(0.0346284 0.0151512 0.000904208)
(0.034237 0.0154676 0.000899384)
(0.0320544 0.0145922 0.000678189)
(0.03219 0.0148605 0.000502079)
(0.03165 0.0149845 0.000227521)
(0.031171 0.0151843 9.06481e-06)
(0.0345027 0.0241311 0.000620556)
(0.0346613 0.023202 0.00110823)
(0.0327897 0.0231483 0.00118977)
(0.0322103 0.0229787 0.000921679)
(0.0317981 0.0224153 0.000391296)
(0.0317589 0.0223661 -0.000351102)
(0.031195 0.0222215 -0.00125121)
(0.030389 0.0218301 -0.00222601)
(0.0282376 -0.0260588 0.0296254)
(0.0294508 -0.0269555 0.0281358)
(0.0307531 -0.0276781 0.0259671)
(0.0318057 -0.0281641 0.0232691)
(0.0324627 -0.0283554 0.0202553)
(0.0327135 -0.0282727 0.0170654)
(0.0325578 -0.0279226 0.0137747)
(0.0320259 -0.0273159 0.0104696)
(0.0297243 -0.0195861 0.0318218)
(0.0316261 -0.0202759 0.0297778)
(0.0332366 -0.0209512 0.0276898)
(0.0346041 -0.0214844 0.0250589)
(0.0354957 -0.0218272 0.0220158)
(0.0358606 -0.0219809 0.0186504)
(0.0356533 -0.021901 0.0150601)
(0.0348962 -0.0215833 0.0115954)
(0.0291734 -0.0113785 0.0356908)
(0.0318854 -0.0120056 0.0319911)
(0.0337901 -0.0125309 0.0302877)
(0.0353413 -0.0130067 0.0283122)
(0.0362819 -0.0133816 0.0256632)
(0.0364629 -0.0135758 0.0225903)
(0.0360109 -0.0136176 0.0193017)
(0.0349604 -0.0135328 0.0159235)
(0.0286316 -0.0043528 0.0393564)
(0.0320594 -0.00388738 0.0340508)
(0.0343574 -0.00366859 0.0325363)
(0.0359501 -0.00349301 0.03098)
(0.0368051 -0.00328427 0.0289167)
(0.0368369 -0.00307324 0.0263909)
(0.0361515 -0.00286197 0.023555)
(0.0347858 -0.00264462 0.0205354)
(0.0300123 0.00250353 0.0380306)
(0.0331731 0.00403802 0.0333329)
(0.0351725 0.00515224 0.0312827)
(0.0366118 0.00609617 0.0292237)
(0.0374529 0.0069498 0.0266742)
(0.0375728 0.00768862 0.0236051)
(0.036996 0.00826825 0.0202752)
(0.0358256 0.00870168 0.0168651)
(0.0324119 0.0110865 0.0330564)
(0.0345667 0.0126025 0.0303728)
(0.0362205 0.0139083 0.0280518)
(0.0375839 0.0150024 0.0253066)
(0.0384494 0.0158418 0.022153)
(0.038761 0.0164273 0.0187094)
(0.0384781 0.0167571 0.0150611)
(0.0376467 0.0168425 0.0114533)
(0.031866 0.0184911 0.0306984)
(0.0332462 0.0198854 0.0288548)
(0.0346297 0.0211239 0.0264103)
(0.0357612 0.0220883 0.0234475)
(0.0364879 0.0227341 0.0201489)
(0.0367851 0.0230732 0.0166543)
(0.0366578 0.0231235 0.0130784)
(0.0361372 0.022901 0.00951965)
(0.0343678 -0.0319614 0.0663942)
(0.0380311 -0.0344613 0.0596981)
(0.0414322 -0.0366161 0.0519138)
(0.0442722 -0.0383118 0.0430723)
(0.0464675 -0.0395421 0.0335477)
(0.0479857 -0.0403136 0.0237775)
(0.0487781 -0.0406036 0.0142521)
(0.0487402 -0.0403356 0.00554114)
(0.0352511 -0.0246149 0.0728883)
(0.0404407 -0.0259861 0.0652395)
(0.0448134 -0.0273316 0.0576695)
(0.048546 -0.0284368 0.049012)
(0.0515095 -0.0292072 0.0393728)
(0.0536349 -0.0296201 0.0291721)
(0.0548375 -0.0296509 0.0189733)
(0.0549663 -0.0292432 0.00948477)
(0.0352104 -0.0157352 0.0806375)
(0.0409995 -0.0156865 0.0705045)
(0.0458632 -0.0160135 0.0632137)
(0.0500311 -0.0163754 0.0552165)
(0.0533536 -0.0166133 0.0460458)
(0.0557194 -0.0166818 0.0360037)
(0.0570356 -0.0165602 0.0256751)
(0.0571336 -0.0162157 0.0158455)
(0.0357299 -0.00560376 0.0865454)
(0.0413586 -0.00441769 0.07367)
(0.0462655 -0.00376701 0.0663288)
(0.0504193 -0.00327821 0.0588164)
(0.053695 -0.00282515 0.0501953)
(0.0559894 -0.00239623 0.0406218)
(0.0572133 -0.00199519 0.0306238)
(0.0570599 -0.00162526 0.0209903)
(0.0373534 0.00530633 0.0833757)
(0.0429463 0.00713982 0.0717331)
(0.0476106 0.00865561 0.0640462)
(0.0515767 0.0100052 0.0559548)
(0.054713 0.0111502 0.0467609)
(0.0568983 0.0120472 0.036696)
(0.0580462 0.0126577 0.0263364)
(0.057999 0.012937 0.0164718)
(0.0398574 0.0157241 0.0749865)
(0.0446619 0.0182592 0.0662781)
(0.0486738 0.0204656 0.0583607)
(0.052079 0.0223191 0.0495414)
(0.0547285 0.0237556 0.0397733)
(0.0565574 0.0247628 0.0294509)
(0.0574767 0.0253244 0.019135)
(0.057334 0.0253932 0.00952942)
(0.0397884 0.0246759 0.0683607)
(0.0430967 0.0278905 0.061239)
(0.0461791 0.0307006 0.0532414)
(0.0487582 0.0329931 0.0442077)
(0.0507223 0.0347557 0.0344864)
(0.0520329 0.0359918 0.0245235)
(0.0526394 0.0366797 0.0148181)
(0.0524343 0.0367436 0.00594159)
(0.0543313 -0.0495448 0.142559)
(0.0622986 -0.0553667 0.132698)
(0.0696354 -0.0604641 0.121752)
(0.0756841 -0.0644704 0.10975)
(0.0800051 -0.0671362 0.0968818)
(0.0821603 -0.068178 0.083192)
(0.0816632 -0.0672476 0.068381)
(0.0780462 -0.0640057 0.051696)
(0.05445 -0.0363013 0.151473)
(0.0655269 -0.0397043 0.140511)
(0.0752747 -0.0429763 0.12956)
(0.0836744 -0.0455953 0.117551)
(0.0901128 -0.0472626 0.104446)
(0.0939255 -0.0477165 0.0902832)
(0.0943513 -0.0466468 0.0747559)
(0.0906635 -0.0437468 0.0569732)
(0.0539283 -0.0223698 0.16076)
(0.0662171 -0.0228661 0.147421)
(0.0771573 -0.0238921 0.136603)
(0.0868502 -0.0248169 0.125104)
(0.094524 -0.0253365 0.112413)
(0.0993196 -0.0252676 0.0985058)
(0.100277 -0.0244248 0.0830811)
(0.0964681 -0.0226233 0.0651812)
(0.0547488 -0.00658503 0.166879)
(0.0667449 -0.00493918 0.150921)
(0.0777033 -0.00400107 0.139961)
(0.0875114 -0.00328648 0.128828)
(0.0953541 -0.002662 0.11658)
(0.100282 -0.00210688 0.103107)
(0.101261 -0.00161906 0.0881061)
(0.0973035 -0.00120106 0.0706243)
(0.0568688 0.0106589 0.162684)
(0.0686782 0.013724 0.147794)
(0.0792464 0.0164305 0.136431)
(0.0886207 0.0186941 0.124646)
(0.0960341 0.0203474 0.111724)
(0.100614 0.0212307 0.0976006)
(0.101398 0.0211781 0.0819771)
(0.0974509 0.0200415 0.0639102)
(0.0601451 0.026424 0.15245)
(0.0704837 0.0314434 0.140193)
(0.0795989 0.0359514 0.12858)
(0.0874962 0.0396273 0.116046)
(0.0935162 0.0422083 0.102433)
(0.0969636 0.0434573 0.087779)
(0.0970554 0.0430881 0.0717965)
(0.0930647 0.0408242 0.0536175)
(0.0605039 0.0416901 0.142964)
(0.0678155 0.0486291 0.13234)
(0.0746199 0.0546764 0.120773)
(0.0802656 0.0594948 0.108121)
(0.0842734 0.0628508 0.0945715)
(0.0861649 0.0644857 0.0802072)
(0.0854094 0.0640766 0.0647689)
(0.0815166 0.0613186 0.0475378)
(0.0653815 -0.0601554 0.279518)
(0.0744782 -0.0672194 0.265248)
(0.0838492 -0.0741498 0.245244)
(0.0928744 -0.0807395 0.217572)
(0.10146 -0.0870334 0.180776)
(0.110412 -0.0937103 0.134267)
(0.121014 -0.101686 0.0787543)
(0.130276 -0.108287 0.0166815)
(0.0670022 -0.0432269 0.289246)
(0.0796841 -0.0471244 0.275498)
(0.0919011 -0.0512519 0.257484)
(0.103809 -0.0552067 0.231992)
(0.115194 -0.0589203 0.196605)
(0.12696 -0.0628412 0.149867)
(0.140889 -0.0677879 0.0919023)
(0.153507 -0.0720976 0.0250197)
(0.067352 -0.0255646 0.298067)
(0.0815887 -0.0259878 0.283089)
(0.0953932 -0.0271086 0.266251)
(0.109091 -0.0283548 0.242522)
(0.122388 -0.0295757 0.208551)
(0.136194 -0.0310008 0.162138)
(0.152541 -0.0331169 0.102928)
(0.167586 -0.0351284 0.0331575)
(0.0683039 -0.00553617 0.303733)
(0.0823879 -0.00354418 0.286782)
(0.0962828 -0.00224335 0.270154)
(0.110237 -0.00121224 0.247263)
(0.123942 -0.000380808 0.214217)
(0.138296 0.000224723 0.16845)
(0.155396 0.000586216 0.109329)
(0.171183 0.000718083 0.0389336)
(0.0695492 0.0163946 0.299599)
(0.0832167 0.0199538 0.28334)
(0.0964838 0.0233178 0.266007)
(0.109664 0.0264046 0.242028)
(0.122484 0.0291045 0.207906)
(0.135875 0.0316038 0.161396)
(0.151896 0.0343687 0.102118)
(0.166741 0.0366359 0.0322857)
(0.0707828 0.0358971 0.29024)
(0.0824183 0.0421838 0.2754)
(0.0935628 0.0483717 0.256868)
(0.10441 0.0541394 0.231056)
(0.114779 0.0593527 0.195436)
(0.125639 0.0643869 0.148503)
(0.138869 0.0700106 0.0903385)
(0.151091 0.0745676 0.0232371)
(0.0681966 0.0552596 0.280449)
(0.0759793 0.0643409 0.265727)
(0.0840132 0.073158 0.24554)
(0.0916956 0.0814009 0.217751)
(0.0989972 0.0890397 0.180805)
(0.106808 0.0966762 0.13404)
(0.116523 0.105174 0.0781268)
(0.125303 0.111844 0.0155191)
(0.0307952 0.0299751 0.000948169)
(0.0300311 0.029188 0.00154887)
(0.0299207 0.02663 0.00178972)
(0.030935 0.025575 0.00176666)
(0.0314758 0.0242129 0.00151508)
(0.031833 0.0232212 0.00110485)
(0.0320167 0.022239 0.000503628)
(0.0316116 0.0209683 -0.00024092)
(0.0200633 0.0314107 0.00095132)
(0.018427 0.0309449 0.00130809)
(0.018864 0.0280945 0.00164911)
(0.0185367 0.0264137 0.00168854)
(0.0177487 0.0247665 0.00149329)
(0.0178899 0.0245239 0.00128954)
(0.0179371 0.0241676 0.00107114)
(0.0179001 0.0236013 0.000808294)
(0.00807339 0.0341737 0.00310243)
(0.00693686 0.0335892 0.00223423)
(0.00883129 0.0291901 0.00320714)
(0.0100059 0.0240975 0.00422234)
(0.0131575 0.0245824 0.00566263)
(0.0141036 0.0211257 0.00536846)
(0.0148553 0.020258 0.00468574)
(0.0156321 0.0196253 0.00401458)
(-0.00452887 0.0331468 0.00528517)
(-0.00551859 0.0365319 0.00501802)
(-0.00637866 0.0329658 0.0072986)
(-0.0060615 0.0286805 0.00841774)
(-0.00582461 0.026825 0.0089961)
(-0.00519217 0.0246203 0.00908158)
(-0.00456716 0.0223152 0.00873336)
(-0.0039704 0.0204898 0.00823936)
(-0.0167633 0.0339741 0.00237097)
(-0.0153885 0.0327892 0.00162538)
(-0.0161208 0.0275834 0.00244788)
(-0.0174259 0.0245399 0.00334134)
(-0.0197369 0.0232681 0.00407227)
(-0.02207 0.0215926 0.00417214)
(-0.0223316 0.0201808 0.0037239)
(-0.0222713 0.0196204 0.00321563)
(-0.0299065 0.0317194 0.00063425)
(-0.0293243 0.0301637 0.00123459)
(-0.029099 0.0263771 0.0017154)
(-0.0280023 0.0244883 0.00192809)
(-0.026862 0.0244949 0.00178686)
(-0.0241804 0.0226024 0.00143203)
(-0.0242057 0.0230726 0.00129714)
(-0.0239137 0.0226833 0.00114238)
(-0.0401816 0.0290579 0.000495902)
(-0.0396775 0.0264366 0.00133045)
(-0.0390033 0.0235814 0.00182582)
(-0.0391662 0.0221688 0.00207838)
(-0.0393903 0.0207127 0.00210445)
(-0.0397293 0.0192178 0.00198217)
(-0.0391837 0.0176291 0.00168953)
(-0.0392615 0.0165099 0.00123816)
(0.0272781 0.022154 0.032253)
(0.0287249 0.0233481 0.0307757)
(0.0301292 0.0245555 0.0287292)
(0.0313487 0.0255248 0.0261198)
(0.0322312 0.0261308 0.023123)
(0.0327332 0.0263774 0.0198943)
(0.0328588 0.0262851 0.0165289)
(0.0326291 0.0258824 0.0131418)
(0.018517 0.0231958 0.0362715)
(0.0195146 0.0243703 0.0344211)
(0.0205896 0.025463 0.0329185)
(0.0216724 0.0264853 0.030963)
(0.0226497 0.0272103 0.0285365)
(0.0234874 0.0275612 0.0257213)
(0.0241069 0.0274818 0.0226532)
(0.0245011 0.0269902 0.0195039)
(0.00710053 0.0217013 0.042737)
(0.00787237 0.0233216 0.0381641)
(0.00877889 0.0246134 0.0372402)
(0.00977325 0.025707 0.0361971)
(0.0107952 0.0264294 0.0342706)
(0.0116572 0.0265023 0.0319272)
(0.012391 0.0261907 0.0293449)
(0.0130006 0.0254446 0.0265866)
(-0.00467248 0.0211171 0.0470475)
(-0.00482105 0.0231455 0.0397356)