/*--------------------------------*- C++ -*----------------------------------*\
| =========                 |                                                 |
| \\      /  F ield         | OpenFOAM: The Open Source CFD Toolbox           |
|  \\    /   O peration     | Version:  plus.master.MPPICInterFoam            |
|   \\  /    A nd           | Web:      www.OpenFOAM.com                      |
|    \\/     M anipulation  |                                                 |
\*---------------------------------------------------------------------------*/
FoamFile
{
    version     2.0;
    format      ascii;
    class       vectorField;
    location    "2.8/lagrangian/kinematicCloud";
    object      U;
}
// * * * * * * * * * * * * * * * * * * * * * * * * * * * * * * * * * * * * * //


1809
(
(-0.0186155 -0.0112656 0.335385)
(-0.0129411 -0.00391617 0.334662)
(-0.00774249 0.0193725 0.3396)
(-0.0102224 0.0110624 0.341579)
(-0.00860147 0.0175288 0.350249)
(-0.0010826 0.0233908 0.340606)
(-0.00818587 0.017537 0.342283)
(-0.00536672 0.0205444 0.342592)
(-0.00232702 0.0206023 0.342439)
(-0.0195521 0.00400148 0.32424)
(-0.00655162 0.0200667 0.34376)
(-0.0027524 0.0178891 0.349929)
(-0.00695037 0.0218496 0.331206)
(-0.00298146 0.011251 0.341508)
(-0.00640992 0.00750014 0.32165)
(0.00500434 0.00970016 0.33448)
(-0.00355437 0.0185167 0.358407)
(-0.00972681 0.00689004 0.329844)
(0.000625656 0.00915563 0.310333)
(-0.0107166 0.0122387 0.287872)
(-0.00043656 0.0118633 0.295911)
(-5.27754e-05 0.0146376 0.309153)
(-0.0162511 0.00321926 0.322352)
(-0.00267062 0.0148081 0.351517)
(0.00616713 0.00777992 0.342996)
(-0.00647951 0.0134896 0.332018)
(0.0038301 0.00979644 0.334559)
(-0.0163625 0.00131021 0.32619)
(-0.0131664 0.0130713 0.280088)
(-0.00823511 0.00788766 0.322516)
(-0.0198115 0.00368244 0.321662)
(-0.00426568 0.0143253 0.351891)
(-0.0102396 0.0231436 0.327827)
(-0.00827244 0.00373198 0.325224)
(-0.0147635 0.010588 0.333192)
(-0.00674349 0.0120211 0.350981)
(-0.00519739 0.0112842 0.316554)
(-0.0130591 0.0142962 0.267038)
(0.00710146 0.0084041 0.359854)
(-0.00593545 0.0106704 0.366664)
(-0.0164952 0.01396 0.268036)
(-0.00424623 0.0068562 0.342457)
(-0.0199284 0.00437473 0.322908)
(-0.00759267 0.000431327 0.338163)
(0.0540166 -0.00122359 0.265578)
(-0.0141225 0.00995996 0.296284)
(-0.00203101 0.0137088 0.309891)
(0.0015281 0.00910291 0.355541)
(-0.00793461 -0.0236728 0.339304)
(-0.00158926 0.0175402 0.28998)
(-0.0121865 0.0140452 0.258625)
(-0.0065356 -0.0172538 0.346219)
(-0.00814512 -0.000417536 0.342658)
(-0.0211753 0.00688938 0.329005)
(-0.0213457 0.00779495 0.32872)
(-0.0101672 0.00448622 0.339602)
(-0.00821252 0.0109229 0.348754)
(-0.00758077 -0.0109692 0.346251)
(-0.0101441 0.00498311 0.339671)
(-0.0158504 -0.00895082 0.342646)
(-0.00417875 0.021909 0.287552)
(-0.00956227 0.00812924 0.343982)
(-0.0135765 0.00658544 0.307629)
(-0.0116445 0.0150542 0.278049)
(0.000560057 0.020821 0.29785)
(-0.016623 0.00840176 0.315921)
(-0.0193021 0.0215573 0.29261)
(-0.00628286 -0.00734549 0.342382)
(-0.0201712 0.00530406 0.341868)
(-0.00986921 -0.00632072 0.323722)
(-0.00614998 0.010027 0.341674)
(-0.00347601 0.0104364 0.326112)
(-0.00227966 0.0214269 0.27477)
(0.00580058 0.00470795 0.245753)
(-0.00476604 0.0103918 0.368628)
(0.00660527 0.00442634 0.245144)
(-0.00821735 0.00937595 0.351414)
(-0.00729653 0.00648571 0.341753)
(-0.0148683 0.00956414 0.245262)
(-0.0130367 0.00649257 0.365161)
(0.000891251 0.0209591 0.290057)
(-0.00570592 -0.000706397 0.33398)
(-0.000497275 0.00138668 0.361482)
(-0.0427478 0.00729649 0.355117)
(-0.00990582 0.0121206 0.335992)
(0.0155116 0.00742508 0.242174)
(-0.00797511 0.019409 0.288296)
(-0.0122292 0.0134396 0.335604)
(0.00353073 -0.0126675 0.32024)
(-0.00252254 -0.0205157 0.335201)
(-0.0143786 0.00758367 0.29391)
(0.00544255 -0.0244273 0.327435)
(-0.0130147 0.0112002 0.321004)
(-0.00492477 0.0223614 0.271341)
(-0.010729 0.0134803 0.306532)
(0.00132533 0.0212208 0.282711)
(-0.00743819 -0.0148479 0.342043)
(-0.00417781 0.0106544 0.30579)
(-0.016969 0.00930371 0.340761)
(0.00215913 0.0191871 0.267034)
(-0.00639178 0.00621666 0.343832)
(-0.0151043 0.0202083 0.281764)
(0.00412819 -0.0137962 0.328429)
(-0.0074657 0.013351 0.245231)
(-0.00168812 0.0124016 0.262583)
(-0.00436568 0.016433 0.244707)
(-0.00688942 -0.00709845 0.340088)
(-0.0159053 0.00983456 0.352863)
(-0.00347259 0.0323407 0.282657)
(0.00451868 -0.0345131 0.308842)
(-0.00654302 -0.000891246 0.34061)
(-0.018375 0.00998905 0.239109)
(-0.0121671 0.00595739 0.292173)
(0.00536671 0.021513 0.262414)
(-0.00646426 0.0131889 0.242681)
(-0.00375864 -0.010263 0.327429)
(-0.003439 -0.00471663 0.307818)
(0.00720355 0.00485162 0.262095)
(-0.0194445 0.0180113 0.305872)
(0.00174082 0.0112207 0.216392)
(-0.0162643 3.50229e-05 0.327775)
(-0.0310492 0.00828179 0.35469)
(-0.00737595 -0.00331306 0.343655)
(-0.016698 0.0112893 0.302809)
(-0.00667354 -0.0180599 0.336964)
(-0.0180785 -0.0101953 0.348776)
(-0.00601937 0.0166413 0.254437)
(0.00581986 -0.037759 0.319927)
(-0.018232 0.00914725 0.324696)
(-0.000270999 0.0113454 0.270809)
(-0.022094 -0.00209575 0.334015)
(-0.0331505 0.00710245 0.33166)
(-0.00732937 0.00683964 0.282228)
(-0.0181749 0.00780645 0.276162)
(-0.00854862 0.0128197 0.336924)
(0.00342529 0.021087 0.218576)
(-0.0245718 -0.0325538 0.360431)
(0.0140711 0.010952 0.255758)
(-0.0265129 0.0214641 0.299368)
(-0.0237983 -0.0291312 0.356715)
(-0.00809176 -0.003423 0.350653)
(-0.0127702 0.0202265 0.297368)
(-0.023137 0.0139523 0.332985)
(-0.0166776 0.010638 0.296682)
(0.00723755 0.00314254 0.26183)
(0.00712413 0.005549 0.261002)
(0.00449111 0.0104432 0.239574)
(-2.95991e-05 0.0119304 0.271634)
(-0.00739301 0.0094691 0.263975)
(0.00368133 0.0192002 0.271652)
(-0.018626 0.00956825 0.323215)
(-0.0137474 0.0140521 0.328576)
(-0.00332704 -0.0531182 0.339305)
(0.00301586 0.0142847 0.257265)
(-0.00784614 0.0140979 0.328846)
(-0.00493352 0.0182013 0.222425)
(0.000500137 0.0203656 0.253742)
(-0.0022969 -0.0556434 0.336728)
(-0.00771667 -0.00759042 0.343017)
(-0.0108861 0.0143106 0.319838)
(-0.00104589 0.013622 0.223131)
(-0.0117166 0.014288 0.317921)
(0.0058956 -0.0168292 0.292211)
(-0.0182066 0.00904207 0.278962)
(-0.0189095 -0.00413408 0.294903)
(-0.0166048 0.00131287 0.315386)
(-0.00641485 0.0110772 0.243861)
(0.0031084 -0.00203739 0.269742)
(-0.0105821 0.0190408 0.303275)
(0.0025835 -0.0272453 0.301217)
(-0.00515479 0.0177415 0.211269)
(-0.00724788 0.0474068 0.29788)
(0.00603161 0.0248825 0.227235)
(-0.0162474 0.0102812 0.311396)
(-0.0058927 0.0246188 0.269028)
(0.00475612 0.00849676 0.270171)
(-0.00740354 0.00908234 0.259523)
(-0.0092252 0.0124376 0.257972)
(-0.0449661 -0.00272112 0.333971)
(-0.00538329 0.0128674 0.33322)
(0.00401952 0.00703669 0.247528)
(-0.0110392 0.00828166 0.3028)
(-0.00999687 0.0110042 0.255323)
(-0.0150515 0.00531368 0.296773)
(-0.0204017 0.00731944 0.338684)
(-0.015443 0.0138331 0.334633)
(-0.016079 0.0102478 0.286521)
(-0.0132825 -0.0131405 0.342498)
(-0.0191627 -0.00556924 0.334448)
(-0.00511341 0.0116995 0.237892)
(-0.014411 0.0167049 0.223682)
(-0.0013879 0.00821495 0.290909)
(-0.00818263 0.0184863 0.211032)
(-0.00592093 0.0107314 0.308081)
(-0.00776855 0.0115928 0.280093)
(0.018694 0.0195151 0.227871)
(-0.0128652 0.00845337 0.265327)
(-0.00478401 0.00849256 0.312553)
(0.00189334 0.00680808 0.247263)
(-0.013383 0.0161661 0.218618)
(-0.0146336 0.0174534 0.292856)
(-0.00544218 0.00763182 0.263272)
(0.00508132 0.0101294 0.263283)
(-0.00704671 0.0114299 0.239215)
(-0.0163793 0.0100634 0.311489)
(-0.016712 0.0139162 0.322057)
(-0.0272555 0.00577575 0.33483)
(-0.00522333 -0.0285917 0.331753)
(-0.0146972 0.0102557 0.335151)
(-0.00503563 0.00876703 0.241214)
(0.00471148 -0.0391051 0.31686)
(-0.00285028 0.0216472 0.262083)
(-0.00259918 -0.0542647 0.338431)
(-0.0179595 0.00976003 0.336199)
(-0.0151248 0.0119738 0.233079)
(-0.0171923 0.01066 0.313684)
(-0.0175359 0.00974564 0.322945)
(0.000465945 0.0113104 0.300439)
(-0.00876421 0.00911605 0.32152)
(-0.00670189 -0.0104038 0.34845)
(-0.0120317 0.00347035 0.295013)
(-0.0175597 0.0104909 0.320958)
(-0.00282874 0.0568238 0.285679)
(-0.0178188 0.0096211 0.324361)
(-0.0149237 0.012794 0.221654)
(0.00665507 -0.00713583 0.294173)
(-0.0024872 0.0138807 0.229892)
(0.00783488 0.00944649 0.225656)
(0.00315965 0.014405 0.262883)
(-0.00596721 0.00871743 0.31068)
(-0.00481051 0.0116584 0.253609)
(-0.015598 0.00660036 0.340193)
(-0.00738044 0.0216347 0.265509)
(0.013444 0.0123465 0.254138)
(-0.0063662 0.00673757 0.259955)
(-0.0150228 0.0168012 0.223395)
(0.00215107 -0.00395819 0.253611)
(0.00548663 0.00967771 0.249989)
(-0.0139409 0.0165094 0.27941)
(-0.0062643 -0.0204132 0.344765)
(0.0123298 0.0123856 0.252116)
(-0.0170117 0.00968235 0.31971)
(-4.82758e-05 0.00579419 0.277342)
(-0.0127328 0.00975396 0.318873)
(-0.00679779 -0.0250025 0.341168)
(-0.0129341 -0.0069687 0.332734)
(-0.0160928 -0.00242873 0.294479)
(-0.017099 0.00945438 0.319808)
(-0.0175337 0.0147718 0.318249)
(-0.008021 0.00993275 0.321758)
(0.00821452 0.0053469 0.266713)
(-0.0402193 0.0032133 0.323902)
(0.00143107 0.00718426 0.336478)
(-0.0090762 0.0104695 0.273088)
(-0.0353676 0.00710767 0.3157)
(-0.00370168 -0.0392771 0.332864)
(-0.00106607 0.00846392 0.328786)
(-0.00167803 0.0121006 0.269823)
(-0.00394442 0.0127457 0.300688)
(-0.0175565 0.0145038 0.316028)
(-0.0112184 0.0136457 0.312315)
(0.00296514 0.0156457 0.246217)
(-0.00277612 0.00893513 0.328898)
(-0.00813759 0.00923056 0.320755)
(-0.0063863 0.0070637 0.289657)
(-0.0140076 0.0135853 0.318401)
(-0.00754572 0.00985294 0.318754)
(-0.00130375 0.00909896 0.311261)
(-0.00638091 0.022471 0.261964)
(-0.00401069 0.0106927 0.231096)
(-0.0177008 0.0184778 0.286976)
(0.00337561 0.0120645 0.262535)
(-0.00817805 0.0178736 0.274571)
(-0.00115633 0.013185 0.258884)
(-0.00340388 0.00386668 0.248736)
(0.000660977 -0.00997557 0.299781)
(-0.000361848 0.00915352 0.309122)
(-0.0122317 0.00990223 0.317289)
(0.00509879 0.0102408 0.260066)
(-0.00511351 0.0100724 0.310515)
(-0.0011489 0.0154133 0.217762)
(-0.0189757 -0.0103208 0.30908)
(-0.00281978 0.0120211 0.236775)
(-0.00590145 0.010001 0.289707)
(0.0033025 0.00654453 0.332481)
(-0.000269356 0.0132439 0.254075)
(-0.00271001 0.00844124 0.31846)
(-0.00584044 0.0110934 0.292923)
(-0.0035679 0.0122984 0.329659)
(-0.00535838 -0.0423903 0.336886)
(-0.00433752 0.0245327 0.285231)
(0.00107465 0.0111905 0.244189)
(0.000450544 0.00111798 0.308597)
(-0.00220611 -0.00185796 0.241916)
(-0.00372294 -0.033016 0.328095)
(-0.00131319 0.0106164 0.233101)
(-0.00276295 0.0131044 0.254468)
(-0.00219803 0.00135339 0.246882)
(-0.00812572 0.00722577 0.32446)
(-0.00762635 0.0178744 0.262373)
(-0.0190122 0.0105924 0.232373)
(-0.00590615 -0.0406138 0.340968)
(-0.0062149 0.00810437 0.305009)
(-0.0150316 0.0168543 0.285557)
(0.00368684 0.00856545 0.329543)
(-0.00568855 0.0120355 0.269269)
(-0.0159669 0.00821001 0.290192)
(0.000248666 0.0125507 0.271941)
(-0.00817474 0.0113373 0.24109)
(-0.011611 -0.000884136 0.276557)
(-0.00303714 -0.0132429 0.314124)
(-0.00169636 0.00849441 0.325967)
(-0.00362225 0.0115675 0.311421)
(0.00158666 0.0223341 0.277656)
(-0.0127231 0.00814308 0.25114)
(-0.0037215 -0.0337088 0.32752)
(0.000858929 0.00956897 0.251215)
(0.00711048 0.00154662 0.294856)
(0.0104308 0.00886702 0.271619)
(-0.0058384 0.0223929 0.286544)
(-0.002727 0.00913723 0.254373)
(0.0064175 0.00874363 0.328149)
(-0.00788169 0.0130292 0.327055)
(-0.0217023 -0.0267261 0.33935)
(-0.00815116 0.0115747 0.283329)
(-0.0147186 0.00841924 0.230334)
(-0.00423285 0.00957124 0.306929)
(0.0015369 0.0110252 0.260841)
(-0.00260689 0.0118561 0.327767)
(-0.0188621 0.00192559 0.32505)
(-0.00164349 0.00603201 0.260681)
(-0.00707909 0.00935947 0.293961)
(0.00369432 0.0122112 0.327921)
(-0.0038501 0.00826757 0.313511)
(0.000411236 0.0044727 0.295046)
(-0.00942117 0.00885591 0.280854)
(-0.00587176 0.0141359 0.257854)
(-0.0158772 -0.0123438 0.333818)
(-0.0136027 0.0124834 0.22901)
(-0.0079197 0.00476468 0.290461)
(-0.0031758 0.0127513 0.324183)
(-0.00858334 0.00917029 0.287555)
(-0.013137 0.0125703 0.229341)
(0.000480602 0.0113554 0.237666)
(4.5879e-05 0.0097653 0.280469)
(-0.0078521 0.0104865 0.276448)
(-0.00221094 0.0115257 0.24609)
(-0.00726764 0.00698672 0.315835)
(0.00601033 -0.00359095 0.292449)
(-0.00537292 0.00929807 0.298635)
(0.0048071 0.00233752 0.255488)
(-0.00307688 -0.0327222 0.324219)
(-0.0201998 0.0100531 0.308223)
(-0.00887341 0.003599 0.3015)
(-0.00843374 0.0100424 0.282397)
(-0.00392764 0.00843942 0.295972)
(0.000359545 0.00884042 0.300729)
(0.0028007 0.00713048 0.328839)
(0.0054325 0.0133356 0.326964)
(-0.00208185 0.010562 0.256694)
(0.00454435 0.00627001 0.254049)
(0.000242725 0.0112635 0.246476)
(-0.00767006 0.00979959 0.290125)
(0.00125509 0.026012 0.27733)
(-0.00489802 0.00675553 0.324356)
(-0.00267094 0.00424662 0.25489)
(-0.0198856 0.0107821 0.233298)
(0.00526839 -0.00952694 0.294096)
(-0.0053706 0.00797605 0.289909)
(-0.00675638 0.0101847 0.288272)
(-0.000786568 0.000805656 0.25505)
(-0.00522679 0.0215188 0.282152)
(-0.00224834 0.0086983 0.298745)
(0.00238577 -0.00171782 0.253952)
(0.00125142 -0.0129382 0.31545)
(-0.0186377 0.0108976 0.233833)
(0.000738915 0.00799368 0.332239)
(-0.00848229 0.00559513 0.312623)
(0.00081902 0.00966603 0.312182)
(-0.00124529 0.0257774 0.27925)
(-0.00506754 0.00723519 0.317103)
(-0.0445053 0.00921378 0.319995)
(-0.00787417 0.0146135 0.266445)
(0.00216977 0.00309462 0.265975)
(0.00275214 0.0098966 0.337964)
(-0.0161616 0.0133204 0.23043)
(0.00591927 0.00334955 0.24276)
(-0.00813718 0.0256654 0.279767)
(-0.00554672 0.0123682 0.239344)
(-0.00540668 0.0146355 0.281105)
(0.0019427 0.00654443 0.330953)
(-0.0095731 -0.0021508 0.312311)
(0.00816256 0.00936076 0.331695)
(-0.00315559 0.00931195 0.256255)
(-0.00253691 0.00744567 0.330312)
(-0.00896421 0.0128036 0.264156)
(-0.0210406 0.0128089 0.228601)
(-0.00357042 0.00754043 0.314064)
(0.000145105 0.00846892 0.330388)
(-0.00945652 0.00784598 0.292559)
(0.00877991 0.00704117 0.245337)
(-0.000523362 0.00838923 0.328803)
(-0.000402003 0.0195731 0.289118)
(-0.00721901 0.0244673 0.282252)
(-0.00581153 0.00874429 0.324837)
(0.00185655 0.00733251 0.332948)
(-0.0014055 0.0122639 0.27373)
(-0.0140754 0.0128281 0.22695)
(0.0110974 0.0098269 0.327706)
(0.000334628 0.0018172 0.300035)
(-0.00429302 -0.039708 0.332967)
(-0.00271032 0.00640932 0.265592)
(-0.00232214 -0.00143281 0.238532)
(-0.00527248 0.00652781 0.277586)
(0.0014925 0.00754027 0.260177)
(-0.000451453 -0.00912723 0.3218)
(-0.0203271 0.00834122 0.236486)
(-0.00123843 0.00429253 0.290803)
(-0.00117868 0.00295556 0.287659)
(-0.018632 0.0104558 0.237362)
(-0.00160783 0.00553169 0.279622)
(0.00447306 0.00810574 0.236554)
(-0.00640523 0.00554048 0.321159)
(0.00154976 -0.00457599 0.272396)
(-0.00106946 0.00477934 0.27272)
(-0.00397579 0.0106134 0.274232)
(-0.0150079 0.0164415 0.279504)
(0.000741259 0.00986251 0.22281)
(0.00496109 0.00556989 0.287731)
(-0.0105275 0.0115566 0.231429)
(-0.0206311 0.0141122 0.229828)
(0.0014931 0.0157225 0.257229)
(-0.0112208 -0.00622185 0.327148)
(0.000823679 0.00835097 0.30025)
(0.00245548 -0.00521853 0.271768)
(-0.00405158 0.00645143 0.254033)
(0.00257958 0.00576443 0.265939)
(0.00147036 0.0131904 0.287047)
(0.00435563 0.00562523 0.272684)
(-0.000795522 0.00869473 0.330183)
(0.00106334 0.0067973 0.260042)
(-0.00621258 0.0086326 0.333149)
(0.000906649 0.00687684 0.333291)
(0.0106146 0.00843022 0.333283)
(-0.00348772 0.0226436 0.272792)
(0.000336205 0.000454442 0.30048)
(-0.00737423 -0.00258384 0.325609)
(-0.0190408 0.00850991 0.236275)
(0.00524401 0.00668339 0.29861)
(0.00348756 0.0196446 0.25629)
(-0.00475755 0.0079584 0.266752)
(0.00950658 0.00893098 0.334255)
(0.00817648 0.00885433 0.329312)
(0.00831885 0.00923876 0.339342)
(0.00117873 0.0072069 0.329617)
(-0.000878819 0.00912285 0.335791)
(0.00294414 0.00678516 0.300418)
(-0.00322796 0.00678002 0.333401)
(-0.00730634 -0.00179836 0.322447)
(2.07075e-05 0.00609464 0.292887)
(-0.000621172 -0.00442518 0.255993)
(-0.0051195 0.00638767 0.28336)
(3.30038e-05 0.0091698 0.319157)
(-0.00208563 -0.00618761 0.296154)
(-0.000775742 0.00850625 0.318985)
(-0.000215907 -0.00644369 0.321924)
(-0.00538558 0.0115519 0.266741)
(-0.00874273 0.0066467 0.312221)
(0.00700602 0.00474129 0.314593)
(-0.0014877 0.008441 0.324006)
(-0.000455975 0.00878897 0.314443)
(0.00896451 0.00820515 0.328041)
(-0.00686029 0.0174102 0.26937)
(-0.00509151 0.00514476 0.318196)
(0.00167154 0.00478645 0.255573)
(0.00174146 0.00457041 0.248166)
(0.00237467 0.000113263 0.256127)
(-0.00157784 0.00886564 0.276176)
(-0.000809688 0.0051306 0.291549)
(-0.00209019 0.00953949 0.283591)
(-0.00376336 0.0150157 0.286512)
(-0.00534349 0.00212848 0.315718)
(-0.00161432 0.00881824 0.318647)
(-0.000115564 0.00405517 0.253765)
(-0.00122615 0.00813886 0.311763)
(-0.00569425 0.00173611 0.315861)
(0.00260714 0.00434884 0.298924)
(-0.0130879 0.0118539 0.24031)
(0.00603407 0.00438635 0.284208)
(0.00902049 0.00809159 0.325339)
(0.00758847 0.00383224 0.263992)
(-0.0014557 0.00785731 0.28048)
(-0.00472708 0.00397375 0.318857)
(-0.000670615 -0.000906503 0.316631)
(-0.00254032 0.00418214 0.270992)
(-0.00396909 0.00425112 0.318082)
(-0.000645814 -0.0105343 0.323687)
(0.00212017 0.00529227 0.301637)
(-0.00159517 0.00150477 0.265947)
(0.0113476 -0.000489312 0.243482)
(-0.00809061 0.00540733 0.282357)
(0.000227657 -0.00966178 0.323949)
(-0.00166304 0.00241097 0.264082)
(-0.014402 0.0119335 0.256485)
(-0.000351038 -0.0145909 0.333741)
(0.00561031 0.00782676 0.33444)
(-0.0013786 0.0133742 0.254848)
(0.000831412 0.00890413 0.317845)
(-0.00051924 -0.0082471 0.322516)
(-0.0110682 -0.00308716 0.249538)
(0.0066849 0.00544489 0.305352)
(-0.00363088 0.00700899 0.329996)
(0.0129976 0.00193828 0.297294)
(0.00250302 0.0119782 0.292111)
(0.00357168 0.00652505 0.323134)
(0.00152588 0.00300761 0.251453)
(-0.00744905 0.00560672 0.333277)
(-0.00680761 0.00613666 0.323422)
(-0.00850145 0.00652429 0.323423)
(0.00115218 0.0169482 0.30221)
(-0.00210622 0.00392721 0.275646)
(-0.00290851 0.00685409 0.327927)
(-0.00275042 0.00682042 0.328503)
(-0.00022243 0.00545974 0.243732)
(-0.0124429 0.0047284 0.320777)
(-0.00810427 0.00650008 0.322516)
(-0.00476134 0.00767861 0.316978)
(-0.00167853 -0.00471661 0.267496)
(-0.00344491 0.005158 0.31408)
(-0.0127285 0.00537664 0.323367)
(-0.00269305 0.00677325 0.333547)
(-0.00258545 0.0047523 0.328034)
(-0.0103564 -0.00562299 0.333783)
(-0.00920267 0.00570115 0.243415)
(-0.00905283 0.00488828 0.32945)
(0.00478692 0.00478944 0.29267)
(-0.0140404 0.00622933 0.314413)
(-0.0134142 0.0068461 0.31461)
(-0.000755768 0.0115459 0.307134)
(0.00549998 0.0074579 0.324246)
(0.00173097 0.00839361 0.312165)
(-0.0132594 0.00446803 0.320786)
(-0.0117341 0.0048343 0.320278)
(-0.0115727 0.00583264 0.316456)
(9.64025e-05 0.0119702 0.306254)
(-0.00932129 0.00219337 0.256967)
(-0.0193041 0.00227434 0.309837)
(-0.0135273 0.00464738 0.322088)
(-0.00810033 0.0101804 0.281645)
(-0.00173086 0.00570811 0.303383)
(0.0116981 0.00331613 0.216499)
(-0.000663915 -0.00751467 0.281411)
(0.00330776 0.00194687 0.294818)
(-0.0022338 0.00402881 0.326578)
(0.00153129 -0.000955467 0.25949)
(-0.000158021 -0.00865524 0.331936)
(-0.0221202 0.0040722 0.318275)
(0.00321263 -0.0158614 0.276023)
(-0.000831266 0.0053166 0.33054)
(-0.00144192 0.00817597 0.296153)
(-0.0131594 0.00456113 0.326437)
(-0.0049655 -0.00411976 0.253532)
(0.00152579 0.00313026 0.250486)
(-0.0106525 0.00482717 0.320844)
(-0.0118031 0.005942 0.313127)
(-0.00898038 0.0112671 0.24532)
(0.00748748 0.00101094 0.264536)
(0.000589932 0.00415156 0.271549)
(7.10729e-05 -0.00888758 0.327163)
(-0.000395823 0.00383084 0.259783)
(-0.0127425 0.00545405 0.316969)
(0.00347627 0.000412377 0.261638)
(-0.0013544 0.0043591 0.245817)
(-0.0196102 0.00541928 0.323759)
(-0.0136895 0.00280421 0.326711)
(-0.0100913 -0.00444674 0.333066)
(-0.0125685 0.00441875 0.317917)
(0.0136022 0.00551143 0.319591)
(-0.0170895 0.00365628 0.315251)
(-0.00959523 0.00540993 0.323262)
(-0.00051646 0.00399026 0.265791)
(-0.0104679 0.00591441 0.324874)
(-0.00343967 0.0140112 0.294522)
(0.00591446 0.00413842 0.258425)
(-0.00218145 0.00465565 0.258646)
(0.000679046 -0.00761268 0.328445)
(-0.0129841 0.0106811 0.264967)
(-0.0124066 0.00558212 0.317411)
(-0.013321 0.00525878 0.317131)
(-0.00512602 0.00468015 0.333759)
(0.00556349 0.00714235 0.329557)
(-0.00966495 0.0108027 0.248091)
(-0.000592765 0.00334738 0.334595)
(-0.00419417 0.00717687 0.266608)
(0.00832081 0.00290226 0.306819)
(0.0111488 0.00538855 0.335882)
(-0.0126115 0.0047248 0.318094)
(-0.00936737 0.00632735 0.247098)
(-0.0131107 0.0108649 0.255385)
(-0.00983925 0.00487735 0.321122)
(-0.00538217 0.010285 0.31725)
(-0.00471349 0.0126012 0.288047)
(-0.00393719 0.0121999 0.303123)
(0.00132668 0.0138734 0.32647)
(-0.00256357 -0.00101479 0.273713)
(0.0018845 0.00474275 0.229727)
(-0.000547854 0.00367007 0.276519)
(-0.0112904 0.00514369 0.32044)
(-0.0100668 0.00507847 0.322858)
(0.00119633 0.00351047 0.263249)
(-0.00304984 0.0058113 0.274417)
(-0.00590849 0.00824089 0.287376)
(-0.00415134 -0.00580086 0.261139)
(-0.012662 0.00322299 0.314883)
(0.00580197 0.0039921 0.338995)
(-0.000191954 0.0141007 0.314577)
(0.00253028 0.000345741 0.340711)
(0.0011186 -0.00472596 0.293005)
(0.00465501 0.00606803 0.328917)
(-0.000671949 0.00294437 0.268214)
(-0.00255422 0.00117415 0.270083)
(-0.00717353 0.00293795 0.293491)
(0.00582994 0.00794352 0.292111)
(-0.0176103 0.00643263 0.320646)
(0.00467896 0.00708587 0.241078)
(0.00213925 0.0120489 0.235039)
(-0.00574464 0.00875574 0.244637)
(-0.00225215 0.00531332 0.325164)
(-0.00965831 0.00483242 0.321779)
(-0.00308404 0.00966082 0.279936)
(0.00184724 0.0190999 0.329737)
(-0.00105942 0.00586662 0.31148)
(-0.0039451 0.000784467 0.341491)
(0.00642116 0.000164012 0.213527)
(-0.00244917 -0.00242909 0.259741)
(-0.0104327 0.00382319 0.326791)
(-8.86797e-05 0.0127681 0.315326)
(-0.00516567 0.0107013 0.314065)
(-0.00314027 0.00579623 0.235411)
(-0.00243188 0.000930906 0.292957)
(-0.00193145 0.00578088 0.335557)
(0.00215648 0.0110864 0.330253)
(-0.0128297 0.00349276 0.316562)
(-0.00621737 0.00721788 0.29026)
(0.000744562 0.00168306 0.276158)
(-0.00223758 0.00612699 0.238932)
(0.00176722 0.0182548 0.330687)
(0.00268697 0.00138867 0.265223)
(0.00361123 0.00323542 0.333223)
(0.00175628 0.00418858 0.269264)
(-0.000988898 0.00467805 0.291731)
(0.00102622 0.0106448 0.340067)
(0.00694294 0.0013765 0.342068)
(-0.00138916 0.00697976 0.231571)
(-0.00199572 0.00369358 0.290722)
(0.00576482 0.00415345 0.345825)
(-0.0116342 0.00330336 0.319994)
(-0.00821823 0.00849915 0.251221)
(0.00218723 0.0173392 0.333363)
(-0.00303573 0.00312152 0.281389)
(-7.87198e-05 0.0061067 0.311948)
(-0.0124345 0.00308112 0.317908)
(-0.012195 0.00318752 0.318242)
(-0.00705969 0.00817602 0.251836)
(0.000793246 0.00428392 0.268251)
(0.0120382 0.00128365 0.2782)
(-0.0122141 0.00267998 0.321328)
(-0.00101082 0.00519289 0.243671)
(-0.000532032 0.0124383 0.322162)
(-0.0115594 0.00273051 0.327271)
(-0.0111677 0.002983 0.322893)
(0.00333094 0.00200581 0.324401)
(0.0106361 -0.00306526 0.199219)
(-0.00357358 0.00464287 0.282649)
(-0.00740931 0.00277126 0.26522)
(-0.000688058 0.010656 0.336338)
(-0.0128623 0.00284051 0.318424)
(-0.00442365 0.00379515 0.278822)
(-0.000865805 0.00946823 0.329118)
(-0.0051444 0.00294405 0.277535)
(0.000135272 0.00445329 0.340445)
(-0.00211255 0.00311833 0.294493)
(0.00181391 0.0157413 0.336609)
(-0.00622455 0.00485323 0.253089)
(-0.00127929 0.00226211 0.282062)
(0.00155004 0.00473434 0.340551)
(0.0105901 0.0099338 0.29588)
(-0.00856457 0.000590199 0.254672)
(-0.00056872 0.000204895 0.274353)
(-0.00380938 -0.00427279 0.258499)
(-0.0053272 0.00205269 0.283261)
(0.000975632 0.00605932 0.228088)
(-0.00464777 0.00622473 0.289316)
(-0.00671621 0.00777054 0.256201)
(0.00576339 0.00129972 0.344075)
(-0.0119258 0.00338468 0.331084)
(-0.00347129 0.00705958 0.249553)
(0.00981083 0.00361641 0.223115)
(0.00499246 0.00296785 0.345487)
(-0.00150099 0.000122008 0.308635)
(-0.0018162 0.00247524 0.30449)
(-0.0128461 0.00158327 0.326486)
(-0.0119795 0.00288679 0.331853)
(0.0114118 0.00234867 0.303755)
(-0.000914966 0.0127629 0.322833)
(-0.00620086 0.00122135 0.255178)
(-0.0121598 0.00216202 0.332037)
(-0.000637867 0.00489035 0.315003)
(-0.00168953 0.00622678 0.313024)
(-0.0116977 0.00190786 0.328671)
(0.00625708 0.00542917 0.238284)
(0.00571693 0.00330986 0.343141)
(-0.00193854 0.00118962 0.26586)
(-0.00151738 0.00630598 0.300318)
(-0.00285817 -0.00273316 0.288159)
(-0.00493125 0.00674432 0.333541)
(-0.00752547 0.0140594 0.290858)
(-0.00472073 0.00660111 0.264631)
(0.00756589 0.00073816 0.186993)
(0.00249716 0.000247523 0.263649)
(-0.0112025 0.0023066 0.330085)
(-0.000216812 0.00618138 0.250662)
(0.00190753 0.0059717 0.245122)
(0.00287776 0.000699217 0.25884)
(-0.00395615 0.0017831 0.302381)
(-0.00501768 0.00322259 0.285535)
(-0.0018842 0.00012793 0.284551)
(0.00585108 -0.00031286 0.189771)
(0.00109577 0.00232621 0.233708)
(0.00241363 0.0129992 0.343847)
(0.00053231 0.00799377 0.350275)
(0.00513143 0.00297378 0.358784)
(-0.00533292 0.00555104 0.27046)
(0.0104972 -0.000297466 0.19937)
(-0.000961788 0.00915913 0.347799)
(0.000701521 0.00504153 0.337174)
(-0.0132108 0.00254828 0.331557)
(0.0123743 0.00355038 0.22208)
(-0.00188711 0.00554481 0.308824)
(0.00176079 0.0072332 0.232522)
(-0.00343321 0.0101096 0.344251)
(0.00237811 0.00320329 0.343053)
(-0.00215343 0.0025091 0.313603)
(0.00240552 0.0046927 0.238042)
(0.000106171 0.00507422 0.328306)
(0.00472805 0.00263903 0.356874)
(-0.00492947 0.00200639 0.294517)
(0.00189671 0.00716986 0.232477)
(-0.000928189 -0.00179619 0.274635)
(-0.000950002 0.00908393 0.333051)
(-0.00712207 0.00482633 0.27439)
(-0.00181331 0.00698204 0.313864)
(-0.00143717 0.00613824 0.330637)
(-0.00804368 -0.00269554 0.287883)
(0.000621348 0.00495746 0.337636)
(0.00156496 0.0159739 0.353952)
(-0.00155472 0.00575377 0.25038)
(-0.00714152 0.00618255 0.279702)
(-0.00829981 0.0110761 0.257102)
(-0.00120133 0.00308561 0.286937)
(-0.00128042 0.00229568 0.314527)
(-0.0042461 0.00226996 0.283566)
(-0.00521115 0.00600353 0.29553)
(0.00715605 -0.00387019 0.248026)
(-0.00476679 0.00447923 0.330392)
(0.00168341 0.00226013 0.35037)
(-0.00320203 0.00343577 0.322198)
(-0.00182639 -0.00285363 0.317372)
(0.00657277 -0.00535109 0.244273)
(-0.00148538 0.00217187 0.295776)
(0.00482299 0.00202066 0.238215)
(-0.00448134 0.00426069 0.259852)
(0.000317547 -0.000662515 0.272288)
(-0.00156471 0.00726679 0.341808)
(-0.00157199 0.00705465 0.339958)
(-0.00226263 0.00269706 0.292129)
(-0.00199503 -0.00333365 0.266703)
(-0.00112315 0.00800712 0.350377)
(-0.00165587 0.0072206 0.343452)
(-0.000226744 0.00115885 0.313462)
(-0.0071923 -0.00405739 0.254145)
(-0.00158973 0.00676858 0.338555)
(0.0042925 0.00283545 0.347782)
(-0.00828563 0.0156669 0.251377)
(0.00902042 -0.00282203 0.265812)
(0.0194033 -0.00264508 0.302786)
(-0.00440853 0.00461028 0.252212)
(0.00701114 -0.00663582 0.237715)
(-0.00655865 0.000151643 0.25578)
(-0.00250132 -0.00402745 0.309457)
(-0.00681079 -4.17566e-05 0.257897)
(-0.000339086 0.00207894 0.342452)
(0.000853816 0.00215257 0.344732)
(-0.00238033 0.00354027 0.329009)
(-0.00375567 0.000570331 0.304726)
(-0.00315702 0.00395853 0.299075)
(0.0011275 0.00647629 0.336778)
(-0.000365624 -0.00328923 0.274575)
(0.00604513 0.000770887 0.308443)
(0.0115924 -0.00104054 0.294658)
(-0.00143954 0.00805535 0.352225)
(-0.00121545 0.000912589 0.324077)
(0.0160371 -0.00199704 0.295736)
(-0.00176241 0.00734099 0.371625)
(-0.000464473 0.0064658 0.367913)
(0.00667513 0.00862823 0.223127)
(-0.00308927 -0.00429176 0.317013)
(-0.00873063 0.00173884 0.289202)
(-0.0019918 0.00200567 0.32473)
(-0.00308445 -0.00438381 0.314295)
(-0.00712985 0.00218479 0.288893)
(0.00011351 0.00195581 0.350455)
(-0.0128328 0.0182369 0.255114)
(-0.00488917 0.00163853 0.341685)
(-0.00138326 0.00669623 0.355225)
(-0.00180604 0.00595897 0.34182)
(-0.000898041 0.000600974 0.305303)
(0.0049903 -0.00535179 0.24427)
(-0.000984785 0.0016572 0.313157)
(0.00823455 -0.000176033 0.256823)
(-0.00248661 0.0016523 0.258781)
(-0.0142673 -0.00057461 0.335856)
(-0.00428333 6.95958e-05 0.289376)
(0.00211077 0.00252437 0.24063)
(-0.00115473 0.00143717 0.348387)
(0.00333073 -0.0007475 0.309302)
(-0.00150604 0.00733159 0.356326)
(0.00406528 -0.00318926 0.232355)
(-0.00370428 -0.002999 0.295737)
(-0.0115061 0.000166754 0.333985)
(0.00511102 -0.00427266 0.225504)
(-0.000541742 0.00349768 0.339284)
(-0.00899238 0.0111533 0.263791)
(-0.00220398 0.0271834 0.233177)
(-0.00246674 0.000981915 0.31949)
(-0.00450688 -0.00308959 0.25863)
(0.013803 0.000775348 0.223925)
(0.00665304 -0.00550916 0.243443)
(-0.00378585 -0.00122627 0.298754)
(-0.00253299 0.00291305 0.336851)
(-0.00211389 0.00609922 0.35525)
(0.00266502 0.00488058 0.346114)
(-0.00330651 -0.00570754 0.315812)
(-0.00253303 0.00509156 0.362657)
(0.00495078 -0.00708341 0.288858)
(-0.0128537 0.00284735 0.289906)
(-0.007578 -0.00223795 0.297507)
(-0.00209096 0.00438973 0.340797)
(-0.00222666 0.00564141 0.349929)
(-0.00616515 -0.00441677 0.297466)
(-0.00837749 0.00076517 0.339235)
(-0.00195458 -0.000389922 0.338101)
(-0.00733381 -0.00818776 0.277477)
(-0.00531786 -0.00479297 0.30321)
(-0.0090493 0.00297863 0.288494)
(0.00102503 -0.00849904 0.260026)
(-0.00217824 0.00584739 0.353608)
(-0.00752687 0.0240585 0.242067)
(-0.00366939 0.00135445 0.336841)
(0.000691385 0.0018333 0.35798)
(-0.00276468 0.00120718 0.337891)
(-0.00247039 0.00554324 0.357656)
(-0.00408419 0.00613951 0.351445)
(-0.00223002 0.00614023 0.367649)
(0.00209652 0.00231694 0.263935)
(-0.0181794 -0.00179398 0.297632)
(-0.00833849 0.0197068 0.287829)
(0.000268808 -0.00200898 0.305034)
(0.00223416 0.00196687 0.249066)
(-0.00168452 0.00217598 0.339677)
(0.00402214 0.00368928 0.223523)
(-0.00448315 0.00121197 0.344357)
(-0.00772035 0.000425593 0.346651)
(-0.00221577 0.00602246 0.358736)
(-0.00166273 0.00129602 0.351413)
(-0.00608929 -0.000390465 0.336987)
(0.0156592 0.000822529 0.218146)
(-0.00661851 -0.000982203 0.299115)
(-0.0051578 0.000775684 0.344857)
(-0.00026942 -0.00513733 0.277042)
(-0.010831 0.00637346 0.274362)