/*--------------------------------*- C++ -*----------------------------------*\
| =========                 |                                                 |
| \\      /  F ield         | OpenFOAM: The Open Source CFD Toolbox           |
|  \\    /   O peration     | Version:  plus.master.MPPICInterFoam            |
|   \\  /    A nd           | Web:      www.OpenFOAM.com                      |
|    \\/     M anipulation  |                                                 |
\*---------------------------------------------------------------------------*/
FoamFile
{
    version     2.0;
    format      ascii;
    class       vectorField;
    location    "2.8/lagrangian/kinematicCloud";
    object      UCorrect;
}
// * * * * * * * * * * * * * * * * * * * * * * * * * * * * * * * * * * * * * //


1809
(
(7.01191e-10 -2.91945e-08 9.78901e-07)
(0.00128108 -0.000422973 4.43955e-11)
(0.00159426 -0.000517806 4.43955e-11)
(0.000123862 0.00316215 4.43955e-11)
(-1.90002e-06 -9.04479e-06 1.59381e-05)
(-0.000659147 -0.000396782 6.86577e-06)
(-0.00152906 -0.00292881 0.000548282)
(0.00114433 -0.00689767 2.88522e-06)
(0.00122024 -0.00621967 2.88522e-06)
(-0.00367022 -0.00410111 7.2916e-07)
(0.00112347 -0.00708401 2.88522e-06)
(-0.000570646 -0.000485283 6.86577e-06)
(8.41219e-05 0.000106949 0.000548867)
(-3.02562e-05 0.000129382 9.0985e-07)
(0.000234204 -0.00112394 0.000292888)
(-0.00182804 0.0014894 0.00108297)
(0.00403108 -0.00227007 2.88522e-06)
(0.000360909 3.9177e-05 0.000158223)
(-0.000600196 0.00046665 0.000158223)
(-2.3948e-05 -4.45703e-08 -1.21094e-05)
(1.3587e-06 2.63219e-07 2.3378e-09)
(1.92655e-06 3.88136e-07 7.51812e-07)
(-0.00309321 -0.0040783 0.00103611)
(0.000758494 0.00153111 4.14866e-07)
(-3.262e-08 -3.71558e-07 1.9833e-06)
(-0.000228111 -0.000740453 -1.54653e-05)
(-0.00182804 0.0014894 0.00105633)
(-0.00298609 -0.00413901 0.00103611)
(-2.10431e-06 7.639e-06 -2.55326e-08)
(0.000155167 -0.000862931 0.000292888)
(-0.00346809 -0.00386585 0.00030119)
(-0.000685804 -0.00105739 0.000548282)
(0.00224924 -0.000309827 0.000548867)
(0.00210561 -0.000296038 0.000548867)
(-0.00293571 -0.000658368 0.00103611)
(0.000902885 0.00105427 -0.000556971)
(-0.0010349 -0.000660095 9.1447e-05)
(-2.3948e-05 -4.45703e-08 -1.46072e-06)
(-3.34592e-08 2.92683e-06 1.21936e-05)
(-0.000296089 3.81039e-05 7.49143e-06)
(-0.00116894 1.26593e-05 1.53349e-06)
(0.00249647 -0.0013356 1.07248e-05)
(-0.00367022 -0.00410111 7.46912e-07)
(0.00152648 -0.000138111 0.000559383)
(-5.06754e-09 -3.98511e-09 1.31834e-06)
(-1.99438e-06 7.65353e-06 -1.80523e-06)
(-0.00163486 0.00212737 0.000587127)
(-2.79462e-09 2.92683e-06 1.21936e-05)
(-0.000597052 -0.00178353 -7.00041e-07)
(0.00263176 -0.000723507 3.0071e-07)
(-2.31234e-05 -0.00023106 1.25527e-06)
(0.000659195 0.00140899 4.76792e-07)
(-0.000442661 0.00203344 4.76792e-07)
(-0.00310146 -0.000674472 -2.68594e-06)
(-0.00304502 -0.00033443 -2.68594e-06)
(-0.000524167 -0.000105629 1.36395e-06)
(-0.000296089 0.000414625 1.3283e-05)
(0.000977788 0.00135761 0.000559383)
(-0.000518397 -5.40935e-05 1.36395e-06)
(-0.000277541 0.00193986 4.76792e-07)
(0.00262244 -0.000754276 3.0071e-07)
(-0.000422838 0.00202221 4.76792e-07)
(-0.000190287 0.000431731 1.63156e-06)
(-2.0339e-05 -1.88068e-05 5.21176e-07)
(9.54153e-10 -5.27862e-09 7.53986e-11)
(0.000296237 3.83766e-05 2.19376e-05)
(-2.93856e-07 2.29078e-07 9.64075e-07)
(4.90043e-05 0.00582729 6.37373e-06)
(-0.00243026 -0.00128341 -3.10908e-07)
(-0.000860217 -0.00170384 -1.62724e-06)
(0.00265568 -1.70239e-06 7.32416e-06)
(0.000202621 -0.00177947 1.07248e-05)
(-1.56691e-06 2.81515e-06 3.71354e-05)
(0.00133606 -3.04136e-06 1.2347e-10)
(-0.000422526 1.29915e-05 1.13601e-05)
(0.00138183 -3.04136e-06 1.2347e-10)
(0.00223886 -0.00261599 1.07248e-05)
(0.00204745 -0.000431115 0.000292888)
(-0.00203876 0.000640245 0.00178601)
(-0.00274764 0.00542138 4.76792e-07)
(-1.495e-08 5.06815e-08 1.91508e-06)
(-0.000134787 0.0025652 6.37373e-06)
(0.00199319 -0.000882772 7.49143e-06)
(0.00217391 -0.0032926 1.07248e-05)
(-0.000238012 2.16827e-05 7.32416e-06)
(0.00162018 -3.04136e-06 1.2347e-10)
(2.81232e-05 0.000275426 5.85364e-06)
(-0.00194317 0.000290098 0.000587127)
(-4.57906e-08 7.37574e-09 2.58426e-06)
(8.42373e-06 1.37587e-06 2.65993e-06)
(-0.00159723 -0.00177886 1.88656e-06)
(0.00125553 0.0033232 9.99347e-08)
(0.00414514 0.000197536 1.58766e-05)
(0.00177801 8.85096e-05 4.09445e-09)
(0.00414056 -0.000253925 1.58766e-05)
(-0.000562974 0.000380575 1.27202e-06)
(-0.000300393 -0.000374123 7.64579e-06)
(0.000179754 0.000327247 1.22417e-06)
(-0.000237808 -2.72086e-05 7.32416e-06)
(-0.000339798 0.000448154 1.27202e-06)
(-1.12078e-05 0.0047586 6.37373e-06)
(-0.00212243 0.000433797 -2.43869e-06)
(0.00125553 0.00349332 9.99347e-08)
(-7.4192e-06 -7.24961e-06 7.62707e-06)
(-0.000701351 -0.00163649 0.00033068)
(0.000728319 -0.000213105 0.000494676)
(3.58324e-05 0.00689448 1.42057e-06)
(0.00483863 -1.70239e-06 7.32416e-06)
(-0.0023113 0.00520319 1.80585e-06)
(2.59909e-05 -1.7751e-05 1.07308e-05)
(-3.12086e-05 0.00440361 6.37373e-06)
(-0.000767983 0.00041922 4.62079e-06)
(0.000873513 0.000234474 4.06685e-06)
(1.56853e-08 -2.78427e-08 4.54693e-06)
(-6.69955e-06 -7.24961e-06 7.62707e-06)
(8.42373e-06 1.9281e-06 -9.53005e-07)
(-0.000330702 -0.000343383 -2.28647e-06)
(-0.00406499 0.000640245 0.000928407)
(8.97135e-05 -7.77075e-05 -1.89751e-08)
(0.000126741 0.000834451 9.24324e-08)
(-0.00128518 0.000101169 -2.03529e-06)
(-0.000237811 -2.71757e-05 7.32416e-06)
(-1.87311e-05 0.00462507 6.37373e-06)
(-7.03358e-06 4.02527e-05 1.88175e-05)
(-5.70997e-05 0.00524504 1.42057e-06)
(-0.00274764 0.00333974 -9.13237e-06)
(0.000103478 0.00174212 1.74881e-06)
(0.00125553 -0.000114924 -1.44343e-06)
(0.0030878 0.00217408 2.19217e-05)
(-0.00185914 -1.19145e-05 -9.93334e-07)
(-0.0018383 0.000432901 -7.50347e-06)
(0.000444747 0.00255357 2.19217e-05)
(-0.00148799 -0.00236139 0.000585804)
(-0.00120628 0.000135966 4.21981e-06)
(0.00882052 -4.38518e-06 1.58766e-05)
(-0.000727115 0.0025789 0.00110724)
(-0.00274764 0.00333974 -9.78348e-06)
(-0.00204092 0.000633122 0.000928407)
(0.00239649 -1.41453e-05 4.09445e-09)
(-0.00156821 0.00206018 -1.24345e-05)
(0.00010757 0.00686678 6.37373e-06)
(0.000107183 -3.75652e-05 2.85836e-06)
(0.00273807 -0.000254073 3.0071e-07)
(-0.000118983 4.02527e-05 -1.01376e-06)
(8.94771e-06 -4.7986e-07 2.34565e-06)
(-6.85716e-07 -9.6255e-06 6.40571e-06)
(0.00253701 -0.000345863 0.000494676)
(-0.00185914 -1.19145e-05 -1.07326e-06)
(6.77189e-05 3.92319e-05 -8.01801e-06)
(-2.1534e-05 0.000137319 1.94699e-06)
(-0.000221175 0.00242076 2.19217e-05)
(0.00413351 -0.000327435 1.58766e-05)
(-0.000374133 -0.000381957 -3.16516e-06)
(0.000240952 -0.000347185 -2.94434e-05)
(0.0078768 -4.38518e-06 1.58766e-05)
(-0.000584522 0.00258693 0.00110724)
(-2.20672e-06 -1.34435e-06 -6.67098e-07)
(-0.000374133 -0.000381957 -4.21715e-06)
(2.67785e-05 0.00673378 1.42057e-06)
(0.00416452 -4.38518e-06 1.9637e-05)
(0.000264563 0.00201956 1.68521e-09)
(0.00273851 -0.000249547 3.0071e-07)
(0.000233983 0.000533673 1.07308e-05)
(-0.00116894 1.26593e-05 6.43392e-06)
(-0.00338956 -0.00520847 6.68416e-06)
(0.00101138 -8.78707e-06 4.28902e-06)
(-3.33893e-05 8.16627e-05 -6.00459e-07)
(0.000129639 -0.00392312 7.96538e-07)
(0.000319249 0.000110956 -2.04205e-06)
(3.1493e-06 -1.99288e-05 5.79523e-06)
(-9.33485e-05 0.000499052 -4.45135e-06)
(-0.00459543 -0.00175523 1.80585e-06)
(-0.0035679 0.00479743 0.00110724)
(-5.09669e-06 2.00772e-05 -1.01376e-06)
(-0.00113395 0.00287341 3.3794e-07)
(0.00103996 -0.00172484 2.74318e-07)
(7.75386e-05 1.41359e-05 -8.01801e-06)
(0.000106905 4.1429e-05 1.74881e-06)
(-0.00011697 5.80351e-05 2.55844e-06)
(0.00856465 -4.38518e-06 1.58766e-05)
(6.20987e-07 0.000200745 0.00109127)
(0.00225026 0.000424841 2.98745e-05)
(-5.56738e-05 -9.562e-06 -0.00101003)
(0.000948304 0.000199503 4.06685e-06)
(0.000786867 9.22412e-05 2.19376e-05)
(0.00843205 -4.38518e-06 1.58766e-05)
(-9.32002e-05 -1.29149e-05 1.25527e-06)
(-0.0013832 0.000127595 2.27673e-06)
(-0.00182821 0.000493712 -7.50347e-06)
(-0.000422362 0.000246685 1.12984e-09)
(-0.000238149 0.00260644 0.00110724)
(0.000245396 -8.74419e-05 -2.03676e-05)
(-6.80029e-05 0.00050048 -4.45135e-06)
(0.00538178 0.000560562 2.98745e-05)
(0.00294829 -0.00193726 0.000809853)
(-0.000847055 0.00257214 0.00110724)
(-8.3871e-05 -1.40448e-05 -0.00101003)
(0.00521651 0.00129405 2.98745e-05)
(3.13642e-06 -1.70117e-07 2.33619e-09)
(7.87407e-06 -3.79694e-05 -1.06959e-08)
(0.000105597 -4.28014e-05 2.85836e-06)
(-0.00188919 -0.00213402 0.000115377)
(0.000999482 -0.00100646 2.74318e-07)
(0.000730952 -0.000120327 0.000494676)
(-5.0289e-06 1.93711e-05 -1.01376e-06)
(-7.03358e-06 4.02527e-05 1.47943e-05)
(-0.000145438 0.00243587 2.19217e-05)
(-0.000182369 0.00302164 1.42057e-06)
(0.00416452 -4.38518e-06 1.90397e-05)
(1.7377e-06 2.83808e-07 3.26021e-07)
(0.00125553 -0.000114924 -1.81192e-06)
(-0.0033902 0.00338253 1.19225e-05)
(-0.000374133 -0.000381957 -3.59573e-06)
(0.00413171 0.000337353 1.58766e-05)
(-1.23777e-06 -8.42917e-06 3.92162e-06)
(-5.52413e-06 2.45296e-05 -1.01376e-06)
(-5.0349e-06 1.94336e-05 -1.01376e-06)
(0.00537951 0.000584222 2.98745e-05)
(0.00535539 0.000835405 4.15287e-05)
(0.000134201 0.00864041 1.42057e-06)
(0.000124667 6.91825e-05 1.45111e-06)
(-7.03358e-06 4.02527e-05 1.78818e-05)
(-0.00218748 0.0044572 1.80585e-06)
(-4.93561e-06 1.83994e-05 -1.01376e-06)
(7.85236e-05 -0.000477662 -6.92355e-10)
(0.0029295 -0.000224034 1.13277e-05)
(-0.000165554 0.000483927 -9.34451e-07)
(0.0034722 -0.00312242 1.89695e-07)
(-0.000151385 9.48314e-05 7.96538e-07)
(0.00528128 0.00108016 2.98745e-05)
(-0.00151836 0.000280018 0.000455825)
(0.00095466 0.000108839 2.19376e-05)
(-0.0033902 0.00338253 8.66484e-06)
(-0.00204139 0.000631548 0.000928407)
(-7.25435e-06 1.37939e-05 7.99178e-08)
(-0.000159075 0.0026109 0.00110724)
(6.20987e-07 -0.00273781 0.000581035)
(0.000605663 -0.00312242 2.02789e-06)
(0.000123933 0.000801657 -1.25126e-05)
(0.000112461 0.00825454 1.42057e-06)
(-0.00204154 0.000631064 0.000928407)
(-5.12487e-06 2.03708e-05 -1.01376e-06)
(0.0029295 -0.00786986 1.41632e-06)
(-4.80964e-06 1.70872e-05 -1.01376e-06)
(4.20077e-05 0.00700408 1.42057e-06)
(-0.00067176 -2.05073e-05 -7.00041e-07)
(-0.00273852 -0.00306115 9.12832e-06)
(-4.88085e-06 1.78289e-05 -1.01376e-06)
(0.000313003 4.58944e-05 -2.43869e-06)
(0.00538164 0.000562055 2.98745e-05)
(-1.59972e-09 -1.40221e-09 2.93739e-06)
(0.00249182 0.00367779 4.40421e-06)
(0.0112244 0.00141596 2.98745e-05)
(0.000306305 -0.000483568 1.17629e-07)
(0.0018571 0.00479776 3.19448e-07)
(-0.000330702 -0.000343383 -1.86242e-06)
(0.00903735 0.00119962 2.98745e-05)
(0.000174791 -2.51117e-05 -1.2158e-06)
(-7.03358e-06 4.02527e-05 -1.97166e-05)
(0.00031286 4.44089e-05 -2.43869e-06)
(-6.02314e-06 5.07779e-05 -1.01376e-06)
(0.00358124 -0.00398799 -0.00166161)
(0.00850594 0.00114705 2.98745e-05)
(0.00537325 0.000649382 2.98745e-05)
(-2.28131e-05 -3.96273e-05 5.9982e-07)
(-4.9356e-06 6.21061e-05 -1.01376e-06)
(0.0053803 0.000575979 2.98745e-05)
(0.00535539 0.000835405 2.34379e-05)
(-0.00264215 0.00317419 -2.56292e-06)
(0.00746808 -0.00086032 4.39045e-06)
(-0.00321608 0.00127882 3.3794e-07)
(-4.34651e-05 8.56172e-05 7.96538e-07)
(-0.00295215 0.000481509 1.29183e-09)
(-0.000831544 0.00103922 0.000455825)
(4.95102e-06 7.2831e-06 -8.55654e-06)
(1.67425e-05 -1.96991e-05 5.79523e-06)
(0.00535539 0.000835405 1.94578e-05)
(-4.994e-06 1.90076e-05 -1.01376e-06)
(0.000929272 0.000239697 -7.6162e-07)
(-4.94497e-06 1.84968e-05 -1.01376e-06)
(0.00014176 0.000718929 3.88159e-07)
(-0.00247819 -0.00320868 6.68416e-06)
(8.21345e-06 -1.14153e-05 -1.63331e-06)
(0.00252166 -0.00269006 0.00134947)
(0.0108339 0.00137732 2.98745e-05)
(-0.00231103 0.000724123 4.6317e-07)
(0.00535539 0.000835405 2.36675e-05)
(-2.91379e-05 5.84124e-05 -1.44663e-05)
(0.000133394 -0.000331496 0.00011253)
(-0.000330702 -0.000343383 -4.16647e-06)
(1.31139e-05 -4.50624e-05 2.62951e-05)
(0.00478418 -0.000709105 4.39045e-06)
(0.000939155 0.00284483 4.24546e-06)
(-3.29008e-05 -0.000103848 -9.70343e-14)
(-0.000158546 -0.000395513 1.68632e-06)
(0.00706185 -0.000837432 4.39045e-06)
(-0.00231274 0.000718485 -9.34451e-07)
(2.97219e-09 3.77242e-09 -2.59406e-07)
(0.00521564 0.00129694 2.98745e-05)
(-0.0030796 0.00161988 3.70381e-06)
(-0.000687039 1.15285e-05 2.63625e-06)
(-0.000330702 -0.000343383 -4.34545e-06)
(4.1624e-07 -8.13651e-06 1.22214e-05)
(-0.00320757 0.00130695 3.3794e-07)
(0.0104548 0.00133983 2.98745e-05)
(-0.000430619 0.00154578 -2.27357e-09)
(0.00292386 -0.00198038 0.000809853)
(9.10963e-05 0.000917223 0.000455825)
(0.00132883 -0.000514425 7.59586e-06)
(-0.00162726 -0.00127012 0.000585804)
(9.7004e-05 0.00036726 1.22417e-06)
(0.00824677 0.00112141 2.98745e-05)
(-1.11187e-06 5.84124e-05 -2.14893e-05)
(-0.0044302 0.00338253 1.85392e-06)
(-0.00438747 -0.000814489 -1.25872e-06)
(-0.000179319 -0.000389223 1.68632e-06)
(-0.00165228 0.0030208 1.41462e-06)
(0.0047023 -5.3841e-05 1.41632e-06)
(0.00358124 -0.000182458 -0.000894302)
(-0.000551761 0.0027573 3.3794e-07)
(-0.000405935 7.5574e-05 -3.36833e-07)
(0.0100388 0.00129867 2.98745e-05)
(0.00010286 4.02527e-05 -1.01376e-06)
(-0.00100631 0.00276489 -7.60427e-07)
(-9.87239e-05 2.20038e-06 -0.00101003)
(-0.000215719 -8.65194e-05 -8.84876e-07)
(-5.71344e-06 5.57126e-05 3.74803e-06)
(-0.00117576 0.00319714 1.41462e-06)
(0.000116883 4.02527e-05 -1.01376e-06)
(0.000955049 0.000177227 4.06685e-06)
(0.000166115 -4.94998e-05 9.36555e-05)
(-0.000152232 -2.83198e-05 3.74803e-06)
(0.000122543 -0.000331496 0.00011253)
(0.00535539 0.000835405 1.70342e-05)
(-0.000391493 -0.00128199 0.00033068)
(-9.24671e-05 -3.09789e-05 -0.00101003)
(-0.00291339 0.000724123 -9.34451e-07)
(0.000267521 0.000381289 -7.60427e-07)
(-6.08014e-05 1.15285e-05 2.63625e-06)
(-9.41387e-06 -2.27932e-05 1.81327e-06)
(-4.88687e-06 6.26137e-05 -1.01376e-06)
(-0.000168497 -2.55846e-05 -0.00101003)
(-2.12825e-06 1.15285e-05 2.63625e-06)
(0.00641546 -0.000801014 4.39045e-06)
(-0.000592896 0.000257778 -6.55243e-07)
(-9.69645e-05 -1.61264e-05 -0.00162357)
(0.0043468 -0.000684462 4.39045e-06)
(4.1624e-07 -8.13651e-06 1.38157e-05)
(0.0029295 -0.000224034 8.27526e-06)
(-0.000136746 -2.62723e-05 3.74803e-06)
(-4.27827e-05 0.000135712 4.93971e-07)
(-0.000193381 -0.000384965 1.68632e-06)
(5.39108e-05 0.000179847 1.28314e-05)
(3.94569e-06 -1.35533e-05 3.34533e-05)
(0.000106128 4.95149e-05 1.74881e-06)
(-0.000121702 -2.42831e-05 3.74803e-06)
(-7.77973e-05 -1.8478e-05 3.74803e-06)
(0.00535539 0.000835405 1.60326e-05)
(0.000626224 0.000552829 1.70683e-07)
(-0.00262751 0.00145759 7.17646e-07)
(-3.31884e-05 -4.95887e-05 -5.79923e-06)
(0.00455807 -0.000696365 4.39045e-06)
(-3.28369e-05 5.84124e-05 -1.44663e-05)
(-0.0033902 0.00475136 1.85392e-06)
(0.00535539 0.000835405 1.81445e-05)
(-1.23839e-07 -1.99177e-07 4.84476e-07)
(-0.00203807 1.38706e-05 -4.28446e-06)
(0.0029295 -0.00678828 1.41632e-06)
(-0.000165395 -3.00603e-05 3.74803e-06)
(-9.85064e-05 -6.53354e-08 -0.00101003)
(0.000325107 -0.000478165 9.36555e-05)
(-0.00453463 0.00338253 1.85392e-06)
(-0.000105158 -2.20957e-05 3.74803e-06)
(-2.01649e-05 0.00019875 0.000581035)
(0.00127045 0.00434167 6.97604e-07)
(-0.000617094 1.15285e-05 2.63625e-06)
(0.00535539 0.000835405 1.66435e-05)
(2.36745e-05 -9.66137e-05 1.81327e-06)
(-3.66941e-06 3.17721e-05 -1.44663e-05)
(-0.0033902 0.00509615 1.85392e-06)
(4.1624e-07 -8.13651e-06 1.00622e-05)
(0.00249182 0.00367779 -3.63096e-06)
(-0.00328809 0.000724123 -9.34451e-07)
(0.0034722 -0.00312242 -6.16029e-07)
(0.0106355 0.0013577 2.98745e-05)
(-0.000128628 1.15285e-05 2.63625e-06)
(7.51399e-05 -2.20482e-05 -6.61103e-06)
(1.09158e-06 -4.56108e-06 8.22525e-06)
(6.83725e-06 -1.12612e-05 -1.63331e-06)
(-0.00287387 -0.00021771 1.29183e-09)
(0.000186511 0.00018729 0.000814943)
(-1.01575e-05 2.11475e-06 7.32966e-06)
(0.0107484 0.00136887 2.98745e-05)
(-0.0026534 0.00141191 7.17646e-07)
(4.1624e-07 -8.13651e-06 1.41686e-05)
(-0.00231103 0.000724123 -4.69133e-06)
(-0.00267074 1.15285e-05 -4.00856e-06)
(1.69393e-05 -6.27026e-05 3.74803e-06)
(0.00535539 0.000835405 1.62973e-05)
(-0.000167836 -3.0383e-05 3.74803e-06)
(0.00308132 0.000629625 0.00213999)
(0.00535539 0.000835405 1.65376e-05)
(-0.00595607 0.00338253 1.85392e-06)
(1.38264e-05 -4.48466e-05 2.62951e-05)
(-5.87691e-06 5.74155e-05 3.74803e-06)
(0.000176894 9.32032e-06 3.74803e-06)
(-0.000569551 0.000334872 -6.55243e-07)
(1.65323e-05 -6.8449e-05 3.46099e-07)
(5.16512e-05 0.000552829 1.80177e-07)
(0.000296701 2.87209e-05 1.41632e-06)
(-0.000211521 -0.000379472 1.68632e-06)
(0.000100107 6.081e-05 8.82787e-10)
(-1.75437e-08 5.07192e-09 3.62238e-06)
(-0.000869096 0.00131843 3.4529e-06)
(-9.70388e-05 -1.3221e-05 -1.0071e-06)
(0.000700663 0.00451421 6.23208e-06)
(-0.00202124 -0.000161432 -4.36795e-06)
(0.00252166 -0.00269006 9.64147e-05)
(0.0010211 -0.00124043 3.35643e-06)
(-0.00203807 1.38706e-05 -4.29865e-06)
(1.85653e-05 -1.72554e-05 -1.46029e-06)
(6.72092e-06 -1.32581e-06 -1.63331e-06)
(2.13949e-05 -8.90856e-05 1.81327e-06)
(-5.60007e-05 0.00013171 2.10183e-06)
(-2.07911e-06 -8.71148e-07 -8.45313e-07)
(-2.85652e-05 -8.01369e-06 -2.80051e-05)
(-0.0033902 0.000820004 1.85392e-06)
(0.000290496 -0.000422414 -0.000177484)
(0.000261875 -8.8412e-05 -3.73601e-06)
(3.58425e-05 -4.21174e-06 -2.03894e-05)
(3.1373e-05 0.000308112 2.28017e-07)
(-0.0016865 0.0030014 1.41462e-06)
(-1.24635e-06 5.58027e-05 5.9982e-07)
(-4.46421e-06 5.04234e-05 -3.53225e-06)
(-0.00104696 -0.000133795 1.1044e-05)
(-0.000588608 -9.71088e-05 4.7767e-07)
(-1.19012e-05 -6.98262e-05 -1.0071e-06)
(-0.00187929 -0.00356538 -7.54548e-06)
(0.00272448 -0.00447354 -0.000894302)
(-8.30771e-06 8.27356e-05 3.74803e-06)
(-0.00165187 0.00302103 1.41462e-06)
(-7.37714e-06 7.30424e-05 3.74803e-06)
(0.000175864 9.21839e-06 3.74803e-06)
(0.000378752 0.000206306 0.000814943)
(-0.000965001 -0.000267113 3.14599e-06)
(0.000329766 2.55467e-05 1.41632e-06)
(1.792e-05 -1.37976e-05 5.9982e-07)
(-0.00202253 -0.000148009 -4.36795e-06)
(2.77362e-06 7.83125e-06 2.99936e-07)
(0.00232866 -0.00115443 -2.17121e-09)
(-0.00233352 -0.000814489 -3.38328e-06)
(3.871e-05 5.84124e-05 -1.44663e-05)
(3.57751e-05 5.84124e-05 -1.44663e-05)
(0.000393918 0.000207806 0.000814943)
(0.000151715 6.82969e-06 3.74803e-06)
(0.000158082 7.45948e-06 3.74803e-06)
(0.0029295 -0.000224034 -1.04308e-05)
(0.00130734 0.00613352 6.12565e-07)
(-2.53977e-06 4.80101e-05 5.9982e-07)
(-6.50031e-05 -0.000814489 -1.25872e-06)
(3.39257e-06 -6.18012e-08 5.14176e-07)
(-0.00229288 -0.00123784 -1.25872e-06)
(-4.59464e-06 4.40588e-05 3.74803e-06)
(0.00150672 -0.000881714 -2.85404e-06)
(-5.85608e-06 5.71985e-05 3.74803e-06)
(0.000928527 0.00444521 6.97604e-07)
(-0.00036042 -8.47204e-05 7.58511e-07)
(4.1624e-07 -8.13651e-06 -6.59279e-06)
(1.07336e-06 5.7076e-06 2.99936e-07)
(-5.40196e-06 5.24682e-05 3.74803e-06)
(-5.92284e-06 5.78939e-05 3.74803e-06)
(3.43137e-05 5.84124e-05 -1.44663e-05)
(3.20588e-06 -2.59353e-05 2.63475e-06)
(2.23224e-05 -9.21486e-05 1.81327e-06)
(-0.00103537 0.00115719 -8.54455e-07)
(-2.48944e-05 -1.10605e-06 -7.92115e-10)
(-0.00032291 0.000311537 8.16708e-07)
(-7.64252e-05 0.000914179 -1.75475e-06)
(-0.000591918 -0.00202482 3.32766e-09)
(-0.000277429 0.00096501 1.27741e-07)
(-0.00187929 -0.00148794 -2.75082e-07)
(-1.01575e-05 2.11475e-06 -5.02835e-06)
(-6.75564e-06 6.65686e-05 3.74803e-06)
(-5.86998e-09 -7.81745e-08 -6.29852e-06)
(4.1624e-07 -8.13651e-06 -1.6262e-06)
(-1.01575e-05 2.11475e-06 -5.37926e-06)
(0.000655229 -5.69865e-06 1.41632e-06)
(-0.000578734 0.00029261 3.41408e-06)
(0.00505684 -0.00126023 3.35643e-06)
(-1.11187e-06 5.84124e-05 -6.58063e-06)
(0.000168256 -0.000301901 5.86225e-07)
(-2.85652e-05 -6.59784e-06 -1.95839e-07)
(1.36378e-05 -6.34683e-05 3.58009e-07)
(0.000700663 0.00451421 2.96596e-06)
(1.58152e-06 -1.04243e-05 -4.30432e-06)
(3.80112e-05 -5.86074e-05 1.81327e-06)
(0.000700663 0.00451421 4.20989e-06)
(0.0029295 -0.000224034 -9.7937e-06)
(-0.000457624 -0.00206549 -2.4532e-06)
(0.00309628 0.000539522 0.00108808)
(-0.000177069 0.00120357 3.4529e-06)
(0.00107258 0.00440159 6.97604e-07)
(-0.000489683 0.00219478 -2.14099e-06)
(-0.00173538 0.000357777 3.41408e-06)
(0.00101088 0.00442027 6.97604e-07)
(0.000209249 0.000189539 0.000814943)
(0.00139545 -0.00199893 -2.17121e-09)
(-4.12497e-06 8.97981e-05 -1.44663e-05)
(0.000700663 0.00451421 -2.59285e-06)
(-2.53496e-05 -1.64731e-05 3.75785e-07)
(4.89014e-05 -5.05249e-05 0.00024379)
(4.1624e-07 -8.13651e-06 -3.84901e-06)
(0.00150672 -0.000881714 -2.6652e-06)
(-0.00187929 -0.00356538 -5.70824e-06)
(0.0045121 -0.000299035 -1.1754e-07)
(-0.000575969 0.00216865 -2.73792e-07)
(4.1624e-07 -8.13651e-06 -5.40643e-06)
(4.1624e-07 -8.13651e-06 -7.40462e-06)
(4.1624e-07 -8.13651e-06 -5.63037e-06)
(0.000700663 0.00451421 -6.36392e-06)
(-0.000457624 -0.00206549 -2.06549e-06)
(4.1624e-07 -8.13651e-06 -4.95779e-06)
(4.1624e-07 -8.13651e-06 -4.54777e-06)
(-2.84113e-05 -7.33089e-05 -1.15932e-05)
(-0.00583359 -0.00130195 -7.46325e-06)
(4.1624e-07 -8.13651e-06 -6.69812e-06)
(4.1624e-07 -8.13651e-06 -5.01394e-06)
(-1.08839e-07 -1.04984e-09 -5.72777e-06)
(5.67993e-06 -4.92989e-06 -7.75278e-06)
(-0.00583359 -0.00130195 -7.56667e-06)
(0.000147577 6.42033e-06 3.74803e-06)
(0.000939155 0.00284483 -2.40116e-06)
(-0.00169119 0.000586398 -1.27064e-06)
(-0.00124283 0.000591837 -0.000322829)
(-0.00583359 -0.00130195 -7.49363e-06)
(5.7724e-05 -4.76977e-05 -2.37095e-06)
(-0.00590245 -0.000584681 -6.14643e-06)
(-0.00590373 -0.000571392 -6.14643e-06)
(1.28004e-05 0.00186651 -9.40721e-06)
(0.00418502 0.000781112 3.35643e-06)
(-2.23438e-06 8.66734e-05 -3.53225e-06)
(-0.00583359 -0.00130195 -7.52514e-06)
(-0.00583359 -0.00130195 -7.14885e-06)
(-0.00583359 -0.00130195 -6.85172e-06)
(0.000134965 0.00185478 -5.58223e-06)
(-2.86326e-05 -7.319e-06 1.25131e-06)
(-0.00795262 -0.0018886 -3.21519e-07)
(-0.00583359 -0.00130195 -7.59631e-06)
(-1.31921e-05 -3.55543e-05 -2.9052e-05)
(1.2572e-06 -1.62214e-05 -7.75278e-06)
(0.004059 0.000530521 0.00163618)
(-0.000511171 -4.02048e-05 -2.58355e-07)
(-0.000155307 6.31729e-05 3.35039e-08)
(0.000939155 0.00284483 -2.69017e-06)
(-0.000112577 0.000313165 8.16708e-07)
(0.000983112 0.00442868 6.97604e-07)
(-0.000361738 -0.000210637 1.71271e-06)
(-6.57619e-06 -0.00474771 8.16708e-07)
(-0.00133948 -0.0008574 -6.14643e-06)
(0.000705183 -0.00220795 -2.17121e-09)
(-0.00583359 -0.00130195 -7.58301e-06)
(0.000586926 -0.000225421 7.40802e-07)
(0.00159009 0.00234505 3.41008e-06)
(-0.00583359 -0.00130195 -7.37348e-06)
(-0.00583359 -0.00130195 -6.91128e-06)
(-0.00087036 0.00030904 3.41408e-06)
(0.00356472 -0.0028768 -0.000689071)
(-6.6935e-06 -8.65255e-06 2.47073e-06)
(0.00110589 0.0043915 6.97604e-07)
(8.5927e-06 1.14722e-05 -3.45246e-06)
(-0.00583359 -0.00130195 -7.19718e-06)
(-0.000236473 0.000360523 8.16708e-07)
(-0.000971951 -0.00277231 3.59797e-06)
(0.000213334 0.000211641 1.28314e-05)
(-0.00568258 -0.00180065 -6.14643e-06)
(-0.00168884 0.000600541 -1.27064e-06)
(-0.00585136 -0.00111693 -6.14643e-06)
(0.00831916 0.000460216 3.35643e-06)
(-0.00733165 -0.00170033 -3.21519e-07)
(-0.00587438 -0.000877112 -6.14643e-06)
(-1.55454e-06 2.74209e-07 -2.25573e-06)
(-0.00583359 -0.00130195 -6.98083e-06)
(-0.000198402 -2.95511e-05 5.64612e-06)
(0.00392486 -0.00224133 -0.000689071)
(-2.02397e-07 2.66009e-06 -2.19654e-06)
(0.00114933 0.00437835 6.97604e-07)
(-0.00266565 0.000717882 3.41408e-06)
(-0.00586453 -0.000979743 -6.14643e-06)
(-0.00588404 -0.000776522 -6.14643e-06)
(-2.80902e-05 1.89541e-05 1.48186e-06)
(-8.30968e-07 7.20549e-05 -3.53225e-06)
(-0.000913726 0.000311483 3.41408e-06)
(4.95267e-06 -4.60617e-06 -1.36906e-06)
(-0.000219783 -0.0014451 1.61733e-06)
(0.000759336 -0.000215808 0.00024379)
(1.90878e-05 5.04234e-05 -3.53225e-06)
(-0.00648749 -0.00138841 -6.14643e-06)
(-0.00125303 0.000698092 -0.000322829)
(-0.00275726 0.000415351 4.58278e-06)
(-0.00586064 -0.00102022 -6.14643e-06)
(-0.00442808 -0.000820009 -5.48675e-06)
(1.09158e-06 -4.56108e-06 5.05732e-07)
(-0.000449003 0.00144281 0.000477591)
(0.000612928 0.00390059 2.9949e-06)
(0.000135566 -0.00474806 -0.000689071)
(-2.09115e-05 -0.000387551 -0.000177484)
(-1.43509e-05 -7.34937e-05 -1.18691e-06)
(-0.00585589 -0.00106968 -6.14643e-06)
(-0.00586202 -0.00100591 -6.14643e-06)
(0.00159009 0.00234505 2.45485e-06)
(-3.36449e-05 0.000468563 -1.44384e-07)
(-0.00270396 0.0013227 3.53519e-06)
(0.00066405 -0.000302545 6.20078e-07)
(-0.00583359 -0.00130195 -4.6916e-06)
(5.24529e-05 9.44338e-07 -3.42945e-07)
(0.000166589 0.00185174 -5.58223e-06)
(0.000493384 -0.00294597 -2.1909e-06)
(0.000102325 0.00122091 -1.50046e-06)
(1.24571e-06 5.04234e-05 -2.16538e-06)
(-0.000598433 0.00216185 -2.73792e-07)
(-3.29109e-06 -1.72137e-05 1.08234e-06)
(-0.00187929 -0.00691824 -2.75082e-07)
(0.0032143 1.23373e-05 9.07148e-06)
(-0.00442808 -0.000820009 -2.41376e-06)
(-4.32401e-05 0.000303428 4.62056e-06)
(0.00327414 0.00218337 1.95205e-11)
(-0.00275726 0.000415351 5.79215e-06)
(8.06282e-06 -5.9481e-06 -7.75278e-06)
(-0.00585443 -0.00108496 -6.14643e-06)
(1.09158e-06 -4.56108e-06 -3.17542e-06)
(0.000586834 0.00390309 1.42766e-05)
(-5.64168e-05 7.84673e-06 5.37428e-06)
(-0.000282805 -0.000445778 -1.78816e-05)
(0.00182743 -0.00170105 0.00090104)
(-0.000505226 -0.000804522 -0.000238289)
(-0.00583359 -0.00130195 -5.3244e-06)
(0.000187177 0.00184977 -5.58223e-06)
(-0.00118946 9.92422e-05 0.000477591)
(2.92221e-08 -6.9312e-09 1.39688e-06)
(0.000218198 -0.00039021 4.92742e-07)
(7.45996e-06 -6.02712e-06 -1.36906e-06)
(0.000943302 0.00380055 1.42766e-05)
(-0.005825 -0.000878643 -1.76562e-05)
(-0.0028381 0.000879709 7.17646e-07)
(4.10226e-05 -9.96075e-06 -1.01771e-06)
(-8.93223e-05 2.13957e-05 -9.28499e-07)
(0.000612928 0.00390059 1.74519e-05)
(-0.000892738 0.000297846 -6.69512e-10)
(1.19327e-05 4.61815e-05 -1.58518e-06)
(1.49296e-05 -0.000669979 3.59797e-06)
(5.91662e-07 -7.07812e-06 -1.06747e-10)
(0.000134202 -0.000531091 7.27178e-06)
(0.00067404 -0.0029281 -2.1909e-06)
(-2.54308e-06 -2.19477e-07 4.24465e-07)
(4.96831e-06 -1.38111e-05 -4.30432e-06)
(9.24068e-05 9.44338e-07 -3.42945e-07)
(-0.0057862 -0.00128272 -4.69698e-06)
(-0.00311222 0.000476339 5.80614e-06)
(0.000794509 0.0038456 1.42766e-05)
(-5.47085e-06 -6.49517e-06 2.47073e-06)
(8.46607e-06 -5.88782e-05 4.62758e-06)
(-0.0057862 -0.00128272 -6.11042e-06)
(-0.00583359 -0.00130195 -4.67664e-06)
(-0.00311222 0.000476339 5.76905e-06)
(-6.07655e-06 -7.56393e-06 2.47073e-06)
(0.0015827 6.78556e-05 0.000531554)
(-0.0057862 -0.00128272 -1.12745e-05)
(-0.000120238 2.13957e-05 -9.28499e-07)
(0.000256398 0.00187317 -1.11749e-07)
(-0.0057862 -0.00128272 -1.06458e-05)
(-0.0057862 -0.00128272 -8.87191e-06)
(1.42681e-06 1.03371e-06 -3.6768e-07)
(0.00197732 -0.00155116 0.00090104)
(7.39217e-05 -1.24817e-05 -1.03049e-07)
(-3.38988e-06 6.38523e-08 1.01636e-07)
(-5.18168e-06 -7.94137e-06 2.8422e-05)
(-0.0057862 -0.00128272 -1.18206e-05)
(-5.29494e-07 -2.09427e-08 1.77945e-05)
(7.22313e-05 -1.53732e-05 5.67792e-06)
(-2.52999e-05 -2.02572e-06 -9.51723e-05)
(-0.000607526 -0.000784997 -6.14643e-06)
(0.000254839 -2.20034e-05 3.80803e-06)
(0.000855257 0.00382721 1.42766e-05)
(1.51543e-06 3.18194e-06 -8.34478e-07)
(-8.28978e-06 -1.14692e-05 2.47073e-06)
(-0.000504281 -0.000774784 -6.14643e-06)
(0.0017636 -0.00102201 0.000261726)
(-0.00105274 -0.000252245 -0.000322829)
(-4.4528e-05 -2.84463e-05 7.33171e-07)
(-0.00047814 -0.000812724 -0.000238289)
(-2.86326e-05 -7.319e-06 9.47645e-07)
(1.42758e-07 -5.09055e-06 4.13794e-07)
(-1.7311e-05 -4.4848e-05 1.36482e-06)
(-0.00311222 0.000476339 5.47397e-06)
(0.000669468 -0.00292856 -2.1909e-06)
(-0.00571467 -0.0016947 -6.14643e-06)
(-0.00190639 0.00345216 2.87412e-07)
(0.000644296 3.89867e-07 4.662e-06)
(1.64139e-05 4.61815e-05 -1.58518e-06)
(9.04673e-06 -1.92603e-05 -4.30432e-06)
(5.54983e-06 -4.92475e-05 3.10522e-06)
(-0.0057862 -0.00128272 -1.61647e-05)
(-0.00582953 -0.000831399 -1.76562e-05)
(0.0032143 1.23373e-05 1.38282e-05)
(0.00020719 0.00187789 -1.11749e-07)
(-1.99744e-05 5.76851e-05 5.97457e-09)
(-0.00581071 -0.00102749 -1.76562e-05)
(7.42063e-06 -5.54257e-05 4.62758e-06)
(1.09158e-06 -4.56108e-06 -2.40717e-06)
(-0.0057862 -0.00128272 -1.41248e-05)
(5.65686e-05 -6.91368e-06 4.23123e-09)
(1.52967e-05 4.61815e-05 -1.58518e-06)
(-3.29376e-05 -3.24604e-05 -1.57461e-06)
(4.22192e-05 0.000235072 -1.11749e-07)
(0.00065958 -0.00257042 -5.6247e-06)
(0.00202926 0.000668334 0.00112593)
(0.000135445 -0.000170262 -0.000558788)
(-0.001335 0.00366576 2.87412e-07)
(5.46407e-05 2.25626e-05 -3.3204e-05)
(4.8897e-05 -9.94073e-06 0.00215348)
(-0.0057862 -0.00128272 -1.2674e-05)
(-0.00103466 0.000359286 4.62056e-06)
(-0.000594722 0.0003345 4.62056e-06)
(4.8897e-05 -9.94073e-06 0.00213084)
(3.5888e-06 -1.76814e-06 1.01453e-06)
(-7.79023e-06 1.57765e-07 1.01636e-07)
(-6.4237e-06 -3.60715e-05 1.6166e-06)
(0.00107189 -0.00108935 0.000311044)
(5.28183e-05 -9.20534e-06 6.27372e-05)
(0.00095969 0.00379559 1.42766e-05)
(0.000543597 0.0010579 2.01561e-06)
(1.64484e-05 1.84074e-07 -4.37933e-07)
(-1.98975e-06 5.61076e-05 2.85925e-07)
(0.004059 0.000530521 5.78809e-05)
(-6.45838e-05 1.0046e-05 5.67792e-06)
(4.66488e-05 -4.1051e-05 4.62758e-06)
(-0.00584194 -0.000702188 -1.76562e-05)
(0.002985 4.57528e-07 4.61987e-06)
(2.38349e-06 -1.05797e-06 -3.6743e-06)
(-0.000204646 0.000484437 -0.000202244)
(-0.00179814 0.00238503 5.77818e-06)
(-0.000772733 -0.0007868 -1.76562e-05)
(1.95016e-06 -3.71085e-06 -1.49051e-07)
(4.48361e-05 3.89867e-07 2.7025e-06)
(4.33077e-05 -4.17174e-05 4.62758e-06)
(1.67452e-05 1.84074e-07 -4.37933e-07)
(-4.69493e-05 -4.45978e-06 -9.51723e-05)
(-0.000201112 0.000484636 -0.000202244)
(1.28281e-06 -4.42565e-06 5.20522e-07)
(-0.000363751 -0.00021887 -2.59762e-06)
(5.62253e-05 3.48686e-06 -5.84192e-07)
(1.09158e-06 -4.56108e-06 -1.33249e-06)
(8.38601e-05 -1.64896e-05 5.67792e-06)
(-0.00219344 -0.0012203 5.85728e-07)
(4.7092e-05 -4.09626e-05 4.62758e-06)
(0.000788093 0.00700956 1.42766e-05)
(-0.00118443 0.000367725 4.62056e-06)
(0.000126924 -1.90278e-05 -0.000558788)
(-0.00192676 0.00344061 2.87412e-07)
(-1.80202e-05 -4.4848e-05 1.36482e-06)
(5.54983e-06 -4.92475e-05 3.15143e-06)