/*--------------------------------*- C++ -*----------------------------------*\
| =========                 |                                                 |
| \\      /  F ield         | OpenFOAM: The Open Source CFD Toolbox           |
|  \\    /   O peration     | Version:  plus.master                           |
|   \\  /    A nd           | Web:      www.OpenFOAM.com                      |
|    \\/     M anipulation  |                                                 |
\*---------------------------------------------------------------------------*/
FoamFile
{
    version     2.0;
    format      ascii;
    class       volScalarField;
    location    "2.8";
    object      epsilon;
}
// * * * * * * * * * * * * * * * * * * * * * * * * * * * * * * * * * * * * * //

dimensions      [0 2 -3 0 0 0 0];

internalField   nonuniform List<scalar> 
47285
(
0.000319738
0.000492553
0.00190719
0.00510762
0.00164758
0.000403075
0.000264186
0.000492869
0.00602427
0.053485
0.203754
0.0483252
0.00480502
0.00036139
0.00163092
0.0439141
0.127334
0.450154
0.100806
0.0383992
0.00123241
0.00334263
0.0985288
0.805573
0.707934
0.457202
0.0981904
0.00300036
0.00162104
0.0369078
0.0915322
0.672817
0.071674
0.0357379
0.0013816
0.000467071
0.00462894
0.0325275
0.0753076
0.0288515
0.00393992
0.000368676
0.000294
0.000407867
0.00129138
0.00263711
0.00107517
0.000349622
0.000255996
0.00133505
0.0072709
0.0493014
0.215288
0.0353271
0.0046701
0.000962395
0.0072688
0.0595013
0.415088
1.45613
0.340486
0.0380549
0.00437927
0.0355438
0.281699
1.01683
1.12069
1.01944
0.194202
0.0200541
0.0667962
0.427834
1.3791
1.28403
1.43551
0.318593
0.0367076
0.027694
0.142485
0.401706
1.50847
0.355709
0.100645
0.0175758
0.00668054
0.0318346
0.109663
0.211102
0.0923468
0.022088
0.00471436
0.00133704
0.00601524
0.0205529
0.0341348
0.0165185
0.00449941
0.00108834
0.00325852
0.0180938
0.107202
0.366943
0.0765188
0.0102309
0.00222192
0.0210151
0.165022
0.850988
2.41827
0.63042
0.0842186
0.00991093
0.105242
0.683361
2.08974
2.06262
2.20134
0.354772
0.042631
0.182791
0.947086
1.90764
1.95619
2.49856
0.479759
0.0719081
0.0902815
0.367164
0.948559
2.17068
0.732266
0.200904
0.0422886
0.0249807
0.102043
0.265798
0.414671
0.19905
0.0604197
0.0145145
0.00499314
0.0222582
0.0612626
0.0884922
0.0477364
0.0153895
0.00376907
0.00676154
0.0261854
0.109513
0.271172
0.0790523
0.0157088
0.00499068
0.0334162
0.209165
0.857267
2.14556
0.620654
0.104182
0.0164551
0.155872
0.844909
2.4349
2.29666
2.2269
0.404124
0.0612408
0.277739
1.2887
2.00972
2.22673
2.6891
0.572355
0.103744
0.157306
0.588933
1.35478
2.20932
0.972604
0.295075
0.0696199
0.0501876
0.192433
0.44201
0.599801
0.313618
0.108669
0.0283158
0.0117278
0.0460526
0.11431
0.153111
0.0870158
0.0311842
0.00884636
0.00801788
0.0260802
0.0885515
0.175579
0.0627593
0.0168425
0.00630454
0.034408
0.189099
0.654712
1.42636
0.457552
0.0960734
0.0188035
0.157328
0.783758
2.3907
1.93624
1.78708
0.370855
0.0662271
0.307118
1.41344
1.98579
2.16767
2.52952
0.582715
0.118166
0.18578
0.710393
1.58979
2.19186
1.07888
0.346969
0.0860237
0.0622659
0.24787
0.567176
0.737179
0.392386
0.141398
0.0368866
0.0149374
0.0594166
0.149492
0.197918
0.113532
0.0410873
0.0117137
0.00024678
0.000239083
0.000225625
0.000212203
0.000196458
0.000181452
0.000168103
0.000156415
0.000285015
0.000273229
0.000262074
0.000243664
0.000226071
0.000209311
0.000192403
0.000177626
0.000466882
0.000345166
0.000301238
0.000270898
0.000251182
0.000236223
0.00022241
0.000208882
0.000732061
0.000386036
0.000299285
0.000271117
0.000263138
0.000254105
0.000244656
0.000233989
0.000516467
0.00035479
0.000299776
0.000270018
0.000252248
0.000239043
0.000224769
0.000211433
0.000288086
0.000270751
0.000257504
0.000239335
0.000222663
0.00020615
0.000189957
0.000174773
0.000242909
0.000236786
0.000223453
0.000207992
0.000190984
0.000176319
0.000163541
0.000152773
0.000419575
0.000306924
0.000260303
0.000231245
0.000210829
0.000195711
0.000184005
0.000174527
0.000863704
0.000409664
0.000299987
0.000253133
0.000225169
0.000205317
0.000190077
0.00017782
0.00241407
0.000646725
0.000362766
0.000282924
0.000246509
0.000223179
0.000204985
0.000190044
0.00441013
0.000910434
0.000411755
0.000299439
0.000257124
0.000232928
0.000214147
0.000198675
0.00278247
0.000711511
0.000369775
0.000281861
0.000244854
0.000221796
0.000203744
0.000188898
0.00101595
0.000426695
0.00029739
0.000248497
0.000221127
0.000202103
0.000187478
0.000175729
0.000433208
0.00029789
0.0002521
0.000225006
0.000205875
0.000191396
0.000180054
0.000170804
0.000982954
0.000736855
0.000643308
0.000578016
0.000519988
0.000462728
0.000404684
0.000347702
0.00202208
0.00096022
0.000720976
0.000618465
0.000546683
0.000481261
0.00041615
0.000352403
0.00588806
0.0015777
0.00088257
0.000693897
0.000598532
0.000520991
0.000444991
0.000370599
0.010897
0.00234927
0.00103774
0.000753307
0.000638504
0.000553872
0.000471166
0.000388968
0.00787163
0.00192624
0.000929902
0.000695714
0.000594238
0.000517239
0.000442391
0.000368799
0.00311603
0.00112823
0.000734342
0.000606154
0.00053242
0.000469436
0.000407195
0.000345998
0.00121705
0.000743264
0.000618519
0.00055231
0.000498251
0.000445087
0.000390663
0.000336855
0.00286152
0.00234895
0.00208405
0.00185934
0.00166257
0.00150296
0.00137803
0.0012568
0.00462587
0.00274137
0.00222258
0.00193131
0.00170172
0.00151831
0.00137923
0.00125279
0.0107078
0.00376218
0.00247572
0.00203411
0.00175903
0.00154968
0.00139311
0.00125665
0.0185073
0.00498885
0.00270892
0.00210316
0.00179157
0.00156757
0.00140121
0.0012578
0.0146191
0.00446145
0.00257395
0.00202845
0.00173662
0.00152715
0.00137296
0.00123902
0.00713528
0.00317151
0.00226273
0.00189489
0.00165415
0.00147326
0.00133881
0.00121733
0.00352095
0.00240941
0.00202948
0.00178512
0.00159011
0.00143633
0.00131745
0.00120269
0.00402392
0.00363867
0.00361329
0.00366084
0.00368491
0.0035662
0.00317908
0.00256829
0.00597547
0.00393042
0.00357902
0.00355715
0.00359988
0.00355209
0.00324496
0.00266844
0.0130042
0.00504143
0.00375236
0.00355296
0.0035716
0.00355212
0.00328764
0.0027307
0.022525
0.00647972
0.00397246
0.0035777
0.00356234
0.00354494
0.00329199
0.00274104
0.0184549
0.00594143
0.00386523
0.00353405
0.00352932
0.00350758
0.00324848
0.00270208
0.0094108
0.00449088
0.00362055
0.00349615
0.00351899
0.00347128
0.00317482
0.00261648
0.00490776
0.0037202
0.00353678
0.00354985
0.00356906
0.00345701
0.00308675
0.00250032
0.000283041
0.000272973
0.000251573
0.000232943
0.000216753
0.000199355
0.00018412
0.00017057
0.000381479
0.000356201
0.000329958
0.00031045
0.000291733
0.000274849
0.000261211
0.000249516
0.000621616
0.000430031
0.000376924
0.000353485
0.000338515
0.000326811
0.00031644
0.000306621
0.000872382
0.000485583
0.000400191
0.000370809
0.000354745
0.000343246
0.000334084
0.000326349
0.000617493
0.000436312
0.00038303
0.000359862
0.000344853
0.000333195
0.00032308
0.000313625
0.000385071
0.000360712
0.000330402
0.000311234
0.000295923
0.000282131
0.00026864
0.000257242
0.00029914
0.000285905
0.000266117
0.000247452
0.000228249
0.000209591
0.000193689
0.000179439
0.000485753
0.000326498
0.00027375
0.00024241
0.000220312
0.000203626
0.000190614
0.000180006
0.00126882
0.000506337
0.000352963
0.000297146
0.000267149
0.000246398
0.000230131
0.000216097
0.00408731
0.000956246
0.000489749
0.000372568
0.000323802
0.000294913
0.000273921
0.000257047
0.00840781
0.00145645
0.000600102
0.000424465
0.000361387
0.000328239
0.000306734
0.000291323
0.00413709
0.000965288
0.000510953
0.000389324
0.000336051
0.000304308
0.000281656
0.000263821
0.00123853
0.000531215
0.000377297
0.000315491
0.000281323
0.000258375
0.000240518
0.000225589
0.000511732
0.000354631
0.000293398
0.000256914
0.000232279
0.000214339
0.000200528
0.000189245
0.00136054
0.000807984
0.000676326
0.000600575
0.000536294
0.000473581
0.000410839
0.000350401
0.00433232
0.00134836
0.00086291
0.000713067
0.000625203
0.000547855
0.000470164
0.000393595
0.014804
0.00272656
0.00115132
0.000841373
0.000718262
0.000626934
0.000537151
0.000446855
0.0269728
0.0040248
0.00135568
0.000918035
0.000771965
0.000675198
0.000583482
0.00049121
0.0125926
0.00236918
0.00113864
0.000866633
0.000743459
0.000647342
0.000552884
0.000458542
0.00307953
0.00120963
0.000879118
0.000746259
0.000654808
0.00057156
0.000488341
0.000406854
0.00114128
0.000825759
0.000712618
0.00063157
0.000560996
0.000493285
0.00042638
0.000362262
0.00392063
0.00260924
0.0022039
0.00192817
0.00170082
0.00151951
0.00137943
0.00124853
0.00989895
0.00372786
0.00257992
0.00214143
0.00184951
0.00162493
0.00145492
0.00130449
0.027644
0.00613925
0.00309316
0.00236587
0.00199844
0.00173219
0.00153157
0.00135862
0.0449678
0.00805534
0.00341703
0.00249985
0.00209137
0.00180639
0.00159423
0.00141333
0.0218294
0.00525846
0.00300721
0.00239193
0.00203666
0.00176615
0.00155962
0.00138124
0.00652615
0.00324797
0.00255539
0.00219363
0.00190887
0.00167867
0.00150156
0.00134398
0.00319991
0.00256982
0.00226938
0.00200673
0.00177523
0.00158711
0.00144024
0.00130203
0.00533634
0.00398596
0.00379595
0.00378717
0.00377522
0.00362205
0.00319751
0.00255375
0.0123614
0.00509072
0.00400031
0.0038171
0.00379037
0.00368336
0.00330919
0.00266606
0.0321021
0.00763326
0.00442029
0.00392319
0.00384298
0.00374476
0.00338881
0.00273738
0.0494583
0.00949164
0.0046974
0.00400508
0.00387661
0.00375226
0.00336957
0.00268704
0.0236873
0.00651924
0.00431641
0.0039553
0.00389179
0.0037904
0.00342465
0.00275962
0.00780841
0.00447541
0.00396882
0.00388424
0.00387175
0.00376051
0.00337259
0.00270914
0.00440972
0.00392679
0.00387484
0.00389172
0.00388138
0.00372017
0.00327822
0.00261016
0.000296082
0.000286737
0.000266628
0.000244534
0.000224995
0.000206406
0.000189919
0.000175071
0.000398844
0.000357883
0.000312348
0.000291903
0.000277022
0.000261854
0.000246966
0.000233655
0.000621248
0.000420718
0.000364283
0.00034231
0.000328005
0.000316377
0.000305759
0.000295094
0.000912836
0.000450692
0.000375129
0.000354281
0.000344298
0.000337911
0.00033385
0.00032959
0.000579221
0.000416572
0.000355735
0.000336155
0.000325397
0.000316711
0.000307991
0.000298669
0.000336224
0.000318611
0.000297727
0.000283897
0.000271027
0.000260367
0.000248899
0.000237148
0.000260218
0.000257127
0.000244073
0.000229805
0.000214796
0.000200094
0.00018565
0.000172479
0.000507393
0.000351659
0.000290288
0.000254018
0.000229512
0.000211645
0.000197971
0.000186891
0.00118785
0.000524211
0.000373839
0.000311441
0.000275821
0.000251465
0.000232652
0.000217319
0.00388323
0.000849825
0.000486987
0.000385239
0.000337125
0.000306958
0.000284797
0.000267029
0.0117818
0.00118483
0.000533439
0.000413637
0.000366902
0.000340813
0.000323342
0.000309807
0.00268486
0.000703961
0.00044389
0.000365257
0.000326275
0.000300457
0.000280516
0.000263981
0.000858712
0.000448136
0.00034295
0.000296077
0.000267746
0.000247068
0.000230306
0.000216313
0.000432157
0.000322068
0.000274152
0.000244508
0.000223644
0.000207892
0.000195373
0.000185032
0.00112983
0.000828055
0.000710185
0.000629924
0.000560887
0.000494405
0.000428272
0.000364509
0.0025116
0.0011324
0.000856884
0.000737994
0.000652987
0.00057357
0.000492745
0.00041258
0.00810411
0.00171447
0.00102828
0.000849374
0.000750691
0.000663396
0.00057223
0.000478139
0.0219993
0.00239668
0.00112863
0.000905173
0.000806046
0.00072384
0.000636767
0.000543349
0.00612466
0.00154122
0.00099552
0.00084063
0.000750184
0.00066634
0.000576362
0.000482282
0.00190938
0.0010345
0.000825866
0.000726779
0.000650831
0.000575775
0.00049679
0.000417047
0.00100138
0.00077497
0.000680087
0.000613063
0.000552183
0.000490712
0.000427593
0.000365468
0.00320332
0.0025905
0.00227767
0.00201532
0.00178641
0.00160042
0.00145471
0.00131648
0.00533011
0.00308351
0.00252088
0.00219731
0.00193275
0.00171573
0.00154721
0.00139353
0.0117392
0.00390364
0.00277506
0.00236001
0.00206072
0.00181359
0.00161886
0.00144476
0.0216481
0.00464672
0.0029275
0.00245154
0.00214522
0.00189913
0.00170851
0.00153884
0.00953463
0.00365868
0.00271138
0.00232861
0.0020428
0.00180392
0.00161429
0.0014432
0.0043909
0.00288429
0.00242723
0.00213689
0.00189167
0.00168759
0.00152747
0.00137927
0.00290011
0.00242345
0.0021557
0.00192537
0.00172119
0.00155333
0.00142034
0.0012913
0.00442816
0.00395124
0.00388242
0.00389678
0.00388656
0.00372491
0.00328128
0.00261067
0.00648181
0.00427451
0.00391015
0.0038645
0.00386992
0.00376755
0.0033814
0.00271301
0.0120784
0.00497186
0.00402293
0.00386984
0.00385592
0.00377137
0.00341259
0.00274957
0.0179586
0.00548695
0.00408919
0.00386433
0.00382311
0.0037176
0.00333547
0.002648
0.0100739
0.00471616
0.00393161
0.00380597
0.00380395
0.00373032
0.00338533
0.00273671
0.0055758
0.00403876
0.00376536
0.00374576
0.00376804
0.00368395
0.00332256
0.0026819
0.00407191
0.00371777
0.00368633
0.0037276
0.00374245
0.00360993
0.00320396
0.00257334
0.00024675
0.0002407
0.000228829
0.000215965
0.000201151
0.000187205
0.000174195
0.000162109
0.000296157
0.000281713
0.0002653
0.000249778
0.000234392
0.000222189
0.000212301
0.000204021
0.00048915
0.000380765
0.000333497
0.000308009
0.000297738
0.000288378
0.00027747
0.000270434
0.000830191
0.000494011
0.000381432
0.000345845
0.000329623
0.000321594
0.000316352
0.000312686
0.000561267
0.000420526
0.000363156
0.000337796
0.000324793
0.000313657
0.000303035
0.000293042
0.000329977
0.000310236
0.000290079
0.000270752
0.00025645
0.000243376
0.000232422
0.000224791
0.000271227
0.000264083
0.00024686
0.00022832
0.000211113
0.00019485
0.000180731
0.00016778
0.000445726
0.000308266
0.000261335
0.000234156
0.000215045
0.000200393
0.000188603
0.000178615
0.000999646
0.000446557
0.000322483
0.00027557
0.000249842
0.000232029
0.000217717
0.000205401
0.00277397
0.00077357
0.000427692
0.000336435
0.000299909
0.000279068
0.000263885
0.000250732
0.00556776
0.00122591
0.000542115
0.000393399
0.000344418
0.000321223
0.000306524
0.000295217
0.00341106
0.000894765
0.000471514
0.000363041
0.000320234
0.000296056
0.000278665
0.000264017
0.00121237
0.000504381
0.000352476
0.000296163
0.000265336
0.000243781
0.000227086
0.000213162
0.000488126
0.000327859
0.000274621
0.00024342
0.000221394
0.000204727
0.000191657
0.00018098
0.00124427
0.000758222
0.000635608
0.0005702
0.000515552
0.000460625
0.000403613
0.0003469
0.00336544
0.00120043
0.000787734
0.000659521
0.000586975
0.000522439
0.000454983
0.000385752
0.00967893
0.00227862
0.00104494
0.000777989
0.000674845
0.000599422
0.000522192
0.000440657
0.0178598
0.00358334
0.00127875
0.000863161
0.000734462
0.000654473
0.000575814
0.000491838
0.0116101
0.00251393
0.00109682
0.000804042
0.000692807
0.000612281
0.000531128
0.000446709
0.00411818
0.00131706
0.000834811
0.000691024
0.000609602
0.000537802
0.000464473
0.000391036
0.00137219
0.000801327
0.000667233
0.000593215
0.000530859
0.00046983
0.000408484
0.000349082
0.00357424
0.00243798
0.00206242
0.0018164
0.00161703
0.00145805
0.00133406
0.00121455
0.00790487
0.00338143
0.00239125
0.00200237
0.00174853
0.00155494
0.00140778
0.00127322
0.019386
0.00536875
0.00286216
0.00220681
0.00188079
0.00164926
0.00147481
0.00132008
0.0329272
0.00742852
0.00324074
0.00234916
0.00197513
0.00172667
0.00154338
0.00138264
0.0232403
0.00581671
0.00296075
0.00225771
0.00191503
0.0016726
0.00149075
0.00133137
0.00960699
0.00365833
0.00250825
0.00208194
0.00180564
0.00159494
0.00143562
0.00129284
0.00395527
0.00259795
0.00218525
0.00191127
0.001687
0.00150868
0.00137113
0.00124226
0.00494381
0.00373821
0.00356216
0.00357209
0.00358395
0.00346261
0.00308245
0.00248755
0.0103756
0.00470748
0.00373444
0.00357955
0.00357881
0.00350347
0.00317307
0.0025799
0.0248784
0.00700129
0.00413995
0.00367014
0.00361087
0.00354153
0.00322942
0.00263242
0.0415041
0.00933087
0.00450105
0.00376321
0.00364376
0.00354469
0.00320232
0.00257124
0.0296261
0.00751603
0.00426532
0.00375264
0.00368082
0.00360035
0.0032731
0.00265834
0.0123269
0.00502429
0.00389916
0.00371747
0.0036998
0.00360477
0.00324694
0.00262232
0.00536162
0.00395885
0.00376324
0.00375379
0.00374235
0.00359185
0.00317326
0.00253712
0.000145953
0.000164962
0.000196181
0.000225148
0.000200174
0.000162387
0.000143167
0.000166197
0.000167733
0.000177552
0.000185539
0.000176531
0.000165913
0.000162747
0.000296344
0.000295688
0.000305263
0.000316409
0.000303965
0.00029117
0.000288067
0.00107696
0.00106131
0.00105232
0.00104595
0.00103785
0.00103217
0.00103154
0.00174657
0.00174713
0.00173861
0.00172483
0.0017241
0.00171856
0.0017063
0.000157836
0.000235628
0.000297493
0.000319764
0.00030428
0.000244845
0.000165124
0.000170961
0.000203585
0.000242823
0.000279757
0.000249139
0.000212392
0.000179426
0.000296966
0.000325718
0.000365692
0.000407663
0.000374193
0.000335029
0.000305759
0.00106356
0.0010921
0.0011193
0.00116087
0.00113624
0.00112306
0.00110739
0.00171433
0.00169951
0.00167767
0.0015905
0.00168476
0.00171902
0.00174448
0.000161265
0.000222912
0.000284832
0.000325128
0.00028874
0.000226823
0.000160194
0.000177431
0.000204174
0.000252253
0.000298695
0.00024988
0.000203918
0.000175779
0.000308022
0.000341154
0.000392236
0.000455185
0.000395784
0.000345159
0.000309531
0.00112
0.00116894
0.00119432
0.00128132
0.0011945
0.00115901
0.00110259
0.00174284
0.00171366
0.00167664
0.00155505
0.00167515
0.00170687
0.00173742
0.000150929
0.00019728
0.000265139
0.000310123
0.000285456
0.000216058
0.000155422
0.000169667
0.000194045
0.000238479
0.000285326
0.000250845
0.000200827
0.000171772
0.000295357
0.000322071
0.000364241
0.000411862
0.000368485
0.000324882
0.000296261
0.00103869
0.00107191
0.00109363
0.00114353
0.00110183
0.00108544
0.001059
0.00169021
0.00166035
0.00163063
0.00153347
0.00163959
0.00167384
0.00170557
0.000136276
0.000127442
0.000123044
0.000122159
0.00012208
0.000121088
0.000118608
0.000114204
0.000152733
0.000133338
0.000122061
0.000118263
0.000117203
0.000116057
0.000113971
0.000110306
0.000182076
0.000158509
0.000137409
0.000124013
0.000117665
0.000114432
0.000111786
0.000108507
0.000213454
0.000190684
0.00016947
0.000152075
0.000138056
0.000125555
0.000114631
0.000105812
0.000186391
0.000162187
0.000141334
0.00012591
0.000117579
0.000113619
0.000110987
0.000107886
0.000150591
0.000132188
0.000122548
0.000118973
0.000117616
0.000116086
0.000113726
0.000109889
0.000134933
0.00012724
0.000123386
0.000122539
0.000121929
0.000120491
0.000117705
0.000113112
0.000157739
0.000146893
0.00013805
0.000130872
0.000124968
0.000119747
0.000114571
0.000108974
0.000158244
0.000146211
0.000136861
0.000129608
0.000123908
0.000118903
0.000113896
0.000108455
0.000166119
0.000151129
0.000139738
0.000131314
0.000124928
0.000119482
0.000114113
0.000108416
0.000173323
0.000157259
0.000144021
0.000134445
0.000127598
0.000122025
0.000116306
0.000109855
0.00016517
0.00015085
0.000139531
0.000131444
0.000125056
0.000119513
0.000114023
0.00010827
0.000156606
0.000145158
0.000135935
0.000128931
0.000123398
0.000118507
0.000113563
0.000108159
0.000154682
0.000144658
0.000136497
0.000129791
0.000124152
0.000119054
0.000113935
0.000108382
0.000250602
0.000211125
0.000184155
0.000163277
0.000147877
0.000136325
0.000126989
0.00011873
0.00024857
0.000208298
0.000182634
0.000162748
0.000147864
0.000136503
0.000127198
0.000118925
0.000253301
0.000209589
0.000183263
0.000163588
0.000148825
0.000137352
0.000127799
0.000119271
0.000259126
0.000210638
0.000182485
0.000163083
0.000149236
0.000138488
0.000129165
0.000120478
0.000252388
0.000208949
0.000182888
0.000163499
0.000148853
0.000137368
0.000127765
0.000119207
0.000245485
0.000205988
0.000180905
0.000161555
0.000147052
0.000135946
0.000126803
0.000118634
0.000244579
0.000206503
0.000180953
0.000161204
0.000146528
0.000135407
0.000126325
0.000118226
0.000833514
0.000493652
0.000294351
0.000207591
0.00016795
0.000146798
0.000133254
0.00012298
0.000819157
0.000487299
0.000292078
0.000206972
0.000167971
0.00014704
0.000133553
0.000123287
0.000807764
0.000480626
0.000289483
0.000206331
0.000168071
0.000147333
0.000133824
0.000123474
0.000798591
0.000472899
0.000285147
0.000204344
0.000167455
0.000147469
0.000134293
0.000124013
0.000797065
0.000474984
0.000287016
0.000205307
0.000167635
0.000147127
0.000133708
0.000123399
0.000797897
0.000476371
0.000287091
0.000204601
0.000166743
0.000146356
0.000133153
0.000123043
0.000800283
0.000476861
0.000286748
0.000203991
0.000166094
0.000145765
0.000132649
0.000122618
0.00103177
0.000662373
0.000380237
0.000246623
0.00018503
0.000154163
0.000136375
0.000124295
0.00102538
0.000659935
0.000380152
0.000247143
0.000185581
0.000154613
0.000136725
0.000124579
0.00101594
0.000654907
0.000378463
0.000246764
0.000185605
0.00015472
0.000136823
0.00012465
0.00100606
0.000648927
0.000375939
0.000245959
0.000185558
0.000154972
0.000137156
0.000124973
0.00100803
0.000650336
0.000376306
0.000245802
0.00018517
0.000154514
0.000136719
0.000124597
0.00100932
0.00065063
0.000375672
0.000245051
0.000184572
0.000154106
0.000136465
0.000124446
0.00100837
0.000649107
0.000373988
0.000243761
0.00018367
0.000153485
0.000136025
0.000124117
0.000147026
0.000134526
0.00012684
0.000123319
0.000121606
0.000119756
0.000116924
0.000112209
0.000220899
0.000196773
0.00017506
0.000157591
0.000143372
0.000132913
0.000125458
0.000118999
0.000287959
0.000268795
0.000249702
0.0002331
0.000217559
0.000202988
0.000187506
0.000172547
0.000313623
0.000303405
0.000295767
0.000296694
0.000302297
0.000293066
0.000269611
0.000251163
0.000294754
0.000277676
0.000259154
0.000244501
0.000229936
0.000216004
0.000199393
0.000182841
0.000228171
0.000204936
0.000184329
0.000166398
0.00015046
0.000137701
0.000127946
0.000120465
0.000151706
0.000137978
0.000129556
0.000126316
0.000124078
0.0001217
0.000118411
0.000113431
0.000162039
0.000150751
0.00014114
0.000133066
0.000126287
0.000120259
0.00011441
0.000108309
0.000190883
0.000173206
0.000158303
0.000145932
0.0001361
0.000127725
0.000119881
0.000111858
0.000229067
0.000211556
0.000196266
0.000183864
0.000173337
0.000163502
0.000153555
0.000142379
0.000269692
0.000259944
0.000252847
0.000247249
0.000241851
0.000225102
0.000212432
0.000203991
0.000235049
0.000216916
0.000200953
0.000188078
0.000177364
0.000166938
0.000156079
0.000144597
0.000199135
0.000180562
0.000163558
0.000149802
0.000138921
0.000129972
0.000121717
0.000113339
0.000169397
0.000156264
0.000144786
0.000135367
0.000127766
0.000121295
0.00011519
0.000108928
0.000250235
0.00021117
0.000183078
0.000161991
0.000146772
0.000135434
0.000126253
0.000118118
0.000268879
0.000221885
0.000188805
0.000165163
0.000148682
0.000136576
0.000126766
0.000118057
0.00029861
0.000243272
0.000204625
0.000178202
0.00016066
0.000148368
0.00013866
0.000130023
0.000338736
0.00028345
0.00024353
0.000214731
0.000194339
0.000179982
0.000172574
0.0001701
0.000304363
0.000246943
0.000206778
0.000179353
0.000161201
0.00014863
0.00013902
0.000130708
0.000274828
0.000225582
0.000190796
0.00016623
0.000149391
0.000137182
0.000127332
0.000118573
0.000256221
0.000215271
0.000185388
0.000163133
0.000147332
0.00013575
0.000126482
0.000118307
0.000818429
0.000481351
0.000287947
0.000204536
0.00016647
0.000146084
0.000132916
0.000122837
0.000830205
0.000482232
0.000286548
0.000203
0.000165071
0.00014487
0.000131939
0.000122174
0.000840488
0.000481446
0.000284335
0.000202022
0.000165879
0.000147638
0.000136872
0.000129743
0.00086812
0.000493378
0.000288193
0.000202815
0.000166521
0.000150987
0.00014751
0.000156952
0.000851537
0.000486094
0.000285922
0.000202409
0.000165821
0.000147497
0.000136861
0.000129967
0.00085117
0.000491484
0.000290097
0.000204428
0.000165777
0.000145322
0.000132278
0.000122461
0.000849205
0.000495695
0.000293822
0.00020696
0.000167502
0.000146537
0.000133128
0.000122944
0.00101253
0.00065025
0.000375196
0.000244857
0.000184605
0.000154261
0.00013664
0.000124579
0.000997307
0.000637746
0.0003678
0.000240458
0.000181889
0.000152607
0.00013577
0.000124397
0.000979883
0.000624759
0.000361138
0.000237801
0.000181929
0.000154894
0.000140415
0.000131963
0.000926983
0.000576345
0.000325219
0.000211493
0.000162986
0.000143353
0.000139117
0.000148438
0.000983561
0.000626599
0.000361839
0.000238004
0.000181974
0.00015494
0.000140532
0.000132184
0.00100839
0.000643885
0.000370618
0.000241758
0.000182555
0.000153
0.000136039
0.000124606
0.00103033
0.000659978
0.000379547
0.000246735
0.000185447
0.000154671
0.000136861
0.000124707
0.000149203
0.000136123
0.000128605
0.000125742
0.000125052
0.000124106
0.000121743
0.000116995
0.000210363
0.000188551
0.000169035
0.000153802
0.000142736
0.000136597
0.000132478
0.000126554
0.000274599
0.00025605
0.000238075
0.00022088
0.000203582
0.000188548
0.000174795
0.000160902
0.000319869
0.000308685
0.000298528
0.000286622
0.000268795
0.000248008
0.000227757
0.00021369
0.00027826
0.000260013
0.000243417
0.00022747
0.000210325
0.000194029
0.000179101
0.000164314
0.000213987
0.000194207
0.000176685
0.000160983
0.000147718
0.000137073
0.00013084
0.000125248
0.000148461
0.000136188
0.000128619
0.000125818
0.000124562
0.000123169
0.000120685
0.000116181
0.000167914
0.000155897
0.000145368
0.00013652
0.000129152
0.000122697
0.000116527
0.000110184
0.000191343
0.000174999
0.000160892
0.000149321
0.000140162
0.000132086
0.00012411
0.000115848
0.000237948
0.000220114
0.000203882
0.000190382
0.000179875
0.000170763
0.000161058
0.000148427
0.000288462
0.000277339
0.000264851
0.000251589
0.000242492
0.00023829
0.000232371
0.00022133
0.000236045
0.000218389
0.000202094
0.000188902
0.000178802
0.000170341
0.000161123
0.00014889
0.000191498
0.000175374
0.000160589
0.000149121
0.000140118
0.000132625
0.000125131
0.000116952
0.000166342
0.000153945
0.000143325
0.000134563
0.000127545
0.000121587
0.000115941
0.00011004
0.00025842
0.000217694
0.000187493
0.000164855
0.000148708
0.000136853
0.000127412
0.00011915
0.000280933
0.000232411
0.000196891
0.000171285
0.000153437
0.000140394
0.000130032
0.000121147
0.000319693
0.000260203
0.00021917
0.00019144
0.00017329
0.000160634
0.000150892
0.000142983
0.00037913
0.000318118
0.00027549
0.000247633
0.000233306
0.000228954
0.000226435
0.000218033
0.000322353
0.000261742
0.000220187
0.000192249
0.000174114
0.000161534
0.000151568
0.000143118
0.00028392
0.000233418
0.000197435
0.000171771
0.000154056
0.00014118
0.000130825
0.000121745
0.000259819
0.000217578
0.000187694
0.000165266
0.00014915
0.000137291
0.000127846
0.000119571
0.000858378
0.000500256
0.00029605
0.000208258
0.000168427
0.000147316
0.000133867
0.000123689
0.000886222
0.000510164
0.000299278
0.000209443
0.000168947
0.000147714
0.000134555
0.000125105
0.000895565
0.000510302
0.000299568
0.000212644
0.000175886
0.000159154
0.000151871
0.000150699
0.000966642
0.000557167
0.000331883
0.00024224
0.000210809
0.000206084
0.000220608
0.000264335
0.000896745
0.000511948
0.000301044
0.000214006
0.000177122
0.000160118
0.00015228
0.000150239
0.000880385
0.00050817
0.000298531
0.000209192
0.000168913
0.000147738
0.000134517
0.000124922
0.00084887
0.000498056
0.000295569
0.000208185
0.000168492
0.000147434
0.000134011
0.000123837
0.00102941
0.000658995
0.000378903
0.000246444
0.000185438
0.000154875
0.000137227
0.000125189
0.00100593
0.000639424
0.000367242
0.00023998
0.000182254
0.000154095
0.000138585
0.000128757
0.000979068
0.000620583
0.000359857
0.000240681
0.000189662
0.000168837
0.000163026
0.000166724
0.000909972
0.000559967
0.000323622
0.000227227
0.000201214
0.000217212
0.000275316
0.000386543
0.0009787
0.000620804
0.000360161
0.000241049
0.000190019
0.000169073
0.000163042
0.000166378
0.00100242
0.00063745
0.000365908
0.000239129
0.000181696
0.000153682
0.000138227
0.000128391
0.00102657
0.000657921
0.000377941
0.000245698
0.000184895
0.000154483
0.000136949
0.000124998
0.000142125
0.00013325
0.000128186
0.000126326
0.000124609
0.000122423
0.000119121
0.000114021
0.000190678
0.000179096
0.000165978
0.000154874
0.000144716
0.000136625
0.000130229
0.00012341
0.000258736
0.000246221
0.000234727
0.000223332
0.000211015
0.000197612
0.000183817
0.000169971
0.000307878
0.000303891
0.000300849
0.000298788
0.000292224
0.000277535
0.000259448
0.000241533
0.00027923
0.000265978
0.000252684
0.00023916
0.000224693
0.000208854
0.000192034
0.000175792
0.000206017
0.000189587
0.000172754
0.000156782
0.000143129
0.000133277
0.000126879
0.000120906
0.000144897
0.000133741
0.000126531
0.000122771
0.000121137
0.000119523
0.000116931
0.000112353
0.0001606
0.000149007
0.000139344
0.000131483
0.000125173
0.000119694
0.000114345
0.000108625
0.000182585
0.000166819
0.000153284
0.000142145
0.000133599
0.000126366
0.000119378
0.000111908
0.000225843
0.000209575
0.000194504
0.000182172
0.000171908
0.000162737
0.000153404
0.000142541
0.000275646
0.000264573
0.000254207
0.000244454
0.000232058
0.000219191
0.000212389
0.000205367
0.000237171
0.000219598
0.000203375
0.000189779
0.000178033
0.000167314
0.000156934
0.000145175
0.000188405
0.000172023
0.00015734
0.000145668
0.000136429
0.000128548
0.000120849
0.00011273
0.000162642
0.000151028
0.000141244
0.000133209
0.000126475
0.000120456
0.000114586
0.000108469
0.000249373
0.000209379
0.000181844
0.00016124
0.000146343
0.00013526
0.00012629
0.000118309
0.000267574
0.000220772
0.000187971
0.000164525
0.000148212
0.000136276
0.000126621
0.000118064
0.000299603
0.000244051
0.000205791
0.000179521
0.000162002
0.000149732
0.000140034
0.000131534
0.000343959
0.000287236
0.000246673
0.000218185
0.000199355
0.00018807
0.000182921
0.000181877
0.000302642
0.000246593
0.000207916
0.000181269
0.000163432
0.000150975
0.000141201
0.000132505
0.000268982
0.000222161
0.000189178
0.000165633
0.000149214
0.000137095
0.000127208
0.000118431
0.000249879
0.0002109
0.000182955
0.000161966
0.000146789
0.000135462
0.000126293
0.000118178
0.000802466
0.00047476
0.000284767
0.000202781
0.000165466
0.000145528
0.000132653
0.000122777
0.000818316
0.000477092
0.000283575
0.00020105
0.000163751
0.000143996
0.000131422
0.000121962
0.000824303
0.000474184
0.000280909
0.000200406
0.000165278
0.000147747
0.000137692
0.000131514
0.000859319
0.000491403
0.000289033
0.000205536
0.000171049
0.00015768
0.000157159
0.000171921
0.000829899
0.000477174
0.000282633
0.0002015
0.000166067
0.000148409