/*--------------------------------*- C++ -*----------------------------------*\
| =========                 |                                                 |
| \\      /  F ield         | OpenFOAM: The Open Source CFD Toolbox           |
|  \\    /   O peration     | Version:  plus.master                           |
|   \\  /    A nd           | Web:      www.OpenFOAM.com                      |
|    \\/     M anipulation  |                                                 |
\*---------------------------------------------------------------------------*/
FoamFile
{
    version     2.0;
    format      ascii;
    class       volScalarField;
    location    "2.8";
    object      k;
}
// * * * * * * * * * * * * * * * * * * * * * * * * * * * * * * * * * * * * * //

dimensions      [0 2 -2 0 0 0 0];

internalField   nonuniform List<scalar> 
47285
(
0.00030151
0.000402724
0.000996963
0.00193495
0.000904219
0.000352326
0.000265522
0.000401659
0.00113111
0.00496798
0.0121148
0.0045609
0.00095333
0.000327035
0.000892918
0.00441118
0.00769556
0.0166031
0.00670178
0.00401083
0.000744448
0.00143649
0.0072112
0.0255467
0.0228872
0.0170425
0.00749511
0.00135111
0.00088654
0.00391508
0.00598289
0.0220119
0.00516749
0.00383691
0.000801002
0.000387356
0.000976902
0.00357603
0.00585412
0.00323903
0.000864216
0.000331293
0.000285036
0.000354119
0.000763779
0.0012264
0.000675625
0.000319562
0.000259913
0.000633106
0.00132963
0.004176
0.010976
0.00325328
0.00103021
0.000558655
0.00136102
0.00521175
0.0203295
0.0472159
0.0173731
0.00366995
0.00100924
0.00374377
0.0163188
0.0352286
0.0383421
0.0347421
0.0119892
0.00247156
0.00584125
0.021859
0.0426872
0.041263
0.0440487
0.016858
0.0036985
0.00333668
0.0104933
0.0197129
0.0457753
0.0174731
0.00797204
0.00243324
0.00132311
0.00371667
0.00865015
0.0125068
0.00755815
0.00286756
0.00107853
0.000613606
0.00123977
0.00272952
0.00371476
0.00234012
0.00104846
0.000570118
0.00112756
0.00243376
0.00758904
0.0169238
0.00582727
0.00175794
0.000999212
0.00278743
0.0113686
0.035869
0.0714844
0.0282885
0.0067694
0.0017846
0.00847207
0.0318742
0.0632905
0.0655801
0.0662284
0.0190527
0.00439908
0.0127762
0.040786
0.0604974
0.0625926
0.0729579
0.0237259
0.0063814
0.00816777
0.021928
0.0404418
0.0663914
0.0329224
0.0139112
0.00480866
0.00340332
0.00914443
0.0175275
0.0224164
0.0141768
0.0063301
0.00242665
0.00133628
0.00316776
0.00634078
0.00796391
0.00535389
0.00252645
0.00118566
0.00217904
0.00359451
0.00834788
0.0145927
0.00661566
0.00280259
0.00199562
0.00427732
0.0144142
0.0378716
0.0691276
0.0294343
0.00863962
0.00291922
0.0119444
0.0391965
0.0755998
0.0746717
0.0725629
0.0223909
0.00623299
0.0181493
0.0534885
0.0688376
0.0747509
0.084184
0.02891
0.00896633
0.0127919
0.0324447
0.0555976
0.073377
0.0440238
0.0196761
0.00733856
0.00596446
0.0152669
0.0268664
0.0319679
0.0211103
0.0103074
0.00420632
0.00265439
0.00567092
0.0104757
0.0125848
0.00875769
0.00449128
0.00234827
0.00252802
0.00387439
0.00765787
0.0113241
0.00618592
0.00318168
0.00233792
0.00463782
0.0140073
0.032248
0.0531395
0.0248085
0.00879285
0.00340546
0.0125139
0.0387005
0.078642
0.0674561
0.0654786
0.0223527
0.00702976
0.0200008
0.0586211
0.0719751
0.0769886
0.0840948
0.0308179
0.010377
0.0148059
0.0382443
0.0646909
0.0773692
0.0497038
0.0231664
0.00888101
0.00715121
0.0188722
0.0332557
0.0389085
0.0258494
0.0129264
0.00523031
0.00318903
0.00698125
0.0130461
0.015614
0.0109329
0.00562043
0.002863
0.000253812
0.000248561
0.000239123
0.000229592
0.000218137
0.000206924
0.000196693
0.000187508
0.000279161
0.000271527
0.000264139
0.000251666
0.000239432
0.000227478
0.00021509
0.000203991
0.000388247
0.000317324
0.000289839
0.000270089
0.000256851
0.000246552
0.00023686
0.000227189
0.000524847
0.000342018
0.000288647
0.000270282
0.000264945
0.000258839
0.000252394
0.000245024
0.000415018
0.000323207
0.000288932
0.000269519
0.000257588
0.000248504
0.000238519
0.000229039
0.000281195
0.000269904
0.000261074
0.000248678
0.000237022
0.00022518
0.000213272
0.00020181
0.000251092
0.00024688
0.000237556
0.00022652
0.000214052
0.000203009
0.000193128
0.0001846
0.000473297
0.000443771
0.000422665
0.00040407
0.000387879
0.000374204
0.000362697
0.000352926
0.000539477
0.000462131
0.000436217
0.000417281
0.000399727
0.000383341
0.000368561
0.000355406
0.000731163
0.000489572
0.000450244
0.000434241
0.000419422
0.000403719
0.000387427
0.000371783
0.000947939
0.000514241
0.000456744
0.000442368
0.000429881
0.000415827
0.000399795
0.000383741
0.000782119
0.000493807
0.000450138
0.00043441
0.000419843
0.000404031
0.000387431
0.00037149
0.000553254
0.000462683
0.000436262
0.000417072
0.000399126
0.00038254
0.00036771
0.000354752
0.000474359
0.000444293
0.000423343
0.000404112
0.000387334
0.000373144
0.00036131
0.000351277
0.000882252
0.000860797
0.000842533
0.000814422
0.00077647
0.00072954
0.00067513
0.000616548
0.00097131
0.000867742
0.000848575
0.000826129
0.000790644
0.000742567
0.000684187
0.000619855
0.00136698
0.000911264
0.000866691
0.000853074
0.000823584
0.00077523
0.000711494
0.0006389
0.00186126
0.000975141
0.000881857
0.000872968
0.000849153
0.000802436
0.000736195
0.000658035
0.00161917
0.000934932
0.000859636
0.000846448
0.000819446
0.000772803
0.000709951
0.000637736
0.00108937
0.000863458
0.000833019
0.000812382
0.000779416
0.000733366
0.000676731
0.000614039
0.000886376
0.000840723
0.00082237
0.000796259
0.000760209
0.000715034
0.000662447
0.000605799
0.00187682
0.00185213
0.00179435
0.00170373
0.00160216
0.00150887
0.00143049
0.00135088
0.001931
0.00183023
0.00179195
0.00171636
0.00161522
0.00151451
0.00142941
0.00134715
0.00237833
0.00183126
0.00178078
0.00172683
0.00163388
0.00152927
0.00143677
0.00134888
0.00301853
0.00187514
0.00177031
0.00172745
0.0016421
0.00153752
0.00144137
0.00134937
0.00277828
0.00185379
0.00175608
0.0017045
0.00161672
0.00151533
0.00142461
0.00133794
0.00213325
0.00180685
0.00174925
0.00167937
0.00158406
0.00148709
0.0014046
0.00132469
0.0018691
0.00179806
0.0017421
0.00165693
0.0015593
0.00146887
0.00139302
0.00131627
0.00216477
0.00211711
0.00205884
0.00198113
0.00188242
0.00174062
0.00152618
0.0012585
0.00227285
0.00211228
0.00205373
0.0019819
0.00189094
0.00176315
0.00156205
0.00129521
0.00282993
0.00214553
0.00205052
0.00198808
0.00190378
0.00178235
0.00158669
0.00131841
0.00361501
0.0022185
0.00204622
0.00198661
0.0019066
0.00178713
0.00159237
0.00132291
0.00336673
0.00219424
0.00203318
0.00196802
0.00188626
0.00176703
0.00157406
0.00130933
0.0025811
0.00211592
0.00202151
0.00194918
0.00186077
0.00173601
0.00153947
0.00127861
0.00219914
0.00208087
0.00201595
0.00193907
0.00184257
0.00170471
0.00149646
0.00123652
0.000278097
0.000271481
0.000257134
0.000244324
0.000232907
0.000220314
0.000208979
0.000198635
0.000338951
0.000324167
0.000308111
0.000295875
0.00028386
0.000272805
0.000263737
0.000255839
0.000469203
0.000367463
0.000336667
0.000322629
0.000313501
0.00030628
0.000299803
0.000293602
0.000587928
0.000398391
0.000350354
0.000333086
0.000323445
0.000316464
0.000310849
0.00030607
0.000467293
0.000370948
0.000340247
0.000326499
0.000317429
0.000310276
0.000304001
0.000298071
0.000341001
0.000326715
0.000308247
0.000296322
0.000286595
0.000277648
0.00026872
0.000261103
0.000288493
0.000279978
0.000266949
0.000254379
0.000241085
0.000227795
0.000216159
0.000205455
0.000494768
0.00045916
0.000437596
0.000418635
0.000401639
0.000386733
0.00037394
0.000362795
0.000621064
0.000505931
0.00047902
0.000463695
0.000450413
0.0004374
0.000424715
0.000411967
0.000978836
0.000581976
0.000525724
0.000508863
0.000495887
0.000482688
0.000469196
0.000455833
0.00139274
0.000643039
0.00055023
0.000530331
0.000518345
0.000507237
0.00049668
0.000487098
0.000988957
0.00059655
0.00053446
0.00051457
0.000500791
0.000487697
0.000474548
0.000461526
0.000640699
0.000521394
0.000488604
0.000471271
0.000457978
0.000445882
0.000433767
0.000421559
0.000510598
0.000468493
0.000443842
0.000424556
0.000408374
0.000394501
0.00038249
0.000371797
0.000935479
0.000879251
0.000859442
0.000831198
0.000791419
0.000741231
0.000683043
0.000621076
0.00127306
0.000946046
0.000909333
0.000889734
0.000856083
0.000805618
0.000740835
0.000667511
0.00230891
0.00107763
0.000951219
0.000936268
0.000911733
0.000865564
0.000799219
0.000719148
0.00322196
0.00118459
0.000971834
0.000956158
0.000937396
0.000896763
0.000834893
0.000757899
0.00203957
0.00105953
0.000964831
0.000950159
0.000924452
0.00087731
0.000809892
0.000728415
0.00114668
0.000953343
0.000926966
0.00090654
0.000871851
0.000820467
0.000754299
0.000678926
0.000927914
0.000894304
0.000874067
0.000844942
0.000804927
0.000754452
0.000695415
0.000631974
0.00198423
0.00189405
0.00182899
0.00173187
0.00162068
0.00151698
0.00142948
0.00134309
0.00247687
0.0019691
0.00188899
0.00180502
0.00169255
0.00157644
0.00147518
0.00137805
0.0038977
0.00211205
0.00192937
0.0018602
0.00175503
0.00163265
0.00151966
0.00141106
0.00499156
0.00221951
0.00195375
0.00189151
0.00179193
0.0016698
0.00155501
0.00144424
0.00334023
0.00206661
0.00194843
0.00188151
0.00177369
0.00164903
0.00153404
0.00142339
0.00218528
0.00197205
0.001921
0.00183663
0.00172179
0.00160371
0.00150029
0.00140045
0.00196202
0.00192957
0.00186783
0.00176962
0.00165766
0.00155299
0.00146382
0.00137478
0.00232414
0.0021912
0.00211715
0.00202679
0.00191417
0.00175838
0.00153059
0.00125223
0.00293106
0.0022853
0.00216655
0.00207471
0.00196242
0.00181009
0.00158293
0.00129261
0.00448187
0.00245306
0.00220895
0.0021181
0.00200762
0.00185386
0.00162156
0.00131874
0.00553551
0.0025608
0.00223565
0.00214447
0.00203083
0.00186842
0.00162277
0.00130407
0.00373418
0.00238468
0.00222232
0.0021366
0.00202447
0.00186844
0.00163277
0.00132566
0.00252581
0.00226559
0.00219015
0.00210202
0.00198905
0.00183439
0.00160267
0.00130611
0.00226814
0.00221344
0.00214895
0.00206065
0.00194785
0.00178932
0.001556
0.00127025
0.000286585
0.000280501
0.000267283
0.000252383
0.000238765
0.000225455
0.000213315
0.000202087
0.000349812
0.000325242
0.00029689
0.000283867
0.000274167
0.000264088
0.000254004
0.000244836
0.000470805
0.000362365
0.000329122
0.00031579
0.000306962
0.000299696
0.000292981
0.000286157
0.000611351
0.000379852
0.000335758
0.000323204
0.000317143
0.000313263
0.000310794
0.000308162
0.000449224
0.000360091
0.000324043
0.000312071
0.000305406
0.000299962
0.000294442
0.000288485
0.00031204
0.000301043
0.000287727
0.00027877
0.000270289
0.000263148
0.00025537
0.000247273
0.000262982
0.000260924
0.000252036
0.00024215
0.000231516
0.000220853
0.000210115
0.0002001
0.000506631
0.00046582
0.000441391
0.00042205
0.000405751
0.000391808
0.000379909
0.000369462
0.000629437
0.000521746
0.000488823
0.000469094
0.000452983
0.000438536
0.000424881
0.000412036
0.000893004
0.000581177
0.000536221
0.000518808
0.000505052
0.000491804
0.000478647
0.000465717
0.00134159
0.000599395
0.0005493
0.000537526
0.000529333
0.000521722
0.000514403
0.000506951
0.000770115
0.000556175
0.000526663
0.000514276
0.00050276
0.000490402
0.0004775
0.000464612
0.000570864
0.000503351
0.000481387
0.000466144
0.000452185
0.000438588
0.000425272
0.000412725
0.00048434
0.00045628
0.000436741
0.000419516
0.000404232
0.000390871
0.000379194
0.000368947
0.00091789
0.000890321
0.000871759
0.000844125
0.000805362
0.000755897
0.000697617
0.000634663
0.00106317
0.000941483
0.000925902
0.000907979
0.000874611
0.000824604
0.000759867
0.000685754
0.00149094
0.000993222
0.000967984
0.000963783
0.000941281
0.000896394
0.000830671
0.000749938
0.0021987
0.00102726
0.00098729
0.000992422
0.000979224
0.000942867
0.000884444
0.00080871
0.0013306
0.000986898
0.000975661
0.00097323
0.000950607
0.000904931
0.00083813
0.000756226
0.00100352
0.00094073
0.000933869
0.000917667
0.000884399
0.000833807
0.000768197
0.000693077
0.000899683
0.000885388
0.000870774
0.000844721
0.000806831
0.000758042
0.000700335
0.000637739
0.00195748
0.00193132
0.00187115
0.00177493
0.00166483
0.0015616
0.00147333
0.00138452
0.00206259
0.00196548
0.00193014
0.00185124
0.00174168
0.00162911
0.00153051
0.00143362
0.00241986
0.00198613
0.00196505
0.00190936
0.00180614
0.00168706
0.0015773
0.00146964
0.00287327
0.00200732
0.00198643
0.00194459
0.00185014
0.00173689
0.00163255
0.00153012
0.00227191
0.00197607
0.00196369
0.00190785
0.00180502
0.0016869
0.00157814
0.00147124
0.00198475
0.00194439
0.00191497
0.00183783
0.00173059
0.00162068
0.00152446
0.00142944
0.00190404
0.0018878
0.00183248
0.00174192
0.00163818
0.00154117
0.00145831
0.00137391
0.0022672
0.0022163
0.00215153
0.0020635
0.00195077
0.00179181
0.00155757
0.00127062
0.0023845
0.00224483
0.00218534
0.00210234
0.00199281
0.00183981
0.00160742
0.00130803
0.00270327
0.00226621
0.00220786
0.00213401
0.00202494
0.00187035
0.00163406
0.00132467
0.00297563
0.00227618
0.00221658
0.0021469
0.00203471
0.00187138
0.00162126
0.00129563
0.00256869
0.00224298
0.00219169
0.00211851
0.00201107
0.00185927
0.00162683
0.00132136
0.00229455
0.00220221
0.00214829
0.0020683
0.00196305
0.00181588
0.00159096
0.00129943
0.00218983
0.00214815
0.00208954
0.00200923
0.00190567
0.00175726
0.0015351
0.00126008
0.000253749
0.000249655
0.000241404
0.000232311
0.000221602
0.000211283
0.000201428
0.000192036
0.000286467
0.000277196
0.000266357
0.000255935
0.000245338
0.000236788
0.000229756
0.000223772
0.000399854
0.00033876
0.000310266
0.000294322
0.00028779
0.000281758
0.000274632
0.000269997
0.000568233
0.000402774
0.000339274
0.000317926
0.000307947
0.000302954
0.000299673
0.000297416
0.000438423
0.000361992
0.000328394
0.000312993
0.000304946
0.000297956
0.000291213
0.000284789
0.000307909
0.000295599
0.000282669
0.000270024
0.000260471
0.000251561
0.000243992
0.00023865
0.000270282
0.000265567
0.00025391
0.000241083
0.000228857
0.000216988
0.000206414
0.000196473
0.000483037
0.000453307
0.000433119
0.000415061
0.000399288
0.000385732
0.000374075
0.000363708
0.000565739
0.000485079
0.000462992
0.000448334
0.000435228
0.000423046
0.000411322
0.000399975
0.000797549
0.00053178
0.000495009
0.000485323
0.000477785
0.000469531
0.000460637
0.00045065
0.0011188
0.000585818
0.000520911
0.000513611
0.000510403
0.000505906
0.000500143
0.000493454
0.000886096
0.000554958
0.000509553
0.000498916
0.0004912
0.000482555
0.000472965
0.000462268
0.000603433
0.000500615
0.000475298
0.000459984
0.000446121
0.000432423
0.000419419
0.00040702
0.000493858
0.00045921
0.000437614
0.000418607
0.000401623
0.000386784
0.000374037
0.00036297
0.000900976
0.000854904
0.000838076
0.000813269
0.000777625
0.000731737
0.000677419
0.000618381
0.00114
0.000898232
0.000871624
0.000857666
0.000830291
0.000786716
0.000728599
0.000660821
0.00184365
0.000998111
0.000905847
0.000901593
0.000885969
0.00084837
0.000789754
0.000715814
0.00260524
0.00111534
0.000927417
0.000925301
0.000918276
0.000887664
0.000833746
0.000762231
0.00203557
0.00102818
0.000917846
0.000911725
0.000895157
0.000856136
0.000795871
0.000720465
0.00123359
0.000923087
0.000889279
0.000873443
0.000843743
0.000797033
0.0007356
0.000665029
0.000931529
0.000873673
0.000853629
0.00082582
0.00078686
0.000737695
0.000680578
0.000619551
0.00189209
0.00181874
0.00176295
0.00167684
0.00157712
0.00148381
0.00140469
0.00132461
0.00224879
0.00186962
0.00180835
0.00173902
0.00164188
0.00154012
0.0014507
0.00136242
0.00327412
0.00198093
0.00183731
0.00178614
0.00169853
0.00159211
0.00149203
0.00139287
0.00432839
0.0021131
0.00185982
0.0018161
0.00173698
0.00163305
0.00153264
0.00143225
0.00359001
0.00203199
0.00186176
0.00180569
0.00171408
0.00160367
0.00150031
0.00139891
0.00242889
0.00192952
0.00185253
0.00177523
0.00167016
0.00156091
0.00146537
0.00137261
0.00198242
0.00188738
0.00182127
0.00172426
0.00161386
0.00151131
0.00142501
0.00133968
0.0022173
0.00209595
0.00203017
0.00195068
0.00185042
0.00170824
0.00149572
0.00123228
0.00271174
0.00217234
0.00206754
0.00198869
0.00189058
0.00175294
0.00154157
0.00126653
0.00398889
0.00232817
0.0021015
0.00202426
0.00192851
0.00178951
0.00157335
0.00128709
0.00522431
0.00248497
0.00212941
0.00204956
0.00195154
0.00180336
0.00157237
0.00126871
0.0043498
0.00238863
0.00213503
0.00205289
0.00195274
0.00180879
0.00158695
0.00129497
0.00291071
0.00224539
0.00212576
0.00203882
0.00193224
0.00178553
0.00156412
0.00127919
0.00232245
0.00218274
0.00210719
0.00201633
0.00190402
0.00174929
0.00152335
0.00124712
0.000179084
0.000194235
0.00021792
0.000238829
0.000220868
0.000192216
0.000176815
0.000344019
0.000343873
0.000357383
0.000368462
0.000356928
0.000343345
0.000342257
0.000559741
0.000557698
0.000568665
0.000581393
0.000567661
0.000553186
0.000550769
0.00122778
0.00121672
0.00121009
0.0012053
0.00120042
0.00119704
0.001197
0.000943509
0.000943853
0.0009409
0.000936008
0.000935788
0.000933791
0.000929331
0.000188659
0.00024625
0.000287776
0.000301972
0.000292151
0.000252657
0.000194408
0.00035282
0.000399298
0.000442937
0.000478665
0.000448995
0.000409075
0.000361897
0.000561732
0.000595889
0.000638545
0.000679242
0.000646273
0.000605043
0.000570903
0.0012156
0.00123412
0.00125158
0.00127897
0.00126163
0.00125297
0.00124333
0.000931656
0.000926194
0.00091812
0.000885895
0.000920636
0.000933077
0.000942241
0.000191364
0.000237321
0.000279516
0.000305386
0.000282075
0.000240071
0.000190521
0.000360013
0.000399604
0.000453321
0.000499626
0.000452168
0.000400396
0.000359229
0.000573792
0.000612685
0.00066751
0.000729005
0.000672632
0.000618829
0.000576771
0.00125227
0.00128527
0.00130631
0.0013664
0.00130837
0.00128262
0.00124538
0.000941646
0.000931148
0.000917719
0.00087305
0.000917302
0.00092895
0.00094009
0.000183133
0.000218848
0.000266494
0.000295842
0.000279904
0.000232466
0.000186734
0.000353944
0.000388377
0.000439453
0.000486102
0.000450655
0.000394792
0.000352978
0.000560671
0.000592744
0.000638921
0.000686104
0.000642588
0.000595137
0.000560848
0.00120193
0.00122434
0.00123945
0.00127337
0.00124416
0.00123139
0.00121305
0.000923434
0.000912472
0.000901426
0.000865088
0.000904598
0.000917106
0.000928571
0.000171118
0.000163675
0.000159915
0.000159177
0.000159115
0.000158247
0.000156068
0.000152165
0.00018457
0.000168653
0.000159036
0.000155753
0.000154836
0.000153826
0.00015197
0.000148681
0.000207401
0.000189162
0.000172027
0.000160691
0.000155198
0.000152359
0.000150006
0.000147051
0.000230528
0.000213902
0.000197786
0.000184036
0.000172545
0.000161963
0.000152447
0.000144557
0.000210656
0.000192062
0.000175273
0.000162305
0.00015511
0.000151635
0.00014929
0.00014649
0.000182844
0.000167679
0.00015946
0.000156375
0.000155196
0.000153848
0.000151749
0.000148303
0.000170001
0.000163508
0.000160212
0.000159501
0.000158978
0.000157721
0.00015527
0.000151191
0.000334465
0.000322593
0.000312377
0.000302319
0.000292417
0.000282331
0.00027108
0.000257649
0.000332168
0.000317736
0.000306536
0.000296983
0.000288052
0.000279012
0.000268699
0.000256099
0.000342796
0.000323028
0.00030727
0.000294999
0.000285203
0.00027628
0.000266466
0.000254471
0.000352523
0.000330453
0.000310506
0.000294473
0.000282036
0.000271912
0.000262196
0.000251058
0.000342152
0.000322873
0.000306747
0.000294597
0.000284784
0.000275892
0.000266076
0.000254109
0.000331711
0.000317766
0.000306161
0.000296351
0.000287341
0.00027831
0.000268021
0.000255454
0.000332672
0.000320982
0.000310805
0.000300758
0.000290963
0.000280945
0.000269739
0.000256377
0.000503608
0.000452969
0.000415916
0.000384362
0.00035817
0.000336022
0.000315792
0.000295481
0.000500016
0.0004483
0.000412758
0.000382638
0.000357419
0.000335835
0.000315926
0.000295851
0.000505665
0.000449252
0.000412432
0.000382544
0.000357686
0.00033624
0.000316287
0.000296115
0.000512691
0.000449701
0.000410022
0.000380127
0.000356368
0.000336029
0.000316719
0.000296766
0.000504804
0.000448436
0.000411796
0.000382243
0.000357565
0.000336145
0.000316162
0.000295978
0.000496641
0.000445444
0.000410346
0.000380792
0.000356055
0.000334832
0.000315174
0.000295271
0.000496485
0.000446951
0.000411262
0.000381024
0.000355812
0.000334314
0.000314504
0.000294481
0.00104234
0.000764067
0.000563884
0.000456205
0.000397122
0.000360253
0.000332861
0.000308657
0.00103199
0.000758461
0.00056128
0.000455306
0.000397139
0.00036071
0.00033352
0.000309429
0.00102314
0.000752031
0.000558042
0.000454194
0.000397095
0.000361067
0.000333946
0.0003098
0.00101556
0.000744237
0.000552563
0.000451094
0.000395767
0.000360886
0.000334368
0.000310436
0.0010152
0.000746849
0.000555174
0.00045275
0.000396386
0.000360704
0.000333741
0.000309678
0.00101622
0.000748437
0.000555464
0.000451969
0.000395188
0.000359542
0.000332805
0.000308981
0.00101776
0.000748686
0.000554988
0.000451099
0.000394141
0.000358469
0.00033177
0.00030799
0.000927443
0.000836061
0.000636189
0.000500969
0.000420803
0.000372265
0.000339245
0.000312585
0.000925133
0.000834953
0.0006364
0.000501718
0.000421665
0.000373071
0.000339968
0.000313253
0.000920297
0.000831603
0.000634918
0.000501302
0.000421712
0.000373262
0.000340172
0.000313433
0.000914831
0.000827383
0.000632566
0.000500333
0.000421593
0.00037357
0.000340626
0.000313884
0.000916303
0.000828519
0.000632921
0.000500139
0.000421075
0.000372923
0.000339993
0.000313342
0.000917036
0.000828642
0.000632213
0.000499165
0.000420177
0.000372228
0.000339498
0.000312996
0.000915876
0.000827154
0.000630368
0.000497463
0.000418781
0.000371125
0.000338612
0.000312244
0.000179979
0.000169672
0.000163172
0.000160177
0.000158706
0.000157093
0.000154596
0.000150396
0.000235913
0.000218512
0.000202186
0.000188553
0.000177075
0.000168382
0.000162028
0.000156407
0.000281627
0.000269032
0.000256168
0.000244705
0.000233717
0.000223175
0.000211707
0.000200314
0.000298129
0.000291668
0.00028678
0.000287368
0.000290971
0.000285058
0.00026966
0.000257166
0.00028606
0.000274951
0.000262612
0.000252631
0.000242491
0.000232595
0.000220538
0.000208179
0.000241079
0.000224522
0.000209262
0.000195499
0.000182852
0.000172391
0.000164162
0.000157691
0.000183773
0.000172567
0.000165498
0.000162765
0.00016085
0.00015879
0.000155908
0.000151489
0.000342369
0.000329405
0.000317571
0.000305681
0.000293928
0.000282056
0.000269201
0.000254406
0.00038491
0.000363515
0.000343704
0.000325359
0.000308957
0.000293224
0.000276765
0.000258156
0.00042898
0.00040974
0.000390848
0.000373426
0.000356749
0.00033942
0.000320412
0.000297997
0.000470527
0.000462163
0.000454658
0.000446868
0.000437782
0.000414367
0.000391586
0.000372115
0.000435397
0.000415941
0.000396422
0.000378367
0.000361333
0.000343191
0.000322785
0.000299736
0.000394861
0.000373273
0.000351175
0.000331162
0.000313332
0.000296785
0.000279729
0.000260609
0.000351126
0.000337163
0.000323668
0.000310104
0.000297098
0.000284425
0.000271035
0.000255851
0.000503855
0.00045257
0.000413818
0.000381607
0.000355289
0.000333101
0.000312765
0.000292307
0.00052807
0.000467095
0.000422118
0.000386232
0.000357749
0.000333965
0.00031209
0.000289968
0.000562512
0.000493497
0.000442426
0.000403013
0.000372892
0.000348468
0.000326131
0.000303074
0.000605194
0.000539856
0.000489918
0.000448975
0.00041549
0.000387663
0.000366786
0.000349396
0.000568387
0.000497606
0.000444997
0.000404356
0.000373359
0.000348468
0.000326219
0.000303657
0.000534657
0.000471605
0.000424874
0.000387888
0.000358922
0.000334986
0.000313056
0.000290869
0.000510904
0.000457916
0.000417333
0.000383683
0.000356507
0.000333881
0.000313336
0.000292745
0.00102757
0.000750527
0.000555273
0.00045112
0.000393921
0.000357983
0.000330982
0.000306894
0.0010355
0.000750732
0.000553199
0.000448471
0.000391029
0.000354945
0.000327854
0.000303711
0.00104213
0.000748807
0.00054926
0.000445309
0.000389731
0.000355912
0.000331205
0.000309589
0.00106256
0.00075951
0.000552036
0.000442446
0.000383521
0.000349076
0.000328117
0.000319171
0.00104943
0.000752597
0.000550829
0.000445658
0.000389476
0.00035549
0.000330935
0.000309651
0.00104965
0.000758503
0.000557011
0.000450338
0.00039207
0.000355649
0.000328397
0.000304177
0.00104902
0.000763007
0.000561846
0.000454446
0.000395555
0.000358766
0.00033136
0.000307074
0.000913772
0.000826181
0.000631002
0.000498612
0.000419859
0.000371892
0.000338976
0.000312198
0.00090301
0.000816092
0.000623306
0.000492817
0.000415478
0.000368591
0.000336524
0.000310463
0.000890741
0.000805127
0.000615802
0.000488541
0.000414178
0.000370162
0.000341068
0.000318295
0.00085363
0.000764055
0.000575519
0.000450902
0.000380498
0.000342
0.000321027
0.000311909
0.000892224
0.000806126
0.000616317
0.000488709
0.000414184
0.000370161
0.000341158
0.000318526
0.000908039
0.000819872
0.000625754
0.000494331
0.000416431
0.000369227
0.00033699
0.000310843
0.000921947
0.000832257
0.000634809
0.000500805
0.000421073
0.000372567
0.000339365
0.000312432
0.000181753
0.000171014
0.000164693
0.000162286
0.000161706
0.000160886
0.000158824
0.000154652
0.000228397
0.000212402
0.000197546
0.000185551
0.000176585
0.000171494
0.000168017
0.000162954
0.000272822
0.000260442
0.000248141
0.000236082
0.000223624
0.000212492
0.000202049
0.000191202
0.000302094
0.000295024
0.000288536
0.000280827
0.000269062
0.000254985
0.000240884
0.000230857
0.000275238
0.000263121
0.000251835
0.000240736
0.0002285
0.000216551
0.000205318
0.000193869
0.000230975
0.00021661
0.000203438
0.000191233
0.000180621
0.000171873
0.000166625
0.000161829
0.00018114
0.000171059
0.000164702
0.000162346
0.000161276
0.000160069
0.000157897
0.000153928
0.000349896
0.000337437
0.000325361
0.000312798
0.000300229
0.00028762
0.000274128
0.00025879
0.000385988
0.000367509
0.000349613
0.00033289
0.000317719
0.000302598
0.000286012
0.000266944
0.000439851
0.000421691
0.000402941
0.000384984
0.000368786
0.000352787
0.000334321
0.000309667
0.000492302
0.00048396
0.000472052
0.000456437
0.000441725
0.000430063
0.000414501
0.000389157
0.000438593
0.000420027
0.000400688
0.000382758
0.000366849
0.000351542
0.000333748
0.000309825
0.000386677
0.000367873
0.000348735
0.000332051
0.000317187
0.000303104
0.000287522
0.000268904
0.000348717
0.000335022
0.000322308
0.000309599
0.000297629
0.000285973
0.00027353
0.000259145
0.00051394
0.000461475
0.000420781
0.000386776
0.000359176
0.000336166
0.000315345
0.000294593
0.000542893
0.000481401
0.000434633
0.000396775
0.000366593
0.000341452
0.000318633
0.000296004
0.000588152
0.000516402
0.000463828
0.000423602
0.000393098
0.000368276
0.00034566
0.000323011
0.000651042
0.000582642
0.000532131
0.000494179
0.000469448
0.00045478
0.000440367
0.000417409
0.000591939
0.000518704
0.000465401
0.000424915
0.000394504
0.000369915
0.000347183
0.000324058
0.000547448
0.000483371
0.00043569
0.000397679
0.00036776
0.000343
0.000320342
0.000297553
0.00051641
0.000462152
0.000421454
0.000387681
0.000360249
0.000337406
0.00031676
0.000296162
0.00105631
0.000767663
0.000564779
0.00045648
0.000397155
0.000360187
0.000332742
0.000308478
0.00107727
0.000777299
0.0005688
0.000457931
0.00039729
0.000359664
0.000332082
0.000308196
0.00108714
0.000778755
0.000568858
0.000460303
0.000403861
0.000371674
0.000351036
0.000336532
0.00114217
0.000823792
0.000604763
0.00049359
0.000441578
0.000420569
0.000421453
0.000452504
0.00108937
0.000781061
0.000571013
0.000462457
0.000406001
0.000373578
0.000352287
0.000336712
0.0010758
0.00077693
0.000568603
0.000457946
0.000397534
0.00036003
0.000332408
0.000308345
0.0010532
0.000767732
0.000565149
0.000456875
0.000397685
0.000360877
0.000333582
0.000309433
0.000921083
0.000831532
0.000634262
0.00050054
0.000421139
0.000372949
0.000340017
0.000313283
0.00090518
0.000816651
0.000622776
0.000492415
0.000416073
0.000370706
0.000340494
0.000316521
0.000888821
0.000803438
0.000615932
0.000492552
0.000424027
0.000387948
0.000369533
0.000360888
0.000840349
0.000754056
0.000575043
0.000467108
0.000422109
0.000422924
0.000466037
0.000553525
0.000889439
0.000804054
0.000616438
0.000493091
0.000424578
0.000388354
0.000369618
0.000360447
0.00090513
0.000816106
0.000621787
0.000491467
0.000415339
0.00037016
0.000340055
0.000316106
0.000922614
0.000832154
0.000633799
0.00049978
0.000420493
0.000372545
0.000339868
0.000313357
0.000175972
0.000168609
0.00016434
0.000162775
0.000161307
0.000159412
0.000156523
0.000152008
0.000213972
0.000205261
0.00019516
0.000186401
0.000178193
0.000171505
0.000166105
0.000160244
0.000262231
0.000253749
0.000245818
0.000237814
0.000229012
0.000219225
0.000208928
0.000198322
0.000294461
0.000291963
0.000290024
0.000288689
0.000284471
0.000274887
0.000262808
0.000250532
0.000275874
0.000267119
0.000258168
0.000248893
0.000238762
0.000227429
0.000215083
0.000202805
0.000225252
0.000213165
0.000200409
0.000187908
0.00017688
0.000168693
0.000163247
0.000158071
0.000178238
0.000169005
0.000162903
0.000159696
0.000158295
0.000156889
0.000154602
0.000150525
0.00034335
0.000329636
0.000317003
0.000304629
0.000293291
0.000282174
0.000270117
0.00025601
0.000375385
0.000356417
0.000338179
0.000321299
0.00030659
0.000292487
0.000277326
0.000259562
0.000426297
0.000408432
0.000389905
0.000372719
0.000356505
0.000340236
0.000322284
0.000300357
0.000478013
0.000468361
0.000457593
0.000445603
0.000428758
0.000408297
0.000392607
0.000375347
0.000436988
0.000418334
0.000398991
0.000380658
0.000362876
0.000344854
0.000325717
0.000302909
0.000381041
0.000361775
0.000342515
0.000325343
0.000309956
0.000295124
0.000279056
0.000260424
0.000342467
0.000329351
0.000317522
0.000305954
0.000294361
0.000282561
0.000269703
0.000254891
0.000503513
0.000451197
0.000412747
0.000381075
0.000355273
0.000333579
0.000313696
0.000293607
0.000527232
0.000466534
0.000421626
0.000385926
0.000357708
0.000334224
0.00031262
0.000290724
0.000565172
0.00049582
0.000444927
0.000405694
0.000375689
0.000351365
0.000329039
0.000306081
0.000612824
0.0005459
0.000495174
0.00045483
0.000423681
0.000400304
0.000383007
0.000367692
0.00056811
0.000498579
0.000447467
0.000407926
0.00037761
0.000353144
0.000330874
0.000307896
0.000528477
0.00046787
0.000423017
0.000387316
0.000358998
0.000335267
0.000313327
0.000291118
0.000503416
0.000452352
0.000413756
0.000381673
0.000355426
0.000333268
0.000312957
0.000292533
0.00101875
0.000746133
0.000552284
0.000449076
0.000392759
0.000357556
0.000331132
0.000307484
0.00102985