/*--------------------------------*- C++ -*----------------------------------*\
| =========                 |                                                 |
| \\      /  F ield         | OpenFOAM: The Open Source CFD Toolbox           |
|  \\    /   O peration     | Version:  plus.master                           |
|   \\  /    A nd           | Web:      www.OpenFOAM.com                      |
|    \\/     M anipulation  |                                                 |
\*---------------------------------------------------------------------------*/
FoamFile
{
    version     2.0;
    format      ascii;
    class       volVectorField;
    location    "2.8";
    object      U;
}
// * * * * * * * * * * * * * * * * * * * * * * * * * * * * * * * * * * * * * //

dimensions      [0 1 -1 0 0 0 0];

internalField   nonuniform List<vector> 
47285
(
(0.0330775 0.0390858 -0.0040553)
(0.0205176 0.047626 -0.00273273)
(0.00851749 0.0431339 0.000784157)
(-0.00325803 0.0392419 0.00678753)
(-0.0156152 0.042755 0.00097961)
(-0.0271583 0.0451785 -0.00331905)
(-0.0383335 0.0398505 -0.00418985)
(0.0430546 0.0246812 -0.00179102)
(0.0528907 0.0551835 0.0485562)
(0.0477347 0.0718394 0.0698091)
(-0.00604992 0.0639278 0.112723)
(-0.0541838 0.0671846 0.0680692)
(-0.0558773 0.0559984 0.0446644)
(-0.0449271 0.0304657 -0.00240319)
(0.0431291 0.0122563 0.000794754)
(0.073296 0.0491336 0.068742)
(0.115688 0.118066 0.319522)
(-0.011169 0.0766637 0.606143)
(-0.12177 0.0982151 0.333296)
(-0.0674051 0.0481742 0.0714635)
(-0.0394385 0.0151624 0.0042888)
(0.0413967 -0.000668473 0.00472158)
(0.0740924 -0.00333424 0.0771766)
(0.13722 -0.0232676 0.352111)
(0.0819136 -0.14767 1.21707)
(-0.117684 -0.0233097 0.447882)
(-0.0556273 0.00123355 0.0878077)
(-0.0302627 0.00163173 0.0112205)
(0.0397068 -0.0117039 0.00188913)
(0.0689785 -0.0519041 0.06574)
(0.120781 -0.13693 0.27075)
(-0.00860301 -0.147455 0.311663)
(-0.125574 -0.11286 0.293991)
(-0.0646442 -0.0456418 0.069416)
(-0.0357502 -0.0126643 0.0059976)
(0.0414348 -0.0245535 -0.000188889)
(0.0512031 -0.0562258 0.0491071)
(0.0494319 -0.0688974 0.0702795)
(-0.00921477 -0.0646566 0.0784171)
(-0.0592418 -0.0643824 0.0708673)
(-0.0572632 -0.0522996 0.0459928)
(-0.0438001 -0.0267329 -0.000383357)
(0.0363386 -0.0386926 -0.00181804)
(0.0265297 -0.0460077 0.000839839)
(0.0148435 -0.0403499 0.00694293)
(-0.00460259 -0.0364567 0.0114955)
(-0.0211286 -0.0395386 0.00589231)
(-0.0316623 -0.0440491 0.000161082)
(-0.0396576 -0.0366366 -0.00206775)
(0.0183365 0.0246401 0.00829853)
(0.0121844 0.0239615 0.0184566)
(-0.000719079 0.0149713 0.0482101)
(-0.00563461 -0.0100329 0.104997)
(-0.00765462 0.0124755 0.0389855)
(-0.0174936 0.0191557 0.0153288)
(-0.0220596 0.0192533 0.00855721)
(0.0188858 0.0227927 0.0193359)
(0.0170593 0.0266558 0.109297)
(0.00445667 0.0165558 0.200513)
(-0.00942974 -0.00806474 0.390942)
(-0.0133327 0.0111376 0.183945)
(-0.0200999 0.02174 0.0985632)
(-0.021183 0.0157972 0.016537)
(0.0165151 0.0172527 0.0460082)
(0.012071 0.0253378 0.17659)
(0.00631884 0.0226811 0.645908)
(-0.0193896 -0.0903419 1.26121)
(-0.0249433 0.00492329 0.625151)
(-0.00869712 0.020755 0.157977)
(-0.0163186 0.011381 0.0356155)
(0.018702 0.00554567 0.0665749)
(0.0163949 0.00341331 0.204565)
(0.0198918 -0.0229327 0.693433)
(-0.0133814 -0.143355 1.42171)
(-0.0340192 -0.0194107 0.723556)
(-0.00425494 0.00844208 0.183459)
(-0.0150144 0.0072781 0.0514272)
(0.0243919 -0.0110845 0.0459045)
(0.0241178 -0.0212008 0.154619)
(0.036459 -0.0469307 0.419531)
(-0.0157358 -0.0680584 0.488647)
(-0.0523503 -0.0278096 0.427848)
(-0.0234395 -0.0117566 0.140691)
(-0.0237122 -0.00320735 0.038745)
(0.0252236 -0.021036 0.021253)
(0.0253785 -0.0275862 0.0988972)
(0.0213101 -0.0244487 0.14927)
(-0.0103206 -0.0231782 0.170266)
(-0.0322364 -0.0183087 0.142442)
(-0.0303108 -0.0206354 0.0921685)
(-0.0276249 -0.0140189 0.0205462)
(0.0238195 -0.0256612 0.0107514)
(0.0189633 -0.0272169 0.0232078)
(0.0107722 -0.0256325 0.0447017)
(-0.00604211 -0.0245724 0.0570245)
(-0.0189083 -0.0223281 0.0403898)
(-0.0243519 -0.0224168 0.0213691)
(-0.0270043 -0.0207573 0.0116562)
(0.0184192 0.0232766 0.0442733)
(0.0089863 0.0220002 0.0599616)
(-0.00603098 0.0126032 0.101177)
(-0.000995133 -0.0120203 0.160646)
(0.00373274 0.0167242 0.0906508)
(-0.0125898 0.0236577 0.055599)
(-0.0216398 0.0236726 0.0451718)
(0.0167411 0.0194316 0.0625809)
(0.00524915 0.0187435 0.140124)
(-0.0103949 0.00355802 0.271643)
(-0.00679385 -0.0130624 0.442682)
(0.00327928 0.00774957 0.239541)
(-0.0110231 0.0218213 0.112122)
(-0.0211363 0.0196257 0.0572301)
(0.0114107 0.0161597 0.108868)
(-0.00430646 0.0204826 0.270934)
(-0.0226295 0.00764301 0.776516)
(-0.0242305 -0.0507033 1.43071)
(-0.00542479 0.00478434 0.657024)
(-0.0018754 0.0220096 0.198646)
(-0.0196892 0.0162206 0.0848457)
(0.0122395 0.011104 0.143063)
(0.000875093 0.0107685 0.331463)
(-0.0187592 -0.00662997 0.897793)
(-0.0481093 -0.051605 1.46088)
(-0.0344038 -0.00065075 0.685118)
(-0.0096136 0.0140336 0.236014)
(-0.023355 0.0107749 0.104923)
(0.025026 -0.0016768 0.112263)
(0.0187542 -0.00632849 0.233028)
(0.0152196 -0.0206916 0.485524)
(-0.0196607 -0.0312127 0.574675)
(-0.0384008 -0.0138982 0.427345)
(-0.0250135 -0.00491229 0.187624)
(-0.0297355 -0.00262567 0.0918794)
(0.0286334 -0.0159333 0.0694374)
(0.0230125 -0.019019 0.133322)
(0.0143029 -0.0189268 0.209612)
(-0.00833993 -0.0193243 0.240706)
(-0.0244732 -0.0180917 0.189984)
(-0.0277304 -0.0183423 0.115495)
(-0.0310733 -0.0159158 0.0647387)
(0.0273296 -0.0251164 0.0463934)
(0.0211178 -0.0267203 0.0689213)
(0.0117011 -0.0266584 0.102655)
(-0.00281383 -0.0264456 0.119664)
(-0.0155473 -0.0274625 0.0959121)
(-0.0236179 -0.027029 0.065185)
(-0.0291852 -0.0252565 0.0473346)
(0.0283441 0.0304038 0.107467)
(0.0151785 0.0273635 0.125002)
(-0.00154847 0.0195191 0.160749)
(0.00277546 0.0027872 0.195926)
(0.00378268 0.0263724 0.151328)
(-0.0165553 0.0330207 0.119665)
(-0.0309862 0.0342709 0.10664)
(0.0236239 0.0202241 0.128973)
(0.00725056 0.0178663 0.200609)
(-0.00983736 0.0032507 0.320012)
(-0.00234494 -0.00920792 0.433159)
(0.00693737 0.0153292 0.28622)
(-0.0123869 0.0267027 0.169261)
(-0.0289948 0.0254791 0.121022)
(0.0139907 0.0140605 0.182178)
(-0.00562411 0.0197451 0.345074)
(-0.0212902 0.0149781 0.78081)
(-0.0187015 -0.0162953 1.29324)
(-0.00299857 0.020435 0.599626)
(-0.00594267 0.0254842 0.257796)
(-0.0263228 0.0185346 0.150564)
(0.0110114 0.0119185 0.222211)
(-0.0037995 0.015995 0.435156)
(-0.0272475 0.0116555 1.01796)
(-0.0459217 -0.00435372 1.35581)
(-0.0291887 0.0138399 0.641982)
(-0.0167472 0.0170487 0.302057)
(-0.029565 0.010428 0.172908)
(0.0255732 0.00162528 0.190633)
(0.0168719 0.00179511 0.326158)
(0.00747418 -0.00486242 0.572674)
(-0.0186574 -0.00884756 0.653109)
(-0.0305378 -0.00650888 0.457335)
(-0.026524 -0.00320777 0.258773)
(-0.0340406 -0.00525047 0.160523)
(0.0320166 -0.0156155 0.14002)
(0.0228589 -0.0146871 0.211176)
(0.0123649 -0.014769 0.295382)
(-0.00507655 -0.015919 0.327008)
(-0.0192278 -0.0197231 0.266707)
(-0.0269714 -0.0202101 0.184804)
(-0.0355024 -0.0208324 0.130944)
(0.0341312 -0.0302645 0.109925)
(0.024338 -0.0283393 0.138582)
(0.0135969 -0.0269095 0.177955)
(0.00052926 -0.0273032 0.196294)
(-0.0129257 -0.0317015 0.168864)
(-0.0248227 -0.0331847 0.132318)
(-0.0357496 -0.0339904 0.109125)
(0.0368041 0.0365935 0.215885)
(0.0228951 0.0348543 0.230005)
(0.0062763 0.0306982 0.255391)
(0.00389788 0.0216618 0.274808)
(-0.00309197 0.0368632 0.247159)
(-0.0236639 0.0401982 0.224868)
(-0.0390232 0.0407049 0.213663)
(0.0331383 0.0229311 0.233944)
(0.0165366 0.0218516 0.290247)
(-0.00155291 0.012438 0.383377)
(0.000743924 0.000469043 0.445255)
(0.00138224 0.0255536 0.350467)
(-0.02014 0.0307365 0.263464)
(-0.0374745 0.0288466 0.226151)
(0.022921 0.0123115 0.280021)
(0.00268431 0.0193692 0.420159)
(-0.0107281 0.0247227 0.763423)
(-0.0106245 0.00698587 1.2109)
(-0.00465477 0.0301864 0.584409)
(-0.0152719 0.0266449 0.341322)
(-0.0341729 0.0185102 0.251118)
(0.0157083 0.0092862 0.320402)
(-0.00130274 0.016404 0.536714)
(-0.0189722 0.0219936 1.13508)
(-0.0358028 0.0113899 1.37559)
(-0.0252372 0.0200054 0.669703)
(-0.023537 0.0164954 0.38778)
(-0.0352849 0.00792484 0.27248)
(0.0287194 -0.000461459 0.292756)
(0.0183044 0.00318484 0.429843)
(0.00857576 0.0027577 0.686728)
(-0.0156907 -0.00108744 0.76784)
(-0.0274547 -0.00576471 0.533826)
(-0.0288445 -0.00492448 0.354368)
(-0.0378764 -0.00874954 0.262918)
(0.0351459 -0.0186938 0.246577)
(0.0239081 -0.0152848 0.315835)
(0.013407 -0.0147777 0.401673)
(-0.00241025 -0.0172815 0.435314)
(-0.01715 -0.0235803 0.367992)
(-0.0277148 -0.0235122 0.287277)
(-0.0390568 -0.0251466 0.236567)
(0.0383107 -0.0351848 0.218887)
(0.0265249 -0.0317451 0.245132)
(0.0150751 -0.0294827 0.283255)
(0.00238313 -0.0304915 0.300803)
(-0.0121617 -0.0363023 0.273246)
(-0.0264851 -0.038128 0.238238)
(-0.0400666 -0.0397518 0.21678)
(-0.032823 0.0279892 -0.00257343)
(-0.0302436 0.0222542 -0.0015165)
(-0.0259808 0.0193737 -0.000717728)
(-0.0237055 0.0183886 -8.33948e-05)
(-0.0220998 0.0174912 0.000463403)
(-0.0204542 0.016148 0.000908186)
(-0.0198519 0.0152326 0.00132541)
(-0.0189392 0.0139209 0.00150914)
(-0.0346519 0.0183915 -0.00307058)
(-0.0315947 0.0114938 -0.00193724)
(-0.0290453 0.0117284 -0.00123801)
(-0.0266202 0.0118857 -0.000841788)
(-0.0239001 0.0111861 -0.00044387)
(-0.0229472 0.0109007 -0.000184159)
(-0.0214898 0.0102281 3.43688e-05)
(-0.0207742 0.00973673 0.000234325)
(-0.0308414 0.00624128 -0.00227175)
(-0.0298246 0.00448685 -0.00173418)
(-0.0288347 0.00617353 -0.00137391)
(-0.0249817 0.00603208 -0.00102512)
(-0.023522 0.00588773 -0.000818008)
(-0.0211392 0.00527961 -0.000704544)
(-0.0207572 0.00524457 -0.000656742)
(-0.0188705 0.00478305 -0.000564926)
(-0.0312538 0.000391965 -0.000987866)
(-0.0316368 0.000486461 -0.00194662)
(-0.0309177 0.000641188 -0.00181667)
(-0.0245882 0.000347903 -0.00137403)
(-0.0253585 0.000162243 -0.00121208)
(-0.0220675 0.000101908 -0.00115533)
(-0.021973 0.000108495 -0.00131829)
(-0.0190994 0.000111947 -0.00116671)
(-0.027631 -0.0040866 -0.00144657)
(-0.0306776 -0.00324107 -0.00124291)
(-0.0280115 -0.00455027 -0.000865385)
(-0.0254439 -0.00468237 -0.000672957)
(-0.0234103 -0.00468788 -0.000535411)
(-0.0217556 -0.00456518 -0.000536854)
(-0.0215595 -0.00476536 -0.000604893)
(-0.0194494 -0.00436683 -0.000510414)
(-0.0366302 -0.0151853 -0.00219512)
(-0.0325913 -0.00960457 -0.00132873)
(-0.0312098 -0.0108787 -0.000781159)
(-0.0278297 -0.01074 -0.000364535)
(-0.0262269 -0.0106314 -5.59274e-05)
(-0.0245889 -0.0102607 0.000178343)
(-0.0236436 -0.0101955 0.000383414)
(-0.0226572 -0.00989868 0.000506884)
(-0.0333804 -0.0245078 -0.00134732)
(-0.0312959 -0.0198716 -0.000576558)
(-0.0272898 -0.0176656 -9.46249e-06)
(-0.026084 -0.0172948 0.000548109)
(-0.0242974 -0.0163498 0.00088466)
(-0.023181 -0.0157519 0.00111728)
(-0.0222563 -0.0153386 0.00127678)
(-0.0213886 -0.0148781 0.00126642)
(-0.0240068 0.0173222 0.00947404)
(-0.0243769 0.0174558 0.011318)
(-0.0249067 0.0177424 0.0125651)
(-0.0253798 0.0180128 0.013183)
(-0.0256835 0.0181458 0.0131669)
(-0.0257738 0.0180951 0.0126199)
(-0.0256455 0.0178534 0.0116507)
(-0.0252843 0.0174116 0.0103233)
(-0.025297 0.0124326 0.00745448)
(-0.0261967 0.0121087 0.00874807)
(-0.0269932 0.0122175 0.0103992)
(-0.0277345 0.0124381 0.0113012)
(-0.0282576 0.0126043 0.0116532)
(-0.0285005 0.0126539 0.0114146)
(-0.0284211 0.0125478 0.0107168)
(-0.0280231 0.0122749 0.00966766)
(-0.0246616 0.00695451 0.00822185)
(-0.0265496 0.00631043 0.00684689)
(-0.0277191 0.00624495 0.00781432)
(-0.0287406 0.00632918 0.00842031)
(-0.029477 0.00643806 0.00848812)
(-0.0298117 0.00650858 0.00808289)
(-0.029741 0.0065146 0.00738691)
(-0.0292394 0.00643154 0.00652831)
(-0.024101 0.00328556 0.0122626)
(-0.0268507 0.00145908 0.00622064)
(-0.0282328 0.000735625 0.00594902)
(-0.0293369 0.000419057 0.00597337)
(-0.0301395 0.000241983 0.00563131)
(-0.0304753 0.000129414 0.0047363)
(-0.0303643 5.75624e-05 0.00358593)
(-0.0297543 9.12818e-06 0.00249964)
(-0.027937 -0.00291972 0.010823)
(-0.0286524 -0.00451055 0.00794011)
(-0.0291851 -0.00532542 0.00834352)
(-0.0298357 -0.00582686 0.00859847)
(-0.0303191 -0.006192 0.00844238)
(-0.030484 -0.00644022 0.00785055)
(-0.03028 -0.00656622 0.00699196)
(-0.0296674 -0.00655923 0.00610804)
(-0.0290919 -0.0117411 0.00967717)
(-0.0289486 -0.0120476 0.0100852)
(-0.0291467 -0.0123561 0.0112509)
(-0.0294447 -0.0126779 0.0119145)
(-0.0296426 -0.0129354 0.0120357)
(-0.0296136 -0.0130587 0.0116459)
(-0.0293148 -0.0130178 0.0108374)
(-0.0287206 -0.0127911 0.00966592)
(-0.0274488 -0.0185275 0.011418)
(-0.0270792 -0.0186739 0.0127405)
(-0.0270797 -0.018893 0.0136193)
(-0.027153 -0.0190965 0.0139619)
(-0.0271288 -0.0191842 0.0136689)
(-0.0269608 -0.0191291 0.0129047)
(-0.0266117 -0.0189067 0.0117765)
(-0.0260619 -0.0184998 0.0103559)
(-0.0274441 0.0232675 0.0417882)
(-0.0302448 0.024847 0.0391694)
(-0.032783 0.0263205 0.0358932)
(-0.0348873 0.0275115 0.0317248)
(-0.0364997 0.0283739 0.0267977)
(-0.0376177 0.0289034 0.0213433)
(-0.03823 0.0290875 0.0156666)
(-0.0382759 0.0288736 0.0101641)
(-0.0284222 0.0177665 0.0449107)
(-0.032697 0.0184003 0.0410211)
(-0.0361155 0.0192076 0.0377822)
(-0.0389648 0.0199967 0.0337502)
(-0.0411913 0.020619 0.0287913)
(-0.0427554 0.0210033 0.0230971)
(-0.0436235 0.0211077 0.0170158)
(-0.0437168 0.0208811 0.0110343)
(-0.0288951 0.0113417 0.0509013)
(-0.034202 0.0106151 0.0423117)
(-0.0382676 0.0106831 0.038403)
(-0.0416013 0.0110051 0.0343927)
(-0.0442594 0.0113566 0.0294524)
(-0.0461507 0.0116184 0.0236441)
(-0.0472069 0.0117265 0.0173365)
(-0.0473324 0.0116298 0.0110797)
(-0.0302134 0.00478495 0.0571479)
(-0.035395 0.0021724 0.0432307)
(-0.0394748 0.00116534 0.0383443)
(-0.0428411 0.000717705 0.0342504)
(-0.0455819 0.000478477 0.0293262)
(-0.0475643 0.000332987 0.0234748)
(-0.0486834 0.000238495 0.0170687)
(-0.0488334 0.000171782 0.0106933)
(-0.0333564 -0.00482822 0.053979)
(-0.0369027 -0.00761231 0.0424918)
(-0.0400991 -0.0090592 0.038132)
(-0.0429135 -0.0100069 0.0341595)
(-0.045235 -0.0107271 0.0293017)
(-0.0469057 -0.0112327 0.0235452)
(-0.0478087 -0.0115087 0.017268)
(-0.0478224 -0.0115322 0.0110367)
(-0.0340421 -0.0159961 0.046234)
(-0.0365214 -0.0177642 0.0407413)
(-0.0388882 -0.0189718 0.0374078)
(-0.0410137 -0.0199834 0.03353)
(-0.0427349 -0.0207663 0.0286996)
(-0.0439311 -0.0212646 0.0230858)
(-0.0445228 -0.0214473 0.0170587)
(-0.0444044 -0.0212737 0.0111184)
(-0.0325629 -0.024389 0.0416247)
(-0.0340123 -0.0260709 0.0387646)
(-0.0356057 -0.0274896 0.035671)
(-0.0370272 -0.02862 0.0316712)
(-0.0381276 -0.0294294 0.0268436)
(-0.0388506 -0.0299174 0.0214528)
(-0.0391528 -0.0300729 0.0158302)
(-0.0389489 -0.0298403 0.0103805)
(-0.0411668 0.035392 0.0996908)
(-0.0470649 0.0395796 0.0939045)
(-0.0525554 0.0434701 0.0874961)
(-0.0572154 0.0466741 0.0802157)
(-0.0606833 0.0489519 0.0721244)
(-0.0626246 0.0500708 0.0632681)
(-0.0626467 0.0497391 0.0535281)
(-0.0603314 0.0476432 0.0425313)
(-0.0414242 0.0249521 0.105578)
(-0.0499546 0.0275994 0.0981006)
(-0.0572335 0.0303143 0.0914249)
(-0.0635796 0.0327303 0.0840378)
(-0.0685424 0.0345422 0.0757012)
(-0.071615 0.0355014 0.0664122)
(-0.07221 0.0353299 0.0560381)
(-0.0697202 0.0337408 0.044131)
(-0.0410076 0.014215 0.113507)
(-0.0514509 0.0147758 0.101295)
(-0.0600596 0.0159545 0.0937458)
(-0.0675008 0.0171769 0.0862232)
(-0.073472 0.0181509 0.0777743)
(-0.0773186 0.0186766 0.0682464)
(-0.0783034 0.0185747 0.0574748)
(-0.0756761 0.0176729 0.0449594)
(-0.0415386 0.00388914 0.12061)
(-0.0523577 0.00163818 0.103027)
(-0.0613796 0.000893673 0.0943959)
(-0.0690978 0.000583448 0.0867105)
(-0.0753613 0.000418127 0.0782242)
(-0.0794497 0.000317426 0.0686144)
(-0.0805493 0.00025127 0.0576906)
(-0.0778506 0.000201321 0.0449391)
(-0.0436811 -0.00880493 0.117013)
(-0.0531554 -0.0123015 0.101498)
(-0.0613445 -0.0145292 0.0933377)
(-0.0684429 -0.0162188 0.085823)
(-0.0741934 -0.0174673 0.0774732)
(-0.0778921 -0.0181719 0.0680263)
(-0.0787669 -0.0181939 0.0573108)
(-0.0760557 -0.0173874 0.0448381)
(-0.0448228 -0.0229002 0.107167)
(-0.0524778 -0.026689 0.0975647)
(-0.0591468 -0.0297896 0.0906571)
(-0.065016 -0.0324144 0.0834362)
(-0.0696575 -0.034364 0.075286)
(-0.0724972 -0.0354095 0.0661386)
(-0.0729169 -0.0352954 0.0558696)
(-0.0702953 -0.0337529 0.0440485)
(-0.0445775 -0.0353115 0.0991179)
(-0.0496387 -0.0398026 0.0928678)
(-0.0544863 -0.0437823 0.0866602)
(-0.0587122 -0.0470288 0.0796459)
(-0.0618657 -0.049312 0.071767)
(-0.0635664 -0.0504214 0.0630714)
(-0.0634034 -0.0500829 0.0534614)
(-0.060945 -0.0479909 0.042581)
(-0.0501773 0.0423178 0.205292)
(-0.0570633 0.0477678 0.196285)
(-0.064299 0.0533323 0.183476)
(-0.0714353 0.0587451 0.165138)
(-0.0783004 0.0640014 0.139943)
(-0.0853921 0.0695517 0.107144)
(-0.0934888 0.0759536 0.066894)
(-0.100337 0.0811973 0.0209592)
(-0.0507799 0.0288654 0.212064)
(-0.060425 0.0325643 0.202649)
(-0.0695837 0.0365646 0.191044)
(-0.0786588 0.0405891 0.17429)
(-0.0874228 0.0444852 0.150263)
(-0.096445 0.048486 0.117529)
(-0.106858 0.053059 0.0757513)
(-0.116028 0.0568869 0.0265372)
(-0.0499964 0.0151534 0.219777)
(-0.0618922 0.0166521 0.207041)
(-0.0725848 0.0186763 0.195424)
(-0.0829601 0.0208308 0.17959)
(-0.0929979 0.0229312 0.156503)
(-0.103284 0.0250479 0.124076)
(-0.115173 0.0274348 0.0815029)
(-0.125838 0.0294272 0.0302194)
(-0.0494439 0.0019683 0.226244)
(-0.0623152 0.000363421 0.209283)
(-0.0736768 7.48638e-06 0.196928)
(-0.0844839 -5.74468e-05 0.181242)
(-0.0949599 -3.3071e-05 0.158493)
(-0.105678 2.64763e-05 0.126238)
(-0.118056 9.3853e-05 0.0834462)
(-0.129216 0.000146751 0.0314681)
(-0.0505063 -0.0124855 0.22323)
(-0.0623456 -0.0159848 0.207498)
(-0.0730607 -0.0185343 0.195148)
(-0.0833481 -0.0208147 0.179176)
(-0.0933395 -0.0229211 0.156137)
(-0.103587 -0.0249887 0.123817)
(-0.115433 -0.027303 0.081368)
(-0.126053 -0.0292255 0.0301951)
(-0.0513697 -0.0278974 0.214162)
(-0.0611493 -0.0325114 0.202552)
(-0.0702279 -0.036733 0.190408)
(-0.0791825 -0.040809 0.173628)
(-0.0878774 -0.0446758 0.149738)
(-0.0968466 -0.0485972 0.117193)
(-0.107218 -0.053071 0.075622)
(-0.116351 -0.0568027 0.0265881)
(-0.0511201 -0.0420835 0.205359)
(-0.0578731 -0.0479049 0.195557)
(-0.064934 -0.0535892 0.182679)
(-0.0719789 -0.0590308 0.164496)
(-0.0787872 -0.0642476 0.139515)
(-0.0858434 -0.0697243 0.106948)
(-0.093922 -0.0760415 0.0669355)
(-0.100753 -0.0812014 0.0212076)
(0.029747 -0.0234892 -0.00127005)
(0.0283404 -0.0178953 -0.000476272)
(0.0246987 -0.0166979 0.000102082)
(0.0217884 -0.0155722 0.000567145)
(0.0206802 -0.0154303 0.000999486)
(0.0201724 -0.0140584 0.00141694)
(0.0190506 -0.0128568 0.00177189)
(0.0189052 -0.0124475 0.00209201)
(0.0213683 -0.00986503 -0.00182028)
(0.0261288 -0.00940819 -0.00164425)
(0.0205522 -0.00745516 -0.0014236)
(0.0182674 -0.00684776 -0.00130804)
(0.0155964 -0.00665197 -0.00122279)
(0.0147922 -0.00497477 -0.00122619)
(0.0122648 -0.00423485 -0.00104387)
(0.0118114 -0.00464031 -0.00102851)
(0.0399495 -0.00688992 -0.00832294)
(0.0354171 -0.00676855 -0.00993073)
(0.03127 -0.00533921 -0.0100119)
(0.0280498 -0.00461614 -0.00977061)
(0.0254508 -0.00431274 -0.00959509)
(0.0235348 -0.00300026 -0.00952382)
(0.0215874 -0.00307322 -0.00951023)
(0.0196296 -0.00342212 -0.00952972)
(0.0435448 0.00010436 -0.00906084)
(0.037473 0.00051598 -0.0115023)
(0.0318748 0.00058644 -0.0112705)
(0.0280419 0.000455515 -0.0103753)
(0.0252789 0.000370078 -0.00979848)
(0.0231773 0.00036223 -0.00934654)
(0.02144 0.000323224 -0.00899559)
(0.0197809 0.000290515 -0.00870133)
(0.0410844 0.00920701 -0.00935952)
(0.0357555 0.0091598 -0.0107472)
(0.0305418 0.00728569 -0.0106594)
(0.027331 0.00499229 -0.0104213)
(0.0249221 0.0038846 -0.0102044)
(0.0229021 0.00307474 -0.0100719)
(0.0211361 0.00261585 -0.0100344)
(0.019382 0.0025342 -0.0100181)
(0.0236984 0.0131106 -0.00258715)
(0.0262738 0.0129448 -0.0024306)
(0.0198406 0.0104014 -0.00203901)
(0.0171646 0.00732799 -0.00177777)
(0.0150282 0.0057866 -0.00159699)
(0.0130961 0.00470405 -0.00155418)
(0.0119541 0.0041099 -0.00162368)
(0.00976468 0.00295694 -0.00144109)
(0.0249345 0.0266403 -0.002117)
(0.0233708 0.021632 -0.00125482)
(0.0200123 0.018676 -0.000503916)
(0.0186525 0.016121 0.000105138)
(0.0174907 0.0145499 0.00070148)
(0.01656 0.0132931 0.00126347)
(0.015478 0.0118418 0.00179868)
(0.0153514 0.0107485 0.00240306)
(0.0250654 -0.0223736 0.00952597)
(0.0247773 -0.0217742 0.0108077)
(0.0248543 -0.0215479 0.0115498)
(0.024973 -0.0214606 0.0117856)
(0.0250136 -0.0213809 0.0115009)
(0.0248941 -0.0212163 0.0107846)
(0.02457 -0.0209466 0.00975733)
(0.0240303 -0.0205443 0.00848279)
(0.0274407 -0.0170328 0.00723107)
(0.026957 -0.0162339 0.00721585)
(0.0268832 -0.0158917 0.00769295)
(0.0269848 -0.0158645 0.00779655)
(0.0269948 -0.0159483 0.00733876)
(0.0268137 -0.0160075 0.00645855)
(0.0263609 -0.0159918 0.00531335)
(0.0256243 -0.0158502 0.00405145)
(0.0290127 -0.00783576 0.0118993)
(0.0280837 -0.00802781 0.00638186)
(0.0277835 -0.0080268 0.00635515)
(0.027889 -0.00812054 0.00653694)
(0.0279402 -0.0082995 0.00620161)
(0.0277584 -0.00849273 0.00532222)
(0.0272535 -0.00867194 0.00404945)
(0.0263894 -0.00880397 0.00252805)
(0.0274653 0.00342077 0.0166655)
(0.0272215 0.00179124 0.00648378)
(0.0270437 0.0010722 0.0060059)
(0.0272914 0.000766518 0.00655847)
(0.0274256 0.000581741 0.00645605)
(0.0272499 0.000435945 0.00581714)
(0.0266616 0.00030709 0.00472702)
(0.0256182 0.000190088 0.00332782)
(0.0248943 0.0113786 0.010008)
(0.0253723 0.00999475 0.00546904)
(0.0256033 0.0093627 0.00549982)
(0.0261004 0.00912812 0.00568195)
(0.0264525 0.00907235 0.00539017)
(0.026495 0.0090683 0.00459356)
(0.0261625 0.00906523 0.00339817)
(0.0254277 0.00903943 0.00193375)
(0.0232596 0.0177626 0.00587854)
(0.0236794 0.016557 0.00610822)
(0.0240744 0.016103 0.00653843)
(0.0246018 0.0159807 0.00668038)
(0.0249654 0.0159731 0.00637283)
(0.025054 0.0159578 0.00559263)
(0.0248336 0.0158743 0.00445489)
(0.0242699 0.0156675 0.00320637)
(0.0208862 0.0215427 0.00821996)
(0.0212881 0.0208845 0.00980407)
(0.0219071 0.0206679 0.0108798)
(0.0224888 0.0205898 0.0113692)
(0.0228907 0.0205058 0.0112649)
(0.0230641 0.0203398 0.0106473)
(0.0229882 0.0200554 0.00966786)
(0.0226547 0.0196299 0.00841599)
(0.0307883 -0.0242245 0.0395909)
(0.0323191 -0.0260669 0.0366835)
(0.0340005 -0.027685 0.0335545)
(0.0355103 -0.0290249 0.029517)
(0.0366816 -0.0300421 0.0246829)
(0.037461 -0.0307295 0.0193086)
(0.0378044 -0.0310713 0.0137188)
(0.0376312 -0.0310122 0.00831877)
(0.0320355 -0.0156565 0.0443219)
(0.0344236 -0.0175301 0.0379236)
(0.0368019 -0.0189178 0.0344134)
(0.0390098 -0.0201124 0.0303703)
(0.0408173 -0.0210756 0.0253756)
(0.0420958 -0.0217581 0.0196204)
(0.0427638 -0.0221309 0.0134827)
(0.0427236 -0.0221528 0.0074682)
(0.0307972 -0.0029261 0.0559201)
(0.0344648 -0.00638592 0.0395817)
(0.0375293 -0.00826491 0.0347379)
(0.0403381 -0.00939196 0.0306166)
(0.042675 -0.0102191 0.0255666)
(0.04435 -0.0108146 0.019576)
(0.0452551 -0.0111967 0.0130409)
(0.0452956 -0.0113668 0.00654776)
(0.0243354 0.00595732 0.064474)
(0.0312437 0.00280614 0.0408359)
(0.0356189 0.00158865 0.0349477)
(0.0391106 0.00105137 0.0307886)
(0.041909 0.000729247 0.0257673)
(0.0438697 0.000498531 0.0197419)
(0.044897 0.000323529 0.013093)
(0.04492 0.00018741 0.0064242)
(0.0243487 0.0106105 0.0524723)
(0.030591 0.0100659 0.0393816)
(0.0347942 0.010406 0.034861)
(0.0383045 0.0108618 0.030598)
(0.0411178 0.0112608 0.025418)
(0.0431284 0.0115344 0.0193576)
(0.0442797 0.0116646 0.0127869)
(0.0445061 0.0116347 0.00627049)
(0.0250473 0.0175586 0.0430828)
(0.029528 0.0183363 0.038178)
(0.0330889 0.0194098 0.034591)
(0.0361285 0.0204326 0.0303112)
(0.0385371 0.0212535 0.0251587)
(0.0402701 0.0218176 0.0193141)
(0.0412943 0.0220934 0.0131197)
(0.0415394 0.0220345 0.00706463)
(0.0245227 0.0230768 0.0398184)
(0.0275768 0.0248714 0.0370289)
(0.0303153 0.0265881 0.0336504)
(0.0325859 0.0280107 0.0294244)
(0.0343351 0.0290934 0.0244812)
(0.0355667 0.0298311 0.0190358)
(0.0362686 0.0302078 0.0133879)
(0.036387 0.0301707 0.00793555)
(0.0426445 -0.032648 0.0985298)
(0.0479233 -0.0379347 0.0921125)
(0.0530027 -0.0425019 0.0857982)
(0.0574667 -0.0462017 0.0786492)
(0.0608172 -0.0488333 0.070643)
(0.0626798 -0.0502121 0.0618293)
(0.0626432 -0.0500796 0.0521017)
(0.0602751 -0.0481432 0.0410951)
(0.041602 -0.019397 0.107648)
(0.0496649 -0.0243963 0.0966845)
(0.0567253 -0.0282686 0.0894964)
(0.0630261 -0.0314406 0.0820403)
(0.0680432 -0.0337936 0.0736459)
(0.0711894 -0.0351415 0.0642561)
(0.0718499 -0.0352542 0.0537418)
(0.069401 -0.0338775 0.0416577)
(0.037799 -0.00370145 0.122552)
(0.048813 -0.00943057 0.101184)
(0.0577637 -0.0128114 0.0922545)
(0.065552 -0.0151001 0.0844817)
(0.071901 -0.0167307 0.0758929)
(0.0760821 -0.0177003 0.0662025)
(0.0773358 -0.0179181 0.0552392)
(0.0749078 -0.0172637 0.0424973)
(0.0299305 0.00515774 0.131869)
(0.045283 0.00218377 0.103567)
(0.0560648 0.00124299 0.0935401)
(0.0649445 0.000839714 0.0855395)
(0.0721355 0.000596576 0.0768157)
(0.0769089 0.000427204 0.0669589)
(0.078494 0.00030573 0.0557726)
(0.0761285 0.000215268 0.0427208)
(0.0332605 0.0104292 0.118599)
(0.0461778 0.0124264 0.101153)
(0.0558335 0.0145631 0.0927622)
(0.0641482 0.0163368 0.084894)
(0.0708479 0.0176331 0.0761594)
(0.0752656 0.018353 0.0663655)
(0.0766902 0.0183798 0.0553334)
(0.0743868 0.0175739 0.0425381)
(0.0371614 0.0215222 0.106141)
(0.0464429 0.0253092 0.0974452)
(0.0542612 0.0288576 0.0903585)
(0.0611474 0.0318696 0.0826455)
(0.0665678 0.0340946 0.0740189)
(0.0700133 0.0353435 0.0644626)
(0.0709008 0.0353761 0.0538248)
(0.0686231 0.0339278 0.0416353)
(0.0384981 0.0325815 0.0994034)
(0.0447721 0.0375951 0.0933401)
(0.0505953 0.0421399 0.086729)
(0.0555566 0.0458324 0.0792694)
(0.0592731 0.0484766 0.0710291)
(0.061417 0.0498732 0.0620402)
(0.0615969 0.0497497 0.0521694)
(0.0593978 0.0478099 0.0410323)
(0.0489395 -0.0388294 0.206334)
(0.0559678 -0.0454608 0.196399)
(0.0633249 -0.0517109 0.183417)
(0.0706788 -0.0575468 0.165038)
(0.0777689 -0.0630316 0.139782)
(0.0850805 -0.0686897 0.10687)
(0.0933876 -0.075137 0.0664647)
(0.100442 -0.0804227 0.0203666)
(0.0476593 -0.0238415 0.216339)
(0.0579658 -0.0297304 0.203607)
(0.0675116 -0.0346798 0.19123)
(0.0769746 -0.0392358 0.174201)
(0.0861231 -0.0434157 0.149959)
(0.0954803 -0.0475395 0.116945)
(0.106188 -0.0521527 0.0748037)
(0.115658 -0.0560199 0.0252011)
(0.0440238 -0.00716101 0.229743)
(0.0575403 -0.0129233 0.209323)
(0.0691047 -0.0165241 0.196284)
(0.0801679 -0.0193096 0.179997)
(0.090859 -0.021683 0.156572)
(0.101692 -0.0238823 0.123723)
(0.11404 -0.0262577 0.0805992)
(0.125166 -0.0282297 0.0287321)
(0.0373214 0.00276499 0.237286)
(0.0549303 0.000692462 0.212109)
(0.0681033 0.000225641 0.19843)
(0.0802827 0.000113055 0.182222)
(0.0918973 9.41386e-05 0.15893)
(0.103518 0.000116522 0.125979)
(0.116646 0.000155569 0.082349)
(0.128525 0.00018585 0.0295714)
(0.0424369 0.0105005 0.225762)
(0.0565676 0.0137541 0.209162)
(0.0682602 0.01679 0.196781)
(0.0795456 0.0194606 0.180528)
(0.0903591 0.0218038 0.156995)
(0.101277 0.0240158 0.124008)
(0.113697 0.0264319 0.0807386)
(0.124888 0.0284508 0.0287445)
(0.0468217 0.0249502 0.214434)
(0.0570531 0.0297831 0.204062)
(0.0667018 0.0345656 0.192066)
(0.0763047 0.0391014 0.174941)
(0.0855372 0.04331 0.150493)
(0.0949602 0.0474977 0.117255)
(0.105717 0.0521913 0.0748886)
(0.115231 0.0561378 0.0250928)
(0.0477553 0.0391682 0.206683)
(0.0549904 0.0453601 0.197404)
(0.0625493 0.051486 0.184357)
(0.0700012 0.0572862 0.16575)
(0.0771588 0.0628022 0.140244)
(0.0845175 0.0685233 0.10708)
(0.0928538 0.0750465 0.0664264)
(0.0999311 0.0804114 0.0201164)
(0.0142114 0.0304928 -0.00239477)
(0.0148411 0.0269907 -0.00141585)
(0.0161241 0.0237501 -0.000711271)
(0.0149922 0.0213667 -2.75277e-05)
(0.0143176 0.0196786 0.000584096)
(0.013681 0.0189458 0.00118914)
(0.0126524 0.0175897 0.00171677)
(0.0126836 0.0169822 0.00232217)
(0.00431494 0.0262365 -0.00321791)
(0.00964288 0.0332984 -0.00382354)
(0.00930247 0.0241322 -0.00306868)
(0.00848861 0.0209283 -0.00215052)
(0.00889402 0.0197869 -0.00160642)
(0.00807858 0.0180208 -0.0012547)
(0.007829 0.0176432 -0.00108712)
(0.00753229 0.0160038 -0.000937961)
(0.000822337 0.0421419 -0.00871773)
(0.00469206 0.0399273 -0.0102963)
(0.00416565 0.0333359 -0.0100152)
(0.00424222 0.029557 -0.00939402)
(0.00500644 0.0264604 -0.00886807)
(0.00475988 0.0239118 -0.00849991)
(0.00464721 0.0216998 -0.00822519)
(0.0053322 0.0195299 -0.00793169)
(-0.00276898 0.0449563 -0.0101342)
(-0.00341644 0.0405356 -0.0114768)
(-0.00214261 0.0345749 -0.0106134)
(-0.00114229 0.0308028 -0.00970135)
(-0.000401489 0.0279056 -0.00911285)
(-3.05265e-05 0.0255166 -0.00875475)
(0.000127117 0.0233374 -0.0089579)
(0.000212764 0.0210169 -0.00920104)
(-0.0047171 0.0348986 -0.00617223)
(-0.0086023 0.0404201 -0.00954803)
(-0.00740361 0.031333 -0.00968025)
(-0.00552054 0.0286694 -0.00935638)
(-0.00448734 0.0263418 -0.00900128)
(-0.00365752 0.0242121 -0.008723)
(-0.00358269 0.0221742 -0.00850923)
(-0.00441847 0.0198562 -0.0082627)
(-0.010132 0.0310493 -0.00389723)
(-0.0114884 0.0309145 -0.00337048)
(-0.0116534 0.0255442 -0.00269056)
(-0.00972383 0.023148 -0.00222165)
(-0.0085738 0.0212242 -0.00184337)
(-0.00734855 0.0190415 -0.00149528)
(-0.00729616 0.0184108 -0.00126606)
(-0.00729992 0.0160619 -0.00104397)
(-0.0234221 0.0312158 -0.00249723)
(-0.0206423 0.028562 -0.0014887)
(-0.0191572 0.0244908 -0.000734447)
(-0.017073 0.0227053 -0.000139047)
(-0.0153995 0.0212415 0.000378145)
(-0.0138702 0.019875 0.000804323)
(-0.0133791 0.0188099 0.0012255)
(-0.0132767 0.016997 0.00149131)
(0.016133 0.024584 0.00833804)
(0.0169076 0.0241806 0.0100436)
(0.0177295 0.0241364 0.0110835)
(0.0184274 0.0241899 0.0115796)
(0.0189602 0.0241579 0.0114841)
(0.0193061 0.0239578 0.0108788)
(0.0194613 0.0235346 0.00989397)
(0.0194251 0.0228713 0.00864413)
(0.00901059 0.0251308 0.00568874)
(0.0103791 0.024858 0.00671528)
(0.0115559 0.0248786 0.00723126)
(0.0125816 0.0251581 0.00754731)
(0.0134331 0.0253234 0.00739598)
(0.0140616 0.0252181 0.00671315)
(0.0144858 0.0248076 0.00565647)
(0.0147022 0.0240605 0.00437263)