/*--------------------------------*- C++ -*----------------------------------*\
| =========                 |                                                 |
| \\      /  F ield         | OpenFOAM: The Open Source CFD Toolbox           |
|  \\    /   O peration     | Version:  plus.master.MPPICInterFoam            |
|   \\  /    A nd           | Web:      www.OpenFOAM.com                      |
|    \\/     M anipulation  |                                                 |
\*---------------------------------------------------------------------------*/
FoamFile
{
    version     2.0;
    format      ascii;
    class       surfaceScalarField;
    location    "1.8";
    object      phi;
}
// * * * * * * * * * * * * * * * * * * * * * * * * * * * * * * * * * * * * * //

dimensions      [0 3 -1 0 0 0 0];

internalField   nonuniform List<scalar> 
34319
(
-1.17785e-09
-1.1718e-09
5.63015e-07
1.48702e-09
1.47558e-09
-7.37286e-10
-1.29148e-09
5.63233e-07
1.65168e-09
-2.49597e-10
-1.38723e-09
5.63365e-07
1.78471e-09
2.52443e-10
-1.42601e-09
5.63403e-07
1.8406e-09
7.28219e-10
-1.39491e-09
5.63362e-07
1.80056e-09
1.14426e-09
-1.30322e-09
5.63227e-07
1.6746e-09
-1.18435e-09
5.63003e-07
1.44791e-09
1.51879e-09
-1.30247e-09
-7.37393e-10
5.63234e-07
1.66854e-09
-8.11782e-10
-8.06026e-10
5.63177e-07
-2.74045e-10
-8.61777e-10
5.63128e-07
2.7755e-10
-8.83359e-10
5.63105e-07
8.04161e-10
-8.60501e-10
5.63124e-07
1.26572e-09
-8.01334e-10
5.63168e-07
-7.27902e-10
5.63221e-07
1.61674e-09
-1.40107e-09
-2.55004e-10
5.63368e-07
1.80367e-09
-8.71845e-10
-2.74785e-10
5.63129e-07
-2.93278e-10
-2.88786e-10
5.62974e-07
3.01356e-10
-2.90478e-10
5.62916e-07
8.71108e-10
-2.77548e-10
5.62968e-07
1.37249e-09
-2.54416e-10
5.63118e-07
-2.2959e-10
5.63352e-07
1.75979e-09
-1.4442e-09
2.41809e-10
5.63408e-07
1.85995e-09
-8.97078e-10
2.71599e-10
5.63108e-07
-2.99331e-10
3.00951e-10
5.62917e-07
3.14915e-10
3.19423e-10
5.62848e-07
9.04164e-10
3.21787e-10
5.62911e-07
1.42465e-09
3.08187e-10
5.63096e-07
2.82926e-10
5.6339e-07
1.82992e-09
-1.41927e-09
7.15522e-10
5.63366e-07
1.82556e-09
-8.78777e-10
7.9303e-10
5.63126e-07
-2.90605e-10
8.65726e-10
5.6297e-07
3.12961e-10
9.03776e-10
5.62912e-07
8.91339e-10
8.94516e-10
5.62964e-07
1.40239e-09
8.43537e-10
5.63114e-07
7.68012e-10
5.63348e-07
1.80057e-09
-1.33714e-09
1.11967e-09
5.63231e-07
1.72175e-09
-8.26031e-10
1.24365e-09
5.63171e-07
-2.72575e-10
1.36005e-09
5.6312e-07
2.94101e-10
1.41828e-09
5.63097e-07
8.36037e-10
1.39891e-09
5.63114e-07
1.31336e-09
1.31305e-09
5.63159e-07
1.19263e-09
5.63213e-07
1.68025e-09
-1.22033e-09
5.63008e-07
1.57222e-09
1.40447e-09
-7.53364e-10
5.63223e-07
1.58295e-09
-2.52392e-10
5.63353e-07
1.74501e-09
2.62674e-10
5.63391e-07
1.81901e-09
7.54857e-10
5.63348e-07
1.79146e-09
1.18809e-09
5.63213e-07
1.67432e-09
5.62993e-07
1.51322e-09
1.51146e-09
-2.67149e-09
-2.67863e-09
5.61688e-07
3.33593e-09
3.35047e-09
-1.70018e-09
-2.90486e-09
5.61551e-07
3.65833e-09
-5.90806e-10
-3.07127e-09
5.6146e-07
3.89398e-09
5.61906e-10
-3.14085e-09
5.61423e-07
3.99287e-09
1.65325e-09
-3.09686e-09
5.61457e-07
3.92912e-09
2.58468e-09
-2.94837e-09
5.61545e-07
3.71712e-09
-2.72179e-09
5.61681e-07
3.22157e-09
3.42895e-09
-2.90355e-09
-1.70608e-09
5.61552e-07
3.65597e-09
-1.85506e-09
-1.85471e-09
5.61123e-07
-6.49609e-10
-1.95968e-09
5.60838e-07
6.03047e-10
-2.00402e-09
5.60736e-07
1.79174e-09
-1.97595e-09
5.60834e-07
2.80336e-09
-1.88096e-09
5.61114e-07
-1.73127e-09
5.61541e-07
3.52126e-09
-3.07445e-09
-5.96569e-10
5.61463e-07
3.89885e-09
-1.96478e-09
-6.51276e-10
5.6084e-07
-6.92182e-10
-6.88906e-10
5.60442e-07
6.32057e-10
-7.03576e-10
5.60302e-07
1.89238e-09
-6.92712e-10
5.60436e-07
2.97195e-09
-6.59481e-10
5.60828e-07
-6.0796e-10
5.61448e-07
3.76516e-09
-3.14993e-09
5.53498e-10
5.61427e-07
3.99844e-09
-2.01302e-09
5.99636e-10
5.60739e-07
-7.10777e-10
6.34332e-10
5.60303e-07
6.44024e-10
6.50723e-10
5.60151e-07
1.93496e-09
6.43549e-10
5.60296e-07
3.04588e-09
6.12708e-10
5.60724e-07
5.6031e-10
5.61408e-07
3.87188e-09
-3.11127e-09
1.64589e-09
5.61462e-07
3.93962e-09
-1.98845e-09
1.78756e-09
5.60837e-07
-7.02937e-10
1.89365e-09
5.60438e-07
6.33703e-10
1.94043e-09
5.60297e-07
1.90635e-09
1.91425e-09
5.60429e-07
3.00085e-09
1.82024e-09
5.6082e-07
1.66834e-09
5.61439e-07
3.81105e-09
-2.96908e-09
2.57257e-09
5.6155e-07
3.74421e-09
-1.89838e-09
2.79252e-09
5.61118e-07
-6.73121e-10
2.969e-09
5.60831e-07
5.99395e-10
3.0478e-09
5.60726e-07
1.80966e-09
3.00497e-09
5.60821e-07
2.84615e-09
2.8532e-09
5.61098e-07
2.6226e-09
5.61523e-07
3.59244e-09
-2.7443e-09
5.61686e-07
3.46004e-09
3.19792e-09
-1.74816e-09
5.61545e-07
3.5032e-09
-6.23757e-10
5.6145e-07
3.76263e-09
5.43686e-10
5.61409e-07
3.87133e-09
1.65555e-09
5.61439e-07
3.81215e-09
2.61348e-09
5.61524e-07
3.59833e-09
5.61659e-07
3.28597e-09
3.29496e-09
-6.35901e-09
-6.38589e-09
5.58494e-07
7.94681e-09
8.0001e-09
-4.06774e-09
-6.81874e-09
5.57511e-07
8.55959e-09
-1.40859e-09
-7.12072e-09
5.56915e-07
9.00142e-09
1.36948e-09
-7.2392e-09
5.5671e-07
9.17124e-09
4.01837e-09
-7.14973e-09
5.56915e-07
9.03822e-09
6.29716e-09
-6.86737e-09
5.57509e-07
8.61962e-09
-6.43603e-09
5.58493e-07
7.85659e-09
8.06011e-09
-6.79687e-09
-4.07823e-09
5.57512e-07
8.52056e-09
-4.36443e-09
-4.37187e-09
5.56229e-07
-1.51924e-09
-4.56149e-09
5.55424e-07
1.45667e-09
-4.63647e-09
5.55147e-07
4.29368e-09
-4.58407e-09
5.55423e-07
6.71547e-09
-4.41058e-09
5.56228e-07
-4.12227e-09
5.5751e-07
8.41986e-09
-7.10797e-09
-1.40894e-09
5.56919e-07
8.97892e-09
-4.55965e-09
-1.51707e-09
5.55426e-07
-1.59376e-09
-1.58677e-09
5.54497e-07
1.5083e-09
-1.61539e-09
5.54179e-07
4.46842e-09
-1.60024e-09
5.54496e-07
7.00741e-09
-1.54379e-09
5.55424e-07
-1.44512e-09
5.56914e-07
8.86137e-09
-7.23566e-09
1.37563e-09
5.56715e-07
9.15795e-09
-4.64009e-09
1.46746e-09
5.55151e-07
-1.62687e-09
1.52433e-09
5.54181e-07
1.52265e-09
1.54319e-09
5.53851e-07
4.52882e-09
1.51944e-09
5.5418e-07
7.11463e-09
1.45384e-09
5.55147e-07
1.34967e-09
5.56707e-07
9.02255e-09
-7.15225e-09
4.03263e-09
5.56922e-07
9.03305e-09
-4.59218e-09
4.31246e-09
5.55429e-07
-1.6153e-09
4.49217e-09
5.54499e-07
1.49543e-09
4.55711e-09
5.54181e-07
4.46177e-09
4.49376e-09
5.54496e-07
7.00805e-09
4.30942e-09
5.55422e-07
4.01397e-09
5.5691e-07
8.87181e-09
-6.87463e-09
6.31641e-09
5.57517e-07
8.62428e-09
-4.42349e-09
6.73659e-09
5.56234e-07
-1.56188e-09
7.03455e-09
5.55428e-07
1.42747e-09
7.14761e-09
5.55149e-07
4.27498e-09
7.04675e-09
5.55422e-07
6.70719e-09
6.75173e-09
5.56224e-07
6.31304e-09
5.57503e-07
8.42746e-09
-6.4455e-09
5.58501e-07
8.05496e-09
7.88737e-09
-4.13559e-09
5.57516e-07
8.44176e-09
-1.46347e-09
5.56918e-07
8.89279e-09
1.32365e-09
5.5671e-07
9.0589e-09
3.98143e-09
5.56912e-07
8.91613e-09
6.26887e-09
5.57504e-07
8.48506e-09
5.58485e-07
7.84409e-09
7.90787e-09
-1.49472e-08
-1.49524e-08
5.50347e-07
1.90172e-08
1.90292e-08
-9.46717e-09
-1.58831e-08
5.47627e-07
2.02659e-08
-3.24293e-09
-1.65196e-08
5.45967e-07
2.12386e-08
3.22668e-09
-1.67463e-08
5.45412e-07
2.15791e-08
9.45183e-09
-1.65207e-08
5.45979e-07
2.12401e-08
1.49387e-08
-1.58842e-08
5.47649e-07
2.02669e-08
-1.49545e-08
5.50373e-07
1.89997e-08
1.90169e-08
-1.58752e-08
-9.45774e-09
5.47631e-07
2.02415e-08
-1.00763e-08
-1.00684e-08
5.44611e-07
-3.45475e-09
-1.04471e-08
5.4274e-07
3.43194e-09
-1.05796e-08
5.42111e-07
1.00536e-08
-1.0451e-08
5.42749e-07
1.58551e-08
-1.00761e-08
5.44627e-07
-9.4703e-09
5.4765e-07
2.02304e-08
-1.65147e-08
-3.22031e-09
5.45973e-07
2.12181e-08
-1.0458e-08
-3.43268e-09
5.42743e-07
-3.58642e-09
-3.56162e-09
5.40754e-07
3.554e-09
-3.60863e-09
5.40084e-07
1.04245e-08
-3.57072e-09
5.40759e-07
1.64797e-08
-3.45047e-09
5.42753e-07
-3.24794e-09
5.45985e-07
2.11937e-08
-1.67489e-08
3.2565e-09
5.45421e-07
2.15712e-08
-1.0596e-08
3.46399e-09
5.42117e-07
-3.63773e-09
3.58957e-09
5.40087e-07
3.58816e-09
3.62787e-09
5.39404e-07
1.0544e-08
3.57541e-09
5.4009e-07
1.66916e-08
3.43655e-09
5.42122e-07
3.21719e-09
5.45425e-07
2.15169e-08
-1.6531e-08
9.48392e-09
5.45991e-07
2.12424e-08
-1.04736e-08
1.0091e-08
5.42757e-07
-3.60425e-09
1.04669e-08
5.40765e-07
3.53207e-09
1.05917e-08
5.40093e-07
1.0398e-08
1.04498e-08
5.40766e-07
1.64487e-08
1.00576e-08
5.42759e-07
9.43848e-09
5.45991e-07
2.11568e-08
-1.5901e-08
1.49718e-08
5.47663e-07
2.02728e-08
-1.01039e-08
1.58951e-08
5.44638e-07
-3.48698e-09
1.65268e-08
5.42761e-07
3.39202e-09
1.67463e-08
5.42127e-07
1.00051e-08
1.65098e-08
5.42762e-07
1.57992e-08
1.58609e-08
5.44639e-07
1.49239e-08
5.4766e-07
2.01686e-08
-1.49783e-08
5.50388e-07
1.90279e-08
1.90353e-08
-9.50181e-09
5.47663e-07
2.02729e-08
-3.28385e-09
5.45995e-07
2.12432e-08
3.17643e-09
5.45432e-07
2.15777e-08
9.39065e-09
5.45994e-07
2.12284e-08
1.48678e-08
5.47661e-07
2.02401e-08
5.50382e-07
1.89244e-08
1.898e-08
-3.8465e-08
-3.8413e-08
5.276e-07
4.98422e-08
4.97864e-08
-2.39416e-08
-3.93322e-08
5.21297e-07
5.11546e-08
-8.09695e-09
-4.00733e-08
5.17685e-07
5.2524e-08
8.18388e-09
-4.03537e-08
5.16497e-07
5.30047e-08
2.40204e-08
-4.00787e-08
5.17713e-07
5.25179e-08
3.85208e-08
-3.93443e-08
5.21349e-07
5.11542e-08
-3.84292e-08
5.27667e-07
4.98791e-08
4.97944e-08
-3.93832e-08
-2.38933e-08
5.21305e-07
5.12034e-08
-2.46094e-08
-2.45576e-08
5.15091e-07
-8.33411e-09
-2.4986e-08
5.11399e-07
8.41091e-09
-2.51445e-08
5.10175e-07
2.46772e-08
-2.4999e-08
5.11421e-07
3.94328e-08
-2.45809e-08
5.15131e-07
-2.39243e-08
5.21356e-07
5.12463e-08
-4.01197e-08
-8.04354e-09
5.17702e-07
5.25648e-08
-2.50379e-08
-8.28115e-09
5.11408e-07
-8.48388e-09
-8.42973e-09
5.07661e-07
8.54696e-09
-8.48702e-09
5.06415e-07
2.50969e-08
-8.44648e-09
5.07675e-07
4.01682e-08
-8.31402e-09
5.11432e-07
-8.09564e-09
5.17731e-07
5.26043e-08
-4.0401e-08
8.23472e-09
5.1652e-07
5.30427e-08
-2.51961e-08
8.4617e-09
5.1019e-07
-8.54153e-09
8.59926e-09
5.06421e-07
8.58783e-09
8.64139e-09
5.05166e-07
2.52408e-08
8.58136e-09
5.06427e-07
4.04377e-08
8.42664e-09
5.10199e-07
8.17688e-09
5.16529e-07
5.30711e-08
-4.01282e-08
2.4062e-08
5.17739e-07
5.25643e-08
-2.50507e-08
2.47233e-08
5.11439e-07
-8.50035e-09
2.51442e-08
5.07685e-07
8.52804e-09
2.52893e-08
5.06432e-07
2.50788e-08
2.51261e-08
5.07686e-07
4.01491e-08
2.46885e-08
5.11437e-07
2.4007e-08
5.17732e-07
5.25805e-08
-3.93942e-08
3.85518e-08
5.21378e-07
5.12032e-08
-2.46341e-08
3.94697e-08
5.15153e-07
-8.36758e-09
4.02079e-08
5.11447e-07
8.3731e-09
4.04792e-08
5.10208e-07
2.46422e-08
4.01884e-08
5.11441e-07
3.94004e-08
3.94354e-08
5.1514e-07
3.85032e-08
5.21356e-07
5.12096e-08
-3.84857e-08
5.27697e-07
4.98432e-08
4.99024e-08
-2.39798e-08
5.21378e-07
5.1273e-08
-8.14825e-09
5.17747e-07
5.26327e-08
8.12316e-09
5.16538e-07
5.31046e-08
2.39604e-08
5.17735e-07
5.26137e-08
3.84708e-08
5.21356e-07
5.12337e-08
5.27662e-07
4.98381e-08
4.98557e-08
-7.56301e-08
-7.55402e-08
1.00916e-07
1.00865e-07
4.77014e-07
-4.642e-08
-7.75006e-08
1.03631e-07
4.65963e-07
-1.5563e-08
-7.89248e-08
1.06231e-07
4.5952e-07
1.5775e-08
-7.9478e-08
1.07202e-07
4.57442e-07
4.66222e-08
-7.89779e-08
1.06278e-07
4.59547e-07
7.58132e-08
-7.76102e-08
1.03712e-07
4.66022e-07
-7.56888e-08
1.01071e-07
1.00962e-07
4.77116e-07
-7.75917e-08
-4.63244e-08
1.03727e-07
4.65966e-07
-4.77668e-08
-4.76687e-08
4.5542e-07
-1.60351e-08
-4.84698e-08
4.49194e-07
1.62309e-08
-4.87808e-08
4.47163e-07
4.7943e-08
-4.8536e-08
4.49213e-07
7.77524e-08
-4.77849e-08
4.55461e-07
-4.64719e-08
1.03845e-07
4.66036e-07
-7.90105e-08
-1.54827e-08
1.06328e-07
4.59531e-07
-4.85635e-08
-1.59651e-08
4.49199e-07
-1.63186e-08
-1.62482e-08
4.4313e-07
1.64751e-08
-1.63602e-08
4.41142e-07
4.87159e-08
-1.62893e-08
4.43139e-07
7.9154e-08
-1.60463e-08
4.49216e-07
-1.56e-08
1.06426e-07
4.59558e-07
-7.95631e-08
1.58293e-08
1.0726e-07
4.57466e-07
-4.88606e-08
1.62879e-08
4.4718e-07
-1.64225e-08
1.65373e-08
4.4115e-07
1.65591e-08
1.6618e-08
4.39169e-07
4.89956e-08
1.65227e-08
4.41144e-07
7.9695e-08
1.62547e-08
4.47167e-07
1.57709e-08
1.07385e-07
4.57448e-07
-7.90465e-08
4.66759e-08
1.06323e-07
4.59586e-07
-4.85952e-08
4.801e-08
4.4924e-07
-1.63383e-08
4.87806e-08
4.43156e-07
1.64717e-08
4.90522e-08
4.41152e-07
4.87287e-08
4.87714e-08
4.43134e-07
7.91805e-08
4.79909e-08
4.49199e-07
4.66427e-08
1.06468e-07
4.59529e-07
-7.76622e-08
7.58644e-08
1.03777e-07
4.66074e-07
-4.78322e-08
7.78083e-08
4.55494e-07
-1.60873e-08
7.92078e-08
4.49239e-07
1.62054e-08
7.97304e-08
4.4718e-07
4.79545e-08
7.9194e-08
4.49205e-07
7.77904e-08
7.7801e-08
4.55433e-07
7.58525e-08
1.03903e-07
4.65991e-07
-7.57428e-08
1.01059e-07
1.01074e-07
4.7716e-07
-4.65163e-08
1.0388e-07
4.66062e-07
-1.56435e-08
1.06467e-07
4.59579e-07
1.57133e-08
1.07395e-07
4.57464e-07
4.66094e-08
1.06454e-07
4.59543e-07
7.58444e-08
1.03909e-07
4.66001e-07
1.01118e-07
1.01157e-07
4.77078e-07
1.96104e-09
-2.16573e-10
3.4681e-07
1.49172e-11
2.37338e-09
-1.90349e-10
4.12677e-07
8.3072e-12
2.61579e-09
-1.4661e-10
4.7593e-07
3.20011e-12
2.64272e-09
-9.28873e-11
5.36487e-07
-4.76594e-12
2.41757e-09
-3.21232e-11
5.94135e-07
-1.22926e-11
1.91405e-09
3.45788e-11
6.48202e-07
-1.9456e-11
1.11635e-09
9.85606e-11
6.95537e-07
-2.53891e-11
1.58555e-10
7.09087e-07
-2.9691e-11
2.08855e-09
-2.0188e-10
4.34644e-07
2.46002e-09
-1.88731e-10
5.00619e-07
2.67139e-09
-1.54828e-10
5.63968e-07
2.67032e-09
-1.06084e-10
6.24602e-07
2.42095e-09
-4.78184e-11
6.8232e-07
1.90483e-09
1.72905e-11
7.36505e-07
1.10629e-09
8.57415e-11
7.84229e-07
1.47396e-10
7.99558e-07
2.23402e-09
-7.21439e-11
4.89563e-07
2.59434e-09
-7.55146e-11
5.56182e-07
2.78239e-09
-6.80713e-11
6.20078e-07
2.75019e-09
-5.23985e-11
6.81174e-07
2.46615e-09
-3.08519e-11
7.393e-07
1.91831e-09
-5.26071e-12
7.93894e-07
1.10517e-09
2.26474e-11
8.42165e-07
5.01465e-11
8.5852e-07
2.31496e-09
9.31003e-11
5.08237e-07
2.67696e-09
7.39422e-11
5.75165e-07
2.85775e-09
5.22486e-11
6.39324e-07
2.81315e-09
2.77162e-11
7.00645e-07
2.51414e-09
2.68334e-12
7.58971e-07
1.94992e-09
-2.13942e-11
8.13766e-07
1.11985e-09
-4.24978e-11
8.62289e-07
-5.57223e-11
8.79022e-07
2.28937e-09
2.05658e-10
4.8956e-07
2.65683e-09
1.7777e-10
5.56178e-07
2.84394e-09
1.37862e-10
6.20075e-07
2.80426e-09
8.82068e-11
6.81174e-07
2.5089e-09
3.21331e-11
7.39305e-07
1.9471e-09
-2.71973e-11
7.93906e-07
1.1161e-09
-8.37038e-11
8.42188e-07
-1.32548e-10
8.58559e-07
2.16912e-09
1.94797e-10
4.34639e-07
2.54647e-09
1.68079e-10
5.00612e-07
2.75321e-09
1.30336e-10
5.63963e-07
2.73957e-09
8.48647e-11
6.24602e-07
2.47217e-09
3.37906e-11
6.82328e-07
1.93562e-09
-2.23414e-11
7.36526e-07
1.11832e-09
-7.30332e-11
7.84268e-07
-1.2002e-10
7.99625e-07
2.01855e-09
3.46804e-07
1.73226e-13
2.41323e-09
4.1267e-07
1.32968e-12
2.63975e-09
4.75925e-07
2.49917e-12
2.65097e-09
5.36487e-07
3.60571e-12
2.41292e-09
5.94144e-07
4.69682e-12
1.90172e-09
6.48224e-07
5.99388e-12
1.10687e-09
6.9558e-07
7.82808e-12
7.09159e-07
9.9697e-12
4.20459e-09
-4.46305e-10
3.46231e-07
6.73991e-11
4.92666e-09
-3.54288e-10
4.12289e-07
4.32454e-11
5.27438e-09
-2.62256e-10
4.75841e-07
2.51732e-11
5.16957e-09
-1.73325e-10
5.36776e-07
9.89705e-12
4.57363e-09
-8.36246e-11
5.94846e-07
-1.17108e-11
3.47796e-09
9.70657e-12
6.4934e-07
-3.2324e-11
1.92157e-09
9.65383e-11
6.9707e-07
-5.26905e-11
1.74153e-10
7.10924e-07
-7.34364e-11
4.50314e-09
-4.42077e-10
4.33683e-07
5.24044e-09
-3.71985e-10
4.9992e-07
5.6012e-09
-2.91936e-10
5.63656e-07
5.48472e-09
-2.0795e-10
6.24771e-07
4.83815e-09
-1.19699e-10
6.83021e-07
3.66681e-09
-2.82495e-11
7.37734e-07
2.01858e-09
6.57934e-11
7.85928e-07
1.50068e-10
8.01608e-07
4.78697e-09
-1.9808e-10
4.8831e-07
5.55245e-09
-1.79382e-10
5.55236e-07
5.91995e-09
-1.52051e-10
6.19583e-07
5.78043e-09
-1.1893e-10
6.81238e-07
5.07846e-09
-8.02545e-11
7.39978e-07
3.82347e-09
-3.67926e-11
7.95175e-07
2.08956e-09
1.06173e-11
8.43973e-07
5.90476e-11
8.60707e-07
4.91701e-09
1.31498e-10
5.06874e-07
5.69658e-09
9.07567e-11
5.74126e-07
6.06385e-09
5.60606e-11
6.3876e-07
5.91091e-09
2.4838e-11
7.00667e-07
5.1839e-09
-2.54741e-12
7.59636e-07
3.89342e-09
-2.2361e-11
8.1506e-07
2.11989e-09
-3.56605e-11
8.64127e-07
-3.41343e-11
8.81244e-07
4.84271e-09
3.64634e-10
4.88305e-07
5.60762e-09
2.82035e-10
5.55233e-07
5.96477e-09
2.03935e-10
6.19582e-07
5.80823e-09
1.30425e-10
6.81239e-07
5.08676e-09
5.94505e-11
7.3998e-07
3.8176e-09
-9.13956e-12
7.95179e-07
2.07397e-09
-6.63488e-11
8.43979e-07
-1.07999e-10
8.60716e-07
4.57776e-09
3.5773e-10
4.33673e-07
5.30263e-09
2.70283e-10
4.99913e-07
5.64009e-09
1.93422e-10
5.63651e-07
5.49538e-09
1.23604e-10
6.24768e-07
4.82184e-09
5.64348e-11
6.83021e-07
3.63015e-09
-1.08873e-11
7.37736e-07
1.98167e-09
-6.55345e-11
7.85933e-07
-1.07695e-10
8.01614e-07
4.23623e-09
3.46221e-07
3.78379e-12
4.90857e-09
4.12278e-07
3.355e-12
5.21059e-09
4.75831e-07
1.4536e-12
5.07132e-09
5.36766e-07
-1.03555e-12
4.4537e-09
5.94838e-07
-4.65985e-12
3.35814e-09
6.49332e-07
-7.96208e-12
1.8378e-09
6.97061e-07
-1.10605e-11
7.10909e-07
-1.34872e-11
9.97228e-09
-9.38195e-10
3.44967e-07
7.4364e-11
1.14436e-08
-7.28112e-10
4.11481e-07
4.98996e-11
1.20539e-08
-5.49241e-10
4.75742e-07
2.77646e-11
1.16185e-08
-3.88454e-10
5.37588e-07
5.65577e-12
1.00499e-08
-2.37723e-10
5.96667e-07
-1.67015e-11
7.40112e-09
-9.71501e-11
6.52125e-07
-4.05945e-11
3.88527e-09
2.91083e-11
7.00622e-07
-6.62925e-11
1.03336e-10
7.14792e-07
-9.11254e-11
1.0679e-08
-9.64411e-10
4.31439e-07
1.23639e-08
-7.87673e-10
4.98284e-07
1.31492e-08
-6.13554e-10
5.62928e-07
1.27864e-08
-4.50944e-10
6.25194e-07
1.11498e-08
-2.96675e-10
6.84717e-07
8.28156e-09
-1.52886e-10
7.4066e-07
4.40924e-09
-2.57905e-11
7.89858e-07
7.47822e-11
8.06049e-07
1.12819e-08
-4.19034e-10
4.85339e-07
1.31184e-08
-3.51989e-10
5.52959e-07
1.40218e-08
-2.8382e-10
6.1835e-07
1.37025e-08
-2.16763e-10
6.81327e-07
1.20027e-08
-1.49691e-10
7.41537e-07
8.95095e-09
-8.35016e-11
7.98164e-07
4.77875e-09
-1.96468e-11
8.48147e-07
3.85482e-11
8.65531e-07
1.15033e-08
3.38204e-10
5.03634e-07
1.33964e-08
2.70859e-10
5.71609e-07
1.43386e-08
2.04093e-10
6.37332e-07
1.40297e-08
1.42525e-10
7.00623e-07
1.23025e-08
8.81905e-11
7.61135e-07
9.18221e-09
4.37055e-11
8.18063e-07
4.90676e-09
1.35508e-11
8.68381e-07
6.18335e-12
8.86194e-07
1.12908e-08
8.86391e-10
4.85336e-07
1.3122e-08
7.15844e-10
5.52957e-07
1.40163e-08
5.48332e-10
6.18347e-07
1.36855e-08
3.95403e-10
6.81322e-07
1.19747e-08
2.56649e-10
7.4153e-07
8.91706e-09
1.34817e-10
7.98155e-07
4.75212e-09
3.68332e-11
8.48132e-07
-2.43379e-11
8.65508e-07
1.068e-08
8.70836e-10
4.31436e-07
1.23538e-08
6.73862e-10
4.9828e-07
1.3125e-08
5.07266e-10
5.62923e-07
1.27463e-08
3.61029e-10
6.25184e-07
1.10965e-08
2.28866e-10
6.84701e-07
8.2237e-09
1.11317e-10
7.40636e-07
4.36189e-09
1.43436e-11
7.89825e-07
-3.93643e-11
8.05997e-07
9.94302e-09
3.44964e-07
2.5232e-11
1.13958e-08
4.11476e-07
2.06249e-11
1.19836e-08
4.75734e-07
1.6361e-11
1.15255e-08
5.37574e-07
1.21806e-11
9.94334e-09
5.96643e-07
6.1227e-12
7.30021e-09
6.52089e-07
-2.34464e-12
3.81966e-09
7.00569e-07
-1.09466e-11
7.14714e-07
-2.12795e-11
2.49555e-08
-1.93836e-09
3.40934e-07
1.25517e-11
2.95443e-08
-1.44407e-09
4.0833e-07
2.53289e-12
3.21047e-08
-1.04469e-09
4.74232e-07
-6.60144e-12
3.20942e-08
-7.05419e-10
5.38317e-07
-1.58736e-11
2.91171e-08
-4.13146e-10
6.00078e-07
-2.77933e-11
2.29644e-08
-1.66155e-10
6.5848e-07
-4.29966e-11
1.34076e-08
3.71598e-11
7.10198e-07
-5.52593e-11
1.84648e-10
7.2809e-07
-6.0471e-11
2.64426e-08
-2.03879e-09
4.25328e-07
3.1505e-08
-1.61597e-09
4.93395e-07
3.45205e-08
-1.21763e-09
5.60086e-07
3.47592e-08
-8.68465e-10
6.25115e-07
3.16714e-08
-5.63268e-10
6.87951e-07
2.49706e-08
-2.98522e-10
7.47493e-07
1.45041e-08
-7.15987e-11
8.00442e-07
1.17725e-10
8.20643e-07
2.76706e-08
-8.48117e-10
4.77678e-07
3.30289e-08
-6.85306e-10
5.46677e-07
3.63367e-08
-5.28856e-10
6.14358e-07
3.67341e-08
-3.8831e-10
6.80451e-07
3.35497e-08
-2.62046e-10
7.44422e-07
2.64349e-08
-1.48508e-10
8.05137e-07
1.52944e-08
-4.64807e-11
8.5928e-07
4.61473e-11
8.80915e-07
2.80874e-08
8.26868e-10
4.95398e-07
3.35573e-08
6.69137e-10
5.64793e-07
3.69686e-08
5.12485e-10
6.32886e-07
3.7421e-08
3.71467e-10
6.99415e-07
3.42039e-08
2.47535e-10
7.63848e-07
2.69466e-08
1.40804e-10
8.25046e-07
1.55727e-08
5.19412e-11
8.7968e-07
-1.76361e-11
9.0184e-07
2.76213e-08
2.03043e-09
4.77677e-07
3.29716e-08
1.61356e-09
5.46671e-07
3.62752e-08
1.21633e-09
6.14345e-07
3.66728e-08
8.68549e-10
6.80433e-07
3.34951e-08
5.66466e-10
7.44399e-07
2.63951e-08
3.0583e-10
8.05108e-07
1.52768e-08
8.36497e-11
8.59245e-07
-9.75886e-11
8.80871e-07
2.63676e-08
1.94875e-09
4.25327e-07
3.14227e-08
1.46052e-09
4.93385e-07
3.44371e-08
1.06385e-09
5.60065e-07
3.46826e-08
7.28094e-10
6.25083e-07
3.16107e-08
4.40528e-10
6.87908e-07
2.49344e-08
1.97046e-10
7.47438e-07
1.44953e-08
-5.493e-12
8.00375e-07
-1.63283e-10
8.2056e-07
2.48825e-08
3.40932e-07
2.37243e-11
2.9479e-08
4.0832e-07
2.07625e-11
3.20436e-08
4.7421e-07
2.01598e-11
3.20439e-08
5.38281e-07
1.85962e-11
2.90888e-08
6.00027e-07
1.4545e-11
2.29635e-08
6.58415e-07
7.43207e-12
1.34294e-08
7.10117e-07
-3.35052e-12
7.27997e-07
-1.55304e-11
6.59779e-08
-5.92898e-09
3.30829e-07
-4.52575e-11
7.95896e-08
-5.07601e-09
3.9985e-07
-4.17328e-11
8.89277e-08
-4.28332e-09
4.69223e-07
-4.40876e-11
9.18065e-08
-3.52281e-09
5.39008e-07
-4.63396e-11
8.61392e-08
-2.78575e-09
6.08587e-07
-4.43205e-11
7.0477e-08
-2.06328e-09
6.76268e-07
-3.6472e-11
4.38881e-08
-1.40099e-09
7.38239e-07
-2.44706e-11
-6.19739e-10
7.72616e-07
-8.10443e-12
6.7696e-08
-6.06236e-09
4.09029e-07
8.24871e-08
-5.41124e-09
4.78942e-07
9.3308e-08
-4.64325e-09
5.49623e-07
9.7618e-08
-3.88997e-09
6.21179e-07
9.28892e-08
-3.15041e-09
6.93063e-07
7.71515e-08
-2.40404e-09
7.63597e-07
4.88821e-08
-1.66555e-09
8.29e-07
-7.33321e-10
8.69614e-07
6.9599e-08
-2.4562e-09
4.5708e-07
8.51058e-08
-2.22272e-09
5.27979e-07
9.68259e-08
-1.92927e-09
5.99925e-07
1.0199e-07
-1.63062e-09
6.73041e-07
9.77574e-08
-1.32917e-09
7.46858e-07
8.17979e-08
-1.01802e-09
8.19739e-07
5.22321e-08
-7.06745e-10
8.879e-07
-3.11445e-10
9.32683e-07
7.02632e-08
2.47997e-09
4.73272e-07
8.60382e-08
2.2128e-09
5.4458e-07
9.80662e-08
1.89976e-09
6.17029e-07
1.03517e-07
1.58798e-09
6.90757e-07
9.94564e-08
1.27567e-09
7.65326e-07
8.34291e-08
9.56465e-10
8.39117e-07
5.34072e-08
6.4259e-10
9.08347e-07
2.53942e-10
9.54644e-07
6.95727e-08
6.08789e-09
4.57076e-07
8.50773e-08
5.40908e-09
5.27967e-07
9.6794e-08
4.62927e-09
5.99902e-07
1.01953e-07
3.87002e-09
6.73004e-07
9.77164e-08
3.122e-09
7.46806e-07
8.17533e-08
2.36441e-09
8.19671e-07
5.2185e-08
1.61645e-09
8.87819e-07
6.8197e-10
9.32602e-07
6.76461e-08
5.95924e-09
4.09022e-07
8.24272e-08
5.0955e-09
4.78922e-07
9.32459e-08
4.30359e-09
5.49586e-07
9.75578e-08
3.54493e-09
6.21119e-07
9.2832e-08
2.80219e-09
6.92976e-07
7.70954e-08
2.06532e-09
7.6348e-07
4.88242e-08
1.38459e-09
8.28853e-07
5.87483e-10
8.69453e-07
6.59056e-08
3.30818e-07
1.07059e-11
7.94905e-08
3.99829e-07
1.24495e-11
8.88267e-08
4.69185e-07
1.19089e-11
9.17226e-08
5.38947e-07
8.9905e-12
8.60754e-08
6.08498e-07
3.69756e-12
7.04258e-08
6.76144e-07
-2.8497e-12
4.38483e-08
7.38076e-07
-9.34362e-12
7.72429e-07
-1.39252e-11
1.40376e-07
-9.69582e-09
-5.81934e-11
3.01279e-07
1.77218e-07
-7.51111e-09
-6.51348e-11
3.70591e-07
2.07662e-07
-5.82638e-09
-4.77021e-11
4.44692e-07
2.26702e-07
-4.28073e-09
-2.52091e-11
5.24318e-07
2.275e-07
-2.74514e-09
-1.14268e-11
6.10562e-07
2.00273e-07
-1.18276e-09
-6.81536e-12
7.04658e-07
1.30197e-07
4.53361e-10
-2.36316e-12
8.07809e-07
2.13155e-09
3.09679e-12
9.00617e-07
1.43626e-07
-1.00436e-08
3.69604e-07
1.82751e-07
-8.20896e-09
4.40536e-07
2.16362e-07
-6.54328e-09
5.16758e-07
2.38728e-07
-5.02227e-09
5.99567e-07
2.42065e-07
-3.52564e-09
6.90481e-07
2.15166e-07
-1.96014e-09
7.91209e-07
1.409e-07
-1.7945e-10
9.03808e-07
1.60197e-09
1.01103e-06
1.46674e-07
-4.06379e-09
4.10841e-07
1.87005e-07
-3.39469e-09
4.82844e-07
2.22604e-07
-2.76298e-09
5.60562e-07
2.47201e-07
-2.17441e-09
6.45594e-07
2.52283e-07
-1.58815e-09
7.39802e-07
2.25652e-07
-9.67522e-10
8.4531e-07
1.48728e-07
-2.70813e-10
9.64831e-07
5.18053e-10
1.0825e-06
1.47854e-07
4.13684e-09
4.24597e-07
1.88651e-07
3.40252e-09
4.96993e-07
2.24945e-07
2.71942e-09
5.75262e-07
2.50317e-07
2.09084e-09
6.61113e-07
2.56013e-07
1.47416e-09
7.5653e-07
2.2947e-07
8.29151e-10
8.63798e-07
1.51499e-07
1.09171e-10
9.85875e-07
-6.76446e-10
1.10739e-06
1.46742e-07
1.01074e-08
4.10803e-07
1.87085e-07
8.22714e-09
4.82792e-07
2.22685e-07
6.5197e-09
5.60502e-07
2.47273e-07
4.96183e-09
6.45529e-07
2.52333e-07
3.43529e-09
7.39732e-07
2.25666e-07
1.8466e-09
8.45237e-07
1.48739e-07
2.17427e-11
9.64759e-07
-1.73555e-09
1.08244e-06
1.43716e-07
9.74861e-09
3.69554e-07
1.82869e-07
7.54177e-09
4.40459e-07
2.16489e-07
5.83344e-09
5.16662e-07
2.38842e-07
4.26091e-09
5.99453e-07
2.42147e-07
2.7002e-09
6.90351e-07
2.15209e-07
1.11963e-09
7.91065e-07
1.40915e-07
-5.38309e-10
9.03651e-07
-2.22469e-09
1.01088e-06
1.40443e-07
8.40175e-12
3.01246e-07
1.77297e-07
4.50798e-12
3.7053e-07
2.07738e-07
-5.05989e-12
4.44602e-07
2.26752e-07
-1.36789e-11
5.24196e-07
2.27506e-07
-1.74772e-11
6.10407e-07
2.00241e-07
-1.79391e-11
7.04472e-07
1.30155e-07
-1.6461e-11
8.07596e-07
-1.41933e-11
9.00409e-07
2.09766e-09
-1.38429e-10
3.46816e-07
-7.73041e-11
2.50946e-09
-1.26339e-10
4.12683e-07
-5.72687e-11
2.74477e-09
-9.89548e-11
4.75937e-07
-3.9999e-11
2.75785e-09
-6.41253e-11
5.36494e-07
-2.35004e-11
2.5145e-09
-2.41098e-11
5.94143e-07
-7.23751e-12
1.98822e-09
1.99315e-11
6.48209e-07
1.161e-11
1.15676e-09
6.23877e-11
6.95542e-07
3.74454e-11
9.8101e-11
7.09085e-07
6.46822e-11
2.23849e-09
-1.55699e-10
4.34656e-07
2.63026e-09
-1.47551e-10
5.00633e-07
2.84812e-09
-1.17255e-10
5.63985e-07
2.83905e-09
-7.5166e-11
6.24623e-07
2.56622e-09
-2.42026e-11
6.82344e-07
2.00947e-09
3.40783e-11
7.3653e-07
1.16213e-09
8.8949e-11
7.84252e-07
1.36406e-10
7.99573e-07
2.34608e-09
-6.01226e-11
4.89581e-07
2.72505e-09
-5.52868e-11
5.56203e-07
2.91985e-09
-4.15568e-11
6.20104e-07
2.88129e-09
-2.2406e-11
6.81205e-07
2.57975e-09
3.41548e-13
7.39334e-07
2.00386e-09
2.743e-11
7.93929e-07
1.15026e-09
5.35449e-11
8.42195e-07
7.45838e-11
8.58533e-07
2.37769e-09
8.51157e-11
5.08258e-07
2.7496e-09
8.23475e-11
5.75192e-07
2.93508e-09
6.96315e-11
6.39357e-07
2.88863e-09
5.21543e-11
7.00681e-07
2.58091e-09
3.23171e-11
7.59008e-07
2.00184e-09
1.28539e-11
8.13799e-07
1.14906e-09
-4.6122e-12
8.62309e-07
-1.73013e-11
8.79012e-07
2.30828e-09
1.93782e-10
4.89583e-07
2.67603e-09
1.84217e-10
5.56206e-07
2.86407e-09
1.49661e-10
6.20107e-07
2.82512e-09
1.04385e-10
6.81207e-07
2.52899e-09
5.20569e-11
7.39332e-07
1.96273e-09
-2.82058e-12
7.93922e-07
1.12571e-09
-5.81435e-11
8.4218e-07
-1.04323e-10
8.58504e-07
2.16452e-09
1.88043e-10
4.3466e-07
2.53988e-09
1.7523e-10
5.00639e-07
2.74842e-09
1.36067e-10
5.63991e-07
2.73748e-09
9.14279e-11
6.24626e-07
2.47241e-09
4.13382e-11
6.82342e-07
1.93619e-09
-1.24661e-11
7.3652e-07
1.11852e-09
-6.60394e-11
7.84229e-07
-1.13289e-10
7.99526e-07
2.01416e-09
3.46822e-07
-3.96566e-12
2.41857e-09
4.1269e-07
-2.09082e-12
2.65083e-09
4.75944e-07
-7.00544e-13
2.66632e-09
5.365e-07
6.32765e-13
2.43026e-09
5.94144e-07
1.80364e-12
1.91927e-09
6.48201e-07
2.88582e-12
1.11736e-09
6.95522e-07
3.99061e-12
7.09041e-07
5.24328e-12
4.45055e-09
-2.81228e-10
3.46236e-07
-1.05753e-10
5.15937e-09
-2.23957e-10
4.12297e-07
-7.51946e-11
5.48659e-09
-1.69076e-10
4.75853e-07
-5.0506e-11
5.35992e-09
-1.20555e-10
5.36791e-07
-2.64715e-11
4.73878e-09
-7.44555e-11
5.94865e-07
-3.76879e-12
3.60794e-09
-2.83548e-11
6.49361e-07
2.94392e-11
1.99898e-09
1.60418e-11
6.97095e-07
6.34384e-11
4.85558e-11
7.10953e-07
1.01052e-10
4.77868e-09
-3.18739e-10
4.33694e-07
5.54087e-09
-2.66669e-10
4.99938e-07
5.90846e-09
-2.07479e-10
5.63681e-07
5.78026e-09
-1.49503e-10
6.24804e-07
5.10062e-09
-8.9289e-11
6.83062e-07
3.8694e-09
-2.64569e-11
7.37783e-07
2.13711e-09
3.73265e-11
7.85988e-07
8.86182e-11
8.01679e-07
5.02015e-09
-1.23157e-10
4.88328e-07
5.81677e-09
-1.01861e-10
5.55261e-07
6.19692e-09
-7.90939e-11
6.19617e-07
6.04922e-09
-5.68192e-11
6.81281e-07
5.31781e-09
-3.33876e-11
7.40032e-07
4.01145e-09
-9.01568e-12
7.95241e-07
2.20158e-09
1.43586e-11
8.44052e-07
3.01316e-11
8.608e-07
5.09013e-09
1.71658e-10
5.06895e-07
5.89723e-09
1.50124e-10
5.74153e-07
6.28033e-09
1.20165e-10
6.38795e-07
6.12818e-09
8.6907e-11
7.00711e-07
5.3851e-09
5.1019e-11
7.5969e-07
4.06061e-09
1.41665e-11
8.15125e-07
2.22677e-09
-2.09524e-11
8.64202e-07
-5.17138e-11
8.81331e-07
4.96129e-09
3.87366e-10
4.88327e-07
5.75062e-09
3.3223e-10
5.55259e-07
6.12832e-09
2.59449e-10
6.19613e-07
5.98485e-09
1.84389e-10
6.81275e-07
5.26449e-09
1.05452e-10
7.40022e-07
3.97444e-09
2.34328e-11
7.95227e-07
2.18249e-09
-5.73072e-11
8.44032e-07
-1.28035e-10
8.60775e-07
4.67041e-09
3.70942e-10
4.33694e-07
5.42644e-09
3.09041e-10
4.99936e-07
5.79598e-09
2.31408e-10
5.63676e-07
5.67656e-09
1.59421e-10
6.24796e-07
5.01353e-09
8.66798e-11
6.83049e-07
3.80744e-09
1.06158e-11
7.37763e-07
2.10712e-09
-6.23754e-11
7.85958e-07
-1.24798e-10
8.01639e-07
4.33903e-09
3.46237e-07
6.11433e-12
5.06512e-09
4.12297e-07
7.46331e-12
5.41069e-09
4.75851e-07
7.21081e-12
5.3035e-09
5.36786e-07
6.41753e-12
4.69761e-09
5.94856e-07
5.24131e-12
3.58322e-09
6.49346e-07
3.81044e-12
1.99233e-09
6.9707e-07
2.42592e-12
7.10917e-07
-1.10473e-12
1.01738e-08
-7.95061e-10
3.44973e-07
-7.19536e-11
1.1632e-08
-6.08487e-10
4.11491e-07
-5.69197e-11
1.22254e-08
-4.64534e-10
4.75756e-07
-4.29271e-11
1.17715e-08
-3.46436e-10
5.37608e-07
-2.32169e-11
1.01829e-08
-2.41949e-10
5.96692e-07
-5.46064e-13
7.50613e-09
-1.50084e-10
6.52158e-07
2.76917e-11
3.95538e-09
-7.79378e-11
7.00665e-07
5.53541e-11
-3.77994e-11
7.14853e-07
8.47912e-11
1.09123e-08
-8.5384e-10
4.31448e-07
1.26184e-08
-6.89686e-10
4.983e-07
1.34145e-08
-5.41089e-10
5.62953e-07
1.30473e-08
-4.09677e-10
6.2523e-07
1.13872e-08
-2.88052e-10
6.84766e-07
8.47086e-09
-1.7682e-10
7.40724e-07
4.51637e-09
-8.2081e-11
7.89945e-07
-1.39169e-11
8.06168e-07
1.14932e-08
-3.46717e-10
4.85349e-07
1.33605e-08
-2.83116e-10
5.52978e-07
1.42794e-08
-2.2629e-10
6.18379e-07
1.39556e-08
-1.75299e-10
6.81371e-07
1.22299e-08
-1.27761e-10
7.41599e-07
9.12947e-09
-8.45366e-11
7.98251e-07
4.88417e-09
-4.85439e-11
8.48265e-07
-2.21918e-11
8.65697e-07
1.1675e-08
3.80218e-10
5.03644e-07
1.35999e-08
3.15266e-10
5.71625e-07
1.45616e-08
2.48016e-10
6.37358e-07