/*--------------------------------*- C++ -*----------------------------------*\
| =========                 |                                                 |
| \\      /  F ield         | OpenFOAM: The Open Source CFD Toolbox           |
|  \\    /   O peration     | Version:  plus.master                           |
|   \\  /    A nd           | Web:      www.OpenFOAM.com                      |
|    \\/     M anipulation  |                                                 |
\*---------------------------------------------------------------------------*/
FoamFile
{
    version     2.0;
    format      ascii;
    class       scalarField;
    location    "6.8/lagrangian/kinematicCloud";
    object      age;
}
// * * * * * * * * * * * * * * * * * * * * * * * * * * * * * * * * * * * * * //


96597
(
6.80119
6.80117
6.80115
6.80113
6.80111
6.80109
6.80107
6.80106
6.80104
6.801
6.80098
6.80096
6.80095
6.80093
6.80091
6.80088
6.80086
6.80084
6.80083
6.80081
6.80079
6.80078
6.80076
6.80075
6.80073
6.80068
6.80067
6.80065
6.80064
6.80063
6.80061
6.8006
6.80058
6.80057
6.80056
6.80054
6.80053
6.80052
6.8005
6.80049
6.80048
6.80047
6.80045
6.80044
6.80043
6.80042
6.80041
6.80039
6.80038
6.80037
6.80036
6.80035
6.80034
6.80033
6.80032
6.8003
6.80029
6.80028
6.80027
6.80026
6.80025
6.80024
6.80023
6.80022
6.80022
6.8002
6.80018
6.80017
6.80017
6.80015
6.80015
6.80014
6.80013
6.80013
6.80012
6.80011
6.80011
6.8001
6.80009
6.80008
6.80008
6.80007
6.80007
6.80006
6.80006
6.80006
6.80005
6.80005
6.80004
6.80004
6.80004
6.80003
6.80003
6.80003
6.80002
6.80002
6.80002
6.80001
6.80001
6.80001
6.80001
6.8
6.8
6.8
6.8
6.80023
6.80021
6.80019
6.80015
6.80011
6.80008
6.80006
6.80002
6.8
6.79998
6.79997
6.79993
6.79991
6.79989
6.79986
6.79984
6.79983
6.79981
6.79979
6.79978
6.79976
6.79974
6.79973
6.79971
6.7997
6.79968
6.79967
6.79965
6.79963
6.7996
6.79959
6.79958
6.79956
6.79953
6.79952
6.79949
6.79944
6.79942
6.79941
6.7994
6.79938
6.79936
6.79934
6.79932
6.79931
6.7993
6.79929
6.79927
6.79925
6.79924
6.79922
6.7992
6.79919
6.79918
6.79917
6.79916
6.79915
6.79914
6.79913
6.79912
6.79911
6.7991
6.79909
6.79909
6.79907
6.79906
6.79905
6.79904
6.79904
6.79902
6.79901
6.799
6.799
6.79899
6.79898
6.79898
6.79897
6.79896
6.79894
6.79893
6.79892
6.79892
6.79891
6.7989
6.79889
6.79889
6.79889
6.79888
6.79887
6.79887
6.79886
6.79886
6.79886
6.79885
6.79885
6.79884
6.79884
6.79883
6.79883
6.79883
6.79883
6.79883
6.79882
6.79882
6.79882
6.79882
6.79882
6.79882
6.79881
6.79881
6.79881
6.79881
6.79881
6.79881
6.79881
6.79909
6.79907
6.79905
6.79903
6.79901
6.79899
6.79897
6.79895
6.79894
6.79892
6.7989
6.79888
6.79886
6.79884
6.79881
6.79879
6.79877
6.79875
6.79873
6.79872
6.7987
6.79868
6.79866
6.79865
6.79863
6.79861
6.7986
6.79858
6.79856
6.79855
6.79853
6.7985
6.79845
6.79843
6.79842
6.7984
6.79839
6.79837
6.79836
6.79834
6.79831
6.7983
6.79827
6.79826
6.79824
6.79823
6.79821
6.79819
6.79817
6.79816
6.79815
6.79813
6.79812
6.79809
6.79807
6.79806
6.79804
6.79803
6.79802
6.79801
6.79799
6.79797
6.79796
6.79795
6.79794
6.79793
6.79791
6.7979
6.79789
6.79788
6.79787
6.79786
6.79785
6.79784
6.79783
6.79781
6.7978
6.79779
6.79778
6.79777
6.79776
6.79775
6.79774
6.79773
6.79771
6.79769
6.79768
6.79767
6.79767
6.79766
6.79765
6.79764
6.79763
6.79762
6.79761
6.79761
6.7976
6.79759
6.79759
6.79758
6.79757
6.79757
6.79756
6.79755
6.79755
6.79754
6.79753
6.79753
6.79752
6.79752
6.79751
6.79751
6.7975
6.7975
6.79749
6.79749
6.79748
6.79748
6.79747
6.79747
6.79746
6.79746
6.79746
6.79745
6.79745
6.79744
6.79744
6.79744
6.79743
6.79742
6.79742
6.79742
6.79742
6.79741
6.79741
6.79741
6.7974
6.7974
6.7974
6.7974
6.7974
6.7974
6.79739
6.79739
6.79739
6.79739
6.79773
6.79771
6.79769
6.79767
6.79765
6.79763
6.79761
6.79759
6.79757
6.79755
6.79753
6.79751
6.79747
6.79742
6.7974
6.79738
6.79736
6.79735
6.79733
6.79731
6.79729
6.79727
6.79726
6.79724
6.79722
6.79721
6.79719
6.79717
6.79715
6.79714
6.79712
6.79709
6.79707
6.79705
6.79704
6.79702
6.79701
6.79699
6.79697
6.79696
6.79694
6.79693
6.79691
6.7969
6.79688
6.79686
6.79685
6.79683
6.79682
6.7968
6.79679
6.79678
6.79676
6.79675
6.79673
6.79672
6.79669
6.79668
6.79666
6.79663
6.79662
6.79661
6.79659
6.79658
6.79657
6.79655
6.79652
6.7965
6.79649
6.79648
6.79647
6.79645
6.79644
6.79643
6.79642
6.7964
6.79639
6.79638
6.79637
6.79636
6.79635
6.79634
6.79632
6.7963
6.79629
6.79628
6.79627
6.79625
6.79624
6.79623
6.79622
6.79621
6.79619
6.79618
6.79617
6.79615
6.79614
6.79613
6.79612
6.79611
6.7961
6.79609
6.79608
6.79607
6.79606
6.79605
6.79604
6.79603
6.79603
6.79602
6.79601
6.79599
6.79598
6.79597
6.79596
6.79596
6.79595
6.79593
6.79593
6.79591
6.79591
6.7959
6.79589
6.79589
6.79588
6.79588
6.79587
6.79586
6.79586
6.79585
6.79585
6.79584
6.79584
6.79583
6.79582
6.79582
6.79581
6.79581
6.7958
6.7958
6.79579
6.79579
6.79578
6.79578
6.79577
6.79577
6.79577
6.79576
6.79576
6.79575
6.79575
6.79575
6.79574
6.79574
6.79574
6.79573
6.79573
6.79573
6.79573
6.79572
6.79572
6.79572
6.79572
6.79571
6.79571
6.79571
6.7957
6.7957
6.7957
6.7957
6.7957
6.79569
6.79569
6.79569
6.79569
6.79569
6.79569
6.79569
6.79569
6.79569
6.79569
6.79569
6.79607
6.79605
6.79603
6.79601
6.79599
6.79597
6.79595
6.79593
6.79591
6.79587
6.79586
6.79584
6.79582
6.7958
6.79578
6.79576
6.79574
6.79572
6.79571
6.79569
6.79567
6.79565
6.79563
6.79562
6.7956
6.79558
6.79556
6.79554
6.79553
6.79551
6.79549
6.79544
6.79542
6.79541
6.79539
6.79537
6.79536
6.79534
6.79532
6.79531
6.79529
6.79527
6.79524
6.79522
6.79521
6.79519
6.79518
6.79516
6.79514
6.79513
6.79511
6.7951
6.79508
6.79507
6.79505
6.79504
6.79502
6.79501
6.79499
6.79498
6.79496
6.79493
6.7949
6.79489
6.79488
6.79486
6.79485
6.79483
6.79482
6.79481
6.79479
6.79478
6.79477
6.79475
6.79474
6.79473
6.79471
6.7947
6.79469
6.79467
6.79466
6.79465
6.79463
6.79462
6.7946
6.79458
6.79457
6.79455
6.79454
6.79452
6.7945
6.79449
6.79448
6.79446
6.79445
6.79444
6.79443
6.79442
6.79441
6.7944
6.79439
6.79437
6.79436
6.79434
6.79433
6.79432
6.7943
6.79429
6.79426
6.79425
6.79424
6.79422
6.79421
6.7942
6.79419
6.79418
6.79417
6.79416
6.79415
6.79414
6.79413
6.79412
6.79411
6.79408
6.79408
6.79407
6.79405
6.79404
6.79404
6.79403
6.79402
6.79401
6.794
6.794
6.79399
6.79398
6.79397
6.79397
6.79396
6.79395
6.79395
6.79393
6.79392
6.79391
6.7939
6.79389
6.79389
6.79388
6.79387
6.79386
6.79386
6.79385
6.79384
6.79384
6.79383
6.79383
6.79382
6.79382
6.79381
6.79381
6.7938
6.7938
6.79379
6.79379
6.79378
6.79377
6.79376
6.79376
6.79376
6.79375
6.79375
6.79374
6.79374
6.79373
6.79373
6.79373
6.79372
6.79372
6.79371
6.79371
6.79371
6.79371
6.7937
6.7937
6.79369
6.79369
6.79368
6.79368
6.79368
6.79368
6.79368
6.79367
6.79367
6.79367
6.79366
6.79366
6.79366
6.79366
6.79366
6.79366
6.79366
6.79366
6.79365
6.79365
6.79365
6.79365
6.79365
6.79365
6.79365
6.79365
6.79413
6.79411
6.79409
6.79407
6.79405
6.79403
6.79401
6.79399
6.79393
6.79391
6.79387
6.79385
6.79382
6.7938
6.79376
6.79374
6.79372
6.79367
6.79365
6.79363
6.79361
6.79359
6.79358
6.79356
6.79354
6.79352
6.7935
6.79349
6.79347
6.79345
6.79342
6.7934
6.79338
6.79336
6.79335
6.79333
6.79331
6.7933
6.79328
6.79326
6.79325
6.79323
6.79321
6.79318
6.79316
6.79315
6.79313
6.79312
6.7931
6.79307
6.79305
6.79304
6.79302
6.793
6.79299
6.79297
6.79296
6.79294
6.79293
6.7929
6.79288
6.79287
6.79285
6.79284
6.79282
6.79281
6.79279
6.79278
6.79276
6.79275
6.79273
6.79272
6.79269
6.79268
6.79266
6.79265
6.79263
6.79262
6.79261
6.79259
6.79258
6.79257
6.79255
6.79254
6.79253
6.79251
6.7925
6.79249
6.79247
6.79246
6.79243
6.79242
6.79241
6.7924
6.79238
6.79237
6.79233
6.79232
6.79231
6.7923
6.79228
6.79226
6.79225
6.79224
6.79222
6.79221
6.7922
6.79219
6.79218
6.79216
6.79214
6.79213
6.79212
6.79211
6.7921
6.79207
6.79206
6.79205
6.79202
6.79201
6.792
6.79199
6.79198
6.79196
6.79193
6.79192
6.7919
6.79189
6.79188
6.79188
6.79187
6.79186
6.79185
6.79184
6.79182
6.79181
6.7918
6.79179
6.79178
6.79177
6.79176
6.79175
6.79174
6.79173
6.79172
6.79172
6.79171
6.79169
6.79168
6.79168
6.79165
6.79165
6.79163
6.79162
6.79162
6.79161
6.79159
6.79158
6.79157
6.79155
6.79154
6.79153
6.79152
6.79151
6.79151
6.7915
6.7915
6.79149
6.79148
6.79148
6.79147
6.79147
6.79146
6.79145
6.79144
6.79144
6.79143
6.79143
6.79142
6.79141
6.79141
6.7914
6.7914
6.79139
6.79139
6.79138
6.79138
6.79137
6.79137
6.79136
6.79136
6.79135
6.79134
6.79133
6.79133
6.79133
6.79132
6.79131
6.79131
6.7913
6.7913
6.7913
6.7913
6.79129
6.79129
6.79128
6.79128
6.79128
6.79128
6.79127
6.79127
6.79127
6.79126
6.79126
6.79126
6.79126
6.79126
6.79125
6.79125
6.79125
6.79124
6.79124
6.79124
6.79124
6.79124
6.79124
6.79123
6.79123
6.79123
6.79123
6.79123
6.79123
6.79123
6.79123
6.79123
6.79123
6.79123
6.79123
6.79176
6.79174
6.79172
6.7917
6.79168
6.79164
6.79162
6.7916
6.79158
6.79156
6.79152
6.7915
6.79148
6.79146
6.79139
6.79137
6.79135
6.79127
6.79125
6.79122
6.7912
6.79118
6.79116
6.79114
6.79113
6.79111
6.79109
6.79107
6.79105
6.79104
6.791
6.79098
6.79097
6.79095
6.79093
6.79091
6.79088
6.79086
6.79084
6.79083
6.79079
6.79078
6.79076
6.79074
6.79073
6.79071
6.79069
6.79068
6.79066
6.79061
6.79059
6.79056
6.79055
6.79053
6.7905
6.79048
6.79045
6.79043
6.79042
6.7904
6.79039
6.79037
6.79036
6.79034
6.79033
6.79028
6.79024
6.79022
6.79021
6.79019
6.79018
6.79016
6.79015
6.79012
6.7901
6.79009
6.79007
6.79006
6.79005
6.79003
6.79002
6.79
6.78999
6.78998
6.78995
6.78993
6.78992
6.78989
6.78988
6.78987
6.78985
6.78983
6.78981
6.7898
6.78979
6.78977
6.78976
6.78974
6.78972
6.7897
6.78968
6.78967
6.78966
6.78965
6.78962
6.78961
6.7896
6.78957
6.78956
6.78955
6.78954
6.78951
6.7895
6.78949
6.78948
6.78946
6.78944
6.78942
6.78941
6.78939
6.78938
6.78937
6.78936
6.78934
6.78933
6.78932
6.78931
6.7893
6.78929
6.78928
6.78927
6.78926
6.78925
6.78924
6.78923
6.78922
6.78921
6.7892
6.78919
6.78918
6.78917
6.78916
6.78915
6.78914
6.78913
6.78911
6.7891
6.78909
6.78908
6.78907
6.78905
6.78904
6.78903
6.78903
6.78902
6.78901
6.789
6.78899
6.78898
6.78897
6.78896
6.78895
6.78894
6.78893
6.78892
6.78891
6.78891
6.7889
6.78889
6.78887
6.78886
6.78886
6.78885
6.78884
6.78883
6.78883
6.78882
6.78881
6.7888
6.7888
6.78879
6.78877
6.78876
6.78875
6.78875
6.78874
6.78873
6.78873
6.78872
6.78871
6.78871
6.7887
6.78869
6.78868
6.78867
6.78867
6.78865
6.78865
6.78864
6.78864
6.78863
6.78862
6.78862
6.78861
6.78861
6.7886
6.7886
6.78859
6.78858
6.78858
6.78857
6.78857
6.78856
6.78855
6.78854
6.78854
6.78853
6.78853
6.78852
6.78852
6.78851
6.78851
6.7885
6.7885
6.7885
6.78849
6.78848
6.78848
6.78847
6.78847
6.78847
6.78846
6.78846
6.78846
6.78845
6.78845
6.78844
6.78844
6.78844
6.78843
6.78843
6.78842
6.78842
6.78842
6.78841
6.78841
6.7884
6.7884
6.7884
6.78839
6.78839
6.78839
6.78838
6.78838
6.78838
6.78838
6.78837
6.78837
6.78837
6.78837
6.78837
6.78836
6.78836
6.78836
6.78836
6.78835
6.78835
6.78835
6.78835
6.78835
6.78835
6.78835
6.78834
6.78834
6.78834
6.78834
6.78834
6.78834
6.78834
6.78834
6.78833
6.78833
6.78833
6.78833
6.78833
6.78833
6.78833
6.78833
6.78833
6.78833
6.78833
6.78891
6.78889
6.78887
6.78885
6.78883
6.78881
6.78879
6.78877
6.78875
6.78873
6.78871
6.78869
6.78867
6.78865
6.78863
6.78861
6.78859
6.78857
6.78856
6.78854
6.78852
6.78848
6.78846
6.78844
6.78842
6.78841
6.78839
6.78833
6.78831
6.78829
6.78828
6.78826
6.78824
6.78822
6.7882
6.78818
6.78813
6.78811
6.7881
6.78808
6.78804
6.78802
6.78801
6.78799
6.78797
6.78795
6.78794
6.78792
6.7879
6.78788
6.78787
6.78785
6.78783
6.78782
6.7878
6.78778
6.78777
6.78775
6.78773
6.7877
6.78768
6.78767
6.78765
6.78763
6.7876
6.78758
6.78757
6.78755
6.78753
6.78752
6.7875
6.78749
6.78747
6.78745
6.78744
6.78742
6.78738
6.78736
6.78734
6.78733
6.78731
6.7873
6.78728
6.78727
6.78725
6.78724
6.78722
6.78721
6.78719
6.78718
6.78716
6.78715
6.78713
6.78712
6.7871
6.78709
6.78707
6.78706
6.78704
6.78701
6.787
6.78698
6.78697
6.78696
6.78694
6.78693
6.78691
6.7869
6.78689
6.78687
6.78686
6.78684
6.78683
6.78682
6.7868
6.78679
6.78677
6.78676
6.78673
6.78672
6.78671
6.78667
6.78665
6.78664
6.78663
6.78661
6.7866
6.78658
6.78656
6.78655
6.78654
6.78652
6.78651
6.7865
6.78649
6.78647
6.78646
6.78645
6.78644
6.78642
6.78641
6.7864
6.78639
6.78638
6.78636
6.78635
6.78634
6.78633
6.78632
6.7863
6.78627
6.78626
6.78625
6.78623
6.78622
6.78621
6.7862
6.78619
6.78618
6.78617
6.78616
6.78614
6.78613
6.78612
6.78611
6.7861
6.78609
6.78608
6.78606
6.78605
6.78603
6.78601
6.786
6.78599
6.78598
6.78597
6.78596
6.78595
6.78594
6.78593
6.78592
6.78591
6.7859
6.78589
6.78588
6.78587
6.78586
6.78585
6.78584
6.78583
6.78582
6.78581
6.78581
6.7858
6.78579
6.78578
6.78577
6.78576
6.78575
6.78574
6.78573
6.78572
6.78571
6.7857
6.7857
6.78569
6.78568
6.78567
6.78566
6.78565
6.78564
6.78563
6.78563
6.78562
6.78561
6.7856
6.78559
6.78558
6.78558
6.78557
6.78556
6.78555
6.78553
6.78551
6.7855
6.78549
6.78548
6.78547
6.78547
6.78546
6.78544
6.78544
6.78543
6.78542
6.78542
6.78541
6.7854
6.78539
6.78539
6.78538
6.78537
6.78537
6.78536
6.78535
6.78535
6.78534
6.78533
6.78533
6.78532
6.78531
6.78531
6.7853
6.7853
6.78529
6.78528
6.78528
6.78527
6.78527
6.78525
6.78525
6.78524
6.78524
6.78523
6.78522
6.78522
6.78521
6.78521
6.7852
6.7852
6.78519
6.78519
6.78518
6.78518
6.78517
6.78517
6.78516
6.78516
6.78515
6.78515
6.78514
6.78514
6.78513
6.78513
6.78512
6.78512
6.78511
6.78511
6.7851
6.7851
6.7851
6.78509
6.78509
6.78508
6.78508
6.78507
6.78507
6.78507
6.78506
6.78505
6.78505
6.78505
6.78504
6.78504
6.78503
6.78503
6.78503
6.78502
6.78502
6.78501
6.78501
6.78501
6.785
6.785
6.78499
6.78499
6.78499
6.78499
6.78498
6.78498
6.78498
6.78497
6.78497
6.78497
6.78497
6.78496
6.78496
6.78496
6.78496
6.78495
6.78495
6.78495
6.78495
6.78495
6.78494
6.78494
6.78494
6.78494
6.78494
6.78493
6.78493
6.78493
6.78493
6.78493
6.78493
6.78493
6.78492
6.78492
6.78492
6.78492
6.78492
6.78492
6.78492
6.78491
6.78491
6.78491
6.78491
6.78491
6.78491
6.78491
6.78491
6.78491
6.78491
6.78491
6.78491
6.78491
6.78491
6.78565
6.78563
6.78561
6.78557
6.78555
6.78551
6.78547
6.78545
6.78543
6.78539
6.78537
6.78535
6.78533
6.78531
6.78529
6.78526
6.78524
6.78522
6.7852
6.78518
6.78516
6.78514
6.78512
6.7851
6.78509
6.78507
6.78505
6.78503
6.78501
6.78499
6.78497
6.78494
6.78492
6.7849
6.78488
6.78486
6.78484
6.78481
6.78479
6.78477
6.78475
6.78474
6.78472
6.7847
6.78468
6.78466
6.78465
6.78463
6.78461
6.78459
6.78458
6.78456
6.78454
6.78452
6.78449
6.78444
6.78442
6.78437
6.78433
6.78432
6.7843
6.78428
6.78427
6.78425
6.78423
6.78422
6.78418
6.78417
6.78415
6.78413
6.78412
6.7841
6.78408
6.78407
6.78405
6.78402
6.784
6.78399
6.78397
6.78395
6.78394
6.78392
6.78391
6.78389
6.78387
6.78386
6.78384
6.78383
6.78381
6.78378
6.78376
6.78375
6.78373
6.78372
6.7837
6.78369
6.78367
6.78366
6.78364
6.78363
6.78361
6.7836
6.78358
6.78355
6.78354
6.78352
6.78351
6.78349
6.78348
6.78345
6.78343
6.78342
6.7834
6.78339
6.78337
6.78334
6.78333
6.78332
6.7833
6.78329
6.78327
6.78326
6.78325
6.78323
6.78322
6.7832
6.78319
6.78318
6.78316
6.78315
6.78313
6.78312
6.78311
6.78309
6.78308
6.78307
6.78305
6.78304
6.783
6.78299
6.78297
6.78296
6.78295
6.78293
6.78292
6.78291
6.78289
6.78288
6.78287
6.78284
6.78282
6.7828
6.78279
6.78278
6.78277
6.78275
6.78274
6.78273
6.7827
6.78269
6.78268
6.78267
6.78263
6.78262
6.78261
6.78259
6.78255
6.78253
6.78252
6.78251
6.78249
6.78248
6.78246
6.78245
6.78244
6.78242
6.78241
6.7824
6.78239
6.78237
6.78236
6.78235
6.78234
6.78233
6.78232
6.78231
6.7823
6.78229
6.78226
6.78225
6.78223
6.78221
6.7822
6.78219
6.78218
6.78217
6.78216
6.78215
6.78214
6.78213
6.78212
6.7821
6.78209
6.78208
6.78207
6.78205
6.78204
6.78203
6.78202
6.78201
6.782
6.78199
6.78198
6.78197
6.78196
6.78195
6.78194
6.78193
6.78192
6.78191
6.7819
6.78189
6.78188
6.78186
6.78185
6.78184
6.78183
6.78182
6.78181
6.78181
6.7818
6.78178
6.78176
6.78175
6.78174
6.78173
6.78172
6.78171
6.7817
6.78169
6.78169
6.78168
6.78167
6.78166
6.78165
6.78165
6.78164
6.78163
6.78161
6.7816
6.78159
6.78158
6.78158
6.78157
6.78156
6.78155
6.78155
6.78152
6.78152
6.7815
6.78149
6.78149
6.78148
6.78147
6.78147
6.78146
6.78145
6.78145
6.78144
6.78143
6.78143
6.78142
6.78141
6.78141
6.78139
6.78139
6.78138
6.78137
6.78136
6.78135
6.78135
6.78134
6.78134
6.78133
6.78132
6.78132
6.78131
6.78131
6.78129
6.78128
6.78127
6.78126
6.78126
6.78125
6.78125
6.78124
6.78124
6.78123
6.78123
6.78122
6.78122
6.78121
6.78121
6.7812
6.7812
6.78119
6.78118
6.78118
6.78117
6.78117
6.78116
6.78116
6.78115
6.78115
6.78114
6.78114
6.78113
6.78113
6.78112
6.78112
6.78111
6.78111
6.78111
6.7811
6.7811
6.78109
6.78109
6.78109
6.78108
6.78108
6.78107
6.78107
6.78106
6.78105
6.78105
6.78105
6.78104
6.78104
6.78104
6.78103
6.78103
6.78103
6.78102
6.78102
6.78102
6.78101
6.78101
6.78101
6.781
6.781
6.78099
6.78099
6.78099
6.78098
6.78098
6.78097
6.78097
6.78096
6.78096
6.78096
6.78096
6.78095
6.78095
6.78095
6.78095
6.78094
6.78094
6.78094
6.78094
6.78094
6.78093
6.78093
6.78093
6.78093
6.78093
6.78092
6.78092
6.78092
6.78092
6.78091
6.78091
6.78091
6.78091
6.78091
6.78091
6.78091
6.7809
6.7809
6.7809
6.7809
6.7809
6.7809
6.7809
6.7809
6.7809
6.7809
6.78089
6.78089
6.78089
6.78089
6.78089
6.78089
6.78089
6.78089
6.78089
6.78089
6.78089
6.78089
6.78089
6.78089
6.78089
6.78089
6.78181
6.78179
6.78177
6.78175
6.78173
6.78171
6.78167
6.78165
6.78163
6.78161
6.78159
6.78157
6.78155
6.78151
6.78147
6.78146
6.78144
6.78142
6.7814
6.78138
6.78136
6.78132
6.7813
6.78128
6.78126
6.78124
6.78121
6.78119
6.78117
6.78115
6.78111
6.78109
6.78108
6.78106
6.78104
6.78102
6.781
6.78098
6.78096
6.78093
6.78091
6.78089
6.78087
6.78085
6.78084
6.78082
6.7808
6.78078
6.78076
6.78073
6.78071
6.78069
6.78067
6.78066
6.78064
6.78062
6.78058
6.78057
6.78055
6.78053
6.78051
6.7805
6.78048
6.78046
6.78043
6.78041
6.78039
6.78038
6.78036
6.78034
6.78032
6.78031
6.78027
6.78026
6.78024
6.78022
6.7802
6.78019
6.78017
6.78015
6.78014
6.78012
6.7801
6.78009
6.78007
6.78005
6.78004
6.78
6.77999
6.77997
6.77995
6.77994
6.77992
6.77991
6.77989
6.77987
6.77986
6.77984
6.77982
6.77981
6.77978
6.77976
6.77974
6.77971
6.7797
6.77967
6.77965
6.77963
6.77962
6.7796
6.77959
6.77957
6.77956
6.77954
6.77952
6.77951
6.77949
6.77948
6.77946
6.77945
6.77943
6.77942
6.7794
6.77939
6.77937
6.77936
6.77934
6.77933
6.77931
6.77928
6.77927
6.77925
6.77924
6.77922
6.77921
6.77919
6.77918
6.77916
6.77915
6.77914
6.77912
6.77911
6.77909
6.77908
6.77905
6.77903
6.77901
6.77899
6.77896
6.77895
6.77894
6.77892
6.77891
6.77889
6.77888
6.77885
6.77884
6.77882
6.77881
6.7788
6.77878
6.77877
6.77876
6.77874
6.77873
6.77871
6.7787
6.77869
6.77867
6.77866
6.77865
6.77863
6.77862
6.77861
6.7786
6.77858
6.77857
6.77854
6.77852
6.7785
6.77849
6.77848
6.77847
6.77845
6.77844
6.77843
6.77841
6.7784
6.77839
6.77838
6.77835
6.77833
6.7783
6.77828
6.77826
6.77825
6.77824
6.77823
6.7782
6.77819
6.77818
6.77817
6.77816
6.77814
6.77813
6.77812
6.77811
6.77808
6.77807
6.77806
6.77805
6.77804
6.77803
6.77802
6.778
6.77799
6.77798
6.77797
6.77796
6.77795
6.77792
6.77791
6.77789
6.77788
6.77787
6.77786
6.77785
6.77784
6.77782
6.77779
6.77777
6.77775
6.77774
6.77773
6.77772
6.77771
6.77769
6.77768
6.77766
6.77765
6.77764
6.77763
6.77762
6.77761
6.7776
6.77759
6.77756
6.77755
6.77754
6.77753
6.77752
6.7775
6.77749
6.77748
6.77747
6.77746
6.77744
6.77744
6.77743
6.77741
6.7774
6.77738
6.77737
6.77736
6.77735
6.77734
6.77733
6.77732
6.77731
6.7773
6.7773
6.77729
6.77728
6.77727
6.77726
6.77725
6.77723
6.77722
6.77722
6.77721
6.7772
6.77719
6.77718
6.77717
6.77716
6.77715
6.77715
6.77713
6.77712
6.77711
6.7771
6.77709
6.77708
6.77707
6.77706
6.77706
6.77705
6.77704
6.77703
6.77702
6.77702
6.77701
6.777
6.77698
6.77698
6.77696
6.77695
6.77695
6.77694
6.77693
6.77692
6.77692
6.77691
6.77689
6.77689
6.77687
6.77686
6.77686
6.77685
6.77684
6.77684
6.77683
6.77682
6.77682
6.77681
6.7768
6.77679
6.77678
6.77677
6.77676
6.77675
6.77674
6.77673
6.77673
6.77672
6.77671
6.77671
6.7767
6.77669
6.77668
6.77668
6.77667
6.77666
6.77665
6.77665
6.77664
6.77663
6.77663
6.77662
6.77661
6.77661
6.7766
6.77659
6.77659
6.77658
6.77657
6.77657
6.77656
6.77655
6.77655
6.77654
6.77654
6.77653
6.77653
6.77652
6.77652
6.77651
6.77651
6.7765
6.7765
6.77649
6.77649
6.77648
6.77648
6.77646
6.77646
6.77645
6.77645
6.77644
6.77643
6.77642
6.77642
6.77641
6.77641
6.77641
6.7764
6.7764
6.77639
6.77639
6.77638
6.77638
6.77638
6.77637
6.77637
6.77636
6.77636
6.77636
6.77635
6.77635
6.77634
6.77634
6.77633
6.77633
6.77632
6.77632
6.77631
6.77631
6.7763
6.7763
6.7763
6.77629
6.77629
6.77629
6.77628
6.77628
6.77627
6.77627
6.77626
6.77626
6.77625
6.77625
6.77625
6.77625
6.77624
6.77624
6.77624
6.77623
6.77623
6.77623
6.77622
6.77622
6.77622
6.77621
6.77621
6.7762
6.7762
6.7762
6.77619
6.77619
6.77619
6.77619
6.77619
6.77618
6.77618
6.77618
6.77618
6.77618
6.77617
6.77617
6.77617
6.77617
6.77616
6.77616
6.77616
6.77616
6.77616
6.77616
6.77616
6.77615
6.77615
6.77615
6.77615
6.77615
6.77615
6.77615
6.77615
6.77614
6.77614
6.77614
6.77614
6.77614
6.77614
6.77614
6.77614
6.77613
6.77613
6.77613
6.77613
6.77613
6.77613
6.77613
6.77613
6.77613
6.77613
6.77613
6.77613
6.77613
6.77613
6.77613
6.77613
6.77613
6.77613
6.77613
6.777
6.77698
6.77694
6.77692
6.7769
6.77688
6.77684
6.77682
6.7768
6.77678
6.77676
6.77672
6.7767
6.77668
6.77661
6.77659
6.77655
6.77653
6.77645
6.77643
6.77641
6.77638
6.77636
6.77634
6.77632
6.7763
6.77628
6.77626
6.77624
6.77623
6.77621
6.77619
6.77617
6.77615
6.77613
6.77609
6.77608
6.77606
6.77604
6.77602
6.776
6.77598
6.77596
6.77595
6.77593
6.77591
6.77589
6.77587
6.77586
6.77584
6.77582
6.7758
6.77578
6.77576
6.77575
6.77573
6.77569
6.77568
6.77566
6.77564
6.77562
6.7756
6.77559
6.77557
6.77555
6.77553
6.77552
6.7755
6.77548
6.77545
6.77543
6.77541
6.77538
6.77536
6.77534
6.77532
6.77531
6.77529
6.77527
6.77524
6.77522
6.7752
6.77519
6.77517
6.77515
6.77514
6.77512
6.7751
6.77508
6.77507
6.77505
6.77503
6.77502
6.775
6.77498
6.77497
6.77495
6.77493
6.77492
6.77488
6.77487
6.77485
6.77484
6.77482
6.7748
6.77479
6.77477
6.77475
6.77474
6.77472
6.77471
6.77469
6.77467
6.77466
6.77464
6.77463
6.77461
6.77459
6.77458
6.77455
6.77453
6.7745
6.77448
6.77447
6.77445
6.77444
6.77442
6.7744
6.77439
6.77437
6.77436
6.77434
6.77433
6.77431
6.7743
6.77428
6.77427
6.77425
6.77424
6.77422
6.7742
6.77414
6.77413
6.77411
6.77408
6.77407
6.77405
6.77404
6.77403
6.77401
6.774
6.77398
6.77397
6.77395
6.77394
6.77392
6.77391
6.77389
6.77388
6.77386
6.77385
6.77384
6.77382
6.77381
6.77379
6.77376
6.77375
6.77374
6.77372
6.77371
6.77369
6.77368
6.77366
6.77365
6.77364
6.77362
6.77361
6.7736
6.77358
6.77357
6.77355
6.77354
6.77353
6.77351
6.7735
6.77349
6.77347
6.77346
6.77344
6.77343
6.77342
6.7734
6.77339
6.77338
6.77336
6.77335
6.77334
6.77331
6.7733
6.77328
6.77327
6.77326
6.77324
6.77323
6.77322
6.77321
6.77319
6.77318
6.77317
6.77315
6.77314
6.77312
6.77309
6.77305
6.77304
6.77303
6.77301
6.773
6.77299
6.77298
6.77296
6.77295
6.77294
6.77293
6.77292
6.7729
6.77289
6.77288
6.77285
6.77284
6.77283
6.77279
6.77277
6.77276
6.77275
6.77272
6.77271
6.7727
6.77269
6.77268
6.77266
6.77265
6.77264
6.77263
6.77262
6.77261
6.77259
6.77258
6.77257
6.77256
6.77255
6.77254
6.77253
6.77252
6.7725
6.77249
6.77248
6.77247
6.77246
6.77245
6.77244
6.77243
6.77242
6.7724
6.77239
6.77238
6.77237
6.77236
6.77235
6.77233
6.77231
6.7723
6.77228
6.77226
6.77225
6.77224
6.77223
6.77222
6.77221
6.7722
6.77219
6.77218
6.77217
6.77216
6.77215
6.77214
6.77213
6.77212
6.77211
6.7721
6.77208
6.77207
6.77206
6.77205
6.77203
6.77202
6.77201
6.772
6.77199
6.77198
6.77197
6.77196
6.77195
6.77194
6.77193
6.7719
6.7719
6.77189
6.77188
6.77187
6.77186
6.77185
6.77184
6.77183
6.77182
6.77181
6.7718
6.77179
6.77178
6.77178
6.77176
6.77175
6.77173
6.77172
6.7717
6.7717
6.77168
6.77167
6.77166
6.77165
6.77164
6.77164
6.77163
6.77162
6.77161
6.7716
6.77159
6.77158
6.77158
6.77157
6.77156
6.77155
6.77154
6.77154
6.77153
6.77151
6.7715
6.77149
6.77149
6.77147
6.77146
6.77145
6.77145
6.77144
6.77143
6.77142
6.77142
6.77141
6.7714
6.77139
6.77138
6.77137
6.77136
6.77136
6.77134
6.77133
6.77133
6.77132
6.77131
6.7713
6.7713
6.77129
6.77128
6.77128
6.77126
6.77125
6.77125
6.77124
6.77123
6.77123
6.77122
6.77121
6.77121
6.7712
6.77119
6.77119
6.77118
6.77117
6.77117
6.77116
6.77115
6.77115
6.77114
6.77113
6.77113
6.77112
6.77111
6.77111
6.77109
6.77109
6.77108
6.77108
6.77107
6.77106
6.77104
6.77104
6.77103
6.77103
6.77102
6.77101
6.77101
6.771
6.771
6.77099
6.77099
6.77098
6.77097
6.77097
6.77095
6.77095
6.77094
6.77094
6.77093
6.77092
6.77091
6.7709
6.77089
6.77089
6.77088
6.77088
6.77087
6.77086
6.77086
6.77085
6.77085
6.77084
6.77084
6.77083
6.77083
6.77082
6.77081
6.77081
6.7708
6.7708
6.77079
6.77078
6.77078
6.77078
6.77077
6.77076
6.77076
6.77075
6.77075
6.77074
6.77074
6.77073
6.77073
6.77072
6.77072
6.77072
6.77071
6.7707
6.7707
6.7707
6.77069
6.77069
6.77068
6.77068
6.77067
6.77067
6.77067
6.77066
6.77066
6.77065
6.77065
6.77064
6.77064
6.77064
6.77063
6.77063
6.77062
6.77062
6.77061
6.77061
6.7706
6.7706
6.7706
6.7706
6.77059
6.77059
6.77059
6.77058
6.77058
6.77058
6.77058
6.77057
6.77057
6.77057
6.77056
6.77056
6.77056
6.77055
6.77055
6.77055
6.77054
6.77054
6.77054
6.77053
6.77053
6.77053
6.77053
6.77052
6.77052
6.77052
6.77052
6.77052
6.77051
6.77051
6.77051
6.77051
6.77051
6.7705
6.7705
6.7705
6.7705
6.7705
6.77049
6.77049
6.77049
6.77049
6.77049
6.77048
6.77048
6.77048
6.77048
6.77048
6.77048
6.77048
6.77047
6.77047
6.77047
6.77047
6.77047
6.77047
6.77047
6.77047
6.77046
6.77046
6.77046
6.77046
6.77046
6.77046
6.77046
6.77046
6.77046
6.77046
6.77045
6.77045
6.77045
6.77045
6.77045
6.77045
6.77045
6.77045
6.77045
6.77045
6.77045
6.77045
6.77045
6.77045
6.77045
6.77045
6.77045
6.77045
6.77045
6.77045
6.77169
6.77167
6.77165
6.77163
6.77161
6.77159
6.77157
6.77155
6.77154
6.77152
6.7715
6.77148
6.77144
6.77142
6.7714
6.77138
6.77136
6.77134
6.7713
6.77128
6.77126
6.77124
6.77122
6.7712
6.77118
6.77116
6.77114
6.77112
6.77109
6.77107
6.77103
6.77101
6.77099
6.77097
6.77095
6.77093
6.77091
6.7709
6.77088
6.77086
6.77084
6.77082
6.7708
6.77074
6.77073
6.77071
6.77069
6.77067
6.77063
6.77061
6.7706
6.77058
6.77054
6.77052
6.7705
6.77048
6.77047
6.77045
6.77043
6.77041
6.77039
6.77037
6.77032
6.7703
6.77025
6.77023
6.77021
6.77019
6.77018
6.77016
6.77014
6.77012
6.7701
6.77009
6.77007
6.77005
6.77003
6.77002
6.77
6.76994
6.76993
6.76989
6.76987
6.76986
6.76984
6.76982
6.7698
6.76977
6.76973
6.76972
6.7697
6.76968
6.76965
6.76963
6.76961
6.7696
6.76958
6.76956
6.76955
6.76951
6.76949
6.76948
6.76946
6.76943
6.76941
6.76939
6.76938
6.76936
6.76934
6.76933
6.76929
6.76928
6.76926
6.76923
6.76921
6.76919
6.76916
6.76914
6.76913
6.76911
6.7691
6.76908
6.76901
6.769
6.76898
6.76897
6.76895
6.76893
6.76892
6.7689
6.76885
6.76882
6.76881
6.76879
6.76877
6.76876
6.76874
6.76873
6.76871
6.76868
6.76866
6.76863
6.76862
6.7686
6.76859
6.76857
6.76855
6.76854
6.76852
6.76851
6.76849
6.76845
6.76843
6.76842
6.7684
6.76839
6.76837
6.76836
6.76833
6.7683
6.76828
6.76827
6.76825
6.76824
6.76822
6.76821
6.76819
6.76818
6.76816
6.76815
6.76813
6.76812
6.7681
6.76809
6.76807
6.76806
6.76804
6.76803
6.76801
6.768
6.76799
6.76797
6.76796
6.76794
6.76793
6.7679
6.76787
6.76786
6.76784
6.76783
6.76781
6.7678
6.76778
6.76777
6.76776
6.76774
6.76773
6.76771
6.7677
6.76769
6.76767
6.76766
6.76764
6.76763
6.76762
6.7676
6.76759
6.76756
6.76755
6.76752
6.76751
6.76749
6.76748
6.76747
6.76745
6.76744
6.76741
6.7674
6.76739
6.76737
6.76736
6.76735
6.76733
6.76732
6.76728
6.76727
6.76725
6.76724
6.76723
6.76719
6.76717
6.76715
6.76714
6.76712
6.76711
6.7671
6.76707
6.76706
6.76705
6.76703
6.76702
6.76701
6.767
6.76698
6.76696
6.76694
6.76693
6.76691
6.76688
6.76687
6.76686
6.76685
6.76683
6.76682
6.7668
6.76678
6.76677
6.76676
6.76675
6.76674
6.76671
6.7667
6.76669
6.76668
6.76666
6.76664
6.76663
6.76662
6.7666
6.76659
6.76657
6.76655
6.76653
6.7665
6.76646
6.76645
6.76643
6.76642
6.76641
6.7664
6.76638
6.76637
6.76636
6.76635
6.76634
6.76633
6.76632
6.76631
6.7663
6.76628
6.76627
6.76626
6.76625
6.76624
6.76623
6.76621
6.76619
6.76617
6.76616
6.76614
6.76613
6.76612
6.76611
6.7661
6.76609
6.76608
6.76607
6.76604
6.76603
6.76602
6.766
6.76599
6.76598
6.76596
6.76595
6.76594
6.76593
6.76592
6.76591
6.7659
6.76589
6.76588
6.76587
6.76586
6.76585
6.76584
6.76583
6.76582
6.76581
6.7658
6.76579
6.76577
6.76576
6.76575
6.76574
6.76573
6.76572
6.76571
6.7657
6.76568
6.76567
6.76567
6.76566
6.76565
6.76563
6.76562
6.76561
6.7656
6.76559
6.76558
6.76557
6.76556
6.76555
6.76553
6.76552
6.76552
6.76551
6.7655
6.76549
6.76548
6.76547
6.76546
6.76545
6.76544
6.76543
6.76543
6.76541
6.7654
6.76539
6.76537
6.76536
6.76536
6.76535
6.76534
6.76533
6.76532
6.76531
6.7653
6.76529
6.76528
6.76527
6.76526
6.76525
6.76525
6.76524
6.76523
6.76522
6.76521
6.7652
6.76519
6.76517
6.76516
6.76515
6.76515
6.76514
6.76512
6.76511
6.7651
6.76509
6.76508
6.76508
6.76507
6.76506
6.76505
6.76504
6.76503
6.76502
6.76501
6.76501
6.765
6.76498
6.76497
6.76495
6.76494
6.76493
6.76492
6.76492
6.76491
6.7649
6.7649
6.76489
6.76488
6.76487
6.76487
6.76486
6.76485
6.76484
6.76483
6.76483
6.76482
6.76481
6.7648
6.7648
6.76479
6.76478
6.76478
6.76476
6.76476
6.76475
6.76474
6.76473
6.76472
6.76472
6.76471
6.7647
6.7647
6.76469
6.76469
6.76468
6.76467
6.76467
6.76466
6.76465
6.76465
6.76464
6.76464
6.76462
6.76462
6.76461
6.7646
6.76459
6.76458
6.76457
6.76457
6.76456
6.76456
6.76455
6.76455
6.76454
6.76453
6.76453
6.76452
6.76452
6.76451
6.76451
6.7645
6.76449
6.76449
6.76448
6.76448
6.76447
6.76446
6.76446
6.76445
6.76445
6.76444
6.76443
6.76443
6.76442
6.76441
6.76441
6.7644
6.76439
6.76439
6.76438
6.76438
6.76437
6.76436
6.76436
6.76435
6.76434
6.76434
6.76433
6.76433
6.76432
6.76432
6.76431
6.76431
6.7643
6.7643
6.76429
6.76429
6.76428
6.76428
6.76427
6.76427
6.76427
6.76426
6.76426
6.76425
6.76425
6.76424
6.76424
6.76424
6.76423
6.76423
6.76422
6.76422
6.76421
6.76421
6.7642
6.7642
6.76419
6.76419
6.76419
6.76418
6.76417
6.76417
6.76417
6.76416
6.76416
6.76415
6.76415
6.76415
6.76414
6.76414
6.76413
6.76413
6.76412
6.76412
6.76412
6.76411
6.76411
6.7641
6.7641
6.76409
6.76409
6.76409
6.76408
6.76408
6.76408
6.76407
6.76407
6.76407
6.76406
6.76406