/*--------------------------------*- C++ -*----------------------------------*\
| =========                 |                                                 |
| \\      /  F ield         | OpenFOAM: The Open Source CFD Toolbox           |
|  \\    /   O peration     | Version:  plus.master.MPPICInterFoam            |
|   \\  /    A nd           | Web:      www.OpenFOAM.com                      |
|    \\/     M anipulation  |                                                 |
\*---------------------------------------------------------------------------*/
FoamFile
{
    version     2.0;
    format      ascii;
    class       surfaceScalarField;
    location    "14";
    object      alphaPhi;
}
// * * * * * * * * * * * * * * * * * * * * * * * * * * * * * * * * * * * * * //

dimensions      [0 3 -1 0 0 0 0];

internalField   nonuniform List<scalar> 
34155
(
6.75016e-07
2.20677e-06
4.20444e-07
-1.23141e-06
-2.07088e-06
4.56404e-07
1.06458e-06
8.38549e-07
-1.68433e-06
-8.41315e-07
2.00799e-06
1.28884e-06
-1.99901e-06
-2.13179e-06
1.96503e-06
1.32813e-06
-2.00256e-06
-2.62523e-06
1.3042e-06
9.13219e-07
-1.72396e-06
-2.12068e-06
3.63152e-07
5.32557e-07
-1.40025e-06
1.55149e-06
2.95619e-07
-2.2651e-06
-1.70278e-06
-9.75801e-08
2.52738e-06
8.55921e-07
-1.00291e-06
4.2814e-07
1.1836e-06
2.14995e-06
-1.70114e-07
1.03829e-06
3.28978e-06
-1.7314e-06
1.41756e-06
3.532e-06
-1.24826e-06
4.02211e-07
2.62665e-06
-9.04111e-07
8.92422e-07
1.74183e-06
1.80483e-06
5.00492e-07
-1.65777e-06
8.45959e-07
1.51255e-06
1.42042e-06
-1.2515e-06
1.46073e-07
1.15281e-06
2.88404e-06
9.43836e-08
1.36413e-07
1.24259e-06
-1.45825e-07
6.36237e-08
1.3832e-06
-8.21754e-07
1.32389e-07
1.29009e-06
-1.75855e-06
1.08422e-06
2.65559e-06
1.08444e-06
8.46849e-07
-1.88576e-06
1.90464e-06
-4.38698e-07
1.84252e-06
-1.79613e-06
1.18461e-06
-7.02792e-07
3.97191e-06
3.09579e-08
-1.19717e-07
1.15101e-06
-6.80776e-08
-3.34196e-08
1.96068e-07
-1.51765e-06
-1.27417e-07
1.75363e-06
-1.93932e-06
-4.4351e-07
3.31655e-06
-1.03065e-07
1.10013e-06
-1.85109e-06
1.29496e-06
-1.69607e-06
1.5524e-06
-1.58962e-06
3.87282e-07
-8.85791e-07
3.1689e-06
9.86304e-08
-6.90091e-07
1.1683e-06
-1.71711e-07
-1.1749e-06
1.05922e-06
-1.12891e-06
-1.70086e-07
1.33484e-06
-2.00647e-06
-6.79363e-07
2.86336e-06
-1.14737e-06
9.6204e-07
-1.92347e-06
1.66228e-07
-1.63485e-06
9.6922e-07
-1.19663e-06
5.62741e-07
-6.48458e-07
2.23976e-06
-4.2347e-08
-1.73978e-06
3.42892e-06
-1.55679e-06
-1.92255e-06
3.73327e-06
-1.49725e-06
-8.95005e-07
2.737e-06
-1.22921e-06
-8.66732e-08
1.88165e-06
-9.92384e-07
5.73122e-07
-1.95818e-06
9.54504e-07
4.87148e-07
-1.44733e-06
-1.62875e-06
8.26588e-07
9.70726e-07
-1.49094e-06
-7.49087e-07
1.52014e-06
-1.68419e-06
-2.46251e-06
1.61988e-06
-1.82893e-06
-3.06492e-06
1.11441e-06
-1.40696e-06
-2.53146e-06
6.20332e-07
-1.2403e-06
2.90392e-07
-2.29813e-06
-1.51604e-06
1.06943e-06
2.71577e-06
8.17982e-07
-1.53806e-06
-2.6447e-06
2.46087e-07
3.02854e-06
1.44734e-06
-2.81413e-06
-7.65733e-07
2.75199e-06
2.17459e-06
-2.62596e-06
-1.74077e-06
2.56033e-06
2.24789e-06
-2.50509e-06
-2.31982e-06
2.55994e-06
1.45175e-06
-2.51946e-06
-2.56478e-06
2.24378e-06
8.56891e-07
-2.32331e-06
1.66745e-06
6.3306e-07
-2.5946e-06
-1.97515e-06
1.61475e-06
2.37273e-06
1.48384e-06
-1.89976e-06
7.91821e-07
2.3648e-06
3.1914e-06
-4.86325e-07
1.75078e-06
4.75027e-06
-1.98534e-06
1.25025e-06
5.1361e-06
-2.8836e-06
1.48108e-06
3.69436e-06
-3.01878e-06
1.87475e-06
1.97244e-06
1.16841e-06
8.31101e-07
-2.85048e-06
2.10733e-06
1.30992e-06
2.4793e-06
-2.10353e-06
4.99213e-07
1.12099e-06
4.11914e-06
6.14446e-08
6.54368e-08
2.13131e-06
-1.93446e-07
4.81669e-08
1.87084e-06
-2.2262e-06
3.35588e-07
3.19827e-06
-2.85198e-06
1.18511e-06
3.34935e-06
6.4755e-07
1.28716e-06
-2.77145e-06
2.47375e-06
-3.12208e-07
3.21926e-06
-2.2284e-06
9.45727e-07
-5.75413e-07
5.85265e-06
1.91983e-08
-5.86552e-08
1.56505e-06
-1.94999e-07
-6.60059e-09
4.44413e-07
-2.11471e-06
-1.9393e-07
2.75945e-06
-2.59715e-06
-2.29262e-07
4.547e-06
1.0949e-07
1.66363e-06
-2.62259e-06
2.29431e-06
-1.53428e-06
2.72152e-06
-2.24141e-06
6.38707e-07
-1.71799e-06
4.47001e-06
4.49721e-08
-1.21516e-06
1.90605e-06
-6.98994e-08
-8.50887e-07
1.44903e-06
-2.22735e-06
-8.80558e-07
2.69096e-06
-2.8712e-06
-1.1042e-06
3.82688e-06
-4.92328e-07
1.50575e-06
-2.81306e-06
2.1172e-06
-2.15933e-06
1.71236e-06
-2.23532e-06
1.10722e-06
-2.65303e-06
3.44092e-06
-2.29922e-07
-2.55854e-06
5.00055e-06
-1.85602e-06
-2.45536e-06
5.47683e-06
-3.16814e-06
-2.20623e-06
4.055e-06
-3.29894e-06
-1.61722e-06
2.28945e-06
-1.10884e-06
9.60155e-07
-3.06959e-06
1.54232e-06
9.42933e-07
-1.89975e-06
-2.25761e-06
6.49627e-07
1.73867e-06
-2.52826e-06
-6.74556e-07
2.68146e-06
-2.39578e-06
-2.06391e-06
2.86105e-06
-2.30718e-06
-2.86478e-06
1.91229e-06
-2.20318e-06
-3.00745e-06
1.03712e-06
-1.89138e-06
6.37292e-07
-2.91239e-06
-1.55095e-06
1.35165e-06
2.91922e-06
1.45719e-06
-1.94309e-06
-2.96701e-06
4.5698e-07
3.40363e-06
2.08169e-06
-3.14357e-06
-5.41145e-07
3.257e-06
2.90237e-06
-2.98676e-06
-1.5913e-06
3.12108e-06
3.08089e-06
-2.90403e-06
-2.29574e-06
3.15654e-06
2.05827e-06
-3.05875e-06
-2.71386e-06
2.68786e-06
1.45843e-06
-2.87136e-06
2.08749e-06
1.29218e-06
-2.91188e-06
-2.54866e-06
1.9139e-06
2.52338e-06
2.19829e-06
-2.23545e-06
1.16628e-06
3.17371e-06
3.88964e-06
-3.20671e-07
2.24998e-06
5.58679e-06
-2.10407e-06
1.57018e-06
5.86711e-06
-3.33005e-06
2.74292e-06
4.3727e-06
-3.3618e-06
2.41364e-06
2.27825e-06
1.37715e-06
1.42981e-06
-3.25038e-06
2.85944e-06
1.22936e-06
3.45539e-06
-2.54162e-06
9.01139e-07
1.16603e-06
5.03896e-06
1.15507e-07
7.08421e-08
2.33342e-06
-2.20126e-07
2.02575e-08
1.93449e-06
-4.05946e-06
3.85087e-07
3.95372e-06
-3.50317e-06
1.32057e-06
3.88597e-06
6.66599e-07
1.78092e-06
-3.28648e-06
2.90708e-06
-3.56625e-07
4.41858e-06
-2.52049e-06
9.81007e-07
-6.1975e-07
6.52363e-06
3.52752e-09
-5.87243e-08
1.57337e-06
-8.7461e-08
-2.46819e-09
6.19795e-07
-3.21705e-06
-2.26096e-07
3.45026e-06
-3.47543e-06
-3.02592e-07
5.2911e-06
-9.45721e-09
2.14126e-06
-3.27714e-06
2.93345e-06
-1.7077e-06
3.74087e-06
-2.6018e-06
9.51396e-07
-2.15957e-06
5.29486e-06
6.46987e-08
-1.52234e-06
2.03389e-06
-6.80684e-08
-8.93595e-07
1.43036e-06
-3.19205e-06
-1.70927e-06
3.27751e-06
-3.5247e-06
-1.57498e-06
4.41653e-06
-7.22341e-07
1.98857e-06
-3.29468e-06
2.48663e-06
-2.40636e-06
2.50093e-06
-2.57664e-06
1.50132e-06
-3.03229e-06
4.34762e-06
-4.66561e-08
-3.02113e-06
5.7498e-06
-1.85729e-06
-2.92161e-06
5.77425e-06
-3.71366e-06
-2.80345e-06
4.94788e-06
-3.69697e-06
-2.07733e-06
2.77506e-06
-1.54016e-06
1.53614e-06
-3.45523e-06
1.81024e-06
1.60123e-06
-2.27143e-06
-2.60355e-06
8.34126e-07
2.49815e-06
-2.81587e-06
-4.68002e-07
3.61869e-06
-2.65625e-06
-1.90358e-06
3.93332e-06
-2.55836e-06
-2.84569e-06
2.69376e-06
-2.64287e-06
-3.1438e-06
1.65297e-06
-2.39577e-06
1.2976e-06
-3.19241e-06
-2.15198e-06
1.63991e-06
2.8075e-06
2.85314e-06
-2.57706e-06
-3.26626e-06
5.90113e-07
3.07433e-06
3.3004e-06
-3.24331e-06
-3.77395e-07
2.76923e-06
4.01392e-06
-2.91328e-06
-1.20074e-06
2.40032e-06
4.24752e-06
-2.74365e-06
-1.94616e-06
2.74182e-06
3.27449e-06
-3.21263e-06
-2.73809e-06
2.78847e-06
2.83992e-06
-3.37804e-06
2.49483e-06
2.73322e-06
-3.38055e-06
-3.29334e-06
1.73689e-06
2.20655e-06
3.44526e-06
-2.38276e-06
9.15021e-07
2.88658e-06
4.89933e-06
-4.84873e-07
1.76659e-06
6.10972e-06
-1.85062e-06
7.61626e-07
5.76947e-06
-2.7325e-06
2.11128e-06
5.205e-06
-3.18895e-06
2.20141e-06
3.3218e-06
1.51701e-06
2.8156e-06
-3.597e-06
2.11753e-06
1.03216e-06
4.72793e-06
-2.2155e-06
6.62931e-07
6.59177e-07
5.60218e-06
-4.82735e-08
7.66386e-10
1.09294e-06
-9.35652e-08
-2.09438e-08
6.62387e-07
-2.70821e-06
2.29541e-07
4.09493e-06
-3.22466e-06
1.20192e-06
4.69939e-06
6.3386e-07
3.01836e-06
-3.57902e-06
1.45571e-06
-2.84201e-07
5.80063e-06
-1.85864e-06
1.56671e-07
-3.21488e-07
5.11667e-06
-5.00087e-08
-2.22751e-08
5.23504e-07
1.37044e-07
5.21427e-09
5.18826e-07
-2.74392e-06
-1.45803e-07
3.45106e-06
-3.252e-06
-1.80738e-07
5.96786e-06
-1.70508e-07
3.27361e-06
-3.58003e-06
2.16223e-06
-1.53623e-06
5.03122e-06
-2.20049e-06
4.91851e-07
-1.81712e-06
5.28432e-06
5.23171e-09
-8.26866e-07
5.92785e-07
2.11313e-08
-1.67134e-07
4.39711e-07
-2.76818e-06
-1.30679e-06
3.02708e-06
-3.26938e-06
-1.50729e-06
5.14154e-06
-1.0455e-06
3.15532e-06
-3.56116e-06
2.06257e-06
-2.32761e-06
3.75059e-06
-2.52086e-06
1.14962e-06
-2.53158e-06
5.47318e-06
-2.06312e-07
-2.29272e-06
5.61184e-06
-1.4857e-06
-1.58568e-06
4.63383e-06
-3.12646e-06
-2.10254e-06
5.77834e-06
-3.44228e-06
-2.17331e-06
3.75693e-06
-2.09851e-06
2.8717e-06
-3.72479e-06
1.86829e-06
2.97155e-06
-2.66712e-06
-2.89904e-06
8.49988e-07
3.71753e-06
-2.73302e-06
-3.50916e-07
4.82419e-06
-2.29729e-06
-1.57859e-06
5.2188e-06
-2.02131e-06
-2.37064e-06
3.89406e-06
-2.51083e-06
-3.01326e-06
2.97798e-06
-2.8557e-06
2.73581e-06
-3.52181e-06
-3.02809e-06
1.62166e-06
2.15834e-06
-2.78511e-06
-2.90695e-06
4.7653e-06
5.27359e-07
2.04977e-06
-2.7783e-06
5.12315e-06
-2.09525e-07
1.30076e-06
-2.26826e-06
5.71827e-06
-6.68793e-07
7.77982e-07
-2.02941e-06
5.95816e-06
-1.3806e-06
1.70824e-06
-2.80453e-06
5.08257e-06
-2.31321e-06
2.31241e-06
-3.23382e-06
4.69397e-06
2.37257e-06
-3.2035e-06
-3.33539e-06
4.5864e-06
1.09046e-06
1.41664e-06
-2.1875e-06
5.28388e-06
2.12814e-07
1.25304e-06
6.42935e-06
-5.62655e-07
5.94734e-07
7.01802e-06
-1.19391e-06
6.50113e-08
6.18126e-06
-1.59216e-06
5.40804e-07
6.58377e-06
-2.43909e-06
1.42939e-06
5.05203e-06
1.36109e-06
-3.27324e-06
4.66127e-06
3.69072e-07
6.84924e-07
-1.3592e-06
6.44997e-06
3.15853e-08
2.54289e-07
6.47603e-06
-5.86147e-08
-1.72135e-08
2.22507e-07
-1.27051e-07
-1.14725e-08
2.74394e-07
-9.55111e-07
7.54904e-08
5.8296e-06
-2.14416e-06
8.83846e-07
6.20955e-06
5.32033e-07
-3.13298e-06
4.83619e-06
-2.49061e-07
-9.74731e-08
-6.21456e-07
7.34865e-06
-2.09653e-07
5.1036e-08
4.18523e-06
-6.58194e-08
-3.12462e-09
2.54277e-07
3.54786e-08
1.39369e-09
3.90129e-07
-1.19864e-06
3.08173e-09
3.72845e-06
-2.11316e-06
-5.84824e-08
7.27774e-06
-2.89571e-07
-3.09027e-06
5.07228e-06
3.79598e-07
-9.7392e-07
-1.26801e-06
6.76379e-06
5.50262e-09
-6.65743e-07
5.61455e-06
-1.86514e-08
-1.09028e-07
1.92524e-07
3.82286e-08
5.76319e-08
2.24276e-07
-1.06541e-06
2.19279e-08
3.48014e-06
-2.076e-06
-8.79316e-07
6.57773e-06
-1.09186e-06
-3.074e-06
4.95546e-06
1.11826e-06
-1.82765e-06
-2.10688e-06
5.59292e-06
2.51159e-07
-1.44681e-06
6.98917e-06
-3.62888e-07
-6.05764e-07
5.89259e-06
-1.02719e-06
-1.14608e-07
4.27007e-06
-1.7545e-06
-7.56963e-07
6.97968e-06
-2.52115e-06
-1.7818e-06
5.42604e-06
-2.175e-06
-3.28309e-06
4.71685e-06
1.59906e-06
-2.6513e-06
-2.7079e-06
4.90413e-06
5.87686e-07
-2.25896e-06
5.54061e-06
-2.40283e-07
-1.46586e-06
6.51236e-06
-1.02607e-06
-1.03377e-06
6.79861e-06
-1.56856e-06
-1.96796e-06
5.64744e-06
-2.37286e-06
-2.83162e-06
4.83202e-06
-3.1582e-06
-3.26291e-06
4.60922e-06
-2.66084e-06
-1.21652e-07
1.43597e-07
3.73011e-07
-2.8241e-06
-3.57482e-07
1.53697e-07
3.67321e-07
-3.05757e-06
-2.65989e-07
1.60396e-07
3.40236e-07
-3.3453e-06
-1.65312e-07
1.55791e-07
2.96245e-07
-3.63633e-06
-1.26748e-07
1.43195e-07
2.74499e-07
-3.91125e-06
-1.05356e-07
1.23195e-07
2.58026e-07
-4.16084e-06
-8.89784e-08
9.66696e-08
2.41952e-07
-7.60129e-08
6.3827e-08
2.27207e-07
-4.37577e-06
-2.20416e-06
2.16899e-07
2.0922e-07
-2.63196e-06
-1.43474e-07
2.13337e-07
-2.99325e-06
-1.25876e-07
2.1995e-07
-3.32243e-06
-4.53487e-08
2.10671e-07
-3.61897e-06
-2.42176e-08
1.94153e-07
-3.878e-06
-1.80899e-08
1.70946e-07
-4.09296e-06
-1.44474e-08
1.40403e-07
-1.28155e-08
1.03665e-07
-4.26067e-06
-2.17497e-06
2.4451e-07
2.61246e-07
-2.54857e-06
-4.19726e-10
2.31381e-07
-2.95795e-06
3.41679e-08
2.49549e-07
-3.3175e-06
7.17897e-08
2.42459e-07
-3.62588e-06
6.29547e-08
2.21203e-07
-3.88882e-06
5.16575e-08
1.9322e-07
-4.10148e-06
4.1578e-08
1.56635e-07
3.29111e-08
1.13519e-07
-4.25981e-06
-2.01525e-06
9.91666e-08
3.09673e-07
-2.43231e-06
1.72707e-07
2.43216e-07
-2.86387e-06
2.10659e-07
2.5489e-07
-3.15527e-06
1.20224e-07
2.43046e-07
-3.40932e-06
9.54253e-08
2.21579e-07
-3.63529e-06
8.39881e-08
1.9373e-07
-3.82663e-06
7.39388e-08
1.59064e-07
6.44911e-08
1.18518e-07
-3.97666e-06
-2.27642e-06
1.76944e-07
2.75479e-07
-2.76663e-06
4.2287e-07
2.3979e-07
-3.08733e-06
2.9579e-07
2.34947e-07
-3.42355e-06
2.30163e-07
2.25423e-07
-3.73351e-06
2.02764e-07
2.03308e-07
-4.00327e-06
1.79796e-07
1.7289e-07
-4.22393e-06
1.60017e-07
1.34532e-07
1.44612e-07
8.86368e-08
-4.39164e-06
-2.43584e-06
4.54819e-07
2.00742e-07
-2.72668e-06
5.21591e-07
1.91283e-07
-3.08491e-06
4.55231e-07
1.97968e-07
-3.42919e-06
3.84044e-07
1.91434e-07
-3.73564e-06
3.37342e-07
1.71938e-07
-4.0053e-06
3.0623e-07
1.44346e-07
-4.23482e-06
2.8034e-07
1.09096e-07
2.57766e-07
6.68266e-08
-4.41588e-06
-2.5979e-06
1.34144e-07
6.24831e-07
-2.90663e-06
1.46864e-07
6.85016e-07
-3.21564e-06
1.53022e-07
6.05733e-07
-3.50904e-06
1.43031e-07
5.34383e-07
-3.79546e-06
1.24774e-07
4.99037e-07
-4.0667e-06
9.824e-08
4.79965e-07
-4.31685e-06
6.41812e-08
4.65609e-07
2.40526e-08
4.50049e-07
-4.53399e-06
-3.01659e-06
-6.69538e-08
3.48153e-07
2.84287e-07
-3.43409e-06
-5.78097e-08
3.7683e-07
2.52066e-07
-3.82681e-06
-4.96084e-08
3.82435e-07
2.20225e-07
-4.18846e-06
-4.00335e-08
3.63651e-07
1.93565e-07
-4.50784e-06
-3.34193e-08
3.23856e-07
1.71869e-07
-4.77615e-06
-2.88277e-08
2.6647e-07
1.53746e-07
-4.98848e-06
-2.52889e-08
1.96035e-07
1.3821e-07
-2.20495e-08
1.16221e-07
1.24751e-07
-5.1436e-06
-3.21455e-06
2.96431e-08
4.76372e-07
-3.58584e-06
2.86319e-08
4.98105e-07
-3.95007e-06
3.30388e-08
5.01405e-07
-4.2909e-06
3.56218e-08
4.75733e-07
-4.5885e-06
3.40833e-08
4.24243e-07
-4.82846e-06
3.07959e-08
3.5121e-07
-5.00318e-06
2.72697e-08
2.6247e-07
2.41505e-08
1.63585e-07
-5.10938e-06
-3.18186e-06
1.20702e-07
5.80343e-07
-3.58955e-06
9.80523e-08
5.6957e-07
-3.97291e-06
9.11047e-08
5.74835e-07
-4.32338e-06
8.25452e-08
5.45963e-07
-4.62559e-06
7.19167e-08
4.85548e-07
-4.86244e-06
6.12625e-08
3.99592e-07
-5.02573e-06
5.15545e-08
2.95619e-07
4.3227e-08
1.8059e-07
-5.11183e-06
-3.12305e-06
2.81067e-07
6.49965e-07
-3.57937e-06
2.0546e-07
5.92042e-07
-3.99072e-06
1.65852e-07
5.91263e-07
-4.36062e-06
1.37127e-07
5.58265e-07
-4.67639e-06
1.15682e-07
4.93504e-07
-4.92276e-06
9.87956e-08
4.02459e-07
-5.09024e-06
8.5216e-08
2.92753e-07
7.41462e-08
1.7114e-07
-5.1739e-06
-3.25859e-06
3.9278e-07
6.09381e-07
-3.6735e-06
3.02656e-07
5.57408e-07
-4.0648e-06
2.4115e-07
5.50937e-07
-4.42168e-06
2.01575e-07
5.17743e-07
-4.7284e-06
1.7115e-07
4.54539e-07
-4.96957e-06
1.46618e-07
3.66188e-07
-5.13689e-06
1.26651e-07
2.60374e-07
1.1022e-07
1.42712e-07
-5.22701e-06
-3.39601e-06
4.5538e-07
4.64322e-07
-3.76008e-06
3.91372e-07
4.66549e-07
-4.12797e-06
3.42877e-07
4.64003e-07
-4.47094e-06
3.02324e-07
4.33518e-07
-4.77145e-06
2.6732e-07
3.76192e-07
-5.01545e-06
2.37386e-07
2.97461e-07
-5.19448e-06
2.11366e-07
2.03339e-07
1.88025e-07
9.66632e-08
-5.30217e-06
-3.2831e-06
3.34126e-07
6.25947e-07
-3.66838e-06
3.57402e-07
5.66275e-07
-4.04064e-06
3.568e-07
5.11269e-07
-4.3897e-06
3.30487e-07
4.6388e-07
-4.70277e-06
2.82407e-07
4.2269e-07
-4.97015e-06
2.1682e-07
3.86105e-07
-5.18551e-06
1.37903e-07
3.52923e-07
4.4589e-08
3.22303e-07
-5.34041e-06
-3.57708e-06
1.10069e-07
7.53356e-07
1.49752e-07
-4.23869e-06
9.42215e-08
8.35252e-07
1.08754e-07
-4.90547e-06
9.76775e-08
8.74506e-07
7.685e-08
-5.56597e-06
1.01251e-07
8.70177e-07
5.25459e-08
-6.20143e-06
1.01885e-07
8.22885e-07
3.43885e-08
-6.78957e-06
9.98802e-08
7.33448e-07
2.11635e-08
-7.30453e-06
9.60612e-08
6.02975e-07
1.18486e-08
9.13393e-08
4.35429e-07
5.61075e-09
-7.72078e-06
-3.80994e-06
1.59153e-07
9.86637e-07
-4.42578e-06
1.45643e-07
1.06231e-06
-5.06423e-06
1.40642e-07
1.09665e-06
-5.70356e-06
1.36198e-07
1.07999e-06
-6.31908e-06
1.29921e-07
1.01161e-06
-6.88276e-06
1.22259e-07
8.92458e-07
-7.36203e-06
1.1371e-07
7.24081e-07
1.04561e-07
5.11582e-07
-7.72324e-06
-3.85048e-06
1.48085e-07
1.15535e-06
-4.47501e-06
1.30183e-07
1.2094e-06
-5.11857e-06
1.1746e-07
1.2414e-06
-5.76169e-06
1.07002e-07
1.21812e-06
-6.37815e-06
9.63664e-08
1.13539e-06
-6.93683e-06
8.60398e-08
9.94372e-07
-7.40131e-06
7.62731e-08
7.975e-07
6.6914e-08
5.5118e-07
-7.73424e-06
-3.86584e-06
1.5865e-07
1.228e-06
-4.50251e-06
1.04708e-07
1.25403e-06
-5.15375e-06
7.65631e-08
1.28335e-06
-5.80109e-06
5.46834e-08
1.25782e-06
-6.41832e-06
3.62712e-08
1.17075e-06
-6.97405e-06
2.08366e-08
1.0233e-06
-7.43207e-06
9.00427e-09
8.18005e-07
2.35302e-10
5.61356e-07
-7.75565e-06
-3.89064e-06
1.97329e-07
1.1665e-06
-4.53648e-06
1.15945e-07
1.19181e-06
-5.19064e-06
6.47644e-08
1.21676e-06
-5.83568e-06
2.7045e-08
1.1903e-06
-6.45127e-06
9.36943e-10
1.10546e-06
-7.00528e-06
-2.22502e-08
9.63228e-07
-7.46539e-06
-3.65342e-08
7.66001e-07
-4.55793e-08
5.20135e-07
-7.79701e-06
-3.98445e-06
2.16679e-07
9.7412e-07
-4.5977e-06
1.6462e-07
1.03096e-06
-5.2322e-06
1.06461e-07
1.05661e-06
-5.86316e-06
5.8278e-08
1.03307e-06
-6.4662e-06
2.18273e-08
9.58303e-07
-7.01984e-06
-4.7083e-09
8.33521e-07
-7.49194e-06
-2.19902e-08
6.60858e-07
-3.37274e-08
4.45956e-07
-7.85314e-06
-3.81679e-06
7.35696e-07
4.39393e-07
-4.44996e-06
8.08226e-07
3.46908e-07
-5.09731e-06
8.38726e-07
2.71765e-07
-5.74447e-06
8.25021e-07
2.10792e-07
-6.37067e-06
7.68189e-07
1.62117e-07
-6.95258e-06
6.69734e-07
1.24195e-07
-7.46383e-06
5.31511e-07
9.556e-08
3.58273e-07
7.45752e-08
-7.8859e-06
-4.56749e-06
2.84674e-07
1.63727e-06
1.83506e-08
-5.83227e-06
2.64561e-07
1.85141e-06
-1.60489e-08
-7.15726e-06
2.70164e-07
1.96813e-06
-3.88386e-08
-8.46648e-06
2.70126e-07
1.96332e-06
-5.39076e-08
-9.65554e-06
2.62968e-07
1.81252e-06
-6.342e-08
-1.0604e-05
2.50238e-07
1.50089e-06
-6.91338e-08
-1.11965e-05
2.33493e-07
1.03433e-06
-7.2365e-08
2.14702e-07
4.39097e-07
-7.40019e-08
-1.13409e-05
-4.69764e-06
2.7681e-07
2.0953e-06
-5.95107e-06
2.66603e-07
2.31377e-06
-7.28583e-06
2.68193e-07
2.4333e-06
-8.61816e-06
2.63959e-07
2.41857e-06
-9.83337e-06
2.53763e-07
2.23595e-06
-1.07904e-05
2.38446e-07
1.86126e-06
-1.13465e-05
2.18478e-07
1.29528e-06
1.9469e-07
5.62061e-07
-1.13769e-05
-4.6973e-06
1.57061e-07
2.39357e-06
-5.9658e-06
1.33766e-07
2.61069e-06
-7.31804e-06
1.23312e-07
2.73843e-06
-8.6739e-06
1.13614e-07
2.72435e-06
-9.91325e-06
1.03406e-07
2.52552e-06
-1.08832e-05
9.27639e-08
2.10998e-06
-1.14235e-05
8.13325e-08
1.47507e-06
6.92422e-08
6.4333e-07
-1.13903e-05
-4.70789e-06
1.01496e-08
2.50266e-06
-5.98044e-06
-4.79049e-08
2.70817e-06
-7.33559e-06
-7.72453e-08
2.8392e-06
-8.69527e-06
-9.63615e-08
2.82739e-06
-9.9398e-06
-1.0768e-07
2.62642e-06
-1.09131e-05
-1.11559e-07
2.20095e-06
-1.14464e-05
-1.08774e-07
1.54162e-06
-1.00621e-07
6.74437e-07
-1.13895e-05
-4.69589e-06
-8.62197e-08
2.39747e-06
-5.98985e-06
-1.60318e-07
2.59816e-06
-7.35377e-06
-2.178e-07
2.72123e-06
-8.71141e-06
-2.53766e-07
2.70535e-06
-9.94863e-06
-2.71525e-07
2.50664e-06
-1.09155e-05
-2.74321e-07
2.09286e-06
-1.1451e-05
-2.64815e-07
1.45757e-06
-2.45681e-07
6.26013e-07
-1.14118e-05
-4.81012e-06
-1.10754e-07
2.08409e-06
-6.05914e-06
-1.7096e-07
2.29065e-06
-7.38961e-06
-2.34676e-07
2.40383e-06
-8.71569e-06
-2.78767e-07
2.38424e-06
-9.92322e-06
-3.03023e-07
2.19747e-06
-1.08718e-05
-3.11422e-07
1.81928e-06
-1.14172e-05
-3.0782e-07
1.24933e-06
-2.96045e-07
5.15643e-07
-1.14365e-05
-4.6797e-06
1.62435e-06
1.58553e-07
-5.93068e-06
1.83217e-06
5.61312e-08
-7.25109e-06
1.94337e-06
-1.89107e-08
-8.56019e-06
1.93281e-06
-7.74581e-08
-9.75174e-06
1.7755e-06
-1.18768e-07
-1.07014e-05
1.4564e-06
-1.4832e-07
-1.12908e-05
9.82092e-07
-1.69005e-07
3.82812e-07
-1.82482e-07
-1.14288e-05
-4.59804e-06
3.58552e-07
-7.94013e-08
2.7527e-06
-6.19575e-06
3.67745e-07
-1.01717e-07
3.1829e-06
-7.99814e-06
3.82814e-07
-1.12867e-07
3.50055e-06
-9.97093e-06
3.88424e-07
-1.17132e-07
3.66509e-06
-1.20763e-05
3.8916e-07
-1.16419e-07
3.6453e-06
-1.42737e-05
3.85744e-07
-1.12404e-07
3.42506e-06
-1.65077e-05
3.71504e-07
-1.0606e-07
3.00286e-06
3.41525e-07
-9.803e-08
-1.87914e-05
2.47925e-06
-4.64232e-06
3.15257e-07
3.50794e-06
-6.23242e-06
3.2838e-07
3.94333e-06
-8.02604e-06
3.4302e-07
4.26671e-06
-9.99376e-06
3.49412e-07
4.42542e-06
-1.20921e-05
3.50807e-07
4.37257e-06
-1.42673e-05
3.47066e-07
4.07513e-06
-1.64616e-05
3.34576e-07
3.52661e-06
3.09884e-07
-1.87189e-05
2.85106e-06
-4.55596e-06
1.31318e-07
4.00067e-06
-6.16461e-06
1.13723e-07
4.43395e-06
-7.95962e-06
1.08874e-07
4.76757e-06
-9.92311e-06
1.051e-07
4.93053e-06
-1.20133e-05
1.03337e-07
4.86173e-06
-1.4181e-05
1.02598e-07
4.5244e-06
-1.6365e-05
1.00155e-07
3.89359e-06
9.36011e-08
-1.86149e-05
3.10957e-06
-4.52405e-06
-1.18283e-07
4.18584e-06
-6.13918e-06
-1.67873e-07
4.6049e-06
-7.93265e-06
-1.9951e-07
4.9413e-06
-9.89373e-06
-2.17091e-07
5.11062e-06
-1.19877e-05
-2.23824e-07
5.04762e-06
-1.41581e-05
-2.21222e-07
4.69526e-06
-1.63362e-05
-2.09205e-07
4.02925e-06
-1.88123e-07
-1.85861e-05
3.20614e-06
-4.52126e-06
-2.85963e-07
4.01233e-06
-6.14506e-06
-3.76037e-07
4.43027e-06
-7.94339e-06
-4.38727e-07
4.75895e-06
-9.90569e-06
-4.72879e-07
4.92357e-06
-1.19979e-05
-4.86377e-07
4.86156e-06
-1.41666e-05
-4.83091e-07
4.52351e-06
-1.63453e-05
-4.62414e-07
3.88963e-06
-4.22654e-07
-1.85869e-05
3.10583e-06
-4.63678e-06
-3.58008e-07
3.50997e-06
-6.21561e-06
-4.40003e-07
3.93352e-06
-7.99268e-06
-5.08657e-07
4.25073e-06
-9.94025e-06
-5.48269e-07
4.40738e-06
-1.20185e-05
-5.65942e-07
4.3554e-06
-1.41766e-05
-5.65801e-07
4.06028e-06
-1.63574e-05
-5.44214e-07
3.51197e-06
-5.00038e-07
-1.8602e-05
2.83775e-06
-4.53023e-06
-1.14111e-07
2.75262e-06
-6.10724e-06
-2.09285e-07
3.17856e-06
-7.89429e-06
-2.72787e-07
3.4946e-06
-9.85427e-06
-3.14047e-07
3.65862e-06
-1.19475e-05
-3.35276e-07
3.63821e-06
-1.41337e-05
-3.39933e-07
3.41681e-06
-1.63557e-05
-3.31377e-07
2.99132e-06
-3.12151e-07
-1.86259e-05
2.46515e-06
-1.87419e-06
4.52534e-07
1.98479e-07
-2.24371e-07
-2.10453e-06
2.68766e-07
1.98556e-07
-2.37475e-07
-2.34792e-06
2.24798e-07
1.97932e-07
-1.77896e-07
-2.68238e-06
3.00424e-07
1.85049e-07
-1.51596e-07
-3.02713e-06
2.99643e-07
1.63492e-07
-1.19168e-07
-3.35969e-06
3.05909e-07
1.33211e-07
-1.05664e-07
-3.66711e-06
3.10734e-07
9.4973e-08
-9.69111e-08
3.19981e-07
4.90451e-08
-9.06598e-08
-3.94681e-06
-1.61933e-06
5.14287e-07
3.61205e-07
-1.76395e-06
1.2898e-07
2.85334e-07
-1.93809e-06
1.04849e-07
2.93623e-07
-2.14513e-06
2.23513e-07
2.83388e-07
-2.34504e-06
2.32885e-07
2.67568e-07
-2.54078e-06
2.5796e-07
2.43781e-07
-2.73292e-06
2.88507e-07
2.14312e-07
3.19523e-07
1.81029e-07
-2.91324e-06
-1.63321e-06
-3.87048e-08
5.96511e-07
-1.75665e-06
-1.1799e-07
3.70132e-07
-1.98126e-06
-5.23839e-08
3.82001e-07
-2.08346e-06
-4.82397e-08
3.73997e-07
-2.21037e-06
-1.77889e-08
3.779e-07
-2.33465e-06
9.23456e-09
3.73477e-07
-2.45002e-06
4.28584e-08
3.60318e-07
7.29075e-08
3.39323e-07
-2.54293e-06
-1.87445e-06
-6.32739e-07
6.72559e-07
-2.0882e-06
-3.37075e-07
4.33939e-07
-2.1229e-06
-4.22502e-07
4.04524e-07
-2.22471e-06
-3.60823e-07
4.13761e-07
-2.31593e-06
-3.54491e-07
4.28735e-07
-2.38669e-06
-3.63334e-07
4.43432e-07
-2.40127e-06
-3.92211e-07
4.50104e-07
-4.09856e-07
4.4819e-07
-2.36657e-06
-1.2833e-06
-1.12118e-06
5.20299e-07
-1.48964e-06
-4.70785e-07
3.40279e-07
-1.75179e-06
-5.21394e-07
3.61592e-07
-1.90382e-06
-5.63518e-07
3.5497e-07
-2.06287e-06
-5.4666e-07
3.51266e-07
-2.2337e-06
-5.32328e-07
3.39638e-07
-2.41558e-06
-5.35572e-07
3.25313e-07
-5.48532e-07
3.00717e-07
-2.57756e-06
-1.51769e-06
-9.22376e-07
3.1665e-07
-1.69597e-06
-5.50852e-07
2.58848e-07
-2.00759e-06
-4.96597e-07
2.86161e-07
-2.25479e-06
-5.87517e-07
2.72658e-07
-2.48327e-06
-5.75412e-07
2.56627e-07
-2.67839e-06
-5.72336e-07
2.34547e-07
-2.86311e-06
-5.54649e-07
2.04492e-07
-5.42633e-07
1.71211e-07
-3.04008e-06
-1.78213e-06
1.8539e-07
-5.56927e-07
-2.01142e-06
1.91047e-07
-5.12956e-07
-2.28812e-06
1.94297e-07
-4.12417e-07
-2.67741e-06
1.84834e-07
-3.8342e-07
-3.06052e-06
1.67798e-07
-3.62528e-07
-3.4275e-06
1.42647e-07
-3.47099e-07
-3.75564e-06
1.10616e-07
-3.37074e-07
7.18623e-08
-3.25096e-07
-4.04497e-06
-2.32034e-06
3.68748e-07
4.15848e-07
-1.65588e-07
-2.74951e-06
3.42581e-07
4.23519e-07
-1.38586e-07
-3.17108e-06
3.1669e-07
4.20709e-07
-1.17838e-07
-3.57641e-06
3.03333e-07
3.91276e-07
-1.04311e-07
-3.94905e-06
2.92974e-07
3.36745e-07
-9.38103e-08
-4.27723e-06
2.85579e-07
2.61806e-07
-8.60751e-08
-4.55321e-06
2.78804e-07
1.7219e-07
-8.0032e-08
2.71856e-07
6.9073e-08
-7.51099e-08
-4.76996e-06
-2.49103e-06
2.7446e-07
7.11055e-07
-2.74558e-06
2.58443e-07
6.2398e-07
-3.02226e-06
2.67882e-07
6.19129e-07
-3.31474e-06
2.79379e-07
5.99624e-07
-3.59669e-06
2.89682e-07
5.52716e-07
-3.84942e-06
3.03392e-07
4.78605e-07
-4.05758e-06
3.16885e-07
3.8433e-07
3.28323e-07
2.78885e-07
-4.21194e-06
-2.42801e-06
-1.19061e-07
1.17665e-06
-2.5691e-06
-9.34338e-08
8.63056e-07
-2.70786e-06
-4.22519e-08
8.30836e-07
-2.87804e-06
-1.19876e-08
8.3558e-07
-3.04605e-06
1.44805e-08
8.21243e-07
-3.18435e-06
3.86998e-08
7.76485e-07
-3.27486e-06
6.17985e-08
7.05977e-07
8.25815e-08
6.19511e-07
-3.30915e-06
-2.41217e-06
-6.38568e-07
1.37567e-06
-2.50422e-06
-5.20921e-07
9.53566e-07
-2.59398e-06
-4.62824e-07
9.14902e-07
-2.71522e-06
-4.20621e-07
9.43169e-07
-2.8332e-06
-3.94871e-07
9.56024e-07
-2.9145e-06
-3.77536e-07
9.40881e-07
-2.93819e-06
-3.64454e-07
8.99973e-07
-3.52191e-07
8.4196e-07
-2.89717e-06
-2.34666e-06
-9.04343e-07
1.02927e-06
-2.54307e-06
-7.76399e-07
7.92078e-07
-2.7321e-06
-7.06736e-07
7.94404e-07
-2.93754e-06
-6.62206e-07
8.0191e-07
-3.13773e-06
-6.28619e-07
7.85132e-07
-3.31039e-06
-6.03477e-07
7.38192e-07
-3.43229e-06
-5.82856e-07
6.65669e-07
-5.64797e-07
5.77924e-07
-3.49677e-06
-2.2766e-06
-8.41665e-07
6.30687e-07
-2.63918e-06
-7.4829e-07
5.93351e-07
-2.98299e-06
-6.78365e-07
6.01387e-07
-3.32333e-06
-6.339e-07
5.84689e-07
-3.64114e-06
-5.9483e-07
5.40642e-07
-3.91978e-06
-5.60904e-07
4.70435e-07
-4.14926e-06
-5.301e-07
3.8111e-07
-5.01599e-07
2.81371e-07
-4.32267e-06
-2.07447e-06
3.95005e-07
-5.15175e-07
-2.58746e-06
4.15018e-07
-4.59374e-07
-3.07306e-06
4.17215e-07
-4.15821e-07
-3.53169e-06
3.92376e-07
-3.82736e-07
-3.94842e-06
3.43556e-07
-3.53936e-07
-4.31307e-06
2.74885e-07
-3.28549e-07
-4.61916e-06
1.92172e-07
-3.0562e-07
9.92097e-08
-2.84432e-07
-4.86372e-06
-2.962e-06
4.54e-07
7.92851e-07
-1.40546e-07
-3.64943e-06
3.769e-07
8.43703e-07
-1.09786e-07
-4.34544e-06
3.3755e-07
8.72553e-07
-9.35223e-08
-5.03364e-06
3.05624e-07
8.57196e-07
-8.34416e-08
-5.69391e-06
2.76833e-07
7.96185e-07
-7.61427e-08
-6.30299e-06
2.49562e-07
6.91783e-07
-7.05405e-08
-6.83533e-06
2.23639e-07
5.46848e-07
-6.59916e-08
1.99905e-07
3.66982e-07
-6.21266e-08
-7.2711e-06
-3.01833e-06
3.84086e-07
1.22246e-06
-3.53825e-06
3.60635e-07
1.16001e-06
-4.11407e-06
3.46757e-07
1.18552e-06
-4.71477e-06
3.24775e-07
1.18105e-06
-5.31412e-06
3.06191e-07
1.12248e-06
-5.8817e-06
2.88557e-07
1.00709e-06
-6.38054e-06
2.69897e-07
8.3697e-07
2.50382e-07
6.18591e-07
-6.77069e-06
-2.83883e-06
-4.50529e-08
1.84286e-06
-3.12896e-06
6.70838e-09
1.50694e-06
-3.52215e-06
6.41389e-08
1.5065e-06
-3.98634e-06
8.60226e-08
1.53841e-06
-4.48335e-06
1.03404e-07
1.5208e-06
-4.97459e-06
1.18816e-07
1.4375e-06
-5.41578e-06
1.30875e-07
1.28644e-06
1.39086e-07
1.07324e-06
-5.75821e-06
-2.73445e-06
-6.17375e-07
2.16201e-06
-2.94216e-06
-4.94673e-07
1.66247e-06
-3.22587e-06
-3.91463e-07
1.65403e-06
-3.59562e-06
-3.20216e-07
1.71895e-06
-4.00712e-06
-2.70465e-07
1.74122e-06
-4.41518e-06
-2.31024e-07
1.69876e-06
-4.7723e-06
-1.97958e-07
1.58595e-06
-1.7029e-07
1.40632e-06
-5.02733e-06
-2.85104e-06
-9.64047e-07
1.68525e-06
-3.2196e-06
-7.82731e-07
1.44855e-06
-3.64796e-06
-6.57612e-07
1.48853e-06
-4.1316e-06
-5.64877e-07
1.53009e-06
-4.64237e-06
-4.91936e-07
1.51729e-06
-5.14405e-06
-4.30398e-07
1.43926e-06
-5.59359e-06
-3.7705e-07
1.29434e-06
-3.30865e-07
1.08782e-06
-5.94288e-06
-2.83985e-06
-8.71068e-07
1.14202e-06
-3.46876e-06
-7.06617e-07
1.14591e-06
-4.10792e-06
-6.07438e-07
1.19018e-06
-4.75203e-06
-5.29769e-07
1.19346e-06
-5.38254e-06
-4.62977e-07
1.14217e-06
-5.97316e-06
-4.04374e-07
1.03506e-06
-6.48942e-06
-3.5304e-07
8.73351e-07
-3.08843e-07
6.6293e-07
-6.89305e-06
-2.75668e-06
7.79297e-07
-4.42109e-07
-3.52825e-06
8.47523e-07
-3.67703e-07
-4.28688e-06
8.82778e-07
-3.14459e-07
-5.02541e-06
8.72623e-07
-2.71695e-07
-5.72605e-06
8.17283e-07
-2.3613e-07
-6.36791e-06
7.18612e-07
-2.06302e-07
-6.92645e-06
5.78844e-07
-1.81246e-07
4.02929e-07
-1.60393e-07
-7.37871e-06
-3.93556e-06
4.77136e-07
1.67054e-06
-8.63086e-08
-5.28112e-06
3.85485e-07
1.86278e-06
-5.89428e-08
-6.6741e-06
3.33271e-07
1.9749e-06
-4.27894e-08
-8.03157e-06
2.78408e-07
1.96738e-06
-3.11084e-08
-9.24784e-06
2.21833e-07
1.81263e-06
-2.1928e-08
-1.02021e-05
1.66869e-07
1.49371e-06
-1.43981e-08
-1.07782e-05
1.15068e-07
1.01608e-06
-8.05952e-09
6.67879e-08
4.11265e-07
-2.67983e-09
-1.08866e-05
-3.57161e-06
4.62023e-07
2.28827e-06
-4.85799e-06
4.26529e-07
2.40533e-06
-6.2395e-06
3.77128e-07
2.52316e-06
-7.62126e-06
3.18413e-07
2.52293e-06
-8.88683e-06
2.57843e-07
2.35194e-06
-9.89082e-06
1.97195e-07
1.98081e-06
-1.0484e-05
1.38244e-07
1.4071e-06
8.13805e-08
6.59719e-07
-1.05397e-05
-2.93789e-06
5.15105e-08
2.99079e-06
-4.02665e-06
1.41859e-07
2.88025e-06
-5.31134e-06
1.69369e-07
2.99895e-06
-6.66397e-06
1.69241e-07
3.0403e-06
-7.94662e-06
1.60969e-07
2.90007e-06
-8.98883e-06
1.47044e-07
2.52992e-06
-9.61166e-06
1.28906e-07
1.91956e-06
1.07994e-07
1.0869e-06
-9.65197e-06
-2.55415e-06
-4.88293e-07
3.39737e-06
-3.52731e-06
-3.20044e-07
3.09749e-06
-4.7192e-06
-2.04634e-07
3.21965e-06
-6.00378e-06
-1.30985e-07
3.30395e-06
-7.23538e-06
-7.72645e-08
3.21099e-06
-8.23601e-06
-3.47356e-08
2.88133e-06
-8.81561e-06
-2.16291e-09
2.29692e-06
2.54347e-08
1.46622e-06
-8.7929e-06
-3.05582e-06
-8.22771e-07
2.86e-06
-4.17307e-06
-6.0292e-07
2.84874e-06
-5.44054e-06
-4.48837e-07
3.00007e-06
-6.7671e-06
-3.2779e-07
3.05319e-06
-8.02186e-06
-2.25911e-07
2.9208e-06
-9.03666e-06
-1.38991e-07
2.55848e-06
-9.63552e-06
-6.5128e-08
1.95623e-06
-3.31272e-09
1.1313e-06
-9.64926e-06
-3.57329e-06
-7.18905e-07
2.22884e-06
-4.90626e-06
-5.26452e-07
2.40231e-06
-6.29833e-06
-4.03821e-07
2.53745e-06
-7.68066e-06
-2.98066e-07
2.54594e-06
-8.94026e-06
-2.05539e-07
2.38233e-06
-9.93561e-06
-1.25743e-07
2.01796e-06