/*--------------------------------*- C++ -*----------------------------------*\
| =========                 |                                                 |
| \\      /  F ield         | OpenFOAM: The Open Source CFD Toolbox           |
|  \\    /   O peration     | Version:  plus.master.MPPICInterFoam            |
|   \\  /    A nd           | Web:      www.OpenFOAM.com                      |
|    \\/     M anipulation  |                                                 |
\*---------------------------------------------------------------------------*/
FoamFile
{
    version     2.0;
    format      ascii;
    class       vectorField;
    location    "5/lagrangian/kinematicCloud";
    object      UCorrect;
}
// * * * * * * * * * * * * * * * * * * * * * * * * * * * * * * * * * * * * * //


18
(
(3.71376e-19 -1.24452e-20 -1.09572e-19)
(-4.57134e-20 -1.03498e-19 -1.09572e-19)
(9.23948e-19 1.56622e-19 -9.64232e-18)
(7.61868e-19 1.23379e-18 1.75985e-16)
(4.41293e-22 -1.76557e-18 -1.05163e-34)
(-9.88735e-20 9.85503e-19 4.33574e-35)
(5.26009e-19 4.07824e-19 -1.09572e-19)
(1.03845e-18 -4.38881e-19 -1.99582e-19)
(2.52044e-22 -3.86805e-21 2.12613e-19)
(2.60668e-20 -4.71908e-19 1.06307e-19)
(-2.91846e-20 1.83259e-20 1.09572e-19)
(-2.19793e-21 2.58687e-19 -2.10327e-35)
(4.58614e-19 7.07677e-21 1.74077e-19)
(-3.49219e-21 -1.44468e-22 4.86827e-35)
(5.03564e-19 4.17005e-20 -2.0763e-22)
(2.48689e-21 2.4098e-22 -1.06307e-19)
(8.90352e-21 -7.02142e-22 -2.09977e-35)
(-3.49219e-21 -1.44468e-22 2.82645e-35)
)


// ************************************************************************* //
