/*--------------------------------*- C++ -*----------------------------------*\
| =========                 |                                                 |
| \\      /  F ield         | OpenFOAM: The Open Source CFD Toolbox           |
|  \\    /   O peration     | Version:  plus.master.MPPICInterFoam            |
|   \\  /    A nd           | Web:      www.OpenFOAM.com                      |
|    \\/     M anipulation  |                                                 |
\*---------------------------------------------------------------------------*/
FoamFile
{
    version     2.0;
    format      ascii;
    class       volVectorField;
    location    "1.6";
    object      U;
}
// * * * * * * * * * * * * * * * * * * * * * * * * * * * * * * * * * * * * * //

dimensions      [0 1 -1 0 0 0 0];

internalField   nonuniform List<vector> 
11821
(
(6.87229e-05 7.9737e-05 -0.00116596)
(6.68995e-05 7.23027e-05 -0.00110711)
(6.59684e-05 6.77648e-05 -0.00108123)
(6.37136e-05 6.42312e-05 -0.00106708)
(6.08842e-05 6.15791e-05 -0.00105839)
(5.77601e-05 5.94857e-05 -0.00105251)
(5.47384e-05 5.76864e-05 -0.00104766)
(5.13203e-05 5.61269e-05 -0.00104117)
(3.44536e-05 5.62028e-05 -0.00117916)
(3.76828e-05 5.11147e-05 -0.00112144)
(3.92884e-05 4.83834e-05 -0.00109637)
(3.92094e-05 4.59888e-05 -0.0010831)
(3.7782e-05 4.40769e-05 -0.00107546)
(3.55552e-05 4.25869e-05 -0.00107075)
(3.29678e-05 4.1409e-05 -0.0010672)
(3.02673e-05 4.03673e-05 -0.00106205)
(1.23855e-05 1.8152e-05 -0.00118609)
(1.81102e-05 1.68283e-05 -0.00112919)
(2.15518e-05 1.66301e-05 -0.00110452)
(2.33811e-05 1.61826e-05 -0.00109162)
(2.36209e-05 1.56819e-05 -0.00108435)
(2.26574e-05 1.52533e-05 -0.00108001)
(2.07426e-05 1.49656e-05 -0.0010768)
(1.8097e-05 1.50991e-05 -0.00107196)
(7.7274e-06 -2.74344e-05 -0.00118612)
(1.32691e-05 -2.35598e-05 -0.00112972)
(1.68627e-05 -2.02905e-05 -0.00110523)
(1.87716e-05 -1.79806e-05 -0.00109251)
(1.89653e-05 -1.64276e-05 -0.00108537)
(1.79172e-05 -1.53788e-05 -0.00108108)
(1.58881e-05 -1.46352e-05 -0.00107778)
(1.26667e-05 -1.40996e-05 -0.00107251)
(2.26921e-05 -6.94323e-05 -0.00117947)
(2.55525e-05 -6.04699e-05 -0.00112319)
(2.75149e-05 -5.37319e-05 -0.00109871)
(2.80905e-05 -4.86155e-05 -0.00108596)
(2.72327e-05 -4.48147e-05 -0.0010788)
(2.53048e-05 -4.19165e-05 -0.0010745)
(2.26462e-05 -3.9595e-05 -0.00107124)
(1.96393e-05 -3.78116e-05 -0.00106635)
(5.30825e-05 -9.85905e-05 -0.00116589)
(5.15035e-05 -8.70239e-05 -0.00110916)
(5.07877e-05 -7.86298e-05 -0.00108419)
(4.93866e-05 -7.23716e-05 -0.00107076)
(4.73545e-05 -6.7809e-05 -0.00106273)
(4.50176e-05 -6.4446e-05 -0.00105735)
(4.2697e-05 -6.17899e-05 -0.00105282)
(4.06607e-05 -5.90802e-05 -0.00104658)
(8.98887e-05 -0.000109283 -0.00114625)
(8.22482e-05 -9.85934e-05 -0.00108886)
(7.75342e-05 -9.10415e-05 -0.00106347)
(7.27463e-05 -8.56897e-05 -0.00104947)
(6.79524e-05 -8.19454e-05 -0.00104098)
(6.30894e-05 -7.938e-05 -0.00103538)
(5.82748e-05 -7.75183e-05 -0.00103099)
(5.3334e-05 -7.60468e-05 -0.00102486)
(5.8791e-05 6.75215e-05 -0.00113699)
(5.82422e-05 6.03451e-05 -0.00108172)
(5.82369e-05 5.57822e-05 -0.00105854)
(5.67158e-05 5.22992e-05 -0.0010465)
(5.4311e-05 4.96992e-05 -0.00103975)
(5.14492e-05 4.78297e-05 -0.00103584)
(4.83284e-05 4.64775e-05 -0.00103307)
(4.49855e-05 4.56568e-05 -0.00102904)
(3.03656e-05 4.84118e-05 -0.0011489)
(3.38689e-05 4.33987e-05 -0.00109452)
(3.58287e-05 4.03449e-05 -0.00107179)
(3.62999e-05 3.76322e-05 -0.00106016)
(3.54129e-05 3.54396e-05 -0.00105385)
(3.35975e-05 3.37688e-05 -0.00105034)
(3.1187e-05 3.25434e-05 -0.00104799)
(2.83078e-05 3.17497e-05 -0.00104414)
(1.10715e-05 1.58877e-05 -0.00115528)
(1.64934e-05 1.44615e-05 -0.00110147)
(1.9812e-05 1.40293e-05 -0.00107904)
(2.16007e-05 1.33324e-05 -0.00106785)
(2.1811e-05 1.25772e-05 -0.00106216)
(2.08682e-05 1.1886e-05 -0.0010594)
(1.91052e-05 1.12983e-05 -0.0010578)
(1.66844e-05 1.07455e-05 -0.00105477)
(7.00004e-06 -2.34641e-05 -0.00115533)
(1.24631e-05 -1.98831e-05 -0.00110154)
(1.6016e-05 -1.68527e-05 -0.00107905)
(1.79395e-05 -1.46776e-05 -0.00106785)
(1.82031e-05 -1.3134e-05 -0.00106214)
(1.72135e-05 -1.19895e-05 -0.00105932)
(1.53462e-05 -1.10766e-05 -0.00105765)
(1.30559e-05 -1.02198e-05 -0.0010548)
(1.99691e-05 -5.93342e-05 -0.00114898)
(2.32766e-05 -5.13548e-05 -0.00109505)
(2.56639e-05 -4.54135e-05 -0.00107249)
(2.68196e-05 -4.09042e-05 -0.00106123)
(2.66766e-05 -3.75707e-05 -0.00105544)
(2.55526e-05 -3.50772e-05 -0.00105252)
(2.37812e-05 -3.31313e-05 -0.00105066)
(2.14788e-05 -3.14083e-05 -0.00104718)
(4.55929e-05 -8.37201e-05 -0.0011368)
(4.47302e-05 -7.34324e-05 -0.00108275)
(4.43855e-05 -6.61129e-05 -0.00106024)
(4.32988e-05 -6.05851e-05 -0.00104902)
(4.14091e-05 -5.65824e-05 -0.00104329)
(3.88458e-05 -5.36734e-05 -0.0010405)
(3.57424e-05 -5.15277e-05 -0.00103894)
(3.22192e-05 -4.99195e-05 -0.00103599)
(7.72723e-05 -9.24106e-05 -0.0011197)
(7.15771e-05 -8.25367e-05 -0.00106506)
(6.81113e-05 -7.55999e-05 -0.00104201)
(6.48238e-05 -7.03673e-05 -0.00102995)
(6.15583e-05 -6.64499e-05 -0.00102307)
(5.8409e-05 -6.33713e-05 -0.00101876)
(5.54838e-05 -6.06894e-05 -0.00101531)
(5.27851e-05 -5.81773e-05 -0.00101055)
(5.03496e-05 5.69545e-05 -0.00111518)
(5.04063e-05 5.03821e-05 -0.0010623)
(5.07487e-05 4.63911e-05 -0.00104104)
(4.98161e-05 4.33428e-05 -0.00103045)
(4.79374e-05 4.10631e-05 -0.00102497)
(4.54597e-05 3.94389e-05 -0.00102222)
(4.26942e-05 3.82221e-05 -0.00102061)
(3.98508e-05 3.72494e-05 -0.00101789)
(2.61077e-05 4.1066e-05 -0.00112598)
(2.96961e-05 3.65065e-05 -0.00107391)
(3.19515e-05 3.37407e-05 -0.00105282)
(3.2664e-05 3.13678e-05 -0.00104241)
(3.19915e-05 2.94893e-05 -0.00103718)
(3.03582e-05 2.81098e-05 -0.00103475)
(2.81753e-05 2.71244e-05 -0.00103347)
(2.57186e-05 2.64492e-05 -0.00103117)
(9.84441e-06 1.34974e-05 -0.00113194)
(1.53021e-05 1.22897e-05 -0.00108005)
(1.87554e-05 1.18396e-05 -0.00105891)
(2.06124e-05 1.1168e-05 -0.00104848)
(2.09389e-05 1.04808e-05 -0.00104327)
(2.01674e-05 9.89991e-06 -0.00104088)
(1.86308e-05 9.47787e-06 -0.00103967)
(1.65359e-05 9.28688e-06 -0.00103736)
(6.54211e-06 -1.95487e-05 -0.00113172)
(1.18924e-05 -1.64557e-05 -0.00107983)
(1.53105e-05 -1.40724e-05 -0.00105873)
(1.72556e-05 -1.24961e-05 -0.00104839)
(1.77586e-05 -1.14736e-05 -0.00104328)
(1.71792e-05 -1.07793e-05 -0.00104095)
(1.58257e-05 -1.02666e-05 -0.00103971)
(1.39358e-05 -9.83044e-06 -0.00103712)
(1.74206e-05 -4.98095e-05 -0.00112564)
(2.06007e-05 -4.29296e-05 -0.0010738)
(2.26e-05 -3.80632e-05 -0.00105288)
(2.36043e-05 -3.44429e-05 -0.00104284)
(2.34905e-05 -3.18078e-05 -0.00103813)
(2.24914e-05 -2.98558e-05 -0.00103627)
(2.08578e-05 -2.8345e-05 -0.00103564)
(1.88187e-05 -2.71328e-05 -0.00103398)
(3.92151e-05 -7.06937e-05 -0.00111481)
(3.88024e-05 -6.18366e-05 -0.00106284)
(3.84686e-05 -5.56815e-05 -0.0010419)
(3.77317e-05 -5.09706e-05 -0.00103176)
(3.64293e-05 -4.74805e-05 -0.00102684)
(3.46732e-05 -4.48763e-05 -0.00102466)
(3.263e-05 -4.28565e-05 -0.00102354)
(3.03625e-05 -4.11248e-05 -0.00102126)
(6.61593e-05 -7.84753e-05 -0.00110054)
(6.15224e-05 -6.9991e-05 -0.00104843)
(5.84169e-05 -6.40699e-05 -0.00102728)
(5.54807e-05 -5.94834e-05 -0.00101682)
(5.25457e-05 -5.60039e-05 -0.00101147)
(4.95786e-05 -5.33671e-05 -0.00100891)
(4.66651e-05 -5.12348e-05 -0.00100755)
(4.38432e-05 -4.93256e-05 -0.00100515)
(4.29645e-05 4.77234e-05 -0.00109958)
(4.33761e-05 4.20381e-05 -0.00104848)
(4.37472e-05 3.88314e-05 -0.00102851)
(4.31082e-05 3.63315e-05 -0.00101888)
(4.1622e-05 3.44772e-05 -0.00101422)
(3.96337e-05 3.31186e-05 -0.0010122)
(3.74121e-05 3.20889e-05 -0.00101131)
(3.51523e-05 3.12941e-05 -0.00100953)
(2.24491e-05 3.44696e-05 -0.00110898)
(2.59501e-05 3.04897e-05 -0.00105844)
(2.81053e-05 2.81826e-05 -0.00103858)
(2.88607e-05 2.62015e-05 -0.00102905)
(2.83804e-05 2.46367e-05 -0.00102448)
(2.71058e-05 2.34471e-05 -0.00102257)
(2.53192e-05 2.2571e-05 -0.00102178)
(2.32407e-05 2.19755e-05 -0.00102008)
(8.91493e-06 1.16597e-05 -0.00111404)
(1.40663e-05 1.06773e-05 -0.00106369)
(1.7127e-05 1.02707e-05 -0.00104381)
(1.88075e-05 9.62156e-06 -0.00103425)
(1.91336e-05 8.94955e-06 -0.00102969)
(1.84863e-05 8.36335e-06 -0.00102783)
(1.71556e-05 7.89612e-06 -0.00102715)
(1.53501e-05 7.58653e-06 -0.0010256)
(6.17301e-06 -1.56768e-05 -0.0011137)
(1.11436e-05 -1.30286e-05 -0.00106337)
(1.39774e-05 -1.11421e-05 -0.00104346)
(1.56801e-05 -9.9946e-06 -0.00103389)
(1.61589e-05 -9.3162e-06 -0.00102934)
(1.57099e-05 -8.89533e-06 -0.00102752)
(1.45692e-05 -8.59666e-06 -0.00102691)
(1.29299e-05 -8.31225e-06 -0.00102548)
(1.52315e-05 -4.13462e-05 -0.00110834)
(1.81965e-05 -3.55781e-05 -0.00105804)
(1.96757e-05 -3.17276e-05 -0.00103815)
(2.05755e-05 -2.88898e-05 -0.00102865)
(2.06219e-05 -2.6849e-05 -0.0010242)
(1.99499e-05 -2.53504e-05 -0.00102248)
(1.87121e-05 -2.42005e-05 -0.00102197)
(1.70403e-05 -2.32338e-05 -0.00102053)
(3.37266e-05 -5.97155e-05 -0.00109918)
(3.34296e-05 -5.2339e-05 -0.00104886)
(3.28196e-05 -4.73815e-05 -0.00102903)
(3.21494e-05 -4.34536e-05 -0.00101952)
(3.10836e-05 -4.04661e-05 -0.00101504)
(2.96503e-05 -3.8179e-05 -0.00101329)
(2.79106e-05 -3.63802e-05 -0.00101274)
(2.59512e-05 -3.48993e-05 -0.00101131)
(5.71806e-05 -6.7223e-05 -0.00108735)
(5.32773e-05 -6.00374e-05 -0.00103689)
(5.04163e-05 -5.49945e-05 -0.00101685)
(4.79231e-05 -5.08171e-05 -0.00100697)
(4.55184e-05 -4.74847e-05 -0.00100195)
(4.31472e-05 -4.48255e-05 -0.000999562)
(4.07914e-05 -4.26366e-05 -0.000998281)
(3.83826e-05 -4.08119e-05 -0.000996182)
(3.66353e-05 4.0111e-05 -0.00108888)
(3.70946e-05 3.53818e-05 -0.0010389)
(3.72709e-05 3.28747e-05 -0.0010197)
(3.67228e-05 3.08372e-05 -0.00101061)
(3.55327e-05 2.92648e-05 -0.00100631)
(3.39525e-05 2.80527e-05 -0.00100459)
(3.21476e-05 2.71027e-05 -0.00100401)
(3.0244e-05 2.63669e-05 -0.00100275)
(1.93217e-05 2.90262e-05 -0.00109685)
(2.23712e-05 2.57046e-05 -0.00104741)
(2.41485e-05 2.3893e-05 -0.00102838)
(2.49196e-05 2.22851e-05 -0.00101941)
(2.4707e-05 2.09874e-05 -0.00101523)
(2.38069e-05 1.99835e-05 -0.00101363)
(2.24336e-05 1.92332e-05 -0.00101319)
(2.07456e-05 1.87372e-05 -0.00101209)
(7.99015e-06 1.01317e-05 -0.00110125)
(1.25226e-05 9.36593e-06 -0.00105204)
(1.51312e-05 9.09139e-06 -0.00103294)
(1.67172e-05 8.55747e-06 -0.00102389)
(1.71545e-05 7.97135e-06 -0.00101965)
(1.6726e-05 7.42885e-06 -0.00101802)
(1.56561e-05 6.97785e-06 -0.0010176)
(1.41089e-05 6.68873e-06 -0.00101654)
(5.60625e-06 -1.25179e-05 -0.00110127)
(9.98173e-06 -1.02777e-05 -0.0010521)
(1.23738e-05 -8.74178e-06 -0.00103289)
(1.39829e-05 -7.86851e-06 -0.00102367)
(1.45335e-05 -7.42149e-06 -0.00101928)
(1.42396e-05 -7.20339e-06 -0.00101754)
(1.32868e-05 -7.09016e-06 -0.00101702)
(1.18182e-05 -6.97226e-06 -0.00101586)
(1.31101e-05 -3.43795e-05 -0.00109698)
(1.57022e-05 -2.95545e-05 -0.00104781)
(1.68678e-05 -2.64356e-05 -0.0010285)
(1.77236e-05 -2.41554e-05 -0.00101919)
(1.787e-05 -2.25481e-05 -0.00101476)
(1.7392e-05 -2.13884e-05 -0.00101301)
(1.63762e-05 -2.05168e-05 -0.00101252)
(1.49268e-05 -1.98078e-05 -0.00101144)
(2.89685e-05 -5.07241e-05 -0.00108936)
(2.86714e-05 -4.4552e-05 -0.00104011)
(2.80321e-05 -4.0452e-05 -0.0010207)
(2.75497e-05 -3.71062e-05 -0.00101124)
(2.67659e-05 -3.45161e-05 -0.00100661)
(2.56659e-05 -3.25061e-05 -0.00100465)
(2.42624e-05 -3.09154e-05 -0.00100395)
(2.26054e-05 -2.96056e-05 -0.00100268)
(4.95445e-05 -5.7934e-05 -0.00107945)
(4.60559e-05 -5.18167e-05 -0.00102997)
(4.34657e-05 -4.74757e-05 -0.00101038)
(4.13431e-05 -4.36882e-05 -0.00100065)
(3.9324e-05 -4.05901e-05 -0.000995694)
(3.73355e-05 -3.807e-05 -0.00099338)
(3.53375e-05 -3.59874e-05 -0.000992324)
(3.33317e-05 -3.42142e-05 -0.000990691)
(3.10562e-05 3.37535e-05 -0.00108137)
(3.13561e-05 2.99545e-05 -0.00103201)
(3.13526e-05 2.7986e-05 -0.00101309)
(3.09427e-05 2.62671e-05 -0.0010041)
(3.00756e-05 2.48592e-05 -0.000999809)
(2.89041e-05 2.3727e-05 -0.00099806)
(2.75137e-05 2.28412e-05 -0.00099751)
(2.60003e-05 2.21884e-05 -0.000996519)
(1.61897e-05 2.43989e-05 -0.0010883)
(1.86021e-05 2.16485e-05 -0.00103938)
(2.01773e-05 2.02215e-05 -0.00102061)
(2.10101e-05 1.89041e-05 -0.00101176)
(2.10282e-05 1.78139e-05 -0.00100764)
(2.04304e-05 1.69438e-05 -0.00100609)
(1.93608e-05 1.62798e-05 -0.00100575)
(1.7956e-05 1.5831e-05 -0.00100497)
(6.62626e-06 8.51604e-06 -0.00109238)
(1.04529e-05 7.99642e-06 -0.00104368)
(1.28484e-05 7.89044e-06 -0.00102485)
(1.43732e-05 7.53648e-06 -0.00101595)
(1.49107e-05 7.09287e-06 -0.0010118)
(1.46381e-05 6.65781e-06 -0.00101024)
(1.37371e-05 6.28512e-06 -0.00100991)
(1.2356e-05 6.04495e-06 -0.00100915)
(4.67873e-06 -1.0304e-05 -0.00109289)
(8.45983e-06 -8.31389e-06 -0.00104426)
(1.07605e-05 -6.9207e-06 -0.00102526)
(1.23162e-05 -6.11348e-06 -0.00101613)
(1.28919e-05 -5.71364e-06 -0.00101177)
(1.26863e-05 -5.54845e-06 -0.00101003)
(1.18637e-05 -5.49758e-06 -0.00100954)
(1.05622e-05 -5.44573e-06 -0.00100866)
(1.10169e-05 -2.88302e-05 -0.00108965)
(1.33306e-05 -2.46868e-05 -0.00104098)
(1.46011e-05 -2.19486e-05 -0.0010218)
(1.54765e-05 -1.99812e-05 -0.00101244)
(1.56527e-05 -1.86282e-05 -0.00100784)
(1.52233e-05 -1.76967e-05 -0.00100589)
(1.42956e-05 -1.70354e-05 -0.00100524)
(1.29804e-05 -1.65143e-05 -0.00100424)
(2.47025e-05 -4.32778e-05 -0.00108335)
(2.45467e-05 -3.79072e-05 -0.00103453)
(2.42569e-05 -3.42636e-05 -0.00101516)
(2.39714e-05 -3.13249e-05 -0.00100555)
(2.33413e-05 -2.90769e-05 -0.00100069)
(2.23691e-05 -2.73591e-05 -0.00099849)
(2.10956e-05 -2.6023e-05 -0.000997622)
(1.95801e-05 -2.49481e-05 -0.000996435)
(4.27648e-05 -4.99162e-05 -0.00107477)
(3.98135e-05 -4.4506e-05 -0.00102565)
(3.77815e-05 -4.05854e-05 -0.00100607)
(3.60796e-05 -3.71876e-05 -0.000996204)
(3.43955e-05 -3.44291e-05 -0.000991066)
(3.26729e-05 -3.22e-05 -0.000988591)
(3.08814e-05 -3.03849e-05 -0.000987469)
(2.90264e-05 -2.88911e-05 -0.000986074)
(2.61232e-05 2.87753e-05 -0.00107523)
(2.62952e-05 2.55866e-05 -0.00102624)
(2.63791e-05 2.39192e-05 -0.00100734)
(2.60756e-05 2.24192e-05 -0.000998239)
(2.53896e-05 2.11434e-05 -0.000993793)
(2.44123e-05 2.01086e-05 -0.000991889)
(2.31996e-05 1.93144e-05 -0.000991251)
(2.18552e-05 1.87638e-05 -0.000990424)
(1.30988e-05 2.03215e-05 -0.0010811)
(1.5098e-05 1.81517e-05 -0.00103225)
(1.66583e-05 1.69969e-05 -0.00101345)
(1.75261e-05 1.59307e-05 -0.00100451)
(1.76687e-05 1.50333e-05 -0.00100029)
(1.72341e-05 1.43187e-05 -0.000998629)
(1.63414e-05 1.37918e-05 -0.000998227)
(1.51339e-05 1.3466e-05 -0.000997593)
(5.07656e-06 6.744e-06 -0.00108469)
(8.33674e-06 6.46652e-06 -0.00103599)
(1.07037e-05 6.51972e-06 -0.0010172)
(1.21504e-05 6.35828e-06 -0.00100828)
(1.27078e-05 6.07373e-06 -0.00100409)
(1.25261e-05 5.7621e-06 -0.00100247)
(1.17694e-05 5.48316e-06 -0.0010021)
(1.06117e-05 5.2997e-06 -0.00100148)
(3.60265e-06 -8.94154e-06 -0.00108546)
(6.96603e-06 -7.12704e-06 -0.00103684)
(9.34567e-06 -5.77388e-06 -0.00101795)
(1.07665e-05 -4.94312e-06 -0.00100889)
(1.12527e-05 -4.50217e-06 -0.00100454)
(1.10244e-05 -4.30899e-06 -0.00100277)
(1.02504e-05 -4.24966e-06 -0.00100225)
(9.09709e-06 -4.21881e-06 -0.00100149)
(9.13502e-06 -2.44744e-05 -0.00108318)
(1.13589e-05 -2.07974e-05 -0.00103457)
(1.28766e-05 -1.82736e-05 -0.00101552)
(1.37069e-05 -1.64924e-05 -0.00100622)
(1.38209e-05 -1.52863e-05 -0.0010016)
(1.33575e-05 -1.44866e-05 -0.000999573)
(1.24586e-05 -1.39497e-05 -0.000998815)
(1.12419e-05 -1.35518e-05 -0.000997869)
(2.09679e-05 -3.69194e-05 -0.00107804)
(2.11221e-05 -3.20891e-05 -0.0010293)
(2.12789e-05 -2.87221e-05 -0.00101003)
(2.11189e-05 -2.61229e-05 -0.00100045)
(2.05365e-05 -2.42e-05 -0.000995556)
(1.95973e-05 -2.27837e-05 -0.000993279)
(1.83888e-05 -2.17242e-05 -0.000992329)
(1.69849e-05 -2.08982e-05 -0.000991252)
(3.66377e-05 -4.27999e-05 -0.00107048)
(3.43802e-05 -3.78432e-05 -0.00102149)
(3.29811e-05 -3.41969e-05 -0.001002)
(3.16203e-05 -3.12242e-05 -0.000992188)
(3.01581e-05 -2.88931e-05 -0.000987067)
(2.85935e-05 -2.70655e-05 -0.000984588)
(2.69343e-05 -2.56226e-05 -0.000983483)
(2.51981e-05 -2.44751e-05 -0.000982294)
(2.2159e-05 2.49437e-05 -0.00106932)
(2.24315e-05 2.22416e-05 -0.00102053)
(2.27041e-05 2.0694e-05 -0.00100174)
(2.24449e-05 1.93499e-05 -0.000992578)
(2.18212e-05 1.81861e-05 -0.000987992)
(2.09199e-05 1.72435e-05 -0.000985927)
(1.9815e-05 1.65256e-05 -0.000985145)
(1.86107e-05 1.60524e-05 -0.000984346)
(1.07006e-05 1.69579e-05 -0.00107382)
(1.25517e-05 1.53468e-05 -0.00102503)
(1.39791e-05 1.44079e-05 -0.0010063)
(1.47237e-05 1.35298e-05 -0.000997327)
(1.48294e-05 1.27628e-05 -0.000992996)
(1.44354e-05 1.21393e-05 -0.000991206)
(1.36608e-05 1.16731e-05 -0.000990689)
(1.2667e-05 1.13802e-05 -0.000990109)
(3.93816e-06 5.19859e-06 -0.00107651)
(6.75332e-06 5.13887e-06 -0.00102787)
(8.86095e-06 5.27408e-06 -0.00100923)
(1.0099e-05 5.22576e-06 -0.00100036)
(1.05495e-05 5.06132e-06 -0.000996147)
(1.03709e-05 4.85643e-06 -0.000994462)
(9.71268e-06 4.66811e-06 -0.000994022)
(8.76727e-06 4.54641e-06 -0.000993479)
(2.93424e-06 -8.11253e-06 -0.00107718)
(5.83492e-06 -6.45519e-06 -0.00102868)
(7.93052e-06 -5.17671e-06 -0.00101007)
(9.15736e-06 -4.34622e-06 -0.00100119)
(9.56148e-06 -3.86285e-06 -0.000996928)
(9.34417e-06 -3.61333e-06 -0.000995154)
(8.67152e-06 -3.49858e-06 -0.000994592)
(7.7131e-06 -3.42671e-06 -0.000993901)
(7.79174e-06 -2.11114e-05 -0.00107562)
(9.8329e-06 -1.78868e-05 -0.00102719)
(1.1247e-05 -1.55708e-05 -0.0010085)
(1.19576e-05 -1.39218e-05 -0.000999456)
(1.20115e-05 -1.2811e-05 -0.000994998)
(1.15632e-05 -1.20881e-05 -0.00099303)
(1.07633e-05 -1.16232e-05 -0.000992288)
(9.75005e-06 -1.12958e-05 -0.00099145)
(1.79052e-05 -3.1448e-05 -0.00107151)
(1.83158e-05 -2.7145e-05 -0.00102301)
(1.86199e-05 -2.40826e-05 -0.00100414)
(1.84752e-05 -2.17908e-05 -0.000994862)
(1.79004e-05 -2.01444e-05 -0.000990168)
(1.70048e-05 -1.89761e-05 -0.000987989)
(1.58922e-05 -1.81437e-05 -0.000987077)
(1.46434e-05 -1.75234e-05 -0.000986119)
(3.13115e-05 -3.6412e-05 -0.00106499)
(2.97019e-05 -3.19009e-05 -0.0010163)
(2.86794e-05 -2.86032e-05 -0.000997228)
(2.75232e-05 -2.60602e-05 -0.000987743)
(2.62172e-05 -2.41256e-05 -0.000982847)
(2.47957e-05 -2.26547e-05 -0.0009805)
(2.32973e-05 -2.15234e-05 -0.000979476)
(2.17539e-05 -2.06344e-05 -0.000978461)
(1.9435e-05 2.1779e-05 -0.00106335)
(1.98311e-05 1.95203e-05 -0.0010149)
(1.99954e-05 1.81695e-05 -0.000996369)
(1.96872e-05 1.69342e-05 -0.000987269)
(1.90287e-05 1.58669e-05 -0.000982653)
(1.81351e-05 1.49992e-05 -0.000980524)
(1.71053e-05 1.43229e-05 -0.000979691)
(1.60515e-05 1.38576e-05 -0.000978963)
(9.36418e-06 1.46136e-05 -0.00106664)
(1.10353e-05 1.33165e-05 -0.00101826)
(1.20986e-05 1.25734e-05 -0.000999801)
(1.25954e-05 1.18107e-05 -0.000990873)
(1.2572e-05 1.11188e-05 -0.000986477)
(1.21525e-05 1.05468e-05 -0.000984572)
(1.14482e-05 1.01134e-05 -0.000983946)
(1.06084e-05 9.84068e-06 -0.000983393)
(3.41471e-06 4.22425e-06 -0.00106844)
(5.76742e-06 4.20346e-06 -0.00102022)
(7.34047e-06 4.36278e-06 -0.00100191)
(8.2808e-06 4.33225e-06 -0.000993139)
(8.60529e-06 4.19791e-06 -0.000988899)
(8.43691e-06 4.03245e-06 -0.000987126)
(7.9002e-06 3.88923e-06 -0.000986591)
(7.15861e-06 3.82089e-06 -0.000986073)
(2.49573e-06 -7.44702e-06 -0.00106882)
(4.87166e-06 -6.02442e-06 -0.0010208)
(6.4757e-06 -4.87191e-06 -0.00100257)
(7.43366e-06 -4.09404e-06 -0.000993879)
(7.76123e-06 -3.61825e-06 -0.000989679)
(7.59999e-06 -3.34897e-06 -0.000987907)
(7.08255e-06 -3.2035e-06 -0.000987336)
(6.36774e-06 -3.0992e-06 -0.000986747)
(6.75226e-06 -1.85104e-05 -0.00106761)
(8.44279e-06 -1.5714e-05 -0.00101968)
(9.53756e-06 -1.36571e-05 -0.00100144)
(1.00761e-05 -1.21545e-05 -0.000992675)
(1.00918e-05 -1.11241e-05 -0.000988371)
(9.71027e-06 -1.04446e-05 -0.000986473)
(9.04492e-06 -1.0009e-05 -0.00098577)
(8.22159e-06 -9.70869e-06 -0.000985045)
(1.54099e-05 -2.69235e-05 -0.00106429)
(1.57939e-05 -2.31748e-05 -0.00101633)
(1.59855e-05 -2.05033e-05 -0.000997988)
(1.58123e-05 -1.84977e-05 -0.00098908)
(1.52961e-05 -1.70553e-05 -0.000984619)
(1.45361e-05 -1.60397e-05 -0.000982569)
(1.36159e-05 -1.53322e-05 -0.000981732)
(1.26139e-05 -1.48155e-05 -0.000980897)
(2.6832e-05 -3.08829e-05 -0.00105883)
(2.55471e-05 -2.68992e-05 -0.00101073)
(2.46203e-05 -2.40696e-05 -0.000992235)
(2.35799e-05 -2.19062e-05 -0.000983144)
(2.24253e-05 -2.02708e-05 -0.000978499)
(2.11871e-05 -1.90442e-05 -0.000976292)
(1.99023e-05 -1.81161e-05 -0.000975337)
(1.86054e-05 -1.73901e-05 -0.000974431)
(1.71823e-05 1.91192e-05 -0.00105779)
(1.76031e-05 1.7151e-05 -0.00100987)
(1.76906e-05 1.59494e-05 -0.00099162)
(1.73283e-05 1.48503e-05 -0.000982649)
(1.665e-05 1.39066e-05 -0.000978082)
(1.57788e-05 1.31397e-05 -0.000975965)
(1.48103e-05 1.25408e-05 -0.000975147)
(1.38414e-05 1.21279e-05 -0.00097451)
(8.52242e-06 1.29338e-05 -0.00106057)
(9.96166e-06 1.18505e-05 -0.00101279)
(1.06523e-05 1.12115e-05 -0.000994653)
(1.09262e-05 1.0496e-05 -0.000985812)
(1.07879e-05 9.83656e-06 -0.000981388)
(1.03546e-05 9.28405e-06 -0.000979415)
(9.7241e-06 8.86053e-06 -0.00097873)
(9.00889e-06 8.60271e-06 -0.000978218)
(3.14642e-06 3.72425e-06 -0.00106197)
(5.02701e-06 3.6965e-06 -0.00101435)
(6.07887e-06 3.82252e-06 -0.000996326)
(6.73523e-06 3.75055e-06 -0.000987615)
(6.93683e-06 3.58888e-06 -0.000983321)
(6.77257e-06 3.41107e-06 -0.000981459)
(6.34247e-06 3.26396e-06 -0.000980861)
(5.76672e-06 3.20472e-06 -0.000980411)
(2.19679e-06 -6.72526e-06 -0.00106213)
(4.0083e-06 -5.52178e-06 -0.00101463)
(5.09814e-06 -4.53556e-06 -0.000996691)
(5.81049e-06 -3.86235e-06 -0.00098806)
(6.05885e-06 -3.43923e-06 -0.000983822)
(5.9368e-06 -3.18244e-06 -0.00098198)
(5.53251e-06 -3.02431e-06 -0.000981369)
(4.96255e-06 -2.88886e-06 -0.000980871)
(5.85726e-06 -1.63227e-05 -0.00106096)
(7.06967e-06 -1.39527e-05 -0.00101353)
(7.78311e-06 -1.21826e-05 -0.000995614)
(8.18201e-06 -1.08555e-05 -0.000986979)
(8.20728e-06 -9.91984e-06 -0.00098271)
(7.93592e-06 -9.28367e-06 -0.000980811)
(7.43497e-06 -8.86428e-06 -0.000980121)
(6.80354e-06 -8.56534e-06 -0.000979517)
(1.32826e-05 -2.32197e-05 -0.00105811)
(1.34341e-05 -2.00509e-05 -0.00101067)
(1.34142e-05 -1.77855e-05 -0.000992709)
(1.32111e-05 -1.60347e-05 -0.000983997)
(1.27844e-05 -1.47479e-05 -0.00097963)
(1.21866e-05 -1.38309e-05 -0.000977624)
(1.14631e-05 -1.31953e-05 -0.000976829)
(1.06787e-05 -1.27385e-05 -0.000976131)
(2.30156e-05 -2.62823e-05 -0.00105358)
(2.18153e-05 -2.29082e-05 -0.00100605)
(2.08789e-05 -2.05552e-05 -0.000987988)
(1.99386e-05 -1.86893e-05 -0.000979139)
(1.89538e-05 -1.72509e-05 -0.000974622)
(1.79352e-05 -1.61557e-05 -0.000972473)
(1.68968e-05 -1.53219e-05 -0.000971549)
(1.58654e-05 -1.46679e-05 -0.000970745)
(1.48791e-05 1.64758e-05 -0.00105347)
(1.52981e-05 1.47459e-05 -0.00100587)
(1.53238e-05 1.37565e-05 -0.000987895)
(1.49764e-05 1.28453e-05 -0.000979086)
(1.43695e-05 1.20559e-05 -0.000974627)
(1.36118e-05 1.14045e-05 -0.000972593)
(1.27801e-05 1.08869e-05 -0.000971862)
(1.195e-05 1.05214e-05 -0.000971389)
(7.57021e-06 1.14019e-05 -0.00105622)
(8.80887e-06 1.04451e-05 -0.0010089)
(9.27399e-06 9.88105e-06 -0.000991016)
(9.42801e-06 9.23584e-06 -0.000982266)
(9.24555e-06 8.63707e-06 -0.000977855)
(8.83402e-06 8.12945e-06 -0.000975869)
(8.27749e-06 7.73242e-06 -0.000975194)
(7.65455e-06 7.48726e-06 -0.000974804)
(2.78126e-06 3.32468e-06 -0.00105771)
(4.32252e-06 3.31193e-06 -0.00101052)
(5.05928e-06 3.40542e-06 -0.00099268)
(5.53631e-06 3.30025e-06 -0.000983975)
(5.64503e-06 3.12528e-06 -0.00097961)
(5.47337e-06 2.94877e-06 -0.000977661)
(5.09692e-06 2.81376e-06 -0.000977017)
(4.58784e-06 2.77961e-06 -0.000976666)
(1.851e-06 -5.92492e-06 -0.00105781)
(3.26131e-06 -4.87323e-06 -0.00101068)
(3.99416e-06 -4.04371e-06 -0.00099287)
(4.52077e-06 -3.49539e-06 -0.000984201)
(4.70659e-06 -3.15123e-06 -0.000979863)
(4.60748e-06 -2.93662e-06 -0.000977925)
(4.28445e-06 -2.79367e-06 -0.000977271)
(3.80752e-06 -2.65128e-06 -0.00097689)
(4.99782e-06 -1.42817e-05 -0.00105659)
(5.83763e-06 -1.22648e-05 -0.00100946)
(6.25473e-06 -1.07768e-05 -0.000991657)
(6.54112e-06 -9.63771e-06 -0.000982991)
(6.5614e-06 -8.82045e-06 -0.000978641)
(6.35508e-06 -8.25364e-06 -0.000976675)
(5.96042e-06 -7.87375e-06 -0.000975981)
(5.44274e-06 -7.59866e-06 -0.000975546)
(1.13821e-05 -2.0079e-05 -0.001054)
(1.13432e-05 -1.74293e-05 -0.00100687)
(1.11719e-05 -1.55323e-05 -0.000989042)
(1.09735e-05 -1.40087e-05 -0.00098033)
(1.06377e-05 -1.28611e-05 -0.000975914)
(1.01781e-05 -1.20282e-05 -0.000973864)
(9.61082e-06 -1.14487e-05 -0.000973078)
(8.97784e-06 -1.10412e-05 -0.000972548)
(1.97116e-05 -2.25498e-05 -0.00105019)
(1.85707e-05 -1.97398e-05 -0.001003)
(1.76495e-05 -1.77866e-05 -0.000985125)
(1.68259e-05 -1.61583e-05 -0.000976329)
(1.60045e-05 -1.48709e-05 -0.00097181)
(1.51762e-05 -1.38705e-05 -0.000969652)
(1.43313e-05 -1.3104e-05 -0.000968762)
(1.34817e-05 -1.25131e-05 -0.000968143)
(1.25644e-05 1.37435e-05 -0.00105086)
(1.29676e-05 1.22597e-05 -0.00100341)
(1.29068e-05 1.16054e-05 -0.000985667)
(1.26455e-05 1.08895e-05 -0.000976968)
(1.21734e-05 1.02487e-05 -0.000972577)
(1.15836e-05 9.69779e-06 -0.000970614)
(1.09257e-05 9.24446e-06 -0.000969987)
(1.02514e-05 8.91465e-06 -0.000969755)
(6.41205e-06 9.68018e-06 -0.00105361)
(7.47256e-06 8.81353e-06 -0.00100653)
(7.86113e-06 8.37117e-06 -0.000988832)
(8.02483e-06 7.83423e-06 -0.000980143)
(7.90198e-06 7.33545e-06 -0.000975744)
(7.58675e-06 6.90875e-06 -0.000973761)
(7.14204e-06 6.57418e-06 -0.000973119)
(6.60969e-06 6.37765e-06 -0.000972903)
(2.27645e-06 2.73509e-06 -0.00105528)
(3.63202e-06 2.77568e-06 -0.0010083)
(4.2426e-06 2.8835e-06 -0.000990585)
(4.64692e-06 2.7984e-06 -0.000981878)
(4.73739e-06 2.64456e-06 -0.000977461)
(4.59331e-06 2.48789e-06 -0.000975464)
(4.27575e-06 2.37041e-06 -0.000974816)
(3.82465e-06 2.35164e-06 -0.000974619)
(1.50109e-06 -5.1517e-06 -0.00105546)
(2.68357e-06 -4.18996e-06 -0.00100848)
(3.2481e-06 -3.46853e-06 -0.000990734)
(3.67431e-06 -3.00809e-06 -0.000982003)
(3.80147e-06 -2.72671e-06 -0.000977571)
(3.69505e-06 -2.55463e-06 -0.00097556)
(3.40677e-06 -2.43987e-06 -0.000974901)
(2.97312e-06 -2.31649e-06 -0.000974699)
(4.2177e-06 -1.23139e-05 -0.00105425)
(4.89626e-06 -1.05631e-05 -0.00100725)
(5.16967e-06 -9.29964e-06 -0.000989466)
(5.38927e-06 -8.33432e-06 -0.00098071)
(5.39536e-06 -7.64063e-06 -0.00097625)
(5.2158e-06 -7.15849e-06 -0.000974205)
(4.88165e-06 -6.83619e-06 -0.00097351)
(4.42471e-06 -6.60642e-06 -0.000973276)
(9.71472e-06 -1.73037e-05 -0.00105187)
(9.6407e-06 -1.50533e-05 -0.00100485)
(9.43786e-06 -1.34548e-05 -0.000987049)
(9.27312e-06 -1.21388e-05 -0.000978257)
(9.00181e-06 -1.11375e-05 -0.00097375)
(8.62953e-06 -1.04061e-05 -0.00097165)
(8.16497e-06 -9.89955e-06 -0.000970898)
(7.62716e-06 -9.55743e-06 -0.000970614)
(1.69309e-05 -1.94784e-05 -0.00104863)
(1.59143e-05 -1.70903e-05 -0.00100156)
(1.50919e-05 -1.54319e-05 -0.000983733)
(1.44072e-05 -1.39978e-05 -0.00097489)
(1.3731e-05 -1.28484e-05 -0.000970314)
(1.30459e-05 -1.19492e-05 -0.000968136)
(1.23349e-05 -1.12631e-05 -0.000967304)
(1.15855e-05 -1.07564e-05 -0.000966944)
(1.06049e-05 1.11639e-05 -0.00105005)
(1.09474e-05 1.00523e-05 -0.00100278)
(1.0824e-05 9.63906e-06 -0.000985078)
(1.07076e-05 9.01807e-06 -0.000976365)
(1.03892e-05 8.47068e-06 -0.00097195)
(9.96906e-06 7.98584e-06 -0.000969994)
(9.48863e-06 7.56745e-06 -0.000969443)
(8.95904e-06 7.26262e-06 -0.000969444)
(5.35923e-06 7.84444e-06 -0.00105257)
(6.19207e-06 7.11234e-06 -0.00100557)
(6.5987e-06 6.79829e-06 -0.000987912)
(6.87122e-06 6.35891e-06 -0.000979202)
(6.86015e-06 5.95693e-06 -0.000974778)
(6.67517e-06 5.61187e-06 -0.000972798)
(6.36844e-06 5.3367e-06 -0.000972218)
(5.96754e-06 5.17457e-06 -0.000972215)
(1.90506e-06 1.96657e-06 -0.00105411)
(3.06185e-06 2.10915e-06 -0.0010072)
(3.66349e-06 2.28013e-06 -0.000989522)
(4.09602e-06 2.24064e-06 -0.000980781)
(4.20745e-06 2.13385e-06 -0.000976324)
(4.09864e-06 2.01711e-06 -0.000974316)
(3.83284e-06 1.92811e-06 -0.000973723)
(3.44387e-06 1.92094e-06 -0.000973746)
(1.3474e-06 -4.49261e-06 -0.00105431)
(2.37243e-06 -3.5905e-06 -0.00100739)
(2.88753e-06 -2.92141e-06 -0.000989649)
(3.27976e-06 -2.5099e-06 -0.000980866)
(3.37723e-06 -2.2675e-06 -0.000976374)
(3.26441e-06 -2.12606e-06 -0.000974335)
(3.00114e-06 -2.03752e-06 -0.000973719)
(2.61121e-06 -1.94245e-06 -0.000973744)
(3.6688e-06 -1.04664e-05 -0.00105316)
(4.2694e-06 -8.93084e-06 -0.00100623)
(4.53345e-06 -7.82796e-06 -0.000988457)
(4.74661e-06 -6.99647e-06 -0.000979635)
(4.73991e-06 -6.41359e-06 -0.000975114)
(4.56716e-06 -6.01995e-06 -0.000973051)
(4.27345e-06 -5.76829e-06 -0.000972417)
(3.87766e-06 -5.6026e-06 -0.000972435)
(8.41207e-06 -1.4792e-05 -0.00105104)
(8.3807e-06 -1.28435e-05 -0.00100408)
(8.24882e-06 -1.14538e-05 -0.00098627)
(8.14954e-06 -1.0309e-05 -0.000977411)
(7.9232e-06 -9.45146e-06 -0.000972842)
(7.59704e-06 -8.83658e-06 -0.000970729)
(7.19292e-06 -8.42162e-06 -0.000970047)
(6.72013e-06 -8.15966e-06 -0.000970039)
(1.47126e-05 -1.68079e-05 -0.00104826)
(1.38485e-05 -1.47299e-05 -0.00100125)
(1.31979e-05 -1.3269e-05 -0.000983417)
(1.26622e-05 -1.19914e-05 -0.000974523)
(1.21012e-05 -1.09821e-05 -0.000969916)
(1.15148e-05 -1.02008e-05 -0.000967765)
(1.08985e-05 -9.60877e-06 -0.000967047)
(1.02291e-05 -9.18795e-06 -0.000966998)
(9.09274e-06 9.28803e-06 -0.00105052)
(9.4181e-06 8.37769e-06 -0.00100334)
(9.40317e-06 7.91022e-06 -0.000985492)
(9.39253e-06 7.31546e-06 -0.000976673)
(9.18699e-06 6.80625e-06 -0.000972204)
(8.87994e-06 6.36793e-06 -0.000970265)
(8.54029e-06 5.97339e-06 -0.000969868)
(8.13122e-06 5.6997e-06 -0.00097001)
(4.51583e-06 6.29542e-06 -0.00105258)
(5.28391e-06 5.67303e-06 -0.00100548)
(5.81893e-06 5.3857e-06 -0.000987654)
(6.18661e-06 5.01297e-06 -0.000978837)
(6.25005e-06 4.69201e-06 -0.000974359)
(6.13921e-06 4.42331e-06 -0.000972397)
(5.92356e-06 4.20877e-06 -0.00097193)
(5.62772e-06 4.06998e-06 -0.000972188)
(1.63504e-06 1.35668e-06 -0.00105356)
(2.72435e-06 1.555e-06 -0.00100661)
(3.43971e-06 1.7291e-06 -0.000988836)
(3.91285e-06 1.71735e-06 -0.000980043)
(4.03014e-06 1.652e-06 -0.000975576)
(3.92233e-06 1.57754e-06 -0.000973612)
(3.67146e-06 1.51965e-06 -0.000973126)
(3.32314e-06 1.51519e-06 -0.00097336)
(1.27581e-06 -3.87765e-06 -0.00105358)
(2.25744e-06 -3.03053e-06 -0.00100666)