/*--------------------------------*- C++ -*----------------------------------*\
| =========                 |                                                 |
| \\      /  F ield         | OpenFOAM: The Open Source CFD Toolbox           |
|  \\    /   O peration     | Version:  plus.master.MPPICInterFoam            |
|   \\  /    A nd           | Web:      www.OpenFOAM.com                      |
|    \\/     M anipulation  |                                                 |
\*---------------------------------------------------------------------------*/
FoamFile
{
    version     2.0;
    format      ascii;
    class       volScalarField;
    location    "9";
    object      k;
}
// * * * * * * * * * * * * * * * * * * * * * * * * * * * * * * * * * * * * * //

dimensions      [0 2 -2 0 0 0 0];

internalField   nonuniform List<scalar> 
11821
(
0.000393653
0.00124665
0.00443666
0.00521288
0.00186951
0.000453904
0.000206788
0.000926259
0.00495125
0.019838
0.0273166
0.0112306
0.00266792
0.000532236
0.00301891
0.0162899
0.0231571
0.0416596
0.0170044
0.0123535
0.00236256
0.0063938
0.0307918
0.0491976
0.0426705
0.0445193
0.0225321
0.00450287
0.00387243
0.0188979
0.0248128
0.0435585
0.0201285
0.0152122
0.00323045
0.00112804
0.00546846
0.0207751
0.0324003
0.0128453
0.00402517
0.000850754
0.000441609
0.00136466
0.00468251
0.00643176
0.00224533
0.000680846
0.000273722
0.000990534
0.0036785
0.0102375
0.0115243
0.00361031
0.00104475
0.000685683
0.00304609
0.014715
0.0426805
0.0633246
0.0215096
0.00470195
0.00102295
0.00931695
0.0387445
0.0518767
0.0929709
0.0429003
0.0185402
0.00301475
0.0169765
0.072636
0.10777
0.123043
0.137658
0.0384456
0.00582922
0.0115374
0.0445121
0.0573188
0.111273
0.0475616
0.0272699
0.00505989
0.00383061
0.0171275
0.0483796
0.0810442
0.0313135
0.00853927
0.00171008
0.00121537
0.00445169
0.0136938
0.0182609
0.00685322
0.00175518
0.00071538
0.00246152
0.00680434
0.0155977
0.0199608
0.0063696
0.00224409
0.00179375
0.00672944
0.0241376
0.0648987
0.101902
0.0333219
0.00667358
0.00210182
0.018103
0.0665158
0.0838824
0.125808
0.10353
0.0244936
0.00378122
0.0318469
0.129029
0.14953
0.177348
0.274925
0.0530786
0.00667559
0.0214676
0.0747635
0.0914305
0.152744
0.0997536
0.0366003
0.00585654
0.00870655
0.0298983
0.0765722
0.132531
0.0507308
0.0126488
0.00284595
0.00316657
0.00948912
0.0230324
0.0320948
0.0131272
0.00356368
0.00180796
0.00454217
0.00828389
0.0165586
0.0211014
0.00769262
0.00418568
0.00382631
0.00897145
0.0270619
0.0648148
0.0894463
0.0337933
0.00789441
0.00403606
0.0228325
0.0740909
0.08348
0.140905
0.118367
0.0234996
0.00510407
0.0414466
0.144863
0.171244
0.198545
0.319042
0.0474214
0.00697708
0.0273717
0.0854769
0.091201
0.162688
0.133236
0.0327535
0.00639575
0.0118465
0.0359407
0.0819555
0.125942
0.0507964
0.0133164
0.00448118
0.00557698
0.0122393
0.0268578
0.0358167
0.0151663
0.00523597
0.00381712
0.00537296
0.00809916
0.0140884
0.0164304
0.00745629
0.00494007
0.00459082
0.00899219
0.0242199
0.0512816
0.0732032
0.0267964
0.00762241
0.0047944
0.0212938
0.06449
0.105177
0.0920639
0.101736
0.0190564
0.0055172
0.0399077
0.137532
0.161999
0.194246
0.244347
0.0362067
0.00675287
0.0259249
0.0779459
0.0818981
0.140728
0.126531
0.0259557
0.00633365
0.0119583
0.0335152
0.0717021
0.099151
0.0433907
0.0116351
0.00511262
0.00641616
0.0119587
0.0241766
0.0310909
0.013272
0.00576372
0.00466335
0.000166466
0.000166538
0.00016611
0.000161804
0.000157603
0.000154487
0.000151727
0.000149123
0.000236177
0.000184871
0.000166286
0.000158516
0.000152621
0.000148117
0.000144377
0.000140885
0.000651513
0.000251747
0.000182177
0.000161682
0.00015369
0.000147808
0.000142458
0.000138442
0.00122281
0.000373727
0.000193547
0.000159298
0.00014906
0.000144254
0.00014051
0.000136121
0.000931989
0.000313216
0.000186859
0.000162185
0.000154042
0.000148433
0.000143844
0.000139849
0.000333757
0.000203141
0.000171677
0.000159366
0.000153529
0.000149493
0.000145742
0.00014271
0.000193517
0.000174699
0.000165987
0.000161655
0.000157908
0.000155291
0.000152853
0.000150541
0.000617182
0.000575397
0.000535142
0.000499375
0.000468396
0.000441334
0.000416836
0.000393806
0.000646171
0.000589348
0.000546067
0.000507057
0.000472751
0.000442908
0.00041634
0.000391737
0.000742632
0.00058676
0.000541886
0.000502401
0.000467963
0.000437724
0.00041089
0.000386168
0.0008885
0.000580452
0.000535309
0.00049905
0.000466063
0.00043648
0.000409301
0.000384099
0.000880366
0.000579297
0.000531199
0.000495538
0.000463829
0.000435526
0.000409921
0.000385947
0.000661845
0.00056112
0.000523004
0.000489775
0.000459987
0.000433797
0.000410304
0.000388086
0.000587546
0.000547597
0.000513419
0.000481585
0.000453496
0.000428881
0.000406737
0.000385721
0.00169498
0.00161316
0.00150044
0.00136407
0.00121315
0.00105638
0.000903115
0.000763684
0.00171844
0.00163473
0.00152929
0.00139539
0.00124208
0.00107897
0.0009165
0.000766758
0.00175984
0.00161623
0.00152339
0.00139991
0.00125119
0.00108799
0.000921873
0.000766603
0.00182073
0.00158319
0.00150653
0.00139405
0.00125046
0.00108873
0.000921998
0.00076523
0.00185546
0.00158373
0.00149208
0.00137524
0.00123163
0.00107248
0.000910279
0.000759166
0.00168688
0.00155829
0.00146029
0.00133629
0.00119182
0.00103777
0.000885392
0.000746733
0.00159836
0.00151969
0.0014161
0.0012881
0.00114554
0.000998367
0.000856531
0.00073015
0.00364391
0.00341967
0.0031242
0.00281077
0.00252356
0.00228407
0.00208557
0.00188416
0.00370327
0.0035205
0.0032348
0.00290406
0.00258712
0.00231975
0.00210412
0.00189512
0.00368914
0.00352465
0.0032809
0.0029595
0.00263136
0.00234736
0.0021195
0.00190409
0.00366895
0.00348638
0.00328171
0.00297627
0.00264779
0.00235699
0.002122
0.00190112
0.00372238
0.00349151
0.0032606
0.00294912
0.00262368
0.00233789
0.00210559
0.00188402
0.00364949
0.00345955
0.00319363
0.00287482
0.00256142
0.00229172
0.00206937
0.00185019
0.00355227
0.00334758
0.00306688
0.00276144
0.00247669
0.00223469
0.0020291
0.00181726
0.00434675
0.00406618
0.00373737
0.00339635
0.00304089
0.00262385
0.00209979
0.00154124
0.00444877
0.00418549
0.00384045
0.00347405
0.00310803
0.00270115
0.00218755
0.00161235
0.00445786
0.00422668
0.00391189
0.00354607
0.00317491
0.0027695
0.00225556
0.00166321
0.00443486
0.00421425
0.0039361
0.00358096
0.00320864
0.00280072
0.00228291
0.0016807
0.00447603
0.00421803
0.00391947
0.00356146
0.00319
0.00278022
0.00225969
0.00165919
0.00444383
0.00419318
0.00387335
0.0035197
0.00315469
0.00274022
0.00221204
0.0016171
0.00435807
0.00411692
0.00382469
0.00351151
0.0031722
0.0027545
0.00220799
0.00160923
0.000231065
0.000195023
0.000187055
0.000183361
0.000180329
0.000177704
0.000175566
0.00017394
0.000411931
0.000221129
0.000180068
0.000168058
0.000162154
0.000156407
0.00015047
0.000146434
0.00122439
0.000424836
0.000212232
0.000167224
0.000154215
0.000146296
0.000140263
0.000133077
0.00186106
0.000562493
0.0002324
0.000167436
0.000148881
0.000138235
0.000130366
0.000124068
0.000917177
0.000332615
0.000198003
0.000165969
0.000153259
0.000145421
0.000138989
0.000135515
0.000325325
0.000192278
0.000175063
0.000165988
0.000159776
0.000153411
0.000147501
0.000143637
0.000206818
0.000177805
0.000174945
0.000170164
0.000167282
0.000164586
0.000162435
0.000160474
0.000755289
0.000670379
0.000619064
0.000571421
0.000527519
0.000488318
0.00045377
0.000422808
0.00106445
0.000737958
0.000671467
0.000621366
0.000571035
0.000521845
0.000476208
0.000434751
0.0023321
0.000871625
0.000721311
0.00067166
0.000620449
0.000565329
0.000511111
0.000459625
0.00297744
0.000883132
0.000698184
0.000650333
0.000600784
0.000548043
0.000496802
0.00044926
0.00172056
0.000757661
0.000663796
0.000619316
0.000572624
0.000524158
0.000476774
0.000432774
0.000869867
0.000657486
0.00060631
0.000561718
0.000517739
0.000476188
0.000438291
0.000404171
0.000669234
0.000606608
0.000563165
0.00052149
0.000482738
0.000448322
0.000418364
0.000391954
0.00194155
0.00175959
0.00166084
0.00153732
0.00138263
0.00120647
0.00102439
0.000854476
0.00266787
0.00183105
0.00169298
0.00159364
0.00146482
0.00130385
0.00112098
0.000933101
0.0049463
0.00196301
0.00165863
0.00158158
0.00148185
0.00134522
0.00117889
0.000995994
0.00653511
0.0019755
0.00159556
0.00153142
0.001438
0.00130376
0.00113983
0.000960738
0.00395265
0.00182339
0.00162448
0.00155007
0.00144412
0.00130122
0.00113096
0.000947637
0.0022165
0.00170319
0.00160483
0.00150659
0.00137425
0.00121297
0.00103468
0.000855368
0.00173534
0.00163246
0.00155114
0.00143572
0.00128871
0.00112205
0.000951017
0.000792374
0.00411683
0.00381503
0.00352973
0.00319976
0.00286765
0.00257041
0.00231337
0.00205608
0.00492774
0.00391602
0.00361943
0.00332381
0.00300084
0.00270219
0.00245746
0.00223538
0.00733933
0.00395361
0.00353626
0.00330384
0.0030077
0.0026988
0.00243338
0.00219964
0.00977358
0.00392898
0.00342462
0.00323296
0.00295502
0.00264452
0.00236875
0.00212243
0.00617813
0.00380219
0.00348523
0.00323992
0.00292709
0.00260787
0.00233615
0.00209495
0.00431376
0.00371451
0.0034596
0.00315924
0.00283159
0.0025322
0.00228677
0.00206158
0.0037801
0.00357942
0.003315
0.00300012
0.0026883
0.00241506
0.00218274
0.00195039
0.0050653
0.00471262
0.00437998
0.00401561
0.00361312
0.00312265
0.00248408
0.00177429
0.00589086
0.00492592
0.00459195
0.00428848
0.00395887
0.00354438
0.00294249
0.00219323
0.00801918
0.00502644
0.00458661
0.00434616
0.00408431
0.00374561
0.00321723
0.00251832
0.00996462
0.00498208
0.00446435
0.00423893
0.00397361
0.00364593
0.00315847
0.00252458
0.00692979
0.00483058
0.00448013
0.0042229
0.00393528
0.00358784
0.00307603
0.0024129
0.00523994
0.00466387
0.00437327
0.00407072
0.00374449
0.0033472
0.00278612
0.00209884
0.00468868
0.00443457
0.00412998
0.00379009
0.00341939
0.00297024
0.00238183
0.00172515
0.000239383
0.000182727
0.000167106
0.00016328
0.000161881
0.000160164
0.000158518
0.000156982
0.000521238
0.000243606
0.000164075
0.000144907
0.000138035
0.00013317
0.000131481
0.000131035
0.0013206
0.000412831
0.000187695
0.000143372
0.000129377
0.000120515
0.000112696
0.00010578
0.00141303
0.000401733
0.00018544
0.000146709
0.000133493
0.000125002
0.000117164
0.000110449
0.000551754
0.000229966
0.000165829
0.000150649
0.00014295
0.000137078
0.000132106
0.000126451
0.000222083
0.000178762
0.000162885
0.000155541
0.00014955
0.000145018
0.000140939
0.000138203
0.000169325
0.000163202
0.000162312
0.000160797
0.000158687
0.000156763
0.000154155
0.000151414
0.000678137
0.000604478
0.000565676
0.000528276
0.000492589
0.000459926
0.0004302
0.000402617
0.00100615
0.000658569
0.000598182
0.000554253
0.000511738
0.000472396
0.000437672
0.000406282
0.00171285
0.000705093
0.000607592
0.000557938
0.000508099
0.000461198
0.000419614
0.000383293
0.00152587
0.00067727
0.000605717
0.00055865
0.000508245
0.000459406
0.000415265
0.000375994
0.000842573
0.000646887
0.000597346
0.000550053
0.000502775
0.000458634
0.000419178
0.000383469
0.00068039
0.000618808
0.000569775
0.000523941
0.000483137
0.000447609
0.000416773
0.000389052
0.000634925
0.000587827
0.000542444
0.000502212
0.000468183
0.000439456
0.000414824
0.000392637
0.00170657
0.00159944
0.00152319
0.00141479
0.00127546
0.00111632
0.000951835
0.000798097
0.0021602
0.00161746
0.00152759
0.00144183
0.00132217
0.00117196
0.00100349
0.000835031
0.0031235
0.00158967
0.00145627
0.00138252
0.00127651
0.00113965
0.000981162
0.000815641
0.00310155
0.00155383
0.00144857
0.00136807
0.00124957
0.00110192
0.000936813
0.000768525
0.00193361
0.00161253
0.00153913
0.00144081
0.00130829
0.00114931
0.000974393
0.000798835
0.001733
0.00165662
0.00156707
0.00144499
0.00129715
0.00113188
0.000960003
0.000796041
0.00170962
0.00163523
0.00152481
0.00138797
0.00123446
0.00107359
0.000915494
0.000771339
0.00370681
0.00350442
0.00324672
0.00294656
0.00265229
0.00239573
0.00217702
0.00195385
0.00405039
0.00354077
0.00330554
0.0030306
0.00273942
0.002479
0.0022641
0.0020537
0.00475144
0.00340807
0.00318141
0.00294467
0.00267112
0.00242455
0.00223426
0.00206074
0.00468659
0.00330589
0.00311366
0.00287393
0.00258812
0.0023343
0.00214894
0.00199595
0.00377653
0.00344732
0.00324922
0.00297107
0.00266761
0.00240181
0.00219723
0.0020131
0.00368725
0.00353211
0.00327633
0.00296505
0.00265729
0.0023939
0.00218223
0.00197917
0.00364672
0.00343576
0.00314304
0.00283136
0.00254493
0.00230564
0.00210749
0.00190694
0.00458294
0.00432106
0.00401358
0.00367346
0.0033008
0.00284732
0.00226052
0.00162093
0.00488367
0.00439866
0.00409448
0.00376328
0.00340059
0.00296575
0.00238843
0.00172538
0.00538257
0.00432353
0.00404161
0.00375531
0.00343295
0.00304173
0.00249502
0.0018321
0.00524014
0.00420614
0.00396741
0.00369279
0.00338176
0.0030148
0.00250038
0.00186647
0.00459172
0.00425884
0.0040003
0.00368529
0.00334544
0.00294954
0.00241374
0.00177597
0.00447525
0.00424822
0.00393485
0.00358925
0.00323202
0.00281968
0.00228235
0.0016694
0.00434741
0.00407458
0.00374539
0.0034058
0.00305277
0.00263823
0.00211445
0.00155094
0.000178125
0.000168051
0.000164493
0.000160425
0.000157636
0.00015487
0.000152742
0.000149563
0.000261007
0.00018301
0.000175648
0.000161773
0.000153941
0.00014684
0.000142209
0.000138461
0.000723837
0.000285846
0.000192362
0.000167244
0.000154122
0.000145777
0.000138238
0.000131073
0.00189472
0.000570919
0.000237435
0.000171533
0.000152586
0.000142565
0.000134218
0.000126456
0.00156298
0.000541381
0.000245348
0.000177557
0.000157511
0.000147732
0.000139597
0.000132663
0.000587415
0.000294633
0.000202755
0.000178377
0.000170267
0.000165103
0.000158923
0.000152898
0.000256411
0.000207341
0.000192734
0.00018761
0.000184747
0.000182257
0.000180033
0.000178552
0.000625214
0.000580349
0.000537208
0.000495899
0.000459147
0.000427329
0.000399985
0.00037571
0.000736668
0.000639844
0.000593854
0.000546216
0.000500108
0.000457451
0.000418743
0.000383186
0.00126034
0.000723191
0.00066554
0.000618167
0.00056685
0.00051436
0.000463776
0.00041689
0.00297504
0.000878031
0.000725092
0.000679174
0.000625926
0.000567305
0.00050965
0.000456296
0.0028416
0.0009588
0.000766911
0.00071187
0.000655121
0.000593595
0.000533615
0.000478112
0.00133519
0.000819981
0.000733732
0.000677895
0.000621514
0.000565421
0.000512721
0.000464584
0.000788152
0.000692731
0.000642883
0.000595844
0.000551512
0.000510864
0.000474008
0.000440141
0.00162771
0.00156014
0.00146098
0.00133268
0.00118551
0.00102935
0.000874655
0.000733275
0.00179836
0.00161833
0.00153393
0.00142156
0.00128068
0.00112066
0.000951069
0.000783729
0.00291188
0.00168898
0.00157428
0.00149258
0.00137564
0.00122682
0.00105543
0.000874646
0.00662198
0.00192821
0.00158209
0.001518
0.00142023
0.00128231
0.00111596
0.000935776
0.00557927
0.00203849
0.0016731
0.0015962
0.00149661
0.00135762
0.00118806
0.0010018
0.0029784
0.0019106
0.0017463
0.00164187
0.00150751
0.00133985
0.00115048
0.000957384
0.0019688
0.0017782
0.00168182
0.00155925
0.00140447
0.00122755
0.00104413
0.000872612
0.00356679
0.00338869
0.00311301
0.00280676
0.00251989
0.00227833
0.00207718
0.00187321
0.00371243
0.0034873
0.00324462
0.0029292
0.00260002
0.00231203
0.00208858
0.00189737
0.00469357
0.00352426
0.00331993
0.00307276
0.00276071
0.00245419
0.00219923
0.00197588
0.00876642
0.00373117
0.00332777
0.00314011
0.0028645
0.00256552
0.00230784
0.00207903
0.00751716
0.00394723
0.00350277
0.00326463
0.00296928
0.00266917
0.00241908
0.00220219
0.00506518
0.00396216
0.00364748
0.00334763
0.00302414
0.00272767
0.00248903
0.00227179
0.00413007
0.00382824
0.00354496
0.00321673
0.00288604
0.0025899
0.00233291
0.00207393
0.0044161
0.00420483
0.0039276
0.0036395
0.00333565
0.00295875
0.00244127
0.00182712
0.00460823
0.00437836
0.00413084
0.0038553
0.00358175
0.00327641
0.00282363
0.0022306
0.00540425
0.00449129
0.00427405
0.00404001
0.00378116
0.00347929
0.00302764
0.00243732
0.00826651
0.00471285
0.00435546
0.004156
0.00391466
0.00361827
0.00316731
0.00256668
0.00777021
0.00497687
0.0045571
0.00432593
0.00407621
0.00375781
0.00325019
0.0025661
0.00592323
0.00494299
0.00459887
0.00429226
0.00396136
0.00354761
0.0029513
0.00220626
0.00507193
0.00472061
0.00438896
0.00402507
0.00362172
0.0031287
0.00248765
0.00177667
0.00014703
0.000138607
0.000135239
0.000134082
0.000137186
0.000141819
0.00014869
0.000371164
0.000367655
0.000361768
0.000359688
0.0003622
0.000366023
0.000364934
0.000647919
0.000642864
0.000637887
0.000635168
0.000634388
0.000633726
0.000628111
0.00160534
0.00159686
0.00159087
0.00157982
0.00156424
0.00154062
0.00152846
0.00101478
0.00101764
0.00101625
0.00101191
0.00100534
0.00100278
0.00103709
0.000172156
0.000143698
0.000124999
0.00011864
0.0001298
0.000141605
0.000158692
0.000395056
0.000397618
0.000414536
0.000407568
0.000392355
0.000373132
0.00036799
0.00071358
0.000763208
0.000821881
0.000792684
0.000776307
0.000697113
0.000661472
0.00171955
0.00193269
0.00189403
0.00180085
0.00178493
0.00176318
0.0016418
0.00108727
0.00136046
0.00166543
0.00173538
0.0016045
0.00132875
0.00108482
0.00015576
0.000129085
0.000101181
0.000105024
0.000120682
0.000137266
0.000148854
0.000376466
0.000378215
0.000351075
0.000341199
0.000351544
0.000363281
0.000371305
0.00067006
0.000688848
0.000665885
0.000618409
0.000644837
0.000657403
0.000651731
0.00164838
0.00174448
0.00178288
0.00175153
0.00173135
0.00168418
0.00162794
0.0010143
0.00103895
0.00109271
0.00113435
0.00106916
0.00103027
0.00101445
0.000145664
0.000134433
0.000124103
0.000119159
0.000126357
0.000147363
0.000176906
0.00035336
0.000351267
0.000375285
0.000410174
0.00042938
0.000421563
0.000409163
0.000616446
0.000636058
0.00070811
0.000767453
0.00082497
0.000784804
0.000729858
0.00159367
0.00164695
0.00167859
0.00176922
0.00191007
0.00197063
0.00173316
0.00120179
0.00150886
0.00168911
0.00179511
0.00171884
0.00137663
0.00108977
0.000144794
0.0001382
0.000127958
0.000117155
0.000105623
9.40194e-05
8.26705e-05
7.15894e-05
0.000136778
0.000131318
0.000122616
0.000111913
0.000100947
8.98497e-05
7.89264e-05
6.82114e-05
0.000132335
0.000127212
0.000119625
0.000109116
9.83559e-05
8.76205e-05
7.70106e-05
6.65441e-05
0.000132989
0.000127846
0.00012082
0.000111404
9.98462e-05
8.77548e-05
7.66888e-05
6.62026e-05
0.00013512
0.000130435
0.000122519
0.000111635
0.000100459
8.9406e-05
7.85455e-05
6.78784e-05
0.000141158
0.000136042
0.000127112
0.000115954
0.000104573
9.31952e-05
8.19701e-05
7.0945e-05
0.000146607
0.000140554
0.000131482
0.000120789
0.000109287
9.77102e-05
8.62963e-05
7.50695e-05
0.000347109
0.000307016
0.000264399
0.000224979
0.000190416
0.000160108
0.000133283
0.000109726
0.000343647
0.000304642
0.000261903
0.000222938
0.000188389
0.000158054
0.000131243
0.000107766
0.000338557
0.000301282
0.000259122
0.00022083
0.000186816
0.000156819
0.000130231
0.000106891
0.00033666
0.000300304
0.000259608
0.000220951
0.000186271
0.000156251
0.000129898
0.000106793
0.000339354
0.00030226
0.000260468
0.000222406
0.00018862
0.000158712
0.000132102
0.000108645
0.000343601
0.000306364
0.000264756
0.000226434
0.000192258
0.000162007
0.000135057
0.000111266
0.00034274
0.000305721
0.000264689
0.000226698
0.00019325
0.000163784
0.000137465
0.00011405
0.000554197
0.000458506
0.000365102
0.000286875
0.000225635
0.000178141
0.000141151
0.000112574
0.000548546
0.000453898
0.000362611
0.000285605
0.00022487
0.000177534
0.000140564
0.000111981
0.000544022
0.000450989
0.000361218
0.000285023
0.000224618
0.000177377
0.000140394
0.000111746
0.000542192
0.000450016
0.000360543
0.000284743
0.000224557
0.000177397
0.000140493
0.000111924
0.000545439
0.000453437
0.000362125
0.000285578
0.00022533
0.000178293
0.000141439
0.000112834
0.000552134
0.000457827
0.000363618
0.000286197
0.00022592
0.000179087
0.000142447
0.00011398
0.000551554
0.000456723
0.000361226
0.000283711
0.000224073
0.000178182
0.000142477
0.000114742
0.00127671
0.000805884
0.000493364
0.000331259
0.00023815
0.000178317
0.00013719
0.000108344
0.00126592
0.000800434
0.000491673
0.000331082
0.000238469
0.000178729
0.000137572
0.000108684
0.0012575
0.000796197
0.000490463
0.000331002
0.000238706
0.000178982
0.000137739
0.000108742
0.00124562
0.000789408
0.000487934
0.000330271
0.000238574
0.000179047
0.000137898
0.00010897
0.00123137
0.000781615
0.000485205
0.000329629
0.000238624
0.000179309
0.000138206
0.00010927
0.00121114
0.000771057
0.000480919
0.000327707
0.000237667
0.00017892
0.000138238
0.000109604
0.00120517
0.000769176
0.000479039
0.000324843
0.000234657
0.000176564
0.000136831
0.000109017
0.000951546
0.000768717
0.000499204
0.000330595
0.000229493
0.000166447
0.000125844
9.95639e-05
0.000949978
0.000769788
0.000501582
0.000332648
0.00023103
0.00016755
0.000126659
0.000100242
0.000944919
0.000767303
0.000500989
0.000332563
0.000231078
0.000167615
0.00012671
0.000100272
0.000938916
0.000763921
0.000499624
0.000332003
0.000230861
0.000167572
0.000126783
0.000100432
0.000933003
0.000760186
0.000497417
0.000330729
0.000230095
0.000167082
0.000126458
0.000100194
0.000931338
0.000757684
0.000494472
0.000328441
0.000228586
0.000166254
0.000126158
0.00010022
0.000960922
0.000773188
0.000498224
0.000327471
0.000226376
0.000164348
0.000125007
9.96358e-05
0.00016973
0.000162734
0.000151616
0.000138128
0.000124114
0.000110358
9.72126e-05
8.46983e-05
0.000140003
0.000132256
0.000125715
0.000119336
0.000110878
0.000101033
9.04149e-05
7.97082e-05
0.000119243
0.000110364
0.000103069
9.61575e-05
8.90884e-05
8.21097e-05
7.49426e-05
6.71798e-05
0.000113492
0.000104612
9.6186e-05
8.78974e-05
7.97688e-05
7.23715e-05
6.58734e-05
5.85916e-05
0.000122473
0.000114512
0.00010726
9.95933e-05
9.18344e-05
8.45361e-05
7.70821e-05
6.90064e-05
0.000139703
0.000133311
0.000127899
0.000120058
0.000110523
0.00010039
8.97205e-05
7.88629e-05
0.000156318
0.000150494
0.000141351
0.000129664
0.000117168
0.000104676
9.24723e-05
8.07612e-05
0.000366738
0.00032354
0.000277019
0.000234584
0.000198084
0.000166958
0.000140083
0.000116674
0.00036253
0.00031804
0.000275665
0.000236075
0.000200611
0.000169684
0.000142652
0.000118805
0.000370773
0.000317075
0.00027016
0.000230245
0.000196165
0.000166535
0.000139358
0.000114807
0.000366517
0.000315166
0.000270072
0.000231443
0.00019803
0.000169087
0.000141689
0.000117581
0.000354097
0.000304831
0.000260554
0.000222487
0.000189833
0.000161355
0.000135163
0.000111423
0.000343281
0.000303734
0.000262897
0.000224659
0.000190878
0.000161454
0.000135428
0.000112648
0.000343926
0.000306691
0.000264539
0.000225306
0.000191041
0.000161444
0.000135621
0.000113008
0.000607129
0.000488725
0.000378067
0.000291018
0.000226113
0.000177748
0.000141285
0.000113664
0.000621582
0.000486209
0.000399832
0.000325317
0.000262886
0.00021239
0.000171726
0.000139083
0.000664995
0.000504005
0.000394848
0.000317808
0.000259909
0.000213904
0.00017549
0.000142634
0.000641494
0.000486817
0.000381697
0.000307347
0.000250934
0.000205845
0.000168391
0.000137169
0.000626573
0.000473038
0.000368915
0.000295487
0.000240628
0.000197605
0.00016257
0.000132859
0.000569177
0.000446503
0.000364462
0.000294461
0.000236834
0.000190774
0.000153952
0.000124547
0.000560474
0.000459905
0.000362319
0.000282479
0.000221416
0.000175009
0.000139444
0.000112186
0.00133864
0.000839878
0.000511189
0.000338006
0.000239389
0.000177679
0.000136583
0.0001084
0.00157261
0.00104992
0.000662774
0.000444981
0.000319618
0.000240688
0.000187242
0.000149474
0.00154406
0.00105749
0.000713413
0.00051138
0.000388173
0.000306116
0.000246026
0.000198434
0.0014405
0.000959925
0.000627048
0.000432004
0.000314269
0.00023845
0.000186212
0.000148115
0.00144264
0.000973834
0.000647053
0.000456953
0.00034173
0.000266475
0.000212921
0.000172456
0.00142502
0.000940539
0.00058705
0.000391819
0.000280871
0.000211394
0.000164292
0.000131002
0.00128909
0.000809382
0.000493628
0.000328931
0.000234904
0.000175381
0.000135167
0.000107299
0.000988263
0.000778294
0.000494913
0.000323649
0.00022387
0.000163446
0.000125359
0.000100631
0.00123804
0.000988559
0.000648382
0.000434658
0.000307
0.000228315
0.000177404
0.000142899
0.0015512
0.0012564
0.00086589
0.000610952
0.000453634
0.000353759
0.000286436
0.000238579
0.0016391
0.00131662
0.000897444
0.000618779
0.000437047
0.000313483
0.000228929
0.000172211
0.0014991
0.00121184
0.000822534
0.000569164
0.0004146
0.00031675
0.000251289
0.000205727
0.00121966
0.000974033
0.00063042
0.000415458
0.000289195
0.000212397
0.000163117
0.000130226
0.000995183
0.000788323
0.000502498
0.000328342
0.0002267
0.000164862
0.000125704
0.000100352
0.000154226
0.000149127
0.000139809
0.000127837
0.000115049
0.000102481
9.03964e-05
7.87817e-05
0.000127247
0.000124377
0.000123244
0.000117985
0.000108216
9.71169e-05
8.60724e-05
7.55348e-05
9.81022e-05
9.33892e-05
8.94106e-05
8.45671e-05
7.89197e-05
7.25812e-05
6.5998e-05
5.92264e-05
0.000100841
9.34837e-05
8.62769e-05
7.89713e-05
7.24397e-05
6.56617e-05
5.89343e-05
5.23686e-05
0.000116556
0.000109824
0.00010373
9.74456e-05
9.07719e-05
8.22555e-05
7.28472e-05
6.34158e-05
0.00013568
0.000131467
0.000127177
0.000118889
0.00010787
9.59382e-05
8.43388e-05
7.33704e-05
0.000145947
0.00014005
0.000131517
0.000120682
0.000108873
9.69959e-05
8.54176e-05
7.41674e-05
0.000350102
0.000309996
0.000265859
0.000225308
0.000190487
0.000160796
0.000135109
0.000112649
0.000352348
0.000318582
0.000278758
0.000237432
0.000200777
0.000169567
0.000143265
0.000120199
0.000321432
0.000284543
0.000248488
0.000216527
0.000187368
0.000160761
0.000135128
0.000110676
0.000308437
0.000263752
0.000221107
0.000184104
0.000152082
0.000125404
0.000103251
8.52668e-05
0.000321941
0.000281432
0.000241808
0.000206888
0.000174495
0.00014529
0.000119193
9.61584e-05
0.000338813
0.000303114
0.000262049
0.000222948
0.000187998
0.000157502
0.000131169
0.00010825
0.000348718
0.000310797
0.000267512
0.00022703
0.000191294
0.000160228
0.000133196
0.000109749
0.00057057
0.000468364
0.00036841
0.000286901
0.000224834
0.000177898
0.000142018
0.000114459
0.00057667
0.000475848
0.000386155
0.000308593
0.000246434
0.000198171
0.000160614
0.000130697
0.000549265
0.000441929
0.000371639
0.000314635
0.000262459
0.000217183
0.00018053
0.000151325
0.000500649
0.000384634
0.000307267
0.000250268
0.000203853
0.000164706
0.000131532
0.000104019
0.000527368
0.000414076
0.000341026
0.00027932
0.000226116
0.000182956
0.000148957
0.000121722
0.00055172
0.000450692
0.000363801
0.000288588
0.000228096
0.000180984
0.000144443
0.000115999
0.000555026
0.000458976
0.000366011
0.000287359
0.000225618
0.000177924
0.000141024
0.000112683
0.00129401
0.000808896
0.000492076
0.000328392
0.000235306
0.000176354
0.000136379
0.000108516
0.00138613
0.000878267
0.000535589
0.000356904
0.000257203
0.000195322
0.000153566
0.00012383
0.00144705
0.000945078
0.00058602
0.000389426
0.000281787
0.000218218
0.000177599
0.000149308
0.00145296
0.00097949
0.00063459
0.000443885
0.000336423
0.000269686
0.000221818
0.000180389
0.00140125
0.000910333
0.000557428
0.000367999
0.000265266
0.000204874
0.000166613
0.000140161
0.00134318
0.000851664
0.000515917
0.000341123
0.00024388
0.00018372
0.000143497
0.000115332
0.00129596
0.000816816
0.000497309
0.000331932
0.000237924
0.000178171
0.000137418
0.000108904
0.000936603
0.00074863
0.000481855
0.000318075
0.000221123
0.000161285
0.000123027
9.82061e-05
0.000956578
0.000765846
0.000495843
0.000329803
0.000231891
0.000171754
0.000133257
0.000108012
0.0010018
0.000802414
0.000522095
0.000349869
0.000249993
0.00019051
0.000153741
0.000130095
0.00104117
0.000836936
0.000552012
0.000379838
0.000284661
0.000234014
0.000209161
0.000198993
0.000983005
0.000783785
0.000505716
0.000336743
0.000240026
0.000183795
0.000150485
0.000130167
0.000955095
0.000764155
0.000492753
0.000325759
0.000227559
0.000167716
0.000129906
0.000105491
0.000949301
0.000764051
0.000494625
0.000327233
0.000227437
0.000165546
0.000125818
0.000100067
0.000142145
0.000136686
0.000129264
0.000119516
0.000108686
9.76392e-05
8.67186e-05
7.59726e-05
0.00013086
0.000122424
0.000113982
0.000105442
9.76989e-05
8.91874e-05
8.02749e-05
7.11564e-05
0.000118454
0.000109386
0.000101048
9.31921e-05
8.58395e-05
7.84144e-05
7.08664e-05
6.3264e-05
0.000112686
0.000102451
9.33813e-05
8.51129e-05
7.72966e-05
6.995e-05
6.26664e-05
5.57664e-05
0.000120914
0.00011231
0.000104255
9.67138e-05
8.90895e-05
8.15496e-05
7.39095e-05
6.61786e-05
0.000142645
0.000134327
0.000125409
0.000117498
0.000108844
9.9528e-05
8.97748e-05
7.97097e-05
0.000174264
0.000166086
0.000153734
0.000139269
0.000124567
0.000110484
9.72363e-05
8.46711e-05
0.000330743
0.000296004
0.00025647
0.000219342
0.000186564
0.000158002
0.000132864
0.000110656
0.000320129
0.000277993
0.000238204
0.000203773
0.000173355
0.000147134
0.000124336
0.000104098
0.000334635
0.000282555
0.000237944
0.000201118
0.000169891
0.000142925
0.000119247
9.80342e-05
0.000365048
0.000310605
0.000263514
0.000223203
0.000188733
0.000158878
0.000132653
0.000109274
0.00038197
0.00032446
0.000274304
0.000231823
0.000196677
0.000166686
0.000140107
0.0001159
0.000380252
0.000327325
0.00028052
0.00024059
0.00020599
0.000175868
0.000149142
0.000125023
0.000377535
0.000330119
0.000280581
0.000236278
0.000198878
0.000167407
0.000140454
0.000117049
0.000524865
0.000436295
0.00034886
0.000275044
0.000217145
0.000172547
0.000138115
0.000111527
0.000516158
0.000395376
0.000316641
0.000263223
0.000217187
0.000178292
0.000146168
0.000119628
0.000565337
0.000420452
0.000325984
0.000261361
0.000212185
0.000172632
0.000140015
0.000112787
0.00061768
0.000465538
0.00036306
0.000291087
0.000236804
0.000193719
0.000158237
0.000128462
0.000665844
0.000503359
0.000393554
0.000316411
0.000259456
0.000215225
0.000178446
0.00014655
0.000641835
0.000507471
0.000422779
0.000347418
0.000282299
0.000228193
0.000184006
0.000148405
0.000622002
0.000498615
0.000384062
0.00029465
0.000228312
0.000179075
0.000142106
0.00011419
0.00127234
0.000815723
0.00050399
0.000335571
0.000238471
0.000177713
0.00013739
0.000109681
0.00136623
0.000934611
0.000606446
0.00040823
0.000290402
0.00021759
0.000169603
0.000135596
0.00134706
0.000886335
0.000567117
0.000387182
0.000282605
0.000217007
0.000172586
0.000139819
0.00141806
0.000937941
0.000603926
0.000412576
0.000300737
0.000229791
0.000180315
0.000143272
0.00156676
0.00106923
0.000710088