/*--------------------------------*- C++ -*----------------------------------*\
| =========                 |                                                 |
| \\      /  F ield         | OpenFOAM: The Open Source CFD Toolbox           |
|  \\    /   O peration     | Version:  plus.master.MPPICInterFoam            |
|   \\  /    A nd           | Web:      www.OpenFOAM.com                      |
|    \\/     M anipulation  |                                                 |
\*---------------------------------------------------------------------------*/
FoamFile
{
    version     2.0;
    format      ascii;
    class       volScalarField;
    location    "9";
    object      p;
}
// * * * * * * * * * * * * * * * * * * * * * * * * * * * * * * * * * * * * * //

dimensions      [1 -1 -2 0 0 0 0];

internalField   nonuniform List<scalar> 
11821
(
5666.84
5675.05
5678.25
5679.14
5677.95
5673.74
5665.28
5676.08
5700.79
5702.56
5701.13
5700.81
5699.21
5673.31
5680.37
5701.73
5703.42
5698.66
5702.18
5700.63
5677.68
5680.96
5701.85
5699.22
5700.16
5697.72
5701.59
5679.39
5679.58
5702.13
5703.47
5699.71
5702.55
5701.28
5677.11
5675.68
5700.93
5702.5
5701.21
5701.37
5698.9
5673.73
5666.86
5675.32
5679.11
5680.04
5680.14
5675.41
5665.57
5505.21
5504.93
5504.02
5503.47
5504.16
5505.17
5505.69
5504.71
5505.39
5503.85
5502.84
5503.67
5505.46
5505.66
5503.92
5504.87
5511.57
5511.44
5508.02
5504.36
5505.42
5503.32
5503.22
5512.02
5517.51
5509.48
5503.74
5505.13
5503.88
5504.34
5511.29
5512.37
5509.74
5504.17
5505.07
5504.61
5506.33
5504.13
5502.68
5504.1
5504.64
5505.23
5505.08
5504.71
5503.84
5502.99
5503.71
5504.8
5505.31
5351.96
5346.4
5341.63
5340.15
5343.46
5348.92
5354.45
5345.43
5335.77
5327.68
5326.61
5330.37
5340.75
5349.79
5339.18
5327.94
5332.86
5334.94
5329.97
5331.85
5345.93
5337
5325.4
5334.52
5336.82
5330.13
5328.8
5344.31
5339.19
5327.86
5333.99
5334.76
5331.28
5330.31
5345.15
5344.85
5335.33
5327.8
5326.56
5328.8
5338.44
5348.62
5351.31
5345.13
5339.54
5337.48
5340.86
5347.16
5353.31
5217.88
5212.85
5208.92
5207.21
5210.39
5215.13
5219.88
5211.64
5201.52
5193.02
5194.36
5198.51
5207.98
5215.91
5205.75
5194.17
5202.13
5203.49
5198.25
5201
5212.79
5202.96
5194.92
5203.46
5205.14
5198.87
5196.21
5211.07
5205.46
5194.38
5202.59
5204.89
5201.4
5198.75
5212.22
5211.12
5200.86
5194.5
5196.79
5196.91
5205.94
5215.08
5217.41
5211.67
5205.93
5203.9
5208.5
5213.75
5219.02
5084.63
5083.08
5081.47
5080.4
5081.19
5082.69
5084.07
5082.61
5078.67
5075.24
5075.24
5076.35
5080.14
5082.89
5080.63
5077.04
5087.01
5087.18
5076.93
5078.01
5082.17
5079.24
5077.9
5087.24
5089.19
5077.95
5075.09
5081.35
5080.36
5076.35
5086.62
5088.5
5080.71
5076.88
5082.02
5082.37
5077.54
5075.86
5077.86
5075.57
5079.22
5082.62
5084.68
5082.34
5079.95
5078.45
5080.04
5081.95
5083.68
5658.7
5654.62
5651.07
5648.2
5645.9
5644.07
5642.61
5641.45
5663.58
5658.02
5653.04
5649.39
5646.61
5644.48
5642.82
5641.53
5665.6
5659.43
5654.47
5650.03
5646.93
5644.61
5642.83
5641.47
5666.93
5660.1
5654.8
5650.31
5646.98
5644.59
5642.77
5641.33
5665.64
5659.69
5654.21
5649.98
5646.87
5644.54
5642.76
5641.38
5663.3
5657.71
5652.98
5649.28
5646.5
5644.37
5642.7
5641.37
5658.81
5654.79
5651.16
5648.2
5645.85
5643.99
5642.51
5641.31
5506.04
5506.15
5506.22
5506.28
5506.32
5506.35
5506.39
5506.45
5505.86
5506.07
5506.18
5506.26
5506.32
5506.37
5506.42
5506.48
5505.73
5505.88
5506.03
5506.14
5506.23
5506.3
5506.36
5506.43
5505.6
5505.78
5505.92
5506.04
5506.14
5506.22
5506.3
5506.38
5505.47
5505.69
5505.84
5505.96
5506.06
5506.14
5506.2
5506.27
5505.48
5505.7
5505.85
5505.94
5506.02
5506.08
5506.14
5506.2
5505.63
5505.77
5505.86
5505.92
5505.97
5506.01
5506.05
5506.1
5358.72
5361.54
5363.84
5365.71
5367.21
5368.44
5369.46
5370.37
5355.79
5359.76
5362.73
5365.01
5366.79
5368.2
5369.37
5370.37
5353.51
5358.28
5361.77
5364.39
5366.4
5367.98
5369.25
5370.33
5352.51
5357.62
5361.32
5364.08
5366.19
5367.84
5369.16
5370.27
5353.05
5357.92
5361.47
5364.14
5366.2
5367.8
5369.1
5370.2
5354.97
5359.08
5362.16
5364.53
5366.39
5367.86
5369.07
5370.11
5357.76
5360.71
5363.13
5365.09
5366.67
5367.96
5369.03
5369.97
5223.53
5226.14
5228.48
5230.59
5232.57
5234.54
5236.6
5238.79
5221.1
5224.59
5227.42
5229.83
5232
5234.13
5236.35
5238.72
5219.28
5223.38
5226.58
5229.23
5231.57
5233.81
5236.14
5238.61
5218.43
5222.84
5226.2
5228.97
5231.38
5233.67
5236.03
5238.54
5219.02
5223.16
5226.39
5229.07
5231.43
5233.68
5236
5238.47
5220.55
5224.13
5227.02
5229.48
5231.68
5233.81
5236.04
5238.39
5222.76
5225.42
5227.83
5229.98
5231.98
5233.95
5236.02
5238.2
5085.12
5085.72
5086.18
5086.46
5086.49
5085.92
5084.59
5084.35
5084.54
5085.46
5086.08
5086.45
5086.56
5086.04
5084.62
5084.19
5084.13
5085.22
5085.99
5086.47
5086.65
5086.16
5084.67
5084.12
5083.87
5085.11
5085.97
5086.53
5086.75
5086.28
5084.77
5084.17
5084.11
5085.19
5085.97
5086.48
5086.69
5086.23
5084.77
5084.21
5084.35
5085.28
5085.94
5086.38
5086.56
5086.13
5084.78
5084.36
5084.63
5085.21
5085.74
5086.12
5086.26
5085.84
5084.65
5084.48
5660.27
5655.59
5651.74
5648.65
5646.19
5644.24
5642.7
5641.46
5665.27
5658.76
5653.67
5649.81
5646.85
5644.53
5642.69
5641.26
5668.28
5660.95
5654.95
5650.59
5647.3
5644.81
5642.92
5641.43
5669.16
5661.27
5655.29
5650.84
5647.49
5644.94
5643.01
5641.53
5668.23
5660.58
5654.9
5650.43
5647.11
5644.57
5642.63
5641.19
5665.25
5658.56
5653.63
5649.74
5646.79
5644.48
5642.64
5641.2
5660.14
5655.51
5651.73
5648.63
5646.17
5644.22
5642.69
5641.48
5505.54
5505.7
5505.79
5505.84
5505.86
5505.86
5505.86
5505.86
5505.15
5505.5
5505.72
5505.83
5505.88
5505.9
5505.89
5505.89
5504.8
5505.37
5505.72
5505.94
5506.06
5506.11
5506.13
5506.13
5504.6
5505.27
5505.68
5505.97
5506.13
5506.21
5506.24
5506.25
5504.84
5505.26
5505.59
5505.78
5505.89
5505.93
5505.93
5505.93
5505.23
5505.48
5505.68
5505.79
5505.85
5505.88
5505.89
5505.89
5505.63
5505.76
5505.85
5505.89
5505.91
5505.92
5505.92
5505.94
5356.25
5359.6
5362.3
5364.47
5366.21
5367.61
5368.76
5369.73
5352.37
5357.25
5360.81
5363.52
5365.58
5367.21
5368.52
5369.61
5349.29
5355.5
5359.85
5363.02
5365.39
5367.2
5368.63
5369.79
5348.06
5354.8
5359.46
5362.8
5365.28
5367.18
5368.67
5369.89
5349.3
5355.42
5359.72
5362.86
5365.21
5367
5368.43
5369.58
5352.68
5357.4
5360.89
5363.54
5365.6
5367.23
5368.5
5369.58
5356.62
5359.86
5362.48
5364.59
5366.28
5367.65
5368.78
5369.75
5221.47
5224.52
5227.2
5229.6
5231.77
5233.84
5235.95
5238.13
5218.07
5222.39
5225.64
5228.36
5230.77
5233.03
5235.29
5237.63
5215.36
5221.05
5224.88
5227.85
5230.42
5232.8
5235.17
5237.59
5214.69
5220.66
5224.67
5227.71
5230.32
5232.72
5235.09
5237.51
5215.37
5220.88
5224.66
5227.64
5230.2
5232.58
5234.9
5237.3
5218.24
5222.44
5225.66
5228.35
5230.73
5232.95
5235.16
5237.48
5221.72
5224.71
5227.34
5229.66
5231.77
5233.81
5235.89
5238.05
5085.62
5086.49
5087.24
5087.83
5088.14
5087.83
5086.78
5086.78
5084.62
5085.82
5086.62
5087.27
5087.65
5087.39
5086.3
5086.33
5083.87
5085.56
5086.39
5087.04
5087.42
5087.2
5086.12
5086.44
5083.58
5085.55
5086.38
5086.94
5087.33
5087.1
5086.01
5086.5
5083.77
5085.28
5086.08
5086.69
5087.07
5086.82
5085.7
5085.99
5084.48
5085.55
5086.3
5086.88
5087.17
5086.86
5085.71
5085.71
5085.44
5086.24
5086.88
5087.3
5087.45
5087.01
5085.84
5085.76
5659.96
5655.46
5651.63
5648.56
5646.12
5644.18
5642.62
5641.38
5664.52
5658.39
5653.39
5649.63
5646.72
5644.43
5642.68
5641.34
5667.13
5660.37
5654.47
5650.3
5647.16
5644.78
5642.93
5641.48
5668.02
5660.79
5654.7
5650.37
5647.14
5644.7
5642.84
5641.41
5666.92
5660
5654.2
5650.01
5646.85
5644.46
5642.64
5641.21
5664.29
5658.25
5653.16
5649.45
5646.6
5644.38
5642.63
5641.27
5659.22
5654.76
5651.09
5648.19
5645.9
5644.1
5642.68
5641.57
5505.64
5505.81
5505.91
5505.96
5505.99
5506
5506.01
5506.03
5505.32
5505.68
5505.91
5506.05
5506.12
5506.15
5506.16
5506.17
5504.9
5505.47
5505.83
5506.06
5506.2
5506.27
5506.31
5506.33
5504.68
5505.35
5505.75
5506.01
5506.15
5506.23
5506.27
5506.28
5505.01
5505.49
5505.79
5505.97
5506.08
5506.13
5506.16
5506.18
5505.54
5505.84
5506.01
5506.11
5506.17
5506.21
5506.23
5506.26
5506.01
5506.14
5506.21
5506.26
5506.28
5506.3
5506.33
5506.36
5356.78
5360
5362.6
5364.7
5366.39
5367.76
5368.9
5369.87
5353.51
5358.1
5361.46
5364.03
5366.02
5367.58
5368.84
5369.91
5350.96
5356.65
5360.66
5363.59
5365.82
5367.55
5368.94
5370.09
5350.2
5356.25
5360.41
5363.43
5365.7
5367.44
5368.83
5369.97
5351.91
5357.19
5360.97
5363.78
5365.91
5367.56
5368.88
5369.99
5355.02
5359.15
5362.24
5364.6
5366.44
5367.9
5369.08
5370.1
5358.56
5361.45
5363.77
5365.64
5367.14
5368.37
5369.39
5370.3
5221.9
5224.83
5227.42
5229.75
5231.89
5233.96
5236.09
5238.31
5219.26
5223.25
5226.34
5228.97
5231.33
5233.58
5235.87
5238.28
5217.22
5222.13
5225.59
5228.42
5230.93
5233.31
5235.73
5238.26
5216.52
5221.75
5225.33
5228.21
5230.74
5233.14
5235.56
5238.11
5217.75
5222.3
5225.71
5228.52
5230.98
5233.31
5235.68
5238.19
5220.29
5223.96
5226.91
5229.41
5231.65
5233.81
5236.05
5238.42
5223.41
5226.12
5228.48
5230.59
5232.56
5234.51
5236.56
5238.74
5085.34
5086
5086.59
5087.05
5087.26
5086.88
5085.75
5085.65
5084.83
5085.77
5086.43
5086.96
5087.25
5086.92
5085.69
5085.45
5084.2
5085.43
5086.1
5086.64
5086.94
5086.6
5085.32
5085.08
5083.9
5085.26
5085.91
5086.43
5086.73
5086.38
5085.09
5084.93
5083.63
5084.87
5085.69
5086.28
5086.55
5086.16
5084.82
5084.53
5084.27
5085.34
5086.05
5086.5
5086.69
5086.24
5084.9
5084.6
5085.16
5085.85
5086.32
5086.59
5086.62
5086.05
5084.73
5084.52
5659.32
5654.97
5651.25
5648.21
5645.82
5643.96
5642.51
5641.37
5664.64
5658.32
5653.7
5649.58
5646.62
5644.33
5642.55
5641.18
5667.91
5659.95
5654.83
5650.35
5647.02
5644.56
5642.66
5641.17
5668.91
5661.11
5655
5650.59
5647.28
5644.81
5642.95
5641.52
5667.55
5660.65
5654.76
5650.45
5647.2
5644.74
5642.85
5641.39
5664.86
5658.66
5653.61
5649.74
5646.8
5644.53
5642.75
5641.34
5660.16
5655.6
5651.75
5648.65
5646.19
5644.24
5642.68
5641.43
5505.67
5505.8
5505.89
5505.93
5505.95
5505.96
5505.97
5505.99
5505.27
5505.54
5505.75
5505.85
5505.9
5505.91
5505.91
5505.9
5504.76
5505.23
5505.59
5505.81
5505.93
5505.98
5506
5505.99
5504.38
5505.14
5505.62
5505.93
5506.1
5506.19
5506.23
5506.25
5504.75
5505.37
5505.76
5506.01
5506.14
5506.21
5506.23
5506.22
5505.22
5505.6
5505.84
5505.96
5505.99
5506
5505.99
5505.97
5505.59
5505.75
5505.83
5505.87
5505.88
5505.89
5505.89
5505.9
5357.55
5360.59
5363.03
5364.98
5366.55
5367.83
5368.89
5369.82
5353.75
5358.17
5361.44
5363.92
5365.83
5367.33
5368.55
5369.58
5350.29
5356.12
5360.24
5363.25
5365.51
5367.25
5368.63
5369.76
5348.52
5355.22
5359.82
5363.1
5365.53
5367.39
5368.86
5370.06
5349.63
5355.84
5360.17
5363.29
5365.62
5367.41
5368.81
5369.95
5352.66
5357.55
5361.07
5363.73
5365.79
5367.4
5368.69
5369.77
5356.34
5359.66
5362.34
5364.51
5366.24
5367.65
5368.79
5369.76
5222.51
5225.31
5227.72
5229.83
5231.76
5233.65
5235.62
5237.71
5219.25
5223.02
5225.98
5228.46
5230.67
5232.83
5234.97
5237.22
5216.62
5221.53
5225.05
5227.89
5230.38
5232.67
5234.96
5237.32
5215.39
5221.14
5224.97
5227.91
5230.45
5232.83
5235.18
5237.58
5215.83
5221.43
5225.15
5228.03
5230.53
5232.88
5235.22
5237.62
5218.47
5222.69
5225.85
5228.52
5230.9
5233.17
5235.45
5237.81
5221.53
5224.54
5227.21
5229.6
5231.77
5233.86
5235.97
5238.15
5084.71
5085.54
5086.06
5086.35
5086.43
5085.99
5084.66
5084.62
5083.56
5084.69
5085.47
5086.04
5086.35
5086.04
5084.91
5085.1
5082.97
5084.47
5085.38
5086.1
5086.54
5086.31
5085.26
5085.61
5083.05
5085.04
5085.93
5086.54
5086.97
5086.77
5085.71
5086.24
5083.54
5085.27
5086.12
5086.76
5087.2
5087
5085.94
5086.25
5084.53
5085.72
5086.52
5087.18
5087.58
5087.39
5086.24
5086.24
5085.55
5086.43
5087.18
5087.78
5088.1
5087.81
5086.76
5086.75
5640.55
5640.6
5640.54
5640.38
5640.43
5640.43
5640.37
5506.53
5506.58
5506.53
5506.49
5506.37
5506.29
5506.16
5371.25
5371.27
5371.28
5371.23
5371.18
5371.07
5370.88
5240.87
5240.9
5240.86
5240.78
5240.67
5240.53
5240.24
5089.59
5089.66
5089.73
5089.78
5089.73
5089.69
5089.64
5640.44
5640.23
5640.34
5640.53
5640.14
5640.18
5640.53
5505.91
5505.9
5506.12
5506.25
5505.93
5505.92
5505.98
5370.63
5370.52
5370.7
5370.84
5370.5
5370.49
5370.65
5240.13
5239.74
5239.66
5239.54
5239.37
5239.58
5240.08
5091.88
5092.1
5093.31
5093.95
5092.87
5091.57
5090.96
5640.38
5640.35
5640.45
5640.42
5640.19
5640.33
5640.69
5506.07
5506.19
5506.35
5506.31
5506.21
5506.32
5506.43
5370.78
5370.83
5371.04
5370.91
5370.92
5370.99
5371.16
5240.36
5240.45
5240.53
5240.37
5240.47
5240.62
5240.82
5090.8
5090.91
5090.94
5091.14
5090.45
5090.16
5089.77
5640.45
5640.18
5640.11
5640.52
5640.35
5640.31
5640.41
5506.03
5505.91
5505.99
5506.26
5506.21
5505.96
5505.94
5370.69
5370.46
5370.67
5371
5370.86
5370.68
5370.66
5239.72
5239.3
5239.37
5239.62
5239.69
5239.94
5240.15
5090
5091.39
5092.74
5093.74
5093.06
5091.94
5091.82
5639.32
5638.15
5637.43
5636.98
5636.7
5636.5
5636.36
5636.24
5639.38
5638.25
5637.52
5637.05
5636.75
5636.54
5636.39
5636.26
5639.32
5638.23
5637.51
5637.04
5636.73
5636.53
5636.38
5636.25
5639.2
5638.1
5637.44
5637.02
5636.72
5636.5
5636.35
5636.23
5639.19
5638.1
5637.4
5636.94
5636.66
5636.46
5636.32
5636.2
5639.2
5638.08
5637.36
5636.9
5636.61
5636.42
5636.28
5636.17
5639.06
5637.9
5637.19
5636.75
5636.48
5636.31
5636.18
5636.08
5506.61
5506.56
5506.51
5506.47
5506.45
5506.43
5506.42
5506.39
5506.67
5506.63
5506.58
5506.54
5506.51
5506.49
5506.47
5506.43
5506.64
5506.62
5506.58
5506.54
5506.51
5506.49
5506.47
5506.43
5506.59
5506.59
5506.56
5506.53
5506.5
5506.47
5506.45
5506.42
5506.48
5506.48
5506.46
5506.44
5506.42
5506.41
5506.4
5506.38
5506.39
5506.38
5506.36
5506.34
5506.34
5506.33
5506.33
5506.31
5506.23
5506.21
5506.19
5506.18
5506.18
5506.19
5506.2
5506.19
5372.62
5373.94
5374.88
5375.53
5375.96
5376.24
5376.42
5376.52
5372.62
5373.98
5374.94
5375.59
5376.02
5376.3
5376.48
5376.57
5372.62
5373.98
5374.93
5375.59
5376.02
5376.3
5376.47
5376.57
5372.62
5373.96
5374.91
5375.56
5376
5376.28
5376.46
5376.55
5372.58
5373.92
5374.86
5375.51
5375.94
5376.22
5376.4
5376.5
5372.49
5373.82
5374.76
5375.41
5375.84
5376.13
5376.32
5376.43
5372.29
5373.62
5374.56
5375.22
5375.67
5375.96
5376.16
5376.28
5243.29
5244.41
5245.17
5245.71
5246.09
5246.37
5246.57
5246.7
5243.35
5244.43
5245.19
5245.74
5246.13
5246.41
5246.61
5246.75
5243.3
5244.39
5245.16
5245.71
5246.11
5246.39
5246.6
5246.74
5243.18
5244.31
5245.09
5245.66
5246.07
5246.36
5246.57
5246.72
5243.05
5244.18
5244.98
5245.56
5245.97
5246.28
5246.5
5246.65
5242.87
5244.02
5244.82
5245.42
5245.85
5246.17
5246.4
5246.57
5242.59
5243.77
5244.6
5245.21
5245.66
5245.99
5246.23
5246.41
5101.66
5109.03
5112.55
5114.46
5115.56
5116.22
5116.64
5116.9
5101.64
5109.02
5112.55
5114.47
5115.57
5116.24
5116.66
5116.92
5101.64
5109.01
5112.54
5114.45
5115.56
5116.23
5116.65
5116.92
5101.63
5108.98
5112.51
5114.42
5115.53
5116.21
5116.63
5116.9
5101.59
5108.93
5112.45
5114.36
5115.47
5116.14
5116.57
5116.84
5101.59
5108.89
5112.39
5114.29
5115.39
5116.06
5116.49
5116.76
5101.61
5108.84
5112.3
5114.17
5115.26
5115.92
5116.35
5116.62
5639.03
5637.81
5637.04
5636.57
5636.27
5636.09
5635.97
5635.88
5638.87
5637.66
5636.88
5636.38
5636.06
5635.85
5635.69
5635.57
5638.95
5637.69
5636.86
5636.3
5635.92
5635.68
5635.49
5635.35
5639.25
5638.03
5637.19
5636.6
5636.18
5635.89
5635.7
5635.55
5638.75
5637.5
5636.69
5636.16
5635.81
5635.6
5635.44
5635.31
5638.85
5637.66
5636.9
5636.4
5636.08
5635.88
5635.73
5635.6
5639.13
5637.9
5637.13
5636.64
5636.32
5636.12
5635.99
5635.89
5505.93
5505.88
5505.82
5505.79
5505.78
5505.79
5505.79
5505.8
5505.91
5505.87
5505.8
5505.74
5505.7
5505.67
5505.65
5505.63
5506.09
5505.99
5505.88
5505.78
5505.69
5505.61
5505.54
5505.49
5506.23
5506.13
5506.03
5505.93
5505.84
5505.76
5505.7
5505.66
5505.92
5505.85
5505.76
5505.68
5505.62
5505.55
5505.5
5505.45
5505.95
5505.9
5505.85
5505.79
5505.75
5505.73
5505.7
5505.68
5506.02
5505.98
5505.93
5505.9
5505.88
5505.88
5505.88
5505.87
5372.01
5373.28
5374.19
5374.83
5375.25
5375.54
5375.73
5375.86
5371.82
5373.06
5373.98
5374.63
5375.08
5375.38
5375.58
5375.71
5371.96
5373.14
5373.98
5374.57
5374.98
5375.26
5375.44
5375.54
5372.13
5373.34
5374.2
5374.78
5375.17
5375.43
5375.6
5375.7
5371.76
5372.96
5373.81
5374.42
5374.84
5375.14
5375.35
5375.47
5371.78
5373.05
5373.99
5374.64
5375.1
5375.4
5375.61
5375.74
5372.03
5373.34
5374.27
5374.92
5375.36
5375.65
5375.84
5375.96
5242.4
5243.55
5244.36
5244.93
5245.34
5245.65
5245.87
5246.03
5242.16
5243.42
5244.23
5244.79
5245.2
5245.49
5245.71
5245.87
5242.13
5243.63
5244.58
5245.15
5245.53
5245.78
5245.93
5246
5241.92
5243.4
5244.32
5244.91
5245.29
5245.56
5245.74
5245.87
5241.84
5243.36
5244.33
5244.94
5245.34
5245.6
5245.76
5245.85
5242.03
5243.33
5244.18
5244.77
5245.2
5245.51
5245.74
5245.9
5242.41
5243.62
5244.45
5245.04
5245.46
5245.77
5245.99
5246.14
5103.02
5109.49
5112.55
5114.2
5115.15
5115.73
5116.1
5116.34
5103.1
5109.45
5112.47
5114.07
5115.01
5115.58
5115.94
5116.17
5104.03
5109.99
5112.82
5114.37
5115.29
5115.84
5116.18
5116.38
5104.38
5110.06
5112.82
5114.31
5115.16
5115.65
5115.96
5116.16
5103.68
5109.68
5112.55
5114.13
5115.06
5115.62
5115.97
5116.19
5102.72
5109.2
5112.29
5113.96
5114.94
5115.55
5115.93
5116.17
5102.38
5109.15
5112.38
5114.13
5115.15
5115.78
5116.17
5116.42
5638.99
5637.79
5637.05
5636.6
5636.32
5636.15
5636.03
5635.94
5639.03
5637.85
5637.12
5636.63
5636.27
5636.04
5635.89
5635.78
5639.13
5637.94
5637.16
5636.63
5636.27
5636.01
5635.82
5635.68
5639.17
5638.01
5637.23
5636.69
5636.32
5636.05
5635.86
5635.73
5638.89
5637.72
5636.98
5636.5
5636.17
5635.93
5635.75
5635.62
5639.07
5637.93
5637.23
5636.78
5636.46
5636.23
5636.08
5635.97
5639.37
5638.19
5637.45
5636.97
5636.65
5636.45
5636.3
5636.18
5506.1
5506.05
5506.01
5505.98
5505.97
5505.97
5505.98
5505.98
5506.22
5506.16
5506.09
5506.02
5505.97
5505.93
5505.91
5505.89
5506.35
5506.28
5506.22
5506.15
5506.07
5506.01
5505.95
5505.89
5506.31
5506.24
5506.15
5506.06
5505.99
5505.94
5505.9
5505.87
5506.25
5506.21
5506.14
5506.06
5505.99
5505.92
5505.87
5505.82
5506.4
5506.35
5506.29
5506.24
5506.19
5506.15
5506.13
5506.1
5506.51
5506.48
5506.43
5506.39
5506.36
5506.34
5506.33
5506.3
5372.18
5373.5
5374.44
5375.08
5375.51
5375.79
5375.98
5376.1
5372.14
5373.47
5374.41
5375.05
5375.48
5375.76
5375.93
5376.03
5372.37
5373.68
5374.64
5375.28
5375.69
5375.95
5376.11
5376.19
5372.22
5373.49
5374.4
5375.03
5375.45
5375.73
5375.9
5375.99
5372.22
5373.48
5374.42
5375.08
5375.52
5375.81
5375.98
5376.08
5372.28
5373.62
5374.58
5375.25
5375.69
5375.97
5376.14
5376.24
5372.49
5373.84
5374.79
5375.45
5375.89
5376.17
5376.35
5376.45
5242.71
5243.85
5244.65
5245.22
5245.62
5245.92
5246.14
5246.29
5242.89
5244.03
5244.81
5245.36
5245.74
5246
5246.19
5246.31
5243.03
5244.28
5245.05
5245.58
5245.95
5246.22
5246.42
5246.55
5242.99
5244.33
5245.15
5245.7
5246.04
5246.26
5246.38
5246.44
5243
5244.26
5245.04
5245.57
5245.94
5246.2
5246.38
5246.5
5243.11
5244.28
5245.05
5245.59
5245.96
5246.22
5246.4
5246.52
5243.27
5244.37
5245.13
5245.67
5246.05
5246.32
5246.52
5246.65
5102.35
5109.23
5112.5
5114.26
5115.29
5115.91
5116.3
5116.55
5102.4
5109.31
5112.59
5114.37
5115.39
5116.01
5116.4
5116.63
5102.42
5109.38
5112.7
5114.48
5115.52
5116.16
5116.57
5116.82
5102.59
5109.53
5112.85
5114.63
5115.65
5116.27
5116.65
5116.87
5102.16
5109.26
5112.66
5114.48
5115.53
5116.17
5116.58
5116.83
5101.98
5109.17
5112.61
5114.46
5115.52
5116.16
5116.56
5116.81
5101.77
5109.08
5112.57
5114.46
5115.55
5116.2
5116.61
5116.87
5639.15
5637.93
5637.15
5636.65
5636.34
5636.14
5636.01
5635.91
5638.88
5637.68
5636.91
5636.4
5636.06
5635.83
5635.67
5635.56
5638.77
5637.54
5636.76
5636.25
5635.91
5635.68
5635.5
5635.37
5639.24
5638.02
5637.19
5636.62
5636.23
5635.95
5635.75
5635.62
5639.02
5637.78
5636.95
5636.39
5636.01
5635.75
5635.56
5635.41
5638.97
5637.74
5636.95
5636.42
5636.08
5635.86
5635.71
5635.6
5639
5637.77
5637
5636.53
5636.24
5636.06
5635.96
5635.87
5506.06
5506.04
5506.01
5505.98
5505.97
5505.98
5505.99
5505.99
5505.91
5505.87
5505.83
5505.78
5505.74
5505.72
5505.7
5505.69
5505.96
5505.87
5505.79
5505.71
5505.65
5505.59
5505.55
5505.51
5506.24
5506.16
5506.07
5505.98
5505.9
5505.84
5505.79
5505.76
5506.17
5506.06
5505.94
5505.83
5505.74
5505.67
5505.61
5505.56
5505.95
5505.89
5505.82
5505.77
5505.73
5505.7
5505.69
5505.68
5505.94
5505.87
5505.81
5505.78
5505.77
5505.78
5505.79
5505.8
5372
5373.3
5374.24
5374.91
5375.38
5375.7
5375.92
5376.05
5371.74
5372.99
5373.89
5374.54
5375.01
5375.34
5375.57
5375.72
5371.91
5373.1
5373.94
5374.51
5374.91
5375.19
5375.37
5375.49
5372.27
5373.48
5374.32
5374.9
5375.28
5375.53
5375.69
5375.8
5372.09
5373.27
5374.09
5374.66
5375.07
5375.34
5375.52
5375.63
5371.99
5373.25
5374.13
5374.75
5375.17
5375.45
5375.64
5375.76
5372.04
5373.3
5374.2
5374.83
5375.25
5375.54
5375.74
5375.86
5242.12
5243.39
5244.28
5244.93
5245.4
5245.75
5246.01
5246.2
5241.82
5243.25
5244.12
5244.71
5245.13
5245.45
5245.69
5245.87
5241.82
5243.31
5244.23
5244.83
5245.25
5245.54
5245.74
5245.87
5242.01
5243.49
5244.41
5245.01
5245.4
5245.68
5245.86
5245.98
5242.16
5243.63
5244.55
5245.16
5245.55
5245.8
5245.98
5246.08
5242.32
5243.53
5244.31
5244.85
5245.24
5245.53
5245.75
5245.91
5242.41
5243.55
5244.35
5244.92
5245.34
5245.65
5245.88
5246.04
5101.82
5108.85
5112.21
5114.02
5115.08
5115.74
5116.17
5116.45
5102.62
5109.21
5112.32
5113.95
5114.88
5115.46
5115.86
5116.13
5103.82
5109.95
5112.81
5114.27
5115.09
5115.61
5115.97
5116.21
5104.45
5110.28
5113
5114.42
5115.23
5115.73
5116.05
5116.25
5103.97
5110.1
5112.98
5114.49
5115.37
5115.9
5116.24
5116.46
5103.06
5109.49
5112.52
5114.12
5115.05
5115.61
5115.97
5116.2
5103
5109.49
5112.56
5114.21
5115.16
5115.74
5116.11
5116.35
5636.16
5636.1
5636.05
5636
5635.96
5635.93
5635.92
5635.91
5636.17
5636.12
5636.06
5636.02
5635.98
5635.95
5635.94
5635.94
5636.16
5636.11
5636.05
5636.01
5635.98
5635.95
5635.94
5635.93
5636.14
5636.09
5636.04
5636
5635.96
5635.94
5635.92
5635.92
5636.12
5636.06
5636.01
5635.97
5635.93
5635.91
5635.89
5635.89
5636.08
5636.03
5635.98
5635.93
5635.89
5635.87
5635.85
5635.85
5636
5635.95
5635.9
5635.85
5635.81
5635.79
5635.77
5635.77
5506.37
5506.35
5506.33
5506.32
5506.3
5506.29
5506.28
5506.28
5506.41
5506.39
5506.37
5506.35
5506.34
5506.32
5506.31
5506.31
5506.41
5506.39
5506.37
5506.35
5506.34
5506.32
5506.31
5506.31
5506.39
5506.37
5506.36
5506.34
5506.33
5506.31
5506.3
5506.3
5506.35
5506.34
5506.32
5506.31
5506.29
5506.28
5506.27
5506.26
5506.29
5506.28
5506.26
5506.25
5506.24
5506.23
5506.22
5506.21
5506.18
5506.17
5506.16
5506.15
5506.14
5506.13
5506.12
5506.12
5376.57
5376.6
5376.62
5376.63
5376.64
5376.64
5376.64
5376.64
5376.62
5376.65
5376.66
5376.68
5376.68
5376.69
5376.69
5376.69
5376.62
5376.64
5376.66
5376.68
5376.68
5376.69
5376.69
5376.69
5376.6
5376.63
5376.65
5376.66
5376.67
5376.68
5376.68
5376.67
5376.55
5376.59
5376.61
5376.62
5376.63
5376.64
5376.64
5376.64
5376.48
5376.52
5376.54
5376.56
5376.57
5376.58
5376.58
5376.58
5376.35
5376.39
5376.42
5376.44
5376.45
5376.46
5376.47
5376.47
5246.78
5246.83
5246.87
5246.9
5246.92
5246.94
5246.94
5246.94
5246.83
5246.88
5246.92
5246.95
5246.97
5246.99
5246.99
5246.99
5246.82
5246.88
5246.92
5246.95
5246.97
5246.99
5246.99
5246.99
5246.8
5246.86
5246.9
5246.94
5246.96
5246.97
5246.98
5246.98
5246.75
5246.81
5246.85
5246.89
5246.91
5246.93
5246.94
5246.94
5246.66
5246.73
5246.78
5246.81
5246.84
5246.86
5246.87
5246.87
5246.51
5246.58
5246.64
5246.68
5246.71
5246.73
5246.74
5246.74
5117.03
5117.11
5117.18
5117.22
5117.25
5117.27
5117.29
5117.29
5117.06
5117.15
5117.21
5117.26
5117.29
5117.31
5117.33
5117.33
5117.05
5117.14
5117.21
5117.26
5117.29
5117.31
5117.32
5117.33
5117.04
5117.13
5117.19
5117.24
5117.28
5117.3
5117.31
5117.32
5116.98
5117.07
5117.14
5117.19
5117.23
5117.25
5117.26
5117.27
5116.91
5117
5117.07
5117.12
5117.16
5117.19
5117.2
5117.2
5116.77
5116.86
5116.93
5116.99
5117.03
5117.05
5117.07
5117.07
5635.82
5635.77
5635.72
5635.67
5635.62
5635.58
5635.55
5635.54
5635.5
5635.45
5635.4
5635.36
5635.33
5635.31
5635.3
5635.3
5635.26
5635.21
5635.17
5635.15
5635.13
5635.12
5635.12
5635.14
5635.47
5635.43
5635.4
5635.38
5635.37
5635.36
5635.35
5635.37
5635.24
5635.19
5635.16
5635.14
5635.12
5635.12
5635.12
5635.14
5635.53
5635.48
5635.44
5635.4
5635.37
5635.34
5635.33
5635.34
5635.82
5635.77
5635.73
5635.68
5635.64
5635.6
5635.57
5635.57
5505.79
5505.79
5505.79
5505.78
5505.78
5505.77
5505.77
5505.76
5505.62
5505.61
5505.6
5505.6
5505.59
5505.59
5505.58
5505.59
5505.45
5505.43
5505.41
5505.4
5505.4
5505.41
5505.41
5505.43
5505.64
5505.63
5505.62
5505.62
5505.62
5505.62
5505.63
5505.64
5505.42
5505.4
5505.39
5505.38
5505.38
5505.39
5505.39
5505.41
5505.67
5505.66
5505.65
5505.65
5505.64
5505.64
5505.64
5505.64
5505.87
5505.86
5505.86
5505.85
5505.85
5505.84
5505.83
5505.83
5375.92
5375.96
5375.99
5376.01
5376.03
5376.04
5376.05
5376.05
5375.78
5375.82
5375.86
5375.89
5375.91
5375.92
5375.94
5375.94
5375.59
5375.62
5375.64
5375.65
5375.66
5375.67
5375.67
5375.68
5375.76
5375.79
5375.82
5375.85
5375.87
5375.88
5375.89
5375.9
5375.53
5375.57
5375.59
5375.61
5375.62
5375.64
5375.64
5375.66
5375.81
5375.85
5375.88
5375.91
5375.94
5375.95
5375.97
5375.98
5376.02
5376.06
5376.09
5376.11
5376.12
5376.13
5376.14
5376.14
5246.13
5246.19
5246.23
5246.27
5246.3
5246.31
5246.32
5246.33
5245.97
5246.04
5246.09
5246.13
5246.16
5246.19
5246.2
5246.2
5246.03
5246.05
5246.06
5246.07
5246.07
5246.07
5246.08
5246.08
5245.95
5246.01
5246.05
5246.09
5246.12
5246.14
5246.15
5246.16
5245.91
5245.94
5245.96
5245.98
5245.99
5246
5246.01
5246.02
5246
5246.06
5246.11
5246.16
5246.19
5246.2
5246.22
5246.23
5246.23
5246.29
5246.34
5246.37
5246.4
5246.41
5246.42
5246.43
5116.46
5116.54
5116.6
5116.64
5116.68
5116.7
5116.71
5116.71
5116.29
5116.37
5116.43
5116.48
5116.52
5116.54
5116.56
5116.56
5116.47
5116.52
5116.55
5116.56
5116.58
5116.59
5116.59
5116.59
5116.27
5116.34
5116.4
5116.44
5116.48
5116.5
5116.52
5116.53
5116.3
5116.36
5116.41
5116.45
5116.46
5116.48
5116.49
5116.49
5116.3
5116.39
5116.45
5116.5
5116.54
5116.56
5116.57
5116.58
5116.55
5116.63
5116.7
5116.74
5116.77
5116.8
5116.81
5116.81
5635.88
5635.84
5635.79
5635.75
5635.71
5635.67
5635.65
5635.64
5635.72
5635.68
5635.65
5635.61
5635.58
5635.56
5635.54
5635.54
5635.59
5635.54
5635.5
5635.47
5635.45
5635.44
5635.43
5635.44
5635.66
5635.62
5635.6
5635.58
5635.56
5635.56
5635.55
5635.57
5635.55
5635.52
5635.49
5635.48
5635.47
5635.47
5635.46
5635.48
5635.9
5635.85
5635.81
5635.78
5635.75
5635.73
5635.71
5635.71
5636.11
5636.05
5636
5635.96
5635.92
5635.89
5635.87
5635.87
5505.97
5505.97
5505.96
5505.96
5505.95
5505.94
5505.93
5505.93
5505.88
5505.88
5505.88
5505.88
5505.87
5505.87
5505.87
5505.86
5505.86
5505.83
5505.82
5505.81
5505.8
5505.8
5505.8
5505.8
5505.86
5505.85
5505.84
5505.84
5505.84
5505.85
5505.85
5505.87
5505.8
5505.79
5505.79
5505.79
5505.79
5505.79
5505.8
5505.81
5506.08
5506.08
5506.07
5506.07
5506.06
5506.06
5506.06
5506.06
5506.28
5506.27
5506.26
5506.25
5506.24
5506.23
5506.22
5506.22
5376.16
5376.19
5376.22
5376.24
5376.26
5376.26
5376.27
5376.27
5376.07
5376.1
5376.12
5376.13
5376.14
5376.16
5376.16
5376.17
5376.22
5376.23
5376.24
5376.24
5376.23
5376.23
5376.23
5376.22
5376.04
5376.07
5376.1
5376.12
5376.14
5376.15
5376.16
5376.17
5376.13
5376.16
5376.18
5376.19
5376.2
5376.21
5376.21
5376.21
5376.28
5376.31
5376.34
5376.35
5376.37
5376.38
5376.38
5376.38
5376.5
5376.53
5376.55
5376.57
5376.58
5376.58
5376.58
5376.58
5246.38
5246.44
5246.48
5246.51
5246.54
5246.56
5246.57
5246.57
5246.37
5246.41
5246.44
5246.46
5246.47
5246.47
5246.48
5246.47
5246.63
5246.67
5246.7
5246.72
5246.73
5246.73
5246.72
5246.72
5246.47
5246.49
5246.5
5246.51
5246.51
5246.52
5246.52
5246.53
5246.57
5246.6
5246.62
5246.63
5246.64
5246.64
5246.65
5246.65
5246.58
5246.62
5246.66
5246.68
5246.7
5246.71
5246.71
5246.71
5246.73
5246.78
5246.82
5246.85
5246.87
5246.89
5246.89
5246.89
5116.68
5116.77
5116.83
5116.87
5116.91
5116.93
5116.94
5116.95
5116.75
5116.82
5116.87
5116.91
5116.93
5116.94
5116.95
5116.95
5116.95
5117.04
5117.11
5117.15
5117.19
5117.2
5117.21
5117.21
5116.98
5117.03
5117.06
5117.07
5117.08
5117.07
5117.07
5117.06
5116.95
5117.02
5117.07
5117.1
5117.11
5117.12
5117.13
5117.13
5116.93
5117
5117.05
5117.09
5117.12
5117.13
5117.14
5117.14
5117
5117.08
5117.14
5117.19
5117.22
5117.24
5117.25
5117.25
5635.84
5635.8
5635.76
5635.71
5635.68
5635.65
5635.63
5635.63
5635.49
5635.45
5635.41
5635.38
5635.36
5635.34
5635.34
5635.35
5635.3
5635.26
5635.23
5635.21
5635.19
5635.19
5635.19
5635.21
5635.54
5635.5
5635.47
5635.45
5635.44
5635.43
5635.42
5635.44
5635.32
5635.27
5635.23
5635.21
5635.19
5635.18
5635.17
5635.19
5635.53
5635.49
5635.45
5635.41
5635.38
5635.35
5635.34
5635.35
5635.81
5635.77
5635.72
5635.67
5635.62
5635.58
5635.55
5635.54
5505.98
5505.98
5505.98
5505.98
5505.97
5505.97
5505.96
5505.96
5505.68
5505.68
5505.67
5505.67
5505.67
5505.67
5505.68
5505.69
5505.48
5505.47
5505.47
5505.46
5505.47
5505.48
5505.48
5505.51
5505.73
5505.72
5505.71
5505.71
5505.7
5505.71
5505.71
5505.73
5505.53
5505.51
5505.49
5505.49
5505.48
5505.48
5505.49
5505.5
5505.67
5505.66
5505.66
5505.65
5505.65
5505.65
5505.64
5505.64
5505.8
5505.8
5505.8
5505.79
5505.79
5505.78
5505.78
5505.77
5376.13
5376.18
5376.22
5376.24
5376.26
5376.28
5376.29
5376.29
5375.8
5375.86
5375.9
5375.93
5375.96
5375.98
5376
5376.01
5375.56
5375.6
5375.63
5375.65
5375.67
5375.68
5375.7
5375.71
5375.85
5375.88
5375.91
5375.93
5375.95
5375.96
5375.97
5375.98
5375.68
5375.71
5375.73
5375.74
5375.75
5375.76
5375.76
5375.77
5375.83
5375.87
5375.91
5375.93
5375.96
5375.97
5375.98
5375.99
5375.93
5375.97
5376.01
5376.03
5376.05
5376.06
5376.07
5376.07
5246.31
5246.39
5246.45
5246.49
5246.53
5246.55
5246.56
5246.57
5245.98
5246.06
5246.12
5246.17
5246.21
5246.23
5246.25
5246.26
5245.93
5245.98
5246
5246.02
5246.04
5246.05
5246.05
5246.06
5246.05
5246.1
5246.14
5246.17
5246.2
5246.21
5246.22
5246.23
5246.12
5246.15
5246.16
5246.17
5246.18
5246.18
5246.18
5246.18
5246.01
5246.08
5246.13
5246.18
5246.21
5246.23
5246.24
5246.25
5246.14
5246.2
5246.25
5246.29
5246.32
5246.33
5246.35
5246.35
5116.61
5116.7
5116.78
5116.83
5116.88