/*--------------------------------*- C++ -*----------------------------------*\
| =========                 |                                                 |
| \\      /  F ield         | OpenFOAM: The Open Source CFD Toolbox           |
|  \\    /   O peration     | Version:  plus.master.MPPICInterFoam            |
|   \\  /    A nd           | Web:      www.OpenFOAM.com                      |
|    \\/     M anipulation  |                                                 |
\*---------------------------------------------------------------------------*/
FoamFile
{
    version     2.0;
    format      ascii;
    class       Cloud<basicKinematicMPPICParcel>;
    location    "4/lagrangian/kinematicCloud";
    object      positions;
}
// * * * * * * * * * * * * * * * * * * * * * * * * * * * * * * * * * * * * * //

508
(
(-0.0311734 -0.002326 0.500453) 2596
(-0.0309411 0.00355825 0.499397) 2596
(-0.0256223 -0.0153252 0.498274) 2611
(-0.0241117 -0.0170505 0.492874) 2619
(-0.0175118 -0.0217358 0.498753) 3466
(-0.0152943 0.024005 0.49049) 4386
(-0.0138698 -0.0234325 0.49615) 3474
(-0.0290205 -0.00790049 0.486815) 2547
(-0.025882 -0.0157422 0.481514) 2499
(-0.0179404 -0.0201558 0.498584) 3465
(-0.0280287 -0.00793885 0.493895) 2603
(-0.0125332 0.0250596 0.483966) 4386
(-0.00971412 -0.02498 0.488761) 3418
(-0.0237502 -0.014947 0.491629) 2554
(-0.0141422 -0.0230419 0.494494) 3474
(-0.0199666 -0.0185459 0.494327) 2618
(-0.0117947 0.023689 0.497645) 4442
(-0.0163049 0.0237549 0.481272) 4338
(-0.00890255 -0.0240369 0.497738) 3474
(-0.0229671 -0.0138956 0.497649) 2610
(-0.0044178 0.0233409 0.499042) 4433
(-0.0213637 0.0180484 0.491154) 2514
(-0.00831505 -0.0240045 0.495915) 3482
(-0.0110318 0.0231948 0.497133) 4442
(-0.0205686 -0.0201562 0.487081) 2562
(-0.0266261 -0.00869982 0.489669) 2546
(-0.012272 -0.0226928 0.489896) 3417
(-0.0280829 -0.00113364 0.493889) 2595
(-0.025428 -0.0069926 0.500586) 2602
(-0.027025 0.00389863 0.497885) 2586
(-0.00128613 -0.0232444 0.485186) 3433
(-0.0149141 -0.0222807 0.490001) 3410
(-0.0209629 0.0204179 0.475334) 2458
(-0.0151242 0.0248393 0.474629) 4331
(-0.00315311 -0.0247553 0.482102) 3425
(-0.0151157 -0.0229775 0.482294) 3410
(-0.0131103 0.0217803 0.495484) 4441
(-0.0208735 -0.0201854 0.482766) 2562
(0.0142415 0.014537 0.498011) 4398
(0.0142146 -0.0108424 0.49824) 1670
(0.0134289 -0.0129329 0.498366) 1670
(-0.00862536 0.0264984 0.468896) 4266
(-0.00845682 -0.0245373 0.480779) 3370
(-0.0189948 0.0186198 0.491862) 2569
(-0.0173743 0.0194408 0.495049) 4449
(-0.0223024 0.013646 0.493979) 2578
(0.0147871 -0.0109327 0.496687) 1670
(-0.0112365 0.0254494 0.47384) 4330
(-0.0045928 -0.0225211 0.492533) 3481
(0.0158144 -0.0073851 0.48242) 1623
(-0.00120149 -0.0255799 0.469485) 3322
(-0.0217342 0.0166938 0.485962) 2514
(-0.0177733 -0.0199683 0.48979) 3409
(-0.0115494 -0.019808 0.499426) 3472
(0.0164004 -0.0126279 0.488387) 1615
(-0.0142267 -0.0245266 0.471306) 3306
(-0.0121719 0.0218203 0.491029) 4385
(0.0163141 -0.0021063 0.493139) 1695
(-0.017183 0.0198304 0.488811) 4393
(-0.0249797 0.00234803 0.500021) 2594
(0.0163433 -0.0114448 0.490359) 1615
(0.0112494 -0.0151581 0.49786) 3511
(-0.00851154 -0.0218949 0.492998) 3473
(-0.0256966 0.00603737 0.492576) 2586
(-0.014052 -0.0204632 0.492462) 3465
(0.0156899 -0.0134021 0.482562) 1615
(0.0157794 -0.00243732 0.480089) 1574
(-0.0150067 0.0234562 0.468862) 4274
(-0.0122216 0.0236709 0.476095) 4330
(0.0014953 -0.0212411 0.487225) 3432
(0.00459783 -0.0186714 0.497702) 3495
(-0.0274547 -0.00340818 0.482667) 2546
(0.0150281 0.011121 0.495487) 1718
(0.0079271 -0.0165515 0.498511) 3503
(-0.0238697 0.016817 0.466145) 2403
(0.0133051 -0.0114239 0.49463) 1670
(0.0163482 -0.0113595 0.489188) 1615
(-0.0174166 -0.0211306 0.476719) 3354
(0.0162725 -0.0136846 0.490267) 1615
(0.0138339 -0.00932044 0.500322) 1678
(-0.0219809 -0.0107718 0.496107) 2609
(-0.023952 0.0077465 0.496379) 2585
(0.00161038 0.0212819 0.499797) 4424
(0.00496435 -0.0246053 0.460102) 3274
(0.0028248 -0.0241531 0.47051) 3321
(-0.018233 0.0183281 0.482882) 4393
(-0.0206581 -0.0149392 0.488534) 2561
(-0.0133838 0.0214762 0.486037) 4385
(-0.00957991 0.0224772 0.489229) 4385
(0.0151473 0.012478 0.491978) 1719
(0.0156746 0.00598266 0.500225) 1702
(-0.00618542 0.0228799 0.484804) 4377
(-0.0241357 -0.00605397 0.496709) 2601
(-0.0142368 -0.0168039 0.500094) 3464
(-0.00441761 -0.0253177 0.470275) 3314
(0.0159713 0.00318535 0.492281) 1703
(-0.011916 -0.0249749 0.46655) 3306
(-0.00612473 -0.0218596 0.489249) 3425
(-0.0264084 -0.000285318 0.486318) 2538
(0.014467 0.0148509 0.485229) 4343
(0.0162353 -0.0134858 0.486948) 1615
(0.0109284 -0.0144543 0.499165) 3510
(0.000425774 0.0213962 0.497957) 4424
(0.00593558 -0.0235064 0.461087) 3273
(0.0150654 -0.0134489 0.475457) 1559
(0.016267 -0.00761469 0.495321) 1679
(-0.00183937 -0.0196709 0.501331) 3488
(0.0152756 -0.00718883 0.49116) 1622
(0.0148955 0.0104725 0.489831) 1662
(-0.0183829 -0.017609 0.482979) 2561
(0.0157126 0.00589393 0.494543) 1703
(0.01653 -0.00901388 0.492607) 1679
(-0.0196787 0.0131233 0.499847) 2568
(-0.0148324 0.0246219 0.453059) 4219
(0.0151971 0.0100186 0.486706) 1654
(-0.0132084 0.0216781 0.477167) 4329
(-0.0112837 0.0220113 0.481598) 4329
(-0.010462 0.0214348 0.487837) 4385
(0.0159845 0.00039135 0.495918) 1695
(0.0160486 0.00265304 0.498851) 1703
(0.0157064 -0.00611204 0.497287) 1687
(-0.0244464 0.00135805 0.494055) 2593
(0.0191123 -0.00493782 0.455338) 1464
(-0.0204381 0.0210589 0.460763) 4226
(0.0130068 -0.0149562 0.488542) 3455
(0.0153029 -0.00694312 0.494218) 1678
(0.0149241 -0.0150117 0.478108) 3399
(0.0109208 -0.014816 0.493254) 3510
(-0.0163784 0.0179003 0.49316) 4448
(0.0158402 0.00329805 0.484967) 1647
(0.0153777 0.0100333 0.48703) 1655
(0.0157638 0.0042727 0.496812) 1702
(-0.0178395 0.0153551 0.497809) 2568
(0.00456139 -0.0190079 0.491132) 3440
(-0.0053152 -0.0212074 0.488509) 3424
(-0.0220332 -0.00790488 0.497293) 2601
(-0.0113617 -0.019894 0.49208) 3472
(0.00356458 0.0213873 0.48321) 4360
(-0.00194527 0.0219152 0.489155) 4369
(0.0134601 -0.0136193 0.486481) 3454
(0.0144178 -0.010532 0.492202) 1670
(-0.00353896 -0.0231331 0.476947) 3369
(0.0157474 0.00437551 0.489717) 1646
(0.014726 0.0150605 0.475401) 4287
(0.0156436 -0.00573198 0.495838) 1686
(-0.013447 -0.0208866 0.477666) 3361
(-0.0133532 -0.0196327 0.484922) 3408
(-0.0235232 0.0078506 0.491525) 2529
(0.000741958 -0.019682 0.494865) 3488
(0.00829756 -0.0152478 0.501363) 3502
(-0.0228606 -0.00274938 0.500705) 2593
(0.00996728 -0.0163747 0.483144) 3447
(0.0142525 -0.0147602 0.476631) 3399
(-0.0247648 -0.00909719 0.477922) 2490
(-0.00709385 0.0216848 0.494724) 4433
(-0.0263094 -0.00207579 0.481168) 2482
(-0.017312 -0.0183913 0.482758) 3409
(-0.0148329 0.0231019 0.45833) 4218
(-0.000476168 -0.0251752 0.460993) 3266
(-0.01935 0.0175725 0.472588) 2457
(-0.0088196 0.0230655 0.474086) 4329
(0.0157925 0.00159665 0.487269) 1638
(0.00293924 -0.0228333 0.4688) 3329
(0.015448 -0.00399822 0.497968) 1686
(-0.0143866 0.0197538 0.482711) 4393
(-0.0280307 0.000382228 0.469825) 2427
(0.00418423 -0.0186971 0.489644) 3439
(0.0109902 -0.0134494 0.497822) 3510
(0.00722212 -0.0177144 0.491794) 3503
(-0.00704915 -0.0211941 0.479721) 3368
(-0.0223533 0.00556699 0.49756) 2585
(-0.00732189 0.0191566 0.500312) 4432
(-0.00193906 -0.0187944 0.500575) 3487
(0.0163313 -0.00777388 0.463503) 1511
(-0.0222859 0.0201063 0.445786) 2291
(0.0151553 0.0106399 0.474155) 1606
(-0.0140857 0.0146017 0.501066) 4447
(0.0150361 -0.0103633 0.487104) 1622
(-0.00306907 0.0212445 0.483192) 4376
(-0.0255066 -0.00533704 0.477423) 2490
(0.0158052 0.00128568 0.476669) 1582
(0.0177759 -0.0129259 0.452159) 1448
(0.00286575 -0.0255213 0.452085) 3210
(-0.0202627 0.0135653 0.479053) 2457
(-0.0269224 0.00112166 0.471014) 2426
(-0.00333877 0.0209993 0.493107) 4432
(0.0158658 -0.000976517 0.476067) 1582
(-0.0266114 -0.00285309 0.470496) 2426
(-0.0232677 -0.00853205 0.479533) 2489
(0.0159497 -0.00599119 0.486621) 1631
(-0.0228629 -0.00322136 0.491955) 2601
(-0.0204901 0.020079 0.452638) 2346
(0.0161142 -0.00949397 0.471979) 1567
(-0.0161803 0.0197377 0.474771) 4337
(-0.0179327 0.017429 0.475845) 2456
(0.0157823 -0.00387154 0.490484) 1630
(-0.0117685 0.0181807 0.491725) 4440
(-0.00408874 0.020336 0.49396) 4432
(0.0158083 -0.0108394 0.479272) 1567
(-0.0177703 -0.0184248 0.471657) 3297
(-0.0212183 -0.00545683 0.496711) 2600
(0.019574 -0.0136037 0.443689) 1392
(0.0148848 -0.0122204 0.470686) 1502
(0.0120959 -0.0146671 0.47915) 3398
(0.0085044 -0.0164129 0.487926) 3447
(-0.0163619 0.0138164 0.501466) 2567
(-0.0250117 -0.00160644 0.477897) 2482
(-0.0128449 0.0177344 0.498871) 4448
(-0.00519032 -0.0184297 0.498041) 3479
(0.00869224 -0.0204625 0.455374) 3280
(0.0120018 -0.0151751 0.463139) 3343
(0.00524525 -0.0195678 0.475275) 3384
(-0.00479593 -0.0230899 0.466438) 3313
(0.0154625 0.00671005 0.472534) 1598
(-0.0151694 -0.01891 0.474562) 3352
(0.0058102 -0.0170181 0.495871) 3495
(-0.0219966 -0.00775313 0.482529) 2545
(-0.00713267 0.0186184 0.495223) 4432
(-0.00123137 -0.0189198 0.492387) 3488
(-0.0218136 0.00577176 0.495429) 2585
(0.0198466 -0.0116208 0.450125) 1400
(-0.013291 0.0190878 0.481197) 4336
(0.0161817 -0.00960469 0.472631) 1567
(-0.00890965 -0.0204 0.478045) 3360
(0.00090389 -0.0207608 0.478453) 3376
(-0.023046 -0.00107793 0.489547) 2537
(-0.000716908 0.0214121 0.472647) 4312
(0.01485 -0.0125895 0.464689) 1503
(-0.022628 0.0148075 0.458135) 2346
(0.0135458 -0.0136161 0.467653) 3342
(0.00675861 -0.0195702 0.464049) 3328
(-0.00896945 0.0227072 0.464652) 4273
(-0.00777707 0.0190019 0.490393) 4384
(-0.0100885 -0.0209526 0.471744) 3305
(0.0164345 0.000836194 0.465035) 1527
(-0.00710551 -0.0185358 0.496714) 3480
(-0.0197685 0.00369276 0.499852) 2584
(-0.0216777 0.0169978 0.45142) 2290
(-0.0115569 0.022732 0.456936) 4217
(-0.0161222 0.0158699 0.486007) 2511
(0.0107763 -0.0149248 0.47712) 3398
(0.0150656 -0.0100048 0.474374) 1566
(-0.017708 0.0115159 0.496487) 2576
(0.015171 -0.0105428 0.480469) 1558
(-0.0107971 -0.023106 0.459891) 3249
(-0.0116637 -0.0158642 0.494688) 3463
(-0.0189574 -0.00509151 0.498594) 2600
(0.0191765 -0.0146466 0.436289) 1337
(0.0150273 -0.00980051 0.463396) 1510
(-0.0154903 0.0199138 0.461446) 4225
(-0.00927852 0.0210028 0.470651) 4273
(-0.0143334 0.0164669 0.489752) 4391
(0.0158383 -0.00556371 0.483488) 1631
(-0.0242044 0.000453145 0.474635) 2481
(0.00246873 -0.019388 0.481341) 3384
(0.000519146 -0.0221037 0.46619) 3321
(-0.0178408 0.0115948 0.491656) 2520
(-0.0121753 -0.014712 0.495449) 3462
(-0.0208109 0.00272251 0.494402) 2584
(-0.0208625 0.00425738 0.493738) 2584
(0.00287598 -0.0258048 0.441854) 3154
(0.0028793 -0.0238789 0.449597) 3209
(-0.0201745 0.0177493 0.450506) 2289
(0.0194137 -0.00840016 0.452437) 1456
(-0.0184837 0.0168284 0.465879) 2401
(-0.00736732 0.0184011 0.488552) 4383
(0.016799 0.00600701 0.451018) 1423
(-0.00260938 -0.0224986 0.465376) 3321
(-0.00260639 -0.0196395 0.485118) 3424
(-0.0173109 -0.0142411 0.484321) 2560
(-0.00735238 -0.0186955 0.487538) 3416
(0.0163813 -0.0170534 0.438421) 3176
(0.0114104 -0.0238286 0.433574) 3170
(-0.0131248 0.0179934 0.477209) 4336
(0.00669847 -0.0183637 0.468374) 3327
(0.0166789 -0.00420484 0.463928) 1519
(0.016084 -0.00636032 0.475993) 1575
(0.0153994 0.00735145 0.456658) 1486
(-0.0234552 -0.00372453 0.473007) 2489
(0.019007 0.0012522 0.450336) 1416
(0.0163736 0.002048 0.457392) 1471
(0.00203122 -0.0204892 0.469694) 3320
(-0.0226937 0.00472478 0.481038) 2473
(-0.00400612 0.0217447 0.462305) 4265
(-0.0237498 0.0148103 0.442961) 2298
(-0.0108918 -0.0237742 0.450655) 3194
(-0.00903146 0.0196707 0.474855) 4328
(0.0157896 0.0095112 0.453727) 1487
(-0.000197767 -0.018862 0.478555) 3375
(-0.00060131 0.0207523 0.466726) 4256
(-0.00495036 0.0214282 0.47418) 4320
(0.00875561 -0.0236895 0.437187) 3161
(0.0128507 -0.0143849 0.45941) 3286
(0.0202742 -0.0112753 0.441321) 1344
(-0.00863011 -0.0229801 0.45607) 3249
(-0.0128328 0.0171596 0.47906) 4335
(-0.00778978 0.0187259 0.481563) 4328
(-0.00668646 0.018876 0.481283) 4320
(-0.0198648 -0.00762801 0.484562) 2544
(-1.37719e-05 0.0211957 0.459942) 4200
(-0.0123145 -0.0168576 0.482431) 3407
(-0.0190638 0.0151098 0.461393) 2345
(-0.0166416 0.0146408 0.475814) 2455
(-0.0125194 -0.019785 0.460148) 3248
(-0.0212903 0.00971289 0.475453) 2465
(0.0180383 0.00237849 0.450438) 1423
(-0.0229247 0.00416269 0.474443) 2473
(-0.0065097 -0.0195175 0.472523) 3368
(-0.010837 -0.0163157 0.489873) 3415
(-0.0194257 -0.00490123 0.48907) 2544
(-0.0191971 0.000895113 0.491484) 2536
(0.013199 -0.017103 0.446513) 3232
(-0.0260806 -0.00536915 0.451881) 2322
(0.0167784 -0.00439239 0.460844) 1463
(-0.0105445 -0.0202268 0.457502) 3248
(0.0163199 -0.00429218 0.465135) 1519
(-0.0175864 0.0118967 0.48059) 2456
(-0.020132 0.00676587 0.483585) 2528
(-0.0042088 -0.0200305 0.470144) 3312
(-0.0193095 0.000275375 0.488049) 2536
(-0.0200547 -0.00546881 0.484329) 2544
(0.0129267 -0.0239372 0.422516) 3114
(0.00732408 -0.0227466 0.439589) 3161
(0.0150231 -0.0107631 0.458089) 1446
(-0.0128058 0.0171266 0.470344) 4279
(0.0154453 -0.00595557 0.465104) 1518
(-0.0113157 -0.0233733 0.444272) 3194
(0.0201301 -0.00140542 0.442181) 1360
(-0.00715837 0.0208325 0.468384) 4264
(-0.00234051 0.0210547 0.455376) 4200
(-0.0149985 -0.0147496 0.480179) 2503
(-0.0169222 0.011491 0.476326) 2455
(-0.0189303 6.62418e-05 0.486748) 2536
(0.0195618 -0.0126055 0.43703) 1344
(-0.0167053 0.0194868 0.446827) 4169
(0.000857335 -0.0223173 0.451277) 3209
(-0.0138577 -0.020699 0.449362) 3185
(-0.00971521 0.0185009 0.470489) 4272
(-0.00727396 0.0207167 0.465579) 4264
(-0.00830345 0.0181825 0.473814) 4327
(-0.0199781 0.0109165 0.473191) 2464
(-0.0130257 -0.0170201 0.468101) 3295
(-0.0209451 0.0045069 0.479097) 2472
(-0.00832633 -0.0184763 0.471598) 3304
(-0.00316887 -0.019639 0.470888) 3312
(0.0127609 -0.0148142 0.448467) 3230
(0.01629 0.00996985 0.445699) 1431
(-0.0132848 0.0175412 0.465405) 4280
(-0.0248808 0.00430571 0.455764) 2362
(-0.0239475 0.00439462 0.460294) 2361
(-0.00543216 -0.0184079 0.47352) 3367
(0.0034415 -0.0266243 0.427814) 3106
(-0.025353 -0.00793714 0.446535) 2322
(-0.0112954 0.0202776 0.455561) 4216
(-0.00797997 0.0181998 0.469706) 4271
(-0.0020527 0.0204495 0.454122) 4200
(-0.018323 0.0126717 0.465315) 2400
(-0.0201054 -0.000773725 0.480986) 2480
(0.0206311 -0.0106278 0.435485) 1345
(-0.00922066 0.0180894 0.465635) 4272
(-0.00701762 0.0197514 0.455752) 4208
(-0.0235567 -0.00734591 0.45257) 2377
(-0.0144974 -0.0178484 0.454672) 3240
(-0.000595994 -0.02352 0.442072) 3153
(0.0192079 0.00853925 0.431315) 1320
(-0.0240744 0.0018608 0.455527) 2369
(-0.00266019 -0.0210351 0.458217) 3256
(-0.0208533 -0.000288775 0.474714) 2480
(0.0165491 -0.00819869 0.450566) 1399
(-0.0207794 -0.00788891 0.466274) 2432
(-0.00248157 -0.0193478 0.464727) 3312
(-0.0220723 0.0153073 0.434675) 2234
(0.0178387 -0.00369368 0.451506) 1407
(-0.0155249 0.0155052 0.463898) 2399
(0.0191583 0.000509315 0.439195) 1360
(-0.00724836 0.0213333 0.441425) 4097
(-0.00950449 -0.0174649 0.465635) 3303
(-0.00717592 -0.018127 0.466474) 3303
(-0.00446989 -0.0200772 0.459836) 3256
(-0.0214766 0.00497073 0.466371) 2416
(-0.00780989 -0.0184162 0.469186) 3304
(0.0149807 -0.0204058 0.421888) 3065
(-0.018544 0.0202567 0.430225) 4058
(-0.0155049 0.0155866 0.460412) 4223
(0.0149336 -0.00981165 0.450007) 1398
(-0.0220386 0.00122222 0.460627) 2369
(-0.0172291 0.0145067 0.455481) 2344
(-0.0201011 -0.00701588 0.464388) 2432
(-0.0185803 0.0113942 0.459538) 2352
(0.0134791 -0.0197073 0.426982) 3121
(-0.0110459 0.0210591 0.442705) 4161
(-0.0121751 0.0197501 0.446884) 4160
(-0.0119572 0.0176502 0.453691) 4224
(-0.0188886 0.00116886 0.474682) 2479
(-0.0200671 0.00329133 0.469924) 2416
(-0.0206877 -0.00408695 0.464337) 2432
(0.0167912 -0.0209002 0.41162) 3010
(0.0179637 -0.0177117 0.418804) 1225
(-0.0191046 0.0190829 0.429744) 2177
(0.015231 -0.0105349 0.4456) 1391
(-0.00270764 0.0219885 0.435188) 4089
(-0.0104402 0.0200378 0.444744) 4160
(0.0118987 -0.0214978 0.42286) 3113
(-0.012645 0.0172857 0.449653) 4168
(0.0161951 0.0121925 0.429365) 1327
(-0.0236955 0.000672261 0.445977) 2313
(0.017056 -0.00818125 0.441685) 1343
(-0.00725333 0.0205348 0.436059) 4096
(-0.019467 -0.0081327 0.459633) 2384
(0.0168447 -0.0226643 0.404668) 3010
(-0.0190199 0.0131916 0.443828) 2288
(-0.0176168 0.0102403 0.45533) 2351
(-0.0216885 0.0041425 0.452609) 2361
(0.0188027 0.00145161 0.436686) 1359
(-0.00680237 -0.0179992 0.459136) 3255
(-0.018979 0.000314657 0.466824) 2424
(-0.00623463 0.0184823 0.451617) 4151
(-0.0115997 0.0171882 0.449041) 4159
(-0.0211274 -0.00709511 0.450328) 2320
(-0.0197261 -0.00115177 0.459921) 2368
(-0.0186392 0.00132634 0.463915) 2423
(-0.016201 0.0161003 0.443186) 2287
(0.0151718 -0.00854658 0.445332) 1398
(-0.0195367 -0.0085213 0.452147) 2384
(-0.00300343 0.0223396 0.426403) 4041
(-0.00429026 -0.0196972 0.448523) 3200
(0.0194854 -0.00651743 0.429263) 1296
(-0.0213453 -0.00657601 0.448039) 2320
(-0.0200403 -0.000287798 0.452251) 2368
(-0.0128271 0.016216 0.445501) 4167
(-0.00885338 0.0202741 0.435621) 4104
(-0.0197572 -0.000184642 0.452909) 2368
(-0.0151451 0.019428 0.42905) 4057
(0.0193233 -0.00246957 0.435684) 1352
(-0.00707557 0.0199371 0.428898) 4040
(0.0174391 -0.00227075 0.445612) 1415
(-0.0221219 0.00373631 0.442048) 2249
(-0.00624055 0.0198237 0.427492) 4040
(-0.0134451 0.0191516 0.430242) 4056
(-0.00252489 -0.0194571 0.443994) 3200
(0.0183803 -0.0104924 0.423428) 1288
(0.0155911 -0.0100114 0.434794) 1343
(-0.0213063 -0.00674708 0.440086) 2264
(-0.00389285 -0.0198307 0.441137) 3144
(-0.022948 -0.00256735 0.435422) 2257
(-0.0219321 -0.00100475 0.439727) 2257
(-0.0199898 -0.00827988 0.441321) 2272
(-0.00760109 0.0184403 0.435556) 4104
(-0.0149374 0.0165643 0.428782) 4055
(0.0185674 -0.00691182 0.425498) 1296
(-0.0191035 -0.00970022 0.438556) 2272
(-0.00334727 0.0213472 0.418013) 3984
(-0.00263615 0.0196785 0.423748) 4040
(-0.0056037 -0.0185928 0.43927) 3143
(-0.0118519 0.018456 0.427092) 4048
(-0.00235138 0.0193737 0.420619) 3976
(-0.000206788 -0.0212734 0.425729) 3096
(0.0193355 -0.00198987 0.424912) 1304
(-0.000302706 -0.0192414 0.433447) 3152
(0.000126011 -0.018967 0.433126) 3152
(0.0188017 -0.00727152 0.423593) 1296
(-0.0214217 -0.00719205 0.426258) 2209
(-0.00239276 0.019942 0.413736) 3976
(-0.00407327 0.021133 0.407876) 3928
(-0.0219621 -0.00166839 0.428072) 2201
(-0.0203204 -0.00841313 0.424421) 2216
(-0.00515202 -0.019772 0.42483) 3088
(-0.00853392 0.0192493 0.40794) 3936
(-0.0183191 -0.0086823 0.424888) 2216
(-0.00990104 0.0197093 0.411834) 3936
(-0.0225109 -0.00385532 0.416235) 2153
(-0.00219021 0.0201712 0.40314) 3920
(0.00148918 -0.0206121 0.415307) 3040
(-0.00764899 -0.018794 0.418362) 3024
(0.000609188 -0.019743 0.416998) 3040
(-0.00556395 0.0201837 0.395992) 3872
(-0.0211315 -0.00501511 0.413568) 2152
(-0.00416822 -0.0205104 0.407555) 2976
(-0.00405399 0.0197336 0.393361) 3872
(-0.0201993 -0.00748696 0.406075) 2096
(0.0016308 -0.0206992 0.403423) 2984
(-0.000101083 -0.0187426 0.405026) 2983
(-0.0198683 -0.00715274 0.400827) 2040
(0.00246032 -0.0201228 0.399519) 2928
(0.0187544 -0.00202327 0.387744) 1079
(-0.00278635 0.0193763 0.386218) 3816
(-0.0197684 -0.0061104 0.39407) 2040
(0.000216068 0.0189919 0.38255) 3752
(0.0185114 -0.00341922 0.391217) 1071
(0.00118485 -0.0204501 0.389218) 2872
(-0.00529885 0.0189952 0.37814) 3760
(-0.0206567 -0.00287722 0.389604) 1984
(-0.00261348 -0.0187933 0.389984) 2863
(0.0185301 -0.00194082 0.376988) 1023
(0.00215014 -0.0201337 0.383333) 2872
(-0.00240535 0.0187619 0.369567) 3703
(-0.00182798 -0.0192427 0.376135) 2816
(-0.0194888 -0.00388157 0.374221) 1928
(-0.00399608 -0.019304 0.369635) 2752
(-0.00428868 0.0180776 0.370893) 3703
(-0.00242033 0.0191896 0.349555) 3584
(-7.35396e-05 -0.0193554 0.351933) 2648
(-0.0190515 -0.000612538 0.351325) 1752
(-0.0186445 -0.00340947 0.351594) 1759
(-0.00269073 0.0191952 0.347907) 3592
(-0.0189788 -0.00254601 0.348367) 1760
(-0.00585511 0.0183716 0.344381) 3591
(-0.00905648 -0.0170551 0.501592) 3471
)


// ************************************************************************* //
