/*--------------------------------*- C++ -*----------------------------------*\
| =========                 |                                                 |
| \\      /  F ield         | OpenFOAM: The Open Source CFD Toolbox           |
|  \\    /   O peration     | Version:  plus.master.MPPICInterFoam            |
|   \\  /    A nd           | Web:      www.OpenFOAM.com                      |
|    \\/     M anipulation  |                                                 |
\*---------------------------------------------------------------------------*/
FoamFile
{
    version     2.0;
    format      ascii;
    class       vectorField;
    location    "4/lagrangian/kinematicCloud";
    object      U;
}
// * * * * * * * * * * * * * * * * * * * * * * * * * * * * * * * * * * * * * //


508
(
(-0.00337204 0.00364731 0.21892)
(-0.00264691 0.00459645 0.220489)
(-0.00509185 0.00151991 0.224583)
(-0.00558008 0.00153081 0.221032)
(-0.00633316 -0.00137739 0.234432)
(0.0010345 0.00707178 0.232343)
(-0.00749365 -0.00478858 0.232008)
(-0.00459909 0.00424495 0.217696)
(-0.00395077 0.00384173 0.209563)
(-0.00706492 -0.000880606 0.247061)
(-0.0059328 0.00321117 0.232727)
(0.0022468 0.00662443 0.22771)
(-0.00766261 -0.0030979 0.225136)
(-0.00635178 0.000948861 0.235777)
(-0.00772908 -0.00468097 0.235012)
(-0.00766168 -0.000197409 0.244143)
(0.000813656 0.00775642 0.256213)
(0.00263714 0.00405269 0.224778)
(-0.00923614 -0.00559725 0.241631)
(-0.00707213 0.000323093 0.251447)
(0.00248978 0.0118021 0.276289)
(-0.00204257 0.00860926 0.24574)
(-0.00907128 -0.00481454 0.240905)
(0.000169823 0.00769172 0.26133)
(-0.00825717 -0.00135636 0.22581)
(-0.00593997 0.00341491 0.238921)
(-0.00747708 -0.00222927 0.238216)
(-0.00580618 0.00508829 0.245127)
(-0.00777408 0.00243075 0.26384)
(-0.00648502 0.00625306 0.256255)
(-0.00518645 0.00435788 0.243293)
(-0.00728171 -0.00279129 0.234501)
(0.00325885 0.00409106 0.224748)
(0.00352427 0.00202691 0.21929)
(-0.00573944 0.00111498 0.232108)
(-0.00547087 -0.00401006 0.225402)
(-0.000390031 0.0087529 0.266629)
(-0.00756408 -0.000100276 0.22203)
(-0.000631508 0.0127927 0.282912)
(0.0139757 -0.0145183 0.288074)
(0.00861541 -0.0204071 0.289157)
(0.00258116 -0.000142954 0.221372)
(-0.00609022 0.00017188 0.228771)
(-0.00115485 0.00821883 0.26479)
(-0.00276158 0.010726 0.268241)
(-0.002626 0.00789634 0.265414)
(0.000974038 -0.0144844 0.278074)
(0.00325414 0.000870055 0.226128)
(-0.00650908 -0.00498111 0.257885)
(0.00057805 -0.00144444 0.2835)
(-0.00485458 0.003481 0.220587)
(-0.000294407 0.00768165 0.248583)
(-0.00582585 0.000483281 0.242756)
(-0.00750083 -0.00536682 0.277401)
(0.00579921 -0.0130325 0.245329)
(-0.00675277 0.000656241 0.215488)
(0.000394065 0.00859282 0.263232)
(0.00149333 0.00238966 0.299648)
(-0.00338621 0.00827904 0.258329)
(-0.00775085 0.00623894 0.283068)
(-0.00046025 -0.00967768 0.24505)
(-0.0066105 -0.00379155 0.280475)
(-0.00774423 -0.00591934 0.260503)
(-0.00656411 0.00788956 0.263115)
(-0.0052342 0.00267884 0.253877)
(-0.00735578 -0.0045139 0.247697)
(-0.00925606 0.00385494 0.306652)
(0.00279669 0.00066367 0.231864)
(0.0032916 0.00199762 0.239872)
(-0.00277723 -0.00165408 0.264302)
(-0.00483883 -0.00938306 0.287559)
(-0.00800672 0.00435076 0.24262)
(0.00568036 0.00751535 0.290339)
(0.00219655 -0.021479 0.295243)
(0.00380165 0.00409695 0.225497)
(0.0371012 -0.0180122 0.297493)
(0.00205195 -0.00852389 0.250965)
(-0.00498109 0.00145776 0.229801)
(0.00561948 -0.0137073 0.243181)
(-0.00146659 0.000530308 0.301102)
(-0.00975842 0.000573406 0.278154)
(-0.00563564 0.00964091 0.278092)
(0.00339432 0.0128971 0.29826)
(-0.00884897 0.0020374 0.225144)
(-0.00753683 0.00252509 0.233944)
(-0.00100614 0.0037317 0.265078)
(-0.00722584 0.00456228 0.259233)
(0.00105543 0.00673033 0.262321)
(0.000940092 0.00834999 0.268107)
(0.005859 0.00710257 0.281215)
(-0.000793148 0.00598674 0.30608)
(0.00152249 0.00653896 0.267854)
(-0.00936764 0.00292043 0.279358)
(-0.00773333 0.00105596 0.299739)
(-0.00439031 0.00377765 0.226402)
(-0.0064795 0.00709548 0.305118)
(-0.00652283 0.00155673 0.219208)
(-0.00576017 -0.00434063 0.262791)
(-0.00582953 0.00665601 0.25767)
(0.00344634 0.00430547 0.27314)
(0.00910877 -0.0148479 0.244097)
(0.00912782 -0.0163755 0.291027)
(0.00310615 0.0130332 0.296223)
(-0.00926139 0.00315326 0.23196)
(-0.00995719 0.00182551 0.259839)
(-0.0150381 0.00396869 0.273172)
(-0.00287156 -0.0133229 0.299872)
(0.00910519 -0.00452672 0.29186)
(0.0141497 0.00672817 0.290653)
(-0.00601885 0.00285435 0.258729)
(0.00204875 0.0125937 0.303684)
(-0.00821585 -0.00144108 0.259624)
(-0.0112816 0.0115586 0.299577)
(0.00128524 0.00172932 0.217872)
(0.00171636 0.00678018 0.2853)
(0.00422914 0.00249043 0.256314)
(0.00444244 0.00516314 0.262107)
(0.000494914 0.00852831 0.273899)
(0.0266574 0.00275283 0.315721)
(0.0136201 0.0105882 0.313099)
(-0.00826144 0.0018514 0.2939)
(-0.00908873 0.00656196 0.284276)
(-0.0238916 0.0044287 0.265785)
(0.00337144 0.00258734 0.226408)
(-0.000328437 -0.00150505 0.266029)
(0.0116308 -0.00126484 0.29702)
(-0.000159056 -0.00238354 0.25521)
(0.00191008 -0.0107024 0.283556)
(-0.00245147 0.0105644 0.288753)
(-0.0149417 0.00293418 0.304237)
(0.000194138 0.00622764 0.284278)
(0.00479402 0.0085749 0.308778)
(-0.0106414 0.0158037 0.297743)
(-0.00176598 -0.00782481 0.278529)
(-0.00597381 -0.00272809 0.270332)
(-0.0109276 0.00144254 0.296182)
(-0.0088989 -0.00375462 0.273845)
(0.0015738 0.00624708 0.273716)
(0.0016285 0.0100176 0.285524)
(-0.000896327 -0.00119933 0.278048)
(0.0306542 -0.00950511 0.282222)
(-0.00414007 0.00241966 0.249166)
(-0.00280185 0.00572568 0.303402)
(-0.00386188 0.00190683 0.268345)
(0.00675542 0.00334538 0.29652)
(-0.00452006 0.0029412 0.251719)
(-0.00236983 0.00690367 0.261895)
(-0.00575374 0.0086959 0.277313)
(-4.21355e-05 -0.0130603 0.290999)
(0.0036378 -0.0259785 0.307975)
(-0.0102549 0.00410907 0.307098)
(-8.6111e-05 -0.0104245 0.275271)
(-0.00305375 0.00288796 0.261315)
(-0.00579506 0.000925234 0.254929)
(0.000951714 0.012241 0.287192)
(-0.00416913 0.00648546 0.257243)
(-0.00512005 0.00293737 0.25921)
(0.00218011 0.00133357 0.234046)
(-0.00596337 0.00311455 0.232408)
(0.00266188 0.00417382 0.259153)
(0.00777429 0.00164303 0.258912)
(-0.00654782 0.00377976 0.309334)
(-0.00747056 0.00359082 0.249249)
(0.026407 0.0017285 0.314258)
(-0.000572269 0.0045641 0.271961)
(0.000497801 0.00656594 0.239582)
(-0.00102056 -0.0113303 0.284536)
(0.0258591 -0.0417012 0.305757)
(0.00182409 -0.0290201 0.285547)
(-0.00526621 0.00134639 0.265738)
(-0.00923811 0.0105863 0.30445)
(-0.000486986 0.011064 0.32336)
(-0.00353286 -0.026015 0.315151)
(-0.0208877 0.00449065 0.289349)
(0.000234212 0.00415633 0.215968)
(-0.00475617 0.00388967 0.284677)
(-0.00272113 0.00571841 0.346862)
(0.00479333 -0.00895534 0.277116)
(0.00222177 0.00560663 0.289495)
(-0.00456265 0.00398212 0.259986)
(-0.00902047 0.00619111 0.315057)
(-0.00573093 0.00387044 0.245799)
(-0.00622173 -0.000954141 0.226941)
(0.00178906 0.00446195 0.277951)
(0.00190479 0.00694396 0.250342)
(0.00172017 0.0081013 0.299463)
(-0.00642708 0.0069956 0.310702)
(0.00149147 0.00542304 0.255118)
(-0.0017819 0.00318049 0.272084)
(0.00350659 0.00137641 0.288752)
(-0.0111504 0.00457688 0.297327)
(0.000615931 0.00575066 0.234562)
(-0.013471 0.00194665 0.272787)
(0.00355144 0.00235712 0.25813)
(0.00263051 0.0023814 0.276035)
(0.00874476 0.000238938 0.300844)
(-0.00232407 0.00673657 0.30712)
(0.0012956 0.00941022 0.307537)
(-0.00387021 -0.000630931 0.263611)
(-0.00242244 0.00635988 0.259122)
(-0.0121358 0.00237932 0.315055)
(0.00644168 -0.00254279 0.221187)
(-0.00119654 0.00396147 0.277888)
(-0.00811055 0.0020345 0.276894)
(0.00304274 -0.0249684 0.289122)
(-0.00630953 0.0142801 0.330343)
(-0.00167286 0.00724029 0.270815)
(-0.00347437 0.0130957 0.316785)
(-0.00634724 -0.0132458 0.311785)
(-0.0109045 0.00374578 0.256439)
(-0.0107668 0.0133475 0.284194)
(-0.00466459 0.00616559 0.274424)
(-0.00412454 0.00599188 0.254333)
(-0.0163655 0.000885332 0.307815)
(-0.00322542 0.0055644 0.26689)
(0.00271652 -0.0471999 0.308151)
(-0.00494693 0.00349787 0.288824)
(-0.000306884 0.00950484 0.325389)
(-0.00196805 -0.0135046 0.304401)
(-0.00925288 0.0104587 0.307511)
(0.000903339 0.00236301 0.226401)
(0.00266577 0.00300902 0.284472)
(-0.0154071 0.00202981 0.272297)
(-0.00465565 0.00305546 0.273737)
(-0.00397882 0.00206399 0.272242)
(-0.0104096 0.00599523 0.297611)
(0.000807937 8.58653e-05 0.281791)
(-0.00183583 0.00581005 0.283365)
(-0.000730626 0.00296509 0.24913)
(-0.00994856 0.00729502 0.289704)
(-0.0097906 0.00859432 0.272384)
(0.00260174 -0.00148608 0.262499)
(0.000222103 0.00709692 0.314283)
(-0.00329801 0.00596027 0.267444)
(-0.0198 0.00271257 0.318968)
(-0.00742485 -0.0237254 0.312729)
(-0.00295975 0.00446402 0.344654)
(0.000106026 0.00425843 0.242947)
(0.00101695 0.000478402 0.251183)
(-0.00194774 0.00931713 0.306166)
(-0.00861238 -9.65368e-05 0.282846)
(-0.00619708 0.00125686 0.281215)
(-0.00573415 0.0120139 0.327436)
(-0.00172296 -0.00469336 0.274436)
(-0.00603437 -0.000771583 0.246134)
(-0.0115236 -0.0282258 0.323359)
(-0.0091461 0.00178398 0.341979)
(0.00699144 -0.0041561 0.214618)
(-0.0110884 0.0052927 0.295665)
(0.0032947 4.69377e-05 0.264333)
(0.00285885 -0.000818759 0.278495)
(-0.00324476 0.011696 0.310107)
(0.000859409 0.00280205 0.292908)
(0.000815529 0.00650763 0.281262)
(-0.00226092 -0.000757014 0.287269)
(-0.00592088 0.00604192 0.264393)
(-0.00499565 0.0116271 0.319517)
(-0.0125543 -0.0277693 0.334746)
(-0.00504002 0.00129466 0.32743)
(-0.00400261 0.00497667 0.32205)
(-0.00445487 -0.00543672 0.223888)
(-0.00148702 0.00289681 0.24451)
(0.00023216 0.00363638 0.251013)
(-0.00497839 0.00172419 0.250012)
(0.00415581 0.00157034 0.275284)
(-0.000174994 -4.07685e-05 0.320795)
(-0.00985839 0.00221322 0.307978)
(-0.00482855 0.00650623 0.267308)
(-0.00401632 -0.000317214 0.29442)
(-0.00621116 0.00233256 0.291081)
(-0.00665737 -0.00644254 0.301336)
(0.00145717 0.00117943 0.23567)
(-0.00060479 -0.00813354 0.202653)
(0.00374127 0.000511903 0.294069)
(-0.00805343 0.00763732 0.28276)
(-0.0233339 0.00492973 0.306418)
(-0.0152091 0.00683109 0.291619)
(-0.00565338 0.00431648 0.319559)
(0.00188013 0.00647384 0.286341)
(-0.0105192 0.00148001 0.283874)
(-0.0134852 0.00237509 0.325942)
(-0.00554141 0.00711383 0.28168)
(-0.00433139 0.00777299 0.291819)
(-0.000961629 -0.00139054 0.285225)
(-0.00227578 0.00497341 0.235114)
(-0.00567358 0.00216551 0.243045)
(0.00239477 -0.00305938 0.295107)
(-0.00849085 0.00502587 0.300624)
(-0.00344694 0.00628459 0.302639)
(-0.000800076 -0.00398708 0.296295)
(0.000606149 0.00351627 0.283606)
(0.00158621 -0.00677192 0.220564)
(-0.0118566 0.00423826 0.289962)
(0.00881533 -0.000973642 0.225152)
(-0.0019938 -2.32217e-06 0.258546)
(0.00277916 -0.000854819 0.306426)
(0.00168884 0.00175024 0.3096)
(0.0011748 0.00333696 0.312698)
(-0.00140957 -0.000970767 0.313165)
(0.000324054 0.00135036 0.289923)
(-0.00619694 -0.00406372 0.302999)
(0.00327002 0.00142632 0.279107)
(0.00128875 -0.00355078 0.305014)
(-0.00346044 0.00677081 0.278599)
(0.00240205 0.00550839 0.287653)
(0.0241897 -0.000240899 0.302057)
(0.000760024 0.00627056 0.293366)
(-0.00287115 0.010966 0.296975)
(-0.00962117 -0.0287347 0.324282)
(-0.00590976 0.00168323 0.333139)
(-0.00350213 0.00761164 0.350009)
(-0.00277789 -0.0112382 0.262478)
(-0.00516697 0.00501987 0.257584)
(-0.0152469 0.00418613 0.305687)
(-0.00406238 0.00748831 0.279356)
(-0.0156048 0.00451459 0.313163)
(-0.000453385 0.00349656 0.314869)
(-0.00260909 0.00887149 0.317711)
(-0.00307676 0.0139226 0.295024)
(0.00139103 0.00682976 0.344286)
(-0.00297974 0.00238888 0.318781)
(-0.000827067 -0.00536668 0.186326)
(0.000506859 -0.00720245 0.237668)
(0.00138853 0.00360178 0.291461)
(0.00301444 -0.00281895 0.305781)
(-0.0111324 0.00483555 0.317016)
(-0.00703945 -0.000346821 0.243869)
(0.0125196 0.00100524 0.267339)
(0.00140115 -0.00290351 0.288092)
(-0.00253464 0.00104518 0.291526)
(-0.0038499 0.00285707 0.317219)
(0.0066058 -0.00987067 0.323023)
(0.00555086 0.00645058 0.348917)
(0.00569853 -0.00415518 0.22481)
(-0.00184151 0.00397883 0.258133)
(-0.00564677 0.00526153 0.273057)
(-0.00655703 0.00234894 0.263136)
(0.00219814 -0.00344606 0.30598)
(0.00118944 -0.0036296 0.291612)
(0.00234911 -0.00633515 0.31751)
(0.0035793 0.00415603 0.295096)
(-0.00038545 0.0106561 0.305311)
(0.000441798 0.00701446 0.315449)
(-0.00369849 0.010466 0.306233)
(-0.00358346 0.0142517 0.304405)
(-0.00577864 0.0117097 0.295944)
(0.00432314 0.00884337 0.28998)
(0.00425075 -0.00263422 0.299966)
(0.000532442 0.00510149 0.27277)
(0.00358859 0.00522165 0.283847)
(-0.00350584 0.00916358 0.314253)
(-0.00359756 -0.00646935 0.207102)
(-0.00743228 0.00216329 0.256418)
(-0.000338804 0.00110142 0.278449)
(0.00151906 -0.00429419 0.317711)
(-0.00234183 0.00227172 0.301635)
(0.00477114 0.00119835 0.303901)
(-0.000963287 0.0046806 0.332914)
(0.0120133 -0.00147325 0.222041)
(0.0021736 -0.00420394 0.315249)
(-0.00220219 -0.000190794 0.308056)
(-0.00320478 0.00516922 0.280968)
(-0.00393949 0.00585176 0.292144)
(-0.00579237 -0.00630521 0.258841)
(0.011703 0.0107136 0.250847)
(-0.00334132 0.0047019 0.288128)
(-0.00176208 0.000907065 0.294343)
(0.00653042 0.00397833 0.323146)
(0.000779514 -3.21744e-06 0.295523)
(0.0048459 0.000699712 0.308068)
(-0.00294969 0.0142098 0.314248)
(-0.00522318 0.00505393 0.236806)
(-0.000790088 0.00234281 0.299283)
(0.00307531 -0.00639813 0.318529)
(0.0137001 0.00356097 0.28202)
(-0.00597641 0.0157037 0.275587)
(0.000750169 0.0121465 0.318632)
(0.00169568 0.0136885 0.32574)
(-0.0030899 0.0041164 0.305886)
(0.000536012 0.00614349 0.310271)
(-0.00365034 0.0106088 0.313629)
(0.00012695 -0.00425087 0.204769)
(-0.00500732 0.00466631 0.225573)
(0.00276831 -0.00157047 0.316741)
(0.000741296 -0.000472301 0.308814)
(0.00223449 0.00416044 0.313011)
(0.00191924 0.000930105 0.301692)
(0.00552155 0.00229994 0.321268)
(0.0033391 0.00108126 0.312061)
(0.00129326 -0.0061325 0.227053)
(-0.0050125 0.00607642 0.265827)
(-0.00425321 0.00631095 0.281545)
(-0.000704663 -0.000192844 0.308053)
(0.0112766 0.00371711 0.350452)
(0.0063947 0.00480695 0.333764)
(0.00625172 0.00329999 0.324184)
(-0.00627558 0.0043835 0.191429)
(-0.00318898 -0.000415677 0.208167)
(-0.00423435 0.00359601 0.231486)
(0.00504654 -0.0032825 0.298485)
(-0.0035401 0.0155715 0.270393)
(-0.00529486 0.00676627 0.282817)
(-0.000270425 -0.00622082 0.219397)
(-0.00920885 0.00970803 0.306173)
(0.0286745 0.0143466 0.267685)
(-0.00667668 0.00422397 0.290268)
(0.0150918 -0.00482366 0.290666)
(-0.00748632 0.0119643 0.280746)
(0.000734477 0.00726343 0.329208)
(-0.00378347 0.00180566 0.17888)
(-0.00612277 0.00512786 0.289651)
(0.00171274 0.00121037 0.330632)
(0.000309369 0.00428739 0.312521)
(0.0314356 0.00400186 0.293074)
(-0.00454158 0.00806903 0.333945)
(0.00907644 0.00495823 0.354079)
(-0.00428882 0.002751 0.321959)
(-0.00494547 0.00501822 0.312669)
(-0.00680199 0.00373964 0.31369)
(0.00738368 0.00522103 0.348142)
(0.00701828 0.00388078 0.360466)
(-0.00697455 0.00579125 0.300345)
(0.019376 -0.00435251 0.317567)
(-0.00422809 0.00419671 0.327047)
(-0.00722112 0.0118667 0.258218)
(-0.00732519 -0.000599154 0.31562)
(0.0118542 -0.00653893 0.256992)
(-0.00870147 0.00315355 0.308869)
(0.00310428 0.00549494 0.342255)
(-0.00992135 0.00506586 0.313949)
(-0.00997292 0.00992811 0.278577)
(0.0040767 0.00553911 0.346027)
(-0.00750411 0.00614805 0.25069)
(0.0245671 -0.00285261 0.280167)
(-0.00757443 0.00700442 0.282411)
(0.0837786 0.00112826 0.322022)
(-0.00939658 0.00400523 0.302633)
(-0.00693802 0.0081963 0.283697)
(-0.00761952 0.00425722 0.262847)
(-0.00350066 -0.00983273 0.322467)
(0.00543558 -0.00432049 0.247667)
(0.0250361 -0.00891697 0.297416)
(-0.0119094 0.000762348 0.305205)
(-0.00904863 -0.0109075 0.313277)
(-0.0124612 -0.000695028 0.290292)
(-0.00730509 0.00124375 0.307348)
(-0.0120614 -0.00132573 0.317215)
(-0.0121922 0.00919661 0.307428)
(-0.00927101 -7.84218e-05 0.284021)
(0.00244805 -0.0056104 0.266523)
(-0.0131288 -0.00405037 0.316386)
(-0.0070714 0.00375376 0.265026)
(-0.00416331 0.00848217 0.29413)
(-0.0106818 -0.00810808 0.325614)
(-0.0101928 0.00788436 0.277449)
(-0.00720472 0.00736436 0.297208)
(-0.00484209 -0.0119127 0.280496)
(0.0127148 -3.23695e-05 0.274055)
(-0.0047977 -0.010117 0.315767)
(-0.00442837 -0.00559876 0.317832)
(0.0144551 -0.00613721 0.26624)
(-0.0114896 -0.000637906 0.286712)
(-0.00521628 -0.00264903 0.288089)
(-0.00452077 -0.00833405 0.267754)
(-0.0130257 0.000515284 0.296648)
(-0.0118414 -0.000248816 0.292058)
(-0.00905489 -0.00987592 0.298597)
(-0.00167488 -0.0118006 0.285891)
(-0.00170746 -0.00248921 0.313564)
(-0.00540039 -0.00587359 0.266352)
(-0.00309244 0.000941445 0.276982)
(-0.00415256 -0.0149502 0.297512)
(-0.00430718 -0.000139749 0.285395)
(-0.00677392 -0.00157883 0.303213)
(-0.00508931 0.000158453 0.301168)
(-0.00196601 -0.0139805 0.294511)
(0.00123108 0.00157956 0.293653)
(-0.0030488 0.00924736 0.292041)
(-0.00237183 -0.0138279 0.309616)
(0.00782154 0.00366376 0.301663)
(-0.00343577 0.0107329 0.294898)
(-0.00370254 0.0172348 0.324015)
(0.00999615 0.0025696 0.308347)
(-0.00204676 0.0113944 0.306415)
(-0.0117011 0.00204419 0.32045)
(-0.00293042 -0.00897963 0.326022)
(0.0100085 0.00301817 0.320489)
(-0.00443127 -0.00627725 0.331591)
(-0.013934 0.00329427 0.318355)
(-0.00327551 0.00834806 0.309541)
(-0.00388577 -0.00367802 0.32351)
(0.00801019 4.68295e-05 0.321568)
(-0.00200324 0.010554 0.337109)
(-0.003605 -0.000105769 0.327899)
(-0.0020701 0.00489955 0.315138)
(-0.00202891 0.0048205 0.338975)
(-0.00229267 0.00199856 0.331966)
(-0.000828155 -0.00330221 0.335057)
(-0.00235667 -0.00363602 0.325931)
(-0.00494519 0.00409504 0.34946)
(-0.00417149 0.0345482 0.333371)
(-0.00031712 -0.0172034 0.320353)
(-0.0206095 -0.00584931 0.336514)
(-0.0243902 -0.0111457 0.340965)
(-0.00416259 0.0349892 0.333103)
(-0.0641028 -0.00837291 0.349573)
(-0.0100618 0.0715765 0.341134)
(-0.0112362 -0.0077905 0.319278)
)


// ************************************************************************* //
