/*--------------------------------*- C++ -*----------------------------------*\
| =========                 |                                                 |
| \\      /  F ield         | OpenFOAM: The Open Source CFD Toolbox           |
|  \\    /   O peration     | Version:  plus.master.MPPICInterFoam            |
|   \\  /    A nd           | Web:      www.OpenFOAM.com                      |
|    \\/     M anipulation  |                                                 |
\*---------------------------------------------------------------------------*/
FoamFile
{
    version     2.0;
    format      ascii;
    class       Cloud<basicKinematicMPPICParcel>;
    location    "13.2/lagrangian/kinematicCloud";
    object      positions;
}
// * * * * * * * * * * * * * * * * * * * * * * * * * * * * * * * * * * * * * //

12
(
(-0.0209346 0.0473942 0.505484) 2688
(-0.0152726 0.0499507 0.513577) 2736
(-0.0203869 -0.0442417 0.525882) 2431
(-0.0200419 -0.0444161 0.528645) 2431
(-0.0515626 0.00803222 0.518276) 2048
(-0.0204548 -0.0437797 0.530406) 2431
(-0.051698 0.00749516 0.520265) 2048
(-0.0191218 0.0464182 0.527469) 2800
(-0.0223044 -0.0361974 0.560837) 2598
(-0.0493041 0.00816806 0.559033) 2272
(-0.0414029 0.00669609 0.576786) 7974
(-0.0411497 0.00663371 0.577124) 7974
)


// ************************************************************************* //
