/*--------------------------------*- C++ -*----------------------------------*\
| =========                 |                                                 |
| \\      /  F ield         | OpenFOAM: The Open Source CFD Toolbox           |
|  \\    /   O peration     | Version:  plus.master                           |
|   \\  /    A nd           | Web:      www.OpenFOAM.com                      |
|    \\/     M anipulation  |                                                 |
\*---------------------------------------------------------------------------*/
FoamFile
{
    version     2.0;
    format      ascii;
    class       surfaceScalarField;
    location    "0.2";
    object      alphaPhi;
}
// * * * * * * * * * * * * * * * * * * * * * * * * * * * * * * * * * * * * * //

dimensions      [0 3 -1 0 0 0 0];

internalField   nonuniform List<scalar> 
138768
(
-2.45518e-07
-2.43585e-07
8.756e-08
2.02138e-07
2.02246e-07
-1.55201e-07
-6.43069e-07
1.38447e-07
4.17724e-07
-4.49563e-08
-8.30701e-07
1.64274e-07
5.64463e-07
4.85623e-08
-8.67888e-07
1.70331e-07
6.10276e-07
1.56381e-07
-8.31751e-07
1.6546e-07
5.66041e-07
2.44597e-07
-6.34499e-07
1.37278e-07
4.12069e-07
-2.42254e-07
8.69057e-08
2.01518e-07
2.0072e-07
-6.3413e-07
-1.51639e-07
1.3465e-07
4.10013e-07
-2.83684e-07
-2.82224e-07
3.04679e-07
-8.00234e-08
-3.94447e-07
3.47281e-07
8.3437e-08
-4.2335e-07
3.47931e-07
2.81322e-07
-3.96178e-07
3.4329e-07
6.29307e-07
-2.81426e-07
3.06174e-07
-1.50658e-07
1.35199e-07
4.07119e-07
-8.1922e-07
-4.86993e-08
1.59407e-07
5.62988e-07
-3.92065e-07
-7.62454e-08
3.3727e-07
-1.18305e-07
-1.14395e-07
3.87168e-07
1.20401e-07
-1.27694e-07
3.94328e-07
3.93089e-07
-1.20102e-07
3.77469e-07
8.24993e-07
-7.97865e-08
3.4223e-07
-4.61888e-08
1.59484e-07
5.61275e-07
-8.67688e-07
4.83587e-08
1.71442e-07
6.0462e-07
-4.23616e-07
8.10325e-08
3.51568e-07
-1.29516e-07
1.17361e-07
3.99633e-07
1.24405e-07
1.28753e-07
3.99679e-07
4.15861e-07
1.17228e-07
3.79634e-07
8.68629e-07
7.97767e-08
3.4148e-07
4.80082e-08
1.67219e-07
6.11271e-07
-8.28111e-07
1.49196e-07
1.65723e-07
5.62671e-07
-4.00077e-07
2.80655e-07
3.45536e-07
-1.16321e-07
3.90704e-07
3.97379e-07
1.16334e-07
4.20889e-07
3.97369e-07
3.89483e-07
3.91395e-07
3.78029e-07
8.23969e-07
2.71956e-07
3.39463e-07
1.51697e-07
1.60619e-07
5.65517e-07
-6.329e-07
2.4093e-07
1.35354e-07
4.10505e-07
-2.84199e-07
6.41027e-07
3.0516e-07
-7.88112e-08
8.16634e-07
3.39996e-07
8.47489e-08
8.70843e-07
3.55204e-07
2.7518e-07
8.23478e-07
3.42334e-07
6.29983e-07
6.24962e-07
2.98786e-07
2.41244e-07
1.31651e-07
4.13614e-07
-2.42122e-07
8.64689e-08
1.99849e-07
1.99257e-07
-1.49792e-07
1.3441e-07
4.18117e-07
-5.33383e-08
1.60918e-07
5.60276e-07
4.98218e-08
1.71643e-07
6.0083e-07
1.53834e-07
1.61725e-07
5.61459e-07
2.41329e-07
1.29676e-07
4.12331e-07
8.35543e-08
1.99699e-07
2.01995e-07
-1.15749e-07
-1.13019e-07
4.88011e-08
1.34356e-07
1.33279e-07
-7.08629e-08
-1.52807e-07
8.49006e-08
1.62468e-07
-2.15836e-08
-1.67169e-07
1.05991e-07
1.77175e-07
2.36834e-08
-1.65647e-07
1.12533e-07
1.79413e-07
7.2074e-08
-1.63168e-07
1.06018e-07
1.75397e-07
1.1561e-07
-1.50129e-07
8.44982e-08
1.59632e-07
-1.10787e-07
4.85921e-08
1.33973e-07
1.30878e-07
-1.5422e-07
-6.99951e-08
8.46292e-08
1.61726e-07
-8.4736e-08
-8.21212e-08
1.65415e-07
-2.26286e-08
-8.72063e-08
2.08602e-07
2.75071e-08
-8.65546e-08
2.20999e-07
8.37622e-08
-8.22088e-08
2.08754e-07
1.54251e-07
-7.76965e-08
1.64534e-07
-6.61769e-08
8.42729e-08
1.61551e-07
-1.65266e-07
-2.59026e-08
1.05885e-07
1.75373e-07
-8.87125e-08
-2.83106e-08
2.09362e-07
-2.35351e-08
-2.81442e-08
2.64887e-07
3.24046e-08
-2.53313e-08
2.79889e-07
8.73303e-08
-2.36652e-08
2.65205e-07
1.65235e-07
-2.14779e-08
2.08385e-07
-2.01481e-08
1.05303e-07
1.74488e-07
-1.67659e-07
2.17058e-08
1.12349e-07
1.80437e-07
-8.81671e-08
2.49549e-08
2.20875e-07
-2.04747e-08
2.59785e-08
2.80602e-07
3.33272e-08
2.47504e-08
2.97263e-07
8.68983e-08
2.46293e-08
2.81316e-07
1.63847e-07
2.45102e-08
2.20245e-07
2.3375e-08
1.11787e-07
1.7667e-07
-1.66339e-07
7.14521e-08
1.06202e-07
1.77322e-07
-8.95333e-08
8.46675e-08
2.09421e-07
-2.10413e-08
9.22207e-08
2.65752e-07
3.40565e-08
8.72819e-08
2.80938e-07
8.80993e-08
8.40032e-08
2.65872e-07
1.64432e-07
8.08269e-08
2.08905e-07
7.03809e-08
1.05546e-07
1.73712e-07
-1.5253e-07
1.14789e-07
8.4711e-08
1.60648e-07
-8.13973e-08
1.5467e-07
1.65384e-07
-2.46165e-08
1.66446e-07
2.09587e-07
3.07266e-08
1.68608e-07
2.20533e-07
8.54832e-08
1.64812e-07
2.08213e-07
1.51863e-07
1.50564e-07
1.64431e-07
1.12121e-07
8.40531e-08
1.58303e-07
-1.12185e-07
4.87703e-08
1.31579e-07
1.33254e-07
-6.86855e-08
8.46218e-08
1.61553e-07
-2.25754e-08
1.05982e-07
1.76136e-07
2.67356e-08
1.12005e-07
1.80058e-07
7.39737e-08
1.05369e-07
1.75047e-07
1.13029e-07
8.3911e-08
1.57907e-07
4.82814e-08
1.30386e-07
1.30273e-07
-1.29461e-07
-1.29413e-07
3.57726e-08
1.35977e-07
1.35932e-07
-8.94846e-08
-1.71827e-07
4.40387e-08
1.72724e-07
-3.14044e-08
-2.0061e-07
4.97117e-08
1.98813e-07
3.20679e-08
-2.10376e-07
5.16332e-08
2.07801e-07
9.02366e-08
-2.00537e-07
4.96753e-08
1.98711e-07
1.29873e-07
-1.71425e-07
4.39598e-08
1.72328e-07
-1.29019e-07
3.5687e-08
1.36264e-07
1.35538e-07
-1.7198e-07
-8.97077e-08
4.39962e-08
1.72919e-07
-1.18765e-07
-1.19031e-07
5.94085e-08
-4.1381e-08
-1.39232e-07
6.98379e-08
4.19311e-08
-1.45996e-07
7.33093e-08
1.19581e-07
-1.39201e-07
6.98215e-08
1.72219e-07
-1.18797e-07
5.92708e-08
-8.93925e-08
4.38971e-08
1.72974e-07
-2.00899e-07
-3.17181e-08
4.96858e-08
1.99109e-07
-1.3894e-07
-4.15521e-08
6.99241e-08
-4.8243e-08
-4.86533e-08
8.37937e-08
4.87279e-08
-5.11338e-08
8.8302e-08
1.39883e-07
-4.86334e-08
8.38303e-08
2.01209e-07
-4.1449e-08
6.97179e-08
-3.15068e-08
4.95395e-08
1.99091e-07
-2.10582e-07
3.15355e-08
5.16355e-08
2.08045e-07
-1.45971e-07
4.13847e-08
7.33282e-08
-5.07186e-08
4.83849e-08
8.83956e-08
5.11941e-08
5.09102e-08
9.33623e-08
1.46932e-07
4.85967e-08
8.84816e-08
2.10996e-07
4.15443e-08
7.31871e-08
3.17179e-08
5.1465e-08
2.08091e-07
-2.00821e-07
8.97618e-08
4.97537e-08
1.99042e-07
-1.39096e-07
1.19105e-07
6.99747e-08
-4.8224e-08
1.39392e-07
8.38726e-08
4.88268e-08
1.46613e-07
8.84416e-08
1.39873e-07
1.39859e-07
8.39126e-08
2.01191e-07
1.19343e-07
6.97862e-08
8.9864e-08
4.95515e-08
1.99036e-07
-1.71925e-07
1.29483e-07
4.40744e-08
1.72836e-07
-1.18934e-07
1.72023e-07
5.9479e-08
-4.10421e-08
2.01155e-07
6.99768e-08
4.1948e-08
2.10928e-07
7.32295e-08
1.19258e-07
2.01047e-07
6.97535e-08
1.71875e-07
1.71929e-07
5.92256e-08
1.29399e-07
4.38461e-08
1.72545e-07
-1.29588e-07
3.57809e-08
1.36181e-07
1.35886e-07
-8.97156e-08
4.4041e-08
1.72737e-07
-3.14164e-08
4.9708e-08
1.99131e-07
3.18693e-08
5.15619e-08
2.08085e-07
8.97838e-08
4.95726e-08
1.98926e-07
1.29252e-07
4.38406e-08
1.72524e-07
3.5585e-08
1.35632e-07
1.35724e-07
-4.13267e-08
-4.13187e-08
2.26966e-08
4.78664e-08
4.78574e-08
-2.78319e-08
-4.85493e-08
2.50949e-08
5.40023e-08
-9.56083e-09
-5.46887e-08
2.6725e-08
5.94079e-08
1.02861e-08
-5.71573e-08
2.72956e-08
6.1651e-08
2.83851e-08
-5.51051e-08
2.67257e-08
5.99601e-08
4.1528e-08
-4.92137e-08
2.50904e-08
5.49443e-08
-4.19964e-08
2.26812e-08
4.77472e-08
4.87879e-08
-4.86362e-08
-2.78507e-08
2.50887e-08
5.40797e-08
-3.32515e-08
-3.3217e-08
2.86973e-08
-1.15058e-08
-3.78143e-08
3.12233e-08
1.21787e-08
-3.96353e-08
3.21125e-08
3.37385e-08
-3.80706e-08
3.12367e-08
4.86934e-08
-3.35995e-08
2.87098e-08
-2.82481e-08
2.51034e-08
5.3746e-08
-5.48502e-08
-9.57961e-09
2.67185e-08
5.9548e-08
-3.78973e-08
-1.14652e-08
3.12261e-08
-1.31832e-08
-1.31408e-08
3.44162e-08
1.37908e-08
-1.38312e-08
3.55379e-08
3.8391e-08
-1.32674e-08
3.444e-08
5.49435e-08
-1.16696e-08
3.12478e-08
-9.80223e-09
2.67521e-08
5.92924e-08
-5.73804e-08
1.02676e-08
2.72943e-08
6.18792e-08
-3.97987e-08
1.21782e-08
3.21126e-08
-1.39031e-08
1.38337e-08
3.55381e-08
1.44232e-08
1.44719e-08
3.67475e-08
4.0246e-08
1.38356e-08
3.55683e-08
5.74824e-08
1.21492e-08
3.21404e-08
1.01743e-08
2.73287e-08
6.1645e-08
-5.54811e-08
2.83834e-08
2.67398e-08
6.03835e-08
-3.83048e-08
3.37366e-08
3.12479e-08
-1.33945e-08
3.83713e-08
3.44359e-08
1.37617e-08
4.02144e-08
3.55554e-08
3.8544e-08
3.85247e-08
3.44518e-08
5.53255e-08
3.39057e-08
3.12543e-08
2.8447e-08
2.67461e-08
5.98596e-08
-4.9823e-08
4.15252e-08
2.51192e-08
5.56388e-08
-3.40316e-08
4.87012e-08
2.87325e-08
-1.18974e-08
5.49679e-08
3.12577e-08
1.20165e-08
5.74111e-08
3.21284e-08
3.38627e-08
5.51951e-08
3.12434e-08
4.91805e-08
4.91112e-08
2.87042e-08
4.18328e-08
2.50776e-08
5.4563e-08
-4.27353e-08
2.27128e-08
4.95638e-08
4.77711e-08
-2.88332e-08
2.51208e-08
5.3726e-08
-1.02077e-08
2.67544e-08
5.93011e-08
9.90307e-09
2.73176e-08
6.15483e-08
2.82726e-08
2.67334e-08
5.96656e-08
4.17384e-08
2.50708e-08
5.44141e-08
2.26288e-08
4.82438e-08
4.82888e-08
-1.89569e-08
-1.8604e-08
2.37636e-08
2.33374e-08
1.31549e-08
-1.21645e-08
-1.98654e-08
2.45941e-08
1.35692e-08
-4.04073e-09
-2.13544e-08
2.61963e-08
1.3755e-08
4.48484e-09
-2.22135e-08
2.71661e-08
1.38122e-08
1.23584e-08
-2.20979e-08
2.71879e-08
1.37567e-08
1.86776e-08
-2.12006e-08
2.63974e-08
1.35686e-08
-2.01078e-08
2.30518e-08
2.52659e-08
1.31436e-08
-2.01387e-08
-1.18725e-08
2.4926e-08
1.3565e-08
-1.29731e-08
-1.2746e-08
1.44042e-08
-4.25316e-09
-1.37803e-08
1.49222e-08
4.90177e-09
-1.43654e-08
1.51029e-08
1.33466e-08
-1.42452e-08
1.49326e-08
2.00073e-08
-1.35799e-08
1.44224e-08
-1.28405e-08
2.42506e-08
1.3587e-08
-2.15425e-08
-3.75942e-09
2.63976e-08
1.37454e-08
-1.39503e-08
-4.03462e-09
1.49159e-08
-4.5828e-09
-4.42187e-09
1.56865e-08
5.2994e-09
-4.6733e-09
1.59602e-08
1.447e-08
-4.68331e-09
1.57036e-08
2.16883e-08
-4.50289e-09
1.49486e-08
-4.30664e-09
2.61088e-08
1.37933e-08
-2.24227e-08
4.77346e-09
2.7382e-08
1.37976e-08
-1.45513e-08
5.11191e-09
1.50882e-08
-4.82582e-09
5.43629e-09
1.59504e-08
5.4438e-09
5.54296e-09
1.62579e-08
1.50145e-08
5.34139e-09
1.5969e-08
2.2582e-08
4.94223e-09
1.51235e-08
4.58849e-09
2.71603e-08
1.38505e-08
-2.24465e-08
1.2635e-08
2.75803e-08
1.37393e-08
-1.45198e-08
1.35163e-08
1.49097e-08
-4.87876e-09
1.45441e-08
1.56825e-08
5.23459e-09
1.50244e-08
1.59566e-08
1.46671e-08
1.46614e-08
1.56958e-08
2.22094e-08
1.37178e-08
1.49326e-08
1.28539e-08
2.69141e-08
1.37715e-08
-2.16819e-08
1.89123e-08
2.69661e-08
1.35516e-08
-1.3944e-08
2.01111e-08
1.43939e-08
-4.75464e-09
2.16902e-08
1.49186e-08
4.7938e-09
2.24994e-08
1.51012e-08
1.36787e-08
2.20935e-08
1.49225e-08
2.08806e-08
2.08221e-08
1.43935e-08
1.96495e-08
2.5616e-08
1.35419e-08
-2.05425e-08
2.57641e-08
2.32656e-08
1.31331e-08
-1.318e-08
2.43048e-08
1.35586e-08
-4.56544e-09
2.60666e-08
1.37586e-08
4.40019e-09
2.70243e-08
1.38221e-08
1.27353e-08
2.67322e-08
1.37548e-08
1.95877e-08
2.55009e-08
1.3535e-08
2.43753e-08
2.44116e-08
1.30771e-08
1.88608e-07
-1.79129e-08
3.18953e-08
-7.9262e-10
1.97666e-07
-3.08995e-08
2.27573e-08
-8.03668e-10
2.0758e-07
-2.55226e-08
1.62097e-08
-5.8685e-10
2.1413e-07
-1.84621e-08
1.23198e-08
-4.02486e-10
2.1713e-07
-1.30041e-08
1.02778e-08
-2.6706e-10
2.17231e-07
-9.18557e-09
9.26258e-09
-1.69735e-10
2.15185e-07
-6.58188e-09
8.73471e-09
-1.01365e-10
-4.84472e-09
8.40906e-09
-5.51736e-11
2.1168e-07
3.37987e-07
-8.78826e-09
6.24407e-08
2.97374e-07
-3.17927e-08
4.15187e-08
2.74244e-07
-2.93596e-08
2.69808e-08
2.59346e-07
-2.20206e-08
1.847e-08
2.47829e-07
-1.55262e-08
1.40552e-08
2.37615e-07
-1.08031e-08
1.18459e-08
2.27964e-07
-7.58529e-09
1.06639e-08
-5.45656e-09
9.94009e-09
2.1864e-07
4.7071e-07
-1.52574e-09
8.66957e-08
3.93992e-07
-1.28401e-08
5.81535e-08
3.4008e-07
-1.22187e-08
3.68911e-08
3.03159e-07
-9.27704e-09
2.41947e-08
2.76647e-07
-6.56499e-09
1.75668e-08
2.56217e-07
-4.57045e-09
1.42102e-08
2.39473e-07
-3.20906e-09
1.23766e-08
-2.3024e-09
1.12443e-08
2.25081e-07
5.16773e-07
8.29455e-10
9.52931e-08
4.28423e-07
1.17046e-08
6.44488e-08
3.63867e-07
1.16525e-08
4.06987e-08
3.191e-07
9.0877e-09
2.64238e-08
2.87125e-07
6.47735e-09
1.89542e-08
2.6296e-07
4.46316e-09
1.51539e-08
2.43639e-07
3.0669e-09
1.30615e-08
2.15953e-09
1.17629e-08
2.27427e-07
4.73556e-07
9.34784e-09
8.72987e-08
3.95645e-07
3.14384e-08
5.84293e-08
3.41054e-07
2.92003e-08
3.70555e-08
3.03772e-07
2.20605e-08
2.4314e-08
2.76986e-07
1.56112e-08
1.76623e-08
2.56351e-07
1.08226e-08
1.42883e-08
2.39465e-07
7.52422e-09
1.24399e-08
5.35417e-09
1.12947e-08
2.24986e-07
3.43436e-07
1.99385e-08
6.10406e-08
3.01553e-07
3.24424e-08
4.10782e-08
2.77168e-07
2.67505e-08
2.6936e-08
2.61289e-07
1.93636e-08
1.85819e-08
2.49111e-07
1.35908e-08
1.42085e-08
2.38438e-07
9.51304e-09
1.1994e-08
2.28457e-07
6.72148e-09
1.07922e-08
4.86963e-09
1.00462e-08
2.18902e-07
1.88642e-07
3.09017e-08
5.17792e-10
1.98224e-07
2.23542e-08
5.0566e-10
2.08443e-07
1.61287e-08
4.03901e-10
2.15164e-07
1.23917e-08
2.61382e-10
2.18202e-07
1.04061e-08
1.57569e-10
2.18236e-07
9.40117e-09
8.99296e-11
2.1605e-07
8.86419e-09
5.03916e-11
8.52244e-09
2.75063e-11
2.12377e-07
1.61513e-07
-1.28552e-08
1.85469e-08
-1.30779e-09
1.8195e-07
-1.25486e-08
1.58805e-08
-1.00092e-09
1.94184e-07
-9.97212e-09
1.46647e-08
-7.15496e-10
2.00318e-07
-7.57409e-09
1.42397e-08
-4.83429e-10
2.02471e-07
-5.70546e-09
1.41421e-08
-3.09852e-10
2.02126e-07
-4.3241e-09
1.41277e-08
-1.91064e-10
2.00234e-07
-3.34153e-09
1.40878e-08
-1.16655e-10
-2.67624e-09
1.3982e-08
-7.19788e-11
1.97411e-07
1.90172e-07
-1.31104e-08
3.40898e-08
2.07876e-07
-1.3375e-08
2.46472e-08
2.15483e-07
-1.09067e-08
2.03137e-08
2.16246e-07
-8.2625e-09
1.83984e-08
2.13256e-07
-6.1377e-09
1.74816e-08
2.08432e-07
-4.57142e-09
1.69205e-08
2.02769e-07
-3.47062e-09
1.64573e-08
-2.73187e-09
1.60019e-08
1.9676e-07
2.0586e-07
-4.48737e-09
4.67806e-08
2.2362e-07
-4.82061e-09
3.18595e-08
2.28602e-07
-3.95978e-09
2.49637e-08
2.25766e-07
-3.00457e-09
2.17744e-08
2.19327e-07
-2.25064e-09
2.01205e-08
2.11621e-07
-1.70492e-09
1.9052e-08
2.03644e-07
-1.32087e-09
1.82021e-08
-1.05503e-09
1.74443e-08
1.95764e-07
2.09492e-07
6.84506e-09
5.12624e-08
2.27803e-07
6.87563e-09
3.44492e-08
2.32221e-07
5.65767e-09
2.66666e-08
2.2835e-07
4.2804e-09
2.30157e-08
2.20873e-07
3.10538e-09
2.10836e-08
2.12302e-07
2.20794e-09
1.98204e-08
2.03644e-07
1.57991e-09
1.88233e-08
1.18297e-09
1.79533e-08
1.95215e-07
2.04795e-07
1.62834e-08
4.68306e-08
2.22354e-07
1.58714e-08
3.18879e-08
2.27311e-07
1.2806e-08
2.49559e-08
2.24545e-07
9.62438e-09
2.17407e-08
2.18218e-07
7.0273e-09
2.00747e-08
2.10635e-07
5.083e-09
1.90046e-08
2.02783e-07
3.71878e-09
1.81586e-08
2.83133e-09
1.74073e-08
1.95022e-07
1.86602e-07
1.50184e-08
3.4049e-08
2.04538e-07
1.44101e-08
2.4615e-08
2.12584e-07
1.14135e-08
2.02868e-08
2.13836e-07
8.59357e-09
1.83632e-08
2.11283e-07
6.35613e-09
1.7439e-08
2.06807e-07
4.6849e-09
1.68754e-08
2.01406e-07
3.50035e-09
1.64146e-08
2.71668e-09
1.59653e-08
1.95601e-07
1.57866e-07
1.84629e-08
-1.35598e-11
1.78778e-07
1.58259e-08
2.74117e-11
1.91668e-07
1.46348e-08
2.23676e-11
1.98427e-07
1.42224e-08
6.3687e-12
2.0107e-07
1.41309e-08
-5.14977e-12
2.01055e-07
1.41182e-08
-1.0677e-11
1.99355e-07
1.40777e-08
-1.23847e-11
1.39709e-08
-1.22738e-11
1.96636e-07
1.51738e-07
-1.44264e-08
1.78025e-08
-3.02349e-10
1.60586e-07
-1.11654e-08
1.84293e-08
-2.28487e-10
1.65155e-07
-8.48185e-09
1.87326e-08
-1.47499e-10
1.67092e-07
-6.36391e-09
1.87587e-08
-8.10283e-11
1.67336e-07
-4.66689e-09
1.8615e-08
-3.91367e-11
1.66485e-07
-3.36606e-09
1.83791e-08
-2.34118e-11
1.6495e-07
-2.4502e-09
1.81044e-08
-2.20324e-11
-1.87067e-09
1.78382e-08
-2.64964e-11
1.62996e-07
1.81922e-07
-1.53194e-08
2.60381e-08
1.82877e-07
-1.24529e-08
2.49849e-08
1.80312e-07
-9.66878e-09
2.40736e-08
1.76379e-07
-7.18101e-09
2.31589e-08
1.72065e-07
-5.11178e-09
2.22519e-08
1.67792e-07
-3.54989e-09
2.13876e-08
1.63696e-07
-2.49358e-09
2.06039e-08
-1.85603e-09
1.99385e-08
1.5975e-07
2.04391e-07
-6.15916e-09
3.23242e-08
1.99013e-07
-5.07706e-09
2.98627e-08
1.90359e-07
-3.9812e-09
2.79329e-08
1.81671e-07
-2.95427e-09
2.6242e-08
1.74062e-07
-2.09456e-09
2.47203e-08
1.67661e-07
-1.45535e-09
2.33673e-08
1.62199e-07
-1.02947e-09
2.22068e-08
-7.70109e-10
2.12656e-08
1.57296e-07
2.12139e-07
6.41287e-09
3.46376e-08
2.04527e-07
5.34512e-09
3.16359e-08
1.93688e-07
4.21076e-09
2.93133e-08
1.8333e-07
3.10371e-09
2.7321e-08
1.74618e-07
2.14632e-09
2.55628e-08
1.67546e-07
1.41997e-09
2.40264e-08
1.61674e-07
9.42349e-10
2.27296e-08
6.79979e-10
2.16939e-08
1.56486e-07
2.04273e-07
1.56933e-08
3.23106e-08
1.98877e-07
1.27982e-08
2.98282e-08
1.90212e-07
9.95922e-09
2.78766e-08
1.81509e-07
7.39063e-09
2.61686e-08
1.73881e-07
5.22562e-09
2.46378e-08
1.67462e-07
3.57131e-09
2.32841e-08
1.61993e-07
2.44828e-09
2.21295e-08
1.78693e-09
2.11983e-08
1.57099e-07
1.81466e-07
1.48315e-08
2.59873e-08
1.82442e-07
1.15218e-08
2.49174e-08
1.79935e-07
8.77024e-09
2.39892e-08
1.76067e-07
6.57469e-09
2.30596e-08
1.71804e-07
4.79827e-09
2.2143e-08
1.6756e-07
3.42528e-09
2.12767e-08
1.63476e-07
2.45462e-09
2.04987e-08
1.84682e-09
1.98453e-08
1.59539e-07
1.51134e-07
1.77418e-08
5.60847e-11
1.60065e-07
1.83624e-08
5.85446e-11
1.64756e-07
1.86622e-08
5.76391e-11
1.66825e-07
1.86846e-08
5.4595e-11
1.67182e-07
1.85361e-08
4.7951e-11
1.664e-07
1.82954e-08
3.8446e-11
1.64891e-07
1.80184e-08
2.78712e-11
1.77548e-08
1.7867e-11
1.62937e-07
5.93146e-08
-6.64963e-09
1.25143e-08
3.71861e-10
7.01742e-08
-6.2233e-09
1.34836e-08
3.11603e-10
8.00141e-08
-5.37208e-09
1.40527e-08
2.12031e-10
8.86492e-08
-4.26308e-09
1.42849e-08
1.01054e-10
9.60925e-08
-3.11635e-09
1.42857e-08
1.3529e-12
1.02437e-07
-2.13024e-09
1.42232e-08
-5.8839e-11
1.07726e-07
-1.41405e-09
1.43212e-08
-9.33695e-11
-9.8557e-10
1.48011e-08
-1.06181e-10
1.11854e-07
6.34839e-08
-7.22572e-09
1.68803e-08
7.2087e-08
-7.01804e-09
1.71778e-08
7.98043e-08
-6.15411e-09
1.71375e-08
8.67231e-08
-4.83418e-09
1.68104e-08
9.29894e-08
-3.43218e-09
1.63012e-08
9.86981e-08
-2.2464e-09
1.57954e-08
1.03738e-07
-1.41933e-09
1.5569e-08
-9.57103e-10
1.59318e-08
1.07715e-07
6.74758e-08
-2.95104e-09
1.98692e-08
7.37296e-08
-2.98912e-09
1.95786e-08
7.91903e-08
-2.69469e-09
1.90094e-08
8.45015e-08
-2.15e-09
1.82435e-08
8.99576e-08
-1.54841e-09
1.73786e-08
9.55233e-08
-1.03648e-09
1.65908e-08
1.00807e-07
-6.77016e-10
1.61791e-08
-4.67871e-10
1.65171e-08
1.05065e-07
6.93371e-08
3.06358e-09
2.09306e-08
7.46796e-08
2.89953e-09
2.04018e-08
7.92326e-08
2.43832e-09
1.96237e-08
8.39136e-08
1.79435e-09
1.86928e-08
8.90739e-08
1.15208e-09
1.77003e-08
9.46084e-08
6.40447e-10
1.68141e-08
1.00004e-07
3.15957e-10
1.6339e-08
1.7826e-10
1.66749e-08
1.04376e-07
6.82579e-08
7.12093e-09
1.98536e-08
7.46191e-08
6.81483e-09
1.95493e-08
8.00574e-08
5.90953e-09
1.8966e-08
8.52422e-08
4.59055e-09
1.81877e-08
9.05184e-08
3.20093e-09
1.73135e-08
9.59002e-08
2.02299e-09
1.65205e-08
1.0103e-07
1.20636e-09
1.61081e-08
7.74634e-10
1.64513e-08
1.0518e-07
6.45103e-08
6.31514e-09
1.68447e-08
7.32161e-08
5.90732e-09
1.71193e-08
8.09165e-08
5.14192e-09
1.70566e-08
8.77185e-08
4.13827e-09
1.67109e-08
9.38031e-08
3.07198e-09
1.61886e-08
9.93029e-08
2.12485e-09
1.56758e-08
1.04139e-07
1.41782e-09
1.54494e-08
9.90583e-10
1.58207e-08
1.07946e-07
5.97836e-08
1.24659e-08
5.42001e-11
7.05696e-08
1.34105e-08
7.51175e-11
8.03392e-08
1.39556e-08
7.93614e-11
8.89232e-08
1.41676e-08
7.15287e-11
9.63223e-08
1.41527e-08
5.67204e-11
1.02623e-07
1.40793e-08
4.00234e-11
1.0786e-07
1.41724e-08
2.49329e-11
1.46567e-08
1.29244e-11
1.11934e-07
3.10476e-08
-4.01647e-09
8.69828e-10
7.65988e-09
3.91777e-08
-3.99009e-09
7.3106e-10
8.60876e-09
4.72036e-08
-3.68532e-09
4.99103e-10
9.20983e-09
5.48933e-08
-3.13192e-09
2.49612e-10
9.47524e-09
6.20755e-08
-2.42743e-09
4.11156e-11
9.48841e-09
6.86875e-08
-1.70036e-09
-8.13954e-11
9.39146e-09
7.48857e-08
-1.07718e-09
-1.4097e-10
9.33777e-09
-6.47956e-10
-1.55254e-10
8.13621e-08
9.12369e-09
3.14228e-08
-4.00438e-09
9.69057e-09
3.84986e-08
-4.18806e-09
1.02959e-08
4.54649e-08
-4.01985e-09
1.05025e-08
5.2291e-08
-3.49349e-09
1.03442e-08
5.89464e-08
-2.71499e-09
9.93231e-09
6.54491e-08
-1.84718e-09
9.43826e-09
7.19582e-08
-1.08589e-09
9.06562e-09
-5.9547e-10
7.91855e-08
8.64914e-09
3.26948e-08
-1.56893e-09
1.0843e-08
3.87596e-08
-1.75504e-09
1.10762e-08
4.46046e-08
-1.77786e-09
1.09181e-08
5.05112e-08
-1.6125e-09
1.04531e-08
5.6674e-08
-1.30213e-09
9.80105e-09
6.32117e-08
-9.23618e-10
9.12763e-09
7.02188e-08
-5.74915e-10
8.6573e-09
-3.41365e-10
7.82034e-08
8.27579e-09
3.3673e-08
1.6341e-09
1.12104e-08
3.93792e-08
1.64734e-09
1.12891e-08
4.47391e-08
1.48721e-09
1.09954e-08
5.02166e-08
1.16917e-09
1.04314e-08
5.61389e-08
7.63308e-10
9.71091e-09
6.26804e-08
3.56653e-10
8.99004e-09
6.98983e-08
4.36738e-11
8.49847e-09
-9.03591e-11
7.81798e-08
8.13958e-09
3.38427e-08
3.72961e-09
1.08254e-08
4.00982e-08
3.87723e-09
1.10608e-08
4.59331e-08
3.7082e-09
1.09081e-08
5.16626e-08
3.1794e-09
1.04469e-08
5.75599e-08
2.38386e-09
9.79445e-09
6.38218e-08
1.49688e-09
9.11601e-09
7.0593e-08
7.38431e-10
8.63736e-09
2.91298e-10
7.84142e-08
8.24474e-09
3.32152e-08
3.31824e-09
9.65286e-09
4.05659e-08
3.39012e-09
1.02531e-08
4.7592e-08
3.27705e-09
1.046e-08
5.42641e-08
2.91289e-09
1.03044e-08
6.06081e-08
2.3332e-09
9.89423e-09
6.67231e-08
1.65821e-09
9.39703e-09
7.28471e-08
1.04455e-09
9.01418e-09
6.18039e-10
7.97576e-08
8.57938e-09
3.25097e-08
3.6993e-11
7.61019e-09
4.07136e-08
5.13823e-11
8.54304e-09
4.87607e-08
5.22368e-11
9.1313e-09
5.64079e-08
4.37618e-11
9.38818e-09
6.34666e-08
3.05614e-11
9.39504e-09
6.98949e-08
1.71386e-11
9.28907e-09
7.58816e-08
6.53265e-12
9.21858e-09
-3.84685e-13
8.21784e-08
8.97426e-09
1.86821e-07
-1.83895e-08
3.18267e-08
-9.72471e-11
1.95615e-07
-3.16527e-08
2.26984e-08
2.69749e-10
2.05531e-07
-2.63319e-08
1.61434e-08
2.85448e-10
2.12216e-07
-1.90826e-08
1.22387e-08
1.65596e-10
2.15395e-07
-1.34076e-08
1.01842e-08
5.13914e-11
2.15681e-07
-9.4203e-09
9.16113e-09
-1.88262e-11
2.13809e-07
-6.70547e-09
8.63015e-09
-4.68754e-11
-4.90403e-09
8.30586e-09
-4.82372e-11
2.10461e-07
3.39278e-07
-7.57927e-09
6.24451e-08
2.97228e-07
-3.11815e-08
4.1518e-08
2.72939e-07
-2.8939e-08
2.69171e-08
2.57471e-07
-2.19596e-08
1.8364e-08
2.45818e-07
-1.56585e-08
1.39246e-08
2.35698e-07
-1.09892e-08
1.17063e-08
2.26241e-07
-7.76333e-09
1.05266e-08
-5.60917e-09
9.8121e-09
2.1714e-07
4.70258e-07
3.99807e-10
8.80752e-08
3.91922e-07
-1.08204e-08
5.84801e-08
3.37648e-07
-1.13599e-08
3.68063e-08
3.00799e-07
-9.08252e-09
2.39942e-08
2.74497e-07
-6.68957e-09
1.73501e-08
2.54328e-07
-4.81384e-09
1.40064e-08
2.37842e-07
-3.46455e-09
1.21946e-08
-2.52908e-09
1.10856e-08
2.2368e-07
5.11649e-07
1.52411e-09
9.61292e-08
4.24793e-07
1.23081e-08
6.43747e-08
3.61229e-07
1.18435e-08
4.03852e-08
3.17091e-07
8.97312e-09
2.61083e-08
2.85538e-07
6.20217e-09
1.86844e-08
2.61657e-07
4.15502e-09
1.49303e-08
2.42531e-07
2.79645e-09
1.2877e-08
1.94167e-09
1.16099e-08
2.26457e-07
4.7078e-07
9.27024e-09
8.67043e-08
3.93973e-07
3.18017e-08
5.79025e-08
3.39771e-07
2.93887e-08
3.66666e-08
3.02786e-07
2.19448e-08
2.40177e-08
2.76222e-07
1.53518e-08
1.7427e-08
2.55727e-07
1.05646e-08
1.40982e-08
2.38919e-07
7.32787e-09
1.22851e-08
5.21693e-09
1.1167e-08
2.24481e-07
3.39748e-07
1.87589e-08
6.21197e-08
2.98782e-07
3.15671e-08
4.144e-08
2.75288e-07
2.59474e-08
2.69473e-08
2.60078e-07
1.87076e-08
1.84555e-08
2.48287e-07
1.31036e-08
1.40506e-08
2.37836e-07
9.18129e-09
1.18471e-08
2.27989e-07
6.51544e-09
1.0668e-08
4.74959e-09
9.94353e-09
2.18516e-07
1.89586e-07
3.20401e-08
-4.39485e-10
1.98788e-07
2.28485e-08
-4.68514e-10
2.08785e-07
1.62814e-08
-3.2147e-10
2.15297e-07
1.23867e-08
-1.75513e-10
2.18158e-07
1.03447e-08
-8.89228e-11
2.18067e-07
9.32896e-09
-4.58261e-11
2.15817e-07
8.79773e-09
-2.70608e-11
8.46516e-09
-2.04932e-11
2.12124e-07
1.59498e-07
-1.53009e-08
1.85909e-08
6.49907e-10
1.80295e-07
-1.44191e-08
1.58765e-08
4.53726e-10
1.92845e-07
-1.13001e-08
1.46243e-08
2.68355e-10
1.99238e-07
-8.45573e-09
1.41701e-08
1.28313e-10
2.01594e-07
-6.2594e-09
1.40493e-08
4.18808e-11
2.01403e-07
-4.66057e-09
1.40177e-08
1.15097e-12
1.99626e-07
-3.54589e-09
1.3967e-08
-1.02578e-11
-2.80639e-09
1.38566e-08
-7.18214e-12
1.96891e-07
1.89098e-07
-1.56071e-08
3.43122e-08
2.06605e-07
-1.51403e-08
2.47378e-08
2.14123e-07
-1.2211e-08
2.03118e-08
2.14943e-07
-9.24034e-09
1.83306e-08
2.12104e-07
-6.86313e-09
1.73702e-08
2.07468e-07
-5.10197e-09
1.67866e-08
2.01987e-07
-3.8569e-09
1.63183e-08
-3.01669e-09
1.58688e-08
1.96137e-07
2.07921e-07
-5.1023e-09
4.70857e-08
2.24821e-07
-5.54579e-09
3.20072e-08
2.29191e-07
-4.77368e-09
2.50028e-08
2.26014e-07
-3.80649e-09
2.17398e-08
2.19416e-07
-2.95427e-09
2.00418e-08
2.11639e-07
-2.26976e-09
1.89529e-08
2.03626e-07
-1.74996e-09
1.80985e-08
-1.3763e-09
1.7343e-08
1.95723e-07
2.1282e-07
7.25445e-09
5.15246e-08
2.30498e-07
6.57993e-09
3.45779e-08
2.34367e-07
5.01337e-09
2.67292e-08
2.30079e-07
3.54626e-09
2.30454e-08
2.22272e-07
2.4477e-09
2.10932e-08
2.13418e-07
1.70095e-09
1.98178e-08
2.04507e-07
1.22466e-09
1.88132e-08
9.38343e-10
1.7935e-08
1.95863e-07
2.07301e-07
1.51409e-08
4.70143e-08
2.25092e-07
1.471e-08
3.19857e-08
2.29993e-07
1.17379e-08
2.50381e-08
2.27005e-07
8.72532e-09
2.18277e-08
2.20374e-07
6.34937e-09
2.01623e-08
2.12459e-07
4.63537e-09
1.90867e-08
2.04277e-07
3.46349e-09
1.82302e-08
2.70048e-09
1.74622e-08
1.96216e-07
1.90818e-07
1.40055e-08
3.42212e-08
2.08756e-07
1.34636e-08
2.47498e-08
2.16393e-07
1.06296e-08
2.04155e-08
2.17081e-07
7.99507e-09
1.8499e-08
2.13969e-07
5.94168e-09
1.75778e-08
2.09011e-07
4.43734e-09
1.70101e-08
2.03223e-07
3.38427e-09
1.65383e-08
2.68376e-09
1.60709e-08
1.97108e-07
1.62267e-07
1.86434e-08
-4.71955e-10
1.8288e-07
1.59897e-08
-2.83081e-10
1.95148e-07
1.47887e-08
-1.40394e-10
2.01218e-07
1.43718e-08
-5.65931e-11
2.03254e-07
1.42747e-08
-1.68191e-11
2.02773e-07
1.42541e-08
4.64021e-13
2.0075e-07
1.42029e-08
2.36338e-12
1.40817e-08
-1.44097e-12
1.97817e-07
1.51809e-07
-1.47501e-08
1.78341e-08
-1.20075e-10
1.60805e-07
-1.14587e-08
1.844e-08
-1.02686e-10
1.65502e-07
-8.73995e-09
1.8719e-08
-4.49341e-11
1.67523e-07
-6.57842e-09
1.87199e-08
2.01072e-11
1.67807e-07
-4.83681e-09
1.85525e-08
6.27069e-11
1.66952e-07
-3.49905e-09
1.82965e-08
8.55584e-11
1.65386e-07
-2.55778e-09
1.80068e-08
9.14369e-11
-1.96368e-09
1.77316e-08
8.81889e-11
1.63391e-07
1.81921e-07
-1.56299e-08
2.61131e-08
1.82976e-07
-1.27786e-08
2.50081e-08
1.80495e-07
-9.97522e-09
2.40376e-08
1.76619e-07
-7.42735e-09
2.30683e-08
1.72327e-07
-5.28489e-09
2.21217e-08
1.6805e-07
-3.66225e-09
2.12379e-08
1.63933e-07
-2.56814e-09
2.04525e-08
-1.91417e-09
1.97969e-08
1.59959e-07
2.04394e-07
-6.31952e-09
3.2428e-08
1.99046e-07
-5.31405e-09
2.98959e-08
1.90418e-07
-4.23176e-09
2.78932e-08
1.81758e-07
-3.16333e-09
2.61434e-08
1.74177e-07
-2.23838e-09
2.45856e-08
1.67797e-07
-1.5402e-09
2.32199e-08
1.62347e-07
-1.07718e-09
2.20641e-08
-8.04761e-10
2.11361e-08
1.57449e-07
2.12211e-07
6.30227e-09
3.47328e-08
2.04641e-07
5.15472e-09
3.16803e-08
1.93833e-07
3.99581e-09
2.9313e-08
1.83517e-07
2.91617e-09
2.72893e-08
1.74846e-07
2.01873e-09
2.5514e-08
1.67801e-07
1.35823e-09
2.39723e-08
1.61936e-07
9.2916e-10
2.26774e-08
6.86097e-10
2.16456e-08
1.56737e-07
2.04505e-07
1.55279e-08
3.23913e-08
1.99153e-07
1.25997e-08
2.98941e-08
1.90507e-07
9.7527e-09
2.79357e-08
1.81829e-07
7.21134e-09
2.62246e-08
1.74228e-07
5.10532e-09
2.46911e-08
1.67828e-07
3.52386e-09
2.33339e-08
1.62359e-07
2.46201e-09
2.21741e-08
1.83101e-09
2.12348e-08
1.57445e-07
1.81882e-07
1.4695e-08
2.60913e-08
1.82823e-07
1.13792e-08
2.50316e-08
1.80252e-07
8.63436e-09
2.41124e-08
1.7633e-07
6.45822e-09
2.31878e-08
1.72039e-07
4.7179e-09
2.22714e-08
1.67793e-07
3.39193e-09
2.14009e-08
1.63721e-07
2.4648e-09
2.06145e-08
1.88344e-09
1.9948e-08
1.59794e-07
1.51459e-07
1.7854e-08
1.3658e-11
1.60296e-07
1.84894e-08
4.98601e-11
1.64865e-07
1.87973e-08
6.7241e-11
1.6682e-07
1.88225e-08
6.703e-11
1.67097e-07
1.8673e-08
5.55884e-11
1.66285e-07
1.84283e-08
4.03363e-11
1.64787e-07
1.81438e-08
2.63569e-11
1.78681e-08
1.57819e-11
1.6287e-07
6.13586e-08
-5.83973e-09
1.25269e-08
-6.46332e-10
7.23438e-08
-5.56633e-09
1.34947e-08
-4.7334e-10
8.22403e-08
-4.98793e-09
1.40578e-08
-2.48084e-10
9.08609e-08
-4.14384e-09
1.42789e-08
-3.70477e-11
9.82312e-08
-3.17982e-09
1.42643e-08
9.62476e-11
1.04466e-07
-2.28621e-09
1.41841e-08
1.62505e-10
1.09626e-07
-1.6007e-09
1.42656e-08
1.79634e-10
-1.17164e-09
1.47351e-08
1.71408e-10
1.13622e-07
6.60378e-08
-6.99594e-09
1.68768e-08
7.50992e-08
-6.77629e-09
1.71589e-08
8.29988e-08
-5.94655e-09
1.70956e-08
8.98408e-08
-4.66088e-09
1.67418e-08
9.58535e-08
-3.27947e-09
1.62078e-08
1.01228e-07
-2.10766e-09
1.5684e-08
1.05929e-07
-1.29957e-09
1.54499e-08
-8.66586e-10
1.58181e-08
1.09601e-07
6.91446e-08
-3.15708e-09
1.98347e-08
7.57597e-08
-3.00823e-09
1.95131e-08
8.13271e-08
-2.53384e-09
1.89094e-08
8.65564e-08
-1.8637e-09
1.81129e-08
9.18416e-08
-1.20815e-09
1.72263e-08
9.72278e-08
-7.04162e-10
1.64284e-08
1.02364e-07
-3.93285e-10
1.60195e-08
-2.53209e-10
1.63765e-08
1.06508e-07
6.98322e-08
2.74724e-09
2.08805e-08
7.53457e-08
2.8318e-09
2.0325e-08
7.99895e-08
2.6078e-09
1.95233e-08
8.47216e-08
2.11288e-09
1.85764e-08
8.99275e-08
1.52057e-09
1.75763e-08
9.55154e-08
9.8801e-10
1.66902e-08
1.00968e-07
6.06185e-10
1.62234e-08
3.9889e-10
1.6579e-08
1.0538e-07
6.79628e-08
6.9042e-09
1.98252e-08
7.43736e-08
6.79554e-09
1.95175e-08
7.9917e-08
6.0648e-09
1.89332e-08
8.52553e-08
4.84281e-09
1.81552e-08
9.07115e-08
3.47364e-09
1.72816e-08
9.6276e-08
2.2676e-09
1.64898e-08
1.01571e-07
1.403e-09
1.60806e-08
9.22282e-10
1.64324e-08
1.05848e-07
6.39847e-08
6.22595e-09
1.68674e-08
7.27328e-08
5.90872e-09
1.71676e-08
8.05642e-08
5.21553e-09
1.71277e-08
8.75504e-08
4.24681e-09
1.67965e-08
9.38308e-08
3.18456e-09
1.628e-08
9.9509e-08
2.22396e-09
1.57665e-08
1.04492e-07
1.49772e-09
1.55353e-08
1.05317e-09
1.58996e-08
1.08407e-07
5.94157e-08
1.25281e-08
7.23592e-12
7.02958e-08
1.35092e-08
9.09385e-12
8.0218e-08
1.40874e-08
1.66488e-12
8.89724e-08
1.43224e-08
-8.86935e-12
9.65259e-08
1.43188e-08
-1.56286e-11
1.02947e-07
1.42464e-08
-1.66756e-11
1.08267e-07
1.43321e-08
-1.32303e-11
1.4801e-08
-7.54354e-12
1.12393e-07
3.39598e-08
-2.4066e-09
-9.28714e-10
7.66175e-09
4.2136e-08
-2.57102e-09
-7.37763e-10
8.62232e-09
5.01261e-08
-2.69753e-09
-4.7315e-10
9.23457e-09
5.77293e-08
-2.6193e-09
-2.14513e-10
9.50722e-09
6.47687e-08
-2.28732e-09