/*--------------------------------*- C++ -*----------------------------------*\
| =========                 |                                                 |
| \\      /  F ield         | OpenFOAM: The Open Source CFD Toolbox           |
|  \\    /   O peration     | Version:  plus.master                           |
|   \\  /    A nd           | Web:      www.OpenFOAM.com                      |
|    \\/     M anipulation  |                                                 |
\*---------------------------------------------------------------------------*/
FoamFile
{
    version     2.0;
    format      ascii;
    class       volScalarField;
    location    "0.2";
    object      k;
}
// * * * * * * * * * * * * * * * * * * * * * * * * * * * * * * * * * * * * * //

dimensions      [0 2 -2 0 0 0 0];

internalField   nonuniform List<scalar> 
47285
(
0.00399399
0.00418665
0.00426769
0.00427363
0.00426226
0.00418504
0.00399353
0.00418336
0.00513022
0.00530151
0.00529352
0.0052855
0.00512834
0.00418293
0.00425768
0.00528532
0.00551433
0.00553697
0.00549404
0.00528612
0.00425981
0.00427351
0.0052896
0.00553836
0.00556182
0.00551566
0.00527992
0.00426468
0.00426457
0.0052844
0.00552121
0.00553246
0.00549539
0.00527975
0.00425562
0.00418851
0.00513544
0.00528992
0.00530439
0.00528097
0.00512953
0.00417924
0.00399297
0.00418663
0.00426111
0.0042794
0.00426091
0.0041795
0.00398656
0.00370102
0.00374819
0.0037721
0.00377938
0.00377268
0.00374738
0.00370067
0.00374708
0.00380648
0.00381194
0.00380723
0.00381001
0.00380584
0.00374686
0.00377115
0.00380804
0.00378452
0.00377122
0.00377867
0.00380858
0.00377038
0.00377992
0.00380868
0.00377444
0.0037551
0.00376437
0.00380389
0.00377733
0.00377391
0.00381165
0.00378901
0.00377327
0.00377958
0.00380739
0.00377072
0.00374766
0.00380801
0.00381022
0.00381173
0.00380958
0.00380368
0.00374509
0.00370077
0.00374752
0.00377218
0.00377947
0.00377159
0.00374465
0.00369902
0.00359295
0.00359839
0.00360211
0.00360331
0.0036021
0.00359833
0.00359287
0.00359833
0.00360912
0.00361557
0.00361743
0.0036155
0.00360902
0.00359826
0.00360205
0.00361554
0.00362283
0.00362472
0.00362262
0.00361537
0.00360194
0.00360332
0.00361756
0.00362509
0.00362686
0.00362465
0.00361723
0.00360316
0.00360217
0.00361576
0.00362328
0.00362513
0.00362284
0.00361544
0.00360198
0.0035984
0.00360924
0.00361575
0.00361763
0.00361553
0.00360892
0.00359821
0.00359291
0.00359838
0.00360214
0.00360332
0.00360201
0.00359819
0.00359279
0.00358089
0.00358125
0.00358153
0.00358162
0.00358152
0.00358124
0.00358086
0.00358125
0.00358186
0.00358228
0.0035824
0.00358226
0.00358185
0.00358124
0.00358153
0.00358227
0.00358275
0.00358289
0.00358274
0.00358227
0.00358152
0.00358162
0.0035824
0.0035829
0.00358304
0.00358289
0.0035824
0.00358161
0.00358152
0.00358227
0.00358276
0.0035829
0.00358274
0.00358227
0.00358151
0.00358124
0.00358186
0.00358229
0.00358241
0.00358227
0.00358185
0.00358123
0.00358086
0.00358124
0.00358153
0.00358162
0.00358152
0.00358123
0.00358085
0.00357969
0.00357969
0.00357975
0.00357977
0.00357975
0.00357971
0.00357968
0.00357969
0.00357974
0.00357981
0.00357983
0.00357982
0.00357977
0.00357971
0.00357974
0.00357981
0.00357988
0.0035799
0.00357988
0.00357983
0.00357976
0.00357976
0.00357983
0.0035799
0.00357992
0.0035799
0.00357985
0.00357977
0.00357975
0.00357982
0.00357988
0.0035799
0.00357988
0.00357983
0.00357975
0.00357971
0.00357977
0.00357983
0.00357985
0.00357983
0.00357978
0.00357971
0.00357969
0.00357971
0.00357976
0.00357977
0.00357975
0.00357971
0.00357968
0.00392811
0.00390545
0.00389558
0.00389058
0.00388751
0.0038853
0.00388355
0.0038821
0.00397361
0.00392131
0.00390153
0.00389328
0.00388897
0.00388614
0.00388402
0.00388233
0.00399151
0.00392718
0.00390438
0.00389488
0.00388996
0.00388676
0.00388438
0.0038825
0.00399368
0.00392812
0.00390503
0.00389536
0.0038903
0.00388697
0.0038845
0.00388256
0.00399111
0.00392747
0.00390443
0.00389488
0.00388995
0.00388674
0.00388435
0.00388249
0.00396918
0.00391876
0.00390052
0.00389289
0.00388882
0.00388608
0.00388399
0.00388231
0.0039243
0.00390343
0.0038946
0.00389015
0.00388734
0.00388524
0.00388354
0.00388211
0.00367055
0.00365608
0.00364792
0.00364305
0.00363991
0.00363772
0.00363611
0.00363486
0.00369098
0.00366508
0.00365211
0.00364518
0.00364106
0.00363836
0.00363644
0.003635
0.00370437
0.00367135
0.00365509
0.00364672
0.00364192
0.00363885
0.0036367
0.00363511
0.00370868
0.00367339
0.00365608
0.00364724
0.00364222
0.00363901
0.00363679
0.00363515
0.00370449
0.00367137
0.00365509
0.00364672
0.00364192
0.00363885
0.0036367
0.00363511
0.00369006
0.00366463
0.00365191
0.00364509
0.00364103
0.00363836
0.00363645
0.003635
0.00366967
0.0036556
0.00364769
0.00364295
0.00363987
0.00363772
0.00363612
0.00363487
0.0035893
0.00358735
0.00358613
0.00358536
0.00358491
0.00358466
0.00358453
0.00358441
0.0035918
0.00358857
0.00358674
0.00358568
0.00358505
0.00358471
0.00358453
0.00358441
0.00359363
0.00358951
0.00358723
0.00358593
0.00358517
0.00358475
0.00358454
0.0035844
0.00359425
0.00358982
0.0035874
0.00358601
0.00358521
0.00358476
0.00358454
0.0035844
0.00359365
0.00358951
0.00358723
0.00358592
0.00358516
0.00358474
0.00358454
0.0035844
0.00359177
0.00358856
0.00358673
0.00358566
0.00358504
0.0035847
0.00358453
0.00358441
0.00358926
0.00358733
0.00358611
0.00358536
0.00358491
0.00358466
0.00358453
0.00358442
0.00358061
0.00358061
0.00358093
0.00358178
0.00358336
0.00358566
0.00358812
0.00358976
0.00358077
0.00358057
0.00358067
0.00358126
0.00358262
0.00358492
0.00358768
0.00358967
0.00358093
0.00358063
0.00358059
0.00358102
0.00358221
0.00358445
0.00358737
0.0035896
0.00358099
0.00358065
0.00358058
0.00358095
0.00358208
0.00358428
0.00358726
0.00358958
0.00358092
0.00358062
0.00358059
0.00358101
0.00358221
0.00358444
0.00358737
0.0035896
0.00358075
0.00358056
0.00358066
0.00358125
0.00358262
0.00358491
0.00358768
0.00358967
0.00358059
0.00358059
0.00358092
0.00358177
0.00358335
0.00358565
0.00358812
0.00358976
0.00357979
0.00358033
0.00358197
0.00358596
0.00359352
0.00360396
0.00361268
0.00361337
0.00357966
0.00357981
0.00358063
0.00358332
0.00358966
0.00360026
0.00361102
0.00361341
0.00357968
0.0035797
0.00358016
0.0035821
0.00358748
0.00359777
0.00360967
0.0036134
0.00357969
0.00357968
0.00358005
0.00358176
0.00358679
0.00359691
0.00360915
0.00361339
0.00357967
0.0035797
0.00358016
0.0035821
0.00358748
0.00359777
0.00360967
0.0036134
0.00357965
0.0035798
0.00358063
0.00358332
0.00358966
0.00360025
0.00361101
0.0036134
0.00357979
0.00358032
0.00358196
0.00358596
0.00359352
0.00360396
0.00361267
0.00361336
0.00392752
0.00390526
0.00389547
0.0038905
0.00388745
0.00388524
0.0038835
0.00388206
0.0039744
0.00392135
0.00390151
0.00389322
0.0038889
0.00388607
0.00388396
0.00388228
0.00399875
0.00392997
0.003905
0.00389501
0.00388995
0.00388672
0.00388433
0.00388246
0.00399976
0.00392985
0.00390544
0.00389541
0.00389029
0.00388695
0.00388448
0.00388255
0.00399178
0.00392768
0.00390445
0.00389487
0.00388995
0.00388675
0.00388436
0.00388249
0.00397295
0.00392093
0.0039015
0.0038933
0.003889
0.00388616
0.00388403
0.00388233
0.00392838
0.00390585
0.00389578
0.00389069
0.00388759
0.00388535
0.00388359
0.00388213
0.00367064
0.0036561
0.00364791
0.00364302
0.00363987
0.00363768
0.00363607
0.00363482
0.00369139
0.00366525
0.00365215
0.00364516
0.00364102
0.00363832
0.0036364
0.00363496
0.00370567
0.00367179
0.00365522
0.00364673
0.0036419
0.00363882
0.00363667
0.00363509
0.00370949
0.00367364
0.00365614
0.00364725
0.00364221
0.003639
0.00363678
0.00363514
0.00370472
0.00367145
0.00365512
0.00364673
0.00364193
0.00363886
0.00363671
0.00363512
0.00369103
0.00366512
0.00365215
0.00364521
0.0036411
0.0036384
0.00363647
0.00363502
0.0036707
0.00365618
0.003648
0.00364312
0.00363996
0.00363777
0.00363615
0.00363489
0.00358931
0.00358735
0.00358612
0.00358535
0.0035849
0.00358465
0.00358452
0.00358441
0.00359183
0.00358858
0.00358674
0.00358566
0.00358504
0.00358469
0.00358452
0.0035844
0.0035937
0.00358953
0.00358724
0.00358592
0.00358516
0.00358474
0.00358453
0.0035844
0.00359429
0.00358984
0.00358741
0.00358601
0.0035852
0.00358476
0.00358454
0.0035844
0.00359366
0.00358952
0.00358724
0.00358593
0.00358516
0.00358474
0.00358454
0.0035844
0.00359183
0.0035886
0.00358676
0.00358568
0.00358505
0.00358471
0.00358453
0.00358441
0.00358931
0.00358737
0.00358614
0.00358538
0.00358492
0.00358467
0.00358453
0.00358442
0.0035806
0.00358061
0.00358093
0.00358178
0.00358336
0.00358565
0.00358812
0.00358975
0.00358075
0.00358057
0.00358067
0.00358126
0.00358262
0.00358491
0.00358768
0.00358967
0.00358092
0.00358063
0.0035806
0.00358102
0.00358221
0.00358444
0.00358737
0.0035896
0.00358099
0.00358066
0.00358058
0.00358095
0.00358208
0.00358428
0.00358726
0.00358958
0.00358092
0.00358063
0.0035806
0.00358101
0.00358221
0.00358444
0.00358737
0.0035896
0.00358075
0.00358057
0.00358067
0.00358126
0.00358262
0.00358491
0.00358768
0.00358967
0.00358059
0.00358061
0.00358093
0.00358177
0.00358336
0.00358565
0.00358812
0.00358975
0.00357979
0.00358033
0.00358196
0.00358595
0.0035935
0.00360393
0.00361265
0.00361335
0.00357964
0.0035798
0.00358063
0.00358331
0.00358964
0.00360022
0.00361098
0.00361339
0.00357966
0.00357969
0.00358016
0.0035821
0.00358747
0.00359774
0.00360964
0.00361339
0.00357967
0.00357967
0.00358004
0.00358175
0.00358678
0.00359689
0.00360914
0.00361338
0.00357965
0.00357968
0.00358015
0.0035821
0.00358747
0.00359776
0.00360966
0.0036134
0.00357962
0.00357979
0.00358062
0.00358331
0.00358965
0.00360024
0.00361101
0.0036134
0.00357974
0.0035803
0.00358195
0.00358595
0.00359351
0.00360395
0.00361266
0.00361336
0.00392883
0.00390594
0.00389585
0.00389073
0.0038876
0.00388536
0.00388359
0.00388213
0.00397557
0.00392238
0.00390211
0.00389353
0.00388907
0.00388618
0.00388404
0.00388233
0.00399562
0.00392958
0.00390519
0.00389514
0.00389004
0.00388677
0.00388437
0.00388249
0.0039978
0.00392953
0.00390553
0.00389552
0.00389034
0.00388697
0.00388448
0.00388255
0.00399598
0.00393019
0.00390536
0.00389517
0.00389002
0.00388674
0.00388434
0.00388247
0.00397439
0.00392159
0.00390178
0.00389336
0.00388896
0.0038861
0.00388397
0.00388229
0.00392815
0.00390542
0.00389556
0.00389055
0.00388747
0.00388526
0.00388352
0.00388208
0.00367079
0.00365623
0.00364803
0.00364313
0.00363997
0.00363777
0.00363615
0.00363489
0.00369171
0.00366545
0.00365228
0.00364526
0.00364111
0.00363839
0.00363646
0.00363501
0.00370547
0.00367183
0.00365527
0.00364678
0.00364194
0.00363885
0.0036367
0.00363511
0.00370962
0.00367379
0.00365622
0.00364728
0.00364222
0.00363901
0.00363678
0.00363514
0.00370566
0.00367189
0.00365529
0.00364677
0.00364192
0.00363884
0.00363669
0.0036351
0.00369135
0.00366529
0.00365219
0.00364519
0.00364105
0.00363835
0.00363643
0.00363498
0.00367057
0.00365608
0.00364792
0.00364304
0.0036399
0.00363772
0.0036361
0.00363485
0.00358932
0.00358737
0.00358614
0.00358538
0.00358492
0.00358467
0.00358454
0.00358442
0.00359186
0.00358861
0.00358676
0.00358568
0.00358505
0.00358471
0.00358453
0.00358441
0.0035937
0.00358954
0.00358724
0.00358593
0.00358516
0.00358475
0.00358454
0.00358441
0.0035943
0.00358984
0.0035874
0.00358601
0.0035852
0.00358475
0.00358454
0.0035844
0.00359369
0.00358953
0.00358724
0.00358592
0.00358515
0.00358474
0.00358453
0.0035844
0.00359182
0.00358858
0.00358674
0.00358566
0.00358503
0.00358469
0.00358452
0.0035844
0.00358927
0.00358734
0.00358612
0.00358536
0.00358491
0.00358466
0.00358452
0.00358441
0.0035806
0.00358061
0.00358093
0.00358177
0.00358336
0.00358565
0.00358812
0.00358976
0.00358076
0.00358057
0.00358067
0.00358126
0.00358262
0.00358492
0.00358769
0.00358967
0.00358093
0.00358063
0.0035806
0.00358102
0.00358221
0.00358444
0.00358737
0.0035896
0.00358099
0.00358066
0.00358059
0.00358095
0.00358208
0.00358429
0.00358726
0.00358958
0.00358092
0.00358063
0.0035806
0.00358102
0.00358221
0.00358444
0.00358737
0.0035896
0.00358075
0.00358057
0.00358067
0.00358126
0.00358262
0.00358491
0.00358768
0.00358967
0.00358058
0.0035806
0.00358092
0.00358177
0.00358336
0.00358565
0.00358812
0.00358976
0.00357975
0.0035803
0.00358195
0.00358595
0.00359351
0.00360395
0.00361267
0.00361336
0.00357963
0.00357979
0.00358062
0.00358331
0.00358965
0.00360025
0.00361101
0.0036134
0.00357965
0.00357969
0.00358016
0.0035821
0.00358748
0.00359776
0.00360966
0.0036134
0.00357967
0.00357967
0.00358004
0.00358175
0.00358679
0.0035969
0.00360915
0.00361339
0.00357965
0.00357969
0.00358016
0.0035821
0.00358748
0.00359776
0.00360965
0.00361339
0.00357964
0.0035798
0.00358063
0.00358331
0.00358965
0.00360024
0.003611
0.00361339
0.00357976
0.00358031
0.00358196
0.00358595
0.0035935
0.00360394
0.00361266
0.00361336
0.00392417
0.00390338
0.00389459
0.00389016
0.00388737
0.00388527
0.00388356
0.00388212
0.00396865
0.00391872
0.0039004
0.00389282
0.00388881
0.0038861
0.00388401
0.00388233
0.00399457
0.00392837
0.00390451
0.00389483
0.00388993
0.00388674
0.00388436
0.00388249
0.00399973
0.00393114
0.00390583
0.00389552
0.00389031
0.00388695
0.00388448
0.00388255
0.00399355
0.00392825
0.00390472
0.00389497
0.00388997
0.00388673
0.00388434
0.00388248
0.00397378
0.00392089
0.00390147
0.00389327
0.00388895
0.00388612
0.003884
0.00388231
0.00392746
0.00390527
0.00389549
0.00389053
0.00388749
0.00388529
0.00388355
0.00388211
0.00366965
0.00365559
0.00364769
0.00364295
0.00363988
0.00363772
0.00363612
0.00363487
0.00368989
0.00366454
0.00365187
0.00364509
0.00364104
0.00363837
0.00363645
0.00363501
0.00370463
0.00367135
0.00365507
0.00364671
0.00364192
0.00363885
0.00363671
0.00363512
0.00370967
0.00367373
0.00365619
0.00364728
0.00364223
0.00363902
0.00363679
0.00363515
0.00370518
0.00367167
0.00365521
0.00364676
0.00364194
0.00363885
0.0036367
0.00363511
0.00369123
0.00366521
0.00365216
0.0036452
0.00364107
0.00363836
0.00363644
0.00363499
0.0036706
0.00365609
0.00364792
0.00364304
0.0036399
0.00363772
0.00363611
0.00363486
0.00358926
0.00358733
0.00358611
0.00358536
0.00358491
0.00358467
0.00358454
0.00358442
0.00359177
0.00358855
0.00358673
0.00358567
0.00358505
0.00358471
0.00358453
0.00358441
0.00359366
0.00358952
0.00358724
0.00358593
0.00358517
0.00358475
0.00358454
0.00358441
0.00359433
0.00358986
0.00358742
0.00358602
0.0035852
0.00358476
0.00358454
0.0035844
0.00359373
0.00358955
0.00358725
0.00358593
0.00358516
0.00358474
0.00358454
0.0035844
0.00359186
0.00358861
0.00358676
0.00358568
0.00358505
0.0035847
0.00358453
0.0035844
0.00358929
0.00358735
0.00358613
0.00358536
0.00358491
0.00358466
0.00358453
0.00358441
0.00358059
0.00358059
0.00358092
0.00358177
0.00358335
0.00358565
0.00358812
0.00358976
0.00358076
0.00358056
0.00358066
0.00358125
0.00358262
0.00358492
0.00358769
0.00358967
0.00358093
0.00358062
0.00358059
0.00358101
0.00358221
0.00358444
0.00358737
0.0035896
0.003581
0.00358066
0.00358058
0.00358095
0.00358208
0.00358428
0.00358726
0.00358958
0.00358094
0.00358063
0.0035806
0.00358102
0.00358221
0.00358444
0.00358737
0.0035896
0.00358076
0.00358058
0.00358068
0.00358126
0.00358263
0.00358492
0.00358768
0.00358967
0.00358059
0.0035806
0.00358093
0.00358178
0.00358336
0.00358565
0.00358813
0.00358976
0.00357979
0.00358032
0.00358196
0.00358596
0.00359351
0.00360396
0.00361267
0.00361336
0.00357966
0.00357981
0.00358063
0.00358332
0.00358966
0.00360025
0.00361101
0.0036134
0.00357967
0.0035797
0.00358016
0.0035821
0.00358748
0.00359776
0.00360966
0.0036134
0.00357969
0.00357968
0.00358004
0.00358175
0.00358679
0.0035969
0.00360915
0.00361339
0.00357968
0.0035797
0.00358016
0.0035821
0.00358748
0.00359777
0.00360967
0.0036134
0.00357965
0.00357981
0.00358063
0.00358332
0.00358966
0.00360026
0.00361102
0.00361341
0.00357977
0.00358032
0.00358196
0.00358596
0.00359352
0.00360396
0.00361268
0.00361338
0.00388091
0.00388103
0.00388113
0.00388116
0.00388112
0.00388102
0.00388092
0.00363387
0.00363393
0.003634
0.00363402
0.003634
0.00363394
0.00363388
0.00358426
0.00358424
0.00358423
0.00358423
0.00358423
0.00358424
0.00358426
0.00358978
0.00358969
0.00358963
0.0035896
0.00358963
0.00358969
0.00358978
0.00361113
0.00361077
0.00361049
0.00361039
0.00361049
0.00361077
0.00361113
0.00388087
0.00388099
0.0038811
0.00388115
0.00388112
0.00388103
0.00388093
0.00363384
0.0036339
0.00363397
0.00363401
0.003634
0.00363396
0.00363389
0.00358425
0.00358423
0.00358423
0.00358423
0.00358423
0.00358424
0.00358426
0.00358978
0.00358969
0.00358963
0.0035896
0.00358963
0.00358969
0.00358978
0.00361114
0.00361078
0.00361051
0.0036104
0.00361051
0.00361078
0.00361114
0.00388092
0.00388103
0.00388112
0.00388115
0.0038811
0.00388099
0.00388088
0.00363389
0.00363395
0.003634
0.00363401
0.00363399
0.00363392
0.00363385
0.00358426
0.00358424
0.00358423
0.00358423
0.00358423
0.00358424
0.00358425
0.00358978
0.00358969
0.00358963
0.00358961
0.00358963
0.00358969
0.00358978
0.00361113
0.00361077
0.0036105
0.0036104
0.0036105
0.00361078
0.00361114
0.00388093
0.00388103
0.00388112
0.00388115
0.00388111
0.00388101
0.00388091
0.00363388
0.00363394
0.003634
0.00363402
0.00363399
0.00363393
0.00363386
0.00358426
0.00358424
0.00358423
0.00358423
0.00358423
0.00358424
0.00358426
0.00358978
0.00358969
0.00358963
0.0035896
0.00358963
0.00358969
0.00358978
0.00361113
0.00361077
0.00361049
0.00361039
0.00361049
0.00361077
0.00361114
0.00387917
0.00387744
0.00387613
0.00387511
0.0038743
0.00387364
0.00387309
0.00387256
0.00387925
0.00387748
0.00387615
0.00387512
0.0038743
0.00387364
0.00387309
0.00387256
0.00387931
0.00387753
0.00387618
0.00387514
0.00387431
0.00387365
0.0038731
0.00387257
0.00387934
0.00387754
0.00387619
0.00387514
0.00387432
0.00387365
0.0038731
0.00387257
0.00387931
0.00387752
0.00387618
0.00387514
0.00387432
0.00387365
0.0038731
0.00387257
0.00387924
0.00387748
0.00387615
0.00387512
0.00387431
0.00387365
0.0038731
0.00387257
0.00387917
0.00387744
0.00387613
0.00387511
0.0038743
0.00387364
0.0038731
0.00387257
0.00363247
0.00363117
0.00363027
0.00362962
0.00362915
0.00362881
0.00362855
0.00362827
0.00363251
0.0036312
0.00363028
0.00362963
0.00362916
0.00362881
0.00362855
0.00362827
0.00363256
0.00363123
0.0036303
0.00362964
0.00362916
0.00362882
0.00362855
0.00362827
0.00363258
0.00363124
0.00363031
0.00362964
0.00362917
0.00362882
0.00362856
0.00362827
0.00363256
0.00363123
0.0036303
0.00362964
0.00362917
0.00362882
0.00362855
0.00362827
0.00363252
0.00363121
0.00363029
0.00362963
0.00362916
0.00362882
0.00362855
0.00362827
0.00363247
0.00363118
0.00363027
0.00362962
0.00362916
0.00362881
0.00362855
0.00362827
0.00358389
0.00358336
0.00358309
0.00358296
0.00358289
0.00358283
0.00358279
0.00358267
0.00358388
0.00358336
0.00358309
0.00358296
0.00358289
0.00358284
0.00358279
0.00358267
0.00358388
0.00358336
0.00358309
0.00358296
0.00358289
0.00358284
0.00358279
0.00358268
0.00358388
0.00358336
0.00358309
0.00358296
0.00358289
0.00358284
0.00358279
0.00358267
0.00358388
0.00358336
0.00358309
0.00358296
0.00358289
0.00358284
0.00358279
0.00358268
0.00358389
0.00358336
0.00358309
0.00358296
0.00358289
0.00358284
0.00358279
0.00358268
0.00358389
0.00358337
0.00358309
0.00358296
0.00358289
0.00358284
0.00358279
0.00358268
0.00358751
0.00358232
0.00358027
0.0035798
0.00357972
0.0035797
0.00357969
0.0035796
0.00358745
0.00358231
0.00358027
0.0035798
0.00357972
0.00357971
0.00357969
0.0035796
0.00358742
0.0035823
0.00358027
0.0035798
0.00357972
0.00357971
0.00357969
0.0035796
0.00358741
0.0035823
0.00358027
0.0035798
0.00357972
0.00357971
0.00357969
0.0035796
0.00358742
0.0035823
0.00358027
0.0035798
0.00357972
0.00357971
0.00357969
0.0035796
0.00358746
0.00358231
0.00358027
0.0035798
0.00357972
0.00357971
0.00357969
0.0035796
0.0035875
0.00358232
0.00358027
0.0035798
0.00357972
0.00357971
0.00357969
0.0035796
0.003603
0.00358506
0.00357986
0.00357944
0.00357953
0.00357956
0.00357956
0.00357947
0.00360274
0.00358499
0.00357984
0.00357944
0.00357953
0.00357956
0.00357956
0.00357947
0.00360257
0.00358495
0.00357984
0.00357944
0.00357953
0.00357956
0.00357956
0.00357947
0.00360252
0.00358494
0.00357984
0.00357944
0.00357953
0.00357956
0.00357956
0.00357947
0.00360257
0.00358495
0.00357984
0.00357944
0.00357953
0.00357956
0.00357956
0.00357947
0.00360274
0.00358499
0.00357985
0.00357944
0.00357953
0.00357956
0.00357956
0.00357947
0.003603
0.00358507
0.00357986
0.00357944
0.00357953
0.00357956
0.00357956
0.00357947
0.00387914
0.00387742
0.00387612
0.0038751
0.00387429
0.00387364
0.00387309
0.00387256
0.00387922
0.00387747
0.00387614
0.00387511
0.0038743
0.00387364
0.0038731
0.00387257
0.00387929
0.00387751
0.00387617
0.00387513
0.00387431
0.00387365
0.0038731
0.00387257
0.00387933
0.00387753
0.00387618
0.00387514
0.00387432
0.00387365
0.0038731
0.00387257
0.0038793
0.00387752
0.00387617
0.00387513
0.00387431
0.00387365
0.0038731
0.00387257
0.00387924
0.00387748
0.00387615
0.00387512
0.0038743
0.00387364
0.00387309
0.00387256
0.00387917
0.00387744
0.00387612
0.0038751
0.00387429
0.00387364
0.00387309
0.00387256
0.00363245
0.00363116
0.00363026
0.00362961
0.00362915
0.00362881
0.00362855
0.00362827
0.00363249
0.00363119
0.00363027
0.00362962
0.00362915
0.00362881
0.00362855
0.00362827
0.00363254
0.00363122
0.00363029
0.00362963
0.00362916
0.00362882
0.00362855
0.00362827
0.00363257
0.00363123
0.0036303
0.00362964
0.00362916
0.00362882
0.00362856
0.00362827
0.00363256
0.00363123
0.0036303
0.00362964
0.00362916
0.00362882
0.00362856
0.00362827
0.00363253
0.00363121
0.00363029
0.00362963
0.00362916
0.00362882
0.00362856
0.00362827
0.00363248
0.00363118
0.00363027
0.00362962
0.00362916
0.00362881
0.00362855
0.00362827
0.00358389
0.00358336
0.00358309
0.00358296
0.00358289
0.00358283
0.00358279
0.00358267
0.00358388
0.00358336
0.00358309
0.00358296
0.00358289
0.00358284
0.00358279
0.00358267
0.00358388
0.00358336
0.00358309
0.00358296
0.00358289
0.00358284
0.00358279
0.00358267
0.00358388
0.00358336
0.00358309
0.00358296
0.00358289
0.00358284
0.00358279
0.00358267
0.00358388
0.00358336
0.00358309
0.00358296
0.00358289
0.00358284
0.00358279
0.00358267
0.00358389
0.00358336
0.00358309
0.00358296
0.00358289
0.00358284
0.00358279
0.00358267
0.00358389
0.00358336
0.00358309
0.00358296
0.00358289
0.00358284
0.00358279
0.00358267
0.00358751
0.00358233
0.00358027
0.0035798
0.00357972
0.00357971
0.00357969
0.0035796
0.00358746
0.00358231
0.00358027
0.0035798
0.00357972
0.00357971
0.00357969
0.0035796
0.00358743
0.0035823
0.00358027
0.0035798
0.00357972
0.00357971
0.00357969
0.0035796
0.00358742
0.0035823
0.00358027
0.0035798
0.00357972
0.00357971
0.00357969
0.0035796
0.00358743
0.0035823
0.00358027
0.0035798
0.00357972
0.00357971
0.00357969
0.0035796
0.00358746
0.00358231
0.00358027
0.0035798
0.00357972
0.00357971
0.00357969
0.0035796
0.0035875
0.00358232
0.00358027
0.0035798
0.00357972
0.00357971
0.00357969
0.0035796
0.00360304
0.0035851
0.00357987
0.00357944
0.00357953
0.00357956
0.00357956
0.00357947
0.00360279
0.00358502
0.00357986
0.00357944
0.00357953
0.00357956
0.00357956
0.00357947
0.00360262
0.00358499
0.00357985
0.00357944
0.00357953
0.00357956
0.00357956
0.00357947
0.00360256
0.00358497
0.00357985
0.00357944
0.00357953
0.00357956
0.00357956
0.00357947
0.0036026
0.00358497
0.00357985
0.00357944
0.00357953
0.00357956
0.00357956
0.00357947
0.00360276
0.003585
0.00357985
0.00357944
0.00357953
0.00357956
0.00357956
0.00357947
0.00360301
0.00358508
0.00357987
0.00357944
0.00357953
0.00357956
0.00357956
0.00357947
0.00387917
0.00387744
0.00387613
0.00387511
0.0038743
0.00387364
0.00387309
0.00387256
0.00387924
0.00387748
0.00387615
0.00387512
0.00387431
0.00387364
0.00387309
0.00387256
0.0038793
0.00387752
0.00387617
0.00387513
0.00387431
0.00387365
0.0038731
0.00387257
0.00387933
0.00387754
0.00387618
0.00387514
0.00387432
0.00387365
0.0038731
0.00387257
0.00387929
0.00387751
0.00387617
0.00387513
0.00387431
0.00387365
0.0038731
0.00387257
0.00387922
0.00387747
0.00387614
0.00387512
0.0038743
0.00387365
0.0038731
0.00387257
0.00387913
0.00387741
0.00387611
0.0038751
0.00387429
0.00387364
0.00387309
0.00387256
0.00363248
0.00363118
0.00363027
0.00362962
0.00362916
0.00362882
0.00362855
0.00362827
0.00363252
0.00363121
0.00363029
0.00362963
0.00362916
0.00362882
0.00362856
0.00362827
0.00363256
0.00363123
0.0036303
0.00362964
0.00362917
0.00362882
0.00362856
0.00362827
0.00363257
0.00363123
0.0036303
0.00362964
0.00362917
0.00362882
0.00362856
0.00362827
0.00363255
0.00363122
0.00363029
0.00362963
0.00362916
0.00362882
0.00362855
0.00362827
0.00363251
0.00363119
0.00363028
0.00362963
0.00362916
0.00362881
0.00362855
0.00362827
0.00363245
0.00363116
0.00363026
0.00362961
0.00362915
0.00362881
0.00362855
0.00362827
0.00358389
0.00358337
0.00358309
0.00358296
0.00358289
0.00358284
0.00358279
0.00358268
0.00358388
0.00358336
0.00358309
0.00358296
0.00358289
0.00358284
0.00358279
0.00358268
0.00358388
0.00358336
0.00358309
0.00358297
0.00358289
0.00358284
0.00358279
0.00358268
0.00358388
0.00358336
0.00358309
0.00358296
0.00358289
0.00358284
0.00358279
0.00358268
0.00358388
0.00358336
0.00358309
0.00358296
0.00358289
0.00358284
0.00358279
0.00358268
0.00358388
0.00358336
0.00358309
0.00358296
0.00358289
0.00358284
0.00358279
0.00358267
0.00358388
0.00358336
0.00358309
0.00358296
0.00358289
0.00358283
0.00358279
0.00358267
0.0035875
0.00358232
0.00358027
0.0035798
0.00357972
0.00357971
0.00357969
0.0035796
0.00358746
0.00358231
0.00358027
0.0035798
0.00357972
0.00357971
0.00357969
0.0035796
0.00358742
0.0035823
0.00358027
0.0035798
0.00357972
0.00357971
0.00357969
0.0035796
0.00358742
0.0035823
0.00358027
0.0035798
0.00357972
0.00357971
0.0035797
0.0035796
0.00358743
0.0035823
0.00358027
0.0035798
0.00357972
0.00357971
0.00357969
0.0035796
0.00358746
0.00358231
0.00358027
0.0035798
0.00357972
0.00357971
0.00357969
0.0035796
0.0035875
0.00358232
0.00358027
0.0035798
0.00357972
0.00357971
0.00357969
0.0035796
0.003603
0.00358507
0.00357986
0.00357944
0.00357953
0.00357956
0.00357956
0.00357947
0.00360274
0.00358499
0.00357985
0.00357944
0.00357953
0.00357956
0.00357956
0.00357947
0.00360259
0.00358496
0.00357984
0.00357944
0.00357953
0.00357956
0.00357956
0.00357947
0.00360254
0.00358496
0.00357985
0.00357944
0.00357953
0.00357956
0.00357956
0.00357947
0.0036026
0.00358497
0.00357985
0.00357944
0.00357953
0.00357956
0.00357956
0.00357947
0.00360277
0.00358501
0.00357985
0.00357944
0.00357953
0.00357956
0.00357956
0.00357947
0.00360303
0.00358509
0.00357987
0.00357944
0.00357953
0.00357956
0.00357956
0.00357947
0.00387917
0.00387744
0.00387613
0.00387511
0.0038743
0.00387365
0.0038731
0.00387257
0.00387925
0.00387749
0.00387616
0.00387512
0.00387431
0.00387365
0.0038731
0.00387257
0.00387931
0.00387752
0.00387618
0.00387514
0.00387432
0.00387365
0.0038731
0.00387257
0.00387933
0.00387754
0.00387618
0.00387514
0.00387432
0.00387365
0.0038731
0.00387257
0.0038793
0.00387752
0.00387617
0.00387513
0.00387431
0.00387365
0.0038731
0.00387257
0.00387923
0.00387748
0.00387615
0.00387512
0.0038743
0.00387364
0.00387309
0.00387256
0.00387915
0.00387742
0.00387612
0.0038751
0.00387429
0.00387364
0.00387309
0.00387256
0.00363247
0.00363118
0.00363027
0.00362962
0.00362916
0.00362881
0.00362855
0.00362827
0.00363252
0.00363121
0.00363029
0.00362963
0.00362916
0.00362882
0.00362856
0.00362827
0.00363256
0.00363123
0.0036303
0.00362964
0.00362917
0.00362882
0.00362856
0.00362827
0.00363257
0.00363124
0.00363031
0.00362964
0.00362917
0.00362882
0.00362855
0.00362827
0.00363256
0.00363123
0.0036303
0.00362964
0.00362916
0.00362881
0.00362855
0.00362827
0.00363251
0.0036312
0.00363028
0.00362963
0.00362916
0.00362881
0.00362855
0.00362827
0.00363245
0.00363116
0.00363026
0.00362962
0.00362915
0.00362881
0.00362855
0.00362827
0.00358389
0.00358337
0.00358309
0.00358296
0.00358289
0.00358284
0.00358279
0.00358267
0.00358388
0.00358336
0.00358309
0.00358296
0.00358289
0.00358284
0.00358279
0.00358267
0.00358388
0.00358336
0.00358309
0.00358296
0.00358289
0.00358284
0.00358279
0.00358267
0.00358388
0.00358336
0.00358309
0.00358296
0.00358289
0.00358284
0.00358279
0.00358267
0.00358388
0.00358336
0.00358309
0.00358296
0.00358289
0.00358284
0.00358279
0.00358267
0.00358388
0.00358336
0.00358309
0.00358296
0.00358289
0.00358283
0.00358279
0.00358267
0.00358388
0.00358336
0.00358309
0.00358296
0.00358289
0.00358284
0.00358279
0.00358267
0.0035875
0.00358232
0.00358027
0.0035798
0.00357972
0.00357971
0.00357969
0.0035796
0.00358746
0.00358231
0.00358027
0.0035798
0.00357972
0.00357971
0.00357969
0.0035796
0.00358742
0.0035823
0.00358027
0.0035798
0.00357972
0.00357971
0.00357969
0.0035796
0.00358741
0.0035823
0.00358027
0.0035798
0.00357972
0.00357971
0.00357969
0.0035796
0.00358742
0.0035823
0.00358027
0.0035798
0.00357972
0.00357971
0.00357969
0.0035796
0.00358746
0.00358231
0.00358027
0.0035798
0.00357972
0.00357971
0.00357969
0.0035796
0.0035875
0.00358232
0.00358027
0.0035798
0.00357972
0.00357971
0.00357969
0.0035796
0.003603
0.00358507
0.00357986
0.00357944
0.00357953
0.00357956
0.00357956
0.00357947
0.00360274
0.00358499
0.00357984
0.00357944
0.00357953
0.00357956
0.00357956
0.00357947
0.00360257
0.00358495
0.00357984
0.00357944
0.00357953
0.00357956
0.00357956
0.00357947
0.00360252
0.00358494
0.00357984
0.00357944
0.00357953
0.00357956
0.00357956
0.00357947
0.00360257
0.00358495
0.00357984
0.00357944
0.00357953
0.00357956
0.00357956
0.00357947
0.00360274
0.00358499
0.00357985
0.00357944
0.00357953
0.00357956
0.00357956
0.00357947
0.00360299
0.00358507
0.00357986
0.00357944
0.00357953
0.00357956
0.00357956
0.00357947
0.00387169
0.0038694
0.00386126
0.00383423
0.00375418
0.00354502
0.00306026
0.00146661
0.00387169
0.0038694
0.00386126
0.00383424
0.00375418
0.00354502
0.00306026
0.00146661
0.00387169
0.0038694
0.00386126
0.00383424
0.00375418
0.00354502
0.00306026
0.00146661
0.0038717
0.0038694
0.00386126
0.00383424
0.00375418
0.00354502
0.00306026
0.00146661
0.0038717
0.0038694
0.00386126
0.00383424
0.00375418
0.00354502
0.00306027
0.00146662
0.0038717
0.0038694
0.00386126
0.00383424
0.00375418
0.00354502
0.00306027
0.00146662
0.0038717
0.0038694
0.00386126
0.00383424