/*--------------------------------*- C++ -*----------------------------------*\
| =========                 |                                                 |
| \\      /  F ield         | OpenFOAM: The Open Source CFD Toolbox           |
|  \\    /   O peration     | Version:  plus.master.MPPICInterFoam            |
|   \\  /    A nd           | Web:      www.OpenFOAM.com                      |
|    \\/     M anipulation  |                                                 |
\*---------------------------------------------------------------------------*/
FoamFile
{
    version     2.0;
    format      ascii;
    class       surfaceScalarField;
    location    "13.2";
    object      alphaPhi;
}
// * * * * * * * * * * * * * * * * * * * * * * * * * * * * * * * * * * * * * //

dimensions      [0 3 -1 0 0 0 0];

internalField   nonuniform List<scalar> 
34018
(
3.62406e-07
6.15298e-06
3.10115e-07
4.21278e-07
6.27361e-07
7.66434e-06
4.90501e-07
6.05215e-06
2.98505e-07
3.84671e-07
8.26877e-06
9.27645e-07
3.08272e-07
7.09717e-06
7.05038e-07
5.65853e-06
2.33534e-07
5.31517e-07
-5.3798e-07
-3.36164e-07
7.41246e-06
5.96935e-07
2.67553e-07
-3.99252e-07
-4.05885e-07
7.60069e-06
3.07101e-07
-2.39385e-07
-3.98373e-07
7.37067e-06
3.0808e-07
-1.14571e-07
-2.98197e-07
6.76421e-06
2.47498e-07
-4.3469e-08
-1.74924e-07
5.89578e-06
1.6357e-07
-3.779e-09
-8.61112e-08
4.90456e-06
9.20901e-08
-1.95673e-08
3.88619e-06
1.91975e-08
2.94566e-08
-6.23741e-07
-3.68472e-07
8.62379e-06
7.75001e-07
-3.95469e-07
-3.38409e-07
8.91401e-06
-1.82022e-07
-3.30995e-07
8.5574e-06
-3.58728e-08
-2.95385e-07
8.10862e-06
3.01686e-08
-1.44967e-07
7.12578e-06
5.06694e-08
-4.17379e-08
5.88849e-06
2.26228e-08
4.6708e-06
5.4761e-08
-4.09493e-07
-1.73048e-07
8.19081e-06
9.78197e-07
-1.58184e-07
-5.86857e-09
6.05022e-06
-4.62014e-08
-4.71731e-09
6.31756e-06
1.38883e-07
-9.45462e-08
8.55765e-06
1.66352e-07
-6.20741e-09
8.15332e-06
1.40405e-07
7.56554e-08
6.78753e-06
1.12046e-07
5.35864e-06
1.12312e-07
-1.21828e-07
2.46774e-08
6.60565e-06
9.41919e-07
-7.35585e-08
-1.42258e-08
4.83498e-06
-6.21454e-08
1.19653e-09
4.57889e-06
2.66439e-07
8.0326e-08
7.27933e-06
3.00199e-07
2.30921e-07
8.70442e-06
2.23628e-07
2.66479e-07
7.45757e-06
2.41209e-07
5.86165e-06
1.6453e-07
-1.90824e-07
2.88904e-07
6.48858e-06
9.26625e-07
-4.93123e-08
1.51726e-07
5.57897e-06
-3.85083e-08
1.15121e-07
5.20785e-06
2.7855e-07
3.06633e-07
6.95171e-06
3.26913e-07
4.87743e-07
9.00564e-06
2.39521e-07
4.51004e-07
7.74914e-06
3.63092e-07
6.09235e-06
1.78058e-07
-3.65965e-07
8.24285e-07
8.40578e-06
1.13436e-06
-9.13311e-08
6.20705e-07
5.02669e-06
1.02228e-08
6.0263e-07
4.98722e-06
2.90601e-07
7.69787e-07
8.23859e-06
2.793e-07
7.02203e-07
8.71896e-06
2.05688e-07
5.84047e-07
7.60473e-06
4.46974e-07
6.01562e-06
1.58208e-07
-5.56385e-07
8.62255e-06
8.34107e-07
9.46315e-07
-2.44461e-07
8.95919e-06
1.16622e-06
-4.43278e-08
8.30258e-06
1.13139e-06
8.57983e-08
8.59241e-06
9.63945e-07
1.20727e-07
8.37808e-06
7.47767e-07
1.21051e-07
7.0868e-06
5.93879e-07
5.65341e-06
1.23028e-07
4.50086e-07
-4.66875e-07
1.64158e-07
7.35186e-06
4.19781e-07
-5.64565e-08
-4.18907e-07
1.04905e-07
7.50533e-06
-5.7406e-08
-3.25455e-07
5.97717e-08
7.24943e-06
-3.19682e-08
-2.45687e-07
8.15019e-08
6.63617e-06
-3.31608e-08
-1.7244e-07
7.97699e-08
5.77623e-06
-3.34982e-08
-1.07789e-07
7.37241e-08
4.80277e-06
-3.64293e-08
7.48134e-08
3.80874e-06
-5.50103e-08
-5.01641e-08
-5.93928e-07
1.99485e-07
8.58511e-06
5.31196e-07
-4.83316e-07
5.45995e-08
8.84918e-06
-3.51011e-07
2.05183e-08
8.42432e-06
-2.74754e-07
1.21819e-07
7.96261e-06
-1.9304e-07
1.38336e-07
6.98521e-06
-1.19965e-07
1.26304e-07
5.76255e-06
1.16986e-07
4.57143e-06
-6.29304e-08
-5.27967e-07
1.21339e-07
8.05213e-06
6.57369e-07
-2.9062e-07
-2.61818e-08
6.12092e-06
-2.01166e-07
-2.24953e-08
6.39035e-06
-2.24968e-07
1.21619e-07
8.3514e-06
-1.81399e-07
2.14389e-07
7.99508e-06
-1.14276e-07
2.05315e-07
6.64115e-06
1.78839e-07
5.24064e-06
-5.85012e-08
-4.15166e-07
2.43666e-07
7.68718e-06
9.72583e-07
-1.84067e-07
1.32321e-07
4.41507e-06
-1.65499e-08
1.2602e-07
4.23263e-06
-8.83026e-08
2.45173e-07
7.16916e-06
-1.37005e-07
3.66148e-07
8.5221e-06
-9.89154e-08
3.24813e-07
7.29987e-06
2.58459e-07
5.73351e-06
-5.07058e-08
-5.24734e-07
6.48041e-07
8.95812e-06
1.1513e-06
-1.91391e-07
3.98364e-07
4.94991e-06
-1.27078e-08
3.52157e-07
4.7726e-06
-9.50493e-08
4.46665e-07
6.68693e-06
-1.65596e-07
5.09804e-07
8.84665e-06
-1.17159e-07
4.20849e-07
7.6044e-06
3.20918e-07
5.96944e-06
-5.67103e-08
-7.66508e-07
6.01374e-07
9.50324e-06
8.3077e-07
-2.48523e-07
8.7758e-07
7.13801e-06
-1.10516e-07
8.15001e-07
5.90747e-06
-2.23917e-07
6.36536e-07
8.32587e-06
-2.44811e-07
4.98492e-07
8.59516e-06
-1.48172e-07
4.38659e-07
7.49035e-06
3.40593e-07
5.91147e-06
-6.36396e-08
-5.48889e-07
8.36913e-06
4.1617e-07
3.1626e-07
-4.06815e-07
8.80076e-06
5.57881e-07
-3.41556e-07
8.07979e-06
5.53003e-07
-3.68073e-07
8.46995e-06
4.43746e-07
-2.836e-07
8.33248e-06
4.28916e-07
-1.54127e-07
7.00307e-06
3.92978e-07
5.57594e-06
-4.45235e-08
3.0839e-07
-3.62568e-07
3.52974e-07
7.23035e-06
2.88496e-07
-1.57431e-07
-3.88973e-07
3.85267e-07
7.36037e-06
-2.13685e-07
-3.46177e-07
2.94927e-07
7.08632e-06
-1.74709e-07
-2.81521e-07
2.35071e-07
6.46984e-06
-1.33268e-07
-2.02979e-07
1.71485e-07
5.62285e-06
-9.68402e-08
-1.27192e-07
1.23707e-07
4.67605e-06
-7.27361e-08
9.66084e-08
3.7164e-06
-6.46272e-08
-6.65484e-08
-4.606e-07
3.78256e-07
8.16789e-06
3.53169e-07
-4.87174e-07
3.27818e-07
8.47825e-06
-4.24322e-07
2.14927e-07
7.98031e-06
-3.67134e-07
2.87974e-07
7.72534e-06
-2.67048e-07
2.51073e-07
6.80082e-06
-1.66231e-07
1.83187e-07
5.6017e-06
1.38815e-07
4.44976e-06
-8.68223e-08
-5.18268e-07
2.55846e-07
6.36494e-06
3.87406e-07
-2.89968e-07
2.98951e-08
5.13358e-06
-2.52422e-07
1.44254e-08
5.54872e-06
-3.71375e-07
2.10202e-07
7.4208e-06
-3.19919e-07
3.11712e-07
7.7289e-06
-1.99401e-07
2.49012e-07
6.45484e-06
1.88214e-07
5.09509e-06
-1.03462e-07
-1.09427e-06
4.34714e-07
4.38994e-06
5.6945e-07
-2.8555e-07
3.66477e-07
8.4374e-06
-3.6475e-08
2.11387e-07
7.74516e-06
-2.76723e-07
2.71582e-07
5.92987e-06
-3.66468e-07
3.99369e-07
8.04463e-06
-2.3275e-07
3.15745e-07
7.09952e-06
2.34945e-07
5.57333e-06
-1.19277e-07
-1.10148e-06
5.26157e-07
8.26416e-06
6.03666e-07
-5.65956e-07
8.24279e-07
9.13704e-06
-5.44441e-08
8.27019e-07
8.91019e-06
-3.59214e-07
4.33689e-07
5.13475e-06
-4.57243e-07
3.90975e-07
8.29389e-06
-2.75557e-07
3.31697e-07
7.40658e-06
2.53988e-07
5.80875e-06
-1.33941e-07
-7.33203e-07
2.4642e-07
5.84773e-06
3.29444e-07
-4.84036e-07
4.62174e-07
6.54758e-06
-2.2558e-07
4.69651e-07
4.77664e-06
-4.15876e-07
3.47154e-07
6.71939e-06
-4.66549e-07
3.13264e-07
7.922e-06
-2.63838e-07
3.0791e-07
7.31133e-06
2.50824e-07
5.76622e-06
-1.15362e-07
-2.91228e-07
5.77594e-06
1.66919e-07
5.06071e-08
-3.85651e-07
5.65572e-06
7.18005e-08
-3.66417e-07
5.36467e-06
1.37129e-07
-4.82099e-07
6.90249e-06
1.65258e-07
-3.87707e-07
7.99208e-06
2.54638e-07
-2.06715e-07
6.85394e-06
2.76009e-07
5.45996e-06
-6.60135e-08
2.26131e-07
-2.66995e-07
1.31386e-07
7.10415e-06
2.60111e-07
1.73616e-09
-3.11726e-07
2.8793e-07
7.20204e-06
-8.49641e-08
-2.72889e-07
1.8477e-07
6.91646e-06
-5.36763e-08
-1.94548e-07
1.03235e-07
6.30763e-06
-1.9199e-08
-1.1428e-07
6.64228e-08
5.48311e-06
-7.01334e-09
-4.70714e-08
4.50035e-08
4.56879e-06
-5.06185e-09
3.75747e-08
3.64521e-06
4.37989e-10
-1.3977e-08
-2.61441e-07
1.57704e-07
7.85326e-06
3.02651e-07
-3.89798e-07
3.45254e-07
7.94132e-06
-3.50228e-07
1.86287e-07
7.58921e-06
-2.62777e-07
1.74036e-07
7.48366e-06
-1.53919e-07
1.44465e-07
6.6083e-06
-6.41092e-08
1.029e-07
5.45409e-06
7.84999e-08
4.3492e-06
-4.23786e-09
-2.48976e-07
8.52264e-08
4.85271e-06
2.46517e-07
-1.31954e-07
2.51668e-07
4.59232e-06
-2.03641e-07
1.20581e-07
4.50679e-06
-2.68408e-07
1.33733e-07
6.94155e-06
-1.83028e-07
2.18988e-07
7.46717e-06
-7.48628e-08
1.76302e-07
6.27334e-06
1.31529e-07
4.97049e-06
-3.26241e-09
-2.03454e-07
1.29673e-07
4.42101e-06
1.38682e-07
-3.25066e-07
2.25638e-07
8.38584e-06
-1.51547e-07
9.91862e-08
6.07588e-06
-2.37047e-07
7.19088e-08
4.98622e-06
-2.46449e-07
2.76876e-07
7.66545e-06
-1.01307e-07
2.34394e-07
6.8962e-06
1.77909e-07
5.43358e-06
-7.90308e-09
-4.05374e-07
1.30732e-07
5.07225e-06
2.13518e-07
-5.48327e-07
1.81598e-07
9.53548e-06
-2.99714e-07
1.3319e-07
8.83859e-06
-3.64033e-07
2.02794e-07
4.99027e-06
-3.57276e-07
1.83377e-07
7.80899e-06
-1.39551e-07
2.23863e-07
7.1993e-06
1.93645e-07
5.66772e-06
-1.42977e-08
-2.42123e-07
7.54763e-08
4.69618e-06
1.68472e-07
-2.22325e-07
8.03902e-08
4.86145e-06
-6.68744e-08
7.06678e-08
4.47023e-06
-2.04019e-07
1.48488e-07
4.72727e-06
-2.22383e-07
2.34786e-07
7.5871e-06
-7.44485e-08
2.59713e-07
7.12745e-06
2.19921e-07
5.6431e-06
2.23987e-08
-1.5434e-07
5.13941e-06
2.30542e-07
2.14488e-07
-1.61182e-07
4.33082e-06
1.3308e-07
-1.39393e-07
4.42372e-06
1.43652e-07
-2.00381e-07
6.44985e-06
2.81003e-07
-1.24177e-07
7.71771e-06
3.14498e-07
-1.75369e-08
6.7118e-06
2.95126e-07
5.36865e-06
6.32396e-08
2.30457e-07
-2.65264e-07
-1.89475e-07
7.03036e-06
3.20715e-07
2.07815e-07
-2.31003e-07
-9.6626e-08
7.10047e-06
1.63834e-07
-1.56051e-07
-1.24012e-07
6.80096e-06
1.647e-07
-6.739e-08
-1.27544e-07
6.19683e-06
1.4986e-07
1.01875e-09
-8.83645e-08
5.39049e-06
1.12823e-07
4.69221e-08
-5.68526e-08
4.5015e-06
7.83794e-08
-3.20211e-08
3.6053e-06
7.2192e-08
4.66326e-08
-2.57072e-07
-1.10887e-07
7.73034e-06
3.9467e-07
-2.46711e-07
6.21529e-08
7.78284e-06
-1.82425e-07
-4.10623e-09
7.42632e-06
-6.80941e-08
-7.49492e-08
7.33088e-06
1.44199e-08
-3.15959e-08
6.46939e-06
6.5725e-08
-7.86172e-09
5.35438e-06
6.40233e-09
4.28663e-06
9.01742e-08
-1.20902e-07
-1.73978e-09
4.90246e-06
3.40073e-07
-1.1044e-07
7.20779e-08
4.52438e-06
-9.94383e-08
5.74851e-08
4.49933e-06
-3.19634e-08
1.74078e-08
6.86848e-06
5.17524e-08
6.7343e-08
7.29688e-06
9.77817e-08
7.52891e-08
6.14441e-06
6.7835e-08
4.88959e-06
1.17475e-07
-6.76947e-08
-3.88996e-08
4.45264e-06
1.5177e-07
-1.35616e-07
2.65941e-09
5.1806e-06
-6.29827e-08
5.05006e-08
4.36905e-06
-3.69237e-08
2.075e-08
5.00702e-06
5.63882e-08
1.64087e-07
7.4718e-06
1.13024e-07
1.65771e-07
6.74912e-06
1.35513e-07
5.34236e-06
1.36723e-07
-2.2374e-07
9.61946e-08
4.89492e-06
1.68069e-07
-2.52907e-07
-3.41416e-08
9.75466e-06
-2.4064e-07
-8.14143e-08
8.79511e-06
-1.94602e-07
7.18989e-08
4.90106e-06
-9.63355e-09
1.48949e-07
7.62684e-06
9.70126e-08
2.06824e-07
7.05169e-06
1.81559e-07
5.57754e-06
1.41187e-07
-1.84668e-07
1.14043e-07
4.54457e-06
2.14684e-07
-8.4172e-08
2.64079e-08
4.69428e-06
-8.32229e-08
2.36231e-08
4.37918e-06
1.6871e-08
2.04918e-07
4.80844e-06
1.05951e-07
2.94366e-07
7.51473e-06
1.44713e-07
2.98145e-07
6.99734e-06
2.37977e-07
5.5671e-06
1.64293e-07
-1.54535e-07
5.41006e-06
3.78413e-07
4.38278e-07
-5.40719e-08
4.53409e-06
3.60278e-07
-3.07857e-08
4.71649e-06
3.42902e-07
5.62542e-08
6.66365e-06
5.03407e-07
1.1993e-07
7.58166e-06
4.37461e-07
1.5086e-07
6.61983e-06
3.59166e-07
5.31794e-06
1.75949e-07
2.63651e-07
-2.83636e-07
-2.39876e-07
6.97496e-06
3.42071e-07
2.36864e-07
-2.06565e-07
-2.2439e-07
7.01926e-06
2.28668e-07
-1.11704e-07
-2.21616e-07
6.70637e-06
2.21517e-07
-2.5387e-08
-1.80262e-07
6.10471e-06
1.86219e-07
3.51653e-08
-1.23094e-07
5.31448e-06
1.38771e-07
7.30007e-08
-8.19935e-08
4.44697e-06
9.87724e-08
-5.26449e-08
3.57388e-06
9.21949e-08
6.48957e-08
-3.01743e-07
-1.86608e-07
7.83169e-06
4.33771e-07
-2.08366e-07
-1.01164e-07
7.88881e-06
-1.10114e-07
-1.25106e-07
7.46928e-06
-6.09772e-09
-1.41827e-07
7.23843e-06
6.06264e-08
-7.68031e-08
6.35861e-06
9.78089e-08
-3.75117e-08
5.27328e-06
-1.66179e-08
4.23519e-06
1.1345e-07
-1.47411e-07
-4.38918e-08
5.86484e-06
4.39688e-07
-7.41264e-08
1.27766e-08
4.43977e-06
-3.48495e-08
1.19572e-08
5.06026e-06
6.47605e-08
-1.60896e-08
7.24471e-06
1.16845e-07
2.54885e-08
7.21387e-06
1.39098e-07
4.60391e-08
6.03865e-06
4.60566e-08
4.82126e-06
1.45091e-07
-1.06278e-07
-2.2443e-08
4.27937e-06
2.26203e-07
-2.85653e-08
4.56532e-08
4.77838e-06
-3.15846e-08
6.32999e-08
4.29672e-06
8.73781e-08
6.1011e-08
5.71836e-06
1.5813e-07
1.50671e-07
7.51914e-06
1.70338e-07
1.54865e-07
6.62826e-06
1.23479e-07
5.26485e-06
1.70657e-07
2.29727e-08
5.89191e-08
4.72119e-06
1.48019e-07
-7.57599e-08
-2.71126e-08
1.01111e-05
-8.30271e-08
-4.42012e-09
5.07562e-06
-7.73544e-09
8.67576e-08
5.27763e-06
1.21652e-07
2.1736e-07
7.77557e-06
1.62831e-07
2.33634e-07
6.93201e-06
1.86382e-07
5.50151e-06
1.76178e-07
-7.60835e-08
2.38526e-07
4.92021e-06
4.08177e-07
-1.50055e-08
3.7136e-08
4.57885e-06
-3.43425e-08
1.36984e-07
4.27859e-06
8.31589e-08
3.0613e-07
6.03629e-06
1.52973e-07
3.42336e-07
7.63683e-06
1.70402e-07
3.20556e-07
6.89315e-06
2.42372e-07
5.5016e-06
1.80002e-07
-1.40976e-07
6.7673e-06
4.05347e-07
4.8935e-07
-7.78828e-08
6.04181e-06
4.45877e-07
-2.97282e-08
5.8689e-06
4.82673e-07
5.6528e-08
7.21759e-06
5.36027e-07
1.13262e-07
7.55231e-06
4.42155e-07
1.48407e-07
6.5461e-06
3.59253e-07
5.27285e-06
1.79385e-07
2.56597e-07
-2.84831e-07
-9.03343e-08
6.90607e-06
3.03853e-07
1.40238e-07
-2.20276e-07
-1.11994e-07
6.92509e-06
1.41943e-07
-1.31926e-07
-1.26008e-07
6.59968e-06
1.44572e-07
-5.42356e-08
-9.62218e-08
6.00085e-06
1.22475e-07
6.4774e-09
-7.02434e-08
5.22749e-06
9.66584e-08
4.91275e-08
-5.24552e-08
4.38301e-06
7.38204e-08
-3.88539e-08
3.53519e-06
7.44072e-08
5.24565e-08
-3.40256e-07
-2.86675e-08
7.75606e-06
3.88401e-07
-2.51562e-07
-4.00496e-08
7.83079e-06
-1.53675e-07
-7.19052e-08
7.3531e-06
-6.28278e-08
-4.78533e-08
7.09989e-06
9.25486e-09
-2.10498e-08
6.23761e-06
5.81124e-08
-9.98106e-09
5.18204e-06
-5.88971e-09
4.1748e-06
8.56648e-08
-2.21321e-07
1.04236e-08
6.04626e-06
4.22148e-07
-1.14369e-07
4.69939e-08
4.71888e-06
-7.30187e-08
-1.83312e-09
5.27995e-06
-2.41738e-08
2.57792e-08
7.14814e-06
3.78294e-08
6.45583e-08
7.07134e-06
8.13413e-08
6.22533e-08
5.92299e-06
4.84464e-08
4.74257e-06
1.05897e-07
-1.44149e-07
5.97226e-08
4.87877e-06
4.46615e-07
-1.21691e-07
4.95808e-08
4.73376e-06
-2.87499e-08
4.85724e-08
4.16225e-06
2.07545e-08
9.66279e-08
5.82428e-06
7.13401e-08
1.77398e-07
7.39135e-06
1.03355e-07
1.60283e-07
6.49851e-06
1.17095e-07
5.17567e-06
1.24013e-07
-2.83383e-07
2.08345e-07
7.00708e-06
5.72725e-07
-1.64867e-07
1.66091e-07
4.99367e-06
-6.40694e-08
1.78037e-07
4.86676e-06
-2.08951e-08
1.81728e-07
5.24186e-06
4.678e-08
2.6319e-07
7.66464e-06
9.56165e-08
2.3896e-07
6.80472e-06
1.75071e-07
5.4128e-06
1.26591e-07
-1.67585e-07
3.28742e-07
7.38689e-06
6.04997e-07
-9.18919e-08
1.98072e-07
4.49326e-06
-5.20292e-08
2.48174e-07
4.194e-06
-3.23601e-08
3.50424e-07
6.2487e-06
2.46725e-08
3.25435e-07
7.51789e-06
8.25234e-08
2.93545e-07
6.7809e-06
2.13617e-07
5.42251e-06
1.23279e-07
-2.40968e-07
6.79829e-06
3.52778e-07
3.30143e-07
-1.58241e-07
6.31535e-06
4.20033e-07
-1.12215e-07
5.7548e-06
4.16028e-07
-9.32916e-08
7.09863e-06
3.92629e-07
-1.4177e-08
7.45251e-06
3.55699e-07
6.55747e-08
6.459e-06
3.01106e-07
5.21222e-06
1.28635e-07
2.11382e-07
-2.53808e-07
2.17321e-08
6.82214e-06
2.44159e-07
7.18965e-08
-2.13238e-07
2.63407e-09
6.81991e-06
6.24542e-08
-1.47931e-07
-1.60832e-08
6.4835e-06
6.70274e-08
-8.02805e-08
-1.96574e-08
5.88897e-06
6.39989e-08
-1.94643e-08
-2.4316e-08
5.13239e-06
5.86479e-08
2.75447e-08
-2.71662e-08
4.31222e-06
5.11696e-08
-2.67492e-08
3.49202e-06
5.73927e-08
4.04393e-08
-3.3335e-07
9.09915e-08
7.56704e-06
3.17019e-07
-2.74064e-07
4.304e-08
7.69589e-06
-2.0106e-07
2.64081e-08
7.18643e-06
-1.17665e-07
3.21802e-08
6.951e-06
-3.73761e-08
2.54162e-08
6.10772e-06
2.28256e-08
1.21238e-08
5.08243e-06
2.20749e-09
4.10866e-06
6.0207e-08
-2.86925e-07
7.08852e-08
5.6648e-06
3.36711e-07
-1.49881e-07
4.0144e-08
4.66417e-06
-1.30674e-07
1.23918e-08
5.11231e-06
-1.06582e-07
6.2105e-08
6.93786e-06
-3.67211e-08
9.57464e-08
6.91171e-06
2.87336e-08
7.11478e-08
5.79872e-06
4.61452e-08
4.65738e-06
7.0007e-08
-3.24289e-07
2.13494e-07
4.82631e-06
4.59562e-07
-1.88101e-07
9.43892e-08
4.50514e-06
-3.70257e-08
7.06157e-08
5.38572e-06
-6.98636e-08
1.13459e-07
5.62943e-06
-2.76997e-08
1.81239e-07
7.22203e-06
3.65136e-08
1.45941e-07
6.35973e-06
9.94402e-08
5.0793e-06
7.96824e-08
-7.12829e-07
3.00914e-07
6.51887e-06
6.23909e-07
-2.98135e-07
2.95941e-07
7.42865e-06
-3.4715e-08
2.39172e-07
6.74763e-06
-9.8526e-08
2.09698e-07
5.10955e-06
-5.31913e-08
2.35769e-07
7.49917e-06
2.73738e-08
2.03839e-07
6.66629e-06
1.43014e-07
5.31556e-06
8.11868e-08
-3.61572e-07
2.37026e-07
7.1347e-06
5.40067e-07
-2.0928e-07
2.10637e-07
4.45174e-06
-1.10566e-07
2.39402e-07
4.12398e-06
-1.22166e-07
2.6307e-07
5.86392e-06
-7.61913e-08
2.58393e-07
7.31488e-06
1.87391e-08
2.35032e-07
6.65495e-06
1.6813e-07
5.33401e-06
8.23506e-08
-2.97465e-07
5.77973e-06
2.66304e-07
1.5706e-07
-2.20573e-07
5.68336e-06
2.55913e-07
-1.63364e-07
4.97144e-06
2.58712e-07
-1.75489e-07
6.55618e-06
2.53497e-07
-8.61262e-08
7.27511e-06
2.59822e-07
1.98929e-08
6.35499e-06
2.33227e-07
5.14121e-06
9.78912e-08
1.61321e-07
-1.89875e-07
-1.06968e-08
6.73761e-06
1.93614e-07
9.15398e-08
-1.69315e-07
2.25391e-08
6.71683e-06
6.0089e-08
-1.24328e-07
9.35996e-09
6.37197e-06
5.71679e-08
-6.73131e-08
-8.06537e-09
5.7824e-06
5.77059e-08
-1.12345e-08
-2.19521e-08
5.04188e-06
5.63977e-08
3.28155e-08
-3.00085e-08
4.2461e-06
5.21629e-08
-3.2481e-08
3.45315e-06
6.01231e-08
4.40757e-08
-2.37044e-07
5.50154e-08
7.3092e-06
2.46028e-07
-2.25805e-07
8.05774e-08
7.41957e-06
-1.85403e-07
6.00415e-08
6.96275e-06
-1.12861e-07
4.85388e-08
6.79664e-06
-3.4407e-08
2.60237e-08
5.98115e-06
2.56855e-08
5.18074e-09
4.98711e-06
-7.31157e-09
4.04746e-06
6.18337e-08
-2.1807e-07
3.88194e-08
4.73602e-06
2.21054e-07
-1.12753e-07
2.10986e-08
4.36973e-06
-1.35652e-07
5.06215e-08
4.72062e-06
-1.22255e-07
6.76037e-08
6.6861e-06
-4.40075e-08
8.2517e-08
6.74008e-06
2.71173e-08
5.42017e-08
5.67857e-06
2.97505e-08
4.57762e-06
6.97429e-08
-1.92664e-07
1.52284e-07
3.9103e-06
2.29902e-07
-8.06489e-08
1.91705e-07
6.42229e-06
-6.79695e-08
5.61723e-08
4.49985e-06
-1.0026e-07
7.09894e-08
5.25152e-06
-5.0291e-08
1.40671e-07
7.00664e-06
2.92376e-08
1.09586e-07
6.22478e-06
7.20136e-08
4.98865e-06
7.76544e-08
-3.04909e-07
1.96277e-07
4.52774e-06
2.91829e-07
-2.77543e-07
1.45727e-07
7.70678e-06
-9.41419e-08
1.26596e-07
7.01172e-06
-1.39373e-07
1.28975e-07
4.98473e-06
-7.73192e-08
1.50209e-07
7.25398e-06
2.30962e-08
1.4634e-07
6.5291e-06
1.05604e-07
5.22335e-06
8.17218e-08
-3.99837e-07
1.29882e-07
4.28976e-06
2.87654e-07
-1.76397e-07
1.42078e-07
4.53373e-06
-6.85664e-08
1.10312e-07
4.06619e-06
-1.13083e-07
1.30782e-07
5.07067e-06
-6.45349e-08
1.76747e-07
7.09787e-06
3.0651e-08
1.77408e-07
6.52875e-06
1.29979e-07
5.25012e-06
9.0281e-08
-1.75028e-07
4.79855e-06
1.94881e-07
1.35695e-07
-1.39612e-07
4.24986e-06
1.51748e-07
-1.13569e-07
4.4208e-06
1.385e-07
-1.29752e-07
6.29676e-06
1.86651e-07
-4.92662e-08
7.08989e-06
2.03904e-07
4.24281e-08
6.25104e-06
1.89733e-07
5.07432e-06
1.08798e-07
1.30594e-07
-1.50563e-07
-1.19824e-07
6.66846e-06
1.82672e-07
1.56866e-07
-1.2153e-07
-6.70011e-08
6.62969e-06
1.2505e-07
-7.618e-08
-6.56083e-08
6.27872e-06
1.13529e-07
-2.37276e-08
-6.62283e-08
5.69463e-06
1.01549e-07
2.47151e-08
-6.36099e-08
4.96904e-06
8.79867e-08
5.97631e-08
-5.91093e-08
4.19522e-06
7.49117e-08
-5.3587e-08
3.42584e-06
7.89535e-08
6.15689e-08
-1.58215e-07
-5.50491e-08
7.1856e-06
2.24877e-07
-1.51413e-07
2.95531e-08
7.19807e-06
-1.17269e-07
1.34956e-08
6.80196e-06
-4.90808e-08
-1.33617e-08
6.6698e-06
1.64782e-08
-2.29248e-08
5.87484e-06
6.27361e-08
-2.84333e-08
4.91039e-06
-3.11033e-08
4.00056e-06
8.72439e-08
-8.58541e-08
-3.63059e-09
4.56022e-06
1.84891e-07
-6.3695e-08
2.74912e-08
3.83229e-06
-8.4132e-08
3.03161e-08
4.58125e-06
-4.9146e-08
3.24193e-08
6.53985e-06
2.26285e-08
3.36022e-08
6.6012e-06
7.51775e-08
1.85439e-08
5.57912e-06
5.20779e-09
4.51438e-06
1.02189e-07
-3.5356e-08
-1.48695e-08
3.90047e-06
1.14283e-07
-7.95272e-08
-1.64663e-09
5.72528e-06
-4.32813e-08
4.22305e-08
4.06168e-06
-4.58627e-08
2.95955e-08
5.09884e-06
2.78027e-08
8.27714e-08
6.84369e-06
8.62842e-08
7.32212e-08
6.11157e-06
4.83585e-08
4.9157e-06
1.16151e-07
-1.28016e-07
9.74945e-08
4.54774e-06
8.5959e-08
-1.5779e-07
2.61984e-08
7.97234e-06
-6.82219e-08
-1.37422e-08
7.24607e-06
-6.73257e-08
5.29174e-08
4.79831e-06
1.58227e-08
1.07276e-07
7.08e-06
8.71612e-08
1.17625e-07
6.41339e-06
8.63319e-08
5.14888e-06
1.23679e-07
-1.5963e-07
9.15317e-08
4.056e-06
1.71409e-07
-6.09438e-08
2.55001e-08
4.42851e-06
-3.07459e-08
2.40081e-08
4.01238e-06
-3.62711e-08
9.27719e-08
4.92186e-06
3.40625e-08
1.57474e-07
6.96312e-06
9.51184e-08
1.62455e-07
6.42288e-06
1.18289e-07
5.18276e-06
1.30559e-07
-6.75107e-08
4.79749e-06
1.87866e-07
2.1813e-07
-4.30952e-08
4.21556e-06
1.77925e-07
-4.68182e-08
4.41639e-06
1.56513e-07
-3.57139e-08
6.21443e-06
2.16268e-07
3.50074e-08
6.97359e-06
2.11278e-07
9.59168e-08
6.16592e-06
1.86725e-07
5.02184e-06
1.40493e-07
1.26285e-07
-1.5583e-07
-1.79385e-07
6.6164e-06
1.956e-07
1.91646e-07
-1.03244e-07
-1.661e-07
6.56216e-06
1.80887e-07
-4.16306e-08
-1.59083e-07
6.20689e-06
1.69331e-07
1.24299e-08
-1.30792e-07
5.62781e-06
1.43574e-07
5.41205e-08
-1.04863e-07
4.91529e-06
1.17076e-07
8.09726e-08
-8.59259e-08
4.15934e-06
9.49262e-08
-7.15845e-08
3.40931e-06
9.29877e-08
7.60294e-08
-1.773e-07
-1.19301e-07
7.11397e-06
2.49995e-07
-1.20334e-07
-6.86768e-08
7.10238e-06
-5.69978e-08
-9.69546e-08
6.70759e-06
1.25757e-08
-1.00998e-07
6.57782e-06
6.35202e-08
-7.46298e-08
5.79386e-06
9.48118e-08
-5.97133e-08
4.85343e-06
-5.16638e-08
3.96762e-06
1.08007e-07
-9.53497e-08
-5.15482e-08
4.59898e-06
2.39999e-07
-4.63082e-08
-3.04157e-09
3.71602e-06
-1.74238e-08
-2.05728e-08
4.58059e-06
4.7747e-08
-2.47342e-08
6.47535e-06
9.36045e-08
-1.08641e-08
6.5016e-06
1.20512e-07
-1.08229e-08
5.50328e-06
-1.47291e-08
4.46765e-06
1.30488e-07
-9.42864e-08
-6.04783e-08
3.87819e-06
1.75485e-07
-2.57541e-08
-3.81235e-08
4.31422e-06
-3.24234e-09
6.47116e-09
3.79865e-06
6.20118e-08
3.08559e-08
5.03859e-06
1.22445e-07
6.03057e-08
6.73195e-06
1.44555e-07
5.55287e-08
6.02318e-06
3.41863e-08
4.86021e-06
1.51193e-07
-8.29863e-09
3.84162e-08
4.54781e-06
1.09691e-07
-5.82178e-08
1.49641e-08
5.90944e-06
-1.84581e-08
5.08935e-08
4.33037e-06
3.29152e-08
5.49581e-08
4.58541e-06
1.18894e-07
1.18805e-07
6.9648e-06
1.49167e-07
1.16933e-07
6.32183e-06
8.00906e-08
5.0916e-06
1.60583e-07
-7.93813e-08
1.23748e-07
4.32391e-06
2.26786e-07
-6.44635e-09
7.68036e-08
4.30063e-06
3.05543e-09
1.2298e-07
3.95072e-06
5.63752e-08
1.59584e-07
4.93871e-06
1.20632e-07
1.86985e-07
6.8906e-06
1.47963e-07
1.72594e-07
6.33994e-06
1.17965e-07
5.13109e-06
1.61745e-07
-5.38603e-08
5.19508e-06
2.07737e-07
2.37571e-07
-3.48748e-08
4.54855e-06
2.38584e-07
-1.34608e-08
4.4923e-06
2.43971e-07
3.12431e-08
6.25956e-06
2.83789e-07
9.01652e-08
6.89116e-06
2.42176e-07
1.31177e-07
6.1005e-06
1.97002e-07
4.98226e-06
1.61096e-07
1.27653e-07
-1.58482e-07
-1.37202e-07
6.56607e-06
1.85e-07
1.6097e-07
-1.04902e-07
-1.47968e-07
6.49795e-06
1.58484e-07
-4.30675e-08
-1.44251e-07
6.13875e-06
1.50508e-07
9.59666e-09
-1.2061e-07
5.56543e-06
1.3031e-07
4.89359e-08
-9.84432e-08
4.86608e-06
1.08378e-07
7.43334e-08
-8.24562e-08
4.12685e-06
8.96051e-08
-7.02167e-08
3.39496e-06
8.58335e-08
7.3314e-08
-2.02774e-07
-7.40197e-08
7.05662e-06
2.48221e-07
-1.31686e-07
-7.56375e-08
7.07778e-06
-6.18607e-08
-9.54923e-08
6.65934e-06
9.14515e-09
-1.00396e-07
6.50218e-06
5.77197e-08
-7.33426e-08
5.72042e-06
8.72564e-08
-6.01323e-08
4.80164e-06
-5.33638e-08
3.93802e-06
1.00113e-07
-1.45862e-07
-8.18649e-09
4.62653e-06
2.65921e-07
-5.4233e-08
-2.30641e-08
3.7517e-06
-1.35506e-08
-5.02255e-08
4.80415e-06
4.97172e-08
-3.00802e-08
6.50084e-06
8.77542e-08
-1.20346e-08
6.423e-06
1.11882e-07
-1.51452e-08
5.43425e-06
-2.04058e-08
4.42511e-06
1.21569e-07
-2.02235e-07
3.486e-08
3.83517e-06
2.56846e-07
-8.81931e-08
4.11505e-08
4.18385e-06
1.18958e-08
4.08513e-08
4.91422e-06
6.948e-08
3.86849e-08
5.22551e-06
1.18569e-07
6.1937e-08
6.66812e-06
1.35601e-07
4.89184e-08
5.94224e-06
2.48988e-08
4.8091e-06
1.41459e-07
-3.41755e-07
7.98285e-08
6.19646e-06
4.83978e-07
-1.33255e-07
1.24921e-07
6.70287e-06
-2.48389e-08
1.30996e-07
4.15694e-06
4.5849e-08
8.70179e-08
4.54875e-06
1.17243e-07
1.24995e-07
6.95534e-06
1.40667e-07
1.08933e-07
6.23845e-06
6.82963e-08
5.03854e-06
1.50398e-07
-1.46264e-07
1.48758e-07
5.40628e-06
3.9975e-07
-4.78207e-08
1.5601e-07
4.24463e-06
-6.81081e-10
1.87264e-07
3.87517e-06
5.72135e-08
1.98974e-07
5.15855e-06
1.11422e-07
1.87552e-07
6.84479e-06
1.36902e-07
1.59423e-07
6.264e-06
1.02709e-07
5.08286e-06
1.50704e-07
-1.25507e-07
5.23258e-06
2.36437e-07
1.86042e-07
-7.2695e-08
4.49667e-06
2.55623e-07
-2.9673e-08
4.43994e-06
2.61773e-07
1.20074e-08
6.2059e-06
2.75757e-07
7.63353e-08
6.83043e-06
2.25434e-07
1.19175e-07
6.03973e-06
1.77363e-07
4.94476e-06
1.49598e-07
1.09757e-07
-1.28834e-07
-6.3506e-08
6.50771e-06
1.41305e-07
1.09388e-07
-1.00633e-07
-5.02642e-08
6.42713e-06
9.29724e-08
-5.85008e-08
-5.79733e-08
6.06484e-06
8.97269e-08
-1.07612e-08
-6.76579e-08
5.49845e-06
8.6899e-08
2.84029e-08
-6.55273e-08
4.81348e-06
7.88949e-08
5.53457e-08
-6.20219e-08
4.09196e-06
7.01499e-08
-5.8154e-08
3.37857e-06
6.90302e-08
6.10119e-08
-1.7336e-07
2.58673e-09
6.98299e-06
1.96286e-07
-1.46227e-07
1.61479e-08
7.03179e-06
-9.87709e-08
-5.58019e-09
6.60587e-06
-2.74705e-08
-4.5919e-08
6.42014e-06
2.55128e-08
-4.17072e-08
5.64355e-06
6.02046e-08
-4.27077e-08
4.7474e-06
-4.44011e-08
3.90648e-06
7.80169e-08
-1.54911e-07
4.90222e-08
4.55921e-06
2.10831e-07
-6.83942e-08
1.46305e-08
4.03457e-06
-5.68499e-08
1.09178e-08
4.82907e-06
-8.55648e-09
-6.44051e-09
6.45554e-06
4.09841e-08
7.68812e-09
6.34125e-06
7.51227e-08
-5.44482e-09
5.36288e-06
-1.80061e-08
4.38061e-06
9.32232e-08
-1.62233e-07
1.25067e-07
3.77695e-06
2.01829e-07
-5.48101e-08
1.68868e-07
5.14696e-06
-2.05215e-08
4.45672e-08
5.23797e-06
5.6399e-09
3.53699e-08
5.3415e-06
5.49173e-08
7.06813e-08
6.59434e-06
8.88938e-08
4.37301e-08
5.85918e-06
1.69525e-08
4.75581e-06
1.07307e-07
-3.35198e-07
1.62698e-07
4.27599e-06
3.38615e-07
-2.17616e-07
1.69913e-07
7.26941e-06
-4.23132e-08
1.19751e-07
6.08701e-06
-3.54324e-08
1.00031e-07
4.76505e-06
4.0659e-08
9.50146e-08
6.91361e-06
8.89443e-08
8.15929e-08
6.15233e-06
4.79348e-08
4.98286e-06
1.13673e-07
-2.60804e-07
8.8455e-08
5.55384e-06
3.98892e-07
-1.26121e-07
1.28178e-07
4.20487e-06
-4.10605e-08
1.30793e-07
3.80197e-06
-1.37088e-08
1.46721e-07
5.22285e-06
4.61279e-08
1.3645e-07
6.776e-06
9.0973e-08
1.16651e-07
6.1841e-06
7.29271e-08
5.03158e-06
1.17282e-07
-1.70952e-07
4.83164e-06
2.16807e-07
1.05283e-07
-9.6097e-08
4.02431e-06
1.66797e-07
-6.07422e-08
4.30905e-06
1.69006e-07
-3.49012e-08
6.1222e-06
1.87241e-07
3.35798e-08
6.75924e-06
1.6079e-07
8.56355e-08
5.97392e-06
1.30407e-07
4.90389e-06
1.22094e-07
7.73831e-08
-8.94971e-08
-6.38343e-08
6.45224e-06
1.05271e-07
1.03563e-07
-7.76581e-08
-2.048e-08
6.36e-06
7.59033e-08
-4.72683e-08
-3.39116e-08
5.99546e-06
7.29844e-08
-7.40669e-09
-4.99302e-08
5.43629e-06
7.22732e-08
2.70591e-08
-5.37583e-08
4.76557e-06
6.72474e-08
5.08965e-08
-5.46239e-08
4.06103e-06
6.17153e-08
-5.40136e-08
3.36476e-06
6.29117e-08
5.57307e-08
-1.11816e-07
-5.83316e-09
6.90484e-06
1.43916e-07
-1.20774e-07
5.25925e-08
6.94253e-06
-8.94562e-08
1.96939e-08
6.53001e-06
-2.88062e-08
-2.01747e-08
6.33844e-06
2.07365e-08
-3.09992e-08
5.57118e-06
5.35285e-08
-3.83098e-08
4.69818e-06
-4.28668e-08
3.87868e-06
7.01711e-08
-1.0334e-07
1.35159e-08
4.45088e-06
1.39321e-07
-5.2039e-08
3.77946e-08
4.08654e-06
-6.77061e-08
3.81604e-08
4.75619e-06
-2.64585e-08
1.44602e-08
6.3695e-06
2.81474e-08
8.61545e-09
6.2596e-06
6.47012e-08
-9.08534e-09
5.29712e-06
-2.14637e-08
4.34082e-06
8.30673e-08
-8.81709e-08
6.47753e-08
3.73169e-06
1.41893e-07
-3.28042e-08
1.02095e-07
6.16349e-06
-5.02283e-08
1.97352e-08
3.48182e-06
-2.97105e-08
1.84935e-08
5.27226e-06
3.32688e-08
4.39994e-08
6.50911e-06
7.48916e-08
2.65984e-08
5.78187e-06
6.02359e-09
4.70789e-06
9.5388e-08
-2.03535e-07
1.24623e-07
4.10893e-06
1.9607e-07
-1.20594e-07
8.53525e-08
7.24065e-06
-7.23841e-08
-1.01682e-09
6.11272e-06
-4.9793e-08
4.62993e-08
5.11394e-06
2.47963e-08
5.75872e-08
6.82554e-06
7.68805e-08
5.44141e-08
6.07245e-06
3.0707e-08
4.93284e-06
1.02277e-07
-2.18187e-07
6.13672e-08
3.98883e-06
2.47321e-07
-7.97874e-08
5.49951e-08
4.1351e-06
-3.22098e-08
2.5252e-08
3.73497e-06
-2.80617e-08
6.18252e-08
5.15495e-06
3.66556e-08
8.64102e-08
6.70013e-06
8.21589e-08
8.31927e-08
6.10986e-06
5.18223e-08
4.98542e-06
1.07361e-07
-1.04306e-07
4.50245e-06
1.68675e-07
1.0695e-07
-5.1853e-08
3.8259e-06
1.09796e-07
-4.65752e-08
4.26109e-06
9.0499e-08
-2.7228e-08
6.03264e-06
1.20366e-07
3.53294e-08
6.68689e-06
1.1546e-07
8.09005e-08
5.91293e-06
9.87027e-08
4.86713e-06
1.12734e-07
5.69062e-08
-7.45054e-08
-1.29696e-07
6.418e-06
1.03476e-07
1.34987e-07
-5.00018e-08
-9.58803e-08
6.31666e-06
1.14764e-07
-1.32622e-08
-9.79595e-08
5.95064e-06
1.06191e-07
1.85531e-08
-8.11804e-08
5.39592e-06
8.98588e-08
4.30532e-08
-6.90254e-08
4.7349e-06
7.53244e-08
5.8808e-08
-6.20127e-08
4.04228e-06
6.50277e-08
-5.76686e-08
3.35869e-06
6.52105e-08
5.72826e-08
-8.92044e-08
-8.90163e-08
6.87888e-06
1.41609e-07
-7.29928e-08
-2.31493e-08
6.87605e-06
-2.78386e-08
-6.15538e-08
6.49753e-06
1.62567e-08
-6.10612e-08
6.28898e-06
4.79354e-08
-5.23385e-08
5.52293e-06
6.73003e-08
-4.88541e-08
4.66586e-06
-4.84078e-08
3.86171e-06
7.51653e-08
-6.11259e-08
-2.66374e-08
4.44693e-06
1.3349e-07
-2.76988e-08
9.40392e-09
4.02634e-06
-1.06122e-08
-3.50849e-09
4.72732e-06
3.76942e-08
-1.15037e-08
6.33651e-06
6.75141e-08
-1.35913e-08
6.21095e-06
8.48289e-08
-2.1566e-08
5.25259e-06
-2.83478e-08
4.31461e-06
9.10851e-08
-1.80444e-08
-2.83864e-08
3.67554e-06
1.01027e-07
-1.75345e-08
-5.65066e-08
4.55544e-06
-1.16869e-08
-3.77904e-08
3.64049e-06
3.75454e-08
1.65171e-08
5.22201e-06
8.36402e-08
2.57032e-08
6.4657e-06
1.00437e-07
1.49828e-08
5.72852e-06
-1.32245e-09
4.67536e-06
1.05952e-07
-6.14552e-08
4.16567e-08
4.15106e-06
5.93981e-08
-3.55359e-08
1.44648e-09
7.19451e-06
-3.31973e-08
-1.75871e-08
4.46622e-06
-3.67613e-09
2.0276e-09
5.17625e-06
7.37577e-08
3.53877e-08
6.77481e-06
1.02641e-07
4.19576e-08
6.01668e-06
2.3127e-08
4.89834e-06
1.12797e-07
-9.67358e-08
6.64533e-08
3.97245e-06
1.56445e-07
-6.71341e-09