/*--------------------------------*- C++ -*----------------------------------*\
| =========                 |                                                 |
| \\      /  F ield         | OpenFOAM: The Open Source CFD Toolbox           |
|  \\    /   O peration     | Version:  plus.master.MPPICInterFoam            |
|   \\  /    A nd           | Web:      www.OpenFOAM.com                      |
|    \\/     M anipulation  |                                                 |
\*---------------------------------------------------------------------------*/
FoamFile
{
    version     2.0;
    format      ascii;
    class       volScalarField;
    location    "13.2";
    object      k;
}
// * * * * * * * * * * * * * * * * * * * * * * * * * * * * * * * * * * * * * //

dimensions      [0 2 -2 0 0 0 0];

internalField   nonuniform List<scalar> 
11821
(
0.0506462
0.0604166
0.0485514
0.0645562
0.0539859
0.0441159
0.054456
0.058621
0.0590482
0.0560674
0.0510551
0.0451012
0.0387776
0.0675934
0.0744348
0.0746418
0.0688666
0.0608374
0.0524643
0.0444127
0.0807621
0.0879884
0.0893305
0.0829988
0.0707324
0.0591842
0.0490849
0.0832166
0.0828964
0.0890428
0.0926826
0.0787938
0.0639831
0.0520877
0.0805353
0.0683732
0.0776235
0.0934137
0.0808002
0.0650555
0.05264
0.0822127
0.0805785
0.0842477
0.0872721
0.0754896
0.0618981
0.0505362
0.0756134
0.0833858
0.0835162
0.0764787
0.0661467
0.0557575
0.0461675
0.05577
0.0597495
0.0602386
0.0575889
0.0528994
0.0470932
0.0407504
0.0683049
0.0746357
0.0749057
0.0697157
0.062354
0.0543741
0.046418
0.0809207
0.0909525
0.0919216
0.0831453
0.0716562
0.0608356
0.051027
0.0894284
0.0861542
0.0911672
0.0947287
0.0791209
0.0653264
0.0539264
0.0896376
0.0767529
0.0862015
0.0963464
0.0811545
0.0663972
0.0544642
0.085923
0.0878433
0.0898165
0.0886412
0.0764202
0.0634835
0.0524067
0.0761346
0.0828716
0.083486
0.0775222
0.0676816
0.0575861
0.0480468
0.0574288
0.0613396
0.0618466
0.0593483
0.0547494
0.0489294
0.0424987
0.0699548
0.0754722
0.0756604
0.0710935
0.0641233
0.0562442
0.0482328
0.0814169
0.085359
0.0874121
0.0829616
0.0730397
0.062636
0.0528545
0.0840413
0.0797777
0.0861774
0.090145
0.0797565
0.0669729
0.0557255
0.0842025
0.0789808
0.0802888
0.0891595
0.0818018
0.0680469
0.0562478
0.08331
0.0830602
0.0854759
0.0886576
0.0779185
0.065353
0.0541905
0.0757323
0.0804566
0.0826807
0.0784183
0.0696161
0.0594498
0.0497538
0.0590627
0.063104
0.0636703
0.0611953
0.0565552
0.050632
0.0440654
0.0713016
0.0765897
0.0769839
0.0727781
0.065986
0.0580426
0.049892
0.0779004
0.0816483
0.0850946
0.0832303
0.0746781
0.0644686
0.0545686
0.0762859
0.0829791
0.0869317
0.0872263
0.0808865
0.0687667
0.0574464
0.0706391
0.0770019
0.0827594
0.087148
0.0822378
0.069763
0.0579332
0.0725098
0.0739968
0.0791632
0.0842513
0.0791861
0.067102
0.0558322
0.0737763
0.0764356
0.0776718
0.0781043
0.0709406
0.0610781
0.0513091
0.0606532
0.0649018
0.0654869
0.0629365
0.0581647
0.0520912
0.0453783
0.0731488
0.0789204
0.0790677
0.0746815
0.06772
0.059611
0.0513041
0.080973
0.0863356
0.0886408
0.0854236
0.0765126
0.0661398
0.0560717
0.0801842
0.0816369
0.0861571
0.0907612
0.0829131
0.0705199
0.0590019
0.0728068
0.0755744
0.0845566
0.0886724
0.0843516
0.0714848
0.0594733
0.0775656
0.0748568
0.0825545
0.0864027
0.0807619
0.0686752
0.0573112
0.0757392
0.0780515
0.0800749
0.0794297
0.0722955
0.0625215
0.0526998
0.0618507
0.0662765
0.0668821
0.0642515
0.0593468
0.0531435
0.0463108
0.0746502
0.0808188
0.08097
0.0763547
0.069095
0.0607679
0.0523037
0.0844039
0.0902199
0.0927431
0.0881887
0.0782083
0.0674243
0.0571391
0.0847514
0.0823812
0.0929323
0.0956326
0.084958
0.0719126
0.0601283
0.078165
0.0824392
0.0846674
0.0955459
0.0867229
0.0729149
0.060619
0.0801869
0.0810648
0.0888353
0.0910092
0.0825246
0.0699433
0.0584031
0.0784196
0.0821559
0.0851679
0.082178
0.0737445
0.0636958
0.053735
0.0625768
0.0670219
0.0676017
0.0649078
0.0599655
0.053729
0.0468597
0.0755422
0.0819283
0.0820638
0.0771717
0.0697455
0.061348
0.0528465
0.0869803
0.0940066
0.0967563
0.0898978
0.0790465
0.068021
0.0576785
0.0881025
0.0914032
0.100611
0.0996305
0.0861336
0.0725653
0.0606839
0.0870949
0.0775605
0.0924681
0.100039
0.0881014
0.0736414
0.0612099
0.0854018
0.0868157
0.0936137
0.0952831
0.0837061
0.0706616
0.0590074
0.0795432
0.0861211
0.0874909
0.0837404
0.0746932
0.0644065
0.0543514
0.0629895
0.0672846
0.0677685
0.065099
0.0602038
0.0540017
0.0471497
0.0759483
0.0819187
0.0817965
0.0770558
0.0698096
0.0615301
0.0530865
0.0873454
0.0943689
0.095276
0.0891443
0.0788381
0.068086
0.057869
0.0902522
0.0906414
0.0991451
0.0977027
0.0856018
0.0725344
0.0608493
0.0887699
0.0814371
0.0916776
0.0983252
0.087587
0.0736496
0.0614023
0.0868251
0.0859353
0.0929661
0.0949395
0.0837141
0.0708253
0.059259
0.0801496
0.0863012
0.0878384
0.084039
0.0749811
0.0646835
0.0546596
0.0632285
0.0674302
0.0678422
0.0651686
0.0602957
0.0541136
0.0472895
0.0758934
0.0815963
0.0814385
0.0768024
0.0697142
0.0615388
0.0531719
0.0860245
0.0921863
0.0939132
0.0883033
0.0784824
0.0679823
0.0579074
0.0867306
0.0913247
0.0996002
0.0962044
0.0850223
0.0723508
0.0608687
0.0808781
0.0871951
0.095824
0.0966413
0.0869726
0.0734758
0.0614414
0.084072
0.0844454
0.0917482
0.0932653
0.0832711
0.070736
0.0593467
0.0778584
0.0830104
0.085469
0.0830214
0.0747284
0.0647004
0.0548079
0.0634712
0.0676281
0.0679628
0.0652462
0.0603309
0.0541371
0.0473221
0.0758976
0.0815666
0.0812417
0.0766915
0.0696405
0.0614979
0.0531657
0.0850492
0.0912627
0.0931205
0.0878689
0.0782523
0.0678784
0.0578766
0.0859963
0.0920667
0.0947499
0.0954547
0.0846596
0.0722234
0.0608437
0.0797793
0.0848102
0.095727
0.0961082
0.0866777
0.0733747
0.0614407
0.0789746
0.0831284
0.0915572
0.0923577
0.0830058
0.0706748
0.0593814
0.0772616
0.0817703
0.0854058
0.0827968
0.0746264
0.0647178
0.0548902
0.0636364
0.0677539
0.0680391
0.0652317
0.0602503
0.054035
0.0472311
0.0760972
0.0817604
0.08141
0.0766662
0.0695194
0.0613519
0.0530345
0.0856551
0.0918828
0.0940233
0.0879475
0.0781245
0.0677109
0.0577262
0.0867062
0.0884969
0.098347
0.0962767
0.0846312
0.0720748
0.0607022
0.0795748
0.0851901
0.0899468
0.0973608
0.0866843
0.0732525
0.0613262
0.0810881
0.083704
0.0921754
0.0929479
0.0829938
0.0705959
0.0593071
0.0774774
0.0828105
0.0862729
0.0831851
0.0746776
0.0646999
0.054866
0.0635589
0.0675771
0.0677836
0.0649495
0.0599613
0.053767
0.0470083
0.0760501
0.0815515
0.0810268
0.0762872
0.0691416
0.0610067
0.0527477
0.0861403
0.092394
0.0937983
0.0874966
0.0776503
0.0672985
0.0573938
0.0871406
0.0908454
0.0983476
0.0956015
0.0840139
0.0716086
0.0603488
0.0851944
0.0817416
0.09022
0.0972657
0.0861077
0.0728042
0.0609927
0.0808924
0.0840373
0.0927201
0.0932219
0.0826561
0.070255
0.059034
0.0774206
0.0832142
0.086533
0.083304
0.0745151
0.0644757
0.0546711
0.0632439
0.0671144
0.0672715
0.064446
0.0595027
0.0533741
0.0466955
0.0756433
0.0808349
0.080329
0.0756181
0.0685419
0.0605007
0.0523503
0.0859168
0.0917542
0.0932561
0.0867726
0.0769339
0.0666949
0.0569294
0.0872142
0.091238
0.101573
0.0949485
0.0831988
0.0709379
0.0598477
0.0848476
0.0891556
0.0984802
0.09565
0.0852314
0.0721334
0.0605035
0.0835847
0.0853225
0.0932767
0.0928814
0.0819803
0.0696786
0.0586065
0.0776396
0.0832671
0.0862314
0.0828563
0.0740162
0.0640302
0.0543368
0.0628787
0.0666359
0.0667137
0.0638957
0.059011
0.0529633
0.0463677
0.0750663
0.0800852
0.0794233
0.0747966
0.0678649
0.0599686
0.0519414
0.0850737
0.0910721
0.0917592
0.0855849
0.0760529
0.0660483
0.0564545
0.0870195
0.0945664
0.0969661
0.0935516
0.08217
0.0702193
0.0593396
0.0801974
0.0881783
0.094678
0.0946273
0.0841745
0.0714246
0.0600112
0.0807897
0.084341
0.092288
0.0916677
0.081035
0.0690379
0.0581676
0.076223
0.0813614
0.085164
0.0818763
0.073282
0.0635192
0.0539851
0.0625888
0.0662698
0.0662897
0.0634521
0.0585953
0.0525934
0.046053
0.0746126
0.0795533
0.0787719
0.0741575
0.0673216
0.0595172
0.051568
0.084542
0.0906795
0.0908417
0.0846617
0.0753602
0.0655216
0.0560383
0.086557
0.0941071
0.0965736
0.0926207
0.0813827
0.0696481
0.0589064
0.0805574
0.0860662
0.0929588
0.0948483
0.0834582
0.0708718
0.0595967
0.0782171
0.0834376
0.0915212
0.0908157
0.0803203
0.0685461
0.0578041
0.075266
0.0806896
0.084265
0.0810224
0.0727129
0.0631291
0.0536922
0.0623301
0.0659329
0.0659217
0.0630592
0.0581904
0.0522042
0.0457097
0.0742752
0.079076
0.0783457
0.073741
0.0668871
0.0590849
0.0511739
0.0842275
0.0902279
0.0905412
0.0842649
0.074921
0.0650742
0.0556194
0.0852096
0.0873787
0.0957529
0.0922859
0.0809406
0.0692081
0.0584886
0.0776494
0.0835686
0.0936395
0.094253
0.0830194
0.0704628
0.0592045
0.0781384
0.0830458
0.0913906
0.0905892
0.0799738
0.0681948
0.0574567
0.0749908
0.0813472
0.0842842
0.0808843
0.0724732
0.0628449
0.0534007
0.00908779
0.00369817
0.0260002
0.0212477
0.0171065
0.0133539
0.00954936
0.00383141
0.0404914
0.0333411
0.0273295
0.022213
0.0177881
0.0138184
0.00984226
0.00387915
0.0409375
0.033752
0.0276886
0.0225049
0.0180102
0.0139787
0.0099521
0.0038782
0.0393807
0.0327893
0.0271167
0.0221745
0.0178273
0.0138905
0.00993119
0.00396986
0.0364115
0.0309731
0.0259873
0.0214718
0.017401
0.0136484
0.00981563
0.00405625
0.0323819
0.0278252
0.0236454
0.0198291
0.0163167
0.012967
0.00939061
0.00387106
0.0367049
0.0309537
0.0259471
0.0215311
0.0175684
0.0138722
0.0100094
0.00409016
0.0403674
0.0337208
0.0280014
0.023033
0.0186454
0.0146206
0.01049
0.00422718
0.0426879
0.0354911
0.0293292
0.0240069
0.0193407
0.0150983
0.0107935
0.00427804
0.0430878
0.0358599
0.0296527
0.0242741
0.0195506
0.0152569
0.0109067
0.00428641
0.0414915
0.0348352
0.0290142
0.0238856
0.0193253
0.0151436
0.0108758
0.00438165
0.0384828
0.0329371
0.0277911
0.0230942
0.0188263
0.0148504
0.0107311
0.00446486
0.0342824
0.029606
0.0252773
0.0212904
0.0175893
0.0140296
0.0101944
0.00421537
0.0386707
0.0328107
0.0276556
0.0230595
0.0188929
0.0149698
0.0108323
0.00443872
0.0423292
0.0356014
0.029745
0.0245991
0.0200034
0.0157432
0.0113291
0.0045794
0.0446106
0.0373591
0.0310755
0.0255859
0.0207168
0.0162399
0.011647
0.00463703
0.0449884
0.0377016
0.0313761
0.0258409
0.020927
0.0164075
0.0117723
0.00466616
0.0433749
0.0366326
0.0306886
0.025416
0.0206832
0.0162907
0.0117465
0.00477069
0.0403076
0.0346517
0.0293856
0.0245584
0.0201369
0.0159704
0.0115913
0.00485665
0.0359623
0.0311712
0.0267055
0.022564
0.0186944
0.0149497
0.0108892
0.00450991
0.0404233
0.0344505
0.0291532
0.024391
0.020041
0.0159183
0.0115441
0.0047374
0.0441021
0.0372745
0.0312826
0.0259702
0.0211856
0.0167175
0.0120555
0.00488285
0.04637
0.0390335
0.0326266
0.0269797
0.0219263
0.0172395
0.0123921
0.00495305
0.0467253
0.0393566
0.0329207
0.0272447
0.0221556
0.0174296
0.0125381
0.00501036
0.0450844
0.0382522
0.032213
0.0268121
0.0219152
0.0173244
0.0125273
0.00512553
0.0419364
0.036203
0.0308516
0.025912
0.0213463
0.016998
0.0123769
0.0052197
0.03744
0.0325252
0.0279246
0.0236404
0.0196224
0.0157193
0.0114678
0.00475429
0.0419878
0.0358825
0.0304369
0.0255166
0.0210035
0.01671
0.0121348
0.004986
0.045714
0.0387579
0.0326155
0.0271381
0.0221818
0.0175328
0.0126601
0.00513747
0.0479921
0.0405414
0.0339935
0.0281837
0.0229544
0.0180815
0.0130161
0.00521689
0.0483302
0.0408665
0.0343054
0.0284726
0.0232109
0.0182992
0.0131874
0.00530581
0.0466682
0.0397526
0.0335946
0.0280467
0.0229858
0.0182138
0.0131962
0.0054332
0.0434539
0.0376462
0.0321916
0.0271261
0.0224137
0.0178946
0.0130573
0.00553735
0.0386484
0.033616
0.0288979
0.024498
0.0203642
0.0163381
0.0119357
0.00495037
0.0432816
0.0370386
0.0314583
0.0264081
0.0217685
0.0173432
0.0126098
0.0051843
0.0470735
0.0399674
0.0336789
0.0280626
0.0229713
0.0181835
0.013146
0.00533928
0.0493934
0.0417907
0.0350935
0.0291406
0.0237726
0.0187565
0.0135202
0.0054285
0.0497383
0.0421345
0.0354304
0.0294572
0.024058
0.0190027
0.0137172
0.00555091
0.0480502
0.0410126
0.0347253
0.0290464
0.0238534
0.0189395
0.0137461
0.00569
0.0447702
0.0388655
0.0333029
0.0281229
0.023288
0.0186317
0.0136198
0.00580374
0.039508
0.0344036
0.029614
0.0251426
0.020934
0.0168229
0.0123083
0.00510525
0.0441863
0.037857
0.0321968
0.0270697
0.0223506
0.0178355
0.0129852
0.0053395
0.0480153
0.0408119
0.034438
0.0287415
0.023568
0.0186878
0.0135295
0.0054977
0.0503697
0.0426628
0.0358773
0.0298428
0.024392
0.0192815
0.0139204
0.00560147
0.0507348
0.0430295
0.036239
0.0301857
0.0247046
0.0195545
0.0141416
0.00575308
0.0490351
0.0419126
0.0355477
0.0297944
0.0245222
0.0195139
0.0141901
0.00590273
0.045726
0.0397554
0.0341263
0.0288781
0.0239677
0.0192188
0.0140764
0.00602547
0.0400565
0.0349332
0.0301171
0.0256126
0.021362
0.0171956
0.0125998
0.00522617
0.04473
0.0383854
0.0327027
0.0275444
0.0227831
0.0182113
0.013277
0.00545981
0.0485498
0.041337
0.0349462
0.0292225
0.0240092
0.0190722
0.0138281
0.00562154
0.0509097
0.0431966
0.0363982
0.0303403
0.0248518
0.0196846
0.0142356
0.00574997
0.0512989
0.0435858
0.0367832
0.0307082
0.0251904
0.0199831
0.014479
0.00592067
0.0496218
0.0424912
0.0361146
0.0303406
0.0250323
0.0199657
0.0145469
0.00607974
0.0463261
0.0403466
0.0347057
0.0294374
0.0244921
0.0196853
0.0144468
0.00621119
0.0403921
0.0352786
0.030462
0.0259468
0.0216749
0.0174736
0.0128199
0.00531625
0.0450358
0.0387155
0.0330408
0.0278763
0.0230955
0.0184889
0.0134961
0.00554925
0.0488248
0.041652
0.0352796
0.0295564
0.0243274
0.0193569
0.0140535
0.00571554
0.0511742
0.0435134
0.036741
0.0306887
0.0251873
0.0199877
0.0144787
0.0058755
0.0515854
0.0439252
0.0371502
0.0310822
0.0255515
0.0203099
0.0147414
0.00605788
0.0499497
0.0428628
0.0365109
0.0307426
0.02542
0.0203163
0.0148282
0.00622529
0.0466866
0.0407399
0.0351204
0.0298574
0.0248977
0.0200529
0.0147424
0.00636476
0.0405872
0.0354914
0.0306844
0.0261707
0.021891
0.01767
0.0129777
0.00537845
0.0451984
0.0389095
0.0332517
0.0280928
0.0233066
0.0186815
0.0136509
0.00561045
0.0489586
0.041831
0.0354843
0.0297726
0.0245418
0.0195549
0.0142136
0.00578397
0.0513024
0.043697
0.0369559
0.0309185
0.0254175
0.0202025
0.0146556
0.00597509
0.0517363
0.0441341
0.0373912
0.0313377
0.0258061
0.0205463
0.0149355
0.00616595
0.0501425
0.0431069
0.0367846
0.0310284
0.0257017
0.0205759
0.0150399
0.00634068
0.0469147
0.0410114
0.0354184
0.030166
0.0252003
0.0203304
0.0149677
0.00648716
0.0406665
0.0355906
0.0308003
0.0262981
0.0220225
0.0177954
0.0130813
0.00541604
0.0452486
0.0389872
0.0333514
0.0282082
0.0234295
0.018801
0.0137506
0.00564752
0.0489885
0.0418951
0.0355758
0.0298845
0.0246652
0.0196776
0.0143182
0.0058398
0.0513372
0.0437681
0.0370563
0.0310413
0.0255532
0.0203384
0.0147732
0.00604874
0.0517966
0.0442313
0.0375169
0.0314841
0.0259633
0.0207008
0.0150675
0.00624616
0.0502416
0.0432408
0.0369439
0.0312045
0.0258844
0.0207514
0.0151876
0.00642725
0.0470476
0.0411761
0.035606
0.0303674
0.0254047
0.0205234
0.0151279
0.00657955
0.0406268
0.0355825
0.0308211
0.026343
0.0220844
0.017865
0.0131459
0.00545672
0.0451722
0.0389496
0.0333495
0.0282362
0.023479
0.0188612
0.0138069
0.00567321
0.0488887
0.0418381
0.03556
0.0299043
0.0247115
0.0197389
0.0143793
0.00588565
0.0512381
0.0437125
0.0370439
0.0310667
0.025607
0.0204077
0.0148415
0.00610004
0.0517232
0.0441995
0.0375262
0.0315291
0.0260345
0.0207849
0.0151468
0.00630199
0.0502095
0.043247
0.0369861
0.0312774
0.0259787
0.020854
0.0152803
0.00648812
0.0470582
0.0412202
0.0356805
0.030467
0.0255203
0.0206422
0.015232
0.00664511
0.0404772
0.0354825
0.0307645
0.0263229
0.0220924
0.0178917
0.0131801
0.0054911
0.0449699
0.0388102
0.0332644
0.0281959
0.0234732
0.0188786
0.0138348
0.00570385
0.0486468
0.0416687
0.0354541
0.0298508
0.0246984
0.0197532
0.0144066
0.00591814
0.0509812
0.0435344
0.0369343
0.0310134
0.0255967
0.020426
0.0148725
0.00613449
0.0514852
0.0440397
0.0374336
0.0314914
0.0260379
0.0208144
0.0151857
0.00633921
0.0500202
0.0431266
0.0369254
0.0312655
0.0260027
0.0208992
0.01533
0.00652884
0.0469273
0.0411449
0.0356546
0.0304819
0.0255647
0.0207025
0.0152918
0.00668891
0.040258
0.0353241
0.0306583
0.0262601
0.0220641
0.0178883
0.0131917
0.00551475
0.0446875
0.0386077
0.0331272
0.0281117
0.0234305
0.0188659
0.0138406
0.00572608
0.0483129
0.0414301
0.0352926
0.029751
0.0246465
0.0197357
0.0144103
0.00594003
0.0506222
0.0432812
0.0367653
0.0309108
0.0255448
0.0204101
0.0148782
0.00615726
0.0511398
0.0438008
0.0372784
0.0314014
0.0259968
0.0208072
0.0151974
0.00636381
0.0497246
0.0429264
0.0368008
0.0311995
0.0259801
0.0209054
0.0153502
0.00655584
0.0466977
0.0409915
0.0355643
0.0304417
0.0255614
0.0207225
0.015321
0.00671757
0.0400198
0.0351431
0.0305279
0.0261733
0.0220131
0.0178648
0.0131875
0.00552991
0.0443913
0.038386
0.0329676
0.0280042
0.0233655
0.0188334
0.0138307
0.0057402
0.0479694
0.0411755
0.0351102
0.0296282
0.0245719
0.0196978
0.0143979
0.00595344
0.0502577
0.0430145
0.0365762
0.0307846
0.0254691
0.0203726
0.0148666
0.00617104
0.0507906
0.0435489
0.0371025
0.0312864
0.0259301
0.0207765
0.0151905
0.00637893
0.0494209
0.0427109
0.0366538
0.0311068
0.0259299
0.0208862
0.0153504
0.00657293
0.0464533
0.0408188
0.0354497
0.0303737
0.0255294
0.0207159
0.0153288
0.0067357
0.0397752
0.0349486
0.0303813
0.0260699
0.0219465
0.0178275
0.013172
0.0055377
0.0440992
0.0381549
0.0327931
0.0278806
0.0232851
0.0187872
0.0138098
0.00574723
0.0476429
0.0409172
0.0349148
0.0294895
0.0244815
0.0196457
0.0143738
0.00595957
0.0499196
0.0427481
0.0363747
0.0306417
0.0253763
0.0203195
0.0148424
0.00617698
0.0504701
0.0432979
0.0369132
0.0311525
0.0258439
0.0207283
0.0151697
0.00638558
0.0491434
0.0424947
0.0364915
0.0309928
0.0258576
0.0208473
0.0153351
0.00658119
0.0462261
0.0406421
0.0353181
0.0302826
0.0254732
0.0206873
0.0153194
0.00674513
0.0395031
0.0347334
0.0302196
0.0259553
0.021871
0.0177829
0.0131509
0.00554316
0.043777
0.0378994
0.0326014
0.0277449
0.0231957
0.0187339
0.0137834
0.00575203
0.0472884
0.0406319
0.0346993
0.0293369
0.024381
0.0195858
0.0143441
0.00596323
0.0495574
0.0424528
0.0361498
0.030482
0.0252714
0.0202574
0.0148117
0.0061798
0.0501262
0.0430156
0.036697
0.0309986
0.0257433
0.0206695
0.0151412
0.00638823
0.0488383
0.0422438
0.0362984
0.0308551
0.025768
0.0207958
0.0153111
0.00658456
0.0459685
0.0404301
0.0351541
0.0301653
0.0253968
0.0206436
0.0152992
0.00675045
0.0628864
0.0537325
0.045291
0.0375161
0.0304182
0.0238944
0.0173827
0.00805222
0.0729737
0.0608806
0.0504037
0.0411524
0.032927
0.0255538
0.0184262
0.0084213
0.0787587
0.0651574
0.0531731
0.0428944
0.0339498
0.0260877
0.0186595
0.00842108
0.0767501
0.0634094
0.0517186
0.0416504
0.0328982
0.025226
0.0179969
0.00803597
0.0679431
0.0565662
0.0465873
0.0377924
0.0300431
0.0231668
0.016581
0.00735012
0.05695
0.0479206
0.0398794
0.0326864
0.026259
0.0204478
0.0147295
0.00652184
0.0463111
0.0395503
0.0333315
0.0276453
0.0224734
0.0176922
0.0128367
0.00571833
0.0638149
0.0549509
0.0465745
0.0387385
0.0315417
0.0248933
0.0181921
0.00847452
0.0737452
0.0617092
0.0514975
0.0422965
0.0340271
0.0265632
0.0192633
0.00886419
0.0791326
0.0656262
0.0540564
0.0439371
0.0350111
0.0270947
0.0195095
0.00886877
0.077068
0.0639592
0.0526515
0.0427221
0.0339847
0.0262542
0.0188592
0.00848376
0.0686174
0.0575695
0.0477643
0.0389837
0.0311874
0.0242133
0.0174357
0.00778385
0.0581496
0.0492794
0.0412191
0.0339463
0.0274203
0.0214767
0.0155508
0.00692803
0.047773
0.0409832
0.0346688
0.0288771
0.0235931
0.0186721
0.0136093
0.00608978
0.0648382
0.0565333
0.0479756
0.039994
0.0326823
0.0259078
0.0190142
0.00891188
0.0722589
0.0630789
0.0529397
0.0436141
0.0352337
0.0276436
0.0201418
0.00933393
0.0761755
0.066405
0.0554094
0.0452565
0.0362497
0.0282173
0.0204248
0.00935351
0.0764802
0.0651626
0.0540198
0.0440429
0.0352329
0.0273842
0.0197749
0.00896185
0.0697077
0.0590556
0.0491895
0.0403152
0.0324216
0.0253096
0.0183111
0.00823252
0.0598264
0.0508402
0.0426311
0.0352441
0.0286068
0.0225169
0.0163722
0.00733932
0.0493435
0.0424223
0.0359956
0.030107
0.0247143
0.0196515
0.0143765
0.00646263
0.0653995
0.0577208
0.0492076
0.041167
0.033766
0.0268649
0.0197766
0.00932084
0.0706352
0.0641665
0.0542767
0.0449067
0.0364184
0.028677
0.0209545
0.00976583
0.072139
0.0676193
0.0568451
0.0466419
0.0375175
0.0293161
0.0212795
0.00979912
0.0732643
0.0660629
0.055425
0.0454448
0.0365177
0.0284909
0.0206298
0.00940161
0.0700114
0.0604683
0.0506627
0.041692
0.0336573
0.0263658
0.0191232
0.00864511
0.0613802
0.052385
0.0440623
0.0365503
0.0297701
0.0235107
0.0171362
0.00772107
0.0509085
0.0438695
0.0373317
0.0313292
0.0258081
0.0205835
0.0150913
0.00681064
0.0665793
0.0586283
0.05014
0.0421041
0.0346596
0.0276609
0.0204072
0.00966346
0.0726231
0.0653029
0.0553059
0.045921
0.0373712
0.0295115
0.0216044
0.0101136
0.0743129
0.0687963
0.0579555
0.0477416
0.0385397
0.0301965
0.0219539
0.0101511
0.0756991
0.0674732
0.0566865
0.0466306
0.0375842
0.0293932
0.021313
0.00975308
0.0717634
0.0618806
0.0519605
0.0428782
0.034707
0.0272491
0.0197918
0.00898524
0.0629486
0.0537819
0.0453432
0.0377065
0.0307888
0.0243676
0.0177861
0.00804675
0.0523698
0.0452035
0.0385508
0.0324293
0.026775
0.021397
0.0157094
0.00711322
0.0677876
0.0592823
0.0508274
0.0428125
0.0353476
0.0282831
0.0209069
0.00994565
0.0760069
0.0661296
0.056013
0.0466293
0.0380552
0.0301301
0.0221017
0.0103951
0.078795
0.0697616
0.0587262
0.0485003
0.0392532
0.0308304
0.022459
0.010432
0.0791835
0.0686938
0.0576127
0.0474654
0.0383382
0.0300498
0.0218305
0.0100351
0.0736533
0.063003
0.0529289
0.0437528
0.03549
0.0279259
0.02032
0.00926612
0.06419
0.0548663
0.0463375
0.0386088
0.031593
0.0250576
0.0183204
0.00832273
0.053519
0.0462638
0.0395256
0.0333143
0.0275631
0.0220713
0.0162298
0.00737366
0.0685739
0.0598361
0.0513754
0.0433545
0.0358708
0.0287649
0.0213054
0.0101843
0.0774287
0.0668138
0.056529
0.0471304
0.0385489
0.0306014
0.0225053
0.0106441
0.0822116
0.0707458
0.059309
0.0490118
0.0397469
0.0313068
0.0228723
0.0106857
0.0812385
0.0695624
0.058214
0.0480038
0.0388569
0.0305461
0.0222566
0.0102893
0.0747918
0.0637438
0.0535701
0.0443541
0.0360641
0.0284592
0.0207629
0.0095178
0.0650193
0.0556157
0.0470444
0.0392772
0.0322187
0.025621
0.0187744
0.00856783
0.054306
0.0470231
0.0402521
0.0340011
0.0282001
0.022636
0.0166779
0.00760488
0.0687894
0.0602244
0.0517667
0.0437349
0.0362496
0.0291317
0.0216232
0.0103886
0.0779809
0.0669085
0.0568315
0.0474699
0.0389169
0.0309825
0.0228513
0.0108726
0.0826136
0.0709249
0.0596401
0.0493561
0.0401235
0.0317081
0.0232438
0.0109282
0.0820061
0.0699658
0.0585612
0.0483655
0.0392592
0.0309716
0.022642
0.0105316
0.0753579
0.0641719
0.0539895
0.0447935
0.0365288
0.0289197
0.0211585
0.00975162
0.0655278
0.0561215
0.0475557
0.0397978
0.0327374
0.0261064
0.019174
0.0087902
0.0548322
0.0475702
0.0408099
0.034559
0.0287375
0.0231235
0.0170702
0.00781259
0.0681903
0.0602595
0.0518959
0.0439331
0.0364986
0.0294031
0.0218727
0.0105624
0.0747454
0.0666943
0.0568769
0.0476514
0.0391844
0.0312895
0.0231382
0.011071
0.0780079
0.070375
0.0596277
0.0495431
0.0404235
0.0320551
0.0235653
0.0111423
0.0796022
0.069473
0.0585855
0.0486043
0.0396049
0.0313514
0.0229802
0.0107464
0.0747011
0.0641832
0.0542316
0.0451493
0.0369383
0.0293269
0.0215018
0.00995704
0.0656754
0.0564338
0.0479518
0.0402404
0.0331885
0.0265274
0.019517
0.00898449
0.0551987
0.0480017
0.0412773
0.0350361
0.0291985
0.0235404
0.0174045
0.00799352
0.0678694
0.0600832
0.0518609
0.0440129
0.0366575
0.029601
0.0220638
0.0107084
0.0740291
0.0664393
0.0568028
0.0477319
0.0393668
0.0315161
0.0233522
0.0112292
0.0772591
0.0700562
0.0595453
0.0496535
0.0406478
0.0323196
0.0238042
0.0113079
0.0789623
0.0692815
0.0586393
0.0488182
0.0398968
0.0316539
0.0232376
0.0109142
0.0745622
0.0642814
0.0544746
0.0454702
0.037284
0.0296535
0.0217679
0.0101206
0.06586
0.0567244
0.048305
0.0406173
0.0335594
0.0268651
0.0197875
0.00914254
0.0555309
0.0483729
0.041667
0.0354242
0.0295682
0.0238723
0.0176697
0.00814197
0.0678311
0.0598967
0.0518073
0.044057
0.0367654
0.0297399
0.0221999
0.0108258
0.0745401
0.0662184
0.0567274
0.0477786
0.0394821
0.0316613
0.0234908
0.0113484
0.0776544
0.0697817
0.0594718
0.0497321
0.0407934
0.0324835
0.0239506
0.0114258
0.0792148
0.069282
0.0587377
0.0489898
0.0400951
0.0318482
0.0234
0.0110341
0.0747943
0.0644568
0.0546897
0.045706
0.0375196
0.0298728
0.021947
0.0102416
0.066081
0.0569638
0.0485631
0.0408801
0.0338158
0.0271012
0.0199795
0.00926327
0.0557697
0.0486261
0.0419296
0.0356891
0.0298266
0.0241102
0.0178634
0.0082568
0.0678324
0.0597998
0.0517656
0.0440623
0.0368059
0.0298027
0.0222682
0.0109067
0.0755526
0.0663302
0.0567067
0.047775
0.039508
0.0317127
0.0235534
0.0114312
0.0798902
0.0701385
0.0595172
0.0497502
0.0408245
0.0325365
0.0240148
0.0115077
0.0796256
0.0694759
0.0588009
0.0490387
0.0401532
0.0319234
0.02348
0.0111183
0.0750438
0.064562
0.0547702
0.0457895
0.0376182
0.0299844
0.0220524
0.0103297
0.0661397
0.0570366
0.0486553
0.0409944
0.0339501
0.0272434
0.0201062
0.00935376
0.0558101
0.0487011
0.0420378
0.035825
0.0299801
0.0242656
0.0179974
0.00834327
0.0676051
0.0596273
0.0516316
0.0439599
0.0367429
0.0297768
0.0222687
0.0109529
0.0758821
0.0660008
0.0565116
0.0476294
0.0394164
0.0316748
0.0235548
0.0114858
0.0801007
0.0699607
0.0593505
0.0496039
0.0407326
0.0325066
0.0240288
0.0115695
0.0798358
0.0693209
0.0586156
0.0489041
0.0400883
0.0319218
0.0235151
0.0111838
0.0748982
0.0643829
0.0546336
0.0457188
0.037614
0.0300288
0.022116
0.0103992
0.0659215
0.0568956
0.0485874
0.0409938
0.0340026
0.027327
0.0201927
0.00942498
0.0556576
0.0486289
0.0420329
0.0358731
0.0300645
0.0243665
0.0180913
0.00841007
0.0668783
0.0592267
0.0513097
0.0437265
0.0365903
0.0296891
0.0222282
0.0109781
0.0733674
0.065375
0.0560756
0.0473368
0.0392378
0.0315816
0.0235186
0.0115193
0.076339
0.0690045
0.0588609
0.0493086
0.0405704
0.0324365
0.0240136
0.0116125
0.0786641
0.0686151
0.0582011
0.0486699
0.0399791
0.0318936
0.0235276
0.0112332
0.0741978
0.0639488
0.0543767
0.0455922
0.0375776
0.0300479
0.0221563
0.010453
0.0655329
0.056654
0.0484646
0.0409585
0.0340261
0.0273823
0.0202533
0.00948064
0.0554432
0.0485131
0.0419925
0.0358876
0.0301148
0.0244339
0.0181565
0.00846152
0.0661402
0.0586669
0.0509006
0.0434474
0.0364116
0.0295834
0.0221734
0.010992
0.0723404
0.0646583
0.0555722
0.0470041
0.0390328
0.031463
0.0234554
0.01153
0.0757706
0.0683203
0.0583582
0.0489875
0.0403855
0.0323364
0.0239611
0.0116242
0.0781113
0.0681097
0.0578348
0.0484511
0.0398648
0.0318402
0.0235042
0.0112535
0.0737347
0.0636025
0.0541626
0.045482
0.037535
0.030041
0.0221623
0.0104812
0.06522
0.0564592
0.0483617
0.0409191
0.034027
0.0274046
0.0202802
0.00951459
0.0552678
0.0484081
0.0419415
0.0358759
0.0301302
0.0244647
0.01819
0.00849473
0.0657121
0.058187
0.0505598
0.0432093
0.0362499
0.0294789
0.0221123
0.0109961
0.071915
0.0640793
0.0551428
0.046713
0.0388327
0.0313271
0.023368
0.01152
0.0751654
0.0676447
0.0578831
0.0486893
0.0401832
0.0321947
0.0238645
0.0116054
0.077472
0.0676609
0.0575409
0.0482506
0.0397197
0.031736
0.0234326
0.0112435
0.0734583
0.0633735
0.0539943
0.0453558
0.0374429
0.029979
0.0221232
0.0104838
0.06501
0.0563044
0.0482448
0.0408343
0.0339728
0.0273766
0.0202694
0.0095281
0.0550914
0.0482691
0.0418385
0.035808
0.0300946
0.0244544
0.0181945
0.0085125
0.0449742
0.0382761
0.0320847
0.0264544
0.0213883
0.0167567
0.0120909
0.0052837
0.0474577
0.0394798
0.032571
0.0265286
0.0212265
0.0164743
0.0117811
0.00496387
0.0478193
0.0394279
0.0322723
0.0261171
0.0207859
0.0160506
0.0114095
0.00465721
0.0457621
0.0378004
0.0309731
0.0250991
0.0200069
0.0154652
0.0109835
0.00438229
0.0419794
0.0349286
0.0288302
0.0235409
0.0189052
0.0147094
0.0104874
0.00413572
0.0373195
0.0313846
0.0262122
0.0216583
0.0175916
0.0138273
0.00993413
0.00394746
0.0323223
0.0277375
0.0235481
0.0197336
0.0162289
0.01289
0.00932748
0.00381216
0.0464815
0.0397422
0.0334553
0.0277248
0.0225468
0.0177687
0.0128843
0.00565905
0.0489679
0.041039
0.0340656
0.0279218
0.022492
0.0175687
0.0126269
0.00535032
0.0494083
0.041097
0.0338903
0.0276265
0.0221456
0.0172128
0.0122975
0.00505211
0.0475293
0.0395974
0.032697
0.0266934
0.0214263
0.0166641
0.0118913
0.00477602
0.0439024
0.03681
0.0306021
0.0251572
0.0203266
0.0158992
0.0113839
0.00451965
0.0392895
0.0332629
0.0279533
0.0232268
0.0189593
0.0149651
0.0107879
0.00431203
0.0342334
0.0295317
0.0251942
0.0212085
0.0175128
0.0139599
0.0101335
0.00415718
0.0480365
0.0411841
0.0348086
0.0289923
0.023704
0.0187724
0.0136644
0.00603161
0.0506101
0.042605
0.0355394
0.0292979
0.0237364
0.0186339
0.0134429
0.00572805
0.0511169
0.0427558
0.0354596
0.0290812
0.0234481
0.0183169
0.0131357
0.00543126
0.0493165
0.0413232
0.0343227
0.0281824
0.0227431
0.0177711
0.0127271
0.0051467
0.0457274
0.0385507
0.0322233
0.026624
0.0216103
0.0169702
0.0121899
0.00486829
0.0410853
0.0349545
0.0295093
0.0246214
0.0201708
0.0159704
0.0115411
0.00463048
0.0359369
0.0311203
0.0266461
0.0225051
0.0186382
0.0148962
0.0108397
0.00445535
0.0495857
0.042642
0.0361746
0.0302456
0.0248194
0.0197174
0.0143854
0.0063767
0.052295
0.0441826
0.0370143
0.0306392
0.0249157
0.0196222
0.0141896
0.00607567
0.0528667
0.0444003
0.0369863
0.0304611
0.0246525
0.0193204
0.0138897
0.00577516
0.0510828
0.0429776
0.035844
0.0295464
0.0239274
0.0187541
0.0134635
0.00547881
0.0474519
0.0401548
0.0336849
0.0279242
0.0227348
0.0179017
0.0128877
0.00517936
0.0427203
0.0364626
0.0308737
0.02583
0.0212126
0.0168316
0.0121857
0.00490463
0.0374451
0.0325057
0.0278966
0.0236109
0.0195923
0.0156878
0.0114359
0.00470407
0.051057
0.0439958
0.037412
0.0313591
0.0257967
0.0205392
0.0150097
0.00667741
0.0539137
0.0456498
0.0383375
0.0318155
0.0259389
0.0204777
0.0148364
0.0063791
0.0545128
0.0458924
0.0383271
0.0316477
0.025681
0.0201779
0.0145361
0.00607293
0.0526777
0.0444253
0.0371421
0.0306933
0.0249199
0.0195803
0.0140854
0.00576309
0.0489471
0.0415118
0.0348998
0.0289968
0.023662
0.0186729
0.0134683
0.00544468
0.0440909
0.0377057
0.0319873
0.026812
0.0220605
0.0175365
0.0127157
0.00513975
0.0386853
0.03363
0.0289031
0.0244994
0.0203615
0.0163298
0.0119215
0.00490809
0.0521819
0.045048
0.0383856
0.0322486
0.0265929
0.0212232
0.0155392
0.0069378
0.0551309
0.0467649
0.0393603
0.0327458
0.0267693
0.0211894
0.0153852
0.00664185
0.0557329
0.0470064
0.0393475
0.0325747
0.0265072
0.0208842
0.0150788