/*--------------------------------*- C++ -*----------------------------------*\
| =========                 |                                                 |
| \\      /  F ield         | OpenFOAM: The Open Source CFD Toolbox           |
|  \\    /   O peration     | Version:  plus.master.MPPICInterFoam            |
|   \\  /    A nd           | Web:      www.OpenFOAM.com                      |
|    \\/     M anipulation  |                                                 |
\*---------------------------------------------------------------------------*/
FoamFile
{
    version     2.0;
    format      ascii;
    class       volScalarField;
    location    "13.2";
    object      nut;
}
// * * * * * * * * * * * * * * * * * * * * * * * * * * * * * * * * * * * * * //

dimensions      [0 2 -1 0 0 0 0];

internalField   nonuniform List<scalar> 
11821
(
0.000504978
0.000526558
0.000494871
0.000528279
0.000504866
0.000474803
0.000523301
0.000543059
0.000550956
0.00054935
0.000539753
0.00052355
0.000500469
0.000564994
0.000588091
0.000594953
0.000587421
0.000571061
0.000549994
0.000524457
0.00059986
0.000612857
0.000623968
0.000624351
0.000597632
0.000568886
0.000539533
0.000590361
0.000598582
0.000620706
0.00063982
0.000615661
0.000578939
0.000546067
0.000578068
0.000535779
0.000573396
0.000637792
0.000618399
0.000578483
0.00054385
0.000592976
0.000583318
0.000600403
0.000625072
0.000602277
0.000565882
0.00053222
0.000583566
0.000611186
0.000616698
0.00059979
0.000571304
0.000541519
0.000509981
0.000551376
0.000573236
0.000582971
0.000582898
0.000574406
0.000558731
0.000535281
0.000594235
0.000618601
0.000626758
0.000620758
0.000605688
0.000585467
0.000560027
0.000635454
0.000661385
0.000670995
0.000658004
0.000631972
0.000604309
0.000575333
0.000666942
0.000644147
0.000656708
0.000682983
0.000649242
0.000614003
0.000581692
0.000674523
0.000611855
0.000649707
0.00068267
0.000651421
0.00061285
0.0005788
0.00066629
0.000663732
0.000666946
0.000670198
0.000636873
0.00059951
0.000566002
0.000616751
0.000646055
0.000650369
0.000633994
0.000603853
0.000573655
0.000542196
0.000577325
0.000601303
0.000612884
0.00061448
0.000607382
0.000592209
0.000568067
0.000618138
0.000644483
0.000654615
0.000650444
0.000637813
0.00061908
0.000593677
0.000657731
0.000674158
0.000688398
0.000684421
0.000662353
0.000637309
0.000609126
0.000676036
0.000652864
0.000680239
0.000701411
0.000677984
0.000646138
0.000615182
0.000687178
0.000669289
0.000657329
0.000687656
0.000678867
0.000644042
0.000611634
0.000676473
0.000678728
0.000680939
0.000693756
0.000663296
0.000629682
0.000597786
0.000616871
0.000646649
0.00066167
0.000651102
0.000629657
0.000603093
0.000572775
0.000603643
0.000629492
0.000642931
0.000646234
0.000640205
0.000624847
0.000599253
0.000636034
0.000664568
0.000677895
0.000678795
0.000670047
0.000652451
0.000626211
0.000641392
0.000674061
0.000695853
0.000701368
0.000691264
0.000670325
0.00064217
0.000637688
0.00071106
0.000723638
0.000707777
0.000702421
0.000678277
0.000648148
0.000611023
0.000684331
0.000711939
0.000708331
0.000699092
0.00067516
0.000644117
0.000596535
0.00063804
0.000661477
0.000679116
0.000683007
0.000659927
0.00062934
0.000599084
0.000621392
0.000633548
0.000655461
0.000652877
0.000632877
0.000603133
0.000632929
0.0006604
0.000675066
0.000679033
0.000672759
0.000656037
0.000628219
0.000665671
0.00069593
0.000709848
0.000712027
0.000703891
0.000685359
0.000657058
0.000674172
0.000711343
0.000727688
0.000733313
0.000725099
0.000704152
0.000674205
0.000676202
0.000715913
0.000726836
0.000741312
0.000736119
0.000712445
0.000680649
0.000645638
0.00069333
0.00073991
0.000736143
0.000733448
0.000709242
0.000676454
0.000648667
0.0006647
0.000704358
0.000711693
0.000715052
0.000692993
0.000660896
0.000629829
0.000649092
0.000668699
0.000685706
0.000684522
0.000664611
0.000633194
0.000662298
0.000691369
0.000707055
0.000710864
0.000703114
0.000684242
0.00065392
0.000699762
0.000730436
0.000746075
0.000747946
0.000737343
0.000715992
0.000684812
0.000715416
0.000746132
0.000768275
0.00077559
0.000761873
0.00073689
0.000703577
0.000717124
0.000723251
0.000765335
0.000787105
0.000775063
0.00074637
0.000710911
0.000697182
0.000761722
0.00074431
0.000782812
0.000773846
0.000743307
0.000706708
0.000685798
0.000723805
0.000752193
0.000760127
0.00075467
0.000726208
0.000690338
0.000678462
0.000700315
0.000728197
0.000733735
0.000720663
0.00069565
0.000660837
0.000687937
0.000718722
0.000735001
0.000738148
0.000728938
0.000708256
0.000675891
0.0007301
0.00076334
0.00077941
0.000779067
0.00076577
0.000741961
0.000708431
0.0007612
0.000791058
0.00081838
0.000814432
0.000793568
0.000764727
0.00072855
0.000763799
0.000788165
0.000830164
0.000836939
0.000809835
0.000775487
0.000736713
0.000769772
0.000724878
0.000795154
0.00083028
0.000809043
0.000772517
0.000732534
0.000752155
0.000770675
0.000799124
0.000812896
0.000788605
0.000754462
0.000715396
0.000719618
0.000753924
0.000768243
0.00076913
0.000750507
0.000721799
0.000684371
0.000709009
0.000741141
0.00075779
0.000760658
0.000750654
0.000728798
0.000694886
0.000753531
0.00078777
0.000803554
0.000802813
0.000788741
0.000763735
0.000728651
0.000788766
0.000821179
0.000841677
0.000838451
0.0008174
0.000787445
0.000749676
0.000807378
0.000813029
0.000847739
0.000858961
0.000833872
0.000798736
0.000758375
0.000816781
0.00077417
0.000816743
0.000853101
0.000832997
0.000795716
0.000754204
0.000792595
0.000792216
0.000821858
0.000836799
0.000812506
0.000776965
0.000736476
0.000743945
0.000778051
0.000793496
0.000792224
0.000772727
0.000743052
0.000704409
0.000726836
0.000760348
0.00077743
0.000780277
0.000769867
0.000747101
0.000711827
0.000769129
0.000806876
0.000823207
0.000822598
0.000808574
0.000782932
0.000746635
0.000796442
0.000840686
0.000862365
0.000857408
0.000837307
0.000807169
0.000768348
0.000802689
0.000850183
0.000895631
0.000879723
0.000854061
0.000818755
0.000777428
0.00077857
0.000850979
0.000887416
0.000876371
0.000853279
0.00081573
0.000773304
0.00078759
0.000809846
0.00084258
0.000850159
0.000830196
0.000796195
0.000755171
0.000729998
0.000769628
0.000792269
0.00080168
0.000789392
0.000761585
0.000722422
0.000744555
0.000778556
0.00079594
0.000798834
0.000787896
0.00076403
0.000727263
0.000785529
0.000823597
0.000840411
0.000841227
0.000827341
0.000800868
0.000763198
0.000804833
0.000853681
0.000873386
0.000874199
0.000855946
0.00082566
0.00078566
0.000815872
0.000879279
0.000878534
0.000892498
0.000871952
0.000837447
0.000795139
0.00079109
0.000849914
0.000906272
0.000893708
0.000871575
0.000834574
0.000791133
0.000760297
0.000820622
0.000861561
0.00086348
0.000848298
0.000814838
0.000772791
0.000738539
0.000777362
0.00081075
0.000819229
0.000807771
0.000779828
0.00073944
0.000762402
0.000796861
0.000814502
0.000816886
0.000804881
0.000779569
0.000741118
0.000805371
0.000842992
0.000860725
0.000860774
0.000845784
0.00081776
0.000778324
0.000827058
0.000867
0.000895254
0.000894474
0.000875378
0.00084356
0.000801736
0.000835701
0.000861215
0.000908457
0.000914182
0.000891939
0.000855894
0.000811774
0.000806075
0.000872781
0.000866506
0.000910516
0.000891076
0.000853049
0.000807894
0.00080035
0.000842547
0.000876595
0.000884948
0.00086826
0.000833259
0.00078933
0.000762625
0.000805431
0.000836489
0.000841948
0.000827561
0.000797614
0.000755236
0.000778636
0.000813889
0.00083156
0.000833232
0.000819956
0.000793147
0.00075309
0.000824459
0.000862695
0.000880221
0.000879358
0.000862635
0.000832773
0.000791518
0.000852494
0.000892979
0.000918578
0.000915613
0.000893806
0.000859783
0.000815919
0.000867262
0.000895811
0.000925207
0.000935434
0.000910988
0.000872809
0.000826584
0.000879337
0.000854682
0.000883038
0.000933082
0.000910246
0.000870098
0.000822861
0.000826923
0.000863857
0.000900237
0.000909218
0.000887737
0.000850057
0.000803998
0.000789128
0.000831328
0.000859457
0.000863464
0.000845727
0.000813485
0.000769096
0.000792139
0.000828292
0.000845938
0.000846857
0.000832507
0.000804526
0.000763218
0.000840098
0.000880055
0.000897874
0.000895229
0.000876693
0.000845287
0.000802608
0.000872048
0.000916421
0.000946187
0.000935783
0.000909724
0.000873388
0.000827814
0.000888917
0.000925966
0.000989686
0.000962902
0.000928788
0.000887273
0.000839054
0.000900853
0.000946467
0.000983971
0.000957506
0.00092818
0.000884787
0.000835521
0.000872865
0.00090063
0.000933508
0.000932538
0.000904518
0.000864229
0.000816382
0.000809362
0.00085229
0.00087766
0.00088005
0.000860596
0.000826721
0.000780815
0.000803534
0.000840147
0.000857375
0.000857915
0.000843043
0.000814331
0.000772087
0.000852264
0.000893551
0.000909572
0.000906641
0.000887804
0.000855766
0.000812209
0.000885049
0.000939106
0.000955666
0.000946678
0.00092112
0.000884364
0.000837953
0.000905739
0.000978322
0.000980718
0.000973091
0.000940453
0.000898652
0.000849584
0.000872774
0.00094934
0.000969987
0.000971328
0.000940502
0.000896502
0.000846263
0.000862156
0.000908764
0.000943949
0.000944315
0.00091652
0.000875796
0.000827024
0.000805049
0.000850795
0.000886389
0.000890866
0.000872144
0.000837902
0.000791051
0.00081401
0.000850603
0.000867731
0.000868105
0.000852812
0.000823392
0.00078019
0.000862871
0.00090362
0.000919276
0.000916762
0.000898006
0.000865479
0.000821053
0.000894457
0.000946753
0.00096127
0.000955126
0.000931221
0.000894462
0.000847313
0.000914785
0.000988886
0.000988566
0.000979425
0.000950268
0.000908975
0.000859281
0.000892671
0.000948066
0.000969501
0.000982667
0.000950957
0.000907095
0.000856153
0.000851504
0.000914596
0.000949897
0.000953046
0.000927207
0.000886536
0.000836903
0.000811071
0.00086102
0.000895168
0.00090072
0.000883138
0.000848511
0.000800589
0.00082411
0.000860698
0.000877991
0.000878038
0.000861976
0.000831589
0.000787319
0.000873981
0.000913416
0.000930336
0.000927889
0.000908276
0.000874616
0.000828995
0.000905178
0.000950149
0.000972322
0.00096739
0.000942474
0.000904401
0.000855913
0.000914423
0.000936385
0.00098971
0.000992177
0.000962153
0.000919462
0.000868326
0.00087739
0.000936722
0.000988762
0.00099541
0.000963235
0.000917881
0.000865391
0.000869081
0.00092448
0.000964542
0.000967846
0.000939949
0.00089735
0.000846043
0.000828341
0.000883888
0.000913831
0.000916244
0.000895595
0.000858855
0.000809239
0.00014505
1.70717e-05
0.000413354
0.000376302
0.00032747
0.00025851
0.000155255
1.85331e-05
0.000475811
0.000448235
0.000417548
0.000380538
0.000332218
0.000263955
0.00016045
1.90563e-05
0.000473508
0.000445429
0.000414329
0.000377156
0.000329128
0.000261745
0.000159593
1.86534e-05
0.000463277
0.000435476
0.00040426
0.000366836
0.000318767
0.000251917
0.000151649
1.76961e-05
0.000445004
0.000418665
0.000387698
0.000350066
0.000301807
0.000235447
0.000138276
1.60815e-05
0.000472491
0.000446312
0.00041352
0.000371874
0.000317422
0.000243359
0.000139108
1.56953e-05
0.000494664
0.000467144
0.000434468
0.000393404
0.000339238
0.000263993
0.000154626
1.79472e-05
0.000508592
0.000480133
0.000447246
0.000406529
0.000352857
0.000277472
0.00016542
1.94603e-05
0.000514173
0.00048486
0.000451574
0.000410943
0.000357781
0.000283011
0.000170617
2.00025e-05
0.000511073
0.00048121
0.000447549
0.00040683
0.000354024
0.000280181
0.000169269
1.96038e-05
0.000499283
0.000469583
0.000435788
0.000394874
0.00034213
0.000268999
0.000160447
1.85829e-05
0.000478863
0.000450535
0.000416927
0.000375787
0.000322922
0.000250566
0.000145855
1.68618e-05
0.000505897
0.000477683
0.000442172
0.000397073
0.000338243
0.000258544
0.000146994
1.63762e-05
0.000529293
0.00049996
0.000464673
0.000420177
0.000361581
0.000280522
0.000163378
1.86942e-05
0.000543711
0.000513671
0.0004783
0.000434184
0.000376048
0.000294728
0.000174641
2.02522e-05
0.000549207
0.000518441
0.000482775
0.000438795
0.000381149
0.000300373
0.000179851
2.08196e-05
0.000545432
0.000514124
0.000478126
0.000434104
0.000376834
0.000296962
0.000177959
2.04429e-05
0.000532371
0.000501118
0.000464969
0.000420802
0.000363703
0.000284722
0.00016845
1.93778e-05
0.000510213
0.000480168
0.000444138
0.000399755
0.000342644
0.000264742
0.000152936
1.75728e-05
0.000537054
0.000506707
0.00046848
0.000420023
0.000357031
0.000272098
0.000153966
1.69402e-05
0.000561767
0.000530451
0.000492486
0.0004446
0.000381745
0.000295249
0.000171103
1.9314e-05
0.000576715
0.000544938
0.000506995
0.0004595
0.00039704
0.000310138
0.000182747
2.09123e-05
0.000582154
0.000549832
0.000511698
0.000464371
0.000402383
0.000315936
0.000187972
2.15182e-05
0.000577806
0.000545002
0.000506608
0.000459326
0.000397752
0.000312178
0.000185675
2.11817e-05
0.000563661
0.000530856
0.000492369
0.000445049
0.000383745
0.000299195
0.000175705
2.00839e-05
0.000539974
0.000508256
0.000469879
0.000422401
0.000361243
0.000278036
0.000159508
1.82165e-05
0.000566075
0.000533348
0.000492294
0.000440491
0.000373493
0.000283703
0.000159735
1.73958e-05
0.000592406
0.000558686
0.00051782
0.000466482
0.000399474
0.00030789
0.000177476
1.98176e-05
0.000608196
0.000574171
0.000533351
0.000482349
0.000415619
0.000323434
0.000189473
2.14567e-05
0.000613833
0.000579433
0.000538511
0.000487701
0.000421382
0.000329533
0.000194841
2.20925e-05
0.000609137
0.00057435
0.000533272
0.00048255
0.000416632
0.000325576
0.000192249
2.18047e-05
0.000594084
0.000559351
0.000518252
0.000467556
0.000401976
0.000312026
0.000181927
2.06857e-05
0.000568908
0.000535261
0.000494315
0.000443572
0.000378296
0.000289914
0.000165187
1.87716e-05
0.00059249
0.000557247
0.000513348
0.000458302
0.000387547
0.000293361
0.00016437
1.77553e-05
0.000620695
0.000584258
0.000540371
0.00048563
0.0004147
0.000318485
0.000182637
2.02124e-05
0.000637734
0.000600956
0.00055701
0.000502474
0.00043166
0.00033464
0.000194959
2.18793e-05
0.000643947
0.000606844
0.000562781
0.000508376
0.000437871
0.000341038
0.000200448
2.25422e-05
0.000639137
0.000601718
0.000557548
0.000503238
0.000433083
0.000336927
0.000197577
2.23083e-05
0.000623326
0.000586013
0.000541899
0.000487675
0.000417893
0.000322897
0.000186962
2.11746e-05
0.000596562
0.000560486
0.000516665
0.000462533
0.00039318
0.000299932
0.000169741
1.9224e-05
0.000615649
0.000578033
0.000531513
0.000473531
0.000399423
0.000301383
0.00016812
1.803e-05
0.000645661
0.000606572
0.00055988
0.000502059
0.000427628
0.000327341
0.000186837
2.05117e-05
0.000664053
0.000624442
0.000577538
0.000519778
0.000445313
0.000344028
0.000199423
2.22004e-05
0.000671019
0.00063101
0.000583914
0.000526201
0.000451928
0.000350668
0.000204956
2.28973e-05
0.000666206
0.000625921
0.000578744
0.000521115
0.000447129
0.000346429
0.000201849
2.27102e-05
0.000649665
0.000609591
0.000562557
0.000505072
0.000431482
0.000331986
0.000190995
2.15659e-05
0.000621351
0.000582793
0.000536223
0.000478928
0.000405845
0.000308245
0.00017335
1.95867e-05
0.000635538
0.000595911
0.000547131
0.000486585
0.000409541
0.000308143
0.000171215
1.82388e-05
0.000667022
0.000625728
0.000576656
0.000516173
0.000438681
0.000334836
0.000190313
2.0738e-05
0.000686512
0.00064456
0.000595173
0.000534656
0.000457011
0.00035199
0.000203119
2.24451e-05
0.000694125
0.000651705
0.000602077
0.000541539
0.000463978
0.0003588
0.000208579
2.31948e-05
0.000689341
0.000646685
0.000596996
0.000536532
0.000459202
0.000354493
0.000205345
2.30345e-05
0.000672187
0.000629858
0.000580391
0.00052011
0.00044319
0.000339724
0.000194314
2.18829e-05
0.000642628
0.000602039
0.000553151
0.000493112
0.00041675
0.000315316
0.000176321
1.98818e-05
0.000652841
0.000611488
0.000560724
0.000497898
0.000418241
0.00031389
0.000173797
1.8393e-05
0.000685533
0.000642414
0.000591282
0.000528439
0.000448215
0.000341217
0.00019321
2.09047e-05
0.000705858
0.00066205
0.000610563
0.000547623
0.000467136
0.000358788
0.000206196
2.26293e-05
0.000713959
0.000669682
0.000617943
0.000554938
0.000474427
0.000365723
0.000211505
2.34433e-05
0.000709219
0.00066476
0.000612989
0.000550049
0.000469718
0.000361409
0.000208228
2.32965e-05
0.000691613
0.000647578
0.000596088
0.000533351
0.000453436
0.000346397
0.000197077
2.21401e-05
0.000661123
0.000618946
0.000568096
0.000505628
0.000426317
0.000321438
0.000178811
2.01232e-05
0.000668236
0.000625273
0.000572656
0.000507719
0.000425684
0.000318712
0.00017591
1.85006e-05
0.000702037
0.000657243
0.000604186
0.00053914
0.000456404
0.000346586
0.00019558
2.10201e-05
0.000723095
0.000677634
0.000624198
0.000558988
0.000475867
0.000364508
0.000208677
2.27647e-05
0.000731618
0.000685734
0.00063205
0.00056673
0.000483472
0.000371552
0.000213825
2.36408e-05
0.000726972
0.000680959
0.000627266
0.000561993
0.000478863
0.00036727
0.000210548
2.35029e-05
0.000709073
0.000663538
0.000610163
0.000545099
0.000462377
0.000352075
0.000199314
2.23441e-05
0.00067785
0.000634239
0.000581531
0.000516757
0.000434685
0.000326659
0.000180833
2.03157e-05
0.000682042
0.00063747
0.000583056
0.000516132
0.000431918
0.000322629
0.00017756
1.85671e-05
0.000716994
0.000670481
0.00061552
0.000548369
0.000463307
0.000350967
0.000197424
2.10913e-05
0.000738845
0.000691655
0.00063626
0.000568848
0.000483247
0.000369133
0.000210463
2.2875e-05
0.000747833
0.000700254
0.000644596
0.000577014
0.000491168
0.000376326
0.000215572
2.37877e-05
0.000743329
0.000695659
0.00064
0.000572441
0.00048667
0.000372098
0.00021232
2.36571e-05
0.000725218
0.000678057
0.000622735
0.000555384
0.000470016
0.000356756
0.000201031
2.24978e-05
0.000693287
0.000648127
0.000593517
0.000526489
0.000441821
0.000330949
0.000182378
2.04616e-05
0.000694212
0.000648073
0.000591957
0.00052318
0.000436954
0.000325548
0.000178515
1.86352e-05
0.000730339
0.000682088
0.000625299
0.00055618
0.00046898
0.000354371
0.000198669
2.11384e-05
0.000753063
0.000704055
0.000646736
0.000577248
0.000489362
0.000372759
0.000211645
2.29652e-05
0.000762595
0.000713178
0.000655547
0.000585816
0.000497587
0.000380131
0.000216805
2.38894e-05
0.00075825
0.000708771
0.000651134
0.000581395
0.000493194
0.000375963
0.00021359
2.37639e-05
0.000739903
0.00069098
0.000633711
0.000564185
0.000476389
0.000360501
0.000202269
2.26055e-05
0.000707229
0.000660436
0.000603949
0.00053479
0.000447745
0.000334356
0.000183485
2.05648e-05
0.000704656
0.000657114
0.000599478
0.000529041
0.00044101
0.000327731
0.000179056
1.86927e-05
0.000741849
0.000692025
0.000633605
0.000562727
0.000473601
0.000356945
0.00019936
2.11937e-05
0.000765405
0.000714712
0.000655665
0.000584325
0.000494401
0.000375596
0.000212412
2.30273e-05
0.000775481
0.000724322
0.000664901
0.00059325
0.0005029
0.000383142
0.000217638
2.39556e-05
0.000771302
0.000720093
0.000660655
0.000588964
0.000498602
0.000379029
0.000214458
2.3833e-05
0.000752709
0.000702122
0.000643085
0.000571615
0.000481662
0.000363468
0.00020312
2.26757e-05
0.000719324
0.000671021
0.000612835
0.000541768
0.000452616
0.000337031
0.000184239
2.06322e-05
0.000713565
0.000664843
0.000605894
0.000533991
0.000444359
0.000329441
0.00017939
1.87313e-05
0.000751626
0.000700517
0.000640708
0.000568287
0.000477449
0.000358982
0.000199793
2.12332e-05
0.000775849
0.000723799
0.000663306
0.000590358
0.00049863
0.000377881
0.000212928
2.30679e-05
0.00078638
0.000733815
0.000672906
0.000599599
0.00050738
0.000385591
0.000218218
2.3998e-05
0.000782368
0.000729752
0.000668809
0.000595435
0.000503167
0.000381531
0.000215071
2.38772e-05
0.000763595
0.000711652
0.000651125
0.00057797
0.000486115
0.000365888
0.000203723
2.27207e-05
0.000729645
0.000680092
0.000620456
0.000547723
0.000456712
0.000339197
0.000184767
2.06748e-05
0.000721414
0.000671644
0.000611499
0.000538257
0.000447177
0.000330806
0.00017959
1.87564e-05
0.000760219
0.000708006
0.000646946
0.000573115
0.000480718
0.000360632
0.000200068
2.12587e-05
0.000784971
0.000731805
0.000670033
0.000595623
0.000502253
0.00037976
0.000213278
2.30933e-05
0.000795866
0.000742174
0.000679965
0.000605158
0.000511237
0.000387624
0.000218628
2.40241e-05
0.000792023
0.000738272
0.000676012
0.000601111
0.00050711
0.000383618
0.000215516
2.39048e-05
0.000773155
0.000720087
0.000658241
0.000583553
0.000489966
0.00036791
0.000204163
2.27495e-05
0.000738766
0.000688139
0.000627204
0.000552953
0.000460248
0.000340997
0.000185148
2.07021e-05
0.000728469
0.000677672
0.000616387
0.000541905
0.000449517
0.000331866
0.000179673
1.87693e-05
0.00076802
0.000714702
0.000652432
0.000577279
0.000483463
0.00036194
0.000200205
2.12712e-05
0.000793303
0.000739013
0.000675987
0.000600196
0.000505319
0.00038127
0.000213475
2.31046e-05
0.000804546
0.000749725
0.000686234
0.000610002
0.000514515
0.000389269
0.000218876
2.40352e-05
0.000800865
0.000745977
0.000682417
0.000606062
0.000510462
0.000385311
0.000215797
2.39168e-05
0.000781923
0.000727714
0.000664566
0.000588416
0.00049323
0.000369541
0.00020444
2.27634e-05
0.000747113
0.000695397
0.000633185
0.000557491
0.000463222
0.00034242
0.000185364
2.0716e-05
0.000734573
0.000682838
0.000620552
0.000545
0.000451484
0.000332724
0.000179683
1.87767e-05
0.000774829
0.000720459
0.000657111
0.000580816
0.000485781
0.000363014
0.00020026
2.1278e-05
0.000800661
0.000745242
0.000681072
0.000604076
0.000507908
0.000382516
0.000213579
2.31092e-05
0.000812273
0.000756273
0.000691589
0.000614105
0.000517276
0.000390629
0.000219025
2.4038e-05
0.000808736
0.000752653
0.000687877
0.000610244
0.000513276
0.000386707
0.000215974
2.3919e-05
0.000789679
0.000734296
0.000669939
0.000592506
0.000495953
0.000370873
0.000204615
2.27664e-05
0.000754421
0.000701629
0.000638247
0.000561286
0.000465675
0.000343551
0.000185468
2.0721e-05
0.000538947
0.000502393
0.000462941
0.000417659
0.000361492
0.00028414
0.000167894
2.26722e-05
0.000577689
0.000532308
0.000487819
0.000440086
0.000383165
0.000305652
0.000185937
2.57934e-05
0.000596179
0.000548766
0.00050037
0.000450598
0.000392995
0.000315713
0.000195175
2.75169e-05
0.000589212
0.000543665
0.000496951
0.000448079
0.000391201
0.00031483
0.000195438
2.74609e-05
0.000562747
0.000522064
0.000480057
0.000434023
0.000378899
0.000303845
0.000187102
2.5694e-05
0.000528136
0.00049282
0.000454903
0.000411626
0.0003581
0.000284273
0.000171539
2.26856e-05
0.000491028
0.000460608
0.000425516
0.000383713
0.000330734
0.000257829
0.000150601
1.90918e-05
0.000564776
0.000524232
0.000482888
0.000435481
0.000376229
0.000294361
0.000172453
2.32097e-05
0.000612805
0.000555855
0.000508232
0.000458512
0.000398806
0.000316903
0.000191138
2.63927e-05
0.000635588
0.00057399
0.000521449
0.000469668
0.000409386
0.000327723
0.000200849
2.8154e-05
0.000623737
0.000568506
0.000518729
0.000467863
0.000408233
0.000327403
0.00020151
2.81368e-05
0.000591777
0.000546696
0.000502527
0.000454381
0.000396277
0.000316606
0.000193325
2.63825e-05
0.000555001
0.00051767
0.000477881
0.000432246
0.000375372
0.000296704
0.000177559
2.33417e-05
0.000517472
0.00048557
0.0004485
0.000403982
0.000347297
0.000269457
0.000156158
1.9675e-05
0.000574266
0.00054109
0.000501267
0.000453091
0.000391362
0.000305307
0.000177712
2.37789e-05
0.000608708
0.000567144
0.000525298
0.000476448
0.000415046
0.000329251
0.000197402
2.70591e-05
0.000631613
0.000582721
0.000538111
0.000488029
0.000426417
0.000341003
0.000207807
2.88837e-05
0.00063182
0.000582829
0.000537301
0.000487133
0.000425836
0.000341089
0.000208721
2.88922e-05
0.000608603
0.000566488
0.000523499
0.000474626
0.000414128
0.000330132
0.000200307
2.71134e-05
0.000577947
0.000540991
0.0005004
0.000452896
0.000392916
0.000309572
0.000184027
2.40107e-05
0.000542636
0.000510014
0.000471252
0.000424198
0.000363968
0.000281367
0.000162009
2.02587e-05
0.000583306
0.000558838
0.000520666
0.000471364
0.000406695
0.00031617
0.000182882
2.43372e-05
0.000594689
0.000581183
0.000544582
0.000495779
0.00043193
0.000341681
0.000203574
2.7713e-05
0.000600835
0.000593785
0.000557468
0.000508115
0.000444355
0.000354543
0.000214746
2.9607e-05
0.000612042
0.000595799
0.000557544
0.000507838
0.000444218
0.00035496
0.000215854
2.96329e-05
0.000616456
0.00058677
0.000545846
0.000495881
0.000432383
0.000343579
0.000207073
2.78145e-05
0.000600393
0.000565216
0.000523795
0.000474015
0.000410459
0.000322183
0.000190241
2.4646e-05
0.000568544
0.000535029
0.000494304
0.000444409
0.000380403
0.000292921
0.000167585
2.08097e-05
0.000608981
0.000582214
0.000541717
0.000489389
0.000420821
0.000325514
0.000186943
2.48035e-05
0.000624247
0.000607049
0.000567638
0.000515727
0.000447812
0.000352372
0.000208275
2.82392e-05
0.0006313
0.000620204
0.000581524
0.000529251
0.000461456
0.000366266
0.000220015
3.01813e-05
0.000643172
0.000622578
0.000582048
0.000529428
0.000461764
0.000367085
0.000221363
3.02272e-05
0.000644542
0.000613361
0.000570264
0.000517224
0.000449589
0.000355407
0.000212453
2.83896e-05
0.000628633
0.000591569
0.000547604
0.000494528
0.000426841
0.000333383
0.000195357
2.51825e-05
0.000595948
0.000560243
0.00051681
0.000463603
0.000395539
0.000303135
0.000172229
2.12823e-05
0.000643664
0.000607615
0.000562184
0.000505688
0.00043293
0.000333054
0.000189883
2.517e-05
0.000675427
0.000638543
0.000591356
0.000534159
0.000461415
0.000360831
0.000211487
2.86341e-05
0.000685363
0.000655322
0.000607165
0.000549153
0.000476224
0.000375532
0.000223558
3.06017e-05
0.000691051
0.000655734
0.00060745
0.00054958
0.000476971
0.000376783
0.000225166
3.06669e-05
0.000682082
0.000642226
0.000594137
0.000536762
0.00046458
0.000365119
0.000216401
2.88337e-05
0.000658642
0.000617403
0.000569851
0.000513082
0.000441205
0.000342791
0.000199322
2.56143e-05
0.000622405
0.000583783
0.00053736
0.000480798
0.000408795
0.000311767
0.000175915
2.16714e-05
0.00067277
0.000628916
0.00057919
0.0005193
0.000443088
0.000339289
0.000192155
2.54644e-05
0.000717724
0.000665866
0.000610818
0.00054917
0.000472582
0.000367766
0.000213994
2.89558e-05
0.000743773
0.000686985
0.000628623
0.000565418
0.00048832
0.000383129
0.000226334
3.09446e-05
0.000734582
0.000684068
0.000628664
0.000566304
0.000489637
0.00038485
0.000228209
3.10268e-05
0.000713955
0.000666896
0.000614426
0.000553406
0.000477412
0.000373417
0.000219677
2.92035e-05
0.000684698
0.000639787
0.000589153
0.000529259
0.000453756
0.000350961
0.000202667
2.59774e-05
0.00064546
0.000604378
0.000555413
0.000495943
0.000420454
0.000319296
0.000179044
2.20012e-05
0.000687835
0.00064243
0.000592058
0.000530583
0.000451868
0.000344722
0.000194071
2.57105e-05
0.000741364
0.000677715
0.00062316
0.000560825
0.000482188
0.000374085
0.000216392
2.9248e-05
0.00076922
0.00070124
0.000641907
0.000577879
0.000498739
0.00039018
0.000229145
3.12704e-05
0.000761221
0.000701506
0.00064377
0.000579855
0.000500787
0.000392403
0.00023128
3.13674e-05
0.000736544
0.000685065
0.00063076
0.000567749
0.000488994
0.000381189
0.000222881
2.95442e-05
0.000705233
0.000658333
0.000605865
0.000543704
0.000465202
0.000358533
0.000205809
2.63023e-05
0.000664936
0.000622356
0.000571507
0.000509631
0.000431088
0.000326206
0.000181915
2.22928e-05
0.000689429
0.000652198
0.000603125
0.000540822
0.000459897
0.000349609
0.000195711
2.5921e-05
0.000719539
0.000681882
0.000633149
0.000571581
0.000491356
0.000380144
0.000218689
2.95148e-05
0.000737341
0.00070092
0.000651488
0.000589236
0.000508836
0.000397147
0.000231983
3.15786e-05
0.000751348
0.000707088
0.000655372
0.000592281
0.000511554
0.000399837
0.000234368
3.16884e-05
0.000743689
0.00069802
0.000645047
0.000581183
0.000500083
0.000388676
0.000225979
2.98563e-05
0.000720844
0.000674498
0.000621235
0.000557256
0.000475986
0.000365644
0.00020873
2.65926e-05
0.000682186
0.000638815
0.000586433
0.000522364
0.000440946
0.00033256
0.000184512
2.25496e-05
0.000701474
0.000664868
0.000615075
0.000551014
0.000467472
0.000354004
0.000197068
2.6099e-05
0.000727566
0.000694853
0.000646164
0.000583184
0.000500378
0.00038569
0.000220579
2.9735e-05
0.000747735
0.000714387
0.000665368
0.000601891
0.000518916
0.000403571
0.000234328
3.18299e-05
0.000762439
0.000721487
0.000669969
0.000605522
0.000522152
0.000406678
0.000236955
3.19523e-05
0.000758473
0.000713949
0.00066029
0.000594597
0.00051064
0.00039545
0.000228571
3.01137e-05
0.000737874
0.000691011
0.000636344
0.000570174
0.000485951
0.000371964
0.00021116
2.68338e-05
0.000699215
0.000654635
0.000600496
0.00053411
0.000449812
0.000338083
0.000186643
2.27632e-05
0.000721534
0.000680344
0.000627735
0.000560941
0.000474469
0.000357891
0.000198162
2.62441e-05
0.000754371
0.000714768
0.000661559
0.000595039
0.000508741
0.000390412
0.000221931
2.98987e-05
0.000773562
0.000736698
0.000682324
0.000614971
0.00052825
0.000408936
0.000235918
3.20063e-05
0.000786508
0.000741253
0.000686251
0.000618622
0.000531776
0.000412369
0.000238746
3.21393e-05
0.000779129
0.000731811
0.000675668
0.000607218
0.000520012
0.000401072
0.00023043
3.03019e-05
0.000756259
0.000707432
0.00065061
0.000581892
0.000494635
0.000377173
0.00021294
2.70158e-05
0.00071572
0.000669411
0.00061325
0.000544464
0.000457371
0.000342562
0.000188209
2.2927e-05
0.000741594
0.000694578
0.000638898
0.000569526
0.000480395
0.000361021
0.000198868
2.63476e-05
0.000790872
0.000735722
0.000675331
0.000605053
0.000515583
0.000394059
0.000222734
3.00088e-05
0.000824843
0.000761584
0.00069768
0.000625948
0.000535754
0.000412985
0.000236828
3.21178e-05
0.000813277
0.000760834
0.000700708
0.000629687
0.000539594
0.000416715
0.000239832
3.2259e-05
0.0007999
0.000748303
0.000689191
0.000617984
0.000527783
0.000405501
0.000231664
3.04296e-05
0.000773233
0.00072207
0.000663037
0.000591902
0.000501874
0.000381323
0.000214181
2.71456e-05
0.000730389
0.00068233
0.000624243
0.000553245
0.00046363
0.000346109
0.000189309
2.30457e-05
0.0007529
0.000703949
0.000647291
0.00057631
0.000485059
0.000363279
0.000199133
2.64073e-05
0.000810694
0.000744285
0.0006835
0.000612175
0.000520814
0.00039682
0.000223171
3.00794e-05
0.000840848
0.000770957
0.000706111
0.000633509
0.000541516
0.000416211
0.000237482
3.21972e-05
0.000831401
0.000772259
0.000710462
0.00063806
0.00054589
0.000420303
0.000240681
3.2346e-05
0.000815087
0.000760521
0.000699807
0.000626807
0.000534306
0.000409232
0.000232657
3.05253e-05
0.000786833
0.000734073
0.000673451
0.000600412
0.000508062
0.000384846
0.000215183
2.72441e-05
0.000742656
0.000693293
0.000633644
0.000560774
0.000468976
0.000349089
0.000190174