/*--------------------------------*- C++ -*----------------------------------*\
| =========                 |                                                 |
| \\      /  F ield         | OpenFOAM: The Open Source CFD Toolbox           |
|  \\    /   O peration     | Version:  plus.master.MPPICInterFoam            |
|   \\  /    A nd           | Web:      www.OpenFOAM.com                      |
|    \\/     M anipulation  |                                                 |
\*---------------------------------------------------------------------------*/
FoamFile
{
    version     2.0;
    format      ascii;
    class       scalarField;
    location    "12.8/lagrangian/kinematicCloud";
    object      age;
}
// * * * * * * * * * * * * * * * * * * * * * * * * * * * * * * * * * * * * * //


1510
(
12.71
12.5161
12.7803
12.75
12.747
12.6862
12.738
12.3143
12.3812
12.7746
12.7798
12.6839
12.3757
12.7912
12.666
12.7089
12.753
12.7704
12.524
12.6505
12.6201
12.6051
12.562
12.7125
12.5541
12.7991
12.7559
12.7855
12.7652
12.4407
12.748
12.785
12.7848
12.3775
12.7409
12.6731
12.6676
12.6542
12.7214
12.7691
12.5801
12.7484
12.6004
12.5353
12.5864
12.7078
12.7099
12.7479
12.781
12.7598
12.7287
12.7043
12.7274
12.5658
12.4572
12.6154
12.7569
12.5696
12.6595
12.758
12.7407
12.7707
12.7077
12.564
12.4986
12.5805
12.6
12.5924
12.6686
12.7826
12.7462
12.5558
12.7162
12.6196
12.6782
12.7274
12.7011
12.7585
12.649
12.7456
12.5364
12.6207
12.7501
12.789
12.6222
12.792
12.6392
12.7178
12.769
12.7826
12.7845
12.7022
12.7469
12.6625
12.7125
12.4258
12.7191
12.7883
12.7597
12.7577
12.499
12.6403
12.4995
12.7577
12.5721
12.7274
12.5532
12.4478
12.6294
12.6058
12.7184
12.691
12.7654
12.698
12.6784
12.6592
12.6596
12.7978
12.6522
12.7761
12.4393
12.6787
12.5261
12.4346
12.6901
12.723
12.643
12.5475
12.5495
12.7955
12.6608
12.7558
12.5937
12.6648
12.7731
12.3995
12.4192
12.5741
12.6979
12.545
12.6302
12.7473
12.7938
12.7703
12.299
12.7176
12.7962
12.7562
12.7295
12.7478
12.5727
12.5524
12.7064
12.6512
12.7963
12.5497
12.7433
12.7478
12.4871
12.4762
12.7202
12.7471
12.6824
12.7084
12.7639
12.7288
12.7742
12.504
12.6688
12.6211
12.706
12.5333
12.6885
12.4479
12.4953
12.6688
12.5968
12.5829
12.6403
12.4819
12.543
12.5722
12.7376
12.7639
12.6874
12.7641
12.6139
12.6397
12.6743
12.6105
12.7316
12.7278
12.4778
12.6905
12.6295
12.5681
12.7913
12.6704
12.7913
12.748
12.7488
12.7679
12.6982
12.6295
12.6924
12.3333
12.591
12.7568
12.7765
12.7599
12.7939
12.7639
12.6228
12.7703
12.4585
12.7651
12.6691
12.7481
12.6991
12.6076
12.6397
12.8002
12.6714
12.7561
12.5144
12.6937
12.649
12.5819
12.5949
12.7989
12.6396
12.6543
12.6686
12.5369
12.7989
12.7469
12.7092
12.7812
12.66
12.7162
12.6544
12.5337
12.6314
12.7638
12.7586
12.7895
12.63
12.637
12.6982
12.7561
12.6786
12.6749
12.3039
12.6577
12.5818
12.7265
12.4612
12.4803
12.6084
12.4156
12.5481
12.7685
12.5835
12.6417
12.5139
12.5562
12.5429
12.7454
12.7072
12.5029
12.7089
12.6592
12.3251
12.6915
12.5979
12.4851
12.7598
12.6256
12.6237
12.3727
12.3243
12.7381
12.76
12.2484
12.7813
12.7475
12.3453
12.6944
12.4297
12.7728
12.6843
12.416
12.7772
12.792
12.6793
12.5449
12.781
12.5686
12.569
12.7761
12.7771
12.546
12.757
12.708
12.7854
12.7849
12.6657
12.7673
12.7608
12.7572
12.7213
12.5421
12.4413
12.6515
12.6295
12.603
12.7824
12.491
12.7084
12.6359
12.6384
12.6607
12.7651
12.7584
12.6596
12.6588
12.7118
12.6005
12.6941
12.7703
12.373
12.7765
12.7767
12.7705
12.7819
12.6588
12.7277
12.7814
12.5149
12.4987
12.7881
12.3678
12.7148
12.7065
12.504
12.7811
12.7341
12.7107
12.7627
12.6479
12.733
12.7583
12.7706
12.694
12.7705
12.7374
12.5308
12.7639
12.3569
12.7565
12.7369
12.7641
12.7576
12.7602
12.7927
12.7874
12.7437
12.4286
12.744
12.649
12.7708
12.2422
12.7646
12.6478
12.6001
12.7259
12.7175
12.7767
12.7977
12.755
12.6739
12.7693
12.7938
12.4381
12.6691
12.6476
12.503
12.7988
12.7515
12.3735
12.5216
12.7253
12.7946
12.4477
12.8
12.7401
12.729
12.7013
12.7764
12.7201
12.5152
12.7617
12.6471
12.6499
12.6737
12.7745
12.5925
12.4612
12.7273
12.6367
12.7283
12.6721
12.4267
12.4681
12.7876
12.5821
12.5909
12.5534
12.6744
12.4393
12.5732
12.7713
12.7797
12.6615
12.7226
12.6196
12.6393
12.739
12.4964
12.4858
12.6352
12.6827
12.5299
12.7652
12.6887
12.6858
12.6005
12.5805
12.4691
12.6294
12.6686
12.7917
12.4883
12.5074
12.72
12.6895
12.6559
12.6611
12.8003
12.764
12.6137
12.6949
12.591
12.554
12.5489
12.429
12.5273
12.702
12.6473
12.649
12.6181
12.6887
12.5627
12.7783
12.5911
12.5875
12.6576
12.7975
12.4381
12.6917
12.5524
12.7488
12.635
12.6602
12.7769
12.5001
12.7624
12.7474
12.6814
12.4114
12.7059
12.7562
12.7921
12.4683
12.7181
12.7082
12.7083
12.7941
12.7544
12.6439
12.6618
12.7995
12.7178
12.747
12.799
12.7639
12.4777
12.65
12.6784
12.7821
12.6693
12.7469
12.7536
12.5236
12.3342
12.7094
12.7561
12.7562
12.6814
12.7673
12.6824
12.708
12.7545
12.7845
12.6701
12.7644
12.3422
12.7811
12.7916
12.6444
12.7476
12.7168
12.5833
12.7936
12.6614
12.781
12.7753
12.7742
12.7178
12.751
12.693
12.6227
12.6855
12.6511
12.6258
12.7273
12.6055
12.4112
12.7084
12.6006
12.7165
12.5716
12.7689
12.7375
12.7786
12.3152
12.7198
12.3854
12.6197
12.7958
12.7081
12.5243
12.5715
12.557
12.7284
12.5836
12.7377
12.6106
12.4676
12.7083
12.7884
12.7913
12.7311
12.7571
12.7208
12.7709
12.7887
12.4858
12.7896
12.4191
12.6105
12.7667
12.7639
12.7077
12.7082
12.7311
12.6294
12.7909
12.7177
12.4939
12.7224
12.7715
12.7261
12.7521
12.6498
12.7244
12.5058
12.6929
12.3791
12.6432
12.6521
12.6817
12.6724
12.6003
12.4762
12.7601
12.4958
12.3882
12.6733
12.7765
12.6828
12.6984
12.7888
12.4906
12.66
12.7785
12.6759
12.6675
12.7152
12.7936
12.5299
12.7494
12.6401
12.7916
12.6795
12.649
12.3623
12.7913
12.597
12.7542
12.7119
12.7082
12.7728
12.4865
12.7549
12.6867
12.4332
12.7477
12.633
12.5102
12.7565
12.7815
12.6392
12.379
12.4961
12.6064
12.4925
12.7764
12.4388
12.5056
12.7398
12.6687
12.5402
12.3146
12.5717
12.622
12.5543
12.5444
12.383
12.7085
12.6392
12.7096
12.7937
12.7015
12.7525
12.4002
12.4564
12.7783
12.8002
12.7849
12.6686
12.4583
12.5813
12.3822
12.4287
12.5813
12.7709
12.5056
12.5831
12.6802
12.6619
12.7689
12.6021
12.7037
12.6504
12.7669
12.7838
12.7196
12.5257
12.6294
12.5407
12.756
12.7181
12.6213
12.6742
12.7341
12.7387
12.7142
12.7085
12.5634
12.6091
12.3417
12.3228
12.6404
12.5143
12.4579
12.7639
12.7649
12.7675
12.6232
12.6801
12.7194
12.7237
12.6971
12.7009
12.758
12.7924
12.644
12.756
12.7464
12.6978
12.8002
12.6413
12.7421
12.7477
12.5715
12.6642
12.7942
12.5491
12.7126
12.6528
12.4341
12.6554
12.6793
12.7646
12.7949
12.7449
12.7941
12.7981
12.689
12.2417
12.6098
12.4336
12.6687
12.7077
12.7637
12.5784
12.4789
12.4571
12.4882
12.7371
12.7469
12.6784
12.786
12.7906
12.5596
12.5815
12.6105
12.7041
12.7655
12.5905
12.6531
12.7347
12.7903
12.575
12.6232
12.769
12.601
12.7917
12.7763
12.2191
12.731
12.649
12.7276
12.6696
12.7194
12.7921
12.3042
12.5528
12.6296
12.7919
12.785
12.8
12.667
12.7253
12.7413
12.2318
12.649
12.6171
12.7623
12.7596
12.7708
12.3771
12.6536
12.781
12.7762
12.6303
12.7392
12.6888
12.6954
12.4762
12.6517
12.6125
12.7815
12.6303
12.6908
12.7004
12.698
12.7937
12.6294
12.5708
12.5544
12.6885
12.4868
12.6628
12.7974
12.4629
12.7536
12.5221
12.6855
12.5174
12.7176
12.6022
12.7154
12.6793
12.8
12.7822
12.2755
12.5532
12.7526
12.3343
12.6811
12.7301
12.7818
12.7914
12.7937
12.7826
12.568
12.3785
12.672
12.7593
12.7276
12.4193
12.6216
12.6732
12.7011
12.5429
12.7974
12.306
12.7917
12.6885
12.7544
12.7082
12.759
12.7088
12.5152
12.4507
12.4902
12.7573
12.3389
12.649
12.7439
12.5339
12.5073
12.5429
12.4862
12.5075
12.7304
12.6723
12.5835
12.681
12.747
12.486
12.2997
12.643
12.7175
12.7166
12.534
12.728
12.7971
12.7278
12.6205
12.7315
12.5442
12.7054
12.5449
12.6887
12.7179
12.7428
12.7226
12.7889
12.6029
12.7906
12.6512
12.7307
12.8001
12.771
12.4497
12.5908
12.6342
12.7974
12.6397
12.724
12.4172
12.381
12.6109
12.5905
12.7711
12.7564
12.6001
12.7819
12.7941
12.4191
12.6528
12.5429
12.63
12.7406
12.5739
12.5448
12.6837
12.6714
12.7778
12.7296
12.7715
12.6997
12.7639
12.7646
12.633
12.5276
12.4492
12.7431
12.7341
12.5049
12.783
12.6219
12.24
12.7774
12.4442
12.73
12.5171
12.7761
12.6392
12.662
12.503
12.7067
12.8009
12.5619
12.7913
12.6589
12.6791
12.594
12.6556
12.7147
12.4012
12.3716
12.7905
12.5738
12.6705
12.6625
12.6402
12.4953
12.4857
12.4293
12.6213
12.7289
12.5545
12.5375
12.7544
12.71
12.6015
12.6736
12.5635
12.7982
12.7686
12.6396
12.7504
12.6881
12.7718
12.6492
12.7957
12.7089
12.5661
12.6023
12.6115
12.6696
12.7571
12.6538
12.7022
12.7473
12.6784
12.7886
12.7941
12.7929
12.3246
12.5657
12.6588
12.4023
12.6882
12.7301
12.6418
12.7955
12.3735
12.7372
12.7891
12.4279
12.6683
12.7455
12.467
12.6612
12.6929
12.6134
12.7016
12.6231
12.675
12.5759
12.7994
12.764
12.6402
12.5287
12.7578
12.7345
12.7983
12.6686
12.6929
12.6665
12.6066
12.4533
12.4877
12.3921
12.7855
12.3656
12.6673
12.6493
12.6789
12.6607
12.6688
12.5813
12.5152
12.7371
12.6982
12.7371
12.7572
12.6588
12.7855
12.7912
12.7188
12.5496
12.7118
12.7966
12.6894
12.7679
12.6785
12.6891
12.7081
12.7622
12.7992
12.4295
12.3186
12.7562
12.6207
12.5635
12.7337
12.4846
12.7741
12.7912
12.6197
12.7815
12.6621
12.6936
12.6677
12.5345
12.4847
12.669
12.7371
12.6062
12.4583
12.7749
12.6284
12.7069
12.7286
12.7325
12.7988
12.6588
12.6523
12.5619
12.7383
12.6208
12.7078
12.7288
12.5483
12.5984
12.4748
12.746
12.3548
12.7403
12.6339
12.6665
12.656
12.5835
12.6331
12.5077
12.6485
12.4635
12.2328
12.6865
12.7896
12.7791
12.7959
12.0919
12.5816
12.6597
12.6352
12.6623
12.7444
12.6485
12.7401
12.764
12.7775
12.6497
12.7704
12.6515
12.6518
12.505
12.7687
12.5517
12.7332
11.9169
12.7402
12.7509
12.6295
12.7812
12.4131
12.5895
12.7683
12.5725
12.5881
12.4475
12.4382
12.796
12.7631
12.7564
12.6718
12.6177
12.4589
12.7561
12.7672
12.6785
12.7576
12.6062
12.5343
12.4741
12.801
12.4711
12.5714
12.6588
12.7516
12.6871
12.7387
12.7446
12.5931
12.7953
12.5905
12.7916
12.7915
12.5651
12.5942
12.7644
12.7354
12.7999
12.625
12.524
12.685
12.5826
12.7238
12.5363
12.16
12.7082
12.6727
12.6784
12.5101
12.7648
12.6409
12.5545
12.5823
12.6075
12.6407
12.5294
12.6905
12.6087
12.5235
12.7776
12.7328
12.7706
12.483
12.3405
12.4921
12.7939
12.6281
12.6796
12.6593
12.7576
12.698
12.1143
12.6686
12.7274
12.7815
12.3108
12.7109
12.6436
12.3082
12.6302
12.7493
12.777
12.7371
12.3715
12.7089
12.7866
12.443
12.2762
12.3273
12.505
12.7086
12.6098
12.5499
12.7662
12.3977
12.7995
12.765
12.5849
12.7486
12.7825
12.7782
12.4727
12.4667
12.7922
12.6452
12.7993
12.6995
12.4953
12.4242
12.7254
12.5991
12.6899
12.581
12.0608
12.555
12.7175
12.731
12.6124
12.7766
12.6881
11.9123
12.2801
12.7186
12.7766
11.8937
12.5835
12.6766
12.7371
12.7937
12.7706
12.5251
12.7974
12.6657
12.3688
12.7771
12.7962
12.4453
12.5312
12.6564
12.777
12.7376
12.7107
12.7815
12.2917
12.4494
12.6047
12.649
12.1629
12.6498
12.5086
12.0477
12.1448
12.6647
11.9226
12.5905
12.6301
12.7488
12.0489
12.5622
12.3286
12.4171
12.4023
12.7644
12.4996
12.708
12.6983
12.4825
12.7884
12.7763
12.2896
12.7855
12.6205
12.766
12.2956
12.4339
12.73
11.9203
12.0574
12.3684
12.3094
11.8952
12.7784
12.7529
12.5282
12.2076
12.7977
11.9786
12.0406
12.4525
12.0811
12.2667
12.7835
12.6588
12.7271
12.7768
12.6317
12.7683
12.6422
12.496
12.4979
12.3122
12.7671
12.4765
12.7428
12.4008
12.7762
12.5628
12.6435
12.1231
11.902
12.6499
12.5823
11.9735
12.6894
12.4442
12.0368
12.2441
12.04
12.011
12.7711
12.3794
12.6847
12.5821
11.9604
12.335
12.0086
11.9508
12.528
12.5376
12.2412
12.6055
12.5873
12.0424
12.2516
12.13
12.055
12.1603
12.0916
12.7108
12.6694
12.429
12.7914
12.1453
12.7932
12.7685
12.1334
11.8961
12.4887
12.2767
12.3633
12.0205
12.2459
12.7078
12.7641
12.7009
12.6747
12.5039
12.3489
12.0102
12.3735
11.9067
12.4143
12.6686
12.0417
12.1422
12.0766
11.941
12.0301
12.2385
12.3829
12.3675
12.0024
12.0618
12.4301
12.3914
12.0226
12.2916
11.8801
12.0426
11.9504
11.97
12.5719
12.5429
12.6784
11.9792
12.7642
11.9702
12.1698
12.7939
12.6965
12.1508
12
11.94
11.9301
12.3139
12.5829
11.9129
11.9172
12.3938
12.3648
12.3064
12.3308
11.8937
12.6252
12.7077
12.1669
11.8804
11.9293
12.8002
12.211
12.5487
12.2486
11.9943
12.5064
12.7198
12.0398
12.771
12.0758
12.5878
12.1986
12.3794
11.8874
12.6982
12.031
12.7885
12.242
12.6075
12.3338
12.4517
12.7937
12.5254
12.6459
12.5815
11.9193
12.5922
12.0777
12.0717
11.8924
12.0073
11.9222
12.1706
11.9103
12.7622
12.611
11.9143
12.5055
12.5911
12.4476
12.5924
12.7305
12.6726
12.6653
11.8666
12.2472
11.98
12.524
12.7597
11.9705
12.4083
12.0752
11.9727
12.7708
12.0001
12.0404
11.9583
12.1074
12.04
11.9816
11.9724
12.0816
12.3542
12.137
12.7543
12.412
12.0396
12.0045
12.1412
12.8
12.0407
12.628
12.2736
11.932
12.0719
11.9416
12.5057
12.6197
11.9507
12.7786
12.6402
)


// ************************************************************************* //
