/*--------------------------------*- C++ -*----------------------------------*\
| =========                 |                                                 |
| \\      /  F ield         | OpenFOAM: The Open Source CFD Toolbox           |
|  \\    /   O peration     | Version:  plus.master.MPPICInterFoam            |
|   \\  /    A nd           | Web:      www.OpenFOAM.com                      |
|    \\/     M anipulation  |                                                 |
\*---------------------------------------------------------------------------*/
FoamFile
{
    version     2.0;
    format      ascii;
    class       labelField;
    location    "12.8/lagrangian/kinematicCloud";
    object      origId;
}
// * * * * * * * * * * * * * * * * * * * * * * * * * * * * * * * * * * * * * //


1510
(
9741
29110
2473
5740
6224
12271
6985
49520
42718
3096
2503
12412
43179
1198
14269
9879
5519
3685
28426
15703
18797
20259
24693
9530
25315
201
5355
1758
4078
36649
5966
1855
1958
43056
6665
13459
14181
15372
8616
3760
22908
5910
20753
27195
22140
10124
9753
5976
2317
4729
7884
10398
8188
24161
35191
19261
5035
23910
14846
4890
6677
3499
10206
24321
30866
22886
20917
21479
14130
2108
6326
25147
9300
18967
13156
8187
10630
4847
16057
6360
27087
18689
5733
1367
18523
1018
17049
9066
3761
2109
1979
10542
6250
14505
9526
38252
8841
1543
4738
4928
30836
16737
30796
4930
23553
8165
25434
36054
17978
20215
8938
11639
4054
11119
13092
14897
14823
348
15527
3006
36804
12978
28113
37343
11727
8498
16458
26004
25875
671
14660
5360
21359
14338
3200
40982
38921
23310
11192
26222
17765
6090
896
3686
50834
9134
540
5208
7788
5996
23468
25692
10279
15618
525
25864
6496
6000
32018
33335
8723
6153
12517
9957
4465
7870
3122
30520
13991
18636
10304
27607
11992
36038
31373
13989
21132
22434
16731
32603
26555
23550
7064
4380
12208
4268
19369
16847
13381
19750
7607
8040
32944
11686
17946
23997
1136
13700
1112
5964
5858
3837
11020
17951
11525
47613
21683
5061
2820
4720
893
4369
18464
3690
34884
4084
13906
5950
10851
20104
16839
70
13602
5261
29411
11430
16040
22568
21263
226
16874
15366
14082
27041
231
6278
9831
2273
14760
9299
15362
27427
17601
4469
4837
1311
17796
17184
11029
5343
13003
13340
50529
15165
22570
8295
34618
32713
20062
39243
25963
3797
22372
16572
29545
25119
26663
6371
10238
30581
9867
14902
48222
11596
21067
32418
4733
18261
18391
43475
48357
6964
4710
55933
2251
6056
46196
11386
37769
3222
12389
39218
2708
1024
12844
26230
2327
23966
23945
2934
2720
26127
5020
10052
1927
1903
14286
3879
4657
4987
8620
26712
36596
15595
17945
20421
2120
31673
9954
17246
17105
14671
4405
4852
14829
15099
9582
20748
11409
3689
43425
2986
2779
3538
2175
15078
8064
2235
29280
30860
1559
44020
9377
10272
30521
2297
7439
9676
4532
16141
7508
4863
3528
11412
3557
7105
27758
4361
45067
5108
7281
4265
4946
4702
964
1598
6468
38052
6450
16085
3662
56523
4427
16146
20884
8327
9228
2977
361
5402
13404
3745
827
37089
13894
16159
30573
259
5619
43373
28690
8358
732
36131
114
6731
7841
10615
2827
8732
29233
4597
16185
15782
13422
3099
21471
34620
8220
17202
7943
13542
38197
33923
1585
22537
21718
25403
13371
36814
23407
3372
2510
14587
8525
19011
16971
6839
31099
32288
17290
12500
27814
4396
11934
12294
20729
22883
33805
18016
14055
1054
31891
29983
8735
11805
15264
14628
59
4308
19383
11357
21686
25322
25912
37895
28002
10560
16176
16032
19102
11928
24490
2607
21667
22071
15168
448
37143
11576
25686
5860
17302
14729
2753
30754
4551
6064
12605
39582
10309
5340
1013
33893
8994
10001
9968
776
5437
16389
14567
163
9059
6182
216
4344
32963
15772
13093
2150
13868
6235
5481
28588
47344
9809
5282
5192
12604
3880
12521
10044
5428
1978
13743
4195
46707
2301
1073
16355
6028
9269
22389
879
14601
2323
3054
3121
9072
5662
11483
18470
12314
15635
18245
8198
20232
39605
9946
20718
9286
23685
3772
7068
2588
49244
8758
42212
18946
584
10016
28366
23756
25055
7919
22358
7025
19727
33992
9969
1467
1194
7644
5004
8661
3449
1407
32322
1302
38964
19748
3931
4357
10191
10005
7642
18046
1217
9118
31501
8544
3350
8313
5577
15803
8411
30173
11486
42961
16441
15538
12578
13518
20789
33331
4704
31195
42030
13447
2987
12489
10979
1389
31704
14756
2590
13281
14184
9357
880
27811
5794
16760
1074
12820
16012
44568
1144
21122
5449
9571
10007
3224
32112
5405
12246
37434
6008
17451
29762
5129
2219
17015
42968
31149
20174
31582
2828
36888
30198
6761
14013
26817
49370
23665
18538
25296
26293
42423
9928
17034
9778
835
10597
5554
40804
35283
2605
72
1901
14035
34918
22685
42517
37975
22684
3440
30206
22406
12724
14553
3771
20508
10440
15712
3909
2019
8776
28152
17982
26785
5350
9004
18620
13385
7434
6880
9418
9945
24384
20024
46736
48633
16727
29484
34975
4355
4108
3862
18431
12735
8799
8453
11233
10651
4889
990
16379
5347
6316
11198
123
16610
6571
6017
23744
14379
762
25897
9519
15474
37377
15296
12841
4429
705
6400
781
323
11888
56561
20003
37408
13992
10167
4479
23000
32828
35226
31895
7227
6247
13058
1702
1236
24889
22636
19738
10415
4036
21896
15452
7401
1253
23234
18429
3762
20656
1176
2856
58965
7650
16041
8078
13806
8806
1014
50513
25516
17884
1027
1848
119
14213
8360
6634
57544
16062
19157
4556
4746
3663
43082
15417
2329
2885
17752
6823
11920
11328
33303
15567
19486
2405
17743
11659
10702
11093
848
17977
23848
25280
11972
32057
14484
433
34501
5480
28665
12311
28987
9177
20500
9343
12852
103
2139
53376
25433
5543
47322
12630
7732
2186
1189
851
2107
24005
42998
13552
4767
8086
38899
18586
13452
10633
26639
407
50137
1059
11990
5435
10000
4799
9888
29236
35650
31735
4974
46900
16067
6455
27400
29987
26635
32163
29972
7700
13522
22373
12641
6184
32234
50785
16456
9209
9277
27374
8001
468
8034
18728
7611
26315
10334
26228
11942
9048
6526
8524
1513
20436
1233
15623
7675
86
3648
35755
21727
17359
408
16837
8437
39153
42854
19681
21883
3416
5139
20869
2172
771
38985
15477
26627
17797
6691
23326
26243
12428
13605
2650
7774
3355
10773
4374
4155
17449
27974
35811
6507
7435
30379
2072
18547
56723
2692
36387
7736
29009
2943
17032
14545
30575
10262
16
24742
1130
15012
12883
21331
15281
9388
40624
43690
1240
23343
13693
14501
16755
31330
32362
37841
18613
7854
25274
26992
5436
9742
20575
13427
24371
316
3786
16868
5703
12150
3321
15950
615
9876
24132
20489
19591
13805
5001
15403
10543
6092
13082
1424
777
950
48309
24168
15060
40488
12076
7731
16562
670
43368
7176
1355
38136
14143
6363
34106
14620
11490
19410
10595
18443
13332
23163
173
4293
16751
27894
4919
7410
310
14079
11485
14239
20163
35461
31950
41518
1755
44178
14196
15910
12923
14672
13974
22687
29230
7246
11039
7261
4997
15044
1923
1153
8872
25872
9579
498
11816
3835
13039
11858
10015
4564
187
37801
48887
5338
18700
24382
7461
32443
3126
1147
18936
2215
14538
11438
14172
27296
32436
13921
7226
20188
34914
3075
18099
10252
7894
7539
242
15072
15515
24729
6935
18680
10158
7875
25952
21043
33411
6339
45239
6716
17383
14240
15259
22368
17440
29953
16112
34466
57470
12257
1306
2551
566
71568
22623
14805
17291
14518
6428
16110
6733
4321
2685
15826
3603
15587
15557
30336
3783
25751
7491
89174
6720
5665
17931
2421
39423
21960
3806
23490
22040
36201
37034
560
4508
5141
13570
19126
34833
5278
3886
13013
4938
20192
27314
33448
9
33639
23793
15064
5617
12225
6875
6414
21412
683
21846
1068
1078
24218
21312
4192
7361
139
18299
28431
12345
22463
8448
27090
64989
9993
13494
13123
29768
4133
16658
25273
22504
20111
16680
27848
11693
20046
28593
2672
7521
3674
32531
46798
31607
890
18115
12795
14886
4945
11086
69353
14065
8194
2407
49725
9656
16408
49911
17764
5806
2962
7225
43713
9872
1655
36468
53282
47999
30324
9911
19935
25851
3971
41081
165
4106
22250
5881
2114
2615
33533
34208
1006
16297
175
10802
31339
38354
8353
21003
11751
22794
74730
25221
9191
7648
19503
2979
12160
89523
52731
8912
2800
91401
22366
13242
7272
858
3506
28222
403
14287
43958
2724
536
36322
27737
15237
2741
7056
9675
2216
51635
35783
20285
16008
64465
15802
29876
76130
66314
14349
88500
21842
17780
5862
76063
24612
47902
39158
40490
4202
30789
10058
11006
32561
1466
2869
51783
1921
18727
3992
51251
37388
7740
88832
75144
43984
49822
91283
2603
5529
27932
60138
359
83080
76759
35511
72678
54231
2041
15103
8265
2765
17569
3808
16523
31164
30933
49643
3896
33167
6528
40678
2913
24468
16420
68449
90561
15785
22503
83419
11821
36385
77181
56392
76956
79693
3645
42944
12363
22534
84800
47229
80081
85733
27944
26984
56602
20231
22084
76519
55581
67956
75303
64823
71603
9665
13843
37893
1188
66281
932
3798
67421
91226
31849
53125
44402
78790
56287
10145
4257
10656
13352
30523
45916
79866
43376
90189
39331
14074
76590
66542
73194
86696
77894
56953
42429
44039
80514
74585
37721
41621
78494
51638
92908
76497
85803
83995
23604
26588
13125
83050
4449
83880
64016
799
11264
65725
80961
86998
87926
49552
22432
89470
89159
41348
44248
50085
47765
91400
18282
10170
64174
92804
88043
76
59632
25927
55896
81348
30088
8756
77017
3432
73247
22052
61079
42945
92146
11044
77686
1427
56537
20113
47406
35572
873
28182
16253
22630
89043
21507
73127
73594
91516
80155
88541
63753
89844
4566
19655
89349
30220
21657
36192
21478
7690
13502
14308
94196
56216
83004
28453
4736
83777
40068
73286
83484
3465
80897
76804
85098
70144
77006
82606
83522
72607
45302
67169
5439
39518
77029
80333
66663
130
76741
18117
53482
87562
73575
86604
30179
18912
85734
2587
16757
)


// ************************************************************************* //
