/*--------------------------------*- C++ -*----------------------------------*\
| =========                 |                                                 |
| \\      /  F ield         | OpenFOAM: The Open Source CFD Toolbox           |
|  \\    /   O peration     | Version:  plus.master.MPPICInterFoam            |
|   \\  /    A nd           | Web:      www.OpenFOAM.com                      |
|    \\/     M anipulation  |                                                 |
\*---------------------------------------------------------------------------*/
FoamFile
{
    version     2.0;
    format      ascii;
    class       surfaceScalarField;
    location    "9.8";
    object      alphaPhi;
}
// * * * * * * * * * * * * * * * * * * * * * * * * * * * * * * * * * * * * * //

dimensions      [0 3 -1 0 0 0 0];

internalField   nonuniform List<scalar> 
34319
(
-4.65797e-08
-3.02732e-08
6.87507e-06
1.83991e-08
8.60505e-08
-3.61923e-08
-6.28357e-08
6.81432e-06
8.05769e-08
-1.4492e-08
-7.43564e-08
6.45343e-06
8.05934e-08
3.46753e-10
-6.5728e-08
5.87772e-06
7.49445e-08
1.85576e-08
-8.36139e-08
5.19105e-06
8.22964e-08
3.48553e-08
-1.01718e-07
4.48083e-06
9.09583e-08
-1.13433e-07
3.78922e-06
4.46584e-08
9.56495e-08
-9.39126e-08
1.70572e-08
6.73278e-06
2.99869e-08
-6.61907e-08
-4.93229e-08
6.82974e-06
-4.76762e-08
-7.57929e-08
6.33624e-06
-2.86789e-08
-5.96483e-08
6.52533e-06
3.70443e-09
-8.70835e-08
5.90597e-06
3.09212e-08
-1.097e-07
5.02735e-06
-1.24961e-07
4.21415e-06
4.69002e-08
-8.1401e-08
1.26585e-08
5.22956e-06
6.25593e-08
-3.18249e-08
-6.1609e-08
4.23197e-06
-1.01507e-08
-5.94917e-08
4.96083e-06
-1.59486e-08
-4.59917e-08
6.08189e-06
1.2842e-08
-7.73057e-08
6.41128e-06
4.1905e-08
-1.06997e-07
5.51125e-06
-1.27138e-07
4.5717e-06
6.05798e-08
-1.44504e-07
-5.97249e-09
5.17549e-06
1.44283e-07
-2.78988e-08
-4.5705e-08
4.97335e-06
1.75844e-08
-5.57186e-08
4.32595e-06
2.72738e-09
-1.47598e-08
5.37123e-06
2.5724e-08
-5.83802e-08
6.63119e-06
5.5731e-08
-9.44747e-08
5.85568e-06
-1.21622e-07
4.82067e-06
7.69713e-08
-2.96941e-07
-7.33774e-08
7.90488e-06
3.38082e-07
-1.01119e-07
-4.85946e-08
6.45907e-06
-8.00389e-08
1.15928e-08
4.61954e-06
-4.28222e-08
-4.73181e-08
5.46015e-06
6.32189e-09
-7.42839e-08
6.83001e-06
5.74202e-08
-9.37093e-08
5.99256e-06
-1.18931e-07
4.92264e-06
8.9168e-08
-9.87455e-08
-4.81734e-08
6.80654e-06
2.75517e-07
-3.97175e-08
-3.46975e-08
4.52869e-06
-1.93847e-08
-8.2981e-09
4.20662e-06
-3.46142e-08
-5.79154e-08
5.99339e-06
1.26529e-08
-7.74816e-08
6.57602e-06
6.70384e-08
-9.07628e-08
5.891e-06
-1.17707e-07
4.86186e-06
1.04528e-07
-5.69618e-08
5.9987e-06
4.5812e-08
-9.95202e-08
-9.04959e-08
6.28176e-06
-6.63392e-08
-7.48108e-08
5.50165e-06
-5.60993e-08
-5.97024e-08
6.1615e-06
-1.01802e-07
1.37012e-08
6.50429e-06
-9.64947e-08
8.00944e-08
5.58452e-06
-9.87672e-08
4.64954e-06
1.29089e-07
-1.27797e-07
-1.29053e-08
9.3575e-09
6.83338e-06
-2.23043e-08
6.75929e-08
-2.21839e-08
1.48497e-08
6.77054e-06
3.86266e-08
-1.35772e-08
-5.83414e-09
6.41096e-06
3.9975e-08
-1.42216e-09
-2.57469e-08
5.84218e-06
4.90978e-08
1.96553e-08
-6.59981e-08
5.16752e-06
6.8547e-08
3.88305e-08
-9.43396e-08
4.47282e-06
8.35772e-08
-1.10063e-07
3.79747e-06
5.01595e-08
9.06971e-08
-8.34403e-08
4.42087e-08
6.2958e-06
6.42745e-09
-8.2411e-08
1.54274e-08
6.60704e-06
-7.36223e-08
4.59117e-10
6.02036e-06
-5.16996e-08
-1.25065e-08
6.41294e-06
-6.60914e-09
-7.05006e-08
5.86076e-06
2.95979e-08
-1.05975e-07
5.0029e-06
-1.25301e-07
4.20887e-06
5.00921e-08
-1.20853e-07
4.25614e-08
4.60533e-06
7.49142e-08
-5.12472e-08
-2.13455e-08
4.18264e-06
-5.03986e-08
-5.63486e-08
4.56576e-06
-6.1275e-08
-2.2634e-08
5.63275e-06
-1.21126e-08
-7.3548e-08
6.33058e-06
3.48291e-08
-1.13193e-07
5.47183e-06
-1.33565e-07
4.55379e-06
6.11844e-08
-2.6597e-07
1.1101e-07
4.75803e-06
1.97555e-07
-7.7595e-08
8.75067e-09
5.52761e-06
-1.76992e-08
-5.08777e-08
5.0399e-06
-4.64901e-08
-3.09701e-08
4.78614e-06
-3.89656e-09
-7.69507e-08
6.48183e-06
4.71805e-08
-1.12727e-07
5.80429e-06
-1.34877e-07
4.79228e-06
7.69513e-08
-5.12203e-07
2.07491e-08
5.78569e-06
2.6951e-07
-2.98096e-07
-1.50117e-08
6.54787e-06
-3.46284e-08
7.25588e-09
5.75746e-06
-6.72364e-08
-4.8363e-08
4.99031e-06
-9.90433e-09
-9.91734e-08
6.62339e-06
5.49488e-08
-1.17207e-07
5.93233e-06
-1.35782e-07
4.88689e-06
9.16571e-08
-2.68463e-07
-8.10509e-08
6.18164e-06
2.11287e-07
-1.30037e-07
-5.13168e-08
4.53393e-06
-4.49663e-08
-2.69315e-08
4.16327e-06
-6.54519e-08
-9.65707e-08
5.20532e-06
-1.09766e-09
-1.17407e-07
6.43988e-06
6.76342e-08
-1.20748e-07
5.82594e-06
-1.37445e-07
4.82237e-06
1.08966e-07
-1.02452e-07
5.22284e-06
5.31761e-08
-1.10769e-07
-1.28842e-07
5.18961e-06
-1.14615e-07
-9.77449e-08
4.64128e-06
-1.17583e-07
-7.89435e-08
5.84286e-06
-1.6924e-07
1.41704e-08
6.4063e-06
-1.4386e-07
8.6863e-08
5.51987e-06
-1.28535e-07
4.61079e-06
1.33984e-07
-1.45627e-07
6.15157e-08
-1.8013e-07
6.80024e-06
-4.51537e-08
1.96888e-07
5.66228e-08
-1.18333e-07
6.73641e-06
1.575e-07
7.0772e-08
-1.30231e-07
6.38079e-06
1.46302e-07
8.31476e-08
-1.27621e-07
5.82298e-06
1.3463e-07
9.64e-08
-1.37247e-07
5.16218e-06
1.29533e-07
1.0496e-07
-1.42989e-07
4.48185e-06
1.2557e-07
-1.41551e-07
3.82043e-06
1.05123e-07
1.18439e-07
2.18682e-08
-9.30898e-08
6.06699e-06
-1.33822e-08
-3.49933e-10
-3.04685e-08
6.2632e-06
2.24196e-08
-7.11113e-08
5.86351e-06
6.12043e-08
-1.08556e-07
6.309e-06
9.37677e-08
-1.44106e-07
5.83078e-06
1.12639e-07
-1.56336e-07
4.99752e-06
-1.57033e-07
4.22064e-06
1.16406e-07
-4.87455e-08
-5.14957e-08
4.09031e-06
4.94636e-08
-1.12755e-09
-6.43263e-08
4.12928e-06
1.50002e-08
-8.71715e-08
3.90146e-06
6.83407e-08
-7.03033e-08
5.40827e-06
1.13357e-07
-1.33224e-07
6.25887e-06
1.34614e-07
-1.57396e-07
5.45193e-06
-1.61733e-07
4.55482e-06
1.38441e-07
-1.2725e-07
2.08172e-08
4.66358e-06
1.09993e-07
-5.8343e-09
-3.4889e-08
6.17379e-06
7.98478e-10
-8.72707e-08
4.58275e-06
6.10427e-08
-7.68898e-08
4.37525e-06
1.34515e-07
-1.2387e-07
6.38027e-06
1.58809e-07
-1.48176e-07
5.77102e-06
-1.56653e-07
4.78376e-06
1.62413e-07
-1.41072e-07
-3.93952e-09
5.13626e-06
7.99356e-08
-5.94236e-08
-3.70407e-08
6.56463e-06
-3.8668e-09
-1.03922e-07
5.82362e-06
4.67869e-08
-7.35048e-08
4.54673e-06
1.44496e-07
-1.27813e-07
6.48052e-06
1.76418e-07
-1.3688e-07
5.88927e-06
-1.46974e-07
4.87118e-06
1.82566e-07
-1.40989e-07
-2.05888e-08
4.49903e-06
9.11221e-08
-3.03254e-08
-4.35352e-08
4.5117e-06
-2.77798e-09
-4.94208e-08
4.13473e-06
8.94488e-08
-8.33621e-08
4.86373e-06
1.63962e-07
-1.11295e-07
6.34414e-06
1.92924e-07
-1.17995e-07
5.77827e-06
-1.33994e-07
4.8029e-06
1.99612e-07
-4.48497e-09
4.84834e-06
3.64541e-08
-2.08773e-09
-9.95692e-09
4.46701e-06
-3.29968e-08
2.15514e-08
4.35605e-06
-6.2157e-08
1.0701e-07
5.70489e-06
-9.69749e-08
1.70778e-07
6.32409e-06
-9.78426e-08
2.01429e-07
5.47477e-06
-1.03336e-07
4.59173e-06
2.12988e-07
-1.26323e-07
9.42472e-08
-3.58213e-07
6.78155e-06
-3.12208e-08
3.13471e-07
1.20384e-07
-2.99337e-07
6.71716e-06
2.92602e-07
1.5491e-07
-2.93653e-07
6.369e-06
2.71011e-07
1.70797e-07
-2.44897e-07
5.82225e-06
2.29926e-07
1.77208e-07
-2.13427e-07
5.1733e-06
1.95998e-07
1.75992e-07
-1.92418e-07
4.50388e-06
1.7156e-07
-1.72067e-07
3.85253e-06
1.66815e-07
1.49167e-07
8.0949e-08
-2.35421e-07
6.04911e-06
-1.46515e-08
8.73018e-08
-1.47771e-07
6.21574e-06
1.32803e-07
-1.60161e-07
5.84385e-06
1.89937e-07
-2.24152e-07
6.27946e-06
2.02723e-07
-2.21447e-07
5.82216e-06
2.02416e-07
-2.04488e-07
5.00993e-06
-1.85095e-07
4.24538e-06
1.90823e-07
3.97636e-08
-1.23834e-07
4.18764e-06
2.09709e-08
7.32206e-08
-1.21275e-07
4.06994e-06
1.1215e-07
-1.44309e-07
3.78371e-06
2.36618e-07
-1.30358e-07
5.3947e-06
2.525e-07
-1.94368e-07
6.2265e-06
2.42922e-07
-1.96452e-07
5.45343e-06
-1.83228e-07
4.57172e-06
2.24171e-07
7.68707e-08
-1.20992e-07
4.53821e-06
2.05228e-09
9.40674e-08
-1.71635e-07
6.30482e-06
1.08702e-07
-1.14568e-07
4.25241e-06
2.21231e-07
-1.17567e-07
4.42307e-06
2.94269e-07
-1.64572e-07
6.3479e-06
2.79472e-07
-1.72107e-07
5.76157e-06
-1.68262e-07
4.79289e-06
2.55461e-07
1.03095e-07
-2.10687e-08
4.92789e-06
-7.81654e-10
1.22798e-07
-7.11618e-08
6.53623e-06
1.61594e-07
-1.38719e-07
4.46845e-06
2.11065e-07
-8.0041e-08
4.61847e-06
3.17464e-07
-1.31554e-07
6.43724e-06
3.02973e-07
-1.38888e-07
5.87065e-06
-1.44922e-07
4.87349e-06
2.77458e-07
2.09438e-08
1.29632e-08
4.45907e-06
4.46862e-08
1.29873e-07
-4.77745e-08
4.45122e-06
1.43613e-07
-5.02767e-08
4.07172e-06
2.96278e-07
-4.46885e-08
4.91143e-06
3.36485e-07
-7.41616e-08
6.30631e-06
3.15857e-07
-9.35795e-08
5.75371e-06
-1.15325e-07
4.80032e-06
2.88964e-07
5.11449e-08
4.86322e-06
2.43696e-08
9.46265e-08
1.07603e-07
4.53557e-06
7.20602e-08
1.74635e-07
4.47909e-06
3.96665e-08
2.98781e-07
5.78444e-06
1.35034e-08
3.14317e-07
6.27817e-06
-2.55341e-08
3.04366e-07
5.44976e-06
-5.85606e-08
4.58686e-06
2.85831e-07
-9.17684e-08
6.35942e-08
-3.95209e-07
6.73037e-06
1.89486e-08
3.6256e-07
1.34007e-07
-3.86891e-07
6.6683e-06
3.65456e-07
1.99665e-07
-3.65484e-07
6.32749e-06
3.41566e-07
2.38901e-07
-3.02335e-07
5.79071e-06
2.94835e-07
2.64804e-07
-2.63163e-07
5.15207e-06
2.58543e-07
2.82716e-07
-2.40767e-07
4.49196e-06
2.34703e-07
-2.20187e-07
3.85182e-06
2.90684e-07
2.12944e-07
5.13974e-08
-2.66192e-07
6.16323e-06
2.25745e-08
1.16966e-07
-2.03214e-07
6.25619e-06
1.83895e-07
-2.30002e-07
5.91838e-06
2.65865e-07
-2.72669e-07
6.23102e-06
2.93249e-07
-2.5806e-07
5.78451e-06
3.08741e-07
-2.37559e-07
4.9912e-06
-2.16266e-07
4.23676e-06
3.13516e-07
4.3209e-08
-1.83239e-07
4.71041e-06
5.49771e-08
8.24586e-08
-1.68656e-07
4.01396e-06
1.72756e-07
-1.04328e-07
3.96505e-06
3.2769e-07
-1.61453e-07
5.51893e-06
3.49299e-07
-2.13708e-07
6.16751e-06
3.49705e-07
-2.12111e-07
5.42746e-06
-1.96518e-07
4.55665e-06
3.44938e-07
8.3328e-08
-1.52127e-07
4.64868e-06
4.41772e-08
1.07451e-07
-1.51702e-07
4.8242e-06
1.15607e-07
-1.07245e-07
4.24016e-06
3.13869e-07
-1.00019e-07
4.64234e-06
3.95438e-07
-1.62488e-07
6.30598e-06
3.86156e-07
-1.68162e-07
5.7269e-06
-1.6225e-07
4.77133e-06
3.73444e-07
9.24063e-08
-6.35064e-08
6.05973e-06
1.21815e-07
1.16226e-07
-1.11429e-07
5.43641e-06
1.09336e-07
-6.24008e-08
4.4008e-06
3.18118e-07
-6.89786e-08
4.83171e-06
4.10823e-07
-1.09423e-07
6.42448e-06
4.02621e-07
-1.1621e-07
5.82695e-06
-1.20471e-07
4.84522e-06
3.89165e-07
5.94318e-08
2.22017e-09
4.27358e-06
7.33569e-08
1.27116e-07
-5.78552e-08
4.37601e-06
1.77358e-07
-7.74322e-09
3.98065e-06
3.77288e-07
-7.56195e-09
5.19543e-06
4.1693e-07
-3.44824e-08
6.24409e-06
4.05657e-07
-5.37787e-08
5.70257e-06
-7.31211e-08
4.76649e-06
3.92143e-07
5.64739e-08
5.30755e-06
4.14547e-08
1.12031e-07
1.1761e-07
5.21836e-06
1.33905e-07
2.18407e-07
5.06737e-06
1.30128e-07
3.55167e-07
6.03309e-06
8.53911e-08
3.78151e-07
6.2092e-06
2.86852e-08
3.83322e-07
5.39541e-06
-4.68105e-09
4.55055e-06
3.79389e-07
-3.28233e-08
1.96632e-08
-3.88838e-07
9.70768e-08
4.04341e-07
6.59908e-06
1.36849e-07
-4.12411e-07
4.17423e-07
6.54615e-06
2.39722e-07
-3.8813e-07
3.96643e-07
6.21621e-06
3.09694e-07
-3.32384e-07
3.60729e-07
5.69239e-06
3.66589e-07
-3.07138e-07
3.39534e-07
5.06283e-06
4.17497e-07
-2.97781e-07
3.28262e-07
4.41066e-06
-2.82706e-07
4.6026e-07
3.11535e-07
3.78039e-06
-9.32948e-09
-2.62734e-07
9.33434e-08
6.03225e-06
1.11524e-07
-2.15173e-07
6.26701e-06
2.15398e-07
-2.87117e-07
5.83487e-06
3.30859e-07
-2.84444e-07
6.11029e-06
3.89614e-07
-2.75043e-07
5.68685e-06
4.42001e-07
-2.67232e-07
4.90833e-06
-2.51074e-07
4.86941e-07
4.16037e-06
-3.68219e-08
-1.36047e-07
1.60465e-07
4.70041e-06
5.62806e-08
-1.64138e-07
3.86664e-06
2.36107e-07
-1.47506e-07
4.36478e-06
3.8739e-07
-1.84428e-07
5.45036e-06
4.39696e-07
-2.17247e-07
6.03777e-06
4.77e-07
-2.20155e-07
5.34305e-06
-2.06242e-07
5.13076e-07
4.4758e-06
-9.46606e-08
-5.50441e-08
2.35623e-07
4.37281e-06
3.29841e-08
-9.92917e-08
4.62783e-06
1.69736e-07
-8.55181e-08
4.0634e-06
4.16081e-07
-9.95261e-08
5.03304e-06
4.8841e-07
-1.47465e-07
6.1969e-06
5.09019e-07
-1.52564e-07
5.63868e-06
-1.4681e-07
5.34878e-07
4.68607e-06
-1.13503e-07
-8.01121e-08
3.40188e-07
5.6191e-06
3.45903e-08
-2.7442e-08
5.21023e-06
1.66396e-07
2.64089e-10
4.20874e-06
4.28341e-07
-2.22067e-08
5.26169e-06
4.97023e-07
-6.6989e-08
6.31913e-06
5.17005e-07
-7.58835e-08
5.73035e-06
-7.88152e-08
5.40384e-07
4.75394e-06
-4.87235e-08
5.61173e-08
2.87434e-07
5.23687e-06
7.1107e-08
5.67594e-08
4.18447e-06
2.20618e-07
7.7513e-08
3.79927e-06
4.08801e-07
3.91186e-08
5.10111e-06
4.73173e-07
1.4019e-08
6.10924e-06
5.01623e-07
4.80692e-09
5.59345e-06
-7.62967e-09
5.29268e-07
4.66765e-06
-1.20358e-08
1.55595e-07
1.76246e-07
5.48196e-06
7.88089e-08
2.15973e-07
5.3074e-06
2.05086e-07
1.94627e-07
5.19185e-06
3.50451e-07
1.30612e-07
5.93423e-06
4.18356e-07
9.16984e-08
6.07509e-06
4.64991e-07
7.86179e-08
5.27489e-06
4.97634e-07
6.56996e-08
4.44458e-06
6.60826e-08
-5.77326e-08
1.98501e-06
2.34657e-08
8.1024e-08
-5.67556e-08
2.05139e-06
1.91561e-08
8.79175e-08
-5.47311e-08
2.03479e-06
1.44556e-08
8.6144e-08
-5.24412e-08
1.95553e-06
9.78412e-09
7.58281e-08
-5.01128e-08
1.8282e-06
5.04768e-09
5.69346e-08
-4.78994e-08
1.65865e-06
6.90234e-10
2.79566e-08
-4.54413e-08
1.42749e-06
-3.81583e-09
-3.93207e-08
1.01872e-06
-1.06347e-08
7.03728e-08
-8.93794e-08
2.72834e-06
8.59697e-08
-9.28887e-08
2.66711e-06
9.25587e-08
-9.49226e-08
2.53253e-06
8.98923e-08
-9.62922e-08
2.34252e-06
7.82769e-08
-9.70748e-08
2.11097e-06
5.84139e-08
-9.72063e-08
1.84222e-06
3.14562e-08
-9.58085e-08
1.51413e-06
-8.82086e-08
9.90604e-07
8.43088e-08
-1.13397e-07
3.30557e-06
9.92938e-08
-1.22179e-07
3.15638e-06
1.04688e-07
-1.2933e-07
2.93707e-06
1.00241e-07
-1.35157e-07
2.66785e-06
8.63466e-08
-1.3961e-07
2.36295e-06
6.39024e-08
-1.42448e-07
2.02611e-06
3.44555e-08
-1.42541e-07
1.63203e-06
-1.33443e-07
1.02882e-06
9.99619e-08
-1.28303e-07
3.60973e-06
1.13628e-07
-1.41877e-07
3.43203e-06
1.17234e-07
-1.53945e-07
3.18487e-06
1.10624e-07
-1.64102e-07
2.88927e-06
9.42928e-08
-1.72176e-07
2.55972e-06
6.92655e-08
-1.77746e-07
2.1997e-06
3.7141e-08
-1.79393e-07
1.78216e-06
-1.69263e-07
1.14578e-06
1.12032e-07
-1.36922e-07
3.5634e-06
1.24596e-07
-1.52654e-07
3.42996e-06
1.26447e-07
-1.67546e-07
3.22376e-06
1.17665e-07
-1.80378e-07
2.96525e-06
9.90127e-08
-1.90825e-07
2.66878e-06
7.17401e-08
-1.98319e-07
2.33784e-06
3.77405e-08
-2.01301e-07
1.94539e-06
-1.9147e-07
1.32905e-06
1.22305e-07
-1.38361e-07
3.1578e-06
1.31159e-07
-1.54442e-07
3.13583e-06
1.30107e-07
-1.69868e-07
3.03408e-06
1.19017e-07
-1.83322e-07
2.87116e-06
9.86704e-08
-1.94445e-07
2.66143e-06
7.04498e-08
-2.02689e-07
2.40889e-06
3.64352e-08
-2.06507e-07
2.08843e-06
-1.97732e-07
1.54527e-06
1.3402e-07
2.45131e-06
-1.29242e-07
1.34773e-07
2.58929e-06
-1.45994e-07
1.28109e-07
2.63249e-06
-1.60486e-07
1.13276e-07
2.6034e-06
-1.72913e-07
9.0885e-08
2.51713e-06
-1.83377e-07
6.23844e-08
2.37836e-06
-1.91595e-07
3.03557e-08
2.16486e-06
-1.96419e-07
1.73537e-06
-1.9099e-07
7.2136e-08
-5.38999e-08
1.99834e-06
1.84621e-08
8.78116e-08
-5.25989e-08
2.07432e-06
1.37178e-08
9.52781e-08
-4.9621e-08
2.06808e-06
8.75418e-09
9.40421e-08
-4.65033e-08
1.99929e-06
3.97585e-09
8.43942e-08
-4.35084e-08
1.88222e-06
-7.87941e-10
6.63602e-08
-4.07727e-08
1.72278e-06
-5.17488e-09
3.90848e-08
-3.76158e-08
1.50073e-06
-9.52111e-09
-2.82727e-08
1.10211e-06
-1.57847e-08
7.57039e-08
-8.84132e-08
2.73722e-06
9.23892e-08
-9.06705e-08
2.68852e-06
9.93479e-08
-9.07531e-08
2.56675e-06
9.66135e-08
-9.03392e-08
2.38915e-06
8.46397e-08
-8.95404e-08
2.1691e-06
6.41086e-08
-8.82137e-08
1.9104e-06
3.5685e-08
-8.52739e-08
1.59053e-06
-7.62161e-08
1.07451e-06
8.81024e-08
-1.16376e-07
3.30667e-06
1.04526e-07
-1.22609e-07
3.17194e-06
1.10544e-07
-1.26905e-07
2.96726e-06
1.06219e-07
-1.30046e-07
2.71198e-06
9.21308e-08
-1.3206e-07
2.41971e-06
6.93582e-08
-1.32705e-07
2.09362e-06
3.93146e-08
-1.30817e-07
1.70798e-06
-1.20144e-07
1.1123e-06
1.03011e-07
-1.35267e-07
3.60258e-06
1.17807e-07
-1.44949e-07
3.43959e-06
1.21936e-07
-1.5355e-07
3.20742e-06
1.15504e-07
-1.60316e-07
2.92608e-06
9.91786e-08
-1.65248e-07
2.6094e-06
7.412e-08
-1.67997e-07
2.26027e-06
4.16599e-08
-1.6716e-07
1.85124e-06
-1.55064e-07
1.22246e-06
1.1577e-07
-1.46269e-07
3.55036e-06
1.2829e-07
-1.5735e-07
3.42989e-06
1.29945e-07
-1.68537e-07
3.23716e-06
1.20999e-07
-1.77647e-07
2.9916e-06
1.02363e-07
-1.84616e-07
2.70688e-06
7.53349e-08
-1.88977e-07
2.38594e-06
4.14203e-08
-1.89196e-07
2.00139e-06
-1.77058e-07
1.39237e-06
1.26368e-07
-1.4843e-07
3.14277e-06
1.34397e-07
-1.59924e-07
3.13039e-06
1.32422e-07
-1.71402e-07
3.03902e-06
1.20727e-07
-1.81016e-07
2.88628e-06
1.00299e-07
-1.88665e-07
2.68593e-06
7.25215e-08
-1.93844e-07
2.44151e-06
3.90362e-08
-1.95028e-07
2.12762e-06
-1.84153e-07
1.59123e-06
1.36507e-07
2.43852e-06
-1.3808e-07
1.35845e-07
2.58151e-06
-1.51418e-07
1.28189e-07
2.63106e-06
-1.62301e-07
1.13092e-07
2.60865e-06
-1.71151e-07
9.11856e-08
2.52876e-06
-1.78323e-07
6.37571e-08
2.3956e-06
-1.836e-07
3.26731e-08
2.18676e-06
-1.85788e-07
1.7624e-06
-1.78262e-07
1.25586e-07
-4.80658e-08
2.02013e-06
5.77855e-09
1.37049e-07
-4.50486e-08
2.10607e-06
1.74189e-09
1.38184e-07
-4.07769e-08
2.11046e-06
-2.71192e-09
1.28773e-07
-3.66555e-08
2.05262e-06
-7.13045e-09
1.09394e-07
-3.29602e-08
1.94638e-06
-1.16148e-08
8.07409e-08
-2.97502e-08
1.79712e-06
-1.5717e-08
4.29349e-08
-2.63756e-08
1.58448e-06
-1.97503e-08
-1.76014e-08
1.18791e-06
-2.53886e-08
1.38042e-07
-8.99744e-08
2.75759e-06
1.48719e-07
-8.82252e-08
2.72115e-06
1.48247e-07
-8.55031e-08
2.6121e-06
1.36442e-07
-8.28301e-08
2.44735e-06
1.13493e-07
-8.02905e-08
2.23966e-06
8.00829e-08
-7.76164e-08
1.99201e-06
3.81544e-08
-7.36908e-08
1.68015e-06
-6.43724e-08
1.15972e-06
1.58757e-07
-1.25375e-07
3.32188e-06
1.67511e-07
-1.25843e-07
3.20094e-06
1.64757e-07
-1.25747e-07
3.01041e-06
1.50275e-07
-1.25371e-07
2.76923e-06
1.24263e-07
-1.246e-07
2.49035e-06
8.76742e-08
-1.23038e-07
2.17603e-06
4.30433e-08
-1.19448e-07
1.79886e-06
-1.0788e-07
1.19909e-06
1.79469e-07
-1.50763e-07
3.61102e-06
1.84977e-07
-1.53633e-07
3.46199e-06
1.79044e-07
-1.56361e-07
3.24411e-06
1.61491e-07
-1.58477e-07
2.97696e-06
1.32602e-07
-1.59707e-07
2.6737e-06
9.33721e-08
-1.59515e-07
2.33637e-06
4.6052e-08
-1.56369e-07
1.93592e-06
-1.42826e-07
1.30361e-06
1.9518e-07
-1.65727e-07
3.55281e-06
1.96587e-07
-1.69773e-07
3.44476e-06
1.8693e-07
-1.7421e-07
3.26484e-06
1.66201e-07
-1.78023e-07
3.03207e-06
1.34832e-07
-1.80755e-07
2.75952e-06
9.3894e-08
-1.81735e-07
2.44934e-06
4.56731e-08
-1.79256e-07
2.0727e-06
-1.65145e-07
1.4604e-06
2.04818e-07
-1.69778e-07
3.14177e-06
2.00629e-07
-1.73907e-07
3.13882e-06
1.86752e-07
-1.78581e-07
3.05739e-06
1.63173e-07
-1.82836e-07
2.9148e-06
1.30344e-07
-1.86171e-07
2.72426e-06
8.93775e-08
-1.87882e-07
2.48864e-06
4.2668e-08
-1.86302e-07
2.18131e-06
-1.73313e-07
1.64191e-06
2.07532e-07
2.43702e-06
-1.6271e-07
1.96993e-07
2.58556e-06
-1.67317e-07
1.78989e-07
2.64155e-06
-1.70988e-07
1.53192e-07
2.62601e-06
-1.74335e-07
1.19997e-07
2.553e-06
-1.77186e-07
8.05321e-08
2.42615e-06
-1.79002e-07
3.71283e-08
2.22206e-06
-1.78332e-07
1.79501e-06
-1.68611e-07
1.90365e-07
-3.79133e-08
2.04346e-06
-8.81976e-09
2.01919e-07
-3.22146e-08
2.13873e-06
-1.17982e-08
2.00455e-07
-2.6617e-08
2.15367e-06
-1.49687e-08
1.86278e-07
-2.13884e-08
2.10661e-06
-1.82469e-08
1.60515e-07
-1.65939e-08
2.01051e-06
-2.1581e-08
1.24207e-07
-1.20069e-08
1.87007e-06
-2.4494e-08
7.82409e-08
-7.73241e-09
1.66746e-06
-2.88999e-08
-4.07934e-09
1.29923e-06
-3.08122e-08
2.13227e-07
-8.61593e-08
2.78357e-06
2.23149e-07
-7.96323e-08
2.75879e-06
2.20163e-07
-7.40626e-08
2.66269e-06
2.03943e-07
-6.90032e-08
2.51139e-06
1.74989e-07
-6.43936e-08
2.31662e-06
1.34751e-07
-5.99467e-08
2.08038e-06
8.13109e-08
-5.48548e-08
1.78088e-06
-4.51814e-08
1.28216e-06
2.42184e-07
-1.28388e-07
3.34621e-06
2.48745e-07
-1.23243e-07
3.23814e-06
2.42502e-07
-1.19119e-07
3.06189e-06
2.22659e-07
-1.1545e-07
2.83573e-06
1.89254e-07
-1.1194e-07
2.57155e-06
1.43368e-07
-1.08092e-07
2.27032e-06
8.36737e-08
-1.02608e-07
1.90655e-06
-8.97053e-08
1.32735e-06
2.67495e-07
-1.59633e-07
3.63037e-06
2.69333e-07
-1.56955e-07
3.49405e-06
2.58968e-07
-1.54702e-07
3.29029e-06
2.3544e-07
-1.52856e-07
3.03813e-06
1.98623e-07
-1.50876e-07
2.74975e-06
1.49489e-07
-1.48127e-07
2.42586e-06
8.69499e-08
-1.43025e-07
2.03919e-06
-1.28291e-07
1.42927e-06
2.82839e-07
-1.77754e-07
3.56569e-06
2.79142e-07
-1.76986e-07
3.46871e-06
2.64354e-07
-1.75983e-07
3.30117e-06
2.37719e-07
-1.75489e-07
3.08162e-06
1.99119e-07
-1.74757e-07
2.8223e-06
1.49443e-07
-1.73057e-07
2.52426e-06
8.74969e-08
-1.68672e-07
2.1606e-06
-1.537e-07
1.57348e-06
2.87097e-07
-1.82621e-07
3.14862e-06
2.77238e-07
-1.81944e-07
3.1539e-06
2.58311e-07
-1.81352e-07
3.0819e-06
2.29621e-07
-1.8128e-07
2.94953e-06
1.91059e-07
-1.81039e-07
2.76934e-06
1.43321e-07
-1.79916e-07
2.54345e-06
8.49019e-08
-1.76288e-07
2.24757e-06
-1.6247e-07
1.73568e-06
2.78897e-07
2.43944e-06
-1.77879e-07
2.65296e-07
2.59262e-06
-1.7518e-07
2.4401e-07
2.65457e-06
-1.72891e-07
2.14769e-07
2.6457e-06
-1.71551e-07
1.77805e-07
2.57956e-06
-1.70542e-07
1.33748e-07
2.45944e-06
-1.69108e-07
8.05803e-08
2.26454e-06
-1.65574e-07
1.86569e-06
-1.53039e-07
3.40483e-07
-2.49261e-08
2.05545e-06
-3.67814e-08
3.749e-07
-1.80302e-08
2.16203e-06
-3.95222e-08
3.89743e-07
-1.17615e-08
2.1929e-06
-4.22305e-08
3.79532e-07
-5.64399e-09
2.16748e-06
-4.49809e-08
3.39446e-07
3.28183e-10
2.09812e-06
-4.78462e-08
2.68051e-07
5.42295e-09
1.98656e-06
-5.05654e-08
1.72978e-07
1.03623e-08
1.80855e-06
-5.47722e-08
1.43431e-08
1.51496e-06
-5.80823e-08
3.6523e-07
-8.205e-08
2.789e-06
4.03594e-07
-7.39624e-08
2.77635e-06
4.24099e-07
-6.73321e-08
2.69776e-06
4.20497e-07
-6.10498e-08
2.5704e-06
3.87151e-07
-5.53236e-08
2.40559e-06
3.20055e-07
-5.02288e-08
2.20304e-06
2.20124e-07
-4.53812e-08
1.93641e-06
-3.68668e-08
1.55326e-06
3.9331e-07
-1.28649e-07
3.34444e-06
4.31038e-07
-1.21666e-07
3.24813e-06
4.52142e-07
-1.15962e-07
3.08943e-06
4.49951e-07
-1.10756e-07
2.88762e-06
4.17663e-07
-1.05971e-07
2.65445e-06
3.49973e-07
-1.01455e-07
2.38914e-06
2.44362e-07
-9.64923e-08
2.06309e-06
-8.6236e-08
1.62093e-06
4.14302e-07
-1.61281e-07
3.62219e-06
4.46795e-07
-1.5668e-07
3.49666e-06
4.64055e-07
-1.52348e-07
3.30951e-06
4.59197e-07
-1.48636e-07
3.08089e-06
4.24993e-07
-1.45137e-07
2.82311e-06
3.55492e-07
-1.41531e-07
2.53539e-06
2.47626e-07
-1.36873e-07
2.18732e-06
-1.26274e-07
1.71692e-06
4.20934e-07
-1.80281e-07
3.553e-06
4.45251e-07
-1.77509e-07
3.46535e-06
4.55577e-07
-1.74026e-07
3.31262e-06
4.45306e-07
-1.71296e-07
3.11464e-06
4.07303e-07
-1.68652e-07
2.88389e-06
3.35834e-07
-1.65663e-07
2.61993e-06
2.29459e-07
-1.61251e-07
2.29145e-06
-1.50446e-07
1.82724e-06
4.13494e-07
-1.88108e-07
3.13507e-06
4.27667e-07
-1.85513e-07
3.1479e-06
4.29545e-07
-1.82401e-07
3.08846e-06
4.1262e-07
-1.79891e-07
2.97517e-06
3.70148e-07
-1.77445e-07
2.82075e-06
2.97122e-07
-1.74699e-07
2.62573e-06
1.95176e-07
-1.70802e-07
2.3594e-06
-1.60084e-07
1.94084e-06
3.93699e-07
2.42931e-06
-1.92179e-07
3.99726e-07
2.58774e-06
-1.8654e-07
3.93888e-07
2.65945e-06
-1.81307e-07
3.70468e-07
2.66636e-06
-1.77004e-07
3.23696e-07
2.62221e-06
-1.73218e-07
2.49692e-07
2.5285e-06
-1.69607e-07
1.53052e-07
2.35581e-06
-1.65142e-07
2.01163e-06
-1.53638e-07
5.73278e-07
-4.68364e-10
-6.82914e-08
2.01135e-06
6.75502e-07
7.08686e-09
-6.74532e-08
2.12035e-06
7.57274e-07
1.20925e-08
-6.54833e-08
2.16458e-06
8.07242e-07
1.61296e-08
-6.22203e-08
2.16357e-06
8.09447e-07
1.96334e-08
-5.74676e-08
2.13366e-06
7.34225e-07
2.29115e-08
-5.07061e-08
2.08947e-06
5.0825e-07
2.62834e-08
-4.07688e-08
2.0498e-06
3.00057e-08
-2.2754e-08
2.01488e-06
6.08679e-07
-6.70223e-08
2.73393e-06
7.22077e-07
-5.64727e-08
2.72654e-06
8.16235e-07
-4.84645e-08
2.66414e-06
8.77846e-07
-4.08246e-08
2.56567e-06
8.88338e-07
-3.30373e-08
2.44766e-06
8.12938e-07
-2.46416e-08
2.32586e-06
5.66444e-07
-1.48291e-08
2.22386e-06
-7.19909e-10
2.15027e-06
6.3222e-07
-1.21561e-07
3.2799e-06
7.47813e-07
-1.12138e-07
3.18824e-06
8.47642e-07
-1.03786e-07
3.04492e-06
9.17872e-07
-9.52386e-08
2.87173e-06
9.38052e-07
-8.60049e-08
2.68711e-06
8.67962e-07
-7.56014e-08
2.51e-06
6.10567e-07
-6.2779e-08
2.36816e-06
-4.22498e-08
2.27296e-06
6.44407e-07
-1.59934e-07
3.55112e-06
7.53903e-07
-1.53357e-07
3.42846e-06
8.50998e-07
-1.45709e-07
3.25435e-06
9.21855e-07
-1.37168e-07
3.05188e-06
9.4538e-07
-1.27405e-07
2.84084e-06
8.79433e-07
-1.16007e-07
2.64152e-06
6.22391e-07
-1.01545e-07
2.48284e-06
-7.81203e-08
2.3751e-06
6.37104e-07
-1.82361e-07
3.47878e-06
7.34829e-07
-1.77509e-07
3.3918e-06
8.22199e-07
-1.6964e-07
3.24912e-06
8.8647e-07
-1.60327e-07
3.07343e-06
9.07766e-07
-1.49559e-07
2.88461e-06
8.46086e-07
-1.37122e-07
2.70256e-06
6.02473e-07
-1.21681e-07
2.55507e-06
-9.74901e-08
2.44909e-06
6.12625e-07
-1.92976e-07
3.06229e-06
6.96321e-07
-1.86597e-07
3.07331e-06
7.70876e-07
-1.76598e-07
3.02078e-06
8.25014e-07
-1.64733e-07
2.92536e-06
8.4115e-07
-1.5144e-07
2.80647e-06
7.83665e-07
-1.36774e-07
2.68293e-06
5.61429e-07
-1.20084e-07
2.58025e-06
-9.68193e-08
2.50193e-06
5.67789e-07
-1.97578e-07
2.36377e-06
6.37372e-07
-1.84539e-07
2.5161e-06
6.99577e-07
-1.69884e-07
2.59054e-06
7.45369e-07
-1.53761e-07
2.60961e-06
7.59513e-07
-1.35735e-07
2.59241e-06
7.10494e-07
-1.15095e-07
2.55601e-06
5.1489e-07
-8.95878e-08
2.52119e-06
-5.12388e-08
2.48061e-06
1.80072e-08
1.05551e-07
4.45861e-06
-7.59324e-08
2.82493e-08
6.78891e-08
5.84038e-06
-4.54309e-08
5.25538e-08
3.27046e-08
6.17471e-06
-1.49046e-08
6.97392e-08
1.52903e-08
6.4011e-06
8.48132e-09
6.86422e-08
1.21705e-08
6.54353e-06
2.40744e-08
5.19584e-08
5.43783e-09
6.59784e-06
3.82169e-08
2.66515e-08
-8.15808e-09
6.51585e-06
5.22295e-08
-2.9506e-08
5.98839e-06
6.69399e-08
1.82015e-07
1.14811e-07
5.62544e-06
1.43381e-07
7.17058e-08
6.79117e-06
1.57808e-07
5.64726e-08
7.9533e-06
1.67044e-07
5.11367e-08
8.00223e-06
1.59469e-07
6.04676e-08
7.99236e-06
1.28829e-07
6.6058e-08
7.90268e-06
7.49087e-08
6.51246e-08
7.70504e-06
5.42197e-08
7.00925e-06
2.03543e-07
1.32964e-08
6.70278e-06
1.23063e-07
4.2154e-08
7.34326e-06
1.51224e-07
6.1518e-08
9.00239e-06
1.6496e-07
8.21674e-08
8.96012e-06
1.6396e-07
1.04999e-07
8.82377e-06
1.38158e-07
1.23508e-07
8.64905e-06
8.2777e-08
1.36533e-07
8.34613e-06
1.39251e-07
7.51806e-06
1.39258e-07
-1.66422e-08
6.32836e-06
1.05257e-07
2.065e-08
7.49464e-06
1.25318e-07
6.99485e-08
9.05577e-06
1.41464e-07
1.07431e-07
8.94677e-06
1.4423e-07
1.39806e-07
8.78826e-06
1.24191e-07
1.68354e-07
8.58785e-06
7.65585e-08
1.94995e-07
8.26021e-06
2.14764e-07
7.41004e-06
3.29378e-08
-3.69033e-08
5.57364e-06
3.29256e-08
2.80131e-08
7.55132e-06
5.17682e-08
8.01686e-08
8.0397e-06
7.10767e-08
1.20631e-07
8.0107e-06
7.90077e-08
1.5639e-07
7.93036e-06
7.00159e-08
1.89379e-07
7.76619e-06
4.35004e-08
2.22419e-07
7.50893e-06
2.49603e-07
6.7497e-06
-1.15949e-08
6.62251e-09
5.54988e-06
-1.28528e-08
5.12704e-08
6.22612e-06
-2.54402e-09
9.27307e-08
6.42358e-06
6.92768e-09
1.27984e-07
6.52291e-06
1.13401e-08
1.59432e-07
6.54604e-06
1.07265e-08
1.88463e-07
6.4817e-06
5.48113e-09
2.16365e-07
6.31929e-06
2.36325e-07
5.71097e-06
-6.42792e-10
4.0192e-06
4.07409e-08
-7.49427e-09
4.41266e-06
7.24598e-08
-7.51365e-09
4.69833e-06
1.01647e-07
-5.50547e-09
4.89185e-06
1.27326e-07
-4.06682e-09
5.00421e-06
1.51015e-07
-3.12743e-09
5.04251e-06
1.73141e-07
-2.01278e-09
4.96053e-06
1.9328e-07
4.52158e-06
2.08167e-07
5.96986e-08
6.36753e-08
4.36537e-06
-5.35103e-08
9.84507e-08
3.12507e-08
5.7899e-06
-1.77957e-08
1.1973e-07
2.88431e-08
6.12033e-06
4.00196e-09
1.15359e-07
3.80012e-08
6.35139e-06
1.6314e-08
9.46639e-08
3.6012e-08
6.50129e-06
2.6681e-08
6.55011e-08
2.20174e-08
6.56686e-06
3.89393e-08
3.28692e-08
1.33257e-09
6.49547e-06
5.23002e-08
-2.55144e-08
5.97995e-06
6.69403e-08
8.38774e-08
1.7038e-08
4.42062e-06
1.0341e-07
2.28962e-08
6.47695e-06
1.42025e-07
5.17551e-08
7.89532e-06
1.60814e-07
8.22471e-08
7.93915e-06
1.56169e-07
9.3588e-08
7.93492e-06
1.27907e-07
8.88932e-08
7.86382e-06
7.56592e-08
7.84644e-08
7.68069e-06
5.8728e-08
7.00058e-06
1.00529e-08
-4.03151e-08
4.2785e-06
-3.18905e-08
-6.47888e-09
6.47306e-06
2.45055e-08
4.93663e-08
8.9486e-06
8.5712e-08
9.56344e-08
8.88586e-06
1.20006e-07
1.22983e-07
8.76068e-06
1.16864e-07
1.37203e-07
8.60426e-06
7.54465e-08
1.44569e-07
8.31118e-06
1.41861e-07
7.51175e-06
2.12459e-08
-7.22254e-08
5.44768e-06
-3.26201e-08
-6.42225e-09
6.93166e-06
8.77359e-09
6.21682e-08
9.00213e-06
6.39459e-08
1.09789e-07
8.8778e-06
9.98621e-08
1.44813e-07
8.73248e-06
1.034e-07
1.72904e-07
8.54893e-06
7.08128e-08
1.98264e-07
8.23902e-06
2.16487e-07
7.40705e-06
-1.51778e-08
-5.59442e-08
4.9783e-06
-3.4524e-08
2.92766e-08
7.3702e-06
-3.84787e-09
8.59479e-08
7.98515e-06
3.17901e-08
1.25614e-07
7.95942e-06
5.45384e-08
1.60666e-07
7.89204e-06
5.85807e-08
1.92924e-07
7.75219e-06
4.04655e-08
2.24819e-07
7.50158e-06
2.50231e-07
6.75652e-06
-5.16981e-08
1.24359e-08
5.41844e-06
-5.14288e-08
6.65692e-08
6.1815e-06
-3.45994e-08
1.05255e-07
6.38758e-06
-1.83075e-08
1.3618e-07
6.49635e-06
-6.92578e-09
1.64797e-07
6.53051e-06
-6.3791e-10
1.92371e-07
6.49174e-06
7.84857e-10
2.17422e-07
6.32631e-06
2.34255e-07
5.72775e-06
-4.29016e-08
3.99682e-06
5.57435e-08
-4.4472e-08
4.39245e-06
8.82954e-08
-3.86445e-08
4.68446e-06
1.13492e-07
-3.09842e-08
4.88591e-06
1.34618e-07
-2.33315e-08
5.00733e-06
1.54896e-07
-1.53594e-08
5.05373e-06
1.7414e-07
-6.90554e-09
4.97809e-06
1.91681e-07
4.54519e-06
2.03735e-07
8.42928e-08
2.53021e-08
4.31683e-06
3.79539e-10
1.21665e-07
1.98252e-08
5.72201e-06
1.34923e-08
1.31431e-07
2.95475e-08
6.06256e-06
1.82668e-08
1.19925e-07
3.48397e-08
6.30632e-06
2.1933e-08
9.7601e-08
2.4603e-08
6.46892e-06
2.97228e-08
6.81949e-08
8.24446e-09
6.54854e-06
4.02794e-08
3.39616e-08
-1.22904e-08
6.48947e-06
5.27491e-08
-4.0239e-08
5.98756e-06
6.67541e-08
1.23666e-07
8.74574e-09
3.66249e-06
2.36711e-07
4.40557e-08
6.37797e-06
2.61705e-07
8.52982e-08
7.81458e-06
2.57108e-07
9.75699e-08
7.88113e-06
2.27176e-07
9.08209e-08
7.89578e-06
1.75385e-07
7.6652e-08
7.8468e-06
1.00624e-07
6.17234e-08
7.68194e-06
4.03998e-08
7.02067e-06
7.29387e-08
3.37107e-08
3.9026e-06
1.97438e-07
5.78258e-08
6.21459e-06
2.67939e-07
1.14949e-07
8.83417e-06
2.93229e-07
1.34354e-07
8.82397e-06
2.77794e-07
1.40597e-07
8.72761e-06