/*--------------------------------*- C++ -*----------------------------------*\
| =========                 |                                                 |
| \\      /  F ield         | OpenFOAM: The Open Source CFD Toolbox           |
|  \\    /   O peration     | Version:  plus.master.MPPICInterFoam            |
|   \\  /    A nd           | Web:      www.OpenFOAM.com                      |
|    \\/     M anipulation  |                                                 |
\*---------------------------------------------------------------------------*/
FoamFile
{
    version     2.0;
    format      ascii;
    class       volScalarField;
    location    "9.8";
    object      nut;
}
// * * * * * * * * * * * * * * * * * * * * * * * * * * * * * * * * * * * * * //

dimensions      [0 2 -1 0 0 0 0];

internalField   nonuniform List<scalar> 
11822
(
0.000773781
0.000808572
0.000824768
0.000824271
0.000808685
0.00077988
0.000738406
0.000822805
0.000859248
0.000876599
0.000872853
0.000853113
0.000820756
0.000777684
0.000856604
0.000889473
0.000918336
0.000912047
0.000886089
0.00084904
0.000803005
0.000871682
0.000883547
0.000927477
0.000932731
0.000904295
0.000863063
0.000814509
0.000888289
0.000883209
0.000913712
0.000930017
0.000903122
0.000860784
0.000811339
0.000854888
0.000873111
0.000898669
0.000907578
0.000880742
0.000840909
0.000792684
0.000800495
0.000843477
0.000862433
0.000860981
0.000839537
0.000804469
0.000757738
0.000781083
0.000816675
0.000832794
0.000832411
0.00081694
0.000788041
0.000746228
0.000829873
0.000868017
0.000884205
0.000880518
0.000861132
0.000828902
0.000785668
0.000862911
0.000897145
0.000927042
0.000919257
0.000893751
0.000856994
0.000810955
0.000873475
0.000888378
0.000933732
0.000941095
0.00091172
0.000870779
0.000822314
0.000888481
0.000895282
0.000922503
0.000938035
0.000910239
0.000868167
0.000818888
0.000866107
0.000881051
0.000904487
0.000913362
0.000886734
0.000847757
0.000799872
0.00080525
0.000847845
0.000864546
0.000864191
0.000844923
0.000810948
0.000764565
0.000787224
0.000823468
0.000839779
0.000839934
0.000825084
0.00079631
0.000754144
0.00082805
0.00086951
0.000885808
0.000885059
0.000868323
0.000837
0.00079378
0.000848453
0.000900127
0.000921071
0.000917022
0.000899149
0.000864614
0.00081903
0.000855254
0.000922148
0.000942959
0.000933024
0.000915335
0.00087787
0.000830215
0.000820241
0.000897455
0.000934291
0.000929056
0.000912805
0.000874856
0.000826568
0.000809609
0.000871516
0.000905645
0.00090383
0.000889973
0.000854413
0.00080735
0.000782355
0.0008233
0.00085252
0.000862234
0.000849623
0.000817686
0.000771782
0.000796074
0.000832554
0.000849247
0.000849403
0.000834274
0.00080489
0.000761907
0.000836627
0.000876978
0.000894442
0.000894412
0.000877867
0.000846067
0.00080205
0.00085695
0.000904529
0.000921374
0.000925567
0.00090877
0.000873942
0.000827607
0.000857747
0.000911153
0.000933307
0.000941073
0.000924773
0.000887207
0.000838866
0.0008409
0.000897065
0.000945648
0.000938797
0.000922048
0.000884017
0.000835092
0.000819709
0.000876387
0.000913353
0.000911778
0.000898893
0.000863272
0.00081557
0.000785945
0.000828839
0.000859408
0.000868586
0.000857827
0.000825968
0.00077946
0.000806226
0.000843202
0.000860468
0.000860354
0.000844599
0.00081474
0.000771707
0.000850449
0.000889103
0.000908209
0.000907281
0.000889284
0.000856417
0.000811893
0.000872457
0.000918334
0.000938218
0.000941362
0.000921437
0.000884854
0.000837583
0.000879714
0.000922512
0.000949474
0.000956104
0.000937996
0.000898372
0.000848881
0.00086756
0.000911059
0.000929742
0.000950598
0.000935106
0.000895008
0.000844958
0.000844191
0.000892505
0.000924772
0.000929723
0.000911537
0.000873821
0.000825123
0.000803714
0.000850944
0.000878447
0.0008842
0.000869213
0.000835745
0.000788543
0.000817283
0.000855242
0.000873211
0.000873437
0.00085853
0.000830836
0.000791741
0.000863879
0.000904648
0.000924005
0.000921552
0.000902742
0.000870906
0.000829413
0.00089565
0.000934693
0.0009628
0.000960295
0.000936041
0.000898876
0.000853708
0.000901708
0.000925972
0.000971695
0.000980582
0.000953905
0.000912383
0.000864338
0.00089704
0.000915469
0.000964505
0.000976015
0.000950845
0.000908776
0.000860141
0.000859313
0.000910826
0.000942275
0.000948976
0.000925469
0.000887066
0.000840385
0.000823319
0.000874998
0.000899211
0.000899363
0.000881526
0.000848838
0.000804526
0.000689182
0.000640735
0.000582421
0.000511608
0.000423816
0.000312184
0.000168465
1.82212e-05
0.000726948
0.000676079
0.000616817
0.000545359
0.000456189
0.000340824
0.00018795
2.05728e-05
0.000751116
0.000699224
0.000639191
0.000567095
0.000476905
0.000359147
0.00020054
2.22396e-05
0.000761771
0.000709282
0.000648738
0.000576179
0.000485405
0.000366566
0.000205609
2.30048e-05
0.00075802
0.000705434
0.000644781
0.000572077
0.000481212
0.00036257
0.000202642
2.27514e-05
0.000739635
0.000687727
0.000627473
0.000554979
0.000464568
0.000347464
0.000191944
2.15242e-05
0.000706234
0.000656837
0.00059755
0.000525585
0.000436194
0.000322029
0.000174236
1.94938e-05
0.000696496
0.000647399
0.000588236
0.000516379
0.000427357
0.000314355
0.000169221
1.83237e-05
0.000734563
0.000683098
0.000623019
0.000550516
0.000460058
0.000343181
0.000188742
2.0678e-05
0.000758798
0.00070639
0.000645589
0.000572468
0.000480976
0.000361655
0.000201396
2.23446e-05
0.000769368
0.00071642
0.000655149
0.000581589
0.000489522
0.000369115
0.000206482
2.31023e-05
0.0007654
0.000712384
0.00065103
0.000577346
0.000485212
0.000365035
0.000203481
2.28351e-05
0.000746686
0.000694345
0.000633394
0.000559935
0.000468291
0.000349729
0.000192702
2.15899e-05
0.000712851
0.000662976
0.000602968
0.000530041
0.000439468
0.000323966
0.000174866
1.95401e-05
0.000703788
0.000653978
0.000593933
0.000521015
0.000430747
0.000316357
0.000169887
1.84072e-05
0.000742244
0.000690101
0.000629149
0.00055557
0.00046382
0.000345459
0.00018955
2.07644e-05
0.000766614
0.0007136
0.00065195
0.000577758
0.000484956
0.000364099
0.000202275
2.24319e-05
0.000777144
0.00072365
0.000661554
0.00058693
0.000493549
0.000371592
0.000207369
2.31828e-05
0.000773008
0.000719472
0.000657303
0.000582558
0.000489117
0.000367414
0.000204314
2.29019e-05
0.000754016
0.000701127
0.000639357
0.000564839
0.000471913
0.000351892
0.000193434
2.16393e-05
0.000719727
0.000669267
0.000608431
0.000534457
0.000442651
0.000325805
0.000175461
1.95729e-05
0.000710765
0.000660259
0.000599442
0.000525592
0.000434151
0.000318312
0.000170282
1.85561e-05
0.000749706
0.000696809
0.000635075
0.000560589
0.000467678
0.000347807
0.000190157
2.09331e-05
0.000774361
0.000720552
0.000658098
0.000583006
0.000489055
0.000366661
0.000202987
2.2603e-05
0.000784973
0.000730668
0.000667743
0.000592205
0.000497675
0.000374185
0.000208102
2.33462e-05
0.000780726
0.000726377
0.000663358
0.000587669
0.000493066
0.000369861
0.000204996
2.30472e-05
0.000761428
0.000707731
0.000645097
0.000569605
0.000475509
0.000354053
0.000194009
2.17587e-05
0.000726583
0.000675364
0.000613664
0.000538697
0.000445736
0.00032757
0.000175891
1.96635e-05
0.00072091
0.000670792
0.000610273
0.000536248
0.000443717
0.000325552
0.000174183
1.8951e-05
0.000759678
0.00070724
0.000646063
0.000571787
0.000478125
0.00035599
0.00019467
2.14548e-05
0.000784205
0.000730763
0.000668934
0.000594253
0.000499798
0.000375265
0.000207777
2.31967e-05
0.000794688
0.000740627
0.000678263
0.000603148
0.000508195
0.000382667
0.00021281
2.39317e-05
0.000790254
0.000736055
0.000673455
0.000598041
0.000502929
0.000377742
0.000209314
2.35517e-05
0.000770692
0.00071706
0.00065464
0.000579155
0.000484344
0.000360934
0.000197683
2.21371e-05
0.000735494
0.000684226
0.000622468
0.000547166
0.000453236
0.000333161
0.000178753
1.99097e-05
0.000745984
0.000700324
0.000644107
0.000572916
0.000479691
0.000354365
0.000187215
2.19208e-05
0.000782005
0.000734776
0.000679063
0.000609137
0.000516376
0.000388062
0.00020988
2.49201e-05
0.000804631
0.000756476
0.000700611
0.00063115
0.000538675
0.000408819
0.000224171
2.69694e-05
0.000814022
0.000765053
0.000708652
0.000638972
0.000546424
0.000416109
0.000229355
2.77405e-05
0.000809185
0.000759785
0.000702775
0.000632423
0.000539482
0.000409619
0.00022497
2.71106e-05
0.000789831
0.00074057
0.000683004
0.00061168
0.000518236
0.000389921
0.000211531
2.52081e-05
0.000755464
0.000707706
0.000649596
0.00057704
0.000483187
0.000357743
0.00018979
2.23652e-05
0.000744673
0.000691077
0.000631023
0.000557698
0.00046527
0.000344858
0.000187116
2.46371e-05
0.000802417
0.000735679
0.000668409
0.000593703
0.000500301
0.000376718
0.000209197
2.81718e-05
0.000836603
0.000765502
0.000691614
0.000614911
0.000520436
0.000395002
0.000222199
3.03022e-05
0.000832887
0.000764328
0.000694827
0.00061912
0.000524801
0.000399213
0.000225475
3.06447e-05
0.000803205
0.000744749
0.000681282
0.000606755
0.000513165
0.000388792
0.000218186
2.91144e-05
0.00076974
0.000715352
0.00065374
0.000579807
0.000487079
0.000365226
0.000201785
2.61259e-05
0.000723916
0.000673504
0.000613179
0.000539934
0.000448476
0.000330772
0.000178319
2.23206e-05
0.000746041
0.000694289
0.00063479
0.000561003
0.000467541
0.000345818
0.00018702
2.45887e-05
0.000802621
0.000734016
0.000669966
0.00059627
0.000502525
0.000377842
0.000209157
2.81252e-05
0.000826666
0.00075713
0.000690813
0.000616863
0.000522699
0.000396434
0.000222393
3.02736e-05
0.000833235
0.000764956
0.000696994
0.000622319
0.000527768
0.000401087
0.000225873
3.06395e-05
0.00080837
0.000748877
0.000685704
0.000611111
0.000516716
0.000390908
0.00021874
2.91367e-05
0.000775638
0.000721332
0.000659478
0.000584817
0.000490853
0.000367389
0.000202421
2.61687e-05
0.00073088
0.000680289
0.000619294
0.000545012
0.000452189
0.000332919
0.000178998
2.23808e-05
0.00073788
0.000693988
0.000636709
0.000563213
0.000469028
0.0003462
0.000186632
2.45192e-05
0.000762013
0.000723829
0.000669425
0.000598261
0.00050464
0.000379014
0.000209196
2.80921e-05
0.000777867
0.000740148
0.000689304
0.000619191
0.000525731
0.000398688
0.000223168
3.03012e-05
0.000795197
0.000751688
0.000696932
0.000625504
0.000531383
0.000403749
0.000226878
3.06961e-05
0.000795047
0.000747127
0.00068881
0.00061545
0.000520661
0.000393626
0.000219737
2.91984e-05
0.000777013
0.0007258
0.000664857
0.000589891
0.000494862
0.000369941
0.000203314
2.62344e-05
0.000737175
0.000686861
0.00062543
0.000550205
0.000456067
0.000335256
0.00017981
2.24499e-05
0.0007402
0.000696992
0.000639722
0.000565533
0.000470262
0.000346328
0.000186112
2.44517e-05
0.000767894
0.000727075
0.000673024
0.00060142
0.000506766
0.000379805
0.000208938
2.80466e-05
0.000785376
0.000745562
0.000694122
0.000623425
0.000528928
0.000400404
0.000223456
3.03096e-05
0.000798513
0.000756041
0.000702104
0.000630258
0.000535041
0.000405814
0.000227335
3.0724e-05
0.000801555
0.00075331
0.000694698
0.000620558
0.000524444
0.000395739
0.000220252
2.92418e-05
0.000784905
0.000732919
0.000671161
0.000595073
0.000498597
0.000372035
0.000203907
2.62983e-05
0.000745145
0.000693979
0.000631564
0.000555132
0.000459602
0.000337298
0.000180461
2.25304e-05
0.000753627
0.000705216
0.000645149
0.000569175
0.000472572
0.000347488
0.000186223
2.44407e-05
0.000790009
0.000741267
0.000681144
0.000606295
0.000509555
0.000381037
0.000208928
2.80433e-05
0.000819844
0.000767759
0.000704908
0.000629431
0.000532175
0.000401722
0.000223357
3.03177e-05
0.000823522
0.000773177
0.000711813
0.000636197
0.000538502
0.00040739
0.00022743
3.07564e-05
0.000818995
0.000764788
0.000702695
0.000626138
0.000528122
0.00039771
0.00022065
2.93079e-05
0.000796039
0.000741556
0.000678047
0.000600457
0.000502568
0.000374509
0.000204737
2.63981e-05
0.00075395
0.000701453
0.00063794
0.000560433
0.000463734
0.000340027
0.000181536
2.2638e-05
0.000767901
0.000715545
0.000653635
0.000577157
0.000480645
0.000354823
0.000189085
2.52516e-05
0.000816805
0.000755438
0.000690586
0.000613813
0.000516615
0.00038751
0.000211511
2.88611e-05
0.000848672
0.000784527
0.000714869
0.000636789
0.000538684
0.000407693
0.000225764
3.11659e-05
0.000852847
0.000789723
0.000721764
0.000643755
0.000545411
0.000413864
0.000230197
3.16781e-05
0.000836123
0.000776355
0.000711697
0.000634243
0.000536237
0.000405391
0.000224134
3.03252e-05
0.000807126
0.000751315
0.000687356
0.000610007
0.000512596
0.000383887
0.000209024
2.74904e-05
0.000764473
0.000711955
0.00064894
0.000572219
0.000475986
0.000350899
0.00018627
2.37664e-05
0.000720809
0.000670018
0.000609737
0.000536894
0.000446177
0.000329448
0.000177739
2.17962e-05
0.000753738
0.000700216
0.000638711
0.000565241
0.000473659
0.000354405
0.000195342
2.37747e-05
0.000770115
0.000716051
0.000654161
0.000580481
0.000488579
0.000368213
0.000205427
2.47296e-05
0.000770728
0.000717148
0.000655623
0.000582251
0.000490632
0.000370503
0.000207543
2.45477e-05
0.000756607
0.000704072
0.000643417
0.000570784
0.000479986
0.000361308
0.000201425
2.32954e-05
0.000729432
0.000678278
0.000618733
0.000546989
0.000457467
0.000341566
0.000187962
2.11175e-05
0.000689434
0.000641025
0.000582657
0.000511756
0.000423831
0.000312019
0.000168205
1.83522e-05
0.000728174
0.00067704
0.000616107
0.000542257
0.000450188
0.000331858
0.000178568
2.18772e-05
0.000761665
0.000707814
0.000645691
0.000571228
0.000478261
0.000357295
0.000196431
2.38786e-05
0.000778247
0.000723937
0.000661451
0.000586777
0.000493475
0.000371347
0.000206672
2.48497e-05
0.000778951
0.000725097
0.000662939
0.000588563
0.000495554
0.000373614
0.000208734
2.46841e-05
0.000764804
0.00071188
0.000650502
0.000576816
0.000484632
0.000364272
0.000202563
2.34134e-05
0.000737392
0.000685709
0.000625358
0.000552542
0.000461668
0.000344175
0.000188957
2.12295e-05
0.000696892
0.000647827
0.000588603
0.000516644
0.000427462
0.000314254
0.000169015
1.84571e-05
0.000735359
0.000684175
0.000622667
0.000547795
0.000454352
0.000334416
0.000179521
2.19653e-05
0.000769424
0.000715563
0.000652868
0.000577364
0.000482962
0.00036026
0.000197594
2.39853e-05
0.000786281
0.000731966
0.000668877
0.000593144
0.000498381
0.000374468
0.000207919
2.49725e-05
0.000787187
0.00073316
0.000670309
0.000594844
0.000500337
0.000376629
0.000209908
2.48111e-05
0.000773094
0.000719738
0.000657565
0.000582762
0.000489129
0.000367071
0.000203633
2.35244e-05
0.000745415
0.000693103
0.000631879
0.000557943
0.000465705
0.00034665
0.000189899
2.13305e-05
0.00070431
0.000654533
0.000594417
0.000521375
0.000430921
0.000316306
0.000169743
1.85387e-05
0.000743588
0.000691626
0.000629093
0.00055297
0.000458092
0.000336611
0.000180264
2.20608e-05
0.000778224
0.000723658
0.000659948
0.000583174
0.000487276
0.000362898
0.000198561
2.41084e-05
0.000795341
0.000740285
0.000676171
0.000599184
0.000502934
0.000377309
0.000208987
2.51195e-05
0.000796142
0.000741313
0.000677447
0.00060078
0.000504857
0.000379454
0.000210918
2.49718e-05
0.000781627
0.000727429
0.000664293
0.000588355
0.000493371
0.000369722
0.000204541
2.36849e-05
0.000753295
0.000700172
0.000638066
0.000563115
0.000469647
0.000349081
0.000190678
2.14939e-05
0.000711413
0.00066092
0.000600003
0.000526005
0.000434378
0.00031835
0.000170301
1.86853e-05
0.00075236
0.000699383
0.000635863
0.000558722
0.000462669
0.000339701
0.000181568
2.21818e-05
0.000787685
0.000732139
0.00066752
0.000589821
0.000492799
0.000366845
0.000200374
2.42896e-05
0.000805198
0.000749199
0.000684298
0.000606533
0.000509256
0.000382003
0.000211246
2.53632e-05
0.000805958
0.000750392
0.000685978
0.000608747
0.000511911
0.000384847
0.000213593
2.52798e-05
0.000791237
0.000736653
0.000673296
0.000597044
0.000501274
0.00037583
0.00020768
2.40394e-05
0.000762888
0.000709754
0.000647714
0.000572597
0.000478281
0.000355745
0.000194263
2.18727e-05
0.000721334
0.000671078
0.000610322
0.000536065
0.000443358
0.000325129
0.000173923
1.90406e-05
0.000763582
0.0007111
0.000648515
0.000572461
0.000476917
0.000352215
0.000187158
2.34566e-05
0.000799726
0.000745026
0.000681918
0.000606004
0.000510151
0.0003827
0.000208191
2.59639e-05
0.000818146
0.000763477
0.000700745
0.000625474
0.000529898
0.000401112
0.000221032
2.74648e-05
0.000820032
0.000766552
0.000705087
0.000631021
0.000536247
0.000407236
0.000225099
2.77619e-05
0.000807232
0.000755655
0.000696019
0.000623415
0.000529593
0.000401184
0.000220404
2.67975e-05
0.000782113
0.000732812
0.000674971
0.000603436
0.000510244
0.000383168
0.000207494
2.4743e-05
0.000745255
0.000699045
0.000642247
0.000570655
0.000477408
0.000352599
0.000186368
2.18305e-05
0.000709411
0.000660066
0.000600423
0.000527852
0.00043768
0.0003227
0.000174382
1.9853e-05
0.000754574
0.000702305
0.000641254
0.000567603
0.000475529
0.000355917
0.000196749
2.32239e-05
0.000787004
0.000733115
0.000670665
0.000595862
0.000502259
0.000379374
0.000212697
2.59695e-05
0.000804561
0.000749201
0.000685906
0.000610361
0.000515874
0.000391215
0.000220609
2.76742e-05
0.000804513
0.00074755
0.000684513
0.000609044
0.000514497
0.000389602
0.000218981
2.80182e-05
0.000785021
0.000728406
0.000666173
0.000591326
0.0004975
0.000374147
0.000207743
2.68534e-05
0.000744918
0.000692677
0.000631976
0.000558072
0.000465446
0.000345132
0.000187387
2.43426e-05
0.000715967
0.000666172
0.000605826
0.000532306
0.000440971
0.000324692
0.000175122
1.98865e-05
0.000760991
0.000708511
0.000646922
0.000572397
0.000479142
0.000358134
0.000197569
2.32474e-05
0.000792689
0.00073893
0.000676214
0.000600707
0.000505979
0.000381658
0.000213498
2.59774e-05
0.000808748
0.000754146
0.000690975
0.000614965
0.000519483
0.00039342
0.000221291
2.76677e-05
0.000807607
0.000751645
0.000689001
0.000613181
0.000517753
0.000391588
0.000219544
2.79945e-05
0.000787967
0.000732117
0.000670288
0.000595114
0.000500415
0.00037577
0.000208052
2.68145e-05
0.000748543
0.00069658
0.0006359
0.000561514
0.000467883
0.000346272
0.000187419
2.42972e-05
0.000722837
0.000672482
0.000611314
0.000536735
0.000444147
0.000326509
0.000175687
1.9905e-05
0.00076782
0.000715087
0.000652837
0.0005773
0.000482747
0.000360267
0.000198287
2.32583e-05
0.000798494
0.000745132
0.00068214
0.000605808
0.00050983
0.000383989
0.000214303
2.59782e-05
0.000811677
0.000759088
0.000696382
0.000619939
0.000523391
0.000395848
0.000222133
2.76706e-05
0.000806281
0.000754904
0.000693558
0.000617728
0.000521466
0.000393941
0.000220331
2.79863e-05
0.000783111
0.000733858
0.000673873
0.000598924
0.000503467
0.000377517
0.000208467
2.67843e-05
0.000744472
0.000697549
0.000638569
0.000564282
0.000469851
0.000347074
0.000187295
2.42432e-05
0.000729799
0.000678645
0.000616572
0.00054096
0.000447228
0.000328342
0.00017628
1.9974e-05
0.000775428
0.00072187
0.000658625
0.000581958
0.000486147
0.000362294
0.000198938
2.3311e-05
0.000806251
0.000752273
0.000688345
0.000610822
0.000513453
0.000386084
0.000214914
2.60125e-05
0.000818536
0.000766111
0.00070276
0.000625164
0.000527136
0.00039795
0.000222704
2.76783e-05
0.000811724
0.000761333
0.000699622
0.000622806
0.000525078
0.000395882
0.000220789
2.79724e-05
0.000787155
0.000739139
0.000678944
0.000603114
0.000506329
0.000378896
0.000208621
2.67491e-05
0.000747522
0.000701382
0.00064219
0.000567091
0.000471502
0.000347543
0.000186993
2.41888e-05
0.000738379
0.000686922
0.000624599
0.000548561
0.000453893
0.000333278
0.000178734
2.01677e-05
0.000784232
0.000729932
0.00066613
0.00058889
0.000492201
0.000366804
0.000201104
2.34884e-05
0.000815958
0.000760598
0.000695583
0.000617121
0.000518721
0.000389885
0.000216592
2.61498e-05
0.000830428
0.000775381
0.000710131
0.000631083
0.000531735
0.000401046
0.000223913
2.77612e-05
0.000825441
0.000771349
0.000707054
0.000628373
0.00052911
0.000398373
0.000221604
2.80085e-05
0.000801561
0.000748821
0.0006858
0.000608037
0.00050972
0.000380868
0.00020916
2.67561e-05
0.000758996
0.000709352
0.000647769
0.000570986
0.000474078
0.000348939
0.000187268
2.41796e-05
0.000756564
0.00070798
0.000648772
0.000575216
0.00048084
0.000355692
0.000188795
2.23739e-05
0.000798525
0.000746318
0.000685218
0.000610679
0.000515368
0.00038736
0.000210895
2.56033e-05
0.000828191
0.000773716
0.000710467
0.000634226
0.000537481
0.000407356
0.000225259
2.80663e-05
0.000842875
0.000787019
0.00072231
0.000644668
0.000546714
0.000415388
0.000231145
2.9404e-05
0.000840131
0.000782925
0.000717791
0.000639622
0.000541254
0.000410029
0.000227351
2.93533e-05
0.000816679
0.000760093
0.000695587
0.000617791
0.00051995
0.000390501
0.000213606
2.7834e-05
0.00077191
0.000719524
0.000656613
0.000579646
0.000482947
0.000356977
0.000190534
2.50462e-05
2.37915e-05
0.000156004
0.000228826
0.000273006
0.000302311
0.000320598
0.000329269
0.000328615
2.3595e-05
0.000154088
0.00022574
0.0002693
0.000298372
0.000316707
0.000325643
0.000325445
2.34242e-05
0.000152772
0.00022358
0.00026665
0.0002955
0.000313822
0.000322919
0.000323023
2.33552e-05
0.000152357
0.000222878
0.000265749
0.000294479
0.000312744
0.000321841
0.000322001
2.34184e-05
0.000152976
0.000223855
0.000266896
0.000295648
0.000313823
0.000322761
0.000322738
2.35868e-05
0.000154491
0.000226273
0.000269773
0.000298636
0.000316667
0.000325292
0.000324871
2.38131e-05
0.000156737
0.000229969
0.00027414
0.000303145
0.000320978
0.000329199
0.000328273
2.73778e-05
0.000175075
0.000254949
0.000304816
0.00033754
0.000356754
0.000364314
0.000361232
2.71004e-05
0.000172425
0.000250841
0.00029997
0.000332454
0.000351766
0.000359678
0.000357174
2.68688e-05
0.000170628
0.000247981
0.000296502
0.000328731
0.000348049
0.000356179
0.000354072
2.67972e-05
0.000170173
0.000247228
0.000295527
0.000327617
0.000346854
0.000354961
0.000352896
2.69119e-05
0.000171286
0.000248939
0.000297498
0.000329594
0.000348656
0.00035647
0.000354064
2.71685e-05
0.000173716
0.000252686
0.00030186
0.000334043
0.000352818
0.000360088
0.000356994
2.75053e-05
0.00017713
0.000258106
0.000308062
0.000340287
0.000358658
0.000365269
0.000361403
3.13864e-05
0.000196171
0.000285587
0.000343876
0.000380825
0.000400255
0.000405049
0.000397464
3.09748e-05
0.000192568
0.00028015
0.000337615
0.00037438
0.000394021
0.000399296
0.000392435
3.06206e-05
0.000190149
0.000276321
0.000333091
0.00036963
0.000389351
0.000394941
0.000388604
3.05324e-05
0.000189711
0.00027555
0.000332107
0.00036851
0.000388142
0.000393688
0.000387373
3.07376e-05
0.000191644
0.000278419
0.000335336
0.000371703
0.000391034
0.000396112
0.000389247
3.11601e-05
0.000195513
0.000284206
0.000341887
0.000378257
0.000397095
0.000401328
0.000393371
3.16774e-05
0.000200598
0.000291919
0.000350424
0.000386651
0.000404798
0.000408036
0.000398948
3.69234e-05
0.00021735
0.000324094
0.000394449
0.000435689
0.000453461
0.00045269
0.000437488
3.6394e-05
0.000212392
0.000316953
0.000386474
0.000427726
0.000445969
0.000445932
0.000431696
3.59331e-05
0.000208885
0.000311785
0.000380603
0.00042179
0.000440308
0.000440783
0.000427284
3.58711e-05
0.000208428
0.000311077
0.000379724
0.000420808
0.000439253
0.000439681
0.000426203
3.61935e-05
0.000211607
0.000315589
0.000384685
0.000425636
0.000443596
0.000443329
0.000429049
3.68103e-05
0.000217668
0.000324202
0.000394146
0.000434888
0.000452044
0.000450563
0.000434698
3.75182e-05
0.000225028
0.000334726
0.000405431
0.000445727
0.000461811
0.000458938
0.000441531
4.95852e-05
0.000240565
0.000379413
0.000464718
0.000507449
0.000518921
0.000507862
0.000480723
4.89292e-05
0.000234162
0.000369891
0.000454458
0.000497685
0.000510152
0.000500266
0.000474394
4.82768e-05
0.000229352
0.000362612
0.000446608
0.000490223
0.00050341
0.000494412
0.000469612
4.82546e-05
0.000228975
0.000361962
0.000445874
0.000489481
0.000502643
0.000493615
0.000468879
4.87243e-05
0.000233485
0.000368605
0.000453042
0.000496311
0.000508677
0.000498621
0.000472788
4.95051e-05
0.000241884
0.000380866
0.000466135
0.000508722
0.000519754
0.000507977
0.000479919
5.00145e-05
0.000251776
0.000394745
0.000480621
0.000522255
0.000531645
0.000517935
0.000487871
7.57761e-05
0.000310184
0.000482881
0.000572931
0.000604464
0.000598087
0.000566491
0.000522146
7.52821e-05
0.000301987
0.000470725
0.000560114
0.000592713
0.000588007
0.00055834
0.000516176
7.4809e-05
0.000295866
0.000461078
0.000549826
0.000583358
0.000579946
0.000551589
0.00051094
7.49003e-05
0.000295698
0.00046065
0.000549302
0.00058289
0.00057946
0.0005511
0.000510515
7.53946e-05
0.000302101
0.00047004
0.000559073
0.000591937
0.000587208
0.000557238
0.000514755
7.60141e-05
0.000313533
0.000486709
0.000576284
0.000607711
0.000600885
0.000568473
0.00052165
7.61851e-05
0.000325789
0.000504142
0.000594152
0.000624073
0.000614876
0.000579862
0.000530575
2.70884e-05
0.00018626
0.000278519
0.000331197
0.000362089
0.000377827
0.000381511
0.000374551
2.72145e-05
0.000187906
0.00028118
0.000334307
0.000365352
0.000381099
0.0003847
0.000377571
2.7201e-05
0.000188548
0.000282239
0.000335548
0.000366677
0.000382471
0.000386094
0.000378947
2.71125e-05
0.000188322
0.00028182
0.000335083
0.000366273
0.000382194
0.00038598
0.000379002
2.69881e-05
0.000187402
0.000280181
0.000333258
0.000364561
0.000380746
0.000384866
0.000378237
2.68136e-05
0.000185734
0.000277271
0.000330013
0.000361444
0.000377984
0.000382568
0.000376443
2.65481e-05
0.000183266
0.000273067
0.000325234
0.000356722
0.000373649
0.000378786
0.00037328
3.18213e-05
0.000217852
0.000324059
0.000383447
0.000416553
0.000431274
0.000431654
0.00041999
3.19672e-05
0.000219902
0.000327327
0.000387167
0.000420397
0.000435122
0.000435444
0.000423642
3.19392e-05
0.000220636
0.000328536
0.000388514
0.000421817
0.000436602
0.000436973
0.000425188
3.18149e-05
0.000220154
0.000327863
0.000387711
0.000421082
0.000436023
0.000436592
0.000425027
3.16408e-05
0.000218722
0.000325485
0.000385111
0.000418661
0.000433951
0.000434945
0.000423831
3.14046e-05
0.000216315
0.000321312
0.000380608
0.000414418
0.0004302
0.000431786
0.000421312
3.10579e-05
0.000212843
0.00031536
0.000374033
0.000408044
0.000424401
0.000426734
0.000417078
3.73026e-05
0.000255633
0.000377907
0.000444943
0.000479899
0.00049235
0.000487576
0.000469052
3.74691e-05
0.000258223
0.000381755
0.000449204
0.000484221
0.000496665
0.000491875
0.000473274
3.74326e-05
0.000259125
0.000383092
0.000450652
0.00048574
0.000498274
0.000493562
0.000474998
3.72783e-05
0.000258391
0.000382115
0.000449537
0.000484733
0.000497443
0.000492921
0.000474568
3.70422e-05
0.000256092
0.000378916
0.000446105
0.000481592
0.000494729
0.000490686
0.000472848
3.67337e-05
0.000252631
0.000373311
0.000440287
0.000476213
0.000489967
0.000486603
0.000469499
3.63026e-05
0.000247808
0.000365301
0.000431781
0.000468125
0.00048263
0.000480178
0.000464075
4.45731e-05
0.000299681
0.000441958
0.000517378
0.000553255
0.00056152
0.000548992
0.000520562
4.48001e-05
0.000302745
0.000446051
0.000521758
0.000557672
0.000566019
0.000553602
0.000525211
4.48046e-05
0.000303603
0.000447222
0.000523039
0.000559103
0.000567671
0.00055543
0.000527105
4.46413e-05
0.000302419
0.000445818
0.000521592
0.000557852
0.000566627
0.000554526
0.000526299
4.43004e-05
0.000298895
0.000441639
0.000517397
0.000554088
0.000563296
0.000551639
0.000523915
4.38229e-05
0.0002938
0.000434784
0.000510573
0.00054784
0.000557638
0.000546598
0.000519604
4.32267e-05
0.000287149
0.000424669
0.000500457
0.000538349
0.000548895
0.000538757
0.000512863
5.13994e-05
0.000357456
0.000520007
0.000603642
0.000638608
0.000639586
0.000615539
0.000572827
5.12621e-05
0.000360581
0.000523292
0.000606814
0.000642114
0.000643688
0.000620161
0.000577751
5.11039e-05
0.000360523
0.000523154
0.000606834
0.000642632
0.00064489
0.00062189
0.00057973
5.1023e-05
0.000358471
0.000520865
0.000604807
0.000640924
0.000643451
0.000620565
0.000578205
5.10066e-05
0.000353248
0.0005158
0.00060046
0.000636953
0.000639599
0.000616912
0.000574936
5.11214e-05
0.000345927
0.00050852
0.000593994
0.000630804
0.000633446
0.00061092
0.000569453
5.1237e-05
0.000335098
0.000497154
0.000583494
0.000620821
0.000623713
0.000601672
0.000561216
6.76156e-05
0.000443662
0.000625081
0.000712583
0.000741323
0.000727856
0.000683544
0.000618484
6.60384e-05
0.000444908
0.000624534
0.000712387
0.000742534
0.000731028
0.000688152
0.000623649
6.51628e-05
0.000441057
0.000620367
0.000708992
0.000740549
0.000730836
0.000689376
0.00062544
6.50771e-05
0.000438899
0.000617349
0.000706039
0.000737846
0.000728369
0.000687092
0.000622826
6.65513e-05
0.000434321
0.000614873
0.000703581
0.00073462
0.000724055
0.000682246
0.00061832
6.89192e-05
0.000426372
0.000611427
0.000700385
0.000730145
0.000717741
0.000674847
0.000611244
7.07846e-05
0.000412841
0.000601601
0.000691331
0.000720491
0.000707121
0.000663726
0.000601253
2.61719e-05
0.000179971
0.000267517
0.000318807
0.000350224
0.000367535
0.000373297
0.000368527
2.56906e-05
0.000176018
0.000260938
0.000311083
0.000342288
0.000359945
0.000366368
0.000362412
2.51896e-05
0.00017178
0.000253915
0.000302805
0.00033372
0.000351665
0.000358713
0.000355561
2.4779e-05
0.000167699
0.000247268
0.000294959
0.000325531
0.000343643
0.000351166
0.000348674
2.44513e-05
0.000164052
0.000241483
0.00028809
0.000318282
0.000336459
0.000344336
0.000342391
2.42077e-05
0.000160982
0.000236741
0.000282425
0.000312258
0.000330449
0.0003386
0.000337114
2.39951e-05
0.000158357
0.000232615
0.000277511
0.000307057
0.000325285
0.000333689
0.000332616
3.05651e-05
0.000208222
0.00030755
0.000365239
0.00039934
0.000416322
0.000419552
0.000410911
2.99453e-05
0.000202677
0.000298323
0.000354699
0.000388766
0.000406396
0.00041063
0.000403149
2.92854e-05
0.000196741
0.000288575
0.000343556
0.000377511
0.000395735
0.000400945
0.000394617
2.87256e-05
0.000191071
0.000279502
0.000333174
0.000366918
0.000385525
0.000391451
0.000386018
2.82881e-05
0.000186059
0.000271721
0.000324208
0.000357641
0.000376438
0.000382864
0.000378139
2.79661e-05
0.000181889
0.000265435
0.000316931
0.00035007
0.000368982
0.000375791
0.000371649
2.76742e-05
0.000178317
0.000259989
0.000310647
0.000343571
0.00036263
0.000369809
0.000366193
3.56637e-05
0.000241355
0.000354707
0.000420304
0.000457013
0.000472421
0.000471147
0.000456358
3.48435e-05
0.00023358
0.000342089
0.000406441
0.000443457
0.000459915
0.000460058
0.000446843
3.39568e-05
0.00022534
0.00032899
0.000392028
0.000429283
0.000446751
0.000448303
0.000436668
3.32161e-05
0.000217571
0.000317091