/*--------------------------------*- C++ -*----------------------------------*\
| =========                 |                                                 |
| \\      /  F ield         | OpenFOAM: The Open Source CFD Toolbox           |
|  \\    /   O peration     | Version:  plus.master.MPPICInterFoam            |
|   \\  /    A nd           | Web:      www.OpenFOAM.com                      |
|    \\/     M anipulation  |                                                 |
\*---------------------------------------------------------------------------*/
FoamFile
{
    version     2.0;
    format      ascii;
    class       volScalarField;
    location    "3.8";
    object      k;
}
// * * * * * * * * * * * * * * * * * * * * * * * * * * * * * * * * * * * * * //

dimensions      [0 2 -2 0 0 0 0];

internalField   nonuniform List<scalar> 
11822
(
0.0304541
0.0334603
0.0356002
0.0366514
0.0364076
0.0349571
0.0324938
0.0333435
0.0368495
0.0394362
0.0407363
0.0404906
0.0386711
0.0357504
0.0354765
0.0395116
0.0425605
0.0441244
0.043914
0.0415944
0.0381049
0.0364707
0.0407446
0.0436992
0.0453448
0.0458396
0.0430699
0.0391315
0.0360851
0.0404138
0.0432822
0.0451709
0.045071
0.0423646
0.0384864
0.0342666
0.0382071
0.0410614
0.0426528
0.0421145
0.039685
0.0362394
0.031275
0.0346508
0.0370299
0.0380927
0.0376429
0.0357526
0.0328111
0.0311593
0.0342053
0.0364364
0.0376484
0.0375506
0.0361286
0.0335187
0.0338965
0.0373742
0.0401286
0.0416354
0.0416805
0.0399335
0.0369017
0.0357852
0.0400096
0.0422714
0.0439277
0.0448862
0.0427989
0.0392615
0.0365086
0.0405749
0.0433067
0.044744
0.045277
0.0441238
0.040181
0.0360413
0.0402442
0.0438775
0.0454591
0.0454082
0.043248
0.039385
0.0342887
0.0380788
0.0410372
0.0424365
0.0425273
0.0403803
0.0369592
0.0313641
0.0346588
0.0370381
0.0381677
0.0380035
0.0362881
0.0333436
0.0328689
0.0362714
0.0387271
0.0400524
0.0399074
0.0381504
0.0350163
0.0358778
0.039738
0.0427315
0.0447338
0.0445042
0.0424352
0.0387581
0.0378131
0.0423008
0.0451745
0.0459354
0.0458824
0.0454677
0.0412945
0.0386099
0.0439958
0.0454966
0.045492
0.0457241
0.0466222
0.0421834
0.0378844
0.0424038
0.0433577
0.0441442
0.0460469
0.0457147
0.0411887
0.0357556
0.0398435
0.0429709
0.0447183
0.044716
0.04235
0.0383665
0.0323968
0.0359729
0.0385759
0.0398757
0.0396066
0.0376286
0.0343033
0.0352122
0.0392283
0.0420529
0.0432924
0.0428776
0.0405349
0.03663
0.0387584
0.0431605
0.0459341
0.0460213
0.047726
0.0454796
0.0408201
0.0409541
0.0446389
0.0511139
0.0505176
0.0496573
0.0489143
0.0436042
0.0416232
0.0450068
0.0495726
0.0489116
0.0501593
0.0500404
0.0444321
0.0406412
0.0449717
0.0467349
0.0474561
0.049641
0.0487276
0.0431213
0.0378963
0.0425716
0.0459706
0.0478345
0.0475542
0.0445257
0.0397841
0.0338088
0.0378316
0.0407195
0.0420276
0.041488
0.0390471
0.0352129
0.0377823
0.0425862
0.0460531
0.0473681
0.0462174
0.0430004
0.038185
0.0420226
0.0474061
0.0504951
0.0525636
0.052083
0.0487706
0.0428508
0.0447806
0.0496041
0.0477041
0.0563153
0.0558605
0.0529019
0.0459281
0.045564
0.0478178
0.0497689
0.0548212
0.0559988
0.0537085
0.0466029
0.043712
0.0492614
0.0522801
0.0538857
0.0545076
0.0515155
0.0448169
0.0401182
0.0456313
0.0499691
0.0513505
0.0502797
0.0464255
0.0409411
0.0352017
0.0397023
0.0429632
0.0441421
0.0431819
0.0402255
0.0358777
0.0402796
0.0459124
0.0501066
0.051499
0.0494857
0.0452611
0.0395661
0.0452226
0.0520464
0.0565967
0.0584672
0.0569026
0.0518225
0.0446327
0.048447
0.0554081
0.0562732
0.057614
0.0614149
0.0566856
0.047965
0.0490079
0.0547881
0.0552676
0.0619655
0.0613264
0.0573188
0.0484991
0.0465224
0.0535903
0.0581222
0.0601012
0.0593086
0.0539523
0.0462154
0.0421133
0.0483804
0.0535178
0.0551073
0.052825
0.0480274
0.0418686
0.0365007
0.0413857
0.0449427
0.0460928
0.0446693
0.0412009
0.0364661
0.0292566
0.0263223
0.0232732
0.0201797
0.0170757
0.0139041
0.010315
0.00462422
0.0320443
0.0285984
0.0250808
0.0215508
0.0180603
0.0145639
0.0107078
0.00468009
0.0340767
0.0303033
0.0264103
0.0225285
0.0187341
0.0149892
0.0109356
0.00469336
0.034904
0.0309684
0.0268998
0.0228712
0.0189542
0.0151111
0.0109843
0.00467237
0.0342515
0.0303458
0.0264085
0.0224855
0.0186629
0.0149034
0.0108499
0.0046213
0.032211
0.028596
0.024995
0.021414
0.0178902
0.0143791
0.0105326
0.00454031
0.0292635
0.0261844
0.0230427
0.0199009
0.0167756
0.0136016
0.0100419
0.00442046
0.0300137
0.0268561
0.0236195
0.0203827
0.0171791
0.013945
0.0103203
0.00461878
0.032915
0.0291946
0.0254327
0.0217254
0.0181193
0.0145574
0.0106729
0.00465474
0.0349793
0.0308962
0.0267275
0.0226552
0.0187425
0.0149371
0.0108658
0.00465218
0.0356629
0.0314359
0.0271434
0.022942
0.0189162
0.0150236
0.0108903
0.00462079
0.0349163
0.0307585
0.0265756
0.022498
0.0185873
0.0147933
0.0107433
0.00456336
0.0327238
0.0289112
0.0251084
0.0213949
0.0178007
0.0142676
0.0104299
0.00448188
0.0296016
0.0263686
0.0231038
0.0198698
0.0166944
0.0135085
0.00995975
0.00436866
0.0309923
0.027504
0.024004
0.0205757
0.0172492
0.0139432
0.0102841
0.00458587
0.0341226
0.0299376
0.0258331
0.0218932
0.0181463
0.0145107
0.0106001
0.0046062
0.0362983
0.0316689
0.0271125
0.0227835
0.0187252
0.0148515
0.0107647
0.00459263
0.0369935
0.0321859
0.0274827
0.0230233
0.0188593
0.0149093
0.0107716
0.00455474
0.0360328
0.0313604
0.0268148
0.0225169
0.0184926
0.0146568
0.0106119
0.0044913
0.033574
0.0293319
0.0252459
0.021365
0.0176865
0.0141262
0.0102984
0.00440717
0.0301681
0.0266403
0.0231779
0.0198255
0.0165894
0.0133858
0.0098465
0.00429777
0.0319719
0.0280876
0.0243012
0.0206839
0.017247
0.0138886
0.0102191
0.00455271
0.0353455
0.030616
0.0261467
0.021978
0.0181064
0.01442
0.0105081
0.00456666
0.0376438
0.0323646
0.0274003
0.0228302
0.0186476
0.014732
0.0106562
0.00454792
0.0382957
0.0328479
0.0277208
0.0230189
0.0187424
0.0147645
0.0106502
0.00450535
0.0371028
0.0318589
0.0269503
0.022448
0.0183376
0.0144906
0.0104785
0.00443686
0.0343013
0.02964
0.0252831
0.0212482
0.0175125
0.0139537
0.0101626
0.00434942
0.0305942
0.0267936
0.0231496
0.019697
0.0164272
0.0132312
0.00972553
0.00424111
0.0328722
0.0286094
0.0245707
0.0208185
0.0173311
0.0139724
0.0103185
0.00461281
0.0364938
0.031238
0.0264383
0.0221073
0.0181883
0.0145193
0.010642
0.00465951
0.0389079
0.0330089
0.0276857
0.0229468
0.0187281
0.0148496
0.0108252
0.00466799
0.0394652
0.0334175
0.0279435
0.0230966
0.0188096
0.0148903
0.0108412
0.00463814
0.0379908
0.0322571
0.0270791
0.0224789
0.0183868
0.0146136
0.0106725
0.00456243
0.0348958
0.0298663
0.0253309
0.0212467
0.017549
0.0140656
0.0103399
0.00445063
0.0309044
0.0269114
0.0231699
0.0196996
0.0164691
0.0133339
0.00987523
0.0043104
0.0337494
0.0292726
0.0251818
0.0215042
0.0181755
0.0149997
0.0114734
0.0058692
0.0375524
0.0319608
0.0270692
0.0228228
0.019103
0.015669
0.0119602
0.00607549
0.040054
0.033755
0.02831
0.0236693
0.0196891
0.0160921
0.0122733
0.00621732
0.0405053
0.0340641
0.0285095
0.0238063
0.0198017
0.0162015
0.0123824
0.00627617
0.0387741
0.0327571
0.0275806
0.0231797
0.0194027
0.0159641
0.0122557
0.00622625
0.0354136
0.0302624
0.0258141
0.0219645
0.0185826
0.0154151
0.0118967
0.00606154
0.0313121
0.0273063
0.0236955
0.0204539
0.0175004
0.0146277
0.0113275
0.00579042
0.0275037
0.0244392
0.0213777
0.0183914
0.0155065
0.0126379
0.00945321
0.00461306
0.0300444
0.0264449
0.0229651
0.01962
0.0164267
0.0133013
0.00990106
0.00478664
0.0316676
0.0278155
0.0240791
0.0204978
0.0170917
0.0137846
0.0102251
0.00491165
0.0320956
0.0282122
0.0244351
0.0208078
0.0173452
0.0139845
0.0103644
0.00496902
0.0312722
0.0275592
0.0239464
0.0204657
0.0171253
0.0138532
0.0102994
0.00495188
0.0294637
0.0260885
0.0227988
0.0196049
0.0165198
0.0134514
0.0100537
0.0048672
0.0269943
0.0241531
0.0212954
0.0184703
0.0156969
0.0128803
0.00968541
0.00473411
0.02761
0.0245358
0.0214599
0.018467
0.0155806
0.0127108
0.00951946
0.00465688
0.0301867
0.0266097
0.0231218
0.0197654
0.0165599
0.013423
0.0100026
0.00484604
0.0318392
0.0280509
0.0243234
0.0207266
0.0172944
0.0139612
0.0103669
0.0049901
0.032358
0.028556
0.0247831
0.021119
0.0176236
0.0142203
0.0105488
0.00506624
0.0317165
0.0280584
0.0244152
0.0208759
0.0174749
0.0141474
0.010525
0.00506622
0.0300635
0.0266811
0.0233359
0.0200686
0.0169176
0.0137804
0.0103043
0.00499104
0.0276445
0.0247567
0.0218232
0.0189286
0.0160875
0.0132028
0.00993084
0.00485579
0.028327
0.025029
0.0217909
0.0186982
0.0157505
0.0128411
0.00961469
0.00470043
0.0312444
0.0273532
0.0236353
0.0201251
0.016824
0.0136198
0.010142
0.0049102
0.0332136
0.0290483
0.0250286
0.021226
0.017662
0.0142338
0.010559
0.00507752
0.0339492
0.0297506
0.0256662
0.0217487
0.0180892
0.0145589
0.0107892
0.00517341
0.0333442
0.0293082
0.02535
0.0215736
0.0180108
0.0145467
0.0108062
0.00518991
0.0316171
0.0278952
0.0242674
0.0207871
0.0174666
0.0141976
0.0106021
0.00512139
0.0289671
0.0258168
0.0226607
0.0195903
0.0166036
0.0135988
0.0102145
0.00497945
0.0292825
0.0256564
0.0222
0.0189697
0.0159367
0.012975
0.00970819
0.00473988
0.0327045
0.0283297
0.0242831
0.020557
0.0171154
0.0138226
0.0102805
0.00497482
0.0351675
0.0303873
0.0259269
0.0218317
0.0180798
0.0145242
0.010755
0.00516744
0.0362204
0.0313429
0.0267504
0.0225024
0.0186204
0.014927
0.0110361
0.00528219
0.0356673
0.030968
0.0265328
0.0224138
0.0186044
0.0149662
0.0110928
0.00531445
0.0337213
0.0294404
0.0253928
0.0216109
0.0180659
0.0146294
0.0108992
0.00524979
0.0307083
0.0271471
0.0236563
0.0203319
0.017153
0.0140001
0.0104925
0.00509883
0.0302202
0.0262655
0.022593
0.0192274
0.0161202
0.0131146
0.00981877
0.00480231
0.0341948
0.0293141
0.0249159
0.0209679
0.0173945
0.0140257
0.0104349
0.00507306
0.0372291
0.0317725
0.0268408
0.0224303
0.0184799
0.0148045
0.010961
0.00529939
0.0387303
0.0330308
0.0278671
0.0232491
0.0191114
0.0152759
0.0112896
0.00543863
0.0382477
0.0327669
0.0277847
0.0232598
0.0191735
0.0153672
0.0113789
0.00548302
0.0360157
0.0310887
0.02656
0.0224332
0.0186426
0.01504
0.0111919
0.00541457
0.0325704
0.0285216
0.0246632
0.0210592
0.0176752
0.0143803
0.010766
0.00524455
0.0311751
0.0269878
0.0231919
0.0197847
0.0166802
0.0136641
0.0103726
0.0055439
0.0355925
0.0303173
0.025677
0.0216013
0.0179841
0.014611
0.0110147
0.00583298
0.0391357
0.0331171
0.0278151
0.0231873
0.0191278
0.0154145
0.011551
0.0060791
0.0410623
0.0346669
0.0290335
0.0241244
0.019825
0.0159194
0.0118933
0.0062361
0.0407086
0.0345131
0.0290251
0.024184
0.0199227
0.0160275
0.0119875
0.006285
0.0382535
0.0327159
0.0277579
0.0233417
0.0193804
0.015692
0.0117921
0.00620694
0.0343918
0.0299021
0.0257167
0.0218866
0.0183714
0.0150085
0.0113517
0.00602106
0.0271531
0.0243097
0.0214474
0.0186225
0.015836
0.0129966
0.00976773
0.00474364
0.0297887
0.0264679
0.0231783
0.0199931
0.0168977
0.013788
0.0103117
0.00491208
0.0316636
0.0280676
0.0245007
0.0210196
0.0176772
0.014352
0.0106778
0.0050084
0.0325705
0.0287912
0.0250788
0.0214901
0.0180481
0.0146298
0.01086
0.00503583
0.0322416
0.0285424
0.0249023
0.0214019
0.0180237
0.0146646
0.0109087
0.00502994
0.030949
0.0275269
0.0241799
0.0209143
0.0177058
0.0144401
0.0107618
0.00494378
0.0288606
0.0259666
0.0229931
0.0200024
0.0170011
0.0139163
0.0103953
0.0047612
0.0278358
0.0249279
0.0219884
0.0190859
0.0162252
0.0133153
0.0100094
0.0048649
0.0305369
0.0271462
0.0237663
0.0204879
0.017296
0.014103
0.0105438
0.00502778
0.0324993
0.028823
0.0251083
0.0215043
0.0180458
0.0146358
0.0108813
0.00511029
0.0334872
0.0296108
0.0256907
0.0219374
0.0183605
0.0148864
0.0110424
0.00512673
0.0332453
0.0293597
0.0255183
0.0218533
0.0183656
0.014904
0.0110698
0.00510268
0.0319059
0.0282786
0.0247447
0.0213161
0.0179827
0.0146288
0.0108792
0.00499095
0.0296363
0.0265512
0.0234068
0.0202727
0.0171692
0.0140123
0.0104421
0.00477217
0.029151
0.0259913
0.0228269
0.0197375
0.0167292
0.0136998
0.0102846
0.00498575
0.0321246
0.0283795
0.0247115
0.0211889
0.0178144
0.0144809
0.0108027
0.00514061
0.0342974
0.0301764
0.0260606
0.022189
0.0185379
0.0149805
0.0111104
0.00520941
0.0352681
0.0309151
0.0266212
0.0225831
0.0188554
0.0152074
0.011256
0.00522409
0.0349843
0.0306138
0.0263887
0.0224453
0.0187653
0.0151624
0.0112258
0.00516485
0.0333707
0.0293245
0.0254553
0.0217821
0.0182801
0.0148056
0.0109713
0.00501957
0.0306979
0.0272786
0.0238709
0.0205431
0.0173093
0.0140672
0.0104456
0.00475554
0.0308865
0.0272964
0.0238029
0.0204592
0.0172575
0.0140819
0.0105477
0.0051018
0.0342991
0.0299607
0.0258178
0.0219589
0.0183474
0.0148459
0.0110407
0.00524931
0.0367243
0.0318578
0.027185
0.0229364
0.0190323
0.0153085
0.0113172
0.00530585
0.0376771
0.0325263
0.0276771
0.0232652
0.0192516
0.0154864
0.011457
0.00534591
0.0370936
0.0320449
0.027331
0.0230651
0.0191466
0.0153842
0.0113564
0.0052325
0.0350281
0.0304325
0.0261578
0.0222087
0.0185133
0.0149183
0.0110155
0.00503953
0.0317821
0.0279635
0.0242557
0.0207293
0.0173675
0.0140541
0.0104023
0.00473508
0.0327674
0.0286859
0.0247988
0.0211694
0.0177603
0.0144425
0.0108058
0.00524568
0.0366584
0.0316056
0.0269387
0.0227118
0.0188444
0.0151783
0.0112691
0.00538884
0.0394004
0.0336249
0.028371
0.0236796
0.0194882
0.0155929
0.0115165
0.00544564
0.0403568
0.0342943
0.0287825
0.0239383
0.0197049
0.015742
0.0116498
0.00549202
0.0393366
0.0335098
0.0282499
0.0236019
0.0194611
0.0155907
0.0115119
0.00534123
0.0366758
0.0314893
0.026788
0.0225599
0.0187119
0.0150425
0.0111106
0.00509709
0.0327909
0.028568
0.024591
0.0208987
0.0174526
0.0141118
0.0104579
0.00475865
0.0346095
0.030082
0.0258507
0.021992
0.0184492
0.0150672
0.0113947
0.00603441
0.038959
0.0332338
0.0281309
0.0235813
0.019537
0.0157864
0.0118385
0.0061878
0.0420838
0.0354749
0.0296557
0.0246089
0.0202358
0.0162048
0.0120042
0.00622279
0.0430196
0.0361036
0.0300397
0.0248958
0.0204615
0.0163221
0.0120828
0.00627806
0.0415158
0.0350065
0.0293142
0.0244538
0.0200882
0.0161427
0.0121158
0.00623731
0.0382287
0.0325622
0.0275757
0.0232008
0.0193304
0.0157255
0.0118755
0.00608505
0.0337605
0.0292782
0.0251875
0.0215024
0.0181543
0.0149496
0.0113987
0.00585126
0.0287967
0.0256769
0.0225762
0.0195315
0.0165067
0.0134187
0.00993473
0.00442272
0.0312697
0.0274831
0.0238841
0.0204993
0.017233
0.0139587
0.0103094
0.00459694
0.0329184
0.0287383
0.0247441
0.021028
0.0175815
0.0141918
0.0104676
0.00470097
0.0334032
0.0291372
0.0249999
0.0211341
0.017553
0.0141268
0.0104058
0.00473208
0.0325377
0.0284501
0.0244672
0.0207059
0.0172142
0.0138427
0.0102003
0.00471816
0.0304872
0.0267791
0.0231769
0.0197331
0.0164759
0.0133107
0.00985539
0.00465758
0.0276479
0.0245497
0.0214501
0.0184303
0.0155156
0.0126233
0.00941381
0.00455483
0.0291333
0.0259077
0.0226852
0.0195497
0.0164712
0.0133638
0.00988064
0.00438191
0.0316443
0.027757
0.0240891
0.020596
0.0172732
0.0139608
0.0102926
0.00456891
0.0331879
0.0289309
0.0248971
0.0211573
0.0176572
0.0142318
0.010485
0.00469204
0.0335319
0.0291998
0.0250233
0.0211705
0.0175992
0.0141627
0.0104387
0.00473777
0.032593
0.0284502
0.0244236
0.0206612
0.017171
0.013828
0.0102131
0.00472268
0.030531
0.0267874
0.0231461
0.0196995
0.0164529
0.0133053
0.00986539
0.00466741
0.0277088
0.0245814
0.0214644
0.0184417
0.0155362
0.0126518
0.0094422
0.00457808
0.0297107
0.0262187
0.022837
0.0195737
0.0164215
0.0132863
0.00980198
0.00432461
0.0324831
0.0282772
0.0243824
0.0207475
0.0173165
0.0139458
0.0102561
0.00452801
0.0341825
0.0295467
0.0252629
0.0213675
0.0177882
0.0142942
0.0105023
0.00467466
0.0345723
0.0298107
0.0253852
0.0213748
0.0177479
0.0142563
0.0104944
0.00474221
0.0335599
0.0290062
0.0247211
0.0208282
0.0173018
0.0139098
0.0102677
0.00473427
0.0313527
0.0272735
0.0234154
0.019856
0.0165764
0.0133804
0.00991885
0.00468251
0.0283566
0.024996
0.0217227
0.0186106
0.015656
0.0127411
0.00950609
0.00460279
0.0301954
0.0264481
0.0228757
0.0195039
0.0163088
0.0131726
0.00971259
0.00427779
0.0333163
0.0287342
0.0245727
0.0207947
0.0172843
0.0138868
0.0102048
0.00449407
0.0352975
0.030197
0.025648
0.0215673
0.0178533
0.0143078
0.0104996
0.00465812
0.0358453
0.0305536
0.0258211
0.0216434
0.0178934
0.0143414
0.010543
0.00474801
0.0348324
0.0297335
0.0251432
0.021091
0.0174481
0.0140173
0.010348
0.00475539
0.0324613
0.0279115
0.02378
0.0200665
0.0166856
0.0134685
0.0099918
0.00470481
0.0292199
0.0255436
0.0220596
0.0188232
0.0158041
0.012847
0.00958218
0.00462788
0.0305445
0.0265982
0.0229279
0.0195245
0.0163473
0.0132546
0.00983206
0.00432763
0.033981
0.029094
0.0247462
0.0208681
0.0173311
0.0139557
0.0103083
0.00454859
0.0362827
0.0307817
0.0259585
0.0217413
0.0179577
0.0143946
0.0106007
0.00471698
0.0370508
0.0312607
0.0262285
0.0218945
0.0180498
0.0144605
0.010654
0.00481652
0.0360781
0.0304458
0.0255558
0.0213395
0.0176159
0.0141472
0.0104612
0.0048226
0.0335381
0.0285413
0.0241529
0.0203113
0.0168569
0.0135943
0.0101058
0.00476669
0.0300624
0.0260732
0.0223862
0.0190329
0.0159442
0.0129462
0.00967801
0.00466748
0.030986
0.0270057
0.0234368
0.0202294
0.0172977
0.0144382
0.0111558
0.00570699
0.0346002
0.029523
0.0251976
0.0214546
0.0181273
0.0149779
0.0114828
0.00585783
0.0371998
0.0313725
0.0264383
0.0222836
0.018659
0.0152835
0.011627
0.00592558
0.0382088
0.0320326
0.0268497
0.0224518
0.0187056
0.015245
0.0115366
0.00589753
0.0372763
0.0312718
0.0262275
0.0219514
0.0182259
0.0148419
0.0112118
0.00577531
0.0346164
0.0293137
0.0248017
0.020892
0.0174339
0.0142035
0.0107625
0.0056232
0.0309547
0.026751
0.0229749
0.0196108
0.0165089
0.0134893
0.0102466
0.00543799
0.000145091
0.000285669
0.000343474
0.000397341
0.000491291
0.000644456
0.000830431
0.000997286
0.000145597
0.000285957
0.000343622
0.000397713
0.000490386
0.000639879
0.000819521
0.000977987
0.000145972
0.000286079
0.00034328
0.000396647
0.000486678
0.00063104
0.000803355
0.00095312
0.000146062
0.000285772
0.000342487
0.000394987
0.000482468
0.000622361
0.000789158
0.000933347
0.000145813
0.000285019
0.000341389
0.000393239
0.000479091
0.000616624
0.000781568
0.000925172
0.000145308
0.000283966
0.000340047
0.000391239
0.000475774
0.000612095
0.000777614
0.000924246
0.000144711
0.000283108
0.000339074
0.000389798
0.000473381
0.000609147
0.000776088
0.000926788
0.000186168
0.000365288
0.000461172
0.000596734
0.000834579
0.00118815
0.00154104
0.00180528
0.00018618
0.000363945
0.000457575
0.000589911
0.000827669
0.00117597
0.00152118
0.00177587
0.000186171
0.000362481
0.000453192
0.000581026
0.000816626
0.00115853
0.00149557
0.00174047
0.000185869
0.000360719
0.000448727
0.000572203
0.000804648
0.00114045
0.00147159
0.0017107
0.000185133
0.000358531
0.000444475
0.000564524
0.000793482
0.00112508
0.00145473
0.00169464
0.000184153
0.000356335
0.000440818
0.000557964
0.000782542
0.00111096
0.00144227
0.00168799
0.000183359
0.000355195
0.000439236
0.000554385
0.000774007
0.0010994
0.00143258
0.00168488
0.000238311
0.000490703
0.000720953
0.00108308
0.00159999
0.00222472
0.00273932
0.00305799
0.000235613
0.000481075
0.000704137
0.00106168
0.00158237
0.00220609
0.00271573
0.00302697
0.000233454
0.000472365
0.000687745
0.00103996
0.00156544
0.00218921
0.00269422
0.0029969
0.000231575
0.000464899
0.000672951
0.0010189
0.00154834
0.0021737
0.00267695
0.00297438
0.00022957
0.000458166
0.000659493
0.000997763
0.00152715
0.00215495
0.00266112
0.0029604
0.000227781
0.000452959
0.000648536
0.000977643
0.00149935
0.00212701
0.00263927
0.00294733
0.000226753
0.000450884
0.000643016
0.000963542
0.00146969
0.00209073
0.00260705
0.00292605
0.000343192
0.000812148
0.00137929
0.00217482
0.00314701
0.00401778
0.00459538
0.00485897
0.000332165
0.000782126
0.00133977
0.00213863
0.00313088
0.00400428
0.00457945
0.00483832
0.000324375
0.000759227
0.00131188
0.00212248
0.00314837
0.00402727
0.00459689
0.004844
0.000319612
0.000745916
0.00130131
0.00213206
0.0032044
0.00409094
0.0046514
0.00487995
0.000315897
0.0007372
0.00129754
0.0021447
0.00326076
0.00415581
0.0047085
0.00492041
0.000312512
0.000728267
0.00128403
0.00212674
0.00325334
0.00415651
0.00471375
0.00492606
0.000308832
0.000716981
0.00125058
0.00206383
0.00314875
0.00405303
0.00462781
0.00486387
0.000642253
0.00190952
0.00341564
0.00493847
0.00626051
0.00704048
0.00739098
0.00737762
0.000627837
0.00192153
0.00347514
0.00502886
0.00632283
0.0070827
0.00741688
0.00738958
0.000636262
0.00201087
0.00363626
0.00528074
0.00654334
0.00726355
0.00755659
0.00748935
0.000673939
0.00219709
0.00395717
0.0057511
0.00697243
0.00762322
0.0078396
0.00769567
0.000728515
0.00241677
0.00435213
0.0062837
0.00745717
0.0080309
0.00815897
0.00792503
0.000755782
0.0025192
0.0045599
0.00651814
0.00766625
0.00820825
0.00830131
0.00802827
0.000712249
0.00237306
0.00427015
0.00618767
0.00737344
0.0079594
0.00810369
0.00788295
0.00314907
0.00691781
0.00969873
0.0112503
0.0118136
0.0118223
0.0114583
0.0107988
0.0034378
0.00768724
0.0103333
0.0116844
0.0121135
0.0120318
0.0115995
0.0108854
0.00387942
0.00879705
0.0113906
0.0125208
0.0127757
0.0125516
0.0119918
0.0111633
0.00456325
0.010181
0.0128554
0.0138048
0.0138667
0.0134468
0.0126926
0.0116779
0.00562876
0.0115364
0.0143237
0.0151474
0.0150429
0.0144353
0.0134785
0.0122582
0.006021
0.0121632
0.0149968
0.0157939
0.0156148
0.0149184
0.0138713
0.0125558
0.00540464
0.0116688
0.0145207
0.0153271
0.0151723
0.0145151
0.0135296
0.0122918
0.000142454
0.000280928
0.000331251
0.000364055
0.000417432
0.000520894
0.000670903
0.000824073
0.000142595
0.000281573
0.000331926
0.000365854
0.000423779
0.000537962
0.000702559
0.000869542
0.00014274
0.000282746
0.000334026
0.000370681
0.000435479
0.000562673
0.000742589
0.000922805
0.000142685
0.00028401
0.000336749
0.000376369
0.000446834
0.000583177
0.000772136
0.0009591
0.000142631
0.000285228
0.000339327
0.000380812
0.000453313
0.000591318
0.000780065
0.000965388
0.000142745
0.000285782
0.000339996
0.000380578
0.000449793
0.000581025
0.000760483
0.000936169
0.000143088
0.000286101
0.000339775
0.000378132
0.000441732
0.000562414
0.000728434
0.000890713
0.0001827
0.00035146
0.000420481
0.000500442
0.000657369
0.000946529
0.00128501
0.00156163
0.000182935
0.000352287
0.000423481
0.000510538
0.00068247
0.000992115
0.00135252
0.0016454
0.000183524
0.00035511
0.000431062
0.000528898
0.000719065
0.00104923
0.00142838
0.0017337
0.0001842
0.000359396
0.000441187
0.000549477
0.000753928
0.00109357
0.00147883
0.00178722
0.000185288
0.000363907
0.000449794
0.000563222
0.00077176
0.00110877
0.0014889
0.00179148
0.000186556
0.000366363
0.000451968
0.000562479
0.000764049
0.00108958
0.00145647
0.00174611
0.000187978
0.00036754
0.000450513
0.000554171
0.000743723
0.00105473
0.0014051
0.00167887
0.000229645
0.000447549
0.000605548
0.000869604
0.00131276
0.00192119
0.00247542
0.00282946
0.000230148
0.000451921
0.000619489
0.00090212
0.00137178
0.00201309
0.00259437
0.00296076
0.000232182
0.000462229
0.000644946
0.000950531
0.00144574
0.00211217
0.00271223
0.00308443
0.000235711
0.00047828
0.000678946
0.00100522
0.00151054
0.00216289
0.00275289
0.00312548
0.000240126
0.000493286
0.000705441
0.00104124
0.00154534
0.00217739
0.00274803
0.00311144
0.000244054
0.000500958
0.000713828
0.00104688
0.00154296
0.00215926
0.00270994
0.00305631
0.000247296
0.000503014
0.0007102
0.00103372
0.00151817
0.0021212
0.00265356
0.00298094
0.000323114
0.000735587
0.00121894
0.00196674
0.00294453
0.00396033
0.00458785
0.00483536
0.000328536
0.000759777
0.00127755
0.00208267
0.00313465
0.00422513
0.00486919
0.00508914
0.000337655
0.000793082
0.00134611
0.00219712
0.00330109
0.00444101
0.00509692
0.00529529
0.000350064
0.000827338
0.00138363
0.00220021
0.00321999
0.00430869
0.00496921
0.00520861
0.000363393
0.000859073
0.00141685
0.00220483
0.00316295
0.00417852
0.00482144
0.0050849
0.00037383
0.000879239
0.00143964
0.00222016
0.00315756
0.00413245
0.0047467
0.00500035
0.00037999
0.000884713
0.00144073
0.00221456
0.00314254
0.00409642
0.00468741
0.00492209
0.00069019
0.00203727
0.00365839
0.00556803
0.00724718
0.0080469
0.00822881
0.00795904
0.000738768
0.00221451
0.00402918
0.00617909
0.00801501
0.00884662
0.00896531
0.00856672
0.000784087
0.00233579
0.00426284
0.0065388
0.00846528
0.00933225
0.00943875
0.00898598
0.000743177
0.00215734
0.00386115
0.00586652
0.00770202
0.00859925
0.00880965
0.00851099
0.000719158
0.00201008
0.00351292
0.00528313
0.0069473
0.00785406
0.00815994
0.00801057
0.00072582
0.00197806
0.00340876
0.00508516
0.00666465
0.00755233
0.00788259
0.00778058
0.000736301
0.00197563
0.00337798
0.00501241
0.00657035
0.0074357
0.00776054
0.00766062
0.00296448
0.00777301
0.0117022
0.0141742
0.0150244
0.0148209
0.0139361
0.012612
0.00312569
0.00818698
0.0123105
0.0150295
0.01611
0.0160647
0.0152047
0.0137524
0.00318494
0.0082297
0.0123641
0.0152023
0.0164437
0.0165585
0.0158092
0.0143875
0.00276694
0.00727648
0.0110739
0.013847
0.0150693
0.0152203
0.0145794
0.0133523
0.00236262
0.00625857
0.00962141
0.012209
0.0134087
0.0136209
0.0131478
0.0121902
0.00220463
0.00579555
0.00890494
0.011342
0.0125072
0.0127686
0.0124135
0.0116174
0.00217574
0.00567232
0.00868
0.0110268
0.0121488
0.0124175
0.0121032
0.0113631
0.000143003
0.000285778
0.000339084
0.000376417
0.000437581
0.000553565
0.0007136
0.000870137
0.000142513
0.000284936
0.000338231
0.000376235
0.000439393
0.000558913
0.000723049
0.000883467
0.000142678
0.000285353
0.000339867
0.000381129
0.000450961
0.000579896
0.000752839
0.000919594
0.000143446
0.000286405
0.000342445
0.000387728
0.000465804
0.000605191
0.000786244
0.000956725
0.000144251
0.00028716
0.00034455
0.000393725
0.000479846
0.000628277
0.000815111
0.000986762
0.000144694
0.00028694
0.000345061
0.000397215
0.000489659
0.000644335
0.000834657
0.00100682
0.000144736
0.000285886
0.000343778
0.000396892
0.000491315
0.000646999
0.000837271
0.00100909
0.000187864
0.000366781
0.000448186
0.00054816
0.000730947
0.00103264
0.00137394
0.00164084
0.000186175
0.000364656
0.00044675
0.000548782
0.000734391
0.00103701
0.00138024
0.00165073
0.000185491
0.00036525
0.000451471
0.000561854
0.000758782
0.0010719
0.00142161
0.0016968
0.000186015
0.000367523
0.000458829
0.000579621
0.000790906
0.00112027
0.00147606
0.00175168
0.000186804
0.000369569
0.000465474
0.00059608
0.00082059
0.00116586
0.00152508
0.00179816
0.00018699
0.000369588
0.000468162
0.000605529
0.000839171
0.00119525
0.00155519
0.00182589
0.000186392
0.00036716
0.000464963
0.000603069
0.000840134
0.00119831
0.00155683
0.00182646
0.000246775
0.000499571
0.000701081
0.00101483
0.00148612
0.00207355
0.00259664
0.0029195
0.000242868
0.000493923
0.000694949
0.00100659
0.0014715
0.00204638
0.00256953
0.00290077
0.000240869
0.000494627
0.000703319
0.00102451
0.00149542
0.00206947
0.00259475
0.00293273
0.000241482
0.000500006
0.000720509
0.0010587
0.00154604
0.00213235
0.00265827
0.00299436
0.000242864
0.000505581
0.000737524
0.00109296
0.00159783
0.00219874
0.00272247
0.0030523
0.000243007
0.000506491
0.000744945
0.00111127
0.00162752
0.00223851
0.00275816
0.00308248
0.000240957
0.000500059
0.00073672
0.00110364
0.0016221
0.00224179
0.00275947
0.00308186
0.000375923
0.000867796
0.00140472
0.00215288
0.00305664
0.00399142
0.00458183
0.0048231
0.000364651
0.000840978
0.00135746
0.00207584
0.00294886
0.00386003
0.00446741
0.0047374
0.000357613
0.000829642
0.00134354
0.00205358
0.00291175
0.00380808
0.00442792
0.00471983
0.000357207
0.00083604
0.00136603
0.00209326
0.00296107
0.00385921
0.00447802
0.00477139
0.000359132
0.00084708
0.00139836
0.00215076
0.0030378
0.0039406
0.00454892
0.00483358
0.000358759
0.000850223
0.00141728
0.00219081
0.00310227
0.00399747
0.00459053
0.00486417
0.000353092
0.000837713
0.00140966
0.0021976
0.003142
0.00402154
0.00460426
0.00487135
0.000718949
0.00191016
0.00325054
0.00481482
0.00634473
0.00722343
0.00757078
0.00749775
0.000676623
0.00178727
0.00303615
0.00450782
0.00597435
0.00690571
0.00731656
0.00730733
0.00064315
0.00170337
0.00290266
0.00432126
0.00573109
0.00670033
0.00716348
0.00720647
0.000634029
0.0017018
0.00291952
0.00435094
0.00573916
0.0066994
0.00717155
0.0072283
0.000638318
0.0017485
0.0030218
0.00448769
0.00587335
0.00679253
0.00724102
0.00728598
0.000646296
0.00181328
0.00316594
0.00464019
0.00602485
0.00689273
0.00730329
0.00732424
0.000649774
0.00187407
0.00330927
0.00479335
0.00616159
0.00698256
0.00735862
0.00735879
0.00212399
0.00548289
0.00833128
0.0106213
0.0117582
0.0120604
0.0117938
0.0111075
0.00199071
0.00505362
0.00758348
0.00985598
0.0111082
0.0115278
0.0113784
0.0107979
0.00189559
0.004712
0.00706592
0.00921441
0.0105657
0.0111086
0.0110769
0.0105923
0.00193293
0.00470624
0.00701679
0.0091105
0.0104484
0.0110074
0.0110073
0.0105551
0.00210176
0.00500376
0.00733681
0.0093952
0.0106211
0.0111132
0.0110691
0.0105915
0.00240197
0.00553323
0.00796735
0.00994537
0.0109755
0.0113268
0.0111839
0.0106468
0.00279639
0.00623097
0.00888956
0.0106709
0.0114349
0.0115952
0.0113303
0.010727
0.000144303
0.000282735
0.000338753
0.00038926
0.000472512
0.00060828
0.000775783
0.000927453
0.000144148
0.000282925
0.00033907
0.00038918
0.000471913
0.000607236
0.000773759
0.000923101
0.00014377
0.00028277
0.000338502
0.000386577
0.000465818
0.000597021
0.000759774
0.000905673
0.000143269
0.000282425
0.000337535
0.000382848
0.000457069
0.000582119
0.000740007
0.000883225
0.000142782
0.000282006
0.000336323
0.000378448
0.000446597
0.000563923
0.000716083
0.000857319
0.000142565
0.000281624
0.000334696
0.000372992
0.000433891
0.0005419
0.000687326
0.000826857
0.000142484
0.000281196
0.000332724
0.000367364
0.00042209
0.000523321
0.000665697
0.000807535
0.000182964
0.000355079
0.000439602
0.000554542
0.000771721
0.00109635
0.00142986
0.00168343
0.000183074
0.000355871
0.000441076
0.00055634
0.000771999
0.00109719
0.00142979
0.00168002
0.000182929
0.000356027
0.000440284
0.000552315
0.000760369
0.00108168
0.00141166
0.00165862
0.000182709
0.000355967
0.000438344
0.000544727
0.000740562
0.0010537
0.00138008
0.00162596
0.000182585
0.00035561
0.000435154
0.000533995
0.000715155
0.00101696
0.00133922
0.00158598
0.000182778
0.00035471
0.000430094
0.000519538
0.000684863
0.000973449
0.00129198
0.00154162
0.000182931
0.000353113
0.000424197
0.000505658
0.000660433
0.000941222
0.00126287
0.00152156
0.000226502
0.000451488
0.000643675
0.000961546
0.00145799
0.00207344
0.00258863
0.00291032
0.000227052
0.000453672
0.000647448
0.00096652
0.00146025
0.0020749
0.00258717