/*--------------------------------*- C++ -*----------------------------------*\
| =========                 |                                                 |
| \\      /  F ield         | OpenFOAM: The Open Source CFD Toolbox           |
|  \\    /   O peration     | Version:  plus.master.MPPICInterFoam            |
|   \\  /    A nd           | Web:      www.OpenFOAM.com                      |
|    \\/     M anipulation  |                                                 |
\*---------------------------------------------------------------------------*/
FoamFile
{
    version     2.0;
    format      ascii;
    class       volScalarField;
    location    "3.8";
    object      p_rgh;
}
// * * * * * * * * * * * * * * * * * * * * * * * * * * * * * * * * * * * * * //

dimensions      [1 -1 -2 0 0 0 0];

internalField   nonuniform List<scalar> 
11822
(
5734.56
5734.51
5734.33
5734.13
5733.97
5733.66
5715.46
5734.46
5733.93
5733.34
5733.24
5688.91
5715.62
5732.85
5734.16
5727.57
5607.22
5393.84
5628.45
5536.67
5734.59
5733.59
5711.25
5280.31
4726.37
5587.9
5289.47
5734.92
5734.02
5716.76
5641.38
5298.34
5452.23
5497.33
5735.13
5734.93
5663.64
5521.82
5017.26
5349.88
5735.28
5734.66
5735.54
5735.47
5735.37
5735.46
5735.32
5735.18
5734.48
5735.22
5735.25
5735.06
5734.82
5734.58
5734.28
5706.6
5735.57
5722.78
5696.61
5734.19
5595.71
5708.37
5732.77
5735.79
5734.66
5699.99
5584.4
5212.06
5489.81
5734.79
5735.97
5734.57
5638.9
5424.95
4125.04
5229.75
5734.99
5735.85
5619.31
5366.59
5382.36
4717.27
5478.15
5735.09
5735.8
5589.15
5370.39
4543.82
5291.33
5735.36
5735
5735.25
5735.84
5735.77
5735.42
5735.62
5735.38
5733.55
5734.78
5734.9
5734.83
5734.6
5731.97
5734.11
5710.08
5735.22
5673.29
5319.83
5106.56
5276.48
5713.01
5733.9
5735.47
5104.66
5688.08
5451.99
3689.37
5435.53
5734.33
5735.95
5559.72
5505.84
5097.84
2777.22
5071.66
5734.52
5735.62
5201.9
3345.48
3546.79
3341.89
5441.52
5734.9
5735.38
5467.14
5063.75
4519.57
5225.33
5735.31
5732.25
5734.68
5735.21
5735.28
5735.36
5735.59
5735.25
5722.08
5733.47
5734.29
5728.99
5713.38
5706.94
5734.47
5726.48
5734.51
5482.98
4428.97
3130.14
4630.3
5725.32
5734.28
5733.68
3874.8
5237.67
5176.29
2723.27
5349.88
5734.16
5733.3
3516.16
5003.53
4775.44
2687.67
4941.25
5734.3
5699.21
4326.51
2478.98
2484.83
2648.23
5420.57
5735.37
5732.66
5420.02
4686.3
4438.1
5227.79
5724.73
5723.27
5735.37
5735.41
5735.25
5735.46
5736.12
5735.38
5642.88
5734.24
5730.49
5676.27
5569.74
5645.95
5736.12
5735.14
5731.81
5220.5
3551.62
2936.71
4093.92
5724.32
5735.64
5689.83
3339.44
2411.71
4209.47
2647.51
5346.85
5735.59
5614.08
2694.94
2958.19
4764.72
2659.9
5033.97
5735.53
5618.79
3764
2423.89
2426.62
2743.38
5452.84
5736.42
5725.76
5431.07
4692.88
4493.26
5326.77
5713.59
5713.52
5738.35
5738.54
5738.28
5737.61
5737.8
5733.71
5559.43
5744.64
5745.73
5644.54
5457.51
5623.35
5741.44
5740.14
5743.12
5243.2
3461.34
2882.11
4098.88
5727.78
5740.4
5659.19
3401.07
1474.16
2367.31
2590.3
5465.99
5740.57
5545.45
2638.98
1503.22
4483.57
2617.4
5350.13
5740.56
5620.26
3903.84
2382.23
2377.01
3534.03
5568.58
5740.88
5733.83
5545.62
5090.5
5019.84
5538.31
5725.06
5686.85
5745.8
5746.19
5745.95
5744.64
5743.73
5732.74
5561.41
5635.41
5634.66
5732.29
5731.66
5731.21
5730.91
5730.74
5730.69
5690.27
5649.99
5731.88
5731.67
5731.22
5730.89
5730.69
5730.6
5733.7
5733.17
5732.46
5731.8
5731.36
5730.99
5730.75
5730.62
5733.59
5732.99
5732.55
5732.04
5731.57
5731.18
5730.9
5730.72
5724.62
5678.63
5729.6
5732.24
5731.74
5731.36
5731.08
5730.89
5703.26
5541.99
5679.46
5732.39
5731.9
5731.53
5731.25
5731.07
5679.81
5541.86
5581.24
5732.58
5732.1
5731.73
5731.47
5731.29
5633.61
5672.62
5733
5732.88
5732.76
5732.64
5732.54
5732.48
5701.46
5702.1
5733.49
5733.18
5732.91
5732.69
5732.51
5732.41
5734.58
5734.28
5733.79
5733.39
5733.06
5732.78
5732.56
5732.42
5734.5
5734.15
5733.74
5733.5
5733.19
5732.91
5732.67
5732.49
5719.12
5676.44
5733.99
5733.66
5733.35
5733.07
5732.81
5732.63
5676.88
5538.96
5732.53
5733.75
5733.47
5733.21
5732.97
5732.79
5571.44
5538.59
5693.24
5733.7
5733.54
5733.35
5733.14
5732.98
5651.32
5727.47
5733.12
5733.27
5733.41
5733.43
5733.4
5733.38
5723.98
5733.03
5733.86
5733.77
5733.66
5733.54
5733.43
5733.36
5734.55
5734.4
5734.16
5733.99
5733.8
5733.62
5733.47
5733.37
5734.78
5734.53
5734.29
5734.13
5733.93
5733.73
5733.56
5733.44
5717.07
5684.95
5734.46
5734.27
5734.07
5733.87
5733.68
5733.54
5636.33
5589.46
5734.52
5734.37
5734.2
5734.01
5733.83
5733.69
5559.59
5561.07
5734.36
5734.36
5734.29
5734.16
5734.02
5733.9
5708.08
5733.59
5733.91
5734.11
5734.28
5734.31
5734.28
5734.25
5732.72
5734.44
5734.54
5734.55
5734.49
5734.41
5734.31
5734.24
5734.64
5734.62
5734.69
5734.68
5734.58
5734.45
5734.33
5734.24
5734.95
5734.26
5734.91
5734.84
5734.71
5734.57
5734.42
5734.3
5708.01
5711.37
5735.18
5735.05
5734.9
5734.73
5734.56
5734.43
5556.92
5694.54
5735.33
5735.22
5735.08
5734.92
5734.75
5734.61
5557.26
5666.83
5735.38
5735.38
5735.29
5735.16
5735
5734.88
5733.86
5734.4
5734.45
5734.43
5734.45
5734.5
5734.68
5734.83
5735.11
5735.08
5734.92
5734.72
5734.54
5734.47
5734.59
5734.72
5735.47
5735.15
5734.99
5734.76
5734.54
5734.44
5734.54
5734.65
5735.64
5734.37
5735.12
5734.87
5734.63
5734.51
5734.59
5734.68
5683.72
5729.61
5735.36
5735.06
5734.8
5734.67
5734.73
5734.8
5554.28
5730.39
5735.5
5735.23
5734.99
5734.87
5734.93
5734.98
5554.85
5728.32
5735.72
5735.49
5735.28
5735.18
5735.24
5735.29
5739.12
5738.86
5738.63
5738.44
5738.3
5738.27
5738.43
5738.75
5739.56
5739.09
5738.65
5738.27
5738.02
5737.92
5738.07
5738.41
5739.74
5739.11
5738.59
5738.17
5737.88
5737.78
5737.93
5738.29
5739.82
5738.34
5738.6
5738.22
5737.95
5737.86
5738.03
5738.4
5687.51
5732.52
5738.88
5738.49
5738.25
5738.2
5738.38
5738.74
5585.55
5733.5
5739.19
5738.87
5738.67
5738.63
5738.82
5739.12
5598.67
5738.09
5739.78
5739.52
5739.34
5739.3
5739.44
5739.7
5735.69
5735.35
5734.67
5733.91
5733.32
5732.92
5732.36
5732.6
5734.76
5734.72
5734.2
5733.66
5733.17
5732.85
5732.65
5732.58
5734.52
5734.36
5733.97
5733.55
5733.12
5732.82
5732.65
5732.58
5734.32
5734.12
5733.81
5733.45
5733.04
5732.76
5732.57
5732.47
5734.25
5734.17
5733.76
5733.32
5732.88
5732.4
5732.36
5732.34
5734.39
5734.24
5733.73
5733.18
5732.78
5730.94
5732.29
5732.19
5734.71
5734.38
5733.81
5732.7
5720.59
5728.16
5732.17
5732.06
5735.46
5735.27
5735.07
5734.89
5734.77
5734.63
5734.06
5734.41
5735.85
5735.74
5735.5
5735.21
5734.92
5734.75
5734.55
5734.49
5736.05
5735.86
5735.63
5735.33
5735
5734.79
5734.61
5734.49
5736.08
5735.86
5735.59
5735.28
5735
5734.76
5734.56
5734.42
5735.88
5735.73
5735.43
5735.14
5734.83
5734.23
5734.35
5734.29
5735.55
5735.37
5735.13
5734.66
5731.43
5730.95
5734.24
5734.09
5735.03
5734.79
5734.58
5733.35
5718.74
5728.24
5734.03
5733.91
5734.83
5734.81
5734.98
5735.23
5735.43
5735.52
5735.1
5735.47
5735.67
5735.78
5735.84
5735.78
5735.75
5735.73
5735.62
5735.6
5736.22
5736.25
5736.19
5736.06
5735.92
5735.84
5735.72
5735.64
5736.41
5736.33
5736.29
5736.09
5735.96
5735.81
5735.68
5735.58
5735.98
5735.97
5735.89
5735.8
5735.75
5735.23
5735.44
5735.37
5735.41
5735.42
5735.44
5735.13
5723.05
5731.8
5735.29
5735.14
5734.54
5734.44
5734.56
5733.37
5719.1
5728.94
5734.98
5734.9
5735.48
5735.48
5735.8
5736.2
5736.49
5735.9
5736.47
5736.67
5736.09
5736.31
5736.54
5736.6
5736.78
5736.84
5736.74
5736.76
5736.27
5736.63
5736.81
5736.85
5736.9
5736.91
5736.86
5736.83
5735.68
5736.3
5736.63
5736.75
5736.85
5736.83
5736.78
5736.74
5735.44
5735.97
5736.32
5736.48
5736.59
5736.24
5736.52
5736.53
5735.22
5735.56
5735.86
5735.93
5725.1
5732.82
5736.35
5736.26
5734.55
5734.65
5735
5733.33
5719.64
5730.56
5736.05
5736.04
5738.16
5737.77
5737.75
5737.85
5730.06
5731.16
5738.13
5738.26
5738.92
5738.65
5738.49
5738.27
5738.28
5737.27
5738.09
5738.25
5739.38
5739.16
5738.92
5738.63
5738.47
5738.37
5738.41
5738.1
5738.82
5738.93
5738.72
5738.53
5738.35
5738.27
5738.33
5738.13
5738.53
5738.56
5738.52
5738.31
5738.14
5737.83
5738.11
5738.23
5737.88
5737.77
5737.74
5737.74
5733.74
5735.24
5737.83
5737.97
5736.73
5736.52
5736.67
5731.71
5720.67
5733.7
5737.52
5737.68
5745.19
5744.51
5744.02
5743.58
5662.21
5723.85
5742.32
5742.29
5746.2
5745.26
5744.51
5743.76
5742.9
5737.97
5740.7
5741.97
5747.17
5746.02
5745.01
5744.11
5743.16
5742.52
5741.92
5741.2
5747.35
5746.12
5744.95
5744.04
5743.09
5742.35
5741.76
5740.97
5746.76
5745.61
5744.62
5743.74
5742.91
5742.08
5741.62
5741.17
5745.47
5744.54
5743.79
5743.13
5742.31
5741.46
5741.43
5741.3
5743.83
5743.17
5742.73
5735.26
5733.21
5740.25
5741.37
5741.4
5734.81
5734.29
5733.58
5729.52
5717.26
5730.54
5731.96
5731.87
5734.3
5733.72
5733.03
5728.27
5716.88
5729.61
5731.67
5731.63
5733.84
5733.35
5732.79
5731.26
5730.66
5730.8
5731.1
5731.42
5733.79
5733.15
5732.56
5727.43
5686.31
5714.62
5730.36
5731.19
5733.44
5732.95
5715.26
5653.57
5492.45
5661.21
5731.06
5731.06
5733.11
5709.84
5622.59
5622.5
5673.42
5731.1
5730.97
5730.96
5706.69
5629.42
5633.38
5699.97
5731.28
5731.01
5730.88
5730.84
5734.95
5734.66
5734.38
5727.25
5718.51
5732.3
5733.77
5733.69
5734.87
5734.56
5734.23
5728.07
5720.06
5732.59
5733.46
5733.46
5734.77
5734.54
5734.13
5733.8
5733.52
5732.13
5732.5
5733.26
5734.65
5734.47
5733.96
5722.14
5726.2
5699.05
5732.21
5733.05
5734.53
5733.92
5714.15
5651.28
5489.15
5645.8
5732.99
5732.96
5726.87
5695.34
5621.72
5626.66
5712.13
5732.97
5732.86
5732.83
5635.03
5627.8
5632.03
5718.21
5732.92
5732.8
5732.7
5732.66
5734.32
5734.31
5734.3
5723.08
5718.81
5733.23
5734.72
5734.68
5734.69
5734.69
5734.59
5728.68
5730.76
5734.26
5734.33
5734.5
5735.01
5734.97
5734.64
5734.29
5721.34
5723.17
5733.04
5734.27
5734.7
5734.6
5734.4
5711.64
5617.64
5651.58
5733.66
5734
5734.79
5730.37
5715.24
5650.46
5484.78
5652.75
5733.91
5733.91
5709.37
5644.15
5619.94
5674.56
5733.56
5733.76
5733.72
5733.73
5625.98
5625.74
5633.15
5727.27
5733.55
5733.56
5733.55
5733.54
5734.39
5734.5
5734.77
5721.82
5719.67
5734.52
5735.79
5735.8
5734.85
5735.25
5735.31
5730.96
5735.13
5735.2
5735.05
5735.63
5734.99
5735.31
5735.26
5735.21
5674.68
5685.17
5732.72
5735.36
5734.97
5734.97
5734.98
5701.83
5333.42
5575.12
5735.04
5735.1
5735.02
5719
5718.97
5619.81
5481.03
5676.82
5734.8
5734.83
5707.67
5618.44
5618.33
5723.48
5734.6
5734.57
5734.57
5734.6
5659.66
5625.16
5659.84
5732.87
5734.35
5734.4
5734.41
5734.41
5736.47
5736.36
5736.44
5723.09
5724.21
5736.47
5737.21
5737.38
5737
5736.88
5736.86
5734.87
5736.4
5736.15
5736.27
5737.14
5737.13
5736.85
5736.74
5736.55
5658.93
5660.72
5731.5
5736.74
5736.75
5736.66
5736.33
5690.34
5326.96
5512.14
5736.25
5736.48
5736.57
5704.42
5725.04
5514.66
5479.55
5701.26
5735.76
5735.98
5715.39
5617.44
5617.09
5724.01
5735.15
5735.15
5735.35
5735.56
5717.86
5673.65
5707.85
5734.61
5734.67
5734.75
5734.97
5735.16
5743.54
5742.96
5742.45
5728.36
5733.79
5740.01
5741.03
5741.14
5744.1
5743.1
5742.58
5741.4
5741.17
5738.83
5739.18
5740.5
5744.32
5743.17
5742.38
5741.57
5645.94
5652.25
5739.73
5739.8
5743.29
5742.53
5741.65
5673.05
5323.54
5398.01
5739.47
5739.6
5742.04
5709.93
5740.93
5507.82
5487.22
5728.99
5738.9
5739.12
5735.46
5631.85
5619.58
5711.68
5738.93
5738.68
5738.69
5738.97
5739.48
5727.55
5734.23
5738.67
5738.57
5738.51
5738.65
5738.97
5697.07
5542.05
5555.75
5723.86
5732.33
5731.94
5731.67
5731.5
5734.68
5725
5562.56
5508.71
5681.76
5732.13
5731.83
5731.65
5734.89
5734.42
5722.54
5526.97
5509.54
5726.09
5732.05
5731.87
5735.09
5734.48
5733.79
5715.94
5525.34
5665.59
5732.22
5732.04
5735
5734.45
5733.78
5731.75
5709.78
5660.2
5731.98
5732.16
5735.13
5734.55
5733.87
5733.27
5732.82
5701.92
5731.94
5732.3
5735.87
5735.28
5734.48
5733.71
5732.89
5730.99
5731.83
5732.51
5672.69
5538.95
5656.05
5734.05
5733.82
5733.59
5733.37
5733.21
5735.13
5689.39
5543.32
5550.11
5734.25
5733.92
5733.65
5733.46
5735.52
5734.55
5664.12
5515.44
5598.21
5734.23
5733.91
5733.7
5735.75
5735.47
5732.3
5627.81
5522.37
5714.37
5734
5733.82
5735.84
5735.55
5735.17
5723.96
5552.82
5671.3
5734.18
5734.02
5735.68
5735.44
5735.13
5734.76
5732.61
5673.08
5734.28
5734.17
5735.37
5735.09
5734.89
5734.77
5734.33
5722.24
5734.1
5734.31
5655.14
5612.8
5730.93
5734.52
5734.48
5734.39
5734.26
5734.15
5732.92
5609.02
5540.24
5685.52
5734.91
5734.75
5734.58
5734.43
5735.71
5721.23
5546.94
5511.9
5719.95
5735.11
5734.9
5734.74
5735.78
5735.71
5713.91
5519.16
5555.7
5735.44
5735.16
5735
5735.78
5735.82
5735.71
5699.89
5537.72
5698.82
5735.28
5735.15
5735.38
5735.56
5735.59
5731.7
5646.82
5688.28
5735.37
5735.27
5734.51
5734.58
5734.88
5735.12
5735.39
5716.97
5735.42
5735.36
5615.37
5726.14
5735.6
5735.58
5735.53
5735.42
5735.28
5735.16
5719.07
5579.73
5564.18
5735.99
5735.91
5735.76
5735.6
5735.46
5736.27
5702.69
5537.94
5577.02
5736.35
5736.13
5735.93
5735.79
5736.22
5736.13
5669.76
5517.38
5663.31
5736.37
5736.18
5736.05
5736.24
5736.59
5731.19
5593.98
5534.9
5729.71
5736.33
5736.22
5735.94
5736.34
5736.59
5720.61
5541.58
5711.08
5736.53
5736.44
5735.04
5735.38
5735.86
5734.76
5725.8
5722.93
5736.58
5736.54
5577.51
5736.16
5735.98
5735.8
5735.64
5735.55
5735.63
5735.69
5703.35
5580.63
5670.46
5736.42
5736.22
5736.09
5736.15
5736.19
5737.13
5658.33
5535.31
5689.26
5736.87
5736.69
5736.7
5736.72
5738.07
5732.08
5545.89
5532.08
5730.12
5737.18
5737.16
5737.17
5738.46
5738.39
5715.01
5512.84
5606.45
5737.53
5737.58
5737.58
5738.41
5738.44
5735.51
5646.56
5539.39
5726.57
5737.8
5737.84
5737.65
5737.71
5737.81
5730.05
5569.18
5729.17
5737.97
5738.06
5590.9
5739.34
5740.13
5739.88
5739.72
5739.66
5739.77
5740
5679.59
5633
5732.7
5740.46
5740.14
5739.93
5739.91
5740.05
5739.96
5571.21
5584.5
5737.22
5740.86
5740.43
5740.22
5740.25
5744.11
5726.31
5532.27
5606.91
5741.25
5741.01
5740.64
5740.59
5745.09
5744.44
5635.65
5513.73
5684.34
5741.57
5741.13
5741.02
5745.28
5744.67
5722.78
5514.86
5553.3
5740.22
5741.73
5741.61
5744.82
5744.44
5744.06
5667.89
5545.51
5724.04
5742.12
5742.06
5705.05
5704.93
5704.87
5704.85
5704.83
5704.82
5704.82
5704.84
5705.01
5704.9
5704.84
5704.81
5704.79
5704.78
5704.79
5704.81
5704.97
5704.85
5704.78
5704.76
5704.74
5704.73
5704.74
5704.77
5704.93
5704.8
5704.73
5704.7
5704.68
5704.68
5704.69
5704.73
5704.89
5704.76
5704.69
5704.66
5704.65
5704.64
5704.66
5704.69
5704.88
5704.75
5704.68
5704.65
5704.63
5704.63
5704.65
5704.68
5704.89
5704.77
5704.7
5704.67
5704.65
5704.65
5704.67
5704.7
5704.84
5704.68
5704.57
5704.5
5704.44
5704.42
5704.45
5704.52
5704.79
5704.62
5704.51
5704.44
5704.38
5704.36
5704.4
5704.48
5704.71
5704.53
5704.43
5704.35
5704.3
5704.28
5704.33
5704.42
5704.63
5704.44
5704.33
5704.26
5704.21
5704.2
5704.25
5704.35
5704.56
5704.38
5704.27
5704.2
5704.15
5704.14
5704.2
5704.3
5704.54
5704.36
5704.25
5704.18
5704.13
5704.13
5704.18
5704.28
5704.56
5704.38
5704.28
5704.21
5704.17
5704.17
5704.22
5704.32
5704.41
5704.21
5704.07
5703.96
5703.89
5703.89
5704.01
5704.21
5704.33
5704.13
5703.99
5703.88
5703.81
5703.82
5703.95
5704.16
5704.21
5704
5703.87
5703.76
5703.69
5703.71
5703.85
5704.07
5704.07
5703.86
5703.73
5703.62
5703.56
5703.59
5703.74
5703.96
5703.96
5703.76
5703.62
5703.52
5703.46
5703.5
5703.66
5703.89
5703.92
5703.72
5703.59
5703.49
5703.44
5703.48
5703.64
5703.87
5703.96
5703.76
5703.64
5703.55
5703.5
5703.53
5703.69
5703.92
5703.63
5703.44
5703.32
5703.25
5703.28
5703.48
5703.8
5704.19
5703.5
5703.33
5703.24
5703.18
5703.22
5703.42
5703.74
5704.16
5703.29
5703.15
5703.07
5703.03
5703.08
5703.31
5703.66
5704.04
5703.04
5702.92
5702.85
5702.82
5702.89
5703.15
5703.51
5703.9
5702.85
5702.74
5702.68
5702.67
5702.75
5703.02
5703.4
5703.81
5702.78
5702.68
5702.63
5702.63
5702.71
5702.99
5703.38
5703.78
5702.86
5702.75
5702.71
5702.7
5702.78
5703.05
5703.43
5703.84
5702.88
5702.86
5702.9
5703.05
5703.36
5703.85
5704.37
5704.83
5702.72
5702.76
5702.84
5703.05
5703.41
5703.9
5704.39
5704.84
5702.4
5702.47
5702.63
5702.89
5703.32
5703.83
5704.32
5704.75
5702.01
5702.09
5702.29
5702.61
5703.12
5703.66
5704.17
5704.6
5701.74
5701.8
5702.02
5702.39
5702.95
5703.52
5704.04
5704.5
5701.64
5701.7
5701.91
5702.31
5702.89
5703.47
5703.99
5704.46
5701.71
5701.77
5701.99
5702.35
5702.91
5703.49
5704.03
5704.51
5700.38
5701.19
5702.19
5703.34
5704.48
5705.37
5706
5706.37
5699.81
5701.02
5702.47
5703.76
5704.81
5705.6
5706.14
5706.43
5698.9
5700.48
5702.37
5703.86
5704.89
5705.64
5706.14
5706.39
5697.71
5699.66
5701.92
5703.62
5704.7
5705.46
5705.97
5706.24
5696.75
5699.26
5701.63
5703.37
5704.47
5705.25
5705.8
5706.1
5696.49
5699.16
5701.56
5703.26
5704.34
5705.13
5705.69
5706.02
5696.72
5699.01
5701.43
5703.19
5704.28
5705.09
5705.7
5706.07
5705.05
5704.94
5704.89
5704.87
5704.87
5704.88
5704.89
5704.92
5704.99
5704.89
5704.83
5704.81
5704.8
5704.79
5704.8
5704.82
5704.95
5704.84
5704.78
5704.75
5704.74
5704.73
5704.73
5704.75
5704.93
5704.82
5704.76
5704.73
5704.71
5704.7
5704.7
5704.71
5704.95
5704.83
5704.77
5704.74
5704.72
5704.71
5704.71
5704.72
5704.97
5704.85
5704.79
5704.76
5704.75
5704.74
5704.74
5704.76
5704.99
5704.88
5704.82
5704.8
5704.79
5704.79
5704.79
5704.81
5704.83
5704.68
5704.59
5704.54
5704.5
5704.49
5704.52
5704.6
5704.74
5704.59
5704.5
5704.44
5704.39
5704.36
5704.39
5704.47
5704.68
5704.53
5704.43
5704.36
5704.3
5704.27
5704.3
5704.38
5704.66
5704.51
5704.41
5704.34
5704.27
5704.24
5704.26
5704.34
5704.67
5704.52
5704.42
5704.35
5704.29
5704.26
5704.28
5704.36
5704.71
5704.55
5704.45
5704.39
5704.33
5704.31
5704.33
5704.41
5704.75
5704.59
5704.5
5704.44
5704.39
5704.37
5704.4
5704.47
5704.36
5704.18
5704.06
5703.97
5703.9
5703.91
5704.03
5704.25
5704.23
5704.05
5703.92
5703.83
5703.75
5703.76
5703.88
5704.1
5704.14
5703.96
5703.82
5703.72
5703.64
5703.65
5703.77
5703.99
5704.11
5703.92
5703.79
5703.69
5703.61
5703.61
5703.74
5703.95
5704.13
5703.94
5703.81
5703.71
5703.64
5703.64
5703.76
5703.97
5704.18
5703.98
5703.85
5703.75
5703.68
5703.69
5703.82
5704.03
5704.24
5704.04
5703.9
5703.8
5703.74
5703.75
5703.88
5704.09
5703.52
5703.33
5703.21
5703.16
5703.18
5703.36
5703.71
5704.15
5703.33
5703.15
5703.03
5702.97
5702.99
5703.17
5703.54
5703.98
5703.2
5703.02
5702.9
5702.84
5702.86
5703.03
5703.42
5703.86
5703.16
5702.98
5702.85
5702.8
5702.83
5703
5703.38
5703.81
5703.19
5702.99
5702.86
5702.82
5702.85
5703.03
5703.4
5703.83
5703.25
5703.03
5702.89
5702.84
5702.88
5703.07
5703.44
5703.87
5703.33
5703.09
5702.93
5702.87
5702.92
5703.11
5703.49
5703.94
5702.43
5702.33
5702.32
5702.47
5702.83
5703.43
5704.07
5704.68
5702.13
5702.05
5702.03
5702.2
5702.59
5703.22
5703.87
5704.49
5701.95
5701.87
5701.84
5702.01
5702.41
5703.05
5703.72
5704.35
5701.92
5701.84
5701.83
5702
5702.36
5702.99
5703.66
5704.29
5701.95
5701.86
5701.86
5702.01
5702.36
5702.98
5703.66
5704.28
5702
5701.89
5701.88
5702.01
5702.37
5703
5703.69
5704.33
5702.08
5701.94
5701.91
5702.04
5702.39
5703.04
5703.75
5704.4
5699.15
5699.39
5700.45
5701.86
5703.32
5704.41
5705.25
5705.92
5698.69
5698.96
5700.05
5701.52
5703.04
5704.17
5705.01
5705.68
5698.48
5698.72
5699.77
5701.21
5702.77
5703.95
5704.82
5705.5
5698.57
5698.75
5699.71
5701.05
5702.64
5703.87
5704.77
5705.45
5698.81
5698.93
5699.8
5701.04
5702.58
5703.84
5704.78
5705.47
5699
5699.08
5699.89
5701.07
5702.58
5703.88
5704.85
5705.55
5699.15
5699.2
5699.98
5701.13
5702.64
5703.96
5704.96
5705.66
5705.02
5704.91
5704.85
5704.83
5704.82
5704.82
5704.82
5704.84
5705.04
5704.93
5704.87
5704.85
5704.84
5704.83
5704.83
5704.84
5705.05
5704.94
5704.88
5704.86
5704.84
5704.83
5704.82
5704.83
5705.06
5704.95
5704.89
5704.86
5704.84
5704.82
5704.81
5704.82
5705.06
5704.95
5704.89
5704.86
5704.84
5704.82
5704.81
5704.82
5705.07
5704.96
5704.9
5704.87
5704.84
5704.83
5704.82
5704.84
5705.06
5704.96
5704.89
5704.87
5704.85
5704.83
5704.83
5704.85
5704.79
5704.64
5704.54
5704.48
5704.43
5704.41
5704.44
5704.52
5704.83
5704.67
5704.58
5704.52
5704.46
5704.44
5704.46
5704.52
5704.85
5704.69
5704.6
5704.53
5704.46
5704.43
5704.45
5704.5
5704.85
5704.7
5704.6
5704.52
5704.46
5704.42
5704.43
5704.49
5704.86
5704.71
5704.6
5704.52
5704.45
5704.42
5704.43
5704.49
5704.87
5704.71
5704.61
5704.53
5704.46
5704.43
5704.44
5704.51
5704.87
5704.71
5704.61
5704.53
5704.46
5704.43
5704.46
5704.53
5704.31
5704.11
5703.97
5703.87
5703.8
5703.82
5703.94
5704.14
5704.37
5704.17
5704.03
5703.93
5703.86
5703.86
5703.96
5704.15
5704.4
5704.2
5704.06
5703.95
5703.87
5703.87
5703.96
5704.13
5704.41
5704.21
5704.07
5703.95
5703.86
5703.85
5703.94
5704.12
5704.42
5704.23
5704.08
5703.96
5703.86
5703.85
5703.95
5704.13
5704.44
5704.24
5704.09
5703.97
5703.88
5703.88
5703.98
5704.17
5704.45
5704.25
5704.1
5703.98
5703.9
5703.9
5704.01
5704.21
5703.43
5703.19
5703.03
5702.96
5703
5703.18
5703.55
5703.98
5703.53
5703.3
5703.14
5703.06
5703.08
5703.25
5703.58
5703.98
5703.59
5703.36
5703.2
5703.12
5703.12
5703.27
5703.58
5703.96
5703.61
5703.39
5703.22
5703.13
5703.13
5703.27
5703.57
5703.95
5703.63
5703.41
5703.24
5703.16
5703.15
5703.3
5703.61
5703.99
5703.66
5703.44
5703.29
5703.21
5703.21
5703.37
5703.69
5704.07
5703.68
5703.47
5703.33
5703.25
5703.27
5703.45
5703.77
5704.15
5702.23
5702.08
5702.04
5702.15
5702.48
5703.1
5703.8
5704.43
5702.42
5702.28
5702.22
5702.3
5702.6
5703.15
5703.8
5704.4
5702.56
5702.41
5702.34
5702.4
5702.67
5703.15
5703.77
5704.35
5702.62
5702.47
5702.38
5702.43
5702.71
5703.18
5703.78
5704.35
5702.69
5702.56
5702.49
5702.54
5702.82
5703.3
5703.88
5704.43
5702.79
5702.7
5702.65
5702.75
5703.01
5703.5
5704.06
5704.59
5702.9
5702.84
5702.84
5702.97
5703.22
5703.7
5704.24
5704.74
5699.45
5699.5
5700.21
5701.27
5702.71
5704.02
5705.01
5705.7
5699.9
5699.96
5700.5
5701.37
5702.69
5703.98
5704.97
5705.65
5700.21
5700.23
5700.72
5701.44
5702.61
5703.87
5704.87
5705.55
5700.33
5700.38
5700.78
5701.46
5702.64
5703.91
5704.89
5705.55
5700.47
5700.63
5701.03
5701.75
5702.95
5704.15
5705.06
5705.68
5700.59
5700.91
5701.36
5702.2
5703.44
5704.54
5705.38
5705.92
5700.64
5701.18
5701.87
5702.81
5704.02
5705
5705.73
5706.19
5704.93
5704.81
5704.74
5704.71
5704.7
5704.7
5704.72
5704.75
5704.98
5704.86
5704.8
5704.78
5704.77
5704.77
5704.78
5704.82
5705.03
5704.92
5704.86
5704.84
5704.84
5704.84
5704.85
5704.89
5705.08
5704.98
5704.92
5704.91
5704.9
5704.9
5704.92
5704.95
5705.12
5705.01
5704.96
5704.95
5704.95
5704.95
5704.97
5705
5705.12
5705.02
5704.97
5704.95
5704.96
5704.97
5704.99
5705.02
5705.1
5705
5704.94
5704.93
5704.94
5704.95
5704.96
5704.99
5704.62
5704.45
5704.35
5704.29
5704.24
5704.24
5704.29
5704.39
5704.7
5704.54
5704.44
5704.38
5704.34
5704.33
5704.37
5704.47
5704.8
5704.63
5704.54
5704.48
5704.44
5704.43
5704.47
5704.56
5704.88
5704.72
5704.63
5704.58
5704.53
5704.52
5704.57
5704.65
5704.93
5704.78
5704.7
5704.65
5704.61
5704.6
5704.64
5704.72
5704.94
5704.79
5704.71
5704.67
5704.63
5704.62
5704.66
5704.75
5704.9
5704.75
5704.67
5704.62
5704.59
5704.58
5704.62
5704.7
5704.06
5703.86
5703.74
5703.66
5703.6
5703.63
5703.78
5704.01
5704.19
5704
5703.88
5703.79
5703.73
5703.76
5703.9
5704.12
5704.33
5704.15
5704.03
5703.94
5703.88
5703.89
5704.03
5704.24
5704.46
5704.28
5704.17
5704.07
5704
5704.01
5704.14
5704.35
5704.54
5704.37
5704.25
5704.16
5704.1
5704.1
5704.22
5704.43
5704.55
5704.37
5704.26
5704.17
5704.11
5704.12
5704.24
5704.44
5704.49
5704.3
5704.18
5704.1
5704.04
5704.05
5704.17
5704.38
5703.02
5702.91
5702.87
5702.86
5702.93
5703.18
5703.55
5703.96
5703.24
5703.13
5703.08
5703.06
5703.12
5703.35
5703.71
5704.1
5703.49
5703.36
5703.3
5703.26
5703.3
5703.51
5703.85
5704.23
5703.72
5703.57
5703.49
5703.44
5703.46
5703.63
5703.94
5704.35
5703.85
5703.69
5703.58
5703.52
5703.53
5703.7
5704.02
5704.41
5703.84
5703.67
5703.55
5703.49
5703.5
5703.66
5704
5704.39
5703.72
5703.53
5703.41
5703.35
5703.37
5703.54
5703.88
5704.3
5701.91
5701.99
5702.22
5702.57
5703.08
5703.63
5704.16
5704.64
5702.23
5702.32
5702.53
5702.85
5703.32
5703.84
5704.35
5704.81
5702.63
5702.69
5702.84
5703.09
5703.49
5703.99
5704.49
5704.94
5702.98
5703
5703.09
5703.28
5703.6
5704.06
5704.56
5705.02
5703.13
5703.11
5703.16
5703.3
5703.58
5704.04
5704.56
5705.05
5703.05
5703.01
5703.03
5703.16
5703.41
5703.9
5704.46
5705
5702.78
5702.7
5702.71
5702.84
5703.14
5703.68
5704.28
5704.86
5697.37
5699.14
5701.54
5703.38
5704.48
5705.26
5705.84
5706.2
5698.13
5699.68
5701.93
5703.69
5704.77
5705.51
5706.04
5706.36
5699.18
5700.39
5702.22
5703.79
5704.89
5705.63
5706.16
5706.48
5700.24
5701.07
5702.33
5703.69
5704.82
5705.61
5706.16
5706.53
5700.62
5701.19
5702.23
5703.45
5704.61
5705.46
5706.08
5706.51
5700.47
5700.9
5701.86
5702.94
5704.17
5705.13
5705.86
5706.39
5699.85
5700.16
5701.18
5702.46
5703.79
5704.8
5705.58
5706.17
5704.97
5704.9
5704.9
5704.87
5704.9
5704.93
5704.96
5704.98
5704.99
5704.97
5704.95
5704.85
5704.88
5704.92
5704.95
5704.97
5704.98
5704.96
5704.94
5704.81
5704.85
5704.89
5704.93
5704.95
5704.96
5704.95
5704.93
5704.77
5704.81
5704.85
5704.89
5704.91
5704.92
5704.91
5704.89
5704.73
5704.77
5704.81
5704.85
5704.88
5704.89
5704.87
5704.86
5704.73
5704.77
5704.81
5704.85
5704.88
5704.89
5704.88
5704.86
5704.74
5704.78
5704.81
5704.84
5704.86
5704.87
5704.87
5704.85
5704.61
5704.68
5704.75
5704.82
5704.87
5704.89
5704.88
5704.86
5704.57
5704.65
5704.73
5704.8
5704.85
5704.87
5704.86
5704.84
5704.51
5704.59
5704.68
5704.75
5704.8
5704.83
5704.82
5704.8
5704.45
5704.53
5704.62
5704.7
5704.75
5704.78
5704.78
5704.76
5704.4
5704.49
5704.57
5704.65
5704.71
5704.74
5704.74
5704.72
5704.39
5704.48
5704.56
5704.64
5704.7
5704.74
5704.73
5704.71
5704.42
5704.51
5704.6
5704.68
5704.74
5704.77
5704.76
5704.74
5704.39
5704.52
5704.65
5704.76
5704.85
5704.91
5704.92
5704.93
5704.34
5704.48
5704.61
5704.73
5704.82
5704.88
5704.9
5704.9
5704.26
5704.4
5704.54
5704.66
5704.76
5704.82
5704.84
5704.85
5704.16
5704.31
5704.46
5704.59
5704.69
5704.76
5704.78
5704.78
5704.09
5704.25
5704.4
5704.53
5704.63
5704.7
5704.72
5704.73
5704.07
5704.23
5704.38
5704.52
5704.62
5704.69
5704.72
5704.73
5704.12
5704.28
5704.43
5704.56
5704.67
5704.74
5704.76
5704.77
5704.46
5704.66
5704.84
5705
5705.14
5705.25
5705.33
5705.44
5704.43
5704.62
5704.8
5704.96
5705.1
5705.21
5705.29
5705.41
5704.32
5704.53
5704.71
5704.88
5705.02
5705.13
5705.22
5705.35
5704.2
5704.42
5704.61
5704.78
5704.93
5705.05
5705.14
5705.26
5704.11
5704.33
5704.54
5704.71
5704.86
5704.99
5705.08
5705.21
5704.09
5704.32
5704.52
5704.7
5704.86
5704.98
5705.07
5705.21
5704.15
5704.38
5704.58
5704.76
5704.92
5705.05
5705.14
5705.26
5705.14
5705.34
5705.51
5705.66
5705.82
5705.99
5706.21
5706.48
5705.13
5705.32
5705.48
5705.63
5705.78
5705.95
5706.16
5706.43
5705.04
5705.23
5705.4
5705.54
5705.69
5705.87
5706.09
5706.35
5704.91
5705.12
5705.29
5705.44
5705.6
5705.78
5705.99
5706.26
5704.81
5705.03
5705.21
5705.37
5705.53
5705.71
5705.94
5706.21
5704.78
5705.01
5705.2
5705.36
5705.53
5705.72
5705.95
5706.23
5704.85
5705.08
5705.27
5705.44
5705.61
5705.8
5706.03
5706.31
5706.51
5706.57
5706.59
5706.63
5706.73
5706.93
5707.28
5707.72
5706.53
5706.57
5706.56
5706.59
5706.68
5706.87
5707.21
5707.65
5706.47
5706.5
5706.48
5706.5
5706.58
5706.77
5707.12
5707.56
5706.35
5706.39
5706.38
5706.39
5706.47
5706.67
5707.02
5707.47
5706.24
5706.29
5706.3
5706.32
5706.41
5706.61
5706.97
5707.42
5706.18
5706.25
5706.28
5706.33
5706.43
5706.64
5707
5707.46
5706.23
5706.32
5706.36
5706.42
5706.53
5706.75
5707.12
5707.58
5704.95
5704.99
5705.02
5705.06
5705.08
5705.09
5705.08
5705.06
5704.86
5704.89
5704.93
5704.96
5704.99
5705
5704.99
5704.97
5704.78
5704.82
5704.86
5704.89
5704.92
5704.93
5704.92
5704.9
5704.74
5704.77
5704.81
5704.84
5704.87
5704.88
5704.86
5704.84
5704.75
5704.78
5704.81
5704.85
5704.87
5704.87
5704.86
5704.84
5704.79
5704.82
5704.85
5704.88
5704.9
5704.91
5704.89
5704.87
5704.84
5704.87
5704.9
5704.93
5704.95
5704.96
5704.94
5704.92
5704.69
5704.77
5704.86
5704.93
5704.99
5705.02
5705.01
5705
5704.57
5704.65
5704.74
5704.81
5704.87
5704.91
5704.9
5704.89
5704.47
5704.56
5704.64
5704.72
5704.78
5704.82
5704.81
5704.8
5704.43
5704.51
5704.59
5704.67
5704.73
5704.76
5704.76
5704.74
5704.44
5704.52
5704.61
5704.68
5704.74
5704.77
5704.76
5704.74
5704.49
5704.57
5704.65
5704.72
5704.78
5704.81
5704.8
5704.78
5704.56
5704.64
5704.72
5704.79
5704.84
5704.87
5704.86
5704.84
5704.45
5704.6
5704.75
5704.89
5704.99
5705.07
5705.09
5705.11
5704.3
5704.46
5704.61
5704.75
5704.86
5704.94
5704.97
5704.99
5704.19
5704.35
5704.51
5704.64
5704.76
5704.84
5704.87
5704.9
5704.15
5704.3
5704.46
5704.59
5704.7
5704.78
5704.82
5704.84
5704.17
5704.32
5704.47
5704.6
5704.71
5704.79
5704.82
5704.84
5704.22
5704.37
5704.52
5704.65
5704.76
5704.83
5704.86
5704.87
5704.29
5704.44
5704.59
5704.72
5704.83
5704.9
5704.92
5704.93
5704.48
5704.72
5704.94
5705.14
5705.31
5705.46
5705.56
5705.68
5704.31
5704.56
5704.79
5704.99
5705.16
5705.31
5705.44
5705.57
5704.2
5704.45
5704.68
5704.88
5705.06
5705.21
5705.34
5705.49
5704.15
5704.39
5704.62
5704.82
5704.99
5705.15
5705.28
5705.43
5704.16
5704.4
5704.62
5704.82
5704.99
5705.14
5705.27
5705.41
5704.21
5704.45
5704.67
5704.86
5705.04
5705.18
5705.3
5705.42
5704.27
5704.51
5704.73
5704.93
5705.1
5705.24
5705.34
5705.46
5705.11
5705.39
5705.64
5705.86
5706.08
5706.3
5706.57
5706.88
5704.93
5705.23
5705.48
5705.7
5705.92
5706.15
5706.43
5706.76
5704.81
5705.11
5705.36
5705.59
5705.81
5706.04
5706.33
5706.67
5704.73
5705.02
5705.27
5705.5
5705.72
5705.96
5706.25
5706.6
5704.72
5705.01
5705.25
5705.48
5705.7
5705.94
5706.23
5706.56
5704.76
5705.05
5705.29
5705.52
5705.74
5705.97
5706.25
5706.56
5704.83
5705.12
5705.36
5705.59
5705.8
5706.02
5706.28
5706.57
5706.36
5706.62
5706.81
5706.97
5707.13
5707.38
5707.83
5708.39
5706.15
5706.43
5706.63
5706.79
5706.94
5707.2
5707.65
5708.23
5705.99
5706.29
5706.49
5706.66
5706.81
5707.07
5707.52
5708.1
5705.92
5706.19
5706.38
5706.54
5706.7
5706.97
5707.43
5708.01
5705.91
5706.16
5706.34
5706.5
5706.67
5706.94
5707.41
5707.98
5705.97
5706.21
5706.39
5706.54
5706.71
5706.98
5707.44
5707.99
5706.07
5706.3
5706.47
5706.62
5706.78
5707.04
5707.48
5708.02
5704.87
5704.9
5704.93
5704.95
5704.97
5704.98
5704.96
5704.94
5704.87
5704.89
5704.92
5704.94
5704.96
5704.96
5704.95
5704.93
5704.85
5704.87
5704.9
5704.92
5704.94
5704.94
5704.92
5704.9
5704.84
5704.86
5704.89
5704.91
5704.93
5704.93
5704.92
5704.9
5704.84
5704.87
5704.9
5704.92
5704.94
5704.94