/*--------------------------------*- C++ -*----------------------------------*\
| =========                 |                                                 |
| \\      /  F ield         | OpenFOAM: The Open Source CFD Toolbox           |
|  \\    /   O peration     | Version:  plus.master.MPPICInterFoam            |
|   \\  /    A nd           | Web:      www.OpenFOAM.com                      |
|    \\/     M anipulation  |                                                 |
\*---------------------------------------------------------------------------*/
FoamFile
{
    version     2.0;
    format      ascii;
    class       volScalarField;
    location    "5";
    object      epsilon;
}
// * * * * * * * * * * * * * * * * * * * * * * * * * * * * * * * * * * * * * //

dimensions      [0 2 -3 0 0 0 0];

internalField   nonuniform List<scalar> 
11821
(
0.000207544
0.000579574
0.00434616
0.0107574
0.00358272
0.000446022
0.000164198
0.000579703
0.0177619
0.130304
0.290393
0.117406
0.0150446
0.000455987
0.00419327
0.126576
0.237309
1.32695
0.203979
0.116255
0.00375074
0.00907864
0.262687
1.31872
1.13335
1.03593
0.228805
0.00850955
0.00330966
0.110958
0.20352
1.01232
0.158171
0.0944739
0.00272925
0.000454377
0.0147775
0.116785
0.229872
0.0922648
0.0109302
0.000328454
0.000191563
0.000524088
0.00399884
0.00867542
0.00274516
0.00035172
0.00015212
0.0019544
0.010558
0.0591462
0.138494
0.0466778
0.00762854
0.00149089
0.0108548
0.0981387
0.431627
1.08433
0.347679
0.0648414
0.00732649
0.0653167
0.460222
1.12505
3.6507
0.896316
0.276067
0.0375669
0.148258
1.15924
3.56425
3.41791
4.18852
0.56838
0.0670365
0.0491682
0.371878
0.984679
4.27873
0.730852
0.204878
0.0265604
0.00823888
0.0725131
0.309393
0.645105
0.224569
0.0425819
0.00528667
0.00170381
0.00857581
0.045172
0.0860684
0.0317198
0.00575307
0.00130264
0.00609383
0.0236779
0.113159
0.25403
0.0858648
0.0183636
0.00529779
0.0243045
0.194527
0.798757
1.8455
0.585536
0.117917
0.0181152
0.131353
0.916601
2.28816
4.98112
1.87113
0.457559
0.070618
0.337685
2.38624
5.15137
5.01742
6.89403
0.966059
0.129394
0.108587
0.769229
2.1055
5.7916
1.63877
0.380793
0.0586849
0.0215132
0.161076
0.616698
1.18979
0.439004
0.0960607
0.0159212
0.00596976
0.0228599
0.10099
0.190876
0.0756602
0.0175118
0.00516893
0.0137196
0.0341158
0.135817
0.308832
0.113217
0.0317916
0.0132673
0.034058
0.225401
1.04075
2.32055
0.774933
0.161926
0.0318055
0.148055
1.18828
3.37313
5.85456
2.81091
0.652136
0.102631
0.409825
3.23534
6.05492
6.06831
8.59491
1.38556
0.193713
0.135794
1.06712
3.19417
6.86909
2.56642
0.598068
0.096019
0.0347517
0.221154
0.938909
1.76653
0.698541
0.160509
0.0319523
0.0142823
0.0380551
0.149207
0.294486
0.124331
0.0348171
0.0137258
0.017332
0.0348285
0.12104
0.28575
0.115362
0.0375764
0.0178421
0.0336478
0.184044
1.01873
2.43967
0.821173
0.172493
0.0379526
0.117056
1.08271
4.3369
6.95754
3.67538
0.753069
0.114809
0.335094
3.35099
6.19363
6.84109
10.9583
1.73445
0.226874
0.117685
1.06448
4.3062
7.61614
3.50467
0.751508
0.114923
0.0365154
0.211209
1.10025
2.24384
0.876969
0.192944
0.0398363
0.0180453
0.0411929
0.157336
0.344289
0.144905
0.0428402
0.0184047
0.000136273
0.00013321
0.000130283
0.000126187
0.000121545
0.00011771
0.000114821
0.000112073
0.000185184
0.000144383
0.000134656
0.000127448
0.000121497
0.000116491
0.000112204
0.000108349
0.000648381
0.000209676
0.000140465
0.00012651
0.000119961
0.00011535
0.000111341
0.00010696
0.00131802
0.000291052
0.000148325
0.000125152
0.000116692
0.000111584
0.000107576
0.000102506
0.000492084
0.000186326
0.000137839
0.000126992
0.000119623
0.000114947
0.000111209
0.000106384
0.000154775
0.000138535
0.000135324
0.000127711
0.000121059
0.000115277
0.000110306
0.000105962
0.00013207
0.0001338
0.000131958
0.000125577
0.000120275
0.000115781
0.000111431
0.00010802
0.00066766
0.000492536
0.000411754
0.000353499
0.000307407
0.000270292
0.00024035
0.00021592
0.00128057
0.000596312
0.000439028
0.000362883
0.000310263
0.000269649
0.000237343
0.000211341
0.00371683
0.000863109
0.000493065
0.00038297
0.000320945
0.000275611
0.00023972
0.000211057
0.005997
0.00106649
0.00052652
0.00039469
0.000327993
0.000280627
0.000243219
0.000213194
0.0028685
0.000794664
0.000488029
0.000384596
0.000323621
0.000277879
0.000241342
0.000212044
0.00107251
0.000576818
0.000444412
0.00037174
0.000318585
0.000276498
0.000242599
0.000215046
0.000633086
0.000496826
0.000423656
0.000366723
0.000319958
0.000281449
0.000249905
0.000223882
0.00285339
0.00225975
0.0019594
0.00170264
0.0014491
0.00119812
0.000961247
0.00075351
0.0046622
0.00263971
0.00207753
0.00176067
0.00148867
0.00122547
0.000975153
0.000753475
0.0103554
0.00347364
0.00226673
0.00183424
0.00153597
0.00126059
0.000997501
0.000761972
0.0158974
0.00411328
0.00238654
0.00187577
0.00156136
0.00127935
0.00101004
0.000767915
0.00919968
0.00334916
0.00226215
0.00184792
0.00155199
0.00127494
0.00100897
0.000770102
0.0043949
0.00262486
0.00211029
0.0018022
0.00152814
0.00125902
0.00100112
0.000771277
0.0028361
0.00230296
0.00202004
0.00176439
0.00150487
0.00124515
0.000998565
0.000781118
0.0087568
0.0073322
0.00639701
0.00557213
0.00485293
0.0042665
0.00379064
0.00332149
0.0119928
0.00822787
0.00679325
0.00580597
0.00498845
0.00433035
0.00381482
0.00333137
0.0208466
0.00980703
0.00723531
0.00600972
0.00510841
0.00439953
0.00385571
0.00336285
0.0298561
0.0110011
0.00749664
0.00611422
0.00516933
0.00443678
0.00387923
0.0033815
0.0200878
0.00971669
0.00724355
0.00603315
0.00513208
0.00442219
0.00387954
0.00339052
0.0120366
0.00829842
0.00686576
0.00586977
0.00504306
0.00438
0.00386507
0.00338722
0.00893331
0.00748291
0.00653092
0.00568776
0.00495334
0.00435831
0.00388115
0.00341605
0.0128153
0.0114844
0.010835
0.0102878
0.0095875
0.008446
0.00669425
0.00471303
0.0162941
0.012163
0.010837
0.0100906
0.0093947
0.00838888
0.00678729
0.00484849
0.0262073
0.0138297
0.0111264
0.0101032
0.0093917
0.00847249
0.00695939
0.00502752
0.037074
0.0152467
0.0113758
0.0101597
0.00942404
0.00852857
0.00704343
0.00511194
0.0258847
0.0137343
0.0110855
0.0100735
0.00936781
0.0084576
0.00695738
0.00504118
0.016417
0.0121363
0.0107709
0.0100046
0.00930436
0.00831111
0.00673817
0.00483981
0.0128731
0.0114172
0.0106855
0.0100746
0.00933617
0.00819364
0.00648833
0.00459097
0.000161074
0.000159529
0.000154606
0.000148021
0.000143279
0.000139493
0.000135088
0.000131566
0.000196512
0.000165537
0.000155781
0.000147667
0.000143901
0.000141859
0.000136631
0.00013424
0.000562959
0.000225279
0.000175119
0.000167309
0.000158448
0.000148376
0.000142579
0.000138296
0.00118822
0.000288944
0.000185643
0.000169638
0.000162723
0.000156155
0.000150207
0.000144735
0.00070263
0.000255566
0.000185882
0.000168933
0.000165019
0.000158277
0.000150709
0.000145872
0.000226045
0.000173228
0.000163103
0.000157312
0.000154453
0.000151323
0.000147232
0.000143685
0.000169053
0.000169056
0.000164608
0.000158671
0.000153297
0.000148682
0.000144532
0.000141597
0.000775286
0.000605085
0.000515311
0.000444946
0.000386719
0.000338393
0.000299009
0.000266948
0.00144021
0.000766956
0.00059801
0.000505108
0.000435288
0.00037704
0.000328736
0.000289444
0.00436221
0.00111507
0.00070218
0.000570617
0.000491248
0.000429885
0.000378273
0.000334521
0.010685
0.00152376
0.000762835
0.00059572
0.000512785
0.000452324
0.000402562
0.000360326
0.00565776
0.00123187
0.000725766
0.000583074
0.000502882
0.000441534
0.000390638
0.00034722
0.00171106
0.000817865
0.000616794
0.000515309
0.000442309
0.000383479
0.00033505
0.000295643
0.000829463
0.000625556
0.000526048
0.00045111
0.000390497
0.000340978
0.000300787
0.000268289
0.0032219
0.00266764
0.00235695
0.00206732
0.00176688
0.00146076
0.00116629
0.000904671
0.00503626
0.0031082
0.00256705
0.00222773
0.00191102
0.00158758
0.00126752
0.00097485
0.0118558
0.00397901
0.00279634
0.00235872
0.00203118
0.00170783
0.00137972
0.00106811
0.0277212
0.00513526
0.00294632
0.00239351
0.00205254
0.00173455
0.00141493
0.00110918
0.0135415
0.00413889
0.00281997
0.00235982
0.00202721
0.00170399
0.00137785
0.00106843
0.0053021
0.00315748
0.0025771
0.00222383
0.00190255
0.00157899
0.00126071
0.000970676
0.00325772
0.00267597
0.00234975
0.00205244
0.00174996
0.00144501
0.00115364
0.000896585
0.00954931
0.00817411
0.00718257
0.00626809
0.00545383
0.00478244
0.0042362
0.00370266
0.0124891
0.0090632
0.00767604
0.00662847
0.00572015
0.00497438
0.00438799
0.00384275
0.0213233
0.0104071
0.00807707
0.00685066
0.00587059
0.00507436
0.00446272
0.00392005
0.0395591
0.0120402
0.00833744
0.00693005
0.0059139
0.0051098
0.00450769
0.00399258
0.0221561
0.0104871
0.00808469
0.00684437
0.00586019
0.00506233
0.00444899
0.00390346
0.0123352
0.00903121
0.00766814
0.0066215
0.00570943
0.00495727
0.00436131
0.00380319
0.00942344
0.00812433
0.0071489
0.00623673
0.00541837
0.00473738
0.00417709
0.00362693
0.0133539
0.0120752
0.0113312
0.0106598
0.00983066
0.00856238
0.00669123
0.00462039
0.0161423
0.0127761
0.0115719
0.0108018
0.0100439
0.00894146
0.00718108
0.00504012
0.0236716
0.0139651
0.011851
0.0109099
0.0101586
0.00914113
0.00744849
0.0052868
0.0369636
0.0153115
0.0121171
0.0110531
0.0103507
0.00945234
0.00788156
0.0057708
0.0236354
0.0139967
0.011898
0.0109592
0.010208
0.00918829
0.0074889
0.0053132
0.0158459
0.0128212
0.0116921
0.0109412
0.0101806
0.00905916
0.0072637
0.00507583
0.0133496
0.0122428
0.0115841
0.0109696
0.0101699
0.00889111
0.00695601
0.00477947
0.000167693
0.000165327
0.000161879
0.000157903
0.000152736
0.000147298
0.000142153
0.000138105
0.000222146
0.000172398
0.000158651
0.000149169
0.000144517
0.000140624
0.000134504
0.000128765
0.000744961
0.000258522
0.000184574
0.000167769
0.000153221
0.000138675
0.000129443
0.00012189
0.0015065
0.000336334
0.000185818
0.000157174
0.000147082
0.000138317
0.000130107
0.00012253
0.000574609
0.000208303
0.000159493
0.000148471
0.000139751
0.00012858
0.000119554
0.000113059
0.000179836
0.000147774
0.000138333
0.000131457
0.000126386
0.000122832
0.000119543
0.000115116
0.000139828
0.000139415
0.000136548
0.00013342
0.000129305
0.000125454
0.000122256
0.00011835
0.00085636
0.000651976
0.000546543
0.000464998
0.000398181
0.000343539
0.000299348
0.000263879
0.00176167
0.000905263
0.00069643
0.000580895
0.000492001
0.000416373
0.000352651
0.0002993
0.00570434
0.0014462
0.000889413
0.000711381
0.000601738
0.000515376
0.000440479
0.000375108
0.0108991
0.00179449
0.00093317
0.000726462
0.000618238
0.000535493
0.000464534
0.000402563
0.00455572
0.00124869
0.000795189
0.00064152
0.000543793
0.000464439
0.000396443
0.000337426
0.0014096
0.000763593
0.000595226
0.000498732
0.000423906
0.000360875
0.000307537
0.000263168
0.000707404
0.000541151
0.000454502
0.00038817
0.000334296
0.000290541
0.000255322
0.0002269
0.00327677
0.00270024
0.00237818
0.00208416
0.00178249
0.00147469
0.00117649
0.000909519
0.00533511
0.00322972
0.00266099
0.00231538
0.00199627
0.00166694
0.00133305
0.00101789
0.0131013
0.00432467
0.00298202
0.00250771
0.00217161
0.00184406
0.00150496
0.00117009
0.0233448
0.00516933
0.00307886
0.0025055
0.0021579
0.00183934
0.0015152
0.00119427
0.0112287
0.00400722
0.00279521
0.00235076
0.00203302
0.00172247
0.00140114
0.00108472
0.0047858
0.00292115
0.00239093
0.0020744
0.0017864
0.00149075
0.00119218
0.000911661
0.00291835
0.00235818
0.00206276
0.00180441
0.00154343
0.00127919
0.00102472
0.000797858
0.00948097
0.00820056
0.00722767
0.00630846
0.00547621
0.00478039
0.00420989
0.0036588
0.0124903
0.00916063
0.0078107
0.00674763
0.0057777
0.00494604
0.00428071
0.00369457
0.0223679
0.0108038
0.00836132
0.0071023
0.00604233
0.0051039
0.00432426
0.00363575
0.0360045
0.0122063
0.00856924
0.00715903
0.00609585
0.00516962
0.00439506
0.00370324
0.0212359
0.0105034
0.00808225
0.00684661
0.00582642
0.00493038
0.00418754
0.00352771
0.0121915
0.00870717
0.00732948
0.00631045
0.00540722
0.00464226
0.00403231
0.00348835
0.00891734
0.00755248
0.0066134
0.00576828
0.00501981
0.00440309
0.00390146
0.00341294
0.0135453
0.0124953
0.0119089
0.0113839
0.010681
0.00949148
0.00758937
0.00534413
0.0164276
0.0133315
0.0123643
0.0118764
0.011432
0.0106112
0.00897999
0.00673881
0.0256407
0.0148392
0.0125815
0.0117878
0.0113215
0.0106889
0.00937684
0.00748782
0.0390949
0.0163334
0.0126547
0.0115679
0.0110428
0.0105059
0.00943423
0.0078503
0.026059
0.0147434
0.0123405
0.0115356
0.0110862
0.010469
0.00918057
0.00732993
0.01673
0.0129883
0.011889
0.0113927
0.0109679
0.0101852
0.00863356
0.00651359
0.0131381
0.0118946
0.0113005
0.0108153
0.0101723
0.00907143
0.00730444
0.00522051
0.00014
0.000141536
0.00014012
0.000134679
0.000129587
0.000124993
0.000120926
0.000116344
0.00018409
0.00015942
0.00014878
0.000141448
0.000135711
0.000130679
0.000125575
0.000120937
0.0005711
0.000237173
0.000172587
0.000159202
0.000151609
0.000144342
0.000136657
0.000130012
0.0014511
0.000370523
0.000205157
0.000177145
0.000164254
0.000154029
0.000144184
0.000135876
0.000818911
0.000298076
0.000200213
0.000178139
0.000164778
0.000154197
0.000145701
0.000137119
0.000238339
0.000186706
0.000165462
0.000155782
0.000146076
0.00014135
0.000138528
0.000132981
0.000164688
0.000162225
0.000155806
0.000149408
0.000143729
0.000138813
0.00013432
0.000130809
0.000681715
0.000538349
0.000461113
0.000399743
0.000348705
0.000306451
0.000271645
0.000242863
0.00128132
0.000725852
0.000575455
0.000489083
0.000422402
0.000366798
0.000319753
0.000280385
0.00379679
0.00113918
0.000733936
0.000596554
0.000512713
0.000445938
0.00038921
0.000340253
0.00874338
0.00166489
0.000857199
0.000661605
0.000565564
0.000495263
0.000436589
0.000385807
0.00507645
0.00132226
0.000798489
0.000638547
0.000547012
0.000476374
0.000416469
0.000364787
0.00160056
0.000829023
0.000641945
0.000540421
0.000463454
0.000400171
0.000346429
0.00030202
0.000790478
0.000615456
0.000526324
0.000455272
0.000395681
0.000345888
0.000304814
0.000271129
0.00294085
0.00241039
0.00213303
0.00187789
0.00161267
0.00134092
0.00107771
0.000842121
0.00489995
0.00297693
0.00244833
0.00213619
0.00184905
0.00155153
0.00125005
0.000967374
0.01183
0.00417348
0.0028438
0.00238465
0.00206997
0.00176233
0.0014416
0.00112525
0.0241629
0.00562651
0.00314583
0.00251095
0.00216356
0.00185276
0.001534
0.00121649
0.0139223
0.0044763
0.00296861
0.00247458
0.00214521
0.00182659
0.00149528
0.00116823
0.00547225
0.0032144
0.00263406
0.00229584
0.0019846
0.00166186
0.00133491
0.00102875
0.00323698
0.00267282
0.002373
0.00209022
0.00179323
0.00148712
0.00118949
0.000922614
0.00912825
0.00770381
0.00676532
0.00592202
0.00517692
0.00456527
0.00406885
0.00358107
0.0130149
0.00900128
0.00753491
0.00652093
0.00566297
0.00496157
0.00441267
0.00390232
0.0246693
0.0112373
0.00829964
0.00696492
0.00598047
0.00519181
0.00458836
0.00406078
0.0433923
0.01366
0.00883095
0.00717709
0.00610635
0.00527959
0.00466421
0.00415357
0.0263045
0.0115346
0.00848899
0.00712242
0.00611128
0.00529955
0.00467848
0.00413759
0.0133774
0.00933888
0.00786782
0.00681494
0.0059074
0.00515909
0.00457139
0.00402858
0.0095919
0.00820398
0.00723005
0.00632557
0.00551491
0.00484327
0.00429521
0.00375928
0.013106
0.0116846
0.0109697
0.0103597
0.00960456
0.00842734
0.00666658
0.00469676
0.0175658
0.0130278
0.0116666
0.0109516
0.0102936
0.0092804
0.00756295
0.00540447
0.0307179
0.0155168
0.0124355
0.0113924
0.0107405
0.00986
0.00825726
0.00609962
0.0512955
0.0181932
0.013055
0.0117304
0.0111416
0.010465
0.00909847
0.00710091
0.0309265
0.0156322
0.012611
0.0115779
0.0109233
0.0100319
0.00839817
0.00619028
0.0173249
0.0132578
0.0119875
0.0112677
0.0105788
0.00951575
0.00771944
0.00546515
0.0134281
0.0121468
0.0114278
0.0107755
0.00996001
0.00869795
0.00681946
0.0047229
0.000108946
0.000105639
0.000103059
9.7778e-05
0.000102119
0.000102557
0.000104834
0.000195609
0.000190187
0.000188049
0.000188857
0.000188421
0.000192422
0.000201917
0.00058808
0.00057769
0.000575009
0.000575449
0.000579876
0.000588012
0.000606872
0.00269333
0.00266721
0.0026751
0.00268605
0.00270762
0.00273032
0.00279158
0.00273959
0.0027009
0.00272065
0.00274143
0.00274527
0.0027317
0.00271504
0.000128402
0.000133216
0.000134917
0.000139707
0.000142025
0.000141361
0.000139433
0.00024044
0.000256861
0.000297955
0.00032468
0.000310497
0.00026368
0.000241661
0.000694508
0.000737417
0.000807993
0.000851522
0.000810077
0.000735741
0.000692334
0.00299557
0.00309299
0.00316638
0.00327611
0.00314554
0.0030395
0.00290547
0.00261609
0.00270013
0.0027651
0.0031389
0.00277244
0.00268679
0.00265584
0.000134737
0.000123016
0.000115253
0.000115654
0.000107126
0.000110716
0.000114356
0.000235109
0.000255992
0.000320613
0.000350991
0.00028834
0.000227071
0.000203581
0.000693347
0.00075289
0.00087849
0.000914093
0.000809997
0.000676285
0.000614435
0.00294733
0.00297797
0.00282832
0.00288015
0.00274323
0.00280847
0.00276948
0.00302885
0.00395444
0.0048498
0.00542389
0.00474106
0.00386863
0.00304607
0.000111598
0.000116881
0.000124336
0.0001293
0.000129855
0.000128575
0.000127635
0.00021856
0.000247169
0.000298722
0.000342488
0.000320972
0.000265422
0.000243066
0.000650875
0.000731848
0.000850374
0.000937002
0.000883583
0.000774492
0.000706308
0.00292343
0.00318499
0.0033374
0.00347346
0.00339994
0.00327644
0.00304686
0.00274588
0.00296512
0.00343456
0.00435932
0.00346723
0.00294555
0.00267674
0.00010622
0.000103982
0.000100862
9.47179e-05
8.65307e-05
7.75349e-05
6.83819e-05
5.92025e-05
0.00010379
9.89702e-05
9.4534e-05
8.87727e-05
8.11885e-05
7.27779e-05
6.41405e-05
5.54763e-05
0.000100977
9.77754e-05
9.30247e-05
8.57062e-05
7.78083e-05
6.9761e-05
6.15243e-05
5.32783e-05
9.57573e-05
9.47752e-05
9.17191e-05
8.6209e-05
7.76628e-05
6.84791e-05
6.00392e-05
5.20023e-05
9.94833e-05
9.59838e-05
9.16268e-05
8.4221e-05
7.64212e-05
6.86039e-05
6.05678e-05
5.24955e-05
9.99865e-05
9.47138e-05
9.10521e-05
8.56659e-05
7.84687e-05
7.04074e-05
6.20818e-05
5.37418e-05
0.000101667
9.88952e-05
9.65996e-05
9.07943e-05
8.28611e-05
7.41206e-05
6.52457e-05
5.64455e-05
0.000176962
0.000153356
0.000127393
0.000104269
8.6388e-05
7.29873e-05
6.26813e-05
5.45194e-05
0.000172027
0.000148594
0.000124392
0.000102122
8.45898e-05
7.1229e-05
6.08686e-05
5.26698e-05
0.000169306
0.000144939
0.000121244
9.99996e-05
8.29987e-05
6.99263e-05
5.97451e-05
5.1657e-05
0.000169346
0.00014438
0.00012118
9.98827e-05
8.26077e-05
6.93912e-05
5.91887e-05
5.11353e-05
0.000169034
0.00014432
0.000120318
9.9217e-05
8.22027e-05
6.91505e-05
5.90224e-05
5.10027e-05
0.000172764
0.000147642
0.000122875
0.000100579
8.30003e-05
6.9653e-05
5.93738e-05
5.12926e-05
0.000181317
0.000154866
0.000127354
0.000103333
8.4774e-05
7.09386e-05
6.04332e-05
5.22428e-05
0.000458972
0.000345662
0.000239146
0.000164277
0.000117917
8.94515e-05
7.12659e-05
5.91831e-05
0.000448769
0.000335177
0.000234466
0.000162676
0.000117297
8.89371e-05
7.06093e-05
5.83854e-05
0.000443134
0.000327513
0.000231318
0.000161675
0.000116944
8.87075e-05
7.03511e-05
5.80668e-05
0.000441128
0.00032352
0.000229996
0.000161531
0.000116957
8.86317e-05
7.0207e-05
5.78936e-05
0.000444787
0.00032565
0.000230785
0.0001615
0.000116683
8.83462e-05
6.99497e-05
5.76683e-05
0.000452081
0.000331427
0.000233016
0.000161964
0.000116515
8.80138e-05
6.96353e-05
5.74309e-05
0.000468512
0.000345206
0.000239982
0.000164896
0.000117655
8.84685e-05
6.98818e-05
5.76485e-05
0.00195702
0.000980267
0.000447906
0.00023032
0.000137864
9.37519e-05
7.0101e-05
5.63069e-05
0.00193384
0.000972735
0.0004463
0.00023053
0.000138489
9.42544e-05
7.03639e-05
5.63968e-05
0.0019406
0.000981452
0.000450655
0.000232287
0.000139251
9.46035e-05
7.05017e-05
5.64091e-05
0.00195031
0.000989219
0.000454064
0.00023352
0.000139724
9.48148e-05
7.06199e-05
5.64939e-05
0.00197095
0.000999577
0.000457325
0.000234145
0.000139606
9.45339e-05
7.03307e-05
5.62305e-05
0.00199161
0.00100611
0.000457958
0.00023335
0.000138683
9.37772e-05
6.97716e-05
5.58354e-05
0.00204141
0.00102597
0.000464074
0.00023484
0.000138682
9.33571e-05
6.92995e-05
5.54192e-05
0.00178623
0.00107041
0.000494519
0.000240738
0.00013424
8.63264e-05
6.25733e-05
4.97601e-05
0.00173233
0.00104699
0.000489805
0.00024114
0.000135471
8.72873e-05
6.31498e-05
5.01332e-05
0.00172819
0.00104686
0.000491886
0.000242603
0.00013621
8.76141e-05
6.32791e-05
5.0171e-05
0.00173364
0.00104976
0.000494011
0.000243912
0.000137008
8.81195e-05
6.362e-05
5.04304e-05
0.00174174
0.00105362
0.000494776
0.000243713
0.000136606
8.77356e-05
6.33047e-05
5.01723e-05
0.00174501
0.00105301
0.000492603
0.000242012
0.000135526
8.70899e-05
6.29211e-05
4.99429e-05
0.00175325
0.00105505
0.000490392
0.0002395
0.000133502
8.55707e-05
6.17944e-05
4.90821e-05
0.000126158
0.000126477
0.00012174
0.000112174
0.000100559
8.86673e-05
7.72452e-05
6.62992e-05
0.000131647
0.000130383
0.000125702
0.00011605
0.000103564
9.08477e-05
7.82297e-05
6.65467e-05
0.00013215
0.000128481
0.00012644
0.000119087
0.000108632
9.72069e-05
8.45351e-05
7.06286e-05
0.000135274
0.000127106
0.000118598
0.00010907
9.82484e-05
8.70114e-05
7.48973e-05
6.46062e-05
0.000138573
0.000133415
0.00013069
0.000123255
0.000111972
9.97319e-05
8.71184e-05
7.28208e-05
0.000140304
0.000138777
0.000132082
0.000121078
0.000108193
9.48475e-05
8.14748e-05
6.89823e-05
0.000137787
0.000135864
0.000129096
0.000118089
0.000105541
9.29642e-05
8.08484e-05
6.91921e-05
0.000215879
0.000182774
0.000146348
0.000115315
9.22015e-05
7.56889e-05
6.37363e-05
5.48282e-05
0.00022846
0.000193172
0.000157034
0.000124495
9.92678e-05
8.02596e-05
6.61361e-05
5.56154e-05
0.000264748
0.000224402
0.000187198
0.000154092
0.000127053
0.000105373
8.76681e-05
7.3315e-05
0.000291691
0.000250507
0.000212646
0.000179572
0.000150534
0.000125372
0.000103952
8.58657e-05
0.000276679
0.000235065
0.000196318
0.000161496
0.000132992
0.000110449
9.17242e-05
7.63784e-05
0.000235834
0.000200386
0.000162882
0.000129555
0.000103422
8.37172e-05
6.89117e-05
5.78484e-05
0.000217433
0.000184265
0.000147529
0.000116715
9.39985e-05
7.77208e-05
6.57806e-05
5.67668e-05
0.000527082
0.000387349
0.000258323
0.000170457
0.000117905
8.68693e-05
6.79052e-05
5.58635e-05
0.000555887
0.000403102
0.000274358
0.000184457
0.000128902
9.52449e-05
7.43275e-05
6.09693e-05
0.000606659
0.000432043
0.000310389
0.000222393
0.00016506
0.000128998
0.000105896
9.05814e-05
0.000648745
0.000467533
0.000359934
0.000279853
0.000220642
0.00017683
0.00014213
0.000114922
0.000610244
0.000437285
0.00031398
0.000224995
0.000166952
0.00013024
0.00010649
9.04613e-05
0.00055705
0.000408046
0.000276488
0.000185879
0.000130433
9.68452e-05
7.58627e-05
6.23492e-05
0.000534155
0.00038974
0.000257194
0.000169361
0.000117671
8.73233e-05
6.87085e-05
5.67856e-05
0.00215622
0.00105124
0.000462234
0.000228359
0.000132432
8.82195e-05
6.53021e-05
5.23654e-05
0.00223761
0.00111251
0.000498525
0.000250381
0.000147574
9.97905e-05
7.48059e-05
6.06422e-05
0.00231386
0.00118322
0.000546825
0.000287503
0.000182788
0.000136759
0.000114221
0.000101763
0.00246151
0.00135802
0.000702079
0.000420414
0.000302639
0.000245842
0.000205106
0.000161843
0.00229265
0.00117078
0.000543258
0.000287454
0.000183722
0.000137592
0.00011444
0.000100981
0.00218434
0.00108113
0.000487456
0.000247637
0.000147276
0.000100151
7.53068e-05
6.10816e-05
0.00206928
0.00100694
0.00044708
0.000223965
0.000131384
8.82492e-05
6.56763e-05
5.28158e-05
0.00168588
0.0010041
0.00046069
0.000222755
0.000123803
7.9793e-05
5.82967e-05
4.69131e-05
0.00171777
0.00103026
0.00048136
0.000238134
0.000135917
9.00147e-05
6.7413e-05
5.54299e-05
0.0017203
0.00102929
0.000491723
0.000257506
0.000162918
0.000124368
0.000109217
0.00010384
0.00194694
0.00123763
0.000674063
0.000429417
0.00034216
0.000322621
0.000322633
0.000293687
0.00172348
0.001033
0.00049441
0.000259325
0.000164289
0.000125716
0.000110243
0.000104158
0.00171338
0.00102863
0.000479909
0.00023731
0.00013542
8.9618e-05
6.69864e-05
5.49206e-05
0.00172228
0.00102125
0.000465516
0.000224222
0.000124496
8.03312e-05
5.87624e-05
4.72568e-05
0.000131002
0.000127358
0.000123243
0.000114265
0.000103084
9.16286e-05
8.04374e-05
6.94544e-05
0.000119514
0.000114284
0.000106457
9.98451e-05
9.10721e-05
8.14155e-05
7.20463e-05
6.2951e-05
0.00010956
0.000100985
9.28076e-05
8.54622e-05
7.7323e-05
6.91596e-05
6.13761e-05
5.39435e-05
0.000109529
9.98475e-05
9.14462e-05
8.30761e-05
7.4111e-05
6.55657e-05
5.76772e-05
5.13614e-05
0.000102126
9.47576e-05
8.79967e-05
8.10534e-05
7.38851e-05
6.64556e-05
5.91755e-05
5.22398e-05
0.000107603
0.000103033
9.72586e-05
9.07948e-05
8.43505e-05
7.63763e-05
6.81321e-05
5.99835e-05
0.000110659
0.000105106
0.000103433
9.83016e-05
9.04225e-05
8.15526e-05
7.24582e-05
6.32094e-05
0.000208956
0.000178257
0.000144016
0.000114361
9.22061e-05
7.64946e-05
6.51768e-05
5.66699e-05
0.000217517
0.000172962
0.000138403
0.000111038
9.0375e-05
7.55696e-05
6.51208e-05
5.74223e-05
0.000269347
0.000211643
0.000167985
0.000134862
0.00010984
9.01818e-05
7.43497e-05
6.15625e-05
0.000301207
0.000244172
0.000198239
0.000161761
0.000133105
0.000110057
9.11813e-05
7.5655e-05
0.000242714
0.000190756
0.00015098
0.000121081
9.83074e-05
8.07265e-05
6.6886e-05
5.59059e-05
0.000195121
0.000157782
0.000126824
0.000103306
8.47985e-05
7.13946e-05
6.1865e-05
5.48848e-05
0.000182294
0.000156913
0.000130375
0.000106256
8.7407e-05
7.35273e-05
6.32209e-05
5.52972e-05
0.000522254
0.000381271
0.000255766
0.000170267
0.000119093
8.88681e-05
7.02987e-05
5.83369e-05
0.000539768
0.000352671
0.000247382
0.000177301
0.000131649
0.00010325
8.51311e-05
7.27374e-05
0.000630288
0.000401223
0.000267095
0.000187814
0.000138789
0.000106762
8.46692e-05
6.8812e-05
0.000671124
0.000444341
0.000308487
0.000226607
0.000174065
0.000137715
0.000111045
9.07675e-05
0.000579926
0.000367958
0.000244222
0.000171147
0.000126047
9.69982e-05
7.75331e-05
6.40617e-05
0.00048942
0.000322906
0.000226941
0.000163232
0.000121598
9.57589e-05
7.94075e-05
6.83761e-05
0.000470349
0.000347627
0.000240707
0.000164829
0.000117772
8.92223e-05
7.13106e-05
5.95818e-05
0.00212257
0.00105368
0.000475615
0.000239873
0.000140985
9.47633e-05
7.05228e-05
5.65798e-05
0.00220428
0.00118877
0.000580208
0.000307788
0.000188925
0.000132255
0.000101316
8.19673e-05
0.00200947
0.00105083
0.000517878
0.000281459
0.000178488
0.000130438
0.00010586
9.19233e-05
0.00204517
0.00109971
0.000573731
0.000332534
0.000220971
0.000163526
0.000129296
0.000106058
0.00195086
0.001017
0.000497054
0.00026735
0.000168288
0.000123079
0.000100923
8.93499e-05
0.00207644
0.00111092
0.000536196
0.000281006
0.000171082
0.000119787
9.25295e-05
7.58445e-05
0.002018
0.00102059
0.000467285
0.000238271
0.000141407
9.59317e-05
7.20022e-05
5.81832e-05
0.00196193
0.00116056
0.000535656
0.00025977
0.000143954
9.21832e-05
6.66562e-05
5.27643e-05
0.00248183
0.00150261
0.000739367
0.000377945
0.000215144
0.000139317
0.000100992
7.9234e-05
0.00291847
0.00175298
0.00087629
0.000443607
0.00025533
0.000180664
0.00015125
0.000134673
0.00321969
0.00194198
0.000999066
0.000526985
0.00030918
0.000211419
0.000161808
0.000129876
0.0028953
0.00173586
0.000853804
0.000423459
0.000240102
0.000168985
0.000141572
0.000126249
0.00246513
0.00149231
0.000725726
0.000363402
0.000202305
0.000129857
9.47445e-05
7.51635e-05
0.00199038
0.00118136
0.000545401
0.000264013
0.000146056
9.35709e-05
6.78445e-05
5.3927e-05
0.000108288
0.000105897
0.00010459
9.84998e-05
8.97722e-05
8.0115e-05
7.04784e-05
6.09901e-05
0.000114058
0.00011084
0.000107627
0.000101909
9.2983e-05
8.26926e-05
7.21753e-05
6.21438e-05
0.000119017
0.000110177
0.000102922
9.65039e-05
8.96695e-05
8.10495e-05
7.15425e-05
6.11938e-05
0.000123809
0.000113865
0.000104228
9.53952e-05
8.65347e-05
7.70436e-05
6.72538e-05
5.91203e-05
0.000124061
0.000114552
0.000106806
9.96121e-05
9.2306e-05
8.34729e-05
7.36328e-05
6.24664e-05
0.000125186
0.000120209
0.000117566
0.000109838
9.91613e-05
8.73901e-05
7.5777e-05
6.48954e-05
0.000125194
0.00012558
0.000121171
0.000111828
0.000100288
8.84481e-05
7.70852e-05
6.62064e-05
0.000195755
0.000167048
0.000136293
0.000109191
8.83019e-05
7.30024e-05
6.17199e-05
5.31787e-05
0.00021725
0.00018042
0.0001472
0.000117355
9.37157e-05
7.60539e-05
6.31134e-05
5.34753e-05
0.000260146
0.000213977
0.000174525
0.00014199
0.000115509
9.46208e-05
7.84642e-05
6.58231e-05
0.000301078
0.000250184
0.00020591
0.00016939
0.000139721
0.00011598
9.67683e-05
8.05548e-05
0.000279703
0.000230237
0.000187877
0.000152824
0.00012408
0.000101147
8.32144e-05
6.89974e-05
0.000232292
0.000193509
0.000156263
0.000123719
9.81646e-05
7.93938e-05
6.57778e-05
5.57654e-05
0.000217009
0.000183245
0.000146427
0.000115059
9.17535e-05
7.52256e-05
6.33691e-05
5.45705e-05
0.000498437
0.000365678
0.000250808
0.000169561
0.000119174
8.8594e-05
6.94915e-05
5.71206e-05
0.000548013
0.000389874
0.000270501
0.000184335
0.000129527
9.59127e-05
7.49703e-05
6.15538e-05
0.000625752
0.000418212
0.000294329
0.00021223
0.000156541
0.000120535
9.73724e-05
8.22354e-05
0.000700673
0.000475467
0.000336846
0.00024883
0.000189808
0.00014931
0.000120708
9.97876e-05
0.000649223
0.000433728
0.000305489
0.000219627
0.000160704
0.000122466
9.78712e-05
8.15656e-05
0.000575707
0.000408613
0.000279795
0.000188752
0.000132024
9.77616e-05
7.66164e-05
6.30989e-05
0.000533367
0.000389721
0.000259612
0.000170947
0.000118001
8.68641e-05
6.79176e-05
5.5902e-05
0.00213213
0.00106527
0.000477078
0.000238211
0.000139071
9.2987e-05
6.88562e-05
5.50551e-05
0.00234036
0.00119352
0.000540099
0.000269606
0.000157291
0.000105383
7.84095e-05
6.3125e-05
0.00250462
0.00134366
0.000644512
0.000337272
0.000207885
0.000147592
0.000115003
9.56669e-05
0.00268339
0.00152683
0.000790607
0.000437271
0.000269382
0.000185653
0.000140005
0.000112691
0.00254861
0.00136638
0.000656668
0.000345101
0.000213448
0.000151521
0.000117459
9.62132e-05
0.00239411
0.00120942
0.000543817
0.000270391
0.000157932
0.000106232
7.92644e-05
6.38099e-05
0.00219643
0.00107342
0.000471847
0.000232431
0.000134475
8.94774e-05
6.61929e-05
5.3033e-05
0.00176438
0.00105513
0.000488395
0.00023807
0.000132957
8.57215e-05
6.23854e-05
4.98896e-05
0.00186331
0.00111705
0.000526803
0.000262432
0.000149631
9.81663e-05
7.24483e-05
5.8681e-05
0.00206174
0.00126522
0.000642747
0.000353585
0.000222758
0.000157906
0.000121789
0.000101029