/*--------------------------------*- C++ -*----------------------------------*\
| =========                 |                                                 |
| \\      /  F ield         | OpenFOAM: The Open Source CFD Toolbox           |
|  \\    /   O peration     | Version:  plus.master.MPPICInterFoam            |
|   \\  /    A nd           | Web:      www.OpenFOAM.com                      |
|    \\/     M anipulation  |                                                 |
\*---------------------------------------------------------------------------*/
FoamFile
{
    version     2.0;
    format      ascii;
    class       scalarField;
    location    "6.6/lagrangian/kinematicCloud";
    object      age;
}
// * * * * * * * * * * * * * * * * * * * * * * * * * * * * * * * * * * * * * //


120
(
6.4694
6.47836
6.49653
6.56708
6.1675
6.54026
6.48939
6.54863
6.40749
6.38785
6.56831
6.50085
6.2517
6.60016
6.44345
6.59365
6.44595
6.53054
6.52706
6.49816
6.41237
6.41105
6.4301
6.36215
6.54276
6.56413
6.43171
6.56217
6.4766
6.58153
6.50777
6.40984
6.16838
6.38208
6.57663
6.30392
6.57627
6.5473
6.43521
6.59745
6.48466
6.56649
6.12643
6.59131
6.48847
6.55642
6.43934
6.5088
6.56459
6.33398
6.24966
6.55062
6.59155
6.32403
6.48366
6.53042
6.1977
6.47175
6.45971
6.55762
6.11864
6.14054
6.29208
6.52877
6.24526
6.09167
6.08009
6.50797
6.12734
6.60102
6.24295
6.57658
5.96
6.57696
5.71694
6.59395
5.89193
6.46567
6.59153
6.57822
6.12863
6.27413
6.29533
6.2339
6.31009
6.22419
6.40475
6.5884
6.3086
6.48994
6.2727
6.5254
6.32815
6.2765
6.53711
6.54879
6.44903
6.58149
5.86077
6.1108
5.91428
6.28304
6.59948
5.71234
6.29959
6.07623
6.5089
5.69367
6.16882
5.84769
6.4422
6.46466
6.57063
6.56597
6.33119
5.96294
6.4498
6.59772
6.57111
5.72031
)


// ************************************************************************* //
