/*--------------------------------*- C++ -*----------------------------------*\
| =========                 |                                                 |
| \\      /  F ield         | OpenFOAM: The Open Source CFD Toolbox           |
|  \\    /   O peration     | Version:  plus.master.MPPICInterFoam            |
|   \\  /    A nd           | Web:      www.OpenFOAM.com                      |
|    \\/     M anipulation  |                                                 |
\*---------------------------------------------------------------------------*/
FoamFile
{
    version     2.0;
    format      ascii;
    class       Cloud<basicKinematicMPPICParcel>;
    location    "6.6/lagrangian/kinematicCloud";
    object      positions;
}
// * * * * * * * * * * * * * * * * * * * * * * * * * * * * * * * * * * * * * //

120
(
(-0.0255505 -0.0428317 0.503005) 2320
(-0.0256617 -0.0424845 0.508594) 2320
(-0.0254142 -0.0421628 0.506277) 2320
(-0.0143245 -0.0472672 0.506344) 2328
(-0.000262619 -0.0493949 0.507846) 2336
(-0.00368061 -0.0539241 0.502048) 2336
(-0.0489032 -0.00363423 0.501665) 2000
(-0.0246674 -0.0419594 0.502762) 2319
(-0.0123453 -0.0457674 0.504273) 2327
(0.00335704 -0.0478978 0.507956) 2335
(-0.000561278 -0.0494354 0.50615) 2336
(0.00018587 -0.0489924 0.504784) 2336
(-0.017829 -0.0436534 0.505184) 2319
(-0.0124426 -0.0459596 0.504687) 2327
(0.00543431 -0.0492758 0.503434) 2336
(-0.0182174 -0.0435325 0.506415) 2319
(-0.0180381 -0.0435031 0.505669) 2319
(0.0017479 -0.0476832 0.50928) 2335
(-0.0296458 -0.0379838 0.504896) 2311
(-0.0117991 -0.0457058 0.50894) 2327
(-0.0382602 -0.030683 0.502276) 2024
(0.00348246 -0.047687 0.507835) 2335
(0.00304221 -0.0488629 0.503534) 2336
(0.00358432 -0.0492127 0.503781) 2336
(-0.0492281 -0.0052729 0.507335) 2000
(0.00110543 -0.0478772 0.505414) 2335
(3.22084e-05 -0.0486494 0.505356) 2335
(0.00147468 -0.0457832 0.504202) 2335
(-0.0493769 -0.00664452 0.505265) 2008
(-0.0499841 0.00550001 0.504752) 2000
(0.0111926 -0.0472725 0.504942) 2343
(0.0081667 -0.0510258 0.50247) 2344
(-0.0148562 0.0502889 0.501753) 2680
(0.0125782 -0.0475993 0.505474) 2344
(0.0165438 -0.0468343 0.502517) 2352
(0.0182923 -0.0510716 0.530777) 2464
(0.013732 -0.0474646 0.504199) 2344
(0.011625 -0.0365949 0.516234) 2398
(0.0558593 -0.0185306 0.503385) 1657
(0.0301837 -0.0466492 0.521728) 2473
(-0.00402734 -0.0519156 0.537209) 2504
(0.0210064 -0.0334271 0.533445) 2526
(0.0323026 -0.0208579 0.52103) 1694
(-0.0636745 -0.00736567 0.504006) 2010
(-0.00741203 -0.0627502 0.505117) 2330
(0.0622258 0.00477302 0.502381) 1666
(-0.00594073 -0.0623911 0.50349) 2338
(0.063847 -0.0103521 0.502976) 1658
(-0.0648421 -0.00558922 0.503892) 2002
(-0.0021038 0.0642422 0.505696) 2674
(-0.0111428 0.0625849 0.50688) 2682
(-0.0635824 -0.0108786 0.50881) 2010
(-0.0661751 -0.000582381 0.509207) 2003
(0.0602975 0.00926373 0.515944) 1730
(-0.00328781 -0.0628916 0.513103) 2394
(-0.011567 -0.0603471 0.513974) 2386
(-0.00801002 0.0583999 0.521692) 2793
(0.00496947 -0.0616477 0.517977) 2394
(0.0590906 0.00234081 0.517561) 1721
(0.0586141 0.0106835 0.519266) 1729
(0.00184004 -0.0613092 0.519962) 2394
(0.00259764 0.0614044 0.521377) 2730
(0.00351856 0.0610377 0.522422) 2786
(-0.0594814 -0.0127772 0.530018) 2122
(-0.00048412 0.0605048 0.532725) 2842
(0.00187596 0.0596893 0.533839) 2842
(0.00365393 0.057988 0.535111) 2841
(0.00175624 0.0598933 0.535716) 2842
(0.00157526 0.0587722 0.538603) 2841
(-0.0565827 0.00748794 0.540766) 2161
(0.00453002 0.0574991 0.542504) 2897
(0.00570178 0.0556224 0.543993) 2897
(-0.00496235 -0.0586495 0.541298) 2561
(0.00891998 0.0567306 0.54318) 2889
(-0.00405293 -0.0576745 0.543653) 2561
(0.056632 0.00361097 0.545338) 1889
(-0.000888753 -0.057986 0.544515) 2561
(-0.00227706 0.0534822 0.547721) 2896
(-0.00709971 -0.0537708 0.546317) 2552
(0.0535895 0.00136997 0.547739) 1888
(0.0510341 -0.00545754 0.549236) 1888
(-0.00197418 -0.0553965 0.546728) 2561
(0.0538848 -0.00133491 0.547643) 1888
(0.0492649 -0.00534479 0.551155) 1944
(0.00175194 -0.0555566 0.547238) 2561
(0.0540299 0.00130932 0.547581) 1888
(0.00220501 0.0504535 0.551436) 2952
(0.0522359 -0.00124365 0.55113) 1944
(0.0028041 0.0472059 0.557769) 2951
(0.00975297 0.0467062 0.556665) 2943
(0.0484492 -0.00130508 0.556377) 1943
(0.0099207 0.0455803 0.558669) 2943
(-0.00577807 0.0423726 0.560285) 2958
(0.0042808 0.0403527 0.560593) 2950
(0.00279134 0.0406206 0.568647) 9046
(-0.00431745 -0.0476257 0.558564) 2615
(-0.03798 -0.00430562 0.571033) 7143
(0.040411 -0.00128088 0.570719) 7366
(-0.00315433 -0.0383033 0.572889) 8542
(0.0398251 -0.0015996 0.571439) 7422
(-0.00242939 -0.0381142 0.573218) 7212
(-0.00600554 -0.0382358 0.572453) 8534
(0.0311802 -0.00272221 0.575452) 4908
(-0.00137893 -0.033088 0.577315) 6028
(-0.000957788 0.0249345 0.577012) 6586
(-0.000458356 -0.0290509 0.578064) 6027
(-0.0262098 -0.00483351 0.575713) 5474
(0.000404324 -0.0268309 0.578366) 6026
(0.0251659 -0.00237201 0.570101) 4850
(0.000865349 -0.0215188 0.567267) 5968
(0.0228787 -0.00239219 0.548944) 545
(-0.0229206 -0.0039259 0.546283) 889
(0.000360087 -0.0203001 0.554707) 1272
(0.0227667 -0.00389243 0.536992) 481
(-0.000977422 0.0220603 0.532211) 1497
(-0.00159815 -0.0216026 0.539163) 1160
(0.0235222 -0.00140342 0.521989) 433
(-0.00306392 -0.0225265 0.519642) 1041
(-0.00260577 -0.0224758 0.518646) 1049
(-0.00305962 -0.0223177 0.515401) 1041
)


// ************************************************************************* //
