/*--------------------------------*- C++ -*----------------------------------*\
| =========                 |                                                 |
| \\      /  F ield         | OpenFOAM: The Open Source CFD Toolbox           |
|  \\    /   O peration     | Version:  plus.master.MPPICInterFoam            |
|   \\  /    A nd           | Web:      www.OpenFOAM.com                      |
|    \\/     M anipulation  |                                                 |
\*---------------------------------------------------------------------------*/
FoamFile
{
    version     2.0;
    format      ascii;
    class       vectorField;
    location    "6.6/lagrangian/kinematicCloud";
    object      U;
}
// * * * * * * * * * * * * * * * * * * * * * * * * * * * * * * * * * * * * * //


120
(
(0.00339488 0.00437201 -0.0140947)
(0.00352493 0.00455419 -0.0130662)
(0.00347218 0.0044483 -0.0123056)
(0.00235248 0.00524496 -0.0148441)
(0.000757224 0.00545811 -0.0114539)
(0.00111796 0.00339671 -0.0231103)
(0.00524211 0.000206622 -0.0152895)
(0.00332238 0.00426308 -0.0164147)
(0.00216302 0.00482588 -0.0107302)
(0.000435398 0.00579609 -0.0106418)
(0.000823195 0.00534266 -0.0128307)
(0.000814251 0.00539985 -0.011972)
(0.00267338 0.00446101 -0.0108371)
(0.0021623 0.00488738 -0.0114813)
(0.000483758 0.00422393 -0.0138758)
(0.00272679 0.00454374 -0.0106991)
(0.00269773 0.00447233 -0.0106735)
(0.000585824 0.00586814 -0.010198)
(0.0037904 0.0038518 -0.0138646)
(0.00210922 0.005036 -0.0109271)
(0.00449644 0.00300199 -0.0165975)
(0.000388485 0.00625038 -0.00988026)
(0.000589525 0.00541103 -0.0145859)
(0.000509973 0.00532935 -0.0147079)
(0.00550538 0.000362064 -0.0144708)
(0.000761952 0.00563855 -0.011742)
(0.000827036 0.00551809 -0.0131399)
(0.00091784 0.00557549 -0.0114531)
(0.00546174 0.000517679 -0.0167948)
(0.00535851 -0.000700236 -0.0172094)
(-0.000348916 0.00549765 -0.014195)
(-8.41737e-05 0.00581362 -0.0193013)
(0.00272529 -0.00552794 -0.0198464)
(-0.000575472 0.00562917 -0.0150433)
(-0.000790758 0.00535576 -0.0172809)
(0.00132535 -0.00137204 -0.0318275)
(-0.000634208 0.0055946 -0.0162034)
(7.54729e-07 8.91788e-06 -0.0231604)
(-0.0046975 0.00189769 -0.0322658)
(-0.000836212 0.00225993 -0.0308583)
(0.000336127 -0.00702488 -0.0354686)
(8.6534e-05 0.000251822 -0.0142905)
(-1.73236e-06 2.41324e-06 -0.0214806)
(0.00356247 0.000111707 -0.0422487)
(0.000739385 0.00340592 -0.0403363)
(-0.00446986 -0.000372648 -0.0387555)
(0.000747079 0.0041444 -0.0419818)
(-0.00352655 0.000661497 -0.0422943)
(0.00333196 -4.0291e-05 -0.0454671)
(0.00060984 -0.00358075 -0.0436781)
(0.00125971 -0.00356717 -0.0432404)
(0.00200835 9.15688e-05 -0.0470632)
(0.00121956 -0.000263414 -0.0475342)
(-0.00140399 -6.93685e-05 -0.0402374)
(0.000315516 0.00141053 -0.044012)
(0.00062357 0.00182594 -0.0434696)
(0.000775554 -0.000112174 -0.0392237)
(0.000349634 -0.000385281 -0.0422872)
(-0.00171266 0.000278013 -0.0404289)
(-0.000613828 0.000103443 -0.04156)
(0.000454762 -0.00108834 -0.0450429)
(0.000524747 0.0018622 -0.0440895)
(0.000640404 0.00233515 -0.0446116)
(-0.00962259 -0.00210668 -0.053681)
(0.000855489 0.0131304 -0.0523813)
(0.000807546 0.0145583 -0.0524405)
(0.00209394 0.0133919 -0.05178)
(0.000997584 0.0180296 -0.054236)
(0.00186598 0.0210495 -0.0586585)
(-0.0223361 0.00388369 -0.0588504)
(0.00342907 0.0282573 -0.0614701)
(0.00452096 0.029577 -0.0600161)
(-0.000942773 -0.0251284 -0.0634518)
(0.00634737 0.0292885 -0.0626579)
(-0.000766925 -0.0293766 -0.0682362)
(0.0334353 0.00314896 -0.0663135)
(0.00098416 -0.0318058 -0.0708271)
(-0.000671369 0.0364403 -0.0609006)
(-0.00276057 -0.0304629 -0.0646002)
(0.0347568 0.00261858 -0.0621897)
(0.0333045 -0.0027327 -0.0547239)
(0.000298353 -0.0338201 -0.0694899)
(0.035249 0.000564127 -0.0634023)
(0.0358045 -0.00297298 -0.0571851)
(0.00308899 -0.0351384 -0.0697531)
(0.0355458 0.00287532 -0.0638351)
(0.00318664 0.0424971 -0.0632168)
(0.0416847 0.000491955 -0.0641307)
(0.0073167 0.0700835 -0.105107)
(0.0143973 0.0627799 -0.106504)
(0.0628057 0.000841572 -0.104881)
(0.018523 0.0742346 -0.106758)
(-0.00722785 0.0617969 -0.0579919)
(0.00379571 0.0294266 -0.0420503)
(0.0123604 0.126726 -0.167079)
(-0.00601648 -0.0688054 -0.0947166)
(-0.144066 -0.0120843 -0.158891)
(0.137612 -0.00318387 -0.193241)
(-0.00694662 -0.0976189 -0.10409)
(0.150511 -0.00364723 -0.195428)
(-0.00614851 -0.119074 -0.102075)
(-0.0176693 -0.106152 -0.129747)
(0.0237585 0.00137456 -0.00372742)
(-0.00255473 -0.125001 -0.0678026)
(0.00281634 0.0720169 0.0186457)
(0.00110992 -0.122015 -0.023309)
(-0.0807691 -0.0129433 0.0848101)
(0.00527214 -0.109795 0.0291771)
(0.0636736 -0.0023928 0.244599)
(0.00608435 -0.0343492 0.326204)
(0.0182895 -0.00089706 0.304366)
(-0.0158994 -0.00251113 0.305198)
(0.00321386 -0.0184751 0.364919)
(0.0185063 -0.00204598 0.294293)
(0.00138895 0.0168958 0.269048)
(0.000978754 -0.0242624 0.34483)
(0.00907047 0.000304473 0.273528)
(0.00178962 0.00376325 0.32165)
(0.00191724 0.00431923 0.324973)
(0.00215639 0.00670411 0.32547)
)


// ************************************************************************* //
