/*--------------------------------*- C++ -*----------------------------------*\
| =========                 |                                                 |
| \\      /  F ield         | OpenFOAM: The Open Source CFD Toolbox           |
|  \\    /   O peration     | Version:  plus.master.MPPICInterFoam            |
|   \\  /    A nd           | Web:      www.OpenFOAM.com                      |
|    \\/     M anipulation  |                                                 |
\*---------------------------------------------------------------------------*/
FoamFile
{
    version     2.0;
    format      ascii;
    class       vectorField;
    location    "3/lagrangian/kinematicCloud";
    object      UCorrect;
}
// * * * * * * * * * * * * * * * * * * * * * * * * * * * * * * * * * * * * * //


94041
(
(0.00208627 0.00351337 1.05123e-06)
(0.000537824 -5.50363e-05 6.4888e-05)
(5.02636e-07 8.88935e-05 1.13076e-05)
(-3.90802e-07 0.000117387 4.17781e-06)
(3.75125e-05 -5.91247e-05 4.46671e-05)
(-0.000150268 -0.000220892 7.91087e-05)
(0.000173938 -0.000273717 7.4838e-05)
(-0.000123196 0.000168296 0.00167172)
(0.000104887 0.000190669 7.0622e-05)
(0.000592744 -4.84937e-05 2.16619e-05)
(1.3791e-06 5.21751e-05 0.000453816)
(6.58646e-05 8.46373e-05 6.78804e-05)
(0.000292797 0.000311168 6.9083e-05)
(0.00548303 0.00229546 2.17722e-05)
(0.000108221 0.000378562 7.61067e-05)
(0.00027403 -4.86105e-10 6.82242e-05)
(0.000245628 0.000175021 5.18739e-05)
(-0.00199375 -0.00148842 0.00208287)
(-0.000164723 7.93266e-05 7.89754e-05)
(0.000214075 0.000360642 6.73704e-05)
(3.96149e-05 1.89724e-05 6.50815e-05)
(-0.000241521 0.000223107 0.0017019)
(1.11087e-11 0.000152779 1.09756e-05)
(-0.000158885 -7.65148e-05 6.05473e-05)
(-0.000252082 -0.000121399 8.25203e-05)
(0.000303472 -0.000289388 0.00169019)
(-3.74386e-05 -3.27422e-05 5.37891e-05)
(-0.000241961 0.000222668 0.0017019)
(-4.82205e-11 0.000440064 -1.9455e-05)
(-0.000252082 -0.000121399 7.68197e-05)
(0.000285247 -0.000415442 7.76087e-05)
(-0.000393644 7.09846e-05 6.34238e-05)
(0.000227962 -0.000341287 0.00185108)
(-0.00102886 -0.00219802 8.38581e-05)
(-5.70965e-05 0.000357 7.73474e-05)
(-0.000216791 0.000269182 6.96804e-05)
(0.000292797 0.000311168 7.16144e-05)
(-6.95215e-07 -1.36113e-05 6.69635e-05)
(1.3791e-06 7.03059e-05 0.00165357)
(0.000131965 0.000186307 3.4888e-07)
(-0.000146391 1.6659e-06 2.28357e-05)
(0.000173938 -0.000273717 7.14623e-05)
(-0.000147791 -0.000287387 7.93446e-05)
(-2.78963e-05 -5.99232e-05 8.02766e-05)
(-0.000164723 7.93266e-05 7.4079e-05)
(-9.01276e-05 0.000180053 8.13196e-05)
(0.000285247 -0.000415442 7.26119e-05)
(6.62424e-17 -0.000145143 5.62108e-08)
(4.71576e-05 -5.09866e-05 8.57035e-05)
(-0.000147791 -0.000287387 6.77547e-05)
(-0.000100189 6.96638e-05 7.81138e-05)
(0.000328194 -0.000317202 7.37433e-05)
(-7.79853e-05 0.000120943 7.71472e-05)
(0.000429268 -8.60345e-05 6.62881e-05)
(-2.89451e-06 -0.000129991 7.45279e-05)
(0.00019579 -0.000164176 7.69538e-05)
(0.000104887 0.000190669 6.45886e-05)
(9.27184e-05 0.000276404 7.41177e-05)
(-4.68431e-05 -0.00507093 1.56536e-05)
(-9.01276e-05 0.000180053 7.43629e-05)
(2.26617e-05 1.20897e-06 6.43629e-05)
(0.000328194 -0.000317202 8.05732e-05)
(0.000285247 -0.000415442 7.34051e-05)
(0.000238954 0.000300348 7.44986e-05)
(-9.01276e-05 0.000180053 7.5071e-05)
(0.000483763 9.2132e-05 7.98304e-05)
(-0.000158885 -7.65148e-05 7.93375e-05)
(0.000999497 0.00061467 8.70252e-05)
(-5.68811e-07 0.000144506 8.41884e-05)
(-0.000674413 -4.40261e-07 8.22306e-05)
(0.000328194 -0.000317202 6.88921e-05)
(7.78093e-05 -0.000328926 7.05483e-05)
(0.000378824 0.000193274 7.75867e-05)
(0.000104887 0.000190669 7.80181e-05)
(0.000104887 0.000190669 6.45683e-05)
(2.08535e-05 -8.65225e-05 7.50957e-05)
(0.000302629 -0.000290231 0.00169019)
(3.96829e-05 -1.54346e-10 5.75526e-05)
(0.00548303 0.00229546 2.38833e-05)
(9.66544e-05 -3.92279e-05 8.04807e-05)
(-0.000338958 0.000379553 7.23554e-05)
(-0.000216791 0.000269182 6.18224e-05)
(4.46323e-05 2.55758e-05 6.37104e-05)
(-0.000310319 0.000149445 7.82082e-05)
(9.27184e-05 0.000276404 7.00114e-05)
(0.000125004 0.00044174 3.72136e-05)
(4.28235e-05 -4.92239e-05 7.93898e-05)
(0.000201281 -0.000296096 7.9111e-05)
(-2.29863e-07 8.28718e-05 5.69186e-06)
(-0.00070296 -0.000562489 7.73667e-05)
(-0.00077342 -0.00259495 7.92663e-05)
(0.000293006 0.000279959 7.74066e-05)
(0.000148023 0.000103435 7.57361e-05)
(0.000125974 -0.000174119 0.00176723)
(-0.000252082 -0.000121399 7.28177e-05)
(0.000118726 -0.0002693 7.91776e-05)
(-0.000516353 0.000122011 7.27918e-05)
(0.000189437 0.000448828 7.54311e-05)
(-9.8803e-05 2.43327e-05 2.28357e-05)
(9.4782e-05 -1.36708e-05 5.07485e-05)
(-0.00627661 0.000878813 1.42623e-05)
(1.87252e-06 -0.0058819 2.01743e-12)
(0.000518467 -1.65505e-11 -2.533e-06)
(4.28235e-05 -4.92239e-05 7.56343e-05)
(0.00027403 -4.86105e-10 6.86945e-05)
(-0.000810953 -0.00356778 7.80837e-05)
(1.16932e-05 0.000172721 8.09189e-05)
(-0.00102886 -0.00219802 9.05594e-05)
(-2.29863e-07 8.28718e-05 1.18586e-05)
(-9.01276e-05 0.000180053 7.67034e-05)
(0.000285247 -0.000415442 8.43198e-05)
(-0.000103627 7.85573e-05 7.17662e-05)
(0.00238892 4.89933e-07 -0.000156783)
(-7.59517e-05 0.000110563 7.48382e-05)
(0.000285247 -0.000415442 7.66182e-05)
(-9.67322e-05 -0.00015542 0.00024504)
(-2.89451e-06 -9.25357e-05 1.02767e-05)
(0.000238954 0.000300348 7.89401e-05)
(4.28235e-05 -4.92239e-05 7.92948e-05)
(0.000157297 -0.00026473 7.548e-05)
(0.000219905 0.00018135 7.48817e-05)
(-9.19727e-05 -4.42919e-05 7.29903e-05)
(1.58704e-05 -2.46711e-05 7.7887e-05)
(0.000157297 -0.00026473 7.50182e-05)
(0.000275265 -5.0682e-06 7.77036e-05)
(-3.90802e-07 0.000117387 4.10353e-06)
(0.000231114 -0.00021053 0.00171728)
(-0.000150268 -0.000220892 7.96593e-05)
(0.000265246 0.000100819 0.00187865)
(-0.00135568 -0.00266415 8.03775e-05)
(0.000184046 0.000368319 6.57344e-05)
(3.60186e-07 0.000166699 7.57211e-05)
(0.000378824 0.000193274 7.26679e-05)
(0.000275265 -5.0682e-06 0.000191239)
(0.000305844 -0.000287017 0.00169019)
(4.28235e-05 -4.92239e-05 8.05314e-05)
(6.09842e-05 9.68566e-05 6.75419e-05)
(6.09842e-05 9.68566e-05 6.73394e-05)
(0.000151694 0.00029421 7.61301e-05)
(0.000999497 0.000228652 0.000148248)
(8.76275e-05 0.000100455 7.59584e-05)
(-0.00444113 -0.00115432 8.14607e-05)
(-2.29863e-07 7.94888e-05 3.22482e-05)
(-7.67061e-05 0.000133154 6.8564e-05)
(-0.000313292 0.000282924 0.00158022)
(-0.00558973 -8.23304e-05 0.000366449)
(-4.33392e-05 3.93154e-05 7.61352e-05)
(-0.000252082 -0.000121399 8.0336e-05)
(-5.19666e-05 0.000154621 0.00162431)
(0.000215982 -0.000190753 0.0017604)
(-0.000559396 -8.15387e-06 6.82081e-05)
(-0.000160164 -0.00121063 4.36688e-05)
(-0.000308681 0.000282596 7.6952e-05)
(-0.000158885 -7.65148e-05 7.20976e-05)
(0.000360598 0.000182028 4.47942e-05)
(0.000261057 -0.000107497 7.75513e-05)
(0.000334377 0.000142633 6.28188e-05)
(0.000157199 6.15423e-05 0.00190212)
(0.000104887 0.000190669 7.00829e-05)
(0.000537824 -5.50363e-05 7.49345e-05)
(-0.0012945 0.00341017 7.49539e-05)
(-3.07138e-05 1.25731e-05 6.06334e-05)
(-0.000252082 -0.000121399 7.02043e-05)
(0.000104441 1.80979e-05 7.62993e-05)
(0.00107112 -0.00530617 7.42493e-05)
(-1.91225e-05 -9.07073e-05 7.45279e-05)
(0.000157297 -0.00026473 7.51615e-05)
(-7.79853e-05 0.000120943 7.46633e-05)
(0.000236715 4.50938e-05 6.81463e-05)
(7.05108e-05 -3.23173e-05 6.99195e-05)
(8.8945e-05 -4.40261e-07 3.62799e-06)
(-0.000111921 -0.00595172 1.4524e-05)
(1.34481e-05 -2.44215e-05 0.0015567)
(-0.000472565 0.000301959 7.82383e-05)
(0.000273678 -0.000263041 0.00168456)
(-4.68431e-05 -0.00507093 1.67173e-05)
(-0.000135597 7.20569e-05 6.90337e-05)
(0.000328194 -0.000317202 7.64129e-05)
(-0.000527612 -0.0044704 0.000787412)
(-7.79853e-05 0.000120943 7.18893e-05)
(-0.000140163 -0.000256126 8.82965e-05)
(-0.00558973 -8.23304e-05 8.56241e-06)
(-0.000677526 -4.40261e-07 8.22306e-05)
(0.000111681 -0.000407394 2.21251e-05)
(0.00019579 -0.000164176 7.50053e-05)
(4.87629e-05 0.000164994 8.10777e-05)
(-0.000310319 0.000149445 6.83722e-05)
(-0.000310319 0.000149445 7.71564e-05)
(-0.000252082 -0.000121399 8.06442e-05)
(1.11087e-11 -0.000642129 1.09756e-05)
(0.000214075 0.000360642 7.15797e-05)
(0.000334377 0.000142633 6.42452e-05)
(-1.64113e-06 -0.000154896 1.17345e-05)
(-6.82125e-05 -0.000107309 6.3849e-05)
(0.000199562 -0.00018894 0.00171283)
(0.000214075 0.000360642 6.84643e-05)
(3.96149e-05 1.89724e-05 6.31244e-05)
(-1.50052e-05 -3.6874e-05 7.23603e-05)
(4.66589e-05 6.02954e-05 5.82027e-05)
(-1.96469e-05 -0.000310158 7.32687e-05)
(-0.00266313 0.00595365 9.56386e-05)
(1.11087e-11 -0.000202648 1.64205e-05)
(0.000184046 0.000368319 6.60142e-05)
(0.000160707 -0.000188502 6.69935e-05)
(0.000104887 0.000190669 6.87993e-05)
(0.000238954 0.000300348 8.41781e-05)
(9.34327e-05 -4.79176e-06 7.49058e-05)
(0.000328194 -0.000317202 6.3575e-05)
(-5.70965e-05 0.000357 7.65022e-05)
(-0.000140163 -0.000256126 7.86737e-05)
(0.000118726 -0.0002693 7.39195e-05)
(8.09059e-05 -0.000332952 7.95821e-05)
(-2.29863e-07 8.28718e-05 4.33574e-05)
(-0.000150268 -0.000220892 7.78772e-05)
(4.52358e-05 -5.10491e-05 7.59264e-05)
(0.000157297 -0.00026473 8.07557e-05)
(0.000268436 0.000208573 0.00175419)
(0.000328194 -0.000317202 7.65727e-05)
(-0.000158885 -7.65148e-05 7.36123e-05)
(3.96829e-05 -1.54346e-10 5.50812e-05)
(-0.00022895 0.000242019 0.00177186)
(-3.44681e-05 -0.000585567 6.35612e-05)
(7.74814e-05 8.41776e-05 4.2209e-05)
(0.000307737 -0.000285124 0.00169019)
(8.8945e-05 -4.40261e-07 3.43689e-06)
(-8.87431e-05 -5.89612e-06 5.16093e-05)
(-0.00028715 -0.000295567 0.00172904)
(0.000263163 -3.26006e-05 8.78406e-05)
(0.000432774 -8.8705e-06 7.3146e-05)
(-0.00102886 -0.00219802 8.52241e-05)
(-0.00558973 -8.23304e-05 9.13771e-06)
(1.50037e-11 0.000230671 2.21792e-05)
(4.52358e-05 -5.10491e-05 6.75449e-05)
(0.000219905 0.00018135 7.33496e-05)
(-0.000244056 0.000220573 0.0017019)
(0.000196713 -6.07145e-05 0.00190675)
(-2.21385e-05 -0.000134453 1.28486e-05)
(-5.86142e-07 -0.000321065 -1.55539e-06)
(-0.000111921 -0.00595172 1.34172e-05)
(-0.00558973 -8.23304e-05 7.20652e-06)
(4.27505e-05 -0.000120226 7.82181e-05)
(4.74338e-05 -8.88779e-05 8.64104e-05)
(-0.000324284 0.000285791 0.00161571)
(0.000429268 -8.60345e-05 7.06666e-05)
(0.000160707 -0.000188502 6.24777e-05)
(7.58885e-05 -7.30754e-05 7.4538e-05)
(6.09842e-05 9.68566e-05 6.95006e-05)
(-0.000147791 -0.000287387 7.88582e-05)
(4.49872e-05 0.000117776 7.73662e-06)
(0.000999497 0.000621489 8.70252e-05)
(-9.01276e-05 0.000180053 7.4607e-05)
(0.000214075 0.000360642 6.74503e-05)
(-7.67061e-05 0.000133154 6.95733e-05)
(-0.000145048 -0.000210053 0.00178013)
(0.000214075 0.000360642 7.02085e-05)
(-0.00622477 -0.000585179 9.13268e-05)
(-2.35463e-05 -0.00010059 1.17345e-05)
(0.000183585 8.61721e-06 7.47318e-05)
(-7.79853e-05 0.000120943 8.36994e-05)
(1.11087e-11 -0.000609311 1.09756e-05)
(-0.00102886 -0.00219802 8.28072e-05)
(-7.79853e-05 0.000120943 8.55991e-05)
(0.000107764 -0.000155251 8.0101e-05)
(0.000199692 -0.00018881 0.00171283)
(-0.00102886 -0.00219802 8.97609e-05)
(-0.000210828 -0.000183514 0.00155883)
(-6.80881e-05 -0.000177991 8.62562e-05)
(-0.000252082 -0.000121399 7.87791e-05)
(0.00027403 -4.86105e-10 6.70887e-05)
(0.000160686 9.78646e-05 7.38795e-05)
(-2.29863e-07 8.28718e-05 1.29685e-05)
(-0.000203731 -0.000308278 8.93648e-05)
(0.000214075 0.000360642 7.02198e-05)
(-0.000240334 0.000224295 0.0017019)
(-0.000281711 8.53125e-05 6.04614e-05)
(0.000411607 -0.000963558 5.8448e-05)
(0.000275265 -5.0682e-06 0.00047234)
(0.000148023 0.000103435 6.41338e-05)
(-6.909e-06 -0.00125215 0.0018843)
(8.76275e-05 0.000100455 8.20834e-05)
(4.74338e-05 -8.88779e-05 8.37559e-05)
(-6.41509e-05 -5.71832e-05 6.25505e-05)
(0.000261023 -2.25897e-06 0.00187637)
(-0.000164723 7.93266e-05 6.97103e-05)
(1.30738e-05 -2.27814e-05 6.56026e-05)
(0.000104887 0.000190669 8.05159e-05)
(1.04625e-06 -8.20006e-09 -2.20037e-06)
(0.00019579 -0.000164176 7.21571e-05)
(0.000104887 0.000190669 7.4429e-05)
(-7.67061e-05 0.000133154 8.11334e-05)
(-1.29836e-05 -4.70391e-06 3.71955e-05)
(-0.000310319 0.000149445 8.0836e-05)
(3.48114e-05 -0.00616829 0.000331716)
(-0.00135568 -0.00266415 8.12162e-05)
(0.000292797 0.000311168 6.89505e-05)
(0.000236885 0.000187961 0.00173835)
(0.000294268 0.00027783 0.00171361)
(-2.00328e-05 -6.08899e-06 5.86004e-05)
(9.66544e-05 -3.92279e-05 8.31331e-05)
(-2.29863e-07 8.86368e-05 3.22482e-05)
(-2.32791e-05 8.13418e-06 0.00152768)
(0.000360598 0.000182028 4.35833e-05)
(0.000293006 0.000279959 8.2204e-05)
(-0.000200621 3.57835e-06 7.99058e-05)
(-0.000265548 5.36414e-05 9.14504e-05)
(-0.000116146 -6.16306e-05 7.34971e-05)
(0.000397064 0.000202509 9.46792e-05)
(-3.44681e-05 -0.000585567 6.05108e-05)
(-0.000275979 0.000223573 7.52791e-05)
(-0.000108647 -0.000290755 7.43305e-05)
(-0.00065779 -0.00171317 4.95899e-05)
(-0.000310319 0.000149445 7.95992e-05)
(-0.000158885 -7.65148e-05 6.49668e-05)
(-0.000147791 -0.000287387 7.39627e-05)
(9.27184e-05 0.000276404 6.49944e-05)
(0.000197836 -0.000190666 0.00171283)
(-9.19727e-05 -4.42919e-05 7.26501e-05)
(-0.000150268 -0.000220892 6.95569e-05)
(1.50037e-11 0.000230671 9.35641e-06)
(4.15486e-05 -6.51485e-05 6.32233e-05)
(0.000104887 0.000190669 7.07392e-05)
(-0.000140163 -0.000256126 9.02947e-05)
(0.000263293 -2.25897e-06 0.00187637)
(0.000104887 0.000190669 6.25745e-05)
(2.66492e-05 -2.48762e-05 5.93829e-05)
(-0.000316387 -0.000303648 0.00163736)
(0.000157297 -0.00026473 8.0782e-05)
(-0.000310319 0.000149445 7.65054e-05)
(0.000118726 -0.0002693 8.04004e-05)
(-0.000244994 0.000219635 0.0017019)
(-0.000806301 0.00230097 8.65759e-05)
(-0.000249436 0.000158533 7.7879e-05)
(0.000176599 -0.000209068 0.00199119)
(9.66544e-05 -3.92279e-05 7.89525e-05)
(9.55913e-05 0.000127311 2.75714e-11)
(0.000483795 0.000468912 0.00191009)
(-0.000235731 0.000224887 6.29538e-05)
(-0.000164723 7.93266e-05 7.22169e-05)
(3.60186e-07 0.000166699 6.52069e-05)
(0.000238954 0.000300348 7.1497e-05)
(-0.000135597 7.20569e-05 6.72222e-05)
(-0.000516353 0.000122011 6.46499e-05)
(5.32331e-05 -0.000335072 7.91844e-05)
(-0.000203731 -0.000308278 8.62451e-05)
(-9.01276e-05 0.000180053 7.09003e-05)
(-1.81114e-05 0.000177321 0.00184957)
(0.000104887 0.000190669 7.35687e-05)
(-7.29915e-06 -5.25124e-05 0.00113682)
(0.000287261 -5.58015e-05 3.87574e-09)
(0.000173938 -0.000273717 7.50704e-05)
(-0.00266313 0.00595365 0.000103206)
(0.000517426 0.000406329 8.42608e-05)
(-0.000228838 0.000556176 0.00195023)
(-0.000310319 0.000149445 6.99723e-05)
(-0.000168788 -0.000161017 0.00153599)
(6.02896e-07 -5.9306e-06 -7.18837e-06)
(-0.000806301 0.00230097 7.97493e-05)
(0.000201281 -0.000296096 8.25553e-05)
(0.00019579 -0.000164176 6.67134e-05)
(0.000292797 0.000311168 7.5972e-05)
(-0.000147791 -0.000287387 7.53443e-05)
(6.9212e-07 -0.000537623 7.49058e-05)
(0.00027403 -4.86105e-10 6.99938e-05)
(-9.01276e-05 0.000180053 7.07096e-05)
(-0.000140163 -0.000256126 9.01757e-05)
(3.60186e-07 0.000166699 7.0818e-05)
(0.00027362 -3.54905e-05 0.00186474)
(0.00277179 0.00666877 2.79985e-06)
(-5.57969e-05 1.07927e-05 8.57916e-05)
(-2.89451e-06 -0.000128152 7.45279e-05)
(-7.96125e-05 -9.46173e-05 7.34541e-05)
(-7.79853e-05 0.000120943 7.97418e-05)
(5.13696e-13 3.59438e-12 1.54501e-10)
(0.000275265 -5.0682e-06 8.55084e-05)
(3.60186e-07 0.000166699 7.94759e-05)
(-0.000312105 0.000284112 0.00158022)
(0.000147182 9.64787e-06 7.56751e-05)
(-0.000147791 -0.000287387 7.92218e-05)
(-0.000101357 1.6659e-06 3.85359e-05)
(-9.01276e-05 0.000180053 7.50132e-05)
(0.000265034 0.000100777 0.00187865)
(-2.37205e-05 7.72491e-05 6.83718e-05)
(0.000285247 -0.000415442 7.29809e-05)
(-0.000214168 9.01901e-06 6.15129e-05)
(-0.000150268 -0.000220892 6.93455e-05)
(0.000104887 0.000190669 6.69021e-05)
(-0.00077342 -0.00259495 8.78606e-05)
(0.000321302 0.000108084 0.00171361)
(-1.93831e-05 -0.000127279 -4.83342e-10)
(0.000238954 0.000300348 8.00825e-05)
(0.000458935 1.38391e-11 9.78796e-05)
(0.00218955 -0.000698499 -1.07502e-06)
(1.30738e-05 -2.27814e-05 6.2196e-05)
(0.000173938 -0.000273717 7.60524e-05)
(-0.000247476 -0.000152891 4.92726e-07)
(-2.00328e-05 -6.08899e-06 6.70568e-05)
(0.000184046 0.000368319 7.11998e-05)
(-0.000140163 -0.000256126 8.42756e-05)
(-0.000150268 -0.000220892 6.81548e-05)
(0.000294321 0.000277777 0.00171361)
(-8.87431e-05 -5.89612e-06 5.2835e-05)
(2.5472e-05 -3.80627e-05 5.91985e-05)
(-0.000147791 -0.000287387 7.81281e-05)
(3.60186e-07 0.000166699 7.46223e-05)
(9.27184e-05 0.000276404 7.74153e-05)
(8.76275e-05 0.000100455 8.24526e-05)
(-7.67061e-05 0.000133154 7.11674e-05)
(-6.81932e-06 -4.75439e-05 8.02262e-05)
(-0.000158885 -7.65148e-05 7.06494e-05)
(-0.000310319 0.000149445 7.14882e-05)
(0.000104441 1.80979e-05 8.66924e-05)
(-0.000158885 -7.65148e-05 7.27252e-05)
(-0.000140163 -0.000256126 8.53507e-05)
(0.000328194 -0.000317202 6.85865e-05)
(0.000214075 0.000360642 7.06914e-05)
(0.000518467 -1.65505e-11 -2.6315e-06)
(0.000375886 -6.22513e-05 7.20178e-05)
(0.000334377 0.000142633 7.20459e-05)
(-0.000277634 -0.000295699 0.00173424)
(0.000471568 0.00019638 7.35709e-05)
(0.000178547 -5.81021e-05 5.00652e-06)
(-0.00266313 0.00595365 9.52879e-05)
(1.50037e-11 0.000410812 4.42782e-05)
(-0.000109621 0.000486595 6.54826e-05)
(-0.00135568 -0.00266415 7.83178e-05)
(-0.00498963 -4.3148e-08 -0.000781626)
(-0.000164723 7.93266e-05 7.55713e-05)
(4.46323e-05 2.55758e-05 7.5081e-05)
(-5.86142e-07 -0.000321065 -1.47279e-06)
(-0.000252082 -0.000121399 7.72382e-05)
(-2.00328e-05 -6.08899e-06 6.12554e-05)
(0.000272499 -0.00026422 0.00168456)
(-0.000729586 -4.40261e-07 8.22306e-05)
(-0.000100189 6.96638e-05 8.35669e-05)
(0.000262319 -0.000243101 7.52931e-05)
(-0.000140163 -0.000256126 7.30502e-05)
(0.000495386 -0.00132707 7.84406e-05)
(-2.89451e-06 -0.000112648 7.45279e-05)
(-0.0054859 0.00512929 -8.07325e-06)
(0.000214075 0.000360642 6.39984e-05)
(0.000116829 0.000205038 7.76979e-05)
(9.27184e-05 0.000276404 7.57734e-05)
(-0.000588327 -9.3979e-05 0.00172904)
(-9.19727e-05 -4.42919e-05 6.54363e-05)
(-0.000136213 1.6659e-06 2.28357e-05)
(8.76275e-05 0.000100455 7.55838e-05)
(1.70444e-05 -3.54867e-05 4.09878e-07)
(-7.59517e-05 0.000110563 7.94531e-05)
(-0.000316332 -0.000303703 0.00163736)
(-6.95215e-07 -1.36113e-05 6.50891e-05)
(-9.58324e-05 -0.000240891 0.00186461)
(-0.000310319 0.000149445 8.53837e-05)
(-0.000148564 1.6659e-06 2.28357e-05)
(0.00353205 0.00110045 2.49132e-05)
(0.000262058 -6.42368e-05 -2.91698e-07)
(0.000125004 0.00044174 3.3282e-05)
(0.000157297 -0.00026473 8.69393e-05)
(0.000273595 -0.000263124 0.00168456)
(-0.000252082 -0.000121399 8.46466e-05)
(-0.000111921 -0.00595172 1.43859e-05)
(-0.000296776 -0.000270774 0.00164962)
(2.70617e-06 -5.62829e-05 0.00155117)
(-0.00077342 -0.00259495 8.46822e-05)
(0.00289862 0.00107432 2.33871e-06)
(0.00019499 -0.000193511 0.00171283)
(-0.000111921 -0.00595172 1.57214e-05)
(0.000306778 0.00036117 0.00160702)
(-0.000323669 0.000286407 0.00161571)
(8.76275e-05 0.000100455 8.56268e-05)
(0.000238954 0.000300348 8.1407e-05)
(-0.000140163 -0.000256126 8.8143e-05)
(-2.78963e-05 -5.99232e-05 7.26431e-05)
(0.000292797 0.000311168 7.32523e-05)
(0.00548303 0.00229546 2.41301e-05)
(6.09842e-05 9.68566e-05 7.84156e-05)
(1.01042e-05 -3.68289e-05 7.22977e-05)
(0.000296387 0.000275711 0.00171361)
(-0.00070296 -0.000562489 7.24856e-05)
(4.74338e-05 -8.88779e-05 7.81671e-05)
(0.000328194 -0.000317202 7.95006e-05)
(0.000328194 -0.000317202 7.11029e-05)
(-0.000158885 -7.65148e-05 8.52242e-05)
(0.000104441 1.80979e-05 8.77009e-05)
(2.92744e-05 -2.58201e-06 -0.000851676)
(-0.000158885 -7.65148e-05 7.42226e-05)
(-0.000150268 -0.000220892 6.96864e-05)
(3.60186e-07 0.000166699 6.58751e-05)
(-0.000516353 0.000122011 6.11071e-05)
(-0.000806301 0.00230097 8.10773e-05)
(-5.95702e-05 -1.234e-05 5.69204e-06)
(-0.000103627 7.85573e-05 7.12732e-05)
(8.76275e-05 0.000100455 8.02041e-05)
(-0.0053382 -0.00522855 -0.000369068)
(0.000293006 0.000279959 8.16445e-05)
(3.96829e-05 -1.54346e-10 5.02324e-05)
(4.15486e-05 -6.51485e-05 6.46872e-05)
(0.000285247 -0.000415442 7.36156e-05)
(-7.67061e-05 0.000133154 8.32201e-05)
(-0.000174986 8.42717e-05 0.00184233)
(0.0001416 -5.35729e-05 8.79605e-05)
(0.000124095 -2.68946e-05 7.7037e-05)
(-0.000183529 9.01901e-06 2.71865e-05)
(2.5472e-05 -3.80627e-05 6.20991e-05)
(0.000275265 -5.0682e-06 7.93921e-05)
(0.000285247 -0.000415442 7.14381e-05)
(-0.000239621 0.000225008 0.0017019)
(8.76275e-05 0.000100455 8.24766e-05)
(1.58704e-05 -2.46711e-05 7.67405e-05)
(-0.0012945 0.00341017 6.70335e-05)
(-6.82125e-05 -0.000107309 5.6012e-05)
(-0.000292707 0.000414295 6.96974e-05)
(-5.14612e-06 -0.000131794 4.53533e-05)
(-0.000124176 -5.98002e-05 0.00174531)
(-9.01276e-05 0.000180053 7.33825e-05)
(0.000537824 -5.50363e-05 6.98773e-05)
(-0.00444113 -0.00115432 7.86079e-05)
(0.000292797 0.000311168 7.30352e-05)
(-0.000140163 -0.000256126 9.46478e-05)
(0.00027403 -4.86105e-10 7.0703e-05)
(-0.000158885 -7.65148e-05 7.47088e-05)
(0.00518929 -0.000609786 8.0546e-05)
(-0.000326219 0.000283857 0.00161571)
(0.000272771 -0.000263948 0.00168456)
(0.000538354 9.48113e-06 6.58528e-05)
(0.000273245 -0.000263474 0.00168456)
(0.000219905 0.00018135 7.25746e-05)
(-1.96469e-05 -0.000310158 6.26892e-05)
(-0.000444748 -0.000155706 7.60345e-05)
(-0.000281711 8.53125e-05 7.39956e-05)
(-0.000164723 7.93266e-05 7.77831e-05)
(-0.000252082 -0.000121399 8.08324e-05)
(-0.000101357 1.6659e-06 4.51015e-05)
(2.5472e-05 -3.80627e-05 6.26954e-05)
(0.000999497 0.000642465 8.70252e-05)
(-0.00558973 -8.23304e-05 0.000262259)
(-0.000183529 9.01901e-06 1.09833e-05)
(-3.75535e-05 1.87101e-05 6.38692e-05)
(-0.000140163 -0.000256126 8.7212e-05)
(-0.000624522 -4.40261e-07 8.22306e-05)
(0.000292797 0.000311168 7.88659e-05)
(0.00027403 -4.86105e-10 7.07794e-05)
(0.000328194 -0.000317202 7.03014e-05)
(0.000238954 0.000300348 7.15234e-05)
(-7.67061e-05 0.000133154 7.42257e-05)
(0.00027403 -4.86105e-10 7.37828e-05)
(2.26617e-05 1.20897e-06 6.7047e-05)
(-0.000171761 9.01901e-06 6.15129e-05)
(-0.000147791 -0.000287387 7.45505e-05)
(0.000263163 -3.26006e-05 7.58031e-05)
(0.000238954 0.000300348 7.92024e-05)
(0.00030557 -0.000287291 0.00169019)
(-0.000806301 0.00230097 8.61421e-05)
(0.000125004 0.00044174 3.4642e-05)
(-0.000164723 7.93266e-05 6.27686e-05)
(-0.00028844 -0.000294277 0.00172904)
(-0.000215107 0.000558915 7.87131e-05)
(-0.000152233 -0.000376357 7.10851e-05)
(0.000328194 -0.000317202 6.87813e-05)
(-0.000140163 -0.000256126 7.42376e-05)
(0.000265984 0.000100966 0.00187865)
(7.58885e-05 -7.30754e-05 7.52636e-05)
(0.000201281 -0.000296096 7.92951e-05)
(0.000157297 -0.00026473 8.68269e-05)
(1.11087e-11 -0.000589676 1.09756e-05)
(-5.24755e-05 -0.000196735 1.09756e-05)
(-1.2626e-05 0.000225401 6.36072e-05)
(-0.000838419 0.00602644 6.11663e-07)
(0.00351672 0.00126013 2.49132e-05)
(-0.000806301 0.00230097 7.90306e-05)
(-9.01276e-05 0.000180053 8.21198e-05)
(-0.000205316 -0.000189026 0.00155883)
(0.000263505 -0.000189575 0.00178266)
(3.61941e-05 0.000183187 2.37655e-07)
(-2.29863e-07 7.90952e-05 3.22482e-05)
(0.00583582 -0.00234652 9.3883e-05)
(-6.95849e-07 7.83372e-05 0.000206108)
(-0.000282118 -0.000276547 0.00176324)
(-0.000158885 -7.65148e-05 7.8672e-05)
(6.81017e-05 -6.54063e-06 8.92309e-05)
(0.00027403 -4.86105e-10 7.76333e-05)
(-0.000128285 -0.000205646 7.19095e-05)
(0.000173938 -0.000273717 7.66579e-05)
(1.04381e-05 0.000584882 6.86105e-05)
(-0.000158885 -7.65148e-05 7.4767e-05)
(0.000245628 0.000175021 5.22877e-05)
(-3.64423e-05 -3.6555e-06 3.53925e-05)
(0.000104887 0.000190669 7.56523e-05)
(-0.000310319 0.000149445 7.86066e-05)
(-0.000252082 -0.000121399 8.15863e-05)
(-0.00102886 -0.00219802 7.90107e-05)
(1.11087e-11 -0.000564206 1.09756e-05)
(-0.000158885 -7.65148e-05 7.74543e-05)
(-1.74216e-05 -2.61078e-05 6.25287e-05)
(-2.29863e-07 8.89831e-05 3.22482e-05)
(0.00548303 0.00229546 2.24308e-05)
(-9.19727e-05 -4.42919e-05 7.03483e-05)
(-0.00102886 -0.00219802 9.32799e-05)
(0.000294589 0.000277509 0.00171361)
(-0.000147791 -0.000287387 7.95e-05)
(-0.000181196 -0.00594507 0.000352197)
(2.66492e-05 -2.48762e-05 5.96632e-05)
(-0.000107196 -9.01095e-05 6.46638e-05)
(-0.000112858 0.000158092 8.05503e-05)
(-5.86142e-07 -0.000321065 -1.61719e-06)
(-0.000109621 0.000486595 6.97943e-05)
(-0.000326929 0.000283147 0.00161571)
(-1.96469e-05 -0.000310158 6.60985e-05)
(0.000191499 0.000177623 0.00170772)
(4.74338e-05 -8.88779e-05 7.55962e-05)
(0.000328194 -0.000317202 6.7903e-05)
(-0.000415492 -0.000758038 8.88624e-05)
(0.000731 -0.000145648 0.00182952)
(0.000419687 0.000163323 8.70252e-05)
(-0.000314909 -0.000305126 0.00163736)
(-7.59517e-05 0.000110563 6.72736e-05)
(0.000104887 0.000190669 7.11689e-05)
(-0.00031208 -0.000307955 0.00163736)
(7.9362e-05 6.62735e-05 0.00183871)
(4.15486e-05 -6.51485e-05 6.78724e-05)
(0.000328194 -0.000317202 7.2404e-05)
(3.48114e-05 -0.00577247 1.45777e-05)
(0.000173938 -0.000273717 6.98236e-05)
(-0.000295133 -0.000272417 0.00164962)
(-7.67061e-05 0.000133154 8.31428e-05)
(0.000346834 -7.36491e-06 3.24544e-05)
(1.30738e-05 -2.27814e-05 6.5462e-05)
(0.000510623 -0.000967372 -4.00927e-06)
(-2.29863e-07 8.28718e-05 8.02651e-06)
(-0.000288446 -0.000270219 0.00176324)
(3.96829e-05 -1.54346e-10 5.16943e-05)
(0.000157297 -0.00026473 8.45984e-05)
(0.000173938 -0.000273717 6.50719e-05)
(-0.000146901 1.6659e-06 2.28357e-05)
(-6.95215e-07 -1.36113e-05 7.44862e-05)
(-7.59517e-05 0.000110563 6.62335e-05)
(0.00548303 0.00229546 2.26967e-05)
(-0.00266313 0.00595365 9.15684e-05)
(-9.19727e-05 -4.42919e-05 7.63314e-05)
(0.000262319 -0.000243101 7.68459e-05)
(1.11087e-11 -0.000202648 1.88227e-06)
(-0.000147791 -0.000287387 7.78545e-05)
(2.26617e-05 1.20897e-06 6.39524e-05)
(0.000262319 -0.000243101 8.28298e-05)
(0.000214075 0.000360642 6.54833e-05)
(0.000194288 -3.54905e-05 0.00265147)
(0.000142951 -0.000186833 4.28242e-07)
(-0.000101357 1.6659e-06 1.72386e-05)
(-0.000516353 0.000122011 6.18904e-05)
(-9.42515e-05 7.35293e-05 6.83315e-05)
(-0.00018764 9.03629e-05 0.00178897)
(0.000244706 0.000164158 5.96407e-07)
(-4.87061e-05 6.14023e-05 5.80787e-05)
(4.15486e-05 -6.51485e-05 7.16296e-05)
(-0.00627661 0.000878813 1.44506e-05)
(0.000266675 0.000210335 0.00175419)
(0.000292797 0.000311168 7.57648e-05)
(-0.000101357 1.6659e-06 1.12488e-05)
(-7.79853e-05 0.000120943 7.7885e-05)
(0.000275265 -5.0682e-06 7.65592e-05)
(0.000285247 -0.000415442 6.86506e-05)
(2.66492e-05 -2.48762e-05 5.91704e-05)
(6.09842e-05 9.68566e-05 7.68292e-05)
(4.74338e-05 -8.88779e-05 8.29398e-05)
(-7.79853e-05 0.000120943 8.4609e-05)
(-2.89451e-06 -9.25357e-05 3.50448e-06)
(-0.000164723 7.93266e-05 7.89818e-05)
(-0.00142492 0.00382843 7.73288e-05)
(0.000224699 0.000202351 6.21688e-05)
(-0.000316064 0.000280153 0.00158022)
(0.000147182 9.64787e-06 7.59286e-05)
(-0.00102886 -0.00219802 8.04391e-05)
(-0.000573804 -4.40261e-07 8.22306e-05)
(-0.000135597 7.20569e-05 6.3947e-05)
(-9.42515e-05 7.35293e-05 6.59048e-05)
(0.000238954 0.000300348 7.94967e-05)
(9.65149e-05 0.000306354 5.50419e-05)
(0.000334377 0.000142633 6.70286e-05)
(4.66589e-05 6.02954e-05 5.87611e-05)
(-9.01276e-05 0.000180053 7.40928e-05)
(-4.48989e-05 1.05748e-05 2.00735e-05)
(-0.000142258 -1.32804e-05 6.82375e-05)
(-0.000310319 0.000149445 7.77087e-05)
(0.000538354 9.48113e-06 6.16038e-05)
(-0.00102886 -0.00219802 9.33092e-05)
(-0.000472562 -2.42048e-07 1.30756e-06)
(-4.93655e-05 2.53159e-07 1.66855e-05)
(-0.000140163 -0.000256126 8.31268e-05)
(0.000174829 -0.000403016 8.02465e-05)
(0.00219897 -5.50146e-05 2.13703e-06)
(-0.000980801 0.000437369 9.05637e-05)
(0.000262319 -0.000243101 8.03167e-05)
(-2.29863e-07 7.94017e-05 3.22482e-05)
(0.00166007 4.93183e-06 0.000647869)
(0.000294116 0.000277982 0.00171361)
(7.48364e-05 0.000104857 7.96829e-05)
(0.000999497 0.000650174 8.70252e-05)
(0.00398531 -0.00109258 7.35658e-05)
(-0.00622477 -0.000585179 8.45795e-05)
(0.000199293 -0.000189209 0.00171283)
(3.96829e-05 -1.54346e-10 4.99095e-05)
(-0.000216791 0.000269182 6.08285e-05)
(0.000200025 -0.000188476 0.00171283)
(-2.89451e-06 -9.25357e-05 2.58242e-06)
(-0.000158885 -7.65148e-05 7.49091e-05)
(-0.000140163 -0.000256126 8.28735e-05)
(-4.33392e-05 3.93154e-05 7.81939e-05)
(0.000191618 0.000177504 0.00170772)
(1.37871e-12 1.32854e-05 0.000177184)
(0.000328194 -0.000317202 7.18815e-05)
(-1.65183e-05 -2.07272e-08 0.00122146)
(0.000214075 0.000360642 7.39291e-05)
(-4.33392e-05 3.93154e-05 7.24344e-05)
(-0.000140163 -0.000256126 8.05625e-05)
(-0.000135597 7.20569e-05 6.83201e-05)
(-2.37205e-05 7.72491e-05 6.81701e-05)
(0.00583582 -0.00234652 9.17396e-05)
(-2.89451e-06 -0.000127902 7.45279e-05)
(-4.33392e-05 3.93154e-05 7.844e-05)
(-4.68431e-05 -0.00507093 1.72351e-05)
(-0.000164723 7.93266e-05 7.71772e-05)
(0.000214075 0.000360642 6.94317e-05)
(9.27184e-05 0.000276404 7.5069e-05)
(-0.000247476 -0.000152891 5.36495e-07)
(0.000292797 0.000311168 6.96258e-05)
(0.000411607 -0.000963558 5.82464e-05)
(-0.000838419 0.00602644 6.12251e-07)
(0.000179135 -6.332e-05 5.00652e-06)
(0.000262319 -0.000243101 7.83563e-05)
(0.000189437 0.000448828 7.62785e-05)
(0.000157297 -0.00026473 7.56688e-05)
(-6.80881e-05 -0.000177991 8.85233e-05)
(-0.000806301 0.00230097 7.70876e-05)
(-4.82205e-11 0.000367605 -1.9455e-05)
(-0.00047818 -0.0010295 7.84e-05)
(0.000328194 -0.000317202 7.37236e-05)
(-4.82205e-11 0.000378276 -1.9455e-05)
(0.000160686 9.78646e-05 8.42593e-05)
(0.000174278 -2.1596e-05 0.00161918)
(-0.000147791 -0.000287387 8.36845e-05)
(-0.000150268 -0.000220892 7.84531e-05)
(1.3791e-06 5.21751e-05 6.83897e-05)
(0.000378824 0.000193274 7.24478e-05)
(-1.78748e-06 -9.64069e-05 6.99701e-05)
(-7.67061e-05 0.000133154 7.00315e-05)
(0.000219905 0.00018135 7.76973e-05)
(1.30738e-05 -2.27814e-05 6.43655e-05)
(-0.000140163 -0.000256126 7.81403e-05)
(-0.00087891 -0.00533926 7.50087e-05)
(0.000285247 -0.000415442 7.18851e-05)
(0.000157297 -0.00026473 8.15672e-05)
(0.00029724 0.000274858 0.00171361)
(-0.000200621 3.57835e-06 8.81965e-05)
(-2.29863e-07 8.28718e-05 8.09423e-06)
(-4.68431e-05 -0.00507093 1.7918e-05)
(4.15486e-05 -6.51485e-05 6.715e-05)
(-0.000150268 -0.000220892 7.16303e-05)
(-0.000271106 0.000214065 7.29913e-05)
(-6.80881e-05 -0.000177991 8.63385e-05)