/*--------------------------------*- C++ -*----------------------------------*\
| =========                 |                                                 |
| \\      /  F ield         | OpenFOAM: The Open Source CFD Toolbox           |
|  \\    /   O peration     | Version:  plus.master.MPPICInterFoam            |
|   \\  /    A nd           | Web:      www.OpenFOAM.com                      |
|    \\/     M anipulation  |                                                 |
\*---------------------------------------------------------------------------*/
FoamFile
{
    version     2.0;
    format      ascii;
    class       volScalarField;
    location    "8.2";
    object      p;
}
// * * * * * * * * * * * * * * * * * * * * * * * * * * * * * * * * * * * * * //

dimensions      [1 -1 -2 0 0 0 0];

internalField   nonuniform List<scalar> 
11821
(
5630.55
5627.01
5626.17
5626.82
5626.5
5627.68
5630.53
5627.34
5637.53
5628.04
5629.21
5628.89
5637.45
5627.11
5626.23
5628.59
5629.87
5627.21
5629.76
5627.87
5626.26
5626.93
5629.06
5627.86
5628.52
5626.71
5629.8
5627.1
5626.37
5628.25
5629.77
5627.15
5629.71
5627.96
5626.16
5627.33
5637.47
5628.34
5628.98
5629.45
5637.38
5627.35
5630.79
5627.02
5626.14
5626.49
5626.23
5627.69
5630.37
5515.95
5517.75
5519.37
5519.69
5518.69
5516.92
5515.13
5517.86
5523.22
5525.54
5526.34
5523.78
5520.45
5516.94
5519.89
5526.64
5543.93
5542.85
5539.64
5523.19
5518.46
5520.64
5527.3
5543.12
5550.67
5541.27
5524.45
5519.04
5520.17
5526.99
5544.41
5544.27
5540.46
5523.39
5518.61
5518.2
5524.97
5526.84
5528.76
5525.2
5520.56
5517
5516.29
5518.16
5519.9
5519.99
5519.08
5517.14
5515.28
5391.65
5395.05
5398.15
5398.93
5397.24
5394.13
5390.6
5395.15
5400.2
5405.23
5408.03
5404.21
5399.15
5394.12
5398.06
5405.23
5419.96
5425.39
5416.19
5403.73
5397
5399.22
5406.93
5423.29
5435.95
5423.66
5405.61
5398.2
5398.46
5405.87
5421.84
5428.24
5418.42
5404.33
5397.36
5395.7
5401.07
5406.56
5411.92
5405.23
5399.62
5394.51
5392.28
5395.9
5398.78
5399.65
5397.86
5394.68
5391.06
5256.72
5261.77
5265.63
5266.95
5264.31
5259.81
5254.92
5261.82
5269
5275.42
5279.22
5273.82
5266.88
5259.9
5266.21
5276.22
5289.23
5296.58
5285.36
5273.56
5264.29
5268.22
5280.12
5294.78
5309.37
5293.17
5277.8
5266.71
5266.81
5277.2
5291.32
5300.52
5288.33
5274.76
5264.99
5262.69
5270.14
5277.09
5282.48
5275.9
5268.4
5260.97
5257.71
5262.97
5267.12
5268.84
5265.98
5261.21
5255.96
5094.66
5100.55
5105.66
5107.47
5103.41
5097.82
5092.47
5100.64
5110.06
5119.53
5124
5115.38
5105.95
5097.67
5106.32
5120.06
5135.01
5140.64
5128.06
5114.33
5102.67
5109.24
5126.06
5141.91
5154.57
5134.64
5119.49
5105.41
5107.12
5121.6
5137.62
5144.88
5131.29
5116.22
5103.63
5101.69
5111.65
5121.88
5128.19
5118.42
5107.97
5098.91
5095.74
5102.03
5107.71
5110.28
5105.62
5099.4
5093.52
5633.08
5634.91
5636.15
5636.95
5637.51
5637.92
5638.21
5638.42
5631.77
5634.71
5635.93
5636.87
5637.52
5637.98
5638.29
5638.53
5631
5634.46
5635.94
5636.88
5637.56
5638.04
5638.38
5638.63
5631.64
5634.75
5636.13
5636.98
5637.63
5638.14
5638.42
5638.55
5631.03
5634.5
5636
5636.92
5637.58
5638.07
5638.39
5638.61
5631.57
5634.58
5636.03
5636.9
5637.56
5638.01
5638.29
5638.52
5633.16
5635.07
5636.23
5637.03
5637.61
5638.02
5638.29
5638.49
5513.69
5512.71
5511.97
5511.41
5510.98
5510.66
5510.42
5510.26
5514.91
5513.5
5512.47
5511.73
5511.19
5510.8
5510.51
5510.32
5515.99
5514.22
5512.92
5512.01
5511.36
5510.9
5510.57
5510.34
5516.54
5514.61
5513.17
5512.16
5511.46
5510.96
5510.61
5510.37
5516.12
5514.31
5512.98
5512.05
5511.39
5510.92
5510.58
5510.35
5515.03
5513.61
5512.56
5511.8
5511.25
5510.85
5510.55
5510.35
5513.85
5512.86
5512.1
5511.52
5511.08
5510.74
5510.49
5510.31
5387.58
5385.44
5383.74
5382.39
5381.32
5380.51
5379.92
5379.54
5389.99
5387.02
5384.79
5383.07
5381.76
5380.78
5380.07
5379.63
5391.98
5388.38
5385.64
5383.59
5382.06
5380.94
5380.15
5379.66
5392.99
5389.06
5386.06
5383.85
5382.23
5381.04
5380.21
5379.69
5392.25
5388.56
5385.76
5383.69
5382.14
5381
5380.19
5379.68
5390.32
5387.3
5384.99
5383.23
5381.88
5380.86
5380.13
5379.65
5387.95
5385.75
5384.01
5382.62
5381.52
5380.67
5380.04
5379.62
5250.91
5248.14
5246.16
5244.84
5244.16
5244.13
5244.77
5246.05
5254.19
5250.23
5247.41
5245.51
5244.44
5244.18
5244.72
5246.04
5257.01
5252.01
5248.46
5246.09
5244.71
5244.24
5244.69
5246.01
5258.67
5253.04
5249.09
5246.48
5244.95
5244.38
5244.77
5246.06
5257.56
5252.43
5248.79
5246.36
5244.93
5244.43
5244.84
5246.12
5254.95
5250.85
5247.93
5245.95
5244.8
5244.48
5244.97
5246.23
5251.64
5248.75
5246.67
5245.29
5244.56
5244.48
5245.08
5246.31
5088.66
5085.92
5083.96
5082.6
5081.68
5080.73
5079.5
5079.87
5091.83
5087.92
5085.15
5083.27
5082.02
5080.89
5079.46
5079.63
5094.65
5089.58
5086.12
5083.81
5082.31
5081.02
5079.44
5079.47
5096.21
5090.52
5086.71
5084.2
5082.58
5081.21
5079.56
5079.53
5095.22
5089.99
5086.43
5084.07
5082.52
5081.21
5079.61
5079.61
5092.61
5088.48
5085.58
5083.62
5082.33
5081.17
5079.73
5079.83
5089.32
5086.39
5084.32
5082.9
5081.94
5081
5079.78
5080.1
5633.81
5635.43
5636.56
5637.37
5637.95
5638.35
5638.64
5638.84
5632.52
5634.88
5636.28
5637.27
5637.92
5638.32
5638.61
5638.82
5632.05
5634.8
5636.23
5637.31
5638.02
5638.48
5638.82
5639.03
5632.3
5634.93
5636.3
5637.44
5638.21
5638.7
5639.03
5639.25
5632.06
5634.74
5636.14
5637.23
5637.92
5638.33
5638.53
5638.74
5632.37
5634.74
5636.2
5637.12
5637.78
5638.24
5638.49
5638.68
5633.67
5635.35
5636.47
5637.27
5637.85
5638.25
5638.54
5638.76
5514.75
5513.65
5512.8
5512.14
5511.63
5511.22
5510.91
5510.68
5516.08
5514.53
5513.38
5512.52
5511.86
5511.35
5510.96
5510.65
5517.41
5515.47
5514.03
5512.98
5512.21
5511.63
5511.19
5510.85
5517.82
5515.79
5514.28
5513.2
5512.42
5511.83
5511.38
5511.04
5517.18
5515.25
5513.82
5512.79
5512.03
5511.45
5511
5510.65
5515.83
5514.31
5513.18
5512.33
5511.69
5511.2
5510.82
5510.54
5514.48
5513.4
5512.57
5511.93
5511.42
5511.03
5510.72
5510.5
5389.06
5386.77
5384.92
5383.45
5382.29
5381.37
5380.67
5380.18
5391.45
5388.35
5385.93
5384.05
5382.6
5381.49
5380.66
5380.09
5393.45
5389.81
5386.94
5384.73
5383.05
5381.78
5380.85
5380.21
5394.07
5390.29
5387.29
5384.97
5383.22
5381.91
5380.98
5380.35
5393.11
5389.48
5386.63
5384.44
5382.76
5381.5
5380.57
5379.92
5391.02
5387.97
5385.6
5383.76
5382.34
5381.26
5380.46
5379.91
5388.56
5386.32
5384.52
5383.08
5381.93
5381.04
5380.36
5379.9
5253.05
5249.97
5247.72
5246.19
5245.31
5245.09
5245.54
5246.64
5256.36
5251.96
5248.74
5246.53
5245.2
5244.69
5244.99
5246.07
5259.25
5253.92
5249.91
5247.12
5245.41
5244.67
5244.84
5245.84
5260.25
5254.62
5250.36
5247.39
5245.57
5244.76
5244.91
5245.91
5258.73
5253.43
5249.48
5246.76
5245.08
5244.35
5244.52
5245.51
5255.68
5251.39
5248.27
5246.16
5244.9
5244.43
5244.78
5245.89
5252.25
5249.28
5247.12
5245.66
5244.86
5244.71
5245.22
5246.37
5090.96
5087.89
5085.69
5084.19
5083.2
5082.25
5081.1
5081.56
5094.27
5089.59
5086.35
5084.23
5082.87
5081.74
5080.46
5081.03
5097.47
5091.33
5087.12
5084.4
5082.75
5081.49
5080.18
5081.12
5098.68
5092.01
5087.42
5084.48
5082.72
5081.4
5080.08
5081.17
5096.89
5090.89
5086.79
5084.17
5082.57
5081.32
5080
5080.91
5093.55
5089.05
5085.95
5083.91
5082.62
5081.51
5080.22
5080.74
5090.2
5087.26
5085.16
5083.74
5082.79
5081.87
5080.72
5081.2
5633.58
5635.34
5636.46
5637.26
5637.83
5638.22
5638.5
5638.69
5632.01
5634.66
5636.17
5637.19
5637.84
5638.27
5638.58
5638.76
5631.72
5634.67
5636.09
5637.24
5638.02
5638.53
5638.84
5639.01
5632.21
5634.78
5636.11
5637.22
5637.93
5638.43
5638.77
5639
5631.95
5634.63
5635.98
5637.01
5637.67
5638.13
5638.45
5638.62
5632.68
5634.94
5636.11
5637.02
5637.62
5638.01
5638.29
5638.49
5633.56
5635.05
5636.13
5636.96
5637.57
5638.02
5638.37
5638.63
5514.47
5513.42
5512.59
5511.95
5511.45
5511.06
5510.75
5510.53
5515.75
5514.29
5513.19
5512.36
5511.73
5511.25
5510.87
5510.59
5516.82
5515.02
5513.66
5512.7
5512
5511.48
5511.09
5510.79
5517.06
5515.11
5513.68
5512.68
5511.94
5511.4
5511
5510.69
5516.27
5514.5
5513.2
5512.27
5511.58
5511.07
5510.69
5510.41
5515.01
5513.62
5512.6
5511.84
5511.27
5510.84
5510.51
5510.28
5513.76
5512.78
5512.03
5511.46
5511.02
5510.68
5510.43
5510.25
5388.56
5386.33
5384.52
5383.08
5381.94
5381.04
5380.37
5379.91
5391
5387.98
5385.6
5383.75
5382.33
5381.25
5380.46
5379.92
5392.99
5389.34
5386.48
5384.31
5382.68
5381.48
5380.63
5380.06
5393.44
5389.57
5386.55
5384.26
5382.55
5381.29
5380.4
5379.81
5392.23
5388.62
5385.85
5383.75
5382.17
5381
5380.16
5379.6
5390.04
5387.09
5384.82
5383.07
5381.73
5380.71
5379.98
5379.5
5387.65
5385.54
5383.83
5382.45
5381.37
5380.54
5379.93
5379.54
5252.18
5249.22
5247.07
5245.63
5244.85
5244.73
5245.29
5246.49
5255.58
5251.27
5248.18
5246.1
5244.89
5244.51
5244.94
5246.17
5258.26
5253.1
5249.18
5246.54
5245.01
5244.44
5244.82
5246.06
5258.94
5253.37
5249.21
5246.4
5244.75
5244.11
5244.44
5245.63
5257.06
5252
5248.32
5245.85
5244.4
5243.89
5244.3
5245.55
5253.98
5250.02
5247.18
5245.25
5244.16
5243.85
5244.35
5245.63
5250.96
5248.27
5246.28
5244.92
5244.21
5244.13
5244.73
5245.99
5090.05
5087.09
5084.97
5083.56
5082.62
5081.73
5080.6
5081.09
5093.42
5088.95
5085.87
5083.88
5082.63
5081.57
5080.3
5080.74
5096.3
5090.45
5086.45
5083.91
5082.37
5081.16
5079.79
5080.39
5097.19
5090.81
5086.49
5083.78
5082.14
5080.87
5079.49
5080.26
5094.93
5089.5
5085.8
5083.41
5081.92
5080.71
5079.33
5079.92
5091.69
5087.75
5084.98
5083.12
5081.92
5080.87
5079.57
5080.03
5088.82
5086.18
5084.18
5082.78
5081.82
5080.85
5079.63
5080.07
5633.66
5635.27
5636.32
5637.1
5637.69
5638.11
5638.45
5638.68
5632.86
5635.11
5636.3
5637.19
5637.79
5638.18
5638.45
5638.65
5632.2
5635.04
5636.26
5637.31
5637.98
5638.4
5638.66
5638.79
5631.94
5634.94
5636.3
5637.42
5638.17
5638.69
5639.04
5639.27
5631.75
5634.83
5636.28
5637.39
5638.12
5638.6
5638.91
5639.09
5632.12
5634.89
5636.36
5637.34
5638.02
5638.5
5638.79
5638.97
5633.74
5635.48
5636.6
5637.41
5637.97
5638.37
5638.64
5638.83
5513.95
5512.97
5512.2
5511.61
5511.15
5510.8
5510.52
5510.32
5515.28
5513.88
5512.83
5512.05
5511.46
5511
5510.64
5510.37
5516.65
5514.86
5513.53
5512.57
5511.85
5511.3
5510.89
5510.56
5517.49
5515.51
5514.04
5513
5512.23
5511.67
5511.24
5510.93
5517.27
5515.42
5514.02
5513.01
5512.26
5511.7
5511.26
5510.93
5516.13
5514.62
5513.47
5512.6
5511.94
5511.43
5511.04
5510.73
5514.76
5513.66
5512.81
5512.16
5511.64
5511.24
5510.93
5510.69
5388.07
5385.9
5384.14
5382.73
5381.6
5380.73
5380.08
5379.64
5390.59
5387.58
5385.25
5383.44
5382.04
5380.98
5380.2
5379.67
5392.89
5389.25
5386.41
5384.23
5382.58
5381.34
5380.43
5379.81
5394.18
5390.3
5387.23
5384.88
5383.12
5381.82
5380.89
5380.27
5393.7
5390.03
5387.11
5384.85
5383.13
5381.84
5380.9
5380.25
5391.72
5388.58
5386.1
5384.2
5382.74
5381.63
5380.8
5380.24
5389.09
5386.79
5384.94
5383.47
5382.31
5381.39
5380.7
5380.21
5251.76
5248.94
5246.84
5245.4
5244.61
5244.46
5244.99
5246.17
5255.11
5250.91
5247.87
5245.79
5244.56
5244.13
5244.51
5245.67
5258.47
5253.16
5249.23
5246.54
5244.92
5244.26
5244.51
5245.59
5260.48
5254.71
5250.33
5247.3
5245.46
5244.69
5244.88
5245.93
5259.59
5254.19
5250.07
5247.23
5245.51
5244.8
5245.02
5246.09
5256.64
5252.19
5248.91
5246.69
5245.37
5244.89
5245.24
5246.39
5253.07
5249.98
5247.73
5246.2
5245.35
5245.15
5245.64
5246.76
5089.57
5086.8
5084.67
5083.17
5082.13
5081.13
5079.9
5080.29
5092.72
5088.44
5085.42
5083.38
5082.08
5080.97
5079.68
5080.17
5096.44
5090.53
5086.46
5083.83
5082.24
5081
5079.68
5080.49
5099.02
5092.11
5087.38
5084.4
5082.59
5081.25
5079.9
5080.85
5097.83
5091.57
5087.25
5084.51
5082.85
5081.6
5080.29
5081.06
5094.54
5089.79
5086.53
5084.41
5083.09
5081.99
5080.71
5081.14
5090.95
5087.85
5085.65
5084.19
5083.24
5082.35
5081.22
5081.66
5638.57
5638.7
5638.78
5638.68
5638.74
5638.7
5638.62
5510.17
5510.22
5510.23
5510.25
5510.24
5510.25
5510.2
5379.37
5379.45
5379.49
5379.5
5379.49
5379.45
5379.41
5247.64
5247.68
5247.69
5247.73
5247.76
5247.82
5247.81
5086.48
5086.52
5086.55
5086.64
5086.62
5086.59
5086.56
5638.97
5638.94
5639.09
5639.4
5638.86
5638.8
5638.9
5510.5
5510.43
5510.62
5510.81
5510.42
5510.34
5510.34
5379.89
5379.77
5379.85
5380.02
5379.57
5379.62
5379.63
5247.99
5247.48
5247.14
5247.18
5246.82
5247.35
5247.8
5088.08
5088.46
5089.83
5090.37
5089.52
5088.02
5087.76
5638.79
5638.87
5639.1
5639.14
5638.69
5638.63
5638.8
5510.36
5510.38
5510.59
5510.49
5510.23
5510.13
5510.14
5379.64
5379.64
5379.78
5379.52
5379.34
5379.29
5379.37
5247.98
5247.76
5247.63
5247.14
5247.16
5247.26
5247.56
5087.68
5087.83
5088.29
5088.78
5087.92
5087.3
5086.75
5638.82
5638.77
5638.85
5639.4
5639.19
5639.07
5638.95
5510.19
5510.19
5510.34
5510.71
5510.69
5510.51
5510.51
5379.4
5379.4
5379.47
5379.95
5379.89
5379.93
5379.92
5247.64
5247.15
5246.97
5247.27
5247.49
5247.86
5248.12
5086.84
5087.53
5088.94
5089.81
5089.28
5088.2
5088.12
5638.77
5638.93
5639.03
5639.11
5639.15
5639.16
5639.15
5639.11
5638.9
5639.06
5639.14
5639.19
5639.2
5639.19
5639.16
5639.11
5638.93
5639.08
5639.17
5639.18
5639.2
5639.18
5639.15
5639.1
5638.86
5638.99
5639.14
5639.21
5639.21
5639.17
5639.14
5639.1
5638.88
5639.03
5639.13
5639.15
5639.17
5639.17
5639.14
5639.09
5638.88
5639.03
5639.12
5639.16
5639.17
5639.16
5639.14
5639.09
5638.76
5638.9
5639
5639.06
5639.09
5639.1
5639.08
5639.04
5510.07
5509.88
5509.73
5509.62
5509.53
5509.47
5509.43
5509.38
5510.11
5509.95
5509.8
5509.68
5509.59
5509.52
5509.47
5509.42
5510.11
5509.96
5509.82
5509.69
5509.6
5509.53
5509.48
5509.42
5510.13
5509.99
5509.85
5509.73
5509.62
5509.54
5509.48
5509.43
5510.13
5509.95
5509.8
5509.67
5509.58
5509.51
5509.46
5509.41
5510.12
5509.92
5509.76
5509.63
5509.53
5509.47
5509.42
5509.38
5510.05
5509.83
5509.66
5509.53
5509.44
5509.38
5509.34
5509.3
5379.24
5379.23
5379.32
5379.42
5379.5
5379.56
5379.6
5379.61
5379.32
5379.31
5379.39
5379.49
5379.57
5379.62
5379.65
5379.66
5379.37
5379.34
5379.41
5379.5
5379.58
5379.63
5379.66
5379.66
5379.37
5379.34
5379.41
5379.5
5379.58
5379.63
5379.66
5379.67
5379.34
5379.32
5379.4
5379.48
5379.56
5379.61
5379.64
5379.64
5379.27
5379.28
5379.36
5379.45
5379.52
5379.57
5379.6
5379.61
5379.21
5379.21
5379.27
5379.35
5379.42
5379.47
5379.5
5379.51
5249.32
5249.39
5249.42
5249.47
5249.54
5249.61
5249.68
5249.73
5249.36
5249.42
5249.45
5249.51
5249.58
5249.65
5249.72
5249.77
5249.36
5249.42
5249.45
5249.51
5249.58
5249.65
5249.72
5249.78
5249.38
5249.43
5249.45
5249.5
5249.57
5249.65
5249.73
5249.78
5249.39
5249.4
5249.41
5249.46
5249.53
5249.61
5249.69
5249.75
5249.43
5249.37
5249.36
5249.4
5249.47
5249.56
5249.64
5249.71
5249.37
5249.28
5249.25
5249.28
5249.35
5249.44
5249.53
5249.6
5100.74
5109.72
5114.21
5116.67
5118.08
5118.9
5119.4
5119.69
5100.7
5109.7
5114.21
5116.68
5118.1
5118.93
5119.43
5119.73
5100.67
5109.69
5114.21
5116.68
5118.1
5118.93
5119.43
5119.73
5100.7
5109.71
5114.22
5116.69
5118.1
5118.93
5119.44
5119.73
5100.7
5109.7
5114.21
5116.67
5118.08
5118.91
5119.41
5119.71
5100.73
5109.72
5114.21
5116.66
5118.06
5118.89
5119.38
5119.68
5100.8
5109.75
5114.21
5116.63
5118
5118.8
5119.29
5119.58
5639.11
5639.21
5639.26
5639.27
5639.26
5639.24
5639.22
5639.18
5639.04
5639.08
5639.09
5639.06
5639.04
5639
5638.95
5638.89
5639.14
5639.11
5639.05
5638.96
5638.87
5638.81
5638.73
5638.64
5639.53
5639.55
5639.48
5639.37
5639.22
5639.1
5639.03
5638.94
5638.88
5638.86
5638.83
5638.77
5638.71
5638.68
5638.63
5638.56
5638.91
5638.98
5639.03
5639.02
5639
5638.98
5638.94
5638.87
5639.02
5639.13
5639.19
5639.2
5639.19
5639.17
5639.14
5639.1
5510.22
5509.92
5509.68
5509.51
5509.39
5509.32
5509.27
5509.23
5510.14
5509.84
5509.63
5509.46
5509.33
5509.23
5509.15
5509.09
5510.29
5509.95
5509.68
5509.45
5509.27
5509.13
5509.01
5508.92
5510.49
5510.16
5509.9
5509.68
5509.51
5509.36
5509.25
5509.18
5510.11
5509.78
5509.52
5509.32
5509.16
5509.03
5508.92
5508.84
5510.07
5509.83
5509.62
5509.44
5509.3
5509.2
5509.13
5509.07
5510.1
5509.83
5509.62
5509.47
5509.36
5509.28
5509.24
5509.2
5379.57
5379.38
5379.32
5379.31
5379.32
5379.34
5379.36
5379.37
5379.45
5379.21
5379.12
5379.13
5379.14
5379.18
5379.22
5379.24
5379.49
5379.22
5379.09
5379.03
5379.01
5379
5378.99
5378.99
5379.7
5379.47
5379.38
5379.34
5379.33
5379.32
5379.31
5379.29
5379.22
5378.96
5378.85
5378.82
5378.83
5378.86
5378.88
5378.89
5379.31
5379.08
5379.03
5379.04
5379.09
5379.14
5379.18
5379.21
5379.34
5379.23
5379.22
5379.25
5379.29
5379.32
5379.34
5379.35
5249.3
5249.17
5249.11
5249.13
5249.19
5249.28
5249.36
5249.43
5249.01
5249.11
5249.1
5249.11
5249.13
5249.18
5249.25
5249.31
5248.64
5248.95
5249.05
5249.1
5249.15
5249.2
5249.25
5249.29
5248.63
5248.94
5249.07
5249.14
5249.2
5249.26
5249.31
5249.34
5248.35
5248.67
5248.81
5248.9
5248.99
5249.08
5249.13
5249.17
5248.85
5248.92
5248.9
5248.96
5249.03
5249.1
5249.19
5249.26
5249.26
5249.16
5249.12
5249.15
5249.21
5249.29
5249.38
5249.44
5101.9
5110.33
5114.51
5116.75
5118.02
5118.76
5119.21
5119.48
5102.1
5110.38
5114.48
5116.65
5117.85
5118.56
5119
5119.28
5103.24
5111.07
5114.9
5116.88
5117.96
5118.63
5119.08
5119.36
5103.65
5111.27
5114.99
5116.92
5117.99
5118.64
5119.04
5119.28
5102.99
5110.88
5114.7
5116.64
5117.72
5118.39
5118.86
5119.17
5101.73
5110.1
5114.26
5116.49
5117.73
5118.45
5118.92
5119.22
5101.62
5110.13
5114.37
5116.66
5117.96
5118.72
5119.19
5119.47
5638.9
5639.01
5639.08
5639.12
5639.14
5639.15
5639.15
5639.12
5639.01
5639.08
5639.13
5639.13
5639.07
5639.01
5638.97
5638.92
5639.18
5639.2
5639.18
5639.12
5639.05
5638.96
5638.87
5638.78
5639.28
5639.33
5639.29
5639.21
5639.13
5639.02
5638.93
5638.85
5638.76
5638.79
5638.82
5638.83
5638.82
5638.77
5638.71
5638.64
5638.77
5638.9
5639.02
5639.06
5639.04
5639
5638.97
5638.92
5638.95
5639.07
5639.14
5639.17
5639.17
5639.15
5639.13
5639.09
5510.13
5509.86
5509.66
5509.51
5509.41
5509.34
5509.3
5509.26
5510.12
5509.87
5509.7
5509.53
5509.38
5509.27
5509.19
5509.14
5510.32
5510.03
5509.8
5509.61
5509.46
5509.34
5509.22
5509.11
5510.23
5509.94
5509.71
5509.53
5509.39
5509.27
5509.17
5509.1
5509.99
5509.73
5509.54
5509.39
5509.27
5509.15
5509.05
5508.95
5509.94
5509.77
5509.63
5509.49
5509.38
5509.29
5509.23
5509.18
5509.99
5509.83
5509.69
5509.57
5509.48
5509.42
5509.37
5509.33
5379.34
5379.29
5379.31
5379.36
5379.4
5379.44
5379.46
5379.47
5379.38
5379.23
5379.21
5379.24
5379.28
5379.31
5379.33
5379.32
5379.54
5379.45
5379.46
5379.48
5379.5
5379.5
5379.48
5379.44
5379.28
5379.16
5379.16
5379.19
5379.22
5379.23
5379.24
5379.23
5379.13
5379.05
5379.08
5379.13
5379.18
5379.22
5379.24
5379.24
5379.1
5379.01
5379.08
5379.18
5379.27
5379.33
5379.37
5379.38
5379.21
5379.18
5379.26
5379.36
5379.45
5379.51
5379.55
5379.56
5249.52
5249.39
5249.32
5249.33
5249.38
5249.44
5249.51
5249.57
5249.37
5249.45
5249.41
5249.41
5249.43
5249.46
5249.5
5249.52
5249.44
5249.69
5249.71
5249.7
5249.7
5249.71
5249.74
5249.77
5248.89
5249.42
5249.64
5249.69
5249.69
5249.68
5249.66
5249.62
5249.04
5249.38
5249.48
5249.5
5249.52
5249.55
5249.57
5249.6
5249.05
5249.32
5249.38
5249.42
5249.46
5249.51
5249.55
5249.58
5249.24
5249.37
5249.4
5249.46
5249.52
5249.59
5249.65
5249.7
5101.6
5110.17
5114.43
5116.75
5118.06
5118.83
5119.3
5119.58
5101.63
5110.19
5114.46
5116.78
5118.1
5118.88
5119.34
5119.6
5101.87
5110.27
5114.51
5116.84
5118.18
5118.98
5119.47
5119.77
5102.32
5110.47
5114.58
5116.9
5118.25
5119.05
5119.52
5119.76
5101.59
5110.05
5114.35
5116.71
5118.07
5118.88
5119.37
5119.67
5101.24
5109.92
5114.29
5116.68
5118.05
5118.86
5119.34
5119.62
5100.92
5109.8
5114.24
5116.68
5118.07
5118.89
5119.38
5119.68
5638.95
5639.04
5639.08
5639.08
5639.05
5639.02
5638.99
5638.95
5638.9
5638.94
5638.93
5638.88
5638.83
5638.76
5638.7
5638.65
5638.9
5638.87
5638.84
5638.78
5638.73
5638.67
5638.59
5638.52
5639.5
5639.48
5639.41
5639.3
5639.18
5639.07
5638.97
5638.9
5639.25
5639.22
5639.14
5639.04
5638.94
5638.84
5638.74
5638.65
5639.18
5639.2
5639.17
5639.12
5639.06
5638.99
5638.92
5638.87
5639.08
5639.17
5639.21
5639.22
5639.22
5639.21
5639.19
5639.16
5510.01
5509.77
5509.58
5509.43
5509.32
5509.25
5509.2
5509.17
5509.94
5509.67
5509.48
5509.3
5509.14
5509.03
5508.96
5508.92
5510.05
5509.73
5509.47
5509.27
5509.1
5508.97
5508.87
5508.8
5510.42
5510.1
5509.84
5509.63
5509.47
5509.34
5509.24
5509.17
5510.37
5510.02
5509.73
5509.49
5509.3
5509.15
5509.03
5508.94
5510.22
5509.92
5509.7
5509.5
5509.34
5509.22
5509.14
5509.09
5510.23
5509.92
5509.68
5509.51
5509.39
5509.31
5509.26
5509.23
5379.15
5379.09
5379.12
5379.17
5379.22
5379.27
5379.31
5379.34
5379.13
5378.94
5378.89
5378.88
5378.89
5378.94
5379
5379.05
5379.15
5378.92
5378.82
5378.79
5378.8
5378.82
5378.84
5378.85
5379.64
5379.42
5379.34
5379.32
5379.31
5379.31
5379.3
5379.3
5379.53
5379.27
5379.14
5379.07
5379.04
5379.03
5379.03
5379.03
5379.61
5379.38
5379.28
5379.25
5379.25
5379.26
5379.28
5379.28
5379.61
5379.42
5379.36
5379.34
5379.35
5379.36
5379.37
5379.38
5249.18
5249.12
5249.09
5249.11
5249.17
5249.25
5249.34
5249.42
5248.76
5248.92
5248.9
5248.91
5248.95
5249.03
5249.1
5249.16
5248.6
5248.96
5249.02
5248.98
5248.97
5248.99
5249.04
5249.07
5248.8
5249.12
5249.21
5249.25
5249.28
5249.32
5249.35
5249.39
5249.11
5249.39
5249.38
5249.33
5249.27
5249.26
5249.29
5249.32
5249.29
5249.26
5249.17
5249.16
5249.19
5249.26
5249.32
5249.37
5249.43
5249.27
5249.19
5249.19
5249.23
5249.3
5249.38
5249.45
5100.99
5109.81
5114.19
5116.55
5117.88
5118.66
5119.14
5119.44
5101.47
5110.04
5114.28
5116.54
5117.78
5118.49
5118.89
5119.15
5102.64
5110.71
5114.69
5116.78
5117.84
5118.44
5118.81
5119.07
5103.31
5111.2
5115.1
5117.09
5118.15
5118.77
5119.15
5119.38
5102.81
5110.85
5114.86
5116.99
5118.16
5118.79
5119.16
5119.4
5101.95
5110.37
5114.51
5116.73
5117.97
5118.69
5119.11
5119.36
5101.96
5110.41
5114.58
5116.82
5118.08
5118.8
5119.24
5119.5
5639.06
5639.03
5638.99
5638.96
5638.93
5638.9
5638.89
5638.88
5639.07
5639.03
5639
5638.96
5638.93
5638.91
5638.9
5638.89
5639.06
5639.02
5638.99
5638.95
5638.93
5638.91
5638.89
5638.89
5639.05
5639.02
5638.98
5638.95
5638.92
5638.9
5638.89
5638.89
5639.05
5639.01
5638.98
5638.94
5638.92
5638.9
5638.88
5638.88
5639.04
5639.01
5638.97
5638.94
5638.91
5638.88
5638.87
5638.87
5639
5638.97
5638.93
5638.9
5638.87
5638.84
5638.83
5638.83
5509.35
5509.33
5509.31
5509.29
5509.28
5509.27
5509.25
5509.25
5509.38
5509.36
5509.34
5509.32
5509.3
5509.29
5509.28
5509.27
5509.39
5509.36
5509.34
5509.32
5509.31
5509.29
5509.28
5509.27
5509.39
5509.36
5509.34
5509.32
5509.31
5509.29
5509.28
5509.27
5509.37
5509.35
5509.33
5509.31
5509.29
5509.28
5509.27
5509.26
5509.35
5509.32
5509.31
5509.29
5509.27
5509.26
5509.25
5509.24
5509.27
5509.26
5509.24
5509.23
5509.21
5509.2
5509.19
5509.19
5379.61
5379.61
5379.61
5379.61
5379.61
5379.61
5379.6
5379.6
5379.65
5379.66
5379.66
5379.65
5379.65
5379.65
5379.64
5379.64
5379.66
5379.66
5379.66
5379.66
5379.65
5379.65
5379.64
5379.64
5379.66
5379.66
5379.66
5379.66
5379.66
5379.65
5379.65
5379.64
5379.64
5379.64
5379.64
5379.64
5379.64
5379.63
5379.63
5379.63
5379.61
5379.61
5379.61
5379.61
5379.61
5379.61
5379.6
5379.6
5379.52
5379.53
5379.53
5379.54
5379.54
5379.54
5379.54
5379.53
5249.77
5249.79
5249.81
5249.83
5249.84
5249.85
5249.85
5249.84
5249.81
5249.84
5249.86
5249.88
5249.89
5249.89
5249.9
5249.89
5249.82
5249.84
5249.86
5249.88
5249.89
5249.9
5249.9
5249.89
5249.82
5249.85
5249.87
5249.89
5249.9
5249.9
5249.9
5249.9
5249.79
5249.82
5249.84
5249.86
5249.87
5249.88
5249.88
5249.88
5249.75
5249.78
5249.81
5249.83
5249.84
5249.85
5249.85
5249.85
5249.65
5249.68
5249.71
5249.73
5249.75
5249.76
5249.77
5249.76
5119.84
5119.93
5119.99
5120.04
5120.07
5120.09
5120.1
5120.1
5119.88
5119.97
5120.03
5120.08
5120.11
5120.13
5120.14
5120.14
5119.88
5119.97
5120.04
5120.08
5120.11
5120.13
5120.15
5120.15
5119.89
5119.98
5120.04
5120.09
5120.12
5120.14
5120.15
5120.15
5119.86
5119.95
5120.02
5120.06
5120.1
5120.12
5120.13
5120.13
5119.83
5119.92
5119.99
5120.04
5120.07
5120.09
5120.1
5120.1
5119.73
5119.82
5119.89
5119.94
5119.97
5120
5120.01
5120.01
5639.15
5639.12
5639.08
5639.04
5639
5638.97
5638.94
5638.93
5638.85
5638.82
5638.79
5638.76
5638.73
5638.71
5638.69
5638.7
5638.58
5638.54
5638.51
5638.49
5638.47
5638.47
5638.47
5638.49
5638.89
5638.86
5638.83
5638.82
5638.81
5638.79
5638.78
5638.81
5638.51
5638.48
5638.46
5638.44
5638.43
5638.42
5638.42
5638.45
5638.82
5638.79
5638.76
5638.73
5638.7
5638.68
5638.66
5638.67
5639.06
5639.03
5639
5638.96
5638.92
5638.89
5638.86
5638.85
5509.21
5509.2
5509.19
5509.18
5509.17
5509.16
5509.15
5509.14
5509.06
5509.04
5509.03
5509.01
5509
5509
5508.99
5508.99
5508.86
5508.82
5508.79
5508.77
5508.76
5508.76
5508.76
5508.78
5509.13
5509.11
5509.08
5509.06
5509.06
5509.05
5509.05
5509.07
5508.78
5508.75
5508.73
5508.71
5508.7
5508.7
5508.7
5508.72
5509.04
5509.02
5509.01
5508.99
5508.98
5508.97
5508.97
5508.97
5509.17
5509.16
5509.14
5509.13
5509.12
5509.11
5509.1
5509.1
5379.38
5379.39
5379.39
5379.4
5379.4
5379.41
5379.41
5379.41
5379.25
5379.27
5379.28
5379.29
5379.3
5379.31
5379.32
5379.32
5378.98
5378.98
5378.98
5378.97
5378.97
5378.97
5378.97
5378.98
5379.28
5379.28
5379.28
5379.29
5379.29
5379.29
5379.29
5379.3
5378.89
5378.9
5378.9
5378.9
5378.9
5378.91
5378.91
5378.92
5379.22
5379.24
5379.25
5379.26
5379.27
5379.28
5379.29
5379.29
5379.36
5379.37
5379.37
5379.38
5379.38
5379.38
5379.38
5379.38
5249.48
5249.52
5249.55
5249.57
5249.59
5249.6
5249.6
5249.6
5249.36
5249.39
5249.43
5249.45
5249.47
5249.49
5249.49
5249.49
5249.3
5249.3
5249.3
5249.29
5249.29
5249.29
5249.28
5249.29
5249.37
5249.39
5249.41
5249.42
5249.44
5249.45
5249.45
5249.46
5249.18
5249.2
5249.21
5249.21
5249.21
5249.21
5249.21
5249.21
5249.32
5249.35
5249.38
5249.41
5249.43
5249.44
5249.45
5249.46
5249.49
5249.52
5249.55
5249.57
5249.58
5249.59
5249.6
5249.59
5119.62
5119.7
5119.77
5119.81
5119.84
5119.87
5119.88
5119.88
5119.42
5119.51
5119.58
5119.64
5119.68
5119.71
5119.72
5119.73
5119.5
5119.59
5119.64
5119.66
5119.68
5119.69
5119.69
5119.69
5119.4
5119.48
5119.54
5119.59
5119.62
5119.65
5119.66
5119.67
5119.33
5119.42
5119.49
5119.53
5119.55
5119.56
5119.57
5119.57
5119.37
5119.47
5119.54
5119.59
5119.63
5119.66
5119.67
5119.68
5119.62
5119.7
5119.77
5119.81
5119.84
5119.86
5119.88
5119.88
5639.09
5639.06
5639.03
5638.99
5638.95
5638.92
5638.9
5638.89
5638.88
5638.86
5638.84
5638.81
5638.79
5638.77
5638.75
5638.75
5638.71
5638.67
5638.63
5638.61
5638.59
5638.58
5638.57
5638.59
5638.8
5638.78
5638.77
5638.75
5638.73
5638.73
5638.73
5638.75
5638.59
5638.56
5638.54
5638.52
5638.51
5638.51
5638.51
5638.53
5638.89
5638.86
5638.84
5638.81
5638.79
5638.77
5638.76
5638.76
5639.05
5639.02
5638.98
5638.95
5638.92
5638.89
5638.88
5638.87
5509.24
5509.22
5509.21
5509.2
5509.19
5509.18
5509.17
5509.16
5509.12
5509.11
5509.09
5509.09
5509.08
5509.07
5509.07
5509.06
5509.04
5509
5508.97
5508.94
5508.93
5508.93
5508.92
5508.92
5509.06
5509.04
5509.02
5509
5509
5509
5509
5509.02
5508.89
5508.86
5508.83
5508.82
5508.82
5508.82
5508.82
5508.83
5509.15
5509.13
5509.12
5509.11
5509.1
5509.1
5509.1
5509.1
5509.3
5509.28
5509.27
5509.26
5509.24
5509.23
5509.22
5509.22
5379.47
5379.48
5379.48
5379.49
5379.49
5379.49
5379.49
5379.48
5379.33
5379.32
5379.32
5379.32
5379.32
5379.32
5379.33
5379.33
5379.41
5379.39
5379.38
5379.36
5379.35
5379.33
5379.32
5379.31
5379.22
5379.22
5379.22
5379.23
5379.24
5379.25
5379.25
5379.26
5379.23
5379.23
5379.22
5379.22
5379.21
5379.21
5379.21
5379.2
5379.38
5379.38
5379.37
5379.37
5379.38
5379.38
5379.38
5379.38
5379.56
5379.57
5379.57
5379.57
5379.57
5379.57
5379.57
5379.56
5249.61
5249.65
5249.67
5249.69
5249.7
5249.71
5249.72
5249.72
5249.53
5249.54
5249.54
5249.54
5249.54
5249.54
5249.53
5249.53
5249.8
5249.82
5249.83
5249.83
5249.83
5249.82
5249.81
5249.8
5249.59
5249.57
5249.55
5249.53
5249.52
5249.51
5249.51
5249.51
5249.62
5249.64
5249.65
5249.65
5249.65
5249.64
5249.64
5249.63
5249.6
5249.61
5249.62
5249.63
5249.63
5249.63
5249.63
5249.63
5249.74
5249.77
5249.79
5249.8
5249.82
5249.82
5249.83
5249.82
5119.72
5119.81
5119.87
5119.92
5119.95
5119.97
5119.98
5119.98
5119.73
5119.8
5119.85
5119.88
5119.9
5119.91
5119.91
5119.91
5119.93
5120.03
5120.1
5120.15
5120.19
5120.21
5120.22
5120.22
5119.85
5119.9
5119.91
5119.92
5119.92
5119.91
5119.91
5119.9
5119.81
5119.9
5119.96
5120
5120.02
5120.03
5120.03
5120.03
5119.76
5119.83
5119.89
5119.92
5119.95
5119.96
5119.97
5119.97
5119.83
5119.92
5119.98
5120.03
5120.06
5120.08
5120.09
5120.09
5638.91
5638.88
5638.85
5638.82
5638.79
5638.77
5638.75
5638.76
5638.62
5638.59
5638.57
5638.55
5638.54
5638.53
5638.52
5638.54
5638.48
5638.45
5638.43
5638.41
5638.41
5638.4
5638.4
5638.43
5638.85
5638.83
5638.81
5638.79
5638.79
5638.78
5638.76
5638.78
5638.59
5638.55
5638.52
5638.5
5638.48
5638.47
5638.47
5638.49
5638.83
5638.81
5638.78
5638.76
5638.73
5638.71
5638.7
5638.71
5639.13
5639.1
5639.06
5639.03
5638.98
5638.95
5638.92
5638.91
5509.14
5509.13
5509.12
5509.11
5509.11
5509.1
5509.09
5509.09
5508.91
5508.9
5508.89
5508.88
5508.88
5508.88
5508.88
5508.89
5508.76
5508.73
5508.71
5508.7
5508.7
5508.7
5508.7
5508.73
5509.13
5509.11
5509.09
5509.07
5509.06
5509.06
5509.06
5509.08
5508.88
5508.85
5508.82
5508.81
5508.79
5508.79
5508.79
5508.8
5509.07
5509.06
5509.05
5509.04
5509.03
5509.02
5509.01
5509.01
5509.21
5509.2
5509.19
5509.18
5509.17
5509.16
5509.15
5509.14
5379.35
5379.37
5379.38
5379.39
5379.4
5379.4
5379.41
5379.41
5379.08
5379.11
5379.13
5379.15
5379.17
5379.18
5379.19
5379.2
5378.85
5378.86
5378.86
5378.87
5378.87
5378.88
5378.88
5378.9
5379.29
5379.29
5379.29
5379.3
5379.3
5379.3
5379.3
5379.31
5379.03
5379.03
5379.02
5379.02
5379.02
5379.02
5379.02
5379.02
5379.29
5379.3
5379.31
5379.32
5379.33
5379.33
5379.34
5379.33
5379.39
5379.4
5379.4
5379.41
5379.41
5379.42
5379.42
5379.42
5249.48
5249.52
5249.56
5249.59
5249.61
5249.62
5249.63
5249.63
5249.22
5249.26
5249.3
5249.33
5249.36
5249.38
5249.39
5249.39
5249.1
5249.12
5249.13
5249.14
5249.15
5249.15
5249.15
5249.16
5249.41
5249.43
5249.44
5249.46
5249.47
5249.47
5249.48
5249.48
5249.34
5249.36
5249.36
5249.36
5249.36
5249.35
5249.34
5249.34
5249.41
5249.44
5249.47
5249.49
5249.51
5249.52
5249.52
5249.52
5249.5
5249.54
5249.56
5249.59
5249.6
5249.61
5249.62
5249.62
5119.6
5119.69
5119.77
5119.82
5119.86
5119.89
5119.9
5119.91
5119.3
5119.39