/*--------------------------------*- C++ -*----------------------------------*\
| =========                 |                                                 |
| \\      /  F ield         | OpenFOAM: The Open Source CFD Toolbox           |
|  \\    /   O peration     | Version:  plus.master.MPPICInterFoam            |
|   \\  /    A nd           | Web:      www.OpenFOAM.com                      |
|    \\/     M anipulation  |                                                 |
\*---------------------------------------------------------------------------*/
FoamFile
{
    version     2.0;
    format      ascii;
    class       volScalarField;
    location    "10.2";
    object      alpha.water;
}
// * * * * * * * * * * * * * * * * * * * * * * * * * * * * * * * * * * * * * //

dimensions      [0 0 0 0 0 0 0];

internalField   nonuniform List<scalar> 
11821
(
1
1.00001
1
0.925134
1
1
0.999999
1
1
1
0.999999
1
1
0.950479
0.931585
0.935804
0.979419
0.999319
0.999999
1
0.698714
0.521742
0.574647
0.856181
0.979924
0.999997
1
0.428911
0.363948
0.387901
0.598552
0.937499
1
1
0.394756
0.363879
0.363826
0.529578
0.914014
0.999648
0.999999
0.450052
0.365351
0.391249
0.601854
0.931637
0.999988
1
0.762559
0.650031
0.682321
0.854594
0.975243
0.999992
1
1
1
1
1
1
1
1
0.96845
0.978535
0.967092
0.987442
1
1
1
0.850654
0.658776
0.749682
0.929469
0.989928
1
1
0.741096
0.363882
0.465943
0.807156
0.973014
1
1
0.661213
0.363837
0.363844
0.703431
0.969747
1
1
0.799233
0.478544
0.535499
0.834946
0.965336
1
1
0.890414
0.838731
0.802671
0.921698
0.985686
1
1
1
1
1
1
1
1
1
0.942861
0.962282
0.942159
0.981899
1
1
1
0.76857
0.579802
0.70706
0.873785
0.98415
1
1
0.742181
0.556973
0.431322
0.766228
0.951055
1
1
0.790506
0.589727
0.403385
0.633024
0.946801
1
1
0.799211
0.667068
0.505901
0.799999
0.930209
1
1
0.767417
0.696319
0.680255
0.8373
0.973444
1
1
1
1
1
1
1
1
1
0.873147
0.88575
0.875543
0.96799
0.99954
1
1
0.509907
0.423714
0.505165
0.744387
0.968691
1
1
0.430018
0.650085
0.397205
0.54299
0.893832
1
1
0.704331
0.735652
0.709169
0.450232
0.867062
1
1
0.494413
0.588721
0.394155
0.557784
0.854163
1
1
0.486799
0.411587
0.436561
0.651648
0.9408
1
1
1
1
1
1
1
1
1
0.854113
0.843616
0.861691
0.967002
0.999306
1
1
0.401774
0.410604
0.418463
0.722423
0.967008
1
1
0.396962
0.519143
0.397193
0.44131
0.882503
1
1
0.446193
0.735833
0.680219
0.416992
0.844504
1
1
0.395932
0.409409
0.393766
0.407664
0.845206
1
1
0.402749
0.398923
0.394488
0.625539
0.935607
1
1
1
1
1
1
1
1
1
0.889948
0.87719
0.897694
0.976833
0.999673
1
1
0.478384
0.421897
0.502041
0.794541
0.978775
1
1
0.396153
0.394151
0.396662
0.537548
0.917643
1
1
0.395904
0.735758
0.442578
0.475997
0.889228
1
1
0.394947
0.393854
0.393799
0.499166
0.892457
1
1
0.490287
0.438202
0.484159
0.724825
0.955012
1
1
1
1
1
1
1
1
1
0.931656
0.935472
0.933738
0.984892
0.999985
1
1
0.662688
0.494274
0.660422
0.87715
0.98863
0.999999
1
0.451618
0.392993
0.424526
0.718906
0.954791
0.999997
1
0.443298
0.536723
0.39317
0.585103
0.947198
0.999993
1
0.462541
0.393424
0.395608
0.706088
0.938025
0.999991
1
0.688606
0.589473
0.652963
0.831056
0.972596
0.999997
1
1
1
1
1
1
1
1
0.928357
0.941955
0.930599
0.984799
1
1
1
0.683033
0.523875
0.666502
0.87288
0.988756
1
1
0.581525
0.39316
0.436728
0.727326
0.955339
1
1
0.631608
0.392922
0.392249
0.596212
0.951475
1
1
0.677427
0.393806
0.391719
0.733462
0.936862
1
1
0.699759
0.610667
0.65198
0.812688
0.971511
1
1
1
1
1
1
1
1
1
0.895867
0.919377
0.909629
0.981352
1
1
1
0.572803
0.490452
0.585239
0.835436
0.984998
1
1
0.518016
0.431825
0.404292
0.645517
0.942697
1
1
0.651695
0.565325
0.455372
0.561584
0.935156
1
1
0.663972
0.509158
0.377662
0.646562
0.918014
1
1
0.566351
0.493118
0.53533
0.737299
0.960533
1
1
1
1
1
1
1
1
1
0.866173
0.881453
0.891557
0.977748
0.999942
1
1
0.43517
0.429468
0.50256
0.808747
0.980872
1
1
0.389847
0.564223
0.3778
0.566381
0.929802
1
1
0.482658
0.65881
0.631491
0.530119
0.915796
1
1
0.391306
0.516349
0.377336
0.535108
0.902164
1
1
0.436961
0.432638
0.428066
0.70743
0.951378
1
1
1
1
1
1
1
1
1
0.868814
0.874254
0.891266
0.977351
0.99994
1
1
0.447592
0.419548
0.513907
0.813512
0.980763
1
1
0.389892
0.493357
0.377617
0.580337
0.93013
1
1
0.3897
0.65881
0.43259
0.526711
0.916589
1
1
0.39046
0.403437
0.377313
0.545886
0.904558
1
1
0.458434
0.434452
0.452273
0.727074
0.952167
1
1
1
1
1
1
1
1
1
0.874725
0.878942
0.892876
0.977496
0.999967
1
1
0.514025
0.419112
0.558004
0.827188
0.981078
1
1
0.390637
0.377842
0.37751
0.623544
0.932083
1
1
0.454354
0.637521
0.377319
0.537859
0.922041
1
1
0.400702
0.377331
0.377331
0.603565
0.909334
1
1
0.546946
0.459786
0.518826
0.753863
0.953544
1
1
1
1
1
1
1
1
1
0.868034
0.876106
0.890509
0.977064
0.999963
1
1
0.519831
0.420029
0.561093
0.826247
0.980828
1
1
0.385731
0.377731
0.377625
0.625527
0.931116
1
1
0.647973
0.503895
0.413844
0.553608
0.921309
1
1
0.549825
0.377443
0.377328
0.615347
0.907906
1
1
0.56082
0.460551
0.517804
0.74654
0.952654
1
1
1
1
1
1
1
1
1
0.846597
0.861109
0.883099
0.975652
0.999919
1
1
0.465044
0.422564
0.535388
0.813626
0.979935
1
1
0.383935
0.38117
0.377734
0.605053
0.929028
1
1
0.507569
0.580747
0.579975
0.55063
0.915954
1
1
0.529491
0.402194
0.371607
0.588761
0.903176
1
1
0.499714
0.44279
0.465046
0.719843
0.950118
1
1
1
1
1
1
1
1
1
0.840934
0.854144
0.879535
0.975137
0.999924
1
1
0.429483
0.427505
0.526013
0.808161
0.980184
1
1
0.390414
0.542643
0.377962
0.601593
0.929727
1
1
0.387362
0.588483
0.53743
0.544709
0.916539
1
1
0.385296
0.461807
0.367322
0.572342
0.903662
1
1
0.445162
0.441715
0.444452
0.716507
0.950874
1
1
1
1
1
1
1
0.999999
1
0.851042
0.859905
0.881734
0.976071
0.999964
1
1
0.464123
0.435734
0.550504
0.81681
0.981956
1
1
0.405136
0.486036
0.41621
0.623996
0.93407
1
1
0.38549
0.588368
0.367338
0.55873
0.924564
1
1
0.38536
0.391847
0.367299
0.599878
0.909813
1
1
0.473959
0.448191
0.487565
0.737794
0.955298
1
1
0.999998
0.999968
1
1
1
1
1
1
1
1
1
1
1
1
1
1
1
1
1
1
1
1
1
1
1
1
1
1
1
1
1
1
1
0.999999
1
1
0.999998
0.999999
1
1
1
1
1
1
1
1
0.999842
0.999376
1
1
1
1
1
1
0.999993
0.999922
1
1
1
1
1
1
1
1
1
1
1
1
1
1
1
1
1
1
1
1
1
1
1
1
1
1
1
1
1
1
1
1
1
1
1
1
0.999999
0.999994
1
1
1
1
1
1
1
1
0.99981
0.999365
1
1
1
1
1
1
0.99999
0.999914
1
1
1
1
1
1
1
1
1
1
1
1
1
1
1
1
1
1
1
1
1
1
1
1
1
1
1
1
1
1
1
1
1
0.999999
0.999998
0.999993
1
0.999992
1
1
1
1
1
1
1
1
0.999788
0.99849
1
1
1
1
1
1
0.999992
0.999964
1
1
1
1
1
1
1
1
1
1
1
1
1
1
1
1
1
1
1
1
1
1
1
1
1
1
1
1
1
1
1
1
1
0.999999
0.999978
0.999981
1
0.999994
1
1
1
1
1
1
1
1
0.999733
0.997748
1
1
1
1
1
1
0.999998
0.999997
1
1
1
1
1
1
1
1
1
1
1
1
1
1
1
1
1
1
1
1
1
1
1
1
1
1
1
1
1
1
1
1
1
0.999999
0.999963
0.999982
1
0.999998
1
1
1
1
1
1
1
1
0.999576
0.997749
1
1
1
1
1
1
1
1
1
1
1
1
1
1
1
1
1
1
1
1
1
1
1
1
1
1
1
1
1
1
1
1
1
1
1
1
1
1
1
1
1
0.999996
0.999963
0.999993
1
1
1
0.999999
1
1
1
1
1
1
0.999387
0.997772
1
1
1
1
1
1
1
1
1
1
1
1
1
1
1
1
1
1
1
1
1
1
1
1
1
1
1
1
1
1
1
0.999999
1
1
1
1
1
1
1
1
1
0.999995
0.999963
1
0.999999
1
1
0.999998
1
1
1
1
1
1
0.999379
0.997816
1
1
1
1
1
1
1
1
1
1
1
1
1
1
1
1
1
1
1
1
1
1
1
1
1
1
1
1
1
1
1
0.999999
1
1
1
1
1
1
1
0.999998
1
0.999993
0.999977
1
0.999997
0.999999
1
0.999999
1
1
1
1
1
1
0.999412
0.998176
1
1
1
1
1
1
1
1
1
1
1
1
1
1
1
1
1
1
1
1
1
1
1
1
1
1
1
1
1
1
1
0.999999
1
1
1
1
1
1
1
0.999993
1
0.99999
0.999994
1
0.999998
1
1
1
1
1
1
1
1
0.999997
0.999505
0.998756
1
1
1
1
1
1
1
1
1
1
1
1
1
1
1
1
1
1
1
1
1
1
1
1
1
1
1
1
1
1
1
0.999999
1
1
1
1
1
1
1
0.999983
1
0.99999
0.999997
1
1
1
1
0.999995
1
1
1
1
1
0.999983
0.999646
0.999208
1
1
1
1
1
1
1
1
1
1
1
1
1
1
1
1
1
1
1
1
1
1
1
1
1
1
1
1
1
1
1
0.999999
1
0.999999
1
1
1
1
1
0.999973
1
0.99999
0.999997
1
1
1
1
0.999926
1
1
1
1
1
0.999955
0.999775
0.99945
1
1
1
1
1
1
1
1
1
1
1
1
1
1
1
1
1
1
1
1
1
1
1
1
1
1
1
1
1
1
1
0.999998
1
0.999999
1
1
1
1
1
0.999974
0.999999
0.99999
0.999997
1
1
1
1
0.999826
1
1
1
1
1
0.999904
0.999858
0.999604
1
1
1
1
1
1
1
1
1
1
1
1
1
1
1
1
1
1
1
1
1
1
1
1
1
1
1
1
1
1
1
0.999996
1
0.999999
1
1
1
1
1
0.999983
0.999998
0.999992
0.999999
1
1
1
1
0.999792
1
1
1
1
1
0.999864
0.999907
0.999728
1
1
1
1
1
1
1
1
1
1
1
1
1
1
1
1
1
1
1
1
1
1
1
1
1
1
1
1
1
1
1
0.999993
1
1
1
1
1
1
1
0.999974
0.999996
0.999997
1
1
1
1
1
0.999831
1
1
1
1
1
0.999862
0.99994
0.999806
1
1
1
1
1
1
1
1
1
1
1
1
1
1
1
1
1
1
1
1
1
1
1
1
1
1
1
1
1
1
1
0.999989
1
1
1
1
1
1
1
0.999926
0.999996
0.999997
1
1
1
1
1
0.999904
1
1
1
1
1
0.999869
0.99997
0.999837
1
1
1
1
1
1
1
1
1
1
1
1
1
1
1
1
1
1
1
1
1
1
1
1
1
1
1
1
1
1
1
0.999991
0.999999
1
1
1
1
1
1
0.999857
0.999996
0.999997
1
1
1
1
1
0.999891
1
1
1
1
1
0.999891
0.999997
0.999847
1
1
1
1
1
1
0.999999
1
1
1
1
1
1
1
1
1
1
1
1
1
1
1
1
1
1
1
1
1
1
1
1
0.999999
1
1
1
1
1
1
1
0.999822
0.999996
0.999998
1
1
1
1
1
0.999729
0.949973
0.999969
0.999997
0.999997
0.999991
0.999983
0.999941
0.999982
0.831276
0.980503
0.999997
0.999999
0.999977
0.999339
0.999818
0.99998
0.721839
0.947526
0.999984
0.999999
0.999999
0.999343
0.999847
0.99998
0.782877
0.968926
0.999999
0.999998
0.999998
0.999788
0.999892
0.99998
0.92266
0.999632
0.999998
0.999825
0.999985
0.999922
0.997791
0.998612
0.993021
0.999994
0.999999
0.999948
0.999896
0.999088
0.999924
0.999972
0.999999
0.999997
1
1
0.99984
0.99985
0.999999
0.999999
0.952806
0.999826
0.999999
0.999991
0.999982
0.999976
0.999962
0.999982
0.949556
0.975901
0.999999
0.999999
0.999897
0.999338
0.999916
0.999953
0.944833
0.957802
0.999791
0.999999
0.999995
0.999338
0.999817
0.999698
0.928266
0.971305
0.999997
0.999996
0.999996
0.999931
0.999903
0.998719
0.941199
0.999327
0.999999
0.999964
1
0.999999
0.999561
0.99979
0.996081
0.999999
0.999998
0.999998
0.999865
0.999088
0.999975
0.999976
1
0.999997
1
1
0.999826
0.999876
0.99998
0.999934
0.899966
0.99989
0.999999
0.99999
0.999963
0.99997
0.999981
0.999982
0.785694
0.931189
0.999999
0.999999
0.999802
0.999338
0.99998
0.999867
0.731436
0.897233
0.999999
0.999999
0.999971
0.999338
0.999867
0.997625
0.79112
0.924003
0.999999
0.999999
0.999993
0.999995
0.999876
0.99679
0.868371
0.996785
1
1
1
0.999734
0.999966
0.999737
0.992971
1
0.999999
1
0.999623
0.999537
0.999967
0.99971
1
0.999996
1
1
0.999842
0.999916
0.999893
0.999556
0.805585
0.999924
0.999999
0.999991
0.999957
0.999962
0.999973
0.999982
0.47681
0.853064
1.00001
0.999999
0.999753
0.999534
0.999737
0.999569
0.418319
0.760412
0.999994
0.999999
0.999845
0.999512
0.999969
0.99675
0.484258
0.825239
1.00001
1
0.999989
1
0.999729
0.996757
0.722436
0.988853
1
1
1
0.999179
0.999929
0.999639
0.979509
1
1
1
0.999561
0.999592
0.999624
0.997292
1
0.999996
0.999999
1
0.999909
0.999943
0.9997
0.999021
0.791746
0.999839
0.999996
0.999993
0.999957
0.999947
0.999957
0.999982
0.420514
0.846187
0.999991
0.999997
0.999754
0.999913
0.999025
0.998771
0.408215
0.732895
0.999974
0.999997
0.999753
0.999918
0.999999
0.996747
0.400321
0.806384
0.999992
0.999999
0.999983
1
0.999566
0.996909
0.698706
0.985203
1
1
1
0.999179
0.999928
0.99966
0.973133
0.999999
1
1
0.999562
0.999491
0.997953
0.996225
1
0.999996
0.999999
1
0.999964
0.999941
0.999396
0.998664
0.836323
0.999503
0.999997
0.999995
0.999958
0.999933
0.999942
0.999979
0.551389
0.895231
0.999989
0.999996
0.99977
1
0.998666
0.998368
0.47467
0.809773
0.999974
0.999986
0.999863
0.999998
0.999999
0.996733
0.502603
0.862633
0.999991
1
0.999981
1
0.99947
0.998864
0.773798
0.988696
1
1
1
0.999218
0.999249
0.999659
0.978147
0.999942
1
1
0.999591
0.999197
0.996272
0.996221
0.999999
0.999996
0.999999
1
0.999974
0.999914
0.999147
0.998617
0.876112
0.998275
0.999998
0.999996
0.999957
0.999918
0.999942
0.999971
0.80642
0.92383
0.999862
0.999997
0.999975
1
0.998654
0.998596
0.738565
0.886231
0.998873
0.999997
0.999996
1
0.999972
0.996631
0.756333
0.912643
0.999899
1
0.999988
1
0.999509
0.999873
0.853329
0.991024
1
1
1
0.999259
0.996428
0.999392
0.984076
0.999929
1
1
0.999647
0.998661
0.996219
0.996218
1
0.999997
1
1
0.999972
0.999884
0.999053
0.998673
0.855688
0.997583
0.999999
0.999995
0.999954
0.999903
0.999947
0.999966
0.799454
0.893542
0.999888
0.999998
1
1
0.998787
0.999142
0.778012
0.856768
0.998779
1
1
1
0.999622
0.996604
0.781876
0.889531
0.999794
1
1
1
0.999647
0.999879
0.830652
0.988707
1
1
1
0.999206
0.996219
0.996998
0.98278
0.999943
1
1
0.999702
0.998425
0.996218
0.996217
1
0.999997
1
1
0.999969
0.999893
0.999043
0.998924
0.797616
0.997466
0.999999
0.999995
0.999949
0.999898
0.999961
0.999967
0.574803
0.83205
1
1
1
1
0.999234
0.999611
0.525094
0.763751
0.999509
1
1
1
0.99798
0.996604
0.606178
0.817462
0.999985
1
1
1
0.999795
0.99988
0.740138
0.981274
1
1
1
0.999103
0.996218
0.996217
0.974093
0.999879
1
1
0.999721
0.998461
0.996217
0.996217
1
0.999996
0.999999
0.999999
0.999972
0.999904
0.99909
0.999408
0.78089
0.997368
0.999999
0.999996
0.999942
0.9999
0.999967
0.999978
0.42322
0.82223
0.999998
1
1
1
0.999396
0.999837
0.417677
0.731164
0.999645
1
1
1
0.996759
0.996604
0.410263
0.787019
0.999998
1
0.999991
1
0.999865
0.999916
0.695333
0.973876
1
1
1
0.999035
0.996247
0.996222
0.965283
0.999704
1
0.999986
0.999721
0.998578
0.996218
0.996629
1
0.999996
0.999999
0.999991
0.99999
0.999562
0.999324
0.999856
0.795307
0.996425
0.999999
0.999995
0.999934
0.999901
0.999965
0.999991
0.482572
0.844115
0.999998
1
1
0.999964
0.999305
0.999923
0.444964
0.765743
0.998164
1
1
1
0.996794
0.998418
0.445205
0.807222
0.999996
1
0.999983
1
0.999894
0.999987
0.71566
0.972439
1
1
0.999975
0.999019
0.997309
0.996252
0.964389
0.999554
0.999999
0.999877
0.999713
0.998564
0.997869
0.998433
1
0.999995
0.999999
0.999976
1
0.998659
0.999624
0.999996
0.803965
0.993494
0.999997
0.999995
0.99992
0.999882
0.999952
0.999993
0.681481
0.856884
0.998336
1
1
0.999677
0.999013
0.999942
0.648254
0.804027
0.993597
1
1
1
0.999015
0.999938
0.602535
0.832141
0.998937
0.999999
0.999985
1
0.999929
0.999991
0.744029
0.971578
1
0.999999
0.999874
0.999172
0.998639
0.996262
0.964399
0.999446
0.999999
0.999743
0.999733
0.998567
0.999791
0.998472
1
0.999996
0.999999
0.999969
0.999999
0.998571
0.9998
0.999997
0.785313
0.989609
0.999997
0.999993
0.999886
0.999811
0.999944
0.999993
0.717736
0.82349
0.997453
1
1
0.999127
0.998996
0.999945
0.69086
0.771993
0.991307
1
1
0.999997
0.999997
0.999992
0.63407
0.812321
0.998085
0.999999
0.999989
1
0.999937
0.999991
0.728145
0.965932
0.999999
0.999999
0.999806
0.99958
0.998821
0.996266
0.961394
0.999256
0.999999
0.999739
0.999811
0.999151
0.999779
0.998352
1
0.999997
0.999999
0.99997
1
0.998988
0.999925
0.999972
0.748815
0.988411
0.999996
0.999989
0.999805
0.999784
0.999946
0.999993
0.556449
0.767547
0.998692
1
1
0.999015
0.998996
0.999959
0.505127
0.691563
0.990643
1
1
0.999998
0.999931
0.999991
0.524023
0.750564
0.99827
0.999998
0.999997
1
0.999932
0.999991
0.672802
0.953646
0.999998
0.999995
0.999846
0.999842
0.998751
0.996873
0.953458
0.998917
0.999998
0.999739
0.999953
0.99999
0.999779
0.998739
1
1
0.999998
0.999979
0.999999
0.999952
0.999988
0.999869
0.748401
0.988984
0.999996
0.999985
0.999743
0.999787
0.999954
0.999994
0.426606
0.769522
0.999397
1
1
0.999162
0.999186
0.99998
0.395452
0.685387
0.98936
1
1
1
0.999849
0.999991
0.410065
0.735779
0.998341
1
1
0.999823
0.999911
0.999991
0.659563
0.947469
0.999997
0.999982
0.999966
0.99992
0.998716
0.999645
0.950963
0.998654
0.999998
0.999954
0.999998
0.999997
0.999912
0.999585
0.999999
1
0.999997
0.999994
0.999992
0.99997
0.999989
0.999735
0.769278
0.989449
0.999997
0.999983
0.999755
0.999797
0.999957
0.999994
0.503685
0.808571
0.997896
1
1
0.999222
0.999491
0.999992
0.501267
0.739696
0.986403
1
1
0.999275
0.999864
0.999989
0.464361
0.766174
0.997236
1
1
0.999252
0.999909
0.999716
0.688557
0.949542
0.999998
0.999979
1
0.999979
0.998717
0.999761
0.952932
0.998605
0.999999
1
1
0.99996
0.999862
0.999775
0.999999
1
0.999997
1
0.999976
0.999725
0.999817
0.999696
1
1
1
1
1
1
1
0.999996
1
1
1
1
1
0.999999
1
1
1
1
1
1
1
0.999991
0.999936
0.998369
1
1
0.999999
0.999999
0.999995
0.99997
0.998531
0.998299
1
1
0.999998
1
0.999985
0.999913
0.998137
0.997877
1
1
1
1
1
0.999855
0.998146
0.999385
1
1
1
1
1
1
0.999559
0.996545
1
1
1
1
1
1
0.999999
0.999992
1
1
1
1
1
1
1
1
1
1
1
1
1
0.999989
0.999988
0.999387
1
1
0.999998
0.999998
0.999973
0.9999
0.997911
0.999363
1
1
0.999998
0.999998
0.999986
0.999771
0.99791
0.99794
1
1
1
1
1
0.999734
0.998137
0.997136
1
1
1
1
1
1
0.998567
0.996544
1
1
1
1
1
1
0.999998
0.999994
1
1
1
1
1
1
1
0.999998
1
1
1
1
0.999999
0.999988
0.999686
0.999998
1
1
0.999998
0.999997
0.999964
0.999657
0.99791
0.999243
1
1
0.999998
0.999981
0.99999
0.999642
0.99791
0.998848
1
1
1
1
1
0.999532
0.998612
0.996879
1
1
1
1
1
0.999989
0.998512
0.996878
1
1
1
1
1
1
0.999999
0.999999
1
1
1
1
1
1
1
0.999998
1
1
1
1
0.999988
0.999994
0.998541
0.999998
1
1
0.999998
0.999995
0.999965
0.999178
0.99791
0.998711
1
1
0.999997
0.999978
0.99999
0.999566
0.99791
0.999669
1
1
1
1
0.999991
0.999304
0.999036
0.996985
1
1
1
1
1
0.999958
0.998879
0.997992
1
1
1
1
1
1
1
1
1
1
1
1
1
1
1
1
1
1
1
0.999999
0.999975
0.999977
0.99885
0.999991
1
1
0.999999
0.999992
0.999957
0.998981
0.999227
0.998667
1
1
0.999996
0.999978
0.99999
0.999399
0.99791
0.999745
1
1
1
1
0.999972
0.999291
0.999168
0.997199
1
1
1
1
1
0.999917
0.998959
0.998203
1
1
1
1
1
1
1
1
1
1
1
1
1
1
1
1
1
1
1
0.999997
0.999977
0.999837
0.999926
0.999807
1
1
1
0.999983
0.999947
0.998957
0.999897
0.998667
1
1
0.999993
0.999984
0.99999
0.998905
0.998287
0.999745
1
1
1
1
0.999937
0.999398
0.999127
0.997186
1
1
1
1
1
0.999892
0.997891
0.998203
1
1
1
1
1
1
1
1
1
1
1
1
1
1
1
1
1
1
1
0.999995
0.999982
0.999636
0.999997
0.99931
1
1
1
0.999959
0.999935
0.999474
0.999771
0.998841
1
1
0.99999
0.999989
0.99999
0.998673
0.999135
0.999778
1
1
1
1
0.999892
0.999565
0.998454
0.997162
1
1
1
1
0.999999
0.999873
0.996764
0.996871
1
1
1
1
1
1
1
1
1
1
1
1
1
1
0.999999
1
1
1
1
0.999995
0.999987
0.99963
0.999996
0.99925
1
1
1
0.999937
0.99992
0.999848
0.999257
0.999629
1
1
0.99999
0.99999
0.999975
0.998673
0.999339
0.999779
1
1
1
1
0.999872
0.999644
0.996926
0.997604
1
1
1
1
1
0.999812
0.996745
0.996745
1
1
1
1
1
0.999997
0.999998
1
1
1
1
1
1
1
0.999998
1
1
1
1
0.999995
0.999994
0.999744
0.999999
0.99925
1
1
1
0.999937
0.999902
0.999919
0.999047
0.999734
1
1
0.99999
0.999994
0.99991
0.998673
0.999064
0.998596
1
1
0.999999
1
0.999873
0.999634
0.996745
0.998304
1
1
1
1
1
0.99973
0.996745
0.996745
1
1
1
1
1
0.999965
0.999968
1
1
1
1
1
1
1
0.999998
1
1
1
1
0.999993
0.999994
0.999994
1
0.999248
1
1
1
0.999942
0.999903
0.999955
0.999283
0.999734
1
1
0.99999
1
0.999671
0.998703
0.998327
0.997616
1
0.999999
0.999998
1
0.999874
0.999598
0.996747
0.99893
1
1
1
1
1
0.999704
0.996891
0.996745
1
1
1
1
1
0.999878
0.999938
1
1
1
1
1
1
1
0.999998
1
1
1
1
0.999986
0.999967
0.999999
1
0.999307
1
1
1
0.999956
0.999913
0.999955
0.99963
0.999757
1
1
0.999994
1
0.999307
0.999149
0.997649
0.997616
1
0.999999
0.999998
0.999999
0.99988
0.999386
0.997361
0.999379
1
1
1
1
1
0.999648
0.997912
0.996741
1
1
1
1
1
0.999846
0.999949
1
1
1
1
1
1
1
0.999999
0.999991
1
1
1
0.999972
0.999934
0.999997
1
0.999684
1
1
1
0.999965
0.999932
0.999936
0.999393
0.999795
1
1
0.999999
1
0.999279
0.999576
0.997616
0.997616
1
0.999999
1
0.999981
0.999889
0.99819
0.999367
0.999495
1
1
1
1
1
0.999547
0.998731
0.996718
1
1
1
1
1
0.999883
0.999986
1
1
1
1
1
1
1
1
0.999895
1
1
1
0.999966
0.999934
0.999998
1
0.999954
1
1
0.999998
0.999965
0.999968
0.999835
0.998222
0.999633
1
1
0.999999
1
0.999309
0.999292
0.998008
0.997616
1
0.999999
1
0.999951
0.999843
0.997838
0.999538
0.999355
1
1
1
1
0.999996
0.999417
0.998723
0.996632
1
1
1
1
1
0.999967
1
0.999995
1
1
1
1
1
1
1
0.999812
1
1
1
0.999968
0.999934
1
0.999987
0.999957
1
1
0.999993
0.999974
0.999995
0.99946
0.998104
0.998386
1
1
0.999998
1
0.999477
0.997907
0.999412
0.997896
1
0.999999
1
0.999954
0.999711
0.997838
0.999538
0.997465
1
1
1
1
0.999993
0.99929
0.998411
0.996631
1
1
1
1
0.999999
0.999997
0.999966
0.999938
1
1
1
0.999997
1
1
1
0.999807
1
1
0.999999
0.999978
0.999944
1
0.999646
0.999915
1
1
0.99999
0.999996
0.999997
0.99862
0.998105
0.998104
1
1
0.999999
0.999998
0.999515
0.997822
0.999796
0.999304
1
0.999999
1
0.999976
0.999409
0.998213
0.998894
0.996631
1
1
1
1
0.999999
0.999188
0.998007
0.996631
1
1
1
1
0.999998
0.999998
0.999794
0.999929
1
1
1
0.999996
1
1
1
0.999807
1
1
0.999996
0.999995
0.999994
1
0.999081
0.999912
1
1
0.99999
1
0.999983
0.997856
0.998701
0.998104
1
1
1
0.999964
0.999489
0.997822
0.999849
0.999728
1
1
1
0.999997
0.998918
0.998916
0.996981
0.996632
1
1
1
1
1
0.99909
0.998033
0.996877
0.999999
1
0.999882
0.996999
0.998665
0.999833
0.999999
1
1
0.999995
1
0.998562
0.995331
0.998291
0.999849
1
0.999571
0.999997
0.999863
0.999754
0.999512
0.99897
0.999972
0.999975
0.942569
0.999994
0.999989
0.999708
0.999962
0.999969
0.999978
0.998038
1
0.999999
0.999361
0.998992
0.999918
0.996984
0.999961
0.998038
0.999997
1
0.999889
0.997181
0.998883
0.999796
0.999997
1
1
0.999997
1
0.996652
0.99533
0.998972
0.999848
1
0.99961
0.999999
0.999965
0.999648
0.998352
0.999217
0.999997
0.999998
0.98061
0.999998
0.999969
0.999989
0.999961
0.999962
0.999975
0.999503
0.934387
0.999965
0.999998
0.999999
0.99955
0.999929
0.999985
0.996982
0.933901
0.99997
0.999998
0.999924
0.998745
0.999658
0.99997
0.996984
0.979438
0.999999
0.999999
0.999932
0.999121
0.999874
0.999981
0.999827
0.999997
1
0.999888
0.998796
0.998912
0.9998
0.999997
0.999998
1
1
1
0.995808
0.99533
0.999198
0.999879
0.999996
0.999988
0.999999
0.999999
0.999526
0.995355
0.999368
0.999993
0.999988
0.983298
1
0.999987
0.999999
0.999944
0.999962
0.999978
0.999804
0.948921
0.999998
0.999998
0.999994
0.999929
0.999998
0.999986
0.996982
0.954571
0.999995
0.999999
0.999916
0.999401
0.999989
0.999914
0.996982
0.979007
0.999999
0.999999
0.999838
0.999778
0.999971
0.999975
0.999809
0.999997
1
0.999924
0.999749
0.999034
0.999829
0.999999
0.999997
1
1
1
0.995887
0.995471
0.999265
0.999892
0.99998
1
1
1
0.999545
0.996062
0.999497
0.999725
0.99996
0.969587
1
1
0.999999
0.999956
0.999967
0.999992
0.999789
0.892117
0.999999
0.999999
0.999996
0.999999
0.999998
0.999996
0.996982
0.902646
0.999999
0.999999
0.999956
0.999764
0.999998
0.999805
0.996982
0.954539
0.999999
0.999999
0.999832
0.999951
0.999992
0.999952
0.999829
1
1
0.999976
0.999764
0.999387
0.999858
1
0.999999
1
1
1
0.995672
0.997189
0.999302
0.999886
0.999973
0.999607
1
1
0.99965
0.998876
0.99971
0.999347
0.999926
0.93923
1
1
0.999999
0.999975
0.999979
0.999998
0.999812
0.765472
0.999984
1
0.999999
0.999999
0.999998
0.999998
0.997353
0.762653
0.999766
0.999999
0.999998
0.999554
0.999489
0.999705
0.998123
0.889727
1
0.999999
0.999903
0.99996
0.999963
0.999899
0.999888
1
1
0.999994
0.999644
0.999608
0.999878
1
0.999998
1
1
0.999954
0.995428
0.998174
0.99934
0.99989
0.999979
0.998792
1
1
0.999753
0.999509
0.999927
0.999347
0.999912
0.934724
1
1
0.999999
0.999978
0.999992
0.999998
0.999865
0.746547
0.999962
0.999999
0.999999
0.999999
0.999994
0.999998
0.999174
0.723213
0.999476
0.999999
0.999999
0.999475
0.999043
0.999714
0.999886
0.871067
1
0.999998
0.999998
0.999982
0.999363
0.999867
0.999958
1
1
0.999987
0.999282
0.999596
0.999896
1
0.999981
1
1
0.999337
0.995419
0.998182
0.999428
0.999922
0.999981
0.999017
1
1
0.999163
0.999162
0.999984
0.999347
0.999914
0.951077
1
1
0.999997
0.999975
0.999996
0.999958
0.999849
0.814989
0.999992
1
0.999999
0.999999
0.999989
0.999998
0.999971
0.791898
0.999983
1
0.999999
0.999411
0.999042
0.999783
0.999977
0.900732
1
0.999999
0.999999
0.999969
0.999044
0.999866
0.999977
1
1
0.999944
0.99909
0.999592
0.99991
1
0.999961
1
1
0.997661
0.995418
0.998265
0.999522
0.999964
0.999959
0.999741
1
1
0.996125
0.998497
0.999987
0.999419
0.999923
0.964557
1
1
0.999986
0.999965
0.999996
0.999037
0.999804
0.874103
0.999876
1
0.999999
0.999998
0.999993
0.999838
0.999832
0.868093
0.999963
0.999999
0.999999
0.999272
0.999042
0.999894
0.999976
0.926856
1
0.999999
0.999999
0.9999
0.999042
0.999889
0.999976
1
1
0.99986
0.999223
0.999616
0.999914
0.999999
0.999966
1
1
0.996403
0.995419
0.998526
0.999516
0.999962
0.999933
0.999848
1
0.999986
0.995419
0.998106
0.999917
0.999689
0.999932
0.962179
1
0.999999
0.999958
0.999946
0.999996
0.998335
0.999794
0.855232
0.99979
0.999999
0.999999
0.999996
0.999996
0.99832
0.999515
0.852552
0.999844
0.999999
0.999999
0.99924
0.999042
0.999929
0.999852
0.915524
1
0.999999
0.999999
0.999627
0.999166
0.999929
0.99997
1
1
0.999837
0.999623
0.999675
0.999915
0.999996
0.99999
1
1
0.996581
0.997156
0.998734
0.999438
0.999945
0.999933
0.999355
1
0.999848
0.995453
0.998121
0.999554
0.999767
0.999934
0.950956
1
0.999999
0.999926
0.999912
0.999996
0.999095
0.999811
0.794614
0.99988
0.999999
0.999999
0.999996
0.999995
0.998081
0.999362
0.781635
0.999609
0.999999
0.999999
0.999316
0.999066
0.999409
0.999319
0.880987
1
0.999999
0.999999
0.99907
0.999267
0.99996
0.999955
1
1
0.999864
0.999881
0.999686
0.999923
0.999994
0.999994
1
1
0.998275
0.99887
0.998767
0.999331
0.999935
0.999934
0.998709
1
0.999198
0.995466
0.998337
0.998959
0.999748
0.999934
0.941743
1
0.999999
0.999879
0.999848
0.999996
0.999674
0.999844
0.766578
0.999899
0.999999
0.999999
0.999994
0.999996
0.99808
0.999375
0.738131
0.999087
0.999999
0.999999
0.999315
0.999242
0.998102
0.999301
0.860639
1
0.999999
0.999999
0.998917
0.999264
0.999962
0.999936
1
0.999999
0.999914
0.999887
0.999669
0.999937
0.999995
0.999949
1
0.999987
0.999582
0.998925
0.998767
0.999321
0.99994
0.999959
0.99865
0.999999
0.99751
0.995474
0.998862
0.998823
0.999729
0.999922
0.941805
1
0.999999
0.999759
0.999741
0.999996
0.999647
0.999864
0.776926
0.999282
0.999999
0.999999
0.999986
0.999996
0.998079
0.999441
0.751253
0.998378
0.999999
0.999999
0.999091
0.999306
0.998079
0.999358
0.863463
1
0.999999
0.999999
0.998915
0.999263
0.999944
0.999928
1
0.999997
0.999955
0.999838
0.999684
0.999959
0.999995
0.99976
1
0.999939
0.99968
0.998919
0.998768
0.999367
0.999962
0.999983
0.998655
0.999996
0.9964
0.99548
0.999418
0.998822
0.999739
0.9999
0.942656
0.999996
0.999988
0.999352
0.999673
0.999996
0.999422
0.999878
0.787975
0.998423
0.999999
0.999999
0.99998
0.999991
0.998078
0.999551
0.764654
0.99727
0.999999
0.999999
0.99891
0.999383
0.998078
0.999445
0.863384
0.999998
0.999998
0.999985
0.998909
0.999282
0.999885
0.999926
0.999999
0.999996
0.999968
0.999731
0.999778
0.999983
0.999994
0.999673
1
0.99992
0.999685
0.998979
0.998772
0.999495
0.999984
0.999985
0.998498
0.999992
0.996394
0.997401
0.999551
0.998821
0.999783
0.999923
0.939725
0.999992
0.999883
0.998758
0.999706
0.999434
0.999203
0.999895
0.777052
0.998089
0.999999
0.999999
0.999985
0.999967
0.998078
0.999677
0.749655
0.995498
0.999998
0.999955
0.998909
0.999539
0.998078
0.999547
0.84602
0.999995
0.999997
0.999885
0.998909
0.999379
0.999743
0.999925
0.999999
0.999996
0.999966
0.999702
0.999903
0.999993
0.999988
0.999673
1
0.999931
0.999731
0.99898
0.999214
0.999658
0.999987
0.999925
0.998189
0.999976
0.996395
0.999471
0.999283
0.998821
0.999879
0.999979
0.931476
0.999982
0.999435
0.998742
0.999851
0.998821
0.999223
0.999916
0.752016
0.997715
0.999998
0.999997
0.999998
0.999891
0.998078
0.9998
0.709787
0.993279
0.999996
0.999665
0.999392
0.999701
0.998078
0.999658
0.821446
1
0.999997
0.999639
0.998908
0.999589
0.999535
0.999927
0.999999
0.999995
0.999953
0.999759
0.999973
0.999991
0.999981
0.999682
1
0.999959
0.999815
0.998982
0.999543
0.999767
0.999986
0.999731
0.998219
0.999838
0.998349
0.999891
0.999091
0.999137
0.999969
0.999998
0.929169
0.999914
0.999124
0.999149
0.999981
0.998886
0.999384
0.999943
0.750779
0.996965
0.999995
0.999991
1
0.999626
0.998078
0.999908
0.704387
0.992556
0.999996
0.999335
0.999853
0.999739
0.998077
0.999773
0.820919
1.00001
0.999997
0.999333
0.998909
0.999817
0.99946
0.999937
0.999999
0.999992
0.999948
0.999897
0.999995
0.999988
0.999973
0.999819
1
0.999983
0.999823
0.999301
0.999534
0.999811
0.999978
0.999706
0.998479
0.999766
0.999997
0.999912
0.999091
0.999598
0.999997
0.999998
0.933246
0.999986
0.999385
0.999857
1
0.999576
0.999703
0.999976
0.768399
0.996808
0.999998
0.999992
1
0.99879
0.998428
0.999976
0.730496
0.992975
0.999998
0.999398
0.999977
0.999712
0.998078
0.999883
0.835657
0.999995
0.999997
0.999214
0.999019
0.999953
0.999488
0.999957
1
1
1
1
1
1
1
1
1
1
1
1
1
1
1
1
1
1
1
1
1
1
1
1
1
1
1
1
1
1
1
1
1
1
1
1
1
1
1
1
1
1
1
1
1
1
1
1
1
1
1
1
1
1
1
1
1
1
1
1
1
1
1
1
1
1
1
1
1
1
1
1
1
1
1
1
1
1
1
1
1
1
1
1
1
1
1
1
1
1
1
1
1
1
1
1
1
1
1
1
1
1
1
1
1
1
1
1
1
1
1
1
1
1
1
1
1
1
1
1
1
1
1
1
1
1
1
1
1
1
1
1
1
1
1
1
1
1
1
1
1
1
1
1
1
1
1
1
1
1
1
1
1
1
1
1
1
1
1
1
1
1
1
1
1
1
1
1
1
1
1
1
1
1
1
1
1
1
1
1
1
1
1
1
1
1
1
1
1
1
1
1
1
1
1
1
1
1
1
1
1
1
1
1
1
1
1
1
1
1
1
1
1
1
1
1
1
1
1
1
1
1
1
1
1
1
1
1
1
1
1
1
1
1
1
1
1
1
1
1
1
1
1
1
1
1
1
1
1
1
1
1
1
1
1
1
1
1
1
1
1
1
1
1
1
1
1
1
1
1
1
1
1
1
1
1
1
1
1
1
1
1
1
1
1
1
1
1
1
1
1
1
1
1
1
1
1
1
1
1
1
1
1
1
1
1
1
1
1
1
1
1
1
1
1
1
1
1
1
1
1
1
1
1
1
1
1
1
1
1
1
1
1
1
1
1
1
1
1
1
1
1
1
1
1
1
1
1
1
1
1
1
1
1
1
1
1
1
1
1
1
1
1
1
1
1
1
1
1
1
1
1
1
1
1
1
1
1
1
1
1
1
1
1
1
1
1
1
1
1
1
1
1
1
1
1
1
1
1
1
1
1
1
1
1
1
1
1
1
1
1
1
1
1
1
1
1
1
1
1
1
1
1
1
1
1
1
1
1
1
1
1
1
1
1
1
1
1
1
1
1
1
1
1
1
1
1
1
1
1
1
1
1
1
1
1
1
1
1
1
1
1
1
1
1
1
1
1
1
1
1
1
1
1
1
1
1
1
1
1
1
1
1
1
1
1
1
1
1
1
1
1
1
1
1
1
1
1
1
1
1
1
1
1
1
1
1
1
1
1
1
1
1
1
1
1
1
1
1
1
1
1
1
1
1
1
1
1
1
1
1
1
1
1
1
1
1
1
1
1
1
1
1
1
1
1
1
1
1
1
1
1
1
1
1
1
1
1
1
1
1
1
1
1
1
1
1
1
1
1
1
1
1
1
1
1
1
1
1
1
1
1
1
1
1
1
1
1
1
1
1
1
1
1
1
1
1
1
1
1
1
1
1
1
1
1
1
1
1
1
1
1
1
1
1
1
1
1
1
1
1
1
1
1
1
1
1
1
1
1
1
1
1
1
1
1
1
1
1
1
1
1
1
1
1
1
1
1
1
1
1
1
1
1
1
1
1
1
1
1
1
1
1
1
1
1
1
1
1
1
1
1
1
1
1
1
1
1
1
1
1
1
1
1
1
1
1
1
1
1
1
1
1
1
1
1
1
1
1
1
1
1
1
1
1
1
1
1
1
1
1
1
1
1
1
1
1
1
1
1
1
1
0.999999
0.999998
0.999999
1
1
1
1
1
1
1
1
1
1
1
1
1
1
1
1
1
1
1
1
1
1
1
1
1
1
1
1
1
1
1
1
1
1
1
1
1
1
1
1
1
1
1
1
1
1
1
1
1
1
1
1
0.999999
0.999993
0.999995
0.999999
1
1
1
1
1
1
1
1
1
1
1
1
1
1
1
1
1
1
1
1
1
1
1
1
1
1
1
1
1
1
1
1
1
1
1
1
1
1
1
1
1
1
1
1
1
1
1
1
1
1
1
1
0.999994
0.999989
0.999994
1
1
1
1
1
1
1
1
1
1
1
1
1
1
1
1
1
1
1
1
1
1
1
1
1
1
1
1
1
1
1
1
1
1
1
1
1
1
1
1
1
1
1
1
1
1
1
1
1
1
1
1
0.999999
0.999989
0.99999
0.999997
1
1
1
1
1
1
1
1
1
1
1
1
1
1
1
1
1
1
1
1
1
1
1
1
1
1
1
1
1
1
1
1
1
1
1
1
1
1
1
1
1
1
1
1
1
1
1
1
1
1
1
1
1
1
1
1
1
1
1
1
1
1
1
1
1
1
1
1
1
1
1
1
1
1
1
1
1
1
1
1
1
1
1
1
1
1
1
1
1
1
1
1
1
1
1
1
1
1
1
1
1
1
1
1
1
1
1
1
1
1
1