/*--------------------------------*- C++ -*----------------------------------*\
| =========                 |                                                 |
| \\      /  F ield         | OpenFOAM: The Open Source CFD Toolbox           |
|  \\    /   O peration     | Version:  plus.master.MPPICInterFoam            |
|   \\  /    A nd           | Web:      www.OpenFOAM.com                      |
|    \\/     M anipulation  |                                                 |
\*---------------------------------------------------------------------------*/
FoamFile
{
    version     2.0;
    format      ascii;
    class       volScalarField;
    location    "10.2";
    object      p_rgh;
}
// * * * * * * * * * * * * * * * * * * * * * * * * * * * * * * * * * * * * * //

dimensions      [1 -1 -2 0 0 0 0];

internalField   nonuniform List<scalar> 
11821
(
5639.82
5641.4
5640.14
5395.85
5641.07
5640.32
5658.17
5658.36
5657.8
5656.33
5654.35
5652.42
5650.73
5494.8
5431.55
5445.22
5590.74
5654.96
5654.45
5652.11
4646.77
4044.62
4224.5
5178.57
5592.82
5656.61
5653.48
3732.8
3507.96
3591.42
4307.5
5451.99
5658.35
5654.54
3617.57
3506.58
3509.89
4074.56
5373.2
5657.68
5654.95
3806.94
3516.27
3604.81
4319.68
5432.21
5658.46
5654.83
4864.75
4483.75
4592.22
5173.27
5576.8
5656.88
5654
5662.46
5663.04
5662.46
5661.15
5659.48
5657.72
5656.05
5554.43
5591.47
5550.21
5619.64
5661.64
5659.48
5657.36
5145
4475.19
4792.58
5419.06
5628.28
5661.1
5658.56
4769.46
3453.62
3805.13
4994.11
5570.7
5662.36
5659.49
4491.69
3456.77
3450.67
4631.53
5559.89
5662.79
5659.85
4975.5
3857.09
4049.33
5091.33
5543.46
5662.33
5659.6
5284.38
5104.59
4976.35
5390.91
5613.05
5661.08
5658.74
5657.04
5657.49
5657.67
5657.54
5657.31
5656.95
5656.48
5448.89
5519.63
5447.85
5591.76
5657.39
5657.25
5656.81
4815.73
4139.75
4597.77
5199.9
5599.82
5657.41
5657.05
4716.65
4061.82
3608.34
4810.01
5479.7
5657.51
5657.24
4893.53
4181.52
3512.43
4328.52
5463.61
5657.43
5657.27
4915.88
4449.11
3871.1
4929.26
5403.45
5657.13
5657.1
4808.23
4552.12
4496.46
5065.72
5559.96
5656.94
5656.85
5654.34
5653.95
5654.65
5655.36
5656.15
5656.85
5657.41
5181.78
5226.62
5191.39
5534.96
5653.18
5656.09
5656.95
3835.12
3519.82
3819.25
4705.44
5537.68
5655.33
5656.5
3537.41
4349.44
3421.31
3958.36
5259.27
5654.67
5656.14
4549.13
4669.66
4576.09
3618.57
5157.91
5654.08
5655.89
3771.93
4119.26
3407.8
4011.46
5111.59
5654.29
5655.96
3749.72
3472.4
3565.03
4361.24
5433.69
5654.98
5656.28
5662.62
5661.82
5662.15
5662.27
5662.35
5662.56
5662.82
5109.36
5067.29
5137.36
5537.25
5659.51
5662.32
5662.6
3395.15
3428.54
3457.95
4610.53
5537.26
5662.25
5662.45
3376.87
3836.86
3376.61
3544.2
5216.66
5662.25
5662.34
3560.4
4667.75
4449.02
3454.16
5070.41
5661.7
5662.15
3375.16
3423.29
3364.43
3417.41
5075.47
5662.38
5662.42
3401.09
3386.02
3369.51
4244.21
5418.89
5662.66
5662.67
5673.56
5673.22
5672.89
5672.29
5671.61
5671.03
5670.59
5247.61
5197.52
5276.89
5583.69
5671.22
5671.61
5670.95
3651
3430.41
3741.68
4877.39
5591.35
5672.34
5671.35
3332.57
3322.83
3332.68
3879.83
5354.67
5672.94
5671.66
3332.31
4654.39
3507.99
3640.17
5244.04
5672.98
5671.72
3328.95
3323.86
3322.92
3731.92
5257.21
5673.21
5671.86
3698.81
3496.31
3674.35
4607.95
5499.7
5672.8
5671.75
5680.98
5680.88
5680.52
5679.79
5678.91
5678.05
5677.3
5410.44
5425.68
5418.28
5621.1
5680.01
5678.9
5677.89
4342.26
3670.12
4332.18
5193.93
5636.05
5679.77
5678.46
3504.24
3268.01
3393.42
4565.45
5502.2
5680.41
5678.88
3471.26
3831.55
3268.73
4031.62
5471.94
5680.49
5679.01
3548.99
3269.4
3278.51
4514.59
5435.23
5680.41
5679.01
4446.59
4050.11
4302.9
5010.37
5572.11
5679.88
5678.71
5683.29
5683.42
5683.35
5683.04
5682.63
5682.19
5681.76
5390.11
5446.24
5399.93
5621.29
5683.11
5682.62
5682.09
4387.58
3738.91
4320.88
5163.94
5637.54
5683.02
5682.39
3975.02
3209
3384.17
4569.1
5501.12
5683.34
5682.62
4183.41
3211.49
3206.14
4033.39
5485.22
5683.4
5682.7
4367.2
3212.54
3202.11
4593.96
5425.36
5683.32
5682.68
4455.07
4091.31
4260.39
4917.17
5566.68
5683.01
5682.5
5684.55
5684.87
5685.14
5685.23
5685.32
5685.39
5685.4
5246.9
5346.1
5306.17
5606.76
5685.16
5685.35
5685.4
3892.89
3550.66
3947.98
4995.53
5622.25
5685.36
5685.42
3661.29
3308.57
3191.88
4200.22
5445.09
5685.45
5685.47
4219.65
3869.13
3407.58
3848.37
5413.08
5685.38
5685.46
4271.39
3630.46
3082.98
4203.11
5341.24
5685.3
5685.44
3865.74
3560.84
3737.8
4583.96
5519.36
5685.27
5685.41
5689.23
5689.07
5689.23
5689.37
5689.59
5689.79
5689.96
5115.35
5180.21
5224.2
5593.61
5689.01
5689.61
5689.85
3269.77
3245.74
3558.83
4869.83
5607.2
5689.5
5689.77
3075.13
3819.03
3026.6
3831.43
5388.41
5689.49
5689.72
3468
4225.19
4109.07
3675.97
5327.91
5689.36
5689.67
3080.85
3612.6
3023.66
3697.16
5269.75
5689.4
5689.69
3278.54
3259.91
3241
4436.24
5480.88
5689.52
5689.76
5697.06
5696.77
5696.6
5696.33
5696.16
5696.03
5695.94
5123.7
5146.79
5221.23
5597.52
5696.06
5696.14
5696.01
3282.7
3159.39
3571.34
4881.37
5612.52
5696.34
5696.1
3031.94
3479.27
2975.51
3861.46
5391.17
5696.52
5696.18
3031.75
4208.72
3214.27
3626.25
5331.65
5696.49
5696.17
3033.76
3087.47
2974.56
3711.03
5279.24
5696.53
5696.19
3330.64
3224.47
3302.61
4503.46
5487.43
5696.38
5696.15
5703.82
5703.75
5703.56
5703.15
5702.78
5702.46
5702.2
5144.11
5162.91
5225.16
5603.09
5703.08
5702.78
5702.41
3533.3
3108.45
3729.31
4931.9
5619.22
5703.18
5702.64
2983.28
2924.98
2922.72
4022.03
5400.52
5703.52
5702.82
3269.36
4083.83
2923.41
3637.52
5355.37
5703.53
5702.85
3029.77
2924.52
2922.91
3933.16
5298.81
5703.58
5702.87
3681.57
3290.82
3554.92
4604.27
5496.13
5703.26
5702.74
5707.89
5708.07
5708.15
5708.03
5707.93
5707.83
5707.73
5103.7
5141.22
5207.55
5603.26
5707.91
5707.96
5707.83
3512.6
3057.78
3702.38
4914.05
5620.68
5708.17
5707.94
2900.94
2865.27
2864.69
3996.59
5393.56
5708.38
5708.04
4099.07
3440.17
3031.23
3667.09
5348.31
5708.3
5708.05
3650.61
2865.32
2864.06
3949.96
5287.29
5708.35
5708.07
3700.07
3242.48
3504.18
4549.35
5491.67
5708.15
5707.98
5712.57
5712.69
5712.75
5712.78
5712.86
5712.95
5713.02
4995.29
5063.49
5166.54
5598.94
5712.44
5712.94
5713.01
3214.19
3017.29
3543.64
4842.49
5619.25
5713.02
5713.03
2836.6
2826.6
2809.21
3868.75
5381.77
5713.19
5713.08
3409.27
3757.28
3754.38
3615.08
5320.46
5713.18
5713.08
3511.51
2922.81
2781.67
3792.36
5260.78
5713.11
5713.06
3374.96
3110.73
3215.31
4404.26
5479.75
5712.95
5713.01
5718.85
5718.64
5718.59
5718.51
5718.54
5718.59
5718.63
4960.65
5023.08
5144.41
5599.96
5718.14
5718.59
5718.64
3001
2991.66
3460.4
4804.56
5624.2
5718.66
5718.65
2815.81
3538.85
2756.6
3820.16
5383.86
5718.76
5718.67
2800.8
3758.07
3513.3
3549.27
5320.89
5718.76
5718.66
2789.22
3152.84
2706.03
3680.62
5259.47
5718.7
5718.64
3075.41
3059.04
3072.71
4367.89
5484.39
5718.59
5718.62
5725.81
5725.62
5725.44
5725.09
5724.85
5724.64
5724.47
5002.25
5044.95
5151.08
5609.17
5724.95
5724.85
5724.61
3123.67
2985.22
3542.4
4835.76
5637.82
5725.1
5724.76
2838.99
3228.61
2890.43
3898.99
5405.23
5725.31
5724.86
2745.49
3727.69
2654.31
3580.94
5358.95
5725.32
5724.87
2743.94
2773.03
2653.58
3782.16
5287.38
5725.32
5724.87
3173.03
3046.48
3237.56
4452
5508.22
5725.1
5724.77
5639.91
5639.77
5639.48
5639.61
5639.73
5639.82
5639.85
5639.85
5639.44
5639.38
5639.44
5639.54
5639.65
5639.74
5639.8
5639.84
5639.47
5639.4
5639.45
5639.56
5639.67
5639.76
5639.83
5639.87
5639.77
5639.58
5639.57
5639.64
5639.74
5639.84
5639.92
5639.98
5640
5639.84
5639.78
5639.78
5639.83
5639.91
5640
5640.06
5649.35
5648.42
5647.67
5647.09
5646.68
5646.39
5645.65
5643.95
5650.22
5648.91
5647.96
5647.27
5646.78
5646.44
5646.18
5645.8
5651.11
5649.53
5648.35
5647.5
5646.9
5646.5
5646.24
5646.1
5651.83
5650.03
5648.71
5647.76
5647.1
5646.65
5646.37
5646.24
5652.18
5650.32
5648.97
5648
5647.32
5646.87
5646.6
5646.47
5652.26
5650.48
5649.19
5648.26
5647.61
5647.18
5646.93
5646.83
5651.87
5650.5
5649.39
5648.54
5647.95
5647.55
5647.35
5647.27
5654.72
5653.76
5652.95
5652.32
5651.85
5651.51
5650.61
5648.92
5655.6
5654.29
5653.26
5652.49
5651.93
5651.53
5651.23
5650.82
5656.42
5654.87
5653.65
5652.74
5652.09
5651.63
5651.33
5651.18
5657.09
5655.36
5654.03
5653.04
5652.31
5651.82
5651.5
5651.34
5657.4
5655.66
5654.31
5653.3
5652.57
5652.07
5651.75
5651.6
5657.35
5655.75
5654.51
5653.57
5652.88
5652.4
5652.1
5651.96
5656.79
5655.57
5654.55
5653.73
5653.17
5652.74
5652.52
5652.41
5656.11
5655.82
5655.58
5655.38
5655.22
5655.1
5654.24
5649.53
5656.38
5656
5655.69
5655.44
5655.25
5655.12
5654.99
5654.83
5656.59
5656.16
5655.8
5655.52
5655.31
5655.17
5655.06
5655.01
5656.76
5656.31
5655.93
5655.63
5655.41
5655.26
5655.16
5655.1
5656.82
5656.4
5656.04
5655.74
5655.52
5655.38
5655.29
5655.24
5656.72
5656.4
5656.11
5655.87
5655.68
5655.54
5655.46
5655.42
5656.34
5656.11
5655.88
5655.77
5655.74
5655.65
5655.63
5655.62
5657.79
5658.08
5658.34
5658.54
5658.68
5658.79
5657.86
5650.56
5657.53
5657.94
5658.25
5658.47
5658.64
5658.77
5658.84
5658.88
5657.27
5657.76
5658.13
5658.4
5658.6
5658.76
5658.85
5658.91
5657.07
5657.64
5658.05
5658.36
5658.58
5658.75
5658.87
5658.93
5656.92
5657.55
5658
5658.33
5658.57
5658.76
5658.89
5658.99
5656.91
5657.54
5658.01
5658.34
5658.59
5658.78
5658.92
5659.02
5656.84
5657.33
5657.67
5658.14
5658.52
5658.74
5658.92
5659.03
5662.98
5663.18
5663.37
5663.54
5663.68
5663.79
5662.26
5655.41
5662.83
5663.08
5663.3
5663.49
5663.65
5663.78
5663.87
5663.94
5662.73
5662.99
5663.23
5663.44
5663.62
5663.76
5663.87
5663.96
5662.64
5662.93
5663.19
5663.41
5663.6
5663.75
5663.89
5663.99
5662.56
5662.88
5663.16
5663.39
5663.59
5663.76
5663.91
5664.02
5662.72
5662.98
5663.23
5663.45
5663.64
5663.81
5663.97
5664.08
5662.74
5662.93
5663.05
5663.4
5663.64
5663.83
5664
5664.12
5670.22
5670.03
5669.89
5669.8
5669.76
5669.75
5667.37
5661.12
5670.44
5670.14
5669.95
5669.83
5669.76
5669.73
5669.74
5669.76
5670.69
5670.3
5670.05
5669.88
5669.79
5669.75
5669.75
5669.78
5670.89
5670.44
5670.14
5669.95
5669.84
5669.79
5669.8
5669.85
5670.98
5670.53
5670.22
5670.02
5669.91
5669.87
5669.89
5669.95
5671.14
5670.66
5670.35
5670.16
5670.05
5670.01
5670.04
5670.1
5671.05
5670.66
5670.28
5670.26
5670.17
5670.17
5670.22
5670.28
5676.71
5676.32
5676
5675.77
5675.61
5675.52
5673
5666.77
5677.08
5676.53
5676.12
5675.83
5675.63
5675.5
5675.44
5675.44
5677.45
5676.78
5676.28
5675.92
5675.67
5675.53
5675.46
5675.46
5677.74
5676.99
5676.43
5676.03
5675.76
5675.6
5675.54
5675.54
5677.89
5677.12
5676.56
5676.15
5675.88
5675.72
5675.66
5675.67
5677.97
5677.24
5676.7
5676.32
5676.06
5675.91
5675.86
5675.87
5677.74
5677.15
5676.65
5676.43
5676.2
5676.11
5676.09
5676.11
5681.4
5681.15
5680.95
5680.79
5680.68
5680.61
5678.19
5673.15
5681.63
5681.28
5681.01
5680.81
5680.67
5680.59
5680.56
5680.57
5681.83
5681.42
5681.09
5680.86
5680.7
5680.61
5680.58
5680.61
5682.01
5681.55
5681.2
5680.94
5680.77
5680.67
5680.65
5680.67
5682.1
5681.65
5681.3
5681.04
5680.87
5680.77
5680.75
5680.77
5682.13
5681.72
5681.41
5681.17
5681.01
5680.92
5680.9
5680.9
5681.86
5681.53
5681.34
5681.21
5681.1
5681.06
5681.07
5681.11
5685.36
5685.36
5685.36
5685.37
5685.38
5685.4
5683.38
5680.29
5685.39
5685.37
5685.35
5685.34
5685.35
5685.37
5685.42
5685.47
5685.4
5685.37
5685.34
5685.33
5685.34
5685.38
5685.43
5685.49
5685.44
5685.4
5685.37
5685.36
5685.38
5685.41
5685.47
5685.55
5685.46
5685.43
5685.41
5685.41
5685.43
5685.47
5685.53
5685.6
5685.46
5685.45
5685.47
5685.48
5685.51
5685.56
5685.62
5685.62
5685.24
5685.23
5685.35
5685.45
5685.53
5685.6
5685.69
5685.74
5690.03
5690.13
5690.24
5690.33
5690.42
5690.43
5689.08
5687.26
5689.97
5690.1
5690.21
5690.3
5690.4
5690.49
5690.58
5690.67
5689.93
5690.06
5690.18
5690.28
5690.38
5690.48
5690.58
5690.68
5689.92
5690.05
5690.17
5690.28
5690.39
5690.49
5690.6
5690.7
5689.9
5690.05
5690.18
5690.29
5690.4
5690.51
5690.62
5690.72
5689.91
5690.06
5690.2
5690.33
5690.44
5690.56
5690.67
5690.65
5689.78
5689.88
5690.09
5690.27
5690.42
5690.56
5690.69
5690.47
5695.84
5695.86
5695.9
5695.96
5696.02
5695.9
5695.18
5693.83
5695.9
5695.89
5695.92
5695.96
5696.02
5696.09
5696.17
5696.24
5695.97
5695.93
5695.94
5695.97
5696.02
5696.08
5696.17
5696.25
5696.03
5695.97
5695.96
5695.98
5696.02
5696.08
5696.17
5696.26
5696.04
5695.98
5695.97
5695.99
5696.03
5696.1
5696.19
5696.27
5696.06
5696
5696
5696.03
5696.07
5696.14
5696.23
5696.21
5695.93
5695.85
5695.92
5695.99
5696.07
5696.16
5696.26
5695.59
5701.98
5701.89
5701.84
5701.82
5701.82
5701.43
5701.27
5700.2
5702.12
5701.97
5701.88
5701.84
5701.83
5701.85
5701.9
5701.97
5702.26
5702.06
5701.93
5701.86
5701.83
5701.85
5701.9
5701.97
5702.38
5702.13
5701.98
5701.88
5701.85
5701.85
5701.91
5701.98
5702.43
5702.17
5702
5701.91
5701.87
5701.88
5701.93
5701.99
5702.47
5702.21
5702.05
5701.96
5701.92
5701.93
5701.98
5701.97
5702.29
5702.07
5702
5701.95
5701.94
5701.97
5702.03
5701.17
5707.62
5707.56
5707.52
5707.5
5707.49
5706.89
5707.13
5706.37
5707.68
5707.59
5707.53
5707.49
5707.48
5707.5
5707.55
5707.61
5707.74
5707.62
5707.53
5707.48
5707.46
5707.48
5707.54
5707.61
5707.81
5707.66
5707.56
5707.5
5707.47
5707.49
5707.54
5707.62
5707.83
5707.68
5707.57
5707.51
5707.49
5707.5
5707.56
5707.59
5707.86
5707.71
5707.61
5707.55
5707.53
5707.54
5707.59
5707.54
5707.68
5707.58
5707.55
5707.52
5707.53
5707.56
5707.62
5706.91
5713.03
5713.04
5713.04
5713.05
5713.07
5712.46
5712.88
5712.32
5713
5713.01
5713.01
5713.01
5713.03
5713.07
5713.14
5713.21
5712.99
5712.98
5712.97
5712.98
5713
5713.05
5713.12
5713.2
5713.02
5712.98
5712.96
5712.97
5712.99
5713.04
5713.11
5713.19
5713.02
5712.98
5712.97
5712.97
5712.99
5713.03
5713.11
5713.13
5713.03
5712.99
5712.98
5712.99
5713.01
5713.06
5713.12
5712.85
5712.87
5712.87
5712.91
5712.95
5713
5713.06
5713.13
5712.74
5718.61
5718.62
5718.62
5718.63
5718.66
5718.08
5718.62
5718.04
5718.6
5718.6
5718.6
5718.6
5718.63
5718.67
5718.74
5718.8
5718.6
5718.58
5718.57
5718.57
5718.59
5718.63
5718.7
5718.78
5718.61
5718.57
5718.56
5718.56
5718.58
5718.62
5718.69
5718.76
5718.61
5718.57
5718.56
5718.56
5718.58
5718.62
5718.69
5718.72
5718.62
5718.58
5718.57
5718.58
5718.6
5718.64
5718.71
5718.09
5718.52
5718.5
5718.53
5718.55
5718.6
5718.65
5718.72
5718.26
5724.31
5724.23
5724.19
5724.17
5724.17
5723.66
5724.22
5723.53
5724.41
5724.3
5724.23
5724.18
5724.16
5724.17
5724.21
5724.26
5724.49
5724.34
5724.24
5724.18
5724.15
5724.15
5724.19
5724.24
5724.56
5724.39
5724.26
5724.18
5724.14
5724.14
5724.18
5724.23
5724.59
5724.41
5724.28
5724.2
5724.16
5724.16
5724.19
5724.24
5724.61
5724.43
5724.31
5724.24
5724.2
5724.2
5724.23
5723.41
5724.47
5724.34
5724.27
5724.22
5724.21
5724.22
5724.25
5722.97
5494
5659.83
5657.51
5655.65
5654.27
5653.44
5653.03
5653.23
5097.55
5597.08
5659.28
5656.79
5654.98
5651.78
5653.02
5653.66
4727.72
5486.55
5660.04
5657.36
5655.46
5652.01
5653.24
5653.75
4932.55
5557.71
5659.22
5656.7
5654.87
5652.96
5652.82
5653.15
5401.88
5658.77
5657.16
5654.52
5653.56
5652.39
5644.74
5647.51
5635.52
5656.54
5654.59
5652.93
5651.68
5648.28
5650.84
5651.01
5655.92
5654.32
5652.95
5651.8
5650.4
5649.89
5650.17
5650.16
5499.17
5662.64
5661.85
5660.37
5659.22
5658.46
5658.07
5658.08
5490.45
5580.12
5663.06
5661.32
5659.54
5656.66
5658.22
5658.27
5473.84
5516.69
5662.8
5661.81
5660.23
5656.83
5657.92
5657.38
5415.79
5563.91
5663.07
5661.31
5659.75
5658.42
5657.74
5653.47
5458.55
5660.81
5661.56
5659.83
5658.64
5657.72
5655.7
5656.39
5649.03
5661.28
5659.73
5658.38
5656.86
5653.45
5656.16
5656.07
5660.9
5659.62
5658.33
5657.2
5655.73
5655.31
5655.36
5655.11
5290.82
5654.59
5656.45
5657.16
5657.5
5657.78
5658.01
5658.17
4873.27
5404.98
5655.8
5656.92
5656.75
5655.38
5657.89
5657.69
4679.6
5283.49
5656.51
5657.25
5657.48
5655.38
5657.43
5649.57
4895.12
5380.31
5656.67
5657.23
5657.49
5657.63
5657.34
5646.45
5178.09
5644.25
5656.95
5657.32
5657.47
5656.58
5657.51
5656.84
5630.63
5657.1
5657.35
5657.38
5656
5655.69
5657.28
5656.44
5657.39
5657.62
5657.51
5657.36
5656.69
5656.89
5656.8
5655.65
4932.27
5653.2
5655.26
5656.68
5657.63
5658.44
5659.07
5659.49
3713.93
5107.9
5654.12
5655.95
5656.32
5656.41
5657.86
5657.75
3502.03
4763.68
5653.23
5655.32
5656.16
5655.96
5658.43
5647.15
3741.41
5005.14
5654.13
5655.78
5656.99
5657.95
5657.67
5647.27
4624.12
5612.18
5655.28
5656.59
5657.57
5655.32
5658.67
5658.06
5577.55
5655.26
5656.5
5657.43
5656.53
5657.2
5657.76
5649.49
5655.69
5656.76
5657.5
5658.13
5658.29
5658.8
5658.21
5655.94
4875.32
5663.4
5663.71
5663.87
5664.04
5664.37
5664.83
5665.3
3468.26
5081.38
5664.09
5663.86
5663.1
5664.07
5661.2
5660.76
3419.93
4649.86
5663.1
5663.15
5662.56
5663.69
5664.6
5652.89
3390.4
4929.56
5663.48
5663.32
5663.54
5664.06
5662.98
5653.51
4521.56
5607.54
5663.28
5663.38
5663.71
5661.03
5664.36
5663.82
5561.02
5662.85
5663.09
5663.44
5662.15
5662.26
5656.81
5650.65
5662.74
5662.99
5663.3
5663.64
5663.82
5664.03
5662.26
5659.75
5040.64
5672.65
5673.48
5672.87
5672.38
5672.2
5672.41
5672.82
3935.94
5269.47
5674.71
5673.51
5672.06
5672.78
5667.77
5666.97
3637.19
4936.98
5674.76
5673.5
5672.42
5672.76
5672.96
5660.69
3745.94
5142.47
5674.62
5673.44
5672.78
5672.66
5670.77
5668.8
4797.66
5630.99
5673.5
5672.74
5672.34
5669.18
5669.45
5671.39
5589.17
5672.77
5672.37
5671.99
5670.19
5668.63
5657.4
5657.46
5672.59
5672.13
5671.83
5671.58
5671.32
5671.07
5668.2
5666.31
5189.87
5674.8
5680.66
5679.8
5679.04
5678.6
5678.71
5678.99
4916.89
5380.1
5681.36
5680.65
5679.74
5679.41
5674
5673.97
4647.75
5231.03
5677.89
5681.04
5680.13
5679.62
5679.41
5666.31
4716.77
5335.56
5681.68
5680.84
5679.9
5679.44
5677.39
5679.03
5099.25
5646.2
5680.78
5679.86
5679.19
5675.84
5664.55
5676.51
5617.85
5680.05
5679.54
5678.9
5677.03
5672.85
5663.1
5663.23
5680.05
5679.41
5678.81
5678.28
5677.79
5677.24
5673.91
5672.49
5091.46
5672.41
5682.69
5682.67
5682.49
5682.33
5682.65
5682.91
4860.62
5246.66
5682.45
5682.96
5682.87
5682.86
5678.04
5679.7
4773.77
5096.32
5678.13
5683.21
5683.05
5682.96
5681.48
5669.38
4789.88
5230.61
5682.33
5683.15
5682.97
5682.87
5681.49
5682.64
4989.86
5636.59
5682.98
5682.84
5682.67
5679.33
5667.21
5670.55
5612.21
5682.57
5682.69
5682.51
5681.15
5675.88
5666.92
5667.06
5682.96
5682.83
5682.58
5682.33
5682.04
5681.65
5678.21
5677.82
4835.04
5673.13
5684.71
5685.31
5685.56
5685.67
5686.22
5686.48
3899.6
4979.31
5683.87
5684.77
5685.34
5685.74
5682.9
5684.79
3691.09
4692.4
5681.3
5684.38
5685.02
5685.49
5677.42
5672.04
4030.25
4917.91
5683.63
5684.57
5685.09
5685.49
5685
5685.71
4594.05
5604.9
5684.34
5684.91
5685.3
5681.86
5670.09
5670.38
5574.96
5683.88
5684.9
5685.25
5684.35
5679.31
5670.16
5670.38
5684.81
5685.23
5685.42
5685.56
5685.58
5685.44
5682.19
5683.68
4751.19
5677.77
5689.55
5689.99
5690.15
5690.29
5690.88
5691.18
3220.37
4928.19
5689.47
5689.79
5690.14
5690.47
5688.26
5690.51
3195.83
4537.38
5687.39
5689.36
5689.81
5690.23
5676.79
5676.54
3163.87
4776.99
5689.23
5689.52
5689.83
5690.24
5690.07
5690.7
4384.38
5577.06
5689.34
5689.7
5690.04
5686.24
5674.66
5674.88
5540.1
5687.91
5689.59
5689.87
5689.03
5684.42
5674.61
5676.6
5689.39
5689.69
5689.95
5690.15
5690.36
5688.73
5687.92
5690.39
4802.81
5681.41
5696.77
5696.67
5696.38
5696.33
5696.78
5697.1
3436.9
5016.28
5697.56
5697.06
5696.86
5696.72
5694.04
5697.04
3273.75
4673.98
5689.9
5697.2
5696.92
5696.91
5683.13
5690.53
3274
4855.25
5697.82
5697.15
5696.81
5696.87
5696.61
5697.34
4454.79
5577.13
5697.12
5696.81
5696.59
5692.46
5685.16
5680.81
5541.38
5694.81
5696.6
5695.99
5695.28
5690.34
5687.48
5690.14
5696.62
5696.47
5696.44
5696.33
5696.47
5690.7
5695.04
5696.84
4828.2
5674.58
5703.26
5702.91
5702.38
5702.17
5702.58
5702.92
4283.74
5065.15
5696.81
5703.51
5703.09
5701.49
5698.63
5703
4136.08
4829.2
5675.93
5703.79
5703.32
5703.13
5698.81
5703.16
3929.87
4954.35
5699.62
5703.67
5703.18
5703.06
5702.81
5703.32
4560.35
5577.04
5703.61
5703.19
5702.37
5699.13
5696.83
5686.42
5544.44
5700.78
5702.99
5701.62
5701.45
5696.22
5701.78
5696.02
5703.2
5702.94
5702.77
5702.47
5702.51
5696.14
5701.68
5702.69
4724.77
5659.34
5707.27
5707.38
5707
5706.81
5707.62
5708.04
4415.41
4899.56
5695.7
5707.49
5707.58
5703.71
5703.34
5707.93
4291.6
4663.4
5667.35
5707.48
5707.6
5707.72
5707.94
5708.18
4032.83
4848.15
5698.58
5707.56
5707.6
5707.75
5707.66
5708.17
4463.63
5551.11
5707.38
5707.54
5706.74
5705.82
5702.52
5691.09
5530.33
5703.85
5707.49
5706.38
5706.77
5703.85
5706.85
5700.51
5707.66
5707.76
5707.76
5707.6
5707.74
5703.18
5707.54
5707.88
4537.95
5657.61
5712.21
5712.5
5711.9
5712.02
5712.99
5713.4
3637.52
4625.33
5705.55
5712.14
5712.48
5708.15
5708.36
5713.14
3397.75
4269.46
5667.38
5711.76
5712.16
5712.49
5712.52
5713.14
3487.31
4546.03
5703.58
5712.02
5712.29
5712.57
5712.57
5713.16
4183.38
5495.03
5712
5712.26
5711.79
5712
5707.16
5698.68
5494.19
5706.93
5712.32
5711.31
5712.49
5712.84
5712.03
5707.37
5712.45
5712.66
5712.75
5712.75
5712.92
5712.81
5713.1
5712.68
4520.17
5666.11
5718.63
5718.67
5717.6
5717.91
5718.85
5719.19
2987.38
4620.84
5716.01
5718.72
5718.7
5714.8
5715.13
5719.18
2839.99
4220.17
5668.23
5718.61
5718.54
5718.64
5718.17
5719.17
2908.95
4460.04
5710.98
5718.6
5718.55
5717.8
5718.46
5719.15
4096.99
5468.39
5718.58
5718.45
5718.41
5718.31
5712.8
5717.45
5484.8
5711.97
5718.45
5718.3
5718.59
5718.7
5718.44
5717.06
5718.58
5718.62
5718.64
5718.65
5718.67
5718.62
5718.82
5717.73
4606.26
5674.8
5725.52
5725.07
5723.72
5723.83
5724.63
5724.89
3318.2
4797.13
5716.14
5725.57
5725.13
5721.16
5722.51
5725.14
3307.22
4462.65
5660.45
5725.7
5725.23
5721.51
5724.43
5725.25
3126.38
4590.63
5712.88
5725.56
5725.16
5721.36
5724.62
5723.88
4213.53
5480.89
5725.55
5725.06
5724.93
5724.74
5718.7
5723.91
5496.95
5718.47
5725.02
5724.83
5724.7
5724.47
5724.05
5723.75
5725.24
5725.02
5724.86
5724.72
5724.5
5723.25
5723.74
5723.24
5655.32
5653.47
5651.96
5650.81
5650.01
5649.52
5649.29
5649.22
5655.16
5652.93
5651.3
5650.14
5649.33
5648.81
5648.53
5648.44
5654.5
5652.31
5650.69
5649.51
5648.69
5648.12
5647.63
5642.19
5653.41
5651.43
5649.94
5648.86
5648.07
5647.48
5642.26
5641.34
5652
5650.35
5649.1
5648.2
5647.51
5646.84
5640.52
5639.5
5650.62
5649.33
5648.32
5647.57
5647.05
5646.2
5640.18
5644.28
5649.5
5648.61
5647.85
5647.27
5646.85
5646.56
5644.86
5634.52
5660.05
5658.49
5657.19
5656.15
5655.37
5654.84
5654.54
5654.4
5660.37
5658.39
5656.84
5655.66
5654.78
5654.17
5653.81
5653.66
5659.8
5657.81
5656.23
5655.02
5654.11
5653.45
5653.07
5650.8
5658.74
5656.89
5655.42
5654.28
5653.36
5652.52
5645.22
5650.13
5657.44
5655.84
5654.56
5653.57
5652.82
5651.56
5644.72
5644.66
5656.1
5654.81
5653.75
5652.94
5652.35
5651.01
5645.13
5641.49
5654.92
5653.97
5653.14
5652.5
5652.02
5651.69
5646.43
5639.25
5656.88
5656.89
5656.91
5656.87
5656.8
5656.76
5656.75
5656.75
5657.45
5657.32
5657.12
5656.89
5656.69
5656.54
5656.45
5656.43
5657.52
5657.23
5656.91
5656.6
5656.36
5656.16
5654.97
5656.06
5657.3
5656.95
5656.59
5656.28
5655.93
5654.66
5648.29
5653.02
5656.99
5656.62
5656.27
5655.94
5655.76
5654.34
5648.02
5651.33
5656.61
5656.26
5655.96
5655.72
5655.54
5653.71
5650.29
5644.01
5656.27
5655.98
5655.73
5655.53
5655.37
5655.2
5649.77
5643.84
5655.56
5656.56
5657.43
5658.08
5658.59
5658.96
5659.23
5659.41
5655.8
5656.98
5657.8
5658.35
5658.73
5659.02
5659.23
5659.37
5656.22
5657.2
5657.88
5658.36
5658.66
5658.94
5653.78
5659.29
5656.64
5657.43
5658
5658.4
5658.59
5655.89
5651.39
5654.45
5657.08
5657.7
5658.15
5658.42
5658.71
5657.32
5651.34
5657.9
5657.48
5657.93
5658.29
5658.55
5658.71
5656.3
5655.39
5647.87
5657.87
5658.17
5658.42
5658.61
5658.75
5658.7
5654.75
5651.5
5662.51
5662.8
5663.15
5663.49
5663.8
5664.09
5664.36
5664.56
5662.31
5662.76
5663.16
5663.49
5663.77
5664.03
5664.25
5664.43
5662.41
5662.77
5663.12
5663.43
5663.6
5663.84
5659.79
5664.26
5662.54
5662.86
5663.17
5663.42
5663.52
5660.02
5661.13
5659.12
5662.66
5662.96
5663.22
5663.39
5663.64
5661.57
5656.08
5663.13
5662.8
5663.06
5663.31
5663.52
5663.58
5661.13
5660.76
5653.4
5663
5663.22
5663.41
5663.58
5663.71
5663.5
5659.94
5657.15
5672.35
5671.73
5671.31
5671.05
5670.94
5670.95
5671.05
5671.17
5672.1
5671.44
5671.03
5670.79
5670.67
5670.65
5670.71
5670.8
5671.78
5671.15
5670.77
5670.51
5670.31
5669.72
5670.11
5669.71
5671.39
5670.87
5670.52
5670.24
5669.97
5666.09
5669.77
5665.02
5670.94
5670.55
5670.25
5670.03
5669.96
5665.7
5663.33
5669.03
5670.53
5670.25
5670.06
5669.93
5669.62
5667.5
5666.45
5658.95
5670.25
5670.08
5669.94
5669.84
5669.79
5669.35
5661.57
5662.81
5679.57
5678.71
5678.05
5677.59
5677.28
5677.13
5677.11
5677.16
5679.5
5678.5
5677.8
5677.28
5676.94
5676.75
5676.68
5676.7
5679.09
5678.13
5677.42
5676.89
5676.49
5674.91
5676.27
5673.54
5678.55
5677.69
5677.05
5676.41
5676
5673.97
5675.08
5671.37
5677.91
5677.2
5676.62
5676.21
5675.95
5670.55
5672.32
5674.89
5677.28
5676.74
5676.32
5676
5675.36
5673.94
5669.44
5664.31
5676.78
5676.4
5676.08
5675.83
5675.67
5675.07
5662.61
5663.04
5682.48
5682.2
5682
5681.86
5681.75
5681.71
5681.72
5681.78
5682.82
5682.4
5682.07
5681.8
5681.6
5681.49
5681.45
5681.48
5682.71
5682.23
5681.85
5681.53
5681.28
5679.7
5681.15
5678.13
5682.44
5681.99
5681.62
5681.07
5680.8
5680.39
5677.93
5679.47
5682.12
5681.71
5681.34
5681.08
5680.84
5675.43
5678.09
5679.91
5681.77
5681.44
5681.17
5680.96
5680.3
5679.28
5668.15
5670.93
5681.48
5681.23
5681.02
5680.85
5680.74
5679.91
5667.34
5667.35
5684.61
5684.88
5685.19
5685.42
5685.59
5685.71
5685.84
5685.96
5685.14
5685.36
5685.52
5685.6
5685.65
5685.71
5685.79
5685.88
5685.33
5685.43
5685.49
5685.5
5685.53
5684.54
5685.68
5682.63
5685.37
5685.43
5685.46
5685.21
5685.09
5685.2
5681.62
5684.56
5685.39
5685.41
5685.38
5685.41
5685.07
5679.92
5681.6
5679.71
5685.41
5685.4
5685.4
5685.41
5684.9
5683.92
5671.92
5678.47
5685.42
5685.41
5685.41
5685.41
5685.42
5684.32
5671.87
5671.91
5689.29
5689.55
5689.86
5690.12
5690.35
5690.4
5690.6
5690.88
5689.49
5689.82
5690.08
5690.26
5690.43
5690.58
5690.72
5690.86
5689.62
5689.88
5690.08
5690.22
5690.37
5690.52
5690.68
5687.59
5689.71
5689.93
5690.12
5690.02
5689.99
5690.34
5687.59
5689.62
5689.83
5690
5690.11
5690.29
5689
5684.96
5683.46
5680.52
5689.94
5690.07
5690.19
5690.32
5689.88
5688.79
5676.75
5686.13
5690.05
5690.16
5690.26
5690.36
5690.45
5689.27
5677.31
5676.75
5696.43
5696.25
5696.19
5696.2
5696.27
5695.84
5696.25
5696.64
5696.41
5696.26
5696.2
5696.2
5696.24
5696.32
5696.43
5696.56
5696.29
5696.16
5696.11
5696.05
5696.01
5696.24
5696.35
5693.43
5696.16
5696.07
5696.04
5695.86
5695.72
5695.99
5694.66
5695.32
5696.03
5695.98
5695.96
5696.01
5693.04
5692.42
5685.95
5685.89
5695.92
5695.91
5695.94
5695.98
5695.53
5693.44
5684.7
5693.59
5695.86
5695.88
5695.92
5695.98
5696.05
5694.58
5687.06
5682.01
5703.01
5702.65
5702.43
5702.31
5702.27
5701.61
5702.15
5702.47
5703.08
5702.67
5702.41
5702.27
5702.2
5702.2
5702.25
5702.3
5702.91
5702.53
5702.29
5702.02
5701.79
5702.07
5702.14
5700.8
5702.67
5702.36
5702.16
5701.88
5701.68
5701.69
5699.32
5701.2
5702.42
5702.19
5702.04
5701.95
5698.69
5700.04
5691.33
5691.39
5702.18
5702.03
5701.93
5701.79
5701.37
5693.83
5699.13
5699.76
5702
5701.92
5701.86
5701.84
5701.85
5699.86
5696.26
5687.33
5707.58
5707.53
5707.54
5707.57
5707.61
5707.15
5707.71
5707.86
5707.87
5707.75
5707.67
5707.64
5707.63
5707.65
5707.72
5707.32
5707.91
5707.75
5707.65
5707.43
5707.26
5707.57
5707.64
5707.52
5707.84
5707.7
5707.6
5707.38
5707.37
5706.77
5699.47
5705.99
5707.77
5707.65
5707.56
5707.52
5704.35
5704.29
5698.48
5696.76
5707.69
5707.6
5707.54
5707.27
5706.76
5697.67
5705.45
5704.67
5707.64
5707.59
5707.54
5707.51
5707.49
5704.86
5701.73
5692.26
5712.47
5712.55
5712.69
5712.8
5712.9
5712.86
5713.13
5713.21
5712.73
5712.78
5712.85
5712.9
5712.96
5713.03
5713.12
5712.34
5712.78
5712.82
5712.85
5712.75
5712.63
5713
5713.04
5712.99
5712.82
5712.85
5712.85
5712.79
5712.92
5710.48
5704.24
5705.64
5712.88
5712.91
5712.93
5712.96
5710.55
5703.28
5710.39
5703.39
5712.96
5712.97
5712.98
5712.78
5711.66
5702.96
5710.96
5701.36
5713.04
5713.05
5713.05
5713.06
5713.05
5709.8
5705.75
5697.52
5718.63
5718.57
5718.56
5718.58
5718.62
5718.69
5718.65
5718.61
5718.61
5718.57
5718.57
5718.57
5718.62
5718.68
5718.77
5717.95
5718.55
5718.53
5718.53
5718.44
5718.32
5718.64
5717.04
5718.42
5718.52
5718.52
5718.49
5718.53
5718.58
5712.06
5709.69
5709.77
5718.54
5718.55
5718.56
5718.57
5716.3
5708.33
5717.78
5715.51
5718.58
5718.59
5718.6
5718.49
5715.81
5710.15
5713.46
5702.78
5718.63
5718.63
5718.64
5718.65
5718.68
5714.86
5709.28
5702.8
5725.2
5724.85
5724.63
5724.5
5724.43
5724.44
5723.51
5724.23
5725.12
5724.77
5724.56
5724.42
5724.38
5724.38
5724.43
5723.56
5724.96
5724.67
5724.45
5724.33
5724.27
5724.3
5719.89
5723.99
5724.78
5724.55
5724.35
5724.31
5724.18
5713.85
5718
5715.16
5724.61
5724.44
5724.32
5724.08
5721.75
5713.7
5723.56
5723.03
5724.46
5724.35
5724.27
5724.21
5718.95
5718.95
5709.58
5707.94
5724.34
5724.26
5724.22
5724.2
5724.21
5719.81
5714.71
5709.15
5640
5640.01
5639.65
5630.19
5635.69
5639.61
5640.26
5640.36
5640.31
5640.07
5639.96
5635.19
5624.69
5634.54
5639.86
5640.51
5639.9
5640.52
5639.79
5639.36
5638.65
5637.03
5640.56
5640.77
5453.78
5641.57
5640.76
5639.6
5640.45
5640.61
5640.9
5634.77
5641.29
5640.88
5638.72
5637.64
5641.02
5631.67
5641.47
5635.43
5652.39
5651.22
5649.78
5639.72
5644.8
5647.47
5647.94
5647.9
5654.6
5652.8
5651.33
5638.8
5633.54
5645.35
5648.09
5648.54
5656.11
5655.03
5652.95
5650.38
5644.93
5647.18
5649.5
5649.43
5595.18
5657.55
5654.98
5653.15
5651.7
5650.81
5650.44
5648.76
5441.4
5659.47
5656.56
5654.44
5651.39
5651.72
5651.46
5641.21
5441.03
5660.3
5657.23
5654.83
5649.38
5651.53
5652.15
5641.98
5594.17
5660.14
5657.52
5655.29
5651.1
5652.79
5652.83
5652.31
5657.56
5656.48
5655.04
5650.36
5650.08
5652.72
5653.14
5653.07
5659.42
5657.94
5656.63
5640.89
5638.43
5651.33
5653.4
5653.7
5661.49
5659.84
5658.23
5655.22
5639.67
5652.9
5654.68
5654.52
5604.9
5661.76
5659.86
5658.3
5656.85
5656.03
5655.59
5654.82
5485.91
5663.17
5661.19
5659.45
5657.85
5657.14
5656.57
5645.91
5506.42
5663.67
5661.69
5659.72
5656.63
5657.81
5657.07
5646.69
5591.36
5663.27
5661.59
5659.51
5658.17
5658.11
5657.76
5657.08
5656.86
5656.72
5656.2
5655.38
5652.65
5655.4
5655.96
5655.96
5656.95
5656.87
5656.74
5641.79
5640.18
5653.65
5655.87
5656.21
5656.75
5656.99
5657
5655.26
5642.68
5654.86
5655.64
5656.54
5545.74
5656.7
5657.07
5657.12
5656.91
5656.89
5656.98