/*--------------------------------*- C++ -*----------------------------------*\
| =========                 |                                                 |
| \\      /  F ield         | OpenFOAM: The Open Source CFD Toolbox           |
|  \\    /   O peration     | Version:  plus.master.MPPICInterFoam            |
|   \\  /    A nd           | Web:      www.OpenFOAM.com                      |
|    \\/     M anipulation  |                                                 |
\*---------------------------------------------------------------------------*/
FoamFile
{
    version     2.0;
    format      ascii;
    class       volScalarField;
    location    "8";
    object      rho;
}
// * * * * * * * * * * * * * * * * * * * * * * * * * * * * * * * * * * * * * //

dimensions      [1 -3 0 0 0 0 0];

internalField   nonuniform List<scalar> 
11821
(
999.822
989.341
999.913
994.744
999.587
999.996
999.97
996.11
988.908
991.975
999.985
999.953
999.999
982.661
959.988
972.906
963.69
970.349
999.216
999.994
959.214
908.416
892.995
836.119
921.148
984.216
999.999
960.913
881.151
617.012
532.766
838.769
982.579
999.998
959.699
887.316
881.323
809.063
925.29
984.025
999.999
983.561
962.033
975.507
964.578
969.556
999.776
999.992
999.993
998.902
989.653
994.423
999.991
999.959
999.999
1000
985.338
971.326
975.435
999.514
1000
1000
950.773
875.281
863.645
891.047
893.502
995.795
1000
885.301
655.872
807.049
674.578
844.717
952.478
1000
787.738
818.906
785.83
771.841
641.906
951.793
1000
886.079
673.349
738.842
666.927
852.081
952.439
1000
956
873.582
908.036
889.803
893.77
997.161
1000
1000
991.898
972.248
982.514
999.999
1000
1000
997.349
936.344
894.311
910.129
986.679
1000
1000
843.36
599.023
521.028
596.272
700.851
974.729
1000
634.465
373.263
398.768
372.545
551.167
850.108
1000
469.225
443.8
780.161
664.66
382.303
813.961
1000
639.341
376.198
372.16
372.226
563.024
856.596
1000
862.739
599.226
601.575
596.312
716.541
979.822
1000
999.16
954.461
908.941
931.116
992.207
1000
1000
993.591
907.613
844.585
871.583
974.727
1000
1000
781.809
439.818
376.7
392.572
623.732
958.891
1000
486.672
370.619
371.338
370.693
373.998
802.38
1000.01
388.262
370.946
777.496
400.928
378.886
733.722
1000.02
498.862
369.614
370.092
369.725
373.553
814.413
1000.02
811.526
462.467
380.049
412.837
653.076
967.341
1000
997.333
932.486
874.048
901.247
983.54
1000
1000
994.721
932.113
879.815
902.807
981.217
999.878
1000
817.197
502.252
436.85
454.681
690.496
967.879
1000
549.267
370.285
370.681
370.293
427.184
847.944
1000.01
472.062
369.77
520.186
369.799
389.097
788.2
1000.01
561.163
369.742
369.77
369.811
432.086
858.183
1000.01
845.173
531.521
449.693
481.873
721.175
974.646
1000
997.869
954.022
907.479
929.513
988.483
999.959
1000
998.067
977.602
950.632
962.827
994.533
999.881
999.999
906.176
689.443
648.544
657.105
831.177
984.681
1000
737.199
409.465
392.18
396.444
626.39
929.75
999.991
681.997
397.675
374.547
464.447
566.031
896.214
999.975
746.555
402.484
371.945
379.062
629.251
933.812
1000
925.505
724.094
671.192
691.689
856.675
987.018
1000
999.296
989.865
968.38
978.572
997.474
999.957
999.999
999.9
992.348
975.388
981.718
998.602
999.992
999.999
946.207
781.878
748.119
752.374
877.424
987.522
1000
837.284
510.017
520.566
517.512
707.583
951.408
1000
781.853
526.342
382.017
651.103
672.866
927.765
1000
847.593
497.734
457.581
469.404
708.575
951.656
1000
961.132
826.716
788.126
795.993
900.692
988.188
1000
1000
999.92
987.899
992.347
999.999
1000
1000
1000
989.57
970.665
975.269
994.828
1000
1000
940.748
765.868
717.222
724.393
859.937
978.33
1000
824.895
494.379
530.587
486.65
651.41
937.394
1000
766.11
541.704
385.597
636.659
584.138
907.75
1000
839.869
491.404
493.83
471.627
662.103
937.427
1000
957.709
817.906
772.579
774.976
883.398
980.177
1000
1000
999.187
984.573
987.134
999.015
1000
1000
999.201
973.63
943.336
944.217
977.216
999.784
1000
914.272
707.097
636.982
648.739
803.309
945.014
1000
762.184
408.394
420.511
360.918
517.008
877.329
999.325
698.279
449.738
434.958
319.584
389.621
833.906
996.368
787.785
427.861
440.851
400.832
551.352
878.436
1000
938.775
767.879
710.163
702.961
819.335
956.189
1000
1000
990.138
965.751
964.181
990.443
1000
1000
996.7
945.402
895.181
888.123
943.019
998.806
1000
872.891
644.495
601.425
599.73
709.04
891.045
1000
687.357
347.391
298.058
287.663
474.14
762.967
993.912
619.053
312.651
432.731
268.911
349.368
717.832
982.783
713.779
382.435
330.728
309.654
497.595
771.959
997.629
909.277
686.967
641.164
627.629
704.724
924.39
1000
1000
972.705
934.082
928.056
974.279
1000
1000
992.818
907.866
834.359
815.745
902.228
997.218
1000
818.114
569.342
578.686
547.684
553.443
837.413
999.999
607.69
328.435
302.508
285.638
469.475
621.152
984.305
543.871
270.46
430.964
265.8
404.991
579.853
964.038
634.081
365.103
270.698
288.77
463.258
653.154
992.882
877.583
578.675
551.973
535.641
562.587
899.629
1000
999.792
954.517
896.982
888.029
956.952
999.931
1000
989.108
868.088
772.568
756.761
880.255
995.679
1000
762.374
441.206
478.293
420.02
412.619
814.766
1000.01
511.984
288.49
290.432
278.268
385.282
547.762
979.648
462.509
267.994
336.567
263.787
409.522
501.581
955.863
557.956
312.501
261.256
286.36
355.686
602.101
991.716
861.689
484.753
404.276
400.49
493.455
895.216
1000
999.189
946.026
870.694
861.864
948.404
999.884
1000
988.906
863.251
754.034
753.033
892.838
995.019
999.988
761.663
369.375
314.331
302.994
406.897
836.671
1000
491.537
261.71
257.617
260.521
268.307
557.64
984.631
443.932
260.103
255.38
260.312
311.184
505.336
963.815
550.331
261.693
258.624
265.939
267.869
625.839
995.931
878.448
493.466
355.408
358.349
521.886
916.055
999.996
997.806
952.667
876.134
867.689
954.105
999.624
1000
989.777
908.506
793.244
806.27
949.719
992.799
999.795
829.297
418.062
308.942
315.42
510.477
923.186
999.993
560
261.058
259.595
259.438
260.528
657.268
997.046
495.305
259.091
255.808
259.059
259.072
574.99
987.064
632.703
259.534
259.418
259.074
282.084
767.055
999.944
940.346
636.246
430.432
413.868
695.927
956.505
1000
996.073
974.722
922.841
912.991
971.183
998.691
1000
982.632
967.267
893.031
902.426
973.169
987.82
999.811
948.096
624.053
425.227
427.398
763.668
967.407
999.998
739.035
301.74
288.006
258.255
294.202
850.939
999.985
674.586
258.668
258.76
258.192
257.565
759.478
999.856
838.017
341.376
270.492
257.932
429.777
925.119
999.993
957.536
852.357
667.922
602.105
878.708
961.366
999.997
995.232
981.576
969.135
961.807
980.491
998.314
1000
967.369
930.918
934.747
917.42
933.513
986.753
999.972
918.95
844.633
624.24
606.719
889.809
930.493
999.697
876.101
372.669
387.685
340.445
511.944
934.644
999.997
862.408
282.672
257.458
379.93
398.22
929.173
999.999
929.626
610.876
411.727
262.005
727.753
905.431
999.925
913.171
849.025
852.783
799.124
839.117
951.673
1000
995.858
977.316
968.569
966.426
984.606
999.34
999.998
1000
1000
1000
1000
1000
1000
1000
1000
999.986
1000
1000
1000
1000
1000
1000
1000
999.995
1000
1000
1000
1000
1000
1000
1000
999.999
1000
1000
1000
1000
1000
1000
1000
1000
1000
1000
1000
1000
1000
999.996
999.999
999.996
999.934
999.912
999.929
999.932
999.848
999.532
999.999
1000
1000
1000
1000
1000
1000
1000
999.999
1000
1000
1000
1000
1000
1000
1000
1000
999.999
1000
1000
1000
1000
1000
1000
1000
1000
1000
1000
1000
1000
1000
1000
1000
1000
1000
1000
1000
1000
1000
1000
1000
1000
1000
1000
1000
1000
1000
999.999
999.997
999.999
999.944
999.912
999.956
999.971
999.831
999.664
999.991
1000
1000
1000
1000
1000
1000
1000
999.997
1000
1000
1000
1000
1000
1000
1000
1000
1000
1000
1000
1000
1000
1000
1000
1000
1000
1000
1000
1000
1000
1000
1000
1000
1000
1000
1000
1000
1000
1000
1000
1000
1000
1000
1000
1000
1000
1000
1000
1000
1000
999.957
999.912
999.98
999.972
999.698
999.839
999.411
1000
1000
1000
1000
1000
1000
1000
999.999
1000
1000
1000
1000
1000
1000
1000
1000
1000
1000
1000
1000
1000
1000
1000
1000
1000
1000
1000
1000
1000
1000
1000
1000
1000
1000
1000
1000
1000
1000
1000
1000
1000
1000
1000
1000
1000
999.994
1000
1000
1000
999.96
999.923
999.994
999.968
999.471
999.867
998.584
1000
1000
1000
1000
1000
1000
1000
1000
1000
1000
1000
1000
1000
1000
1000
1000
1000
1000
1000
1000
1000
1000
1000
1000
1000
1000
1000
1000
1000
1000
1000
1000
1000
1000
1000
1000
1000
1000
1000
1000
1000
1000
1000
1000
1000
999.988
1000
1000
1000
999.95
999.969
1000
999.958
999.406
999.862
998.434
1000
1000
1000
1000
1000
1000
999.999
1000
1000
1000
1000
1000
1000
1000
1000
1000
1000
1000
1000
1000
1000
1000
1000
1000
1000
1000
1000
1000
1000
1000
1000
1000
1000
1000
1000
1000
1000
1000
1000
1000
1000
1000
1000
1000
1000
999.989
1000
1000
999.998
999.949
999.992
1000
999.93
999.468
999.863
998.643
1000
1000
1000
1000
1000
1000
999.999
1000
1000
1000
1000
1000
1000
1000
1000
1000
1000
1000
1000
1000
1000
1000
1000
1000
1000
1000
1000
1000
1000
1000
1000
1000
1000
1000
1000
1000
1000
1000
1000
1000
1000
1000
1000
1000
1000
999.996
1000
1000
999.998
999.949
999.999
1000
999.842
999.668
999.857
999.166
1000
1000
1000
1000
1000
1000
1000
1000
1000
1000
1000
1000
1000
1000
1000
1000
1000
1000
1000
1000
1000
1000
1000
1000
1000
1000
1000
1000
1000
1000
1000
1000
1000
1000
1000
1000
1000
1000
1000
1000
1000
1000
1000
1000
1000
1000
1000
1000
999.999
999.986
1000
999.998
999.678
999.792
999.667
999.641
1000
1000
1000
1000
1000
1000
1000
1000
1000
1000
1000
1000
1000
1000
1000
1000
1000
1000
1000
1000
1000
1000
1000
1000
1000
1000
1000
1000
1000
1000
1000
1000
1000
1000
1000
1000
1000
1000
1000
1000
1000
1000
1000
1000
999.996
1000
1000
1000
1000
999.998
999.994
999.99
999.636
999.752
999.249
999.838
1000
1000
1000
1000
1000
1000
1000
1000
1000
1000
1000
1000
1000
1000
1000
1000
1000
1000
1000
1000
1000
1000
1000
1000
1000
1000
1000
1000
1000
1000
1000
1000
1000
1000
1000
1000
1000
1000
1000
1000
1000
1000
1000
1000
999.994
1000
1000
1000
1000
999.996
999.982
999.978
999.661
999.61
999.054
999.892
1000
1000
1000
1000
1000
1000
1000
1000
1000
1000
1000
1000
1000
1000
1000
1000
1000
1000
1000
1000
1000
1000
1000
1000
1000
1000
1000
1000
1000
1000
1000
1000
1000
1000
1000
1000
1000
1000
1000
1000
1000
1000
1000
1000
999.996
1000
1000
1000
1000
999.995
999.981
999.97
999.719
999.486
999.089
999.911
1000
1000
1000
1000
1000
1000
1000
999.999
1000
1000
1000
1000
1000
1000
1000
1000
1000
1000
1000
1000
1000
1000
1000
1000
1000
1000
1000
1000
1000
1000
1000
1000
1000
1000
1000
1000
1000
1000
1000
1000
1000
1000
1000
1000
1000
1000
1000
999.999
1000
999.996
999.983
999.965
999.789
999.497
999.261
999.928
1000
1000
1000
999.999
1000
1000
1000
999.998
1000
1000
1000
1000
1000
1000
1000
1000
1000
1000
1000
1000
1000
1000
1000
1000
1000
1000
1000
1000
1000
1000
1000
1000
1000
1000
1000
1000
1000
1000
1000
1000
1000
1000
1000
1000
1000
1000
999.999
999.999
1000
999.996
999.988
999.964
999.858
999.598
999.563
999.952
1000
1000
1000
999.999
1000
1000
1000
999.997
999.999
1000
1000
1000
1000
1000
1000
1000
999.998
1000
1000
1000
1000
1000
1000
1000
1000
1000
1000
1000
1000
1000
1000
1000
1000
1000
1000
1000
1000
1000
1000
1000
1000
1000
1000
1000
1000
999.999
999.997
1000
999.999
999.992
999.99
999.966
999.921
999.754
999.774
999.967
1000
1000
1000
1000
1000
1000
1000
999.996
1000
1000
1000
1000
1000
1000
1000
1000
999.998
1000
1000
1000
1000
1000
1000
1000
1000
1000
1000
1000
1000
1000
1000
1000
1000
1000
1000
1000
1000
1000
1000
1000
1000
1000
1000
999.999
1000
999.998
999.997
1000
999.997
999.981
999.995
999.976
999.947
999.796
999.783
999.971
1000
1000
1000
1000
1000
1000
1000
999.997
1000
1000
1000
1000
1000
1000
1000
1000
1000
1000
1000
1000
1000
1000
1000
1000
1000
1000
1000
1000
1000
1000
1000
1000
1000
1000
1000
1000
1000
1000
1000
1000
1000
1000
1000
999.999
1000
999.995
999.998
1000
999.994
999.98
999.999
999.987
999.947
999.783
999.647
999.876
1000
1000
1000
1000
1000
1000
1000
999.998
1000
1000
1000
1000
1000
1000
1000
1000
1000
1000
1000
1000
1000
1000
1000
1000
1000
1000
1000
1000
1000
1000
1000
1000
1000
1000
1000
1000
1000
1000
1000
1000
1000
1000
1000
1000
1000
999.997
1000
1000
999.993
1000
1000
1000
1000
1000
1000
1000
999.954
999.999
1000
1000
1000
999.998
1000
1000
999.208
999.99
999.983
999.766
999.651
999.986
1000
1000
992.883
999.984
999.796
997.132
997.299
999.977
1000
1000
998.753
999.989
999.971
999.655
999.607
999.986
1000
1000
999.928
999.999
1000
1000
1000
1000
1000
1000
999.991
1000
1000
1000
999.992
999.977
999.998
999.988
1000
1000
1000
1000
1000
1000
1000
1000
1000
1000
1000
1000
999.996
999.999
1000
1000
993.882
1000
999.985
999.591
999.678
999.997
1000
1000
977.576
999.999
999.828
997.132
998.386
1000
1000
1000
992.558
1000
999.979
999.593
999.687
999.997
1000
1000
1000
1000
1000
1000
1000
1000
1000
1000
1000
1000
1000
999.999
999.994
999.978
999.995
1000
1000
1000
1000
1000
1000
1000
1000
1000
1000
1000
1000
1000
999.994
999.999
1000
1000
966.703
1000
999.999
999.522
999.768
1000
1000
1000
907.707
1000
999.97
997.134
999.323
1000
1000
1000
961.256
1000
999.998
999.589
999.815
1000
1000
1000
1000
1000
1000
1000
999.999
1000
1000
1000
1000
1000
1000
999.999
1000
999.99
999.991
1000
1000
1000
1000
1000
1000
1000
1000
1000
1000.01
1000
1000
1000
999.994
999.999
1000
1000
950.188
1000
1000
999.558
999.899
1000
1000
1000
872.057
1000
999.969
997.837
999.801
1000
1000
1000
942.017
1000
999.995
999.619
999.926
1000
1000
1000
999.999
1000
1000
1000
999.999
1000
1000
1000
1000
1000
1000
999.997
1000
1000
999.995
1000
1000
1000
1000
1000
1000
1000
1000
1000
999.994
1000
1000
999.998
999.997
1000
1000
1000
966.641
999.988
999.965
999.79
999.982
1000
1000
1000
909.787
999.854
999.726
999.914
999.983
1000
1000
1000
960.24
999.985
999.939
999.792
999.986
1000
1000
1000
999.996
1000
1000
999.998
999.999
1000
1000
1000
1000
1000
1000
999.997
1000
1000
1000
1000
999.996
1000
1000
1000
1000
1000
1000
1000
999.937
1000
1000
999.997
999.999
1000
1000
1000
993.254
999.986
999.929
999.999
1000
1000
1000
1000
974.425
999.961
999.722
999.999
1000
1000
1000
1000
991.326
999.982
999.913
999.992
999.999
1000
1000
1000
999.894
999.999
1000
999.998
1000
1000
1000
1000
999.99
1000
1000
999.997
1000
1000
1000
999.999
999.998
1000
1000
1000
1000
1000
1000
1000
1000
1000
1000
999.997
1000
1000
1000
1000
999.942
999.992
999.952
1000
1000
1000
1000
1000
996.969
999.996
999.955
1000
1000
1000
1000
1000
999.946
999.991
999.954
1000
1000
1000
1000
1000
999.999
1000
1000
999.999
1000
1000
1000
1000
999.995
1000
1000
999.997
1000
1000
1000
999.996
1000
1000
1000
1000
1000
1000
1000
1000
1000
1000
1000
999.999
1000
1000
1000
1000
999.999
1000
999.998
1000
1000
1000
1000
1000
996.499
1000
1000
1000
1000
1000
1000
1000
999.999
1000
999.999
1000
1000
1000
1000
1000
1000
1000
1000
1000
1000
1000
1000
1000
1000
1000
1000
1000
1000
1000
999.999
999.996
1000
1000
1000
1000
1000
1000
1000
1000
1000
1000
1000
1000
1000
1000
1000
1000
1000
1000
1000
1000
1000
1000
1000
1000
987.499
1000
1000
1000
1000
1000
1000
1000
999.567
1000
1000
1000
1000
1000
1000
1000
1000
1000
1000
1000
1000
1000
1000
1000
1000
1000
1000
1000
1000
999.997
999.991
999.997
1000
1000
1000
1000
1000
1000
1000
1000
1000
1000
1000
1000
1000
1000
1000
1000
997.677
1000
1000
1000
1000
1000
1000
1000
971.843
1000
1000
1000
1000
1000
1000
1000
993.412
1000
1000
1000
1000
1000
1000
1000
1000
1000
1000
1000
1000
1000
1000
1000
1000
1000
1000
999.999
1000
999.998
999.986
999.998
1000
1000
1000
1000
1000
1000
1000
1000
1000
1000
1000
1000
1000
1000
1000
1000
990.788
1000
1000
1000
1000
1000
1000
1000
952.511
1000
1000
1000
1000
1000
1000
1000
981.648
1000
1000
1000
1000
1000
1000
1000
1000
1000
1000
1000
1000
1000
1000
1000
1000
1000
1000
999.999
999.999
1000
999.99
1000
1000
1000
1000
1000
1000
1000
1000
1000
1000.01
1000
1000
1000
1000
1000
1000
1000
983.957
1000
1000
1000
1000
1000
1000
1000
934.883
1000
1000
1000
1000
1000
1000
1000
967.724
1000
1000
1000
1000
1000
1000
1000
999.998
1000
1000
1000
1000
1000
1000
1000
1000
1000
1000
999.999
999.998
1000
1000
1000
1000
1000
1000
1000
1000
1000
1000
1000
999.993
1000
1000
1000
1000
1000
1000
1000
985.154
1000
1000
1000
1000
1000
1000
1000
936.192
1000
1000
1000
1000
1000
1000
1000
967.194
1000
1000
1000
1000
1000
1000
1000
999.986
1000
1000
1000
1000
1000
1000
1000
999.999
1000
1000
999.999
999.997
1000
999.999
1000
1000
1000
1000
1000
1000
1000
1000
1000
999.994
1000
1000
1000
1000
1000
1000
1000
991.815
999.999
1000
1000
1000
1000
1000
1000
960.517
999.999
1000
1000
1000
1000
1000
1000
982.305
999.998
1000
1000
1000
1000
1000
1000
998.529
1000
1000
1000
1000
1000
1000
1000
999.594
1000
1000
1000
999.993
1000
999.994
1000
1000
1000
1000
1000
1000
1000
1000
1000
999.632
1000
1000
1000
1000
999.998
1000
1000
985.513
999.999
1000
1000
1000
1000
1000
1000
979.784
999.998
1000
1000
1000
1000
1000
1000
984.289
999.999
1000
1000
1000
1000
1000
1000
989.121
999.942
1000
1000
1000
1000
1000
1000
998.826
1000
1000
1000
999.984
999.996
999.994
1000
1000
1000
1000
1000
1000
1000
1000
1000
999.329
1000
1000
1000
1000
999.998
1000
1000
968.982
999.954
1000
1000
1000
1000
1000
1000
967.977
999.999
1000
1000
1000
1000
1000
1000
953.962
999.933
1000
1000
1000
1000
1000
1000
983.945
1000
1000
1000
1000
1000
1000
1000
999.398
1000
1000
999.999
999.977
999.977
999.998
1000
999.997
1000
1000
999.96
999.821
999.134
999.716
999.988
999.995
999.999
1000
999.833
999.588
999.476
998.484
999.988
999.996
999.999
999.999
999.999
999.257
996.88
997.678
999.646
999.996
999.999
999.999
999.91
999.564
999.507
999.751
999.413
999.991
999.999
999.951
999.033
999.874
999.963
999.98
999.967
1000
1000
999.938
998.999
999.365
998.43
998.298
999.915
999.998
999.998
999.989
999.473
999.473
999.333
996.964
999.999
1000
1000
999.999
999.995
999.584
999.134
999.909
999.321
1000
1000
999.998
999.703
999.641
999.811
999.945
998.934
1000
1000
1000
999.993
997.713
996.88
998.409
999.675
1000
1000
1000
999.94
999.411
999.564
999.79
998.457
1000
1000
999.929
999.035
999.827
999.814
999.995
999.997
1000
1000
999.949
999.345
998.942
997.578
997.644
999.998
999.998
999.998
999.994
999.72
999.668
999.218
998.365
999.999
1000
1000
999.998
1000
999.193
999.171
999.973
998.255
1000
1000
1000
999.735
999.608
998.708
999.954
997.239
1000
1000
1000
1000
997.366
997.117
998.896
999.107
1000
1000
1000
999.963
999.419
999.787
999.862
998.2
1000
1000
999.937
999.038
999.807
998.572
999.174
998.355
1000
1000
999.945
999.671
997.834
997.227
997.232
999.658
999.998
999.998
1000
999.753
999.395
997.641
999.037
998.883
1000
1000
999.998
1000
999.163
999.256
999.995
998.317
1000.01
1000
1000
999.852
999.4
997.021
999.994
997.178
1000.02
1000
1000
1000
997.386
998.802
999.505
997.224
1000.01
1000
1000
999.96
999.548
999.963
999.961
998.695
1000
1000
999.919
999.307
999.806
998.244
997.024
996.871
1000
1000
999.944
999.764
997.277
997.209
997.198
996.864
999.999
999.999
1000
999.754
999.04
997.228
999.498
996.736
999.999
1000
999.999
1000
999.195
999.392
999.467
999.126
999.994
999.999
999.991
999.983
998.934
996.976
998.119
997.178
999.996
1000
1000
1000
998.618
999.702
999.625
997.178
1000
1000
1000
999.938
999.9
999.973
999.522
999.727
999.999
1000
999.876
999.847
998.584
998.788
997.413
997.413
1000
1000
999.954
999.72
997.274
997.731
998.503
996.669
999.999
999.999
1000
999.729
999.034
997.244
999.542
996.666
1000
1000
999.999
1000
999.489
999.512
997.375
999.739
999.999
1000
999.983
1000
998.924
996.968
996.87
998.295
999.999
1000
1000
999.98
999.918
999.771
999.605
997.893
1000
1000
1000
999.927
999.999
999.948
997.876
999.743
999.997
999.999
999.876
999.991
997.274
999.653
999.339
999.548
1000
1000
999.981
999.602
997.272
999.275
999.631
996.915
999.999
999.999
1000
999.727
999.063
997.26
999.58
996.665
999.999
1000
1000
1000
999.707
999.546
997.867
999.926
999.997
1000
999.983
1000
999.145
997.239
996.868
999.546
999.999
1000
1000
999.871
999.933
999.744
997.229
999.648
1000
1000
1000
999.927
1000
999.604
997.283
999.772
1000
999.999
999.974
999.997
997.941
999.798
999.792
999.793
1000
1000
999.998
999.437
997.273
999.793
999.783
997.185
999.999
999.999
1000
999.785
998.416
998.858
999.577
996.665
1000
1000
1000
1000
999.692
999.648
999.369
999.977
1000
1000
999.995
1000
999.688
997.872
996.867
999.734
1000
1000
999.999
999.851
999.954
999.551
996.862
999.727
1000
1000
1000
999.953
1000
998.899
998.125
999.783
1000
1000
1000
999.999
999.723
999.834
999.774
999.793
1000
1000
999.999
999.182
998.976
998.36
999.783
996.954
999.999
1000
1000
999.861
998.106
999.569
999.116
996.665
1000
1000
1000
1000
999.68
999.905
999.821
999.997
1000
1000
1000
1000
999.985
998.157
996.864
999.598
1000
1000
1000
999.852
999.995
998.877
996.861
998.104
1000
1000
1000
999.994
1000
998.87
999.236
999.78
1000
1000
1000
999.837
999.93
998.336
999.691
999.468
1000
1000
1000
999.154
999.432
996.48
999.506
996.434
999.999
1000
1000
999.972
998.106
998.251
996.77
997.29
1000
1000
1000
1000
999.692
999.982
999.818
999.998
1000
1000
1000
1000
1000
998.053
996.861
997.912
1000
1000
1000
999.852
1000
997.768
996.86
996.861
1000
1000
1000
1000
1000
999.603
999.578
999.765
1000
1000
1000
999.204
999.907
997.114
999.622
998.076
1000
1000
1000
999.155
999.432
996.459
996.818
996.422
1000
1000
1000
1000
998.186
996.416
996.383
998.696
1000
1000
1000
1000
999.876
999.161
999.288
999.984
1000
1000
1000
1000
1000
997.641
996.86
996.861
1000.01
1000
1000
999.954
1000
996.96
996.86
996.86
1000.01
1000
1000
1000
1000
999.906
999.553
999.467
1000
1000
1000
999.36
999.934
998.425
999.609
998.076
1000
1000
1000
999.364
999.35
996.496
996.384
996.844
1000
1000
999.999
999.999
998.073
996.384
996.384
999.32
1000
1000
1000
1000
1000
997.476
997.424
998.067
1000.01
1000
1000
1000
999.951
997.096
997.301
996.861
1000.02
1000
1000
1000
1000
996.861
996.86
996.86
1000.02
1000
1000
1000
1000
999.899
999.464
999.033
1000
1000
1000
999.93
999.977
999.593
999.586
999.454
1000
1000
999.987
999.853
998.826
996.393
996.404
998.839
1000
1000
999.993
999.999
997.893
996.384
996.384
999.567
999.999
1000
1000
1000
1000
997.082
998.565
996.922
1000
1000
1000
1000
999.538
997.078
999.466
996.92
1000.02
1000
1000
1000
999.934
997.338
998.261
996.86
1000.02
1000
1000
1000
1000
999.924
999.36
999.016
999.998
999.999
999.996
1000
999.459
999.592
999.46
999.928
999.999
1000
999.907
999.999
997.636
996.397
996.408
999.536
999.999
1000
999.99
999.999
998.045
996.386
996.463
999.761
999.999
1000
1000
1000
1000
997.086
999.918
997.777
999.988
1000
1000
1000
999.192
997.079
999.751
996.952
999.974
1000
1000
1000
999.601
999.149
999.622
996.871
999.999
1000
1000
999.999
999.999
999.94
999.373
999.143
999.992
999.998
999.925
999.999
998.236
999.58
999.44
999.929
999.97
999.999
999.9
999.999
997.029
996.403
996.4
999.605
999.993
999.999
999.991
999.999
998.47
998.315
997.783
999.872
999.63
1000
1000
1000
999.988
998.832
999.905
999.546
999.996
1000
1000
1000
999.238
997.423
999.622
996.912
999.987
1000
1000
1000
999.577
999.953
999.665
996.873
999.989
1000
1000
999.997
999.965
999.924
999.518
999.468
999.994
999.997
999.904
999.979
998.418
999.669
999.565
999.933
999.924
999.999
999.904
999.929
996.992
998.026
996.398
999.652
999.994
999.999
999.994
999.999
999.253
999.085
998.915
999.917
999.864
1000
1000
999.996
999.771
999.97
999.882
999.997
999.478
1000
1000
999.998
999.498
999.741
999.15
996.877
999.784
1000
1000
999.995
999.86
999.955
999.414
996.876
999.997
1000
1000
999.996
999.915
999.903
999.617
999.844
999.604
999.996
999.939
999.961
999.343
999.832
999.826
999.938
999.998
999.996
999.954
999.85
996.995
999.815
998.209
999.675
999.993
999.999
999.998
999.996
999.647
997.902
998.846
999.919
1000
1000
999.999
999.997
999.984
999.998
999.968
1000
999.999
999.997
999.981
999.974
999.677
999.857
999.999
999.999
999.954
999.996
999.978
999.996
999.781
999.347
999.938
999.729
999.846
999.994
999.994
1000
999.99
999.45
999.168
999.163
999.992
999.865
999.922
999.99
999.919
999.989
1000
999.998
1000
1000
999.999
999.992
999.991
999.998
999.912
999.973
1000
999.997
999.991
999.966
999.58
999.903
999.897
999.999
999.994
999.997
999.978
999.992
999.488
999.347
999.989
999.999
999.997
999.999
999.996
1000
999.979
999.347
999.823
999.772
999.999
999.999
999.99
999.866
1000
999.986
999.912
999.999
999.99
1000
999.995
999.915
999.986
1000
1000
999.999
999.998
1000
1000
1000
1000
1000
1000
1000
1000
1000
999.998
999.971
999.997
999.999
999.922
999.876
1000
999.998
999.998
999.943
999.667
999.957
999.691
999.476
1000
999.998
999.981
999.981
999.446
999.521
999.938
999.813
1000
1000
999.998
1000
999.953
999.349
999.961
999.997
1000
1000
999.994
999.964
1000
999.987
999.909
999.997
1000
1000
999.997
999.971
999.998
1000
999.983
999.998
1000
1000
1000
1000
1000
1000
1000
1000
1000
1000
999.996
999.958
999.997
999.999
999.96
999.871
1000
999.999
999.999
999.802
999.785
999.989
999.668
997.763
1000
999.999
999.992
999.965
999.446
999.812
999.742
997.814
1000
1000
999.998
1000
999.835
999.35
999.945
999.985
1000
1000
999.997
1000
1000
999.999
999.909
999.997
1000
1000
999.998
1000
1000
1000
999.924
999.998
1000
1000
1000
1000
1000
1000
1000
1000
1000
1000
999.995
999.96
999.995
999.961
999.98
999.934
1000
1000
999.998
999.725
999.859
999.989
999.677
997.69
1000
1000
1000
999.885
999.446
999.953
999.525
996.966
1000
1000
1000
1000
999.527
999.606
999.868
998.599
1000.01
1000
999.998
1000
1000
1000
999.92
999.99
1000
1000
999.998
1000
1000
1000
999.936
999.999
1000
1000
1000
1000
1000
999.998
1000
1000
1000
1000
999.99
999.976
999.995
999.841
999.978
999.998
1000
1000
999.99
999.724
999.934
999.989
999.707
998.663
999.999
1000
1000
999.726
999.447
999.985
999.531
996.966
999.999
1000
1000
999.999
999.449
999.92
999.705
996.988
999.999
1000
999.999
1000
1000
999.96
999.939
999.87
999.996
1000
999.999
1000
999.999
1000
999.967
1000
1000
1000
999.999
1000
1000
999.997
999.998
1000
1000
1000
999.984
999.995
999.996
999.828
999.971
1000
1000
1000
999.972
999.836
999.988
999.855
999.791
999.808
999.996
1000
999.997
999.689
999.725
999.985
999.743
997.124
999.992
1000
1000
999.982
999.454
999.957
999.621
996.985
999.999
1000
1000
1000
999.974
999.669
999.945
999.722
999.989
1000
1000
1000
1000
999.846
999.963
1000
1000
1000
999.999
999.999
1000
999.998
999.997
1000
1000
999.999
999.983
999.997
999.998
999.86
999.978
999.997
1000
999.999
999.967
999.97
999.996
999.274
999.784
999.974
1000
1000
999.997
999.739
999.974
999.967
999.671
999.091
1000
1000
1000
999.943
999.665
999.958
999.697
997.538
1000
1000
1000
1000
999.816
999.661
999.958
999.736
999.997
1000
1000
1000
999.999
999.662
999.963
1000
1000
1000
999.999
999.999
1000
999.999
999.997
1000
1000
999.999
999.986
999.998
999.999
999.919
999.988
999.988
1000
999.999
999.967
999.992
999.998
999.191
999.632
999.955
1000
1000
999.997
999.983
1000
999.725
998.517
999.865
1000
1000
999.999
999.93
999.983
999.96
999.721
999.649
1000
1000
1000
1000
999.746
999.661
999.988
999.849
1000
1000
1000
1000
999.999
999.721
999.972
1000
1000
1000
999.999
1000
1000
999.998
999.997
1000
1000
999.999
999.994
999.999
999.96
999.957
999.976
999.985
1000
1000
999.971
999.999
999.976
999.191
999.155
999.93
1000
1000
999.998
999.995
1000
999.1
998.465
999.814
1000
1000
1000
999.93
999.999
999.942
998.93
999.914
1000
1000
1000
1000
999.853
999.766
1000
999.992
1000
1000
1000
1000
1000
999.943
999.99
1000
1000
1000
999.999
1000
1000
999.996
999.998
1000
1000
999.999
999.999
1000
999.707
999.959
999.959
999.986
1000
1000
999.998
1000
999.778
999.193
998.885
999.927
1000
1000
999.998
999.988
1000
998.544
998.465
999.782
1000
1000
1000
999.976
1000
999.72
998.466
999.85
1000
1000
1000
999.999
999.99
999.926
1000
999.999
1000
1000
1000
1000
1000
999.991
999.999
1000
1000
1000
1000
1000
1000
999.996
999.999
1000
1000
1000
1000
1000
999.671
999.956
999.96
999.99
1000
1000
1000
1000
999.328
999.332
999.085
999.938
1000
1000
999.999
999.987
1000
998.466
998.465
999.791
1000
1000
1000
1000
1000
999.112
998.465
999.802
1000
1000
1000
1000
1000
999.899
1000
999.997
1000
1000
1000
1000
999.969
999.977
1000
1000
1000
1000
1000
1000
1000
999.999
1000
1000
1000
1000
1000
1000
999.742
999.957
999.963
999.995
1000
1000
1000
999.993
999.208
999.641
999.6
999.967
1000
1000
1000
999.99
1000
998.509
998.465
999.844
1000.01
1000
1000
999.987
1000
998.562
998.465
999.797
1000
1000
1000
1000
999.401
999.751
1000
999.992
1000
1000
1000
1000
999.904
999.956
1000
999.999
1000
1000
1000
1000
1000
1000
1000
1000
1000
1000
999.999
1000
999.868
999.965
999.972
999.999
1000
1000
1000
999.978
999.208
999.815
999.951
999.991
1000
1000
1000
1000
999.735
999.027
998.763
999.927
1000
1000
1000
999.958
999.981
998.468
998.466
999.807
1000
1000
1000
999.979
998.825
999.48
999.982
999.99
999.999
1000
1000
1000
999.809
999.952
1000
999.998
1000
1000
1000
1000
1000
1000
1000
1000
999.999
1000
999.999
1000
999.946
999.979
999.993
999.999
1000
1000
999.999
999.996
999.221
999.893
999.999
999.997
1000
1000
1000
1000
998.926
999.63
999.691
999.978
999.998
1000
1000
999.956
999.906
998.468
998.468
999.871
999.997
1000
1000
999.778
998.821
999.367
999.933
999.991
999.999
1000
1000
999.986
999.726
999.958
1000
999.998
1000
1000
1000
1000
1000
1000
1000
1000
999.998
1000
999.998
999.978
999.946
999.991
999.999
999.999
1000
1000
999.999
999.989
999.332
999.932
999.999
999.995
1000
1000
1000
999.963
998.818
999.718
999.992
999.989
999.999
1000
1000
999.953
999.262
999.25
999.175
999.956
999.999
1000
1000
999.422
998.819
999.377
999.899
999.992
999.999
1000
1000
999.859
999.718
999.972
1000
999.998
1000
1000
1000
1000
1000
1000
1000
1000
999.999
1000
999.992
999.826
999.932
999.998
999.993
999.998
1000
1000
999.993
999.711
999.331
999.974
999.999
999.987
1000
1000
1000
999.899
998.817
999.842
999.999
999.98
1000
1000
999.997
999.913
998.818
999.793
999.981
999.99
1000
1000
1000
999.32
998.818
999.46
999.903
999.994
1000
1000
999.991
999.634
999.756
999.985
999.998
999.999
1000
1000
1000
1000
1000
1000
1000
1000
1000
1000
1000
1000
1000
1000
1000
1000
1000
1000
1000
1000
1000
1000
1000
1000
1000
1000
1000
1000
1000
1000
1000
1000
1000
1000
1000
1000
1000
1000
1000
1000
1000
1000
1000
1000
1000
1000
1000
1000
1000