/*--------------------------------*- C++ -*----------------------------------*\
| =========                 |                                                 |
| \\      /  F ield         | OpenFOAM: The Open Source CFD Toolbox           |
|  \\    /   O peration     | Version:  plus.master                           |
|   \\  /    A nd           | Web:      www.OpenFOAM.com                      |
|    \\/     M anipulation  |                                                 |
\*---------------------------------------------------------------------------*/
FoamFile
{
    version     2.0;
    format      ascii;
    class       volScalarField;
    location    "13.8";
    object      p_rgh;
}
// * * * * * * * * * * * * * * * * * * * * * * * * * * * * * * * * * * * * * //

dimensions      [1 -1 -2 0 0 0 0];

internalField   nonuniform List<scalar> 
47285
(
5664.72
5655.39
5651.44
5650.7
5650.91
5656.31
5664.69
5654.68
5607.8
5609.08
5607.2
5600.01
5609.93
5655.23
5649.63
5595.79
5581.73
5578.96
5582
5606.46
5650.9
5649.73
5604.15
5579.04
5577.19
5579.14
5610.21
5650.95
5650.73
5599.54
5581.37
5578.78
5581.62
5610.62
5650.64
5656.61
5607.21
5603.77
5602.53
5595.71
5610.42
5655.19
5665.6
5656.25
5650.39
5648.94
5649.51
5655.19
5663.91
5694.72
5692.96
5692.79
5692.78
5692.69
5693.2
5695.05
5691.58
5650.02
5667.54
5656.38
5642.15
5667.29
5693.72
5691.32
5598.8
5518.43
5520.36
5527.21
5678.5
5693.94
5692.14
5641.86
5518.3
5516.37
5524.74
5683.53
5694.01
5692.3
5616.46
5516.09
5516.6
5524.02
5682.44
5694.09
5692.41
5623.02
5646.13
5634.99
5617.27
5675.54
5694.05
5694.67
5692.6
5692.36
5692.3
5692.16
5693
5695.34
5714.48
5717.47
5719.88
5720.56
5718.62
5715.65
5712.55
5717.54
5721.57
5710.62
5690.03
5721.43
5720.05
5715.68
5720.59
5643.08
5457.74
5444.28
5534.03
5724.41
5718.83
5722.12
5657.48
5433.22
5429.69
5484.94
5724.47
5720.07
5721.23
5649.14
5443.31
5429.36
5501.88
5724.22
5719.32
5718.09
5699.34
5683.51
5649.76
5690.38
5720.99
5716.59
5715.12
5718.12
5720.53
5721.9
5719.73
5716.64
5713.41
5720.49
5724.96
5728.1
5728.47
5725.6
5721.16
5716.24
5725.65
5731.58
5728.33
5702.43
5733.52
5727.1
5720.69
5729.93
5664.65
5414.88
5364.3
5602.6
5732.57
5724.46
5732.41
5646.01
5329.66
5317.74
5501.14
5734.02
5725.83
5730.53
5656.29
5377.76
5327.02
5533.65
5733.68
5725.32
5726.72
5727.69
5691.08
5646.45
5721.98
5728.21
5721.84
5721.85
5726.38
5729.36
5731.04
5727.42
5722.63
5717.43
5700.47
5705.6
5708.95
5709.61
5706.41
5701.44
5695.94
5706.39
5713.24
5719.03
5700.61
5715.15
5708.17
5700.92
5711.08
5671.25
5395.37
5306.66
5646.68
5714.52
5705.3
5713.2
5617.26
5208.53
5179.95
5559.78
5717.59
5707.31
5712.06
5654.85
5316.59
5223.74
5577.63
5716.06
5706.29
5708.02
5715.19
5684.78
5641.56
5717.71
5710.14
5702.34
5702.4
5707.76
5711.36
5712.37
5708.69
5703.32
5697.33
5671.72
5677.21
5682.07
5685.64
5688.56
5690.94
5692.89
5694.51
5666.16
5674.4
5680.31
5684.59
5687.97
5690.68
5692.86
5694.63
5662.58
5672.19
5679.33
5684.01
5687.64
5690.55
5692.86
5694.71
5662
5672.24
5679.31
5683.78
5687.47
5690.44
5692.81
5694.7
5663.21
5673.03
5679.27
5683.96
5687.64
5690.54
5692.86
5694.73
5665.93
5674.26
5680.32
5684.63
5688
5690.7
5692.88
5694.67
5671.32
5677.55
5682.14
5685.67
5688.59
5690.99
5692.96
5694.6
5696.28
5697.05
5697.74
5698.37
5698.96
5699.51
5700.02
5700.5
5695.88
5696.92
5697.66
5698.3
5698.91
5699.48
5700.03
5700.56
5696.16
5697.2
5697.85
5698.41
5698.97
5699.53
5700.08
5700.62
5696.3
5697.38
5697.98
5698.5
5699.04
5699.58
5700.13
5700.67
5696.32
5697.35
5697.97
5698.52
5699.07
5699.61
5700.14
5700.66
5696.18
5697.2
5697.9
5698.51
5699.09
5699.65
5700.18
5700.69
5696.55
5697.29
5697.95
5698.56
5699.14
5699.69
5700.19
5700.66
5709.87
5708.09
5706.75
5705.71
5704.91
5704.31
5703.88
5703.64
5712.06
5709.51
5707.64
5706.26
5705.23
5704.48
5703.96
5703.65
5714.22
5710.93
5708.52
5706.8
5705.56
5704.67
5704.06
5703.7
5715.1
5711.58
5708.95
5707.08
5705.74
5704.78
5704.13
5703.74
5714.62
5711.27
5708.77
5706.99
5705.71
5704.79
5704.15
5703.78
5712.74
5710.02
5708.02
5706.56
5705.47
5704.68
5704.12
5703.78
5710.48
5708.56
5707.11
5706
5705.14
5704.49
5704.02
5703.73
5712.12
5709.27
5707.08
5705.45
5704.39
5703.91
5704.05
5704.79
5715.17
5711.2
5708.23
5706.07
5704.63
5703.91
5703.94
5704.68
5717.85
5712.99
5709.36
5706.75
5705
5704.07
5703.98
5704.69
5719.06
5713.87
5709.93
5707.12
5705.24
5704.21
5704.06
5704.74
5718.57
5713.52
5709.73
5707.02
5705.21
5704.24
5704.12
5704.81
5716.05
5711.88
5708.75
5706.49
5704.98
5704.21
5704.2
5704.91
5712.88
5709.86
5707.56
5705.84
5704.72
5704.19
5704.3
5705.02
5691.41
5687.93
5684.94
5682.4
5680.18
5677.85
5675.17
5674.07
5694.8
5690.16
5686.38
5683.31
5680.74
5678.19
5675.23
5673.84
5697.74
5692.15
5687.72
5684.22
5681.37
5678.59
5675.37
5673.78
5699.16
5693.13
5688.4
5684.69
5681.69
5678.82
5675.55
5673.86
5698.44
5692.66
5688.11
5684.52
5681.6
5678.79
5675.59
5673.96
5695.8
5690.94
5687.03
5683.86
5681.23
5678.63
5675.63
5674.19
5692.34
5688.67
5685.58
5682.98
5680.72
5678.37
5675.65
5674.5
5673.39
5678.8
5683.27
5686.75
5689.59
5691.91
5693.81
5695.39
5667.39
5675.46
5681.84
5685.79
5689.04
5691.66
5693.77
5695.49
5663.3
5673.19
5680.94
5685.18
5688.82
5691.67
5693.91
5695.71
5663.39
5672.47
5679.49
5684.59
5688.54
5691.6
5693.97
5695.86
5662.53
5672.69
5680.85
5684.99
5688.61
5691.46
5693.71
5695.5
5666.73
5675.31
5681.8
5685.65
5688.88
5691.45
5693.52
5695.24
5672.68
5678.39
5683.02
5686.51
5689.38
5691.7
5693.63
5695.23
5696.22
5697.17
5697.99
5698.72
5699.37
5699.97
5700.51
5700.99
5695.36
5696.75
5697.72
5698.52
5699.22
5699.85
5700.41
5700.93
5695.55
5696.9
5697.88
5698.65
5699.34
5699.96
5700.53
5701.05
5695.53
5696.79
5697.82
5698.59
5699.29
5699.94
5700.54
5701.07
5695.3
5696.65
5697.61
5698.38
5699.08
5699.73
5700.31
5700.84
5695.28
5696.6
5697.56
5698.34
5699.04
5699.66
5700.22
5700.73
5696.13
5697.02
5697.81
5698.51
5699.15
5699.74
5700.27
5700.76
5712.25
5710.2
5708.57
5707.33
5706.38
5705.65
5705.11
5704.74
5714.5
5711.77
5709.6
5707.97
5706.75
5705.85
5705.2
5704.77
5716.59
5713.3
5710.71
5708.7
5707.21
5706.14
5705.38
5704.89
5717.02
5713.62
5710.91
5708.82
5707.28
5706.17
5705.39
5704.88
5716.01
5712.78
5710.23
5708.28
5706.89
5705.85
5705.12
5704.65
5713.97
5711.26
5709.14
5707.55
5706.37
5705.49
5704.86
5704.46
5711.65
5709.65
5708.08
5706.87
5705.95
5705.24
5704.73
5704.39
5716.81
5713.24
5710.43
5708.36
5706.95
5706.18
5706.07
5706.59
5720.58
5715.8
5711.94
5709.13
5707.23
5706.15
5705.86
5706.31
5723.51
5718.08
5713.52
5710.04
5707.66
5706.3
5705.87
5706.25
5724.71
5718.8
5713.98
5710.31
5707.79
5706.32
5705.81
5706.1
5722.86
5717.36
5712.91
5709.57
5707.22
5705.9
5705.49
5705.87
5719.56
5714.87
5711.17
5708.48
5706.65
5705.6
5705.33
5705.73
5715.67
5712.26
5709.59
5707.61
5706.27
5705.54
5705.45
5706
5696.76
5692.61
5689.12
5686.21
5683.72
5681.17
5678.31
5677.09
5700.9
5695.37
5690.8
5687.23
5684.34
5681.54
5678.44
5677.05
5703.99
5697.66
5692.24
5687.97
5684.66
5681.61
5678.32
5676.94
5704.85
5698.3
5692.71
5688.19
5684.69
5681.55
5678.24
5677
5703.12
5696.82
5691.52
5687.46
5684.24
5681.22
5677.99
5676.68
5699.52
5694.23
5689.89
5686.43
5683.61
5680.89
5677.84
5676.49
5695.28
5691.35
5688
5685.18
5682.76
5680.27
5677.46
5676.28
5672.7
5678.56
5682.85
5686.3
5689.12
5691.44
5693.35
5694.92
5667.34
5675.08
5680.69
5685
5688.42
5691.15
5693.31
5695.05
5664.23
5673.32
5679.66
5684.32
5688.06
5690.99
5693.3
5695.15
5663.11
5672.14
5679.08
5683.91
5687.75
5690.74
5693.13
5695.03
5663.2
5672.24
5679.57
5683.97
5687.68
5690.59
5692.9
5694.74
5666.89
5674.44
5680.5
5684.66
5687.99
5690.66
5692.8
5694.53
5672.1
5677.49
5682.2
5685.75
5688.63
5691
5692.94
5694.56
5696.14
5697.03
5697.8
5698.5
5699.13
5699.72
5700.26
5700.75
5695.5
5696.74
5697.63
5698.34
5699
5699.6
5700.16
5700.68
5695.52
5696.76
5697.59
5698.27
5698.92
5699.52
5700.08
5700.62
5695.57
5696.75
5697.54
5698.2
5698.81
5699.4
5699.97
5700.5
5695.39
5696.6
5697.41
5698.1
5698.73
5699.33
5699.91
5700.45
5695.45
5696.59
5697.42
5698.13
5698.77
5699.37
5699.94
5700.48
5696.2
5696.99
5697.7
5698.34
5698.93
5699.48
5699.99
5700.48
5711.54
5709.52
5707.94
5706.74
5705.83
5705.13
5704.63
5704.3
5713.81
5711.04
5708.89
5707.29
5706.11
5705.25
5704.64
5704.26
5715.44
5712.16
5709.58
5707.68
5706.29
5705.3
5704.62
5704.21
5715.89
5712.33
5709.59
5707.58
5706.14
5705.11
5704.41
5704
5714.37
5711.21
5708.82
5707.07
5705.8
5704.89
5704.27
5703.89
5712.17
5709.64
5707.77
5706.39
5705.36
5704.61
5704.09
5703.78
5709.95
5708.18
5706.83
5705.78
5704.98
5704.38
5703.95
5703.71
5715.37
5711.92
5709.28
5707.34
5706.03
5705.36
5705.34
5705.94
5718.87
5714.23
5710.62
5708.02
5706.28
5705.34
5705.19
5705.78
5721.15
5715.8
5711.53
5708.41
5706.35
5705.2
5704.93
5705.5
5721.36
5715.9
5711.46
5708.26
5706.12
5704.93
5704.66
5705.22
5719.09
5714.08
5710.22
5707.44
5705.58
5704.57
5704.39
5705.02
5715.73
5711.72
5708.69
5706.49
5705.01
5704.25
5704.23
5704.93
5712.29
5709.46
5707.25
5705.61
5704.53
5704.04
5704.17
5704.9
5694.84
5690.84
5687.51
5684.74
5682.36
5679.9
5677.11
5675.93
5698.61
5693.3
5689.01
5685.61
5682.84
5680.12
5677.05
5675.57
5701.07
5694.94
5689.95
5686.06
5682.97
5680.05
5676.8
5675.18
5701.51
5695.19
5689.96
5685.95
5682.79
5679.82
5676.52
5674.9
5698.99
5693.24
5688.68
5685.08
5682.15
5679.33
5676.13
5674.55
5695.42
5690.78
5687
5683.91
5681.33
5678.76
5675.8
5674.42
5691.61
5688.15
5685.15
5682.6
5680.37
5678.04
5675.34
5674.23
5671.8
5677.36
5682.15
5685.81
5688.77
5691.16
5693.13
5694.77
5666.72
5674.87
5680.97
5685.12
5688.48
5691.15
5693.3
5695.03
5662.17
5672.09
5680.5
5684.64
5688.28
5691.15
5693.44
5695.27
5662.74
5671.8
5679.14
5684.3
5688.25
5691.28
5693.66
5695.56
5664.01
5673.16
5679.92
5684.84
5688.52
5691.45
5693.77
5695.62
5667.52
5675.27
5681.1
5685.45
5688.88
5691.58
5693.73
5695.46
5673.44
5678.95
5683.34
5686.82
5689.6
5691.89
5693.78
5695.35
5696.46
5697.22
5697.9
5698.52
5699.09
5699.63
5700.13
5700.6
5695.66
5696.76
5697.58
5698.27
5698.89
5699.47
5700
5700.51
5695.48
5696.72
5697.57
5698.27
5698.9
5699.49
5700.04
5700.56
5695.68
5696.86
5697.75
5698.46
5699.11
5699.72
5700.28
5700.79
5695.57
5696.93
5697.88
5698.61
5699.26
5699.87
5700.4
5700.91
5695.5
5696.89
5697.83
5698.58
5699.23
5699.83
5700.37
5700.87
5696.25
5697.2
5698
5698.72
5699.37
5699.96
5700.49
5700.97
5710.62
5708.73
5707.27
5706.15
5705.27
5704.61
5704.13
5703.84
5712.99
5710.3
5708.29
5706.8
5705.69
5704.86
5704.28
5703.92
5715.26
5712
5709.48
5707.62
5706.25
5705.27
5704.58
5704.15
5716.69
5713.2
5710.43
5708.31
5706.77
5705.69
5704.92
5704.43
5716.62
5713.2
5710.5
5708.44
5706.94
5705.87
5705.12
5704.67
5714.62
5711.78
5709.55
5707.88
5706.65
5705.74
5705.09
5704.66
5712.23
5710.15
5708.52
5707.28
5706.33
5705.6
5705.06
5704.7
5713.2
5710.22
5707.88
5706.13
5704.96
5704.39
5704.45
5705.12
5716.89
5712.62
5709.37
5707
5705.4
5704.53
5704.43
5705.06
5720.59
5715.35
5711.19
5708.16
5706.15
5705.04
5704.77
5705.28
5723.14
5717.4
5712.72
5709.23
5706.89
5705.56
5705.17
5705.57
5722.61
5717.27
5712.77
5709.4
5707.17
5705.91
5705.55
5706
5720.25
5715.49
5711.68
5708.9
5707.04
5705.98
5705.73
5706.22
5716.68
5713.11
5710.31
5708.25
5706.86
5706.1
5706
5706.53
5692.75
5689.16
5686.04
5683.4
5681.11
5678.74
5676.02
5674.9
5696.83
5691.94
5687.97
5684.76
5682.11
5679.51
5676.55
5675.23
5700.82
5694.72
5689.84
5686.01
5682.94
5680.06
5676.88
5675.52
5703.61
5697.05
5691.44
5687.11
5683.76
5680.72
5677.47
5676.18
5703.2
5696.84
5691.48
5687.36
5684.11
5681.11
5677.85
5676.39
5700.54
5695.02
5690.49
5686.93
5684.05
5681.27
5678.18
5676.74
5696.61
5692.44
5688.95
5686.05
5683.57
5681.03
5678.18
5676.98
5695.87
5696
5696.1
5696.1
5696.16
5696.09
5696
5700.95
5701.05
5701.11
5701.17
5701.11
5701.14
5701.07
5703.57
5703.57
5703.6
5703.62
5703.67
5703.68
5703.62
5705.82
5705.76
5705.77
5705.82
5705.88
5705.96
5706.03
5679.26
5679.29
5679.38
5679.49
5679.53
5679.59
5679.67
5696.7
5696.79
5697.03
5697.25
5696.81
5696.56
5696.54
5701.42
5701.38
5701.48
5701.51
5701.28
5701.18
5701.21
5704.55
5704.56
5704.63
5704.63
5704.42
5704.27
5704.23
5707.41
5707.14
5707.03
5706.75
5706.64
5706.56
5706.87
5682.16
5682.49
5683.06
5683.73
5682.91
5682.05
5681.39
5696.25
5696.41
5696.52
5696.42
5696.11
5695.88
5695.91
5701.17
5701.15
5701.08
5700.96
5700.92
5700.96
5700.93
5704.15
5704.1
5704.06
5703.86
5703.78
5703.69
5703.64
5706.84
5706.75
5706.47
5706.19
5706.04
5705.96
5705.92
5681.04
5680.92
5680.8
5680.7
5680.19
5679.84
5679.4
5696.13
5696.35
5696.62
5696.95
5696.97
5696.79
5696.66
5701.02
5700.96
5700.99
5701.24
5701.35
5701.3
5701.38
5703.73
5703.77
5703.98
5704.22
5704.45
5704.46
5704.51
5706.1
5706.05
5706.16
5706.34
5706.83
5707.08
5707.36
5680.07
5680.78
5681.62
5682.67
5682.36
5682.14
5682.06
5697.86
5699.76
5701.17
5702.21
5702.96
5703.49
5703.85
5704.1
5697.88
5699.82
5701.22
5702.24
5702.97
5703.49
5703.85
5704.09
5697.94
5699.86
5701.25
5702.26
5702.99
5703.5
5703.86
5704.1
5698
5699.93
5701.29
5702.31
5703.03
5703.53
5703.89
5704.13
5698.07
5699.95
5701.32
5702.33
5703.06
5703.57
5703.93
5704.17
5698.07
5699.98
5701.36
5702.37
5703.1
5703.62
5703.99
5704.22
5697.97
5699.89
5701.31
5702.35
5703.1
5703.64
5704.01
5704.26
5701.58
5702.29
5702.85
5703.3
5703.66
5703.93
5704.13
5704.27
5701.76
5702.38
5702.91
5703.34
5703.68
5703.94
5704.14
5704.28
5701.81
5702.41
5702.93
5703.35
5703.69
5703.95
5704.15
5704.29
5701.87
5702.48
5703
5703.42
5703.74
5703.99
5704.18
5704.31
5701.72
5702.4
5702.95
5703.39
5703.73
5704
5704.2
5704.34
5701.73
5702.41
5702.96
5703.4
5703.75
5704.03
5704.23
5704.37
5701.69
5702.36
5702.92
5703.37
5703.74
5704.02
5704.23
5704.38
5703.58
5703.78
5704.01
5704.22
5704.38
5704.5
5704.58
5704.63
5703.56
5703.78
5704.02
5704.22
5704.38
5704.5
5704.59
5704.64
5703.58
5703.79
5704.03
5704.23
5704.39
5704.51
5704.59
5704.64
5703.56
5703.8
5704.04
5704.25
5704.41
5704.53
5704.61
5704.67
5703.64
5703.83
5704.07
5704.27
5704.43
5704.55
5704.63
5704.69
5703.65
5703.86
5704.09
5704.29
5704.46
5704.58
5704.66
5704.72
5703.61
5703.83
5704.07
5704.28
5704.44
5704.57
5704.66
5704.72
5706.72
5706.17
5705.69
5705.36
5705.15
5705.04
5704.97
5704.94
5706.68
5706.14
5705.67
5705.34
5705.14
5705.03
5704.97
5704.94
5706.68
5706.13
5705.66
5705.33
5705.13
5705.02
5704.97
5704.94
5706.72
5706.16
5705.68
5705.36
5705.15
5705.04
5704.99
5704.96
5706.77
5706.19
5705.7
5705.37
5705.17
5705.06
5705
5704.97
5706.86
5706.24
5705.75
5705.41
5705.21
5705.09
5705.03
5705
5706.92
5706.29
5705.79
5705.44
5705.23
5705.11
5705.04
5705.01
5691.17
5698.27
5701.56
5703.23
5704.1
5704.57
5704.83
5704.95
5691.14
5698.24
5701.53
5703.21
5704.09
5704.56
5704.82
5704.95
5691.15
5698.24
5701.54
5703.21
5704.09
5704.56
5704.82
5704.95
5691.21
5698.27
5701.55
5703.22
5704.1
5704.57
5704.83
5704.97
5691.27
5698.32
5701.59
5703.25
5704.13
5704.6
5704.85
5704.98
5691.37
5698.4
5701.65
5703.3
5704.17
5704.64
5704.89
5705.01
5691.51
5698.51
5701.74
5703.37
5704.22
5704.67
5704.91
5705.03
5698.57
5700.42
5701.77
5702.75
5703.47
5703.99
5704.36
5704.61
5698.58
5700.35
5701.67
5702.63
5703.32
5703.82
5704.18
5704.41
5698.75
5700.43
5701.65
5702.55
5703.21
5703.69
5704.03
5704.26
5699.03
5700.69
5701.9
5702.74
5703.36
5703.81
5704.13
5704.37
5698.53
5700.23
5701.48
5702.4
5703.07
5703.57
5703.92
5704.17
5698.38
5700.18
5701.49
5702.46
5703.17
5703.69
5704.05
5704.28
5698.43
5700.27
5701.61
5702.59
5703.3
5703.82
5704.19
5704.44
5702.05
5702.73
5703.27
5703.7
5704.04
5704.31
5704.52
5704.66
5702.03
5702.74
5703.27
5703.68
5703.97
5704.21
5704.4
5704.54
5702.06
5702.71
5703.21
5703.6
5703.91
5704.14
5704.32
5704.46
5702.12
5702.76
5703.26
5703.65
5703.94
5704.19
5704.38
5704.52
5701.9
5702.56
5703.09
5703.49
5703.81
5704.05
5704.23
5704.36
5701.83
5702.55
5703.1
5703.52
5703.84
5704.09
5704.29
5704.42
5701.84
5702.54
5703.1
5703.54
5703.89
5704.17
5704.38
5704.52
5704.38
5704.46
5704.6
5704.73
5704.84
5704.92
5704.98
5705.02
5704.38
5704.38
5704.48
5704.59
5704.66
5704.74
5704.83
5704.89
5704.41
5704.38
5704.49
5704.61
5704.7
5704.77
5704.8
5704.8
5704.43
5704.38
5704.42
5704.51
5704.6
5704.7
5704.77
5704.82
5704.23
5704.22
5704.3
5704.41
5704.53
5704.63
5704.69
5704.73
5704.12
5704.14
5704.2
5704.33
5704.46
5704.57
5704.71
5704.76
5704.11
5704.21
5704.37
5704.52
5704.65
5704.76
5704.83
5704.88
5708.04
5707.19
5706.53
5706.05
5705.73
5705.53
5705.41
5705.33
5707.77
5707.08
5706.45
5705.99
5705.67
5705.47
5705.33
5705.23
5707.81
5707.22
5706.64
5706.16
5705.82
5705.58
5705.33
5705.16
5707.37
5706.92
5706.45
5706.06
5705.75
5705.53
5705.37
5705.26
5707.48
5706.9
5706.38
5706
5705.71
5705.48
5705.33
5705.23
5707.29
5706.71
5706.16
5705.74
5705.51
5705.34
5705.22
5705.14
5707.55
5706.83
5706.24
5705.82
5705.54
5705.37
5705.27
5705.21
5693.41
5699.82
5702.71
5704.11
5704.81
5705.15
5705.32
5705.38
5693.64
5699.94
5702.78
5704.14
5704.82
5705.14
5705.29
5705.33
5694.01
5700.16
5702.89
5704.18
5704.87
5705.21
5705.36
5705.37
5694.68
5700.64
5703.2
5704.38
5705.01
5705.32
5705.43
5705.45
5693.92
5700.02
5702.74
5704.07
5704.79
5705.14
5705.29
5705.34
5693.27
5699.67
5702.6
5704
5704.69
5705.03
5705.19
5705.25
5692.84
5699.42
5702.41
5703.88
5704.62
5704.99
5705.17
5705.25
5698.16
5700.06
5701.46
5702.49
5703.23
5703.77
5704.15
5704.41
5698.28
5700.13
5701.46
5702.46
5703.17
5703.66
5704.02
5704.26
5698.33
5700.12
5701.41
5702.34
5703.04
5703.53
5703.88
5704.11
5698.21
5700.01
5701.3
5702.23
5702.92
5703.41
5703.76
5704.01
5697.9
5699.7
5701.09
5702.11
5702.85
5703.36
5703.71
5703.96
5697.79
5699.77
5701.18
5702.21
5702.95
5703.46
5703.83
5704.08
5697.89
5699.81
5701.21
5702.23
5702.97
5703.5
5703.86
5704.11
5701.81
5702.52
5703.09
5703.53
5703.89
5704.16
5704.37
5704.52
5701.84
5702.53
5703.08
5703.51
5703.84
5704.09
5704.28
5704.42
5701.73
5702.46
5703.07
5703.51
5703.83
5704.07
5704.25
5704.38
5701.6
5702.29
5702.85
5703.28
5703.62
5703.89
5704.09
5704.23
5701.6
5702.33
5702.87
5703.29
5703.62
5703.86
5704.03
5704.16
5701.67
5702.34
5702.89
5703.32
5703.65
5703.91
5704.11
5704.25
5701.57
5702.28
5702.85
5703.3
5703.65
5703.93
5704.13
5704.27
5704.05
5704.19
5704.37
5704.53
5704.67
5704.77
5704.84
5704.89
5704
5704.14
5704.32
5704.49
5704.61
5704.71
5704.77
5704.81
5704
5704.1
5704.28
5704.47
5704.6
5704.69
5704.76
5704.78
5703.83
5703.97
5704.17
5704.35
5704.48
5704.57
5704.63
5704.66
5703.74
5703.88
5704.08
5704.26
5704.4
5704.5
5704.57
5704.58
5703.68
5703.84
5704.06
5704.25
5704.4
5704.51
5704.59
5704.63
5703.65
5703.82
5704.04
5704.24
5704.39
5704.51
5704.59
5704.64
5707.58
5706.83
5706.23
5705.8
5705.53
5705.36
5705.26
5705.2
5707.47
5706.77
5706.18
5705.77
5705.5
5705.33
5705.23
5705.16
5707.26
5706.7
5706.13
5705.73
5705.46
5705.3
5705.22
5705.16
5707.06
5706.58
5706.08
5705.68
5705.41
5705.26
5705.17
5705.11
5706.9
5706.39
5705.89
5705.52
5705.28
5705.14
5705.06
5705.01
5706.85
5706.31
5705.81
5705.46
5705.23
5705.1
5705.02
5704.97
5706.79
5706.23
5705.74
5705.4
5705.19
5705.06
5704.99
5704.96
5692.55
5699.23
5702.28
5703.79
5704.56
5704.95
5705.15
5705.23
5692.39
5699.12
5702.19
5703.72
5704.5
5704.9
5705.11
5705.2
5692.25
5699.01
5702.1
5703.64
5704.44
5704.86
5705.08
5705.19
5692.14
5698.91
5702.02
5703.59
5704.4
5704.84
5705.07
5705.18
5691.78
5698.66
5701.83
5703.43
5704.26
5704.71
5704.94
5705.06
5691.54
5698.51
5701.73
5703.35
5704.2
5704.65
5704.89
5705.01
5691.29
5698.36
5701.62
5703.28
5704.14
5704.6
5704.85
5704.97
5698.08
5699.97
5701.36
5702.37
5703.11
5703.63
5704.01
5704.26
5698.15
5699.93
5701.29
5702.28
5702.99
5703.5
5703.85
5704.1
5698.36
5700.04
5701.31
5702.24
5702.93
5703.42
5703.78
5704.03
5698.74
5700.45
5701.68
5702.55
5703.18
5703.64
5703.97
5704.22
5698.72
5700.42
5701.66
5702.56
5703.21
5703.67
5704
5704.23
5698.6
5700.34
5701.65
5702.62
5703.32
5703.82
5704.18
5704.42
5698.52
5700.36
5701.71
5702.7
5703.43
5703.96
5704.34
5704.59
5701.64
5702.34
5702.9
5703.35
5703.71
5704
5704.21
5704.36
5701.62
5702.35
5702.88
5703.3
5703.63
5703.9
5704.1
5704.24
5701.62
5702.3
5702.84
5703.27
5703.61
5703.87
5704.07
5704.22
5701.86
5702.52
5703.04
5703.45
5703.78
5704.03
5704.23
5704.38
5701.95
5702.6
5703.15
5703.57
5703.89
5704.13
5704.32
5704.45
5701.93
5702.67
5703.22
5703.63
5703.95
5704.2
5704.4
5704.54
5702.02
5702.71
5703.25
5703.68
5704.03
5704.3
5704.51
5704.66
5703.68
5703.87
5704.1
5704.3
5704.46
5704.58
5704.66
5704.72
5703.69
5703.79
5703.97
5704.16
5704.32
5704.44
5704.53
5704.59
5703.86
5703.93
5704.08
5704.25
5704.4
5704.5
5704.57
5704.57
5704.07
5704.08
5704.2
5704.34
5704.46
5704.56
5704.64
5704.69
5704.29
5704.32
5704.44
5704.6
5704.71
5704.79
5704.84
5704.87
5704.3
5704.32
5704.44
5704.57
5704.68
5704.77
5704.84
5704.89
5704.35
5704.44
5704.58
5704.72
5704.83
5704.91
5704.98
5705.01
5706.96
5706.36
5705.86
5705.5
5705.28
5705.14
5705.07
5705.03
5706.92
5706.42
5705.92
5705.55
5705.3
5705.14
5705.05
5704.98
5707.04
5706.63
5706.18
5705.79
5705.5
5705.31
5705.19
5705.11
5707.14
5706.81
5706.37
5705.98
5705.68
5705.47
5705.32
5705.22
5707.58
5707.03
5706.49
5706.02
5705.7
5705.49
5705.36
5705.28
5707.75
5707.03
5706.41
5705.96
5705.65
5705.45
5705.33
5705.25
5708.01
5707.17
5706.5
5706.03
5705.72
5705.52
5705.41
5705.33
5691.83
5698.73
5701.9
5703.48
5704.31
5704.74
5704.96
5705.07
5692.34
5699.06
5702.12
5703.64
5704.41
5704.81
5705.01
5705.09
5692.98
5699.46
5702.4
5703.85
5704.58
5704.95
5705.14
5705.22
5693.86
5700.03
5702.83
5704.19
5704.87
5705.21
5705.36
5705.4
5693.5
5699.81
5702.66
5704.05
5704.75
5705.1
5705.27
5705.35
5693.35
5699.76
5702.65
5704.05
5704.76
5705.11
5705.27
5705.34
5693.33
5699.76
5702.66
5704.08
5704.79
5705.14
5705.3
5705.37
5704.22
5704.29
5704.34
5704.37
5704.4
5704.42
5704.44
5704.46
5704.21
5704.28
5704.33
5704.37
5704.4
5704.42
5704.44
5704.46
5704.22
5704.29
5704.34
5704.38
5704.41
5704.43
5704.45
5704.47
5704.24
5704.31
5704.36
5704.4
5704.43
5704.45
5704.47
5704.49
5704.28
5704.35
5704.4
5704.43
5704.46
5704.48
5704.5
5704.52
5704.33
5704.4
5704.45
5704.48
5704.5
5704.52
5704.54
5704.56
5704.38
5704.44
5704.48
5704.51
5704.53
5704.55
5704.56
5704.58
5704.35
5704.39
5704.43
5704.45
5704.47
5704.48
5704.49
5704.5
5704.35
5704.4
5704.43
5704.46
5704.47
5704.49
5704.5
5704.51
5704.36
5704.41
5704.44
5704.47
5704.48
5704.5
5704.51
5704.52
5704.39
5704.43
5704.46
5704.49
5704.51
5704.52
5704.54
5704.55
5704.41
5704.46
5704.49
5704.51
5704.53
5704.54
5704.56
5704.56
5704.44
5704.49
5704.52
5704.54
5704.56
5704.57
5704.58
5704.59
5704.45
5704.5
5704.54
5704.56
5704.58
5704.59
5704.59
5704.61
5704.66
5704.68
5704.7
5704.71
5704.72
5704.73
5704.73
5704.73
5704.67
5704.69
5704.7
5704.71
5704.72
5704.73
5704.73
5704.73
5704.67
5704.69
5704.71
5704.72
5704.73
5704.74
5704.74
5704.74
5704.7
5704.72
5704.73
5704.75
5704.76
5704.76
5704.76
5704.76
5704.72
5704.74
5704.76
5704.77
5704.78
5704.79
5704.79
5704.79
5704.75
5704.77
5704.79
5704.8
5704.81
5704.82
5704.82
5704.82
5704.75
5704.78
5704.8
5704.81
5704.82
5704.83
5704.84
5704.84
5704.93
5704.93
5704.93
5704.93
5704.94
5704.94
5704.94
5704.93
5704.93
5704.93
5704.93
5704.94
5704.94
5704.94
5704.94
5704.94
5704.93
5704.94
5704.94
5704.95
5704.95
5704.95
5704.95
5704.95
5704.95
5704.96
5704.96
5704.97
5704.97
5704.97
5704.97
5704.97
5704.97
5704.97
5704.98
5704.98
5704.99
5704.99
5704.99
5704.99
5705
5705
5705
5705.01
5705.01
5705.01
5705.02
5705.01
5705
5705
5705.01
5705.01
5705.01
5705.01
5705.01
5705.01
5705.01
5705.04
5705.07
5705.08
5705.09
5705.1
5705.1
5705.1
5705.01
5705.04
5705.07
5705.09
5705.1
5705.11
5705.11
5705.1
5705.01
5705.05
5705.07
5705.09
5705.11
5705.11
5705.11
5705.11
5705.03
5705.07
5705.09
5705.11
5705.12
5705.13
5705.13
5705.13
5705.04
5705.08
5705.11
5705.13
5705.14
5705.14
5705.15
5705.14
5705.07
5705.11
5705.13
5705.15
5705.16
5705.16
5705.16
5705.16
5705.08
5705.11
5705.14
5705.15
5705.16
5705.16
5705.16
5705.16
5704.74
5704.81
5704.85
5704.88
5704.89
5704.9
5704.9
5704.91
5704.54
5704.62
5704.67
5704.71
5704.74
5704.76
5704.78
5704.8
5704.39
5704.48
5704.55
5704.6
5704.65
5704.68
5704.71
5704.73
5704.51
5704.6
5704.67
5704.73
5704.78
5704.81
5704.84
5704.86
5704.31
5704.4
5704.47
5704.53
5704.57
5704.61
5704.63
5704.66
5704.41
5704.49
5704.54
5704.58
5704.61
5704.64
5704.65
5704.68
5704.57
5704.64
5704.68
5704.71
5704.73
5704.74
5704.74
5704.76
5704.74
5704.79
5704.83
5704.85
5704.87
5704.88
5704.88
5704.88
5704.63
5704.66
5704.69
5704.72
5704.76
5704.78
5704.79
5704.8
5704.53
5704.57
5704.61
5704.66
5704.7
5704.73
5704.75
5704.77
5704.61
5704.67
5704.71
5704.75
5704.79
5704.81
5704.83
5704.84
5704.44
5704.49
5704.53
5704.58
5704.62
5704.65
5704.67
5704.69
5704.5
5704.55
5704.59
5704.62
5704.65
5704.67
5704.68
5704.7
5704.61
5704.66
5704.69
5704.72
5704.74
5704.75
5704.75
5704.76
5705.04
5705.05
5705.06
5705.07
5705.07
5705.08
5705.08
5705.08
5704.92
5704.94
5704.94
5704.91
5704.92
5704.92
5704.97
5704.98
5704.79
5704.81
5704.86
5704.88
5704.89
5704.9
5704.9
5704.91
5704.86
5704.87
5704.91
5704.94
5704.96
5704.98
5704.98
5704.99
5704.73
5704.68
5704.74
5704.79
5704.8
5704.8
5704.82
5704.83
5704.8
5704.82
5704.83
5704.83
5704.81
5704.82
5704.86
5704.87
5704.91
5704.92
5704.94
5704.95
5704.96
5704.96
5704.97
5704.97
5705.3
5705.28
5705.27
5705.26
5705.25
5705.24
5705.24
5705.24
5705.18
5705.18
5705.17
5705.16
5705.12
5705.04
5705.04
5705.04
5705.1
5705.07
5705.17
5705.14
5705.11
5705.13
5705.13
5705.12
5705.2
5705.15
5705.11
5705.13
5705.14
5705.14
5705.14
5705.14
5705.15
5704.95
5704.92
5704.9
5704.93
5705.07
5705.06
5705.06
5705.1
5705.07
5705.06
5705.05
5705.01
5704.91
5704.91
5704.9
5705.18
5705.16
5705.16
5705.15
5705.14
5705.14
5705.14
5705.13
5705.4
5705.4
5705.41
5705.4
5705.4
5705.4
5705.39
5705.39
5705.32
5705.33
5705.33
5705.33
5705.32
5705.28
5705.18
5705.16
5705.31
5705.28
5705.2
5705.14
5705.12
5705.1
5705.24
5705.34
5705.43
5705.4
5705.35
5705.29
5705.32
5705.32
5705.31
5705.31
5705.35
5705.35
5705.27
5705.08
5705.01
5704.99
5704.98
5705.08
5705.26
5705.26
5705.25
5705.23
5705.21
5705.18
5705.1
5705.06
5705.28
5705.29
5705.3
5705.3
5705.3
5705.3
5705.3
5705.29
5704.53
5704.6
5704.65
5704.68
5704.69
5704.71
5704.72
5704.73
5704.39
5704.46
5704.51
5704.54
5704.57
5704.59
5704.6
5704.62
5704.24
5704.33
5704.39
5704.44
5704.48
5704.51
5704.53
5704.55
5704.16
5704.26
5704.33
5704.39
5704.44
5704.48
5704.5
5704.52
5704.1
5704.18
5704.26
5704.31
5704.35
5704.39
5704.41
5704.43
5704.2
5704.27
5704.32
5704.36
5704.39
5704.41
5704.43
5704.45
5704.23
5704.3
5704.35
5704.39
5704.41
5704.43
5704.45
5704.47
5704.6
5704.65
5704.69
5704.71
5704.73
5704.73
5704.74
5704.75
5704.5
5704.54
5704.57
5704.6
5704.62
5704.64
5704.67
5704.68
5704.44
5704.49
5704.53
5704.57
5704.6
5704.62
5704.64
5704.65
5704.31
5704.38
5704.44
5704.48
5704.52
5704.54
5704.56
5704.57
5704.25
5704.3
5704.36
5704.41
5704.43
5704.47
5704.48
5704.5
5704.33
5704.37
5704.4
5704.43
5704.45
5704.47
5704.49
5704.5
5704.35
5704.4
5704.44
5704.46
5704.48
5704.49
5704.5
5704.51
5704.91
5704.93
5704.94
5704.95
5704.96
5704.97
5704.96
5704.96
5704.83
5704.85
5704.86
5704.86
5704.85
5704.85
5704.85
5704.87
5704.77
5704.79
5704.8
5704.8
5704.85
5704.87
5704.87
5704.87
5704.65
5704.7
5704.75
5704.76
5704.77
5704.78
5704.79
5704.79
5704.59
5704.62
5704.65
5704.64
5704.65
5704.71
5704.7
5704.71
5704.66
5704.68
5704.7
5704.69
5704.69
5704.7
5704.7
5704.72
5704.67
5704.69
5704.71
5704.72
5704.73
5704.74
5704.74
5704.74
5705.18
5705.17
5705.16
5705.15
5705.15
5705.15
5705.14
5705.14
5705.14
5705.12
5705.11
5705.11
5705.1
5705.08
5705.05
5705.05
5705.14
5705.13
5705.09
5705.06
5705.05
5705.05
5705.04
5705.08
5705.08
5705.09
5705.08
5705.06
5705.05
5705.04
5705.04
5705.03
5704.98
5704.98
5704.97
5704.93
5704.88
5704.86
5704.85
5704.85
5704.95
5704.95
5704.94
5704.94
5704.94
5704.91
5704.89
5704.87
5704.94
5704.94
5704.94
5704.94
5704.94
5704.94
5704.94
5704.94
5705.27
5705.28
5705.29
5705.3
5705.3
5705.3
5705.3
5705.3
5705.24
5705.26
5705.27
5705.28
5705.28
5705.28
5705.27
5705.26
5705.24
5705.27
5705.29
5705.3
5705.31
5705.28
5705.25
5705.24
5705.22
5705.22
5705.24
5705.25
5705.24
5705.25
5705.25
5705.25
5705.1
5705.13
5705.16
5705.17
5705.17
5705.17
5705.1
5705.04
5705.06
5705.08
5705.1
5705.11
5705.12
5705.12
5705.12
5705.11
5705.03
5705.06
5705.08
5705.1
5705.1
5705.11
5705.11
5705.1
5704.39
5704.46
5704.5
5704.53
5704.55
5704.56
5704.58
5704.6
5704.22
5704.29
5704.35
5704.39
5704.43
5704.46
5704.48
5704.51
5704.17
5704.27
5704.34
5704.4
5704.45
5704.49
5704.52
5704.55
5704.37
5704.46
5704.54
5704.6
5704.65
5704.68
5704.71
5704.73
5704.36
5704.44
5704.51
5704.56
5704.6
5704.63
5704.65
5704.68
5704.54
5704.61
5704.66
5704.7
5704.72
5704.74
5704.76
5704.78
5704.72
5704.8
5704.84
5704.87
5704.88
5704.89
5704.89
5704.91
5704.45
5704.5
5704.54
5704.56
5704.58
5704.6
5704.6
5704.62
5704.3
5704.35
5704.39
5704.44
5704.47
5704.5
5704.51
5704.53
5704.28
5704.33
5704.41
5704.46
5704.5
5704.54
5704.56
5704.59
5704.48
5704.54
5704.59
5704.64
5704.68
5704.7
5704.72
5704.74
5704.52
5704.57
5704.6
5704.63
5704.66
5704.69
5704.71
5704.73
5704.62
5704.67
5704.69
5704.72
5704.74
5704.77
5704.78
5704.79
5704.74
5704.79
5704.82
5704.85
5704.86
5704.87
5704.87
5704.88
5704.75
5704.78
5704.79
5704.81
5704.82
5704.83
5704.84
5704.84
5704.63
5704.64
5704.61
5704.62
5704.63
5704.65
5704.71
5704.72
5704.59
5704.61
5704.66
5704.69
5704.69
5704.69
5704.72
5704.73
5704.72
5704.75
5704.8
5704.83
5704.85
5704.87
5704.88
5704.89
5704.88
5704.88
5704.85
5704.85
5704.89
5704.9
5704.9
5704.91
5704.91
5704.93
5704.94
5704.93
5704.94
5704.95
5704.96
5704.98
5705.04
5705.05
5705.06
5705.07
5705.08
5705.08
5705.09
5705.09
5705.01
5705.01
5705.01
5705.01
5705.01
5705.01
5705.01
5705
5704.95
5704.94
5704.93
5704.9
5704.8
5704.76
5704.76
5704.76
5705.06
5705.03
5704.88
5704.83
5704.87
5704.98
5704.96
5704.95
5705.15
5705.1
5705.08
5705.08
5705.07
5705.07
5705.07
5705.07
5705.24
5705.15
5705.06
5705.04
5705.03
5705.07
5705.14
5705.14
5705.21
5705.19
5705.17
5705.16
5705.14
5705.11
5705.09
5705.09
5705.3
5705.28
5705.27
5705.26
5705.25
5705.25
5705.24
5705.24
5705.11
5705.14
5705.16
5705.17
5705.17
5705.17
5705.17
5705.16
5705.12
5705.14
5705.14
5705.13