/*--------------------------------*- C++ -*----------------------------------*\
| =========                 |                                                 |
| \\      /  F ield         | OpenFOAM: The Open Source CFD Toolbox           |
|  \\    /   O peration     | Version:  plus.master                           |
|   \\  /    A nd           | Web:      www.OpenFOAM.com                      |
|    \\/     M anipulation  |                                                 |
\*---------------------------------------------------------------------------*/
FoamFile
{
    version     2.0;
    format      ascii;
    class       surfaceScalarField;
    location    "13.8";
    object      phi;
}
// * * * * * * * * * * * * * * * * * * * * * * * * * * * * * * * * * * * * * //

dimensions      [0 3 -1 0 0 0 0];

internalField   nonuniform List<scalar> 
138768
(
1.42417e-06
3.07931e-06
1.02771e-07
-1.88245e-06
-2.98874e-06
2.41813e-07
3.6133e-06
4.15579e-07
-3.18932e-06
-9.85838e-07
3.23876e-06
7.92737e-07
-3.1522e-06
-1.80112e-06
2.63616e-06
8.13533e-07
-2.84435e-06
-2.56205e-06
3.0214e-06
4.38509e-07
-2.75052e-06
-2.95447e-06
2.78093e-06
1.37975e-07
-2.53342e-06
2.28705e-06
1.97054e-08
-2.98589e-06
-2.33857e-06
2.27813e-06
2.54655e-06
4.43434e-07
-2.18856e-06
3.14693e-06
7.02253e-06
2.39156e-06
-3.15374e-07
1.03316e-05
3.0386e-06
-3.21469e-06
8.75226e-06
3.45235e-06
-6.46734e-06
1.00677e-05
2.87549e-06
-3.35036e-06
4.65773e-06
1.67515e-06
1.52345e-06
1.091e-07
-3.0647e-06
2.66967e-06
1.2001e-06
9.45015e-07
-2.30282e-06
9.01568e-06
3.07494e-06
4.27082e-06
5.18046e-06
8.057e-06
1.27788e-05
-8.41367e-06
1.32405e-05
1.57734e-05
-1.05699e-05
7.46959e-06
1.1421e-05
-3.19958e-06
1.59923e-06
2.35564e-06
7.42814e-07
3.68361e-07
-3.11203e-06
2.64024e-06
-2.16271e-07
1.27896e-06
-2.6587e-06
9.43855e-06
-1.39313e-06
4.33893e-06
1.14261e-05
-6.51402e-06
1.92507e-05
-1.43918e-05
-1.09119e-05
5.66344e-05
-8.58146e-06
-5.33223e-06
1.36603e-05
-2.55326e-06
-6.00631e-07
2.84053e-06
4.85373e-08
5.86557e-07
-2.79534e-06
2.90372e-06
-1.6019e-06
1.04002e-06
-2.58114e-06
9.86169e-06
-5.68398e-06
4.00194e-06
6.5337e-06
-1.02808e-05
1.37607e-05
-9.32917e-06
-9.27907e-06
2.08893e-05
-1.01949e-05
-8.9879e-06
1.11892e-05
-3.16382e-06
-3.37886e-06
2.41619e-06
-9.0374e-07
4.6527e-07
-3.17653e-06
2.72326e-06
-2.5237e-06
5.17789e-07
-2.31924e-06
4.19713e-06
-3.31692e-06
2.828e-06
5.15718e-08
-3.06576e-06
3.59941e-06
-4.15218e-06
-2.6173e-06
4.21055e-06
-7.34186e-06
-2.72457e-06
3.59511e-06
-3.57109e-06
-2.24294e-06
1.76247e-06
-1.66079e-06
1.68259e-07
-3.32442e-06
1.75538e-06
1.44735e-07
-2.11573e-06
-2.63804e-06
5.90532e-07
5.19386e-07
-2.85116e-06
-9.27017e-07
9.98308e-07
-2.89478e-06
-2.1447e-06
1.07477e-06
-2.68171e-06
-3.15215e-06
6.30648e-07
-2.35978e-06
-3.33285e-06
2.11584e-07
-2.27374e-06
1.50992e-08
-3.27719e-06
-2.10957e-06
3.33761e-08
1.52255e-06
7.24615e-07
-5.62959e-07
-1.61482e-06
-5.97128e-07
1.05679e-06
1.34327e-06
-1.35411e-06
-1.05784e-06
7.90923e-08
1.96549e-06
-7.91165e-07
-1.34684e-06
-3.46063e-07
1.98672e-06
-5.38105e-07
-1.3743e-06
-6.96364e-08
1.2929e-06
-7.5721e-07
-1.5271e-06
5.88652e-07
7.40707e-07
-1.03857e-06
6.67554e-07
5.51325e-07
-1.66507e-06
-1.06123e-06
-1.50458e-07
1.27737e-06
1.34823e-06
-5.09288e-07
-8.62015e-07
1.11063e-06
3.04917e-06
-1.05891e-06
-1.00255e-06
4.3172e-06
-1.25282e-06
-1.50434e-06
4.80464e-06
-1.36265e-06
-5.44248e-07
3.46015e-06
-1.29339e-06
3.33915e-07
1.86073e-06
3.26193e-07
7.1623e-07
-1.55909e-06
-7.77323e-07
8.61875e-07
2.2568e-06
-1.19039e-07
-1.34975e-06
7.30131e-07
5.22374e-06
-9.93284e-07
-5.62627e-07
1.19827e-05
-9.42231e-07
-1.17899e-06
1.53984e-05
4.71005e-07
5.62702e-07
8.9029e-06
-3.40235e-07
5.11589e-07
2.98966e-06
3.33079e-07
1.1129e-06
-1.09159e-06
-6.43986e-07
2.23986e-08
2.83981e-06
-7.74153e-08
-1.64026e-06
-4.70793e-08
6.1126e-06
-1.40314e-06
4.94809e-07
1.79576e-05
-4.71439e-07
1.75647e-06
5.27719e-05
6.62537e-07
2.28583e-07
1.28689e-05
4.92547e-11
2.31847e-07
3.78303e-06
3.1505e-07
1.43848e-06
-8.33821e-07
-6.1951e-07
-5.4953e-07
2.45302e-06
-2.21519e-07
-1.51582e-06
-5.22069e-07
5.3735e-06
-1.32097e-06
1.18435e-06
1.28799e-05
1.39837e-07
2.25742e-06
1.8939e-05
7.94762e-07
9.67889e-07
9.79558e-06
-2.7025e-07
4.20009e-07
3.29318e-06
2.83561e-07
1.30528e-06
-1.07876e-06
1.33492e-07
-9.65013e-07
1.52995e-06
-7.30117e-07
-4.83622e-07
-6.60442e-07
3.58374e-06
-1.0342e-06
3.01172e-07
5.03426e-06
-1.19652e-06
8.0837e-07
5.82246e-06
-1.43818e-06
5.92351e-07
4.21245e-06
-1.43221e-06
4.13413e-08
2.13518e-06
-1.19892e-07
8.2965e-07
-1.6902e-06
3.63836e-07
8.2589e-07
-8.32954e-07
-1.17703e-06
-3.37573e-07
1.57335e-06
-1.01297e-06
-1.03066e-06
2.40038e-06
-4.0782e-07
-1.58627e-06
2.51468e-06
-7.59402e-08
-1.77575e-06
1.68965e-06
-2.7718e-07
-1.86549e-06
8.88761e-07
-5.46127e-07
5.51252e-07
-1.9221e-06
-5.99499e-07
-1.28401e-07
1.15904e-06
1.70202e-06
-5.33984e-07
-1.47411e-06
-6.61403e-07
5.68894e-07
2.35072e-06
-1.04354e-06
-8.9482e-07
-5.00937e-07
3.09553e-06
-3.95733e-07
-8.39126e-07
-1.07341e-06
3.15443e-06
-1.49999e-07
-9.47486e-07
-2.42655e-07
2.31567e-06
-6.71757e-07
-1.24184e-06
4.10719e-07
1.72043e-06
-1.0961e-06
7.29229e-07
1.51783e-06
-1.62663e-06
-1.3111e-06
-6.30639e-07
8.73384e-07
2.42548e-06
-1.61118e-07
-1.20212e-06
2.23725e-07
3.96568e-06
-1.19716e-06
-1.59355e-06
5.40488e-06
-5.68885e-07
-2.78776e-06
5.89076e-06
-6.4913e-07
-8.84726e-07
4.18247e-06
-9.789e-07
9.41489e-08
2.50707e-06
2.60803e-07
1.68508e-06
-1.47944e-06
-1.25411e-06
5.77626e-07
3.51211e-06
2.94434e-07
-2.07918e-06
1.1268e-07
6.15975e-06
-1.58697e-06
-1.1345e-06
1.10315e-05
2.7956e-07
-3.49742e-06
1.42422e-05
7.38122e-07
-1.67324e-07
7.72754e-06
-1.98579e-07
2.98596e-07
3.72219e-06
1.94002e-07
2.02256e-06
-1.0413e-06
-1.55165e-06
1.40593e-07
4.29381e-06
5.34589e-07
-3.25791e-06
3.63246e-07
7.56833e-06
-5.38578e-06
1.33608e-06
1.76158e-05
1.19485e-07
4.98692e-06
3.87834e-05
1.01188e-06
5.50849e-07
1.12472e-05
1.34048e-07
2.93035e-07
4.66632e-06
2.52283e-07
2.34245e-06
-8.28233e-07
-1.19901e-06
-2.34406e-07
3.76302e-06
2.63955e-07
-2.20142e-06
2.17753e-07
6.52161e-06
-2.06918e-06
1.90662e-06
1.21785e-05
9.57931e-07
3.55407e-06
1.73625e-05
1.11597e-06
1.458e-06
8.72971e-06
-1.92537e-08
6.07589e-07
4.11382e-06
2.81033e-07
2.20145e-06
-9.44201e-07
-3.84544e-07
-6.45372e-07
2.67908e-06
-3.53707e-07
-9.8637e-07
-8.45415e-08
4.48783e-06
-1.20814e-06
9.47198e-07
6.21441e-06
-5.08259e-07
1.70113e-06
6.9753e-06
-6.85218e-07
8.81103e-07
4.96632e-06
-1.09065e-06
2.48876e-07
2.89931e-06
-1.8118e-07
1.77422e-06
-1.57302e-06
1.13454e-07
1.83249e-06
-7.3624e-07
-1.02909e-06
-4.94227e-07
2.69192e-06
-5.95264e-07
-9.69751e-07
3.66935e-06
1.53628e-07
-1.07288e-06
3.83403e-06
4.84871e-07
-1.27399e-06
2.79967e-06
-2.78301e-08
-1.51866e-06
1.88371e-06
-5.01389e-07
1.52845e-06
-1.81889e-06
-8.58128e-07
6.829e-07
1.65347e-06
3.36273e-06
-1.68479e-06
-2.31233e-06
-8.56447e-08
1.13823e-06
3.87879e-06
-1.8977e-06
-5.01295e-07
1.80792e-07
4.56948e-06
-1.23907e-06
-6.10748e-07
-3.17777e-07
4.6418e-06
-1.06017e-06
-1.09484e-06
6.83189e-07
3.86601e-06
-1.74947e-06
-1.82252e-06
1.34967e-06
3.37948e-06
-2.28103e-06
1.67645e-06
3.18579e-06
-2.61165e-06
-2.55539e-06
-4.90252e-09
1.10318e-06
3.99558e-06
-1.01486e-06
-7.34948e-07
5.08006e-07
5.32604e-06
-1.00413e-06
-8.37523e-07
6.69235e-06
-4.53859e-07
-2.00288e-06
7.02552e-06
-9.64325e-07
-4.52773e-08
5.42129e-06
-1.65437e-06
6.34177e-07
3.91244e-06
8.62818e-07
3.34398e-06
-2.50001e-06
-6.44262e-07
5.54067e-07
5.0699e-06
-3.64369e-07
-1.50386e-06
1.03671e-07
7.42367e-06
-1.45481e-06
-9.97523e-07
1.11423e-05
2.2409e-07
-2.67764e-06
1.32374e-05
-1.75411e-07
1.33814e-08
8.06767e-06
-1.17754e-06
4.04879e-07
4.95363e-06
3.40521e-07
3.58441e-06
-2.21713e-06
-1.23928e-06
5.76886e-08
5.92103e-06
1.08382e-07
-2.98177e-06
3.9345e-07
9.02085e-06
-5.30313e-06
1.30249e-06
1.76364e-05
-3.52832e-07
3.984e-06
2.71678e-05
-6.91812e-08
3.99703e-07
1.05656e-05
-9.83033e-07
1.23612e-07
5.86122e-06
-4.87316e-08
3.82993e-06
-2.08132e-06
-6.40337e-07
-5.31731e-07
5.32963e-06
-3.36945e-07
-1.62246e-06
2.4145e-08
7.87274e-06
-1.94491e-06
1.28563e-06
1.25162e-05
5.62526e-07
2.85722e-06
1.59871e-05
5.79421e-08
7.23693e-07
8.90956e-06
-1.01956e-06
3.51275e-09
5.31135e-06
-4.37639e-07
3.7042e-06
-2.13335e-06
1.52472e-07
-1.18212e-06
4.25146e-06
-1.0747e-06
-6.1791e-07
-5.6733e-07
5.84922e-06
-1.0635e-06
3.75398e-07
7.56902e-06
-5.04723e-07
1.14998e-06
8.12325e-06
-1.07284e-06
1.03762e-07
6.15433e-06
-1.76036e-06
-6.58924e-07
4.24929e-06
-1.26801e-06
3.40274e-06
-2.55836e-06
8.01717e-07
3.48129e-06
-1.71676e-06
-1.916e-06
-9.85674e-09
4.22777e-06
-1.29172e-06
-6.48093e-07
5.17413e-06
-4.91384e-07
-8.72046e-07
5.34673e-06
-1.38839e-07
-1.38121e-06
4.32222e-06
-9.09659e-07
-1.99659e-06
3.51453e-06
-1.67431e-06
3.20445e-06
-2.6904e-06
-2.25009e-06
1.73743e-06
2.2669e-06
-2.93986e-06
-3.09199e-06
5.39024e-06
6.78518e-07
2.0267e-06
-2.91504e-06
5.82605e-06
-1.16294e-07
1.42755e-06
-2.49463e-06
6.43136e-06
-6.67186e-07
1.07393e-06
-2.38368e-06
6.50237e-06
-1.50387e-06
1.93079e-06
-3.00025e-06
5.77216e-06
-2.46512e-06
2.39604e-06
-3.3866e-06
5.33135e-06
2.52211e-06
-3.40836e-06
-3.52368e-06
5.13061e-06
1.06412e-06
1.50647e-06
-2.28085e-06
5.97271e-06
3.39711e-08
1.25468e-06
7.12831e-06
-6.17884e-07
4.06713e-07
8.36501e-06
-8.18469e-07
-2.39566e-07
8.53958e-06
-1.6077e-06
1.0302e-06
7.11119e-06
-2.51333e-06
1.46001e-06
5.75415e-06
1.51387e-06
-3.44865e-06
5.28752e-06
4.227e-07
6.8555e-07
-1.54816e-06
7.01634e-06
-4.51139e-07
4.29025e-07
9.12313e-06
-1.07915e-06
-6.55322e-08
1.22424e-05
-6.1996e-07
-7.64994e-07
1.33035e-05
-1.44553e-06
5.54125e-07
9.36931e-06
-2.39403e-06
6.8377e-07
6.67865e-06
5.72837e-07
-3.37336e-06
5.50502e-06
-1.36645e-07
-1.48658e-07
-9.87729e-07
7.87962e-06
-1.55167e-06
1.10621e-07
1.07542e-05
-3.56335e-06
7.37999e-07
1.88443e-05
-1.17329e-06
1.97925e-06
2.20315e-05
-1.49872e-06
1.27592e-07
1.13141e-05
-2.36229e-06
-1.35624e-07
7.54419e-06
-3.39935e-07
-3.34425e-06
5.72477e-06
4.02387e-07
-1.04824e-06
-1.4617e-06
7.28849e-06
-5.63907e-07
-6.68367e-07
9.61778e-06
-1.44528e-06
1.66436e-07
1.39688e-05
-5.38149e-07
1.19733e-06
1.58656e-05
-1.31367e-06
-2.73242e-07
1.00856e-05
-2.31535e-06
-8.34484e-07
7.01184e-06
-1.23612e-06
-3.32325e-06
5.60824e-06
1.12541e-06
-1.94111e-06
-2.22228e-06
6.24103e-06
1.0482e-07
-1.48033e-06
7.68121e-06
-7.50803e-07
-7.00272e-07
9.2906e-06
-9.32598e-07
-1.39458e-07
9.64171e-06
-1.76627e-06
-1.10248e-06
7.81719e-06
-2.5797e-06
-1.83625e-06
6.06435e-06
-2.30985e-06
-3.46151e-06
5.35816e-06
1.71981e-06
-2.824e-06
-2.8906e-06
5.53466e-06
6.68653e-07
-2.39473e-06
6.19298e-06
-2.52553e-07
-1.67733e-06
7.07218e-06
-8.81116e-07
-1.38518e-06
7.22101e-06
-1.68306e-06
-2.20358e-06
6.22516e-06
-2.52043e-06
-2.96528e-06
5.48075e-06
-3.36813e-06
-3.43593e-06
5.17809e-06
-3.60603e-06
-1.2139e-07
1.58029e-08
3.89307e-07
-3.90769e-06
-4.7137e-07
3.10681e-08
4.54807e-07
-3.88039e-06
-3.52832e-07
5.03476e-08
3.91558e-07
-3.99102e-06
-2.20055e-07
6.00919e-08
3.3611e-07
-4.12219e-06
-1.64035e-07
6.266e-08
3.05303e-07
-4.25522e-06
-1.3189e-07
5.73418e-08
2.81665e-07
-4.37721e-06
-1.0881e-07
4.44635e-08
2.59768e-07
-9.10562e-08
2.56435e-08
2.40255e-07
-4.48988e-06
-3.65802e-06
8.2736e-08
7.69633e-09
-3.85535e-06
-2.43588e-07
3.34084e-08
-3.87033e-06
-2.10097e-07
6.51625e-08
-3.94965e-06
-9.22794e-08
8.55746e-08
-4.07378e-06
-5.10679e-08
9.37868e-08
-4.1859e-06
-3.59818e-08
9.1461e-08
-4.26917e-06
-2.69994e-08
7.86689e-08
-2.242e-08
5.69334e-08
-4.34047e-06
-3.69412e-06
1.45779e-07
1.56318e-08
-3.89012e-06
-6.53671e-08
2.12565e-08
-3.86154e-06
1.69924e-09
6.65471e-08
-3.95267e-06
5.80298e-08
9.79467e-08
-4.07414e-06
5.74035e-08
1.07718e-07
-4.18506e-06
4.99094e-08
1.05677e-07
-4.26352e-06
4.13022e-08
9.0234e-08
3.27084e-08
6.44647e-08
-4.32108e-06
-3.44831e-06
2.08355e-07
4.26567e-08
-3.72743e-06
2.5535e-07
2.52853e-08
-3.7502e-06
2.8408e-07
6.64759e-08
-3.8373e-06
1.65038e-07
9.46605e-08
-3.96015e-06
1.24366e-07
1.06098e-07
-4.06493e-06
1.06553e-07
1.05807e-07
-4.13758e-06
9.18485e-08
9.33597e-08
7.85376e-08
7.02746e-08
-4.18275e-06
-3.82463e-06
4.05168e-07
3.10758e-08
-3.93382e-06
6.18788e-07
2.75244e-08
-3.94795e-06
4.18103e-07
5.83202e-08
-4.04991e-06
3.07006e-07
8.23663e-08
-4.16574e-06
2.57282e-07
9.04342e-08
-4.28111e-06
2.20207e-07
8.5654e-08
-4.37599e-06
1.91213e-07
6.89355e-08
1.68927e-07
4.25927e-08
-4.44262e-06
-3.8733e-06
4.95622e-07
4.58912e-09
-4.00758e-06
6.91577e-07
2.04711e-08
-4.01765e-06
5.82575e-07
4.80355e-08
-4.10099e-06
4.74515e-07
6.7952e-08
-4.21986e-06
4.03156e-07
7.24417e-08
-4.33555e-06
3.54706e-07
6.60547e-08
-4.43976e-06
3.17709e-07
4.97705e-08
2.87465e-07
2.61374e-08
-4.53743e-06
-3.84416e-06
8.09647e-09
6.81389e-07
-3.96157e-06
2.63209e-08
8.32295e-07
-3.95565e-06
4.322e-08
6.93396e-07
-4.06313e-06
4.88426e-08
5.93811e-07
-4.19577e-06
4.67737e-08
5.46264e-07
-4.33017e-06
3.6523e-08
5.18357e-07
-4.46409e-06
1.94098e-08
4.95811e-07
-1.43331e-09
4.75235e-07
-4.58672e-06
-2.09201e-06
-1.51325e-07
3.16412e-07
2.77474e-07
-2.55548e-06
-1.10201e-07
3.52829e-07
2.48973e-07
-3.01178e-06
-8.19944e-08
3.66237e-07
2.18768e-07
-3.44145e-06
-6.17777e-08
3.54719e-07
1.92949e-07
-3.82657e-06
-4.92437e-08
3.21687e-07
1.71857e-07
-4.15573e-06
-4.07561e-08
2.70466e-07
1.54164e-07
-4.42328e-06
-3.45038e-08
2.05976e-07
1.38867e-07
-2.97566e-08
1.33931e-07
1.25541e-07
-4.62811e-06
-2.03297e-06
-9.36738e-08
4.23181e-07
-2.52595e-06
-4.64761e-08
4.59054e-07
-3.00883e-06
-1.5384e-08
4.75854e-07
-3.45613e-06
3.48264e-09
4.62072e-07
-3.84777e-06
1.0576e-08
4.20456e-07
-4.17057e-06
1.37048e-08
3.55612e-07
-4.41814e-06
1.47418e-08
2.74017e-07
1.44948e-08
1.83445e-07
-4.59055e-06
-1.74089e-06
6.02198e-08
5.09633e-07
-2.34479e-06
5.43323e-08
5.21538e-07
-2.90497e-06
6.15716e-08
5.43625e-07
-3.40284e-06
6.29696e-08
5.297e-07
-3.83022e-06
5.84315e-08
4.81164e-07
-4.17228e-06
5.18867e-08
4.04685e-07
-4.42437e-06
4.49864e-08
3.0863e-07
3.84889e-08
2.02775e-07
-4.58849e-06
-1.58629e-06
2.80455e-07
5.6998e-07
-2.26241e-06
2.10569e-07
5.41303e-07
-2.87051e-06
1.71187e-07
5.58227e-07
-3.40297e-06
1.41006e-07
5.41411e-07
-3.85427e-06
1.18448e-07
4.89575e-07
-4.21338e-06
1.00859e-07
4.08714e-07
-4.47482e-06
8.67621e-08
3.07474e-07
7.53993e-08
1.96263e-07
-4.64134e-06
-1.77971e-06
4.72986e-07
5.35018e-07
-2.40589e-06
3.52972e-07
5.08299e-07
-2.97583e-06
2.7519e-07
5.19281e-07
-3.48427e-06
2.24788e-07
5.01257e-07
-3.91877e-06
1.88078e-07
4.50179e-07
-4.26715e-06
1.59443e-07
3.71587e-07
-4.52475e-06
1.36702e-07
2.74012e-07
1.18685e-07
1.66902e-07
-4.69359e-06
-2.15982e-06
5.34762e-07
4.11934e-07
-2.6524e-06
4.33626e-07
4.29941e-07
-3.14375e-06
3.6975e-07
4.40236e-07
-3.59881e-06
3.21707e-07
4.21213e-07
-3.99922e-06
2.82822e-07
3.73787e-07
-4.33063e-06
2.50414e-07
3.0331e-07
-4.58573e-06
2.22723e-07
2.16814e-07
1.98827e-07
1.21983e-07
-4.76258e-06
-2.29322e-06
3.03534e-07
6.09607e-07
-2.73194e-06
3.3448e-07
5.61529e-07
-3.17435e-06
3.41861e-07
5.1064e-07
-3.59607e-06
3.23362e-07
4.66194e-07
-3.97869e-06
2.82653e-07
4.27312e-07
-4.30926e-06
2.23747e-07
3.92296e-07
-4.57957e-06
1.5189e-07
3.59944e-07
7.27226e-08
3.29677e-07
-4.78453e-06
-2.30061e-06
-1.10754e-08
8.72901e-07
1.28503e-07
-3.04699e-06
3.99642e-08
9.61754e-07
9.73639e-08
-3.823e-06
6.72294e-08
1.0044e-06
7.05863e-08
-4.59852e-06
8.05705e-08
1.00051e-06
4.91202e-08
-5.34671e-06
8.59479e-08
9.51142e-07
3.27275e-08
-6.04068e-06
8.68537e-08
8.56891e-07
2.06365e-08
-6.64995e-06
8.51558e-08
7.17957e-07
1.20497e-08
8.18125e-08
5.37651e-07
6.24381e-09
-7.1418e-06
-2.2304e-06
6.40921e-09
1.15653e-06
-3.02146e-06
5.83417e-08
1.23167e-06
-3.8291e-06
8.71927e-08
1.26348e-06
-4.62977e-06
1.01187e-07
1.24209e-06
-5.39578e-06
1.05468e-07
1.16689e-06
-6.0961e-06
1.04255e-07
1.03848e-06
-6.69407e-06
9.98791e-08
8.57221e-07
9.33693e-08
6.275e-07
-7.1497e-06
-1.94372e-06
5.64747e-08
1.36196e-06
-2.84904e-06
7.37838e-08
1.41136e-06
-3.73746e-06
8.26623e-08
1.43653e-06
-4.59536e-06
8.45607e-08
1.40418e-06
-5.40007e-06
8.12694e-08
1.31001e-06
-6.12205e-06
7.55519e-08
1.15532e-06
-6.72371e-06
6.87412e-08
9.41429e-07
6.12694e-08
6.74044e-07
-7.16286e-06
-1.81075e-06
1.62425e-07
1.44652e-06
-2.77508e-06
1.11774e-07
1.4676e-06
-3.70434e-06
8.20964e-08
1.48799e-06
-4.58894e-06
5.85106e-08
1.45202e-06
-5.41006e-06
3.91171e-08
1.35284e-06
-6.14061e-06
2.35259e-08
1.19127e-06
-6.74421e-06
1.148e-08
9.6835e-07
2.64563e-09
6.89853e-07
-7.17916e-06
-1.92259e-06
3.039e-07
1.37192e-06
-2.86992e-06
1.73143e-07
1.39424e-06
-3.77928e-06
9.88961e-08
1.4118e-06
-4.64529e-06
4.93965e-08
1.37634e-06
-5.45141e-06
1.45833e-08
1.28083e-06
-6.17255e-06
-9.41878e-09
1.12565e-06
-6.77294e-06
-2.59791e-08
9.11839e-07
-3.63391e-08
6.4504e-07
-7.21212e-06
-2.33365e-06
3.31334e-07
1.14511e-06
-3.13635e-06
2.0298e-07
1.20279e-06
-3.94975e-06
1.26766e-07
1.22577e-06
-4.74962e-06
7.33811e-08
1.1971e-06
-5.51103e-06
3.47515e-08
1.11503e-06
-6.20402e-06
6.43727e-09
9.80445e-07
-6.79546e-06
-1.18682e-08
7.94119e-07
-2.39859e-08
5.6101e-07
-7.24686e-06
-2.45062e-06
8.59737e-07
4.0685e-07
-3.18366e-06
9.39162e-07
3.31317e-07
-3.95273e-06
9.72751e-07
2.64938e-07
-4.72402e-06
9.59122e-07
2.08876e-07
-5.46932e-06
8.99658e-07
1.63003e-07
-6.16133e-06
7.95614e-07
1.26536e-07
-6.76781e-06
6.47916e-07
9.85328e-08
4.60538e-07
7.74089e-08
-7.25705e-06
-3.80263e-06
1.87442e-07
1.87152e-06
4.69264e-09
-5.1529e-06
2.41716e-07
2.09304e-06
-2.30242e-08
-6.5786e-06
2.6144e-07
2.21098e-06
-4.2548e-08
-7.99313e-06
2.64432e-07
2.20609e-06
-5.56891e-08
-9.29588e-06
2.58269e-07
2.05949e-06
-6.40839e-08
-1.03737e-05
2.46707e-07
1.75701e-06
-6.9214e-08
-1.11024e-05
2.31547e-07
1.2872e-06
-7.22141e-08
2.14121e-07
6.3449e-07
-7.38246e-08
-1.13397e-05
-3.76852e-06
1.82598e-07
2.42953e-06
-5.15705e-06
2.22432e-07
2.63925e-06
-6.62283e-06
2.44332e-07
2.74614e-06
-8.08397e-06
2.493e-07
2.71818e-06
-9.43118e-06
2.44073e-07
2.52811e-06
-1.05335e-05
2.32234e-07
2.15561e-06
-1.12431e-05
2.15185e-07
1.58307e-06
1.93386e-07
7.86885e-07
-1.13816e-05
-3.57667e-06
9.81434e-08
2.80579e-06
-5.04633e-06
1.0249e-07
3.00087e-06
-6.57609e-06
1.0641e-07
3.10535e-06
-8.08985e-06
1.04091e-07
3.06571e-06
-9.47907e-06
9.77809e-08
2.84869e-06
-1.0608e-05
8.92028e-08
2.42862e-06
-1.13167e-05
7.9089e-08
1.78653e-06
6.79324e-08
8.85506e-07
-1.14015e-05
-3.4872e-06
4.49802e-09
2.94606e-06
-4.99676e-06
-4.32984e-08
3.12301e-06
-6.55308e-06
-7.42607e-08
3.22504e-06
-8.08657e-06
-9.51927e-08
3.18543e-06
-9.49152e-06
-1.07712e-07
2.96402e-06
-1.06296e-05
-1.12705e-07
2.53135e-06
-1.13344e-05
-1.11071e-07
1.8636e-06
-1.0392e-07
9.26753e-07
-1.13992e-05
-3.54073e-06
-2.97796e-08
2.81375e-06
-5.04767e-06
-1.33375e-07
2.99146e-06
-6.59493e-06
-2.04867e-07
3.08981e-06
-8.11631e-06
-2.47529e-07
3.05018e-06
-9.50884e-06
-2.69065e-07
2.83483e-06
-1.06373e-05
-2.74662e-07
2.41614e-06
-1.13411e-05
-2.67843e-07
1.77237e-06
-2.51028e-07
8.72029e-07
-1.14209e-05
-3.83123e-06
-3.74661e-08
2.42585e-06
-5.22964e-06
-1.55133e-07
2.62312e-06
-6.70073e-06
-2.30782e-07
2.7229e-06
-8.16342e-06
-2.77286e-07
2.68962e-06
-9.51001e-06
-3.02589e-07
2.49519e-06
-1.06103e-05
-3.12496e-07
2.11855e-06
-1.13156e-05
-3.1107e-07
1.54257e-06
-3.01333e-07
7.43115e-07
-1.14474e-05
-3.87127e-06
1.86637e-06
1.36876e-07
-5.21527e-06
2.08194e-06
4.61517e-08
-6.64455e-06
2.19414e-06
-2.28715e-08
-8.06649e-06
2.18314e-06
-7.93788e-08
-9.37929e-06
2.02981e-06
-1.20011e-07
-1.04667e-05
1.7199e-06
-1.49462e-07
-1.12011e-05
1.24198e-06
-1.70828e-07
5.82063e-07
-1.85198e-07
-1.14389e-05
-4.85189e-06
3.47325e-07
-7.17684e-08
3.03955e-06
-6.54031e-06
3.90597e-07
-9.37523e-08
3.48463e-06
-8.4417e-06
4.03254e-07
-1.0512e-07
3.81418e-06
-1.05251e-05
4.04214e-07
-1.09723e-07
3.99496e-06
-1.27629e-05
4.02098e-07
-1.09562e-07
4.00466e-06
-1.51279e-05
3.98212e-07
-1.06131e-07
3.82986e-06
-1.75908e-05
3.85003e-07
-1.00507e-07
3.46551e-06
3.56666e-07
-9.34076e-08
-2.01816e-05
2.96192e-06
-4.92462e-06
3.4079e-07
3.912e-06
-6.59643e-06
3.57963e-07
4.34368e-06
-8.47807e-06
3.6865e-07
4.66244e-06
-1.05468e-05
3.69537e-07
4.8218e-06
-1.27725e-05
3.67241e-07
4.78801e-06
-1.51137e-05
3.62674e-07
4.53234e-06
-1.75418e-05
3.51603e-07
4.04416e-06
3.2659e-07
-2.01265e-05
3.39327e-06
-4.87147e-06
1.49036e-07
4.4957e-06
-6.55697e-06
1.31705e-07
4.91015e-06
-8.43599e-06
1.25273e-07
5.22568e-06
-1.04885e-05
1.20803e-07
5.3725e-06
-1.26974e-05
1.17071e-07
5.31996e-06
-1.50272e-05
1.13997e-07
5.01963e-06
-1.74643e-05
1.09624e-07
4.45034e-06
1.03074e-07
-2.0053e-05
3.69205e-06
-4.85035e-06
-1.16229e-07
4.71748e-06
-6.54172e-06
-1.65861e-07
5.11202e-06
-8.41648e-06
-1.99365e-07
5.42462e-06
-1.04721e-05
-2.18235e-07
5.57964e-06
-1.26824e-05
-2.25506e-07
5.51859e-06
-1.50143e-05
-2.2399e-07
5.20133e-06
-1.74313e-05
-2.13936e-07
4.60052e-06
-1.95042e-07
-2.00074e-05
3.80412e-06
-4.84559e-06
-2.9505e-07
4.51492e-06
-6.54375e-06
-3.90097e-07
4.91396e-06
-8.42372e-06
-4.53469e-07
5.22403e-06
-1.04822e-05
-4.88041e-07
5.37865e-06
-1.26955e-05
-5.01688e-07
5.32439e-06
-1.5026e-05
-4.98839e-07
5.0215e-06
-1.74389e-05
-4.79838e-07
4.45117e-06
-4.42326e-07
-2.00133e-05
3.6938e-06
-4.92537e-06
-3.32209e-07
3.9268e-06
-6.58662e-06
-4.52405e-07
4.34671e-06
-8.45313e-06
-5.23606e-07
4.65964e-06
-1.05061e-05
-5.6315e-07
4.81775e-06
-1.27146e-05
-5.81096e-07
4.78307e-06
-1.50417e-05
-5.81969e-07
4.52873e-06
-1.74592e-05
-5.62295e-07
4.04252e-06
-5.20086e-07
-2.00301e-05
3.3917e-06
-4.79008e-06
-9.61125e-08
3.05214e-06
-6.46013e-06
-1.94064e-07
3.49362e-06
-8.34931e-06
-2.61945e-07
3.82167e-06
-1.04243e-05
-3.07073e-07
4.00206e-06
-1.26556e-05
-3.31824e-07
4.01165e-06
-1.50155e-05
-3.38834e-07
3.83655e-06
-1.74747e-05
-3.31782e-07
3.47066e-06
-3.14122e-07
-2.0063e-05
2.96424e-06
-2.55412e-06
5.36262e-07
4.84477e-08
-2.5973e-07
-2.75128e-06
3.48283e-07
6.17367e-08
-2.73888e-07
-2.77638e-06
1.60897e-07
7.76618e-08
-1.88659e-07
-2.96559e-06
2.86881e-07
8.2512e-08
-1.55565e-07
-3.19353e-06
3.05536e-07
7.77498e-08
-1.25732e-07
-3.41293e-06
3.17876e-07
6.38607e-08
-1.11318e-07
-3.63077e-06
3.26103e-07
4.19345e-08
-1.00781e-07
3.31751e-07
1.46448e-08
-9.22744e-08
-3.82885e-06
-2.46471e-06
3.49672e-07
1.10254e-07
-2.5232e-06
1.54237e-07
8.57593e-08
-2.4682e-06
8.51767e-08
1.27996e-07
-2.53787e-06
2.28358e-07
1.49842e-07
-2.65058e-06
2.425e-07
1.62338e-07
-2.77837e-06
2.74094e-07
1.63888e-07
-2.90385e-06
3.0739e-07
1.54689e-07
3.34717e-07
1.36522e-07
-3.00905e-06
-2.76213e-06
-1.83784e-07
2.67596e-07
-2.77983e-06
-1.90743e-07
1.33367e-07
-2.4874e-06
-6.2218e-08
1.78109e-07
-2.40419e-06
-3.35308e-08
2.18433e-07
-2.36058e-06
-1.12694e-08
2.59278e-07
-2.3384e-06
1.39593e-08
2.85415e-07
-2.35359e-06
4.10091e-08
2.95088e-07
7.28853e-08
2.92185e-07
-2.37234e-06
-2.89422e-06
-5.09951e-07
3.48787e-07
-2.95307e-06
-3.37752e-07
1.6269e-07
-2.68094e-06
-4.68976e-07
1.88519e-07
-2.54918e-06
-3.82861e-07
2.46862e-07
-2.45735e-06
-3.69938e-07
3.05541e-07
-2.37376e-06
-3.77148e-07
3.52704e-07
-2.29862e-06
-4.02784e-07
3.86648e-07
-4.16953e-07
4.05208e-07
-2.20478e-06
-2.31445e-06
-1.03433e-06
2.01723e-07
-2.36404e-06
-6.00617e-07
1.05784e-07
-2.26288e-06
-4.70491e-07
1.64427e-07
-2.23453e-06
-5.6795e-07
2.00653e-07
-2.25584e-06
-5.63902e-07
2.34123e-07
-2.29856e-06
-5.57225e-07
2.55112e-07
-2.34947e-06
-5.61199e-07
2.62191e-07
-5.76311e-07
2.55787e-07
-2.4227e-06
-2.59856e-06
-9.69709e-07
8.03743e-08
-2.65449e-06
-6.9538e-07
6.94421e-08
-2.54836e-06
-4.83579e-07
1.19788e-07
-2.62506e-06
-6.03662e-07
1.38376e-07
-2.72321e-06
-5.98623e-07
1.51011e-07
-2.84441e-06
-5.95286e-07
1.52415e-07
-3.00202e-06
-5.81389e-07
1.43491e-07
-5.70606e-07
1.26938e-07
-3.11844e-06
-2.45682e-06
4.12335e-08
-5.87627e-07
-2.67905e-06
5.76022e-08
-5.97538e-07
-2.77113e-06
7.61086e-08
-4.41755e-07
-3.03859e-06
8.40296e-08
-4.07528e-07
-3.29132e-06
8.39416e-08
-3.80351e-07
-3.55728e-06
7.47678e-08
-3.63273e-07
-3.7972e-06
5.74325e-08
-3.48253e-07
3.342e-08
-3.32307e-07
-3.99751e-06
-1.25368e-06
2.57315e-07
3.71878e-07
-1.60435e-07
-1.73003e-06
2.80037e-07
3.90151e-07
-1.34516e-07
-2.21795e-06
2.77982e-07
3.98872e-07
-1.13905e-07
-2.69594e-06
2.79896e-07
3.79841e-07
-1.0153e-07
-3.14082e-06
2.77678e-07
3.34452e-07
-9.16339e-08
-3.53669e-06
2.75186e-07
2.67471e-07
-8.42295e-08
-3.87414e-06
2.7174e-07
1.85311e-07
-7.82699e-08
2.66621e-07
9.50579e-08
-7.32965e-08
-4.14799e-06
-1.13037e-06
1.37199e-07
6.30606e-07
-1.52047e-06
1.79077e-07
5.69056e-07
-1.92263e-06
2.16834e-07
5.83254e-07
-2.32906e-06
2.47385e-07
5.80935e-07
-2.71456e-06
2.68383e-07
5.48172e-07
-3.05833e-06
2.87986e-07
4.85669e-07
-3.34621e-06
3.05063e-07
4.00561e-07
3.18395e-07
3.02919e-07
-3.57131e-06
-7.219e-07
-1.53236e-07
1.05632e-06
-1.11295e-06
-1.10715e-07
7.92839e-07
-1.46028e-06
-5.43846e-08
7.85248e-07
-1.79909e-06
-1.9284e-08
8.1188e-07
-2.10821e-06
9.25719e-09
8.15855e-07
-2.36213e-06
3.3144e-08
7.85527e-07
-2.5495e-06
5.58767e-08
7.25967e-07
7.70028e-08
6.47468e-07
-2.66851e-06
-6.07168e-07
-5.36812e-07
1.24322e-06
-9.84698e-07
-4.58358e-07
8.76113e-07
-1.30599e-06
-4.20874e-07
8.65121e-07
-1.61344e-06
-3.9442e-07
9.16973e-07
-1.88301e-06
-3.78752e-07
9.49978e-07
-2.09012e-06
-3.6776e-07
9.5e-07
-2.21602e-06
-3.59124e-07
9.20536e-07
-3.495e-07
8.7068e-07
-2.26234e-06
-6.85735e-07
-6.92903e-07
9.21743e-07
-1.12507e-06
-6.55263e-07
7.2518e-07
-1.50888e-06
-6.32291e-07
7.48603e-07
-1.87601e-06
-6.17316e-07
7.7859e-07
-2.21178e-06
-6.00306e-07
7.80325e-07
-2.4991e-06
-5.85237e-07
7.4758e-07
-2.71867e-06
-5.71228e-07
6.86043e-07
-5.57396e-07
6.06228e-07
-2.86568e-06
-9.98432e-07
-6.85618e-07
5.62123e-07
-1.46835e-06
-6.6622e-07
5.42585e-07
-1.92404e-06
-6.28672e-07
5.65932e-07
-2.37071e-06
-6.03448e-07
5.65495e-07
-2.78618e-06
-5.75468e-07
5.3533e-07
-3.15166e-06
-5.49115e-07
4.76382e-07
-3.45887e-06
-5.23506e-07
3.9631e-07
-4.98339e-07
3.04326e-07
-3.70109e-06
-1.07074e-06
3.55999e-07
-4.92834e-07
-1.61987e-06
3.84269e-07
-4.4654e-07
-2.16491e-06
3.96455e-07
-4.06866e-07
-2.69166e-06
3.8132e-07
-3.77343e-07
-3.17589e-06
3.41155e-07
-3.51355e-07
-3.60425e-06
2.80022e-07
-3.28095e-07
-3.96921e-06
2.04139e-07
-3.06681e-07
1.2026e-07
-2.86465e-07
-4.26859e-06
-1.41588e-06
2.45902e-07
9.27884e-07
-1.22234e-07
-2.20722e-06
2.93017e-07
9.87669e-07
-9.91936e-08
-3.03536e-06
2.93329e-07
1.02081e-06
-8.711e-08
-3.8615e-06
2.7948e-07
1.00574e-06
-7.92686e-08
-4.65549e-06
2.60031e-07
9.41812e-07
-7.34316e-08
-5.38884e-06
2.38526e-07
8.31178e-07
-6.88991e-08
-6.03061e-06
2.16506e-07
6.75774e-07
-6.51551e-08
1.9486e-07
4.80497e-07
-6.18784e-08
-6.54897e-06
-1.06445e-06
1.84615e-07
1.40282e-06
-1.80928e-06
2.53148e-07
1.35379e-06
-2.59518e-06
2.84012e-07
1.37849e-06
-3.39341e-06
2.88631e-07
1.37e-06
-4.17524e-06
2.85447e-07
1.30459e-06
-4.90755e-06
2.77182e-07
1.17937e-06
-5.55039e-06
2.64646e-07
9.95333e-07
2.49087e-07
7.58178e-07
-6.05977e-06
-4.2242e-07
-9.59774e-08
2.02333e-06
-1.09593e-06
-2.02002e-08
1.73962e-06
-1.80375e-06
4.09095e-08
1.73611e-06
-2.53486e-06
7.18025e-08
1.75977e-06
-3.26037e-06
9.43825e-08
1.73237e-06
-3.94735e-06
1.12993e-07
1.63673e-06
-4.55401e-06
1.2742e-07
1.46989e-06
1.37558e-07
1.23699e-06
-5.03195e-06
-1.60588e-07
-4.84314e-07
2.3267e-06
-7.99442e-07
-4.15817e-07
1.91046e-06
-1.44345e-06
-3.47927e-07
1.89782e-06
-2.10944e-06
-2.97169e-07
1.95186e-06
-2.76814e-06
-2.59241e-07
1.96221e-06
-3.38382e-06
-2.26617e-07
1.90523e-06
-3.91314e-06
-1.9763e-07
1.77487e-06
-1.72387e-07
1.57457e-06
-4.3071e-06
-4.77295e-07
-6.74383e-07
1.88344e-06
-1.21653e-06
-6.32065e-07
1.68049e-06
-1.95398e-06
-5.75991e-07
1.71394e-06
-2.69949e-06
-5.21129e-07
1.74792e-06
-3.43484e-06
-4.69662e-07
1.72597e-06
-4.12932e-06
-4.20968e-07
1.63625e-06
-4.74165e-06
-3.75609e-07
1.47623e-06
-3.34167e-07
1.25047e-06
-5.22423e-06
-9.85085e-07
-6.17037e-07
1.32853e-06
-1.8061e-06
-6.03886e-07
1.33523e-06
-2.63816e-06
-5.55404e-07
1.37724e-06
-3.46852e-06
-5.0199e-07
1.37656e-06
-4.27322e-06
-4.48475e-07
1.31873e-06
-5.02192e-06
-3.98202e-07
1.20217e-06
-5.67636e-06
-3.52454e-07
1.02748e-06
-3.116e-07
7.99546e-07
-6.19425e-06
-1.29926e-06
9.12047e-07
-4.08095e-07
-2.15546e-06
9.86745e-07
-3.50347e-07
-3.0342e-06
1.0258e-06
-3.06161e-07
-3.90198e-06
1.01603e-06
-2.69073e-07
-4.73039e-06
9.58122e-07
-2.37144e-07
-5.49292e-06
8.53829e-07
-2.09597e-07
-6.1598e-06
7.04409e-07
-1.85889e-07
5.14144e-07
-1.65569e-07
-6.69977e-06
-2.97797e-06
3.17975e-07
1.94407e-06
-7.30973e-08
-4.42496e-06
3.42659e-07
2.14523e-06
-5.33639e-08
-5.94062e-06
3.18878e-07
2.25875e-06
-4.13104e-08
-7.42811e-06
2.74646e-07
2.25074e-06
-3.22903e-08
-8.7851e-06
2.23299e-07
2.10032e-06
-2.49153e-08
-9.89874e-06
1.71785e-07
1.79149e-06
-1.85402e-08
-1.06423e-05
1.22611e-07
1.30956e-06
-1.28456e-08
7.61334e-08
6.36808e-07
-7.7354e-09
-1.0867e-05
-2.35952e-06
3.28618e-07
2.6768e-06
-3.82257e-06
3.66321e-07
2.79306e-06
-5.37137e-06
3.49625e-07
2.89642e-06
-6.91642e-06
3.08558e-07
2.88102e-06
-8.34768e-06
2.57962e-07
2.70113e-06
-9.53081e-06
2.03246e-07
2.33103e-06
-1.03111e-05
1.4808e-07
1.75014e-06
9.35562e-08
9.28233e-07
-1.04985e-05
-1.43709e-06
1.96395e-08
3.43218e-06
-2.80448e-06
1.19357e-07
3.35383e-06
-4.32216e-06
1.57825e-07
3.44556e-06
-5.87887e-06
1.65415e-07
3.45963e-06
-7.3514e-06
1.62419e-07
3.30046e-06
-8.58853e-06
1.52437e-07
2.92476e-06
-9.41177e-06
1.37456e-07
2.30381e-06
1.19043e-07
1.39312e-06
-9.59328e-06
-9.58069e-07
-4.01302e-07
3.81391e-06
-2.24894e-06
-2.8614e-07
3.60681e-06
-3.69949e-06
-1.91441e-07
3.69765e-06
-5.20314e-06
-1.276e-07
3.74857e-06
-6.63232e-06
-7.85824e-08
3.63242e-06
-7.83072e-06
-3.83483e-08
3.29449e-06
-8.6104e-06
-6.39013e-09
2.69849e-06
1.88411e-08
1.78646e-06
-8.72195e-06
-1.56461e-06
-6.38338e-07
3.32068e-06
-2.96089e-06
-5.27983e-07
3.31869e-06
-4.46127e-06
-4.17803e-07
3.44073e-06
-5.9903e-06
-3.17799e-07
3.46715e-06
-7.43324e-06
-2.26583e-07
3.31695e-06
-8.64042e-06
-1.44927e-07
2.95004e-06
-9.43479e-06
-7.39049e-08
2.3382e-06
-1.24234e-08
1.43591e-06
-9.58883e-06
-2.40176e-06
-5.3973e-07
2.61685e-06
-3.89747e-06
-4.7756e-07
2.78054e-06
-5.45004e-06
-3.88691e-07
2.90068e-06
-6.98998e-06
-2.9558e-07
2.89425e-06
-8.41152e-06
-2.08671e-07
2.72239e-06