/*--------------------------------*- C++ -*----------------------------------*\
| =========                 |                                                 |
| \\      /  F ield         | OpenFOAM: The Open Source CFD Toolbox           |
|  \\    /   O peration     | Version:  plus.master.MPPICInterFoam            |
|   \\  /    A nd           | Web:      www.OpenFOAM.com                      |
|    \\/     M anipulation  |                                                 |
\*---------------------------------------------------------------------------*/
FoamFile
{
    version     2.0;
    format      ascii;
    class       volScalarField;
    location    "7";
    object      k;
}
// * * * * * * * * * * * * * * * * * * * * * * * * * * * * * * * * * * * * * //

dimensions      [0 2 -2 0 0 0 0];

internalField   nonuniform List<scalar> 
11821
(
0.000310693
0.000924415
0.00318586
0.0045014
0.00207491
0.000542648
0.000225878
0.000787935
0.00415068
0.0162658
0.0214909
0.0122965
0.00317355
0.000644241
0.0026775
0.0151607
0.0187792
0.051264
0.0181193
0.013696
0.00261177
0.00443475
0.0212392
0.0474765
0.048095
0.0534593
0.0206147
0.00443876
0.00255755
0.0149694
0.0188753
0.05075
0.0177905
0.0132464
0.00245672
0.000764152
0.00421694
0.0168745
0.0221682
0.0123021
0.00302553
0.0005968
0.000320907
0.000975818
0.00337374
0.00465362
0.00209947
0.000528246
0.000220103
0.000946578
0.00230347
0.00672702
0.00902151
0.00439028
0.00140622
0.000734095
0.00206098
0.00825699
0.0218461
0.03505
0.0190083
0.00675481
0.00145332
0.00534578
0.0194687
0.0351884
0.0888203
0.0387362
0.0212877
0.00508584
0.00759977
0.0282339
0.0926823
0.0832578
0.0843168
0.0407974
0.00929176
0.00515804
0.0192515
0.0354887
0.0888712
0.0387829
0.020527
0.00471662
0.00203648
0.00830463
0.0222222
0.0357855
0.0187149
0.00635827
0.00136286
0.000958603
0.00234838
0.00682246
0.00901271
0.00424773
0.00136039
0.000747616
0.00230567
0.00430006
0.00995716
0.0137107
0.00726571
0.00277684
0.00186081
0.00404336
0.0120136
0.0278721
0.0463192
0.0263804
0.00967635
0.00265748
0.00811659
0.0243716
0.0533273
0.10233
0.0610525
0.0278742
0.00667625
0.0107013
0.0351496
0.119784
0.103331
0.103681
0.0545443
0.0128223
0.00792013
0.0240999
0.0533864
0.103797
0.0611542
0.0268632
0.00626266
0.00400114
0.0118542
0.0276588
0.0460373
0.0257126
0.00914571
0.00260496
0.00235182
0.00432084
0.00980471
0.0133801
0.00699499
0.00276075
0.00192372
0.00451962
0.0065174
0.0126601
0.0174384
0.00941521
0.00470594
0.00393069
0.00634832
0.0154182
0.0343554
0.0558383
0.0312609
0.010873
0.00448314
0.0108878
0.0303248
0.0655428
0.111646
0.0709525
0.0285069
0.00709606
0.014256
0.0442984
0.130988
0.113731
0.118275
0.0535349
0.0119773
0.0106101
0.0296846
0.0649962
0.113945
0.0707204
0.0275705
0.00686944
0.00626242
0.0149075
0.0331223
0.0537561
0.0298991
0.010319
0.00449873
0.00457376
0.00645116
0.0120791
0.0164886
0.00897723
0.00475104
0.00403895
0.00548515
0.00749312
0.0135644
0.0185632
0.00978333
0.00548584
0.00478367
0.00742898
0.017169
0.0384358
0.0610682
0.0319716
0.0102563
0.0051877
0.0125229
0.0353581
0.0737448
0.118567
0.0741585
0.0247197
0.00673994
0.0169342
0.0538179
0.145189
0.120964
0.12618
0.0419276
0.00940848
0.0121692
0.0342385
0.0726052
0.121161
0.0730291
0.0239525
0.00662914
0.00729004
0.0163359
0.0361357
0.0572066
0.0301075
0.00980536
0.00520612
0.00548765
0.00734339
0.012721
0.0171823
0.00932896
0.00553304
0.00485372
0.000180577
0.000173818
0.000169043
0.000165075
0.000161959
0.000158306
0.000155055
0.000152505
0.000263322
0.000190444
0.000170193
0.000163399
0.000158851
0.000154399
0.000150544
0.000147924
0.000778434
0.000277026
0.000183562
0.000166366
0.000159522
0.000154431
0.000150908
0.000147586
0.00134164
0.000390568
0.000195081
0.00016286
0.000154576
0.000148223
0.000144254
0.000142365
0.000723323
0.00026659
0.000182352
0.000165584
0.000158233
0.000152126
0.000148428
0.000145615
0.000243791
0.000184621
0.000172483
0.00016344
0.000158026
0.000153147
0.000148956
0.000146183
0.000178556
0.000174989
0.000172593
0.000167673
0.000163452
0.000159544
0.000156146
0.000153304
0.000637595
0.00060224
0.000567214
0.000532107
0.000499531
0.000470464
0.000444493
0.000420804
0.00068946
0.000608835
0.00057272
0.000537474
0.000503603
0.00047308
0.000445832
0.000421185
0.00095481
0.00062313
0.000576431
0.000541239
0.000506757
0.000474421
0.000445255
0.000418513
0.00131211
0.000633079
0.000578107
0.000544672
0.000510441
0.000477226
0.000447043
0.000419238
0.000920826
0.000627084
0.000580912
0.000544641
0.000509581
0.000476521
0.000446894
0.000419453
0.000694277
0.000621433
0.000582917
0.000546326
0.000511344
0.000479671
0.000451253
0.000425416
0.000655721
0.000619687
0.000583686
0.00054836
0.000515809
0.000486611
0.0004603
0.000435835
0.00172344
0.001662
0.00157064
0.00144922
0.00130635
0.00115153
0.000995366
0.000849634
0.00178283
0.00168195
0.00159669
0.00148008
0.00133691
0.0011772
0.00101273
0.000857292
0.00202256
0.0016881
0.00160625
0.00150015
0.00136129
0.0012
0.0010295
0.000865667
0.0024074
0.00169061
0.00160948
0.00151059
0.00137409
0.00121174
0.00103804
0.000870032
0.00201201
0.00170636
0.00162346
0.00151504
0.00137403
0.00121033
0.00103707
0.00087038
0.0018205
0.00172297
0.00163407
0.00151348
0.00136568
0.00120071
0.00103056
0.000869474
0.00178413
0.00172007
0.00162482
0.00149851
0.00134965
0.00118817
0.00102532
0.00087362
0.00372742
0.00354468
0.00328575
0.00299219
0.00270966
0.00246444
0.00225421
0.00204004
0.00380322
0.00363221
0.00338649
0.00308269
0.00277614
0.00250724
0.00228241
0.00206092
0.00390813
0.00364043
0.00342983
0.0031404
0.00282839
0.00254751
0.00231406
0.00208895
0.00412056
0.00364093
0.00344952
0.00317059
0.00285693
0.00257012
0.00233194
0.0021047
0.00392402
0.00366681
0.00345256
0.00316093
0.00284778
0.00256625
0.00233259
0.00210728
0.00386642
0.00368911
0.00343642
0.00312817
0.00281918
0.00254916
0.00232386
0.00210131
0.00382142
0.00363023
0.00336533
0.00306815
0.00278364
0.00253723
0.00232516
0.00210615
0.00451882
0.00427613
0.00398121
0.00364719
0.00326849
0.00281779
0.00228561
0.00174002
0.00460372
0.00435491
0.00404328
0.00368615
0.00329676
0.00285014
0.00232127
0.00176685
0.00464666
0.00436671
0.00408156
0.00373185
0.00334559
0.00290496
0.002376
0.00180964
0.00472609
0.00436775
0.00410402
0.00376183
0.00337624
0.0029355
0.00240375
0.00183017
0.00466032
0.00438049
0.00409071
0.00373799
0.00334972
0.00290716
0.00237597
0.00180766
0.00463866
0.00437647
0.00405309
0.0036872
0.00329122
0.00283934
0.00230655
0.00175079
0.0045685
0.00430596
0.00399124
0.00363765
0.00324
0.00277314
0.00223066
0.00168319
0.000216837
0.000205584
0.000202096
0.000199184
0.000196314
0.000194081
0.000192455
0.000191471
0.000295363
0.000207136
0.000193576
0.000188622
0.00018216
0.000177091
0.000172936
0.00016982
0.000762104
0.00029763
0.000201334
0.000182635
0.000175293
0.000167494
0.000163211
0.000159161
0.00132588
0.000420212
0.000217737
0.000180146
0.000168298
0.00015896
0.000151128
0.000145355
0.000823113
0.000317966
0.000208485
0.000186504
0.000177581
0.000168922
0.000160437
0.000157373
0.000305887
0.000210586
0.000193633
0.000185167
0.00018135
0.000178369
0.000177136
0.000176919
0.00021102
0.000200286
0.000198065
0.000196536
0.000194329
0.000192261
0.000190556
0.000188963
0.000769885
0.000721039
0.000678919
0.000635171
0.000593089
0.000554655
0.00052018
0.00048892
0.000884922
0.000750993
0.000708607
0.00066858
0.000626859
0.000586225
0.000547455
0.000511854
0.00129163
0.000791034
0.000729976
0.000696048
0.000656675
0.000613762
0.000571541
0.000530102
0.00168985
0.00080276
0.000714093
0.000680689
0.00064144
0.000597903
0.000554432
0.000512646
0.00134006
0.000793525
0.000727463
0.000693141
0.000654648
0.00061329
0.000572848
0.000534501
0.000887115
0.000748181
0.000705879
0.000666726
0.00062654
0.00058619
0.000549412
0.00051481
0.000760329
0.000710668
0.000667758
0.00062282
0.000579737
0.000540608
0.000505951
0.000474905
0.00199154
0.00190897
0.00182025
0.00169274
0.0015298
0.00134363
0.00115081
0.000970071
0.00218729
0.00193667
0.00185624
0.00175887
0.00162228
0.00145074
0.00125741
0.00106153
0.0027146
0.00192783
0.00182521
0.00175893
0.00165573
0.00151239
0.00133792
0.00114851
0.00311165
0.00186921
0.00174644
0.00169163
0.00159699
0.00146075
0.00129337
0.00110982
0.00274597
0.00191684
0.00181189
0.0017477
0.00164637
0.00150414
0.00133019
0.00114122
0.00217066
0.00191393
0.00183609
0.00174153
0.00160668
0.00143619
0.00124408
0.00105036
0.00195531
0.0018759
0.00179128
0.00166785
0.00150895
0.00132657
0.00113691
0.000958282
0.00413065
0.00393328
0.00367524
0.0033653
0.00305076
0.0027663
0.00251446
0.00225385
0.00435358
0.00402329
0.00380108
0.00352384
0.00321915
0.00293546
0.00269219
0.00245239
0.00483551
0.00397911
0.00377442
0.00355299
0.00328452
0.00302588
0.00281506
0.00262523
0.00519268
0.00385744
0.00365691
0.00345703
0.00319066
0.00292245
0.0027035
0.00251739
0.00487021
0.00397388
0.00376793
0.00354935
0.00328295
0.00302469
0.00281151
0.00261548
0.00433832
0.0039996
0.00377992
0.00350383
0.00319733
0.00290899
0.0026581
0.00240783
0.00408332
0.0038913
0.00363855
0.00332996
0.00301369
0.00272636
0.00247275
0.00221383
0.00496147
0.00467037
0.00433738
0.00394682
0.00349508
0.00296087
0.00234175
0.00171848
0.00529767
0.00485866
0.00454746
0.00419265
0.0037775
0.00327217
0.00264862
0.00197696
0.0059259
0.00493803
0.00464276
0.00435989
0.00402068
0.00358771
0.00300614
0.00233013
0.00642619
0.00488874
0.00458974
0.0043355
0.00402741
0.00364703
0.00313583
0.00252615
0.00596932
0.00493964
0.00463751
0.00434821
0.00399816
0.00355126
0.00295692
0.00227131
0.00530823
0.00485735
0.00454407
0.00418358
0.00375942
0.00324511
0.00261663
0.00194551
0.00495801
0.00468012
0.00436168
0.00398276
0.00353948
0.00300913
0.00238767
0.00175633
0.000208293
0.00019154
0.000187428
0.000184098
0.000179926
0.000176423
0.000173306
0.000170539
0.00036837
0.000217248
0.000180691
0.000169365
0.00016135
0.000155791
0.000150894
0.000147047
0.00103488
0.000366803
0.000202851
0.000168711
0.000157118
0.000146874
0.000136541
0.000128285
0.00137055
0.000410364
0.000199812
0.000159356
0.000145693
0.000136885
0.000129278
0.000122264
0.000623569
0.000247998
0.000174502
0.000158312
0.000150933
0.000144579
0.000137148
0.000128636
0.00023037
0.000177287
0.000166409
0.000159829
0.000154015
0.000148501
0.000142671
0.000139209
0.000175814
0.000171828
0.000168514
0.000165882
0.000163589
0.000160482
0.000157187
0.000153875
0.000772018
0.000718006
0.000670369
0.000619718
0.000570499
0.000525564
0.00048594
0.000451251
0.000970282
0.000789854
0.000733342
0.000677759
0.000618222
0.000559219
0.000503628
0.000454471
0.00162807
0.00084549
0.000757094
0.000710599
0.000655636
0.000595635
0.000536908
0.00048212
0.00175094
0.000804985
0.000723775
0.000683498
0.000634093
0.00057965
0.000525812
0.000475203
0.00105703
0.000745239
0.0006996
0.000656091
0.000603876
0.00054869
0.000494885
0.000445478
0.000756456
0.000685575
0.000642716
0.000595187
0.000546223
0.000499936
0.000457545
0.000420232
0.000669755
0.000630499
0.000588138
0.000544875
0.000504636
0.000469427
0.000439372
0.000413462
0.00193114
0.0018557
0.00177547
0.00165817
0.00150625
0.00132956
0.00114186
0.00095977
0.00217077
0.00188115
0.00180216
0.00170877
0.00157768
0.00141218
0.00122284
0.00102635
0.00293196
0.00183479
0.00172603
0.00166331
0.00156121
0.00142
0.00124773
0.00105794
0.00318683
0.00174663
0.00165287
0.00160025
0.00150118
0.00136175
0.00119359
0.00101064
0.00222734
0.00174033
0.0016839
0.00161389
0.00150211
0.00135406
0.00117923
0.000991562
0.00182931
0.00173513
0.00167164
0.00157357
0.0014415
0.00128266
0.0011068
0.000928148
0.00174533
0.00169433
0.00160915
0.00149096
0.00134803
0.00118945
0.00102591
0.000870175
0.00402103
0.00384429
0.00360168
0.00330282
0.00299542
0.00271702
0.00247511
0.00223448
0.00423741
0.00389156
0.00368737
0.00342082
0.00311652
0.00282733
0.00258064
0.00235003
0.00484753
0.00376983
0.00359071
0.00338223
0.00309816
0.00279931
0.00253145
0.0022826
0.00513776
0.0036242
0.00348427
0.00330642
0.00303193
0.00272884
0.00245238
0.00219432
0.0041717
0.00367833
0.00354026
0.00331515
0.00301664
0.00270827
0.0024329
0.00217589
0.00384379
0.0037056
0.00350916
0.0032321
0.00292528
0.00263976
0.00239772
0.00217163
0.00376263
0.00360344
0.00335174
0.003058
0.00277045
0.00251889
0.00230418
0.0020897
0.00491892
0.00465913
0.00435666
0.00400098
0.00358863
0.0030923
0.00249753
0.00187475
0.00522356
0.00480775
0.0045429
0.00423783
0.00387867
0.00343307
0.00285583
0.00220505
0.00583044
0.00476582
0.00450925
0.00424704
0.00392585
0.00352685
0.00300097
0.00239413
0.0061027
0.0046251
0.00439194
0.00413743
0.00380683
0.00340923
0.0029114
0.00236116
0.00511083
0.0046052
0.00439345
0.00411495
0.00377628
0.00337223
0.00285748
0.00228678
0.00474661
0.00454859
0.00429929
0.00399027
0.00363683
0.00321883
0.00270235
0.00213113
0.00458996
0.00436182
0.00406831
0.00373824
0.00337065
0.00293729
0.00242045
0.0018711
0.000180633
0.000176573
0.000174225
0.000172949
0.000169888
0.000166804
0.000163779
0.00016026
0.000241051
0.000189899
0.000176984
0.000170556
0.000164715
0.000159902
0.0001557
0.000152274
0.000663411
0.000272455
0.000191598
0.000174378
0.00016577
0.000157917
0.00015087
0.000144614
0.00145942
0.000448584
0.000222306
0.000179208
0.000165839
0.000156685
0.000148436
0.000140637
0.0011252
0.000399419
0.000221236
0.000183904
0.00017143
0.000162821
0.000155096
0.00014813
0.000412147
0.0002481
0.00020063
0.00018762
0.000180542
0.000173677
0.000169142
0.000165711
0.000227841
0.000207126
0.000199596
0.000195912
0.000192494
0.000189651
0.000187639
0.000186241
0.000689005
0.00065089
0.000611013
0.000570689
0.000533874
0.000501554
0.000473447
0.000448193
0.000773654
0.000706101
0.000665629
0.000622617
0.000579613
0.000539544
0.000502805
0.000469615
0.00105821
0.000765059
0.000721862
0.000682557
0.00063691
0.000589501
0.000543574
0.000500429
0.00174059
0.000833762
0.000757412
0.000720065
0.000673254
0.000620969
0.000569433
0.000520792
0.00163961
0.000865743
0.00077954
0.000736756
0.000687841
0.000635061
0.000583748
0.000535531
0.000993181
0.000805695
0.000752164
0.000702934
0.000651511
0.000601124
0.000554814
0.000512452
0.000786373
0.00073517
0.000692086
0.00064697
0.000603108
0.000562494
0.000525661
0.000491987
0.00182265
0.00177194
0.00168558
0.00156382
0.00141488
0.00124863
0.00107726
0.000915108
0.00191201
0.00182589
0.00176591
0.00167023
0.00153791
0.00137557
0.00119409
0.00100986
0.00228755
0.00183821
0.00178765
0.0017254
0.00162163
0.00147897
0.00130521
0.00111454
0.00318474
0.00184842
0.0017593
0.00171143
0.0016187
0.00148373
0.00131606
0.00112917
0.00297444
0.001932
0.00182588
0.00176734
0.00166989
0.00153072
0.00135765
0.00116495
0.00224608
0.00195532
0.00187492
0.00178072
0.00164728
0.00147747
0.00128301
0.00108255
0.00198755
0.00190875
0.00182411
0.00170071
0.00154115
0.00135667
0.00116312
0.000979145
0.00388739
0.00372223
0.00346924
0.00317699
0.00289229
0.00264274
0.00242618
0.00220132
0.00399347
0.00385947
0.0036663
0.00340109
0.00311513
0.002856
0.00263925
0.00242639
0.0042964
0.00385301
0.0037154
0.00350319
0.00323796
0.00298401
0.00277926
0.00259711
0.00513315
0.00380274
0.00365371
0.00347035
0.00321093
0.00294585
0.00272641
0.0025349
0.00491347
0.00393972
0.00375355
0.00354652
0.00328608
0.00303356
0.00283039
0.00265099
0.00434934
0.00401215
0.00379912
0.00353084
0.00323433
0.00295935
0.00272636
0.00249793
0.00410521
0.00391776
0.00366577
0.00336118
0.00305125
0.00277109
0.00252388
0.00226888
0.00466543
0.00442142
0.00411113
0.00375643
0.00335297
0.00287553
0.00231442
0.00173947
0.00487566
0.00467521
0.00442318
0.00410898
0.00373659
0.00327367
0.00268603
0.00203765
0.00524588
0.00479265
0.0046002
0.0043552
0.00404748
0.00364418
0.00308759
0.00242685
0.00610186
0.00482251
0.00460709
0.00438837
0.00410867
0.00374922
0.0032494
0.00264323
0.00587342
0.00491994
0.0046668
0.00441425
0.00409829
0.00367871
0.00309359
0.00239795
0.00528307
0.00486653
0.00457592
0.00423944
0.00383755
0.00333633
0.00270437
0.00201347
0.00494186
0.0046606
0.00433326
0.00394788
0.0035003
0.00296893
0.00235071
0.00172626
0.000150327
0.000145548
0.000143755
0.000139561
0.000141402
0.000143977
0.000151043
0.000398229
0.00039758
0.000393256
0.000392919
0.000393589
0.000400574
0.000412029
0.000725688
0.000725434
0.000726122
0.00072677
0.000728407
0.000732833
0.000745045
0.0017507
0.00175
0.00176489
0.00177579
0.00178183
0.00178616
0.00180506
0.00115903
0.00113416
0.00113397
0.00113589
0.00113154
0.00112236
0.00111285
0.000190221
0.000170787
0.000151419
0.000139948
0.000153759
0.000174222
0.000187434
0.000459084
0.000478601
0.000491809
0.000474128
0.000497667
0.000482975
0.000445761
0.000818527
0.000886261
0.000969666
0.000935122
0.000963339
0.000878177
0.000807626
0.00190318
0.00210955
0.00233677
0.002251
0.00231611
0.00205365
0.00187132
0.00108049
0.00121632
0.00148594
0.00169747
0.00142258
0.00118813
0.00110304
0.000168089
0.000144431
0.00012236
0.000115993
0.000122537
0.000138059
0.000150385
0.000420326
0.000411634
0.000433578
0.000430488
0.00040224
0.000386812
0.000390218
0.000800011
0.000845118
0.000875771
0.000837202
0.000814212
0.000765736
0.000735151
0.00191848
0.00204263
0.00196132
0.00186144
0.00184834
0.00187714
0.00180442
0.00120302
0.00141601
0.00160002
0.00163091
0.00154656
0.00142175
0.0012589
0.000156411
0.000150546
0.000139679
0.000133236
0.000141503
0.000162278
0.000184934
0.0004242
0.000438782
0.000461022
0.000477435
0.000492186
0.00047454
0.00045982
0.000775883
0.000843797
0.000932009
0.000948456
0.000978495
0.000900176
0.000822303
0.00188964
0.0021112
0.00232104
0.00225646
0.00237434
0.00216376
0.00192428
0.00113464
0.00128403
0.00157729
0.00180945
0.0015171
0.00122783
0.00108492
0.000148383
0.000145296
0.000138271
0.000129569
0.000119303
0.000108321
9.70791e-05
8.56178e-05
0.00014345
0.000140303
0.00013322
0.000124124
0.000113876
0.000103028
9.19842e-05
8.08036e-05
0.000141044
0.000137282
0.000130572
0.000120456
0.000109937
9.93599e-05
8.86606e-05
7.78515e-05
0.000136854
0.000133665
0.000129542
0.000121112
0.000109883
9.80786e-05
8.70673e-05
7.64221e-05
0.000138303
0.000134978
0.000129237
0.000119299
0.000108773
9.83328e-05
8.77886e-05
7.7153e-05
0.000141924
0.000138757
0.000131651
0.00012227
0.000112007
0.000101251
9.03929e-05
7.9472e-05
0.000149131
0.000145991
0.000138844
0.000129244
0.000118257
0.000106828
9.54269e-05
8.4057e-05
0.000374847
0.000338528
0.000298053
0.000259407
0.000225019
0.000194423
0.000166741
0.000141614
0.000374403
0.00033763
0.000296291
0.00025692
0.000221715
0.000190486
0.000162475
0.000137328
0.00036931
0.000332919
0.000291089
0.000252244
0.000217544
0.000186769
0.000159217
0.0001345
0.000368527
0.000332328
0.000290775
0.000251065
0.000215471
0.000184488
0.000157173
0.000132823
0.000369005
0.000332002
0.000289344
0.000250203
0.000215539
0.000184956
0.000157714
0.000133334
0.000375941
0.000337086
0.000293947
0.000253732
0.000218146
0.000186989
0.000159369
0.000134765
0.00038655
0.000345734
0.00030062
0.000258835
0.000222382
0.000190729
0.000162815
0.00013801
0.000622055
0.000520169
0.000422233
0.000339301
0.000273904
0.000222768
0.000182297
0.000150074
0.000621639
0.000519289
0.000421016
0.000337827
0.000272127
0.000220705
0.000180043
0.00014776
0.00062015
0.000516371
0.000419007
0.000336247
0.000270584
0.000219125
0.000178455
0.000146208
0.000619143
0.000514036
0.000417527
0.000335215
0.000269533
0.000218006
0.0001774
0.000145298
0.000620398
0.000514954
0.000417263
0.000334323
0.000268652
0.000217381
0.000177019
0.000145103
0.00062489
0.000519235
0.000418978
0.000334475
0.000268199
0.000216804
0.000176568
0.000144886
0.000636999
0.0005294
0.000424606
0.000337201
0.000269497
0.000217512
0.000177151
0.000145578
0.00140415
0.000908828
0.000573502
0.000394586
0.000291
0.000224217
0.000177834
0.000144426
0.00139802
0.000903409
0.000570677
0.000393539
0.000290524
0.00022371
0.000177126
0.000143567
0.00140804
0.000909786
0.000573553
0.000394427
0.000290498
0.000223217
0.000176369
0.000142671
0.00141608
0.000914581
0.000575323
0.00039461
0.000290072
0.000222626
0.000175812
0.000142218
0.00142093
0.000915432
0.000574258
0.000393127
0.000288703
0.00022152
0.000174977
0.000141614
0.00142487
0.000914259
0.000571489
0.000390354
0.000286231
0.000219469
0.000173419
0.000140551
0.00144038
0.000920276
0.000572547
0.000389429
0.000284589
0.000217739
0.000171936
0.000139461
0.0010895
0.000883886
0.000581528
0.000391986
0.000278929
0.000208609
0.000162926
0.000132421
0.00106456
0.000873236
0.000579609
0.000392404
0.000279477
0.000208724
0.00016263
0.000131939
0.00106221
0.000874367
0.000581581
0.000393572
0.000279825
0.000208515
0.000162104
0.000131284
0.00106278
0.000875152
0.00058224
0.000393768
0.000279749
0.000208351
0.000161951
0.000131189
0.00105968
0.000871823
0.000579307
0.000391412
0.000277913
0.000206957
0.000160921
0.000130431
0.00105378
0.000865262
0.000573457
0.000386921
0.000274576
0.00020454
0.000159247
0.000129346
0.00104695
0.000856578
0.000565107
0.000380314
0.000269573
0.000200842
0.000156614
0.000127494
0.000188127
0.00018078
0.000169244
0.00015484
0.000139883
0.000125322
0.000111458
9.82982e-05
0.000171379
0.000167778
0.000161671
0.00015093
0.00013777
0.000123887
0.000109862
9.63445e-05
0.000145267
0.000137535
0.000129232
0.000120204
0.000110949
0.000102108
9.26816e-05
8.26128e-05
0.000134785
0.000125849
0.000116618
0.000107195
9.76072e-05
8.89657e-05
8.10631e-05
7.18891e-05
0.000148167
0.00014083
0.000133117
0.000124455
0.000115581
0.000107016
9.729e-05
8.62203e-05
0.000172803
0.00017146
0.000165783
0.000154648
0.000141419
0.00012752
0.000113176
9.91508e-05
0.000185427
0.000178255
0.000167674
0.000154221
0.000139934
0.000125752
0.000112011
9.87524e-05
0.000427054
0.000377084
0.000323213
0.000274507
0.000233132
0.000198415
0.000169015
0.000143641
0.000445104
0.000399062
0.000347091
0.00029699
0.000252081
0.000212519
0.000178097
0.000148342
0.00045308
0.000401764
0.000352503
0.000307483
0.000266567
0.000228885
0.000193561
0.000161217
0.000434843
0.000383119
0.000334281
0.000289934
0.00025008
0.000215213
0.000183016
0.000154776
0.000460748
0.000411617
0.000363402
0.000319065
0.000278288
0.000239723
0.000202649
0.000168339
0.000451209
0.000405368
0.000352464
0.000302132
0.000256887
0.00021694
0.000182013
0.000151927
0.000415488
0.000369548
0.000319227
0.000273243
0.000233519
0.000199562
0.000170212
0.000144593
0.000695362
0.000559933
0.000433932
0.000335529
0.000263171
0.000210086
0.000170575
0.000140657
0.000739671
0.000603107
0.000483387
0.00038394
0.000306488
0.000247055
0.000200989
0.000164692
0.000810396
0.000650456
0.000539608
0.000456536
0.000382873
0.000316944
0.000259406
0.000212194
0.000776857
0.000612846
0.000497501
0.000410853
0.000341353
0.000284556
0.00023783
0.00019917
0.000807291
0.000654505
0.000551147
0.000465859
0.000390551
0.000326057
0.00027063
0.000222535
0.000735617
0.00060266
0.000481756
0.000381999
0.000305077
0.000246378
0.000201025
0.00016543
0.000684213
0.000553695
0.00043302
0.000337794
0.000266802
0.000213893
0.000173866
0.000143168
0.00148693
0.0009293
0.0005645
0.000374655
0.000268757
0.000203559
0.000160649
0.000131267
0.00169222
0.00109174
0.000678174
0.0004565
0.000332476
0.0002568
0.000206232
0.000169715
0.00196148
0.00136979
0.000921212
0.000656226
0.000500112
0.000396193
0.000317116
0.000255051
0.00191039
0.00134267
0.00089856
0.000629558
0.000465568
0.000358802
0.000285717
0.000233418
0.00192828
0.00133023
0.000880486
0.000622851
0.000475958
0.000383269
0.000316014
0.000260712
0.00163521
0.00104654
0.000648843
0.000438698
0.000320987
0.000247968
0.00019911
0.000164522
0.00146752
0.000923556
0.000566535
0.000379832
0.000274498
0.00020871
0.000164687
0.000134091
0.00100225
0.000812421
0.000529824
0.000353565
0.000249723
0.000186778
0.000147461
0.00012217
0.00112282
0.000920275
0.000616986
0.000425118
0.000311679
0.000242645
0.000198199
0.00016681
0.00138061
0.00117498
0.000847045
0.000636889
0.000511543
0.000426656
0.000348647
0.000275868
0.00160031
0.00139631
0.0010439
0.000797633
0.000629339
0.00049876
0.000388447
0.000301474
0.00131741
0.00110828
0.000783244
0.000576557
0.000456137
0.00038276
0.000327247
0.000271683
0.00109615
0.00089402
0.000594729
0.000406512
0.000295141
0.000227487
0.000184984
0.000156301
0.00102138
0.000822425
0.00053595
0.000358846
0.000254449
0.000190703
0.000150287
0.000123815
0.000165535
0.000161521
0.000154187
0.000143633
0.000131668
0.000119474
0.000107309
9.51399e-05
0.000140942
0.000134743
0.00012933
0.000124027
0.000116828
0.000108138
9.88904e-05
8.90276e-05
0.000117813
0.000110783
0.000104696
9.88632e-05
9.24854e-05
8.55707e-05
7.85812e-05
7.14755e-05
0.000111082
0.00010336
9.57962e-05
8.86857e-05
8.18285e-05
7.48652e-05
6.81539e-05
6.14962e-05
0.000118466
0.000111673
0.000106164
0.000100427
9.40347e-05
8.67431e-05
7.9171e-05
7.16358e-05
0.00013514
0.00012972
0.000125487
0.000120018
0.000113564
0.000105253
9.61508e-05
8.65105e-05
0.000146802
0.000141543
0.000137453
0.000130387
0.000121208
0.00011103
0.000100335
8.92211e-05
0.000389474
0.00034793
0.000302725
0.000260734
0.000224223
0.00019292
0.000165643
0.0001414
0.000372083
0.000326346
0.000287055
0.00025316
0.000222118
0.000194197
0.000168895
0.000145431
0.000386502
0.00032914
0.000281057
0.000242209
0.000209832
0.000182014
0.00015731
0.000134814
0.000386116
0.000330195
0.000280633
0.000237627
0.000200325
0.000168553
0.000141208
0.0001179
0.000360894
0.000309214
0.000265071
0.000228658
0.000197676
0.000171109
0.000147636
0.000126085
0.00035549
0.000317379
0.000279836
0.000247225
0.000216193
0.000188437
0.000163436
0.000140391
0.000366968
0.000335071
0.000296841
0.000259164
0.000224907
0.000194464
0.000167212
0.000142568
0.000663776
0.00053904
0.000430525
0.000340701
0.000271332
0.000218604
0.000178156
0.000146801
0.000688169
0.000538237
0.000444624
0.000367582
0.000301893
0.000247954
0.000204222
0.000168721
0.000711125
0.000542159
0.000427566
0.000348043
0.000290189
0.000246549
0.000210027
0.0001762
0.000679676
0.00051583
0.000402241
0.000321221
0.000260162
0.000212173
0.000173408
0.000142188
0.000657687
0.000496461
0.000387282
0.000311679
0.000257137
0.000216889
0.000182937
0.000152642
0.00062822
0.000494805
0.000409287
0.000340655
0.000282148
0.000233577
0.000193491
0.000160388
0.000621244
0.000513012
0.000420555
0.000340667
0.000275979
0.000224809
0.000184223
0.000151937
0.00153212
0.000982295
0.000607591
0.000407021
0.000293684
0.000223132
0.000175837
0.000142753
0.00167704
0.00113824
0.000731646
0.000493501
0.00035511
0.000268762
0.000210779
0.000169828
0.00160063
0.00111277
0.000765596
0.000548264
0.000406128
0.000308159
0.000238371
0.000187497
0.0014951
0.00101376
0.000677163
0.000473968
0.000348706
0.000267328
0.000210603
0.000167949
0.00149186
0.00101838
0.000688902
0.000490006
0.000363909
0.00027841
0.00021892
0.00017581
0.00153987
0.00104543
0.000675167
0.000459858
0.000334922
0.00025638
0.000202878
0.000164387
0.00145608
0.00095377
0.000602615
0.000411245
0.000301088
0.000231045
0.000183015
0.000148719
0.00111432
0.000889262
0.000578949
0.000387473
0.000274739
0.000205653
0.00016136
0.000131945
0.00130822
0.00104396
0.000687329
0.000463708
0.000330231
0.000247377
0.000193419
0.000156964
0.0014985
0.00118082
0.000796652
0.000551718
0.000398435
0.00029986
0.000234973
0.000190356
0.00154332
0.00120092
0.000814709
0.000573416
0.000428202
0.00033913
0.000280573
0.000236905
0.00145481
0.00114035
0.000761342
0.000524942
0.000381717
0.000290892
0.000230691
0.000188853
0.0013319
0.00106321
0.000696309
0.000467527
0.000332272
0.000248714
0.000194169
0.000157147
0.00118214
0.000946857
0.000616376
0.000411838
0.000291488
0.000217619
0.000170019
0.00013826
0.000153522
0.000151022
0.000145374
0.000135953
0.000124546
0.000112514
0.000100523
8.86832e-05
0.00014848
0.000143556
0.000139748
0.000133119
0.000123605
0.000112392
0.000100521
8.8503e-05
0.000135501
0.000127838
0.000120641
0.00011306
0.000104932
9.63228e-05
8.73037e-05
7.80339e-05
0.00012721
0.000117879
0.000108933
0.000100419
9.21638e-05
8.41236e-05
7.61317e-05
6.81499e-05
0.000136271
0.000128427
0.000121105
0.00011356
0.000105489
9.71191e-05
8.84156e-05
7.92021e-05
0.000159479
0.000153904
0.00014996
0.000142551
0.000132106
0.000120084
0.000107497
9.47782e-05
0.000183144
0.000176992
0.000166347
0.000152661
0.000138105
0.000123866
0.000110264
9.72282e-05
0.000398765
0.000359066
0.00031211
0.000267474
0.000228079
0.000194025
0.000164484
0.000138708
0.00040803
0.000366653
0.000321689
0.00027716
0.000236329
0.00020004
0.000168103
0.000139874
0.000421423
0.000370235
0.000322262
0.000279283
0.000240815
0.00020589
0.00017379
0.000144171
0.000433354
0.000377335
0.000325968
0.000280721
0.000241366
0.000206881
0.000176056
0.000147768
0.000448659
0.000394234
0.000344318
0.000299762
0.000259958
0.000223386
0.00018944
0.000157812
0.000437365
0.0003904
0.000341566
0.000293963
0.00025108
0.000213441
0.00018058
0.000151594
0.00042585
0.000374986
0.00032099
0.000272385
0.00023132
0.000196984
0.000167832
0.00014258
0.000658853
0.000546088
0.000436601
0.000344321
0.000272661
0.000217906
0.000175835
0.00014331
0.000704858
0.000574843
0.000469025
0.000377367
0.000302909
0.000244009
0.000197475
0.000160397
0.000768681
0.00060421
0.000492642
0.000412509
0.000348576
0.000291448
0.000239852
0.00019465
0.000780724
0.000605399
0.000483638
0.000395824
0.000327991
0.000272844
0.000226821
0.000188312
0.00080854
0.00063912
0.000525985
0.00044556
0.000381339
0.000323415
0.000270292
0.000221824
0.000745546
0.000603691
0.000488624
0.000391721
0.000315018
0.00025569
0.000209731
0.000173505
0.000692762
0.000558709
0.00043471
0.00033686
0.000264496
0.000211218
0.000171423
0.000141182
0.00150815
0.000960474
0.000591247
0.000396087
0.000285545
0.000216049
0.000169098
0.000136187
0.00171451
0.00112683
0.000705447
0.000474006
0.000343048
0.000262557
0.000208487
0.000169783
0.00196259
0.00138078
0.000932938
0.000664342
0.000502496
0.000397975
0.000322398
0.000259073
0.00189957
0.00132718
0.000884883
0.000611265
0.00044366
0.000336786
0.00026607
0.000216722
0.00200832
0.00141295
0.00095546
0.000682044
0.000520473
0.000420276
0.000349466