/*--------------------------------*- C++ -*----------------------------------*\
| =========                 |                                                 |
| \\      /  F ield         | OpenFOAM: The Open Source CFD Toolbox           |
|  \\    /   O peration     | Version:  plus.master.MPPICInterFoam            |
|   \\  /    A nd           | Web:      www.OpenFOAM.com                      |
|    \\/     M anipulation  |                                                 |
\*---------------------------------------------------------------------------*/
FoamFile
{
    version     2.0;
    format      ascii;
    class       volScalarField;
    location    "7";
    object      nut;
}
// * * * * * * * * * * * * * * * * * * * * * * * * * * * * * * * * * * * * * //

dimensions      [0 2 -1 0 0 0 0];

internalField   nonuniform List<scalar> 
11821
(
2.63509e-05
4.56129e-05
8.46977e-05
9.95546e-05
6.83799e-05
3.50022e-05
2.24204e-05
4.21804e-05
3.85535e-05
9.96441e-05
0.000110564
7.8824e-05
3.0571e-05
3.80606e-05
7.79642e-05
9.44237e-05
8.89519e-05
0.000132554
8.09442e-05
8.68119e-05
7.64563e-05
9.94016e-05
0.000113545
0.000131424
0.00012583
0.000135012
0.000105861
9.86714e-05
7.62653e-05
9.31966e-05
9.01141e-05
0.000132736
7.95299e-05
8.41039e-05
7.41834e-05
4.15611e-05
3.91155e-05
0.000102782
0.000113355
7.88243e-05
2.92709e-05
3.66458e-05
2.6783e-05
4.69096e-05
8.72707e-05
0.000101335
6.88627e-05
3.4553e-05
2.21224e-05
3.05419e-05
2.85373e-05
5.13879e-05
5.42901e-05
3.49579e-05
2.01059e-05
3.23602e-05
2.68517e-05
5.95699e-05
0.000109099
0.000129775
9.36746e-05
4.71445e-05
1.954e-05
4.43653e-05
0.000100549
0.00011941
0.000181671
0.000126437
9.99744e-05
3.74379e-05
5.05248e-05
0.000110267
0.000179748
0.000183719
0.000173312
0.000136523
5.04166e-05
4.30362e-05
9.9537e-05
0.000120025
0.000181725
0.000125634
9.68119e-05
3.52552e-05
2.67126e-05
5.98864e-05
0.000110283
0.000131186
9.21164e-05
4.48729e-05
1.9496e-05
3.10229e-05
2.904e-05
5.18653e-05
5.39355e-05
3.41006e-05
2.04089e-05
3.521e-05
5.50283e-05
4.52949e-05
6.34391e-05
6.79363e-05
4.73406e-05
3.4578e-05
6.27367e-05
4.51175e-05
7.50847e-05
0.000119704
0.000148914
0.000109841
5.72949e-05
3.37978e-05
5.75092e-05
0.000109105
0.000157409
0.000202283
0.000171066
0.000110872
4.19118e-05
5.9618e-05
0.000116993
0.0002202
0.000210657
0.000202724
0.000159494
5.79775e-05
5.6532e-05
0.000108142
0.000157352
0.000203817
0.000170407
0.00010754
4.02833e-05
4.52715e-05
7.44198e-05
0.000118575
0.000147863
0.00010721
5.50475e-05
3.53429e-05
5.64762e-05
4.60287e-05
6.29199e-05
6.65968e-05
4.63862e-05
3.63966e-05
6.71854e-05
9.66689e-05
6.79089e-05
7.53773e-05
7.94883e-05
5.90155e-05
6.39035e-05
0.000113067
6.97383e-05
8.89497e-05
0.000133636
0.000167286
0.000119066
6.37009e-05
6.67901e-05
7.18559e-05
0.00012192
0.00018117
0.000219911
0.000188372
0.000107365
4.88023e-05
7.136e-05
0.000133849
0.000237344
0.00022624
0.000224462
0.000153407
5.46537e-05
7.10325e-05
0.000120155
0.000180086
0.000222538
0.000187585
0.000104667
4.88243e-05
7.05925e-05
8.74081e-05
0.000129844
0.000162357
0.000114774
6.23103e-05
7.05305e-05
9.94566e-05
6.95756e-05
7.39985e-05
7.66472e-05
5.85141e-05
6.82393e-05
0.000117825
0.000112532
8.02114e-05
8.09019e-05
8.26622e-05
6.3984e-05
8.18257e-05
0.000129194
8.21775e-05
9.61104e-05
0.000140978
0.000173593
0.000116863
6.45986e-05
8.67952e-05
7.99901e-05
0.000131799
0.000191386
0.000226194
0.000187261
9.32454e-05
5.51725e-05
7.9263e-05
0.00014986
0.000248692
0.000230104
0.000224036
0.000121133
4.8753e-05
7.9229e-05
0.000129093
0.000189332
0.000228389
0.000185506
9.13862e-05
5.61388e-05
8.31519e-05
9.39576e-05
0.000135032
0.000165497
0.000112119
6.43375e-05
9.03277e-05
0.00011471
8.21569e-05
7.94576e-05
7.92272e-05
6.44047e-05
8.63971e-05
0.000132235
1.99503e-05
1.95441e-05
1.92704e-05
1.90413e-05
1.88596e-05
1.86467e-05
1.84521e-05
1.83022e-05
2.42572e-05
2.04768e-05
1.93367e-05
1.89437e-05
1.86783e-05
1.84152e-05
1.81847e-05
1.80251e-05
4.17997e-05
2.47804e-05
2.00916e-05
1.91155e-05
1.87175e-05
1.84158e-05
1.82047e-05
1.80041e-05
5.47396e-05
2.94976e-05
2.07332e-05
1.89162e-05
1.84246e-05
1.80439e-05
1.77997e-05
1.76809e-05
4.02991e-05
2.43139e-05
2.00264e-05
1.90696e-05
1.86407e-05
1.82789e-05
1.80554e-05
1.78832e-05
2.33363e-05
2.01619e-05
1.94641e-05
1.89482e-05
1.86303e-05
1.83396e-05
1.80868e-05
1.79185e-05
1.98341e-05
1.96083e-05
1.94703e-05
1.9189e-05
1.89449e-05
1.87202e-05
1.85202e-05
1.83506e-05
5.92306e-05
7.20645e-05
7.60804e-05
7.74864e-05
7.78576e-05
7.77954e-05
7.74393e-05
7.67586e-05
3.21692e-05
6.01341e-05
7.23532e-05
7.64408e-05
7.76422e-05
7.78568e-05
7.76104e-05
7.69814e-05
1.71284e-05
4.187e-05
6.5924e-05
7.44748e-05
7.6956e-05
7.7522e-05
7.73829e-05
7.67652e-05
1.40192e-05
3.10676e-05
6.14751e-05
7.33155e-05
7.66621e-05
7.74511e-05
7.73723e-05
7.67622e-05
1.7799e-05
4.39866e-05
6.68304e-05
7.47061e-05
7.69743e-05
7.7462e-05
7.7303e-05
7.6661e-05
3.63895e-05
6.32034e-05
7.35884e-05
7.69748e-05
7.79134e-05
7.80059e-05
7.768e-05
7.69785e-05
6.3666e-05
7.42729e-05
7.74186e-05
7.84559e-05
7.86836e-05
7.85455e-05
7.81136e-05
7.73135e-05
9.95382e-05
0.000113328
0.00011677
0.000115814
0.000112375
0.000107407
0.000101582
9.55443e-05
6.81242e-05
0.000101649
0.000113403
0.000115366
0.000112915
0.000108184
0.000102257
9.59877e-05
3.71729e-05
8.15747e-05
0.000107054
0.000113807
0.000112954
0.000108739
0.000102875
9.64697e-05
2.48914e-05
6.54827e-05
0.000102092
0.000112694
0.000112875
0.000108933
0.000103092
9.66136e-05
3.92096e-05
8.3856e-05
0.000107995
0.000114194
0.000113112
0.00010876
0.000102784
9.62773e-05
7.31163e-05
0.000104434
0.000114753
0.000116088
0.000113294
0.000108316
0.000102179
9.5725e-05
0.000103326
0.000115422
0.000118036
0.000116529
0.000112662
0.000107327
0.000101181
9.48678e-05
0.000145929
0.000153626
0.000151591
0.000145518
0.00013808
0.000130736
0.000123956
0.000117046
0.000120935
0.000146815
0.000151036
0.000146739
0.000139428
0.000131716
0.000124603
0.00011751
8.18759e-05
0.000131951
0.000147856
0.000147181
0.000140794
0.000133136
0.000125908
0.000118761
5.71112e-05
0.000119044
0.000145091
0.00014721
0.000141482
0.000133894
0.000126612
0.000119433
8.50241e-05
0.0001338
0.000148701
0.000147704
0.000141209
0.000133507
0.000126266
0.00011912
0.000124823
0.000148731
0.000152182
0.000147583
0.00014015
0.000132395
0.000125278
0.000118195
0.000148704
0.000155081
0.000152434
0.00014606
0.000138479
0.000131071
0.000124244
0.000117258
0.000146857
0.000142972
0.000131434
0.000117494
0.000103201
8.8978e-05
7.48772e-05
6.18736e-05
0.000133572
0.000143651
0.00013558
0.000121538
0.000106243
9.10367e-05
7.60462e-05
6.22187e-05
0.000103653
0.000137109
0.000137088
0.000124688
0.00010915
9.32981e-05
7.75715e-05
6.29901e-05
7.98271e-05
0.000129947
0.000136965
0.000126059
0.000110558
9.4414e-05
7.83291e-05
6.33848e-05
0.000105911
0.000138256
0.00013779
0.000125226
0.000109563
9.3581e-05
7.77202e-05
6.30199e-05
0.000135846
0.000144961
0.00013653
0.000122249
0.000106713
9.12557e-05
7.6031e-05
6.20304e-05
0.000148412
0.000143966
0.000132043
0.000117726
0.000103018
8.83821e-05
7.39511e-05
6.07836e-05
2.18478e-05
2.1248e-05
2.10686e-05
2.09148e-05
2.07622e-05
2.0645e-05
2.05584e-05
2.0503e-05
2.56591e-05
2.13495e-05
2.0621e-05
2.03524e-05
2.00025e-05
1.97231e-05
1.94907e-05
1.93134e-05
4.14792e-05
2.56771e-05
2.10449e-05
2.00307e-05
1.96212e-05
1.91807e-05
1.8933e-05
1.86951e-05
5.46364e-05
3.05747e-05
2.19001e-05
1.98952e-05
1.92264e-05
1.86853e-05
1.82188e-05
1.78669e-05
4.30887e-05
2.6534e-05
2.14122e-05
2.02396e-05
1.97472e-05
1.92609e-05
1.87727e-05
1.85922e-05
2.61172e-05
2.15252e-05
2.06226e-05
2.01676e-05
1.99582e-05
1.9794e-05
1.9724e-05
1.97088e-05
2.155e-05
2.09691e-05
2.08541e-05
2.07734e-05
2.06587e-05
2.05481e-05
2.04558e-05
2.03686e-05
6.00527e-05
7.46504e-05
7.89273e-05
8.00537e-05
7.99994e-05
7.93845e-05
7.83443e-05
7.68523e-05
3.38762e-05
5.92406e-05
7.30398e-05
7.82624e-05
7.99714e-05
8.03273e-05
8.00234e-05
7.9291e-05
2.29537e-05
3.94518e-05
6.22906e-05
7.34226e-05
7.74933e-05
7.86513e-05
7.86834e-05
7.81042e-05
2.19263e-05
3.00316e-05
5.42908e-05
6.8342e-05
7.35004e-05
7.47758e-05
7.45327e-05
7.36035e-05
2.31083e-05
3.81757e-05
6.12291e-05
7.28626e-05
7.72675e-05
7.86922e-05
7.89893e-05
7.8742e-05
3.32748e-05
5.8511e-05
7.2673e-05
7.82532e-05
8.02838e-05
8.08292e-05
8.07462e-05
8.01353e-05
5.97715e-05
7.42799e-05
7.84001e-05
7.95194e-05
7.95375e-05
7.90364e-05
7.8154e-05
7.68446e-05
9.22954e-05
0.000112401
0.000118538
0.000118243
0.000114379
0.000108317
0.000100994
9.32813e-05
5.98898e-05
9.34795e-05
0.000112126
0.000118278
0.00011791
0.000113982
0.00010799
0.000101036
4.04671e-05
6.72535e-05
9.85242e-05
0.000113637
0.000118085
0.00011705
0.000113067
0.000107587
3.42662e-05
5.23992e-05
8.77974e-05
0.000108016
0.000115033
0.000115151
0.000111702
0.000106447
4.0094e-05
6.59806e-05
9.77162e-05
0.000113268
0.000117931
0.000116998
0.000113058
0.000107603
5.87092e-05
9.25476e-05
0.000111687
0.000118141
0.000117942
0.000114092
0.000108128
0.000101186
9.16384e-05
0.000112063
0.000118387
0.000118373
0.000114821
0.000109053
0.000101976
9.4445e-05
0.000138114
0.000153884
0.000155345
0.00015033
0.000142674
0.000134488
0.000126584
0.000118403
0.000103554
0.000139422
0.000153611
0.000154579
0.000149569
0.000142599
0.000135548
0.000128323
7.04309e-05
0.000112436
0.000143601
0.000154373
0.000154258
0.000149978
0.000145005
0.000140075
5.50978e-05
9.3228e-05
0.000133614
0.000150582
0.00015318
0.000149846
0.00014516
0.000140539
6.95214e-05
0.00011131
0.000142913
0.000153774
0.000153556
0.000149107
0.000143911
0.000138667
0.000101778
0.000138343
0.000152926
0.000153917
0.000148744
0.000141501
0.000134091
0.000126416
0.000136908
0.000153485
0.000155373
0.000150586
0.000143002
0.000134785
0.000126813
0.000118594
0.000143612
0.000146903
0.000137235
0.000122764
0.000106916
9.08351e-05
7.4979e-05
6.06238e-05
0.000118204
0.000143009
0.00014345
0.000132
0.000116351
9.94773e-05
8.22084e-05
6.59447e-05
8.50397e-05
0.000124876
0.000142451
0.000138178
0.000124843
0.000108583
9.10391e-05
7.36988e-05
6.65123e-05
0.000108246
0.000137266
0.000138182
0.000126415
0.00011091
9.42099e-05
7.77092e-05
8.41125e-05
0.000123997
0.000141656
0.000137249
0.000123765
0.000107354
8.96879e-05
7.2292e-05
0.00011679
0.000142162
0.000142646
0.000131064
0.000115289
9.83495e-05
8.11217e-05
6.50249e-05
0.000142949
0.000146927
0.000137573
0.000123271
0.000107541
9.15431e-05
7.57042e-05
6.1277e-05
2.14338e-05
2.05097e-05
2.02892e-05
2.01064e-05
1.9875e-05
1.96821e-05
1.95063e-05
1.93514e-05
2.87613e-05
2.19007e-05
1.99273e-05
1.92874e-05
1.88237e-05
1.8496e-05
1.82035e-05
1.79696e-05
4.81902e-05
2.85304e-05
2.11367e-05
1.92506e-05
1.85729e-05
1.79578e-05
1.73155e-05
1.67836e-05
5.53847e-05
3.02074e-05
2.09841e-05
1.87133e-05
1.78901e-05
1.73398e-05
1.68504e-05
1.63863e-05
3.75022e-05
2.34234e-05
1.95903e-05
1.86497e-05
1.82075e-05
1.7819e-05
1.73563e-05
1.68102e-05
2.26265e-05
1.9744e-05
1.91214e-05
1.87377e-05
1.83951e-05
1.80628e-05
1.77035e-05
1.7486e-05
1.96661e-05
1.94276e-05
1.92386e-05
1.90871e-05
1.89543e-05
1.87731e-05
1.858e-05
1.83839e-05
5.89894e-05
7.38354e-05
7.72459e-05
7.80243e-05
7.7878e-05
7.73532e-05
7.65996e-05
7.55846e-05
3.09096e-05
5.43036e-05
6.8306e-05
7.35475e-05
7.48599e-05
7.45781e-05
7.36178e-05
7.23935e-05
2.33885e-05
3.31367e-05
5.49331e-05
6.60453e-05
6.95524e-05
6.97841e-05
6.87726e-05
6.72597e-05
2.00299e-05
2.91963e-05
5.2993e-05
6.46278e-05
6.80114e-05
6.79907e-05
6.66494e-05
6.47561e-05
2.08695e-05
4.34103e-05
6.31177e-05
7.05762e-05
7.24252e-05
7.2062e-05
7.08186e-05
6.92224e-05
3.91199e-05
6.34924e-05
7.21757e-05
7.47877e-05
7.51514e-05
7.46958e-05
7.3891e-05
7.28977e-05
6.32929e-05
7.27888e-05
7.56338e-05
7.64386e-05
7.64045e-05
7.60755e-05
7.56175e-05
7.50031e-05
9.05418e-05
0.000111341
0.000117805
0.000118283
0.000115414
0.000110418
0.000104104
9.72363e-05
5.42429e-05
8.76719e-05
0.000107655
0.000115043
0.000115778
0.000112906
0.000107913
0.000101833
3.55381e-05
5.64097e-05
8.93655e-05
0.000105957
0.000111134
0.00011061
0.000107044
0.000101818
2.92487e-05
4.74368e-05
8.44848e-05
0.000102986
0.00010855
0.000107938
0.000104159
9.86984e-05
3.52816e-05
7.11683e-05
9.97965e-05
0.000110843
0.000113185
0.000111247
0.000106882
0.00010115
6.76001e-05
0.000100915
0.000113098
0.00011627
0.000115128
0.000111471
0.000106201
0.000100086
0.000100955
0.000113922
0.00011726
0.000116594
0.000113491
0.000108773
0.000103052
9.69611e-05
0.000135777
0.00015338
0.000156149
0.00015225
0.000145454
0.000137915
0.000130593
0.000123114
9.58296e-05
0.000134486
0.000151725
0.000155074
0.000151791
0.000146045
0.00013996
0.000133786
6.00127e-05
0.000100894
0.000136738
0.000150402
0.000151849
0.00014818
0.000143003
0.000137469
4.69695e-05
8.62686e-05
0.000130019
0.000147113
0.00014951
0.000145788
0.000140155
0.000133973
6.62043e-05
0.00011664
0.000144932
0.000152982
0.000151666
0.000146611
0.00014061
0.000134378
0.000115267
0.00014669
0.000155334
0.000154425
0.000149344
0.000142932
0.000136663
0.000130482
0.00014676
0.00015565
0.000154508
0.000149191
0.000142245
0.000135177
0.000128575
0.000121863
0.000142887
0.000147527
0.000138667
0.000124869
0.000109682
9.4187e-05
7.86419e-05
6.41217e-05
0.000113542
0.000141968
0.000144912
0.000134873
0.000120142
0.000104075
8.73393e-05
7.1097e-05
7.64112e-05
0.000119473
0.000141515
0.000139025
0.000126094
0.000109937
9.27536e-05
7.59419e-05
5.93542e-05
0.00010593
0.000137988
0.000139124
0.000126819
0.000110406
9.30023e-05
7.63917e-05
8.50767e-05
0.000131005
0.000144849
0.000138298
0.000123935
0.000107467
9.04166e-05
7.4221e-05
0.000131016
0.00014835
0.000144014
0.000131463
0.000116332
0.000100779
8.51533e-05
7.02503e-05
0.000148928
0.000145817
0.000134409
0.0001205
0.000106254
9.20872e-05
7.80081e-05
6.47e-05
1.99318e-05
1.96933e-05
1.95602e-05
1.949e-05
1.93166e-05
1.91389e-05
1.89653e-05
1.87613e-05
2.31439e-05
2.04296e-05
1.97166e-05
1.93558e-05
1.90216e-05
1.87426e-05
1.84949e-05
1.82882e-05
3.87027e-05
2.45427e-05
2.05258e-05
1.95718e-05
1.9082e-05
1.86244e-05
1.82049e-05
1.78233e-05
5.72202e-05
3.1596e-05
2.21346e-05
1.98452e-05
1.90862e-05
1.85512e-05
1.80563e-05
1.75753e-05
5.0304e-05
2.97718e-05
2.20756e-05
2.0102e-05
1.94045e-05
1.89103e-05
1.84564e-05
1.80374e-05
3.04313e-05
2.34014e-05
2.09998e-05
2.03009e-05
1.99127e-05
1.95315e-05
1.92754e-05
1.90772e-05
2.24278e-05
2.13345e-05
2.09372e-05
2.07427e-05
2.05615e-05
2.04095e-05
2.03013e-05
2.02237e-05
6.64599e-05
7.51664e-05
7.75935e-05
7.82795e-05
7.83327e-05
7.81346e-05
7.77528e-05
7.70915e-05
4.17344e-05
6.59837e-05
7.44769e-05
7.71647e-05
7.78239e-05
7.7789e-05
7.74365e-05
7.68399e-05
2.1765e-05
4.57331e-05
6.58733e-05
7.36907e-05
7.60161e-05
7.62963e-05
7.58292e-05
7.50213e-05
2.01532e-05
3.11091e-05
5.64561e-05
6.90873e-05
7.31254e-05
7.36169e-05
7.27915e-05
7.14393e-05
2.3711e-05
3.47494e-05
5.80027e-05
7.01648e-05
7.44356e-05
7.53638e-05
7.50621e-05
7.42729e-05
3.0907e-05
5.48379e-05
7.04107e-05
7.65796e-05
7.85268e-05
7.88216e-05
7.84921e-05
7.77986e-05
5.97072e-05
7.55546e-05
7.927e-05
8.02072e-05
8.01467e-05
7.95962e-05
7.86561e-05
7.72733e-05
0.00010431
0.000116273
0.000118898
0.00011759
0.00011388
0.000108571
0.000102298
9.57319e-05
7.20564e-05
0.000104203
0.000115646
0.000118279
0.000116612
0.000112393
0.000106542
9.98863e-05
3.79401e-05
7.53831e-05
0.000103765
0.000114707
0.000117016
0.00011505
0.000110633
0.000104855
3.03527e-05
5.17426e-05
8.96304e-05
0.00010849
0.000114368
0.000114002
0.000110415
0.000105127
3.71939e-05
6.03925e-05
9.40661e-05
0.000110845
0.000116018
0.00011539
0.000111696
0.000106396
5.5892e-05
8.98321e-05
0.000110016
0.000117181
0.000117448
0.000113989
0.000108368
0.000101687
9.22004e-05
0.00011273
0.000118655
0.000118438
0.000114779
0.000108945
0.000101814
9.42228e-05
0.000149385
0.000156862
0.000154743
0.00014871
0.000141267
0.000133838
0.000126894
0.000119737
0.000120254
0.000149337
0.000156558
0.000154627
0.00014889
0.000142157
0.000135743
0.000129305
7.19251e-05
0.000122325
0.000148844
0.000155923
0.00015432
0.000149693
0.000144845
0.000140237
5.03348e-05
9.3804e-05
0.000136088
0.000152012
0.000154022
0.000150645
0.000146107
0.000141598
6.44651e-05
0.00010755
0.00014167
0.00015377
0.000154326
0.000150508
0.000145948
0.00014146
0.000100102
0.000137427
0.000152898
0.000154728
0.000150293
0.000143747
0.000137073
0.000130224
0.000137825
0.000153857
0.000155418
0.000150566
0.000143069
0.000135018
0.000127242
0.000119209
0.000150236
0.000146459
0.000134635
0.00012025
0.000105334
9.03768e-05
7.54936e-05
6.17725e-05
0.000134275
0.000149615
0.000144492
0.000131639
0.000116267
0.000100123
8.34911e-05
6.75466e-05
9.11576e-05
0.00013499
0.000146701
0.00013969
0.000125838
0.000109837
9.27004e-05
7.56089e-05
6.3986e-05
0.000112531
0.000141254
0.000140879
0.000128763
0.000113261
9.65753e-05
7.99694e-05
8.1846e-05
0.000124525
0.000143538
0.000139718
0.000126623
0.00011046
9.27554e-05
7.49601e-05
0.000116915
0.00014296
0.000144202
0.000133209
0.000117777
0.000100904
8.33954e-05
6.66718e-05
0.000143479
0.000146965
0.00013743
0.000123071
0.00010729
9.12228e-05
7.53209e-05
6.08637e-05
1.81725e-05
1.78793e-05
1.77693e-05
1.75093e-05
1.76232e-05
1.77834e-05
1.82136e-05
7.56686e-05
7.58971e-05
7.56732e-05
7.56528e-05
7.5552e-05
7.58123e-05
7.60537e-05
8.99296e-05
9.02758e-05
9.06674e-05
9.07545e-05
9.03978e-05
8.98764e-05
8.90206e-05
0.000108333
0.000108413
0.000109471
0.000110082
0.000109833
0.000109091
0.000108384
5.04631e-05
4.99172e-05
4.99108e-05
4.99517e-05
4.98564e-05
4.9656e-05
4.94488e-05
2.04305e-05
1.93658e-05
1.82361e-05
1.75316e-05
1.83772e-05
1.95596e-05
2.02802e-05
7.48713e-05
7.8134e-05
7.72344e-05
7.23363e-05
7.80592e-05
7.90808e-05
7.50454e-05
8.5996e-05
9.42955e-05
0.000102101
0.000101016
0.000102149
9.4448e-05
8.72807e-05
0.000108236
0.000118938
0.000133243
0.000134409
0.000131396
0.000116529
0.000108478
4.8735e-05
5.17242e-05
5.72126e-05
6.11381e-05
5.59712e-05
5.11123e-05
4.92343e-05
1.92125e-05
1.78082e-05
1.63914e-05
1.59605e-05
1.64067e-05
1.74135e-05
1.81752e-05
7.42307e-05
7.10102e-05
6.55672e-05
6.27086e-05
6.74987e-05
7.16669e-05
7.41521e-05
9.05876e-05
9.5835e-05
9.63289e-05
9.29968e-05
9.53033e-05
9.4133e-05
9.11576e-05
0.000113848
0.000125857
0.000130409
0.000126229
0.000126662
0.000122713
0.000113377
5.14057e-05
5.57732e-05
5.92872e-05
5.98677e-05
5.82921e-05
5.58961e-05
5.25886e-05
1.85355e-05
1.81836e-05
1.75164e-05
1.71072e-05
1.76298e-05
1.8879e-05
2.01474e-05
7.60317e-05
7.59225e-05
7.40011e-05
6.99461e-05
7.33095e-05
7.68531e-05
7.5373e-05
8.95432e-05
9.34779e-05
9.90803e-05
9.96715e-05
0.00010099
9.51449e-05
8.69695e-05
0.000110588
0.000120716
0.000133885
0.000135498
0.000135124
0.000121164
0.000109201
4.99335e-05
5.31304e-05
5.89115e-05
6.30899e-05
5.77748e-05
5.19519e-05
4.88315e-05
1.80502e-05
1.78601e-05
1.74244e-05
1.68676e-05
1.61856e-05
1.54225e-05
1.46e-05
1.37107e-05
1.77487e-05
1.75498e-05
1.71029e-05
1.65092e-05
1.5813e-05
1.50409e-05
1.42116e-05
1.33196e-05
1.76003e-05
1.73591e-05
1.69316e-05
1.62633e-05
1.55371e-05
1.47707e-05
1.39525e-05
1.3074e-05
1.73384e-05
1.71281e-05
1.68645e-05
1.63073e-05
1.55334e-05
1.46753e-05
1.38267e-05
1.29535e-05
1.74287e-05
1.72132e-05
1.68451e-05
1.61854e-05
1.54551e-05
1.46945e-05
1.38841e-05
1.30156e-05
1.76547e-05
1.74534e-05
1.70024e-05
1.6386e-05
1.56834e-05
1.49112e-05
1.40888e-05
1.321e-05
1.80927e-05
1.79032e-05
1.74609e-05
1.6847e-05
1.61151e-05
1.53165e-05
1.4476e-05
1.3586e-05
7.38653e-05
7.06945e-05
6.78033e-05
6.46788e-05
6.06638e-05
5.5542e-05
4.94174e-05
4.25143e-05
7.41394e-05
7.09922e-05
6.78983e-05
6.45148e-05
6.02336e-05
5.48984e-05
4.86468e-05
4.17244e-05
7.3904e-05
7.08006e-05
6.74294e-05
6.38745e-05
5.95145e-05
5.41749e-05
4.79813e-05
4.11609e-05
7.38921e-05
7.08867e-05
6.74274e-05
6.36624e-05
5.91292e-05
5.37432e-05
4.75896e-05
4.08503e-05
7.3749e-05
7.05911e-05
6.71206e-05
6.3539e-05
5.92125e-05
5.39291e-05
4.78053e-05
4.10586e-05
7.39244e-05
7.05851e-05
6.73638e-05
6.3979e-05
5.97461e-05
5.44842e-05
4.83231e-05
4.15044e-05
7.39518e-05
7.0471e-05
6.75297e-05
6.44809e-05
6.05339e-05
5.54536e-05
4.93674e-05
4.25275e-05
8.40182e-05
7.81238e-05
7.67079e-05
7.48769e-05
7.10107e-05
6.5026e-05
5.74259e-05
4.88145e-05
8.45511e-05
7.87789e-05
7.72363e-05
7.51291e-05
7.092e-05
6.45945e-05
5.67138e-05
4.79371e-05
8.50086e-05
7.918e-05
7.73207e-05
7.49382e-05
7.05105e-05
6.40453e-05
5.61066e-05
4.73461e-05
8.50903e-05
7.92713e-05
7.72324e-05
7.47088e-05
7.01693e-05
6.36395e-05
5.56907e-05
4.69678e-05
8.46662e-05
7.87739e-05
7.68431e-05
7.44662e-05
7.00806e-05
6.36733e-05
5.58029e-05
4.71194e-05
8.40144e-05
7.80266e-05
7.63726e-05
7.42685e-05
7.01108e-05
6.38482e-05
5.60433e-05
4.73696e-05
8.28509e-05
7.69463e-05
7.56165e-05
7.39142e-05
7.01844e-05
6.4283e-05
5.67282e-05
4.81837e-05
9.70503e-05
8.41666e-05
7.73026e-05
7.48455e-05
7.20159e-05
6.70238e-05
6.00071e-05
5.167e-05
9.72318e-05
8.46092e-05
7.79585e-05
7.55232e-05
7.245e-05
6.70393e-05
5.95581e-05
5.084e-05
9.82247e-05
8.53997e-05
7.84291e-05
7.56776e-05
7.23181e-05
6.6664e-05
5.90091e-05
5.02057e-05
9.87599e-05
8.57425e-05
7.85279e-05
7.55793e-05
7.2073e-05
6.63105e-05
5.85919e-05
4.97761e-05
9.84797e-05
8.53767e-05
7.81461e-05
7.52714e-05
7.18811e-05
6.62298e-05
5.85996e-05
4.98472e-05
9.77213e-05
8.45899e-05
7.74635e-05
7.47832e-05
7.15999e-05
6.61151e-05
5.85964e-05
4.99144e-05
9.68727e-05
8.35401e-05
7.63837e-05
7.386e-05
7.09957e-05
6.58915e-05
5.87266e-05
5.03261e-05
6.29764e-05
7.02645e-05
7.01028e-05
7.01887e-05
6.90241e-05
6.54815e-05
5.97624e-05
5.26057e-05
6.31326e-05
7.09932e-05
7.12266e-05
7.13946e-05
7.00034e-05
6.5986e-05
5.96783e-05
5.19922e-05
6.37385e-05
7.18034e-05
7.19065e-05
7.18037e-05
7.00982e-05
6.57776e-05
5.92247e-05
5.13868e-05
6.40204e-05
7.21351e-05
7.21313e-05
7.18735e-05
7.00098e-05
6.55485e-05
5.88928e-05
5.1002e-05
6.37454e-05
7.1787e-05
7.17907e-05
7.1586e-05
6.97968e-05
6.54095e-05
5.8821e-05
5.09918e-05
6.31464e-05
7.10811e-05
7.11614e-05
7.11138e-05
6.94822e-05
6.52142e-05
5.87104e-05
5.09542e-05
6.20239e-05
6.96007e-05
6.96511e-05
6.97584e-05
6.83975e-05
6.44595e-05
5.83016e-05
5.08736e-05
2.03202e-05
1.99226e-05
1.92778e-05
1.84396e-05
1.75265e-05
1.65892e-05
1.56445e-05
1.46918e-05
1.93998e-05
1.91877e-05
1.88381e-05
1.82031e-05
1.7392e-05
1.64926e-05
1.55309e-05
1.45439e-05
1.78614e-05
1.73789e-05
1.68456e-05
1.6246e-05
1.56074e-05
1.4972e-05
1.4264e-05
1.3467e-05
1.72041e-05
1.66235e-05
1.60018e-05
1.53411e-05
1.46384e-05
1.39748e-05
1.33393e-05
1.25617e-05
1.80396e-05
1.75869e-05
1.7098e-05
1.65315e-05
1.59294e-05
1.5326e-05
1.4613e-05
1.37576e-05
1.94803e-05
1.93977e-05
1.90766e-05
1.84259e-05
1.76207e-05
1.67326e-05
1.57635e-05
1.47543e-05
2.01723e-05
1.97816e-05
1.91868e-05
1.84014e-05
1.75284e-05
1.66163e-05
1.56821e-05
1.47245e-05
7.207e-05
6.91597e-05
6.73729e-05
6.54399e-05
6.23119e-05
5.76958e-05
5.17779e-05
4.48538e-05
7.61707e-05
7.30946e-05
7.00219e-05
6.67412e-05
6.2574e-05
5.72496e-05
5.09244e-05
4.38515e-05
7.56767e-05
7.33834e-05
7.06007e-05
6.72121e-05
6.30725e-05
5.81112e-05
5.23708e-05
4.59006e-05
7.03296e-05
6.73788e-05
6.39846e-05
6.01593e-05
5.59372e-05
5.13809e-05
4.60932e-05
4.0664e-05
7.67199e-05
7.47524e-05
7.22382e-05
6.9094e-05
6.50555e-05
6.00237e-05
5.4126e-05
4.74986e-05
7.72275e-05
7.41784e-05
7.12753e-05
6.81648e-05
6.40408e-05
5.86593e-05
5.21956e-05
4.49561e-05
7.24118e-05
6.95637e-05
6.77394e-05
6.57397e-05
6.2549e-05
5.78988e-05
5.19468e-05
4.49769e-05
7.83891e-05
7.33891e-05
7.24065e-05
7.14567e-05
6.86996e-05
6.36752e-05
5.67822e-05
4.86874e-05
8.71165e-05
7.96719e-05
7.68835e-05
7.42448e-05
6.99948e-05
6.39578e-05
5.66217e-05
4.8505e-05
9.60508e-05
9.07127e-05
8.66081e-05
8.1889e-05
7.64459e-05
7.00191e-05
6.29379e-05
5.54694e-05
9.48808e-05
8.91003e-05
8.44923e-05
7.94436e-05
7.36109e-05
6.71845e-05
6.03988e-05
5.34472e-05
9.62025e-05
9.10246e-05
8.67504e-05
8.26787e-05
7.75533e-05
7.12785e-05
6.42352e-05
5.67199e-05
8.72958e-05
8.00775e-05
7.78298e-05
7.5599e-05
7.1605e-05
6.56666e-05
5.82676e-05
4.99939e-05
7.97209e-05
7.44673e-05
7.34864e-05
7.25266e-05
6.97565e-05
6.47564e-05
5.78933e-05
4.97653e-05
9.54353e-05
8.10166e-05
7.31568e-05
7.04832e-05
6.79598e-05
6.33799e-05
5.68133e-05
4.91019e-05
0.000106327
9.04869e-05
8.00706e-05
7.45582e-05
6.96247e-05
6.35167e-05
5.64657e-05
4.89518e-05
0.000122884
0.000108072
9.64388e-05
8.84201e-05
8.11969e-05
7.35288e-05
6.564e-05
5.79258e-05
0.000125148
0.000110125
9.75255e-05
8.85826e-05
8.10679e-05
7.37324e-05
6.62478e-05
5.87527e-05
0.000120481
0.000105493
9.41435e-05
8.68415e-05
8.02683e-05
7.30803e-05
6.55037e-05
5.79277e-05
0.000103802
8.84629e-05
7.91489e-05
7.48624e-05
7.07564e-05
6.49689e-05
5.78119e-05
5.01134e-05
9.57579e-05
8.15031e-05
7.39307e-05
7.15034e-05
6.92202e-05
6.49145e-05
5.85602e-05
5.08792e-05
5.92764e-05
6.64483e-05
6.64782e-05
6.66919e-05
6.5425e-05
6.15572e-05
5.56403e-05
4.87844e-05
6.46739e-05
7.22477e-05
7.09902e-05
6.89204e-05
6.52541e-05
5.99706e-05
5.39875e-05
4.77111e-05
7.67634e-05
8.73202e-05
8.60999e-05
8.28643e-05
7.79231e-05
7.14681e-05
6.35036e-05
5.51641e-05
8.49984e-05
9.68616e-05
9.56446e-05
9.16166e-05
8.56349e-05
7.82522e-05
7.02524e-05
6.20864e-05
7.38827e-05
8.36227e-05
8.24184e-05
7.95101e-05
7.48344e-05
6.8742e-05
6.17615e-05
5.39946e-05
6.3258e-05
7.06411e-05
7.00394e-05
6.90338e-05
6.63039e-05
6.1278e-05
5.48686e-05
4.8305e-05
5.93641e-05
6.6087e-05
6.62838e-05
6.69702e-05
6.63417e-05
6.31132e-05
5.76078e-05
5.08297e-05
1.90606e-05
1.88299e-05
1.83989e-05
1.77586e-05
1.7003e-05
1.61963e-05
1.53493e-05
1.44525e-05
1.75909e-05
1.72004e-05
1.68522e-05
1.6502e-05
1.60168e-05
1.54098e-05
1.4736e-05
1.39815e-05
1.60828e-05
1.55956e-05
1.51613e-05
1.4733e-05
1.42499e-05
1.37068e-05
1.3135e-05
1.25269e-05
1.56178e-05
1.50647e-05
1.45028e-05
1.39538e-05
1.34033e-05
1.28202e-05
1.22318e-05
1.16187e-05
1.61311e-05
1.56614e-05
1.52704e-05
1.48519e-05
1.43711e-05
1.38023e-05
1.31857e-05
1.25421e-05
1.7229e-05
1.688e-05
1.66025e-05
1.62357e-05
1.57933e-05
1.52041e-05
1.45313e-05
1.3783e-05
1.79572e-05
1.76282e-05
1.73734e-05
1.69214e-05
1.63148e-05
1.56145e-05
1.4843e-05
1.39963e-05
7.20481e-05
6.86494e-05
6.59173e-05
6.32745e-05
5.98618e-05
5.53435e-05
4.97443e-05
4.32034e-05
6.90225e-05
6.66462e-05
6.39235e-05
6.04571e-05
5.63612e-05
5.17275e-05
4.64661e-05
4.05046e-05
6.31783e-05
5.98781e-05
5.63408e-05
5.26654e-05
4.88894e-05
4.49803e-05
4.08385e-05
3.63214e-05
5.99142e-05
5.58858e-05
5.16202e-05
4.71644e-05
4.2598e-05
3.80892e-05
3.36581e-05
2.93616e-05
6.50604e-05
6.15615e-05
5.77472e-05
5.37171e-05
4.94981e-05
4.51296e-05
4.04918e-05
3.53886e-05
6.98432e-05
6.74868e-05
6.43867e-05
6.06428e-05
5.60872e-05
5.10064e-05
4.54051e-05
3.92545e-05
7.27169e-05
7.04316e-05
6.72613e-05
6.38173e-05
5.96602e-05
5.45902e-05
4.86489e-05
4.19636e-05
8.3387e-05
7.60449e-05
7.37881e-05
7.1901e-05
6.85294e-05
6.33619e-05
5.6708e-05
4.89917e-05
8.93072e-05
8.32126e-05
7.80511e-05
7.37027e-05
6.86648e-05
6.25294e-05
5.55188e-05
4.78937e-05
8.99891e-05
8.29931e-05
7.68944e-05
7.06907e-05
6.41902e-05
5.74952e-05
5.05547e-05
4.31999e-05
8.63432e-05
7.84378e-05
7.1291e-05
6.41655e-05
5.70387e-05
5.00783e-05
4.34085e-05
3.71393e-05
8.86952e-05
8.13171e-05
7.47451e-05
6.80307e-05
6.10157e-05
5.38802e-05
4.66066e-05
3.92143e-05
8.77628e-05
8.17919e-05
7.68477e-05
7.23444e-05
6.70267e-05
6.06179e-05
5.34175e-05
4.57277e-05
8.49525e-05
7.88303e-05
7.63145e-05
7.38426e-05
6.96778e-05
6.37233e-05
5.64112e-05
4.82157e-05
0.000101315
8.60703e-05
7.67906e-05
7.26719e-05
6.92914e-05
6.46363e-05
5.85171e-05
5.13012e-05
0.000114687
9.91929e-05
8.72738e-05
7.94634e-05
7.27949e-05
6.57721e-05
5.82961e-05
5.05467e-05
0.000120622
0.000106895
9.53456e-05
8.50368e-05
7.47791e-05
6.4525e-05
5.45558e-05
4.49263e-05
0.000115977
0.000101504
8.93586e-05
7.89977e-05
6.91498e-05
5.98049e-05
5.11423e-05
4.3089e-05
0.000116426
0.00010247
9.10136e-05
8.09389e-05
7.09203e-05
6.10229e-05
5.17272e-05
4.30499e-05
0.000112039
9.70186e-05
8.56056e-05
7.8066e-05
7.13634e-05
6.4185e-05
5.66029e-05
4.88582e-05
0.000101665
8.7607e-05
7.89876e-05
7.4882e-05
7.10232e-05
6.56895e-05
5.89041e-05
5.11259e-05
6.29848e-05
6.92069e-05
6.81017e-05
6.75272e-05
6.62103e-05
6.30958e-05
5.82559e-05
5.21683e-05
7.2905e-05
8.00383e-05
7.69552e-05
7.35546e-05
6.94287e-05
6.41533e-05
5.80477e-05
5.14489e-05
8.58116e-05
9.32211e-05
8.82555e-05
8.19637e-05
7.44611e-05
6.6131e-05
5.76749e-05
4.92843e-05
9.14567e-05
9.84545e-05
9.2162e-05
8.40773e-05
7.51122e-05
6.61729e-05
5.78318e-05
4.99547e-05
8.45913e-05
9.19958e-05
8.67812e-05
8.01906e-05
7.24783e-05
6.41178e-05
5.58808e-05
4.80222e-05
7.47055e-05
8.23127e-05
7.87271e-05
7.45853e-05
6.96411e-05
6.36336e-05
5.7043e-05
5.02633e-05
6.64964e-05
7.34145e-05
7.16924e-05
7.02333e-05
6.79744e-05
6.40254e-05
5.85756e-05
5.2088e-05
1.83621e-05
1.82085e-05
1.78663e-05
1.72783e-05
1.65376e-05
1.57183e-05
1.48569e-05
1.39543e-05
1.80589e-05
1.77563e-05
1.75156e-05
1.70962e-05
1.64742e-05
1.57092e-05
1.48561e-05
1.39392e-05
1.72517e-05
1.67568e-05
1.62782e-05
1.5758e-05
1.51806e-05
1.45439e-05
1.38457e-05
1.30894e-05
1.6715e-05
1.60898e-05
1.54667e-05
1.48495e-05
1.42255e-05
1.35905e-05
1.2928e-05
1.22315e-05
1.73001e-05
1.67948e-05
1.63089e-05
1.57924e-05
1.52205e-05
1.46039e-05
1.39337e-05
1.31871e-05
1.87158e-05
1.83849e-05
1.81445e-05
1.76923e-05
1.70323e-05
1.62389e-05
1.53641e-05
1.44261e-05
2.00495e-05
1.97132e-05
1.91125e-05
1.83097e-05
1.74149e-05
1.64926e-05
1.55605e-05
1.46115e-05
7.41767e-05
7.08752e-05
6.78354e-05
6.4739e-05
6.07886e-05
5.57083e-05
4.96063e-05
4.27217e-05
7.43065e-05
7.17743e-05
6.83971e-05
6.46499e-05
6.02811e-05
5.50334e-05
4.89405e-05
4.21368e-05
7.22849e-05
6.98296e-05
6.68809e-05
6.34361e-05
5.93747e-05
5.45856e-05
4.89745e-05
4.25298e-05
6.77458e-05
6.46893e-05
6.12976e-05
5.75067e-05
5.33223e-05
4.88192e-05
4.39662e-05
3.85697e-05
7.17297e-05
6.96576e-05
6.7154e-05
6.41155e-05
6.04332e-05
5.59513e-05
5.05907e-05
4.42848e-05
7.52076e-05
7.28091e-05
6.9675e-05
6.62466e-05
6.21788e-05
5.71423e-05
5.11363e-05
4.42974e-05
7.25075e-05
6.92053e-05
6.7068e-05