/*--------------------------------*- C++ -*----------------------------------*\
| =========                 |                                                 |
| \\      /  F ield         | OpenFOAM: The Open Source CFD Toolbox           |
|  \\    /   O peration     | Version:  plus.master.MPPICInterFoam            |
|   \\  /    A nd           | Web:      www.OpenFOAM.com                      |
|    \\/     M anipulation  |                                                 |
\*---------------------------------------------------------------------------*/
FoamFile
{
    version     2.0;
    format      ascii;
    class       volScalarField;
    location    "7";
    object      p;
}
// * * * * * * * * * * * * * * * * * * * * * * * * * * * * * * * * * * * * * //

dimensions      [1 -1 -2 0 0 0 0];

internalField   nonuniform List<scalar> 
11821
(
5632.02
5628.2
5627.1
5627.61
5627.23
5628.67
5631.68
5628.3
5636.93
5627.63
5628.38
5628.09
5636.53
5628.02
5627.14
5627.65
5629.68
5626.89
5629.26
5627.27
5626.49
5628.05
5628.65
5627.93
5628.34
5625.76
5628.45
5627.06
5627.2
5627.53
5629.63
5627.09
5629.19
5627.14
5626.71
5628.28
5636.79
5627.54
5628.34
5627.91
5636.35
5628.27
5631.77
5627.7
5626.57
5627.23
5626.86
5628.43
5631.66
5517.34
5518.83
5520.5
5520.7
5520.01
5518.44
5517.05
5518.8
5524.17
5526.44
5526.99
5525.48
5521.54
5518.53
5520.58
5526.45
5544.78
5543.01
5542.38
5524.41
5519.79
5521
5526.33
5541.99
5550.65
5543.74
5528.27
5520.46
5520.58
5526.55
5544.95
5543.59
5542.36
5524.49
5519.81
5518.84
5523.86
5526.57
5527.72
5525.54
5521.62
5518.55
5517.38
5518.92
5520.62
5520.9
5520.14
5518.52
5517.08
5392.41
5395.33
5397.81
5399.02
5398.07
5395.64
5392.72
5395.03
5399.12
5403.07
5407.31
5404.53
5400.08
5395.86
5397.22
5402.73
5415.98
5422.67
5417.28
5403.91
5398.48
5397.77
5403.01
5414
5431.93
5425.46
5409.71
5400.26
5397.15
5402.65
5415.96
5423.01
5417.13
5403.67
5398.17
5395
5399.13
5403.12
5407.34
5403.96
5399.79
5395.68
5392.37
5395.35
5397.87
5399.09
5397.92
5395.47
5392.58
5257.56
5261.45
5264.66
5266.26
5264.92
5261.76
5257.88
5261.07
5266.28
5271.21
5275.52
5272.66
5267.66
5262.23
5263.83
5270.71
5281.98
5291.87
5284.22
5272.83
5265.8
5264.61
5271.61
5280.86
5301.56
5295.43
5277.18
5268.22
5263.72
5270.52
5281.55
5291.48
5283.42
5272.25
5265.3
5260.99
5266.19
5271.01
5274.87
5272.21
5267.28
5261.91
5257.54
5261.42
5264.59
5266.1
5264.73
5261.57
5257.76
5100.75
5105.33
5109.48
5111.69
5109.07
5104.94
5100.64
5104.91
5111.62
5118.57
5124.11
5118.2
5111.5
5105.08
5108.41
5117.68
5129.82
5138.89
5128.76
5117.61
5108.98
5109.57
5119.67
5129.76
5149.73
5137.26
5122.43
5111.41
5108.15
5117.18
5128.76
5137.63
5127.87
5117.43
5108.85
5104.62
5111.19
5117.96
5123.03
5117.56
5111.12
5104.85
5100.51
5104.97
5109
5111.1
5108.6
5104.63
5100.45
5634.78
5636.86
5638.21
5639.22
5639.99
5640.55
5640.97
5641.29
5632.84
5635.91
5637.63
5638.89
5639.8
5640.46
5640.94
5641.32
5631.83
5635.64
5637.5
5638.83
5639.77
5640.44
5640.97
5641.38
5632.16
5635.79
5637.56
5638.87
5639.82
5640.44
5640.92
5641.34
5631.81
5635.55
5637.54
5638.87
5639.8
5640.45
5640.96
5641.38
5632.67
5635.76
5637.66
5638.88
5639.79
5640.44
5640.91
5641.29
5634.7
5636.78
5638.2
5639.2
5639.96
5640.52
5640.94
5641.27
5515.94
5515.15
5514.57
5514.15
5513.84
5513.62
5513.47
5513.38
5516.96
5515.8
5514.97
5514.39
5513.99
5513.72
5513.55
5513.45
5517.95
5516.46
5515.36
5514.62
5514.13
5513.81
5513.6
5513.47
5518.58
5516.89
5515.63
5514.79
5514.24
5513.88
5513.65
5513.51
5517.94
5516.45
5515.36
5514.63
5514.14
5513.82
5513.6
5513.48
5516.97
5515.8
5514.97
5514.4
5514
5513.74
5513.56
5513.46
5515.95
5515.16
5514.58
5514.16
5513.86
5513.64
5513.5
5513.42
5390.09
5388.22
5386.75
5385.59
5384.68
5383.98
5383.48
5383.17
5392.28
5389.66
5387.69
5386.19
5385.06
5384.21
5383.62
5383.25
5394.17
5390.91
5388.46
5386.66
5385.34
5384.37
5383.7
5383.29
5395.36
5391.72
5388.95
5386.96
5385.52
5384.48
5383.77
5383.34
5393.99
5390.81
5388.39
5386.62
5385.31
5384.36
5383.69
5383.28
5392.16
5389.59
5387.64
5386.16
5385.04
5384.21
5383.62
5383.25
5390
5388.17
5386.72
5385.58
5384.68
5383.99
5383.5
5383.19
5254.42
5252.06
5250.38
5249.29
5248.75
5248.76
5249.38
5250.58
5257.38
5254
5251.61
5250
5249.1
5248.9
5249.44
5250.68
5259.84
5255.54
5252.48
5250.48
5249.33
5248.98
5249.45
5250.7
5261.65
5256.64
5253.1
5250.84
5249.54
5249.1
5249.53
5250.77
5259.51
5255.39
5252.45
5250.5
5249.37
5249.04
5249.52
5250.77
5257.22
5253.95
5251.61
5250.06
5249.2
5249.04
5249.6
5250.85
5254.42
5252.16
5250.57
5249.53
5249.02
5249.08
5249.72
5250.93
5097.24
5094.78
5092.96
5091.62
5090.6
5089.48
5088.02
5088.09
5100.12
5096.71
5094.19
5092.38
5091.06
5089.75
5088.05
5087.84
5102.41
5098.11
5095.04
5092.88
5091.33
5089.85
5087.99
5087.63
5104.01
5098.98
5095.54
5093.19
5091.53
5089.98
5088.04
5087.62
5102.39
5098.08
5095.02
5092.87
5091.32
5089.85
5087.98
5087.61
5099.99
5096.63
5094.15
5092.35
5091.03
5089.7
5087.98
5087.75
5097.2
5094.8
5093
5091.66
5090.63
5089.48
5087.97
5087.94
5635.05
5636.92
5638.24
5639.23
5639.95
5640.5
5640.92
5641.25
5633.39
5635.99
5637.72
5638.96
5639.81
5640.42
5640.83
5641.1
5632.91
5635.86
5637.59
5638.91
5639.84
5640.46
5640.94
5641.31
5633.2
5636.03
5637.73
5639.08
5640.06
5640.74
5641.23
5641.61
5632.82
5635.88
5637.64
5638.98
5639.93
5640.56
5640.95
5641.3
5633.37
5636.06
5637.78
5638.94
5639.77
5640.37
5640.82
5641.2
5635.15
5636.98
5638.28
5639.27
5640
5640.56
5640.98
5641.31
5516.17
5515.33
5514.71
5514.25
5513.92
5513.67
5513.5
5513.39
5517.19
5515.97
5515.1
5514.49
5514.05
5513.74
5513.51
5513.37
5518.29
5516.71
5515.58
5514.8
5514.26
5513.88
5513.61
5513.43
5518.69
5517.05
5515.85
5515.03
5514.48
5514.09
5513.82
5513.63
5518.3
5516.73
5515.59
5514.82
5514.29
5513.91
5513.64
5513.45
5517.16
5515.96
5515.1
5514.49
5514.05
5513.74
5513.53
5513.39
5516.15
5515.32
5514.71
5514.25
5513.91
5513.66
5513.49
5513.38
5389.86
5388.07
5386.65
5385.53
5384.64
5383.95
5383.45
5383.11
5391.69
5389.26
5387.38
5385.95
5384.86
5384.04
5383.44
5383.06
5393.24
5390.37
5388.12
5386.41
5385.13
5384.18
5383.51
5383.08
5393.8
5390.83
5388.46
5386.64
5385.28
5384.28
5383.58
5383.14
5393.3
5390.42
5388.16
5386.43
5385.15
5384.2
5383.53
5383.1
5391.73
5389.3
5387.41
5385.98
5384.89
5384.07
5383.48
5383.11
5389.9
5388.1
5386.67
5385.55
5384.65
5383.97
5383.46
5383.13
5254.23
5252.03
5250.47
5249.47
5249
5249.09
5249.76
5250.98
5256.54
5253.4
5251.12
5249.63
5248.85
5248.74
5249.35
5250.63
5258.54
5254.73
5251.85
5249.91
5248.83
5248.55
5249.08
5250.36
5259.3
5255.32
5252.21
5250.07
5248.85
5248.49
5248.98
5250.23
5258.61
5254.76
5251.85
5249.9
5248.82
5248.54
5249.07
5250.36
5256.59
5253.4
5251.1
5249.61
5248.82
5248.72
5249.33
5250.63
5254.19
5251.93
5250.33
5249.3
5248.81
5248.88
5249.54
5250.76
5097.08
5094.73
5092.97
5091.7
5090.74
5089.68
5088.28
5088.33
5099.54
5096.12
5093.64
5091.91
5090.71
5089.54
5088.01
5088
5101.78
5097.39
5094.2
5092.03
5090.57
5089.25
5087.64
5087.76
5102.74
5098.01
5094.53
5092.17
5090.63
5089.29
5087.7
5087.97
5101.92
5097.5
5094.3
5092.14
5090.7
5089.4
5087.81
5087.88
5099.76
5096.29
5093.8
5092.1
5090.93
5089.79
5088.31
5088.32
5097.18
5094.75
5092.98
5091.72
5090.8
5089.79
5088.46
5088.61
5635.19
5637.02
5638.34
5639.33
5640.06
5640.62
5641.05
5641.38
5633.37
5636.18
5637.94
5639.16
5640
5640.6
5641.04
5641.38
5632.84
5636.08
5637.88
5639.28
5640.29
5640.97
5641.42
5641.72
5633.14
5636.2
5637.92
5639.28
5640.27
5640.99
5641.53
5641.93
5633.07
5636.08
5637.78
5639.07
5640.01
5640.71
5641.17
5641.45
5633.66
5636.25
5637.9
5639.1
5639.97
5640.59
5640.99
5641.31
5635.02
5636.93
5638.25
5639.26
5640.06
5640.66
5641.14
5641.52
5516.18
5515.37
5514.76
5514.31
5513.98
5513.73
5513.56
5513.44
5517.3
5516.14
5515.27
5514.66
5514.22
5513.89
5513.65
5513.48
5518.41
5516.93
5515.87
5515.13
5514.62
5514.27
5514.01
5513.82
5518.68
5517.11
5515.98
5515.22
5514.69
5514.32
5514.06
5513.87
5518.08
5516.62
5515.58
5514.86
5514.35
5513.99
5513.75
5513.57
5516.98
5515.87
5515.07
5514.49
5514.08
5513.78
5513.56
5513.41
5515.97
5515.2
5514.62
5514.19
5513.87
5513.65
5513.49
5513.39
5389.96
5388.18
5386.76
5385.63
5384.73
5384.04
5383.54
5383.2
5392.08
5389.62
5387.71
5386.24
5385.11
5384.26
5383.64
5383.24
5393.91
5391.02
5388.71
5386.95
5385.62
5384.64
5383.95
5383.5
5394.6
5391.45
5388.97
5387.09
5385.7
5384.68
5383.96
5383.51
5393.85
5390.82
5388.47
5386.71
5385.38
5384.4
5383.7
5383.25
5392.11
5389.57
5387.63
5386.14
5385
5384.14
5383.52
5383.12
5390.11
5388.29
5386.82
5385.64
5384.71
5384
5383.47
5383.14
5254.21
5251.98
5250.36
5249.31
5248.78
5248.81
5249.42
5250.59
5256.89
5253.63
5251.22
5249.61
5248.72
5248.52
5249.02
5250.18
5259.33
5255.39
5252.35
5250.27
5249.07
5248.68
5249.08
5250.22
5260.34
5256.06
5252.73
5250.45
5249.1
5248.61
5248.95
5250.02
5259.22
5255.13
5252.07
5250
5248.8
5248.4
5248.79
5249.9
5256.86
5253.53
5251.11
5249.48
5248.55
5248.29
5248.75
5249.89
5254.39
5252.13
5250.44
5249.3
5248.69
5248.65
5249.21
5250.36
5097.28
5094.93
5093.14
5091.84
5090.86
5089.8
5088.45
5088.68
5100
5096.47
5093.92
5092.17
5090.98
5089.75
5088.29
5088.63
5102.67
5098.07
5094.74
5092.53
5091.09
5089.74
5088.18
5088.79
5103.93
5098.84
5095.16
5092.76
5091.21
5089.84
5088.25
5089.03
5102.36
5097.84
5094.61
5092.46
5091.04
5089.66
5088.07
5088.66
5099.75
5096.36
5093.9
5092.16
5090.92
5089.69
5088.15
5088.51
5097.42
5095.15
5093.32
5091.92
5090.84
5089.72
5088.21
5088.42
5635
5636.84
5638.17
5639.22
5640.01
5640.6
5641.07
5641.43
5633.59
5636.26
5637.85
5639.05
5639.9
5640.52
5640.97
5641.3
5632.92
5636.16
5637.76
5639.09
5640.02
5640.65
5641.09
5641.39
5632.83
5636.16
5637.82
5639.2
5640.2
5640.91
5641.44
5641.81
5632.63
5636.13
5637.77
5639.14
5640.1
5640.78
5641.26
5641.6
5633.08
5636.21
5637.88
5639.13
5640.01
5640.61
5641.06
5641.39
5635.02
5636.97
5638.28
5639.27
5640
5640.54
5640.96
5641.28
5515.98
5515.2
5514.62
5514.19
5513.88
5513.65
5513.5
5513.4
5517
5515.87
5515.05
5514.47
5514.05
5513.76
5513.55
5513.41
5518.12
5516.63
5515.55
5514.82
5514.31
5513.95
5513.69
5513.51
5518.75
5517.1
5515.91
5515.11
5514.56
5514.19
5513.93
5513.75
5518.44
5516.92
5515.8
5515.04
5514.51
5514.14
5513.88
5513.7
5517.32
5516.14
5515.25
5514.63
5514.18
5513.86
5513.63
5513.48
5516.2
5515.36
5514.75
5514.29
5513.96
5513.72
5513.55
5513.44
5390.01
5388.21
5386.76
5385.61
5384.7
5384
5383.5
5383.18
5391.99
5389.48
5387.56
5386.09
5384.97
5384.12
5383.52
5383.13
5393.74
5390.72
5388.37
5386.61
5385.29
5384.31
5383.61
5383.15
5394.57
5391.38
5388.87
5386.98
5385.57
5384.55
5383.83
5383.36
5393.89
5390.96
5388.61
5386.82
5385.49
5384.51
5383.81
5383.35
5392.08
5389.57
5387.65
5386.18
5385.06
5384.22
5383.61
5383.21
5389.89
5388.12
5386.7
5385.58
5384.69
5384.01
5383.5
5383.16
5254.42
5252.24
5250.64
5249.58
5249.05
5249.09
5249.72
5250.91
5256.81
5253.59
5251.27
5249.73
5248.89
5248.74
5249.3
5250.56
5259.12
5255.09
5252.1
5250.11
5248.99
5248.67
5249.16
5250.4
5260.25
5255.99
5252.69
5250.45
5249.17
5248.75
5249.17
5250.36
5259.27
5255.34
5252.33
5250.31
5249.17
5248.86
5249.36
5250.62
5256.9
5253.69
5251.35
5249.82
5249
5248.87
5249.45
5250.71
5254.27
5252.07
5250.51
5249.51
5249.05
5249.13
5249.8
5251.01
5097.25
5094.98
5093.17
5091.81
5090.76
5089.61
5088.12
5088.15
5099.53
5096.19
5093.74
5092
5090.76
5089.55
5088.01
5088.03
5102
5097.53
5094.32
5092.13
5090.65
5089.32
5087.73
5087.93
5103.5
5098.44
5094.77
5092.32
5090.72
5089.34
5087.74
5088.14
5102.28
5097.74
5094.45
5092.23
5090.76
5089.45
5087.87
5088.08
5099.75
5096.28
5093.76
5092.03
5090.84
5089.68
5088.18
5088.22
5097.1
5094.76
5093.01
5091.74
5090.79
5089.73
5088.33
5088.4
5641.56
5641.62
5641.66
5641.63
5641.65
5641.59
5641.51
5513.36
5513.42
5513.45
5513.48
5513.45
5513.44
5513.4
5383.04
5383.13
5383.16
5383.2
5383.16
5383.13
5383.08
5252.01
5252.19
5252.25
5252.32
5252.32
5252.34
5252.35
5094.17
5094.13
5094.09
5094.13
5094.05
5093.99
5093.9
5641.49
5641.35
5641.52
5641.88
5641.53
5641.43
5641.54
5513.34
5513.29
5513.33
5513.52
5513.35
5513.33
5513.32
5382.95
5382.89
5382.9
5382.95
5382.92
5382.95
5382.97
5252.37
5252.14
5251.87
5251.72
5251.89
5252.14
5252.17
5094.25
5094.37
5094.85
5095.57
5094.86
5094.69
5094.62
5641.62
5641.65
5641.92
5642.19
5641.65
5641.59
5641.79
5513.38
5513.37
5513.7
5513.75
5513.46
5513.33
5513.34
5383.03
5383.03
5383.27
5383.29
5383.03
5382.93
5383
5252
5251.57
5251.52
5251.25
5251.19
5251.28
5251.79
5094.85
5095.68
5096.95
5097.82
5096.88
5095.7
5094.7
5641.69
5641.56
5641.59
5642.06
5641.81
5641.62
5641.51
5513.37
5513.34
5513.4
5513.65
5513.58
5513.38
5513.37
5383.04
5382.97
5382.95
5383.15
5383.14
5383.03
5382.99
5252.32
5252.07
5251.88
5251.74
5252.11
5252.19
5252.39
5094.12
5094.52
5095.24
5096.02
5095.32
5094.63
5094.34
5641.9
5642.21
5642.44
5642.62
5642.75
5642.83
5642.87
5642.88
5642.02
5642.34
5642.55
5642.71
5642.81
5642.87
5642.9
5642.9
5642.01
5642.35
5642.57
5642.69
5642.8
5642.86
5642.88
5642.88
5641.96
5642.3
5642.59
5642.76
5642.82
5642.85
5642.87
5642.87
5641.98
5642.32
5642.55
5642.67
5642.76
5642.82
5642.85
5642.84
5641.97
5642.3
5642.51
5642.65
5642.75
5642.8
5642.82
5642.82
5641.83
5642.16
5642.39
5642.56
5642.66
5642.73
5642.76
5642.75
5513.35
5513.3
5513.26
5513.23
5513.22
5513.22
5513.22
5513.21
5513.41
5513.38
5513.34
5513.31
5513.29
5513.28
5513.27
5513.26
5513.43
5513.41
5513.37
5513.33
5513.3
5513.29
5513.28
5513.26
5513.46
5513.45
5513.42
5513.37
5513.33
5513.3
5513.28
5513.26
5513.44
5513.4
5513.36
5513.31
5513.28
5513.26
5513.25
5513.22
5513.43
5513.37
5513.32
5513.27
5513.24
5513.22
5513.2
5513.18
5513.39
5513.3
5513.24
5513.18
5513.15
5513.13
5513.12
5513.1
5382.97
5383.04
5383.16
5383.28
5383.38
5383.45
5383.5
5383.51
5383.07
5383.13
5383.25
5383.37
5383.46
5383.53
5383.57
5383.58
5383.11
5383.17
5383.28
5383.39
5383.48
5383.54
5383.58
5383.58
5383.13
5383.18
5383.29
5383.4
5383.49
5383.55
5383.58
5383.59
5383.1
5383.15
5383.26
5383.37
5383.46
5383.51
5383.55
5383.55
5383.06
5383.12
5383.23
5383.33
5383.42
5383.47
5383.5
5383.51
5383.01
5383.05
5383.15
5383.25
5383.33
5383.38
5383.41
5383.41
5253.5
5253.51
5253.5
5253.51
5253.55
5253.61
5253.66
5253.71
5253.67
5253.65
5253.61
5253.62
5253.65
5253.7
5253.75
5253.78
5253.73
5253.71
5253.66
5253.65
5253.68
5253.72
5253.76
5253.79
5253.79
5253.77
5253.7
5253.69
5253.7
5253.74
5253.78
5253.81
5253.79
5253.75
5253.68
5253.66
5253.67
5253.7
5253.74
5253.77
5253.8
5253.73
5253.65
5253.62
5253.63
5253.66
5253.69
5253.72
5253.78
5253.68
5253.58
5253.54
5253.54
5253.56
5253.59
5253.62
5107.2
5115.17
5119.08
5121.2
5122.4
5123.1
5123.51
5123.76
5107.13
5115.19
5119.13
5121.26
5122.46
5123.16
5123.58
5123.82
5107.06
5115.17
5119.13
5121.27
5122.48
5123.18
5123.59
5123.83
5107.06
5115.17
5119.14
5121.28
5122.49
5123.19
5123.6
5123.84
5107.02
5115.14
5119.12
5121.26
5122.46
5123.16
5123.57
5123.8
5107.01
5115.13
5119.1
5121.24
5122.44
5123.13
5123.53
5123.77
5107.01
5115.11
5119.06
5121.18
5122.36
5123.04
5123.44
5123.67
5641.82
5642.13
5642.34
5642.47
5642.55
5642.59
5642.61
5642.61
5641.72
5642.01
5642.21
5642.33
5642.41
5642.44
5642.43
5642.4
5641.76
5641.95
5642.07
5642.12
5642.14
5642.16
5642.14
5642.1
5642.19
5642.41
5642.51
5642.54
5642.49
5642.45
5642.45
5642.41
5641.78
5641.98
5642.09
5642.14
5642.16
5642.18
5642.17
5642.13
5641.75
5642.06
5642.27
5642.4
5642.48
5642.53
5642.53
5642.5
5641.84
5642.15
5642.37
5642.52
5642.61
5642.67
5642.7
5642.7
5513.23
5513.1
5512.99
5512.91
5512.86
5512.83
5512.81
5512.8
5513.21
5513.11
5513.01
5512.91
5512.83
5512.77
5512.72
5512.68
5513.19
5513.03
5512.9
5512.78
5512.68
5512.58
5512.5
5512.44
5513.38
5513.23
5513.11
5513.01
5512.91
5512.83
5512.77
5512.74
5513.22
5513.06
5512.93
5512.82
5512.73
5512.63
5512.54
5512.46
5513.26
5513.17
5513.07
5512.99
5512.92
5512.86
5512.81
5512.78
5513.23
5513.11
5513.02
5512.96
5512.92
5512.9
5512.89
5512.88
5382.82
5382.83
5382.9
5382.96
5383.01
5383.03
5383.04
5383.05
5382.76
5382.74
5382.79
5382.86
5382.91
5382.94
5382.95
5382.96
5382.77
5382.72
5382.72
5382.71
5382.69
5382.65
5382.62
5382.6
5382.83
5382.81
5382.86
5382.91
5382.94
5382.96
5382.97
5382.97
5382.8
5382.75
5382.76
5382.77
5382.75
5382.71
5382.66
5382.63
5382.81
5382.82
5382.88
5382.95
5383
5383.03
5383.05
5383.05
5382.84
5382.86
5382.94
5383.01
5383.06
5383.1
5383.12
5383.13
5253.69
5253.47
5253.3
5253.21
5253.18
5253.18
5253.2
5253.23
5253.57
5253.46
5253.31
5253.23
5253.18
5253.16
5253.16
5253.18
5253.46
5253.5
5253.37
5253.22
5253.07
5252.95
5252.85
5252.81
5253.39
5253.6
5253.55
5253.46
5253.37
5253.29
5253.23
5253.21
5253.46
5253.48
5253.36
5253.21
5253.09
5252.98
5252.89
5252.83
5253.57
5253.45
5253.33
5253.26
5253.23
5253.22
5253.23
5253.25
5253.55
5253.4
5253.28
5253.24
5253.23
5253.25
5253.28
5253.31
5107.17
5115.08
5118.93
5120.98
5122.11
5122.75
5123.11
5123.33
5107.22
5115.12
5118.95
5120.97
5122.08
5122.7
5123.05
5123.25
5107.58
5115.34
5119.09
5121.04
5122.04
5122.52
5122.76
5122.86
5108.19
5115.71
5119.37
5121.26
5122.24
5122.78
5123.06
5123.22
5107.58
5115.33
5119.08
5121.02
5122.04
5122.55
5122.79
5122.93
5107.47
5115.25
5119.03
5121.03
5122.14
5122.75
5123.1
5123.3
5107.46
5115.24
5119.03
5121.05
5122.18
5122.83
5123.2
5123.42
5641.89
5642.18
5642.39
5642.52
5642.61
5642.69
5642.73
5642.75
5641.95
5642.22
5642.44
5642.54
5642.56
5642.57
5642.59
5642.59
5642.15
5642.35
5642.47
5642.54
5642.57
5642.55
5642.52
5642.47
5642.48
5642.69
5642.77
5642.78
5642.75
5642.7
5642.65
5642.61
5641.89
5642.09
5642.27
5642.38
5642.44
5642.45
5642.44
5642.41
5641.9
5642.23
5642.48
5642.56
5642.62
5642.64
5642.66
5642.66
5642.1
5642.37
5642.56
5642.68
5642.75
5642.8
5642.83
5642.84
5513.31
5513.18
5513.08
5513.01
5512.98
5512.96
5512.96
5512.96
5513.24
5513.13
5513.07
5513.02
5512.96
5512.92
5512.89
5512.88
5513.53
5513.37
5513.24
5513.14
5513.06
5512.98
5512.92
5512.85
5513.58
5513.42
5513.29
5513.18
5513.09
5513.02
5512.97
5512.92
5513.32
5513.19
5513.09
5513.01
5512.95
5512.89
5512.84
5512.79
5513.23
5513.15
5513.12
5513.09
5513.04
5513.01
5513
5512.98
5513.28
5513.24
5513.2
5513.17
5513.16
5513.15
5513.15
5513.15
5382.88
5382.88
5382.97
5383.06
5383.14
5383.19
5383.23
5383.25
5382.87
5382.81
5382.85
5382.92
5382.99
5383.04
5383.08
5383.1
5383.09
5383.01
5383.04
5383.1
5383.16
5383.2
5383.23
5383.21
5383.12
5383.04
5383.04
5383.05
5383.07
5383.07
5383.06
5383.05
5382.86
5382.78
5382.81
5382.89
5382.96
5383.03
5383.07
5383.08
5382.8
5382.78
5382.85
5382.95
5383.05
5383.14
5383.2
5383.23
5382.9
5382.92
5383.04
5383.17
5383.28
5383.36
5383.42
5383.45
5253.41
5253.39
5253.33
5253.31
5253.33
5253.37
5253.41
5253.45
5253.12
5253.3
5253.28
5253.26
5253.26
5253.28
5253.31
5253.33
5252.98
5253.44
5253.68
5253.74
5253.73
5253.71
5253.69
5253.67
5252.6
5253.01
5253.19
5253.27
5253.32
5253.35
5253.38
5253.38
5252.65
5253.13
5253.37
5253.48
5253.51
5253.51
5253.51
5253.51
5252.91
5253.2
5253.27
5253.3
5253.33
5253.38
5253.43
5253.46
5253.28
5253.41
5253.43
5253.47
5253.51
5253.57
5253.63
5253.67
5107.57
5115.25
5119.02
5121.06
5122.22
5122.89
5123.29
5123.53
5108
5115.36
5119.03
5121.05
5122.2
5122.88
5123.28
5123.51
5108.96
5115.77
5119.18
5121.12
5122.27
5122.97
5123.41
5123.69
5109.48
5115.99
5119.36
5121.24
5122.35
5123.03
5123.45
5123.68
5108.87
5115.64
5119.04
5120.98
5122.15
5122.86
5123.31
5123.59
5107.95
5115.25
5118.94
5120.99
5122.19
5122.9
5123.33
5123.58
5107.46
5115.2
5119.03
5121.13
5122.33
5123.04
5123.47
5123.72
5641.99
5642.27
5642.45
5642.57
5642.63
5642.66
5642.67
5642.66
5641.89
5642.14
5642.31
5642.41
5642.46
5642.46
5642.45
5642.42
5641.83
5642.02
5642.15
5642.22
5642.26
5642.27
5642.24
5642.2
5642.34
5642.51
5642.59
5642.6
5642.59
5642.55
5642.51
5642.48
5642.06
5642.23
5642.32
5642.35
5642.35
5642.33
5642.28
5642.22
5641.92
5642.16
5642.31
5642.41
5642.47
5642.48
5642.47
5642.44
5641.82
5642.12
5642.32
5642.45
5642.53
5642.59
5642.61
5642.61
5513.33
5513.25
5513.17
5513.1
5513.05
5513.02
5512.99
5512.97
5513.26
5513.17
5513.09
5513
5512.92
5512.85
5512.8
5512.75
5513.27
5513.11
5512.99
5512.87
5512.77
5512.68
5512.6
5512.54
5513.51
5513.35
5513.21
5513.09
5512.99
5512.92
5512.85
5512.81
5513.43
5513.25
5513.1
5512.96
5512.84
5512.73
5512.64
5512.56
5513.28
5513.17
5513.07
5512.97
5512.88
5512.82
5512.77
5512.73
5513.27
5513.13
5513.01
5512.93
5512.88
5512.85
5512.83
5512.81
5382.93
5382.96
5383.05
5383.14
5383.2
5383.24
5383.26
5383.26
5382.85
5382.8
5382.86
5382.93
5382.98
5383.01
5383.03
5383.02
5382.8
5382.73
5382.74
5382.75
5382.76
5382.75
5382.73
5382.7
5382.99
5382.92
5382.93
5382.97
5382.99
5383
5383.01
5383.02
5382.97
5382.91
5382.91
5382.91
5382.9
5382.87
5382.83
5382.78
5382.89
5382.83
5382.87
5382.92
5382.97
5383
5383.01
5383.02
5382.84
5382.87
5382.93
5383
5383.04
5383.07
5383.08
5383.08
5253.74
5253.63
5253.52
5253.46
5253.44
5253.44
5253.45
5253.47
5253.55
5253.54
5253.43
5253.35
5253.3
5253.27
5253.26
5253.26
5253.53
5253.6
5253.49
5253.38
5253.25
5253.14
5253.04
5252.96
5253.25
5253.49
5253.49
5253.43
5253.35
5253.28
5253.25
5253.24
5253.73
5253.78
5253.64
5253.5
5253.37
5253.25
5253.14
5253.04
5253.61
5253.53
5253.37
5253.28
5253.24
5253.22
5253.23
5253.24
5253.74
5253.51
5253.35
5253.26
5253.23
5253.23
5253.25
5253.28
5107.16
5115.17
5119.08
5121.15
5122.31
5122.96
5123.33
5123.55
5107.42
5115.29
5119.11
5121.12
5122.21
5122.82
5123.16
5123.35
5107.9
5115.56
5119.27
5121.19
5122.2
5122.7
5122.92
5122.98
5108.61
5116.02
5119.59
5121.43
5122.4
5122.91
5123.17
5123.33
5107.92
5115.56
5119.27
5121.21
5122.26
5122.81
5123.08
5123.18
5107.44
5115.26
5119.05
5121.05
5122.16
5122.77
5123.12
5123.31
5107.24
5115.14
5118.98
5121.02
5122.15
5122.8
5123.17
5123.38
5642.86
5642.85
5642.83
5642.81
5642.79
5642.77
5642.76
5642.75
5642.88
5642.86
5642.84
5642.82
5642.8
5642.78
5642.77
5642.77
5642.86
5642.84
5642.82
5642.8
5642.78
5642.77
5642.76
5642.75
5642.85
5642.83
5642.81
5642.79
5642.77
5642.76
5642.75
5642.74
5642.82
5642.81
5642.79
5642.77
5642.75
5642.73
5642.72
5642.72
5642.8
5642.78
5642.76
5642.74
5642.72
5642.7
5642.69
5642.69
5642.74
5642.72
5642.7
5642.68
5642.66
5642.64
5642.63
5642.63
5513.2
5513.2
5513.19
5513.18
5513.17
5513.16
5513.16
5513.15
5513.24
5513.23
5513.22
5513.21
5513.2
5513.19
5513.18
5513.18
5513.24
5513.23
5513.22
5513.21
5513.2
5513.19
5513.18
5513.17
5513.24
5513.23
5513.22
5513.2
5513.19
5513.18
5513.17
5513.16
5513.21
5513.2
5513.18
5513.17
5513.16
5513.15
5513.14
5513.14
5513.17
5513.16
5513.15
5513.14
5513.13
5513.12
5513.11
5513.1
5513.08
5513.08
5513.07
5513.06
5513.05
5513.04
5513.03
5513.03
5383.52
5383.52
5383.53
5383.53
5383.53
5383.52
5383.52
5383.51
5383.58
5383.58
5383.58
5383.58
5383.58
5383.57
5383.56
5383.56
5383.58
5383.58
5383.58
5383.58
5383.57
5383.57
5383.56
5383.56
5383.59
5383.59
5383.58
5383.58
5383.57
5383.57
5383.56
5383.56
5383.55
5383.55
5383.55
5383.55
5383.54
5383.54
5383.53
5383.53
5383.51
5383.51
5383.51
5383.51
5383.5
5383.5
5383.49
5383.49
5383.41
5383.42
5383.42
5383.42
5383.42
5383.41
5383.41
5383.4
5253.74
5253.76
5253.78
5253.79
5253.8
5253.8
5253.8
5253.79
5253.81
5253.83
5253.84
5253.85
5253.86
5253.86
5253.86
5253.86
5253.81
5253.83
5253.85
5253.85
5253.86
5253.86
5253.86
5253.85
5253.83
5253.84
5253.86
5253.86
5253.87
5253.87
5253.87
5253.86
5253.79
5253.81
5253.82
5253.83
5253.83
5253.83
5253.83
5253.83
5253.75
5253.76
5253.78
5253.79
5253.79
5253.79
5253.79
5253.79
5253.64
5253.66
5253.67
5253.69
5253.69
5253.7
5253.7
5253.69
5123.88
5123.95
5124
5124.04
5124.06
5124.08
5124.08
5124.08
5123.94
5124.01
5124.06
5124.1
5124.12
5124.13
5124.14
5124.14
5123.94
5124.01
5124.06
5124.1
5124.12
5124.14
5124.14
5124.14
5123.96
5124.02
5124.07
5124.11
5124.13
5124.15
5124.15
5124.15
5123.92
5123.99
5124.04
5124.07
5124.1
5124.11
5124.12
5124.12
5123.89
5123.95
5124
5124.04
5124.06
5124.08
5124.08
5124.08
5123.78
5123.85
5123.9
5123.93
5123.96
5123.97
5123.98
5123.98
5642.59
5642.58
5642.55
5642.53
5642.5
5642.48
5642.46
5642.45
5642.38
5642.36
5642.34
5642.32
5642.3
5642.28
5642.27
5642.28
5642.07
5642.05
5642.04
5642.02
5642.01
5642.01
5642.01
5642.04
5642.39
5642.38
5642.38
5642.38
5642.37
5642.37
5642.35
5642.37
5642.1
5642.08
5642.06
5642.05
5642.05
5642.04
5642.05
5642.07
5642.48
5642.46
5642.44
5642.41
5642.39
5642.37
5642.36
5642.37
5642.68
5642.67
5642.65
5642.62
5642.6
5642.56
5642.55
5642.54
5512.79
5512.78
5512.78
5512.77
5512.77
5512.76
5512.75
5512.74
5512.66
5512.66
5512.65
5512.64
5512.64
5512.63
5512.63
5512.63
5512.4
5512.37
5512.36
5512.35
5512.34
5512.35
5512.35
5512.37
5512.72
5512.71
5512.7
5512.69
5512.69
5512.69
5512.7
5512.71
5512.42
5512.39
5512.37
5512.36
5512.36
5512.37
5512.37
5512.39
5512.76
5512.75
5512.74
5512.73
5512.73
5512.72
5512.72
5512.72
5512.87
5512.87
5512.86
5512.86
5512.85
5512.85
5512.84
5512.83
5383.05
5383.06
5383.06
5383.07
5383.07
5383.07
5383.07
5383.06
5382.97
5382.98
5382.99
5383
5383.01
5383.02
5383.02
5383.02
5382.59
5382.59
5382.58
5382.58
5382.58
5382.59
5382.59
5382.6
5382.98
5382.99
5382.99
5383
5383.01
5383.01
5383.02
5383.02
5382.61
5382.61
5382.61
5382.61
5382.61
5382.61
5382.62
5382.63
5383.05
5383.06
5383.07
5383.08
5383.09
5383.1
5383.1
5383.1
5383.13
5383.14
5383.14
5383.15
5383.15
5383.15
5383.15
5383.14
5253.25
5253.27
5253.29
5253.3
5253.31
5253.32
5253.32
5253.32
5253.21
5253.22
5253.24
5253.25
5253.26
5253.27
5253.28
5253.28
5252.81
5252.82
5252.82
5252.83
5252.84
5252.85
5252.86
5252.86
5253.21
5253.22
5253.23
5253.24
5253.25
5253.25
5253.26
5253.26
5252.82
5252.82
5252.83
5252.84
5252.86
5252.87
5252.88
5252.88
5253.27
5253.29
5253.3
5253.32
5253.33
5253.34
5253.34
5253.34
5253.34
5253.36
5253.38
5253.39
5253.4
5253.4
5253.41
5253.4
5123.44
5123.51
5123.56
5123.59
5123.62
5123.64
5123.64
5123.65
5123.36
5123.42
5123.47
5123.51
5123.53
5123.55
5123.56
5123.56
5122.96
5123.03
5123.09
5123.15
5123.18
5123.2
5123.21
5123.22
5123.32
5123.37
5123.41
5123.45
5123.47
5123.49
5123.5
5123.5
5123
5123.08
5123.13
5123.2
5123.21
5123.23
5123.24
5123.24
5123.4
5123.47
5123.51
5123.55
5123.57
5123.59
5123.6
5123.6
5123.54
5123.6
5123.65
5123.69
5123.71
5123.73
5123.74
5123.74
5642.74
5642.74
5642.72
5642.7
5642.67
5642.65
5642.63
5642.62
5642.59
5642.58
5642.57
5642.56
5642.55
5642.53
5642.52
5642.52
5642.43
5642.4
5642.37
5642.35
5642.33
5642.32
5642.32
5642.34
5642.59
5642.58
5642.58
5642.57
5642.56
5642.55
5642.55
5642.58
5642.38
5642.36
5642.35
5642.34
5642.33
5642.32
5642.32
5642.34
5642.66
5642.65
5642.64
5642.63
5642.62
5642.61
5642.6
5642.6
5642.83
5642.83
5642.81
5642.79
5642.77
5642.75
5642.74
5642.74
5512.95
5512.95
5512.95
5512.95
5512.94
5512.94
5512.93
5512.92
5512.87
5512.87
5512.87
5512.86
5512.86
5512.86
5512.86
5512.85
5512.8
5512.76
5512.73
5512.7
5512.68
5512.67
5512.67
5512.68
5512.89
5512.87
5512.85
5512.84
5512.83
5512.84
5512.85
5512.86
5512.74
5512.71
5512.69
5512.67
5512.65
5512.65
5512.64
5512.66
5512.97
5512.97
5512.97
5512.97
5512.97
5512.97
5512.97
5512.96
5513.14
5513.14
5513.14
5513.13
5513.13
5513.12
5513.11
5513.11
5383.26
5383.27
5383.27
5383.28
5383.28
5383.28
5383.28
5383.27
5383.11
5383.12
5383.12
5383.13
5383.13
5383.14
5383.14
5383.14
5383.17
5383.14
5383.11
5383.09
5383.07
5383.07
5383.05
5383.05
5383.04
5383.04
5383.03
5383.04
5383.05
5383.06
5383.06
5383.07
5383.08
5383.07
5383.06
5383.04
5383.04
5383.03
5383.03
5383.03
5383.24
5383.25
5383.26
5383.26
5383.26
5383.26
5383.27
5383.27
5383.46
5383.47
5383.47
5383.48
5383.48
5383.48
5383.47
5383.47
5253.49
5253.51
5253.53
5253.54
5253.55
5253.56
5253.56
5253.56
5253.34
5253.35
5253.36
5253.36
5253.36
5253.35
5253.35
5253.34
5253.67
5253.67
5253.67
5253.68
5253.68
5253.68
5253.68
5253.67
5253.36
5253.36
5253.35
5253.34
5253.33
5253.32
5253.31
5253.32
5253.51
5253.52
5253.53
5253.54
5253.55
5253.55
5253.55
5253.54
5253.48
5253.5
5253.51
5253.52
5253.52
5253.52
5253.52
5253.52
5253.7
5253.73
5253.74
5253.76
5253.77
5253.77
5253.77
5253.77
5123.65
5123.72
5123.77
5123.81
5123.84
5123.85
5123.86
5123.87
5123.62
5123.68
5123.72
5123.75
5123.76
5123.77
5123.77
5123.77
5123.84
5123.94
5124.03
5124.09
5124.14
5124.17
5124.19
5124.18
5123.77
5123.81
5123.82
5123.82
5123.8
5123.79
5123.78
5123.77
5123.73
5123.82
5123.89
5123.94
5123.98
5123.99
5124
5124
5123.7
5123.77
5123.82
5123.85
5123.87
5123.88
5123.89
5123.89
5123.84
5123.92
5123.97
5124.01
5124.04
5124.06
5124.06
5124.07
5642.65
5642.63
5642.61
5642.59
5642.57
5642.55
5642.54
5642.54
5642.39
5642.37
5642.35
5642.33
5642.32
5642.31
5642.31
5642.32
5642.16
5642.15
5642.14
5642.13
5642.12
5642.12
5642.13
5642.15
5642.46
5642.45
5642.45
5642.44
5642.44
5642.43
5642.42
5642.44
5642.18
5642.16
5642.14
5642.12
5642.11
5642.11
5642.11
5642.13
5642.41
5642.38
5642.36
5642.35
5642.33
5642.32
5642.31
5642.32
5642.6
5642.58
5642.56
5642.54
5642.51
5642.49
5642.47
5642.46
5512.96
5512.95
5512.94
5512.93
5512.93
5512.92
5512.91
5512.91
5512.73
5512.71
5512.71
5512.7
5512.7
5512.7
5512.7
5512.7
5512.5
5512.48
5512.46
5512.46
5512.45
5512.46
5512.46
5512.48
5512.79
5512.78
5512.77
5512.76
5512.76
5512.76
5512.77
5512.79
5512.52
5512.49
5512.47
5512.47
5512.46
5512.46
5512.46
5512.48
5512.71
5512.69
5512.69
5512.69
5512.68
5512.68
5512.68
5512.68
5512.8
5512.8
5512.79
5512.79
5512.78
5512.78
5512.77
5512.76
5383.26
5383.26
5383.27
5383.27
5383.27
5383.27
5383.27
5383.26
5383.02
5383.02
5383.04
5383.04
5383.05
5383.05
5383.06
5383.06
5382.69
5382.69
5382.68
5382.68
5382.68
5382.69
5382.69
5382.7
5383.02
5383.03
5383.04
5383.06
5383.06
5383.07
5383.07
5383.08
5382.75
5382.73
5382.72
5382.72
5382.72
5382.71
5382.71
5382.72
5383.02
5383.02
5383.04
5383.04
5383.05
5383.05
5383.05
5383.05
5383.09
5383.09
5383.09
5383.1
5383.1
5383.1
5383.1
5383.09
5253.49
5253.5
5253.52
5253.53
5253.54
5253.54
5253.54
5253.54
5253.27
5253.29
5253.3
5253.31
5253.32
5253.33
5253.33
5253.33
5252.92
5252.91
5252.92
5252.92
5252.92
5252.93
5252.93
5252.94
5253.25
5253.26
5253.28
5253.29
5253.3
5253.31
5253.31
5253.32
5252.99
5252.97
5252.98
5252.99
5253
5253
5253
5253
5253.26
5253.28
5253.3
5253.3
5253.31
5253.32
5253.32
5253.32
5253.3
5253.32
5253.33
5253.35
5253.36
5253.36
5253.36
5253.36
5123.65
5123.72
5123.76
5123.8
5123.83
5123.84
5123.85
5123.85