/*--------------------------------*- C++ -*----------------------------------*\
| =========                 |                                                 |
| \\      /  F ield         | OpenFOAM: The Open Source CFD Toolbox           |
|  \\    /   O peration     | Version:  plus.master.MPPICInterFoam            |
|   \\  /    A nd           | Web:      www.OpenFOAM.com                      |
|    \\/     M anipulation  |                                                 |
\*---------------------------------------------------------------------------*/
FoamFile
{
    version     2.0;
    format      ascii;
    class       volScalarField;
    location    "1.4";
    object      epsilon;
}
// * * * * * * * * * * * * * * * * * * * * * * * * * * * * * * * * * * * * * //

dimensions      [0 2 -3 0 0 0 0];

internalField   nonuniform List<scalar> 
11821
(
0.000426414
0.000379886
0.000417335
0.000449244
0.000470013
0.000480917
0.00048365
0.000478576
0.000426335
0.000379879
0.000417326
0.000449232
0.000469994
0.000480886
0.0004836
0.0004785
0.000426275
0.000379876
0.000417324
0.000449237
0.000470011
0.000480918
0.000483652
0.000478578
0.000426226
0.000379867
0.000417312
0.000449219
0.000469986
0.000480883
0.000483603
0.00047851
0.00042621
0.000379874
0.000417321
0.000449234
0.000470009
0.000480918
0.000483654
0.00047858
0.000426198
0.000379871
0.000417315
0.000449222
0.00046999
0.000480889
0.000483611
0.00047852
0.000426208
0.000379876
0.000417323
0.000449233
0.000470005
0.000480909
0.000483638
0.000478556
0.000426399
0.000379878
0.000417323
0.000449227
0.000469988
0.00048088
0.000483597
0.0004785
0.000426336
0.000379873
0.000417319
0.000449226
0.000469993
0.000480893
0.00048362
0.00047854
0.000426278
0.000379862
0.000417306
0.000449212
0.000469976
0.000480873
0.000483594
0.000478503
0.00042624
0.000379859
0.000417304
0.000449213
0.000469984
0.000480888
0.000483619
0.000478541
0.000426214
0.000379854
0.000417298
0.000449205
0.000469973
0.000480872
0.000483597
0.000478509
0.000426208
0.000379858
0.000417303
0.000449212
0.000469982
0.000480886
0.000483616
0.000478536
0.000426206
0.000379856
0.000417301
0.000449209
0.000469977
0.000480877
0.000483603
0.000478517
0.000426393
0.000379873
0.000417318
0.000449223
0.000469986
0.000480882
0.000483606
0.000478521
0.000426338
0.000379866
0.000417312
0.000449216
0.000469979
0.000480874
0.000483595
0.000478506
0.000426287
0.000379859
0.000417304
0.000449211
0.000469977
0.000480877
0.000483604
0.000478521
0.00042625
0.000379852
0.000417297
0.000449203
0.00046997
0.00048087
0.000483596
0.00047851
0.000426229
0.000379851
0.000417296
0.000449204
0.000469973
0.000480876
0.000483605
0.000478524
0.000426218
0.00037985
0.000417295
0.000449202
0.00046997
0.000480871
0.000483598
0.000478513
0.000426219
0.000379851
0.000417297
0.000449205
0.000469973
0.000480874
0.000483602
0.000478519
0.000426385
0.000379865
0.000417312
0.000449217
0.00046998
0.000480875
0.000483597
0.000478508
0.000426334
0.00037986
0.000417307
0.000449213
0.000469977
0.000480875
0.000483599
0.000478513
0.00042629
0.000379853
0.0004173
0.000449206
0.000469971
0.00048087
0.000483595
0.00047851
0.000426259
0.000379849
0.000417295
0.000449203
0.00046997
0.000480871
0.000483599
0.000478516
0.000426239
0.000379846
0.000417293
0.0004492
0.000469968
0.000480869
0.000483596
0.000478513
0.00042623
0.000379846
0.000417293
0.0004492
0.000469969
0.000480871
0.000483599
0.000478516
0.000426228
0.000379845
0.000417292
0.0004492
0.000469968
0.000480869
0.000483597
0.000478513
0.000426369
0.000379857
0.000417306
0.000449213
0.000469976
0.000480873
0.000483597
0.00047851
0.000426325
0.000379853
0.000417302
0.000449208
0.000469973
0.000480871
0.000483596
0.00047851
0.000426289
0.000379847
0.000417296
0.000449204
0.00046997
0.00048087
0.000483596
0.000478511
0.000426262
0.000379843
0.000417292
0.0004492
0.000469967
0.000480868
0.000483595
0.000478511
0.000426245
0.000379841
0.00041729
0.000449198
0.000469966
0.000480868
0.000483595
0.000478512
0.000426235
0.00037984
0.000417288
0.000449197
0.000469965
0.000480867
0.000483594
0.000478511
0.000426231
0.000379838
0.000417287
0.000449196
0.000469965
0.000480866
0.000483594
0.000478511
0.000426356
0.000379851
0.000417302
0.000449209
0.000469974
0.000480871
0.000483595
0.000478509
0.000426319
0.000379847
0.000417298
0.000449206
0.000469972
0.00048087
0.000483595
0.000478509
0.000426288
0.000379841
0.000417293
0.000449201
0.000469968
0.000480868
0.000483594
0.000478509
0.000426264
0.000379838
0.000417289
0.000449198
0.000469965
0.000480866
0.000483593
0.000478509
0.000426248
0.000379836
0.000417286
0.000449195
0.000469963
0.000480865
0.000483592
0.000478508
0.000426238
0.000379834
0.000417285
0.000449194
0.000469962
0.000480864
0.000483591
0.000478508
0.000426233
0.000379832
0.000417283
0.000449193
0.000469962
0.000480863
0.000483591
0.000478508
0.000426351
0.000379847
0.0004173
0.000449207
0.000469971
0.000480869
0.000483593
0.000478507
0.000426318
0.000379844
0.000417296
0.000449204
0.00046997
0.000480868
0.000483593
0.000478507
0.000426291
0.000379839
0.000417292
0.0004492
0.000469967
0.000480866
0.000483592
0.000478507
0.000426271
0.000379836
0.000417288
0.000449197
0.000469964
0.000480864
0.000483591
0.000478506
0.000426256
0.000379834
0.000417285
0.000449194
0.000469962
0.000480863
0.000483589
0.000478506
0.000426247
0.000379832
0.000417283
0.000449192
0.000469961
0.000480862
0.000483589
0.000478505
0.000426242
0.00037983
0.000417282
0.000449191
0.00046996
0.000480862
0.000483589
0.000478506
0.00042635
0.000379845
0.000417298
0.000449205
0.00046997
0.000480867
0.000483592
0.000478505
0.00042632
0.000379843
0.000417296
0.000449203
0.000469968
0.000480866
0.000483591
0.000478505
0.0004263
0.00037984
0.000417292
0.0004492
0.000469966
0.000480865
0.00048359
0.000478504
0.000426283
0.000379838
0.000417289
0.000449197
0.000469964
0.000480863
0.000483589
0.000478504
0.000426269
0.000379835
0.000417287
0.000449195
0.000469962
0.000480862
0.000483588
0.000478503
0.000426259
0.000379833
0.000417285
0.000449193
0.000469961
0.000480861
0.000483588
0.000478504
0.000426253
0.000379831
0.000417283
0.000449192
0.00046996
0.000480861
0.000483588
0.000478505
0.000426348
0.000379844
0.000417297
0.000449204
0.000469969
0.000480866
0.00048359
0.000478503
0.000426324
0.000379844
0.000417296
0.000449203
0.000469967
0.000480865
0.000483589
0.000478503
0.000426308
0.000379842
0.000417294
0.000449201
0.000469966
0.000480864
0.000483588
0.000478502
0.000426294
0.00037984
0.000417291
0.000449199
0.000469964
0.000480863
0.000483588
0.000478502
0.000426281
0.000379838
0.000417289
0.000449196
0.000469963
0.000480862
0.000483587
0.000478502
0.000426271
0.000379835
0.000417287
0.000449195
0.000469962
0.000480862
0.000483587
0.000478503
0.000426264
0.000379833
0.000417285
0.000449194
0.000469961
0.000480862
0.000483588
0.000478504
0.000426348
0.000379846
0.000417298
0.000449205
0.000469968
0.000480865
0.000483588
0.000478501
0.00042633
0.000379845
0.000417297
0.000449203
0.000469967
0.000480864
0.000483588
0.000478501
0.000426316
0.000379844
0.000417295
0.000449202
0.000469966
0.000480863
0.000483587
0.0004785
0.000426304
0.000379843
0.000417294
0.0004492
0.000469965
0.000480863
0.000483587
0.0004785
0.000426293
0.00037984
0.000417292
0.000449199
0.000469964
0.000480862
0.000483587
0.0004785
0.000426282
0.000379838
0.00041729
0.000449197
0.000469963
0.000480862
0.000483587
0.000478502
0.000426275
0.000379836
0.000417288
0.000449196
0.000469963
0.000480862
0.000483588
0.000478503
0.000426355
0.000379849
0.0004173
0.000449206
0.000469969
0.000480865
0.000483587
0.000478499
0.000426339
0.000379848
0.000417298
0.000449204
0.000469968
0.000480864
0.000483587
0.000478499
0.000426325
0.000379846
0.000417297
0.000449203
0.000469967
0.000480863
0.000483586
0.000478499
0.000426315
0.000379845
0.000417296
0.000449202
0.000469966
0.000480863
0.000483586
0.000478499
0.000426305
0.000379844
0.000417295
0.000449201
0.000469966
0.000480863
0.000483586
0.000478499
0.000426296
0.000379842
0.000417293
0.0004492
0.000469965
0.000480863
0.000483587
0.000478501
0.00042629
0.00037984
0.000417292
0.000449199
0.000469965
0.000480863
0.000483588
0.000478502
0.000426363
0.000379851
0.000417301
0.000449206
0.000469969
0.000480864
0.000483586
0.000478498
0.000426348
0.000379849
0.000417299
0.000449204
0.000469968
0.000480864
0.000483586
0.000478498
0.000426336
0.000379848
0.000417298
0.000449203
0.000469967
0.000480863
0.000483586
0.000478498
0.000426327
0.000379847
0.000417297
0.000449203
0.000469966
0.000480863
0.000483585
0.000478498
0.000426318
0.000379846
0.000417296
0.000449202
0.000469966
0.000480863
0.000483586
0.000478498
0.000426309
0.000379844
0.000417295
0.000449201
0.000469965
0.000480863
0.000483586
0.000478499
0.000426304
0.000379843
0.000417294
0.0004492
0.000469965
0.000480863
0.000483587
0.000478501
0.000426363
0.000379849
0.0004173
0.000449205
0.000469968
0.000480863
0.000483586
0.000478498
0.00042635
0.000379848
0.000417298
0.000449204
0.000469967
0.000480863
0.000483586
0.000478498
0.00042634
0.000379847
0.000417297
0.000449203
0.000469966
0.000480862
0.000483585
0.000478497
0.000426333
0.000379847
0.000417297
0.000449202
0.000469965
0.000480862
0.000483584
0.000478497
0.000426325
0.000379845
0.000417296
0.000449201
0.000469965
0.000480861
0.000483585
0.000478497
0.000426315
0.000379843
0.000417294
0.0004492
0.000469964
0.000480861
0.000483585
0.000478498
0.000426309
0.000379841
0.000417292
0.000449199
0.000469964
0.000480861
0.000483585
0.000478499
0.000426357
0.000379845
0.000417296
0.000449202
0.000469966
0.000480862
0.000483586
0.000478499
0.000426346
0.000379845
0.000417296
0.000449202
0.000469966
0.000480862
0.000483585
0.000478498
0.00042634
0.000379845
0.000417296
0.000449202
0.000469965
0.000480862
0.000483585
0.000478497
0.000426335
0.000379845
0.000417296
0.000449201
0.000469965
0.000480861
0.000483584
0.000478496
0.000426327
0.000379843
0.000417294
0.0004492
0.000469964
0.000480861
0.000483584
0.000478497
0.000426316
0.00037984
0.000417291
0.000449198
0.000469963
0.00048086
0.000483584
0.000478497
0.000426308
0.000379837
0.000417289
0.000449197
0.000469962
0.00048086
0.000483584
0.000478498
0.000426384
0.000379876
0.000417332
0.000449242
0.000470009
0.000480907
0.000483631
0.000478543
0.000426434
0.000379884
0.000417338
0.000449249
0.000470015
0.000480913
0.000483625
0.000478537
0.000426513
0.000379912
0.000417368
0.000449262
0.000470026
0.000426645
0.000380018
0.000426801
0.000426376
0.000379868
0.000417319
0.000449225
0.000469989
0.000480884
0.000483605
0.000478516
0.000426425
0.000379876
0.000417327
0.000449235
0.00047
0.000480894
0.000483611
0.000478517
0.000426485
0.000379895
0.00041735
0.00044926
0.000470007
0.000480901
0.000483609
0.000478518
0.000426553
0.000379916
0.00041737
0.000449265
0.00047002
0.00048091
0.00048363
0.000478541
0.000426609
0.000379926
0.00041736
0.000449256
0.000470011
0.000480899
0.000483614
0.000478519
0.000426667
0.000379922
0.000417356
0.000449255
0.000470014
0.000480906
0.000483624
0.000478529
0.000426701
0.000379919
0.000417352
0.000449253
0.000470014
0.000480909
0.000483631
0.000478544
0.000426373
0.000379863
0.000417313
0.000449218
0.000469981
0.000480877
0.0004836
0.000478512
0.000426413
0.000379868
0.000417316
0.000449221
0.000469984
0.00048088
0.000483601
0.000478512
0.000426462
0.000379878
0.000417326
0.000449235
0.000469999
0.000480892
0.00048361
0.000478519
0.000426521
0.000379891
0.000417333
0.000449234
0.000469993
0.000480883
0.0004836
0.000478507
0.000426575
0.000379899
0.000417337
0.000449237
0.000469995
0.000480887
0.000483607
0.000478517
0.000426623
0.000379903
0.000417337
0.000449236
0.000469993
0.000480884
0.000483602
0.00047851
0.000426663
0.000379905
0.000417338
0.000449236
0.000469993
0.000480882
0.000483597
0.000478501
0.000426369
0.000379856
0.000417307
0.000449213
0.000469977
0.000480874
0.000483597
0.00047851
0.000426404
0.000379862
0.000417311
0.000449215
0.000469978
0.000480873
0.000483595
0.000478508
0.000426447
0.000379869
0.000417315
0.000449218
0.00046998
0.000480875
0.000483595
0.000478506
0.000426498
0.000379879
0.000417322
0.000449223
0.000469983
0.000480876
0.000483596
0.000478508
0.000426545
0.000379887
0.000417325
0.000449225
0.000469983
0.000480875
0.000483594
0.000478503
0.000426588
0.000379893
0.000417329
0.000449228
0.000469986
0.000480877
0.000483596
0.000478504
0.000426625
0.000379896
0.00041733
0.000449229
0.000469987
0.000480878
0.000483597
0.000478507
0.000426358
0.00037985
0.000417304
0.00044921
0.000469975
0.000480872
0.000483596
0.000478509
0.00042639
0.000379856
0.000417307
0.000449212
0.000469976
0.000480872
0.000483594
0.000478507
0.000426428
0.000379862
0.00041731
0.000449214
0.000469976
0.000480871
0.000483593
0.000478505
0.000426472
0.00037987
0.000417315
0.000449217
0.000469977
0.000480871
0.000483592
0.000478503
0.000426515
0.000379878
0.000417319
0.00044922
0.00046998
0.000480873
0.000483594
0.000478505
0.000426555
0.000379884
0.000417322
0.000449222
0.000469981
0.000480873
0.000483593
0.000478503
0.000426589
0.000379888
0.000417324
0.000449223
0.000469981
0.000480873
0.000483592
0.000478502
0.000426349
0.000379848
0.000417302
0.000449209
0.000469973
0.00048087
0.000483594
0.000478507
0.000426379
0.000379853
0.000417304
0.000449211
0.000469974
0.00048087
0.000483593
0.000478506
0.000426412
0.000379857
0.000417307
0.000449212
0.000469974
0.00048087
0.000483593
0.000478505
0.000426452
0.000379865
0.000417311
0.000449214
0.000469976
0.000480871
0.000483592
0.000478504
0.000426493
0.000379872
0.000417315
0.000449217
0.000469977
0.000480871
0.000483592
0.000478504
0.00042653
0.000379879
0.000417319
0.00044922
0.000469979
0.000480872
0.000483593
0.000478503
0.00042656
0.000379883
0.000417321
0.000449221
0.00046998
0.000480873
0.000483593
0.000478504
0.000426349
0.000379847
0.000417301
0.000449208
0.000469972
0.000480868
0.000483592
0.000478505
0.000426375
0.000379851
0.000417303
0.000449209
0.000469972
0.000480869
0.000483592
0.000478504
0.000426405
0.000379855
0.000417305
0.00044921
0.000469973
0.000480869
0.000483592
0.000478504
0.000426444
0.000379863
0.000417309
0.000449213
0.000469974
0.000480869
0.000483592
0.000478504
0.000426482
0.000379871
0.000417314
0.000449216
0.000469977
0.000480871
0.000483592
0.000478503
0.000426516
0.000379877
0.000417318
0.000449219
0.000469979
0.000480872
0.000483593
0.000478503
0.000426543
0.000379883
0.000417321
0.000449221
0.00046998
0.000480873
0.000483593
0.000478503
0.000426351
0.000379847
0.0004173
0.000449206
0.00046997
0.000480866
0.00048359
0.000478503
0.000426374
0.000379851
0.000417302
0.000449207
0.000469971
0.000480867
0.000483589
0.000478502
0.000426402
0.000379854
0.000417304
0.000449209
0.000469971
0.000480867
0.000483589
0.000478501
0.000426438
0.000379861
0.000417307
0.000449211
0.000469973
0.000480868
0.00048359
0.000478501
0.000426473
0.000379868
0.000417312
0.000449214
0.000469975
0.000480869
0.00048359
0.000478501
0.000426503
0.000379875
0.000417317
0.000449218
0.000469978
0.000480871
0.000483591
0.000478502
0.000426526
0.000379881
0.000417321
0.000449221
0.00046998
0.000480873
0.000483592
0.000478502
0.000426351
0.000379846
0.000417299
0.000449205
0.000469969
0.000480865
0.000483589
0.000478502
0.000426372
0.00037985
0.000417301
0.000449206
0.000469969
0.000480865
0.000483588
0.0004785
0.000426396
0.000379852
0.000417302
0.000449207
0.00046997
0.000480865
0.000483587
0.000478499
0.000426427
0.000379858
0.000417305
0.000449209
0.000469971
0.000480866
0.000483587
0.000478499
0.000426457
0.000379864
0.00041731
0.000449212
0.000469973
0.000480867
0.000483588
0.000478498
0.000426482
0.000379871
0.000417314
0.000449216
0.000469976
0.000480869
0.000483589
0.000478499
0.000426501
0.000379876
0.000417318
0.000449219
0.000469978
0.00048087
0.00048359
0.000478499
0.000426351
0.000379846
0.000417299
0.000449205
0.000469969
0.000480865
0.000483588
0.000478501
0.000426369
0.000379849
0.000417301
0.000449206
0.000469969
0.000480865
0.000483587
0.0004785
0.000426388
0.000379851
0.000417302
0.000449206
0.000469969
0.000480864
0.000483586
0.000478498
0.000426415
0.000379856
0.000417305
0.000449208
0.00046997
0.000480864
0.000483586
0.000478497
0.000426441
0.000379862
0.000417308
0.000449211
0.000469972
0.000480865
0.000483586
0.000478496
0.000426461
0.000379867
0.000417311
0.000449213
0.000469973
0.000480866
0.000483586
0.000478496
0.000426477
0.000379871
0.000417314
0.000449216
0.000469975
0.000480867
0.000483587
0.000478496
0.000426355
0.000379848
0.000417299
0.000449205
0.000469968
0.000480865
0.000483587
0.0004785
0.000426372
0.00037985
0.000417301
0.000449206
0.000469969
0.000480864
0.000483587
0.000478499
0.000426389
0.000379852
0.000417302
0.000449206
0.000469969
0.000480864
0.000483586
0.000478498
0.000426413
0.000379857
0.000417305
0.000449208
0.00046997
0.000480864
0.000483585
0.000478497
0.000426435
0.000379862
0.000417308
0.00044921
0.000469971
0.000480864
0.000483585
0.000478496
0.000426452
0.000379866
0.00041731
0.000449212
0.000469972
0.000480865
0.000483585
0.000478495
0.000426464
0.000379869
0.000417312
0.000449213
0.000469972
0.000480865
0.000483585
0.000478495
0.000426361
0.000379847
0.000417298
0.000449204
0.000469967
0.000480863
0.000483586
0.000478498
0.000426377
0.00037985
0.0004173
0.000449205
0.000469967
0.000480863
0.000483586
0.000478497
0.000426393
0.000379853
0.000417301
0.000449205
0.000469968
0.000480863
0.000483585
0.000478497
0.000426416
0.000379858
0.000417304
0.000449207
0.000469969
0.000480864
0.000483585
0.000478497
0.000426434
0.000379862
0.000417307
0.000449209
0.00046997
0.000480864
0.000483585
0.000478496
0.000426447
0.000379864
0.000417308
0.00044921
0.00046997
0.000480864
0.000483585
0.000478496
0.000426455
0.000379865
0.000417309
0.00044921
0.00046997
0.000480863
0.000483584
0.000478495
0.000426361
0.000379844
0.000417295
0.000449201
0.000469964
0.000480861
0.000483584
0.000478496
0.000426375
0.000379847
0.000417297
0.000449202
0.000469965
0.000480861
0.000483584
0.000478496
0.000426389
0.000379849
0.000417298
0.000449202
0.000469965
0.000480861
0.000483584
0.000478496
0.000426409
0.000379853
0.0004173
0.000449204
0.000469966
0.000480862
0.000483584
0.000478496
0.000426424
0.000379856
0.000417302
0.000449205
0.000469967
0.000480862
0.000483584
0.000478496
0.000426432
0.000379857
0.000417302
0.000449206
0.000469967
0.000480862
0.000483584
0.000478496
0.000426436
0.000379857
0.000417302
0.000449205
0.000469967
0.000480862
0.000483583
0.000478495
0.000426354
0.00037984
0.000417292
0.000449198
0.000469962
0.000480859
0.000483582
0.000478495
0.000426365
0.000379842
0.000417293
0.000449199
0.000469962
0.000480859
0.000483582
0.000478495
0.000426377
0.000379843
0.000417293
0.000449199
0.000469963
0.000480859
0.000483582
0.000478495
0.000426395
0.000379846
0.000417295
0.0004492
0.000469963
0.000480859
0.000483582
0.000478494
0.000426408
0.000379848
0.000417296
0.000449201
0.000469964
0.000480859
0.000483582
0.000478494
0.000426411
0.000379847
0.000417295
0.0004492
0.000469963
0.000480859
0.000483582
0.000478495
0.000426412
0.000379846
0.000417295
0.0004492
0.000469963
0.000480859
0.000483582
0.000478495
0.000426531
0.000426748
0.000379814
0.000426943
0.000379971
0.000417385
0.000449285
0.000469825
0.000426719
0.000379932
0.000417376
0.000449295
0.000470036
0.000480904
0.000483642
0.000478571
0.000426536
0.000379895
0.000417336
0.000449241
0.000469998
0.00048088
0.000483584
0.000478476
0.00042673
0.00037992
0.000417351
0.000449248
0.000470002
0.00048089
0.000483604
0.000478506
0.000426715
0.000379917
0.000417356
0.000449258
0.000470014
0.000480902
0.000483618
0.000478524
0.000426721
0.000379901
0.000417339
0.000449257
0.000470023
0.000480914
0.000483627
0.000478531
0.000426942
0.000379952
0.000417345
0.000449232
0.000469999
0.000480902
0.000483631
0.000478536
0.000426739
0.000379932
0.000417384
0.000449325
0.000470055
0.000480882
0.000483612
0.000478538
0.000426594
0.00037989
0.000417329
0.000449244
0.000470013
0.000480901
0.000483612
0.000478509
0.000426518
0.000379891
0.000417331
0.000449236
0.000470002
0.000480901
0.000483627
0.000478546
0.000426696
0.000379906
0.000417338
0.000449237
0.000469996
0.000480888
0.000483608
0.000478519
0.00042671
0.000379903
0.000417335
0.000449232
0.000469989
0.000480879
0.000483597
0.000478507
0.00042673
0.000379907
0.00041734
0.000449238
0.000469992
0.00048088
0.000483595
0.000478502
0.000426709
0.000379912
0.000417345
0.000449246
0.000470002
0.000480889
0.000483602
0.000478506
0.00042662
0.000379887
0.000417325
0.000449239
0.000470011
0.000480901
0.000483616
0.000478519
0.000426563
0.000379886
0.000417321
0.000449223
0.000469986
0.000480881
0.000483603
0.000478515
0.000426487
0.000379881
0.000417322
0.000449223
0.000469982
0.000480874
0.000483592
0.0004785
0.000426652
0.000379897
0.000417329
0.000449227
0.000469984
0.000480874
0.000483592
0.0004785
0.000426662
0.000379895
0.000417328
0.000449226
0.000469984
0.000480875
0.000483594
0.000478503
0.000426661
0.000379894
0.000417327
0.000449226
0.000469983
0.000480874
0.000483593
0.000478503
0.00042663
0.000379888
0.000417324
0.000449225
0.000469983
0.000480875
0.000483594
0.000478504
0.000426584
0.000379882
0.000417319
0.000449219
0.00046998
0.000480875
0.000483595
0.000478505
0.000426521
0.000379878
0.000417319
0.000449221
0.000469981
0.000480874
0.000483594
0.000478505
0.000426455
0.000379873
0.000417317
0.000449221
0.000469983
0.000480878
0.0004836
0.000478512
0.00042661
0.000379889
0.000417324
0.000449224
0.000469982
0.000480874
0.000483594
0.000478504
0.000426616
0.000379887
0.000417323
0.000449222
0.000469981
0.000480873
0.000483592
0.000478503
0.00042661
0.000379885
0.000417322
0.000449221
0.00046998
0.000480872
0.000483591
0.000478502
0.000426584
0.000379881
0.00041732
0.00044922
0.000469979
0.000480872
0.000483592
0.000478502
0.000426539
0.000379876
0.000417317
0.000449219
0.000469978
0.000480872
0.000483593
0.000478505
0.000426483
0.00037987
0.000417314
0.000449217
0.000469979
0.000480873
0.000483595
0.000478508
0.000426428
0.000379865
0.000417311
0.000449215
0.000469977
0.000480873
0.000483595
0.000478507
0.000426577
0.000379885
0.000417322
0.000449222
0.00046998
0.000480873
0.000483592
0.000478503
0.000426582
0.000379884
0.000417322
0.000449222
0.00046998
0.000480873
0.000483592
0.000478503
0.000426574
0.000379882
0.00041732
0.000449221
0.00046998
0.000480872
0.000483593
0.000478503
0.00042655
0.000379878
0.000417318
0.000449219
0.000469979
0.000480872
0.000483593
0.000478505
0.000426509
0.000379872
0.000417315
0.000449217
0.000469977
0.000480872
0.000483594
0.000478506
0.000426459
0.000379865
0.000417311
0.000449214
0.000469976
0.000480872
0.000483594
0.000478508
0.00042641
0.00037986
0.000417307
0.000449212
0.000469975
0.000480872
0.000483595
0.000478508
0.000426558
0.000379885
0.000417323
0.000449223
0.000469981
0.000480874
0.000483593
0.000478503
0.000426561
0.000379885
0.000417323
0.000449223
0.000469981
0.000480874
0.000483594
0.000478504
0.000426553
0.000379883
0.000417321
0.000449221
0.000469981
0.000480874
0.000483594
0.000478504
0.00042653
0.000379878
0.000417318
0.000449219
0.000469979
0.000480873
0.000483594
0.000478506
0.00042649
0.00037987
0.000417313
0.000449216
0.000469977
0.000480872
0.000483595
0.000478507
0.000426443
0.000379862
0.000417308
0.000449212
0.000469975
0.000480871
0.000483594
0.000478508
0.000426396
0.000379855
0.000417304
0.000449209
0.000469973
0.00048087
0.000483594
0.000478508
0.000426539
0.000379884
0.000417323
0.000449223
0.000469982
0.000480874
0.000483593
0.000478502
0.000426541
0.000379885
0.000417323
0.000449223
0.000469982
0.000480875
0.000483594
0.000478503
0.000426531
0.000379882
0.000417321
0.000449222
0.000469981
0.000480874
0.000483594
0.000478505
0.000426507
0.000379875
0.000417317
0.000449219
0.00046998
0.000480874
0.000483595
0.000478506
0.000426469
0.000379866
0.000417311
0.000449215
0.000469977
0.000480872
0.000483594
0.000478507
0.000426425
0.000379857
0.000417305
0.000449211
0.000469974
0.00048087
0.000483594
0.000478507
0.000426383
0.000379851
0.000417301
0.000449208
0.000469972
0.000480869
0.000483593
0.000478506
0.000426512
0.000379879
0.00041732
0.000449221
0.00046998
0.000480872
0.000483591
0.0004785
0.000426513
0.00037988
0.000417321
0.000449222
0.000469981
0.000480873
0.000483592
0.000478501
0.000426502
0.000379877
0.000417319
0.000449221
0.000469981
0.000480873
0.000483593
0.000478502
0.000426479
0.000379871
0.000417315
0.000449218
0.000469979
0.000480872
0.000483593
0.000478503
0.000426444
0.000379862
0.000417309
0.000449214
0.000469976
0.000480871
0.000483592
0.000478504
0.000426408
0.000379854
0.000417304
0.00044921
0.000469973
0.000480869
0.000483592
0.000478504
0.000426374
0.00037985
0.000417301
0.000449207
0.000469971
0.000480867
0.000483591
0.000478504
0.000426486
0.000379874
0.000417317
0.000449218
0.000469977
0.000480869
0.000483588
0.000478497
0.000426487
0.000379875
0.000417318
0.000449219
0.000469978
0.00048087
0.000483589
0.000478498
0.000426479
0.000379873
0.000417317
0.000449219
0.000469978
0.00048087
0.000483589
0.000478499
0.00042646
0.000379869
0.000417314
0.000449217
0.000469977
0.00048087
0.000483589
0.000478499
0.000426431
0.000379861
0.000417309
0.000449213
0.000469974
0.000480868
0.000483589
0.0004785
0.000426402
0.000379855
0.000417305
0.00044921
0.000469972
0.000480867
0.000483589
0.000478501
0.000426376
0.000379852
0.000417302
0.000449207
0.00046997
0.000480866
0.000483589
0.000478501
0.000426472
0.000379871
0.000417314
0.000449214
0.000469973
0.000480866
0.000483585
0.000478495
0.000426475
0.000379872
0.000417315
0.000449216
0.000469974
0.000480866
0.000483586
0.000478495
0.00042647
0.000379872
0.000417315
0.000449216
0.000469975
0.000480867
0.000483586
0.000478496
0.000426455
0.000379869
0.000417313
0.000449215
0.000469974
0.000480867
0.000483586
0.000478496
0.000426432
0.000379864
0.00041731
0.000449212
0.000469973
0.000480866
0.000483587
0.000478497
0.000426408
0.000379859
0.000417306
0.00044921
0.000469971
0.000480866
0.000483587
0.000478498
0.000426386
0.000379855
0.000417304
0.000449208
0.00046997
0.000480865
0.000483587
0.000478498
0.000426461
0.000379867
0.000417309
0.00044921
0.00046997
0.000480863
0.000483584
0.000478495
0.000426464
0.000379868
0.00041731
0.000449211
0.000469971
0.000480864
0.000483584
0.000478494
0.000426461
0.000379868
0.000417311
0.000449212
0.000469971
0.000480864
0.000483584
0.000478494
0.00042645
0.000379867
0.00041731
0.000449211
0.000469971
0.000480864
0.000483585
0.000478495
0.000426429
0.000379863
0.000417308
0.00044921
0.000469971
0.000480865
0.000483585
0.000478496
0.000426409
0.000379859
0.000417306
0.000449209
0.00046997
0.000480865
0.000483586
0.000478497
0.000426392
0.000379857
0.000417304
0.000449208
0.00046997
0.000480865
0.000483586
0.000478497
0.00042644
0.000379857
0.000417302
0.000449205
0.000469966
0.000480861
0.000483583
0.000478495
0.000426443
0.000379858
0.000417303
0.000449206
0.000469967
0.000480861
0.000483583
0.000478494
0.000426442
0.000379859
0.000417304
0.000449206
0.000469967
0.000480861
0.000483582
0.000478493
0.000426432
0.000379858
0.000417304
0.000449206
0.000469967
0.000480862
0.000483583
0.000478494
0.000426414
0.000379856
0.000417302
0.000449206
0.000469968
0.000480862
0.000483584
0.000478495
0.000426397
0.000379854
0.000417302
0.000449206
0.000469968
0.000480863
0.000483584
0.000478496
0.000426384
0.000379853
0.000417301
0.000449206
0.000469968
0.000480863
0.000483585
0.000478496
0.000426415
0.000379846
0.000417295
0.0004492
0.000469962
0.000480859
0.000483581
0.000478494
0.000426419
0.000379847
0.000417295
0.0004492
0.000469963
0.000480858
0.000483581
0.000478494
0.00042642
0.000379849
0.000417297
0.000449201
0.000469963
0.000480859
0.000483581
0.000478493
0.000426412
0.000379849
0.000417297
0.000449201
0.000469964
0.000480859
0.000483581
0.000478493
0.000426396
0.000379847
0.000417296
0.000449201
0.000469964
0.00048086
0.000483582
0.000478495
0.000426382
0.000379846
0.000417296
0.000449201
0.000469964
0.00048086
0.000483583
0.000478495
0.000426371
0.000379847
0.000417297
0.000449202
0.000469965
0.000480861
0.000483584
0.000478496
0.000426213
0.000379871
0.00041732
0.000449228
0.000469997
0.000480897
0.000483622
0.000478537
0.000426232
0.000379871
0.000417322
0.000449231
0.000469999
0.000480899
0.000483623
0.000478535
0.000426252
0.000379869
0.000417323
0.000449234
0.000470003
0.000480906
0.000483635
0.000478555
0.000426278
0.000379866
0.000417321
0.000449228
0.000469992
0.000480887
0.000483606
0.000478514
0.000426308
0.00037987
0.000417327
0.000449237
0.000470005
0.000480905
0.000483631
0.000478545
0.000426333
0.000379871
0.000417326
0.000449235
0.000470001
0.0004809
0.000483626
0.000478542
0.000426377
0.000379879
0.000417333
0.00044924
0.000470004
0.000480898
0.000483618
0.000478527
0.000426216
0.000379857
0.000417305
0.000449213
0.000469981
0.000480882
0.000483608
0.000478524
0.000426228
0.000379855
0.000417305
0.000449213
0.000469981
0.000480881
0.000483608
0.000478524
0.000426245
0.000379853
0.000417305
0.000449212
0.000469979
0.000480877
0.0004836
0.000478511
0.000426268
0.000379853
0.000417307
0.000449216
0.000469984
0.000480885
0.000483612
0.00047853
0.00042629
0.000379853
0.000417307
0.000449214
0.000469979
0.000480877
0.000483601
0.000478515
0.000426322
0.000379859
0.000417312
0.000449218
0.000469983
0.00048088
0.000483604
0.000478516
0.000426362
0.000379866
0.000417317
0.000449223
0.000469988
0.000480886
0.00048361
0.000478525
0.000426225
0.000379851
0.000417298
0.000449205
0.000469973
0.000480873
0.0004836
0.000478516
0.000426237
0.00037985
0.0004173
0.000449207
0.000469975
0.000480875
0.0004836
0.000478516
0.000426252
0.00037985
0.000417301
0.000449209
0.000469977
0.000480877
0.000483604
0.00047852
0.000426269
0.000379848
0.000417301
0.000449209
0.000469975
0.000480874
0.000483598
0.000478511
0.000426291
0.00037985
0.000417303
0.000449211
0.000469977
0.000480876
0.000483602
0.000478517
0.000426318
0.000379854
0.000417306
0.000449212
0.000469978
0.000480876
0.000483601
0.000478516
0.000426356
0.000379859