/*--------------------------------*- C++ -*----------------------------------*\
| =========                 |                                                 |
| \\      /  F ield         | OpenFOAM: The Open Source CFD Toolbox           |
|  \\    /   O peration     | Version:  plus.master.MPPICInterFoam            |
|   \\  /    A nd           | Web:      www.OpenFOAM.com                      |
|    \\/     M anipulation  |                                                 |
\*---------------------------------------------------------------------------*/
FoamFile
{
    version     2.0;
    format      ascii;
    class       volScalarField;
    location    "1.4";
    object      k;
}
// * * * * * * * * * * * * * * * * * * * * * * * * * * * * * * * * * * * * * //

dimensions      [0 2 -2 0 0 0 0];

internalField   nonuniform List<scalar> 
11821
(
0.000199413
0.000436037
0.000546293
0.00061225
0.000651027
0.000670731
0.000675649
0.000666805
0.000199389
0.000436012
0.000546272
0.000612229
0.000650999
0.000670688
0.000675581
0.000666702
0.000199369
0.000435991
0.000546263
0.000612232
0.00065102
0.000670732
0.000675653
0.00066681
0.000199354
0.000435969
0.00054624
0.000612206
0.000650985
0.000670684
0.000675586
0.000666717
0.000199349
0.000435969
0.000546248
0.000612223
0.000651015
0.000670731
0.000675655
0.000666812
0.000199345
0.000435965
0.000546239
0.000612207
0.000650989
0.000670691
0.000675596
0.000666732
0.000199349
0.000435975
0.000546252
0.000612223
0.00065101
0.000670719
0.000675634
0.000666781
0.000199409
0.000436032
0.000546285
0.000612236
0.000651003
0.000670693
0.000675589
0.000666714
0.000199389
0.000436012
0.000546272
0.000612231
0.000651008
0.00067071
0.000675621
0.000666769
0.000199371
0.000435986
0.000546249
0.000612209
0.000650984
0.000670682
0.000675585
0.000666719
0.000199359
0.000435971
0.00054624
0.000612208
0.000650993
0.000670702
0.000675619
0.000666771
0.00019935
0.00043596
0.000546229
0.000612195
0.000650977
0.000670681
0.000675589
0.000666728
0.000199349
0.000435962
0.000546234
0.000612204
0.00065099
0.000670699
0.000675615
0.000666765
0.000199349
0.000435963
0.000546234
0.0006122
0.000650983
0.000670687
0.000675597
0.000666738
0.000199407
0.000436028
0.000546279
0.000612232
0.000651002
0.000670698
0.000675604
0.000666745
0.00019939
0.000436008
0.000546264
0.000612219
0.000650991
0.000670687
0.000675589
0.000666724
0.000199374
0.000435987
0.000546249
0.000612209
0.000650988
0.00067069
0.000675601
0.000666746
0.000199362
0.000435969
0.000546234
0.000612197
0.000650977
0.00067068
0.00067559
0.000666731
0.000199356
0.000435962
0.00054623
0.000612196
0.00065098
0.000670688
0.000675602
0.00066675
0.000199352
0.00043596
0.000546228
0.000612193
0.000650976
0.000670681
0.000675592
0.000666736
0.000199353
0.000435963
0.000546231
0.000612197
0.00065098
0.000670686
0.000675598
0.000666744
0.000199405
0.000436019
0.000546271
0.000612223
0.000650994
0.000670689
0.000675592
0.000666728
0.000199389
0.000436004
0.000546259
0.000612215
0.000650989
0.000670688
0.000675595
0.000666735
0.000199375
0.000435985
0.000546245
0.000612203
0.00065098
0.000670681
0.000675589
0.000666731
0.000199365
0.000435971
0.000546234
0.000612197
0.000650977
0.000670682
0.000675594
0.000666739
0.000199359
0.000435963
0.000546228
0.000612192
0.000650974
0.000670679
0.000675591
0.000666735
0.000199356
0.000435961
0.000546227
0.000612192
0.000650975
0.000670681
0.000675594
0.000666739
0.000199356
0.000435962
0.000546227
0.000612192
0.000650973
0.000670679
0.000675591
0.000666736
0.0001994
0.000436011
0.000546264
0.000612217
0.000650989
0.000670686
0.000675592
0.00066673
0.000199386
0.000435998
0.000546253
0.000612209
0.000650984
0.000670683
0.00067559
0.00066673
0.000199375
0.000435983
0.000546241
0.000612201
0.000650978
0.00067068
0.00067559
0.000666732
0.000199367
0.00043597
0.000546232
0.000612194
0.000650973
0.000670677
0.000675588
0.000666732
0.000199361
0.000435962
0.000546226
0.00061219
0.000650971
0.000670677
0.000675589
0.000666734
0.000199358
0.000435959
0.000546223
0.000612188
0.000650969
0.000670675
0.000675587
0.000666732
0.000199357
0.000435958
0.000546222
0.000612187
0.000650969
0.000670675
0.000675588
0.000666733
0.000199396
0.000436005
0.000546258
0.000612212
0.000650985
0.000670682
0.000675589
0.000666728
0.000199384
0.000435993
0.000546249
0.000612206
0.000650981
0.000670681
0.000675589
0.00066673
0.000199374
0.000435979
0.000546238
0.000612198
0.000650976
0.000670677
0.000675587
0.000666729
0.000199367
0.000435968
0.000546229
0.000612191
0.000650971
0.000670675
0.000675586
0.000666729
0.000199362
0.000435961
0.000546224
0.000612187
0.000650968
0.000670672
0.000675584
0.000666729
0.000199359
0.000435957
0.00054622
0.000612184
0.000650966
0.000670671
0.000675584
0.000666728
0.000199357
0.000435955
0.000546218
0.000612183
0.000650965
0.00067067
0.000675584
0.000666729
0.000199394
0.000436001
0.000546254
0.000612209
0.000650982
0.00067068
0.000675587
0.000666727
0.000199384
0.00043599
0.000546246
0.000612203
0.000650979
0.000670678
0.000675586
0.000666727
0.000199375
0.000435979
0.000546237
0.000612197
0.000650974
0.000670675
0.000675584
0.000666726
0.000199369
0.00043597
0.00054623
0.000612191
0.000650969
0.000670672
0.000675583
0.000666725
0.000199364
0.000435963
0.000546224
0.000612186
0.000650966
0.00067067
0.000675581
0.000666725
0.000199362
0.000435959
0.000546221
0.000612183
0.000650964
0.000670668
0.00067558
0.000666725
0.00019936
0.000435956
0.000546218
0.000612182
0.000650963
0.000670668
0.000675581
0.000666726
0.000199394
0.000435999
0.000546252
0.000612206
0.000650979
0.000670677
0.000675584
0.000666724
0.000199385
0.000435991
0.000546246
0.000612202
0.000650977
0.000670676
0.000675583
0.000666723
0.000199378
0.000435983
0.000546239
0.000612197
0.000650973
0.000670673
0.000675581
0.000666722
0.000199373
0.000435975
0.000546233
0.000612192
0.000650969
0.000670671
0.00067558
0.000666722
0.000199368
0.000435969
0.000546228
0.000612188
0.000650966
0.000670669
0.000675579
0.000666722
0.000199365
0.000435964
0.000546224
0.000612185
0.000650964
0.000670668
0.000675579
0.000666722
0.000199364
0.000435961
0.000546221
0.000612183
0.000650963
0.000670668
0.000675579
0.000666724
0.000199393
0.000435999
0.000546251
0.000612205
0.000650978
0.000670675
0.000675582
0.000666721
0.000199386
0.000435994
0.000546247
0.000612202
0.000650976
0.000670674
0.000675581
0.00066672
0.000199381
0.000435987
0.000546242
0.000612199
0.000650973
0.000670672
0.000675579
0.000666719
0.000199376
0.000435981
0.000546237
0.000612195
0.00065097
0.00067067
0.000675578
0.000666719
0.000199372
0.000435975
0.000546233
0.000612191
0.000650968
0.000670669
0.000675578
0.000666719
0.000199369
0.00043597
0.000546228
0.000612188
0.000650966
0.000670668
0.000675578
0.00066672
0.000199367
0.000435966
0.000546226
0.000612187
0.000650965
0.000670668
0.000675579
0.000666722
0.000199393
0.000436002
0.000546253
0.000612206
0.000650978
0.000670674
0.000675579
0.000666718
0.000199388
0.000435997
0.00054625
0.000612204
0.000650976
0.000670673
0.000675579
0.000666717
0.000199383
0.000435991
0.000546246
0.000612201
0.000650974
0.000670672
0.000675578
0.000666716
0.00019938
0.000435986
0.000546242
0.000612198
0.000650972
0.000670671
0.000675577
0.000666716
0.000199376
0.000435981
0.000546238
0.000612195
0.000650971
0.00067067
0.000675577
0.000666717
0.000199373
0.000435976
0.000546234
0.000612193
0.000650969
0.00067067
0.000675578
0.000666719
0.00019937
0.000435972
0.000546231
0.000612191
0.000650968
0.00067067
0.000675579
0.000666721
0.000199396
0.000436006
0.000546256
0.000612208
0.000650978
0.000670674
0.000675578
0.000666715
0.00019939
0.000436001
0.000546252
0.000612205
0.000650977
0.000670673
0.000675578
0.000666715
0.000199386
0.000435996
0.000546249
0.000612203
0.000650975
0.000670672
0.000675577
0.000666715
0.000199383
0.000435992
0.000546246
0.000612201
0.000650974
0.000670671
0.000675576
0.000666714
0.00019938
0.000435988
0.000546243
0.000612199
0.000650973
0.000670671
0.000675577
0.000666715
0.000199377
0.000435983
0.00054624
0.000612197
0.000650972
0.000670671
0.000675578
0.000666717
0.000199375
0.00043598
0.000546238
0.000612195
0.000650971
0.000670671
0.000675579
0.00066672
0.000199398
0.000436008
0.000546257
0.000612209
0.000650978
0.000670673
0.000675577
0.000666713
0.000199393
0.000436003
0.000546254
0.000612206
0.000650977
0.000670673
0.000675577
0.000666714
0.000199389
0.000435999
0.000546251
0.000612204
0.000650975
0.000670671
0.000675576
0.000666713
0.000199387
0.000435996
0.000546249
0.000612203
0.000650974
0.000670671
0.000675575
0.000666713
0.000199384
0.000435993
0.000546246
0.000612201
0.000650973
0.000670671
0.000675576
0.000666714
0.000199381
0.000435988
0.000546243
0.000612199
0.000650972
0.000670671
0.000675577
0.000666715
0.00019938
0.000435985
0.000546241
0.000612198
0.000650972
0.000670671
0.000675578
0.000666717
0.000199398
0.000436006
0.000546256
0.000612207
0.000650977
0.000670672
0.000675576
0.000666713
0.000199394
0.000436002
0.000546253
0.000612205
0.000650976
0.000670671
0.000675576
0.000666713
0.000199391
0.000436
0.000546251
0.000612203
0.000650974
0.00067067
0.000675575
0.000666712
0.000199389
0.000435998
0.000546249
0.000612202
0.000650974
0.00067067
0.000675574
0.000666712
0.000199386
0.000435994
0.000546247
0.000612201
0.000650973
0.000670669
0.000675574
0.000666712
0.000199383
0.000435989
0.000546243
0.000612198
0.000650971
0.000670669
0.000675575
0.000666713
0.000199381
0.000435986
0.00054624
0.000612196
0.00065097
0.000670669
0.000675575
0.000666715
0.000199396
0.000436002
0.000546252
0.000612204
0.000650975
0.000670671
0.000675576
0.000666715
0.000199393
0.000436
0.000546251
0.000612203
0.000650974
0.000670671
0.000675575
0.000666714
0.000199391
0.000435999
0.00054625
0.000612203
0.000650974
0.00067067
0.000675575
0.000666712
0.000199389
0.000435998
0.000546249
0.000612202
0.000650973
0.000670669
0.000675574
0.000666711
0.000199387
0.000435994
0.000546246
0.0006122
0.000650972
0.000670668
0.000675573
0.000666712
0.000199383
0.000435988
0.000546242
0.000612196
0.00065097
0.000670668
0.000675574
0.000666713
0.000199381
0.000435984
0.000546238
0.000612194
0.000650968
0.000670667
0.000675574
0.000666714
0.000199406
0.00043603
0.000546289
0.000612246
0.00065102
0.000670718
0.000675623
0.000666761
0.000199422
0.000436041
0.000546297
0.000612251
0.000651019
0.000670715
0.00067561
0.000666747
0.000199447
0.000436067
0.000546317
0.000612235
0.000650988
0.000199489
0.000436146
0.000199535
0.000199404
0.000436024
0.000546279
0.000612233
0.000651004
0.000670698
0.000675601
0.000666736
0.000199419
0.000436037
0.000546291
0.000612246
0.000651016
0.000670707
0.000675605
0.000666733
0.000199438
0.000436059
0.000546318
0.000612267
0.000651005
0.000670691
0.000675585
0.000666722
0.00019946
0.000436074
0.000546329
0.000612271
0.000651031
0.000670719
0.00067562
0.000666757
0.000199477
0.00043609
0.000546329
0.000612268
0.000651024
0.000670707
0.000675599
0.000666725
0.000199495
0.00043609
0.000546329
0.00061227
0.000651031
0.000670718
0.000675614
0.000666741
0.000199506
0.00043609
0.000546327
0.000612268
0.000651031
0.000670722
0.000675623
0.000666759
0.000199403
0.000436019
0.000546272
0.000612224
0.000650995
0.000670691
0.000675595
0.000666733
0.000199416
0.000436028
0.000546278
0.00061223
0.000651
0.000670694
0.000675597
0.000666732
0.000199431
0.000436041
0.000546293
0.000612248
0.000651016
0.000670705
0.000675603
0.000666737
0.00019945
0.000436055
0.000546301
0.000612247
0.00065101
0.000670697
0.000675593
0.000666723
0.000199466
0.000436066
0.000546308
0.000612252
0.000651015
0.000670704
0.000675603
0.000666737
0.000199481
0.000436072
0.000546311
0.000612252
0.000651012
0.000670699
0.000675595
0.000666726
0.000199494
0.000436077
0.000546314
0.000612254
0.000651012
0.000670696
0.000675589
0.000666714
0.000199402
0.000436012
0.000546265
0.000612218
0.00065099
0.000670687
0.000675592
0.00066673
0.000199413
0.00043602
0.000546271
0.000612222
0.000650991
0.000670686
0.00067559
0.000666727
0.000199426
0.00043603
0.000546278
0.000612227
0.000650995
0.000670688
0.000675589
0.000666724
0.000199442
0.000436043
0.000546288
0.000612234
0.000650999
0.00067069
0.000675591
0.000666726
0.000199457
0.000436052
0.000546294
0.000612238
0.000651
0.000670689
0.000675586
0.000666718
0.00019947
0.00043606
0.0005463
0.000612243
0.000651004
0.000670692
0.000675589
0.000666721
0.000199482
0.000436066
0.000546304
0.000612245
0.000651006
0.000670693
0.000675591
0.000666725
0.000199398
0.000436005
0.000546259
0.000612214
0.000650987
0.000670684
0.00067559
0.000666729
0.000199408
0.000436014
0.000546265
0.000612218
0.000650988
0.000670684
0.000675588
0.000666726
0.00019942
0.000436023
0.000546271
0.000612221
0.000650989
0.000670683
0.000675587
0.000666723
0.000199434
0.000436032
0.000546278
0.000612226
0.000650992
0.000670684
0.000675585
0.00066672
0.000199448
0.000436042
0.000546285
0.000612231
0.000650995
0.000670686
0.000675587
0.000666722
0.00019946
0.000436049
0.000546291
0.000612234
0.000650997
0.000670686
0.000675586
0.00066672
0.00019947
0.000436055
0.000546295
0.000612236
0.000650998
0.000670686
0.000675584
0.000666717
0.000199395
0.000436002
0.000546257
0.000612212
0.000650984
0.000670682
0.000675588
0.000666726
0.000199405
0.00043601
0.000546262
0.000612215
0.000650986
0.000670682
0.000675587
0.000666725
0.000199415
0.000436017
0.000546267
0.000612218
0.000650987
0.000670682
0.000675586
0.000666723
0.000199428
0.000436026
0.000546273
0.000612222
0.000650989
0.000670682
0.000675585
0.000666722
0.00019944
0.000436035
0.00054628
0.000612226
0.000650992
0.000670683
0.000675585
0.00066672
0.000199452
0.000436043
0.000546286
0.00061223
0.000650994
0.000670685
0.000675585
0.00066672
0.000199461
0.000436049
0.00054629
0.000612233
0.000650996
0.000670686
0.000675586
0.00066672
0.000199395
0.000436002
0.000546255
0.00061221
0.000650982
0.000670679
0.000675584
0.000666723
0.000199403
0.000436008
0.00054626
0.000612212
0.000650983
0.000670679
0.000675584
0.000666722
0.000199412
0.000436015
0.000546264
0.000612215
0.000650985
0.00067068
0.000675584
0.000666721
0.000199424
0.000436023
0.00054627
0.000612219
0.000650987
0.000670681
0.000675584
0.00066672
0.000199437
0.000436032
0.000546277
0.000612224
0.00065099
0.000670683
0.000675584
0.00066672
0.000199447
0.000436041
0.000546284
0.000612229
0.000650994
0.000670685
0.000675585
0.00066672
0.000199455
0.000436047
0.000546289
0.000612233
0.000650996
0.000670686
0.000675585
0.000666719
0.000199395
0.000436001
0.000546254
0.000612207
0.000650979
0.000670676
0.000675582
0.00066672
0.000199403
0.000436007
0.000546258
0.00061221
0.000650981
0.000670677
0.000675581
0.000666719
0.000199411
0.000436012
0.000546262
0.000612212
0.000650982
0.000670677
0.000675581
0.000666718
0.000199423
0.00043602
0.000546268
0.000612217
0.000650985
0.000670679
0.000675581
0.000666717
0.000199434
0.000436029
0.000546274
0.000612222
0.000650988
0.000670681
0.000675582
0.000666717
0.000199443
0.000436037
0.000546281
0.000612227
0.000650992
0.000670683
0.000675583
0.000666717
0.00019945
0.000436044
0.000546287
0.000612232
0.000650996
0.000670685
0.000675585
0.000666718
0.000199395
0.000436
0.000546253
0.000612206
0.000650978
0.000670675
0.00067558
0.000666719
0.000199402
0.000436006
0.000546257
0.000612209
0.000650979
0.000670675
0.000675579
0.000666717
0.000199409
0.00043601
0.00054626
0.00061221
0.00065098
0.000670675
0.000675578
0.000666715
0.000199419
0.000436017
0.000546265
0.000612214
0.000650982
0.000670676
0.000675578
0.000666714
0.000199429
0.000436025
0.000546271
0.000612219
0.000650985
0.000670677
0.000675579
0.000666713
0.000199436
0.000436032
0.000546277
0.000612224
0.000650989
0.00067068
0.00067558
0.000666713
0.000199442
0.000436038
0.000546283
0.000612228
0.000650992
0.000670682
0.000675581
0.000666714
0.000199395
0.000436001
0.000546254
0.000612207
0.000650978
0.000670674
0.000675579
0.000666718
0.000199401
0.000436006
0.000546256
0.000612208
0.000650979
0.000670674
0.000675578
0.000666716
0.000199407
0.00043601
0.000546259
0.00061221
0.000650979
0.000670673
0.000675577
0.000666714
0.000199415
0.000436016
0.000546264
0.000612213
0.000650981
0.000670674
0.000675576
0.000666711
0.000199423
0.000436022
0.000546269
0.000612217
0.000650983
0.000670675
0.000675576
0.00066671
0.00019943
0.000436028
0.000546274
0.00061222
0.000650986
0.000670676
0.000675576
0.00066671
0.000199434
0.000436033
0.000546278
0.000612224
0.000650988
0.000670678
0.000675577
0.00066671
0.000199396
0.000436003
0.000546254
0.000612207
0.000650978
0.000670674
0.000675578
0.000666716
0.000199401
0.000436007
0.000546257
0.000612208
0.000650978
0.000670674
0.000675577
0.000666715
0.000199407
0.000436011
0.00054626
0.00061221
0.000650979
0.000670673
0.000675576
0.000666713
0.000199415
0.000436017
0.000546264
0.000612213
0.00065098
0.000670673
0.000675575
0.000666711
0.000199421
0.000436022
0.000546269
0.000612216
0.000650982
0.000670674
0.000675575
0.000666709
0.000199427
0.000436027
0.000546272
0.000612218
0.000650983
0.000670674
0.000675574
0.000666709
0.00019943
0.00043603
0.000546275
0.00061222
0.000650984
0.000670675
0.000675575
0.000666708
0.000199398
0.000436003
0.000546253
0.000612205
0.000650976
0.000670672
0.000675576
0.000666713
0.000199403
0.000436006
0.000546256
0.000612207
0.000650977
0.000670672
0.000675576
0.000666712
0.000199408
0.00043601
0.000546258
0.000612208
0.000650977
0.000670672
0.000675575
0.000666712
0.000199415
0.000436016
0.000546263
0.000612211
0.000650979
0.000670672
0.000675575
0.000666711
0.000199421
0.000436021
0.000546266
0.000612214
0.00065098
0.000670673
0.000675575
0.00066671
0.000199425
0.000436024
0.000546268
0.000612215
0.000650981
0.000670673
0.000675574
0.000666709
0.000199427
0.000436025
0.00054627
0.000612216
0.000650981
0.000670673
0.000675574
0.000666709
0.000199398
0.000436
0.00054625
0.000612202
0.000650973
0.000670668
0.000675573
0.00066671
0.000199402
0.000436003
0.000546252
0.000612203
0.000650973
0.000670669
0.000675573
0.00066671
0.000199407
0.000436006
0.000546254
0.000612204
0.000650974
0.000670669
0.000675573
0.00066671
0.000199413
0.000436011
0.000546258
0.000612207
0.000650976
0.00067067
0.000675573
0.00066671
0.000199418
0.000436014
0.000546261
0.000612209
0.000650977
0.000670671
0.000675573
0.000666709
0.00019942
0.000436016
0.000546261
0.000612209
0.000650977
0.00067067
0.000675573
0.00066671
0.000199421
0.000436016
0.000546261
0.000612209
0.000650976
0.00067067
0.000675573
0.000666709
0.000199396
0.000435996
0.000546246
0.000612198
0.00065097
0.000670666
0.000675571
0.00066671
0.000199399
0.000435998
0.000546247
0.000612199
0.00065097
0.000670666
0.000675571
0.000666709
0.000199403
0.000436
0.000546249
0.0006122
0.000650971
0.000670666
0.000675571
0.000666709
0.000199409
0.000436004
0.000546252
0.000612202
0.000650972
0.000670667
0.000675571
0.000666708
0.000199413
0.000436007
0.000546253
0.000612203
0.000650972
0.000670667
0.000675571
0.000666708
0.000199413
0.000436006
0.000546253
0.000612203
0.000650972
0.000670667
0.000675571
0.000666708
0.000199414
0.000436005
0.000546252
0.000612202
0.000650971
0.000670666
0.00067557
0.000666709
0.000199615
0.000199521
0.00043588
0.000199569
0.000436102
0.000546328
0.000612223
0.00065069
0.000199506
0.000436111
0.00054636
0.000612317
0.000651041
0.000670695
0.000675618
0.00066678
0.000199452
0.000436057
0.000546303
0.000612251
0.00065101
0.000670684
0.000675563
0.000666673
0.000199518
0.000436092
0.000546326
0.000612262
0.000651017
0.000670697
0.000675586
0.000666709
0.000199523
0.000436078
0.000546324
0.00061227
0.00065103
0.000670713
0.000675606
0.000666734
0.000199507
0.000436021
0.000546279
0.000612253
0.000651032
0.000670724
0.000675616
0.00066674
0.000199566
0.000436066
0.000546283
0.000612215
0.00065099
0.0006707
0.000675617
0.000666749
0.000199512
0.000436118
0.000546377
0.000612356
0.000651051
0.000670652
0.000675569
0.000666731
0.000199471
0.000436063
0.000546307
0.000612269
0.000651041
0.000670721
0.000675608
0.000666727
0.000199446
0.000436054
0.000546299
0.00061225
0.000651023
0.000670721
0.000675629
0.000666774
0.000199504
0.00043608
0.000546316
0.000612256
0.000651017
0.000670705
0.000675603
0.000666736
0.000199506
0.000436078
0.000546312
0.00061225
0.000651008
0.000670693
0.000675589
0.00066672
0.00019951
0.000436078
0.000546314
0.000612254
0.000651011
0.000670694
0.000675587
0.000666715
0.000199506
0.000436089
0.000546323
0.000612264
0.000651023
0.000670705
0.000675595
0.000666719
0.00019948
0.000436062
0.000546304
0.000612264
0.000651039
0.000670721
0.000675613
0.000666739
0.000199461
0.000436054
0.000546291
0.000612236
0.000651005
0.000670698
0.000675599
0.000666735
0.000199437
0.000436043
0.000546288
0.000612234
0.000650998
0.000670688
0.000675586
0.000666717
0.00019949
0.000436068
0.000546304
0.000612243
0.000651002
0.000670688
0.000675584
0.000666714
0.000199494
0.000436069
0.000546304
0.000612243
0.000651002
0.000670689
0.000675586
0.000666718
0.000199493
0.000436068
0.000546303
0.000612242
0.000651002
0.000670688
0.000675585
0.000666718
0.000199483
0.000436062
0.000546299
0.00061224
0.000651002
0.000670689
0.000675587
0.00066672
0.000199468
0.000436052
0.000546289
0.000612232
0.000650998
0.000670689
0.000675588
0.000666722
0.000199448
0.000436044
0.000546287
0.000612232
0.000650997
0.000670688
0.000675588
0.000666723
0.000199427
0.000436033
0.000546281
0.00061223
0.000650999
0.000670693
0.000675596
0.000666733
0.000199477
0.000436058
0.000546296
0.000612238
0.000650999
0.000670688
0.000675586
0.00066672
0.000199479
0.000436058
0.000546295
0.000612236
0.000650997
0.000670686
0.000675584
0.000666718
0.000199477
0.000436056
0.000546294
0.000612235
0.000650996
0.000670685
0.000675583
0.000666717
0.000199468
0.000436051
0.000546291
0.000612233
0.000650995
0.000670685
0.000675584
0.000666718
0.000199454
0.000436043
0.000546285
0.000612229
0.000650994
0.000670685
0.000675586
0.000666722
0.000199436
0.000436034
0.000546279
0.000612226
0.000650993
0.000670686
0.000675589
0.000666726
0.000199419
0.000436023
0.000546272
0.000612222
0.000650991
0.000670685
0.000675589
0.000666727
0.000199466
0.000436052
0.000546292
0.000612234
0.000650997
0.000670686
0.000675585
0.000666718
0.000199468
0.000436052
0.000546292
0.000612234
0.000650996
0.000670686
0.000675585
0.000666719
0.000199465
0.000436051
0.00054629
0.000612233
0.000650996
0.000670685
0.000675585
0.000666719
0.000199457
0.000436046
0.000546287
0.00061223
0.000650994
0.000670685
0.000675586
0.000666722
0.000199444
0.000436037
0.000546281
0.000612226
0.000650992
0.000670684
0.000675587
0.000666724
0.000199428
0.000436027
0.000546273
0.000612222
0.00065099
0.000670684
0.000675588
0.000666727
0.000199413
0.000436017
0.000546266
0.000612217
0.000650988
0.000670684
0.000675589
0.000666728
0.00019946
0.000436051
0.000546292
0.000612235
0.000650998
0.000670687
0.000675586
0.000666719
0.000199461
0.000436051
0.000546292
0.000612235
0.000650998
0.000670687
0.000675586
0.00066672
0.000199458
0.000436049
0.00054629
0.000612233
0.000650997
0.000670687
0.000675587
0.000666721
0.000199451
0.000436043
0.000546285
0.000612229
0.000650994
0.000670686
0.000675588
0.000666724
0.000199438
0.000436033
0.000546277
0.000612224
0.000650991
0.000670685
0.000675588
0.000666726
0.000199423
0.000436022
0.000546269
0.000612218
0.000650988
0.000670683
0.000675588
0.000666727
0.000199408
0.000436011
0.000546261
0.000612213
0.000650985
0.000670681
0.000675587
0.000666727
0.000199454
0.000436048
0.000546291
0.000612235
0.000650998
0.000670687
0.000675586
0.000666718
0.000199455
0.000436049
0.000546291
0.000612235
0.000650999
0.000670688
0.000675587
0.00066672
0.000199451
0.000436046
0.000546288
0.000612233
0.000650997
0.000670688
0.000675588
0.000666721
0.000199444
0.000436039
0.000546282
0.000612229
0.000650995
0.000670687
0.000675588
0.000666723
0.000199431
0.000436028
0.000546274
0.000612222
0.00065099
0.000670684
0.000675588
0.000666725
0.000199418
0.000436017
0.000546265
0.000612216
0.000650986
0.000670682
0.000675587
0.000666725
0.000199404
0.000436007
0.000546258
0.000612211
0.000650982
0.00067068
0.000675586
0.000666725
0.000199445
0.000436043
0.000546287
0.000612232
0.000650995
0.000670685
0.000675583
0.000666715
0.000199446
0.000436044
0.000546288
0.000612233
0.000650997
0.000670686
0.000675584
0.000666717
0.000199442
0.000436041
0.000546286
0.000612232
0.000650996
0.000670686
0.000675585
0.000666718
0.000199435
0.000436034
0.00054628
0.000612227
0.000650993
0.000670685
0.000675585
0.00066672
0.000199424
0.000436024
0.000546271
0.000612221
0.000650989
0.000670682
0.000675585
0.000666721
0.000199412
0.000436014
0.000546263
0.000612214
0.000650984
0.00067068
0.000675584
0.000666722
0.000199402
0.000436006
0.000546257
0.00061221
0.000650981
0.000670678
0.000675583
0.000666722
0.000199437
0.000436037
0.000546282
0.000612227
0.000650991
0.00067068
0.000675579
0.000666711
0.000199438
0.000436039
0.000546283
0.000612229
0.000650992
0.000670682
0.00067558
0.000666713
0.000199435
0.000436037
0.000546282
0.000612228
0.000650992
0.000670682
0.000675581
0.000666714
0.000199429
0.000436032
0.000546278
0.000612225
0.00065099
0.000670681
0.000675581
0.000666714
0.00019942
0.000436023
0.000546271
0.00061222
0.000650987
0.000670679
0.000675581
0.000666716
0.00019941
0.000436015
0.000546264
0.000612214
0.000650983
0.000670677
0.00067558
0.000666717
0.000199402
0.000436009
0.000546259
0.00061221
0.000650981
0.000670676
0.00067558
0.000666717
0.000199433
0.000436033
0.000546277
0.000612222
0.000650986
0.000670676
0.000675575
0.000666709
0.000199433
0.000436035
0.000546279
0.000612224
0.000650987
0.000670677
0.000675576
0.000666709
0.000199432
0.000436034
0.000546279
0.000612224
0.000650988
0.000670677
0.000675576
0.000666709
0.000199427
0.000436031
0.000546276
0.000612222
0.000650987
0.000670677
0.000675577
0.00066671
0.00019942
0.000436025
0.000546271
0.000612218
0.000650985
0.000670676
0.000675577
0.000666712
0.000199412
0.000436018
0.000546266
0.000612215
0.000650983
0.000670676
0.000675578
0.000666713
0.000199405
0.000436012
0.000546261
0.000612212
0.000650981
0.000670675
0.000675578
0.000666714
0.000199429
0.000436027
0.000546271
0.000612216
0.000650981
0.000670673
0.000675573
0.000666708
0.00019943
0.000436029
0.000546272
0.000612217
0.000650982
0.000670673
0.000675573
0.000666708
0.000199429
0.000436029
0.000546273
0.000612218
0.000650983
0.000670673
0.000675573
0.000666707
0.000199425
0.000436027
0.000546271
0.000612217
0.000650983
0.000670674
0.000675574
0.000666708
0.000199419
0.000436022
0.000546268
0.000612215
0.000650982
0.000670674
0.000675575
0.00066671
0.000199412
0.000436018
0.000546265
0.000612213
0.000650981
0.000670674
0.000675576
0.000666711
0.000199407
0.000436013
0.000546261
0.000612211
0.00065098
0.000670674
0.000675576
0.000666712
0.000199423
0.000436017
0.000546262
0.000612209
0.000650976
0.000670669
0.000675572
0.000666708
0.000199423
0.000436018
0.000546263
0.00061221
0.000650976
0.000670669
0.000675571
0.000666707
0.000199423
0.000436019
0.000546264
0.000612211
0.000650977
0.00067067
0.000675571
0.000666706
0.00019942
0.000436018
0.000546263
0.000612211
0.000650978
0.00067067
0.000675572
0.000666707
0.000199414
0.000436015
0.000546261
0.00061221
0.000650977
0.000670671
0.000675573
0.000666709
0.000199409
0.000436012
0.000546259
0.000612209
0.000650978
0.000670671
0.000675574
0.00066671
0.000199405
0.000436009
0.000546258
0.000612208
0.000650977
0.000670672
0.000675574
0.000666711
0.000199415
0.000436006
0.000546252
0.000612202
0.000650971
0.000670666
0.00067557
0.000666708
0.000199416
0.000436007
0.000546253
0.000612202
0.000650971
0.000670666
0.000675569
0.000666707
0.000199416
0.000436009
0.000546255
0.000612204
0.000650972
0.000670666
0.000675569
0.000666706
0.000199413
0.000436008
0.000546255
0.000612204
0.000650972
0.000670666
0.00067557
0.000666707
0.000199408
0.000436006
0.000546253
0.000612203
0.000650972
0.000670667
0.000675571
0.000666709
0.000199404
0.000436005
0.000546253
0.000612203
0.000650973
0.000670668
0.000675572
0.00066671
0.0001994
0.000436004
0.000546253
0.000612204
0.000650974
0.000670669
0.000675573
0.000666711
0.000199351
0.000435978
0.00054625
0.000612217
0.000650999
0.000670703
0.000675612
0.000666754
0.000199357
0.000435988
0.000546258
0.000612223
0.000651004
0.000670706
0.000675613
0.00066675
0.000199364
0.000435998
0.000546265
0.000612229
0.00065101
0.000670716
0.000675629
0.000666777
0.000199372
0.000436005
0.000546266
0.000612224
0.000650997
0.000670691
0.000675591
0.000666722
0.000199382
0.000436014
0.000546277
0.000612237
0.000651014
0.000670715
0.000675624
0.000666765
0.00019939
0.000436018
0.000546278
0.000612235
0.00065101
0.000670709
0.000675617
0.00066676
0.000199404
0.000436028
0.000546286
0.000612242
0.000651012
0.000670706
0.000675606
0.000666738
0.000199352
0.00043597
0.00054624
0.000612207
0.000650989
0.000670694
0.000675605
0.000666748
0.000199356
0.000435977
0.000546244
0.000612208
0.000650989
0.000670693
0.000675604
0.000666748
0.000199362
0.000435984
0.000546248
0.00061221
0.000650987
0.000670687
0.000675593
0.00066673
0.000199369
0.000435992
0.000546255
0.000612216
0.000650996
0.000670699
0.00067561
0.000666756
0.000199377
0.000435998
0.000546257
0.000612215
0.000650989
0.000670688
0.000675595
0.000666735
0.000199387
0.000436008
0.000546265
0.000612222
0.000650995
0.000670693
0.000675598
0.000666736
0.000199399
0.000436017
0.000546273
0.000612229
0.000651002
0.000670701
0.000675608
0.000666749
0.000199355
0.000435968
0.000546235
0.000612199
0.00065098
0.000670684
0.000675595
0.000666739
0.000199359
0.000435974
0.00054624
0.000612203
0.000650983
0.000670686
0.000675596
0.000666738
0.000199364
0.000435981
0.000546245
0.000612207
0.000650987
0.00067069
0.000675601
0.000666745
0.00019937
0.000435987
0.000546247
0.000612207
0.000650985
0.000670686
0.000675593
0.000666733
0.000199377
0.000435993
0.000546252
0.000612211
0.000650988
0.000670689
0.000675598
0.00066674
0.000199385
0.000436001
0.000546258
0.000612215
0.00065099
0.000670689
0.000675598
0.000666739
0.000199398