/*--------------------------------*- C++ -*----------------------------------*\
| =========                 |                                                 |
| \\      /  F ield         | OpenFOAM: The Open Source CFD Toolbox           |
|  \\    /   O peration     | Version:  plus.master.MPPICInterFoam            |
|   \\  /    A nd           | Web:      www.OpenFOAM.com                      |
|    \\/     M anipulation  |                                                 |
\*---------------------------------------------------------------------------*/
FoamFile
{
    version     2.0;
    format      ascii;
    class       volScalarField;
    location    "1.4";
    object      nut;
}
// * * * * * * * * * * * * * * * * * * * * * * * * * * * * * * * * * * * * * //

dimensions      [0 2 -1 0 0 0 0];

internalField   nonuniform List<scalar> 
11821
(
8.39305e-06
4.50439e-05
6.43589e-05
7.50961e-05
8.11577e-05
8.41918e-05
8.49481e-05
8.3616e-05
8.39251e-06
4.50396e-05
6.43555e-05
7.50929e-05
8.1154e-05
8.41864e-05
8.49398e-05
8.36034e-05
8.39209e-06
4.50356e-05
6.43535e-05
7.5093e-05
8.11565e-05
8.41918e-05
8.49488e-05
8.3617e-05
8.39176e-06
4.5032e-05
6.43501e-05
7.50894e-05
8.1152e-05
8.41858e-05
8.49405e-05
8.36055e-05
8.39166e-06
4.50313e-05
6.43505e-05
7.50913e-05
8.11556e-05
8.41915e-05
8.49488e-05
8.36171e-05
8.39158e-06
4.50308e-05
6.43495e-05
7.50894e-05
8.11524e-05
8.41866e-05
8.49418e-05
8.36073e-05
8.39168e-06
4.50322e-05
6.4351e-05
7.50913e-05
8.1155e-05
8.41901e-05
8.49464e-05
8.36134e-05
8.39296e-06
4.50439e-05
6.43588e-05
7.50955e-05
8.11563e-05
8.41887e-05
8.49424e-05
8.36065e-05
8.39253e-06
4.50404e-05
6.43565e-05
7.50945e-05
8.11566e-05
8.41906e-05
8.49463e-05
8.36132e-05
8.39213e-06
4.50361e-05
6.43529e-05
7.50914e-05
8.11535e-05
8.41871e-05
8.49419e-05
8.36072e-05
8.39188e-06
4.50334e-05
6.43513e-05
7.5091e-05
8.11544e-05
8.41895e-05
8.4946e-05
8.36136e-05
8.3917e-06
4.50316e-05
6.43496e-05
7.50893e-05
8.11524e-05
8.41869e-05
8.49425e-05
8.36084e-05
8.39167e-06
4.50317e-05
6.43501e-05
7.50902e-05
8.11539e-05
8.41891e-05
8.49455e-05
8.36129e-05
8.39168e-06
4.50322e-05
6.43501e-05
7.50899e-05
8.11531e-05
8.41876e-05
8.49433e-05
8.36096e-05
8.39293e-06
4.50436e-05
6.43583e-05
7.50952e-05
8.11564e-05
8.41895e-05
8.49445e-05
8.36105e-05
8.39257e-06
4.50403e-05
6.43558e-05
7.50933e-05
8.11548e-05
8.4188e-05
8.49427e-05
8.36081e-05
8.39223e-06
4.50368e-05
6.43533e-05
7.50918e-05
8.11542e-05
8.41884e-05
8.49442e-05
8.36108e-05
8.39197e-06
4.5034e-05
6.4351e-05
7.509e-05
8.11528e-05
8.41871e-05
8.49427e-05
8.3609e-05
8.39183e-06
4.50326e-05
6.43501e-05
7.50897e-05
8.11531e-05
8.4188e-05
8.49442e-05
8.36113e-05
8.39176e-06
4.50322e-05
6.43498e-05
7.50893e-05
8.11525e-05
8.41872e-05
8.49431e-05
8.36096e-05
8.39179e-06
4.50328e-05
6.43503e-05
7.50898e-05
8.1153e-05
8.41877e-05
8.49438e-05
8.36106e-05
8.39289e-06
4.50428e-05
6.43573e-05
7.50942e-05
8.11553e-05
8.41884e-05
8.4943e-05
8.36085e-05
8.39257e-06
4.50402e-05
6.43554e-05
7.50929e-05
8.11546e-05
8.41882e-05
8.49434e-05
8.36094e-05
8.39227e-06
4.50372e-05
6.4353e-05
7.50911e-05
8.11533e-05
8.41873e-05
8.49427e-05
8.36089e-05
8.39206e-06
4.50347e-05
6.43512e-05
7.50901e-05
8.11528e-05
8.41873e-05
8.49433e-05
8.36099e-05
8.39192e-06
4.50333e-05
6.43501e-05
7.50893e-05
8.11523e-05
8.41869e-05
8.49429e-05
8.36095e-05
8.39187e-06
4.50329e-05
6.43499e-05
7.50892e-05
8.11524e-05
8.41871e-05
8.49432e-05
8.361e-05
8.39186e-06
4.50332e-05
6.435e-05
7.50892e-05
8.11523e-05
8.41869e-05
8.49429e-05
8.36096e-05
8.3928e-06
4.5042e-05
6.43564e-05
7.50934e-05
8.11547e-05
8.4188e-05
8.4943e-05
8.36088e-05
8.39251e-06
4.50399e-05
6.43547e-05
7.50922e-05
8.11539e-05
8.41876e-05
8.49428e-05
8.36088e-05
8.39227e-06
4.50373e-05
6.43528e-05
7.50909e-05
8.11531e-05
8.41872e-05
8.49428e-05
8.36091e-05
8.39208e-06
4.50351e-05
6.43512e-05
7.50897e-05
8.11524e-05
8.41868e-05
8.49426e-05
8.36091e-05
8.39197e-06
4.50338e-05
6.43502e-05
7.50891e-05
8.11521e-05
8.41866e-05
8.49426e-05
8.36093e-05
8.39191e-06
4.50332e-05
6.43497e-05
7.50888e-05
8.11518e-05
8.41864e-05
8.49424e-05
8.36091e-05
8.39189e-06
4.50333e-05
6.43497e-05
7.50887e-05
8.11517e-05
8.41864e-05
8.49425e-05
8.36092e-05
8.39272e-06
4.50415e-05
6.43558e-05
7.50927e-05
8.11542e-05
8.41876e-05
8.49426e-05
8.36085e-05
8.39246e-06
4.50395e-05
6.43543e-05
7.50917e-05
8.11536e-05
8.41873e-05
8.49426e-05
8.36087e-05
8.39225e-06
4.50373e-05
6.43525e-05
7.50905e-05
8.11528e-05
8.41868e-05
8.49424e-05
8.36087e-05
8.39209e-06
4.50353e-05
6.43511e-05
7.50895e-05
8.11521e-05
8.41864e-05
8.49422e-05
8.36087e-05
8.39199e-06
4.50341e-05
6.43501e-05
7.50888e-05
8.11516e-05
8.41861e-05
8.4942e-05
8.36086e-05
8.39193e-06
4.50335e-05
6.43496e-05
7.50885e-05
8.11514e-05
8.41859e-05
8.49419e-05
8.36086e-05
8.3919e-06
4.50333e-05
6.43494e-05
7.50883e-05
8.11512e-05
8.41859e-05
8.49419e-05
8.36087e-05
8.39268e-06
4.5041e-05
6.43552e-05
7.50923e-05
8.11537e-05
8.41872e-05
8.49424e-05
8.36083e-05
8.39245e-06
4.50393e-05
6.4354e-05
7.50914e-05
8.11533e-05
8.4187e-05
8.49423e-05
8.36083e-05
8.39227e-06
4.50374e-05
6.43525e-05
7.50904e-05
8.11526e-05
8.41866e-05
8.49421e-05
8.36083e-05
8.39213e-06
4.50359e-05
6.43513e-05
7.50895e-05
8.11519e-05
8.41861e-05
8.49418e-05
8.36082e-05
8.39203e-06
4.50348e-05
6.43504e-05
7.50889e-05
8.11514e-05
8.41858e-05
8.49416e-05
8.36081e-05
8.39198e-06
4.50342e-05
6.43498e-05
7.50884e-05
8.11511e-05
8.41856e-05
8.49415e-05
8.36081e-05
8.39195e-06
4.50338e-05
6.43495e-05
7.50882e-05
8.1151e-05
8.41856e-05
8.49416e-05
8.36083e-05
8.39267e-06
4.50408e-05
6.4355e-05
7.5092e-05
8.11534e-05
8.41869e-05
8.4942e-05
8.3608e-05
8.39247e-06
4.50395e-05
6.4354e-05
7.50913e-05
8.1153e-05
8.41867e-05
8.49419e-05
8.36079e-05
8.39233e-06
4.50381e-05
6.43529e-05
7.50905e-05
8.11525e-05
8.41863e-05
8.49417e-05
8.36078e-05
8.39221e-06
4.50368e-05
6.43519e-05
7.50898e-05
8.1152e-05
8.4186e-05
8.49415e-05
8.36077e-05
8.39212e-06
4.50358e-05
6.4351e-05
7.50892e-05
8.11515e-05
8.41857e-05
8.49414e-05
8.36078e-05
8.39206e-06
4.50351e-05
6.43504e-05
7.50887e-05
8.11513e-05
8.41856e-05
8.49413e-05
8.36078e-05
8.39202e-06
4.50347e-05
6.43501e-05
7.50885e-05
8.11511e-05
8.41855e-05
8.49414e-05
8.3608e-05
8.39266e-06
4.50409e-05
6.4355e-05
7.50919e-05
8.11533e-05
8.41867e-05
8.49417e-05
8.36076e-05
8.39249e-06
4.50399e-05
6.43542e-05
7.50914e-05
8.11529e-05
8.41865e-05
8.49416e-05
8.36075e-05
8.39239e-06
4.50388e-05
6.43534e-05
7.50908e-05
8.11525e-05
8.41862e-05
8.49414e-05
8.36074e-05
8.39229e-06
4.50377e-05
6.43526e-05
7.50902e-05
8.11522e-05
8.4186e-05
8.49413e-05
8.36074e-05
8.3922e-06
4.50368e-05
6.43518e-05
7.50897e-05
8.11518e-05
8.41858e-05
8.49412e-05
8.36074e-05
8.39214e-06
4.50361e-05
6.43512e-05
7.50893e-05
8.11516e-05
8.41857e-05
8.49413e-05
8.36076e-05
8.39209e-06
4.50355e-05
6.43508e-05
7.5089e-05
8.11514e-05
8.41857e-05
8.49414e-05
8.36078e-05
8.39266e-06
4.50413e-05
6.43553e-05
7.50921e-05
8.11533e-05
8.41865e-05
8.49414e-05
8.36072e-05
8.39254e-06
4.50405e-05
6.43546e-05
7.50916e-05
8.1153e-05
8.41864e-05
8.49413e-05
8.36071e-05
8.39244e-06
4.50395e-05
6.43539e-05
7.50911e-05
8.11527e-05
8.41862e-05
8.49412e-05
8.3607e-05
8.39236e-06
4.50386e-05
6.43533e-05
7.50907e-05
8.11525e-05
8.4186e-05
8.49412e-05
8.3607e-05
8.39228e-06
4.50378e-05
6.43526e-05
7.50903e-05
8.11522e-05
8.41859e-05
8.49412e-05
8.36072e-05
8.39221e-06
4.5037e-05
6.4352e-05
7.50899e-05
8.1152e-05
8.41859e-05
8.49412e-05
8.36074e-05
8.39217e-06
4.50365e-05
6.43516e-05
7.50897e-05
8.11519e-05
8.41859e-05
8.49414e-05
8.36077e-05
8.39271e-06
4.50418e-05
6.43557e-05
7.50923e-05
8.11534e-05
8.41865e-05
8.49413e-05
8.36068e-05
8.39259e-06
4.5041e-05
6.4355e-05
7.50918e-05
8.11531e-05
8.41864e-05
8.49412e-05
8.36069e-05
8.3925e-06
4.50402e-05
6.43544e-05
7.50915e-05
8.11529e-05
8.41862e-05
8.49411e-05
8.36068e-05
8.39243e-06
4.50394e-05
6.4354e-05
7.50912e-05
8.11527e-05
8.41861e-05
8.4941e-05
8.36068e-05
8.39237e-06
4.50387e-05
6.43534e-05
7.50909e-05
8.11525e-05
8.4186e-05
8.49411e-05
8.36069e-05
8.39231e-06
4.5038e-05
6.43529e-05
7.50905e-05
8.11523e-05
8.4186e-05
8.49412e-05
8.36072e-05
8.39227e-06
4.50375e-05
6.43525e-05
7.50903e-05
8.11523e-05
8.4186e-05
8.49414e-05
8.36075e-05
8.39276e-06
4.50419e-05
6.43558e-05
7.50924e-05
8.11534e-05
8.41865e-05
8.49411e-05
8.36066e-05
8.39265e-06
4.50412e-05
6.43552e-05
7.5092e-05
8.11532e-05
8.41863e-05
8.49411e-05
8.36067e-05
8.39257e-06
4.50406e-05
6.43547e-05
7.50917e-05
8.1153e-05
8.41862e-05
8.4941e-05
8.36066e-05
8.39251e-06
4.50401e-05
6.43544e-05
7.50914e-05
8.11528e-05
8.41861e-05
8.49409e-05
8.36066e-05
8.39245e-06
4.50395e-05
6.4354e-05
7.50912e-05
8.11527e-05
8.4186e-05
8.4941e-05
8.36067e-05
8.39239e-06
4.50388e-05
6.43534e-05
7.50908e-05
8.11525e-05
8.4186e-05
8.49411e-05
8.36069e-05
8.39236e-06
4.50383e-05
6.43531e-05
7.50906e-05
8.11524e-05
8.4186e-05
8.49412e-05
8.36072e-05
8.39276e-06
4.50418e-05
6.43556e-05
7.50922e-05
8.11533e-05
8.41863e-05
8.4941e-05
8.36066e-05
8.39267e-06
4.50412e-05
6.43551e-05
7.50919e-05
8.11531e-05
8.41862e-05
8.4941e-05
8.36066e-05
8.3926e-06
4.50408e-05
6.43548e-05
7.50917e-05
8.11529e-05
8.41861e-05
8.49409e-05
8.36065e-05
8.39255e-06
4.50404e-05
6.43546e-05
7.50915e-05
8.11528e-05
8.4186e-05
8.49408e-05
8.36064e-05
8.39249e-06
4.50398e-05
6.43541e-05
7.50912e-05
8.11526e-05
8.41859e-05
8.49408e-05
8.36065e-05
8.39243e-06
4.50391e-05
6.43536e-05
7.50908e-05
8.11524e-05
8.41858e-05
8.49409e-05
8.36067e-05
8.39239e-06
4.50386e-05
6.43532e-05
7.50906e-05
8.11522e-05
8.41858e-05
8.49409e-05
8.36069e-05
8.39272e-06
4.50414e-05
6.43552e-05
7.50919e-05
8.1153e-05
8.41862e-05
8.49411e-05
8.36068e-05
8.39264e-06
4.50411e-05
6.4355e-05
7.50917e-05
8.11529e-05
8.41861e-05
8.49409e-05
8.36067e-05
8.3926e-06
4.50409e-05
6.43549e-05
7.50917e-05
8.11529e-05
8.4186e-05
8.49408e-05
8.36065e-05
8.39257e-06
4.50406e-05
6.43547e-05
7.50915e-05
8.11527e-05
8.41859e-05
8.49407e-05
8.36063e-05
8.39251e-06
4.504e-05
6.43542e-05
7.50912e-05
8.11525e-05
8.41858e-05
8.49407e-05
8.36064e-05
8.39244e-06
4.50393e-05
6.43536e-05
7.50907e-05
8.11522e-05
8.41857e-05
8.49407e-05
8.36066e-05
8.39239e-06
4.50387e-05
6.43531e-05
7.50903e-05
8.1152e-05
8.41856e-05
8.49408e-05
8.36068e-05
8.39306e-06
4.50436e-05
6.43584e-05
7.50955e-05
8.11568e-05
8.41901e-05
8.49449e-05
8.36106e-05
8.39338e-06
4.5045e-05
6.43594e-05
7.50957e-05
8.11555e-05
8.41883e-05
8.49425e-05
8.36082e-05
8.39391e-06
4.5047e-05
6.43594e-05
7.50893e-05
8.1146e-05
8.39483e-06
4.50509e-05
8.39563e-06
8.39297e-06
4.50434e-05
6.43581e-05
7.50951e-05
8.11563e-05
8.41893e-05
8.49438e-05
8.36091e-05
8.39331e-06
4.5045e-05
6.43598e-05
7.50967e-05
8.11573e-05
8.41896e-05
8.49437e-05
8.36083e-05
8.39373e-06
4.50475e-05
6.43624e-05
7.50976e-05
8.11533e-05
8.41845e-05
8.49391e-05
8.36053e-05
8.3942e-06
4.50479e-05
6.4362e-05
7.50979e-05
8.11577e-05
8.41899e-05
8.49443e-05
8.36099e-05
8.39457e-06
4.505e-05
6.43637e-05
7.50985e-05
8.11576e-05
8.41889e-05
8.49419e-05
8.36059e-05
8.39494e-06
4.50505e-05
6.43642e-05
7.50991e-05
8.11586e-05
8.41904e-05
8.49439e-05
8.36081e-05
8.3952e-06
4.5051e-05
6.43644e-05
7.50991e-05
8.11586e-05
8.41907e-05
8.49448e-05
8.361e-05
8.39295e-06
4.5043e-05
6.43573e-05
7.50943e-05
8.11555e-05
8.41887e-05
8.49434e-05
8.36091e-05
8.39325e-06
4.50441e-05
6.43584e-05
7.50951e-05
8.11562e-05
8.4189e-05
8.49435e-05
8.36088e-05
8.39358e-06
4.50458e-05
6.43604e-05
7.50972e-05
8.11576e-05
8.41895e-05
8.49436e-05
8.36089e-05
8.39398e-06
4.5047e-05
6.43611e-05
7.50971e-05
8.11572e-05
8.41892e-05
8.49428e-05
8.36074e-05
8.39434e-06
4.50483e-05
6.43623e-05
7.50979e-05
8.11579e-05
8.41901e-05
8.49441e-05
8.36092e-05
8.39465e-06
4.50491e-05
6.43628e-05
7.5098e-05
8.11576e-05
8.41894e-05
8.4943e-05
8.36076e-05
8.3949e-06
4.50499e-05
6.43634e-05
7.50983e-05
8.11577e-05
8.41891e-05
8.49422e-05
8.36062e-05
8.39293e-06
4.50422e-05
6.43565e-05
7.50935e-05
8.11548e-05
8.41881e-05
8.4943e-05
8.36087e-05
8.3932e-06
4.50433e-05
6.43574e-05
7.5094e-05
8.1155e-05
8.41881e-05
8.49427e-05
8.36083e-05
8.39349e-06
4.50445e-05
6.43585e-05
7.50949e-05
8.11556e-05
8.41883e-05
8.49426e-05
8.36079e-05
8.39383e-06
4.50458e-05
6.43598e-05
7.50957e-05
8.11561e-05
8.41886e-05
8.49428e-05
8.36081e-05
8.39414e-06
4.50469e-05
6.43607e-05
7.50963e-05
8.11563e-05
8.41884e-05
8.49423e-05
8.36071e-05
8.39442e-06
4.50478e-05
6.43616e-05
7.50971e-05
8.11569e-05
8.41889e-05
8.49426e-05
8.36074e-05
8.39466e-06
4.50486e-05
6.43622e-05
7.50974e-05
8.11571e-05
8.4189e-05
8.49428e-05
8.36078e-05
8.39286e-06
4.50416e-05
6.43559e-05
7.50929e-05
8.11544e-05
8.41878e-05
8.49428e-05
8.36086e-05
8.3931e-06
4.50427e-05
6.43568e-05
7.50935e-05
8.11546e-05
8.41878e-05
8.49426e-05
8.36082e-05
8.39335e-06
4.50438e-05
6.43576e-05
7.5094e-05
8.11549e-05
8.41877e-05
8.49423e-05
8.36078e-05
8.39364e-06
4.50448e-05
6.43586e-05
7.50947e-05
8.11552e-05
8.41878e-05
8.49421e-05
8.36074e-05
8.39393e-06
4.50458e-05
6.43596e-05
7.50954e-05
8.11557e-05
8.41881e-05
8.49424e-05
8.36076e-05
8.39418e-06
4.50467e-05
6.43604e-05
7.50959e-05
8.11559e-05
8.41881e-05
8.49422e-05
8.36072e-05
8.3944e-06
4.50474e-05
6.4361e-05
7.50963e-05
8.11561e-05
8.41882e-05
8.4942e-05
8.3607e-05
8.39279e-06
4.50413e-05
6.43555e-05
7.50926e-05
8.11541e-05
8.41875e-05
8.49425e-05
8.36083e-05
8.393e-06
4.50423e-05
6.43563e-05
7.50931e-05
8.11543e-05
8.41875e-05
8.49424e-05
8.36081e-05
8.39322e-06
4.50432e-05
6.43571e-05
7.50936e-05
8.11545e-05
8.41875e-05
8.49422e-05
8.36078e-05
8.39348e-06
4.50442e-05
6.4358e-05
7.50942e-05
8.11548e-05
8.41876e-05
8.49421e-05
8.36076e-05
8.39375e-06
4.50451e-05
6.43589e-05
7.50948e-05
8.11552e-05
8.41877e-05
8.49421e-05
8.36074e-05
8.394e-06
4.5046e-05
6.43597e-05
7.50954e-05
8.11556e-05
8.41879e-05
8.49421e-05
8.36073e-05
8.39419e-06
4.50467e-05
6.43604e-05
7.50959e-05
8.11559e-05
8.41881e-05
8.49421e-05
8.36072e-05
8.39276e-06
4.50411e-05
6.43553e-05
7.50924e-05
8.11538e-05
8.41871e-05
8.49421e-05
8.36078e-05
8.39294e-06
4.50421e-05
6.43561e-05
7.50928e-05
8.1154e-05
8.41872e-05
8.4942e-05
8.36077e-05
8.39314e-06
4.50429e-05
6.43568e-05
7.50933e-05
8.11542e-05
8.41873e-05
8.4942e-05
8.36076e-05
8.3934e-06
4.50438e-05
6.43576e-05
7.50938e-05
8.11546e-05
8.41874e-05
8.4942e-05
8.36074e-05
8.39366e-06
4.50448e-05
6.43585e-05
7.50945e-05
8.1155e-05
8.41876e-05
8.4942e-05
8.36073e-05
8.39388e-06
4.50456e-05
6.43594e-05
7.50952e-05
8.11555e-05
8.41879e-05
8.49421e-05
8.36073e-05
8.39405e-06
4.50464e-05
6.43601e-05
7.50957e-05
8.11558e-05
8.41881e-05
8.49421e-05
8.36072e-05
8.39276e-06
4.50411e-05
6.43551e-05
7.50921e-05
8.11534e-05
8.41867e-05
8.49417e-05
8.36075e-05
8.39292e-06
4.50419e-05
6.43558e-05
7.50925e-05
8.11537e-05
8.41868e-05
8.49416e-05
8.36073e-05
8.39311e-06
4.50426e-05
6.43564e-05
7.50929e-05
8.11539e-05
8.41869e-05
8.49416e-05
8.36072e-05
8.39335e-06
4.50434e-05
6.43572e-05
7.50935e-05
8.11543e-05
8.41871e-05
8.49416e-05
8.36071e-05
8.39358e-06
4.50443e-05
6.43581e-05
7.50942e-05
8.11547e-05
8.41874e-05
8.49417e-05
8.3607e-05
8.39378e-06
4.50452e-05
6.4359e-05
7.50949e-05
8.11553e-05
8.41877e-05
8.49419e-05
8.3607e-05
8.39393e-06
4.5046e-05
6.43598e-05
7.50955e-05
8.11557e-05
8.4188e-05
8.4942e-05
8.3607e-05
8.39275e-06
4.50411e-05
6.43551e-05
7.5092e-05
8.11533e-05
8.41866e-05
8.49415e-05
8.36073e-05
8.39289e-06
4.50418e-05
6.43556e-05
7.50923e-05
8.11534e-05
8.41866e-05
8.49414e-05
8.3607e-05
8.39306e-06
4.50424e-05
6.43561e-05
7.50926e-05
8.11536e-05
8.41866e-05
8.49413e-05
8.36068e-05
8.39327e-06
4.50431e-05
6.43569e-05
7.50932e-05
8.11539e-05
8.41867e-05
8.49412e-05
8.36066e-05
8.39347e-06
4.50439e-05
6.43577e-05
7.50938e-05
8.11544e-05
8.4187e-05
8.49413e-05
8.36065e-05
8.39363e-06
4.50447e-05
6.43585e-05
7.50945e-05
8.11548e-05
8.41873e-05
8.49414e-05
8.36065e-05
8.39375e-06
4.50454e-05
6.43592e-05
7.50951e-05
8.11553e-05
8.41876e-05
8.49416e-05
8.36065e-05
8.39275e-06
4.50413e-05
6.43552e-05
7.50921e-05
8.11533e-05
8.41865e-05
8.49414e-05
8.36072e-05
8.39287e-06
4.50418e-05
6.43557e-05
7.50923e-05
8.11534e-05
8.41865e-05
8.49413e-05
8.36069e-05
8.393e-06
4.50424e-05
6.43561e-05
7.50926e-05
8.11535e-05
8.41864e-05
8.49411e-05
8.36067e-05
8.39318e-06
4.50431e-05
6.43568e-05
7.5093e-05
8.11537e-05
8.41865e-05
8.4941e-05
8.36063e-05
8.39335e-06
4.50438e-05
6.43575e-05
7.50936e-05
8.11541e-05
8.41866e-05
8.49409e-05
8.36061e-05
8.39349e-06
4.50444e-05
6.43581e-05
7.50941e-05
8.11544e-05
8.41868e-05
8.4941e-05
8.36061e-05
8.39359e-06
4.50449e-05
6.43587e-05
7.50945e-05
8.11548e-05
8.41871e-05
8.49411e-05
8.36061e-05
8.39277e-06
4.50414e-05
6.43554e-05
7.50921e-05
8.11533e-05
8.41865e-05
8.49412e-05
8.36069e-05
8.39288e-06
4.50419e-05
6.43558e-05
7.50924e-05
8.11534e-05
8.41864e-05
8.49412e-05
8.36068e-05
8.393e-06
4.50424e-05
6.43562e-05
7.50926e-05
8.11535e-05
8.41864e-05
8.4941e-05
8.36066e-05
8.39316e-06
4.50431e-05
6.43568e-05
7.5093e-05
8.11537e-05
8.41864e-05
8.49409e-05
8.36063e-05
8.39331e-06
4.50437e-05
6.43574e-05
7.50934e-05
8.11539e-05
8.41865e-05
8.49408e-05
8.36061e-05
8.39341e-06
4.50442e-05
6.43578e-05
7.50938e-05
8.11541e-05
8.41866e-05
8.49408e-05
8.3606e-05
8.39349e-06
4.50445e-05
6.43582e-05
7.5094e-05
8.11543e-05
8.41867e-05
8.49408e-05
8.36059e-05
8.3928e-06
4.50414e-05
6.43553e-05
7.50919e-05
8.11531e-05
8.41862e-05
8.49409e-05
8.36065e-05
8.3929e-06
4.50418e-05
6.43556e-05
7.50922e-05
8.11532e-05
8.41862e-05
8.49409e-05
8.36065e-05
8.39302e-06
4.50423e-05
6.4356e-05
7.50924e-05
8.11533e-05
8.41863e-05
8.49409e-05
8.36064e-05
8.39317e-06
4.50429e-05
6.43566e-05
7.50928e-05
8.11536e-05
8.41863e-05
8.49408e-05
8.36063e-05
8.39329e-06
4.50434e-05
6.43571e-05
7.50932e-05
8.11537e-05
8.41864e-05
8.49408e-05
8.36061e-05
8.39337e-06
4.50437e-05
6.43573e-05
7.50933e-05
8.11538e-05
8.41864e-05
8.49407e-05
8.3606e-05
8.39342e-06
4.5044e-05
6.43575e-05
7.50934e-05
8.11538e-05
8.41864e-05
8.49407e-05
8.3606e-05
8.39279e-06
4.50411e-05
6.43549e-05
7.50915e-05
8.11527e-05
8.41858e-05
8.49406e-05
8.36062e-05
8.39288e-06
4.50415e-05
6.43551e-05
7.50917e-05
8.11528e-05
8.41859e-05
8.49406e-05
8.36062e-05
8.39298e-06
4.50419e-05
6.43555e-05
7.50919e-05
8.11529e-05
8.41859e-05
8.49406e-05
8.36062e-05
8.39311e-06
4.50424e-05
6.4356e-05
7.50923e-05
8.11532e-05
8.4186e-05
8.49406e-05
8.36061e-05
8.39321e-06
4.50428e-05
6.43564e-05
7.50926e-05
8.11533e-05
8.41861e-05
8.49406e-05
8.36061e-05
8.39326e-06
4.5043e-05
6.43565e-05
7.50926e-05
8.11533e-05
8.41861e-05
8.49406e-05
8.36061e-05
8.39328e-06
4.5043e-05
6.43565e-05
7.50926e-05
8.11533e-05
8.4186e-05
8.49406e-05
8.3606e-05
8.39274e-06
4.50408e-05
6.43545e-05
7.50912e-05
8.11523e-05
8.41856e-05
8.49405e-05
8.36062e-05
8.39281e-06
4.50411e-05
6.43547e-05
7.50913e-05
8.11524e-05
8.41856e-05
8.49404e-05
8.36062e-05
8.3929e-06
4.50414e-05
6.4355e-05
7.50915e-05
8.11525e-05
8.41856e-05
8.49404e-05
8.36061e-05
8.39302e-06
4.50418e-05
6.43554e-05
7.50917e-05
8.11527e-05
8.41856e-05
8.49403e-05
8.3606e-05
8.3931e-06
4.50421e-05
6.43556e-05
7.50919e-05
8.11527e-05
8.41857e-05
8.49403e-05
8.36059e-05
8.39312e-06
4.50421e-05
6.43556e-05
7.50918e-05
8.11527e-05
8.41856e-05
8.49403e-05
8.3606e-05
8.39312e-06
4.50421e-05
6.43555e-05
7.50917e-05
8.11526e-05
8.41856e-05
8.49403e-05
8.3606e-05
8.4077e-06
8.39557e-06
4.502e-05
8.39577e-06
4.50473e-05
6.43596e-05
7.50829e-05
8.11063e-05
8.39487e-06
4.50537e-05
6.43685e-05
7.51042e-05
8.11573e-05
8.41848e-05
8.49417e-05
8.36106e-05
8.39387e-06
4.5047e-05
6.43611e-05
7.50969e-05
8.11561e-05
8.41864e-05
8.4938e-05
8.36004e-05
8.3956e-06
4.50511e-05
6.43643e-05
7.50985e-05
8.11571e-05
8.41879e-05
8.49405e-05
8.3604e-05
8.39631e-06
4.50487e-05
6.43629e-05
7.50988e-05
8.11584e-05
8.41898e-05
8.49429e-05
8.36071e-05
8.39485e-06
4.50388e-05
6.43551e-05
7.50947e-05
8.11575e-05
8.41904e-05
8.49437e-05
8.36076e-05
8.39551e-06
4.5042e-05
6.43551e-05
7.50897e-05
8.11511e-05
8.41864e-05
8.49434e-05
8.36088e-05
8.39498e-06
4.50552e-05
6.43711e-05
7.51087e-05
8.11567e-05
8.4178e-05
8.49345e-05
8.36042e-05
8.39439e-06
4.50488e-05
6.43632e-05
7.51009e-05
8.11615e-05
8.41919e-05
8.49446e-05
8.36081e-05
8.39377e-06
4.50468e-05
6.4361e-05
7.50976e-05
8.11588e-05
8.4192e-05
8.4947e-05
8.36133e-05
8.39509e-06
4.50505e-05
6.43639e-05
7.50988e-05
8.11582e-05
8.41901e-05
8.49438e-05
8.36088e-05
8.39504e-06
4.50503e-05
6.43636e-05
7.50982e-05
8.11573e-05
8.41888e-05
8.49422e-05
8.36067e-05
8.39496e-06
4.50498e-05
6.43631e-05
7.50982e-05
8.11576e-05
8.41889e-05
8.49421e-05
8.36064e-05
8.39501e-06
4.50517e-05
6.43644e-05
7.50993e-05
8.11587e-05
8.419e-05
8.49429e-05
8.36068e-05
8.39463e-06
4.5049e-05
6.43631e-05
7.51005e-05
8.11613e-05
8.4192e-05
8.49452e-05
8.36094e-05
8.39414e-06
4.50473e-05
6.43605e-05
7.50963e-05
8.1157e-05
8.41896e-05
8.49438e-05
8.36091e-05
8.39359e-06
4.50458e-05
6.43598e-05
7.50957e-05
8.11561e-05
8.41884e-05
8.49423e-05
8.36071e-05
8.39484e-06
4.50491e-05
6.43624e-05
7.50973e-05
8.11567e-05
8.41884e-05
8.4942e-05
8.36066e-05
8.3949e-06
4.50493e-05
6.43625e-05
7.50973e-05
8.11567e-05
8.41885e-05
8.49422e-05
8.3607e-05
8.39488e-06
4.50493e-05
6.43625e-05
7.50972e-05
8.11567e-05
8.41884e-05
8.4942e-05
8.36068e-05
8.39468e-06
4.50488e-05
6.4362e-05
7.5097e-05
8.11567e-05
8.41886e-05
8.49423e-05
8.36072e-05
8.39432e-06
4.50474e-05
6.43605e-05
7.50959e-05
8.11562e-05
8.41885e-05
8.49425e-05
8.36075e-05
8.39385e-06
4.50463e-05
6.43599e-05
7.50956e-05
8.11559e-05
8.41883e-05
8.49425e-05
8.36077e-05
8.3934e-06
4.50446e-05
6.43588e-05
7.50952e-05
8.1156e-05
8.41889e-05
8.49435e-05
8.3609e-05
8.39454e-06
4.50479e-05
6.43614e-05
7.50965e-05
8.11563e-05
8.41883e-05
8.49422e-05
8.36073e-05
8.39457e-06
4.5048e-05
6.43613e-05
7.50964e-05
8.11561e-05
8.41881e-05
8.4942e-05
8.3607e-05
8.39452e-06
4.50479e-05
6.43612e-05
7.50963e-05
8.1156e-05
8.4188e-05
8.49419e-05
8.36069e-05
8.39433e-06
4.50474e-05
6.43607e-05
7.5096e-05
8.11558e-05
8.4188e-05
8.4942e-05
8.36071e-05
8.39399e-06
4.50464e-05
6.43599e-05
7.50954e-05
8.11555e-05
8.4188e-05
8.49422e-05
8.36075e-05
8.39359e-06
4.50451e-05
6.43589e-05
7.50948e-05
8.11554e-05
8.41881e-05
8.49426e-05
8.36082e-05
8.39321e-06
4.50436e-05
6.43577e-05
7.50941e-05
8.1155e-05
8.4188e-05
8.49427e-05
8.36083e-05
8.3943e-06
4.50471e-05
6.43607e-05
7.5096e-05
8.11559e-05
8.41881e-05
8.49421e-05
8.36071e-05
8.39432e-06
4.50473e-05
6.43608e-05
7.50961e-05
8.11559e-05
8.41881e-05
8.49421e-05
8.36071e-05
8.39425e-06
4.50471e-05
6.43606e-05
7.50959e-05
8.11558e-05
8.4188e-05
8.49421e-05
8.36072e-05
8.39407e-06
4.50466e-05
6.43601e-05
7.50955e-05
8.11556e-05
8.4188e-05
8.49422e-05
8.36075e-05
8.39378e-06
4.50456e-05
6.43592e-05
7.50949e-05
8.11553e-05
8.41879e-05
8.49424e-05
8.36079e-05
8.39341e-06
4.50444e-05
6.43581e-05
7.50942e-05
8.11549e-05
8.41878e-05
8.49425e-05
8.36082e-05
8.39307e-06
4.50429e-05
6.43569e-05
7.50935e-05
8.11546e-05
8.41877e-05
8.49426e-05
8.36084e-05
8.39415e-06
4.50468e-05
6.43605e-05
7.5096e-05
8.1156e-05
8.41882e-05
8.49422e-05
8.36072e-05
8.39416e-06
4.50469e-05
6.43606e-05
7.5096e-05
8.1156e-05
8.41882e-05
8.49422e-05
8.36072e-05
8.39409e-06
4.50467e-05
6.43603e-05
7.50958e-05
8.11559e-05
8.41882e-05
8.49423e-05
8.36075e-05
8.39392e-06
4.5046e-05
6.43596e-05
7.50953e-05
8.11556e-05
8.41881e-05
8.49424e-05
8.36078e-05
8.39363e-06
4.5045e-05
6.43586e-05
7.50945e-05
8.11551e-05
8.41879e-05
8.49425e-05
8.36081e-05
8.39329e-06
4.50437e-05
6.43575e-05
7.50937e-05
8.11546e-05
8.41877e-05
8.49425e-05
8.36083e-05
8.39297e-06
4.50423e-05
6.43563e-05
7.5093e-05
8.11542e-05
8.41875e-05
8.49424e-05
8.36083e-05
8.39401e-06
4.50464e-05
6.43602e-05
7.50959e-05
8.1156e-05
8.41882e-05
8.49421e-05
8.3607e-05
8.39401e-06
4.50465e-05
6.43603e-05
7.5096e-05
8.11561e-05
8.41883e-05
8.49423e-05
8.36072e-05
8.39393e-06
4.50462e-05
6.436e-05
7.50957e-05
8.1156e-05
8.41883e-05
8.49424e-05
8.36075e-05
8.39375e-06
4.50455e-05
6.43592e-05
7.50951e-05
8.11556e-05
8.41881e-05
8.49425e-05
8.36078e-05
8.39348e-06
4.50444e-05
6.43581e-05
7.50943e-05
8.1155e-05
8.41879e-05
8.49425e-05
8.3608e-05
8.39317e-06
4.50431e-05
6.4357e-05
7.50934e-05
8.11544e-05
8.41875e-05
8.49424e-05
8.36081e-05
8.39289e-06
4.50419e-05
6.43559e-05
7.50926e-05
8.11539e-05
8.41872e-05
8.49422e-05
8.36081e-05
8.39382e-06
4.50459e-05
6.43597e-05
7.50955e-05
8.11557e-05
8.41879e-05
8.49418e-05
8.36067e-05
8.39381e-06
4.5046e-05
6.43599e-05
7.50957e-05
8.11558e-05
8.41881e-05
8.4942e-05
8.36069e-05
8.39374e-06
4.50458e-05
6.43596e-05
7.50955e-05
8.11557e-05
8.41881e-05
8.49421e-05
8.36071e-05
8.39357e-06
4.50451e-05
6.43589e-05
7.50949e-05
8.11554e-05
8.41879e-05
8.49421e-05
8.36073e-05
8.39332e-06
4.5044e-05
6.43578e-05
7.50941e-05
8.11548e-05
8.41876e-05
8.49421e-05
8.36075e-05
8.39306e-06
4.50429e-05
6.43567e-05
7.50932e-05
8.11542e-05
8.41873e-05
8.4942e-05
8.36076e-05
8.39284e-06
4.50418e-05
6.43558e-05
7.50925e-05
8.11537e-05
8.4187e-05
8.49419e-05
8.36076e-05
8.39364e-06
4.50453e-05
6.43591e-05
7.50949e-05
8.11551e-05
8.41873e-05
8.49413e-05
8.36062e-05
8.39364e-06
4.50455e-05
6.43593e-05
7.50951e-05
8.11553e-05
8.41875e-05
8.49415e-05
8.36064e-05
8.39358e-06
4.50454e-05
6.43592e-05
7.5095e-05
8.11553e-05
8.41875e-05
8.49416e-05
8.36065e-05
8.39344e-06
4.50448e-05
6.43586e-05
7.50946e-05
8.1155e-05
8.41874e-05
8.49416e-05
8.36067e-05
8.39323e-06
4.5044e-05
6.43577e-05
7.50939e-05
8.11545e-05
8.41872e-05
8.49416e-05
8.36069e-05
8.39302e-06
4.5043e-05
6.43568e-05
7.50932e-05
8.11541e-05
8.4187e-05
8.49416e-05
8.3607e-05
8.39285e-06
4.50421e-05
6.4356e-05
7.50926e-05
8.11537e-05
8.41868e-05
8.49415e-05
8.36071e-05
8.39354e-06
4.50449e-05
6.43585e-05
7.50943e-05
8.11545e-05
8.41868e-05
8.49409e-05
8.36059e-05
8.39355e-06
4.5045e-05
6.43587e-05
7.50945e-05
8.11546e-05
8.41869e-05
8.4941e-05
8.3606e-05
8.3935e-06
4.5045e-05
6.43587e-05
7.50945e-05
8.11547e-05
8.4187e-05
8.4941e-05
8.3606e-05
8.3934e-06
4.50446e-05
6.43583e-05
7.50942e-05
8.11546e-05
8.41869e-05
8.49411e-05
8.36062e-05
8.39323e-06
4.50439e-05
6.43577e-05
7.50937e-05
8.11543e-05
8.41869e-05
8.49412e-05
8.36064e-05
8.39306e-06
4.50432e-05
6.43569e-05
7.50932e-05
8.1154e-05
8.41867e-05
8.49412e-05
8.36066e-05
8.39291e-06
4.50424e-05
6.43563e-05
7.50928e-05
8.11537e-05
8.41866e-05
8.49412e-05
8.36067e-05
8.39346e-06
4.50442e-05
6.43577e-05
7.50935e-05
8.11539e-05
8.41864e-05
8.49406e-05
8.36059e-05
8.39347e-06
4.50443e-05
6.43579e-05
7.50937e-05
8.1154e-05
8.41864e-05
8.49406e-05
8.36058e-05
8.39344e-06
4.50443e-05
6.43579e-05
7.50938e-05
8.11541e-05
8.41865e-05
8.49406e-05
8.36058e-05
8.39335e-06
4.50441e-05
6.43577e-05
7.50936e-05
8.1154e-05
8.41865e-05
8.49407e-05
8.36059e-05
8.39321e-06
4.50436e-05
6.43573e-05
7.50934e-05
8.11539e-05
8.41865e-05
8.49409e-05
8.36062e-05
8.39306e-06
4.5043e-05
6.43568e-05
7.5093e-05
8.11538e-05
8.41865e-05
8.4941e-05
8.36063e-05
8.39294e-06
4.50424e-05
6.43563e-05
7.50927e-05
8.11536e-05
8.41865e-05
8.4941e-05
8.36064e-05
8.39331e-06
4.50432e-05
6.43566e-05
7.50926e-05
8.11532e-05
8.4186e-05
8.49405e-05
8.36059e-05
8.39332e-06
4.50433e-05
6.43567e-05
7.50927e-05
8.11533e-05
8.4186e-05
8.49404e-05
8.36058e-05
8.39331e-06
4.50434e-05
6.43569e-05
7.50929e-05
8.11534e-05
8.4186e-05
8.49404e-05
8.36057e-05
8.39323e-06
4.50432e-05
6.43568e-05
7.50928e-05
8.11534e-05
8.41861e-05
8.49405e-05
8.36058e-05
8.3931e-06
4.50429e-05
6.43565e-05
7.50927e-05
8.11534e-05
8.41861e-05
8.49406e-05
8.36061e-05
8.39298e-06
4.50425e-05
6.43562e-05
7.50925e-05
8.11534e-05
8.41862e-05
8.49408e-05
8.36062e-05
8.39289e-06
4.5042e-05
6.43559e-05
7.50924e-05
8.11533e-05
8.41862e-05
8.49408e-05
8.36063e-05
8.39314e-06
4.50422e-05
6.43555e-05
7.50917e-05
8.11526e-05
8.41855e-05
8.49402e-05
8.36059e-05
8.39316e-06
4.50423e-05
6.43557e-05
7.50918e-05
8.11526e-05
8.41855e-05
8.49402e-05
8.36058e-05
8.39316e-06
4.50425e-05
6.43559e-05
7.5092e-05
8.11527e-05
8.41855e-05
8.49401e-05
8.36057e-05
8.3931e-06
4.50424e-05
6.43558e-05
7.5092e-05
8.11528e-05
8.41856e-05
8.49402e-05
8.36057e-05
8.39298e-06
4.50421e-05
6.43556e-05
7.50919e-05
8.11527e-05
8.41857e-05
8.49404e-05
8.3606e-05
8.39289e-06
4.50419e-05
6.43555e-05
7.50919e-05
8.11528e-05
8.41858e-05
8.49405e-05
8.36062e-05
8.3928e-06
4.50416e-05
6.43554e-05
7.50919e-05
8.11529e-05
8.41859e-05
8.49407e-05
8.36063e-05
8.39174e-06
4.50335e-05
6.43513e-05
7.50908e-05
8.11538e-05
8.41881e-05
8.49437e-05
8.361e-05
8.3919e-06
4.50357e-05
6.43528e-05
7.50918e-05
8.11545e-05
8.41885e-05
8.49437e-05
8.36094e-05
8.39206e-06
4.50379e-05
6.43542e-05
7.50929e-05
8.11554e-05
8.41898e-05
8.49458e-05
8.36128e-05
8.39229e-06
4.50395e-05
6.43549e-05
7.50925e-05
8.11539e-05
8.41869e-05
8.49411e-05
8.3606e-05
8.39252e-06
4.50411e-05
6.43564e-05
7.50942e-05
8.11561e-05
8.41899e-05
8.49452e-05
8.36113e-05
8.39271e-06
4.50418e-05
6.43567e-05
7.5094e-05
8.11556e-05
8.41891e-05
8.49444e-05
8.36107e-05
8.39297e-06
4.50429e-05
6.43578e-05
7.50948e-05
8.11559e-05
8.41886e-05
8.49429e-05
8.36079e-05
8.39176e-06
4.50336e-05
6.43512e-05
7.50908e-05
8.1154e-05
8.41885e-05
8.49443e-05
8.36108e-05
8.39187e-06
4.50351e-05
6.43521e-05
7.50912e-05
8.11541e-05
8.41885e-05
8.49443e-05
8.36108e-05
8.39201e-06
4.50369e-05
6.43531e-05
7.50916e-05
8.1154e-05
8.41878e-05
8.49429e-05
8.36085e-05
8.3922e-06
4.50386e-05
6.43543e-05
7.50926e-05
8.1155e-05
8.41892e-05
8.49449e-05
8.36116e-05
8.39238e-06
4.50397e-05
6.43548e-05
7.50925e-05
8.11544e-05
8.4188e-05
8.49431e-05
8.3609e-05
8.39261e-06
4.50411e-05
6.4356e-05
7.50935e-05
8.11551e-05
8.41886e-05
8.49435e-05
8.36092e-05
8.39288e-06
4.50422e-05
6.43571e-05
7.50945e-05
8.11561e-05
8.41896e-05
8.49447e-05
8.36108e-05
8.39184e-06
4.50338e-05
6.43509e-05
7.50902e-05
8.11531e-05
8.41876e-05
8.49434e-05
8.361e-05
8.39194e-06
4.50352e-05
6.43518e-05
7.50908e-05
8.11536e-05
8.41879e-05
8.49435e-05
8.36098e-05
8.39207e-06
4.50366e-05
6.43527e-05
7.50914e-05
8.11541e-05
8.41884e-05
8.49441e-05
8.36106e-05
8.39221e-06
4.50379e-05
6.43534e-05
7.50917e-05
8.1154e-05
8.41879e-05
8.49432e-05
8.36092e-05
8.39239e-06
4.50391e-05
6.43543e-05
7.50923e-05
8.11544e-05
8.41884e-05
8.49438e-05
8.361e-05
8.39259e-06
4.50403e-05
6.43552e-05
7.50928e-05
8.11547e-05
8.41884e-05
8.49437e-05
8.36099e-05
8.39287e-06
4.50415e-05
6.43561e-05