/*--------------------------------*- C++ -*----------------------------------*\
| =========                 |                                                 |
| \\      /  F ield         | OpenFOAM: The Open Source CFD Toolbox           |
|  \\    /   O peration     | Version:  plus.master.MPPICInterFoam            |
|   \\  /    A nd           | Web:      www.OpenFOAM.com                      |
|    \\/     M anipulation  |                                                 |
\*---------------------------------------------------------------------------*/
FoamFile
{
    version     2.0;
    format      ascii;
    class       volScalarField;
    location    "13";
    object      nut;
}
// * * * * * * * * * * * * * * * * * * * * * * * * * * * * * * * * * * * * * //

dimensions      [0 2 -1 0 0 0 0];

internalField   nonuniform List<scalar> 
11821
(
4.39108e-06
2.02627e-05
3.61732e-05
4.64254e-05
5.21654e-05
5.45562e-05
5.42648e-05
5.15803e-05
4.44121e-06
2.05841e-05
3.66823e-05
4.70734e-05
5.28986e-05
5.53276e-05
5.50381e-05
5.23248e-05
4.49122e-06
2.08371e-05
3.70862e-05
4.76044e-05
5.3496e-05
5.59469e-05
5.56486e-05
5.29022e-05
4.48888e-06
2.10083e-05
3.7374e-05
4.79184e-05
5.38345e-05
5.63039e-05
5.60119e-05
5.32565e-05
4.47618e-06
2.10314e-05
3.74405e-05
4.79833e-05
5.38889e-05
5.6353e-05
5.60595e-05
5.33026e-05
4.45832e-06
2.09576e-05
3.73214e-05
4.7805e-05
5.36633e-05
5.60983e-05
5.57924e-05
5.30378e-05
4.43485e-06
2.08233e-05
3.70669e-05
4.7429e-05
5.31861e-05
5.55493e-05
5.52017e-05
5.24362e-05
4.46323e-06
2.14348e-05
3.80334e-05
4.87067e-05
5.47236e-05
5.72742e-05
5.70382e-05
5.43067e-05
4.50934e-06
2.17009e-05
3.84746e-05
4.92813e-05
5.53819e-05
5.79743e-05
5.77462e-05
5.49935e-05
4.5568e-06
2.18982e-05
3.88137e-05
4.97484e-05
5.59161e-05
5.8535e-05
5.83037e-05
5.55244e-05
4.55518e-06
2.2067e-05
3.90799e-05
5.00389e-05
5.62314e-05
5.88716e-05
5.865e-05
5.58658e-05
4.54326e-06
2.21003e-05
3.91532e-05
5.0114e-05
5.63024e-05
5.89388e-05
5.87164e-05
5.59315e-05
4.52676e-06
2.2045e-05
3.90624e-05
4.99733e-05
5.61201e-05
5.87307e-05
5.84975e-05
5.57144e-05
4.50625e-06
2.19403e-05
3.8855e-05
4.96558e-05
5.57096e-05
5.82534e-05
5.79804e-05
5.51849e-05
4.54374e-06
2.26269e-05
3.99274e-05
5.10331e-05
5.73292e-05
6.00425e-05
5.98659e-05
5.70925e-05
4.58536e-06
2.28386e-05
4.02968e-05
5.15298e-05
5.79087e-05
6.06664e-05
6.05025e-05
5.77147e-05
4.62993e-06
2.29972e-05
4.05879e-05
5.19341e-05
5.83787e-05
6.11661e-05
6.10042e-05
5.81958e-05
4.62887e-06
2.31481e-05
4.08214e-05
5.21954e-05
5.86647e-05
6.14779e-05
6.13289e-05
5.85194e-05
4.61777e-06
2.31874e-05
4.08977e-05
5.22806e-05
5.87521e-05
6.15616e-05
6.14129e-05
5.86036e-05
4.60262e-06
2.31505e-05
4.08325e-05
5.21751e-05
5.86125e-05
6.14006e-05
6.12429e-05
5.84355e-05
4.58509e-06
2.30759e-05
4.06722e-05
5.1917e-05
5.82705e-05
6.09977e-05
6.08028e-05
5.79821e-05
4.6334e-06
2.38302e-05
4.18446e-05
5.33927e-05
5.99736e-05
6.28539e-05
6.27412e-05
5.9931e-05
4.67063e-06
2.39912e-05
4.21474e-05
5.38146e-05
6.04751e-05
6.34007e-05
6.33043e-05
6.04855e-05
4.71231e-06
2.4114e-05
4.23942e-05
5.416e-05
6.08832e-05
6.38396e-05
6.3749e-05
6.0915e-05
4.71147e-06
2.42486e-05
4.25984e-05
5.43904e-05
6.11464e-05
6.41271e-05
6.40501e-05
6.12176e-05
4.70122e-06
2.42929e-05
4.26742e-05
5.44829e-05
6.12391e-05
6.42225e-05
6.41491e-05
6.13185e-05
4.68735e-06
2.42734e-05
4.26321e-05
5.44105e-05
6.11398e-05
6.41067e-05
6.4027e-05
6.11987e-05
4.67267e-06
2.42269e-05
4.2516e-05
5.42097e-05
6.08651e-05
6.37777e-05
6.36642e-05
6.08223e-05
4.73367e-06
2.50407e-05
4.37822e-05
5.57821e-05
6.26526e-05
6.57043e-05
6.56601e-05
6.28183e-05
4.7672e-06
2.51588e-05
4.4027e-05
5.61343e-05
6.30798e-05
6.6176e-05
6.61505e-05
6.33047e-05
4.80568e-06
2.5248e-05
4.42323e-05
5.64249e-05
6.34298e-05
6.6557e-05
6.65398e-05
6.36832e-05
4.80553e-06
2.53693e-05
4.44068e-05
5.66379e-05
6.36744e-05
6.68197e-05
6.68164e-05
6.39632e-05
4.79623e-06
2.54184e-05
4.44825e-05
5.67243e-05
6.37658e-05
6.69237e-05
6.69276e-05
6.40782e-05
4.78345e-06
2.54145e-05
4.44633e-05
5.66812e-05
6.37029e-05
6.68497e-05
6.68503e-05
6.4004e-05
4.77131e-06
2.53923e-05
4.43866e-05
5.65333e-05
6.34917e-05
6.65915e-05
6.65623e-05
6.37031e-05
4.84707e-06
2.62598e-05
4.57423e-05
5.81993e-05
6.53641e-05
6.85917e-05
6.86214e-05
6.57532e-05
4.87536e-06
2.63464e-05
4.59378e-05
5.84897e-05
6.57231e-05
6.89932e-05
6.90426e-05
6.61741e-05
4.9078e-06
2.64116e-05
4.61066e-05
5.87377e-05
6.60224e-05
6.93208e-05
6.93798e-05
6.6504e-05
4.90848e-06
2.65193e-05
4.62572e-05
5.89257e-05
6.62364e-05
6.95574e-05
6.96313e-05
6.67608e-05
4.90091e-06
2.65716e-05
4.63305e-05
5.90077e-05
6.63345e-05
6.96683e-05
6.97521e-05
6.68873e-05
4.89004e-06
2.65796e-05
4.63297e-05
5.89894e-05
6.63036e-05
6.96315e-05
6.97151e-05
6.68544e-05
4.88107e-06
2.65756e-05
4.62857e-05
5.8888e-05
6.61499e-05
6.94385e-05
6.9497e-05
6.66247e-05
4.96843e-06
2.7499e-05
4.77285e-05
6.06453e-05
6.8108e-05
7.15164e-05
7.16259e-05
6.87374e-05
4.99139e-06
2.75641e-05
4.7884e-05
6.08828e-05
6.84063e-05
7.18539e-05
7.19833e-05
6.90973e-05
5.01807e-06
2.76122e-05
4.80217e-05
6.1093e-05
6.86593e-05
7.21334e-05
7.22731e-05
6.9383e-05
5.01962e-06
2.77064e-05
4.8149e-05
6.12509e-05
6.88483e-05
7.2345e-05
7.25004e-05
6.96172e-05
5.01373e-06
2.77593e-05
4.82212e-05
6.13342e-05
6.89474e-05
7.24594e-05
7.26272e-05
6.97516e-05
5.00456e-06
2.7776e-05
4.8234e-05
6.13361e-05
6.89429e-05
7.24539e-05
7.26247e-05
6.97546e-05
4.99819e-06
2.77845e-05
4.82154e-05
6.12732e-05
6.88391e-05
7.2319e-05
7.24698e-05
6.95898e-05
5.0973e-06
2.87653e-05
4.97444e-05
6.31219e-05
7.08852e-05
7.44797e-05
7.46762e-05
7.17749e-05
5.11593e-06
2.88158e-05
4.98685e-05
6.33146e-05
7.11304e-05
7.47601e-05
7.49761e-05
7.20796e-05
5.13771e-06
2.88528e-05
4.99797e-05
6.34864e-05
7.13422e-05
7.49966e-05
7.5224e-05
7.23268e-05
5.1399e-06
2.89321e-05
5.00869e-05
6.36263e-05
7.15077e-05
7.51846e-05
7.54284e-05
7.25396e-05
5.13546e-06
2.89833e-05
5.0155e-05
6.37042e-05
7.1605e-05
7.52993e-05
7.55575e-05
7.26784e-05
5.1276e-06
2.90045e-05
5.01758e-05
6.37201e-05
7.16203e-05
7.53183e-05
7.55828e-05
7.27105e-05
5.12301e-06
2.902e-05
5.01744e-05
6.36871e-05
7.15576e-05
7.52331e-05
7.5483e-05
7.26031e-05
5.23447e-06
3.00623e-05
5.17922e-05
6.56298e-05
7.36961e-05
7.7483e-05
7.77754e-05
7.48707e-05
5.24986e-06
3.01038e-05
5.1892e-05
6.57853e-05
7.38954e-05
7.77133e-05
7.80246e-05
7.51274e-05
5.2677e-06
3.01336e-05
5.19813e-05
6.59248e-05
7.40708e-05
7.79121e-05
7.82363e-05
7.53419e-05
5.27022e-06
3.0198e-05
5.20695e-05
6.60422e-05
7.42139e-05
7.80778e-05
7.84191e-05
7.55349e-05
5.26676e-06
3.02437e-05
5.21295e-05
6.61146e-05
7.43053e-05
7.81883e-05
7.85464e-05
7.56739e-05
5.25967e-06
3.02644e-05
5.21518e-05
6.61375e-05
7.43333e-05
7.82246e-05
7.85922e-05
7.57281e-05
5.25591e-06
3.02809e-05
5.21593e-05
6.61251e-05
7.43024e-05
7.81801e-05
7.85388e-05
7.56697e-05
5.38081e-06
3.13924e-05
5.38724e-05
6.81682e-05
7.65399e-05
8.05266e-05
8.0926e-05
7.80303e-05
5.39403e-06
3.14288e-05
5.39534e-05
6.82922e-05
7.66994e-05
8.0713e-05
8.11313e-05
7.82462e-05
5.40879e-06
3.14538e-05
5.40244e-05
6.84038e-05
7.68423e-05
8.08787e-05
8.13119e-05
7.84335e-05
5.41129e-06
3.15031e-05
5.40924e-05
6.8498e-05
7.69633e-05
8.10222e-05
8.14741e-05
7.86083e-05
5.40816e-06
3.15389e-05
5.41397e-05
6.85595e-05
7.70438e-05
8.11244e-05
8.15952e-05
7.87434e-05
5.40114e-06
3.15536e-05
5.41562e-05
6.85817e-05
7.70767e-05
8.11704e-05
8.16542e-05
7.88125e-05
5.39717e-06
3.15652e-05
5.41642e-05
6.85809e-05
7.70685e-05
8.11577e-05
8.16387e-05
7.87948e-05
5.53724e-06
3.27565e-05
5.59832e-05
7.07335e-05
7.94133e-05
8.36092e-05
8.41297e-05
8.12584e-05
5.54924e-06
3.27902e-05
5.60488e-05
7.083e-05
7.95372e-05
8.37567e-05
8.42967e-05
8.14401e-05
5.56161e-06
3.28111e-05
5.61032e-05
7.09159e-05
7.96502e-05
8.38925e-05
8.44503e-05
8.16052e-05
5.56366e-06
3.28445e-05
5.61497e-05
7.0986e-05
7.97467e-05
8.40133e-05
8.45922e-05
8.17627e-05
5.56009e-06
3.28658e-05
5.61779e-05
7.10298e-05
7.98122e-05
8.41025e-05
8.47029e-05
8.18899e-05
5.5523e-06
3.28682e-05
5.61805e-05
7.1043e-05
7.98422e-05
8.41508e-05
8.47678e-05
8.19671e-05
5.54706e-06
3.2869e-05
5.61809e-05
7.10452e-05
7.98484e-05
8.41617e-05
8.47824e-05
8.19825e-05
5.70469e-06
3.41542e-05
5.812e-05
7.3319e-05
8.23099e-05
8.67266e-05
8.73855e-05
8.45582e-05
5.71627e-06
3.41862e-05
5.81716e-05
7.33898e-05
8.24007e-05
8.68385e-05
8.75188e-05
8.47113e-05
5.72676e-06
3.4202e-05
5.82088e-05
7.34505e-05
8.24842e-05
8.69463e-05
8.76484e-05
8.48581e-05
5.72784e-06
3.42179e-05
5.82309e-05
7.34937e-05
8.25553e-05
8.70434e-05
8.77696e-05
8.4999e-05
5.72296e-06
3.42194e-05
5.82331e-05
7.35128e-05
8.25995e-05
8.71146e-05
8.78657e-05
8.51146e-05
5.71354e-06
3.42021e-05
5.8213e-05
7.35087e-05
8.26187e-05
8.71579e-05
8.79299e-05
8.5194e-05
5.70604e-06
3.41854e-05
5.81977e-05
7.35061e-05
8.2632e-05
8.71858e-05
8.79681e-05
8.52363e-05
5.8841e-06
3.55833e-05
6.02753e-05
7.59148e-05
8.52203e-05
8.98716e-05
9.06902e-05
8.79311e-05
5.89594e-06
3.56135e-05
6.03126e-05
7.59601e-05
8.52791e-05
8.99501e-05
9.07931e-05
8.80602e-05
5.90482e-06
3.5622e-05
6.03303e-05
7.59942e-05
8.53346e-05
9.00312e-05
9.09005e-05
8.81915e-05
5.90437e-06
3.56178e-05
6.03238e-05
7.60067e-05
8.53754e-05
9.01019e-05
9.1e-05
8.83159e-05
5.89741e-06
3.55928e-05
6.02917e-05
7.59934e-05
8.53918e-05
9.01498e-05
9.10772e-05
8.84172e-05
5.88578e-06
3.55449e-05
6.02383e-05
7.59629e-05
8.53924e-05
9.01814e-05
9.1135e-05
8.84941e-05
5.87535e-06
3.55017e-05
6.01987e-05
7.59481e-05
8.54068e-05
9.02212e-05
9.11924e-05
8.85591e-05
6.07651e-06
3.70404e-05
6.24391e-05
7.85082e-05
8.81321e-05
9.30347e-05
9.40382e-05
9.13769e-05
6.08915e-06
3.7068e-05
6.24605e-05
7.8527e-05
8.81589e-05
9.30807e-05
9.41129e-05
9.14858e-05
6.09655e-06
3.70659e-05
6.24552e-05
7.85323e-05
8.81859e-05
9.31354e-05
9.41992e-05
9.16037e-05
6.0941e-06
3.70375e-05
6.24144e-05
7.8509e-05
8.81915e-05
9.31759e-05
9.42748e-05
9.17112e-05
6.08471e-06
3.69756e-05
6.2337e-05
7.84536e-05
8.81728e-05
9.31963e-05
9.43306e-05
9.17961e-05
6.07069e-06
3.68805e-05
6.22371e-05
7.83879e-05
8.81509e-05
9.32151e-05
9.43819e-05
9.18695e-05
6.05679e-06
3.68022e-05
6.21663e-05
7.83573e-05
8.81651e-05
9.3267e-05
9.4459e-05
9.19573e-05
4.23604e-06
1.91902e-05
3.40057e-05
4.32362e-05
4.81368e-05
4.99467e-05
4.93399e-05
4.66079e-05
4.23044e-06
1.92005e-05
3.39842e-05
4.31669e-05
4.80374e-05
4.98205e-05
4.91929e-05
4.64478e-05
4.24922e-06
1.92854e-05
3.40091e-05
4.31985e-05
4.80826e-05
4.30067e-06
1.94933e-05
4.30478e-06
4.33433e-06
2.05795e-05
3.62382e-05
4.59616e-05
5.11777e-05
5.31513e-05
5.25788e-05
4.97556e-05
4.32893e-06
2.05943e-05
3.62057e-05
4.58949e-05
5.1085e-05
5.30412e-05
5.24584e-05
4.96316e-05
4.34697e-06
2.06676e-05
3.62195e-05
4.59111e-05
5.11108e-05
5.30783e-05
5.25071e-05
4.96976e-05
4.39953e-06
2.08011e-05
3.63455e-05
4.60328e-05
5.1172e-05
5.30579e-05
5.24027e-05
4.95114e-05
4.40797e-06
2.06691e-05
3.62202e-05
4.59709e-05
5.11929e-05
5.31708e-05
5.26074e-05
4.97979e-05
4.3791e-06
2.06116e-05
3.61556e-05
4.59267e-05
5.11953e-05
5.32168e-05
5.26818e-05
4.98819e-05
4.36676e-06
2.04253e-05
3.60542e-05
4.59115e-05
5.12713e-05
5.33694e-05
5.28922e-05
5.01299e-05
4.44341e-06
2.20023e-05
3.8511e-05
4.87586e-05
5.43022e-05
5.64544e-05
5.59304e-05
5.30299e-05
4.4381e-06
2.20213e-05
3.84815e-05
4.86955e-05
5.42171e-05
5.63582e-05
5.5831e-05
5.29336e-05
4.45409e-06
2.20686e-05
3.84824e-05
4.86989e-05
5.42309e-05
5.63841e-05
5.5873e-05
5.29958e-05
4.50698e-06
2.2119e-05
3.8553e-05
4.87736e-05
5.4273e-05
5.63749e-05
5.58056e-05
5.28711e-05
4.51863e-06
2.19919e-05
3.84716e-05
4.87377e-05
5.42964e-05
5.64638e-05
5.59602e-05
5.30844e-05
4.48875e-06
2.19756e-05
3.84197e-05
4.87039e-05
5.42979e-05
5.64995e-05
5.60185e-05
5.31503e-05
4.47705e-06
2.18236e-05
3.83207e-05
4.86826e-05
5.43532e-05
5.66201e-05
5.6188e-05
5.33509e-05
4.56238e-06
2.34381e-05
4.08118e-05
5.15959e-05
5.74807e-05
5.98264e-05
5.93667e-05
5.64051e-05
4.55686e-06
2.34503e-05
4.07816e-05
5.15336e-05
5.74003e-05
5.97394e-05
5.92813e-05
5.63272e-05
4.57015e-06
2.34689e-05
4.07645e-05
5.15215e-05
5.74006e-05
5.97541e-05
5.93134e-05
5.63797e-05
4.62262e-06
2.34458e-05
4.07864e-05
5.15578e-05
5.7421e-05
5.9743e-05
5.9264e-05
5.62916e-05
4.63658e-06
2.33174e-05
4.07104e-05
5.15253e-05
5.74363e-05
5.98061e-05
5.93741e-05
5.64439e-05
4.60572e-06
2.33288e-05
4.06742e-05
5.14985e-05
5.74352e-05
5.98314e-05
5.94176e-05
5.6494e-05
4.59507e-06
2.32206e-05
4.05921e-05
5.14745e-05
5.7472e-05
5.99221e-05
5.95493e-05
5.66516e-05
4.69136e-06
2.48606e-05
4.31146e-05
5.44478e-05
6.0688e-05
6.32426e-05
6.28636e-05
5.98575e-05
4.68406e-06
2.48668e-05
4.30809e-05
5.43839e-05
6.06094e-05
6.31608e-05
6.27864e-05
5.97904e-05
4.69556e-06
2.48626e-05
4.30469e-05
5.43529e-05
6.05912e-05
6.31589e-05
6.28025e-05
5.98262e-05
4.74668e-06
2.47808e-05
4.3024e-05
5.4357e-05
6.05879e-05
6.3139e-05
6.27589e-05
5.97576e-05
4.7636e-06
2.46384e-05
4.29355e-05
5.43171e-05
6.05889e-05
6.31753e-05
6.28288e-05
5.98574e-05
4.73101e-06
2.4674e-05
4.29077e-05
5.42902e-05
6.05843e-05
6.31898e-05
6.28575e-05
5.98922e-05
4.72134e-06
2.45977e-05
4.28454e-05
5.42637e-05
6.06038e-05
6.32527e-05
6.29542e-05
6.00107e-05
4.83097e-06
2.6261e-05
4.54037e-05
5.72962e-05
6.39049e-05
6.66834e-05
6.64013e-05
6.33673e-05
4.82168e-06
2.6264e-05
4.53634e-05
5.72294e-05
6.38265e-05
6.66042e-05
6.63284e-05
6.33055e-05
4.83248e-06
2.62439e-05
4.53178e-05
5.71775e-05
6.37847e-05
6.65819e-05
6.63246e-05
6.33201e-05
4.88154e-06
2.61198e-05
4.52599e-05
5.71525e-05
6.37559e-05
6.6547e-05
6.62768e-05
6.32571e-05
4.89946e-06
2.59566e-05
4.51548e-05
5.71006e-05
6.37394e-05
6.65577e-05
6.63106e-05
6.33117e-05
4.8673e-06
2.60027e-05
4.51247e-05
5.70698e-05
6.37321e-05
6.65602e-05
6.63233e-05
6.33299e-05
4.85647e-06
2.59459e-05
4.50712e-05
5.70373e-05
6.3734e-05
6.65962e-05
6.6387e-05
6.34119e-05
4.97707e-06
2.76473e-05
4.7671e-05
6.01303e-05
6.71184e-05
7.01347e-05
6.99659e-05
6.69206e-05
4.96745e-06
2.76459e-05
4.76271e-05
6.00624e-05
6.7041e-05
7.00576e-05
6.98952e-05
6.68606e-05
4.97708e-06
2.76161e-05
4.75736e-05
5.99925e-05
6.69816e-05
7.00164e-05
6.98705e-05
6.6852e-05
5.01953e-06
2.74706e-05
4.74897e-05
5.99418e-05
6.69334e-05
6.99647e-05
6.98123e-05
6.67847e-05
5.03664e-06
2.72947e-05
4.73713e-05
5.98794e-05
6.6901e-05
6.99514e-05
6.98135e-05
6.67997e-05
5.00631e-06
2.73366e-05
4.7333e-05
5.98375e-05
6.68747e-05
6.99361e-05
6.98076e-05
6.67992e-05
4.99535e-06
2.72845e-05
4.72757e-05
5.97937e-05
6.68569e-05
6.99452e-05
6.98391e-05
6.6846e-05
5.12552e-06
2.9032e-05
4.99198e-05
6.29461e-05
7.03214e-05
7.35888e-05
7.35496e-05
7.05101e-05
5.11671e-06
2.90278e-05
4.98771e-05
6.28823e-05
7.0249e-05
7.35158e-05
7.34815e-05
7.04511e-05
5.12498e-06
2.89891e-05
4.98177e-05
6.282e-05
7.01915e-05
7.34635e-05
7.3439e-05
7.042e-05
5.16057e-06
2.88355e-05
4.97194e-05
6.27476e-05
7.01302e-05
7.33985e-05
7.33683e-05
7.03427e-05
5.17504e-06
2.8664e-05
4.95905e-05
6.26643e-05
7.0074e-05
7.3358e-05
7.33391e-05
7.03226e-05
5.14668e-06
2.86912e-05
4.95377e-05
6.25985e-05
7.00147e-05
7.33185e-05
7.33108e-05
7.03006e-05
5.13582e-06
2.86321e-05
4.94702e-05
6.2538e-05
6.99739e-05
7.32993e-05
7.33098e-05
7.03123e-05
5.27753e-06
3.04225e-05
5.21566e-05
6.57445e-05
7.35122e-05
7.70436e-05
7.71518e-05
7.41371e-05
5.27027e-06
3.0419e-05
5.21211e-05
6.56913e-05
7.34502e-05
7.69788e-05
7.70892e-05
7.40809e-05
5.27703e-06
3.03722e-05
5.20619e-05
6.56462e-05
7.3398e-05
7.6921e-05
7.70334e-05
7.40304e-05
5.30583e-06
3.02213e-05
5.19564e-05
6.55611e-05
7.33283e-05
7.68482e-05
7.69514e-05
7.39409e-05
5.31793e-06
3.00563e-05
5.18202e-05
6.54502e-05
7.32421e-05
7.67781e-05
7.68933e-05
7.38893e-05
5.29069e-06
3.00624e-05
5.17489e-05
6.53595e-05
7.31577e-05
7.67137e-05
7.68405e-05
7.38427e-05
5.27875e-06
2.99979e-05
5.16651e-05
6.52784e-05
7.30916e-05
7.66649e-05
7.6806e-05
7.3818e-05
5.43507e-06
3.18263e-05
5.43893e-05
6.85299e-05
7.6694e-05
8.05034e-05
8.07789e-05
7.78106e-05
5.42995e-06
3.18281e-05
5.43675e-05
6.84934e-05
7.66483e-05
8.04527e-05
8.07271e-05
7.77616e-05
5.43531e-06
3.1779e-05
5.4311e-05
6.84469e-05
7.65957e-05
8.0393e-05
8.06638e-05
7.76974e-05
5.45709e-06
3.16379e-05
5.42046e-05
6.83611e-05
7.65195e-05
8.03112e-05
8.05718e-05
7.75959e-05
5.46547e-06
3.14828e-05
5.40664e-05
6.82371e-05
7.6415e-05
8.02213e-05
8.04899e-05
7.75165e-05
5.43969e-06
3.14629e-05
5.39754e-05
6.81296e-05
7.63134e-05
8.01337e-05
8.0411e-05
7.74419e-05
5.42644e-06
3.13882e-05
5.38716e-05
6.80255e-05
7.62205e-05
8.00535e-05
8.03406e-05
7.73778e-05
5.60052e-06
3.32525e-05
5.66275e-05
7.13105e-05
7.98753e-05
8.39791e-05
8.44451e-05
8.1548e-05
5.59819e-06
3.32651e-05
5.66264e-05
7.12981e-05
7.98538e-05
8.39505e-05
8.44119e-05
8.15134e-05
5.60256e-06
3.322e-05
5.65738e-05
7.12522e-05
7.98064e-05
8.3896e-05
8.43493e-05
8.14435e-05
5.61756e-06
3.30935e-05
5.64741e-05
7.11627e-05
7.97249e-05
8.38095e-05
8.42513e-05
8.13326e-05
5.62121e-06
3.29486e-05
5.63385e-05
7.10441e-05
7.96137e-05
8.37063e-05
8.41496e-05
8.12279e-05
5.59643e-06
3.29006e-05
5.62275e-05
7.09209e-05
7.94963e-05
8.35953e-05
8.40422e-05
8.11208e-05
5.58136e-06
3.28094e-05
5.61008e-05
7.07912e-05
7.9374e-05
8.34806e-05
8.39318e-05
8.1012e-05
5.77693e-06
3.47125e-05
5.88835e-05
7.40995e-05
8.30717e-05
8.74896e-05
8.81733e-05
8.53757e-05
5.7781e-06
3.47427e-05
5.89125e-05
7.41216e-05
8.30853e-05
8.7494e-05
8.81693e-05
8.53654e-05
5.78205e-06
3.47078e-05
5.88759e-05
7.4092e-05
8.30554e-05
8.74558e-05
8.81179e-05
8.52997e-05
5.79089e-06
3.45968e-05
5.87833e-05
7.40111e-05
8.298e-05
8.73724e-05
8.80197e-05
8.51832e-05
5.78897e-06
3.44605e-05
5.86512e-05
7.38909e-05
8.28626e-05
8.7258e-05
8.78998e-05
8.50534e-05
5.76412e-06
3.4382e-05
5.85174e-05
7.37481e-05
8.27242e-05
8.71201e-05
8.77589e-05
8.49072e-05
5.74611e-06
3.42688e-05
5.83627e-05
7.35878e-05
8.25672e-05
8.69645e-05
8.76009e-05
8.47447e-05
5.96837e-06
3.62211e-05
6.11751e-05
7.69181e-05
8.63088e-05
9.10651e-05
9.19973e-05
8.93306e-05
5.97392e-06
3.62771e-05
6.12465e-05
7.6989e-05
8.63721e-05
9.1117e-05
9.20365e-05
8.93575e-05
5.97793e-06
3.62581e-05
6.12401e-05
7.69916e-05
8.63743e-05
9.11078e-05
9.20081e-05
8.93067e-05
5.98121e-06
3.61609e-05
6.11571e-05
7.69252e-05
8.63117e-05
9.1035e-05
9.19147e-05
8.91874e-05
5.97315e-06
3.60274e-05
6.10213e-05
7.67992e-05
8.61892e-05
9.09078e-05
9.17743e-05
8.90291e-05
5.94622e-06
3.59152e-05
6.08579e-05
7.66283e-05
8.60188e-05
9.07334e-05
9.15902e-05
8.88327e-05
5.92349e-06
3.5772e-05
6.06661e-05
7.64275e-05
8.5816e-05
9.0525e-05
9.13716e-05
8.86027e-05
6.18059e-06
3.77978e-05
6.35294e-05
7.98014e-05
8.96285e-05
9.4752e-05
9.59658e-05
9.34632e-05
6.19158e-06
3.789e-05
6.36586e-05
7.9939e-05
8.97603e-05
9.487e-05
9.60663e-05
9.35436e-05
6.19602e-06
3.78928e-05
6.36894e-05
7.9986e-05
8.98076e-05
9.49024e-05
9.60725e-05
9.35178e-05
6.1938e-06
3.78042e-05
6.36186e-05
7.99381e-05
8.97623e-05
9.48419e-05
9.59845e-05
9.33949e-05
6.17856e-06
3.76631e-05
6.34702e-05
7.97973e-05
8.96242e-05
9.46933e-05
9.58143e-05
9.31979e-05
6.14677e-06
3.75092e-05
6.3264e-05
7.9583e-05
8.94065e-05
9.44658e-05
9.55693e-05
9.29332e-05
6.11671e-06
3.73239e-05
6.30192e-05
7.93237e-05
8.91387e-05
9.41842e-05
9.5269e-05
9.26143e-05
4.30895e-06
4.31955e-06
1.91725e-05
4.32655e-06
1.93296e-05
3.46357e-05
4.45273e-05
5.00059e-05
4.32965e-06
1.96075e-05
3.50932e-05
4.50895e-05
5.06586e-05
5.29522e-05
5.26324e-05
4.99866e-05
4.35264e-06
1.9914e-05
3.56037e-05
4.57267e-05
5.13897e-05
5.37414e-05
5.34442e-05
5.07861e-05
4.37037e-06
2.04013e-05
3.6069e-05
4.59988e-05
5.14268e-05
5.35768e-05
5.31323e-05
5.03838e-05
4.37962e-06
2.04174e-05
3.613e-05
4.61468e-05
5.16523e-05
5.38578e-05
5.34465e-05
5.07108e-05
4.40532e-06
2.04097e-05
3.62395e-05
4.63612e-05
5.19471e-05
5.42088e-05
5.38314e-05
5.11076e-05
4.41428e-06
2.04882e-05
3.64197e-05
4.66452e-05
5.23134e-05
5.46354e-05
5.4291e-05
5.15729e-05
4.41537e-06
2.06124e-05
3.66876e-05
4.70222e-05
5.27847e-05
5.51738e-05
5.48704e-05
5.21642e-05
4.41136e-06
2.08658e-05
3.70811e-05
4.75166e-05
5.33647e-05
5.58137e-05
5.55392e-05
5.28309e-05
4.42902e-06
2.1137e-05
3.75412e-05
4.8088e-05
5.40238e-05
5.65314e-05
5.62844e-05
5.35716e-05
4.47986e-06
2.17786e-05
3.83143e-05
4.87433e-05
5.44763e-05
5.67904e-05
5.63881e-05
5.35638e-05
4.48693e-06
2.17958e-05
3.83575e-05
4.88561e-05
5.46591e-05
5.70252e-05
5.6655e-05
5.3844e-05
4.50959e-06
2.17954e-05
3.84332e-05
4.9024e-05
5.49019e-05
5.73216e-05
5.69844e-05
5.41866e-05
4.51777e-06
2.1815e-05
3.85631e-05
4.92482e-05
5.52101e-05
5.76908e-05
5.73902e-05
5.46043e-05
4.51391e-06
2.19194e-05
3.87731e-05
4.9567e-05
5.56168e-05
5.81641e-05
5.79052e-05
5.51348e-05
4.50253e-06
2.21478e-05
3.91124e-05
4.9996e-05
5.61258e-05
5.87336e-05
5.85094e-05
5.57454e-05
4.51412e-06
2.23885e-05
3.95137e-05
5.04963e-05
5.67107e-05
5.93772e-05
5.91842e-05
5.64225e-05
4.59859e-06
2.3154e-05
4.05675e-05
5.15094e-05
5.75625e-05
6.00549e-05
5.9709e-05
5.68232e-05
4.60246e-06
2.31693e-05
4.05893e-05
5.15878e-05
5.77027e-05
6.0242e-05
5.99255e-05
5.70526e-05
4.62354e-06
2.31646e-05
4.06298e-05
5.17117e-05
5.78944e-05
6.04825e-05
6.01967e-05
5.73369e-05
4.6296e-06
2.3158e-05
4.07268e-05
5.18878e-05
5.81449e-05
6.07918e-05
6.0544e-05
5.77002e-05
4.62169e-06
2.32365e-05
4.08877e-05
5.21478e-05
5.84881e-05
6.11988e-05
6.09926e-05
5.8167e-05
4.60246e-06
2.34444e-05
4.11743e-05
5.25113e-05
5.89284e-05
6.16999e-05
6.1532e-05
5.87192e-05
4.60843e-06
2.36447e-05
4.15014e-05
5.29372e-05
5.94372e-05
6.22682e-05
6.21346e-05
5.93298e-05
4.72572e-06
2.4513e-05
4.28039e-05
5.42742e-05
6.06625e-05
6.33483e-05
6.30736e-05
6.01409e-05
4.72675e-06
2.45149e-05
4.27993e-05
5.43202e-05
6.07615e-05
6.34879e-05
6.32388e-05
6.03175e-05
4.74794e-06
2.44889e-05
4.28175e-05
5.44076e-05
6.09058e-05
6.3674e-05
6.34515e-05
6.05419e-05
4.75012e-06
2.44926e-05
4.28885e-05
5.45457e-05
6.11021e-05
6.39248e-05
6.37394e-05
6.08477e-05
4.73883e-06
2.45503e-05
4.30105e-05
5.47471e-05
6.13859e-05
6.4268e-05
6.41232e-05
6.12514e-05
4.71217e-06
2.47415e-05
4.32445e-05
5.50477e-05
6.17601e-05
6.47024e-05
6.45978e-05
6.17436e-05
4.71309e-06
2.48968e-05
4.35056e-05
5.54029e-05
6.21954e-05
6.51969e-05
6.51287e-05
6.22869e-05
4.86262e-06
2.58447e-05
4.50141e-05
5.70248e-05
6.37622e-05
6.66557e-05
6.64667e-05
6.35012e-05
4.86149e-06
2.58314e-05
4.49889e-05
5.70412e-05
6.38224e-05
6.67495e-05
6.65815e-05
6.3625e-05
4.88336e-06
2.57872e-05
4.49908e-05
5.70966e-05
6.3923e-05
6.68839e-05
6.67374e-05
6.37901e-05
4.88144e-06
2.57985e-05
4.5036e-05
5.71961e-05
6.40708e-05
6.70797e-05
6.69671e-05
6.40378e-05
4.86751e-06
2.58467e-05
4.51281e-05
5.73512e-05
6.42993e-05
6.73629e-05
6.72892e-05
6.43806e-05
4.83405e-06
2.60217e-05
4.53144e-05
5.75962e-05
6.4613e-05
6.77344e-05
6.77012e-05
6.48132e-05
4.83045e-06
2.61484e-05
4.55229e-05
5.7888e-05
6.49801e-05
6.81588e-05
6.81627e-05
6.52905e-05
5.00227e-06
2.7177e-05
4.72056e-05
5.97596e-05
6.68557e-05
6.99696e-05
6.988e-05
6.68948e-05
5.00013e-06
2.71423e-05
4.71597e-05
5.9748e-05
6.68795e-05
7.00198e-05
6.99462e-05
6.69672e-05
5.0202e-06
2.70924e-05
4.71474e-05
5.97761e-05
6.69408e-05
7.01063e-05
7.00484e-05
6.70754e-05
5.01618e-06
2.7097e-05
4.71715e-05
5.98394e-05
6.70475e-05
7.02516e-05
7.02227e-05
6.72662e-05
5.00006e-06
2.71415e-05
4.7239e-05
5.99551e-05
6.72223e-05
7.04788e-05
7.0487e-05
6.75515e-05
4.96363e-06
2.73017e-05
4.73892e-05
6.01551e-05
6.7484e-05
7.07928e-05
7.08398e-05
6.79263e-05
4.95627e-06
2.74123e-05
4.75559e-05
6.03926e-05
6.77897e-05
7.11523e-05
7.12358e-05
6.83403e-05
5.14344e-06
2.85211e-05
4.93869e-05
6.24826e-05
6.99442e-05
7.32895e-05
7.33125e-05
7.03207e-05
5.14127e-06
2.8459e-05
4.93212e-05
6.24444e-05
6.99335e-05
7.32985e-05
7.33323e-05
7.03432e-05
5.15808e-06
2.84067e-05
4.92947e-05
6.24489e-05
6.99592e-05
7.33408e-05
7.33842e-05
7.03974e-05
5.15291e-06
2.84107e-05
4.93043e-05
6.24842e-05
7.00259e-05
7.34382e-05
7.35058e-05
7.05334e-05
5.13543e-06
2.84453e-05
4.93509e-05
6.25646e-05
7.01543e-05
7.36153e-05
7.3717e-05
7.07649e-05
5.09825e-06
2.85961e-05
4.94729e-05
6.27257e-05
7.03729e-05
7.38777e-05
7.40146e-05
7.10848e-05
5.08843e-06
2.86956e-05
4.9607e-05
6.29179e-05
7.06246e-05
7.4178e-05
7.43494e-05
7.14389e-05
5.28599e-06
2.98818e-05
5.1568e-05
6.52012e-05
7.30332e-05
7.66209e-05
7.67701e-05
7.3785e-05
5.28452e-06
2.97948e-05
5.14827e-05
6.51377e-05
7.29899e-05
7.65904e-05
7.67448e-05
7.37586e-05
5.29662e-06
2.97423e-05
5.14431e-05
6.51168e-05
7.29807e-05
7.65908e-05
7.6749e-05
7.37613e-05
5.29176e-06
2.97461e-05
5.14403e-05
6.51273e-05
7.30097e-05
7.66438e-05
7.68206e-05
7.38441e-05
5.27432e-06
2.9771e-05
5.14703e-05
6.51876e-05
7.31116e-05
7.67789e-05
7.6983e-05
7.40252e-05
5.23785e-06
2.99146e-05
5.15717e-05
6.53116e-05
7.3282e-05
7.69913e-05
7.72285e-05
7.4293e-05
5.22758e-06
3.00026e-05
5.16816e-05
6.54662e-05
7.34859e-05
7.72373e-05
7.75064e-05
7.45908e-05
5.43097e-06
3.12669e-05
5.37583e-05
6.79249e-05
7.61324e-05
7.9974e-05
8.02643e-05
7.73009e-05
5.43098e-06
3.11586e-05
5.36544e-05
6.78368e-05
7.60572e-05
7.99045e-05
8.01938e-05
7.72247e-05
5.43824e-06
3.1102e-05
5.35993e-05
6.77905e-05
7.60158e-05
7.98648e-05
8.01513e-05
7.71764e-05
5.4326e-06
3.11026e-05
5.35838e-05
6.77819e-05
7.60194e-05
7.98774e-05
8.01747e-05
7.72068e-05
5.41835e-06
3.11231e-05
5.36049e-05
6.78209e-05
7.60877e-05
7.99715e-05
8.02904e-05
7.73392e-05
5.38378e-06
3.1259e-05
5.36889e-05
6.79148e-05
7.62131e-05
8.01359e-05
8.04854e-05
7.75565e-05
5.37464e-06
3.13387e-05
5.37817e-05
6.80384e-05
7.63741e-05
8.03317e-05
8.07098e-05
7.78012e-05
5.5809e-06
3.2682e-05
5.59675e-05
7.06639e-05
7.92533e-05
8.33622e-05
8.38108e-05
8.08858e-05
5.58236e-06
3.25557e-05
5.58454e-05
7.05508e-05
7.9145e-05
8.32517e-05
8.36922e-05
8.07562e-05
5.5848e-06
3.24937e-05
5.57726e-05
7.0479e-05
7.90717e-05
8.31703e-05
8.36011e-05
8.06546e-05
5.57829e-06
3.24815e-05
5.57413e-05
7.04556e-05
7.905e-05
8.31453e-05
8.35763e-05
8.06313e-05
5.5682e-06
3.2503e-05
5.57548e-05
7.04674e-05
7.90759e-05
8.31931e-05
8.36429e-05
8.07139e-05
5.53728e-06
3.26299e-05
5.58277e-05
7.05359e-05
7.91658e-05
8.33126e-05
8.37886e-05
8.08812e-05
5.53065e-06
3.2706e-05
5.59079e-05
7.06328e-05
7.92877e-05
8.34609e-05
8.39617e-05
8.10754e-05
5.73956e-06
3.41306e-05
5.8204e-05
7.34281e-05
8.24075e-05
8.68001e-05
8.74271e-05
8.456e-05
5.74076e-06
3.39914e-05
5.80616e-05
7.32862e-05
8.22614e-05
8.66427e-05
8.72534e-05
8.43692e-05
5.73887e-06
3.39195e-05
5.79679e-05
7.31849e-05
8.21501e-05
8.65143e-05
8.71078e-05
8.4208e-05
5.73218e-06
3.38914e-05
5.79191e-05
7.31324e-05
8.20907e-05
8.64451e-05
8.70293e-05
8.41263e-05
5.72475e-06
3.39127e-05
5.79232e-05
7.31244e-05
8.2082e-05
8.64464e-05
8.70447e-05
8.41558e-05
5.69953e-06
3.40302e-05
5.79867e-05
7.3172e-05
8.21376e-05
8.65204e-05
8.71399e-05
8.42722e-05
5.69666e-06
3.41045e-05
5.80573e-05
7.3245e-05
8.22221e-05
8.66223e-05
8.72628e-05
8.44171e-05
5.90978e-06
3.5614e-05
6.04724e-05
7.62251e-05
8.56062e-05
9.03021e-05
9.1131e-05
8.83446e-05
5.90797e-06
3.54582e-05
6.03024e-05
7.60456e-05
8.5412e-05
9.00863e-05
9.08896e-05
8.80793e-05
5.90223e-06
3.53703e-05
6.01822e-05
7.59072e-05
8.52526e-05
8.99016e-05
9.06788e-05
8.78471e-05
5.89592e-06
3.53306e-05
6.01115e-05
7.58171e-05
8.5145e-05
8.97736e-05
9.05365e-05
8.76983e-05
5.88997e-06
3.5351e-05
6.01058e-05
7.5788e-05
8.51011e-05
8.97271e-05
9.04954e-05
8.76694e-05
5.87182e-06
3.54585e-05
6.01613e-05
7.58168e-05
8.51223e-05
8.9755e-05
9.0538e-05
8.77322e-05
5.87371e-06
3.55328e-05
6.02239e-05
7.58667e-05
8.51695e-05
8.98102e-05
9.06106e-05
8.78286e-05
6.09413e-06
3.71326e-05
6.27749e-05
7.90611e-05
8.88591e-05
9.38817e-05
9.49396e-05
9.22605e-05
6.08456e-06
3.69556e-05
6.25646e-05
7.88287e-05
8.85998e-05
9.35888e-05
9.46108e-05
9.19006e-05
6.07455e-06
3.6846e-05
6.24092e-05
7.86415e-05
8.83788e-05
9.33313e-05
9.43175e-05
9.158e-05
6.06932e-06
3.67922e-05
6.23134e-05
7.85087e-05
8.82118e-05
9.31337e-05
9.40988e-05
9.1352e-05
6.06549e-06
3.6813e-05
6.22959e-05
7.8452e-05
8.81249e-05
9.30303e-05
9.39928e-05
9.12562e-05
6.05538e-06
3.69114e-05
6.23434e-05
7.84599e-05
8.81098e-05
9.30084e-05
9.39789e-05
9.12621e-05
6.06284e-06
3.69877e-05
6.23987e-05
7.84863e-05
8.81187e-05
9.30158e-05
9.40002e-05
9.131e-05
4.40894e-06
2.06424e-05
3.67074e-05
4.68927e-05
5.25004e-05
5.47541e-05
5.43402e-05
5.15539e-05
4.38609e-06
2.04545e-05
3.62925e-05
4.6258e-05
5.16745e-05
5.37806e-05
5.32682e-05
5.04382e-05
4.36427e-06
2.02079e-05
3.57986e-05
4.55563e-05
5.08027e-05
5.27852e-05
5.2201e-05
4.93553e-05
4.34494e-06
1.99796e-05
3.53431e-05
4.48961e-05
4.99693e-05
5.18167e-05
5.11391e-05
4.82484e-05
4.31114e-06
1.96153e-05
3.47931e-05
4.42431e-05
4.92669e-05
5.11088e-05
5.04644e-05
4.76412e-05
4.27906e-06
1.94375e-05
3.44379e-05
4.37657e-05
4.87153e-05
5.05192e-05
4.98662e-05
4.706e-05
4.25264e-06
1.92524e-05
3.41383e-05
4.3412e-05
4.83443e-05
5.01593e-05
4.95392e-05
4.67814e-05
4.48462e-06
2.17982e-05
3.85575e-05
4.91953e-05
5.51088e-05
5.75476e-05
5.72079e-05
5.43864e-05
4.46666e-06
2.16454e-05
3.82083e-05
4.86438e-05
5.43777e-05
5.6675e-05
5.6238e-05
5.33685e-05
4.45067e-06
2.14431e-05
3.77837e-05
4.8028e-05
5.35977e-05
5.57709e-05
5.52561e-05
5.23597e-05
4.43722e-06
2.12316e-05
3.7383e-05
4.74396e-05
5.28473e-05
5.48927e-05
5.42889e-05
5.13481e-05
4.40954e-06
2.09252e-05
3.69174e-05
4.6868e-05
5.22099e-05
5.42272e-05
5.36309e-05
5.07304e-05
4.37759e-06
2.07939e-05
3.66117e-05
4.64461e-05
5.17112e-05
5.36853e-05
5.30744e-05
5.01847e-05
4.35222e-06
2.06329e-05
3.63543e-05
4.61293e-05
5.13701e-05
5.33467e-05
5.27598e-05
4.99099e-05
4.56791e-06
2.29736e-05
4.04382e-05
5.15351e-05
5.77584e-05
6.03858e-05
6.01252e-05
5.72747e-05
4.55511e-06
2.28624e-05
4.01594e-05
5.10717e-05
5.71271e-05
5.96195e-05
5.92632e-05
5.63612e-05
4.5454e-06
2.27126e-05
3.98146e-05
5.05477e-05
5.64463e-05
5.88156e-05
5.83771e-05
5.54387e-05
4.53855e-06
2.25234e-05
3.94728e-05
5.00407e-05
5.5788e-05
5.80357e-05
5.75109e-05
5.45268e-05
4.51788e-06
2.22683e-05
3.90851e-05
4.95544e-05
5.52255e-05
5.74288e-05
5.68921e-05
5.39276e-05
4.48585e-06
2.2176e-05
3.88356e-05
4.91916e-05
5.47854e-05
5.69425e-05
5.63868e-05
5.34275e-05
4.46187e-06
2.205e-05
3.86197e-05