/*--------------------------------*- C++ -*----------------------------------*\
| =========                 |                                                 |
| \\      /  F ield         | OpenFOAM: The Open Source CFD Toolbox           |
|  \\    /   O peration     | Version:  plus.master.MPPICInterFoam            |
|   \\  /    A nd           | Web:      www.OpenFOAM.com                      |
|    \\/     M anipulation  |                                                 |
\*---------------------------------------------------------------------------*/
FoamFile
{
    version     2.0;
    format      ascii;
    class       surfaceScalarField;
    location    "13";
    object      phi;
}
// * * * * * * * * * * * * * * * * * * * * * * * * * * * * * * * * * * * * * //

dimensions      [0 3 -1 0 0 0 0];

internalField   nonuniform List<scalar> 
34004
(
-7.41283e-09
1.51266e-08
-1.57265e-06
-3.34087e-08
-2.07846e-08
2.23147e-08
-2.0092e-06
-4.01236e-08
-4.16571e-08
2.54498e-08
-2.36696e-06
-4.32407e-08
-6.27515e-08
2.78354e-08
-2.70013e-06
-4.59411e-08
-8.21843e-08
2.9904e-08
-3.04636e-06
-4.82216e-08
-9.98768e-08
3.1703e-08
-3.40833e-06
-5.0208e-08
-1.15196e-07
3.32677e-08
-3.78509e-06
-5.18822e-08
3.46301e-08
-4.17155e-06
-5.32481e-08
-1.26992e-07
-8.38963e-09
-3.72759e-09
-1.59602e-06
-2.41805e-08
2.24734e-09
-2.03799e-06
-4.59197e-08
5.0239e-09
-2.3933e-06
-6.68965e-08
6.8687e-09
-2.72718e-06
-8.60405e-08
8.51735e-09
-3.07446e-06
-1.03063e-07
9.99435e-09
-3.4374e-06
-1.17361e-07
1.13089e-08
-3.81504e-06
1.24829e-08
-4.20275e-06
-1.27955e-07
-4.68407e-09
-2.54687e-08
-1.6311e-06
-2.38802e-08
-2.18187e-08
-2.0876e-06
-5.03172e-08
-1.94341e-08
-2.43383e-06
-7.38188e-08
-1.75072e-08
-2.7639e-06
-9.42371e-08
-1.58865e-08
-3.10578e-06
-1.11254e-07
-1.4512e-08
-3.46617e-06
-1.24825e-07
-1.33954e-08
-3.84273e-06
-1.24976e-08
-4.2305e-06
-1.34245e-07
-1.09377e-08
-4.24782e-08
-1.60692e-06
-2.8505e-08
-4.08972e-08
-2.04383e-06
-5.08564e-08
-3.98323e-08
-2.40509e-06
-7.15048e-08
-3.8974e-08
-2.74868e-06
-9.04608e-08
-3.83251e-08
-3.10046e-06
-1.07397e-07
-3.78475e-08
-3.46673e-06
-1.21388e-07
-3.75066e-08
-3.84803e-06
-3.73122e-08
-4.2399e-06
-1.31399e-07
-1.17617e-08
-5.86562e-08
-1.5923e-06
-2.96339e-08
-5.85637e-08
-2.02121e-06
-5.09296e-08
-5.86282e-08
-2.37832e-06
-7.14627e-08
-5.90621e-08
-2.72463e-06
-9.04273e-08
-5.94906e-08
-3.08168e-06
-1.07323e-07
-5.99305e-08
-3.45328e-06
-1.21415e-07
-6.03926e-08
-3.83893e-06
-6.08903e-08
-4.23439e-06
-1.31674e-07
-1.19752e-08
-7.40073e-08
-1.58046e-06
-3.00857e-08
-7.50829e-08
-2.00509e-06
-5.17871e-08
-7.61871e-08
-2.35892e-06
-7.2332e-08
-7.74751e-08
-2.70555e-06
-9.13993e-08
-7.87783e-08
-3.06343e-06
-1.08544e-07
-8.00068e-08
-3.43628e-06
-1.22968e-07
-8.11337e-08
-3.82316e-06
-8.21478e-08
-4.21962e-06
-1.33574e-07
-1.42503e-08
-1.56739e-06
-8.56593e-08
-3.41731e-08
-1.98806e-06
-8.75539e-08
-5.69339e-08
-2.33849e-06
-8.94252e-08
-7.88781e-08
-2.68454e-06
-9.14967e-08
-9.96112e-08
-3.04176e-06
-9.35717e-08
-1.18298e-07
-3.41367e-06
-9.55078e-08
-1.33927e-07
-3.79916e-06
-9.72306e-08
-4.19364e-06
-9.8718e-08
-1.45226e-07
-6.42115e-09
1.7731e-08
-1.54921e-06
-3.46812e-08
-2.05186e-08
2.298e-08
-1.978e-06
-3.94634e-08
-4.0789e-08
2.50521e-08
-2.32981e-06
-4.16204e-08
-5.97992e-08
2.66752e-08
-2.66403e-06
-4.35799e-08
-7.73991e-08
2.79463e-08
-3.01146e-06
-4.50633e-08
-9.33125e-08
2.89239e-08
-3.37501e-06
-4.61363e-08
-1.07156e-07
2.96341e-08
-3.75383e-06
-4.68436e-08
3.01398e-08
-4.14336e-06
-4.72465e-08
-1.1802e-07
-6.93869e-09
-8.03878e-10
-1.57041e-06
-2.2601e-08
3.47016e-09
-2.0021e-06
-4.32015e-08
5.32364e-09
-2.35212e-06
-6.19036e-08
6.724e-09
-2.68834e-06
-7.90305e-08
7.76813e-09
-3.03697e-06
-9.43335e-08
8.62077e-09
-3.4016e-06
-1.07339e-07
9.27107e-09
-3.78147e-06
9.76377e-09
-4.17227e-06
-1.1721e-07
-4.26871e-09
-2.25344e-08
-1.60498e-06
-2.23393e-08
-1.96487e-08
-2.0457e-06
-4.5508e-08
-1.77637e-08
-2.38758e-06
-6.66683e-08
-1.63639e-08
-2.71914e-06
-8.46866e-08
-1.51674e-08
-3.06464e-06
-1.0009e-07
-1.42585e-08
-3.42769e-06
-1.1262e-07
-1.36089e-08
-3.80711e-06
-1.31764e-08
-4.19833e-06
-1.21619e-07
-9.62189e-09
-3.93789e-08
-1.58032e-06
-2.56917e-08
-3.82016e-08
-2.00901e-06
-4.53658e-08
-3.72794e-08
-2.36572e-06
-6.32997e-08
-3.66009e-08
-2.71019e-06
-8.00327e-08
-3.61746e-08
-3.06253e-06
-9.51086e-08
-3.59047e-08
-3.42982e-06
-1.08003e-07
-3.57718e-08
-3.81276e-06
-3.5776e-08
-4.2075e-06
-1.17574e-07
-1.02597e-08
-5.52509e-08
-1.56604e-06
-2.61249e-08
-5.52318e-08
-1.98812e-06
-4.46839e-08
-5.52913e-08
-2.34162e-06
-6.27538e-08
-5.56292e-08
-2.68736e-06
-7.96451e-08
-5.59763e-08
-3.0448e-06
-9.48897e-08
-5.63288e-08
-3.41742e-06
-1.07835e-07
-5.66823e-08
-3.80487e-06
-5.70662e-08
-4.20313e-06
-1.17578e-07
-1.03741e-08
-7.03853e-08
-1.55483e-06
-2.63897e-08
-7.11609e-08
-1.97295e-06
-4.53037e-08
-7.20057e-08
-2.32312e-06
-6.35415e-08
-7.29795e-08
-2.66979e-06
-8.06548e-08
-7.39309e-08
-3.02818e-06
-9.61776e-08
-7.47721e-08
-3.40212e-06
-1.0945e-07
-7.54907e-08
-3.79088e-06
-7.61056e-08
-4.19027e-06
-1.19531e-07
-1.2514e-08
-1.54313e-06
-8.20066e-08
-3.03218e-08
-1.95797e-06
-8.32595e-08
-5.02904e-08
-2.30574e-06
-8.46172e-08
-6.99966e-08
-2.65145e-06
-8.6191e-08
-8.8635e-08
-3.0092e-06
-8.76721e-08
-1.05567e-07
-3.38237e-06
-8.89535e-08
-1.19962e-07
-3.77006e-06
-8.9998e-08
-4.16794e-06
-9.08239e-08
-1.30718e-07
-6.30555e-09
1.95157e-08
-1.5275e-06
-3.48559e-08
-2.12673e-08
2.26074e-08
-1.94797e-06
-3.7503e-08
-4.04447e-08
2.37011e-08
-2.29491e-06
-3.88368e-08
-5.78071e-08
2.45354e-08
-2.63098e-06
-4.00624e-08
-7.37062e-08
2.50255e-08
-2.97971e-06
-4.0702e-08
-8.8024e-08
2.51909e-08
-3.34484e-06
-4.08627e-08
-1.00426e-07
2.50652e-08
-3.72569e-06
-4.06182e-08
2.47315e-08
-4.11807e-06
-4.00665e-08
-1.1017e-07
-6.41787e-09
1.87608e-09
-1.54623e-06
-2.18758e-08
4.4367e-09
-1.96829e-06
-4.08767e-08
5.34705e-09
-2.31441e-06
-5.78205e-08
6.01237e-09
-2.65271e-06
-7.32941e-08
6.43653e-09
-3.00273e-06
-8.71072e-08
6.65806e-09
-3.36907e-06
-9.88671e-08
6.66175e-09
-3.75111e-06
6.50053e-09
-4.14483e-06
-1.07864e-07
-4.61529e-09
-2.03517e-08
-1.5776e-06
-2.26089e-08
-1.81477e-08
-2.00428e-06
-4.28245e-08
-1.65385e-08
-2.34506e-06
-6.10202e-08
-1.54627e-08
-2.6793e-06
-7.68609e-08
-1.47411e-08
-3.02745e-06
-9.06781e-08
-1.42129e-08
-3.39283e-06
-1.02112e-07
-1.39734e-08
-3.77485e-06
-1.39568e-08
-4.16928e-06
-1.10499e-07
-8.73979e-09
-3.67792e-08
-1.55504e-06
-2.35523e-08
-3.57816e-08
-1.97639e-06
-4.07455e-08
-3.49012e-08
-2.32992e-06
-5.71285e-08
-3.43391e-08
-2.67521e-06
-7.1044e-08
-3.39623e-08
-3.02999e-06
-8.49099e-08
-3.38566e-08
-3.39613e-06
-9.67177e-08
-3.38478e-08
-3.78089e-06
-3.39633e-08
-4.17835e-06
-1.05648e-07
-9.1172e-09
-5.22307e-08
-1.54136e-06
-2.32974e-08
-5.20523e-08
-1.9575e-06
-3.95746e-08
-5.1979e-08
-2.3081e-06
-5.55723e-08
-5.20764e-08
-2.65345e-06
-7.05948e-08
-5.22314e-08
-3.01134e-06
-8.4307e-08
-5.23705e-08
-3.38502e-06
-9.61004e-08
-5.25052e-08
-3.77423e-06
-5.26735e-08
-4.17515e-06
-1.05165e-07
-9.16664e-09
-6.70581e-08
-1.53072e-06
-2.34237e-08
-6.72367e-08
-1.94334e-06
-3.97982e-08
-6.76251e-08
-2.29093e-06
-5.604e-08
-6.81766e-08
-2.63729e-06
-7.13981e-08
-6.86569e-08
-2.99622e-06
-8.54243e-08
-6.89968e-08
-3.37129e-06
-9.7538e-08
-6.9202e-08
-3.76188e-06
-6.93164e-08
-4.16404e-06
-1.06922e-07
-1.1168e-08
-1.52031e-06
-7.85993e-08
-2.71134e-08
-1.93023e-06
-7.88596e-08
-4.47636e-08
-2.27599e-06
-7.95662e-08
-6.23612e-08
-2.62138e-06
-8.04851e-08
-7.91e-08
-2.97969e-06
-8.12605e-08
-9.4374e-08
-3.35412e-06
-8.17936e-08
-1.07473e-07
-3.7439e-06
-8.20751e-08
-4.14492e-06
-8.21563e-08
-1.17443e-07
-6.93702e-09
2.04342e-08
-1.50681e-06
-3.41182e-08
-2.15781e-08
2.15039e-08
-1.92001e-06
-3.46734e-08
-3.94906e-08
2.1634e-08
-2.263e-06
-3.53667e-08
-5.54565e-08
2.1677e-08
-2.60092e-06
-3.5629e-08
-6.99531e-08
2.13977e-08
-2.95107e-06
-3.53976e-08
-8.28609e-08
2.07861e-08
-3.31788e-06
-3.46812e-08
-9.39056e-08
1.98819e-08
-3.70081e-06
-3.3543e-08
1.87736e-08
-4.09597e-06
-3.20985e-08
-1.02488e-07
-6.65405e-09
3.97098e-09
-1.52301e-06
-2.1151e-08
4.95952e-09
-1.9371e-06
-3.81669e-08
4.97811e-09
-2.2806e-06
-5.37926e-08
4.91429e-09
-2.62018e-06
-6.79041e-08
4.74161e-09
-2.97182e-06
-8.04174e-08
4.36073e-09
-3.33997e-06
-9.10117e-08
3.76859e-09
-3.72423e-06
3.0172e-09
-4.1208e-06
-9.90908e-08
-5.08433e-09
-1.82448e-08
-1.55021e-06
-2.22192e-08
-1.65802e-08
-1.96511e-06
-3.99275e-08
-1.53111e-08
-2.30653e-06
-5.57258e-08
-1.47042e-08
-2.64375e-06
-6.98039e-08
-1.42639e-08
-2.99423e-06
-8.22177e-08
-1.41341e-08
-3.36176e-06
-9.25773e-08
-1.42623e-08
-3.7463e-06
-1.45969e-08
-4.14378e-06
-1.00267e-07
-7.83804e-09
-3.43565e-08
-1.531e-06
-2.1129e-08
-3.337e-08
-1.94617e-06
-3.71119e-08
-3.25142e-08
-2.29643e-06
-5.05028e-08
-3.19306e-08
-2.645e-06
-6.39562e-08
-3.17205e-08
-2.99892e-06
-7.64688e-08
-3.16178e-08
-3.36596e-06
-8.70594e-08
-3.16136e-08
-3.75278e-06
-3.17399e-08
-4.15293e-06
-9.51494e-08
-8.10732e-09
-4.93003e-08
-1.51821e-06
-2.05711e-08
-4.8779e-08
-1.92949e-06
-3.52734e-08
-4.84836e-08
-2.27707e-06
-4.93087e-08
-4.82782e-08
-2.62293e-06
-6.27157e-08
-4.81314e-08
-2.98137e-06
-7.50136e-08
-4.79545e-08
-3.35623e-06
-8.56621e-08
-4.77748e-08
-3.74726e-06
-4.76413e-08
-4.15076e-06
-9.39589e-08
-8.15734e-09
-6.36818e-08
-1.50809e-06
-2.07549e-08
-6.3049e-08
-1.91633e-06
-3.50717e-08
-6.28761e-08
-2.26209e-06
-4.94496e-08
-6.28953e-08
-2.60815e-06
-6.31808e-08
-6.28185e-08
-2.96766e-06
-7.5781e-08
-6.25801e-08
-3.34391e-06
-8.67282e-08
-6.22021e-08
-3.73634e-06
-6.17497e-08
-4.14116e-06
-9.53148e-08
-1.00789e-08
-1.49882e-06
-7.49951e-08
-2.43193e-08
-1.90483e-06
-7.4063e-08
-3.99328e-08
-2.24913e-06
-7.39929e-08
-5.55698e-08
-2.59434e-06
-7.41695e-08
-7.05041e-08
-2.95326e-06
-7.41697e-08
-8.41628e-08
-3.32899e-06
-7.39028e-08
-9.59254e-08
-3.7208e-06
-7.33796e-08
-4.12477e-06
-7.26761e-08
-1.04972e-07
-7.71857e-09
2.03501e-08
-1.48696e-06
-3.24323e-08
-2.18586e-08
1.97291e-08
-1.89416e-06
-3.13244e-08
-3.77794e-08
1.9044e-08
-2.2349e-06
-3.11133e-08
-5.25454e-08
1.83064e-08
-2.57384e-06
-3.05072e-08
-6.57503e-08
1.73178e-08
-2.9256e-06
-2.94604e-08
-7.73492e-08
1.60203e-08
-3.29422e-06
-2.79449e-08
-8.71176e-08
1.4443e-08
-3.67933e-06
-2.60161e-08
1.26717e-08
-4.07723e-06
-2.37918e-08
-9.4572e-08
-6.89313e-09
5.10453e-09
-1.50079e-06
-2.02234e-08
4.7617e-09
-1.90869e-06
-3.53359e-08
4.19917e-09
-2.25053e-06
-4.96114e-08
3.54682e-09
-2.59103e-06
-6.25121e-08
2.87718e-09
-2.94435e-06
-7.3848e-08
1.97463e-09
-3.31446e-06
-8.33513e-08
8.77641e-10
-3.70102e-06
-3.68274e-10
-4.10042e-06
-9.05298e-08
-5.38011e-09
-1.59348e-08
-1.52372e-06
-2.01604e-08
-1.47239e-08
-1.93074e-06
-3.63099e-08
-1.39581e-08
-2.27212e-06
-4.99643e-08
-1.36332e-08
-2.61331e-06
-6.30133e-08
-1.35765e-08
-2.9646e-06
-7.42826e-08
-1.38542e-08
-3.33453e-06
-8.36544e-08
-1.42799e-08
-3.72163e-06
-1.4872e-08
-4.12213e-06
-9.06426e-08
-6.73262e-09
-3.18282e-08
-1.5083e-06
-1.82583e-08
-3.07919e-08
-1.91847e-06
-3.24706e-08
-3.00664e-08
-2.26584e-06
-4.49107e-08
-2.95321e-08
-2.61616e-06
-5.83088e-08
-2.93027e-08
-2.96901e-06
-6.91301e-08
-2.90307e-08
-3.33983e-06
-7.8477e-08
-2.89207e-08
-3.72866e-06
-2.8969e-08
-4.13147e-06
-8.56782e-08
-7.17692e-09
-4.61664e-08
-1.49662e-06
-1.81988e-08
-4.51655e-08
-1.90398e-06
-3.10063e-08
-4.45395e-08
-2.24968e-06
-4.35851e-08
-4.40488e-08
-2.59571e-06
-5.56349e-08
-4.35382e-08
-2.95496e-06
-6.66359e-08
-4.29851e-08
-3.33114e-06
-7.6181e-08
-4.24273e-08
-3.72407e-06
-4.19317e-08
-4.13013e-06
-8.36897e-08
-7.21337e-09
-5.99539e-08
-1.48701e-06
-1.82802e-08
-5.83921e-08
-1.89193e-06
-3.0822e-08
-5.75899e-08
-2.23639e-06
-4.35295e-08
-5.70219e-08
-2.58236e-06
-5.57333e-08
-5.63415e-08
-2.94254e-06
-6.69621e-08
-5.54881e-08
-3.32005e-06
-7.67513e-08
-5.44968e-08
-3.71435e-06
-5.34494e-08
-4.12173e-06
-8.45039e-08
-9.09957e-09
-1.47872e-06
-7.08805e-08
-2.1745e-08
-1.8818e-06
-6.86752e-08
-3.55266e-08
-2.22507e-06
-6.77587e-08
-4.93409e-08
-2.57029e-06
-6.71475e-08
-6.25454e-08
-2.92993e-06
-6.63522e-08
-7.46225e-08
-3.30699e-06
-6.52804e-08
-8.50399e-08
-3.70078e-06
-6.3957e-08
-4.10752e-06
-6.2475e-08
-9.31105e-08
-8.22661e-09
1.94082e-08
-1.46813e-06
-2.99728e-08
-2.14302e-08
1.74476e-08
-1.87072e-06
-2.75927e-08
-3.56535e-08
1.60435e-08
-2.21028e-06
-2.63579e-08
-4.90486e-08
1.46672e-08
-2.55005e-06
-2.49809e-08
-6.09995e-08
1.30779e-08
-2.90341e-06
-2.32209e-08
-7.13571e-08
1.12189e-08
-3.27395e-06
-2.10279e-08
-7.99293e-08
9.11067e-09
-3.6613e-06
-1.84521e-08
6.82579e-09
-4.06192e-06
-1.56031e-08
-8.63386e-08
-6.89319e-09
5.5644e-09
-1.47999e-06
-1.89755e-08
4.22865e-09
-1.8833e-06
-3.24407e-08
3.21814e-09
-2.22416e-06
-4.5369e-08
2.19067e-09
-2.56553e-06
-5.70688e-08
1.04303e-09
-2.92052e-06
-6.72608e-08
-2.76025e-10
-3.29267e-06
-7.57317e-08
-1.71655e-09
-3.68161e-06
-3.29964e-09
-4.08382e-06
-8.20781e-08
-5.31735e-09
-1.3782e-08
-1.49899e-06
-1.77759e-08
-1.30104e-08
-1.90096e-06
-3.19752e-08
-1.26825e-08
-2.24183e-06
-4.48776e-08
-1.25396e-08
-2.5856e-06
-5.65999e-08
-1.28295e-08
-2.93891e-06
-6.68012e-08
-1.32776e-08
-3.31123e-06
-7.52144e-08
-1.38558e-08
-3.70096e-06
-1.45849e-08
-4.10444e-06
-8.14948e-08
-5.66661e-09
-2.91032e-08
-1.48725e-06
-1.57625e-08
-2.7929e-08
-1.89337e-06
-2.76067e-08
-2.72269e-08
-2.23937e-06
-4.08858e-08
-2.68218e-08
-2.58844e-06
-5.22249e-08
-2.63078e-08
-2.9441e-06
-6.2139e-08
-2.59032e-08
-3.31719e-06
-7.04628e-08
-2.56413e-08
-3.70844e-06
-2.5542e-08
-4.11398e-06
-7.68693e-08
-6.21672e-09
-4.26795e-08
-1.47677e-06
-1.59065e-08
-4.11037e-08
-1.88103e-06
-2.70619e-08
-4.01008e-08
-2.22557e-06
-3.83754e-08
-3.92621e-08
-2.57187e-06
-4.9124e-08
-3.83637e-08
-2.93206e-06
-5.89106e-08
-3.74013e-08
-3.30976e-06
-6.74067e-08
-3.6437e-08
-3.70466e-06
-3.55485e-08
-4.11326e-06
-7.41502e-08
-6.24751e-09
-5.56917e-08
-1.4677e-06
-1.594e-08
-5.31521e-08
-1.8701e-06
-2.69302e-08
-5.1693e-08
-2.21373e-06
-3.81093e-08
-5.05149e-08
-2.55985e-06
-4.88623e-08
-4.92223e-08
-2.92083e-06
-5.8756e-08
-4.77554e-08
-3.29971e-06
-6.7404e-08
-4.61584e-08
-3.69587e-06
-4.45248e-08
-4.10571e-06
-7.43268e-08
-8.08335e-09
-1.46019e-06
-6.60779e-08
-1.92475e-08
-1.86109e-06
-6.26049e-08
-3.13609e-08
-2.20374e-06
-6.08294e-08
-4.34645e-08
-2.54917e-06
-5.94372e-08
-5.50005e-08
-2.90965e-06
-5.787e-08
-6.55285e-08
-3.28809e-06
-5.60322e-08
-7.46169e-08
-3.68379e-06
-5.39561e-08
-4.09307e-06
-5.17445e-08
-8.17188e-08
-8.35386e-09
1.77669e-08
-1.45073e-06
-2.67913e-08
-2.04778e-08
1.47899e-08
-1.84999e-06
-2.33316e-08
-3.31866e-08
1.28197e-08
-2.18901e-06
-2.1322e-08
-4.51576e-08
1.09658e-08
-2.52967e-06
-1.93113e-08
-5.58179e-08
8.93936e-09
-2.88463e-06
-1.69847e-08
-6.49481e-08
6.68303e-09
-3.25715e-06
-1.42781e-08
-7.23812e-08
4.21182e-09
-3.64677e-06
-1.12323e-08
1.58527e-09
-4.05001e-06
-7.94224e-09
-7.78398e-08
-6.69287e-09
5.51855e-09
-1.461e-06
-1.75742e-08
3.4899e-09
-1.86106e-06
-2.95402e-08
2.14374e-09
-2.20146e-06
-4.11192e-08
8.75385e-10
-2.5438e-06
-5.15851e-08
-5.74601e-10
-2.90047e-06
-6.06637e-08
-2.10776e-09
-3.27472e-06
-6.81347e-08
-3.78067e-09
-3.66607e-06
-5.57055e-09
-4.071e-06
-7.37024e-08
-5.01836e-09
-1.17586e-08
-1.47666e-06
-1.56245e-08
-1.13341e-08
-1.87547e-06
-2.7558e-08
-1.12809e-08
-2.21641e-06
-4.00981e-08
-1.14564e-08
-2.56016e-06
-5.05083e-08
-1.17364e-08
-2.91727e-06
-5.95818e-08
-1.22099e-08
-3.29198e-06
-6.70749e-08
-1.28242e-08
-3.68435e-06
-1.35813e-08
-4.09072e-06
-7.26946e-08
-4.7602e-09
-2.61179e-08
-1.46809e-06
-1.35883e-08
-2.47296e-08
-1.87108e-06
-2.43363e-08
-2.39473e-08
-2.21591e-06
-3.59071e-08
-2.33766e-08
-2.5647e-06
-4.64274e-08
-2.275e-08
-2.92239e-06
-5.53569e-08
-2.21717e-08
-3.29823e-06
-6.27507e-08
-2.17069e-08
-3.69208e-06
-2.14032e-08
-4.10037e-06
-6.84458e-08
-5.30178e-09
-3.87289e-08
-1.45882e-06
-1.37634e-08
-3.65108e-08
-1.86073e-06
-2.35202e-08
-3.50954e-08
-2.20461e-06
-3.35266e-08
-3.38792e-08
-2.5513e-06
-4.30165e-08
-3.25763e-08
-2.91268e-06
-5.16263e-08
-3.12039e-08
-3.29204e-06
-5.91006e-08
-2.98306e-08
-3.68899e-06
-2.85438e-08
-4.10002e-06
-6.51078e-08
-5.31199e-09
-5.07873e-08
-1.45028e-06
-1.37527e-08
-4.7276e-08
-1.85083e-06
-2.33187e-08
-4.51707e-08
-2.19403e-06
-3.30463e-08
-4.33983e-08
-2.54054e-06
-4.23733e-08
-4.15214e-08
-2.90249e-06
-5.09393e-08
-3.94775e-08
-3.28279e-06
-5.84548e-08
-3.73156e-08
-3.68079e-06
-3.51362e-08
-4.09291e-06
-6.45712e-08
-7.02762e-09
-1.4434e-06
-6.05157e-08
-1.67872e-08
-1.84271e-06
-5.58449e-08
-2.732e-08
-2.18507e-06
-5.32563e-08
-3.7774e-08
-2.53093e-06
-5.1129e-08
-4.76657e-08
-2.89235e-06
-4.88651e-08
-5.66585e-08
-3.27216e-06
-4.63401e-08
-6.44394e-08
-3.66965e-06
-4.35973e-08
-4.0812e-06
-4.07419e-08
-7.06143e-08
-8.21711e-09
1.55951e-08
-1.43506e-06
-2.30239e-08
-1.92226e-08
1.19415e-08
-1.83212e-06
-1.87746e-08
-3.04921e-08
9.58747e-09
-2.17107e-06
-1.62168e-08
-4.10328e-08
7.43065e-09
-2.51277e-06
-1.3747e-08
-5.03487e-08
5.14554e-09
-2.86939e-06
-1.10328e-08
-5.82264e-08
2.67123e-09
-3.2439e-06
-7.99998e-09
-6.45492e-08
1.70845e-11
-3.63574e-06
-4.67582e-09
-2.78074e-09
-4.04144e-06
-1.13694e-09
-6.91463e-08
-6.41329e-09
5.13231e-09
-1.44409e-06
-1.61644e-08
2.70593e-09
-1.84203e-06
-2.67263e-08
1.16399e-09
-2.18244e-06
-3.69277e-08
-2.57174e-10
-2.52587e-06
-4.613e-08
-1.76425e-09
-2.88432e-06
-5.40439e-08
-3.39347e-09
-3.2607e-06
-6.05115e-08
-5.1341e-09
-3.6544e-06
-6.98025e-09
-4.06191e-06
-6.53473e-08
-4.7276e-09
-9.77595e-09
-1.45699e-06
-1.38932e-08
-9.54721e-09
-1.85401e-06
-2.43331e-08
-9.59083e-09
-2.19518e-06
-3.50158e-08
-9.75532e-09
-2.53994e-06
-4.44731e-08
-1.01043e-08
-2.89943e-06
-5.24691e-08
-1.05373e-08
-3.27679e-06
-5.90516e-08
-1.10842e-08
-3.67177e-06
-1.17679e-08
-4.08088e-06
-6.40413e-08
-4.04347e-09
-2.27899e-08
-1.45101e-06
-1.17364e-08
-2.11195e-08
-1.85178e-06
-2.10754e-08
-2.0179e-08
-2.19594e-06
-3.16135e-08
-1.94436e-08
-2.54399e-06
-4.07611e-08
-1.85916e-08
-2.90482e-06
-4.85746e-08
-1.77924e-08
-3.28311e-06
-5.50463e-08
-1.70921e-08
-3.67955e-06
-1.65491e-08
-4.09049e-06
-6.00916e-08
-4.50736e-09
-3.42059e-08
-1.44287e-06
-1.18356e-08
-3.13396e-08
-1.84314e-06
-2.02797e-08
-2.95064e-08
-2.1868e-06
-2.89526e-08
-2.78997e-08
-2.53413e-06
-3.7125e-08
-2.62068e-08
-2.89685e-06
-4.45108e-08
-2.44447e-08
-3.27796e-06
-5.09483e-08
-2.26824e-08
-3.67691e-06
-2.10141e-08
-4.0902e-06
-5.62412e-08
-4.47017e-09
-4.5156e-08
-1.43483e-06
-1.17187e-08
-4.07611e-08
-1.83413e-06
-1.98961e-08
-3.80683e-08
-2.17725e-06
-2.81559e-08
-3.57546e-08
-2.52438e-06
-3.60182e-08
-3.33546e-08
-2.88744e-06
-4.32201e-08
-3.08003e-08
-3.26919e-06
-4.95906e-08
-2.81417e-08
-3.66891e-06
-2.54818e-08
-4.08305e-06
-5.49289e-08
-5.99116e-09
-1.42838e-06
-5.4153e-08
-1.43517e-08
-1.82662e-06
-4.84494e-08
-2.32979e-08
-2.169e-06
-4.51577e-08
-3.20786e-08
-2.51547e-06
-4.23932e-08
-4.02954e-08
-2.8779e-06
-3.95398e-08
-4.77332e-08
-3.25903e-06
-3.64426e-08
-5.42185e-08
-3.6581e-06
-3.31487e-08
-4.07156e-06
-2.97611e-08
-5.95248e-08
-7.91421e-09
1.30962e-08
-1.42137e-06
-1.88593e-08
-1.77833e-08
9.1102e-09
-1.81716e-06
-1.41864e-08
-2.76559e-08
6.56927e-09
-2.1565e-06
-1.12507e-08
-3.67441e-08
4.28228e-09
-2.49943e-06
-8.51545e-09
-4.46507e-08
1.91345e-09
-2.85777e-06
-5.60918e-09
-5.12296e-08
-6.04671e-10
-3.23426e-06
-2.44231e-09
-5.64432e-08
-3.28892e-09
-3.62818e-06
9.72188e-10
-6.09585e-09
-4.03609e-06
4.58172e-09
-6.0256e-08
-6.11557e-09
4.60944e-09
-1.42948e-06
-1.48017e-08
2.06704e-09
-1.82629e-06
-2.40065e-08
4.85156e-10
-2.16713e-06
-3.27985e-08
-9.20393e-10
-2.51186e-06
-4.06394e-08
-2.39674e-09
-2.87215e-06
-4.73044e-08
-3.96697e-09
-3.25065e-06
-5.27347e-08
-5.63943e-09
-3.6466e-06
-7.41836e-09
-4.05644e-06
-5.68597e-08
-4.50741e-09
-7.72132e-09
-1.44014e-06
-1.247e-08
-7.52629e-09
-1.83644e-06
-2.14541e-08
-7.54853e-09
-2.17815e-06
-3.04232e-08
-7.63417e-09
-2.52424e-06
-3.84676e-08
-7.88509e-09
-2.88588e-06
-4.52988e-08
-8.1878e-09
-3.26572e-06
-5.0902e-08
-8.58455e-09
-3.66319e-06
-9.11553e-09
-4.0748e-06
-5.52564e-08
-3.55493e-09
-1.90177e-08
-1.43614e-06
-1.02494e-08
-1.70173e-08
-1.83558e-06
-1.82617e-08
-1.58523e-08
-2.17961e-06
-2.72248e-08
-1.48873e-08
-2.52775e-06
-3.49079e-08
-1.38133e-08
-2.89119e-06
-4.15422e-08
-1.27811e-08
-3.27186e-06
-4.70317e-08
-1.18325e-08
-3.67079e-06
-1.10339e-08
-4.08413e-06
-5.14444e-08
-3.83763e-09
-2.90345e-08
-1.429e-06
-1.00783e-08
-2.55736e-08
-1.82833e-06
-1.71844e-08
-2.33496e-08
-2.17218e-06
-2.44032e-08
-2.13749e-08
-2.5204e-06
-3.11377e-08
-1.93343e-08
-2.88457e-06
-3.72001e-08
-1.72222e-08
-3.26743e-06
-4.25494e-08
-1.51114e-08
-3.66826e-06
-1.30974e-08
-4.08352e-06
-4.71407e-08
-3.70051e-09
-3.8777e-08
-1.42138e-06
-9.74575e-09
-3.36633e-08
-1.81997e-06
-1.64749e-08
-3.04861e-08
-2.16337e-06
-2.31665e-08
-2.77197e-08
-2.51133e-06
-2.94607e-08
-2.48862e-08
-2.87557e-06
-3.52156e-08
-2.19121e-08
-3.25872e-06
-4.04062e-08
-1.88452e-08
-3.65996e-06
-1.57862e-08
-4.07573e-06
-4.49977e-08
-4.95152e-09
-1.41516e-06
-4.70311e-08
-1.18481e-08
-1.81281e-06
-4.05553e-08
-1.91135e-08
-2.15547e-06
-3.67264e-08
-2.61098e-08
-2.5027e-06
-3.34697e-08
-3.25628e-08
-2.86616e-06
-3.01513e-08
-3.83883e-08
-3.24847e-06
-2.66209e-08
-4.35767e-08
-3.64882e-06
-2.29086e-08
-4.06369e-06
-1.9113e-08
-4.80845e-08
-7.50979e-09
1.04884e-08
-1.40987e-06
-1.44711e-08
-1.62326e-08
6.50112e-09
-1.80524e-06
-9.69663e-09
-2.46893e-08
3.97203e-09
-2.14537e-06
-6.64607e-09
-3.22571e-08
1.71826e-09
-2.48973e-06
-3.84783e-09
-3.86629e-08
-5.81213e-10
-2.84984e-06
-9.31549e-10
-4.38649e-08
-3.00844e-09
-3.22824e-06
2.20005e-09
-4.79561e-08
-5.57745e-09
-3.62406e-06
5.55104e-09
-8.27468e-09
-4.0338e-06
9.07985e-09
-5.10366e-08
-5.82595e-09
4.16507e-09
-1.41733e-06
-1.34805e-08
1.75884e-09
-1.81389e-06
-2.13169e-08
2.82281e-10
-2.1556e-06
-2.8596e-08
-1.00517e-09
-2.50186e-06
-3.49325e-08
-2.33071e-09
-2.86406e-06
-4.0231e-08
-3.73188e-09
-3.24463e-06
-4.45473e-08
-5.2357e-09
-3.64262e-06
-6.85582e-09
-4.05444e-06
-4.79641e-08
-4.34166e-09
-5.43014e-09
-1.4262e-06
-1.12316e-08
-5.12777e-09
-1.82266e-06
-1.87269e-08
-5.03078e-09
-2.16534e-06
-2.59675e-08
-4.99095e-09
-2.51301e-06
-3.23434e-08
-5.01545e-09
-2.87681e-06
-3.77643e-08
-5.13077e-09
-3.2589e-06
-4.22773e-08
-5.32802e-09
-3.65858e-06
-5.65746e-09
-4.07229e-06
-4.59788e-08
-3.23041e-09
-1.47101e-08
-1.42363e-06
-8.973e-09
-1.23806e-08
-1.82258e-06
-1.56456e-08
-1.09724e-08
-2.16699e-06
-2.2455e-08
-9.73634e-09
-2.51619e-06
-2.87624e-08
-8.47767e-09
-2.8813e-06
-3.39163e-08
-7.20609e-09
-3.26463e-06
-3.83142e-08
-6.01184e-09
-3.6657e-06
-4.96199e-09
-4.08104e-06
-4.20926e-08
-3.23169e-09
-2.31861e-08
-1.41729e-06
-8.34081e-09
-1.92467e-08
-1.81635e-06
-1.39936e-08
-1.66988e-08
-2.1608e-06
-1.95644e-08
-1.44149e-08
-2.51015e-06
-2.46761e-08
-1.208e-08
-2.87585e-06
-2.92619e-08
-9.68e-09
-3.26037e-06
-3.34389e-08
-7.27735e-09
-3.66281e-06
-4.96746e-09
-4.0796e-06
-3.73378e-08
-2.9265e-09
-3.16995e-08
-1.40993e-06
-7.66214e-09
-2.60983e-08
-1.80838e-06
-1.27887e-08
-2.25782e-08
-2.15236e-06
-1.77351e-08
-1.94786e-08
-2.50131e-06
-2.22902e-08
-1.6322e-08
-2.86677e-06
-2.64722e-08
-1.30359e-08
-3.25117e-06
-3.04298e-08
-9.66111e-09
-3.65361e-06
-6.29232e-09
-4.07051e-06
-3.43145e-08
-3.83249e-09
-1.40374e-06
-3.92817e-08
-9.10716e-09
-1.80126e-06
-3.23686e-08
-1.45063e-08
-2.14444e-06
-2.82093e-08
-1.95392e-08
-2.49252e-06
-2.46227e-08
-2.40742e-08
-2.85694e-06
-2.10003e-08
-2.81926e-08
-3.2402e-06
-1.71837e-08
-3.20703e-08
-3.64141e-06
-1.31914e-08
-4.05706e-06
-9.1119e-09
-3.58627e-08
-7.02157e-09
8.02656e-09
-1.40075e-06
-1.01258e-08
-1.45465e-08
4.32727e-09
-1.79647e-06
-5.57608e-09
-2.15039e-08
1.98743e-09
-2.13777e-06
-2.63791e-09
-2.74243e-08
-1.00232e-10
-2.48375e-06
3.82031e-11
-3.22008e-08
-2.20727e-09
-2.84569e-06
2.82616e-09
-3.59225e-08
-4.43397e-09
-3.22588e-06
5.7915e-09
-3.88396e-08
-6.80257e-09
-3.6233e-06
8.96271e-09
-9.31132e-09
-4.03443e-06
1.23153e-08
-4.12246e-08
-5.52412e-09
4.02707e-09
-1.40781e-06
-1.21101e-08
1.95803e-09
-1.80494e-06
-1.84833e-08
7.0551e-10
-2.14795e-06
-2.40997e-08
-3.76715e-10
-2.49597e-06
-2.87461e-08
-1.47443e-09
-2.86015e-06
-3.25065e-08
-2.6416e-09
-3.24266e-06
-3.56061e-08
-3.91707e-09
-3.64241e-06
-5.32532e-09
-4.05572e-06
-3.83072e-08
-4.17142e-09
-2.73447e-09
-1.41527e-06
-9.97217e-09
-2.23199e-09
-1.81268e-06
-1.58895e-08
-1.95415e-09
-2.15677e-06
-2.12581e-08
-1.71551e-09
-2.50631e-06
-2.57575e-08
-1.52375e-09
-2.87227e-06
-2.95277e-08
-1.40223e-09
-3.25637e-06
-3.28018e-08
-1.37241e-09
-3.65786e-06
-1.48058e-09
-4.07313e-06
-3.5813e-08
-2.93375e-09
-9.81388e-09
-1.41362e-06
-7.60815e-09
-7.21044e-09
-1.81293e-06
-1.26593e-08
-5.58598e-09
-2.15831e-06
-1.74856e-08
-4.12059e-09
-2.50897e-06
-2.17597e-08
-2.64809e-09
-2.87591e-06
-2.53173e-08
-1.17508e-09
-3.2613e-06
-2.84898e-08
2.44712e-10
-3.66415e-06
1.52003e-09
-4.08092e-06
-3.16113e-08
-2.58522e-09
-1.66873e-08
-1.40783e-06
-6.40672e-09
-1.24443e-08
-1.8073e-06
-1.03861e-08
-9.67919e-09
-2.15273e-06
-1.40672e-08
-7.16767e-09
-2.50343e-06
-1.73031e-08
-4.61773e-09
-2.87065e-06
-2.02194e-08
-2.00215e-09
-3.25662e-06
-2.31177e-08
6.20643e-10
-3.66028e-06
3.17051e-09
-4.07803e-06
-2.63407e-08
-2.03042e-09
-2.4042e-08
-1.40055e-06
-5.24129e-09
-1.82378e-08
-1.79938e-06
-8.51466e-09
-1.45479e-08
-2.14422e-06
-1.14605e-08
-1.12521e-08
-2.49428e-06
-1.40477e-08
-7.90511e-09
-2.8609e-06
-1.6493e-08
-4.42367e-09
-3.24631e-06
-1.91559e-08
-8.45152e-10
-3.64948e-06
2.74599e-09
-4.06685e-06
-2.2394e-08
-2.51513e-09
-1.39415e-06
-3.1117e-08
-5.90704e-09
-1.79196e-06
-2.41537e-08
-9.16672e-09
-2.13583e-06
-1.98966e-08
-1.19792e-08
-2.48477e-06
-1.61915e-08
-1.43923e-08
-2.85003e-06
-1.24067e-08
-1.66755e-08
-3.23388e-06
-8.45444e-09
-1.92197e-08
-3.63539e-06
-4.31784e-09
-4.05107e-06
-6.89989e-11
-2.23974e-08
-6.43364e-09
5.94981e-09
-1.39421e-06
-6.06479e-09
-1.26444e-08
2.77609e-09
-1.791e-06
-2.04498e-09
-1.79311e-08
7.62967e-10
-2.13383e-06
5.74989e-10
-2.20367e-08
-1.03937e-09
-2.48163e-06
3.01555e-09
-2.49902e-08
-2.88341e-09
-2.8454e-06
5.54285e-09
-2.70765e-08
-4.84741e-09
-3.2272e-06
8.2554e-09
-2.87432e-08
-6.9673e-09
-3.62586e-06
1.11808e-08
-9.25127e-09
-4.03777e-06
1.43076e-08
-3.04629e-08
-5.15758e-09
4.40067e-09
-1.4011e-06
-1.05468e-08
2.80592e-09
-1.79959e-06
-1.52715e-08
1.85356e-09
-2.14433e-06
-1.89945e-08
1.0409e-09
-2.49433e-06
-2.17198e-08
2.12112e-10
-2.86052e-06
-2.3737e-08
-6.94945e-10
-3.2448e-06
-2.54937e-08
-1.72263e-09
-3.6459e-06
-2.90397e-09
-4.0601e-06
-2.74693e-08
-3.89545e-09
4.77907e-10
-1.40746e-06
-8.45209e-09
1.23285e-09
-1.80655e-06
-1.25929e-08
1.71229e-09
-2.15249e-06
-1.5907e-08
2.1684e-09
-2.50413e-06
-1.82456e-08
2.58729e-09
-2.8725e-06
-2.01689e-08
2.93066e-09
-3.25808e-06
-2.20436e-08
3.18198e-09
-3.66089e-06
3.28932e-09
-4.07704e-06
-2.43267e-08
-2.52164e-09
-4.31576e-09
-1.40631e-06
-5.87936e-09
-1.54543e-09
-1.8068e-06
-9.03956e-09
2.26768e-10
-2.15367e-06
-1.16588e-08
1.87069e-09
-2.50605e-06
-1.36671e-08
3.51127e-09
-2.87483e-06
-1.53264e-08
5.14979e-09
-3.26186e-06
-1.71016e-08
6.74405e-09
-3.66594e-06
8.2219e-09
-4.08341e-06
-1.9546e-08
-1.76236e-09
-9.62476e-09
-1.40076e-06
-4.02288e-09
-5.29777e-09
-1.8013e-06
-6.00089e-09
-2.45862e-09
-2.14807e-06
-7.48304e-09
1.73138e-10
-2.50025e-06
-8.54082e-09
2.84464e-09
-2.86893e-06
-9.55563e-09
5.59331e-09
-3.25606e-06
-1.10742e-08
8.37222e-09
-3.6604e-06
1.11007e-08
-4.07833e-06
-1.36586e-08
-8.71694e-10
-1.59921e-08
-1.39331e-06
-2.21472e-09
-1.03086e-08
-1.79304e-06
-3.29128e-09
-6.64683e-09
-2.13896e-06
-3.908e-09
-3.31327e-09
-2.49019e-06
-4.2479e-09
9.02917e-11
-2.85781e-06
-4.76463e-09
3.64586e-09
-3.24385e-06
-6.05991e-09
7.32803e-09
-3.64714e-06
1.10629e-08
-4.06415e-06
-8.73057e-09
-8.63336e-10
-1.38646e-06
-2.2825e-08
-1.97433e-09
-1.78493e-06
-1.62317e-08
-2.74234e-09
-2.12959e-06
-1.21224e-08
-3.02156e-09
-2.47934e-06
-8.46744e-09
-3.04996e-09
-2.84517e-06
-4.74202e-09
-3.34367e-09
-3.22917e-06
-7.83367e-10
-4.5329e-09
-3.63026e-06
3.3855e-09
-4.04504e-06
7.71682e-09
-7.2286e-09
-5.69287e-09
4.48399e-09
-1.39045e-06
-2.55407e-09
-1.03901e-08
2.00637e-09
-1.789e-06
6.83907e-10
-1.37754e-08
4.1272e-10
-2.13373e-06
2.87281e-09
-1.57855e-08
-1.03978e-09
-2.48353e-06
4.94169e-09
-1.66591e-08
-2.56864e-09
-2.84911e-06
7.14304e-09
-1.69063e-08
-4.24593e-09
-3.23227e-06
9.55599e-09
-1.72178e-08
-6.10655e-09
-3.63165e-06
1.22114e-08
-8.16758e-09
-4.04362e-06
1.5108e-08
-1.83011e-08
-4.64689e-09
5.46398e-09
-1.39744e-06
-8.60396e-09
4.40393e-09
-1.79804e-06
-1.13909e-08
3.78767e-09
-2.14492e-06
-1.29159e-08
3.27416e-09
-2.49712e-06
-1.34177e-08
2.71041e-09
-2.86531e-06
-1.34445e-08
2.06804e-09
-3.25109e-06
-1.37121e-08
1.27684e-09
-3.65302e-06
3.0713e-10
-4.06732e-06
-1.49626e-08
-3.40532e-09
4.34504e-09
-1.40294e-06
-6.42802e-09
5.31018e-09
-1.80444e-06
-8.45592e-09
5.95862e-09
-2.15264e-06
-9.42671e-09
6.60596e-09
-2.5065e-06
-9.3604e-09
7.22314e-09
-2.87708e-06
-9.20994e-09
7.76173e-09
-3.26392e-06
-9.49884e-09
8.2079e-09
-3.66753e-06
8.50616e-09
-4.08371e-06
-1.10262e-08
-1.84578e-09
1.75807e-09
-1.40188e-06
-3.53621e-09
4.53884e-09
-1.80435e-06
-4.43109e-09
6.35662e-09
-2.15318e-06
-4.49798e-09
8.10032e-09
-2.50749e-06
-3.96839e-09
9.8391e-09
-2.87798e-06
-3.42578e-09
1.15971e-08
-3.26624e-06
-3.63834e-09
1.3326e-08
-3.67085e-06
1.49606e-08
-4.08809e-06
-5.4113e-09
-6.32551e-10
-2.11881e-09
-1.39626e-06
-8.63188e-10
1.97862e-09
-1.79851e-06
-4.96457e-10
4.77226e-09
-2.14686e-06
6.52291e-10
7.38354e-09
-2.50069e-06
2.10858e-09
1.0077e-08
-2.87063e-06
3.24655e-09
1.28687e-08
-3.25847e-06
3.23629e-09
1.5728e-08
-3.6628e-06
1.85841e-08
-4.07996e-06
1.23937e-09
7.19563e-10
-7.78942e-09
-1.38837e-06
1.71051e-09
-2.61319e-09
-1.78945e-06
3.22563e-09
8.27377e-10
-2.13654e-06
5.36031e-09
4.02417e-09
-2.48897e-06
7.60107e-09
7.35151e-09
-2.85733e-06
9.23448e-09
1.08702e-08
-3.24349e-06
9.38578e-09
1.45732e-08
-3.64615e-06
1.83973e-08
-4.06178e-06
7.19264e-09
1.3251e-09
-1.38078e-06
-1.47977e-08
2.92745e-09
-1.78019e-06
-8.96638e-09
5.09799e-09
-2.12565e-06
-5.29865e-09
7.75311e-09
-2.47612e-06
-1.86756e-09
1.04026e-08
-2.84214e-06
1.65897e-09
1.22723e-08
-3.22566e-06