/*--------------------------------*- C++ -*----------------------------------*\
| =========                 |                                                 |
| \\      /  F ield         | OpenFOAM: The Open Source CFD Toolbox           |
|  \\    /   O peration     | Version:  plus.master.MPPICInterFoam            |
|   \\  /    A nd           | Web:      www.OpenFOAM.com                      |
|    \\/     M anipulation  |                                                 |
\*---------------------------------------------------------------------------*/
FoamFile
{
    version     2.0;
    format      ascii;
    class       volVectorField;
    location    "13";
    object      U;
}
// * * * * * * * * * * * * * * * * * * * * * * * * * * * * * * * * * * * * * //

dimensions      [0 1 -1 0 0 0 0];

internalField   nonuniform List<vector> 
11821
(
(0.000266056 0.000387476 -0.0330511)
(0.000278846 0.000550739 -0.036908)
(0.00019983 0.000683596 -0.0384809)
(0.000109353 0.000805524 -0.0391585)
(4.24878e-05 0.000898703 -0.0397067)
(-4.22706e-06 0.000967823 -0.0402099)
(-3.53796e-05 0.00101705 -0.0406506)
(-5.06863e-05 0.00104693 -0.0409838)
(2.0885e-05 0.000131809 -0.0335582)
(-1.77817e-05 0.000298414 -0.0374647)
(-0.000140169 0.000418678 -0.0389041)
(-0.000255139 0.000511412 -0.0395579)
(-0.000337328 0.000581458 -0.040088)
(-0.000394346 0.000634184 -0.0405659)
(-0.000429189 0.000672201 -0.0409835)
(-0.00044271 0.000696731 -0.0413007)
(-5.3875e-05 -0.00027858 -0.0343058)
(-0.000155602 -0.000153265 -0.0384829)
(-0.000350204 -5.64975e-05 -0.0396829)
(-0.000508223 1.72996e-05 -0.04011)
(-0.000611932 7.38696e-05 -0.0405193)
(-0.00067648 0.000117241 -0.0409198)
(-0.000711235 0.000149354 -0.0412905)
(-0.000720162 0.000171733 -0.0415807)
(-5.47276e-05 -0.000685045 -0.033792)
(-0.000183088 -0.000628308 -0.0375858)
(-0.000350573 -0.000584598 -0.0391213)
(-0.000489323 -0.00054671 -0.039858)
(-0.000588935 -0.000514694 -0.0404262)
(-0.000659433 -0.000487704 -0.040918)
(-0.00070411 -0.00046567 -0.0413456)
(-0.000722552 -0.000448107 -0.0416742)
(0.000159776 -0.000961523 -0.0334858)
(1.90116e-05 -0.000965864 -0.0371591)
(-0.000140327 -0.000981801 -0.038652)
(-0.000273242 -0.000997348 -0.0395069)
(-0.000373121 -0.00100694 -0.0401776)
(-0.000444824 -0.00101178 -0.040753)
(-0.000490787 -0.00101211 -0.041242)
(-0.000511692 -0.00100832 -0.041615)
(0.000512024 -0.00119641 -0.0332326)
(0.000379857 -0.00125141 -0.0368573)
(0.000232498 -0.00131565 -0.0383428)
(0.000111665 -0.00137379 -0.0392211)
(2.24138e-05 -0.00141622 -0.0399301)
(-4.27436e-05 -0.00144598 -0.0405432)
(-8.53165e-05 -0.001464 -0.0410637)
(-0.000105351 -0.00147056 -0.0414608)
(0.000919486 -0.00126806 -0.0329454)
(0.000797337 -0.00137651 -0.0365284)
(0.000671079 -0.00148675 -0.0379912)
(0.000568212 -0.0015801 -0.0388991)
(0.000489824 -0.00165319 -0.0396315)
(0.00043223 -0.00170639 -0.0402605)
(0.000394424 -0.0017395 -0.0407893)
(0.000376532 -0.00175219 -0.0411877)
(0.000297669 0.000412694 -0.0325385)
(0.000286546 0.000547488 -0.0363081)
(0.000188806 0.000667946 -0.0378493)
(9.94576e-05 0.000770901 -0.0386075)
(3.4946e-05 0.000843671 -0.0392332)
(-1.37953e-05 0.000894806 -0.0397997)
(-4.91092e-05 0.000927351 -0.0402997)
(-7.08873e-05 0.000943027 -0.0406942)
(5.93591e-05 0.000180234 -0.0330051)
(4.85909e-06 0.000309425 -0.0367929)
(-0.000126319 0.000409981 -0.0382387)
(-0.000233612 0.000485876 -0.0389713)
(-0.000309443 0.000538529 -0.03958)
(-0.00036399 0.000575857 -0.0401261)
(-0.000399785 0.000599829 -0.0406074)
(-0.000417386 0.000611987 -0.0409882)
(-3.60986e-05 -0.0002244 -0.0337363)
(-0.000144311 -0.000125288 -0.0376677)
(-0.000321965 -4.62643e-05 -0.0388598)
(-0.000459155 1.36014e-05 -0.0394558)
(-0.000552328 5.80994e-05 -0.0399596)
(-0.000611506 9.02943e-05 -0.0404472)
(-0.000645796 0.000112059 -0.0408924)
(-0.000657929 0.000124914 -0.0412516)
(-4.67835e-05 -0.00062995 -0.0332232)
(-0.000163501 -0.000582175 -0.0369315)
(-0.000315025 -0.000543637 -0.0384535)
(-0.000434951 -0.000513019 -0.0392746)
(-0.000520758 -0.000487717 -0.0399162)
(-0.000583213 -0.000467624 -0.0404624)
(-0.000625009 -0.000452212 -0.0409505)
(-0.000644688 -0.000440906 -0.041342)
(0.000152314 -0.000896275 -0.0329202)
(2.98227e-05 -0.000903595 -0.0365336)
(-0.000111182 -0.000918429 -0.038055)
(-0.000226706 -0.000931427 -0.0389463)
(-0.000315531 -0.00094049 -0.0396769)
(-0.000380438 -0.000945778 -0.0403117)
(-0.000423424 -0.000947186 -0.0408598)
(-0.000444882 -0.000945072 -0.0412936)
(0.000489448 -0.00113134 -0.03268)
(0.000372738 -0.00117731 -0.0362479)
(0.000241768 -0.00123215 -0.0377399)
(0.000134727 -0.00127991 -0.0386827)
(5.25075e-05 -0.00131534 -0.0394517)
(-8.71114e-06 -0.00133925 -0.0401225)
(-5.05178e-05 -0.00135264 -0.0407009)
(-7.29053e-05 -0.00135619 -0.0411587)
(0.000882457 -0.00120774 -0.0324222)
(0.000769867 -0.00129772 -0.0359566)
(0.000653915 -0.00139108 -0.0374313)
(0.000559496 -0.00146981 -0.0383999)
(0.000484523 -0.00153084 -0.0391891)
(0.000427376 -0.0015735 -0.0398746)
(0.000387037 -0.00159827 -0.0404622)
(0.000363868 -0.00160547 -0.0409232)
(0.000313401 0.000423258 -0.0320702)
(0.000268065 0.000530706 -0.0357868)
(0.000159049 0.000638087 -0.03727)
(7.25553e-05 0.00072259 -0.038104)
(8.43427e-06 0.000777066 -0.038801)
(-4.23226e-05 0.000810924 -0.0394267)
(-8.14146e-05 0.000827328 -0.0399815)
(-0.000108556 0.00082858 -0.0404315)
(8.81211e-05 0.000225396 -0.0324875)
(1.37367e-05 0.000316885 -0.0361948)
(-0.000121026 0.000393692 -0.0376218)
(-0.000222484 0.000449732 -0.0384362)
(-0.000295072 0.000486205 -0.0391151)
(-0.000348312 0.000508698 -0.0397245)
(-0.000384968 0.00051906 -0.0402648)
(-0.000405533 0.000518927 -0.0407036)
(-2.60205e-05 -0.000176955 -0.0331389)
(-0.000145814 -0.000100694 -0.0368465)
(-0.000310067 -3.77698e-05 -0.038129)
(-0.000425716 6.61609e-06 -0.0388485)
(-0.000505765 3.76728e-05 -0.0394531)
(-0.000559348 5.92296e-05 -0.0400161)
(-0.000592148 7.10117e-05 -0.0405284)
(-0.000605903 7.46614e-05 -0.0409506)
(-4.25322e-05 -0.000588549 -0.0326823)
(-0.00014921 -0.000546013 -0.0363159)
(-0.000286031 -0.000508737 -0.0378448)
(-0.000391836 -0.000482151 -0.0387664)
(-0.000464811 -0.000462274 -0.0394807)
(-0.000519536 -0.000447874 -0.0400501)
(-0.000558761 -0.000437835 -0.0405908)
(-0.000578286 -0.000431618 -0.0410395)
(0.000144344 -0.000839813 -0.0323893)
(3.6709e-05 -0.000846701 -0.0359521)
(-8.88672e-05 -0.000858411 -0.0374581)
(-0.000190866 -0.000868141 -0.0384329)
(-0.000269943 -0.000874494 -0.0392214)
(-0.000328629 -0.000878503 -0.0399105)
(-0.00036853 -0.000878998 -0.0405131)
(-0.000389683 -0.000876562 -0.0410027)
(0.000467308 -0.00107342 -0.0321615)
(0.000361205 -0.00110681 -0.0356843)
(0.000243744 -0.00115004 -0.0371864)
(0.000147551 -0.00118632 -0.0381904)
(7.08046e-05 -0.00121297 -0.039016)
(1.22958e-05 -0.00122934 -0.0397407)
(-2.91805e-05 -0.00123631 -0.0403727)
(-5.3534e-05 -0.00123486 -0.0408859)
(0.000846265 -0.00115282 -0.0319315)
(0.000737336 -0.00122095 -0.0354293)
(0.000627764 -0.00129649 -0.0369261)
(0.000538868 -0.00135959 -0.0379451)
(0.000465651 -0.00140721 -0.0387868)
(0.000407671 -0.00143802 -0.0395249)
(0.000364275 -0.00145278 -0.0401663)
(0.00033606 -0.00145231 -0.0406842)
(0.000309018 0.000426292 -0.0316293)
(0.000236563 0.000503897 -0.0352514)
(0.00012601 0.000594767 -0.0367478)
(3.96495e-05 0.000659395 -0.0376512)
(-2.67445e-05 0.000697596 -0.0384099)
(-8.02723e-05 0.000715805 -0.0390912)
(-0.000122993 0.000717513 -0.0396976)
(-0.000154726 0.00070539 -0.040199)
(0.00010049 0.000260811 -0.0319937)
(1.24891e-05 0.000315181 -0.0355902)
(-0.000117812 0.000366186 -0.0370376)
(-0.000214629 0.000402934 -0.0379442)
(-0.000286433 0.000425106 -0.0386926)
(-0.00033953 0.000434314 -0.0393623)
(-0.000377074 0.000432353 -0.0399582)
(-0.000399893 0.000420978 -0.040451)
(-2.33089e-05 -0.000134958 -0.0326209)
(-0.000145166 -7.93223e-05 -0.036196)
(-0.000294332 -3.21441e-05 -0.0374932)
(-0.000393724 -3.7118e-06 -0.0383074)
(-0.000463973 1.64039e-05 -0.0389957)
(-0.000513372 2.7597e-05 -0.0396286)
(-0.000544666 3.00242e-05 -0.0402025)
(-0.000559179 2.53219e-05 -0.0406827)
(-3.90047e-05 -0.000548772 -0.0321682)
(-0.000133495 -0.000508086 -0.0357414)
(-0.000259747 -0.000472857 -0.0372728)
(-0.000350321 -0.00045059 -0.0383216)
(-0.000414971 -0.00043509 -0.0390065)
(-0.000468219 -0.000425583 -0.0396726)
(-0.000502998 -0.000419577 -0.0402695)
(-0.000520567 -0.000417068 -0.0407716)
(0.000136004 -0.000787121 -0.0318908)
(4.25529e-05 -0.00079028 -0.0354171)
(-7.08247e-05 -0.000798978 -0.0369567)
(-0.000162054 -0.000803816 -0.03797)
(-0.000232547 -0.000807695 -0.0388098)
(-0.000286143 -0.000807711 -0.039551)
(-0.000323135 -0.000805113 -0.0402046)
(-0.000343572 -0.000800476 -0.0407457)
(0.000443806 -0.00101643 -0.0316742)
(0.000346062 -0.00103394 -0.0351679)
(0.000238883 -0.00106453 -0.0366933)
(0.000150982 -0.00108901 -0.0377466)
(7.88183e-05 -0.00110569 -0.0386235)
(2.237e-05 -0.00111324 -0.0393987)
(-1.90168e-05 -0.0011125 -0.0400808)
(-4.51221e-05 -0.00110469 -0.0406451)
(0.000806863 -0.00109704 -0.0314697)
(0.000697965 -0.00114088 -0.0349448)
(0.000592367 -0.0011981 -0.0364695)
(0.000506724 -0.00124493 -0.0375339)
(0.000434214 -0.00127823 -0.0384242)
(0.000374793 -0.00129633 -0.0392114)
(0.00032816 -0.0013001 -0.0399027)
(0.000295106 -0.00129073 -0.0404725)
(0.000291196 0.000418214 -0.0312075)
(0.000199328 0.000469759 -0.0347559)
(9.0012e-05 0.000539162 -0.0362525)
(4.05691e-06 0.000584486 -0.0372382)
(-6.51295e-05 0.000608013 -0.038059)
(-0.000121406 0.000612535 -0.0387939)
(-0.000167157 0.000601547 -0.0394495)
(-0.000202555 0.000577943 -0.0399989)
(0.00010004 0.000273582 -0.0315187)
(4.3171e-06 0.000295168 -0.0350417)
(-0.000117483 0.000327531 -0.0365165)
(-0.00020952 0.000347979 -0.0374994)
(-0.000280092 0.000358091 -0.0383139)
(-0.000333038 0.000356179 -0.0390414)
(-0.000371152 0.000343907 -0.0396899)
(-0.000395545 0.000323132 -0.0402332)
(-2.58612e-05 -9.9168e-05 -0.0320468)
(-0.000135307 -6.42447e-05 -0.0355091)
(-0.000267164 -3.12747e-05 -0.0368946)
(-0.000357182 -1.38648e-05 -0.0378469)
(-0.000422034 -3.23335e-06 -0.0385915)
(-0.000469699 -1.72297e-06 -0.0392865)
(-0.000500005 -7.17953e-06 -0.0399175)
(-0.000514835 -1.86196e-05 -0.0404515)
(-3.39426e-05 -0.000500693 -0.0316785)
(-0.000114414 -0.000462065 -0.0352136)
(-0.00022608 -0.000434185 -0.0367737)
(-0.000308198 -0.000414939 -0.0377926)
(-0.000375322 -0.000404814 -0.0386576)
(-0.000424839 -0.000398097 -0.0393423)
(-0.000454201 -0.000394532 -0.0399896)
(-0.000468873 -0.000394181 -0.0405418)
(0.000127544 -0.000733806 -0.0314228)
(4.55641e-05 -0.000730929 -0.0349292)
(-5.52334e-05 -0.000735438 -0.0364833)
(-0.000136393 -0.000737019 -0.0375531)
(-0.000201462 -0.000735749 -0.0384445)
(-0.000251119 -0.000730261 -0.0392345)
(-0.000285544 -0.000723064 -0.0399361)
(-0.000305187 -0.000714876 -0.0405252)
(0.000417669 -0.000954244 -0.0312173)
(0.000326299 -0.00095421 -0.0346991)
(0.000227094 -0.00097158 -0.0362536)
(0.000145835 -0.000984766 -0.0373513)
(7.74534e-05 -0.000991081 -0.0382756)
(2.27109e-05 -0.000989166 -0.0390978)
(-1.86558e-05 -0.000980054 -0.0398265)
(-4.63573e-05 -0.000965166 -0.0404379)
(0.000761627 -0.00103492 -0.0310354)
(0.000650841 -0.00105368 -0.0345031)
(0.000547508 -0.00109249 -0.036059)
(0.000463703 -0.00112311 -0.0371661)
(0.000391301 -0.00114189 -0.0381017)
(0.000330287 -0.00114706 -0.0389347)
(0.000280558 -0.0011396 -0.0396721)
(0.00024299 -0.00112098 -0.0402895)
(0.000264711 0.000398438 -0.0308012)
(0.000161651 0.000426192 -0.0343039)
(5.29389e-05 0.000474173 -0.0358236)
(-3.22788e-05 0.000502377 -0.0368712)
(-0.00010294 0.000512615 -0.0377497)
(-0.000161043 0.000505626 -0.0385358)
(-0.000208801 0.000484423 -0.0392381)
(-0.000246722 0.000451845 -0.0398322)
(9.29384e-05 0.000268999 -0.0310669)
(-5.20122e-06 0.000264443 -0.0345488)
(-0.000118524 0.000282026 -0.0360595)
(-0.000205219 0.000290573 -0.0371051)
(-0.000273887 0.000289962 -0.037981)
(-0.000325858 0.000278897 -0.0387633)
(-0.0003638 0.000258588 -0.0394618)
(-0.000389041 0.000230758 -0.040052)
(-2.84576e-05 -7.10139e-05 -0.031505)
(-0.000121777 -5.44612e-05 -0.034911)
(-0.000235789 -3.41841e-05 -0.0363791)
(-0.000319968 -2.30587e-05 -0.0373757)
(-0.000383726 -2.10718e-05 -0.0382298)
(-0.000428012 -2.61432e-05 -0.0389897)
(-0.0004566 -3.70608e-05 -0.039675)
(-0.000471125 -5.30917e-05 -0.0402588)
(-2.85459e-05 -0.000449292 -0.0312204)
(-9.68739e-05 -0.000413334 -0.0347304)
(-0.000192002 -0.000391964 -0.0363118)
(-0.000272939 -0.000377733 -0.0374828)
(-0.000338665 -0.000368739 -0.0383021)
(-0.000381748 -0.000363016 -0.0390577)
(-0.000408086 -0.000360138 -0.039753)
(-0.000420735 -0.000360331 -0.0403513)
(0.000119146 -0.000676628 -0.0309891)
(4.68958e-05 -0.000665057 -0.0344867)
(-4.32041e-05 -0.000663893 -0.0360663)
(-0.000116248 -0.000661602 -0.0371864)
(-0.000176664 -0.000653827 -0.0381253)
(-0.000222485 -0.000643059 -0.0389619)
(-0.000254555 -0.000630878 -0.0397085)
(-0.000273468 -0.000618435 -0.0403418)
(0.000388378 -0.000883465 -0.0307941)
(0.000301671 -0.000865468 -0.0342775)
(0.000208625 -0.000869988 -0.0358637)
(0.000132667 -0.000872023 -0.0370037)
(6.75789e-05 -0.000867882 -0.0379723)
(1.45007e-05 -0.000856446 -0.0388384)
(-2.67118e-05 -0.000838863 -0.0396102)
(-5.58186e-05 -0.000816792 -0.0402647)
(0.000709533 -0.000962775 -0.0306303)
(0.000595956 -0.000956959 -0.0341041)
(0.000493714 -0.000978076 -0.0356932)
(0.000410998 -0.000993056 -0.0368411)
(0.000338573 -0.000997749 -0.0378194)
(0.00027622 -0.000990394 -0.0386949)
(0.000223841 -0.000972106 -0.0394745)
(0.000182251 -0.000944639 -0.0401347)
(0.000232076 0.000366448 -0.0304215)
(0.000122475 0.000372388 -0.0338998)
(1.56826e-05 0.000403008 -0.0354527)
(-6.76334e-05 0.000417072 -0.0365529)
(-0.00013776 0.00041614 -0.0374839)
(-0.000195939 0.000400052 -0.038318)
(-0.000244166 0.000371281 -0.039064)
(-0.000283211 0.000332479 -0.0396991)
(8.16305e-05 0.000251399 -0.0306505)
(-1.51228e-05 0.000227671 -0.0341137)
(-0.000120378 0.000233558 -0.0356634)
(-0.000200802 0.000233639 -0.036765)
(-0.000266128 0.00022464 -0.0376962)
(-0.000315947 0.000206822 -0.0385298)
(-0.000352663 0.000181098 -0.0392748)
(-0.000377766 0.00014885 -0.0399081)
(-2.88638e-05 -4.97192e-05 -0.0310106)
(-0.000107999 -4.73388e-05 -0.0344035)
(-0.000205404 -3.70064e-05 -0.0359259)
(-0.000284431 -3.18275e-05 -0.037036)
(-0.000346037 -3.36453e-05 -0.0379224)
(-0.000386542 -4.25517e-05 -0.0387392)
(-0.000412657 -5.65371e-05 -0.0394754)
(-0.000426408 -7.49572e-05 -0.0401051)
(-2.40076e-05 -0.000395273 -0.0308001)
(-8.18852e-05 -0.000361858 -0.034298)
(-0.000167381 -0.000344367 -0.0359051)
(-0.000239906 -0.000333149 -0.0370769)
(-0.000300123 -0.000324145 -0.0379887)
(-0.000339821 -0.000317904 -0.0388111)
(-0.00036349 -0.00031428 -0.0395573)
(-0.000374553 -0.000313637 -0.0401994)
(0.00010921 -0.000612928 -0.0305942)
(4.53526e-05 -0.000590695 -0.0340921)
(-3.60515e-05 -0.000582852 -0.0357024)
(-0.000101889 -0.000574426 -0.0368662)
(-0.000157109 -0.000561285 -0.037851)
(-0.000199156 -0.000545087 -0.0387324)
(-0.000228894 -0.000527726 -0.0395211)
(-0.000247106 -0.000510721 -0.0401948)
(0.000354423 -0.000802588 -0.0304106)
(0.000271321 -0.000766831 -0.0339029)
(0.000183417 -0.000759064 -0.0355223)
(0.000112208 -0.000750145 -0.0367027)
(5.04971e-05 -0.000735923 -0.037713)
(-5.87539e-07 -0.000715308 -0.03862)
(-4.12851e-05 -0.000689607 -0.0394312)
(-7.15199e-05 -0.000660719 -0.0401241)
(0.000649302 -0.000879301 -0.0302615)
(0.000533088 -0.000850088 -0.0337478)
(0.000431749 -0.000854706 -0.0353708)
(0.000350256 -0.000854984 -0.036558)
(0.000278306 -0.000846472 -0.0375762)
(0.000215349 -0.000827474 -0.0384908)
(0.000161097 -0.000799303 -0.0393086)
(0.000116166 -0.000763957 -0.0400066)
(0.000194326 0.000324376 -0.0300753)
(8.27504e-05 0.000312606 -0.0335477)
(-2.03905e-05 0.000329718 -0.0351363)
(-0.000100079 0.000332707 -0.0362844)
(-0.000167417 0.000323083 -0.0372632)
(-0.000223542 0.000300322 -0.0381414)
(-0.000270392 0.000266549 -0.0389273)
(-0.000309031 0.000224206 -0.0395991)
(6.71482e-05 0.000225162 -0.030275)
(-2.52158e-05 0.000188863 -0.0337371)
(-0.000122299 0.000186232 -0.0353268)
(-0.000195788 0.000179406 -0.0364792)
(-0.000255665 0.000165569 -0.0374615)
(-0.00030161 0.000143837 -0.038342)
(-0.00033569 0.00011523 -0.0391293)
(-0.000359604 8.10583e-05 -0.0398011)
(-2.86966e-05 -3.27486e-05 -0.0305705)
(-9.6023e-05 -3.95466e-05 -0.0339751)
(-0.00018207 -3.49411e-05 -0.0355488)
(-0.000250784 -3.37096e-05 -0.0367008)
(-0.00030573 -3.84724e-05 -0.0376685)
(-0.00034298 -4.86713e-05 -0.0385377)
(-0.000366492 -6.34289e-05 -0.0393195)
(-0.000379077 -8.21784e-05 -0.03999)
(-2.09525e-05 -0.000337949 -0.0304211)
(-6.95005e-05 -0.000305774 -0.0339181)
(-0.000144701 -0.00028947 -0.0355521)
(-0.000209877 -0.000278261 -0.0367553)
(-0.000263939 -0.000268911 -0.0377427)
(-0.000298306 -0.000261214 -0.0386123)
(-0.000318885 -0.000255765 -0.039403)
(-0.000328537 -0.000253216 -0.0400848)
(9.63202e-05 -0.000540256 -0.0302401)
(3.9876e-05 -0.00050659 -0.0337464)
(-3.37008e-05 -0.000491652 -0.0353895)
(-9.23028e-05 -0.000476981 -0.036594)
(-0.000141847 -0.000457764 -0.037623)
(-0.000179594 -0.000436067 -0.038546)
(-0.000206684 -0.000413595 -0.0393731)
(-0.000224132 -0.000392077 -0.0400825)
(0.000314218 -0.000710409 -0.0300677)
(0.00023471 -0.000658075 -0.0335749)
(0.000151957 -0.00063886 -0.0352283)
(8.58866e-05 -0.000619485 -0.0364476)
(2.82289e-05 -0.000595728 -0.0374969)
(-2.01396e-05 -0.000566571 -0.0384413)
(-5.97214e-05 -0.000533465 -0.0392877)
(-9.07213e-05 -0.000498511 -0.040014)
(0.000579445 -0.000784045 -0.0299296)
(0.000462324 -0.000733635 -0.0334336)
(0.000363001 -0.00072323 -0.0350908)
(0.000283879 -0.000709947 -0.0363156)
(0.000213627 -0.000689395 -0.0373709)
(0.000151268 -0.000659969 -0.0383209)
(9.62081e-05 -0.00062322 -0.039172)
(4.8748e-05 -0.000581368 -0.0399022)
(0.000152973 0.000275375 -0.0297681)
(4.44123e-05 0.000251354 -0.0332477)
(-5.33889e-05 0.000258158 -0.034874)
(-0.000127436 0.000252936 -0.0360664)
(-0.000189665 0.000237035 -0.0370889)
(-0.000241524 0.000209869 -0.0380069)
(-0.000285133 0.000173372 -0.038828)
(-0.000321896 0.000129895 -0.0395312)
(5.10697e-05 0.000194689 -0.0299453)
(-3.44418e-05 0.000151977 -0.0334199)
(-0.000122662 0.000144116 -0.0350498)
(-0.000187886 0.000132897 -0.0362489)
(-0.000240617 0.000116199 -0.0372776)
(-0.000280905 9.27326e-05 -0.0382006)
(-0.000310954 6.33608e-05 -0.0390252)
(-0.000332734 2.92767e-05 -0.0397301)
(-2.8321e-05 -1.6946e-05 -0.0301887)
(-8.5275e-05 -2.81221e-05 -0.0336194)
(-0.000160777 -2.63972e-05 -0.0352396)
(-0.00021872 -2.72122e-05 -0.0364385)
(-0.000264838 -3.27681e-05 -0.0374633)
(-0.000296466 -4.26417e-05 -0.0383828)
(-0.000316413 -5.64784e-05 -0.0392064)
(-0.00032737 -7.39373e-05 -0.0399125)
(-1.96826e-05 -0.000275811 -0.0300872)
(-6.02485e-05 -0.000243172 -0.033594)
(-0.000126121 -0.000226202 -0.0352601)
(-0.000181316 -0.000213596 -0.0365002)
(-0.000226513 -0.000202281 -0.0375263)
(-0.000255381 -0.00019239 -0.0384563)
(-0.000272417 -0.000184424 -0.0392893)
(-0.000280706 -0.000179285 -0.0400058)
(7.98629e-05 -0.000456542 -0.0299287)
(3.03041e-05 -0.000411735 -0.0334508)
(-3.54105e-05 -0.000389563 -0.0351278)
(-8.60165e-05 -0.000368214 -0.0363717)
(-0.00012872 -0.000343436 -0.0374407)
(-0.000161361 -0.000316521 -0.0384018)
(-0.000185307 -0.000289292 -0.0392628)
(-0.000201901 -0.000263621 -0.0400025)
(0.000267393 -0.000606119 -0.0297662)
(0.000192438 -0.000539335 -0.0332936)
(0.000115825 -0.000509799 -0.0349812)
(5.60974e-05 -0.000480739 -0.0362375)
(3.7222e-06 -0.000448288 -0.0373229)
(-4.08643e-05 -0.000411505 -0.0383006)
(-7.85643e-05 -0.000371993 -0.039177)
(-0.000109959 -0.000332022 -0.0399309)
(0.00050011 -0.000677122 -0.0296351)
(0.000385176 -0.00060871 -0.0331612)
(0.000290117 -0.000585018 -0.0348524)
(0.000215417 -0.000559472 -0.0361128)
(0.000148668 -0.000528194 -0.0372018)
(8.84555e-05 -0.000489766 -0.0381826)
(3.3807e-05 -0.000445981 -0.0390617)
(-1.53733e-05 -0.000399255 -0.0398177)
(0.000110002 0.000222611 -0.0295045)
(8.67235e-06 0.00019159 -0.0330021)
(-8.1127e-05 0.000191686 -0.0346664)
(-0.000147176 0.000180712 -0.0359002)
(-0.000202016 0.000160544 -0.036962)
(-0.000247555 0.00013079 -0.0379149)
(-0.0002863 9.33915e-05 -0.0387657)
(-0.000320096 5.05882e-05 -0.0394942)
(3.51128e-05 0.00016416 -0.0296653)
(-4.13864e-05 0.000120543 -0.0331629)
(-0.000119566 0.000110325 -0.0348331)
(-0.000174903 9.67557e-05 -0.0360756)
(-0.000218695 7.86863e-05 -0.037146)
(-0.000251683 5.49421e-05 -0.0381061)
(-0.000276472 2.62321e-05 -0.0389623)
(-0.000295364 -6.30933e-06 -0.0396938)
(-2.70216e-05 1.41265e-06 -0.029867)
(-7.454e-05 -9.94858e-06 -0.0333336)
(-0.000139274 -8.90738e-06 -0.0349989)
(-0.00018562 -1.03534e-05 -0.0362436)
(-0.000221221 -1.50213e-05 -0.0373161)
(-0.000245218 -2.36248e-05 -0.0382775)
(-0.000260383 -3.55505e-05 -0.039136)
(-0.000269283 -5.06823e-05 -0.0398709)
(-1.98271e-05 -0.000206487 -0.0298009)
(-5.30805e-05 -0.000172147 -0.0333272)
(-0.000109677 -0.00015333 -0.0350252)
(-0.00015205 -0.000138308 -0.036294)
(-0.000186649 -0.000124439 -0.0373831)
(-0.000209133 -0.000111827 -0.0383482)
(-0.000221909 -0.000101053 -0.0392155)
(-0.000228757 -9.30767e-05 -0.0399602)
(5.9899e-05 -0.000360494 -0.0296615)
(1.75915e-05 -0.000305906 -0.0332062)
(-3.9312e-05 -0.000276994 -0.0349179)
(-8.05122e-05 -0.000249101 -0.0361987)
(-0.000114916 -0.000219361 -0.0373048)
(-0.000141375 -0.000187757 -0.0382988)
(-0.000161567 -0.000156366 -0.039188)
(-0.000177249 -0.000127173 -0.0399516)
(0.000214502 -0.000489677 -0.0295063)
(0.000146163 -0.000411361 -0.0330588)
(7.76674e-05 -0.00037292 -0.0347805)
(2.6184e-05 -0.000335191 -0.0360716)
(-1.92462e-05 -0.00029511 -0.0371893)
(-5.87272e-05 -0.000251816 -0.0381955)
(-9.37161e-05 -0.000207105 -0.0390961)
(-0.000125238 -0.000163377 -0.0398707)
(0.000412802 -0.000559544 -0.0293781)
(0.000304422 -0.000476956 -0.0329301)
(0.000216864 -0.000441773 -0.0346546)
(0.00014933 -0.000405344 -0.035948)
(8.83087e-05 -0.00036476 -0.0370666)
(3.20445e-05 -0.000318874 -0.0380729)
(-2.09407e-05 -0.000269726 -0.0389735)
(-7.11811e-05 -0.000219896 -0.0397481)
(6.83914e-05 0.000170183 -0.0292885)
(-2.166e-05 0.000137004 -0.0328129)
(-0.000100739 0.000133068 -0.0345148)
(-0.00015642 0.000118094 -0.0357869)
(-0.000201793 9.50187e-05 -0.0368835)
(-0.00023934 6.38585e-05 -0.0378656)
(-0.000272051 2.66422e-05 -0.0387397)
(-0.000302237 -1.43274e-05 -0.0394864)
(2.13729e-05 0.000137973 -0.0294383)
(-4.40002e-05 9.7719e-05 -0.0329677)
(-0.000110528 8.72205e-05 -0.034678)
(-0.000154257 7.2651e-05 -0.0359607)
(-0.000187441 5.40788e-05 -0.0370678)
(-0.000211665 3.07407e-05 -0.038059)
(-0.000230187 3.41878e-06 -0.03894)
(-0.000245778 -2.67495e-05 -0.0396907)
(-2.39542e-05 2.62671e-05 -0.029607)
(-6.18221e-05 1.76467e-05 -0.0331168)
(-0.000114833 1.9431e-05 -0.0348263)
(-0.000148388 1.84861e-05 -0.0361141)
(-0.00017219 1.49231e-05 -0.0372282)
(-0.000186993 8.13659e-06 -0.0382225)
(-0.000196334 -1.48098e-06 -0.0391077)
(-0.000202876 -1.38646e-05 -0.0398633)
(-2.05822e-05 -0.000127832 -0.0295652)
(-4.58702e-05 -9.13945e-05 -0.0331201)
(-9.1257e-05 -7.04299e-05 -0.0348532)
(-0.000120548 -5.27452e-05 -0.0361575)
(-0.000142932 -3.61786e-05 -0.0372824)
(-0.000156822 -2.08806e-05 -0.0382863)
(-0.000164828 -7.40312e-06 -0.0391805)
(-0.000170299 3.29377e-06 -0.0399453)
(3.70852e-05 -0.000251737 -0.0294402)
(3.46091e-06 -0.000189695 -0.033014)
(-4.26441e-05 -0.000155183 -0.0347607)
(-7.25103e-05 -0.000121678 -0.0360764)
(-9.70507e-05 -8.72679e-05 -0.0372147)
(-0.000116041 -5.17976e-05 -0.0382358)
(-0.000131853 -1.70751e-05 -0.0391461)
(-0.000146704 1.48169e-05 -0.0399258)
(0.000156989 -0.00036192 -0.0292888)
(9.84178e-05 -0.0002756 -0.0328708)
(4.09757e-05 -0.000229899 -0.0346261)
(2.87096e-07 -0.000184695 -0.0359491)
(-3.62375e-05 -0.000138191 -0.0370947)
(-6.915e-05 -8.96435e-05 -0.0381234)
(-0.000100653 -4.10621e-05 -0.0390412)
(-0.000132264 5.04379e-06 -0.0398286)
(0.000320275 -0.000433188 -0.0291588)
(0.00022391 -0.000340572 -0.0327399)
(0.000147922 -0.000295633 -0.0344965)
(9.09149e-05 -0.000249687 -0.0358195)
(3.80508e-05 -0.000201181 -0.0369628)
(-1.23875e-05 -0.00014942 -0.0379883)
(-6.25553e-05 -9.66202e-05 -0.0389029)
(-0.000113482 -4.54811e-05 -0.0396879)
(3.11407e-05 0.000121946 -0.029124)
(-4.38309e-05 9.03898e-05 -0.0326824)
(-0.000109369 8.41233e-05 -0.0344211)
(-0.000152378 6.61437e-05 -0.0357281)
(-0.000186484 4.07718e-05 -0.0368543)
(-0.000214688 8.59009e-06 -0.0378594)
(-0.000240619 -2.80181e-05 -0.0387495)
(-0.000267104 -6.65837e-05 -0.0395063)
(1.20099e-05 0.000120151 -0.0292681)
(-4.00596e-05 8.59558e-05 -0.0328365)
(-9.29793e-05 7.6235e-05 -0.0345864)
(-0.000123209 6.11665e-05 -0.035906)
(-0.000144187 4.22367e-05 -0.0370446)
(-0.000158406 1.93944e-05 -0.0380599)
(-0.000169986 -6.46011e-06 -0.0389577)
(-0.000182268 -3.40227e-05 -0.039719)
(-1.79037e-05 6.09515e-05 -0.0294108)
(-4.49137e-05 5.64447e-05 -0.0329694)
(-8.45388e-05 5.94308e-05 -0.0347223)
(-0.000103968 5.92876e-05 -0.0360504)
(-0.000114623 5.67054e-05 -0.0372046)
(-0.000119058 5.14701e-05 -0.0382182)
(-0.000121976 4.4e-05 -0.0391204)
(-0.000126128 3.42854e-05 -0.0398872)
(-2.09241e-05 -3.82923e-05 -0.0293836)
(-3.64972e-05 -4.4674e-07 -0.0329755)
(-6.84352e-05 2.2071e-05 -0.0347454)
(-8.30633e-05 4.19941e-05 -0.036084)
(-9.21931e-05 6.08584e-05 -0.0372398)
(-9.61646e-05 7.83499e-05 -0.0382701)
(-9.85132e-05 9.40967e-05 -0.0391823)
(-0.000102714 0.0001071 -0.0399578)
(1.26338e-05 -0.000130715 -0.0292671)
(-9.86159e-06 -6.43536e-05 -0.0328761)
(-4.22316e-05 -2.59269e-05 -0.0346578)
(-5.82702e-05 1.20591e-05 -0.036005)
(-7.11532e-05 5.02102e-05 -0.0371699)
(-8.13576e-05 8.87215e-05 -0.038211)
(-9.22847e-05 0.00012584 -0.0391341)
(-0.000106668 0.000159481 -0.0399208)
(9.71213e-05 -0.000224592 -0.0291148)
(5.24554e-05 -0.000134276 -0.0327307)
(9.88298e-06 -8.30807e-05 -0.0345179)
(-1.68402e-05 -3.16576e-05 -0.0358691)
(-4.23122e-05 1.99363e-05 -0.0370371)
(-6.71861e-05 7.24288e-05 -0.0380812)
(-9.45694e-05 0.000123535 -0.0390078)
(-0.000126527 0.000170667 -0.039799)
(0.000226416 -0.000300883 -0.028978)
(0.000148454 -0.000202416 -0.0325911)
(8.87985e-05 -0.000149245 -0.0343769)
(4.59213e-05 -9.47786e-05 -0.0357248)
(4.05386e-06 -4.00585e-05 -0.0368873)
(-3.88066e-05 1.6182e-05 -0.0379246)
(-8.53289e-05 7.10531e-05 -0.0388448)
(-0.000137033 0.000121777 -0.0396307)
(1.41845e-06 8.15068e-05 -0.0290153)
(-5.49533e-05 5.39052e-05 -0.0326132)
(-0.000104272 4.59391e-05 -0.0343877)
(-0.000132372 2.49555e-05 -0.0357257)
(-0.000153507 -2.93856e-06 -0.0368759)
(-0.000171312 -3.64075e-05 -0.0378967)
(-0.000190132 -7.25642e-05 -0.0387942)
(-0.000213366 -0.000108654 -0.0395517)
(9.16468e-06 0.000114143 -0.0291588)
(-2.73351e-05 8.68878e-05 -0.0327725)
(-6.43506e-05 7.78551e-05 -0.034561)
(-7.89594e-05 6.20134e-05 -0.0359136)
(-8.60872e-05 4.23404e-05 -0.0370776)
(-8.92699e-05 1.93413e-05 -0.0381092)
(-9.35406e-05 -5.52321e-06 -0.0390147)
(-0.000102939 -3.07092e-05 -0.0397764)
(-7.66953e-06 0.000107836 -0.0292811)
(-2.18252e-05 0.000107352 -0.0328935)
(-4.56604e-05 0.000110917 -0.0346886)
(-4.88429e-05 0.000111008 -0.0360516)
(-4.53643e-05 0.000108821 -0.0372266)
(-3.88168e-05 0.000104512 -0.0382628)
(-3.46818e-05 9.85279e-05 -0.0391728)
(-3.67227e-05 9.10284e-05 -0.03994)
(-1.95836e-05 6.28013e-05 -0.02926)
(-2.30005e-05 0.000100213 -0.0328964)
(-3.86129e-05 0.000122995 -0.0347035)
(-3.6264e-05 0.000144163 -0.0360732)
(-3.08103e-05 0.00016429 -0.0372532)
(-2.37146e-05 0.000183247 -0.0382995)
(-1.9824e-05 0.000200559 -0.0392188)
(-2.31557e-05 0.000215245 -0.039994)
(-1.21968e-05 1.6611e-06 -0.0291452)
(-1.96419e-05 6.79073e-05 -0.0327954)
(-3.45705e-05 0.000108701 -0.0346099)
(-3.37862e-05 0.000149592 -0.0359852)
(-3.31033e-05 0.000190259 -0.03717)
(-3.31534e-05 0.000230813 -0.0382224)
(-3.87808e-05 0.000269343 -0.0391485)
(-5.32589e-05 0.000303786 -0.0399316)
(3.61975e-05 -8.07128e-05 -0.0289866)
(1.25546e-05 9.44955e-06 -0.0326398)
(-1.07074e-05 6.48727e-05 -0.034456)
(-2.03179e-05 0.00012077 -0.0358312)
(-3.22366e-05 0.000176253 -0.0370146)
(-4.76713e-05 0.000231461 -0.0380656)
(-7.05408e-05 0.000283899 -0.0389912)
(-0.00010345 0.000330875 -0.0397757)
(0.000134519 -0.000167834 -0.0288376)
(8.39779e-05 -6.60204e-05 -0.0324838)
(4.62275e-05 -5.88541e-06 -0.034295)
(2.08227e-05 5.58214e-05 -0.0356632)
(-7.39254e-06 0.000115842 -0.036837)
(-4.10694e-05 0.000175132 -0.0378775)
(-8.35192e-05 0.000230741 -0.0387933)
(-0.000136628 0.000279711 -0.0395697)
(-1.78337e-05 5.1755e-05 -0.0289668)
(-5.2499e-05 2.90147e-05 -0.0326094)
(-8.28851e-05 1.87531e-05 -0.0344181)
(-9.36414e-05 -6.18033e-06 -0.0357826)
(-0.000100153 -3.75177e-05 -0.0369502)
(-0.000106651 -7.3152e-05 -0.0379782)
(-0.000118332 -0.000109504 -0.0388733)
(-0.00013924 -0.000143411 -0.0396208)
(1.46852e-05 0.000122229 -0.0291152)
(-3.88299e-06 0.000101268 -0.0327797)
(-2.22663e-05 9.17219e-05 -0.0346055)
(-1.86804e-05 7.39493e-05 -0.0359863)
(-1.01951e-05 5.25565e-05 -0.0371684)
(-1.36815e-06 2.82685e-05 -0.0382075)
(1.83727e-06 3.55204e-06 -0.0391099)
(-5.46181e-06 -1.97413e-05 -0.0398605)
(8.05685e-06 0.000168826 -0.0292221)
(9.07672e-06 0.000170656 -0.0328922)
(4.09012e-06 0.00017327 -0.0347269)
(2.02936e-05 0.000172117 -0.0361182)
(3.90225e-05 0.000169232 -0.0373144)
(5.72486e-05 0.00016475 -0.0383552)
(6.88982e-05 0.000159232 -0.0392624)
(6.82967e-05 0.000153249 -0.0400179)
(-1.56989e-05 0.000175731 -0.0291988)
(-3.31226e-06 0.000209147 -0.0328866)
(9.51298e-07 0.000231217 -0.0347287)
(2.32814e-05 0.000251671 -0.0361252)
(4.50418e-05 0.000271674 -0.0373212)
(6.4283e-05 0.000291109 -0.0383729)
(7.47313e-05 0.000309062 -0.0392872)
(7.15922e-05 0.000324677 -0.0400495)
(-3.76615e-05 0.000142988 -0.0290789)
(-2.20826e-05 0.000204364 -0.0327742)
(-1.58127e-05 0.000245982 -0.0346192)
(4.54228e-06 0.000287694 -0.0360172)
(2.17739e-05 0.000329712 -0.037214)
(3.29729e-05 0.000371212 -0.0382677)
(3.2888e-05 0.000410248 -0.0391853)
(1.74949e-05 0.0004447 -0.0399527)
(-2.43615e-05 6.53004e-05 -0.0289087)
(-1.65081e-05 0.000152478 -0.0325985)