/*--------------------------------*- C++ -*----------------------------------*\
| =========                 |                                                 |
| \\      /  F ield         | OpenFOAM: The Open Source CFD Toolbox           |
|  \\    /   O peration     | Version:  plus.master.MPPICInterFoam            |
|   \\  /    A nd           | Web:      www.OpenFOAM.com                      |
|    \\/     M anipulation  |                                                 |
\*---------------------------------------------------------------------------*/
FoamFile
{
    version     2.0;
    format      ascii;
    class       scalarField;
    location    "5.2/lagrangian/kinematicCloud";
    object      age;
}
// * * * * * * * * * * * * * * * * * * * * * * * * * * * * * * * * * * * * * //


2908
(
5.00512
5.10845
4.94533
5.06697
4.88652
5.16525
5.0844
5.11885
5.12264
5.07422
5.01826
4.95323
5.00663
4.94156
5.19102
5.00848
5.185
5.19937
4.94289
5.19124
5.01545
5.19962
4.97913
5.09344
4.92417
4.98251
4.99243
4.97156
5.11096
5.0784
5.06756
5.12029
4.98643
5.16504
4.91612
5.09302
5.18815
5.0711
5.19125
5.1577
5.12845
5.16197
5.10223
5.19885
5.18975
4.97886
4.85611
5.12085
5.18483
5.15683
5.09015
5.16383
5.1771
5.19616
5.14308
5.06876
5.18526
5.1318
5.1184
5.07843
5.00212
5.06201
5.14692
5.16463
5.06879
5.07984
5.08081
5.18492
5.16848
4.9232
5.02376
5.15663
5.10037
4.79228
5.14367
5.09151
5.19571
5.12528
5.07256
4.9596
5.11252
5.15301
5.11262
5.03313
5.01034
5.08863
5.13827
5.07232
5.18169
4.85725
5.12433
5.16651
5.1194
5.04299
5.0705
5.19195
4.97171
5.02948
4.74678
5.12531
4.99083
4.92472
5.15745
5.12017
5.10995
5.07457
5.13131
5.15616
5.17273
4.997
4.8346
5.14022
5.00619
4.88461
5.19847
5.08657
5.13022
4.99766
5.03995
5.15002
5.0535
5.12474
4.97186
5.03697
4.77038
5.12588
5.12733
5.00553
5.11957
5.04008
5.17898
5.14335
5.05174
5.02835
4.98127
4.9339
5.08837
4.96506
5.04897
5.19888
5.13699
5.07591
5.16538
5.04984
4.9495
5.12757
5.08266
5.11854
5.02242
4.98155
5.07887
5.19903
5.04447
5.16218
5.1337
5.17075
5.16389
5.11247
5.10017
5.15588
5.10798
5.19125
5.13412
4.86799
4.91493
5.14378
4.89621
5.06963
5.16402
4.89948
5.0949
5.1957
5.06732
5.0694
5.14695
5.18772
5.05922
5.08794
5.05956
5.06997
5.19808
5.18888
5.07739
5.17647
5.17332
5.09102
5.17968
5.19013
5.01313
4.94497
5.14739
5.01769
4.90267
5.14599
5.07836
4.91785
4.87767
5.03174
5.19058
5.17091
5.14064
5.02064
5.18206
4.96812
4.83934
4.99538
5.17313
5.03918
5.07281
5.05762
5.06659
5.12763
5.09823
5.11619
5.02976
5.1982
5.1561
5.08824
5.11723
5.19583
5.14704
5.04897
5.09653
5.17171
4.98314
5.05048
5.04547
5.05905
4.96575
5.10781
5.11206
5.17049
4.76558
4.97148
5.03926
5.15156
5.08685
5.1711
5.03918
5.13299
5.11857
5.00932
5.15693
5.05538
5.18491
5.03939
4.82857
5.16975
5.07367
4.90736
5.19145
4.96165
5.09551
5.11774
4.98347
5.02947
5.20089
5.05428
5.19423
5.08842
5.10153
5.15975
5.00805
5.0098
5.16268
5.09374
5.16485
5.1962
5.1561
4.89949
5.17209
5.18817
4.97445
5.02067
5.07393
5.17614
5.15092
5.1989
5.10888
5.0982
4.99101
5.15618
4.94484
5.15441
5.11604
5.16708
5.13156
5.07083
4.97152
5.17456
5.13455
4.81121
4.97389
5.19377
5.181
5.15132
5.00579
5.19051
5.13755
4.78118
5.17778
5.06907
5.07899
5.09948
5.19236
5.19608
5.12134
4.8585
4.92404
5.03956
5.0788
4.95342
5.18506
5.11925
5.09803
5.1372
5.11004
5.16931
4.88474
5.15713
5.19374
5.18893
4.98288
4.95578
5.17571
5.08623
5.1484
5.07443
5.14457
5.0828
5.13953
5.06875
5.12314
5.00911
4.94436
5.19063
4.76196
4.82579
5.11762
4.81911
4.81605
5.11824
5.09827
5.1819
5.16569
5.17887
5.09926
5.08833
5.06421
5.05908
5.06374
5.12772
5.09991
5.07866
5.17979
5.03972
4.73635
5.18403
5.13109
5.144
5.14325
5.08854
4.93672
5.12007
5.09239
5.14932
5.03592
5.16407
5.10773
5.16513
5.07324
5.03919
5.06949
4.94492
4.7675
5.19166
5.16518
5.07854
5.02498
5.07884
5.16681
5.07847
5.18896
5.15096
5.0342
4.97269
4.97376
5.04991
5.10965
4.97496
4.93446
5.12777
4.95015
5.0531
5.14437
4.88272
5.02077
4.78519
5.16391
5.16906
5.13738
4.98522
4.92383
5.14727
5.18953
4.70386
4.7757
5.15046
5.04898
5.15801
5.04992
5.12738
5.08957
5.02288
4.98348
4.99048
5.12139
4.64869
5.10435
5.14696
4.95271
4.95173
4.8286
4.8291
5.01751
5.14808
4.85255
5.17036
5.03019
4.71528
5.1813
5.15638
5.08896
4.98231
4.93082
5.09362
4.95281
5.11768
4.89059
4.93206
5.18552
4.98263
5.04401
5.04475
5.13795
4.9367
5.13414
5.1741
5.12951
5.09829
4.81945
5.02939
4.79119
5.06865
5.11983
4.98805
5.17045
5.03019
5.1347
5.00044
5.1639
4.99667
4.90562
5.07375
4.99048
5.1478
5.1781
5.03938
5.1543
5.03666
5.0714
5.18549
5.06773
5.18856
5.20017
5.18092
5.18834
5.17632
4.83812
5.15417
4.98362
4.99052
4.98858
4.81141
5.19367
5.06875
5.13009
5.18357
5.14026
4.95323
4.93366
4.98489
4.98149
5.17087
4.83823
4.87516
4.95547
5.16394
5.10921
5.02075
4.957
4.85075
4.84766
5.036
4.95615
5.19137
5.1562
5.18089
5.03971
5.02529
4.95239
4.93526
4.99052
4.98005
5.05951
5.14776
5.15715
5.02225
5.06176
4.94914
5.14739
5.04168
5.19908
4.83891
5.19129
4.94596
4.94287
5.14667
5.01554
5.19833
5.04208
5.1471
5.13151
5.08939
5.06155
4.65016
5.1639
5.14863
4.9056
5.00749
5.0736
5.13977
4.98785
5.19389
4.97789
5.07196
5.09799
4.77154
4.91711
5.07685
5.06861
5.09914
5.07857
5.01961
4.85825
5.19811
5.04712
4.8381
5.16721
5.16865
5.12004
5.16731
4.89016
5.18912
4.77846
4.90398
5.0614
5.07918
4.89849
5.12979
5.16542
5.20019
5.12262
5.19456
5.0874
5.14694
5.10816
5.17278
4.92519
5.13541
5.16831
5.19271
5.10111
5.10085
5.10999
5.12739
5.12379
5.17902
5.17076
5.10596
5.15845
5.06771
5.02051
5.15734
5.08139
5.15603
4.80025
4.9911
5.13868
5.09401
4.96717
5.10816
4.98104
4.8517
5.19896
5.17623
5.16366
5.10818
5.07946
5.17192
5.19397
5.06249
5.20016
5.11754
5.04932
4.81927
4.92423
5.11871
5.15959
4.9641
5.13576
5.05277
5.11192
5.0498
5.16903
5.08111
5.18959
5.19935
5.13402
5.11067
4.75508
5.09972
5.19217
5.0237
5.04345
5.16392
4.87694
4.81039
4.95294
5.19895
4.99086
5.1644
5.15453
5.06006
5.09395
5.13759
4.98753
5.11787
4.99912
4.81937
5.17697
4.97074
5.15933
5.04903
5.1705
5.15756
4.93334
5.19383
5.15063
4.9868
5.11013
4.77184
5.17061
5.18668
5.01965
5.17045
5.06383
4.94296
5.17028
5.01393
5.13179
4.98185
5.16005
5.12006
5.13753
5.14702
4.99423
5.19365
5.04595
4.90487
5.06909
5.12881
5.1373
4.99075
5.1917
5.08942
4.97273
5.05421
5.03084
4.96196
5.19197
5.12778
5.15861
5.13808
4.80853
4.64222
5.13054
4.79953
5.17417
4.98186
5.11755
5.0793
5.04131
5.10463
4.95409
5.14054
5.14256
4.82333
4.74989
5.1937
5.0003
5.1584
5.16273
5.12706
5.20021
4.96209
4.94188
5.16315
5.09816
4.95239
5.06209
5.03927
5.10177
5.1501
4.87205
5.06058
5.14691
5.19427
4.82045
4.98147
4.92404
5.01259
4.95318
5.07932
4.9289
5.11416
5.03967
5.08157
5.0204
5.05145
5.0314
4.9365
5.04933
5.08815
5.12904
4.86703
5.0476
5.17667
4.88981
5.08138
5.10222
5.11177
5.03843
4.87619
4.6842
5.09817
5.049
5.01237
5.15612
5.07958
5.0518
5.14698
5.17634
5.16606
5.19387
4.97344
5.18878
4.88828
5.00302
5.12251
5.17677
4.99794
5.14883
4.84941
5.12735
5.01105
5.06071
4.98054
4.90833
4.90396
5.04296
5.02114
5.09796
4.9256
5.12967
5.18496
5.07715
5.18002
4.88655
5.13011
4.94413
5.07268
5.1598
5.13819
5.10659
5.04794
5.00765
4.90941
4.97051
5.01758
5.1287
4.89868
5.11647
5.03807
5.04016
4.8413
4.77304
4.93374
5.19882
5.11543
5.02943
5.18545
4.87846
5.14691
5.08734
5.16437
5.17281
5.11065
5.05278
5.15213
4.97253
5.0301
5.09263
5.11857
5.19415
4.98206
4.99838
4.98802
5.2
4.75837
5.0784
4.94605
4.87477
5.17665
5.13752
4.92512
5.19773
5.06568
5.01087
5.0106
5.02805
5.19159
4.97588
5.05251
5.18029
5.15624
5.05429
5.17622
5.06808
4.86157
5.08867
5.09132
5.16099
5.07865
5.02011
5.1178
4.96215
4.9449
5.07908
5.15641
4.86674
5.0205
5.16564
5.10778
4.99684
4.93386
5.07578
5.06525
4.8703
5.0688
5.19893
4.99574
4.92726
5.03941
5.00007
5.07851
5.13765
5.02079
5.17127
4.92355
5.04999
5.15829
5.08243
5.14732
5.12402
5.06099
5.12759
5.03128
4.991
5.2
4.99793
5.2
5.17078
5.05637
4.96239
5.14276
5.17647
4.97189
5.13104
5.19124
5.01232
5.18106
4.97146
5.00872
5.06912
4.95581
5.10156
4.98297
5.10894
4.93333
4.88095
5.18971
4.8762
5.03922
5.18137
5.19431
5.00149
5.19154
5.12768
5.18604
5.0675
5.13713
4.89817
5.19157
5.09175
5.16413
5.11088
5.03171
4.86125
5.18177
5.05123
4.99049
5.12829
5.10795
5.08449
5.19923
5.17287
5.15668
4.89835
5.07073
4.98354
5.12614
5.11766
5.14744
4.73696
4.97784
5.04898
5.16015
4.81522
5.14792
5.10799
5.06865
5.02016
5.09883
5.06109
4.88578
4.96236
5.05876
5.19394
5.1814
5.10775
5.0059
5.04902
5.12648
5.18835
5.06082
5.04523
5.18451
5.13296
5.05876
4.89105
5.05927
5.11621
5.13722
5.17027
4.97839
4.87619
5.10078
5.08142
4.78534
4.96268
5.15624
4.99568
5.1903
5.10592
5.01255
5.12302
4.96192
5.1639
5.19131
5.01714
5.0596
5.18243
4.94118
5
4.89535
5.19064
4.80117
5.10132
4.86315
5.08462
5.05018
5.16385
5.08616
5.05767
4.8579
4.97017
4.96618
5.09912
5.14087
4.93386
5.18629
5.0199
5.19743
5.17724
4.89649
5.15678
4.7334
4.7537
4.81924
5.17613
5.15654
5.04019
5.10234
5.15702
5.16656
5.18659
4.85944
5.18097
5.03249
5.17742
5.08648
5.07315
4.99814
5.07331
5.08099
5.18866
5.15818
4.99488
5.19031
4.96654
4.91522
5.04729
5.15623
5.13725
4.97133
5.1937
5.14045
4.96423
5.16918
5.0592
5.05562
5.05206
5.05891
5.1662
4.96191
5.07971
5.16464
5.12309
5.1844
5.14212
5.07943
4.88187
5.10865
5.1008
4.91735
5.15755
5.14209
5.06995
5.08104
5.18257
5.02305
4.87629
5.19884
4.74526
5.12657
5.1072
5.12317
4.95521
4.9732
4.86999
5.14561
4.96613
4.94478
5.15247
5.02081
4.93999
5.1325
5.10349
4.69848
5.07207
4.90933
4.97214
5.11944
5.13716
4.95498
4.61913
5.11006
5.19027
5.10534
5.03942
5.19132
5.12835
5.11753
5.16047
5.13213
5.1653
5.16658
5.03829
5.14747
4.80214
5.16067
5.16077
5.19081
5.02994
5.1374
5.07081
5.05029
4.97344
5.08668
5.18091
4.95446
4.94205
5.17973
5.08814
5.02556
5.0686
5.14778
5.04853
4.64173
5.05876
5.05944
4.83881
5.13536
5.1522
4.7728
4.75364
5.17139
5.15361
4.94019
5.07045
5.20072
5.15578
4.98129
5.18837
5.03289
4.81306
5.0839
5.18669
5.15625
5.08169
4.85094
5.04967
5.18118
5.07277
5.1481
5.148
4.85717
5.07428
4.91757
5.14692
5.07492
5.05222
4.9299
5.1276
5.15256
5.14899
4.96336
5.05026
4.97814
4.8673
4.78935
5.00286
4.73888
5.11936
5.07963
5.13018
4.80232
4.91532
4.83324
5.14262
5.10987
5.01962
4.90296
4.78096
5.0654
5.00615
4.98484
5.02193
5.18628
5.19589
5.0683
5.02965
5.12734
4.74221
5.0184
5.17054
5.03043
5.02281
4.85328
5.18379
4.8983
5.13713
5.12999
4.97268
5.08165
4.92385
5.14624
5.11766
4.90299
4.75688
5.08041
5.14715
5.0098
5.11159
5.00276
5.09251
5.18224
4.70493
5.02975
5.03153
4.67685
4.75249
5.00669
5.02943
5.14697
5.16435
5.17856
5.08707
5.15621
5.17062
5.08871
5.04784
5.17525
4.74344
5.09711
5.13719
5.15323
5.10183
4.90555
5.07505
4.92936
5.1401
5.09805
4.71429
5.19495
5.10655
5.00052
5.15611
5.18984
4.98404
5.09423
5.19764
5.07162
5.15645
5.17065
5.19569
5.17055
4.99072
5.08843
5.14392
4.99135
5.18044
4.93221
5.05802
4.97143
5
5.18256
5.16422
5.16217
5.19599
5.1244
4.84917
5.10776
5.04088
4.90502
5.19135
5.13718
4.96354
5.13851
5.15868
5.03935
5.02636
4.96341
4.67848
5.19894
4.84789
4.80123
5.07273
5.19739
4.73416
5.1971
5.15439
5.17666
5.13277
5.17204
5.15757
5.1731
5.13003
5.05947
4.943
5.15768
5.05528
5.13779
5.16788
5.18528
4.99102
4.92799
4.96399
5.15992
4.9823
4.90484
4.92649
5.07843
4.93996
5.10806
5.09194
5.0349
4.83813
5.19955
4.97146
4.73944
5.15804
5.13074
5.08065
4.98138
5.0766
4.88883
5.15191
5.10674
5.19851
5.10369
4.94286
4.81457
5.11298
4.91395
5.05632
4.94991
4.80178
5.102
4.85268
4.88713
5.07911
4.99367
4.89898
5.08008
5.19142
4.78478
5.15239
5.08815
5.03998
5.04684
5.06969
5.17714
5.05939
4.96634
5.16998
5.1777
4.9687
5.01033
4.86057
4.83927
5.00055
5.06856
5.19183
5.18869
5.07002
4.82902
5.02012
5.14539
5.0889
5.17613
5.10812
5.10433
5.13979
5.01066
4.91817
5.10946
5.09987
4.92003
4.99457
5.01039
5.13767
5.01288
4.82894
4.97957
5.19881
5.14476
5.18153
4.9829
5.19921
5.06866
5.0022
5.11181
5.11908
5.13857
5.13975
4.80551
5.14707
5.10019
5.00535
4.97145
5.19451
5.16944
5.07041
5.0098
4.99191
4.69664
5.07698
5.0826
5.13711
5.11048
5.11452
5.11281
4.92605
5.00026
5.01959
4.82788
4.97706
5.11484
5.13406
5.02149
4.74341
4.83165
5.19367
4.93529
5.19235
5.05952
5.14693
5.11623
5.03026
5.13721
5.17539
5.18849
5.10409
4.97658
4.8362
5.19546
5.16162
5.18559
5.20013
5.09168
4.93859
5.17105
5.14425
4.87462
4.95568
4.93612
5.08901
5.06858
5.19369
4.98376
4.86855
5.17146
5.17065
4.76298
4.95264
5.19123
4.8773
5.12149
5.09746
5.14767
5.11803
4.74441
5.06963
5.06112
5.16189
5.16996
5.19739
5.10548
4.69134
4.81117
4.76223
5.08086
5.19428
5.12757
4.96194
4.97206
5.0198
5.02322
5.13679
5.06856
4.94423
5.18174
5.11336
5.14135
5.08717
5.17148
5.15626
5.14871
4.98048
4.78201
4.8286
5.16991
4.83197
5.16096
5.01967
5.05357
5.04899
5.12736
5.16442
5.08644
5.14804
5.11753
4.80144
5.09933
5.10839
5.06254
5.00471
4.9172
5.04318
5.19127
5.13837
4.79287
5.18113
5.00355
5.18283
4.99223
5.11752
5.00994
5.10115
5.19848
4.98107
5.124
5.04857
5.06597
5.11754
4.93482
5.06047
5.05939
5.13738
5.069
5.18107
5.17757
4.84418
4.96799
5.13409
5.12395
5.00061
5.16905
4.89583
4.98339
4.89782
4.67932
4.763
5.01831
5.01066
4.84774
5.15505
5.12739
4.90816
5.04919
5.11956
4.95238
4.95239
4.69559
4.81717
5.08894
5.18303
4.77354
4.76084
5.16389
4.99151
4.95377
4.76411
5.02066
5.0133
5.14338
5.12297
4.98157
4.88509
5.11064
5.11807
5.15816
5.16672
4.92397
5.09813
4.81112
5.08356
5.08878
5.04033
5.1646
5.09419
5.06516
5.15145
5.18098
4.96345
5.04986
4.79049
4.86105
5.02217
5.13711
4.79524
4.898
4.6788
5.06775
5.12746
5.10254
5.1669
5.07844
5.13187
5.0981
5.05241
5.07784
5.18264
5.16394
5.14465
5.0053
5.00022
4.96242
4.98114
5.18996
5.07937
4.92698
5.20002
5.14947
5.04034
4.7775
5.14279
5.02049
4.93377
5.00092
5.10408
4.9221
5.14927
4.95938
5.19144
5.04898
4.83904
4.85476
5.0991
5.08582
5.04723
5.11582
4.98096
5.07237
4.9696
5.1108
5.1622
5.14992
5.16228
5.1641
4.69185
5.18092
4.91938
5.152
4.8584
4.84069
5.11664
5.16474
5.17657
5.12737
5.0409
5.03944
4.87638
5.00668
4.97865
5.1941
5.02975
5.16421
5.18554
4.7256
4.99422
5.10773
5.07029
5.16325
5.03984
5.17071
5.19988
5.01235
4.99176
5.17675
4.86915
5.10806
5.04007
5.0863
5.18607
5.08209
5.02096
4.70601
5.14068
4.98108
4.96899
5.12744
4.86755
5.02227
4.96209
4.96657
5.16648
5.09212
5.06001
5.19245
4.83528
5.19368
4.98352
4.99742
5.19654
4.64001
4.8803
4.68202
5.12758
5.01047
5.10886
5.1574
4.92848
5.11893
5.19828
4.89675
5.16034
4.85776
5.15738
4.97216
4.94287
5.02671
5.19626
5.04929
4.7347
5
5.13948
5.14388
5.13416
5.15815
5.18128
5.15918
4.92006
5.05435
5.17644
5.15242
5.18336
4.9352
4.81015
5.18228
5.19435
5.15759
5.12965
5.17621
5.16979
4.8023
4.90007
4.73334
5.07565
4.68713
5.03049
5.11964
5.16406
5.13917
5.08064
5.19191
5.17776
5.16418
5.05779
5.01122
4.93898
5.16468
5.17046
5.18075
5.01726
4.93128
5.09278
4.90732
5.0686
4.9732
5.04397
5.19592
5.06728
5.0665
5.0416
5.15113
5.11494
4.64678
5.09794
5.04505
4.90509
5.16391
5.16169
4.89533
5.14139
5.04815
4.90285
5.18179
5.17132
5.16495
5.1764
5.18834
5.00008
5.17662
5.00043
5.04563
5.05599
5.00982
4.9812
5.07139
5.05131
5.00002
4.99082
5.07034
4.93632
5.08819
4.82924
5.00008
5.06877
4.73712
5.05153
5.12073
5.19378
5.14751
4.82149
4.91088
4.90962
5.04644
5.11997
4.86673
5.11813
5.04514
4.95338
5.11782
5.07855
5.17282
5.08257
5.13966
4.8774
4.98823
4.96129
5.18301
5.15778
4.82512
5.19653
5.0005
5.06275
5.18491
5.18222
5.13007
4.92944
4.87783
5.18739
5.05839
5.12673
5.00004
4.998
5.0684
5.16554
5.10386
5.00752
4.69904
5.19365
5.17781
4.79048
5.09417
4.90525
4.90025
4.91296
5.15711
5.19391
4.94549
5.16953
5.09804
5.02014
4.86816
4.89641
5.03818
5.00025
4.69621
5.0155
5.05218
5.00982
5.16432
5.14035
5.15079
5.18836
4.91857
5.1793
5.18947
5.19946
5.15669
5.1894
5.17699
4.76544
5.14988
5.16791
5.2001
5.19133
5.13543
4.69968
5.19167
5.0415
4.95006
5.16758
5.04903
5.06533
4.91829
5.15996
5.03402
5.11331
5.04849
4.83741
5.17106
5.10779
5.18495
4.6294
5.00842
5.09595
5.0585
4.7716
5.12732
5.09442
5.11453
5.10917
5.06627
5.12078
5.08512
4.80367
4.94292
4.61906
5.00237
5.1967
4.97393
5.09544
5.1916
5.12816
5.07969
5.18162
4.92868
4.91773
4.88869
5.03302
5.19164
4.96043
5.08362
5.13773
5.19129
4.93333
5.16665
5.14126
5.0947
5.04916
4.84771
5.11994
5.12893
5.05283
4.88867
5.01559
5.01355
4.8477
4.82928
4.94288
5.10773
5.04029
5.12736
5.15913
5.10998
4.793
5.16447
5.17626
4.81441
4.94016
5.1779
5.14767
4.85757
4.98097
5.04957
5.19369
4.69674
5.13878
5.19741
5.03067
5.16496
5.18492
4.74252
5.14554
5.06121
4.89883
5.18089
5.1471
5.09736
5.1769
5.17451
4.88493
4.82861
4.92422
5.07251
4.95953
5.07886
5.16401
5.17308
5.13571
4.95222
5.00988
5.06001
4.90575
5.04306
4.92188
5.07348
5.0884
5.02941
4.74398
4.98561
5.16233
5.00197
4.87777
4.79048
5.19156
4.78975
4.73775
5.06484
5.12582
4.70032
5.03701
5.10777
4.82069
4.78331
4.8191
4.94293
5.19739
5.12796
4.95425
5.07044
5.17191
5.14177
5.09287
5.12398
5.01166
5.08815
5.17232
4.84071
5.02743
5.01113
5.06192
5.17306
5.13246
5.15617
5.00984
4.88581
5.19945
5.09254
5.15195
5.11662
5.05886
5.11447
4.88585
5.15617
4.98046
5.12418
5.18877
4.95593
5.11042
4.99077
5.09906
5.02939
4.743
5.16285
4.73431
5.18675
4.95247
5.02202
5.14643
4.6796
5.10838
5.04972
4.99053
5.03001
4.93635
4.98438
5.08519
4.97143
4.99352
5.04113
5.02932
5.12041
5.17034
5.17229
4.87464
5.06926
5.09921
4.7921
5.14762
4.88013
5.17751
4.90178
5.18161
4.76233
5.16013
5.15264
4.82675
4.70697
4.83425
5.09063
5.00587
5.17378
5.13712
4.84783
5.19124
5.03932
5.19995
5.18095
5.16395
4.88624
5.02571
4.92611
4.79438
5.07001
5.01983
5.08974
5.16716
5.08895
5.16753
4.83776
5.05166
5.10112
5.04618
5.10745
4.92382
5.17829
5.16241
5.1561
5.10141
5.02476
5.15322
5.03833
4.9833
4.90075
5.16605
5.15622
5.1842
4.9729
5.04583
5.04937
5.09778
5.15676
5.17649
4.66077
4.9862
5.15724
4.71463
5.19461
4.93167
5.18151
5.18153
5.17135
5.16644
5.17419
5.18906
4.76838
5.10997
4.77911
4.74166
5.05041
5.04799
5.01968
5.04178
5.1709
5.10276
4.88824
5.09839
4.81444
4.87794
5.10419
5.04902
5.11465
5.18435
4.78222
4.96316
5.13693
4.95445
5.04035
5.02949
5.09958
4.99873
4.95391
4.82657
5.15609
5.05051
5.15929
5.12008
5.05591
5.15067
5.1778
5.14006
5.07066
5.16743
5.19227
5.15925
5.17152
5.19378
4.95266
4.78191
5.14944
5.15699
5.0232
5.03958
4.67548
5.05827
5.17651
5.17621
4.82435
4.91986
5.16615
5.14768
5.15969
4.86761
5.0364
5.00046
5.1914
4.98128
5.11684
5.1278
4.82874
5.14486
5.17068
5.1825
5.14559
5.19047
5.17674
4.78299
5.07838
5.06113
5.06719
5.14048
5.18265
5.17092
5.03387
5.06648
5.15786
4.8193
5.05185
5.15494
5.04691
4.96198
5.01978
5.03876
4.981
5.18504
5.10269
5.15032
5.18187
4.8552
5.04017
5.00005
4.8748
4.72458
4.96863
4.73417
4.88574
5.0407
5.09845
5.15333
5.07807
4.91431
5.09294
5.16499
5.18447
4.83923
4.87736
5.01419
5.06004
5.08053
5.11955
5.10822
5.05148
5.15896
5.09409
4.81027
5.06261
5.14773
4.71515
5.20031
5.03504
4.98952
5.16477
4.91429
5.16392
5.08823
5.19526
5.00863
5.12421
4.96902
5.05541
5.14881
5.20001
5.00301
5.13747
5.17834
5.14072
5.19406
5.06024
5.16622
5.17056
5.0037
5.07429
5.05232
5.07836
4.83844
5.09817
5.06226
5.02581
5.16697
5.15855
5.00622
5.00915
5.0006
5.03949
4.97143
5.11778
5.19594
5.17082
4.92345
4.85829
5.12599
5.15364
4.92994
4.98208
4.84752
5.17631
4.9435
5.16652
5.03256
5.03032
5.17077
5.15429
5.14055
4.92382
5.03143
5.19194
5.12245
4.81376
4.94014
5.11301
5.17045
5.14462
4.991
5.03165
4.82952
5.19343
5.08883
5.19291
5.14402
5.16411
5.18943
5.15787
5.19571
4.97143
4.86122
5.17611
5.13328
5.18541
5.06929
5.07208
5.02938
5.18134
4.9708
5.00979
4.75483
4.72433
5.12549
4.86667
4.88685
5.03919
5.13111
4.85715
5.16834
5.09292
5.02952
5.07925
5.16692
5.07915
5.09081
4.77266
5.09297
4.94768
4.89404
5.18258
5.17794
5.15622
4.8865
4.94071
4.9716
5.19178
5.13144
5.10543
5.04361
5.03917
5.16729
5.14081
5.11937
5.19743
5.19547
4.93781
5.04387
4.9152
5.11952
5.10642
4.97166
4.91518
5.13322
5.15819
5.18491
5.05878
4.85937
5.00416
5.16445
5.19631
5.16884
4.86293
4.89686
5.01052
4.97317
5.15589
4.94811
4.88971
5.12724
5.05333
5.17663
4.87113
5.09054
5.16887
4.8762
5.14731
5.1767
4.87014
5.02127
5.05897
4.87893
5.09108
5.06869
5.00096
5.1749
4.75978
5.1909
4.72276
4.9895
5.18554
5.05282
5.09539
5.1004
5.19928
5.07823
4.68717
5.16399
5.14799
5.10845
5.10812
5.1084
4.91018
5.11752
5.18843
4.994
5.03922
4.98284
4.83533
5.10855
5.16967
4.90392
4.94292
5.16869
5.13902
4.9544
4.82111
5.17627
5.18841
5.08238
4.92788
5.19665
5.155
5.13783
4.63184
5.10818
5.08553
5.09047
5.2007
5.08496
5.09848
4.90768
5.15597
5.11518
4.89249
4.90498
5.18211
4.88925
5.10833
4.85891
5.04036
5.05879
4.9925
4.77899
5.06858
5.08319
5.00645
5.02093
5.10774
5.06233
4.81564
4.89534
5.15437
5.15153
4.91443
5.1995
4.78293
5.17906
5.08847
5.1646
5.17628
4.94419
5.18438
5.10258
5.03934
5.01375
5.10077
5.01813
5.0802
4.99252
5.00803
4.93091
5.17643
5.02133
5.01949
5.04294
5.12024
5.13755
4.86833
5.05106
5.06445
5.05999
5.11615
5.1977
5.03002
4.71626
4.88596
5.05878
4.78825
4.93391
5.14827
5.10693
5.12631
4.90476
4.7082
5.08914
5.08011
5.0392
4.96271
5.13274
5.12371
5.11012
5.02274
5.04879
5.18123
4.81923
5.04091
5.13872
4.63277
4.91815
4.71456
5.07838
5.15619
5.18098
5.04014
4.93868
5.08652
4.99185
4.8213
4.98129
5.18963
5.02942
4.93434
4.90483
5.19492
4.91531
5.19166
4.94752
5.03963
5.05118
4.64835
5.19798
5.18154
4.98278
5.18445
5.10091
4.99334
4.78095
5.19782
5.15911
5.13713
5.05877
5.01408
4.9426
5.15363
5.15045
5.04435
5.1204
5.12789
4.97076
5.17758
5.15804
5.1181
5.05399
4.93446
5.15717
5.04928
5.16391
5.17177
5.11783
4.8131
4.85828
5.07974
5.16396
4.81913
5.0588
4.80028
4.99308
5.19739
5.20001
4.94684
5.07327
4.83361
5.15839
5.16184
5.18097
5.01945
5.06519
4.91474
5.04899
5.1457
4.84788
5.1473
5.06004
5.19409
5.11472
4.9318
4.9489
5.18991
5.10776
4.96344
5.17169
5.03521
5.17416
5.1672
4.89608
5.17617
5.14721
5.13101
4.8371
5.00799
5.17045
4.93689
4.94955
4.65771
5.09792
5.18502
4.94969
5.13754
4.64821
5.19745
5.07841
5.15469
4.88572
5.18272
4.97179
5.00006
5.08861
5.11032
5.14703
5.02055
5.13133
4.63858
5.1437
5.08466
5.10938
5.08874
5.17745
5.01966
4.88771
4.97985
5.01058
5.12994
5.16649
4.89393
5.18741
5.16519
4.89535
4.71453
4.72643
5.07503
4.91918
5.07844
4.86809
4.97764
5.16251
5.12941
5.13183
4.97931
5.17647
4.95403
5.11092
5.02949
4.96474
4.89273
4.93501
5.10816
4.88683
5.1575
4.96126
5.19025
5.08858
4.83199
5.01086
5.10587
5.10821
5.17546
5.11627
5.19134
4.93131
5.11805
4.88576
5.10833
5.02221
4.74426
4.85836
5.1376
4.86965
5.11797
5.03452
4.92558
5.00372
4.90556
4.80016
5.08548
4.92176
4.80026
5.15685
5.11981
4.95768
5.1572
5.15066
5.01046
5.12235
5.1806
5.12813
5.02598
5.08839
4.85552
5.14867
4.91456
4.9947
5.13046
5.06057
4.95275
5.14001
5.19209
5.19308
4.97197
5.06129
5.09808
5.15176
5.04779
5.16924
4.97519
5.17174
5.1855
5.0742
5.16498
4.92237
5.03892
5.196
4.82907
5.16416
5.17831
4.95255
5.14199
5.00019
4.75705
5.03918
5.07008
5.16888
4.91449
5.06146
5.1974
4.90526
5.1241
5.07886
5.19134
4.84931
5.18285
5.05099
4.85636
5.10182
5.18703
5.09406
5.1652
4.98261
5.14691
5.00121
5.14721
4.92569
5.01073
5.11773
5.17686
5.19739
5.13639
5.17234
5.17739
4.99127
5.01341
5.07137
5.1762
5.19744
5.14901
5.12261
5.12862
5.13319
4.78143
5.12734
5.06072
5.02525
5.12397
5.09082
4.94681
5.10794
4.89528
5.11666
4.87047
4.89861
5.1168
5.19749
5.19365
5.05376
5.19204
5.08965
5.033
5.0893
4.9741
5.18806
4.7735
5.00053
5.10801
5.03261
4.92761
4.72515
5.07713
4.90747
5.12735
5.00231
5.14007
4.96566
5.19746
5.16507
5.13071
5.03522
4.94828
5.16511
5.17056
4.86349
4.92427
5.06087
5.0978
5.10345
5.07056
5.20009
5.03419
5.00154
5.01154
5.0895
5.08425
5.17105
5.17688
5.17614
5.14409
4.78541
5.02592
5.19208
4.82973
4.7678
5.17096
5.02156
4.77709
4.85376
5.18839
4.82862
5.16578
5.18129
5.1442
5.16167
5.12045
5.11527
4.70602
4.83407
4.77202
5.19131
4.70417
4.95325
5.17853
4.99557
5.1885
5.08847
4.93752
5.13742
4.94573
4.96386
4.90042
5.15642
4.99331
5.03934
5.18762
5.19125
4.94332
4.92165
5.1088
4.86554
5.16459
4.93398
4.84966
)


// ************************************************************************* //
