/*--------------------------------*- C++ -*----------------------------------*\
| =========                 |                                                 |
| \\      /  F ield         | OpenFOAM: The Open Source CFD Toolbox           |
|  \\    /   O peration     | Version:  plus.master.MPPICInterFoam            |
|   \\  /    A nd           | Web:      www.OpenFOAM.com                      |
|    \\/     M anipulation  |                                                 |
\*---------------------------------------------------------------------------*/
FoamFile
{
    version     2.0;
    format      ascii;
    class       vectorField;
    location    "5.2/lagrangian/kinematicCloud";
    object      UCorrect;
}
// * * * * * * * * * * * * * * * * * * * * * * * * * * * * * * * * * * * * * //


2908
(
(-1.54884e-06 1.43289e-06 -2.30564e-05)
(-1.71705e-05 6.64622e-06 -3.39693e-06)
(-0.000396095 -0.0011343 -0.0011644)
(-1.51752e-05 7.64822e-06 -2.3838e-06)
(0.000519319 0.000649392 -0.000801647)
(0.000908213 0.00113705 -0.000483145)
(0.000519319 0.000649392 -0.000811592)
(0.00045243 0.000472831 -0.000364794)
(3.73542e-06 4.82993e-06 -3.39092e-09)
(3.23177e-06 4.42828e-06 -3.39092e-09)
(1.60732e-06 8.89788e-07 -0.0011898)
(1.60732e-06 8.89788e-07 -0.000996397)
(0.00045866 0.000466601 -0.000364794)
(3.24832e-06 7.53102e-07 -0.00104716)
(0.000727368 0.000910277 -0.000483145)
(0.000100722 0.000124488 -0.000483145)
(2.54663e-07 -1.075e-06 -0.000800706)
(2.06454e-06 2.29987e-06 -3.39092e-09)
(-0.000396095 -0.0011343 -0.00109156)
(1.3924e-07 1.03135e-06 -0.000638874)
(7.09167e-06 2.57482e-06 -0.00104716)
(3.41191e-06 7.90441e-07 -0.00104716)
(0.000277205 -0.000290013 -0.000655101)
(-4.85625e-07 -7.79279e-07 -0.000701586)
(-0.000687203 -0.000546797 -0.000842457)
(0.000234403 -0.000343684 -0.000655101)
(2.18377e-08 -7.04459e-07 -0.000636686)
(-5.71058e-05 2.54864e-06 -0.000133057)
(-6.93883e-06 2.54864e-06 -0.000133057)
(0.000409827 0.000515435 -0.00059385)
(9.21492e-08 6.13406e-07 -0.000638874)
(-5.47533e-05 -0.00134878 -0.000655101)
(0.000871482 -0.000137061 -0.000510895)
(-4.05919e-06 1.47763e-06 -0.000638874)
(7.19542e-06 1.654e-06 -0.00163687)
(-0.000687203 -0.000546797 -0.00091721)
(-1.01199e-06 -1.68498e-06 -0.000636686)
(0.000468506 0.000681319 -0.000483145)
(0.000328384 -7.39607e-05 -0.000510895)
(4.05154e-06 7.53483e-07 -0.000636686)
(0.000519319 0.000649392 -0.00020388)
(-0.000101112 -7.94042e-05 -0.00049907)
(3.41238e-06 1.47763e-06 -0.000638874)
(1.44794e-06 1.14344e-06 -0.000701586)
(-1.46555e-06 -1.56074e-06 -0.000701586)
(-3.43157e-06 1.47763e-06 -0.000638874)
(-5.79354e-06 -1.46169e-06 -0.00214807)
(-1.64163e-05 6.17236e-06 -3.39693e-06)
(3.00301e-06 1.47763e-06 -0.000638874)
(-5.79354e-06 -1.46169e-06 -0.00204125)
(4.87459e-06 1.14984e-06 -0.000636686)
(4.82032e-07 -1.72478e-06 -0.000636686)
(0.000177612 0.000367605 -0.000583982)
(7.19542e-06 1.654e-06 -4.1121e-05)
(7.10916e-05 9.06749e-05 -0.000364794)
(7.11321e-06 2.38362e-06 -0.00104716)
(1.56789e-06 9.52541e-07 -0.000701586)
(-0.000396095 -0.0011343 -0.00125516)
(-1.62979e-06 1.26478e-06 -2.30564e-05)
(-3.89761e-06 1.47763e-06 -0.000638874)
(2.68865e-06 -1.30541e-06 -1.00985e-06)
(2.27643e-05 1.88252e-05 -1.69393e-06)
(1.47737e-06 1.09661e-06 -0.000701586)
(-1.45686e-05 5.01137e-06 -3.39693e-06)
(-0.000396095 -0.0011343 -0.000964293)
(-5.79354e-06 -1.46169e-06 -0.0022378)
(-0.000130452 -0.000102802 -0.00049907)
(2.51576e-05 -0.00060607 -0.000655101)
(4.39429e-06 3.11232e-06 -0.000701586)
(-0.000687203 -0.000546797 -0.000920193)
(-0.000687203 -0.000546797 -0.000937818)
(-5.79354e-06 -1.46169e-06 -0.00225846)
(1.60732e-06 8.89788e-07 -3.08122e-05)
(-4.39277e-06 1.47763e-06 -0.000638874)
(0.000120255 -2.64567e-05 -0.000510895)
(-2.42496e-06 -2.15104e-06 -6.15424e-07)
(1.86279e-06 -7.61271e-06 -2.55702e-07)
(2.50342e-06 1.20557e-06 -1.15234e-09)
(-1.09054e-06 -1.26168e-06 -0.000701586)
(2.13754e-05 1.77175e-05 -1.69393e-06)
(-1.56856e-06 1.39194e-06 -2.30564e-05)
(9.10567e-08 6.03709e-07 -0.000638874)
(5.76646e-06 1.07637e-07 1.81396e-06)
(1.0493e-05 2.39495e-06 -1.06708e-06)
(0.000311543 -0.000246954 -0.000655101)
(4.69322e-06 1.08289e-06 -0.00104716)
(3.05777e-05 1.38879e-05 -7.07451e-07)
(1.56324e-06 3.09768e-06 -7.78031e-10)
(3.92602e-06 9.07783e-07 -0.00104716)
(-3.49251e-06 -2.87954e-06 -0.000636686)
(-0.000396095 -0.0011343 -0.000965203)
(4.81584e-06 1.11088e-06 -0.00104716)
(-5.79354e-06 -1.46169e-06 -0.00179996)
(0.000129971 2.92719e-05 -3.72786e-06)
(0.000517242 -5.50997e-05 -4.70944e-06)
(-0.000396095 -0.0011343 -0.00118177)
(-0.000396095 -0.0011343 -0.00124756)
(0.000864797 -0.000196393 -8.08822e-05)
(-6.17506e-06 1.9244e-06 -0.00114844)
(1.11844e-05 1.50739e-05 -2.43933e-06)
(0.000129938 2.92643e-05 -3.72786e-06)
(-2.06152e-06 -5.37668e-06 -1.86607e-05)
(0.000268793 -6.03595e-05 -0.000510895)
(0.000864797 -0.000196393 -8.5631e-05)
(0.000397012 -8.96245e-05 -0.000510895)
(1.73525e-06 7.61861e-07 -0.000701586)
(4.47018e-07 -1.62472e-06 -0.000636686)
(1.74887e-07 1.34773e-06 -0.000638874)
(-6.20385e-08 -5.70971e-07 -0.000636686)
(-8.35424e-07 -7.60353e-07 -1.9939e-06)
(-3.57566e-06 2.82098e-06 -3.50625e-09)
(0.000409827 0.000515435 -0.00069107)
(-0.000687203 -0.000546797 -0.000864841)
(0.000867208 0.000197541 -2.45846e-06)
(-1.01098e-06 -3.70105e-07 -0.00114844)
(-0.000222574 1.89411e-05 -0.000133057)
(-3.64775e-06 -2.9543e-06 -0.000636686)
(0.00023204 -5.19708e-05 -0.000510895)
(-0.000396095 -0.0011343 -0.00115804)
(-9.4794e-08 -1.79084e-07 -2.96331e-06)
(-0.000396095 -0.0011343 -0.00110904)
(-3.87914e-06 -3.06573e-06 -0.000636686)
(-5.79354e-06 -1.46169e-06 -0.00191699)
(-1.97633e-06 5.45196e-07 -3.89018e-05)
(-5.79354e-06 -1.46169e-06 -0.001986)
(7.38316e-06 1.11748e-06 -0.00104716)
(8.83481e-07 -4.814e-06 -1.38883e-05)
(1.07484e-05 2.46495e-06 -0.00104716)
(-1.33999e-06 -1.84294e-06 -0.000636686)
(3.93856e-07 -4.94616e-08 -0.00114844)
(-0.000138367 -0.000109115 -0.00049907)
(0.000159438 -0.000437688 -0.000655101)
(0.0001082 2.43028e-05 -3.72786e-06)
(0.000867208 0.000197541 -2.70667e-06)
(0.000874348 0.000134176 -3.72786e-06)
(-0.000222308 2.13078e-05 -0.000133057)
(2.81168e-06 5.02392e-07 -0.00114844)
(6.13458e-06 1.40018e-06 -2.05702e-06)
(1.11398e-05 2.54258e-06 -1.06708e-06)
(7.32301e-06 1.28937e-06 -0.00104716)
(1.65436e-08 -1.35581e-07 -0.00114844)
(1.09408e-05 2.50885e-06 -0.00104716)
(4.67347e-06 1.47964e-05 -2.64488e-06)
(-0.000396095 -0.0011343 -0.00114605)
(0.000478365 0.000675124 -0.000483145)
(-0.000687203 -0.000546797 -0.00083474)
(-1.97633e-06 5.45196e-07 -4.06371e-05)
(-0.000396095 -0.0011343 -0.00106433)
(-2.27184e-06 -3.51003e-06 -6.15424e-07)
(0.000874449 0.000133276 -3.72786e-06)
(2.92754e-05 1.32608e-05 -7.07451e-07)
(0.000207052 -4.62674e-05 -0.000510895)
(1.11711e-07 7.87025e-07 -0.000638874)
(9.42873e-05 2.11273e-05 -3.72786e-06)
(0.000867208 0.000197541 -2.96649e-06)
(-2.30163e-06 -2.30604e-06 -0.000636686)
(1.0392e-05 8.04163e-06 -2.33459e-05)
(7.11319e-06 2.38381e-06 -0.00104716)
(-1.72298e-06 1.47763e-06 -0.000638874)
(0.000855167 -0.000223914 -0.000510895)
(-0.000687203 -0.000546797 -0.000891524)
(1.47748e-05 -8.81893e-06 -3.39693e-06)
(0.000240886 7.54556e-07 -4.70944e-06)
(-0.000396095 -0.0011343 -0.000846701)
(1.10856e-05 1.41975e-05 -2.43933e-06)
(3.69572e-06 8.55218e-07 -0.00104716)
(-5.79354e-06 -1.46169e-06 -0.0017984)
(1.19606e-05 1.02095e-05 -3.4866e-07)
(0.000519319 0.000649392 -0.000113384)
(1.10444e-06 4.8876e-07 -0.000701586)
(0.000519319 0.000649392 -0.000192198)
(4.2115e-06 9.7294e-07 -0.00104716)
(-0.000396095 -0.0011343 -0.00107294)
(3.95457e-07 6.09164e-06 -8.70103e-07)
(0.000838782 -0.000270739 -0.000510895)
(0.000848651 -0.000242534 -0.000510895)
(2.54663e-07 -1.075e-06 -0.000138954)
(-2.26944e-06 -3.53138e-06 -6.15424e-07)
(1.42504e-06 -6.36169e-06 -2.55702e-07)
(2.98389e-06 6.92748e-07 -0.00104716)
(-0.000687203 -0.000546797 -0.000776096)
(1.89524e-07 1.47763e-06 -0.000224676)
(-0.000222737 1.74981e-05 -0.000133057)
(-1.61128e-05 5.98163e-06 -3.39693e-06)
(6.07263e-07 -7.52792e-10 -0.00114844)
(-6.9713e-07 -2.48352e-07 -0.00110356)
(4.45622e-06 2.14599e-06 -2.0118e-09)
(-5.07261e-06 -3.52199e-06 -0.00114844)
(2.87897e-05 1.6649e-06 -6.15424e-07)
(0.000519319 0.000649392 -9.5497e-05)
(1.53161e-06 1.01028e-06 -0.000701586)
(1.19606e-05 1.02095e-05 -1.94425e-07)
(-5.79354e-06 -1.46169e-06 -0.00146046)
(0.000409827 0.000515435 -0.000628154)
(9.19571e-06 4.00489e-06 -1.4768e-06)
(-5.79354e-06 -1.46169e-06 -0.00199221)
(-8.44378e-07 -7.514e-07 -1.9939e-06)
(-3.75253e-06 9.95516e-07 -1.49808e-06)
(2.45935e-05 6.60415e-06 -2.55702e-07)
(1.61282e-06 -6.89834e-06 -2.55702e-07)
(-1.6172e-05 2.54864e-06 -0.000133057)
(-2.99753e-06 1.47763e-06 -0.000638874)
(-1.00288e-07 -1.76438e-07 -2.96331e-06)
(-9.02866e-06 3.7861e-06 -1.42217e-05)
(0.000864797 -0.000196393 -0.00010629)
(-2.24215e-07 -1.90532e-07 -0.00114844)
(-1.44552e-06 -4.69286e-07 -0.00114844)
(1.89524e-07 1.47763e-06 -0.000102418)
(-5.79354e-06 -1.46169e-06 -0.0014768)
(5.20672e-05 8.04163e-06 -2.43933e-06)
(-6.59543e-05 2.54864e-06 -0.000133057)
(1.1456e-05 2.62646e-06 -0.00104716)
(-1.97633e-06 5.45196e-07 -3.83896e-05)
(-0.00118845 -0.000946525 -0.00049907)
(0.000266272 -0.000303722 -0.000655101)
(3.12259e-05 6.54947e-05 -3.39693e-06)
(0.000523535 7.54556e-07 -3.30855e-06)
(7.19542e-06 1.654e-06 -0.000145362)
(-5.79354e-06 -1.46169e-06 -0.0017965)
(6.15023e-05 1.36444e-05 -3.72786e-06)
(2.54663e-07 -1.075e-06 -6.6773e-05)
(1.08812e-05 1.23829e-05 -2.43933e-06)
(3.8571e-07 6.09776e-06 -8.70103e-07)
(7.50626e-06 7.65656e-07 -0.00104716)
(-1.77317e-06 -3.02855e-06 3.61303e-05)
(7.19542e-06 1.654e-06 -0.000662552)
(2.87135e-06 5.1601e-07 -0.00114844)
(-1.48704e-06 -4.78763e-07 -0.00114844)
(1.28737e-07 2.23831e-06 -6.19487e-07)
(0.000864797 -0.000196393 -7.8884e-05)
(-0.000396095 -0.0011343 -0.00105389)
(-0.000396095 -0.0011343 -0.00110896)
(-4.98975e-07 -2.61384e-06 -2.55702e-07)
(1.16287e-05 2.65417e-06 -1.06708e-06)
(-5.79354e-06 -1.46169e-06 -0.00161995)
(1.19606e-05 1.02095e-05 -3.37434e-06)
(-1.24859e-05 -2.98918e-06 -0.00114844)
(3.81044e-05 3.79092e-06 -6.15424e-07)
(2.95726e-06 6.86668e-07 -0.00104716)
(-0.000224421 2.54864e-06 -8.3763e-05)
(-0.000687203 -0.000546797 -0.000840378)
(-0.000687203 -0.000546797 -0.000813169)
(0.000838558 -0.00027138 -0.000510895)
(-6.92689e-07 -2.43911e-07 -0.00110356)
(-2.06152e-06 -5.37668e-06 -1.9266e-05)
(-3.74312e-06 -3.00023e-06 -0.000636686)
(0.000519319 0.000649392 -8.7312e-05)
(1.57457e-07 -2.66437e-07 -0.000701586)
(1.50798e-06 -6.59873e-06 -2.55702e-07)
(1.98294e-05 4.30989e-06 -2.55702e-07)
(-0.000223858 7.54448e-06 -0.000133057)
(3.8248e-07 -1.44028e-06 -0.000636686)
(-5.79354e-06 -1.46169e-06 -0.00171039)
(0.000103686 -2.26748e-05 -0.000510895)
(0.000261072 5.91948e-05 -3.72786e-06)
(7.19542e-06 1.654e-06 -0.000186788)
(1.36651e-05 2.48341e-05 -0.00151442)
(0.000519319 0.000649392 -0.000210572)
(6.3527e-05 7.54556e-07 -4.70944e-06)
(-0.000444214 -0.000353019 -0.00049907)
(5.79751e-06 5.69994e-06 -0.0015953)
(-2.06152e-06 -5.37668e-06 2.15724e-05)
(-2.20286e-06 -6.42145e-07 -0.00114844)
(-2.06152e-06 -5.37668e-06 -2.28827e-05)
(-5.79354e-06 -1.46169e-06 -0.000289346)
(7.19542e-06 1.654e-06 -0.000784997)
(-0.000396095 -0.0011343 -0.00110914)
(7.63521e-06 -1.85508e-06 -1.09219e-06)
(1.40351e-06 -6.30015e-06 -2.55702e-07)
(-1.55367e-07 -1.49914e-07 -5.60049e-06)
(5.1232e-07 -2.2423e-08 -0.00114844)
(-3.52131e-06 -3.79085e-06 -3.4774e-09)
(-6.03245e-06 6.58697e-07 -0.00114844)
(3.21075e-05 6.73253e-05 -3.39693e-06)
(1.0392e-05 8.04163e-06 -2.656e-05)
(1.16283e-05 6.72491e-06 -2.64488e-06)
(7.1228e-06 5.90913e-06 -2.60931e-06)
(-1.97633e-06 5.45196e-07 -4.07468e-05)
(0.000200906 7.54556e-07 -4.70944e-06)
(1.0392e-05 8.04163e-06 -1.53082e-05)
(0.000446335 -0.000100882 -0.000510895)
(0.000119801 -0.000487391 -0.000655101)
(-0.000687203 -0.000546797 -0.000878085)
(3.07952e-07 5.19065e-07 -0.00110356)
(-0.000382418 -0.000303738 -0.00049907)
(3.69947e-06 1.62086e-05 -2.755e-06)
(7.26654e-06 -3.19986e-06 -0.00200253)
(3.18828e-06 7.39399e-07 -0.00104716)
(-1.22648e-06 -4.19293e-07 -0.00114844)
(-1.33443e-05 1.67332e-05 -1.5851e-06)
(2.65158e-05 1.19318e-05 -7.07451e-07)
(-9.02866e-06 3.7861e-06 -1.43833e-05)
(1.44386e-06 1.28075e-06 -2.64488e-06)
(-8.11097e-07 -7.84681e-07 -1.9939e-06)
(1.0392e-05 8.04163e-06 -2.35557e-05)
(-5.79354e-06 -1.46169e-06 -9.06827e-05)
(7.44637e-06 9.36838e-07 -0.00104716)
(2.43311e-07 4.78449e-07 -0.00110356)
(0.000519319 0.000649392 -0.000110699)
(-1.37032e-05 7.60417e-06 0.000108428)
(1.60732e-06 8.89788e-07 -0.000192943)
(0.00152155 -0.000732463 -5.60725e-06)
(7.19542e-06 1.654e-06 -0.000553371)
(0.000585379 0.00021019 1.82063e-10)
(-1.97633e-06 5.45196e-07 -4.39611e-05)
(-5.79354e-06 -1.46169e-06 -0.000424404)
(-1.69501e-05 6.50772e-06 -3.39693e-06)
(-9.02866e-06 3.7861e-06 -1.333e-05)
(-4.02249e-06 3.17731e-06 -3.50625e-09)
(-2.06152e-06 -5.37668e-06 -1.77156e-05)
(-1.48476e-06 -4.78243e-07 -0.00114844)
(4.5547e-05 5.48967e-06 -6.15424e-07)
(2.50338e-05 8.07656e-07 -6.15424e-07)
(-1.42273e-05 -3.42277e-06 -2.87769e-07)
(5.79751e-06 1.00933e-05 -0.0015953)
(3.03971e-05 1.3801e-05 -7.07451e-07)
(3.05662e-06 7.09347e-07 -0.00104716)
(-2.43776e-06 -2.03746e-06 -6.15424e-07)
(0.000409827 0.000515435 -0.000687564)
(4.58456e-07 6.13633e-07 -0.00110356)
(1.56324e-06 3.09768e-06 -7.40039e-10)
(2.32334e-05 4.88981e-05 -3.39693e-06)
(4.14056e-06 2.90998e-06 -0.000701586)
(2.54663e-07 -1.075e-06 -0.000117859)
(-3.03783e-06 8.3239e-07 -1.49808e-06)
(7.58809e-11 -3.21283e-05 -2.31923e-06)
(7.99732e-07 -3.15328e-05 -0.00151442)
(2.01938e-05 1.51604e-05 -1.9939e-06)
(7.19542e-06 1.654e-06 -0.000171751)
(7.41001e-06 1.53554e-06 -5.78919e-07)
(-2.06152e-06 -5.37668e-06 -1.43226e-05)
(-1.77317e-06 -3.02855e-06 -3.13466e-05)
(-0.000132707 -0.0012998 -0.000655101)
(-2.06152e-06 -5.37668e-06 -1.10002e-05)
(2.54663e-07 -1.075e-06 -0.000114123)
(4.52707e-05 9.27958e-05 -0.000583982)
(0.000270301 -0.00029867 -0.000655101)
(-6.68015e-07 -2.21305e-07 -0.00186777)
(-1.97633e-06 5.45196e-07 -4.04478e-05)
(-0.000190476 -0.00015067 -0.00049907)
(-6.68015e-07 -2.21305e-07 -0.00167057)
(-4.10636e-06 -1.07661e-06 -0.00114844)
(-2.06152e-06 -5.37668e-06 -2.37903e-05)
(5.79751e-06 1.8504e-05 -0.0015953)
(-1.34086e-06 -7.43621e-06 -6.15424e-07)
(5.05103e-07 -1.79072e-06 -0.000636686)
(7.04514e-06 2.98773e-06 -0.00104716)
(1.76596e-06 2.63712e-07 -0.00114844)
(0.00144868 -0.000848438 -5.06297e-07)
(8.06819e-07 4.47946e-08 -0.00114844)
(-3.20153e-05 -2.43017e-05 -0.00049907)
(1.86727e-06 2.86836e-07 -0.00114844)
(-0.000573699 -0.00045628 -0.00049907)
(-9.93873e-07 -1.18459e-06 -0.000701586)
(1.40236e-11 -4.70692e-12 -1.92313e-07)
(1.11606e-05 1.38613e-05 -0.00151442)
(-2.06152e-06 -5.37668e-06 -1.75965e-05)
(-1.42723e-06 -7.18937e-06 -6.15424e-07)
(5.06247e-05 8.04163e-06 -2.43933e-06)
(-7.75811e-07 -8.19966e-07 -1.9939e-06)
(0.000519319 0.000649392 -6.73777e-05)
(1.10024e-05 1.11676e-05 -1.69393e-06)
(-0.000223251 1.29344e-05 -0.000133057)
(1.11318e-05 1.46073e-05 -2.43933e-06)
(0.00152155 -0.000732463 -5.69684e-06)
(0.000463765 0.000961808 -0.000293348)
(-1.97633e-06 5.45196e-07 -4.2514e-05)
(-5.79354e-06 -1.46169e-06 -0.000352947)
(-9.02866e-06 3.7861e-06 -1.32834e-05)
(-1.97633e-06 5.45196e-07 -4.27755e-05)
(-1.77317e-06 -3.02855e-06 -3.09306e-05)
(2.3091e-05 4.86025e-05 -3.39693e-06)
(1.60732e-06 8.89788e-07 -0.00019894)
(1.5182e-05 -8.96141e-06 -3.39693e-06)
(8.8798e-07 1.91649e-05 -3.29116e-06)
(-9.42479e-07 -4.95769e-07 -0.000970005)
(0.000320723 -0.000154175 -5.06297e-07)
(-2.44338e-06 6.95749e-06 -1.62236e-06)
(7.29509e-05 0.000150274 -0.000583982)
(-5.79354e-06 -1.46169e-06 -0.000217021)
(-2.06152e-06 -5.37668e-06 -1.31796e-05)
(0.000380081 7.54556e-07 -4.70944e-06)
(1.80523e-06 -7.44822e-06 -2.55702e-07)
(2.70136e-07 6.01515e-07 -0.00101711)
(9.15437e-05 0.000116321 -0.000364794)
(8.83481e-07 -4.814e-06 -1.18752e-05)
(2.5038e-05 5.26454e-05 -3.39693e-06)
(0.000359428 0.00074515 -0.000583982)
(-1.77317e-06 -3.02855e-06 -3.95053e-05)
(8.76015e-06 2.60926e-05 -2.3838e-06)
(2.51642e-05 1.12809e-05 -7.07451e-07)
(-1.75857e-07 -1.79495e-07 -0.00114844)
(-3.34228e-06 -9.0221e-07 -0.00114844)
(-1.77317e-06 -3.02855e-06 -3.49045e-05)
(-2.28929e-06 2.69839e-06 -3.29116e-06)
(-7.82783e-06 6.33611e-06 -3.94969e-06)
(3.09544e-05 2.159e-06 -6.15424e-07)
(-8.83889e-06 -2.15677e-06 -0.00114844)
(-3.65119e-07 -2.82687e-06 -2.55702e-07)
(3.9612e-06 8.47487e-06 -4.06577e-06)
(9.57801e-06 8.15722e-08 3.36311e-06)
(-2.06152e-06 -5.37668e-06 -1.11481e-05)
(-4.42314e-05 -1.50017e-05 -6.15424e-07)
(-1.20994e-05 -2.90097e-06 -0.00114844)
(-6.54157e-06 -7.74043e-07 1.52479e-05)
(1.09467e-05 3.11852e-06 -2.43933e-06)
(0.000347722 -0.000167177 -5.06297e-07)
(-4.23241e-06 -3.23586e-06 -0.000636686)
(1.14699e-05 -7.6625e-06 -3.39693e-06)
(4.29796e-05 5.20815e-05 -0.000483145)
(1.66638e-05 1.23452e-05 -1.9939e-06)
(-0.000114507 2.54864e-06 -0.000133057)
(-2.36571e-06 -2.67688e-06 -6.15424e-07)
(1.60732e-06 8.89788e-07 -0.000210777)
(1.36227e-05 9.92009e-06 -1.9939e-06)
(-1.77317e-06 -3.02855e-06 -4.10303e-05)
(3.9612e-06 8.47487e-06 -4.14331e-06)
(-2.29016e-06 -3.34747e-06 -6.15424e-07)
(3.9612e-06 8.47487e-06 -4.1959e-06)
(1.78731e-06 -9.06955e-06 8.56219e-06)
(-8.86014e-05 -0.00121225 1.08839e-05)
(2.70884e-05 5.69032e-05 -3.39693e-06)
(-1.48257e-05 7.42864e-06 -2.3838e-06)
(1.28737e-07 2.23831e-06 -7.24679e-07)
(2.17033e-05 4.74993e-08 -6.15424e-07)
(-1.4021e-06 -7.2612e-06 -6.15424e-07)
(-2.23979e-06 -3.79449e-06 -6.15424e-07)
(9.76272e-08 6.62024e-07 -0.000638874)
(0.000952561 0.000761018 -3.013e-06)
(6.0779e-05 7.44013e-05 -0.000483145)
(-1.93933e-06 5.16978e-06 -2.97611e-06)
(1.89524e-07 1.47763e-06 -0.00013396)
(2.81966e-05 5.92044e-05 -3.39693e-06)
(0.000769481 0.00121731 -9.2693e-07)
(1.09899e-05 2.73572e-06 -2.43933e-06)
(3.21063e-05 6.73229e-05 -3.39693e-06)
(-7.37147e-08 -3.29063e-06 -2.55702e-07)
(2.48548e-05 7.66803e-07 -6.15424e-07)
(-1.50858e-05 7.59205e-06 -2.3838e-06)
(-5.79354e-06 -1.46169e-06 -0.000237978)
(7.19542e-06 1.654e-06 -0.000598049)
(0.00015584 0.000322395 -0.000583982)
(9.48423e-08 5.12952e-07 -0.00101711)
(-2.73065e-06 1.47763e-06 -0.000638874)
(-8.5648e-06 6.07617e-06 -0.000970005)
(1.60732e-06 8.89788e-07 -1.70699e-05)
(-9.02866e-06 3.7861e-06 -1.12159e-05)
(1.99358e-07 4.50831e-07 -0.00110356)
(1.11814e-05 1.03616e-06 -2.43933e-06)
(7.36574e-06 -7.66665e-07 -1.09219e-06)
(-0.000235929 -5.82132e-05 7.57727e-06)
(-2.28794e-06 -3.36712e-06 -6.15424e-07)
(-5.79354e-06 -1.46169e-06 -0.000160515)
(-2.83682e-07 -2.95647e-06 -2.55702e-07)
(-7.03666e-07 6.76147e-06 -8.37546e-06)
(-2.85087e-06 2.76167e-06 -3.29116e-06)
(-1.41583e-06 -7.22195e-06 -6.15424e-07)
(-1.4088e-06 -7.24204e-06 -6.15424e-07)
(2.6406e-06 -2.85984e-06 -0.000970005)
(5.79751e-06 -3.24443e-05 -0.0015953)
(-7.91187e-07 -8.0459e-07 -1.9939e-06)
(1.60225e-05 -1.24912e-06 -6.15424e-07)
(-5.79354e-06 -1.46169e-06 -0.000211277)
(-8.30661e-05 2.54864e-06 -0.000133057)
(2.68901e-05 7.71014e-06 -2.55702e-07)
(-1.97633e-06 5.45196e-07 -4.3805e-05)
(-2.76118e-05 3.46242e-05 -1.5851e-06)
(-5.79354e-06 -1.46169e-06 -0.000228069)
(-0.000673075 -0.000560925 -0.00049907)
(-9.07263e-07 -4.60553e-07 -0.000970005)
(-3.62785e-07 -1.23299e-06 -1.07141e-05)
(-2.35819e-06 6.94789e-06 -1.62236e-06)
(-2.38943e-06 6.95141e-06 -1.62236e-06)
(5.79751e-06 2.52398e-05 -0.0015953)
(3.57967e-06 -2.78445e-06 -0.00151442)
(3.60904e-05 3.33125e-06 -6.15424e-07)
(-1.64583e-06 -6.56466e-06 -6.15424e-07)
(2.16637e-05 1.79474e-05 -1.69393e-06)
(-2.06152e-06 -5.37668e-06 2.22534e-05)
(1.07625e-05 -7.41499e-06 -3.39693e-06)
(1.00501e-05 -7.16569e-06 -3.39693e-06)
(7.58937e-06 -1.72408e-06 -1.09219e-06)
(-2.20438e-06 -4.10872e-06 -6.15424e-07)
(5.56176e-05 8.04163e-06 -2.43933e-06)
(7.02003e-06 4.997e-06 -2.60931e-06)
(1.93246e-06 2.67707e-06 -2.64488e-06)
(5.79751e-06 2.13466e-05 -0.0015953)
(0.000237603 -0.000339671 -0.000655101)
(1.48087e-07 0.00380998 7.35422e-06)
(9.91586e-06 -5.1716e-07 -0.0015953)
(-5.79354e-06 -1.46169e-06 -3.13997e-05)
(0.000249231 0.000516324 -0.000583982)
(4.86034e-06 2.12024e-05 -2.3838e-06)
(2.37177e-05 4.99038e-05 -3.39693e-06)
(5.87481e-05 0.000120782 -0.000583982)
(-2.9856e-05 -1.45243e-05 3.22953e-12)
(7.38017e-06 -3.22167e-06 -6.15424e-07)
(-2.06152e-06 -5.37668e-06 -3.60962e-06)
(0.000451653 -0.00171456 -0.00101473)
(-2.06752e-05 2.59259e-05 -1.5851e-06)
(-1.77317e-06 -3.02855e-06 2.88937e-05)
(9.40393e-06 -6.93959e-06 -3.39693e-06)
(3.98561e-05 8.04163e-06 -2.43933e-06)
(-2.16924e-06 -4.4206e-06 -6.15424e-07)
(2.21046e-05 8.04163e-06 -2.43933e-06)
(1.67508e-06 -7.07627e-06 -2.55702e-07)
(3.4136e-05 6.96744e-05 -0.000583982)
(-0.000396095 -0.0011343 -0.00025485)
(-9.02866e-06 3.7861e-06 -1.29457e-05)
(-1.42606e-06 -7.19272e-06 -6.15424e-07)
(-6.68015e-07 -2.21305e-07 -0.000352525)
(-6.68015e-07 -2.21305e-07 -0.0017519)
(4.0285e-05 8.2443e-05 -0.000583982)
(-1.46763e-05 -7.2141e-06 -2.25521e-10)
(-1.2528e-05 -1.83408e-05 -4.80647e-07)
(-1.19764e-05 -1.67645e-05 -4.80647e-07)
(0.000184401 7.54556e-07 -4.70944e-06)
(-2.28923e-06 -3.3557e-06 -6.15424e-07)
(-9.02866e-06 3.7861e-06 -1.17066e-05)
(5.79751e-06 1.70045e-05 -0.0015953)
(-2.06152e-06 -5.37668e-06 -1.15669e-05)
(1.19882e-05 8.61658e-06 -1.9939e-06)
(5.79751e-06 -3.72171e-05 -0.0015953)
(-2.06152e-06 -5.37668e-06 -7.97126e-06)
(3.23473e-05 1.03382e-05 -2.55702e-07)
(1.08986e-05 1.2538e-05 -2.43933e-06)
(2.10658e-05 4.4397e-05 -3.39693e-06)
(-8.41537e-06 9.60043e-07 1.68949e-05)
(-2.79427e-05 -1.01929e-05 2.24938e-07)
(-3.75817e-06 9.96804e-07 -1.49808e-06)
(4.35614e-06 1.00595e-06 -0.00104716)
(-2.06152e-06 -5.37668e-06 1.56631e-05)
(2.64002e-05 7.47423e-06 -2.55702e-07)
(6.99831e-06 5.23742e-07 -2.60931e-06)
(1.27116e-06 -5.92192e-06 -2.55702e-07)
(-3.99637e-05 -1.40276e-05 -6.15424e-07)
(2.52619e-05 5.31104e-05 -3.39693e-06)
(4.16498e-07 6.07842e-06 -8.70103e-07)
(5.36572e-06 2.18361e-05 -2.3838e-06)
(-7.03666e-07 6.76147e-06 -6.8431e-06)
(5.79751e-06 2.82967e-05 -0.0015953)
(-5.74935e-07 -7.31694e-08 -0.000970005)
(8.8798e-07 2.51886e-05 -3.29116e-06)
(1.50275e-06 -6.58377e-06 -2.55702e-07)
(-2.06152e-06 -5.37668e-06 -6.59282e-06)
(1.93916e-05 4.09205e-05 -3.39693e-06)
(-5.95606e-08 5.6712e-07 3.36311e-06)
(8.33227e-05 0.000171812 -0.000583982)
(2.56062e-05 5.38254e-05 -3.39693e-06)
(-1.68179e-05 -8.74472e-06 -6.15424e-07)
(1.0392e-05 8.04163e-06 -2.33919e-05)
(0.000702678 -0.00307007 -0.00101473)
(1.22197e-05 8.80118e-06 -1.9939e-06)
(-1.99228e-07 -1.49329e-06 -1.9939e-06)
(2.16998e-05 4.57136e-05 -3.39693e-06)
(6.05465e-05 7.74516e-05 -0.000364794)
(-9.02866e-06 3.7861e-06 -9.23127e-06)
(-9.02866e-06 3.7861e-06 -9.10298e-06)
(0.000463765 0.000961808 -9.26783e-05)
(9.16408e-05 0.000189084 -0.000583982)
(-8.50755e-06 1.41908e-07 2.53226e-05)
(8.83481e-07 -4.814e-06 1.23017e-05)
(2.4815e-05 5.21823e-05 -3.39693e-06)
(-0.000113461 -8.92526e-05 -0.00049907)
(3.71349e-06 -3.71544e-06 -0.000970005)
(-3.62785e-07 -1.23299e-06 -7.90866e-06)
(5.07395e-06 2.14702e-05 -2.3838e-06)
(-2.12987e-06 -4.77007e-06 -6.15424e-07)
(1.89524e-07 1.47763e-06 -0.000218675)
(0.000264087 -0.000126901 -5.06297e-07)
(8.7783e-05 -1.90451e-05 -0.000510895)
(6.21116e-06 -5.82239e-06 -3.39693e-06)
(1.8526e-06 1.74308e-05 -2.3838e-06)
(9.96257e-06 -7.13506e-06 -3.39693e-06)
(6.44518e-06 4.19618e-06 -1.9939e-06)
(8.53515e-06 -6.63559e-06 -3.39693e-06)
(5.17352e-05 6.64026e-05 -0.000364794)
(-1.77317e-06 -3.02855e-06 3.13756e-05)
(-2.25196e-05 -1.89025e-05 -1.9939e-06)
(0.000583701 0.000214984 1.82063e-10)
(8.8798e-07 1.74635e-05 -3.29116e-06)
(-4.4934e-06 9.47314e-06 -2.3838e-06)
(8.84276e-06 -6.38069e-07 -0.0015953)
(8.8798e-07 1.75718e-05 -3.29116e-06)
(-1.29938e-05 1.62937e-05 -1.5851e-06)
(1.85591e-06 2.45832e-06 -2.64488e-06)
(-2.39023e-06 6.9515e-06 -1.62236e-06)
(-4.20027e-05 -1.4493e-05 -6.15424e-07)
(3.15962e-05 6.62636e-05 -3.39693e-06)
(-5.66873e-07 -1.0289e-06 -1.9939e-06)
(-3.15893e-05 -6.49423e-05 -3.39693e-06)
(-1.91531e-05 -9.27772e-06 -6.15424e-07)
(-0.00015251 2.54864e-06 -0.000133057)
(2.23423e-06 -3.74146e-06 -0.00101711)
(-9.02866e-06 3.7861e-06 9.1104e-06)
(4.73094e-06 -5.30444e-06 -3.39693e-06)
(2.09542e-06 -2.42507e-06 -0.000970005)
(1.73366e-05 1.28818e-05 -1.9939e-06)
(2.68396e-05 5.63864e-05 -3.39693e-06)
(1.2868e-06 -5.96663e-06 -2.55702e-07)
(-4.833e-05 -1.59372e-05 -6.15424e-07)
(1.99886e-05 4.21602e-05 -3.39693e-06)
(1.59647e-05 -1.26231e-06 -6.15424e-07)
(3.72508e-06 1.21453e-05 -8.70103e-07)
(-1.77317e-06 -3.02855e-06 2.38616e-05)
(-0.000125465 -0.000132728 -0.000221352)
(1.05093e-05 -4.5029e-07 -0.0015953)
(1.05808e-05 -4.42234e-07 -0.0015953)
(1.78532e-05 3.7726e-05 -3.39693e-06)
(0.00152155 -0.000732463 4.79915e-06)
(-1.12362e-05 -9.90428e-06 -1.9939e-06)
(2.1863e-06 3.4025e-06 -2.64488e-06)
(1.21338e-06 1.51606e-05 -1.62236e-06)
(0.000964176 0.00107187 -9.2693e-07)
(-3.62785e-07 -1.23299e-06 4.77267e-06)
(-3.5265e-05 -1.29552e-05 -6.15424e-07)
(-2.90037e-05 -7.76181e-07 -6.09159e-06)
(-0.00011036 2.54864e-06 -0.000133057)
(-0.000121758 -0.000133574 -0.000221352)
(-6.08125e-05 2.54864e-06 -0.000133057)
(0.000471735 -0.000158958 0.000298317)
(0.000470772 -0.000161709 0.000298317)
(1.5045e-05 3.18947e-05 -3.39693e-06)
(2.0854e-05 4.39572e-05 -3.39693e-06)
(4.5506e-05 9.32845e-05 -0.000583982)
(0.000463765 0.000961808 -5.37589e-05)
(-2.31803e-06 6.94336e-06 -1.62236e-06)
(1.02011e-06 5.7845e-06 -8.70103e-07)
(-1.5295e-06 -6.89711e-06 -6.15424e-07)
(7.08212e-06 -2.20109e-07 -2.60931e-06)
(-0.000235929 -5.82132e-05 7.64181e-06)
(5.79751e-06 1.60113e-05 -0.0015953)
(1.03257e-10 3.71069e-05 -7.46803e-06)
(8.83481e-07 -4.814e-06 1.04969e-05)
(3.62861e-06 2.64919e-06 -3.29116e-06)
(-5.58069e-06 -7.92698e-06 -2.55702e-07)
(-2.06152e-06 -5.37668e-06 1.16008e-05)
(-3.23477e-05 -1.22893e-05 -6.15424e-07)
(-6.53371e-05 -1.92767e-05 4.20801e-06)
(-2.06152e-06 -5.37668e-06 1.73179e-05)
(4.02043e-05 8.04163e-06 -2.43933e-06)
(1.94147e-05 4.09685e-05 -3.39693e-06)
(-1.77317e-06 -3.02855e-06 2.9123e-05)
(0.000341441 -0.000164152 -5.06297e-07)
(-5.76269e-07 -1.01951e-06 -1.9939e-06)
(7.02666e-06 2.72157e-07 -2.60931e-06)
(5.79751e-06 -9.81186e-07 -0.000822659)
(7.44126e-05 3.4223e-05 1.82063e-10)
(7.62906e-06 -1.83751e-06 -1.09219e-06)
(-1.97085e-05 -9.60594e-06 -2.3838e-06)
(7.60764e-06 -1.77627e-06 -1.09219e-06)
(0.000417139 -0.000200607 -5.06297e-07)
(2.72737e-06 -2.92904e-06 -0.000970005)
(-2.45622e-06 1.01369e-06 9.5734e-06)
(1.56896e-05 2.31625e-06 -2.55702e-07)
(5.02892e-07 6.02413e-06 -8.70103e-07)
(-7.94102e-07 -3.45324e-07 -0.00110356)
(-1.4021e-05 -1.19916e-05 -2.55702e-07)
(-1.77577e-05 -8.95923e-06 -6.15424e-07)
(-1.06545e-05 8.04163e-06 -2.43933e-06)
(-3.44131e-05 -7.76181e-07 2.24938e-07)
(-4.08111e-05 -1.4221e-05 -6.15424e-07)
(-2.90037e-05 -7.76181e-07 -8.59834e-06)
(-2.3886e-06 -2.4738e-06 -6.15424e-07)
(-2.8492e-08 4.69795e-07 -0.00101711)
(-2.48243e-05 5.66352e-06 -0.000316232)
(-1.96099e-06 -2.47849e-06 8.38554e-06)
(-1.30521e-06 -7.53809e-06 -6.15424e-07)
(3.74598e-05 8.04163e-06 -2.43933e-06)
(9.4888e-06 -6.96929e-06 -3.39693e-06)
(-6.16647e-07 -9.79131e-07 -1.9939e-06)
(-1.16144e-05 5.41081e-06 -2.3838e-06)
(8.83481e-07 -4.814e-06 1.29739e-05)
(-6.84295e-06 5.5507e-06 -3.94969e-06)
(-0.000235929 -5.82132e-05 6.76289e-06)
(0.000409827 0.000515435 -4.10406e-05)
(1.0506e-06 5.77383e-06 -8.70103e-07)
(4.22852e-06 1.31907e-05 -8.70103e-07)
(3.87079e-06 1.24479e-05 -8.70103e-07)
(7.08398e-06 5.56455e-06 -2.60931e-06)
(-1.79271e-05 -8.99789e-06 -6.15424e-07)
(1.0392e-05 8.04163e-06 2.56826e-05)
(-3.3558e-05 -7.76181e-07 2.24938e-07)
(-3.97935e-05 8.33621e-06 -5.88133e-05)
(1.10783e-05 1.95074e-06 -2.43933e-06)
(0.000220938 7.54556e-07 -4.70944e-06)
(0.000488254 -0.00011175 3.42428e-05)
(3.9612e-06 8.47487e-06 -4.16685e-06)
(-2.33346e-06 -2.96313e-06 -6.15424e-07)
(3.9612e-06 8.47487e-06 -4.2847e-06)
(-1.18573e-05 -1.64241e-05 -4.80647e-07)
(1.25783e-06 -5.88382e-06 -2.55702e-07)
(-3.19351e-05 8.04163e-06 -2.43933e-06)
(3.17958e-05 8.04163e-06 -2.43933e-06)
(-2.21351e-06 -4.02776e-06 -6.15424e-07)
(-9.02866e-06 3.7861e-06 7.59753e-06)
(-4.78459e-06 2.50907e-05 -5.56328e-06)
(-6.68015e-07 -2.21305e-07 -0.000405283)
(-1.77317e-06 -3.02855e-06 3.21183e-05)
(-9.02866e-06 3.7861e-06 3.97833e-06)
(5.79751e-06 -9.81186e-07 -0.000320818)
(1.08483e-05 1.20908e-05 -2.43933e-06)
(2.0396e-06 -2.38056e-06 -0.000970005)
(-3.93387e-07 -2.78188e-06 -2.55702e-07)
(7.88349e-07 4.12337e-06 3.36311e-06)
(-1.77317e-06 -3.02855e-06 3.56344e-05)
(1.0392e-05 8.04163e-06 8.13992e-06)
(-2.43455e-05 8.04163e-06 -2.43933e-06)
(-2.69566e-05 8.04163e-06 -2.43933e-06)
(-2.71481e-05 5.44998e-06 -5.88133e-05)
(4.77101e-05 8.04163e-06 -2.43933e-06)
(-3.3152e-07 1.17258e-07 -0.00142077)
(-1.77317e-06 -3.02855e-06 2.2382e-05)
(0.00183236 0.00230067 -9.2693e-07)
(-3.3152e-07 1.17258e-07 -0.00150597)
(-5.70369e-07 -1.02541e-06 -1.9939e-06)
(-2.12127e-05 -1.14923e-05 -2.3838e-06)
(1.03257e-10 3.59452e-05 -7.46803e-06)
(3.27035e-06 1.43285e-05 -2.755e-06)
(-1.77317e-06 -3.02855e-06 2.78159e-05)
(0.001024 0.000647328 1.65154e-10)
(-1.77317e-06 -3.02855e-06 2.5434e-05)
(-3.62785e-07 -1.23299e-06 7.23851e-07)
(2.19453e-06 3.42604e-06 -2.64488e-06)
(-2.94348e-05 -1.43214e-05 3.22953e-12)
(-7.63207e-06 8.04163e-06 -2.43933e-06)
(8.83481e-07 -4.814e-06 1.36231e-05)
(-3.59223e-05 -1.31052e-05 -6.15424e-07)
(1.07594e-05 4.78063e-06 -2.43933e-06)
(-1.83306e-05 8.04163e-06 -2.43933e-06)
(-1.21621e-05 -1.06426e-05 -1.9939e-06)
(-5.18728e-05 -1.67458e-05 -6.15424e-07)
(-7.56694e-05 1.65247e-05 -3.88354e-05)
(3.80746e-07 5.64805e-07 -0.00110356)
(0.000122578 -0.000528487 -0.00101473)
(-8.0945e-07 -3.6274e-07 -0.000970005)
(1.0392e-05 8.04163e-06 -1.02538e-05)
(-7.56694e-05 1.65247e-05 -4.15527e-05)
(-6.41066e-06 7.16803e-07 -5.88133e-05)
(-1.77317e-06 -3.02855e-06 3.49489e-05)
(-9.02866e-06 3.7861e-06 5.05532e-06)
(-3.62785e-07 -1.23299e-06 7.96747e-06)
(-1.63674e-06 -6.59063e-06 -6.15424e-07)
(0.000952561 0.000761018 -2.53626e-06)