/*--------------------------------*- C++ -*----------------------------------*\
| =========                 |                                                 |
| \\      /  F ield         | OpenFOAM: The Open Source CFD Toolbox           |
|  \\    /   O peration     | Version:  plus.master                           |
|   \\  /    A nd           | Web:      www.OpenFOAM.com                      |
|    \\/     M anipulation  |                                                 |
\*---------------------------------------------------------------------------*/
FoamFile
{
    version     2.0;
    format      ascii;
    class       volScalarField;
    location    "1.8";
    object      nut;
}
// * * * * * * * * * * * * * * * * * * * * * * * * * * * * * * * * * * * * * //

dimensions      [0 2 -1 0 0 0 0];

internalField   nonuniform List<scalar> 
47285
(
4.86149e-05
5.60764e-05
7.3655e-05
8.53242e-05
6.45824e-05
5.21647e-05
4.68599e-05
5.74038e-05
5.3285e-05
7.7032e-05
9.56143e-05
6.67514e-05
5.27502e-05
5.43171e-05
7.47668e-05
7.94112e-05
8.77192e-05
9.93835e-05
7.94475e-05
6.94799e-05
6.43785e-05
8.26374e-05
8.84932e-05
9.02547e-05
9.01288e-05
9.14818e-05
6.58355e-05
6.47976e-05
6.46511e-05
6.46139e-05
7.51296e-05
9.63177e-05
6.36344e-05
6.29663e-05
5.83699e-05
5.44003e-05
5.66735e-05
6.51786e-05
6.32862e-05
6.39179e-05
5.55946e-05
5.05348e-05
4.75485e-05
5.40726e-05
6.4034e-05
6.58299e-05
5.82784e-05
5.00828e-05
4.64326e-05
7.36784e-05
8.83002e-05
9.53938e-05
9.09513e-05
8.19092e-05
6.95815e-05
6.24271e-05
9.19177e-05
0.000119736
0.000153495
0.000170523
0.00012488
8.72426e-05
6.56215e-05
0.00010738
0.000155658
0.00016804
0.000172033
0.00015803
0.000107577
6.78261e-05
0.000104698
0.000159477
0.000161014
0.000160962
0.000158883
0.000101479
6.58414e-05
9.13182e-05
0.000121965
0.000155737
0.000158151
0.000115825
8.49741e-05
6.6099e-05
7.60468e-05
9.07393e-05
0.00010532
0.000100122
8.78201e-05
7.43799e-05
6.79435e-05
6.8343e-05
7.41112e-05
7.73983e-05
7.54634e-05
7.39371e-05
7.11286e-05
7.01696e-05
0.000108144
0.000133407
0.000146561
0.000139827
0.000119954
9.15208e-05
6.94658e-05
0.000140094
0.000180839
0.000219121
0.000225728
0.000174938
0.000121278
8.11627e-05
0.000162004
0.000220962
0.000232155
0.000231141
0.000222158
0.000146466
9.08116e-05
0.000157893
0.000220718
0.000225107
0.00022961
0.000222274
0.000144158
9.01427e-05
0.000135354
0.000177405
0.000219541
0.000217769
0.000171552
0.000120268
8.2031e-05
0.000105733
0.000130385
0.000148444
0.000143809
0.000121869
9.29517e-05
7.31524e-05
8.26465e-05
9.54215e-05
0.000102143
9.89376e-05
8.94105e-05
7.7354e-05
6.90529e-05
0.000142696
0.000173621
0.000188501
0.000180802
0.000155372
0.000117856
8.21395e-05
0.000182034
0.000226688
0.000263429
0.000261051
0.000212106
0.00015433
0.000103113
0.000205494
0.000264255
0.000272364
0.000269455
0.000261297
0.000179674
0.000116271
0.000200866
0.000258739
0.000269435
0.0002694
0.000259202
0.000178189
0.000115577
0.00017469
0.000218479
0.000257914
0.000254324
0.000207742
0.000151547
0.000103612
0.000137706
0.00016623
0.000183325
0.000178478
0.000152904
0.000117647
8.77453e-05
0.000102969
0.000120421
0.000127843
0.000123873
0.000110419
9.18054e-05
7.36082e-05
0.000166664
0.000201008
0.000216276
0.000207921
0.000179369
0.000137323
9.41838e-05
0.000210346
0.000256719
0.000291106
0.000282163
0.000235386
0.000176759
0.000120442
0.000234768
0.000292507
0.000305699
0.000296265
0.000280773
0.000201703
0.000135304
0.000230927
0.000286819
0.000298057
0.00029653
0.000276955
0.000199529
0.00013493
0.000203559
0.000247406
0.000283295
0.00027561
0.000229558
0.000173195
0.000122001
0.00016302
0.000193118
0.00020853
0.00020243
0.000175257
0.000137772
0.000102286
0.000120742
0.000141465
0.000149035
0.000144435
0.000128907
0.000106073
8.02081e-05
4.4137e-05
4.21542e-05
3.99276e-05
3.77027e-05
3.54692e-05
3.33289e-05
3.13176e-05
2.95209e-05
4.94533e-05
4.55015e-05
4.25907e-05
4.04673e-05
3.86924e-05
3.69317e-05
3.50924e-05
3.319e-05
5.06785e-05
4.53261e-05
4.24479e-05
4.06551e-05
3.93881e-05
3.83812e-05
3.72147e-05
3.57403e-05
5.04015e-05
4.5442e-05
4.2989e-05
4.13432e-05
4.03823e-05
3.97394e-05
3.88311e-05
3.77785e-05
4.93909e-05
4.52568e-05
4.26005e-05
4.06865e-05
3.94254e-05
3.84008e-05
3.7228e-05
3.58344e-05
4.77995e-05
4.55941e-05
4.28691e-05
4.05848e-05
3.86031e-05
3.66738e-05
3.47309e-05
3.28119e-05
4.45443e-05
4.28293e-05
4.03096e-05
3.77712e-05
3.5267e-05
3.29245e-05
3.08448e-05
2.91136e-05
6.62581e-05
7.15175e-05
7.49941e-05
7.75561e-05
7.939e-05
8.03956e-05
8.05564e-05
8.00208e-05
5.95879e-05
6.44951e-05
6.97184e-05
7.36298e-05
7.65888e-05
7.85352e-05
7.93522e-05
7.90753e-05
5.44851e-05
5.82761e-05
6.40283e-05
6.84639e-05
7.23276e-05
7.54257e-05
7.7336e-05
7.78773e-05
5.47124e-05
5.87657e-05
6.35211e-05
6.70645e-05
7.0578e-05
7.3667e-05
7.5882e-05
7.65145e-05
6.06171e-05
6.4163e-05
6.7714e-05
7.08883e-05
7.41771e-05
7.68248e-05
7.84011e-05
7.85312e-05
6.78354e-05
7.11819e-05
7.39957e-05
7.65388e-05
7.87507e-05
8.01528e-05
8.04905e-05
7.98187e-05
7.38244e-05
7.6632e-05
7.84341e-05
7.99487e-05
8.10074e-05
8.14319e-05
8.11549e-05
8.03153e-05
6.10606e-05
5.95545e-05
5.97618e-05
6.22785e-05
6.60968e-05
6.99873e-05
7.35011e-05
7.67648e-05
6.10828e-05
5.59801e-05
5.51021e-05
5.69982e-05
6.11533e-05
6.60534e-05
7.06319e-05
7.48038e-05
6.22564e-05
5.38316e-05
5.16359e-05
5.21353e-05
5.57866e-05
6.12347e-05
6.6789e-05
7.19572e-05
6.26903e-05
5.4569e-05
5.16921e-05
5.11482e-05
5.40757e-05
5.93731e-05
6.51253e-05
7.05943e-05
6.32284e-05
5.75438e-05
5.477e-05
5.4918e-05
5.84724e-05
6.36212e-05
6.86672e-05
7.32832e-05
6.42154e-05
6.08578e-05
5.92857e-05
6.08774e-05
6.47928e-05
6.91884e-05
7.30818e-05
7.65586e-05
6.53893e-05
6.37883e-05
6.38567e-05
6.62577e-05
6.97128e-05
7.30399e-05
7.58848e-05
7.8507e-05
5.86024e-05
4.66604e-05
4.04639e-05
3.99306e-05
4.21472e-05
4.48763e-05
4.78671e-05
5.23188e-05
6.85957e-05
5.06113e-05
4.03736e-05
3.71129e-05
3.87372e-05
4.21315e-05
4.595e-05
5.11607e-05
7.55996e-05
5.44723e-05
4.18246e-05
3.56548e-05
3.5562e-05
3.88126e-05
4.31907e-05
4.91512e-05
7.66094e-05
5.63827e-05
4.33877e-05
3.61319e-05
3.50929e-05
3.7954e-05
4.23245e-05
4.84696e-05
7.29895e-05
5.56641e-05
4.36597e-05
3.79715e-05
3.82358e-05
4.13499e-05
4.51984e-05
5.05618e-05
6.63789e-05
5.24855e-05
4.34612e-05
4.08482e-05
4.25244e-05
4.54031e-05
4.84017e-05
5.28334e-05
5.86486e-05
4.92342e-05
4.44082e-05
4.42204e-05
4.61012e-05
4.81272e-05
5.0279e-05
5.39965e-05
6.07828e-05
4.13038e-05
3.07458e-05
2.73278e-05
2.61311e-05
2.4226e-05
2.18944e-05
2.27396e-05
7.80209e-05
5.1472e-05
3.45564e-05
2.7203e-05
2.50777e-05
2.37197e-05
2.17639e-05
2.25364e-05
8.88484e-05
6.04961e-05
4.0229e-05
2.88405e-05
2.45377e-05
2.29125e-05
2.12142e-05
2.20436e-05
9.06639e-05
6.32736e-05
4.26822e-05
3.01204e-05
2.48779e-05
2.29088e-05
2.11381e-05
2.1924e-05
8.45511e-05
5.89951e-05
3.99281e-05
2.96408e-05
2.6021e-05
2.4334e-05
2.20617e-05
2.23066e-05
7.18581e-05
4.98461e-05
3.5516e-05
2.94458e-05
2.76075e-05
2.56863e-05
2.27457e-05
2.27008e-05
5.64199e-05
4.14389e-05
3.32561e-05
3.04331e-05
2.89341e-05
2.61405e-05
2.27323e-05
2.27765e-05
4.52738e-05
4.29692e-05
4.06181e-05
3.84497e-05
3.61147e-05
3.38895e-05
3.17823e-05
2.99186e-05
5.01227e-05
4.83577e-05
4.62244e-05
4.40891e-05
4.20548e-05
4.02499e-05
3.86396e-05
3.71036e-05
5.49557e-05
5.22335e-05
4.96945e-05
4.73091e-05
4.5129e-05
4.31732e-05
4.16989e-05
4.04433e-05
6.14835e-05
5.46787e-05
5.13556e-05
4.87846e-05
4.6462e-05
4.46098e-05
4.32953e-05
4.22717e-05
5.91467e-05
5.39721e-05
5.06e-05
4.77252e-05
4.52163e-05
4.31712e-05
4.17413e-05
4.05339e-05
5.15736e-05
4.92931e-05
4.67386e-05
4.4334e-05
4.19985e-05
4.01504e-05
3.86431e-05
3.70183e-05
4.57261e-05
4.35197e-05
4.15452e-05
3.91882e-05
3.68687e-05
3.47637e-05
3.27227e-05
3.08042e-05
6.9299e-05
7.14825e-05
7.2985e-05
7.48481e-05
7.69157e-05
7.86418e-05
7.96688e-05
7.99669e-05
6.8784e-05
6.7943e-05
6.82303e-05
6.95317e-05
7.19741e-05
7.47863e-05
7.7065e-05
7.85268e-05
7.30794e-05
6.69407e-05
6.49134e-05
6.40318e-05
6.4971e-05
6.78845e-05
7.15632e-05
7.48393e-05
7.73836e-05
6.70201e-05
6.32983e-05
6.12412e-05
6.08588e-05
6.31177e-05
6.70469e-05
7.10238e-05
7.92074e-05
6.65613e-05
6.129e-05
5.97478e-05
6.12534e-05
6.50305e-05
6.95414e-05
7.35715e-05
7.19634e-05
6.35891e-05
6.13899e-05
6.33897e-05
6.75203e-05
7.18444e-05
7.52893e-05
7.75604e-05
6.529e-05
6.4065e-05
6.56724e-05
6.93456e-05
7.32511e-05
7.63267e-05
7.82964e-05
7.92491e-05
7.20304e-05
6.60418e-05
6.16048e-05
6.08248e-05
6.32379e-05
6.70092e-05
7.09964e-05
7.49951e-05
8.32182e-05
6.92657e-05
6.00102e-05
5.55508e-05
5.64956e-05
6.08093e-05
6.61021e-05
7.15395e-05
0.000100145
7.75782e-05
6.19265e-05
5.22107e-05
4.92595e-05
5.2551e-05
5.88211e-05
6.59442e-05
0.000113234
8.48657e-05
6.42152e-05
5.06781e-05
4.45903e-05
4.58609e-05
5.19081e-05
5.99101e-05
0.000115578
8.47631e-05
6.20408e-05
4.86742e-05
4.49532e-05
4.85845e-05
5.55182e-05
6.34127e-05
0.00010149
7.48387e-05
5.65569e-05
4.88754e-05
5.02755e-05
5.58517e-05
6.23163e-05
6.87751e-05
8.1533e-05
6.45313e-05
5.44158e-05
5.28757e-05
5.66616e-05
6.19146e-05
6.71445e-05
7.21633e-05
8.08945e-05
6.35375e-05
4.91476e-05
4.19573e-05
4.1179e-05
4.31678e-05
4.63513e-05
5.13405e-05
0.000104664
7.84266e-05
5.61915e-05
4.15948e-05
3.70384e-05
3.87467e-05
4.28108e-05
4.89433e-05
0.000130378
9.62759e-05
6.71173e-05
4.50019e-05
3.41183e-05
3.35135e-05
3.78606e-05
4.51829e-05
0.000148446
0.000108903
7.48056e-05
4.80774e-05
3.2958e-05
2.94996e-05
3.32481e-05
4.14265e-05
0.000150751
0.000108803
7.2121e-05
4.45998e-05
3.15336e-05
3.04331e-05
3.51151e-05
4.31121e-05
0.000133051
9.39274e-05
6.0029e-05
3.86262e-05
3.23551e-05
3.44896e-05
3.9486e-05
4.65572e-05
0.000103453
7.31521e-05
4.84549e-05
3.66717e-05
3.5686e-05
3.86308e-05
4.29239e-05
4.88703e-05
8.98365e-05
6.32296e-05
4.13206e-05
2.99361e-05
2.6078e-05
2.38195e-05
2.17882e-05
2.30136e-05
0.000123361
8.82464e-05
5.61102e-05
3.40835e-05
2.51856e-05
2.26064e-05
2.11993e-05
2.27371e-05
0.000154543
0.000113298
7.50058e-05
4.36247e-05
2.64382e-05
2.12105e-05
2.00658e-05
2.21942e-05
0.000174551
0.000128518
8.66491e-05
5.14156e-05
2.88779e-05
2.03566e-05
1.88057e-05
2.16433e-05
0.000175997
0.000127955
8.37123e-05
4.72685e-05
2.63403e-05
1.9844e-05
1.90009e-05
2.18261e-05
0.000155691
0.000109651
6.69788e-05
3.59167e-05
2.31197e-05
2.03195e-05
1.98942e-05
2.24145e-05
0.000119908
8.14325e-05
4.7282e-05
2.83946e-05
2.29726e-05
2.14162e-05
2.05976e-05
2.27949e-05
4.6063e-05
4.43065e-05
4.18456e-05
3.93285e-05
3.7058e-05
3.49634e-05
3.29447e-05
3.09989e-05
5.0182e-05
4.8215e-05
4.57793e-05
4.3705e-05
4.18644e-05
4.02664e-05
3.8676e-05
3.69945e-05
5.4834e-05
4.93756e-05
4.79334e-05
4.67184e-05
4.52884e-05
4.37336e-05
4.2166e-05
4.06769e-05
5.6287e-05
4.86373e-05
4.6673e-05
4.61028e-05
4.55946e-05
4.4739e-05
4.36414e-05
4.25689e-05
5.10181e-05
4.72771e-05
4.58969e-05
4.49919e-05
4.40802e-05
4.30486e-05
4.19357e-05
4.07547e-05
4.80061e-05
4.55157e-05
4.35858e-05
4.19802e-05
4.06385e-05
3.94108e-05
3.819e-05
3.69559e-05
4.44863e-05
4.27573e-05
4.0742e-05
3.86928e-05
3.67199e-05
3.4799e-05
3.29472e-05
3.11935e-05
6.59613e-05
6.50808e-05
6.6538e-05
6.98433e-05
7.34525e-05
7.6363e-05
7.82723e-05
7.92192e-05
7.15625e-05
6.73516e-05
6.63459e-05
6.709e-05
6.95794e-05
7.29087e-05
7.59597e-05
7.81395e-05
7.11427e-05
7.03045e-05
7.19184e-05
7.0792e-05
6.95044e-05
7.02063e-05
7.26417e-05
7.54763e-05
6.46227e-05
6.87706e-05
7.55645e-05
7.64576e-05
7.42724e-05
7.28143e-05
7.34268e-05
7.50623e-05
6.71904e-05
7.08096e-05
7.44341e-05
7.45776e-05
7.4041e-05
7.45974e-05
7.61275e-05
7.78298e-05
6.72511e-05
7.14433e-05
7.39868e-05
7.55158e-05
7.71617e-05
7.88896e-05
8.02287e-05
8.08994e-05
6.89527e-05
7.34703e-05
7.60841e-05
7.8269e-05
8.009e-05
8.12853e-05
8.17194e-05
8.1453e-05
8.02544e-05
6.42482e-05
5.48236e-05
5.33141e-05
5.688e-05
6.19687e-05
6.71127e-05
7.20873e-05
9.5613e-05
7.40638e-05
5.95007e-05
5.18469e-05
5.16635e-05
5.62111e-05
6.22946e-05
6.86184e-05
0.000100673
7.93755e-05
6.62936e-05
5.59824e-05
5.03438e-05
5.14318e-05
5.70503e-05
6.43304e-05
9.3709e-05
7.69585e-05
6.89409e-05
6.03017e-05
5.329e-05
5.16843e-05
5.54602e-05
6.21493e-05
8.56167e-05
7.23237e-05
6.46328e-05
5.78181e-05
5.46303e-05
5.6357e-05
6.12134e-05
6.73631e-05
7.31479e-05
6.55947e-05
6.05469e-05
5.8373e-05
5.99026e-05
6.3743e-05
6.8281e-05
7.29736e-05
6.44973e-05
6.22326e-05
6.09761e-05
6.24558e-05
6.57917e-05
6.95864e-05
7.31829e-05
7.6618e-05
0.000100825
7.11944e-05
4.76126e-05
3.65878e-05
3.57874e-05
3.87132e-05
4.29469e-05
4.8833e-05
0.000123076
8.70798e-05
5.73518e-05
3.85845e-05
3.28906e-05
3.48062e-05
3.95469e-05
4.64318e-05
0.000131598
9.45683e-05
6.53019e-05
4.35332e-05
3.24841e-05
3.14203e-05
3.57127e-05
4.3336e-05
0.000124816
9.08221e-05
6.55981e-05
4.58181e-05
3.39172e-05
3.11815e-05
3.47109e-05
4.24445e-05
0.0001083
7.86105e-05
5.64885e-05
4.10424e-05
3.42599e-05
3.4583e-05
3.85773e-05
4.53764e-05
8.42436e-05
6.18979e-05
4.60823e-05
3.82956e-05
3.75449e-05
4.00746e-05
4.3834e-05
4.94319e-05
6.22266e-05
4.92644e-05
4.1522e-05
4.00549e-05
4.18855e-05
4.44905e-05
4.75021e-05
5.20591e-05
0.000116571
7.85141e-05
4.56178e-05
2.79952e-05
2.30191e-05
2.15176e-05
2.06668e-05
2.28226e-05
0.000143114
9.80259e-05
5.84878e-05
3.24967e-05
2.27403e-05
2.05405e-05
2.00962e-05
2.25644e-05
0.000153508
0.000107197
6.79966e-05
3.88589e-05
2.41687e-05
1.98573e-05
1.92662e-05
2.20213e-05
0.000146681
0.000102715
6.72034e-05
4.03215e-05
2.53882e-05
2.02122e-05
1.93538e-05
2.2246e-05
0.000125759
8.64544e-05
5.48658e-05
3.3604e-05
2.4096e-05
2.12313e-05
2.027e-05
2.22689e-05
9.50089e-05
6.27466e-05
3.92833e-05
2.78736e-05
2.44172e-05
2.29516e-05
2.14669e-05
2.27933e-05
6.40741e-05
4.3225e-05
3.13038e-05
2.73865e-05
2.60748e-05
2.41678e-05
2.19283e-05
2.28846e-05
4.3865e-05
4.18385e-05
3.97574e-05
3.76902e-05
3.56292e-05
3.35956e-05
3.16809e-05
2.99527e-05
4.67489e-05
4.49541e-05
4.27674e-05
4.07608e-05
3.91001e-05
3.75438e-05
3.60463e-05
3.46628e-05
5.08033e-05
4.84417e-05
4.64727e-05
4.46769e-05
4.31512e-05
4.15754e-05
4.02152e-05
3.9065e-05
5.43725e-05
5.11385e-05
4.92671e-05
4.77565e-05
4.62973e-05
4.47921e-05
4.36045e-05
4.26214e-05
5.41756e-05
5.10702e-05
4.91658e-05
4.74654e-05
4.55625e-05
4.3544e-05
4.19793e-05
4.08014e-05
5.00591e-05
4.79056e-05
4.54633e-05
4.31338e-05
4.11124e-05
3.93047e-05
3.76196e-05
3.60932e-05
4.47955e-05
4.27482e-05
4.04108e-05
3.81136e-05
3.59666e-05
3.39176e-05
3.19697e-05
3.01655e-05
7.49391e-05
7.74363e-05
7.89995e-05
8.04865e-05
8.17057e-05
8.23645e-05
8.2318e-05
8.16581e-05
7.34412e-05
7.62259e-05
7.73943e-05
7.83862e-05
7.96629e-05
8.08341e-05
8.14643e-05
8.14269e-05
7.25529e-05
7.59102e-05
7.68663e-05
7.65e-05
7.66084e-05
7.7487e-05
7.87072e-05
7.96615e-05
7.12609e-05
7.56604e-05
7.73106e-05
7.6222e-05
7.50383e-05
7.52019e-05
7.65627e-05
7.80446e-05
7.09799e-05
7.41775e-05
7.57049e-05
7.50423e-05
7.4506e-05
7.51479e-05
7.65515e-05
7.80986e-05
7.05184e-05
7.24708e-05
7.37541e-05
7.45183e-05
7.57358e-05
7.73454e-05
7.87744e-05
7.95559e-05
6.99672e-05
7.24585e-05
7.40934e-05
7.58113e-05
7.76328e-05
7.91413e-05
8.00039e-05
8.01708e-05
6.73644e-05
6.52393e-05
6.45767e-05
6.63968e-05
6.95566e-05
7.28046e-05
7.57005e-05
7.84538e-05
7.14468e-05
6.76647e-05
6.39817e-05
6.28997e-05
6.48013e-05
6.81945e-05
7.18285e-05
7.55325e-05
7.59815e-05
7.11215e-05
6.5672e-05
6.10049e-05
5.98564e-05
6.22208e-05
6.63545e-05
7.11921e-05
7.91866e-05
7.31444e-05
6.76177e-05
6.117e-05
5.74248e-05
5.8099e-05
6.19865e-05
6.73956e-05
7.98158e-05
7.21952e-05
6.63905e-05
6.04692e-05
5.76665e-05
5.92293e-05
6.35249e-05
6.89641e-05
7.68493e-05
6.92272e-05
6.36739e-05
6.01548e-05
6.03027e-05
6.3402e-05
6.77065e-05
7.2422e-05
7.10846e-05
6.58417e-05
6.22171e-05
6.16856e-05
6.3975e-05
6.75332e-05
7.13305e-05
7.51829e-05
6.08754e-05
5.10228e-05
4.53791e-05
4.45102e-05
4.60326e-05
4.79146e-05
5.00591e-05
5.3858e-05
7.38678e-05
6.00147e-05
4.8765e-05
4.31314e-05
4.26892e-05
4.45904e-05
4.73257e-05
5.19201e-05
8.53803e-05
6.97877e-05
5.54795e-05
4.45986e-05
3.9945e-05
4.03957e-05
4.34051e-05
4.89205e-05
9.24704e-05
7.56033e-05
6.05592e-05
4.71966e-05
3.92642e-05
3.77607e-05
4.05987e-05
4.68329e-05
9.40947e-05
7.55752e-05
5.97333e-05
4.62416e-05
3.89853e-05
3.82817e-05
4.13921e-05
4.74523e-05
8.93547e-05
7.03212e-05
5.45075e-05
4.36265e-05
3.98329e-05
4.09505e-05
4.42858e-05
4.98247e-05
7.79839e-05
6.18305e-05
4.89677e-05
4.25215e-05
4.17809e-05
4.3623e-05
4.66575e-05
5.15199e-05
5.80894e-05
4.26677e-05
3.38741e-05
3.06263e-05
2.89224e-05
2.60807e-05
2.27299e-05
2.28482e-05
7.85079e-05
5.62683e-05
3.97305e-05
3.10958e-05
2.78627e-05
2.55535e-05
2.27085e-05
2.28857e-05
9.59561e-05
7.16949e-05
5.0272e-05
3.51552e-05
2.76715e-05
2.44826e-05
2.20954e-05
2.26354e-05
0.000105955
8.07752e-05
5.78894e-05
3.93825e-05
2.8445e-05
2.38016e-05
2.15882e-05
2.27166e-05
0.000108011
8.08019e-05
5.64908e-05
3.76698e-05
2.74761e-05
2.35108e-05
2.14608e-05
2.25307e-05
0.000101511
7.3019e-05
4.87836e-05
3.30036e-05
2.63394e-05
2.37428e-05
2.18131e-05
2.29029e-05
8.53916e-05
6.02708e-05
4.03393e-05
2.99813e-05
2.63057e-05
2.40049e-05
2.18755e-05
2.29917e-05
2.80808e-05
3.13372e-05
3.42646e-05
3.67922e-05
3.44642e-05
3.10201e-05
2.77907e-05
7.89993e-05
7.79575e-05
7.72118e-05
7.59347e-05
7.76046e-05
7.84503e-05
7.90986e-05
7.99396e-05
7.86007e-05
7.65226e-05
7.54259e-05
7.74228e-05
7.97996e-05
8.11522e-05
5.8939e-05
5.84812e-05
5.72882e-05
5.69024e-05
5.82915e-05
5.96604e-05
6.01493e-05
3.32194e-05
3.32007e-05
3.31922e-05
3.32006e-05
3.31845e-05
3.31749e-05
3.32003e-05
2.84359e-05
3.541e-05
3.93096e-05
4.14778e-05
3.94474e-05
3.53603e-05
2.91736e-05
7.9601e-05
7.90561e-05
7.69076e-05
7.40147e-05
7.61894e-05
7.8613e-05
7.93298e-05
7.89773e-05
7.67358e-05
7.2681e-05
6.76852e-05
7.07999e-05
7.47579e-05
7.69406e-05
5.85163e-05
5.72604e-05
5.48534e-05
5.22726e-05
5.33518e-05
5.55276e-05
5.66953e-05
3.35262e-05
3.35482e-05
3.36067e-05
3.37383e-05
3.36104e-05
3.35149e-05
3.34413e-05
2.92936e-05
3.5437e-05
3.94693e-05
4.17304e-05
3.97363e-05
3.56502e-05
2.96289e-05
7.93456e-05
7.92055e-05
7.74163e-05
7.66102e-05
7.89134e-05
8.08981e-05
8.0627e-05
7.68396e-05
7.45237e-05
7.1281e-05
6.89322e-05
7.33677e-05
7.75278e-05
7.99924e-05
5.66114e-05
5.5277e-05
5.32482e-05
5.27884e-05
5.46473e-05
5.73118e-05
5.8806e-05
3.34192e-05
3.34317e-05
3.34784e-05
3.37203e-05
3.34445e-05
3.33167e-05
3.32496e-05
2.85351e-05
3.33986e-05
3.81067e-05
4.18079e-05
3.97707e-05
3.47158e-05
2.86662e-05
8.05173e-05
8.0842e-05
7.99815e-05
7.90601e-05
7.89505e-05
7.9623e-05
7.97135e-05
8.12667e-05
7.9287e-05
7.60676e-05
7.29283e-05
7.44474e-05
7.713e-05
7.90622e-05
6.01332e-05
5.91493e-05
5.72782e-05
5.60167e-05
5.62704e-05
5.77702e-05
5.8621e-05
3.32456e-05
3.33289e-05
3.34766e-05
3.37269e-05
3.35579e-05
3.35263e-05
3.35288e-05
2.66559e-05
2.56418e-05
2.51342e-05
2.48749e-05
2.47235e-05
2.46208e-05
2.45165e-05
2.43559e-05
2.8349e-05
2.60626e-05
2.52e-05
2.48666e-05
2.46607e-05
2.45347e-05
2.44278e-05
2.42808e-05
3.16874e-05
2.90124e-05
2.69972e-05
2.5772e-05
2.50843e-05
2.46944e-05
2.44893e-05
2.4314e-05
3.50417e-05
3.28522e-05
3.08147e-05
2.93238e-05
2.76646e-05
2.60003e-05
2.49423e-05
2.44576e-05
3.20092e-05
2.95335e-05
2.75381e-05
2.60604e-05
2.51673e-05
2.47111e-05
2.44892e-05
2.43106e-05
2.82772e-05
2.60918e-05
2.52804e-05
2.4925e-05
2.46885e-05
2.45477e-05
2.44339e-05
2.42835e-05
2.65152e-05
2.56011e-05
2.51281e-05
2.48747e-05
2.47191e-05
2.46043e-05
2.44918e-05
2.43297e-05
7.67043e-05
7.28624e-05
7.01748e-05
6.87069e-05
6.79276e-05
6.72069e-05
6.60974e-05
6.42586e-05
7.53317e-05
7.05623e-05
6.75158e-05
6.64392e-05
6.62374e-05
6.60545e-05
6.5411e-05
6.39257e-05
7.50628e-05
6.98089e-05
6.5214e-05
6.36972e-05
6.40821e-05
6.46666e-05
6.46174e-05
6.35147e-05
7.38731e-05
6.84696e-05
6.30902e-05
5.95086e-05
5.89401e-05
6.01077e-05
6.12562e-05
6.12937e-05
7.51441e-05
6.95265e-05
6.45664e-05
6.30371e-05
6.3597e-05
6.435e-05
6.44235e-05
6.33992e-05
7.565e-05
7.10013e-05
6.78852e-05
6.66859e-05
6.63901e-05
6.61445e-05
6.54587e-05
6.39452e-05
7.66447e-05
7.29001e-05
7.03123e-05
6.88723e-05
6.80563e-05
6.73095e-05
6.61875e-05
6.43389e-05
8.44222e-05
8.56198e-05
8.43933e-05
8.30223e-05
8.19286e-05
8.07653e-05
7.90844e-05
7.63982e-05
8.34948e-05
8.4862e-05
8.37322e-05
8.25033e-05
8.15702e-05
8.05549e-05
7.89988e-05
7.641e-05
8.21925e-05
8.4078e-05
8.30993e-05
8.18866e-05
8.1068e-05
8.02288e-05
7.88331e-05
7.63546e-05
8.14184e-05
8.34333e-05
8.22288e-05
8.05478e-05
7.96261e-05
7.90399e-05
7.79983e-05
7.58445e-05
8.26023e-05
8.41652e-05
8.30589e-05
8.17703e-05
8.09665e-05
8.01577e-05
7.87898e-05
7.63402e-05
8.40498e-05
8.50358e-05
8.37945e-05
8.25431e-05
8.16048e-05
8.05843e-05
7.90227e-05
7.64297e-05
8.49745e-05
8.57795e-05
8.44481e-05
8.30678e-05
8.19768e-05
8.08137e-05
7.91315e-05
7.64449e-05
6.93901e-05
7.85949e-05
8.30042e-05
8.43515e-05
8.44648e-05
8.38495e-05
8.2341e-05
7.9553e-05
6.91847e-05
7.84239e-05
8.28463e-05
8.42176e-05
8.43722e-05
8.38073e-05
8.2349e-05
7.96031e-05
6.85643e-05
7.81574e-05
8.27277e-05
8.41372e-05
8.43065e-05
8.37642e-05
8.23339e-05
7.9613e-05
6.84136e-05
7.81989e-05
8.2767e-05
8.40969e-05
8.42098e-05
8.36643e-05
8.2263e-05
7.9582e-05
6.9155e-05
7.84313e-05
8.28086e-05
8.41442e-05
8.43003e-05
8.37607e-05
8.23351e-05
7.96188e-05
6.98527e-05
7.86945e-05
8.29129e-05
8.42196e-05
8.43681e-05
8.38072e-05
8.2351e-05
7.96056e-05
7.0086e-05
7.88644e-05
8.30626e-05
8.43433e-05
8.44551e-05
8.38513e-05
8.23525e-05
7.95721e-05
4.39184e-05
6.15042e-05
7.26095e-05
7.89543e-05
8.20449e-05
8.30213e-05
8.23222e-05
7.99142e-05
4.38964e-05
6.13695e-05
7.24719e-05
7.8869e-05
8.20011e-05
8.30083e-05
8.23347e-05
7.99477e-05
4.3825e-05
6.12536e-05
7.23901e-05
7.88328e-05
8.19847e-05
8.30039e-05
8.23422e-05
7.99664e-05
4.39194e-05
6.13568e-05
7.2486e-05
7.8899e-05
8.20153e-05
8.30122e-05
8.23424e-05
7.99673e-05
4.39553e-05
6.13534e-05
7.2446e-05
7.88446e-05
8.19806e-05
8.29981e-05
8.2338e-05
7.99641e-05
4.40088e-05
6.14055e-05
7.24781e-05
7.88506e-05
8.19812e-05
8.29955e-05
8.23285e-05
7.99465e-05
4.40118e-05
6.14736e-05
7.25606e-05
7.89017e-05
8.20062e-05
8.3e-05
8.23147e-05
7.9917e-05
2.69805e-05
2.58329e-05
2.53178e-05
2.504e-05
2.48152e-05
2.46431e-05
2.44987e-05
2.43239e-05
3.2142e-05
2.92759e-05
2.74484e-05
2.62318e-05
2.55019e-05
2.5054e-05
2.47766e-05
2.45349e-05
3.71777e-05
3.52595e-05
3.39287e-05
3.27817e-05
3.13947e-05
2.95647e-05
2.77105e-05
2.6369e-05
4.00538e-05
3.89148e-05
3.80263e-05
3.74028e-05
3.70324e-05
3.67743e-05
3.67538e-05
3.64753e-05
3.73973e-05
3.55393e-05
3.432e-05
3.34568e-05
3.2515e-05
3.09444e-05
2.88134e-05
2.68815e-05
3.23174e-05
2.96855e-05
2.79685e-05
2.66453e-05
2.58056e-05
2.52105e-05
2.48454e-05
2.45686e-05
2.74153e-05
2.60244e-05
2.53965e-05
2.51164e-05
2.48836e-05
2.46852e-05
2.45267e-05
2.43456e-05
7.79505e-05
7.40272e-05
7.06594e-05
6.84993e-05
6.72393e-05
6.63243e-05
6.51788e-05
6.33517e-05
7.8526e-05
7.46341e-05
7.09328e-05
6.84083e-05
6.67972e-05
6.54802e-05
6.40618e-05
6.21279e-05
7.88286e-05
7.63794e-05
7.18564e-05
6.7473e-05
6.42412e-05
6.20592e-05
6.07102e-05
5.96851e-05
7.81113e-05
7.82545e-05
7.55212e-05
7.13605e-05
6.78112e-05
6.59812e-05
6.40266e-05
5.98151e-05
7.88251e-05
7.69867e-05
7.26207e-05
6.77118e-05
6.38655e-05
6.14221e-05
5.98604e-05
5.89665e-05
7.87052e-05
7.51536e-05
7.14369e-05
6.87349e-05
6.6999e-05
6.55924e-05
6.41031e-05
6.21455e-05
7.81205e-05
7.42669e-05
7.09901e-05
6.87773e-05
6.7424e-05
6.64389e-05
6.52638e-05
6.34127e-05
8.44087e-05
8.64117e-05
8.53057e-05
8.37151e-05
8.2337e-05
8.09212e-05
7.9046e-05
7.62318e-05
8.33704e-05
8.62098e-05
8.53307e-05
8.36999e-05
8.22211e-05
8.07074e-05
7.87507e-05
7.58886e-05
8.13811e-05
8.56245e-05
8.49217e-05
8.29101e-05
8.10869e-05
7.94555e-05
7.76615e-05
7.51467e-05
7.83965e-05
8.40506e-05
8.3091e-05
7.95877e-05
7.63153e-05
7.41325e-05
7.19725e-05
6.906e-05
8.04287e-05
8.53172e-05
8.47814e-05
8.26705e-05
8.072e-05
7.89895e-05
7.72715e-05
7.48969e-05
8.23956e-05
8.58817e-05
8.52459e-05
8.36772e-05
8.22073e-05
8.06955e-05
7.87454e-05
7.58898e-05
8.33812e-05
8.59902e-05
8.5129e-05
8.36313e-05
8.22905e-05
8.08884e-05
7.90168e-05
7.62047e-05
6.94721e-05
7.93176e-05
8.37444e-05
8.48257e-05
8.4709e-05
8.3929e-05
8.23051e-05
7.94445e-05
6.89329e-05
7.94059e-05
8.40231e-05
8.50719e-05
8.48507e-05
8.39728e-05
8.22731e-05
7.93619e-05
6.77668e-05
7.9376e-05
8.43848e-05
8.54167e-05
8.50438e-05
8.40554e-05
8.23274e-05
7.94507e-05
6.64011e-05
7.91367e-05
8.44374e-05
8.51865e-05
8.42531e-05
8.27857e-05
8.08657e-05
7.79372e-05
6.68707e-05
7.90124e-05
8.43083e-05
8.54215e-05
8.50397e-05
8.40284e-05
8.22945e-05
7.94247e-05
6.79091e-05
7.89622e-05
8.39109e-05
8.5079e-05
8.48743e-05
8.39879e-05
8.22815e-05
7.93685e-05
6.83912e-05
7.88175e-05
8.35767e-05
8.47953e-05
8.47104e-05
8.39286e-05
8.22971e-05
7.94302e-05
4.43176e-05
6.21673e-05
7.32048e-05
7.93299e-05
8.22273e-05
8.30747e-05
8.22908e-05
7.98289e-05
4.44182e-05
6.23934e-05
7.34269e-05
7.94915e-05
8.23152e-05
8.31046e-05
8.22791e-05
7.97908e-05
4.44818e-05
6.26848e-05
7.37744e-05
7.97845e-05
8.25168e-05
8.32352e-05
8.23702e-05
7.98657e-05
4.46255e-05
6.30106e-05
7.41973e-05
8.0154e-05
8.27266e-05
8.32764e-05
8.22764e-05
7.97003e-05
4.43181e-05
6.25871e-05
7.37468e-05
7.98049e-05
8.254e-05
8.32476e-05
8.23748e-05
7.98674e-05
4.42507e-05
6.23448e-05
7.34256e-05
7.95208e-05
8.23434e-05
8.31207e-05
8.22862e-05
7.97933e-05
4.41556e-05
6.21829e-05
7.32473e-05
7.93801e-05
8.22669e-05
8.30961e-05
8.22971e-05
7.98254e-05
2.74887e-05
2.61258e-05
2.54313e-05
2.50372e-05
2.48302e-05
2.46913e-05
2.45504e-05
2.4363e-05
3.28819e-05
3.02165e-05
2.80266e-05
2.64095e-05
2.5513e-05
2.51765e-05
2.49607e-05
2.46912e-05
3.75128e-05
3.57019e-05
3.40932e-05
3.24642e-05
3.06782e-05
2.88748e-05
2.73546e-05
2.63026e-05
4.04244e-05
3.90101e-05
3.78449e-05
3.70591e-05
3.62338e-05
3.53697e-05
3.46655e-05
3.43543e-05
3.79063e-05
3.62951e-05
3.4899e-05
3.34486e-05
3.17905e-05
2.99053e-05
2.80754e-05
2.66542e-05
3.32209e-05
3.10088e-05
2.90876e-05
2.7238e-05
2.58202e-05
2.51181e-05
2.48902e-05
2.46664e-05
2.778e-05
2.62371e-05
2.54804e-05
2.50681e-05
2.47955e-05
2.46529e-05
2.45317e-05
2.43702e-05
7.82627e-05
7.44829e-05
7.12156e-05
6.91427e-05
6.80483e-05
6.71729e-05
6.59504e-05
6.39731e-05
7.94096e-05
7.58659e-05
7.21236e-05
6.96572e-05
6.81761e-05
6.69063e-05
6.53528e-05
6.31313e-05
7.94389e-05
7.71489e-05
7.35412e-05
7.05826e-05
6.85785e-05
6.65648e-05
6.46198e-05
6.24504e-05
7.9164e-05
7.81671e-05
7.45584e-05
7.1194e-05
6.8965e-05
6.69497e-05
6.35976e-05
5.89714e-05
7.98717e-05
7.69952e-05
7.31682e-05
7.00578e-05
6.78849e-05
6.56663e-05
6.38221e-05
6.19868e-05
7.99277e-05
7.57878e-05
7.18878e-05
6.94262e-05
6.79783e-05
6.67385e-05
6.52166e-05
6.30389e-05
7.85272e-05
7.4209e-05
7.08458e-05
6.88301e-05
6.77905e-05
6.70304e-05
6.59587e-05
6.4083e-05
8.33027e-05
8.5914e-05
8.50586e-05
8.35842e-05
8.22804e-05
8.09136e-05
7.90649e-05
7.62577e-05
8.22182e-05
8.56801e-05
8.50449e-05
8.35436e-05
8.21784e-05
8.07467e-05
7.88229e-05
7.59322e-05
8.06494e-05
8.52189e-05
8.47389e-05
8.3082e-05
8.16199e-05
8.01296e-05
7.82092e-05
7.54431e-05
7.88317e-05
8.33266e-05
8.17375e-05
7.86979e-05
7.58251e-05
7.28361e-05
6.95872e-05
6.58243e-05
8.16437e-05
8.54923e-05
8.47143e-05
8.29746e-05
8.15108e-05
8.00294e-05
7.81053e-05
7.53554e-05
8.36874e-05
8.6113e-05
8.50877e-05
8.34814e-05
8.20995e-05
8.06766e-05
7.87791e-05
7.59267e-05
8.47684e-05
8.61798e-05
8.49303e-05
8.34155e-05
8.21655e-05
8.08698e-05
7.90885e-05
7.63319e-05
6.82967e-05
7.87155e-05
8.35125e-05
8.47765e-05
8.47168e-05
8.39461e-05
8.23187e-05
7.94505e-05
6.76675e-05
7.87587e-05
8.37864e-05
8.50607e-05
8.49206e-05
8.40449e-05
8.23102e-05
7.93417e-05
6.6688e-05
7.86733e-05
8.40293e-05
8.53315e-05
8.51415e-05
8.42507e-05
8.25613e-05
7.96853e-05
6.68684e-05
7.93031e-05
8.42318e-05
8.48146e-05
8.36792e-05
8.16513e-05
7.8978e-05
7.55575e-05
6.74893e-05
7.90057e-05
8.41126e-05
8.53329e-05
8.5123e-05
8.42272e-05
8.25388e-05
7.96705e-05
6.87867e-05
7.91147e-05
8.38122e-05
8.50097e-05
8.48744e-05
8.40211e-05
8.23128e-05
7.93697e-05
6.94362e-05
7.89122e-05
8.33605e-05
8.46213e-05
8.46299e-05
8.3924e-05
8.23478e-05
7.9515e-05
4.41512e-05
6.21826e-05
7.32544e-05
7.93913e-05
8.2281e-05
8.3112e-05
8.2315e-05
7.98445e-05
4.43428e-05
6.25446e-05
7.36215e-05
7.96684e-05
8.24443e-05
8.31729e-05
8.22856e-05
7.97374e-05
4.44171e-05
6.2762e-05
7.39297e-05
7.99838e-05
8.2729e-05
8.34416e-05
8.25611e-05
8.00301e-05
4.52268e-05
6.37949e-05
7.49001e-05
8.06394e-05
8.30125e-05
8.33626e-05
8.21437e-05
7.93518e-05
4.45214e-05
6.28077e-05
7.3944e-05
7.9974e-05
8.27183e-05
8.34373e-05
8.25636e-05
8.00382e-05
4.43785e-05
6.24224e-05
7.34775e-05
7.95499e-05
8.23741e-05
8.31458e-05
8.2291e-05
7.97657e-05
4.40737e-05
6.18365e-05
7.29238e-05
7.91643e-05
8.21605e-05
8.30699e-05
8.23258e-05
7.98883e-05
2.70665e-05
2.58842e-05
2.5302e-05
2.49946e-05
2.47892e-05
2.46453e-05
2.45124e-05
2.43448e-05
3.12481e-05
2.90823e-05
2.74599e-05
2.62506e-05
2.55201e-05
2.51161e-05
2.48516e-05
2.45923e-05
3.64443e-05
3.49276e-05
3.36509e-05
3.23426e-05
3.07917e-05
2.90396e-05
2.74684e-05
2.63459e-05
4.03501e-05
3.90715e-05
3.8041e-05
3.7225e-05
3.65287e-05
3.59009e-05
3.5443e-05
3.53518e-05
3.79167e-05
3.62124e-05
3.4739e-05
3.3346e-05
3.17706e-05
2.98809e-05
2.79692e-05
2.64802e-05
3.23578e-05
2.99648e-05
2.79455e-05
2.64247e-05
2.55352e-05
2.50644e-05
2.48032e-05
2.45498e-05
2.71502e-05
2.5948e-05
2.53763e-05
2.50391e-05
2.48017e-05
2.46394e-05
2.44958e-05
2.43171e-05
7.80584e-05
7.3947e-05
7.10239e-05
6.91737e-05
6.80478e-05
6.71209e-05
6.59228e-05
6.40248e-05
7.91569e-05
7.49043e-05
7.1369e-05
6.90898e-05
6.7629e-05
6.63639e-05
6.48856e-05
6.28045e-05
7.9787e-05
7.6404e-05
7.23197e-05
6.88689e-05
6.63595e-05
6.4312e-05
6.26595e-05
6.10807e-05
8.04518e-05
7.88705e-05
7.54494e-05
7.15178e-05
6.88653e-05
6.72948e-05
6.50237e-05
6.06658e-05
7.95198e-05
7.65281e-05
7.23839e-05
6.86095e-05
6.58294e-05
6.35551e-05
6.20151e-05
6.07265e-05
7.86821e-05
7.47369e-05
7.12084e-05
6.89148e-05
6.74218e-05
6.61309e-05
6.46411e-05
6.25738e-05
7.79954e-05
7.41299e-05
7.0924e-05