/*--------------------------------*- C++ -*----------------------------------*\
| =========                 |                                                 |
| \\      /  F ield         | OpenFOAM: The Open Source CFD Toolbox           |
|  \\    /   O peration     | Version:  plus.master                           |
|   \\  /    A nd           | Web:      www.OpenFOAM.com                      |
|    \\/     M anipulation  |                                                 |
\*---------------------------------------------------------------------------*/
FoamFile
{
    version     2.0;
    format      ascii;
    class       surfaceScalarField;
    location    "1.8";
    object      phi;
}
// * * * * * * * * * * * * * * * * * * * * * * * * * * * * * * * * * * * * * //

dimensions      [0 3 -1 0 0 0 0];

internalField   nonuniform List<scalar> 
138768
(
1.28687e-06
1.6356e-06
1.79618e-08
-1.63488e-06
-1.5577e-06
4.56587e-07
2.11593e-06
3.32272e-07
-1.81315e-06
-2.18831e-07
2.37779e-06
7.23942e-07
-2.42624e-06
-7.11905e-07
2.10151e-06
8.35662e-07
-2.44402e-06
-1.09135e-06
1.8126e-06
3.89228e-07
-1.82892e-06
-1.81741e-06
1.2838e-06
3.29566e-08
-7.18206e-07
9.60081e-07
-1.94414e-07
-1.63293e-06
-1.26386e-06
1.7908e-06
8.80257e-07
3.22056e-07
-1.51791e-06
1.78407e-06
2.68338e-06
1.50114e-06
-1.52591e-07
4.02396e-06
2.35235e-06
-1.61794e-06
2.57442e-06
3.05438e-06
-2.93995e-06
3.1389e-06
2.05775e-06
-1.64056e-06
8.8458e-07
1.16187e-06
-1.24876e-07
-4.6417e-08
-6.35615e-07
1.95894e-06
-3.7201e-08
7.02822e-07
-1.80688e-06
3.54588e-06
5.62662e-07
2.59566e-06
1.06851e-06
1.21755e-06
7.34566e-06
-3.05157e-06
-3.44218e-06
1.21991e-05
-4.10099e-06
4.87457e-07
5.76359e-06
-2.21463e-06
-2.61916e-07
1.32208e-06
-2.27508e-07
1.02605e-07
-2.23991e-06
2.12984e-06
-1.06425e-06
7.74677e-07
-1.88852e-06
4.27212e-06
-2.26637e-06
2.74862e-06
1.63955e-06
-3.47615e-06
9.38869e-06
-4.30343e-06
-8.68606e-06
1.32499e-05
-3.74526e-06
-3.19752e-06
5.18952e-06
-2.25355e-06
-1.00256e-06
1.31081e-06
-1.39869e-07
1.21522e-07
-2.4626e-06
1.73258e-06
-1.77286e-06
4.36076e-07
-1.53468e-06
3.15626e-06
-3.67597e-06
2.04789e-06
1.68595e-06
-4.39274e-06
4.44938e-06
-3.79348e-06
-4.90646e-06
3.7624e-06
-4.39139e-06
-4.12063e-06
3.58294e-06
-2.38332e-06
-1.96784e-06
1.01904e-06
-1.82256e-07
5.54308e-09
-2.3464e-06
1.08931e-06
-2.17038e-06
1.00425e-07
-9.06543e-07
9.31408e-07
-2.33141e-06
8.75283e-07
-1.26186e-07
-2.47333e-06
1.20005e-06
-1.63416e-06
-2.55152e-06
1.21483e-06
-2.76352e-06
-2.03352e-06
1.10405e-06
-1.89855e-06
-1.58971e-06
8.18668e-07
-6.74936e-07
-1.23712e-07
-1.49111e-06
9.59008e-07
-9.89755e-08
-1.36296e-06
-1.91297e-06
2.40412e-07
6.38538e-08
-1.85452e-06
-1.93627e-07
1.99875e-07
-2.28702e-06
-6.48042e-07
1.64992e-07
-2.31278e-06
-1.11895e-06
4.68098e-08
-1.75258e-06
-1.31318e-06
-1.0553e-07
-1.4456e-06
-2.4447e-07
-9.71578e-07
-9.71053e-07
5.82842e-07
1.02677e-06
4.62942e-07
-8.97733e-07
-1.15719e-06
-1.37175e-08
1.00682e-06
1.11683e-06
-1.195e-06
-6.82956e-07
7.83968e-07
1.71915e-06
-1.1101e-06
-1.02718e-06
3.19766e-07
1.79772e-06
-9.37699e-07
-1.35531e-06
4.25309e-07
1.09102e-06
-7.99134e-07
-1.40144e-06
3.8176e-07
4.18461e-07
-7.21296e-07
4.92474e-07
-3.69509e-08
-1.34525e-06
-7.04456e-07
4.99816e-07
6.16883e-07
1.10778e-06
-8.75842e-07
-9.61559e-09
6.8486e-07
2.33229e-06
-8.38636e-07
1.80787e-07
3.78429e-06
-1.00825e-06
-8.87322e-07
4.43085e-06
-1.28864e-06
1.24883e-07
2.63839e-06
-1.18063e-06
2.22189e-07
1.21332e-06
2.84846e-07
2.78226e-07
-1.29836e-06
4.38332e-07
-1.00598e-07
1.77853e-06
-7.97211e-07
-2.3348e-07
-7.82728e-08
4.03039e-06
-1.486e-06
-6.87322e-07
9.46604e-06
-7.31401e-07
-2.47116e-06
1.30275e-05
-5.60199e-07
-2.6992e-07
5.9867e-06
-9.36221e-07
-4.92474e-08
1.96939e-06
4.48017e-08
6.01193e-07
-1.19395e-06
4.68207e-07
-8.2835e-07
1.84128e-06
-8.07952e-07
-2.73315e-08
-1.18033e-06
4.34586e-06
-1.59519e-06
-1.08483e-06
1.13538e-05
-1.4911e-06
-1.77965e-06
1.24537e-05
-9.47773e-07
-1.03637e-06
5.41198e-06
-1.12054e-06
-5.32e-07
1.96622e-06
-3.01365e-07
6.28997e-07
-1.27964e-06
6.49242e-07
-1.34512e-06
1.21808e-06
-9.15523e-07
4.05785e-07
-1.59937e-06
2.71004e-06
-1.69396e-07
-1.07166e-06
5.01084e-06
-1.70614e-06
-1.2849e-06
4.80428e-06
-1.44951e-06
-1.03181e-06
3.32163e-06
-1.36509e-06
-9.36791e-07
1.33922e-06
-6.57219e-07
3.65418e-07
-1.36884e-06
5.34779e-07
-1.4373e-06
5.56327e-07
-8.98655e-07
5.81937e-08
-1.53409e-06
1.28633e-06
-4.95607e-07
-1.2651e-06
1.94679e-06
-1.24561e-06
-1.21229e-06
1.89205e-06
-1.4534e-06
-1.06376e-06
1.3436e-06
-1.30639e-06
-9.0866e-07
6.43348e-07
-8.16479e-07
6.73827e-08
-1.33995e-06
5.57692e-07
1.10329e-07
-8.72736e-07
-1.3326e-06
5.37639e-08
4.45296e-07
-1.41287e-06
-4.52116e-07
7.21292e-07
-1.28267e-06
-9.46079e-07
6.61572e-07
-1.21971e-06
-1.21441e-06
3.86091e-07
-1.13614e-06
-1.27399e-06
8.4092e-08
-1.03884e-06
-1.52428e-07
-1.27237e-06
-9.10263e-07
1.78114e-07
6.96845e-07
1.06176e-06
-5.69265e-07
-9.04778e-07
-3.14322e-07
6.21109e-07
1.85353e-06
-8.65954e-07
-6.41397e-07
2.72058e-07
2.47061e-06
-6.96825e-07
-7.62524e-07
6.73947e-08
2.49274e-06
-6.41609e-07
-9.70236e-07
3.4522e-07
1.67737e-06
-7.24304e-07
-1.07735e-06
4.9807e-07
8.48281e-07
-8.21802e-07
5.85926e-07
2.45266e-07
-1.10499e-06
-8.40516e-07
6.4902e-08
3.02864e-07
1.91264e-06
-4.76775e-07
-5.00482e-07
1.97846e-07
3.32026e-06
-8.59975e-07
-4.35449e-07
4.8506e-06
-8.45342e-07
-6.81271e-07
5.16405e-06
-1.00246e-06
-9.8884e-08
3.23895e-06
-1.09262e-06
1.16853e-07
1.68347e-06
2.67993e-07
6.61705e-07
-1.15742e-06
-1.67236e-07
-1.42562e-07
2.72983e-06
-3.39444e-07
-9.19094e-07
-2.88184e-07
5.26765e-06
-1.56659e-06
-9.70628e-07
1.0648e-05
-9.16436e-07
-8.84968e-07
1.25788e-05
-5.1493e-07
-2.73135e-07
5.75808e-06
-8.61732e-07
-6.64253e-08
2.49704e-06
4.57761e-08
1.04107e-06
-1.07988e-06
-9.14152e-08
-5.81019e-07
2.76302e-06
-3.92778e-07
-6.20275e-07
-8.81391e-07
5.46694e-06
-1.1001e-06
-8.97741e-07
1.17598e-05
-9.61918e-07
-5.65398e-07
1.19947e-05
-7.20513e-07
-5.19895e-07
5.41628e-06
-9.66883e-07
-3.67177e-07
2.50841e-06
-2.29724e-07
1.06495e-06
-1.12691e-06
2.94997e-07
-9.84889e-07
1.96913e-06
-6.44004e-07
-1.81497e-07
-1.19294e-06
3.49706e-06
-6.674e-07
-8.26902e-07
5.42473e-06
-1.08255e-06
-6.46432e-07
5.30015e-06
-1.05841e-06
-6.76318e-07
3.45357e-06
-1.17573e-06
-6.85423e-07
1.7686e-06
-5.45082e-07
7.35359e-07
-1.22987e-06
3.59171e-07
-1.1437e-06
1.11434e-06
-7.59024e-07
-2.0438e-07
-1.26252e-06
1.91826e-06
-6.12706e-07
-1.0438e-06
2.57132e-06
-9.35137e-07
-9.10688e-07
2.4776e-06
-1.11792e-06
-9.2228e-07
1.77164e-06
-1.20473e-06
-8.98677e-07
9.42292e-07
-7.91784e-07
3.45995e-07
-1.23527e-06
4.4295e-07
4.74658e-07
-8.03563e-07
-1.14737e-06
-3.60855e-08
8.9849e-07
-1.23754e-06
-4.2274e-07
1.20437e-06
-1.14235e-06
-7.20496e-07
1.13466e-06
-1.08772e-06
-9.50174e-07
7.80855e-07
-1.08946e-06
-1.09031e-06
3.69829e-07
-1.04498e-06
4.01599e-08
-1.13542e-06
-9.3914e-07
-1.41544e-08
4.35726e-07
1.59585e-06
-3.31191e-07
-6.29074e-07
-3.72256e-07
3.31183e-07
2.45211e-06
-5.72528e-07
-5.58966e-07
4.64253e-09
3.0461e-06
-3.9388e-07
-5.57054e-07
-1.73071e-07
2.99943e-06
-3.35936e-07
-6.90085e-07
1.64577e-07
2.17104e-06
-5.25964e-07
-8.02162e-07
3.92662e-07
1.26864e-06
-7.04693e-07
5.44886e-07
5.43036e-07
-8.7613e-07
-7.74955e-07
-2.0104e-07
1.2243e-07
2.58527e-06
-1.59471e-07
-6.05306e-07
4.07267e-08
4.01408e-06
-7.67484e-07
-4.4415e-07
5.4608e-06
-6.65701e-07
-6.12877e-07
5.50092e-06
-7.07992e-07
-2.19765e-07
3.66486e-06
-8.1564e-07
4.52328e-08
2.13671e-06
2.50178e-07
1.05531e-06
-9.25829e-07
-5.20172e-07
-1.34973e-07
3.46662e-06
4.04485e-08
-9.72012e-07
-2.7593e-07
6.03531e-06
-1.17112e-06
-6.99022e-07
1.11012e-05
-5.72625e-07
-3.1816e-07
1.16834e-05
-3.28554e-07
-1.97557e-07
5.49065e-06
-6.26573e-07
-8.18121e-08
2.92128e-06
3.87475e-08
1.4736e-06
-8.64959e-07
-4.77963e-07
-3.86642e-07
3.49468e-06
-2.53433e-09
-7.90724e-07
-6.82868e-07
6.1854e-06
-7.63766e-07
-6.13921e-07
1.16469e-05
-3.47164e-07
-3.22477e-08
1.12922e-05
-3.48368e-07
-1.66764e-07
5.38601e-06
-6.5292e-07
-2.05606e-07
2.93214e-06
-1.69027e-07
1.5023e-06
-8.93331e-07
-5.12784e-08
-6.8422e-07
2.62667e-06
-3.0918e-07
-4.76435e-07
-8.48989e-07
4.0873e-06
-7.55327e-07
-5.6336e-07
5.65225e-06
-7.30419e-07
-2.56889e-07
5.49975e-06
-7.51094e-07
-4.09823e-07
3.71699e-06
-9.03316e-07
-4.77078e-07
2.19066e-06
-4.52452e-07
1.139e-06
-1.03181e-06
1.44766e-07
-8.40395e-07
1.65201e-06
-5.26741e-07
-3.24214e-07
-9.43844e-07
2.4815e-06
-6.12791e-07
-7.86984e-07
3.08306e-06
-7.14225e-07
-6.33646e-07
2.95528e-06
-8.51927e-07
-7.01756e-07
2.2007e-06
-9.81057e-07
-7.49432e-07
1.34246e-06
-7.09976e-07
6.74861e-07
-1.05587e-06
3.34884e-07
8.60661e-07
-6.63558e-07
-8.99762e-07
-6.81933e-08
1.35212e-06
-9.95668e-07
-3.80896e-07
1.67023e-06
-9.40524e-07
-5.79315e-07
1.59039e-06
-8.93308e-07
-7.56096e-07
1.18852e-06
-9.33095e-07
-9.00241e-07
6.99694e-07
-9.37913e-07
2.67245e-07
-9.65863e-07
-8.71862e-07
-2.69983e-09
3.21676e-07
-3.16121e-07
-5.17435e-07
2.10799e-06
-3.19495e-07
2.67488e-07
-4.7608e-07
2.97432e-06
-4.72589e-07
-3.37619e-09
-3.35662e-07
3.53765e-06
-4.39701e-07
-1.83711e-07
-2.65935e-07
3.41581e-06
-5.2665e-07
9.1039e-08
-4.55014e-07
2.62071e-06
-6.49063e-07
3.40143e-07
-6.61199e-07
1.70982e-06
5.28046e-07
-7.91778e-07
-7.79676e-07
9.37457e-07
-2.19237e-07
5.66155e-08
-8.23607e-08
3.15069e-06
-5.44689e-07
4.38233e-08
4.56233e-06
-6.63797e-07
-2.70829e-07
5.84678e-06
-4.93153e-07
-5.46623e-07
5.69238e-06
-4.87499e-07
-2.71259e-07
4.02114e-06
-6.11942e-07
2.07584e-08
2.57746e-06
2.41972e-07
-7.67408e-07
1.49316e-06
-5.47831e-07
-1.16214e-07
1.52986e-07
4.03405e-06
-8.19062e-07
-2.26096e-07
6.57584e-06
-7.12448e-07
-3.43587e-07
1.10671e-05
-6.24223e-08
-1.17998e-07
1.06041e-05
-1.27947e-07
-1.4788e-07
5.43242e-06
-4.3123e-07
-6.78393e-08
3.31268e-06
5.10856e-08
-6.94648e-07
1.92086e-06
-5.82991e-07
-2.62047e-07
1.55867e-07
4.06728e-06
-8.31286e-07
-4.87115e-07
6.69384e-06
-5.67124e-07
-3.28342e-07
1.1368e-05
5.85497e-08
1.65214e-07
1.03846e-05
-1.02936e-07
-3.71024e-08
5.43658e-06
-4.48836e-07
-1.092e-07
3.31899e-06
-1.29437e-07
-7.32732e-07
1.94894e-06
-2.05518e-07
-4.85589e-07
-1.37614e-07
3.19277e-06
-5.70198e-07
-6.18143e-07
4.58244e-06
-6.99e-07
-3.97607e-07
5.85024e-06
-5.37561e-07
-1.12565e-07
5.61627e-06
-5.76286e-07
-3.00648e-07
4.01921e-06
-7.2801e-07
-3.8011e-07
2.61285e-06
-4.08526e-07
-8.87583e-07
1.57405e-06
7.03919e-08
-6.55213e-07
-4.22578e-07
2.16962e-06
-3.22319e-07
-7.40629e-07
2.99621e-06
-5.46644e-07
-6.40209e-07
3.54957e-06
-5.75623e-07
-5.17947e-07
3.38938e-06
-7.0153e-07
-6.0701e-07
2.63216e-06
-8.35751e-07
-6.82583e-07
1.7781e-06
-6.9688e-07
-9.46987e-07
1.07332e-06
3.2923e-07
-6.39938e-07
-7.84793e-07
1.29767e-06
-2.56632e-08
-8.54957e-07
1.81825e-06
-3.02071e-07
-8.30004e-07
2.13433e-06
-4.69542e-07
-8.06728e-07
2.04568e-06
-6.38498e-07
-8.77151e-07
1.62363e-06
-7.96039e-07
-9.23064e-07
1.09686e-06
-9.10548e-07
-9.14211e-07
5.98231e-07
-1.6975e-06
-3.98512e-08
-1.42906e-07
1.62568e-07
-1.48321e-06
-2.37155e-07
-1.58294e-07
2.17133e-07
-1.35077e-06
-1.20864e-07
-1.71706e-07
2.06157e-07
-1.20951e-06
-9.72921e-08
-1.77032e-07
1.79175e-07
-1.08045e-06
-7.57645e-08
-1.72336e-07
1.48136e-07
-9.66431e-07
-4.28596e-08
-1.57992e-07
1.18495e-07
-8.79986e-07
-1.19896e-08
-1.35659e-07
9.48008e-08
1.60707e-08
-1.08871e-07
9.54115e-08
-8.666e-07
-2.56955e-07
-2.5645e-07
-1.835e-07
-2.85789e-07
3.69655e-08
-2.15238e-07
-3.28619e-07
1.88487e-07
-2.51371e-07
-2.7116e-07
1.4887e-07
-2.80967e-07
-1.09128e-07
8.89545e-08
-2.9519e-07
1.06848e-07
5.24967e-08
-2.83076e-07
3.44665e-07
2.88729e-08
-2.61227e-07
6.6619e-08
-2.21293e-07
5.19724e-07
-2.16725e-06
-1.14193e-07
-1.88763e-07
-1.96552e-06
1.12826e-07
-2.98302e-07
-1.62539e-06
1.64216e-07
-3.61505e-07
-1.23596e-06
1.12194e-07
-4.04699e-07
-8.08459e-07
5.37466e-08
-4.29781e-07
-3.48867e-07
2.23452e-08
-4.17724e-07
1.02527e-07
7.14981e-09
-3.95012e-07
3.62575e-08
-3.60666e-07
5.19453e-07
-2.63875e-06
2.38916e-07
-1.75774e-07
-2.39748e-06
1.80039e-07
-3.11281e-07
-1.86142e-06
2.02994e-09
-3.8848e-07
-1.28626e-06
-8.74871e-08
-4.45138e-07
-6.78656e-07
-1.05916e-07
-4.84903e-07
-5.29185e-08
-8.54458e-08
-4.93848e-07
5.23837e-07
-5.99266e-08
-4.6237e-07
-7.13393e-08
-4.57915e-07
1.1257e-06
-2.28185e-06
4.42445e-07
-2.16108e-07
-2.04248e-06
2.64212e-07
-3.18179e-07
-1.67448e-06
-1.25707e-08
-3.80639e-07
-1.29363e-06
-1.24783e-07
-4.1629e-07
-8.68229e-07
-1.34359e-07
-4.35758e-07
-3.92241e-07
-1.25922e-07
-4.30988e-07
7.61318e-08
-1.05591e-07
-3.91607e-07
-1.41323e-07
-3.70942e-07
5.54147e-07
-1.1408e-06
2.38557e-07
-2.1409e-07
-8.03864e-07
2.55754e-07
-2.54012e-07
-5.78746e-07
6.87954e-08
-2.86878e-07
-3.95866e-07
3.37849e-08
-2.98452e-07
-1.99191e-07
1.79402e-08
-3.05711e-07
1.00166e-09
-1.11047e-08
-2.85892e-07
2.07167e-07
-3.565e-08
-2.53102e-07
-6.00193e-08
-2.05566e-07
3.42343e-07
-8.78305e-07
-1.59373e-07
2.05159e-07
-6.76216e-07
-1.74937e-07
2.61426e-07
-5.95119e-07
-1.81078e-07
2.10456e-07
-5.4332e-07
-1.68011e-07
1.9728e-07
-5.34519e-07
-1.56603e-07
1.99004e-07
-5.74039e-07
-1.41794e-07
1.92335e-07
-6.47704e-07
-1.20687e-07
1.78509e-07
-9.77629e-08
1.64429e-07
-7.64105e-07
-1.48139e-06
-1.44491e-07
-1.40471e-07
2.90615e-07
-1.54997e-06
-1.12615e-07
-2.1782e-07
2.53116e-07
-1.56824e-06
-9.00264e-08
-2.75793e-07
2.24357e-07
-1.549e-06
-7.74552e-08
-3.13162e-07
2.03481e-07
-1.5053e-06
-7.05089e-08
-3.27049e-07
1.88695e-07
-1.44948e-06
-6.64685e-08
-3.19636e-07
1.77823e-07
-1.39471e-06
-6.35714e-08
-2.94062e-07
1.69398e-07
-6.15249e-08
-2.55256e-07
1.62212e-07
-1.34869e-06
-1.4625e-06
-2.94002e-08
-1.05303e-07
-1.5258e-06
1.05136e-08
-2.46259e-07
-1.52412e-06
2.80065e-08
-3.4164e-07
-1.47383e-06
2.83162e-08
-4.05804e-07
-1.39455e-06
2.17941e-08
-4.365e-07
-1.2998e-06
1.46408e-08
-4.32947e-07
-1.21543e-06
9.83816e-09
-3.96819e-07
8.15215e-09
-3.34828e-07
-1.15673e-06
-1.40673e-06
-1.20428e-08
8.48263e-09
-1.49818e-06
1.58071e-08
-2.09545e-07
-1.49428e-06
2.4952e-08
-3.55864e-07
-1.42209e-06
2.43815e-08
-4.65054e-07
-1.29953e-06
2.11744e-08
-5.2934e-07
-1.14335e-06
1.92856e-08
-5.4866e-07
-9.89215e-07
1.70894e-08
-5.23637e-07
1.91288e-08
-4.60426e-07
-8.71329e-07
-1.44197e-06
-7.0419e-08
4.37528e-08
-1.49431e-06
-5.26347e-08
-1.9134e-07
-1.45253e-06
-4.90475e-08
-3.56144e-07
-1.33962e-06
-4.6917e-08
-4.85177e-07
-1.1669e-06
-4.30152e-08
-5.68455e-07
-9.70111e-07
-3.84722e-08
-6.08756e-07
-7.28758e-07
-3.46688e-08
-5.99005e-07
-3.3418e-08
-5.4992e-07
-5.44109e-07
-1.50393e-06
-9.91022e-08
-5.32687e-08
-1.55128e-06
-8.5745e-08
-2.36456e-07
-1.5258e-06
-8.12958e-08
-3.6929e-07
-1.43893e-06
-7.23759e-08
-4.71101e-07
-1.30036e-06
-5.9261e-08
-5.32846e-07
-1.14511e-06
-4.75629e-08
-5.52497e-07
-9.64832e-07
-3.84068e-08
-5.283e-07
-3.45353e-08
-4.6806e-07
-8.37542e-07
-1.48048e-06
6.04758e-09
-1.5271e-07
-1.53504e-06
1.59832e-08
-2.7461e-07
-1.52601e-06
1.94744e-08
-3.61062e-07
-1.46727e-06
2.25972e-08
-4.16824e-07
-1.38875e-06
2.57983e-08
-4.39273e-07
-1.29853e-06
2.90598e-08
-4.28957e-07
-1.21561e-06
3.16645e-08
-3.88452e-07
3.41626e-08
-3.24972e-07
-1.154e-06
-1.41399e-06
-1.69559e-07
1.75723e-07
-1.48782e-06
-2.34548e-07
1.69096e-07
-1.51423e-06
-2.80772e-07
1.622e-07
-1.49667e-06
-3.08244e-07
1.57943e-07
-1.45923e-06
-3.16847e-07
1.54411e-07
-1.41118e-06
-3.07513e-07
1.5102e-07
-1.36402e-06
-2.8217e-07
1.47249e-07
-2.4453e-07
1.42486e-07
-1.32528e-06
-1.28115e-06
-4.88782e-09
-6.32556e-08
1.02975e-07
-1.38887e-06
2.01052e-08
-2.071e-07
7.61929e-08
-1.4323e-06
2.49879e-08
-3.27032e-07
6.7383e-08
-1.41995e-06
2.10377e-08
-4.14761e-07
6.75663e-08
-1.36582e-06
1.46568e-08
-4.63482e-07
6.95808e-08
-1.28777e-06
7.37564e-09
-4.76897e-07
7.15348e-08
-1.19944e-06
4.94886e-11
-4.5544e-07
7.27541e-08
-5.43408e-09
-4.04201e-07
7.29816e-08
-1.11825e-06
-1.35724e-06
7.75313e-09
8.26957e-08
-1.4649e-06
3.96822e-08
-1.60793e-07
-1.4987e-06
5.2657e-08
-3.36276e-07
-1.4722e-06
5.34143e-08
-4.63949e-07
-1.40556e-06
5.02404e-08
-5.38777e-07
-1.31721e-06
4.64284e-08
-5.60656e-07
-1.22388e-06
4.21004e-08
-5.32467e-07
3.72463e-08
-4.61508e-07
-1.14009e-06
-1.32176e-06
1.20041e-09
2.6142e-07
-1.44538e-06
2.57555e-08
-7.45225e-08
-1.47485e-06
2.86806e-08
-3.06821e-07
-1.43288e-06
2.63018e-08
-4.80445e-07
-1.3424e-06
2.5379e-08
-5.90644e-07
-1.23887e-06
2.68749e-08
-6.31103e-07
-1.14173e-06
2.7417e-08
-6.06072e-07
2.72052e-08
-5.24389e-07
-1.06792e-06
-1.34383e-06
-3.4944e-08
3.01077e-07
-1.44576e-06
-2.39954e-08
-3.9868e-08
-1.45478e-06
-3.14737e-08
-2.91331e-07
-1.38819e-06
-3.90543e-08
-4.82513e-07
-1.27518e-06
-4.24085e-08
-6.08442e-07
-1.1532e-06
-4.20134e-08
-6.6155e-07
-1.04309e-06
-4.0393e-08
-6.41273e-07
-3.81164e-08
-5.57688e-07
-9.70196e-07
-1.41667e-06
-6.00707e-08
1.62637e-07
-1.50554e-06
-5.74477e-08
-1.14467e-07
-1.51015e-06
-6.46977e-08
-3.30969e-07
-1.45289e-06
-6.98848e-08
-4.97544e-07
-1.35601e-06
-7.03112e-08
-6.01637e-07
-1.2456e-06
-6.72343e-08
-6.37923e-07
-1.1419e-06
-6.23415e-08
-6.10293e-07
-5.6088e-08
-5.27263e-07
-1.06495e-06
-1.40965e-06
-3.33952e-08
-5.03358e-09
-1.50539e-06
-3.56591e-08
-2.00583e-07
-1.53232e-06
-3.72694e-08
-3.62367e-07
-1.50277e-06
-3.55128e-08
-4.81246e-07
-1.43202e-06
-3.0708e-08
-5.50055e-07
-1.33646e-06
-2.41631e-08
-5.67862e-07
-1.23311e-06
-1.71108e-08
-5.37294e-07
-1.02845e-08
-4.64532e-07
-1.1396e-06
-1.31293e-06
-1.133e-07
8.76428e-08
-1.42426e-06
-2.34752e-07
7.51464e-08
-1.46768e-06
-3.43867e-07
6.79964e-08
-1.45351e-06
-4.23421e-07
6.49509e-08
-1.39577e-06
-4.69624e-07
6.39064e-08
-1.31011e-06
-4.81213e-07
6.36067e-08
-1.21452e-06
-4.58471e-07
6.33488e-08
-4.0555e-07
6.26282e-08
-1.12664e-06
-1.06692e-06
5.62153e-08
4.40314e-08
2.84218e-08
-1.19141e-06
6.08623e-08
-1.5531e-07
1.58544e-08
-1.2511e-06
4.13927e-08
-3.27886e-07
1.95874e-08
-1.2582e-06
2.20117e-08
-4.54605e-07
2.5362e-08
-1.226e-06
7.66575e-09
-5.32309e-07
2.91064e-08
-1.16642e-06
-2.05665e-09
-5.65595e-07
3.06309e-08
-1.09091e-06
-8.02983e-09
-5.54361e-07
3.09593e-08
-1.12738e-08
-5.07897e-07
3.0796e-08
-1.00712e-06
-1.14418e-06
5.46531e-08
2.95862e-07
-1.28702e-06
6.98019e-08
-1.36331e-08
-1.34991e-06
5.66873e-08
-2.78505e-07
-1.352e-06
3.83702e-08
-4.77267e-07
-1.30259e-06
2.29206e-08
-6.0348e-07
-1.21855e-06
1.23233e-08
-6.59258e-07
-1.11532e-06
5.32004e-09
-6.49567e-07
1.28554e-09
-5.85889e-07
-1.00392e-06
-1.1355e-06
1.56194e-08
5.55507e-07
-1.30747e-06
2.88106e-08
1.52687e-07
-1.3819e-06
2.06498e-08
-1.75385e-07
-1.38353e-06
1.03709e-08
-4.46819e-07
-1.32109e-06
4.8319e-09
-6.34202e-07
-1.219e-06
2.36973e-09
-7.23713e-07
-1.09688e-06
9.59678e-10
-7.24342e-07
2.06813e-10
-6.51716e-07
-9.68909e-07
-1.16166e-06
-3.50887e-08
6.14215e-07
-1.33645e-06
-3.36349e-08
2.00555e-07
-1.40783e-06
-3.87796e-08
-1.4233e-07
-1.40178e-06
-3.74171e-08
-4.35936e-07
-1.32993e-06
-3.0616e-08
-6.44154e-07
-1.21868e-06
-2.29785e-08
-7.47846e-07
-1.08977e-06
-1.63281e-08
-7.5338e-07
-1.10182e-08
-6.77007e-07
-9.59667e-07
-1.25373e-06
-8.10482e-08
4.22933e-07
-1.39357e-06
-7.86402e-08
7.33279e-08
-1.44308e-06
-7.0561e-08
-2.4098e-07
-1.42311e-06
-5.89575e-08
-4.93971e-07
-1.34803e-06
-4.57285e-08
-6.61291e-07
-1.23717e-06
-3.37258e-08
-7.38207e-07
-1.1084e-06
-2.34563e-08
-7.324e-07
-1.55386e-08
-6.55134e-07
-9.76453e-07
-1.24224e-06
-6.02515e-08
1.58798e-07
-1.36109e-06
-5.81683e-08
-1.03441e-07
-1.40375e-06
-4.77104e-08
-3.4148e-07
-1.38463e-06
-3.56466e-08
-5.20881e-07
-1.32251e-06
-2.49437e-08
-6.32793e-07
-1.22835e-06
-1.56279e-08
-6.80215e-07
-1.11588e-06
-7.92509e-09
-6.65724e-07
-2.23539e-09
-5.96281e-07
-9.97841e-07
-1.13899e-06
-3.82832e-08
3.6929e-08
-1.25138e-06
-2.09178e-07
2.51389e-08
-1.29661e-06
-3.66163e-07
2.06026e-08
-1.28951e-06
-4.82935e-07
1.95709e-08
-1.24643e-06
-5.56605e-07
1.92567e-08
-1.17509e-06
-5.87648e-07
1.93872e-08
-1.08802e-06
-5.73921e-07
2.00753e-08
-5.21469e-07
2.11468e-08
-9.95816e-07
-1.06809e-06
9.07248e-08
-6.0225e-09
2.3577e-07
-1.30859e-06
8.73009e-08
-5.96985e-09
4.74778e-09
-1.50005e-06
5.91042e-08
6.27004e-09
-2.01811e-07
-1.63872e-06
3.55725e-08
1.34858e-08
-3.65275e-07
-1.7354e-06
2.21414e-08
1.48878e-08
-4.73158e-07
-1.80214e-06
1.4661e-08
1.38416e-08
-5.27751e-07
-1.85116e-06
1.14292e-08
1.17714e-08
-5.28796e-07
1.47949e-08
8.84561e-09
-1.91032e-06
-4.72531e-07
-1.06077e-06
7.95265e-08
5.97455e-07
-1.3327e-06
8.4947e-08
2.60629e-07
-1.54787e-06
6.39642e-08
-6.60097e-08
-1.69853e-06
3.9287e-08
-3.30679e-07
-1.79277e-06
2.42146e-08
-5.11642e-07
-1.84928e-06
1.60699e-08
-6.04581e-07
-1.88299e-06
1.26626e-08
-6.17418e-07
1.54434e-08
-1.91415e-06
-5.55623e-07
-1.01673e-06
2.23301e-08
9.24919e-07
-1.31214e-06
2.18189e-08
5.13732e-07
-1.54134e-06
1.0506e-08
1.07949e-07
-1.69673e-06
1.15084e-10
-2.52354e-07
-1.78806e-06
-5.8118e-09
-5.1348e-07
-1.83701e-06
-7.42295e-09
-6.51792e-07
-1.86224e-06
-6.48296e-09
-6.80391e-07
-2.03671e-09
-1.88195e-06
-6.14891e-07
-1.04977e-06
-4.36889e-08
9.9045e-07
-1.33371e-06
-5.2901e-08
5.66951e-07
-1.55646e-06
-5.66346e-08
1.48887e-07
-1.70465e-06
-5.20022e-08
-2.35037e-07
-1.79014e-06
-4.56893e-08
-5.19371e-07
-1.83464e-06
-3.88247e-08
-6.72456e-07
-1.85737e-06
-3.1298e-08
-7.06289e-07
-2.36202e-08
-1.87479e-06
-6.38398e-07
-1.16362e-06
-1.04535e-07
7.57681e-07
-1.41478e-06
-1.09577e-07
3.82066e-07
-1.60473e-06
-1.00151e-07
-7.3246e-09
-1.7331e-06
-8.64115e-08
-3.3097e-07
-1.80706e-06
-7.2068e-08
-5.61279e-07
-1.84634e-06
-5.91777e-08
-6.79012e-07
-1.86498e-06
-4.80334e-08
-6.97411e-07
-3.99863e-08
-1.87813e-06
-6.25941e-07
-1.20147e-06
-1.01772e-07
4.10196e-07
-1.42431e-06
-1.02194e-07
1.11572e-07
-1.59472e-06
-8.94783e-08
-1.81248e-07
-1.71079e-06
-7.42555e-08
-4.16629e-07
-1.78467e-06
-6.10393e-08
-5.70139e-07
-1.8295e-06
-4.99445e-08
-6.44931e-07
-1.85509e-06
-4.08908e-08
-6.47511e-07
-3.51089e-08
-1.87878e-06
-5.77619e-07
-1.15325e-06
-1.01615e-08
1.1242e-07
-1.35936e-06
-1.81501e-08
-8.67131e-08
-1.51618e-06
-1.81778e-08
-2.79164e-07
-1.62947e-06
-1.61668e-08
-4.27734e-07
-1.70928e-06
-1.44082e-08
-5.23528e-07
-1.76444e-06
-1.27106e-08
-5.69927e-07
-1.80438e-06
-1.01477e-08
-5.64853e-07
-6.12397e-09
-1.85411e-06
-5.00774e-07
-1.65141e-06
6.07924e-07
-1.05472e-07
-2.2334e-07
-1.54449e-06
1.24123e-07
-1.39246e-07
-9.37985e-08
-1.42323e-06
3.73336e-08
-1.59577e-07
-6.44872e-09
-1.255e-06
-5.22074e-09
-1.68851e-07
5.99342e-08
-1.13614e-06
-2.93418e-09
-1.65554e-07
9.18014e-08
-1.04228e-06
4.81427e-09
-1.51261e-07
1.03928e-07
-9.99264e-07
2.61553e-08
-1.26097e-07
9.64779e-08
2.36532e-08
-9.73702e-08
8.01226e-08
-9.95342e-07
-9.0049e-07
6.11455e-07
-1.02678e-07
-7.37168e-07
2.0828e-07
-2.04913e-07
-4.57015e-07
7.53605e-08
-2.80353e-07
-1.08287e-07
1.0411e-08
-3.35695e-07
3.17732e-07
-1.58948e-08
-3.70945e-07
7.87858e-07
-2.97073e-08
-3.95042e-07
1.26555e-06
-1.21174e-08
-3.90757e-07
1.61655e-09
-3.67843e-07
1.72109e-06
-1.45536e-06
4.47898e-07
-7.90999e-10
-1.26437e-06
2.66263e-07
-2.06225e-07
-9.95841e-07
1.69377e-07
-3.48485e-07
-6.29535e-07
1.19915e-07
-4.75062e-07
-1.29623e-07
6.30051e-08
-5.77878e-07
4.49506e-07
4.28161e-08
-6.4881e-07
1.06812e-06
5.32606e-08
-6.8304e-07
8.08573e-08
-6.88703e-07
1.67746e-06
-1.7285e-06
1.32925e-07
1.40034e-07
-1.36277e-06
1.20611e-08
-1.06051e-07
-9.27632e-07
-1.43217e-08
-2.52751e-07
-4.19613e-07
-3.45727e-10
-3.87792e-07
1.6421e-07
-2.63774e-08
-4.94704e-07
8.33037e-07
-5.70124e-08
-5.68986e-07
1.57864e-06
-7.65243e-08
-6.15944e-07
-1.07832e-07
-6.44204e-07
2.41152e-06
-1.64721e-06
-1.47899e-07
9.25933e-08
-1.34077e-06
-9.33871e-08
-1.58077e-07
-9.77925e-07
-2.96654e-08
-3.35512e-07
-5.61498e-07
6.91936e-08
-4.79816e-07
-1.76753e-08
1.88461e-08
-5.87355e-07
5.96866e-07
-1.6002e-08
-6.56774e-07
1.23941e-06
-3.06228e-08
-6.91245e-07
-6.25233e-08
-6.98748e-07
1.88684e-06
-1.43051e-06
-3.24896e-07
-3.68125e-08
-1.16986e-06
-1.42667e-07
-1.85889e-07
-7.79424e-07
-9.69847e-08
-2.83054e-07
-2.90615e-07
-2.0362e-08
-3.54753e-07
2.22806e-07
-6.53374e-08
-3.87558e-07
7.62836e-07
-1.08363e-07
-3.99393e-07
1.33767e-06
-1.39574e-07
-3.94258e-07
-1.71659e-07
-3.76394e-07
1.861e-06
-1.90447e-06
-8.57411e-08
-8.76404e-08
-1.81469e-06
-1.37728e-07
-1.87556e-07
-1.60452e-06
-1.72506e-07
-8.26205e-08
-1.35887e-06
-1.81051e-07
-3.70629e-08
-1.16431e-06
-1.7246e-07
-5.48599e-08
-9.79793e-07
-1.55445e-07
-8.25859e-08
-8.269e-07
-1.29005e-07
-1.10003e-07
-9.89112e-08
-1.19692e-07
-7.50144e-07
-1.16892e-06
4.58542e-07
-7.19461e-08
-1.89246e-07
-1.36023e-06
3.58985e-07
-1.74036e-07
-1.2589e-07
-1.46645e-06
2.99083e-07
-2.56674e-07
-8.37521e-08
-1.51826e-06
2.65659e-07
-3.15352e-07
-5.69561e-08
-1.53962e-06
2.49133e-07
-3.45562e-07
-3.98469e-08
-1.55126e-06
2.42526e-07
-3.47775e-07
-2.88981e-08
-1.56792e-06
2.40234e-07
-3.26832e-07
-2.17434e-08
2.38109e-07
-2.9011e-07
-1.70761e-08
-1.59601e-06
-1.19161e-06
5.9319e-07
6.70935e-08
-1.3324e-06
4.591e-07
-1.43755e-07
-1.37098e-06
3.84366e-07
-3.05515e-07
-1.33711e-06
3.51547e-07
-4.30187e-07
-1.26052e-06
3.44804e-07
-5.12401e-07
-1.17974e-06
3.50251e-07
-5.45824e-07
-1.12057e-06
3.60373e-07
-5.38707e-07
3.72024e-07
-5.00483e-07
-1.08693e-06
-1.13077e-06
4.20829e-07
3.86026e-07
-1.18915e-06
2.8124e-07
3.39294e-08
-1.11874e-06
1.91598e-07
-2.23478e-07
-9.67612e-07
1.50552e-07
-4.25774e-07
-7.69479e-07
1.41597e-07
-5.73044e-07
-5.62874e-07
1.48991e-07
-6.53615e-07
-3.76479e-07
1.6343e-07
-6.7209e-07
1.82669e-07
-6.45645e-07
-2.30097e-07
-1.01025e-06
5.72697e-08
7.04475e-07
-1.04466e-06
-3.60345e-08
2.42701e-07
-9.1555e-07
-8.95364e-08
-1.00771e-07
-6.73258e-07
-1.15313e-07
-3.67348e-07
-3.51575e-07
-1.3088e-07
-5.4566e-07
2.83706e-08
-1.42992e-07
-6.58394e-07
4.32384e-07
-1.56692e-07
-6.99996e-07
-1.74676e-07
-6.92417e-07
8.38026e-07
-1.01851e-06
-2.61802e-07
6.29377e-07
-1.08712e-06
-2.89511e-07
1.65625e-07
-1.02408e-06
-3.099e-07
-1.78039e-07
-8.70669e-07
-3.21794e-07
-4.28899e-07
-6.64443e-07
-3.36496e-07
-5.88837e-07
-4.41415e-07
-3.52077e-07
-6.71461e-07
-2.30272e-07
-3.68331e-07
-6.90906e-07
-3.84792e-07
-6.65677e-07
-5.31743e-08
-1.15367e-06
-2.92331e-07
2.74543e-07
-1.29161e-06
-2.69574e-07
-5.08483e-08
-1.31957e-06
-2.56982e-07
-2.84386e-07
-1.273e-06
-2.51088e-07
-4.42952e-07
-1.18598e-06
-2.51111e-07
-5.30554e-07
-1.09075e-06
-2.5407e-07
-5.60963e-07
-1.00925e-06
-2.58037e-07
-5.51516e-07
-2.6138e-07
-5.13071e-07
-9.59888e-07
-1.18617e-06
2.23991e-08
-1.09816e-07
-1.36719e-06
-1.35925e-07
-7.96187e-08
-1.46623e-06
-2.56119e-07
-6.15526e-08
-1.50534e-06
-3.31332e-07
-5.08504e-08
-1.51066e-06
-3.64535e-07
-4.43531e-08
-1.50804e-06
-3.64242e-07
-4.08256e-08
-1.51339e-06
-3.40501e-07
-3.88647e-08
-3.01544e-07
-3.7171e-08
-1.53471e-06
-1.12645e-06
3.10336e-07
6.48738e-08
-1.24494e-07
-1.33602e-06
2.1615e-07
-1.12351e-07
-6.92791e-08
-1.44353e-06
1.65777e-07
-2.74102e-07
-4.13276e-08
-1.47353e-06
1.42855e-07
-4.00975e-07
-2.76375e-08
-1.45442e-06
1.32475e-07
-4.77154e-07
-2.05529e-08
-1.40965e-06
1.26474e-07
-5.02849e-07
-1.64617e-08
-1.35913e-06
1.21956e-07
-4.85721e-07
-1.38161e-08
1.17436e-07
-4.3517e-07
-1.19653e-08
-1.31973e-06
-1.14021e-06
3.73019e-07
3.86168e-07
-1.37101e-06
2.29487e-07
7.38774e-08
-1.46431e-06
1.57273e-07
-2.04689e-07
-1.46041e-06
1.31963e-07
-4.2454e-07
-1.40199e-06
1.26737e-07
-5.65021e-07
-1.3272e-06
1.27003e-07
-6.20654e-07
-1.26486e-06
1.28142e-07
-6.07492e-07
1.29921e-07
-5.43586e-07
-1.23444e-06
-1.01937e-06
2.56347e-07
8.76546e-07
-1.27621e-06
1.19015e-07
4.03055e-07
-1.38449e-06
5.07202e-08
-8.16077e-09
-1.35735e-06
3.48682e-08
-3.55967e-07
-1.25262e-06
4.40263e-08
-5.94763e-07
-1.123e-06
5.2512e-08
-7.07821e-07
-1.01121e-06
5.96024e-08
-7.15474e-07
6.55196e-08
-6.49189e-07
-9.43478e-07
-7.69753e-07
3.16196e-08
1.30172e-06
-1.05616e-06
-3.87638e-08
6.8555e-07
-1.20864e-06
-6.52146e-08
1.54859e-07
-1.19912e-06
-6.29935e-08
-2.81453e-07
-1.0739e-06
-5.03548e-08
-5.59379e-07
-9.07184e-07
-4.64224e-08
-7.23295e-07
-7.39551e-07
-4.62446e-08
-7.5954e-07
-4.97899e-08
-7.04104e-07
-6.12489e-07
-7.29394e-07
-1.72591e-07
1.22119e-06
-1.04286e-06
-1.74052e-07
6.15206e-07
-1.21791e-06
-1.62405e-07
8.88871e-08
-1.24486e-06
-1.4428e-07
-3.23646e-07
-1.16236e-06
-1.30424e-07
-5.84774e-07
-1.04182e-06
-1.24304e-07
-7.10787e-07
-9.30706e-07
-1.23058e-07
-7.24087e-07
-1.24623e-07
-6.60477e-07
-8.6107e-07
-8.58588e-07
-2.4201e-07
7.26679e-07
-1.15047e-06
-2.10562e-07
2.78802e-07
-1.30929e-06
-1.78765e-07
-1.12881e-07
-1.34426e-06
-1.52143e-07
-4.00124e-07
-1.30244e-06
-1.34704e-07
-5.65135e-07
-1.23534e-06
-1.24899e-07
-6.25213e-07
-1.17759e-06
-1.19323e-07
-6.12921e-07
-1.14979e-07
-5.4965e-07
-1.15089e-06
-9.12264e-07
2.66052e-07
-1.43169e-07
-1.17041e-06
8.59068e-09
-9.83388e-08
-1.31231e-06
-2.30714e-07
-6.27459e-08
-1.3606e-06
-3.96002e-07
-3.89478e-08
-1.35276e-06
-4.82685e-07
-2.45475e-08
-1.31631e-06
-5.08635e-07
-1.6427e-08
-1.27398e-06
-4.9002e-07
-1.19534e-08
-4.39091e-07
-9.33779e-09
-1.24226e-06
-9.69007e-07
2.08074e-07
2.27228e-07
-6.80834e-08
-1.18225e-06
1.26156e-07
-2.75189e-09
-2.07617e-08
-1.29082e-06
8.44095e-08
-2.41223e-07
-4.94993e-09
-1.3283e-06
6.52234e-08
-4.27027e-07
-2.43871e-09
-1.31968e-06
5.56625e-08
-5.39051e-07
-2.64396e-09
-1.28348e-06
4.89259e-08
-5.84667e-07
-3.00351e-09
-1.23449e-06
4.40282e-08
-5.75647e-07
-3.52549e-09
4.12007e-08
-5.27539e-07
-4.10453e-09
-1.17953e-06
-9.04676e-07
2.64845e-07
7.06581e-07
-1.17641e-06
1.53027e-07
3.18091e-07
-1.33223e-06
9.81433e-08
-6.02359e-08
-1.38314e-06
7.81503e-08
-3.85075e-07
-1.3679e-06
6.79028e-08
-5.92175e-07
-1.32003e-06
6.08337e-08
-6.81029e-07
-1.25853e-06
5.48679e-08
-6.80321e-07
5.028e-08
-6.18531e-07
-1.19304e-06
-6.92359e-07
1.74843e-07
1.34729e-06
-1.01268e-06
7.81946e-08
7.98256e-07
-1.22765e-06
3.51183e-08
2.6998e-07
-1.32408e-06
2.84978e-08
-2.09632e-07
-1.32147e-06
2.86492e-08
-5.57483e-07
-1.26988e-06
2.77762e-08
-7.25859e-07
-1.20405e-06
2.50915e-08
-7.51998e-07
2.15998e-08
-6.87269e-07
-1.13767e-06
-3.8847e-07
2.62184e-09
1.85573e-06
-7.50034e-07
-5.7141e-08
1.17027e-06
-1.02802e-06
-7.47978e-08
5.32108e-07
-1.18518e-06
-5.47434e-08
-1.9377e-08
-1.21957e-06
-2.83578e-08
-4.5248e-07
-1.19646e-06
-1.5107e-08
-7.00891e-07
-1.15236e-06
-1.02781e-08
-7.68546e-07
-8.91154e-09
-7.14882e-07
-1.11146e-06
-3.50093e-07