/*--------------------------------*- C++ -*----------------------------------*\
| =========                 |                                                 |
| \\      /  F ield         | OpenFOAM: The Open Source CFD Toolbox           |
|  \\    /   O peration     | Version:  plus.master.MPPICInterFoam            |
|   \\  /    A nd           | Web:      www.OpenFOAM.com                      |
|    \\/     M anipulation  |                                                 |
\*---------------------------------------------------------------------------*/
FoamFile
{
    version     2.0;
    format      ascii;
    class       scalarField;
    location    "11.6/lagrangian/kinematicCloud";
    object      d;
}
// * * * * * * * * * * * * * * * * * * * * * * * * * * * * * * * * * * * * * //


41
(
0.000567394
0.00050445
0.000530529
0.00051754
0.000511555
0.000510995
0.000554682
0.000527264
0.000558161
0.000504637
0.000577597
0.000510325
0.000515565
0.000523018
0.000558624
0.000537683
0.000531058
0.000515257
0.000522776
0.000540854
0.000525533
0.000528282
0.000514318
0.000532928
0.000543662
0.000542553
0.000525313
0.000548766
0.000523602
0.000452641
0.000529771
0.000562217
0.000522264
0.000501437
0.000512088
0.000554962
0.000534965
0.000475088
0.000531265
0.000536468
0.000533644
)


// ************************************************************************* //
