/*--------------------------------*- C++ -*----------------------------------*\
| =========                 |                                                 |
| \\      /  F ield         | OpenFOAM: The Open Source CFD Toolbox           |
|  \\    /   O peration     | Version:  plus.master.MPPICInterFoam            |
|   \\  /    A nd           | Web:      www.OpenFOAM.com                      |
|    \\/     M anipulation  |                                                 |
\*---------------------------------------------------------------------------*/
FoamFile
{
    version     2.0;
    format      ascii;
    class       Cloud<basicKinematicMPPICParcel>;
    location    "11.6/lagrangian/kinematicCloud";
    object      positions;
}
// * * * * * * * * * * * * * * * * * * * * * * * * * * * * * * * * * * * * * //

41
(
(-0.0110551 0.0370096 0.518027) 2734
(-0.0110594 -0.0488619 0.507663) 2328
(-0.0181227 0.04901 0.509464) 2688
(-0.0170555 -0.0483479 0.510416) 2320
(-0.00988205 -0.0506119 0.511812) 2384
(-0.055332 0.00552676 0.503942) 2001
(-0.0182652 0.0489413 0.511121) 2688
(-0.0153384 -0.0485278 0.512061) 2384
(-0.018792 0.0489976 0.51258) 2744
(-0.0118871 -0.0460278 0.518074) 2383
(-0.0207915 0.0494683 0.508169) 2688
(-0.012082 -0.0473282 0.52126) 2384
(-0.0125524 -0.0458378 0.523532) 2439
(-0.0178821 0.0486062 0.51576) 2744
(-0.0140957 0.0521247 0.512176) 2736
(-0.017452 -0.0471434 0.520445) 2376
(-0.0198837 -0.0460574 0.521781) 2432
(-0.0135383 -0.0446184 0.531779) 2495
(-0.0217254 -0.0449482 0.524806) 2432
(-0.0188806 -0.0459079 0.527106) 2432
(-0.0146189 -0.0447694 0.535005) 2495
(-0.0204658 -0.0449013 0.530712) 2432
(-0.0165902 -0.0458585 0.535278) 2487
(-0.0198713 0.0483984 0.531126) 2800
(-0.0192256 -0.0440882 0.541885) 2543
(-0.0172421 0.0473844 0.548277) 2912
(-0.0509197 0.0105115 0.544232) 2216
(-0.0199263 -0.0395527 0.559915) 2599
(-0.0163938 -0.0398904 0.5621) 8470
(-0.0117435 0.0492473 0.555615) 2960
(-0.0160994 -0.0363809 0.568511) 8470
(-0.0145656 0.0392528 0.571939) 9118
(-0.0131963 -0.0192725 0.567019) 5944
(-0.0121533 -0.0190002 0.562534) 5952
(-0.0112922 0.026087 0.572384) 6603
(-0.0132442 -0.018202 0.543611) 1192
(-0.0121241 -0.0187059 0.532859) 1144
(-0.0280753 0.00417825 0.538626) 819
(-0.0124268 -0.0181425 0.513474) 1024
(-0.0276488 0.00573086 0.514498) 707
(-0.0281414 0.00577429 0.501699) 651
)


// ************************************************************************* //
