/*--------------------------------*- C++ -*----------------------------------*\
| =========                 |                                                 |
| \\      /  F ield         | OpenFOAM: The Open Source CFD Toolbox           |
|  \\    /   O peration     | Version:  plus.master                           |
|   \\  /    A nd           | Web:      www.OpenFOAM.com                      |
|    \\/     M anipulation  |                                                 |
\*---------------------------------------------------------------------------*/
FoamFile
{
    version     2.0;
    format      ascii;
    class       surfaceScalarField;
    location    "7";
    object      phi;
}
// * * * * * * * * * * * * * * * * * * * * * * * * * * * * * * * * * * * * * //

dimensions      [0 3 -1 0 0 0 0];

internalField   nonuniform List<scalar> 
138768
(
1.25726e-06
1.49334e-06
2.51407e-07
-1.53201e-06
-1.65475e-06
8.11312e-07
1.55749e-06
4.2801e-07
-1.64394e-06
-1.83657e-07
1.59009e-06
7.63665e-07
-1.5368e-06
-1.19867e-06
1.34397e-06
8.92624e-07
-1.39261e-06
-1.99771e-06
1.42585e-06
5.83139e-07
-1.37366e-06
-2.15929e-06
1.19083e-06
3.01656e-07
-1.41458e-06
1.15975e-06
1.90013e-07
-2.42946e-06
-1.36835e-06
1.37643e-06
1.20362e-06
4.01062e-07
-1.56437e-06
2.67032e-06
3.02601e-06
2.07832e-06
4.57515e-07
5.97619e-06
2.66741e-06
-1.67531e-06
5.29893e-06
3.0186e-06
-3.75278e-06
5.68627e-06
2.65774e-06
-1.94393e-06
2.46922e-06
1.75365e-06
9.81173e-07
2.59009e-07
-2.24058e-06
1.52569e-06
3.15475e-07
6.81532e-07
-1.48406e-06
5.88013e-06
8.57561e-07
2.6547e-06
3.58387e-06
3.18429e-06
9.929e-06
-3.75561e-06
7.16233e-06
1.03179e-05
-6.18458e-06
3.92728e-06
9.03048e-06
-1.88332e-06
7.34954e-07
2.2744e-06
2.58772e-07
4.9368e-07
-1.92734e-06
1.28077e-06
-5.12402e-07
8.51616e-07
-1.45024e-06
5.20556e-06
-9.95475e-07
2.76898e-06
6.75626e-06
-3.18545e-06
9.66077e-06
-7.25797e-06
-6.64439e-06
3.26655e-05
-5.02964e-06
-4.03058e-06
1.05738e-05
-1.52324e-06
-8.93478e-07
2.96274e-06
-4.68372e-07
7.32578e-07
-1.76632e-06
1.52662e-06
-1.32914e-06
6.61831e-07
-1.51497e-06
5.84224e-06
-3.10452e-06
2.63422e-06
3.4585e-06
-5.97284e-06
1.00143e-05
-3.71307e-06
-5.21247e-06
1.0589e-05
-6.15446e-06
-5.73233e-06
8.98412e-06
-1.85961e-06
-2.58791e-06
2.24045e-06
-1.11737e-06
4.7131e-07
-1.91846e-06
1.34126e-06
-1.57959e-06
3.83523e-07
-1.5242e-06
2.62258e-06
-1.5685e-06
2.02359e-06
4.14827e-07
-1.54519e-06
2.62095e-06
-1.67228e-06
-1.28223e-06
2.9976e-06
-3.70894e-06
-1.42907e-06
2.57432e-06
-1.89594e-06
-1.2628e-06
1.70248e-06
-1.25031e-06
2.47553e-07
-2.14384e-06
1.26787e-06
2.29954e-07
-1.48766e-06
-1.78531e-06
7.86622e-07
3.93018e-07
-1.66096e-06
-2.45916e-07
7.25955e-07
-1.45801e-06
-1.21619e-06
8.4915e-07
-1.35192e-06
-2.02364e-06
5.40363e-07
-1.3653e-06
-2.18245e-06
2.7693e-07
-1.51342e-06
1.80267e-07
-2.38248e-06
-1.53145e-06
7.49362e-07
9.34389e-07
8.49867e-07
-1.14008e-06
-1.14235e-06
2.31591e-07
8.1262e-07
1.18861e-06
-1.05532e-06
-4.0416e-07
2.86486e-07
1.80206e-06
-6.89031e-07
-1.07474e-06
-6.09227e-09
2.04068e-06
-4.71279e-07
-1.47182e-06
2.77738e-08
1.48839e-06
-5.35849e-07
-1.72963e-06
2.53313e-07
9.65167e-07
-6.58913e-07
3.16133e-07
7.59224e-07
-1.94224e-06
-6.72758e-07
6.60921e-07
6.29839e-07
1.12605e-06
-1.08124e-06
3.96658e-07
8.31543e-07
2.32386e-06
-8.04694e-08
-1.12209e-07
3.54341e-06
-9.50031e-07
-4.68872e-07
4.35112e-06
-1.37854e-06
-2.78499e-07
3.3927e-06
-1.4429e-06
1.54424e-07
1.9171e-06
4.08735e-08
8.89181e-07
-1.79774e-06
2.72133e-07
2.22152e-07
1.60958e-06
-7.92382e-07
-1.20719e-07
5.16363e-07
3.3629e-06
1.01483e-06
6.53902e-07
8.02762e-06
-4.41147e-07
-8.57727e-07
1.21631e-05
-7.59849e-08
3.48746e-07
8.03902e-06
-7.51893e-07
-2.76815e-08
3.13287e-06
-1.07991e-07
1.28421e-06
-1.3934e-06
3.54393e-07
-4.35207e-07
1.86613e-06
-7.11986e-07
4.83243e-07
-6.83422e-07
3.84008e-06
1.77501e-06
-8.112e-07
9.83449e-06
3.31886e-06
9.56815e-07
2.93099e-05
1.34046e-06
-5.56823e-07
1.3457e-05
9.79428e-09
-1.40844e-07
4.40678e-06
-8.26549e-08
1.70644e-06
-9.89527e-07
2.12712e-07
-8.01471e-07
1.57509e-06
-7.59606e-07
-2.28557e-07
-9.33848e-07
3.32609e-06
8.88215e-07
1.01337e-07
7.98589e-06
-3.93922e-07
6.22054e-07
1.2212e-05
-4.17608e-08
2.00898e-07
7.87463e-06
-7.18684e-07
-2.88465e-07
3.06508e-06
-2.04311e-07
1.24282e-06
-1.36847e-06
5.48493e-07
-1.07004e-06
1.09555e-06
-9.91867e-07
2.6206e-07
-8.81427e-07
2.25772e-06
-1.93792e-07
-2.97071e-07
3.47508e-06
-9.01096e-07
4.91695e-08
4.278e-06
-1.31233e-06
-8.83883e-08
3.27493e-06
-1.37558e-06
-3.71856e-07
1.8492e-06
-4.62088e-07
8.65227e-07
-1.73537e-06
6.41825e-07
8.16827e-07
-1.04061e-06
-1.25806e-06
1.38198e-07
1.14754e-06
-1.13215e-06
-4.54707e-07
1.74721e-06
-7.25367e-07
-1.03187e-06
1.97032e-06
-4.9477e-07
-1.38706e-06
1.42328e-06
-6.16048e-07
-1.63779e-06
9.27726e-07
-7.7184e-07
7.36589e-07
-1.85534e-06
-8.0082e-07
9.61042e-07
1.20798e-06
1.71374e-06
-1.5202e-06
-1.5127e-06
2.29551e-07
1.12122e-06
2.11667e-06
-1.31769e-06
-5.76857e-07
6.92137e-07
2.84818e-06
-9.31755e-07
-1.1686e-06
1.56352e-08
3.20617e-06
-5.89262e-07
-1.60583e-06
1.05498e-07
2.49994e-06
-6.79688e-07
-1.95092e-06
2.8491e-07
1.88026e-06
-8.54807e-07
4.69023e-07
1.62706e-06
-2.27339e-06
-1.01428e-06
8.97636e-07
8.30218e-07
2.03425e-06
-1.42797e-06
3.36943e-07
9.09172e-07
3.0968e-06
-5.07441e-07
4.13463e-07
4.66667e-06
-9.74383e-07
-8.83959e-07
5.71785e-06
-1.45566e-06
-3.97158e-07
4.37684e-06
-1.77868e-06
-1.35232e-07
2.66041e-06
-4.76679e-08
1.77607e-06
-2.14865e-06
7.7975e-07
2.98864e-07
2.58633e-06
-1.22506e-06
2.18688e-07
4.78995e-07
4.35431e-06
-3.35338e-09
5.71529e-07
8.09179e-06
-3.78883e-07
-1.26595e-06
1.29211e-05
-3.71203e-07
-5.10843e-07
8.14596e-06
-1.06402e-06
-3.77903e-07
4.0684e-06
-2.50299e-07
2.15161e-06
-1.72863e-06
9.1829e-07
-5.03602e-07
2.9174e-06
-1.16768e-06
8.09926e-07
-6.71004e-07
5.0986e-06
1.66268e-06
-7.39652e-07
1.02933e-05
2.37236e-06
1.0794e-06
2.62567e-05
1.46568e-06
3.02137e-07
1.3556e-05
-4.20054e-08
1.27457e-07
5.40923e-06
4.60421e-08
2.59692e-06
-1.22872e-06
7.19607e-07
-1.00868e-06
2.54899e-06
-1.18831e-06
1.41444e-07
-1.06031e-06
4.29376e-06
-1.04597e-07
-4.8218e-07
7.97502e-06
-3.35532e-07
8.80706e-07
1.26424e-05
-3.47377e-07
2.5946e-07
7.92947e-06
-1.0578e-06
-7.33444e-08
3.97638e-06
-1.55246e-07
2.11086e-06
-1.72446e-06
7.89205e-07
-1.35994e-06
1.99911e-06
-1.34139e-06
2.16168e-07
-1.25146e-06
3.02218e-06
-5.84832e-07
-7.62852e-07
4.55719e-06
-9.27365e-07
-5.52793e-08
5.55684e-06
-1.37606e-06
-2.41357e-07
4.22454e-06
-1.70129e-06
-4.74907e-07
2.57608e-06
-6.61739e-07
1.75102e-06
-2.08047e-06
8.62601e-07
1.6739e-06
-1.43226e-06
-1.64731e-06
1.48289e-07
2.05722e-06
-1.44673e-06
-5.92586e-07
2.75022e-06
-1.02488e-06
-1.08517e-06
3.08755e-06
-6.79847e-07
-1.48729e-06
2.40851e-06
-8.24365e-07
-1.8382e-06
1.83257e-06
-1.02873e-06
1.59659e-06
-2.17477e-06
-1.18508e-06
1.72354e-06
1.90377e-06
3.23912e-06
-2.6257e-06
-2.52699e-06
6.34378e-07
1.72043e-06
3.6247e-06
-2.13928e-06
-5.09389e-07
1.30256e-06
4.32419e-06
-1.63515e-06
-1.29803e-06
4.67552e-07
4.72812e-06
-1.20078e-06
-1.99417e-06
6.66878e-07
3.98461e-06
-1.45529e-06
-2.65847e-06
9.62477e-07
3.41654e-06
-1.8344e-06
1.32366e-06
3.15676e-06
-3.31049e-06
-2.20117e-06
1.60666e-06
1.246e-06
3.54679e-06
-2.46142e-06
6.32096e-07
1.28577e-06
4.50616e-06
-6.07234e-07
1.06214e-06
6.14659e-06
-1.31416e-06
-3.68654e-07
7.2611e-06
-2.03724e-06
5.28406e-08
5.71412e-06
-2.60071e-06
1.88075e-07
3.99809e-06
4.60851e-07
3.31061e-06
-3.27198e-06
1.51537e-06
4.19953e-07
4.08641e-06
-2.19016e-06
7.69301e-07
5.39173e-07
5.84709e-06
-3.07949e-07
8.0656e-07
9.4248e-06
-1.07014e-06
-6.66007e-07
1.3981e-05
-1.42385e-06
-4.47902e-07
9.00131e-06
-2.10159e-06
-2.88874e-07
5.22168e-06
-1.04947e-07
3.58138e-06
-2.96581e-06
1.57096e-06
-6.40445e-07
4.46596e-06
-2.06067e-06
1.24891e-06
-7.86042e-07
6.74599e-06
1.39579e-06
-1.05373e-06
1.2007e-05
-2.38711e-08
3.4187e-07
2.66691e-05
-1.19304e-08
2.11291e-07
1.29051e-05
-1.18644e-06
-1.13935e-08
6.30639e-06
-1.19245e-07
3.90121e-06
-2.47717e-06
1.46025e-06
-1.45666e-06
4.05361e-06
-2.14857e-06
7.1109e-07
-1.51329e-06
5.77035e-06
-3.62713e-07
-1.24054e-06
9.2359e-06
-1.05723e-06
1.96096e-07
1.34669e-05
-1.41266e-06
-2.78759e-07
8.77503e-06
-2.09488e-06
-4.91823e-07
5.1391e-06
-7.36999e-07
3.55859e-06
-2.92478e-06
1.51855e-06
-2.11127e-06
3.5192e-06
-2.38388e-06
5.48356e-07
-1.94216e-06
4.42189e-06
-6.32085e-07
-1.48826e-06
5.98729e-06
-1.25473e-06
-6.53013e-07
7.02872e-06
-1.93508e-06
-9.23517e-07
5.54974e-06
-2.50536e-06
-1.27246e-06
3.92709e-06
-1.60733e-06
3.29417e-06
-3.17809e-06
1.6723e-06
3.20582e-06
-2.57814e-06
-2.73737e-06
6.10442e-07
3.56429e-06
-2.38756e-06
-4.64891e-07
4.20505e-06
-1.86728e-06
-1.1823e-06
4.58308e-06
-1.43104e-06
-1.85971e-06
3.89406e-06
-1.73158e-06
-2.53897e-06
3.37557e-06
-2.13611e-06
3.13189e-06
-3.20423e-06
-2.4773e-06
2.38552e-06
2.62848e-06
-3.37821e-06
-3.48639e-06
5.08981e-06
1.15388e-06
2.51168e-06
-3.13517e-06
5.47975e-06
-2.64286e-07
2.24097e-06
-2.66175e-06
6.16315e-06
-1.35016e-06
1.50558e-06
-2.27005e-06
6.57842e-06
-2.30527e-06
1.8216e-06
-2.66232e-06
5.78051e-06
-3.13421e-06
2.11586e-06
-3.09365e-06
5.22326e-06
2.37613e-06
-3.85298e-06
-3.45909e-06
4.9585e-06
2.41678e-06
1.72963e-06
-3.38138e-06
5.41021e-06
1.22283e-06
1.8552e-06
6.35654e-06
-4.68757e-07
1.99718e-06
8.08191e-06
-1.70353e-06
7.1006e-07
9.29126e-06
-2.74783e-06
1.14987e-06
7.43018e-06
-3.42488e-06
1.0957e-06
5.69507e-06
1.26799e-06
-4.11088e-06
5.10519e-06
2.43972e-06
5.91462e-07
-3.19785e-06
5.98258e-06
1.59118e-06
6.99493e-07
7.85125e-06
-1.46929e-07
1.17535e-06
1.19849e-05
-2.05483e-06
6.23391e-08
1.65367e-05
-2.89274e-06
1.96403e-07
1.07928e-05
-3.41343e-06
8.71728e-08
6.74928e-06
2.26416e-07
-4.11649e-06
5.32543e-06
2.40116e-06
-7.36253e-07
-3.03966e-06
6.43216e-06
1.86633e-06
-9.39457e-07
8.91974e-06
1.25655e-06
-1.47177e-06
1.52639e-05
-2.02817e-06
-4.97917e-07
3.05143e-05
-2.10779e-06
-4.78745e-07
1.36794e-05
-2.92716e-06
-3.41581e-07
7.55464e-06
-4.27206e-07
-3.90776e-06
5.53543e-06
2.40643e-06
-1.85882e-06
-3.17417e-06
5.9439e-06
1.56053e-06
-2.07006e-06
7.74682e-06
-1.58734e-07
-2.22381e-06
1.17069e-05
-2.03896e-06
-9.80166e-07
1.58096e-05
-2.86463e-06
-1.40758e-06
1.05297e-05
-3.37924e-06
-1.36078e-06
6.67291e-06
-1.46148e-06
-4.09145e-06
5.30509e-06
2.38421e-06
-2.73856e-06
-3.36026e-06
5.37511e-06
1.18725e-06
-2.70234e-06
6.25177e-06
-4.4353e-07
-2.45165e-06
7.84831e-06
-1.61555e-06
-1.74498e-06
8.96528e-06
-2.64588e-06
-2.07284e-06
7.24537e-06
-3.35042e-06
-2.35618e-06
5.62712e-06
-2.53756e-06
-4.06314e-06
5.08292e-06
2.42561e-06
-3.44761e-06
-3.5589e-06
5.04811e-06
1.20386e-06
-3.32172e-06
5.40497e-06
-1.70344e-07
-2.89133e-06
6.01957e-06
-1.23361e-06
-2.50513e-06
6.40654e-06
-2.20645e-06
-2.88655e-06
5.68061e-06
-3.0751e-06
-3.28553e-06
5.17354e-06
-3.84524e-06
-3.56006e-06
4.92452e-06
-2.76883e-06
-4.54591e-07
1.18112e-07
5.28259e-07
-2.90223e-06
-5.6758e-07
1.44891e-07
5.63934e-07
-3.118e-06
-4.48054e-07
1.60369e-07
5.33216e-07
-3.38408e-06
-3.96038e-07
1.66239e-07
5.1454e-07
-3.64373e-06
-3.61093e-07
1.61422e-07
5.07794e-07
-3.90897e-06
-3.36895e-07
1.46579e-07
5.04289e-07
-4.18172e-06
-3.17074e-07
1.23277e-07
5.02713e-07
-3.01682e-07
9.32934e-08
4.99004e-07
-4.42418e-06
-2.78439e-06
-2.07186e-07
1.34911e-07
-3.00743e-06
-4.35896e-07
1.66829e-07
-3.29325e-06
-3.26178e-07
1.85188e-07
-3.59104e-06
-2.67344e-07
1.91932e-07
-3.86659e-06
-2.26567e-07
1.85773e-07
-4.12435e-06
-2.04291e-07
1.68709e-07
-4.36891e-06
-1.95857e-07
1.42408e-07
-1.85115e-07
1.09936e-07
-4.56391e-06
-2.45532e-06
-8.14567e-08
1.46678e-07
-2.81363e-06
-1.53096e-07
1.68727e-07
-3.15364e-06
-1.20819e-07
1.96067e-07
-3.48693e-06
-9.32312e-08
2.13189e-07
-3.79757e-06
-7.40846e-08
2.09062e-07
-4.11737e-06
-5.48977e-08
1.91688e-07
-4.39162e-06
-4.61568e-08
1.64263e-07
-4.31126e-08
1.28409e-07
-4.5793e-06
-2.29704e-06
4.87739e-08
1.74183e-07
-2.64157e-06
1.55075e-07
1.6813e-07
-2.96679e-06
7.03014e-08
1.98764e-07
-3.31554e-06
5.59819e-08
2.19916e-07
-3.60459e-06
5.23022e-08
2.16794e-07
-3.89981e-06
4.88625e-08
1.97971e-07
-4.21004e-06
4.8729e-08
1.71656e-07
5.16783e-08
1.38399e-07
-4.42865e-06
-2.43214e-06
1.55733e-07
1.42671e-07
-2.7743e-06
3.88318e-07
1.66534e-07
-3.09807e-06
2.78595e-07
1.95398e-07
-3.43337e-06
2.33689e-07
2.15426e-07
-3.72387e-06
2.0144e-07
2.11295e-07
-4.03039e-06
1.82336e-07
1.9269e-07
-4.31061e-06
1.81336e-07
1.66047e-07
1.79826e-07
1.30605e-07
-4.47711e-06
-2.69399e-06
3.51966e-07
1.30642e-07
-2.99961e-06
4.90175e-07
1.62319e-07
-3.22529e-06
4.17871e-07
1.8418e-07
-3.49869e-06
3.53854e-07
1.90576e-07
-3.75678e-06
3.2343e-07
1.84113e-07
-4.00269e-06
3.04208e-07
1.66834e-07
-4.2426e-06
2.9059e-07
1.40716e-07
2.8129e-07
1.08425e-07
-4.43657e-06
-2.7124e-06
1.12974e-07
4.27729e-07
-2.88589e-06
1.38881e-07
5.05453e-07
-3.07003e-06
1.53537e-07
5.00841e-07
-3.30978e-06
1.57565e-07
4.75637e-07
-3.56365e-06
1.51021e-07
4.70443e-07
-3.80981e-06
1.34617e-07
4.67659e-07
-4.04181e-06
1.10109e-07
4.66154e-07
7.91433e-08
4.63634e-07
-4.254e-06
-2.35469e-06
-4.78295e-07
4.21265e-07
5.80792e-07
-2.81577e-06
-4.19345e-07
4.59345e-07
5.56934e-07
-3.28754e-06
-3.77918e-07
4.70189e-07
5.31583e-07
-3.7457e-06
-3.47338e-07
4.53864e-07
5.09262e-07
-4.17103e-06
-3.22169e-07
4.12984e-07
4.88612e-07
-4.55035e-06
-3.0001e-07
3.51763e-07
4.68469e-07
-4.8753e-06
-2.7982e-07
2.75895e-07
4.48097e-07
-2.61003e-07
1.91295e-07
4.27288e-07
-5.1424e-06
-2.31911e-06
-3.75494e-07
5.42309e-07
-2.8482e-06
-3.01049e-07
5.67126e-07
-3.37128e-06
-2.49763e-07
5.7076e-07
-3.86575e-06
-2.15313e-07
5.44753e-07
-4.31081e-06
-1.89259e-07
4.90418e-07
-4.69227e-06
-1.68811e-07
4.12895e-07
-5.001e-06
-1.52073e-07
3.19384e-07
-1.37928e-07
2.17094e-07
-5.2345e-06
-2.06965e-06
-2.08463e-07
6.37097e-07
-2.70573e-06
-1.5215e-07
6.38601e-07
-3.3019e-06
-1.1851e-07
6.4392e-07
-3.84205e-06
-9.59238e-08
6.17675e-07
-4.31474e-06
-7.93651e-08
5.57966e-07
-4.70777e-06
-6.63424e-08
4.7097e-07
-5.01444e-06
-5.60841e-08
3.65473e-07
-4.78067e-08
2.49993e-07
-5.23223e-06
-1.8354e-06
9.43165e-08
6.95592e-07
-2.55724e-06
5.99228e-08
6.6143e-07
-3.20002e-06
3.93396e-08
6.68676e-07
-3.76841e-06
3.10172e-08
6.44908e-07
-4.25837e-06
2.83929e-08
5.84816e-07
-4.66157e-06
2.83735e-08
4.95124e-07
-4.97218e-06
2.97664e-08
3.86009e-07
3.18507e-08
2.66571e-07
-5.18891e-06
-2.03756e-06
2.57827e-07
6.32272e-07
-2.66745e-06
2.00936e-07
6.37892e-07
-3.25774e-06
1.63421e-07
6.44747e-07
-3.78922e-06
1.42495e-07
6.19377e-07
-4.25287e-06
1.29373e-07
5.6027e-07
-4.63684e-06
1.21207e-07
4.73685e-07
-4.93511e-06
1.16112e-07
3.68617e-07
1.12989e-07
2.53464e-07
-5.14507e-06
-2.25219e-06
3.63027e-07
5.35341e-07
-2.78056e-06
3.16007e-07
5.61539e-07
-3.29641e-06
2.8754e-07
5.65484e-07
-3.77919e-06
2.66673e-07
5.39161e-07
-4.21033e-06
2.51785e-07
4.85078e-07
-4.57648e-06
2.40033e-07
4.07979e-07
-4.86892e-06
2.30213e-07
3.14909e-07
2.21586e-07
2.1295e-07
-5.08554e-06
-2.27671e-06
4.09402e-07
4.81282e-07
-2.73947e-06
4.44654e-07
4.63843e-07
-3.20503e-06
4.52422e-07
4.45704e-07
-3.65022e-06
4.33112e-07
4.28682e-07
-4.05752e-06
3.8985e-07
4.13834e-07
-4.4144e-06
3.2693e-07
3.99836e-07
-4.71319e-06
2.49939e-07
3.86067e-07
1.64515e-07
3.72336e-07
-4.95102e-06
-2.90195e-06
-4.12356e-07
9.14519e-07
5.47756e-07
-3.61599e-06
-3.15476e-07
9.97316e-07
4.91622e-07
-4.36814e-06
-2.51903e-07
1.03053e-06
4.43804e-07
-5.12609e-06
-2.0502e-07
1.01422e-06
4.02687e-07
-5.86104e-06
-1.69045e-07
9.50315e-07
3.6672e-07
-6.54409e-06
-1.40981e-07
8.40877e-07
3.34972e-07
-7.14386e-06
-1.19028e-07
6.87848e-07
3.06867e-07
-1.01982e-07
4.96313e-07
2.81958e-07
-7.62884e-06
-2.87551e-06
-3.37338e-07
1.19427e-06
-3.65689e-06
-2.20802e-07
1.25392e-06
-4.45717e-06
-1.50761e-07
1.26998e-06
-5.24667e-06
-1.03378e-07
1.23265e-06
-5.99748e-06
-6.94774e-08
1.14167e-06
-6.67948e-06
-4.47902e-08
9.98705e-07
-7.2578e-06
-2.69737e-08
8.05634e-07
-1.47352e-08
5.68534e-07
-7.69651e-06
-2.62341e-06
-2.0871e-07
1.4034e-06
-3.51286e-06
-1.28114e-07
1.43545e-06
-4.38362e-06
-8.22143e-08
1.44617e-06
-5.219e-06
-5.19087e-08
1.40158e-06
-5.9978e-06
-3.03321e-08
1.2976e-06
-6.69283e-06
-1.42862e-08
1.13547e-06
-7.26943e-06
-1.95992e-09
9.17022e-07
5.86033e-09
6.49014e-07
-7.68908e-06
-2.33914e-06
9.80642e-08
1.49966e-06
-3.34144e-06
3.53696e-08
1.50031e-06
-4.27185e-06
5.90662e-09
1.51099e-06
-5.14279e-06
-2.89554e-09
1.46684e-06
-5.94379e-06
-4.92599e-09
1.36039e-06
-6.65159e-06
-4.37727e-09
1.19299e-06
-7.23189e-06
-2.35428e-09
9.66694e-07
1.30419e-10
6.88406e-07
-7.64802e-06
-2.59893e-06
2.05544e-07
1.39935e-06
-3.47564e-06
1.13965e-07
1.43607e-06
-4.33876e-06
6.47427e-08
1.44904e-06
-5.16649e-06
3.75458e-08
1.40665e-06
-5.93835e-06
2.2385e-08
1.3048e-06
-6.628e-06
1.43757e-08
1.14456e-06
-7.20031e-06
1.08895e-08
9.27671e-07
1.04919e-08
6.6064e-07
-7.61785e-06
-2.80611e-06
2.7884e-07
1.18776e-06
-3.58122e-06
2.00277e-07
1.25039e-06
-4.37335e-06
1.53836e-07
1.26855e-06
-5.15328e-06
1.2325e-07
1.23341e-06
-5.89359e-06
1.02803e-07
1.14499e-06
-6.56512e-06
8.92392e-08
1.00467e-06
-7.13391e-06
8.05838e-08
8.14021e-07
7.55653e-08
5.78749e-07
-7.56477e-06
-2.81443e-06
9.00659e-07
4.27327e-07
-3.5314e-06
9.81062e-07
3.80899e-07
-4.28005e-06
1.01199e-06
3.42962e-07
-5.02902e-06
9.9389e-07
3.11481e-07
-5.75029e-06
9.28761e-07
2.85199e-07
-6.41588e-06
8.18585e-07
2.63204e-07
-6.99541e-06
6.65192e-07
2.44889e-07
4.73369e-07
2.29774e-07
-7.45844e-06
-4.45069e-06
-2.16483e-07
1.83027e-06
4.41046e-07
-5.74222e-06
-9.31088e-08
2.03762e-06
3.44373e-07
-7.12035e-06
-2.39811e-09
2.14342e-06
2.67704e-07
-8.49099e-06
5.07809e-08
2.12797e-06
2.06133e-07
-9.75752e-06
9.03763e-08
1.97146e-06
1.55005e-07
-1.08059e-05
1.16702e-07
1.66071e-06
1.11811e-07
-1.15152e-05
1.33327e-07
1.18949e-06
7.4373e-08
1.43254e-07
5.49446e-07
4.10332e-08
-1.17527e-05
-4.49233e-06
-1.68512e-07
2.36699e-06
-5.83811e-06
-4.46637e-08
2.55146e-06
-7.25059e-06
4.16829e-08
2.63849e-06
-8.6593e-06
9.69582e-08
2.5952e-06
-9.95277e-06
1.31621e-07
2.39386e-06
-1.10031e-05
1.51137e-07
2.01457e-06
-1.16691e-05
1.58841e-07
1.44611e-06
1.57119e-07
6.72757e-07
-1.17872e-05
-4.29896e-06
-1.69773e-07
2.73778e-06
-5.73221e-06
-7.73357e-08
2.90143e-06
-7.21003e-06
-1.88052e-08
2.9845e-06
-8.66123e-06
1.53247e-08
2.93441e-06
-9.98391e-06
3.7893e-08
2.71398e-06
-1.10463e-05
5.28364e-08
2.2961e-06
-1.16958e-05
6.08786e-08
1.66452e-06
6.32337e-08
7.96964e-07
-1.17499e-05
-4.01937e-06
-1.65194e-08
2.88874e-06
-5.56743e-06
-5.89205e-08
3.03128e-06
-7.10222e-06
-8.70124e-08
3.11399e-06
-8.58742e-06
-9.68182e-08
3.06417e-06
-9.93284e-06
-9.58241e-08
2.83953e-06
-1.1008e-05
-8.89614e-08
2.40993e-06
-1.16589e-05
-7.84117e-08
1.75688e-06
-6.51871e-08
8.55345e-07
-1.16974e-05
-4.26157e-06
-1.69263e-08
2.7366e-06
-5.68297e-06
-1.06228e-07
2.9048e-06
-7.15203e-06
-1.59864e-07
2.99096e-06
-8.59809e-06
-1.87723e-07
2.94361e-06
-9.9166e-06
-1.98121e-07
2.7256e-06
-1.09747e-05
-1.9602e-07
2.30965e-06
-1.16202e-05
-1.84486e-07
1.67928e-06
-1.65465e-07
8.11777e-07
-1.16711e-05
-4.39878e-06
2.66644e-08
2.36489e-06
-5.74695e-06
-6.00477e-08
2.5524e-06
-7.16193e-06
-1.18499e-07
2.64221e-06
-8.56409e-06
-1.54172e-07
2.60204e-06
-9.84773e-06
-1.73133e-07
2.40366e-06
-1.08859e-05
-1.80026e-07
2.02683e-06
-1.15385e-05
-1.78138e-07
1.46022e-06
-1.70258e-07
6.87519e-07
-1.16426e-05
-4.37388e-06
1.81973e-06
2.77323e-07
-5.67796e-06
2.02528e-06
1.99891e-07
-7.05344e-06
2.12908e-06
1.3996e-07
-8.41663e-06
2.11123e-06
9.17148e-08
-9.66658e-06
1.95228e-06
5.33081e-08
-1.06904e-05
1.63924e-06
2.311e-08
-1.137e-05
1.16616e-06
4.91936e-10
5.25079e-07
-1.94469e-08
-1.15726e-05
-5.20403e-06
1.72155e-07
9.33424e-08
2.91586e-06
-6.76996e-06
3.18358e-07
-5.61196e-08
3.3413e-06
-8.54163e-06
4.4154e-07
-1.86747e-07
3.66026e-06
-1.0496e-05
5.38446e-07
-2.94399e-07
3.83817e-06
-1.26039e-05
6.096e-07
-3.79839e-07
3.84947e-06
-1.48346e-05
6.53181e-07
-4.40224e-07
3.67844e-06
-1.71524e-05
6.61207e-07
-4.73323e-07
3.31945e-06
6.28774e-07
-4.76144e-07
-1.95736e-05
2.81801e-06
-5.46866e-06
1.56729e-07
3.7406e-06
-7.01931e-06
2.80166e-07
4.14051e-06
-8.75996e-06
3.81755e-07
4.43897e-06
-1.06744e-05
4.58112e-07
4.58996e-06
-1.27354e-05
5.09694e-07
4.55468e-06
-1.49084e-05
5.35836e-07
4.30485e-06
-1.7164e-05
5.33938e-07
3.82908e-06
5.00596e-07
-1.95542e-05
3.19111e-06
-5.52622e-06
9.1743e-09
4.29487e-06
-7.09575e-06
8.01069e-08
4.67099e-06
-8.83541e-06
1.42597e-07
4.96322e-06
-1.07406e-05
1.88239e-07
5.10948e-06
-1.2792e-05
2.18814e-07
5.05629e-06
-1.49565e-05
2.3442e-07
4.762e-06
-1.72008e-05
2.34811e-07
4.2079e-06
2.19746e-07
-1.95936e-05
3.47062e-06
-5.42309e-06
-9.52209e-08
4.50757e-06
-7.05503e-06
-1.21387e-07
4.86466e-06
-8.82014e-06
-1.32125e-07
5.15374e-06
-1.0736e-05
-1.31997e-07
5.30029e-06
-1.27933e-05
-1.27587e-07
5.24316e-06
-1.49619e-05
-1.21492e-07
4.93448e-06
-1.72087e-05
-1.1396e-07
4.35235e-06
-1.03411e-07
-1.9609e-05
3.57874e-06
-5.49943e-06
-2.41403e-07
4.29073e-06
-7.07728e-06
-3.0857e-07
4.66969e-06
-8.82493e-06
-3.57268e-07
4.96376e-06
-1.07373e-05
-3.87301e-07
5.11133e-06
-1.27951e-05
-4.02957e-07
5.05876e-06
-1.49653e-05
-4.05798e-07
4.76412e-06
-1.72153e-05
-3.93945e-07
4.2091e-06
-3.63931e-07
-1.9614e-05
3.47089e-06
-5.44061e-06
-2.31319e-07
3.73224e-06
-7.00576e-06
-3.24088e-07
4.13306e-06
-8.75812e-06
-3.9422e-07
4.4316e-06
-1.0682e-05
-4.43459e-07
4.58215e-06
-1.27512e-05
-4.75856e-07
4.54577e-06
-1.49323e-05
-4.92143e-07
4.29418e-06
-1.71969e-05
-4.86168e-07
3.81688e-06
-4.54474e-07
-1.95971e-05
3.17818e-06
-5.22062e-06
6.46211e-08
2.8992e-06
-6.79936e-06
-3.96551e-08
3.31971e-06
-8.57261e-06
-1.24476e-07
3.63264e-06
-1.05185e-05
-1.90184e-07
3.80388e-06
-1.26116e-05
-2.38916e-07
3.80847e-06
-1.48253e-05
-2.70722e-07
3.6315e-06
-1.71299e-05
-2.84442e-07
3.26887e-06
-2.80551e-07
-1.95455e-05
2.76663e-06
-1.76167e-06
2.86154e-07
1.31708e-07
-1.99263e-07
-1.99749e-06
2.8121e-07
1.50671e-07
-1.87653e-07
-2.31612e-06
2.95613e-07
1.58178e-07
-1.17799e-07
-2.65492e-06
2.97749e-07
1.53333e-07
-8.67672e-08
-3.00344e-06
3.05734e-07
1.37108e-07
-6.80515e-08
-3.33918e-06
3.10282e-07
1.11225e-07
-5.41497e-08
-3.65252e-06
3.10338e-07
7.77207e-08
-4.35834e-08
3.05076e-07
3.83017e-08
-3.47144e-08
-3.914e-06
-1.73772e-06
2.6072e-07
1.91816e-07
-1.90768e-06
2.01769e-07
2.08155e-07
-2.14514e-06
2.86127e-07
2.24182e-07
-2.36633e-06
3.07269e-07
2.28774e-07
-2.61133e-06
3.19675e-07
2.19617e-07
-2.84613e-06
3.32808e-07
1.98801e-07
-3.06514e-06
3.36902e-07
1.68481e-07
3.44308e-07
1.3482e-07
-3.35729e-06
-1.70599e-06
1.07936e-07
2.73512e-07
-1.77548e-06
8.25058e-08
2.71312e-07
-1.91431e-06
1.28822e-07
2.94019e-07
-2.06994e-06
1.3999e-07
3.13093e-07
-2.19662e-06
1.55665e-07
3.19138e-07
-2.3876e-06
1.79406e-07
3.1114e-07
-2.55498e-06
1.95614e-07
2.95775e-07
2.20786e-07
2.73922e-07
-2.61793e-06
-1.76158e-06
1.0735e-08
3.4561e-07
-1.88004e-06
-1.14767e-08
3.20949e-07
-2.03051e-06
-6.81217e-08
3.53353e-07
-2.16385e-06
-9.12605e-08
3.90388e-07
-2.26063e-06
-1.22406e-07
4.16004e-07
-2.33605e-06
-1.49262e-07
4.26821e-07
-2.40718e-06
-1.69724e-07
4.25445e-07
-1.94547e-07
4.17742e-07
-2.4181e-06
-1.7108e-06
-1.36748e-07
2.77605e-07
-1.82398e-06
-8.77967e-08
2.76479e-07
-1.97194e-06
-2.03507e-07
3.0105e-07
-2.12716e-06
-2.28712e-07
3.22005e-07
-2.26823e-06
-2.57436e-07
3.29966e-07
-2.39374e-06
-2.92944e-07
3.21161e-07
-2.60159e-06
-3.22829e-07
2.97999e-07
-3.48054e-07
2.70482e-07
-2.74064e-06
-1.81123e-06
-1.70032e-07
1.96973e-07
-1.97949e-06
-1.4197e-07
2.13421e-07
-2.18301e-06
-1.96576e-07
2.26609e-07
-2.45105e-06
-2.2687e-07
2.28474e-07
-2.71866e-06
-2.41667e-07
2.17176e-07
-3.01181e-06
-2.50773e-07
1.9424e-07
-3.30318e-06
-2.57351e-07
1.65269e-07
-2.58733e-07
1.29585e-07
-3.50518e-06
-1.82373e-06
1.39283e-07
-6.74449e-08
-2.08299e-06
1.58521e-07
-4.37601e-08
-2.42518e-06
1.66751e-07
-2.28186e-08
-2.78282e-06
1.62241e-07
-8.71589e-09
-3.14163e-06
1.46618e-07
4.20342e-09
-3.49094e-06
1.21103e-07
1.5633e-08
-3.81234e-06
8.7411e-08
2.40899e-08
4.71675e-08
2.96765e-08
-4.09466e-06
-1.50256e-06
2.57285e-07
4.39566e-07
-1.08762e-07
-2.00196e-06
2.67924e-07
4.67492e-07
-9.11058e-08
-2.50686e-06
2.62308e-07
4.67915e-07
-7.26778e-08
-2.99317e-06
2.55495e-07
4.38089e-07
-5.84911e-08
-3.44328e-06
2.5029e-07
3.81098e-07
-4.7567e-08
-3.84373e-06
2.46154e-07
3.02438e-07
-3.92517e-08
-4.18527e-06
2.42402e-07
2.08622e-07
-3.30898e-08
2.38725e-07
1.05701e-07
-2.86663e-08
-4.46326e-06
-1.45821e-06
2.80483e-07
6.29649e-07
-1.91166e-06
2.8077e-07
6.41267e-07
-2.36895e-06
2.87748e-07
6.45786e-07
-2.80895e-06
2.93287e-07
6.21377e-07
-3.2127e-06
3.0033e-07
5.65471e-07
-3.56712e-06
3.08145e-07
4.82546e-07
-3.85838e-06
3.15791e-07
3.80027e-07
3.22098e-07
2.66109e-07
-4.0799e-06
-1.2464e-06
1.74074e-07
8.43382e-07
-1.66785e-06
1.51062e-07
8.09974e-07
-2.06887e-06
1.46031e-07
8.26077e-07
-2.44375e-06
1.42546e-07
8.26404e-07
-2.77367e-06
1.42045e-07
7.96621e-07
-3.04151e-06
1.43383e-07
7.37458e-07
-3.2422e-06
1.44973e-07
6.55809e-07
1.46584e-07
5.5992e-07
-3.35781e-06
-1.18052e-06
-1.9027e-08
9.75652e-07
-1.58304e-06
-3.59498e-08
9.00787e-07
-1.95909e-06
-5.78204e-08
9.22713e-07
-2.2994e-06
-7.74017e-08
9.41379e-07
-2.58277e-06
-9.83306e-08
9.34644e-07
-2.79435e-06
-1.18772e-07
9.00179e-07
-2.92974e-06
-1.3729e-07
8.42999e-07
-1.54014e-07
7.71081e-07
-2.98347e-06
-1.27644e-06
-1.43291e-07
8.5792e-07
-1.70497e-06
-1.63963e-07
8.17936e-07
-2.11608e-06
-1.90587e-07
8.30429e-07
-2.49858e-06
-2.12356e-07
8.26928e-07
-2.8346e-06
-2.34327e-07
7.92466e-07
-3.10611e-06
-2.56306e-07
7.27636e-07
-3.30836e-06
-2.76789e-07
6.39593e-07
-2.95149e-07
5.37683e-07
-3.44084e-06
-1.54018e-06
-1.37276e-07
6.41856e-07
-1.9949e-06
-1.57553e-07
6.50462e-07
-2.4568e-06
-1.63233e-07
6.51707e-07
-2.90524e-06
-1.6673e-07
6.23181e-07
-3.32585e-06
-1.7086e-07
5.62925e-07
-3.69622e-06
-1.7565e-07
4.75473e-07
-4.00609e-06
-1.80969e-07
3.68691e-07
-1.86059e-07
2.50927e-07
-4.24368e-06
-1.58818e-06
4.54253e-07
-1.04852e-08
-2.07987e-06
4.84354e-07
2.19624e-09
-2.58421e-06
4.86584e-07
1.38149e-08
-3.07517e-06
4.58071e-07
2.24174e-08
-3.53468e-06
4.01922e-07
2.83905e-08
-3.94761e-06
3.23716e-07
3.14838e-08
-4.30503e-06
2.30113e-07
3.1738e-08
1.27417e-07
2.94425e-08
-4.60155e-06
-2.13456e-06
3.17509e-07
9.28233e-07
-1.03812e-07
-2.89546e-06
3.1516e-07
1.00125e-06
-8.79351e-08
-3.67854e-06
3.02089e-07
1.02517e-06
-7.62241e-08
-4.45614e-06
2.87295e-07
9.96227e-07
-6.77736e-08
-5.20191e-06
2.72155e-07
9.164e-07
-6.16518e-08
-5.88808e-06
2.57165e-07
7.88733e-07
-5.72634e-08
-6.48452e-06
2.4265e-07
6.16449e-07
-5.4025e-08
2.28904e-07
4.05995e-07
-5.13859e-08
-6.96233e-06
-2.04749e-06
3.70354e-07
1.28298e-06
-2.77003e-06
3.45813e-07
1.3332e-06
-3.50799e-06
3.29006e-07
1.35685e-06
-4.24312e-06
3.15727e-07
1.32811e-06
-4.95073e-06
3.03117e-07
1.24211e-06
-5.60078e-06
2.90139e-07
1.09962e-06
-6.15776e-06
2.76905e-07
9.02738e-07
2.63818e-07
6.58137e-07
-6.58473e-06
-1.80789e-06
2.13545e-07
1.62003e-06
-2.4494e-06
1.7393e-07
1.62342e-06
-3.1086e-06
1.51636e-07
1.66265e-06
-3.76694e-06
1.36812e-07
1.66364e-06
-4.39941e-06
1.24648e-07
1.60751e-06
-4.97524e-06
1.13369e-07
1.49e-06
-5.45598e-06
1.02564e-07
1.31085e-06
9.24066e-08
1.07628e-06
-5.80097e-06
-1.68736e-06
-9.17258e-08
1.80145e-06
-2.26509e-06
-1.04023e-07
1.75743e-06
-2.87559e-06
-1.18658e-07
1.80352e-06
-3.48915e-06
-1.34437e-07
1.82614e-06
-4.07741e-06
-1.49695e-07
1.79721e-06
-4.61154e-06
-1.62421e-07
1.71005e-06
-5.05476e-06
-1.71679e-07
1.56043e-06
-1.7741e-07
1.35254e-06
-5.36644e-06
-1.83686e-06
-2.50758e-07
1.62948e-06
-2.48552e-06
-2.60044e-07
1.62263e-06
-3.15693e-06
-2.70755e-07
1.65394e-06
-3.82965e-06
-2.80702e-07
1.64588e-06
-4.47793e-06
-2.88252e-07
1.57926e-06
-5.07077e-06
-2.92251e-07
1.45027e-06
-5.56939e-06
-2.9262e-07
1.25913e-06
-2.89768e-07
1.01259e-06
-5.93196e-06
-2.12253e-06
-2.06474e-07
1.29229e-06
-2.84495e-06
-2.234e-07
1.33626e-06
-3.58962e-06
-2.27569e-07
1.35319e-06
-4.33508e-06
-2.28277e-07
1.31622e-06
-5.05408e-06
-2.27186e-07
1.22086e-06
-5.7145e-06
-2.24916e-07
1.06855e-06
-6.27889e-06
-2.21735e-07
8.62179e-07
-2.17886e-07
6.09175e-07
-6.70903e-06
-2.2027e-06
9.4411e-07
-1.37146e-08
-2.95185e-06
1.01923e-06
-9.07545e-09
-3.72987e-06
1.04466e-06
-7.62162e-09
-4.50778e-06
1.01644e-06
-8.7194e-09
-5.25797e-06
9.36749e-07
-1.18065e-08
-5.95161e-06
8.08862e-07
-1.64186e-08
-6.55746e-06
6.36211e-07
-2.19779e-08
4.25462e-07
-2.7874e-08
-7.04552e-06
-3.82474e-06
4.06191e-07
1.8493e-06
-8.0571e-08
-5.18884e-06
3.86439e-07
2.05012e-06
-7.10709e-08
-6.60783e-06
3.58423e-07
2.15096e-06
-6.51875e-08
-8.00056e-06
3.22388e-07
2.12857e-06
-6.20045e-08
-9.26748e-06
2.81332e-07
1.96222e-06
-6.02465e-08
-1.02949e-05
2.37794e-07
1.63768e-06
-5.93044e-08
-1.09611e-05
1.93613e-07
1.14784e-06
-5.88458e-08
1.502e-07
4.85968e-07
-5.87094e-08
-1.11327e-05
-3.63075e-06
4.79144e-07
2.45682e-06
-4.97367e-06
4.24476e-07
2.63813e-06
-6.37834e-06
3.81129e-07
2.73882e-06
-7.77612e-06
3.36191e-07
2.71208e-06
-9.06298e-06
2.86489e-07
2.52374e-06
-1.01086e-05
2.33264e-07
2.14972e-06
-1.07662e-05
1.78295e-07
1.57554e-06
1.22689e-07
7.81887e-07
-1.08624e-05
-3.25146e-06
2.54619e-07
2.94779e-06
-4.49367e-06
1.95957e-07
3.09416e-06
-5.82355e-06
1.59746e-07
3.21387e-06
-7.17136e-06
1.30813e-07
3.21681e-06
-8.43096e-06
1.03398e-07
3.05014e-06
-9.46244e-06
7.70578e-08
2.67759e-06
-1.01009e-05
5.14362e-08
2.07612e-06
2.69084e-08
1.21223e-06
-1.01412e-05
-3.03322e-06
-1.50305e-07
3.17813e-06
-4.203e-06
-1.56891e-07
3.28232e-06
-5.48594e-06
-1.651e-07
3.41126e-06
-6.79841e-06
-1.69185e-07
3.43859e-06
-8.03485e-06
-1.66039e-07
3.30304e-06
-9.0524e-06
-1.55721e-07
2.96032e-06
-9.67978e-06
-1.393e-07
2.37849e-06
-1.18706e-07
1.51177e-06
-9.69344e-06
-3.29578e-06
-3.63989e-07
2.94905e-06
-4.55466e-06
-3.5736e-07
3.08305e-06
-5.90658e-06
-3.51515e-07
3.19222e-06
-7.27708e-06
-3.36238e-07
3.18341e-06
-8.55837e-06
-3.09889e-07
3.00434e-06
-9.60907e-06
-2.74552e-07
2.61972e-06
-1.02635e-05
-2.32728e-07
2.00693e-06
-1.86195e-07
1.13429e-06
-1.03178e-05
-3.7013e-06
-2.90074e-07
2.45845e-06
-5.05149e-06
-3.0231e-07
2.63136e-06
-6.47034e-06
-3.02805e-07
2.72329e-06
-7.88467e-06
-2.92563e-07
2.68686e-06