/*--------------------------------*- C++ -*----------------------------------*\
| =========                 |                                                 |
| \\      /  F ield         | OpenFOAM: The Open Source CFD Toolbox           |
|  \\    /   O peration     | Version:  plus.master.MPPICInterFoam            |
|   \\  /    A nd           | Web:      www.OpenFOAM.com                      |
|    \\/     M anipulation  |                                                 |
\*---------------------------------------------------------------------------*/
FoamFile
{
    version     2.0;
    format      ascii;
    class       volScalarField;
    location    "1.8";
    object      k;
}
// * * * * * * * * * * * * * * * * * * * * * * * * * * * * * * * * * * * * * //

dimensions      [0 2 -2 0 0 0 0];

internalField   nonuniform List<scalar> 
11821
(
0.000444959
0.000450542
0.000436112
0.00044492
0.000436112
0.000420596
0.000420505
0.000436002
0.000444921
0.000447845
0.000444934
0.000436041
0.00042053
0.000436004
0.000450493
0.000459033
0.000461845
0.000459043
0.000450532
0.000436042
0.000444924
0.000459035
0.000467351
0.00047009
0.000467355
0.000459064
0.000444952
0.000447851
0.000461848
0.000470091
0.000472803
0.000470089
0.000461863
0.000447851
0.000444941
0.000459047
0.000467358
0.000470091
0.000467348
0.000459042
0.000444926
0.000436047
0.000450536
0.000459066
0.000461865
0.000459042
0.00045052
0.000436021
0.000420536
0.000436043
0.000444952
0.000447853
0.000444925
0.00043602
0.000420489
0.000420509
0.000436001
0.000444905
0.000447814
0.00044489
0.000435984
0.000420462
0.000436003
0.000450486
0.00045901
0.000461809
0.000458995
0.000450472
0.00043597
0.000444909
0.000459014
0.000467317
0.000470045
0.000467301
0.000458999
0.000444879
0.000447823
0.000461816
0.000470048
0.000472752
0.00047003
0.000461797
0.000447784
0.000444903
0.000459006
0.000467308
0.000470033
0.000467285
0.000458979
0.000444852
0.000436
0.000450487
0.000459009
0.000461803
0.000458981
0.00045045
0.000435936
0.000420482
0.000435988
0.00044489
0.000447791
0.000444856
0.000435937
0.000420401
0.000420508
0.000435998
0.000444889
0.000447788
0.000444852
0.000435933
0.000420397
0.000435999
0.000450478
0.000458991
0.000461781
0.000458958
0.000450424
0.000435911
0.000444894
0.000458995
0.000467289
0.000470011
0.00046726
0.00045895
0.00044482
0.000447797
0.000461789
0.000470015
0.000472714
0.000469986
0.000461747
0.000447727
0.000444865
0.000458969
0.000467267
0.00046999
0.000467238
0.000458927
0.000444794
0.00043595
0.00045044
0.00045896
0.000461753
0.000458929
0.000450394
0.000435875
0.000420419
0.00043593
0.000444832
0.000447734
0.000444798
0.000435876
0.000420335
0.000420449
0.00043594
0.000444833
0.000447734
0.000444797
0.000435874
0.000420331
0.000435941
0.000450419
0.000458935
0.000461729
0.000458907
0.000450372
0.000435855
0.000444835
0.000458937
0.000467236
0.000469963
0.000467213
0.000458903
0.000444771
0.000447738
0.000461733
0.000469964
0.00047267
0.000469945
0.000461706
0.000447685
0.000444803
0.000458912
0.000467217
0.000469947
0.000467199
0.000458889
0.000444756
0.000435881
0.000450378
0.000458907
0.000461708
0.00045889
0.000450357
0.000435839
0.000420342
0.000435864
0.000444776
0.000447688
0.000444757
0.000435839
0.000420298
0.000420374
0.000435875
0.000444777
0.000447688
0.000444757
0.000435838
0.000420294
0.000435875
0.000450357
0.000458883
0.000461687
0.000458872
0.000450341
0.000435825
0.000444775
0.000458882
0.000467191
0.000469928
0.000467186
0.00045888
0.00044475
0.000447684
0.000461685
0.000469927
0.000472643
0.000469926
0.000461691
0.000447673
0.000444752
0.000458869
0.000467184
0.000469924
0.000467185
0.00045888
0.00044475
0.00043583
0.000450336
0.000458876
0.000461689
0.000458879
0.000450352
0.000435838
0.000420287
0.000435821
0.000444746
0.000447669
0.000444748
0.000435836
0.000420301
0.000420351
0.000435864
0.000444771
0.000447689
0.000444765
0.000435851
0.000420309
0.000435863
0.000450353
0.000458885
0.000461696
0.000458887
0.00045036
0.000435845
0.000444768
0.000458882
0.000467197
0.00046994
0.000467203
0.0004589
0.00044477
0.000447682
0.000461691
0.000469938
0.00047266
0.000469947
0.000461715
0.000447698
0.000444755
0.000458879
0.000467198
0.000469945
0.000467209
0.000458909
0.00044478
0.000435837
0.00045035
0.000458893
0.000461711
0.000458907
0.000450384
0.000435873
0.000420295
0.000435836
0.000444763
0.000447692
0.000444777
0.000435871
0.000420341
0.000420395
0.000435916
0.00044482
0.000447739
0.000444818
0.000435909
0.000420373
0.000435915
0.000450413
0.000458941
0.000461753
0.000458945
0.00045042
0.000435908
0.000444818
0.00045894
0.000467251
0.000469994
0.000467257
0.000458955
0.000444826
0.000447734
0.000461749
0.000469992
0.000472714
0.00047
0.000461769
0.000447751
0.000444811
0.00045894
0.000467255
0.000469999
0.000467264
0.000458963
0.000444834
0.0004359
0.000450415
0.000458952
0.000461767
0.000458962
0.00045044
0.00043593
0.000420365
0.000435904
0.000444823
0.000447749
0.000444833
0.000435929
0.000420401
0.000420457
0.000435981
0.00044488
0.000447797
0.000444877
0.000435972
0.000420444
0.000435981
0.000450483
0.000459006
0.000461814
0.000459006
0.000450484
0.000435976
0.000444879
0.000459005
0.00046731
0.000470049
0.000467312
0.000459011
0.000444883
0.000447794
0.000461813
0.000470049
0.000472766
0.000470052
0.00046182
0.000447802
0.000444875
0.000459005
0.000467312
0.000470052
0.000467314
0.000459012
0.000444883
0.00043597
0.000450484
0.000459011
0.000461821
0.000459013
0.000450489
0.000435979
0.000420443
0.000435978
0.000444885
0.000447805
0.000444885
0.00043598
0.000420451
0.000420474
0.000436002
0.000444898
0.000447814
0.000444895
0.000435993
0.000420471
0.000436
0.000450507
0.000459026
0.000461833
0.000459025
0.000450505
0.000436001
0.000444896
0.000459025
0.000467325
0.000470063
0.000467326
0.000459026
0.000444901
0.000447811
0.000461832
0.000470063
0.000472778
0.000470063
0.000461832
0.000447817
0.000444893
0.000459025
0.000467326
0.000470063
0.000467325
0.000459023
0.000444896
0.000435992
0.000450505
0.000459026
0.000461833
0.000459024
0.0004505
0.000435991
0.000420471
0.000436002
0.000444903
0.000447819
0.000444898
0.000435992
0.000420465
0.000420426
0.000435957
0.000444855
0.000447772
0.000444855
0.000435953
0.000420434
0.000435956
0.000450465
0.000458984
0.000461792
0.000458985
0.000450465
0.000435962
0.000444853
0.000458983
0.000467282
0.00047002
0.000467284
0.000458984
0.000444862
0.000447771
0.000461791
0.00047002
0.000472735
0.000470022
0.000461792
0.000447779
0.000444853
0.000458985
0.000467284
0.000470022
0.000467284
0.000458984
0.000444859
0.000435953
0.000450465
0.000458984
0.000461792
0.000458984
0.000450461
0.000435953
0.000420433
0.000435962
0.000444862
0.000447779
0.000444859
0.000435954
0.00042043
0.000420348
0.000435882
0.000444783
0.000447704
0.000444787
0.000435884
0.000420363
0.000435882
0.000450392
0.000458913
0.000461723
0.000458917
0.000450396
0.000435891
0.000444785
0.000458913
0.000467212
0.000469953
0.000467217
0.000458917
0.000444794
0.000447706
0.000461725
0.000469954
0.000472671
0.000469958
0.000461728
0.000447715
0.00044479
0.000458919
0.000467219
0.000469959
0.000467223
0.000458923
0.000444798
0.000435887
0.000450398
0.000458919
0.00046173
0.000458923
0.0004504
0.000435893
0.000420367
0.000435894
0.000444796
0.000447716
0.000444798
0.000435894
0.000420372
0.000420303
0.00043584
0.000444746
0.000447671
0.000444754
0.000435847
0.000420321
0.000435842
0.000450353
0.000458877
0.00046169
0.000458884
0.00045036
0.000435851
0.00044475
0.000458878
0.000467179
0.000469922
0.000467187
0.000458885
0.000444758
0.000447674
0.000461692
0.000469923
0.000472643
0.000469931
0.0004617
0.000447685
0.000444758
0.000458887
0.000467189
0.000469932
0.000467198
0.000458897
0.00044477
0.00043585
0.000450363
0.000458887
0.000461702
0.000458897
0.000450375
0.000435867
0.000420325
0.000435854
0.000444761
0.000447686
0.000444771
0.000435868
0.000420346
0.000420324
0.000435867
0.000444777
0.000447704
0.000444787
0.000435875
0.000420343
0.000435869
0.000450385
0.000458911
0.000461726
0.000458919
0.000450391
0.000435877
0.000444779
0.000458911
0.000467215
0.000469959
0.000467223
0.000458919
0.000444788
0.000447705
0.000461726
0.000469959
0.00047268
0.000469968
0.000461736
0.000447717
0.000444786
0.000458919
0.000467223
0.000469968
0.000467234
0.000458932
0.000444804
0.000435873
0.00045039
0.000458918
0.000461735
0.000458932
0.000450409
0.000435901
0.000420341
0.000435876
0.000444788
0.000447716
0.000444803
0.0004359
0.000420379
0.000420391
0.000435938
0.000444849
0.000447775
0.000444857
0.000435944
0.00042041
0.000435939
0.000450458
0.000458984
0.000461799
0.000458992
0.000450463
0.000435946
0.00044485
0.000458984
0.000467288
0.000470031
0.000467295
0.000458989
0.000444858
0.000447774
0.000461798
0.000470031
0.000472751
0.000470039
0.000461805
0.000447786
0.000444854
0.000458989
0.000467293
0.000470038
0.000467303
0.000459001
0.000444873
0.000435939
0.000450459
0.000458987
0.000461803
0.000459
0.000450478
0.000435969
0.000420404
0.000435942
0.000444854
0.000447783
0.00044487
0.000435967
0.000420446
0.000420475
0.000436019
0.000444925
0.000447849
0.000444932
0.000436024
0.000420497
0.00043602
0.000450537
0.000459059
0.000461871
0.000459065
0.00045054
0.00043603
0.000444926
0.000459059
0.000467359
0.000470101
0.000467365
0.000459063
0.000444936
0.000447849
0.000461871
0.0004701
0.000472819
0.000470106
0.000461875
0.00044786
0.00044493
0.000459063
0.000467363
0.000470105
0.00046737
0.00045907
0.000444945
0.00043602
0.000450537
0.00045906
0.000461873
0.000459069
0.000450548
0.000436044
0.000420492
0.000436025
0.000444931
0.000447856
0.000444943
0.000436042
0.000420525
0.000420569
0.000436102
0.000445001
0.000447922
0.000445005
0.000436104
0.000420588
0.000436104
0.000450612
0.000459128
0.000461937
0.000459132
0.000450612
0.000436111
0.000445003
0.000459128
0.000467422
0.000470161
0.000467426
0.000459128
0.000445008
0.000447923
0.000461938
0.000470161
0.000472876
0.000470164
0.000461937
0.000447928
0.000445006
0.000459131
0.000467425
0.000470163
0.000467428
0.000459131
0.000445013
0.000436104
0.000450611
0.000459126
0.000461935
0.00045913
0.000450612
0.000436114
0.000420586
0.000436108
0.000445006
0.000447926
0.000445011
0.000436113
0.000420603
0.000195074
0.000118617
0.000377848
0.00034585
0.000307328
0.000260386
0.000199897
0.000117872
0.000429101
0.000407655
0.000381171
0.000349025
0.00031022
0.000262815
0.000201602
0.000117693
0.000425965
0.000404338
0.000377829
0.000345799
0.000307269
0.000260328
0.000199851
0.000117831
0.000416466
0.00039453
0.000368069
0.00033643
0.000298718
0.000253141
0.000194818
0.000118516
0.000400119
0.00037855
0.00035246
0.000321556
0.000285163
0.000241676
0.000186684
0.0001202
0.000400071
0.000378534
0.000352476
0.000321598
0.000285224
0.000241751
0.000186763
0.000120272
0.000416408
0.000394513
0.000368093
0.000336494
0.000298818
0.000253255
0.000194926
0.000118584
0.000425909
0.000404297
0.000377811
0.000345806
0.000307293
0.000260365
0.000199899
0.000117885
0.00042906
0.000407591
0.000381115
0.000348983
0.000310193
0.000262799
0.000201596
0.000117704
0.000425879
0.000404254
0.000377761
0.000345747
0.000307231
0.000260302
0.000199836
0.000117838
0.000416363
0.000394441
0.000367996
0.00033637
0.000298671
0.000253105
0.000194793
0.000118518
0.000400011
0.000378457
0.000352384
0.000321493
0.000285111
0.000241635
0.000186655
0.000120202
0.000399999
0.000378462
0.000352405
0.000321529
0.000285158
0.00024169
0.000186711
0.000120257
0.00041633
0.000394433
0.000368013
0.00033641
0.000298731
0.000253177
0.000194864
0.000118573
0.000425831
0.000404221
0.000377742
0.000345743
0.000307241
0.000260324
0.000199866
0.000117879
0.000428984
0.000407512
0.000381041
0.000348917
0.000310136
0.00026275
0.000201559
0.000117701
0.000425795
0.000404173
0.000377687
0.000345681
0.000307173
0.000260253
0.000199799
0.000117836
0.000416275
0.000394358
0.000367921
0.000336303
0.000298612
0.000253055
0.000194754
0.000118518
0.000399921
0.000378372
0.000352306
0.000321424
0.000285051
0.000241584
0.000186615
0.000120206
0.000399932
0.000378393
0.000352338
0.000321466
0.0002851
0.000241637
0.000186667
0.000120256
0.000416265
0.000394363
0.000367942
0.00033634
0.000298664
0.000253115
0.000194815
0.000118573
0.000425767
0.000404153
0.000377677
0.000345681
0.000307183
0.000260272
0.000199824
0.000117872
0.000428922
0.000407449
0.000380979
0.000348858
0.000310081
0.000262699
0.000201517
0.000117695
0.000425733
0.000404111
0.000377629
0.000345627
0.000307124
0.000260209
0.000199763
0.000117835
0.000416212
0.000394295
0.000367863
0.000336252
0.000298567
0.000253017
0.000194725
0.000118524
0.000399856
0.000378308
0.000352248
0.000321375
0.000285009
0.00024155
0.00018659
0.000120221
0.000399869
0.000378332
0.000352285
0.000321422
0.000285063
0.000241606
0.000186644
0.000120273
0.000416207
0.000394304
0.000367888
0.000336292
0.000298619
0.000253076
0.000194785
0.000118582
0.000425717
0.000404104
0.000377631
0.000345638
0.000307143
0.000260234
0.000199791
0.000117871
0.00042888
0.000407408
0.000380941
0.000348823
0.000310047
0.000262668
0.00020149
0.000117696
0.000425696
0.000404077
0.000377599
0.000345602
0.000307102
0.000260191
0.000199749
0.000117844
0.000416178
0.000394264
0.000367839
0.000336234
0.000298556
0.00025301
0.000194723
0.000118547
0.000399825
0.00037828
0.000352227
0.000321362
0.000285004
0.00024155
0.000186595
0.000120255
0.000399835
0.000378299
0.000352257
0.0003214
0.000285046
0.000241592
0.000186633
0.000120297
0.000416178
0.000394274
0.00036786
0.000336265
0.000298593
0.000253051
0.000194763
0.000118592
0.000425696
0.000404083
0.00037761
0.000345617
0.00030712
0.000260209
0.000199767
0.000117874
0.000428869
0.000407397
0.00038093
0.000348812
0.000310035
0.000262654
0.000201476
0.000117702
0.000425693
0.000404076
0.0003776
0.000345604
0.000307106
0.000260195
0.000199753
0.000117864
0.000416183
0.000394271
0.00036785
0.00033625
0.000298575
0.000253031
0.000194743
0.00011858
0.000399837
0.000378293
0.000352245
0.000321385
0.000285031
0.000241578
0.000186622
0.0001203
0.000399851
0.00037831
0.000352264
0.000321402
0.000285043
0.000241586
0.000186625
0.000120316
0.000416196
0.000394286
0.000367864
0.000336262
0.000298583
0.000253035
0.000194743
0.000118594
0.000425715
0.000404096
0.000377616
0.000345615
0.000307111
0.000260193
0.000199746
0.000117869
0.000428893
0.000407416
0.000380943
0.000348818
0.000310035
0.000262648
0.000201466
0.000117703
0.000425724
0.000404104
0.000377623
0.000345623
0.000307121
0.000260205
0.000199759
0.000117877
0.000416221
0.000394308
0.000367884
0.000336281
0.000298603
0.000253056
0.000194764
0.000118608
0.000399883
0.000378337
0.000352286
0.000321423
0.000285066
0.00024161
0.000186649
0.000120338
0.000399915
0.000378365
0.000352305
0.000321431
0.000285062
0.000241597
0.00018663
0.000120328
0.000416256
0.000394337
0.000367904
0.000336291
0.000298603
0.000253046
0.000194748
0.000118598
0.000425768
0.000404141
0.000377651
0.000345641
0.000307128
0.000260204
0.00019975
0.000117867
0.000428943
0.000407459
0.000380977
0.000348843
0.000310051
0.000262658
0.000201468
0.0001177
0.000425776
0.000404148
0.000377658
0.000345649
0.000307137
0.000260214
0.000199762
0.000117878
0.000416277
0.000394357
0.000367923
0.000336309
0.000298621
0.000253066
0.000194768
0.000118615
0.000399943
0.00037839
0.000352327
0.000321453
0.000285085
0.000241621
0.000186653
0.000120353
0.000399988
0.000378431
0.000352361
0.000321476
0.000285099
0.000241627
0.000186655
0.000120343
0.000416325
0.000394401
0.000367961
0.00033634
0.000298648
0.000253088
0.000194786
0.000118615
0.000425826
0.000404195
0.0003777
0.000345686
0.000307171
0.000260245
0.000199788
0.000117882
0.000428994
0.000407506
0.000381018
0.000348879
0.000310084
0.000262688
0.000201494
0.000117707
0.000425824
0.00040419
0.000377691
0.000345674
0.000307156
0.000260228
0.00019977
0.000117875
0.000416324
0.000394397
0.00036795
0.000336325
0.000298628
0.000253064
0.000194761
0.000118607
0.000399991
0.000378428
0.000352352
0.000321463
0.000285084
0.00024161
0.000186638
0.000120344
0.00040002
0.000378462
0.000352387
0.0003215
0.000285122
0.000241651
0.000186678
0.000120355
0.000416354
0.000394431
0.000367988
0.000336369
0.000298678
0.000253121
0.000194819
0.000118634
0.000425848
0.000404218
0.000377724
0.000345712
0.000307202
0.00026028
0.000199824
0.000117902
0.000429012
0.000407524
0.000381037
0.0003489
0.000310108
0.000262713
0.000201521
0.000117719
0.000425839
0.000404204
0.000377704
0.000345685
0.000307168
0.00026024
0.000199782
0.000117876
0.000416338
0.000394408
0.000367957
0.000336328
0.000298628
0.000253063
0.00019476
0.000118599
0.000400006
0.000378439
0.000352356
0.000321462
0.000285078
0.000241602
0.00018663
0.000120332
0.000399988
0.000378433
0.000352362
0.000321481
0.00028511
0.000241645
0.000186678
0.000120355
0.000416319
0.000394399
0.00036796
0.000336345
0.00029866
0.000253109
0.000194813
0.000118633
0.000425812
0.000404185
0.000377695
0.000345689
0.000307183
0.000260265
0.000199814
0.000117899
0.000428977
0.000407493
0.00038101
0.000348878
0.00031009
0.0002627
0.000201512
0.000117715
0.000425806
0.000404174
0.000377678
0.000345664
0.000307152
0.000260229
0.000199776
0.000117872
0.000416306
0.000394379
0.000367932
0.000336308
0.000298614
0.000253056
0.000194758
0.000118595
0.000399976
0.000378412
0.000352334
0.000321445
0.000285068
0.000241599
0.000186633
0.000120328
0.00039992
0.000378371
0.000352308
0.000321436
0.000285075
0.000241619
0.000186661
0.000120352
0.000416249
0.000394331
0.000367896
0.000336287
0.000298606
0.000253058
0.000194769
0.000118612
0.000425745
0.00040412
0.000377632
0.000345628
0.000307123
0.000260206
0.000199761
0.00011787
0.000428915
0.000407433
0.000380953
0.000348823
0.000310037
0.00026265
0.000201467
0.00011769
0.000425747
0.000404119
0.000377628
0.00034562
0.000307113
0.000260194
0.000199748
0.000117857
0.00041625
0.000394328
0.000367889
0.000336274
0.000298589
0.000253038
0.000194748
0.000118591
0.000399924
0.000378366
0.000352297
0.00032142
0.000285054
0.000241595
0.000186637
0.000120334
0.000399878
0.000378329
0.00035227
0.000321403
0.000285045
0.000241592
0.000186639
0.000120349
0.000416206
0.000394286
0.000367852
0.000336242
0.00029856
0.000253011
0.000194725
0.00011859
0.000425707
0.00040408
0.000377591
0.000345585
0.000307077
0.000260158
0.000199715
0.000117842
0.000428884
0.000407401
0.000380921
0.000348791
0.000310003
0.000262615
0.000201435
0.00011767
0.00042572
0.000404094
0.000377606
0.000345602
0.000307096
0.00026018
0.000199737
0.000117851
0.000416226
0.000394308
0.000367875
0.000336267
0.000298588
0.000253042
0.000194755
0.0001186
0.000399903
0.000378351
0.000352289
0.00032142
0.000285062
0.000241609
0.000186655
0.000120352
0.000399894
0.000378339
0.000352275
0.000321402
0.000285037
0.000241578
0.000186621
0.000120344
0.000416227
0.000394301
0.00036786
0.000336244
0.000298556
0.000253001
0.00019471
0.000118582
0.000425733
0.000404101
0.000377607
0.000345595
0.000307082
0.000260158
0.000199711
0.000117839
0.000428913
0.000407427
0.000380945
0.000348811
0.00031002
0.000262628
0.000201445
0.000117674
0.000425752
0.000404125
0.000377636
0.00034563
0.000307123
0.000260205
0.000199759
0.000117864
0.000416259
0.000394341
0.000367908
0.000336301
0.000298621
0.000253073
0.000194782
0.00011862
0.000399936
0.000378384
0.000352322
0.000321453
0.000285094
0.000241639
0.000186682
0.000120376
0.000399957
0.000378396
0.000352323
0.00032144
0.000285066
0.000241596
0.00018663
0.000120347
0.000416294
0.000394363
0.000367917
0.000336293
0.000298596
0.000253033
0.000194734
0.000118593
0.000425801
0.000404166
0.000377667
0.00034565
0.00030713
0.0002602
0.000199746
0.000117856
0.000428981
0.000407492
0.000381006
0.000348867
0.000310072
0.000262675
0.000201484
0.000117695
0.00042582
0.000404189
0.000377696
0.000345686
0.000307174
0.000260249
0.000199795
0.000117885
0.000416326
0.000394404
0.000367967
0.000336353
0.000298667
0.000253111
0.000194812
0.000118639
0.000400001
0.000378445
0.000352377
0.000321501
0.000285134
0.000241671
0.000186703
0.000120392
0.000400048
0.000378487
0.000352411
0.000321524
0.000285146
0.000241672
0.000186698
0.000120389
0.000416382
0.000394453
0.000368005
0.00033638
0.000298682
0.000253116
0.000194811
0.00011864
0.000425883
0.000404249
0.000377751
0.000345734
0.000307215
0.000260283
0.000199824
0.000117905
0.000429058
0.000407571
0.000381085
0.000348947
0.000310152
0.000262753
0.000201557
0.000117743
0.000425896
0.000404267
0.000377774
0.000345763
0.000307249
0.000260321
0.000199861
0.00011793
0.000416405
0.000394484
0.000368045
0.000336429
0.000298739
0.000253178
0.000194872
0.00011868
0.000400083
0.000378527
0.000352457
0.000321577
0.000285205
0.000241736
0.00018676
0.000120431
0.000400148
0.000378595
0.000352526
0.000321646
0.000285273
0.000241803
0.000186825
0.000120492
0.000416473
0.000394552
0.000368112
0.000336494
0.000298802
0.000253241
0.000194931
0.000118738
0.000425965
0.000404339
0.000377848
0.000345837
0.000307324
0.000260395
0.000199932
0.000117996
0.000429135
0.000407655
0.000381175
0.000349043
0.000310251
0.000262855
0.000201655
0.000117829
0.000425972
0.000404349
0.000377861
0.000345854
0.000307344
0.000260418
0.000199954
0.000118013
0.000416483
0.000394569
0.000368135
0.000336523
0.000298837
0.000253278
0.000194968
0.000118766
0.000400168
0.000378618
0.000352553
0.000321678
0.000285311
0.000241844
0.000186866
0.000120525
0.000400051
0.000378506
0.000352435
0.000321544
0.000285159
0.000241679
0.00018669
0.000120226
0.00041636
0.000394456
0.000368016
0.000336388
0.000298688
0.00025312
0.000194806
0.000118536
0.000425859
0.000404244
0.000377748
0.00034573
0.000307212
0.000260284
0.000199822
0.000117844
0.00042902
0.000407549
0.000381063
0.000348924
0.000310132
0.000262739
0.000201545
0.00011769
0.000425841
0.000404225
0.000377728
0.000345711
0.000307195
0.00026027
0.000199811
0.000117839
0.000416325
0.000394418
0.000367974
0.000336344
0.000298642
0.000253076
0.000194768
0.000118516
0.00039996
0.000378428
0.000352359
0.000321464
0.000285077
0.000241596
0.000186615
0.000120189
0.000400003
0.000378459
0.00035239
0.000321501
0.000285118
0.000241641
0.000186658
0.000120225
0.000416318
0.000394414
0.000367973
0.000336345
0.000298644
0.000253077
0.000194766
0.000118528
0.000425827
0.000404214
0.000377718
0.0003457
0.000307181
0.000260252
0.000199792
0.000117838
0.000429001
0.000407533
0.000381049
0.000348911
0.000310118
0.000262724
0.000201531
0.000117691
0.000425836
0.000404225
0.000377732
0.000345717
0.000307203
0.000260278
0.000199819
0.000117852
0.000416336
0.000394435
0.000367994
0.000336369
0.00029867
0.000253106
0.000194796
0.000118538
0.000399986
0.000378459
0.000352393
0.000321502
0.000285118
0.00024164
0.000186657
0.000120217
0.000399943
0.000378398
0.000352333
0.000321449
0.000285072
0.0002416
0.000186625
0.000120228
0.00041627
0.00039436
0.00036792
0.000336295
0.000298595
0.000253029
0.000194724
0.000118519
0.00042579
0.000404173
0.000377677
0.000345658
0.000307137
0.000260206
0.000199748
0.000117822
0.000428978
0.000407507
0.000381024
0.000348885
0.000310089
0.000262693
0.000201499
0.00011768
0.000425827
0.000404215
0.000377727
0.000345714
0.0003072
0.000260275
0.000199815
0.000117857
0.000416341
0.000394441
0.000368008
0.000336389
0.000298697
0.000253135
0.000194825
0.000118567
0.000400008
0.00037848
0.000352421
0.000321541
0.000285165
0.000241692
0.000186708
0.000120264
0.000399869
0.000378328
0.000352274
0.000321403
0.000285037
0.000241574
0.000186609
0.000120246
0.000416203
0.000394294
0.000367864
0.000336249
0.000298558
0.000253
0.000194703
0.000118526
0.000425729
0.000404113
0.000377627
0.000345615
0.000307099
0.000260172
0.000199719
0.000117817
0.000428922
0.000407454
0.000380981
0.000348847
0.000310055
0.00026266
0.00020147
0.000117672
0.000425773
0.000404168
0.000377691
0.000345687
0.000307178
0.000260256
0.000199799
0.00011786
0.000416289
0.000394396
0.000367979
0.000336375
0.000298692
0.000253138
0.000194832
0.000118592
0.000399964
0.00037844
0.000352399
0.000321536
0.000285175
0.000241711
0.000186733
0.000120309
0.000399818
0.000378281
0.000352237
0.000321375
0.000285018
0.000241562
0.000186603
0.000120273
0.000416157
0.000394248
0.000367829
0.000336225
0.000298543
0.000252993
0.000194703
0.000118548
0.00042568
0.000404068
0.000377592
0.000345588
0.000307079
0.000260158
0.000199712
0.000117829
0.00042887
0.000407407
0.000380942
0.000348816
0.000310028
0.000262638
0.000201453
0.000117675
0.000425716
0.000404115
0.000377648
0.000345652
0.000307148
0.00026023
0.000199778
0.000117864
0.000416225
0.000394336
0.000367932
0.000336339
0.000298664
0.000253115
0.000194815
0.000118607
0.000399903
0.000378377
0.00035235
0.000321501
0.00028515
0.000241694
0.000186723
0.000120339
0.00039983
0.00037829
0.000352242
0.00032138
0.00028502
0.000241564
0.000186605
0.000120299
0.00041617
0.000394256
0.000367836
0.000336232
0.00029855
0.000253001
0.000194712
0.00011857
0.000425686
0.00040407
0.000377593
0.000345589
0.00030708
0.00026016
0.000199715
0.000117843
0.000428869
0.000407402
0.000380936
0.000348809
0.00031002
0.00026263
0.000201446
0.000117682
0.000425709
0.000404103
0.000377635
0.000345638
0.000307133
0.000260214
0.000199763
0.000117868
0.000416213
0.000394319
0.000367914
0.00033632
0.000298644
0.000253095
0.000194797
0.000118615
0.000399893
0.000378357
0.000352328
0.000321479
0.000285128
0.000241672
0.000186704
0.000120357
0.000399901
0.000378354
0.000352295
0.000321421
0.000285053
0.000241589
0.000186624
0.000120323
0.000416239
0.000394316
0.000367885
0.000336271
0.000298581
0.000253024
0.000194729
0.000118586
0.000425745
0.000404119
0.000377632
0.00034562
0.000307104
0.000260179
0.000199727
0.000117852
0.000428922
0.000407444
0.000380968
0.000348833
0.000310039
0.000262644
0.000201456
0.000117689
0.00042576
0.000404143
0.000377663
0.000345658
0.000307148
0.000260225
0.000199771
0.000117876
0.000416265
0.000394359
0.000367942
0.000336338
0.000298656
0.000253102
0.000194802
0.000118627
0.000399949
0.000378398
0.000352356
0.000321495
0.000285135
0.000241674
0.000186703
0.000120374
0.000399981
0.000378426
0.000352354
0.000321468
0.00028509
0.000241618
0.000186646
0.000120339
0.000416316
0.000394383
0.000367939
0.000336312
0.000298612
0.000253048
0.000194745
0.000118593
0.000425812
0.000404175
0.000377677
0.000345655
0.000307133
0.000260201
0.000199744
0.000117858
0.000428984
0.000407495
0.000381008
0.000348866
0.000310067
0.000262668
0.000201476
0.000117696
0.000425822
0.000404193
0.000377702
0.000345689
0.000307174
0.000260248
0.000199791
0.000117887
0.000416332
0.000394413
0.000367983
0.000336368
0.000298679
0.000253122
0.000194818
0.00011864
0.000400019
0.000378456
0.000352398
0.000321524
0.000285154
0.000241687
0.000186713
0.000120386
0.000400011
0.00037845
0.000352371
0.000321478
0.000285096
0.000241621
0.000186647
0.000120337
0.000416342
0.000394405
0.000367953
0.000336321
0.000298617
0.00025305
0.000194745
0.000118587
0.000425833
0.000404192
0.000377687
0.000345662
0.000307138
0.000260205
0.000199747
0.000117853
0.000429003
0.000407508
0.000381016
0.000348871
0.000310072
0.000262673
0.00020148
0.000117695
0.000425841
0.000404205
0.000377707
0.00034569
0.000307173
0.000260247
0.000199791
0.000117885
0.000416352
0.000394425
0.000367985
0.000336363
0.000298671
0.000253112
0.000194809
0.000118634
0.00040004
0.000378469
0.0003524
0.000321517
0.000285142
0.000241672
0.000186699
0.000120378
0.000399979
0.000378421
0.000352346
0.000321459
0.000285083
0.000241614
0.000186647
0.000120331
0.00041631
0.000394377
0.00036793
0.000336304
0.000298608
0.000253046
0.000194747
0.000118583
0.0004258
0.000404161
0.000377662
0.000345644
0.000307127
0.0002602
0.000199747
0.000117848
0.000428968
0.000407475
0.000380987
0.000348847
0.000310053
0.000262659
0.000201471
0.000117685
0.000425802
0.000404166
0.000377669
0.000345655
0.000307142
0.000260219
0.000199768
0.000117867
0.000416309
0.000394381
0.000367939
0.000336319
0.000298628
0.000253071
0.000194774
0.00011861
0.000399996
0.000378423
0.000352351
0.000321468
0.000285095
0.000241629
0.000186662
0.000120354
0.000399923
0.000378373
0.00035231
0.000321438
0.000285076
0.00024162
0.000186662
0.000120346
0.000416255
0.000394331
0.000367899
0.00033629
0.000298609
0.00025306
0.00019477
0.0001186
0.000425746
0.000404117
0.000377633
0.00034563
0.000307125
0.000260208
0.000199762
0.000117858
0.000428912
0.000407428
0.000380952
0.000348824
0.000310039
0.000262652
0.000201469
0.000117683
0.000425741
0.000404111
0.000377625
0.00034562
0.000307114
0.000260196
0.000199751
0.000117856
0.000416242
0.000394318
0.000367884
0.000336272
0.000298589
0.000253039
0.000194749
0.000118596
0.000399926
0.000378356
0.000352291
0.000321416
0.000285052
0.000241594
0.000186637
0.000120343
0.000399887
0.000378342
0.000352287
0.000321424
0.00028507
0.00024162
0.000186667
0.000120363
0.000416225
0.000394306
0.000367884
0.000336286
0.000298615
0.000253074
0.000194788
0.000118621
0.00042572
0.000404098
0.000377624
0.000345632
0.000307136
0.000260225
0.000199782
0.000117874
0.000428886
0.000407409
0.000380943
0.000348823
0.000310044
0.000262661
0.00020148
0.000117691
0.000425711
0.000404087
0.000377608
0.00034561
0.000307109
0.000260194
0.00019975
0.000117857
0.000416206
0.000394285
0.000367857
0.000336252
0.000298573
0.000253026
0.00019474
0.000118597
0.000399886
0.000378318
0.000352256
0.000321387
0.000285028
0.000241574
0.000186623
0.000120345
0.000399899
0.00037835
0.00035229
0.000321422
0.000285063
0.000241607
0.00018665
0.000120361
0.000416245
0.000394324
0.000367899
0.000336298
0.000298623
0.000253078
0.000194789
0.000118628
0.000425747
0.000404123
0.000377649
0.000345655
0.000307156
0.000260243
0.000199797
0.000117887
0.000428915
0.000407437
0.00038097
0.000348849
0.000310068
0.000262682
0.000201498
0.000117703
0.000425739
0.000404113
0.000377632
0.000345631
0.000307126
0.000260207
0.00019976
0.000117865
0.000416231
0.000394305
0.000367873
0.000336263
0.000298578
0.000253025
0.000194734
0.000118596
0.000399905
0.00037833
0.000352263
0.000321387
0.000285021
0.00024156