/*--------------------------------*- C++ -*----------------------------------*\
| =========                 |                                                 |
| \\      /  F ield         | OpenFOAM: The Open Source CFD Toolbox           |
|  \\    /   O peration     | Version:  plus.master.MPPICInterFoam            |
|   \\  /    A nd           | Web:      www.OpenFOAM.com                      |
|    \\/     M anipulation  |                                                 |
\*---------------------------------------------------------------------------*/
FoamFile
{
    version     2.0;
    format      ascii;
    class       surfaceScalarField;
    location    "1.8";
    object      phi;
}
// * * * * * * * * * * * * * * * * * * * * * * * * * * * * * * * * * * * * * //

dimensions      [0 3 -1 0 0 0 0];

internalField   nonuniform List<scalar> 
34018
(
4.10499e-10
5.62298e-07
1.28168e-10
3.28265e-10
2.78855e-10
5.62196e-07
4.61477e-10
5.6203e-07
2.1982e-10
4.81838e-10
5.62315e-07
1.03733e-10
5.41238e-10
5.62037e-07
1.53564e-10
5.61651e-07
5.16687e-10
4.28951e-10
1.98261e-10
1.33624e-10
5.61907e-07
-1.93558e-10
-1.77293e-10
3.10544e-10
1.51983e-10
5.62274e-07
-1.36896e-10
3.74996e-10
1.59073e-10
5.62524e-07
-1.68689e-10
4.40525e-10
1.73062e-10
5.62596e-07
-1.95168e-10
5.07238e-10
2.12127e-10
5.62494e-07
-2.38036e-10
5.60762e-10
2.52419e-10
5.62216e-07
-2.78267e-10
2.58477e-10
5.61829e-07
5.48174e-10
-2.32532e-10
2.12251e-10
2.18469e-10
5.62281e-07
-1.70966e-10
3.17737e-10
2.32617e-10
5.62428e-07
3.59136e-10
2.35575e-10
5.62531e-07
4.05851e-10
2.4322e-10
5.62553e-07
4.63946e-10
2.60508e-10
5.62498e-07
5.29598e-10
2.82765e-10
5.62367e-07
2.87313e-10
5.62197e-07
6.01613e-10
2.20471e-10
2.70927e-10
5.6254e-07
-2.13398e-10
3.11667e-10
2.72817e-10
5.62538e-07
3.43884e-10
2.68064e-10
5.62549e-07
3.76994e-10
2.58906e-10
5.6254e-07
4.15933e-10
2.52804e-10
5.62516e-07
4.65227e-10
2.47489e-10
5.62476e-07
2.32882e-10
5.62451e-07
5.19688e-10
2.3569e-10
3.31799e-10
5.62619e-07
-2.36475e-10
3.1317e-10
3.21786e-10
5.62568e-07
3.29531e-10
3.04425e-10
5.62548e-07
3.46423e-10
2.77156e-10
5.6253e-07
3.6528e-10
2.54067e-10
5.62516e-07
3.85623e-10
2.31796e-10
5.62509e-07
2.25066e-10
5.62532e-07
3.99356e-10
2.69541e-10
3.90211e-10
5.62524e-07
-2.71825e-10
3.26544e-10
3.77586e-10
5.62521e-07
3.20734e-10
3.48455e-10
5.6253e-07
3.21172e-10
3.02588e-10
5.62522e-07
3.23925e-10
2.59839e-10
5.62501e-07
3.0993e-10
2.3112e-10
5.62462e-07
2.38349e-10
5.62442e-07
2.95745e-10
3.16265e-10
4.44937e-10
5.62253e-07
-3.30721e-10
3.48518e-10
4.54283e-10
5.62396e-07
3.17067e-10
4.11547e-10
5.62495e-07
3.07484e-10
3.26417e-10
5.6252e-07
2.86817e-10
2.62171e-10
5.62467e-07
2.81671e-10
2.36738e-10
5.62342e-07
2.59327e-10
5.62178e-07
2.52389e-10
2.73219e-10
5.6187e-07
-2.4446e-10
4.33847e-10
3.2943e-10
5.62229e-07
5.2136e-10
3.0868e-10
5.62473e-07
4.65492e-10
2.89023e-10
5.62547e-07
3.26738e-10
3.02373e-10
5.62447e-07
2.58044e-10
3.22158e-10
5.6218e-07
2.03556e-10
5.61804e-07
3.07375e-10
2.75068e-10
3.4148e-11
1.11979e-11
5.62072e-07
-1.1378e-10
-6.57581e-11
1.70754e-10
-2.93532e-11
5.62445e-07
6.93835e-11
2.14217e-10
-4.67806e-11
5.62702e-07
8.17074e-11
2.58748e-10
-2.46673e-11
5.6278e-07
5.14875e-11
3.01025e-10
5.8079e-11
5.62686e-07
-4.00734e-11
3.91799e-10
1.7165e-10
5.6242e-07
-2.1343e-10
2.6422e-10
5.62036e-07
4.99964e-10
-3.22213e-10
8.03675e-12
1.24369e-10
5.62452e-07
5.48257e-11
1.60025e-10
1.18649e-10
5.62609e-07
1.97589e-10
1.0689e-10
5.62717e-07
2.38757e-10
1.15977e-10
5.62746e-07
3.13388e-10
1.57902e-10
5.627e-07
4.35439e-10
2.2076e-10
5.62577e-07
2.70744e-10
5.62409e-07
6.07602e-10
-7.44757e-12
1.62323e-10
5.62714e-07
5.26068e-11
1.42325e-10
1.58843e-10
5.62725e-07
1.83235e-10
1.50216e-10
5.62742e-07
2.2872e-10
1.48396e-10
5.62741e-07
3.00354e-10
1.56387e-10
5.62725e-07
4.11411e-10
1.72831e-10
5.62692e-07
1.89745e-10
5.62669e-07
5.63062e-10
9.93298e-12
2.00732e-10
5.62797e-07
2.80187e-11
1.4764e-10
2.07547e-10
5.62758e-07
1.79693e-10
1.9897e-10
5.62746e-07
2.16488e-10
1.85385e-10
5.62736e-07
2.73996e-10
1.65476e-10
5.6273e-07
3.63137e-10
1.45938e-10
5.62728e-07
1.30169e-10
5.62755e-07
4.84243e-10
7.72914e-11
2.61041e-10
5.62709e-07
-7.03833e-11
1.85622e-10
2.83487e-10
5.62715e-07
1.87501e-10
2.72285e-10
5.62733e-07
1.98515e-10
2.4234e-10
5.62734e-07
2.32616e-10
1.95073e-10
5.62719e-07
2.88794e-10
1.4479e-10
5.62689e-07
1.01951e-10
5.62668e-07
3.74987e-10
1.99545e-10
3.6279e-10
5.62444e-07
-2.35498e-10
2.47058e-10
4.17257e-10
5.62595e-07
2.02736e-10
3.88e-10
5.62703e-07
1.81796e-10
3.29151e-10
5.62735e-07
1.87422e-10
2.46177e-10
5.62692e-07
2.11768e-10
1.68388e-10
5.62571e-07
1.04637e-10
5.62405e-07
2.61347e-10
2.49097e-10
5.62062e-07
-2.48784e-10
4.29263e-10
2.79643e-10
5.62429e-07
5.78593e-10
2.13863e-10
5.62682e-07
5.33125e-10
1.71049e-10
5.62763e-07
4.41407e-10
1.54881e-10
5.62672e-07
3.19952e-10
1.72752e-10
5.62406e-07
2.04939e-10
5.62026e-07
1.90166e-10
1.58817e-10
-8.79893e-11
-1.4563e-10
5.62302e-07
1.70511e-11
4.80046e-11
5.53931e-11
-1.82734e-10
5.6269e-07
2.44117e-10
7.48936e-11
-2.17552e-10
5.62949e-07
2.87564e-10
1.0037e-10
-1.87573e-10
5.63032e-07
2.51048e-10
1.4489e-10
-7.3591e-11
5.62942e-07
1.08461e-10
2.29048e-10
1.02166e-10
5.62679e-07
-1.0753e-10
2.5988e-10
5.6229e-07
3.75254e-10
-3.1426e-10
-1.60879e-10
2.63981e-12
5.62694e-07
2.18913e-10
2.57179e-11
-2.87545e-12
5.6286e-07
5.87649e-11
-1.62615e-11
5.62972e-07
9.69489e-11
-1.7261e-12
5.63007e-07
1.72904e-10
7.40856e-11
5.62965e-07
3.25747e-10
1.78235e-10
5.62846e-07
2.71015e-10
5.62675e-07
5.6069e-10
-1.92687e-10
4.18555e-11
5.62956e-07
2.5472e-10
-8.86167e-14
3.84999e-11
5.62974e-07
5.16419e-11
3.65056e-11
5.62997e-07
1.02379e-10
5.02821e-11
5.63001e-07
1.94275e-10
8.1906e-11
5.6299e-07
3.45637e-10
1.19573e-10
5.62961e-07
1.57954e-10
5.62937e-07
5.62676e-10
-1.69156e-10
8.07621e-11
5.63042e-07
2.17149e-10
1.81235e-11
8.05773e-11
5.63013e-07
6.56897e-11
9.44941e-11
5.63004e-07
1.14965e-10
1.0568e-10
5.62999e-07
1.97251e-10
1.01609e-10
5.62997e-07
3.26254e-10
8.75314e-11
5.62999e-07
7.34859e-11
5.63024e-07
5.15654e-10
-5.00526e-11
1.17756e-10
5.62955e-07
1.02082e-10
9.03935e-11
1.73152e-10
5.62974e-07
9.60238e-11
1.94292e-10
5.62995e-07
1.13162e-10
1.89491e-10
5.63e-07
1.62541e-10
1.46611e-10
5.62989e-07
2.55401e-10
8.37003e-11
5.62961e-07
1.99478e-11
5.62937e-07
4.03718e-10
1.16684e-10
2.41251e-10
5.62695e-07
-1.46458e-10
1.84452e-10
3.34367e-10
5.62857e-07
1.31344e-10
3.46166e-10
5.62967e-07
9.98321e-11
3.14103e-10
5.63003e-07
1.05883e-10
2.28772e-10
5.62962e-07
1.55677e-10
1.18262e-10
5.62844e-07
1.92149e-11
5.62673e-07
2.52637e-10
2.24524e-10
5.62308e-07
-2.42733e-10
3.55402e-10
2.59647e-10
5.62688e-07
5.48998e-10
1.62456e-10
5.62945e-07
5.55636e-10
8.69793e-11
5.63029e-07
4.9054e-10
4.97027e-11
5.62939e-07
3.65538e-10
6.55956e-11
5.62674e-07
2.06483e-10
5.62281e-07
1.08117e-10
1.03216e-10
-1.70541e-10
-2.16474e-10
5.62555e-07
9.69424e-11
1.1551e-10
-1.79273e-11
-2.56818e-10
5.62958e-07
3.23163e-10
-1.21219e-11
-3.05445e-10
5.63218e-07
3.98291e-10
-5.90455e-13
-2.83554e-10
5.63303e-07
3.74291e-10
4.4211e-11
-1.67505e-10
5.63216e-07
2.14672e-10
1.07782e-10
4.42192e-11
5.62949e-07
-9.39714e-12
2.18917e-10
5.62547e-07
2.52423e-10
-2.43832e-10
-2.41253e-10
-6.0604e-11
5.6296e-07
3.04263e-10
-4.57204e-11
-6.66222e-11
5.63135e-07
-1.74261e-11
-8.35098e-11
5.63247e-07
9.73105e-12
-6.81013e-11
5.63283e-07
7.53717e-11
1.05654e-11
5.63245e-07
2.24159e-10
1.47057e-10
5.6313e-07
2.51598e-10
5.62951e-07
4.66423e-10
-2.89212e-10
-3.5214e-11
5.63221e-07
3.71965e-10
-8.06818e-11
-3.08352e-11
5.63247e-07
-1.92547e-11
-3.23458e-11
5.63268e-07
3.63531e-11
-7.94225e-12
5.63275e-07
1.24391e-10
3.78585e-11
5.63268e-07
2.85565e-10
9.28046e-11
5.63243e-07
1.40657e-10
5.63215e-07
5.18019e-10
-2.66613e-10
-1.28039e-11
5.63308e-07
3.39094e-10
-5.41344e-11
3.20773e-12
5.63285e-07
5.22134e-12
2.79722e-11
5.63277e-07
6.3757e-11
5.66169e-11
5.63274e-07
1.54731e-10
6.73716e-11
5.63276e-07
2.99504e-10
6.22729e-11
5.6328e-07
5.36207e-11
5.63302e-07
5.1032e-10
-1.46172e-10
2.83077e-11
5.63223e-07
2.01457e-10
3.31667e-11
7.947e-11
5.6325e-07
5.36704e-11
1.28975e-10
5.63271e-07
7.6592e-11
1.52186e-10
5.63278e-07
1.32243e-10
1.21919e-10
5.6327e-07
2.40547e-10
5.78627e-11
5.63244e-07
-3.2976e-12
5.63215e-07
4.11084e-10
5.40435e-11
1.24391e-10
5.6296e-07
-3.62458e-11
1.5677e-10
2.27106e-10
5.63136e-07
1.06232e-10
2.90288e-10
5.63247e-07
7.08846e-11
2.95188e-10
5.63282e-07
7.25196e-11
2.22858e-10
5.63245e-07
1.28621e-10
1.03303e-10
5.63127e-07
1.27357e-12
5.62947e-07
2.46159e-10
1.9557e-10
5.62561e-07
-1.82053e-10
2.32148e-10
2.4818e-10
5.62959e-07
4.5207e-10
1.44235e-10
5.6322e-07
5.23692e-10
5.73049e-11
5.63305e-07
5.00248e-10
8.94288e-12
5.63216e-07
3.90118e-10
1.47136e-11
5.62947e-07
2.28199e-10
5.62537e-07
7.86805e-11
9.45223e-11
-1.86467e-10
-2.0637e-10
5.62801e-07
1.17668e-10
1.10611e-10
-3.69834e-11
-2.49285e-10
5.63222e-07
3.10211e-10
-3.77824e-11
-3.08877e-10
5.63483e-07
4.04218e-10
-4.32605e-11
-3.05299e-10
5.63568e-07
4.08817e-10
-2.17498e-11
-2.10343e-10
5.6348e-07
2.8019e-10
2.37996e-11
-2.62925e-11
5.6321e-07
7.85655e-11
1.38677e-10
5.6279e-07
1.30319e-10
-1.22846e-10
-2.40261e-10
-5.95992e-11
5.63223e-07
3.05077e-10
-5.4795e-11
-6.91916e-11
5.63409e-07
-3.55998e-11
-9.27086e-11
5.63517e-07
-2.38675e-11
-8.66297e-11
5.63553e-07
2.13214e-11
-2.333e-11
5.63518e-07
1.29899e-10
1.04841e-10
5.63404e-07
2.01828e-10
5.63215e-07
3.30488e-10
-2.93148e-10
-5.65925e-11
5.63486e-07
3.88922e-10
-8.50513e-11
-4.89947e-11
5.63519e-07
-2.86126e-11
-4.72496e-11
5.63538e-07
1.87876e-11
-2.67472e-11
5.63544e-07
8.82305e-11
1.65544e-11
5.63538e-07
2.22925e-10
7.25579e-11
5.63516e-07
1.18251e-10
5.63482e-07
4.25966e-10
-2.80356e-10
-5.79077e-11
5.63571e-07
3.71425e-10
-6.71639e-11
-3.06224e-11
5.63556e-07
-1.80258e-12
-1.11697e-12
5.63545e-07
5.29263e-11
3.4227e-11
5.63542e-07
1.34356e-10
4.96913e-11
5.63545e-07
2.65222e-10
5.07377e-11
5.63551e-07
4.88385e-11
5.63567e-07
4.54729e-10
-1.73873e-10
-3.10872e-11
5.63486e-07
2.40893e-10
2.11923e-11
1.65605e-11
5.63521e-07
5.14612e-11
8.27042e-11
5.6354e-07
7.64853e-11
1.219e-10
5.63546e-07
1.27202e-10
1.05086e-10
5.63539e-07
2.28119e-10
5.08035e-11
5.63515e-07
-6.70396e-13
5.63479e-07
3.90683e-10
1.331e-11
2.72228e-11
5.6322e-07
3.64231e-11
1.43331e-10
1.25109e-10
5.63408e-07
1.09875e-10
2.21446e-10
5.63517e-07
7.97467e-11
2.55905e-10
5.63552e-07
7.82269e-11
2.07081e-10
5.63515e-07
1.29394e-10
1.00825e-10
5.63398e-07
6.77959e-12
5.63206e-07
2.45439e-10
1.56648e-10
5.628e-07
-8.89852e-11
8.47909e-11
2.29741e-10
5.63221e-07
3.17772e-10
1.47084e-10
5.63484e-07
4.30037e-10
7.36422e-11
5.63568e-07
4.46264e-10
2.707e-11
5.6348e-07
3.72255e-10
2.49922e-11
5.63207e-07
2.32696e-10
5.62778e-07
9.23667e-11
9.72894e-11
-1.67023e-10
-1.43382e-10
5.6304e-07
9.06348e-11
5.4433e-11
-4.27627e-11
-1.85863e-10
5.6348e-07
2.35075e-10
-4.8432e-11
-2.52415e-10
5.63741e-07
3.25268e-10
-6.62743e-11
-2.59464e-10
5.63824e-07
3.45896e-10
-7.54483e-11
-1.97414e-10
5.63736e-07
2.72843e-10
-4.54394e-11
-7.32956e-11
5.63465e-07
1.12278e-10
4.37187e-11
5.63026e-07
4.42264e-11
-4.28236e-11
-1.98001e-10
-3.26122e-11
5.6348e-07
2.60818e-10
-3.94988e-11
-3.69374e-11
5.63676e-07
-3.38608e-11
-7.07471e-11
5.63783e-07
-3.54581e-11
-6.93127e-11
5.63815e-07
-2.01741e-11
-2.14617e-11
5.6378e-07
4.18073e-11
5.9784e-11
5.63666e-07
1.25182e-10
5.63469e-07
1.75918e-10
-2.40474e-10
-4.37659e-11
5.63743e-07
3.20789e-10
-5.70936e-11
-3.3769e-11
5.63784e-07
-2.08045e-11
-3.60703e-11
5.63802e-07
7.35664e-12
-2.12319e-11
5.63805e-07
5.48058e-11
8.74635e-12
5.63799e-07
1.40467e-10
4.86412e-11
5.63777e-07
7.87956e-11
5.63737e-07
2.77721e-10
-2.27092e-10
-5.83198e-11
5.63827e-07
3.07894e-10
-3.67097e-11
-3.31007e-11
5.63816e-07
8.5033e-12
-3.51323e-12
5.63806e-07
4.69836e-11
2.25112e-11
5.638e-07
1.02755e-10
3.48238e-11
5.63803e-07
1.94216e-10
3.56109e-11
5.63809e-07
3.50246e-11
5.63821e-07
3.27019e-10
-1.45125e-10
-5.25081e-11
5.6374e-07
2.07738e-10
3.00687e-11
-1.23252e-11
5.63782e-07
5.72669e-11
4.98815e-11
5.638e-07
7.64426e-11
8.47261e-11
5.63803e-07
1.11714e-10
7.75996e-11
5.63796e-07
1.8356e-10
3.93278e-11
5.63773e-07
3.30481e-12
5.63732e-07
3.01991e-10
-2.03742e-12
-2.75452e-11
5.6347e-07
5.51681e-11
1.30249e-10
5.22673e-11
5.63669e-07
1.12124e-10
1.43832e-10
5.63778e-07
8.97655e-11
1.84191e-10
5.6381e-07
8.53146e-11
1.57693e-10
5.63773e-07
1.18033e-10
8.32329e-11
5.63656e-07
4.73274e-12
5.63456e-07
2.11225e-10
1.20136e-10
5.63032e-07
-2.61832e-11
-2.57828e-11
1.9977e-10
5.63472e-07
1.93062e-10
1.4471e-10
5.63738e-07
2.92424e-10
9.48408e-11
5.63822e-07
3.23042e-10
5.95781e-11
5.63732e-07
2.82959e-10
5.42489e-11
5.63456e-07
1.85971e-10
5.63011e-07
1.03978e-10
7.98828e-11
-1.85473e-10
-1.25e-10
5.63274e-07
1.14099e-10
2.42925e-11
-7.18362e-11
-1.34005e-10
5.63725e-07
1.42892e-10
-6.79113e-11
-1.73391e-10
5.63991e-07
1.96788e-10
-7.93891e-11
-1.84607e-10
5.64073e-07
2.20408e-10
-9.04824e-11
-1.54647e-10
5.63984e-07
1.92545e-10
-7.96242e-11
-8.71492e-11
5.63709e-07
1.07227e-10
-3.28077e-11
5.6326e-07
1.9986e-12
-6.79863e-12
-1.77549e-10
-1.55394e-11
5.63725e-07
1.91129e-10
-4.98557e-11
-2.08062e-11
5.63923e-07
-4.56127e-11
-4.10981e-11
5.64029e-07
-4.8543e-11
-4.19964e-11
5.64059e-07
-4.64631e-11
-1.73969e-11
5.64024e-07
-2.18416e-11
2.56952e-11
5.63912e-07
5.44178e-11
5.63711e-07
4.46558e-11
-1.8075e-10
-2.29215e-11
5.63991e-07
2.14555e-10
-4.43226e-11
-1.75477e-11
5.64029e-07
-2.39809e-11
-2.00284e-11
5.64046e-07
-9.84629e-12
-1.35156e-11
5.64047e-07
1.12929e-11
2.57476e-12
5.64042e-07
5.19843e-11
2.36739e-11
5.64022e-07
3.6352e-11
5.63982e-07
1.20055e-10
-1.58286e-10
-3.08548e-11
5.64075e-07
1.94396e-10
-1.79285e-11
-1.65828e-11
5.6406e-07
6.26053e-12
-2.32755e-12
5.64048e-07
2.32191e-11
1.12015e-11
5.64041e-07
4.92986e-11
1.6798e-11
5.64045e-07
9.5853e-11
1.50278e-11
5.64053e-07
1.30691e-11
5.64065e-07
1.64226e-10
-1.03398e-10
-2.73591e-11
5.63987e-07
1.29199e-10
2.98172e-11
-8.81292e-12
5.64026e-07
4.43201e-11
2.3541e-11
5.64044e-07
5.0083e-11
4.64557e-11
5.64045e-07
6.57455e-11
4.13216e-11
5.64039e-07
1.02524e-10
1.69032e-11
5.64018e-07
-4.35258e-12
5.63976e-07
1.65975e-10
-1.96836e-11
-1.64526e-11
5.63712e-07
4.14212e-11
1.00655e-10
1.34882e-11
5.63914e-07
8.39029e-11
7.8761e-11
5.64024e-07
6.79643e-11
1.02903e-10
5.64054e-07
6.05873e-11
8.84484e-11
5.64018e-07
7.44859e-11
4.16071e-11
5.63903e-07
-6.94337e-12
5.637e-07
1.26121e-10
7.79555e-11
5.6326e-07
4.31941e-12
-4.81316e-11
1.4218e-10
5.63712e-07
1.07416e-10
1.07297e-10
5.63983e-07
1.63416e-10
7.8818e-11
5.64065e-07
1.79948e-10
5.6594e-11
5.63976e-07
1.57456e-10
4.32842e-11
5.637e-07
1.0224e-10
5.63246e-07
7.70499e-11
3.02127e-11
-1.61652e-10
-1.07804e-10
5.63493e-07
7.5935e-11
2.37155e-11
-6.53236e-11
-1.03636e-10
5.63943e-07
8.9035e-11
-6.01581e-11
-9.66572e-11
5.64211e-07
9.62585e-11
-6.32908e-11
-9.24537e-11
5.64294e-07
9.36092e-11
-6.43443e-11
-8.46159e-11
5.64207e-07
8.51945e-11
-4.45346e-11
-7.08288e-11
5.63933e-07
4.97853e-11
-5.4784e-11
5.6348e-07
2.98817e-11
-1.80346e-11
-1.38977e-10
-8.33981e-12
5.63946e-07
1.17478e-10
-4.66665e-11
-2.02899e-11
5.6414e-07
-3.96345e-11
-1.36829e-11
5.64246e-07
-3.13414e-11
-6.33704e-12
5.64276e-07
-2.43953e-11
9.91543e-13
5.64242e-07
-1.612e-11
8.85493e-12
5.64132e-07
1.51679e-11
5.63934e-07
9.26036e-12
-1.05774e-10
-1.03338e-11
5.64213e-07
1.06732e-10
-2.14612e-11
-9.38114e-12
5.64246e-07
-1.5685e-11
-3.58241e-12
5.64261e-07
-8.72007e-12
9.19191e-13
5.64262e-07
-1.33385e-12
4.57091e-12
5.64258e-07
9.83936e-12
7.55204e-12
5.6424e-07
1.06717e-11
5.64203e-07
3.09064e-11
-7.54259e-11
-9.37017e-12
5.64296e-07
8.02911e-11
5.81953e-12
4.58933e-12
5.64277e-07
5.82508e-12
9.11434e-12
5.64263e-07
7.46356e-12
9.37895e-12
5.64255e-07
1.24326e-11
7.57012e-12
5.6426e-07
2.32882e-11
3.31345e-12
5.64272e-07
-5.91892e-13
5.64288e-07
4.39377e-11
-4.83387e-11
-5.26698e-13
5.64207e-07
4.34001e-11
2.78504e-11
1.85437e-11
5.64243e-07
2.40533e-11
2.25503e-11
5.64259e-07
2.02722e-11
2.26755e-11
5.64261e-07
2.14989e-11
1.68459e-11
5.64256e-07
2.94825e-11
5.12757e-12
5.64238e-07
-7.43461e-12
5.64201e-07
4.83793e-11
-3.74023e-11
2.08161e-11
5.63933e-07
1.2504e-11
5.1873e-11
2.2984e-11
5.64133e-07
4.13273e-11
4.4289e-11
5.64241e-07
3.05121e-11
4.51379e-11
5.64272e-07
2.39713e-11
3.46697e-11
5.64238e-07
2.28902e-11
1.44719e-11
5.64127e-07
-1.31388e-11
5.63928e-07
3.86181e-11
3.84141e-11
5.63479e-07
7.15809e-12
-1.79994e-11
7.3934e-11
5.63933e-07
8.70366e-11
5.08162e-11
5.64204e-07
8.22904e-11
3.63532e-11
5.64288e-07
7.43617e-11
2.38451e-11
5.64201e-07
5.77321e-11
1.05204e-11
5.63927e-07
3.32921e-11
5.63474e-07
2.27555e-11
-3.48874e-12
-8.52967e-11
-1.02343e-10
5.63675e-07
1.06936e-11
3.16333e-11
-4.5547e-12
-8.84297e-11
5.64121e-07
6.06484e-11
6.18911e-13
-4.66425e-11
5.64389e-07
3.66721e-11
7.82551e-13
-2.5659e-11
5.64474e-07
1.32363e-11
1.17116e-12
-1.86364e-11
5.64388e-07
9.60929e-12
2.19003e-11
-2.83755e-11
5.64118e-07
-4.75627e-12
-3.59337e-11
5.6367e-07
9.26168e-11
-5.42162e-11
-7.11655e-11
-1.96699e-11
5.64123e-07
4.38532e-11
-8.1036e-12
-2.41245e-11
5.64316e-07
2.99046e-12
3.39952e-12
5.64421e-07
1.7024e-11
2.33023e-11
5.64453e-07
3.26897e-11
2.63452e-11
5.6442e-07
4.11006e-11
1.83599e-11
5.64313e-07
1.65057e-11
5.6412e-07
4.69476e-11
-2.81013e-11
-1.51306e-11
5.6439e-07
1.60795e-11
2.06183e-11
-6.79333e-12
5.64422e-07
1.89896e-11
9.01662e-12
5.64435e-07
2.25254e-11
1.87932e-11
5.64438e-07
2.51448e-11
1.9509e-11
5.64435e-07
2.32842e-11
1.59263e-11
5.64419e-07
1.51765e-11
5.64389e-07
2.28223e-11
-3.04308e-12
-3.67561e-12
5.64474e-07
-9.68637e-12
3.90974e-11
1.52154e-11
5.64453e-07
2.63213e-11
1.94297e-11
5.64438e-07
1.98229e-11
1.74778e-11
5.64432e-07
1.53105e-11
1.48828e-11
5.64438e-07
8.8299e-12
1.3246e-11
5.64453e-07
1.12773e-11
5.64475e-07
4.60657e-12
1.97347e-12
1.07833e-11
5.64387e-07
-2.26194e-11
3.86177e-11
3.51846e-11
5.6442e-07
2.45871e-11
2.67656e-11
5.64435e-07
1.62417e-11
1.84908e-11
5.64439e-07
1.06194e-11
1.57342e-11
5.64436e-07
3.24741e-12
1.62145e-11
5.64421e-07
1.16416e-11
5.6439e-07
-1.57732e-12
-2.84596e-11
4.58114e-11
5.64117e-07
-2.41753e-11
2.97261e-11
3.69318e-11
5.64313e-07
2.0205e-11
3.25068e-11
5.6442e-07
1.41743e-11
2.07753e-11
5.64453e-07
9.48237e-12
1.69141e-11
5.64421e-07
2.2517e-12
1.66092e-11
5.64314e-07
5.66415e-12
5.64121e-07
-1.32383e-12
2.12689e-11
5.63668e-07
-5.86954e-12
1.41276e-11
3.51474e-11
5.6412e-07
8.23751e-11
1.68708e-11
5.6439e-07
4.61653e-11
8.96226e-12
5.64476e-07
2.47938e-11
2.03157e-12
5.64391e-07
1.56574e-11
-9.82451e-12
5.64122e-07
1.30282e-11
5.63674e-07
-1.03782e-11
1.20756e-12
-3.81147e-12
-7.9283e-11
5.63812e-07
-4.86519e-11
2.31391e-11
5.2118e-11
-5.47947e-11
5.64256e-07
3.61076e-11
5.11635e-11
-1.57953e-11
5.64524e-07
9.72089e-12
5.00576e-11
9.30865e-12
5.6461e-07
-1.99649e-11
5.02762e-11
1.51567e-11
5.64524e-07
-2.38663e-11
6.13506e-11
2.28999e-12
5.64257e-07
-2.44279e-11
-1.85578e-11
5.63816e-07
1.22349e-10
-6.18043e-11
-9.93987e-12
-1.40614e-11
5.64254e-07
-1.45223e-11
3.94074e-11
-1.11944e-11
5.64447e-07
4.43594e-11
2.00343e-11
5.64554e-07
5.55574e-11
4.16483e-11
5.64588e-07
6.86659e-11
4.33503e-11
5.64555e-07
7.68396e-11
3.13919e-11
5.64449e-07
2.43512e-11
5.64261e-07
7.38621e-11
2.13035e-11
-1.03348e-11
5.64522e-07
-3.19446e-11
5.4596e-11
2.76608e-12
5.64553e-07
4.81295e-11
2.36773e-11
5.64569e-07
5.03899e-11
3.28403e-11
5.64573e-07
5.05368e-11
3.37684e-11
5.64571e-07
4.47841e-11
2.94985e-11
5.64557e-07
2.77614e-11
5.6453e-07
3.67637e-11
3.21623e-11
-5.30731e-13
5.64607e-07
-4.42218e-11
5.86394e-11
2.04585e-11
5.64587e-07
4.44008e-11
2.90559e-11
5.64573e-07
3.73157e-11
2.76909e-11
5.64568e-07
3.03607e-11
2.77984e-11
5.64575e-07
2.00006e-11
2.89943e-11
5.64591e-07
2.9119e-11
5.64617e-07
1.00258e-11
2.14802e-11
1.22934e-11
5.64522e-07
-4.10067e-11
4.27603e-11
3.61248e-11
5.64555e-07
3.00231e-11
2.98097e-11
5.64571e-07
2.31874e-11
2.28888e-11
5.64576e-07
1.75041e-11
2.50835e-11
5.64574e-07
8.19774e-12
3.21941e-11
5.6456e-07
3.39346e-11
5.64534e-07
-1.50227e-12
-2.72976e-11
4.34465e-11
5.64256e-07
-2.00786e-11
1.66153e-11
3.25293e-11
5.6445e-07
1.3218e-11
2.57803e-11
5.64557e-07
1.18416e-11
1.75108e-11
5.64592e-07
1.13517e-11
2.00569e-11
5.64561e-07
6.25017e-12
3.02907e-11
5.64455e-07
2.95255e-11
5.64268e-07
1.44447e-12
5.43186e-13
5.63816e-07
1.02317e-11
1.41606e-11
8.92958e-12
5.64263e-07
6.3907e-11
-1.30902e-12
5.64532e-07
2.84068e-11
-1.28607e-12
5.64619e-07
1.20714e-11
-1.11617e-12
5.64535e-07
1.15495e-11
-6.45004e-12
5.64268e-07
2.15245e-11
5.63827e-07
-8.75354e-12
2.51752e-11
1.49938e-11
-3.80196e-11
5.63902e-07
-4.77155e-11
1.66933e-12
5.48762e-11
-2.25693e-11
5.64345e-07
1.63765e-11
5.06074e-11
-6.21199e-12
5.64614e-07
1.23962e-11
4.62415e-11
2.53933e-12
5.64701e-07
-1.87568e-13
4.16563e-11
3.62444e-12
5.64617e-07
8.4966e-13
4.94229e-11
-9.6536e-12
5.64351e-07
7.5642e-13
-3.86732e-11
5.63914e-07
9.39335e-11
-1.0734e-11
6.75266e-12
9.01563e-12
5.64342e-07
-1.84231e-11
4.30129e-11
1.32733e-11
5.64535e-07
4.4622e-11
2.66697e-11
5.64645e-07
4.80222e-11
3.41223e-11
5.6468e-07
5.30819e-11
3.25752e-11
5.64649e-07
5.49261e-11
2.1656e-11
5.64543e-07
6.99949e-12
5.64356e-07
4.65312e-11
1.39696e-11
5.45794e-12
5.64611e-07
-9.50866e-12
4.68983e-11
1.71386e-11
5.64644e-07
4.44911e-11
2.96136e-11
5.64662e-07
4.37439e-11
3.2271e-11
5.64668e-07
4.15344e-11
3.09705e-11
5.64666e-07
3.69554e-11
2.54515e-11
5.64651e-07
1.94228e-11
5.64625e-07
2.90971e-11
9.40583e-12
4.37518e-12
5.64699e-07
-5.36815e-12
3.84547e-11
2.28141e-11
5.6468e-07
3.47689e-11
2.98009e-11
5.64668e-07
3.16379e-11
2.89421e-11
5.64664e-07
2.8037e-11
2.85743e-11
5.64672e-07
2.26575e-11
2.8214e-11
5.64687e-07
2.68992e-11
5.64713e-07
1.76868e-11
-7.58593e-12
8.83138e-12
5.64615e-07
3.50849e-12
2.02682e-11
2.57458e-11
5.64648e-07
1.97153e-11
2.51797e-11
5.64666e-07
1.85087e-11
2.5153e-11
5.64672e-07
1.77993e-11
2.75613e-11
5.6467e-07
1.53953e-11
3.23995e-11
5.64656e-07
3.53459e-11
5.64629e-07
1.29542e-11
-5.01996e-11
3.03382e-11
5.6435e-07
2.31172e-11
-3.60662e-12
1.4185e-11
5.64542e-07
2.25718e-12
1.89953e-11
5.64652e-07
7.25833e-12
2.05171e-11
5.64688e-07
1.16789e-11
2.53595e-11
5.64657e-07
1.40382e-11
3.31533e-11
5.64551e-07
3.66821e-11
5.64364e-07
1.74034e-11
-3.67143e-11
5.63914e-07
5.83113e-11
3.53354e-12
-1.8254e-11
5.64357e-07
3.34201e-11
-1.36124e-11
5.64627e-07
1.80742e-11
-5.33357e-12
5.64715e-07
1.71726e-11
3.01793e-12
5.64631e-07
2.08693e-11
7.78129e-12
5.64364e-07
3.03183e-11
5.63925e-07
1.4077e-11
3.9998e-11
9.87972e-12
3.69073e-12
5.63954e-07
-2.62549e-11
-2.3524e-11
4.23227e-11
2.31468e-12
5.64398e-07
2.43679e-12
3.33352e-11
-9.40784e-12
5.64669e-07
3.03786e-11
2.40247e-11
-2.12699e-11
5.64757e-07
4.11661e-11
1.20276e-11
-2.41425e-11
5.64674e-07
4.74159e-11
1.76658e-11
-3.03578e-11
5.64407e-07
3.72128e-11
-5.63568e-11
5.63968e-07
4.51203e-11
4.43269e-11
4.94224e-12
3.24887e-11
5.64396e-07
1.77764e-12
3.73779e-11
3.2926e-11
5.6459e-07
3.49559e-11
2.83391e-11
5.64703e-07
2.99265e-11
1.91875e-11
5.64739e-07
2.53773e-11
1.6035e-11
5.64708e-07
2.12205e-11
1.16227e-11
5.646e-07
-4.81301e-12
5.64412e-07
1.34416e-11
-1.13496e-11
2.12595e-11
5.64667e-07
3.3547e-11
2.74759e-11
3.01511e-11
5.64702e-07
3.32115e-11
3.24337e-11
5.64722e-07
3.20972e-11
2.87611e-11
5.64729e-07
2.98328e-11
2.69067e-11
5.64727e-07
2.92723e-11
2.36862e-11
5.64711e-07
1.58129e-11
5.64683e-07
2.65574e-11
-2.57705e-11
1.02868e-11
5.64756e-07
4.79846e-11
1.51364e-11
2.44122e-11
5.64738e-07
2.54071e-11
3.03148e-11
5.64728e-07
2.90983e-11
3.17739e-11
5.64726e-07
3.20067e-11
3.18693e-11
5.64733e-07
3.62585e-11
3.05237e-11
5.64747e-07
2.85678e-11
5.64771e-07
4.05425e-11
-3.96611e-11
7.75358e-12
5.64672e-07
5.26209e-11
5.33149e-12
1.38712e-11
5.64707e-07
1.8639e-11
2.52877e-11
5.64726e-07
2.5022e-11
3.37218e-11
5.64733e-07
3.0888e-11
3.68542e-11
5.64731e-07
3.84655e-11
3.71428e-11
5.64716e-07
3.91241e-11
5.64687e-07
4.75425e-11
-5.76982e-11
1.54228e-11
5.64406e-07
6.09508e-11
-3.4389e-12
-2.72985e-12
5.646e-07
1.19655e-11
2.19806e-11
5.64711e-07
2.02474e-11
3.77814e-11
5.64748e-07
2.79203e-11
4.36045e-11
5.64716e-07
3.75673e-11
4.41824e-11
5.64608e-07
4.6449e-11
5.64419e-07
5.17647e-11
-4.6143e-11
5.63967e-07
9.01264e-11
-1.24902e-11
-1.53682e-11
5.64412e-07
1.09002e-11
4.15179e-13
5.64683e-07
2.4395e-11
1.38284e-11
5.64772e-07
4.27766e-11
2.57275e-11
5.64687e-07
5.10174e-11
3.56973e-11
5.64419e-07
5.52679e-11
5.63977e-07
5.28684e-11
5.88663e-11
1.75966e-11
2.83038e-11
5.63983e-07
-2.27784e-11
-3.89329e-11
4.42669e-11
1.56885e-11
5.6443e-07
5.35481e-14
3.59295e-11
-1.82392e-11
5.64703e-07
4.93721e-11
2.42946e-11
-4.07179e-11
5.64792e-07
7.4215e-11
9.2891e-12
-4.15615e-11
5.64708e-07
7.89757e-11
8.30085e-12
-2.72661e-11
5.64439e-07
5.39065e-11
-4.35353e-11
5.63996e-07
2.62842e-11
5.67731e-11
1.00804e-11
4.65086e-11
5.6443e-07
1.23846e-11
4.37982e-11
4.58212e-11
5.64626e-07
4.50858e-11
2.551e-11
5.64737e-07
3.58875e-11
1.46397e-11
5.64772e-07
2.78839e-11
1.39523e-11
5.6474e-07
2.83201e-11
2.25871e-11
5.64632e-07
1.4709e-11
5.64442e-07
2.63155e-11
-2.25571e-11
3.41984e-11
5.64702e-07
5.69356e-11
2.41553e-11
4.31981e-11
5.64737e-07
3.77241e-11
3.54567e-11
5.64756e-07
4.46999e-11
3.32199e-11
5.64761e-07
4.97192e-11
3.5223e-11
5.64759e-07
6.05597e-11
3.87692e-11
5.64743e-07
3.76062e-11
5.64714e-07
6.89313e-11
-4.33423e-11
1.82023e-11
5.64792e-07
7.87701e-11
1.52155e-11
2.99698e-11
5.64772e-07
3.61166e-11
3.99232e-11
5.64761e-07
5.08647e-11
4.72044e-11
5.64756e-07
6.4428e-11
5.10484e-11
5.64764e-07
8.08884e-11
5.21792e-11
5.64778e-07
5.26664e-11
5.64802e-07
9.8478e-11
-4.32149e-11
7.35464e-12
5.64708e-07
7.49004e-11
1.53135e-11
1.81834e-11
5.6474e-07
3.85035e-11
4.26689e-11
5.64759e-07
5.48565e-11
6.02713e-11
5.64763e-07
7.00667e-11
6.58639e-11
5.64761e-07
8.77829e-11
6.52268e-11
5.64746e-07
6.57843e-11
5.64716e-07
1.08584e-10
-4.26218e-11
6.0399e-12
5.64439e-07
6.87222e-11
2.15038e-11
2.98699e-12
5.64632e-07
4.10026e-11
4.97891e-11
5.64744e-07
5.54248e-11
7.5358e-11
5.64778e-07
6.86169e-11
8.32993e-11
5.64746e-07
8.51829e-11
8.13355e-11
5.64636e-07
8.04924e-11
5.64445e-07
1.07726e-10
-2.26287e-11
5.63996e-07
8.027e-11
-2.23563e-11
1.99019e-11
5.64441e-07
1.61201e-11
3.88756e-11
5.64714e-07
6.26059e-11
5.30313e-11
5.64802e-07
9.34526e-11
6.64593e-11
5.64716e-07
1.03911e-10
8.2199e-11
5.64445e-07
1.03799e-10
5.64001e-07
1.04029e-10
1.01982e-10
-1.85282e-11
-1.61847e-11
5.63988e-07
2.46407e-11
1.70164e-11
3.4675e-11
-3.35748e-11
5.6443e-07
5.40534e-11
4.27401e-11
-6.98281e-11
5.64703e-07
1.15891e-10
4.42802e-11
-8.99425e-11
5.6479e-07
1.4576e-10
4.37246e-11
-8.5295e-11
5.64704e-07
1.43113e-10
5.87321e-11
-5.7141e-11
5.64434e-07
1.00657e-10
-5.12924e-11
5.63991e-07
8.58883e-11
8.37325e-11
-3.60337e-11
3.03367e-11
5.6443e-07
6.2702e-11
2.15672e-11
1.74848e-11
5.64614e-07
4.331e-11
-1.62557e-12
5.64723e-07
5.8504e-11
-1.42047e-11
5.64755e-07
7.28255e-11
-7.69324e-12
5.64722e-07
9.65566e-11
1.14756e-11
5.64616e-07
1.73127e-11
5.6443e-07
1.19513e-10
-7.01144e-11
3.21976e-11
5.64704e-07
1.22343e-10
1.3725e-12
3.36159e-11
5.64723e-07
4.13326e-11
3.18871e-11
5.64736e-07
7.35004e-11
3.19734e-11
5.64737e-07
1.04778e-10
3.96239e-11
5.64735e-07
1.40874e-10
4.92767e-11
5.64724e-07
5.14964e-11
5.64702e-07
1.75989e-10
-8.86639e-11
2.7734e-11
5.6479e-07
1.46986e-10
-8.11677e-12
4.291e-11
5.64755e-07
4.18017e-11
6.05894e-11
5.64737e-07
8.41278e-11
7.32229e-11
5.64727e-07
1.26369e-10
8.06396e-11
5.64736e-07
1.70433e-10
8.32561e-11
5.64756e-07
8.15437e-11
5.64787e-07
2.11877e-10
-8.38646e-11
3.20246e-11
5.64704e-07
1.34912e-10
-2.22017e-12
5.31167e-11
5.64722e-07
4.75645e-11
8.96303e-11
5.64735e-07
9.00599e-11
1.13261e-10
5.64736e-07
1.31332e-10
1.20791e-10
5.64734e-07
1.74878e-10
1.16489e-10
5.64723e-07
1.10525e-10
5.647e-07
2.16531e-10
-6.77035e-11
5.06416e-11
5.64433e-07
1.0934e-10
1.14637e-11
6.42959e-11
5.64616e-07
5.43294e-11
1.20469e-10
5.64724e-07
8.91395e-11
1.5488e-10
5.64756e-07
1.2295e-10
1.63308e-10
5.64723e-07
1.60324e-10
1.53568e-10
5.64616e-07
1.43322e-10
5.64429e-07
1.99733e-10
-3.85457e-11
5.63992e-07
1.06566e-10
3.96879e-11
2.38009e-11
5.6443e-07
9.14987e-11
5.55653e-11
5.64702e-07
1.58736e-10
8.27759e-11
5.64788e-07
1.97724e-10
1.11432e-10
5.64701e-07
2.05892e-10
1.44194e-10
5.64429e-07
1.94416e-10
5.63985e-07
1.79484e-10
1.82939e-10
-1.62138e-10
-1.67569e-10
5.63898e-07
2.14675e-10
2.17001e-10
-6.00531e-11
-1.99974e-10
5.64319e-07
2.72909e-10
9.27586e-12
-2.39545e-10
5.6458e-07
3.42062e-10
7.66097e-11
-2.58654e-10
5.64661e-07
3.69238e-10
1.40718e-10
-2.44607e-10
5.64576e-07
3.55592e-10
2.1157e-10
-2.03683e-10
5.64313e-07
3.01333e-10
-1.73672e-10
5.63884e-07
2.79165e-10
2.61361e-10
-1.98807e-10
-7.14418e-11
5.64319e-07
2.77257e-10
-8.65165e-11
-9.32645e-11
5.64481e-07
4.82378e-12
-1.13627e-10
5.64573e-07
9.26253e-11
-1.24006e-10
5.64598e-07
1.79399e-10
-1.11247e-10
5.64569e-07
2.69404e-10
-8.43386e-11
5.64475e-07
-6.66089e-11
5.64308e-07
3.5253e-10
-2.40197e-10
-5.81907e-12
5.64581e-07
3.46857e-10
-1.10456e-10
-7.34942e-12
5.64573e-07
2.18116e-12
-6.86342e-12
5.64566e-07
1.10228e-10
-3.90638e-12
5.6456e-07
2.17481e-10
6.23309e-12
5.64562e-07
3.23158e-10
1.81542e-11
5.64567e-07
2.62321e-11
5.6457e-07
4.1355e-10
-2.62602e-10
5.49811e-11
5.64663e-07
3.76355e-10
-1.2244e-10
7.41059e-11
5.64599e-07
2.27233e-12
9.65885e-11
5.6456e-07
1.22346e-10
1.13279e-10
5.64543e-07
2.4035e-10
1.21082e-10
5.64556e-07
3.52713e-10
1.21067e-10
5.64593e-07
1.16727e-10
5.64652e-07
4.49837e-10
-2.52184e-10
1.19392e-10
5.64578e-07
3.61655e-10
-1.1337e-10
1.55616e-10
5.6457e-07
8.08291e-12
1.99831e-10
5.64563e-07
1.25119e-10
2.28366e-10
5.64557e-07
2.39339e-10
2.33173e-10
5.64559e-07
3.49276e-10
2.2046e-10
5.64564e-07
2.03095e-10
5.64568e-07
4.46108e-10
-2.21847e-10
1.83409e-10
5.64314e-07
3.26518e-10
-9.24577e-11
2.33097e-10
5.64476e-07
1.51533e-11
2.99371e-10
5.64568e-07
1.18955e-10
3.37941e-10
5.64593e-07
2.19664e-10
3.41471e-10
5.64564e-07
3.17988e-10
3.18103e-10
5.6447e-07
2.88315e-10
5.64305e-07
4.08251e-10
-1.76986e-10
5.63886e-07
2.79522e-10
2.34627e-10
-7.2783e-11
5.6431e-07