/*--------------------------------*- C++ -*----------------------------------*\
| =========                 |                                                 |
| \\      /  F ield         | OpenFOAM: The Open Source CFD Toolbox           |
|  \\    /   O peration     | Version:  plus.master.MPPICInterFoam            |
|   \\  /    A nd           | Web:      www.OpenFOAM.com                      |
|    \\/     M anipulation  |                                                 |
\*---------------------------------------------------------------------------*/
FoamFile
{
    version     2.0;
    format      ascii;
    class       volVectorField;
    location    "1.8";
    object      U;
}
// * * * * * * * * * * * * * * * * * * * * * * * * * * * * * * * * * * * * * //

dimensions      [0 1 -1 0 0 0 0];

internalField   nonuniform List<vector> 
11821
(
(5.56315e-06 7.95788e-06 0.0418197)
(9.7219e-06 7.22971e-06 0.041813)
(7.46017e-06 1.1772e-05 0.0417995)
(1.02868e-05 3.49584e-06 0.0418212)
(1.45003e-05 5.51402e-06 0.0418003)
(1.4713e-05 1.23504e-05 0.041771)
(6.96438e-06 5.83748e-06 0.0417901)
(5.8347e-06 4.28445e-06 0.0418166)
(9.96808e-06 4.4774e-06 0.0418351)
(1.12451e-05 4.97055e-06 0.0418402)
(1.29549e-05 6.27152e-06 0.0418323)
(1.44143e-05 7.98053e-06 0.0418112)
(1.46679e-05 8.5612e-06 0.0417821)
(5.72797e-06 3.54504e-06 0.0418172)
(6.99368e-06 4.89017e-06 0.0418277)
(9.92828e-06 5.22689e-06 0.0418352)
(1.04785e-05 5.56246e-06 0.0418366)
(1.17843e-05 6.18227e-06 0.0418323)
(1.34801e-05 6.87904e-06 0.0418222)
(1.54707e-05 6.93655e-06 0.0418092)
(6.05447e-06 7.2821e-06 0.0418363)
(7.04612e-06 7.56275e-06 0.0418359)
(9.6128e-06 7.50879e-06 0.0418365)
(9.86865e-06 7.47644e-06 0.0418357)
(1.07486e-05 7.58221e-06 0.0418336)
(1.19671e-05 7.74649e-06 0.0418304)
(1.34915e-05 7.1625e-06 0.0418283)
(6.50061e-06 8.31453e-06 0.0418421)
(7.30156e-06 8.11033e-06 0.041838)
(9.42196e-06 7.78757e-06 0.0418363)
(9.24813e-06 7.29412e-06 0.0418349)
(9.70162e-06 6.93033e-06 0.0418335)
(9.96006e-06 6.37672e-06 0.0418326)
(1.07212e-05 6.05091e-06 0.0418336)
(7.70905e-06 9.79564e-06 0.0418349)
(7.97224e-06 9.40219e-06 0.0418343)
(9.42643e-06 8.76759e-06 0.0418349)
(8.79269e-06 7.83606e-06 0.0418342)
(8.55076e-06 6.84574e-06 0.0418321)
(8.40401e-06 5.9368e-06 0.0418288)
(8.61569e-06 6.44451e-06 0.0418272)
(9.61946e-06 1.1598e-05 0.0418147)
(8.87141e-06 1.13344e-05 0.0418249)
(9.5722e-06 1.02611e-05 0.0418322)
(8.334e-06 8.63063e-06 0.0418338)
(7.81701e-06 6.79138e-06 0.0418291)
(7.82843e-06 6.26792e-06 0.0418196)
(7.44301e-06 6.83988e-06 0.0418074)
(8.35447e-06 1.0675e-05 0.0417857)
(8.34646e-06 1.30123e-05 0.0418121)
(8.86117e-06 1.19146e-05 0.04183)
(7.78413e-06 8.67751e-06 0.0418346)
(8.1799e-06 7.32127e-06 0.0418279)
(8.77142e-06 6.13599e-06 0.0418077)
(8.08831e-06 6.66177e-06 0.0417792)
(3.85852e-06 2.97875e-06 0.0417974)
(1.91742e-06 -1.12365e-06 0.041825)
(5.79206e-06 -1.91504e-06 0.0418439)
(6.38826e-06 -1.24505e-06 0.0418495)
(7.51307e-06 1.54775e-06 0.0418423)
(9.20146e-06 6.02982e-06 0.0418221)
(1.18468e-05 1.02263e-05 0.0417936)
(-2.00764e-07 6.33299e-07 0.0418255)
(2.28863e-06 1.17422e-06 0.0418369)
(5.46761e-06 8.82885e-07 0.0418448)
(5.81416e-06 1.24715e-06 0.0418467)
(7.30753e-06 2.63934e-06 0.041843)
(9.98751e-06 5.03044e-06 0.0418336)
(1.4385e-05 6.94031e-06 0.0418211)
(-9.61311e-07 4.50856e-06 0.0418449)
(1.70371e-06 4.40762e-06 0.0418454)
(4.99394e-06 4.10574e-06 0.0418465)
(5.49436e-06 4.17345e-06 0.0418462)
(7.02954e-06 4.76771e-06 0.0418446)
(9.56881e-06 5.72124e-06 0.0418419)
(1.34857e-05 6.46499e-06 0.0418401)
(-3.28153e-07 4.91203e-06 0.041851)
(1.98057e-06 4.86939e-06 0.0418477)
(4.98507e-06 4.65259e-06 0.0418466)
(5.288e-06 4.46119e-06 0.0418456)
(6.55413e-06 4.3073e-06 0.0418448)
(8.57586e-06 4.24639e-06 0.0418444)
(1.17208e-05 4.28695e-06 0.0418464)
(2.2987e-06 6.14301e-06 0.0418442)
(3.49936e-06 6.46122e-06 0.0418444)
(5.49976e-06 6.23847e-06 0.0418454)
(5.12963e-06 5.70218e-06 0.0418452)
(5.7373e-06 4.79488e-06 0.0418438)
(6.99942e-06 3.81421e-06 0.0418413)
(9.21163e-06 3.07163e-06 0.0418398)
(6.68516e-06 8.44815e-06 0.0418243)
(5.90419e-06 9.381e-06 0.0418353)
(6.41318e-06 8.88352e-06 0.041843)
(5.08611e-06 7.69795e-06 0.0418451)
(4.88074e-06 5.90892e-06 0.0418415)
(5.31559e-06 3.98509e-06 0.0418324)
(6.45174e-06 2.75264e-06 0.0418202)
(8.13732e-06 9.26658e-06 0.0417959)
(7.26923e-06 1.36977e-05 0.0418229)
(6.85662e-06 1.27572e-05 0.0418414)
(5.12613e-06 1.06848e-05 0.0418471)
(4.3429e-06 7.88156e-06 0.0418401)
(4.36042e-06 4.87328e-06 0.0418203)
(4.08249e-06 2.42759e-06 0.0417924)
(1.03812e-06 2.96301e-07 0.0418119)
(-1.60486e-06 -5.6367e-06 0.0418402)
(2.10426e-06 -7.11192e-06 0.0418594)
(2.15894e-06 -6.28059e-06 0.0418654)
(3.16493e-06 -2.34688e-06 0.0418586)
(4.75788e-06 4.07284e-06 0.041839)
(7.93328e-06 1.05343e-05 0.0418104)
(-4.94203e-06 -2.2866e-06 0.0418406)
(-1.49551e-06 -1.78224e-06 0.0418527)
(1.58466e-06 -2.43054e-06 0.0418609)
(1.86447e-06 -1.90605e-06 0.0418633)
(3.38892e-06 1.55843e-07 0.04186)
(6.44544e-06 3.50542e-06 0.041851)
(1.22862e-05 6.84479e-06 0.0418385)
(-6.33558e-06 1.38344e-06 0.0418601)
(-2.21269e-06 1.25999e-06 0.0418612)
(1.23658e-06 1.07452e-06 0.0418628)
(1.88426e-06 1.44133e-06 0.0418629)
(3.827e-06 2.60284e-06 0.0418619)
(7.12218e-06 4.35921e-06 0.0418596)
(1.25973e-05 5.99195e-06 0.0418579)
(-5.55887e-06 1.48388e-06 0.0418664)
(-1.75986e-06 1.37829e-06 0.0418639)
(1.58888e-06 1.58555e-06 0.0418632)
(2.26721e-06 1.95289e-06 0.0418626)
(4.11663e-06 2.31337e-06 0.0418624)
(6.97592e-06 2.66704e-06 0.0418623)
(1.16559e-05 3.03043e-06 0.0418642)
(-1.79391e-06 2.50555e-06 0.0418599)
(2.67811e-07 3.16737e-06 0.0418609)
(2.79445e-06 3.72408e-06 0.0418623)
(2.64104e-06 3.89011e-06 0.0418626)
(3.61013e-06 3.25083e-06 0.0418616)
(5.54434e-06 2.17336e-06 0.0418594)
(9.16838e-06 1.10093e-06 0.0418578)
(4.52333e-06 4.76601e-06 0.0418405)
(3.92294e-06 6.62071e-06 0.0418521)
(4.50918e-06 7.16382e-06 0.0418602)
(2.95349e-06 6.72552e-06 0.0418627)
(2.61774e-06 4.98464e-06 0.0418596)
(3.34489e-06 2.55222e-06 0.0418507)
(5.58361e-06 3.69535e-07 0.0418383)
(7.87523e-06 5.52575e-06 0.041812)
(6.61508e-06 1.22029e-05 0.0418397)
(5.81123e-06 1.25335e-05 0.0418587)
(3.23592e-06 1.1169e-05 0.0418647)
(1.69349e-06 8.25919e-06 0.041858)
(1.42199e-06 4.42659e-06 0.0418384)
(1.49717e-06 1.9991e-07 0.0418098)
(-8.93279e-07 -1.39523e-06 0.0418298)
(-2.98193e-06 -7.91161e-06 0.0418591)
(3.42518e-08 -1.00041e-05 0.0418784)
(-3.83395e-07 -9.48663e-06 0.0418847)
(4.49034e-07 -5.43587e-06 0.0418781)
(1.85269e-06 1.69723e-06 0.0418585)
(4.73834e-06 9.13691e-06 0.0418292)
(-7.44005e-06 -3.58422e-06 0.0418593)
(-3.08935e-06 -3.37354e-06 0.0418719)
(-3.16476e-07 -4.32469e-06 0.0418803)
(-3.61248e-07 -3.8466e-06 0.041883)
(8.36409e-07 -1.41238e-06 0.0418801)
(3.71007e-06 2.27657e-06 0.0418713)
(9.7424e-06 6.01444e-06 0.0418584)
(-9.4157e-06 -5.73626e-07 0.0418788)
(-4.06851e-06 -5.92692e-07 0.0418804)
(-5.94996e-07 -8.33785e-07 0.041882)
(3.13609e-08 -3.37074e-07 0.0418825)
(1.92213e-06 1.20214e-06 0.0418819)
(5.29798e-06 3.45041e-06 0.0418799)
(1.12822e-05 5.43398e-06 0.041878)
(-8.76975e-06 -8.87027e-07 0.0418852)
(-3.63127e-06 -6.03531e-07 0.0418833)
(-1.38926e-07 -2.49676e-07 0.0418827)
(7.45779e-07 4.74113e-07 0.0418824)
(2.79178e-06 1.20588e-06 0.0418825)
(5.99551e-06 1.936e-06 0.0418827)
(1.13418e-05 2.53448e-06 0.0418844)
(-4.74507e-06 -6.15635e-08 0.0418789)
(-1.21286e-06 7.60292e-07 0.0418806)
(1.39546e-06 1.86146e-06 0.0418821)
(1.54581e-06 2.66316e-06 0.0418826)
(2.66785e-06 2.41598e-06 0.0418819)
(4.8927e-06 1.45199e-06 0.0418799)
(9.19043e-06 4.4572e-07 0.041878)
(2.48622e-06 1.96271e-06 0.0418595)
(2.71125e-06 3.91767e-06 0.0418719)
(3.63029e-06 5.50247e-06 0.0418802)
(2.22099e-06 5.9307e-06 0.0418829)
(1.7383e-06 4.53213e-06 0.04188)
(2.52094e-06 1.99289e-06 0.0418713)
(5.29402e-06 -4.33622e-07 0.0418583)
(6.62119e-06 2.27254e-06 0.0418304)
(5.83979e-06 9.57904e-06 0.0418592)
(5.27515e-06 1.14616e-05 0.0418785)
(2.61038e-06 1.11738e-05 0.0418847)
(7.21299e-07 8.66191e-06 0.0418782)
(2.11601e-07 4.63678e-06 0.0418583)
(5.82791e-07 -4.93733e-08 0.0418285)
(-2.08223e-06 -2.0855e-06 0.0418479)
(-2.8212e-06 -7.74499e-06 0.0418785)
(-6.25172e-07 -1.03231e-05 0.0418979)
(-1.31023e-06 -1.0434e-05 0.0419042)
(-9.73754e-07 -7.17655e-06 0.0418977)
(-1.10073e-07 -9.72507e-07 0.0418778)
(1.85075e-06 5.55925e-06 0.0418472)
(-7.5444e-06 -3.24781e-06 0.0418786)
(-3.01699e-06 -3.35544e-06 0.0418919)
(-7.99429e-07 -4.76614e-06 0.0419002)
(-1.03263e-06 -4.60247e-06 0.0419029)
(-3.0322e-07 -2.35272e-06 0.0419002)
(1.66534e-06 1.16566e-06 0.0418917)
(6.48801e-06 4.38375e-06 0.041878)
(-9.88273e-06 -1.20045e-06 0.0418981)
(-4.24978e-06 -1.22839e-06 0.0419003)
(-1.04469e-06 -1.59826e-06 0.0419018)
(-2.9586e-07 -1.1817e-06 0.0419023)
(1.24221e-06 3.3298e-07 0.0419019)
(3.96987e-06 2.51414e-06 0.0419001)
(9.13982e-06 4.36403e-06 0.0418978)
(-9.54501e-06 -1.7384e-06 0.0419045)
(-3.84411e-06 -1.25568e-06 0.041903)
(-4.80649e-07 -8.15919e-07 0.0419024)
(5.41997e-07 -5.27372e-08 0.0419022)
(2.39943e-06 7.19948e-07 0.0419024)
(5.24893e-06 1.51656e-06 0.0419028)
(1.00957e-05 2.12653e-06 0.0419042)
(-6.00793e-06 -1.44743e-06 0.0418982)
(-1.48929e-06 -4.93325e-07 0.0419005)
(1.09616e-06 8.64491e-07 0.041902)
(1.5576e-06 1.94791e-06 0.0419025)
(2.62018e-06 1.96176e-06 0.041902)
(4.664e-06 1.21738e-06 0.0419001)
(8.68645e-06 4.97697e-07 0.0418977)
(3.02531e-07 -1.28534e-07 0.0418785)
(2.2759e-06 1.62112e-06 0.041892)
(3.45771e-06 3.94557e-06 0.0419003)
(2.45341e-06 4.97873e-06 0.0419029)
(1.98479e-06 4.07897e-06 0.0419002)
(2.63156e-06 1.85547e-06 0.0418915)
(5.31584e-06 -1.94937e-07 0.0418776)
(4.32583e-06 -6.81409e-08 0.0418481)
(5.04451e-06 6.32631e-06 0.0418785)
(5.10694e-06 9.21927e-06 0.0418981)
(2.93182e-06 9.88228e-06 0.0419044)
(1.2459e-06 8.16159e-06 0.0418978)
(6.64477e-07 4.68421e-06 0.0418776)
(1.14732e-06 5.83915e-07 0.0418464)
(-3.33846e-06 -2.4822e-06 0.0418655)
(-2.39661e-06 -6.08104e-06 0.0418975)
(-1.09533e-06 -8.41271e-06 0.041917)
(-1.73225e-06 -8.90256e-06 0.0419232)
(-1.95048e-06 -6.9393e-06 0.0419167)
(-1.62509e-06 -2.7668e-06 0.0418965)
(-3.15184e-07 1.62871e-06 0.0418645)
(-6.50748e-06 -1.96427e-06 0.0418975)
(-2.54113e-06 -2.4142e-06 0.0419118)
(-9.6501e-07 -3.8825e-06 0.0419198)
(-1.10319e-06 -4.00594e-06 0.0419224)
(-9.05541e-07 -2.42624e-06 0.0419197)
(-6.82216e-08 3.78602e-07 0.0419112)
(2.88027e-06 2.53364e-06 0.0418969)
(-8.1625e-06 -8.9976e-07 0.0419171)
(-3.51873e-06 -9.74331e-07 0.0419199)
(-1.0187e-06 -1.44381e-06 0.0419213)
(-2.67415e-07 -1.22352e-06 0.0419217)
(7.50042e-07 -1.45785e-07 0.0419213)
(2.44306e-06 1.50993e-06 0.0419196)
(5.88349e-06 2.86103e-06 0.0419168)
(-7.84674e-06 -1.57851e-06 0.0419234)
(-3.0238e-06 -1.10333e-06 0.0419225)
(-3.49447e-07 -6.86001e-07 0.0419217)
(6.7766e-07 -1.17558e-07 0.0419214)
(1.95912e-06 4.67821e-07 0.0419217)
(3.90362e-06 1.03209e-06 0.0419221)
(7.34937e-06 1.45883e-06 0.0419231)
(-5.31073e-06 -1.59317e-06 0.041917)
(-9.93189e-07 -8.1468e-07 0.0419199)
(1.15622e-06 4.26933e-07 0.0419214)
(1.7154e-06 1.3512e-06 0.0419217)
(2.47029e-06 1.44139e-06 0.0419212)
(3.89355e-06 9.20926e-07 0.0419194)
(6.81691e-06 4.66982e-07 0.0419165)
(-9.86757e-07 -1.04438e-06 0.041897)
(1.97183e-06 2.68258e-07 0.0419115)
(3.19648e-06 2.42846e-06 0.0419197)
(2.701e-06 3.5287e-06 0.0419222)
(2.28981e-06 3.05935e-06 0.0419194)
(2.63308e-06 1.45179e-06 0.0419107)
(4.54998e-06 9.33383e-08 0.041896)
(2.28333e-06 -1.06268e-06 0.0418651)
(4.08035e-06 3.26356e-06 0.0418972)
(4.57793e-06 6.16213e-06 0.0419169)
(3.26182e-06 7.17504e-06 0.0419232)
(2.05558e-06 6.20928e-06 0.0419165)
(1.56614e-06 3.69209e-06 0.0418961)
(1.89342e-06 7.29194e-07 0.0418635)
(-4.45944e-06 -2.79821e-06 0.0418831)
(-2.37331e-06 -4.22546e-06 0.0419163)
(-1.92487e-06 -5.50123e-06 0.041936)
(-2.11647e-06 -5.87446e-06 0.0419421)
(-2.28634e-06 -5.09292e-06 0.0419355)
(-2.19749e-06 -3.14214e-06 0.0419151)
(-1.13257e-06 -1.01715e-06 0.0418819)
(-5.26344e-06 -1.01149e-06 0.0419163)
(-2.22939e-06 -1.49257e-06 0.0419311)
(-1.46433e-06 -2.2359e-06 0.041939)
(-1.40181e-06 -2.35497e-06 0.0419413)
(-1.33911e-06 -1.57702e-06 0.0419387)
(-1.08456e-06 -7.90259e-08 0.0419302)
(2.04994e-07 1.00313e-06 0.0419153)
(-5.70179e-06 -7.06746e-07 0.0419361)
(-2.31931e-06 -7.79721e-07 0.0419391)
(-1.06887e-06 -1.00118e-06 0.0419403)
(-5.71288e-07 -9.04878e-07 0.0419405)
(-1.72883e-08 -3.36638e-07 0.0419401)
(7.24844e-07 5.53626e-07 0.0419385)
(2.41664e-06 1.23045e-06 0.0419354)
(-5.17705e-06 -9.25771e-07 0.0419423)
(-1.64606e-06 -6.39155e-07 0.0419414)
(-3.39745e-07 -4.59358e-07 0.0419406)
(2.80721e-07 -1.77619e-07 0.0419401)
(9.68349e-07 1.03632e-07 0.0419403)
(1.89285e-06 3.49444e-07 0.0419408)
(3.67441e-06 5.34971e-07 0.0419416)
(-3.61262e-06 -8.04658e-07 0.0419358)
(-3.0114e-07 -4.20278e-07 0.0419389)
(7.74712e-07 2.27727e-07 0.0419402)
(1.16921e-06 7.45516e-07 0.0419403)
(1.54738e-06 7.5074e-07 0.0419398)
(2.22216e-06 3.90926e-07 0.0419381)
(3.7668e-06 1.01602e-07 0.0419349)
(-1.44942e-06 -4.49993e-07 0.0419154)
(1.47607e-06 4.24271e-08 0.0419304)
(2.22612e-06 1.32228e-06 0.0419386)
(2.04227e-06 1.96254e-06 0.0419409)
(1.71977e-06 1.68801e-06 0.0419381)
(1.78825e-06 7.28841e-07 0.0419295)
(2.75524e-06 -4.98048e-08 0.0419143)
(8.91027e-07 6.68478e-08 0.0418821)
(2.71606e-06 1.65562e-06 0.0419154)
(3.21967e-06 3.42072e-06 0.0419355)
(2.56467e-06 4.01272e-06 0.0419417)
(1.83896e-06 3.48035e-06 0.041935)
(1.49979e-06 2.01882e-06 0.0419143)
(1.5895e-06 2.03447e-07 0.0418808)
(-4.81279e-06 -3.57584e-06 0.0419002)
(-1.68892e-06 -3.24261e-06 0.0419339)
(-1.897e-06 -3.09605e-06 0.0419538)
(-1.77584e-06 -2.95911e-06 0.0419599)
(-1.69467e-06 -2.82264e-06 0.0419533)
(-1.27568e-06 -2.39183e-06 0.0419328)
(3.71676e-08 -2.06954e-06 0.0418991)
(-4.06643e-06 -6.62826e-07 0.041934)
(-1.97845e-06 -1.51676e-06 0.0419487)
(-1.50262e-06 -1.3868e-06 0.0419566)
(-1.06814e-06 -1.14162e-06 0.0419588)
(-7.29328e-07 -7.27917e-07 0.0419562)
(-5.88543e-07 -1.19516e-07 0.0419479)
(-2.05025e-07 3.10061e-07 0.0419329)
(-3.32066e-06 -6.79513e-07 0.0419539)
(-1.42974e-06 -8.44793e-07 0.0419566)
(-8.07296e-07 -6.00357e-07 0.0419577)
(-4.58857e-07 -4.03815e-07 0.0419578)
(-1.02833e-07 -2.01952e-07 0.0419574)
(1.02e-07 2.69115e-08 0.041956)
(5.37731e-07 3.06565e-07 0.041953)
(-2.5162e-06 -4.35719e-07 0.04196)
(-6.84122e-07 -2.13619e-07 0.0419588)
(-1.55192e-07 -7.69757e-08 0.0419578)
(3.86161e-08 -2.29916e-08 0.0419573)
(2.91187e-07 1.21674e-10 0.0419576)
(4.71619e-07 -1.74176e-08 0.0419583)
(9.42613e-07 -3.31742e-08 0.0419593)
(-1.76583e-06 -1.53248e-07 0.0419534)
(6.18446e-08 3.14459e-07 0.0419563)
(4.03288e-07 4.45333e-07 0.0419575)
(4.59562e-07 4.4822e-07 0.0419576)
(5.86639e-07 3.44594e-07 0.0419572)
(6.84111e-07 1.24622e-07 0.0419557)
(1.06353e-06 -1.0392e-07 0.0419527)
(-1.38793e-06 4.20297e-07 0.0419329)
(9.06508e-07 6.62113e-07 0.041948)
(1.03869e-06 9.37074e-07 0.0419561)
(8.95232e-07 9.33215e-07 0.0419583)
(7.68916e-07 7.10831e-07 0.0419557)
(6.66097e-07 2.96736e-07 0.0419473)
(8.05268e-07 -1.43079e-07 0.0419322)
(4.79962e-08 2.23876e-06 0.0418991)
(1.52097e-06 1.54581e-06 0.0419329)
(1.61756e-06 1.75418e-06 0.0419531)
(1.17351e-06 1.67861e-06 0.0419593)
(8.42772e-07 1.29991e-06 0.0419527)
(6.07425e-07 6.75753e-07 0.0419322)
(5.14876e-07 -1.32167e-07 0.0418983)
(-3.36241e-06 -3.87939e-06 0.0419154)
(-2.60685e-07 -2.57487e-06 0.0419488)
(-5.23707e-07 -1.40223e-06 0.0419687)
(-1.44091e-07 -7.29519e-07 0.041975)
(8.40252e-08 -6.96678e-07 0.0419685)
(6.0212e-07 -1.05874e-06 0.0419483)
(2.17007e-06 -1.66482e-06 0.0419147)
(-2.02378e-06 -6.39878e-07 0.041949)
(-1.14483e-06 -1.52998e-06 0.0419634)
(-5.79677e-07 -8.21234e-07 0.0419712)
(1.41313e-07 -2.70733e-07 0.0419735)
(7.87729e-07 1.85807e-08 0.041971)
(1.1013e-06 2.31247e-07 0.041963)
(1.20111e-06 5.55721e-07 0.0419484)
(-7.9906e-07 -9.66395e-07 0.0419688)
(-3.80374e-07 -9.27702e-07 0.0419713)
(3.97563e-08 -3.15231e-07 0.0419723)
(4.22114e-07 9.926e-08 0.0419724)
(7.56219e-07 2.29185e-07 0.0419721)
(7.41462e-07 1.72397e-07 0.0419709)
(5.94977e-07 3.01484e-07 0.0419684)
(-5.84975e-08 -3.89053e-07 0.0419751)
(2.39538e-07 1.8164e-09 0.0419736)
(4.21884e-07 2.56756e-07 0.0419724)
(4.81398e-07 3.42962e-07 0.0419719)
(5.59108e-07 3.19016e-07 0.0419724)
(3.86242e-07 2.61465e-07 0.0419733)
(1.69089e-07 2.54277e-07 0.0419748)
(4.75809e-08 8.36092e-08 0.0419685)
(4.91729e-07 7.58212e-07 0.0419711)
(4.80198e-07 7.13045e-07 0.0419722)
(4.11725e-07 5.61937e-07 0.0419724)
(4.25647e-07 4.82982e-07 0.0419721)
(2.49105e-07 4.60951e-07 0.0419709)
(7.55412e-10 3.41036e-07 0.0419684)
(-8.36917e-07 8.04017e-07 0.0419483)
(5.7679e-07 1.14314e-06 0.041963)
(4.08392e-07 9.06885e-07 0.041971)
(3.40599e-07 6.0241e-07 0.0419734)
(3.66384e-07 5.13093e-07 0.0419709)
(2.45759e-07 5.43694e-07 0.0419628)
(2.34585e-08 3.70526e-07 0.0419482)
(-1.54555e-07 3.48839e-06 0.0419146)
(8.0741e-07 1.73165e-06 0.0419483)
(5.82317e-07 1.05414e-06 0.0419685)
(2.72199e-07 6.28882e-07 0.0419748)
(1.69779e-07 4.59333e-07 0.0419684)
(2.25366e-08 4.65422e-07 0.0419482)
(-1.82051e-08 4.39176e-07 0.0419147)
(-1.64136e-06 -3.35737e-06 0.0419275)
(9.90117e-07 -1.70241e-06 0.0419606)
(8.31011e-07 -5.21454e-07 0.0419805)
(1.28592e-06 2.97391e-07 0.0419868)
(1.41082e-06 3.1478e-07 0.0419805)
(1.85231e-06 -2.95088e-07 0.0419605)
(3.35201e-06 -1.27459e-06 0.0419275)
(-2.94267e-07 -3.94197e-07 0.0419606)
(-1.24228e-07 -1.0209e-06 0.0419749)
(4.52894e-07 -3.1343e-07 0.0419827)
(1.28285e-06 2.68597e-07 0.0419852)
(1.78959e-06 5.04446e-07 0.0419828)
(2.14019e-06 5.92487e-07 0.0419749)
(2.16754e-06 8.24479e-07 0.0419608)
(6.35298e-07 -8.85399e-07 0.0419804)
(4.12082e-07 -6.64501e-07 0.0419827)
(7.76678e-07 4.92432e-08 0.0419838)
(1.27202e-06 4.90174e-07 0.041984)
(1.45879e-06 6.11096e-07 0.0419838)
(1.41108e-06 5.01278e-07 0.0419828)
(1.10539e-06 5.13395e-07 0.0419807)
(9.8863e-07 -2.53335e-07 0.0419867)
(7.31939e-07 2.2108e-07 0.0419852)
(8.72741e-07 6.17657e-07 0.041984)
(1.03874e-06 7.25005e-07 0.0419836)
(9.87349e-07 7.41392e-07 0.0419842)
(7.73478e-07 7.08298e-07 0.0419853)
(3.90593e-07 7.06864e-07 0.0419872)
(6.5777e-07 1.44833e-07 0.0419804)
(6.42815e-07 8.38233e-07 0.0419828)
(5.90447e-07 8.88264e-07 0.0419839)
(6.38573e-07 7.58142e-07 0.0419842)
(6.11762e-07 7.76581e-07 0.041984)
(4.40171e-07 8.81894e-07 0.041983)
(8.43386e-08 8.78734e-07 0.041981)
(-7.02631e-07 6.85287e-07 0.0419604)
(2.95118e-07 1.10419e-06 0.0419749)
(1.27726e-07 8.88916e-07 0.0419829)
(2.48989e-07 6.55086e-07 0.0419854)
(3.57389e-07 7.15348e-07 0.0419831)
(3.3888e-07 9.64439e-07 0.0419752)
(1.91891e-07 9.95805e-07 0.0419611)
(-7.40003e-07 3.39637e-06 0.0419274)
(2.11268e-07 1.48775e-06 0.0419608)
(-2.74726e-08 7.28605e-07 0.0419809)
(-7.61392e-08 3.8827e-07 0.0419873)
(-2.10496e-08 4.36528e-07 0.0419811)
(-4.73625e-09 8.15359e-07 0.0419612)
(1.89391e-07 1.26837e-06 0.0419282)
(-1.12765e-06 -2.32431e-06 0.041936)
(1.2829e-06 -9.26457e-07 0.041969)
(9.58004e-07 -4.38535e-07 0.0419889)
(1.28604e-06 -9.0909e-08 0.0419953)
(1.21978e-06 -1.98051e-07 0.041989)
(1.52589e-06 -7.06628e-07 0.0419692)
(2.7397e-06 -2.039e-06 0.0419367)
(1.21441e-09 2.34818e-07 0.0419688)
(2.77383e-07 -3.39223e-07 0.041983)
(6.36066e-07 -5.65563e-08 0.0419911)
(1.25812e-06 1.87876e-07 0.0419937)
(1.45599e-06 3.34738e-07 0.0419913)
(1.60335e-06 4.1935e-07 0.0419834)
(1.5119e-06 3.43412e-07 0.0419696)
(1.65948e-07 -4.05793e-07 0.0419887)
(3.50193e-07 -1.65814e-07 0.041991)
(7.00668e-07 2.57668e-07 0.0419923)
(1.18097e-06 4.39113e-07 0.0419927)
(1.22409e-06 4.65041e-07 0.0419925)
(1.17059e-06 3.24335e-07 0.0419915)
(9.16087e-07 1.70501e-07 0.0419896)
(8.51495e-08 6.72087e-08 0.0419951)
(3.50704e-07 5.16219e-07 0.0419936)
(5.51749e-07 7.86581e-07 0.0419927)
(8.74333e-07 8.02283e-07 0.0419923)
(8.60804e-07 7.68405e-07 0.0419929)
(7.82418e-07 6.86033e-07 0.0419941)
(5.64811e-07 5.85191e-07 0.0419961)
(-3.83609e-07 1.79228e-07 0.0419889)
(1.5148e-07 7.13157e-07 0.0419913)
(1.92857e-07 8.13051e-07 0.0419925)
(4.7871e-07 7.88094e-07 0.0419929)
(5.39241e-07 8.08475e-07 0.0419928)
(5.38357e-07 8.6546e-07 0.0419918)
(4.1713e-07 8.76396e-07 0.0419899)
(-1.62232e-06 4.12575e-07 0.0419692)
(-2.08175e-07 6.71702e-07 0.0419835)
(-2.73006e-07 7.32984e-07 0.0419915)
(9.2174e-08 7.30276e-07 0.0419941)
(2.88752e-07 8.1394e-07 0.0419918)
(4.3377e-07 9.87985e-07 0.041984)
(5.61366e-07 1.10105e-06 0.0419702)
(-2.099e-06 2.63465e-06 0.0419367)
(-5.2485e-07 8.57646e-07 0.0419697)
(-5.70348e-07 5.40034e-07 0.0419897)
(-2.88484e-07 5.26198e-07 0.0419962)
(-1.6481e-08 6.64014e-07 0.04199)
(2.42415e-07 1.00804e-06 0.0419703)
(7.61346e-07 1.60819e-06 0.0419376)
(-1.04893e-06 -1.16279e-06 0.0419411)
(1.17524e-06 -3.5808e-07 0.041974)
(6.17656e-07 -7.66615e-07 0.0419941)
(8.06983e-07 -1.03181e-06 0.0420006)
(5.02045e-07 -1.23344e-06 0.0419944)
(6.39524e-07 -1.33621e-06 0.0419746)
(1.47153e-06 -2.64276e-06 0.0419421)
(-2.90146e-07 9.95339e-07 0.0419738)
(4.03236e-07 3.26935e-07 0.0419882)
(5.74323e-07 6.29786e-08 0.0419965)
(9.38727e-07 -1.13808e-07 0.0419992)
(7.88192e-07 -2.89984e-08 0.0419968)
(7.13843e-07 1.94071e-07 0.0419889)
(5.89859e-07 -6.89138e-08 0.041975)
(-8.26552e-07 2.75711e-07 0.0419939)
(5.08478e-08 4.39223e-07 0.0419964)
(4.30984e-07 4.24872e-07 0.0419979)
(9.31359e-07 2.90755e-07 0.0419983)
(8.82907e-07 2.56914e-07 0.0419982)
(8.86819e-07 1.88209e-07 0.0419971)
(8.40662e-07 -2.43094e-08 0.0419951)
(-1.19077e-06 4.39146e-07 0.0420004)
(-1.52967e-07 7.9423e-07 0.0419991)
(2.02797e-07 9.06599e-07 0.0419983)
(7.69452e-07 8.54946e-07 0.0419981)
(8.64642e-07 8.09602e-07 0.0419987)
(9.98205e-07 7.29279e-07 0.0419998)
(1.11492e-06 5.78683e-07 0.0420016)
(-1.48538e-06 2.52546e-07 0.0419942)
(-2.11102e-07 5.44087e-07 0.0419968)
(2.28595e-08 7.92629e-07 0.0419982)
(6.0761e-07 9.23383e-07 0.0419987)
(7.89259e-07 9.64426e-07 0.0419986)
(1.00376e-06 9.50979e-07 0.0419974)
(1.25761e-06 9.65461e-07 0.0419954)
(-2.15142e-06 1.63112e-07 0.0419746)
(-3.13776e-07 2.36975e-07 0.0419889)
(-1.34669e-07 7.34802e-07 0.0419971)
(4.44664e-07 1.05233e-06 0.0419998)
(6.83101e-07 1.16249e-06 0.0419975)
(9.5289e-07 1.17659e-06 0.0419895)
(1.3991e-06 1.27519e-06 0.0419756)
(-2.51134e-06 1.58582e-06 0.0419421)
(-6.1923e-07 3.24075e-07 0.0419751)
(-3.43926e-07 7.30909e-07 0.0419951)
(2.10607e-07 1.16905e-06 0.0420017)
(5.79041e-07 1.3798e-06 0.0419955)
(9.54578e-07 1.55905e-06 0.0419756)
(1.7707e-06 2.02671e-06 0.0419429)
(-5.49225e-07 -2.33177e-07 0.0419439)
(1.39969e-06 -1.10705e-07 0.041977)
(7.94693e-07 -1.16958e-06 0.0419973)
(8.51165e-07 -1.75182e-06 0.0420039)
(4.34286e-07 -1.86189e-06 0.0419977)
(3.68108e-07 -1.49579e-06 0.0419778)
(1.02818e-06 -2.34114e-06 0.041945)
(-3.48023e-07 1.53765e-06 0.041977)
(7.32158e-07 8.22576e-07 0.0419915)
(9.31303e-07 6.67341e-08 0.0419999)
(1.18138e-06 -2.54496e-07 0.0420026)
(8.7773e-07 -1.30517e-07 0.0420002)
(8.09023e-07 3.41511e-07 0.0419922)
(9.04678e-07 3.19892e-07 0.0419781)
(-1.37019e-06 8.20604e-07 0.0419972)
(2.11342e-08 9.50536e-07 0.0419999)
(5.79297e-07 5.80139e-07 0.0420014)
(1.28987e-06 3.92205e-07 0.0420018)
(1.31822e-06 4.24682e-07 0.0420017)
(1.56691e-06 5.76776e-07 0.0420005)
(1.91797e-06 5.07159e-07 0.0419983)
(-1.81984e-06 7.46359e-07 0.0420038)
(-2.26983e-07 1.08027e-06 0.0420025)
(4.3588e-07 1.18912e-06 0.0420018)
(1.35889e-06 1.26165e-06 0.0420016)
(1.60957e-06 1.31835e-06 0.0420021)
(2.06804e-06 1.35313e-06 0.0420032)
(2.61352e-06 1.27302e-06 0.0420049)
(-1.83007e-06 3.54837e-07 0.0419976)
(-1.14316e-07 6.687e-07 0.0420002)
(4.89165e-07 1.14929e-06 0.0420016)
(1.43507e-06 1.48998e-06 0.0420021)
(1.7356e-06 1.63097e-06 0.042002)
(2.23975e-06 1.63697e-06 0.0420008)
(2.91834e-06 1.65693e-06 0.0419985)
(-1.8657e-06 -1.18911e-07 0.0419778)
(1.35955e-07 3.01038e-07 0.0419922)
(6.28421e-07 1.31798e-06 0.0420005)
(1.46738e-06 1.91794e-06 0.0420032)
(1.72208e-06 2.10831e-06 0.0420008)
(2.14066e-06 2.03356e-06 0.0419927)
(2.92522e-06 1.98438e-06 0.0419785)
(-1.81303e-06 1.07477e-06 0.0419449)
(2.61121e-07 4.74869e-07 0.0419781)
(6.5527e-07 1.68892e-06 0.0419983)
(1.34805e-06 2.45972e-06 0.0420049)
(1.67952e-06 2.78752e-06 0.0419985)
(2.04014e-06 2.82553e-06 0.0419785)
(3.16975e-06 3.11809e-06 0.0419455)
(-1.37216e-06 -1.23818e-06 0.0419457)
(9.43044e-07 -1.47869e-06 0.0419789)
(6.92651e-07 -2.92198e-06 0.0419993)
(1.24467e-06 -3.59339e-06 0.0420059)
(1.18606e-06 -3.51052e-06 0.0419996)
(1.45944e-06 -2.7285e-06 0.0419794)
(2.64229e-06 -3.00682e-06 0.0419464)
(-1.62173e-06 9.10467e-07 0.0419789)
(3.08926e-08 2.027e-09 0.0419933)
(5.53715e-07 -8.19604e-07 0.0420015)
(1.48234e-06 -1.24814e-06 0.0420041)
(1.82713e-06 -1.01045e-06 0.0420017)
(2.39358e-06 -2.79944e-07 0.0419936)
(3.28958e-06 9.90532e-08 0.0419794)
(-3.00512e-06 5.05879e-07 0.0419993)
(-7.599e-07 3.75921e-07 0.0420015)
(3.05229e-07 1.32913e-07 0.0420028)
(1.6877e-06 -3.06383e-10 0.0420031)
(2.47512e-06 1.87181e-07 0.0420029)
(3.46741e-06 5.52014e-07 0.0420019)
(4.60979e-06 7.08005e-07 0.0419997)
(-3.57748e-06 8.923e-07 0.0420059)
(-1.1572e-06 1.1368e-06 0.042004)
(1.86251e-07 1.37755e-06 0.0420031)
(1.82984e-06 1.5435e-06 0.0420026)
(2.91724e-06 1.73193e-06 0.0420032)
(4.14864e-06 1.87697e-06 0.0420044)
(5.46511e-06 1.86558e-06 0.0420062)
(-3.3749e-06 8.62305e-07 0.0419996)
(-9.36197e-07 1.36148e-06 0.0420016)
(3.58529e-07 2.07964e-06 0.0420029)
(1.98016e-06 2.58546e-06 0.0420032)
(3.06239e-06 2.78879e-06 0.042003)
(4.25377e-06 2.75771e-06 0.0420019)
(5.64488e-06 2.66727e-06 0.0419998)
(-2.97583e-06 6.17368e-07 0.0419795)
(-4.79204e-07 1.55849e-06 0.0419936)
(6.61811e-07 2.94369e-06 0.0420019)
(2.05152e-06 3.76951e-06 0.0420044)
(2.93375e-06 3.95714e-06 0.0420019)
(3.91958e-06 3.73083e-06 0.0419938)
(5.30491e-06 3.51249e-06 0.0419795)
(-2.45056e-06 2.22243e-06 0.0419464)
(1.16494e-07 2.40621e-06 0.0419794)
(9.19342e-07 4.06438e-06 0.0419998)
(1.95676e-06 5.05361e-06 0.0420062)
(2.7045e-06 5.3477e-06 0.0419998)
(3.55038e-06 5.15552e-06 0.0419795)
(4.98533e-06 5.00703e-06 0.0419464)
(-5.9444e-06 -6.03537e-06 0.0419443)
(-2.40019e-06 -6.97799e-06 0.0419767)
(-8.38947e-07 -8.37649e-06 0.0419969)
(1.22764e-06 -8.97575e-06 0.0420032)
(3.00735e-06 -8.6438e-06 0.0419968)
(4.99803e-06 -7.514e-06 0.0419767)
(7.27794e-06 -7.0281e-06 0.0419439)
(-7.01587e-06 -2.61035e-06 0.0419768)
(-3.75319e-06 -3.8523e-06 0.04199)
(-1.25193e-06 -4.79973e-06 0.0419978)
(1.40808e-06 -5.24628e-06 0.042)
(3.76036e-06 -4.87226e-06 0.0419976)
(6.24546e-06 -3.90803e-06 0.0419899)
(8.9215e-06 -3.16559e-06 0.0419764)
(-8.44337e-06 -1.22462e-06 0.0419969)
(-4.77629e-06 -1.55003e-06 0.0419978)
(-1.61312e-06 -1.79936e-06 0.0419983)
(1.5957e-06 -1.89245e-06 0.0419981)
(4.53465e-06 -1.56343e-06 0.0419981)
(7.51379e-06 -1.00144e-06 0.0419976)
(1.044e-05 -6.37724e-07 0.0419965)
(-9.11929e-06 6.84828e-07 0.0420033)
(-5.28798e-06 9.42445e-07 0.042)
(-1.77144e-06 1.2601e-06 0.0419982)
(1.75456e-06 1.52576e-06 0.0419973)
(5.02264e-06 1.77794e-06 0.041998)
(8.24714e-06 1.9619e-06 0.0419998)
(1.1323e-05 1.98776e-06 0.0420028)
(-8.81416e-06 2.43036e-06 0.0419969)
(-5.01794e-06 3.19605e-06 0.0419977)
(-1.54547e-06 4.10682e-06 0.0419981)
(1.88298e-06 4.72935e-06 0.041998)
(5.0468e-06 4.89933e-06 0.041998)
(8.17756e-06 4.72277e-06 0.0419975)
(1.12263e-05 4.44077e-06 0.0419964)
(-8.02383e-06 4.0838e-06 0.0419768)
(-4.30756e-06 5.39217e-06 0.04199)
(-1.12585e-06 6.93962e-06 0.0419976)
(1.91304e-06 7.87553e-06 0.0419999)
(4.69249e-06 7.9797e-06 0.0419975)
(7.46602e-06 7.47008e-06 0.0419898)
(1.03078e-05 6.84476e-06 0.0419763)
(-6.77575e-06 6.92571e-06 0.041944)
(-3.54679e-06 8.02292e-06 0.0419765)
(-8.17967e-07 9.83007e-06 0.0419965)
(1.77099e-06 1.09076e-05 0.0420028)
(4.18971e-06 1.10085e-05 0.0419964)
(6.59634e-06 1.03248e-05 0.0419763)
(9.16796e-06 9.46987e-06 0.0419435)
(-1.6371e-05 -1.62964e-05 0.0419327)
(-1.07258e-05 -1.84546e-05 0.0419629)
(-5.15805e-06 -2.03627e-05 0.0419816)
(7.1379e-07 -2.1156e-05 0.0419874)
(6.4872e-06 -2.05164e-05 0.0419813)
(1.20637e-05 -1.86593e-05 0.0419623)
(1.71205e-05 -1.67717e-05 0.0419316)
(-1.86871e-05 -1.07996e-05 0.041963)
(-1.23247e-05 -1.22477e-05 0.0419736)
(-5.84367e-06 -1.35682e-05 0.0419795)
(8.72126e-07 -1.40889e-05 0.041981)
(7.46716e-06 -1.3514e-05 0.0419791)
(1.37904e-05 -1.21024e-05 0.041973)
(1.96889e-05 -1.07086e-05 0.0419619)
(-2.06906e-05 -5.39646e-06 0.0419817)
(-1.3769e-05 -5.94031e-06 0.0419796)
(-6.4768e-06 -6.43148e-06 0.041978)
(1.03817e-06 -6.54862e-06 0.0419771)
(8.43194e-06 -6.11603e-06 0.0419776)
(1.54787e-05 -5.32127e-06 0.0419789)
(2.18926e-05 -4.61535e-06 0.0419806)
(-2.15775e-05 3.34578e-07 0.0419876)
(-1.44043e-05 6.23199e-07 0.0419812)
(-6.71483e-06 9.41266e-07 0.0419772)
(1.18911e-06 1.23489e-06 0.0419755)
(8.96251e-06 1.4928e-06 0.0419768)
(1.63545e-05 1.65877e-06 0.0419805)
(2.30293e-05 1.67126e-06 0.0419865)
(-2.10866e-05 6.02755e-06 0.0419815)
(-1.39854e-05 7.08817e-06 0.0419793)
(-6.42076e-06 8.20713e-06 0.0419777)
(1.30069e-06 8.89539e-06 0.0419768)
(8.8751e-06 8.96289e-06 0.0419773)
(1.60755e-05 8.50335e-06 0.0419786)
(2.26391e-05 7.82985e-06 0.0419805)
(-1.96233e-05 1.13407e-05 0.0419625)
(-1.28379e-05 1.31654e-05 0.0419731)
(-5.80568e-06 1.5095e-05 0.041979)
(1.2878e-06 1.61652e-05 0.0419805)
(8.22676e-06 1.60505e-05 0.0419787)
(1.48175e-05 1.49828e-05 0.0419725)
(2.09219e-05 1.36224e-05 0.0419616)
(-1.74452e-05 1.64904e-05 0.0419318)
(-1.15233e-05 1.88934e-05 0.0419621)
(-5.23404e-06 2.14139e-05 0.0419807)
(1.10322e-06 2.27444e-05 0.0419865)
(7.32617e-06 2.25195e-05 0.0419805)
(1.32207e-05 2.10063e-05 0.0419616)
(1.86142e-05 1.89653e-05 0.041931)
(-9.4305e-05 3.76037e-05 0.0416468)
(7.98853e-06 -4.34773e-06 0.0399342)
(-9.25068e-06 9.99163e-06 0.0418888)
(4.24733e-07 7.42933e-06 0.0419254)
(1.2428e-06 -1.6364e-06 0.0419487)
(1.72342e-06 -1.17917e-05 0.0419265)
(1.00269e-05 2.47032e-05 0.0417222)
(6.62944e-06 1.81152e-05 0.0401549)
(5.46894e-06 5.43174e-06 0.0418383)
(9.33237e-06 3.83981e-06 0.0418647)
(1.13994e-05 1.40929e-05 0.0419011)
(9.87315e-06 1.69452e-05 0.0419374)
(7.00706e-06 1.87194e-05 0.041961)