/*--------------------------------*- C++ -*----------------------------------*\
| =========                 |                                                 |
| \\      /  F ield         | OpenFOAM: The Open Source CFD Toolbox           |
|  \\    /   O peration     | Version:  plus.master.MPPICInterFoam            |
|   \\  /    A nd           | Web:      www.OpenFOAM.com                      |
|    \\/     M anipulation  |                                                 |
\*---------------------------------------------------------------------------*/
FoamFile
{
    version     2.0;
    format      ascii;
    class       surfaceScalarField;
    location    "2.2";
    object      alphaPhi;
}
// * * * * * * * * * * * * * * * * * * * * * * * * * * * * * * * * * * * * * //

dimensions      [0 3 -1 0 0 0 0];

internalField   nonuniform List<scalar> 
34319
(
-2.61263e-09
-3.08308e-09
1.43377e-06
3.17734e-09
3.49063e-09
-1.01108e-09
-3.457e-09
1.43384e-06
4.27847e-09
3.85184e-10
-3.65073e-09
1.43371e-06
4.60804e-09
1.68613e-09
-3.72214e-09
1.43352e-06
4.7797e-09
2.72143e-09
-3.65e-09
1.43334e-06
4.77361e-09
3.38347e-09
-3.41048e-09
1.43316e-06
4.53539e-09
-2.99705e-09
1.43297e-06
3.67892e-09
3.9746e-09
-2.98463e-09
-1.48429e-09
1.43391e-06
3.82352e-09
-1.24947e-09
-1.74822e-09
1.43343e-06
3.06027e-10
-1.88747e-09
1.43296e-06
1.80988e-09
-1.92101e-09
1.43267e-06
3.05469e-09
-1.84914e-09
1.43261e-06
3.92137e-09
-1.66786e-09
1.43277e-06
-1.39926e-09
1.43312e-06
4.42287e-09
-3.21935e-09
8.33595e-11
1.43386e-06
4.17952e-09
-1.39851e-09
-4.17184e-11
1.43305e-06
2.68109e-10
-9.30566e-11
1.43243e-06
1.89383e-09
-7.47671e-11
1.43211e-06
3.25933e-09
-5.27636e-12
1.43212e-06
4.2365e-09
1.01415e-10
1.43248e-06
2.1886e-10
1.43317e-06
4.78645e-09
-3.34434e-09
1.63473e-09
1.43373e-06
4.45544e-09
-1.45986e-09
1.69611e-09
1.43283e-06
2.8073e-10
1.75952e-09
1.43218e-06
1.96374e-09
1.83074e-09
1.43186e-06
3.37246e-09
1.87944e-09
1.43191e-06
4.37509e-09
1.88364e-09
1.43234e-06
1.83602e-09
1.43314e-06
4.93444e-09
-3.3265e-09
2.9623e-09
1.43358e-06
4.56743e-09
-1.41581e-09
3.23901e-09
1.43281e-06
3.44205e-10
3.43535e-09
1.43225e-06
2.0095e-09
3.54738e-09
1.43196e-06
3.38174e-09
3.55729e-09
1.432e-06
4.35215e-09
3.44213e-09
1.43236e-06
3.20884e-09
1.43304e-06
4.90431e-09
-3.11692e-09
3.92829e-09
1.4334e-06
4.45774e-09
-1.24683e-09
4.41906e-09
1.43298e-06
4.47065e-10
4.72924e-09
1.43262e-06
2.01069e-09
4.86194e-09
1.4324e-06
3.26497e-09
4.82662e-09
1.43237e-06
4.13414e-09
4.58643e-09
1.43254e-06
4.11723e-09
1.43287e-06
4.65649e-09
-2.61732e-09
1.43318e-06
3.94944e-09
4.46482e-09
-9.51678e-10
1.43329e-06
5.207e-09
5.67959e-10
1.43326e-06
5.51653e-09
1.94892e-09
1.43315e-06
5.64056e-09
3.00097e-09
1.43301e-06
5.58046e-09
3.65755e-09
1.43284e-06
5.24515e-09
1.43264e-06
4.05943e-09
4.46882e-09
-6.85853e-09
-6.90546e-09
1.43014e-06
8.77358e-09
8.86868e-09
-4.82502e-09
-7.65974e-09
1.42949e-06
9.32546e-09
-1.9066e-09
-8.02348e-09
1.42905e-06
9.841e-09
1.23889e-09
-8.07351e-09
1.42892e-06
1.00049e-08
4.24122e-09
-7.83097e-09
1.42913e-06
9.81693e-09
6.76288e-09
-7.29739e-09
1.42966e-06
9.25751e-09
-6.52839e-09
1.43044e-06
8.43554e-09
8.44938e-09
-7.62654e-09
-4.75713e-09
1.42951e-06
9.27339e-09
-5.21604e-09
-5.113e-09
1.42832e-06
-1.98036e-09
-5.13266e-09
1.42753e-06
1.4763e-09
-4.98599e-09
1.42728e-06
4.79618e-09
-4.69218e-09
1.4276e-06
7.61962e-09
-4.26375e-09
1.42846e-06
-3.73836e-09
1.42976e-06
9.67877e-09
-8.00111e-09
-1.76494e-09
1.42908e-06
9.82783e-09
-5.2546e-09
-1.80294e-09
1.42753e-06
-1.84713e-09
-1.65625e-09
1.42653e-06
1.7635e-09
-1.47317e-09
1.4262e-06
5.22669e-09
-1.27405e-09
1.42656e-06
8.18188e-09
-1.07739e-09
1.4276e-06
-8.98336e-10
1.42923e-06
1.0357e-08
-8.04919e-09
1.4503e-09
1.42891e-06
1.00155e-08
-5.11989e-09
1.71891e-09
1.42725e-06
-1.67179e-09
2.00959e-09
1.42617e-06
1.9593e-09
2.20241e-09
1.4258e-06
5.42535e-09
2.2758e-09
1.42617e-06
8.37885e-09
2.20892e-09
1.42725e-06
2.01227e-09
1.42899e-06
1.05555e-08
-7.78133e-09
4.53062e-09
1.42905e-06
9.82183e-09
-4.83592e-09
5.06971e-09
1.42749e-06
-1.48385e-09
5.47498e-09
1.42646e-06
2.03107e-09
5.65588e-09
1.4261e-06
5.36209e-09
5.58399e-09
1.42644e-06
8.19333e-09
5.26087e-09
1.42745e-06
4.71297e-09
1.42907e-06
1.02731e-08
-7.23648e-09
7.0911e-09
1.42946e-06
9.27607e-09
-4.43828e-09
7.84361e-09
1.42824e-06
-1.30526e-09
8.34878e-09
1.42739e-06
1.96024e-09
8.52026e-09
1.42708e-06
5.04439e-09
8.33104e-09
1.42736e-06
7.65101e-09
7.79286e-09
1.42819e-06
6.96897e-09
1.42947e-06
9.53198e-09
-6.45162e-09
1.43009e-06
8.38525e-09
8.76848e-09
-3.93418e-09
1.42939e-06
9.71959e-09
-1.1319e-09
1.42889e-06
1.03684e-08
1.77477e-09
1.4287e-06
1.05572e-08
4.50831e-09
1.42887e-06
1.02935e-08
6.8183e-09
1.42937e-06
9.5829e-09
1.43014e-06
8.45041e-09
8.56828e-09
-1.56778e-08
-1.56273e-08
1.42106e-06
2.01112e-08
2.0153e-08
-1.04039e-08
-1.66072e-08
1.41824e-06
2.09207e-08
-3.65134e-09
-1.72671e-08
1.41655e-06
2.19194e-08
3.52546e-09
-1.74365e-08
1.41605e-06
2.22248e-08
1.04577e-08
-1.71073e-08
1.41677e-06
2.18399e-08
1.64415e-08
-1.63586e-08
1.41864e-06
2.08264e-08
-1.54109e-08
1.42158e-06
2.02752e-08
1.98852e-08
-1.66791e-08
-1.03371e-08
1.41824e-06
2.10148e-08
-1.10587e-08
-1.09565e-08
1.41487e-06
-3.84958e-09
-1.12557e-08
1.4128e-06
3.79294e-09
-1.12699e-08
1.41216e-06
1.11468e-08
-1.10244e-08
1.41299e-06
1.74311e-08
-1.0559e-08
1.41523e-06
-9.8962e-09
1.41871e-06
2.17384e-08
-1.73682e-08
-3.73857e-09
1.41653e-06
2.21011e-08
-1.13818e-08
-3.90204e-09
1.41277e-06
-3.88357e-09
-3.91467e-09
1.41046e-06
4.01242e-09
-3.86159e-09
1.40973e-06
1.15915e-08
-3.76069e-09
1.41061e-06
1.81162e-08
-3.61895e-09
1.41304e-06
-3.40758e-09
1.41688e-06
2.28811e-08
-1.75534e-08
3.20669e-09
1.416e-06
2.2384e-08
-1.14078e-08
3.49337e-09
1.4121e-06
-3.84036e-09
3.74095e-09
1.40969e-06
4.10563e-09
3.84464e-09
1.40891e-06
1.17317e-08
3.80065e-09
1.40979e-06
1.83412e-08
3.62743e-09
1.41228e-06
3.35051e-09
1.41625e-06
2.3269e-08
-1.72244e-08
9.90844e-09
1.41667e-06
2.18729e-08
-1.11548e-08
1.05719e-08
1.41288e-06
-3.73927e-09
1.10482e-08
1.41053e-06
4.06124e-09
1.12142e-08
1.40975e-06
1.15602e-08
1.10599e-08
1.4106e-06
1.80626e-08
1.06101e-08
1.41302e-06
9.88659e-09
1.41687e-06
2.28726e-08
-1.64821e-08
1.57244e-08
1.4185e-06
2.07205e-08
-1.06714e-08
1.66334e-08
1.41508e-06
-3.57235e-09
1.73734e-08
1.41293e-06
3.91719e-09
1.76467e-08
1.41221e-06
1.1123e-08
1.73948e-08
1.41299e-06
1.7338e-08
1.66811e-08
1.41521e-06
1.56571e-08
1.41868e-06
2.17359e-08
-1.55092e-08
1.4214e-06
1.94207e-08
1.9732e-08
-9.93219e-09
1.41853e-06
2.08884e-08
-3.2911e-09
1.41675e-06
2.20911e-08
3.69746e-09
1.41615e-06
2.25009e-08
1.04399e-08
1.4168e-06
2.21285e-08
1.63094e-08
1.41865e-06
2.10609e-08
1.42159e-06
2.02829e-08
1.98293e-08
-3.84082e-08
-3.84201e-08
1.39898e-06
4.92357e-08
4.93862e-08
-2.41126e-08
-4.00209e-08
1.39152e-06
5.13402e-08
-7.78335e-09
-4.12653e-08
1.38697e-06
5.34453e-08
9.15611e-09
-4.16739e-08
1.3854e-06
5.41137e-08
2.54889e-08
-4.11769e-08
1.38686e-06
5.32753e-08
3.99863e-08
-3.99386e-08
1.39132e-06
5.11048e-08
-3.83982e-08
1.39872e-06
5.01916e-08
4.93187e-08
-4.00369e-08
-2.417e-08
1.39153e-06
5.13849e-08
-2.5313e-08
-2.53756e-08
1.38356e-06
-8.20919e-09
-2.61957e-08
1.37862e-06
9.54821e-09
-2.653e-08
1.37691e-06
2.65963e-08
-2.63543e-08
1.37849e-06
4.15171e-08
-2.56891e-08
1.38334e-06
-2.45327e-08
1.39123e-06
5.24007e-08
-4.13619e-08
-8.09613e-09
1.38701e-06
5.362e-08
-2.61574e-08
-8.54105e-09
1.37865e-06
-8.5606e-09
-8.86963e-09
1.37349e-06
9.68796e-09
-9.03957e-09
1.3717e-06
2.72268e-08
-9.03792e-09
1.37336e-06
4.26818e-08
-8.84856e-09
1.3784e-06
-8.45012e-09
1.38666e-06
5.45108e-08
-4.18478e-08
8.52966e-09
1.3855e-06
5.43312e-08
-2.65025e-08
8.90833e-09
1.377e-06
-8.74061e-09
9.1088e-09
1.37176e-06
9.68059e-09
9.13334e-09
1.36995e-06
2.7414e-08
8.98233e-09
1.37163e-06
4.3089e-08
8.68742e-09
1.37674e-06
8.239e-09
1.38513e-06
5.52407e-08
-4.13897e-08
2.46044e-08
1.38705e-06
5.34504e-08
-2.6288e-08
2.57222e-08
1.37867e-06
-8.71773e-09
2.64544e-08
1.3735e-06
9.52954e-09
2.66781e-08
1.3717e-06
2.7116e-08
2.63766e-08
1.37336e-06
4.2616e-08
2.56077e-08
1.37841e-06
2.43841e-08
1.38666e-06
5.44995e-08
-4.01273e-08
3.89948e-08
1.39162e-06
5.11689e-08
-2.5537e-08
4.0557e-08
1.38362e-06
-8.49344e-09
4.1807e-08
1.37863e-06
9.24431e-09
4.22146e-08
1.3769e-06
2.63615e-08
4.17164e-08
1.37849e-06
4.13737e-08
4.04574e-08
1.38333e-06
3.87989e-08
1.39121e-06
5.23958e-08
-3.84616e-08
1.39912e-06
4.8831e-08
4.96671e-08
-2.42932e-08
1.39161e-06
5.15669e-08
-8.07525e-09
1.38699e-06
5.36583e-08
8.80872e-09
1.38539e-06
5.43417e-08
2.51675e-08
1.38684e-06
5.35774e-08
3.97214e-08
1.3913e-06
5.15065e-08
1.39869e-06
5.01434e-08
4.94303e-08
-9.58468e-08
-9.58218e-08
1.34001e-06
1.25063e-07
1.25397e-07
-5.95005e-08
-9.76693e-08
1.32408e-06
1.27692e-07
-1.99722e-08
-9.94824e-08
1.3147e-06
1.31108e-07
2.05767e-08
-1.00165e-07
1.31147e-06
1.32217e-07
6.02175e-08
-9.94668e-08
1.31437e-06
1.30824e-07
9.70208e-08
-9.7688e-08
1.32343e-06
1.27196e-07
-9.5902e-08
1.33917e-06
1.25938e-07
1.24896e-07
-9.77323e-08
-5.93352e-08
1.3241e-06
1.27603e-07
-6.11557e-08
-6.10058e-08
1.30828e-06
-2.06121e-08
-6.21686e-08
1.29873e-06
2.10987e-08
-6.26533e-08
1.29542e-06
6.17246e-08
-6.23747e-08
1.2984e-06
9.87296e-08
-6.14201e-08
1.30763e-06
-5.99167e-08
1.32322e-06
1.28175e-07
-9.96415e-08
-1.98472e-08
1.31477e-06
1.3122e-07
-6.23418e-08
-2.05197e-08
1.29878e-06
-2.10987e-08
-2.0994e-08
1.28915e-06
2.13329e-08
-2.12225e-08
1.28583e-06
6.2639e-08
-2.11646e-08
1.28885e-06
1.00308e-07
-2.08649e-08
1.29817e-06
-2.03243e-08
1.31392e-06
1.31425e-07
-1.00416e-07
2.05815e-08
1.31163e-06
1.32435e-07
-6.2845e-08
2.10983e-08
1.29557e-06
-2.13362e-08
2.13472e-08
1.28592e-06
2.13807e-08
2.13938e-08
1.2826e-06
6.29419e-08
2.12354e-08
1.28563e-06
1.00891e-07
2.08493e-08
1.29498e-06
2.0216e-08
1.3108e-06
1.32559e-07
-9.97528e-08
6.01173e-08
1.31466e-06
1.31135e-07
-6.25716e-08
6.16318e-08
1.29866e-06
-2.12895e-08
6.25541e-08
1.28905e-06
2.12217e-08
6.28464e-08
1.28574e-06
6.25384e-08
6.24317e-08
1.28875e-06
1.00162e-07
6.13713e-08
1.29808e-06
5.97466e-08
1.31384e-06
1.31287e-07
-9.79672e-08
9.68051e-08
1.32387e-06
1.27581e-07
-6.1625e-08
9.85363e-08
1.30803e-06
-2.10045e-08
1.0016e-07
1.2985e-06
2.08327e-08
1.00742e-07
1.29522e-06
6.14888e-08
9.99866e-08
1.29821e-06
9.84076e-08
9.81886e-08
1.30745e-06
9.63123e-08
1.32308e-06
1.27849e-07
-9.61265e-08
1.33973e-06
1.24596e-07
1.26227e-07
-6.00971e-08
1.32376e-06
1.28027e-07
-2.04536e-08
1.31439e-06
1.31342e-07
2.02093e-08
1.31118e-06
1.32435e-07
5.98703e-08
1.3141e-06
1.31086e-07
9.6545e-08
1.3232e-06
1.27562e-07
1.33899e-06
1.25384e-07
1.25085e-07
-2.0596e-07
-2.05736e-07
2.76339e-07
2.76526e-07
1.19867e-06
-1.26634e-07
-2.08263e-07
2.79261e-07
1.17126e-06
-4.31613e-08
-2.10884e-07
2.84759e-07
1.15549e-06
4.14731e-08
-2.11935e-07
2.86635e-07
1.15031e-06
1.25236e-07
-2.10901e-07
2.84495e-07
1.15532e-06
2.05805e-07
-2.08374e-07
2.78755e-07
1.17092e-06
-2.06117e-07
2.75925e-07
2.75419e-07
1.19823e-06
-2.08516e-07
-1.26118e-07
2.79207e-07
1.17127e-06
-1.28911e-07
-1.28412e-07
1.14538e-06
-4.40547e-08
-1.2987e-07
1.13023e-06
4.22122e-08
-1.30384e-07
1.12521e-06
1.27286e-07
-1.29877e-07
1.13005e-06
2.07934e-07
-1.28559e-07
1.14503e-06
-1.26467e-07
2.78764e-07
1.17081e-06
-2.1122e-07
-4.24114e-08
2.84951e-07
1.15553e-06
-1.30389e-07
-4.32961e-08
1.13026e-06
-4.45475e-08
-4.38178e-08
1.11551e-06
4.26471e-08
-4.40229e-08
1.1106e-06
1.28556e-07
-4.39127e-08
1.11533e-06
2.10265e-07
-4.35026e-08
1.12992e-06
-4.27384e-08
2.84052e-07
1.15507e-06
-2.12313e-07
4.2386e-08
2.8703e-07
1.15039e-06
-1.30959e-07
4.31082e-08
1.12527e-06
-4.47608e-08
4.34894e-08
1.11063e-06
4.27413e-08
4.35693e-08
1.10574e-06
1.28983e-07
4.33589e-08
1.11045e-06
2.11181e-07
4.28912e-08
1.12494e-06
4.21155e-08
2.85918e-07
1.14995e-06
-2.11327e-07
1.26138e-07
2.85036e-07
1.15544e-06
-1.30525e-07
1.28164e-07
1.13015e-06
-4.46741e-08
1.29419e-07
1.1154e-06
4.25313e-08
1.29843e-07
1.11049e-06
1.28477e-07
1.29313e-07
1.11525e-06
2.10209e-07
1.28009e-07
1.12985e-06
1.25965e-07
2.83968e-07
1.15501e-06
-2.08849e-07
2.06464e-07
2.79454e-07
1.17109e-06
-1.29243e-07
2.08703e-07
1.14516e-06
-4.42719e-08
2.11079e-07
1.13002e-06
4.20508e-08
2.11973e-07
1.12501e-06
1.27187e-07
2.10951e-07
1.12988e-06
2.07875e-07
2.08549e-07
1.14489e-06
2.06317e-07
2.78665e-07
1.17067e-06
-2.06537e-07
2.75665e-07
2.76805e-07
1.19841e-06
-1.27142e-07
2.79257e-07
1.17094e-06
-4.35235e-08
2.84634e-07
1.15518e-06
4.1269e-08
2.86483e-07
1.15003e-06
1.25143e-07
2.84425e-07
1.15507e-06
2.05683e-07
2.78939e-07
1.1707e-06
2.75678e-07
2.75732e-07
1.19802e-06
5.02703e-09
-4.35519e-10
8.82931e-07
3.37255e-11
5.65396e-09
-1.57833e-10
1.0504e-06
1.66456e-10
5.58307e-09
-6.03833e-11
1.2107e-06
1.69551e-10
5.03223e-09
-4.26307e-11
1.36344e-06
1.25378e-10
4.11892e-09
-4.68724e-11
1.50762e-06
7.53095e-11
2.94368e-09
-4.88275e-11
1.64024e-06
2.03961e-11
1.57416e-09
-4.06837e-11
1.74758e-06
-3.10845e-11
-2.16537e-11
1.73456e-06
-6.63144e-11
5.37608e-09
-9.95372e-11
1.10614e-06
5.85633e-09
1.19281e-11
1.27386e-06
5.83531e-09
5.3902e-11
1.43441e-06
5.33995e-09
5.24027e-11
1.58739e-06
4.42241e-09
4.22372e-11
1.73186e-06
3.16069e-09
3.77122e-11
1.86496e-06
1.63671e-09
4.19263e-11
1.97391e-06
5.33933e-11
1.9668e-06
5.63704e-09
4.82418e-10
1.24553e-06
6.11684e-09
4.34221e-10
1.41478e-06
6.14881e-09
3.86397e-10
1.5767e-06
5.6972e-09
3.41818e-10
1.73092e-06
4.77506e-09
3.07041e-10
1.87656e-06
3.45445e-09
2.83656e-10
2.01085e-06
1.82174e-09
2.67932e-10
2.12149e-06
2.55832e-10
2.1175e-06
5.75557e-09
1.11321e-09
1.29286e-06
6.23926e-09
9.05046e-10
1.46284e-06
6.28736e-09
7.52954e-10
1.62541e-06
5.84685e-09
6.51761e-10
1.78023e-06
4.92102e-09
5.79539e-10
1.92642e-06
3.57563e-09
5.28116e-10
2.06127e-06
1.91345e-09
4.86046e-10
2.17263e-06
4.41835e-10
2.16972e-06
5.72511e-09
1.47795e-09
1.2454e-06
6.19561e-09
1.14888e-09
1.41462e-06
6.23869e-09
9.28907e-10
1.57651e-06
5.79543e-09
7.95715e-10
1.73071e-06
4.87164e-09
7.07743e-10
1.87631e-06
3.52993e-09
6.43945e-10
2.01057e-06
1.88365e-09
5.89749e-10
2.12118e-06
5.28732e-10
2.11717e-06
5.51807e-09
1.29868e-09
1.10593e-06
5.99012e-09
9.53265e-10
1.2736e-06
6.00325e-09
7.70229e-10
1.4341e-06
5.5317e-09
6.66886e-10
1.58704e-06
4.61055e-09
6.01323e-10
1.73146e-06
3.31305e-09
5.54006e-10
1.8645e-06
1.73217e-09
5.13832e-10
1.9734e-06
4.65846e-10
1.96624e-06
5.21343e-09
8.82723e-07
2.26564e-10
5.71784e-09
1.05014e-06
2.7712e-10
5.65224e-09
1.21039e-06
2.92619e-10
5.10696e-09
1.36308e-06
2.90892e-10
4.16927e-09
1.5072e-06
2.78921e-10
2.93307e-09
1.63976e-06
2.61752e-10
1.47601e-09
1.74704e-06
2.42465e-10
1.73396e-06
2.25161e-10
1.14448e-08
-8.31024e-10
8.81929e-07
-1.08739e-10
1.33129e-08
-4.38884e-10
1.04985e-06
-2.00829e-11
1.3833e-08
-2.20646e-10
1.21077e-06
-4.22105e-11
1.31079e-08
-9.25126e-11
1.36426e-06
-8.69718e-11
1.12403e-08
-1.29749e-11
1.50923e-06
-1.30043e-10
8.36077e-09
5.54275e-11
1.64263e-06
-1.65912e-10
4.58093e-09
1.17321e-10
1.75073e-06
-1.90713e-10
1.70927e-10
1.73849e-06
-2.01227e-10
1.23755e-08
-6.51769e-10
1.1043e-06
1.41462e-08
-4.58391e-10
1.27259e-06
1.47211e-08
-3.10843e-10
1.43394e-06
1.40105e-08
-2.0424e-10
1.58788e-06
1.20196e-08
-1.10538e-10
1.73337e-06
8.87485e-09
-2.24756e-11
1.86746e-06
4.73954e-09
5.42857e-11
1.97731e-06
1.15949e-10
1.97107e-06
1.303e-08
-2.97734e-11
1.24299e-06
1.48349e-08
-3.32555e-11
1.4129e-06
1.54679e-08
-2.3824e-11
1.57575e-06
1.47521e-08
-9.83107e-12
1.73111e-06
1.26716e-08
1.09178e-11
1.87797e-06
9.35244e-09
3.52688e-11
2.01343e-06
4.99632e-09
5.95839e-11
2.12511e-06
8.10966e-11
2.12205e-06
1.32219e-08
7.73839e-10
1.29006e-06
1.50505e-08
5.65078e-10
1.46074e-06
1.57131e-08
4.13155e-10
1.62431e-06
1.50167e-08
3.05001e-10
1.78034e-06
1.29182e-08
2.22431e-10
1.92783e-06
9.54524e-09
1.53911e-10
2.06393e-06
5.11089e-09
1.00351e-10
2.17638e-06
6.04185e-11
2.17443e-06
1.29081e-08
1.30119e-09
1.24287e-06
1.47301e-08
9.53538e-10
1.41279e-06
1.54037e-08
6.94453e-10
1.57564e-06
1.47383e-08
5.07762e-10
1.73101e-06
1.2695e-08
3.62009e-10
1.87786e-06
9.40315e-09
2.41775e-10
2.01332e-06
5.05348e-09
1.39018e-10
2.12499e-06
4.91825e-11
2.12192e-06
1.2163e-08
1.17757e-09
1.10411e-06
1.39746e-08
8.23645e-10
1.27241e-06
1.4626e-08
5.94362e-10
1.43376e-06
1.39885e-08
4.38508e-10
1.5877e-06
1.20648e-08
3.20673e-10
1.73319e-06
8.97699e-09
2.22591e-10
1.86727e-06
4.86535e-09
1.45443e-10
1.97711e-06
7.60992e-11
1.97085e-06
1.13663e-08
8.81764e-07
4.82269e-11
1.3168e-08
1.04967e-06
6.66332e-11
1.37214e-08
1.2106e-06
8.03685e-11
1.30494e-08
1.36407e-06
9.22915e-11
1.12249e-08
1.50905e-06
1.0158e-10
8.35507e-09
1.64243e-06
1.08181e-10
4.54334e-09
1.7505e-06
1.07719e-10
1.73824e-06
1.06813e-10
2.5557e-08
-1.93746e-09
8.7806e-07
-2.94049e-10
2.94168e-08
-1.36449e-09
1.04706e-06
-5.33668e-10
3.11933e-08
-8.95067e-10
1.20973e-06
-5.76718e-10
3.03634e-08
-5.42525e-10
1.36545e-06
-5.52935e-10
2.67331e-08
-2.65785e-10
1.51293e-06
-5.14406e-10
2.03577e-08
-3.65695e-11
1.64883e-06
-4.67006e-10
1.13525e-08
1.55536e-10
1.75933e-06
-4.21115e-10
3.05091e-10
1.74936e-06
-3.71589e-10
2.7332e-08
-2.18569e-09
1.09784e-06
3.1693e-08
-1.71916e-09
1.26759e-06
3.38642e-08
-1.25861e-09
1.43114e-06
3.31637e-08
-8.74156e-10
1.58791e-06
2.927e-08
-5.49944e-10
1.73656e-06
2.22251e-08
-2.6992e-10
1.87376e-06
1.22585e-08
-2.78031e-11
1.9865e-06
1.66021e-10
1.9828e-06
2.89388e-08
-9.39856e-10
1.23463e-06
3.36381e-08
-7.70374e-10
1.4062e-06
3.60222e-08
-5.8738e-10
1.57159e-06
3.5336e-08
-4.27796e-10
1.73021e-06
3.11991e-08
-2.89999e-10
1.88071e-06
2.36407e-08
-1.7164e-10
2.01978e-06
1.29489e-08
-6.95943e-11
2.13474e-06
8.77751e-12
2.13446e-06
2.95144e-08
8.35114e-10
1.28104e-06
3.43527e-08
6.63353e-10
1.45345e-06
3.68171e-08
4.99954e-10
1.61969e-06
3.61425e-08
3.51262e-10
1.77913e-06
3.19231e-08
2.15954e-10
1.93045e-06
2.41804e-08
9.41905e-11
2.07033e-06
1.32278e-08
-2.021e-11
2.18622e-06
-1.00557e-10
2.18715e-06
2.89896e-08
2.12042e-09
1.23464e-06
3.37037e-08
1.66266e-09
1.40622e-06
3.60852e-08
1.23058e-09
1.57163e-06
3.54086e-08
8.6665e-10
1.73025e-06
3.12817e-08
5.53177e-10
1.88076e-06
2.37201e-08
2.7544e-10
2.01982e-06
1.30065e-08
2.57399e-11
2.13478e-06
-1.78349e-10
2.1345e-06
2.74761e-08
2.01172e-09
1.09785e-06
3.18623e-08
1.44008e-09
1.26762e-06
3.40137e-08
1.00099e-09
1.43119e-06
3.33118e-08
6.69526e-10
1.58798e-06
2.94283e-08
4.05349e-10
1.73663e-06
2.23702e-08
1.79116e-10
1.87383e-06
1.23549e-08
-2.22894e-11
1.98655e-06
-1.81891e-10
1.98284e-06
2.57751e-08
8.78093e-07
-2.60231e-10
2.96749e-08
1.04711e-06
-3.09602e-10
3.14088e-08
1.20978e-06
-3.02984e-10
3.05624e-08
1.36552e-06
-2.67147e-10
2.69141e-08
1.513e-06
-2.21171e-10
2.04853e-08
1.64888e-06
-1.82291e-10
1.13851e-08
1.75936e-06
-1.47041e-10
1.74936e-06
-1.18518e-10
6.43908e-08
-4.74202e-09
8.67148e-07
-4.33207e-10
7.55406e-08
-3.44978e-09
1.03831e-06
-7.69078e-10
8.20545e-08
-2.51809e-09
1.20508e-06
-7.69303e-10
8.2305e-08
-1.80035e-09
1.36657e-06
-6.62188e-10
7.50427e-08
-1.19141e-09
1.52107e-06
-5.47113e-10
5.9519e-08
-6.46774e-10
1.66467e-06
-4.48604e-10
3.50872e-08
-1.52841e-10
1.78352e-06
-3.64197e-10
2.83519e-10
1.78381e-06
-3.02301e-10
6.7505e-08
-5.2437e-09
1.0809e-06
8.02266e-08
-4.17075e-09
1.25359e-06
8.8138e-08
-3.19162e-09
1.42228e-06
8.91223e-08
-2.36929e-09
1.58617e-06
8.15468e-08
-1.64562e-09
1.74343e-06
6.45459e-08
-9.88705e-10
1.89e-06
3.76915e-08
-3.84203e-10
2.01249e-06
1.54595e-10
2.01991e-06
7.06132e-08
-2.20147e-09
1.2133e-06
8.42236e-08
-1.77635e-09
1.38821e-06
9.28983e-08
-1.37671e-09
1.55939e-06
9.42329e-08
-1.03333e-09
1.72604e-06
8.63305e-08
-7.28353e-10
1.88633e-06
6.82204e-08
-4.52335e-10
2.03603e-06
3.96198e-08
-1.99339e-10
2.16186e-06
2.87069e-11
2.17345e-06
7.17171e-08
2.07425e-09
1.2581e-06
8.56699e-08
1.72818e-09
1.43398e-06
9.46121e-08
1.38776e-09
1.60621e-06
9.6067e-08
1.06712e-09
1.77402e-06
8.80476e-08
7.55439e-10
1.93554e-06
6.95479e-08
4.51351e-10
2.08654e-06
4.0331e-08
1.68633e-10
2.21372e-06
-6.7888e-11
2.2268e-06
7.06224e-08
5.16136e-09
1.21331e-06
8.42456e-08
4.14397e-09
1.38824e-06
9.29254e-08
3.22454e-09
1.55942e-06
9.4248e-08
2.43707e-09
1.72608e-06
8.63193e-08
1.71627e-09
1.88635e-06
6.81962e-08
1.03755e-09
2.03605e-06
3.96007e-08
3.99268e-10
2.16188e-06
-1.50889e-10
2.17346e-06
6.75549e-08
4.95188e-09
1.08091e-06
8.03021e-08
3.60655e-09
1.25363e-06
8.82156e-08
2.6693e-09
1.42233e-06
8.91465e-08
1.94945e-09
1.5862e-06
8.1492e-08
1.33072e-09
1.74345e-06
6.44522e-08
7.66342e-10
1.89001e-06
3.75981e-08
2.43078e-10
2.01248e-06
-2.02072e-10
2.01989e-06
6.44783e-08
8.67155e-07
-3.65737e-10
7.56917e-08
1.03833e-06
-4.09504e-10
8.21877e-08
1.20509e-06
-3.87163e-10
8.23418e-08
1.36658e-06
-3.37236e-10
7.49519e-08
1.52106e-06
-2.82175e-10
5.93504e-08
1.66465e-06
-2.30348e-10
3.4874e-08
1.78348e-06
-1.84988e-10
1.78374e-06
-1.51351e-10
1.66929e-07
-1.37318e-08
8.38347e-07
-2.95877e-10
2.02068e-07
-1.10566e-08
1.01294e-06
-4.2128e-10
2.27297e-07
-9.07261e-09
1.18797e-06
-3.30891e-10
2.37057e-07
-7.35331e-09
1.36324e-06
-2.26401e-10
2.25961e-07
-5.71335e-09
1.53691e-06
-1.43175e-10
1.89753e-07
-4.08933e-09
1.70402e-06
-6.47977e-11
1.21435e-07
-2.5461e-09
1.85347e-06
2.26272e-12
-7.56064e-10
1.90513e-06
3.232e-11
1.70096e-07
-1.4097e-08
1.0372e-06
2.08771e-07
-1.2041e-08
1.21418e-06
2.37949e-07
-1.00396e-08
1.39259e-06
2.51107e-07
-8.21706e-09
1.57248e-06
2.41757e-07
-6.45149e-09
1.75221e-06
2.04409e-07
-4.6789e-09
1.92676e-06
1.31301e-07
-2.91409e-09
2.08487e-06
-8.65603e-10
2.15058e-06
1.75052e-07
-5.65456e-09
1.15937e-06
2.15555e-07
-4.86422e-09
1.3389e-06
2.46894e-07
-4.08559e-09
1.52061e-06
2.61965e-07
-3.36125e-09
1.70469e-06
2.53477e-07
-2.64481e-09
1.88965e-06
2.15024e-07
-1.91212e-09
2.0705e-06
1.38325e-07
-1.17746e-09
2.23567e-06
-3.19691e-10
2.31053e-06
1.76787e-07
5.72533e-09
1.2005e-06
2.17962e-07
5.06707e-09
1.38107e-06
2.50022e-07
4.30916e-09
1.56411e-06
2.6575e-07
3.53969e-09
1.74985e-06
2.57597e-07
2.75791e-09
1.93686e-06
2.18787e-07
1.96664e-09
2.12016e-06
1.40784e-07
1.18007e-09
2.28806e-06
2.76589e-10
2.36625e-06
1.74861e-07
1.41579e-08
1.1593e-06
2.15334e-07
1.22251e-08
1.3388e-06
2.4665e-07
1.02369e-08
1.52051e-06
2.61738e-07
8.37182e-09
1.70458e-06
2.53332e-07
6.54986e-09
1.88954e-06
2.14936e-07
4.72475e-09
2.07038e-06
1.38224e-07
2.91484e-09
2.23554e-06
8.26603e-10
2.3104e-06
1.69735e-07
1.4128e-08
1.0371e-06
2.08358e-07
1.14183e-08
1.21404e-06
2.37486e-07
9.36285e-09
1.39243e-06
2.5067e-07
7.56137e-09
1.5723e-06
2.41453e-07
5.85201e-09
1.75202e-06
2.04207e-07
4.17111e-09
1.92655e-06
1.31093e-07
2.58181e-09
2.08463e-06
7.41222e-10
2.15032e-06
1.66502e-07
8.38251e-07
-1.174e-10
2.01738e-07
1.01282e-06
-9.7693e-11
2.26867e-07
1.18781e-06
-6.66616e-11
2.36592e-07
1.36304e-06
-3.31012e-11
2.25583e-07
1.53669e-06
-4.23039e-12
1.89427e-07
1.70376e-06
1.94067e-11
1.21046e-07
1.85316e-06
3.94366e-11
1.90478e-06
5.09863e-11
3.84212e-07
-2.90627e-08
4.05769e-11
7.57738e-07
4.87533e-07
-2.27881e-08
9.78431e-11
9.31029e-07
5.76868e-07
-1.82273e-08
1.6147e-10
1.11531e-06
6.39606e-07
-1.42041e-08
2.43427e-10
1.31318e-06
6.57161e-07
-1.03223e-08
2.9251e-10
1.52836e-06
5.99398e-07
-6.3003e-09
3.02326e-10
1.76685e-06
4.1267e-07
-1.70419e-09
2.83891e-10
2.04056e-06
2.85007e-09
2.52851e-10
2.31373e-06
3.85962e-07
-2.94566e-08
9.28879e-07
4.94697e-07
-2.46545e-08
1.10581e-06
5.92707e-07
-2.02039e-08
1.29515e-06
6.65249e-07
-1.62018e-08
1.50073e-06
6.91183e-07
-1.23121e-08
1.72723e-06
6.3696e-07
-8.18956e-09
1.98186e-06
4.42637e-07
-3.29016e-09
2.27965e-06
1.81742e-09
2.59369e-06
3.92443e-07
-1.19875e-08
1.03225e-06
5.03857e-07
-1.01861e-08
1.21176e-06
6.06697e-07
-8.4444e-09
1.40484e-06
6.8503e-07
-6.84681e-09
1.61597e-06
7.16058e-07
-5.28502e-09
1.85063e-06
6.63912e-07
-3.61568e-09
2.11707e-06
4.64428e-07
-1.63378e-09
2.43245e-06
5.65006e-10
2.77572e-06
3.94906e-07
1.15989e-08
1.06675e-06
5.07427e-07
9.94316e-09
1.24724e-06
6.11918e-07
8.29515e-09
1.44174e-06
6.92194e-07
6.7445e-09
1.65496e-06
7.24987e-07
5.19026e-09
1.89267e-06
6.73561e-07
3.49444e-09
2.16349e-06
4.72207e-07
1.45003e-09
2.48537e-06
-7.53122e-10
2.83932e-06
3.92328e-07
2.92032e-08
1.03216e-06
5.03774e-07
2.44544e-08
1.21163e-06
6.06659e-07
2.00274e-08
1.4047e-06
6.85016e-07
1.60556e-08
1.61581e-06
7.16038e-07
1.21922e-08
1.85047e-06
6.63838e-07
8.06476e-09
2.1169e-06
4.64384e-07
3.11406e-09
2.43229e-06
-2.01367e-09
2.77556e-06
3.85723e-07
2.92313e-08
9.28732e-07
4.94465e-07
2.28502e-08
1.1056e-06
5.92601e-07
1.82153e-08
1.29491e-06
6.65257e-07
1.41601e-08
1.50045e-06
6.91167e-07
1.02725e-08
1.72692e-06
6.36805e-07
6.23495e-09
1.98153e-06
4.42491e-07
1.59102e-09
2.27932e-06
-3.01463e-09
2.59337e-06
3.83883e-07
1.20323e-10
7.57601e-07
4.87135e-07
2.08981e-10
9.30827e-07
5.76621e-07
2.59272e-10
1.11505e-06
6.39531e-07
2.77423e-10
1.31287e-06
6.56999e-07
2.73354e-10
1.52798e-06
5.99008e-07
2.679e-10
1.76641e-06
4.12225e-07
2.6908e-10
2.04011e-06
2.67159e-10
2.31328e-06
5.93456e-09
-1.113e-09
8.83046e-07
2.85564e-10
6.94813e-09
-6.42973e-10
1.05048e-06
4.95115e-10
6.97724e-09
-4.4737e-10
1.21072e-06
4.68519e-10
6.29073e-09
-3.69974e-10
1.36338e-06
3.73194e-10
5.0834e-09
-3.47218e-10
1.50749e-06
2.86251e-10
3.54081e-09
-3.53785e-10
1.64004e-06
2.16202e-10
1.81835e-09
-3.75032e-10
1.74735e-06
1.60089e-10
-3.90913e-10
1.73429e-06
9.70388e-11
6.47384e-09
-1.20254e-09
1.10634e-06
7.35326e-09
-8.74525e-10
1.274e-06
7.36549e-09
-7.15229e-10
1.43446e-06
6.62936e-09
-6.47379e-10
1.58734e-06
5.29913e-09
-6.20068e-10
1.73172e-06
3.54619e-09
-6.11843e-10
1.86475e-06
1.52231e-09
-6.10728e-10
1.97368e-06
-5.98864e-10
1.96657e-06
6.64074e-09
-9.89735e-10
1.24587e-06
7.47127e-09
-8.23983e-10
1.41507e-06
7.48653e-09
-7.47883e-10
1.57691e-06
6.75373e-09
-7.10814e-10
1.73104e-06
5.40103e-09
-6.87515e-10
1.8766e-06
3.5866e-09
-6.68081e-10
2.01086e-06
1.46557e-09
-6.47112e-10
2.12152e-06
-6.12442e-10
2.11757e-06
6.54801e-09
-5.14617e-10
1.2934e-06
7.30509e-09
-5.36356e-10
1.46337e-06
7.30838e-09
-5.51097e-10
1.62589e-06
6.59397e-09
-5.50605e-10
1.78064e-06
5.28254e-09
-5.37234e-10
1.92679e-06
3.51702e-09
-5.16809e-10
2.06164e-06
1.46687e-09
-4.90326e-10
2.17305e-06
-4.5313e-10
2.17023e-06
6.26062e-09
4.36217e-11
1.24613e-06
6.92623e-09
-1.44412e-10
1.41539e-06
6.90901e-09
-2.35252e-10
1.57727e-06
6.23854e-09
-2.53529e-10
1.73144e-06
5.01271e-09
-2.42043e-10
1.87704e-06
3.36967e-09
-2.20647e-10
2.01134e-06
1.46962e-09
-1.95747e-10
2.12204e-06
-1.7707e-10
2.11814e-06
5.8842e-09
4.15781e-10
1.10675e-06
6.4748e-09
1.49256e-10
1.27449e-06
6.40295e-09
6.4075e-11
1.43502e-06
5.74944e-09
5.22363e-11
1.58798e-06
4.61279e-09
6.11302e-11
1.73242e-06
3.12893e-09
7.5806e-11
1.86553e-06
1.41617e-09
8.82745e-11
1.97454e-06
8.73877e-11
1.96751e-06
5.65764e-09
8.8343e-07
1.86761e-10
6.21395e-09
1.05094e-06
2.35351e-10
6.04737e-09
1.21125e-06
2.62921e-10
5.33854e-09
1.36399e-06
2.72486e-10
4.23052e-09
1.50817e-06
2.70713e-10
2.85708e-09
1.64081e-06
2.63539e-10
1.31313e-09
1.74822e-06
2.51403e-10
1.73526e-06
2.31841e-10
1.11173e-08
-1.30242e-09
8.81685e-07
1.72525e-10
1.28111e-08
-9.02863e-10
1.04954e-06
2.67057e-10
1.32963e-08
-6.22174e-10
1.21041e-06
2.45827e-10
1.26116e-08
-4.23884e-10
1.36385e-06
1.8645e-10
1.08029e-08
-2.8048e-10
1.5088e-06
1.33042e-10
7.98321e-09
-1.75183e-10
1.64218e-06
8.38127e-11
4.25862e-09
-9.29721e-11
1.75027e-06
4.6181e-11
-4.55743e-11
1.73803e-06
2.31361e-11
1.19571e-08
-1.19936e-09
1.10403e-06
1.36198e-08
-8.91809e-10
1.27224e-06
1.41746e-08
-6.43229e-10
1.4335e-06
1.3489e-08
-4.64729e-10
1.58738e-06
1.15451e-08
-3.31165e-10
1.73283e-06
8.44548e-09
-2.2805e-10
1.86689e-06
4.34761e-09
-1.4605e-10
1.97675e-06
-7.74212e-11
1.97053e-06
1.27159e-08
-3.90866e-10
1.2428e-06
1.43998e-08
-2.91062e-10
1.4126e-06
1.49715e-08
-2.28854e-10
1.57535e-06
1.42447e-08
-1.92745e-10
1.73062e-06
1.21674e-08
-1.67689e-10
1.87743e-06
8.8505e-09
-1.42812e-10
2.01288e-06
4.49888e-09
-1.11501e-10
2.12459e-06
-7.47888e-11
2.12159e-06
1.29762e-08
6.65533e-10
1.28996e-06
1.46002e-08
5.14375e-10
1.46052e-06
1.51153e-08
3.49472e-10
1.62398e-06
1.43304e-08
2.10045e-10
1.77993e-06
1.22003e-08
1.01681e-10
1.92738e-06
8.84297e-09
2.35422e-11
2.06348e-06
4.47637e-09
-2.61031e-11
2.17598e-06
-4.87995e-11
2.17412e-06
1.26426e-08
1.43636e-09
1.24283e-06
1.41144e-08
1.06626e-09
1.41263e-06
1.45462e-08
7.32509e-10
1.57539e-06
1.37465e-08
4.80065e-10
1.7307e-06
1.16794e-08
2.93962e-10
1.87753e-06
8.46639e-09
1.59021e-10
2.01302e-06
4.2848e-09
6.37322e-11
2.12476e-06
-9.23148e-12
2.12178e-06
1.176e-08
1.43656e-09
1.10408e-06
1.30596e-08
9.68587e-10
1.27228e-06
1.33968e-08
6.32314e-10
1.43356e-06
1.26177e-08
4.11389e-10
1.58748e-06
1.07057e-08
2.57129e-10
1.73297e-06
7.76763e-09
1.45536e-10
1.8671e-06
3.94621e-09
6.56442e-11
1.97701e-06
-6.52408e-13
1.97082e-06
1.07436e-08
8.81715e-07
3.91225e-11
1.2008e-08
1.04956e-06
-2.46388e-12
1.22461e-08
1.21044e-06
-9.27277e-12
1.14534e-08
1.36391e-06
-1.14845e-11
9.67391e-09
1.5089e-06
-1.27381e-11
7.00535e-09
1.64234e-06
-1.70155e-11
3.55796e-09
1.75049e-06
-2.65012e-11
1.73829e-06
-3.29567e-11
2.4658e-08
-2.25856e-09
8.77929e-07
1.13427e-10
2.84655e-08
-1.87948e-09
1.04693e-06
6.65499e-11
3.0301e-08
-1.42126e-09
1.20963e-06
5.80501e-11
2.96256e-08
-1.01603e-09
1.3654e-06
5.90268e-11
2.62083e-08
-6.72075e-10
1.51294e-06
4.9332e-11
2.00515e-08
-3.71762e-10
1.6489e-06
4.38041e-11
1.12324e-08
-1.0939e-10
1.75946e-06
4.15998e-11
7.27908e-11
1.74953e-06
5.12607e-11
2.59279e-08
-2.24198e-09
1.09768e-06
3.02527e-08
-1.91251e-09
1.26743e-06
3.25546e-08
-1.46497e-09
1.43104e-06
3.21256e-08
-1.05871e-09
1.58786e-06
2.85832e-08
-7.02516e-10
1.73657e-06
2.19167e-08
-3.87128e-10
1.87385e-06
1.23215e-08
-1.10331e-10
1.98667e-06
1.10016e-10
1.98304e-06
2.74546e-08
-7.24386e-10
1.23445e-06
3.21144e-08
-6.37314e-10
1.40602e-06
3.46595e-08
-4.96364e-10
1.57145e-06
3.42855e-08
-3.56242e-10
1.73012e-06
3.0531e-08
-2.21541e-10
1.88069e-06
2.33704e-08
-9.83076e-11
2.01984e-06
1.30541e-08
1.90692e-11
2.1349e-06
1.14846e-10
2.13472e-06
2.803e-08
1.27288e-09
1.28081e-06
3.27872e-08
1.07083e-09
1.4532e-06
3.538e-08
8.29624e-10
1.61946e-06
3.4988e-08
6.15985e-10
1.77895e-06