/*--------------------------------*- C++ -*----------------------------------*\
| =========                 |                                                 |
| \\      /  F ield         | OpenFOAM: The Open Source CFD Toolbox           |
|  \\    /   O peration     | Version:  plus.master.MPPICInterFoam            |
|   \\  /    A nd           | Web:      www.OpenFOAM.com                      |
|    \\/     M anipulation  |                                                 |
\*---------------------------------------------------------------------------*/
FoamFile
{
    version     2.0;
    format      ascii;
    class       volScalarField;
    location    "2.2";
    object      k;
}
// * * * * * * * * * * * * * * * * * * * * * * * * * * * * * * * * * * * * * //

dimensions      [0 2 -2 0 0 0 0];

internalField   nonuniform List<scalar> 
11822
(
0.000323121
0.000335421
0.00034248
0.000344809
0.00034249
0.000335431
0.00032322
0.000335421
0.000347022
0.000353832
0.000356092
0.000353841
0.000347018
0.000335478
0.000342477
0.000353829
0.000360496
0.00036271
0.000360502
0.000353816
0.000342514
0.000344806
0.000356086
0.000362708
0.000364908
0.000362714
0.000356074
0.00034484
0.000342485
0.000353832
0.000360496
0.000362712
0.000360505
0.000353822
0.000342521
0.000335425
0.000347007
0.00035381
0.00035607
0.000353821
0.000346999
0.000335463
0.000323208
0.000335464
0.000342507
0.000344837
0.000342522
0.000335465
0.00032325
0.000323364
0.000335655
0.000342685
0.000344996
0.000342663
0.000335599
0.000323403
0.000335656
0.000347235
0.000354012
0.000356252
0.000353987
0.000347161
0.000335638
0.000342692
0.000354018
0.000360654
0.000362851
0.000360631
0.000353947
0.000342663
0.000345009
0.000356262
0.000362856
0.000365039
0.000362835
0.000356197
0.000344981
0.000342679
0.000353998
0.000360638
0.000362838
0.000360621
0.000353939
0.000342655
0.000335618
0.000347174
0.000353955
0.0003562
0.000353939
0.000347117
0.000335594
0.000323416
0.000335644
0.000342666
0.000344982
0.000342654
0.000335592
0.00032339
0.000323908
0.000336156
0.000343167
0.000345473
0.000343137
0.000336085
0.000323925
0.000336159
0.0003477
0.000354455
0.000356689
0.000354422
0.00034761
0.000336122
0.000343177
0.000354462
0.000361069
0.000363258
0.000361037
0.000354367
0.00034312
0.00034549
0.000356701
0.000363263
0.000365437
0.00036323
0.000356605
0.000345426
0.000343161
0.000354437
0.000361044
0.000363232
0.000361009
0.000354339
0.000343092
0.000336111
0.000347622
0.000354373
0.000356605
0.000354337
0.000347524
0.000336037
0.000323942
0.000336122
0.000343119
0.000345423
0.000343088
0.000336034
0.000323868
0.000325887
0.000338053
0.000345035
0.00034734
0.000345007
0.000337978
0.000325888
0.000338054
0.000349519
0.000356241
0.000358474
0.000356208
0.00034942
0.000338
0.000345045
0.000356249
0.000362815
0.000364996
0.000362774
0.000356135
0.000344963
0.000347356
0.000358484
0.000365
0.000367163
0.000364955
0.000358365
0.000347265
0.000345026
0.00035622
0.00036278
0.000364959
0.000362736
0.0003561
0.000344931
0.000338002
0.000349433
0.000356144
0.000358371
0.000356102
0.000349317
0.000337902
0.000325907
0.000338008
0.000344972
0.00034727
0.000344932
0.0003379
0.000325806
0.000334383
0.00034641
0.000353369
0.000355682
0.000353328
0.000346312
0.000334359
0.000346411
0.000357768
0.000364459
0.000366695
0.000364407
0.000357633
0.000346316
0.000353376
0.000364467
0.000370992
0.000373176
0.000370939
0.000364329
0.000353261
0.000355697
0.000366713
0.000373185
0.00037535
0.000373132
0.000366575
0.000355578
0.000353352
0.000364433
0.000370956
0.00037314
0.000370905
0.000364297
0.00035323
0.000346347
0.000357669
0.000364353
0.000366589
0.000364304
0.000357534
0.00034622
0.000334398
0.000346351
0.000353289
0.000355596
0.000353243
0.000346226
0.00033427
0.000381807
0.000390554
0.000395869
0.000397704
0.000395824
0.000390431
0.00038176
0.000390558
0.000399402
0.000404758
0.000406607
0.000404697
0.000399238
0.000390416
0.000395877
0.000404766
0.000410095
0.000411937
0.000410041
0.000404615
0.00039574
0.000397718
0.000406628
0.000411947
0.000413785
0.000411895
0.00040648
0.000397584
0.00039585
0.000404733
0.000410063
0.000411906
0.000410012
0.000404589
0.000395718
0.000390477
0.000399288
0.00040465
0.000406508
0.000404605
0.000399155
0.000390344
0.000381813
0.000390475
0.00039579
0.000397623
0.000395746
0.000390362
0.000381695
0.000307267
0.00029059
0.000270724
0.000247704
0.000221448
0.000191792
0.000161942
0.00021099
0.000319986
0.000302857
0.000282489
0.000258624
0.000231013
0.000199296
0.000165166
0.000193003
0.000327415
0.000310425
0.000289901
0.000265577
0.00023713
0.000204093
0.000167434
0.000183273
0.000329913
0.000313008
0.000292454
0.000267984
0.000239253
0.000205762
0.000168257
0.000180256
0.000327428
0.000310443
0.000289922
0.000265601
0.000237156
0.00020412
0.000167459
0.000183283
0.000319993
0.000302874
0.000282515
0.000258658
0.000231051
0.000199338
0.000165205
0.000193011
0.000307316
0.000290641
0.000270779
0.00024776
0.000221503
0.000191844
0.000161984
0.000210974
0.00030748
0.000290822
0.00027097
0.000247954
0.00022169
0.000192014
0.000162124
0.00021111
0.000320178
0.000303072
0.000282723
0.000258867
0.000231251
0.000199515
0.000165346
0.000193128
0.000327595
0.000310629
0.000290125
0.000265813
0.000237363
0.000204308
0.000167611
0.000183402
0.000330084
0.000313203
0.000292671
0.000268213
0.000239481
0.000205972
0.000168431
0.000180385
0.000327591
0.000310629
0.00029013
0.000265822
0.000237376
0.000204323
0.000167627
0.000183407
0.000320149
0.000303055
0.000282718
0.000258872
0.000231265
0.000199534
0.000165367
0.000193129
0.000307475
0.000290825
0.000270983
0.000247973
0.000221713
0.000192037
0.000162143
0.000211085
0.000308068
0.000291441
0.000271606
0.00024858
0.000222272
0.000192513
0.000162501
0.000211508
0.000320722
0.000303651
0.000283332
0.000259481
0.000231833
0.000200023
0.000165735
0.000193517
0.000328112
0.000311188
0.000290721
0.000266421
0.000237947
0.000204824
0.000168009
0.000183791
0.00033059
0.000313752
0.000293259
0.000268817
0.000240063
0.000206488
0.00016883
0.000180773
0.00032809
0.000311173
0.000290712
0.000266418
0.000237949
0.000204829
0.000168016
0.000183793
0.000320655
0.000303604
0.000283301
0.000259462
0.000231825
0.000200022
0.000165739
0.000193513
0.000308014
0.000291397
0.000271577
0.000248562
0.000222261
0.000192507
0.000162497
0.000211478
0.000310107
0.000293539
0.000273724
0.000250627
0.000224133
0.000194065
0.000163616
0.000212751
0.000322691
0.00030569
0.000285412
0.000261525
0.000233729
0.000201634
0.000166906
0.000194706
0.00033006
0.00031321
0.000292794
0.000268477
0.000239875
0.000206481
0.000169221
0.000184971
0.000332534
0.000315771
0.000295331
0.000270876
0.000242002
0.00020816
0.000170055
0.000181952
0.000330032
0.000313187
0.000292776
0.000268464
0.000239867
0.000206476
0.00016922
0.00018497
0.000322609
0.000305625
0.000285363
0.00026149
0.000233703
0.000201616
0.000166894
0.000194697
0.000310024
0.000293463
0.000273665
0.000250582
0.000224096
0.000194035
0.000163591
0.000212716
0.000318675
0.000302328
0.000282724
0.000259645
0.000232789
0.000201757
0.000169355
0.000215104
0.000331127
0.00031431
0.000294226
0.000270409
0.000242377
0.00020948
0.000172935
0.000197445
0.000338519
0.000321827
0.000301587
0.000277355
0.000248573
0.000214457
0.000175448
0.000187959
0.000341014
0.000324404
0.000304135
0.000279767
0.000250728
0.000216189
0.000176354
0.000185024
0.000338489
0.000321802
0.000301567
0.000277336
0.000248557
0.000214444
0.000175439
0.000187955
0.000331041
0.000314241
0.00029417
0.000270361
0.000242337
0.000209448
0.000172912
0.00019743
0.000318579
0.00030224
0.000282653
0.000259581
0.000232731
0.000201709
0.000169317
0.000215065
0.000369268
0.000357643
0.000343559
0.000326014
0.000303262
0.00027174
0.000222312
0.000247889
0.000378268
0.000365646
0.000350707
0.000332634
0.000309808
0.000278729
0.000228988
0.000228069
0.000384027
0.000371129
0.000355766
0.000337309
0.000314284
0.000283282
0.000233368
0.000217644
0.000386025
0.000373099
0.000357628
0.000339041
0.00031592
0.000284901
0.000234908
0.00021446
0.000384002
0.000371105
0.000355748
0.000337296
0.000314276
0.000283275
0.00023336
0.000217638
0.000378202
0.000365586
0.000350657
0.000332596
0.000309781
0.000278712
0.000228974
0.000228051
0.000369203
0.00035758
0.000343498
0.000325961
0.000303223
0.000271709
0.000222281
0.000247846
0.000307265
0.000290585
0.000270724
0.000247708
0.000221455
0.0001918
0.00016195
0.000211021
0.000320002
0.000302858
0.000282493
0.000258635
0.00023103
0.000199317
0.000165187
0.000193043
0.000327424
0.000310418
0.000289894
0.000265577
0.000237138
0.000204107
0.00016745
0.000183314
0.000329904
0.000312981
0.000292425
0.000267961
0.000239237
0.000205752
0.000168252
0.000180289
0.000327397
0.00031039
0.000289864
0.000265546
0.000237106
0.000204076
0.000167422
0.000183303
0.000319942
0.000302798
0.000282429
0.000258571
0.000230969
0.00019926
0.000165138
0.000193023
0.000307255
0.000290548
0.000270673
0.000247652
0.000221398
0.000191744
0.000161898
0.000210989
0.000307503
0.000290835
0.000270978
0.000247959
0.000221693
0.000192014
0.000162124
0.000211127
0.000320225
0.000303093
0.000282735
0.000258877
0.000231262
0.000199528
0.00016536
0.000193157
0.000327649
0.000310654
0.000290138
0.000265824
0.000237376
0.000204323
0.000167626
0.000183436
0.00033014
0.000313226
0.000292679
0.000268217
0.000239484
0.000205975
0.000168433
0.000180415
0.000327651
0.000310651
0.000290131
0.000265813
0.000237362
0.000204306
0.000167609
0.000183431
0.00032022
0.000303079
0.000282713
0.00025885
0.000231232
0.000199496
0.000165329
0.000193148
0.000307567
0.000290851
0.000270973
0.000247942
0.000221669
0.000191985
0.000162093
0.000211108
0.000308085
0.000291452
0.000271614
0.000248585
0.000222274
0.000192514
0.000162502
0.000211524
0.000320783
0.000303683
0.000283353
0.000259498
0.00023185
0.000200041
0.000165753
0.000193548
0.000328204
0.000311239
0.000290755
0.000266449
0.000237974
0.000204849
0.000168032
0.000183826
0.0003307
0.000313814
0.0002933
0.000268847
0.000240089
0.00020651
0.000168847
0.000180806
0.000328218
0.000311245
0.000290757
0.000266447
0.000237969
0.000204841
0.000168022
0.000183822
0.000320802
0.000303688
0.00028335
0.00025949
0.000231838
0.000200025
0.000165736
0.000193539
0.00030818
0.000291488
0.00027163
0.000248591
0.000222272
0.000192505
0.000162488
0.000211507
0.000310134
0.000293561
0.000273744
0.000250644
0.000224148
0.000194079
0.000163629
0.000212779
0.000322776
0.000305747
0.000285458
0.000261567
0.000233768
0.000201671
0.000166941
0.000194748
0.000330185
0.000313293
0.000292862
0.000268536
0.000239929
0.00020653
0.000169263
0.000185016
0.000332683
0.000315871
0.000295411
0.000270944
0.000242061
0.000208211
0.000170096
0.000181996
0.000330201
0.000313302
0.000292866
0.000268538
0.000239928
0.000206525
0.000169257
0.000185012
0.000322802
0.000305758
0.000285463
0.000261568
0.000233765
0.000201663
0.000166929
0.000194739
0.000310239
0.000293609
0.000273774
0.000250666
0.000224161
0.000194084
0.000163626
0.000212762
0.000318736
0.000302384
0.00028277
0.00025968
0.000232817
0.000201781
0.000169379
0.000215143
0.000331254
0.000314406
0.000294305
0.000270477
0.000242437
0.000209533
0.000172982
0.000197493
0.00033868
0.000321948
0.00030169
0.000277445
0.000248653
0.000214525
0.000175503
0.000188009
0.0003412
0.000324545
0.000304255
0.000279871
0.000250817
0.000216264
0.000176412
0.000185074
0.000338701
0.000321963
0.0003017
0.000277449
0.000248652
0.000214522
0.000175499
0.000188005
0.000331285
0.000314426
0.000294318
0.000270483
0.000242437
0.000209529
0.000172975
0.000197484
0.00031886
0.000302449
0.000282814
0.00025971
0.000232836
0.000201793
0.000169383
0.000215125
0.000369363
0.000357735
0.000343634
0.000326067
0.000303294
0.000271755
0.000222323
0.000247916
0.000378423
0.00036577
0.000350811
0.000332717
0.000309869
0.000278771
0.000229018
0.000228103
0.00038421
0.000371277
0.000355894
0.000337416
0.000314368
0.000283341
0.000233405
0.000217677
0.000386233
0.000373268
0.000357773
0.000339163
0.000316016
0.000284968
0.000234949
0.000214493
0.000384234
0.000371294
0.000355906
0.000337425
0.000314374
0.000283343
0.000233401
0.000217673
0.000378464
0.000365794
0.000350823
0.000332725
0.000309875
0.000278774
0.000229013
0.000228089
0.000369521
0.000357814
0.000343675
0.000326094
0.000303317
0.000271771
0.000222325
0.000247888
0.000307257
0.00029055
0.000270677
0.000247657
0.000221403
0.000191749
0.000161903
0.000210987
0.000319949
0.000302802
0.000282435
0.000258577
0.000230974
0.000199264
0.000165141
0.000193018
0.000327403
0.000310393
0.000289866
0.000265547
0.000237107
0.000204076
0.000167422
0.000183295
0.000329907
0.000312981
0.000292424
0.000267958
0.000239234
0.000205749
0.000168249
0.000180277
0.000327426
0.000310416
0.000289889
0.00026557
0.000237131
0.0002041
0.000167445
0.0001833
0.000319998
0.00030285
0.000282479
0.000258619
0.000231015
0.000199305
0.000165178
0.000193021
0.000307368
0.000290637
0.000270752
0.000247721
0.00022146
0.000191799
0.000161942
0.000210958
0.00030757
0.000290851
0.000270975
0.000247946
0.000221674
0.000191991
0.000162098
0.000211104
0.000320222
0.000303076
0.00028271
0.000258849
0.000231232
0.000199496
0.000165329
0.000193139
0.000327645
0.00031064
0.00029012
0.000265802
0.000237352
0.000204298
0.000167602
0.000183418
0.000330127
0.000313209
0.000292661
0.0002682
0.000239469
0.000205962
0.000168424
0.000180401
0.000327628
0.000310631
0.000290115
0.000265804
0.000237359
0.000204309
0.000167615
0.000183422
0.000320195
0.000303063
0.000282705
0.00025885
0.00023124
0.00019951
0.000165347
0.00019314
0.000307573
0.000290861
0.000270986
0.000247959
0.000221689
0.000192009
0.000162114
0.000211075
0.000308182
0.00029149
0.000271633
0.000248595
0.000222278
0.000192512
0.000162494
0.000211505
0.0003208
0.000303686
0.000283348
0.00025949
0.000231838
0.000200025
0.000165736
0.000193532
0.000328206
0.000311232
0.000290745
0.000266436
0.000237958
0.000204832
0.000168015
0.000183812
0.000330681
0.000313793
0.000293279
0.000268828
0.000240072
0.000206496
0.000168836
0.000180795
0.00032818
0.000311211
0.000290728
0.000266425
0.000237953
0.000204833
0.00016802
0.000183814
0.000320757
0.000303649
0.000283317
0.000259466
0.000231823
0.00020002
0.000165737
0.000193531
0.000308176
0.000291463
0.000271605
0.000248571
0.000222261
0.000192502
0.000162488
0.000211477
0.000310239
0.000293612
0.000273779
0.000250672
0.000224169
0.000194093
0.000163635
0.000212763
0.000322798
0.000305758
0.000285465
0.000261572
0.000233769
0.000201668
0.000166933
0.000194736
0.00033019
0.000313293
0.000292858
0.000268531
0.000239922
0.000206521
0.000169254
0.000185006
0.000332666
0.000315852
0.000295392
0.000270928
0.000242047
0.000208199
0.000170087
0.000181986
0.000330164
0.000313264
0.000292832
0.00026851
0.000239907
0.000206512
0.000169249
0.000185004
0.000322745
0.000305702
0.000285414
0.000261529
0.000233736
0.000201644
0.000166919
0.000194729
0.000310216
0.000293552
0.000273719
0.000250619
0.000224125
0.000194057
0.000163607
0.000212727
0.000318861
0.000302452
0.000282819
0.000259718
0.000232846
0.000201804
0.000169394
0.000215128
0.000331284
0.000314429
0.000294323
0.00027049
0.000242446
0.000209539
0.000172984
0.000197486
0.000338691
0.000321957
0.000301695
0.000277446
0.000248651
0.000214523
0.000175501
0.000188003
0.00034118
0.000324528
0.000304238
0.000279856
0.000250805
0.000216255
0.000176407
0.000185067
0.000338647
0.000321919
0.000301664
0.000277419
0.000248629
0.000214506
0.000175489
0.000187997
0.000331196
0.000314353
0.000294257
0.000270434
0.000242399
0.000209501
0.000172957
0.000197471
0.000318775
0.000302352
0.000282731
0.00025964
0.000232778
0.000201746
0.000169347
0.000215086
0.000369519
0.000357808
0.000343673
0.000326096
0.000303322
0.000271779
0.000222334
0.000247896
0.000378466
0.00036579
0.000350823
0.00033273
0.000309885
0.000278786
0.000229027
0.000228097
0.000384224
0.000371282
0.000355897
0.000337422
0.000314378
0.000283352
0.000233414
0.000217676
0.000386208
0.000373244
0.000357754
0.00033915
0.000316011
0.00028497
0.000234953
0.000214491
0.000384169
0.00037124
0.000355864
0.000337395
0.000314356
0.000283335
0.000233399
0.000217669
0.000378348
0.0003657
0.000350752
0.000332674
0.000309842
0.000278756
0.000229007
0.000228083
0.000369365
0.000357691
0.000343583
0.000326025
0.000303267
0.000271736
0.000222299
0.000247856
0.00030732
0.000290644
0.000270783
0.000247763
0.000221505
0.000191845
0.000161985
0.000210982
0.000320004
0.000302882
0.000282523
0.000258664
0.000231057
0.000199341
0.000165207
0.000193018
0.000327437
0.000310447
0.000289926
0.000265604
0.000237158
0.000204121
0.000167459
0.000183289
0.000329917
0.000313007
0.000292453
0.000267982
0.00023925
0.000205758
0.000168253
0.000180261
0.000327411
0.000310417
0.000289892
0.000265568
0.000237121
0.000204084
0.000167425
0.000183278
0.00031997
0.000302837
0.000282468
0.000258605
0.000230996
0.000199281
0.000165152
0.000193004
0.000307351
0.000290627
0.000270743
0.000247711
0.000221448
0.000191787
0.000161929
0.000210956
0.000307474
0.000290824
0.000270982
0.000247972
0.00022171
0.000192034
0.000162141
0.00021109
0.000320148
0.000303054
0.000282717
0.00025887
0.000231262
0.000199531
0.000165363
0.000193132
0.000327588
0.000310625
0.000290126
0.000265817
0.00023737
0.000204317
0.000167621
0.000183408
0.000330081
0.000313198
0.000292664
0.000268205
0.000239472
0.000205962
0.000168421
0.000180384
0.000327593
0.000310623
0.000290116
0.000265801
0.00023735
0.000204294
0.000167598
0.0001834
0.000320176
0.000303061
0.000282705
0.000258847
0.00023123
0.000199495
0.000165328
0.000193121
0.000307578
0.000290863
0.000270987
0.000247958
0.000221686
0.000192003
0.000162107
0.000211068
0.000308013
0.000291392
0.000271572
0.000248556
0.000222254
0.0001925
0.000162491
0.000211481
0.000320651
0.000303596
0.000283291
0.000259452
0.000231815
0.000200014
0.000165732
0.000193513
0.000328081
0.000311162
0.0002907
0.000266405
0.000237938
0.000204819
0.000168007
0.000183793
0.00033058
0.00031374
0.000293246
0.000268803
0.000240051
0.000206477
0.00016882
0.000180772
0.000328103
0.000311175
0.000290707
0.000266407
0.000237934
0.000204811
0.000167997
0.000183789
0.000320708
0.000303633
0.000283311
0.00025946
0.000231814
0.000200005
0.000165719
0.00019351
0.000308156
0.000291463
0.00027161
0.000248577
0.000222265
0.000192503
0.000162486
0.000211471
0.000310024
0.000293459
0.000273661
0.000250577
0.000224091
0.00019403
0.000163587
0.000212719
0.000322607
0.000305622
0.000285359
0.000261486
0.000233699
0.000201613
0.000166892
0.000194702
0.000330029
0.000313184
0.000292774
0.000268463
0.000239866
0.000206475
0.000169219
0.000184975
0.000332533
0.000315769
0.00029533
0.000270875
0.000242001
0.000208159
0.000170054
0.000181957
0.000330062
0.000313209
0.000292793
0.000268476
0.000239875
0.00020648
0.000169219
0.000184977
0.000322687
0.000305682
0.000285405
0.000261521
0.000233725
0.000201629
0.0001669
0.000194709
0.00031021
0.000293569
0.00027374
0.000250639
0.000224141
0.000194069
0.000163612
0.000212726
0.000318581
0.000302245
0.000282655
0.000259582
0.000232731
0.000201708
0.000169317
0.000215071
0.000331052
0.000314256
0.000294182
0.000270371
0.000242345
0.000209455
0.000172919
0.00019744
0.000338506
0.000321823
0.000301586
0.000277352
0.000248571
0.000214456
0.000175449
0.000187965
0.000341035
0.000324429
0.000304159
0.000279787
0.000250744
0.000216203
0.000176364
0.000185035
0.000338544
0.000321858
0.000301617
0.000277378
0.00024859
0.00021447
0.000175458
0.000187972
0.000331149
0.000314339
0.000294251
0.000270428
0.00024239
0.000209489
0.000172942
0.000197456
0.000318821
0.000302399
0.000282773
0.000259678
0.00023281
0.00020177
0.000169362
0.000215088
0.000369206
0.000357587
0.000343505
0.000325965
0.000303222
0.000271705
0.000222278
0.000247853
0.000378221
0.00036561
0.00035068
0.000332615
0.000309795
0.00027872
0.000228981
0.000228064
0.000384033
0.000371143
0.000355783
0.000337326
0.000314301
0.000283295
0.000233375
0.000217649
0.000386067
0.000373146
0.000357671
0.000339078
0.000315951
0.000284923
0.000234921
0.00021447
0.000384079
0.000371183
0.000355815
0.000337352
0.000314319
0.000283304
0.000233378
0.000217653
0.000378319
0.000365692
0.000350746
0.000332667
0.000309834
0.000278747
0.000228999
0.000228073
0.000369451
0.000357744
0.000343621
0.000326055
0.000303292
0.000271758
0.000222313
0.000247857
0.000120803
0.000254476
0.000321052
0.000363194
0.0003896
0.000403649
0.00040685
0.000399487
0.000120804
0.000254477
0.000321052
0.000363194
0.000389599
0.000403648
0.000406847
0.000399483
0.000120803
0.000254476
0.000321053
0.000363196
0.000389602
0.00040365
0.00040685
0.000399487
0.000120801
0.000254474
0.000321051
0.000363192
0.000389597
0.000403644
0.000406843
0.00039948
0.000120803
0.000254478
0.000321054
0.000363195
0.000389598
0.000403642
0.000406835
0.000399465
0.000120806
0.000254484
0.000321062
0.000363205
0.00038961
0.000403656
0.000406853
0.000399489
0.000120806
0.000254483
0.000321057
0.000363196
0.000389595
0.00040363
0.000406815
0.000399435
0.00012093
0.000254333
0.00032084
0.000362969
0.00038942
0.000403565
0.000406901
0.0003997
0.00012093
0.000254336
0.000320843
0.000362972
0.000389422
0.000403568
0.000406904
0.000399704
0.000120927
0.000254334
0.000320841
0.000362971
0.000389422
0.000403568
0.000406904
0.000399703
0.000120925
0.000254332
0.000320839
0.000362969
0.000389421
0.000403569
0.000406906
0.000399706
0.000120925
0.000254332
0.00032084
0.00036297
0.000389423
0.000403571
0.000406909
0.000399712
0.000120928
0.000254334
0.000320841
0.000362971
0.000389421
0.000403566
0.000406901
0.000399701
0.00012093
0.000254338
0.000320846
0.000362978
0.00038943
0.000403577
0.000406916
0.000399721
0.000121912
0.000255216
0.000321453
0.000363343
0.000389657
0.000403784
0.000407206
0.000400176
0.000121911
0.000255218
0.000321454
0.000363345
0.00038966
0.000403786
0.000407206
0.000400174
0.000121909
0.000255218
0.000321455
0.000363346
0.00038966
0.000403786
0.000407206
0.000400175
0.000121906
0.000255216
0.000321453
0.000363344
0.000389659
0.000403785
0.000407206
0.000400173
0.000121907
0.000255215
0.000321453
0.000363345
0.000389659
0.000403785
0.000407205
0.000400171
0.000121908
0.000255214
0.000321453
0.000363346
0.000389661
0.000403787
0.000407208
0.000400176
0.00012191
0.000255212
0.000321453
0.000363346
0.00038966
0.000403786
0.000407206
0.000400173
0.000126326
0.000259985
0.000325425
0.000366382
0.000391781
0.000405223
0.000408301
0.000401219
0.000126327
0.000259989
0.000325428
0.000366384
0.000391783
0.000405224
0.000408301
0.000401222
0.000126328
0.000259996
0.00032543
0.000366383
0.000391781
0.000405222
0.000408298
0.000401219
0.000126326
0.000259996
0.000325428
0.000366381
0.000391778
0.00040522
0.000408298
0.000401219
0.000126327
0.000259993
0.000325428
0.000366382
0.00039178
0.000405222
0.000408298
0.00040122
0.000126325
0.000259987
0.000325426
0.000366382
0.000391781
0.000405222
0.000408298
0.000401219
0.000126325
0.000259984
0.000325426
0.000366384
0.000391783
0.000405223
0.000408299
0.000401219
0.000130966
0.000278512
0.000343294
0.000380414
0.000401541
0.000411455
0.000412224
0.000403918
0.000130925
0.000278489
0.000343272
0.000380395
0.000401528
0.000411445
0.000412217
0.000403912
0.00013089
0.000278477
0.000343259
0.000380379
0.000401515
0.000411436
0.000412213
0.000403911
0.000130873
0.000278467
0.000343247
0.000380365
0.000401502
0.000411426
0.000412206
0.000403905
0.000130887
0.00027847
0.000343252
0.000380373
0.000401509
0.000411431
0.000412208
0.000403907
0.00013092
0.000278478
0.00034326
0.000380383
0.000401518
0.000411437
0.000412211
0.000403908
0.000130963
0.000278501
0.000343281
0.000380401
0.00040153
0.000411445
0.000412216
0.00040391
0.000191574
0.000328695
0.000389531
0.00042731
0.000438685
0.000436039
0.00042687
0.000412365
0.000191381
0.000328435
0.000389262
0.000427142
0.000438594
0.000435991
0.000426847
0.000412355
0.00019125
0.000328262
0.000389061
0.000426998
0.000438506
0.000435937
0.000426817
0.000412339
0.00019121
0.000328194
0.000388979
0.000426926
0.000438452
0.000435902
0.000426795
0.000412327
0.000191245
0.000328255
0.000389046
0.000426982
0.000438492
0.000435927
0.00042681
0.000412335
0.000191374
0.000328426
0.000389231
0.000427106
0.000438563
0.000435968
0.000426833
0.000412347
0.000191566
0.000328689
0.000389498
0.000427272
0.000438654
0.000436019
0.00042686
0.000412361
0.000120801
0.000254475
0.000321052
0.000363196
0.000389604
0.000403657
0.000406862
0.000399504
0.000120801
0.000254473
0.000321048
0.000363189
0.000389595
0.000403645
0.000406848
0.00039949
0.000120801
0.000254474
0.000321048
0.000363188
0.000389591
0.000403636
0.000406833
0.000399468
0.000120801
0.000254474
0.000321049
0.00036319
0.000389594
0.000403639
0.000406834
0.000399465
0.0001208
0.000254473
0.00032105
0.000363193
0.000389601
0.000403652
0.000406854
0.000399493
0.000120799
0.00025447
0.000321046
0.00036319
0.000389598
0.000403651
0.000406856
0.000399502
0.000120799
0.000254468
0.000321043
0.000363185
0.00038959
0.000403639
0.00040684
0.00039948
0.000120929
0.000254331
0.000320838
0.000362966
0.000389416
0.000403561
0.000406896
0.000399694
0.000120928
0.000254333
0.000320839
0.000362968
0.000389419
0.000403565
0.000406901
0.000399699
0.000120926
0.000254332
0.000320839
0.000362969
0.000389421
0.00040357
0.000406909
0.000399712
0.000120924
0.00025433
0.000320836
0.000362966
0.000389419
0.000403568
0.000406909
0.000399714
0.000120923
0.000254327
0.000320832
0.000362961
0.000389413
0.00040356
0.000406898
0.000399699
0.000120923
0.000254325
0.000320831
0.000362961
0.000389412
0.000403559
0.000406896
0.000399695
0.000120924
0.000254325
0.000320831
0.000362963
0.000389416
0.000403565
0.000406904
0.000399706
0.000121911
0.000255214
0.000321452
0.000363342
0.000389657
0.000403785
0.000407209
0.000400181
0.000121909
0.000255215
0.000321451
0.000363342
0.000389657
0.000403785
0.000407207
0.000400176
0.000121907
0.000255216
0.000321452
0.000363342
0.000389656
0.000403782
0.000407202
0.00040017
0.000121905
0.000255215
0.000321452
0.000363342
0.000389656
0.000403782
0.000407202
0.000400169
0.000121905
0.000255213
0.000321451
0.000363342
0.000389658
0.000403785
0.000407207
0.000400176
0.000121905
0.000255209
0.000321448
0.000363341
0.000389657
0.000403786
0.00040721
0.00040018
0.000121906
0.000255206
0.000321445
0.000363339
0.000389656
0.000403784
0.000407207
0.000400175
0.000126326
0.000259985
0.000325425
0.000366382
0.000391781
0.000405223
0.000408301
0.000401219
0.000126326
0.000259989
0.000325427
0.000366383
0.000391782
0.000405223
0.0004083
0.000401221
0.000126327
0.000259996
0.00032543
0.000366383
0.000391781
0.000405222
0.000408299
0.00040122
0.000126327
0.000259998
0.00032543
0.000366381
0.000391778
0.00040522
0.000408298
0.00040122
0.000126327
0.000259995
0.000325429
0.000366382
0.000391779
0.000405221
0.000408298
0.000401219
0.000126325
0.000259988
0.000325426
0.000366381
0.00039178
0.000405221
0.000408298
0.000401219
0.000126325
0.000259985
0.000325426
0.000366382
0.000391781
0.000405223
0.0004083
0.000401221
0.000130967
0.000278515
0.000343297
0.000380416
0.000401544
0.000411457
0.000412226
0.00040392
0.000130928
0.000278493
0.000343275
0.000380397
0.000401529
0.000411445
0.000412217
0.000403911
0.000130894
0.000278482
0.000343262
0.000380381
0.000401516
0.000411436
0.000412212
0.000403909
0.000130878
0.000278475
0.000343253
0.000380368
0.000401504
0.000411427
0.000412205
0.000403904
0.000130894
0.00027848
0.00034326
0.000380377
0.000401513
0.000411434
0.00041221
0.000403908
0.000130929
0.000278491
0.00034327
0.000380389
0.000401522
0.00041144
0.000412215
0.000403911
0.000130973
0.000278515
0.000343291
0.000380407
0.000401534
0.000411448
0.000412218
0.000403912
0.000191576
0.000328694
0.00038953
0.000427311
0.000438688
0.000436043
0.000426872
0.000412366
0.000191385
0.000328434
0.000389262
0.000427142
0.000438595
0.000435992
0.000426847
0.000412354
0.000191255
0.000328263
0.000389064
0.000427
0.000438506
0.000435937
0.000426815
0.000412336
0.000191217
0.0003282
0.000388987
0.00042693
0.000438454
0.000435902
0.000426794
0.000412325
0.000191255
0.000328266
0.000389061
0.000426991
0.000438496
0.000435928
0.000426809
0.000412332
0.000191388
0.000328442
0.000389253
0.00042712
0.000438569
0.00043597
0.000426831
0.000412343
0.000191583
0.00032871
0.000389524
0.000427289
0.000438661
0.00043602
0.000426857
0.000412356
0.0001208
0.000254469
0.000321044
0.000363186
0.00038959
0.000403636
0.000406834
0.000399469
0.0001208
0.000254471
0.000321046
0.000363189
0.000389595
0.000403643
0.000406841
0.000399477
0.000120799
0.000254471
0.000321047
0.000363191
0.000389599
0.00040365
0.000406852
0.000399492
0.000120799
0.00025447
0.000321046
0.000363189
0.000389596
0.000403647
0.000406851
0.000399494
0.0001208
0.000254472
0.000321046
0.000363187
0.000389592
0.00040364
0.00040684
0.000399479
0.000120802
0.000254474
0.000321048
0.000363189
0.000389592
0.000403639
0.000406835
0.000399469
0.000120804
0.000254476
0.00032105
0.00036319
0.000389595
0.000403643
0.000406843
0.00039948
0.000120924
0.000254324
0.000320831
0.000362963
0.000389417
0.000403568
0.000406909
0.000399714
0.000120923
0.000254325
0.000320831
0.000362962
0.000389415
0.000403565
0.000406905
0.00039971
0.000120923
0.000254326
0.000320832
0.000362961
0.000389413
0.000403561
0.000406899
0.0003997
0.000120923
0.000254327
0.000320833
0.000362962
0.000389413
0.000403561
0.000406898
0.000399697
0.000120924
0.000254328
0.000320834
0.000362964
0.000389416
0.000403565
0.000406903
0.000399704
0.000120926
0.000254328
0.000320834
0.000362964
0.000389416
0.000403566
0.000406906
0.00039971
0.000120928
0.000254331
0.000320836
0.000362964
0.000389416
0.000403565
0.000406903
0.000399705
0.000121907
0.000255206
0.000321446
0.000363339
0.000389655
0.000403783
0.000407204
0.000400171
0.000121905
0.000255209
0.000321448
0.00036334
0.000389655
0.000403783
0.000407205
0.000400172
0.000121905
0.000255212
0.000321449
0.000363341
0.000389656
0.000403785
0.000407207
0.000400176
0.000121904
0.000255212
0.00032145
0.000363341
0.000389656
0.000403784