/*--------------------------------*- C++ -*----------------------------------*\
| =========                 |                                                 |
| \\      /  F ield         | OpenFOAM: The Open Source CFD Toolbox           |
|  \\    /   O peration     | Version:  plus.master.MPPICInterFoam            |
|   \\  /    A nd           | Web:      www.OpenFOAM.com                      |
|    \\/     M anipulation  |                                                 |
\*---------------------------------------------------------------------------*/
FoamFile
{
    version     2.0;
    format      ascii;
    class       surfaceScalarField;
    location    "2.2";
    object      phi;
}
// * * * * * * * * * * * * * * * * * * * * * * * * * * * * * * * * * * * * * //

dimensions      [0 3 -1 0 0 0 0];

internalField   nonuniform List<scalar> 
34319
(
-2.16406e-09
-2.40744e-09
1.45669e-06
2.91256e-09
2.94277e-09
-1.29018e-09
-2.67868e-09
1.45684e-06
3.30879e-09
-2.00783e-10
-2.84684e-09
1.45693e-06
3.58946e-09
8.94381e-10
-2.94301e-09
1.45698e-06
3.74581e-09
1.85967e-09
-2.95976e-09
1.45701e-06
3.79976e-09
2.57215e-09
-2.86471e-09
1.45701e-06
3.68857e-09
-2.64532e-09
1.45691e-06
2.93901e-09
3.38428e-09
-2.42954e-09
-1.60373e-09
1.45684e-06
3.11789e-09
-1.50309e-09
-1.80733e-09
1.45642e-06
-3.01529e-10
-1.92789e-09
1.45616e-06
9.37127e-10
-1.99448e-09
1.4561e-06
2.05702e-09
-2.00921e-09
1.45625e-06
2.9075e-09
-1.95351e-09
1.4566e-06
-1.81135e-09
1.45707e-06
3.36818e-09
-2.59828e-09
-5.06242e-10
1.45692e-06
3.33252e-09
-1.63215e-09
-6.0721e-10
1.45616e-06
-3.72259e-10
-6.6757e-10
1.4557e-06
9.36655e-10
-7.02137e-10
1.45558e-06
2.13975e-09
-7.1787e-10
1.4558e-06
3.09055e-09
-6.96552e-10
1.45634e-06
-6.44423e-10
1.45717e-06
3.65903e-09
-2.70239e-09
6.36701e-10
1.45695e-06
3.48347e-09
-1.70336e-09
6.47376e-10
1.45608e-06
-4.1273e-10
6.54142e-10
1.45557e-06
9.28077e-10
6.51547e-10
1.45543e-06
2.16497e-09
6.34822e-10
1.45567e-06
3.16374e-09
6.02079e-10
1.45627e-06
5.53072e-10
1.45722e-06
3.79906e-09
-2.74314e-09
1.6447e-09
1.45697e-06
3.56076e-09
-1.71818e-09
1.78488e-09
1.45621e-06
-4.24372e-10
1.8821e-09
1.45577e-06
9.08388e-10
1.92098e-09
1.45565e-06
2.13833e-09
1.89919e-09
1.45588e-06
3.14364e-09
1.80439e-09
1.45642e-06
1.6355e-09
1.45724e-06
3.82096e-09
-2.67636e-09
2.35038e-09
1.45694e-06
3.53384e-09
-1.65141e-09
2.6446e-09
1.45654e-06
-3.96279e-10
2.86735e-09
1.4563e-06
8.76454e-10
2.96656e-09
1.45624e-06
2.04177e-09
2.95601e-09
1.4564e-06
2.9965e-09
2.79633e-09
1.45675e-06
2.46564e-09
1.45723e-06
3.66899e-09
-2.36346e-09
1.45683e-06
3.09395e-09
2.76699e-09
-1.43735e-09
1.457e-06
3.16255e-09
-3.08323e-10
1.4571e-06
3.52641e-09
8.34633e-10
1.45716e-06
3.69317e-09
1.85412e-09
1.45721e-06
3.71303e-09
2.66193e-09
1.45721e-06
3.49579e-09
1.45713e-06
3.25518e-09
2.94201e-09
-5.98176e-09
-6.34197e-09
1.45378e-06
7.44623e-09
7.74501e-09
-3.49967e-09
-6.96604e-09
1.45297e-06
8.80012e-09
-7.76811e-10
-7.33925e-09
1.45244e-06
9.36278e-09
2.03629e-09
-7.44977e-09
1.45225e-06
9.53329e-09
4.63778e-09
-7.29358e-09
1.45246e-06
9.34484e-09
6.74276e-09
-6.86357e-09
1.45301e-06
8.78195e-09
-6.19446e-09
1.45384e-06
7.99558e-09
7.9895e-09
-6.61678e-09
-3.89525e-09
1.45297e-06
8.47673e-09
-3.90291e-09
-4.29002e-09
1.45158e-06
-9.11677e-10
-4.53798e-09
1.45067e-06
2.1929e-09
-4.6194e-09
1.45037e-06
5.09747e-09
-4.53164e-09
1.45069e-06
7.50264e-09
-4.26798e-09
1.45162e-06
-3.83404e-09
1.45303e-06
9.13621e-09
-7.02482e-09
-1.18433e-09
1.45244e-06
9.05634e-09
-4.16953e-09
-1.3146e-09
1.45068e-06
-1.00671e-09
-1.39553e-09
1.44957e-06
2.27478e-09
-1.41901e-09
1.4492e-06
5.36536e-09
-1.38996e-09
1.4496e-06
7.97547e-09
-1.29901e-09
1.45074e-06
-1.1487e-09
1.45251e-06
9.85619e-09
-7.16291e-09
1.64453e-09
1.45226e-06
9.24167e-09
-4.26236e-09
1.79025e-09
1.45038e-06
-1.0381e-09
1.88014e-09
1.44921e-06
2.30022e-09
1.91336e-09
1.44882e-06
5.45821e-09
1.88359e-09
1.44924e-06
8.14375e-09
1.78963e-09
1.45044e-06
1.63264e-09
1.45235e-06
1.01238e-08
-7.02239e-09
4.30685e-09
1.45246e-06
9.04235e-09
-4.17936e-09
4.71636e-09
1.4507e-06
-1.00938e-09
4.98824e-09
1.44961e-06
2.26893e-09
5.08282e-09
1.44925e-06
5.36778e-09
4.99107e-09
1.44965e-06
7.99783e-09
4.71082e-09
1.45078e-06
4.24725e-09
1.45256e-06
9.92946e-09
-6.61214e-09
6.49167e-09
1.45302e-06
8.51373e-09
-3.91538e-09
7.15951e-09
1.45163e-06
-9.16791e-10
7.6332e-09
1.45074e-06
2.17809e-09
7.79887e-09
1.45045e-06
5.09265e-09
7.65095e-09
1.45079e-06
7.53981e-09
7.18893e-09
1.45172e-06
6.4478e-09
1.45313e-06
9.26715e-09
-5.90857e-09
1.45384e-06
7.75317e-09
7.789e-09
-3.44072e-09
1.45304e-06
8.87925e-09
-7.49474e-10
1.45252e-06
9.6048e-09
2.03167e-09
1.45235e-06
9.84275e-09
4.63025e-09
1.45257e-06
9.63801e-09
6.78917e-09
1.45314e-06
8.98994e-09
1.45398e-06
8.2232e-09
7.99965e-09
-1.60313e-08
-1.64104e-08
1.4461e-06
1.98886e-08
2.03007e-08
-9.7754e-09
-1.75096e-08
1.44312e-06
2.20567e-08
-2.89578e-09
-1.82466e-08
1.44124e-06
2.32115e-08
4.2565e-09
-1.84593e-08
1.44059e-06
2.3562e-08
1.10444e-08
-1.81126e-08
1.44122e-06
2.30957e-08
1.68368e-08
-1.72474e-08
1.44308e-06
2.18613e-08
-1.60313e-08
1.44606e-06
2.06352e-08
2.04378e-08
-1.71511e-08
-1.01506e-08
1.44313e-06
2.16877e-08
-1.05082e-08
-1.08736e-08
1.43955e-06
-3.13805e-09
-1.13237e-08
1.43727e-06
4.54527e-09
-1.1452e-08
1.43648e-06
1.18561e-08
-1.12472e-08
1.43724e-06
1.81043e-08
-1.07175e-08
1.4395e-06
-9.88933e-09
1.44307e-06
2.25494e-08
-1.79421e-08
-3.28756e-09
1.44126e-06
2.2927e-08
-1.09827e-08
-3.51858e-09
1.43728e-06
-3.28736e-09
-3.6492e-09
1.43478e-06
4.7234e-09
-3.67419e-09
1.43392e-06
1.23648e-08
-3.59571e-09
1.43475e-06
1.8961e-08
-3.41071e-09
1.43723e-06
-3.12241e-09
1.44119e-06
2.38951e-08
-1.81927e-08
3.85399e-09
1.44063e-06
2.33037e-08
-1.11261e-08
4.15429e-09
1.43651e-06
-3.32241e-09
4.35225e-09
1.43394e-06
4.7933e-09
4.4305e-09
1.43306e-06
1.25467e-08
4.37893e-09
1.43391e-06
1.92641e-08
4.20364e-09
1.43645e-06
3.90821e-09
1.44054e-06
2.43622e-08
-1.78515e-08
1.07034e-08
1.44127e-06
2.27911e-08
-1.09217e-08
1.14876e-08
1.43729e-06
-3.2457e-09
1.20056e-08
1.43479e-06
4.74142e-09
1.21831e-08
1.43393e-06
1.23724e-08
1.20055e-08
1.43476e-06
1.89653e-08
1.1485e-08
1.43723e-06
1.06379e-08
1.44119e-06
2.39119e-08
-1.69911e-08
1.66274e-08
1.44315e-06
2.15231e-08
-1.0395e-08
1.77887e-08
1.43956e-06
-3.06512e-09
1.86303e-08
1.43728e-06
4.57474e-09
1.89165e-08
1.43649e-06
1.1864e-08
1.86094e-08
1.43725e-06
1.81137e-08
1.77636e-08
1.43951e-06
1.65154e-08
1.44308e-06
2.25904e-08
-1.5766e-08
1.44613e-06
2.02238e-08
2.04543e-08
-9.55453e-09
1.44314e-06
2.2316e-08
-2.77128e-09
1.44125e-06
2.36214e-08
4.29834e-09
1.4406e-06
2.40416e-08
1.10463e-08
1.44123e-06
2.35919e-08
1.68581e-08
1.4431e-06
2.23406e-08
1.44609e-06
2.08113e-08
2.07718e-08
-4.01201e-08
-4.04594e-08
1.42503e-06
5.06601e-08
5.11362e-08
-2.48405e-08
-4.23345e-08
1.41749e-06
5.39319e-08
-8.09535e-09
-4.3715e-08
1.41286e-06
5.62139e-08
9.23922e-09
-4.41655e-08
1.41127e-06
5.69534e-08
2.59569e-08
-4.35691e-08
1.41277e-06
5.60481e-08
4.08267e-08
-4.20461e-08
1.41734e-06
5.36372e-08
-4.00172e-08
1.42487e-06
5.15723e-08
5.11691e-08
-4.20229e-08
-2.51245e-08
1.4175e-06
5.35537e-08
-2.61795e-08
-2.64561e-08
1.40943e-06
-8.56582e-09
-2.72993e-08
1.4044e-06
9.73109e-09
-2.75668e-08
1.40267e-06
2.7352e-08
-2.72276e-08
1.40431e-06
4.28556e-08
-2.63181e-08
1.40927e-06
-2.48837e-08
1.41732e-06
5.44829e-08
-4.34729e-08
-8.36479e-09
1.41289e-06
5.59835e-08
-2.70483e-08
-8.82528e-09
1.40442e-06
-8.85321e-09
-9.0994e-09
1.39918e-06
1.00319e-08
-9.17726e-09
1.39739e-06
2.82237e-08
-9.05938e-09
1.39909e-06
4.43033e-08
-8.75261e-09
1.40425e-06
-8.25152e-09
1.41267e-06
5.68473e-08
-4.3972e-08
8.96622e-09
1.41132e-06
5.67881e-08
-2.73372e-08
9.4703e-09
1.40271e-06
-8.94128e-09
9.78875e-09
1.39741e-06
1.01398e-08
9.9016e-09
1.39559e-06
2.8526e-08
9.79738e-09
1.39732e-06
4.48137e-08
9.49107e-09
1.40254e-06
8.98141e-09
1.41109e-06
5.76479e-08
-4.3387e-08
2.5717e-08
1.41285e-06
5.58576e-08
-2.70025e-08
2.71026e-08
1.40438e-06
-8.82893e-09
2.79894e-08
1.39914e-06
1.00357e-08
2.82877e-08
1.39734e-06
2.82159e-08
2.7975e-08
1.39904e-06
4.42786e-08
2.70845e-08
1.4042e-06
2.56389e-08
1.41261e-06
5.67977e-08
-4.18568e-08
4.06915e-08
1.41745e-06
5.33607e-08
-2.60935e-08
4.26525e-08
1.40936e-06
-8.5268e-09
4.40975e-08
1.40431e-06
9.74074e-09
4.45909e-08
1.40258e-06
2.73398e-08
4.40359e-08
1.40422e-06
4.28124e-08
4.25617e-08
1.40916e-06
4.0521e-08
1.4172e-06
5.43999e-08
-3.97908e-08
1.42498e-06
5.09475e-08
5.14716e-08
-2.46539e-08
1.41742e-06
5.43704e-08
-8.02126e-09
1.41275e-06
5.66659e-08
9.24779e-09
1.41115e-06
5.74174e-08
2.59279e-08
1.41265e-06
5.65425e-08
4.07747e-08
1.41721e-06
5.41717e-08
1.42472e-06
5.16204e-08
5.15906e-08
-9.839e-08
-9.86813e-08
1.36638e-06
1.27651e-07
1.28262e-07
-6.08253e-08
-1.00791e-07
1.35034e-06
1.3121e-07
-2.04324e-08
-1.02664e-07
1.34096e-06
1.3477e-07
2.09912e-08
-1.03323e-07
1.3378e-06
1.35943e-07
6.14786e-08
-1.02493e-07
1.34085e-06
1.34495e-07
9.90668e-08
-1.00451e-07
1.35012e-06
1.3064e-07
-9.82369e-08
1.3661e-06
1.28865e-07
1.27756e-07
-1.00538e-07
-6.09716e-08
1.35035e-06
1.30811e-07
-6.25428e-08
-6.27009e-08
1.33442e-06
-2.10519e-08
-6.38175e-08
1.32487e-06
2.16413e-08
-6.42007e-08
1.32165e-06
6.32462e-08
-6.37648e-08
1.32477e-06
1.0121e-07
-6.26078e-08
1.33422e-06
-6.08513e-08
1.35008e-06
1.31736e-07
-1.02507e-07
-2.05419e-08
1.34099e-06
1.3458e-07
-6.3684e-08
-2.11719e-08
1.32489e-06
-2.144e-08
-2.15492e-08
1.31527e-06
2.20304e-08
-2.16661e-08
1.31203e-06
6.43588e-08
-2.15113e-08
1.31518e-06
1.03041e-07
-2.11198e-08
1.32471e-06
-2.04837e-08
1.34073e-06
1.35208e-07
-1.03237e-07
2.09054e-08
1.33787e-06
1.35869e-07
-6.40889e-08
2.15573e-08
1.3217e-06
-2.15662e-08
2.19547e-08
1.31205e-06
2.21748e-08
2.20967e-08
1.3088e-06
6.47512e-08
2.19666e-08
1.31196e-06
1.03717e-07
2.15723e-08
1.32152e-06
2.09024e-08
1.3376e-06
1.36398e-07
-1.02435e-07
6.14205e-08
1.34094e-06
1.34488e-07
-6.36653e-08
6.31892e-08
1.32484e-06
-2.14237e-08
6.43055e-08
1.31522e-06
2.20442e-08
6.46862e-08
1.31198e-06
6.43391e-08
6.42598e-08
1.31513e-06
1.0295e-07
6.30943e-08
1.32465e-06
6.12616e-08
1.34067e-06
1.35042e-07
-1.00391e-07
9.90128e-08
1.35024e-06
1.30635e-07
-6.25209e-08
1.01162e-07
1.33431e-06
-2.10472e-08
1.03006e-07
1.32477e-06
2.16454e-08
1.03653e-07
1.32155e-06
6.31851e-08
1.02829e-07
1.32467e-06
1.00986e-07
1.00822e-07
1.33411e-06
9.85734e-08
1.34998e-06
1.31323e-07
-9.81296e-08
1.36622e-06
1.27649e-07
1.2881e-07
-6.07695e-08
1.35018e-06
1.31722e-07
-2.0426e-08
1.3408e-06
1.35181e-07
2.09558e-08
1.33765e-06
1.36292e-07
6.13578e-08
1.34069e-06
1.3484e-07
9.87481e-08
1.34998e-06
1.3107e-07
1.36598e-06
1.28322e-07
1.28158e-07
-2.09768e-07
-2.09941e-07
2.8065e-07
2.81103e-07
1.22444e-06
-1.28172e-07
-2.12533e-07
2.84781e-07
1.19682e-06
-4.31387e-08
-2.15103e-07
2.90341e-07
1.18096e-06
4.30167e-08
-2.16036e-07
2.92214e-07
1.1758e-06
1.28222e-07
-2.14853e-07
2.89947e-07
1.18089e-06
2.10144e-07
-2.12095e-07
2.83954e-07
1.19667e-06
-2.09481e-07
2.81675e-07
2.80135e-07
1.22425e-06
-2.12388e-07
-1.28169e-07
2.84479e-07
1.19683e-06
-1.30382e-07
-1.30384e-07
1.17072e-06
-4.39115e-08
-1.31763e-07
1.15549e-06
4.38951e-08
-1.32228e-07
1.15047e-06
1.30482e-07
-1.31649e-07
1.15541e-06
2.12633e-07
-1.30197e-07
1.17057e-06
-1.27985e-07
2.84953e-07
1.19662e-06
-2.1503e-07
-4.30532e-08
2.9022e-07
1.18098e-06
-1.31781e-07
-4.38619e-08
1.15549e-06
-4.43578e-08
-4.43048e-08
1.14066e-06
4.44013e-08
-4.44428e-08
1.13575e-06
1.31884e-07
-4.42566e-08
1.14057e-06
2.15092e-07
-4.37901e-08
1.15533e-06
-4.29921e-08
2.90343e-07
1.18075e-06
-2.16049e-07
4.31047e-08
2.92195e-07
1.17584e-06
-1.32272e-07
4.39676e-08
1.15049e-06
-4.4504e-08
4.44685e-08
1.13576e-06
4.45719e-08
4.4623e-08
1.13089e-06
1.32367e-07
4.44403e-08
1.13568e-06
2.16044e-07
4.39422e-08
1.15032e-06
4.30907e-08
2.92237e-07
1.17559e-06
-2.14912e-07
1.28284e-07
2.90023e-07
1.18096e-06
-1.31719e-07
1.30539e-07
1.15545e-06
-4.43436e-08
1.31922e-07
1.1406e-06
4.43889e-08
1.32382e-07
1.13569e-06
1.3183e-07
1.31825e-07
1.14051e-06
2.1499e-07
1.304e-07
1.15527e-06
1.28165e-07
2.90183e-07
1.18069e-06
-2.12187e-07
2.10091e-07
2.84122e-07
1.19678e-06
-1.30308e-07
2.1264e-07
1.17063e-06
-4.39051e-08
2.15131e-07
1.15537e-06
4.3882e-08
2.16066e-07
1.15035e-06
1.30419e-07
2.14937e-07
1.15529e-06
2.12453e-07
2.12309e-07
1.17046e-06
2.09768e-07
2.84646e-07
1.19652e-06
-2.09571e-07
2.80379e-07
2.81393e-07
1.22435e-06
-1.28104e-07
2.85014e-07
1.19668e-06
-4.31149e-08
2.90482e-07
1.1808e-06
4.3001e-08
2.92291e-07
1.17564e-06
1.28162e-07
2.90074e-07
1.18074e-06
2.09947e-07
2.84325e-07
1.19655e-06
2.81224e-07
2.80705e-07
1.22414e-06
3.63287e-09
-6.42566e-10
8.97602e-07
1.33612e-10
4.04187e-09
-4.10727e-10
1.06791e-06
-6.04997e-12
4.1004e-09
-2.25526e-10
1.23097e-06
-7.15636e-11
3.80569e-09
-1.10088e-10
1.38634e-06
-1.06744e-10
3.20002e-09
-5.40105e-11
1.53302e-06
-1.33119e-10
2.34211e-09
-2.96427e-11
1.66797e-06
-1.51556e-10
1.27922e-09
-1.3419e-11
1.77713e-06
-1.59407e-10
5.87455e-12
1.76358e-06
-1.5232e-10
3.95954e-09
-6.83217e-10
1.12461e-06
4.34558e-09
-4.67351e-10
1.2952e-06
4.44621e-09
-3.08e-10
1.4585e-06
4.18856e-09
-2.09902e-10
1.61411e-06
3.55106e-09
-1.55866e-10
1.76108e-06
2.57533e-09
-1.25959e-10
1.8965e-06
1.33661e-09
-1.07897e-10
2.00733e-06
-9.51057e-11
1.99981e-06
4.27137e-09
-3.03577e-10
1.26642e-06
4.74251e-09
-2.47079e-10
1.43857e-06
4.9149e-09
-1.94083e-10
1.60327e-06
4.68099e-09
-1.56747e-10
1.76014e-06
4.00014e-09
-1.31155e-10
1.9083e-06
2.91558e-09
-1.11413e-10
2.04495e-06
1.51293e-09
-9.57436e-11
2.15751e-06
-8.55561e-11
2.1532e-06
4.44913e-09
1.73949e-10
1.31464e-06
4.9458e-09
6.6546e-11
1.48756e-06
5.13385e-09
-8.11857e-13
1.65294e-06
4.89162e-09
-3.29356e-11
1.81043e-06
4.1818e-09
-4.59647e-11
1.95916e-06
3.04849e-09
-4.5706e-11
2.09639e-06
1.58544e-09
-4.01433e-11
2.2097e-06
-3.95347e-11
2.20651e-06
4.50035e-09
5.01903e-10
1.26649e-06
4.96597e-09
2.94482e-10
1.43865e-06
5.11926e-09
1.47905e-10
1.60336e-06
4.85141e-09
6.65421e-11
1.76024e-06
4.13153e-09
2.76444e-11
1.9084e-06
3.00513e-09
1.51037e-11
2.04505e-06
1.56951e-09
1.42819e-11
2.15761e-06
7.83243e-12
2.1533e-06
4.36962e-09
4.61347e-10
1.12474e-06
4.78499e-09
2.89297e-10
1.29534e-06
4.86504e-09
1.52826e-10
1.45866e-06
4.55396e-09
7.37012e-11
1.61429e-06
3.84809e-09
3.79981e-11
1.76126e-06
2.79215e-09
2.92066e-11
1.89669e-06
1.46454e-09
3.3739e-11
2.0075e-06
3.29446e-11
2e-06
4.00326e-09
8.97738e-07
-1.24079e-10
4.41117e-09
1.06808e-06
-8.39326e-11
4.43907e-09
1.23116e-06
-5.89271e-11
4.09121e-09
1.38655e-06
-4.0781e-11
3.40718e-09
1.53324e-06
-2.74778e-11
2.45136e-09
1.66819e-06
-1.69669e-11
1.28592e-09
1.77735e-06
-7.86543e-12
1.76381e-06
1.80745e-12
1.04007e-08
-1.01247e-09
8.96288e-07
-1.24548e-10
1.20877e-08
-6.91888e-10
1.06712e-06
-2.75596e-10
1.27645e-08
-4.06825e-10
1.23093e-06
-3.06537e-10
1.23227e-08
-2.03928e-10
1.38721e-06
-2.73066e-10
1.07598e-08
-6.68728e-11
1.53484e-06
-2.32582e-10
8.13612e-09
5.01276e-11
1.67071e-06
-2.11122e-10
4.53317e-09
1.33413e-10
1.78075e-06
-1.94289e-10
1.97401e-10
1.76809e-06
-1.6982e-10
1.13468e-08
-9.94191e-10
1.12232e-06
1.29386e-08
-7.54054e-10
1.29358e-06
1.36196e-08
-5.08528e-10
1.45784e-06
1.31742e-08
-3.143e-10
1.6146e-06
1.15061e-08
-1.60397e-10
1.76278e-06
8.67339e-09
-3.66004e-11
1.89936e-06
4.77962e-09
5.82431e-11
2.01122e-06
1.24639e-10
2.00467e-06
1.21149e-08
-3.06996e-10
1.26336e-06
1.37768e-08
-2.52551e-10
1.43628e-06
1.45067e-08
-1.74364e-10
1.60209e-06
1.40398e-08
-1.04778e-10
1.7603e-06
1.22592e-08
-4.93842e-11
1.90988e-06
9.21819e-09
-6.85585e-12
2.04787e-06
5.06169e-09
2.63061e-11
2.1616e-06
5.04532e-11
2.15832e-06
1.24292e-08
6.02989e-10
1.31128e-06
1.41272e-08
4.51436e-10
1.485e-06
1.48712e-08
3.24226e-10
1.65154e-06
1.43902e-08
2.23249e-10
1.81044e-06
1.25574e-08
1.42106e-10
1.96067e-06
9.42589e-09
7.52568e-11
2.09931e-06
5.1645e-09
2.34461e-11
2.21384e-06
-1.44394e-11
2.21171e-06
1.2229e-08
1.21561e-09
1.2634e-06
1.38861e-08
9.24898e-10
1.43634e-06
1.46048e-08
6.56012e-10
1.60215e-06
1.41238e-08
4.36685e-10
1.76037e-06
1.23274e-08
2.62627e-10
1.90995e-06
9.26026e-09
1.24489e-10
2.04794e-06
5.07383e-09
1.51359e-11
2.16168e-06
-7.01751e-11
2.1584e-06
1.1538e-08
1.10019e-09
1.1224e-06
1.31391e-08
8.06547e-10
1.29368e-06
1.38019e-08
5.38865e-10
1.45795e-06
1.33229e-08
3.29189e-10
1.61472e-06
1.1626e-08
1.74263e-10
1.7629e-06
8.76043e-09
5.74113e-11
1.89949e-06
4.82808e-09
-2.4438e-11
2.01135e-06
-8.48915e-11
2.00481e-06
1.06135e-08
8.96379e-07
-1.2296e-10
1.22378e-08
1.06723e-06
-1.3967e-10
1.2861e-08
1.23106e-06
-1.33354e-10
1.23781e-08
1.38735e-06
-1.15651e-10
1.07767e-08
1.53499e-06
-9.46288e-11
8.11922e-09
1.67086e-06
-7.41707e-11
4.49277e-09
1.78091e-06
-5.84985e-11
1.76825e-06
-4.30969e-11
2.68382e-08
-2.19805e-09
8.93046e-07
-2.88318e-10
3.12302e-08
-1.53685e-09
1.06508e-06
-3.66859e-10
3.32143e-08
-1.04586e-09
1.23075e-06
-3.54285e-10
3.23998e-08
-6.74788e-10
1.38938e-06
-3.09623e-10
2.85907e-08
-3.74664e-10
1.53963e-06
-2.70568e-10
2.18043e-08
-9.35648e-11
1.67812e-06
-2.34751e-10
1.22223e-08
9.64498e-11
1.79071e-06
-1.96539e-10
2.73288e-10
1.78048e-06
-1.50232e-10
2.86799e-08
-2.14999e-09
1.11666e-06
3.33815e-08
-1.69025e-09
1.28949e-06
3.57283e-08
-1.23814e-09
1.45608e-06
3.50598e-08
-8.50833e-10
1.61579e-06
3.1035e-08
-5.15478e-10
1.76724e-06
2.37104e-08
-2.19908e-10
1.90708e-06
1.32571e-08
4.54802e-11
2.02198e-06
2.46356e-10
2.01817e-06
3.03267e-08
-7.13596e-10
1.25585e-06
3.52922e-08
-5.83073e-10
1.43055e-06
3.78471e-08
-4.2597e-10
1.59903e-06
3.72156e-08
-2.82497e-10
1.76063e-06
3.29707e-08
-1.55628e-10
1.91399e-06
2.51366e-08
-4.36448e-11
2.05573e-06
1.40245e-08
5.55321e-11
2.17292e-06
1.40078e-10
2.1726e-06
3.09231e-08
1.24785e-09
1.30308e-06
3.60017e-08
9.9589e-10
1.47864e-06
3.86298e-08
7.73612e-10
1.64797e-06
3.80055e-08
5.79195e-10
1.81042e-06
3.36783e-08
4.05982e-10
1.96462e-06
2.56632e-08
2.52942e-10
2.10719e-06
1.42839e-08
1.16206e-10
2.22533e-06
1.272e-11
2.22626e-06
3.03573e-08
2.62781e-09
1.25586e-06
3.53186e-08
2.06179e-09
1.43057e-06
3.78641e-08
1.55328e-09
1.59905e-06
3.72235e-08
1.12419e-09
1.76065e-06
3.2976e-08
7.55129e-10
1.91401e-06
2.51397e-08
4.29994e-10
2.05576e-06
1.39968e-08
1.41797e-10
2.17294e-06
-9.18449e-11
2.17263e-06
2.87512e-08
2.4784e-09
1.11669e-06
3.3436e-08
1.79308e-09
1.28952e-06
3.57543e-08
1.28056e-09
1.45611e-06
3.50622e-08
8.83994e-10
1.61582e-06
3.10259e-08
5.65428e-10
1.76728e-06
2.36761e-08
2.95243e-10
1.90712e-06
1.32336e-08
5.71772e-11
2.02202e-06
-1.18789e-10
2.0182e-06
2.69739e-08
8.93079e-07
-7.19643e-11
3.12701e-08
1.06512e-06
-1.36495e-10
3.31777e-08
1.23079e-06
-1.50001e-10
3.23121e-08
1.38941e-06
-1.36563e-10
2.84785e-08
1.53966e-06
-1.12485e-10
2.17254e-08
1.67815e-06
-9.1192e-11
1.21718e-08
1.79074e-06
-7.09186e-11
1.7805e-06
-5.43942e-11
6.77366e-08
-5.11697e-09
8.83134e-07
-3.50611e-10
7.99678e-08
-3.56636e-09
1.05752e-06
-3.5456e-10
8.6807e-08
-2.59623e-09
1.22746e-06
-3.29021e-10
8.68652e-08
-1.8866e-09
1.39202e-06
-2.72279e-10
7.90158e-08
-1.27916e-09
1.54948e-06
-2.05514e-10
6.25883e-08
-7.12556e-10
1.69592e-06
-1.37117e-10
3.68854e-08
-1.52094e-10
1.81717e-06
-7.09127e-11
2.89399e-10
1.81757e-06
-1.57631e-11
7.09718e-08
-5.13642e-09
1.10103e-06
8.46172e-08
-4.01499e-09
1.27698e-06
9.28758e-08
-3.0637e-09
1.44887e-06
9.3715e-08
-2.27836e-09
1.61587e-06
8.5612e-08
-1.57105e-09
1.77615e-06
6.77839e-08
-9.0348e-10
1.92562e-06
3.98166e-08
-2.68711e-10
2.0506e-06
2.92483e-10
2.05827e-06
7.41422e-08
-1.94145e-09
1.23599e-06
8.85745e-08
-1.55637e-09
1.41421e-06
9.75898e-08
-1.2002e-09
1.58864e-06
9.8823e-08
-8.89904e-10
1.75846e-06
9.04611e-08
-6.0191e-10
1.92183e-06
7.15793e-08
-3.27849e-10
2.0745e-06
4.18563e-08
-6.84942e-11
2.20289e-06
1.66734e-10
2.21482e-06
7.5245e-08
2.47663e-09
1.28164e-06
8.99856e-08
2.00414e-09
1.46085e-06
9.92682e-08
1.59487e-09
1.63635e-06
1.00643e-07
1.23237e-09
1.80735e-06
9.21933e-08
8.94045e-10
1.972e-06
7.29336e-08
5.71688e-10
2.12598e-06
4.25663e-08
2.70892e-10
2.25574e-06
1.69686e-11
2.26919e-06
7.40625e-08
5.66967e-09
1.23595e-06
8.84893e-08
4.43939e-09
1.4142e-06
9.75118e-08
3.42416e-09
1.58863e-06
9.87672e-08
2.58894e-09
1.75845e-06
9.04224e-08
1.83951e-09
1.92182e-06
7.15357e-08
1.13502e-09
2.07448e-06
4.17914e-08
4.6701e-10
2.20285e-06
-1.10519e-10
2.21477e-06
7.08336e-08
5.48474e-09
1.10097e-06
8.44328e-08
3.88223e-09
1.27694e-06
9.26939e-08
2.86521e-09
1.44884e-06
9.35749e-08
2.11255e-09
1.61584e-06
8.55137e-08
1.46985e-09
1.77612e-06
6.77005e-08
8.77248e-10
1.92557e-06
3.97102e-08
3.1383e-10
2.05052e-06
-1.46998e-10
2.05817e-06
6.77087e-08
8.83066e-07
-4.92857e-11
7.98291e-08
1.05745e-06
-9.75312e-11
8.66132e-08
1.22739e-06
-1.04511e-10
8.6676e-08
1.39195e-06
-8.80824e-11
7.88552e-08
1.54941e-06
-6.75853e-11
6.24629e-08
1.69583e-06
-4.89444e-11
3.68323e-08
1.81705e-06
-3.16282e-11
1.81741e-06
-1.94379e-11
1.72112e-07
-1.3975e-08
8.54833e-07
-5.0546e-10
2.08562e-07
-1.09907e-08
1.03287e-06
-3.70417e-10
2.34367e-07
-8.98303e-09
1.21136e-06
-2.54968e-10
2.4424e-07
-7.28125e-09
1.39009e-06
-1.23947e-10
2.32726e-07
-5.63455e-09
1.5672e-06
-1.68355e-11
1.95364e-07
-3.97999e-09
1.73772e-06
6.03125e-11
1.24936e-07
-2.39077e-09
1.89035e-06
1.05898e-10
-5.31092e-10
1.94327e-06
1.54464e-10
1.75371e-07
-1.40012e-08
1.05798e-06
2.15295e-07
-1.18388e-08
1.23845e-06
2.45202e-07
-9.83562e-09
1.42038e-06
2.5861e-07
-8.03e-09
1.6038e-06
2.48897e-07
-6.26774e-09
1.78706e-06
2.10387e-07
-4.48034e-09
1.96512e-06
1.35141e-07
-2.6861e-09
2.12656e-06
-5.95297e-10
2.19373e-06
1.80432e-07
-5.52829e-09
1.18283e-06
2.22164e-07
-4.73672e-09
1.3659e-06
2.54277e-07
-3.96972e-09
1.55118e-06
2.69633e-07
-3.25051e-09
1.73885e-06
2.60796e-07
-2.53274e-09
1.92743e-06
2.21172e-07
-1.7979e-09
2.11188e-06
1.42337e-07
-1.05721e-09
2.28049e-06
-1.81101e-10
2.35697e-06
1.82196e-07
5.96476e-09
1.22487e-06
2.24605e-07
5.20004e-09
1.40901e-06
2.57471e-07
4.39104e-09
1.59565e-06
2.73491e-07
3.59765e-09
1.78499e-06
2.64956e-07
2.80179e-09
1.97565e-06
2.24948e-07
1.99248e-09
2.16259e-06
1.44856e-07
1.18663e-09
2.33399e-06
2.69504e-10
2.41384e-06
1.80177e-07
1.44663e-08
1.18277e-06
2.2189e-07
1.23106e-08
1.36583e-06
2.54023e-07
1.02371e-08
1.55111e-06
2.69416e-07
8.34434e-09
1.73876e-06
2.60598e-07
6.50228e-09
1.92732e-06
2.20995e-07
4.64772e-09
2.11176e-06
1.42238e-07
2.8044e-09
2.28037e-06
6.83825e-10
2.35684e-06
1.74831e-07
1.44073e-08
1.05791e-06
2.1473e-07
1.14091e-08
1.23836e-06
2.44688e-07
9.28976e-09
1.42027e-06
2.58161e-07
7.48607e-09
1.60365e-06
2.48499e-07
5.76809e-09
1.78688e-06
2.10069e-07
4.06509e-09
1.96491e-06
1.34983e-07
2.44867e-09
2.12633e-06
5.77136e-10
2.1935e-06
1.7152e-07
8.54767e-07
-7.03777e-11
2.08065e-07
1.03279e-06
-7.18056e-11
2.33942e-07
1.21126e-06
-4.57199e-11
2.43839e-07
1.38994e-06
-1.65498e-11
2.32332e-07
1.56701e-06
7.76404e-12
1.95047e-07
1.73748e-06
2.98283e-11
1.24797e-07
1.89007e-06
4.87444e-11
1.94296e-06
5.5369e-11
3.92969e-07
-2.92177e-08
-6.02976e-10
7.73662e-07
4.98725e-07
-2.27067e-08
-3.29639e-10
9.50461e-07
5.90141e-07
-1.80684e-08
-8.73921e-11
1.13845e-06
6.54275e-07
-1.40285e-08
4.0378e-11
1.34021e-06
6.72069e-07
-1.01448e-08
9.51589e-11
1.55963e-06
6.12913e-07
-6.09071e-09
1.39507e-10
1.803e-06
4.22125e-07
-1.4065e-09
2.01781e-10
2.08262e-06
3.26992e-09
2.66246e-10
2.3622e-06
3.94546e-07
-2.93907e-08
9.489e-07
5.0577e-07
-2.44916e-08
1.12941e-06
6.05965e-07
-2.00066e-08
1.32248e-06
6.80017e-07
-1.60078e-08
1.53201e-06
7.06428e-07
-1.21225e-08
1.76288e-06
6.51117e-07
-7.97467e-09
2.02262e-06
4.52957e-07
-3.00543e-09
2.32671e-06
2.19013e-09
2.6479e-06
4.01117e-07
-1.17913e-08
1.05479e-06
5.14979e-07
-1.00089e-08
1.23789e-06
6.19995e-07
-8.30064e-09
1.43473e-06
6.99874e-07
-6.73057e-09
1.64988e-06
7.31508e-07
-5.17714e-09
1.88902e-06
6.78449e-07
-3.49747e-09
2.16072e-06
4.75128e-07
-1.48192e-09
2.48269e-06
7.42781e-10
2.83363e-06
4.03569e-07
1.1917e-08
1.09014e-06
5.18494e-07
1.01603e-08
1.27424e-06
6.25167e-07
8.44023e-09
1.47251e-06
7.07048e-07
6.82917e-09
1.68977e-06
7.40518e-07
5.22591e-09
1.932e-06
6.88276e-07
3.49602e-09
2.20814e-06
4.8301e-07
1.42448e-09
2.5367e-06
-8.13911e-10
2.89851e-06
4.00889e-07
2.96061e-08
1.05471e-06
5.14731e-07
2.4681e-08
1.23779e-06
6.19751e-07
2.01544e-08
1.43461e-06
6.99683e-07
1.61054e-08
1.64975e-06
7.31406e-07
1.21683e-08
1.88889e-06
6.7844e-07
7.97337e-09
2.16058e-06
4.75091e-07
2.95201e-09
2.48253e-06
-2.25665e-09
2.83346e-06
3.94165e-07
2.95444e-08
9.48789e-07
5.05348e-07
2.29051e-08
1.12923e-06
6.0551e-07
1.81639e-08
1.32226e-06
6.79602e-07
1.40562e-08
1.53176e-06
7.06151e-07
1.0129e-08
1.76262e-06
6.5103e-07
6.05285e-09
2.02235e-06
4.52948e-07
1.3461e-09
2.32641e-06
-3.33752e-09
2.64757e-06
3.92467e-07
-1.67236e-10
7.73592e-07
4.98172e-07
-8.21708e-11
9.50331e-07
5.89526e-07
-1.33045e-11
1.13825e-06
6.53683e-07
3.62465e-11
1.33995e-06
6.7166e-07
7.06716e-11
1.55933e-06
6.12783e-07
9.71443e-11
1.80265e-06
4.22202e-07
1.16963e-10
2.08222e-06
1.2247e-10
2.36174e-06
3.9228e-09
-4.73883e-10
8.97544e-07
-7.00141e-11
4.41101e-09
-4.0832e-10
1.06784e-06
1.43743e-11
4.49501e-09
-3.18374e-10
1.23088e-06
8.16472e-11
4.17125e-09
-2.4197e-10
1.38624e-06
1.18154e-10
3.48412e-09
-1.94566e-10
1.53292e-06
1.42939e-10
2.51499e-09
-1.75709e-10
1.66787e-06
1.61249e-10
1.34797e-09
-1.74605e-10
1.77704e-06
1.6959e-10
-1.66753e-10
1.76348e-06
1.67581e-10
4.1941e-09
-5.58547e-10
1.12447e-06
4.66573e-09
-4.22478e-10
1.29502e-06
4.75653e-09
-2.88714e-10
1.4583e-06
4.43934e-09
-2.00964e-10
1.6139e-06
3.72979e-09
-1.52479e-10
1.76086e-06
2.68735e-09
-1.3558e-10
1.89629e-06
1.39988e-09
-1.4044e-10
2.00713e-06
-1.44002e-10
1.99962e-06
4.25547e-09
-2.6648e-10
1.26619e-06
4.79767e-09
-1.72573e-10
1.4383e-06
4.98454e-09
-9.83054e-11
1.60297e-06
4.7345e-09
-5.41824e-11
1.75984e-06
4.03496e-09
-3.31461e-11
1.908e-06
2.93526e-09
-3.18101e-11
2.04466e-06
1.53203e-09
-4.37546e-11
2.15724e-06
-5.23679e-11
2.15295e-06
4.16398e-09
1.74461e-10
1.31435e-06
4.74206e-09
1.66636e-10
1.48721e-06
4.9829e-09
1.41202e-10
1.65255e-06
4.77801e-09
1.21267e-10
1.81002e-06
4.09887e-09
1.04292e-10
1.95876e-06
2.99469e-09
8.67036e-11
2.096e-06
1.57188e-09
6.85539e-11
2.20934e-06
5.59435e-11
2.20618e-06
3.97209e-09
5.33848e-10
1.26615e-06
4.53006e-09
4.2316e-10
1.43824e-06
4.76724e-09
2.98973e-10
1.6029e-06
4.58258e-09
2.279e-10
1.75976e-06
3.93928e-09
1.86467e-10
1.90791e-06
2.88539e-09
1.62224e-10
2.04458e-06
1.52274e-09
1.482e-10
2.15719e-06
1.33539e-10
2.15292e-06
3.76442e-09
5.55692e-10
1.12438e-06
4.25492e-09
4.60401e-10
1.2949e-06
4.41246e-09
3.14184e-10
1.45816e-06
4.18559e-09
2.2727e-10
1.61376e-06
3.56694e-09
1.79935e-10
1.76072e-06
2.60515e-09
1.59103e-10
1.89617e-06
1.37673e-09
1.52596e-10
2.00703e-06
1.42966e-10
1.99956e-06
3.5778e-09
8.9741e-07
5.82175e-11
4.08343e-09
1.06768e-06
1.07942e-10
4.17438e-09
1.2307e-06
1.27277e-10
3.87126e-09
1.38606e-06
1.30006e-10
3.23099e-09
1.53274e-06
1.25789e-10
2.32468e-09
1.6677e-06
1.20565e-10
1.21818e-09
1.7769e-06
1.14093e-10
1.76338e-06
1.01411e-10
1.03783e-08
-1.26613e-09
8.96301e-07
4.49113e-11
1.21633e-08
-1.045e-09
1.06713e-06
1.63893e-10
1.2868e-08
-7.77375e-10
1.23094e-06
2.09976e-10
1.24351e-08
-5.50378e-10
1.38723e-06
2.17877e-10
1.08653e-08
-3.72964e-10
1.53488e-06
2.14951e-10
8.22522e-09
-2.36318e-10
1.67076e-06
2.07112e-10
4.59266e-09
-1.28475e-10
1.78083e-06
1.97321e-10
-5.07526e-11
1.76818e-06
2.06236e-10
1.09967e-08
-1.26511e-09
1.1223e-06
1.27541e-08
-1.04573e-09
1.29356e-06
1.35324e-08
-7.77413e-10
1.45782e-06
1.31515e-08
-5.52084e-10
1.6146e-06
1.15405e-08
-3.71123e-10
1.76279e-06
8.74604e-09
-2.29079e-10
1.89939e-06
4.88365e-09
-1.19313e-10
2.01128e-06
-3.32038e-11
2.00476e-06
1.15865e-08
-6.25843e-10
1.2633e-06
1.34333e-08
-5.18312e-10
1.43623e-06
1.43062e-08
-3.9494e-10
1.60204e-06
1.39556e-08
-2.87796e-10
1.76027e-06
1.22679e-08
-1.98924e-10
1.90986e-06
9.29268e-09
-1.27257e-10
2.04788e-06
5.18142e-09
-6.91601e-11
2.16165e-06
-2.13711e-11
2.1584e-06
1.18117e-08
2.94651e-10
1.3112e-06
1.3689e-08
2.34451e-10
1.48491e-06
1.45898e-08
1.57379e-10
1.65145e-06
1.4239e-08
9.80689e-11
1.81036e-06
1.251e-08
5.33881e-11
1.9606e-06
9.45984e-09
1.96429e-11
2.09927e-06
5.26782e-09
-5.23077e-12
2.21385e-06
-2.14616e-11
2.21176e-06
1.15863e-08
1.01198e-09
1.26329e-06
1.34164e-08
8.09032e-10
1.43621e-06
1.42825e-08
5.63457e-10
1.60201e-06
1.39271e-08
3.76543e-10
1.76023e-06
1.22347e-08
2.34311e-10
1.90982e-06
9.26124e-09
1.25533e-10
2.04784e-06
5.15955e-09
4.32905e-11
2.16163e-06
-2.50652e-11
2.15839e-06
1.09548e-08
1.09172e-09
1.12227e-06
1.26931e-08
8.61085e-10
1.29351e-06
1.34694e-08
5.80997e-10
1.45777e-06
1.30873e-08
3.78257e-10
1.61453e-06
1.14768e-08
2.31364e-10
1.76273e-06
8.69996e-09
1.22939e-10
1.89934e-06
4.87104e-09
4.20757e-11
2.01124e-06
-2.51168e-11
2.00473e-06
1.02567e-08
8.96248e-07
1.51181e-10
1.19768e-08
1.06706e-06
1.65046e-10
1.26493e-08
1.23086e-06
1.48052e-10
1.22092e-08
1.38714e-06
1.2289e-10
1.06596e-08
1.53479e-06
1.00885e-10
8.0741e-09
1.67068e-06
8.1073e-11
4.5415e-09
1.78076e-06
6.09771e-11
1.76812e-06
4.53794e-11
2.66622e-08
-2.6974e-09
8.93086e-07
1.14459e-10
3.11757e-08
-2.12388e-09
1.06514e-06
2.86885e-10
3.32015e-08
-1.59251e-09
1.23084e-06
3.18793e-10
3.24125e-08
-1.14244e-09
1.38949e-06
2.875e-10
2.86202e-08
-7.68996e-10
1.53978e-06
2.42578e-10
2.18637e-08
-4.50565e-10
1.67831e-06
2.05642e-10
1.22666e-08
-1.75167e-10
1.79095e-06
1.86105e-10
1.9073e-11
1.78076e-06
1.81283e-10
2.8063e-08
-2.6325e-09
1.11673e-06
3.29148e-08
-2.19923e-09
1.28958e-06
3.53833e-08
-1.69475e-09
1.45622e-06
3.4841e-08
-1.24484e-09
1.61597e-06
3.09411e-08
-8.52781e-10
1.76747e-06
2.37056e-08
-5.07803e-10
1.90735e-06
1.33576e-08
-2.06455e-10
2.02232e-06
3.7908e-11
2.01856e-06
2.96418e-08
-1.19344e-09
1.25594e-06
3.47741e-08
-1.02043e-09
1.43068e-06
3.74887e-08
-8.14892e-10
1.59921e-06
3.70162e-08
-6.19382e-10
1.76085e-06
3.29188e-08
-4.38436e-10
1.91426e-06
2.52117e-08
-2.7558e-10
2.05606e-06
1.41843e-08
-1.24588e-10
2.17332e-06
8.86655e-13
2.17308e-06
3.02702e-08
8.1289e-10
1.30317e-06
3.54979e-08
6.69765e-10
1.47877e-06
3.82765e-08
4.90844e-10
1.64815e-06
3.77991e-08
3.33874e-10