/*--------------------------------*- C++ -*----------------------------------*\
| =========                 |                                                 |
| \\      /  F ield         | OpenFOAM: The Open Source CFD Toolbox           |
|  \\    /   O peration     | Version:  plus.master.MPPICInterFoam            |
|   \\  /    A nd           | Web:      www.OpenFOAM.com                      |
|    \\/     M anipulation  |                                                 |
\*---------------------------------------------------------------------------*/
FoamFile
{
    version     2.0;
    format      ascii;
    class       scalarField;
    location    "10.4/lagrangian/kinematicCloud";
    object      age;
}
// * * * * * * * * * * * * * * * * * * * * * * * * * * * * * * * * * * * * * //


77
(
9.82637
9.80561
9.52869
10.0963
9.78109
9.60013
9.73147
10.384
9.50005
9.67025
9.59131
9.68006
9.87516
9.61201
9.59446
10.2303
9.70007
9.85099
9.80008
9.4726
9.6645
9.9571
9.77473
9.81419
9.5235
9.51753
10.1901
9.88783
10.1096
9.6036
10.3095
9.69005
10.1849
9.67646
9.47073
9.83969
9.72591
9.63545
10.3138
9.53014
9.86081
9.91585
9.6211
9.68072
10.3325
9.70024
10.3289
9.69557
10.001
9.60269
9.72069
9.55376
9.71819
9.58484
10.3471
9.81487
9.53036
9.58184
9.63354
9.80979
9.69546
9.68141
9.91552
10.0073
9.59133
9.71286
9.51024
9.47591
10.2241
9.7301
9.48806
9.63028
10.3385
10.0445
9.86596
9.81983
9.58376
)


// ************************************************************************* //
