/*--------------------------------*- C++ -*----------------------------------*\
| =========                 |                                                 |
| \\      /  F ield         | OpenFOAM: The Open Source CFD Toolbox           |
|  \\    /   O peration     | Version:  plus.master.MPPICInterFoam            |
|   \\  /    A nd           | Web:      www.OpenFOAM.com                      |
|    \\/     M anipulation  |                                                 |
\*---------------------------------------------------------------------------*/
FoamFile
{
    version     2.0;
    format      ascii;
    class       Cloud<basicKinematicMPPICParcel>;
    location    "10.4/lagrangian/kinematicCloud";
    object      positions;
}
// * * * * * * * * * * * * * * * * * * * * * * * * * * * * * * * * * * * * * //

77
(
(-0.0114178 0.0370475 0.538877) 2846
(-0.000865917 0.0534411 0.501655) 2672
(0.00923778 0.0530235 0.502547) 2664
(0.010802 0.0516299 0.504286) 2664
(0.00421736 0.0538788 0.505069) 2672
(0.00294033 0.054468 0.506146) 2673
(0.00412318 0.054311 0.506436) 2673
(0.003793 -0.0549768 0.509008) 2337
(0.0040612 0.0547739 0.507324) 2673
(0.00638733 0.053929 0.507886) 2664
(0.00573019 0.0538193 0.508643) 2672
(0.00349081 0.0555789 0.50878) 2673
(0.00724377 0.0532796 0.509154) 2664
(0.00693744 0.0531139 0.510919) 2664
(0.00446366 0.0534059 0.510499) 2672
(0.00100399 0.0537984 0.513216) 2728
(0.00274083 0.0533871 0.514967) 2728
(-0.00284766 0.0511634 0.517162) 2728
(-0.00143762 0.0518078 0.517028) 2728
(0.000446075 -0.0528199 0.521112) 2392
(0.00173795 0.0523061 0.517866) 2728
(7.99132e-05 0.0525865 0.519234) 2728
(-0.00346331 0.0508469 0.524953) 2784
(-0.000935549 0.0528281 0.525305) 2784
(0.00112741 0.0534842 0.525557) 2784
(-0.00758997 0.0520619 0.530345) 2792
(-0.0064277 0.0517974 0.532222) 2848
(-0.00979872 0.0531773 0.531608) 2848
(-0.00178854 0.0521289 0.534117) 2840
(-0.00295317 0.0510303 0.535503) 2840
(-0.00184261 0.0520494 0.535493) 2840
(-0.00842035 0.0524475 0.535116) 2848
(-0.00539942 0.0505273 0.539432) 2840
(-0.0130159 0.0508774 0.537363) 2848
(-0.00940276 0.0525241 0.538588) 2848
(-0.0100148 0.0523674 0.539965) 2848
(-0.00666815 0.0507646 0.542735) 2904
(-0.00733174 0.0507824 0.544008) 2904
(-0.00843803 0.0509741 0.545087) 2904
(-0.00948531 0.0510037 0.545702) 2904
(-0.00748483 0.0493453 0.550917) 2904
(-0.00793328 0.0490217 0.553825) 2960
(-0.00838578 0.0491191 0.55453) 2960
(-0.0104391 0.0488956 0.557247) 2960
(-0.00822039 0.0479968 0.557852) 2959
(-0.01104 0.0482988 0.558658) 2960
(-0.00806353 -0.0399283 0.567455) 8478
(-0.00743182 0.0463302 0.561338) 9055
(-0.00921634 0.0469371 0.56207) 9055
(-0.00871597 -0.0355022 0.57283) 7211
(-0.00870722 -0.0347666 0.573386) 6021
(-0.0137855 0.034307 0.581177) 7291
(-0.00981791 0.0366038 0.57931) 7283
(-0.00757607 0.0382245 0.576427) 9110
(-0.0111556 0.0353581 0.580506) 7283
(-0.0118325 0.0340851 0.581859) 6653
(-0.0109953 0.0349603 0.581498) 7290
(-0.0359608 0.00521044 0.585416) 7148
(-0.0355868 0.00441477 0.585001) 5517
(-0.0361455 0.0047926 0.585041) 7148
(-0.00839887 0.0295531 0.583668) 6652
(-0.00821155 0.0295431 0.583563) 6651
(-0.0340068 0.00347026 0.584471) 5525
(-0.0298713 0.00324913 0.570554) 5411
(-0.00890972 -0.02015 0.542715) 1200
(-0.00507521 0.0260697 0.549957) 1562
(-0.00894402 -0.020122 0.532066) 1144
(-0.00496025 0.026272 0.529482) 1450
(-0.00906489 -0.019827 0.522358) 1088
(-0.00532956 0.0260775 0.528341) 1450
(-0.00674043 0.0244395 0.523551) 1450
(-0.00756181 0.023602 0.525406) 1449
(-0.00452781 0.0268717 0.520726) 1394
(-0.00691632 0.0237861 0.519706) 1393
(-0.00554228 0.0260782 0.517095) 1394
(-0.00755956 0.023521 0.509553) 1337
(-0.00891232 -0.0195774 0.505841) 976
)


// ************************************************************************* //
