/*--------------------------------*- C++ -*----------------------------------*\
| =========                 |                                                 |
| \\      /  F ield         | OpenFOAM: The Open Source CFD Toolbox           |
|  \\    /   O peration     | Version:  plus.master.MPPICInterFoam            |
|   \\  /    A nd           | Web:      www.OpenFOAM.com                      |
|    \\/     M anipulation  |                                                 |
\*---------------------------------------------------------------------------*/
FoamFile
{
    version     2.0;
    format      ascii;
    class       vectorField;
    location    "10.4/lagrangian/kinematicCloud";
    object      UCorrect;
}
// * * * * * * * * * * * * * * * * * * * * * * * * * * * * * * * * * * * * * //


77
(
(-4.88204e-19 -1.13869e-19 1.34742e-19)
(1.40705e-31 9.16134e-33 -1.32141e-37)
(-2.90668e-19 -7.25422e-19 -1.89358e-35)
(-2.36027e-19 -4.86024e-19 -1.89358e-35)
(1.40705e-31 7.66056e-34 -6.6437e-38)
(-2.40619e-19 1.52169e-21 0)
(-2.40619e-19 8.74832e-22 0)
(-1.86499e-29 9.4753e-19 -2.79106e-19)
(-2.40619e-19 2.78234e-21 0)
(-3.04104e-19 -7.84287e-19 -1.89358e-35)
(1.07242e-32 2.38067e-32 -6.6437e-38)
(-3.74711e-19 2.64655e-20 0)
(-2.80176e-19 -6.79454e-19 -1.89358e-35)
(-1.67355e-19 -1.85153e-19 -1.80081e-35)
(1.40705e-31 9.16134e-33 -1.34407e-38)
(-2.43918e-19 -1.4321e-21 1.44953e-37)
(-2.43918e-19 -3.39351e-21 1.44953e-37)
(-3.62927e-19 -2.59504e-20 1.44953e-37)
(-3.01705e-19 -1.90522e-20 1.44953e-37)
(8.98511e-31 -2.24021e-19 -1.21445e-20)
(-2.43918e-19 -8.54886e-21 1.44953e-37)
(-2.43918e-19 -1.25412e-20 2.26467e-37)
(3.80686e-22 2.83015e-23 7.24767e-38)
(2.38201e-22 5.91745e-24 7.24767e-38)
(2.38201e-22 2.86184e-24 7.24767e-38)
(-4.96144e-20 2.18445e-19 -8.00383e-20)
(-1.74806e-20 2.42063e-19 2.03505e-22)
(2.48266e-20 4.39305e-19 2.03505e-22)
(2.43918e-19 2.1148e-19 -2.48689e-35)
(1.07026e-19 1.96056e-19 -4.35947e-35)
(1.62893e-19 2.0235e-19 -4.35947e-35)
(4.1892e-20 3.64537e-19 2.03505e-22)
(-7.08441e-21 1.83199e-19 -4.35947e-35)
(5.04076e-20 3.27228e-19 2.03505e-22)
(3.69771e-20 3.86071e-19 2.03505e-22)
(6.76563e-20 2.51656e-19 5.07629e-23)
(-3.90931e-31 1.00438e-29 -9.66356e-38)
(2.56874e-31 1.01168e-29 -9.66356e-38)
(1.31898e-30 1.02365e-29 -9.66356e-38)
(2.34119e-30 1.03516e-29 -9.66356e-38)
(4.35888e-30 1.0579e-29 -3.58228e-39)
(-1.46842e-20 6.43356e-20 3.80866e-35)
(-1.82759e-20 8.00719e-20 3.83381e-35)
(-2.26605e-20 9.92822e-20 3.8645e-35)
(-2.4632e-19 -3.19839e-20 2.35373e-19)
(-1.44379e-20 6.32567e-20 3.80694e-35)
(-5.07642e-20 3.40795e-19 -6.52815e-36)
(-1.18976e-19 -3.43247e-20 -8.48328e-21)
(-1.18976e-19 -3.43247e-20 -2.58821e-20)
(2.42498e-19 3.91534e-19 2.15348e-19)
(2.20728e-19 -5.12102e-20 4.68275e-34)
(5.39982e-19 -1.12061e-18 3.26099e-19)
(-1.48301e-19 -2.11705e-20 5.36954e-20)
(1.56255e-19 -1.21392e-19 0)
(-1.48301e-19 -2.11705e-20 1.1152e-20)
(-7.1548e-19 -1.99613e-19 -4.10957e-35)
(-7.73584e-20 -3.30681e-19 -2.42543e-20)
(2.72495e-20 3.00047e-19 -9.74295e-36)
(1.3596e-18 -1.16346e-19 3.39972e-35)
(-2.58679e-19 8.63197e-20 -6.98684e-36)
(-4.64397e-19 -9.40384e-20 1.61326e-19)
(-2.16757e-19 -3.07793e-20 -2.36867e-34)
(1.31365e-18 -1.14368e-19 -6.6471e-34)
(-2.96994e-20 1.66829e-20 -1.99927e-37)
(2.24153e-19 1.00066e-18 -3.98231e-22)
(-3.16546e-12 1.43115e-12 1.14745e-08)
(3.04995e-19 3.80969e-19 -3.63817e-23)
(-7.93765e-05 0.000372613 0.000178259)
(8.9892e-19 1.86895e-18 2.17427e-19)
(-7.93765e-05 0.000372613 0.000153045)
(-2.91163e-05 5.64727e-05 0.000109031)
(-1.0225e-05 -2.78483e-06 -3.23575e-09)
(3.32113e-10 -1.47378e-09 -3.65074e-07)
(3.32182e-11 4.49432e-12 4.51863e-12)
(2.83665e-10 -1.47843e-09 -1.95966e-07)
(7.37945e-14 -2.26548e-13 -3.26123e-16)
(-1.34493e-19 7.35502e-20 -2.66897e-35)
)


// ************************************************************************* //
