/*--------------------------------*- C++ -*----------------------------------*\
| =========                 |                                                 |
| \\      /  F ield         | OpenFOAM: The Open Source CFD Toolbox           |
|  \\    /   O peration     | Version:  plus.master.MPPICInterFoam            |
|   \\  /    A nd           | Web:      www.OpenFOAM.com                      |
|    \\/     M anipulation  |                                                 |
\*---------------------------------------------------------------------------*/
FoamFile
{
    version     2.0;
    format      ascii;
    class       volScalarField;
    location    "3.6";
    object      nut;
}
// * * * * * * * * * * * * * * * * * * * * * * * * * * * * * * * * * * * * * //

dimensions      [0 2 -1 0 0 0 0];

internalField   nonuniform List<scalar> 
11821
(
2.04035e-05
2.23088e-05
3.6895e-05
4.81234e-05
3.47059e-05
2.13268e-05
1.93493e-05
2.44409e-05
1.16743e-05
3.31619e-05
4.62229e-05
2.95236e-05
1.01894e-05
2.0792e-05
4.33604e-05
3.75233e-05
3.50995e-05
5.19059e-05
3.01083e-05
2.9226e-05
3.46306e-05
6.35765e-05
6.11092e-05
6.66045e-05
5.62865e-05
5.71653e-05
5.06807e-05
5.39027e-05
4.4911e-05
3.93574e-05
3.7846e-05
6.09594e-05
3.10285e-05
3.10268e-05
3.69115e-05
2.45641e-05
1.17066e-05
3.486e-05
4.98725e-05
2.86561e-05
9.78068e-06
2.09933e-05
2.02462e-05
2.31154e-05
4.05647e-05
5.64172e-05
3.63999e-05
2.14663e-05
1.92721e-05
4.64134e-05
2.57163e-05
2.09915e-05
1.98952e-05
2.07314e-05
2.84814e-05
4.81158e-05
2.42129e-05
2.73905e-05
5.42431e-05
6.29635e-05
4.23091e-05
2.25876e-05
2.5179e-05
2.73133e-05
7.52851e-05
8.90312e-05
0.000117546
6.43778e-05
4.88746e-05
2.18024e-05
4.69099e-05
0.000128681
0.000128296
0.000127123
0.000122148
7.67014e-05
3.04398e-05
3.30031e-05
8.91037e-05
0.000104437
0.000123367
8.40409e-05
5.85916e-05
2.39282e-05
2.03138e-05
3.89934e-05
7.80162e-05
0.000100884
6.29296e-05
2.88541e-05
2.02413e-05
3.69624e-05
1.9818e-05
3.02917e-05
4.12723e-05
2.68702e-05
2.06912e-05
4.0755e-05
8.12424e-05
4.51648e-05
3.38394e-05
3.25924e-05
3.61604e-05
4.85651e-05
7.93007e-05
4.11214e-05
4.43155e-05
7.56631e-05
8.19284e-05
6.29557e-05
4.20678e-05
4.44899e-05
4.46705e-05
0.00011592
0.000160472
0.000189336
0.000120279
7.79378e-05
4.20209e-05
7.74209e-05
0.000195193
0.000192413
0.000166584
0.000187841
0.00011639
5.46596e-05
6.06771e-05
0.000152945
0.000173136
0.000189234
0.00016019
0.000102985
4.89513e-05
3.7419e-05
8.22545e-05
0.000142344
0.000170786
0.000118467
6.52501e-05
3.84307e-05
5.68238e-05
3.85944e-05
6.38221e-05
7.98621e-05
5.93191e-05
3.95637e-05
5.94747e-05
0.000131261
8.25653e-05
5.74717e-05
5.41141e-05
6.23511e-05
8.44125e-05
0.000124776
7.58549e-05
6.40427e-05
9.68787e-05
0.000108155
9.17936e-05
6.99992e-05
7.90711e-05
6.11075e-05
0.00013738
0.000211432
0.000238864
0.000168977
0.000111174
6.86222e-05
8.76764e-05
0.00022764
0.00022877
0.000230431
0.000216035
0.00015514
8.08316e-05
7.77839e-05
0.000190421
0.00021446
0.000229219
0.000214167
0.000144725
7.65501e-05
6.28523e-05
0.000112118
0.000189045
0.000221537
0.000165555
0.000101442
6.79606e-05
9.79164e-05
6.46051e-05
8.97563e-05
0.000106856
8.85877e-05
6.87154e-05
9.70975e-05
0.000143616
0.000100695
7.20875e-05
6.87233e-05
7.77013e-05
9.96105e-05
0.000135169
9.46995e-05
7.42142e-05
0.000106588
0.000126018
0.00011109
8.67445e-05
9.46048e-05
6.84832e-05
0.000134307
0.000227545
0.000257308
0.000195456
0.000130602
8.36992e-05
8.40478e-05
0.000217328
0.000234763
0.000255759
0.000230104
0.000173518
9.51633e-05
7.83108e-05
0.00018834
0.000226538
0.000246044
0.000239468
0.000163981
9.04638e-05
7.47505e-05
0.000113524
0.000200273
0.000239484
0.000183373
0.000117312
8.20654e-05
0.000114515
7.57909e-05
9.52399e-05
0.000113474
9.93662e-05
8.21698e-05
0.000109989
1.93924e-05
1.94783e-05
1.92037e-05
1.89303e-05
1.86681e-05
1.84044e-05
1.81773e-05
1.79581e-05
1.95084e-05
1.94959e-05
1.93403e-05
1.9096e-05
1.88541e-05
1.8639e-05
1.838e-05
1.81419e-05
2.32752e-05
2.06849e-05
1.98415e-05
1.9334e-05
1.89731e-05
1.86931e-05
1.84338e-05
1.82344e-05
3.05613e-05
2.2338e-05
2.01003e-05
1.95209e-05
1.9205e-05
1.89339e-05
1.8676e-05
1.84635e-05
2.39151e-05
2.07467e-05
1.98194e-05
1.93937e-05
1.90011e-05
1.87172e-05
1.8464e-05
1.82625e-05
1.94641e-05
1.95455e-05
1.94373e-05
1.91145e-05
1.88238e-05
1.85631e-05
1.83184e-05
1.80769e-05
1.92803e-05
1.93652e-05
1.90576e-05
1.88132e-05
1.86261e-05
1.83525e-05
1.8108e-05
1.78863e-05
6.86666e-05
7.62522e-05
7.84492e-05
7.87337e-05
7.83168e-05
7.77308e-05
7.71476e-05
7.65645e-05
4.83081e-05
6.68048e-05
7.42431e-05
7.6597e-05
7.68596e-05
7.64063e-05
7.57676e-05
7.50844e-05
2.46492e-05
4.96406e-05
6.69959e-05
7.40622e-05
7.61691e-05
7.63209e-05
7.57283e-05
7.48989e-05
1.66196e-05
3.66797e-05
6.12978e-05
7.24283e-05
7.6023e-05
7.67079e-05
7.62854e-05
7.54579e-05
2.14386e-05
4.70884e-05
6.64855e-05
7.4026e-05
7.61578e-05
7.6284e-05
7.56821e-05
7.48329e-05
4.29445e-05
6.54343e-05
7.4025e-05
7.65063e-05
7.6769e-05
7.63247e-05
7.57099e-05
7.50491e-05
6.77367e-05
7.65171e-05
7.85293e-05
7.86465e-05
7.8152e-05
7.75432e-05
7.69509e-05
7.63417e-05
0.000110865
0.000125954
0.000131558
0.000132512
0.000130627
0.000126831
0.000121761
0.00011606
7.82914e-05
0.000109206
0.000123752
0.00012889
0.000128902
0.000125899
0.000121036
0.000115235
4.50827e-05
8.21112e-05
0.000110912
0.000123647
0.000127007
0.000125371
0.000120942
0.000115135
3.44553e-05
6.40723e-05
0.000101786
0.00012026
0.000125975
0.000125249
0.000121129
0.000115356
3.90744e-05
7.54094e-05
0.000108573
0.000123053
0.000126858
0.000125325
0.000120936
0.000115164
6.32549e-05
0.000102088
0.000121516
0.000128151
0.000128566
0.000125695
0.000120914
0.000115191
0.000102536
0.000123653
0.000130628
0.000131863
0.000130057
0.000126336
0.000121365
0.000115782
0.000158864
0.000173709
0.000176986
0.000174487
0.000169226
0.000163122
0.000157143
0.000150992
0.000123519
0.000157461
0.000170909
0.000172829
0.000169116
0.000163273
0.000157173
0.000150909
8.23444e-05
0.000129635
0.000159106
0.000168879
0.000168279
0.000163398
0.000157455
0.000151167
6.48566e-05
0.000109773
0.000150209
0.000165912
0.00016759
0.000163434
0.000157643
0.000151349
7.17515e-05
0.000120126
0.000155706
0.000167999
0.000168125
0.000163414
0.000157511
0.000151256
0.000102431
0.000147571
0.000167788
0.000172022
0.000168956
0.000163258
0.000157194
0.000150984
0.000146141
0.000169591
0.000175696
0.000174034
0.000168977
0.00016291
0.000156961
0.000150893
0.000157453
0.000158645
0.000148076
0.000132709
0.00011598
9.91429e-05
8.24219e-05
6.69824e-05
0.000133313
0.000153764
0.000151405
0.000138084
0.000120941
0.000103072
8.52282e-05
6.8602e-05
9.74848e-05
0.000135725
0.000148217
0.000140354
0.00012426
0.000105976
8.73326e-05
6.97902e-05
7.97949e-05
0.000120142
0.000143678
0.000140367
0.000125388
0.000107096
8.81555e-05
7.02516e-05
8.59738e-05
0.000127625
0.000146077
0.000140071
0.000124325
0.000106066
8.74137e-05
6.9869e-05
0.000114403
0.000146763
0.000149993
0.000138082
0.00012114
0.000103249
8.53802e-05
6.87382e-05
0.000148123
0.00015665
0.000148016
0.000132971
0.000116204
9.93215e-05
8.25919e-05
6.71534e-05
2.01617e-05
2.01728e-05
1.99275e-05
1.95279e-05
1.9162e-05
1.8814e-05
1.85017e-05
1.82233e-05
2.22479e-05
2.17295e-05
2.13734e-05
2.10037e-05
2.04596e-05
1.99963e-05
1.97586e-05
1.95274e-05
2.7397e-05
2.29005e-05
2.21472e-05
2.18672e-05
2.16157e-05
2.13585e-05
2.10953e-05
2.08945e-05
3.35958e-05
2.41914e-05
2.25502e-05
2.22431e-05
2.20734e-05
2.19606e-05
2.18103e-05
2.1698e-05
2.73893e-05
2.32102e-05
2.24468e-05
2.21842e-05
2.19534e-05
2.17486e-05
2.15527e-05
2.13878e-05
2.28612e-05
2.22707e-05
2.17257e-05
2.14165e-05
2.09119e-05
2.04683e-05
2.0198e-05
1.98332e-05
2.06996e-05
2.07568e-05
2.03858e-05
2.0013e-05
1.96288e-05
1.92273e-05
1.8873e-05
1.8549e-05
6.97732e-05
7.95931e-05
8.22649e-05
8.27959e-05
8.24445e-05
8.17571e-05
8.09554e-05
8.00819e-05
4.34277e-05
7.03267e-05
8.17072e-05
8.59562e-05
8.71445e-05
8.69975e-05
8.62226e-05
8.50881e-05
2.12647e-05
5.12815e-05
7.6583e-05
8.70054e-05
9.06353e-05
9.15189e-05
9.12163e-05
9.02875e-05
1.61223e-05
3.84313e-05
7.09093e-05
8.49578e-05
8.99307e-05
9.1646e-05
9.20705e-05
9.17158e-05
2.4905e-05
5.63414e-05
7.86459e-05
8.8101e-05
9.15959e-05
9.25085e-05
9.22121e-05
9.12325e-05
5.17933e-05
7.39475e-05
8.36793e-05
8.76248e-05
8.87663e-05
8.86464e-05
8.78479e-05
8.67038e-05
7.2313e-05
8.0958e-05
8.38871e-05
8.45767e-05
8.42607e-05
8.35823e-05
8.27727e-05
8.18683e-05
0.000107188
0.00012784
0.000134669
0.000135952
0.000134008
0.000129918
0.000124404
0.000118178
6.52946e-05
0.000109645
0.000129917
0.000136779
0.000137117
0.000133806
0.000128252
0.000121517
3.65579e-05
8.11268e-05
0.000120195
0.000135674
0.000139504
0.000137707
0.000132731
0.000126012
2.95003e-05
6.50909e-05
0.000113749
0.000134294
0.000140124
0.000139439
0.000135265
0.000129184
4.28201e-05
9.17879e-05
0.000124557
0.000137431
0.000140539
0.000138526
0.000133438
0.000126617
8.62588e-05
0.000119819
0.000133919
0.000138862
0.000138586
0.000135
0.000129244
0.00012232
0.000117529
0.000131651
0.000136988
0.000137791
0.000135587
0.000131273
0.000125528
0.00011906
0.00015352
0.00017511
0.000179819
0.000177278
0.0001715
0.000164755
0.000158161
0.000151491
0.000108069
0.00015765
0.000176224
0.000178762
0.000174363
0.000167495
0.000160351
0.000153154
6.82545e-05
0.000129913
0.000167995
0.000178378
0.000176552
0.000170183
0.00016275
0.000155029
5.56763e-05
0.000116096
0.000163548
0.000177935
0.000177568
0.000171822
0.000164779
0.000157457
8.13857e-05
0.000142452
0.000172403
0.000179754
0.000177055
0.000170431
0.000162884
0.000155065
0.000134839
0.000169122
0.000180006
0.000180048
0.000174894
0.000167775
0.000160492
0.000153151
0.000167369
0.000179803
0.000181609
0.000178121
0.00017202
0.000165123
0.000158391
0.000151535
0.000155419
0.000161225
0.00015126
0.0001354
0.000117911
0.000100307
8.28803e-05
6.68626e-05
0.000123375
0.000156223
0.000156573
0.000142818
0.0001245
0.000105331
8.62255e-05
6.85088e-05
8.53787e-05
0.000139623
0.000156443
0.000147505
0.00012948
0.000109167
8.85555e-05
6.9363e-05
7.18337e-05
0.000130605
0.000155537
0.000149277
0.000131742
0.000111165
8.99723e-05
7.00371e-05
0.000101439
0.000149084
0.000158858
0.000147955
0.000129526
0.000109137
8.85042e-05
6.93034e-05
0.000145645
0.000163456
0.000158149
0.000142981
0.000124389
0.000105173
8.60536e-05
6.83411e-05
0.00016484
0.000163426
0.000151526
0.000135255
0.000117714
0.000100092
8.26429e-05
6.66219e-05
2.03854e-05
2.05219e-05
2.02272e-05
1.98838e-05
1.95322e-05
1.91644e-05
1.88295e-05
1.85379e-05
2.08879e-05
2.0938e-05
2.05829e-05
2.02378e-05
2.00227e-05
1.98677e-05
1.96594e-05
1.94684e-05
2.43723e-05
2.2088e-05
2.15842e-05
2.13447e-05
2.11527e-05
2.09496e-05
2.0743e-05
2.05444e-05
2.7501e-05
2.29721e-05
2.22852e-05
2.21048e-05
2.19554e-05
2.17826e-05
2.15954e-05
2.1404e-05
2.39119e-05
2.22007e-05
2.17484e-05
2.13301e-05
2.1101e-05
2.08648e-05
2.06629e-05
2.0469e-05
2.02565e-05
2.03604e-05
2.05555e-05
2.02752e-05
1.99631e-05
1.96635e-05
1.94348e-05
1.92823e-05
1.97533e-05
1.99612e-05
1.97228e-05
1.94394e-05
1.91572e-05
1.88722e-05
1.86186e-05
1.83687e-05
7.06828e-05
7.98438e-05
8.30023e-05
8.37167e-05
8.34057e-05
8.27526e-05
8.2014e-05
8.1227e-05
5.22477e-05
7.30637e-05
8.24507e-05
8.61769e-05
8.73545e-05
8.73439e-05
8.68049e-05
8.59357e-05
3.28291e-05
6.22632e-05
7.99632e-05
8.80038e-05
9.14373e-05
9.27286e-05
9.2963e-05
9.25701e-05
2.62719e-05
5.70246e-05
7.80111e-05
8.79083e-05
9.2288e-05
9.41186e-05
9.47181e-05
9.46181e-05
3.59205e-05
6.38418e-05
8.03417e-05
8.78906e-05
9.1057e-05
9.22052e-05
9.23564e-05
9.19096e-05
5.44565e-05
7.34565e-05
8.20032e-05
8.53348e-05
8.63075e-05
8.62411e-05
8.57021e-05
8.48648e-05
6.98092e-05
7.80093e-05
8.07106e-05
8.12716e-05
8.09909e-05
8.04429e-05
7.9828e-05
7.91672e-05
0.000116008
0.00013081
0.000136674
0.000137746
0.000135742
0.000131596
0.000125986
0.000119617
8.94546e-05
0.000119943
0.000134022
0.000139309
0.000139554
0.000136522
0.000131247
0.000124651
6.00748e-05
0.000103676
0.000128828
0.000140069
0.000143688
0.000142752
0.000138818
0.00013302
4.84574e-05
9.4443e-05
0.000125085
0.00013953
0.000144941
0.000145198
0.00014223
0.000137299
6.20374e-05
0.000103319
0.0001283
0.000139663
0.0001433
0.000142348
0.000138407
0.000132622
8.83377e-05
0.000118058
0.000132578
0.00013815
0.00013856
0.000135687
0.000130595
0.000124202
0.000112252
0.00012763
0.000133884
0.000135225
0.000133521
0.000129736
0.000124533
0.000118585
0.000166958
0.000179788
0.00018206
0.000178848
0.000172936
0.000166169
0.000159519
0.000152696
0.000139694
0.000170597
0.00018145
0.000182089
0.000177627
0.000171106
0.00016428
0.000157253
0.000104283
0.000154384
0.000177523
0.000184212
0.000182671
0.000177496
0.000171311
0.000164732
8.71161e-05
0.000143652
0.00017384
0.000184233
0.000184597
0.000180549
0.000175287
0.000169789
0.00010404
0.000152122
0.000176085
0.000183489
0.000182313
0.000177339
0.000171301
0.000164852
0.000134873
0.000166634
0.000179157
0.00018081
0.000176925
0.000170787
0.000164256
0.000157476
0.000160713
0.000175527
0.000179194
0.000176882
0.000171633
0.000165411
0.000159226
0.000152809
0.000165166
0.000164026
0.000152322
0.000136088
0.000118486
0.000100729
8.30924e-05
6.68699e-05
0.000149182
0.00016511
0.000159976
0.000145176
0.000126754
0.000107424
8.79227e-05
6.96385e-05
0.000119478
0.000156889
0.00016299
0.000152142
0.000134196
0.000113886
9.2828e-05
7.28191e-05
0.000102392
0.000148906
0.000162243
0.000154357
0.000137455
0.000117643
9.70053e-05
7.72336e-05
0.00011744
0.000154218
0.00016162
0.000151477
0.000133847
0.000113734
9.285e-05
7.29826e-05
0.000143072
0.000161346
0.000158054
0.000144121
0.000126142
0.000107119
8.78795e-05
6.98082e-05
0.000159327
0.000160507
0.000150079
0.000134591
0.000117535
0.000100242
8.30205e-05
6.71303e-05
1.95441e-05
1.96343e-05
1.94152e-05
1.9207e-05
1.90235e-05
1.87498e-05
1.84907e-05
1.82248e-05
2.04963e-05
2.04872e-05
2.01928e-05
1.99447e-05
1.97169e-05
1.94824e-05
1.92782e-05
1.90834e-05
2.53164e-05
2.26107e-05
2.16794e-05
2.13811e-05
2.12604e-05
2.10825e-05
2.08104e-05
2.06103e-05
3.34021e-05
2.50999e-05
2.27088e-05
2.21602e-05
2.18525e-05
2.16643e-05
2.15122e-05
2.13912e-05
2.70198e-05
2.33824e-05
2.22369e-05
2.18983e-05
2.16649e-05
2.14195e-05
2.11686e-05
2.08852e-05
2.10733e-05
2.08812e-05
2.0541e-05
2.02066e-05
1.99786e-05
1.9767e-05
1.94824e-05
1.93056e-05
2.00396e-05
2.01059e-05
1.98283e-05
1.94771e-05
1.91133e-05
1.87643e-05
1.8464e-05
1.8188e-05
6.98706e-05
7.86448e-05
8.07051e-05
8.09824e-05
8.06155e-05
8.00607e-05
7.94535e-05
7.87787e-05
4.5964e-05
7.04965e-05
8.00961e-05
8.35558e-05
8.45603e-05
8.458e-05
8.41375e-05
8.34163e-05
2.22484e-05
5.01973e-05
7.35472e-05
8.37594e-05
8.76418e-05
8.89741e-05
8.92677e-05
8.89772e-05
1.73373e-05
3.4212e-05
6.56989e-05
8.20267e-05
8.84365e-05
9.08891e-05
9.17531e-05
9.18226e-05
2.04799e-05
4.73448e-05
7.22473e-05
8.33259e-05
8.76373e-05
8.92319e-05
8.96771e-05
8.94722e-05
4.1802e-05
6.86589e-05
7.95971e-05
8.36404e-05
8.49518e-05
8.5086e-05
8.46908e-05
8.39866e-05
6.91923e-05
7.91352e-05
8.16312e-05
8.20905e-05
8.17584e-05
8.11437e-05
8.04382e-05
7.96697e-05
0.00010503
0.00012625
0.000132964
0.000134226
0.00013245
0.000128672
0.000123544
0.000117719
6.40846e-05
0.000106289
0.000127305
0.000134915
0.000135854
0.000133092
0.00012805
0.000121754
3.82052e-05
7.36155e-05
0.000113491
0.000132254
0.000138122
0.000137548
0.000133437
0.000127378
3.49712e-05
5.42548e-05
0.000102115
0.000128963
0.000138461
0.000139575
0.000136434
0.000131073
3.6234e-05
7.16388e-05
0.000113052
0.000132223
0.000138213
0.000137716
0.000133646
0.000127598
6.1428e-05
0.000106557
0.000128012
0.000135527
0.000136407
0.000133585
0.00012845
0.00012203
0.000107169
0.000128256
0.000134632
0.00013579
0.000133882
0.000129887
0.000124478
0.000118344
0.000148066
0.000171703
0.000177541
0.00017577
0.000170588
0.000164333
0.000158143
0.000151804
0.00010182
0.000150397
0.000172259
0.00017709
0.000173984
0.000167865
0.000161193
0.000154318
6.72574e-05
0.00011588
0.00015906
0.000175103
0.000176263
0.000171332
0.000164644
0.000157378
5.78307e-05
9.55009e-05
0.000149622
0.000173005
0.000177136
0.000173393
0.000167335
0.000160654
6.44335e-05
0.000115968
0.000160187
0.000175831
0.000176653
0.000171555
0.000164789
0.000157484
0.000102472
0.000153987
0.000174668
0.000178412
0.00017471
0.000168258
0.000161369
0.000154334
0.000153577
0.000175626
0.000180061
0.000177462
0.000171716
0.000165023
0.000158476
0.000151841
0.000149577
0.000158167
0.000149334
0.000134112
0.000117086
9.98789e-05
8.28121e-05
6.70845e-05
0.000114032
0.000149543
0.000153975
0.000142079
0.000124469
0.000105576
8.65812e-05
6.88729e-05
8.06862e-05
0.000125268
0.000150344
0.000146336
0.000129986
0.000110052
8.93831e-05
6.99783e-05
6.83394e-05
0.000109127
0.000146047
0.00014752
0.000132568
0.000112589
9.13614e-05
7.11694e-05
7.80258e-05
0.000127079
0.00015191
0.000147135
0.000130448
0.000110363
8.95788e-05
7.00607e-05
0.000117976
0.000153961
0.000156225
0.000143262
0.000125193
0.000106021
8.67759e-05
6.88401e-05
0.000155633
0.000161642
0.000151474
0.000135566
0.000118071
0.000100458
8.30061e-05
6.69449e-05
1.77351e-05
1.79366e-05
1.81018e-05
1.8317e-05
1.81264e-05
1.7845e-05
1.76503e-05
7.59132e-05
7.43521e-05
7.39749e-05
7.44332e-05
7.38978e-05
7.43224e-05
7.56504e-05
0.000110494
0.000109653
0.000109503
0.000109686
0.000109566
0.000109676
0.000110333
0.000143141
0.000142867
0.000142992
0.000143117
0.000143138
0.000143049
0.000143202
5.40778e-05
5.43184e-05
5.44676e-05
5.45305e-05
5.45306e-05
5.44178e-05
5.42189e-05
1.79291e-05
1.9266e-05
2.07888e-05
2.16316e-05
2.12958e-05
1.95624e-05
1.82835e-05
7.90894e-05
8.37258e-05
8.8941e-05
9.08738e-05
8.97969e-05
8.53145e-05
8.08125e-05
0.000112053
0.000114895
0.000119231
0.000122988
0.000119734
0.000115515
0.000112693
0.000143219
0.000144298
0.000145527
0.000148378
0.000145458
0.000144116
0.000143008
5.36428e-05
5.35967e-05
5.31769e-05
5.31151e-05
5.31311e-05
5.34727e-05
5.34505e-05
1.82922e-05
1.92726e-05
2.03658e-05
2.12182e-05
2.0279e-05
1.91262e-05
1.81248e-05
8.03295e-05
8.47989e-05
9.17191e-05
9.40421e-05
9.10217e-05
8.37498e-05
7.83687e-05
0.000113296
0.000117987
0.000126905
0.000132001
0.00012653
0.000117725
0.000112651
0.000144122
0.000148335
0.000156254
0.000162734
0.000156489
0.000148771
0.000144608
5.35393e-05
5.41895e-05
5.56165e-05
5.96142e-05
5.58346e-05
5.44432e-05
5.39467e-05
1.79218e-05
1.89112e-05
2.04443e-05
2.13073e-05
2.06816e-05
1.91864e-05
1.78948e-05
7.79469e-05
8.24045e-05
8.82268e-05
9.1359e-05
8.8782e-05
8.29724e-05
7.87813e-05
0.000111938
0.000115441
0.000121057
0.000125381
0.000121275
0.000115597
0.000112279
0.000143813
0.000145679
0.000148193
0.000152123
0.000148284
0.000145563
0.000143583
5.39871e-05
5.3859e-05
5.35094e-05
5.38671e-05
5.35193e-05
5.37065e-05
5.36713e-05
1.75396e-05
1.73701e-05
1.74035e-05
1.74059e-05
1.72612e-05
1.70072e-05
1.66633e-05
1.62263e-05
1.77482e-05
1.73522e-05
1.71294e-05
1.71098e-05
1.69776e-05
1.67459e-05
1.64271e-05
1.60158e-05
1.79232e-05
1.7526e-05
1.71438e-05
1.69483e-05
1.6763e-05
1.65415e-05
1.62523e-05
1.58782e-05
1.81301e-05
1.77971e-05
1.74587e-05
1.71718e-05
1.67667e-05
1.63373e-05
1.5969e-05
1.56033e-05
1.7923e-05
1.75182e-05
1.71466e-05
1.691e-05
1.67169e-05
1.6502e-05
1.62188e-05
1.58481e-05
1.76238e-05
1.72345e-05
1.707e-05
1.7047e-05
1.69116e-05
1.66781e-05
1.63586e-05
1.59474e-05
1.74452e-05
1.72766e-05
1.72892e-05
1.72876e-05
1.71419e-05
1.68882e-05
1.65454e-05
1.61095e-05
7.47884e-05
7.32833e-05
7.09111e-05
6.78546e-05
6.43803e-05
6.05693e-05
5.64388e-05
5.18812e-05
7.32053e-05
7.17921e-05
6.97761e-05
6.68655e-05
6.35306e-05
5.98631e-05
5.58717e-05
5.14505e-05
7.26343e-05
7.0994e-05
6.89839e-05
6.61412e-05
6.28803e-05
5.93159e-05
5.54451e-05
5.11457e-05
7.29159e-05
7.09052e-05
6.85686e-05
6.5589e-05
6.22561e-05
5.87277e-05
5.49512e-05
5.07796e-05
7.25373e-05
7.09124e-05
6.88411e-05
6.60133e-05
6.27477e-05
5.91851e-05
5.5323e-05
5.10386e-05
7.31486e-05
7.16719e-05
6.94994e-05
6.65372e-05
6.31829e-05
5.95219e-05
5.55524e-05
5.11624e-05
7.44664e-05
7.28464e-05
7.04043e-05
6.72806e-05
6.37831e-05
5.99838e-05
5.58852e-05
5.13738e-05
0.000103795
9.72049e-05
9.258e-05
8.81164e-05
8.24864e-05
7.60174e-05
6.92418e-05
6.23062e-05
0.000103289
9.71395e-05
9.23911e-05
8.78613e-05
8.22246e-05
7.57926e-05
6.90692e-05
6.21889e-05
0.000103267
9.7279e-05
9.23864e-05
8.77709e-05
8.21127e-05
7.57037e-05
6.90191e-05
6.21756e-05
0.000103442
9.74072e-05
9.23579e-05
8.7643e-05
8.19242e-05
7.55048e-05
6.88533e-05
6.20647e-05
0.00010336
9.74151e-05
9.2415e-05
8.77398e-05
8.20503e-05
7.56289e-05
6.89434e-05
6.21072e-05
0.000103371
9.7298e-05
9.23344e-05
8.76923e-05
8.20027e-05
7.55536e-05
6.88349e-05
6.19725e-05
0.000103759
9.73498e-05
9.24237e-05
8.78004e-05
8.20962e-05
7.56059e-05
6.88396e-05
6.19337e-05
0.000130604
0.000114318
0.000102742
9.5596e-05
8.88676e-05
8.13553e-05
7.35598e-05
6.58033e-05
0.000130633
0.000114586
0.000103017
9.57903e-05
8.89946e-05
8.14477e-05
7.36325e-05
6.58624e-05
0.000130912
0.000114956
0.000103323
9.59977e-05
8.91334e-05
8.15474e-05
7.37081e-05
6.59198e-05
0.000131078
0.000115123
0.000103445
9.60598e-05
8.91424e-05
8.15242e-05
7.36756e-05
6.58904e-05
0.000131135
0.000115174
0.000103454
9.60499e-05
8.91404e-05
8.1528e-05
7.36743e-05
6.58815e-05
0.000130977
0.000114936
0.000103206
9.58291e-05
8.89443e-05
8.1345e-05
7.35025e-05
6.57244e-05
0.000130946
0.000114737
0.000102974
9.56208e-05
8.87621e-05
8.11749e-05
7.33407e-05
6.55737e-05
7.96665e-05
9.53274e-05
9.57097e-05
9.29784e-05
8.7934e-05
8.11997e-05
7.38978e-05
6.65513e-05
8.02055e-05
9.59396e-05
9.6272e-05
9.34409e-05
8.83081e-05
8.15004e-05
7.41246e-05
6.67099e-05
8.04599e-05
9.62395e-05
9.65256e-05
9.3623e-05
8.8434e-05
8.15846e-05
7.4173e-05
6.67285e-05
8.0619e-05
9.6438e-05
9.67043e-05
9.37559e-05
8.85196e-05
8.1633e-05
7.41941e-05
6.67284e-05
8.06206e-05
9.63787e-05
9.66196e-05
9.36795e-05
8.84641e-05
8.15929e-05
7.41629e-05
6.67057e-05
8.04942e-05
9.61991e-05
9.64426e-05
9.35295e-05
8.83353e-05
8.14775e-05
7.40612e-05
6.66195e-05
8.01405e-05
9.57666e-05
9.60163e-05
9.31473e-05
8.79926e-05
8.11685e-05
7.37935e-05
6.63985e-05
1.76938e-05
1.75502e-05
1.76207e-05
1.76054e-05
1.74365e-05
1.71544e-05
1.67767e-05
1.62996e-05
1.91014e-05
1.88299e-05
1.86189e-05
1.83598e-05
1.80026e-05
1.76089e-05
1.71488e-05
1.6632e-05
2.07464e-05
2.06752e-05
2.04344e-05
2.00622e-05
1.96437e-05
1.92237e-05
1.87281e-05
1.81603e-05
2.16095e-05
2.17051e-05
2.17125e-05
2.15756e-05
2.1285e-05
2.07583e-05
2.01286e-05
1.94315e-05
2.1251e-05
2.11227e-05
2.08534e-05
2.04503e-05
1.99562e-05
1.94522e-05
1.89253e-05
1.83455e-05
1.9407e-05
1.9106e-05
1.89031e-05
1.85938e-05
1.82057e-05
1.77707e-05
1.72789e-05
1.67334e-05
1.80517e-05
1.78311e-05
1.79082e-05
1.78419e-05
1.76355e-05
1.73236e-05
1.69214e-05
1.64238e-05
7.75381e-05
7.53794e-05
7.23899e-05
6.88495e-05
6.48896e-05
6.06057e-05
5.60451e-05
5.11034e-05
8.16396e-05
7.86202e-05
7.51381e-05
7.1183e-05
6.68124e-05
6.20144e-05
5.68506e-05
5.1212e-05
8.6628e-05
8.28878e-05
7.90239e-05
7.49789e-05
7.05853e-05
6.58126e-05
6.06457e-05
5.5022e-05
8.92244e-05
8.63243e-05
8.31016e-05
7.96398e-05
7.58334e-05
7.17402e-05
6.69148e-05
6.14587e-05
8.7336e-05
8.34811e-05
7.95231e-05
7.53942e-05
7.09523e-05
6.62131e-05
6.10043e-05
5.52972e-05
8.30615e-05
7.9816e-05
7.60864e-05
7.20255e-05
6.75541e-05
6.26975e-05
5.74663e-05
5.17711e-05
7.91119e-05
7.66929e-05
7.33923e-05
6.97327e-05
6.5685e-05
6.13125e-05
5.66573e-05
5.16179e-05
0.000104638
9.70569e-05
9.21977e-05
8.75105e-05
8.1633e-05
7.49286e-05
6.79702e-05
6.09121e-05
0.000107149
9.89728e-05
9.37204e-05
8.87024e-05
8.24908e-05
7.54057e-05
6.80105e-05
6.04629e-05
0.000111273
0.000102414
9.6203e-05
9.01872e-05
8.30216e-05
7.50941e-05
6.6939e-05
5.86075e-05
0.000115689
0.000107888
0.000102156
9.65937e-05
9.01103e-05
8.32797e-05
7.6843e-05
7.07185e-05
0.000111652
0.000102623
9.63791e-05
9.03371e-05
8.31624e-05
7.52543e-05
6.71598e-05
5.89409e-05
0.000107554
9.91076e-05
9.39188e-05
8.89572e-05
8.27951e-05
7.57518e-05
6.83918e-05
6.08747e-05
0.000104987
9.70217e-05
9.23243e-05
8.77433e-05
8.19207e-05
7.52328e-05
6.82679e-05
6.11872e-05
0.000130185
0.000113449
0.00010174
9.45152e-05
8.76726e-05
8.00745e-05
7.22699e-05
6.45633e-05
0.000131038
0.000114113
0.000102252
9.48418e-05
8.77567e-05
7.98791e-05
7.17916e-05
6.38107e-05
0.000131821
0.000114207
0.000101706
9.3459e-05
8.52542e-05
7.62653e-05
6.72832e-05
5.85936e-05
0.000135206
0.000118369
0.000106177
9.76339e-05
8.89066e-05
7.98573e-05
7.20458e-05
6.65225e-05
0.000131638
0.000114016
0.000101615
9.34695e-05
8.53445e-05
7.64504e-05
6.76035e-05
5.9113e-05
0.000130638
0.000113695
0.000102002
9.47612e-05
8.77892e-05
7.99943e-05
7.19725e-05
6.40446e-05
0.000129611
0.000112779
0.000101277
9.42898e-05
8.76018e-05
8.01022e-05
7.23627e-05
6.46941e-05
7.86552e-05
9.43978e-05
9.48764e-05
9.21382e-05
8.70232e-05
8.02546e-05
7.29931e-05
6.57274e-05
7.8194e-05
9.40439e-05
9.4504e-05
9.1633e-05
8.63123e-05
7.93326e-05
7.18918e-05
6.44553e-05
7.75827e-05
9.36961e-05
9.39785e-05
9.04754e-05
8.41695e-05
7.62112e-05
6.79662e-05
5.98546e-05
7.71267e-05
9.33971e-05
9.30966e-05
8.8073e-05
7.94192e-05
6.92848e-05
6.04426e-05
5.53741e-05
7.74836e-05
9.36486e-05
9.39987e-05
9.05626e-05
8.4329e-05
7.64564e-05
6.8316e-05
6.03476e-05
7.78954e-05
9.38089e-05
9.43719e-05
9.15876e-05
8.63302e-05
7.94087e-05
7.20248e-05
6.46373e-05
7.81076e-05
9.3904e-05
9.45219e-05
9.19171e-05
8.69021e-05
8.02177e-05
7.30327e-05
6.58263e-05
1.80752e-05
1.78584e-05
1.79483e-05
1.79494e-05
1.7783e-05
1.74954e-05
1.71122e-05
1.66275e-05
1.91422e-05
1.89354e-05
1.87729e-05
1.85715e-05
1.82164e-05
1.78041e-05
1.7349e-05
1.68171e-05
2.02105e-05
1.99823e-05
1.98782e-05
1.96447e-05
1.92407e-05
1.87486e-05
1.81268e-05
1.74785e-05
2.10394e-05
2.07719e-05
2.05913e-05
2.03248e-05
1.9742e-05
1.91068e-05
1.86016e-05
1.81611e-05
2.0108e-05
1.98909e-05
1.97846e-05
1.95247e-05
1.91071e-05
1.86055e-05
1.79985e-05
1.73763e-05
1.89801e-05
1.88053e-05
1.86059e-05
1.8366e-05
1.80512e-05
1.76581e-05
1.72197e-05
1.67177e-05
1.79095e-05
1.76948e-05
1.77204e-05
1.77188e-05
1.75542e-05
1.72816e-05
1.6921e-05
1.64663e-05
7.88765e-05
7.69096e-05
7.39981e-05
7.04153e-05
6.63274e-05
6.18897e-05
5.71852e-05
5.21144e-05
8.29186e-05
8.00822e-05
7.67652e-05
7.27436e-05
6.81935e-05
6.32151e-05
5.79047e-05
5.2163e-05
8.99527e-05
8.68814e-05
8.29256e-05
7.84478e-05
7.34992e-05
6.80723e-05
6.22161e-05
5.57848e-05
9.2652e-05
9.0088e-05
8.6679e-05
8.25255e-05
7.76103e-05
7.15482e-05
6.46646e-05
5.75487e-05
8.92228e-05
8.61437e-05
8.2205e-05
7.77543e-05
7.28191e-05
6.74286e-05
6.16427e-05
5.53233e-05
8.19035e-05
7.92255e-05
7.60291e-05
7.21858e-05
6.77521e-05
6.2919e-05
5.77736e-05
5.22128e-05
7.70679e-05
7.53303e-05
7.27228e-05
6.93549e-05
6.55099e-05
6.13208e-05
5.68521e-05
5.20025e-05
0.000105612
9.76447e-05
9.29751e-05
8.83718e-05
8.24817e-05
7.57081e-05
6.86716e-05
6.15433e-05
0.000110009
0.000101454
9.60031e-05
9.08012e-05
8.432e-05
7.69056e-05
6.92208e-05
6.1479e-05
0.000119353
0.000111198
0.000104204
9.76015e-05
8.98848e-05
8.13601e-05
7.25714e-05
6.35468e-05
0.000125323
0.000118347
0.000112197
0.000105867
9.88496e-05
9.11654e-05
8.29179e-05
7.40342e-05
0.000119028
0.000111
0.000104027
9.74784e-05
8.98268e-05
8.13622e-05
7.26272e-05
6.36687e-05
0.000109974
0.000101753
9.62119e-05
9.09689e-05
8.44896e-05
7.70904e-05
6.94179e-05
6.16864e-05
0.00010545
9.81115e-05
9.33127e-05
8.86469e-05
8.27617e-05
7.60246e-05
6.90261e-05
6.19316e-05
0.000130594
0.000113558
0.000101891
9.47982e-05
8.80234e-05
8.04475e-05
7.26628e-05
6.49804e-05
0.000134668
0.000117081
0.000104607
9.6773e-05
8.93045e-05
8.10428e-05
7.27007e-05
6.46463e-05
0.000143321
0.000125705
0.000112176
0.000102606
9.32447e-05
8.35679e-05
7.4292e-05
6.50283e-05
0.000151774
0.000136185
0.000123537
0.000113969
0.000105234
9.69258e-05
8.85788e-05
7.95887e-05
0.00014369
0.000126164
0.000112586
0.000102967
9.36049e-05
8.39004e-05
7.45557e-05
6.52606e-05
0.000135358
0.000117846
0.000105203
9.71852e-05
8.9596e-05
8.12213e-05
7.275e-05
6.45726e-05
0.000131558
0.000114734
0.000102894
9.55967e-05
8.87093e-05
8.10535e-05
7.31851e-05
6.54238e-05
7.82562e-05
9.42174e-05
9.49154e-05
9.23409e-05
8.73091e-05
8.06005e-05
7.34084e-05
6.62053e-05
7.90852e-05
9.55829e-05
9.62227e-05
9.32352e-05
8.7558e-05
8.01918e-05
7.25844e-05
6.5247e-05
8.36692e-05
0.000102622
0.000103467
9.91074e-05
9.17629e-05
8.39372e-05
7.68106e-05
6.90272e-05
9.175e-05
0.000113704
0.000115474
0.000111323
0.00010487
9.78788e-05
8.9612e-05
7.88086e-05
8.40672e-05
0.000102938
0.000103677
9.92382e-05
9.17956e-05
8.37985e-05
7.64966e-05
6.8621e-05
7.96717e-05
9.6056e-05
9.6522e-05
9.34012e-05
8.76126e-05
8.01103e-05
7.2355e-05
6.49072e-05
7.93087e-05
9.51784e-05
9.56888e-05
9.29885e-05
8.78874e-05
8.11007e-05
7.38056e-05
6.65022e-05
1.76988e-05
1.75687e-05
1.76039e-05
1.7568e-05
1.73881e-05
1.71025e-05
1.6731e-05
1.62667e-05
1.88019e-05
1.86511e-05
1.84915e-05
1.83105e-05
1.80073e-05
1.76275e-05
1.71797e-05
1.66693e-05
2.02789e-05
2.0095e-05
1.9994e-05
1.97692e-05
1.94478e-05
1.90476e-05
1.85546e-05
1.80113e-05
2.12474e-05
2.12022e-05
2.12324e-05
2.10719e-05
2.0754e-05
2.02162e-05
1.96097e-05
1.89352e-05
2.05579e-05
2.0386e-05
2.02663e-05
1.99959e-05
1.9622e-05
1.91752e-05
1.86393e-05
1.80884e-05
1.9026e-05
1.8761e-05
1.85907e-05
1.83421e-05
1.80053e-05
1.76034e-05
1.71542e-05
1.66436e-05
1.76548e-05
1.7497e-05
1.75532e-05
1.75647e-05
1.7417e-05
1.71471e-05
1.67767e-05
1.63046e-05
7.65698e-05
7.45676e-05
7.1699e-05
6.8242e-05
6.44091e-05
6.0278e-05
5.58744e-05
5.10857e-05
8.06844e-05
7.80039e-05
7.4697e-05
7.08263e-05
6.65314e-05
6.18418e-05
5.68093e-05
5.1292e-05
8.66128e-05
8.37036e-05
7.99613e-05
7.58636e-05
7.13679e-05
6.65156e-05
6.1326e-05
5.56161e-05
9.01205e-05
8.77744e-05
8.44906e-05
8.08367e-05
7.67477e-05
7.22007e-05
6.68964e-05
6.13059e-05
8.71911e-05
8.42391e-05
8.04339e-05
7.6264e-05
7.17081e-05
6.67943e-05
6.15363e-05
5.57639e-05
8.12293e-05
7.85891e-05
7.52185e-05
7.13639e-05
6.70311e-05
6.23009e-05
5.7214e-05
5.16566e-05
7.73464e-05
7.53534e-05