/*--------------------------------*- C++ -*----------------------------------*\
| =========                 |                                                 |
| \\      /  F ield         | OpenFOAM: The Open Source CFD Toolbox           |
|  \\    /   O peration     | Version:  plus.master.MPPICInterFoam            |
|   \\  /    A nd           | Web:      www.OpenFOAM.com                      |
|    \\/     M anipulation  |                                                 |
\*---------------------------------------------------------------------------*/
FoamFile
{
    version     2.0;
    format      ascii;
    class       volScalarField;
    location    "11";
    object      p;
}
// * * * * * * * * * * * * * * * * * * * * * * * * * * * * * * * * * * * * * //

dimensions      [1 -1 -2 0 0 0 0];

internalField   nonuniform List<scalar> 
11821
(
3940.77
3940.77
3940.76
3940.76
3940.75
3940.75
3940.75
3940.74
3940.76
3940.76
3940.76
3940.75
3940.75
3940.75
3940.74
3940.74
3940.76
3940.76
3940.76
3940.75
3940.75
3940.74
3940.74
3940.74
3940.77
3940.76
3940.76
3940.75
3940.75
3940.75
3940.74
3940.74
3940.77
3940.77
3940.76
3940.76
3940.76
3940.75
3940.75
3940.75
3940.78
3940.78
3940.77
3940.77
3940.77
3940.76
3940.76
3940.76
3940.79
3940.79
3940.79
3940.78
3940.78
3940.78
3940.78
3940.77
3843.6
3843.6
3843.6
3843.59
3843.59
3843.59
3843.58
3843.58
3843.6
3843.6
3843.59
3843.59
3843.58
3843.58
3843.58
3843.57
3843.6
3843.59
3843.59
3843.59
3843.58
3843.58
3843.58
3843.57
3843.6
3843.6
3843.59
3843.59
3843.58
3843.58
3843.58
3843.57
3843.6
3843.6
3843.6
3843.59
3843.59
3843.59
3843.58
3843.58
3843.61
3843.61
3843.6
3843.6
3843.6
3843.6
3843.59
3843.59
3843.62
3843.62
3843.62
3843.61
3843.61
3843.61
3843.61
3843.61
3746.43
3746.43
3746.42
3746.42
3746.42
3746.41
3746.41
3746.41
3746.43
3746.42
3746.42
3746.42
3746.41
3746.41
3746.41
3746.4
3746.43
3746.42
3746.42
3746.42
3746.41
3746.41
3746.41
3746.4
3746.43
3746.42
3746.42
3746.42
3746.41
3746.41
3746.41
3746.4
3746.43
3746.43
3746.42
3746.42
3746.42
3746.41
3746.41
3746.41
3746.44
3746.43
3746.43
3746.43
3746.43
3746.42
3746.42
3746.42
3746.45
3746.44
3746.44
3746.44
3746.44
3746.44
3746.43
3746.43
3649.25
3649.25
3649.25
3649.24
3649.24
3649.24
3649.24
3649.24
3649.25
3649.25
3649.24
3649.24
3649.24
3649.24
3649.23
3649.23
3649.25
3649.25
3649.25
3649.24
3649.24
3649.24
3649.23
3649.23
3649.25
3649.25
3649.25
3649.24
3649.24
3649.24
3649.23
3649.23
3649.26
3649.25
3649.25
3649.25
3649.24
3649.24
3649.24
3649.24
3649.26
3649.26
3649.25
3649.25
3649.25
3649.25
3649.25
3649.25
3649.27
3649.27
3649.26
3649.26
3649.26
3649.26
3649.26
3649.26
3552.07
3552.07
3552.07
3552.07
3552.06
3552.06
3552.06
3552.06
3552.07
3552.07
3552.07
3552.06
3552.06
3552.06
3552.06
3552.06
3552.07
3552.07
3552.07
3552.07
3552.06
3552.06
3552.06
3552.06
3552.07
3552.07
3552.07
3552.07
3552.06
3552.06
3552.06
3552.06
3552.08
3552.07
3552.07
3552.07
3552.07
3552.07
3552.06
3552.06
3552.08
3552.08
3552.08
3552.07
3552.07
3552.07
3552.07
3552.07
3552.09
3552.09
3552.08
3552.08
3552.08
3552.08
3552.08
3552.08
3454.89
3454.89
3454.89
3454.89
3454.89
3454.89
3454.89
3454.89
3454.89
3454.89
3454.88
3454.88
3454.88
3454.88
3454.88
3454.88
3454.89
3454.89
3454.89
3454.88
3454.88
3454.88
3454.88
3454.88
3454.89
3454.89
3454.89
3454.89
3454.88
3454.89
3454.89
3454.89
3454.9
3454.89
3454.89
3454.89
3454.89
3454.89
3454.89
3454.89
3454.9
3454.9
3454.9
3454.9
3454.89
3454.89
3454.89
3454.89
3454.91
3454.91
3454.9
3454.9
3454.9
3454.9
3454.9
3454.9
3357.71
3357.71
3357.71
3357.71
3357.71
3357.71
3357.71
3357.71
3357.71
3357.7
3357.7
3357.7
3357.7
3357.71
3357.71
3357.71
3357.71
3357.7
3357.7
3357.7
3357.7
3357.7
3357.71
3357.71
3357.71
3357.71
3357.71
3357.71
3357.71
3357.71
3357.71
3357.71
3357.72
3357.71
3357.71
3357.71
3357.71
3357.71
3357.71
3357.71
3357.72
3357.72
3357.72
3357.72
3357.72
3357.72
3357.72
3357.72
3357.73
3357.72
3357.72
3357.72
3357.72
3357.72
3357.72
3357.72
3260.53
3260.53
3260.53
3260.53
3260.53
3260.53
3260.53
3260.53
3260.53
3260.52
3260.52
3260.52
3260.52
3260.53
3260.53
3260.53
3260.53
3260.52
3260.52
3260.52
3260.52
3260.52
3260.53
3260.53
3260.53
3260.52
3260.52
3260.52
3260.53
3260.53
3260.53
3260.53
3260.53
3260.53
3260.53
3260.53
3260.53
3260.53
3260.53
3260.53
3260.54
3260.54
3260.54
3260.54
3260.54
3260.54
3260.54
3260.54
3260.55
3260.54
3260.54
3260.54
3260.54
3260.54
3260.54
3260.54
3163.35
3163.35
3163.35
3163.35
3163.35
3163.35
3163.35
3163.35
3163.35
3163.34
3163.34
3163.34
3163.34
3163.35
3163.35
3163.35
3163.35
3163.34
3163.34
3163.34
3163.34
3163.34
3163.35
3163.35
3163.35
3163.35
3163.34
3163.34
3163.35
3163.35
3163.35
3163.35
3163.35
3163.35
3163.35
3163.35
3163.35
3163.35
3163.35
3163.35
3163.36
3163.36
3163.35
3163.35
3163.36
3163.36
3163.36
3163.36
3163.37
3163.36
3163.36
3163.36
3163.36
3163.36
3163.36
3163.36
3066.17
3066.17
3066.17
3066.17
3066.17
3066.17
3066.17
3066.17
3066.17
3066.17
3066.17
3066.17
3066.17
3066.17
3066.17
3066.17
3066.17
3066.16
3066.16
3066.16
3066.16
3066.16
3066.16
3066.16
3066.17
3066.17
3066.17
3066.17
3066.17
3066.17
3066.17
3066.17
3066.17
3066.17
3066.17
3066.17
3066.17
3066.17
3066.17
3066.17
3066.18
3066.18
3066.18
3066.18
3066.18
3066.17
3066.17
3066.17
3066.19
3066.18
3066.18
3066.18
3066.18
3066.18
3066.18
3066.18
2969
2968.99
2968.99
2968.99
2968.99
2968.99
2968.99
2968.98
2969
2968.99
2968.99
2968.99
2968.99
2968.99
2968.98
2968.98
2968.99
2968.99
2968.99
2968.99
2968.99
2968.98
2968.98
2968.98
2969
2968.99
2968.99
2968.99
2968.99
2968.99
2968.98
2968.98
2969
2969
2968.99
2968.99
2968.99
2968.99
2968.99
2968.99
2969
2969
2969
2969
2969
2968.99
2968.99
2968.99
2969.01
2969.01
2969.01
2969
2969
2969
2969
2969
2871.82
2871.82
2871.82
2871.81
2871.81
2871.81
2871.81
2871.8
2871.82
2871.82
2871.81
2871.81
2871.81
2871.81
2871.8
2871.8
2871.82
2871.82
2871.81
2871.81
2871.81
2871.81
2871.8
2871.8
2871.82
2871.82
2871.82
2871.81
2871.81
2871.81
2871.81
2871.8
2871.83
2871.82
2871.82
2871.82
2871.81
2871.81
2871.81
2871.81
2871.83
2871.83
2871.82
2871.82
2871.82
2871.82
2871.82
2871.81
2871.84
2871.83
2871.83
2871.83
2871.83
2871.82
2871.82
2871.82
2774.65
2774.65
2774.64
2774.64
2774.64
2774.63
2774.63
2774.63
2774.65
2774.65
2774.64
2774.64
2774.64
2774.63
2774.63
2774.63
2774.65
2774.64
2774.64
2774.64
2774.63
2774.63
2774.63
2774.63
2774.65
2774.65
2774.64
2774.64
2774.64
2774.63
2774.63
2774.63
2774.65
2774.65
2774.65
2774.64
2774.64
2774.64
2774.64
2774.63
2774.66
2774.65
2774.65
2774.65
2774.65
2774.64
2774.64
2774.64
2774.66
2774.66
2774.66
2774.65
2774.65
2774.65
2774.65
2774.65
2677.48
2677.48
2677.47
2677.47
2677.47
2677.46
2677.46
2677.46
2677.48
2677.48
2677.47
2677.47
2677.46
2677.46
2677.46
2677.46
2677.48
2677.47
2677.47
2677.47
2677.46
2677.46
2677.46
2677.46
2677.48
2677.48
2677.47
2677.47
2677.47
2677.46
2677.46
2677.46
2677.48
2677.48
2677.48
2677.47
2677.47
2677.47
2677.47
2677.46
2677.49
2677.48
2677.48
2677.48
2677.48
2677.47
2677.47
2677.47
2677.49
2677.49
2677.49
2677.48
2677.48
2677.48
2677.48
2677.48
3940.88
3940.88
3940.88
3940.88
3940.88
3940.88
3940.88
3940.88
3940.89
3940.89
3940.89
3940.89
3940.89
3940.89
3940.9
3940.9
3940.89
3940.89
3940.89
3940.89
3940.89
3940.9
3940.9
3940.9
3843.7
3843.7
3843.7
3843.7
3843.7
3843.71
3843.71
3843.71
3843.71
3843.71
3843.71
3843.71
3843.72
3843.72
3843.72
3843.73
3843.71
3843.71
3843.71
3843.71
3843.71
3843.71
3843.72
3843.72
3843.72
3843.72
3843.72
3843.72
3843.73
3843.73
3843.74
3843.74
3843.71
3843.71
3843.71
3843.71
3843.71
3843.71
3843.71
3843.72
3843.7
3843.7
3843.7
3843.7
3843.7
3843.71
3843.71
3843.71
3843.69
3843.69
3843.69
3843.69
3843.69
3843.69
3843.68
3843.68
3746.53
3746.53
3746.52
3746.53
3746.53
3746.53
3746.53
3746.53
3746.53
3746.53
3746.53
3746.53
3746.54
3746.54
3746.54
3746.54
3746.53
3746.53
3746.53
3746.53
3746.54
3746.54
3746.54
3746.54
3746.54
3746.54
3746.54
3746.54
3746.54
3746.55
3746.55
3746.56
3746.53
3746.53
3746.53
3746.53
3746.53
3746.53
3746.53
3746.53
3746.52
3746.52
3746.52
3746.52
3746.52
3746.52
3746.53
3746.53
3746.51
3746.51
3746.51
3746.51
3746.51
3746.51
3746.51
3746.51
3649.35
3649.34
3649.34
3649.34
3649.34
3649.35
3649.35
3649.35
3649.35
3649.35
3649.35
3649.35
3649.35
3649.35
3649.35
3649.36
3649.35
3649.35
3649.35
3649.35
3649.35
3649.35
3649.35
3649.35
3649.36
3649.36
3649.36
3649.36
3649.36
3649.36
3649.36
3649.36
3649.35
3649.35
3649.35
3649.35
3649.35
3649.35
3649.35
3649.35
3649.34
3649.34
3649.34
3649.34
3649.34
3649.34
3649.34
3649.34
3649.33
3649.33
3649.33
3649.33
3649.33
3649.32
3649.32
3649.32
3552.16
3552.16
3552.16
3552.16
3552.16
3552.16
3552.16
3552.16
3552.17
3552.17
3552.17
3552.17
3552.17
3552.17
3552.17
3552.17
3552.17
3552.17
3552.17
3552.17
3552.17
3552.17
3552.16
3552.16
3552.17
3552.17
3552.17
3552.17
3552.17
3552.17
3552.17
3552.17
3552.17
3552.17
3552.16
3552.16
3552.16
3552.16
3552.16
3552.16
3552.16
3552.16
3552.16
3552.15
3552.15
3552.15
3552.15
3552.15
3552.15
3552.15
3552.14
3552.14
3552.14
3552.14
3552.14
3552.14
3454.98
3454.98
3454.98
3454.97
3454.97
3454.97
3454.97
3454.97
3454.99
3454.98
3454.98
3454.98
3454.98
3454.98
3454.97
3454.97
3454.99
3454.98
3454.98
3454.98
3454.98
3454.98
3454.97
3454.97
3454.99
3454.99
3454.98
3454.98
3454.98
3454.98
3454.98
3454.98
3454.98
3454.98
3454.98
3454.98
3454.97
3454.97
3454.97
3454.97
3454.97
3454.97
3454.97
3454.97
3454.97
3454.96
3454.96
3454.96
3454.96
3454.96
3454.96
3454.96
3454.95
3454.95
3454.95
3454.95
3357.79
3357.79
3357.79
3357.79
3357.78
3357.78
3357.78
3357.78
3357.8
3357.79
3357.79
3357.79
3357.79
3357.79
3357.78
3357.78
3357.8
3357.8
3357.79
3357.79
3357.79
3357.79
3357.78
3357.78
3357.8
3357.8
3357.8
3357.79
3357.79
3357.79
3357.79
3357.79
3357.79
3357.79
3357.79
3357.79
3357.78
3357.78
3357.78
3357.78
3357.79
3357.78
3357.78
3357.78
3357.78
3357.78
3357.78
3357.77
3357.78
3357.77
3357.77
3357.77
3357.77
3357.77
3357.77
3357.76
3260.61
3260.6
3260.6
3260.6
3260.6
3260.59
3260.59
3260.59
3260.61
3260.61
3260.6
3260.6
3260.6
3260.6
3260.59
3260.59
3260.61
3260.61
3260.61
3260.6
3260.6
3260.6
3260.59
3260.59
3260.61
3260.61
3260.61
3260.6
3260.6
3260.6
3260.6
3260.6
3260.61
3260.61
3260.6
3260.6
3260.6
3260.59
3260.59
3260.59
3260.6
3260.6
3260.6
3260.59
3260.59
3260.59
3260.59
3260.59
3260.59
3260.59
3260.59
3260.58
3260.58
3260.58
3260.58
3260.58
3163.42
3163.42
3163.42
3163.42
3163.41
3163.41
3163.41
3163.41
3163.43
3163.42
3163.42
3163.42
3163.41
3163.41
3163.41
3163.41
3163.43
3163.42
3163.42
3163.42
3163.41
3163.41
3163.41
3163.41
3163.43
3163.42
3163.42
3163.42
3163.41
3163.41
3163.41
3163.41
3163.42
3163.42
3163.42
3163.41
3163.41
3163.41
3163.41
3163.4
3163.42
3163.41
3163.41
3163.41
3163.41
3163.4
3163.4
3163.4
3163.41
3163.41
3163.4
3163.4
3163.4
3163.4
3163.39
3163.39
3066.24
3066.24
3066.24
3066.23
3066.23
3066.23
3066.23
3066.23
3066.25
3066.24
3066.24
3066.24
3066.23
3066.23
3066.23
3066.23
3066.24
3066.24
3066.24
3066.23
3066.23
3066.23
3066.23
3066.23
3066.24
3066.24
3066.23
3066.23
3066.23
3066.23
3066.23
3066.23
3066.24
3066.24
3066.23
3066.23
3066.23
3066.23
3066.22
3066.22
3066.23
3066.23
3066.23
3066.22
3066.22
3066.22
3066.22
3066.22
3066.23
3066.22
3066.22
3066.21
3066.21
3066.21
3066.21
3066.21
2969.06
2969.06
2969.06
2969.05
2969.05
2969.05
2969.05
2969.05
2969.07
2969.06
2969.06
2969.06
2969.05
2969.05
2969.05
2969.05
2969.06
2969.06
2969.05
2969.05
2969.05
2969.05
2969.05
2969.05
2969.06
2969.06
2969.05
2969.05
2969.05
2969.05
2969.05
2969.05
2969.06
2969.05
2969.05
2969.04
2969.04
2969.04
2969.04
2969.04
2969.05
2969.05
2969.04
2969.04
2969.04
2969.04
2969.04
2969.04
2969.04
2969.04
2969.03
2969.03
2969.03
2969.03
2969.03
2969.03
2871.89
2871.88
2871.88
2871.88
2871.88
2871.88
2871.88
2871.88
2871.89
2871.88
2871.88
2871.88
2871.88
2871.88
2871.88
2871.88
2871.88
2871.88
2871.87
2871.88
2871.88
2871.88
2871.88
2871.88
2871.88
2871.87
2871.87
2871.87
2871.87
2871.87
2871.87
2871.87
2871.87
2871.86
2871.86
2871.87
2871.87
2871.87
2871.87
2871.87
2871.87
2871.86
2871.86
2871.86
2871.86
2871.86
2871.86
2871.86
2871.86
2871.86
2871.85
2871.85
2871.85
2871.85
2871.85
2871.85
2774.71
2774.7
2774.7
2774.7
2774.7
2774.7
2774.7
2774.7
2774.71
2774.7
2774.7
2774.7
2774.7
2774.7
2774.71
2774.71
2774.71
2774.7
2774.7
2774.7
2774.7
2774.7
2774.7
2774.7
2774.7
2774.69
2774.7
2774.7
2774.7
2774.7
2774.7
2774.7
2774.7
2774.69
2774.69
2774.69
2774.69
2774.69
2774.69
2774.69
2774.69
2774.69
2774.69
2774.69
2774.69
2774.69
2774.69
2774.69
2774.69
2774.68
2774.68
2774.68
2774.68
2774.68
2774.68
2774.68
2677.54
2677.53
2677.53
2677.53
2677.53
2677.53
2677.53
2677.53
2677.54
2677.53
2677.53
2677.53
2677.53
2677.53
2677.53
2677.53
2677.53
2677.53
2677.53
2677.53
2677.53
2677.53
2677.53
2677.53
2677.53
2677.52
2677.52
2677.52
2677.53
2677.53
2677.53
2677.53
2677.52
2677.52
2677.52
2677.52
2677.52
2677.52
2677.52
2677.52
2677.52
2677.51
2677.51
2677.51
2677.52
2677.52
2677.52
2677.52
2677.51
2677.51
2677.51
2677.51
2677.51
2677.51
2677.51
2677.51
3940.77
3940.78
3940.77
3940.79
3940.79
3940.79
3940.79
3940.8
3940.78
3940.78
3940.78
3940.78
3940.78
3940.78
3940.77
3940.77
3940.77
3940.77
3940.77
3940.77
3940.76
3940.76
3940.76
3940.75
3843.67
3843.68
3843.67
3843.67
3843.67
3843.67
3843.67
3843.67
3843.65
3843.65
3843.66
3843.66
3843.66
3843.65
3843.65
3843.65
3843.63
3843.63
3843.63
3843.64
3843.64
3843.64
3843.64
3843.63
3843.63
3843.63
3843.62
3843.62
3843.63
3843.62
3843.62
3843.62
3843.62
3843.62
3843.62
3843.62
3843.62
3843.62
3843.62
3843.62
3843.62
3843.61
3843.61
3843.61
3843.6
3843.6
3843.6
3843.6
3843.61
3843.61
3843.6
3843.6
3843.6
3843.59
3843.59
3843.58
3746.5
3746.5
3746.5
3746.5
3746.49
3746.49
3746.49
3746.49
3746.49
3746.48
3746.48
3746.48
3746.48
3746.48
3746.48
3746.47
3746.47
3746.47
3746.47
3746.47
3746.46
3746.46
3746.46
3746.46
3746.46
3746.46
3746.46
3746.45
3746.45
3746.45
3746.45
3746.45
3746.45
3746.45
3746.44
3746.44
3746.44
3746.44
3746.43
3746.43
3746.44
3746.44
3746.44
3746.43
3746.43
3746.43
3746.43
3746.42
3746.44
3746.43
3746.43
3746.43
3746.42
3746.42
3746.42
3746.41
3649.32
3649.32
3649.32
3649.31
3649.31
3649.31
3649.31
3649.31
3649.31
3649.31
3649.3
3649.3
3649.3
3649.3
3649.3
3649.29
3649.3
3649.29
3649.29
3649.29
3649.29
3649.28
3649.28
3649.28
3649.28
3649.28
3649.28
3649.28
3649.27
3649.27
3649.27
3649.27
3649.27
3649.27
3649.27
3649.27
3649.26
3649.26
3649.26
3649.26
3649.26
3649.26
3649.26
3649.26
3649.25
3649.25
3649.25
3649.25
3649.26
3649.25
3649.25
3649.25
3649.25
3649.24
3649.24
3649.24
3552.14
3552.13
3552.13
3552.13
3552.13
3552.13
3552.13
3552.13
3552.13
3552.12
3552.12
3552.12
3552.12
3552.12
3552.11
3552.11
3552.11
3552.11
3552.11
3552.11
3552.11
3552.1
3552.1
3552.1
3552.1
3552.1
3552.1
3552.1
3552.09
3552.09
3552.09
3552.09
3552.09
3552.09
3552.09
3552.09
3552.08
3552.08
3552.08
3552.08
3552.08
3552.08
3552.08
3552.08
3552.07
3552.07
3552.07
3552.07
3552.08
3552.07
3552.07
3552.07
3552.07
3552.07
3552.07
3552.06
3454.95
3454.95
3454.95
3454.95
3454.94
3454.94
3454.94
3454.94
3454.94
3454.94
3454.94
3454.94
3454.93
3454.93
3454.93
3454.93
3454.93
3454.93
3454.93
3454.93
3454.92
3454.92
3454.92
3454.92
3454.92
3454.92
3454.92
3454.92
3454.91
3454.91
3454.91
3454.91
3454.91
3454.91
3454.91
3454.91
3454.9
3454.9
3454.9
3454.9
3454.9
3454.9
3454.9
3454.9
3454.9
3454.89
3454.89
3454.9
3454.89
3454.89
3454.89
3454.89
3454.89
3454.89
3454.89
3454.89
3357.77
3357.76
3357.76
3357.76
3357.76
3357.76
3357.76
3357.76
3357.76
3357.75
3357.75
3357.75
3357.75
3357.75
3357.75
3357.75
3357.75
3357.75
3357.74
3357.74
3357.74
3357.74
3357.74
3357.74
3357.74
3357.74
3357.73
3357.73
3357.73
3357.73
3357.73
3357.73
3357.73
3357.73
3357.73
3357.73
3357.72
3357.72
3357.72
3357.73
3357.72
3357.72
3357.72
3357.72
3357.72
3357.72
3357.72
3357.72
3357.71
3357.71
3357.71
3357.71
3357.71
3357.71
3357.71
3357.71
3260.58
3260.58
3260.58
3260.58
3260.57
3260.57
3260.57
3260.57
3260.57
3260.57
3260.57
3260.57
3260.57
3260.56
3260.56
3260.56
3260.56
3260.56
3260.56
3260.56
3260.56
3260.56
3260.56
3260.56
3260.56
3260.55
3260.55
3260.55
3260.55
3260.55
3260.55
3260.55
3260.55
3260.55
3260.55
3260.55
3260.54
3260.55
3260.55
3260.55
3260.54
3260.54
3260.54
3260.54
3260.54
3260.54
3260.54
3260.54
3260.53
3260.53
3260.53
3260.53
3260.53
3260.53
3260.53
3260.53
3163.4
3163.4
3163.39
3163.39
3163.39
3163.39
3163.39
3163.39
3163.39
3163.39
3163.39
3163.38
3163.38
3163.38
3163.38
3163.38
3163.38
3163.38
3163.38
3163.38
3163.38
3163.38
3163.38
3163.37
3163.38
3163.37
3163.37
3163.37
3163.37
3163.37
3163.37
3163.37
3163.37
3163.37
3163.37
3163.36
3163.36
3163.36
3163.36
3163.36
3163.36
3163.36
3163.36
3163.36
3163.36
3163.36
3163.36
3163.36
3163.36
3163.35
3163.35
3163.35
3163.35
3163.35
3163.35
3163.35
3066.22
3066.22
3066.21
3066.21
3066.21
3066.21
3066.2
3066.2
3066.21
3066.21
3066.2
3066.2
3066.2
3066.2
3066.2
3066.2
3066.2
3066.2
3066.2
3066.2
3066.19
3066.19
3066.19
3066.19
3066.2
3066.19
3066.19
3066.19
3066.19
3066.19
3066.19
3066.18
3066.19
3066.19
3066.19
3066.18
3066.18
3066.18
3066.18
3066.18
3066.18
3066.18
3066.18
3066.18
3066.18
3066.18
3066.17
3066.17
3066.18
3066.18
3066.17
3066.17
3066.17
3066.17
3066.17
3066.17
2969.04
2969.03
2969.03
2969.03
2969.03
2969.02
2969.02
2969.02
2969.03
2969.03
2969.02
2969.02
2969.02
2969.02
2969.02
2969.01
2969.03
2969.02
2969.02
2969.01
2969.01
2969.01
2969.01
2969.01
2969.02
2969.02
2969.01
2969.01
2969.01
2969
2969
2969
2969.01
2969.01
2969.01
2969
2969
2969
2969
2968.99
2969.01
2969
2969
2969
2969
2968.99
2968.99
2968.99
2969
2969
2969
2968.99
2968.99
2968.99
2968.99
2968.99
2871.86
2871.85
2871.85
2871.85
2871.85
2871.85
2871.85
2871.85
2871.85
2871.85
2871.84
2871.84
2871.84
2871.84
2871.84
2871.84
2871.85
2871.84
2871.84
2871.84
2871.83
2871.83
2871.83
2871.83
2871.84
2871.83
2871.83
2871.83
2871.83
2871.83
2871.82
2871.82
2871.83
2871.83
2871.83
2871.82
2871.82
2871.82
2871.82
2871.81
2871.83
2871.83
2871.82
2871.82
2871.82
2871.81
2871.81
2871.81
2871.83
2871.82
2871.82
2871.82
2871.81
2871.81
2871.81
2871.81
2774.68
2774.67
2774.67
2774.67
2774.67
2774.67
2774.67
2774.67
2774.68
2774.67
2774.67
2774.67
2774.67
2774.67
2774.67
2774.66
2774.67
2774.66
2774.66
2774.66
2774.66
2774.66
2774.66
2774.66
2774.66
2774.66
2774.65
2774.65
2774.65
2774.65
2774.65
2774.65
2774.66
2774.65
2774.65
2774.65
2774.65
2774.64
2774.64
2774.64
2774.66
2774.65
2774.65
2774.64
2774.64
2774.64
2774.64
2774.63
2774.65
2774.65
2774.64
2774.64
2774.64
2774.64
2774.63
2774.63
2677.51
2677.5
2677.5
2677.5
2677.5
2677.5
2677.5
2677.5
2677.5
2677.5
2677.49
2677.49
2677.5
2677.5
2677.5
2677.5
2677.5
2677.49
2677.49
2677.49
2677.49
2677.49
2677.49
2677.49
2677.49
2677.49
2677.48
2677.48
2677.48
2677.48
2677.48
2677.48
2677.49
2677.48
2677.48
2677.48
2677.47
2677.47
2677.47
2677.47
2677.48
2677.48
2677.48
2677.47
2677.47
2677.47
2677.47
2677.46
2677.48
2677.48
2677.47
2677.47
2677.47
2677.46
2677.46
2677.46
3940.8
3940.8
3940.8
3940.8
3940.79
3940.79
3940.79
3940.79
3940.82
3940.82
3940.82
3940.81
3940.81
3940.81
3940.81
3940.81
3940.83
3940.83
3940.83
3940.83
3940.83
3940.83
3940.83
3940.83
3940.85
3940.85
3940.85
3940.85
3940.85
3940.86
3940.86
3940.86
3940.86
3940.86
3940.85
3940.85
3940.85
3940.86
3940.86
3940.86
3940.87
3940.87
3940.87
3940.87
3940.87
3940.87
3940.87
3940.87
3940.87
3940.87
3940.87
3940.87
3940.87
3940.87
3940.87
3940.87
3843.63
3843.63
3843.63
3843.63
3843.62
3843.62
3843.62
3843.62
3843.65
3843.64
3843.64
3843.64
3843.64
3843.64
3843.64
3843.64
3843.66
3843.66
3843.65
3843.65
3843.65
3843.65
3843.65
3843.65
3843.67
3843.67
3843.67
3843.67
3843.67
3843.68
3843.68
3843.68
3843.68
3843.68
3843.68
3843.68
3843.68
3843.68
3843.68
3843.69
3843.69
3843.69
3843.69
3843.69
3843.69
3843.69
3843.7
3843.7
3843.7
3843.7
3843.7
3843.7
3843.7
3843.7
3843.7
3843.7
3746.46
3746.45
3746.45
3746.45
3746.45
3746.45
3746.45
3746.45
3746.47
3746.47
3746.46
3746.46
3746.46
3746.46
3746.46
3746.46
3746.48
3746.48
3746.48
3746.48
3746.48
3746.48
3746.48
3746.48
3746.49
3746.49
3746.49
3746.49
3746.49
3746.5
3746.5
3746.5
3746.5
3746.5
3746.5
3746.5
3746.5
3746.5
3746.5
3746.51
3746.51
3746.51
3746.51
3746.51
3746.51
3746.52
3746.52
3746.52
3746.52
3746.52
3746.52
3746.52
3746.52
3746.52
3746.52
3746.52
3649.28
3649.28
3649.27
3649.27
3649.27
3649.27
3649.27
3649.27
3649.29
3649.29
3649.29
3649.28
3649.28
3649.28
3649.29
3649.29
3649.3
3649.3
3649.3
3649.3
3649.3
3649.3
3649.3
3649.3
3649.31
3649.31
3649.31
3649.31
3649.31
3649.31
3649.31
3649.32
3649.32
3649.32
3649.32
3649.32
3649.32
3649.32
3649.32
3649.32
3649.33
3649.33
3649.33
3649.33
3649.33
3649.33
3649.33
3649.33
3649.34
3649.34
3649.34
3649.34
3649.34
3649.34
3649.34
3649.34
3552.1
3552.1
3552.09
3552.09
3552.09
3552.09
3552.09
3552.09
3552.11
3552.11
3552.11
3552.1
3552.1
3552.1
3552.1
3552.1
3552.12
3552.12
3552.12
3552.12
3552.11
3552.11
3552.11
3552.11
3552.13
3552.13
3552.13
3552.13
3552.13
3552.13
3552.13
3552.13
3552.14
3552.14
3552.14
3552.14
3552.14
3552.14
3552.14
3552.14
3552.15
3552.15
3552.15
3552.15
3552.15
3552.15
3552.15
3552.15
3552.16
3552.16
3552.16
3552.15
3552.15
3552.15
3552.15
3552.15
3454.92
3454.91
3454.91
3454.91
3454.91
3454.91
3454.91
3454.91
3454.93
3454.93
3454.92
3454.92
3454.92
3454.92
3454.92
3454.92
3454.94
3454.94
3454.93
3454.93
3454.93
3454.93
3454.93
3454.93
3454.95
3454.95
3454.95
3454.94
3454.94
3454.94
3454.94
3454.94
3454.96
3454.96
3454.95
3454.95
3454.95
3454.95
3454.95
3454.95
3454.97
3454.96
3454.96
3454.96
3454.96
3454.96
3454.96
3454.96
3454.97
3454.97
3454.97
3454.97
3454.97
3454.96
3454.96
3454.96
3357.74
3357.73
3357.73
3357.73
3357.73
3357.73
3357.73
3357.73
3357.75
3357.74
3357.74
3357.74
3357.74
3357.74
3357.74
3357.74
3357.76
3357.75
3357.75
3357.75
3357.75
3357.75
3357.75
3357.74
3357.77
3357.76
3357.76
3357.76
3357.76
3357.76
3357.76
3357.76
3357.77
3357.77
3357.77
3357.77
3357.76
3357.76
3357.76
3357.76
3357.78
3357.78
3357.78
3357.77
3357.77
3357.77
3357.77
3357.77
3357.79
3357.79
3357.78
3357.78
3357.78
3357.78
3357.77
3357.77
3260.55
3260.55
3260.55
3260.55
3260.55
3260.55
3260.55
3260.55
3260.56
3260.56
3260.56
3260.56
3260.56
3260.56
3260.55
3260.55
3260.57
3260.57
3260.57
3260.57
3260.56
3260.56
3260.56
3260.56
3260.58
3260.58
3260.58
3260.57
3260.57
3260.57
3260.57
3260.57
3260.59
3260.59
3260.59
3260.58
3260.58
3260.58
3260.58
3260.58
3260.6
3260.59
3260.59
3260.59
3260.59
3260.59
3260.58
3260.58
3260.6
3260.6
3260.6
3260.6
3260.59
3260.59
3260.59
3260.59
3163.37
3163.37
3163.37
3163.37
3163.37
3163.37
3163.37
3163.37
3163.38
3163.38
3163.38
3163.38
3163.38
3163.37
3163.37
3163.37
3163.39
3163.39
3163.39
3163.38
3163.38
3163.38
3163.38
3163.38
3163.4
3163.4
3163.4
3163.39
3163.39
3163.39
3163.39
3163.39
3163.41
3163.41
3163.4
3163.4
3163.4
3163.4
3163.39
3163.39
3163.42
3163.41
3163.41
3163.41
3163.4
3163.4
3163.4
3163.4
3163.42
3163.42
3163.42
3163.41
3163.41
3163.41
3163.4
3163.4
3066.2
3066.19
3066.19
3066.19
3066.19
3066.19
3066.19
3066.18
3066.21
3066.2
3066.2
3066.2
3066.2
3066.19
3066.19
3066.19
3066.21
3066.21
3066.21
3066.21
3066.2
3066.2
3066.2
3066.2
3066.22
3066.22
3066.22
3066.21
3066.21
3066.21
3066.21
3066.21
3066.23
3066.23
3066.22
3066.22
3066.22
3066.22
3066.21
3066.21
3066.24
3066.23
3066.23
3066.23
3066.22
3066.22
3066.22
3066.22
3066.24
3066.24
3066.23
3066.23
3066.23
3066.23
3066.22
3066.22
2969.02
2969.02
2969.01
2969.01
2969.01
2969.01
2969.01
2969.01
2969.03
2969.02
2969.02
2969.02
2969.02
2969.02
2969.01
2969.01
2969.04
2969.03
2969.03
2969.03
2969.02
2969.02
2969.02
2969.02
2969.05
2969.04
2969.04
2969.03
2969.03
2969.03
2969.03
2969.03
2969.06
2969.05
2969.04
2969.04
2969.04
2969.04
2969.04
2969.04
2969.06
2969.05
2969.05
2969.05
2969.05
2969.04
2969.04
2969.04
2969.06
2969.06
2969.05
2969.05
2969.05
2969.05
2969.05
2969.05
2871.84
2871.84
2871.84
2871.83
2871.83
2871.83
2871.83
2871.83
2871.85
2871.85
2871.84
2871.84
2871.84
2871.84
2871.84
2871.84
2871.86
2871.86
2871.85
2871.85
2871.85
2871.85
2871.85
2871.85
2871.87
2871.86
2871.86
2871.86
2871.86
2871.86
2871.86
2871.85
2871.88
2871.87
2871.87
2871.87
2871.86
2871.86
2871.86
2871.86
2871.88
2871.88
2871.87
2871.87
2871.87
2871.87
2871.87
2871.87
2871.88
2871.88
2871.88
2871.88
2871.87
2871.87
2871.87
2871.87
2774.67
2774.67
2774.66
2774.66
2774.66
2774.66
2774.66
2774.66
2774.68
2774.67
2774.67
2774.67
2774.67
2774.67
2774.67
2774.67
2774.68
2774.68
2774.68
2774.68
2774.68
2774.68
2774.68
2774.67
2774.69
2774.69
2774.69
2774.68
2774.68
2774.68
2774.68
2774.68
2774.7
2774.7
2774.69
2774.69
2774.69
2774.69
2774.69
2774.69
2774.71
2774.7
2774.7
2774.7
2774.7
2774.7
2774.7
2774.7
2774.71
2774.7
2774.7
2774.7
2774.7
2774.7
2774.7
2774.7
2677.5
2677.49
2677.49
2677.49
2677.49
2677.49
2677.49
2677.49
2677.51
2677.5
2677.5
2677.5
2677.5
2677.5
2677.5
2677.5
2677.51
2677.51
2677.51
2677.51
2677.5
2677.5
2677.51
2677.51
2677.52
2677.51
2677.51
2677.51
2677.51
2677.51
2677.51
2677.51
2677.53
2677.52
2677.52
2677.52
2677.52
2677.52
2677.52
2677.52
2677.53
2677.53
2677.52
2677.52
2677.53
2677.53
2677.53
2677.53
2677.54
2677.53
2677.53
2677.53
2677.53
2677.53
2677.53
2677.53
3908.98
3912.66
3915
3912.78
3908.84
3903.92
3898.43
3914.96
3919.15
3922.96
3918.58
3914.94
3909.77
3903.29
3918.5
3925.07
3944.82
3923.83
3918.04
3914.28
3907.44
3922.71
3947.96
3985.79
3954.62
3922.61
3917.99
3910.55
3923.01
3946.6
3993.29
3950.09
3922.3
3918.06
3910.53
3920.22
3926.63
3946.82
3925.33
3919.72
3915.2
3908.06
3916.71
3920.2
3923.98
3919.73
3916.12
3910.78
3904.19
3810.2
3813.36
3814.95
3813.33
3809.86
3805.18
3800.05
3816.66
3820.07
3822.31
3820.43
3816.54
3810.76
3804.39
3821.55
3823.2
3828.28
3824.99
3821.06
3815.19
3807.91
3823.78
3829.47
3870.54
3829.6
3822.88
3817.8
3810.13
3823.58
3827.17
3861.98
3827.49
3822.91
3817.73
3810.09
3822.37
3823.56
3828.22
3825.52
3821.71
3815.56
3808.24
3817.72
3821.26
3823.96
3821.36
3817.12
3811.26
3804.83
3704.15
3708.98
3710.48
3708.53
3703.82
3698.15
3692.85
3715.01
3722.74
3724.44
3721.43
3713.7
3704.91
3697.23
3726.5
3737.02
3735.13
3731.52
3723.62
3711.36
3701.2
3734
3736.94
3744.8
3734.05
3728.14
3715.3
3703.66
3734.6
3737.43
3745.69
3736.1
3728.43
3715.25
3703.57
3727.64
3738.95
3737.22
3734.47
3724.26
3711.46
3701.06
3715.65
3724.13
3725.63
3722.5
3714.02
3704.8
3696.94
3562.42
3563.43
3564.39
3564.34
3565.04
3566.03
3567.06
3558.28
3555.15
3555.25
3557.2
3562.23
3564.97
3566.27
3549.13
3529.83
3535.38
3537.9
3554.59
3563.59
3565.68
3543.81
3536.78
3532.1
3521.99
3548.52
3562.67
3565.55
3544.19
3543.79
3544.41
3523.41
3547.62
3562.03
3565.04
3546.06
3525.77
3531.77
3528.36
3550.9
3561.52
3564.21
3553.88
3548.95
3547.45
3550.48
3557.87
3562.08
3564.2
3408.77
3399.43
3397.84
3402.67
3414
3426.41
3437.65
3385.6
3372.9
3373.94
3376.05
3392.4
3412.15
3428.43
3368.45
3371.43
3363.83
3366.34
3374.08
3397.23
3419.78
3363.01
3354.44
3352.36
3362.69
3367.1
3388.48
3414.12
3360.04
3343.48
3341.49
3359.43
3366.43
3387.77
3413.53
3363.12
3363.24
3355.8
3365.16
3370.47
3394.42
3417.89
3378.87
3367.55
3368.87
3370.73
3387.13
3408.27
3425.75
3317.68
3308.02
3304.24
3310.66
3320.77
3331.77
3342.23
3301.51
3294.61
3292.72
3294.67
3304.36
3319.26
3333.6
3295.92
3295.96
3291.94
3295.12
3295.32
3307.27
3325.68
3294.23
3295.95
3294.87
3294.56
3294.14
3299.15
3320.12
3293.5
3293.93
3291.61
3295.45
3294.28
3299.22
3320.09
3296.23
3295.31
3295.79
3296.71
3296.41
3306.85
3325.02
3300.73
3296.57
3296.34
3296.69
3304.05
3318.22
3332.54
3279.14
3278.74
3277.17
3277.98
3277.43
3277.45
3278.08
3283.28
3285.37
3282.81
3284.75
3279.81
3277.38
3277.46
3292.28
3290.26
3287.39
3293.29
3286.55
3278.64
3277.1
3293.47
3288.53
3288.14
3290.88
3287.88
3279.21
3276.65
3295.38
3291.7
3294.61
3291.65
3287.44
3279.26
3276.79
3296.13
3292.54
3289.65
3294.35
3288.1
3279.61
3277.65
3287.54
3290.66
3287.61
3288.81
3281.87
3278.45
3278.17
3226.43
3230.38
3231.09
3227.13
3221.92
3216
3210.51
3238.04
3250.22
3254.74
3242.98
3231.47
3222.53
3215.03
3259.76
3287.46
3291.77
3273.3
3245.14
3229.04
3219.23
3284.34
3292.88
3290.57
3291.82
3259.13
3233.81
3222.01
3287.88
3293.57
3287.7
3288.78
3259.74
3234.29
3222.43
3268.04
3297.43
3288.53
3279.96
3248.84
3230.65
3220.59
3242.94
3258.95
3264.37
3248.71
3234.12
3224.5
3216.76
3138.12
3141.41
3142.08
3138.87
3134.41
3128.93
3123.3
3145.47
3150.1
3152.07
3146.34
3141.57
3135.03
3128.01
3153.23
3170.98
3182.06
3156.73
3147.8
3140.36
3132.19
3167.24
3217.1
3229.27
3180.98
3153.8
3144.07
3135.13
3172.38
3229.97
3235.01
3186.27
3155.46
3144.74
3135.65
3157.92
3183.99
3201.87
3164.21
3150.64
3142.05
3133.6
3148.88
3154.19
3159.22
3149.51
3143.79
3137.08
3129.81
3028.75
3030.67
3031.31
3029.7
3027.12
3023.75
3020.17
3033.12
3033.93
3034.85
3033.73
3031.51
3027.56
3023.13
3034.54
3028.06
3030.3
3033.11
3034.44
3030.74
3025.65
3035.05
3030.45
3042.08
3031.25
3036.04
3032.98
3027.4
3035.86
3035.25
3055.83
3034.93
3036.94
3033.49
3027.72
3035.15
3031.16
3034.75
3034.65
3035.85
3031.81
3026.44
3035.08
3034.81
3035.85
3035.25
3033.13
3028.76
3023.93
2902.16
2901.85
2902.31
2903.23
2904.71
2905.88
2906.64
2896.23
2892.83
2893.2
2896.95
2901.62
2904.53
2906.01
2886.15
2885.51
2884.62
2885.46
2896.11
2902.64
2905.29
2877.24
2875.46
2872.46
2880.2
2890.61
2901.13
2904.7
2871.8
2876.52
2874.64
2876.82
2888.87
2900.49
2904.36
2873.74
2867.1
2867.42
2875.89
2890.84
2900.6
2904.17
2886.39
2880.84
2881.81
2887.21
2896.37
2901.84
2904.42
2783.23
2780.42
2780.5
2783.43
2787.96
2792.68
2796.95
2774.42
2770.79
2770.88
2773.86
2780.19
2787.5
2793.51
2769.46
2774.9
2774.41
2769.52
2773.18
2782.24
2790.34
2769.93
2762.67
2763.47
2771.17
2769.35
2778.41
2788.1
2767.76
2770.36
2768.41
2772.11
2768.28
2777.41
2787.45
2768.49
2766.16
2765.14
2767.38
2770.35
2779.29
2788.47
2769.49
2766.81
2770.11
2768.94
2774.84
2783.59
2790.98
2695.26
2692.36
2692.31
2694.58
2697.23
2700.49
2703.8
2692.57
2689.71
2690.08
2691.56
2693.03
2697.07
2701.24
2695.81
2694.61
2694.88
2695.24
2691.84
2694.49
2699.15
2695.53
2691.23
2692.42
2694.43
2692.37
2692.6
2697.71
2698.19
2696.76
2692.63
2696.24
2692.93
2692.15
2697.46
2699.47
2700.64