/*--------------------------------*- C++ -*----------------------------------*\
| =========                 |                                                 |
| \\      /  F ield         | OpenFOAM: The Open Source CFD Toolbox           |
|  \\    /   O peration     | Version:  plus.master.MPPICInterFoam            |
|   \\  /    A nd           | Web:      www.OpenFOAM.com                      |
|    \\/     M anipulation  |                                                 |
\*---------------------------------------------------------------------------*/
FoamFile
{
    version     2.0;
    format      ascii;
    class       surfaceScalarField;
    location    "7.6";
    object      alphaPhi;
}
// * * * * * * * * * * * * * * * * * * * * * * * * * * * * * * * * * * * * * //

dimensions      [0 3 -1 0 0 0 0];

internalField   nonuniform List<scalar> 
34018
(
-4.15963e-07
7.45575e-06
-6.29491e-07
-6.42554e-07
-6.82817e-07
8.00269e-06
-4.55652e-07
6.7351e-06
-4.55605e-07
-3.99043e-07
7.93697e-06
-7.26065e-07
-3.73579e-07
6.93712e-06
-5.44859e-07
5.82216e-06
-2.76738e-07
-4.05191e-07
3.3659e-08
-4.54205e-08
7.5439e-06
3.46074e-08
8.36639e-08
6.39776e-08
3.56586e-08
7.99135e-06
4.45834e-08
-6.58971e-08
1.81035e-07
7.88364e-06
-9.94225e-08
-1.32326e-07
1.24443e-07
7.86804e-06
-5.38425e-08
-9.18324e-08
1.55473e-08
8.01148e-06
5.09414e-08
-3.56315e-08
-4.61413e-08
7.36935e-06
8.18522e-08
-8.30493e-08
6.20738e-06
1.00397e-08
8.24692e-08
6.3594e-08
-3.06115e-08
7.64212e-06
2.12258e-08
4.15048e-08
1.53506e-10
5.44764e-06
-1.96696e-08
2.14619e-07
5.15787e-06
-7.85243e-08
1.12328e-07
4.9991e-06
-1.1566e-07
4.10616e-09
5.93076e-06
-6.50108e-08
-2.23497e-08
7.79675e-06
-7.19852e-08
6.99611e-06
1.47072e-09
7.70394e-08
-6.65265e-08
6.24956e-06
-3.76007e-08
1.29312e-07
-7.63627e-08
5.35175e-06
-7.20519e-08
1.49437e-07
6.43541e-06
-1.08735e-07
1.3318e-07
5.94979e-06
-9.16523e-08
-7.24153e-08
5.23202e-06
-1.21816e-07
-3.00821e-08
6.85927e-06
-8.13418e-08
7.54153e-06
-2.74767e-08
9.82524e-08
-9.21955e-08
5.61497e-06
-5.94666e-08
1.02282e-07
-1.54979e-08
5.48083e-06
-1.20029e-07
-1.91454e-07
1.15142e-05
-2.59163e-07
-2.49801e-07
9.67571e-06
-2.78832e-07
-3.3449e-08
5.30835e-06
-2.16698e-07
-1.49347e-07
6.22176e-06
-1.66918e-07
7.60573e-06
-6.60829e-08
-1.37389e-08
-8.20202e-08
6.53172e-06
7.80357e-08
1.69658e-08
-3.14218e-08
5.14733e-06
-1.7871e-08
-1.2808e-07
5.64068e-06
-5.86837e-08
-1.54983e-07
5.48789e-06
-4.7384e-08
-6.05043e-08
5.058e-06
-5.81325e-08
-1.51442e-07
7.02243e-06
-1.40139e-07
7.35159e-06
1.85518e-08
4.93984e-09
-4.96241e-08
7.71914e-06
9.68368e-08
5.80294e-08
-7.1465e-08
6.21465e-06
-3.53468e-09
-2.06077e-07
5.35979e-06
-8.69263e-08
-2.13338e-07
5.37424e-06
-5.94011e-08
-1.24292e-07
6.46036e-06
7.1162e-09
-1.2268e-07
7.67752e-06
-1.05738e-07
6.64644e-06
6.16932e-08
-3.87574e-08
6.9995e-06
1.01128e-07
9.63838e-09
2.91613e-08
7.77421e-06
9.86145e-10
-1.36977e-08
7.97193e-06
-8.99493e-08
-5.09855e-08
7.93608e-06
-1.05352e-07
5.791e-09
7.68219e-06
-5.6696e-08
5.40007e-08
6.82537e-06
-5.83323e-08
5.76019e-06
8.83085e-08
-7.69827e-08
-4.005e-07
-5.93125e-07
7.51001e-06
4.71405e-07
5.7167e-07
-1.83428e-07
-5.82053e-07
7.85387e-06
7.49451e-07
-1.34972e-08
-4.39778e-07
7.7177e-06
7.98957e-07
1.75593e-07
-4.89899e-07
7.70935e-06
8.07687e-07
3.74149e-07
-6.30471e-07
7.8941e-06
7.22838e-07
4.08063e-07
-5.59999e-07
7.35753e-06
5.39678e-07
-3.96e-07
6.26374e-06
3.64986e-07
3.82868e-07
-4.21512e-07
-3.34392e-07
7.4815e-06
6.69897e-07
-1.36829e-07
-1.33784e-07
5.47626e-06
-6.20052e-09
8.77967e-09
5.30001e-06
1.4666e-07
-2.42452e-08
5.30382e-06
4.55564e-07
-1.69741e-07
5.89256e-06
5.85052e-07
-3.45744e-07
7.66549e-06
-3.07604e-07
7.00569e-06
4.87407e-07
-2.13587e-07
-9.07197e-08
6.1958e-06
7.23625e-07
-6.70194e-08
-3.13715e-08
4.99624e-06
-3.10752e-08
1.36611e-07
6.08821e-06
2.34232e-08
7.92465e-08
5.78207e-06
2.31894e-07
-4.19209e-08
4.8059e-06
6.84221e-07
-1.05029e-07
6.75475e-06
-1.53619e-07
7.50253e-06
5.80201e-07
-1.2678e-07
3.37074e-08
5.69411e-06
6.326e-07
2.49841e-08
2.44002e-08
5.24692e-06
-1.63108e-07
-9.30243e-08
6.0416e-06
-7.15371e-08
-7.0761e-08
5.94819e-06
1.26386e-07
5.54222e-09
4.96628e-06
6.0966e-07
7.73185e-09
6.209e-06
-2.53613e-08
7.54891e-06
5.89759e-07
-2.66109e-07
2.95781e-07
6.41614e-06
7.73504e-07
-9.34713e-08
1.63838e-07
4.80458e-06
-2.21062e-08
2.28809e-08
5.46835e-06
5.61664e-08
4.25955e-08
5.25881e-06
2.71573e-07
1.57804e-07
4.63003e-06
6.95468e-07
2.35647e-07
6.8812e-06
1.27025e-07
7.30487e-06
5.90158e-07
-4.64668e-07
4.73243e-07
7.55587e-06
6.42696e-07
-1.58129e-07
5.96802e-07
6.1294e-06
-9.30828e-11
4.98404e-07
5.50345e-06
1.74526e-07
4.97437e-07
5.49808e-06
4.77944e-07
5.55675e-07
6.36486e-06
5.77566e-07
3.78384e-07
7.54929e-06
2.07198e-07
6.64395e-06
5.00497e-07
-3.94064e-07
6.96133e-06
4.63037e-07
4.42393e-07
-1.88687e-07
7.64646e-06
6.06528e-07
8.95333e-09
7.79355e-06
6.56201e-07
2.09955e-07
7.76414e-06
6.37665e-07
3.89545e-07
7.57245e-06
5.40066e-07
4.31464e-07
6.80202e-06
3.6029e-07
5.791e-06
4.01456e-07
2.06609e-07
-4.73097e-07
-6.72383e-07
7.57333e-06
5.05301e-07
6.11919e-07
-2.57326e-07
-8.88863e-07
8.2769e-06
8.40392e-07
1.14751e-08
-9.53152e-07
8.45887e-06
9.72392e-07
2.75497e-07
-9.63193e-07
8.45644e-06
9.59359e-07
4.41568e-07
-8.62658e-07
8.2018e-06
7.914e-07
4.39642e-07
-6.21241e-07
7.42569e-06
5.66069e-07
-4.23169e-07
6.35084e-06
3.80511e-07
3.95167e-07
-5.72801e-07
-4.69171e-07
8.06745e-06
7.27699e-07
-2.76642e-07
-4.11192e-07
7.36068e-06
1.55598e-08
-3.33079e-07
7.58773e-06
3.34035e-07
-2.89965e-07
7.72416e-06
6.07523e-07
-4.70128e-07
7.69417e-06
6.4193e-07
-4.71408e-07
8.03158e-06
-3.5689e-07
7.07667e-06
5.0486e-07
-5.59324e-07
-1.51749e-07
7.76622e-06
9.54211e-07
-2.51327e-07
-6.65386e-08
5.21513e-06
6.89201e-09
-1.02441e-08
5.87729e-06
2.25226e-07
-2.33079e-08
5.29785e-06
6.39198e-07
-8.14599e-08
6.04822e-06
8.45643e-07
-1.72524e-07
8.01455e-06
-1.88792e-07
7.54839e-06
6.31975e-07
-4.09774e-07
1.0993e-07
7.63576e-06
9.81431e-07
-2.78624e-07
9.49401e-08
4.93931e-06
6.43732e-09
1.77358e-07
5.66466e-06
2.07841e-07
1.41752e-07
5.5752e-06
5.74965e-07
9.36393e-08
5.29414e-06
8.88974e-07
7.36362e-08
7.78829e-06
1.16918e-09
7.64323e-06
6.76431e-07
-5.98645e-07
4.0847e-07
7.82805e-06
9.50217e-07
-1.96507e-07
4.49653e-07
5.42052e-06
1.56849e-08
3.24692e-07
5.08858e-06
2.02855e-07
2.81309e-07
4.92246e-06
6.41519e-07
4.1868e-07
6.14995e-06
8.28525e-07
3.30033e-07
7.9387e-06
1.61495e-07
7.33461e-06
6.38916e-07
-5.98903e-07
5.30408e-07
7.86715e-06
6.92417e-07
-2.73008e-07
8.01032e-07
7.72456e-06
2.22009e-08
8.72191e-07
7.54295e-06
3.19941e-07
8.42624e-07
7.48686e-06
6.10343e-07
7.00007e-07
7.78417e-06
6.32282e-07
4.23245e-07
7.73502e-06
2.26371e-07
6.68936e-06
5.22384e-07
-4.47479e-07
6.97785e-06
4.90129e-07
4.69616e-07
-2.4495e-07
7.74682e-06
6.64474e-07
2.74364e-08
8.11201e-06
7.72505e-07
2.88182e-07
8.06875e-06
7.43197e-07
4.46476e-07
7.63936e-06
5.83771e-07
4.6222e-07
6.83187e-06
3.77056e-07
5.84382e-06
4.18098e-07
2.17741e-07
-1.6887e-07
-2.97489e-07
7.60456e-06
1.89585e-07
2.64576e-07
-9.13794e-08
-4.37464e-07
8.41807e-06
3.50661e-07
1.14068e-08
-5.30733e-07
8.671e-06
4.07812e-07
9.84748e-08
-5.18227e-07
8.63857e-06
3.91639e-07
1.27161e-07
-3.65135e-07
8.31329e-06
3.01117e-07
1.20762e-07
-2.48548e-07
7.46689e-06
2.20439e-07
-1.90986e-07
6.3743e-06
1.22315e-07
1.66132e-07
-1.87086e-07
-2.92173e-07
8.38296e-06
2.36219e-07
-1.05042e-07
-3.95657e-07
8.09645e-06
4.20033e-08
-5.32007e-07
8.62042e-06
1.74074e-07
-5.17773e-07
8.78848e-06
1.64186e-07
-3.63117e-07
8.13415e-06
1.5723e-07
-2.57127e-07
8.19505e-06
-2.02691e-07
7.10865e-06
1.3724e-07
-2.7644e-07
-1.79818e-07
8.55679e-06
3.62741e-07
-1.41002e-07
-9.23009e-08
6.91225e-06
5.78603e-08
7.61003e-10
8.20282e-06
2.51765e-07
-3.19999e-08
8.13562e-06
2.89052e-07
-1.43568e-07
7.18942e-06
2.4843e-07
-1.88503e-07
8.36213e-06
-1.71872e-07
7.58115e-06
1.85262e-07
-3.84585e-07
-4.51915e-09
8.45054e-06
4.64431e-07
-1.0775e-07
4.65001e-08
5.83856e-06
6.25281e-08
4.04274e-08
5.50292e-06
1.45359e-07
2.28737e-08
5.39111e-06
3.85743e-07
-3.06582e-09
6.41564e-06
3.28299e-07
-6.13551e-08
8.1865e-06
-9.89631e-08
7.66874e-06
2.31894e-07
-3.63058e-07
1.10354e-07
8.40753e-06
4.03053e-07
-1.59819e-07
2.47801e-07
7.04923e-06
3.26882e-08
3.21494e-07
6.36323e-06
2.15569e-07
2.68378e-07
6.17458e-06
3.6749e-07
1.51229e-07
7.5075e-06
3.07556e-07
2.47428e-08
8.17069e-06
-3.4643e-08
7.34508e-06
2.33157e-07
-2.63017e-07
1.47026e-07
7.99303e-06
2.87418e-07
-1.43984e-07
2.79833e-07
8.30175e-06
3.90716e-08
3.70804e-07
8.38335e-06
1.99944e-07
3.26057e-07
8.41148e-06
2.49272e-07
1.76371e-07
8.12694e-06
2.35801e-07
5.22904e-08
7.78702e-06
-4.99086e-09
6.68776e-06
2.07933e-07
-2.04058e-07
6.94679e-06
2.27319e-07
1.55362e-07
-1.11426e-07
7.72985e-06
2.28499e-07
3.23657e-08
8.17353e-06
2.791e-07
1.53093e-07
8.12305e-06
2.47433e-07
2.02874e-07
7.63517e-06
1.5129e-07
2.05078e-07
6.81764e-06
6.47388e-08
5.83278e-06
1.9992e-07
1.13857e-08
1.5002e-07
9.72817e-08
7.53479e-06
-1.10214e-07
-6.73716e-08
1.1643e-07
1.79704e-07
8.38588e-06
-1.44601e-07
8.52045e-09
2.28113e-07
8.65822e-06
-2.08716e-07
-1.18279e-07
2.44199e-07
8.6057e-06
-2.25606e-07
-1.91349e-07
2.27079e-07
8.30268e-06
-1.89186e-07
-1.79061e-07
1.44283e-07
7.42062e-06
-1.12665e-07
3.97132e-08
6.31237e-06
-1.09733e-07
-4.67631e-08
3.01735e-07
1.09596e-08
8.34702e-06
-2.37087e-07
2.29014e-07
2.8352e-08
8.00806e-06
5.26402e-08
-2.57639e-08
8.02173e-06
-1.84162e-07
-3.78328e-08
8.11849e-06
-3.29126e-07
6.28388e-08
7.88137e-06
-3.16269e-07
5.2189e-08
8.19307e-06
-2.8037e-08
7.05448e-06
-1.94144e-07
3.06853e-07
-1.51294e-07
8.51013e-06
-3.05228e-07
2.51664e-07
-1.48791e-07
6.76337e-06
8.19202e-08
-1.87946e-07
8.73154e-06
-1.40808e-07
-1.92171e-07
8.93179e-06
-3.31802e-07
-1.47366e-07
6.82025e-06
-3.9434e-07
-1.40566e-07
8.34875e-06
-1.32504e-07
7.53613e-06
-2.44788e-07
1.5908e-07
-2.04959e-07
8.35962e-06
-2.25533e-07
9.14259e-08
-1.19594e-07
5.92793e-06
6.22028e-08
-1.22746e-07
5.41468e-06
7.09427e-09
-1.50371e-07
5.35492e-06
-1.87134e-07
-1.77964e-07
6.27214e-06
-3.3107e-07
-2.46592e-07
8.14747e-06
-1.98972e-07
7.6213e-06
-2.16926e-07
1.87377e-07
-2.585e-07
8.3221e-06
-1.84527e-07
9.73801e-08
-2.43585e-07
6.97272e-06
5.14289e-08
-1.89724e-07
6.40046e-06
-3.32651e-08
-2.24287e-07
6.44143e-06
-2.03198e-07
-3.12198e-07
7.3236e-06
-2.63868e-07
-3.30508e-07
8.09126e-06
-2.32795e-07
7.2795e-06
-1.64548e-07
1.61102e-07
-2.31596e-07
7.898e-06
-1.11159e-07
1.17792e-07
-3.066e-07
8.19659e-06
4.79483e-08
-3.27248e-07
8.24117e-06
-5.98514e-08
-3.65929e-07
8.2988e-06
-1.68172e-07
-3.93614e-07
8.03928e-06
-1.63742e-07
-3.21413e-07
7.71806e-06
-2.24845e-07
6.60478e-06
-8.87141e-08
5.00118e-08
6.83097e-06
-2.65092e-08
-1.38769e-07
5.02414e-08
7.619e-06
-1.96123e-07
3.24607e-08
8.07237e-06
-2.32279e-07
-9.62759e-09
8.03184e-06
-2.62953e-07
-4.64228e-08
7.54585e-06
-2.67476e-07
-4.45477e-08
6.72101e-06
-2.26396e-07
5.74378e-06
-3.63182e-09
-1.76473e-07
1.55276e-07
1.34688e-07
7.42663e-06
-1.08669e-07
-8.04336e-08
1.15487e-07
2.33132e-07
8.1552e-06
-1.70099e-07
2.32215e-09
2.62226e-07
8.20124e-06
-2.51057e-07
-1.28681e-07
2.70846e-07
8.08283e-06
-2.66975e-07
-1.92455e-07
2.52375e-07
8.01626e-06
-2.05689e-07
-1.68789e-07
1.72581e-07
7.31459e-06
-1.19527e-07
5.1607e-08
6.23103e-06
-9.28195e-08
-4.59101e-08
2.91111e-07
7.23417e-08
8.05958e-06
-2.34122e-07
1.63052e-07
8.34791e-08
6.87549e-06
3.3028e-08
5.31314e-08
5.47344e-06
-1.36714e-07
5.32196e-08
5.00378e-06
-3.01441e-07
8.76795e-08
6.55757e-06
-3.05836e-07
1.03312e-07
7.7933e-06
5.17964e-09
6.96552e-06
-1.70498e-07
2.97773e-07
-9.4175e-08
7.82034e-06
-3.44426e-07
1.78138e-07
-1.24256e-07
5.2891e-06
5.62154e-08
-3.47287e-07
4.34515e-06
-1.13868e-07
-3.29552e-07
4.62697e-06
-2.82535e-07
-9.78374e-08
4.94716e-06
-4.19071e-07
-8.04875e-08
7.36109e-06
-9.34843e-08
7.44693e-06
-2.31167e-07
2.25328e-07
-2.20171e-07
7.63791e-06
-3.32012e-07
5.05231e-08
-1.38615e-07
4.98816e-06
5.57136e-08
-8.34345e-08
6.42423e-06
-5.55804e-09
-8.71771e-08
6.35191e-06
-2.15205e-07
-1.36148e-07
5.16201e-06
-3.78834e-07
-2.41411e-07
7.08877e-06
-1.84994e-07
7.52246e-06
-2.35392e-07
2.44877e-07
-2.97355e-07
7.85882e-06
-2.60962e-07
9.76793e-08
-2.90899e-07
5.8938e-06
4.66367e-08
-2.16568e-07
4.80719e-06
-4.56674e-08
-2.38401e-07
4.91303e-06
-2.39865e-07
-3.12832e-07
5.41469e-06
-3.35919e-07
-3.55046e-07
7.34393e-06
-2.32717e-07
7.17548e-06
-1.84321e-07
2.19224e-07
-2.65105e-07
7.70893e-06
-1.52865e-07
1.50495e-07
-3.9189e-07
7.59787e-06
3.85605e-08
-4.17257e-07
7.0985e-06
-1.00488e-07
-4.45314e-07
7.11368e-06
-2.22227e-07
-4.63859e-07
7.16973e-06
-2.06468e-07
-3.49715e-07
7.43591e-06
-2.25036e-07
6.49264e-06
-1.02086e-07
8.18592e-08
6.69112e-06
-5.24599e-08
-1.54168e-07
7.16654e-08
7.46738e-06
-2.30571e-07
2.4616e-08
7.85684e-06
-2.86603e-07
-4.06333e-08
7.79969e-06
-3.13674e-07
-7.72764e-08
7.40984e-06
-2.91259e-07
-6.55289e-08
6.59266e-06
-2.32804e-07
5.63778e-06
-1.32993e-08
-1.71026e-07
-7.05464e-08
-9.82151e-08
7.35326e-06
1.0143e-07
1.30917e-07
-3.34612e-08
-1.03607e-07
7.88288e-06
1.49012e-07
-2.04228e-08
-6.94835e-08
7.69745e-06
1.45158e-07
7.43094e-10
-7.31455e-08
7.54274e-06
1.45412e-07
3.20423e-08
-1.08899e-07
7.63729e-06
1.34682e-07
5.51787e-08
-8.60868e-08
7.23214e-06
1.11063e-07
-1.03896e-07
6.19753e-06
8.74614e-08
1.05125e-07
-4.37117e-08
-5.54085e-08
7.75181e-06
1.03063e-07
-1.71147e-08
-2.58653e-08
6.17647e-06
-9.51087e-09
3.63552e-09
5.06985e-06
2.78183e-09
-2.14917e-08
4.45826e-06
3.52663e-08
-4.05072e-08
5.90879e-06
5.88631e-08
-5.58752e-08
7.29389e-06
-9.04316e-08
6.91783e-06
9.28181e-08
-1.44001e-08
-3.55352e-08
7.16162e-06
9.40229e-08
-3.8027e-08
-3.27598e-08
4.07732e-06
-3.51117e-09
-5.45123e-08
4.43345e-06
1.32617e-08
-8.15623e-08
4.56294e-06
2.06126e-08
-4.3292e-08
4.29831e-06
6.26778e-08
-3.41514e-08
6.60138e-06
-7.17905e-08
7.37378e-06
9.77734e-08
4.35517e-08
-8.98693e-08
6.89663e-06
3.92491e-08
1.75147e-08
-3.61526e-08
4.43481e-06
-1.88836e-08
-2.73859e-08
6.47074e-06
-2.4805e-08
-2.75272e-08
6.50253e-06
-8.12844e-08
-3.64135e-08
4.5652e-06
-3.43609e-09
-9.80586e-08
6.32335e-06
-9.22229e-08
7.36861e-06
7.44442e-08
3.69307e-09
-7.72358e-08
7.38507e-06
7.0675e-08
1.07097e-08
-6.14963e-08
5.0649e-06
-1.33822e-08
-5.33284e-08
4.71244e-06
-1.24429e-08
-5.87698e-08
4.71525e-06
-1.13765e-08
-6.10136e-08
4.35337e-06
2.69735e-08
-1.16717e-07
6.62084e-06
-7.99357e-08
7.10347e-06
8.61308e-08
-1.61737e-08
-3.26116e-08
7.52794e-06
7.90062e-08
1.89749e-08
-4.27332e-08
7.01723e-06
8.57727e-09
-6.48676e-08
6.28392e-06
-1.93862e-08
-8.75283e-08
6.26401e-06
-2.91394e-09
-7.26944e-08
6.48778e-06
4.16361e-08
-9.24752e-08
7.18192e-06
-5.9753e-08
6.41961e-06
9.44299e-08
-6.32317e-08
6.59821e-06
9.18631e-08
3.17841e-08
-2.088e-08
7.34711e-06
2.7861e-08
7.54641e-09
7.64128e-06
1.37818e-08
2.28193e-08
7.57838e-06
-6.08583e-09
6.1451e-08
7.28095e-06
-1.10914e-08
8.52227e-08
6.5033e-06
-2.67532e-08
5.57449e-06
1.16215e-07
-2.73645e-08
-1.94035e-07
-2.48871e-07
7.31588e-06
2.20419e-07
2.57194e-07
-1.00409e-07
-3.34131e-07
7.74547e-06
3.40736e-07
-1.43209e-08
-3.1131e-07
7.52427e-06
3.83914e-07
6.66004e-08
-2.73416e-07
7.38419e-06
3.73221e-07
1.43429e-07
-3.06508e-07
7.4339e-06
3.16252e-07
1.6917e-07
-2.31504e-07
7.20338e-06
2.39278e-07
-2.00886e-07
6.1888e-06
1.82261e-07
1.9636e-07
-2.29301e-07
-1.62427e-07
7.66751e-06
2.91969e-07
-9.7399e-08
-1.42976e-07
6.12493e-06
-1.10452e-08
-3.70039e-08
5.45499e-06
7.17137e-08
-3.75962e-08
4.84874e-06
2.11105e-07
-1.55122e-07
5.87221e-06
2.4678e-07
-1.5733e-07
7.07738e-06
-1.64052e-07
6.89623e-06
2.3128e-07
-2.15051e-07
-4.11598e-08
7.07179e-06
3.69706e-07
-3.88987e-08
-2.48029e-08
4.18726e-06
-1.00499e-09
-1.09704e-08
4.49916e-06
5.68101e-09
-2.85127e-08
4.50627e-06
2.28825e-07
-4.11788e-08
4.50828e-06
3.29761e-07
-4.78928e-08
6.52731e-06
-8.52646e-08
7.30556e-06
2.84182e-07
-1.49946e-07
3.67982e-09
6.81105e-06
3.39145e-07
1.06387e-08
4.41397e-08
4.63416e-06
-5.27828e-08
-2.95412e-09
6.63984e-06
-3.40139e-08
-3.45554e-09
5.80035e-06
1.4582e-07
4.0115e-08
5.17276e-06
2.87138e-07
-1.72693e-08
6.20812e-06
-3.56029e-08
7.26182e-06
2.78689e-07
-2.09541e-07
8.68018e-08
7.28343e-06
3.16719e-07
-3.05958e-08
1.24563e-07
5.06341e-06
-1.39881e-08
5.20243e-08
4.49567e-06
8.81188e-09
3.78497e-08
4.50605e-06
1.69377e-07
8.52591e-08
4.47477e-06
2.77094e-07
3.23919e-08
6.43705e-06
2.24572e-08
7.05182e-06
2.62819e-07
-1.87486e-07
1.32491e-07
7.44434e-06
2.43119e-07
-6.83543e-08
2.06792e-07
6.90566e-06
9.30959e-11
2.22127e-07
6.23376e-06
5.58923e-08
1.97578e-07
6.232e-06
1.49854e-07
1.66807e-07
6.40135e-06
2.06146e-07
7.82317e-08
7.10963e-06
5.11843e-08
6.37597e-06
2.21001e-07
-1.69876e-07
6.54454e-06
1.9603e-07
1.59589e-07
-9.06974e-08
7.26411e-06
2.09468e-07
1.82164e-09
7.5425e-06
2.35941e-07
8.40133e-08
7.48407e-06
2.17305e-07
1.59479e-07
7.19688e-06
1.73718e-07
1.84618e-07
6.44722e-06
1.09114e-07
5.53841e-06
2.01063e-07
7.07463e-08
-1.58204e-07
-2.0948e-07
7.28969e-06
1.81772e-07
2.15585e-07
-8.44058e-08
-2.9617e-07
7.68031e-06
2.86851e-07
9.32464e-09
-3.86277e-07
7.43809e-06
3.42056e-07
7.24731e-08
-3.23877e-07
7.29821e-06
3.12112e-07
9.53775e-08
-2.03759e-07
7.38246e-06
2.36718e-07
1.13822e-07
-1.78261e-07
7.18758e-06
1.92908e-07
-1.78963e-07
6.1631e-06
1.43618e-07
1.74569e-07
-1.69186e-07
-1.5851e-07
7.6658e-06
2.29715e-07
-9.77312e-08
-1.60589e-07
6.32539e-06
2.88841e-08
-1.12877e-07
6.75326e-06
1.25228e-07
-9.01908e-08
6.2926e-06
1.45442e-07
-1.43953e-07
5.885e-06
1.61239e-07
-1.35485e-07
7.04994e-06
-1.59253e-07
6.86626e-06
1.70705e-07
-2.22926e-07
-5.99021e-08
7.2099e-06
3.13057e-07
-5.65186e-08
-1.45957e-08
5.14065e-06
4.06203e-08
1.40497e-10
4.18773e-06
1.17925e-07
1.68333e-08
4.31928e-06
3.00105e-07
-3.38492e-08
5.91016e-06
2.37004e-07
-5.8471e-08
6.47885e-06
-9.64654e-08
7.26725e-06
2.17645e-07
-2.16367e-07
1.26292e-09
6.90963e-06
3.08811e-07
-1.67191e-09
4.36158e-08
5.60237e-06
6.47172e-08
4.93436e-08
3.67129e-06
1.71912e-07
3.4305e-08
5.30048e-06
3.04805e-07
-4.55626e-10
6.96767e-06
2.10842e-07
-3.38619e-08
6.05083e-06
-4.98045e-08
7.21712e-06
2.26116e-07
-2.09182e-07
6.89362e-08
7.30666e-06
2.84219e-07
-7.5048e-08
1.17991e-07
5.49764e-06
3.27234e-08
1.62176e-07
4.98814e-06
1.18778e-07
9.49521e-08
4.69648e-06
1.98249e-07
3.78263e-08
4.99629e-06
2.21202e-07
3.47954e-09
6.37926e-06
7.37637e-09
6.99949e-06
2.19968e-07
-1.68164e-07
1.0745e-07
7.40208e-06
2.16274e-07
-7.20396e-08
1.71676e-07
6.89156e-06
2.58794e-08
2.22345e-07
6.29008e-06
9.23703e-08
1.83758e-07
6.36055e-06
1.22852e-07
1.00905e-07
6.38133e-06
1.64803e-07
4.62864e-08
7.10645e-06
3.88476e-08
6.31934e-06
1.89802e-07
-1.59803e-07
6.4895e-06
1.81177e-07
1.40839e-07
-9.22356e-08
7.19331e-06
1.78945e-07
9.10101e-09
7.47929e-06
2.14299e-07
9.05256e-08
7.42208e-06
1.90164e-07
1.35836e-07
7.13293e-06
1.33598e-07
1.57203e-07
6.38347e-06
8.85153e-08
5.48802e-06
1.817e-07
6.46642e-08
-2.01975e-08
-4.47603e-08
7.21798e-06
5.9615e-08
7.91259e-08
1.46322e-10
-3.57511e-08
7.57674e-06
7.02777e-08
9.87251e-09
-7.23018e-08
7.22868e-06
6.46512e-08
-2.82036e-08
-5.53167e-09
7.01311e-06
2.87214e-08
-6.4625e-08
4.1066e-08
7.29921e-06
2.58455e-08
-1.95127e-08
-2.58827e-08
7.11078e-06
7.65455e-08
-1.01089e-07
6.07701e-06
5.81102e-08
1.09449e-07
4.47889e-08
-5.77266e-08
7.6226e-06
1.90109e-08
4.80173e-08
-7.44254e-08
6.23508e-06
5.76711e-08
-2.54351e-07
6.51708e-06
-5.76529e-09
-1.65291e-07
6.15596e-06
-9.32084e-08
6.7716e-09
5.35718e-06
-7.65368e-08
-3.24527e-08
6.97637e-06
-1.06103e-07
6.76289e-06
3.1748e-08
2.36177e-08
-7.00258e-08
7.20015e-06
2.1147e-08
-1.50822e-08
-2.26122e-08
5.42923e-06
8.26008e-08
3.04826e-08
6.25984e-06
2.44644e-07
2.48843e-08
6.23977e-06
-2.98884e-08
-3.90096e-08
5.35402e-06
-6.64342e-08
-7.13148e-08
6.01604e-06
-1.02088e-07
7.15984e-06
3.16732e-08
1.72359e-08
-7.9962e-08
6.85503e-06
3.44692e-08
3.4244e-08
-4.04905e-08
5.64862e-06
1.16761e-07
-1.37485e-08
3.77824e-06
2.71917e-07
-2.1587e-08
5.31848e-06
-2.62134e-08
-1.20911e-07
5.82574e-06
-5.70285e-08
-9.98069e-08
5.27497e-06
-9.93134e-08
7.10314e-06
4.52329e-08
1.66759e-08
-8.55426e-08
7.25165e-06
5.53131e-08
1.99891e-08
-6.28467e-08
5.38891e-06
5.90078e-08
-1.96623e-08
5.47298e-06
6.59058e-08
-4.46652e-08
4.84113e-06
-3.07169e-08
-9.88117e-08
4.79873e-06
-2.08977e-08
-1.22832e-07
6.21293e-06
-6.47475e-08
6.87632e-06
7.37293e-08
-8.36428e-09
-4.01146e-08
7.32976e-06
7.5637e-08
2.01382e-08
-6.62247e-08
6.81946e-06
2.96788e-08
-6.05258e-08
6.14898e-06
-9.96125e-09
-9.13999e-08
6.22309e-06
-4.61772e-08
-1.11433e-07
6.22375e-06
1.17216e-08
-7.51455e-08
7.04923e-06
-2.42483e-08
6.19621e-06
9.42413e-08
-7.38461e-08
6.38453e-06
9.9356e-08
3.95395e-08
-4.17772e-08
7.07336e-06
2.14495e-08
-3.3658e-09
7.36751e-06
1.78282e-08
1.24828e-08
7.29935e-06
1.85204e-10
2.88821e-08
7.00472e-06
-5.85962e-09
7.01758e-08
6.25716e-06
9.88831e-09
5.39179e-06
1.21879e-07
2.03851e-08
-1.3668e-08
-9.91826e-09
7.0942e-06
7.105e-08
7.59435e-08
-2.2867e-09
6.25832e-08
7.32926e-06
3.23829e-08
-4.37667e-08
7.08599e-08
6.69543e-06
-3.99973e-09
-1.13558e-07
7.74885e-08
6.33674e-06
-1.06666e-08
-8.44365e-08
2.21509e-08
7.06079e-06
7.42411e-08
1.56045e-08
-6.99447e-08
6.95271e-06
1.34841e-07
-1.30012e-07
5.96323e-06
1.07924e-07
1.51756e-07
8.4875e-08
-1.44462e-08
7.40352e-06
1.56343e-08
4.83458e-08
1.45688e-08
5.45938e-06
-6.99822e-08
6.99915e-09
4.5193e-06
-1.13936e-07
4.16624e-09
3.94877e-06
-1.3366e-07
-3.74495e-09
4.09725e-06
-5.6235e-08
-3.51117e-08
6.76545e-06
-1.12138e-07
6.60227e-06
8.63535e-08
1.02134e-07
-9.19267e-08
6.84085e-06
-3.66577e-08
6.8245e-08
-8.77089e-08
4.90834e-06
-1.02814e-07
-1.96477e-07
5.60922e-06
-1.45502e-07
-1.31825e-07
5.90627e-06
-1.02112e-07
-7.82852e-08
3.38059e-06
-1.05242e-07
-9.50996e-08
5.1661e-06
-1.14512e-07
6.9393e-06
6.88894e-08
6.77146e-08
-1.28841e-07
6.4956e-06
-1.17541e-08
1.94213e-08
-1.1608e-07
4.87982e-06
-2.89384e-08
-6.62615e-08
3.94224e-06
-3.82889e-08
-6.4046e-08
4.16109e-06
-5.53889e-08
-6.2835e-08
3.4317e-06
-7.05457e-08
-9.36001e-08
4.59537e-06
-9.68632e-08
6.87283e-06
8.92831e-08
4.92917e-08
-1.28847e-07
6.99021e-06
4.43873e-08
2.08169e-08
-1.3339e-07
4.62911e-06
-5.17368e-08
-8.26737e-08
4.85792e-06
-5.70872e-08
-7.02457e-08
4.03515e-06
-6.52002e-08
-7.48893e-08
3.62208e-06
-5.90234e-09
-9.14153e-08
5.93522e-06
-3.83128e-08
6.68593e-06
1.25534e-07
-1.30336e-08
-4.19393e-08
7.18574e-06
9.72519e-08
5.67577e-09
-1.10519e-07
6.53048e-06
-2.9661e-08
-1.19252e-07
5.24274e-06
-8.05165e-08
-1.15886e-07
5.08875e-06
-6.31611e-08
-6.43782e-08
5.84386e-06
5.12827e-08
-9.60525e-09
6.87646e-06
2.35942e-08
6.03982e-06
1.45689e-07
-9.16935e-08
6.25158e-06
1.21072e-07
6.17719e-08
-6.58191e-08
6.89983e-06
3.69454e-08
-5.00451e-08
7.14863e-06
2.75885e-08
-3.5331e-08
7.03762e-06
3.00923e-08
2.33991e-08
6.80043e-06
5.92857e-08
9.89963e-08
6.09738e-06
7.47864e-08
5.28639e-06
1.59222e-07
6.89429e-08
-2.42098e-07
-2.3485e-07
6.98287e-06
2.89537e-07
2.94313e-07
-1.42345e-07
-1.76439e-07
7.13235e-06
3.36134e-07
-8.16766e-08
-1.32128e-07
6.12282e-06
3.64864e-07
-3.28167e-08
-1.32716e-07
5.89129e-06
3.83951e-07
1.33221e-07
-2.37037e-07
6.85219e-06
4.30065e-07
2.56807e-07
-3.48055e-07
6.79839e-06
3.84281e-07
-2.83888e-07
5.89354e-06
3.03567e-07
3.06648e-07
-2.09232e-07
-1.34091e-07
7.19375e-06
3.52793e-07
-1.10355e-07
-7.78231e-08
4.36759e-06
-1.02049e-07
-6.78112e-08
3.31463e-06
-3.15726e-08
-9.35346e-08
3.21813e-06
7.19392e-08
-1.28398e-07
3.70194e-06
3.0555e-07
-1.73909e-07
6.56277e-06
-2.04323e-07
6.46836e-06
3.59825e-07
-1.46536e-07
-9.04913e-08
6.24665e-06
3.70436e-07
-8.73506e-08
-9.02226e-08
3.48385e-06
-1.81012e-07
-1.81269e-07
4.01619e-06
-1.03434e-07
-1.53037e-07
3.89488e-06
-1.02472e-09
-8.37781e-08
3.36543e-06
2.62702e-07
-8.73481e-08
4.89434e-06
-1.1279e-07
6.74427e-06
3.86745e-07
-1.67347e-07
-4.50389e-08
6.00442e-06
3.83281e-07
-1.35174e-07
-4.24688e-08
3.46303e-06
-1.3209e-07
-3.33339e-08
3.95462e-06
-4.86692e-08
-3.09641e-08
4.08468e-06
7.65724e-09
-2.03598e-09
3.42043e-06
2.57261e-07
-1.21837e-08
4.48654e-06
-8.68865e-09
6.67601e-06
3.99031e-07
-1.96103e-07
6.71615e-08
6.73567e-06
3.89144e-07
-1.37355e-07
1.34724e-08
3.63135e-06
-1.12051e-07
-2.36461e-09
3.6376e-06
-2.94714e-08
6.24557e-09
3.45855e-06
7.35649e-08
7.21824e-08
3.12254e-06
3.41068e-07
1.3898e-07
5.73542e-06
1.11638e-07
6.51206e-06
3.94867e-07
-2.91516e-07
1.95881e-07
7.03352e-06
3.50432e-07
-1.42149e-07
2.30866e-07
6.32371e-06
-7.02055e-08
2.04917e-07
4.80766e-06
-2.02732e-08
2.12829e-07
4.46896e-06
1.58216e-07
2.94931e-07
5.65436e-06
3.06262e-07
2.53443e-07
6.7051e-06
1.86235e-07
5.92427e-06
3.47334e-07
-2.50437e-07
6.16162e-06
2.76379e-07
2.58156e-07
-1.75082e-07
6.74367e-06
3.03886e-07
-7.84705e-08
6.91112e-06
3.36765e-07
2.93802e-08
6.77559e-06
3.47453e-07
1.65393e-07
6.60456e-06
3.39332e-07
2.56996e-07
5.97834e-06
2.811e-07
5.23041e-06
2.93562e-07
2.05749e-07
-4.9482e-07
-5.00709e-07
6.89576e-06
5.18417e-07
5.32262e-07
-2.70027e-07
-4.89105e-07
7.05967e-06
6.96947e-07
-7.48596e-08
-3.35092e-07
5.97544e-06
8.02312e-07
1.13529e-07
-3.57583e-07
5.74872e-06
8.23051e-07
3.91026e-07
-4.92374e-07
6.92825e-06
7.70256e-07
4.89418e-07
-5.9717e-07
6.67148e-06
6.00447e-07
-4.12469e-07
5.88774e-06
4.75229e-07
4.30452e-07
-5.14384e-07
-2.77353e-07
7.0818e-06
7.251e-07
-1.91508e-07
-1.93594e-07
4.25379e-06
-6.09696e-08
-2.02428e-07
3.29682e-06
4.71862e-08
-2.12582e-07
3.28646e-06
3.35925e-07
-1.69866e-07
3.81751e-06
6.60728e-07
-3.03443e-07
6.82585e-06
-2.8368e-07
6.39689e-06
6.04046e-07
-4.28805e-07
-8.37332e-08
6.03111e-06
8.48456e-07
-2.35873e-07
-6.08409e-08
3.21005e-06
-6.99511e-08
-4.90975e-08
3.81692e-06
2.43786e-08
-6.21745e-08
3.79989e-06
1.84461e-07
-6.10976e-08
3.24388e-06
6.60143e-07
-8.04941e-08
5.12505e-06
-1.0237e-07
6.63348e-06
6.79909e-07
-4.02966e-07
8.36354e-08
5.83955e-06
8.49668e-07
-1.64963e-07
3.3342e-08
3.22642e-06
-6.63764e-08
4.24595e-09
3.91454e-06
-3.14536e-10
-2.54622e-09
4.11051e-06
1.63377e-07
3.5038e-08
3.31915e-06
6.23188e-07
8.22646e-08
4.87856e-06
8.26176e-08
6.59983e-06
6.83758e-07
-4.61729e-07
3.37004e-07
6.69163e-06
7.78035e-07
-1.92475e-07
2.79056e-07
3.57493e-06
-6.47115e-08
1.82829e-07
3.4847e-06
4.95996e-08
1.7612e-07
3.32196e-06
2.08418e-07
1.96054e-07
2.93915e-06
6.89231e-07
3.7034e-07
6.19056e-06
2.49503e-07
6.40306e-06
6.31559e-07
-5.84965e-07
4.5968e-07
6.92134e-06
5.98169e-07
-2.85872e-07
6.38324e-07
6.61659e-06
-6.62266e-08
6.10832e-07
4.85102e-06
9.96171e-08
5.77331e-07
4.42465e-06
4.22247e-07
6.53343e-07
6.16242e-06
5.35995e-07
4.80071e-07
6.55406e-06
3.19546e-07
5.87678e-06
5.13862e-07
-3.95898e-07
6.14125e-06
4.17131e-07
4.53278e-07
-2.63244e-07
6.61379e-06
5.77314e-07
-6.93374e-08
6.77102e-06
6.54418e-07
1.31544e-07
6.62524e-06
6.53403e-07
3.16024e-07
6.4596e-06
5.83656e-07
3.97367e-07
5.92712e-06
4.46085e-07
5.2365e-06
4.01673e-07
3.09143e-07
-6.1538e-07
-6.37041e-07
6.84523e-06
5.95514e-07
6.24153e-07
-3.77064e-07
-7.82393e-07
7.18427e-06
8.73406e-07
-6.31765e-08
-5.61651e-07
6.79698e-06
1.10184e-06
2.66737e-07
-4.60854e-07
6.63709e-06
1.12119e-06
5.4107e-07
-8.79722e-07
7.04336e-06
9.11192e-07
5.69819e-07
-6.90653e-07
6.61277e-06
6.45018e-07
-4.37e-07
5.95834e-06
5.01444e-07
4.33642e-07
-8.10194e-07
-3.5367e-07
7.15765e-06
9.09607e-07
-3.2056e-07
-2.15409e-07
5.19765e-06
-5.42516e-08
-2.28961e-07
3.29213e-06
1.61197e-07
-2.5528e-07
3.02536e-06
7.18343e-07
-2.65757e-07
5.72136e-06
8.16684e-07
-4.39844e-07
6.98521e-06
-3.14322e-07
6.43066e-06
6.61054e-07
-4.45661e-07
-7.20752e-08
6.12951e-06
1.10933e-06
-3.38128e-07
-5.6129e-08
3.02385e-06
-1.07861e-07
-7.02221e-08
3.50031e-06
1.41555e-07
-8.57553e-08
3.50778e-06
3.58495e-07
-7.16978e-08
2.99071e-06
9.94303e-07
-9.37455e-08
6.48948e-06
-9.04628e-08
6.66762e-06
7.78071e-07
-4.56094e-07
2.07409e-07
6.13751e-06
1.10773e-06
-3.63219e-07
1.17408e-07
3.05015e-06
-1.27286e-07
1.22658e-07
3.58085e-06
1.44854e-07
1.53985e-07
3.70899e-06
3.44944e-07
1.38215e-07
3.06265e-06
9.76102e-07
2.04814e-07
6.22682e-06
1.43033e-07
6.65955e-06
7.82188e-07
-7.6186e-07
5.229e-07
7.05628e-06
9.55943e-07
-3.98445e-07
6.00327e-07
4.84967e-06
-7.16169e-08
5.32142e-07
3.78822e-06
1.37497e-07
3.31902e-07
3.08846e-06
5.63443e-07
5.41411e-07
4.39595e-06
8.44818e-07
5.07248e-07
6.7666e-06
2.97575e-07
6.41196e-06
6.81584e-07
-7.03308e-07
5.61751e-07
6.7851e-06
6.55645e-07
-4.37996e-07
8.26194e-07
6.92434e-06
-8.03911e-08
9.52143e-07
6.29974e-06
2.19617e-07
9.1188e-07
5.69891e-06
5.70003e-07
8.14885e-07
6.615e-06
5.96624e-07
5.31394e-07
6.50266e-06
3.31684e-07
5.91659e-06
5.2312e-07
-4.21675e-07
6.20048e-06
4.25637e-07
4.96324e-07
-2.87133e-07
6.58752e-06
6.53242e-07
-5.33952e-08
6.76031e-06
7.62849e-07
1.98656e-07
6.66188e-06
7.55522e-07
3.73339e-07
6.44923e-06
6.30485e-07
4.1883e-07
5.96226e-06
4.48435e-07
5.29681e-06
3.95169e-07
2.94687e-07
-3.81017e-07
-4.48777e-07
6.90856e-06
3.49582e-07
4.00296e-07
-2.63738e-07
-8.06175e-07
7.18769e-06
5.92872e-07
-1.3695e-08
-8.40179e-07
7.29588e-06
7.32823e-07
2.14297e-07
-8.18932e-07
6.90016e-06
7.2244e-07
3.27895e-07
-7.44622e-07
6.8214e-06
5.40254e-07
3.17385e-07
-4.12409e-07
6.68319e-06
3.51244e-07
-2.51631e-07
6.03631e-06
2.67176e-07
2.2388e-07
-6.83515e-07
-3.13776e-07
7.11561e-06
5.69092e-07
-3.80678e-07
-2.68265e-07
7.1288e-06
-3.58449e-08
-4.26935e-07
6.65316e-06
2.83373e-07
-4.15027e-07
6.2748e-06
6.08652e-07
-4.50601e-07
6.8057e-06
4.81029e-07
-3.72999e-07
6.7703e-06
-2.03792e-07
6.50619e-06
3.5418e-07
-4.08096e-07
-3.69847e-08
6.74166e-06
8.02683e-07
-4.73302e-07
-3.8224e-08
3.01174e-06
-5.44409e-08
-4.15661e-08
5.52166e-06
2.88503e-07
-9.85335e-08
5.69295e-06
6.59798e-07
-8.50398e-08
5.70977e-06
6.62344e-07
-9.52958e-08
7.11267e-06
-6.73193e-08
6.74779e-06
4.43375e-07
-3.9826e-07
2.35535e-07
6.90214e-06
7.91028e-07
-4.20515e-07
2.04251e-07
3.03567e-06
-1.13803e-07
3.73599e-07
5.48763e-06
3.39193e-07
3.88205e-07
7.62084e-06
5.53588e-07
2.58468e-07
5.69624e-06
6.66955e-07
1.83564e-07
7.11684e-06
7.43655e-08
6.74224e-06
4.46032e-07
-6.83554e-07
3.58443e-07
7.05631e-06
5.75322e-07
-5.68913e-07
7.01313e-07
7.03499e-06
-8.53846e-08
8.28569e-07
6.72207e-06
2.16691e-07
5.18981e-07
5.3287e-06