/*--------------------------------*- C++ -*----------------------------------*\
| =========                 |                                                 |
| \\      /  F ield         | OpenFOAM: The Open Source CFD Toolbox           |
|  \\    /   O peration     | Version:  plus.master.MPPICInterFoam            |
|   \\  /    A nd           | Web:      www.OpenFOAM.com                      |
|    \\/     M anipulation  |                                                 |
\*---------------------------------------------------------------------------*/
FoamFile
{
    version     2.0;
    format      ascii;
    class       volScalarField;
    location    "7.6";
    object      k;
}
// * * * * * * * * * * * * * * * * * * * * * * * * * * * * * * * * * * * * * //

dimensions      [0 2 -2 0 0 0 0];

internalField   nonuniform List<scalar> 
11821
(
0.0481852
0.0515123
0.043848
0.0491109
0.0440868
0.0379162
0.0474211
0.0531128
0.0553652
0.0553092
0.0526491
0.047386
0.0407479
0.055106
0.0568937
0.0562262
0.0555505
0.0576659
0.0549677
0.0470696
0.0580717
0.0557282
0.0505168
0.0512942
0.0571438
0.0591306
0.0516708
0.0579098
0.0540075
0.0543892
0.0557702
0.0564989
0.0597876
0.0532599
0.0588226
0.0581195
0.0536636
0.0548706
0.0589052
0.0595181
0.0513914
0.0548253
0.058984
0.0581359
0.0584951
0.0591526
0.0546249
0.0466143
0.046698
0.0526691
0.0557685
0.0555335
0.0522687
0.046827
0.0402817
0.0490097
0.055118
0.0581402
0.0580564
0.0550177
0.0495431
0.0428612
0.0569816
0.0608762
0.0606315
0.0609594
0.061756
0.0574306
0.0492738
0.0612094
0.0625729
0.0554491
0.0575456
0.0637776
0.0626697
0.0541068
0.0619412
0.0614701
0.0546636
0.0534545
0.0639473
0.0638205
0.0557496
0.0617494
0.0649086
0.06088
0.061848
0.0646412
0.0627855
0.0537696
0.0566295
0.0623331
0.0628647
0.0631202
0.0626024
0.0569918
0.0487904
0.0482925
0.0545951
0.0579827
0.0578548
0.0545278
0.048951
0.0423524
0.0498529
0.0560009
0.0593806
0.0594661
0.0563444
0.0510913
0.0446086
0.0577132
0.0643803
0.0667212
0.0672761
0.065077
0.0588546
0.0508624
0.0638446
0.0666394
0.0624276
0.0638525
0.0686533
0.0651015
0.0554757
0.0663495
0.0666492
0.0580654
0.0608904
0.0687556
0.0675498
0.0571904
0.063834
0.0683477
0.066812
0.0681631
0.0697806
0.0649406
0.0552017
0.0574021
0.0650647
0.0688641
0.0688359
0.0652696
0.0584809
0.0504084
0.0492122
0.0554544
0.0590833
0.0591157
0.05583
0.0505132
0.0440506
0.0508666
0.0570777
0.0606735
0.0609313
0.0579426
0.052766
0.0462422
0.0589485
0.0670099
0.0714998
0.0719376
0.0678521
0.0607402
0.0525171
0.065413
0.0717502
0.0719344
0.0729184
0.074273
0.067123
0.0569833
0.068242
0.0727135
0.0678791
0.0701624
0.0758482
0.0697714
0.0586014
0.065086
0.0733012
0.0742892
0.0747521
0.0750106
0.0667673
0.0566417
0.0582987
0.0667965
0.0720144
0.0721915
0.0675236
0.0601012
0.0519217
0.0500533
0.056269
0.0600241
0.0602473
0.0571725
0.0519926
0.0455204
0.0521396
0.0585168
0.0624003
0.0629396
0.0600438
0.0547495
0.0479071
0.0600265
0.0680477
0.0729121
0.0738481
0.0698722
0.0629635
0.0544229
0.0660607
0.0738118
0.0778254
0.0788091
0.0765853
0.0693519
0.0589594
0.0683631
0.0754159
0.0702845
0.0723175
0.0784672
0.0716945
0.0604458
0.0653969
0.0741871
0.077465
0.0784664
0.0765826
0.0685659
0.0583758
0.0590328
0.0672951
0.0725941
0.073121
0.0690169
0.0618482
0.0535233
0.0509645
0.0572332
0.0610921
0.0615577
0.0586795
0.0535429
0.0469048
0.0537048
0.0607122
0.06526
0.0660345
0.0627694
0.0569548
0.0495787
0.0619275
0.0698683
0.0727885
0.0737205
0.0722033
0.0657557
0.0565097
0.0680734
0.0752163
0.0733713
0.0749401
0.0755329
0.0723899
0.0613659
0.0698923
0.0753209
0.072672
0.0732237
0.0765929
0.0743416
0.0628522
0.0668458
0.0751733
0.0764658
0.0777717
0.0778685
0.0711448
0.0604924
0.0603452
0.0688014
0.0742089
0.0750662
0.0711899
0.0640225
0.0552378
0.0520604
0.0586733
0.062911
0.0635861
0.060632
0.0552155
0.0482443
0.0550377
0.06237
0.0670643
0.067915
0.0648436
0.058831
0.0511008
0.0632169
0.0705015
0.0719937
0.0721055
0.0734913
0.0678063
0.0583565
0.0691139
0.0723891
0.0693734
0.0695081
0.0757624
0.0742769
0.0635346
0.0706002
0.0735539
0.0725956
0.0728347
0.0763659
0.0760805
0.065027
0.0678424
0.0743896
0.0753438
0.0759234
0.0764225
0.0728776
0.0624163
0.0614947
0.069697
0.0743863
0.0753273
0.0724407
0.0657317
0.0567814
0.0531166
0.0600373
0.0644815
0.0652822
0.0623655
0.0567096
0.0494696
0.0561016
0.0638435
0.0691018
0.0701042
0.0666709
0.0603657
0.0523086
0.0645476
0.0732355
0.0767358
0.077384
0.0770054
0.0698033
0.0598442
0.0709406
0.0766431
0.0763504
0.0768235
0.0802656
0.0772274
0.0652798
0.0726457
0.077431
0.0799294
0.0786546
0.0801185
0.079152
0.0667977
0.0694663
0.0779217
0.080693
0.0814819
0.0808807
0.0752951
0.0640179
0.0626571
0.0717563
0.0778367
0.0788951
0.0751246
0.0675242
0.0580572
0.0540186
0.0612915
0.0662034
0.0671264
0.0639404
0.0579764
0.050434
0.056658
0.0646396
0.0702737
0.0714591
0.067931
0.0613689
0.0529691
0.0651753
0.0749538
0.0823601
0.0835337
0.079592
0.0713666
0.060733
0.0715624
0.0805498
0.0794842
0.0827132
0.087925
0.0792542
0.0663619
0.0734796
0.082786
0.0758757
0.0816927
0.0900475
0.081494
0.0679841
0.0702052
0.0806503
0.0834703
0.0848224
0.0856892
0.0773154
0.0650007
0.063235
0.0729316
0.0799824
0.0814107
0.0771227
0.0688017
0.0587503
0.0544442
0.0619008
0.067061
0.0681388
0.0648784
0.0586837
0.0508639
0.0567858
0.0648919
0.0705532
0.0719986
0.0686229
0.0617319
0.0529927
0.0653969
0.0754038
0.0823504
0.0840875
0.080843
0.0722066
0.0609168
0.0717508
0.0822787
0.0841426
0.0841357
0.0894576
0.0804299
0.066748
0.0736608
0.0843682
0.0815082
0.0841563
0.092041
0.0825462
0.0684068
0.0703629
0.0814867
0.0872683
0.0879516
0.0874036
0.078239
0.0651129
0.0632433
0.0733028
0.0807106
0.0826127
0.078158
0.0691849
0.0586337
0.0543577
0.061898
0.0671962
0.0684049
0.065077
0.0586387
0.0506458
0.0565511
0.064766
0.0706447
0.072089
0.0684281
0.0611649
0.0523536
0.0652262
0.0753888
0.0818141
0.0824728
0.0797373
0.0716255
0.060089
0.0715583
0.0817019
0.0836016
0.0824018
0.0823831
0.0795121
0.065827
0.073338
0.0841742
0.0825824
0.0816576
0.0829605
0.0812483
0.0673735
0.0699183
0.0813328
0.0877954
0.087792
0.0865605
0.0773994
0.064059
0.0626366
0.0726854
0.0801255
0.0824415
0.0774458
0.0681395
0.0576276
0.0537872
0.061239
0.0666225
0.0678554
0.0642463
0.057714
0.0498907
0.0557621
0.0636274
0.0691706
0.0703338
0.0666739
0.0596806
0.0513547
0.0641234
0.07282
0.0756367
0.0771553
0.0763914
0.0692566
0.0585462
0.0703793
0.0785656
0.078277
0.0804143
0.0817942
0.0765409
0.0638464
0.0719601
0.0796658
0.0784865
0.0776241
0.0826849
0.0784753
0.0652459
0.0683395
0.0778382
0.081346
0.0825732
0.082393
0.0743231
0.0621061
0.0612631
0.0706137
0.0770958
0.078421
0.0743731
0.0658334
0.0561226
0.0529179
0.0599054
0.064892
0.0658867
0.0624445
0.0562799
0.0489735
0.0546723
0.0617763
0.0669893
0.0678457
0.0642162
0.0579138
0.0503342
0.0622241
0.0703029
0.0757638
0.0771492
0.0735745
0.066392
0.0568013
0.0678436
0.0747561
0.0740652
0.0752912
0.0806257
0.0727683
0.0615096
0.0692567
0.0764926
0.076292
0.0772881
0.0820557
0.0744421
0.0626943
0.0657783
0.0748899
0.0802731
0.0815316
0.0791062
0.070588
0.0598841
0.059599
0.0677305
0.0737099
0.0748579
0.0706876
0.0632509
0.0546097
0.0520758
0.0584017
0.0628422
0.0636014
0.0603989
0.0548351
0.0481824
0.053521
0.0598264
0.0641912
0.0650492
0.0618718
0.0562595
0.0494876
0.0602386
0.066809
0.0709265
0.0723072
0.0700773
0.0638387
0.055249
0.0651212
0.0719338
0.072825
0.0744636
0.076224
0.0695291
0.0593223
0.0662513
0.0734823
0.0739342
0.0756169
0.0791
0.0709716
0.060368
0.0635464
0.0706749
0.0753194
0.0793375
0.0733665
0.0675682
0.0579752
0.0582662
0.0655455
0.0704936
0.0709884
0.067739
0.0610787
0.0534336
0.0514793
0.0570563
0.0608012
0.0613543
0.0585937
0.0537081
0.0476524
0.0528171
0.0584262
0.0614958
0.0620153
0.0600521
0.0551748
0.0490261
0.058919
0.0650585
0.0657334
0.0661168
0.06713
0.0618741
0.0542541
0.0630788
0.0658856
0.0639311
0.0651395
0.0676128
0.06607
0.0576241
0.0642792
0.0671604
0.0657821
0.0671622
0.0677757
0.067218
0.0585189
0.0621175
0.069397
0.0715159
0.0685904
0.0704013
0.0649115
0.0567674
0.0575227
0.0642944
0.0679652
0.0683081
0.0655431
0.0597423
0.0528356
0.0513001
0.056408
0.059462
0.0598318
0.0575381
0.0531671
0.0474484
0.0527959
0.0579619
0.0610336
0.0611921
0.0593443
0.0550262
0.049065
0.0584328
0.0642423
0.0674088
0.0684928
0.0672284
0.0611659
0.0541405
0.0616313
0.0636523
0.0693678
0.0715646
0.070977
0.0656594
0.0574423
0.0627205
0.0649842
0.0706309
0.0724927
0.0721045
0.066536
0.058315
0.0615963
0.067161
0.0724774
0.0729281
0.0698975
0.0644786
0.0566563
0.0573946
0.0629921
0.0670257
0.0676808
0.0646267
0.0596414
0.0529037
0.0514959
0.0564319
0.0593946
0.0597934
0.057536
0.0532827
0.0475526
0.00839882
0.0033975
0.026514
0.0212234
0.0166178
0.0125803
0.00878034
0.00348188
0.0407925
0.0335087
0.0271811
0.02169
0.0169275
0.0127727
0.00888784
0.00349486
0.0393312
0.0323866
0.026332
0.0210601
0.0164755
0.0124646
0.00869439
0.00342993
0.0357531
0.029646
0.0242867
0.0195723
0.0154336
0.0117728
0.00827202
0.00331154
0.031105
0.0262482
0.0217873
0.0177606
0.0141673
0.0109332
0.00775995
0.00318496
0.0337355
0.0285948
0.0238581
0.0195449
0.0156592
0.0121309
0.00864509
0.00363463
0.038565
0.032129
0.0264808
0.0214715
0.0170277
0.0130555
0.0092205
0.00376191
0.0421981
0.0348579
0.0284946
0.0229258
0.0180397
0.0137237
0.00962181
0.00385226
0.0434588
0.0357986
0.0291812
0.0234086
0.0183634
0.0139275
0.00973711
0.00386746
0.0419376
0.0346354
0.0282991
0.0227536
0.0178954
0.0136116
0.00954119
0.00380118
0.0381531
0.0317678
0.0261629
0.0211994
0.0168089
0.0128919
0.00910363
0.00367651
0.0332745
0.028204
0.0235362
0.0192933
0.015476
0.0120072
0.00856242
0.00353832
0.0357797
0.0304668
0.0255154
0.020972
0.0168602
0.0131085
0.00937309
0.00396182
0.0407134
0.0341099
0.0282314
0.0229672
0.0182749
0.0140639
0.00996696
0.00409865
0.0444313
0.0369077
0.0303062
0.0244669
0.019317
0.0147509
0.0103794
0.00419259
0.0457212
0.0378701
0.0310077
0.0249608
0.0196493
0.0149617
0.0105
0.00420928
0.0441485
0.0366615
0.0300872
0.0242788
0.0191668
0.01464
0.010303
0.00414228
0.0402619
0.0337017
0.0278716
0.0226681
0.0180454
0.0139011
0.00985603
0.0040137
0.0352539
0.0300107
0.025141
0.0206869
0.0166614
0.0129819
0.00929252
0.00386609
0.0374709
0.032031
0.0269032
0.0221777
0.0178948
0.0139729
0.0100318
0.0042611
0.0424259
0.0357368
0.0296774
0.0242146
0.0193369
0.0149466
0.0106374
0.00440572
0.0460954
0.0385512
0.0317807
0.0257357
0.0203923
0.0156419
0.0110551
0.00450192
0.0473837
0.0395129
0.0324831
0.026231
0.0207266
0.0158554
0.0111784
0.00451923
0.0457995
0.0382726
0.0315322
0.0255299
0.0202355
0.0155312
0.0109814
0.00445153
0.0419296
0.0352693
0.0292697
0.0238873
0.0190964
0.0147831
0.0105298
0.00432023
0.0368667
0.0315005
0.026473
0.0218594
0.0176808
0.0138415
0.00995046
0.00416502
0.0389217
0.0333389
0.0280648
0.0232097
0.0188099
0.0147629
0.0106511
0.00455185
0.0439497
0.037109
0.0308812
0.0252705
0.0202656
0.0157454
0.0112623
0.00470164
0.0475973
0.039937
0.0329978
0.0267974
0.0213229
0.0164418
0.0116814
0.00479954
0.0488382
0.0408753
0.033688
0.0272857
0.0216536
0.0166545
0.0118051
0.0048166
0.0472226
0.0395954
0.0327085
0.0265696
0.0211564
0.0163284
0.0116073
0.00474726
0.043331
0.0365479
0.030412
0.0249086
0.0200088
0.0155755
0.0111523
0.00461229
0.0381898
0.0327114
0.0275682
0.0228513
0.0185737
0.0146186
0.0105607
0.0044494
0.040298
0.0345296
0.0291182
0.0241579
0.0196668
0.0155138
0.011246
0.00484124
0.045488
0.0383849
0.0319738
0.0262342
0.0211272
0.0164988
0.0118593
0.00499437
0.0492136
0.0412563
0.0341062
0.0277634
0.0221816
0.0171932
0.0122778
0.00509322
0.0504132
0.0421755
0.0347826
0.0282411
0.0225054
0.017402
0.0123992
0.00510883
0.0486995
0.0408326
0.0337683
0.0275066
0.0220005
0.0170714
0.0121981
0.005036
0.04468
0.0377027
0.0314271
0.0258257
0.0208444
0.0163122
0.0117377
0.00489557
0.0393832
0.0337716
0.0285316
0.0237422
0.0193923
0.0153416
0.0111347
0.00472419
0.0416314
0.0356562
0.0301096
0.0250553
0.0204748
0.0162163
0.0117999
0.00511738
0.047023
0.0396025
0.0329984
0.0271392
0.0219352
0.0171995
0.012412
0.00527171
0.0508983
0.0425363
0.0351478
0.0286672
0.0229846
0.0178891
0.0128268
0.00536983
0.0520965
0.0434456
0.0358106
0.0291325
0.0232989
0.0180912
0.0129434
0.00538289
0.0502366
0.0420242
0.034757
0.0283793
0.0227824
0.0177528
0.0127368
0.00530555
0.0460056
0.038785
0.0323676
0.0266755
0.0216126
0.0169844
0.0122697
0.00515918
0.0405096
0.0347541
0.029422
0.024563
0.0201423
0.0160006
0.0116567
0.00497979
0.0428743
0.0366983
0.0310093
0.0258511
0.0211822
0.016829
0.0122832
0.00536275
0.0484508
0.0407332
0.0339306
0.0279378
0.0226352
0.0178041
0.0128897
0.00551618
0.0524795
0.043737
0.0361027
0.0294644
0.023675
0.0184838
0.0132969
0.00561154
0.0536787
0.0446382
0.0367523
0.0299161
0.0239777
0.018677
0.013407
0.00562133
0.0516814
0.0431351
0.0356524
0.0291386
0.0234483
0.0183307
0.013195
0.00553968
0.0472356
0.0397761
0.0332016
0.027407
0.022266
0.0175554
0.0127231
0.00538852
0.0415424
0.0356333
0.0302004
0.0252695
0.0207835
0.0165633
0.0121031
0.00520275
0.0438161
0.0374718
0.031676
0.0264526
0.0217348
0.017324
0.012684
0.00557229
0.0495416
0.0415606
0.0345974
0.0285191
0.0231665
0.0182837
0.0132816
0.0057231
0.0536993
0.044613
0.0367701
0.0300268
0.0241852
0.0189468
0.0136776
0.00581419
0.0549107
0.045509
0.037405
0.030462
0.0244739
0.0191294
0.0137801
0.00582035
0.0527974
0.0439356
0.0362704
0.0296701
0.0239383
0.018779
0.0135641
0.00573501
0.0481628
0.0404805
0.0337839
0.0279317
0.0227574
0.0180044
0.0130911
0.00558049
0.0422971
0.036262
0.0307613
0.0257942
0.0212782
0.0170123
0.0124682
0.00539004
0.0442678
0.0378496
0.032042
0.0268363
0.0221341
0.0177133
0.0130167
0.00575454
0.050058
0.0419167
0.0349124
0.0288548
0.0235325
0.0186534
0.0136038
0.00590188
0.0542851
0.0449594
0.0370429
0.0303191
0.0245185
0.0192953
0.0139869
0.00598845
0.055511
0.045839
0.0376533
0.0307325
0.0247909
0.0194663
0.0140814
0.00599089
0.0532956
0.0442238
0.0365107
0.029944
0.0242585
0.0191155
0.0138626
0.00590199
0.0485397
0.0407445
0.0340433
0.028232
0.0230957
0.0183488
0.0133907
0.00574444
0.0425977
0.0365353
0.0310572
0.0261276
0.0216359
0.0173638
0.0127677
0.00555012
0.044243
0.0378881
0.0321847
0.0270779
0.0224405
0.0180379
0.0133046
0.00592105
0.0499803
0.0418497
0.0349612
0.0290327
0.0238021
0.0189587
0.0138821
0.00606465
0.0541978
0.0448111
0.0370091
0.0304371
0.0247514
0.0195796
0.014253
0.00614727
0.0553931
0.0456477
0.0375831
0.0308247
0.0250064
0.0197387
0.0143393
0.00614576
0.0530953
0.0440311
0.0364607
0.0300532
0.0244816
0.0193881
0.0141169
0.00605277
0.0483252
0.0406166
0.0340646
0.0283909
0.0233447
0.0186305
0.0136454
0.00589148
0.0424605
0.0365149
0.0311657
0.0263407
0.0219113
0.0176543
0.0130229
0.00569309
0.0438989
0.0377672
0.0322555
0.0272826
0.0227153
0.0183254
0.013554
0.00607102
0.0494019
0.0415526
0.0349207
0.0291754
0.024045
0.0192305
0.0141232
0.00621072
0.053434
0.0443581
0.0368642
0.0305187
0.0249614
0.0198336
0.0144841
0.0062898
0.0545407
0.0451304
0.0373958
0.0308796
0.0251993
0.019981
0.014562
0.00628383
0.0522957
0.0435701
0.0363131
0.0301283
0.0246802
0.0196279
0.0143343
0.00618618
0.0476917
0.0403048
0.0340164
0.0285192
0.0235652
0.0188754
0.0138608
0.00602045
0.0420828
0.0363835
0.0312251
0.0265233
0.0221536
0.0179046
0.0132373
0.00581768
0.0434652
0.0376498
0.0323485
0.0274902
0.0229625
0.0185607
0.0137421
0.00618573
0.0486126
0.0412324
0.034908
0.0293316
0.0242682
0.0194545
0.0143058
0.00632376
0.0523456
0.0438529
0.0367487
0.0306226
0.0251589
0.0200444
0.0146594
0.00639972
0.0533452
0.0445563
0.0372394
0.0309592
0.0253814
0.0201812
0.0147296
0.00638936
0.0512281
0.0430802
0.0362015
0.030225
0.024864
0.0198234
0.0144961
0.00628745
0.0469433
0.0400111
0.0340075
0.02866
0.0237623
0.019071
0.014019
0.00611789
0.0417005
0.0362915
0.0313147
0.0267046
0.0223628
0.0181007
0.0133926
0.00591102
0.0430772
0.0375808
0.0324522
0.0276613
0.0231364
0.0187045
0.0138411
0.0062492
0.04783
0.0409692
0.0349234
0.0294642
0.0244257
0.0195916
0.0144029
0.00638788
0.0512108
0.0434016
0.0366733
0.0307141
0.0252973
0.0201721
0.0147515
0.0064609
0.0520961
0.0440428
0.0371301
0.0310311
0.0255074
0.0203002
0.0148157
0.00644693
0.0501742
0.0426723
0.0361385
0.0303108
0.0249899
0.0199381
0.0145779
0.00634228
0.0462905
0.0398085
0.0340348
0.0287776
0.023895
0.0191842
0.0140983
0.00617089
0.0414245
0.0362677
0.0314158
0.0268467
0.0225
0.0182118
0.0134686
0.00596083
0.0427649
0.0375177
0.0324946
0.0277261
0.0231877
0.0187326
0.0138474
0.00626148
0.0471683
0.0407504
0.0349007
0.0295014
0.0244649
0.0196158
0.01441
0.00640277
0.0502107
0.0430228
0.0365813
0.0307213
0.025322
0.0201886
0.0147546
0.00647335
0.0510107
0.0436207
0.037016
0.0310254
0.0255235
0.0203109
0.0148153
0.00645728
0.0493241
0.0423609
0.0360664
0.0303165
0.0250069
0.0199475
0.0145765
0.00635186
0.0458168
0.0396686
0.0340291
0.0288053
0.0239182
0.0191952
0.0140976
0.00618065
0.0412516
0.0362538
0.0314554
0.0268882
0.0225263
0.0182219
0.0134656
0.0059683
0.04257
0.0374357
0.0324406
0.0276686
0.0231269
0.0186772
0.0138024
0.00624986
0.046761
0.0405862
0.0348133
0.0294278
0.0243957
0.0195579
0.0143669
0.00639449
0.049552
0.042767
0.0364594
0.0306309
0.0252422
0.020124
0.0147082
0.00646365
0.0503035
0.0433475
0.0368852
0.0309283
0.0254383
0.0202425
0.0147669
0.00644685
0.0488399
0.0421653
0.0359584
0.0302254
0.0249237
0.0198804
0.0145289
0.00634136
0.0455758
0.0395633
0.033952
0.0287265
0.0238422
0.0191328
0.0140528
0.0061702
0.041156
0.0361978
0.0313941
0.0268162
0.0224543
0.0181606
0.0134194
0.00595567
0.04257
0.0373877
0.0323475
0.0275575
0.0230272
0.0186056
0.013761
0.00624995
0.0467526
0.0405505
0.0347261
0.0293153
0.0242927
0.0194848
0.0143267
0.00639522
0.0495338
0.0427392
0.0363752
0.0305139
0.0251321
0.020045
0.0146649
0.00646358
0.0502881
0.0433231
0.0367997
0.0308077
0.0253242
0.0201607
0.0147221
0.00644646
0.0488467
0.0421363
0.0358656
0.0301018
0.0248097
0.0197995
0.0144844
0.00634015
0.0456073
0.0395211
0.0338485
0.0286014
0.0237314
0.0190546
0.0140089
0.0061674
0.0411503
0.0361228
0.0312754
0.0266886
0.0223452
0.018083
0.0133738
0.00595063
0.0383615
0.0322652
0.0267366
0.0218189
0.0174848
0.0136058
0.00978296
0.00422602
0.0452602
0.0374176
0.0305061
0.0245182
0.0193653
0.0148761
0.0105986
0.00450837
0.0507073
0.0417459
0.0337016
0.0267847
0.0209166
0.0158999
0.0112392
0.00474552
0.0528023
0.0435172
0.0350245
0.027729
0.0215677
0.0163337
0.0115156
0.00486702
0.0509783
0.0420292
0.0339429
0.0269844
0.0210811
0.0160354
0.0113499
0.00483247
0.0458248
0.0379257
0.0309313
0.0248698
0.0196555
0.0151162
0.0107965
0.00466238
0.0390422
0.0328477
0.0272168
0.0222109
0.0178059
0.0138728
0.0100075
0.00441212
0.0399564
0.0337777
0.0281412
0.0230834
0.0185839
0.014517
0.010465
0.00453831
0.0468794
0.0389486
0.0319488
0.0258292
0.0205098
0.0158263
0.0113101
0.00483387
0.0525491
0.0433281
0.0351743
0.0281273
0.0220897
0.0168723
0.0119649
0.0050773
0.0547369
0.0451393
0.0365223
0.0290951
0.02276
0.0173196
0.0122492
0.00520192
0.0528559
0.0436366
0.035439
0.0283516
0.0222759
0.0170233
0.0120852
0.00516959
0.0474701
0.0394863
0.0324165
0.026227
0.02084
0.0160957
0.0115271
0.00499937
0.0406738
0.0344207
0.0286941
0.0235452
0.0189635
0.0148283
0.0107204
0.00474241
0.041031
0.0349034
0.0292336
0.0240964
0.0194936
0.0152981
0.0110682
0.00481798
0.0477554
0.0399696
0.0329999
0.0268332
0.0214271
0.016623
0.0119297
0.00512192
0.0532484
0.0442087
0.0361574
0.0291018
0.0229959
0.0176677
0.012587
0.00536723
0.0556501
0.0460141
0.0375009
0.030072
0.0236696
0.0181181
0.0128738
0.0054928
0.0535992
0.0445308
0.0364505
0.0293555
0.0232038
0.0178323
0.0127147
0.0054633
0.0483007
0.0405264
0.0335141
0.0272777
0.0217929
0.0169163
0.0121615
0.00529619
0.0417665
0.0356036
0.0298552
0.0246206
0.019922
0.0156445
0.0113472
0.00503653
0.0418833
0.0357837
0.0301022
0.0249355
0.020286
0.0160116
0.0116413
0.00509121
0.0484756
0.0407493
0.0338075
0.0276409
0.0222105
0.0173429
0.012515
0.00540386
0.0537437
0.044839
0.036877
0.0298577
0.0237531
0.0183797
0.0131744
0.00565266
0.0561185
0.0466139
0.0382053
0.0308192
0.0244225
0.0188299
0.0134637
0.00578005
0.054147
0.0452261
0.0372249
0.0301483
0.023983
0.018557
0.0133099
0.00575277
0.0491432
0.0414069
0.0344009
0.0281398
0.0226112
0.0176584
0.0127616
0.00558696
0.0427411
0.0365889
0.0308088
0.0255231
0.0207596
0.0163895
0.0119419
0.00532377
0.0427422
0.0366074
0.0309027
0.0257244
0.0210497
0.0167121
0.012212
0.00537048
0.0492876
0.0415403
0.0345815
0.0284119
0.0229726
0.0180541
0.0131003
0.00569463
0.0544269
0.0455717
0.0376112
0.0305994
0.0245026
0.0190932
0.013769
0.00595133
0.0567324
0.0473506
0.0389464
0.0315633
0.0251742
0.019549
0.0140657
0.00608336
0.0550293
0.0460915
0.0380395
0.0309364
0.0247584
0.0192869
0.013916
0.00605748
0.0502168
0.0423733
0.0352868
0.0289777
0.023415
0.0183976
0.0133666
0.00588906
0.0438382
0.0375805
0.0317247
0.026389
0.0215763
0.017127
0.0125384
0.00561888
0.0436794
0.0374507
0.0317134
0.0265161
0.0218051
0.0173951
0.0127625
0.00564391
0.0503239
0.0424128
0.0353932
0.0292097
0.0237415
0.0187542
0.0136678
0.00598089
0.0555748
0.0464876
0.0384244
0.0313978
0.0252809
0.0198088
0.0143518
0.00624807
0.0579999
0.0483343
0.0397871
0.0323757
0.0259655
0.0202774
0.0146598
0.00638657
0.0564631
0.0471526
0.0389283
0.0317783
0.0255659
0.0200227
0.014513
0.00636166
0.0515651
0.0434265
0.0362051
0.0298463
0.0242329
0.0191323
0.0139578
0.00618859
0.0450468
0.0386044
0.0326586
0.0272688
0.0223939
0.0178529
0.0131177
0.00590946
0.0446219
0.0382955
0.0325026
0.0272631
0.0225013
0.0180142
0.0132564
0.00589097
0.0513604
0.0433096
0.0362114
0.029977
0.0244555
0.019391
0.0141774
0.0062394
0.0567175
0.0474487
0.0392772
0.0321879
0.0260145
0.0204633
0.0148759
0.0065158
0.0592545
0.0493589
0.0406766
0.0331893
0.0267149
0.0209455
0.0151946
0.0066603
0.0577623
0.0482101
0.0398431
0.0326091
0.0263274
0.0206963
0.0150499
0.00663624
0.0527794
0.0444592
0.0371209
0.0306819
0.0249944
0.0198014
0.0144886
0.00645927
0.0461988
0.0396117
0.0335671
0.0281011
0.0231491
0.0185121
0.0136379
0.00617225
0.0453828
0.0389725
0.0331363
0.0278701
0.0230764
0.0185344
0.0136769
0.0061037
0.052221
0.0440264
0.0368591
0.0305896
0.0250377
0.0199219
0.0146094
0.00646111
0.0577097
0.0482158
0.039944
0.0328098
0.0266045
0.0210029
0.0153163
0.00674372
0.0603459
0.0501679
0.041363
0.0338231
0.0273162
0.021494
0.015642
0.00689272
0.0588185
0.0490248
0.040547
0.0332582
0.0269365
0.0212491
0.0154992
0.00686962
0.0537423
0.0452634
0.0378366
0.0313435
0.0256102
0.020355
0.0149358
0.00669084
0.0470978
0.040406
0.0342901
0.028771
0.0237673
0.019062
0.0140785
0.00639821
0.0457539
0.03934
0.0335306
0.0282978
0.0235212
0.0189628
0.0140372
0.00629021
0.0526127
0.0443721
0.0372214
0.0309932
0.0254726
0.0203524
0.0149774
0.00665535
0.0581084
0.0485438
0.0402801
0.0331915
0.0270278
0.0214312
0.0156876
0.00694278
0.0607135
0.0504866
0.0416956
0.0342009
0.0277397
0.021925
0.016017
0.00709518
0.0591687
0.04936
0.0409013
0.0336543
0.02737
0.021685
0.0158766
0.00707339
0.0541823
0.0456654
0.0382427
0.0317756
0.0260633
0.0207985
0.0153145
0.00689378
0.0475695
0.0408554
0.0347413
0.0292352
0.0242363
0.0195087
0.0144538
0.00659682
0.0457416
0.0394277
0.0337369
0.028605
0.0238882
0.0193384
0.0143622
0.00646363
0.0525414
0.0443718
0.0373519
0.031253
0.02582
0.0207274
0.0153105
0.00683756
0.0580106
0.0484865
0.040351
0.033408
0.0273531
0.021801
0.0160243
0.00713136
0.0606167
0.0504279
0.0417602
0.0344133
0.0280583
0.0222941
0.0163569
0.0072876
0.0591328
0.0493516
0.0409998
0.0338845
0.0277028
0.0220617
0.0162206
0.00726788
0.054241
0.0457464
0.0384146
0.0320549
0.0264225
0.0211847
0.0156597
0.00708659
0.0476805
0.0410163
0.0349843
0.0295607
0.0246167
0.0198993
0.0147957
0.00678518
0.0454915
0.039396
0.0338963
0.0288943
0.0242387
0.019689
0.0146571
0.00662352
0.0521355
0.0441939
0.0374105
0.0314916
0.0261568
0.0210838
0.0156177
0.00700815
0.0575984
0.0482358
0.0403371
0.0336013
0.0276726
0.0221585
0.0163402
0.00731059
0.0602933
0.0502034
0.0417386
0.0345955
0.0283765
0.0226558
0.0166793
0.0074726
0.0588905
0.0491954
0.0410274
0.0340967
0.0280345
0.0224304
0.0165477
0.00745562
0.0540579
0.0456734
0.0385155
0.0323122
0.026774
0.0215586
0.0159858
0.00727196
0.0475768
0.0410443
0.0351629
0.0298602
0.0249825
0.0202725
0.0151165
0.00696576
0.0451907
0.0394044
0.0341083
0.0292087
0.0245759
0.019994
0.0148914
0.00674854
0.0514834
0.0439897
0.0375172
0.031771
0.0264961
0.0214049
0.0158688
0.00714395
0.0567541
0.047872
0.0403461
0.0338379
0.0280045
0.0224884
0.0166037
0.0074547
0.0595454
0.0498402
0.0417294
0.0348181
0.0287096
0.0229932
0.0169514
0.00762301
0.0582667
0.0489131
0.0410659
0.0343488
0.0283804
0.0227751
0.0168251
0.00760964
0.0535284
0.0455068
0.038632
0.0326022
0.0271323
0.0219045
0.0162615
0.00742536
0.0472919
0.0410385
0.0353648
0.0301824
0.0253447
0.020612
0.0153855
0.00711554
0.0449783
0.0395009
0.0343596
0.0295019
0.024842
0.0201988
0.0150218
0.0068132
0.0508232
0.0438684
0.0376887
0.0320552
0.0267811
0.0216332
0.0160171
0.00721651
0.0556786
0.0475077
0.0404045
0.0340869
0.0282912
0.0227302
0.0167647
0.00753265
0.0582887
0.0493621
0.0417289
0.0350486
0.0289952
0.0232413
0.0171194
0.00770556
0.0571421
0.0485091
0.0411003
0.0345921
0.0286734
0.0230282
0.0169968
0.00769577
0.0527458
0.0452971
0.0387587
0.0328793
0.0274328
0.0221565
0.0164313
0.0075127
0.0469277
0.0410382
0.0355776
0.0304813
0.0256411
0.0208538
0.0155474
0.00720044
0.0448808
0.0396321
0.0345618
0.0296845
0.0249673
0.0202613
0.0150306
0.00681073
0.0503177
0.043833
0.0378538
0.0322531
0.0269338
0.0217191
0.0160401
0.00721782
0.0546146
0.0471899
0.0404598
0.0342594
0.0284498
0.0228283
0.0167971
0.00753572
0.0568791
0.0488358
0.0416866
0.0351873
0.029147
0.0233412
0.0171547
0.00771007
0.055861
0.0480355
0.0410747
0.0347337
0.0288258
0.0231284
0.0170321
0.00770188
0.0518694
0.0450473
0.0388277
0.0330501
0.0275888
0.0222528
0.016462
0.00751906
0.0465217
0.0410095
0.0357235
0.0306642
0.0257877
0.0209371
0.0155675
0.00720408
0.0448986
0.0397317
0.0346439
0.0297118
0.0249425
0.0202023
0.0149558
0.00677036
0.050087
0.043869
0.0379497
0.0323136
0.0269375
0.0216784
0.0159742
0.00717739
0.0539541
0.0470397
0.0405008
0.0343179
0.0284657
0.0227994
0.0167393
0.0074958
0.0557277
0.0484533
0.0416362
0.0352151
0.029155
0.0233117
0.0170968
0.00766945
0.0547498
0.0476565
0.0410164
0.0347543
0.0288285
0.0230938
0.0169693
0.0076592
0.0512475
0.0448821
0.0388403
0.0330839
0.0275852
0.022207
0.0163887
0.00747352
0.0462704
0.0409903
0.0357713
0.0306915
0.0257671
0.0208743
0.0154801
0.00715563
0.04505
0.0398176
0.0346427
0.0296427
0.0248398
0.0200954
0.014863
0.00673626
0.0501908
0.0440078
0.038016
0.0322954
0.0268639
0.0215844
0.0158842
0.00714126
0.0538598
0.0471401
0.0405927
0.0343341
0.028418
0.0227214
0.0166579
0.00746064
0.0553306
0.0484535
0.0417089
0.0352338
0.0291139
0.0232381
0.0170176
0.00763391
0.0543265
0.0476299
0.0410715
0.0347638
0.0287771
0.0230117
0.0168833
0.00761987
0.0511261
0.0449349
0.0388862
0.0330639
0.0275094
0.0221067
0.0162897
0.00743156
0.04633
0.0410623
0.0357824
0.0306326
0.0256628
0.0207551
0.0153688
0.00711341
0.0383413
0.0321617
0.0265698
0.0216185
0.0172821
0.0134331
0.00967427
0.00427138
0.0429624
0.0352711
0.0286068
0.0228728
0.017967
0.0137335
0.00976759
0.00423929
0.0455921
0.0371582
0.0298621
0.023643
0.0183726
0.0138859
0.00977771
0.00417634
0.0455772
0.0371115
0.0297993
0.0235681
0.0182814
0.0137798
0.009668
0.0040678
0.0429492
0.0351292
0.0283637
0.0225498
0.0175672
0.013278
0.00931033
0.00389987
0.0385606
0.0318528
0.0260129
0.0209096
0.0164585
0.0125465
0.00883322
0.00372344
0.0333427
0.0281589
0.0234201
0.019138
0.0153032
0.0118335
0.00842007
0.00358674
0.0400473
0.0337991
0.0281001
0.0229949
0.0184721
0.0144127
0.0104041
0.00460909
0.0448761
0.0370713
0.0302769
0.0243664
0.0192504
0.0147831
0.0105408
0.00459489
0.0477818
0.0391405
0.0316724
0.0252404
0.0197287
0.0149839
0.0105826
0.00453735
0.0478504
0.0391845
0.0316866
0.0252222
0.019676
0.0149039
0.0104902
0.00442989
0.0451467
0.0371945
0.0302441
0.0241879
0.0189461
0.0143918
0.0101321
0.00426151
0.0407033
0.0338623
0.0278182
0.022469
0.017765
0.0136043
0.00961982
0.00407286
0.0353995
0.030048
0.0250974
0.0205845
0.01652
0.012822
0.00915744
0.0039153
0.0412178
0.0350538
0.0293216
0.0241187
0.019468
0.015257
0.0110481
0.00491309
0.0460425
0.0383991
0.0315986
0.0255877
0.0203293
0.0156914
0.0112265
0.00491554
0.048995
0.0405683
0.0331012
0.0265501
0.0208733
0.0159381
0.011298
0.00486392
0.0492044
0.0407313
0.0332025
0.0265896
0.0208593
0.0158873
0.0112318
0.0047618
0.0467056
0.0388411
0.0317947
0.0255627
0.0201281
0.0153724
0.010874
0.00459682
0.0424058
0.0355287
0.0293326
0.0237932
0.0188994
0.0145468
0.0103349
0.0043949
0.0370972
0.0316319
0.0265105
0.0218161
0.0175775
0.0137074
0.00983516
0.00422246
0.0422578
0.0361054
0.0303341
0.0250703
0.0203435
0.0160269
0.0116556
0.00521162
0.0471352
0.039539
0.032707
0.0266267
0.0212821
0.0165282
0.0118801
0.00522483
0.0501788
0.041818
0.0343095
0.0276676
0.0218847
0.0168194
0.0119815
0.00518556
0.05055
0.0421047
0.0344944
0.0277596
0.0219027
0.0167886
0.0119353
0.00508742
0.0482122
0.0402954
0.0331221
0.0267479
0.0211754
0.0162719
0.0115738
0.0049238
0.0439596
0.0369674
0.0306219
0.0249403
0.0199141
0.0154167
0.0110153
0.00470897
0.0385643
0.0329696
0.0277068
0.0228836
0.018526
0.0145283
0.0104838
0.00452221
0.0434226
0.0371597
0.0313037
0.0259831
0.0211964
0.0167875
0.012263
0.00551368
0.0485142
0.0407614
0.0338018
0.027631
0.0222095
0.0173516
0.0125327
0.00554083
0.0517936
0.0432173
0.0355251
0.0287539
0.0228715
0.0176885
0.0126674
0.00551582
0.05233
0.043613
0.0357799
0.0288902
0.0229129
0.0176721
0.0126322
0.0054227
0.0500006
0.0417945
0.0344035
0.0278777
0.0221817
0.0171483
0.012264
0.00525185
0.0456012
0.0383569
0.0318309
0.0260207
0.020884
0.0162622
0.0116861
0.00502639
0.0399812
0.0342054
0.0288073
0.0238807
0.0194279
0.0153194
0.0111127
0.00482009
0.0446959
0.0382438
0.0322925
0.0269068
0.0220474
0.017537
0.0128569
0.005807
0.0501375
0.0420544
0.0349214
0.028652
0.0231352
0.0181581
0.0131683
0.00585262
0.0537832
0.0447184