/*--------------------------------*- C++ -*----------------------------------*\
| =========                 |                                                 |
| \\      /  F ield         | OpenFOAM: The Open Source CFD Toolbox           |
|  \\    /   O peration     | Version:  plus.master.MPPICInterFoam            |
|   \\  /    A nd           | Web:      www.OpenFOAM.com                      |
|    \\/     M anipulation  |                                                 |
\*---------------------------------------------------------------------------*/
FoamFile
{
    version     2.0;
    format      ascii;
    class       volScalarField;
    location    "7.6";
    object      p;
}
// * * * * * * * * * * * * * * * * * * * * * * * * * * * * * * * * * * * * * //

dimensions      [1 -1 -2 0 0 0 0];

internalField   nonuniform List<scalar> 
11821
(
2318
2315.79
2319.34
2317.03
2319.16
2320.67
2219.71
2218.18
2216.93
2217.1
2218.2
2219.87
2221.9
2217.86
2218.3
2221.49
2219.77
2217.88
2217.82
2220.33
2217.36
2219.49
2215.13
2217.3
2218.73
2217.15
2219.12
2218.09
2221.66
2217.85
2214.92
2221.22
2216.33
2218.35
2218.18
2219.76
2220.09
2219.33
2217.13
2217.16
2219.3
2218.18
2218.16
2216.56
2216.12
2217.16
2217.92
2220.66
2220.41
2218.75
2217.2
2217.17
2218.67
2220.42
2222.23
2134.29
2134.82
2134.31
2134.71
2134.58
2133.84
2133.98
2136.31
2139.68
2138.86
2139.62
2138.79
2135.01
2133.82
2138.67
2139.74
2137.5
2136.71
2139.09
2136.27
2133.6
2139.24
2140.81
2136.8
2132.73
2139.22
2135.66
2133.09
2138.72
2140.07
2139.49
2138.93
2140.17
2136.42
2133.8
2136.05
2139.36
2140.24
2139.85
2138.2
2134.86
2133.94
2134.69
2135.09
2134.93
2134.87
2134.69
2134.14
2134.17
2052.81
2055.65
2057.14
2057.15
2055.1
2052.19
2050.3
2057.27
2064.27
2066.65
2066.96
2063.22
2055.86
2051.78
2062.09
2069.33
2070.49
2070.86
2069.08
2059.97
2053.13
2063.34
2069.25
2069.31
2070.68
2069.55
2061.02
2053.4
2061
2068.3
2069.68
2070.07
2068.75
2059.22
2052.82
2055.81
2061.98
2065.14
2065
2061.19
2054.79
2051.32
2052.22
2054.39
2055.66
2055.55
2053.96
2051.63
2049.9
1962.91
1965.3
1966.93
1966.89
1965.09
1962.73
1960.69
1965.74
1971.42
1975.04
1975.05
1970.67
1965.41
1962.28
1969.23
1979.81
1983.66
1984.78
1978.24
1968.53
1963.6
1970.29
1980.93
1982.79
1983
1979.07
1969.38
1963.92
1968.29
1977.74
1981.62
1981.97
1975.75
1967.54
1963.18
1964.66
1969.1
1972.02
1971.82
1968.41
1964.28
1961.66
1962.24
1964.11
1965.28
1965.16
1963.78
1961.88
1960.07
1863.96
1864.22
1864.11
1864.06
1864.03
1863.79
1863.29
1863.95
1863.76
1861.51
1860.96
1862.86
1863.68
1863.7
1863.86
1866.1
1862.15
1861.41
1863.09
1863.4
1864.06
1865.08
1869.39
1874.26
1873.13
1865.97
1864.46
1864.5
1865.01
1867.16
1868.28
1868
1865.3
1864.68
1864.46
1864.69
1865.21
1865.26
1864.95
1864.78
1864.52
1864.07
1864.47
1865.07
1865.37
1865.22
1864.82
1864.26
1863.5
1763.46
1762.14
1761.01
1760.71
1761.6
1762.93
1764.05
1761.86
1759.48
1757.45
1756.7
1758.45
1760.94
1763.31
1760.58
1758.77
1754.82
1753.41
1758.21
1759.08
1762.7
1761.39
1761.54
1763.23
1762.45
1759.66
1759.9
1763.08
1762.46
1761.43
1761.33
1760.03
1759.09
1761.14
1763.61
1763.7
1762.31
1761.01
1760.42
1761.23
1762.82
1764.3
1764.96
1764.45
1764.01
1763.75
1763.93
1764.48
1764.96
1669.19
1668.66
1668.37
1668.29
1668.4
1668.85
1669.7
1668.67
1669.35
1670.43
1670.9
1669.13
1668.23
1669.16
1668.52
1670.16
1672.29
1671.5
1669.96
1667.97
1668.71
1668.05
1670.41
1669.71
1667.59
1669.28
1667.18
1668.46
1668.44
1669.14
1669.76
1669.28
1668.64
1667.78
1668.82
1668.83
1668.6
1668.57
1668
1668.22
1668.29
1669.35
1669.8
1669.34
1669.06
1668.86
1669.03
1669.44
1670.06
1579.24
1580.11
1580.67
1581.12
1580.71
1579.62
1579.3
1580.31
1583.7
1585.68
1587.48
1584.95
1581.2
1579.7
1581.46
1586.52
1586.59
1588.6
1588.49
1582.68
1580
1580.62
1585.5
1578.7
1582.62
1588.49
1581.84
1579.67
1580.35
1583.63
1583.18
1584.7
1585.99
1581.49
1579.51
1579.13
1580.88
1581.6
1581.85
1581.91
1579.68
1579.1
1578.87
1579.18
1579.35
1579.5
1579.54
1579.09
1578.98
1488.56
1489.84
1490.87
1491.01
1490.2
1488.93
1488.33
1489.81
1493.68
1496.04
1496.8
1494.6
1490.81
1489.13
1491.45
1498.13
1500.81
1501.52
1498.49
1492.71
1489.91
1491.32
1496.41
1497.17
1497.08
1498.02
1492.8
1489.85
1490.49
1494.89
1496.85
1497.9
1496.58
1491.79
1489.44
1488.85
1491.14
1492.61
1492.65
1491.91
1489.39
1488.5
1488.16
1488.92
1489.51
1489.57
1489.15
1488.41
1487.94
1394.19
1394.55
1394.81
1394.09
1393.36
1393.44
1393.75
1394.6
1396.1
1395.14
1393.07
1393.43
1393.45
1393.84
1395.86
1399.37
1401.69
1398.47
1390.63
1393.73
1394.18
1396.46
1399.66
1409.35
1398.01
1390.09
1394.31
1394.25
1395.95
1399.17
1401.26
1399.53
1395.7
1394.67
1394.36
1394.95
1396.3
1397.26
1396.01
1394.94
1394.12
1394.19
1394.66
1395.16
1395.58
1395.12
1394.46
1394.23
1394.13
1297.37
1296.42
1295.76
1295.44
1296.25
1297.31
1298.45
1296.05
1294.61
1291.89
1292.12
1295.09
1296.31
1297.75
1295.13
1293.98
1291.68
1291.23
1294.66
1295.76
1297.25
1295.66
1293.87
1298.37
1292.92
1294.17
1297.16
1297.39
1296.18
1295.46
1293.29
1294.05
1295.97
1297
1297.87
1297.18
1296.35
1295.58
1295.16
1296.5
1297.28
1298.56
1298.41
1297.76
1297.32
1297.23
1297.71
1298.53
1299.24
1205.63
1205.2
1205.51
1205.68
1206.37
1206.6
1207.23
1204.94
1205.72
1206.5
1207.57
1208.4
1206.83
1206.83
1204.5
1204.93
1204.43
1205.21
1210.41
1207.6
1206.45
1204.75
1205.03
1206.51
1208.22
1210.72
1208.85
1206.6
1204.9
1206.17
1205.7
1207.41
1209.36
1207.69
1206.94
1205.39
1205.47
1206.27
1206.74
1207.33
1206.81
1207.3
1206.45
1205.85
1205.61
1205.87
1206.62
1207.19
1207.76
1118.34
1118.96
1120.21
1120.67
1119.82
1119.02
1119.01
1119.02
1122.45
1123.99
1124.57
1124.51
1120.53
1119.04
1120.08
1123.41
1122.63
1123.7
1125.45
1122.8
1118.97
1120.44
1124.13
1123.98
1124.92
1126.35
1123.47
1119.02
1119.94
1124.43
1125.59
1126.51
1126.39
1121.93
1119.23
1118.85
1120.77
1123.27
1124
1122.16
1119.83
1119.11
1118.74
1118.79
1118.97
1119.21
1119.26
1119.08
1119.16
1033.78
1035.61
1037.74
1038.22
1036.23
1034.08
1033.07
1035.89
1041.98
1045.78
1046.15
1043.37
1036.78
1033.72
1037.99
1044.39
1046.23
1046.73
1046.65
1039.96
1034.17
1038.24
1044.93
1047.21
1048.13
1047.12
1040.3
1034.15
1036.51
1043.95
1047.85
1047.54
1045.52
1037.45
1033.62
1034.07
1037.32
1040.99
1041.61
1037.98
1034.44
1032.8
1032.98
1033.78
1034.41
1034.51
1033.82
1032.82
1032.25
947.578
950.092
952.746
952.685
949.956
947.234
945.427
950.073
957.855
965.771
967.352
958.37
950.148
946.665
953.526
966.671
972.64
974.338
967.271
953.479
947.493
953.187
967.019
972.271
971.356
967.158
953.053
947.222
949.563
957.492
965.284
968.928
958.383
949.77
946.181
947.167
949.9
953.697
954.02
949.992
946.846
944.877
945.539
946.824
947.636
947.561
946.325
944.893
943.699
852.661
853.274
852.768
853.313
852.045
851.168
850.464
854.074
854.892
857.84
856.585
850.293
852.117
851.266
855.693
874.193
868.351
867.897
858.987
852.648
852.144
855.336
873.472
867.812
867.911
861.94
853.824
852.368
854.075
856.142
856.694
861.571
855.688
853.461
851.839
852.916
854.905
854.682
854.628
854.646
852.169
850.882
851.614
852.809
853.199
852.804
851.998
850.93
849.835
2323.9
2323.93
2322.84
2323.32
2323.61
2323.8
2323.9
2323.92
2320.45
2321.92
2322.79
2323.31
2323.63
2323.81
2323.9
2323.92
2320.75
2322.07
2322.87
2323.35
2323.65
2323.82
2323.9
2323.92
2321.29
2322.34
2323.02
2323.46
2323.72
2323.87
2323.93
2323.94
2321.76
2322.42
2323
2323.43
2323.71
2323.88
2323.95
2323.95
2223.58
2224.85
2225.97
2226.87
2227.56
2228.06
2228.39
2228.58
2222.71
2224.4
2225.74
2226.75
2227.48
2228.02
2228.39
2228.61
2221.98
2223.92
2225.41
2226.54
2227.38
2227.98
2228.38
2228.62
2221.63
2223.72
2225.29
2226.48
2227.35
2227.97
2228.39
2228.64
2222.17
2224.04
2225.5
2226.61
2227.43
2228.02
2228.41
2228.64
2222.89
2224.52
2225.84
2226.84
2227.57
2228.09
2228.44
2228.63
2223.76
2224.99
2226.09
2226.98
2227.66
2228.14
2228.45
2228.61
2134.18
2134.66
2135.12
2135.53
2135.88
2136.18
2136.42
2136.57
2134.02
2134.54
2135.05
2135.48
2135.85
2136.16
2136.42
2136.59
2133.83
2134.36
2134.9
2135.38
2135.78
2136.12
2136.4
2136.59
2133.61
2134.23
2134.83
2135.34
2135.76
2136.11
2136.39
2136.59
2133.92
2134.42
2134.95
2135.41
2135.8
2136.12
2136.39
2136.57
2134.12
2134.6
2135.09
2135.5
2135.86
2136.15
2136.39
2136.55
2134.32
2134.76
2135.21
2135.59
2135.91
2136.18
2136.4
2136.54
2048.68
2047.84
2047.2
2046.73
2046.41
2046.24
2046.2
2046.23
2049.6
2048.34
2047.45
2046.84
2046.45
2046.23
2046.16
2046.18
2050.3
2048.75
2047.68
2046.95
2046.48
2046.22
2046.13
2046.15
2050.45
2048.84
2047.72
2046.96
2046.47
2046.19
2046.1
2046.11
2050.13
2048.63
2047.58
2046.87
2046.41
2046.15
2046.05
2046.07
2049.3
2048.11
2047.27
2046.68
2046.3
2046.09
2046.02
2046.03
2048.39
2047.6
2047
2046.54
2046.24
2046.07
2046.02
2046.04
1958.81
1957.59
1956.59
1955.8
1955.24
1954.86
1954.68
1954.62
1959.92
1958.24
1956.94
1955.98
1955.29
1954.84
1954.61
1954.53
1960.77
1958.79
1957.27
1956.15
1955.35
1954.83
1954.56
1954.48
1961
1958.95
1957.36
1956.19
1955.36
1954.81
1954.53
1954.44
1960.52
1958.61
1957.15
1956.05
1955.27
1954.75
1954.48
1954.4
1959.51
1957.93
1956.7
1955.78
1955.11
1954.68
1954.45
1954.38
1958.38
1957.24
1956.29
1955.54
1955
1954.64
1954.46
1954.4
1862.69
1862.17
1861.73
1861.37
1861.1
1860.92
1860.83
1860.81
1863.12
1862.51
1861.96
1861.49
1861.13
1860.89
1860.77
1860.74
1863.46
1862.75
1862.1
1861.56
1861.15
1860.87
1860.72
1860.69
1863.72
1862.91
1862.2
1861.61
1861.17
1860.87
1860.72
1860.68
1863.65
1862.84
1862.15
1861.58
1861.16
1860.87
1860.72
1860.69
1863.31
1862.6
1861.98
1861.49
1861.12
1860.87
1860.74
1860.7
1862.86
1862.26
1861.76
1861.36
1861.07
1860.87
1860.76
1860.73
1764.77
1765.13
1765.42
1765.65
1765.82
1765.95
1766.05
1766.13
1764.48
1765.1
1765.47
1765.69
1765.82
1765.93
1766.03
1766.12
1764.25
1764.98
1765.4
1765.63
1765.78
1765.89
1765.99
1766.1
1764.44
1765.08
1765.45
1765.66
1765.8
1765.91
1766.01
1766.12
1764.74
1765.26
1765.57
1765.75
1765.86
1765.95
1766.05
1766.14
1765.11
1765.49
1765.72
1765.86
1765.95
1766.02
1766.1
1766.17
1765.43
1765.62
1765.77
1765.9
1765.99
1766.07
1766.14
1766.2
1670.28
1670.74
1671.15
1671.48
1671.75
1671.98
1672.16
1672.3
1670.02
1670.66
1671.13
1671.48
1671.75
1671.97
1672.17
1672.32
1669.77
1670.48
1671.01
1671.4
1671.69
1671.94
1672.15
1672.32
1669.68
1670.43
1670.98
1671.38
1671.69
1671.94
1672.15
1672.33
1669.89
1670.57
1671.08
1671.46
1671.74
1671.97
1672.17
1672.34
1670.23
1670.81
1671.25
1671.58
1671.83
1672.04
1672.21
1672.35
1670.63
1671.03
1671.38
1671.66
1671.89
1672.08
1672.24
1672.35
1579.01
1579
1579.05
1579.12
1579.21
1579.33
1579.46
1579.59
1579.24
1579.14
1579.14
1579.18
1579.25
1579.35
1579.49
1579.63
1579.38
1579.2
1579.16
1579.18
1579.24
1579.34
1579.49
1579.63
1579.27
1579.14
1579.12
1579.16
1579.23
1579.33
1579.48
1579.63
1579.16
1579.09
1579.1
1579.15
1579.22
1579.32
1579.46
1579.6
1578.99
1579.01
1579.07
1579.14
1579.22
1579.32
1579.45
1579.57
1578.91
1578.96
1579.04
1579.13
1579.22
1579.33
1579.44
1579.55
1487.68
1487.37
1487.15
1487.02
1486.96
1486.97
1487.04
1487.13
1488.22
1487.69
1487.35
1487.14
1487.03
1487.02
1487.08
1487.18
1488.66
1487.95
1487.5
1487.22
1487.07
1487.03
1487.09
1487.2
1488.67
1487.96
1487.51
1487.23
1487.08
1487.03
1487.08
1487.19
1488.4
1487.8
1487.42
1487.17
1487.04
1487
1487.05
1487.16
1487.89
1487.51
1487.25
1487.08
1486.99
1486.97
1487.02
1487.11
1487.48
1487.25
1487.09
1486.98
1486.94
1486.94
1487
1487.08
1393.74
1393.77
1393.81
1393.86
1393.93
1394.04
1394.16
1394.29
1393.94
1393.95
1393.95
1393.97
1394.01
1394.09
1394.21
1394.35
1394.15
1394.08
1394.04
1394.02
1394.04
1394.11
1394.23
1394.38
1394.23
1394.14
1394.08
1394.06
1394.07
1394.13
1394.25
1394.4
1394.27
1394.16
1394.1
1394.07
1394.08
1394.14
1394.26
1394.4
1394.15
1394.09
1394.06
1394.06
1394.09
1394.15
1394.26
1394.38
1394.01
1393.97
1393.98
1394.01
1394.06
1394.14
1394.24
1394.35
1299.15
1299.7
1300.18
1300.58
1300.92
1301.22
1301.47
1301.68
1298.93
1299.67
1300.23
1300.65
1300.97
1301.26
1301.52
1301.74
1298.77
1299.59
1300.17
1300.61
1300.96
1301.26
1301.54
1301.78
1298.85
1299.64
1300.21
1300.64
1300.99
1301.29
1301.58
1301.82
1299.12
1299.81
1300.33
1300.73
1301.06
1301.35
1301.62
1301.84
1299.45
1300.03
1300.49
1300.85
1301.15
1301.41
1301.65
1301.85
1299.75
1300.18
1300.56
1300.9
1301.18
1301.43
1301.65
1301.83
1207.64
1208.16
1208.65
1209.08
1209.45
1209.8
1210.11
1210.35
1207.49
1208.12
1208.64
1209.07
1209.44
1209.78
1210.11
1210.38
1207.37
1207.99
1208.52
1208.98
1209.38
1209.74
1210.1
1210.39
1207.44
1208.02
1208.53
1208.99
1209.39
1209.76
1210.12
1210.41
1207.61
1208.15
1208.64
1209.07
1209.46
1209.81
1210.15
1210.43
1207.84
1208.35
1208.82
1209.22
1209.57
1209.89
1210.2
1210.44
1208.12
1208.55
1208.96
1209.32
1209.64
1209.94
1210.21
1210.42
1118.87
1119.07
1119.26
1119.44
1119.64
1119.88
1120.14
1120.37
1118.8
1118.92
1119.1
1119.3
1119.52
1119.78
1120.07
1120.32
1118.72
1118.8
1118.98
1119.19
1119.43
1119.69
1120
1120.27
1118.75
1118.81
1118.97
1119.17
1119.4
1119.66
1119.96
1120.23
1118.86
1118.89
1119.03
1119.22
1119.42
1119.67
1119.96
1120.21
1118.9
1118.98
1119.12
1119.29
1119.49
1119.71
1119.97
1120.19
1119
1119.16
1119.29
1119.42
1119.57
1119.76
1119.99
1120.18
1032.08
1031.6
1031.18
1030.84
1030.63
1030.57
1030.65
1030.77
1032.25
1031.47
1030.94
1030.61
1030.44
1030.4
1030.49
1030.63
1032.33
1031.47
1030.91
1030.54
1030.34
1030.28
1030.37
1030.51
1032.3
1031.44
1030.86
1030.48
1030.26
1030.19
1030.27
1030.4
1032.07
1031.29
1030.75
1030.39
1030.18
1030.12
1030.19
1030.32
1031.7
1031.06
1030.6
1030.3
1030.12
1030.08
1030.14
1030.25
1031.42
1031.03
1030.65
1030.34
1030.15
1030.09
1030.14
1030.23
943.719
942.579
941.6
940.808
940.236
939.887
939.736
939.713
944.297
942.661
941.463
940.625
940.058
939.711
939.559
939.539
944.652
942.858
941.559
940.638
939.999
939.602
939.424
939.395
944.518
942.776
941.485
940.55
939.895
939.485
939.297
939.261
943.886
942.362
941.202
940.345
939.739
939.356
939.178
939.143
943.096
941.835
940.842
940.098
939.572
939.24
939.084
939.05
942.421
941.515
940.686
940.002
939.509
939.2
939.053
939.016
849.525
848.639
847.838
847.17
846.653
846.29
846.058
845.94
849.99
848.802
847.871
847.144
846.588
846.19
845.945
845.835
850.448
849.102
848.048
847.224
846.59
846.136
845.859
845.738
850.534
849.147
848.052
847.192
846.533
846.063
845.774
845.647
850.159
848.878
847.847
847.033
846.407
845.959
845.68
845.555
849.546
848.447
847.533
846.806
846.249
845.848
845.593
845.471
848.868
848.013
847.251
846.621
846.133
845.78
845.553
845.423
2222.54
2224.08
2225.37
2226.44
2227.28
2227.9
2228.33
2228.58
2220.8
2222.96
2224.68
2226.02
2227.02
2227.76
2228.27
2228.57
2219.49
2222
2223.99
2225.54
2226.71
2227.57
2228.17
2228.53
2218.44
2221.32
2223.53
2225.23
2226.51
2227.44
2228.08
2228.48
2218.84
2221.6
2223.73
2225.35
2226.57
2227.47
2228.09
2228.47
2220.27
2222.6
2224.4
2225.79
2226.83
2227.6
2228.14
2228.46
2222.08
2223.69
2225.06
2226.19
2227.07
2227.73
2228.19
2228.46
2134.51
2134.89
2135.32
2135.72
2136.08
2136.41
2136.7
2136.91
2134.69
2134.78
2135.19
2135.62
2136.01
2136.38
2136.72
2136.97
2135.2
2134.81
2135.07
2135.49
2135.93
2136.34
2136.73
2137.02
2134.98
2134.53
2134.84
2135.33
2135.81
2136.25
2136.67
2137
2134.95
2134.6
2134.9
2135.36
2135.81
2136.24
2136.64
2136.95
2134.51
2134.56
2134.98
2135.42
2135.84
2136.23
2136.6
2136.88
2134.1
2134.49
2134.98
2135.45
2135.86
2136.23
2136.55
2136.8
2050.09
2049.09
2048.31
2047.71
2047.31
2047.09
2047.05
2047.1
2051.87
2050.09
2048.9
2048.06
2047.53
2047.25
2047.19
2047.25
2054.08
2051.23
2049.62
2048.53
2047.84
2047.47
2047.37
2047.43
2055.08
2051.68
2049.88
2048.7
2047.94
2047.53
2047.42
2047.49
2054.57
2051.48
2049.75
2048.61
2047.88
2047.48
2047.38
2047.45
2052.46
2050.4
2049.09
2048.18
2047.6
2047.3
2047.23
2047.31
2050.3
2049.17
2048.36
2047.75
2047.34
2047.13
2047.1
2047.17
1960.3
1959.03
1957.94
1957.05
1956.39
1955.95
1955.74
1955.69
1961.89
1960.12
1958.66
1957.53
1956.71
1956.18
1955.92
1955.86
1963.66
1961.33
1959.52
1958.13
1957.12
1956.47
1956.14
1956.06
1964.55
1961.89
1959.93
1958.41
1957.31
1956.59
1956.24
1956.15
1964.07
1961.6
1959.71
1958.26
1957.21
1956.53
1956.2
1956.12
1962.43
1960.49
1958.93
1957.73
1956.87
1956.31
1956.04
1955.98
1960.72
1959.33
1958.18
1957.25
1956.56
1956.11
1955.9
1955.86
1863.99
1863.41
1862.88
1862.43
1862.09
1861.85
1861.73
1861.71
1864.41
1863.85
1863.22
1862.69
1862.27
1861.98
1861.83
1861.81
1864.8
1864.27
1863.58
1862.96
1862.46
1862.12
1861.94
1861.91
1864.87
1864.4
1863.7
1863.05
1862.52
1862.16
1861.97
1861.94
1864.32
1864.03
1863.45
1862.88
1862.41
1862.09
1861.92
1861.9
1864
1863.61
1863.09
1862.61
1862.22
1861.95
1861.82
1861.81
1863.69
1863.22
1862.75
1862.36
1862.04
1861.83
1861.73
1861.73
1765.73
1766.02
1766.2
1766.33
1766.43
1766.52
1766.6
1766.68
1765.14
1765.77
1766.1
1766.3
1766.42
1766.51
1766.6
1766.69
1764.52
1765.46
1765.94
1766.2
1766.36
1766.47
1766.58
1766.69
1764.01
1765.18
1765.74
1766.07
1766.27
1766.4
1766.53
1766.66
1763.57
1764.9
1765.56
1765.94
1766.17
1766.34
1766.48
1766.61
1764.04
1765.07
1765.62
1765.95
1766.16
1766.31
1766.45
1766.57
1764.78
1765.31
1765.67
1765.93
1766.13
1766.29
1766.42
1766.53
1670.53
1670.99
1671.36
1671.68
1671.94
1672.16
1672.34
1672.48
1669.93
1670.64
1671.15
1671.54
1671.84
1672.08
1672.29
1672.46
1669.48
1670.35
1670.94
1671.38
1671.73
1672
1672.24
1672.44
1669.21
1670.13
1670.77
1671.26
1671.63
1671.93
1672.19
1672.41
1669.31
1670.15
1670.78
1671.25
1671.61
1671.91
1672.17
1672.39
1669.58
1670.36
1670.93
1671.35
1671.67
1671.94
1672.18
1672.37
1670.07
1670.61
1671.04
1671.41
1671.71
1671.97
1672.19
1672.36
1578.77
1578.85
1578.94
1579.04
1579.14
1579.26
1579.41
1579.54
1578.8
1578.8
1578.88
1578.97
1579.08
1579.22
1579.38
1579.54
1579.14
1578.94
1578.93
1578.99
1579.08
1579.21
1579.38
1579.56
1579.25
1578.98
1578.93
1578.97
1579.05
1579.19
1579.37
1579.56
1579.58
1579.14
1579.02
1579.02
1579.09
1579.2
1579.38
1579.57
1579.22
1579.02
1578.99
1579.02
1579.1
1579.22
1579.38
1579.56
1578.94
1578.92
1578.96
1579.03
1579.12
1579.24
1579.4
1579.55
1487.6
1487.35
1487.14
1486.98
1486.9
1486.89
1486.95
1487.04
1487.99
1487.53
1487.21
1487.01
1486.9
1486.88
1486.94
1487.06
1488.71
1487.96
1487.48
1487.17
1486.99
1486.93
1486.98
1487.11
1489.05
1488.18
1487.61
1487.23
1487.02
1486.95
1487
1487.13
1489.13
1488.21
1487.63
1487.25
1487.04
1486.96
1487.01
1487.14
1488.41
1487.81
1487.39
1487.12
1486.97
1486.93
1487
1487.12
1487.86
1487.49
1487.22
1487.05
1486.95
1486.93
1487
1487.11
1394.37
1394.2
1394.08
1394.01
1393.99
1394.02
1394.1
1394.21
1394.58
1394.33
1394.14
1394.02
1393.97
1393.99
1394.07
1394.2
1395.03
1394.6
1394.29
1394.1
1394
1394
1394.08
1394.22
1395.16
1394.71
1394.35
1394.14
1394.01
1393.99
1394.08
1394.22
1394.93
1394.56
1394.26
1394.07
1393.98
1393.98
1394.07
1394.22
1394.34
1394.19
1394.04
1393.95
1393.92
1393.95
1394.05
1394.19
1394.14
1394.03
1393.94
1393.9
1393.91
1393.96
1394.06
1394.19
1299.21
1299.73
1300.14
1300.47
1300.77
1301.02
1301.25
1301.45
1298.45
1299.26
1299.83
1300.27
1300.61
1300.9
1301.16
1301.39
1297.75
1298.84
1299.55
1300.07
1300.47
1300.8
1301.09
1301.35
1297.24
1298.54
1299.34
1299.91
1300.34
1300.7
1301.03
1301.31
1297.14
1298.48
1299.29
1299.88
1300.32
1300.68
1301.01
1301.29
1297.67
1298.76
1299.47
1300
1300.4
1300.74
1301.04
1301.29
1298.52
1299.2
1299.72
1300.15
1300.51
1300.82
1301.1
1301.32
1207.17
1207.8
1208.3
1208.74
1209.12
1209.47
1209.78
1210.04
1206.39
1207.23
1207.9
1208.45
1208.91
1209.31
1209.68
1209.97
1205.73
1206.71
1207.51
1208.16
1208.7
1209.16
1209.58
1209.92
1205.31
1206.38
1207.24
1207.94
1208.54
1209.05
1209.51
1209.87
1205.32
1206.4
1207.26
1207.97
1208.55
1209.05
1209.5
1209.86
1205.82
1206.8
1207.57
1208.18
1208.69
1209.14
1209.56
1209.89
1206.55
1207.3
1207.9
1208.42
1208.86
1209.27
1209.64
1209.93
1118.65
1118.93
1119.11
1119.27
1119.45
1119.68
1119.95
1120.18
1118.41
1118.59
1118.81
1119.05
1119.3
1119.58
1119.9
1120.18
1118.47
1118.42
1118.63
1118.9
1119.19
1119.51
1119.87
1120.19
1118.43
1118.28
1118.5
1118.8
1119.12
1119.46
1119.85
1120.19
1118.37
1118.28
1118.52
1118.82
1119.13
1119.47
1119.86
1120.21
1118.2
1118.37
1118.65
1118.93
1119.23
1119.55
1119.92
1120.24
1118.22
1118.6
1118.89
1119.13
1119.38
1119.67
1120
1120.28
1031.98
1031.67
1031.29
1030.94
1030.7
1030.62
1030.69
1030.8
1032.3
1031.69
1031.21
1030.88
1030.69
1030.64
1030.73
1030.87
1033.13
1032.02
1031.4
1031
1030.78
1030.72
1030.81
1030.98
1033.71
1032.23
1031.54
1031.12
1030.87
1030.79
1030.9
1031.08
1033.68
1032.28
1031.6
1031.18
1030.93
1030.86
1030.97
1031.16
1033.03
1032.1
1031.53
1031.15
1030.94
1030.9
1031.03
1031.21
1032.23
1031.92
1031.57
1031.25
1031.04
1031
1031.1
1031.27
943.922
942.949
942.035
941.237
940.62
940.216
940.02
939.973
944.81
943.432
942.269
941.386
940.749
940.336
940.136
940.093
946.137
944.29
942.86
941.791
941.036
940.552
940.318
940.268
947.51
945.016
943.366
942.16
941.306
940.763
940.504
940.451
947.63
945.113
943.464
942.272
941.423
940.885
940.635
940.593
946.312
944.479
943.08
942.047
941.328
940.881
940.681
940.658
945.178
944.04
942.956
942.038
941.358
940.931
940.746
940.72
850.532
849.539
848.636
847.847
847.213
846.745
846.44
846.281
851.267
850
848.944
848.09
847.414
846.905
846.568
846.393
852.218
850.805
849.528
848.515
847.722
847.132
846.748
846.553
853.216
851.46
849.993
848.842
847.969
847.33
846.919
846.711
853.241
851.392
849.975
848.892
848.042
847.427
847.033
846.83
851.946
850.632
849.488
848.598
847.905
847.389
847.055
846.885
851.478
850.453
849.448
848.58
847.898
847.404
847.093
846.933
2222.2
2223.83
2225.17
2226.27
2227.14
2227.81
2228.24
2228.51
2220.91
2223.09
2224.8
2226.1
2227.08
2227.8
2228.29
2228.6
2219.97
2222.51
2224.43
2225.88
2226.96
2227.78
2228.31
2228.63
2220.14
2222.64
2224.53
2225.97
2227.05
2227.83
2228.35
2228.66
2221.09
2223.29
2225
2226.29
2227.25
2228.01
2228.43
2228.7
2222.29
2224.14
2225.57
2226.65
2227.46
2228.08
2228.48
2228.71
2223.66
2224.97
2226.08
2226.95
2227.71
2228.14
2228.48
2228.69
2134.12
2134.53
2135
2135.44
2135.84
2136.26
2136.52
2136.76
2134.03
2134.35
2134.86
2135.34
2135.78
2136.17
2136.5
2136.77
2133.72
2134.08
2134.66
2135.2
2135.69
2136.12
2136.48
2136.75
2133.85
2134.14
2134.69
2135.23
2135.71
2136.12
2136.47
2136.73
2133.98
2134.34
2134.86
2135.34
2135.77
2136.17
2136.47
2136.7
2133.96
2134.5
2135.01
2135.45
2135.87
2136.2
2136.47
2136.65
2134.25
2134.73
2135.18
2135.58
2135.98
2136.24
2136.45
2136.65
2050.26
2049.13
2048.28
2047.65
2047.24
2047.09
2046.99
2047.06
2051.73
2049.88
2048.66
2047.81
2047.28
2047.02
2046.93
2046.99
2052.49
2050.29
2048.89
2047.92
2047.29
2046.94
2046.84
2046.89
2052.44
2050.23
2048.8
2047.83
2047.19
2046.84
2046.72
2046.76
2051.45
2049.62
2048.38
2047.52
2047.02
2046.66
2046.56
2046.59
2049.97
2048.69
2047.77
2047.12
2046.71
2046.48
2046.4
2046.44
2048.8
2047.99
2047.34
2046.86
2046.55
2046.35
2046.32
2046.35
1960.69
1959.27
1958.08
1957.13
1956.44
1956.05
1955.77
1955.72
1962.2
1960.16
1958.57
1957.37
1956.52
1955.96
1955.69
1955.66
1963.17
1960.81
1958.97
1957.57
1956.58
1955.93
1955.59
1955.53
1963.14
1960.75
1958.87
1957.45
1956.44
1955.77
1955.43
1955.33
1962.05
1959.95
1958.29
1957.03
1956.2
1955.54
1955.22
1955.11
1960.46
1958.79
1957.46
1956.46
1955.75
1955.27
1955.02
1954.94
1959.02
1957.82
1956.81
1956.01
1955.43
1955.06
1954.86
1954.82
1863.66
1863.17
1862.69
1862.27
1861.95
1861.74
1861.63
1861.66
1864.03
1863.46
1862.87
1862.37
1861.96
1861.69
1861.55
1861.57
1864.2
1863.62
1862.98
1862.41
1861.95
1861.62
1861.46
1861.45
1864.16
1863.57
1862.92
1862.31
1861.84
1861.52
1861.35
1861.3
1863.86
1863.28
1862.67
1862.12
1861.7
1861.4
1861.22
1861.19
1863.39
1862.84
1862.3
1861.84
1861.52
1861.24
1861.11
1861.08
1862.9
1862.41
1861.95
1861.56
1861.27
1861.11
1861.01
1861
1764.74
1765.28
1765.64
1765.89
1766.1
1766.25
1766.37
1766.52
1764.07
1764.99
1765.51
1765.82
1766.02
1766.16
1766.28
1766.43
1763.49
1764.64
1765.3
1765.69
1765.92
1766.08
1766.21
1766.36
1763.33
1764.54
1765.23
1765.63
1765.86
1766.02
1766.16
1766.27
1763.73
1764.74
1765.33
1765.67
1765.88
1766.03
1766.14
1766.25
1764.33
1765.05
1765.48
1765.74
1765.97
1766.04
1766.18
1766.24
1764.89
1765.31
1765.57
1765.76
1765.91
1766.03
1766.17
1766.23
1670.08
1670.62
1671.04
1671.39
1671.73
1671.98
1672.19
1672.36
1669.64
1670.39
1670.94
1671.34
1671.65
1671.91
1672.13
1672.33
1669.37
1670.18
1670.79
1671.24
1671.58
1671.85
1672.09
1672.31
1669.33
1670.14
1670.76
1671.22
1671.56
1671.83
1672.07
1672.25
1669.5
1670.29
1670.88
1671.3
1671.62
1671.87
1672.09
1672.26
1669.84
1670.55
1671.05
1671.42
1671.73
1671.93
1672.22
1672.3
1670.37
1670.84
1671.21
1671.52
1671.77
1671.98
1672.18
1672.31
1578.97
1578.93
1578.95
1579.01
1579.14
1579.24
1579.4
1579.55
1579.3
1579.11
1579.06
1579.08
1579.14
1579.25
1579.41
1579.57
1579.56
1579.23
1579.13
1579.1
1579.14
1579.24
1579.41
1579.57
1579.76
1579.35
1579.18
1579.13
1579.15
1579.23
1579.37
1579.53
1579.62
1579.3
1579.17
1579.15
1579.17
1579.25
1579.38
1579.53
1579.23
1579.12
1579.1
1579.11
1579.17
1579.25
1579.45
1579.54
1579.07
1579.07
1579.09
1579.13
1579.2
1579.35
1579.44
1579.58
1487.87
1487.49
1487.2
1487.02
1486.93
1486.93
1487
1487.11
1488.55
1487.88
1487.45
1487.16
1487.01
1486.97
1487.04
1487.15
1489.11
1488.24
1487.66
1487.28
1487.06
1486.97
1487.07
1487.14
1489.21
1488.31
1487.69
1487.29
1487.06
1486.96
1486.99
1487.1
1488.8
1488.05
1487.53
1487.21
1487.01
1486.94
1486.97
1487.08
1488.16
1487.65
1487.3
1487.07
1486.94
1486.93
1487
1487.09
1487.74
1487.42
1487.19
1487.03
1486.94
1487.01
1487.01
1487.12
1394.1
1393.98
1393.9
1393.87
1393.89
1393.98
1394.07
1394.2
1394.32
1394.15
1394.02
1393.94
1393.93
1393.97
1394.13
1394.22
1394.49
1394.26
1394.08
1393.97
1393.93
1393.96
1394.13
1394.22
1394.15
1394.1
1393.99
1393.91
1393.89
1393.93
1394.03
1394.18
1393.75
1393.87
1393.86
1393.85
1393.86
1393.92
1394.03
1394.18
1393.73
1393.79
1393.81
1393.83
1393.86
1393.98
1394.1
1394.24
1393.83
1393.82
1393.82
1393.85
1393.9
1394.05
1394.13
1394.27
1298.49
1299.18
1299.72
1300.16
1300.52
1300.87
1301.12
1301.34
1297.89
1298.9
1299.59
1300.1
1300.5
1300.82
1301.2
1301.37
1297.4
1298.62
1299.4
1299.99
1300.43
1300.79
1301.12
1301.37
1297.24
1298.56
1299.38
1299.98
1300.43
1300.8
1301.12
1301.4
1297.82
1298.88
1299.6
1300.14
1300.55
1300.89
1301.21
1301.47
1298.54
1299.33
1299.92
1300.37
1300.72
1301.08
1301.36
1301.59
1299.22
1299.75
1300.18
1300.55
1300.87
1301.19
1301.42
1301.62
1206.55
1207.29
1207.91
1208.43
1208.88
1209.33
1209.68
1209.96
1206.07
1207.01
1207.75
1208.34
1208.84
1209.27
1209.75
1209.99
1205.89
1206.82
1207.58
1208.23
1208.77
1209.24
1209.66
1210
1206
1206.88
1207.64
1208.28
1208.81
1209.28
1209.71
1210.07
1206.68
1207.35
1207.97
1208.51
1208.98
1209.41
1209.85
1210.17
1207.17
1207.8
1208.34
1208.81
1209.21
1209.65
1209.98
1210.27
1207.68
1208.22
1208.66
1209.05
1209.42
1209.77
1210.08
1210.4
1118.19
1118.54
1118.84
1119.1
1119.37
1119.72
1120.01
1120.3
1118.18
1118.4
1118.7
1118.99
1119.29
1119.61
1120.05
1120.3
1118.29
1118.31
1118.59
1118.9
1119.22
1119.56
1119.94
1120.28
1118.46
1118.38
1118.63
1118.94
1119.25
1119.59
1119.97
1120.31
1118.65
1118.62
1118.82
1119.07
1119.35
1119.66
1120.05
1120.34
1118.64
1118.81
1119.01
1119.24
1119.48
1119.78
1120.09
1120.39
1118.88
1119.13
1119.31
1119.47
1119.67
1119.91
1120.19
1120.49
1032.23
1031.86
1031.51
1031.21
1031.02
1031.04
1031.1
1031.26
1033
1032.09
1031.53
1031.15
1030.94
1030.91
1031.1
1031.22
1033.67
1032.31
1031.62
1031.17
1030.92
1030.84
1030.97
1031.15
1033.85
1032.37
1031.65
1031.18
1030.91
1030.82
1030.92
1031.1
1033.25
1032.14
1031.49
1031.06
1030.8
1030.73
1030.83
1030.99
1032.45
1031.76
1031.25
1030.9
1030.7
1030.68
1030.76
1030.98
1032.1
1031.72
1031.32
1030.98
1030.76
1030.7
1030.78
1030.95
945.2
943.968
942.888
941.985
941.323
940.958
940.722
940.696
946.527
944.548
943.088
942.027
941.291
940.845
940.679
940.608
947.602
945.149
943.42
942.163
941.298
940.754
940.536
940.481
947.63
945.142
943.376
942.098
941.21
940.653
940.39
940.346
946.346
944.336
942.807
941.688
940.903
940.404
940.172
940.172
944.867
943.309
942.095
941.2
940.563
940.177
939.985
940.018
943.839
942.777
941.824
941.023
940.429
940.069
939.891
939.869
851.382
850.298
849.312
848.474
847.827
847.38
847.053
846.879
851.97
850.511
849.348
848.454
847.762
847.301
846.938
846.784
852.167
850.742
849.52
848.547
847.758
847.204
846.832
846.658
851.843
850.571
849.376
848.412
847.633
847.06
846.697
846.502
850.968
849.895
848.869
848.018
847.329
846.815
846.485
846.388
850.221
849.223
848.349
847.613
847.018
846.585
846.321
846.201
849.615
848.809
848.048
847.365
846.815
846.423
846.254
846.089
2321.9
2322.57
2323.11
2323.53
2323.8
2323.96
2324.03
2324.04
2321.22
2322.41
2323.15
2323.61
2323.9
2324.07
2324.13
2324.16
2320.39
2322.04
2323
2323.57
2323.93
2324.14
2324.24
2324.31
2319.7
2321.72
2322.84
2323.5
2323.91
2324.15
2324.27
2324.35
2322.86
2323.5
2323.91
2324.15
2324.29
2324.35
2324.19
2324.28
2223.8
2225.06
2226.15
2227.03
2227.7
2228.17
2228.48
2228.64
2222.69
2224.4
2225.78
2226.82
2227.59
2228.15
2228.5
2228.7
2221.66
2223.75
2225.33
2226.55
2227.44
2228.08
2228.49
2228.81
2220.71
2223.16
2224.95
2226.29
2227.28
2227.97
2228.44
2228.75
2220.7
2223.1
2224.88
2226.22
2227.2
2227.9
2228.38
2228.66
2221.61
2223.61
2225.18
2226.37
2227.23
2227.87
2228.35
2228.61
2222.53
2224.07
2225.4
2226.48
2227.3
2227.89
2228.3
2228.53
2134.38
2134.84
2135.27
2135.65
2135.96
2136.22
2136.43
2136.58
2134.23
2134.7
2135.17
2135.59
2135.96
2136.23
2136.47
2136.64
2134.37
2134.68
2135.13
2135.57
2135.94
2136.28
2136.53
2136.73
2134.36
2134.61
2135.07
2135.52
2135.92
2136.27
2136.56
2136.81
2134.39
2134.63
2135.08
2135.55
2135.92
2136.26
2136.56
2136.78
2134.52
2134.8
2135.23
2135.63
2136
2136.32
2136.6
2136.81
2134.52
2134.87
2135.29
2135.68
2136.04
2136.36
2136.64
2136.84
2048.45
2047.69
2047.08
2046.63
2046.32
2046.13
2046.08
2046.1
2049.56
2048.37
2047.51
2046.9
2046.53
2046.27
2046.18
2046.2
2050.89
2049.23
2048.09
2047.3
2046.78
2046.48
2046.37
2046.38
2051.75
2049.8
2048.49
2047.59
2047
2046.67
2046.54
2046.54
2051.83
2049.88
2048.58