/*--------------------------------*- C++ -*----------------------------------*\
| =========                 |                                                 |
| \\      /  F ield         | OpenFOAM: The Open Source CFD Toolbox           |
|  \\    /   O peration     | Version:  plus.master.MPPICInterFoam            |
|   \\  /    A nd           | Web:      www.OpenFOAM.com                      |
|    \\/     M anipulation  |                                                 |
\*---------------------------------------------------------------------------*/
FoamFile
{
    version     2.0;
    format      ascii;
    class       vectorField;
    location    "8/lagrangian/kinematicCloud";
    object      U;
}
// * * * * * * * * * * * * * * * * * * * * * * * * * * * * * * * * * * * * * //


93440
(
(-0.000578901 -0.00339875 -0.00177983)
(-0.000625022 0.000145632 0.000154355)
(-9.78782e-05 0.000147413 -0.00331889)
(-0.00020049 0.000522348 -0.00102496)
(-0.000586377 7.48533e-05 0.000248016)
(0.000150456 0.000180743 0.00105822)
(-0.000471417 0.000117105 0.000400082)
(-0.000411949 7.78861e-05 -0.000821594)
(-0.000663874 -0.000274089 0.00014263)
(-0.000108487 -6.7039e-07 0.00062116)
(-0.000555923 9.01803e-05 -0.00109892)
(-0.000778572 0.000167574 -0.00125277)
(0.000499648 0.000908284 -0.00302222)
(-0.000508166 0.000437274 -0.00408285)
(-0.000132222 3.34095e-05 0.000374539)
(0.000793485 -0.000139376 -0.000637732)
(-0.000653531 -0.00238409 0.000473931)
(0.000196388 -0.00042114 0.000575563)
(-0.00187615 -0.000444418 -0.00146261)
(-0.000559446 -3.09814e-05 -0.00287892)
(0.000369952 0.000238152 0.00292585)
(-0.000119769 0.000276939 -0.00256695)
(0.000199833 0.000412754 -0.000362059)
(-0.00117792 0.00570522 0.000516302)
(-0.000648354 0.000134254 0.000279105)
(0.000272571 0.000276063 -0.000297194)
(0.00020617 -0.000240232 -0.00508174)
(1.28593e-05 -8.73124e-05 0.00055297)
(-0.00274877 0.0061415 -0.00415035)
(-0.000919783 1.89766e-05 0.000949788)
(6.28091e-05 0.00073725 -0.00364693)
(-0.00114813 0.000102424 -0.00479743)
(0.000466288 -0.000449265 0.00306551)
(0.000158358 -0.000219561 0.0067614)
(-0.00112172 -0.000122426 0.000323566)
(-0.000520801 0.000272796 -0.00473004)
(-0.000134492 -0.000142838 8.36264e-05)
(-0.000104401 5.00092e-06 -0.00217652)
(0.000963708 -0.000121353 -0.000330219)
(-0.000204295 8.06243e-05 0.000203889)
(-0.000959442 0.000491035 -0.000113229)
(0.00026497 0.000535342 -0.000368332)
(-0.000483839 -0.000718994 -0.00166312)
(3.04589e-05 -0.000225431 -0.00080842)
(0.000288343 -0.000146325 -0.00725253)
(-0.000629305 -2.86588e-05 -0.000579294)
(-0.000662691 -0.000401712 -0.0143661)
(-0.000300953 -7.36698e-05 -0.00128485)
(0.000286364 0.000561657 0.000372147)
(0.000356301 -0.000581143 0.000358379)
(-0.000827971 -5.32558e-05 0.000377965)
(0.00029954 -0.000421302 -0.0014385)
(-0.00098566 0.000162373 0.000234466)
(-0.000237166 -4.25556e-05 0.000365611)
(-0.000941771 1.51272e-05 0.00111647)
(-0.000270045 -5.887e-05 0.000506574)
(-0.000306597 0.000297682 -0.0015589)
(-0.00108074 0.00317678 -3.82872e-05)
(0.000362289 -0.000294329 0.000465127)
(-0.000607867 -0.00016394 0.00039456)
(-0.000974648 -7.20668e-05 -0.00177581)
(-0.000899709 7.16365e-05 0.000355346)
(-0.000937652 0.000168839 -0.00243337)
(0.000439102 -0.000368979 -0.00244849)
(-0.000987132 -0.000897039 -0.00345616)
(0.000295433 0.000630375 0.00207474)
(-1.85715e-05 -2.10383e-05 0.000134723)
(-0.0099538 -0.00935901 0.000748468)
(7.24028e-05 0.000124396 0.000355288)
(-0.000676841 -4.71026e-05 -0.00214565)
(-0.000868075 0.000116865 -0.000356529)
(-0.000586198 0.000380146 -0.00469972)
(-0.000769194 -0.00031563 0.00327786)
(-0.000725852 -0.000438639 -0.00282036)
(-0.000995097 -0.000248 0.000355519)
(1.02797e-05 0.000203712 -0.00257231)
(-8.14044e-05 6.75428e-05 0.00560058)
(-0.00383957 0.000118194 -0.00189722)
(-0.00094264 -0.000590327 0.000980893)
(-0.000428866 -0.000226857 -0.00103323)
(-0.000964599 6.08557e-05 0.00295067)
(0.000584796 0.00040979 0.000332772)
(0.000459673 -0.000488215 0.000255838)
(-0.000610258 -2.60434e-05 0.00043424)
(9.21042e-05 -9.7285e-05 0.00446856)
(-0.00138094 -0.00115928 0.000386451)
(-0.000915336 0.000465745 0.000318743)
(-0.000102051 9.7268e-05 0.000663986)
(-0.000478674 -0.000495927 -0.000856344)
(-0.0010123 -0.00106403 -0.00392047)
(9.08969e-05 -3.99049e-05 0.000333769)
(-0.00114276 0.000245309 -0.0021587)
(-0.000428599 1.33476e-05 -7.93548e-05)
(-0.00128922 0.00445865 -0.000366964)
(-0.000315353 0.00024907 -0.0023775)
(0.000498915 0.000585462 3.3742e-06)
(-0.000833017 0.000193027 0.000469282)
(-0.000238239 0.000102072 -0.00143464)
(0.000530098 -0.00031221 0.000584431)
(0.00378149 0.000489868 5.06973e-05)
(0.000526678 7.88892e-05 -0.00136653)
(-0.00109913 -0.000903622 -0.000112252)
(-0.000250545 4.92914e-05 0.000374019)
(-6.93115e-05 -0.00106225 -0.00615294)
(-0.000832393 -0.000336097 0.000535328)
(0.000624271 -0.00052627 0.000430953)
(-0.000114476 0.000107035 0.0015867)
(0.00029297 -0.000178911 0.00602845)
(-0.00028551 -0.000174218 0.000206822)
(-1.6355e-05 -0.000434762 0.000385337)
(0.000349174 -0.000104438 0.000599393)
(-0.000900705 6.37e-05 0.000337604)
(-0.000267314 0.000312034 0.000369219)
(-0.000946251 0.000198377 -0.00650444)
(-0.000928662 0.000425698 0.000374458)
(-0.000701289 0.000608089 0.000318364)
(-0.00126061 -0.000269595 3.90036e-05)
(-6.21746e-05 0.000356315 -0.00143359)
(-0.00107201 -0.000374658 -0.00273903)
(-0.000687103 0.000512781 0.000321841)
(-0.000533561 2.17549e-05 0.000483872)
(-0.000255743 0.000651594 -0.000266047)
(-0.000870945 0.000383482 -0.00471254)
(0.000193481 0.000233232 0.000383343)
(-0.00107424 0.00027001 0.000192346)
(-8.3611e-05 -0.00114825 0.000335168)
(-0.00045557 0.000376894 -0.000230625)
(-0.000140597 0.000895804 -0.00289869)
(-0.000578313 0.000131618 0.000339849)
(-0.000577468 2.29243e-05 0.000317165)
(-0.000664254 0.000135132 0.000349749)
(-0.00112316 0.00044616 -0.00482235)
(-0.000325252 6.58521e-05 -0.00531358)
(-0.000663537 -8.94291e-05 0.000300741)
(-0.000836657 -0.000251169 0.000924167)
(2.5258e-05 -0.000122316 -0.00011726)
(-0.000727001 -0.000442188 0.000379466)
(-2.61293e-05 0.000398476 -0.00616447)
(-0.000107635 0.000102033 0.000418309)
(0.000296187 -0.0002345 -0.000245355)
(0.000146576 -0.000135716 0.00151409)
(-0.00171624 -4.53034e-05 -0.00250488)
(-0.00167154 0.00604563 0.000316404)
(0.0028329 -0.00065636 0.000925253)
(-0.00073889 7.74858e-05 -0.000371566)
(0.000204104 0.000291819 -0.00655033)
(0.000309506 -0.00103304 0.000337258)
(-0.000397885 -0.000438464 -0.000116884)
(-0.00156906 0.00572913 0.000308793)
(-0.000298094 0.000267654 -0.00165709)
(-0.00108644 0.000961496 -0.00197677)
(-0.00087291 4.23875e-05 0.00037362)
(-0.000611875 -0.00049188 0.00024861)
(-0.000742668 -0.000311667 0.000288779)
(-0.00114215 0.000666643 -0.0013709)
(0.00127659 0.00103885 0.000274774)
(-0.00107952 0.000431698 0.000617106)
(-0.00140597 0.00518267 0.000279999)
(-0.00101656 6.75628e-05 -0.00140975)
(-0.00133254 0.00322705 0.000192632)
(-0.000245925 0.00028971 0.000299272)
(-0.000389974 9.61045e-05 -0.00165267)
(0.000316254 -0.000434649 0.000580999)
(-0.00298599 0.00320898 0.00113166)
(-0.00405457 0.00712429 7.96534e-05)
(0.000405603 3.49794e-05 -0.00303435)
(-0.00115674 0.00322554 8.10913e-06)
(-0.000775628 0.000421463 -0.00224716)
(-0.000353993 0.00103666 -0.001917)
(-0.000668491 0.000138396 0.000388488)
(-0.00108013 0.00387913 -0.00160444)
(9.06495e-05 -0.000429379 -0.000137798)
(-0.000824712 -6.65822e-05 0.00044878)
(-0.00302179 -0.000306749 0.000155377)
(0.000251547 -0.000353363 0.000737272)
(0.000758959 0.00129563 0.00033376)
(0.00369805 0.000501872 5.34714e-05)
(7.36262e-05 0.000130728 0.000125747)
(8.6054e-05 5.01586e-05 -0.00161112)
(-0.00085098 -0.00028372 -0.00336778)
(0.00373775 -0.00202318 -0.000118209)
(0.000465084 -0.000485146 -0.00127059)
(0.000520111 -0.000547956 0.000305569)
(-0.00139382 0.00474312 0.000472091)
(-7.42553e-05 -0.000438718 0.000271743)
(-0.000893347 0.0001438 -1.66589e-05)
(-0.000722251 -0.000349936 -0.00439304)
(-0.000220549 -0.000121189 -0.00217082)
(0.00025015 8.39892e-05 0.000587907)
(-0.000186843 4.8196e-05 0.00799802)
(-0.00105311 0.00013464 -0.00227747)
(-0.000541225 -3.00633e-05 -0.0020264)
(-0.0011299 -0.000512192 -0.0027919)
(-0.000607182 0.000134866 -0.00116853)
(1.24513e-05 0.000140253 -0.00246938)
(-0.000800783 0.000695337 -0.00211855)
(-0.000180682 -7.46614e-05 -0.00587786)
(-0.000708065 -8.03338e-05 0.000304138)
(-0.000267637 -0.000581038 -0.00319521)
(-0.000645471 -0.000267192 0.000130046)
(-0.000818621 0.000193065 0.000198472)
(-7.48384e-05 -0.000423885 -0.0017011)
(-0.000598989 -0.000250291 0.000241349)
(0.000231496 -0.000285236 -0.00563674)
(0.000324129 0.000632498 0.000186901)
(-0.000512125 0.000264612 0.00103448)
(-0.00109609 0.000649499 -0.00499066)
(-9.47664e-05 0.000121583 0.000176279)
(0.00018818 0.000229903 0.000157848)
(0.000230209 0.000412937 0.00024955)
(-0.000813743 0.000707634 -0.00385627)
(-0.0011978 -2.84695e-05 -0.00289289)
(-0.000760208 -6.88448e-05 0.000390306)
(0.000243991 0.000596319 0.000313516)
(-0.000101409 6.90228e-05 -0.00215863)
(0.00035682 -0.00044798 -0.00533686)
(-2.41578e-05 5.29884e-05 0.00500869)
(0.000441798 0.000802108 0.000424434)
(-0.000519842 -0.000498373 -0.00665496)
(0.000459428 4.17213e-05 -0.00392208)
(-0.000879279 -0.00033553 -0.00275887)
(7.9062e-05 0.000164923 -0.00534051)
(-0.000150229 0.000630152 -0.00615156)
(-0.000682974 0.000294576 0.000249124)
(0.000678521 -0.00056571 6.86539e-06)
(0.00396755 0.000526225 0.000120043)
(-9.57712e-05 0.000266173 -0.00252043)
(0.000194579 0.000367416 0.00142851)
(-0.00126427 -0.000273712 0.000572109)
(0.000473386 -0.000486771 -0.00597057)
(-0.000226131 -0.00049944 0.00319698)
(-0.000781109 -5.03608e-05 0.000306197)
(-0.00010852 -0.000430338 0.000352092)
(-0.000558211 0.00328553 -0.00120469)
(0.00344372 0.000350669 -0.00125553)
(-0.000714119 -0.000234118 0.000486627)
(-0.000535946 2.26319e-07 0.00418241)
(-0.000600462 -0.000670457 -0.00263675)
(-0.000723324 -8.139e-05 -0.00076926)
(-0.000252533 -0.000541907 0.00490496)
(0.000214576 -0.00109228 0.000258413)
(-0.000959572 -0.000367261 -0.00296359)
(0.000323332 0.00064498 -0.00135442)
(-4.57619e-05 -0.000619158 0.00313387)
(3.12792e-05 -0.000190258 0.000420445)
(0.000381316 -0.00031293 0.000300641)
(-0.00100879 0.000115489 -0.00130773)
(0.000410379 -0.000344407 -0.00129536)
(0.000197703 0.000236642 0.000378643)
(-0.000836307 0.000806962 -0.00552132)
(0.00380247 -0.0001887 -0.00138608)
(-1.69786e-06 8.15556e-05 0.00529475)
(0.000439769 0.00134597 0.000567044)
(0.000305966 -0.000419049 -0.000945073)
(-7.65043e-05 0.00021677 -0.00175147)
(0.000700644 -0.000583156 0.000536358)
(0.000440513 -0.000625853 -0.00412735)
(-0.000422644 -6.72671e-05 -0.00242986)
(-0.000685514 0.000304367 0.000319202)
(0.000780448 -0.00063492 0.000619786)
(0.00015796 8.02156e-05 0.00136979)
(0.00202442 -0.000961461 0.000322338)
(-0.00141874 0.00500919 0.00132078)
(-0.000160685 3.74647e-05 -0.000135098)
(-0.000385743 -0.000389832 -0.000447517)
(-0.000118172 0.000105584 -0.00275613)
(0.000587575 -0.00105381 0.000570157)
(-0.000761512 0.000359467 0.0091472)
(0.000199002 -0.000251364 -0.00671544)
(-0.000247625 -0.000934969 0.000477684)
(0.000348372 -0.000478604 0.00018604)
(-0.000561406 2.21654e-05 0.000324395)
(-0.00162911 -0.000351797 -0.00205918)
(-0.00131991 0.000544387 -0.000533469)
(-0.000744732 -0.000453018 0.000377863)
(-0.00128477 0.0011172 0.000205247)
(-0.000104962 0.000418223 0.000357934)
(-0.00129289 8.9066e-05 0.000285929)
(0.000474926 0.000168457 -0.00172883)
(-0.000745389 0.000407265 -0.00283004)
(-0.000819444 -0.000496053 0.000206402)
(-0.000928835 1.79909e-05 -0.000246014)
(-0.000681656 -0.000276834 0.000189972)
(0.000218958 -5.9567e-06 -0.00530379)
(-0.000303121 -8.60461e-05 0.000331944)
(0.000433986 -0.000464505 5.14279e-05)
(-0.000417162 0.00367999 -0.0011981)
(0.00154138 -0.000392164 0.000378556)
(-0.00262186 0.0030901 -0.00415981)
(-0.000976997 -2.83465e-05 0.000591243)
(-0.000529052 7.65989e-05 0.00241231)
(0.000299951 -0.00017341 0.00264023)
(-0.00145831 -0.000921093 -0.00190889)
(-8.4754e-05 0.000122486 -0.00236767)
(0.000265721 -0.000154976 -0.00100214)
(-0.00037966 0.000321885 0.000261611)
(0.000131661 3.79874e-05 0.000446845)
(-0.000989186 -0.000859678 -0.000257996)
(-0.00123646 0.000537026 0.00109833)
(-3.82955e-05 0.000397722 0.000140497)
(-0.000555633 -0.000110696 -0.00277801)
(0.000484931 0.000712436 -0.000584505)
(-0.000248768 4.4985e-05 0.000206517)
(0.000644172 0.000562948 0.00029966)
(0.000549242 -0.000579271 -0.0022274)
(0.000296073 0.000554391 -0.00137544)
(0.000223702 0.000452998 5.67359e-05)
(-0.000760476 -5.98534e-05 0.00038553)
(-0.00049366 0.000209052 0.000233916)
(4.73451e-05 0.000439243 -0.00531038)
(0.000189932 0.000232771 0.000149646)
(-9.40556e-05 0.000248458 -0.00259539)
(0.000118635 -0.00030693 -0.000509287)
(-0.00085275 -0.000362031 0.00209078)
(1.39103e-05 0.000168123 0.00147138)
(-0.000872999 9.30916e-05 0.000899171)
(-0.000595096 -0.000247584 -0.000416917)
(0.000542177 -0.000318128 0.000388494)
(0.000657413 0.000494326 -0.0032784)
(-0.000667505 0.000580675 0.000207305)
(0.000487192 -0.000515432 -0.0022213)
(-0.000295371 0.000223082 0.00860464)
(0.000224626 -0.000279449 0.0019611)
(0.000586897 0.000588523 -0.00154909)
(0.000169356 -0.000218568 -0.00129991)
(0.0010518 -0.000130674 -0.000600637)
(-0.00122338 -0.000764822 -0.00146879)
(-6.44955e-06 0.000140006 -1.4155e-05)
(0.00051821 0.000927882 -0.000163491)
(-0.000352435 -7.31569e-05 0.000346062)
(0.000234651 -0.000459201 0.00037143)
(-0.000121095 0.000743303 -0.00045929)
(-0.000871628 0.00014922 0.000439462)
(9.60922e-05 -0.000446019 0.000283653)
(0.000502194 0.000584086 -0.00312749)
(-0.00400859 -0.00345125 0.000217606)
(0.000652063 -0.00124227 0.000941639)
(0.000409008 -0.00035108 -0.00279147)
(0.000176375 -0.000923908 0.000532447)
(-0.000752001 -0.000309787 0.000386296)
(-0.000247257 -0.000448268 0.000406065)
(0.000109512 -0.000102588 -0.00136721)
(-0.000531459 0.000143911 0.000367174)
(-0.000827634 0.000277981 -0.0004729)
(-0.000692093 -0.000397875 -0.00173176)
(0.000675718 0.000718815 0.00104839)
(0.000468319 -0.000492198 0.000414069)
(0.000529789 0.000596088 0.00256737)
(0.00072893 0.000720222 -0.00270691)
(0.000626674 0.00164002 -0.000180807)
(-0.000697787 -0.00022429 0.000249906)
(-0.000680698 0.000403156 0.000620135)
(0.000318863 0.000628558 0.000329446)
(-6.23535e-05 -0.000380183 0.000351889)
(-0.000307117 5.43998e-05 -0.00195669)
(0.000408527 -0.000344654 -0.00221221)
(0.00112145 -0.000117162 -0.000342609)
(-0.000131408 0.00085831 0.000336008)
(-0.00136961 5.31243e-05 0.000611863)
(-0.000467573 -0.000424924 -0.00138656)
(-0.000320097 3.61177e-05 -0.00196839)
(2.60898e-05 0.000311197 -0.00197841)
(0.000433408 -0.000676046 0.000283535)
(-0.000456571 1.77884e-05 5.92772e-05)
(-0.000112083 0.000860417 -8.46477e-05)
(0.00012775 -0.000220114 -0.00432059)
(0.000374053 9.0364e-05 0.000326718)
(0.000321226 0.000637783 0.000309309)
(-0.000154746 7.64678e-05 0.000310702)
(0.000328366 -0.000265141 0.000614301)
(-0.000944598 0.000235626 0.000407235)
(8.95271e-05 -0.000229198 0.00035449)
(-0.000500734 0.000306145 0.000634609)
(-0.000280633 0.000112337 0.000311292)
(0.000194121 0.000238229 -0.000302408)
(-0.000758206 -0.000460697 -0.00134867)
(0.00180457 -0.000462615 -0.0022079)
(-0.000245253 -0.000142433 -0.00642168)
(-0.00110552 0.000197768 0.000122464)
(-0.00113417 0.000597465 -0.0027497)
(-0.000552588 0.000155776 -0.000215659)
(-6.87931e-05 -0.000765324 0.00065041)
(0.000589191 -0.000400502 0.00019478)
(-0.000698566 -6.22998e-05 0.000373054)
(-0.000683056 -1.47232e-05 -0.000238944)
(0.000199593 0.000249904 -0.00271071)
(-0.000375503 0.000325862 0.000520144)
(-0.000228179 -0.000425399 0.00190421)
(-0.000591602 0.000193459 -0.003222)
(0.000284421 0.000567859 0.000405046)
(-9.32817e-05 0.000678151 0.000814585)
(-0.000636367 -5.00708e-05 -0.000960756)
(-0.000910234 -0.000556746 -0.0022511)
(0.000371249 -0.000300725 -0.00218443)
(0.00353053 -0.00092682 -0.0011394)
(0.00018088 0.000405046 0.00123073)
(0.000592512 -0.000545037 0.000292199)
(-0.000170243 5.80594e-06 -0.00339257)
(-0.00085903 0.00208301 0.00153897)
(0.000352698 0.000689942 0.000268569)
(-0.000763815 -0.000310024 -0.00108828)
(-0.000798466 0.000169302 5.99128e-05)
(0.000383366 -1.13419e-05 -0.00221987)
(-0.00172257 0.000881547 -0.00118103)
(-0.00105963 5.95935e-05 0.000106182)
(0.000164967 0.000353525 -0.00100035)
(0.00220898 0.00180823 0.000224889)
(0.000573526 4.59323e-05 -0.00321308)
(-0.000931776 -2.2405e-05 -0.00593829)
(-7.26414e-05 -0.000450115 4.29847e-05)
(0.000569845 -0.000762077 -0.00416403)
(-0.00135597 -0.000880391 -0.00123301)
(-0.000312765 0.00198933 -0.0145591)
(0.000185621 -0.000386136 0.00138031)
(0.000514738 0.000325062 0.000397407)
(-8.52032e-05 -0.000346797 -0.000413857)
(-0.001537 0.0054943 0.00311148)
(0.000313348 -0.000182244 0.00014919)
(-0.000155865 0.000126368 -0.000326748)
(9.68808e-05 8.94127e-05 0.00047868)
(0.000457319 -0.000710678 0.000365187)
(-0.000718667 -0.000471146 0.000319698)
(0.000361566 0.000701749 -0.00279545)
(-0.000314645 -0.00335879 -0.000997047)
(-0.000207348 0.000239392 -0.00153606)
(-0.000615909 0.000221003 -0.00376118)
(-0.000509674 -0.000243555 -0.000708555)
(-0.000475065 0.000132447 0.00060844)
(0.000325855 0.000595069 -0.00381379)
(0.000133506 0.000453699 0.000264288)
(-0.000215363 8.03521e-05 0.000273978)
(-0.000827829 -0.000506602 0.00349826)
(-0.000615412 0.000189016 4.40208e-05)
(0.000410342 -0.000121456 0.000310084)
(6.71966e-05 0.000127029 0.0021854)
(-0.0001184 -0.000125568 0.00242591)
(-0.000287572 0.000819951 -0.000125294)
(0.000504834 -0.000538066 0.000684302)
(-0.000216545 8.29692e-05 -0.00299944)
(1.13506e-07 0.000934761 -0.00632484)
(-0.000316376 4.73285e-05 0.000602801)
(9.67916e-05 -7.9891e-05 0.00520849)
(-0.00077077 0.000671225 -0.000326697)
(-0.000357413 0.000233422 -0.00167888)
(-0.00158053 0.00548965 -5.92784e-05)
(-6.86226e-05 0.00349624 -0.00102703)
(0.00350054 0.000287823 -0.00751806)
(0.000109221 -0.000276734 0.000453766)
(0.00161271 -0.000415675 -0.000760444)
(-0.000234155 0.000105143 -0.00492511)
(-0.00125465 0.00328672 -0.00123764)
(-0.000510163 5.38592e-06 0.00516409)
(-4.88738e-05 -0.000249674 -0.000341975)
(-0.000669408 -0.000403719 0.000330502)
(-0.00106957 0.000410361 -0.000235181)
(0.000732298 0.00124886 0.00025686)
(-0.000973907 -0.000251644 0.000280148)
(-0.000582439 0.000306633 -0.00322925)
(-0.00460698 0.00120892 -0.00263198)
(-0.000548268 -4.01847e-05 0.000220337)
(-0.00073876 0.000417251 -0.000694688)
(-0.000457443 0.000263577 0.000367835)
(-0.00281793 -0.000213413 -0.0011201)
(-0.000385305 0.00202962 0.000380261)
(-0.000754217 -0.000395329 0.00039777)
(-0.000748617 -0.000325048 -0.000209785)
(-4.99595e-05 0.000450809 -0.00390744)
(-0.00109427 0.000105432 -0.001467)
(-0.000176168 0.000842851 -0.00134396)
(-0.00258259 0.00604605 0.000822496)
(0.000164027 0.000199755 0.000546607)
(-0.000105659 0.000693168 -0.00235779)
(0.000502307 0.000580955 -0.0061634)
(0.000691085 0.000683455 0.000369646)
(-1.68387e-05 7.02291e-05 0.000310872)
(-1.62529e-05 -0.000445589 0.000392685)
(-0.00098001 -0.000663032 0.000454657)
(7.56741e-05 -5.6742e-05 0.000357993)
(-0.000701479 5.56364e-05 -0.00180939)
(0.000318201 -0.000537071 -0.000158956)
(-0.000389962 -1.35598e-05 0.00064407)
(0.000464923 -0.000253362 -0.00191348)
(0.000506862 -0.000530194 0.000310632)
(-0.000843404 0.000504382 -0.00292105)
(-0.00115005 0.000109655 0.000556781)
(-0.000258409 0.000103416 0.000364818)
(-0.000725697 0.000241577 0.00165459)
(-0.000551156 2.15963e-05 0.000451254)
(-0.000839627 -1.30077e-05 0.000339305)
(0.000190039 -0.000190384 -0.00542372)
(-0.000712298 -0.000431937 0.0014866)
(-0.00103267 -0.00025583 -0.00138473)
(-0.000547552 0.0009928 0.00144627)
(0.000305163 0.000136916 0.000320939)
(-0.00040688 -0.00023179 0.000331749)
(-0.000269697 0.000308855 0.000458578)
(0.000137135 0.000517458 0.000567155)
(0.000487812 -0.000378095 0.000258415)
(-0.000501547 9.71528e-05 0.000499086)
(-0.000610733 0.000484659 -0.00170842)
(-0.000802096 0.000184479 -0.000901853)
(0.000300226 0.000596109 0.000316503)
(-0.000245441 4.96523e-05 0.00030491)
(0.000263574 0.000544366 0.00028092)
(-0.00035291 -0.00338671 -0.001635)
(0.000986122 0.000277829 -0.00673751)
(-0.000543578 0.000103885 0.000561971)
(-0.000213481 0.000158178 0.000199755)
(-0.000362179 8.16126e-05 -0.00130814)
(-0.00140642 0.000109113 -0.00648835)
(0.000349767 0.000694831 -0.00730304)
(0.000287856 0.000381359 -0.00402765)
(0.000612763 -0.00040139 -0.0024532)
(-5.34848e-05 -0.000361457 -0.000522792)
(-0.0017303 0.00611086 -0.00136976)
(-0.000112341 5.16745e-05 0.000387183)
(-0.000581549 0.000182909 -0.00173693)
(4.42023e-07 -0.000122154 -0.00237383)
(0.00379034 0.000522336 0.000115773)
(-0.000201376 6.84017e-05 0.000200988)
(0.000307133 -4.18021e-05 0.000926861)
(1.93509e-05 0.000188277 -0.00370924)
(2.48313e-05 0.000117118 -0.00283222)
(-0.0010315 0.000387299 0.00221014)
(-0.000177756 4.17365e-05 0.000575994)
(-0.00071201 -4.98528e-05 0.000156614)
(-0.000811422 0.000149171 0.000520927)
(0.000299085 -0.000117151 -0.00713755)
(-0.000155228 4.13589e-05 0.0028361)
(-0.000549341 -0.000147601 -0.00122356)
(-0.000250764 9.4638e-05 0.000148552)
(0.000258592 0.000520397 -0.00212117)
(0.000918763 -0.000399648 0.000191502)
(-0.000659807 0.000162811 0.000439487)
(-0.00066879 0.000137338 0.000362008)
(0.000789519 0.000779782 -0.000331295)
(0.00037357 -0.000574823 -0.00300892)
(-2.59863e-05 -0.00028604 -0.00315787)
(0.000448587 0.000563606 0.00428694)
(0.000354582 0.000150579 -0.00374088)
(0.000408294 0.000628198 -0.00194502)
(-0.000803846 -3.90618e-05 0.000418899)
(0.000316719 0.000614582 -0.00157601)
(-0.000938583 0.000503284 0.000417897)
(0.000120554 -0.000782565 0.000595083)
(-0.000977085 0.000563749 0.000860848)
(-0.00082534 0.00071033 0.00380598)
(-0.000201896 -0.000144821 -0.00534362)
(0.00261036 -0.000483014 0.000432658)
(-0.000268773 0.000911874 0.000607878)
(1.30625e-05 -0.000123002 0.000292355)
(0.000436439 0.000930904 -0.000660148)
(0.000676463 0.000667565 -0.0019983)
(0.000350687 -0.000278571 0.000224753)
(0.000435347 0.000522657 0.0064133)
(-0.001307 0.000523965 -0.000169185)
(-0.000788334 0.000207134 0.000353342)
(-0.00014316 0.000129304 -0.00043728)
(-0.00296965 -9.5288e-05 -0.0016289)
(-0.000200307 0.000246963 0.00011612)
(0.000783008 0.000972025 -0.00746736)
(-0.00147654 0.00185906 0.000136655)
(0.000960055 0.00129924 0.00035013)
(-0.000188389 4.9322e-05 0.000461038)
(-0.00283816 0.0016713 5.09743e-05)
(-0.000427292 9.9082e-05 0.000429788)
(0.000582457 -0.000807672 0.00397065)
(0.000219201 0.00046352 0.000481979)
(0.000906657 -0.00016452 0.0004898)
(-0.000376028 -0.000129887 -0.00051074)
(-0.000710828 -0.000292768 -0.00313126)
(0.000522723 -0.000552237 0.000334256)
(0.000617486 0.000618364 0.000198444)
(0.000643561 -0.000540462 0.000416688)
(-0.000165291 -8.24589e-05 0.00173635)
(0.000222516 0.000503046 -0.000200163)
(-0.000620084 -0.000265459 0.000606075)
(-0.000102211 0.0001494 -0.000176116)
(-0.00285143 -4.25846e-05 -0.00091682)
(0.000108088 0.000420767 0.000549679)
(0.000606377 -0.000511915 -0.00142178)
(-0.000526848 8.764e-05 2.85398e-05)
(0.000312705 0.000626616 0.000334974)
(-0.00118243 0.00329692 -0.00122471)
(0.000439857 -0.000303117 0.000257642)
(-9.18206e-05 0.000417184 -0.000168908)
(-0.000366055 0.000440008 -0.00343738)
(-9.89845e-05 -0.00041125 0.000400531)
(0.000681768 -0.000712268 -0.00572587)
(5.61836e-05 -6.14082e-05 -0.0056814)
(-5.5542e-05 0.000155107 -0.00165841)
(-0.000378076 0.000362312 -0.00124111)
(-0.00106564 0.000925903 0.000638083)
(-0.000595691 -0.000264702 -0.00109369)
(-0.000689158 6.63564e-05 0.000365391)
(-0.00032285 -0.00334397 -0.000682656)
(1.34781e-05 -1.17011e-05 0.000866203)
(7.63142e-07 4.05055e-05 0.00376604)
(0.000325605 -0.000110196 -0.000462528)
(-0.000686777 -0.000283295 0.000498071)
(0.000469675 0.000564745 -0.00269763)
(-0.0014278 -0.000311899 0.000240083)
(0.000407019 -0.000682058 0.000314666)
(-0.000773674 -0.000342868 -5.24083e-05)
(-0.00165544 0.00432727 -0.00120467)
(-0.000550783 0.000175667 0.000921)
(0.000367692 0.000654366 -0.00658488)
(0.000362153 -0.000183781 0.000570985)
(-0.000382842 5.5816e-05 0.00395485)
(-0.000153068 0.00039225 0.00198754)
(-0.000145575 0.000118554 -0.00145348)
(0.000495931 0.000574974 -0.00701193)
(-0.000572428 4.61795e-05 0.00334807)
(-0.000676586 0.000584277 -0.00227535)
(-0.000421285 0.000127711 0.000791651)
(-0.000185461 7.05998e-05 0.000812176)
(-0.000152849 -0.000329633 -0.00239063)
(0.000376525 -0.000132545 0.000396856)
(0.000210289 0.000493017 -0.00120601)
(-0.000246086 -1.66748e-05 -0.00250275)
(0.000141785 0.000554085 0.000322414)
(-0.000950217 -0.000279343 -0.00130586)
(-0.000111167 0.000242975 -0.00287545)
(0.000288099 0.000578346 0.00162646)
(-0.000637984 -0.000171732 -0.00285929)
(-0.000991461 -0.000334863 -0.00228209)
(-0.00105152 0.000344572 -0.00726501)
(-0.00082622 -7.17585e-05 0.000370538)
(-0.000119669 6.03382e-05 -0.000312649)
(6.61369e-05 -1.12782e-05 0.000627644)
(-7.02187e-05 -0.000412346 -0.00149844)
(8.3037e-05 -0.000435214 0.000277349)
(-0.000330244 0.000442476 -0.00112865)
(0.000432365 -2.70321e-05 -0.00315278)
(0.000386835 -0.000645587 -0.00141045)
(0.0042715 0.000448083 -0.00147257)
(-0.000457407 0.000134905 0.000665003)
(-0.000296864 0.000564141 -0.00443446)
(-0.000188818 7.32832e-05 -0.00036268)
(0.000327441 -0.000461708 7.04346e-05)
(-0.000584598 2.36261e-05 0.000334964)
(-0.000862168 4.02744e-05 0.000360003)
(0.000395824 -0.000272347 -0.00166059)
(-0.000337236 0.000113242 -0.00360616)
(-0.00109911 0.000953138 -0.00206179)
(0.000378822 -0.000521164 0.000283778)
(-0.000248387 0.000286644 0.000763115)
(0.00023612 -0.000468532 -0.00130779)
(-0.000166202 0.000544064 -3.18697e-05)
(-0.000612311 0.00040723 0.000679606)
(9.35436e-05 -8.1605e-05 -0.00106318)
(0.000340459 8.06915e-05 -5.22986e-05)
(0.000803916 -0.000654675 0.000144195)
(7.51269e-06 6.8909e-05 0.00211684)
(0.00012687 -0.000476801 -0.00285718)
(-6.8418e-05 -0.000444363 -4.36053e-05)
(-0.000937556 0.000190158 -0.00240932)
(-0.000904947 0.000227368 0.000365941)
(-0.000560558 7.90914e-05 0.00025924)
(-0.000684751 0.000140227 0.00122336)
(0.000323988 -0.000261183 0.000600083)
(-9.95245e-06 0.000249306 0.00605953)
(-2.04652e-05 0.000366151 -0.00283394)
(0.000453102 -0.000480086 0.000189231)
(-0.000259478 4.61902e-05 -0.00591815)
(0.000524871 -0.000444657 0.00134503)
(0.000109277 0.000131565 -0.00282786)
(-0.000155814 7.83225e-05 -0.0020083)
(0.000362986 0.000709768 -0.000339954)
(-0.0008717 0.000180964 0.00391036)
(-0.000486333 0.00307724 -0.000602016)
(-0.000815618 -0.000275996 -0.00192423)
(-0.000129379 0.000121439 0.00034789)
(-0.000531367 0.000132125 0.000458943)
(-0.00065022 2.17832e-05 0.000401103)
(2.12648e-05 -0.000128847 0.000268552)
(0.000445325 -7.86695e-05 0.000445464)
(0.00337418 -0.000268236 -0.001502)
(-0.000151023 6.16876e-05 0.00894262)
(-0.000498985 4.03687e-05 0.000224816)
(-0.000435196 -0.000189328 0.00318963)
(-0.000560832 0.000244495 0.00054024)
(-0.000235099 0.000278068 0.000292191)
(0.000272244 0.000560854 0.000377745)
(0.000102096 0.000313309 -0.00700539)
(-0.000803898 0.000511681 -0.00423146)
(-0.000430264 0.0003442 0.000384134)
(-8.07745e-05 -0.000486807 0.000272834)
(-0.000762779 -0.00035396 0.000381156)
(-0.000911665 0.000199018 0.000365803)
(-0.000919208 0.000354405 0.000444407)
(0.000335303 0.000656491 0.000149657)
(6.34387e-05 -0.00036904 -0.00170301)
(0.000132181 -9.62184e-05 0.00409526)
(-0.000525861 0.000216098 -0.00430716)
(-0.000235149 -1.47992e-05 -0.00206044)
(-0.0002855 0.000516874 -0.00488085)
(-0.00116027 0.0031846 4.35518e-05)
(0.000222833 -0.000451561 0.000283502)
(-0.0007646 0.000161284 8.5178e-05)
(0.00116273 0.00063854 -0.000390231)
(-0.000106977 -0.000607593 -0.00123568)
(-0.000826581 0.000429976 0.000322184)
(0.000527321 -0.000752623 0.00402957)
(2.23766e-05 -0.000117934 -0.000507324)
(0.000610097 5.0925e-05 0.000341305)
(-0.000721266 5.38684e-05 -0.000169933)
(-0.00163155 -2.05033e-05 0.000373671)
(-0.000596773 0.000517984 0.000128604)
(0.00098965 -0.000219123 -0.000771535)
(0.000634301 0.000630764 0.000590362)
(-2.48928e-05 -3.03349e-06 0.00246922)
(-0.00101272 -5.73693e-05 -0.00266159)
(-0.000899177 -3.9555e-05 -0.0028832)
(-2.20719e-05 -1.50613e-05 0.000306133)
(-0.000955817 -0.000314023 -0.00317347)
(0.000392822 0.000709958 0.000314253)
(0.000268642 0.000553031 0.000112124)
(0.000240904 0.000292556 -0.00196284)
(-0.000131676 0.000111956 0.000285383)
(-0.00061186 0.000327519 -0.00479427)
(-0.000180154 -0.000371043 -0.00279697)
(0.000345763 -0.000279858 -0.00209218)
(-0.00108476 0.000177101 -0.00368823)
(-0.000739615 0.000401492 0.000382368)
(0.000573685 0.00098709 0.000225413)
(-0.000674049 0.00320641 -0.00134178)
(-0.000893907 7.03459e-05 0.000332619)
(-0.000599658 0.000521214 0.000128895)
(-0.000189141 0.000253736 0.0013778)
(-0.00126736 0.00162739 -0.000644671)
(-0.000113428 0.000105036 -0.000295268)
(-0.00103975 0.00248332 0.000409489)
(0.000487819 -0.000832733 -0.0013447)
(0.000199986 0.000246427 0.000383611)
(-9.97433e-05 0.000153216 0.00370781)
(0.000917503 -0.000189297 0.0035509)
(-0.000545106 0.000472854 0.000363337)
(0.000420004 -0.000452085 0.000465397)
(-0.000494548 -0.000130403 -0.00259452)
(-0.00148253 0.0051824 -0.000369081)
(-0.000350117 -8.57429e-05 -0.000630241)
(-0.00071324 0.000290386 -0.000304019)
(0.00017069 0.000207614 -3.87937e-05)
(0.000149497 -0.0008934 -0.00163493)
(0.00028699 -0.000108135 -0.00514315)
(0.000170339 -6.36356e-06 -0.00413626)
(-0.000750799 -0.000245507 -0.000302733)
(-0.00356999 0.000281648 -0.00138949)
(-0.00131192 0.000269475 0.00479814)
(-0.000573836 -5.42878e-05 0.000182335)
(0.000288096 0.00058042 0.000395835)
(-0.000140902 -0.000149658 0.000150741)
(-0.000244455 5.54431e-05 -0.00398741)
(0.00013591 -0.00035768 -0.000982865)
(-0.00109543 -0.000125387 -0.00135992)
(0.000135653 0.000166636 0.000310183)
(0.00151511 -0.000713985 0.000354256)