/*--------------------------------*- C++ -*----------------------------------*\
| =========                 |                                                 |
| \\      /  F ield         | OpenFOAM: The Open Source CFD Toolbox           |
|  \\    /   O peration     | Version:  plus.master.MPPICInterFoam            |
|   \\  /    A nd           | Web:      www.OpenFOAM.com                      |
|    \\/     M anipulation  |                                                 |
\*---------------------------------------------------------------------------*/
FoamFile
{
    version     2.0;
    format      ascii;
    class       volScalarField;
    location    "12.4";
    object      nut;
}
// * * * * * * * * * * * * * * * * * * * * * * * * * * * * * * * * * * * * * //

dimensions      [0 2 -1 0 0 0 0];

internalField   nonuniform List<scalar> 
11822
(
0.000825513
0.000862044
0.000878832
0.000878063
0.000861201
0.000830198
0.000785481
0.000877875
0.000916737
0.000932866
0.000928817
0.000907869
0.00087332
0.000827152
0.000913543
0.000956424
0.000977176
0.000969529
0.000942417
0.000903123
0.000853992
0.000932062
0.000969845
0.000994675
0.000994081
0.000961937
0.000917968
0.000866206
0.000958975
0.000960011
0.000972879
0.000994791
0.000962069
0.000915912
0.000862969
0.000907105
0.000938401
0.000965003
0.000970335
0.000939175
0.000895218
0.000843386
0.000845849
0.000894236
0.000917378
0.000917555
0.000894642
0.000856491
0.000806333
0.000831474
0.000868247
0.000884922
0.000884009
0.000866998
0.000835777
0.000790733
0.000885374
0.000924637
0.00093963
0.000934807
0.000913628
0.000878966
0.000832584
0.000926655
0.00096745
0.000986733
0.000976132
0.000948087
0.000908708
0.000859485
0.000942474
0.000970736
0.00100971
0.00100209
0.000967603
0.000923392
0.000871675
0.000966082
0.000989767
0.000999618
0.0010006
0.000967495
0.000921096
0.000868357
0.000924798
0.000948144
0.00097388
0.000977142
0.000944468
0.000900385
0.000848745
0.000854304
0.00090193
0.000925259
0.00092293
0.000899543
0.000861679
0.000811663
0.000836774
0.000874068
0.000891146
0.000890397
0.000873364
0.000841912
0.000796469
0.00088606
0.000927509
0.000943918
0.000940322
0.000919811
0.000885234
0.000838607
0.000913007
0.000968081
0.000987154
0.00097901
0.00095352
0.000914914
0.000865667
0.000934033
0.00100488
0.00101938
0.00100209
0.000971945
0.000929449
0.000877939
0.000887599
0.000947472
0.00101433
0.000997742
0.000970757
0.00092695
0.000874636
0.000870178
0.000934294
0.000975629
0.000969513
0.000947286
0.000906141
0.000854983
0.000829598
0.000873366
0.000911065
0.000919967
0.000903352
0.000867586
0.000817826
0.000844878
0.000882269
0.000899217
0.000898075
0.000880445
0.000848283
0.000802179
0.000894372
0.000935536
0.000951869
0.000948459
0.000927595
0.000892256
0.000844822
0.000923439
0.000978175
0.000993939
0.000986702
0.000961848
0.000922575
0.000872388
0.000946878
0.00101242
0.00102531
0.00100902
0.000980613
0.000937653
0.000885098
0.000918193
0.000981121
0.00099884
0.00100447
0.000979411
0.000935429
0.000882043
0.000885522
0.000948535
0.000984839
0.000977567
0.000955964
0.000914547
0.000862344
0.00083139
0.000895052
0.000923285
0.000927632
0.000911934
0.00087567
0.000824859
0.000854815
0.00089232
0.000909031
0.000907352
0.00088947
0.000857728
0.000812865
0.000906248
0.00094756
0.000964097
0.000959297
0.000937187
0.000901474
0.000854671
0.00093465
0.000989377
0.00101007
0.00100113
0.000972911
0.000932152
0.000881863
0.000957529
0.00100382
0.00104393
0.00103057
0.000994214
0.000948044
0.000894552
0.000941712
0.000995566
0.00106568
0.00103809
0.000995099
0.000946526
0.00089158
0.000905928
0.000969359
0.00101313
0.00100101
0.000970381
0.000925327
0.000871725
0.000843252
0.000899857
0.000936347
0.000944641
0.000924396
0.000885688
0.000833893
0.000866742
0.000904159
0.000921372
0.00092126
0.000906443
0.000879755
0.000842232
0.000919178
0.000958979
0.000974857
0.000970716
0.000950786
0.000919185
0.00087891
0.000960114
0.00100652
0.00102316
0.00101171
0.000984651
0.00094715
0.000902559
0.000975639
0.00103801
0.00106178
0.00104131
0.00100529
0.00096161
0.000913063
0.000971307
0.00106197
0.0010926
0.00105171
0.00100702
0.000959667
0.000909019
0.000917683
0.0010011
0.00103563
0.00101948
0.000982334
0.00093849
0.000888973
0.000873062
0.000938093
0.000967267
0.000961613
0.000936586
0.000899344
0.000851771
0.000732468
0.000680488
0.000617976
0.000542243
0.000448661
0.000330114
0.000177908
1.86276e-05
0.000772688
0.000718065
0.000654483
0.000577989
0.000482844
0.000360224
0.000198264
2.10967e-05
0.00079841
0.000742727
0.000678324
0.000601126
0.000504833
0.000379558
0.000211407
2.2895e-05
0.000809829
0.000753568
0.00068866
0.000610982
0.000514032
0.000387506
0.000216712
2.37947e-05
0.000806044
0.000749715
0.000684724
0.000606907
0.000509841
0.000383434
0.000213577
2.36543e-05
0.000786758
0.000731114
0.000666531
0.000588921
0.000492308
0.000367472
0.000202209
2.24904e-05
0.000751235
0.000698164
0.000634524
0.000557371
0.000461732
0.00033996
0.000183053
2.04447e-05
0.000737355
0.000684915
0.000621801
0.00054531
0.000450819
0.000331263
0.000178119
1.86541e-05
0.000777845
0.000722798
0.000658638
0.000581382
0.000485285
0.000361564
0.000198531
2.1123e-05
0.000803696
0.00074765
0.000682705
0.000604759
0.000507495
0.000381066
0.00021175
2.2921e-05
0.000815157
0.000758593
0.000693179
0.000614769
0.000516849
0.000389144
0.000217131
2.38203e-05
0.000811357
0.000754767
0.000689294
0.000610758
0.00051273
0.000385144
0.000214055
2.3679e-05
0.00079203
0.000736116
0.00067105
0.000592726
0.000495167
0.000369183
0.000202724
2.25139e-05
0.000756396
0.000703012
0.000638864
0.000560996
0.000464442
0.000341592
0.000183577
2.04679e-05
0.000742604
0.000689631
0.000625856
0.000548551
0.0004531
0.000332533
0.000178575
1.86605e-05
0.000783461
0.000727877
0.000663052
0.000584965
0.000487857
0.000363022
0.000199045
2.11338e-05
0.000809543
0.000752978
0.000687362
0.000608567
0.000510256
0.000382643
0.000212284
2.29288e-05
0.000821153
0.000764086
0.000697987
0.000618703
0.000519704
0.000390773
0.000217655
2.38207e-05
0.000817416
0.000760335
0.000694161
0.000614727
0.000515596
0.000386771
0.000214556
2.36748e-05
0.000798039
0.000741637
0.000675863
0.00059663
0.000497967
0.000370766
0.000203202
2.25097e-05
0.000762205
0.000708336
0.000643489
0.000564728
0.00046711
0.000343108
0.000184051
2.04679e-05
0.000747801
0.000694378
0.000630059
0.000552003
0.000455527
0.000333686
0.000178419
1.87171e-05
0.000789044
0.000732947
0.000667586
0.000588784
0.000490652
0.000364465
0.000198996
2.11783e-05
0.000815473
0.000758292
0.000692094
0.000612581
0.000513252
0.000384261
0.000212335
2.29752e-05
0.000827389
0.000769596
0.000702827
0.000622774
0.000522744
0.000392446
0.000217783
2.38806e-05
0.000823829
0.00076595
0.000699018
0.000618741
0.000518549
0.000388394
0.000214739
2.37451e-05
0.000804412
0.000747204
0.000680616
0.000600476
0.000500731
0.000372263
0.000203418
2.2579e-05
0.000768271
0.000713659
0.000647988
0.00056829
0.000469596
0.000344419
0.000184273
2.05263e-05
0.000760113
0.000708068
0.000644777
0.000566804
0.000468907
0.000343958
0.000184561
1.94418e-05
0.000800318
0.000745878
0.000682042
0.00060393
0.000504854
0.000375628
0.000205665
2.20648e-05
0.000825942
0.000770281
0.000705705
0.000627167
0.000527249
0.000395437
0.000218959
2.38907e-05
0.000837345
0.000780724
0.000715353
0.000636215
0.000535726
0.000402881
0.000223897
2.46819e-05
0.000833472
0.000776359
0.000710405
0.00063071
0.000529959
0.000397495
0.000219975
2.43475e-05
0.000813766
0.000756966
0.000690865
0.000610835
0.000510291
0.000379696
0.000207554
2.29709e-05
0.000777303
0.000722775
0.000657106
0.000577036
0.000477279
0.000350136
0.000187308
2.07502e-05
0.000797601
0.000752048
0.000694134
0.000618559
0.00051762
0.000381289
0.000201202
2.34153e-05
0.000832862
0.000786417
0.000729856
0.000656293
0.000556161
0.000416576
0.000224757
2.66553e-05
0.000854457
0.000807064
0.00075059
0.000677873
0.000578374
0.000437412
0.000239109
2.87853e-05
0.000862969
0.000814177
0.000756807
0.000683818
0.000584541
0.000443675
0.000243758
2.9458e-05
0.00085734
0.000807158
0.000748346
0.000674223
0.000574691
0.000435053
0.000238193
2.85905e-05
0.000836861
0.000785762
0.000725379
0.000649658
0.00054972
0.000412563
0.000223274
2.64242e-05
0.000800435
0.000749927
0.00068811
0.000610585
0.000510297
0.000376875
0.000199508
2.33336e-05
0.000785426
0.000729355
0.000666239
0.000588647
0.00049045
0.00036234
0.000195144
2.60492e-05
0.000845812
0.000776017
0.000706226
0.00062753
0.000528308
0.000396693
0.000218771
2.96508e-05
0.000887841
0.00080748
0.000732159
0.000651613
0.000551123
0.000417268
0.00023323
3.17507e-05
0.000872932
0.000806874
0.000737492
0.000657825
0.000557316
0.00042301
0.000237424
3.19759e-05
0.000853599
0.000793399
0.000726807
0.000646997
0.000546578
0.000413178
0.000230597
3.02791e-05
0.00082192
0.000764547
0.000698587
0.000619262
0.000519672
0.000388997
0.000213979
2.71151e-05
0.0007732
0.000719676
0.000655116
0.000576484
0.000478317
0.000352233
0.000189213
2.30733e-05
0.000790089
0.00073278
0.000669948
0.000592278
0.000493446
0.000364171
0.000195613
2.60745e-05
0.000855234
0.000778864
0.000708717
0.000630677
0.000531341
0.000398794
0.000219402
2.96831e-05
0.000894605
0.000809764
0.000734047
0.000654575
0.000554269
0.000419643
0.000234072
3.1796e-05
0.000883521
0.00081241
0.000740968
0.000661546
0.000560843
0.000425581
0.000238371
3.20321e-05
0.000861665
0.000798483
0.0007314
0.00065142
0.000550407
0.000415824
0.000231586
3.03416e-05
0.000827895
0.000770003
0.000703784
0.000623954
0.00052347
0.000391485
0.000214894
2.71759e-05
0.000778951
0.000725265
0.000660281
0.000580955
0.000481798
0.000354457
0.000190052
2.31268e-05
0.000777463
0.000731427
0.000672254
0.000595581
0.00049641
0.000366039
0.000196133
2.61142e-05
0.000816683
0.000765711
0.000708112
0.000633556
0.000534841
0.000401462
0.000220443
2.97594e-05
0.000837803
0.000789428
0.000732271
0.000657589
0.00055843
0.000423137
0.000235702
3.19141e-05
0.00086251
0.000802834
0.000741795
0.000665566
0.000565438
0.000429298
0.000240133
3.21603e-05
0.000853929
0.000799236
0.000735456
0.000656466
0.000555141
0.000419341
0.00023318
3.0454e-05
0.00083079
0.000774969
0.000709357
0.000629275
0.000527909
0.000394534
0.000216187
2.72641e-05
0.000784657
0.000731233
0.000665952
0.000585909
0.000485678
0.00035698
0.000191064
2.31911e-05
0.000781481
0.000736148
0.000676829
0.00059941
0.000499052
0.000367321
0.000196268
2.6156e-05
0.000817193
0.000770737
0.00071337
0.000638214
0.000538381
0.000403494
0.000220956
2.98269e-05
0.000845791
0.000796191
0.000738529
0.000663176
0.000562922
0.000426005
0.000236704
3.20151e-05
0.000864544
0.000809079
0.000748553
0.000671718
0.000570422
0.000432582
0.000241417
3.22775e-05
0.000861397
0.000806546
0.000742515
0.000662724
0.000560065
0.000422529
0.000234432
3.05621e-05
0.000838835
0.000782547
0.000716217
0.000635063
0.000532317
0.000397324
0.00021726
2.73587e-05
0.000792288
0.000738157
0.00067198
0.000590834
0.000489318
0.000359202
0.000191874
2.32658e-05
0.000791017
0.000743987
0.000682747
0.000603583
0.000501696
0.000368608
0.000196399
2.6224e-05
0.000829774
0.000780485
0.000720824
0.000643271
0.000541405
0.000404805
0.000220938
2.98977e-05
0.000857086
0.000806871
0.000747115
0.000669148
0.000566611
0.000427712
0.000236822
3.21001e-05
0.000876438
0.000819366
0.000757578
0.000678414
0.000574918
0.000435039
0.000242022
3.23882e-05
0.000873796
0.000817387
0.000751324
0.000669511
0.000564963
0.000425542
0.000235486
3.06869e-05
0.000849656
0.000791805
0.00072401
0.000641455
0.000537268
0.000400622
0.000218612
2.74785e-05
0.000801301
0.000746076
0.000678934
0.000596778
0.000494057
0.000362405
0.000193255
2.33576e-05
0.000811466
0.000755694
0.000690947
0.000610542
0.000508486
0.00037479
0.000198665
2.70072e-05
0.000864534
0.000799653
0.000730997
0.000650192
0.000547303
0.000410073
0.000222788
3.07068e-05
0.000892363
0.000829011
0.000758457
0.000676759
0.000572886
0.000433261
0.000238933
3.29784e-05
0.000905679
0.000839284
0.000769119
0.00068699
0.000582542
0.000441965
0.000245057
3.33771e-05
0.000893249
0.000830527
0.000761817
0.000679174
0.000574623
0.000434582
0.000239795
3.18084e-05
0.000861597
0.000803013
0.000735304
0.000653371
0.000549758
0.000412106
0.000224108
2.87162e-05
0.000813551
0.000759045
0.000693064
0.000612126
0.000509875
0.000376197
0.00019956
2.4694e-05
0.000769364
0.000715311
0.000650795
0.000572587
0.000475218
0.000350313
0.000188517
2.24292e-05
0.000804116
0.000747437
0.000681882
0.000603186
0.000504994
0.000377428
0.000207744
2.44413e-05
0.000821229
0.000764079
0.000698179
0.000619295
0.000520794
0.000392084
0.000218555
2.53882e-05
0.000821627
0.000764881
0.000699276
0.00062071
0.000522561
0.000394215
0.000220625
2.51671e-05
0.000806226
0.000750374
0.000685547
0.00060773
0.000510574
0.00038403
0.000213995
2.38337e-05
0.000776732
0.000722088
0.000658309
0.000581472
0.000485825
0.00036247
0.00019945
2.15972e-05
0.00073339
0.000681472
0.0006189
0.000543041
0.000449283
0.000330508
0.000177969
1.87475e-05
0.000775106
0.000720804
0.000655866
0.000576987
0.000478656
0.000352526
0.000189362
2.24832e-05
0.00081004
0.000753129
0.000687155
0.000607791
0.000508624
0.000379787
0.000208645
2.44955e-05
0.000827177
0.000769799
0.000703452
0.000623887
0.000524401
0.000394408
0.000219412
2.54395e-05
0.000827484
0.000770468
0.000704381
0.000625108
0.000525974
0.000396367
0.000221364
2.52154e-05
0.000811894
0.000755699
0.000690353
0.000611803
0.000513668
0.000385907
0.000214552
2.38786e-05
0.000782106
0.000727055
0.000662715
0.000585127
0.000488518
0.000364016
0.000199826
2.16365e-05
0.000738358
0.000685978
0.000622809
0.000546194
0.000451526
0.000331733
0.000178227
1.87772e-05
0.000781124
0.000726826
0.000661477
0.000581804
0.000482365
0.000354895
0.0001903
2.25341e-05
0.000816384
0.000759389
0.000692922
0.000612708
0.00051239
0.000382156
0.000209544
2.45379e-05
0.00083367
0.000776068
0.000709139
0.000628688
0.000528038
0.000396646
0.000220208
2.54721e-05
0.000833894
0.000776511
0.00070979
0.000629628
0.000529353
0.000398393
0.000222025
2.52401e-05
0.000818063
0.000761396
0.000695382
0.000615957
0.000516725
0.000387688
0.000215102
2.38919e-05
0.00078791
0.000732328
0.000667311
0.000588871
0.000491226
0.00036556
0.000200312
2.16425e-05
0.000743667
0.000690744
0.000626908
0.000549472
0.000453838
0.000333029
0.000178683
1.87777e-05
0.000788517
0.000733508
0.000667222
0.000586427
0.000485708
0.000356859
0.000190958
2.25973e-05
0.000823944
0.000766182
0.000698765
0.000617432
0.000515837
0.000384182
0.000210168
2.46074e-05
0.000841041
0.000782613
0.000714757
0.000633273
0.000531413
0.000398614
0.000220726
2.55509e-05
0.000840817
0.000782631
0.000715065
0.000633977
0.000532586
0.000400262
0.000222408
2.53288e-05
0.000824394
0.000767014
0.00070029
0.000620058
0.000519797
0.000389435
0.00021536
2.39812e-05
0.000793665
0.000737505
0.000671893
0.000592719
0.000494088
0.000367142
0.000200476
2.17261e-05
0.00074891
0.000695523
0.000631134
0.000552955
0.000456316
0.000334258
0.000178625
1.88501e-05
0.00079723
0.000741416
0.000674336
0.000592623
0.000490725
0.000360287
0.000192495
2.2688e-05
0.000832851
0.000774382
0.000706388
0.000624446
0.000521874
0.000388588
0.000212288
2.47661e-05
0.000849873
0.000791031
0.000722989
0.000641257
0.000538651
0.000404162
0.00022356
2.58128e-05
0.000849608
0.000791474
0.000724221
0.00064328
0.000541332
0.000407165
0.000226103
2.57202e-05
0.000833584
0.000776822
0.000710863
0.000631064
0.000530253
0.00039774
0.000219979
2.45049e-05
0.000803886
0.000748819
0.000684242
0.000605506
0.000506055
0.000376557
0.000205881
2.2342e-05
0.000760752
0.000708578
0.000645093
0.000566957
0.000468965
0.000343945
0.00018431
1.94797e-05
0.00081069
0.00075635
0.000691048
0.00061096
0.000509527
0.000376414
0.000199873
2.4249e-05
0.00084686
0.000790878
0.000725887
0.000646804
0.000545641
0.000409707
0.000222665
2.68969e-05
0.000865171
0.000809877
0.000746031
0.000668295
0.000567787
0.000430271
0.000236694
2.85735e-05
0.000867439
0.000814032
0.000752131
0.000676065
0.000576397
0.000438148
0.000241609
2.90685e-05
0.000855645
0.000804757
0.000745022
0.000670381
0.000571186
0.000432752
0.000237067
2.82914e-05
0.000832086
0.000783637
0.0007254
0.000651092
0.000551545
0.000413667
0.000223286
2.62984e-05
0.0007967
0.000750686
0.000692404
0.000616746
0.000516073
0.000380241
0.000200555
2.32938e-05
0.000755044
0.000702284
0.000638438
0.000560762
0.000464319
0.000341503
0.000183544
2.09592e-05
0.000803412
0.000747596
0.000682388
0.000603665
0.000505188
0.000377229
0.000207268
2.46353e-05
0.000837873
0.000780097
0.000713421
0.000633586
0.000533544
0.000402034
0.000223897
2.76298e-05
0.000855597
0.000795947
0.000728481
0.000648049
0.00054727
0.000413985
0.000231814
2.94842e-05
0.000852933
0.000791745
0.000725075
0.000645063
0.000544546
0.000411389
0.000229582
2.98386e-05
0.000830372
0.000769572
0.00070399
0.000624912
0.000525319
0.000393954
0.000217136
2.8541e-05
0.00078591
0.000730599
0.000666933
0.000588828
0.000490387
0.000362339
0.000195214
2.57889e-05
0.000760339
0.000707287
0.000642936
0.000564544
0.000467178
0.000343278
0.000184207
2.09789e-05
0.000808743
0.000752875
0.000687302
0.00060793
0.000508524
0.00037938
0.000208088
2.46651e-05
0.000842823
0.000785227
0.000718458
0.000638133
0.000537214
0.000404457
0.000224817
2.76691e-05
0.000860107
0.000800463
0.000733233
0.000652596
0.000551089
0.000416601
0.000232841
2.95275e-05
0.00085793
0.000795471
0.000729252
0.000649313
0.000548272
0.000413986
0.000230569
2.98838e-05
0.000834703
0.00077285
0.000707726
0.00062876
0.000528706
0.000396286
0.000217945
2.8581e-05
0.000791144
0.000734526
0.000670818
0.000592484
0.000493427
0.000364243
0.000195749
2.58168e-05
0.000766311
0.000712789
0.000647754
0.000568463
0.000470012
0.000344921
0.000184751
2.09835e-05
0.000814903
0.000758869
0.000692775
0.00061257
0.00051205
0.000381582
0.000208918
2.46865e-05
0.000848163
0.000791181
0.000724296
0.000643329
0.00054134
0.000407163
0.000225903
2.77125e-05
0.000862194
0.000805293
0.000738889
0.000658033
0.000555635
0.000419728
0.000234177
2.95898e-05
0.000852394
0.00079776
0.000733996
0.000654518
0.000552883
0.000417257
0.000231987
2.99597e-05
0.000823383
0.000772868
0.000711275
0.000633288
0.000532878
0.000399216
0.000219134
2.8653e-05
0.000782996
0.000734424
0.000673626
0.000596117
0.000496657
0.000366335
0.00019643
2.58648e-05
0.00077269
0.000718363
0.000652459
0.000572189
0.000472634
0.000346354
0.000185095
2.10363e-05
0.000822363
0.000765471
0.000698404
0.000617096
0.000515334
0.000383519
0.000209549
2.47318e-05
0.000856411
0.000798739
0.000730865
0.000648669
0.000545256
0.000409513
0.000226716
2.77628e-05
0.000870407
0.000813369
0.00074613
0.000664017
0.000560059
0.000422416
0.000235148
2.96467e-05
0.000860756
0.000806031
0.000741354
0.000660656
0.000557449
0.000420031
0.000232983
3.00237e-05
0.000832546
0.00078072
0.000718009
0.000638855
0.000536975
0.000401635
0.000219926
2.87177e-05
0.000788437
0.000740061
0.000678795
0.000600393
0.000499663
0.000367911
0.000196761
2.59119e-05
0.000781268
0.000726679
0.000660492
0.000579676
0.000479059
0.00035102
0.000187439
2.11883e-05
0.000831376
0.000773681
0.000705968
0.000623951
0.000521155
0.00038772
0.00021156
2.48634e-05
0.000866899
0.00080766
0.000738511
0.000655174
0.000550527
0.000413181
0.000228333
2.78735e-05
0.000883503
0.000823805
0.000754396
0.0006705
0.000564912
0.000425547
0.000236356
2.97422e-05
0.000874689
0.000817373
0.000750038
0.000667075
0.000561912
0.000422651
0.00023382
3.01018e-05
0.000844889
0.000791043
0.000726025
0.000644682
0.000540888
0.000403811
0.000220509
2.87883e-05
0.000798174
0.000748309
0.000685201
0.000605039
0.000502726
0.000369531
0.000197106
2.5971e-05
0.00080139
0.000749863
0.000686736
0.000608127
0.000507385
0.000374404
0.000198179
2.33932e-05
0.000846461
0.000790938
0.000725798
0.000646196
0.000544457
0.000408282
0.000221612
2.68904e-05
0.000879429
0.000821026
0.0007534
0.000671946
0.000568633
0.00042998
0.000236942
2.96462e-05
0.000897086
0.000835836
0.00076639
0.000683368
0.000578753
0.000438703
0.000243135
3.12259e-05
0.000894238
0.000830177
0.00076076
0.000677502
0.000572701
0.000432866
0.000238874
3.13024e-05
0.000867533
0.000804186
0.00073591
0.000653545
0.00054971
0.000411983
0.000224185
2.97619e-05
0.00081577
0.000759783
0.000693925
0.000612776
0.000510322
0.000376383
0.00019977
2.67811e-05
2.42834e-05
0.000127923
0.00018474
0.000221093
0.000244001
0.000256323
0.00026004
0.000256588
2.41345e-05
0.000126675
0.000182684
0.000218675
0.000241449
0.000253739
0.000257473
0.000254087
2.42337e-05
0.000127666
0.000183625
0.000219276
0.000241552
0.000253249
0.000256349
0.000252367
2.46101e-05
0.00013101
0.000188142
0.000223977
0.000245919
0.000256991
0.000259312
0.000254511
2.52168e-05
0.000136726
0.000196309
0.000232943
0.000254834
0.000265365
0.00026684
0.000260983
2.59756e-05
0.000144245
0.00020732
0.00024514
0.000267015
0.000276849
0.000277239
0.000270071
2.68143e-05
0.000152229
0.000219883
0.000259333
0.00028135
0.000290529
0.00028985
0.000281385
2.81311e-05
0.000145139
0.000210029
0.000251429
0.000275931
0.000286984
0.000287528
0.000279982
2.79318e-05
0.000143201
0.000207073
0.000248093
0.00027252
0.000283624
0.000284267
0.000276871
2.80252e-05
0.000144303
0.000208066
0.000248672
0.000272502
0.000282872
0.000282676
0.000274445
2.84393e-05
0.000148264
0.000213311
0.000254081
0.000277485
0.000287083
0.000285905
0.000276601
2.91197e-05
0.000155182
0.000222915
0.000264501
0.000287785
0.000296725
0.000294526
0.000283912
3.00117e-05
0.000164321
0.000236075
0.000278859
0.000301943
0.000309881
0.000306213
0.0002939
3.10329e-05
0.00017396
0.000251258
0.000295711
0.000318652
0.000325486
0.000320271
0.000306356
3.33774e-05
0.000164791
0.000241715
0.000289909
0.000315817
0.000324249
0.000319842
0.000306527
3.316e-05
0.000161821
0.000237502
0.000285313
0.000311242
0.00031984
0.000315631
0.000302584
3.31938e-05
0.000162811
0.000238337
0.000285716
0.000311012
0.000318771
0.000313489
0.000299247
3.3606e-05
0.000167259
0.000244258
0.000291828
0.000316624
0.000323497
0.000317079
0.000301545
3.43148e-05
0.000175345
0.000255346
0.000303787
0.000328397
0.00033454
0.000327018
0.000309998
3.52078e-05
0.000186715
0.000270987
0.000320658
0.000344907
0.000349762
0.000340361
0.000321185
3.62946e-05
0.000199233
0.000289545
0.00034086
0.000364633
0.000367776
0.000356039
0.000334629
4.15933e-05
0.000188634
0.000283604
0.000340366
0.000366545
0.000369721
0.000357469
0.000336293
4.15379e-05
0.000184534
0.000277934
0.000334234
0.000360514
0.000363968
0.00035199
0.000331196
4.14408e-05
0.000185051
0.0002782
0.000334105
0.000359815
0.000362438
0.000349221
0.000326714
4.17788e-05
0.000189835
0.000284808
0.000340965
0.000366037
0.000367589
0.000353049
0.000329056
4.2416e-05
0.000198954
0.000297584
0.000354698
0.000379398
0.00038006
0.000364361
0.00033881
4.31303e-05
0.000212229
0.000315957
0.000374506
0.000398682
0.000397787
0.00037986
0.000351739
4.37719e-05
0.000228584
0.000338347
0.000398698
0.000422197
0.00041896
0.000397553
0.000366016
5.63356e-05
0.000223737
0.00034406
0.000409511
0.000432299
0.000424945
0.000399559
0.00036816
5.6781e-05
0.000219187
0.000337387
0.000401975
0.000424705
0.000417661
0.000392683
0.000362049
5.67295e-05
0.000219281
0.000336933
0.000400991
0.000423216
0.000415459
0.000389288
0.000356648
5.69348e-05
0.000224521
0.00034456
0.000408933
0.000430195
0.000420937
0.000393152
0.000358965
5.73349e-05
0.000234829
0.000359737
0.000425131
0.000445499
0.000434785
0.000405591
0.000369661
5.75151e-05
0.000249555
0.00038133
0.000448545
0.00046802
0.000455276
0.000423539
0.000384527
5.72842e-05
0.000267416
0.000407122
0.000476995
0.000495891
0.000480283
0.000443446
0.000399157
8.19083e-05
0.000294854
0.000442044
0.0005075
0.000516678
0.000487811
0.000442354
0.000404668
8.25911e-05
0.000290669
0.000435663
0.000499502
0.000507874
0.000479037
0.000434424
0.000398504
8.28164e-05
0.00029134
0.000435511
0.000498023
0.000505642
0.000475971
0.000430483
0.000394223
8.2985e-05
0.000297738
0.000444994
0.000507888
0.000513901
0.000481575
0.000434117
0.000396193
8.31733e-05
0.000310272
0.000464028
0.000527815
0.000531745
0.000496131
0.000447069
0.000407051
8.28425e-05
0.000327034
0.000489911
0.000556051
0.000558315
0.000520167
0.000467822
0.000422697
8.17491e-05
0.000345513
0.000518199
0.000588551
0.000590256
0.00054829
0.00048894
0.000435952
3.40603e-05
0.000221963
0.000333832
0.000397376
0.000432403
0.000447445
0.000446919
0.000433282
3.41325e-05
0.000223108
0.000335705
0.000399761
0.0004352
0.000450592
0.000450355
0.000436927
3.3809e-05
0.000220753
0.000331837
0.000395071
0.0004301
0.000445357
0.000445209
0.000432082
3.31256e-05
0.000215155
0.000322464
0.000383513
0.000417281
0.000431921
0.000431724
0.000419105
3.20792e-05
0.00020657
0.00030819
0.000366017
0.000397954
0.000411737
0.000411511
0.000399598
3.09232e-05
0.000196236
0.000291061
0.000345093
0.000374902
0.00038769
0.000387377
0.000376144
2.98979e-05
0.000185667
0.000273526
0.000323768
0.000351448
0.000363128
0.000362519
0.000351772
3.90405e-05
0.000256687
0.000385125
0.000455958
0.000493041
0.000506482
0.000501674
0.000481903
3.91162e-05
0.000258143
0.000387354
0.000458743
0.000496278
0.000510101
0.000505601
0.000486026
3.87853e-05
0.000255704
0.000383107
0.000453557
0.000490616
0.000504248
0.000499777
0.000480452
3.80528e-05
0.000249162
0.000372295
0.000440261
0.000475796
0.000488562
0.000483859
0.000465039
3.69009e-05
0.000239052
0.000355582
0.000419789
0.000453031
0.00046457
0.000459665
0.000441699
3.56999e-05
0.000227085
0.000335828
0.000395755
0.000426463
0.000436697
0.000431616
0.000414491
3.46331e-05
0.000214995
0.000315873
0.000371844
0.000400342
0.000409365
0.000403922
0.000387307
4.49758e-05
0.00029836
0.000446441
0.000525543
0.000564276
0.000574835
0.000563874
0.000535645
4.50457e-05
0.000299883
0.000448864
0.000528557
0.00056781
0.000578828
0.000568254
0.000540279
4.47054e-05
0.000297154
0.000444164
0.000522826
0.000561564
0.000572361
0.000561768
0.000533992
4.39225e-05
0.000289826
0.000432008
0.000507829
0.000544718
0.00055431
0.000543153
0.000515717
4.26903e-05
0.000278368
0.000412916
0.000484384
0.000518318
0.000526002
0.000514168
0.00048763
4.15054e-05
0.00026459
0.000390548
0.000457379
0.000488248
0.000494036
0.000481718
0.00045628
4.04507e-05
0.000250597
0.000368061
0.000431053
0.000459715
0.000464159
0.000451415
0.000426629
5.1921e-05
0.000348994
0.000519089
0.000607366
0.000646911
0.000652718
0.000632984
0.000593048
5.19523e-05
0.000350405
0.000521267
0.000610181
0.000650366
0.000656778
0.000637578
0.000598049
5.15992e-05
0.000347291
0.000516147
0.00060386
0.000643493
0.000649683
0.000630486
0.000591196
5.08005e-05
0.000339281
0.000503083
0.000587539
0.00062496
0.000629555
0.0006094
0.0005702
4.95985e-05
0.000326779
0.000482258
0.000561828
0.000595408
0.000596946
0.000575064
0.00053646
4.85611e-05
0.000310796
0.000457721
0.00053266
0.000562507
0.000561109
0.00053789
0.000500759
4.7681e-05
0.000294075
0.000432838
0.000504454
0.000532045
0.000528924
0.000505057
0.000468957
5.96889e-05
0.000412218
0.000606169
0.000703203
0.000741898
0.000740002
0.000707231
0.000650165
5.95294e-05
0.000413086
0.000607474
0.000705188
0.000744801
0.000743801
0.000711729
0.000655257
5.91957e-05
0.000410192
0.000601784
0.00069832
0.000737289
0.000736052
0.000704149
0.000648047
5.8649e-05
0.000402679
0.000588367
0.000681522
0.000717741
0.000714328
0.000681073
0.000625338
5.79546e-05
0.000389696
0.000567143
0.000655161
0.000686458
0.000678119
0.000640989
0.00058382
5.79291e-05
0.000369624
0.00054172
0.000625466
0.000652043
0.000639202
0.000598489
0.000544723
5.83152e-05
0.00034794
0.000515732
0.000596804
0.000620393
0.000604648
0.00056275
0.00051164
7.54792e-05
0.000496088
0.000712455
0.00081591
0.000851102
0.000836486
0.000779629
0.00069227
7.49434e-05
0.000495426
0.00071189
0.000816303
0.000853073
0.00084014
0.000784632
0.000697846
7.48791e-05
0.000492912
0.000706625
0.000809526
0.000845051
0.000831316
0.000775926
0.00068998
7.53696e-05
0.000487123
0.000695301
0.00079405
0.000825198
0.00080762
0.000749631
0.000665298
7.61029e-05
0.000475913
0.000676442
0.000769465
0.000794353
0.000769049
0.000703708
0.000624064
7.80874e-05
0.000453892
0.000654145
0.000741601
0.000759052
0.000725795
0.000655721
0.000583683
8.00539e-05
0.000432024
0.000632228
0.000715759
0.000727355
0.000688755
0.000617655
0.000547636
2.90317e-05
0.000175647
0.000257129
0.000303958
0.000329766
0.000340495
0.000339677
0.000329512
2.81203e-05
0.00016565
0.000241123
0.000284871
0.000309102
0.00031915
0.000318361
0.000308962
2.71393e-05
0.000156048
0.000225834
0.000266742
0.000289652
0.000299286
0.00029874
0.000290195
2.61546e-05
0.000147317
0.000212088
0.000250609
0.000272626
0.000282322
0.000282512
0.000275227
2.5392e-05
0.000140387
0.000201531
0.000238588
0.000260366
0.000270585
0.000271761
0.000265711
2.48834e-05
0.000135085
0.000194138
0.000230633
0.000252692
0.000263724
0.000266047
0.000261251
2.45231e-05
0.000130923
0.000188766
0.000225203
0.000247765
0.00025957
0.000262745
0.000258786
3.3696e-05
0.000203392
0.000297091
0.000349561
0.000376231
0.000384327
0.000378678
0.000362737
3.26275e-05
0.000191614
0.000278237
0.000327473
0.000352643
0.000360153
0.000354597
0.000339524
3.14848e-05
0.00017973
0.000259684
0.000305911
0.000329861
0.000337141
0.000331981
0.00031784
3.03174e-05
0.000168811
0.000242707
0.000286232
0.000309289
0.000316824
0.000312717
0.000300245
2.94067e-05
0.0001602
0.000229828
0.000271742
0.000294644
0.000302976
0.000300271
0.000289494
2.87965e-05
0.000153817
0.000221127
0.000262476
0.000285766
0.000295099
0.000293866
0.000284791
2.83817e-05
0.000148994
0.000215003
0.000256389
0.000280369
0.000290699
0.000290502
0.000282317
3.94211e-05
0.000236811
0.000346317
0.000405948
0.000432966
0.00043659
0.000423694
0.000399702
3.82051e-05
0.00022218
0.000323715
0.000380167
0.000405912
0.000409179
0.000396532
0.000373531
3.69232e-05
0.000207013
0.000300996
0.000354366
0.000379127
0.000382561
0.000370709
0.000348867
3.56046e-05
0.0001931
0.000280052
0.000330394
0.000354276
0.000358234