/*--------------------------------*- C++ -*----------------------------------*\
| =========                 |                                                 |
| \\      /  F ield         | OpenFOAM: The Open Source CFD Toolbox           |
|  \\    /   O peration     | Version:  plus.master.MPPICInterFoam            |
|   \\  /    A nd           | Web:      www.OpenFOAM.com                      |
|    \\/     M anipulation  |                                                 |
\*---------------------------------------------------------------------------*/
FoamFile
{
    version     2.0;
    format      ascii;
    class       labelField;
    location    "4.4/lagrangian/kinematicCloud";
    object      origId;
}
// * * * * * * * * * * * * * * * * * * * * * * * * * * * * * * * * * * * * * //


45
(
11198
11805
25952
14655
3528
34466
28366
4087
10456
20575
12389
127
13687
19591
17360
3648
2932
6445
2753
1014
18586
18238
42212
3431
37769
43082
44020
35431
4011
2253
1467
38032
4597
6438
8696
9352
50137
37377
43580
1194
50513
25431
2590
21214
1535
)


// ************************************************************************* //
