/*--------------------------------*- C++ -*----------------------------------*\
| =========                 |                                                 |
| \\      /  F ield         | OpenFOAM: The Open Source CFD Toolbox           |
|  \\    /   O peration     | Version:  plus.master.MPPICInterFoam            |
|   \\  /    A nd           | Web:      www.OpenFOAM.com                      |
|    \\/     M anipulation  |                                                 |
\*---------------------------------------------------------------------------*/
FoamFile
{
    version     2.0;
    format      ascii;
    class       vectorField;
    location    "4.4/lagrangian/kinematicCloud";
    object      UCorrect;
}
// * * * * * * * * * * * * * * * * * * * * * * * * * * * * * * * * * * * * * //


45
(
(7.3264e-12 1.53145e-13 -9.00002e-13)
(-5.47955e-15 8.14176e-16 -1.84762e-15)
(-4.47307e-05 2.00523e-05 -6.28746e-05)
(3.56625e-18 5.92498e-17 -4.07786e-19)
(2.33138e-13 -1.87905e-14 -1.65783e-12)
(0.000863564 0.000107251 -0.000225)
(-2.31737e-13 1.79099e-14 4.86406e-16)
(-2.30789e-16 -5.53692e-17 -4.41885e-14)
(-1.67694e-10 1.63861e-11 3.25117e-10)
(1.39945e-10 1.78936e-11 -9.8521e-08)
(0.000497024 -0.00116671 8.91759e-14)
(5.07493e-19 -9.11452e-22 3.13607e-23)
(4.30015e-20 -2.34591e-19 -1.79901e-20)
(-2.80724e-16 -2.47851e-15 -6.13207e-14)
(3.35889e-21 2.70825e-21 2.18716e-19)
(-3.34283e-16 8.25001e-16 -5.10117e-13)
(-1.44027e-18 -7.07451e-21 -1.06099e-19)
(7.10475e-06 2.51745e-05 -5.4366e-14)
(1.40562e-06 -8.57607e-06 8.91759e-14)
(-1.54272e-20 5.23764e-19 -1.20364e-19)
(-3.63143e-20 4.69889e-19 9.5703e-49)
(4.99237e-19 4.22295e-19 1.50946e-36)
(-1.67737e-10 1.74102e-11 -3.25305e-10)
(-9.63084e-19 -2.66298e-19 1.21357e-36)
(1.07527e-16 7.61454e-16 -3.37687e-14)
(-2.48042e-19 -2.59798e-21 -2.68204e-35)
(1.11613e-15 3.98627e-13 -2.14401e-12)
(-5.79696e-24 -1.74599e-23 6.22649e-35)
(5.41379e-19 -9.62098e-20 1.09572e-19)
(3.40899e-17 7.54528e-17 -6.3002e-14)
(-5.61665e-19 2.7069e-20 2.23371e-36)
(6.32592e-20 1.01571e-18 -1.33239e-16)
(-9.02683e-19 4.12471e-19 -1.09572e-19)
(-3.44608e-21 -1.05549e-18 -1.9102e-20)
(-5.15669e-19 6.06993e-19 2.56492e-36)
(-3.44608e-21 -5.0759e-19 2.98866e-19)
(6.98334e-21 -1.8352e-19 9.07043e-49)
(-1.72396e-19 4.4666e-19 -8.29508e-35)
(-6.98334e-21 -1.60852e-19 9.99706e-16)
(5.07784e-19 -6.98334e-21 -1.16529e-34)
(1.01475e-18 2.7512e-21 2.5994e-38)
(4.78221e-19 8.98008e-19 8.67998e-35)
(-7.62084e-20 9.40934e-19 -1.69199e-34)
(5.08134e-19 -7.86057e-22 0)
(1.0215e-18 2.59798e-21 -2.35915e-19)
)


// ************************************************************************* //
