/*--------------------------------*- C++ -*----------------------------------*\
| =========                 |                                                 |
| \\      /  F ield         | OpenFOAM: The Open Source CFD Toolbox           |
|  \\    /   O peration     | Version:  plus.master.MPPICInterFoam            |
|   \\  /    A nd           | Web:      www.OpenFOAM.com                      |
|    \\/     M anipulation  |                                                 |
\*---------------------------------------------------------------------------*/
FoamFile
{
    version     2.0;
    format      ascii;
    class       vectorField;
    location    "7.2/lagrangian/kinematicCloud";
    object      U;
}
// * * * * * * * * * * * * * * * * * * * * * * * * * * * * * * * * * * * * * //


2967
(
(0.00398229 -0.00066325 -0.0398346)
(0.00400291 -0.000765875 -0.0397802)
(0.00311476 0.00284319 -0.0399752)
(0.00311253 0.00281832 -0.040279)
(0.00337438 0.000744904 -0.0351569)
(0.00372998 -0.00093227 -0.0373862)
(0.00252406 0.00224042 -0.0400661)
(0.00302244 0.00198193 -0.036967)
(0.00235087 0.00241351 -0.040084)
(0.00338107 0.000776526 -0.0358711)
(0.00295533 0.00186091 -0.0362059)
(0.00257902 0.0023449 -0.0392206)
(0.00311404 0.00272091 -0.0396323)
(0.00248692 0.0024081 -0.0412819)
(0.00294947 0.0025249 -0.0370265)
(0.00372791 -0.000918819 -0.0389034)
(0.0030541 0.00266838 -0.0397929)
(0.00336191 0.00231442 -0.0413248)
(0.00249529 0.00238555 -0.0421613)
(0.0024824 0.00243377 -0.0413999)
(0.00402978 -0.00101854 -0.0423163)
(0.00304595 0.00265035 -0.0400482)
(0.00391415 -0.00104117 -0.0410423)
(0.00264943 0.00226246 -0.0353478)
(0.00297395 0.00274102 -0.0408157)
(0.00258797 0.00229331 -0.0425816)
(0.00305072 0.00270206 -0.0412883)
(0.00241353 0.00231732 -0.0425007)
(0.00310067 0.00273876 -0.0414358)
(0.00267325 0.00229444 -0.0363113)
(0.00277252 0.00190529 -0.0346403)
(0.0028342 0.00273207 -0.0410354)
(0.00325575 0.00177639 -0.0373163)
(0.00384554 -0.000963526 -0.0409626)
(0.002891 0.00198827 -0.0399436)
(0.00310274 0.00275433 -0.0419024)
(0.00301585 0.00279113 -0.041597)
(0.00254816 0.00246921 -0.042699)
(0.00296186 0.00265161 -0.0396378)
(0.00296617 0.00271317 -0.0415422)
(0.00355238 0.000802194 -0.0365336)
(0.00397608 -0.000290739 -0.0418135)
(0.00244031 0.00229573 -0.042893)
(0.0040256 -0.00090705 -0.0429176)
(0.00344861 5.92572e-05 -0.0366242)
(0.00289679 0.00270989 -0.041193)
(0.00280053 0.00179271 -0.0386659)
(0.0039194 -0.000983271 -0.0414554)
(0.00263027 0.00239956 -0.0384564)
(0.00343957 0.000721846 -0.0357185)
(0.00384152 -0.000921116 -0.0409895)
(0.00320242 0.00075648 -0.0382323)
(0.00295652 0.00165947 -0.0377395)
(0.0033662 8.17603e-05 -0.0374093)
(0.00291564 0.00285278 -0.0403945)
(0.00328016 0.000232149 -0.0373932)
(0.00314921 0.00264901 -0.0416918)
(0.00335569 0.000191745 -0.0374772)
(0.0031709 0.00263462 -0.0414478)
(0.00389895 -0.000981307 -0.0415009)
(0.00333413 9.03736e-05 -0.0377485)
(0.00305831 0.00171399 -0.0391808)
(0.00359321 -0.000820708 -0.0398782)
(0.00340835 0.000400662 -0.0394096)
(0.00427457 -0.00185602 -0.0416398)
(0.00293386 0.00258393 -0.0406254)
(0.00333311 0.000772912 -0.0375633)
(0.00278414 0.000525673 -0.0334197)
(0.00318305 0.00266348 -0.0420031)
(0.00440875 -0.00220753 -0.0417107)
(0.00374733 0.000803452 -0.0415135)
(0.00356545 0.000159144 -0.0389723)
(0.00337437 -0.000491724 -0.0370916)
(0.00434652 -0.00220845 -0.0413231)
(0.00404914 -0.000942901 -0.042842)
(0.00405182 -0.00105246 -0.0431268)
(0.00737605 0.00535986 -0.032912)
(0.00332961 0.000104624 -0.0397346)
(0.00330638 -0.000428022 -0.0369276)
(0.00316549 0.000222446 -0.0380398)
(0.00323192 0.00012838 -0.0385045)
(0.00245576 0.00228807 -0.0411675)
(0.00326688 4.18293e-05 -0.0354673)
(0.00325001 -0.000341126 -0.037105)
(0.00271222 0.00251309 -0.0388999)
(0.0034883 6.97198e-05 -0.039301)
(0.00332534 0.00147511 -0.0335165)
(0.00343853 2.40009e-05 -0.0393995)
(0.00294106 0.000585006 -0.0345611)
(0.00381047 0.000817751 -0.0418072)
(0.00332483 0.00145781 -0.0341519)
(0.00339686 0.00135334 -0.0350795)
(0.00262005 0.000503428 -0.0321608)
(0.00336798 -1.02301e-05 -0.0384619)
(0.00325326 0.00138942 -0.0356586)
(0.00333179 0.00125338 -0.0356123)
(0.00344977 -0.00050735 -0.0380232)
(0.00409665 -0.00107921 -0.0425208)
(-0.00382717 0.000547761 -0.0469146)
(0.00320826 -0.000409693 -0.0371981)
(0.00340577 0.00130698 -0.0353673)
(0.00333061 0.000891242 -0.0385388)
(0.00345043 0.000338643 -0.039965)
(0.00356467 0.000864029 -0.0360886)
(0.00310071 0.00112345 -0.0364167)
(0.00337203 0.00101221 -0.0383386)
(0.00355955 8.28285e-05 -0.039451)
(0.0042532 -0.00132839 -0.0427724)
(-0.00448696 0.000780541 -0.0442038)
(-0.00463513 0.00111904 -0.0472176)
(-0.00462641 0.00125988 -0.0470423)
(0.00334699 -0.000287021 -0.0384552)
(0.00274654 0.00172147 -0.0371752)
(0.00332115 0.000963423 -0.037836)
(-0.0024222 0.00124495 -0.0396216)
(0.00365966 0.000227741 -0.0396964)
(0.00296898 0.00116439 -0.0372108)
(0.00254119 0.00226759 -0.0402089)
(0.00268005 0.00245715 -0.0397748)
(0.00356636 0.000923267 -0.0359083)
(0.00385902 -0.00106362 -0.0397749)
(-0.00305829 0.0012937 -0.0487232)
(-0.00305154 0.00127496 -0.0488327)
(0.00340011 -0.000482478 -0.0385927)
(0.00409857 -0.00113994 -0.0431405)
(0.0027618 0.00214113 -0.0397648)
(-0.00518599 0.000947923 -0.046244)
(-0.00558922 0.000926277 -0.0460314)
(0.00218243 0.00180259 -0.0312099)
(0.00257655 0.00224885 -0.0357396)
(0.00523454 0.0036723 -0.0362394)
(0.00330105 0.000155519 -0.0367833)
(0.00338081 0.00111229 -0.0352506)
(0.00308393 0.00188066 -0.0391373)
(-0.00539732 0.00100285 -0.0462669)
(0.00329853 0.00182517 -0.0362147)
(0.00325852 0.00152428 -0.0365081)
(0.00397225 -0.00104912 -0.0404726)
(0.00403531 -0.00112585 -0.0407246)
(0.00333158 0.00082418 -0.0387067)
(-0.00428036 0.000888476 -0.0440497)
(-0.00606174 0.00389217 -0.0376698)
(-0.0057736 0.000997305 -0.0457217)
(0.00334333 -0.00205923 -0.0332685)
(0.00308424 0.00117314 -0.0375129)
(0.00374813 0.000628889 -0.0370332)
(0.0033101 0.000881969 -0.0352228)
(0.00332149 0.000896338 -0.0384049)
(0.00361381 -0.000571248 -0.038145)
(-0.00485678 0.000666216 -0.0511913)
(-0.00484094 0.000634077 -0.0511643)
(0.00346291 -0.00107954 -0.0360863)
(0.00333299 0.00092082 -0.0379401)
(0.00289499 0.00244303 -0.0384298)
(0.00374269 0.000842264 -0.0406109)
(-0.00601259 0.00102355 -0.0459447)
(-0.00586162 0.000910424 -0.0456183)
(-0.00305136 0.00123516 -0.0484672)
(0.00336012 -0.00028808 -0.0382948)
(0.00411139 -0.000839451 -0.0361469)
(0.00402389 -0.00123533 -0.0406687)
(0.00341375 0.000849447 -0.0393183)
(0.00360965 0.000273272 -0.0396658)
(-0.00353379 -0.00170733 -0.0444539)
(-0.00460721 0.00130917 -0.0462928)
(-0.00357342 -0.0017195 -0.0464198)
(0.00400408 -0.000836389 -0.0350993)
(0.00333535 -0.000731554 -0.0361477)
(0.00321635 -0.000387151 -0.0373801)
(0.00293391 0.00280759 -0.0393925)
(0.00334066 0.000182094 -0.0386102)
(0.00354193 0.00027776 -0.0395119)
(-0.00351085 -0.00165827 -0.0459661)
(0.00399207 -0.00105318 -0.0404216)
(0.00289141 0.0019717 -0.0373467)
(0.00385423 0.000799133 -0.0406941)
(-0.00258568 0.00128828 -0.0386999)
(-0.003545 -0.00172615 -0.0449518)
(0.0029829 0.00396757 -0.0361469)
(0.00327499 0.0012171 -0.0335166)
(0.00341869 -0.00120056 -0.0366341)
(0.00346445 0.000726659 -0.0395978)
(0.00398241 -0.000836016 -0.0404155)
(0.00336902 0.000749309 -0.0384043)
(0.00297678 0.000772947 -0.0331892)
(-0.00349994 -0.0017485 -0.0446542)
(0.00326239 9.31069e-05 -0.0345296)
(0.00366631 0.000176514 -0.0397349)
(0.00323786 0.00199574 -0.0391918)
(0.00356034 0.000302958 -0.0395816)
(-0.0048889 0.00118539 -0.0487577)
(0.00254753 0.00249924 -0.0358478)
(0.00321002 -6.64915e-07 -0.0333856)
(-0.00348591 -0.00185429 -0.0454215)
(-0.00298637 0.00130773 -0.0487044)
(0.00420456 -0.000243446 -0.0357502)
(0.00750508 0.00567908 -0.0345408)
(0.00240983 0.00139226 -0.0295416)
(0.00412993 -0.000266502 -0.0349298)
(0.00317431 0.00116921 -0.0333467)
(0.00339748 0.00122346 -0.0368737)
(0.00300981 0.00238892 -0.0361844)
(0.00275928 0.000679206 -0.0323427)
(0.00349023 -2.93912e-05 -0.0373252)
(0.00341015 0.00124994 -0.0367895)
(0.00537484 0.00369195 -0.0366363)
(0.00371824 0.000925078 -0.0401535)
(0.00345781 0.000668384 -0.0390195)
(0.00280927 0.00263898 -0.0379476)
(0.00280698 0.00250194 -0.0375675)
(-0.00280502 0.00120394 -0.0391107)
(-0.00352742 -0.000759373 -0.0444759)
(-0.00486579 0.00109722 -0.0480892)
(-0.00647531 0.00152371 -0.046393)
(-0.00302879 0.00125763 -0.0483594)
(0.00367195 0.0058442 -0.0344165)
(0.00275679 0.000661963 -0.032446)
(0.00379598 0.000659044 -0.0396869)
(0.0028814 0.00275632 -0.0381963)
(-0.00343528 -0.00180583 -0.0414526)
(0.00369006 0.00586268 -0.03446)
(0.00268027 0.000686359 -0.0314996)
(0.00306421 0.000706031 -0.0353402)
(0.00357151 0.000367465 -0.0387927)
(0.00302046 0.00238072 -0.0363014)
(0.00245986 0.00234248 -0.0336842)
(0.00357505 0.00128725 -0.0362925)
(0.00311432 0.00190825 -0.0376618)
(0.0027975 0.00259019 -0.037387)
(0.00375711 0.000908681 -0.0399613)
(0.0035559 -0.000498108 -0.0374318)
(-0.00351415 -0.00109718 -0.0459605)
(-0.0033662 -0.00141604 -0.0452861)
(-0.00298407 0.00134242 -0.0484035)
(0.00319132 0.000643745 -0.0364403)
(0.00342893 0.00133803 -0.036526)
(0.00377386 0.000831976 -0.039871)
(0.00297493 0.00248678 -0.0378054)
(0.00326087 0.00205247 -0.0382611)
(-0.00257873 0.00120774 -0.0408939)
(-0.00356364 -0.00198669 -0.0460678)
(-0.00298953 0.001479 -0.0490439)
(0.00359532 -0.000383336 -0.0348078)
(0.00369563 0.000601909 -0.0393502)
(0.00344009 0.0015424 -0.035786)
(0.00430708 -0.000238134 -0.0359342)
(0.00303848 0.000596326 -0.034811)
(-0.00607896 0.0017726 -0.03689)
(-0.00349115 -0.00187374 -0.0464779)
(-0.00247837 0.00110432 -0.0423174)
(-0.00301181 0.00145667 -0.048633)
(0.00353067 -0.00122359 -0.0361717)
(0.00338743 0.000649134 -0.037655)
(-0.00362784 -0.00198341 -0.0456768)
(-0.00488652 0.000861021 -0.0478156)
(0.00329801 0.000867824 -0.0356255)
(0.00330909 -0.000826107 -0.0345941)
(0.00350276 0.000822739 -0.0387181)
(0.00360311 0.000755017 -0.0393089)
(0.00359854 0.000690536 -0.039381)
(-0.0036219 -0.00198133 -0.0450644)
(-0.00297104 0.00146105 -0.0484397)
(0.00282359 0.00239261 -0.0362304)
(0.00375205 0.00100417 -0.039484)
(-0.00347727 -0.00193428 -0.0467928)
(-0.00356492 -0.00201524 -0.0462051)
(-0.00481338 0.000590974 -0.0471589)
(-0.00413025 0.000791929 -0.0486576)
(0.00527624 0.00353039 -0.0340931)
(0.00252324 0.00150998 -0.0327792)
(-0.00366546 -0.00210778 -0.0438816)
(-0.00348353 -0.00125668 -0.0458173)
(-0.00355075 -0.00192807 -0.0465136)
(-0.002853 0.000467186 -0.0473957)
(0.00348357 8.26774e-05 -0.0371601)
(0.00357426 0.000789318 -0.0389335)
(0.00349152 0.00014696 -0.0373196)
(0.0035575 9.9062e-05 -0.0384988)
(-0.00484895 0.00139514 -0.0369958)
(-0.00353947 -0.00196781 -0.0466632)
(0.00355558 0.00592508 -0.0338524)
(0.00373005 0.00235293 -0.0367075)
(0.00370242 0.000863201 -0.0393281)
(-0.00375832 -0.000298625 -0.0468296)
(0.00528133 0.00395966 -0.0358745)
(-0.00339958 -0.00130754 -0.0454093)
(-0.00305578 0.00131314 -0.0480171)
(0.00341722 0.00591178 -0.0334312)
(0.00326907 0.00522913 -0.0341531)
(0.00355109 -0.000431404 -0.0370394)
(-0.00267681 0.000968405 -0.0385245)
(-0.00357582 -0.00202607 -0.0464953)
(0.0029319 0.000624301 -0.0310337)
(0.00519887 0.00398161 -0.0355423)
(-0.00438848 0.00130916 -0.0375234)
(0.00393176 0.000334087 -0.0472305)
(0.00395356 0.00034142 -0.0453024)
(-0.00647294 0.00376663 -0.0398062)
(-0.00299674 0.00147312 -0.0482797)
(-0.00352695 -0.00120743 -0.0459194)
(-0.00347446 -0.000968158 -0.0464502)
(-0.00347017 -0.00183271 -0.0465905)
(-0.00298877 0.000707755 -0.0480446)
(0.00345458 0.000773876 -0.0372636)
(-0.00361892 -0.00210289 -0.0440001)
(-0.003553 -0.00109295 -0.0470045)
(-0.00321371 -0.00109285 -0.0428078)
(-0.00302613 0.00103555 -0.0477245)
(0.00346262 -0.000809199 -0.0351724)
(0.00379713 0.00586148 -0.0334796)
(-0.00352293 -0.0012517 -0.0457802)
(-0.0034709 -0.00121499 -0.0458265)
(-0.00306076 0.0018213 -0.0473398)
(0.00322198 0.0023914 -0.0280709)
(0.00238611 0.0019721 -0.031018)
(0.00220766 0.00213938 -0.0314931)
(0.00332069 -0.000878267 -0.0339811)
(0.00335641 -0.00194139 -0.0362748)
(-0.00245923 0.00173104 -0.0382449)
(0.0037143 0.000721969 -0.0388705)
(-0.00259157 0.00106183 -0.0416199)
(0.00387834 0.000274114 -0.045108)
(-0.00354088 -0.00117167 -0.0460612)
(-0.00364643 -0.00210969 -0.0439094)
(-0.00286694 0.00160647 -0.0476977)
(-0.00338892 -0.00118577 -0.045363)
(-0.00308029 0.00181309 -0.0473605)
(0.00207575 0.00259675 -0.0315072)
(0.00345439 0.000587722 -0.0368115)
(0.00339673 0.000432663 -0.0350811)
(0.00351209 0.000149607 -0.0367246)
(0.00335434 0.00607007 -0.034143)
(-0.00280994 0.0011834 -0.0385647)
(-0.00265766 0.00101226 -0.0418752)
(-0.00259174 0.00114662 -0.0423671)
(-0.00258646 0.00127437 -0.0428346)
(-0.0035894 -0.00200413 -0.0437736)
(-0.00342005 -0.0014149 -0.045273)
(-0.00370366 -0.00209712 -0.0448316)
(-0.00347385 -0.00135917 -0.0453887)
(-0.00355631 -0.00116447 -0.0463173)
(-0.00320114 -0.000936357 -0.0432372)
(-0.00326746 -0.00115853 -0.0432094)
(-0.00342545 -0.00133157 -0.0453712)
(0.00282599 0.000386868 -0.0305918)
(0.00341758 0.00599005 -0.033729)
(0.00365788 0.000604972 -0.0381224)
(0.0038466 0.000295572 -0.0402879)
(-0.00266169 0.00159022 -0.0372556)
(-0.00259625 0.00125291 -0.0424344)
(-0.00327918 -0.00122742 -0.0433718)
(-0.00365794 -0.00205277 -0.0444441)
(-0.0034201 -0.00151232 -0.0452237)
(-0.00347711 -0.00110683 -0.0471158)
(-0.00338555 -0.00142318 -0.0436595)
(-0.00291019 0.00052284 -0.0458488)
(0.00254142 0.00250606 -0.0339534)
(0.00267065 0.000381215 -0.0291667)
(0.00343157 0.00130201 -0.0356707)
(-0.00363257 -0.00202909 -0.0443866)
(-0.0034896 -0.00108357 -0.0470045)
(-0.00361187 -0.00199484 -0.0443315)
(0.00281842 0.00238134 -0.0348626)
(0.00322497 -0.00124614 -0.034209)
(0.0024721 0.00209638 -0.0331556)
(0.00266519 0.00163237 -0.0334141)
(0.00369716 0.00574326 -0.032602)
(0.00389585 0.000651372 -0.0392159)
(-0.00258568 0.00106168 -0.038546)
(-0.00260672 0.00117853 -0.0430799)
(-0.00259601 0.0012197 -0.0435157)
(0.00352452 -0.00148954 -0.0367238)
(0.00356914 0.0013093 -0.0345417)
(0.00371486 0.00132142 -0.0351374)
(-0.00266889 0.000935776 -0.0384417)
(-0.00525897 0.00172242 -0.0411708)
(-0.00349564 -0.00186793 -0.0450585)
(0.00507136 0.00349639 -0.0273532)
(0.00304081 0.00106844 -0.0339077)
(-0.00268191 0.00103753 -0.0410914)
(-0.00358989 -0.00116597 -0.0465631)
(-0.00321312 -0.000721293 -0.0439989)
(0.00356161 0.000981869 -0.0338357)
(0.00310692 -0.000374007 -0.033524)
(0.00332577 -0.000119743 -0.0341746)
(0.00354123 -0.000593091 -0.0360745)
(0.00333992 -0.00276719 -0.0388461)
(0.00386957 0.000412209 -0.046432)
(0.00385003 0.000333831 -0.0462596)
(-0.00302843 0.00136771 -0.0495561)
(0.00298568 0.000690332 -0.0331715)
(0.00260544 0.00226722 -0.0335559)
(0.00359262 0.000202193 -0.037654)
(0.00385395 0.000324385 -0.0409477)
(-0.00259423 0.00136934 -0.0431545)
(-0.00347083 -0.00160407 -0.0444101)
(-0.00373578 -0.00213693 -0.0453448)
(-0.00350914 -0.00176348 -0.0478926)
(0.00200174 0.0024614 -0.0302868)
(0.00313443 -0.00292617 -0.0371862)
(0.00382574 0.00021969 -0.0426764)
(-0.00364771 -0.00222768 -0.0463182)
(-0.00365484 -0.0019779 -0.044626)
(-0.00303352 0.00139652 -0.0419728)
(-0.00256718 0.00137665 -0.0428782)
(-0.0035259 -0.0017992 -0.0474079)
(-0.00363522 -0.00162283 -0.0477917)
(-0.00295285 0.00051059 -0.0458533)
(-0.00356233 -0.00179376 -0.0473062)
(-0.00346069 -0.00148218 -0.0478713)
(0.00327315 -0.00253597 -0.0369815)
(0.00311379 -0.00191473 -0.0346087)
(0.00327532 -0.00207522 -0.0354922)
(0.00320419 -0.00262236 -0.0376343)
(0.00365875 -0.00116687 -0.0376036)
(0.00382667 0.000279755 -0.0421643)
(0.00387233 0.000183048 -0.0452916)
(-0.00364781 -0.00189678 -0.0446015)
(-0.00251706 0.00133484 -0.0426287)
(0.0026711 0.0011922 -0.0318805)
(0.00364141 0.000625347 -0.0370159)
(0.00350459 -0.000849745 -0.035627)
(-0.00346302 -0.000855733 -0.0440212)
(-0.00399224 0.00149876 -0.0419303)
(0.00243922 0.00109099 -0.0296828)
(0.00115718 0.00533734 -0.0375182)
(0.00366871 -0.00146526 -0.0334505)
(0.00377876 6.86193e-05 -0.0387813)
(0.00385445 0.000247705 -0.0462041)
(-0.00353813 -0.000359665 -0.0460437)
(-0.00368657 -0.00154021 -0.0489076)
(0.00589332 0.000873639 -0.0253694)
(0.00281562 -0.000397389 -0.0329886)
(0.00423619 0.00532557 -0.0342003)
(0.00368074 -0.0013586 -0.0333577)
(0.00350475 -0.000806267 -0.0357689)
(0.00527542 0.00371302 -0.0347856)
(0.00347372 -0.00213008 -0.0374369)
(0.00323287 -0.00275397 -0.0386754)
(-0.00261154 0.00128445 -0.043729)
(-0.00359626 -0.00160173 -0.0494091)
(0.00314672 0.000596295 -0.0347809)
(0.00381491 -0.000635173 -0.0354637)
(0.00218017 -0.00419909 -0.0393802)
(0.00301928 -0.0027951 -0.0374831)
(0.00382137 0.000142259 -0.0420112)
(-0.00359866 -0.00228699 -0.047899)
(-0.00299008 0.00127706 -0.0499707)
(0.00428948 0.00453481 -0.0276619)
(0.00414093 0.00528041 -0.0338331)
(0.00261593 -0.00346005 -0.0355504)
(0.00324318 0.00221376 -0.0360602)
(0.00301277 -0.00286217 -0.0367225)
(0.00386744 -0.000246672 -0.04316)
(0.00321891 -0.00305912 -0.0383848)
(0.00392542 0.000223138 -0.0463788)
(-0.00369854 -0.00212628 -0.0453213)
(0.00392949 0.000288779 -0.0465477)
(-0.00395804 0.00164978 -0.0417528)
(-0.00577736 0.00206623 -0.0413494)
(-0.002752 0.000477028 -0.0454875)
(0.00358007 -0.00117303 -0.0358181)
(0.00364545 -0.00073686 -0.0358232)
(0.00344763 -0.00264071 -0.0386763)
(-0.00274962 0.00156908 -0.0378565)
(0.00374766 0.000675132 -0.0375708)
(0.00385059 9.02495e-05 -0.041178)
(0.00387865 0.000321818 -0.0404137)
(0.00386316 0.000184858 -0.0452972)
(-0.00282921 0.000795603 -0.0422643)
(0.00398611 0.000904854 -0.0408569)
(-0.00364723 -0.00166617 -0.0455031)
(0.00400172 -0.000393027 -0.0438164)
(0.00620627 0.00138424 -0.0283035)
(0.00278069 0.000616138 -0.0297925)
(0.00313442 0.00071888 -0.0342208)
(0.00222613 0.0034904 -0.0354918)
(0.00215363 -0.00338005 -0.0374907)
(0.0038756 6.23634e-05 -0.0417131)
(0.00386014 7.13118e-05 -0.041377)
(-0.00369633 -0.00261727 -0.0488564)
(-0.00305687 0.00183878 -0.045801)
(-0.00298467 0.00136926 -0.0507921)
(0.00364908 -0.000134722 -0.0355338)
(0.00312661 -0.00296759 -0.0382547)
(0.00366046 -0.000668551 -0.0384112)
(0.00139679 -0.00407364 -0.0406437)
(0.00146605 -0.00416495 -0.0418564)
(0.00180848 0.000896441 -0.0401507)
(0.00319741 -0.0030342 -0.0385703)
(0.00358769 -0.00214037 -0.0399714)
(0.00358955 -0.00213118 -0.0400053)
(0.0025627 0.00621009 -0.0415312)
(-0.00368689 -0.00153523 -0.0460946)
(-0.00303822 0.00122343 -0.0503594)
(-0.00298879 0.00132944 -0.0500004)
(0.00344364 0.000358471 -0.0325775)
(0.00241837 0.0021185 -0.031538)
(0.00303131 0.000901076 -0.0298963)
(0.00205275 0.0026326 -0.0302718)
(0.00113602 0.0038569 -0.035352)
(0.00253499 0.00234739 -0.0332518)
(0.00130611 0.00386364 -0.0361862)
(0.00344888 -0.00193588 -0.0372371)
(0.00360487 -0.00192702 -0.0401725)
(0.00327264 -0.000979921 -0.0428336)
(-0.0025651 0.00105704 -0.0391084)
(-0.00268815 0.00111623 -0.0438966)
(-0.00289791 0.000916053 -0.0447932)
(-0.00345641 -0.00104851 -0.0476535)
(0.00383358 -0.000355662 -0.0435889)
(0.00388294 -0.0003541 -0.0440589)
(-0.00296779 0.00130361 -0.0500298)
(0.00200708 0.00267644 -0.0302101)
(-0.00274978 0.00103324 -0.0388913)
(0.00223993 0.00198115 -0.0411377)
(0.0031052 -0.00305146 -0.03725)
(0.00387588 4.73817e-05 -0.0412964)
(0.000629283 0.00645064 -0.0390651)
(0.00258425 -0.00318271 -0.0346346)
(0.00357179 -0.00208521 -0.0396368)
(0.00399488 0.000244203 -0.0469458)
(0.00391783 -0.000638885 -0.0422681)
(0.00378288 -0.0011577 -0.0438498)
(-0.00248878 0.00207072 -0.044483)
(-0.00299008 0.00163431 -0.0482694)
(-0.00315607 0.000360535 -0.0489337)
(0.00402367 0.000495469 -0.0461639)
(0.00259488 0.00161399 -0.0303828)
(0.0028817 -0.00182222 -0.0325262)
(0.00346599 0.000513847 -0.0352217)
(0.00341291 0.00116164 -0.0340676)
(-0.00257991 0.00105861 -0.0351595)
(0.00378279 0.000161145 -0.0396698)
(0.00103075 0.00550147 -0.0394692)
(0.0010682 0.00541494 -0.0392839)
(0.000961791 0.0054911 -0.0399468)
(-0.00247503 0.00113646 -0.0383493)
(0.00110772 0.00417555 -0.0395541)
(0.00140852 -0.00401912 -0.0409313)
(0.000917596 0.00547504 -0.0397618)
(0.0011353 0.0054349 -0.0402308)
(0.00326326 -0.00293235 -0.0403598)
(0.0034059 0.000410785 -0.0341729)
(0.00236232 0.00226689 -0.031306)
(0.00353964 -0.0015803 -0.0372815)
(0.00365244 -0.00117466 -0.0382557)
(0.00360942 -0.00192731 -0.0390907)
(0.00355358 -0.00205471 -0.0389383)
(0.00388201 7.88405e-05 -0.0428896)
(0.00106249 0.0043618 -0.0400834)
(0.00399487 0.000483188 -0.0443036)
(0.00110381 0.00420065 -0.0396391)
(0.00321593 -0.000998456 -0.043353)
(0.00321765 -0.00302508 -0.0394774)
(0.00218876 -0.00406248 -0.0419787)
(0.00203455 0.00439248 -0.0338749)
(0.00348983 -0.00188076 -0.0377511)
(0.00397284 0.00038798 -0.0408503)
(0.00139499 0.00391878 -0.0393575)
(0.00201645 -0.00361295 -0.0366977)
(0.000804551 0.00533622 -0.0381715)
(0.00202333 0.00380552 -0.0397328)
(0.00322352 -0.000995712 -0.0435411)
(0.00352889 -0.00272968 -0.0418042)
(0.00150495 -0.00421326 -0.0426294)
(-0.00314779 0.000453627 -0.0486127)
(-0.00320937 0.00155438 -0.0483823)
(0.00529879 0.00355546 -0.0283535)
(0.00313663 -0.00255907 -0.0345306)
(0.0030855 5.4601e-05 -0.032039)
(0.00374047 0.000145354 -0.037861)
(-0.00264295 0.00102636 -0.0351959)
(0.0037738 8.68067e-05 -0.0393275)
(0.00377481 0.000134875 -0.039818)
(0.00387154 1.96794e-05 -0.0410066)
(0.00254015 0.00277092 -0.0410564)
(0.00387082 -0.000448177 -0.0422373)
(0.00154875 -0.00535263 -0.0420833)
(0.00230815 0.0061969 -0.040611)
(-0.00271984 0.000949224 -0.0458618)
(0.00274182 -0.00343503 -0.0386766)
(-0.00320064 0.00170874 -0.0483044)
(-0.00319596 0.00170492 -0.0481879)
(0.00330403 -0.000165125 -0.033354)
(0.00360164 -0.001513 -0.0381065)
(0.00304613 -0.00287615 -0.0334481)
(-0.00224516 0.000891094 -0.0327011)
(0.00351488 -0.0011475 -0.0357896)
(0.00375639 0.000119659 -0.0381388)
(0.00240987 0.00615878 -0.0401839)
(0.00396419 6.36116e-06 -0.042773)
(0.0036692 -0.0012238 -0.0393035)
(0.00149801 0.00412736 -0.0395972)
(0.00393265 0.000677581 -0.0402328)
(0.00386563 0.000831902 -0.0383505)
(0.00234146 0.00625036 -0.0412289)
(0.00398449 0.000205615 -0.0467882)
(0.00404256 0.000403735 -0.0456336)
(0.00389458 -0.000450796 -0.0444372)
(0.00363825 0.00224071 -0.0425522)
(0.00316079 0.00101863 -0.0319578)
(0.00314684 0.000742004 -0.0328386)
(0.00196578 0.00266985 -0.0301912)
(0.00353855 -0.00186443 -0.0399111)
(0.00244455 0.00226436 -0.0316864)
(0.00373302 0.000141317 -0.0374728)
(0.00370214 0.001332 -0.0371291)
(0.00112764 0.00382248 -0.0349553)
(0.00375613 0.000136904 -0.0383072)
(0.00244156 -0.0033688 -0.0345857)
(0.000745556 0.00555616 -0.03886)
(0.00396922 0.000393351 -0.046861)
(0.00396449 0.000216787 -0.0470462)
(0.00324297 -0.00111471 -0.0422659)
(0.00332202 0.0027012 -0.0397633)
(0.00403305 0.00025619 -0.0454082)
(0.00264213 -0.000264301 -0.0302777)
(0.00299366 0.00163992 -0.0292475)
(0.00316844 0.000564961 -0.0333506)
(0.00245304 0.00253492 -0.0321915)
(0.00286388 0.00178769 -0.0335851)
(0.00372015 0.000571443 -0.0357371)
(-0.00229418 0.00103274 -0.0341297)
(0.0020209 0.00352983 -0.0353189)
(0.00271723 0.00328622 -0.0416743)
(0.000721704 0.00558552 -0.0394253)
(0.00275337 0.00330801 -0.0418083)
(0.00350135 0.00214789 -0.0409766)
(0.00239374 0.00490322 -0.038625)
(0.000832938 0.00533963 -0.038561)
(0.00401725 0.000450865 -0.0431877)
(0.00194052 -0.00343914 -0.0363413)
(0.0039683 0.000188839 -0.046976)
(0.0031933 -0.000984818 -0.0437446)
(0.0032469 0.00275162 -0.0405907)
(0.00408242 0.000396626 -0.0454145)
(0.00360422 -0.00208785 -0.0414167)
(0.0037149 0.000471853 -0.0351739)
(0.00298647 -0.00280418 -0.0325881)
(0.00364113 0.00148192 -0.0384986)
(-0.00234252 0.000970575 -0.0339727)
(0.00118559 0.00379137 -0.035706)
(0.0030986 0.0028553 -0.0386649)
(-0.00284352 0.000950724 -0.0404942)
(-0.00278283 0.000954503 -0.0361355)
(0.00346555 -0.00083762 -0.0433459)
(0.00270469 0.0059858 -0.0392048)
(0.00399411 0.000423967 -0.0468337)
(0.00240059 -0.00319337 -0.0340938)
(0.00377144 -0.00214488 -0.0412063)
(-0.00298315 0.000490865 -0.0457311)
(-0.00313077 0.00179112 -0.0466046)
(0.00286912 -0.00327624 -0.0389517)
(0.00293912 -0.00351973 -0.0391059)
(0.00334172 0.000625538 -0.0345896)
(0.00352735 0.000779336 -0.0346689)
(0.00351085 0.000836831 -0.0343943)
(0.00351089 0.000670422 -0.0351712)
(0.00313693 -5.81049e-05 -0.0318686)
(0.00337876 0.00213019 -0.0381204)
(0.00192751 -0.00363884 -0.0388138)
(0.00340928 0.0021465 -0.0385879)
(-0.00239162 0.000946734 -0.0349371)
(0.00283921 0.00348186 -0.0415529)
(0.000950713 0.0045363 -0.0405704)
(0.00384682 -1.00061e-05 -0.0405726)
(0.00348509 0.00222754 -0.0419507)
(0.00381086 -0.000429698 -0.042929)
(0.00369223 0.00217197 -0.0429863)
(-0.00310067 0.00144008 -0.0475526)
(0.00334267 -0.00288039 -0.0412797)
(-0.00316251 0.000187964 -0.0484648)
(0.00891661 0.00197814 -0.0249711)
(0.00216761 0.00269157 -0.0299648)
(0.00338168 0.000725078 -0.0345099)
(0.00378702 0.00121945 -0.0369734)
(0.00297998 0.00188556 -0.0339742)
(0.00264722 0.0032388 -0.0353088)
(0.00200398 -0.00413449 -0.0413704)
(0.00178544 0.00383976 -0.0360263)
(0.00114617 0.00381768 -0.0351531)
(0.00342659 0.00213021 -0.0389183)
(0.00374639 0.000215949 -0.0357428)
(0.00286168 -0.00284847 -0.0318616)
(-0.00287698 0.000957953 -0.0396813)
(0.00204379 0.00342562 -0.0381626)
(0.0037316 -0.00130139 -0.0411003)
(0.00206892 0.00348706 -0.0389684)
(0.00393837 0.000665755 -0.0416578)
(0.0036115 -0.00122324 -0.0447369)
(0.00336292 -0.0020559 -0.039214)
(0.00390106 0.000108227 -0.043284)
(0.00290484 -0.00218029 -0.0321137)
(0.00198922 0.00345216 -0.0344913)
(0.00236977 -0.00289453 -0.0330939)
(0.00370726 -0.000503389 -0.0396911)
(-0.00287276 0.000987569 -0.0366584)
(0.00294627 0.00386276 -0.0421874)
(0.00387875 -0.000373207 -0.0421428)
(0.00398092 0.000640799 -0.0424944)
(0.00200803 -0.00505205 -0.0408441)
(0.00218745 -0.00370614 -0.0406681)
(-0.0030408 0.00119368 -0.0491419)
(-0.00302296 -0.000838054 -0.0439092)
(0.00632844 0.00147205 -0.0287047)
(0.00630706 0.000800874 -0.0283292)
(0.00186079 0.00258846 -0.0292868)
(0.00346619 0.000820701 -0.0343895)
(0.00247035 0.00243651 -0.032338)
(0.00229574 -0.00309679 -0.0332467)
(-0.00214858 0.000822027 -0.0319842)
(0.00361767 -0.00143459 -0.0407547)
(0.0022509 -0.00351256 -0.0372601)
(0.00237333 -0.00288198 -0.033035)
(0.00212071 0.0047521 -0.0383898)
(0.00246353 0.0064317 -0.0434693)
(0.0033985 -0.00270094 -0.0385329)
(0.00362171 0.00214967 -0.0429088)
(0.00320709 -0.00272153 -0.0402797)
(0.00279635 0.00454008 -0.0281918)
(0.00235309 0.00219676 -0.0308377)
(0.00354007 0.000572626 -0.0349148)
(0.00250813 0.00233958 -0.031945)
(0.00334462 0.0022181 -0.0381997)
(0.00307363 0.00264896 -0.0360638)
(-0.00227574 0.000935025 -0.0330059)
(0.00372994 0.000187151 -0.038858)
(0.00285727 -0.0034775 -0.039112)
(0.00143545 -0.0035593 -0.0398648)
(0.0039023 -0.00120607 -0.0456651)
(0.0016625 -0.00430367 -0.0420975)
(0.00157664 -0.00382894 -0.0402354)
(0.00276962 -0.00337174 -0.0387221)
(0.00376758 -0.00211654 -0.0415164)
(0.00403306 -0.000438995 -0.0454998)
(-0.00363068 -2.53737e-05 -0.0480386)
(0.00400024 0.000815507 -0.0431086)
(0.00343122 0.00078827 -0.0342415)
(0.00381741 0.00045825 -0.0360607)
(0.00224345 -0.0027939 -0.0321671)
(0.0038879 0.000553896 -0.0374355)
(0.00362545 0.000411694 -0.03481)
(0.00230189 -0.000737662 -0.03999)
(0.00367525 -4.76042e-05 -0.0356161)
(0.00217846 -0.00276228 -0.0318998)
(-0.00294681 -0.000636805 -0.0446022)
(0.00144373 -0.00396077 -0.0422119)
(0.00292487 0.00224908 -0.0317959)
(0.00345734 0.000306382 -0.0320447)
(0.00441091 0.00484534 -0.0283843)
(0.00336996 0.000603841 -0.0347902)
(0.00343884 0.00569661 -0.0274176)
(0.00305341 0.00206614 -0.0341842)
(0.00362027 -0.0016231 -0.0381922)
(0.0022492 0.000829967 -0.0347908)
(-0.00286324 0.00104394 -0.0386987)
(0.00364705 0.00579782 -0.0414918)
(-0.00287182 0.000972743 -0.0367003)
(0.00278875 0.00354048 -0.0422712)
(0.0039413 0.000317847 -0.0413486)
(0.00215513 -0.0027578 -0.0317524)
(0.00293453 0.0036701 -0.0422069)
(0.00275439 0.00630641 -0.0436009)
(-0.00365069 -0.00158167 -0.0483719)
(0.00338825 -0.00268144 -0.040892)
(0.00330764 0.00198803 -0.0366655)
(0.00374827 4.10184e-06 -0.0368437)
(0.00370834 1.48571e-05 -0.0387141)
(0.0038412 0.00127853 -0.0391098)
(0.00380402 -0.00156341 -0.033262)
(0.00343298 0.0021017 -0.0392375)
(0.00263048 0.00289975 -0.0429831)
(0.00374769 0.000164484 -0.0384291)
(0.00367964 0.00206263 -0.0419627)
(0.00393588 0.000351146 -0.0448772)
(0.00389674 -1.12905e-05 -0.041139)
(0.00391344 0.00029628 -0.0445269)
(0.00247287 0.00449097 -0.0440064)
(0.0020276 -0.00521665 -0.0414878)
(0.0038212 5.97373e-05 -0.0419177)
(0.00230472 -0.00530697 -0.042194)
(0.00283801 -0.00333984 -0.0388326)
(0.00218538 -0.00541199 -0.0430874)
(-0.00305151 0.00170947 -0.0477561)
(-0.00307279 0.00149407 -0.0478052)
(-0.00316605 0.00130828 -0.0479787)
(0.00335994 2.72803e-05 -0.0332214)
(0.00293911 0.00176989 -0.0335356)
(0.00367755 0.00068345 -0.036026)
(0.00284948 0.00274716 -0.0353148)
(0.0037475 0.000619489 -0.0364998)
(0.0035185 0.000505598 -0.0351111)
(0.00338113 -0.000128815 -0.0332437)
(0.00110457 0.00341792 -0.0316812)
(0.0027227 0.00311077 -0.042804)
(0.00402946 -0.000114198 -0.0423198)
(0.00173661 0.00411332 -0.0380907)
(0.00398516 -0.000336144 -0.0446079)
(0.00408092 -0.00030312 -0.0458565)
(0.00391478 -0.000560841 -0.0435983)
(0.00400452 -0.000350483 -0.044918)
(0.00380963 0.000890187 -0.0418848)
(0.00315475 0.00267062 -0.0413152)
(0.00242614 -0.00379316 -0.0407295)
(-0.00278337 0.00140259 -0.0474702)
(0.00234791 -0.00396035 -0.0424381)
(0.00349577 0.000663097 -0.0348868)
(0.00243391 -0.00166294 -0.0296566)
(0.00359506 0.000369298 -0.0340315)
(0.00382612 0.000845237 -0.0377429)
(-0.0023259 0.000893913 -0.0330223)
(0.0016827 0.00446972 -0.0369317)
(0.00228698 0.00198203 -0.0424762)
(0.0025734 0.00318356 -0.0420971)
(0.00391204 0.000167696 -0.0441583)
(-0.00296934 0.000823294 -0.0450987)
(0.00401412 0.000180937 -0.0450785)
(0.00133634 -0.00551335 -0.0422187)