/*--------------------------------*- C++ -*----------------------------------*\
| =========                 |                                                 |
| \\      /  F ield         | OpenFOAM: The Open Source CFD Toolbox           |
|  \\    /   O peration     | Version:  plus.master.MPPICInterFoam            |
|   \\  /    A nd           | Web:      www.OpenFOAM.com                      |
|    \\/     M anipulation  |                                                 |
\*---------------------------------------------------------------------------*/
FoamFile
{
    version     2.0;
    format      ascii;
    class       volVectorField;
    location    "12.6";
    object      U;
}
// * * * * * * * * * * * * * * * * * * * * * * * * * * * * * * * * * * * * * //

dimensions      [0 1 -1 0 0 0 0];

internalField   nonuniform List<vector> 
11822
(
(-0.0017546 -0.00413193 0.474538)
(-0.000807008 -0.00339576 0.466628)
(-0.000326831 -0.00277244 0.439801)
(0.000165526 -0.00229899 0.399422)
(0.000620656 -0.00195579 0.351418)
(0.000967936 -0.00171745 0.301042)
(0.00121397 -0.00151459 0.251192)
(-0.00208083 -0.0049518 0.572644)
(-0.000867543 -0.00330795 0.565757)
(-0.000552612 -0.00273675 0.52836)
(0.00014619 -0.00246042 0.470604)
(0.000826562 -0.002065 0.407607)
(0.00122813 -0.00179606 0.34561)
(0.0014623 -0.00158413 0.287247)
(-0.00220983 -0.00470195 0.7247)
(-0.0004205 -0.000149336 0.729714)
(-0.000526951 -0.00145269 0.653524)
(0.00101766 -0.00235353 0.552193)
(0.00175732 -0.0019043 0.46368)
(0.00191658 -0.00162356 0.387247)
(0.00196234 -0.00142298 0.319487)
(-0.00151381 -0.00677004 0.904965)
(0.000357331 3.1977e-05 0.916517)
(-0.00121751 0.000150153 0.797997)
(0.0023832 -0.0016579 0.638634)
(0.00302481 -0.00108408 0.512438)
(0.00276047 -0.000940255 0.420761)
(0.00251234 -0.000917078 0.344954)
(0.00388133 -0.00224479 1.01012)
(0.000752812 -0.00192033 0.926483)
(-0.0022985 -0.00104573 0.844724)
(0.00161218 -0.000605032 0.691544)
(0.00310458 -7.18439e-05 0.540793)
(0.00297765 -1.63866e-06 0.440686)
(0.00272818 -0.000214541 0.360448)
(-0.00136566 0.00314933 0.955392)
(0.000747856 -0.00380508 0.969437)
(-0.000829292 -0.0017003 0.8611)
(0.00158889 0.000689676 0.680916)
(0.00313413 0.0010321 0.541159)
(0.00285162 0.000954551 0.44302)
(0.00265501 0.000488183 0.363926)
(-0.00120116 0.00364311 0.803268)
(0.000303312 0.000135513 0.826266)
(-0.00041222 0.001726 0.748842)
(0.00101354 0.0023584 0.621853)
(0.00188288 0.002065 0.515181)
(0.00205579 0.00168567 0.429195)
(0.00228166 0.000969995 0.355546)
(-0.00186848 -0.00163982 0.474176)
(-0.00143045 -0.00131808 0.46596)
(-0.00113269 -0.00101072 0.438956)
(-0.000780908 -0.00100156 0.398581)
(-0.000298477 -0.00105743 0.350732)
(0.000163654 -0.00110169 0.300634)
(0.00052049 -0.00110226 0.251189)
(-0.00211607 -0.00178731 0.571592)
(-0.00162685 -0.00126406 0.564203)
(-0.00150894 -0.000747714 0.527144)
(-0.00113378 -0.00101306 0.469366)
(-0.000444558 -0.00110935 0.40653)
(0.000144101 -0.00115988 0.344787)
(0.000571472 -0.00118153 0.286805)
(-0.00195252 -0.00168963 0.71548)
(-0.00103743 -0.000346207 0.723254)
(-0.00112965 -0.000517485 0.650509)
(-0.000550043 -0.00126914 0.550607)
(4.74906e-05 -0.0011 0.462216)
(0.000501829 -0.00107265 0.386061)
(0.000841113 -0.00107637 0.31868)
(-0.00171803 -0.00379166 0.888094)
(0.0010995 0.000171747 0.911191)
(0.000144707 0.00152148 0.784756)
(0.00104328 -0.000818388 0.635609)
(0.000968 -0.000531532 0.51062)
(0.00103329 -0.000569223 0.419296)
(0.0011683 -0.000693897 0.343874)
(0.0027045 -0.00314756 0.910581)
(0.00575847 -0.00274612 1.008)
(-0.000247256 -0.001432 0.849323)
(-0.000683058 -0.000358521 0.687)
(0.000744494 0.000158342 0.538618)
(0.000985028 0.000122898 0.439096)
(0.00119411 -0.000168771 0.359215)
(-0.00118741 -0.000429477 0.924072)
(0.00487016 -0.00292268 0.962359)
(0.00157542 -0.00341886 0.855279)
(-6.40621e-05 0.000205318 0.675001)
(0.000559322 0.000785549 0.539056)
(0.000687007 0.000740305 0.441408)
(0.00101988 0.000305322 0.362674)
(-0.00102505 0.00210977 0.786022)
(0.000201868 0.000883366 0.809932)
(-0.00147581 0.000342523 0.740983)
(-0.00170994 0.000986066 0.618901)
(-0.000884395 0.00113044 0.513422)
(-8.33462e-05 0.00104293 0.427804)
(0.000716668 0.00048882 0.354423)
(-0.0020076 0.00114835 0.472495)
(-0.00223651 0.00116971 0.464044)
(-0.00211158 0.000755576 0.436832)
(-0.00167715 0.000131127 0.396358)
(-0.000977835 -0.000418365 0.348628)
(-0.000281101 -0.00079697 0.298906)
(0.000249847 -0.00103585 0.249983)
(-0.00250617 0.00254359 0.57045)
(-0.00321564 0.00214127 0.562843)
(-0.00323812 0.0016614 0.525417)
(-0.00275116 0.000616576 0.466983)
(-0.00167696 -0.000214183 0.404021)
(-0.000655242 -0.000741408 0.342533)
(9.15654e-05 -0.00107199 0.285078)
(-0.003037 0.00336282 0.714599)
(-0.00412972 0.00176611 0.722222)
(-0.0033647 0.00147336 0.649823)
(-0.0030914 0.000570763 0.548468)
(-0.00202241 -6.45838e-05 0.459474)
(-0.000804542 -0.000605119 0.383411)
(8.00983e-05 -0.000951303 0.316503)
(-0.00637771 0.00495345 0.886371)
(-0.00410397 0.00105313 0.922109)
(-0.000522777 0.000563585 0.784218)
(-0.00267081 0.000525427 0.633735)
(-0.00214339 0.000181877 0.507623)
(-0.00087955 -0.000271552 0.416354)
(8.097e-05 -0.000667655 0.341355)
(-0.00688996 0.00153792 0.918055)
(-0.00450688 0.00225404 0.988244)
(0.000956126 -0.0012797 0.879647)
(-0.00408785 0.000470659 0.683586)
(-0.00281067 0.000382524 0.535474)
(-0.00128502 7.3689e-05 0.435995)
(-0.000118866 -0.000351973 0.356502)
(-0.00573568 -0.00102457 0.884143)
(-0.00283042 0.00203996 0.953309)
(-0.0032859 -0.00188199 0.859169)
(-0.00462577 -0.000463644 0.673642)
(-0.00346023 0.000197278 0.536236)
(-0.00173919 0.000224359 0.438321)
(-0.000358934 -0.000136727 0.359903)
(-0.00259211 -0.00151787 0.785006)
(-0.00371673 7.57833e-06 0.807223)
(-0.00584551 -0.00171625 0.740877)
(-0.00585383 -0.00155069 0.617056)
(-0.00419053 -0.000392361 0.510605)
(-0.00214334 7.49165e-05 0.424742)
(-0.000483088 -0.000207038 0.351706)
(-0.00243844 0.000586474 0.469473)
(-0.00248766 0.000492708 0.460795)
(-0.00208792 -0.000321562 0.433465)
(-0.00130573 -0.000847022 0.393273)
(-0.000479971 -0.00128393 0.346248)
(0.000203193 -0.00157532 0.29755)
(0.000650684 -0.00172421 0.249897)
(-0.00329448 0.00242139 0.57005)
(-0.0040026 0.00201282 0.561786)
(-0.0035497 0.000671391 0.522543)
(-0.00238454 -0.000221298 0.463025)
(-0.00109466 -0.000962749 0.400447)
(-2.88946e-05 -0.00144192 0.339989)
(0.000686713 -0.00171202 0.283893)
(-0.00490264 0.00383736 0.725029)
(-0.00641669 0.00251254 0.726673)
(-0.0043991 0.000570168 0.653811)
(-0.00306592 0.000289391 0.54592)
(-0.00153156 -0.000526966 0.455089)
(-0.000144136 -0.00115965 0.379838)
(0.00076736 -0.00152718 0.314362)
(-0.00971884 0.0074812 0.897747)
(-0.00812862 0.00147226 0.881778)
(-0.00203155 -0.00198159 0.800883)
(-0.003492 0.000961799 0.635288)
(-0.00208525 6.78759e-05 0.503103)
(-0.000368151 -0.000677661 0.412044)
(0.000749388 -0.00116069 0.338472)
(-0.0104264 0.0062015 0.965313)
(-0.00970493 0.00226186 0.938829)
(-0.00711894 -0.000658278 0.880735)
(-0.00714606 0.000255621 0.685496)
(-0.00363259 -7.66269e-05 0.531027)
(-0.00116271 -0.000453333 0.431292)
(0.000440135 -0.000854598 0.35315)
(-0.009221 0.00105261 0.908877)
(-0.0102526 0.00148598 0.960132)
(-0.00795721 -8.69821e-05 0.866808)
(-0.00560006 -0.00159706 0.677628)
(-0.00361098 -0.000701033 0.531861)
(-0.00132434 -0.000406206 0.433533)
(0.00027768 -0.000622217 0.356423)
(-0.00477204 -0.00406898 0.800859)
(-0.00757759 -0.00231722 0.834935)
(-0.00846843 -0.00219226 0.752408)
(-0.00643471 -0.00220026 0.616757)
(-0.0039424 -0.000906095 0.505886)
(-0.00158361 -0.000289116 0.420157)
(0.000115773 -0.000472075 0.348421)
(-0.00349953 -0.00458334 0.464927)
(-0.00201292 -0.00494704 0.456046)
(-0.000341693 -0.00556265 0.428746)
(0.00142483 -0.00532249 0.388765)
(0.00275042 -0.00519074 0.342253)
(0.00379623 -0.00522262 0.294137)
(0.00459906 -0.00531629 0.246893)
(-0.00457223 -0.00395492 0.564411)
(-0.00324879 -0.00413786 0.556036)
(-0.00116555 -0.00547722 0.51614)
(0.00127489 -0.00506669 0.45707)
(0.00284004 -0.00483072 0.395392)
(0.00396847 -0.00482277 0.335845)
(0.00482977 -0.00489844 0.280431)
(-0.0069958 -0.0029359 0.724388)
(-0.0057472 -0.00300724 0.722479)
(-0.0015372 -0.00593393 0.646121)
(0.00175114 -0.00434434 0.537698)
(0.00336457 -0.00401283 0.448657)
(0.00440079 -0.00406956 0.37483)
(0.00517555 -0.0041713 0.310325)
(-0.0114767 -0.000260938 0.897521)
(-0.00844825 -0.00338643 0.883166)
(-0.0007762 -0.00794874 0.798967)
(0.00222607 -0.00249904 0.625827)
(0.00373687 -0.00251004 0.495353)
(0.00469297 -0.00283168 0.406212)
(0.00541166 -0.00310329 0.333868)
(-0.0105978 0.00310274 0.973533)
(-0.0105819 -0.00154674 0.94402)
(-0.0100914 -0.00264285 0.877379)
(-0.00251153 -0.00148089 0.67668)
(0.00229481 -0.00160406 0.522836)
(0.00409767 -0.00171638 0.424815)
(0.00520817 -0.00198487 0.34808)
(-0.0127556 0.00382857 0.958201)
(-0.0110681 0.000705781 0.962224)
(-0.00537627 0.00158301 0.860461)
(0.00019118 -0.0012767 0.668363)
(0.00254786 -0.000840961 0.523176)
(0.00397912 -0.000620351 0.426842)
(0.00499793 -0.00085393 0.351109)
(-0.00825083 0.000839997 0.805846)
(-0.00763833 0.00161994 0.836727)
(-0.00445648 0.00153886 0.746425)
(-0.000725565 0.000690222 0.606879)
(0.001592 0.000700183 0.497611)
(0.00319734 0.000699345 0.413568)
(0.00442126 0.000294755 0.343041)
(-0.00488653 -0.00809199 0.462972)
(-0.00170724 -0.00888288 0.453416)
(0.0009829 -0.00919391 0.425999)
(0.00333129 -0.00884148 0.386512)
(0.0051092 -0.0088246 0.340903)
(0.00659431 -0.00899764 0.294128)
(0.00783998 -0.00908504 0.248914)
(-0.00561275 -0.00884197 0.559863)
(-0.00214538 -0.00892644 0.550584)
(0.000995574 -0.00938208 0.510398)
(0.00376222 -0.00848065 0.452918)
(0.00553996 -0.00814071 0.392538)
(0.00706752 -0.00815301 0.334241)
(0.00845616 -0.00814891 0.280479)
(-0.00785552 -0.00874885 0.71504)
(-0.0031309 -0.00848304 0.711942)
(0.00163638 -0.00928197 0.634349)
(0.00503513 -0.00772759 0.530073)
(0.00658665 -0.00716718 0.44419)
(0.00777418 -0.00698977 0.371995)
(0.00900336 -0.00691095 0.309015)
(-0.0111853 -0.0066821 0.881215)
(-0.00566092 -0.00771903 0.861007)
(0.00181762 -0.00936903 0.778196)
(0.0064139 -0.00621113 0.612598)
(0.0078297 -0.00538977 0.489005)
(0.00851912 -0.00521455 0.40242)
(0.00943478 -0.00519006 0.331662)
(-0.013016 -0.0015312 0.949994)
(-0.00899404 -0.00375186 0.916743)
(-0.00358573 -0.00492768 0.826782)
(0.00540989 -0.00423885 0.655074)
(0.00764199 -0.00344248 0.515323)
(0.00836832 -0.00311985 0.420385)
(0.00933023 -0.0031666 0.345377)
(-0.0142056 0.00303061 0.939105)
(-0.00803913 0.00129177 0.941461)
(0.000191925 -0.000520621 0.830843)
(0.00544689 -0.00153885 0.650616)
(0.00718775 -0.00105317 0.514665)
(0.00785049 -0.000770242 0.422105)
(0.00878655 -0.000992304 0.348316)
(-0.011846 0.00539529 0.796802)
(-0.00626939 0.00540627 0.823315)
(-0.000305995 0.00364006 0.727604)
(0.00338462 0.00247691 0.593933)
(0.00509262 0.00198475 0.490278)
(0.00620927 0.00172753 0.409198)
(0.0074414 0.00127192 0.340728)
(0.00120254 -0.00136683 0.209076)
(0.00109774 -0.00120495 0.176707)
(0.000966181 -0.00103808 0.146911)
(0.000809341 -0.000864849 0.119908)
(0.000624559 -0.000689548 0.0955323)
(0.000418943 -0.000523916 0.0731685)
(0.000197778 -0.000390879 0.0511616)
(-4.04648e-05 -0.000307924 0.0234311)
(0.0014382 -0.00149069 0.237051)
(0.00129095 -0.00142067 0.196651)
(0.00110479 -0.0013744 0.161038)
(0.000869437 -0.00133219 0.129522)
(0.000589151 -0.0012912 0.101529)
(0.00027784 -0.00125253 0.076212)
(-4.03056e-05 -0.00122145 0.0516775)
(-0.000339548 -0.00118022 0.021286)
(0.001854 -0.00139831 0.262794)
(0.00167452 -0.00144542 0.217325)
(0.00144966 -0.00153714 0.177592)
(0.00116945 -0.00164754 0.142794)
(0.000838837 -0.00176446 0.11217)
(0.000474618 -0.00187961 0.0847247)
(0.00010714 -0.00198577 0.0583851)
(-0.000228111 -0.00203767 0.0260093)
(0.00228748 -0.00103612 0.284231)
(0.00208491 -0.00122902 0.236531)
(0.00185247 -0.00147463 0.194973)
(0.00157746 -0.0017504 0.158688)
(0.00125989 -0.00203648 0.126845)
(0.00091303 -0.00231613 0.0983725)
(0.000564023 -0.00256953 0.0710852)
(0.000242609 -0.00272027 0.0374145)
(0.00250679 -0.000493084 0.298911)
(0.00233581 -0.000826949 0.25236)
(0.00215511 -0.0012139 0.211717)
(0.00195215 -0.00163867 0.176118)
(0.00172046 -0.00207424 0.144756)
(0.00146579 -0.00249742 0.11657)
(0.00120587 -0.00288027 0.089334)
(0.000949466 -0.00313002 0.0551577)
(0.00247546 7.97827e-05 0.305544)
(0.00235585 -0.00035725 0.263835)
(0.00226539 -0.00084226 0.227011)
(0.00218552 -0.00136289 0.194351)
(0.0020978 -0.00188952 0.165234)
(0.00199685 -0.00239583 0.138721)
(0.00188526 -0.00285009 0.112635)
(0.00174294 -0.00315219 0.078882)
(0.00230867 0.000381151 0.303792)
(0.00229278 -9.50065e-05 0.271267)
(0.00231265 -0.00060996 0.240816)
(0.00236789 -0.00114841 0.212981)
(0.00243035 -0.00169138 0.187612)
(0.00249556 -0.00221662 0.163994)
(0.00256042 -0.00269962 0.140056)
(0.00258559 -0.00305145 0.107563)
(0.000645724 -0.00107264 0.20957)
(0.000643169 -0.00101224 0.177643)
(0.000596705 -0.000923055 0.14828)
(0.000505411 -0.00081644 0.121677)
(0.00038068 -0.000702806 0.0976521)
(0.00023146 -0.000594853 0.0755888)
(5.73931e-05 -0.000506996 0.0538451)
(-0.000104023 -0.000466065 0.0263951)
(0.000745565 -0.00119349 0.23712)
(0.000760799 -0.0012286 0.197238)
(0.000694244 -0.00125021 0.162127)
(0.00055328 -0.00126128 0.131074)
(0.00035661 -0.00126285 0.103486)
(0.000125186 -0.0012592 0.0785133)
(-0.000123091 -0.00124908 0.0542812)
(-0.000317995 -0.00122072 0.02424)
(0.000999279 -0.00115728 0.262497)
(0.00102732 -0.00129233 0.217565)
(0.000957717 -0.00143617 0.178366)
(0.000801155 -0.00158339 0.144062)
(0.000577805 -0.0017258 0.11387)
(0.000312829 -0.00185831 0.0867849)
(3.02047e-05 -0.00197074 0.0607484)
(-0.000192477 -0.00201551 0.0286985)
(0.00126711 -0.000907006 0.283647)
(0.0013105 -0.00115061 0.236467)
(0.00126687 -0.00142588 0.195437)
(0.00114364 -0.00171585 0.159646)
(0.00095548 -0.00200494 0.128233)
(0.000724664 -0.00227927 0.100115)
(0.000473578 -0.00252027 0.0731131)
(0.000263129 -0.00264616 0.0397181)
(0.00134427 -0.000524923 0.298146)
(0.00144492 -0.000861067 0.252072)
(0.0014796 -0.00124517 0.211916)
(0.00144918 -0.00165212 0.176778)
(0.00136163 -0.00205983 0.145818)
(0.00123203 -0.00244806 0.117961)
(0.00107608 -0.00279336 0.0909836)
(0.000923518 -0.00299897 0.0570353)
(0.00123347 -0.000147973 0.304718)
(0.00139048 -0.00053577 0.263415)
(0.00152427 -0.000974673 0.227009)
(0.00162113 -0.00143655 0.19475)
(0.00167754 -0.00189782 0.165987)
(0.00169762 -0.00233565 0.139765)
(0.00168434 -0.00272449 0.113904)
(0.00163318 -0.00296376 0.0803422)
(0.00110625 -3.20925e-05 0.303024)
(0.00130839 -0.000420857 0.270811)
(0.00152935 -0.00084866 0.240688)
(0.00173878 -0.00129031 0.213176)
(0.00192775 -0.00173012 0.188099)
(0.00209719 -0.00215102 0.164724)
(0.00224466 -0.00253548 0.140978)
(0.0023423 -0.00279575 0.108642)
(0.000483835 -0.00113816 0.208907)
(0.000533564 -0.00115404 0.177405)
(0.000504722 -0.00109346 0.14839)
(0.00039573 -0.000988866 0.122025)
(0.00022863 -0.000857222 0.0981001)
(2.54497e-05 -0.000724491 0.0759699)
(-0.000179647 -0.000633405 0.0539225)
(-0.000388854 -0.000557264 0.0256472)
(0.000471038 -0.00126278 0.236012)
(0.00059262 -0.00142427 0.196681)
(0.000566246 -0.00150674 0.16203)
(0.000422821 -0.00155188 0.131309)
(0.000190086 -0.00157218 0.103899)
(-9.55998e-05 -0.00158793 0.0789249)
(-0.000373586 -0.0016294 0.0544412)
(-0.000661664 -0.0016678 0.0235869)
(0.000561871 -0.00122856 0.260963)
(0.000767625 -0.00149281 0.216649)
(0.000787504 -0.00171175 0.177989)
(0.000665507 -0.00191069 0.144097)
(0.000433909 -0.00209319 0.114165)
(0.000136172 -0.00226751 0.0871612)
(-0.000156238 -0.0024471 0.0609702)
(-0.000458149 -0.0025965 0.0282573)
(0.000633532 -0.00103539 0.281753)
(0.000925468 -0.00136925 0.235206)
(0.00102535 -0.00170794 0.194748)
(0.000979589 -0.00204438 0.159415)
(0.000819086 -0.00237167 0.12832)
(0.000585637 -0.00268389 0.100362)
(0.000346164 -0.00297334 0.0733204)
(9.24655e-05 -0.003182 0.0394985)
(0.000556129 -0.000786912 0.296005)
(0.000944307 -0.00113929 0.250527)
(0.00115831 -0.00154868 0.210928)
(0.00123646 -0.00197237 0.17625)
(0.00120563 -0.00239412 0.14563)
(0.00110076 -0.00279578 0.11798)
(0.000972121 -0.00315265 0.0910562)
(0.000810118 -0.00338228 0.056902)
(0.000390857 -0.000582265 0.302462)
(0.000829524 -0.000905206 0.261676)
(0.00114648 -0.00131607 0.22577)
(0.00135837 -0.0017529 0.193935)
(0.00148209 -0.00219432 0.165497)
(0.00154102 -0.00261453 0.139494)
(0.00156229 -0.00297973 0.113741)
(0.00152399 -0.00319191 0.0801297)
(0.000319608 -0.000611322 0.300784)
(0.000720531 -0.000899834 0.268974)
(0.00110326 -0.00125381 0.239261)
(0.00141347 -0.00162764 0.21211)
(0.00166814 -0.00200635 0.187319)
(0.00188022 -0.00237098 0.16415)
(0.00206213 -0.00269543 0.14053)
(0.00218109 -0.00288415 0.108229)
(0.000798414 -0.00178762 0.210029)
(0.000767803 -0.00178645 0.179555)
(0.000645534 -0.0017031 0.151571)
(0.000422062 -0.00157069 0.126237)
(0.000139231 -0.00141687 0.103364)
(-0.000180704 -0.00126299 0.0823699)
(-0.000573546 -0.00109281 0.0617535)
(-0.000827878 -0.00108843 0.0360239)
(0.000995968 -0.00187719 0.236188)
(0.00103282 -0.00199001 0.198047)
(0.000906546 -0.00200906 0.16454)
(0.000644342 -0.00197828 0.134941)
(0.000293319 -0.00191096 0.108662)
(-0.000108957 -0.00181453 0.0848947)
(-0.000590902 -0.00164802 0.0619264)
(-0.000805765 -0.00147724 0.0338589)
(0.00120583 -0.00180471 0.260284)
(0.00133851 -0.00203163 0.21722)
(0.00126465 -0.00219557 0.179743)
(0.00103005 -0.00232027 0.146993)
(0.000680571 -0.00240692 0.118187)
(0.000256841 -0.00245185 0.0923526)
(-0.000263572 -0.00241409 0.0675828)
(-0.000509277 -0.00221617 0.0374711)
(0.00131944 -0.00153557 0.280374)
(0.00157558 -0.00184779 0.23507)
(0.00161285 -0.00214382 0.19577)
(0.0014857 -0.0024165 0.161532)
(0.0012355 -0.00265836 0.131491)
(0.000897265 -0.00285793 0.104586)
(0.000450169 -0.00298017 0.0787648)
(0.000189681 -0.00284547 0.0471008)
(0.00121805 -0.0012297 0.294148)
(0.00161634 -0.00153608 0.249843)
(0.00180273 -0.00189356 0.21132)
(0.00183513 -0.00225196 0.177637)
(0.00175253 -0.00259611 0.14795)
(0.0015824 -0.00290968 0.121197)
(0.00129951 -0.00316917 0.0952537)
(0.00107763 -0.00317031 0.0627377)
(0.00107568 -0.000938493 0.30039)
(0.00151536 -0.00117215 0.260645)
(0.00180822 -0.0015082 0.225684)
(0.00198791 -0.00187027 0.194704)
(0.00208188 -0.00223629 0.167048)
(0.00210558 -0.00258666 0.14177)
(0.00202792 -0.00290963 0.116767)
(0.00190517 -0.00303047 0.0843216)
(0.000903652 -0.000748145 0.298764)
(0.00128866 -0.000916829 0.267764)
(0.00164073 -0.0011628 0.238818)
(0.00191385 -0.001438 0.212361)
(0.00213671 -0.00172604 0.188186)
(0.00231425 -0.00201621 0.165567)
(0.00241725 -0.00231188 0.142484)
(0.00242987 -0.00249001 0.110943)
(0.00483529 -0.00541788 0.207151)
(0.00474055 -0.00540344 0.176586)
(0.00451349 -0.00527931 0.148234)
(0.00411968 -0.00502863 0.122089)
(0.00354151 -0.00463943 0.097738)
(0.00284294 -0.00416483 0.0742437)
(0.0022534 -0.00380519 0.0493748)
(0.000982114 -0.00289717 0.015161)
(0.00517776 -0.0051279 0.233116)
(0.00519131 -0.00527709 0.195087)
(0.00504352 -0.00536529 0.161404)
(0.00469421 -0.00538099 0.131193)
(0.00411005 -0.00532234 0.103628)
(0.00334904 -0.00522964 0.0775093)
(0.00270669 -0.00526223 0.0503209)
(0.00108505 -0.00488921 0.0133481)
(0.00556413 -0.00443585 0.256815)
(0.00570082 -0.00468692 0.213993)
(0.00566887 -0.00491976 0.176482)
(0.00542348 -0.005125 0.143295)
(0.00492262 -0.00530767 0.113429)
(0.00421921 -0.00550128 0.0855333)
(0.00365511 -0.00581488 0.0569177)
(0.00191935 -0.00597025 0.0184427)
(0.00581467 -0.00339079 0.276454)
(0.00603212 -0.00367899 0.231445)
(0.00609308 -0.00398475 0.192184)
(0.00595055 -0.00430227 0.157632)
(0.00555588 -0.00464008 0.126742)
(0.00496149 -0.00502218 0.098136)
(0.00453927 -0.00548706 0.0690983)
(0.00289008 -0.00605478 0.0303839)
(0.00573027 -0.00221058 0.28981)
(0.00599756 -0.00245093 0.245781)
(0.00611895 -0.00275486 0.207301)
(0.0060594 -0.00311208 0.173365)
(0.00576886 -0.00353024 0.142994)
(0.00529863 -0.00401694 0.114893)
(0.00501533 -0.00452633 0.0864406)
(0.00359403 -0.00536441 0.048486)
(0.0054541 -0.00101666 0.295751)
(0.00564147 -0.00118776 0.256199)
(0.00574246 -0.00145974 0.221235)
(0.00571543 -0.00182083 0.190017)
(0.00550408 -0.00228062 0.161799)
(0.0051523 -0.00282651 0.13548)
(0.0049798 -0.00333101 0.108627)
(0.00388091 -0.00430732 0.0723035)
(0.00491092 7.41878e-06 0.293916)
(0.00499323 -0.000121123 0.262967)
(0.00505346 -0.000350199 0.23395)
(0.00503161 -0.000693532 0.20724)
(0.0048855 -0.00117371 0.182577)
(0.00465541 -0.00175866 0.15914)
(0.00457705 -0.0022621 0.134697)
(0.00386089 -0.00328088 0.100463)
(0.00868059 -0.00941532 0.211891)
(0.00890532 -0.00982723 0.184477)
(0.0088541 -0.0101011 0.16033)
(0.0083803 -0.0101265 0.13966)
(0.00740303 -0.00985194 0.122501)
(0.0058539 -0.00924026 0.108934)
(0.00373946 -0.00833497 0.0996957)
(-4.97582e-05 -0.00618538 0.0985857)
(0.0094968 -0.0083193 0.235524)
(0.010097 -0.00854778 0.20046)
(0.0103605 -0.00874577 0.170729)
(0.0101573 -0.00875854 0.145741)
(0.00939073 -0.00850826 0.125166)
(0.00797973 -0.00793096 0.108898)
(0.00600819 -0.0070277 0.0976388)
(0.00214612 -0.00495538 0.0959041)
(0.0100073 -0.0070268 0.257575)
(0.0107678 -0.00718803 0.217382)
(0.0112419 -0.00731852 0.183465)
(0.0112853 -0.00730299 0.155132)
(0.0107576 -0.00707708 0.131895)
(0.00950535 -0.00657463 0.113511)
(0.00758453 -0.00574391 0.100488)
(0.00335003 -0.00396788 0.0972723)
(0.0103309 -0.00524566 0.276161)
(0.0111279 -0.00530253 0.233514)
(0.011709 -0.00529739 0.197545)
(0.0119108 -0.00517925 0.167511)
(0.011567 -0.00490908 0.142855)
(0.0104825 -0.00443677 0.123258)
(0.00861699 -0.00364857 0.109099)
(0.00396974 -0.00224072 0.104204)
(0.0101823 -0.00314843 0.288999)
(0.0109285 -0.00306115 0.247173)
(0.0115041 -0.00288279 0.211777)
(0.0117538 -0.00262713 0.182093)
(0.0115134 -0.00228688 0.157596)
(0.0105751 -0.00184844 0.137971)
(0.00875277 -0.00121872 0.123483)
(0.00378652 -0.000592777 0.116924)
(0.00958981 -0.000958842 0.294954)
(0.0101766 -0.000725526 0.257548)
(0.0106385 -0.000380966 0.225545)
(0.0108273 -5.09741e-06 0.198381)
(0.0106059 0.000370186 0.175714)
(0.00979203 0.000702755 0.157328)
(0.00811175 0.000964784 0.143422)
(0.00329478 0.000309095 0.135637)
(0.00828068 0.00133754 0.293705)
(0.00853063 0.00192511 0.264773)
(0.00872423 0.00254955 0.238578)
(0.00870622 0.00311983 0.2157)
(0.00836773 0.00359911 0.19623)
(0.0075638 0.00391779 0.180124)
(0.00601167 0.00395002 0.167532)
(0.00171901 0.00228017 0.158859)
(-0.00410779 0.00330807 0.712088)
(-0.0037623 0.00260553 0.643229)
(-0.00301036 0.00252138 0.592254)
(-0.00227706 0.00248923 0.548893)
(-0.00156808 0.0024532 0.510732)
(-0.000805396 0.00229942 0.4755)
(6.12809e-05 0.00215532 0.438536)
(0.000990683 0.00217799 0.381557)
(-0.00776012 0.00246685 0.816518)
(-0.00955914 0.00246448 0.70331)
(-0.00810246 0.00277054 0.630143)
(-0.00642478 0.00297676 0.576302)
(-0.00480816 0.00288845 0.53098)
(-0.00330791 0.00252842 0.49069)
(-0.00182951 0.00211104 0.45003)
(-0.000421855 0.00181945 0.389743)
(-0.00558387 -0.0016841 0.849036)
(-0.0107635 -0.000400109 0.719253)
(-0.0102732 0.000367021 0.634719)
(-0.00863187 0.00080005 0.57611)
(-0.00674968 0.000827301 0.527407)
(-0.00489387 0.000496439 0.484706)
(-0.00311288 -6.86901e-06 0.442398)
(-0.00150647 -0.000538317 0.380948)
(-0.00792256 -0.003973 0.782152)
(-0.0101436 -0.00263476 0.671013)
(-0.00945548 -0.00207583 0.597923)
(-0.00796916 -0.00175957 0.543562)
(-0.0062615 -0.00174193 0.497555)
(-0.00450796 -0.00200433 0.456784)
(-0.00279318 -0.0024658 0.416151)
(-0.00124969 -0.00304608 0.35714)
(-0.00549695 -0.0040194 0.64969)
(-0.00620336 -0.00365536 0.582865)
(-0.00565079 -0.00340291 0.531483)
(-0.00470907 -0.00327305 0.487077)
(-0.0035542 -0.00334289 0.447924)
(-0.00228669 -0.00360756 0.41219)
(-0.000984807 -0.00406366 0.375753)
(0.000234669 -0.0047068 0.322034)
(-0.00326099 -0.00379628 0.538409)
(-0.0031459 -0.00328629 0.495761)
(-0.00269573 -0.00315073 0.457183)
(-0.002033 -0.0032342 0.422008)
(-0.0012098 -0.00342917 0.389917)
(-0.000277789 -0.00371513 0.359787)
(0.000706352 -0.00409068 0.328286)
(0.0016376 -0.00454259 0.281049)
(-0.0021533 -0.00339616 0.453415)
(-0.00173696 -0.00311022 0.419629)
(-0.0011691 -0.00310172 0.388341)
(-0.000483424 -0.00323916 0.359337)
(0.000292716 -0.00342543 0.332436)
(0.00113177 -0.00364954 0.306733)
(0.00200964 -0.0039163 0.279408)
(0.00286008 -0.00423215 0.238108)
(-0.00305284 0.000889667 0.707827)
(-0.00254969 0.000813109 0.642855)
(-0.00209048 0.00107093 0.593108)
(-0.00169767 0.00146586 0.550524)
(-0.00128279 0.00154822 0.512969)
(-0.000732412 0.00150678 0.478223)
(-4.23902e-05 0.0014952 0.441652)
(0.00076352 0.00167243 0.384948)
(-0.00781583 0.00104353 0.790682)
(-0.00771772 0.00148648 0.700442)
(-0.0060017 0.00179255 0.630488)
(-0.00468087 0.00216744 0.577957)
(-0.00362177 0.00201238 0.533393)
(-0.00258414 0.00167277 0.493641)
(-0.00149208 0.00135958 0.453392)
(-0.000397365 0.00123465 0.39338)
(-0.00657922 -0.0016379 0.813603)
(-0.00834193 -0.000248205 0.714449)
(-0.0071009 0.000481535 0.635153)
(-0.005865 0.000818052 0.577824)
(-0.00464601 0.000649598 0.529827)
(-0.00344962 0.00025154 0.487621)
(-0.00225264 -0.00020695 0.44569)
(-0.0011411 -0.000618054 0.384492)
(-0.00634702 -0.002242 0.767302)
(-0.00728405 -0.00114174 0.668714)
(-0.0064546 -0.000761305 0.598608)
(-0.00539866 -0.000733688 0.545145)
(-0.00428132 -0.000976515 0.499697)
(-0.00313359 -0.00139584 0.459358)
(-0.00197386 -0.00192288 0.419079)
(-0.000911042 -0.00251516 0.360326)
(-0.00361222 -0.00117973 0.647035)
(-0.00382915 -0.00128676 0.582851)
(-0.00350129 -0.00143891 0.532291)
(-0.00296601 -0.00167346 0.488382)
(-0.00226737 -0.00202499 0.449639)
(-0.0014493 -0.00249824 0.414273)
(-0.000554691 -0.00309952 0.378155)
(0.00031106 -0.00386497 0.324694)
(-0.00242998 -0.000820051 0.538297)
(-0.00217453 -0.000871324 0.496136)
(-0.00182541 -0.00120933 0.45787)
(-0.00135824 -0.00163042 0.423002)
(-0.000762902 -0.0020868 0.391234)
(-6.47098e-05 -0.00257488 0.361414)
(0.000696781 -0.00310656 0.330186)
(0.00143422 -0.00370663 0.28318)
(-0.00184432 -0.00121797 0.453511)
(-0.00142043 -0.00135647 0.419958)
(-0.000911506 -0.00166249 0.388897)
(-0.000326772 -0.00202245 0.360151)
(0.00032527 -0.00238939 0.333518)
(0.00102848 -0.00275698 0.308064)
(0.00176842 -0.00313969 0.280952)
(0.00249386 -0.00356535 0.239824)
(-0.00205944 -0.00187826 0.708354)
(-0.00165405 -0.000925121 0.64344)
(-0.00175101 -0.000121322 0.593619)
(-0.0017412 0.000344558 0.551245)
(-0.00147682 0.000492677 0.514049)
(-0.000988597 0.00059817 0.479733)
(-0.000339329 0.000756815 0.443581)
(0.000449518 0.00113524 0.387229)
(-0.00558197 -0.000139276 0.78931)
(-0.0034162 -3.27335e-05 0.701225)
(-0.0028899 0.000415983 0.631275)
(-0.00280016 0.000527143 0.578796)
(-0.00255033 0.000436714 0.534499)
(-0.00202226 0.0003702 0.495166)
(-0.00129237 0.000386963 0.455352)
(-0.000462837 0.00061534 0.395705)
(-0.00377212 0.00128017 0.814558)
(-0.00159133 0.000793299 0.716024)
(-0.00179608 0.000708386 0.63594)
(-0.00216311 0.000398814 0.578444)
(-0.00223793 4.58924e-05 0.530643)
(-0.00196598 -0.000264021 0.488858)
(-0.00144652 -0.000523737 0.44738)
(-0.000868099 -0.000685652 0.386567)
(-0.00365675 0.00360229 0.7673)
(-0.00217122 0.00219816 0.668973)
(-0.00194305 0.00124496 0.598701)
(-0.00208237 0.000461492 0.54525)
(-0.00203747 -0.000210409 0.500107)
(-0.00173567 -0.00081109 0.460222)
(-0.00122251 -0.00139032 0.420403)
(-0.000671737 -0.00197931 0.362061)
(-0.00134549 0.00363653 0.646771)
(-0.000871484 0.00226637 0.582439)
(-0.0010406 0.00108238 0.531763)
(-0.00115256 0.000156405 0.48803)
(-0.00104617 -0.000641357 0.449675)
(-0.000716962 -0.00139257 0.41477)
(-0.000218702 -0.00216693 0.379085)
(0.000313983 -0.0030689 0.326016)
(-0.00155813 0.00290995 0.537337)
(-0.00115262 0.00175679 0.495073)
(-0.000989121 0.0007553 0.456949)
(-0.000759999 -8.82431e-05 0.422416)
(-0.000388727 -0.000836398 0.391052)
(9.99811e-05 -0.00153095 0.361643)
(0.000671343 -0.00221191 0.330775)
(0.00122957 -0.00295362 0.284091)
(-0.0015034 0.00103767 0.452078)
(-0.00106607 0.000270829 0.418673)
(-0.000637139 -0.00039151 0.387919)
(-0.000161463 -0.000956936 0.359525)
(0.000373817 -0.00147232 0.333254)
(0.000956307 -0.00195271 0.308121)
(0.00157608 -0.00242546 0.281274)
(0.00217983 -0.00295234 0.240388)
(-0.00314876 -0.00184878 0.714781)
(-0.00313033 -0.000413873 0.644073)
(-0.00339809 0.000319951 0.593433)
(-0.00330508 0.000401677 0.551413)
(-0.00279643 0.000400299 0.514905)
(-0.00205055 0.00044425 0.481322)
(-0.00114292 0.000552809 0.44581)
(-6.34183e-05 0.000873899 0.389975)
(-0.00423821 0.000702488 0.812862)
(-0.00265156 3.65065e-05 0.707609)
(-0.00332461 9.09342e-05 0.631939)
(-0.00372278 -0.000105627 0.578818)
(-0.0035394 -8.93808e-05 0.535036)
(-0.0028823 3.77917e-05 0.496503)
(-0.00193029 0.000205387 0.45743)
(-0.000807159 0.000518545 0.398387)
(-0.00264588 0.00386998 0.848991)
(-0.000263185 0.00178575 0.724814)
(-0.00142922 0.000749872 0.636505)
(-0.00246823 0.000148657 0.577936)
(-0.00285022 -0.000132672 0.530644)
(-0.00261107 -0.00026028 0.489758)
(-0.00196097 -0.000355469 0.44907)
(-0.00112378 -0.000415098 0.38892)
(-0.00429265 0.00542947 0.782238)
(-0.00180546 0.00325598 0.673634)
(-0.00200105 0.00168803 0.59813)
(-0.00257078 0.000705855 0.544257)
(-0.00273934 4.64364e-05 0.499772)
(-0.0024369 -0.000454416 0.460763)
(-0.00179209 -0.000928266 0.421727)
(-0.000987619 -0.00145015 0.364048)
(-0.00217165 0.00443925 0.651371)
(-0.00154143 0.00271992 0.581733)
(-0.00181486 0.00137042 0.530063)
(-0.00205229 0.000424409 0.486778)
(-0.00196733 -0.000301927 0.449238)
(-0.00155897 -0.000950688 0.415141)
(-0.000910229 -0.00162498 0.380124)
(-0.000133134 -0.00245522 0.327614)
(-0.00231385 0.00278258 0.535416)
(-0.0019532 0.00156136 0.492666)
(-0.00185612 0.000657847 0.455114)
(-0.00166762 -3.46711e-05 0.42137)
(-0.00129027 -0.000634384 0.390769)
(-0.000749863 -0.00118739 0.362006)
(-8.43057e-05 -0.00174281 0.331643)
(0.000646396 -0.00237976 0.285391)