/*--------------------------------*- C++ -*----------------------------------*\
| =========                 |                                                 |
| \\      /  F ield         | OpenFOAM: The Open Source CFD Toolbox           |
|  \\    /   O peration     | Version:  plus.master.MPPICInterFoam            |
|   \\  /    A nd           | Web:      www.OpenFOAM.com                      |
|    \\/     M anipulation  |                                                 |
\*---------------------------------------------------------------------------*/
FoamFile
{
    version     2.0;
    format      ascii;
    class       scalarField;
    location    "11.8/lagrangian/kinematicCloud";
    object      age;
}
// * * * * * * * * * * * * * * * * * * * * * * * * * * * * * * * * * * * * * //


143
(
11.524
11.7473
11.3264
11.7665
10.9727
10.9583
11.0752
10.9705
11.7708
11.0001
11.0404
11.4083
11.7597
11.7543
11.8
11.1074
11.0816
10.9816
11.04
11.0396
11.137
11.0407
10.9724
11.3542
10.9416
11.0045
11.412
11.1412
11.628
10.932
11.2736
11.5057
11.0719
11.081
11.7786
11.7947
11.2483
11.6211
11.2035
10.9032
11.2056
10.9287
11.4963
11.1811
11.0001
11.1315
10.9
11.0703
10.9913
11.0801
11.2752
11.784
10.9945
11.012
11.6303
11.1001
11.2001
11.0645
11.251
11.3571
10.8726
11.1747
11.2142
10.9235
10.9175
11.2878
11.5901
11.0901
11.0765
11.5096
11.7095
11.0036
10.8707
11.2397
11.5849
11.1259
10.9301
11.0354
11.7138
11.2608
11.3159
11.0211
11.0807
11.1002
11.7325
11.401
11.0956
11.7289
10.9848
11.1182
11.0027
11.1207
10.9538
11.7471
10.9818
10.9304
11.2098
11.0335
11.2149
11.3155
11.0814
11.0955
11.4073
11.1129
10.8881
11.1301
11.0303
10.8759
11.266
10.9913
10.9365
11.4445
10.9102
11.0375
11.7385
11.6241
11.2198
11.0305
11.2594
11.438
11.4592
11.1609
10.9838
10.9379
11.0912
10.9305
11.3049
11.21
11.14
11.4571
11.5897
10.9352
11.4809
11.4797
10.9753
11.0815
11.6243
11.4708
11.1701
10.8945
11.4218
11.5336
11.5041
)


// ************************************************************************* //
