/*--------------------------------*- C++ -*----------------------------------*\
| =========                 |                                                 |
| \\      /  F ield         | OpenFOAM: The Open Source CFD Toolbox           |
|  \\    /   O peration     | Version:  plus.master.MPPICInterFoam            |
|   \\  /    A nd           | Web:      www.OpenFOAM.com                      |
|    \\/     M anipulation  |                                                 |
\*---------------------------------------------------------------------------*/
FoamFile
{
    version     2.0;
    format      ascii;
    class       vectorField;
    location    "11.8/lagrangian/kinematicCloud";
    object      UCorrect;
}
// * * * * * * * * * * * * * * * * * * * * * * * * * * * * * * * * * * * * * //


143
(
(1.16922e-19 5.09375e-20 -2.86704e-34)
(-4.52972e-23 1.98462e-22 -1.34742e-19)
(7.81154e-20 9.80024e-20 -2.69484e-19)
(-1.16858e-20 1.84785e-20 -1.55468e-36)
(1.50564e-19 4.06525e-19 3.81175e-34)
(1.73573e-19 -4.98238e-20 2.51179e-19)
(-3.13411e-20 3.66732e-19 -1.67616e-19)
(1.15901e-22 3.70276e-19 -3.83382e-20)
(1.15901e-22 6.83953e-19 -1.67616e-19)
(1.76171e-19 -5.0733e-20 2.51179e-19)
(3.80443e-19 -3.02601e-19 -1.85558e-34)
(-5.93412e-20 -3.52153e-19 -3.1833e-34)
(-3.19278e-20 3.92428e-19 3.1113e-19)
(1.13146e-19 1.66991e-19 2.50119e-34)
(5.74877e-20 -4.27162e-19 -1.95428e-19)
(-1.97189e-19 -1.20309e-19 3.98023e-20)
(2.37249e-19 -3.55218e-20 -1.67453e-19)
(-6.50508e-19 1.03924e-19 5.4513e-22)
(-6.25243e-19 -1.20309e-19 1.05551e-21)
(2.13448e-19 -1.3101e-19 3.05359e-34)
(-1.00928e-19 -1.79126e-19 2.33555e-34)
(-1.34112e-19 -1.11224e-19 -2.24919e-35)
(7.50193e-19 7.91041e-20 1.6778e-19)
(3.58947e-19 -6.05037e-20 -1.67453e-19)
(3.18373e-30 2.14225e-19 -5.54601e-19)
(-6.25243e-19 -1.20309e-19 1.7547e-22)
(2.30572e-19 1.69447e-19 -4.69031e-36)
(5.10049e-19 2.3815e-19 -2.36585e-20)
(1.80154e-19 2.66279e-29 -5.45429e-22)
(1.80154e-19 2.66279e-29 -7.26724e-22)
(5.24064e-19 1.13769e-19 -1.67126e-19)
(-3.35748e-20 -5.32041e-20 -8.4439e-35)
(4.01564e-19 3.70261e-20 -1.86434e-19)
(2.26597e-19 3.94625e-19 2.35603e-19)
(6.79327e-19 1.55052e-19 -1.86071e-19)
(-2.92406e-19 4.3695e-19 -4.11082e-34)
(2.21933e-19 -9.43573e-20 -5.63506e-35)
(-4.65866e-30 1.1357e-20 2.63187e-19)
(4.17118e-18 1.71938e-17 -4.10426e-17)
(2.92137e-18 1.1718e-17 -4.10426e-17)
(-4.24352e-30 -3.73277e-17 -1.8204e-18)
(8.80099e-15 -4.74793e-14 -1.24966e-11)
(8.80099e-15 -4.74793e-14 -3.21254e-11)
(1.66739e-14 -1.29857e-14 -6.08901e-11)
(3.32619e-17 1.39863e-16 -2.56869e-16)
(3.26611e-17 1.37231e-16 -2.56869e-16)
(1.21647e-17 6.84315e-17 -2.56869e-16)
(3.1818e-17 1.33537e-16 -2.56869e-16)
(3.36327e-17 1.41488e-16 -2.56869e-16)
(1.15997e-17 6.84952e-17 -2.56869e-16)
(1.75206e-14 -9.27647e-15 -6.08901e-11)
(2.31414e-19 5.28187e-20 -9.45387e-35)
(1.58433e-14 -1.66249e-14 -6.08901e-11)
(1.70255e-14 -1.14454e-14 -6.08901e-11)
(-4.66404e-16 3.47143e-14 -4.25682e-13)
(1.64275e-14 -1.40656e-14 -6.08901e-11)
(3.40294e-14 5.21243e-13 -4.25682e-13)
(-3.7149e-15 -4.60691e-14 -6.08901e-11)
(-4.66404e-16 5.2513e-13 -7.21188e-13)
(4.85399e-14 5.19608e-13 -4.25682e-13)
(8.78823e-30 -2.57419e-21 8.37264e-20)
(1.5203e-10 2.93747e-10 -5.24594e-07)
(1.5203e-10 5.04931e-11 -5.24594e-07)
(1.27983e-11 1.05919e-10 -1.89624e-10)
(1.5203e-10 8.66061e-11 -5.24594e-07)
(-6.45461e-14 7.27441e-13 -1.33079e-12)
(1.5203e-10 1.09907e-10 -5.24594e-07)
(-7.43846e-16 1.48241e-12 -1.33079e-12)
(-6.51524e-13 6.78783e-13 -2.58109e-13)
(1.5203e-10 1.94589e-10 -1.00255e-06)
(0.000203146 -0.000473364 -1.02687e-06)
(0.000203146 -0.000473364 -9.65559e-07)
(-1.35244e-10 9.06095e-07 2.05684e-11)
(-7.43846e-16 7.34629e-13 -2.45931e-12)
(0.000203146 -0.000473364 -6.36573e-07)
(0.000203146 -0.000473364 -4.48348e-07)
(0.000203146 -0.000473364 -8.798e-07)
(0.000203146 -0.000473364 -5.19545e-07)
(0.000203146 -0.000180621 6.76648e-16)
(0.000154762 -0.000478816 6.76648e-16)
(0.000139956 -0.000480484 6.76648e-16)
(0.000126277 -0.000482026 6.76648e-16)
(5.9586e-05 -0.00048954 6.76648e-16)
(-7.63029e-07 -1.12375e-07 9.469e-19)
(0.000126106 -0.000482045 6.76648e-16)
(8.74235e-05 -0.000486403 6.76648e-16)
(0.000203146 -0.000473364 8.90746e-07)
(-1.43124e-19 2.74832e-20 -1.86071e-19)
(-1.23862e-11 6.46908e-10 5.24594e-07)
(-3.27949e-13 -5.87216e-14 4.24664e-13)
(-2.11064e-19 3.51382e-20 -1.86071e-19)
(-2.17909e-19 3.59094e-20 -1.86071e-19)
(-3.25509e-13 -6.94128e-14 2.57335e-13)
(-3.27949e-13 -5.87216e-14 3.58136e-13)
(-2.34815e-30 -1.94884e-29 1.60255e-34)
(-3.27949e-13 -5.87216e-14 1.90014e-13)
(-2.0685e-30 -1.70065e-29 1.60255e-34)
(-8.40676e-32 -5.29826e-30 1.60255e-34)
(-3.11516e-10 -6.73284e-11 2.72139e-10)
(-3.38462e-31 -5.29826e-30 1.60255e-34)
(-6.26274e-13 -9.23347e-14 2.57335e-13)
(-5.60033e-13 -8.48711e-14 2.57335e-13)
(-7.49303e-31 -5.29826e-30 1.48551e-34)
(-5.82109e-16 -1.25068e-14 3.68677e-10)
(-2.66863e-17 2.29039e-16 3.46521e-19)
(-1.15247e-14 4.58496e-15 4.25288e-13)
(-3.46167e-17 2.28145e-16 3.46521e-19)
(-3.78365e-14 1.15711e-15 4.25288e-13)
(-5.82109e-16 -2.03384e-14 3.68677e-10)
(4.26152e-20 1.86709e-19 7.2605e-20)
(-5.79198e-21 -6.31834e-22 -2.78357e-35)
(-1.09846e-15 5.75971e-15 4.25288e-13)
(4.51423e-20 1.97781e-19 -5.79189e-21)
(4.86212e-19 5.58064e-19 4.27471e-19)
(-5.82109e-16 -2.75521e-13 1.50598e-12)
(2.94172e-20 1.99553e-19 -2.79106e-19)
(-3.98285e-19 1.23003e-19 2.95759e-36)
(3.59927e-19 -5.29815e-30 2.95315e-19)
(3.59927e-19 -5.29815e-30 2.74745e-19)
(7.93738e-20 -5.29815e-30 -1.71335e-34)
(1.03721e-19 5.73507e-20 -1.4249e-19)
(1.0763e-19 -5.29815e-30 -1.71335e-34)
(-6.584e-20 -2.88464e-19 -2.79106e-19)
(-4.91366e-19 1.12516e-19 2.00359e-34)
(-7.786e-20 -3.41127e-19 -2.79106e-19)
(-4.69967e-19 1.14927e-19 2.00359e-34)
(-4.50556e-19 1.17114e-19 2.00359e-34)
(-2.14225e-19 2.66276e-29 -6.17532e-36)
(9.94692e-20 -4.36874e-19 2.53291e-19)
(-1.64218e-20 -2.15659e-19 -1.06042e-34)
(-4.67739e-19 2.61258e-19 -1.64057e-19)
(1.47668e-19 8.48549e-20 1.64057e-19)
(3.27841e-19 1.61942e-19 2.08389e-19)
(-3.84046e-20 9.27894e-19 1.29218e-37)
(1.76162e-21 2.16849e-20 -2.08389e-19)
(5.40063e-21 2.29583e-20 -2.08389e-19)
(4.05141e-20 9.00279e-19 -2.8868e-37)
(2.03115e-20 -8.89905e-20 9.30355e-20)
(1.56046e-20 2.65288e-20 -2.08389e-19)
(-4.25097e-20 9.09908e-19 3.75393e-37)
(1.18667e-20 9.10303e-19 -4.76226e-38)
(1.519e-21 2.16e-20 -2.08389e-19)
(1.13358e-18 8.22124e-19 1.11907e-34)
)


// ************************************************************************* //
