/*--------------------------------*- C++ -*----------------------------------*\
| =========                 |                                                 |
| \\      /  F ield         | OpenFOAM: The Open Source CFD Toolbox           |
|  \\    /   O peration     | Version:  plus.master.MPPICInterFoam            |
|   \\  /    A nd           | Web:      www.OpenFOAM.com                      |
|    \\/     M anipulation  |                                                 |
\*---------------------------------------------------------------------------*/
FoamFile
{
    version     2.0;
    format      ascii;
    class       vectorField;
    location    "13.4/lagrangian/kinematicCloud";
    object      UCorrect;
}
// * * * * * * * * * * * * * * * * * * * * * * * * * * * * * * * * * * * * * //


619
(
(-6.36957e-08 8.16156e-07 -1.70534e-12)
(-2.39128e-08 -3.96278e-08 -1.474e-07)
(9.66805e-13 -1.40196e-12 1.86301e-12)
(-3.31427e-13 -3.71673e-13 8.86243e-13)
(-2.16665e-19 1.05098e-17 7.88708e-13)
(3.56905e-05 1.08593e-05 -8.2327e-08)
(-5.52562e-08 -1.2612e-08 -1.474e-07)
(8.44355e-07 2.71737e-06 -1.82013e-07)
(-3.15311e-13 -3.84525e-13 4.50226e-13)
(-3.31427e-13 -3.71673e-13 7.03215e-13)
(1.02922e-06 4.50933e-06 -1.82013e-07)
(4.17871e-07 -5.07267e-08 -1.31334e-07)
(1.41677e-11 3.18821e-11 -3.74562e-11)
(-3.31427e-13 -3.71673e-13 7.11069e-13)
(-1.31648e-09 2.10438e-08 -8.60916e-08)
(3.639e-07 -2.5301e-07 3.59755e-13)
(2.65852e-17 3.3802e-17 7.88708e-13)
(3.59351e-05 9.78777e-06 -2.64683e-08)
(3.59992e-05 9.50705e-06 -2.64683e-08)
(-4.52733e-14 -1.98348e-13 2.92013e-07)
(-6.36957e-08 1.53893e-06 -1.41067e-12)
(-3.1499e-13 -3.84781e-13 4.50226e-13)
(-2.19314e-11 1.24903e-10 -1.43175e-13)
(4.17871e-07 -5.07267e-08 -2.09032e-07)
(-3.97997e-08 -2.7495e-08 1.87662e-07)
(5.28397e-05 1.68601e-05 -2.64683e-08)
(4.32409e-07 -4.56394e-08 8.45614e-13)
(8.1283e-17 3.14255e-17 1.45388e-21)
(-1.23177e-07 -5.39667e-07 5.28484e-12)
(-7.52999e-08 -3.29903e-07 -2.26757e-07)
(2.44068e-11 3.26421e-11 4.07779e-19)
(-3.31427e-13 -3.71673e-13 2.80819e-14)
(-3.49851e-08 -7.98525e-09 -2.26173e-07)
(-6.36957e-08 8.16156e-07 -1.66296e-12)
(6.31695e-18 8.68814e-18 1.91336e-18)
(-4.23576e-14 1.03509e-14 1.87326e-13)
(2.60085e-17 3.42619e-17 7.88708e-13)
(-3.49851e-08 -7.98525e-09 -2.09448e-07)
(4.17871e-07 -5.07267e-08 3.23009e-07)
(3.24041e-07 3.60368e-07 8.45614e-13)
(-4.02965e-13 -2.81464e-13 5.75314e-19)
(5.46954e-07 2.31372e-08 2.07468e-07)
(1.80485e-07 8.61187e-08 -1.17916e-14)
(1.21974e-11 -1.50573e-11 -1.88771e-16)
(4.66697e-14 6.6755e-14 4.59675e-17)
(2.4635e-11 3.246e-11 4.07779e-19)
(-7.52999e-08 -3.29903e-07 -2.71386e-07)
(1.66418e-05 3.69791e-06 5.85858e-08)
(-8.64886e-09 3.65589e-09 6.79233e-07)
(2.07849e-17 1.53989e-17 1.91336e-18)
(-1.32051e-07 -5.03768e-08 -8.85067e-08)
(3.61461e-05 8.86355e-06 -2.64683e-08)
(6.36799e-07 2.79e-06 -3.54307e-07)
(6.48875e-08 -2.8429e-07 1.91813e-08)
(2.08019e-17 1.53776e-17 1.91336e-18)
(-0.000152922 -4.73201e-05 1.93051e-08)
(-4.6243e-19 -1.2879e-18 2.39483e-20)
(1.18183e-06 1.22608e-06 -5.58526e-07)
(-1.89045e-07 2.08709e-07 -2.84174e-13)
(-5.63773e-08 -1.28679e-08 -1.474e-07)
(1.76986e-06 -1.88075e-07 -5.58526e-07)
(8.566e-14 -2.2601e-13 1.02219e-13)
(-5.68532e-11 1.31268e-11 -2.06266e-11)
(-3.91042e-08 -2.83672e-08 6.79233e-07)
(-6.4632e-07 -4.12216e-07 1.43396e-06)
(-4.93527e-07 -6.18863e-07 2.18871e-16)
(-0.000222045 -5.09104e-05 1.93051e-08)
(1.8026e-07 -6.77185e-07 2.18871e-16)
(-2.3095e-15 1.60317e-13 -4.66514e-14)
(-3.97997e-08 -2.7495e-08 3.07979e-07)
(8.00531e-08 -1.66233e-07 1.06886e-13)
(-3.88845e-13 -1.58041e-13 8.78263e-13)
(5.46218e-07 2.63595e-08 2.07468e-07)
(1.65566e-05 4.07134e-06 5.85858e-08)
(1.70035e-07 -7.4401e-07 3.22074e-18)
(-1.22365e-06 6.6167e-07 7.51306e-16)
(-1.32051e-07 -5.03768e-08 -9.35598e-08)
(1.39907e-07 -6.12009e-07 3.22074e-18)
(1.65818e-05 3.96069e-06 5.85858e-08)
(-1.3402e-07 -5.87173e-07 5.28484e-12)
(-7.13511e-11 -1.44863e-10 1.58419e-07)
(8.6691e-07 -1.57303e-07 -5.58526e-07)
(-5.39039e-07 -6.75933e-07 2.18871e-16)
(7.35452e-06 0.000123375 3.13847e-05)
(-1.53836e-10 8.60773e-14 1.37134e-07)
(1.18183e-06 -1.20749e-06 -5.58526e-07)
(-6.67459e-13 -4.47656e-13 2.63168e-22)
(8.96959e-08 -3.92983e-07 1.53537e-07)
(3.70784e-07 1.07775e-06 1.06681e-12)
(-1.32355e-07 -5.79877e-07 5.28484e-12)
(-4.52733e-14 -1.98348e-13 3.15338e-07)
(-5.2963e-07 -6.64134e-07 2.18871e-16)
(2.01253e-17 1.62259e-17 1.91336e-18)
(1.18183e-06 1.53218e-06 -5.58526e-07)
(-6.57546e-08 1.24937e-08 8.19128e-21)
(-7.17691e-08 -1.75554e-07 4.60777e-13)
(-4.52264e-07 -1.97998e-07 5.28484e-12)
(-1.19798e-10 2.10438e-08 -2.06317e-07)
(-5.04531e-14 -4.01362e-14 6.69927e-13)
(4.17871e-07 -5.07267e-08 -3.4395e-07)
(9.05431e-08 -1.20525e-08 -1.17916e-14)
(1.12794e-11 -1.56341e-11 -6.40915e-16)
(-1.005e-11 1.79165e-10 1.013e-13)
(1.65696e-05 4.01426e-06 5.85858e-08)
(-6.7578e-07 -5.41288e-07 1.43396e-06)
(-1.41653e-07 -6.20614e-07 5.28484e-12)
(4.88779e-09 -1.01327e-08 6.49488e-13)
(3.52472e-08 -8.53306e-08 4.87194e-14)
(7.35452e-06 0.000123375 3.21875e-05)
(-7.0664e-11 4.73455e-11 7.20238e-16)
(-1.82314e-07 2.14077e-07 8.19317e-21)
(3.32553e-06 0.000123375 0.000113327)
(-4.79878e-07 -6.01748e-07 2.18871e-16)
(1.66005e-05 3.87898e-06 5.85858e-08)
(-2.25127e-14 -1.59816e-14 8.82519e-13)
(4.45648e-11 -1.01083e-12 1.218e-07)
(-2.85634e-07 -3.58173e-07 5.44463e-11)
(5.08459e-12 1.22077e-12 2.64683e-08)
(-1.82278e-05 0.000154621 9.46995e-13)
(-2.25127e-14 -1.59816e-14 1.01344e-12)
(6.04591e-08 -1.48773e-07 1.85745e-13)
(-1.47652e-07 -5.58357e-08 4.60777e-13)
(5.42089e-07 4.44527e-08 4.117e-07)
(-2.1e-12 1.79165e-10 5.41626e-14)
(-5.99093e-11 2.10438e-08 -2.06317e-07)
(9.49197e-08 -9.30251e-09 -1.17916e-14)
(1.71946e-12 -4.40304e-08 -2.47261e-08)
(1.18183e-06 -1.16172e-06 -5.58526e-07)
(2.64416e-07 6.21603e-07 8.45614e-13)
(-6.5366e-20 7.21654e-20 3.76606e-19)
(1.11811e-19 9.92891e-21 1.60045e-13)
(2.85975e-09 -5.92145e-09 7.2104e-12)
(6.81154e-08 -1.45086e-07 1.26678e-14)
(1.69142e-07 1.72912e-06 1.06681e-12)
(4.88779e-09 -1.01327e-08 5.01059e-13)
(-4.87111e-07 -6.10818e-07 3.21138e-10)
(1.69142e-07 1.68747e-06 1.06681e-12)
(4.13246e-08 1.92513e-08 1.09413e-07)
(-2.85634e-07 -3.58173e-07 1.48808e-10)
(-1.35713e-10 8.60773e-14 1.37134e-07)
(-5.75569e-13 1.41344e-13 1.32921e-18)
(6.04591e-08 -1.48773e-07 1.99931e-13)
(-6.99841e-07 8.44958e-07 7.51306e-16)
(-7.25928e-07 8.35829e-07 7.51306e-16)
(-0.000260554 -5.96999e-05 1.93051e-08)
(4.3516e-07 -4.46768e-08 8.45614e-13)
(1.95886e-07 5.41388e-08 1.85734e-13)
(-1.69512e-11 2.74082e-11 5.00673e-08)
(-4.0785e-05 0.000150664 9.46995e-13)
(1.18183e-06 1.18831e-06 -5.58526e-07)
(-2.81021e-07 1.23123e-06 7.51306e-16)
(-5.72869e-07 -7.18355e-07 3.21138e-10)
(-1.32051e-07 -5.03768e-08 -6.15237e-08)
(1.71946e-12 -4.40304e-08 2.11595e-07)
(2.08501e-17 1.53171e-17 1.91336e-18)
(7.35452e-06 0.000123375 0.000190402)
(5.25165e-07 1.186e-07 2.07468e-07)
(2.718e-06 0.000123375 0.000113327)
(-1.53247e-07 1.33108e-07 7.84998e-11)
(1.71946e-12 -1.90835e-06 4.10984e-07)
(1.18183e-06 -7.01103e-07 -5.58526e-07)
(-4.52733e-14 -1.98348e-13 3.26112e-07)
(-4.44091e-15 7.88251e-16 6.06603e-20)
(-8.74231e-15 1.61042e-13 -4.66514e-14)
(-0.000250777 -5.74682e-05 1.93051e-08)
(7.21462e-09 -4.4315e-08 7.75854e-08)
(-3.40597e-13 -2.59802e-13 -3.42359e-13)
(-7.31777e-14 -3.20605e-13 1.82028e-07)
(1.63924e-05 4.79057e-06 5.3085e-08)
(-2.04872e-07 1.00838e-07 4.60777e-13)
(-3.00283e-13 3.60878e-13 2.92709e-18)
(-2.31798e-19 8.42399e-22 1.53522e-14)
(1.71946e-12 1.37821e-06 4.10984e-07)
(4.68913e-14 -1.15215e-13 1.68082e-13)
(-2.52861e-29 -3.97118e-29 -1.35005e-19)
(1.71946e-12 -4.40304e-08 1.06383e-08)
(1.71946e-12 -1.6462e-06 4.10984e-07)
(6.21687e-12 -3.61147e-11 4.54584e-09)
(-1.44653e-05 6.35934e-05 9.46995e-13)
(6.21687e-12 -3.61147e-11 1.30277e-08)
(8.46805e-09 -4.40289e-08 1.47402e-07)
(-2.15606e-14 -1.71755e-14 5.1677e-13)
(1.02794e-13 7.63293e-13 3.22696e-12)
(1.71946e-12 -4.40304e-08 2.39579e-07)
(1.91153e-14 -3.96207e-14 1.50864e-13)
(-1.41418e-11 2.91734e-11 8.99263e-08)
(-6.53119e-07 -4.42006e-07 1.43396e-06)
(-1.2873e-13 1.57306e-13 6.53303e-17)
(2.96078e-13 7.41515e-13 1.61718e-12)
(5.42089e-07 4.44527e-08 8.78244e-08)
(-6.21814e-05 0.000272651 9.46995e-13)
(5.10474e-12 1.13247e-12 2.64683e-08)
(1.57731e-15 1.38454e-14 1.43258e-13)
(-4.38702e-19 -7.22093e-19 -5.86017e-37)
(-3.48153e-05 0.000152753 2.31557e-07)
(-6.56716e-10 -2.077e-06 7.62446e-10)
(-1.21181e-13 5.30931e-13 -9.53925e-07)
(2.31455e-17 1.73086e-16 2.39462e-14)
(-5.79351e-07 -7.26483e-07 2.18871e-16)
(-5.75569e-13 1.41344e-13 3.68321e-18)
(4.10328e-15 -2.46934e-14 4.37067e-14)
(-3.48153e-05 0.000152753 2.49683e-07)
(-5.75569e-13 1.41344e-13 4.77288e-18)
(1.40836e-07 8.03902e-09 1.77039e-07)
(7.92842e-06 -6.99357e-05 -4.09632e-18)
(1.71946e-12 -4.40304e-08 -2.53526e-07)
(-4.70114e-19 2.43918e-19 3.12584e-19)
(-3.70377e-07 9.20986e-08 -7.71882e-13)
(5.15183e-15 -2.21586e-12 7.64827e-19)
(-0.000274614 -6.29089e-05 1.93051e-08)
(2.11416e-19 -7.1137e-20 1.54761e-36)
(4.06994e-12 -1.77083e-11 2.55483e-07)
(9.49339e-19 -6.67554e-10 5.58789e-07)
(1.71946e-12 6.98121e-07 4.10984e-07)
(2.20845e-19 -3.20668e-20 1.54761e-36)
(1.40836e-07 8.03902e-09 1.42568e-08)
(-6.63899e-05 0.00029109 9.46995e-13)
(-1.05231e-16 -4.5787e-16 3.85269e-13)
(3.70935e-09 -1.05451e-08 7.2104e-12)
(-3.40097e-13 -2.60841e-13 -3.42359e-13)
(-1.88991e-13 8.28024e-13 -5.56848e-07)
(7.93831e-12 -3.46568e-11 1.46111e-07)
(6.87621e-12 -3.00034e-11 1.46111e-07)
(1.49906e-18 4.50408e-18 2.85538e-20)
(2.61644e-12 -1.13401e-11 1.46111e-07)
(5.15183e-15 -2.21586e-12 1.17162e-18)
(-4.21499e-29 -7.01762e-29 2.63168e-22)
(-7.5037e-08 6.11433e-11 1.05332e-11)
(-4.02965e-13 -2.81464e-13 -5.12812e-19)
(-1.54403e-11 2.83575e-11 5.00673e-08)
(-1.32051e-07 -5.03768e-08 9.82645e-08)
(3.95642e-20 4.09284e-19 3.53174e-19)
(4.19817e-13 8.16833e-15 -3.83012e-13)
(6.18213e-08 -6.32015e-08 6.14895e-13)
(9.49339e-19 -4.41606e-10 4.20042e-07)
(2.65037e-17 1.72707e-16 2.39462e-14)
(-2.98696e-15 2.79492e-16 6.06603e-20)
(5.10786e-12 1.11878e-12 2.64683e-08)
(-4.05398e-15 -2.63361e-14 -2.69542e-08)
(3.64864e-13 2.81336e-14 5.06486e-13)
(1.29194e-12 -7.22392e-13 2.04135e-14)
(3.48411e-19 5.59661e-20 8.9214e-20)
(-3.24399e-13 4.81273e-13 5.00673e-08)
(-2.47415e-11 5.99006e-12 4.12657e-08)
(1.80996e-13 -9.25974e-14 9.43156e-14)
(1.02794e-13 1.44176e-12 1.61718e-12)
(2.34582e-11 -5.67893e-11 8.12873e-14)
(-1.5385e-11 2.83923e-11 5.00673e-08)
(5.15183e-15 -2.21586e-12 1.12156e-18)
(-7.25004e-16 3.4398e-13 2.58546e-16)
(1.55278e-13 1.2712e-14 1.43258e-13)
(-3.42993e-13 -2.54827e-13 -3.42359e-13)
(1.32173e-13 1.01087e-14 1.43258e-13)
(-1.12822e-13 1.32606e-13 1.87326e-13)
(-1.28934e-07 6.11433e-11 4.75546e-11)
(1.73136e-12 -7.46237e-12 1.46111e-07)
(4.19817e-13 1.18435e-14 -3.83012e-13)
(2.79105e-12 -1.78524e-11 1.46111e-07)
(3.95739e-08 -8.3247e-08 -3.21998e-17)
(-2.31798e-19 8.42399e-22 4.47732e-14)
(-8.89998e-14 -3.89927e-13 1.82028e-07)
(4.17153e-16 1.28921e-16 2.63168e-22)
(-4.31676e-13 -2.16142e-13 2.0208e-12)
(1.71224e-19 -5.32913e-19 3.49619e-19)
(2.61837e-11 -5.54768e-11 4.8834e-14)
(1.78131e-13 -9.85472e-14 1.31977e-13)
(1.46538e-18 4.51587e-18 2.85538e-20)
(-2.56503e-19 4.20898e-19 3.12584e-19)
(3.83104e-09 -1.05025e-08 7.2104e-12)
(-2.31798e-19 8.42399e-22 3.8711e-14)
(9.49339e-19 -4.41606e-10 6.18018e-08)
(-2.30352e-07 1.00924e-06 6.28183e-07)
(4.25911e-16 -3.93179e-13 2.25811e-18)
(-2.19656e-07 9.62377e-07 5.82336e-11)
(-4.53327e-19 1.72914e-19 1.04195e-19)
(4.19817e-13 9.16117e-15 -3.83012e-13)
(4.25911e-16 -8.90539e-13 2.64557e-18)
(9.866e-07 8.09663e-08 2.70069e-10)
(2.55037e-15 -5.52716e-14 -6.95642e-08)
(9.84611e-09 -4.37143e-08 1.47402e-07)
(-1.56256e-07 6.11433e-11 4.75546e-11)
(-1.5005e-07 6.11433e-11 4.75546e-11)
(1.67033e-13 9.91029e-13 1.87227e-16)
(6.03433e-12 -2.62918e-11 -4.89989e-10)
(-2.30352e-07 1.00924e-06 9.48311e-07)
(-4.47012e-13 -2.83334e-13 2.0208e-12)
(-1.34554e-07 9.71965e-07 7.75217e-10)
(1.24773e-12 1.58777e-12 1.87227e-16)
(-5.62029e-07 -2.28399e-07 7.76414e-13)
(-5.4563e-07 -2.62454e-07 1.21552e-19)
(-6.99118e-16 -3.12285e-15 1.33622e-14)
(6.65666e-16 -9.29843e-16 1.80625e-11)
(1.41101e-15 -1.01382e-15 1.80625e-11)
(-4.27221e-21 4.82844e-30 -1.67126e-19)
(-4.54394e-13 -3.15677e-13 2.0208e-12)
(-5.38263e-17 -6.74961e-17 2.1096e-13)
(-7.3128e-14 -3.41189e-14 -6.95642e-08)
(1.78131e-13 -9.85472e-14 2.20916e-15)
(9.49339e-19 -1.36908e-10 5.58789e-07)
(4.25911e-16 -1.42168e-13 2.25811e-18)
(-1.16097e-10 -1.45581e-10 7.16135e-09)
(-8.13131e-14 1.82943e-14 -4.2039e-15)
(-2.3553e-19 1.18682e-19 -1.67126e-19)
(-2.3427e-19 1.18682e-19 -1.67126e-19)
(-4.33927e-14 2.78007e-13 -4.66514e-14)
(1.24773e-12 1.51995e-12 1.87227e-16)
(-1.50209e-12 2.42141e-13 8.71246e-15)
(-6.5366e-20 7.21654e-20 7.06102e-21)
(2.63861e-20 -1.6856e-20 3.50803e-19)
(3.36905e-17 5.70809e-17 2.84293e-14)
(-2.37905e-19 -2.59171e-20 1.09442e-13)
(1.34663e-18 4.55742e-18 2.85538e-20)
(-4.79456e-13 -1.09515e-13 8.05775e-13)
(1.46689e-17 -3.07945e-17 3.25254e-17)
(3.36905e-17 5.70809e-17 3.4815e-16)
(1.28923e-29 -2.69831e-18 1.5908e-18)
(2.04703e-13 9.95568e-15 1.12956e-15)
(5.9737e-05 -6.40983e-05 -1.37834e-07)
(-3.75873e-14 -1.78358e-14 3.57279e-12)
(3.05285e-12 -1.32291e-11 -4.51173e-08)
(6.55592e-05 -8.9607e-05 -4.09632e-18)
(-2.36979e-19 -2.18588e-20 1.09442e-13)
(5.33815e-11 7.96568e-14 4.57497e-11)
(-3.69876e-19 1.18682e-19 -1.67126e-19)
(1.48416e-10 4.77461e-10 1.09336e-06)
(-2.78957e-29 -7.69532e-29 2.63168e-22)
(4.15778e-14 -4.04744e-14 1.66568e-14)
(-2.30352e-07 1.00924e-06 1.08149e-06)
(-1.40437e-19 1.20309e-19 0)
(-1.91622e-19 1.73234e-19 0)
(5.88927e-20 7.42418e-20 1.60045e-13)
(-5.48333e-15 3.66428e-14 3.99122e-14)
(3.7266e-19 2.66686e-19 8.9214e-20)
(-8.14e-14 1.79133e-14 -4.2039e-15)
(1.45771e-17 -3.08388e-17 3.25254e-17)
(-1.97585e-19 1.20309e-19 -1.98105e-19)
(-1.97585e-19 1.20309e-19 -2.62178e-19)
(3.03912e-17 4.26257e-17 7.66097e-14)
(1.46675e-17 -3.07952e-17 3.25254e-17)
(2.97445e-17 3.97925e-17 7.66097e-14)
(-5.52068e-07 -2.49085e-07 1.21552e-19)
(-5.93412e-19 -7.89934e-21 -1.63528e-22)
(-4.83439e-14 1.61506e-14 6.36439e-20)
(6.57634e-20 8.28573e-20 1.60045e-13)
(2.68413e-19 1.35965e-19 1.56114e-19)
(-1.10874e-19 1.17673e-19 2.08561e-19)
(1.3498e-11 -1.43967e-11 -1.62418e-08)
(-7.29276e-14 -6.02576e-15 4.66532e-14)
(-5.93412e-19 -2.23592e-19 -2.92348e-22)
(7.31917e-16 3.15126e-16 1.00513e-17)
(9.84854e-06 -6.97194e-05 -4.09632e-18)
(-6.33499e-20 -3.97105e-19 4.27018e-20)
(-5.93412e-19 -2.23592e-19 -2.26914e-22)
(1.1211e-16 -3.58266e-16 -1.90674e-16)
(5.26267e-15 -2.44288e-14 1.14181e-13)
(3.36905e-17 5.70809e-17 2.33884e-15)
(1.13224e-15 9.51081e-17 2.29331e-14)
(5.04922e-14 -8.84898e-13 2.25811e-18)
(-6.06996e-15 1.35828e-15 6.06603e-20)
(8.31041e-14 3.3123e-14 -6.66031e-14)
(1.56775e-15 1.41583e-15 1.86253e-19)
(-1.85986e-19 2.23261e-19 0)
(-4.51043e-22 1.44996e-22 2.63168e-22)
(6.74889e-22 1.37277e-19 -1.17801e-19)
(3.60952e-18 1.38364e-19 1.99881e-21)
(2.04703e-13 9.95568e-15 7.0751e-14)
(4.02338e-21 -1.33928e-20 7.84241e-20)
(7.70849e-29 -1.5571e-28 -1.31951e-34)
(3.66219e-21 -1.34752e-20 7.84241e-20)
(4.05567e-21 -1.33854e-20 7.84241e-20)
(7.45615e-16 9.51081e-17 3.98465e-14)
(1.44643e-15 3.20402e-19 4.33973e-16)
(-5.19826e-29 -2.29372e-29 -2.59246e-19)
(1.56775e-15 1.59931e-15 1.86253e-19)
(-3.60954e-16 -4.97938e-17 7.45011e-19)
(-5.93412e-19 -2.23592e-19 -2.72747e-22)
(-1.97585e-19 1.20309e-19 -3.2337e-19)
(1.55115e-16 1.00933e-15 1.86253e-19)
(-3.28677e-16 -9.58388e-16 7.25204e-19)
(9.26744e-18 -3.47703e-22 -1.43085e-14)
(-3.60128e-16 -5.7125e-17 7.45011e-19)
(9.26744e-18 -3.47703e-22 -1.49999e-14)
(2.53668e-19 1.2216e-19 1.04832e-20)
(-1.44618e-07 -1.25285e-08 1.56322e-19)
(-6.30252e-14 -1.30379e-13 1.09026e-21)
(-3.07954e-14 1.16604e-15 -8.18217e-14)
(8.33892e-06 -6.98895e-05 -4.09632e-18)
(-1.79822e-19 3.38289e-20 -2.38563e-36)
(6.99314e-19 -3.47703e-22 -1.09329e-14)
(-3.45709e-17 -4.33145e-16 7.13012e-13)
(7.15286e-13 -6.84259e-13 4.17688e-16)
(3.60952e-18 7.82909e-19 2.74589e-21)
(3.60952e-18 7.82909e-19 1.11738e-21)
(4.28329e-16 9.69839e-17 1.50543e-23)
(9.26744e-18 -3.47703e-22 -1.81083e-14)
(-6.19719e-22 2.37365e-19 3.34905e-19)
(1.11003e-11 1.54773e-11 1.30233e-07)
(-2.49398e-16 2.26028e-17 1.0603e-16)
(8.67034e-20 2.58503e-19 1.33357e-18)
(1.52076e-18 6.91587e-18 2.85538e-20)
(1.4728e-20 1.20042e-19 -4.74359e-36)
(-1.21467e-17 -2.89557e-18 7.45011e-19)
(-7.60134e-19 1.14076e-19 2.79106e-19)
(-1.60667e-14 3.54503e-14 7.72216e-14)
(-2.08829e-14 -1.35128e-13 1.09026e-21)
(-7.84474e-18 -2.63258e-17 -6.01737e-19)
(4.05847e-17 -7.62423e-16 3.85269e-13)
(-1.18178e-11 6.99916e-13 -1.9489e-08)
(-3.06735e-16 -4.68313e-18 3.27056e-22)
(-1.03631e-13 -2.85696e-14 -8.73692e-14)
(-1.5055e-13 -8.81883e-15 -2.60457e-13)
(1.44643e-15 2.32911e-16 4.33973e-16)
(-2.03521e-17 -1.00454e-19 1.0603e-16)
(-2.70003e-18 -2.1374e-17 9.30355e-20)
(-2.93609e-13 -1.33994e-13 1.09026e-21)
(1.71969e-15 -7.61386e-15 -5.504e-15)
(1.68171e-15 -7.62253e-15 -5.504e-15)
(1.71692e-15 -7.61449e-15 -5.504e-15)
(-7.36508e-13 -2.11983e-19 -1.9489e-08)
(-2.8634e-13 3.98346e-14 -2.60457e-13)
(-4.77867e-20 -2.76061e-19 2.3935e-37)
(-3.57865e-29 -3.3114e-29 -1.35005e-19)
(1.5166e-15 -7.66021e-15 -5.504e-15)
(-4.33971e-14 -2.63075e-16 4.66532e-14)
(-2.89174e-11 -8.10698e-13 2.30251e-14)
(-3.62159e-22 4.389e-22 1.86071e-19)
(-2.91016e-14 -1.88784e-14 -2.60457e-13)
(-1.17896e-11 9.49813e-13 -1.9489e-08)
(-1.1643e-12 3.06949e-11 -1.38391e-07)
(1.67532e-18 7.59307e-18 2.85538e-20)
(3.56592e-19 4.56542e-19 1.04602e-19)
(7.26701e-16 1.65085e-16 2.63168e-22)
(-1.44706e-11 3.3732e-11 -1.38391e-07)
(-9.96425e-14 -6.39684e-14 -1.58946e-13)
(-2.48954e-11 2.48584e-11 -1.38391e-07)
(9.1089e-12 2.4202e-11 6.95642e-08)
(1.65598e-15 -7.6284e-15 -5.504e-15)
(9.26744e-18 -3.47703e-22 -2.05805e-14)
(9.78426e-20 2.6219e-19 -2.63168e-22)
(3.40468e-19 1.30991e-19 4.86641e-22)
(-1.44827e-13 7.53522e-15 -5.07318e-13)
(1.76726e-18 -2.47074e-18 -2.69221e-19)
(-1.39096e-09 -1.83582e-13 -3.67328e-08)
(-8.52643e-08 3.38221e-08 5.8807e-24)
(-1.39096e-09 -1.83582e-13 -3.12745e-08)
(-2.36593e-11 3.58293e-11 -2.64885e-07)
(-1.39096e-09 -1.83582e-13 -3.5789e-08)
(-1.72099e-17 -2.03415e-16 1.83709e-19)
(-2.36593e-11 3.58293e-11 -1.75407e-07)
(-4.35027e-08 -2.48427e-09 -5.43875e-12)
(-1.60667e-14 3.54503e-14 7.90285e-14)
(-8.27188e-17 -2.36701e-17 -8.35866e-20)
(-1.39096e-09 -1.83582e-13 -3.56748e-08)
(-2.30426e-07 6.69544e-08 -5.11101e-13)
(-5.56235e-14 -1.31213e-13 1.09026e-21)
(-1.08219e-17 2.37592e-17 1.01076e-19)
(-1.48086e-19 -6.49862e-19 1.64998e-34)
(-1.18966e-11 -2.11983e-19 -3.80143e-08)
(-2.17631e-11 -2.11983e-19 -1.9489e-08)
(-2.30426e-07 6.69544e-08 -1.95604e-13)
(2.49866e-09 -1.37043e-08 -1.03299e-14)
(1.96935e-08 -1.55578e-09 1.8171e-22)
(0.000152257 2.7993e-05 -2.71854e-07)
(-1.05059e-13 -1.58994e-14 -8.73692e-14)
(1.71675e-15 -7.61453e-15 -5.504e-15)
(-8.42145e-17 -1.93954e-17 -1.57217e-19)
(6.5015e-10 1.81151e-08 -3.2444e-22)
(4.37273e-19 3.32007e-19 2.63168e-22)
(-1.20309e-19 6.47095e-21 9.52551e-22)
(-3.64222e-22 4.20586e-22 1.86071e-19)
(-3.06735e-16 -2.81243e-18 3.27056e-22)
(-9.96425e-14 -6.39684e-14 -1.68346e-13)
(4.90706e-05 5.15447e-05 2.87917e-17)
(-9.96425e-14 -6.39684e-14 -1.63467e-13)
(-2.36593e-11 3.58293e-11 -2.40137e-07)
(6.78453e-08 -1.83582e-13 -3.2444e-22)
(4.74645e-08 -1.83582e-13 -3.2444e-22)
(0.000152257 2.7993e-05 -2.5052e-07)
(-5.54358e-08 -9.95609e-14 -3.10527e-19)
(-9.96425e-14 -6.39684e-14 -1.62244e-13)
(-1.60667e-14 3.54503e-14 2.04997e-14)
(-7.36777e-20 2.76648e-20 -8.27664e-20)
(-1.92108e-14 -3.3705e-17 2.13218e-17)
(1.41241e-15 -7.68399e-15 -1.09694e-14)
(3.90922e-14 1.0533e-15 8.43351e-14)
(3.63839e-09 -2.38197e-08 -4.9004e-22)
(1.66952e-09 2.71623e-08 -3.2444e-22)
(5.70438e-05 4.97249e-05 2.87918e-17)
(0.000152257 2.7993e-05 -1.06815e-07)
(3.172e-08 -1.08294e-07 -1.66798e-13)
(-1.18682e-19 3.85477e-19 -3.86284e-20)
(2.05756e-10 1.4171e-08 -3.2444e-22)
(0.000151351 1.99493e-05 2.8793e-17)
(2.49866e-09 -1.37043e-08 -2.75582e-15)
(0.00026213 2.91519e-06 2.8793e-17)
(1.82074e-17 -2.03214e-16 1.83709e-19)
(-4.55044e-08 -9.95609e-14 -3.10527e-19)
(1.82938e-18 1.42696e-18 1.22346e-20)
(-1.92108e-14 -3.26639e-16 2.13218e-17)
(1.85773e-14 -8.06553e-14 2.07277e-13)
(7.05669e-08 -1.08294e-07 1.8171e-22)
(3.27442e-14 -2.27723e-13 2.07277e-13)
(-3.33039e-08 -9.95609e-14 2.6926e-11)
(2.69612e-14 -6.40129e-14 -3.6342e-22)
(2.28425e-08 -2.95042e-08 1.8171e-22)
(3.1311e-14 -2.27885e-13 2.07277e-13)
(3.86894e-19 -2.12774e-19 3.27056e-22)
(1.14758e-19 -9.45255e-19 4.29768e-16)
(-1.89025e-19 -1.15229e-19 1.2299e-19)
(0.000147724 -1.22438e-05 2.8793e-17)
(3.31551e-19 -9.20828e-19 8.44209e-17)
(4.35255e-19 3.27818e-19 2.63168e-22)
(2.2024e-08 -2.22403e-08 1.8171e-22)
(1.20188e-19 3.55314e-20 9.77289e-20)
(-1.2979e-14 -1.37081e-13 -3.6342e-22)
(-2.93898e-14 -1.88127e-14 2.60605e-13)
(3.51169e-12 2.96145e-11 1.3844e-07)
(2.03981e-19 4.24135e-19 3.05052e-37)
(-3.75918e-12 -2.11635e-19 1.9489e-08)
(-1.39096e-09 -1.83582e-13 2.23669e-08)
(-2.68164e-11 8.08773e-12 1.3844e-07)
(-3.52469e-22 -1.66362e-23 2.24605e-37)
(-2.18137e-13 -2.11635e-19 1.9489e-08)
(1.20188e-19 3.55314e-20 4.60793e-19)
(2.03886e-15 -1.32484e-14 5.50802e-15)
(2.31802e-22 -3.28762e-19 -4.83366e-37)
(-1.18966e-11 -2.11635e-19 3.66635e-08)
(-2.71803e-11 4.85868e-12 1.3844e-07)
(7.85989e-22 -2.40194e-21 -1.66962e-19)
(-1.89025e-19 -1.15229e-19 -1.56365e-19)
(2.31802e-22 -6.405e-20 -4.83366e-37)
(-1.81432e-20 -2.30937e-19 -1.86071e-19)
(3.12811e-20 1.99739e-19 -1.86071e-19)
(5.89218e-22 -1.36407e-21 -1.66962e-19)
(5.97615e-22 -1.36312e-21 -1.66962e-19)
(6.13181e-22 -1.36137e-21 -1.66962e-19)
(-2.35214e-22 6.94743e-23 9.99872e-23)
(1.81888e-20 -1.83112e-19 -4.83366e-37)
(6.13487e-22 -1.36133e-21 -1.66962e-19)
(-3.86738e-30 -8.07874e-32 -9.33989e-20)
(2.94728e-17 -2.27709e-16 3.5179e-19)
(-5.37598e-21 2.84378e-20 1.67453e-19)
(3.31197e-20 2.778e-19 -2.69221e-19)
(2.31802e-22 -1.85136e-19 2.94517e-22)
(-5.18244e-21 1.18682e-19 3.80046e-20)
(-1.51447e-12 -2.11635e-19 1.9489e-08)
(-4.03659e-22 -3.32942e-23 -1.31584e-22)
(9.51497e-21 4.16878e-20 -1.86071e-19)
(4.62494e-30 -4.45921e-21 2.8382e-22)
(4.62494e-30 -4.45921e-21 3.12834e-22)
(-2.35214e-22 6.94743e-23 3.08174e-22)
(-1.05222e-13 -1.44314e-14 8.74923e-14)
(1.60663e-19 3.33621e-19 1.85409e-20)
(-8.44582e-17 -9.85699e-18 5.48946e-19)
(-2.35214e-22 6.94743e-23 5.11238e-22)
(-3.52469e-22 -1.66362e-23 2.27179e-38)
(-4.25472e-20 6.12015e-20 -1.35005e-19)
(-2.18763e-19 1.22862e-19 -7.54695e-22)
(1.1353e-19 -3.59462e-20 4.18632e-19)
(-5.6101e-20 6.59442e-20 -1.35005e-19)
(-7.0928e-20 -1.24509e-20 1.63528e-22)
(-2.6888e-29 2.02472e-19 1.65943e-21)
(-3.52469e-22 -1.66362e-23 2.2331e-39)
(-3.36989e-20 -8.25616e-21 1.63528e-22)
(3.60645e-19 -1.03116e-19 -9.30355e-20)
(4.62494e-30 -4.45921e-21 2.37579e-22)
(4.62494e-30 -4.45921e-21 2.88463e-22)
(1.86416e-20 2.00371e-19 1.86071e-19)
(3.8267e-20 -1.79322e-19 5.4513e-22)
(1.65983e-20 2.00601e-19 1.86071e-19)
(1.25326e-19 7.88091e-21 5.15581e-22)
(6.09718e-19 5.0065e-20 1.31584e-22)
(8.49156e-22 1.76329e-21 -4.90584e-22)
(-1.15901e-22 1.07978e-21 1.51486e-37)
(4.76002e-30 -3.2965e-19 -1.85319e-20)
(1.04782e-18 -6.21504e-18 1.09334e-14)
(3.08219e-18 -2.42706e-17 6.35374e-15)
(4.88222e-19 3.63757e-20 1.31584e-22)
(1.17077e-19 -1.59566e-19 1.85879e-20)
(-2.2753e-19 -3.35136e-20 -3.62529e-37)
(1.75248e-20 2.00497e-19 1.86071e-19)
(-3.3088e-22 1.05555e-21 7.68035e-38)
(4.3744e-20 -1.6167e-19 -1.67453e-19)
(5.91435e-20 -2.59125e-19 -5.30724e-19)
(1.14554e-19 -3.14618e-20 -3.41011e-20)
(-2.91675e-22 1.05997e-21 7.68035e-38)
(-4.6249e-30 3.80656e-19 -3.19617e-19)
(-2.94118e-22 1.0597e-21 7.68035e-38)
(-1.17306e-19 -2.67151e-20 -3.62529e-37)
(-1.15901e-22 1.07978e-21 9.88565e-39)
(1.24323e-19 1.12349e-19 1.63528e-22)
(1.68034e-19 3.99589e-19 -3.23632e-34)
(-6.69946e-20 -1.71469e-19 1.63528e-22)
(6.17121e-19 -6.01547e-20 4.01918e-23)
(6.17121e-19 -6.01547e-20 1.60961e-22)
(6.27941e-19 -1.56181e-19 5.4513e-22)
(4.07938e-19 -4.84207e-21 8.37264e-20)
(-4.24566e-30 -7.64528e-19 -8.46153e-35)
(1.09384e-20 6.7668e-20 2.51179e-19)
(-5.38222e-20 -4.98881e-19 4.02716e-19)
(-2.38582e-19 3.65961e-19 -1.86071e-19)
(-4.48019e-20 -4.42628e-19 2.97996e-17)
(7.96164e-20 3.49343e-19 1.67453e-19)
(9.90669e-19 -6.01547e-20 5.4513e-22)
(4.2391e-19 -1.46596e-19 1.44648e-19)
(1.61874e-28 -5.79064e-29 -1.39072e-19)
(2.5878e-20 2.22802e-19 2.97449e-19)
(1.91511e-19 2.42676e-29 2.5271e-22)
(3.71112e-19 8.4704e-20 -1.61836e-19)
(1.43534e-19 4.95716e-19 -4.65177e-19)
(1.64755e-19 2.3746e-19 5.4513e-22)
(4.24568e-30 6.6962e-19 0)
(-6.95987e-19 2.19722e-19 8.37264e-20)
(-1.55003e-28 -4.66686e-29 8.40534e-20)
(1.59761e-29 -6.15496e-19 -9.30355e-20)
(-7.03118e-19 1.60482e-19 -1.67453e-19)
(-8.09863e-15 -3.5492e-14 -7.18881e-11)
(4.33598e-18 -5.32152e-18 -1.53142e-18)
(-9.07838e-19 6.88438e-20 1.46774e-35)
)


// ************************************************************************* //
