/*--------------------------------*- C++ -*----------------------------------*\
| =========                 |                                                 |
| \\      /  F ield         | OpenFOAM: The Open Source CFD Toolbox           |
|  \\    /   O peration     | Version:  plus.master.MPPICInterFoam            |
|   \\  /    A nd           | Web:      www.OpenFOAM.com                      |
|    \\/     M anipulation  |                                                 |
\*---------------------------------------------------------------------------*/
FoamFile
{
    version     2.0;
    format      ascii;
    class       volScalarField;
    location    "4.8";
    object      p;
}
// * * * * * * * * * * * * * * * * * * * * * * * * * * * * * * * * * * * * * //

dimensions      [1 -1 -2 0 0 0 0];

internalField   nonuniform List<scalar> 
11821
(
3941.3
3941.3
3941.3
3941.3
3941.3
3941.3
3941.3
3941.3
3941.3
3941.3
3941.3
3941.29
3941.29
3941.29
3941.29
3941.29
3941.29
3941.29
3941.29
3941.29
3941.29
3941.29
3941.29
3941.29
3941.3
3941.3
3941.3
3941.3
3941.3
3941.3
3941.3
3941.3
3941.31
3941.31
3941.31
3941.31
3941.31
3941.31
3941.31
3941.31
3941.32
3941.32
3941.32
3941.32
3941.32
3941.32
3941.32
3941.32
3941.34
3941.34
3941.34
3941.34
3941.34
3941.34
3941.35
3941.35
3844.22
3844.22
3844.22
3844.22
3844.22
3844.22
3844.22
3844.22
3844.21
3844.21
3844.21
3844.21
3844.21
3844.21
3844.21
3844.21
3844.21
3844.21
3844.21
3844.21
3844.21
3844.21
3844.21
3844.21
3844.22
3844.22
3844.22
3844.22
3844.21
3844.21
3844.21
3844.21
3844.22
3844.22
3844.22
3844.22
3844.22
3844.22
3844.22
3844.22
3844.24
3844.24
3844.24
3844.24
3844.24
3844.24
3844.24
3844.24
3844.25
3844.25
3844.25
3844.25
3844.26
3844.26
3844.26
3844.26
3747.13
3747.13
3747.13
3747.13
3747.13
3747.13
3747.13
3747.13
3747.13
3747.13
3747.13
3747.13
3747.13
3747.13
3747.13
3747.13
3747.13
3747.13
3747.13
3747.13
3747.13
3747.13
3747.13
3747.13
3747.13
3747.13
3747.13
3747.13
3747.13
3747.13
3747.13
3747.13
3747.14
3747.14
3747.14
3747.14
3747.14
3747.14
3747.14
3747.14
3747.15
3747.15
3747.15
3747.15
3747.15
3747.15
3747.15
3747.15
3747.17
3747.17
3747.17
3747.17
3747.17
3747.17
3747.17
3747.17
3650.05
3650.05
3650.05
3650.05
3650.05
3650.05
3650.05
3650.05
3650.05
3650.05
3650.05
3650.05
3650.05
3650.04
3650.04
3650.04
3650.05
3650.05
3650.05
3650.05
3650.05
3650.05
3650.04
3650.04
3650.05
3650.05
3650.05
3650.05
3650.05
3650.05
3650.05
3650.05
3650.06
3650.06
3650.06
3650.06
3650.06
3650.06
3650.06
3650.06
3650.07
3650.07
3650.07
3650.07
3650.07
3650.07
3650.07
3650.07
3650.08
3650.08
3650.08
3650.08
3650.08
3650.08
3650.08
3650.08
3552.97
3552.97
3552.97
3552.97
3552.97
3552.96
3552.96
3552.96
3552.96
3552.96
3552.96
3552.96
3552.96
3552.96
3552.96
3552.96
3552.97
3552.97
3552.96
3552.96
3552.96
3552.96
3552.96
3552.96
3552.97
3552.97
3552.97
3552.97
3552.97
3552.97
3552.97
3552.97
3552.98
3552.98
3552.98
3552.98
3552.97
3552.97
3552.97
3552.97
3552.98
3552.98
3552.98
3552.98
3552.98
3552.98
3552.98
3552.98
3553
3553
3553
3553
3553
3553
3553
3553
3455.88
3455.88
3455.88
3455.88
3455.88
3455.88
3455.88
3455.88
3455.88
3455.88
3455.88
3455.88
3455.88
3455.88
3455.88
3455.88
3455.88
3455.88
3455.88
3455.88
3455.88
3455.88
3455.88
3455.88
3455.89
3455.89
3455.89
3455.89
3455.89
3455.88
3455.88
3455.88
3455.89
3455.89
3455.89
3455.89
3455.89
3455.89
3455.89
3455.89
3455.9
3455.9
3455.9
3455.9
3455.9
3455.9
3455.9
3455.9
3455.91
3455.91
3455.91
3455.91
3455.91
3455.91
3455.91
3455.91
3358.8
3358.8
3358.8
3358.8
3358.8
3358.8
3358.8
3358.8
3358.8
3358.8
3358.8
3358.8
3358.8
3358.8
3358.8
3358.8
3358.8
3358.8
3358.8
3358.8
3358.8
3358.8
3358.8
3358.8
3358.81
3358.81
3358.81
3358.81
3358.8
3358.8
3358.8
3358.8
3358.81
3358.81
3358.81
3358.81
3358.81
3358.81
3358.81
3358.81
3358.82
3358.82
3358.82
3358.82
3358.82
3358.82
3358.82
3358.82
3358.83
3358.83
3358.83
3358.83
3358.83
3358.83
3358.83
3358.83
3261.72
3261.72
3261.72
3261.72
3261.72
3261.72
3261.72
3261.72
3261.72
3261.72
3261.72
3261.72
3261.72
3261.72
3261.72
3261.72
3261.72
3261.72
3261.72
3261.72
3261.72
3261.72
3261.72
3261.72
3261.73
3261.73
3261.73
3261.73
3261.72
3261.72
3261.72
3261.72
3261.73
3261.73
3261.73
3261.73
3261.73
3261.73
3261.73
3261.73
3261.74
3261.74
3261.74
3261.74
3261.74
3261.74
3261.74
3261.74
3261.75
3261.75
3261.75
3261.75
3261.75
3261.75
3261.75
3261.75
3164.64
3164.64
3164.64
3164.64
3164.64
3164.64
3164.64
3164.64
3164.64
3164.64
3164.64
3164.64
3164.64
3164.64
3164.64
3164.64
3164.64
3164.64
3164.64
3164.64
3164.64
3164.64
3164.64
3164.64
3164.65
3164.65
3164.65
3164.65
3164.65
3164.64
3164.64
3164.64
3164.65
3164.65
3164.65
3164.65
3164.65
3164.65
3164.65
3164.65
3164.66
3164.66
3164.66
3164.66
3164.66
3164.66
3164.66
3164.66
3164.67
3164.67
3164.67
3164.67
3164.67
3164.67
3164.67
3164.67
3067.56
3067.56
3067.56
3067.56
3067.56
3067.56
3067.56
3067.56
3067.56
3067.56
3067.56
3067.56
3067.56
3067.56
3067.56
3067.56
3067.56
3067.56
3067.56
3067.56
3067.56
3067.56
3067.56
3067.56
3067.57
3067.57
3067.57
3067.57
3067.57
3067.57
3067.57
3067.57
3067.57
3067.57
3067.57
3067.57
3067.57
3067.57
3067.57
3067.57
3067.58
3067.58
3067.58
3067.58
3067.58
3067.58
3067.58
3067.58
3067.59
3067.59
3067.59
3067.59
3067.59
3067.59
3067.59
3067.59
2970.48
2970.48
2970.48
2970.48
2970.48
2970.48
2970.48
2970.48
2970.48
2970.48
2970.48
2970.48
2970.48
2970.48
2970.48
2970.48
2970.49
2970.49
2970.49
2970.49
2970.48
2970.48
2970.48
2970.48
2970.49
2970.49
2970.49
2970.49
2970.49
2970.49
2970.49
2970.49
2970.5
2970.5
2970.5
2970.5
2970.5
2970.5
2970.49
2970.49
2970.5
2970.5
2970.5
2970.5
2970.5
2970.5
2970.5
2970.5
2970.51
2970.51
2970.51
2970.51
2970.51
2970.51
2970.51
2970.51
2873.4
2873.4
2873.4
2873.4
2873.4
2873.4
2873.4
2873.4
2873.41
2873.41
2873.41
2873.4
2873.4
2873.4
2873.4
2873.4
2873.41
2873.41
2873.41
2873.41
2873.41
2873.41
2873.41
2873.4
2873.41
2873.41
2873.41
2873.41
2873.41
2873.41
2873.41
2873.41
2873.42
2873.42
2873.42
2873.42
2873.42
2873.42
2873.42
2873.42
2873.43
2873.43
2873.43
2873.43
2873.43
2873.43
2873.42
2873.42
2873.43
2873.43
2873.43
2873.43
2873.43
2873.43
2873.43
2873.43
2776.33
2776.33
2776.33
2776.32
2776.32
2776.32
2776.32
2776.32
2776.33
2776.33
2776.33
2776.33
2776.33
2776.32
2776.32
2776.32
2776.33
2776.33
2776.33
2776.33
2776.33
2776.33
2776.33
2776.33
2776.34
2776.34
2776.34
2776.34
2776.33
2776.33
2776.33
2776.33
2776.34
2776.34
2776.34
2776.34
2776.34
2776.34
2776.34
2776.34
2776.35
2776.35
2776.35
2776.35
2776.35
2776.35
2776.35
2776.35
2776.36
2776.36
2776.36
2776.36
2776.36
2776.36
2776.36
2776.36
2679.25
2679.25
2679.25
2679.25
2679.24
2679.24
2679.24
2679.24
2679.25
2679.25
2679.25
2679.25
2679.25
2679.25
2679.24
2679.24
2679.25
2679.25
2679.25
2679.25
2679.25
2679.25
2679.25
2679.25
2679.26
2679.26
2679.26
2679.26
2679.26
2679.26
2679.25
2679.25
2679.27
2679.27
2679.26
2679.26
2679.26
2679.26
2679.26
2679.26
2679.27
2679.27
2679.27
2679.27
2679.27
2679.27
2679.27
2679.27
2679.28
2679.28
2679.28
2679.28
2679.28
2679.28
2679.28
2679.28
3941.41
3941.41
3941.41
3941.41
3941.42
3941.42
3941.42
3941.42
3941.42
3941.42
3941.42
3941.43
3941.43
3941.44
3941.45
3941.46
3941.4
3941.41
3941.41
3941.41
3941.41
3941.44
3941.44
3941.38
3844.32
3844.32
3844.32
3844.32
3844.33
3844.33
3844.33
3844.33
3844.33
3844.33
3844.33
3844.34
3844.34
3844.34
3844.35
3844.35
3844.31
3844.32
3844.32
3844.32
3844.32
3844.32
3844.33
3844.33
3844.34
3844.34
3844.34
3844.35
3844.36
3844.38
3844.39
3844.41
3844.3
3844.3
3844.3
3844.3
3844.31
3844.31
3844.31
3844.31
3844.31
3844.31
3844.31
3844.32
3844.32
3844.32
3844.33
3844.33
3844.28
3844.29
3844.29
3844.29
3844.29
3844.29
3844.29
3844.29
3747.23
3747.23
3747.23
3747.23
3747.24
3747.24
3747.24
3747.24
3747.24
3747.24
3747.24
3747.24
3747.25
3747.25
3747.25
3747.26
3747.22
3747.23
3747.23
3747.23
3747.23
3747.23
3747.23
3747.23
3747.24
3747.24
3747.25
3747.25
3747.26
3747.27
3747.28
3747.29
3747.21
3747.21
3747.21
3747.21
3747.22
3747.22
3747.22
3747.22
3747.22
3747.22
3747.22
3747.22
3747.22
3747.23
3747.23
3747.23
3747.2
3747.2
3747.2
3747.2
3747.2
3747.2
3747.2
3747.2
3650.14
3650.14
3650.14
3650.14
3650.14
3650.15
3650.15
3650.15
3650.15
3650.15
3650.15
3650.15
3650.15
3650.15
3650.16
3650.16
3650.13
3650.14
3650.14
3650.14
3650.14
3650.14
3650.14
3650.14
3650.15
3650.15
3650.15
3650.15
3650.16
3650.17
3650.17
3650.18
3650.12
3650.12
3650.12
3650.12
3650.12
3650.13
3650.13
3650.13
3650.13
3650.13
3650.13
3650.13
3650.13
3650.13
3650.14
3650.14
3650.11
3650.11
3650.11
3650.11
3650.11
3650.11
3650.11
3650.11
3553.05
3553.05
3553.05
3553.05
3553.05
3553.06
3553.06
3553.06
3553.05
3553.05
3553.06
3553.06
3553.06
3553.06
3553.06
3553.07
3553.05
3553.05
3553.05
3553.05
3553.05
3553.05
3553.05
3553.05
3553.05
3553.05
3553.06
3553.06
3553.06
3553.07
3553.07
3553.08
3553.03
3553.03
3553.03
3553.03
3553.04
3553.04
3553.04
3553.04
3553.04
3553.04
3553.04
3553.04
3553.04
3553.04
3553.04
3553.04
3553.02
3553.02
3553.02
3553.02
3553.02
3553.02
3553.02
3553.02
3455.96
3455.96
3455.96
3455.96
3455.97
3455.97
3455.97
3455.97
3455.96
3455.96
3455.97
3455.97
3455.97
3455.97
3455.97
3455.97
3455.96
3455.96
3455.96
3455.96
3455.96
3455.96
3455.96
3455.96
3455.96
3455.96
3455.96
3455.97
3455.97
3455.97
3455.98
3455.98
3455.94
3455.95
3455.95
3455.95
3455.95
3455.95
3455.95
3455.95
3455.95
3455.95
3455.95
3455.95
3455.95
3455.95
3455.95
3455.95
3455.93
3455.93
3455.93
3455.93
3455.93
3455.93
3455.93
3455.93
3358.88
3358.88
3358.88
3358.88
3358.88
3358.88
3358.88
3358.88
3358.88
3358.88
3358.88
3358.88
3358.88
3358.88
3358.88
3358.89
3358.87
3358.87
3358.87
3358.87
3358.87
3358.87
3358.87
3358.88
3358.87
3358.87
3358.88
3358.88
3358.88
3358.88
3358.88
3358.89
3358.86
3358.86
3358.86
3358.86
3358.86
3358.86
3358.86
3358.86
3358.86
3358.86
3358.86
3358.86
3358.86
3358.86
3358.87
3358.87
3358.85
3358.85
3358.85
3358.85
3358.85
3358.85
3358.85
3358.85
3261.79
3261.79
3261.79
3261.79
3261.79
3261.79
3261.8
3261.8
3261.79
3261.79
3261.79
3261.79
3261.8
3261.8
3261.8
3261.8
3261.79
3261.79
3261.79
3261.79
3261.79
3261.79
3261.79
3261.79
3261.79
3261.79
3261.79
3261.79
3261.79
3261.79
3261.8
3261.8
3261.77
3261.78
3261.78
3261.78
3261.78
3261.78
3261.78
3261.78
3261.78
3261.78
3261.78
3261.78
3261.78
3261.78
3261.78
3261.78
3261.76
3261.76
3261.76
3261.76
3261.77
3261.77
3261.77
3261.77
3164.71
3164.71
3164.71
3164.71
3164.71
3164.71
3164.71
3164.71
3164.71
3164.71
3164.71
3164.71
3164.71
3164.71
3164.71
3164.71
3164.7
3164.7
3164.7
3164.7
3164.71
3164.71
3164.71
3164.71
3164.7
3164.7
3164.71
3164.71
3164.71
3164.71
3164.71
3164.71
3164.69
3164.69
3164.69
3164.69
3164.69
3164.69
3164.7
3164.7
3164.69
3164.69
3164.69
3164.69
3164.69
3164.69
3164.7
3164.7
3164.68
3164.68
3164.68
3164.68
3164.68
3164.68
3164.68
3164.68
3067.63
3067.63
3067.63
3067.63
3067.63
3067.63
3067.63
3067.63
3067.63
3067.63
3067.63
3067.63
3067.63
3067.63
3067.63
3067.63
3067.62
3067.62
3067.62
3067.62
3067.62
3067.62
3067.63
3067.63
3067.62
3067.62
3067.62
3067.62
3067.62
3067.63
3067.63
3067.63
3067.61
3067.61
3067.61
3067.61
3067.61
3067.61
3067.61
3067.61
3067.61
3067.61
3067.61
3067.61
3067.61
3067.61
3067.61
3067.61
3067.6
3067.6
3067.6
3067.6
3067.6
3067.6
3067.6
3067.6
2970.55
2970.55
2970.55
2970.55
2970.55
2970.55
2970.55
2970.55
2970.55
2970.55
2970.55
2970.55
2970.55
2970.55
2970.55
2970.55
2970.54
2970.54
2970.54
2970.54
2970.54
2970.55
2970.55
2970.55
2970.54
2970.54
2970.54
2970.54
2970.54
2970.54
2970.54
2970.55
2970.53
2970.53
2970.53
2970.53
2970.53
2970.53
2970.53
2970.53
2970.53
2970.53
2970.53
2970.53
2970.53
2970.53
2970.53
2970.53
2970.52
2970.52
2970.52
2970.52
2970.52
2970.52
2970.52
2970.52
2873.47
2873.47
2873.47
2873.47
2873.47
2873.47
2873.47
2873.47
2873.47
2873.47
2873.47
2873.47
2873.47
2873.47
2873.47
2873.47
2873.46
2873.46
2873.47
2873.47
2873.47
2873.47
2873.47
2873.47
2873.46
2873.46
2873.46
2873.46
2873.46
2873.46
2873.46
2873.46
2873.45
2873.45
2873.45
2873.45
2873.45
2873.45
2873.45
2873.46
2873.45
2873.45
2873.45
2873.45
2873.45
2873.45
2873.45
2873.45
2873.44
2873.44
2873.44
2873.44
2873.44
2873.44
2873.44
2873.44
2776.39
2776.39
2776.39
2776.39
2776.39
2776.4
2776.4
2776.4
2776.39
2776.39
2776.39
2776.39
2776.39
2776.39
2776.39
2776.39
2776.39
2776.39
2776.39
2776.39
2776.39
2776.39
2776.39
2776.39
2776.38
2776.38
2776.38
2776.38
2776.38
2776.38
2776.38
2776.39
2776.38
2776.38
2776.38
2776.38
2776.38
2776.38
2776.38
2776.38
2776.37
2776.37
2776.37
2776.37
2776.37
2776.37
2776.37
2776.37
2776.36
2776.36
2776.36
2776.36
2776.36
2776.36
2776.36
2776.36
2679.32
2679.32
2679.32
2679.32
2679.32
2679.32
2679.32
2679.32
2679.31
2679.31
2679.31
2679.31
2679.32
2679.32
2679.32
2679.32
2679.31
2679.31
2679.31
2679.31
2679.31
2679.31
2679.31
2679.31
2679.3
2679.3
2679.3
2679.31
2679.31
2679.31
2679.31
2679.31
2679.3
2679.3
2679.3
2679.3
2679.3
2679.3
2679.3
2679.3
2679.29
2679.29
2679.29
2679.29
2679.29
2679.29
2679.29
2679.29
2679.28
2679.28
2679.28
2679.28
2679.28
2679.28
2679.28
2679.28
3941.36
3941.37
3941.37
3941.34
3941.34
3941.34
3941.34
3941.34
3941.34
3941.34
3941.34
3941.34
3941.34
3941.34
3941.34
3941.34
3941.31
3941.32
3941.31
3941.31
3941.31
3941.31
3941.31
3941.31
3844.29
3844.28
3844.28
3844.28
3844.28
3844.28
3844.28
3844.28
3844.28
3844.28
3844.28
3844.28
3844.28
3844.28
3844.28
3844.28
3844.27
3844.27
3844.27
3844.27
3844.27
3844.26
3844.26
3844.26
3844.27
3844.27
3844.27
3844.27
3844.28
3844.28
3844.28
3844.28
3844.25
3844.25
3844.25
3844.25
3844.25
3844.25
3844.25
3844.25
3844.24
3844.24
3844.24
3844.24
3844.24
3844.24
3844.24
3844.24
3844.23
3844.23
3844.23
3844.23
3844.23
3844.23
3844.22
3844.22
3747.19
3747.19
3747.19
3747.19
3747.19
3747.19
3747.19
3747.19
3747.19
3747.19
3747.19
3747.19
3747.19
3747.19
3747.19
3747.19
3747.18
3747.18
3747.18
3747.18
3747.17
3747.17
3747.17
3747.17
3747.18
3747.17
3747.18
3747.18
3747.18
3747.18
3747.18
3747.18
3747.16
3747.16
3747.16
3747.16
3747.16
3747.16
3747.16
3747.16
3747.15
3747.15
3747.15
3747.15
3747.15
3747.15
3747.15
3747.15
3747.14
3747.14
3747.14
3747.14
3747.14
3747.14
3747.14
3747.14
3650.1
3650.1
3650.1
3650.1
3650.1
3650.1
3650.1
3650.1
3650.1
3650.1
3650.1
3650.1
3650.1
3650.1
3650.1
3650.1
3650.09
3650.09
3650.09
3650.09
3650.09
3650.09
3650.08
3650.08
3650.08
3650.08
3650.08
3650.08
3650.09
3650.09
3650.09
3650.09
3650.07
3650.07
3650.07
3650.07
3650.07
3650.07
3650.07
3650.07
3650.06
3650.06
3650.06
3650.06
3650.06
3650.06
3650.07
3650.07
3650.06
3650.06
3650.06
3650.05
3650.05
3650.05
3650.05
3650.05
3553.02
3553.02
3553.02
3553.02
3553.02
3553.02
3553.02
3553.02
3553.01
3553.01
3553.01
3553.01
3553.01
3553.01
3553.01
3553.01
3553
3553
3553
3553
3553
3553
3553
3553
3552.99
3552.99
3552.99
3552.99
3553
3553
3553
3553
3552.98
3552.98
3552.98
3552.98
3552.98
3552.98
3552.98
3552.98
3552.98
3552.98
3552.98
3552.98
3552.98
3552.98
3552.98
3552.98
3552.97
3552.97
3552.97
3552.97
3552.97
3552.97
3552.97
3552.97
3455.93
3455.93
3455.93
3455.93
3455.93
3455.93
3455.93
3455.93
3455.92
3455.92
3455.92
3455.92
3455.92
3455.92
3455.92
3455.92
3455.91
3455.91
3455.91
3455.91
3455.91
3455.91
3455.91
3455.91
3455.91
3455.91
3455.91
3455.91
3455.91
3455.91
3455.91
3455.91
3455.9
3455.9
3455.9
3455.9
3455.9
3455.9
3455.9
3455.9
3455.89
3455.89
3455.89
3455.89
3455.89
3455.89
3455.89
3455.89
3455.89
3455.89
3455.89
3455.89
3455.89
3455.89
3455.88
3455.88
3358.84
3358.84
3358.84
3358.84
3358.84
3358.84
3358.84
3358.84
3358.83
3358.83
3358.83
3358.83
3358.83
3358.83
3358.83
3358.83
3358.83
3358.83
3358.83
3358.83
3358.83
3358.83
3358.83
3358.83
3358.82
3358.82
3358.82
3358.82
3358.82
3358.82
3358.82
3358.82
3358.81
3358.81
3358.81
3358.81
3358.81
3358.81
3358.81
3358.81
3358.81
3358.81
3358.81
3358.81
3358.81
3358.81
3358.81
3358.81
3358.8
3358.8
3358.8
3358.8
3358.8
3358.8
3358.8
3358.8
3261.76
3261.76
3261.76
3261.76
3261.76
3261.76
3261.76
3261.76
3261.75
3261.75
3261.75
3261.75
3261.75
3261.75
3261.75
3261.75
3261.74
3261.74
3261.74
3261.74
3261.74
3261.74
3261.74
3261.74
3261.74
3261.74
3261.74
3261.74
3261.74
3261.74
3261.74
3261.74
3261.73
3261.73
3261.73
3261.73
3261.73
3261.73
3261.73
3261.73
3261.73
3261.73
3261.73
3261.73
3261.73
3261.73
3261.73
3261.73
3261.72
3261.72
3261.72
3261.72
3261.72
3261.72
3261.72
3261.72
3164.68
3164.68
3164.68
3164.68
3164.68
3164.68
3164.68
3164.68
3164.67
3164.67
3164.67
3164.67
3164.67
3164.67
3164.67
3164.67
3164.66
3164.66
3164.66
3164.66
3164.66
3164.66
3164.66
3164.66
3164.66
3164.66
3164.66
3164.66
3164.66
3164.66
3164.66
3164.66
3164.65
3164.65
3164.65
3164.65
3164.65
3164.65
3164.65
3164.65
3164.65
3164.65
3164.65
3164.65
3164.64
3164.64
3164.64
3164.64
3164.64
3164.64
3164.64
3164.64
3164.64
3164.64
3164.64
3164.64
3067.59
3067.59
3067.59
3067.59
3067.59
3067.59
3067.59
3067.59
3067.59
3067.59
3067.59
3067.59
3067.59
3067.59
3067.59
3067.59
3067.58
3067.58
3067.58
3067.58
3067.58
3067.58
3067.58
3067.58
3067.57
3067.57
3067.57
3067.57
3067.57
3067.57
3067.57
3067.57
3067.57
3067.57
3067.57
3067.57
3067.57
3067.57
3067.57
3067.57
3067.57
3067.57
3067.57
3067.56
3067.56
3067.56
3067.56
3067.56
3067.56
3067.56
3067.56
3067.56
3067.56
3067.56
3067.56
3067.56
2970.51
2970.51
2970.51
2970.51
2970.51
2970.51
2970.51
2970.51
2970.51
2970.51
2970.51
2970.51
2970.51
2970.51
2970.51
2970.51
2970.5
2970.5
2970.5
2970.5
2970.5
2970.5
2970.5
2970.5
2970.49
2970.49
2970.49
2970.49
2970.49
2970.49
2970.49
2970.49
2970.49
2970.49
2970.49
2970.49
2970.49
2970.49
2970.49
2970.49
2970.49
2970.49
2970.49
2970.49
2970.48
2970.48
2970.48
2970.48
2970.48
2970.48
2970.48
2970.48
2970.48
2970.48
2970.48
2970.48
2873.43
2873.43
2873.43
2873.43
2873.43
2873.43
2873.43
2873.43
2873.43
2873.43
2873.43
2873.43
2873.43
2873.43
2873.43
2873.43
2873.42
2873.42
2873.42
2873.42
2873.42
2873.42
2873.42
2873.42
2873.41
2873.41
2873.41
2873.41
2873.41
2873.41
2873.41
2873.41
2873.41
2873.41
2873.41
2873.41
2873.41
2873.41
2873.41
2873.41
2873.41
2873.41
2873.41
2873.41
2873.4
2873.4
2873.4
2873.4
2873.41
2873.4
2873.4
2873.4
2873.4
2873.4
2873.4
2873.4
2776.35
2776.35
2776.35
2776.35
2776.35
2776.35
2776.35
2776.35
2776.35
2776.35
2776.35
2776.35
2776.35
2776.35
2776.35
2776.35
2776.34
2776.34
2776.34
2776.34
2776.34
2776.34
2776.34
2776.34
2776.33
2776.33
2776.33
2776.33
2776.33
2776.33
2776.33
2776.33
2776.33
2776.33
2776.33
2776.33
2776.33
2776.33
2776.33
2776.33
2776.33
2776.33
2776.33
2776.33
2776.33
2776.32
2776.32
2776.32
2776.33
2776.33
2776.33
2776.32
2776.32
2776.32
2776.32
2776.32
2679.27
2679.27
2679.27
2679.27
2679.27
2679.27
2679.27
2679.27
2679.27
2679.27
2679.27
2679.27
2679.27
2679.27
2679.27
2679.27
2679.26
2679.26
2679.26
2679.26
2679.26
2679.26
2679.26
2679.26
2679.26
2679.25
2679.25
2679.25
2679.25
2679.25
2679.25
2679.25
2679.25
2679.25
2679.25
2679.25
2679.25
2679.25
2679.25
2679.25
2679.25
2679.25
2679.25
2679.25
2679.25
2679.24
2679.24
2679.24
2679.25
2679.25
2679.25
2679.24
2679.24
2679.24
2679.24
2679.24
3941.36
3941.36
3941.36
3941.36
3941.36
3941.36
3941.36
3941.37
3941.38
3941.39
3941.39
3941.39
3941.4
3941.41
3941.41
3941.42
3941.39
3941.39
3941.4
3941.4
3941.4
3941.41
3941.41
3941.42
3941.43
3941.43
3941.44
3941.45
3941.47
3941.48
3941.5
3941.52
3941.41
3941.41
3941.41
3941.41
3941.42
3941.42
3941.42
3941.43
3941.42
3941.43
3941.43
3941.43
3941.44
3941.45
3941.45
3941.46
3941.41
3941.41
3941.41
3941.41
3941.42
3941.42
3941.42
3941.42
3844.27
3844.27
3844.27
3844.27
3844.27
3844.27
3844.27
3844.28
3844.29
3844.29
3844.3
3844.3
3844.3
3844.31
3844.31
3844.32
3844.3
3844.3
3844.3
3844.31
3844.31
3844.31
3844.32
3844.32
3844.33
3844.33
3844.34
3844.35
3844.36
3844.37
3844.38
3844.4
3844.32
3844.32
3844.32
3844.32
3844.32
3844.33
3844.33
3844.33
3844.33
3844.33
3844.33
3844.34
3844.34
3844.35
3844.35
3844.36
3844.32
3844.32
3844.32
3844.32
3844.33
3844.33
3844.33
3844.33
3747.18
3747.18
3747.18
3747.18
3747.18
3747.18
3747.19
3747.19
3747.2
3747.2
3747.2
3747.21
3747.21
3747.21
3747.22
3747.22
3747.21
3747.21
3747.21
3747.21
3747.22
3747.22
3747.22
3747.22
3747.23
3747.23
3747.24
3747.24
3747.25
3747.26
3747.27
3747.28
3747.23
3747.23
3747.23
3747.23
3747.23
3747.23
3747.23
3747.24
3747.24
3747.24
3747.24
3747.24
3747.25
3747.25
3747.25
3747.26
3747.23
3747.23
3747.23
3747.23
3747.23
3747.24
3747.24
3747.24
3650.09
3650.09
3650.1
3650.1
3650.1
3650.1
3650.1
3650.1
3650.11
3650.11
3650.11
3650.12
3650.12
3650.12
3650.12
3650.13
3650.12
3650.12
3650.12
3650.12
3650.12
3650.13
3650.13
3650.13
3650.14
3650.14
3650.14
3650.15
3650.15
3650.16
3650.16
3650.17
3650.13
3650.14
3650.14
3650.14
3650.14
3650.14
3650.14
3650.14
3650.14
3650.14
3650.15
3650.15
3650.15
3650.15
3650.16
3650.16
3650.14
3650.14
3650.14
3650.14
3650.14
3650.15
3650.15
3650.15
3553.01
3553.01
3553.01
3553.01
3553.01
3553.01
3553.01
3553.01
3553.02
3553.02
3553.02
3553.03
3553.03
3553.03
3553.03
3553.03
3553.03
3553.03
3553.03
3553.03
3553.03
3553.04
3553.04
3553.04
3553.04
3553.05
3553.05
3553.05
3553.05
3553.06
3553.06
3553.07
3553.05
3553.05
3553.05
3553.05
3553.05
3553.05
3553.05
3553.05
3553.05
3553.05
3553.05
3553.06
3553.06
3553.06
3553.06
3553.06
3553.05
3553.05
3553.05
3553.05
3553.05
3553.05
3553.06
3553.06
3455.92
3455.92
3455.92
3455.92
3455.92
3455.92
3455.92
3455.92
3455.93
3455.94
3455.94
3455.94
3455.94
3455.94
3455.94
3455.94
3455.94
3455.94
3455.94
3455.95
3455.95
3455.95
3455.95
3455.95
3455.95
3455.96
3455.96
3455.96
3455.96
3455.97
3455.97
3455.97
3455.96
3455.96
3455.96
3455.96
3455.96
3455.96
3455.96
3455.96
3455.96
3455.96
3455.96
3455.97
3455.97
3455.97
3455.97
3455.97
3455.96
3455.96
3455.96
3455.96
3455.97
3455.97
3455.97
3455.97
3358.84
3358.84
3358.84
3358.84
3358.84
3358.84
3358.84
3358.84
3358.85
3358.85
3358.85
3358.85
3358.85
3358.85
3358.86
3358.86
3358.86
3358.86
3358.86
3358.86
3358.86
3358.86
3358.86
3358.86
3358.87
3358.87
3358.87
3358.87
3358.87
3358.88
3358.88
3358.88
3358.87
3358.87
3358.87
3358.87
3358.87
3358.87
3358.87
3358.88
3358.88
3358.88
3358.88
3358.88
3358.88
3358.88
3358.88
3358.88
3358.88
3358.88
3358.88
3358.88
3358.88
3358.88
3358.88
3358.88
3261.76
3261.76
3261.76
3261.76
3261.76
3261.76
3261.76
3261.76
3261.77
3261.77
3261.77
3261.77
3261.77
3261.77
3261.77
3261.77
3261.77
3261.77
3261.78
3261.78
3261.78
3261.78
3261.78
3261.78
3261.78
3261.78
3261.78
3261.79
3261.79
3261.79
3261.79
3261.79
3261.79
3261.79
3261.79
3261.79
3261.79
3261.79
3261.79
3261.79
3261.79
3261.79
3261.79
3261.79
3261.79
3261.8
3261.8
3261.8
3261.79
3261.79
3261.79
3261.79
3261.79
3261.79
3261.8
3261.8
3164.68
3164.68
3164.68
3164.68
3164.68
3164.68
3164.68
3164.68
3164.69
3164.69
3164.69
3164.69
3164.69
3164.69
3164.69
3164.69
3164.69
3164.69
3164.69
3164.69
3164.69
3164.7
3164.7
3164.7
3164.7
3164.7
3164.7
3164.7
3164.7
3164.7
3164.71
3164.71
3164.7
3164.7
3164.7
3164.71
3164.71
3164.71
3164.71
3164.71
3164.71
3164.71
3164.71
3164.71
3164.71
3164.71
3164.71
3164.71
3164.71
3164.71
3164.71
3164.71
3164.71
3164.71
3164.71
3164.71
3067.6
3067.6
3067.6
3067.6
3067.6
3067.6
3067.6
3067.6
3067.61
3067.61
3067.61
3067.61
3067.61
3067.61
3067.61
3067.61
3067.61
3067.61
3067.61
3067.61
3067.61
3067.61
3067.62
3067.62
3067.62
3067.62
3067.62
3067.62
3067.62
3067.62
3067.62
3067.63
3067.62
3067.62
3067.62
3067.62
3067.63
3067.63
3067.63
3067.63
3067.63
3067.63
3067.63
3067.63
3067.63
3067.63
3067.63
3067.63
3067.63
3067.63
3067.63
3067.63
3067.63
3067.63
3067.63
3067.63
2970.52
2970.52
2970.52
2970.52
2970.52
2970.52
2970.52
2970.52
2970.53
2970.53
2970.53
2970.53
2970.53
2970.53
2970.53
2970.53
2970.53
2970.53
2970.53
2970.53
2970.54
2970.54
2970.54
2970.54
2970.54
2970.54
2970.54
2970.54
2970.54
2970.54
2970.54
2970.55
2970.54
2970.54
2970.55
2970.55
2970.55
2970.55
2970.55
2970.55
2970.55
2970.55
2970.55
2970.55
2970.55
2970.55
2970.55
2970.55
2970.55
2970.55
2970.55
2970.55
2970.55
2970.55
2970.55
2970.55
2873.44
2873.44
2873.44
2873.44
2873.44
2873.44
2873.44
2873.44
2873.45
2873.45
2873.45
2873.45
2873.45
2873.45
2873.45
2873.45
2873.46
2873.46
2873.46
2873.46
2873.46
2873.46
2873.46
2873.46
2873.46
2873.46
2873.46
2873.46
2873.46
2873.47
2873.47
2873.47
2873.47
2873.47
2873.47
2873.47
2873.47
2873.47
2873.47
2873.47
2873.47
2873.47
2873.47
2873.47
2873.47
2873.47
2873.47
2873.47
2873.47
2873.47
2873.47
2873.47
2873.47
2873.47
2873.47
2873.47
2776.37
2776.37
2776.37
2776.37
2776.37
2776.37
2776.37
2776.37
2776.37
2776.37
2776.37
2776.37
2776.37
2776.37
2776.37
2776.37
2776.38
2776.38
2776.38
2776.38
2776.38
2776.38
2776.38
2776.38
2776.39
2776.39
2776.39
2776.39
2776.39
2776.39
2776.39
2776.39
2776.39
2776.39
2776.39
2776.39
2776.39
2776.39
2776.39
2776.39
2776.39
2776.39
2776.39
2776.39
2776.39
2776.4
2776.4
2776.4
2776.39
2776.39
2776.39
2776.4
2776.4
2776.4
2776.4
2776.4
2679.29
2679.29
2679.29
2679.29
2679.29
2679.29
2679.29
2679.29
2679.3
2679.3
2679.3
2679.3
2679.3
2679.3
2679.3
2679.3
2679.3
2679.3
2679.3
2679.3
2679.3
2679.31
2679.31
2679.31
2679.31
2679.31
2679.31
2679.31
2679.31
2679.31
2679.31
2679.31
2679.31
2679.31
2679.31
2679.32
2679.32
2679.32
2679.32
2679.32
2679.32
2679.32
2679.32
2679.32
2679.32
2679.32
2679.32
2679.32
2679.32
2679.32
2679.32
2679.32
2679.32
2679.32
2679.32
2679.32
3900.89
3906.53
3910.53
3911.28
3908.39
3903.83
3898.15
3907.79
3914.71
3920.49
3922.26
3916.34
3911.02
3904.22
3913.99
3923.96
3945.73
3955.82
3929.49
3917.46
3909.14
3918.59
3941.2
3998.44
3995.72
3957.07
3924.4
3912.34
3915.08
3926.43
3954.37
3970.77
3935.38
3920.02
3910.44
3910.18
3917.47
3924.85
3929.5
3921.4
3914.12
3906.34
3903.31
3909.87
3914.22
3915.6
3912.5
3907.12
3900.75
3796.84
3801.69
3806
3808.08
3806.2
3802.05
3796.84
3801.86
3808.27
3814.28
3818.42
3815.61
3809.96
3802.6
3805.87
3812.87
3821.02
3832.53
3824.69
3817.22
3807.87
3808.94
3817.33
3840.1
3894.33
3833.96
3823.04
3811.22
3807.33
3814.6
3823.6
3838.73
3825.85
3818.99
3809.33
3803.91
3811.25
3818.11
3823.92
3819.22
3813.27
3804.84
3798.96
3804.86
3810.25
3813.28
3810.81
3805.49
3799.16
3677.93
3678.52
3679.44
3680.52
3679.23
3677.77
3676.83
3678.42
3678.41
3677.38
3678.1
3676.33
3676.81
3677.22
3678.53
3675.99
3668.01
3669.1
3664.78
3672.99
3677.17
3678.43
3672.86
3657.16
3667.55
3670.24
3671.47
3677.61
3677
3670.79
3652.96
3648.56
3654.83
3666.34
3675.01
3676.58
3673.96
3666.85
3663.16
3664.28
3670.32
3674.83
3676.59
3676.09
3674.91
3675.05
3673.93
3674.83
3675.32
3553.4
3545.78
3538.4
3534.45
3535.66
3541.85
3549.49
3546.3
3533.95
3521.81
3517.39
3518.76
3527.94
3540.58
3539.9
3523.81
3512.89
3502.8
3513.18
3517.75
3531.94
3536.66
3518.93
3513.88
3498.72
3503.59
3515.55
3527.47
3537.54
3521.04
3519.54
3507.69
3513.85
3519.03
3530.08
3543.53
3530.19
3520.24
3517.67
3523.92
3525.59
3537.85
3550.93
3541.93
3533.05
3528.33
3529.85
3537.86
3547.12
3456.44
3449.09
3442.25
3438.06
3441.68
3448.11
3454.94
3449.59
3439.51
3433.89
3433.79
3436.43
3440.08
3447.8
3443.56
3434.01
3433.7
3433.82
3438.21
3438.91
3441.85
3440.98
3434.19
3436.69
3435.28
3434.9
3439.17
3438.73
3444.61
3438.12
3441.08
3441.91
3442.26
3443.01
3443.51
3450.56
3442.78
3442.34
3444.4
3446.52
3444.98
3449.29
3456.89
3450.13
3444.69
3441.89
3445
3449.62
3455.72
3389.13
3390.98
3394.13
3395.54
3395.52
3393.19
3391.21
3390.69
3395.69
3405.12
3408.12
3407.61
3400.36
3393.81
3392.86
3402.78
3414.01
3414.52
3415.88
3410.9
3398.02
3393.31
3403.89
3412.28
3415.78
3417.4
3414.76
3399.91
3393.64
3404.02
3413.91
3415.86
3417.62
3412.43
3398.98
3391.84
3397.71
3407.97
3413.7
3411.45
3403.12
3395.19
3390.16
3392.45
3396.36
3399.05
3398.11
3394.85
3392.27
3312.35
3317.56
3322.88
3326.54
3324.86
3320.46
3315.62
3317.14
3325.41
3338.06
3349.31
3342.96
3330.14
3321.1
3321.72
3336.34
3362.95
3375.21
3369.68
3344.95
3326.66
3324.03
3343.42
3372.65
3378.05
3375.6
3355.49
3330.16
3321.79
3336.76
3363.65
3375.72
3368.86
3344.59
3326.51
3317.47
3326.06
3339.18
3350.2
3342.47
3330.01
3321
3312.63
3317.97
3323.32
3326.92
3324.75
3320.33
3315.4
3214.29
3217.62
3220.61
3223.4
3222.21
3219.88
3216.87
3217.02
3220.44
3222.79
3226.87
3224.77
3223.28
3220.33
3219.24
3223.06
3227.42
3242.69
3233.82
3224.34
3222.95
3220.26
3224.61
3236.59
3271.21
3250.17
3228.77
3225.31
3218.85
3222.13
3226.34
3240.16
3231.84
3225.56
3222.63
3216.61
3219.84
3222.18
3227.63
3225
3222.47
3219.63
3213.73
3216.84
3219.22
3221.28
3220.71
3218.84
3216.09
3104.35
3104.27
3103.5
3103.36
3102.47
3103.06
3103.74
3104.33
3102.58
3098.36
3095.23
3093.87
3098.81
3103.04
3104.31
3100.21
3090.44
3094.92
3087.06
3094.56
3101.99
3104.57
3099.22
3091.96
3102.59
3090.91
3093.61
3102.66
3104.48
3101.2
3094.49
3094.95
3090.14
3096.86
3103.18
3104.56
3103.7
3101.54
3098.99
3099.12
3102.21
3104.28
3104.42
3104.68
3104.5
3104.5
3104.26
3104.44
3104.53
2994.18
2990.81
2986.92
2983.57
2984.98
2988.26
2991.81
2991.45
2985.84
2980.71
2983.3
2980.33
2982.81
2987.95
2989.25
2981.81
2982.14
2972.38
2973.24
2983.42
2984.26
2988.79
2983.05
2973.84
2971.4
2971.44
2985.37
2982.76
2990.18
2983.45
2976.99
2983.22
2981.39
2979.72
2986.1
2992.56
2987.89
2983.7
2979.35
2980.81
2985.04
2989.97
2995.11
2992.47
2989.65
2988.2
2988.48
2990.76
2993.59
2899.01
2897.13
2895.81
2894.51
2895.97
2896.93
2898.3
2897.26
2895.79
2897.35
2899
2900.05
2897.9
2896.82
2895.6
2895.41
2897.91
2892.43
2898.99
2900.62
2895.81
2894.75
2895
2897.04
2890.56
2893.96
2899.07
2894.17
2895.91
2894.64
2896.65
2897.92
2897.81
2896.99
2895.2
2897.27
2894.95
2894.59
2893.08
2894.98
2895.16
2896.44
2899.12
2897.18
2895.54
2894.17
2895.12
2896.71
2898.47
2814.96
2816.49
2819.06
2820.54
2820.29
2818.2
2816.13
2815.99
2819.88
2827.15
2831.53
2830.78
2824.45
2818.14
2816.87
2823.57
2832.16
2834.77
2834.35
2830.96
2820.37
2816.84
2824.29
2831.85
2833.84
2835.1
2833.12
2821.14
2816.35
2822.05
2831.04
2831.47
2832.08
2828.1
2819.27
2814.93
2817.33
2821.99
2823.94
2823.65
2820.06
2816.38
2813.97
2814.88
2816.23
2816.8
2816.87
2815.9
2814.72
2727.04
2730
2733.19
2734.76
2733.6
2730.7
2727.82
2729.51
2734.63
2741.84
2745.94
2743.46
2736.57
2730.41
2731.5
2739.62
2751.84
2755.5
2752.92
2743.16
2732.92
2731.88
2741.16
2753.97
2755.55
2754.34
2745.93
2733.79
2730.52
2737.58
2748.38