/*--------------------------------*- C++ -*----------------------------------*\
| =========                 |                                                 |
| \\      /  F ield         | OpenFOAM: The Open Source CFD Toolbox           |
|  \\    /   O peration     | Version:  plus.master.MPPICInterFoam            |
|   \\  /    A nd           | Web:      www.OpenFOAM.com                      |
|    \\/     M anipulation  |                                                 |
\*---------------------------------------------------------------------------*/
FoamFile
{
    version     2.0;
    format      ascii;
    class       scalarField;
    location    "6.2/lagrangian/kinematicCloud";
    object      age;
}
// * * * * * * * * * * * * * * * * * * * * * * * * * * * * * * * * * * * * * //


88
(
6.17096
5.5448
5.68956
5.82903
5.81708
5.44891
5.44003
5.65161
5.89786
5.88254
5.32257
5.44062
5.43682
5.37859
5.70935
5.6956
5.93762
5.53003
5.96284
5.48108
5.896
5.84421
6.17679
6.15285
6.18346
5.80082
5.64412
5.85254
5.45496
5.45745
6.10775
5.60755
6.18553
5.41099
5.34097
5.34
5.76476
5.4102
5.44238
5.77347
5.73499
5.88874
5.37916
5.35075
5.56982
6.11078
5.98731
5.67668
5.74889
5.71218
5.69163
5.30669
5.77942
5.40857
5.37346
5.49163
5.76332
5.36043
6.19393
5.73077
5.52311
5.2961
6.16846
5.64124
5.54216
6.1932
5.46178
5.47171
5.37
5.53343
5.71387
5.37016
5.97189
5.64857
5.5508
5.59861
5.43013
5.64591
5.42263
5.33007
6.18855
6.02523
5.39434
5.81431
5.40243
5.2801
5.83009
5.31288
)


// ************************************************************************* //
