/*--------------------------------*- C++ -*----------------------------------*\
| =========                 |                                                 |
| \\      /  F ield         | OpenFOAM: The Open Source CFD Toolbox           |
|  \\    /   O peration     | Version:  plus.master                           |
|   \\  /    A nd           | Web:      www.OpenFOAM.com                      |
|    \\/     M anipulation  |                                                 |
\*---------------------------------------------------------------------------*/
FoamFile
{
    version     2.0;
    format      ascii;
    class       scalarField;
    location    "9.6/lagrangian/kinematicCloud";
    object      age;
}
// * * * * * * * * * * * * * * * * * * * * * * * * * * * * * * * * * * * * * //


96597
(
9.60119
9.60117
9.60115
9.60113
9.60111
9.60109
9.60107
9.60106
9.60104
9.601
9.60098
9.60096
9.60095
9.60093
9.60091
9.60088
9.60086
9.60084
9.60083
9.60081
9.60079
9.60078
9.60076
9.60075
9.60073
9.60068
9.60067
9.60065
9.60064
9.60063
9.60061
9.6006
9.60058
9.60057
9.60056
9.60054
9.60053
9.60052
9.6005
9.60049
9.60048
9.60047
9.60045
9.60044
9.60043
9.60042
9.60041
9.60039
9.60038
9.60037
9.60036
9.60035
9.60034
9.60033
9.60032
9.6003
9.60029
9.60028
9.60027
9.60026
9.60025
9.60024
9.60023
9.60022
9.60022
9.6002
9.60018
9.60017
9.60017
9.60015
9.60015
9.60014
9.60013
9.60013
9.60012
9.60011
9.60011
9.6001
9.60009
9.60008
9.60008
9.60007
9.60007
9.60006
9.60006
9.60006
9.60005
9.60005
9.60004
9.60004
9.60004
9.60003
9.60003
9.60003
9.60002
9.60002
9.60002
9.60001
9.60001
9.60001
9.60001
9.6
9.6
9.6
9.6
9.60023
9.60021
9.60019
9.60015
9.60011
9.60008
9.60006
9.60002
9.6
9.59998
9.59997
9.59993
9.59991
9.59989
9.59986
9.59984
9.59983
9.59981
9.59979
9.59978
9.59976
9.59974
9.59973
9.59971
9.5997
9.59968
9.59967
9.59965
9.59963
9.5996
9.59959
9.59958
9.59956
9.59953
9.59952
9.59949
9.59944
9.59942
9.59941
9.5994
9.59938
9.59936
9.59934
9.59932
9.59931
9.5993
9.59929
9.59927
9.59925
9.59924
9.59922
9.5992
9.59919
9.59918
9.59917
9.59916
9.59915
9.59914
9.59913
9.59912
9.59911
9.5991
9.59909
9.59909
9.59907
9.59906
9.59905
9.59904
9.59904
9.59902
9.59901
9.599
9.599
9.59899
9.59898
9.59898
9.59897
9.59896
9.59894
9.59893
9.59892
9.59892
9.59891
9.5989
9.59889
9.59889
9.59889
9.59888
9.59887
9.59887
9.59886
9.59886
9.59886
9.59885
9.59885
9.59884
9.59884
9.59883
9.59883
9.59883
9.59883
9.59883
9.59882
9.59882
9.59882
9.59882
9.59882
9.59882
9.59881
9.59881
9.59881
9.59881
9.59881
9.59881
9.59881
9.59909
9.59907
9.59905
9.59903
9.59901
9.59899
9.59897
9.59895
9.59894
9.59892
9.5989
9.59888
9.59886
9.59884
9.59881
9.59879
9.59877
9.59875
9.59873
9.59872
9.5987
9.59868
9.59866
9.59865
9.59863
9.59861
9.5986
9.59858
9.59856
9.59855
9.59853
9.5985
9.59845
9.59843
9.59842
9.5984
9.59839
9.59837
9.59836
9.59834
9.59831
9.5983
9.59827
9.59826
9.59824
9.59823
9.59821
9.59819
9.59817
9.59816
9.59815
9.59813
9.59812
9.59809
9.59807
9.59806
9.59804
9.59803
9.59802
9.59801
9.59799
9.59797
9.59796
9.59795
9.59794
9.59793
9.59791
9.5979
9.59789
9.59788
9.59787
9.59786
9.59785
9.59784
9.59783
9.59781
9.5978
9.59779
9.59778
9.59777
9.59776
9.59775
9.59774
9.59773
9.59771
9.59769
9.59768
9.59767
9.59767
9.59766
9.59765
9.59764
9.59763
9.59762
9.59761
9.59761
9.5976
9.59759
9.59759
9.59758
9.59757
9.59757
9.59756
9.59755
9.59755
9.59754
9.59753
9.59753
9.59752
9.59752
9.59751
9.59751
9.5975
9.5975
9.59749
9.59749
9.59748
9.59748
9.59747
9.59747
9.59746
9.59746
9.59746
9.59745
9.59745
9.59744
9.59744
9.59744
9.59743
9.59742
9.59742
9.59742
9.59742
9.59741
9.59741
9.59741
9.5974
9.5974
9.5974
9.5974
9.5974
9.5974
9.59739
9.59739
9.59739
9.59739
9.59773
9.59771
9.59769
9.59767
9.59765
9.59763
9.59761
9.59759
9.59757
9.59755
9.59753
9.59751
9.59747
9.59742
9.5974
9.59738
9.59736
9.59735
9.59733
9.59731
9.59729
9.59727
9.59726
9.59724
9.59722
9.59721
9.59719
9.59717
9.59715
9.59714
9.59712
9.59709
9.59707
9.59705
9.59704
9.59702
9.59701
9.59699
9.59697
9.59696
9.59694
9.59693
9.59691
9.5969
9.59688
9.59686
9.59685
9.59683
9.59682
9.5968
9.59679
9.59678
9.59676
9.59675
9.59673
9.59672
9.59669
9.59668
9.59666
9.59663
9.59662
9.59661
9.59659
9.59658
9.59657
9.59655
9.59652
9.5965
9.59649
9.59648
9.59647
9.59645
9.59644
9.59643
9.59642
9.5964
9.59639
9.59638
9.59637
9.59636
9.59635
9.59634
9.59632
9.5963
9.59629
9.59628
9.59627
9.59625
9.59624
9.59623
9.59622
9.59621
9.59619
9.59618
9.59617
9.59615
9.59614
9.59613
9.59612
9.59611
9.5961
9.59609
9.59608
9.59607
9.59606
9.59605
9.59604
9.59603
9.59603
9.59602
9.59601
9.59599
9.59598
9.59597
9.59596
9.59596
9.59595
9.59593
9.59593
9.59591
9.59591
9.5959
9.59589
9.59589
9.59588
9.59588
9.59587
9.59586
9.59586
9.59585
9.59585
9.59584
9.59584
9.59583
9.59582
9.59582
9.59581
9.59581
9.5958
9.5958
9.59579
9.59579
9.59578
9.59578
9.59577
9.59577
9.59577
9.59576
9.59576
9.59575
9.59575
9.59575
9.59574
9.59574
9.59574
9.59573
9.59573
9.59573
9.59573
9.59572
9.59572
9.59572
9.59572
9.59571
9.59571
9.59571
9.5957
9.5957
9.5957
9.5957
9.5957
9.59569
9.59569
9.59569
9.59569
9.59569
9.59569
9.59569
9.59569
9.59569
9.59569
9.59569
9.59607
9.59605
9.59603
9.59601
9.59599
9.59597
9.59595
9.59593
9.59591
9.59587
9.59586
9.59584
9.59582
9.5958
9.59578
9.59576
9.59574
9.59572
9.59571
9.59569
9.59567
9.59565
9.59563
9.59562
9.5956
9.59558
9.59556
9.59554
9.59553
9.59551
9.59549
9.59544
9.59542
9.59541
9.59539
9.59537
9.59536
9.59534
9.59532
9.59531
9.59529
9.59527
9.59524
9.59522
9.59521
9.59519
9.59518
9.59516
9.59514
9.59513
9.59511
9.5951
9.59508
9.59507
9.59505
9.59504
9.59502
9.59501
9.59499
9.59498
9.59496
9.59493
9.5949
9.59489
9.59488
9.59486
9.59485
9.59483
9.59482
9.59481
9.59479
9.59478
9.59477
9.59475
9.59474
9.59473
9.59471
9.5947
9.59469
9.59466
9.59465
9.59463
9.59462
9.5946
9.59458
9.59457
9.59455
9.59454
9.59452
9.5945
9.59449
9.59448
9.59446
9.59445
9.59444
9.59443
9.59442
9.59441
9.5944
9.59439
9.59437
9.59436
9.59434
9.59433
9.59432
9.5943
9.59429
9.59426
9.59425
9.59424
9.59422
9.59421
9.5942
9.59419
9.59418
9.59417
9.59416
9.59415
9.59414
9.59413
9.59412
9.59411
9.59408
9.59408
9.59407
9.59405
9.59404
9.59404
9.59403
9.59402
9.59401
9.594
9.594
9.59399
9.59398
9.59397
9.59397
9.59396
9.59395
9.59395
9.59393
9.59392
9.59391
9.5939
9.59389
9.59389
9.59388
9.59387
9.59386
9.59386
9.59385
9.59384
9.59384
9.59383
9.59383
9.59382
9.59382
9.59381
9.59381
9.5938
9.5938
9.59379
9.59379
9.59378
9.59377
9.59376
9.59376
9.59376
9.59375
9.59375
9.59374
9.59374
9.59373
9.59373
9.59373
9.59372
9.59372
9.59371
9.59371
9.59371
9.59371
9.5937
9.5937
9.59369
9.59369
9.59368
9.59368
9.59368
9.59368
9.59368
9.59367
9.59367
9.59367
9.59366
9.59366
9.59366
9.59366
9.59366
9.59366
9.59366
9.59366
9.59365
9.59365
9.59365
9.59365
9.59365
9.59365
9.59365
9.59365
9.59413
9.59411
9.59409
9.59407
9.59405
9.59403
9.59401
9.59399
9.59393
9.59391
9.59387
9.59385
9.59382
9.5938
9.59376
9.59374
9.59372
9.59367
9.59365
9.59363
9.59361
9.59359
9.59358
9.59356
9.59354
9.59352
9.5935
9.59349
9.59347
9.59345
9.59342
9.5934
9.59338
9.59336
9.59335
9.59333
9.59331
9.5933
9.59328
9.59326
9.59325
9.59323
9.59321
9.59318
9.59316
9.59315
9.59313
9.59312
9.5931
9.59307
9.59305
9.59304
9.59302
9.593
9.59299
9.59297
9.59296
9.59294
9.59293
9.5929
9.59288
9.59287
9.59285
9.59284
9.59282
9.59281
9.59279
9.59278
9.59276
9.59275
9.59273
9.59272
9.59269
9.59268
9.59266
9.59265
9.59263
9.59262
9.59261
9.59259
9.59258
9.59257
9.59255
9.59254
9.59253
9.59251
9.5925
9.59249
9.59247
9.59246
9.59243
9.59242
9.59241
9.5924
9.59238
9.59237
9.59233
9.59232
9.59231
9.5923
9.59228
9.59226
9.59225
9.59224
9.59222
9.59221
9.5922
9.59219
9.59218
9.59216
9.59214
9.59213
9.59212
9.59211
9.5921
9.59207
9.59206
9.59205
9.59202
9.59201
9.592
9.59199
9.59198
9.59196
9.59193
9.59192
9.5919
9.59189
9.59188
9.59188
9.59187
9.59186
9.59185
9.59184
9.59182
9.59181
9.5918
9.59179
9.59178
9.59177
9.59176
9.59175
9.59174
9.59173
9.59172
9.59172
9.59171
9.59169
9.59168
9.59168
9.59165
9.59165
9.59163
9.59162
9.59162
9.59161
9.59159
9.59158
9.59157
9.59155
9.59154
9.59153
9.59152
9.59151
9.59151
9.5915
9.5915
9.59149
9.59148
9.59148
9.59147
9.59147
9.59146
9.59145
9.59144
9.59144
9.59143
9.59143
9.59142
9.59141
9.59141
9.5914
9.5914
9.59139
9.59139
9.59138
9.59138
9.59137
9.59137
9.59136
9.59136
9.59135
9.59134
9.59133
9.59133
9.59133
9.59132
9.59131
9.59131
9.5913
9.5913
9.5913
9.5913
9.59129
9.59129
9.59128
9.59128
9.59128
9.59128
9.59127
9.59127
9.59127
9.59126
9.59126
9.59126
9.59126
9.59126
9.59125
9.59125
9.59125
9.59124
9.59124
9.59124
9.59124
9.59124
9.59124
9.59123
9.59123
9.59123
9.59123
9.59123
9.59123
9.59123
9.59123
9.59123
9.59123
9.59123
9.59123
9.59176
9.59174
9.59172
9.5917
9.59168
9.59164
9.59162
9.5916
9.59158
9.59156
9.59152
9.5915
9.59148
9.59146
9.59139
9.59137
9.59135
9.59127
9.59125
9.59122
9.5912
9.59118
9.59116
9.59114
9.59113
9.59111
9.59109
9.59107
9.59105
9.59104
9.591
9.59098
9.59097
9.59095
9.59093
9.59091
9.59088
9.59086
9.59084
9.59083
9.59079
9.59078
9.59076
9.59074
9.59073
9.59071
9.59069
9.59068
9.59066
9.59061
9.59059
9.59056
9.59055
9.59053
9.5905
9.59048
9.59045
9.59043
9.59042
9.5904
9.59039
9.59037
9.59036
9.59034
9.59033
9.59028
9.59024
9.59022
9.59021
9.59019
9.59018
9.59016
9.59015
9.59012
9.5901
9.59009
9.59007
9.59006
9.59005
9.59003
9.59002
9.59
9.58999
9.58998
9.58995
9.58993
9.58992
9.58989
9.58988
9.58987
9.58985
9.58983
9.58981
9.5898
9.58979
9.58977
9.58976
9.58974
9.58972
9.5897
9.58968
9.58967
9.58966
9.58965
9.58962
9.58961
9.5896
9.58957
9.58956
9.58955
9.58954
9.58951
9.5895
9.58949
9.58948
9.58946
9.58944
9.58942
9.58941
9.58939
9.58938
9.58937
9.58936
9.58934
9.58933
9.58932
9.58931
9.5893
9.58929
9.58928
9.58927
9.58926
9.58925
9.58924
9.58923
9.58922
9.58921
9.5892
9.58919
9.58918
9.58917
9.58916
9.58915
9.58914
9.58913
9.58911
9.5891
9.58909
9.58908
9.58907
9.58905
9.58904
9.58903
9.58903
9.58902
9.58901
9.589
9.58899
9.58898
9.58897
9.58896
9.58895
9.58894
9.58893
9.58892
9.58891
9.58891
9.5889
9.58889
9.58887
9.58886
9.58886
9.58885
9.58884
9.58883
9.58883
9.58882
9.58881
9.5888
9.5888
9.58879
9.58877
9.58876
9.58875
9.58875
9.58874
9.58873
9.58873
9.58872
9.58871
9.58871
9.5887
9.58869
9.58868
9.58867
9.58867
9.58865
9.58865
9.58864
9.58864
9.58863
9.58862
9.58862
9.58861
9.58861
9.5886
9.5886
9.58859
9.58858
9.58858
9.58857
9.58857
9.58856
9.58855
9.58854
9.58854
9.58853
9.58853
9.58852
9.58852
9.58851
9.58851
9.5885
9.5885
9.5885
9.58849
9.58848
9.58848
9.58847
9.58847
9.58847
9.58846
9.58846
9.58846
9.58845
9.58845
9.58844
9.58844
9.58844
9.58843
9.58843
9.58842
9.58842
9.58842
9.58841
9.58841
9.5884
9.5884
9.5884
9.58839
9.58839
9.58839
9.58838
9.58838
9.58838
9.58838
9.58837
9.58837
9.58837
9.58837
9.58837
9.58836
9.58836
9.58836
9.58836
9.58835
9.58835
9.58835
9.58835
9.58835
9.58835
9.58835
9.58834
9.58834
9.58834
9.58834
9.58834
9.58834
9.58834
9.58834
9.58833
9.58833
9.58833
9.58833
9.58833
9.58833
9.58833
9.58833
9.58833
9.58833
9.58833
9.58891
9.58889
9.58887
9.58885
9.58883
9.58881
9.58879
9.58877
9.58875
9.58873
9.58871
9.58869
9.58867
9.58865
9.58863
9.58861
9.58859
9.58857
9.58856
9.58854
9.58852
9.58848
9.58846
9.58844
9.58842
9.58841
9.58839
9.58833
9.58831
9.58829
9.58828
9.58826
9.58824
9.58822
9.5882
9.58818
9.58813
9.58811
9.5881
9.58808
9.58804
9.58802
9.58801
9.58799
9.58797
9.58795
9.58794
9.58792
9.5879
9.58788
9.58787
9.58785
9.58783
9.58782
9.5878
9.58778
9.58777
9.58775
9.58773
9.5877
9.58768
9.58767
9.58765
9.58763
9.5876
9.58758
9.58757
9.58755
9.58753
9.58752
9.5875
9.58749
9.58747
9.58745
9.58744
9.58742
9.58738
9.58736
9.58734
9.58733
9.58731
9.5873
9.58728
9.58727
9.58725
9.58724
9.58722
9.58721
9.58719
9.58718
9.58716
9.58715
9.58713
9.58712
9.5871
9.58709
9.58707
9.58706
9.58704
9.58701
9.587
9.58698
9.58697
9.58696
9.58694
9.58693
9.58691
9.5869
9.58689
9.58687
9.58686
9.58684
9.58683
9.58682
9.5868
9.58679
9.58677
9.58676
9.58673
9.58672
9.58671
9.58667
9.58665
9.58664
9.58663
9.58661
9.5866
9.58658
9.58656
9.58655
9.58654
9.58652
9.58651
9.5865
9.58649
9.58647
9.58646
9.58645
9.58644
9.58642
9.58641
9.5864
9.58639
9.58638
9.58636
9.58635
9.58634
9.58633
9.58632
9.5863
9.58627
9.58626
9.58625
9.58623
9.58622
9.58621
9.5862
9.58619
9.58618
9.58617
9.58616
9.58614
9.58613
9.58612
9.58611
9.5861
9.58609
9.58608
9.58606
9.58605
9.58603
9.58601
9.586
9.58599
9.58598
9.58597
9.58596
9.58595
9.58594
9.58593
9.58592
9.58591
9.5859
9.58589
9.58588
9.58587
9.58586
9.58585
9.58584
9.58583
9.58582
9.58581
9.58581
9.5858
9.58579
9.58578
9.58577
9.58576
9.58575
9.58574
9.58573
9.58572
9.58571
9.5857
9.5857
9.58569
9.58568
9.58567
9.58566
9.58565
9.58564
9.58563
9.58563
9.58562
9.58561
9.5856
9.58559
9.58558
9.58558
9.58557
9.58556
9.58555
9.58553
9.58551
9.5855
9.58549
9.58548
9.58547
9.58547
9.58546
9.58544
9.58544
9.58543
9.58542
9.58542
9.58541
9.5854
9.58539
9.58539
9.58538
9.58537
9.58537
9.58536
9.58535
9.58535
9.58534
9.58533
9.58533
9.58532
9.58531
9.58531
9.5853
9.5853
9.58529
9.58528
9.58528
9.58527
9.58527
9.58525
9.58525
9.58524
9.58524
9.58523
9.58522
9.58522
9.58521
9.58521
9.5852
9.5852
9.58519
9.58519
9.58518
9.58518
9.58517
9.58517
9.58516
9.58516
9.58515
9.58515
9.58514
9.58514
9.58513
9.58513
9.58512
9.58512
9.58511
9.58511
9.5851
9.5851
9.5851
9.58509
9.58509
9.58508
9.58508
9.58507
9.58507
9.58507
9.58506
9.58505
9.58505
9.58505
9.58504
9.58504
9.58503
9.58503
9.58503
9.58502
9.58502
9.58501
9.58501
9.58501
9.585
9.585
9.58499
9.58499
9.58499
9.58499
9.58498
9.58498
9.58498
9.58497
9.58497
9.58497
9.58497
9.58496
9.58496
9.58496
9.58496
9.58495
9.58495
9.58495
9.58495
9.58495
9.58494
9.58494
9.58494
9.58494
9.58494
9.58493
9.58493
9.58493
9.58493
9.58493
9.58493
9.58493
9.58492
9.58492
9.58492
9.58492
9.58492
9.58492
9.58492
9.58491
9.58491
9.58491
9.58491
9.58491
9.58491
9.58491
9.58491
9.58491
9.58491
9.58491
9.58491
9.58491
9.58491
9.58565
9.58563
9.58561
9.58557
9.58555
9.58551
9.58547
9.58545
9.58543
9.58539
9.58537
9.58535
9.58533
9.58531
9.58529
9.58526
9.58524
9.58522
9.5852
9.58518
9.58516
9.58514
9.58512
9.5851
9.58509
9.58507
9.58505
9.58503
9.58501
9.58499
9.58497
9.58494
9.58492
9.5849
9.58488
9.58486
9.58484
9.58481
9.58479
9.58477
9.58475
9.58474
9.58472
9.5847
9.58468
9.58466
9.58465
9.58463
9.58461
9.58459
9.58458
9.58456
9.58454
9.58452
9.58449
9.58444
9.58442
9.58437
9.58433
9.58432
9.5843
9.58428
9.58427
9.58425
9.58423
9.58422
9.58418
9.58417
9.58415
9.58413
9.58412
9.5841
9.58408
9.58407
9.58405
9.58402
9.58399
9.58397
9.58395
9.58394
9.58392
9.58391
9.58389
9.58387
9.58386
9.58384
9.58383
9.58381
9.58378
9.58376
9.58375
9.58373
9.58372
9.5837
9.58369
9.58367
9.58366
9.58364
9.58363
9.58361
9.5836
9.58358
9.58355
9.58354
9.58352
9.58351
9.58349
9.58348
9.58345
9.58343
9.58342
9.5834
9.58339
9.58337
9.58334
9.58333
9.58332
9.5833
9.58329
9.58327
9.58326
9.58325
9.58323
9.58322
9.5832
9.58319
9.58318
9.58316
9.58315
9.58313
9.58312
9.58311
9.58309
9.58308
9.58307
9.58305
9.58304
9.583
9.58299
9.58297
9.58296
9.58295
9.58293
9.58292
9.58291
9.58289
9.58288
9.58287
9.58284
9.58282
9.5828
9.58279
9.58278
9.58277
9.58275
9.58274
9.58273
9.5827
9.58269
9.58268
9.58267
9.58263
9.58262
9.58261
9.58259
9.58255
9.58253
9.58252
9.58251
9.58249
9.58248
9.58246
9.58245
9.58244
9.58242
9.58241
9.5824
9.58239
9.58237
9.58236
9.58235
9.58234
9.58233
9.58232
9.58231
9.5823
9.58229
9.58226
9.58225
9.58223
9.58221
9.5822
9.58219
9.58218
9.58217
9.58216
9.58215
9.58214
9.58213
9.58212
9.5821
9.58209
9.58208
9.58207
9.58205
9.58204
9.58203
9.58202
9.58201
9.582
9.58199
9.58198
9.58197
9.58196
9.58195
9.58194
9.58193
9.58192
9.58191
9.5819
9.58189
9.58188
9.58186
9.58185
9.58184
9.58183
9.58182
9.58181
9.58181
9.5818
9.58178
9.58176
9.58175
9.58174
9.58173
9.58172
9.58171
9.5817
9.58169
9.58169
9.58168
9.58167
9.58166
9.58165
9.58165
9.58164
9.58163
9.58161
9.5816
9.58159
9.58158
9.58158
9.58157
9.58156
9.58155
9.58155
9.58152
9.58152
9.5815
9.58149
9.58149
9.58148
9.58147
9.58147
9.58146
9.58145
9.58145
9.58144
9.58143
9.58143
9.58142
9.58141
9.58141
9.58139
9.58139
9.58138
9.58137
9.58136
9.58135
9.58135
9.58134
9.58134
9.58133
9.58132
9.58132
9.58131
9.58131
9.58129
9.58128
9.58127
9.58126
9.58126
9.58125
9.58125
9.58124
9.58124
9.58123
9.58123
9.58122
9.58122
9.58121
9.58121
9.5812
9.5812
9.58119
9.58118
9.58118
9.58117
9.58117
9.58116
9.58116
9.58115
9.58115
9.58114
9.58114
9.58113
9.58113
9.58112
9.58112
9.58111
9.58111
9.58111
9.5811
9.5811
9.58109
9.58109
9.58109
9.58108
9.58108
9.58107
9.58107
9.58106
9.58105
9.58105
9.58105
9.58104
9.58104
9.58104
9.58103
9.58103
9.58103
9.58102
9.58102
9.58102
9.58101
9.58101
9.58101
9.581
9.581
9.58099
9.58099
9.58099
9.58098
9.58098
9.58097
9.58097
9.58096
9.58096
9.58096
9.58096
9.58095
9.58095
9.58095
9.58095
9.58094
9.58094
9.58094
9.58094
9.58094
9.58093
9.58093
9.58093
9.58093
9.58093
9.58092
9.58092
9.58092
9.58092
9.58091
9.58091
9.58091
9.58091
9.58091
9.58091
9.58091
9.5809
9.5809
9.5809
9.5809
9.5809
9.5809
9.5809
9.5809
9.5809
9.5809
9.58089
9.58089
9.58089
9.58089
9.58089
9.58089
9.58089
9.58089
9.58089
9.58089
9.58089
9.58089
9.58089
9.58089
9.58089
9.58089
9.58181
9.58179
9.58177
9.58175
9.58173
9.58171
9.58167
9.58165
9.58163
9.58161
9.58159
9.58157
9.58155
9.58151
9.58147
9.58146
9.58144
9.58142
9.5814
9.58138
9.58136
9.58132
9.5813
9.58128
9.58126
9.58124
9.58121
9.58119
9.58117
9.58115
9.58111
9.58109
9.58108
9.58106
9.58104
9.58102
9.581
9.58098
9.58096
9.58093
9.58091
9.58089
9.58087
9.58085
9.58084
9.58082
9.5808
9.58078
9.58076
9.58073
9.58071
9.58069
9.58067
9.58066
9.58064
9.58062
9.58058
9.58057
9.58055
9.58053
9.58051
9.5805
9.58048
9.58046
9.58043
9.58041
9.58039
9.58038
9.58036
9.58034
9.58032
9.58031
9.58027
9.58026
9.58024
9.58022
9.5802
9.58019
9.58017
9.58015
9.58014
9.58012
9.5801
9.58009
9.58007
9.58005
9.58004
9.58
9.57999
9.57997
9.57995
9.57994
9.57992
9.57991
9.57989
9.57987
9.57986
9.57984
9.57982
9.57981
9.57978
9.57976
9.57974
9.57971
9.5797
9.57967
9.57965
9.57963
9.57962
9.5796
9.57959
9.57957
9.57956
9.57954
9.57952
9.57951
9.57949
9.57948
9.57946
9.57945
9.57943
9.57942
9.5794
9.57939
9.57937
9.57936
9.57934
9.57933
9.57931
9.57928
9.57927
9.57925
9.57924
9.57922
9.57921
9.57919
9.57918
9.57916
9.57915
9.57914
9.57912
9.57911
9.57909
9.57908
9.57905
9.57903
9.57901
9.57899
9.57896
9.57895
9.57894
9.57892
9.57891
9.57889
9.57888
9.57885
9.57884
9.57882
9.57881
9.5788
9.57878
9.57877
9.57876
9.57874
9.57873
9.57871
9.5787
9.57869
9.57867
9.57866
9.57865
9.57863
9.57862
9.57861
9.5786
9.57858
9.57854
9.57852
9.5785
9.57849
9.57848
9.57847
9.57845
9.57844
9.57843
9.57841
9.5784
9.57839
9.57838
9.57835
9.57833
9.5783
9.57828
9.57826
9.57825
9.57824
9.57823
9.5782
9.57819
9.57818
9.57817
9.57816
9.57814
9.57813
9.57812
9.57811
9.57808
9.57807
9.57806
9.57805
9.57804
9.57803
9.57802
9.578
9.57799
9.57798
9.57797
9.57796
9.57795
9.57792
9.57791
9.57789
9.57788
9.57787
9.57786
9.57785
9.57784
9.57782
9.57779
9.57777
9.57775
9.57774
9.57773
9.57772
9.57771
9.57769
9.57768
9.57766
9.57765
9.57764
9.57763
9.57762
9.57761
9.5776
9.57759
9.57756
9.57755
9.57754
9.57753
9.57752
9.5775
9.57749
9.57748
9.57747
9.57746
9.57744
9.57744
9.57743
9.57741
9.5774
9.57738
9.57737
9.57736
9.57735
9.57734
9.57733
9.57732
9.57731
9.5773
9.5773
9.57729
9.57728
9.57727
9.57726
9.57725
9.57723
9.57722
9.57722
9.57721
9.5772
9.57719
9.57718
9.57717
9.57716
9.57715
9.57715
9.57713
9.57712
9.57711
9.5771
9.57709
9.57708
9.57707
9.57706
9.57706
9.57705
9.57704
9.57703
9.57702
9.57702
9.57701
9.577
9.57698
9.57698
9.57696
9.57695
9.57695
9.57694
9.57693
9.57692
9.57692
9.57691
9.57689
9.57689
9.57687
9.57686
9.57686
9.57685
9.57684
9.57684
9.57683
9.57682
9.57682
9.57681
9.5768
9.57679
9.57678
9.57677
9.57676
9.57675
9.57674
9.57673
9.57673
9.57672
9.57671
9.57671
9.5767
9.57669
9.57668
9.57668
9.57667
9.57666
9.57665
9.57665
9.57664
9.57663
9.57663
9.57662
9.57661
9.57661
9.5766
9.57659
9.57659
9.57658
9.57657
9.57657
9.57656
9.57655
9.57655
9.57654
9.57654
9.57653
9.57653
9.57652
9.57652
9.57651
9.57651
9.5765
9.5765
9.57649
9.57649
9.57648
9.57648
9.57646
9.57646
9.57645
9.57645
9.57644
9.57643
9.57642
9.57642
9.57641
9.57641
9.57641
9.5764
9.5764
9.57639
9.57639
9.57638
9.57638
9.57638
9.57637
9.57637
9.57636
9.57636
9.57636
9.57635
9.57635
9.57634
9.57634
9.57633
9.57633
9.57632
9.57632
9.57631
9.57631
9.5763
9.5763
9.5763
9.57629
9.57629
9.57629
9.57628
9.57628
9.57627
9.57627
9.57626
9.57626
9.57625
9.57625
9.57625
9.57625
9.57624
9.57624
9.57624
9.57623
9.57623
9.57623
9.57622
9.57622
9.57622
9.57621
9.57621
9.5762
9.5762
9.5762
9.57619
9.57619
9.57619
9.57619
9.57619
9.57618
9.57618
9.57618
9.57618
9.57618
9.57617
9.57617
9.57617
9.57617
9.57616
9.57616
9.57616
9.57616
9.57616
9.57616
9.57616
9.57615
9.57615
9.57615
9.57615
9.57615
9.57615
9.57615
9.57615
9.57614
9.57614
9.57614
9.57614
9.57614
9.57614
9.57614
9.57614
9.57613
9.57613
9.57613
9.57613
9.57613
9.57613
9.57613
9.57613
9.57613
9.57613
9.57613
9.57613
9.57613
9.57613
9.57613
9.57613
9.57613
9.57613
9.57613
9.577
9.57698
9.57694
9.57692
9.5769
9.57688
9.57684
9.57682
9.5768
9.57678
9.57676
9.57672
9.5767
9.57668
9.57661
9.57659
9.57655
9.57653
9.57645
9.57643
9.57641
9.57638
9.57636
9.57634
9.57632
9.5763
9.57628
9.57626
9.57624
9.57623
9.57621
9.57619
9.57617
9.57615
9.57613
9.57609
9.57608
9.57606
9.57604
9.57602
9.576
9.57598
9.57596
9.57595
9.57593
9.57591
9.57589
9.57587
9.57586
9.57584
9.57582
9.5758
9.57578
9.57576
9.57575
9.57573
9.57569
9.57568
9.57566
9.57564
9.57562
9.5756
9.57559
9.57557
9.57555
9.57553
9.57552
9.5755
9.57548
9.57545
9.57543
9.57541
9.57538
9.57536
9.57534
9.57532
9.57531
9.57529
9.57527
9.57524
9.57522
9.5752
9.57519
9.57517
9.57515
9.57514
9.57512
9.5751
9.57508
9.57507
9.57505
9.57503
9.57502
9.575
9.57498
9.57497
9.57495
9.57493
9.57492
9.57488
9.57487
9.57485
9.57484
9.57482
9.5748
9.57479
9.57477
9.57475
9.57474
9.57472
9.57471
9.57469
9.57467
9.57466
9.57464
9.57463
9.57461
9.57459
9.57458
9.57455
9.57453
9.5745
9.57448
9.57447
9.57445
9.57444
9.57442
9.5744
9.57439
9.57437
9.57436
9.57434
9.57433
9.57431
9.5743
9.57428
9.57427
9.57425
9.57424
9.57422
9.5742
9.57414
9.57413
9.57411
9.57408
9.57407
9.57405
9.57404
9.57403
9.57401
9.574
9.57398
9.57397
9.57395
9.57394
9.57392
9.57391
9.57389
9.57388
9.57386
9.57385
9.57384
9.57382
9.57381
9.57379
9.57376
9.57375
9.57374
9.57372
9.57371
9.57369
9.57368
9.57366
9.57365
9.57364
9.57362
9.57361
9.5736
9.57358
9.57357
9.57355
9.57354
9.57353
9.57351
9.5735
9.57349
9.57347
9.57346
9.57344
9.57343
9.57342
9.5734
9.57339
9.57338
9.57336
9.57335
9.57334
9.57331
9.5733
9.57328
9.57327
9.57326
9.57324
9.57323
9.57322
9.57321
9.57319
9.57318
9.57317
9.57315
9.57314
9.57312
9.57309
9.57305
9.57304
9.57303
9.57301
9.573
9.57299
9.57298
9.57296
9.57295
9.57294
9.57293
9.57292
9.5729
9.57289
9.57288
9.57285
9.57284
9.57283
9.57279
9.57277
9.57276
9.57275
9.57272
9.57271
9.5727
9.57269
9.57268
9.57266
9.57265
9.57264
9.57263
9.57262
9.57261
9.57259
9.57258
9.57257
9.57256
9.57255
9.57254
9.57253
9.57252
9.5725
9.57249
9.57248
9.57247
9.57246
9.57245
9.57244
9.57243
9.57242
9.5724
9.57239
9.57238
9.57237
9.57236
9.57235
9.57233
9.57231
9.5723
9.57228
9.57226
9.57225
9.57224
9.57223
9.57222
9.57221
9.5722
9.57219
9.57218
9.57217
9.57216
9.57215
9.57214
9.57213
9.57212
9.57211
9.5721
9.57208
9.57207
9.57206
9.57205
9.57203
9.57202
9.57201
9.572
9.57199
9.57198
9.57197
9.57196
9.57195
9.57194
9.57193
9.5719
9.5719
9.57189
9.57188
9.57187
9.57186
9.57185
9.57184
9.57183
9.57182
9.57181
9.5718
9.57179
9.57178
9.57178
9.57176
9.57175
9.57173
9.57172
9.5717
9.5717
9.57168
9.57167
9.57166
9.57165
9.57164
9.57164
9.57163
9.57162
9.57161
9.5716
9.57159
9.57158
9.57158
9.57157
9.57156
9.57155
9.57154
9.57154
9.57153
9.57151
9.5715
9.57149
9.57149
9.57147
9.57146
9.57145
9.57145
9.57144
9.57143
9.57142
9.57142
9.57141
9.5714
9.57139
9.57138
9.57137
9.57136
9.57136
9.57134
9.57133
9.57133
9.57132
9.57131
9.5713
9.5713
9.57129
9.57128
9.57128
9.57126
9.57125
9.57125
9.57124
9.57123
9.57123
9.57122
9.57121
9.57121
9.5712
9.57119
9.57119
9.57118
9.57117
9.57117
9.57116
9.57115
9.57115
9.57114
9.57113
9.57113
9.57112
9.57111
9.57111
9.57109
9.57109
9.57108
9.57108
9.57107
9.57106
9.57104
9.57104
9.57103
9.57103
9.57102
9.57101
9.57101
9.571
9.571
9.57099
9.57099
9.57098
9.57097
9.57097
9.57095
9.57095
9.57094
9.57094
9.57093
9.57092
9.57091
9.5709
9.57089
9.57089
9.57088
9.57088
9.57087
9.57086
9.57086
9.57085
9.57085
9.57084
9.57084
9.57083
9.57083
9.57082
9.57081
9.57081
9.5708
9.5708
9.57079
9.57078
9.57078
9.57078
9.57077
9.57076
9.57076
9.57075
9.57075
9.57074
9.57074
9.57073
9.57073
9.57072
9.57072
9.57072
9.57071
9.5707
9.5707
9.5707
9.57069
9.57069
9.57068
9.57068
9.57067
9.57067
9.57067
9.57066
9.57066
9.57065
9.57065
9.57064
9.57064
9.57064
9.57063
9.57063
9.57062
9.57062
9.57061
9.57061
9.5706
9.5706
9.5706
9.5706
9.57059
9.57059
9.57059
9.57058
9.57058
9.57058
9.57058
9.57057
9.57057
9.57057
9.57056
9.57056
9.57056
9.57055
9.57055
9.57055
9.57054
9.57054
9.57054
9.57053
9.57053
9.57053
9.57053
9.57052
9.57052
9.57052
9.57052
9.57052
9.57051
9.57051
9.57051
9.57051
9.57051
9.5705
9.5705
9.5705
9.5705
9.5705
9.57049
9.57049
9.57049
9.57049
9.57049
9.57048
9.57048
9.57048
9.57048
9.57048
9.57048
9.57048
9.57047
9.57047
9.57047
9.57047
9.57047
9.57047
9.57047
9.57047
9.57046
9.57046
9.57046
9.57046
9.57046
9.57046
9.57046
9.57046
9.57046
9.57046
9.57045
9.57045
9.57045
9.57045
9.57045
9.57045
9.57045
9.57045
9.57045
9.57045
9.57045
9.57045
9.57045
9.57045
9.57045
9.57045
9.57045
9.57045
9.57045
9.57045
9.57169
9.57167
9.57165
9.57163
9.57161
9.57159
9.57157
9.57155
9.57154
9.57152
9.5715
9.57148
9.57144
9.57142
9.5714
9.57138
9.57136
9.57134
9.5713
9.57128
9.57126
9.57124
9.57122
9.5712
9.57118
9.57116
9.57114
9.57112
9.57109
9.57107
9.57103
9.57101
9.57099
9.57097
9.57095
9.57093
9.57091
9.5709
9.57088
9.57086
9.57084
9.57082
9.5708
9.57074
9.57073
9.57071
9.57069
9.57067
9.57063
9.57061
9.5706
9.57058
9.57054
9.57052
9.5705
9.57048
9.57047
9.57045
9.57043
9.57041
9.57039
9.57037
9.57032
9.5703
9.57025
9.57023
9.57021
9.57019
9.57018
9.57016
9.57014
9.57012
9.5701
9.57009
9.57007
9.57005
9.57003
9.57002
9.57
9.56994
9.56993
9.56989
9.56987
9.56986
9.56984
9.56982
9.5698
9.56977
9.56973
9.56972
9.5697
9.56968
9.56965
9.56963
9.56961
9.5696
9.56958
9.56956
9.56955
9.56951
9.56949
9.56948
9.56946
9.56943
9.56941
9.56939
9.56938
9.56936
9.56934
9.56933
9.56929
9.56928
9.56926
9.56923
9.56921
9.56919
9.56916
9.56914
9.56913
9.56911
9.5691
9.56908
9.56901
9.569
9.56898
9.56897
9.56895
9.56893
9.56892
9.5689
9.56885
9.56882
9.56881
9.56879
9.56877
9.56876
9.56874
9.56873
9.56871
9.56868
9.56866
9.56863
9.56862
9.5686
9.56859
9.56857
9.56855
9.56854
9.56852
9.56851
9.56849
9.56845
9.56843
9.56842
9.5684
9.56839
9.56837
9.56836
9.56833
9.5683
9.56828
9.56827
9.56825
9.56824
9.56822
9.56821
9.56819
9.56818
9.56816
9.56815
9.56813
9.56812
9.5681
9.56809
9.56807
9.56806
9.56804
9.56803
9.56801
9.568
9.56799
9.56797
9.56796
9.56794
9.56793
9.5679
9.56787
9.56786
9.56784
9.56783
9.56781
9.5678
9.56778
9.56777
9.56776
9.56774
9.56773
9.56771
9.5677
9.56769
9.56767
9.56766
9.56764
9.56763
9.56762
9.5676
9.56759
9.56756
9.56755
9.56752
9.56751
9.56749
9.56748
9.56747
9.56745
9.56744
9.56741
9.5674
9.56739
9.56737
9.56736
9.56735
9.56733
9.56732
9.56728
9.56727
9.56725
9.56724
9.56723
9.56719
9.56717
9.56715
9.56714
9.56712
9.56711
9.5671
9.56707
9.56706
9.56705
9.56703
9.56702
9.56701
9.567
9.56698
9.56696
9.56694
9.56693
9.56691
9.56688
9.56687
9.56686
9.56685
9.56683
9.56682
9.5668
9.56678
9.56677
9.56676
9.56675
9.56674
9.56671
9.5667
9.56669
9.56668
9.56666
9.56664
9.56663
9.56662
9.5666
9.56659
9.56657
9.56655
9.56653
9.5665
9.56646
9.56645
9.56643
9.56642
9.56641
9.5664
9.56638
9.56637
9.56636
9.56635
9.56634
9.56633
9.56632
9.56631
9.5663
9.56628
9.56627
9.56626
9.56625
9.56624
9.56623
9.56621
9.56619
9.56617
9.56616
9.56614
9.56613
9.56612
9.56611
9.5661
9.56609
9.56608
9.56607
9.56604
9.56603
9.56602
9.566
9.56599
9.56598
9.56596
9.56595
9.56594
9.56593
9.56592
9.56591
9.5659
9.56589
9.56588
9.56587
9.56586
9.56585
9.56584
9.56583
9.56582
9.56581
9.5658
9.56579
9.56577
9.56576
9.56575
9.56574
9.56573
9.56572
9.56571
9.5657
9.56568
9.56567
9.56567
9.56566
9.56565
9.56563
9.56562
9.56561
9.5656
9.56559
9.56558
9.56557
9.56556
9.56555
9.56553
9.56552
9.56552
9.56551
9.5655
9.56549
9.56548
9.56547
9.56546
9.56545
9.56544
9.56543
9.56543
9.56541
9.5654
9.56539
9.56537
9.56536
9.56536
9.56535
9.56534
9.56533
9.56532
9.56531
9.5653
9.56529
9.56528
9.56527
9.56526
9.56525
9.56525
9.56524
9.56523
9.56522
9.56521
9.5652
9.56519
9.56517
9.56516
9.56515
9.56515
9.56514
9.56512
9.56511
9.5651
9.56509
9.56508
9.56508
9.56507
9.56506
9.56505
9.56504
9.56503
9.56502
9.56501
9.56501
9.565
9.56498
9.56497
9.56495
9.56494
9.56493
9.56492
9.56492
9.56491
9.5649
9.5649
9.56489
9.56488
9.56487
9.56487
9.56486
9.56485
9.56484
9.56483
9.56483
9.56482
9.56481
9.5648
9.5648
9.56479
9.56478
9.56478
9.56476
9.56476
9.56475
9.56474
9.56473
9.56472
9.56472
9.56471
9.5647
9.5647
9.56469
9.56469
9.56468
9.56467
9.56467
9.56466
9.56465
9.56465
9.56464
9.56464
9.56462
9.56462
9.56461
9.5646
9.56459
9.56458
9.56457
9.56457
9.56456
9.56456
9.56455
9.56455
9.56454
9.56453
9.56453
9.56452
9.56452
9.56451
9.56451
9.5645
9.56449
9.56449
9.56448
9.56448
9.56447
9.56446
9.56446
9.56445
9.56445
9.56444
9.56443
9.56443
9.56442
9.56441
9.56441
9.5644
9.56439
9.56439
9.56438
9.56438
9.56437
9.56436
9.56436
9.56435
9.56434
9.56434
9.56433
9.56433
9.56432
9.56432
9.56431
9.56431
9.5643
9.5643
9.56429
9.56429
9.56428
9.56428
9.56427
9.56427
9.56427
9.56426
9.56426
9.56425
9.56425
9.56424
9.56424
9.56424
9.56423
9.56423
9.56422
9.56422
9.56421
9.56421
9.5642
9.5642
9.56419
9.56419
9.56419
9.56418
9.56417
9.56417
9.56417
9.56416
9.56416
9.56415
9.56415
9.56415
9.56414
9.56414
9.56413
9.56413
9.56412
9.56412
9.56412
9.56411
9.56411
9.5641
9.5641
9.56409
9.56409
9.56409
9.56408
9.56408
9.56408
9.56407
9.56407
9.56407
9.56406
9.56406
9.56405
9.56405
9.56405