/*--------------------------------*- C++ -*----------------------------------*\
| =========                 |                                                 |
| \\      /  F ield         | OpenFOAM: The Open Source CFD Toolbox           |
|  \\    /   O peration     | Version:  plus.master.MPPICInterFoam            |
|   \\  /    A nd           | Web:      www.OpenFOAM.com                      |
|    \\/     M anipulation  |                                                 |
\*---------------------------------------------------------------------------*/
FoamFile
{
    version     2.0;
    format      ascii;
    class       vectorField;
    location    "10.8/lagrangian/kinematicCloud";
    object      UCorrect;
}
// * * * * * * * * * * * * * * * * * * * * * * * * * * * * * * * * * * * * * //


74
(
(3.04875e-19 -7.72536e-19 5.20357e-19)
(1.20074e-19 4.01235e-19 -6.87528e-22)
(1.21959e-19 -9.26124e-19 1.22891e-19)
(1.20074e-19 4.96297e-20 -3.6342e-22)
(9.00531e-20 -3.95604e-19 -5.06187e-38)
(-1.77396e-19 -9.59853e-19 3.1238e-19)
(9.00531e-20 -3.95604e-19 -5.03503e-38)
(5.73382e-20 -3.9929e-19 1.60527e-37)
(6.22771e-20 -3.98734e-19 1.60527e-37)
(-2.92204e-19 -9.72789e-19 3.1238e-19)
(-3.54342e-19 -9.7979e-19 3.1238e-19)
(-8.49964e-20 3.71337e-19 1.60527e-37)
(-5.47683e-20 2.389e-19 1.60527e-37)
(-2.55837e-20 2.21576e-19 2.03505e-22)
(-2.8098e-20 2.21293e-19 2.03505e-22)
(-8.78272e-21 3.84796e-20 2.03505e-22)
(-8.13832e-20 -1.84103e-19 -1.86071e-19)
(-3.04311e-20 2.2103e-19 2.03505e-22)
(-8.67446e-20 -1.60613e-19 -1.86071e-19)
(-1.20296e-19 2.1025e-20 -1.29187e-34)
(-2.78465e-20 2.21321e-19 2.03505e-22)
(-1.12774e-19 -4.65699e-20 -1.86071e-19)
(-1.78856e-19 2.76231e-20 -6.81818e-36)
(-1.7497e-19 2.71852e-20 -6.81818e-36)
(-5.0532e-19 1.21723e-18 9.36867e-36)
(-1.60969e-19 -3.88765e-19 1.24937e-35)
(-1.94117e-19 -2.43534e-19 1.24937e-35)
(-2.45724e-19 -1.7428e-20 1.24937e-35)
(-3.39832e-19 3.94888e-19 -3.34131e-22)
(-2.11521e-19 -1.6728e-19 1.24937e-35)
(-8.61626e-20 -4.54183e-19 9.30355e-20)
(3.83632e-20 -1.86243e-20 -2.44086e-48)
(-8.78548e-20 -4.69203e-19 9.30355e-20)
(-2.22834e-20 9.763e-20 -2.03505e-22)
(-1.87878e-20 8.23146e-20 -2.03505e-22)
(-1.63141e-21 2.72898e-29 -1.86071e-19)
(2.58759e-21 -2.43918e-19 -2.44086e-48)
(4.50237e-20 -9.13921e-19 1.17801e-19)
(2.60742e-20 -2.21083e-19 2.87827e-36)
(3.01362e-19 -3.46419e-19 -1.60985e-36)
(3.23266e-20 -2.20379e-19 2.87827e-36)
(3.7952e-19 -3.73768e-19 -1.40094e-35)
(3.3906e-20 -2.20201e-19 2.87827e-36)
(4.98494e-20 -2.18404e-19 4.65712e-37)
(4.30952e-30 1.04593e-29 8.04412e-36)
(-8.759e-32 -2.09705e-31 1.17801e-19)
(1.9905e-30 1.0198e-29 4.30297e-35)
(4.30952e-30 1.04593e-29 7.57982e-36)
(4.09092e-19 -6.81165e-19 1.17801e-19)
(5.22751e-19 -1.63211e-19 6.12736e-35)
(3.65283e-19 -8.92122e-20 6.12736e-35)
(2.46426e-19 -2.91062e-20 -1.17801e-19)
(-4.93667e-19 5.09899e-20 -7.89695e-36)
(-1.0202e-19 4.46979e-19 -1.34742e-19)
(-4.95442e-19 3.52313e-20 -7.92887e-36)
(-4.99412e-19 8.73948e-31 -1.53009e-35)
(-1.0132e-20 4.43914e-20 -1.34742e-19)
(1.44869e-19 3.62073e-20 -3.01013e-19)
(-3.88947e-12 -2.58574e-13 9.01134e-09)
(-6.51451e-19 7.97962e-20 -2.70673e-35)
(1.42395e-19 -3.83733e-19 -1.99643e-19)
(7.51593e-20 4.16519e-20 -1.99643e-19)
(-0.000124381 5.68391e-05 5.36223e-05)
(5.27499e-05 0.000382648 5.36223e-05)
(2.33386e-18 -4.07058e-19 1.71799e-19)
(-2.49389e-19 1.76508e-18 1.23578e-35)
(-2.93878e-10 -4.25224e-11 -4.05327e-08)
(-3.30369e-20 7.9302e-21 2.17761e-19)
(-4.37876e-10 -1.43406e-09 1.89511e-08)
(2.20954e-19 -3.85874e-19 2.72327e-19)
(-2.04894e-05 -2.56073e-07 -5.27563e-05)
(-2.04894e-05 -2.56073e-07 -7.94723e-05)
(5.7555e-19 -2.78499e-19 -1.94963e-22)
(7.74297e-19 2.63798e-19 9.22043e-20)
)


// ************************************************************************* //
