/*--------------------------------*- C++ -*----------------------------------*\
| =========                 |                                                 |
| \\      /  F ield         | OpenFOAM: The Open Source CFD Toolbox           |
|  \\    /   O peration     | Version:  plus.master.MPPICInterFoam            |
|   \\  /    A nd           | Web:      www.OpenFOAM.com                      |
|    \\/     M anipulation  |                                                 |
\*---------------------------------------------------------------------------*/
FoamFile
{
    version     2.0;
    format      ascii;
    class       volScalarField;
    location    "8.4";
    object      epsilon;
}
// * * * * * * * * * * * * * * * * * * * * * * * * * * * * * * * * * * * * * //

dimensions      [0 2 -3 0 0 0 0];

internalField   nonuniform List<scalar> 
11822
(
0.47188
0.552651
0.59116
0.575608
0.515549
0.423668
0.329758
0.59202
0.701056
0.758495
0.739733
0.658236
0.531489
0.400901
0.687999
0.799239
0.783196
0.804992
0.758855
0.614881
0.455403
0.732239
0.781259
0.743612
0.797251
0.803391
0.65323
0.477149
0.698031
0.799272
0.813688
0.849902
0.77672
0.620893
0.455925
0.600726
0.722943
0.785247
0.761825
0.665614
0.531721
0.399337
0.471486
0.560182
0.604027
0.584315
0.515307
0.421086
0.326733
0.468343
0.552316
0.584197
0.566096
0.502649
0.41126
0.317742
0.596493
0.69009
0.732543
0.710869
0.644264
0.516131
0.388529
0.679892
0.766868
0.759365
0.777485
0.736051
0.601846
0.442968
0.70666
0.7681
0.717095
0.769115
0.775008
0.634436
0.462315
0.685935
0.75745
0.778931
0.798395
0.736516
0.598586
0.439694
0.589489
0.704258
0.754416
0.726366
0.636064
0.510009
0.382495
0.456589
0.544252
0.58379
0.564275
0.496063
0.402741
0.311379
0.435631
0.513778
0.548788
0.531781
0.471806
0.38645
0.300812
0.55161
0.611821
0.661994
0.664942
0.584553
0.484774
0.368937
0.603074
0.60828
0.654481
0.695364
0.691315
0.562099
0.423032
0.624631
0.646259
0.630685
0.684723
0.714155
0.590417
0.441633
0.615939
0.66338
0.684851
0.715985
0.704045
0.557887
0.417405
0.539396
0.632145
0.680525
0.679994
0.593015
0.475164
0.360803
0.41913
0.501495
0.54193
0.525145
0.461
0.375674
0.293142
0.387865
0.464868
0.504521
0.491602
0.434919
0.358182
0.281852
0.485525
0.552468
0.562872
0.571694
0.541078
0.449399
0.345775
0.540577
0.564109
0.560597
0.586322
0.59265
0.524896
0.397375
0.55494
0.560107
0.552468
0.585617
0.616025
0.553818
0.415239
0.539028
0.589952
0.605857
0.614074
0.597581
0.517374
0.391163
0.467821
0.554011
0.596308
0.579428
0.53354
0.436987
0.337029
0.37115
0.445321
0.48532
0.474776
0.420303
0.347001
0.274402
0.335372
0.396777
0.433379
0.430933
0.387873
0.324455
0.25904
0.410157
0.469031
0.502907
0.499904
0.470873
0.403463
0.314615
0.456041
0.495667
0.515208
0.530823
0.521715
0.471184
0.359701
0.473671
0.49725
0.490705
0.503696
0.538231
0.491435
0.374556
0.451525
0.516143
0.526976
0.548622
0.519933
0.464789
0.354705
0.401995
0.473757
0.516841
0.504923
0.465553
0.393291
0.308115
0.32647
0.385769
0.420962
0.417353
0.375461
0.315837
0.253492
0.288485
0.336819
0.36409
0.365478
0.335532
0.2863
0.232145
0.349759
0.400786
0.433291
0.439186
0.409994
0.349852
0.278095
0.38634
0.424434
0.424325
0.436474
0.450027
0.403188
0.314656
0.40144
0.439266
0.435456
0.443181
0.483896
0.42226
0.327739
0.385494
0.437558
0.464742
0.44266
0.453703
0.398962
0.311871
0.346815
0.401504
0.437129
0.437311
0.404734
0.34406
0.27432
0.284008
0.330584
0.357117
0.357307
0.327824
0.280913
0.228599
0.250725
0.19981
0.159552
0.129018
0.10733
0.0946149
0.0961504
0.169628
0.296848
0.227572
0.175796
0.137885
0.111304
0.0950832
0.0932275
0.157983
0.33284
0.250151
0.18925
0.145397
0.114971
0.0961577
0.0920792
0.151595
0.346488
0.258492
0.194133
0.14809
0.116287
0.096552
0.091691
0.149368
0.331791
0.248944
0.188259
0.144701
0.114531
0.0958563
0.0917817
0.150808
0.294482
0.225434
0.174185
0.136818
0.110661
0.0946664
0.092795
0.156629
0.247725
0.197382
0.157827
0.127971
0.106766
0.0943031
0.0957571
0.167965
0.240872
0.191943
0.153726
0.124983
0.104654
0.092913
0.0952447
0.170478
0.28578
0.218709
0.169344
0.13355
0.108527
0.0933596
0.0923199
0.158895
0.321055
0.240602
0.182329
0.140814
0.112103
0.0944127
0.0911786
0.152617
0.333593
0.248352
0.186909
0.143378
0.113364
0.0947886
0.090783
0.150383
0.318271
0.238602
0.181016
0.14001
0.111613
0.0940871
0.0908577
0.151735
0.281374
0.215607
0.16735
0.132343
0.107821
0.0929076
0.0918453
0.157391
0.236252
0.188711
0.151678
0.12381
0.10404
0.0925633
0.0947867
0.168601
0.229915
0.184021
0.148185
0.121165
0.101999
0.0910012
0.0937945
0.169859
0.272987
0.209862
0.163383
0.129544
0.105798
0.0914335
0.0909016
0.158409
0.307339
0.231161
0.17606
0.136676
0.109322
0.0924746
0.0897735
0.15222
0.319293
0.238573
0.180477
0.139166
0.110558
0.092844
0.0893765
0.149972
0.3037
0.22882
0.174628
0.135832
0.108824
0.0921463
0.0894423
0.151257
0.267693
0.206414
0.161273
0.128315
0.10509
0.0909741
0.0904004
0.156758
0.224756
0.180617
0.146128
0.120023
0.101402
0.0906378
0.0932836
0.167743
0.217644
0.175204
0.14186
0.11661
0.0987106
0.0886215
0.0920232
0.16861
0.258235
0.199738
0.156337
0.124573
0.102276
0.0889525
0.089147
0.157328
0.291006
0.22009
0.168486
0.131407
0.105636
0.089916
0.0880036
0.151154
0.302355
0.227157
0.17273
0.133807
0.106823
0.0902625
0.0876006
0.148901
0.287226
0.217793
0.167136
0.130627
0.105176
0.0896072
0.0876794
0.150191
0.252927
0.19644
0.154374
0.123443
0.101622
0.0885141
0.0886461
0.155663
0.212764
0.172081
0.140003
0.11558
0.0981582
0.088257
0.0914911
0.166462
0.202239
0.164174
0.133993
0.11113
0.0951244
0.0866221
0.0915427
0.170153
0.238448
0.186299
0.14707
0.118266
0.0982234
0.0867363
0.0886846
0.159555
0.267726
0.204704
0.158111
0.124464
0.101234
0.0875438
0.0875439
0.153696
0.277918
0.211228
0.162073
0.126711
0.102349
0.0878771
0.0871825
0.151598
0.264772
0.20295
0.157109
0.123912
0.10094
0.0873729
0.0873552
0.152888
0.234425
0.183796
0.145609
0.117478
0.0978306
0.0865282
0.0884199
0.158135
0.198508
0.161808
0.132637
0.110456
0.0948588
0.0865268
0.0913085
0.168309
0.183915
0.151177
0.125185
0.105714
0.09264
0.0872671
0.098605
0.222951
0.214635
0.170222
0.136542
0.111934
0.0952901
0.0871512
0.0954048
0.210474
0.239304
0.186003
0.146099
0.117342
0.0979432
0.0878549
0.0942481
0.204206
0.248322
0.191813
0.149661
0.119417
0.0990551
0.0883195
0.0941609
0.202795
0.237509
0.184917
0.145531
0.117146
0.0980161
0.0881438
0.0947919
0.205479
0.212117
0.168646
0.135739
0.111724
0.0955258
0.0877606
0.0964808
0.2129
0.181462
0.149705
0.124545
0.105729
0.0931647
0.0882472
0.100209
0.226405
0.361636
0.286802
0.226351
0.17989
0.146597
0.126605
0.126589
0.221691
0.455657
0.350267
0.268187
0.206207
0.162106
0.13476
0.12946
0.217936
0.534291
0.405127
0.30493
0.229597
0.176228
0.142791
0.13359
0.218714
0.56385
0.426904
0.320133
0.239561
0.182421
0.146495
0.135821
0.220408
0.532014
0.406014
0.306817
0.231486
0.177765
0.143999
0.134721
0.22085
0.456377
0.353395
0.272024
0.209646
0.164815
0.136867
0.131439
0.221906
0.365663
0.292039
0.231419
0.184083
0.149818
0.129121
0.129044
0.22704
0.34529
0.271927
0.213973
0.170413
0.139744
0.121791
0.123188
0.218784
0.440682
0.334277
0.253974
0.194986
0.153989
0.129168
0.125662
0.215462
0.524687
0.391784
0.290951
0.217807
0.167492
0.136783
0.129653
0.217261
0.55991
0.417325
0.307728
0.228268
0.173753
0.140462
0.131897
0.219494
0.53171
0.397641
0.295148
0.220701
0.169394
0.13807
0.130748
0.219397
0.450978
0.342665
0.260426
0.19951
0.157003
0.131233
0.127454
0.219133
0.355572
0.280744
0.220713
0.175153
0.142944
0.124033
0.125235
0.223286
0.318197
0.251935
0.199663
0.160491
0.132927
0.116984
0.11951
0.215757
0.403963
0.308316
0.23576
0.182688
0.145843
0.123644
0.121584
0.212496
0.481399
0.36285
0.270527
0.204093
0.158528
0.130782
0.125228
0.214371
0.518016
0.389956
0.287535
0.214415
0.164643
0.134316
0.127312
0.216677
0.490418
0.370646
0.275577
0.207235
0.16043
0.131953
0.126175
0.216436
0.417828
0.318955
0.24289
0.187168
0.148569
0.125372
0.123048
0.215811
0.330562
0.261387
0.206153
0.164654
0.135512
0.11868
0.121076
0.219539
0.287718
0.231058
0.185519
0.150866
0.126258
0.112149
0.115604
0.211529
0.358021
0.278586
0.21664
0.170393
0.137734
0.118
0.117121
0.207254
0.423457
0.324998
0.246793
0.189327
0.149087
0.124327
0.120085
0.207664
0.455545
0.349096
0.261895
0.198576
0.154585
0.127438
0.121781
0.209212
0.432936
0.332711
0.251415
0.192031
0.15064
0.125232
0.120804
0.209405
0.372186
0.28823
0.222614
0.173935
0.139789
0.119251
0.11821
0.210046
0.298725
0.23877
0.190462
0.153852
0.128012
0.113276
0.11676
0.214814
0.258435
0.210657
0.171345
0.140952
0.119316
0.107323
0.112303
0.20865
0.315092
0.249728
0.19746
0.157497
0.12897
0.112035
0.113083
0.203681
0.363484
0.285047
0.22156
0.172964
0.138243
0.117062
0.115141
0.202583
0.385215
0.301747
0.2329
0.180178
0.142543
0.11942
0.116292
0.203177
0.369292
0.289611
0.224518
0.17471
0.139192
0.117581
0.11555
0.203823
0.323064
0.255545
0.201239
0.159715
0.130188
0.112719
0.113718
0.205874
0.265138
0.215545
0.174482
0.14276
0.120279
0.107881
0.112995
0.211572
0.228614
0.18901
0.155757
0.1299
0.11176
0.102851
0.113027
0.249443
0.273499
0.220652
0.177169
0.143409
0.119421
0.106107
0.112204
0.240205
0.310142
0.24745
0.195873
0.155427
0.126504
0.109691
0.113009
0.236353
0.325235
0.259284
0.204053
0.160634
0.129531
0.111208
0.113424
0.235273
0.313259
0.249594
0.19731
0.156197
0.126783
0.109653
0.112759
0.235863
0.277082
0.223399
0.179021
0.144359
0.119695
0.105924
0.11169
0.239351
0.232109
0.191676
0.157393
0.130622
0.111791
0.102387
0.112157
0.248134
0.358883
0.286216
0.226299
0.179651
0.146006
0.125772
0.125823
0.222397
0.412087
0.31717
0.243077
0.187218
0.147507
0.12301
0.118855
0.202601
0.439164
0.332566
0.250415
0.189468
0.14662
0.119966
0.11345
0.188874
0.427904
0.322669
0.242053
0.182625
0.141038
0.115165
0.108464
0.178494
0.382739
0.290129
0.219421
0.167371
0.130909
0.108301
0.103173
0.171396
0.319145
0.24571
0.189686
0.14817
0.118886
0.100953
0.0987414
0.168828
0.253676
0.202133
0.161413
0.130492
0.108477
0.09556
0.0971338
0.171743
0.349118
0.27526
0.216073
0.171241
0.139619
0.121107
0.122417
0.219599
0.40405
0.306593
0.232994
0.179056
0.141524
0.118841
0.116063
0.201847
0.430653
0.322223
0.240716
0.181781
0.141158
0.11632
0.111173
0.18899
0.418027
0.312102
0.232699
0.175496
0.136153
0.112046
0.106664
0.179247
0.370766
0.279285
0.210577
0.16093
0.126606
0.105612
0.101667
0.171874
0.307365
0.235762
0.182017
0.14273
0.115258
0.0986615
0.0974737
0.169138
0.243667
0.194077
0.155354
0.126213
0.105606
0.0937318
0.0961768
0.172495
0.326555
0.257401
0.202614
0.161545
0.13275
0.116144
0.118551
0.216273
0.380247
0.288718
0.219997
0.169986
0.135285
0.114409
0.112626
0.199475
0.409779
0.305871
0.228843
0.173656
0.135693
0.112492
0.108249
0.187294
0.397955
0.296886
0.221924
0.168283
0.131391
0.108762
0.104184
0.178121
0.350994
0.265274
0.201017
0.154633
0.122473
0.102791
0.0996196
0.170952
0.290883
0.224273
0.174219
0.137539
0.111791
0.0962768
0.0957902
0.168431
0.232118
0.185721
0.149489
0.122167
0.102799
0.0917327
0.0947036
0.17196
0.296512
0.235978
0.18773
0.151287
0.125611
0.110972
0.114384
0.211751
0.347497
0.266054
0.20473
0.159764
0.128325
0.109451
0.108651
0.194803
0.3777
0.283771
0.214208
0.164018
0.129199
0.10792
0.104633
0.182934
0.369085
0.277109
0.208869
0.159686
0.125595
0.104696
0.101015
0.174458
0.326968
0.248886
0.190133
0.147363
0.117521
0.0993285
0.0970255
0.168312
0.272444
0.211695
0.165639
0.131626
0.107672
0.0933832
0.0936884
0.16666
0.219353
0.176568
0.142927
0.117451
0.0994046
0.0892788
0.0928875
0.170661
0.263205
0.213285
0.172167
0.140518
0.118132
0.105768
0.110733
0.208351
0.305191
0.238941
0.186886
0.147813
0.120284
0.104091
0.105144
0.191841
0.331404
0.25473
0.195512
0.151703
0.12106
0.102673
0.101433
0.180626
0.327763
0.250729
0.191722
0.14835
0.118127
0.0999566
0.0983377
0.173135
0.295448
0.227988
0.176158
0.137971
0.111318
0.095473
0.0950921
0.16835
0.249956
0.196245
0.154963
0.124304
0.102828
0.0904707
0.0924824
0.16761
0.203541
0.165237
0.134838
0.111798
0.095667
0.0871218
0.0921991
0.171853
0.230645
0.189827
0.155478
0.128809
0.110127
0.10085
0.110608
0.245482
0.263666
0.210622
0.167622
0.134891
0.111951
0.0994103
0.105491
0.228339
0.284637
0.223765
0.174932
0.13825
0.112712
0.0983314
0.10238
0.217723
0.2836
0.221571
0.172449
0.135885
0.110575
0.0963105
0.100061
0.211947
0.260068
0.204143
0.160268
0.127756
0.105335
0.0930367
0.0980596
0.210058
0.223942
0.178299
0.142894
0.116655
0.0986705
0.0895413
0.0971276
0.21318
0.185011
0.152083
0.125896
0.106244
0.0930061
0.0874875
0.0986406
0.222799
0.250905
0.19987
0.159867
0.129643
0.108156
0.0955092
0.0969151
0.169415
0.3155
0.242068
0.186841
0.146313
0.117859
0.100448
0.0982482
0.165525
0.379507
0.285661
0.215339
0.164352
0.128936
0.107011
0.101927
0.1672
0.426853
0.318478
0.237398
0.178888
0.138477
0.113444
0.106781
0.173554
0.439484
0.328671
0.24567
0.185564
0.143967
0.118277
0.111845
0.183398
0.410512
0.312719
0.238262
0.183333
0.144825
0.121197
0.117047
0.197266
0.355359
0.281353
0.221591
0.175824
0.143153
0.123598
0.123605
0.216785
0.239071
0.190897
0.15343
0.125246
0.10526
0.0936517
0.0958446
0.169885
0.300267
0.230322
0.178418
0.140654
0.114238
0.0982024
0.0969688
0.165921
0.361895
0.271554
0.205007
0.157386
0.124523
0.104327
0.100428
0.167632
0.408327
0.30296
0.225697
0.170877
0.133367
0.110324
0.10502
0.174003
0.420887
0.312579
0.23324
0.176869
0.13831
0.114763
0.109816
0.183606
0.393015
0.297078
0.22583
0.174356
0.138767
0.117267
0.114611
0.196688
0.339221
0.266785
0.209712
0.166911
0.136843
0.11927
0.120676
0.21491
0.226865
0.182342
0.147577
0.121268
0.102505
0.0916551
0.0942953
0.16903
0.282424
0.218331
0.170569
0.135572
0.110892
0.0958948
0.0952404
0.164999
0.3391
0.256164
0.195043
0.151089
0.120499
0.101624
0.0984373
0.166557
0.382768
0.285187
0.214057
0.16352
0.128696
0.107191
0.102705
0.17271
0.393545
0.293401
0.220481
0.168688
0.133063
0.11122
0.107173
0.18203
0.365523
0.277567
0.212535
0.165583
0.132995
0.113318
0.111658
0.194776
0.314208
0.248227
0.196528
0.157848
0.130656
0.114917
0.117354
0.212329
0.214465
0.173553
0.141287
0.116717
0.0991892
0.0892197
0.0924551
0.167701
0.264273
0.206262
0.162427
0.129958
0.106959
0.0930983
0.0931667
0.163327
0.314427
0.240176
0.184684
0.144221
0.115822
0.0983557
0.096006
0.164259
0.35224
0.265612
0.201611
0.155448
0.123284
0.103422
0.0998395
0.169645
0.359656
0.271657
0.206685
0.159781
0.127112
0.107052
0.103932
0.17839
0.332193
0.25589
0.198531
0.156392
0.126784
0.108911
0.108165
0.190835
0.285414
0.22857
0.183258
0.148834
0.124403
0.110367
0.113647
0.208157
0.199941
0.163093
0.133784
0.111483
0.0957879
0.0873862
0.0921611
0.16944
0.243732
0.192191
0.15268
0.123275
0.102598
0.0906087
0.0924205
0.164975
0.285894
0.221446
0.172166
0.135805
0.110321
0.0950791
0.0946454
0.165202
0.315672
0.242326
0.186459
0.145414
0.116715
0.0993813
0.0978473
0.1696
0.319425
0.246308
0.190273
0.148921
0.119942
0.102504
0.101414
0.177341
0.29562
0.232268
0.18288
0.145837
0.119668
0.104236
0.10532
0.188906
0.256729
0.208826
0.169585
0.139303
0.117767
0.105812
0.110599
0.205323
0.182735
0.15085
0.125554
0.106601
0.0938979
0.0888414
0.100654
0.226702
0.21996
0.175747
0.141689
0.116525
0.0993428
0.0908148
0.0991199
0.217217
0.254354
0.200085
0.15797
0.126909
0.105554
0.0940355
0.0998128
0.213573
0.276825
0.216532
0.169412
0.134581
0.110544
0.0971785
0.101692
0.215022
0.278347
0.218926
0.172016
0.137082
0.11286
0.099377
0.104153
0.220651
0.25895
0.207043
0.165576
0.134252
0.112385
0.100608
0.107329
0.23118
0.227462
0.187536
0.154311
0.128604
0.110648
0.101915
0.112183
0.247831
0.00726261
0.00588654
0.00718377
0.00843307
0.00910325
0.00914046
0.00865559
0.00781707
0.00716143
0.0058375
0.00714898
0.00840356
0.00907098
0.00910267
0.00861291
0.00777162
0.00705888
0.00578495
0.00711586
0.00838271
0.00905286
0.00908199
0.00858795
0.00774272
0.0069658
0.00573737
0.00708561
0.00836315
0.00903669
0.00906511
0.0085689
0.00772198
0.00689865
0.0056976
0.00705167
0.00833172
0.00900737
0.00903837
0.00854581
0.00770351
0.00684665
0.00565713
0.00700264
0.00827428
0.00894855
0.00898468
0.00850177
0.00767136
0.00679641
0.00560974
0.00694107
0.00820153
0.0088753
0.00891967
0.00845086
0.00763743
0.0122496
0.0102493
0.012517
0.014237
0.0148001
0.0143212
0.0130904
0.0114207
0.0120617
0.0101832
0.0124876
0.0142114
0.0147629
0.0142702
0.0130288
0.0113529
0.0118649
0.0101186
0.0124764
0.0142185
0.0147664
0.0142615
0.0130065
0.011319
0.0116906
0.0100598
0.0124624
0.0142205
0.0147676
0.0142547
0.0129897
0.011294
0.0115626
0.00999589
0.0124105
0.0141705
0.0147189
0.0142088
0.0129488
0.0112595
0.0114621
0.0099071
0.0122971
0.014042
0.014591
0.0140935
0.0128534
0.011187
0.0113636
0.0098014
0.0121598
0.01389
0.0144433
0.0139635
0.01275
0.0111146
0.0199456
0.0184983
0.0221913
0.024105
0.0239742
0.0222701
0.0195875
0.0164607
0.0196086
0.018465
0.0222086
0.0241012
0.0239323
0.0221967
0.019494
0.0163555
0.0192683
0.018463
0.0222947
0.024192
0.023994
0.0222225
0.019487
0.0163219
0.018982
0.0184519
0.0223517
0.0242566
0.0240412
0.0222454
0.0194847
0.016298
0.0187753
0.0183676
0.0222786
0.0241822
0.0239659
0.0221741
0.0194217
0.0162449
0.0186218
0.0181768
0.022045
0.0239357
0.0237297
0.0219647
0.0192495
0.0161132
0.0184878
0.0179567
0.0217819
0.0236672
0.023478
0.0217441
0.019071
0.0159838
0.0341579
0.0343676
0.0393181
0.0403519
0.0382899
0.0340761
0.0287309
0.0231336
0.0335065
0.0344981
0.0394405
0.0403762
0.0382207
0.0339473
0.0285755
0.0229696
0.0328239
0.0347396
0.0397422
0.0406138
0.0383694
0.0340186
0.0285883
0.0229389
0.0322543
0.0349005
0.0399502
0.0407812
0.0384793
0.0340792
0.0286058
0.0229189
0.0318793
0.0348083
0.0398648
0.0406825
0.0383719
0.0339766
0.0285197
0.0228516
0.0317048
0.0344573
0.0394908
0.0403111
0.0380226
0.0336681
0.0282672
0.0226604
0.0316126
0.0340691
0.0390962
0.039935
0.0376756
0.0333598
0.0280102
0.0224663
0.0606805
0.0671721
0.0678963
0.0652535
0.059334
0.0507501
0.0408909
0.0312958
0.0607834
0.0676864
0.0681574
0.0652738
0.059175
0.0504933
0.0406159
0.0310516
0.0609852
0.0685153
0.0688125
0.0657025
0.0594058
0.0505797
0.0406177
0.0310119
0.0611316
0.0691212
0.0693043
0.066022
0.0595761
0.0506548
0.0406357
0.030983
0.0610234
0.0691555
0.0693005
0.065948
0.0594507
0.0505186
0.040529
0.0309216
0.0606484
0.0687388
0.0688915
0.0655373
0.0590491
0.0501576
0.0402421
0.0307204
0.0601843
0.0682923
0.0684923
0.0651594
0.0586846
0.0498174
0.0399448
0.0304881
0.205876
0.124193
0.110002
0.100367
0.0883543
0.0730596
0.055816
0.0398526
0.209422
0.12534
0.1103
0.100217
0.087944
0.0725158
0.0552947
0.0394891
0.214372
0.127469
0.111479
0.100853
0.0882159
0.0725298
0.0551898
0.0393897
0.218942
0.129436
0.112614
0.101483
0.0884924
0.072586
0.0551569
0.0392856
0.221259
0.130304
0.113022
0.101592
0.0884054
0.0724069
0.0550202
0.0392764
0.221768
0.13025
0.112831
0.101286
0.0880247
0.0720355
0.0547487
0.0391398
0.222503
0.130303
0.112848
0.101196
0.0878214
0.0717802
0.0544936
0.0389399
0.00725628
0.00586052
0.00721683
0.0085411
0.00927674
0.0093545
0.00888676
0.00804992
0.00735346
0.00592554
0.00729096
0.00862836
0.0093728
0.00945109
0.00897592
0.00812639
0.00743443
0.00597331
0.0073397
0.00868294
0.00942907
0.00950259
0.00901717
0.00815459
0.00750216
0.00601381
0.00737572
0.00871759
0.0094614
0.0095282
0.00903289
0.00815942
0.0075673
0.00605835
0.00741453
0.00875104
0.00949112
0.00955344
0.00905206
0.00817151
0.00762419
0.00610133
0.00745115
0.00878112
0.00951653
0.00957677
0.00907344
0.00819042
0.00766409
0.00612789
0.00746764
0.00878859
0.00951917
0.00957866
0.00907681
0.00819554
0.0124107
0.0103699
0.0127531
0.0146031
0.0152523
0.014795
0.0135384
0.011823
0.0126288
0.0105102
0.0129084
0.0147838
0.0154474
0.0149866
0.0137108
0.0119673
0.0128166
0.0106117
0.013009
0.0148984
0.0155693
0.0151018
0.013806
0.0120361
0.0129803
0.0106952
0.0130825
0.0149759
0.0156482
0.0151722
0.0138592
0.0120684
0.0131278
0.0107755
0.0131465
0.0150362
0.0157065
0.0152253
0.0139028
0.0121001
0.0132423
0.0108378
0.0131863
0.0150655
0.0157321
0.0152512
0.0139296
0.0121266
0.0132995
0.0108555
0.0131758
0.0150383
0.0157008
0.0152254
0.0139141
0.0121214
0.0208503
0.0189589
0.0228662
0.0250255
0.0250118
0.0232751
0.0204588
0.0171682
0.0213136
0.0192114
0.0231526
0.0253622
0.0253727
0.0236239
0.0207658
0.0174191
0.0217137
0.0193705
0.0233159
0.0255594
0.0255926
0.0238388
0.0209472
0.0175515
0.0220593
0.0194958
0.0234309
0.0256945
0.0257418
0.023982
0.0210638
0.0176315
0.0223409
0.019607
0.0235172
0.0257885
0.0258431
0.0240806
0.0211484
0.0176961
0.0225154
0.0196622
0.023528
0.0257893
0.0258505
0.0240982
0.0211745
0.0177273
0.0225396
0.0196212
0.023432
0.0256712
0.0257373
0.0240074
0.0211136
0.0176948
0.0366632
0.0352541
0.0407544
0.0422823
0.0404142
0.0360875
0.030408
0.0244045
0.0375844
0.0356499
0.0412316
0.0428592
0.0410337
0.0366815
0.0309218
0.0248164
0.0383383
0.0358003
0.041409
0.0431279
0.0413679
0.037029
0.031224
0.0250357
0.0390021
0.0359147
0.0415187
0.0433075
0.0416032
0.0372765
0.0314371
0.0251893
0.0395123
0.0360207
0.041597
0.0434257
0.0417609
0.0374464
0.031589
0.0253079
0.0397659
0.0360027
0.0415105
0.0433471
0.0417207
0.037444
0.0316119
0.0253441
0.0396772
0.0358061
0.0412293
0.0430471
0.0414512
0.0372337
0.0314697
0.0252622
0.0627576
0.0681673
0.0704118
0.0687304
0.0631805
0.0544245
0.043948
0.0335439
0.063977
0.0686141
0.0711124
0.0696374
0.0641773
0.0553819
0.0447582
0.034179
0.0647149
0.0684351
0.0711991
0.0699658
0.0646578
0.0559125
0.0452309
0.0345009
0.0653767
0.0682127
0.0711547
0.0701337
0.0649847
0.0563041
0.0455846
0.0347559
0.0659016
0.068087
0.0710912
0.0702149
0.0651957
0.056579
0.0458464
0.0349627
0.0660436
0.0677774
0.0707373
0.0699361
0.0650362
0.0565312
0.0458701
0.0350171
0.0656309
0.0672901
0.0701657
0.0693546
0.0645142
0.0561266
0.0456032
0.0348664
0.189211
0.123414
0.113774
0.106201
0.0948573
0.0792494
0.0609161
0.0434966
0.184362
0.122985
0.114358
0.107364
0.0963168
0.0807103
0.0621378
0.0443852
0.177524
0.121542
0.114136
0.107768
0.0970604
0.0815525
0.0628714
0.0448249
0.171973
0.120045
0.113607
0.107808
0.0974893
0.082162
0.0634394
0.0452056
0.169359
0.119027
0.113076
0.107673
0.097688
0.0825569
0.0638583
0.0455359
0.168459
0.118085
0.112252
0.107025
0.0972755
0.0823905
0.0638729
0.0456318
0.169429
0.117664
0.111639
0.106287
0.0965012
0.0817383
0.0634394
0.0454114
0.00767994
0.00613247
0.00746211
0.00877585
0.00950235
0.00956111
0.00906064
0.00818122
0.00766682
0.00611332
0.00743325
0.00874068
0.00946337
0.00952151
0.00902271
0.00814576
0.00762219
0.00607685
0.00738844
0.00868806
0.00940564
0.00946263
0.00896603
0.00809276
0.0075588
0.00603459
0.00733918
0.00862808
0.00933988
0.00939588
0.00890419
0.00803889
0.00748816
0.00599379
0.00729309
0.00857206
0.00927551
0.00933128
0.00884646
0.00799238
0.00741452
0.00595796
0.0072537
0.00852036
0.00921318
0.00926618
0.00878598
0.007942
0.00734517
0.0059284
0.00722345
0.00847958
0.00916055
0.00920641
0.00872556
0.00788638
0.0132946
0.010834
0.0131359
0.0149866
0.0156456
0.0151751
0.0138734
0.0120903
0.013214
0.0107678
0.0130609
0.014903
0.0155586
0.0150929
0.0138014
0.0120293
0.0130676
0.0106694
0.0129569
0.0147867
0.0154372
0.0149766
0.0136979
0.0119404
0.0128906
0.0105623
0.0128413
0.0146513
0.0152919
0.0148362
0.0135746
0.0118396
0.0127162
0.0104639
0.0127338
0.0145213
0.0151478
0.0146955
0.0134528
0.0117442
0.0125562
0.0103826
0.012645
0.0144062
0.0150128
0.0145576
0.0133274
0.0116412
0.0124131
0.0103224
0.0125835
0.0143208
0.0149047
0.0144388
0.0132112
0.0115371
0.0224374
0.0195366
0.0233188
0.0255367
0.0256001
0.0238866
0.0210208
0.01763
0.0221801
0.0193907
0.023168
0.0253646
0.0254197
0.0237196
0.0208829
0.0175234
0.0217849
0.0191889
0.0229607
0.025127
0.0251719
0.0234895
0.02069
0.0173711
0.0213418
0.0189808
0.0227336
0.0248568
0.0248785
0.0232096
0.0204523
0.0171863
0.0209237
0.0188008
0.0225306
0.0246005
0.0245937
0.0229336
0.0202171
0.0170075
0.0205704
0.0186721
0.0223855
0.0244001
0.0243515
0.0226818
0.0199882
0.0168212
0.0202699
0.0185942
0.0222931
0.0242533
0.0241612
0.0224738
0.0197883
0.0166469
0.0393518
0.0356193
0.0410047
0.0427793
0.0411722
0.036983
0.031277
0.0251327
0.0387249
0.0353783
0.0407593
0.0424744
0.0408312
0.0366545
0.0310064
0.0249356
0.0378137
0.0350215
0.0403758
0.0420178
0.0403425
0.0361967
0.0306313
0.0246575
0.0368359
0.0346954
0.0399913
0.0415288
0.0397983
0.0356697
0.0301853
0.0243192
0.0359585
0.0344942
0.03972
0.0411246
0.039311
0.0351772
0.0297604
0.0240003
0.0353159
0.034456
0.0396078
0.0408708
0.0389495
0.0347735
0.0293826
0.0236927
0.0347868
0.0344531
0.0394956
0.0406361
0.0386371
0.0344345
0.0290623
0.0234213
0.0649713
0.0671472
0.0699186
0.0689907
0.0640795
0.0556975
0.0452563
0.0346352
0.0639418
0.067041
0.0696786
0.0685811
0.0635536
0.0551369
0.0447637
0.0342768
0.062456
0.06664
0.0690895
0.0678133
0.062694
0.0542963
0.0440573
0.0337661
0.0610318
0.0664093
0.0685699
0.0670464
0.0617908
0.0533846
0.0432665
0.0331625
0.0601907
0.0666276
0.0684209
0.0665522
0.0610677
0.0525829
0.0425426
0.03261
0.0604346
0.0671772
0.068547
0.0663184
0.0605872
0.0519853
0.0419609
0.0321367
0.0607848
0.0672834
0.0682863
0.0658368
0.0600065
0.0514033
0.0414458
0.0317253
0.173141
0.118449
0.111812
0.106086
0.0960366
0.0811639
0.0629277
0.0450734
0.176447
0.1192
0.111787
0.105615
0.0953322
0.0803558
0.0621665
0.0445095
0.179555
0.119311
0.111042
0.104458
0.0940001
0.0790217
0.0610066
0.0436734
0.185206
0.120079
0.110568
0.103384
0.0926387
0.0775996
0.0597307
0.0427026
0.193548
0.122086
0.110974
0.102922
0.0916489
0.076371
0.0585705
0.0418138
0.201307
0.124135
0.111489
0.102631
0.0908956
0.075417
0.0576658
0.041118
0.203965
0.12426
0.11074
0.101479
0.0896322
0.0742743
0.056774
0.0404902
0.00675962
0.0055706
0.00689484
0.00815255
0.00882969
0.00888156
0.0084231
0.00762162
0.00674149
0.005546
0.00687176
0.00813561
0.0088197
0.00887757
0.00842446
0.00762823
0.00674897
0.00553927
0.00686913
0.00814264
0.00883524
0.00889772
0.00844585
0.00764909
0.00679523
0.00556115
0.00689561
0.00817924
0.00888014
0.00894561
0.00849157
0.00768938
0.00688756
0.00561722
0.00695637
0.00825012
0.00895899
0.00902631
0.00856784
0.00775677
0.00700819
0.00569338
0.00703461
0.00833553
0.00905112
0.00912075
0.00865887
0.00783953
0.00713944
0.00577791
0.00712251
0.00843189
0.00915581
0.00922929
0.00876517
0.00793805
0.0112897
0.00972738
0.0120782
0.0138093
0.0143693
0.0138992
0.0126986
0.0110792
0.0112477
0.00969425
0.0120624
0.0138104
0.01438
0.0139122
0.012711
0.0110924
0.0112656
0.00969972
0.0120889
0.0138599
0.0144414
0.0139733
0.0127644
0.011136
0.0113767
0.009759
0.0121592
0.0139505
0.0145449
0.0140763
0.0128563
0.0112118
0.011594
0.00988241
0.0122807
0.0140873
0.0146933
0.0142248
0.012993
0.011329
0.01187
0.0100354
0.0124173
0.0142316
0.0148494
0.0143853
0.0131476
0.011469
0.0121552
0.0101988
0.0125684
0.0143936
0.0150257
0.0145674
0.0133243
0.0116313
0.0184037
0.0178404
0.0216696
0.0235683
0.0233888
0.0216615
0.0189974
0.0159249
0.0183798
0.0178375
0.0217204
0.023654
0.0234796
0.0217374
0.0190516
0.0159618
0.0184739
0.0179006
0.0218429
0.0238205
0.0236567
0.0218969
0.0191784
0.0160548
0.0187451
0.0180199
0.0219881
0.0240073
0.023865
0.0220987
0.0193521
0.0161912
0.019208
0.0182132
0.0221669
0.0242176
0.0241041
0.0223428
0.0195769
0.0163813
0.0197654
0.0184214
0.0223279
0.0244028
0.024326
0.022584
0.0198142
0.016598
0.0203267
0.018655
0.0225333
0.0246416
0.0246014
0.0228739
0.0200948
0.0168537
0.0315844
0.0339166
0.0389933
0.0398644
0.0376148
0.0332936
0.0279368
0.0223946
0.0316377
0.0340143
0.0392106
0.0401377
0.0378802
0.0335075
0.0280827
0.0224791
0.0319008
0.0342059
0.0395397
0.040539
0.0382827
0.033856
0.0283478
0.0226586
0.0324924
0.0343346
0.0397551
0.040852
0.0386467
0.0342139
0.0286526
0.0228893
0.033428
0.0344565
0.0398918
0.0410925
0.0389775
0.0345813
0.0290003
0.0231821
0.0345253
0.0345347
0.0399425
0.0412534
0.0392515
0.0349208
0.0293482
0.0235011
0.035616
0.0347492
0.0401676
0.0415914
0.039682
0.0353878
0.0297968
0.0239009
0.0599114
0.0681424
0.0684676
0.0651918
0.0587234
0.0498298
0.0399198
0.0304371
0.0598067
0.0682924
0.0688453
0.065688
0.0592307
0.0502522
0.0402079
0.0305835
0.0598577
0.0686445
0.0694547
0.0664307
0.0599834
0.0509035
0.0406909
0.030881
0.0598394
0.068549
0.0696721
0.0668774
0.0605574
0.051492
0.0411929
0.0312432
0.0599393
0.0681188
0.0695491
0.0670583
0.0609697
0.0520241
0.0417186
0.0316833
0.0601423
0.0675338
0.0692691
0.0671066
0.0612832
0.052501
0.042233
0.0321484
0.0612157
0.0674739
0.0694895
0.0676022
0.0619634
0.0532582
0.0429535
0.032767
0.222125
0.130289
0.113097
0.10152
0.0881015
0.0719701
0.0545747
0.0389509
0.218959
0.129797
0.113318
0.102116
0.0888412
0.0726378
0.0550429
0.0391694
0.216435
0.129718
0.113987
0.103193
0.0900585
0.0737318
0.0558307
0.0395918
0.211558
0.128625
0.114028
0.103818
0.0909736
0.0747025
0.0566386
0.040122
0.204893
0.126647
0.113423
0.103949
0.0915606
0.0755357
0.0574677
0.0407858
0.197785
0.124452
0.112681
0.103952
0.0920194
0.0762768
0.0582723
0.0414656
0.192518
0.123444
0.112913
0.104784
0.0931337
0.0774965
0.0594022
0.042375
0.00693544
0.00371149
0.00696634
0.00700095
0.00632867
0.00568836
0.00511935
0.00466997
0.00443667
0.0047761
0.00900141
0.00695555
0.00628383
0.00564495
0.00507799
0.00463066
0.00439819
0.00473398
0.00892913
0.00692464
0.00625167
0.00561219
0.00504506
0.00459752
0.00436395
0.00469513
0.00885907
0.00690376
0.00623083
0.00559179
0.00502529
0.00457823
0.00434448
0.00467343
0.00882138
0.00688949
0.00621979
0.00558382
0.00502013
0.00457557
0.00434397
0.00467494
0.00882869
0.00686704
0.00620464
0.00557521
0.00501723
0.0045776
0.00435036
0.00468582
0.00885286
0.00684687
0.00619454
0.00557383
0.00502298
0.0045889
0.00436582
0.00470546
0.00889041
0.00996028
0.00879719
0.00772307
0.0067889
0.00605426
0.00563713
0.0059839
0.0113121
0.00989146
0.00872881
0.00765729
0.00672771
0.00599863
0.00558548
0.00592815
0.0112142
0.00985131
0.00868476
0.00761113
0.00668073
0.00595089
0.00553514
0.00586894
0.0111005
0.0098228
0.00865424
0.00757992
0.00664958
0.00591958
0.0055021
0.0058295
0.0110228
0.00979393
0.00862977