/*--------------------------------*- C++ -*----------------------------------*\
| =========                 |                                                 |
| \\      /  F ield         | OpenFOAM: The Open Source CFD Toolbox           |
|  \\    /   O peration     | Version:  plus.master.MPPICInterFoam            |
|   \\  /    A nd           | Web:      www.OpenFOAM.com                      |
|    \\/     M anipulation  |                                                 |
\*---------------------------------------------------------------------------*/
FoamFile
{
    version     2.0;
    format      ascii;
    class       volVectorField;
    location    "8.4";
    object      U;
}
// * * * * * * * * * * * * * * * * * * * * * * * * * * * * * * * * * * * * * //

dimensions      [0 1 -1 0 0 0 0];

internalField   nonuniform List<vector> 
11822
(
(0.00328466 0.000773027 0.554763)
(0.00108926 8.90941e-05 0.604517)
(0.00034317 -0.00114742 0.62292)
(0.000415967 -0.000729845 0.600992)
(-0.000448163 0.00101418 0.54904)
(-0.00223952 0.00270223 0.479912)
(-0.00236143 0.00197059 0.40839)
(0.00182474 -0.0015833 0.647056)
(-0.00158627 -0.00425236 0.726149)
(-0.00169256 -0.00437921 0.765432)
(0.000480627 -0.00397 0.727169)
(0.000266387 -0.00312593 0.63706)
(-0.00202483 -0.000411536 0.544413)
(-0.00396037 0.000154505 0.451745)
(-0.00155651 -0.00359752 0.721776)
(-0.00407759 -0.00571639 0.838112)
(-0.00270183 -0.00545957 0.956755)
(0.00050095 -0.00460288 0.896938)
(0.000303432 -0.00483317 0.731122)
(-0.000209946 -0.00264391 0.591973)
(-0.00325254 -0.0016978 0.481808)
(-0.00281658 -0.00396456 0.749496)
(-0.00310681 -0.00423281 0.925532)
(0.000799794 -0.00373008 1.0457)
(0.00294961 -0.00277308 0.980678)
(0.00151086 -0.00354445 0.779498)
(0.00147644 -0.00319301 0.610548)
(-0.00213434 -0.00276588 0.490933)
(-0.000589739 -0.00409608 0.713311)
(-0.00336682 -0.00299732 0.856892)
(-0.00138659 -0.00261811 0.94797)
(0.00249533 -0.00224916 0.875371)
(0.0021733 -0.00237222 0.720997)
(0.00150593 -0.00347379 0.584411)
(-0.00198289 -0.00342863 0.475482)
(0.00119975 -0.00433769 0.624861)
(-0.00133947 -0.00394792 0.710062)
(-0.00102618 -0.00274017 0.752481)
(0.00152039 -0.00283217 0.713003)
(0.00221699 -0.0026165 0.625967)
(-0.000175785 -0.00460813 0.529315)
(-0.00178626 -0.00409972 0.439275)
(0.00288177 -0.00450123 0.52845)
(0.00101513 -0.00424941 0.576266)
(0.000771367 -0.00293695 0.595718)
(0.00125433 -0.00332045 0.576107)
(0.000863926 -0.00508424 0.525477)
(-0.000234903 -0.00576109 0.458981)
(-0.000421379 -0.00458288 0.391351)
(0.0107865 0.0101959 0.563036)
(0.00599595 0.0136235 0.62244)
(0.000893355 0.0122282 0.640036)
(-0.00282678 0.0115706 0.620722)
(-0.00625425 0.011968 0.566743)
(-0.00761462 0.00938629 0.482913)
(-0.00573956 0.00534279 0.405441)
(0.0134403 0.00787177 0.670245)
(0.00507966 0.00798596 0.758819)
(-0.00124614 0.00430836 0.778973)
(-0.00437938 0.00387405 0.745264)
(-0.00796515 0.00510072 0.670932)
(-0.0124083 0.0066923 0.56302)
(-0.00987025 0.00340682 0.451159)
(0.0117464 0.000422506 0.754592)
(-0.000819219 -0.002686 0.859897)
(-0.00745527 -0.00459766 0.944628)
(-0.00636796 -0.00419213 0.88499)
(-0.00870798 -0.00151503 0.742585)
(-0.0117956 0.000632112 0.610619)
(-0.0112083 0.000250827 0.483847)
(0.00948022 -0.00696314 0.782631)
(0.000360845 -0.0107162 0.914705)
(-0.00369555 -0.00922701 1.03983)
(-0.00216381 -0.00700881 0.9713)
(-0.00589488 -0.00633573 0.779745)
(-0.00968124 -0.00448251 0.62365)
(-0.0105668 -0.00289251 0.493117)
(0.0104814 -0.0118294 0.73333)
(0.00168838 -0.015441 0.876643)
(-0.0032094 -0.0107169 0.946791)
(-0.0032247 -0.00855494 0.87329)
(-0.00650188 -0.00953417 0.737413)
(-0.00969781 -0.00854237 0.603581)
(-0.00962402 -0.00535342 0.475932)
(0.0111853 -0.0139887 0.640045)
(0.00474508 -0.0167423 0.72261)
(-0.000275539 -0.0137571 0.756198)
(-0.00279068 -0.012708 0.722429)
(-0.00588411 -0.0126829 0.650555)
(-0.00883823 -0.0114177 0.53858)
(-0.00718583 -0.00691529 0.436404)
(0.00894187 -0.012305 0.528091)
(0.00499995 -0.0158585 0.581536)
(0.00145999 -0.0149419 0.600062)
(-0.0010147 -0.0144031 0.582138)
(-0.00340314 -0.0140568 0.529287)
(-0.00450525 -0.0112266 0.456828)
(-0.00342134 -0.00721611 0.386519)
(0.00858645 0.00375199 0.556553)
(0.00808035 0.00661395 0.634157)
(0.00480938 0.0059434 0.661197)
(0.00179224 0.00581013 0.63889)
(-3.61406e-05 0.00559738 0.566771)
(0.000658306 0.00281103 0.474792)
(0.00268474 0.000244919 0.396478)
(0.0121828 0.00432885 0.695731)
(0.0123597 0.00670661 0.829558)
(0.00667094 0.00144451 0.849858)
(0.000182468 0.0021482 0.804277)
(-0.0046044 0.00648245 0.723026)
(-0.00360805 0.0041046 0.564127)
(0.00154132 0.000318108 0.442328)
(0.0120058 -0.000358906 0.825245)
(0.00859316 -0.00243288 0.987331)
(0.0058054 -0.006985 0.999096)
(0.00252345 -0.00434444 0.931881)
(-0.00189416 0.000326002 0.79727)
(-0.00480031 0.0010307 0.634362)
(0.000740371 -0.000435161 0.476452)
(0.0102875 -0.00517922 0.849488)
(0.00654386 -0.0097339 0.997914)
(0.00699319 -0.0100527 1.05717)
(0.00678507 -0.00811999 0.992284)
(0.000477268 -0.00574763 0.826266)
(-0.00401498 -0.0033063 0.650619)
(0.000855144 -0.00163077 0.486249)
(0.00968106 -0.00823942 0.782039)
(0.00850137 -0.0137541 0.929009)
(0.00699555 -0.00934347 0.975803)
(0.00453355 -0.00849447 0.911884)
(-0.000540925 -0.00916774 0.770898)
(-0.00375961 -0.00619385 0.616258)
(0.00134893 -0.00234798 0.46706)
(0.0096947 -0.00759018 0.646992)
(0.00917979 -0.0117503 0.758679)
(0.00610571 -0.00843818 0.795378)
(0.00228843 -0.00851835 0.755026)
(-0.00204079 -0.0106993 0.666811)
(-0.00135664 -0.00620772 0.534387)
(0.0024903 -0.00221192 0.426496)
(0.0064014 -0.0033087 0.515335)
(0.00614277 -0.00561642 0.575812)
(0.00473938 -0.00494568 0.598357)
(0.00346482 -0.00585459 0.582141)
(0.00210089 -0.00594827 0.522583)
(0.00229824 -0.00355113 0.446408)
(0.00369876 -0.00143307 0.377345)
(-0.00619087 -0.0172774 0.540892)
(0.00159328 -0.0227027 0.615549)
(0.00840399 -0.0242831 0.64372)
(0.0130645 -0.0217978 0.621856)
(0.0159654 -0.0179749 0.551739)
(0.0175674 -0.0137278 0.466372)
(0.0174195 -0.0105301 0.394341)
(-0.00975693 -0.0136246 0.672428)
(0.00564911 -0.01389 0.815367)
(0.0157373 -0.0145572 0.871224)
(0.0173127 -0.0129733 0.821523)
(0.0186659 -0.00953127 0.699512)
(0.0218261 -0.00942472 0.550564)
(0.0225139 -0.00794833 0.437368)
(-0.00837533 -0.00634699 0.787146)
(0.0109864 -0.00488608 0.949017)
(0.0203124 -0.00646654 0.994694)
(0.0211221 -0.0056184 0.950066)
(0.0228101 -0.00410506 0.820916)
(0.024058 -0.00454428 0.620224)
(0.0257456 -0.00412943 0.470196)
(-0.00811876 0.0008429 0.810539)
(0.00999218 -0.00129071 0.974908)
(0.0195674 -0.00225031 1.03278)
(0.0216638 -0.00161383 0.994885)
(0.0218207 -0.000494234 0.854363)
(0.024557 0.000419348 0.637893)
(0.0263277 0.000350031 0.479547)
(-0.0095981 0.00790815 0.749091)
(0.00908725 0.00401892 0.912706)
(0.0187785 0.00500862 0.953003)
(0.0205521 0.0045146 0.91808)
(0.0216878 0.00486684 0.793597)
(0.0229723 0.0057033 0.602459)
(0.0246784 0.00466408 0.460573)
(-0.00931616 0.0151911 0.618237)
(0.00280939 0.0163599 0.730548)
(0.011947 0.0163946 0.769366)
(0.0158025 0.0140989 0.754997)
(0.017306 0.0108232 0.650403)
(0.0201669 0.0101488 0.521278)
(0.0208293 0.00788907 0.421472)
(-0.00632853 0.018135 0.500321)
(0.000128896 0.0233942 0.556101)
(0.00650231 0.0246217 0.579183)
(0.0114326 0.0212281 0.564138)
(0.0144498 0.0171035 0.50905)
(0.0160193 0.0130153 0.438716)
(0.0162718 0.00968538 0.375287)
(-0.0165976 -0.0259992 0.520145)
(-0.00819481 -0.0361548 0.5672)
(0.00366304 -0.0398414 0.59097)
(0.0145622 -0.0366641 0.577172)
(0.0212567 -0.0294176 0.526558)
(0.0234389 -0.02137 0.460681)
(0.0226273 -0.0158205 0.397387)
(-0.024757 -0.0219237 0.600335)
(-0.0116186 -0.0288381 0.698769)
(0.0069487 -0.0308586 0.761903)
(0.0216701 -0.0274626 0.75141)
(0.0300072 -0.0236888 0.64769)
(0.0324167 -0.0175367 0.52634)
(0.0302154 -0.012728 0.437047)
(-0.0276508 -0.0101755 0.679026)
(-0.00811794 -0.0121122 0.857704)
(0.0158764 -0.0106546 0.937981)
(0.0275901 -0.0103694 0.906815)
(0.0379079 -0.0114991 0.773023)
(0.040047 -0.00899565 0.582855)
(0.0364293 -0.00665653 0.466412)
(-0.0276131 0.00429301 0.706791)
(-0.00475477 0.00459929 0.916501)
(0.016425 0.00329466 0.980738)
(0.0255321 0.00265708 0.948264)
(0.0355979 0.00297775 0.788484)
(0.0415757 0.00241134 0.597065)
(0.0378207 0.00132141 0.47495)
(-0.0265156 0.0169732 0.647019)
(-0.00995661 0.0212798 0.787349)
(0.0112667 0.0202616 0.899443)
(0.0244642 0.0174619 0.872527)
(0.0350992 0.0174726 0.741933)
(0.0381586 0.0129271 0.566954)
(0.0347768 0.00871322 0.457738)
(-0.0218579 0.0255358 0.569183)
(-0.0108654 0.033046 0.635689)
(0.00323562 0.0352366 0.686537)
(0.0166878 0.0311557 0.692387)
(0.0258773 0.026197 0.606225)
(0.0291115 0.0192314 0.503821)
(0.0277935 0.0134374 0.421859)
(-0.0150814 0.0264872 0.490309)
(-0.00769708 0.0356005 0.530668)
(0.00219624 0.0382924 0.549311)
(0.0116078 0.0346857 0.53798)
(0.0182107 0.0278967 0.494326)
(0.0208607 0.0206241 0.436036)
(0.0210378 0.0152511 0.378287)
(-0.0163393 -0.0193793 0.519317)
(-0.0121674 -0.0286684 0.559706)
(-0.00338213 -0.0341636 0.574274)
(0.00750763 -0.0322663 0.56396)
(0.0147129 -0.0245533 0.521629)
(0.0173891 -0.0177024 0.459588)
(0.0188564 -0.0147347 0.398179)
(-0.0241506 -0.0181349 0.590517)
(-0.0192302 -0.0282512 0.639858)
(-0.00615585 -0.0344704 0.66971)
(0.0110871 -0.0321207 0.666562)
(0.0221853 -0.0235399 0.609253)
(0.0245686 -0.0155909 0.521108)
(0.0233866 -0.0117517 0.43657)
(-0.0307049 -0.0108619 0.632094)
(-0.025446 -0.0176498 0.720339)
(-0.00729081 -0.0240524 0.816292)
(0.0193579 -0.0219612 0.82746)
(0.0343128 -0.0124471 0.695822)
(0.0348349 -0.00848695 0.567981)
(0.0291597 -0.00647965 0.464832)
(-0.0330548 0.00369444 0.650368)
(-0.0272304 0.00639967 0.757859)
(-0.00336377 0.00598828 0.889955)
(0.0265203 0.00571893 0.884525)
(0.0368667 0.00459168 0.699621)
(0.0378174 0.00264937 0.581979)
(0.0309216 0.00115353 0.47365)
(-0.027594 0.0157985 0.618778)
(-0.0234269 0.0245047 0.692825)
(-0.00886978 0.0282869 0.744083)
(0.0148913 0.0271803 0.779765)
(0.0310307 0.0181934 0.666683)
(0.0326122 0.0120344 0.556902)
(0.027844 0.00809571 0.456782)
(-0.0202198 0.0193226 0.563895)
(-0.0165566 0.0292514 0.612924)
(-0.00678027 0.034864 0.636775)
(0.00768516 0.0322822 0.633502)
(0.0192787 0.0241971 0.584339)
(0.0221189 0.0162494 0.500865)
(0.0221637 0.0122574 0.421772)
(-0.014732 0.0187612 0.489974)
(-0.0104801 0.0258201 0.527769)
(-0.00299315 0.0303833 0.542235)
(0.00630573 0.0290404 0.53153)
(0.0130962 0.0227046 0.491748)
(0.0162412 0.0172059 0.435396)
(0.0183642 0.0144963 0.379095)
(-0.00107456 0.00166488 0.35026)
(-0.000110383 0.00136432 0.30861)
(0.00049325 0.00114762 0.271353)
(0.000878244 0.00102844 0.238616)
(0.00107671 0.000995835 0.209835)
(0.00111831 0.00102324 0.18384)
(0.0010167 0.00107924 0.158123)
(0.000995053 0.00110961 0.123233)
(-0.00236606 0.000356986 0.380365)
(-0.00116069 0.00036714 0.326957)
(-0.00027348 0.000278961 0.281607)
(0.000236722 0.000221524 0.242923)
(0.000477461 0.000203289 0.209618)
(0.000503842 0.000228975 0.180139)
(0.000372353 0.000285826 0.151654)
(0.00030101 0.000270128 0.114646)
(-0.00244589 -0.00115291 0.400456)
(-0.00137378 -0.000909462 0.339615)
(-0.000506042 -0.000800313 0.288566)
(2.68799e-05 -0.000732415 0.245602)
(0.000272998 -0.000698754 0.209114)
(0.000285699 -0.000675442 0.177258)
(0.000129853 -0.000654088 0.146985)
(6.19156e-05 -0.000670234 0.108482)
(-0.00184663 -0.00229707 0.405903)
(-0.000992347 -0.00195907 0.342414)
(-0.00022547 -0.0017479 0.289386)
(0.000253537 -0.00163269 0.244953)
(0.000474851 -0.00159029 0.207365)
(0.000472157 -0.00159233 0.174713)
(0.00030583 -0.00160729 0.143876)
(0.000234626 -0.00155897 0.104966)
(-0.00135859 -0.0030411 0.394564)
(-0.000420954 -0.00268017 0.333898)
(0.000305795 -0.00243573 0.283073)
(0.000760802 -0.00231297 0.240318)
(0.000966603 -0.00228514 0.203994)
(0.000968604 -0.00231965 0.172271)
(0.000817495 -0.00236588 0.142142)
(0.000728097 -0.00224571 0.103917)
(-0.000653286 -0.00363227 0.369117)
(0.000347569 -0.00320451 0.316042)
(0.00104074 -0.00290523 0.271037)
(0.00146939 -0.00275216 0.232645)
(0.00166994 -0.00272841 0.199561)
(0.00170201 -0.00278588 0.170247)
(0.00159729 -0.00286004 0.141963)
(0.00148564 -0.00270802 0.105448)
(0.00057254 -0.00391797 0.334976)
(0.00136056 -0.003442 0.293463)
(0.00192289 -0.00313218 0.256426)
(0.0022919 -0.00298252 0.223837)
(0.00250246 -0.0029631 0.195079)
(0.00259058 -0.00302107 0.169039)
(0.0025605 -0.00309539 0.143307)
(0.0024466 -0.0029085 0.109153)
(-0.00284139 0.00361966 0.346575)
(-0.00104837 0.00242479 0.305443)
(3.19594e-05 0.001704 0.269302)
(0.000647392 0.00130379 0.237765)
(0.000945295 0.00111983 0.209984)
(0.00103098 0.00106054 0.184727)
(0.000966453 0.00107588 0.159457)
(0.00103905 0.00100618 0.124793)
(-0.00526354 0.00240759 0.376968)
(-0.00250261 0.00140089 0.323572)
(-0.000846892 0.000805827 0.279281)
(1.83466e-05 0.000478348 0.241884)
(0.000405018 0.000314088 0.209704)
(0.000484361 0.000268847 0.181052)
(0.000377168 0.000288241 0.153114)
(0.000398525 0.000209024 0.116408)
(-0.00640456 0.000194771 0.397593)
(-0.00325447 -0.000130047 0.336211)
(-0.00134392 -0.000318031 0.286056)
(-0.000286414 -0.000431325 0.244404)
(0.000194947 -0.000518344 0.209088)
(0.000300891 -0.000568147 0.178118)
(0.000178514 -0.000592553 0.148442)
(0.000205481 -0.000659754 0.110287)
(-0.00616347 -0.00205495 0.402921)
(-0.00312542 -0.00165555 0.338851)
(-0.00121239 -0.00146271 0.286708)
(-0.000133097 -0.00138474 0.243593)
(0.000367385 -0.00138212 0.207223)
(0.000477747 -0.0014156 0.175482)
(0.000353792 -0.00145216 0.145255)
(0.000380473 -0.00142244 0.106701)
(-0.00529584 -0.00385227 0.390911)
(-0.00239967 -0.00286423 0.330065)
(-0.000656193 -0.00238038 0.2803)
(0.000334405 -0.00215159 0.238903)
(0.000787416 -0.00208193 0.203764)
(0.000895109 -0.00210312 0.172916)
(0.00079024 -0.00214428 0.143367)
(0.00080926 -0.00201133 0.105475)
(-0.00347683 -0.0050561 0.364666)
(-0.00110273 -0.00368167 0.31209)
(0.000310137 -0.00299553 0.268349)
(0.00108642 -0.00265675 0.231285)
(0.00144561 -0.0025537 0.199287)
(0.00154965 -0.00257947 0.170758)
(0.00148337 -0.0026369 0.142983)
(0.00148034 -0.00244452 0.106743)
(-0.00112194 -0.00532728 0.33035)
(0.000392581 -0.00403693 0.28974)
(0.00140398 -0.00334384 0.25397)
(0.00196763 -0.00299872 0.222566)
(0.00227335 -0.00288072 0.194751)
(0.00240764 -0.00288563 0.169379)
(0.0024012 -0.00292166 0.144068)
(0.00237282 -0.00265242 0.110112)
(0.00391695 -0.000688973 0.340611)
(0.00416664 -0.00112009 0.301798)
(0.00414335 -0.0011318 0.267905)
(0.00377357 -0.000886961 0.238081)
(0.00321679 -0.000486214 0.211509)
(0.00256547 -3.61376e-05 0.187041)
(0.00190666 0.000406442 0.162172)
(0.00143481 0.000730522 0.127585)
(0.00373637 -0.000604537 0.369687)
(0.00455105 -0.00133631 0.318993)
(0.00451641 -0.00141225 0.277262)
(0.0040481 -0.00125819 0.241854)
(0.0032957 -0.000961893 0.211091)
(0.00242021 -0.000603378 0.183391)
(0.00154608 -0.00025019 0.156014)
(0.000877958 -1.41982e-05 0.119475)
(0.00380569 -0.000866093 0.389891)
(0.00492002 -0.00123208 0.331003)
(0.00500797 -0.00126168 0.283518)
(0.00452314 -0.00122179 0.244028)
(0.00366695 -0.00112262 0.210293)
(0.00263692 -0.000987724 0.180396)
(0.00159473 -0.000847566 0.151371)
(0.000785901 -0.000741484 0.113445)
(0.00395127 -0.00111033 0.394995)
(0.005199 -0.000954114 0.333399)
(0.00531164 -0.000935421 0.283963)
(0.00484101 -0.00099916 0.243068)
(0.0039683 -0.00109734 0.20831)
(0.00290613 -0.00119649 0.177669)
(0.00182365 -0.00127397 0.148107)
(0.000971958 -0.0012724 0.109789)
(0.00416992 -0.00113677 0.382882)
(0.00518974 -0.000569847 0.324728)
(0.00528272 -0.000537386 0.277662)
(0.00483285 -0.000709882 0.238396)
(0.0040377 -0.000993513 0.204786)
(0.00307779 -0.00130751 0.174973)
(0.00209767 -0.00158255 0.146041)
(0.001311 -0.00167065 0.108352)
(0.00438096 -0.000962508 0.357187)
(0.00506931 -0.000214849 0.307399)
(0.00507415 -0.000231083 0.266165)
(0.00466919 -0.000516723 0.230986)
(0.00402635 -0.000954063 0.200321)
(0.00326728 -0.00143436 0.172674)
(0.00249221 -0.00185836 0.145407)
(0.00183548 -0.00201323 0.109292)
(0.0047246 -0.00060081 0.324329)
(0.00501682 -0.000155688 0.286085)
(0.0050131 -0.000249965 0.252396)
(0.00470779 -0.000600739 0.222545)
(0.00425591 -0.0010902 0.195813)
(0.00372142 -0.00161942 0.171137)
(0.00315486 -0.0020794 0.146192)
(0.00259666 -0.00219886 0.112248)
(0.0149197 -0.00865875 0.342388)
(0.0124984 -0.00720414 0.305829)
(0.0104838 -0.00582365 0.273586)
(0.00861772 -0.00448769 0.244904)
(0.00683945 -0.00318892 0.219128)
(0.00513572 -0.00195711 0.195165)
(0.00355695 -0.000788991 0.170504)
(0.00220011 0.000263795 0.135889)
(0.0190452 -0.00715428 0.369751)
(0.0156315 -0.00612539 0.321973)
(0.0127419 -0.0050429 0.282273)
(0.0101955 -0.00399897 0.248257)
(0.00782485 -0.00296605 0.218477)
(0.00560918 -0.0019822 0.191441)
(0.00356996 -0.00106363 0.16443)
(0.00179913 -0.00025771 0.127957)
(0.0221082 -0.00396063 0.388857)
(0.0183108 -0.00354701 0.333205)
(0.0149128 -0.0030966 0.288008)
(0.0118503 -0.00265769 0.250089)
(0.00899559 -0.00218453 0.217465)
(0.00633375 -0.00171272 0.188329)
(0.00389048 -0.00125681 0.159737)
(0.00176877 -0.000820395 0.12193)
(0.0228415 6.59829e-05 0.393626)
(0.0191003 -0.000181654 0.335297)
(0.0156386 -0.00043729 0.288213)
(0.0124775 -0.000680209 0.248932)
(0.00951144 -0.0008841 0.215316)
(0.0067358 -0.00104388 0.185459)
(0.00418119 -0.00115408 0.156349)
(0.00195368 -0.00116809 0.118172)
(0.0213213 0.00391751 0.381718)
(0.0178134 0.00300514 0.326793)
(0.0146697 0.00210969 0.281963)
(0.0118158 0.00124079 0.244223)
(0.00914315 0.000413647 0.211697)
(0.00662964 -0.000332852 0.182632)
(0.00430023 -0.000972974 0.154135)
(0.00224224 -0.00140769 0.116593)
(0.0179829 0.00663707 0.357071)
(0.0150306 0.00517741 0.310132)
(0.0125462 0.00381903 0.270801)
(0.0103171 0.00250245 0.236939)
(0.00822692 0.00125582 0.207219)
(0.00623966 0.00011149 0.180231)
(0.00437541 -0.000896069 0.153349)
(0.00267839 -0.00162859 0.117369)
(0.0143621 0.00761318 0.325971)
(0.0123864 0.00599092 0.289787)
(0.010643 0.00449348 0.257559)
(0.00905607 0.00305008 0.22875)
(0.00752587 0.00166574 0.202775)
(0.00604712 0.000370814 0.178621)
(0.00462888 -0.000778506 0.153971)
(0.00324372 -0.00158861 0.120095)
(0.0197177 -0.0131477 0.347684)
(0.0169103 -0.011024 0.311778)
(0.0145277 -0.0093047 0.279626)
(0.0123127 -0.00761192 0.250985)
(0.00999349 -0.00585456 0.2252)
(0.00757356 -0.00403774 0.201044)
(0.00534108 -0.00234707 0.175746)
(0.00267624 -0.000305473 0.139413)
(0.0250181 -0.0110338 0.374095)
(0.0208355 -0.00913132 0.327587)
(0.0175311 -0.00774798 0.288244)
(0.0146091 -0.00641859 0.254416)
(0.0116859 -0.00507249 0.224778)
(0.00870301 -0.0037055 0.197731)
(0.0059649 -0.00245623 0.170278)
(0.00259714 -0.000881625 0.132153)
(0.0296927 -0.00602758 0.392328)
(0.0245315 -0.00516593 0.338493)
(0.0204991 -0.00458675 0.293874)
(0.0169223 -0.00398779 0.256229)
(0.0134496 -0.00333977 0.223813)
(0.00996574 -0.00265903 0.194738)
(0.00679711 -0.00202025 0.165775)
(0.00287548 -0.00114202 0.126314)
(0.03088 0.000598974 0.396802)
(0.0256709 0.00013511 0.340416)
(0.0214951 -0.000243345 0.293934)
(0.0177732 -0.000547749 0.254925)
(0.0141629 -0.000778166 0.221512)
(0.0105448 -0.000947425 0.191713)
(0.00726148 -0.00105165 0.162223)
(0.00316077 -0.00103783 0.122349)
(0.0285905 0.00682037 0.385188)
(0.0238567 0.00515369 0.331837)
(0.0201336 0.00394113 0.287449)
(0.0167948 0.00281681 0.24992)
(0.0135145 0.00177643 0.217543)
(0.0101843 0.00081266 0.188467)
(0.00714711 1.31803e-05 0.159505)
(0.00329244 -0.000801001 0.120158)
(0.023622 0.0109276 0.361162)
(0.0200283 0.00852089 0.315119)
(0.0171779 0.00678267 0.275987)
(0.0145851 0.00513622 0.242234)
(0.0119389 0.00355734 0.212572)
(0.00918246 0.00203168 0.185458)
(0.00663908 0.00072485 0.15797)
(0.00335306 -0.000726984 0.120061)
(0.0188792 0.0122927 0.330533)
(0.0165499 0.00999329 0.294668)
(0.0144827 0.0081266 0.262437)
(0.0125538 0.0063064 0.2336)
(0.0104837 0.00444381 0.207529)
(0.00829822 0.00257185 0.18307)
(0.00624665 0.000947995 0.15762)
(0.00357628 -0.000826979 0.121663)
(0.0196146 -0.0138637 0.350646)
(0.019428 -0.013463 0.317354)
(0.0189241 -0.0131641 0.288803)
(0.0181374 -0.0125921 0.26499)
(0.0167805 -0.0116308 0.245481)
(0.0147152 -0.01013 0.229773)
(0.0117348 -0.00788928 0.217551)
(0.00691992 -0.00420443 0.207984)
(0.0228243 -0.0111056 0.375516)
(0.0223503 -0.0101949 0.331474)
(0.0219116 -0.00980866 0.295608)
(0.0210782 -0.00925061 0.266523)
(0.0196722 -0.00850606 0.243148)
(0.0174209 -0.00740139 0.224641)
(0.0140323 -0.00576312 0.21059)
(0.00836448 -0.00301145 0.200806)
(0.0262295 -0.00619297 0.392765)
(0.0252082 -0.00576421 0.341333)
(0.0244134 -0.00565724 0.300028)
(0.0233295 -0.00542882 0.26696)
(0.0217253 -0.00513275 0.240688)
(0.0192271 -0.00467301 0.220114)
(0.0154607 -0.00395134 0.204694)
(0.00907863 -0.00263944 0.194525)
(0.0273778 0.000472561 0.397135)
(0.0262219 5.23759e-05 0.342957)
(0.0253303 -0.00030777 0.299678)
(0.0241779 -0.000610393 0.265163)
(0.0225221 -0.000892499 0.237829)
(0.0199727 -0.00116379 0.216497)
(0.0161365 -0.00142425 0.200592)
(0.00956493 -0.00163979 0.190391)
(0.0255921 0.00673778 0.385827)
(0.0248491 0.00567782 0.334691)
(0.024201 0.00493501 0.293577)
(0.0232365 0.0041737 0.260597)
(0.0217259 0.00337849 0.234325)
(0.0193487 0.00244704 0.213707)
(0.0157549 0.00128749 0.198271)
(0.00954565 -0.000368675 0.188367)
(0.0222118 0.0109498 0.362638)
(0.0220557 0.00976099 0.318981)
(0.0217438 0.00893643 0.283336)
(0.0210351 0.00798707 0.254318)
(0.0197496 0.00687049 0.230882)
(0.0176731 0.00543947 0.212263)
(0.0145413 0.0035409 0.198177)
(0.00912966 0.000631466 0.188889)
(0.019393 0.0133642 0.333421)
(0.0192671 0.0127082 0.30018)
(0.0189127 0.0120876 0.271631)
(0.0182231 0.0112156 0.247659)
(0.0170128 0.00999328 0.227876)
(0.0151653 0.00830586 0.211875)
(0.0124626 0.00600175 0.19954)
(0.00785892 0.00240123 0.190656)
(0.00350038 -0.00255597 0.46818)
(0.00296181 -0.000897177 0.416609)
(0.00234613 0.00015193 0.370888)
(0.00193513 0.000739086 0.330858)
(0.00174861 0.00114739 0.295797)
(0.00169356 0.00148487 0.264232)
(0.0017174 0.00173558 0.232885)
(0.00164932 0.00193719 0.189783)
(0.00378446 -0.00305109 0.537408)
(0.0040454 -0.00191627 0.46895)
(0.00305877 -0.00112696 0.411285)
(0.00211853 -0.00063409 0.362115)
(0.00142831 -0.000151986 0.320125)
(0.00104469 0.000385652 0.28331)
(0.000902424 0.000933823 0.247805)
(0.000835621 0.00155622 0.200396)
(0.00339106 -0.00277671 0.595409)
(0.00504383 -0.00215134 0.512134)
(0.00432157 -0.00165635 0.444678)
(0.00304842 -0.00125218 0.387867)
(0.00188359 -0.000845633 0.340039)
(0.00103261 -0.000362392 0.298816)
(0.000525569 0.000150637 0.259904)
(0.00017897 0.000767191 0.209035)
(0.00354375 -0.00293356 0.624265)
(0.00568827 -0.00230415 0.532039)
(0.00503579 -0.00173215 0.460529)
(0.00371957 -0.00126453 0.400533)
(0.00232118 -0.000922409 0.350241)
(0.00120486 -0.000706695 0.307047)
(0.000486383 -0.000579091 0.266657)
(-4.01311e-05 -0.00049995 0.21429)
(0.00417583 -0.00256489 0.60677)
(0.00583805 -0.00197167 0.521735)
(0.0050341 -0.00138287 0.453563)
(0.00360311 -0.000915502 0.396033)
(0.00229344 -0.000701226 0.347551)
(0.00132232 -0.00080126 0.305773)
(0.000748404 -0.00108952 0.266369)
(0.000363115 -0.00157655 0.21486)
(0.00474293 -0.00118108 0.556554)
(0.00497896 -0.00113274 0.48648)
(0.00380613 -0.00107307 0.427604)
(0.00261864 -0.000878238 0.377238)
(0.00176615 -0.000887858 0.334204)
(0.00127995 -0.00114525 0.296509)
(0.00111468 -0.00154165 0.260191)
(0.00106876 -0.00212518 0.211641)
(0.00405067 -8.13016e-05 0.49185)
(0.00335017 -0.000988783 0.439232)
(0.00259246 -0.00160051 0.392283)
(0.00207299 -0.0017732 0.351061)
(0.00182181 -0.00188952 0.314985)
(0.00177035 -0.00201557 0.282542)
(0.00184084 -0.00212122 0.250315)
(0.00183146 -0.00224201 0.205777)
(0.00806583 -0.00684046 0.46208)
(0.00590039 -0.00311644 0.408646)
(0.00426517 -0.00116816 0.363422)
(0.00322077 -0.000240958 0.324538)
(0.00268862 0.000466979 0.290743)
(0.00235508 0.00105982 0.260299)
(0.00213412 0.0015051 0.229841)
(0.00175303 0.00192711 0.187469)
(0.0120522 -0.00871038 0.539383)
(0.00926383 -0.00469005 0.462381)
(0.0060889 -0.00278553 0.403226)
(0.00387068 -0.00168589 0.354686)
(0.0024984 -0.000618682 0.313997)
(0.00176884 0.000365456 0.278525)
(0.00141653 0.0011911 0.244157)
(0.00105956 0.00200112 0.19775)
(0.0151713 -0.00748701 0.607245)
(0.0132501 -0.00452058 0.50865)
(0.00912288 -0.00305157 0.436967)
(0.00556087 -0.00204023 0.379794)
(0.00310961 -0.00111973 0.333049)
(0.00160656 -0.000260387 0.293269)
(0.000817732 0.000466891 0.255687)
(0.0001804 0.00119955 0.206073)
(0.0170906 -0.00416554 0.637274)
(0.0155519 -0.00263327 0.530417)
(0.0109376 -0.00167013 0.453484)
(0.00672425 -0.00105575 0.392472)
(0.0036579 -0.00071069 0.343002)
(0.00169316 -0.000554658 0.301267)
(0.000647104 -0.00049926 0.262263)
(-0.000179032 -0.000497571 0.211245)
(0.0171774 0.000607901 0.621315)
(0.0149107 0.000168893 0.520485)
(0.0102779 0.000352606 0.44698)
(0.00628717 0.000396445 0.388525)
(0.00355045 3.94423e-05 0.340879)
(0.0018781 -0.000598066 0.300451)
(0.00102474 -0.00127608 0.262351)
(0.00036669 -0.00205399 0.212088)
(0.0142752 0.00458939 0.564285)
(0.010895 0.00208497 0.4826)
(0.00710281 0.00114874 0.420937)
(0.00439887 0.000762322 0.370542)
(0.00279007 3.01122e-05 0.328534)
(0.00197107 -0.000876386 0.292093)
(0.00164378 -0.00174394 0.256911)
(0.00135931 -0.00268888 0.209387)
(0.0094453 0.00508184 0.489652)
(0.00667291 0.00177532 0.433232)
(0.00467076 0.000149147 0.385874)
(0.00341009 -0.000403231 0.345388)
(0.00278725 -0.000920193 0.310424)
(0.00248653 -0.00142453 0.27909)
(0.00234069 -0.00184731 0.247802)
(0.00204837 -0.00230923 0.204057)
(0.00417407 -0.000614104 0.448047)
(0.00266178 0.00149615 0.396795)
(0.00160194 0.00222436 0.354746)
(0.00122308 0.00241462 0.318556)
(0.00117991 0.00250859 0.286836)
(0.00129225 0.00249705 0.257888)
(0.00147208 0.00241137 0.228455)
(0.00144914 0.00236331 0.186781)
(0.00564794 -0.00275324 0.527454)
(0.00251347 0.000436203 0.447701)
(0.000674795 0.00143701 0.391765)
(-0.000257474 0.00197534 0.346673)
(-0.000356696 0.00242787 0.308761)
(-6.31766e-05 0.00271736 0.275328)
(0.000415279 0.00287586 0.242392)
(0.000716951 0.00297858 0.197061)
(0.00715441 -0.00390561 0.608848)
(0.00261612 -0.000957397 0.494372)
(-0.000272346 0.000235201 0.423736)
(-0.00191896 0.000877559 0.370128)
(-0.00235754 0.00139114 0.326652)
(-0.00203259 0.00172143 0.289384)
(-0.00132139 0.00192457 0.253597)
(-0.000689818 0.00206828 0.205381)
(0.00828929 -0.00283907 0.649252)
(0.00322723 -0.00142743 0.518114)
(-0.000222552 -0.000746 0.43998)
(-0.00246509 -0.000415524 0.382267)
(-0.00318256 -0.000328679 0.336149)
(-0.00292788 -0.000357727 0.297124)
(-0.00214869 -0.000424469 0.260069)
(-0.00138558 -0.000493893 0.210583)
(0.00873333 -0.000439583 0.631379)
(0.00364634 -0.00110563 0.508142)
(0.000324648 -0.00126225 0.434086)
(-0.00164567 -0.00142683 0.378939)
(-0.00226078 -0.00188748 0.334517)
(-0.00196976 -0.00233801 0.296632)
(-0.00122157 -0.00271355 0.260391)
(-0.000528336 -0.00302523 0.211582)
(0.00720108 0.00105509 0.557934)
(0.00334217 -0.00136918 0.46896)
(0.00105049 -0.00189385 0.409694)
(-0.000121948 -0.00222416 0.362573)
(-0.000300989 -0.00276934 0.32338)
(6.5405e-05 -0.00323463 0.289078)
(0.000658414 -0.00360369 0.255436)
(0.00109767 -0.00391748 0.209074)
(0.00545591 0.000400817 0.476891)
(0.00343785 -0.00176663 0.421429)
(0.0020927 -0.00238979 0.377069)
(0.00152882 -0.00252403 0.33937)
(0.00145901 -0.00267361 0.306628)
(0.00161252 -0.00276587 0.276958)
(0.00185966 -0.00280951 0.246848)
(0.00191721 -0.00290786 0.20391)
(-0.00776925 0.0130884 0.439675)
(-0.00648586 0.010498 0.393299)
(-0.00526836 0.00857016 0.354501)
(-0.004029 0.00730786 0.32059)
(-0.00286965 0.00609656 0.290416)
(-0.00169305 0.00489343 0.262465)
(-0.00055305 0.00377861 0.23363)
(0.000433331 0.00274217 0.192307)
(-0.0134397 0.0124037 0.510522)
(-0.0124208 0.0101832 0.439653)
(-0.0102707 0.00868232 0.389021)
(-0.00805435 0.00769049 0.34737)
(-0.00589343 0.00659906 0.311695)
(-0.00385902 0.00545448 0.279657)
(-0.00194198 0.00439251 0.247561)
(-0.000272365 0.00339718 0.20275)
(-0.0194082 0.00759245 0.584571)
(-0.0199965 0.00678544 0.482626)
(-0.0174698 0.00608858 0.418859)
(-0.0141949 0.00546275 0.369814)
(-0.0107785 0.00471402 0.329218)
(-0.00750669 0.00388746 0.293711)
(-0.00447356 0.00312672 0.258962)
(-0.00179828 0.00243385 0.211365)
(-0.0216771 0.0010802 0.624841)
(-0.02339 0.000918148 0.505049)
(-0.0210319 0.000677155 0.434333)
(-0.0173356 0.000324704 0.381521)
(-0.0133211 -2.8471e-06 0.338553)
(-0.00942901 -0.000252037 0.301482)
(-0.00581448 -0.000430827 0.265588)
(-0.0026156 -0.000536521 0.216789)
(-0.0201953 -0.00561053 0.608869)
(-0.0210778 -0.00517823 0.496349)
(-0.0184514 -0.00502496 0.429073)
(-0.0149467 -0.00504623 0.378542)
(-0.0112371 -0.00490043 0.337094)
(-0.007714 -0.00451857 0.301107)
(-0.00447709 -0.00407447 0.265983)
(-0.00163686 -0.00356481 0.217846)
(-0.0149618 -0.0112005 0.540677)
(-0.0138596 -0.00944512 0.460381)
(-0.0113122 -0.00832126 0.406439)
(-0.0086569 -0.00775661 0.36306)
(-0.00613309 -0.00709152 0.326349)
(-0.00380198 -0.0062526 0.293636)
(-0.0016587 -0.00542837 0.260968)
(0.00020762 -0.00458726 0.21521)
(-0.00797456 -0.0125312 0.467381)
(-0.00647611 -0.0101273 0.416893)
(-0.00510803 -0.00829086 0.376186)
(-0.00374723 -0.00723347 0.341126)
(-0.00248364 -0.0062488 0.310235)
(-0.00123574 -0.00524487 0.281786)
(-2.44252e-05 -0.00431265 0.252428)
(0.00103795 -0.00343313 0.20992)
(-0.015087 0.0190712 0.43963)
(-0.0127282 0.0149156 0.396631)
(-0.0107466 0.0124496 0.35884)
(-0.0089764 0.0105968 0.325528)
(-0.00711287 0.00861852 0.295771)
(-0.00504398 0.00659806 0.268095)
(-0.00302489 0.00478314 0.239302)
(-0.000529746 0.00271522 0.197395)
(-0.0223829 0.0186568 0.498187)
(-0.0190214 0.0140088 0.440154)
(-0.0156768 0.0117743 0.392764)
(-0.0128239 0.0101209 0.352393)
(-0.0101315 0.0082688 0.317471)
(-0.00732503 0.00641739 0.28597)
(-0.00462891 0.00481447 0.254203)
(-0.00132718 0.00307387 0.209156)
(-0.0307331 0.0130528 0.547533)