/*--------------------------------*- C++ -*----------------------------------*\
| =========                 |                                                 |
| \\      /  F ield         | OpenFOAM: The Open Source CFD Toolbox           |
|  \\    /   O peration     | Version:  plus.master.MPPICInterFoam            |
|   \\  /    A nd           | Web:      www.OpenFOAM.com                      |
|    \\/     M anipulation  |                                                 |
\*---------------------------------------------------------------------------*/
FoamFile
{
    version     2.0;
    format      ascii;
    class       volVectorField;
    location    "9.6";
    object      U;
}
// * * * * * * * * * * * * * * * * * * * * * * * * * * * * * * * * * * * * * //

dimensions      [0 1 -1 0 0 0 0];

internalField   nonuniform List<vector> 
11822
(
(0.000950066 -0.00621798 0.528195)
(0.00156045 -0.0056046 0.528519)
(0.00179535 -0.00456138 0.504169)
(0.00182158 -0.00375415 0.461539)
(0.00184671 -0.00345293 0.408938)
(0.00201593 -0.00339441 0.353641)
(0.00222731 -0.00323957 0.299477)
(0.00102051 -0.00717556 0.63706)
(0.00172821 -0.00626571 0.644792)
(0.00175369 -0.0049823 0.60821)
(0.0017254 -0.00444049 0.538698)
(0.00190129 -0.00412846 0.464909)
(0.00219653 -0.0040999 0.39538)
(0.00245892 -0.00393074 0.33163)
(0.000644381 -0.00790198 0.766227)
(0.00362536 -0.00679302 0.809136)
(0.00323172 -0.00433588 0.745111)
(0.00353904 -0.00490665 0.625511)
(0.00333353 -0.00461577 0.517794)
(0.00315682 -0.00452795 0.431107)
(0.00319401 -0.00432835 0.357745)
(0.00222226 -0.0087626 0.844288)
(0.00595655 -0.00769091 0.910771)
(0.00260315 -0.00440677 0.826408)
(0.00430328 -0.00506734 0.695933)
(0.00450095 -0.00468445 0.55499)
(0.00416447 -0.00446495 0.454546)
(0.0040078 -0.00433685 0.37444)
(0.0013677 -0.00598713 0.838718)
(0.00690161 -0.00667001 0.895284)
(0.0053947 -0.00532798 0.850272)
(0.00481224 -0.00498428 0.711977)
(0.00521485 -0.00429992 0.564394)
(0.00491543 -0.00401871 0.460505)
(0.00466343 -0.00402249 0.378856)
(-0.00168049 -0.00173337 0.814245)
(0.00426139 -0.00606434 0.862403)
(0.00559459 -0.00454641 0.799471)
(0.00603157 -0.00344636 0.665365)
(0.00571297 -0.00320013 0.542359)
(0.00525254 -0.00319006 0.447262)
(0.00504602 -0.00347998 0.370168)
(0.00134324 -0.000922017 0.681222)
(0.00272822 -0.00303414 0.702922)
(0.00293784 -0.00139545 0.665504)
(0.00401529 -0.0016802 0.583039)
(0.0045018 -0.00220206 0.495853)
(0.00485185 -0.0024919 0.418755)
(0.00509171 -0.00302494 0.349922)
(0.00186647 -0.00111026 0.527686)
(0.00107078 -0.000399386 0.528406)
(0.000546332 2.02622e-05 0.504285)
(9.8627e-05 -0.00025815 0.461641)
(0.000234268 -0.00108772 0.409101)
(0.000750005 -0.00180017 0.354084)
(0.0012644 -0.00212812 0.300472)
(0.00188872 0.000512218 0.637963)
(0.000162384 -2.28071e-05 0.64576)
(-0.000644695 0.000376945 0.610044)
(-0.00143972 -0.000258836 0.539685)
(-0.000987881 -0.00142343 0.465157)
(0.000109338 -0.00240196 0.395373)
(0.00100257 -0.00282059 0.332024)
(0.000493899 0.0017149 0.769583)
(-0.000668555 -0.00013417 0.811353)
(-0.000113086 0.000826539 0.749942)
(-0.00115493 -0.000990717 0.627725)
(-0.00104404 -0.00224973 0.518311)
(0.000152986 -0.00308521 0.430627)
(0.00121921 -0.00338801 0.357545)
(-0.000920538 -0.000463481 0.848967)
(-0.00180937 -0.0018806 0.933121)
(0.000793096 -0.0024295 0.848493)
(-0.00129616 -0.00276909 0.698746)
(-0.000930704 -0.00336552 0.555028)
(0.000499823 -0.00367204 0.453443)
(0.00162945 -0.00376618 0.373648)
(-0.00278349 -0.0070797 0.826768)
(-0.00397066 -0.00758974 0.917974)
(-0.00195208 -0.00675714 0.869516)
(-0.00217715 -0.00566176 0.709753)
(-0.000709096 -0.00462843 0.562844)
(0.000900871 -0.00413376 0.458527)
(0.00209093 -0.00396067 0.377488)
(-0.00126322 -0.0122388 0.806464)
(-0.00145372 -0.0132866 0.858627)
(-0.0002702 -0.00918905 0.795182)
(-0.000361984 -0.00727289 0.662678)
(7.06728e-05 -0.00529992 0.539526)
(0.00152289 -0.0042454 0.444603)
(0.00257983 -0.00394726 0.368373)
(0.00249957 -0.00842009 0.677087)
(0.000485034 -0.00964457 0.69837)
(-0.000677278 -0.00743924 0.66159)
(-0.000384612 -0.00658497 0.578949)
(0.000584383 -0.00511066 0.492152)
(0.00201087 -0.00413021 0.415731)
(0.00307355 -0.00389128 0.347944)
(0.0023604 -0.00159815 0.526082)
(0.00153211 -0.000257188 0.527148)
(0.00094394 -0.000278256 0.50322)
(0.000762302 -0.000532007 0.46031)
(0.00103208 -0.00127532 0.407864)
(0.00157952 -0.00190228 0.353412)
(0.00206309 -0.00214122 0.300642)
(0.00254072 -0.000329453 0.643556)
(0.000366987 0.000166579 0.64947)
(-0.000734065 -0.00029172 0.615654)
(-0.00100629 -0.000360364 0.540928)
(-0.000239166 -0.00148931 0.463832)
(0.000975 -0.00241111 0.393965)
(0.00187208 -0.00275935 0.331473)
(9.96471e-05 0.000153192 0.793302)
(-0.0014849 -0.000846131 0.813787)
(-0.000458162 -0.00173356 0.758029)
(-0.00102603 -0.00129859 0.635469)
(-0.000535758 -0.00221935 0.517803)
(0.00102057 -0.00304834 0.428583)
(0.00211338 -0.00326687 0.356311)
(-0.00314881 -0.00102408 0.899549)
(-0.00304295 -0.00302904 0.897567)
(0.000601811 -0.00471184 0.860705)
(-0.000983432 -0.00318622 0.710526)
(-0.000285654 -0.00335196 0.555325)
(0.00133744 -0.00359771 0.450793)
(0.00252963 -0.00359785 0.371803)
(-0.00449603 -0.00657556 0.935171)
(-0.00386002 -0.00701585 0.92897)
(-0.00103027 -0.00692513 0.878778)
(-0.00117985 -0.00604682 0.724341)
(-3.99146e-05 -0.00473474 0.562098)
(0.00172397 -0.00402785 0.455207)
(0.00293411 -0.00374575 0.375123)
(-0.00231942 -0.0101681 0.816938)
(-0.00202872 -0.0122698 0.857293)
(0.000747917 -0.00826573 0.800929)
(0.000317575 -0.0075776 0.666888)
(0.000767668 -0.00542014 0.536355)
(0.00228365 -0.00412706 0.440692)
(0.00332291 -0.00369247 0.365673)
(0.00267082 -0.00740545 0.672144)
(0.00056011 -0.00995175 0.693398)
(-0.000592415 -0.0075628 0.659705)
(0.000151449 -0.00667129 0.575712)
(0.00126237 -0.00508109 0.48713)
(0.00269398 -0.00394288 0.411522)
(0.00366856 -0.00358196 0.345171)
(0.00193223 -0.00582127 0.524588)
(0.00228912 -0.00454546 0.526264)
(0.00263565 -0.00464551 0.502243)
(0.00330583 -0.00397339 0.4593)
(0.00375453 -0.00357017 0.407492)
(0.00405333 -0.00339131 0.353954)
(0.00425847 -0.00305519 0.302231)
(0.00208912 -0.00583887 0.644308)
(0.00160318 -0.00445166 0.656186)
(0.00153977 -0.00520844 0.618248)
(0.00274087 -0.00425721 0.540312)
(0.00364419 -0.00383704 0.462701)
(0.00426763 -0.00380858 0.393637)
(0.00462227 -0.00350916 0.332301)
(-0.000316127 -0.00697632 0.797169)
(0.000308305 -0.00497749 0.82231)
(0.00203651 -0.00733709 0.767344)
(0.00363362 -0.00489832 0.637064)
(0.00457431 -0.00413265 0.516257)
(0.00509615 -0.00407056 0.427431)
(0.00533594 -0.00375313 0.356445)
(-0.00219899 -0.00686514 0.895964)
(-0.00110309 -0.00636009 0.907997)
(0.00157561 -0.00796207 0.866164)
(0.0039516 -0.00542373 0.712607)
(0.00553091 -0.00427044 0.553729)
(0.00592591 -0.00394729 0.448919)
(0.00603965 -0.00364946 0.371342)
(-0.00281767 -0.0045062 0.907205)
(-0.00104982 -0.00619751 0.916642)
(0.000829407 -0.00565579 0.880677)
(0.00414024 -0.00527121 0.722986)
(0.00613142 -0.00415008 0.55998)
(0.00637957 -0.00350776 0.452743)
(0.00644449 -0.0032594 0.374201)
(-0.0032179 -0.00246246 0.81935)
(-0.00012786 -0.00753193 0.852024)
(0.00373662 -0.00316862 0.798234)
(0.00535534 -0.00383826 0.663439)
(0.00604169 -0.00340632 0.532145)
(0.00639502 -0.00279908 0.437814)
(0.00647025 -0.00270564 0.364477)
(0.0019389 -0.00189369 0.665022)
(0.00176583 -0.00516393 0.688584)
(0.00181551 -0.00226652 0.653404)
(0.00397907 -0.00251124 0.569331)
(0.00518114 -0.00240176 0.482298)
(0.00587069 -0.00210015 0.408581)
(0.00614989 -0.00218377 0.343988)
(0.000684082 -0.010368 0.522046)
(0.00290361 -0.00962937 0.523668)
(0.00466127 -0.00921258 0.50007)
(0.00632742 -0.00767007 0.457535)
(0.00726248 -0.00642893 0.406344)
(0.00786997 -0.00577236 0.353301)
(0.00840166 -0.00513886 0.301993)
(0.000753216 -0.0106897 0.63949)
(0.00276386 -0.0090615 0.651691)
(0.00465512 -0.00977178 0.613051)
(0.00706223 -0.00788708 0.537328)
(0.008126 -0.00635894 0.461)
(0.00864504 -0.00570198 0.392644)
(0.00908361 -0.00504227 0.331844)
(-0.00124654 -0.00935655 0.79359)
(0.00179526 -0.00700263 0.816744)
(0.00544438 -0.0107135 0.759413)
(0.0089902 -0.00764141 0.630834)
(0.0101274 -0.00591872 0.513648)
(0.0100579 -0.00523876 0.42593)
(0.0100781 -0.00460496 0.355691)
(-0.00139657 -0.00693724 0.884505)
(0.000400607 -0.00636848 0.886204)
(0.00393771 -0.00966632 0.841521)
(0.00956303 -0.00663364 0.699299)
(0.0117575 -0.00481761 0.549242)
(0.0112862 -0.00416918 0.446743)
(0.0109492 -0.00369404 0.370192)
(-0.00199731 -0.00423814 0.893913)
(-0.00149521 -0.00462693 0.912847)
(0.00265301 -0.00532153 0.845357)
(0.0103057 -0.00395405 0.703208)
(0.0125175 -0.00312723 0.554187)
(0.0117394 -0.0026352 0.449888)
(0.0113126 -0.0024241 0.372597)
(-0.00284325 -0.000827578 0.805525)
(0.00115099 -0.00246405 0.837685)
(0.00563455 -1.7672e-05 0.779989)
(0.0100027 -0.000369018 0.65185)
(0.011485 -0.000962558 0.526208)
(0.0112579 -0.000882644 0.434518)
(0.0110371 -0.00101088 0.36244)
(0.00013027 0.0024305 0.65451)
(0.00302704 0.00157692 0.675762)
(0.00525247 0.00230123 0.641098)
(0.00801576 0.00165281 0.56045)
(0.00940535 0.000835123 0.476775)
(0.00991406 0.000583946 0.405022)
(0.0101785 0.00025642 0.341605)
(-0.000943548 -0.0134484 0.518858)
(0.00326709 -0.0131236 0.520457)
(0.00637122 -0.0118139 0.497358)
(0.00872267 -0.00999666 0.455511)
(0.010311 -0.00880872 0.405122)
(0.0117116 -0.00822402 0.353166)
(0.0130647 -0.00756943 0.303576)
(-0.000475198 -0.0145755 0.628618)
(0.00469083 -0.0131662 0.643483)
(0.00803271 -0.0114502 0.606828)
(0.0101987 -0.00932992 0.534251)
(0.0114765 -0.00789884 0.459273)
(0.0126678 -0.00729131 0.391675)
(0.0139752 -0.00660262 0.332211)
(-0.00138158 -0.0134914 0.769684)
(0.00676436 -0.0107396 0.804565)
(0.011082 -0.00957944 0.746999)
(0.0129914 -0.00795391 0.62435)
(0.0137446 -0.00662041 0.511549)
(0.014176 -0.00600172 0.424442)
(0.0150192 -0.00534255 0.355311)
(0.00077754 -0.010689 0.873488)
(0.00945508 -0.00941466 0.892902)
(0.0127666 -0.00740426 0.824955)
(0.0146347 -0.00572517 0.685419)
(0.0156331 -0.00472692 0.546332)
(0.0154302 -0.00407582 0.444832)
(0.015854 -0.00356449 0.369318)
(0.00020045 -0.00339693 0.901582)
(0.0102882 -0.0045737 0.902291)
(0.01391 -0.00413702 0.803077)
(0.0159169 -0.00263564 0.684638)
(0.0164218 -0.00210028 0.550605)
(0.0158402 -0.00162394 0.447513)
(0.0160887 -0.00138267 0.371392)
(-0.00279004 0.00517754 0.782898)
(0.00684596 0.00333426 0.820007)
(0.0122744 0.000895675 0.761373)
(0.0143878 0.0013162 0.636832)
(0.0151531 0.00111003 0.521311)
(0.0150913 0.00111578 0.431547)
(0.0155436 0.000971627 0.36109)
(-0.00137293 0.00742054 0.636804)
(0.00474102 0.00726759 0.658289)
(0.00819976 0.00571992 0.62409)
(0.0106632 0.00471972 0.551083)
(0.0121477 0.00383586 0.471869)
(0.01321 0.00354823 0.402089)
(0.0141719 0.00321829 0.340721)
(0.00215042 -0.00294181 0.255169)
(0.00198335 -0.00254154 0.222498)
(0.00179011 -0.00211628 0.192466)
(0.00156662 -0.00167626 0.165322)
(0.00131747 -0.00122882 0.140878)
(0.00104712 -0.000793303 0.118504)
(0.000786021 -0.000364374 0.0965145)
(0.000628767 0.000136027 0.0669562)
(0.00239552 -0.00365758 0.278668)
(0.00214442 -0.00338236 0.237346)
(0.00183707 -0.00308856 0.201072)
(0.00145706 -0.00277919 0.16907)
(0.00101974 -0.00246136 0.140688)
(0.000549186 -0.00214273 0.114998)
(8.84266e-05 -0.00180952 0.0899305)
(-0.000232309 -0.00134511 0.0579942)
(0.00303542 -0.00412967 0.298052)
(0.00274402 -0.00397684 0.251177)
(0.00236912 -0.00382439 0.210445)
(0.00190546 -0.00366872 0.174911)
(0.00137317 -0.00350826 0.143718)
(0.000803916 -0.00333895 0.11578)
(0.00024757 -0.00313714 0.0888783)
(-0.000188204 -0.00276894 0.0551984)
(0.00377575 -0.00428253 0.311085)
(0.00349607 -0.00427376 0.261731)
(0.00311662 -0.00428933 0.218995)
(0.00264699 -0.00431904 0.181848)
(0.00210653 -0.00435074 0.149357)
(0.00152505 -0.00436688 0.120372)
(0.000946674 -0.00432142 0.092584)
(0.000445617 -0.00400215 0.057926)
(0.00442268 -0.00412547 0.315664)
(0.00420992 -0.00425038 0.26743)
(0.00390369 -0.00441745 0.225558)
(0.00351658 -0.00461555 0.189049)
(0.00306256 -0.0048206 0.157006)
(0.00256282 -0.00500206 0.128307)
(0.0020453 -0.00509331 0.100639)
(0.00152031 -0.00482156 0.0658076)
(0.00485476 -0.00375121 0.311402)
(0.0047468 -0.00399003 0.268016)
(0.00457482 -0.00426513 0.229904)
(0.00434582 -0.00457372 0.19625)
(0.00406135 -0.00488992 0.166372)
(0.00372828 -0.00517733 0.139291)
(0.00334865 -0.00536061 0.112787)
(0.00285056 -0.00514394 0.0786877)
(0.00512402 -0.00343091 0.299152)
(0.0051527 -0.00369684 0.264709)
(0.00514245 -0.00400108 0.232726)
(0.00510443 -0.0043305 0.203641)
(0.00502416 -0.00466489 0.17727)
(0.00489811 -0.00497129 0.152878)
(0.00470352 -0.00518436 0.128393)
(0.00429812 -0.00503942 0.0957159)
(0.00147564 -0.00206773 0.256818)
(0.00150959 -0.0018735 0.22471)
(0.0014892 -0.00156886 0.195199)
(0.00138285 -0.00122212 0.168504)
(0.00123379 -0.000855492 0.144431)
(0.00105314 -0.000497654 0.122359)
(0.000878684 -0.000156759 0.100637)
(0.000766518 0.000226261 0.0714597)
(0.00141955 -0.00276257 0.279766)
(0.00150057 -0.00271142 0.239136)
(0.00141904 -0.00250958 0.203495)
(0.00120522 -0.00226411 0.172031)
(0.000900509 -0.00199345 0.144082)
(0.000540545 -0.00171764 0.118719)
(0.000168246 -0.00143559 0.0938702)
(-8.21121e-05 -0.00106611 0.0620119)
(0.00172758 -0.00337749 0.298588)
(0.00186232 -0.0033679 0.252478)
(0.00177422 -0.00326795 0.212453)
(0.00152202 -0.00314288 0.177524)
(0.00115077 -0.00300062 0.146818)
(0.000709797 -0.00284688 0.119248)
(0.000255883 -0.0026651 0.0925903)
(-8.72662e-05 -0.00234388 0.059008)
(0.00220189 -0.00379505 0.311072)
(0.00240512 -0.00381153 0.262517)
(0.00235225 -0.00382552 0.220529)
(0.00212044 -0.0038401 0.184026)
(0.00175702 -0.00385151 0.152058)
(0.00131288 -0.00384858 0.123467)
(0.00084303 -0.00379206 0.0959487)
(0.000444309 -0.00349252 0.0614196)
(0.00269537 -0.00399594 0.315154)
(0.00298002 -0.00400507 0.26772)
(0.00300986 -0.00410466 0.226596)
(0.00286241 -0.00423308 0.190733)
(0.00258422 -0.00437354 0.159216)
(0.00221971 -0.00449763 0.130919)
(0.00180909 -0.00454486 0.103534)
(0.00138835 -0.00426374 0.0688589)
(0.00315703 -0.00400631 0.31051)
(0.00349422 -0.00399699 0.267871)
(0.00362651 -0.00413109 0.230458)
(0.00360697 -0.00431575 0.19741)
(0.003474 -0.00452519 0.168029)
(0.0032567 -0.00471947 0.141334)
(0.00296859 -0.00482644 0.11511)
(0.00256364 -0.00456272 0.0811926)
(0.00361198 -0.0039332 0.298059)
(0.00394405 -0.0039331 0.264216)
(0.00418185 -0.00404751 0.232823)
(0.00430369 -0.00421265 0.204265)
(0.0043421 -0.0044018 0.178336)
(0.00430424 -0.00458109 0.154299)
(0.00417779 -0.00468737 0.130095)
(0.00384409 -0.00446464 0.0976777)
(0.0021752 -0.00201834 0.257767)
(0.00212369 -0.00177903 0.226256)
(0.00201714 -0.00141397 0.19726)
(0.00180935 -0.00100123 0.170968)
(0.00154822 -0.000563736 0.147182)
(0.00125477 -0.000131976 0.125274)
(0.000997561 0.00025766 0.10357)
(0.000724533 0.000494326 0.0746678)
(0.00220317 -0.00266595 0.280147)
(0.00218577 -0.0025673 0.240286)
(0.00200999 -0.00230032 0.205296)
(0.00170376 -0.00198835 0.174348)
(0.00130319 -0.00165344 0.14678)
(0.000850405 -0.00132448 0.121659)
(0.000402172 -0.00103549 0.0968943)
(-1.3344e-05 -0.000818643 0.0648575)
(0.00253907 -0.0032116 0.298388)
(0.0025647 -0.00314801 0.253154)
(0.00237186 -0.00299025 0.213883)
(0.00201377 -0.00281406 0.17956)
(0.00152861 -0.0026277 0.14931)
(0.000970343 -0.00244097 0.122041)
(0.000415304 -0.00224881 0.0955104)
(-5.68853e-05 -0.00195581 0.0617742)
(0.00299723 -0.00355203 0.31032)
(0.00307872 -0.00351071 0.262693)
(0.0029087 -0.00347631 0.221513)
(0.00255944 -0.00345128 0.185669)
(0.00206989 -0.00343202 0.154202)
(0.00149568 -0.00340836 0.125954)
(0.000913595 -0.00334456 0.0986018)
(0.000392467 -0.00307016 0.0639711)
(0.00342717 -0.00368157 0.31393)
(0.003574 -0.00363179 0.267417)
(0.00347458 -0.00369623 0.2271)
(0.00320069 -0.00379828 0.191896)
(0.00279132 -0.00392289 0.160888)
(0.00229514 -0.00404073 0.132945)
(0.00177302 -0.00408996 0.10575)
(0.00124199 -0.00384125 0.0710308)
(0.00377455 -0.00364587 0.308955)
(0.00396981 -0.00357729 0.267161)
(0.00396836 -0.00369027 0.230491)
(0.00381832 -0.0038644 0.198052)
(0.00355441 -0.00407469 0.169145)
(0.00321061 -0.00427791 0.142787)
(0.00281784 -0.00439563 0.116759)
(0.00231765 -0.0041635 0.0828441)
(0.00406359 -0.0035441 0.29636)
(0.0042723 -0.00350727 0.263182)
(0.00438956 -0.00360861 0.232412)
(0.00438571 -0.00377307 0.204374)
(0.00429941 -0.0039734 0.178858)
(0.00414191 -0.00417052 0.155127)
(0.0039126 -0.00429033 0.131133)
(0.00348772 -0.00408506 0.0988694)
(0.00409668 -0.00267256 0.260311)
(0.00383098 -0.00224266 0.229547)
(0.00351669 -0.00175678 0.201272)
(0.00313834 -0.00124265 0.17565)
(0.00271447 -0.000719225 0.152462)
(0.00226384 -0.000212664 0.131058)
(0.00180425 0.000261402 0.109734)
(0.00135909 0.000549791 0.08176)
(0.00450092 -0.00317609 0.282064)
(0.00415949 -0.0028126 0.243109)
(0.00373823 -0.00239388 0.208972)
(0.0032252 -0.00195325 0.178821)
(0.0026359 -0.00150741 0.151982)
(0.00200017 -0.00107521 0.127506)
(0.00133612 -0.000665346 0.103336)
(0.000771147 -0.000352369 0.0721291)
(0.00513771 -0.00345617 0.299712)
(0.00474375 -0.00317952 0.255468)
(0.00423672 -0.00289445 0.217133)
(0.00361126 -0.00261278 0.183691)
(0.00288219 -0.00233849 0.154248)
(0.00208555 -0.0020736 0.127689)
(0.00125243 -0.00180069 0.101805)
(0.000578683 -0.00146251 0.068961)
(0.00575846 -0.00342554 0.311113)
(0.00534961 -0.00327478 0.264508)
(0.00481515 -0.00315994 0.224299)
(0.00415843 -0.00307388 0.189368)
(0.00339076 -0.00300884 0.158738)
(0.00254663 -0.00295206 0.131224)
(0.00165679 -0.0028683 0.104533)
(0.000908513 -0.00260013 0.0708029)
(0.00614686 -0.00312161 0.314295)
(0.00577613 -0.0030914 0.268786)
(0.00529203 -0.00313883 0.22942)
(0.00470001 -0.00323672 0.195106)
(0.00400919 -0.00336779 0.164911)
(0.00324667 -0.00350684 0.13768)
(0.00243134 -0.003605 0.111122)
(0.00168076 -0.00342865 0.0772494)
(0.00622045 -0.00268545 0.309046)
(0.00593856 -0.00274356 0.268179)
(0.00557427 -0.00290215 0.232383)
(0.00512813 -0.00312345 0.200759)
(0.00460652 -0.0033847 0.172591)
(0.00402674 -0.00365286 0.146879)
(0.0033864 -0.00387267 0.121426)
(0.00269793 -0.00377657 0.0882468)
(0.00604633 -0.00229135 0.296382)
(0.00589193 -0.00236978 0.263951)
(0.00568339 -0.00253611 0.233918)
(0.00541184 -0.00276813 0.206572)
(0.00508641 -0.0030416 0.181682)
(0.00471325 -0.00332209 0.158499)
(0.00426523 -0.00355503 0.135001)
(0.00363959 -0.00346973 0.103398)
(0.00830712 -0.00462852 0.260371)
(0.00793125 -0.00408551 0.2297)
(0.0074378 -0.00347967 0.201426)
(0.00680091 -0.00276081 0.175621)
(0.00596284 -0.00191369 0.151947)
(0.00498222 -0.00100126 0.129582)
(0.00412141 -0.000269096 0.106424)
(0.00261761 0.000771379 0.0748459)
(0.00895899 -0.00464296 0.282015)
(0.00855111 -0.00416545 0.243295)
(0.00803362 -0.0036901 0.209306)
(0.00732026 -0.00314177 0.17914)
(0.00634105 -0.00251547 0.151985)
(0.00515056 -0.0018467 0.126695)
(0.0041093 -0.00131327 0.10082)
(0.00220791 -0.000447691 0.0656687)
(0.00979217 -0.00420769 0.299436)
(0.00935386 -0.00384282 0.25551)
(0.00879587 -0.0035161 0.217423)
(0.00801409 -0.00317454 0.18408)
(0.00692839 -0.00281226 0.154448)
(0.00558615 -0.00244013 0.127198)
(0.00440131 -0.00214012 0.0996905)
(0.00220332 -0.00158193 0.0628042)
(0.0104866 -0.00336005 0.31051)
(0.0100042 -0.00313551 0.264253)
(0.00941273 -0.00296535 0.224333)
(0.00860015 -0.00283807 0.189558)
(0.00747926 -0.00274671 0.158815)
(0.00608961 -0.0026826 0.130709)
(0.00485861 -0.0026234 0.10252)
(0.00254814 -0.00245681 0.0649307)
(0.0107826 -0.00219207 0.31329)
(0.0102755 -0.00212021 0.268111)
(0.00967432 -0.00211178 0.229015)
(0.00888007 -0.00219414 0.194847)
(0.00780244 -0.00236384 0.164547)
(0.0064764 -0.00259697 0.13677)
(0.00530022 -0.00277187 0.108843)
(0.0030813 -0.00300518 0.0714677)
(0.0105737 -0.000937965 0.307617)
(0.0100817 -0.00102104 0.267018)
(0.00951702 -0.00116369 0.231427)
(0.00879622 -0.00142797 0.199886)
(0.00783516 -0.0018217 0.171573)
(0.00666981 -0.00230814 0.145324)
(0.0056323 -0.00268643 0.118633)
(0.00368651 -0.00325943 0.0824334)
(0.00996858 7.12128e-05 0.294554)
(0.00957191 -5.85392e-05 0.262268)
(0.00908437 -0.000286756 0.232337)
(0.00847587 -0.000670834 0.204978)
(0.00768011 -0.00122872 0.17987)
(0.0067376 -0.001899 0.156138)
(0.0058723 -0.00242416 0.13152)
(0.00427018 -0.00315556 0.0973931)
(0.0138023 -0.00725431 0.264282)
(0.0139103 -0.00722015 0.236107)
(0.0138282 -0.00709519 0.211193)
(0.0134289 -0.00677931 0.189757)
(0.0126315 -0.00622322 0.171784)
(0.0113367 -0.00536179 0.157268)
(0.00935858 -0.00410484 0.146624)
(0.00525152 -0.00156004 0.141748)
(0.0147901 -0.00618068 0.284393)
(0.0151817 -0.00593815 0.248137)
(0.0153371 -0.00570282 0.217459)
(0.0151248 -0.00535345 0.191668)
(0.0144343 -0.00482107 0.170331)
(0.0131114 -0.00402965 0.153222)
(0.0109456 -0.00289149 0.140708)
(0.00630851 -0.00069056 0.135031)
(0.0156413 -0.00490252 0.300836)
(0.0160723 -0.00461824 0.259195)
(0.0162989 -0.00437225 0.224262)
(0.016175 -0.00408584 0.195175)
(0.0155306 -0.0037117 0.171313)
(0.0141295 -0.00319537 0.152311)
(0.0117134 -0.00247438 0.138449)
(0.00647026 -0.00112311 0.132185)
(0.0162655 -0.00316107 0.311309)
(0.0166518 -0.00286373 0.267226)
(0.0168703 -0.00260635 0.230359)
(0.0167613 -0.00236896 0.199752)
(0.0161293 -0.00213814 0.174709)
(0.0147096 -0.00189442 0.154792)
(0.0122194 -0.00159625 0.140209)
(0.00670675 -0.00111155 0.133347)
(0.016367 -0.001062 0.313825)
(0.0166527 -0.000782181 0.27082)
(0.0167937 -0.000522774 0.234761)
(0.0166362 -0.000334026 0.204723)
(0.0159938 -0.00023555 0.180046)
(0.0146156 -0.000253668 0.160309)
(0.0122125 -0.000385005 0.14568)
(0.00675874 -0.00087347 0.13821)
(0.0158672 0.00111773 0.308297)
(0.0160441 0.00135839 0.269972)
(0.0160791 0.00161511 0.237477)
(0.0158288 0.00176608 0.210078)
(0.0151498 0.00175279 0.187318)
(0.013849 0.00150461 0.168894)
(0.0116638 0.000961749 0.154967)
(0.00662688 -0.000602327 0.14698)
(0.0146534 0.0032954 0.295957)
(0.0146195 0.00375739 0.265922)
(0.0144616 0.00415811 0.239091)
(0.0140452 0.00438542 0.215831)
(0.013264 0.00438342 0.196138)
(0.0119784 0.00407571 0.179899)
(0.00992371 0.00335757 0.167236)
(0.00537457 0.00115205 0.158625)
(-0.000492998 -0.00251287 0.618909)
(-0.000176608 -0.00167389 0.563399)
(-2.5177e-05 -0.000691388 0.51655)
(0.00014657 0.000371668 0.47508)
(0.000368204 0.00104734 0.437954)
(0.000770339 0.00154572 0.403504)
(0.00133517 0.00205286 0.367702)
(0.00201865 0.00271454 0.314308)
(-0.00584683 -0.00257938 0.709521)
(-0.00554909 -0.00212869 0.627435)
(-0.00455638 -0.00106757 0.565231)
(-0.00366652 -6.12918e-05 0.514114)
(-0.00294939 0.000342606 0.470014)
(-0.00212889 0.00055725 0.430422)
(-0.00116964 0.000840875 0.390423)
(-0.000104752 0.0014515 0.332392)
(-0.0076197 -0.005292 0.752383)
(-0.0085922 -0.00435768 0.665571)
(-0.00733474 -0.00331427 0.591469)
(-0.00620114 -0.00262102 0.533728)
(-0.00512985 -0.00246337 0.484556)
(-0.00397683 -0.00251348 0.441212)
(-0.00275638 -0.00257876 0.398682)
(-0.00159162 -0.00242397 0.337894)
(-0.00582969 -0.00743206 0.74797)
(-0.00724241 -0.006338 0.65642)
(-0.0064152 -0.00582134 0.583012)
(-0.00540485 -0.00567923 0.52528)
(-0.00435539 -0.0057516 0.475983)
(-0.00321652 -0.00597313 0.432462)
(-0.00202646 -0.00624183 0.389781)
(-0.000955712 -0.0063156 0.329234)
(-0.0030288 -0.00707475 0.681318)
(-0.00321604 -0.00684521 0.602474)
(-0.00272053 -0.00705312 0.541782)
(-0.00207016 -0.0073802 0.490825)
(-0.00132202 -0.00768847 0.446511)
(-0.000450653 -0.00807916 0.406625)
(0.000506996 -0.00851438 0.366782)
(0.00131615 -0.00876004 0.309871)
(0.000357225 -0.00564204 0.583439)
(0.00053596 -0.00578795 0.529028)
(0.000795279 -0.00639542 0.482579)
(0.00119532 -0.00700365 0.441319)
(0.00175828 -0.0075186 0.404363)
(0.00246041 -0.00801683 0.370175)
(0.00323064 -0.00846807 0.33508)
(0.00380474 -0.00867105 0.283779)
(0.000903346 -0.00551891 0.497605)
(0.00141147 -0.00560305 0.458232)
(0.00204693 -0.00604392 0.422222)
(0.00273275 -0.00650267 0.389202)
(0.00348492 -0.00690217 0.358861)
(0.00427865 -0.00724399 0.330117)
(0.00506617 -0.00750157 0.299831)
(0.005599 -0.00753859 0.254525)
(0.00248338 -0.00660181 0.613452)
(0.00215178 -0.00395274 0.557849)
(0.00156004 -0.00216162 0.511497)
(0.00117873 -0.000896832 0.470813)
(0.00110595 2.28252e-05 0.434494)
(0.00124617 0.000808775 0.400786)
(0.00156417 0.00156753 0.365628)
(0.00201367 0.00244818 0.312878)
(-0.000158758 -0.00758661 0.706138)
(-0.00033989 -0.00458159 0.622811)
(-0.000970343 -0.00280569 0.560442)
(-0.00137013 -0.00181446 0.509825)
(-0.00144572 -0.00111199 0.466502)
(-0.00118433 -0.000496151 0.42776)
(-0.000671282 0.00016574 0.388449)
(3.15176e-05 0.00112728 0.331123)
(0.000678043 -0.00591261 0.752709)
(0.000664343 -0.00492562 0.664068)
(-0.000753874 -0.00406106 0.588122)
(-0.00167794 -0.00369899 0.530155)
(-0.00211423 -0.00342491 0.481536)
(-0.00207998 -0.00318343 0.438992)
(-0.00171466 -0.00292172 0.397165)
(-0.00123104 -0.00244588 0.336997)
(0.00220386 -0.00233697 0.750374)
(0.00183888 -0.00371412 0.655936)
(0.000495043 -0.00444926 0.580672)
(-0.000502782 -0.00491863 0.5226)
(-0.00105697 -0.00524532 0.473744)
(-0.00114793 -0.00551884 0.430901)
(-0.00089928 -0.0057408 0.388797)
(-0.000578299 -0.00573882 0.328919)
(0.0029562 -0.000404431 0.682036)
(0.00278963 -0.00284024 0.601581)
(0.00196966 -0.00438252 0.540117)
(0.00125251 -0.00537039 0.489159)
(0.000892079 -0.00614899 0.445258)
(0.000889745 -0.00683626 0.405967)
(0.00115433 -0.00744382 0.366666)
(0.00139271 -0.00779339 0.310225)
(0.00340943 -0.000191283 0.583221)
(0.00339969 -0.0023081 0.52811)
(0.00298391 -0.00388454 0.481581)
(0.00272449 -0.00500306 0.440617)
(0.00274493 -0.00592599 0.404102)
(0.00298546 -0.00671561 0.370404)
(0.00335383 -0.00736822 0.335716)
(0.00357168 -0.00772101 0.284736)
(0.00259458 -0.0018412 0.496877)
(0.00287876 -0.00316409 0.45756)
(0.00313359 -0.00420044 0.421891)
(0.00347914 -0.00498644 0.3893)
(0.00391698 -0.00564549 0.359391)
(0.00441256 -0.00618755 0.331027)
(0.00491078 -0.00660082 0.301036)
(0.00516625 -0.00676164 0.255924)
(0.00240771 -0.00527866 0.606653)
(0.00179479 -0.00278818 0.550599)
(0.00113087 -0.00151532 0.505128)
(0.000846057 -0.000638014 0.465407)
(0.000894505 0.000132415 0.430052)
(0.00111864 0.000866596 0.397206)
(0.00148897 0.00159251 0.362785)
(0.00197094 0.00244046 0.310763)
(0.000424927 -0.0066072 0.707329)
(-8.80093e-05 -0.00370955 0.616617)
(-0.00105384 -0.00264077 0.553926)
(-0.00151628 -0.00200077 0.504095)
(-0.00153586 -0.00128125 0.461771)
(-0.00121223 -0.000569439 0.423971)
(-0.00066122 0.000191134 0.385481)
(7.59061e-05 0.00122908 0.329036)
(0.00167034 -0.00541251 0.778997)
(0.00184611 -0.0045032 0.66239)
(-0.000134722 -0.00420463 0.582336)
(-0.00135231 -0.00398646 0.524547)
(-0.00193962 -0.00359012 0.476944)
(-0.00197994 -0.00317766 0.435504)
(-0.00166621 -0.00274565 0.394541)
(-0.00120473 -0.00212082 0.335201)
(0.00260743 -0.00220073 0.76583)
(0.00303458 -0.00363268 0.654688)
(0.00130184 -0.00443802 0.575817)
(-8.50897e-05 -0.00484801 0.517791)
(-0.000871962 -0.00506346 0.469859)
(-0.00109465 -0.00520933 0.428024)
(-0.000921171 -0.00530705 0.38677)
(-0.000625514 -0.00520727 0.327707)
(0.00343116 -0.000672837 0.689411)
(0.00332517 -0.00307626 0.599684)
(0.00222286 -0.00430598 0.53629)
(0.00128449 -0.00510665 0.485589)
(0.000796315 -0.00577237 0.44252)
(0.000733698 -0.00636421 0.4041)
(0.000958554 -0.00687661 0.365528)
(0.00118282 -0.00713358 0.309736)
(0.00380874 -0.00075794 0.582962)
(0.0035481 -0.00282392 0.52547)
(0.00293403 -0.00403906 0.478843)
(0.00253772 -0.00489057 0.438432)
(0.00250702 -0.00564858 0.402609)
(0.00271202 -0.00631455 0.369562)
(0.00305655 -0.00685141 0.335411)
(0.00324161 -0.00709872 0.284888)
(0.00284556 -0.00238252 0.494629)
(0.00296501 -0.00360432 0.455379)
(0.00306087 -0.00438916 0.420252)
(0.00330754 -0.00493131 0.388253)
(0.00366494 -0.00542568 0.358889)
(0.00409126 -0.00584071 0.330989)
(0.00453193 -0.00613915 0.301359)
(0.00473157 -0.00621337 0.256522)
(0.000464155 -0.00162276 0.59926)
(1.80444e-06 -0.000559131 0.544035)
(-0.000294207 7.12498e-05 0.499776)
(-0.00025864 0.000596972 0.461238)
(1.43528e-05 0.00110791 0.426947)
(0.0004407 0.00158446 0.395014)
(0.00102468 0.00206014 0.361352)
(0.00173589 0.00263739 0.310084)
(-0.00287981 -0.00252495 0.700862)
(-0.00318044 -0.00155345 0.609677)
(-0.00340099 -0.00114983 0.548012)
(-0.00326932 -0.000644561 0.499436)
(-0.00277371 -0.000122943 0.458293)
(-0.00205926 0.000371447 0.421455)
(-0.00114262 0.000901669 0.383897)
(-4.72507e-05 0.00167822 0.328365)
(-0.00349719 -0.00453581 0.782653)
(-0.00351314 -0.00376689 0.656225)
(-0.00429157 -0.00347104 0.576532)
(-0.00452257 -0.00306356 0.519982)
(-0.00420285 -0.00264619 0.473704)
(-0.00350255 -0.00229519 0.433415)
(-0.00255902 -0.00196375 0.393296)
(-0.00148864 -0.00146423 0.334929)
(-0.00216401 -0.00528993 0.776193)
(-0.0022859 -0.00505943 0.651387)
(-0.00322551 -0.00505731 0.571125)
(-0.00366024 -0.00498634 0.514081)
(-0.00350777 -0.00488913 0.467371)
(-0.00291198 -0.00482944 0.426643)
(-0.0020349 -0.00479748 0.386285)
(-0.00107021 -0.00461549 0.328049)
(-0.000500765 -0.00496702 0.689874)
(-0.000951774 -0.00561053 0.596552)
(-0.00142402 -0.00589825 0.532873)
(-0.00165124 -0.0060894 0.483147)
(-0.00144585 -0.00625529 0.441134)
(-0.000899494 -0.00643098 0.403643)
(-0.000137658 -0.0066062 0.365823)
(0.000632045 -0.00658941 0.3107)
(0.00162445 -0.0048967 0.581262)
(0.00121589 -0.00553175 0.523002)
(0.000825002 -0.00584677 0.476937)
(0.000757982 -0.00609689 0.437372)
(0.00100737 -0.00633248 0.402365)
(0.00148452 -0.0065398 0.370017)
(0.00208491 -0.00669225 0.336416)
(0.00258176 -0.00659667 0.286367)
(0.00156672 -0.00541479 0.493)
(0.00158787 -0.00568065 0.454207)
(0.00174792 -0.00578251 0.419736)
(0.00205417 -0.00588915 0.388389)
(0.00248483 -0.00598718 0.359613)
(0.00301146 -0.00604359 0.332204)
(0.00356981 -0.00602727 0.302949)
(0.00394006 -0.00578788 0.25842)
(-0.00211722 0.00170606 0.589974)
(-0.00237722 0.00206685 0.536664)
(-0.00246926 0.00240924 0.493856)