/*--------------------------------*- C++ -*----------------------------------*\
| =========                 |                                                 |
| \\      /  F ield         | OpenFOAM: The Open Source CFD Toolbox           |
|  \\    /   O peration     | Version:  plus.master                           |
|   \\  /    A nd           | Web:      www.OpenFOAM.com                      |
|    \\/     M anipulation  |                                                 |
\*---------------------------------------------------------------------------*/
FoamFile
{
    version     2.0;
    format      ascii;
    class       Cloud<passiveParticle>;
    location    "9.8/lagrangian/kinematicCloud";
    object      positions;
}
// * * * * * * * * * * * * * * * * * * * * * * * * * * * * * * * * * * * * * //

96597
(
(-0.00342828 -0.0156939 0.000266184) 821
(0.0226708 -0.0265188 0.000254249) 860
(0.00176451 0.0787147 0.000277655) 2376
(0.00406705 -0.0438353 0.00030584) 2090
(0.0276074 -0.0589975 0.000275808) 2110
(-0.0232774 -0.0462107 0.000291157) 2075
(0.0192416 -0.0463413 0.000278605) 2107
(-0.00287026 0.0188693 0.000260073) 1119
(0.0200007 0.0397729 0.000260741) 2354
(-0.00200659 0.0696827 0.000251797) 2374
(0.0310665 0.0513193 0.00028095) 2357
(0.0381058 0.0174524 0.000259422) 1545
(-0.0188394 0.000132195 0.000268933) 550
(0.027476 0.0196743 0.000285297) 300
(0.0588185 -0.00296099 0.000263799) 1532
(-0.00458555 0.039221 0.000276491) 2377
(8.49368e-05 -0.0157536 0.00026617) 829
(-0.0450708 0.0217592 0.000292432) 1795
(0.0315802 0.0185385 0.000271815) 1370
(0.0184172 0.0644591 0.000291088) 2366
(-0.0226066 0.0226095 0.00031379) 1139
(-0.00402456 -0.0932997 0.000279401) 3212
(-0.043258 -0.0227941 0.000227905) 1827
(-0.0400964 -0.0177778 0.000290263) 1826
(0.0233805 -0.0245335 0.000278339) 859
(-0.00948974 -0.0578801 0.000248381) 2084
(-0.0217612 0.0215539 0.000301094) 530
(0.0011782 0.100534 0.000262181) 3494
(-0.0421905 -0.0223834 0.000272125) 1826
(0.0321692 -0.0240263 0.000301552) 1505
(-0.0224448 0.0224672 0.000265443) 1138
(0.0345162 -0.016521 0.000315005) 1513
(-0.0332939 0.0153831 0.000278169) 1401
(-0.0207783 0.0207946 0.000316361) 1137
(0.00417898 0.0369806 0.000293598) 1472
(0.0387059 0.017494 0.000266888) 1545
(-0.00137511 0.0601023 0.000264443) 2373
(-0.00041601 0.0705924 0.000293765) 2374
(-0.0307295 0.0270842 0.000291852) 1785
(-0.080319 -1.26571e-05 0.00025852) 1816
(0.0141361 -0.0495719 0.000266104) 2099
(-0.0215194 -0.0396777 0.000281236) 2074
(0.00868969 0.0223155 0.000285053) 1096
(-0.0432915 0.0204655 0.000268139) 1794
(-0.0193171 0.0377885 0.000299878) 2385
(0.0307339 -0.0211549 0.000275391) 1365
(-0.00691493 -0.089717 0.000287123) 3211
(-0.00933142 0.0172282 0.000301284) 1126
(-0.0185849 -0.0411674 0.000242164) 2074
(-0.0144032 0.0304116 0.000275907) 1132
(0.0400842 -0.0156749 0.000279591) 1513
(-0.0162431 0.0323959 0.000269678) 1475
(0.0182734 -0.0215456 0.000246232) 857
(-0.00409165 -0.0608534 0.000279656) 2093
(0.0302379 -0.0125458 0.000264481) 259
(0.0187493 0.0407361 0.000244371) 2354
(0.0232348 0.0258893 0.000284176) 1092
(0.00134335 0.0157653 0.000248766) 1109
(-0.018321 0.0424778 0.000277969) 2386
(0.0111909 0.0589361 0.000276022) 2365
(0.0443924 -0.0165268 0.000306256) 1514
(0.0356542 -0.0178241 0.000280056) 1513
(0.0363949 0.0140119 0.000268168) 1545
(-0.0210793 0.0388433 0.000275218) 2386
(0.0192506 -0.00188138 0.000628053) 271
(-0.0419037 -0.0241287 0.000293087) 1826
(0.00484953 0.10042 0.000287615) 3494
(0.0115797 0.0168305 0.000292555) 1086
(-0.100674 0.000336855 0.000277789) 2934
(0.0428448 -0.0169154 0.000264426) 1514
(0.0187663 -0.0218617 0.000264784) 857
(0.0228078 0.0258263 0.00030242) 1092
(0.017271 0.0431114 0.000293897) 2354
(0.018129 0.0376525 0.000241213) 2353
(0.00922662 0.0216987 0.000271917) 1096
(0.0249756 -0.0255362 0.000269993) 860
(0.0596462 -0.000828236 0.000316033) 1533
(-0.0161485 -0.00339926 0.000296324) 558
(0.0133762 0.0274464 0.000287855) 1098
(0.00115538 0.0211577 0.000265092) 1111
(0.00409925 0.0363579 0.000265614) 1472
(-0.0125536 -0.0479413 0.00026805) 2083
(-0.0382766 0.0188732 0.000281331) 1793
(0.022751 0.0196447 0.000271362) 298
(-0.0256711 0.0256622 0.000291188) 532
(0.0108678 0.0259582 0.000283195) 1097
(0.0221582 -0.0152061 0.000272032) 249
(0.00533061 0.0758951 0.00027857) 2375
(-0.0176183 0.0069419 0.000258873) 542
(-0.0352833 0.00759511 0.000283941) 1402
(-0.00492791 0.0196244 0.000275373) 1119
(0.0136958 0.0152254 0.000273252) 1086
(0.0185076 -0.0510274 0.000273177) 2107
(-0.0420598 -0.0157079 0.000258681) 1826
(0.0248162 -0.0159141 0.000303581) 258
(-0.0256449 -0.0257897 0.000332218) 1435
(0.0307979 0.0168855 0.000281888) 292
(-0.0814874 0.0050881 0.00025782) 1816
(-0.00920934 0.0493775 0.000259744) 2379
(0.0185309 0.000117555 0.000270435) 270
(-0.0906102 0.00255277 0.000279466) 2931
(0.00966356 0.0285605 0.000265985) 1106
(0.0552644 0.00252508 0.000266303) 1532
(-0.0276057 0.00388432 0.000280903) 546
(0.0199465 -0.00918682 0.000280542) 255
(-0.0365427 0.0187978 0.000298771) 1793
(-0.00145945 0.07346 0.000272044) 2375
(-0.0193575 0.037894 0.00028068) 2385
(0.0361251 -0.0245501 0.000323475) 1506
(-0.0545133 0.0276496 0.000280491) 1797
(-0.0256306 0.0476279 0.000317987) 2387
(0.0325525 -0.020566 0.000306722) 1505
(-0.00282622 -0.0545303 0.000302013) 2092
(0.0328787 0.0160141 0.00028231) 1370
(0.00884063 0.0305395 0.000276701) 1107
(0.0190626 -0.0390537 0.000275741) 2105
(0.0133325 0.0199447 0.000272977) 1088
(-0.0484574 -0.0233094 0.00027448) 1827
(0.0224366 -0.00908517 0.000266085) 256
(0.0190189 -0.0385724 0.000259236) 2105
(0.0512034 0.00327851 0.00028783) 1531
(0.00388482 -0.045262 0.000299427) 2090
(0.0214411 -0.0233984 0.00030531) 859
(-0.0228002 -0.0460446 0.00029557) 2075
(0.0228736 0.011339 0.000291022) 288
(-0.0320367 0.00692394 0.000278561) 547
(0.0237741 0.0234162 0.000260795) 299
(0.00434604 -0.0895178 0.000301028) 3211
(0.0178345 0.0269146 0.000279501) 1091
(0.0498753 0.00149696 0.000257985) 1531
(0.0241138 -0.0252886 0.000285899) 860
(0.00834532 0.0310629 0.000285605) 1107
(0.021434 0.0433154 0.000258801) 2354
(0.0178274 0.0478774 0.000255058) 2355
(0.0235352 0.0163563 0.000274278) 297
(-0.000928564 0.10053 0.000269502) 3494
(0.0153299 0.0349067 0.00026999) 1471
(0.00678707 -0.018729 0.000280447) 839
(-0.000852475 0.0727941 0.000266927) 2375
(-0.0201147 0.042537 0.000259743) 2386
(-0.0256459 0.0258807 0.000324399) 1476
(0.0244471 0.0104414 0.000268505) 289
(-0.0407551 -0.0176195 0.000282871) 1826
(0.000437629 0.0188666 0.000604406) 1110
(0.0185898 -0.0219115 0.000255327) 857
(-0.0243736 -0.0244273 0.000298429) 812
(-0.0527727 0.00673693 0.000266333) 1803
(0.00173094 0.0257055 0.000276343) 1113
(-0.0432168 -0.0189678 0.000267051) 1826
(0.0253687 -0.0305814 0.000287975) 2113
(0.0107756 -0.0180619 0.000280039) 847
(0.018082 0.0218276 0.000238421) 1089
(0.0213953 -0.00576698 0.000307855) 263
(0.0210538 0.0408442 0.000257547) 2354
(0.0235278 -0.0256921 0.000285779) 860
(-0.0222865 -0.00920275 0.000264756) 568
(0.0108663 -0.0456783 0.000255914) 2098
(-0.042038 -0.018936 0.000246718) 1826
(0.0350424 -4.74032e-05 0.00026542) 276
(-0.00539457 0.0176891 0.000268668) 1118
(-0.00181936 -0.0559036 0.000245852) 2092
(0.0161385 -0.0454916 0.000263164) 2106
(-0.0168274 0.0363483 0.000264627) 2385
(0.0086369 -0.0152965 0.000239431) 845
(0.00936935 0.0156723 0.000251534) 1094
(-0.0920381 -0.00359079 0.000292099) 2931
(0.00171134 0.0157616 0.000271803) 1109
(0.00643707 -0.057137 0.00024866) 2092
(0.0166499 0.00973792 0.00026282) 286
(0.0241198 -0.0253604 0.000281798) 860
(0.000810534 0.0157649 0.000265869) 1109
(-0.0502433 0.0203606 0.000272165) 1796
(0.0396472 -0.0170281 0.000295468) 1513
(-0.015775 0.00161219 0.000256632) 549
(-0.0132215 0.0334998 0.000251377) 1132
(-0.0169628 -0.0305371 0.000292157) 820
(0.0185296 0.00015829 0.000282768) 270
(-0.100689 -0.000602403 0.000273813) 2934
(-0.0272316 -0.0271925 0.000326041) 1406
(0.0317851 -0.0101658 0.000260542) 267
(0.0154654 0.006913 0.000278493) 285
(-0.04155 0.0191075 0.000242573) 1794
(-0.0408334 0.0187094 0.00027546) 1794
(-0.0412474 -0.0185788 0.000283034) 1826
(-0.000819313 -0.0972416 0.000255026) 3213
(0.0312409 0.0231359 0.000288327) 1553
(0.0182887 0.0226986 0.000257397) 1090
(0.00161966 -0.0669158 0.000279553) 2094
(-0.0278362 -0.0543489 0.000286496) 2077
(0.0232341 -0.0244141 0.000280612) 859
(0.031302 0.0234168 0.00027667) 1553
(0.0181506 0.063749 0.000286333) 2366
(0.00942846 0.0244791 0.000260412) 1097
(0.0285045 0.0589793 0.000285743) 2358
(-0.0267893 -0.0267573 0.000327244) 1406
(0.000226265 -0.0189266 0.000297413) 831
(-0.00101327 -0.102768 0.000294746) 3214
(0.0250286 0.0213279 0.000256975) 299
(0.046749 -0.0143352 0.000318654) 1523
(0.0191447 0.0407225 0.000258413) 2354
(0.0346116 0.0156601 0.000303205) 1370
(0.00141426 -0.0997227 0.000261626) 3214
(0.0426196 -0.0118209 0.00024518) 1522
(-0.022011 0.0221207 0.000292915) 1138
(-0.0182669 -0.035028 0.000261767) 2073
(0.0245837 -0.0158026 0.000283234) 258
(0.0255954 -0.0164736 0.000287157) 250
(-0.000838353 0.0768008 0.000283893) 2376
(-0.0248459 -0.0455576 0.000289151) 2075
(-0.0640781 -0.014959 0.000309973) 1822
(0.0205199 -0.0396935 0.000279371) 2106
(0.0187444 0.0227549 0.000290435) 1090
(0.0430396 -0.0159101 0.00029522) 1514
(-0.0427527 -0.0234796 0.000289086) 1826
(0.0596417 0.00138559 0.00028462) 1533
(-0.0190289 0.0190765 0.000292684) 1136
(-0.0255134 -0.0255239 0.000261068) 812
(-0.0574484 -0.0135195 0.00025761) 1820
(0.0248151 -0.025517 0.000283409) 860
(-0.0923516 0.00191868 0.00027737) 2931
(0.00747117 0.048634 0.000259126) 2363
(-0.0233597 -0.0231453 0.000275947) 579
(-0.0095565 -0.0219393 0.00028987) 816
(0.0207008 -0.0245322 0.000278603) 859
(-0.0331517 0.0162318 0.000278548) 1401
(0.0185335 0.000258969 0.000307916) 270
(0.0046403 -0.0931259 0.000277211) 3212
(-0.0635445 -0.016635 0.000276391) 1822
(0.0132362 0.0203424 0.000270178) 1096
(-0.0226357 0.0226586 0.000275447) 1139
(0.026299 -0.00975047 0.000275395) 257
(0.0310638 -0.0252132 0.000327702) 1505
(-0.00120037 0.0901754 0.000277611) 3491
(0.00391314 0.0156661 0.000250391) 1101
(0.0157422 0.000618497 0.000226429) 269
(0.0150799 -0.0104734 0.000272345) 245
(0.0145537 -0.0354645 0.000312653) 2105
(-0.0256145 0.0254576 0.000299889) 532
(0.0183643 -0.0217598 0.000264273) 857
(0.0466119 -0.0148535 0.000301527) 1523
(-0.00902696 0.0215771 0.000265864) 1128
(0.0141262 0.0469312 0.000263479) 2363
(-0.0199131 -0.038134 0.000280237) 2073
(-0.0743496 0.0267494 0.000315139) 1800
(0.000571507 0.100659 0.000270045) 3494
(-0.0180312 0.0426205 0.000274238) 2386
(0.0313029 0.0227613 0.000272459) 1553
(-0.0226379 0.0413556 0.000262317) 2386
(-0.0244147 -0.042505 0.000292902) 2075
(0.0317161 0.0187497 0.000281294) 1370
(0.0156891 0.00294571 0.000240415) 277
(-0.00742745 -0.067081 0.000294845) 2094
(-0.0100929 -0.025745 0.000247498) 817
(-0.0169705 0.0354787 0.000293636) 2385
(0.000730369 -0.0945976 0.000278751) 3212
(-0.0334922 0.0164668 0.000276045) 1401
(-0.0167859 0.0328813 0.000297021) 1475
(0.0255318 -0.0535267 0.000312068) 2108
(0.0203804 -0.023052 0.00028577) 858
(-0.0322882 0.0152539 0.000295536) 540
(-0.0270221 -0.0270714 0.000331658) 1435
(-0.0248739 0.011015 0.000283582) 537
(-0.0412043 -0.0185949 0.000277566) 1826
(0.0570963 -0.00133238 0.000263648) 1532
(0.0210264 -0.00810917 0.000256124) 255
(-0.000136154 0.0742697 0.000262283) 2375
(-0.00919901 -0.0151668 0.000313412) 813
(0.0316685 0.0217194 0.000299821) 1553
(-0.0243079 0.0241602 0.000302695) 532
(-0.0200503 0.0201357 0.000246914) 1137
(-0.0644391 -0.0358908 0.000299061) 1831
(0.0497284 0.00115572 0.000258014) 1531
(0.0148029 0.0154605 0.000232696) 1086
(-0.0170391 -0.0045989 0.000275073) 558
(0.0178063 0.0338894 0.000291511) 2353
(0.0139518 -0.0304894 0.000292328) 851
(-0.0695889 -0.0170035 0.000272328) 1823
(0.024815 -0.0015614 0.000287904) 273
(-0.0457103 0.019433 0.000255834) 1795
(0.00827969 -0.0527394 0.00027493) 2099
(0.0189106 0.0373682 0.000300743) 2353
(0.0309223 -0.0118484 0.000250147) 259
(0.0207433 0.0396033 0.00027945) 2354
(-0.0227947 0.0425435 0.000309269) 2386
(-0.00379035 0.038282 0.000257195) 2369
(-0.0378835 0.0189739 0.000289981) 1793
(-0.00211343 0.0158257 0.000327162) 1109
(-0.0269197 0.00996767 0.000282884) 538
(0.0430931 0.0233638 0.000257371) 1547
(0.0185555 0.022293 0.000255831) 1089
(0.0210395 0.0237547 0.000252591) 1091
(-0.0104604 0.0623257 0.000253055) 2381
(0.0129812 0.0281147 0.000314184) 1099
(-0.00193961 0.0776267 0.0002787) 2376
(-0.0125517 0.0619117 0.000265679) 2381
(0.0248014 -0.0291789 0.000286497) 2113
(-0.00450439 0.0200442 0.000293853) 1119
(0.00658611 -0.0324657 0.000265988) 843
(0.0069546 -0.0232702 0.000307048) 840
(-0.0533514 -0.0264253 0.000301669) 1829
(0.0195807 -0.00365224 0.000477963) 263
(-0.0228242 -0.0226304 0.000241497) 579
(0.00263784 0.0341243 0.000292317) 1116
(-0.0124939 -0.0130246 0.000263139) 805
(-0.0394678 0.0190535 0.000282851) 1794
(-0.0460079 -0.0222554 0.000242023) 1827
(-0.0224323 -0.0399787 0.000264634) 2074
(0.021171 0.0208246 0.000256596) 298
(0.0212912 -0.0232058 0.000274532) 858
(-0.0475801 -0.0244152 0.000271494) 1827
(-0.0195652 -0.0448947 0.000257189) 2075
(0.00675419 -0.0930814 0.000249205) 3212
(-0.0649704 0.00830082 0.000268825) 1806
(0.0202391 0.0392952 0.000265292) 2354
(-0.0170343 -0.0339097 0.000302957) 1436
(0.0262988 -0.000115629 0.000273714) 273
(0.019017 0.0402624 0.000232711) 2354
(-0.0140453 0.0494887 0.000264142) 2379
(-0.0243524 -0.0241321 0.0002578) 580
(0.0163022 -0.0399405 0.0002795) 2105
(-0.0390038 0.0188678 0.000273198) 1793
(0.0242037 -0.0156227 0.000289418) 249
(-0.0225214 0.0227519 0.0003228) 1139
(-0.0339545 -0.0176772 0.000317469) 1825
(-0.017882 0.0177231 0.000287283) 528
(0.0151796 -0.00895363 0.000233953) 253
(0.0142724 0.0272222 0.000281722) 1098
(-0.0960448 0.00667237 0.000304308) 2932
(-0.0281774 -0.009281 0.000286802) 562
(0.00339225 0.0383713 0.000286189) 2369
(-0.0457846 0.0206278 0.000266911) 1795
(0.00265833 -0.089959 0.000263599) 3211
(0.0363501 0.0164842 0.000257087) 1545
(-0.0488315 0.025158 0.000256598) 1796
(-0.0256106 -0.0255169 0.000300131) 580
(0.00829205 -0.0156457 0.000285961) 846
(-0.00961118 -0.0151275 0.000300088) 813
(-0.0158436 0.0421937 0.000259188) 2386
(-0.0113017 0.0202904 0.00026621) 1128
(0.0187348 0.0385952 0.000273509) 2353
(-0.00221548 0.0453121 0.000249412) 2370
(-0.0232794 -0.0950355 0.000297531) 3205
(0.0230687 -0.0454972 0.000277523) 2107
(-1.74945e-05 -0.0189353 0.000318043) 831
(0.0195694 -0.00720288 0.000291179) 263
(-0.0169246 -0.00686103 0.000299261) 566
(-0.0404877 0.0190029 0.0002514) 1794
(-0.0259007 -0.0256472 0.000306701) 1406
(-0.0340016 -0.0175864 0.000273669) 1825
(0.0211734 -0.0149349 0.000286157) 248
(0.0316201 -0.0114637 0.000247821) 260
(0.0435528 0.0140255 0.000284309) 1538
(-0.0224537 -0.0405262 0.000268672) 2074
(-0.00202897 -0.0998925 0.000276083) 3214
(0.0583829 0.00103043 0.000276007) 1532
(-0.0199035 0.0416267 0.000258397) 2386
(-0.0192421 -0.0337088 0.000301115) 2073
(0.00147573 -0.0888242 0.000288513) 3210
(0.0421544 0.000556071 0.000236208) 1529
(0.0248073 -0.00859668 0.000301444) 265
(-0.000190863 -0.0606709 0.000277504) 2093
(0.0212761 0.00990784 0.000258026) 288
(-0.0126327 0.0320676 0.000281733) 1132
(0.0499595 -0.00075763 0.000316236) 1531
(0.00389192 -0.0882275 0.000323316) 3210
(-0.0262881 0.0260181 0.000319938) 1400
(-0.0653687 0.0044873 0.000282816) 1814
(-0.0222018 -0.0405951 0.000279997) 2074
(-0.0830795 -0.0011151 0.000297994) 2929
(-0.0219446 0.0385289 0.000275585) 2386
(0.0239651 0.010846 0.00027069) 289
(-0.0655979 0.00754251 0.000295924) 1806
(0.0322402 -0.02405 0.000276713) 1505
(-0.074561 0.000913802 0.000268592) 1815
(-0.0192112 -0.0459849 0.000256535) 2075
(0.0163197 0.0383364 0.000249056) 2353
(-0.0280095 0.0114516 0.000298258) 538
(0.0199781 0.0229849 0.000289162) 1090
(0.0317209 0.0128452 0.00028418) 292
(0.011335 -0.0513905 0.000262019) 2099
(0.0182903 -0.0459352 0.000284826) 2107
(-0.0251966 0.0265047 0.000259979) 1476
(-0.0143631 0.0562421 0.000290269) 2380
(0.0239611 0.0222717 0.000282302) 299
(-0.0176443 -0.0339751 0.000296828) 2073
(-0.0255011 -0.0451259 0.000253852) 2075
(0.0240615 0.0266776 0.000287902) 1092
(0.00471068 0.0475103 0.000261344) 2370
(0.01074 -0.0585154 0.000261123) 2100
(-0.0185692 -0.0423363 0.00027971) 2074
(0.00152412 -0.0890598 0.000333876) 3210
(0.021794 0.0233185 0.000297127) 1091
(0.0159306 0.03485 0.000324137) 2353
(-0.0227454 0.041371 0.000270708) 2386
(0.0160947 0.00751023 0.000289298) 286
(-0.0429182 -0.0233416 0.000273284) 1827
(-0.041512 0.0194814 0.00025303) 1794
(0.0362785 0.000843497 0.000297326) 1368
(-0.0420317 -0.0228895 0.000269419) 1826
(-0.0185941 -0.0337888 0.00028187) 2073
(0.0416367 -0.0138626 0.000260252) 1522
(0.0326127 0.0189306 0.000284067) 1370
(-0.0899687 0.00113592 0.000287393) 2931
(0.012103 -0.0166012 0.000264891) 854
(0.0178951 0.0218861 0.000270356) 1089
(-0.0240683 -0.0238986 0.000302244) 579
(0.025011 0.0262314 0.000342385) 1470
(-0.0961217 -0.00406473 0.000266266) 2933
(-0.000239536 -0.0187823 0.000282581) 830
(-0.000301849 -0.0971546 0.000271689) 3213
(-0.0241326 0.0241026 0.000301523) 531
(-0.0356021 0.00619286 0.000276425) 1402
(-0.0826665 0.00328982 0.000284647) 2929
(-0.0434832 0.0226275 0.000276677) 1795
(-0.00904507 -0.0471049 0.000315766) 2082
(0.000832022 0.0912165 0.000264675) 3491
(-0.0404111 -0.0181894 0.000271406) 1826
(-0.00974437 0.0623335 0.000264889) 2381
(0.0256417 -0.0257038 0.000280909) 1441
(-0.104552 -0.000918885 0.000265372) 2935
(-0.0156865 0.0288354 0.000289962) 1131
(0.035345 -0.0114715 0.000269126) 1367
(-0.0176598 -0.0339646 0.00025254) 2073
(-0.00599578 -0.0155362 0.000282165) 821
(0.000243804 -0.0575162 0.000280286) 2092
(0.0319947 0.0183283 0.00025886) 1370
(0.0170609 0.0143249 0.000266516) 295
(0.0212168 0.0236371 0.000292842) 1091
(-0.0239145 -0.0236976 0.000283955) 579
(-0.0503998 -0.0206937 0.000246493) 1828
(-0.0810021 0.000825771 0.000280096) 1816
(0.0158356 0.0349256 0.00029695) 2353
(0.0156321 -0.0619361 0.000290291) 2101
(-0.0231611 0.0532433 0.00030964) 2388
(-0.0263877 -0.0261211 0.000299565) 1406
(0.00270638 0.0622032 0.000259038) 2373
(0.00908404 0.0219595 0.00026854) 1096
(-0.03824 0.019219 0.000306056) 1793
(-0.0808663 0.00111333 0.000277452) 1816
(-0.0209415 -0.00321521 0.000291959) 559
(0.0178694 0.0923447 0.000315012) 3484
(-0.0253928 0.0251794 0.000248277) 532
(0.0168989 -0.0406442 0.000301812) 2106
(0.0254159 -0.0256997 0.000265321) 860
(-0.0414046 -0.0184267 0.000301818) 1826
(0.00272729 0.0177652 0.000278688) 1102
(-0.0236694 -0.0234398 0.000294211) 579
(-0.0650551 0.00895939 0.000296187) 1806
(-0.0281821 0.0107448 0.000284968) 538
(0.0206783 -0.0230228 0.000292597) 858
(0.00302784 0.0157254 0.000294729) 1101
(0.0249898 0.0262424 0.000296351) 1470
(-0.0251983 0.0253763 0.00028167) 1140
(0.0138521 0.0364488 0.000303834) 2353
(0.0361901 0.0130491 0.000319376) 1545
(-0.0167785 -0.0303844 0.00029315) 820
(0.00943896 0.022467 0.000259093) 1096
(0.0430229 0.0161378 0.000275966) 1546
(-0.0161199 -0.00353837 0.000296015) 558
(0.0197825 0.0452616 0.000298826) 2355
(0.00690316 0.0205889 0.000254953) 1103
(0.0238583 0.0263987 0.000252289) 1092
(-0.0157146 0.00321218 0.000235725) 541
(0.0168158 -0.0319893 0.000266594) 1440
(0.0432499 -0.0148705 0.000302393) 1522
(0.0441123 -0.0156532 0.000283418) 1514
(-0.0416893 -0.0234899 0.000314169) 1826
(0.0344249 0.00234156 0.000303067) 276
(-0.10264 0.00282746 0.0160668) 2990
(-0.0428503 -0.020844 0.000277578) 1826
(-0.0237322 -0.0432158 0.000255947) 2075
(-0.0044109 -0.0890872 0.000281361) 3210
(-0.0256861 -0.0257519 0.000265937) 1435
(-0.0346156 -0.0175865 0.000273814) 1825
(-0.0875709 -0.00805155 0.000262844) 2930
(-0.0534497 0.0308587 0.000282321) 1797
(0.0155174 0.0314525 0.000282835) 1100
(-0.00438838 0.022287 0.000293982) 1120
(0.0597685 0.00152167 0.000257511) 1533
(-0.0630426 0.0111062 0.000274342) 1805
(0.0312501 -0.0203506 0.000282019) 1365
(-0.0247992 0.0452269 0.000310512) 2387
(-0.043597 0.0189038 0.000252084) 1794
(0.0196031 0.00623255 0.000322566) 279
(0.0317385 -8.24096e-05 0.000266192) 275
(-0.0758711 0.00272463 0.000260353) 1815
(0.0120675 -0.0598889 0.000270269) 2101
(0.0498424 -0.00082562 0.000293226) 1531
(0.0316283 -0.0184148 0.000274001) 1366
(-0.0241275 0.0243416 0.000259926) 1140
(0.017753 0.0341888 0.000287988) 2353
(0.0212094 -0.00866894 0.000263129) 256
(-0.0267459 -0.00598023 0.000236411) 561
(-0.0214749 -0.0577197 0.000251665) 2077
(0.00208676 0.029825 0.000266198) 1114
(-0.000641764 -0.0581339 0.000318215) 2092
(-0.053589 -0.0237849 0.000271359) 1828
(-0.0151961 0.0400385 0.000266415) 2385
(0.0240644 -0.0253694 0.000272305) 860
(0.00411243 -0.0179678 0.000270953) 838
(0.0437816 0.0174294 0.000274243) 1546
(-0.0191644 -0.033259 0.000341537) 2073
(0.0579442 -0.00131497 0.000277174) 1532
(-0.0462278 -0.022652 0.000278056) 1827
(-0.00577182 -0.0155549 0.000285457) 821
(-0.0235529 0.0233732 0.000315246) 531
(0.0238116 -0.0249949 0.000278859) 860
(0.0259564 -0.0262123 0.000286708) 1441
(0.0245664 -0.0254437 0.000283762) 860
(0.0126489 0.0214529 0.000266201) 1096
(-0.025578 -0.0255955 0.000278561) 812
(-0.0190521 -0.0189908 0.000284662) 576
(-0.0209727 0.0211733 0.000290088) 1138
(-0.0482487 0.0245132 0.000313334) 1796
(-0.0398801 -0.0172133 0.00029554) 1825
(-0.0837161 0.000231197 0.000287837) 2929
(0.010501 -0.0598703 0.000273782) 2101
(0.00455608 0.100534 0.000282141) 3494
(0.0157433 -0.0010614 0.000299372) 269
(-0.0775623 0.00595273 0.000273369) 1816
(-0.0096126 0.0675 0.000281032) 2382
(-0.0161521 -0.0346661 0.000314344) 1436
(-0.100594 0.00441307 0.000298081) 2934
(0.0426164 0.0157352 0.00029321) 1546
(0.0586254 -0.00302324 0.000278273) 1532
(0.0398865 -0.0169024 0.00027008) 1513
(0.0362522 0.0147631 0.000257593) 1545
(-0.0189644 0.0441104 0.000281595) 2386
(0.0567302 1.71033e-06 0.00029373) 1532
(0.0150881 0.0574005 0.000288318) 2364
(-0.0784924 -0.00164008 0.000290404) 1816
(-0.0212088 -0.0393045 0.000266106) 2074
(-0.004772 -0.0312544 0.000248197) 827
(0.0347798 0.016007 0.000298127) 1545
(0.0241046 -0.0253119 0.000283491) 860
(-0.0347722 -0.0173677 0.000292712) 1825
(-0.0256679 0.0256689 0.000272912) 1476
(-0.0485583 0.0238363 0.000256044) 1795
(-0.0240076 -0.0240298 0.000262495) 811
(-0.0204112 -0.00782511 0.000300576) 567
(-0.0188653 -0.0170914 0.000261524) 576
(0.0409285 -0.0164869 0.000263876) 1514
(-0.0169829 -0.035107 0.000245201) 2073
(0.024693 0.00930752 0.000270531) 289
(-0.0129741 0.0219236 0.000264244) 1128
(0.0212341 -0.0149262 0.000274624) 248
(0.0196122 -0.0370621 0.000303003) 2105
(-0.00368456 -0.0966837 0.000294108) 3213
(0.00280348 -0.104255 0.000289156) 3215
(0.00250497 -0.039612 0.000270396) 2089
(0.00189637 0.10055 0.000264497) 3494
(-0.0210473 -0.00306108 0.000288384) 559
(-0.0351032 -0.0165079 0.000268518) 1825
(-0.0204577 0.0383199 0.000302535) 2385
(-0.0257393 -0.0257902 0.000280502) 1435
(0.0145068 -0.0177975 0.00024755) 855
(0.0381537 0.0188267 0.000288138) 1545
(0.00103084 0.0726037 0.000280091) 2375
(-0.015769 -0.00016243 0.000281269) 549
(-0.00104482 -0.0547362 0.000272685) 2092
(-0.0214064 -0.0210456 0.000274052) 578
(-0.0417987 -0.0240693 0.000295294) 1826
(-0.0130699 -0.0291809 0.000291088) 819
(0.0584163 -0.00213319 0.000308334) 1532
(-0.0240946 -0.0506939 0.000285031) 2076
(0.0249995 -0.0468544 0.000283986) 2107
(-0.0229897 0.0228378 0.000286742) 531
(-0.0474631 -0.0227344 0.000277741) 1827
(-0.00556179 0.0385061 0.000264254) 2377
(-8.87497e-05 0.0362462 0.000252329) 1473
(0.0192978 0.0411478 0.000281329) 2354
(-0.042292 0.0213368 0.000282457) 1794
(-0.0365097 -0.0195523 0.000290637) 1825
(-0.0369336 0.0185802 0.000261124) 1793
(0.00121505 -0.102827 0.000267725) 3215
(-0.0420242 -0.0241483 0.000286586) 1826
(0.0125374 0.0522668 0.000272426) 2363
(0.00258133 0.0779292 0.000291783) 2376
(-0.0157357 -0.00252504 0.000276953) 557
(-0.0516515 -0.0218525 0.000266195) 1828
(-0.0366345 0.018732 0.000305625) 1793
(0.0219993 0.0247845 0.000258925) 1091
(-0.0199922 -0.0394288 0.000277964) 2074
(0.00169163 0.0157619 0.000275719) 1109
(-0.00933769 0.0546927 0.00027109) 2380
(-0.0605824 -0.0301281 0.000264672) 1830
(0.0277202 0.011987 0.0002747) 290
(0.000194468 0.0897411 0.000288382) 3491
(-0.024007 0.0239527 0.00030361) 531
(-0.0256981 0.0256447 0.000304634) 1400
(-0.0272082 -0.0272109 0.000292425) 1435
(0.0235606 0.0264459 0.000315214) 1092
(0.0149036 -0.0301785 0.000252796) 852
(0.0447189 -0.0125253 0.000261556) 1522
(0.000756794 -0.0199354 0.000302123) 831
(-0.00603885 -0.0155311 0.000283912) 821
(-0.00155691 0.100395 0.000291531) 3494
(-0.0272234 -0.0272235 0.00030101) 1435
(-0.0209707 0.0503194 0.000256283) 2388
(0.0213365 0.039664 0.000264013) 2354
(-0.0260532 -0.0257758 0.000322075) 1406
(0.0148166 0.0116673 0.000244897) 293
(-0.0592445 0.0121812 0.000287874) 1805
(0.0449746 -0.0134802 0.000277612) 1522
(-0.0041221 0.0156419 0.000292507) 1117
(0.0199749 -0.0449991 0.000260026) 2107
(-0.0240709 -0.0238563 0.000280332) 579
(-0.0253888 0.044861 0.000312142) 2387
(0.0231829 0.0276938 0.000334885) 1470
(0.00600967 -0.0533723 0.000296489) 2091
(0.000739163 0.0740193 0.000259374) 2375
(-0.0226461 -0.0226026 0.000304744) 579
(0.0602456 -0.000846505 0.000265082) 1533
(0.0196496 -0.0372711 0.000294467) 2105
(0.0239963 -0.0467347 0.00024228) 2107
(-0.0800727 0.000171919 0.000260519) 1816
(-0.000334099 0.0578696 0.000290517) 2372
(-0.0219353 0.0500236 0.000257667) 2388
(-0.018832 0.000531596 0.000279077) 550
(0.00031588 -0.0201803 0.000275242) 831
(-0.0532508 -0.0205706 0.000287071) 1828
(0.0359389 -0.0125449 0.00029181) 1367
(-0.000735208 -0.0937476 0.000257644) 3212
(-0.0185657 -0.0387853 0.000276306) 2073
(0.0132234 0.0578288 0.000273614) 2364
(0.0371904 -0.0103075 0.000295431) 1521
(0.0317835 0.0215679 0.000283234) 1553
(0.0395778 -0.0189493 0.000294362) 1514
(-0.0826363 -0.000165901 0.000257208) 2929
(-0.0271478 -0.0271203 0.00028957) 1406
(-0.0647461 0.0276266 0.000289275) 1798
(-0.0501817 0.0204896 0.000274739) 1796
(0.0266105 -0.0316911 0.000317552) 2113
(-0.0297987 0.0604987 0.000274921) 2390
(-0.0584366 0.00999093 0.000300159) 1804
(0.0157404 -0.001624 0.000269226) 269
(0.0213523 0.0242619 0.0002898) 1091
(0.046632 0.0143662 0.000302061) 1538
(-0.0809072 0.00331217 0.000256033) 1816
(-0.0177605 0.0325434 0.000274598) 1475
(0.0505961 0.00334097 0.000259127) 1531
(0.032195 -0.0238299 0.00026285) 1505
(-0.00739624 0.0561242 0.000263895) 2380
(0.0181661 0.0451431 0.000292454) 2354
(0.0132598 -0.0332268 0.000279909) 852
(-0.0172915 0.0359006 0.000297728) 2385
(-0.00218114 -0.0582111 0.000306653) 2092
(-0.0471448 0.0222049 0.000285622) 1795
(-0.0240425 -0.00602402 0.000262164) 560
(0.0462822 0.0159648 0.000297227) 1538
(-0.025307 0.0253002 0.00030798) 532
(-0.06688 0.00438431 0.000287168) 1814
(-0.0327284 0.0158619 0.000263156) 1401
(-0.10062 0.00583414 0.000288481) 2934
(-0.0499585 0.0258187 0.000245124) 1796
(-0.0597548 0.0273678 0.000274105) 1798
(0.0337154 0.0162165 0.000286307) 1370
(0.027072 0.0239304 0.000283514) 1371
(0.0210367 0.0237239 0.000253298) 1091
(0.0293741 0.0625931 0.000286022) 2358
(-0.0215059 0.0392955 0.000271249) 2386
(-0.00392032 0.0329755 0.000295616) 1123
(0.0184419 -0.00320227 0.000274017) 262
(-0.0392444 0.0188824 0.000304187) 1794
(0.0268918 -0.0275106 0.000284531) 2113
(-0.0363802 0.0181362 0.000304974) 1793
(-0.100733 0.00171766 0.000257951) 2934
(-0.0848659 0.00628048 0.000290543) 2929
(-0.0196294 -0.033021 0.000284697) 2073
(0.0283498 -0.0214543 0.000295055) 252
(-0.0172519 -0.00506532 0.00030655) 558
(0.038151 -0.0109137 0.000282563) 1521
(1.72296e-05 0.0730268 0.00027652) 2375
(0.0218369 0.0246445 0.000289199) 1091
(0.0270013 0.0504295 0.000313381) 2356
(0.000550072 0.100531 0.00027986) 3494
(-0.00378329 -0.0275219 0.000246958) 825
(0.0156863 0.00304688 0.000269547) 277
(0.0203214 -0.0231148 0.000299273) 858
(0.0601387 -0.00151146 0.000255) 1533
(0.0041742 0.0370359 0.000260435) 1472
(0.0215272 -0.0233286 0.000269693) 858
(-0.00583023 -0.0581968 0.000229301) 2092
(-0.0442557 -0.024542 0.000278223) 1827
(-0.0181706 -0.0331349 0.000276063) 1436
(0.0255322 0.010231 0.000278389) 289
(0.0236577 0.0263215 0.000288253) 1092
(-0.00412638 -0.0987909 0.000281365) 3213
(0.0436298 -0.0149676 0.000278289) 1522
(0.032486 0.0208303 0.000293054) 1553
(0.0264995 0.0097418 0.000262697) 290
(-0.0189968 -0.0333878 0.000290668) 2073
(-0.048182 0.0259161 0.00026239) 1796
(-0.0663142 0.0075816 0.000288223) 1806
(-0.0189454 0.00240163 0.000305331) 551
(-0.00213716 -0.0600229 0.000238773) 2093
(0.0248138 0.0102885 0.00027685) 289
(0.00166476 0.0157655 0.000274542) 1109
(-0.0443768 0.0234575 0.000280102) 1795
(0.0355426 0.0198906 0.000283599) 1545
(0.0212825 0.0235452 0.000292853) 1091
(-0.0252969 0.0271252 0.000288036) 1476
(0.0413839 0.0137418 0.000271445) 1537
(-0.0649896 -0.0368999 0.000296458) 1831
(-0.000118675 0.100559 0.000264501) 3494
(-0.0961229 -0.00565653 0.000261196) 2933
(0.0360301 -0.0133866 0.000306959) 1513
(0.0285961 0.0191164 0.000286478) 300
(0.0148776 -0.0401623 0.000258914) 2105
(-0.0247605 0.00865467 0.000283926) 545
(-0.0340079 -0.0175689 0.000266166) 1825
(0.00090794 0.0960615 0.000330307) 3493
(0.00557237 -0.0178733 0.000248231) 838
(0.0417322 -0.0172999 0.000281953) 1514
(-0.00577516 0.0961287 0.000310738) 3493
(0.0189616 -0.0056447 0.000305115) 263
(-0.059196 -0.0145466 0.000266485) 1821
(-0.0217758 -0.0375711 0.000297949) 2073
(-0.0225546 -0.0448772 0.000292375) 2075
(0.00422393 0.0709977 0.000244123) 2375
(0.0239694 0.0266069 0.000277928) 1092
(0.00351965 0.0544591 0.000280425) 2372
(-0.0225679 0.0412722 0.000266073) 2386
(0.0159669 0.0196256 0.000283987) 1088
(0.0132543 -0.0529982 0.000269789) 2100
(-0.017998 -0.0314358 0.000255581) 1436
(0.00292902 0.0176207 0.000282873) 1102
(0.0338153 -0.021457 0.000281351) 1505
(0.0211224 -0.0399349 0.000281893) 2106
(0.0242265 0.026754 0.000287446) 1092
(0.00924902 -0.0253539 0.000319462) 841
(-0.000757767 0.0743175 0.000273439) 2375