/*--------------------------------*- C++ -*----------------------------------*\
| =========                 |                                                 |
| \\      /  F ield         | OpenFOAM: The Open Source CFD Toolbox           |
|  \\    /   O peration     | Version:  plus.master.MPPICInterFoam            |
|   \\  /    A nd           | Web:      www.OpenFOAM.com                      |
|    \\/     M anipulation  |                                                 |
\*---------------------------------------------------------------------------*/
FoamFile
{
    version     2.0;
    format      ascii;
    class       surfaceScalarField;
    location    "13.8";
    object      alphaPhi;
}
// * * * * * * * * * * * * * * * * * * * * * * * * * * * * * * * * * * * * * //

dimensions      [0 3 -1 0 0 0 0];

internalField   nonuniform List<scalar> 
34319
(
-8.12578e-08
5.85506e-10
6.38797e-06
8.90231e-08
3.18211e-08
-6.6567e-08
1.10965e-08
6.28177e-06
2.01862e-08
-4.55896e-08
6.16324e-09
5.91423e-06
1.87524e-08
-2.07385e-08
-6.13003e-09
5.36476e-06
2.19016e-08
2.93063e-09
-1.91473e-08
4.71417e-06
2.68812e-08
2.11289e-08
-2.88843e-08
4.0346e-06
3.14264e-08
-3.52984e-08
3.36581e-06
3.14209e-08
3.44316e-08
-1.05241e-07
2.69797e-08
6.87227e-06
1.1698e-07
-8.88871e-08
3.73893e-08
6.92679e-06
-7.36283e-08
3.12095e-08
6.46451e-06
-3.57243e-08
8.23783e-09
6.23593e-06
-1.02009e-09
-8.8242e-09
5.48764e-06
2.38256e-08
-2.16097e-08
4.64376e-06
-3.03967e-08
3.85616e-06
3.77253e-08
-6.26582e-08
3.08322e-08
4.35266e-06
1.07799e-07
-4.20108e-08
5.14518e-08
3.70264e-06
-5.05301e-08
4.07163e-08
4.65096e-06
-2.31e-08
1.60138e-08
6.3955e-06
1.20231e-08
1.03398e-08
6.15091e-06
3.7545e-08
-4.70244e-09
5.21754e-06
-1.68916e-08
4.29738e-06
5.07544e-08
-7.39195e-08
2.60095e-08
3.55908e-06
9.27777e-08
-1.36621e-08
1.4536e-08
3.67804e-06
-1.8767e-08
4.75726e-08
3.24681e-06
1.38231e-08
3.58686e-08
4.9282e-06
4.27215e-08
4.70769e-08
6.39136e-06
5.85752e-08
2.90263e-08
5.6837e-06
7.67626e-09
4.64883e-06
6.66107e-08
-8.2584e-08
-1.06366e-09
5.21216e-06
1.4984e-07
-5.59317e-08
3.47051e-08
6.4742e-06
-1.13425e-08
2.70953e-08
5.55655e-06
3.50966e-09
5.90447e-08
4.70413e-06
4.69167e-08
7.89454e-08
6.72384e-06
6.45728e-08
6.3252e-08
5.9661e-06
3.31106e-08
4.86563e-06
7.38739e-08
-7.10184e-08
4.38128e-08
4.55318e-06
1.87289e-07
-8.97333e-09
4.92173e-08
3.80949e-06
-8.56325e-09
5.27765e-08
3.54946e-06
9.02241e-10
9.1717e-08
5.09116e-06
3.43093e-08
1.06166e-07
6.66257e-06
5.66655e-08
8.8202e-08
6.00343e-06
5.08275e-08
4.91795e-06
7.13175e-08
-5.01241e-08
4.8555e-06
9.0691e-08
4.64982e-08
-4.77347e-08
4.16539e-06
9.61532e-08
-5.41032e-08
4.43114e-06
7.86114e-08
-5.20987e-08
6.11943e-06
1.05077e-07
-5.76985e-09
6.62852e-06
1.01202e-07
3.59156e-08
5.81695e-06
8.5314e-08
4.80813e-06
6.60406e-08
4.72942e-08
-6.91667e-08
3.03503e-08
6.34504e-06
7.14597e-08
1.02933e-08
-6.29316e-08
4.6898e-08
6.23345e-06
-4.82608e-09
-4.5725e-08
3.16739e-08
5.86718e-06
-1.85768e-09
-2.52304e-08
1.37801e-08
5.32402e-06
6.4244e-09
-4.09761e-09
-5.95606e-09
4.68294e-06
1.60962e-08
1.25299e-08
-2.10274e-08
4.01455e-06
2.44901e-08
-3.11742e-08
3.35692e-06
2.21059e-08
3.04652e-08
-9.82379e-08
5.11547e-08
6.78874e-06
1.00848e-07
-9.76048e-08
6.97378e-08
6.87584e-06
-8.14191e-08
4.8435e-08
6.39421e-06
-4.60204e-08
2.95545e-08
6.17268e-06
-1.26878e-08
6.55869e-09
5.44174e-06
1.2114e-08
-1.40285e-08
4.61207e-06
-2.76743e-08
3.83812e-06
2.67439e-08
-7.88852e-08
5.96058e-08
4.14608e-06
1.07634e-07
-5.1922e-08
8.12347e-08
3.69461e-06
-6.39009e-08
2.26123e-08
4.62136e-06
-4.4365e-08
3.52798e-08
6.32696e-06
-9.75708e-09
2.57585e-08
6.0836e-06
1.92914e-08
-4.25977e-10
5.17493e-06
-1.78381e-08
4.271e-06
3.57924e-08
-1.31474e-07
1.04956e-07
3.53789e-06
1.14191e-07
-7.04511e-08
1.10155e-07
3.59729e-06
-1.55138e-08
6.18614e-08
3.98704e-06
-2.45214e-08
5.05864e-08
4.96124e-06
4.92916e-09
5.12045e-08
6.32473e-06
3.14076e-08
2.39676e-08
5.63284e-06
-4.01006e-10
4.61615e-06
4.67315e-08
-1.75047e-07
1.15826e-07
3.72585e-06
1.40429e-07
-7.13706e-08
1.51524e-07
6.51572e-06
-3.36702e-08
7.51121e-08
3.63868e-06
-4.11064e-08
6.0887e-08
4.67825e-06
-2.09639e-09
6.44366e-08
6.65612e-06
3.29066e-08
4.36003e-08
5.9116e-06
1.62918e-08
4.83012e-06
5.18532e-08
-1.60493e-07
4.2184e-08
4.80091e-06
2.15229e-07
-2.9823e-08
7.20386e-08
3.80117e-06
-2.11111e-08
6.42334e-08
3.54541e-06
-3.68933e-08
7.13618e-08
4.9585e-06
-3.66673e-09
7.47851e-08
6.59613e-06
3.11069e-08
5.93364e-08
5.95303e-06
2.8488e-08
4.88424e-06
5.27239e-08
-8.96987e-08
4.55302e-06
1.02703e-07
2.05757e-08
-6.4562e-08
3.81228e-06
6.45921e-08
-6.73629e-08
4.18087e-06
5.51404e-08
-7.09395e-08
6.02525e-06
7.46884e-08
-2.45206e-08
6.55949e-06
6.71412e-08
2.09531e-08
5.7744e-06
5.64603e-08
4.77958e-06
5.2656e-08
2.54158e-08
-4.92195e-08
-5.83712e-09
6.31038e-06
6.08226e-08
2.88617e-08
-4.40049e-08
2.26966e-08
6.19381e-06
1.17536e-08
-2.58046e-08
3.40105e-09
5.82825e-06
1.73893e-08
-4.79432e-09
-1.19696e-08
5.28998e-06
2.50186e-08
1.44003e-08
-2.56912e-08
4.65671e-06
3.26424e-08
2.8791e-08
-3.81626e-08
3.99819e-06
4.00504e-08
-4.77343e-08
3.35131e-06
3.59159e-08
4.6168e-08
-7.14963e-08
1.42325e-08
6.72555e-06
9.02443e-08
-7.69512e-08
5.28655e-08
6.83048e-06
-5.18544e-08
1.78084e-08
6.3355e-06
-1.67822e-08
-1.90652e-09
6.12079e-06
1.06296e-08
-1.47257e-08
5.40323e-06
3.06397e-08
-3.14065e-08
4.58525e-06
-4.40907e-08
3.8234e-06
4.18058e-08
-8.2886e-08
3.95955e-08
4.10475e-06
1.11988e-07
-3.41583e-08
2.1491e-08
3.83107e-06
-2.45004e-08
1.57359e-08
4.61549e-06
-5.83161e-09
1.83862e-08
6.26353e-06
1.68494e-08
1.04184e-08
6.02311e-06
3.83879e-08
-1.68701e-08
5.13884e-06
-3.39996e-08
4.24849e-06
5.07821e-08
-1.06306e-07
6.0184e-08
3.49944e-06
1.25432e-07
-3.12892e-08
1.59689e-07
5.04716e-06
-9.62906e-09
8.98541e-08
5.10728e-06
-9.75046e-09
4.56191e-08
5.02423e-06
2.06386e-08
3.10203e-08
6.24729e-06
4.53319e-08
1.88992e-09
5.58931e-06
-1.93774e-08
4.58767e-06
5.91715e-08
-2.22894e-07
1.61032e-07
3.70503e-06
1.55494e-07
-8.6115e-08
2.14753e-07
6.43017e-06
-6.58541e-08
3.58833e-08
3.64947e-06
-3.47443e-08
3.55164e-08
4.6739e-06
1.17758e-08
2.99238e-08
6.57928e-06
4.61201e-08
1.51038e-08
5.86405e-06
-5.61054e-09
4.79859e-06
6.39278e-08
-1.86463e-07
9.77174e-08
3.9176e-06
2.31751e-07
-3.04324e-08
1.07373e-07
3.78395e-06
-1.87996e-08
5.71478e-08
3.43666e-06
-1.6972e-08
4.10571e-08
4.87944e-06
2.09331e-08
4.13812e-08
6.49963e-06
4.97811e-08
3.18113e-08
5.90747e-06
8.05672e-09
4.85349e-06
6.69669e-08
-8.29532e-08
4.07552e-06
1.39851e-07
9.07562e-08
-3.69019e-08
3.48694e-06
9.82324e-08
-3.28763e-08
4.0534e-06
7.22348e-08
-2.46079e-08
5.97842e-06
7.18513e-08
1.23496e-08
6.48658e-06
5.03985e-08
4.41408e-08
5.73551e-06
3.89285e-08
4.75303e-06
6.71898e-08
1.17147e-08
-4.80002e-08
-1.32521e-08
6.27071e-06
6.66216e-08
3.431e-08
-4.11625e-08
1.31162e-08
6.15075e-06
2.30956e-08
-1.80796e-08
-1.72037e-08
5.7866e-06
3.58964e-08
6.27243e-09
-3.4699e-08
5.25364e-06
4.67884e-08
2.61297e-08
-4.80657e-08
4.62928e-06
5.56876e-08
3.95006e-08
-6.04652e-08
3.98182e-06
6.34495e-08
-6.92986e-08
3.34659e-06
4.45704e-08
6.90125e-08
-5.90801e-08
7.06995e-09
6.68786e-06
8.29809e-08
-6.91729e-08
4.85937e-08
6.79206e-06
-3.86654e-08
4.75658e-13
6.29125e-06
-1.68918e-09
-2.45042e-08
6.07227e-06
2.58471e-08
-3.59564e-08
5.36365e-06
4.51742e-08
-5.23078e-08
4.55778e-06
-6.44593e-08
3.80876e-06
5.51396e-08
-5.91106e-08
9.40054e-09
4.27225e-06
8.61975e-08
-3.17739e-08
3.07211e-08
4.05233e-06
-1.23299e-08
2.40207e-09
4.7923e-06
1.14399e-08
3.15161e-09
6.22164e-06
3.38367e-08
-8.06543e-09
5.96838e-06
5.48956e-08
-3.59625e-08
5.10149e-06
-5.24638e-08
4.22475e-06
6.67511e-08
-3.61886e-08
2.18735e-08
3.53256e-06
8.57954e-08
-3.14839e-08
8.17724e-09
5.17975e-06
-2.3847e-08
-4.15562e-08
4.51197e-06
-1.00679e-08
1.2095e-08
5.02201e-06
3.19981e-08
4.56049e-10
6.16851e-06
6.02023e-08
-1.92894e-08
5.54447e-06
-3.68179e-08
4.55689e-06
7.54024e-08
-1.98992e-07
7.56488e-08
3.76457e-06
1.32343e-07
-9.71704e-08
1.26057e-07
6.28661e-06
-7.98062e-08
1.51153e-08
3.56076e-06
-2.56978e-08
-8.33953e-09
4.71925e-06
2.46051e-08
-5.16684e-09
6.50538e-06
6.06672e-08
-7.05445e-09
5.8158e-06
-2.07181e-08
4.76382e-06
7.94072e-08
-1.53551e-07
7.86692e-08
3.56024e-06
1.88869e-07
-2.01239e-08
5.88627e-08
3.76288e-06
-5.60808e-09
3.15713e-08
3.39445e-06
8.49833e-09
1.51742e-08
4.89997e-06
4.13297e-08
1.82028e-08
6.41381e-06
6.49184e-08
1.75875e-08
5.85933e-06
-8.99577e-10
4.81785e-06
8.08272e-08
-6.21496e-08
4.06687e-06
1.58678e-07
1.25441e-07
-1.98478e-08
3.53135e-06
1.10481e-07
-8.71609e-09
4.12262e-06
7.88586e-08
3.01887e-10
6.02471e-06
6.42867e-08
2.80887e-08
6.4255e-06
4.32992e-08
5.44605e-08
5.6915e-06
3.53711e-08
4.71924e-06
7.56744e-08
1.17358e-08
-6.47973e-08
-4.73808e-08
6.18945e-06
1.07358e-07
8.60939e-08
-3.12791e-08
-3.56194e-08
6.06401e-06
8.885e-08
1.4514e-08
-6.94951e-08
5.70112e-06
1.09168e-07
6.35345e-08
-1.01509e-07
5.17427e-06
1.31776e-07
1.09854e-07
-1.29972e-07
4.55969e-06
1.53307e-07
1.48904e-07
-1.54068e-07
3.92407e-06
1.72871e-07
-1.73689e-07
3.30339e-06
1.76245e-07
1.89526e-07
-7.2782e-08
8.13384e-10
6.59192e-06
1.13713e-07
-5.64496e-08
2.89221e-08
6.67959e-06
-1.57307e-08
-1.3174e-08
6.18703e-06
4.68919e-08
-6.93292e-08
5.97856e-06
1.01893e-07
-1.00988e-07
5.27987e-06
1.47004e-07
-1.27911e-07
4.48644e-06
-1.49049e-07
3.75108e-06
1.79803e-07
-3.7967e-08
4.44792e-09
4.26533e-06
9.6913e-08
-3.81704e-08
2.6474e-08
3.95196e-06
-1.83875e-08
6.63082e-09
4.74702e-06
4.53158e-08
-2.867e-08
6.09338e-06
1.02905e-07
-5.79086e-08
5.87062e-06
1.50655e-07
-9.30459e-08
5.0189e-06
-1.14839e-07
4.15606e-06
1.85185e-07
-1.27218e-08
-1.25494e-08
3.57344e-06
8.43714e-08
-1.65084e-08
-1.26834e-08
3.25824e-06
-1.3787e-08
-8.26951e-08
3.32234e-06
3.55213e-08
-1.17928e-08
4.88209e-06
1.05164e-07
-2.32292e-08
6.04394e-06
1.53717e-07
-5.06445e-08
5.45362e-06
-7.31613e-08
4.48018e-06
1.88884e-07
-1.03039e-07
1.40164e-08
3.77854e-06
1.14559e-07
-9.61711e-08
-2.18217e-08
6.32662e-06
-1.5575e-08
-9.55967e-09
6.03578e-06
4.78087e-09
-8.93375e-09
4.62041e-06
9.04626e-08
-4.66624e-09
6.3688e-06
1.4627e-07
-1.12708e-08
5.72075e-06
-3.04142e-08
4.68229e-06
1.85156e-07
-7.88625e-08
4.62173e-08
3.6852e-06
1.8028e-07
-6.14743e-08
-1.40443e-08
3.68239e-06
-9.36567e-09
-1.49921e-11
3.34479e-06
1.53605e-08
1.61177e-08
4.82857e-06
8.29106e-08
3.27078e-08
6.27984e-06
1.3519e-07
3.35672e-08
5.76233e-06
1.24117e-08
4.73475e-06
1.75525e-07
-6.83732e-08
4.26267e-06
1.73981e-07
1.04756e-07
-3.80179e-08
3.82284e-06
8.76678e-08
-3.34365e-08
4.25242e-06
5.96435e-08
-1.56749e-08
5.94761e-06
7.03191e-08
4.99589e-08
6.30587e-06
6.76319e-08
1.11008e-07
5.59775e-06
6.63755e-08
4.63926e-06
1.58964e-07
4.44741e-08
-1.07401e-07
-1.14368e-07
2.01077e-07
1.62843e-07
6.04729e-06
-2.51565e-08
-1.42179e-07
2.01951e-07
5.92228e-06
5.83664e-08
-1.83245e-07
2.36348e-07
5.56471e-06
1.36381e-07
-2.20691e-07
2.6924e-07
5.04776e-06
2.06461e-07
-2.55344e-07
2.99686e-07
4.44531e-06
2.64891e-07
-2.8376e-07
3.26342e-07
3.82312e-06
-3.02642e-07
3.12299e-07
3.44237e-07
3.21452e-06
-1.25128e-07
-3.3842e-08
2.08442e-07
6.41034e-06
-4.99311e-08
-4.15418e-08
6.48585e-06
2.82377e-08
-1.01367e-07
6.0177e-06
1.24354e-07
-1.68762e-07
5.83843e-06
2.03863e-07
-2.04352e-07
5.14965e-06
2.712e-07
-2.3453e-07
4.36992e-06
-2.55415e-07
3.28218e-07
3.64682e-06
-8.35123e-08
1.37345e-09
1.90942e-07
3.99587e-06
-3.96822e-08
1.60678e-08
3.49247e-06
1.4042e-08
-1.63547e-08
4.57452e-06
1.22237e-07
-8.24533e-08
5.84246e-06
2.05992e-07
-1.30138e-07
5.72479e-06
2.76444e-07
-1.72939e-07
4.88682e-06
-1.94063e-07
3.34528e-07
4.03666e-06
-1.02284e-07
4.13213e-08
2.10873e-07
3.40305e-06
-3.36505e-08
7e-08
3.2682e-06
6.33653e-09
4.22021e-08
3.22812e-06
1.14264e-07
-7.01224e-09
4.69105e-06
2.1241e-07
-5.70878e-08
5.87838e-06
2.79423e-07
-9.46917e-08
5.3084e-06
-1.19284e-07
3.35512e-07
4.34931e-06
-5.95989e-08
4.26454e-08
1.10396e-07
3.8508e-06
-5.55354e-08
3.25163e-09
4.39107e-06
-1.69107e-08
4.66979e-09
5.0294e-06
5.8113e-08
1.86863e-08
4.25133e-06
1.91264e-07
5.91891e-09
6.17629e-06
2.64837e-07
-1.31235e-08
5.56566e-06
-3.86453e-08
3.22533e-07
4.54393e-06
-1.60743e-07
9.7446e-08
2.48172e-07
3.62626e-06
-1.98008e-08
5.69082e-08
2.94197e-06
-1.31798e-08
4.97901e-08
3.23793e-06
4.58064e-08
7.27081e-08
4.55699e-06
1.57114e-07
7.67177e-08
6.09606e-06
2.34564e-07
6.84735e-08
5.60332e-06
4.09754e-08
2.96362e-07
4.59336e-06
-1.22544e-07
2.81201e-07
1.62997e-07
4.17038e-06
-7.15434e-08
1.42666e-07
3.70902e-06
-6.37918e-08
1.20562e-07
4.123e-06
-1.46681e-08
1.53092e-07
5.70414e-06
9.7247e-08
1.4486e-07
6.11792e-06
1.85666e-07
1.38551e-07
5.43929e-06
2.50884e-07
1.17643e-07
4.49743e-06
4.14354e-08
-1.23903e-08
1.72643e-06
1.96121e-09
4.80223e-08
-1.3946e-08
1.73438e-06
1.43926e-09
5.03915e-08
-1.55496e-08
1.65992e-06
8.49233e-10
4.81258e-08
-1.72856e-08
1.52384e-06
4.46421e-10
4.11927e-08
-1.91813e-08
1.34136e-06
2.5304e-10
2.99995e-08
-2.12754e-08
1.11868e-06
3.03358e-10
1.55005e-08
-2.36314e-08
8.40386e-07
7.26087e-10
-2.55473e-08
4.04448e-07
2.62741e-09
4.91995e-08
-1.86835e-08
2.45519e-06
5.6425e-08
-2.37328e-08
2.34396e-06
5.87827e-08
-2.87907e-08
2.15984e-06
5.59801e-08
-3.38366e-08
1.92155e-06
4.80597e-08
-3.87971e-08
1.64376e-06
3.53633e-08
-4.35814e-08
1.33173e-06
1.84923e-08
-4.79979e-08
9.65371e-07
-5.07323e-08
4.19142e-07
6.27904e-08
-1.93455e-08
3.06887e-06
6.9904e-08
-2.85783e-08
2.88073e-06
7.14201e-08
-3.77319e-08
2.62254e-06
6.70679e-08
-4.66106e-08
2.31538e-06
5.69641e-08
-5.49996e-08
1.97417e-06
4.15421e-08
-6.26875e-08
1.60337e-06
2.16423e-08
-6.93661e-08
1.17917e-06
-7.3184e-08
5.57543e-07
7.82841e-08
-1.48272e-08
3.45083e-06
8.45532e-08
-2.81996e-08
3.24705e-06
8.47037e-08
-4.13019e-08
2.97367e-06
7.84837e-08
-5.37755e-08
2.65242e-06
6.60905e-08
-6.52849e-08
2.29827e-06
4.79729e-08
-7.55524e-08
1.91513e-06
2.50583e-08
-8.41763e-08
1.47679e-06
-8.88956e-08
8.27015e-07
8.69735e-08
-1.04549e-08
3.50188e-06
9.35982e-08
-2.59449e-08
3.35652e-06
9.33476e-08
-4.13165e-08
3.13839e-06
8.61377e-08
-5.59135e-08
2.86839e-06
7.22408e-08
-6.92753e-08
2.56105e-06
5.22611e-08
-8.10626e-08
2.2199e-06
2.7305e-08
-9.08477e-08
1.8181e-06
-9.63833e-08
1.19547e-06
8.58228e-08
-1.01692e-08
3.1842e-06
9.34052e-08
-2.51525e-08
3.16584e-06
9.37837e-08
-4.04534e-08
3.0679e-06
8.68269e-08
-5.50219e-08
2.90917e-06
7.28685e-08
-6.84232e-08
2.70388e-06
5.27387e-08
-8.03495e-08
2.45582e-06
2.77518e-08
-9.0364e-08
2.1395e-06
-9.56726e-08
1.59963e-06
7.98493e-08
2.53101e-06
-1.44028e-08
8.80143e-08
2.68903e-06
-2.73814e-08
8.8717e-08
2.75223e-06
-3.99221e-08
8.17534e-08
2.74352e-06
-5.20231e-08
6.77205e-08
2.67767e-06
-6.35654e-08
4.77386e-08
2.55885e-06
-7.4396e-08
2.35715e-08
2.36412e-06
-8.43788e-08
1.94937e-06
-9.27038e-08
3.20653e-08
-1.45113e-08
1.72635e-06
4.59449e-09
3.91625e-08
-1.64589e-08
1.73942e-06
4.30581e-09
4.24642e-08
-1.82661e-08
1.67085e-06
4.04224e-09
4.17173e-08
-2.0085e-08
1.54077e-06
3.96756e-09
3.71827e-08
-2.19725e-08
1.3639e-06
4.05328e-09
2.95011e-08
-2.39735e-08
1.14608e-06
4.33647e-09
1.87042e-08
-2.60763e-08
8.72316e-07
4.99783e-09
-2.73587e-08
4.435e-07
7.10073e-09
3.85619e-08
-2.10593e-08
2.45e-06
4.65342e-08
-2.643e-08
2.34602e-06
4.9991e-08
-3.15005e-08
2.16969e-06
4.88003e-08
-3.6384e-08
1.93914e-06
4.32568e-08
-4.10408e-08
1.66848e-06
3.39426e-08
-4.53888e-08
1.36256e-06
2.07622e-08
-4.91388e-08
1.00172e-06
-5.06002e-08
4.63241e-07
4.90193e-08
-2.28655e-08
3.0575e-06
5.75803e-08
-3.22319e-08
2.87805e-06
6.08067e-08
-4.10723e-08
2.62901e-06
5.85678e-08
-4.94165e-08
2.3308e-06
5.12347e-08
-5.71432e-08
1.99778e-06
3.94949e-08
-6.40838e-08
1.63398e-06
2.37003e-08
-6.98516e-08
1.21585e-06
-7.22683e-08
6.03022e-07
6.06709e-08
-2.02852e-08
3.43441e-06
6.91358e-08
-3.31617e-08
3.23967e-06
7.16772e-08
-4.54202e-08
2.97569e-06
6.81916e-08
-5.68568e-08
2.66358e-06
5.90702e-08
-6.7286e-08
2.3178e-06
4.50673e-08
-7.64902e-08
1.94179e-06
2.67127e-08
-8.40398e-08
1.50954e-06
-8.75227e-08
8.6907e-07
6.73976e-08
-1.74852e-08
3.48367e-06
7.62398e-08
-3.1594e-08
3.3463e-06
7.84436e-08
-4.55155e-08
3.13656e-06
7.41239e-08
-5.8588e-08
2.87475e-06
6.37181e-08
-7.05142e-08
2.57492e-06
4.80905e-08
-8.09926e-08
2.24025e-06
2.79031e-08
-8.95801e-08
1.84401e-06
-9.398e-08
1.22986e-06
6.80597e-08
-1.66566e-08
3.16819e-06
7.67705e-08
-2.98794e-08
3.15563e-06
7.87441e-08
-4.33682e-08
3.06403e-06
7.40929e-08
-5.61916e-08
2.91165e-06
6.33254e-08
-6.80408e-08
2.71231e-06
4.73925e-08
-7.86182e-08
2.46948e-06
2.70744e-08
-8.74768e-08
2.15775e-06
-9.18767e-08
1.6247e-06
6.51164e-08
2.51994e-06
-1.78678e-08
7.28934e-08
2.68103e-06
-2.94641e-08
7.41883e-08
2.74817e-06
-4.04685e-08
6.89183e-08
2.74372e-06
-5.10422e-08
5.7715e-08
2.68204e-06
-6.11772e-08
4.16425e-08
2.56701e-06
-7.07203e-08
2.20225e-08
2.37574e-06
-7.95189e-08
1.96613e-06
-8.66919e-08
4.70433e-08
-2.05943e-08
1.73001e-06
5.8281e-09
5.40255e-08
-2.28872e-08
1.7494e-06
5.958e-09
5.57857e-08
-2.50677e-08
1.68815e-06
6.0002e-09
5.15602e-08
-2.71876e-08
1.56608e-06
6.08263e-09
4.14363e-08
-2.94313e-08
1.39724e-06
6.19005e-09
2.66565e-08
-3.19398e-08
1.1865e-06
6.31118e-09
1.14403e-08
-3.48294e-08
9.15906e-07
6.47252e-09
-3.73464e-08
4.85248e-07
7.12189e-09
5.4222e-08
-3.08556e-08
2.44796e-06
6.21059e-08
-3.65741e-08
2.35188e-06
6.4369e-08
-4.20983e-08
2.18446e-06
6.02885e-08
-4.74026e-08
1.96341e-06
4.98678e-08
-5.26217e-08
1.70206e-06
3.4158e-08
-5.78574e-08
1.40418e-06
1.69999e-08
-6.31674e-08
1.04725e-06
-6.77474e-08
5.10683e-07
6.41836e-08
-3.55892e-08
3.04883e-06
7.25467e-08
-4.49411e-08
2.87806e-06
7.45781e-08
-5.38715e-08
2.63874e-06
6.96021e-08
-6.23758e-08
2.35077e-06
5.75871e-08
-7.04556e-08
2.02767e-06
3.9483e-08
-7.80949e-08
1.67234e-06
1.90142e-08
-8.52401e-08
1.25841e-06
-9.08058e-08
6.45089e-07
7.33026e-08
-3.56837e-08
3.42039e-06
8.14915e-08
-4.7487e-08
3.23409e-06
8.27262e-08
-5.88729e-08
2.97952e-06
7.64407e-08
-6.97384e-08
2.67729e-06
6.26596e-08
-7.98887e-08
2.34106e-06
4.22857e-08
-8.91258e-08
1.97323e-06
1.86243e-08
-9.71696e-08
1.54515e-06
-1.02222e-07
8.99083e-07
7.84325e-08
-3.39499e-08
3.46754e-06
8.59663e-08
-4.58426e-08
3.3373e-06
8.61356e-08
-5.78435e-08
3.13552e-06
7.86375e-08
-6.95138e-08
2.88209e-06
6.36595e-08
-8.04225e-08
2.59043e-06
4.21705e-08
-9.01815e-08
2.26281e-06
1.71115e-08
-9.83183e-08
1.87027e-06
-1.0255e-07
1.24726e-06
7.9116e-08
-3.15638e-08
3.15383e-06
8.472e-08
-4.19149e-08
3.1463e-06
8.34793e-08
-5.29387e-08
3.06048e-06
7.51501e-08
-6.38858e-08
2.91436e-06
6.00654e-08
-7.42784e-08
2.72122e-06
3.92585e-08
-8.37073e-08
2.4838e-06
1.53998e-08
-9.16605e-08
2.17495e-06
-9.53985e-08
1.63295e-06
7.5413e-08
2.51018e-06
-2.98408e-08
7.89985e-08
2.67389e-06
-3.82505e-08
7.63744e-08
2.74449e-06
-4.6664e-08
6.7275e-08
2.74407e-06
-5.52172e-08
5.22135e-08
2.68653e-06
-6.37309e-08
3.23568e-08
2.57512e-06
-7.19493e-08
1.06035e-08
2.38547e-06
-7.96496e-08
1.96727e-06
-8.5779e-08
5.98072e-08
-2.89705e-08
1.73088e-06
1.30337e-08
6.89146e-08
-3.11206e-08
1.75694e-06
1.46121e-08
7.01255e-08
-3.325e-08
1.70415e-06
1.60536e-08
6.33046e-08
-3.54004e-08
1.59056e-06
1.77315e-08
4.95553e-08
-3.74945e-08
1.42878e-06
1.9768e-08
3.06714e-08
-3.94642e-08
1.22271e-06
2.2275e-08
5.72153e-09
-4.10501e-08
9.56224e-07
2.5809e-08
-4.08738e-08
4.99903e-07
3.20734e-08
7.17249e-08
-4.18657e-08
2.44445e-06
8.16578e-08
-4.67543e-08
2.35768e-06
8.27479e-08
-5.11971e-08
2.20136e-06
7.42196e-08
-5.51438e-08
1.99173e-06
5.6737e-08
-5.84602e-08
1.7406e-06
3.20913e-08
-6.09024e-08
1.45038e-06
8.3415e-10
-6.17354e-08
1.0993e-06
-5.71573e-08
5.27755e-07
8.40406e-08
-4.88619e-08
3.03862e-06
9.45515e-08
-5.71328e-08
2.87794e-06
9.60343e-08
-6.46414e-08
2.65066e-06
8.74612e-08
-7.12239e-08
2.37541e-06
6.91274e-08
-7.66906e-08
2.06425e-06
4.26381e-08
-8.07211e-08
1.71867e-06
8.28127e-09
-8.23218e-08
1.31334e-06
-7.64063e-08
6.72614e-07
9.32074e-08
-4.99139e-08
3.40366e-06
1.04001e-07
-6.03429e-08
3.22644e-06
1.06029e-07
-7.00823e-08
2.98283e-06
9.85514e-08
-7.88894e-08
2.69235e-06
8.18902e-08
-8.64623e-08
2.36743e-06
5.74246e-08
-9.24413e-08
2.00936e-06
2.41648e-08
-9.58871e-08
1.59194e-06
-9.18869e-08
9.38794e-07
9.66063e-08
-4.65949e-08
3.447e-06
1.06758e-07
-5.68168e-08
3.3235e-06
1.08859e-07
-6.68965e-08
3.13009e-06
1.02668e-07
-7.64597e-08
2.88575e-06
8.87555e-08
-8.5073e-08
2.60289e-06
6.82998e-08
-9.23588e-08
2.28314e-06
3.90338e-08
-9.75664e-08
1.90127e-06
-9.68158e-08
1.29127e-06
9.44619e-08
-3.97248e-08
3.13328e-06
1.02461e-07
-4.82361e-08
3.12959e-06
1.0407e-07
-5.71865e-08
3.04906e-06
9.91216e-08
-6.60348e-08
2.90884e-06
8.81751e-08
-7.44088e-08
2.72153e-06
7.20525e-08
-8.19961e-08
2.48963e-06
4.75582e-08
-8.82556e-08
2.19023e-06
-9.06247e-08
1.67424e-06
8.56634e-08
2.49296e-06
-3.25809e-08
9.20756e-08
2.6575e-06
-3.83449e-08
9.33767e-08
2.73047e-06
-4.44834e-08
8.93887e-08
2.73304e-06
-5.09689e-08
8.05649e-08
2.67861e-06
-5.75618e-08
6.74461e-08
2.57043e-06
-6.40463e-08
4.68761e-08
2.38797e-06
-7.0101e-08
1.99787e-06
-7.3864e-08
2.32662e-07
-5.5036e-08
1.72064e-06
8.61842e-09
2.82634e-07
-5.88399e-08
1.75575e-06
9.89167e-09
3.21057e-07
-6.18676e-08
1.71682e-06
1.08203e-08
3.41176e-07
-6.45286e-08
1.62342e-06
1.16895e-08
3.37237e-07
-6.71123e-08
1.48764e-06
1.23429e-08
3.05892e-07
-6.99362e-08
1.31167e-06
1.23986e-08
2.37658e-07
-7.31653e-08
1.08629e-06
1.1288e-08
-7.46028e-08
8.04495e-07
7.60062e-09
2.37957e-07
-8.4728e-08
2.41587e-06
2.91673e-07
-9.28687e-08
2.33806e-06
3.3521e-07
-9.96179e-08
2.19579e-06
3.61956e-07
-1.05818e-07
2.00655e-06
3.65964e-07
-1.11998e-07
1.78171e-06
3.42881e-07
-1.18832e-07
1.52251e-06
2.77365e-07
-1.2717e-07
1.21888e-06
-1.35629e-07
8.66189e-07
2.42004e-07
-9.64143e-08
2.9936e-06
2.94846e-07
-1.07935e-07
2.84039e-06
3.38749e-07
-1.18332e-07
2.62572e-06
3.67291e-07
-1.2803e-07
2.36928e-06
3.74229e-07
-1.37546e-07
2.083e-06
3.54445e-07
-1.4771e-07
1.76742e-06
2.90814e-07
-1.59841e-07
1.40971e-06
-1.7442e-07
1.00225e-06
2.40524e-07
-9.24708e-08
3.34825e-06
2.87858e-07
-1.05134e-07
3.17645e-06
3.26553e-07
-1.17236e-07
2.94319e-06
3.50715e-07
-1.28662e-07
2.66901e-06
3.54298e-07
-1.39757e-07
2.36624e-06
3.32364e-07
-1.51303e-07
2.03501e-06
2.71168e-07
-1.64679e-07
1.65805e-06
-1.81606e-07
1.21716e-06
2.29737e-07
-7.94956e-08
3.3895e-06
2.69056e-07
-9.0313e-08
3.26937e-06
2.99454e-07
-1.01318e-07
3.08387e-06
3.1563e-07
-1.11895e-07
2.853e-06
3.12082e-07
-1.22147e-07
2.58905e-06
2.84788e-07
-1.3267e-07
2.29196e-06
2.26528e-07
-1.44638e-07
1.93956e-06
-1.5948e-07
1.49572e-06
2.10782e-07
-6.42134e-08
3.08275e-06
2.41208e-07
-7.20544e-08
3.08095e-06
2.62995e-07
-8.04069e-08
3.00651e-06
2.70921e-07
-8.85701e-08
2.8778e-06
2.59873e-07
-9.66195e-08
2.70726e-06
2.26746e-07
-1.04988e-07
2.49527e-06
1.71101e-07
-1.14653e-07
2.21604e-06
-1.26217e-07
1.81193e-06
1.85884e-07
2.45672e-06
-5.48011e-08
2.09046e-07
2.6216e-06
-5.91559e-08
2.24092e-07
2.69888e-06
-6.36143e-08
2.25889e-07
2.71112e-06
-6.82531e-08
2.09623e-07
2.67165e-06
-7.32744e-08
1.72813e-07
2.58156e-06
-7.91397e-08
1.19819e-07
2.41311e-06
-8.66211e-08
2.08685e-06
-9.5291e-08
4.34898e-07
-8.34158e-08
1.90809e-08
1.6624e-06
5.54621e-07
-8.64977e-08
2.40573e-08
1.69847e-06
6.59247e-07
-9.03168e-08
2.97747e-08
1.67285e-06
7.33236e-07
-9.42758e-08
3.6952e-08
1.60674e-06
7.53362e-07
-9.79339e-08
4.60325e-08
1.51926e-06
6.82463e-07
-1.01023e-07
5.76544e-08
1.42579e-06
4.61583e-07
-1.02202e-07
7.29239e-08
1.33639e-06
-9.56783e-08
9.38296e-08
1.26785e-06
4.51929e-07
-1.29304e-07
2.33803e-06
5.74734e-07
-1.33645e-07
2.26243e-06
6.83698e-07
-1.36963e-07
2.1335e-06
7.61928e-07
-1.3841e-07
1.97244e-06
7.83707e-07
-1.37197e-07
1.79916e-06
7.08917e-07
-1.324e-07
1.62867e-06
4.79787e-07
-1.21947e-07
1.46786e-06
-9.65815e-08
1.34697e-06
4.49961e-07
-1.47944e-07
2.89684e-06
5.67614e-07
-1.54718e-07
2.7439e-06
6.75443e-07
-1.58727e-07
2.5397e-06
7.56848e-07
-1.59225e-07
2.30869e-06
7.85712e-07
-1.55446e-07
2.07236e-06
7.19279e-07
-1.46165e-07
1.8476e-06
4.94564e-07
-1.2849e-07
1.64101e-06
-9.1209e-08
1.4914e-06
4.37462e-07
-1.40134e-07
3.2385e-06
5.42745e-07
-1.47555e-07
3.06401e-06
6.4089e-07
-1.50915e-07
2.83721e-06
7.16976e-07
-1.49659e-07
2.58336e-06
7.47013e-07
-1.4332e-07
2.32412e-06
6.89462e-07
-1.30805e-07
2.07727e-06
4.76375e-07
-1.09287e-07
1.85187e-06
-7.04974e-08
1.67282e-06
4.10009e-07
-1.14364e-07
3.27626e-06
5.00149e-07
-1.18822e-07
3.15053e-06
5.84257e-07
-1.1874e-07
2.96765e-06
6.50013e-07
-1.13749e-07
2.75143e-06
6.77484e-07
-1.03832e-07
2.52222e-06
6.29667e-07
-8.84509e-08
2.29753e-06
4.36476e-07
-6.54623e-08
2.08888e-06
-3.01008e-08
1.89186e-06
3.71382e-07
-8.34406e-08
2.9769e-06
4.48852e-07
-8.24692e-08
2.9672e-06
5.21131e-07
-7.72344e-08
2.89281e-06
5.78284e-07
-6.75366e-08
2.77451e-06
6.04284e-07
-5.3848e-08
2.63138e-06
5.6736e-07
-3.61706e-08
2.47998e-06
3.96744e-07
-1.29536e-08
2.33415e-06
1.51949e-08
2.16307e-06
3.15536e-07
-5.85716e-08
2.36729e-06
3.84628e-07
-5.057e-08
2.52074e-06
4.51311e-07
-4.01213e-08
2.59518e-06
5.08345e-07
-2.68288e-08
2.61339e-06
5.42627e-07
-1.04404e-08
2.59399e-06
5.25882e-07
9.7716e-09
2.55243e-06
3.87746e-07
3.51601e-08
2.50329e-06
6.91591e-08
2.42021e-06
1.07148e-07
1.10353e-08
4.59481e-06
-2.3215e-08
1.16039e-07
-2.47256e-09
6.38306e-06
-1.73335e-08
1.28491e-07
-2.19753e-08
6.80676e-06
-3.28683e-09
1.3129e-07
-3.16195e-08
7.08906e-06
1.00664e-08
1.17972e-07
-3.46298e-08
7.29012e-06
2.04135e-08
8.87986e-08
-3.80285e-08
7.40462e-06
2.95696e-08
4.72839e-08
-4.43863e-08
7.37285e-06
3.86273e-08
-5.51291e-08
6.86747e-06
4.76614e-08
2.80277e-07
5.16235e-09
4.49105e-06
3.01127e-07
-4.57284e-09
7.08309e-06
2.88584e-07
-2.59803e-08
8.57806e-06
2.69167e-07
-3.19437e-08
8.65789e-06
2.33852e-07
-2.82994e-08
8.69004e-06
1.78173e-07
-2.2891e-08
8.66131e-06
1.00265e-07
-1.86047e-08
8.49615e-06
-1.6463e-08
7.81655e-06
2.06753e-07
-2.08379e-08
4.83609e-06
2.95408e-07
-4.24812e-08
7.55479e-06
3.06076e-07
-4.54488e-08
9.48695e-06
2.93894e-07
-3.16126e-08
9.42121e-06
2.57871e-07
-1.47195e-08
9.3329e-06
1.96798e-07
2.53653e-09
9.19688e-06
1.10988e-07
1.87109e-08
8.93893e-06
3.51199e-08
8.14853e-06
2.25546e-07
-4.1326e-08
4.10626e-06
3.05474e-07
-5.66257e-08
7.6902e-06
3.00993e-07
-3.45492e-08
9.18503e-06
2.81836e-07
-1.29979e-08
9.11674e-06
2.43351e-07
1.00884e-08
9.01067e-06
1.84276e-07
3.38722e-08
8.85785e-06
1.03566e-07
5.86408e-08
8.58843e-06
8.61426e-08
7.7915e-06
1.71979e-07
-6.86431e-08
5.68291e-06
1.90278e-07
-4.5847e-08
7.72777e-06
1.93019e-07
-1.96492e-08
7.88891e-06
1.81136e-07
5.49529e-09
7.91565e-06
1.55024e-07
2.97154e-08
7.87732e-06
1.15269e-07
5.39044e-08
7.77911e-06
6.25095e-08
7.9369e-08
7.55834e-06
1.06282e-07
6.85518e-06
1.18263e-07
-4.35459e-08
5.4887e-06
1.18322e-07
-2.24647e-08
5.93748e-06
1.13801e-07
5.73236e-10
6.14903e-06
1.03497e-07
2.18312e-08
6.26956e-06
8.52462e-08
4.33336e-08
6.31614e-06
6.02044e-08
6.43406e-08
6.28731e-06
3.05037e-08
8.50915e-08
6.13987e-06
1.0483e-07
5.58197e-06
8.32262e-08
3.75787e-06
-2.00412e-08
7.7222e-08
4.12854e-06
-2.24344e-09
7.04622e-08
4.39531e-06
1.62706e-08
6.09206e-08
4.57455e-06
3.37609e-08
4.88109e-08
4.67966e-06
5.0781e-08
3.42216e-08
4.71099e-06
6.73999e-08
1.79183e-08
4.6317e-06
8.38122e-08
4.22128e-06
1.0007e-07
1.26188e-07
1.08865e-08
4.43895e-06
-2.63046e-08
1.46482e-07
-8.61073e-09
6.3856e-06
-1.36244e-08
1.592e-07
-2.14182e-08
6.81585e-06
-4.11461e-10
1.55042e-07
-2.19637e-08
7.10541e-06
9.82124e-09
1.33817e-07
-2.26953e-08
7.31641e-06
1.76387e-08
9.84519e-08
-2.7571e-08
7.44191e-06
2.57029e-08
5.20831e-08
-3.59497e-08
7.42095e-06
3.42445e-08
-4.90162e-08
6.92541e-06
4.31927e-08
2.1504e-07
-3.48629e-08
4.22816e-06
2.67346e-07
-3.62402e-08
6.79119e-06
2.73646e-07
-3.80373e-08
8.5883e-06
2.63222e-07
-2.6361e-08
8.67265e-06
2.3218e-07
-1.71533e-08
8.71553e-06
1.78463e-07
-1.25193e-08
8.70006e-06
1.01224e-07
-1.07301e-08
8.54753e-06
-1.1698e-08
7.88048e-06
1.697e-07
-6.82652e-08
4.48141e-06
2.31775e-07
-8.20338e-08
7.24905e-06
2.56692e-07
-6.37171e-08
9.48895e-06
2.59141e-07
-3.37075e-08
9.42609e-06
2.36015e-07
-1.07508e-08
9.34965e-06
1.85357e-07
6.38656e-09
9.22826e-06
1.07172e-07
2.1065e-08
8.98526e-06
3.53326e-08
8.20868e-06
1.92371e-07
-6.9042e-08
3.79174e-06
2.53422e-07
-8.53446e-08
7.45768e-06
2.53733e-07
-4.74221e-08
9.16838e-06
2.44458e-07
-1.71922e-08
9.10948e-06
2.17648e-07
8.76271e-09
9.01567e-06
1.69335e-07
3.23386e-08
8.88013e-06
9.74318e-08
5.57972e-08
8.62607e-06
8.14204e-08
7.84264e-06
1.4506e-07
-8.90118e-08
5.56908e-06
1.52126e-07
-5.7595e-08
7.68556e-06
1.56129e-07
-2.63107e-08
7.86387e-06
1.50556e-07
1.13414e-09
7.90285e-06
1.32855e-07
2.53177e-08
7.87826e-06
1.01767e-07
4.88272e-08
7.79361e-06
5.69039e-08
7.30391e-08
7.58398e-06
9.88213e-08
6.89469e-06
9.05814e-08
-5.18814e-08
5.4419e-06
8.81401e-08
-2.68738e-08
5.90916e-06
8.52392e-08
-3.24485e-09
6.12897e-06
7.89971e-08
1.75196e-08
6.25946e-06
6.61003e-08
3.78859e-08
6.31228e-06
4.76622e-08
5.76635e-08
6.29847e-06
2.47142e-08
7.71928e-08
6.15847e-06
9.58735e-08
5.60965e-06
6.12946e-08
3.73784e-06
-2.16777e-08
5.48855e-08
4.11182e-06
-3.68758e-09
4.94137e-08
4.38375e-06
1.38536e-08
4.26482e-08
4.56899e-06
2.99157e-08
3.43355e-08
4.68016e-06
4.55475e-08
2.45086e-08
4.71754e-06
6.08188e-08
1.34803e-08
4.64398e-06
7.59712e-08
4.23952e-06
9.10913e-08
2.06476e-07
-4.3055e-09
4.43765e-06
-9.74074e-09
2.27029e-07
-1.44522e-08
6.3929e-06
-2.15699e-09
2.25621e-07
-1.57384e-08
6.83085e-06
2.24116e-09
2.05416e-07
-1.17877e-08
7.13126e-06
6.07328e-09
1.70184e-07
-1.44424e-08
7.35451e-06
1.15629e-08
1.22197e-07
-2.16194e-08
7.49272e-06
1.87106e-08
6.35964e-08
-3.1582e-08
7.48421e-06
2.6828e-08
-4.60685e-08
6.99913e-06
3.59138e-08
2.54633e-07
-3.65251e-08
3.52255e-06
3.6721e-07
-2.96065e-08
6.74936e-06
3.60507e-07
-2.16506e-08
8.60094e-06
3.32878e-07
-1.01144e-08
8.69853e-06
2.84122e-07
-6.27388e-09
8.75601e-06
2.12842e-07
-6.78592e-09
8.75501e-06
1.18431e-07
-8.44293e-09
8.61739e-06
-1.15726e-08
7.9644e-06
2.28002e-07
-5.13534e-08
3.49487e-06
3.39464e-07
-5.63803e-08
7.05529e-06
3.49382e-07
-3.5149e-08
9.49311e-06
3.34142e-07
-1.28744e-08
9.44398e-06
2.9297e-07
1.14167e-09
9.38331e-06
2.23834e-07
1.14188e-08
9.27868e-06
1.26512e-07
2.18525e-08