/*--------------------------------*- C++ -*----------------------------------*\
| =========                 |                                                 |
| \\      /  F ield         | OpenFOAM: The Open Source CFD Toolbox           |
|  \\    /   O peration     | Version:  plus.master.MPPICInterFoam            |
|   \\  /    A nd           | Web:      www.OpenFOAM.com                      |
|    \\/     M anipulation  |                                                 |
\*---------------------------------------------------------------------------*/
FoamFile
{
    version     2.0;
    format      ascii;
    class       volScalarField;
    location    "13.8";
    object      p;
}
// * * * * * * * * * * * * * * * * * * * * * * * * * * * * * * * * * * * * * //

dimensions      [1 -1 -2 0 0 0 0];

internalField   nonuniform List<scalar> 
11822
(
775.251
775.208
775.034
774.835
774.632
774.43
774.246
776.252
776.098
775.833
775.295
774.952
774.679
774.431
780.313
780.673
779.027
776.709
775.506
774.996
774.633
784.007
783.915
781.567
778.898
776.401
775.387
774.824
784.758
782.233
780.521
779.861
776.559
775.519
774.893
783.968
784.623
782.411
778.95
776.375
775.365
774.834
780.347
780.421
779.711
777.1
775.469
774.93
774.634
681.87
681.875
681.942
681.952
681.955
681.932
681.895
681.779
681.71
682.073
682.002
682.035
682.036
681.977
684.548
685.337
684.326
682.728
682.247
682.173
682.076
685.931
688.122
687.251
684.584
682.746
682.406
682.185
681.271
683.061
684.692
685.027
682.716
682.435
682.208
682.89
687.017
686.41
684.444
682.663
682.355
682.173
683.492
684.479
684.806
683.136
682.155
682.086
682.046
589.283
589.144
589.202
589.224
589.242
589.247
589.229
589.258
588.733
589.268
589.234
589.279
589.324
589.308
592.318
593.115
591.624
589.986
589.488
589.453
589.407
595.189
594.872
593.895
591.872
589.822
589.618
589.511
594.411
593.397
594.623
591.946
589.636
589.633
589.552
590.86
594.788
594.403
591.784
589.838
589.667
589.581
592.348
593.585
593
590.795
589.619
589.543
589.54
497.776
497.596
497.7
497.693
497.662
497.651
497.653
498.038
497.342
498.062
497.881
497.738
497.728
497.708
501.306
501.892
500.511
498.879
498.042
497.875
497.804
504.512
500.51
499.737
500.161
498.186
497.995
497.898
504.557
501.713
504.552
500.177
498.043
498.068
497.976
503.616
504.958
504.421
500.86
498.578
498.22
498.066
503.763
504.531
503.051
499.948
498.439
498.148
498.078
405.494
405.465
405.452
405.19
404.812
404.367
403.854
406.159
405.889
406.272
405.751
405.262
404.806
404.297
409.335
409.624
409
407.05
405.856
405.232
404.676
411.45
407.688
408.403
408.044
406.291
405.566
404.979
412.554
408.009
409.917
407.61
406.093
405.721
405.166
412.226
412.164
411.838
408.323
406.434
405.81
405.268
411.26
411.357
410.273
407.503
406.142
405.643
405.195
316.822
316.735
316.662
316.488
316.27
316.05
315.971
316.863
316.735
316.924
316.716
316.544
316.333
316.135
319.332
319.587
318.841
317.606
316.984
316.695
316.419
321.07
321.534
321.362
318.994
317.57
317.077
316.716
321.518
317.814
318.433
319.115
317.39
317.249
316.94
320.968
321.399
321.073
319.044
317.669
317.359
317.111
319.937
320.013
319.547
317.979
317.385
317.272
317.232
774.081
773.983
773.91
773.862
773.838
773.839
773.862
773.9
774.208
774.068
773.965
773.895
773.856
773.848
773.87
773.908
774.342
774.153
774.019
773.929
773.877
773.863
773.886
773.928
774.465
774.235
774.076
773.971
773.91
773.892
773.912
773.954
774.513
774.277
774.116
774.01
773.949
773.93
773.948
773.986
774.48
774.274
774.137
774.047
773.996
773.981
773.996
774.029
774.275
774.144
774.068
774.021
774
774.003
774.027
774.059
681.847
681.807
681.777
681.759
681.753
681.759
681.774
681.801
681.889
681.83
681.787
681.76
681.749
681.754
681.773
681.802
681.951
681.867
681.809
681.773
681.757
681.761
681.782
681.816
682.023
681.918
681.849
681.805
681.785
681.786
681.808
681.842
682.05
681.948
681.88
681.838
681.819
681.821
681.842
681.874
682.024
681.945
681.897
681.869
681.858
681.862
681.882
681.907
681.854
681.82
681.822
681.833
681.85
681.874
681.9
681.928
589.183
589.147
589.122
589.114
589.131
589.179
589.253
589.319
589.244
589.196
589.163
589.15
589.162
589.206
589.283
589.353
589.324
589.269
589.232
589.215
589.223
589.266
589.344
589.42
589.418
589.359
589.321
589.303
589.309
589.349
589.425
589.501
589.475
589.427
589.397
589.385
589.397
589.436
589.504
589.573
589.5
589.467
589.456
589.459
589.479
589.518
589.577
589.632
589.409
589.41
589.438
589.473
589.516
589.569
589.626
589.676
497.675
497.688
497.697
497.72
497.753
497.779
497.783
497.803
497.684
497.674
497.676
497.699
497.738
497.776
497.794
497.831
497.749
497.716
497.702
497.711
497.74
497.774
497.793
497.831
497.829
497.784
497.757
497.75
497.761
497.777
497.781
497.805
497.906
497.858
497.825
497.807
497.801
497.794
497.775
497.781
497.985
497.938
497.903
497.877
497.856
497.829
497.792
497.78
497.982
497.964
497.943
497.922
497.9
497.869
497.828
497.807
403.331
402.976
402.675
402.437
402.308
402.368
402.646
402.908
403.754
403.335
402.974
402.675
402.484
402.485
402.731
402.992
404.139
403.7
403.315
402.988
402.763
402.73
402.956
403.201
404.442
404.019
403.646
403.326
403.101
403.061
403.277
403.493
404.643
404.26
403.923
403.633
403.432
403.406
403.621
403.808
404.735
404.398
404.11
403.864
403.7
403.702
403.92
404.091
404.658
404.423
404.206
404.021
403.913
403.957
404.187
404.351
316.167
316.274
316.384
316.628
317.029
317.61
318.348
318.832
316.057
316.019
316.092
316.339
316.779
317.439
318.292
318.883
316.24
316.135
316.172
316.39
316.804
317.447
318.311
318.946
316.477
316.355
316.373
316.555
316.921
317.494
318.256
318.772
316.726
316.641
316.659
316.809
317.107
317.555
318.103
318.375
316.933
316.906
316.925
317.03
317.238
317.532
317.833
317.863
317.273
317.383
317.403
317.452
317.55
317.675
317.764
317.631
776.352
774.526
774.46
774.338
774.254
774.249
774.32
774.432
780.063
776.94
775.444
774.845
774.524
774.41
774.473
774.642
781.268
777.183
775.624
774.99
774.625
774.484
774.535
774.707
780.492
776.905
775.598
774.995
774.64
774.517
774.526
774.682
777.378
775.414
774.994
774.683
774.475
774.407
774.417
774.527
775.171
774.822
774.62
774.451
774.335
774.306
774.317
774.389
774.824
774.679
774.518
774.367
774.269
774.228
774.239
774.288
681.186
680.325
680.795
681.051
681.252
681.431
681.609
681.766
681.717
681.123
680.953
681.148
681.283
681.438
681.647
681.872
681.236
680.597
680.722
681.062
681.246
681.421
681.637
681.872
683.809
681.514
681.278
681.399
681.474
681.592
681.736
681.939
682.246
681.107
681.356
681.488
681.559
681.659
681.763
681.907
681.224
681.393
681.549
681.62
681.675
681.735
681.805
681.892
681.705
681.794
681.792
681.781
681.785
681.806
681.845
681.899
589.713
588.386
588.593
588.787
588.954
589.116
589.293
589.455
590.576
589.339
588.654
588.73
588.84
588.994
589.219
589.461
590.743
589.075
588.5
588.611
588.729
588.907
589.139
589.396
592.571
589.534
588.892
588.909
588.968
589.072
589.242
589.458
590.007
588.696
588.858
588.977
589.069
589.181
589.31
589.463
588.72
588.845
589.013
589.124
589.228
589.301
589.396
589.492
589.142
589.263
589.309
589.338
589.373
589.421
589.479
589.542
499.947
497.594
497.311
497.174
497.085
497.064
497.134
497.248
502.789
499.534
497.801
497.288
497.03
496.956
497.045
497.237
503.008
499.411
497.752
497.221
496.949
496.87
496.962
497.168
502.421
498.718
497.576
497.241
497.037
496.95
497.023
497.197
499.113
497.474
497.34
497.221
497.128
497.076
497.129
497.236
497.426
497.337
497.35
497.313
497.284
497.256
497.273
497.324
497.578
497.605
497.57
497.518
497.47
497.44
497.428
497.441
407.325
404.847
404.32
403.881
403.54
403.415
403.576
403.817
410.842
407.009
405.064
404.244
403.678
403.422
403.534
403.824
411.227
407.082
405.249
404.399
403.786
403.483
403.581
403.874
409.936
406.45
405.114
404.474
403.961
403.69
403.813
404.063
407.097
405.286
404.878
404.466
404.118
403.937
404.073
404.285
405.278
404.93
404.701
404.433
404.218
404.15
404.3
404.482
404.987
404.76
404.534
404.333
404.2
404.21
404.407
404.583
316.706
314.751
314.144
313.308
312.432
311.574
310.85
310.533
319.356
316.322
314.611
313.437
312.232
311.114
310.193
309.851
319.982
316.132
314.728
313.625
312.417
311.259
310.282
309.891
319.31
316.155
315.056
314.132
313.074
312.02
311.125
310.674
317.229
315.79
315.384
314.723
313.967
313.166
312.418
311.929
316.201
316.019
315.765
315.376
314.929
314.423
313.867
313.394
316.47
316.406
316.245
316.059
315.858
315.613
315.279
314.838
774.673
774.417
774.266
774.166
774.111
774.097
774.113
774.14
774.772
774.491
774.293
774.16
774.079
774.041
774.041
774.061
774.653
774.392
774.204
774.075
773.996
773.96
773.96
773.981
774.517
774.286
774.118
774.005
773.935
773.904
773.907
773.929
774.369
774.175
774.035
773.941
773.884
773.862
773.871
773.897
774.229
774.079
773.972
773.9
773.859
773.848
773.862
773.929
774.102
773.995
773.918
773.867
773.842
773.841
773.863
773.924
681.691
681.659
681.677
681.7
681.728
681.763
681.801
681.832
681.844
681.805
681.782
681.767
681.764
681.773
681.793
681.817
681.87
681.813
681.775
681.755
681.743
681.748
681.764
681.788
681.88
681.814
681.774
681.749
681.736
681.737
681.751
681.772
681.878
681.817
681.775
681.746
681.731
681.73
681.743
681.764
681.874
681.821
681.782
681.756
681.745
681.748
681.761
681.812
681.858
681.815
681.782
681.76
681.752
681.757
681.771
681.821
589.19
589.196
589.247
589.299
589.355
589.415
589.474
589.517
589.231
589.265
589.303
589.341
589.38
589.424
589.473
589.514
589.229
589.254
589.283
589.314
589.343
589.385
589.437
589.485
589.23
589.243
589.261
589.278
589.301
589.341
589.397
589.454
589.231
589.228
589.225
589.227
589.244
589.284
589.347
589.411
589.229
589.204
589.187
589.182
589.199
589.244
589.312
589.381
589.195
589.158
589.138
589.133
589.153
589.201
589.272
589.365
497.637
497.589
497.558
497.532
497.512
497.493
497.475
497.466
497.625
497.604
497.582
497.559
497.53
497.497
497.462
497.445
497.639
497.601
497.568
497.538
497.503
497.467
497.43
497.414
497.634
497.59
497.551
497.517
497.487
497.457
497.427
497.418
497.625
497.581
497.543
497.517
497.501
497.487
497.468
497.468
497.628
497.594
497.571
497.564
497.568
497.573
497.566
497.573
497.641
497.638
497.642
497.658
497.683
497.702
497.701
497.746
404.915
404.656
404.444
404.271
404.166
404.198
404.411
404.572
405.001
404.712
404.467
404.26
404.104
404.096
404.294
404.443
404.958
404.615
404.326
404.071
403.887
403.859
404.058
404.21
404.725
404.348
404.019
403.739
403.54
403.512
403.725
403.897
404.359
403.952
403.607
403.321
403.127
403.113
403.346
403.551
403.905
403.494
403.16
402.889
402.721
402.738
402.994
403.229
403.387
403.022
402.73
402.507
402.396
402.47
402.757
403.047
316.744
316.765
316.682
316.585
316.489
316.36
316.134
315.735
316.535
316.454
316.387
316.346
316.32
316.293
316.195
315.889
316.451
316.32
316.243
316.22
316.257
316.331
316.387
316.238
316.262
316.092
316.01
316.028
316.148
316.365
316.633
316.7
316.077
315.912
315.859
315.946
316.173
316.543
317.018
317.27
315.968
315.861
315.866
316.027
316.348
316.842
317.47
317.853
316.091
316.125
316.216
316.446
316.827
317.376
318.056
318.509
774.415
774.317
774.211
774.128
774.078
774.061
774.075
774.11
774.549
774.376
774.245
774.148
774.09
774.075
774.094
774.139
774.739
774.522
774.349
774.214
774.129
774.101
774.122
774.179
775.187
774.705
774.467
774.285
774.17
774.128
774.158
774.241
776.371
774.914
774.561
774.321
774.186
774.138
774.183
774.291
776.648
775.108
774.622
774.361
774.222
774.18
774.232
774.344
775.82
774.581
774.395
774.267
774.198
774.199
774.259
774.347
681.948
681.935
681.908
681.892
681.89
681.9
681.921
681.956
681.882
681.857
681.849
681.845
681.853
681.883
681.909
681.954
681.754
681.779
681.795
681.799
681.811
681.84
681.89
681.951
681.732
681.624
681.675
681.693
681.715
681.759
681.836
681.93
682.375
681.39
681.472
681.521
681.57
681.641
681.75
681.878
681.918
681.117
681.249
681.361
681.452
681.556
681.689
681.833
680.748
680.213
680.753
681.055
681.272
681.454
681.614
681.744
589.491
589.52
589.537
589.559
589.588
589.628
589.677
589.732
589.426
589.46
589.504
589.545
589.59
589.645
589.695
589.753
589.289
589.38
589.455
589.508
589.559
589.642
589.691
589.761
589.383
589.261
589.356
589.413
589.471
589.542
589.634
589.734
590.425
589.18
589.224
589.27
589.329
589.415
589.536
589.669
590.366
589.139
589.115
589.166
589.224
589.32
589.458
589.61
589.145
588.242
588.637
588.857
589.034
589.197
589.358
589.495
498.033
498.036
498.002
497.958
497.914
497.871
497.832
497.821
498.024
497.996
497.956
497.909
497.87
497.83
497.799
497.788
498.008
497.983
497.936
497.877
497.825
497.798
497.761
497.772
498.351
498.01
497.924
497.821
497.736
497.687
497.689
497.733
499.869
498.205
497.941
497.746
497.613
497.552
497.577
497.659
500.351
498.445
497.93
497.652
497.489
497.424
497.464
497.567
499.23
497.662
497.51
497.366
497.281
497.257
497.308
497.394
404.905
404.703
404.498
404.314
404.203
404.24
404.47
404.648
405.339
405.12
404.908
404.706
404.565
404.554
404.758
404.919
405.608
405.444
405.236
405.007
404.841
404.772
404.931
405.086
406.021
405.638
405.411
405.127
404.877
404.772
404.915
405.082
407.321
405.789
405.415
405.027
404.713
404.57
404.706
404.905
407.534
405.829
405.214
404.736
404.381
404.227
404.37
404.599
406.627
405.007
404.607
404.212
403.911
403.801
403.961
404.184
317.262
317.278
317.22
317.189
317.198
317.215
317.185
316.974
317.199
317.106
316.974
316.838
316.717
316.571
316.383
316.062
317.063
317.006
316.824
316.573
316.318
315.972
315.591
315.155
316.942
316.762
316.543
316.162
315.718
315.218
314.681
314.191
317.35
316.359
316.083
315.566
314.978
314.337
313.696
313.234
317.034
316.003
315.503
314.831
314.117
313.381
312.703
312.316
316.348
315.193
314.717
314.03
313.292
312.544
311.879
311.543
734.413
734.539
734.671
734.776
734.839
734.86
734.848
734.812
734.425
734.555
734.691
734.798
734.863
734.89
734.885
734.855
734.418
734.552
734.683
734.784
734.846
734.87
734.863
734.835
734.415
734.547
734.676
734.777
734.838
734.862
734.855
734.827
734.419
734.539
734.662
734.759
734.817
734.835
734.821
734.786
734.431
734.53
734.645
734.739
734.795
734.812
734.799
734.767
734.449
734.526
734.631
734.723
734.779
734.801
734.795
734.77
636.831
637.062
637.302
637.502
637.618
637.656
637.64
637.592
636.849
637.084
637.328
637.53
637.651
637.698
637.695
637.655
636.84
637.079
637.315
637.508
637.62
637.66
637.651
637.612
636.838
637.074
637.309
637.503
637.617
637.658
637.65
637.611
636.847
637.068
637.297
637.489
637.599
637.631
637.614
637.565
636.87
637.062
637.28
637.468
637.575
637.609
637.595
637.557
636.897
637.054
637.255
637.441
637.555
637.607
637.621
637.623
538.976
539.478
539.925
540.297
540.498
540.557
540.542
540.513
538.991
539.5
539.951
540.327
540.537
540.611
540.615
540.586
538.981
539.492
539.931
540.289
540.479
540.53
540.508
540.454
538.984
539.494
539.932
540.291
540.481
540.536
540.524
540.487
539.007
539.496
539.93
540.29
540.479
540.527
540.501
540.423
539.045
539.491
539.914
540.271
540.456
540.496
540.436
540.24
539.073
539.462
539.864
540.216
540.407
540.467
540.442
540.294
440.775
441.906
442.674
443.298
443.593
443.613
443.48
443.307
440.776
441.923
442.692
443.322
443.639
443.706
443.659
443.468
440.768
441.913
442.665
443.266
443.547
443.574
443.489
443.268
440.782
441.916
442.67
443.267
443.541
443.563
443.489
443.29
440.827
441.921
442.689
443.306
443.595
443.635
443.593
443.42
440.876
441.899
442.686
443.325
443.639
443.703
443.667
443.73
440.882
441.807
442.585
443.215
443.517
443.574
443.554
443.742
340.366
343.671
345.548
346.884
347.3
346.949
346.779
347.728
340.407
343.714
345.541
346.842
347.231
346.909
347.102
347.888
340.477
343.724
345.528
346.786
347.101
346.747
346.913
348.138
340.452
343.672
345.503
346.76
347.044
346.641
346.81
348.078
340.443
343.59
345.506
346.837
347.186
346.689
346.964
348.337
340.502
343.456
345.463
346.873
347.282
346.859
347.094
349.017
340.618
343.212
345.252
346.681
347.022
346.571
346.89
348.942
224.302
243.009
249.921
252.745
252.801
252.942
254.532
256.034
224.249
243.138
249.841
252.448
252.351
252.667
253.461
255.251
224.494
243.238
249.872
252.364
252.205
252.5
253.464
255.766
224.639
243.118
249.831
252.345
252.087
252.337
253.199
255.265
224.905
242.874
249.78
252.484
252.321
252.8
253.333
255.384
225.517
242.459
249.58
252.432
252.243
252.494
253.147
255.552
226.546
241.852
249.131
252.149
251.861
252.088
252.862
255.444
734.623
734.597
734.676
734.764
734.829
734.858
734.849
734.812
734.59
734.565
734.644
734.731
734.794
734.819
734.804
734.759
734.542
734.519
734.594
734.677
734.735
734.757
734.741
734.7
734.514
734.497
734.581
734.673
734.738
734.767
734.757
734.72
734.457
734.469
734.55
734.631
734.683
734.699
734.682
734.645
734.423
734.454
734.547
734.633
734.688
734.706
734.693
734.661
734.385
734.437
734.536
734.622
734.672
734.687
734.676
734.654
637.251
637.157
637.297
637.477
637.618
637.68
637.665
637.608
637.209
637.11
637.25
637.427
637.566
637.626
637.606
637.542
637.135
637.038
637.172
637.342
637.472
637.525
637.502
637.438
637.079
636.997
637.152
637.335
637.48
637.548
637.54
637.487
636.982
636.955
637.095
637.262
637.378
637.414
637.383
637.323
636.92
636.935
637.095
637.271
637.386
637.424
637.403
637.358
636.851
636.915
637.086
637.255
637.351
637.366
637.331
637.281
539.551
539.476
539.777
540.2
540.516
540.647
540.627
540.555
539.499
539.407
539.7
540.128
540.452
540.588
540.569
540.493
539.388
539.304
539.593
540.008
540.315
540.437
540.409
540.328
539.302
539.256
539.58
540.015
540.34
540.485
540.484
540.413
539.174
539.202
539.542
539.916
540.162
540.235
540.185
540.097
539.108
539.213
539.57
539.941
540.168
540.23
540.191
540.117
539.051
539.232
539.595
539.941
540.124
540.138
540.064
539.946
441.159
441.41
442.233
443.102
443.708
443.915
443.841
443.746
441.076
441.303
442.119
443.008
443.643
443.881
443.829
443.755
440.925
441.178
442
442.865
443.466
443.679
443.623
443.558
440.812
441.134
442
442.896
443.529
443.801
443.827
443.811
440.701
441.113
441.989
442.756
443.211
443.304
443.151
442.851
440.717
441.205
442.061
442.798
443.193
443.245
443.092
442.795
440.766
441.345
442.167
442.858
443.19
443.181
442.972
442.841
341.936
341.601
344.233
346.196
347.464
347.692
346.706
346.569
341.845
341.454
344.04
346.044
347.383
347.691
346.772
346.732
341.601
341.286
343.939
345.914
347.203
347.481
346.57
346.543
341.333
341.312
343.923
345.976
347.293
347.679
347.159
347.321
341.076
341.466
343.983
345.928
346.966
346.939
346.104
346.803
340.912
341.698
344.159
346.033
346.902
346.596
346.035
347.699
340.798
342.064
344.458
346.247
346.984
346.487
346.169
347.861
231.479
231.681
242.626
249.801
253.415
252.919
250.97
250.859
231.28
231.13
242.219
249.459
253.175
252.811
250.96
250.797
230.815
231.357
242.28
249.449
253.024
252.563
250.752
250.679
230.329
232.351
242.836
249.779
253.072
252.647
251.042
250.66
230.155
234.144
243.986
250.415
252.863
251.677
251.592
253.229
229.953
236.229
245.251
251.011
252.716
251.306
251.603
255.278
229.559
238.28
246.724
251.882
253.137
252.059
252.542
254.027
734.361
734.435
734.543
734.634
734.687
734.704
734.693
734.669
734.345
734.433
734.546
734.637
734.69
734.707
734.699
734.685
734.341
734.439
734.557
734.652
734.708
734.729
734.728
734.721
734.351
734.457
734.58
734.683
734.748
734.777
734.78
734.771
734.363
734.473
734.599
734.704
734.77
734.799
734.799
734.782
734.377
734.49
734.616
734.718
734.778
734.796
734.777
734.733
734.395
734.514
734.646
734.751
734.815
734.836
734.821
734.782
636.801
636.914
637.104
637.281
637.382
637.406
637.382
637.345
636.758
636.905
637.103
637.274
637.365
637.381
637.355
637.336
636.739
636.911
637.117
637.291
637.383
637.407
637.397
637.395
636.743
636.935
637.154
637.341
637.45
637.489
637.488
637.476
636.755
636.957
637.181
637.374
637.486
637.524
637.514
637.474
636.775
636.983
637.213
637.409
637.519
637.55
637.521
637.446
636.802
637.021
637.259
637.46
637.577
637.615
637.594
637.532
538.988
539.252
539.632
539.977
540.158
540.187
540.146
540.092
538.913
539.252
539.627
539.943
540.087
540.076
539.988
539.869
538.872
539.254
539.639
539.947
540.078
540.07
540.014
539.961
538.863
539.289
539.701
540.039
540.209
540.242
540.204
540.096
538.87
539.326
539.753
540.106
540.295
540.347
540.325
540.229
538.896
539.369
539.81
540.182
540.391
540.461
540.441
540.327
538.933
539.42
539.867
540.246
540.46
540.536
540.519
540.423
440.753
441.447
442.242
442.896
443.196
443.174
442.946
442.887
440.696
441.487
442.239
442.83
443.062
442.979
442.663
442.933
440.656
441.523
442.249
442.791
442.968
442.843
442.569
442.771
440.64
441.597
442.345
442.927
443.188
443.21
443.183
443.184
440.647
441.673
442.436
443.044
443.344
443.41
443.402
443.29
440.675
441.747
442.53
443.18
443.535
443.665
443.708
443.636
440.716
441.817
442.597
443.246
443.591
443.697
443.664
443.38
340.619
342.334
344.639
346.348
347.026
346.567
346.353
347.695
340.442
342.56
344.748
346.349
346.923
346.383
346.165
348.212
340.323
342.783
344.843
346.287
346.617
345.953
346.228
348.1
340.252
342.979
344.942
346.288
346.592
346.056
346.423
348.471
340.235
343.169
345.085
346.418
346.799
346.334
346.686
348.508
340.25
343.331
345.232
346.587
347.041
346.805
347.033
348.44
340.296
343.479
345.364
346.721
347.181
346.937
346.911
348.622
228.682
239.573
247.653
252.251
253.068
252.093
252.707
254.252
227.765
240.586
248.398
252.402
252.832
252.463
254.848
255.568
226.927
241.444
248.913
252.325
252.321
252.757
255.264
255.798
226.113
241.933
248.975
251.803
251.515
251.579
253.043
255.401
225.487
242.284
249.098
251.713
251.444
251.563
252.656
255.242
224.994
242.479
249.211
251.777
251.547
251.493
252.576
255.075
224.594
242.664
249.452
252.14
252.074
252.128
253.587
255.807
734.47
734.523
734.61
734.683
734.721
734.724
734.7
734.66
734.519
734.544
734.623
734.694
734.731
734.733
734.707
734.663
734.57
734.571
734.646
734.719
734.763
734.77
734.745
734.703
734.616
734.604
734.679
734.759
734.812
734.827
734.807
734.765
734.646
734.628
734.701
734.783
734.839
734.856
734.837
734.793
734.662
734.636
734.715
734.805
734.872
734.903
734.896
734.861
734.649
734.623
734.703
734.794
734.864
734.897
734.892
734.86
636.933
637.036
637.207
637.366
637.453
637.469
637.44
637.401
637.003
637.057
637.218
637.383
637.48
637.502
637.476
637.44
637.084
637.094
637.255
637.432
637.547
637.586
637.571
637.538
637.164
637.143
637.304
637.487
637.614
637.664
637.653
637.615
637.227
637.183
637.336
637.516
637.645
637.695
637.679
637.627
637.272
637.201
637.36
637.547
637.693
637.762
637.756
637.711
637.275
637.193
637.341
637.526
637.673
637.742
637.735
637.682
539.114
539.409
539.779
540.101
540.255
540.263
540.181
540.007
539.198
539.414
539.784
540.128
540.313
540.344
540.283
540.151
539.294
539.45
539.827
540.205
540.44
540.525
540.511
540.434
539.392
539.49
539.866
540.264
540.526
540.629
540.624
540.589
539.477
539.526
539.883
540.293
540.574
540.684
540.663
540.546
539.55
539.546
539.889
540.32
540.634
540.776
540.787
540.749
539.571
539.527
539.848
540.277
540.598
540.739
540.734
540.672
440.884
441.698
442.447
443.053
443.315
443.284
443.096
443.748
440.933
441.628
442.416
443.077
443.389
443.383
443.176
443.787
440.983
441.588
442.436
443.172
443.565
443.629
443.443
443.658
441.021
441.554
442.448
443.23
443.668
443.752
443.579
443.341
441.065
441.534
442.463
443.273
443.767
443.919
443.867
443.699
441.147
441.544
442.435
443.294
443.857
444.06
444.049
444.052
441.18
441.5
442.356
443.226
443.814
444.01
443.92
443.736
340.806
342.951
345.023
346.51
346.945
346.44
346.608
348.739
340.948
342.702
344.896
346.531
347.134
346.515
346.189
348.564
341.058
342.469
344.814
346.61
347.41
347.103
346.54
348.571
341.212
342.266
344.717
346.616
347.522
347.358
346.61
348.399
341.483
342.101
344.629
346.58
347.557
347.403
346.763
348.117
341.753
341.989
344.543
346.523
347.629
347.702
346.743
346.834
341.919
341.833
344.422
346.417
347.645
347.879
347.101
346.396
227.825
241.227
248.674
252.079
251.959
251.643
253.524
255.459
228.706
240.292
248.121
252.332
253.004
252.335
254.305
255.528
229.259
239.027
247.305
252.232
253.309
252.286
253.923
255.465
229.867
237.46
246.306
251.903
253.478
252.286
253.702
255.699
230.551
235.769
245.273
251.414
253.405
252.058
252.738
254.031
231.074
234.126
244.294
250.955
253.706
252.634
251.765
252.122
231.411
232.764
243.401
250.456
253.928
253.563
251.829
253.475
832.183
832.158
832.176
734.782
734.763
734.772
734.799
734.847
734.935
734.999
735.017
734.829
734.814
734.82
734.846
734.924
734.979
735.057
735.086
734.815
734.805
734.815
734.852
734.894
734.961
735.034
735.06
734.807
734.796
734.805
734.868
734.882
734.959
735.015
735.031
734.761
734.745
734.751
734.819
734.832
734.92
734.973
734.979
734.75
734.745
734.803
734.864
734.88
734.96
735.003
734.996
734.751
734.751
734.927
734.894
734.929
734.982
735.008
734.998
637.559
637.606
637.705
637.785
638.172
637.884
637.93
637.955
637.629
637.66
637.763
637.846
638.194
637.958
638.009
638.027
637.597
637.629
637.733
637.813
638.097
637.912
637.965
637.963
637.587
637.623
637.737
637.827
638.041
637.872
637.92
637.92
637.534
637.55
637.655
637.787
637.748
637.792
637.832
637.839
637.562
637.651
637.796
637.864
637.818
637.861
637.897
637.9
637.677
637.803
637.925
637.869
637.836
637.868
637.899
637.897
540.566
541.067
541.023
541.139
541.278
541.115
541.097
541.184
540.612
541.118
541.097
541.232
541.391
541.206
541.181
541.246
540.488
541.044
541.016
541.153
541.341
541.047
541.044
541.065
540.557
541.02
540.986
541.146
541.298
541
540.993
541.03
540.509
540.965
540.929
541.021
541.148
540.853
540.845
540.902
540.89
540.87
541.098
541.071
541.339
541.027
541.007
541.067
540.949
540.92
541.018
541.041
541.334
540.928
540.935
540.985
444.919
444.6
444.632
444.632
444.595
444.724
444.603
444.703
445.119
444.707
444.774
444.784
444.655
444.804
444.562
444.691
444.717
444.509
444.591
444.635
444.481
444.551
444.302
444.393
444.783
444.421
444.5
444.517
444.416
444.572
444.273
444.393
444.815
444.414
444.445
444.48
444.271
444.386
444.284
444.517
444.496
444.414
444.391
444.362
444.305
444.485
444.335
444.561
444.18
444.256
444.174
444.157
444.198
444.382
444.048
444.142
348.587
348.793
348.702
348.523
348.53
348.825
348.766
348.712
348.851
348.902
348.687
348.457
348.461
348.589
348.546
348.561
348.631
348.656
348.56
348.325
348.397
348.444
348.434
348.449
348.429
348.497
348.306
348.186
348.272
348.27
348.301
348.294
348.515
348.593
348.277
348.173
348.282
348.357
348.34
348.45
348.588
348.5
348.195
348.12
348.201
348.288
348.252
348.317
348.419
348.243
347.919
348.135
348.429
348.346
348.28
348.18
255.725
256.008
255.18
255.155
256.34
255.624
255.56
255.487
256.126
255.838
255.059
255.514
255.599
255.41
255.578
255.534
256.135
255.659
255.212
256.106
255.557
255.664
255.8
255.803
255.652
255.101
255.035
255.315
255.081
255.204
255.385
255.34
255.644
255.004
254.983
255.339
255.071
255.074
255.11
255.157
255.193
254.515
254.734
254.998
254.946
254.882
254.919
254.963
254.795
254.413
255.255
254.984
254.846
254.944
254.907
254.854
734.777
734.758
734.76
734.786
734.853
735.215
735.192
735.276
734.713
734.688
734.685
734.705
734.767
735.104
735.136
735.228
734.661
734.643
734.652
734.692
734.764
735.031
735.066
735.162
734.684
734.662
734.659
734.678
734.727
735.011
735.003
735.095
734.622
734.612
734.614
734.636
734.676
734.902
734.899
734.962
734.643
734.639
734.643
734.676
734.733
734.862
734.898
734.926
734.651
734.66
734.683
734.718
734.792
734.851
734.891
734.907
637.547
637.503
637.534
637.674
638.109
638.22
638.259
638.241
637.47
637.413
637.448
637.597
638.027
638.158
638.196
638.179
637.369
637.315
637.347
637.55
637.803
638.146
638.002
637.992
637.435
637.403
637.424
637.542
637.766
638.048
637.944
637.937
637.298
637.291
637.317
637.416
637.75
637.754
637.789
637.787
637.345
637.348
637.433
637.572
637.828
637.747
637.781
637.767
637.263
637.268
637.342
637.487
637.684
637.655
637.677
637.655
540.479
540.483
541.001
541.208
541.341
541.424
541.422
541.396
540.401
540.437
540.953
541.136
541.294
541.385
541.384
541.35
540.232
540.244
540.893
540.853
541.048
541.153
541.168
541.13
540.305
540.264
540.602
540.869
541.001
541.076
541.081
541.059
540.113
540.227
540.605
540.742
540.79
540.801
540.797
540.784
540.196
540.516
540.792
540.752
540.866
540.804
540.791
540.786
539.985
540.194
540.459
540.488
540.571
540.597
540.576
540.557
443.794
444.866
445.125
444.865
444.824
444.688
444.671
444.74
443.807
444.846
445.192
444.857
444.828
444.693
444.678
444.749
443.614
444.609
444.936
444.613
444.567
444.411
444.387
444.467
443.854
444.519
444.986
444.443
444.441
444.295
444.258
444.339
443.4
443.876
444.018
444.155
444.112
443.955
443.873
443.909
443.803
444.331
444.217
444.205
444.14
444.061
443.906
443.953
443.666
444.054
443.739
443.729
443.696
443.657
443.555
443.575
348.14
349.097
348.964
348.86
348.49
348.289
348.302
348.407
348.266
349.107
349.021
348.952
348.558
348.309
348.32
348.428
347.974
348.973
348.74
348.692
348.347
348.11
348.053
348.177
348.054
349.121
348.574
348.547
348.178
347.94
347.888
348.02
348.276
348.161
348.346
348.039
347.831
347.852
347.991
347.874
348.174
348.431
348.208
347.834
347.782
347.919
348.013
347.811
348.174
348.394
348.097
347.82
347.719
347.807
347.777
347.721
252.465
253.861
254.925
254.883
254.775
255.166
255.014
254.993
252.598
254.012
254.982
254.841
254.711
255.159
254.987
254.961
252.377
253.774
254.848
254.781
254.721
255.014
255.023
254.94
252.745
254.171
254.812
254.455
254.428
254.748
254.748
254.697
254.605
254.769
254.76
254.218
255.04
254.863
255.003
254.824
254.821
254.545
254.391
254.685
254.934
254.767
254.577
254.465
254.896
254.961
254.452
254.824
254.998
254.668
254.671
254.615
734.66
734.66
734.672
734.7
734.826
734.855
734.897
734.909
734.691
734.699
734.711
734.729
734.826
734.862
734.902
734.909
734.728
734.737
734.743
734.756
734.831
734.901
734.928
734.928
734.777
734.783
734.788
734.798
734.862
734.932
734.964
734.965
734.782
734.785
734.799