/*--------------------------------*- C++ -*----------------------------------*\
| =========                 |                                                 |
| \\      /  F ield         | OpenFOAM: The Open Source CFD Toolbox           |
|  \\    /   O peration     | Version:  plus.master.MPPICInterFoam            |
|   \\  /    A nd           | Web:      www.OpenFOAM.com                      |
|    \\/     M anipulation  |                                                 |
\*---------------------------------------------------------------------------*/
FoamFile
{
    version     2.0;
    format      ascii;
    class       volScalarField;
    location    "13.8";
    object      rho;
}
// * * * * * * * * * * * * * * * * * * * * * * * * * * * * * * * * * * * * * //

dimensions      [1 -3 0 0 0 0 0];

internalField   nonuniform List<scalar> 
11822
(
999.996
1000
1000
1000
1000
1000
1000
885.626
900.513
904.503
981.956
1000
1000
1000
440.147
367.973
517.526
853.204
981.31
1000
1000
283.526
283.653
284.122
557.562
918.528
1000
1000
461.445
480.785
493.144
491.289
910.22
1000
1000
312.71
282.964
289.842
542.798
902.861
1000
1000
447.209
370.333
432.047
717.832
944.93
1000
1000
1000
1000
1000
1000
1000
1000
1000
883.196
904.345
903.763
981.388
1000
1000
1000
426.444
368.336
519.651
853.238
980.532
1000
1000
283.449
283.581
300.077
564.927
918.632
1000
1000
355.806
484.874
391.446
492.58
912.725
1000
1000
382.551
282.192
296.891
536.501
902.595
1000
1000
431.763
353.428
417.788
712.516
943.456
1000
1000
1000
1000
1000
1000
1000
1000
1000
878.6
905.423
901.881
980.352
1000
1000
1000
416.561
377.339
521.531
852.081
978.683
1000
1000
283.172
332.601
463.123
576.614
916.627
1000
1000
281.991
484.966
289.232
495.969
911.379
1000
1000
354.291
280.948
292.051
527.155
898.834
1000
1000
380.465
307.354
392.632
709.408
939.866
1000
1000
1000
1000
1000
1000
1000
1000
1000
879.474
907.884
902.55
980.156
1000
1000
1000
430.089
409.523
542.247
854.028
977.48
1000
1000
288.197
484.292
480.233
592.718
913.381
1000
1000
280.385
484.96
288.572
511.869
909.381
1000
1000
285.691
279.87
288.409
532.256
894.538
1000
1000
365.171
302.064
396.965
717.399
937.969
1000
1000
1000
1000
1000
1000
1000
1000
1000
878.738
906.447
901.763
980.07
1000
1000
1000
446.669
418.462
556.468
851.817
976.465
1000
1000
284.134
375.077
346.465
588.452
908.378
1000
1000
279.68
484.955
419.039
512.462
904.488
1000
1000
282.287
279.762
288.769
536.705
888.84
1000
1000
384.103
329.275
422.617
724.245
934.991
1000
1000
1000
1000
1000
1000
1000
1000
1000
875.668
902.793
899.564
980.478
1000
1000
1000
436.413
391.714
548.04
840.695
976.328
1000
1000
285.84
278.892
284.036
569.958
906.103
1000
1000
277.245
371.336
470.789
482.505
900.076
1000
1000
284.913
285.354
288.987
525.236
885.107
1000
1000
392.333
340.708
424.448
718.293
932.122
1000
1000
1000
1000
1000
1000
1000
1000
999.956
999.536
1000
1000
1000
1000
1000
1000
1000
1000
1000
1000
1000
1000
1000
1000
1000
1000
1000
1000
1000
1000
1000
1000
1000
1000
1000
1000
1000
1000
1000
1000
1000
999.988
1000
1000
1000
1000
1000
1000
1000
999.878
1000
1000
1000
1000
1000
1000
1000
999.662
1000
1000
1000
1000
1000
1000
999.944
999.627
1000
1000
1000
1000
1000
1000
1000
1000
1000
1000
1000
1000
1000
1000
1000
1000
1000
1000
1000
1000
1000
1000
1000
1000
1000
1000
1000
1000
1000
1000
1000
999.979
1000
1000
1000
1000
1000
1000
1000
999.93
1000
1000
1000
1000
1000
1000
1000
999.662
1000
1000
1000
1000
1000
1000
999.933
999.697
1000
1000
1000
1000
1000
1000
1000
1000
1000
1000
1000
1000
1000
1000
1000
1000
1000
1000
1000
1000
1000
1000
1000
1000
1000
1000
1000
1000
1000
1000
1000
999.97
1000
1000
1000
1000
1000
1000
1000
999.965
1000
1000
1000
1000
1000
1000
1000
999.665
1000
1000
1000
1000
1000
1000
999.906
999.802
1000
1000
1000
1000
1000
1000
1000
1000
1000
1000
1000
1000
1000
1000
1000
1000
1000
1000
1000
1000
1000
1000
1000
1000
1000
1000
1000
1000
1000
1000
1000
999.963
1000
1000
1000
1000
1000
1000
1000
999.904
1000
1000
1000
1000
1000
1000
1000
999.875
1000
1000
1000
1000
1000
1000
999.888
999.828
1000
1000
1000
1000
1000
1000
1000
1000
1000
1000
1000
1000
1000
1000
1000
1000
1000
1000
1000
1000
1000
1000
1000
1000
1000
1000
1000
1000
1000
1000
1000
999.954
1000
1000
1000
1000
1000
1000
1000
999.734
1000
1000
1000
1000
1000
1000
1000
999.894
1000
1000
1000
1000
1000
1000
999.931
999.961
1000
1000
1000
1000
1000
1000
1000
1000
1000
1000
1000
1000
1000
1000
1000
1000
1000
1000
1000
1000
1000
1000
1000
1000
1000
1000
1000
1000
1000
1000
1000
999.978
1000
1000
1000
1000
1000
1000
1000
999.735
1000
1000
1000
1000
1000
1000
1000
999.787
778.63
993.029
1000
1000
1000
1000
999.999
1000
533.749
843.061
1000
1000
1000
999.983
999.93
999.99
491.657
787.449
999.961
1000
1000
999.44
999.444
999.967
431.159
833.266
1000
1000
999.704
998.991
999.829
999.891
740.264
992.164
1000
1000
999.264
998.991
999.832
999.87
977.262
999.972
1000
1000
999.916
999.326
999.891
999.972
1000
999.999
999.999
1000
999.977
999.947
999.982
1000
747.569
991.266
1000
1000
1000
999.999
999.997
1000
520.376
809.151
1000
1000
1000
1000
999.904
999.992
478.061
764.825
999.93
1000
1000
999.426
999.442
999.969
411.368
811.031
1000
1000
999.22
998.991
999.868
999.924
732.152
991.226
1000
1000
999.156
998.991
999.607
999.87
975.695
999.957
1000
1000
999.494
999.516
999.862
999.973
1000
999.999
1000
1000
999.941
999.929
999.983
1000
733.699
991.463
1000
1000
1000
999.99
999.989
1000
440.246
785.375
1000.01
1000
1000
999.958
999.772
999.994
396.482
730.018
999.993
1000
1000
999.376
999.424
999.971
375.208
796.765
1000
999.999
999.156
999.295
999.878
999.878
725.288
990.072
1000
999.972
999.156
999.175
999.526
999.867
973.096
999.932
1000
1000
999.157
999.661
999.796
999.977
1000
999.999
1000
1000
999.898
999.868
999.98
1000
741.4
992.869
1000
1000
1000
999.973
999.98
1000
397.288
789.128
1000
1000
1000
999.576
999.671
999.998
325.895
725.977
1000
1000
1000
999.373
999.42
999.976
378.881
800.783
1000
999.999
999.379
999.895
999.733
999.858
730.304
989.518
1000
999.887
999.156
999.886
999.292
999.87
972.427
999.918
1000
1000
999.16
999.503
999.709
999.984
1000
999.999
1000
999.999
999.866
999.789
999.973
1000
753.762
993.254
1000
1000
999.999
999.948
999.976
1000
421.508
801.56
999.998
1000
1000
999.373
999.68
1000
322.595
731.087
999.998
1000
1000
999.373
999.487
999.983
405.976
804.823
999.998
999.998
999.896
999.994
999.288
999.864
731.935
988.448
1000
999.812
999.172
999.953
999.288
999.891
971.418
999.898
1000
1000
999.256
999.257
999.704
999.994
1000
999.999
1000
999.993
999.846
999.786
999.971
1000
746.065
992.163
1000
1000
999.996
999.942
999.977
1000
447.561
797.511
999.996
1000
999.985
999.374
999.713
1000
317.452
724.153
999.992
999.997
999.984
999.373
999.66
999.998
405.737
792.775
999.995
999.996
999.994
999.994
999.363
999.892
722.468
985.594
1000
999.822
999.742
999.762
999.288
999.936
969.548
999.86
1000
1000
999.257
999.258
999.699
1000
1000
1000
1000
999.992
999.85
999.818
999.975
1000
1000
1000
1000
1000
1000
1000
1000
1000
1000
1000
1000
1000
1000
999.999
1000
999.999
1000
1000
1000
1000
999.991
1000
999.993
999.999
1000
1000
1000
999.995
999.999
999.997
999.998
1000
1000
1000
999.995
999.999
1000
999.999
1000
1000
1000
999.994
999.998
1000
1000
1000
999.986
997.603
1000
1000
1000
1000
1000
1000
999.404
997.565
1000
1000
1000
1000
1000
1000
1000
1000
1000
1000
1000
1000
1000
999.999
1000
999.999
1000
1000
999.999
999.94
999.99
1000
999.993
999.999
1000
1000
999.997
999.994
999.999
999.994
999.998
1000
1000
999.999
999.993
1000
1000
999.999
1000
1000
999.998
999.994
999.999
1000
1000
1000
999.944
998.091
1000
1000
1000
1000
1000
1000
999.359
997.565
1000
1000
1000
1000
1000
1000
1000
1000
1000
1000
1000
1000
999.974
999.999
999.994
999.999
1000
1000
999.972
999.909
999.991
1000
999.993
1000
1000
1000
999.993
999.995
1000
999.994
999.999
1000
1000
999.992
999.993
1000
1000
999.999
1000
1000
999.996
999.996
999.999
1000
1000
1000
999.864
999.447
1000
1000
1000
1000
1000
1000
999.348
997.586
1000
1000
1000
1000
999.999
1000
1000
1000
1000
1000
1000
999.939
999.962
1000
999.994
999.999
1000
1000
999.922
999.909
999.992
1000
999.995
1000
1000
1000
999.993
999.997
1000
999.994
999.999
1000
1000
999.99
999.994
1000
1000
999.999
1000
1000
999.996
999.998
1000
1000
1000
1000
999.858
999.877
1000
1000
1000
1000
1000
1000
999.327
997.586
1000
1000
1000
1000
999.995
1000
1000
1000
1000
1000
1000
999.822
999.963
1000
999.998
1000
1000
1000
999.911
999.919
999.995
999.998
999.999
1000
1000
1000
999.993
999.999
1000
999.994
999.999
999.999
1000
999.99
999.996
1000
1000
999.999
1000
999.993
999.996
999.998
1000
1000
999.999
1000
999.871
999.891
1000
1000
1000
1000
1000
1000
999.509
997.586
1000
1000
1000
999.973
1000
1000
1000
1000
1000
1000
999.96
999.822
999.962
1000
1000
1000
1000
1000
999.911
999.95
999.999
999.996
999.999
1000
1000
1000
999.996
1000
1000
999.995
999.999
999.993
999.999
999.99
999.997
1000
1000
999.999
1000
999.985
999.997
999.999
1000
1000
999.999
1000
999.927
999.699
1000
1000
1000
1000
1000
1000
1000
998.11
1000
1000
1000
1000
999.997
999.994
999.998
999.988
1000
1000
1000
999.999
999.997
999.937
999.981
999.998
996.724
1000
1000
999.99
999.997
1000
999.941
999.954
951.096
1000
1000
1000
999.985
999.998
999.965
999.718
742.448
997.552
1000
1000
999.957
999.998
999.989
999.715
703.727
995.147
1000
1000
1000
999.991
1000
999.809
840.688
1000
1000
1000
1000
1000
1000
1000
1000
1000
1000
999.999
999.995
999.995
999.999
999.813
1000
1000
1000
999.999
999.97
999.716
999.984
999.984
996.367
1000
999.999
999.991
999.997
999.922
999.938
999.96
949.184
1000
1000
1000
999.989
999.966
999.941
999.715
725.466
997.169
1000
1000
999.957
999.993
999.889
999.715
670.472
993.347
1000
1000
999.995
999.97
1000
999.718
817.706
1000
1000
1000
1000
1000
1000
1000
1000
1000
1000
999.997
999.995
999.998
999.999
999.671
1000
1000
1000
999.994
999.835
999.707
999.99
999.958
995.891
1000
999.996
999.997
999.993
999.264
999.943
999.985
945.931
1000
1000
1000
999.994
999.908
999.944
999.715
718.747
996.6
1000
1000
999.959
999.97
999.725
999.715
653.413
991.851
1000
1000
999.965
999.969
1000
999.73
810.889
1000
1000
1000
1000
1000
1000
1000
1000
1000
1000
999.997
999.997
999.998
999.999
999.671
1000
1000
1000
999.976
999.683
999.763
999.995
999.922
995.76
1000
999.996
1000
999.572
999.249
999.952
999.996
945.653
1000
1000
1000
999.997
999.902
999.947
999.867
725.355
995.879
1000
1000
999.973
999.873
999.715
999.715
662.615
991.274
1000
1000
999.954
999.973
1000
999.739
816.789
1000
1000
1000
1000
1000
1000
1000
1000
1000
999.997
999.997
999.997
999.998
1000
999.671
1000
1000
999.999
999.963
999.692
999.852
1000
999.876
995.581
1000
999.996
1000
999.061
999.309
999.97
999.997
944.92
1000
1000
1000
999.996
999.934
999.964
999.993
729.687
994.531
1000
1000
999.98
999.83
999.813
999.715
676.777
990.035
1000
1000
999.954
999.981
999.996
999.723
821.119
1000
1000
1000
999.999
1000
1000
999.997
1000
1000
999.999
999.984
999.937
999.992
1000
999.686
1000
1000
1000
999.941
999.71
999.989
1000
999.882
995.314
1000
999.999
999.972
999.06
999.392
1000
999.999
941.667
1000
1000
999.995
999.975
999.967
999.999
999.998
718.457
992.099
1000
1000
999.984
999.831
999.957
999.716
664.899
985.892
1000
1000
999.954
999.988
999.981
999.721
811.235
999.999
1000
1000
999.999
1000
1000
999.953
1000
1000
1000
1000
1000
1000
1000
1000
1000
1000
1000
1000
1000
1000
1000
1000
1000
1000
1000
1000
1000
1000
1000
1000
1000
1000
1000
1000
1000
1000
1000
1000
1000
1000
1000
1000
1000
1000
1000
1000
1000
1000
1000
1000
1000
1000
1000
1000
1000
1000
1000
1000
1000
1000
1000
1000
1000
1000
1000
1000
1000
1000
1000
1000
1000
1000
1000
1000
1000
1000
1000
1000
1000
1000
1000
1000
1000
1000
1000
1000
1000
1000
1000
1000
1000
1000
1000
1000
1000
1000
1000
1000
1000
1000
1000
1000
1000
1000
1000
1000
1000
1000
1000
1000
1000
1000
1000
1000
1000
1000
1000
1000
1000
1000
1000
1000
1000
1000
1000
1000
1000
1000
1000
1000
1000
1000
1000
1000
1000
1000
1000
1000
1000
1000
1000
1000
1000
1000
1000
1000
1000
1000
1000
1000
1000
1000
1000
1000
1000
1000
1000
1000
1000
1000
1000
1000
1000
1000
1000
1000
1000
1000
1000
1000
1000
1000
1000
1000
1000
1000
1000
1000
1000
1000
1000
999.899
1000
1000
1000
1000
1000
1000
1000
999.989
1000
1000
1000
1000
1000
1000
1000
996.715
1000
1000
1000
1000
1000
1000
1000
996.165
1000
1000
1000
1000
1000
1000
1000
990.127
1000
1000
1000
1000
1000
1000
1000
969.34
1000
1000
1000
1000
1000
1000
1000
965.959
1000
1000
1000
1000
999.999
999.999
991.575
939.892
1000
1000
1000
1000
999.999
999.998
1000
942.958
1000
1000
1000
1000
999.999
999.999
1000
930.14
1000
1000
1000
1000
999.999
999.999
1000
933.948
1000
1000
1000
1000
999.999
999.315
1000
932.365
1000
1000
1000
1000
999.999
999.999
995.807
924.272
1000
1000
1000
1000
999.999
999.999
997.488
924.267
1000
1000
1000
999.995
979.468
904.388
851.601
859.478
1000
1000
999.999
999.995
975.903
879.69
912.046
894.192
1000
1000
999.999
999.994
971.21
884.662
894.839
896.718
1000
1000
999.999
999.994
970.577
880.638
892.888
912.141
1000
1000
1000
999.994
980.735
856.165
899.738
926.307
1000
1000
1000
999.994
980.456
870.842
904.225
952.333
1000
1000
1000
999.993
967.927
861.448
901.316
953.56
1000
1000
1000
1000
1000
1000
1000
1000
1000
1000
1000
1000
1000
1000
1000
1000
1000
1000
1000
1000
1000
1000
1000
1000
1000
1000
1000
1000
1000
1000
1000
1000
1000
1000
1000
1000
1000
1000
1000
1000
999.985
1000
1000
1000
1000
1000
1000
1000
999.993
1000
1000
1000
1000
1000
1000
1000
1000
1000
1000
1000
1000
1000
1000
1000
1000
1000
1000
1000
1000
1000
1000
1000
1000
1000
1000
1000
1000
1000
1000
1000
1000
1000
1000
1000
1000
1000
1000
1000
999.998
1000
1000
1000
1000
1000
1000
1000
999.988
1000
1000
1000
1000
1000
1000
1000
999.998
1000
1000
1000
1000
1000
1000
1000
1000
1000
1000
1000
1000
1000
1000
1000
1000
1000
1000
1000
1000
1000
1000
1000
1000
1000
1000
1000
1000
1000
1000
1000
1000
1000
1000
1000
1000
1000
1000
1000
999.998
1000
1000
1000
1000
1000
1000
1000
1000
1000
1000
1000
1000
1000
1000
1000
1000
1000
1000
1000
1000
1000
1000
1000
1000
1000
1000
1000
1000
1000
1000
1000
1000
1000
1000
1000
1000
1000
1000
1000
999.996
1000
1000
1000
1000
1000
1000
1000
999.991
1000
1000
1000
1000
1000
1000
1000
999.998
1000
1000
1000
1000
1000
1000
992.842
1000
1000
1000
1000
1000
1000
1000
988.9
1000
1000
1000
1000
1000
1000
1000
984.488
1000
1000
1000
1000
1000
1000
999.997
1000
1000
1000
1000
1000
1000
1000
999.997
1000
999.986
1000
1000
1000
1000
1000
999.997
1000
999.959
1000
1000
1000
1000
1000
999.998
1000
1000
1000
1000
1000
1000
999.999
999.998
930.719
1000
1000
1000
1000
1000
999.998
999.999
913.094
1000
1000
1000
1000
1000
999.998
980.261
921.581
1000
1000
1000
1000
999.999
999.989
861.005
859.101
999.997
1000
1000
1000
999.999
999.989
861.551
870.905
999.981
1000
1000
1000
999.999
999.989
859.374
861.064
999.955
1000
1000
1000
999.999
999.991
903.351
923.622
999.974
1000
1000
1000
999.994
981.865
834.736
888.682
1000
1000
1000
1000
999.993
937.839
847.711
876.392
1000
1000
1000
1000
999.993
894.687
854.851
951.537
1000
1000
1000
1000
1000
1000
1000
1000
1000
1000
1000
1000
1000
1000
1000
1000
1000
1000
1000
1000
1000
1000
1000
1000
1000
1000
1000
1000
1000
1000
1000
1000
1000
1000
1000
1000
1000
1000
1000
1000
1000
1000
1000
1000
1000
1000
1000
1000
1000
1000
1000
1000
1000
1000
1000
1000
1000
1000
1000
1000
1000
1000
1000
1000
1000
1000
1000
1000
1000
1000
1000
1000
1000
1000
1000
1000
1000
1000
1000
1000
1000
1000
1000
1000
1000
1000
1000
1000
1000
1000
1000
1000
1000
1000
1000
1000
1000
1000
1000
1000
1000
1000
1000
1000
1000
1000
1000
1000
1000
1000
1000
1000
1000
1000
1000
1000
1000
1000
1000
1000
1000
1000
1000
1000
1000
1000
1000
1000
1000
1000
1000
1000
1000
1000
1000
1000
1000
1000
1000
1000
1000
1000
1000
1000
1000
1000
1000
1000
1000
1000
1000
1000
1000
1000
1000
1000
1000
1000
1000
1000
1000
1000
1000
1000
1000
1000
1000
1000
1000
1000
1000
1000
1000
1000
1000
989.64
1000
1000
1000
1000
1000
1000
1000
975.2
1000
1000
1000
1000
1000
1000
1000
983.511
1000
1000
1000
1000
1000
1000
1000
982.707
1000
1000
1000
1000
1000
1000
1000
984.832
1000
1000
1000
1000
1000
1000
1000
980.272
1000
1000
1000
1000
1000
1000
1000
987.698
1000
1000
1000
1000
1000
999.998
971.148
930.277
1000
1000
1000
1000
1000
999.999
945.827
922.736
1000
1000
1000
1000
999.999
998.446
944.688
922.735
1000
1000
1000
1000
999.999
999.999
996.658
922.738
1000
1000
1000
1000
999.999
999.999
1000
927.847
1000
1000
1000
1000
999.999
999.999
1000
937.884
1000
1000
1000
1000
999.999
999.999
1000
914.07
1000
1000
1000
999.999
999.993
905.294
875.738
934.102
1000
1000
1000
999.996
999.991
891.22
828.802
947.399
1000
1000
1000
999.994
975.801
836.247
834.202
947.326
1000
1000
1000
999.993
974.851
855.344
883.628
943.614
1000
1000
1000
999.993
985.301
861.829
898.898
929.785
1000
1000
1000
999.993
982.163
903.521
906.23
932.092
1000
1000
1000
999.994
980.921
912.554
874.422
886.974
1000
1000
1000
1000
1000
1000
1000
1000
1000
1000
1000
1000
1000
1000
1000
1000
1000
1000
1000
1000
1000
1000
1000
1000
1000
1000
1000
1000
1000
1000
1000
1000
1000
1000
1000
1000
1000
1000
1000
1000
1000
1000
1000
1000
1000
1000
1000
1000
1000
1000
1000
1000
1000
1000
1000
1000
1000
1000
1000
1000
1000
1000
1000
1000
1000
1000
1000
1000
1000
1000
1000
1000
999.999
1000
1000
1000
1000
1000
1000
1000
1000
1000
1000
1000
1000
1000
1000
1000
1000
1000
1000
1000
1000
1000
1000
1000
1000
1000
1000
1000
1000
1000
1000
1000
1000
1000
1000
1000
1000
1000
1000
1000
1000
1000
1000
1000
1000
1000
1000
999.263
1000
1000
1000
1000
1000
1000
1000
997.584
999.999
1000
1000
1000
1000
1000
1000
1000
999.989
1000
1000
1000
1000
1000
1000
1000
999.991
1000
1000
1000
1000
1000
1000
1000
999.997
1000
1000
1000
1000
1000
1000
1000
999.995
1000
1000
1000
1000
1000
1000
1000
1000
1000
1000
1000
1000
1000
1000
958.388
1000
1000
1000
1000
1000
1000
1000
961.301
1000
1000
1000
1000
1000
1000
1000
967.852
999.98
1000
1000
1000
1000
1000
1000
987.599
999.881
1000
1000
1000
1000
1000
1000
973.487
999.904
1000
1000
1000
1000
1000
1000
1000
999.979
1000
1000
1000
1000
1000
1000
1000
1000
1000
1000
1000
999.999
999.999
959.943
924.653
1000
1000
1000
1000
1000
999.998
963.153
935.99
1000
1000
1000
1000
1000
999.999
973.007
926.258
999.98
1000
1000
1000
1000
999.999
984.495
902.763
999.848
1000
1000
1000
1000
999.999
999.272
928.009
999.848
1000
1000
1000
1000
1000
999.998
986.688
999.974
1000
1000
1000
1000
1000
999.998
986.003
1000
1000
1000
999.994
985.324
878.562
859.521
961.957
1000
1000
1000
999.997
999.993
877.747
809.777
947.747
1000
1000
1000
999.999
999.992
940.273
823.836
928.991
999.991
1000
1000
1000
999.992
976.64
831.174
875.134
999.894
1000
1000
1000
999.992
958.419
847.3
918.733
999.897
1000
1000
1000
999.996
999.99
848.348
891.46
999.977
1000
1000
1000
999.999
999.991
923.618
814.823
999.226
999.88
999.298
1000
1000
998.776
998.362
996.316
997.34
999.833
999.988
1000
1000
999.178
998.474
994.509
997.494
998.167
999.783
1000
1000
999.264
997.352
996.079
998.092
998.219
999.899
1000
1000
998.923
995.609
996.549
998.232
998.938
1000
1000
1000
998.476
995.493
998.628
999.388
998.748
999.62
1000
999.813
995.275
994.571
998.873
999.29
998.748
999.591
1000
998.136
990.674
994.763
999.827
999.606
999.105
999.176
1000
992.359
993.219
995.92
980.544
994.346
1000
1000
1000
993.719
992.931
995.445
981.875
994.326
999.689
1000
1000
993.754
992.923
996.465
984.017
995.625
1000
1000
1000
993.57
992.653
994.766
985.447
996.508
1000
1000
1000
993.653
992.595
989.608
990.769
997.785
1000
1000
999.007
992.431
989.6
989.606
989.843
998.977
1000
1000
995.446
989.081
989.095
994.306
992.475
997.509
999.819
1000
991.108
979.211
994.829
996.804
980.538
984.486
998.144
1000
992.808
979.198
994.183
996.698
980.537
986.053
998.017
1000
996.469
979.189
996.235
998.32
980.537
991.846
999.98
1000
989.96
979.198
994.592
998.698
981.082
991.638
999.988
1000
989.383
979.208
994.686
996.158
981.084
991.835
998.253
1000
975.424
987.814
998.151
997.616
981.089
990.329
998.775
1000
983.141
990.929
996.36
999.661
981.63
994.809
1000
1000
946.793
984.659
999.669
999.669
999.669
981.715
984.166
997.621
946.8
979.781
999.668
999.669
994.646
981.011
991.749
1000
950.621
979.193
999.668
999.502
989.295
980.698
993.602
1000
950.664
981.047
999.668
999.667
995.35
979.467
992.491
1000
950.697
987.625
999.665
999.665
989.498
979.464
980.977
997.519
965.359
999.663
999.663
999.665
994.579
979.459
984.196
999.141
993.146
999.663
999.663
999.663
999.659
979.454
994.158
1000
947.226
995.562
999.668
999.669
984.749
987.868
973.918
976.662
949.953
986.232
999.664
999.312
993.648
993.643
976.709
974.725
941.328
978.986
999.668
998.147
998.142
992.631
976.866
976.28
950.662
988.82
999.663
997.98
998.132
989.675
974.143
976.04
954.496
995.822
994.766
995.903
997.098
994.345
991.478
972.691
979.8
999.663
996.695
996.8
993.588
994.04
989.283
973.381
999.628
999.663
990.284
983.393
992.195
969.483
968.073
974.809
941.874
994.033
964.998
929.001
875.9
958.336
952.974
937.646
992.112
993.719
929.768
895.861
897.617
933.335
948.564
933.467
986.73
981.656
932.482
869.651
904.723
932.034
938.509
919.613
983.599
971.399
903.851
900.643
918.046
931.315
941.521
927.515
983.389
968.583
908.667
887.658
911.112
925.337
933.28
944.101
983.173
954.097
909.7
897.478
905.936
924.397
935.014
945.99
974.761
949.646
871.336
907.574
956.268
963.363
948.231
940.883
1000
1000
1000
1000
998.036
987.828
994.842
1000
1000
1000
1000
1000
999.38
988.882
994.336
999.985
1000
1000
1000
1000
1000
989.95
994.713
999.977
1000
1000
1000
1000
1000
989.941
996.092
1000
1000
1000
1000
1000
999.046
993.336
998.455
1000
1000
1000
1000
999.539
998.86
997.163
999.668
1000
1000
1000
1000
1000
998.33
999.343
999.955
1000
1000
1000
999.797
993.071
984.029
987.826
998.43
1000
1000
999.994
999.873
992.703
984.029
987.582
997.404
1000
1000
999.999
999.204
996.188
992.488
987.583
997.033
1000
1000
1000
1000
996.632
990.975
987.585
998.142
1000
1000
1000
997.787
997.39
986.644
992.585
999.737
1000
1000
999.898
993.37
994.365
987.385
997.063
1000
1000
1000
1000
999.123
996.57
993.593
1000
1000
1000
1000
982.817
963.884
973.486
985.432
996.76
999.869
1000
1000
978.5
961.584
972.482
984.118
995.973
999.488
1000
1000
980.812
957.272
978.244
985.095
997.311
999.991
1000
1000
990.226
971.124
977.603
983.36
995.073
1000
1000
999.877
994.507
976.939
982.035
986.277
995.925
1000
1000
998.534
978.543
980.556
992.076
986.682
997.401
1000
1000
998.479
982.481
981.753
989.959
997.6
1000
1000
1000
985.887
934.127
937.99
985.845
999.624
998.885
999.405
1000
980.034
934.096
934.1
981.304
998.582
997.591
998.354
1000
983.041
934.127
934.836
983.703
998.987
997.853
998.539
1000
983.095
939.703
935.385
985.318
998.625
997.414
998.094
1000
961.519
963.301
976.187
998.888
998.513
994.757
997.978
1000
962.678
956.793
997.483
998.885
998.883
992.715
996.655
1000
958.717
955.232
980.044
994.623
997.919
1000
997.33
999.624
940.861
934.253
988.265
999.083
999.14
988.545
990.56
989.518
937.016
934.205
981.572
999.049
999.079
990.876
992.994
989.074
942.993
934.179
984.196
999.02
999.044
984.108
988.882
988.574
945.348
934.229
983.683
998.982
998.991
984.382
985.933
988.327
923.861
966.247
998.892
998.939
998.318
979.547
968.167
981.954
944.973
998.869
998.882
997.053
995.658
984.668
964.916
985.902
948.728
985.35
987.289
996.206
995.859
989.758
966.703
971.977
973.189
978.061
989.075
969.595
923.321
904.239
918.575
937.682
978.842
978.846
989.246
968.463
927.516
902.444
920.649
937.063
978.846
974.666
989.444
961.135
938.179
912.306
908.898
931.664
937.57
979.614
989.841
973.49
934.553
920.408
912.726
930.361
940.084
960.706
989.943
934.015
893.486
926.124
954.731
923.336
970.525
980.687
978.337
899.316
890.932
967.867
952.028
924.518
975.401
989.278
953.858
884.333
882.6
943.778
947.331
938.919
1000
1000
1000
999.185
996.309
999.419
1000
1000
1000
1000
1000
998.696
996.412
999.456
999.995
1000
1000
1000
1000
999.311
997.435
999.241
999.973
1000
1000
1000
1000
999.056
997.475
999.275
999.984
1000
1000
999.999
999.846
999.262
999.877
999.913
999.993
1000
1000
1000
999.67
998.178
998.895
999.849
1000
1000
1000
1000
999.518
998.693
997.635
999.138
1000
1000
1000
997.765
996.241
989.878
993.794
999.99
1000
1000
1000
998.247
999.305
990.258
991.441
1000
1000
1000
1000
999.986
998.366
991.412
990.461
1000
1000
1000
1000
999.823
999.204
991.374
989.592
1000
1000
1000
1000
996.646
999.275
992.028
994.198
1000
1000
1000
1000
995.241
995.919
983.593
991.05
999.497
1000
1000
1000
995.538
995.343
987.771
984.388
998.03
1000
1000
991.856
983.172
984.641
987.766
994.351
1000
1000
1000
995.462
994.72
996.713
986.842
991.385
1000
1000
1000
998.944
996.376
993.441
986.838
990.777
1000
1000
1000
992.775
999.006
997.055
986.836
986.836
999.547
1000
1000
981.241
993.321
999.383
989.606
984.537
999.213
1000
1000
976.283
979.854
993.485
981.507
980.544
992.958
1000
1000
975.472
984.308
993.989
983.671
980.542
987.248
999.675
1000
953.069
982.333
997.396
997.211
997.405
992.199
995.773
1000
954.556
999.271
999.273
993.426
992.647
995.17
1000
1000
961.378
992.653
999.411
997.52
996.779
999.814
999.599
1000
958.402
999.411
999.414
994.011
986.856
993.152
999.166
1000
948.495
997.668
999.668
996.772
983.286
982.535
995.56
999.851
946.788
989.892
999.668
999.665
989.616
981.73
987.02
998.754
946.788
998.201
999.668
999.669
999.169
981.72
985.726
999.243
966.543
998.836
998.84
990.678
984.388
975.707
965.49
977.12
935.849
997.523
999.354
991.272
981.455
973.008
973.422
976.464
929.464
965.592
999.409
995.278
993.092
984.187
968.417
972.647
950.194
993.975
999.146
997.022
987.668
977.128
967.105
971.134
971.905
999.567
999.159
987.957
986.776
976.979
960.702
968.529
981.295
999.611
994.059
968.761
989.612
989.594
956.116
966.946
985.315
999.638
999.668
981.015
981.22
989.334
963.504
975.624
950.556
991.11
925.41
863.373
940.004
962.592
941.592
930.709
952.894
955.095
932.546
878.135
914.992
946.369
928.922
924.421
945.829
972.386
954.147
892.43
881.039
927.872
937.881
931.687
981.784
972.424
898.885
891.118
926.551
945.57
935.741
933.413
981.934
949.379
894.357
910.11
964.077
961.718
935.659
943.512
982.107
968.488
884.077
919.829
975.922
965.226
953.271
947.547
982.337
983.654
968.477
888.407
909.079
965.048
960.275
937.634
999.853
999.039
999.607
1000
998.546
998.145
998.51
999.867
999.149
998.87
998.87
1000
997.512
994.376
997.514
999.905
999.699
999.439
999.84
1000
999.996
992.566
992.472
997.657
999.803
999.992
999.988
1000
1000
999.886
991.947
993.101
998.555
999.996
999.996
1000
1000
1000
996.395
987.768
995.591
999.892
1000
1000
1000
1000
999.965
990.728
990.64
999.212
1000
1000
1000
1000
1000
993.501
987.83
996.969
1000
993.429
983.149
996.339
990.402
994.814
999.658
999.852
1000
992.675
975.919
993.253
995.007
991.95
999.207
1000
1000
997.969
987.143
982.603
990.952
995.26
997.844
999.673
1000
998.835
993.751
985.176
985.52
992.609
998.263
999.6
1000
999.662
998.169
989.08
985.527
987.767
996.638
999.851
1000
1000
1000
993.612
989.028
984.031
992.682
999.965
1000
1000
1000
997.68
992.563
984.029
989.669
999.364
1000
974.803
981.606
998.922
989.378
982.015
998.285
1000
1000
974.803
975.465
997.785
996.914
982.021
993.254
1000
1000
979.336
974.768
982.677
995.463
994.513
994.957
997.524
1000
986.381
974.765
974.761
986.68
995.257
997.575
997.574
1000
981.123
976.284
974.755
987.023
995.871
997.634
997.634
1000
994.327
979.517
973.664
981.723
993.008
996.829
998.133
1000
1000
979.242
961.613
978.174
988.78
992.166
998.907
1000
978.63
997.602
999.658
999.655
996.385
979.459
991.238
999.623
976.889
994.469
999.655
999.654
999.605
979.464
993.856
1000
974.959
988.436
998.424
999.651
999.65
990.434
994.386
999.986
980.011
975.842
994.235
999.65
999.612
991.333
995.233
1000
963.407
973.648
996.133
999.648
999.636
988.675
990.772
1000
963.406
943.515
988.569
999.638
999.631
988.182
992.183
1000
991.906
934.18
955.97
994.996
999.629
990.463
991.74
999.975
999.603
999.455
985.42
989.275
998.41
992.965
960.96
972.604
999.588
999.483
987.004
992.299
999.494
991.074
970.33
978.516
999.566
999.527
990.851
997.759
985.386
964.945
973.265
985.788
999.493
999.508
995.204
995.76
978.42
964.958
970.188
984.24
984.143
999.485
999.439
978.842
983.781
964.965
969.987
988.833
936.788
991.195
999.396
996.599
994.071
973.931
974.379
988.643
931.655
954.164
989.418
999.052
996.762
992.876
982.41
982.492
961.994
942.674
896.41
897.26
941.724
943.773
950.287
949.279
956.352
947.381
877.829
922.437
956.287
941.956
933.798
946.21
943.93
960.587
889.983
920.992
975.883
962.074
937.66
932.77
983.564
966.247
895.949
878.768
978.417
968.834
946.04
934.448
984.13
975.634
948.405
871.896
959.701
968.799
955.937
926.898
939.817
990.525
987.152
928.778
869.651
964.028
960.11
924.047
912.015
984.184
988.195
982.241
909.773
893.664
946.431
946.562
1000
1000
1000
1000
1000
1000
1000
859.743
890.509
889.601
978.281
1000
1000
1000
404.463
355.954
549.098
828.059
974.414
1000
1000
331.256
276.204
360.411
578.923
901.224
1000
1000
275.649
272.344
376.217
469.501
894.356
1000
1000
276.155
269.659
284.764
508.048
881.12
1000
1000
350.869
313.625
395.989
691.841
926.827
1000
1000
999.984
999.991
999.993
999.998
1000
1000
1000
850.98
877.746
876.038
972.351
999.997
1000
1000
389.786
383.854
569.595
818.898
970.877
999.999
1000
234.267
311.037
613.684
639.011
894.898
999.993
1000
381.324
421.72
426.353
538.944
897.067
999.992
1000
276.728
267.486
270.07
522.14
886.934
999.993
1000
297.929
281.541
374.631
681.752
928.399
999.995
1000
999.896
999.931
999.939
999.98
999.998
1000
1000
810.176
827.265
827.424
949.657
999.961
999.998
1000
304.051
356.646
441.973
644.339
928.545
999.974
999.999
233.204
386.489
518.089
505.606
813.91
999.952
999.998
459.348
551.989
513.038
568.469
846.925
999.961
999.999
251.812
241.83
229.057
455.788
874.001
999.956
999.998
244.742
228.935
313.308
623.293
947.592
999.98
999.999
766.534
791.939
738.831
777.275
900.445
889.741
522.323
455.061
461.765
413.462
443.174
711.226
967.422
941.573
232.728
234.354