/*--------------------------------*- C++ -*----------------------------------*\
| =========                 |                                                 |
| \\      /  F ield         | OpenFOAM: The Open Source CFD Toolbox           |
|  \\    /   O peration     | Version:  plus.master.MPPICInterFoam            |
|   \\  /    A nd           | Web:      www.OpenFOAM.com                      |
|    \\/     M anipulation  |                                                 |
\*---------------------------------------------------------------------------*/
FoamFile
{
    version     2.0;
    format      ascii;
    class       surfaceScalarField;
    location    "3";
    object      alphaPhi;
}
// * * * * * * * * * * * * * * * * * * * * * * * * * * * * * * * * * * * * * //

dimensions      [0 3 -1 0 0 0 0];

internalField   nonuniform List<scalar> 
34018
(
-1.2972e-07
4.55198e-06
-2.33872e-07
-3.09159e-07
-6.41843e-08
5.36826e-06
-9.15911e-08
4.237e-06
-1.92141e-07
-3.65724e-07
5.54852e-06
2.16152e-08
-2.79758e-07
4.67688e-06
-6.57882e-09
3.8253e-06
-1.76074e-07
-7.87463e-08
-3.71169e-07
3.45379e-08
5.58075e-06
2.7729e-07
-4.05225e-08
-4.79719e-07
-1.44381e-08
6.00403e-06
3.83565e-08
-5.54513e-07
-1.35577e-07
6.15088e-06
1.52939e-07
-5.72404e-07
-2.73034e-07
5.89843e-06
2.73009e-07
-5.75274e-07
-3.42482e-07
5.31945e-06
3.5358e-07
-5.42046e-07
-4.37012e-07
4.59675e-06
4.25169e-07
-5.31936e-07
3.83047e-06
-4.62155e-07
5.02042e-07
-3.17886e-07
1.54521e-08
6.39344e-06
2.36761e-07
-4.31184e-07
2.09259e-08
6.95065e-06
-4.89334e-07
-1.06414e-07
6.56702e-06
-5.40985e-07
-2.29376e-07
5.96077e-06
-5.36823e-07
-3.15033e-07
6.00411e-06
-4.74798e-07
-4.2372e-07
5.12419e-06
-5.01484e-07
4.16246e-06
-4.31887e-07
-1.81483e-07
-7.19746e-08
7.06114e-06
1.83003e-07
-2.40484e-07
-4.37799e-08
5.58365e-06
-3.16118e-07
-3.95363e-08
4.1731e-06
-3.54438e-07
-1.36143e-07
3.18874e-06
-4.85587e-07
-2.38005e-07
5.76371e-06
-3.86521e-07
-3.84603e-07
5.59647e-06
-4.388e-07
4.40683e-06
-3.29258e-07
-2.0626e-07
-1.52046e-07
6.86768e-06
2.19365e-07
-5.56141e-08
-1.27556e-07
3.55935e-06
-8.49946e-08
-7.93546e-08
1.49292e-06
-1.41615e-07
-6.89632e-08
1.34409e-06
-2.87823e-07
-1.90444e-07
4.79583e-06
-2.48313e-07
-2.9672e-07
5.79163e-06
-3.24365e-07
4.50384e-06
-2.10974e-07
-3.1918e-07
-1.60282e-07
6.53859e-06
3.14084e-07
-1.76379e-07
-1.36181e-07
3.64641e-06
-6.23711e-08
-3.5099e-08
1.50908e-06
-8.18018e-08
-1.54848e-08
1.34286e-06
-2.10038e-07
-1.19342e-07
4.81581e-06
-1.69162e-07
-1.53161e-07
5.66987e-06
-1.96638e-07
4.38742e-06
-1.32591e-07
-4.06569e-07
-1.08416e-07
6.44147e-06
3.67669e-07
-3.23607e-07
-9.34187e-08
5.65532e-06
-2.48876e-07
-4.92887e-08
4.15317e-06
-2.75096e-07
3.29182e-09
3.36406e-06
-2.82481e-07
-4.53231e-08
5.57555e-06
-1.69853e-07
-6.28168e-08
5.1652e-06
-1.12293e-07
4.08487e-06
-1.03742e-07
-4.83027e-07
5.6048e-06
4.15502e-07
-4.14773e-08
-5.12811e-07
6.13814e-06
1.94057e-08
-4.71328e-07
6.15976e-06
9.02845e-08
-3.83435e-07
5.74838e-06
1.20211e-07
-2.81801e-07
5.36036e-06
4.24518e-08
-1.66545e-07
4.52512e-06
-2.64736e-08
3.69692e-06
-4.32513e-08
-1.17582e-07
-5.40002e-07
-1.89042e-07
5.77444e-06
4.19497e-07
1.15841e-07
-6.34724e-07
-3.09966e-07
6.18209e-06
2.26901e-07
-6.6468e-07
-4.61792e-07
6.28747e-06
3.55239e-07
-6.294e-07
-5.77059e-07
5.98456e-06
4.55848e-07
-5.93306e-07
-5.7433e-07
5.36364e-06
4.93824e-07
-5.39894e-07
-6.03256e-07
4.61148e-06
5.34865e-07
-6.23213e-07
3.80251e-06
-4.52432e-07
5.51947e-07
-5.74688e-07
-2.5456e-07
6.5814e-06
4.5489e-07
-5.95112e-07
-3.41185e-07
7.07808e-06
-5.61644e-07
-3.82678e-07
6.48223e-06
-5.27594e-07
-4.69134e-07
5.94399e-06
-4.7797e-07
-6.24664e-07
5.98964e-06
-4.35478e-07
-6.23924e-07
5.10205e-06
-6.27901e-07
4.09734e-06
-3.87939e-07
-5.63464e-07
-2.82556e-07
7.24704e-06
5.0181e-07
-3.012e-07
-1.71284e-07
5.53649e-06
-2.48169e-07
-6.47395e-08
2.86024e-06
-2.49477e-07
-1.5337e-07
2.8681e-06
-3.09663e-07
-4.57987e-07
5.82878e-06
-2.88252e-07
-5.66737e-07
5.51748e-06
-5.60573e-07
4.33343e-06
-2.82284e-07
-4.81693e-07
-2.71705e-07
6.92291e-06
5.94777e-07
-7.89429e-08
-1.45655e-07
2.9108e-06
-8.77537e-08
-8.98999e-08
1.51861e-06
-9.68175e-08
-7.46638e-08
1.26623e-06
-8.00675e-08
-2.60765e-07
5.10316e-06
-1.19092e-07
-3.97673e-07
5.67488e-06
-4.23521e-07
4.39856e-06
-1.5081e-07
-6.31429e-07
-1.81161e-07
6.56208e-06
6.93476e-07
-2.35605e-07
-9.2599e-08
3.29615e-06
-5.46995e-08
-2.5366e-08
1.36865e-06
-4.66393e-08
-1.35128e-08
1.33581e-06
-9.79334e-09
-8.22521e-08
5.01644e-06
-3.89004e-08
-1.88494e-07
5.49371e-06
-2.68533e-07
4.26552e-06
-7.22009e-08
-7.65823e-07
-9.50962e-08
6.48162e-06
6.704e-07
-5.20906e-07
2.0429e-08
5.8183e-06
-2.90298e-07
1.16101e-07
4.33392e-06
-2.12574e-07
1.47418e-07
3.90656e-06
-1.28135e-07
2.60588e-08
5.76446e-06
-7.56187e-08
-8.10721e-08
5.00513e-06
-1.68511e-07
3.96729e-06
-6.13048e-08
-7.10381e-07
5.65765e-06
6.24108e-07
-6.16972e-08
-6.91297e-07
6.1037e-06
5.13554e-08
-5.52491e-07
6.15919e-06
1.52049e-07
-3.59632e-07
5.79774e-06
1.69274e-07
-2.16181e-07
5.21214e-06
3.93801e-08
-1.02958e-07
4.40768e-06
-7.78998e-08
3.47477e-06
-2.33884e-08
-1.49076e-07
-5.66385e-07
-1.37341e-07
6.03057e-06
4.00555e-07
4.71069e-08
-7.0932e-07
-2.27649e-07
6.4221e-06
9.33431e-08
-7.99009e-07
-3.40314e-07
6.46603e-06
1.83746e-07
-8.04096e-07
-4.37186e-07
6.1066e-06
2.82547e-07
-7.39329e-07
-4.62105e-07
5.41553e-06
3.43222e-07
-6.2006e-07
-5.29259e-07
4.59268e-06
4.17418e-07
-5.57633e-07
3.64322e-06
-4.83227e-07
4.77745e-07
-5.98189e-07
-3.07218e-07
6.93312e-06
4.16311e-07
-6.55039e-07
-3.91014e-07
7.42821e-06
-6.89295e-07
-3.47096e-07
6.61928e-06
-7.34727e-07
-4.40032e-07
6.07915e-06
-6.94376e-07
-5.9937e-07
6.0406e-06
-5.99559e-07
-6.04198e-07
5.08197e-06
-6.03761e-07
4.01368e-06
-4.83424e-07
-6.50631e-07
-3.76497e-07
7.60627e-06
4.86607e-07
-3.3871e-07
-2.13252e-07
6.26345e-06
-2.25692e-07
-5.65866e-08
3.02174e-06
-4.23448e-07
-1.77255e-07
3.46894e-06
-5.57597e-07
-5.80541e-07
6.3395e-06
-4.89755e-07
-6.22246e-07
5.46734e-06
-5.91179e-07
4.23953e-06
-4.18571e-07
-5.07737e-07
-4.09585e-07
7.25967e-06
5.60076e-07
-8.21049e-08
-1.66918e-07
3.0354e-06
-8.53379e-08
-8.04583e-08
1.53754e-06
-1.31367e-07
-6.48092e-08
1.35453e-06
-2.87852e-07
-3.8944e-07
6.23961e-06
-3.31957e-07
-4.9838e-07
5.59513e-06
-5.04849e-07
4.28527e-06
-3.04868e-07
-6.5096e-07
-4.08666e-07
6.73855e-06
6.57452e-07
-2.42317e-07
-2.428e-07
3.7143e-06
-5.77664e-08
-7.49511e-08
1.38368e-06
-1.54989e-07
-8.91344e-08
2.0682e-06
-2.44528e-07
-2.67505e-07
5.9696e-06
-2.51054e-07
-3.5618e-07
5.35786e-06
-3.98351e-07
4.13287e-06
-2.24968e-07
-7.84734e-07
-3.77291e-07
6.5867e-06
6.34752e-07
-6.45852e-07
-2.76948e-07
6.60198e-06
-4.49276e-07
-1.34786e-07
5.9878e-06
-3.94201e-07
-1.34289e-07
5.61115e-06
-3.26014e-07
-2.33848e-07
5.83813e-06
-2.34861e-07
-2.94782e-07
4.8526e-06
-3.1756e-07
3.78595e-06
-1.74927e-07
-7.4407e-07
5.71199e-06
6.23735e-07
-3.11364e-07
-7.64488e-07
6.1072e-06
-2.60089e-07
-6.51299e-07
6.15252e-06
-1.82218e-07
-4.86179e-07
5.75129e-06
-1.8507e-07
-3.36634e-07
5.06557e-06
-2.3572e-07
-1.86155e-07
4.25256e-06
-2.96533e-07
3.24355e-06
-6.7916e-08
-2.79173e-07
-4.12695e-07
2.99697e-07
6.18848e-06
1.80981e-07
-2.76266e-07
-7.03238e-07
3.48231e-07
6.48807e-06
-3.88643e-07
-9.68353e-07
2.71703e-07
6.44752e-06
-3.4908e-07
-1.08561e-06
1.34999e-07
6.10196e-06
-1.6879e-07
-9.78597e-07
-8.09502e-08
5.3465e-06
2.96802e-08
-7.14445e-07
-2.9802e-07
4.43756e-06
2.07662e-07
-3.85288e-07
3.39998e-06
-5.00285e-07
3.18372e-07
-3.97893e-07
-8.31979e-08
6.6633e-06
3.64695e-08
-6.88584e-07
-2.33277e-07
7.38195e-06
-9.17676e-07
-1.72119e-07
6.58179e-06
-1.15502e-06
-1.79797e-07
5.91659e-06
-1.154e-06
-3.14784e-07
5.94142e-06
-8.80969e-07
-4.30837e-07
4.94148e-06
-4.81874e-07
3.83501e-06
-6.16227e-07
-5.13795e-07
-4.66662e-07
8.56133e-06
5.89396e-08
-4.44498e-07
-2.65387e-07
7.24909e-06
-3.71417e-07
-4.7997e-08
3.94803e-06
-8.71106e-07
-1.64609e-07
4.02511e-06
-1.18672e-06
-5.62609e-07
6.44728e-06
-8.84317e-07
-5.85563e-07
5.31961e-06
-5.5885e-07
4.0436e-06
-6.12258e-07
-4.78725e-07
-6.55214e-07
7.74823e-06
1.369e-07
-9.95343e-08
-2.80018e-07
3.73474e-06
-1.24861e-07
-9.0307e-08
1.5983e-06
-5.16495e-07
-1.18319e-07
1.79639e-06
-9.94294e-07
-6.29258e-07
6.42286e-06
-7.63874e-07
-6.34201e-07
5.41299e-06
-5.75916e-07
4.06909e-06
-5.30771e-07
-4.76452e-07
-9.22838e-07
6.75581e-06
1.88913e-07
-2.3399e-07
-6.9957e-07
4.15218e-06
-1.09601e-07
-3.99878e-07
1.65423e-06
-5.76908e-07
-4.69965e-07
3.14145e-06
-8.87402e-07
-7.32693e-07
6.0158e-06
-6.47426e-07
-6.38549e-07
5.12192e-06
-5.59717e-07
3.88015e-06
-4.36785e-07
-5.3559e-07
-9.75866e-07
6.45211e-06
2.88564e-07
-7.18458e-07
-1.06846e-06
6.81736e-06
-7.31449e-07
-9.52582e-07
6.47018e-06
-8.33366e-07
-8.78528e-07
5.88333e-06
-7.40401e-07
-7.32544e-07
5.62171e-06
-5.17035e-07
-5.91953e-07
4.58041e-06
-4.95873e-07
3.38588e-06
-3.24395e-07
-6.1633e-07
5.63144e-06
4.54405e-07
-7.33342e-07
-7.47932e-07
5.99845e-06
-8.28066e-07
-7.58245e-07
5.99557e-06
-7.85454e-07
-6.98589e-07
5.53067e-06
-7.19205e-07
-5.39839e-07
4.79936e-06
-6.24505e-07
-2.97863e-07
3.97168e-06
-5.36753e-07
3.01059e-06
-1.48961e-07
-4.21822e-07
-2.98354e-07
4.33414e-07
5.77995e-06
1.34474e-07
-2.61742e-07
-6.35998e-07
5.60428e-07
5.70418e-06
-4.65579e-07
-8.92389e-07
4.27984e-07
5.56068e-06
-4.20188e-07
-1.03076e-06
2.81035e-07
5.50928e-06
-1.63988e-07
-8.32932e-07
3.67017e-08
5.03255e-06
1.89198e-08
-5.05116e-07
-2.64522e-07
4.19128e-06
2.20865e-07
-3.66954e-07
3.23073e-06
-3.10299e-07
3.23533e-07
-1.32886e-07
1.55584e-07
4.23088e-06
-1.16771e-07
-5.94942e-07
9.65291e-08
3.19152e-06
-8.26428e-07
2.40698e-08
4.07914e-06
-1.06186e-06
8.38104e-09
3.82079e-06
-1.12493e-06
-1.53148e-07
5.02719e-06
-6.94711e-07
-3.76169e-07
4.62276e-06
-4.37036e-07
3.59243e-06
-3.9619e-07
-3.85546e-07
-4.30348e-07
3.94039e-06
-2.46059e-07
-6.06763e-07
-3.77629e-07
8.08079e-06
-5.86183e-07
-1.27427e-07
4.19128e-06
-8.89756e-07
-2.1554e-07
3.45301e-06
-1.31155e-06
-5.19949e-07
5.20573e-06
-7.64782e-07
-5.70083e-07
4.96749e-06
-5.26748e-07
3.77849e-06
-4.01295e-07
-4.79772e-07
-8.53364e-07
6.10504e-06
-1.67833e-07
-2.12639e-07
-4.81173e-07
4.01087e-06
-2.14904e-07
-1.66031e-07
1.63768e-06
-5.7474e-07
-1.65196e-07
1.77482e-06
-1.03297e-06
-7.25846e-07
5.15632e-06
-6.63352e-07
-6.65431e-07
5.00986e-06
-5.62177e-07
3.77462e-06
-3.33685e-07
-3.35423e-07
-1.04475e-06
4.29382e-06
-4.49496e-08
-2.97235e-07
-8.46821e-07
3.54752e-06
-1.50505e-07
-5.30401e-07
1.61224e-06
-6.47123e-07
-6.12622e-07
3.08276e-06
-9.51079e-07
-8.58362e-07
5.02534e-06
-5.34288e-07
-6.66662e-07
4.70616e-06
-5.3943e-07
3.52893e-06
-2.5714e-07
-3.62512e-07
-1.173e-06
5.27125e-06
1.67593e-07
-6.85891e-07
-1.38583e-06
5.65458e-06
-7.89864e-07
-1.24532e-06
5.56889e-06
-8.62089e-07
-1.08531e-06
5.1397e-06
-6.91549e-07
-7.78399e-07
5.02072e-06
-4.01296e-07
-5.5673e-07
4.17242e-06
-4.7882e-07
3.12851e-06
-1.6571e-07
-5.48879e-07
5.33295e-06
4.26549e-07
-7.51771e-07
-7.04413e-07
5.65401e-06
-8.856e-07
-7.20166e-07
5.60178e-06
-8.36177e-07
-6.18773e-07
5.10406e-06
-7.65697e-07
-4.06908e-07
4.39753e-06
-5.94754e-07
-1.9652e-07
3.58958e-06
-3.98727e-07
2.76429e-06
-5.15028e-08
-3.85562e-07
-4.68246e-07
-4.1346e-07
5.04552e-06
7.30763e-07
7.79654e-07
-4.1542e-07
-2.78202e-07
4.72538e-06
8.7996e-07
-2.7445e-07
-3.9748e-07
4.71298e-06
9.68553e-07
-1.16831e-07
-5.43281e-07
4.81109e-06
1.02653e-06
1.03398e-07
-7.45804e-07
4.73028e-06
8.28908e-07
2.34599e-07
-7.50258e-07
4.08438e-06
7.21783e-07
-6.16486e-07
3.19305e-06
2.6579e-07
5.70731e-07
-2.28635e-07
-1.64812e-07
2.61607e-06
5.84517e-07
-1.92715e-07
-6.30168e-08
1.85963e-06
-1.29374e-07
-1.36799e-07
1.84845e-06
-1.01773e-07
-2.13561e-07
2.2535e-06
1.7357e-07
-4.75606e-07
4.1539e-06
3.32104e-07
-6.69602e-07
4.37805e-06
-5.84428e-07
3.52509e-06
3.55536e-07
-2.01133e-07
-2.20311e-07
1.81414e-06
3.67817e-07
-5.20508e-07
-4.42369e-07
3.00125e-06
-2.33929e-07
-1.56466e-07
2.51468e-06
-8.48364e-08
-1.57437e-07
1.76193e-06
1.49563e-07
-3.85741e-07
3.48132e-06
4.14009e-07
-5.7232e-07
4.56671e-06
-5.10532e-07
3.66208e-06
4.54711e-07
-3.03017e-07
-2.07321e-07
1.73046e-06
5.3095e-07
-1.71794e-07
-2.5267e-07
2.50146e-06
-1.16023e-07
-1.45981e-07
1.56492e-06
-2.34874e-08
-6.31675e-08
1.30567e-06
2.8325e-07
-2.70686e-07
3.1708e-06
5.06833e-07
-3.88088e-07
4.52276e-06
-3.78334e-07
3.63119e-06
5.17436e-07
-3.22009e-07
-1.35756e-07
2.32722e-06
6.47782e-07
-1.57915e-07
-1.04833e-07
1.70634e-06
-4.26395e-08
-4.04793e-08
1.32925e-06
-1.03289e-08
-6.79327e-08
1.99901e-06
3.70051e-07
-1.16599e-07
3.95214e-06
4.98138e-07
-1.57901e-07
4.32554e-06
-2.33381e-07
3.39695e-06
4.85663e-07
-4.95642e-07
3.45336e-08
4.30207e-06
8.15678e-07
-3.90492e-07
3.91326e-08
4.02893e-06
-2.01847e-07
1.78772e-07
3.84524e-06
1.39298e-08
1.95486e-07
4.05902e-06
2.91691e-07
8.09863e-08
4.48421e-06
3.97646e-07
-1.74124e-08
3.90146e-06
-1.29759e-07
3.14337e-06
4.13545e-07
-6.90145e-07
5.08142e-06
8.1635e-07
1.54613e-07
-5.3684e-07
5.2174e-06
2.56297e-07
-2.63955e-07
5.1079e-06
3.25522e-07
2.62057e-08
4.71759e-06
2.68682e-07
2.35003e-07
4.14985e-06
1.18218e-07
3.00523e-07
3.24033e-06
3.74832e-08
2.79002e-06
3.65121e-07
-8.86731e-08
-8.3964e-07
-1.45157e-06
5.05763e-06
1.40631e-06
1.88982e-06
-2.56913e-07
-1.452e-06
4.62272e-06
2.48665e-06
3.33797e-07
-1.54847e-06
4.61992e-06
2.58048e-06
8.28698e-07
-1.64825e-06
4.81759e-06
2.24466e-06
9.45204e-07
-1.64391e-06
4.79894e-06
1.62357e-06
8.30585e-07
-1.21067e-06
4.22693e-06
1.10928e-06
-7.72745e-07
3.55966e-06
6.90004e-07
7.53047e-07
-4.98836e-07
-5.12872e-07
2.66306e-06
1.48976e-06
-7.65157e-08
-5.9521e-07
2.05326e-06
2.1592e-07
-5.13332e-07
1.95936e-06
8.37106e-07
-3.78992e-07
2.26115e-06
1.50283e-06
-9.95557e-07
4.20684e-06
1.20811e-06
-1.00777e-06
4.44132e-06
-6.981e-07
3.64156e-06
9.02625e-07
-4.87279e-07
-1.28173e-07
1.87377e-06
1.11879e-06
-8.29968e-08
-1.70694e-07
2.08052e-06
1.77636e-07
-1.23234e-07
1.84552e-06
4.47174e-07
-8.91447e-08
1.17112e-06
1.81901e-06
-3.28629e-07
3.3105e-06
1.50346e-06
-5.43369e-07
4.54622e-06
-4.6813e-07
3.78987e-06
1.10847e-06
-3.99097e-07
1.45014e-07
1.87681e-06
1.26659e-06
-5.83323e-08
9.49532e-08
1.88357e-06
1.37043e-07
6.93965e-08
1.1696e-06
2.87147e-07
7.46049e-08
9.73599e-07
1.83515e-06
1.70593e-07
3.0018e-06
1.58617e-06
-7.16451e-10
4.47611e-06
-1.71622e-07
3.74074e-06
1.16197e-06
-4.80484e-07
7.60474e-07
2.37196e-06
1.50844e-06
-4.41369e-08
7.09797e-07
1.76935e-06
1.24893e-07
3.35141e-07
1.06072e-06
9.55338e-07
8.62711e-07
2.08581e-06
1.68052e-06
8.01291e-07
4.14517e-06
1.35753e-06
3.63611e-07
4.30401e-06
4.61087e-08
3.54443e-06
1.02241e-06
-8.411e-07
1.33889e-06
4.4674e-06
1.52312e-06
-2.18057e-07
1.74695e-06
3.90824e-06
3.51125e-07
1.82402e-06
3.61391e-06
9.92978e-07
1.59681e-06
4.35451e-06
1.16725e-06
9.31667e-07
4.52681e-06
1.00026e-06
4.23919e-07
3.90073e-06
1.35311e-07
3.27424e-06
8.15123e-07
-8.77539e-07
5.14723e-06
1.16398e-06
9.94582e-07
-3.59494e-07
5.16862e-06
1.35444e-06
2.41661e-07
5.01706e-06
1.40299e-06
6.69887e-07
4.6723e-06
1.17376e-06
7.23511e-07
4.0868e-06
7.44458e-07
6.70056e-07
3.30908e-06
3.86677e-07
2.9122e-06
6.32675e-07
1.31719e-07
-7.90269e-07
-1.70211e-06
5.83263e-06
1.08466e-06
1.57246e-06
-2.17392e-07
-2.21574e-06
5.87162e-06
2.13402e-06
3.66019e-07
-2.33142e-06
5.76714e-06
2.21894e-06
7.13536e-07
-1.95281e-06
5.49613e-06
1.71208e-06
7.42051e-07
-1.3782e-06
5.00933e-06
1.19605e-06
6.28366e-07
-9.19032e-07
4.33618e-06
8.26922e-07
-5.9318e-07
3.73785e-06
5.34791e-07
5.40388e-07
-8.46773e-07
-9.86383e-07
5.63339e-06
1.54698e-06
-1.42289e-07
-1.09953e-06
5.10071e-06
5.07727e-07
-1.2218e-06
5.0608e-06
1.07508e-06
-1.07627e-06
5.20293e-06
1.14578e-06
-1.0848e-06
5.19981e-06
8.85981e-07
-8.20103e-07
4.56053e-06
-5.28223e-07
3.8043e-06
6.50172e-07
-9.48001e-07
-2.6318e-07
5.02655e-06
1.96781e-06
-8.50372e-08
-1.69515e-07
3.92196e-06
4.82137e-07
-1.43582e-07
3.67356e-06
1.24829e-06
-2.00141e-07
3.9889e-06
1.5498e-06
-4.37939e-07
5.14771e-06
1.11281e-06
-4.75163e-07
4.66191e-06
-3.86537e-07
3.84539e-06
7.84325e-07
-1.04677e-06
4.08751e-07
5.13858e-06
2.04862e-06
-7.44792e-08
5.05117e-07
3.95055e-06
3.99803e-07
4.18549e-07
3.28658e-06
1.25711e-06
3.90332e-07
3.50635e-06
1.66343e-06
2.23604e-07
5.01545e-06
1.15635e-06
-5.28317e-08
4.60569e-06
-1.85e-07
3.8503e-06
8.22289e-07
-9.78663e-07
9.45558e-07
5.64633e-06
1.66671e-06
-1.31891e-07
1.40333e-06
5.17139e-06
5.2781e-07
1.42647e-06
4.67817e-06
1.27343e-06
1.16768e-06
5.167e-06
1.26799e-06
5.73925e-07
5.05511e-06
9.64026e-07
1.67154e-07
4.38226e-06
-4.84664e-08
3.67047e-06
7.22337e-07
-8.23582e-07
9.28212e-07
5.66408e-06
1.16352e-06
-1.86198e-07
1.3742e-06
5.66952e-06
4.69301e-07
1.45866e-06
5.48301e-06
8.58385e-07
1.06065e-06
5.23875e-06
8.51055e-07
5.48602e-07
4.63839e-06
6.93009e-07
2.11739e-07
3.8554e-06
-7.73961e-10
3.35469e-06
5.75688e-07
-5.82006e-07
5.27975e-06
7.67522e-07
6.05721e-07
-1.7935e-07
5.24939e-06
9.04719e-07
2.75888e-07
5.0682e-06
9.61572e-07
4.98697e-07
4.67066e-06
7.2023e-07
5.18963e-07
3.92923e-06
4.15321e-07
4.8007e-07
3.36246e-06
1.65256e-07
2.99889e-06
4.46288e-07
2.02774e-08
-2.51936e-07
-8.58113e-07
6.04973e-06
2.87331e-07
7.57907e-07
-1.05219e-07
-1.05658e-06
6.06873e-06
9.2102e-07
7.66715e-08
-1.04701e-06
5.91739e-06
8.97476e-07
1.86014e-07
-8.38506e-07
5.55827e-06
7.08612e-07
2.17246e-07
-6.04807e-07
5.06727e-06
4.99155e-07
2.0468e-07
-4.13638e-07
4.36886e-06
3.38824e-07
-2.55856e-07
3.80595e-06
2.11486e-07
1.86267e-07
-3.96218e-07
-7.81128e-07
6.23302e-06
4.69419e-07
-1.46716e-07
-9.22548e-07
6.34282e-06
1.42883e-07
-9.44419e-07
6.207e-06
2.73667e-07
-7.81369e-07
5.79124e-06
2.64303e-07
-5.96769e-07
5.28048e-06
2.23338e-07
-4.3797e-07
4.62065e-06
-2.96718e-07
3.86982e-06
1.90972e-07
-5.53354e-07
-5.02742e-07
6.39902e-06
6.74958e-07
-1.73041e-07
-4.79055e-07
6.5089e-06
2.3388e-07
-4.69329e-07
6.30539e-06
4.01712e-07
-4.47668e-07
5.89532e-06
3.55582e-07
-4.45824e-07
5.36392e-06
2.72227e-07
-3.81573e-07
4.68332e-06
-2.95907e-07
3.89687e-06
2.1212e-07
-5.78642e-07
-1.94477e-07
6.30924e-06
7.04217e-07
-1.82278e-07
-3.85876e-08
6.42922e-06
2.47971e-07
-6.33111e-09
6.21685e-06
4.22962e-07
-1.17556e-07
5.82575e-06
3.78636e-07
-2.5527e-07
5.27094e-06
2.8907e-07
-2.87899e-07
4.60716e-06
-2.67794e-07
3.87474e-06
2.16697e-07
-3.98521e-07
-8.60925e-08
6.04952e-06
4.96659e-07
-1.22036e-07
7.28119e-08
6.16635e-06
1.96882e-07
9.37051e-08
5.93599e-06
3.30674e-07
-3.1315e-08
5.55081e-06
3.09272e-07
-1.56319e-07
5.01752e-06
2.47308e-07
-2.15357e-07
4.36441e-06
-2.3801e-07
3.69058e-06
1.96913e-07
-2.2438e-07
-7.82661e-08
5.68482e-06
2.81126e-07
-6.1101e-08
5.53061e-08
5.67835e-06
1.3939e-07
5.50378e-08
5.50458e-06
2.38078e-07
-3.09169e-08
5.16329e-06
2.22023e-07
-1.03013e-07
4.59142e-06
1.90287e-07
-1.65931e-07
3.81881e-06
-2.19087e-07
3.36581e-06
1.68439e-07
-9.58767e-08
5.31572e-06
1.10247e-07
-1.29077e-07
-2.08446e-08
5.22914e-06
3.47516e-09
1.10869e-07
5.01807e-06
-2.13841e-08
1.63506e-07
4.46869e-06
-4.69884e-08
1.87797e-07
3.86238e-06
-8.37827e-08
1.89051e-07
3.40428e-06
-1.36268e-07
3.01597e-06
1.47499e-07
-1.66893e-07
1.25368e-07
-5.04448e-07
6.17764e-06
-1.82835e-07
4.25605e-07
7.89103e-08
-4.89851e-07
6.19989e-06
4.05875e-07
5.50848e-08
-4.30083e-07
6.04188e-06
3.29316e-07
4.09157e-08
-3.36148e-07
5.69671e-06
2.21748e-07
2.4118e-08
-2.41826e-07
5.15863e-06
1.26806e-07
1.11407e-08
-1.3591e-07
4.39854e-06
4.42289e-08
-4.32309e-08
3.86757e-06
3.81537e-08
-4.80025e-08
7.45352e-08
-5.48695e-07
6.33366e-06
-1.21104e-07
4.15063e-08
-5.39732e-07
6.43819e-06
2.63497e-08
-4.92659e-07
6.29307e-06
1.90282e-09
-4.163e-07
5.90938e-06
-3.63724e-08
-3.27494e-07
5.40917e-06
-5.19219e-08
-2.26322e-07
4.74082e-06
-1.28003e-07
3.95198e-06
-3.21869e-08
4.18987e-08
-5.47012e-07
6.44863e-06
-8.94736e-08
2.10255e-08
-5.39197e-07
6.53808e-06
1.91679e-08
-5.03469e-07
6.39141e-06
-3.70837e-09
-4.40262e-07
5.95368e-06
-4.80415e-08
-3.83101e-07
5.46375e-06
-7.17131e-08
-2.9972e-07
4.77739e-06
-2.05138e-07
3.96202e-06
-6.6092e-08
3.89771e-08
-5.17094e-07
6.3427e-06
-8.25638e-08
2.71754e-08
-4.91756e-07
6.41465e-06
3.01572e-08
-4.8096e-07
6.21624e-06
6.66304e-11
-4.6154e-07
5.8934e-06
-4.1959e-08
-4.18668e-07
5.34831e-06
-7.18429e-08
-3.48275e-07
4.68486e-06
-2.56316e-07
3.93558e-06
-7.99234e-08
1.00399e-07
-4.87848e-07
6.06767e-06
-1.44984e-07
5.38135e-08
-4.73086e-07
5.91377e-06
3.80162e-08
-4.84026e-07
5.9667e-06
8.84788e-09
-4.74603e-07
5.598e-06
-2.91642e-08
-4.33179e-07
5.07679e-06
-6.53709e-08
-3.41314e-07
4.38155e-06
-2.86663e-07
3.72247e-06
-7.7144e-08
1.4736e-07
-4.54968e-07
5.71526e-06
-2.09354e-07
9.986e-08
-4.54529e-07
5.71116e-06
5.69346e-08
-4.62941e-07
5.52948e-06
1.80154e-08
-4.56098e-07
5.1839e-06
-2.739e-08
-3.79783e-07
4.52383e-06
-5.15971e-08
-3.40266e-07
3.82719e-06
-2.92019e-07
3.38445e-06
-6.61822e-08
2.03227e-07
5.36209e-06
-3.1043e-07
-4.07319e-07
1.13563e-07
5.2691e-06
-3.98658e-07
5.44632e-08
5.02755e-06
-4.11027e-07
1.91579e-08
4.44353e-06
-3.72587e-07
-5.24207e-09
3.83492e-06
-3.51124e-07
-1.56678e-08
3.52605e-06
-3.08519e-07
3.0152e-06
-5.43313e-08
-2.48809e-07
4.02808e-07
-2.46746e-07
6.38133e-06
-5.26624e-07
1.66993e-07
2.56871e-07
-2.05418e-07
6.40895e-06
9.40579e-08
1.16744e-07
-1.25802e-07
6.30466e-06
-3.75602e-09
-2.44022e-09
-5.01808e-08
5.94938e-06
-8.56644e-08
-7.70965e-08
5.92434e-10
5.30772e-06
-1.29149e-07
-1.08391e-07
6.45256e-08
4.45341e-06
-1.59445e-07
1.24746e-07
3.91879e-06
-8.05487e-08
-2.23359e-07
3.53396e-07
-3.97893e-07
6.44995e-06
-4.67201e-07
2.25737e-07
-3.29385e-07
6.69034e-06
8.68413e-08
-2.62956e-07
6.56221e-06
-7.10256e-08
-2.18813e-07
6.10191e-06
-1.77634e-07
-1.51778e-07
5.66449e-06
-2.09537e-07
-7.07857e-08
4.93585e-06
1.34083e-08
4.15127e-06
-1.82658e-07
3.82419e-07
-5.0765e-07
6.66191e-06
-4.83742e-07
2.21754e-07
-5.03597e-07
6.87074e-06
4.15091e-08
-4.63945e-07
6.5628e-06
-1.11378e-07
-3.66347e-07
6.25352e-06
-2.28917e-07
-3.1086e-07
5.73778e-06
-2.69016e-07
-2.13756e-07
4.98e-06
-1.08279e-07
4.15621e-06
-2.41988e-07
3.52486e-07
-6.03992e-07
6.34964e-06
-4.74618e-07
1.95558e-07
-5.85541e-07
6.61225e-06
5.1622e-08
-5.8176e-07
6.47807e-06
-1.2418e-07
-5.27222e-07
5.85662e-06
-2.31339e-07
-4.5031e-07
5.59066e-06
-2.72386e-07
-3.4289e-07
4.85575e-06
-2.05764e-07
4.04913e-06
-2.67642e-07
3.66339e-07
-6.58861e-07
6.23916e-06
-4.8188e-07
1.82207e-07
-6.51657e-07
6.00857e-06
2.83494e-08
-6.76374e-07
6.21362e-06
-1.05264e-07
-6.29009e-07
5.8377e-06
-1.99093e-07
-5.40754e-07
5.26437e-06
-2.52668e-07
-3.98884e-07
4.50095e-06
-2.74564e-07
3.77204e-06
-2.57596e-07
3.61617e-07
-6.59126e-07
5.82903e-06
-4.71689e-07
2.17478e-07
-6.69261e-07
5.87303e-06
4.38959e-08
-6.70104e-07
5.69974e-06
-9.20359e-08
-6.23356e-07
5.31548e-06
-1.72589e-07
-5.08095e-07
4.62339e-06
-2.0739e-07
-4.13383e-07
3.89639e-06
-3.00947e-07
3.428e-06
-2.30294e-07
3.99323e-07
5.28393e-06
-5.08805e-07
-5.65345e-07
2.14809e-07
5.35533e-06
-5.72165e-07
4.74943e-08
5.09814e-06
-5.67928e-07
-5.41522e-08
4.55637e-06
-5.23278e-07
-1.33131e-07
3.86935e-06
-4.86852e-07
-1.68541e-07
3.61653e-06
-3.98297e-07
3.02223e-06
-1.99254e-07
-2.78844e-07
6.66567e-07
1.08443e-07
6.63404e-06
-8.07343e-07
-2.18124e-07
4.10714e-07
2.27014e-07
6.69483e-06
-3.45892e-07
1.23714e-07
3.39062e-07
6.66446e-06
-4.63773e-07
-1.20229e-07
3.56387e-07
6.28946e-06
-4.91792e-07
-2.37583e-07
3.1703e-07
5.49344e-06
-4.40304e-07
-2.61487e-07
2.94594e-07
4.57799e-06
-3.63247e-07
2.90933e-07
3.94975e-06
-2.11755e-07
-3.95386e-07
6.76934e-07
-1.64758e-07
6.71678e-06
-8.10204e-07
4.34621e-07
-4.8456e-08
7.20761e-06
9.31189e-08
6.08069e-08
7.17627e-06
-2.5168e-07
8.22761e-08
6.18662e-06
-4.02914e-07
7.48543e-08
5.99346e-06
-4.19141e-07
1.09289e-07
5.15299e-06
1.4996e-07
4.22427e-06
-3.56165e-07
7.72926e-07
-4.28704e-07
7.03135e-06
-8.71054e-07
4.87103e-07
-4.28029e-07
7.53709e-06
5.2087e-08
-3.9779e-07
6.84203e-06
-3.73731e-07
-3.36791e-07
6.36663e-06
-5.06289e-07
-2.42855e-07
6.18514e-06
-5.14463e-07
-1.28825e-07
5.2393e-06
-1.8281e-08
4.28235e-06
-4.44329e-07
6.86838e-07
-6.77941e-07
6.67318e-06
-8.41747e-07
3.96526e-07
-7.15471e-07
6.71524e-06
-1.02819e-08
-7.83975e-07
6.92036e-06
-3.51845e-07
-6.72636e-07
5.83049e-06
-4.99461e-07
-5.02874e-07
5.95616e-06
-5.2014e-07
-3.31357e-07
5.07953e-06
-1.64769e-07
4.15572e-06
-4.68935e-07
6.0644e-07
-7.96631e-07
6.50713e-06
-7.54009e-07
2.7736e-07
-8.54605e-07
6.3352e-06
-3.86584e-08
-9.09844e-07
6.67336e-06
-2.96935e-07
-8.06497e-07
6.23408e-06
-4.29953e-07
-6.49855e-07
5.53996e-06
-4.68425e-07
-4.33777e-07
4.66155e-06
-2.61966e-07
3.83919e-06
-4.44179e-07
4.97184e-07
-8.12258e-07
5.96418e-06
-6.15773e-07
2.79733e-07
-8.65586e-07
6.10425e-06
-1.43484e-08
-8.7516e-07
5.96189e-06
-2.41549e-07
-7.7752e-07
5.53237e-06
-3.45537e-07
-6.34339e-07
4.80461e-06
-3.81036e-07
-4.74911e-07
3.97735e-06
-3.08166e-07
3.46571e-06
-3.87647e-07
4.81683e-07
5.15355e-06
-5.17157e-07
-5.97631e-07
2.50554e-07
5.42185e-06
-6.95031e-07
2.17813e-08
5.18858e-06
-7.27481e-07
-1.40477e-07
4.67131e-06
-6.75652e-07
-2.49958e-07
4.046e-06
-5.669e-07
-3.06078e-07
3.6411e-06
-4.54231e-07
3.02486e-06
-3.19653e-07
-3.00831e-07
9.89138e-07
6.62533e-07
6.83774e-06
-1.07978e-06
-7.75512e-07
5.72626e-07
9.75688e-07
7.07783e-06
-1.05308e-06
1.17924e-08
1.18761e-06
7.09841e-06
-1.22132e-06
-4.16195e-07
1.00156e-06
6.59786e-06
-1.12471e-06
-5.30412e-07
7.91818e-07
5.66187e-06
-8.6197e-07
-4.73936e-07
5.81355e-07
4.65208e-06
-6.35923e-07
4.6666e-07
3.91714e-06
-3.66719e-07
-5.71373e-07
1.16699e-06
2.48296e-07
7.18002e-06
-1.31371e-06
7.3e-07
3.44937e-07
6.75667e-06
-1.19219e-07
4.44773e-07
7.23232e-06
-6.91907e-07
4.89004e-07
6.14076e-06
-8.46182e-07
4.06448e-07
6.19075e-06
-7.40137e-07
3.30765e-07
5.30947e-06
2.92388e-07
4.23056e-06
-5.7138e-07
1.2903e-06
-3.86116e-07
7.25669e-06
-1.48713e-06
8.58409e-07
-2.95775e-07
8.60146e-06
-1.02189e-08
-2.51675e-07
7.30358e-06
-9.59772e-07
-3.3942e-07
4.1272e-06
-1.06525e-06
-2.03537e-07
6.70268e-06
-8.95168e-07
-5.59158e-08
5.45664e-06
5.41952e-08
4.32059e-06
-6.94888e-07
1.14211e-06
-8.83407e-07
7.18357e-06
-1.40819e-06
6.41359e-07
-1.04384e-06
6.1712e-06
-2.71722e-07
-1.33629e-06
5.65565e-06
-8.30961e-07
-9.8239e-07
5.92887e-06
-9.99863e-07
-6.81384e-07
6.23909e-06
-8.75944e-07
-3.73137e-07
5.27337e-06
-1.4974e-07
4.19321e-06
-7.08155e-07
9.3183e-07
-1.04383e-06
6.8155e-06
-1.11481e-06
4.12103e-07
-1.24791e-06
6.84634e-06
-2.17809e-07
-1.38996e-06
7.33941e-06
-6.6667e-07
-1.17025e-06
6.67545e-06
-7.98481e-07
-8.49478e-07
5.77025e-06
-7.45932e-07
-5.14886e-07
4.78174e-06
-2.74196e-07
3.86052e-06
-6.43473e-07
6.54077e-07
-9.94517e-07
6.0534e-06
-7.8908e-07
3.30756e-07
-1.14112e-06
6.32263e-06
-1.30774e-07
-1.19554e-06
6.23209e-06
-4.65493e-07
-1.02942e-06
5.75178e-06
-5.74694e-07
-7.87701e-07
4.98009e-06
-5.83537e-07
-5.53414e-07
4.02902e-06
-3.33388e-07
3.4557e-06
-5.35327e-07
5.23888e-07
5.09381e-06
-5.69304e-07
-5.88912e-07
2.51833e-07
5.41918e-06
-8.30092e-07
-5.45142e-08
5.22222e-06
-9.12351e-07
-2.72723e-07
4.73503e-06
-8.43858e-07
-3.85923e-07
4.23176e-06
-6.83482e-07
-4.29818e-07
3.61981e-06
-5.12331e-07
2.99841e-06
-4.12441e-07
-3.29774e-07
1.22718e-06
1.27689e-06
6.84179e-06
-1.25639e-06
-1.25155e-06
6.67704e-07
1.62088e-06
7.20087e-06
-1.71943e-06
-1.94903e-07
1.7e-06
7.08515e-06
-1.94434e-06
-7.09887e-07
1.3934e-06
6.38007e-06
-1.70326e-06
-7.23809e-07
1.20404e-06
5.68175e-06
-1.17949e-06
-5.86825e-07
8.00238e-07
4.57543e-06
-8.32382e-07
5.78486e-07
3.79465e-06
-4.19631e-07
-6.60246e-07
1.45423e-06
6.94535e-07
7.51439e-06
-1.78037e-06
5.31419e-07
8.02673e-07
5.08085e-06
-3.56728e-07
7.09211e-07
3.65849e-06
-9.74722e-07
4.18125e-07
4.99862e-06
-1.2366e-06
7.39098e-07
5.80941e-06
-9.4375e-07
5.32161e-07
5.28493e-06
3.96106e-07
4.12606e-06
-6.51525e-07
1.57545e-06
-2.55733e-07
5.20051e-06
-2.15975e-06
7.68874e-07
-3.12799e-07
9.12735e-06
-4.06774e-07
-2.60234e-07
7.0279e-06
-1.14976e-06
-9.35962e-08
1.48806e-06
-1.61502e-06
-1.53519e-07
6.34866e-06
-1.15158e-06
2.08764e-08
5.50582e-06
1.24734e-07
4.23796e-06
-7.96549e-07
1.36857e-06
-1.06738e-06
7.13923e-06
-2.01506e-06
2.67893e-07
-1.20356e-06
4.42372e-06
-3.30261e-07
-1.34062e-06
1.93987e-06
-1.07009e-06
-1.01634e-06
4.76397e-06
-1.47842e-06
-8.39308e-07
5.71428e-06
-1.1062e-06
-3.86455e-07
5.30931e-06
-1.10451e-07
4.12034e-06
-7.97405e-07
1.23624e-06
-1.25515e-06
6.87082e-06
-1.45243e-06
4.89173e-07
-1.65281e-06
6.85436e-06
-4.38453e-07
-1.80424e-06
7.3392e-06
-1.03024e-06
-1.45926e-06
6.29366e-06
-1.08929e-06
-9.91754e-07
5.8359e-06
-8.97416e-07
-5.47289e-07
4.75812e-06
-2.45089e-07
3.80082e-06
-6.98933e-07
7.8262e-07
-1.09752e-06
6.01047e-06
-8.941e-07
3.57682e-07
-1.3393e-06
6.43544e-06
-2.35608e-07
-1.43764e-06
6.38965e-06
-6.25642e-07
-1.16557e-06
5.84295e-06
-7.02511e-07
-8.68807e-07
4.99763e-06
-6.64181e-07
-5.53837e-07
4.00265e-06
-3.03695e-07
3.38971e-06
-5.52633e-07
5.48578e-07
5.11542e-06
-5.53377e-07
-6.75178e-07
2.40174e-07
5.31294e-06
-8.33047e-07
-9.12707e-08
5.15271e-06
-9.4631e-07
-3.23477e-07
4.72472e-06
-8.89001e-07
-4.24312e-07
4.18206e-06
-6.92641e-07
-4.38651e-07
3.54143e-06
-4.81288e-07
2.94524e-06
-3.94809e-07
-2.9889e-07
9.15112e-07
1.14013e-06
6.66983e-06
-8.87712e-07
-1.07672e-06
4.3206e-07
1.05787e-06
6.3771e-06
-1.38647e-06
-1.12866e-07
7.51444e-07
5.26468e-06
-1.68893e-06
-4.22173e-07
7.57197e-07
5.3039e-06
-1.35292e-06
-4.06812e-07
9.56363e-07
5.49592e-06
-9.10163e-07
-2.76173e-07
6.59024e-07
4.43787e-06
-6.54603e-07
4.83925e-07
3.7007e-06
-1.61737e-07
-5.09966e-07
7.94022e-07
6.05498e-07
6.53686e-06
-1.31501e-06
7.53646e-08
4.49022e-07
2.7749e-06
-9.06785e-08
1.80775e-07
1.61971e-06
-3.85597e-07
1.66224e-07
2.42272e-06
-7.52621e-07
5.61844e-07
4.69241e-06
-5.0327e-07
5.31496e-07
5.15155e-06
3.87475e-07
4.02782e-06
-2.99915e-07
6.5688e-07
3.59985e-08
3.25032e-06
-1.38088e-06
2.86829e-07
-3.11211e-08
2.96312e-06
-2.33031e-07
9.4884e-09
2.74422e-06
-3.72898e-07
7.81888e-08
1.71756e-06
-9.13514e-07
3.27639e-08
3.75616e-06
-6.59221e-07
1.7112e-07
5.33858e-06
2.19897e-07
4.14823e-06
-4.00936e-07
4.81051e-07
-4.62538e-07
4.80505e-06
-1.3818e-06
2.87539e-08
-3.12981e-07
1.87005e-06
-8.11985e-08
-2.45117e-07
1.88578e-06
-3.52533e-07
-2.26073e-07