/*--------------------------------*- C++ -*----------------------------------*\
| =========                 |                                                 |
| \\      /  F ield         | OpenFOAM: The Open Source CFD Toolbox           |
|  \\    /   O peration     | Version:  plus.master.MPPICInterFoam            |
|   \\  /    A nd           | Web:      www.OpenFOAM.com                      |
|    \\/     M anipulation  |                                                 |
\*---------------------------------------------------------------------------*/
FoamFile
{
    version     2.0;
    format      ascii;
    class       volScalarField;
    location    "3";
    object      k;
}
// * * * * * * * * * * * * * * * * * * * * * * * * * * * * * * * * * * * * * //

dimensions      [0 2 -2 0 0 0 0];

internalField   nonuniform List<scalar> 
11821
(
0.0473751
0.0538611
0.0429987
0.0520419
0.0442794
0.0366698
0.0374821
0.0429105
0.0465693
0.0467199
0.0437362
0.0389347
0.0337397
0.0449925
0.0529917
0.0595236
0.0595515
0.054701
0.0471391
0.0393939
0.0523014
0.0629478
0.0754315
0.073969
0.0675982
0.0555379
0.0445437
0.0581797
0.0725617
0.077011
0.0822759
0.0807315
0.061932
0.0477439
0.0582279
0.0730172
0.0780201
0.0832431
0.0803373
0.0611554
0.0470613
0.0521257
0.0641812
0.075744
0.0743993
0.0656022
0.0532576
0.0425267
0.0434546
0.0516662
0.0578357
0.05703
0.0512074
0.0435948
0.036273
0.0392769
0.0448106
0.0483345
0.0480207
0.04461
0.0394981
0.0341149
0.0472437
0.0553804
0.0618381
0.0610634
0.0556573
0.0476431
0.0396493
0.054681
0.064745
0.0725268
0.0732472
0.0680227
0.0556311
0.0444782
0.0604175
0.0715761
0.0766143
0.084487
0.0798631
0.0611456
0.0471952
0.0595025
0.0721079
0.0793462
0.0832596
0.0771166
0.0594774
0.0460945
0.0527033
0.0641656
0.0749963
0.0715504
0.0631019
0.0517118
0.0415831
0.0434811
0.0511397
0.056547
0.055114
0.0495976
0.0424822
0.035649
0.0412232
0.0468928
0.0500916
0.0491492
0.0452595
0.0398002
0.0341562
0.0500001
0.0585202
0.0647504
0.062732
0.0565616
0.0479083
0.0395403
0.0577398
0.0681033
0.0762725
0.0753217
0.0688705
0.0554911
0.044069
0.0629182
0.0740055
0.077201
0.0844331
0.0792355
0.0600081
0.0462748
0.0605401
0.0726625
0.0805726
0.0810715
0.0737832
0.0574076
0.044761
0.0531379
0.0647646
0.0750468
0.0702784
0.0608556
0.0499336
0.0403193
0.0433286
0.0504517
0.0549671
0.0531803
0.0478874
0.0411707
0.0346134
0.0430938
0.0490764
0.0518531
0.0501584
0.0455917
0.0396051
0.0335368
0.0535335
0.0632122
0.0680657
0.0648291
0.0574525
0.0476863
0.038795
0.0630274
0.0735738
0.0807618
0.0778424
0.0694225
0.0549736
0.0430274
0.0664149
0.077987
0.0791251
0.0854079
0.0775982
0.0586479
0.0448015
0.062589
0.0738808
0.0812729
0.0825175
0.0712593
0.0553911
0.0430001
0.0538581
0.0650847
0.0743003
0.0689827
0.0587219
0.0479262
0.0386173
0.0429275
0.0497158
0.0535837
0.0514134
0.0460163
0.03952
0.0332265
0.0441441
0.0503847
0.0527463
0.0505182
0.045198
0.0387094
0.0324725
0.0543782
0.0618202
0.0677743
0.0650174
0.057325
0.0465325
0.0372806
0.0630494
0.0764316
0.0804139
0.0782936
0.0700475
0.0537422
0.0411687
0.0687048
0.0785107
0.0792083
0.0844754
0.0775777
0.056841
0.0425749
0.063296
0.0741711
0.0797023
0.0810244
0.0693403
0.0528408
0.0405567
0.0537294
0.0656394
0.0738077
0.0668671
0.0560283
0.0451938
0.0362104
0.0418001
0.0487198
0.0520849
0.0491705
0.0435802
0.0373211
0.0313301
0.0428353
0.0492414
0.0520231
0.0487435
0.0431432
0.0370241
0.0312895
0.0497532
0.0573348
0.0587807
0.0587401
0.0531255
0.0437651
0.0354742
0.0562134
0.0621685
0.0706559
0.0702678
0.0640663
0.0500918
0.0387628
0.0567391
0.066987
0.0724293
0.0786349
0.0692436
0.0522392
0.0397806
0.0562101
0.065132
0.0764715
0.0733456
0.0618669
0.0482099
0.0377933
0.04964
0.0606544
0.0663451
0.0598379
0.0502101
0.0413788
0.0339746
0.0389692
0.0455406
0.0482559
0.0452626
0.0400991
0.0348904
0.0297991
0.0398562
0.0463304
0.0486018
0.0451004
0.0402214
0.0352784
0.0305112
0.04625
0.0535036
0.0564757
0.0532104
0.0475479
0.0403914
0.0338733
0.0516715
0.0531931
0.0618345
0.0592651
0.0561835
0.045123
0.0363747
0.0521743
0.0575924
0.0666777
0.0675352
0.0582603
0.046312
0.03698
0.0487364
0.0554399
0.0599216
0.0583628
0.0512943
0.0427126
0.0352493
0.0427165
0.0509001
0.0545648
0.0495795
0.0437109
0.0377916
0.0323245
0.034908
0.0400486
0.0422115
0.0401502
0.0367497
0.0328579
0.028925
0.0355227
0.0400116
0.0418648
0.0403589
0.0372626
0.033751
0.030029
0.0405665
0.0450482
0.0477477
0.0461431
0.0423972
0.0373614
0.0326126
0.0435029
0.0454024
0.0474006
0.0484737
0.0464658
0.0400718
0.0343667
0.044498
0.0466617
0.0454525
0.0485538
0.0471883
0.0406195
0.0346892
0.0419586
0.0468034
0.0487372
0.0479205
0.0440203
0.0385713
0.0334728
0.0370245
0.0419426
0.0440432
0.0425078
0.0390669
0.0352855
0.031247
0.0312114
0.0348062
0.0365902
0.0360885
0.034231
0.031659
0.0284398
0.0325223
0.0359734
0.037687
0.0373362
0.0355918
0.0331355
0.0300292
0.0370103
0.0412884
0.0432695
0.042351
0.0393175
0.0358701
0.0322266
0.0399514
0.044442
0.0465885
0.04569
0.0419471
0.0376518
0.0335085
0.040174
0.0447288
0.0465888
0.0458366
0.0422455
0.0378789
0.0336791
0.0374494
0.0418318
0.0438893
0.0429017
0.0399171
0.0364322
0.0326846
0.033058
0.0367039
0.0386069
0.0382305
0.0364844
0.0339581
0.0308089
0.0288833
0.0318064
0.0335639
0.0338518
0.0329668
0.0310684
0.028286
0.0315245
0.0346303
0.0365433
0.0369481
0.0359643
0.0339262
0.0308966
0.0345608
0.0380781
0.0401593
0.0403773
0.0388189
0.0363151
0.0330059
0.0363984
0.0402081
0.0424782
0.0425567
0.0405479
0.0376862
0.0341573
0.0364069
0.040201
0.0424626
0.0426479
0.0405625
0.0377135
0.034179
0.0343733
0.0380282
0.040037
0.0402001
0.0388026
0.0364102
0.0331493
0.0313829
0.0344768
0.0364628
0.0369423
0.0360944
0.034188
0.0312577
0.02837
0.0310577
0.0329143
0.0335631
0.0330955
0.0314116
0.028655
0.0329269
0.0364711
0.038807
0.0395104
0.0384742
0.0360941
0.0326054
0.0359841
0.0397568
0.0423545
0.0431307
0.0415763
0.0387927
0.034971
0.0375066
0.0414682
0.0444417
0.0451587
0.0432387
0.0401744
0.0361183
0.0373107
0.0413125
0.044033
0.0447281
0.0429541
0.0400095
0.0360312
0.03523
0.0388777
0.0413968
0.0420634
0.0409311
0.0384035
0.0347445
0.0323855
0.0355782
0.0379075
0.0387004
0.0379171
0.03579
0.0325031
0.0294847
0.0323046
0.0343632
0.0351031
0.0345033
0.0325921
0.0295319
0.0360414
0.0405872
0.043697
0.044372
0.0426186
0.0392506
0.0347634
0.0400786
0.0454128
0.0488441
0.0494361
0.0468314
0.0427231
0.0376486
0.0421259
0.0471961
0.0513659
0.0529846
0.0490933
0.0444628
0.0390468
0.0416433
0.0473041
0.0513893
0.0510807
0.0483557
0.0440123
0.0387432
0.0387645
0.0434018
0.0465906
0.0471206
0.0453087
0.0417107
0.0369658
0.0351736
0.0389326
0.0417451
0.0425198
0.0411959
0.0382358
0.0341445
0.0315384
0.03482
0.0371543
0.0378392
0.0366577
0.0341902
0.0306262
0.0403355
0.0464227
0.0507791
0.0509829
0.0477359
0.0428061
0.0368741
0.0461788
0.0541492
0.0598076
0.058521
0.0540034
0.0474288
0.0403945
0.0503157
0.0561677
0.0615445
0.0636224
0.05754
0.0498109
0.0421146
0.0485498
0.056249
0.0623333
0.0608986
0.0561739
0.0489725
0.0416287
0.0441597
0.0503779
0.0546926
0.0547451
0.051099
0.0456015
0.0392726
0.039082
0.0437334
0.0471559
0.0476114
0.0452078
0.0409089
0.035742
0.0342521
0.0380078
0.0405878
0.0409939
0.0392347
0.0358394
0.0316565
0.0452959
0.0533419
0.0594989
0.0585559
0.0530277
0.0459771
0.0384544
0.0533171
0.0626477
0.068264
0.0684947
0.0621724
0.0520541
0.0426859
0.058452
0.0690153
0.0721095
0.0668629
0.0684354
0.055466
0.0448346
0.0571987
0.0658546
0.0682716
0.0723885
0.0654979
0.0540283
0.0441474
0.0508693
0.0598295
0.0661536
0.0643776
0.057508
0.0493538
0.0411993
0.0434818
0.0494657
0.0537353
0.0531763
0.0491791
0.0432901
0.037011
0.0370942
0.0413256
0.044109
0.0440219
0.0414237
0.0371831
0.0324575
0.0496785
0.0598957
0.06753
0.0640974
0.0567615
0.0478147
0.0391888
0.0601066
0.0675268
0.0659244
0.0746493
0.0679072
0.0552475
0.0439803
0.0634074
0.0723639
0.0690441
0.0745242
0.0762695
0.0598191
0.0465276
0.0646846
0.0669995
0.070786
0.0775949
0.0720568
0.0579116
0.045752
0.0567144
0.0687561
0.0772642
0.0719579
0.0625726
0.0520253
0.0424136
0.0472611
0.0549832
0.0598707
0.0579038
0.0521009
0.0448755
0.0378469
0.0393149
0.0440922
0.0469887
0.0463206
0.0428707
0.0380814
0.0330503
0.0512261
0.0620784
0.0690644
0.0659404
0.0574465
0.0480117
0.0392985
0.0620759
0.0685737
0.0756345
0.0755364
0.0695781
0.0561294
0.0443334
0.0668834
0.0657393
0.0655497
0.0870017
0.0772846
0.0611334
0.0470954
0.0654508
0.0743013
0.0801352
0.0840354
0.0739308
0.0592438
0.0463817
0.0588621
0.0688743
0.0763804
0.0732953
0.0642475
0.0529992
0.0429694
0.0492691
0.0578199
0.0631626
0.060096
0.0533818
0.0456442
0.0383651
0.0406491
0.0456985
0.0486382
0.0475141
0.0436438
0.0386557
0.0335475
0.00965557
0.00397134
0.0250302
0.0208346
0.0170261
0.0134308
0.00965749
0.00390169
0.037965
0.0312132
0.025801
0.0212159
0.0171748
0.0134519
0.00961788
0.00386445
0.0375466
0.030848
0.0254965
0.0209821
0.0170128
0.0133538
0.00957049
0.00385399
0.0346581
0.0289279
0.0242621
0.0202291
0.0165928
0.0131581
0.00951662
0.00386672
0.0305427
0.0262429
0.0225217
0.0191515
0.0159781
0.0128554
0.00941443
0.0039003
0.0290007
0.0253539
0.0220638
0.0189488
0.0159247
0.0128869
0.00948494
0.0040095
0.0327406
0.0277942
0.0236305
0.0198969
0.0164289
0.0130896
0.00950259
0.00391137
0.0360197
0.0298978
0.0248967
0.0205845
0.0167366
0.0131625
0.00944881
0.00382489
0.0378563
0.0309835
0.0254695
0.02084
0.0168108
0.0131419
0.00939099
0.00378185
0.0372381
0.0305106
0.0251106
0.0205838
0.0166452
0.0130462
0.00934457
0.003771
0.0343158
0.0286114
0.0239277
0.0198956
0.0162849
0.0128953
0.00931575
0.00378661
0.0302969
0.0260523
0.0223362
0.0189572
0.0157844
0.0126789
0.00926965
0.00382685
0.0292081
0.0254407
0.0220193
0.0188156
0.0157588
0.0127298
0.00936307
0.00396894
0.0328096
0.0277335
0.0234109
0.0195938
0.016127
0.012838
0.00932638
0.00385844
0.0358401
0.0296363
0.0245008
0.0201486
0.0163466
0.0128608
0.00925106
0.00376623
0.0373621
0.0304689
0.0249222
0.020321
0.0163781
0.0128207
0.00918607
0.00371707
0.036527
0.0298656
0.0245079
0.0200497
0.0162101
0.0127232
0.00913519
0.0037007
0.0336236
0.0280246
0.0233987
0.0194238
0.015891
0.0125904
0.00910541
0.00370957
0.02984
0.0256559
0.0219651
0.0186081
0.0154707
0.0124159
0.00907088
0.00374109
0.0290472
0.0251789
0.0217091
0.0185083
0.0154965
0.0125328
0.00923754
0.003941
0.032452
0.0272646
0.0229214
0.0191557
0.0157854
0.012604
0.00919337
0.00383563
0.0352694
0.0289539
0.023852
0.0196109
0.015955
0.0126116
0.00912268
0.00374673
0.0364759
0.0296092
0.0241646
0.019724
0.0159583
0.0125603
0.00905354
0.00368893
0.0354439
0.0289189
0.0237166
0.0194387
0.0157782
0.0124471
0.00898529
0.00365702
0.0326016
0.0271504
0.0226717
0.018848
0.0154643
0.0122971
0.00892693
0.0036478
0.0290037
0.0249564
0.0213649
0.0181007
0.0150656
0.0121124
0.00886515
0.00365759
0.0283704
0.0245974
0.0212262
0.0181402
0.0152411
0.0123742
0.00915739
0.00394077
0.0315792
0.0264637
0.0222933
0.0187173
0.0155144
0.012462
0.00914286
0.00385316
0.0341237
0.0279431
0.0230908
0.0191087
0.0156678
0.0124805
0.0090935
0.00377225
0.0350738
0.0284423
0.023314
0.0191764
0.0156508
0.0124209
0.0090206
0.00370415
0.0339157
0.0277016
0.0228413
0.0188688
0.0154443
0.012278
0.00892259
0.00364814
0.0311616
0.0260213
0.0218457
0.0182836
0.0151046
0.0120863
0.00882161
0.00361386
0.0278209
0.024017
0.0206428
0.0175655
0.014688
0.01186
0.00871335
0.00359694
0.0274838
0.0239534
0.0207971
0.0178866
0.0151104
0.0123209
0.00915139
0.00397872
0.0303371
0.0256247
0.0217853
0.0184578
0.0154159
0.0124559
0.0091824
0.00391307
0.0325874
0.0268986
0.0224853
0.0188211
0.015578
0.0124983
0.00915891
0.00384108
0.0333122
0.0272637
0.0226387
0.0188541
0.015544
0.0124303
0.00908098
0.00376283
0.0320893
0.0264992
0.0221425
0.0185135
0.0152991
0.0122493
0.00894989
0.00367783
0.0294947
0.0249308
0.0211799
0.0179072
0.0149107
0.0120006
0.00879736
0.00361035
0.0265216
0.0231181
0.0200392
0.0171762
0.0144449
0.0117133
0.00863265
0.00356466
0.0268488
0.0236378
0.0206783
0.0178733
0.0151446
0.0123697
0.00919856
0.00403029
0.02941
0.0251939
0.0216478
0.018474
0.0154991
0.0125564
0.00927418
0.00398263
0.0313098
0.0263035
0.0222908
0.0188334
0.0156805
0.0126256
0.00927499
0.00391728
0.0318259
0.0265474
0.0223795
0.0188322
0.0156282
0.0125476
0.00919126
0.00383325
0.0306241
0.0257756
0.0218497
0.0184464
0.0153373
0.0123265
0.00902944
0.00373155
0.0283116
0.0243132
0.0208879
0.0177923
0.0148847
0.0120147
0.0088248
0.00363184
0.0256905
0.022622
0.0197492
0.01701
0.0143482
0.011655
0.00859777
0.00355634
0.0266297
0.0236506
0.0207858
0.0180032
0.0152644
0.0124666
0.00926761
0.00407677
0.0288183
0.0250722
0.0217293
0.0186245
0.0156566
0.0126958
0.00938156
0.00404313
0.0303624
0.0260305
0.0223222
0.0189798
0.0158528
0.0127847
0.00939962
0.00398061
0.0306835
0.0261742
0.0223578
0.0189483
0.0157828
0.0126968
0.00931034
0.00389123
0.0296058
0.0254265
0.0218022
0.0185201
0.0154497
0.0124404
0.00912326
0.00377997
0.0276506
0.0240643
0.0208263
0.0178098
0.0149321
0.0120697
0.00887294
0.00366271
0.025283
0.0224258
0.0196521
0.0169578
0.0143173
0.0116357
0.00858481
0.0035615
0.026575
0.0237699
0.0209635
0.0181851
0.0154296
0.0126072
0.00937487
0.00413319
0.0284579
0.025088
0.0218896
0.0188233
0.0158521
0.0128697
0.00951817
0.00410851
0.0296791
0.0259161
0.0224381
0.0191701
0.0160534
0.0129681
0.00954499
0.00404598
0.0298701
0.0259873
0.0224285
0.0191096
0.0159652
0.0128685
0.00944741
0.00395183
0.0289596
0.0252649
0.0218458
0.0186416
0.0155946
0.0125825
0.00923898
0.00383434
0.0272467
0.0239519
0.020839
0.017875
0.0150196
0.0121633
0.00895418
0.00370815
0.025062
0.0223362
0.0196201
0.0169547
0.0143336
0.0116653
0.00861886
0.00359005
0.0268096
0.0240804
0.0212797
0.0184769
0.0156875
0.0128261
0.00954184
0.00420962
0.0285654
0.0253694
0.0222146
0.0191363
0.0161335
0.0131104
0.00970287
0.00418803
0.0295947
0.0261225
0.0227345
0.0194723
0.0163317
0.0132088
0.00972981
0.00412376
0.0296794
0.0261233
0.022676
0.0193784
0.01622
0.0130924
0.00962035
0.00402652
0.0288053
0.025367
0.0220411
0.0188614
0.0158107
0.0127774
0.00939218
0.00390647
0.0271779
0.0240287
0.0209735
0.0180308
0.0151818
0.0123179
0.00908163
0.00377807
0.0250394
0.0223697
0.0196823
0.0170364
0.0144307
0.0117697
0.0087125
0.00364738
0.0275755
0.024737
0.0218232
0.0189213
0.0160498
0.013116
0.00975321
0.00430056
0.0293573
0.0260656
0.0227907
0.0196031
0.0165108
0.0134104
0.00992055
0.00427528
0.0303374
0.0267993
0.023298
0.0199289
0.0167005
0.0135018
0.00994171
0.00421042
0.0303275
0.0267297
0.0231868
0.0197963
0.0165615
0.0133666
0.00981989
0.00411253
0.0293588
0.0258729
0.0224697
0.01922
0.0161111
0.0130244
0.00957571
0.00399026
0.0276269
0.0244174
0.0213038
0.0183169
0.0154318
0.0125322
0.00924767
0.00385906
0.0253553
0.0226313
0.019909
0.0172433
0.0146233
0.0119437
0.00885278
0.00372181
0.0288149
0.0256738
0.0225259
0.0194542
0.0164612
0.0134332
0.00997854
0.00439152
0.0307799
0.0271022
0.0235405
0.0201548
0.0169276
0.0137271
0.0101424
0.00436108
0.0317957
0.0278518
0.0240458
0.0204707
0.0171063
0.0138086
0.0101559
0.00429259
0.0316913
0.0277047
0.0238762
0.0202984
0.0169416
0.0136576
0.0100257
0.00419311
0.0305112
0.0266939
0.023059
0.0196606
0.0164553
0.0132959
0.00977338
0.00407095
0.0285122
0.0250515
0.0217747
0.0186863
0.0157345
0.0127814
0.00943706
0.00394145
0.0259735
0.0230887
0.0202686
0.017543
0.0148818
0.0121651
0.00902591
0.00380255
0.0302267
0.0266664
0.0232277
0.0199663
0.0168494
0.0137311
0.0101909
0.00446649
0.0324769
0.0282215
0.0242914
0.0206823
0.0173184
0.0140227
0.0103499
0.00443174
0.0336239
0.0290191
0.0248046
0.0209932
0.0174902
0.0140988
0.0103601
0.00436268
0.0333973
0.0287884
0.0245824
0.0207912
0.0173109
0.0139421
0.0102301
0.00426592
0.0319132
0.0275993
0.0236696
0.0201062
0.0168037
0.0135738
0.00997956
0.00414823
0.0295572
0.0257523
0.0222781
0.0190786
0.0160582
0.0130502
0.00964334
0.00402336
0.0267006
0.0236178
0.020681
0.0178862
0.0151783
0.0124192
0.00922528
0.00388774
0.0314761
0.0274924
0.023795
0.0203829
0.0171743
0.0139887
0.0103808
0.00452284
0.0340343
0.0291711
0.024905
0.0211175
0.017652
0.0142839
0.0105393
0.00448762
0.0353422
0.0300268
0.0254355
0.021435
0.0178291
0.0143654
0.0105551
0.00442295
0.0350136
0.0297372
0.0251863
0.0212256
0.0176527
0.0142166
0.0104349
0.00433329
0.0332233
0.0283998
0.024212
0.020521
0.0171446
0.0138558
0.0101957
0.00422391
0.0305104
0.0263871
0.0227516
0.0194684
0.0163939
0.0133365
0.00986802
0.00410771
0.0273808
0.0241275
0.0210989
0.0182515
0.0155044
0.0127043
0.00945349
0.00398128
0.0323311
0.0280404
0.0241857
0.0206937
0.0174349
0.0142048
0.010545
0.00456244
0.0351708
0.029827
0.0253434
0.0214572
0.0179335
0.0145145
0.0107119
0.00453249
0.0366533
0.0307493
0.0259083
0.0218008
0.0181329
0.0146149
0.0107428
0.00447679
0.0362574
0.0304419
0.0256676
0.0216101
0.0179774
0.0144856
0.0106394
0.00439682
0.0342314
0.0290256
0.0246787
0.0209138
0.0174849
0.0141421
0.0104167
0.00429791
0.0312632
0.0269253
0.0231963
0.0198626
0.016744
0.0136359
0.0101026
0.00419325
0.0279558
0.0246014
0.0215226
0.0186411
0.0158576
0.0130114
0.00969721
0.00407802
0.0327579
0.028349
0.0244491
0.0209351
0.0176518
0.0143876
0.0106822
0.00459214
0.0357877
0.0302188
0.0256597
0.0217409
0.0181846
0.0147233
0.0108677
0.00457239
0.0374181
0.0312209
0.026282
0.0221299
0.0184201
0.0148509
0.0109179
0.00452656
0.0370255
0.0309448
0.0260826
0.0219779
0.0182963
0.0147456
0.0108315
0.00445593
0.034906
0.029526
0.0251163
0.0213079
0.0178272
0.0144216
0.0106244
0.00436676
0.0318426
0.027414
0.023645
0.0202724
0.0171025
0.0139312
0.0103236
0.00427403
0.0284715
0.0250773
0.0219717
0.0190566
0.0162265
0.0133217
0.00993569
0.00417341
0.0329131
0.0285208
0.0246452
0.0211417
0.0178462
0.0145514
0.0108026
0.00462691
0.0360452
0.0304624
0.0259152
0.0219965
0.018418
0.0149173
0.0110112
0.00461665
0.0377944
0.03155
0.0266077
0.0224401
0.018692
0.0150691
0.0110746
0.00457694
0.0374739
0.0313491
0.0264712
0.0223342
0.0185982
0.0149803
0.0109949
0.00451023
0.0353782
0.0299754
0.0255465
0.0216957
0.0181511
0.0146702
0.0107948
0.00442704
0.0323341
0.027892
0.0240988
0.0206793
0.0174427
0.0141951
0.0105082
0.00434475
0.0289755
0.0255672
0.0224347
0.0194744
0.0165838
0.0136083
0.0101429
0.00425824
0.0351683
0.0293006
0.0242983
0.0200421
0.0163656
0.0130259
0.00956855
0.00443818
0.0411651
0.0333748
0.027069
0.0219061
0.0175879
0.0138034
0.010037
0.0046131
0.0452897
0.0362249
0.0290027
0.023202
0.0184409
0.0143516
0.0103737
0.00473542
0.0455262
0.0364569
0.0292032
0.023377
0.018574
0.0144429
0.0104306
0.00476271
0.0419446
0.0341128
0.0276985
0.0224216
0.0179779
0.0140791
0.0102187
0.00469418
0.0367958
0.0305178
0.0252661
0.0208092
0.0169448
0.0134389
0.00984627
0.00456857
0.0313672
0.0267349
0.0226518
0.0190384
0.0157809
0.012703
0.00941018
0.00441651
0.0354019
0.0295053
0.0244785
0.0202194
0.016556
0.0132258
0.00975823
0.00455117
0.0418317
0.0339303
0.0275112
0.0222607
0.0178945
0.0140853
0.0102899
0.00476383
0.0465442
0.0372546
0.0298035
0.0238111
0.0189228
0.0147544
0.0107094
0.00491974
0.047386
0.0379379
0.0303419
0.0242145
0.0192077
0.014945
0.0108275
0.00497058
0.0439955
0.0357622
0.0289582
0.0233503
0.0186789
0.0146245
0.0106376
0.00490651
0.0386578
0.0319931
0.0264019
0.021671
0.0176075
0.01396
0.0102446
0.00477128
0.0328271
0.0279063
0.0235784
0.0197692
0.0163645
0.0131736
0.00977259
0.00460251
0.0353607
0.0294343
0.0244145
0.0202113
0.0166312
0.013383
0.00993798
0.00464576
0.0422349
0.0342101
0.027688
0.0224026
0.0180631
0.0143072
0.0105454
0.00491178
0.047584
0.0380613
0.0303788
0.0242335
0.0192804
0.0151099
0.0110641
0.00511568
0.0492586
0.0393298
0.0313247
0.0249092
0.0197437
0.0154159
0.0112555
0.00520495
0.0462456
0.0374057
0.0301214
0.0241753
0.0193033
0.0151473
0.0110848
0.00514883
0.0406459
0.0334502
0.0274452
0.022431
0.0181998
0.0144587
0.0106641
0.0050002
0.0342795
0.0290003
0.0243892
0.0203895
0.0168735
0.0136126
0.010139
0.00480732
0.0349217
0.0289706
0.0240519
0.0200334
0.0166264
0.0135484
0.0101521
0.00475256
0.0423541
0.0340975
0.0275033
0.0222927
0.0181176
0.0145691
0.0108533
0.00507256
0.0485898
0.0385922
0.0306366
0.0244019
0.0195074
0.0154418
0.011466
0.00533164
0.0515344
0.04054
0.0320529
0.0253734
0.0201542
0.0158621
0.0117449
0.0054725
0.0488124
0.0388793
0.0310309
0.0247667
0.0197959
0.0156418
0.0115832
0.0054276
0.04249
0.0346249
0.0281882
0.0229598
0.0186654
0.0149213
0.0111071
0.00525802
0.0354512
0.0297626
0.0249008
0.0208001
0.0172672
0.0140104
0.0105134
0.005037
0.0338769
0.0280571
0.0234359
0.0197865
0.0167581
0.013701
0.0103829
0.00488308
0.0418283
0.0334256
0.0269256
0.0219841
0.0181156
0.0147464
0.0111378
0.00523416
0.0490219
0.0386651
0.0305152
0.0243437
0.0196559
0.0158951
0.0118891
0.00554264
0.0524007
0.0411981
0.03238
0.0256113
0.0204905
0.0164665
0.0122624
0.0057465
0.0500243
0.0397082
0.0314789
0.0251038
0.0202027
0.016211
0.0121188
0.00572006
0.0433974
0.0351915
0.0284919
0.0232339
0.0190156
0.0153482
0.0115615
0.0055282
0.0359789
0.0300083
0.0250621
0.0210199
0.0175773
0.0143837
0.010891
0.00527545
0.0319562
0.0268082
0.0227795
0.0196287
0.0166492
0.0138571
0.0106016
0.0050017
0.0393363
0.0317836
0.0259404
0.0215205
0.0181416
0.0148821
0.0113822
0.00536003
0.0466587
0.0374098
0.0297137
0.0239942
0.0197246
0.0159913
0.0121274
0.00568811
0.0502865
0.0408288
0.0320765
0.0255414
0.0207064
0.016634
0.0125769
0.00593937
0.047655
0.0393228
0.031266
0.0251034
0.0203876
0.0165125
0.0124622
0.00593095
0.041979
0.0345761
0.0282106
0.0232234
0.0192298
0.015808
0.0119398
0.00573472
0.035269
0.0296068
0.0249187
0.0210899
0.0178057
0.0147273
0.0112015
0.00545864
0.029518
0.0253769
0.0219864
0.019204
0.0166108
0.0139843
0.010717
0.00504584
0.0352928
0.0293852
0.0246393
0.0210184
0.0177784
0.0148684
0.0114423
0.00536197
0.0414339
0.0341299
0.0278595
0.0230086
0.0193484
0.0159152
0.0121831
0.00569688
0.0461259
0.0377348
0.0301954
0.0245662
0.0203636
0.0166278
0.0126632
0.00597506
0.0447676
0.0368101
0.0296953
0.024326
0.0202627
0.0165584
0.012589
0.00600213
0.039123
0.0326057
0.0270921
0.0227041
0.0191381
0.015794
0.0120581
0.00582396
0.033377
0.0284441
0.0242924
0.0208419
0.0177954
0.0148396
0.0113362
0.00554056
0.0272202
0.024101
0.0215132
0.0190191
0.0166167
0.0140014
0.0106712
0.00499283
0.0314605
0.0269549
0.0232766
0.0202076
0.0175726
0.014803
0.011359
0.00529565
0.0359233
0.0303781
0.025713
0.0220183
0.0186292
0.0156245
0.0119979
0.0055848
0.039129
0.0328452
0.0274338
0.0230752
0.0195703
0.0161656
0.0124339
0.00583741
0.0384901
0.0324222
0.0271828
0.0229278
0.0193941
0.0161989
0.0124698
0.00594387
0.0348437
0.0297474
0.0253563
0.0216883
0.0186411
0.0155843
0.0120619
0.00584748
0.0305874
0.0266653
0.0232074
0.020238
0.0176579
0.0147728
0.0113566
0.00556349
0.0257286
0.0232604
0.0210001
0.0189533
0.0167079
0.0139735
0.010567
0.00492124
0.0287872
0.0253013
0.022431
0.0199144
0.0174148
0.0147026
0.0111874
0.00519305
0.0321367
0.0277885
0.0242236
0.0210945
0.0183319
0.0154285
0.0117415
0.00544352
0.034442
0.0295565
0.0255049
0.0220361
0.0188933
0.0158877
0.0121379
0.0056792
0.0342389
0.0294418
0.0254025
0.0219342
0.0188473
0.0158424
0.0122268
0.00581908
0.0318206
0.0276944
0.0241178
0.0210105
0.018189
0.0154317
0.0119849
0.00581057
0.0285552
0.025378
0.022482
0.0199357
0.0173488
0.0147556
0.0114064
0.00559888
0.0256369
0.0234923
0.0214075
0.0193309
0.0168583
0.0139833
0.010511
0.00489655
0.0279692
0.02505
0.0222922
0.0200141
0.0175733
0.0146602
0.0110591
0.00513239
0.0304339
0.0270257
0.0239183
0.0211294
0.018426
0.015325
0.0115429
0.00535298
0.0321265
0.0284465
0.0250695
0.0219513
0.0190354
0.0158252
0.0119327
0.00557413
0.0321716
0.0284948
0.0250883
0.021958
0.0189926
0.0159124
0.0120932
0.00573082
0.030614
0.027193
0.0240497
0.021253
0.0184587
0.0155957
0.0119673
0.0057742
0.0280729
0.0252237
0.0225464
0.0199827
0.017599
0.0149694
0.0115112
0.0056428
0.0265964
0.0243243
0.0222256
0.0198041
0.017096
0.0141016
0.0105632
0.0049176
0.0289998
0.0260775
0.0233936
0.020755
0.0179332
0.0147722
0.0110494
0.00512044
0.0314089
0.0280496
0.0248715
0.0219167
0.0187782
0.0154077
0.0114888
0.00532046
0.0331124
0.029484
0.0260251
0.0226948
0.0193994
0.015906
0.0118647
0.00553626
0.0332858
0.0295904
0.0260783
0.02275
0.0195542
0.0160868
0.0120499
0.00569618
0.0318027
0.0282307
0.0249128
0.0217553
0.0189559
0.0158111
0.0119647
0.0057531
0.0291611
0.0261302
0.023291
0.0206176
0.0180579
0.0151812
0.0115438
0.00565094
0.0282257
0.0258007
0.0232654
0.0204435
0.0174784
0.0143547
0.0107407
0.0049869
0.0312235
0.0279107
0.0248799
0.0216775
0.0184004
0.0150185
0.0111779
0.0051621
0.0341944
0.0302486
0.0265
0.0229123
0.0193134
0.0156609
0.0115899
0.00534662
0.0363414
0.0319648
0.0278344
0.0239044
0.0200353
0.0161879
0.0119594
0.0055566
0.0366559
0.0321249
0.0279225
0.0239778
0.0201742
0.0163508
0.0121188
0.00570328
0.0347247
0.0304432
0.0265178
0.0229063
0.0196015
0.0160586
0.0120013
0.0057465
0.0314403
0.0278851
0.0246057
0.0215458
0.0186607
0.0154187
0.0115892
0.00565121
0.0302736
0.0272448
0.024167
0.0210477
0.0179027
0.0146816
0.0109981
0.0050876
0.034112
0.0299726
0.0261605
0.0224673
0.0188989
0.0153535
0.011413
0.00524817
0.0380601
0.0329861
0.0283387
0.0239595
0.019913
0.0160157
0.0118116
0.00542371
0.0409974
0.0352115
0.0299535
0.025129
0.0207176
0.0165617
0.0121704
0.0056256
0.0415442
0.0354633
0.0301071
0.0252746
0.0208613
0.016696
0.0122899
0.00575182
0.038819
0.0333318
0.02852
0.024264
0.0202261
0.0163364
0.0121062
0.00576396
0.0344551
0.0300625
0.0260936
0.0225481
0.0191075
0.0156198
0.0116634
0.00565993
0.0322488
0.0284335
0.0249032
0.0215606
0.0182991
0.0150092
0.0112635
0.00519185
0.0370551
0.031885
0.027274
0.0231603
0.019373
0.0157124
0.0116928
0.00535678
0.0423196
0.0356609
0.0299071
0.0248725
0.0204661
0.0163973
0.0120974
0.00553327
0.0464041
0.0385796
0.0318873
0.0261855
0.0213151
0.0169442
0.0124457
0.00572889
0.0468075
0.0388965
0.0321025
0.0263487
0.0214401
0.0170408
0.0125249
0.00583435
0.0433705
0.0362473
0.0302889
0.0252325
0.0207326
0.0166018
0.0122676
0.0058096
0.0376855
0.0322012
0.0274448
0.023326
0.0195262
0.0158415
0.011803
0.00569495
0.0337102
0.0292136
0.0254096
0.0219546
0.0186226
0.0152717
0.0114585
0.00527286
0.0393745
0.033172
0.0280257
0.0236751
0.0197673
0.0160316
0.0119443
0.00546251
0.0458239
0.0376033
0.0309309
0.0254932
0.020906
0.0167493
0.0123839
0.00565436
0.0513103
0.0412005
0.0332028
0.0268918
0.0217716
0.0172972
0.0127352
0.00585175
0.052007
0.041632
0.0334579
0.0270469
0.0218641
0.0173561
0.0127823
0.00594118
0.0472326
0.0383578
0.0313608
0.0257365
0.02105
0.0168396
0.0124642
0.00588447
0.0401801
0.0337381
0.0283232
0.0237201
0.0197884
0.0160451
0.0119793
0.00576084
0.0345011
0.029737
0.0258103
0.0222477
0.0188341
0.0154089
0.0115273
0.0052953
0.0406808
0.0339113
0.0285079
0.0240457
0.0200664
0.0162679
0.0121143
0.00554694
0.0474123
0.0385745
0.031497
0.0259135
0.0212606
0.0170531
0.012626
0.00577655
0.0533892
0.0423586
0.0338485
0.0273366
0.022139
0.0176169
0.0129972
0.00598641
0.0542297
0.0428117
0.0340872
0.0274572
0.0221923
0.017642
0.0130204
0.00606599
0.04879
0.0392392
0.0318556
0.0260475
0.0213028
0.0170676
0.012661
0.0059886
0.0412051
0.0344641
0.028752
0.0239735
0.0199962
0.0162404
0.0121581
0.00586239
0.0310387
0.0265023
0.0224949
0.018955
0.0157555
0.0127117
0.00942226
0.0043762
0.0347236
0.0289178
0.0241606
0.0201629
0.0166705
0.013408
0.00991587
0.0045055
0.037089
0.0304158
0.0251487
0.0209028
0.0173016
0.0139265
0.0102934
0.00458756
0.0371538
0.0303635
0.0251191
0.0210471
0.0175384
0.0141868
0.0105133
0.0046253
0.0350793
0.0289435
0.0242563
0.0205738
0.0173681
0.0141828
0.0105522
0.00462028
0.0319111
0.0269856
0.0231007
0.0199016
0.0169325
0.0138597
0.0103274
0.00451716
0.0285617
0.0249945
0.0218515
0.0189445
0.0161131
0.013188
0.00982697
0.00429548
0.0323857
0.0275701
0.0233416
0.0196347
0.0163166
0.0131777
0.00978907
0.00456478
0.0361183
0.0299584
0.0249525
0.0208075
0.0172495
0.0139092
0.0103181
0.00470583
0.0383228
0.0312779
0.0257916
0.0214859
0.0178738
0.0144323
0.0107094
0.00479367
0.0380673
0.0309866
0.0256066
0.021468
0.0179881
0.0146547
0.010909
0.00482692
0.0357271
0.0294557
0.0247437
0.0210646
0.0178328
0.0145698
0.0108436
0.00475392
0.0324189
0.0274496
0.023572
0.020298
0.0172397
0.0140982
0.0105008
0.00460029
0.028917
0.0252677
0.0220402
0.019058
0.0161565
0.0131909
0.00981508
0.00428408
0.0336986
0.0285264
0.0240423
0.0201896
0.0167956
0.0136028
0.0101489
0.00477021
0.0374412
0.0308436
0.025559
0.0213412
0.0177478
0.0143548
0.0107021
0.00491983
0.0393875
0.0319264
0.0262259
0.0219143
0.0182519
0.014847
0.0110894
0.00501195
0.0387452
0.0313986
0.0259245
0.0218307
0.0183886
0.0150351
0.0112248
0.00499636
0.0361034
0.0297258
0.0249564
0.0213118
0.0180881
0.0147861
0.0110215
0.00485968
0.0326331
0.0276483
0.0237191
0.0204019
0.0173073
0.0141372
0.01053
0.00461972
0.0289275
0.0252039
0.0219226
0.0189086
0.0160005
0.0130583
0.00971813
0.0042424
0.0347613
0.0291774
0.0244574
0.0205407
0.0171555
0.0139777
0.0105028
0.00499279
0.0385673
0.0314363
0.0258876
0.0216376
0.0180231
0.0146999
0.0110598
0.00515672
0.0402746
0.0323796
0.0264846
0.0220813
0.0185226
0.0151979
0.0114309
0.00523197
0.039224
0.0316732
0.0261674
0.0220703
0.0186462
0.0152855
0.0114531
0.00514637
0.036208
0.029823
0.0251502
0.0214585
0.0182125
0.0149139
0.0111489
0.00496287
0.0324492
0.0274675
0.0235887
0.0203285
0.0172308
0.0140839
0.0105087
0.0046334
0.0284412
0.0247722
0.0215739
0.0186175
0.0157687
0.0128919
0.00960988
0.00421081
0.0351922
0.0293343
0.0245938
0.0207738
0.0174742
0.014338
0.0108501
0.00522083
0.0391286
0.0316307
0.0260338
0.021814
0.0182547
0.0150321
0.0114075
0.00540754
0.0407242
0.0325881
0.0267248
0.0223923
0.018822
0.015509
0.0117235
0.00543744
0.0392968
0.0317516
0.0263409
0.0222382
0.0188032
0.0154712
0.0116378
0.00529253
0.0359304
0.0297604
0.0251573
0.0214733
0.018269
0.0149914
0.0112285
0.00503978
0.0319371
0.0271392
0.0233582
0.0201747
0.0171347
0.0140288
0.0104776
0.0046456
0.0276769
0.0242164
0.0211848
0.0183541
0.0155961
0.0127793
0.00953855
0.0042063
0.0346769
0.0290575
0.0245558
0.0209711
0.0177677
0.0146561
0.0111271
0.00539177
0.0389357